ITEM: TIMESTEP
2000
ITEM: NUMBER OF ATOMS
500
ITEM: BOX BOUNDS pp pp pp
-30.0 30.0
-30.0 30.0
-30.0 30.0
ITEM: ATOMS id type x y z Coordination
1 1 5.73253 -0.78164 6.84666 20
2 1 0.879313 4.91976 10.0902 13
3 1 -8.97 0.835264 0.504447 18
4 1 -3.07957 0.72597 -9.14026 11
5 1 -11.9765 3.72247 0.71963 10
6 1 -0.109236 3.56949 -10.0084 11
7 1 4.68879 -6.27093 -6.0995 15
8 1 5.15457 1.17774 8.89845 16
9 1 1.934 6.57413 7.68554 16
10 1 -8.52115 -2.57433 0.146852 19
11 1 7.78436 -2.2008 -0.792337 19
12 1 5.12991 -1.30307 10.5194 9
13 1 -6.39685 -4.1302 1.86323 21
14 1 -5.14257 -7.12535 -6.4206 10
15 1 4.95482 -1.13755 -5.5361 18
16 1 5.6713 -8.31209 1.9827 12
17 1 -3.84218 6.84822 3.96399 19
18 1 2.35098 11.2425 1.32915 9
19 1 -1.24569 -6.56356 -6.256 17
20 1 0.00915874 3.65331 7.29753 20
21 1 6.80249 -5.45407 0.659727 18
22 1 -5.72609 7.8305 1.77442 19
23 1 3.66948 6.21241 -9.08861 11
24 1 7.34814 6.48128 -0.2682 12
25 1 -1.00328 8.21148 -4.03651 16
26 1 -5.97905 5.31521 -6.05318 14
27 1 -2.80999 9.43731 -0.716923 14
28 1 2.66882 9.32207 -1.65112 14
29 1 -9.91482 6.34138 -0.322492 14
30 1 -0.900054 7.50391 8.18364 11
31 1 -4.04775 3.95059 -7.82153 14
32 1 -6.85661 -6.3304 4.15343 16
33 1 4.99189 -9.19703 -3.92583 11
34 1 -9.356 0.40381 3.68604 17
35 1 -6.91572 0.787445 -4.17177 19
36 1 -0.235816 -9.51357 2.53024 13
37 1 6.40463 3.70348 -4.72544 16
38 1 -7.04231 -4.20551 -5.9528 12
39 1 1.09179 7.04698 -9.90689 11
40 1 0.172406 11.1154 -0.326781 8
41 1 -8.86206 4.00365 1.65948 17
42 1 1.28353 9.59735 6.60636 12
43 1 1.96541 -1.30246 9.05188 16
44 1 1.4709 -10.0275 -2.82458 15
45 1 7.19572 0.939945 -6.00885 12
46 1 4.3515 -4.03119 9.28029 11
47 1 1.92158 -4.91944 7.15462 18
48 1 5.93484 7.89375 2.21764 11
49 1 -8.17404 -8.11269 2.1394 9
50 1 -2.99563 -9.79698 1.02245 14
51 1 -5.85002 -1.55902 7.62154 14
52 1 -11.5373 -1.93663 4.2646 9
53 1 2.81217 -10.3828 0.908082 13
54 1 -10.707 -1.75997 1.77003 14
55 1 -5.56658 10.5586 0.124866 9
56 1 -10.0823 6.69722 3.13223 11
57 1 -3.93077 6.91142 7.50797 10
58 1 -5.6209 -2.68541 -4.21677 19
59 1 -10.1404 1.62826 -5.38859 9
60 1 -3.65412 -4.52431 -6.19781 19
61 1 7.85087 -2.18844 5.61641 15
62 1 -4.13903 1.48184 7.41793 19
63 1 -6.94829 2.25148 -6.86749 14
64 1 -12.7188 1.44977 -0.970273 9
65 1 -2.71535 -7.42203 -1.03507 22
66 1 -7.46398 6.85261 5.0349 12
67 1 -0.890681 -9.32056 -4.99394 14
68 1 0.00185256 11.0365 3.67215 10
69 1 -11.2823 -1.55322 -1.90583 10
70 1 -9.87047 1.35004 -2.75945 19
71 1 -4.27531 -10.5014 -4.72828 10
72 1 3.9536 -6.44504 4.10285 16
73 1 -8.68076 4.25503 -4.84184 15
74 1 -2.24638 4.18733 8.65474 16
75 1 -8.66284 3.76885 4.44312 15
76 1 1.50002 -8.10263 -7.22953 12
77 1 -1.29521 -6.22595 7.05804 13
78 1 2.56277 -7.68014 -4.16643 20
79 1 7.57173 3.18104 3.80861 20
80 1 3.1919 3.37425 -9.68682 9
81 1 7.51246 -4.46188 7.46956 10
82 1 -6.78648 -8.76813 -3.73734 10
83 1 -8.56212 -2.20281 5.52118 13
84 1 8.09519 -0.930963 8.56519 10
85 1 9.52503 5.24092 1.25126 11
86 1 1.3437 3.95409 -7.64731 21
87 1 0.109846 8.02433 -6.5217 15
88 1 5.34754 10.7564 2.76237 9
89 1 4.22705 3.54155 -7.15356 18
90 1 1.79488 -7.53037 2.30363 22
91 1 3.93212 -6.60118 0.455176 23
92 1 -0.1279 -9.7427 -0.682416 15
93 1 -11.5307 3.98998 -2.94855 13
94 1 10.6298 -0.72334 1.90148 9
95 1 -4.80718 8.35631 -4.33504 12
96 1 4.00051 -6.92001 -9.37762 7
97 1 -6.58941 -4.26916 5.93656 14
98 1 -1.89525 -11.6772 -3.33579 8
99 1 1.92155 -5.35999 -8.61744 12
100 1 1.74897 -7.28557 -1.02633 22
101 1 -6.84745 -5.56002 -3.82755 17
102 1 -0.438809 -1.20435 10.7517 10
103 1 -1.21705 1.61851 9.5068 15
104 1 4.53203 -3.66154 -7.30827 15
105 1 -8.49502 4.13496 -1.42412 22
106 1 5.78825 9.16118 -0.6276 9
107 1 7.20527 1.15708 -2.628 21
108 1 -1.36149 2.34711 -7.25436 22
109 1 -5.87821 4.82583 3.67068 21
110 1 -0.704764 -3.83806 8.80987 14
111 1 -8.53002 -1.85199 -4.19304 15
112 1 9.7842 -4.15383 0.608064 8
113 1 3.52539 3.45542 9.31318 15
114 1 4.69222 -6.4158 7.77186 8
115 1 10.5921 4.26795 3.97346 10
116 1 6.80394 4.34457 8.79733 11
117 1 -0.83924 -3.73694 -7.56934 16
118 1 4.36531 6.40253 10.2786 10
119 1 -3.14099 6.40016 -6.09045 17
120 1 -4.79115 -10.5863 -1.57781 10
121 1 9.27691 4.81706 6.55243 10
122 1 -6.86464 7.50872 -1.07505 16
123 1 7.64643 6.72656 -3.22799 10
124 1 2.5161 0.856001 10.6532 13
125 1 0.864845 0.952131 -9.05408 16
126 1 5.05889 -6.63939 -2.4358 21
127 1 6.83679 9.06598 5.27803 10
128 1 1.66453 -4.83912 -5.92389 22
129 1 4.27367 -3.81981 5.59075 22
130 1 -6.04247 4.20209 6.77847 13
131 1 7.86794 0.459384 4.15888 19
132 1 2.14255 9.65693 -5.16008 9
133 1 8.16729 3.85451 -1.63986 15
134 1 -3.32115 -1.12393 9.14554 14
135 1 -3.84545 -4.1248 7.29741 16
136 1 -2.78869 6.49533 -2.58546 20
137 1 7.09601 6.81793 7.7189 11
138 1 -9.0898 -4.33467 3.18153 14
139 1 8.30961 -1.7957 2.48788 16
140 1 -4.41907 -7.15014 1.99305 20
141 1 7.38785 2.06152 6.50254 14
142 1 7.06406 -8.43076 -0.961421 12
143 1 2.89484 11.0836 5.12145 9
144 1 -9.27412 -4.12291 -3.04803 14
145 1 3.60569 8.87479 -8.00509 10
146 1 -5.60173 -1.11699 -6.93657 15
147 1 1.38061 -1.89975 -7.38485 17
148 1 -3.31956 -7.36364 -4.21028 19
149 1 -2.14364 -8.33367 4.28668 14
150 1 7.20903 -4.81288 -2.32922 13
151 1 -13.0908 0.776177 2.43159 7
152 1 -1.41747 6.0213 -8.76544 13
153 1 -6.25901 -6.98863 -0.504762 22
154 1 6.84215 -4.82095 3.72856 15
155 1 -2.93337 -1.72279 -7.5996 15
156 1 -8.57679 8.92126 2.13258 10
157 1 -6.87258 1.24092 5.73549 18
158 1 8.57288 6.73975 4.422 12
159 1 9.9362 1.84573 1.94315 14
160 1 -4.50997 -7.09409 6.50594 12
161 1 4.12352 0.123927 -7.67663 15
162 1 5.19995 6.40652 -5.94954 14
163 1 4.34471 8.48746 7.14332 12
164 1 4.4782 8.25141 -3.64928 12
165 1 9.71506 0.64103 -1.0609 13
166 1 8.07991 -1.78873 -3.65395 11
167 1 -1.4272 8.34259 5.13407 17
168 1 -3.14358 9.77541 2.42104 12
169 1 -5.13442 -9.33295 3.75128 11
170 1 4.25533 -9.42272 -1.03689 19
171 1 -8.75234 -5.6391 0.119347 14
172 1 -7.7416 6.93684 -3.55857 13
173 2 -12.3307 -0.653065 2.94864 8
174 2 9.68429 5.77002 3.14744 11
175 2 -10.0928 4.59905 0.457865 18
176 2 -4.03518 -8.7714 5.35269 10
177 2 4.2164 0.269919 10.9239 10
178 2 -3.06325 7.29588 5.70417 15
179 2 4.80909 -7.33879 -4.39119 14
180 2 -6.09115 3.73856 -7.66974 12
181 2 2.12418 -7.4211 -8.86657 9
182 2 -3.77419 7.91922 2.32568 21
183 2 7.67857 -4.45628 2.04828 15
184 2 6.94881 7.74063 3.78282 10
185 2 -0.984571 8.86448 7.00209 13
186 2 6.31047 8.35277 6.88293 10
187 2 4.61453 7.31347 -7.5735 10
188 2 4.23106 -1.73196 -7.16931 16
189 2 -8.87592 0.225764 -4.51438 14
190 2 -1.42832 -6.98813 5.3766 14
191 2 -8.65022 2.29659 1.74627 18
192 2 3.86787 -5.28692 -8.47037 11
193 2 -1.16882 -9.70186 0.858458 15
194 2 1.36716 7.54835 6.2856 15
195 2 3.56707 -2.23236 9.46106 14
196 2 -6.23503 -8.06949 3.01421 11
197 2 1.72972 -9.44283 2.00934 15
198 2 -8.3673 -6.48604 3.04472 12
199 2 -3.93837 -9.13467 -0.542205 14
200 2 -6.52832 -6.84795 -2.40187 18
201 2 -3.93488 10.0966 0.833748 10
202 2 4.08066 2.00599 -8.22294 13
203 2 8.79555 5.22688 -0.536015 12
204 2 2.70629 7.73478 -9.3601 9
205 2 9.16022 3.58457 4.91944 14
206 2 0.514445 11.5599 1.93426 9
207 2 -6.14684 7.06636 3.61106 17
208 2 2.08887 10.8188 -0.533985 8
209 2 2.43991 9.79234 -6.93774 8
210 2 -2.32643 6.2864 8.44174 13
211 2 0.236191 -2.23861 8.71748 17
212 2 1.13424 -3.85359 -7.8277 16
213 2 -0.356291 -10.7916 -2.36459 11
214 2 -3.20712 -6.48162 -6.08039 16
215 2 -8.50794 -4.49403 -1.28132 17
216 2 8.39253 -4.15495 -0.727274 13
217 2 7.99793 6.2898 6.10649 13
218 2 -1.02598 1.48326 -9.15102 13
219 2 2.15466 -0.0995312 -7.88661 16
220 2 -6.26163 -5.86199 -5.68886 15
221 2 2.53467 -6.64829 -5.86779 20
222 2 7.2206 -0.732783 -4.99011 13
223 2 -5.2009 -5.50735 2.97814 21
224 2 -0.763343 -1.76947 -7.53424 18
225 2 -1.37681 -7.51002 -4.27718 16
226 2 -0.543203 4.0374 -7.91075 20
227 2 -7.64582 -7.20861 0.596942 14
228 2 -5.88733 6.6009 0.245342 19
229 2 -7.96706 -3.86377 4.75118 15
230 2 -12.2029 3.88262 -1.26608 11
231 2 4.50587 -6.29772 5.93094 14
232 2 8.10236 2.41181 2.08785 21
233 2 3.10857 9.6084 6.24671 12
234 2 -1.87662 -0.577765 9.94561 12
235 2 -9.65244 4.94139 3.33632 14
236 2 -6.71104 -1.27862 -3.59317 20
237 2 10.4068 3.80057 2.06955 10
238 2 -9.18471 -0.308647 1.9843 18
239 2 -5.34808 7.12325 -5.8155 12
240 2 1.54199 2.731 -9.61856 12
241 2 -8.55409 6.63056 -1.64341 14
242 2 5.78757 -9.46842 -2.1853 10
243 2 -3.64839 -11.623 -2.52974 7
244 2 -6.83324 9.27731 0.937674 11
245 2 1.96071 -9.75503 -0.876647 17
246 2 2.79261 5.05435 10.061 11
247 2 -1.01212 9.79481 -0.326872 14
248 2 -4.1548 -0.590728 7.48314 19
249 2 0.0454377 7.33714 -8.34723 13
250 2 8.74387 -0.498977 -2.35757 13
251 2 1.14037 -0.330355 10.4399 13
252 2 5.81861 6.29586 0.955616 12
253 2 3.54148 7.44368 8.60702 13
254 2 -8.37963 -4.20429 1.34259 19
255 2 0.48881 6.30473 8.94021 12
256 2 8.05802 -2.62272 7.56038 9
257 2 -0.242533 5.41018 -10.3297 10
258 2 2.99267 1.71299 8.9143 18
259 2 4.97093 -4.39568 3.96044 19
260 2 -11.4064 0.346837 -1.75306 12
261 2 -7.02321 5.36294 -4.50248 16
262 2 -8.26094 2.60737 -5.60614 12
263 2 -3.07951 -5.91495 7.01722 14
264 2 6.06616 10.7125 4.43017 10
265 2 -6.16627 -2.60651 -6.29892 17
266 2 9.1972 0.241825 2.83608 17
267 2 -6.07667 7.7599 -2.87738 12
268 2 6.67162 -7.48766 0.738815 13
269 2 -5.8531 -6.11847 5.75495 14
270 2 -8.17717 -4.03959 -4.66671 13
271 2 2.63904 8.09469 -4.22081 17
272 2 -8.68647 7.75868 3.80846 9
273 2 -0.0541853 -4.77918 7.21178 17
274 2 -9.56837 7.67152 1.17026 12
275 2 -0.322245 3.62343 9.32975 14
276 2 -10.3183 -2.01744 -0.237964 13
277 2 5.71155 9.58081 1.2159 11
278 2 -4.61716 5.25752 6.73747 17
279 2 -4.20619 -0.609166 -8.49645 11
280 2 -1.043 6.75097 -5.70152 17
281 2 -3.33409 -6.46827 -2.61584 21
282 2 5.46243 1.16863 7.03208 20
283 2 8.10165 2.01883 -1.20518 15
284 2 1.87962 -6.15877 4.0046 19
285 2 5.09531 0.863038 -5.91671 19
286 2 1.87502 4.54036 7.03881 18
287 2 -5.92758 2.34505 6.94642 15
288 2 -6.10995 -4.09793 -2.95746 22
289 2 -8.27546 1.85824 4.6655 17
290 2 -10.6603 -3.32133 3.1639 13
291 2 -2.54357 -10.3721 -4.80524 11
292 2 5.4637 3.05493 9.42409 12
293 2 -2.91477 5.644 -7.92475 14
294 2 6.11633 7.25261 -4.38926 12
295 2 0.00542102 -8.61904 -6.4564 10
296 2 7.72068 -0.148281 6.4664 15
297 2 5.98018 -0.927084 8.96967 12
298 2 0.125386 9.411 -4.82362 9
299 2 -2.74505 -3.67548 -7.7119 16
300 2 -1.3488 9.69525 3.30298 14
301 2 -2.92897 7.94867 -3.96491 15
302 2 -10.926 2.70043 -4.07945 12
303 2 -7.42807 4.87167 5.31028 14
304 2 3.08505 4.65309 -8.25371 15
305 2 4.75026 -4.37371 -5.67946 14
306 2 -9.26785 4.44822 -3.03686 16
307 2 -3.245 2.0668 -7.57295 18
308 2 5.9462 -4.87988 8.35278 9
309 2 -6.67157 -0.802272 5.81486 18
310 2 -9.74143 -1.07713 4.77448 12
311 2 7.44303 -4.3429 5.45742 11
312 2 -12.4053 1.72968 0.920044 11
313 2 -2.87982 2.31346 8.64318 15
314 2 -0.336287 -7.62291 2.80739 16
315 2 6.60414 1.95817 4.75259 16
316 2 3.09656 -9.41923 -3.57365 13
317 2 -2.7417 7.3915 -0.788651 21
318 2 -6.09121 0.715371 -6.00448 17
319 2 -5.6498 -3.37647 7.53296 13
320 2 3.23426 -5.30028 8.34412 9
321 2 5.65808 4.48547 -6.24533 16
322 2 6.18279 6.22394 9.3597 11
323 2 7.19165 -1.404 4.03071 18
324 2 6.74984 -2.19419 -2.47229 17
325 2 3.66622 -7.42414 -1.16852 27
326 2 7.0551 4.8974 -2.85039 15
327 2 -9.99643 -2.36772 -3.13145 11
328 2 -8.5878 2.04611 -1.42156 16
329 2 4.0303 -7.40037 2.29592 17
330 2 4.51366 9.14552 -1.85427 10
331 2 10.7512 0.838927 0.568539 11
332 2 6.95281 7.90233 -1.45457 12
333 2 10.1323 -2.56636 1.38815 9
334 2 4.72289 -9.71621 1.02703 12
335 2 -5.26249 -8.7607 -4.84922 12
336 2 3.4579 11.2267 3.09902 10
337 2 0.992011 10.7417 5.20219 10
338 2 -3.40808 -8.78021 2.46534 15
339 2 -2.43883 -3.11836 8.54558 17
340 2 7.99399 3.7811 7.54981 11
341 2 7.3235 2.08502 -4.57381 13
342 2 -4.09346 4.54234 -5.66992 20
343 2 -5.92144 -10.0729 -2.84437 10
344 2 7.01289 -6.88748 -2.08471 13
345 1 -5.9206 -1.07704 -1.88907 19
346 1 -6.63546 -3.92169 -1.14603 21
347 1 -0.53366 -6.66213 -2.76126 18
348 1 -0.705614 -0.771648 -5.89104 22
349 1 -3.21128 -1.80045 -4.2611 23
350 1 -1.08763 -3.84494 -4.33549 25
351 1 -4.01716 -4.66739 -2.63223 23
352 1 -0.533091 -1.13658 -2.60914 19
353 1 -3.21945 -1.67254 -0.950154 20
354 1 -1.13009 -3.80546 -0.943309 23
355 2 -6.74087 -1.87414 -0.374876 20
356 2 -0.291072 -7.6405 -0.965215 24
357 2 -3.5749 -0.876206 -5.9265 21
358 2 -0.295428 -5.01824 -6.1259 22
359 2 -3.26395 -3.86712 -4.43088 21
360 2 -1.26315 -1.92475 -4.33436 22
361 2 -4.0176 -1.09259 -2.67109 20
362 2 -0.439737 -4.55266 -2.61335 23
363 2 -3.119 -3.72397 -0.981824 22
364 2 -1.21847 -1.72431 -0.968211 22
365 1 -5.79889 -0.983744 1.12989 18
366 1 -5.77625 -0.786419 3.90536 21
367 1 -0.88923 -6.67624 0.875192 23
368 1 -0.119487 -6.25075 4.18452 15
369 1 -3.679 -4.673 0.611453 20
370 1 -0.521325 -0.80663 0.674077 23
371 1 -3.19932 -1.75117 2.46837 21
372 1 -1.06521 -3.70973 2.26757 20
373 1 -3.87649 -4.66748 4.10842 21
374 1 -0.363145 -0.870184 3.98332 21
375 1 -3.18235 -1.45628 5.61771 21
376 1 -1.24739 -3.40614 5.60111 22
377 1 -0.170629 -0.83604 7.24972 23
378 2 -5.61645 -5.1795 0.0343176 20
379 2 -6.29446 -2.26343 2.71412 20
380 2 -2.94388 -6.45785 0.7752 21
381 2 -3.79874 -0.940715 0.766986 21
382 2 -0.517617 -4.74682 0.754512 23
383 2 -3.12742 -3.86137 2.38426 21
384 2 -1.27064 -1.71698 2.35165 22
385 2 -3.91713 -0.797712 4.00119 20
386 2 -0.259845 -4.12992 4.06719 21
387 2 -3.36249 -3.37639 5.4396 20
388 2 -1.13715 -1.42761 5.73391 20
389 1 -5.76201 5.11232 -2.8678 21
390 1 -6.5807 1.98428 -0.987196 20
391 1 -4.04234 1.18852 -5.99543 20
392 1 -0.440155 4.9011 -5.83314 20
393 1 -3.24794 3.75718 -4.16114 19
394 1 -0.951532 1.84197 -4.30545 21
395 1 -3.99932 0.957546 -2.64912 21
396 1 -0.364947 4.77525 -2.62797 22
397 1 -3.14761 3.91015 -1.03475 22
398 1 -1.0306 1.93434 -0.88341 22
399 1 -0.646676 7.80202 -0.831857 18
400 2 -5.93481 0.991974 -2.44334 16
401 2 -6.54922 4.09579 -1.26934 19
402 2 -0.325735 1.2934 -6.0791 23
403 2 -3.12234 1.72653 -4.25492 21
404 2 -1.12367 3.94745 -4.28552 21
405 2 -3.85499 4.96268 -2.6792 21
406 2 -0.402132 0.884972 -2.65634 21
407 2 -3.10675 1.76286 -0.952244 22
408 2 -1.1421 4.00623 -0.928529 23
409 2 -0.259794 6.89655 -2.52433 20
410 1 -6.11877 4.716 0.430002 21
411 1 -6.52184 2.04642 2.19513 20
412 1 -3.88754 1.12925 0.7401 22
413 1 -0.440071 4.85463 0.758031 22
414 1 -3.17762 4.10827 2.27493 21
415 1 -0.952797 2.09458 2.43056 22
416 1 -3.8479 1.26711 3.96601 22
417 1 -0.712575 4.83241 4.10397 21
418 1 -3.2057 4.09779 5.63163 21
419 1 -1.19028 1.71114 5.75682 21
420 1 -3.87782 6.69091 0.559966 22
421 1 -0.778283 8.08362 2.32826 18
422 2 -5.9153 1.08477 0.692296 22
423 2 -6.6732 4.05225 2.08553 21
424 2 -5.7887 1.37513 3.78557 21
425 2 -3.80538 4.73255 0.598543 22
426 2 -0.338952 1.19846 0.820237 20
427 2 -3.0729 2.0534 2.29597 21
428 2 -1.12769 4.06523 2.4056 19
429 2 -4.05479 4.83117 3.8636 20
430 2 -0.387085 1.15554 4.10861 21
431 2 -3.2222 1.98659 5.59926 21
432 2 -1.32799 3.74419 5.90702 21
433 2 -0.119958 1.35217 7.60341 20
434 2 -0.159401 7.0621 0.856105 17
435 2 -0.51889 6.83535 3.82956 16
436 1 2.00523 -2.01916 -4.028 23
437 1 4.23321 -3.96711 -3.97237 20
438 1 1.46541 -4.77386 -2.62756 23
439 1 5.05894 -1.0915 -2.46077 22
440 1 2.34597 -1.80035 -0.94081 21
441 1 4.30912 -3.89326 -0.927643 23
442 2 1.38499 -6.7567 -2.99708 20
443 2 1.21146 -1.0896 -5.50666 23
444 2 2.18713 -4.04021 -4.17772 22
445 2 4.04238 -1.75675 -4.0497 21
446 2 1.51264 -0.964087 -2.49569 20
447 2 5.29875 -4.77222 -2.42926 20
448 2 2.33938 -3.74402 -1.16258 23
449 2 4.28549 -1.89236 -0.760946 22
450 1 1.50897 -4.38942 0.634954 22
451 1 5.37821 -0.993083 0.59969 20
452 1 2.46555 -1.58056 2.27116 21
453 1 4.31331 -3.84832 2.1368 21
454 1 1.69432 -4.21741 4.04678 21
455 1 5.27374 -1.17408 3.95322 21
456 1 2.55214 -1.54713 5.59201 21
457 2 1.81669 -6.32906 0.655135 21
458 2 1.52963 -0.84383 0.565356 21
459 2 4.98073 -4.99061 0.596205 23
460 2 2.21612 -3.56178 2.30725 24
461 2 4.64986 -1.92579 2.13879 22
462 2 1.67734 -0.906573 3.94953 22
463 2 2.39406 -3.53775 5.85906 20
464 2 4.57901 -1.71356 5.62347 18
465 2 1.92358 -0.590366 7.24463 19
466 2 7.3933 -0.850437 0.512113 23
467 1 1.59766 0.949683 -5.98924 24
468 1 2.55278 3.84594 -4.15961 19
469 1 4.32336 1.52772 -4.21307 22
470 1 1.50667 1.09214 -2.65266 21
471 1 5.09662 4.90113 -2.61975 20
472 1 2.39809 3.98023 -0.94342 21
473 1 4.18347 1.75722 -1.03793 21
474 1 1.67085 6.84261 -2.83996 18
475 2 1.42311 4.6617 -5.59097 19
476 2 2.38278 1.79327 -4.49873 22
477 2 4.46142 3.66062 -3.98448 19
478 2 1.78785 4.82259 -2.57546 19
479 2 5.30043 0.875433 -2.51287 23
480 2 2.18787 2.01254 -1.03028 22
481 2 4.44266 3.78425 -0.940508 18
482 2 1.98047 7.6474 -0.881898 15
483 1 1.68569 1.1764 0.751989 20
484 1 5.06778 4.52363 0.728954 17
485 1 2.43004 4.05744 2.3507 19
486 1 4.28758 1.81034 2.23058 21
487 1 1.61056 1.13023 3.94567 20
488 1 2.6766 3.94121 5.40121 14
489 1 4.64912 1.6998 5.36112 20
490 1 2.00971 1.34336 7.30155 21
491 1 1.78432 6.70656 0.741424 15
492 1 1.10751 6.50665 4.81848 15
493 1 7.32641 1.34458 0.848548 20
494 2 1.58294 4.72373 0.731282 17
495 2 5.18616 1.15167 0.595259 19
496 2 2.38034 2.03445 2.44909 21
497 2 4.44952 3.76912 2.31533 17
498 2 1.47874 4.72088 3.97325 18
499 2 4.58763 0.565147 3.75579 20
500 2 2.58827 2.05055 5.54709 19
