ITEM: TIMESTEP
406000
ITEM: NUMBER OF ATOMS
5760
ITEM: BOX BOUNDS pp pp pp
1.0293494932 32.6306505068
-0.4842125238 34.1442125238
-0.3898240861 66.1898240861
ITEM: ATOMS id type x y z Coordination
1 1 3.14214 0.640152 66.1691 21
2 1 5.29526 4.2095 -0.0720916 22
3 1 3.07771 0.436202 3.19041 23
4 1 5.77775 33.3804 66.0407 22
5 1 29.3752 6.72797 9.4824 23
6 1 5.55092 1.6791 1.66294 21
7 1 5.68582 30.1554 4.70185 21
8 1 5.93485 33.2562 3.09045 23
9 1 3.28421 5.88241 6.00378 24
10 1 5.29822 4.06307 3.32445 23
11 1 29.3944 26.3815 14.4293 21
12 1 13.6427 9.08564 10.9596 22
13 1 31.8772 30.2409 4.57581 23
14 1 2.88031 0.338371 19.3401 24
15 1 5.76362 32.8932 9.71994 22
16 1 11.0034 4.30443 9.71658 21
17 1 7.48798 11.9071 19.207 24
18 1 5.29072 12.7831 21.35 23
19 1 19.0133 0.420905 15.9535 21
20 1 5.496 30.2326 11.2414 22
21 1 2.99997 0.25588 6.42082 24
22 1 3.01932 11.9076 0.0345046 23
23 1 5.72411 4.12274 6.11496 24
24 1 28.9643 0.240714 2.86765 22
25 1 5.89543 7.03537 1.32996 24
26 1 8.35743 9.09236 4.68245 21
27 1 8.06913 32.0039 4.7282 22
28 1 3.01963 6.52763 9.73565 22
29 1 11.2005 7.13405 7.93798 24
30 1 31.7782 15.7603 2.81478 21
31 1 2.74288 6.20271 -0.0857757 22
32 1 2.4233 17.5269 9.69536 22
33 1 10.8151 18.9585 14.3731 22
34 1 3.27133 20.761 21.4792 24
35 1 5.73137 10.1632 10.1063 22
36 1 5.6546 4.15759 16.6812 23
37 1 5.28814 15.9899 15.9423 22
38 1 3.0016 6.49143 13.0855 21
39 1 2.64317 20.8654 14.8382 23
40 1 8.09732 20.5419 18.1556 24
41 1 5.53184 16.0735 2.97788 23
42 1 2.66183 20.4602 4.87153 19
43 1 5.27991 21.4434 -0.392635 23
44 1 31.7304 13.1573 1.62173 20
45 1 29.3092 9.01063 4.81025 22
46 1 5.00428 15.8283 66.3592 20
47 1 2.87157 14.5983 10.9899 24
48 1 8.27581 14.5126 4.74584 24
49 1 31.8587 18.8681 4.48356 23
50 1 5.14574 18.7236 14.5369 20
51 1 11.0622 18.9279 18.1355 24
52 1 7.75871 17.6853 65.9221 22
53 1 13.6785 29.1902 15.9905 21
54 1 8.14563 17.5171 3.17366 24
55 1 13.2306 23.5193 19.7227 21
56 1 3.05326 14.6866 4.5396 21
57 1 5.35078 7.12003 21.1941 22
58 1 2.62376 17.4928 13.006 22
59 1 10.9616 30.0989 4.68678 24
60 1 31.5746 13.0916 25.0738 20
61 1 5.72595 1.5643 64.828 20
62 1 13.3527 6.03145 -0.0939577 21
63 1 32.1465 9.99374 6.47956 24
64 1 8.35337 6.17615 3.17026 24
65 1 8.48088 32.3054 1.21218 22
66 1 11.166 4.17012 -0.104492 23
67 1 8.18067 9.29857 1.33654 21
68 1 5.71082 15.8153 9.76498 23
69 1 5.27511 9.9205 3.05572 22
70 1 16.2378 7.14935 15.0004 21
71 1 10.8889 1.48015 8.07251 23
72 1 3.21808 0.422808 15.9027 23
73 1 8.37719 3.69292 1.25683 22
74 1 13.1805 6.15551 9.81207 20
75 1 11.3333 15.585 3.17762 24
76 1 6.1564 30.4649 1.11596 25
77 1 28.8744 8.84167 18.0677 21
78 1 3.01653 9.23085 21.8214 21
79 1 2.78174 12.2018 19.7085 22
80 1 11.0206 1.19456 14.8992 21
81 1 7.76663 14.5863 1.39847 21
82 1 11.2869 7.41364 4.81915 22
83 1 10.3986 15.8655 13.4314 24
84 1 5.45953 9.85011 6.5548 22
85 1 5.45997 10.5377 -0.533048 21
86 1 5.27135 13.0578 1.53705 23
87 1 10.9003 10.0767 3.20826 21
88 1 10.9608 4.21694 6.01832 22
89 1 7.85154 0.513714 66.1979 21
90 1 10.9166 1.04655 1.39368 22
91 1 8.31063 14.6691 8.15659 22
92 1 8.29238 11.7653 3.20326 23
93 1 10.9918 9.92431 19.6068 23
94 1 18.9158 6.70687 13.4062 23
95 1 5.19656 30.3238 14.5852 21
96 1 7.95883 11.5146 6.55474 20
97 1 11.2244 13.067 8.18488 24
98 1 8.29709 23.1486 16.3841 22
99 1 31.999 1.71062 11.3329 22
100 1 31.8519 7.26856 1.73448 22
101 1 8.3141 12.253 -0.54838 22
102 1 13.3256 14.7245 0.98431 22
103 1 2.83444 14.7972 1.44366 22
104 1 10.8847 12.9458 1.02153 23
105 1 10.4744 21.3724 6.04301 21
106 1 19.2482 17.5625 9.49787 26
107 1 13.4073 31.726 1.53105 20
108 1 13.8698 5.89986 6.58907 21
109 1 29.0509 3.64511 14.1882 22
110 1 18.6949 14.8552 21.2937 22
111 1 10.3911 24.2871 18.1716 19
112 1 8.14553 23.2535 20.0986 22
113 1 10.974 12.7636 11.6594 21
114 1 28.7035 14.9826 11.313 18
115 1 11.1709 9.38946 9.98104 21
116 1 13.7165 18.019 16.4653 23
117 1 26.5563 21.9112 16.2778 23
118 1 13.7906 9.50403 4.42922 20
119 1 5.26035 18.5103 11.0977 22
120 1 21.3517 12.6147 11.4024 25
121 1 11.0138 1.26712 65.138 21
122 1 13.3415 3.19123 64.5109 23
123 1 13.2704 5.74018 62.9403 21
124 1 23.8776 0.435005 2.73662 21
125 1 13.3459 3.12742 8.23575 21
126 1 13.8545 9.07476 1.1669 22
127 1 5.63631 15.4501 13.0086 23
128 1 23.9098 -0.138912 8.77303 22
129 1 10.9897 4.5548 2.95798 22
130 1 21.5122 16.1442 3.40746 22
131 1 2.9728 6.07149 3.15127 21
132 1 16.2209 33.3671 6.36717 23
133 1 18.5999 3.14103 11.6986 21
134 1 18.5004 2.80244 1.0169 21
135 1 21.6341 27.2715 22.9777 23
136 1 23.8086 8.9111 7.63721 23
137 1 5.74125 1.62406 11.1719 23
138 1 21.6484 33.1581 16.4299 24
139 1 18.5006 9.17105 14.7581 21
140 1 8.35506 29.2511 6.49597 22
141 1 8.40207 6.49931 -0.129576 23
142 1 16.2759 9.89126 66.0057 23
143 1 21.3301 9.89976 -0.311933 23
144 1 21.3645 7.43663 18.036 22
145 1 13.3982 12.4196 2.75905 21
146 1 13.2437 12.2193 16.2013 19
147 1 18.4805 5.41588 0.15611 23
148 1 25.9409 12.9452 11.3593 22
149 1 11.1796 10.1597 66.0677 22
150 1 18.9115 12.0679 6.38685 23
151 1 13.2107 5.92688 13.1169 22
152 1 2.93964 9.24071 4.70663 21
153 1 13.6737 9.13596 17.8975 22
154 1 10.3788 25.0323 11.3652 21
155 1 21.1593 10.2706 23.3087 20
156 1 26.7229 1.30363 11.1086 22
157 1 21.0615 1.33234 4.42915 20
158 1 2.96108 32.1582 17.9832 22
159 1 14.0985 9.4145 14.5314 19
160 1 21.7107 1.20421 7.84849 24
161 1 13.6233 11.9742 6.16676 23
162 1 16.1299 15.9025 65.8201 23
163 1 10.6503 10.1004 6.80406 21
164 1 17.9385 8.85377 1.35517 20
165 1 10.5037 18.3054 4.16249 20
166 1 31.8376 18.5582 7.97474 22
167 1 21.5236 12.7127 7.78759 23
168 1 21.4109 13.1225 1.26743 22
169 1 8.55472 14.5608 11.4505 26
170 1 10.6334 18.6188 11.5685 22
171 1 21.4784 18.9493 4.61486 21
172 1 18.4486 6.00338 3.36437 24
173 1 16.3915 10.3774 6.35662 23
174 1 21.1571 12.8569 4.53074 21
175 1 24.2862 23.3082 19.3215 23
176 1 8.27125 17.5849 9.51181 21
177 1 5.57462 10.1941 16.3238 25
178 1 8.20391 32.0897 21.2575 23
179 1 2.79803 11.9048 16.6067 23
180 1 10.4176 15.7947 6.48856 20
181 2 31.4122 3.42974 4.78776 22
182 2 31.5871 32.3311 64.3782 20
183 2 5.24894 6.231 6.23111 21
184 2 5.00281 6.03906 2.99997 24
185 2 2.13771 1.40058 0.892737 22
186 2 5.47859 0.57329 3.33546 20
187 2 2.34642 27.5328 65.9663 24
188 2 10.058 32.2437 11.0961 24
189 2 31.383 11.8899 16.3796 22
190 2 13.2401 21.4746 6.56179 22
191 2 15.7884 6.04403 6.37617 20
192 2 26.2413 20.6882 17.6638 23
193 2 2.73475 4.35737 16.4766 18
194 2 7.40574 1.33498 17.9148 23
195 2 28.6626 30.5962 17.9977 23
196 2 7.41729 33.0869 19.0846 23
197 2 18.8909 30.378 14.5207 19
198 2 10.7178 32.0325 8.05768 21
199 2 7.31115 7.14417 14.8006 27
200 2 28.503 18.8583 14.8792 22
201 2 2.22193 9.91305 -0.237734 23
202 2 2.24219 4.43757 6.25526 22
203 2 2.2857 7.23684 64.7109 22
204 2 4.85525 5.99727 -0.416046 22
205 2 4.87483 11.8569 3.08474 23
206 2 5.28486 9.14239 1.46242 21
207 2 4.58914 17.5091 13.1545 21
208 2 2.2823 1.38151 7.94339 24
209 2 10.4893 8.61538 14.8437 22
210 2 29.0596 30.3073 7.71827 21
211 2 28.8524 16.3778 6.36775 21
212 2 7.2482 18.5446 17.8051 26
213 2 15.6189 3.18997 14.4199 23
214 2 31.1623 6.38126 6.36556 25
215 2 20.6572 32.1918 21.439 23
216 2 5.38333 3.70096 14.6931 21
217 2 1.73504 15.4021 9.58061 22
218 2 28.5571 7.21686 21.8291 21
219 2 22.9427 1.41664 11.2308 26
220 2 15.756 3.25442 18.2862 22
221 2 28.4397 10.1933 9.24858 20
222 2 4.58393 12.16 66.0288 23
223 2 4.4917 17.4013 9.78462 23
224 2 7.4951 15.4519 12.955 21
225 2 7.76313 4.59533 12.8907 23
226 2 5.05522 17.6173 6.62279 22
227 2 31.3819 11.9393 0.272713 21
228 2 28.6603 4.47712 9.60951 22
229 2 10.1406 20.8447 7.86269 24
230 2 7.64645 9.56184 6.48809 21
231 2 31.1539 15.0196 0.959783 23
232 2 2.43739 7.04849 1.43352 21
233 2 7.71664 7.06493 8.10031 21
234 2 30.8138 14.7298 18.1851 25
235 2 30.9836 5.48271 20.8117 20
236 2 7.63834 10.2708 9.91667 24
237 2 4.75422 29.3484 16.2324 24
238 2 9.99818 29.3164 13.1444 23
239 2 2.35764 15.7482 16.355 24
240 2 4.72236 20.9728 11.6261 21
241 2 7.69403 7.42772 1.41724 22
242 2 4.92443 0.327925 6.12557 23
243 2 12.7953 30.3228 7.89848 24
244 2 10.6537 9.23736 1.22223 21
245 2 28.3409 4.24014 2.72324 24
246 2 7.59411 1.78127 1.08914 23
247 2 10.4482 29.2505 9.64601 23
248 2 18.7993 6.79617 11.5655 22
249 2 28.3849 7.44296 7.66174 25
250 2 10.3971 0.14902 3.07509 21
251 2 17.8572 5.05117 22.8484 22
252 2 23.8505 4.6462 16.0575 20
253 2 15.6766 9.19121 4.8911 21
254 2 2.30342 27.4312 6.47938 22
255 2 10.1095 0.43246 12.9933 24
256 2 13.1582 7.16112 7.94922 21
257 2 12.5805 4.37513 19.8325 25
258 2 7.66053 30.1791 21.5642 23
259 2 9.55013 25.6935 4.29135 22
260 2 18.1628 29.7687 4.90313 20
261 2 2.34471 9.92569 2.80722 22
262 2 2.14907 13.0175 1.91595 22
263 2 15.6617 14.641 7.92363 23
264 2 18.5274 0.951258 4.71235 21
265 2 4.94121 9.22888 4.89765 23
266 2 15.5503 0.0134571 -0.227565 19
267 2 4.77815 14.708 14.8532 21
268 2 12.7377 12.7307 0.831372 22
269 2 7.55695 15.3218 3.11121 21
270 2 20.9674 11.9125 9.47545 23
271 2 7.65601 7.20943 11.2041 22
272 2 25.9155 0.288946 9.32822 24
273 2 31.1914 9.22947 1.5444 23
274 2 10.1816 31.6042 1.50058 23
275 2 12.9897 4.28122 9.79859 22
276 2 31.3444 14.5964 4.54334 23
277 2 15.3448 17.8126 19.6673 23
278 2 20.7385 2.86813 14.0127 19
279 2 15.728 12.246 6.21792 22
280 2 10.2028 15.1333 8.17857 23
281 2 6.94681 16.077 65.9558 22
282 2 9.83639 14.7533 0.988223 21
283 2 4.7695 14.8554 4.51078 23
284 2 10.6899 14.9845 64.6917 19
285 2 2.2275 12.8696 8.07554 22
286 2 23.6678 10.0718 2.80151 21
287 2 18.2129 18.3739 7.8924 22
288 2 18.848 12.6776 4.62209 23
289 2 7.37022 12.6741 8.15121 26
290 2 10.2825 9.18978 4.88268 24
291 2 2.58867 15.8957 22.9655 19
292 2 12.8133 13.2315 4.61515 24
293 2 23.1848 18.7756 11.0093 22
294 2 9.78792 17.7176 13.2388 24
295 2 20.6629 5.91707 23.6096 22
296 2 15.8566 0.262963 12.5537 21
297 2 15.323 0.330724 6.19383 24
298 2 20.9903 0.425507 22.8888 23
299 2 30.8358 3.04371 7.77481 24
300 2 15.1389 8.62279 27.845 23
301 2 10.6034 5.9247 63.4011 21
302 2 13.2079 4.09681 3.38978 20
303 2 10.3269 6.49024 2.95034 25
304 2 31.4439 8.81131 4.89912 23
305 2 20.7567 12.1367 65.8866 18
306 2 25.7813 0.220489 6.29248 23
307 2 12.9169 3.92575 -0.141045 22
308 2 23.1295 0.907839 64.5878 21
309 2 18.0716 1.53608 64.2494 21
310 2 12.9861 1.29649 8.10731 22
311 2 7.47724 4.31026 19.7875 25
312 2 12.666 33.2594 6.48235 22
313 2 31.3464 5.8247 2.75809 21
314 2 23.6281 33.1085 16.4558 23
315 2 31.4156 0.599224 9.64996 21
316 2 16.0973 11.7323 9.70646 22
317 2 18.2893 1.70647 21.4633 24
318 2 31.1622 14.8742 14.74 24
319 2 18.1117 1.11224 7.56573 24
320 2 15.5195 29.1688 2.99537 22
321 2 13.0812 9.74649 66.3485 20
322 2 12.9411 1.30717 64.6101 22
323 2 15.1493 15.0029 0.558147 24
324 2 20.0028 8.54457 63.753 18
325 2 7.45425 18.2804 14.5375 21
326 2 13.0969 7.11643 1.44586 21
327 2 20.9668 6.3052 9.81148 22
328 2 15.4789 3.27144 7.91889 25
329 2 10.2592 12.2015 2.82304 22
330 2 15.8122 8.98439 8.44932 21
331 2 4.8187 21.0916 8.35509 22
332 2 18.1669 15.7306 6.25704 23
333 2 10.334 18.043 6.43468 22
334 2 12.637 10.5124 3.1552 22
335 2 15.7726 0.410354 16.2526 21
336 2 28.4214 19.1815 21.2849 23
337 2 5.03596 0.589437 9.62955 26
338 2 28.6063 13.1832 11.0362 21
339 2 15.7509 15.1751 11.1031 22
340 2 20.5949 26.4481 7.76258 21
341 2 26.2556 3.29988 8.05449 21
342 2 15.3491 14.949 18.0202 24
343 2 20.6419 14.7483 8.20346 24
344 2 15.4801 11.6423 66.1587 23
345 2 20.6081 0.366462 9.28558 21
346 2 15.3612 20.3593 8.10329 21
347 2 10.2775 26.0436 64.3769 25
348 2 15.6654 -0.0262397 3.35082 22
349 2 5.26896 23.109 23.1333 22
350 2 31.4087 11.884 6.45429 23
351 2 21.0847 11.4725 6.49092 23
352 2 25.949 14.8842 4.95055 23
353 2 18.4129 33.269 16.4165 22
354 2 21.111 8.71708 1.34088 21
355 2 10.1399 14.6861 5.03838 22
356 2 15.5623 11.9193 15.9879 22
357 2 15.3272 17.4246 9.4029 22
358 2 20.6397 3.4224 4.88084 21
359 2 17.9194 1.45966 11.2388 24
360 2 23.7527 18.1517 14.4926 21
361 1 26.3431 33.064 5.9564 23
362 1 29.2577 3.41911 11.1228 24
363 1 10.8127 13.0008 24.522 24
364 1 5.40214 6.7314 14.9769 23
365 1 10.4547 27.2694 19.8782 22
366 1 31.7503 33.2376 26.2988 22
367 1 18.6679 0.47085 9.4125 21
368 1 5.4113 33.1333 29.5474 21
369 1 32.146 1.39668 14.3181 23
370 1 13.4618 2.91716 1.85301 20
371 1 5.73434 6.72403 30.9242 24
372 1 5.35447 4.21478 19.5615 23
373 1 5.83697 4.03963 23.0696 24
374 1 21.3417 33.1183 26.2849 21
375 1 3.04648 6.06399 23.4252 23
376 1 11.2953 4.25219 22.459 21
377 1 3.21363 6.08351 29.8908 22
378 1 8.44434 17.2662 22.5069 23
379 1 8.15556 3.61761 31.576 23
380 1 3.09089 0.394924 29.5056 24
381 1 8.82323 11.5598 16.1755 22
382 1 16.11 7.30608 24.577 24
383 1 13.9185 15.2176 15.1656 23
384 1 32.0134 4.13817 22.3725 24
385 1 31.8123 1.16529 18.1054 24
386 1 5.70305 3.93006 25.7868 22
387 1 15.8077 21.9041 19.2283 21
388 1 8.24079 11.6246 13.1318 21
389 1 18.2895 6.12016 20.2767 17
390 1 13.1445 11.6517 19.6351 23
391 1 5.41709 10.0128 19.7766 21
392 1 5.85808 0.738521 24.7577 21
393 1 31.7747 4.31938 26.2425 22
394 1 7.98562 20.1521 28.1042 21
395 1 2.71849 8.74371 27.9468 19
396 1 31.8101 12.6817 21.337 23
397 1 3.05873 29.0527 25.9175 22
398 1 29.0529 8.67579 31.4383 21
399 1 5.99008 6.82254 27.4654 24
400 1 32.2906 12.8888 31.1154 24
401 1 2.4823 14.6837 27.9338 22
402 1 13.1078 14.5204 11.2461 22
403 1 8.12331 20.4506 11.1778 21
404 1 8.32971 8.7965 18.0072 25
405 1 16.0365 12.8777 7.9572 22
406 1 10.1373 23.8147 4.6681 20
407 1 5.31433 13.1058 17.618 20
408 1 5.67665 1.31751 27.8668 23
409 1 15.9427 10.2227 23.4604 24
410 1 15.8758 10.317 20.153 22
411 1 26.761 13.0574 28.0512 23
412 1 2.82079 15.1061 24.6489 22
413 1 29.0527 14.8976 24.2579 19
414 1 32.0972 22.0121 22.8069 21
415 1 3.31964 20.8051 31.0958 23
416 1 11.2074 9.59076 16.2697 23
417 1 5.64596 18.4654 28.1492 20
418 1 5.54723 10.1121 26.6269 20
419 1 29.2159 11.7841 26.3117 23
420 1 2.93581 14.8786 31.2112 21
421 1 2.74305 32.087 24.3876 21
422 1 16.0959 4.35785 13.0856 22
423 1 8.15245 26.551 8.10049 21
424 1 24.1001 25.8872 21.0912 22
425 1 21.2714 7.20307 11.4671 22
426 1 8.25433 31.916 10.6907 23
427 1 13.8371 12.3146 12.8297 22
428 1 21.1041 27.3842 19.181 21
429 1 10.969 6.68964 14.7622 22
430 1 13.764 0.247493 9.75143 24
431 1 11.0632 32.7324 26.1912 24
432 1 17.9837 9.20966 18.4491 22
433 1 21.3418 21.4438 19.7565 25
434 1 8.26386 3.45778 21.455 24
435 1 10.8784 29.9783 31.3355 23
436 1 24.0537 1.01792 26.4362 23
437 1 13.583 32.0815 27.8679 19
438 1 10.5597 4.25925 29.6086 23
439 1 16.2371 9.93853 26.2701 24
440 1 13.6688 3.41146 24.7796 22
441 1 26.5809 4.3049 9.61425 23
442 1 8.13296 6.59682 13.2006 20
443 1 13.6073 9.13561 7.79118 20
444 1 10.7677 10.226 26.213 21
445 1 26.4733 33.1258 9.48972 22
446 1 10.8675 15.5387 22.7069 23
447 1 32.3092 6.81368 24.7251 25
448 1 29.0795 17.5548 16.3482 21
449 1 31.875 7.11215 21.5706 22
450 1 13.3234 14.5146 21.3622 22
451 1 13.3368 6.24966 23.0003 22
452 1 13.3595 8.74413 21.1458 23
453 1 13.506 3.60344 27.8374 24
454 1 15.7989 15.7474 29.5759 23
455 1 10.8067 4.07337 25.9379 22
456 1 15.8785 1.4329 24.6397 20
457 1 8.22962 3.05715 18.0967 26
458 1 31.8688 6.93967 27.6557 22
459 1 8.24099 5.79342 29.2628 22
460 1 10.7447 4.22792 32.8993 24
461 1 7.89305 11.7922 22.981 22
462 1 5.65866 7.10126 11.1776 24
463 1 13.3831 17.6263 29.6701 21
464 1 18.7514 5.87786 9.87761 22
465 1 8.03632 9.02656 27.718 25
466 1 16.2662 24.3254 17.6378 24
467 1 16.1405 12.9239 28.0864 24
468 1 13.4925 6.15735 26.5291 25
469 1 5.91233 10.2513 23.5239 22
470 1 2.67838 6.45584 16.4877 21
471 1 29.4346 9.16177 24.7652 25
472 1 13.4059 26.0901 24.4445 22
473 1 13.656 5.99048 19.5343 25
474 1 7.99655 17.3448 19.4852 22
475 1 15.9828 12.8271 31.2691 24
476 1 8.12337 2.95721 27.9376 20
477 1 5.41249 9.53164 29.5482 21
478 1 8.4628 17.4663 26.095 23
479 1 10.9262 18.5858 28.0438 24
480 1 10.3708 15.4917 26.2759 21
481 1 18.6192 29.4754 9.80745 21
482 1 16.1877 3.93992 9.52239 22
483 1 11.115 1.10289 18.1676 24
484 1 10.8859 33.1772 12.7192 22
485 1 8.40131 29.2194 19.7151 23
486 1 21.4498 10.0481 12.92 24
487 1 13.5604 11.3507 23.043 24
488 1 18.3207 0.457031 12.872 20
489 1 13.5368 2.97572 4.88826 23
490 1 18.9878 3.59968 24.2858 22
491 1 8.27052 31.9934 14.569 21
492 1 18.3047 0.819923 26.1252 23
493 1 21.2576 1.33107 24.8065 21
494 1 10.6876 7.02987 31.1928 21
495 1 23.8136 5.7174 26.8306 20
496 1 21.0647 1.55201 28.169 20
497 1 16.1618 33.3614 29.0487 19
498 1 5.40237 3.97033 29.3794 23
499 1 13.561 3.4103 31.6077 24
500 1 16.3433 1.37207 31.2915 24
501 1 5.39909 33.1426 16.0328 22
502 1 21.089 10.0978 16.4773 22
503 1 8.33572 5.97265 20.0098 23
504 1 11.0683 32.9127 22.5783 23
505 1 31.7833 7.18109 11.5369 23
506 1 13.5547 14.7922 27.7066 21
507 1 10.7183 4.15008 19.2364 21
508 1 2.50098 5.79159 19.8968 21
509 1 7.79581 31.986 31.0128 19
510 1 18.6114 12.2575 23.1473 23
511 1 15.8897 12.8632 17.7321 22
512 1 10.6644 29.8731 17.9179 24
513 1 18.7076 32.0944 27.7552 24
514 1 21.7673 9.99373 26.6439 25
515 1 16.2959 29.9005 27.811 23
516 1 16.0085 7.1039 27.9982 23
517 1 10.7369 9.91741 32.7284 22
518 1 13.6583 9.70951 31.2788 22
519 1 8.03264 11.772 29.6489 22
520 1 13.3621 6.28237 29.4763 20
521 1 2.87305 3.52106 11.6487 21
522 1 18.6165 11.8923 12.9573 21
523 1 16.0411 12.9986 24.9464 24
524 1 2.5401 15.3118 21.1975 21
525 1 21.0816 33.0698 19.5772 23
526 1 3.03717 23.5224 9.4498 23
527 1 13.4023 17.6377 13.1288 23
528 1 10.9103 3.82815 13.1297 22
529 1 13.2165 20.6934 14.4913 21
530 1 3.33618 5.97594 25.78 22
531 1 5.05041 15.9208 29.7708 21
532 1 16.0141 15.8606 26.1831 23
533 1 13.2944 11.9167 26.0106 23
534 1 18.6491 14.8982 27.6401 24
535 1 32.0013 9.96197 26.418 25
536 1 16.3323 4.54619 29.7872 24
537 1 10.9392 18.8488 31.5353 21
538 1 18.2846 26.4538 11.0305 21
539 1 10.6552 12.4082 31.6641 23
540 1 5.42865 12.9053 31.4926 20
541 2 28.8849 21.4273 6.40707 23
542 2 10.3264 29.2636 26.1441 23
543 2 15.6526 26.6396 21.3125 22
544 2 7.8688 18.4197 11.2265 20
545 2 7.65379 32.8709 26.0775 20
546 2 4.95966 3.74214 11.424 23
547 2 31.7583 31.7576 21.2084 22
548 2 12.9458 1.31398 11.3741 24
549 2 28.7169 1.58154 31.7805 23
550 2 5.27916 32.1821 14.4148 22
551 2 5.35601 5.91672 29.2713 18
552 2 2.05462 16.2043 19.6729 23
553 2 7.61244 33.1259 32.5988 24
554 2 7.4257 30.132 27.7617 23
555 2 7.63413 24.4064 21.5378 21
556 2 31.0697 23.5957 26.7002 22
557 2 10.325 0.202357 29.2225 22
558 2 31.5611 32.2954 28.0123 20
559 2 4.82191 6.19991 32.8235 21
560 2 31.1277 6.20212 32.9613 25
561 2 3.02221 15.8067 26.3595 22
562 2 25.5294 8.8232 8.13481 22
563 2 15.7028 6.1032 16.818 21
564 2 31.2431 23.0688 16.2301 22
565 2 4.52377 3.48724 27.8393 25
566 2 17.9189 10.4627 23.5095 24
567 2 28.2557 4.56733 26.8331 24
568 2 4.91659 17.3971 19.4433 23
569 2 12.8201 12.766 24.2866 22
570 2 15.5076 5.85599 26.1175 23
571 2 7.2491 27.5046 29.5424 26
572 2 10.1489 32.1716 24.3292 25
573 2 12.7108 24.3118 21.5441 24
574 2 9.97737 6.28883 29.6669 23
575 2 1.96001 6.98898 35.0672 21
576 2 7.38035 12.9351 24.2963 21
577 2 7.30658 10.0367 29.2163 22
578 2 4.69656 11.886 10.0872 22
579 2 31.0614 3.52139 24.6162 23
580 2 1.92399 10.1459 23.054 22
581 2 7.71903 27.3 23.2241 21
582 2 28.7146 7.4329 14.8271 21
583 2 12.8553 21.3561 19.6641 23
584 2 15.2281 26.0404 10.9769 22
585 2 4.90613 6.14372 23.2139 23
586 2 7.92904 9.88468 16.251 23
587 2 9.81984 26.4072 14.6246 22
588 2 2.19415 13.1623 14.5683 20
589 2 20.4287 17.4575 26.0192 21
590 2 13.0908 15.7726 22.8655 22
591 2 30.9567 2.93245 17.877 21
592 2 31.2677 8.83663 24.8358 23
593 2 28.4685 10.4795 15.85 20
594 2 26.1883 6.11693 30.084 22
595 2 31.2967 0.384668 26.4203 23
596 2 31.3581 12.0744 26.5163 22
597 2 30.9076 8.72062 21.5657 24
598 2 4.94566 8.9692 21.7115 23
599 2 5.27582 5.89278 26.0543 20
600 2 9.99569 11.7327 22.99 24
601 2 10.4941 6.44354 6.29523 22
602 2 10.0625 26.4704 7.97886 23
603 2 7.37747 18.1066 20.9966 24
604 2 8.04877 7.06859 27.7594 21
605 2 20.8093 32.26 11.4009 22
606 2 5.28007 0.48579 12.8259 22
607 2 31.4782 0.901743 16.0508 16
608 2 18.1949 27.3916 15.9756 22
609 2 10.345 31.7215 17.9561 22
610 2 12.8373 0.968458 14.4531 23
611 2 2.42158 33.234 19.363 24
612 2 10.0261 9.06211 31.0443 24
613 2 23.5196 13.3351 25.3859 23
614 2 8.09703 27.4243 26.0399 21
615 2 15.4875 3.41534 31.35 21
616 2 13.2282 10.5454 29.7495 23
617 2 10.1751 31.816 30.9452 23
618 2 20.0372 23.3218 13.0831 24
619 2 18.0916 4.65309 13.5053 21
620 2 12.8548 1.60532 27.7203 22
621 2 10.1722 11.5614 19.5133 22
622 2 7.70962 30.0664 4.71631 24
623 2 13.9632 10.027 12.8408 16
624 2 4.60618 2.73838 24.5818 25
625 2 2.28409 32.3897 26.1727 20
626 2 13.0438 4.22253 23.0089 21
627 2 12.9991 6.4821 14.9105 21
628 2 9.79533 20.3011 21.4551 26
629 2 12.5629 4.11552 26.308 22
630 2 12.8488 29.9317 17.8282 22
631 2 18.3361 24.397 24.5792 22
632 2 10.3822 23.438 29.2245 22
633 2 15.4199 23.2818 16.3539 23
634 2 10.0405 5.97982 32.6089 23
635 2 18.3688 33.184 26.3313 20
636 2 12.8115 33.1288 29.2873 24
637 2 5.71147 14.7927 28.3927 23
638 2 10.6215 31.9496 20.8952 22
639 2 4.87536 3.36231 34.5379 23
640 2 9.87651 12.0586 29.8301 22
641 2 5.22981 32.0168 7.81714 24
642 2 17.9655 9.79358 16.585 20
643 2 15.3361 9.05621 21.3584 26
644 2 4.81241 14.899 11.5184 24
645 2 4.70183 11.6283 16.4046 22
646 2 31.4647 31.8829 17.8178 20
647 2 10.2715 9.33686 18.1104 25
648 2 10.1529 17.9437 16.373 23
649 2 31.3474 20.7 21.4699 24
650 2 12.7493 6.9106 24.5676 23
651 2 15.2481 14.8544 34.5389 26
652 2 12.6025 7.38228 27.8176 23
653 2 4.917 15.0511 31.4902 23
654 2 18.5763 4.40885 19.7026 18
655 2 5.39653 21.3817 31.0703 22
656 2 10.2467 22.9752 26.5413 23
657 2 2.13338 21.2548 26.2199 22
658 2 26.1413 9.16686 28.2273 22
659 2 2.46852 10.095 32.4513 19
660 2 14.0498 12.7108 31.4237 24
661 2 12.8807 32.7961 12.714 23
662 2 18.3166 15.8433 22.9388 23
663 2 13.0047 7.38048 11.397 22
664 2 12.9905 9.74177 22.9165 24
665 2 13.0908 1.49534 24.9266 20
666 2 20.7096 9.21984 21.5414 21
667 2 10.452 0.357185 23.0299 19
668 2 20.9111 32.033 17.9861 23
669 2 2.20363 3.95439 29.6972 23
670 2 26.2063 3.08991 28.2317 23
671 2 25.5915 12.2613 19.698 24
672 2 13.1616 13.3463 14.4696 21
673 2 20.647 8.87759 14.6325 23
674 2 20.6615 9.13648 28.2084 25
675 2 15.9809 0.536616 26.4524 20
676 2 20.9305 6.48872 30.2233 22
677 2 18.4347 1.32218 31.4858 22
678 2 15.7214 6.21342 32.7156 20
679 2 18.1467 30.1307 27.5288 22
680 2 12.8403 4.03191 29.8186 24
681 2 2.25572 1.36568 20.8095 25
682 2 18.5352 1.61854 18.0068 21
683 2 15.8611 8.84816 14.326 18
684 2 18.3199 7.30015 15.2459 22
685 2 10.1341 2.99512 31.4367 22
686 2 17.9118 26.9539 3.24605 24
687 2 10.4808 3.34945 8.02892 21
688 2 23.4191 12.3818 11.5139 22
689 2 2.17497 18.9115 14.8556 24
690 2 18.2848 2.00708 24.5512 23
691 2 10.2071 3.0174 24.508 23
692 2 7.86311 12.5496 14.8098 24
693 2 31.3585 6.51054 13.0274 23
694 2 12.7596 9.95675 26.327 24
695 2 2.38731 18.6402 24.6322 22
696 2 20.8447 14.9935 27.7003 25
697 2 18.1385 33.5135 29.2309 21
698 2 28.7148 10.2218 23.2057 23
699 2 13.0091 4.54967 33.3859 20
700 2 21.0594 9.52681 31.2364 22
701 2 21.0775 12.1566 26.7056 23
702 2 7.76144 33.3659 2.99874 23
703 2 5.23007 3.0813 7.895 22
704 2 23.612 10.3095 9.77679 22
705 2 2.48714 24.6643 21.4734 23
706 2 15.334 11.7395 26.1921 24
707 2 10.3476 8.98103 21.3867 24
708 2 15.5001 3.37158 24.9402 24
709 2 15.296 20.7362 17.7196 22
710 2 18.1936 12.5647 28.2015 22
711 2 18.4113 33.218 19.6848 21
712 2 7.2927 15.636 16.2323 23
713 2 20.5125 23.1202 16.1192 23
714 2 9.66258 14.4946 21.3294 24
715 2 7.80944 9.85309 23.0644 20
716 2 12.9922 18.4331 24.7893 22
717 2 13.1263 21.3993 22.8216 24
718 2 12.6239 10.1512 32.6986 21
719 2 12.8254 12.9834 27.7423 24
720 2 18.0235 7.57525 24.9 22
721 1 5.78559 15.4965 63.1396 22
722 1 13.0825 17.718 6.43908 22
723 1 5.51635 18.7875 1.22687 22
724 1 5.19815 18.7305 8.24766 17
725 1 5.22726 24.3148 4.54716 21
726 1 16.447 30.3045 7.33347 23
727 1 28.9794 15.3721 4.65625 22
728 1 31.9239 15.7877 6.04336 23
729 1 10.7679 30.0083 14.6913 21
730 1 2.77789 17.6152 -0.0789814 23
731 1 5.56424 1.65805 14.6967 22
732 1 7.92872 17.2702 12.8847 23
733 1 3.16576 17.3221 6.12451 24
734 1 13.0361 23.8246 9.75432 22
735 1 2.72468 14.8958 8.03085 22
736 1 10.8518 24.7705 8.05864 23
737 1 10.4263 21.2087 3.07519 18
738 1 29.4412 29.5358 23.1431 23
739 1 3.04764 9.09507 8.1726 24
740 1 8.15438 23.1028 23.2495 24
741 1 31.9318 18.7452 1.1297 23
742 1 29.39 23.3874 3.11786 23
743 1 29.0337 26.6973 1.22005 24
744 1 8.11771 23.4257 -0.125645 23
745 1 5.21556 21.4735 2.92603 21
746 1 31.7045 21.891 12.853 20
747 1 31.7834 4.36165 6.48156 20
748 1 29.3122 20.6515 4.64045 20
749 1 29.6311 31.9496 1.32564 24
750 1 5.8729 27.7114 12.8116 22
751 1 32.0531 32.9859 16.1418 24
752 1 2.91593 20.0674 8.20715 22
753 1 11.0758 21.1101 22.6031 24
754 1 32.1099 15.8603 13.1268 26
755 1 2.82093 29.448 6.41991 22
756 1 3.18327 20.6797 24.4722 20
757 1 5.39843 21.4425 16.5864 24
758 1 5.66504 24.7014 27.6696 23
759 1 21.0605 15.716 16.3007 21
760 1 5.72225 24.2285 17.7604 22
761 1 32.2349 33.161 66.0151 22
762 1 3.41232 32.5481 64.5796 23
763 1 8.19109 0.728118 2.65407 21
764 1 3.09192 26.4477 1.27087 25
765 1 8.05552 29.3136 2.91143 20
766 1 5.92489 30.3964 7.92288 26
767 1 32.1819 29.8591 1.50947 22
768 1 29.4283 29.1932 6.23197 24
769 1 26.6259 24.0589 1.35274 21
770 1 3.4782 26.3372 11.183 22
771 1 3.2081 32.2572 4.81832 22
772 1 8.68027 32.5403 7.97708 22
773 1 12.6255 23.4633 6.381 21
774 1 7.64221 26.0808 4.70934 20
775 1 23.97 29.4857 9.7051 23
776 1 10.7389 29.9048 11.4588 23
777 1 5.85439 1.45681 21.0758 25
778 1 7.88522 0.520099 9.82165 23
779 1 2.68059 2.95766 17.9747 22
780 1 32.1909 33.0235 22.8032 25
781 1 10.6944 18.3527 1.00356 22
782 1 16.0098 26.8525 66.3266 22
783 1 13.1259 20.4007 4.72235 21
784 1 10.599 16.0965 -0.329571 21
785 1 15.7845 18.6019 7.88938 24
786 1 6.06297 24.5826 11.3137 23
787 1 15.8616 16.0222 2.37636 21
788 1 13.4776 32.0714 7.87695 24
789 1 10.8582 13.2523 14.7994 23
790 1 8.17698 20.7468 8.07893 23
791 1 8.2781 17.8258 6.581 24
792 1 8.41953 23.6772 9.63239 23
793 1 5.574 27.3323 9.81464 21
794 1 13.0786 26.3916 7.77214 24
795 1 21.168 16.0468 19.7389 24
796 1 13.4675 3.18898 11.3063 24
797 1 23.8839 17.5 6.38637 24
798 1 31.8678 4.03442 2.93178 23
799 1 16.4695 27.1579 19.6311 24
800 1 8.07299 9.01589 11.5271 23
801 1 10.9674 26.8375 66.1414 24
802 1 13.069 26.1675 1.265 21
803 1 2.70943 26.3037 4.44305 21
804 1 10.4937 27.4643 2.58575 21
805 1 10.784 32.7937 6.26068 24
806 1 10.6195 30.133 7.95988 22
807 1 18.7773 28.7788 -0.472058 22
808 1 7.7287 20.2701 5.12259 21
809 1 10.6743 23.7387 24.8763 23
810 1 13.7568 28.8422 0.177255 24
811 1 13.1171 31.7839 11.1374 23
812 1 13.7081 28.664 2.96674 24
813 1 29.1272 14.7737 17.9877 23
814 1 7.92735 23.2252 3.18745 21
815 1 7.85473 29.2974 9.43029 20
816 1 8.47088 31.7495 17.6835 23
817 1 18.8358 2.9051 8.15314 25
818 1 5.65448 32.2907 26.4051 21
819 1 31.3714 24.0682 14.5635 21
820 1 8.24028 29.2281 23.1563 22
821 1 10.9418 32.5061 2.84318 22
822 1 10.9445 27.4369 9.43391 22
823 1 13.5145 0.0390906 3.22139 20
824 1 18.8979 0.271546 3.06872 22
825 1 10.8663 29.7781 1.18722 22
826 1 10.7652 1.10631 4.78418 23
827 1 3.09705 29.2361 -0.304643 23
828 1 18.5595 26.116 1.36277 24
829 1 13.4143 26.0437 14.7541 21
830 1 8.37247 26.8563 11.6105 22
831 1 8.15841 26.1828 1.16743 24
832 1 5.74868 1.08545 8.09361 23
833 1 8.16728 23.4685 6.54302 23
834 1 8.32573 0.601076 6.35001 24
835 1 2.87754 3.33219 7.91126 21
836 1 13.148 28.8705 19.3372 22
837 1 32.1709 32.7524 6.57866 23
838 1 5.57919 27.3185 66.0989 23
839 1 9.9127 27.0928 5.97652 24
840 1 2.73248 32.0861 21.3125 21
841 1 10.4381 21.4098 -0.38791 23
842 1 16.3075 18.7604 63.9654 24
843 1 18.6657 18.0348 3.19329 22
844 1 12.8933 23.3048 -0.508376 21
845 1 18.9497 11.5621 66.1689 20
846 1 15.7465 18.6452 4.57622 23
847 1 15.9373 22.0759 9.46482 21
848 1 21.2889 21.6824 9.71706 21
849 1 31.6105 21.4029 2.67255 23
850 1 13.0835 26.2162 11.7143 21
851 1 16.2214 16.026 16.2107 23
852 1 18.6739 9.1086 11.5703 22
853 1 18.6039 20.3025 11.1832 23
854 1 18.6912 31.7828 4.84942 22
855 1 10.9932 10.0376 22.8013 23
856 1 15.9669 7.21446 18.4398 24
857 1 16.6456 30.2131 14.3259 24
858 1 18.2351 21.1105 4.31752 21
859 1 15.5601 21.1911 3.12267 20
860 1 13.3417 0.595449 23.0729 21
861 1 5.04366 18.5266 4.73401 21
862 1 12.7563 26.3606 4.77157 21
863 1 16.3989 29.9214 1.15796 23
864 1 18.792 20.6324 1.05197 22
865 1 16.7291 13.393 4.3251 23
866 1 21.697 26.8418 2.79158 23
867 1 18.8483 17.6134 6.25395 21
868 1 26.6913 21.5745 6.52661 21
869 1 13.485 18.0921 66.0284 22
870 1 16.4222 4.3492 6.05888 23
871 1 13.5265 17.4624 2.73239 24
872 1 24.169 26.0785 1.42223 23
873 1 13.8426 11.9173 9.68841 25
874 1 18.5259 23.6012 5.98485 22
875 1 13.5673 32.0762 24.55 22
876 1 16.3337 29.9916 24.2249 24
877 1 21.079 21.3849 2.75212 21
878 1 10.7834 1.30402 11.5126 22
879 1 13.6658 0.213132 16.1126 20
880 1 21.3364 21.5197 6.36598 24
881 1 16.4704 29.9328 64.424 23
882 1 18.5737 31.8743 64.5945 20
883 1 21.1092 1.03772 10.8503 22
884 1 5.88691 33.0699 6.40865 26
885 1 18.6067 23.3198 65.9067 25
886 1 18.5847 12.338 19.7417 21
887 1 16.4098 0.964742 4.78893 25
888 1 16.3453 15.6701 9.30569 24
889 1 13.7455 25.9456 64.8303 23
890 1 29.2874 3.52568 1.2168 23
891 1 18.913 2.9435 4.77159 21
892 1 18.791 15.0202 14.6328 22
893 1 21.1915 1.34204 0.926314 22
894 1 5.56492 1.27433 17.9073 20
895 1 16.0913 1.30549 14.399 20
896 1 7.89696 29.0577 16.2436 22
897 1 15.5822 24.7052 4.50204 21
898 1 21.3116 7.56142 21.5117 21
899 1 7.96145 22.9498 13.1951 21
900 1 7.8196 20.3425 1.69674 21
901 2 4.63728 20.7666 4.78842 23
902 2 4.71316 14.8811 1.39138 22
903 2 5.06438 26.8197 8.18482 22
904 2 2.1664 18.8438 1.24216 22
905 2 9.67169 23.0711 2.58815 22
906 2 4.99773 17.9927 2.68034 23
907 2 28.289 15.9122 13.2744 21
908 2 7.55899 3.71619 6.10488 21
909 2 7.06686 21.1267 13.1513 21
910 2 31.2305 6.48112 9.78053 24
911 2 4.79746 20.6135 1.36323 23