ITEM: TIMESTEP
321000
ITEM: NUMBER OF ATOMS
5760
ITEM: BOX BOUNDS pp pp pp
1.0163336429 32.6436663571
-0.4821813114 34.1421813114
-0.3450940016 66.1450940016
ITEM: ATOMS id type x y z Coordination
1 1 2.85037 0.320651 66.261 22
2 1 5.33859 4.06154 0.0771864 21
3 1 2.76921 0.56535 2.73288 22
4 1 5.76273 32.8708 65.8058 24
5 1 29.1284 6.36109 9.13884 23
6 1 5.38835 1.11572 1.60869 22
7 1 5.52434 29.8879 4.65855 21
8 1 5.58027 32.9175 2.99419 24
9 1 2.89486 6.1544 6.0828 24
10 1 5.2488 4.25828 2.85412 22
11 1 29.0528 26.4769 14.6915 20
12 1 13.4072 9.14362 11.4287 22
13 1 31.7654 30.4872 4.52019 22
14 1 2.83137 1.0507 19.2991 21
15 1 5.25556 32.9464 9.68486 23
16 1 11.0325 4.22291 9.40276 22
17 1 7.92326 12.1743 19.7209 22
18 1 5.57222 12.9004 21.156 22
19 1 18.8782 0.313015 16.4823 24
20 1 5.81141 30.2902 11.8407 25
21 1 3.18893 0.458402 5.78036 20
22 1 2.79765 11.4828 -0.311922 22
23 1 5.67279 4.54712 6.09965 23
24 1 29.3939 0.400409 2.63596 21
25 1 5.50049 7.59531 1.3425 21
26 1 8.15505 9.28666 4.61796 21
27 1 8.2869 32.0769 4.51389 22
28 1 3.28845 6.85481 9.41468 23
29 1 10.7892 7.33353 8.20227 21
30 1 32.0033 15.6906 2.81113 23
31 1 3.32942 6.17469 66.0545 21
32 1 2.66363 17.4991 10.0068 23
33 1 11.1913 18.6291 14.4708 26
34 1 2.32384 20.2231 21.0562 23
35 1 5.33169 9.83695 9.63529 23
36 1 5.62704 3.95309 16.2572 21
37 1 5.68683 15.7196 16.2375 20
38 1 2.969 6.19089 12.3971 23
39 1 3.00915 20.5475 14.2953 20
40 1 8.64387 20.5635 17.5463 22
41 1 5.3294 15.9323 3.14014 23
42 1 2.89554 20.5744 4.99181 22
43 1 5.45136 21.7924 -0.234587 22
44 1 32.3129 12.8751 1.31874 25
45 1 29.3444 8.77248 4.52021 23
46 1 5.54493 15.8529 66.2904 23
47 1 2.53938 14.2457 11.1817 23
48 1 8.47652 14.9935 4.16529 24
49 1 31.8116 18.7705 4.7635 23
50 1 5.48721 18.8098 14.6544 23
51 1 11.1669 18.7488 17.9575 23
52 1 8.3378 17.7736 -0.22427 21
53 1 13.6087 29.3064 16.1031 22
54 1 7.25036 17.7887 2.99329 20
55 1 13.5204 23.3257 19.7689 23
56 1 2.41656 14.9715 4.68743 23
57 1 5.63511 6.71797 20.7303 22
58 1 2.55122 17.6166 12.8903 21
59 1 10.7743 29.9208 4.78229 21
60 1 31.7502 12.4904 24.3042 24
61 1 5.17725 1.30885 64.4027 21
62 1 13.7844 6.07308 -0.510744 24
63 1 32.1797 9.54416 6.14874 23
64 1 7.81433 5.68 3.30625 23
65 1 8.15867 32.2359 1.08904 23
66 1 10.7007 4.00667 66.2059 23
67 1 8.18542 8.67092 1.65492 22
68 1 4.96224 15.8885 9.5879 20
69 1 5.47596 10.3275 3.14653 24
70 1 16.0358 6.87116 14.4394 21
71 1 10.852 1.08905 8.33621 21
72 1 3.12101 0.719829 15.8791 21
73 1 8.096 3.00849 1.48125 22
74 1 13.4422 6.17378 9.50579 25
75 1 11.0713 15.987 2.94125 23
76 1 5.33839 30.2509 1.2338 22
77 1 29.1867 8.87126 17.8639 23
78 1 3.33698 8.74709 20.8906 24
79 1 3.13546 11.8051 19.7024 22
80 1 10.6267 0.932541 14.3412 21
81 1 8.01069 14.8625 1.47304 20
82 1 10.4007 6.66881 4.80882 22
83 1 10.7277 15.9643 12.8724 21
84 1 5.80654 10.3227 6.39506 23
85 1 5.79876 10.169 -0.022538 25
86 1 5.56151 13.1083 1.38208 23
87 1 10.4889 10.1108 2.89533 21
88 1 11.335 3.31682 6.22005 20
89 1 8.32139 0.321395 65.8405 23
90 1 10.7906 0.903741 1.06478 21
91 1 8.12848 14.9683 7.73942 22
92 1 7.93861 11.8849 2.8713 22
93 1 10.5728 10.1672 19.8552 22
94 1 19.1025 6.19523 12.8979 24
95 1 5.35161 30.1274 14.9561 22
96 1 8.40862 12.1339 5.96448 22
97 1 11.073 12.5639 7.91738 21
98 1 8.24112 23.721 16.0738 22
99 1 2.88418 3.07741 14.4199 22
100 1 32.1738 6.90851 1.14698 26
101 1 8.2744 11.9713 -0.0919568 21
102 1 13.4588 15.0127 1.45178 24
103 1 2.64105 15.0124 1.1696 21
104 1 10.8964 13.4871 1.12835 21
105 1 10.9611 21.2942 5.95357 21
106 1 18.8508 17.6439 9.42125 22
107 1 13.3627 31.6347 1.10616 20
108 1 13.3895 6.46524 6.33988 22
109 1 29.037 3.0984 14.0647 21
110 1 19.1629 14.773 20.9007 24
111 1 11.0539 24.5301 18.1156 22
112 1 8.12246 23.7643 19.5686 22
113 1 10.503 13.3002 11.7172 22
114 1 28.9778 14.9283 10.8724 21
115 1 10.8382 10.2566 10.1772 21
116 1 14.1455 17.5629 16.84 19
117 1 26.7783 21.5801 16.5127 24
118 1 12.9371 8.88292 4.62537 19
119 1 5.63585 18.9591 10.9849 22
120 1 21.5629 13.2756 10.8844 23
121 1 10.6377 1.23497 64.2032 20
122 1 13.184 3.3036 64.4221 21
123 1 13.3463 5.89598 63.0761 23
124 1 23.5551 0.317356 2.93456 22
125 1 13.7856 3.27195 7.72642 22
126 1 13.2961 8.98014 1.5285 21
127 1 5.49127 15.6385 12.7726 21
128 1 24.2998 0.704408 9.56747 23
129 1 10.4356 3.97163 3.15679 22
130 1 21.3788 15.9927 3.22456 24
131 1 3.07166 6.23 2.83083 22
132 1 16.2373 32.8114 6.30449 24
133 1 19.0339 3.30034 11.4192 21
134 1 19.0846 3.37752 1.29629 21
135 1 21.4477 27.318 22.6997 23
136 1 24.043 9.1012 7.34433 21
137 1 5.1188 1.62346 10.9653 21
138 1 21.3832 33.268 16.1006 22
139 1 18.8283 8.7545 14.233 21
140 1 8.20639 29.3519 6.39451 25
141 1 7.9491 6.00098 -0.55821 22
142 1 15.7106 9.87347 66.0467 22
143 1 21.6177 10.0246 65.8973 24
144 1 21.3057 6.69026 17.8736 20
145 1 13.9251 11.8277 2.69681 23
146 1 13.6038 11.7043 16.2309 24
147 1 18.56 6.21318 -0.434023 24
148 1 27.0427 12.7245 11.2738 21
149 1 10.399 10.0641 -0.299251 20
150 1 18.0291 11.7872 6.28714 22
151 1 13.593 6.12359 12.8475 23
152 1 3.082 8.81916 4.76793 22
153 1 13.3954 9.21076 18.0018 20
154 1 11.4063 24.7734 11.0323 23
155 1 21.6586 9.92545 23.1685 24
156 1 26.6558 1.77561 11.3581 22
157 1 21.3994 1.07061 4.32853 22
158 1 2.81831 32.1701 17.9324 22
159 1 13.5658 9.08578 14.5383 23
160 1 21.4699 1.23175 7.76422 20
161 1 13.5192 11.7796 6.21921 19
162 1 15.5358 15.4833 -0.525521 21
163 1 10.7455 9.86565 6.45417 21
164 1 18.6608 8.94884 1.12132 24
165 1 10.5414 18.6338 4.5684 20
166 1 31.8915 18.6018 7.75763 21
167 1 21.0564 13.0968 7.52909 20
168 1 20.962 13.0493 1.2323 22
169 1 7.82587 15.0448 11.2318 22
170 1 10.8594 18.4257 11.0831 21
171 1 21.068 18.8578 4.65448 22
172 1 19.1478 6.15369 2.64382 22
173 1 15.9151 9.62886 6.24381 19
174 1 20.8878 13.0958 4.73132 23
175 1 24.1333 23.6001 19.5533 23
176 1 7.93489 17.9442 9.58599 23
177 1 5.51051 10.2706 16.1695 22
178 1 7.43031 32.6158 21.2621 21
179 1 2.91838 12.0818 16.2139 22
180 1 10.8944 16.025 6.22629 21
181 2 30.9243 3.56356 4.71117 23
182 2 31.6153 32.212 64.3988 23
183 2 5.02137 6.32199 6.11793 23
184 2 4.98773 6.46306 3.19568 23
185 2 2.09699 1.31392 1.13261 23
186 2 5.00932 0.20246 3.17435 21
187 2 2.15599 27.0064 66.0164 24
188 2 10.2916 32.0268 11.1189 22
189 2 31.8225 11.9018 16.2075 24
190 2 12.9074 21.625 6.32766 22
191 2 15.4447 6.09232 6.27997 24
192 2 26.2126 20.1856 18.2805 21
193 2 2.50983 4.38305 15.586 22
194 2 7.58572 1.38676 17.8599 22
195 2 28.6115 30.3702 17.9666 22
196 2 7.83989 33.5587 19.3838 22
197 2 18.5349 30.3911 14.5325 20
198 2 10.2527 32.0991 7.79876 26
199 2 8.16541 7.20019 14.5538 20
200 2 28.6927 18.5546 14.8445 21
201 2 2.25985 9.65303 -0.0481857 23
202 2 1.97111 4.49379 6.26867 21
203 2 2.3635 6.88242 64.3767 22
204 2 5.70201 6.54003 -0.182373 20
205 2 5.00412 12.0532 3.06934 22
206 2 4.84833 9.31871 1.75212 23
207 2 4.66793 17.9872 13.0341 23
208 2 2.93265 1.04682 7.72408 20
209 2 10.2013 8.9557 14.8847 23
210 2 29.1183 30.2677 8.06254 20
211 2 28.541 15.924 6.10766 24
212 2 7.72128 19.0191 17.8326 20
213 2 15.2439 2.75711 14.064 22
214 2 31.2763 6.22043 6.53785 23
215 2 20.791 32.1739 21.0384 23
216 2 4.90181 2.9802 14.393 23
217 2 2.07877 15.5489 9.93216 23
218 2 28.9955 7.0567 20.9914 22
219 2 23.8924 1.1679 11.3147 21
220 2 15.3503 2.98664 17.8501 19
221 2 28.6549 10.1834 9.44908 22
222 2 4.84332 11.7997 0.095362 22
223 2 4.39837 18.229 9.58645 22
224 2 7.47062 15.6201 12.8199 23
225 2 7.49519 3.93996 12.649 24
226 2 4.85218 17.4498 6.44707 22
227 2 31.6434 12.0058 -0.360668 21
228 2 28.4308 4.30837 9.29691 25
229 2 11.0914 20.6654 7.85513 23
230 2 7.9349 10.3021 6.22705 21
231 2 31.5483 14.7874 1.20719 21
232 2 2.50869 6.93123 1.07735 22
233 2 7.9966 7.06319 8.20123 20
234 2 31.2294 14.7815 17.7076 24
235 2 31.2352 6.34042 19.4157 22
236 2 7.31212 9.59424 9.54106 22
237 2 4.74461 29.2406 16.4838 25
238 2 10.1764 29.5355 13.0498 23
239 2 2.3194 16.197 17.1476 19
240 2 5.16552 20.9741 10.9326 21
241 2 7.92177 6.86696 1.6055 20
242 2 5.34565 0.358749 5.91837 19
243 2 12.9907 30.0407 8.44838 23
244 2 10.2727 8.6503 1.39125 19
245 2 28.4171 4.28907 2.67842 23
246 2 7.47323 0.987559 1.09029 23
247 2 10.2277 29.6861 9.7558 23
248 2 18.0915 7.20701 11.516 23
249 2 28.6784 7.1977 7.42339 22
250 2 10.3912 0.00973 3.26363 22
251 2 18.0494 4.40461 23.0146 23
252 2 23.507 4.33354 16.2717 22
253 2 15.6134 8.85877 4.631 22
254 2 1.91951 27.3075 6.56757 25
255 2 9.94051 -0.17901 12.8686 20
256 2 12.7525 7.18152 8.06419 21
257 2 13.1715 4.1382 19.62 20
258 2 7.56058 30.2005 20.9386 22
259 2 10.4015 26.463 4.7408 22
260 2 18.1344 29.9945 4.52645 24
261 2 2.3825 10.3448 2.74646 24
262 2 2.70307 13.003 1.49369 25
263 2 15.7191 14.8879 8.42384 21
264 2 18.266 0.964736 4.7139 21
265 2 5.21884 9.34066 4.88285 24
266 2 15.4536 -0.0212186 65.8481 21
267 2 5.15658 14.5411 14.7861 20
268 2 12.9038 13.2151 1.17367 24
269 2 7.56099 16.0955 3.00133 24
270 2 20.5556 12.2495 9.49873 24
271 2 7.6607 6.77842 11.2663 22
272 2 26.2552 0.445025 10.0435 23
273 2 31.4328 8.76729 1.40302 22
274 2 10.1534 31.9804 1.39057 22
275 2 13.5027 4.01112 9.72876 21
276 2 30.9398 14.6316 4.50038 23
277 2 15.3103 17.1804 19.2232 24
278 2 20.9549 3.47885 14.6067 23
279 2 15.5971 12.082 6.16842 21
280 2 10.0186 14.6639 7.56865 22
281 2 7.63432 15.4435 66.1315 20
282 2 9.94415 15.2577 1.65916 21
283 2 4.54629 15.2184 4.78627 23
284 2 10.8387 14.627 64.6304 21
285 2 2.64152 12.9283 7.77749 21
286 2 23.2539 10.187 2.4473 21
287 2 18.2387 19.0254 8.02138 24
288 2 17.8255 13.0475 4.61353 20
289 2 7.61924 12.7654 7.8304 22
290 2 10.0772 9.07387 4.53535 22
291 2 2.03821 15.6703 22.9494 22
292 2 13.1608 12.466 4.31193 19
293 2 23.4571 19.2199 11.1297 21
294 2 10.0569 17.8215 12.9571 21
295 2 20.4146 6.5425 22.4624 24
296 2 15.7138 -0.00532624 13.1192 20
297 2 15.8655 0.195842 6.47559 21
298 2 21.3777 0.142606 22.7738 19
299 2 31.1803 3.12879 8.26355 21
300 2 16.0018 9.38702 28.0661 21
301 2 9.95964 5.44225 63.0377 21
302 2 12.5901 4.0157 3.46357 21
303 2 9.91425 5.75633 3.28744 21
304 2 31.2706 8.76225 4.20307 24
305 2 20.7885 11.937 -0.210712 20
306 2 25.9102 0.556222 6.53827 20
307 2 12.6258 4.08883 65.9167 22
308 2 23.131 1.47959 64.2125 23
309 2 17.844 1.68109 64.1279 21
310 2 12.9394 1.3818 8.00982 24
311 2 7.5051 4.51803 19.0664 23
312 2 13.175 32.9877 6.46096 23
313 2 31.4344 6.17874 3.04175 23
314 2 23.3548 33.2083 15.9074 23
315 2 31.2966 0.624378 9.55534 23
316 2 15.3242 12.1238 9.75544 25
317 2 18.39 1.02515 21.6273 21
318 2 31.6039 14.7206 14.7996 23
319 2 18.5995 0.998661 7.84435 20
320 2 15.363 28.9837 2.71754 22
321 2 12.9566 9.8941 -0.260615 18
322 2 12.6313 1.4667 64.4438 23
323 2 15.4521 14.7987 1.71254 21
324 2 20.7378 9.20854 64.379 25
325 2 7.59909 18.9783 14.2784 23
326 2 12.8395 6.0944 1.26895 21
327 2 20.7942 6.18998 9.44976 21
328 2 15.6492 3.3129 7.91256 23
329 2 10.2068 12.1843 2.49277 24
330 2 15.5599 8.6119 8.21556 20
331 2 5.28251 20.7903 8.12144 24
332 2 18.6559 15.9702 6.07556 21
333 2 10.1685 17.7134 6.4301 24
334 2 13.1539 9.95141 3.17647 19
335 2 15.621 0.479707 16.4374 21
336 2 28.643 18.6437 21.1589 22
337 2 4.94358 0.302483 9.62427 22
338 2 29.0668 13.0565 11.4786 21
339 2 15.7456 15.105 11.5826 23
340 2 20.2305 26.1472 7.78664 23
341 2 26.2869 3.10826 7.74939 22
342 2 15.2638 14.5076 18.2402 24
343 2 20.6005 14.8004 7.89357 23
344 2 15.259 11.8118 66.1271 22
345 2 20.6025 -0.159783 9.80326 23
346 2 16.2219 20.4459 7.97307 23
347 2 9.86154 26.1105 64.7249 22
348 2 15.4523 0.462696 2.98347 22
349 2 4.99813 23.3321 22.7904 23
350 2 31.1965 11.5035 6.4901 24
351 2 20.0767 11.8916 6.00255 22
352 2 25.8991 14.697 4.74231 23
353 2 18.2108 33.1634 16.4444 22
354 2 20.55 9.27614 1.08185 25
355 2 10.8845 14.8991 4.37292 20
356 2 15.7747 11.6482 16.0017 22
357 2 15.4079 17.8195 9.94825 24
358 2 21.143 3.08273 4.71381 20
359 2 18.1431 1.51236 11.0059 21
360 2 23.2397 19.0764 15.1684 22
361 1 26.2132 33.0712 6.42473 18
362 1 29.3704 3.48841 10.6644 21
363 1 10.7896 12.356 24.8679 22
364 1 5.81865 7.08168 14.8621 22
365 1 10.6419 27.437 19.5864 23
366 1 31.889 33.0041 26.2445 22
367 1 18.9219 0.342786 9.47223 21
368 1 5.18281 32.9568 29.7122 20
369 1 31.1897 1.4954 14.2742 23
370 1 13.1512 3.20339 1.33352 23
371 1 5.92219 7.08326 31.3146 24
372 1 5.54627 3.72723 19.2082 25
373 1 5.57961 3.9335 22.5544 21
374 1 21.2349 32.987 26.2356 24
375 1 3.13184 5.93884 22.4729 22
376 1 10.7482 3.95033 23.1317 22
377 1 32.0262 7.20907 27.6683 23
378 1 7.40826 17.4667 22.7216 19
379 1 8.13715 3.1746 31.3082 20
380 1 2.98204 0.406213 29.8727 20
381 1 8.39845 11.9329 16.3237 23
382 1 15.7569 6.74034 24.6555 20
383 1 13.639 15.1555 14.6415 23
384 1 1.27865 7.3244 24.4056 22
385 1 31.9718 1.24929 17.7038 20
386 1 5.35687 4.13759 26.486 21
387 1 16.5822 21.4019 19.6671 23
388 1 8.29991 11.7553 12.8258 24
389 1 18.7316 5.94868 19.3571 23
390 1 13.2697 12.262 19.5751 21
391 1 5.65879 9.8496 19.5849 21
392 1 5.78056 1.28138 24.4688 22
393 1 32.068 4.44064 26.125 18
394 1 7.79708 20.6559 28.3123 21
395 1 3.07063 6.73601 29.6628 22
396 1 32.0252 13.0079 20.8886 23
397 1 2.74929 29.0076 25.8345 21
398 1 28.96 9.35368 31.1937 22
399 1 5.39341 7.40109 28.0223 21
400 1 32.0955 12.5826 31.4281 22
401 1 2.44474 14.4974 27.9222 19
402 1 13.8087 15.012 11.3401 23
403 1 8.34791 20.6157 11.1944 23
404 1 8.37967 9.09159 17.8206 22
405 1 15.7542 13.0 8.05314 21
406 1 10.9466 24.3767 4.82131 26
407 1 5.57363 12.8967 17.7277 19
408 1 5.59406 1.19216 27.8605 22
409 1 16.288 9.58933 23.3172 24
410 1 16.139 9.95808 19.8172 23
411 1 26.8595 12.702 27.7475 22
412 1 2.22662 14.6174 24.5755 22
413 1 29.2373 14.9154 24.4142 21
414 1 32.0164 21.0267 23.146 23
415 1 2.67794 20.4397 31.0495 23
416 1 10.9537 10.1582 16.5063 22
417 1 4.94287 18.8068 27.8397 22
418 1 5.67535 10.083 25.8371 23
419 1 29.2869 12.2236 25.6773 19
420 1 3.02295 15.0145 31.4893 23
421 1 2.61881 32.4884 24.5291 20
422 1 16.5221 4.05008 13.0195 25
423 1 8.28127 26.6625 7.85058 23
424 1 24.1398 26.3164 21.3575 24
425 1 21.537 7.42397 11.0165 22
426 1 8.20613 32.2534 11.0879 24
427 1 13.556 12.1669 13.2355 21
428 1 21.2432 27.3815 19.7151 23
429 1 10.8225 7.03467 14.707 23
430 1 13.9569 0.341818 9.37535 22
431 1 10.776 32.6401 26.5006 22
432 1 18.7244 8.65817 17.7346 21
433 1 22.2217 21.1664 19.2446 24
434 1 8.67019 4.06347 21.6162 21
435 1 10.928 30.1516 31.1323 24
436 1 23.8659 0.251895 26.1839 20
437 1 13.334 31.6699 28.2698 24
438 1 11.121 4.12926 29.9277 23
439 1 16.0454 10.0053 26.2276 23
440 1 13.3361 3.20497 24.6062 24
441 1 26.3187 4.20646 9.4961 20
442 1 8.4047 5.75751 12.6695 23
443 1 13.5223 9.03899 8.17261 22
444 1 11.2847 9.39219 26.4232 23
445 1 26.7366 33.2551 9.67788 21
446 1 10.5119 15.8172 22.8947 23
447 1 3.01856 9.26128 27.535 21
448 1 29.587 17.6959 16.3577 24
449 1 32.5612 6.85864 20.818 25
450 1 13.4005 14.5763 21.0593 24
451 1 13.2117 5.83964 22.8679 21
452 1 13.3933 9.03405 21.1022 24
453 1 13.4974 2.93871 27.8809 22
454 1 15.7849 15.6071 29.8057 21
455 1 10.4169 4.08657 26.3864 21
456 1 16.5364 1.45095 24.7755 25
457 1 8.40017 3.39086 17.9355 22
458 1 29.0734 7.3742 26.3947 19
459 1 8.44484 6.24954 29.9904 24
460 1 11.1171 4.12963 32.8032 24
461 1 7.89426 11.6272 23.1297 23
462 1 5.65709 6.97274 11.1819 23
463 1 13.4216 17.3425 29.5266 20
464 1 18.6391 6.24755 9.58192 23
465 1 8.56982 9.09945 27.8937 24
466 1 16.2751 24.4348 18.1082 23
467 1 15.9628 13.0124 27.9454 22
468 1 13.285 5.80756 26.6709 21
469 1 5.67699 9.75224 22.7168 24
470 1 3.00493 6.17257 15.7322 25
471 1 29.7934 8.88381 24.5 22
472 1 13.4245 26.1307 24.4665 24
473 1 13.3878 6.24507 19.6405 21
474 1 8.20637 17.6605 19.3439 20
475 1 16.4732 13.0253 31.1166 21
476 1 8.18218 3.14797 28.3305 23
477 1 5.74986 9.82681 29.7025 23
478 1 7.77105 17.7593 26.0494 23
479 1 10.6438 18.6727 27.9004 20
480 1 10.6931 15.468 26.3048 22
481 1 18.626 29.0136 9.49996 23
482 1 16.2321 4.12919 9.73918 21
483 1 10.6235 1.25437 18.1495 20
484 1 10.8072 32.7506 12.81 22
485 1 7.81273 29.2887 19.2831 21
486 1 21.475 10.0441 12.5027 23
487 1 13.1959 11.6382 23.2242 21
488 1 18.7756 0.435467 12.7754 21
489 1 13.5026 3.05393 4.61463 25
490 1 19.0308 3.40641 24.3568 22
491 1 8.24523 32.0599 14.1455 24
492 1 18.5002 0.0118883 26.6602 23
493 1 20.8381 1.68169 25.2265 21
494 1 11.4784 7.16093 31.1251 25
495 1 23.9389 6.23248 26.2854 22
496 1 21.5378 1.25829 28.2323 22
497 1 16.3698 33.2398 29.7269 25
498 1 5.47363 4.15863 29.8006 23
499 1 13.9456 2.80227 30.9542 23
500 1 16.0408 0.911032 31.0203 21
501 1 5.37341 32.9424 15.9648 21
502 1 21.4816 10.3567 15.7157 21
503 1 8.43267 6.27629 19.4261 21
504 1 10.5093 33.1477 23.1144 22
505 1 32.314 7.30184 10.7963 23
506 1 13.4258 15.0969 27.5978 21
507 1 10.9687 4.06571 19.7971 22
508 1 3.10634 6.09157 19.0112 23
509 1 8.20868 31.9775 31.5011 22
510 1 18.7789 11.8451 22.7585 24
511 1 16.0233 12.7955 17.8909 22
512 1 10.5035 29.7164 18.2351 23
513 1 18.6893 31.7377 28.4029 21
514 1 21.4018 9.81939 26.4399 24
515 1 15.9903 29.947 27.9476 23
516 1 16.4944 7.33692 27.9737 23
517 1 10.8348 10.087 32.8083 23
518 1 13.8193 9.31148 31.1091 24
519 1 7.92813 12.043 29.945 23
520 1 13.783 5.65515 29.892 23
521 1 2.87784 3.56183 10.7087 21
522 1 18.9526 11.7764 12.5559 24
523 1 15.9271 12.8619 24.3683 19
524 1 2.9183 14.839 21.0518 24
525 1 21.5986 33.4357 19.9603 21
526 1 2.84511 23.3914 9.87027 22
527 1 13.6806 17.7527 12.7922 22
528 1 10.9863 4.2768 12.4513 23
529 1 13.6057 20.9055 14.4362 22
530 1 3.101 5.90939 26.2591 21
531 1 5.08374 15.8003 28.9996 21
532 1 15.9441 15.6511 26.0204 20
533 1 13.6306 12.1499 26.1453 23
534 1 18.7176 14.9945 27.7308 21
535 1 32.1034 10.2092 26.1399 23
536 1 16.1846 3.99196 29.4862 22
537 1 11.0904 18.9221 30.9244 24
538 1 19.1825 26.4216 11.1481 25
539 1 10.6291 12.8339 31.0051 21
540 1 5.40514 13.2115 31.3157 21
541 2 28.9467 21.4136 6.42094 21
542 2 10.1862 28.6658 26.5728 22
543 2 15.4005 26.1521 21.0127 23
544 2 7.32629 18.5374 11.2691 25
545 2 7.48645 32.8306 26.5609 24
546 2 5.18388 3.77556 10.929 23
547 2 31.3488 32.1926 21.2745 24
548 2 13.1105 0.935837 11.0687 22
549 2 28.7599 1.73961 30.9768 21
550 2 5.17518 31.9151 13.8649 22
551 2 4.88732 6.62601 29.7122 22
552 2 2.00205 15.6955 19.6314 24
553 2 7.75165 33.3421 33.2254 20
554 2 7.84652 30.2585 28.0641 20
555 2 7.56578 24.6044 21.3251 24
556 2 31.0471 23.4527 25.7783 23
557 2 10.1036 0.520361 29.8403 23
558 2 31.4247 32.0687 27.7646 22
559 2 5.00599 6.52942 32.7594 24
560 2 31.6961 6.38776 32.9412 22
561 2 1.9173 15.3707 26.2026 24
562 2 25.9819 8.92228 7.79305 24
563 2 15.5196 5.67472 15.9535 20
564 2 31.272 23.5645 16.3751 24
565 2 5.11974 3.27646 28.1403 22
566 2 18.4391 9.71246 22.9041 24
567 2 28.5527 3.89972 25.8054 20
568 2 4.48435 17.2838 19.7802 24
569 2 12.5772 12.912 24.693 23
570 2 15.5735 6.08496 26.5873 23
571 2 7.21427 27.6312 29.9251 24
572 2 9.93848 31.4894 24.8068 21
573 2 12.8086 24.2731 21.2012 22
574 2 10.4194 6.16689 29.6299 25
575 2 2.26859 7.07675 34.7935 25
576 2 7.45071 12.4228 24.7816 20
577 2 7.75522 9.80422 29.4742 22
578 2 4.8706 11.9912 9.62383 25
579 2 31.896 3.19815 24.4883 18
580 2 2.43438 9.47299 22.2998 23
581 2 7.58798 27.4475 22.9152 23
582 2 28.762 7.44379 14.4962 21
583 2 13.0842 21.4139 19.4516 23
584 2 15.3517 26.3318 11.1875 23
585 2 5.24604 5.8846 22.4572 23
586 2 7.67862 10.2655 16.3728 24
587 2 9.96188 26.1993 14.6053 20
588 2 2.07505 12.8406 14.4697 25
589 2 21.3343 17.2542 26.4897 21
590 2 12.5579 15.7363 23.0474 23
591 2 31.8177 3.24816 17.6976 19
592 2 31.8565 9.03539 24.1577 22
593 2 28.4969 9.9827 16.0138 23
594 2 26.0869 5.83395 29.664 21
595 2 31.2799 0.337224 26.3787 23
596 2 31.0436 12.0722 26.0153 24
597 2 31.6232 9.11764 20.7634 22
598 2 5.4605 8.74656 21.0955 21
599 2 5.11095 5.85503 26.2886 20
600 2 10.2078 11.5822 23.1021 21
601 2 10.2234 6.5999 6.54998 21
602 2 10.2897 26.4853 7.66744 22
603 2 7.02629 18.3655 20.9553 23
604 2 7.90724 7.10756 28.36 22
605 2 20.7614 32.0976 11.2944 24
606 2 5.20385 0.672723 12.6875 23
607 2 31.5213 0.4608 16.0092 20
608 2 18.2218 27.2854 16.3742 22
609 2 10.1939 31.7789 18.237 21
610 2 12.4389 1.15183 14.1058 20
611 2 2.54034 33.106 19.5868 20
612 2 10.2472 8.55593 31.6136 22
613 2 23.3941 12.8206 24.2908 22
614 2 7.53238 27.394 26.197 23
615 2 15.6989 3.28706 31.3681 22
616 2 13.06 9.93705 29.3034 20
617 2 10.3776 32.1053 31.5967 20
618 2 21.1561 23.5766 13.1433 23
619 2 18.5022 4.2622 12.9181 24
620 2 12.8323 0.95544 27.58 20
621 2 9.99528 11.981 20.0716 22
622 2 7.46989 30.1101 4.84033 23
623 2 12.7602 10.0187 13.1163 24
624 2 5.32216 3.16113 24.3857 25
625 2 2.26707 33.4716 26.1504 22
626 2 12.7548 3.97309 22.6713 23
627 2 13.0791 7.07846 14.3713 22
628 2 10.5059 20.4732 21.3243 19
629 2 12.5962 4.007 26.3839 23
630 2 12.6429 30.0139 17.7833 22
631 2 17.9498 24.0179 24.3135 22
632 2 10.3703 23.3768 29.1334 22
633 2 15.5873 23.5494 16.1478 23
634 2 11.0162 6.21562 32.8914 20
635 2 18.144 32.6917 26.5946 22
636 2 12.8765 33.0513 29.6369 23
637 2 4.4688 14.4069 27.6982 23
638 2 9.96927 32.1515 21.3356 21
639 2 5.03236 3.34624 34.4934 22
640 2 10.917 11.7784 29.4263 24
641 2 5.18268 32.1522 7.97366 21
642 2 18.3921 9.8155 15.8162 21
643 2 15.483 9.18656 21.6251 21
644 2 4.94429 14.7155 11.246 24
645 2 4.95403 11.8467 15.7073 25
646 2 31.2999 32.4719 18.07 23
647 2 10.1884 9.39476 18.1057 23
648 2 10.1677 17.3931 15.8504 23
649 2 31.4064 20.513 21.3895 21
650 2 12.8973 6.50907 24.8996 22
651 2 15.8109 14.5593 34.8662 23
652 2 13.0497 7.01475 28.2412 24
653 2 5.17876 15.2472 31.1248 21
654 2 17.9783 4.21349 19.6844 21
655 2 4.93976 20.4245 31.0529 21
656 2 10.5323 23.1248 26.3821 20
657 2 2.32378 21.739 26.1712 23
658 2 26.34 8.77295 27.4122 23
659 2 2.07378 9.79827 32.6555 24
660 2 12.4754 12.4309 31.3442 23
661 2 12.6294 33.2633 13.1207 25
662 2 18.9188 15.4798 22.8156 18
663 2 13.153 7.12064 11.1895 21
664 2 12.8694 9.66921 23.0212 22
665 2 12.8505 1.3146 24.3864 21
666 2 20.9443 9.27838 21.0869 22
667 2 10.151 0.443805 22.7399 20
668 2 21.4781 32.3141 17.9919 20
669 2 2.61749 4.73325 29.7444 21
670 2 26.0132 3.30376 27.9731 23
671 2 26.1199 11.8793 19.1426 21
672 2 13.1263 13.4886 15.1031 21
673 2 21.3338 9.17736 14.2415 21
674 2 20.6717 9.05737 28.1907 26
675 2 15.5069 0.455016 26.1909 22
676 2 20.739 6.39753 29.8618 24
677 2 17.9796 1.36037 31.4386 22
678 2 16.0796 6.40745 32.4466 21
679 2 17.9382 29.9933 28.2151 24
680 2 12.8621 3.82038 29.464 23
681 2 2.30718 1.35926 21.0628 22
682 2 18.0248 1.27044 18.1275 25
683 2 15.9413 8.85615 14.8166 20
684 2 18.268 7.01442 14.689 22
685 2 10.0034 3.13294 31.2868 25
686 2 18.0956 27.5214 3.05586 21
687 2 10.441 3.22504 7.90131 21
688 2 23.4827 13.1531 11.0683 23
689 2 2.6869 18.6814 14.6971 20
690 2 18.541 1.09652 25.043 20
691 2 10.0036 3.31041 24.7376 21
692 2 8.09883 12.8511 14.4712 21
693 2 31.8862 6.42735 12.425 21
694 2 13.1622 10.1858 26.5768 22
695 2 2.19523 18.7086 24.4515 21
696 2 20.7475 14.7227 27.7653 24
697 2 18.6607 33.0182 30.1619 22
698 2 29.0083 10.2206 23.345 22
699 2 13.2831 4.24301 32.5925 22
700 2 21.5583 9.16835 31.6474 22
701 2 20.6949 11.813 25.799 23
702 2 7.66819 33.1316 2.73794 20
703 2 4.63861 3.6534 7.71268 23
704 2 23.1877 10.3116 9.69158 23
705 2 2.59194 24.1685 21.2627 22
706 2 15.5964 12.2175 26.0224 23
707 2 10.2443 8.90839 21.0775 21
708 2 15.6591 3.17059 24.3744 22
709 2 15.4835 20.3732 18.0932 24
710 2 18.3457 12.9371 27.7716 22
711 2 18.1927 32.9778 19.6072 22
712 2 7.71191 16.0594 16.0835 22
713 2 21.0231 23.8853 16.6401 21
714 2 10.1877 14.7511 21.4185 20
715 2 7.9221 9.66166 22.8396 20
716 2 12.8363 18.5337 24.4991 20
717 2 12.4542 21.7283 22.8851 20
718 2 12.7164 10.253 33.0163 24
719 2 12.8824 12.9592 27.8601 23
720 2 17.5336 7.11685 24.9616 22
721 1 5.5708 15.4517 62.8696 24
722 1 13.1252 17.8455 6.30383 24
723 1 5.12272 18.5852 1.29665 21
724 1 5.23132 18.7319 7.98588 24
725 1 5.74256 24.7474 4.65743 22
726 1 16.171 29.7471 7.72776 23
727 1 29.047 14.9007 4.45484 21
728 1 31.5716 15.6962 6.12887 20
729 1 10.8985 30.2722 14.7519 22
730 1 2.49194 17.8695 -0.281541 21
731 1 5.81152 1.15912 14.4064 24
732 1 8.16379 17.6402 12.9462 23
733 1 3.01194 17.4752 6.27575 22
734 1 13.9016 23.3548 9.57939 25
735 1 2.65167 14.9591 8.10704 24
736 1 10.6598 24.4896 8.45171 22
737 1 10.6028 21.8105 2.78598 22
738 1 29.3974 29.2148 22.5486 24
739 1 2.8523 9.1673 7.98107 24
740 1 7.83985 23.4685 23.0851 22
741 1 32.1344 18.825 1.53123 21
742 1 29.0346 23.1683 2.92164 23
743 1 29.2904 26.2903 1.14696 24
744 1 8.07972 23.9114 0.0716504 25
745 1 5.28088 21.6072 3.04097 22
746 1 31.5668 21.5045 13.3067 22
747 1 31.664 4.24293 6.64533 22
748 1 29.0292 20.9641 4.75249 21
749 1 28.9617 31.902 1.44438 20
750 1 5.61448 27.3537 13.1879 23
751 1 32.1049 33.1782 16.2632 21
752 1 3.02172 20.5377 8.23197 21
753 1 10.6148 21.6345 22.7449 20
754 1 31.9636 15.6097 13.0314 21
755 1 2.99196 29.5389 6.27038 21
756 1 3.19916 20.3639 24.703 24
757 1 5.37479 21.4979 16.3983 23
758 1 5.53593 24.7761 27.8402 25
759 1 21.3784 15.8073 16.124 23
760 1 5.72912 24.3153 17.9566 25
761 1 31.7198 33.3069 66.2448 23
762 1 3.27302 32.3606 64.1418 22
763 1 8.45297 0.346819 2.92592 22
764 1 2.73282 26.2076 1.09078 21
765 1 7.95592 29.1099 2.6245 21
766 1 5.35464 30.3481 7.98389 24
767 1 31.6096 30.3651 1.13939 20
768 1 29.4072 29.2962 6.34751 21
769 1 26.7324 24.3971 1.00815 22
770 1 2.81362 26.3292 11.6383 24
771 1 2.61062 32.1101 4.87727 20
772 1 7.99013 32.1261 7.81616 24
773 1 13.1867 23.5085 6.83436 21
774 1 8.39914 26.5132 4.70148 25
775 1 23.6802 28.9479 9.75998 20
776 1 10.9748 30.126 11.5606 23
777 1 5.42963 1.38031 21.2337 20
778 1 7.91104 0.157462 9.19286 22
779 1 31.906 4.28624 19.5652 22
780 1 31.8631 33.2397 23.049 23
781 1 10.7984 19.1766 1.73875 18
782 1 15.3528 26.9405 65.5414 21
783 1 13.537 20.7962 4.65981 21
784 1 10.622 15.9468 -0.464479 23
785 1 15.9779 18.4985 8.27714 22
786 1 5.62053 24.8606 11.4701 25
787 1 15.6997 15.9735 3.02289 21
788 1 13.7243 31.8233 8.15079 25
789 1 11.0847 13.2429 14.6359 24
790 1 8.525 20.3652 7.94142 24
791 1 8.07622 17.6612 6.29866 23
792 1 8.47671 23.6899 9.98517 23
793 1 5.52192 27.5043 10.3469 23
794 1 13.5357 25.9689 8.09047 25
795 1 21.9048 15.9809 19.414 22
796 1 13.8547 3.05898 11.3254 23
797 1 23.8718 17.6045 6.39472 24
798 1 31.7339 4.2187 2.97258 23
799 1 15.8545 27.2459 19.2777 20
800 1 8.49681 9.07104 10.9234 21
801 1 10.1596 27.1888 -0.189954 22
802 1 13.7806 26.5298 1.30383 22
803 1 3.14775 26.6177 4.86316 23
804 1 10.7498 27.384 3.01684 24
805 1 10.9312 33.2327 6.38884 21
806 1 10.8598 30.1788 8.00905 23
807 1 18.6521 29.1279 65.7599 22
808 1 7.96876 20.7745 4.44252 22
809 1 10.3954 24.1786 24.5074 21
810 1 13.1531 28.9905 66.0774 20
811 1 13.6113 32.2772 11.5071 23
812 1 13.3163 29.0144 3.14097 22
813 1 29.4058 15.1596 17.76 24
814 1 8.30742 23.8694 3.027 23
815 1 8.16545 29.6147 9.70175 23
816 1 8.2698 32.0054 17.5167 21
817 1 19.0814 3.04315 7.57949 22
818 1 5.55737 33.3247 26.4118 22
819 1 32.0037 24.7468 14.3989 22
820 1 8.43528 29.4932 23.0704 24
821 1 10.9991 32.643 2.87962 20
822 1 11.0545 27.469 9.72831 22
823 1 13.5028 0.473335 2.61703 23
824 1 18.4854 0.315926 2.70644 21
825 1 11.0551 30.2227 1.63269 22
826 1 10.8797 0.794491 4.79949 24
827 1 2.66407 29.1916 -0.108932 20
828 1 18.0535 26.3251 1.41878 21
829 1 13.5514 26.5729 14.54 24
830 1 8.40529 26.4791 11.1504 23
831 1 7.93072 26.2455 1.24528 22
832 1 5.38545 1.42677 7.74458 22
833 1 8.29899 23.1022 6.33531 22
834 1 7.95309 0.15828 6.46061 21
835 1 2.7733 3.718 8.17702 21
836 1 13.6132 29.1149 19.4846 23
837 1 31.9516 33.5082 6.45081 20
838 1 5.68174 27.2656 65.9723 23
839 1 10.9786 27.3725 6.34736 25
840 1 3.27143 31.9669 20.8686 24
841 1 10.7141 21.8734 0.0904198 23
842 1 15.8414 18.5131 64.6273 21
843 1 18.4494 17.9147 3.15997 24
844 1 13.2059 23.6987 66.0321 25
845 1 18.5953 11.6517 65.9937 25
846 1 15.817 18.7022 5.05375 21
847 1 16.2776 21.6142 9.23965 24
848 1 21.5897 21.6824 9.8698 21
849 1 31.6932 21.339 3.04492 23
850 1 13.5734 26.5494 11.3125 23
851 1 16.1816 15.3978 16.5857 22
852 1 18.448 9.13398 11.2015 18
853 1 18.9034 20.6326 10.9195 25
854 1 18.7877 31.8909 4.48597 19
855 1 10.8082 9.82121 22.9337 23
856 1 15.912 7.03245 17.7828 21
857 1 16.697 30.6738 14.0417 21
858 1 18.757 20.6798 4.62298 24
859 1 16.0775 21.3725 2.76182 21
860 1 13.5757 0.0855642 23.0511 25
861 1 5.33686 18.6502 4.87405 23
862 1 13.2455 26.7078 4.90418 21
863 1 15.6506 30.0994 1.02217 21
864 1 18.5368 20.6423 1.21713 24
865 1 15.8277 13.0057 4.57297 20
866 1 21.4346 26.6173 3.10933 21
867 1 18.3511 18.0165 6.39958 24
868 1 27.0216 21.6099 6.28256 24
869 1 13.2399 17.744 66.1469 21
870 1 16.2515 4.31712 6.19836 20
871 1 13.4557 18.0136 3.07206 23
872 1 24.1739 26.4579 1.24347 23
873 1 13.2299 11.9046 10.2381 20
874 1 19.0433 23.7021 6.05914 25
875 1 13.3731 31.9567 24.5477 21
876 1 16.0585 30.4121 24.897 23
877 1 21.2098 21.4785 2.54816 22
878 1 10.972 0.874295 11.4837 23
879 1 12.4912 0.696089 15.9983 22
880 1 21.458 21.5412 6.05684 25
881 1 15.9304 29.9597 64.2677 21
882 1 18.5132 32.2513 64.4087 21
883 1 21.6939 1.21925 11.2289 23
884 1 5.62862 33.0121 6.24207 24
885 1 18.7062 23.2711 66.0909 25
886 1 18.7512 11.7098 19.1949 20
887 1 16.1403 1.30959 4.45959 21
888 1 16.0824 15.8881 10.0449 24
889 1 13.027 26.1001 64.0683 18
890 1 29.0436 3.35892 1.2395 23
891 1 18.9662 3.56797 4.71837 22
892 1 18.9091 14.5089 14.5949 22
893 1 21.1573 1.12734 1.1674 20
894 1 5.51093 1.51776 17.7774 25
895 1 16.1834 1.20518 14.6873 23
896 1 7.97678 29.4139 16.0818 22
897 1 15.7596 24.5848 4.42378 23
898 1 21.2533 7.29116 20.9259 22
899 1 8.03674 23.4059 13.2485 21
900 1 8.0473 20.8445 1.13375 23
901 2 4.92434 20.8416 4.93869 22
902 2 4.77104 15.1493 1.36815 24
903 2 5.17417 26.6708 8.33202 21
904 2 2.50594 18.7652 1.37039 20
905 2 10.1403 23.8053 3.1675 26
906 2 5.28611 17.8023 3.27732 21
907 2 28.738 15.5283 12.6906 20
908 2 7.61275 4.49141 6.4653 24
909 2 7.51551 21.4678 12.8045 23
910 2 30.9369 6.34203 9.59139 23
911 2 4.56885 20.7908 1.23939 24
912 2 7.12889 24.5033 1.81022 24