ITEM: TIMESTEP
167000
ITEM: NUMBER OF ATOMS
5760
ITEM: BOX BOUNDS pp pp pp
1.0217593133 32.6382406867
-0.4460260042 34.1060260042
-0.4162259729 66.2162259729
ITEM: ATOMS id type x y z Coordination
1 1 2.87969 0.0454278 66.2284 22
2 1 5.14927 4.21222 -0.201532 20
3 1 3.32393 0.112527 2.90166 24
4 1 5.50292 33.0053 -0.330552 23
5 1 29.6825 5.77456 9.5002 24
6 1 5.86654 1.13446 1.30867 23
7 1 5.51126 30.098 4.63426 21
8 1 5.67282 32.7042 2.80546 25
9 1 2.72771 6.16828 6.46506 22
10 1 5.54961 4.32386 3.09482 22
11 1 29.3998 29.237 16.1573 25
12 1 13.2322 9.3214 11.217 23
13 1 31.6757 29.9172 4.31672 21
14 1 3.03343 0.625994 19.1392 23
15 1 5.14126 33.1213 9.81948 21
16 1 10.8761 4.39714 9.22029 21
17 1 8.44866 12.1867 18.981 22
18 1 5.32659 13.2608 21.4134 20
19 1 18.9419 0.120158 16.1679 24
20 1 5.65701 29.9793 11.3467 26
21 1 2.80433 0.483883 6.57966 22
22 1 2.50082 11.8947 66.1662 22
23 1 5.67161 4.2357 6.36322 22
24 1 29.4786 0.265527 3.29723 24
25 1 5.47529 7.20899 1.00108 24
26 1 7.97365 9.30008 4.60042 22
27 1 7.83503 32.1626 4.72957 21
28 1 2.96056 6.38325 9.76504 23
29 1 10.8004 7.52813 7.42956 21
30 1 31.5189 15.5577 2.57959 21
31 1 2.40326 6.19553 -0.436667 20
32 1 2.58639 17.5192 9.80398 20
33 1 10.7552 18.6976 14.1862 21
34 1 2.84828 20.3704 21.0338 21
35 1 5.61012 9.88144 9.47173 25
36 1 6.08684 4.08722 16.3013 26
37 1 5.42117 16.0091 16.335 22
38 1 3.12742 6.08979 12.8908 24
39 1 2.60753 20.4302 14.2431 22
40 1 8.08974 20.6802 17.5673 22
41 1 5.25777 15.4633 2.81341 24
42 1 2.93524 20.3542 4.27102 20
43 1 5.04824 21.4705 0.0172711 20
44 1 32.0373 12.2846 0.939578 24
45 1 29.102 8.54792 4.77392 22
46 1 5.59175 15.4572 66.0223 24
47 1 3.10239 14.3439 11.0469 23
48 1 7.75897 14.5426 4.41102 23
49 1 31.9508 18.5486 4.30479 22
50 1 5.53791 18.6684 14.2517 22
51 1 10.8202 18.2985 17.6175 22
52 1 7.9009 17.5112 -0.402398 23
53 1 13.8875 29.5344 16.3831 23
54 1 8.04277 17.0119 3.04178 23
55 1 13.4044 23.3932 19.2965 22
56 1 3.12156 14.2054 4.11 23
57 1 5.45679 7.32306 21.4539 22
58 1 3.10098 17.4784 12.8893 23
59 1 10.8062 30.5731 4.99404 22
60 1 32.1061 12.8601 24.3811 24
61 1 5.28647 1.26339 64.434 22
62 1 13.1246 5.95948 -0.141012 21
63 1 31.3812 9.45376 6.46173 18
64 1 7.66069 6.35309 2.62613 20
65 1 7.93703 31.8217 1.07473 23
66 1 10.8281 4.29742 -0.121425 24
67 1 8.18634 9.15234 1.11942 23
68 1 5.49512 15.6768 9.42266 23
69 1 5.42334 9.68019 3.09838 24
70 1 15.6914 6.78816 14.7296 22
71 1 10.6902 1.60342 8.07177 23
72 1 2.96366 0.226371 16.0856 24
73 1 7.99805 3.39466 1.41161 23
74 1 13.6398 6.38787 9.66551 22
75 1 11.0066 15.9686 2.78629 22
76 1 5.60592 29.7962 1.13544 24
77 1 29.4394 9.13724 17.9198 25
78 1 2.84698 8.75822 21.0906 23
79 1 2.89235 11.5631 19.7542 23
80 1 10.9275 1.50392 14.5922 20
81 1 8.17258 14.1568 1.0914 23
82 1 10.9567 7.16682 4.34353 21
83 1 10.4843 15.4386 12.7292 21
84 1 5.38096 9.55617 6.46662 22
85 1 5.04513 9.9116 66.2136 24
86 1 5.46717 12.5636 1.30237 24
87 1 10.9837 10.3883 2.79809 24
88 1 10.9381 4.29205 6.18823 23
89 1 7.89029 0.14505 65.9595 20
90 1 10.682 1.0337 0.708241 21
91 1 8.07862 14.5808 7.77781 23
92 1 8.37861 11.8181 2.86135 24
93 1 11.0825 10.0694 19.441 25
94 1 18.805 6.26413 12.952 23
95 1 5.44814 29.7883 14.7415 22
96 1 8.22595 11.8189 6.18063 24
97 1 10.5839 12.7822 7.88348 23
98 1 8.00709 23.6214 16.1185 22
99 1 3.44027 3.03877 14.8717 26
100 1 32.0867 7.35629 1.26591 21
101 1 8.35095 11.7592 66.1423 23
102 1 13.7283 14.4953 1.05162 23
103 1 2.55005 14.4478 1.03447 20
104 1 11.1642 13.4685 1.31449 23
105 1 10.7833 21.2836 6.23545 23
106 1 18.9066 17.814 9.34521 24
107 1 13.4424 32.3738 0.818118 23
108 1 13.7102 6.04991 6.18469 21
109 1 29.5365 3.49504 14.6051 23
110 1 18.7161 14.5795 21.1488 23
111 1 10.8678 24.3236 17.7115 22
112 1 8.4353 23.7033 19.5103 23
113 1 10.8272 12.8489 11.3022 24
114 1 29.4803 14.7794 11.563 23
115 1 11.0533 9.77926 9.35681 23
116 1 13.6378 18.0829 16.3491 23
117 1 26.8165 21.3528 16.4834 21
118 1 13.3876 8.85372 4.26596 22
119 1 5.76226 18.2766 11.364 24
120 1 21.9526 12.7275 11.2262 24
121 1 11.0608 1.73791 64.289 23
122 1 13.4144 3.23157 64.6127 22
123 1 13.4151 6.26925 62.6535 22
124 1 23.8482 0.294237 3.0417 23
125 1 13.5336 3.51002 7.87015 21
126 1 13.581 9.24672 1.01003 23
127 1 5.67106 15.5908 13.0887 24
128 1 24.2369 0.130987 9.78838 22
129 1 10.9914 3.84134 2.74829 22
130 1 21.1202 16.0468 2.68286 22
131 1 3.16445 6.30829 3.08077 24
132 1 16.492 32.9432 6.20759 25
133 1 18.8076 2.86475 11.4164 21
134 1 18.9176 3.55286 1.05356 22
135 1 21.6673 27.2246 22.6 23
136 1 21.4395 4.04656 6.54532 22
137 1 5.9452 1.44477 11.2286 23
138 1 21.5688 33.1685 15.9855 20
139 1 18.9444 8.81585 14.6876 23
140 1 8.15274 29.0013 6.03456 25
141 1 7.99073 6.16423 -0.33319 25
142 1 15.9023 9.9019 65.8684 21
143 1 18.4925 12.0979 66.0219 21
144 1 21.56 6.87826 17.9719 24
145 1 13.4536 11.8811 2.65373 23
146 1 13.5234 11.8702 16.488 23
147 1 21.3561 7.12063 1.13713 22
148 1 26.7826 13.115 11.547 23
149 1 10.7751 10.0569 66.0847 23
150 1 18.4547 11.7906 5.89442 22
151 1 13.4526 6.00087 12.6431 21
152 1 2.72243 8.70716 4.68554 24
153 1 13.4894 9.19262 17.973 23
154 1 10.7195 24.2119 11.4039 25
155 1 21.4354 10.3092 23.059 23
156 1 26.8872 1.18392 11.4178 25
157 1 21.6355 1.53046 4.71247 22
158 1 3.20333 32.5889 17.7854 24
159 1 13.2709 9.04642 14.8321 23
160 1 21.6128 1.41606 7.87756 23
161 1 13.5004 11.9946 65.9327 24
162 1 16.307 15.7812 65.6296 25
163 1 10.9031 10.0115 5.81912 22
164 1 18.9951 9.09102 1.11457 22
165 1 10.3031 18.522 4.49716 19
166 1 31.8773 18.0342 7.89861 22
167 1 21.2194 12.7622 7.8696 20
168 1 21.0303 13.0941 0.813276 22
169 1 8.13659 14.4256 10.9698 22
170 1 10.3834 18.5563 11.1207 20
171 1 21.5473 18.2891 4.37066 23
172 1 19.2685 6.23812 3.19545 21
173 1 16.0985 9.95889 6.07261 20
174 1 21.2676 13.0109 4.75292 22
175 1 23.7276 23.6469 19.5351 20
176 1 8.08912 17.6606 9.5865 24
177 1 5.70414 9.56879 16.3077 23
178 1 8.35824 0.935822 22.7199 21
179 1 2.99183 11.5925 16.4383 21
180 1 10.4382 15.9775 5.87832 21
181 2 31.498 3.2965 4.67134 22
182 2 31.1174 32.1708 64.5727 23
183 2 4.92801 6.27239 6.44718 24
184 2 5.48877 6.27493 2.58423 22
185 2 2.49902 1.14317 1.18181 22
186 2 5.35013 0.115014 3.24305 20
187 2 2.2997 27.3318 65.9938 24
188 2 10.1336 31.6625 10.8999 22
189 2 31.1224 11.4965 16.0351 22
190 2 12.6467 21.3618 6.14585 23
191 2 15.7574 5.90492 6.43012 22
192 2 26.6419 20.4128 17.979 22
193 2 2.53536 3.94109 16.0966 21
194 2 7.564 1.2399 18.1611 24
195 2 28.761 30.2236 17.7935 22
196 2 8.0196 32.9197 19.67 19
197 2 18.2778 30.0872 14.1823 24
198 2 10.4385 31.7035 7.56416 19
199 2 7.93259 6.76145 14.2681 21
200 2 29.0917 18.8752 14.5407 19
201 2 2.20852 9.56504 -0.324027 22
202 2 2.30591 4.00466 6.27217 23
203 2 2.33745 6.59966 64.3486 20
204 2 4.44434 6.02314 -0.111417 24
205 2 4.95902 11.6706 2.84461 21
206 2 4.66797 9.24542 1.32291 24
207 2 4.95893 17.4746 12.8992 23
208 2 2.03963 1.15837 8.11394 24
209 2 10.2619 9.10578 14.4968 24
210 2 28.6918 30.0968 7.68278 23
211 2 28.6482 15.269 5.9968 21
212 2 7.64876 18.6401 17.789 23
213 2 15.6152 3.35017 14.4208 23
214 2 31.2307 5.85491 6.25098 23
215 2 21.1066 32.1779 21.1372 19
216 2 5.94835 3.24533 14.5361 22
217 2 2.32088 15.2739 9.5384 22
218 2 28.8314 7.30113 20.9859 21
219 2 23.7035 1.31239 11.4608 20
220 2 15.4179 3.55437 17.8442 22
221 2 28.5659 10.1325 9.37007 23
222 2 4.80146 11.9863 -0.269419 23
223 2 4.46207 17.5022 10.1404 21
224 2 8.09314 15.5851 12.7609 22
225 2 7.36953 4.6668 12.7808 22
226 2 4.8945 17.0319 6.27899 22
227 2 31.4609 11.627 65.9747 21
228 2 28.4894 3.96416 9.68654 25
229 2 10.546 20.5573 8.09559 19
230 2 7.3225 10.2376 6.01114 23
231 2 31.2123 14.5802 0.817018 23
232 2 2.37307 7.42127 1.51964 24
233 2 7.48483 7.25384 7.7188 25
234 2 31.2759 14.3859 17.9648 23
235 2 30.9921 6.30234 19.8063 23
236 2 7.73027 10.0132 9.23321 22
237 2 4.76487 29.2655 16.7739 24
238 2 10.3045 29.2746 13.3297 22
239 2 2.41198 15.5663 16.274 22
240 2 5.01222 20.199 11.2358 22
241 2 7.73791 7.41656 1.0611 21
242 2 4.68499 0.194983 6.46011 22
243 2 12.9452 30.2635 7.85577 21
244 2 10.3472 9.34369 1.3502 21
245 2 28.7066 4.12805 3.24575 23
246 2 7.85655 0.901571 1.09334 20
247 2 9.8207 28.9576 9.65374 25
248 2 18.1032 6.98096 11.2512 21
249 2 28.8422 6.88404 8.20198 23
250 2 10.4286 0.97557 2.76806 19
251 2 17.9901 4.31075 22.831 21
252 2 23.3557 3.71131 16.113 23
253 2 15.5998 9.16171 4.1864 22
254 2 1.81181 26.718 6.16377 24
255 2 10.2064 -0.06772 12.3263 21
256 2 13.5529 7.50995 8.22177 20
257 2 12.8074 4.3814 19.4661 22
258 2 7.89667 30.096 21.4072 22
259 2 9.94539 25.8336 4.9459 23
260 2 17.9843 30.2304 4.53371 22
261 2 2.15355 9.89401 3.07102 23
262 2 2.33867 12.5324 1.34291 21
263 2 15.2701 15.1211 7.67088 23
264 2 17.9538 1.31758 4.61272 25
265 2 4.70315 8.63475 4.42054 24
266 2 15.6807 0.736769 -0.10827 23
267 2 5.29399 14.2684 14.2435 22
268 2 13.1784 12.8138 1.02625 23
269 2 7.03794 15.1874 2.73778 20
270 2 20.894 11.8989 9.6915 22
271 2 7.89812 7.62855 10.9148 22
272 2 29.0634 1.58391 10.9908 21
273 2 31.4744 9.37423 1.46979 19
274 2 10.0012 31.5926 0.717856 22
275 2 13.1454 4.56951 9.49798 20
276 2 30.8549 14.8341 4.12127 23
277 2 15.6958 17.7912 19.536 22
278 2 20.6175 3.29168 14.5155 24
279 2 15.7258 12.1499 5.69593 22
280 2 9.9822 14.6311 7.45143 23
281 2 7.45321 15.8274 -0.360146 23
282 2 10.1353 15.0993 1.24503 23
283 2 5.07911 14.2775 4.69041 22
284 2 10.3588 14.9161 64.5469 23
285 2 2.1018 12.7679 8.00742 22
286 2 23.5277 10.3716 2.32351 20
287 2 17.8242 18.0733 7.59069 22
288 2 18.1772 13.0418 4.28168 21
289 2 7.59234 12.8455 7.68232 25
290 2 10.1442 9.25093 4.25168 25
291 2 2.3595 15.7027 22.9776 23
292 2 12.4633 12.671 4.19389 23
293 2 23.6297 18.081 11.4673 19
294 2 10.2469 17.5156 12.7153 23
295 2 20.5969 5.95475 22.7829 22
296 2 15.3842 -0.0866971 12.6986 22
297 2 15.6993 0.449682 6.35653 23
298 2 20.794 0.20702 22.9787 24
299 2 31.2931 3.28189 8.53996 23
300 2 15.1326 8.86642 27.9778 24
301 2 9.96921 5.95663 63.2813 22
302 2 13.1624 3.483 2.79537 24
303 2 10.9768 6.30733 2.49935 18
304 2 31.3204 8.53348 4.92139 20
305 2 20.7211 11.8066 66.023 23
306 2 26.5302 0.291177 6.48207 21
307 2 12.8417 4.04407 -0.373393 24
308 2 23.3569 1.48019 64.8842 23
309 2 17.977 1.30555 64.6162 23
310 2 12.7597 1.39556 8.10382 25
311 2 7.55955 4.11147 19.371 22
312 2 13.2568 33.2765 6.39095 22
313 2 31.5059 6.2453 2.68091 23
314 2 23.4921 32.7587 16.0583 20
315 2 31.2845 0.170492 9.60745 25
316 2 15.1724 11.7657 9.36507 25
317 2 18.1052 1.3563 21.3539 22
318 2 31.7422 14.3934 14.683 20
319 2 18.1128 1.1108 7.85236 23
320 2 14.9985 28.9977 3.27977 18
321 2 12.6203 10.1977 65.9898 23
322 2 12.9554 1.43617 64.7436 21
323 2 15.671 14.9081 1.00806 22
324 2 21.0663 8.96904 64.4025 24
325 2 7.45069 18.9024 14.4736 25
326 2 12.6938 7.51275 0.696173 22
327 2 20.7813 6.11914 9.91483 21
328 2 15.7082 2.97866 8.04805 21
329 2 10.0699 12.5063 2.47558 22
330 2 16.1025 9.19337 8.01324 20
331 2 4.50604 20.0873 7.99712 21
332 2 18.4231 15.457 5.80192 22
333 2 9.80456 17.7842 6.23527 24
334 2 12.7857 10.2096 2.5482 24
335 2 15.4559 0.655487 16.0246 25
336 2 28.8353 18.394 21.1241 21
337 2 5.15624 0.670976 9.88096 21
338 2 29.335 12.7762 11.4033 20
339 2 15.5524 14.6977 11.1398 23
340 2 20.8829 26.1213 8.35871 22
341 2 26.1693 3.22782 7.67563 22
342 2 15.5151 14.992 17.9956 22
343 2 20.726 14.6725 7.84911 22
344 2 15.6799 11.9771 66.12 25
345 2 21.2025 0.253805 9.51562 23
346 2 15.567 19.9744 8.40082 21
347 2 10.2944 26.4712 64.1363 21
348 2 15.0605 0.640365 2.72039 22
349 2 5.22012 23.19 22.6796 20
350 2 31.2324 12.0016 6.03201 21
351 2 20.5277 11.9222 6.25549 22
352 2 25.7647 14.7284 3.9104 22
353 2 18.1999 32.9791 15.675 23
354 2 20.8321 8.95529 1.17253 24
355 2 10.0204 14.8371 4.17891 22
356 2 15.4317 12.013 16.5334 24
357 2 15.1994 17.4084 9.35614 22
358 2 20.8142 3.29064 4.99252 21
359 2 17.9578 1.36639 10.828 24
360 2 22.9373 18.3931 14.2096 22
361 1 26.5998 33.0088 5.96731 21
362 1 29.6019 3.29901 11.1205 25
363 1 10.9771 12.8947 24.5875 24
364 1 5.92126 6.69765 14.5205 21
365 1 10.7453 27.5111 19.592 21
366 1 32.3577 32.8202 26.4027 21
367 1 18.3756 0.226091 9.36297 21
368 1 5.85379 32.8067 29.7733 21
369 1 31.4864 1.42936 14.2495 23
370 1 13.699 3.29823 1.0212 23
371 1 5.23981 7.21918 30.7922 21
372 1 5.59855 4.25783 19.3322 24
373 1 5.274 4.57059 22.612 21
374 1 21.5239 33.0327 26.4339 25
375 1 2.58814 6.2619 22.921 21
376 1 10.8687 4.60126 23.085 25
377 1 31.5625 4.41658 29.9333 23
378 1 8.29137 17.5351 22.7812 22
379 1 7.83854 3.46171 31.583 21
380 1 3.34518 0.339368 29.749 24
381 1 8.17073 11.8667 16.2253 25
382 1 16.468 6.84683 24.5612 23
383 1 13.4666 14.7603 14.4385 24
384 1 31.7637 7.19381 24.696 22
385 1 31.753 1.31891 17.6553 22
386 1 5.04424 4.13601 26.131 21
387 1 16.2322 21.8136 19.8825 22
388 1 8.2259 12.0611 12.9635 24
389 1 18.5536 6.05574 19.6263 24
390 1 13.8655 12.4269 19.6751 24
391 1 5.72992 9.94849 19.7868 25
392 1 5.66699 1.60688 23.9901 21
393 1 32.2414 4.4231 26.3919 22
394 1 7.57775 20.6606 28.1963 19
395 1 2.61862 8.93658 30.9842 20
396 1 31.6606 12.6296 21.0147 22
397 1 3.06071 29.3174 26.2548 24
398 1 29.5835 9.46431 31.2065 24
399 1 5.24268 7.0606 27.571 20
400 1 31.7512 12.6025 31.0123 22
401 1 3.23855 14.9618 28.1031 23
402 1 13.617 14.8933 11.2632 23
403 1 7.82611 20.4806 11.6796 23
404 1 8.05098 9.02921 17.6819 22
405 1 13.1213 12.0912 9.49465 20
406 1 10.6388 24.0557 4.7806 23
407 1 5.38791 13.0969 17.8605 25
408 1 5.75296 1.25653 28.006 21
409 1 16.4748 9.98865 23.1436 24
410 1 16.2823 10.305 19.6107 22
411 1 26.6969 13.1159 27.6772 23
412 1 2.68139 14.7363 24.6247 22
413 1 28.9741 14.9773 24.5439 21
414 1 32.2123 21.6512 22.7955 23
415 1 3.13238 17.7152 29.4259 25
416 1 10.7016 10.1544 16.096 23
417 1 5.68772 19.0937 27.2028 20
418 1 5.40459 10.1973 26.3641 22
419 1 29.2366 12.0812 26.0934 24
420 1 2.58877 14.9754 31.0886 21
421 1 3.27528 32.1884 25.0649 22
422 1 16.1673 4.28388 12.8064 22
423 1 8.05939 26.4765 7.72176 23
424 1 24.7802 26.3837 21.0397 22
425 1 21.4911 7.22712 11.2635 24
426 1 8.13672 32.2154 11.1184 21
427 1 13.8436 11.9417 12.9829 24
428 1 21.6612 27.4822 19.5474 22
429 1 10.6222 6.99814 14.3816 21
430 1 13.3216 0.338793 9.49628 24
431 1 11.0868 33.2336 23.0054 23
432 1 18.7377 8.67047 18.053 22
433 1 21.2906 21.3455 19.1942 22
434 1 7.99121 3.31316 21.0586 22
435 1 10.7928 30.2065 31.2094 23
436 1 24.1858 0.275735 27.0131 22
437 1 10.8543 29.9432 24.4296 22
438 1 10.9002 4.17462 29.6883 22
439 1 16.0877 9.67645 25.9229 21
440 1 13.4831 3.29165 24.3344 25
441 1 26.6756 4.10376 9.62908 23
442 1 8.27272 6.25856 12.2951 21
443 1 13.963 9.12064 8.15447 21
444 1 11.1714 10.2261 26.3574 24
445 1 26.7323 32.9152 9.38023 23
446 1 10.7938 15.6734 22.8534 19
447 1 2.51652 9.05794 27.6523 21
448 1 28.7232 17.4894 16.0397 21
449 1 31.8777 6.78396 21.5418 22
450 1 13.0948 15.2472 21.562 20
451 1 13.4972 6.35352 22.7628 23
452 1 13.5899 9.27457 21.4419 25
453 1 13.4393 3.04312 27.8295 24
454 1 15.9529 15.2596 29.5798 20
455 1 10.5859 3.85703 26.24 22
456 1 16.0677 1.15771 24.5034 21
457 1 8.5398 3.16105 18.1473 23
458 1 31.9817 7.24433 27.7748 24
459 1 8.58136 5.91485 29.87 20
460 1 10.6409 4.24986 33.0507 22
461 1 8.0951 11.9746 22.8093 21
462 1 5.71092 7.18952 11.4604 23
463 1 14.018 17.6281 30.2848 19
464 1 18.9191 6.01148 9.72479 23
465 1 7.98254 8.64396 27.6641 21
466 1 16.3175 24.5329 17.9081 26
467 1 15.9482 12.8517 27.884 22
468 1 13.4116 5.90125 26.1259 25
469 1 5.96641 10.125 22.9041 23
470 1 3.00334 5.76327 16.0064 22
471 1 29.0422 9.08247 24.8814 20
472 1 13.5599 25.823 24.2254 22
473 1 13.6912 6.08364 19.6155 22
474 1 8.38514 17.4371 18.9786 22
475 1 15.7792 12.9851 31.1926 20
476 1 8.23155 3.75267 28.1156 20
477 1 5.36663 9.94846 29.0976 22
478 1 8.18618 17.7862 26.1454 25
479 1 10.8722 19.013 27.6713 21
480 1 11.1179 15.7637 26.437 23
481 1 19.0495 29.3066 9.38566 24
482 1 15.8913 4.01205 9.63865 23
483 1 10.8145 1.21735 18.1364 23
484 1 10.6917 32.5309 12.7157 22
485 1 8.17476 29.3463 19.6985 22
486 1 21.4477 10.2632 13.2275 23
487 1 13.5568 11.9954 23.1607 23
488 1 18.7139 0.41856 12.6516 21
489 1 13.7831 3.04021 4.49324 23
490 1 18.6654 3.00954 24.498 22
491 1 8.54096 32.2007 14.7889 24
492 1 18.6935 0.421836 26.1928 22
493 1 21.0691 1.47282 24.7492 20
494 1 10.9681 7.25069 31.5655 24
495 1 23.6328 5.95398 26.2013 19
496 1 21.2875 1.55982 28.523 21
497 1 15.9659 33.0786 29.3798 22
498 1 5.42814 4.41984 29.5396 22
499 1 13.2043 3.50583 31.3894 19
500 1 15.7273 1.6733 30.9888 22
501 1 5.95209 33.0018 16.2016 23
502 1 21.4332 10.1221 16.438 22
503 1 8.1375 6.32413 19.4819 23
504 1 8.57482 32.0015 21.3806 23
505 1 32.0614 6.97436 11.5062 24
506 1 13.3052 14.716 27.9707 21
507 1 10.9565 4.44139 19.9446 23
508 1 3.39915 5.58153 19.8673 22
509 1 8.22901 32.0703 31.1511 25
510 1 18.7082 11.9025 23.0847 20
511 1 16.2632 13.1741 17.9911 22
512 1 10.7707 30.1447 17.8715 20
513 1 18.5124 31.9966 27.7723 22
514 1 21.1999 10.349 26.2099 23
515 1 16.1312 29.9471 28.0484 23
516 1 15.4929 7.02644 27.7438 20
517 1 10.6813 10.1667 32.7721 21
518 1 13.4211 8.96737 31.1867 22
519 1 8.33276 12.1608 29.6476 23
520 1 12.8567 6.18813 29.5427 19
521 1 3.01273 3.22252 11.5609 23
522 1 18.6845 11.71 12.8716 24
523 1 16.2534 13.1567 24.8496 22
524 1 3.27105 14.7352 21.4216 23
525 1 21.3306 33.0137 19.4673 22
526 1 2.74482 23.5677 10.1024 22
527 1 13.0645 17.3703 12.9033 20
528 1 10.4463 4.10006 12.5412 18
529 1 13.6997 20.9879 14.6732 22
530 1 2.59521 6.24258 25.9757 23
531 1 5.68297 15.7406 29.5428 23
532 1 16.0112 15.8692 26.3816 21
533 1 13.9071 11.7664 26.5652 24
534 1 18.6864 14.9999 27.5342 24
535 1 31.6574 10.2484 25.9105 24
536 1 15.8149 4.45237 29.3067 22
537 1 10.809 18.7738 31.026 22
538 1 18.8118 26.1962 11.1039 23
539 1 10.4678 12.9458 30.9229 19
540 1 5.63521 12.7349 31.3659 22
541 2 29.0079 21.1778 6.20723 20
542 2 10.2097 28.9037 26.566 23
543 2 15.6438 26.3992 21.2904 22
544 2 7.92809 18.6459 11.147 20
545 2 7.99659 33.2617 26.3164 21
546 2 4.85479 3.4662 11.2587 25
547 2 31.5987 32.4024 21.1021 22
548 2 12.8146 1.43719 11.2016 23
549 2 28.9192 1.49844 31.6078 20
550 2 5.01917 31.937 14.6456 25
551 2 4.63495 6.14719 29.1181 24
552 2 2.49208 15.7308 19.9586 20
553 2 7.7542 33.0981 32.9485 25
554 2 7.48773 30.0708 28.1952 24
555 2 7.24657 24.6257 21.2024 25
556 2 30.986 22.7268 25.2644 20
557 2 9.83011 0.465351 29.8473 22
558 2 31.0121 32.2825 27.9851 22
559 2 5.09502 6.25387 32.994 22
560 2 30.8259 6.27902 32.6788 24
561 2 2.78675 15.7636 26.3451 20
562 2 25.9404 8.78446 7.98595 22
563 2 14.8481 6.35433 16.4995 23
564 2 31.5805 23.6272 16.6932 21
565 2 5.26954 3.2374 27.9195 20
566 2 18.5148 9.89135 23.1297 24
567 2 28.5324 4.33178 26.2704 21
568 2 4.87916 17.7101 18.9743 23
569 2 12.9041 12.5943 24.7889 22
570 2 15.3142 5.69963 26.0287 22
571 2 7.55368 27.1492 29.7391 23
572 2 10.4284 32.0939 24.3831 22
573 2 13.1435 24.6727 21.0543 21
574 2 10.4676 6.46684 29.5834 23
575 2 2.03531 7.15899 34.7992 23
576 2 7.83096 12.6772 24.3848 23
577 2 7.57941 10.4206 29.7297 21
578 2 4.92281 11.5782 9.49074 24
579 2 32.4592 3.31043 24.6839 20
580 2 2.11132 9.96821 22.6169 26
581 2 7.59641 27.3146 22.8516 23
582 2 28.613 7.32444 14.8687 23
583 2 12.6265 21.4355 19.7943 23
584 2 15.3628 26.5436 11.4567 22
585 2 4.51992 6.54198 23.0476 24
586 2 7.93434 9.8543 15.9359 22
587 2 10.0598 26.1293 14.5724 24
588 2 2.45587 12.4256 14.7053 23
589 2 20.8107 17.9631 26.4427 23
590 2 12.6916 16.5443 23.1837 20
591 2 31.3144 3.55145 18.1542 23
592 2 31.1149 9.0559 24.3529 24
593 2 28.7319 10.167 16.1895 21
594 2 26.4343 6.1549 29.5443 23
595 2 31.5024 0.389792 26.3581 19
596 2 31.3269 12.1298 26.1715 21
597 2 30.9225 9.13733 20.9669 24
598 2 5.13843 9.16472 21.377 21
599 2 4.85024 6.06904 25.9431 24
600 2 10.0487 11.7303 22.8034 21
601 2 10.6757 6.28596 6.07661 19
602 2 10.0936 26.4376 8.17116 23
603 2 7.49855 17.9786 20.9171 23
604 2 7.57439 6.6999 27.6907 21
605 2 21.1512 31.8933 10.9127 22
606 2 5.30413 0.594631 12.8571 21
607 2 31.2732 0.0927633 15.7992 22
608 2 18.167 27.0848 15.9617 23
609 2 10.8689 32.2925 17.9124 21
610 2 12.866 1.53014 14.5547 20
611 2 2.7144 33.1979 19.3986 20
612 2 10.478 9.09281 31.2536 22
613 2 23.1474 13.2792 24.3365 25
614 2 7.32614 27.4089 26.3353 25
615 2 15.2993 3.36924 31.2457 22
616 2 12.7524 9.6194 29.6008 24
617 2 10.094 32.2881 31.0249 23
618 2 20.7551 23.4695 12.7795 23
619 2 18.1048 4.52355 12.7001 22
620 2 12.6965 1.16882 27.4454 24
621 2 10.5334 11.9614 19.3207 22
622 2 7.83459 30.2193 4.68736 24
623 2 13.0928 10.0248 13.0729 21
624 2 5.36476 3.41353 24.4802 20
625 2 2.53653 32.8012 26.732 22
626 2 12.9947 4.44283 22.8561 23
627 2 12.6382 7.00497 14.3343 22
628 2 10.0616 20.3213 21.3601 21
629 2 12.7854 3.99212 25.7688 22
630 2 13.3324 30.3263 18.0664 22
631 2 18.0253 24.3213 24.5402 22
632 2 10.2441 23.4988 29.8533 23
633 2 15.2731 23.4341 16.4822 22
634 2 9.63529 5.89973 32.4122 22
635 2 18.1195 32.9931 26.0789 23
636 2 12.455 33.3857 29.4865 23
637 2 5.35042 15.0516 27.6722 20
638 2 10.4683 31.8994 21.6507 22
639 2 4.493 3.86469 34.7562 20
640 2 10.2117 12.1411 29.2097 21
641 2 4.67121 32.0492 8.36566 23
642 2 18.3293 9.47388 16.3015 21
643 2 15.9513 9.35073 21.3978 22
644 2 5.05915 14.5805 11.351 22
645 2 4.8819 11.9422 16.4838 24
646 2 31.2449 32.2433 17.953 26
647 2 10.1564 9.25447 17.8582 26
648 2 9.98126 17.6773 15.9069 25
649 2 31.3037 20.7125 21.3116 21
650 2 13.1135 7.20675 24.6665 25
651 2 15.637 14.9538 34.8429 22
652 2 12.7996 6.85383 27.7542 21
653 2 4.6114 14.7988 31.1017 23
654 2 17.7184 4.1723 19.2496 22
655 2 4.85377 20.4223 31.3081 23
656 2 10.0428 23.2894 26.296 24
657 2 2.62184 21.4594 26.1085 20
658 2 25.8299 9.06468 27.5784 19
659 2 2.48237 9.64432 32.7068 19
660 2 12.8306 12.8675 31.301 23
661 2 12.6856 32.7002 12.7255 23
662 2 18.3412 16.0372 22.4601 24
663 2 12.8934 7.41831 11.2556 22
664 2 12.7537 10.1658 22.7202 25
665 2 12.7134 1.21885 24.2407 23
666 2 20.7104 8.87811 21.0762 23
667 2 9.80463 0.137683 23.5586 21
668 2 20.6697 32.0889 17.6403 22
669 2 2.01725 4.37593 29.5031 23
670 2 26.1298 3.13235 28.0909 23
671 2 25.5616 11.6635 20.0346 23
672 2 12.9168 12.6417 14.6486 23
673 2 21.2264 9.11103 14.7886 20
674 2 20.5989 8.99613 27.6862 22
675 2 15.5209 0.165315 26.0656 23
676 2 20.7245 6.36917 29.756 23
677 2 17.6742 1.40356 30.9058 23
678 2 15.3325 6.80941 32.9189 22
679 2 18.1363 29.8459 27.8368 22
680 2 12.6147 4.34224 29.6855 24
681 2 2.13168 1.26076 21.5266 25
682 2 18.2385 0.866846 17.8686 21
683 2 15.4419 8.98645 15.0709 22
684 2 17.8754 7.19622 15.1188 23
685 2 10.1582 3.40131 31.1382 22
686 2 18.1147 27.1224 2.7776 21
687 2 9.97765 3.70381 7.7897 22
688 2 23.7419 12.5064 11.3027 22
689 2 2.62 18.4402 14.5769 20
690 2 17.9165 1.12054 24.3153 23
691 2 10.1055 2.83936 24.3463 20
692 2 7.36851 12.6793 14.4515 24
693 2 31.5736 5.79556 13.1184 22
694 2 13.2255 10.0567 26.2027 23
695 2 1.91418 17.8115 24.4865 24
696 2 20.9769 15.2991 27.9683 22
697 2 18.2461 32.6601 29.5793 23
698 2 28.7261 10.2811 23.281 22
699 2 12.7331 4.24889 33.3425 21
700 2 20.6616 9.16438 31.2169 24
701 2 20.6233 12.2977 26.3042 24
702 2 7.52069 32.7697 2.77002 22
703 2 4.8549 3.03513 8.12068 23
704 2 23.6599 9.78269 9.41984 20
705 2 2.69352 24.5566 21.3659 22
706 2 15.8654 11.8714 26.1795 22
707 2 10.4395 9.42238 21.1809 22
708 2 15.442 2.89777 25.2517 22
709 2 15.6322 20.9303 18.0853 25
710 2 17.936 13.1562 27.8296 23
711 2 18.2476 33.3217 19.4671 22
712 2 7.20672 15.7228 16.1765 25
713 2 21.0825 23.5148 16.0816 24
714 2 10.2772 14.8173 21.2429 24
715 2 7.91147 9.83611 22.8878 23
716 2 12.7106 18.9516 24.4555 22
717 2 12.5953 21.6088 22.7217 25
718 2 12.7649 10.1752 32.7645 19
719 2 12.629 12.691 28.1969 25
720 2 18.403 7.08206 24.7887 21
721 1 2.9373 17.1461 66.1887 22
722 1 13.3987 17.5308 6.2489 24
723 1 4.73757 18.1554 1.29998 21
724 1 5.00299 18.1297 7.69338 22
725 1 5.2223 24.4757 5.05484 22
726 1 16.4392 29.7809 8.15442 23
727 1 28.6604 14.8589 4.20575 21
728 1 31.8963 15.7122 5.93074 23
729 1 11.5928 29.8896 14.7414 23
730 1 32.3004 18.5575 1.03073 23
731 1 5.59748 1.50573 14.5462 20
732 1 8.25191 17.6343 12.8596 22
733 1 2.96237 17.2858 6.23552 23
734 1 13.1654 23.2122 9.60175 21
735 1 2.88197 14.4827 7.87579 24
736 1 10.6558 24.4209 8.32293 23
737 1 10.612 21.5464 3.21924 22
738 1 29.7532 29.7326 22.9089 23
739 1 2.58322 9.17262 8.01985 22
740 1 7.64297 23.4999 22.7083 22
741 1 29.2402 20.546 0.954681 22
742 1 29.1051 23.5254 2.85604 21
743 1 28.969 26.3059 1.16927 22
744 1 8.14454 23.0733 65.8812 22
745 1 5.12332 21.6045 3.31315 18
746 1 31.6859 21.5236 13.183 21
747 1 31.7235 4.01446 6.60551 22
748 1 29.4703 20.2406 4.74124 24
749 1 29.6122 31.9961 1.38458 24
750 1 5.79439 26.9327 12.6236 23
751 1 31.75 32.8608 16.2748 21
752 1 2.72776 20.8514 7.34026 21
753 1 10.7111 21.5185 22.8609 23
754 1 32.0114 15.5966 13.1251 23
755 1 2.53375 28.7678 6.20254 21
756 1 2.94039 20.1565 24.2421 22
757 1 5.50608 21.8471 16.1954 23
758 1 5.47916 24.7642 27.9136 21
759 1 21.1552 15.6754 16.3885 21
760 1 5.50685 24.4373 17.7587 24
761 1 32.1338 32.8817 -0.329515 24
762 1 3.25822 31.9659 64.9835 21
763 1 8.40376 0.230533 3.02091 22
764 1 2.75267 26.2201 1.21485 23
765 1 7.98338 29.7442 2.99752 22
766 1 5.40028 30.1168 7.87638 23
767 1 32.1985 29.8554 1.04008 21
768 1 29.0334 29.4006 5.97598 21
769 1 26.2053 24.5319 1.45857 21
770 1 2.72281 26.2905 11.3179 22
771 1 2.76048 31.772 4.62901 22
772 1 7.96098 32.0083 7.81792 22
773 1 13.5255 23.0202 6.32114 22
774 1 8.23592 26.3025 4.56202 22
775 1 24.4226 29.1211 9.10681 22
776 1 10.6256 29.8277 11.1287 21
777 1 5.45071 1.60651 21.0714 22
778 1 8.03166 0.625945 9.56786 21
779 1 32.2112 4.11184 20.0978 23
780 1 31.8881 32.9297 22.8634 22
781 1 10.3999 19.067 1.17009 21
782 1 15.7192 27.6743 65.9385 19
783 1 13.2705 20.018 4.73368 22
784 1 10.6853 16.0757 66.2084 21
785 1 16.0254 18.1614 7.73353 21
786 1 5.3347 24.1198 11.017 21
787 1 16.303 13.2648 4.18065 23
788 1 13.753 32.1976 7.96254 24
789 1 11.0085 12.6846 14.6177 23
790 1 7.84967 20.1466 8.23233 21
791 1 7.89171 17.611 6.36149 21
792 1 7.86665 23.4297 9.81704 23
793 1 5.2109 27.3164 9.71501 24
794 1 13.6641 25.9131 7.7809 22
795 1 21.0034 16.265 19.6405 23
796 1 13.3841 3.39636 11.3648 22
797 1 23.9475 17.5273 5.99634 21
798 1 31.7233 4.68017 3.32408 23
799 1 16.1837 27.1753 19.182 22
800 1 7.86534 9.42799 10.9498 22
801 1 11.0471 27.4932 -0.334921 21
802 1 13.2474 26.2013 1.32589 20
803 1 2.46523 26.1748 4.30091 21
804 1 10.4519 27.6785 3.18261 21
805 1 10.6298 33.264 6.26289 23
806 1 10.5709 29.8357 7.84895 21
807 1 18.2581 29.1982 65.9168 20
808 1 7.89042 20.3914 4.68427 22
809 1 10.5796 24.1757 24.2553 20
810 1 13.0545 29.4336 66.0055 21
811 1 13.2187 32.2156 11.046 24
812 1 13.1767 29.4793 3.24112 19
813 1 29.1717 14.6166 18.0733 21
814 1 7.96268 23.4666 3.21107 20
815 1 7.80538 29.1875 9.44444 21
816 1 8.56023 32.2682 18.1752 24
817 1 16.2494 0.869217 8.12163 24
818 1 6.08487 33.0206 26.3543 23
819 1 31.5106 24.4285 14.7345 22
820 1 8.57666 28.9854 22.9994 24
821 1 10.621 33.2474 3.06259 20
822 1 10.8301 27.2432 9.66603 22
823 1 13.3125 0.778698 2.73945 22
824 1 18.6219 0.357302 2.82649 22
825 1 11.0108 30.0958 1.30806 21
826 1 10.8685 1.36354 4.84969 23
827 1 3.00003 29.0393 66.107 24
828 1 18.7443 26.6019 1.11408 23
829 1 13.546 26.4841 14.6354 25
830 1 8.18139 26.3017 10.9126 23
831 1 8.16799 26.0661 1.4403 22
832 1 5.62198 1.31048 8.23398 21
833 1 8.31972 23.6687 6.65077 21
834 1 8.07802 0.403708 6.16272 21
835 1 3.09877 3.58203 8.0315 22
836 1 13.5381 29.2021 19.8995 22
837 1 32.0473 32.9402 6.24783 25
838 1 5.75417 26.9091 -0.265425 24
839 1 10.83 27.1709 6.45685 24
840 1 2.74476 32.1944 21.2436 23
841 1 10.9916 21.4389 -0.339852 25
842 1 15.8606 18.8181 64.6165 22
843 1 18.6211 17.7077 2.87766 23
844 1 13.2733 23.5032 -0.433119 23
845 1 16.2842 15.8208 2.78566 24
846 1 16.2032 18.9916 4.40029 23
847 1 16.0317 21.6061 9.61441 22
848 1 21.0951 21.4428 9.07813 20
849 1 31.9894 21.1804 3.22671 21
850 1 13.5063 26.1131 11.279 21
851 1 15.736 15.7916 16.4426 21
852 1 18.7633 9.21838 11.1752 23
853 1 19.0916 20.1784 10.9868 22
854 1 18.9557 32.1103 4.90557 25
855 1 11.0342 9.96764 23.2573 24
856 1 16.0822 7.3826 18.1962 25
857 1 16.2633 30.3838 14.5073 22
858 1 19.1356 20.7184 4.67626 23
859 1 16.2223 21.8147 2.9398 23
860 1 13.548 0.477168 22.6959 24
861 1 5.40901 18.4055 4.71543 22
862 1 13.2915 26.3902 4.61771 22
863 1 15.234 30.2339 1.24809 16
864 1 18.6719 20.5483 1.71964 22
865 1 15.6516 13.0529 7.62298 20
866 1 21.2294 27.3849 2.83242 25
867 1 18.6821 17.5797 6.0737 23
868 1 26.9287 21.5006 5.93583 24
869 1 13.4642 17.6925 -0.307403 20
870 1 16.2695 3.92113 6.40191 23
871 1 13.5529 17.3991 2.8837 23
872 1 23.9533 26.6707 1.27216 21
873 1 13.4772 11.472 6.159 22
874 1 19.0405 23.7403 6.3239 22
875 1 13.652 32.268 24.275 23
876 1 16.3526 30.2276 25.0529 23
877 1 21.6963 21.5881 2.93211 27
878 1 10.7998 1.04525 10.9468 22
879 1 13.4425 0.8437 16.2968 21
880 1 21.5256 21.5395 5.82965 23
881 1 15.8668 30.3856 64.428 19
882 1 18.9853 32.0449 63.9821 20
883 1 21.7083 1.45291 10.8077 23
884 1 5.38206 32.7449 6.4647 22
885 1 18.9647 23.431 -0.0805335 23
886 1 18.6202 11.9777 19.7786 23
887 1 15.9999 1.18544 4.31787 22
888 1 15.9836 15.5856 9.54593 22
889 1 13.3438 26.0366 64.348 21
890 1 29.3276 3.58764 1.61269 22
891 1 18.6965 3.0511 4.70993 22
892 1 18.9465 14.4825 14.6296 26
893 1 21.4903 1.45165 1.44918 24
894 1 5.66241 1.18167 17.8507 25
895 1 16.2201 1.19535 14.215 22
896 1 8.64721 29.5399 16.0471 22
897 1 16.275 24.4305 5.07285 24
898 1 21.071 7.02866 21.1269 19
899 1 8.09618 23.5144 12.8701 25
900 1 7.53467 20.5208 1.39598 22
901 2 4.95265 20.5089 4.81216 21
902 2 4.72368 14.5277 1.26407 25
903 2 4.92174 26.4897 7.74919 22
904 2 2.53374 18.1802 1.2815 23
905 2 9.80375 23.2959 2.78137 22
906 2 4.77666 17.5783 3.15483 21
907 2 29.1774 15.8421 13.1594 20
908 2 7.48237 4.51703 6.42162 22
909 2 7.3155 21.8754 13.1963 23
910 2 31.6079 5.93133 9.46429 21
911 2 4.83942 20.7333 1.70598 21