ITEM: TIMESTEP
42000
ITEM: NUMBER OF ATOMS
500
ITEM: BOX BOUNDS pp pp pp
-30.0 30.0
-30.0 30.0
-30.0 30.0
ITEM: ATOMS id type x y z Coordination
1 1 2.60583 -14.9567 2.61803 12
2 1 -4.31169 -6.55492 2.2529 15
3 1 -7.97491 -12.6096 -13.8501 16
4 1 -13.4158 -9.99007 -9.07533 16
5 1 -1.88453 -9.23258 -15.0016 16
6 1 4.26372 -17.555 -8.21128 8
7 1 3.31082 -11.6881 2.0101 10
8 1 -3.26057 -7.12365 -0.502051 20
9 1 -16.4969 -12.8209 -6.79632 7
10 1 3.89329 -13.4016 -6.63124 19
11 1 0.0807057 -13.3411 2.74557 14
12 1 -11.2696 -20.0953 -2.53709 11
13 1 -6.15563 -11.8466 -15.3337 14
14 1 0.258253 -11.5211 -14.6756 14
15 1 1.77 -20.7704 0.0457178 9
16 1 -5.21266 -5.9257 -2.81267 21
17 1 -1.64569 -0.991042 -4.03476 16
18 1 -3.2144 -12.615 -15.6555 12
19 1 -7.06776 -7.4714 4.47328 11
20 1 -3.47232 -4.60594 -5.73935 25
21 1 1.83823 -5.92309 -12.814 11
22 1 2.37259 -6.8235 -1.77899 13
23 1 -6.55122 -3.90489 -13.7515 14
24 1 -12.1099 -9.05668 -16.3323 8
25 1 -7.14285 -3.34796 -10.7845 15
26 1 -14.0802 -10.9776 -3.99852 17
27 1 -4.92062 -2.31726 -3.91499 20
28 1 -10.4801 -8.67319 -13.8084 20
29 1 -7.71087 -18.794 -1.2016 19
30 1 -2.81531 -21.6248 -7.95286 11
31 1 -13.4766 -12.764 -11.4195 15
32 1 -6.03906 -20.8932 -2.65876 15
33 1 2.99586 -11.1408 -11.979 14
34 1 -7.72707 -16.1071 -11.9391 16
35 1 -2.82511 -6.89346 -16.8413 11
36 1 -8.46021 -4.34083 -7.79236 19
37 1 -11.3739 -8.22042 -4.72256 20
38 1 -4.73841 -4.21122 -0.48113 20
39 1 -2.77852 -11.8097 3.13778 14
40 1 -3.54717 -19.1439 -9.69823 17
41 1 3.2589 -13.8942 -10.288 16
42 1 -0.178297 -16.4732 2.28997 13
43 1 -2.26505 -17.5212 -0.729228 18
44 1 2.51944 -5.26053 -4.98873 17
45 1 -12.6725 -17.4699 -5.09578 18
46 1 -7.54573 -22.4578 -4.87111 11
47 1 -10.9546 -12.7711 1.51985 12
48 1 -13.5727 -12.0054 -1.03205 13
49 1 -3.91288 -22.0991 -4.54116 12
50 1 -14.2773 -15.392 -2.70162 13
51 1 -7.10885 -2.98062 -1.41335 11
52 1 -9.89413 -5.72963 3.87585 9
53 1 -6.46659 -6.90476 -0.606413 20
54 1 -11.6432 -14.5895 -10.317 21
55 1 -12.3302 -6.27233 -13.7064 12
56 1 -10.552 -14.4229 -13.5254 16
57 1 6.45079 -13.9752 -1.96684 13
58 1 -5.63258 -16.1901 3.81817 9
59 1 -10.1216 -11.2783 -15.6568 13
60 1 -14.6114 -15.4603 -8.73613 14
61 1 -8.71745 -18.484 -3.89413 18
62 1 -12.1211 -6.42605 0.341199 12
63 1 -5.91235 -20.6763 -10.0432 12
64 1 -3.7907 -1.0869 -6.98067 13
65 1 -13.583 -12.947 -8.23226 18
66 1 -13.6662 -6.98456 -6.77776 12
67 1 -9.0954 -19.0879 -9.93073 15
68 1 -0.597043 -21.043 -1.78552 11
69 1 -12.6065 -6.29099 -3.10391 14
70 1 -7.2919 -13.8856 2.13377 15
71 1 -13.443 -9.11563 -1.16795 13
72 1 -11.1384 -17.6557 -11.6752 12
73 1 -7.78615 -17.8179 1.72441 15
74 1 -0.471317 -18.3216 -8.76873 14
75 1 -1.95578 -12.9946 -12.8814 16
76 1 4.86461 -19.3764 1.70575 5
77 1 -10.6871 -22.0651 -5.25373 10
78 1 -12.4462 -14.4246 -0.639944 11
79 1 3.47724 -10.277 -1.18672 14
80 1 3.20226 -6.19685 -9.7827 15
81 1 -3.10011 -7.1334 -12.763 19
82 1 -3.47327 -4.08164 -15.0824 11
83 1 -0.795594 -2.51716 -6.83005 16
84 1 0.662717 -7.94866 -15.8233 12
85 1 -3.94856 -20.4143 -1.04554 15
86 1 -0.200022 -17.1308 -5.94829 16
87 1 -5.71253 -20.8045 -7.10307 16
88 1 -13.0488 -9.54303 -12.0841 15
89 1 5.68646 -9.60274 -6.43082 15
90 1 -9.83574 -3.22007 -13.0007 10
91 1 6.11556 -14.4373 -8.40386 9
92 1 -9.51785 -15.658 0.995233 15
93 1 -8.70379 -21.6837 -7.81807 12
94 1 -4.9238 -17.6044 -11.5587 14
95 1 0.662916 -18.083 -2.34296 17
96 1 -14.9234 -18.7561 -8.14925 9
97 1 -5.41262 -12.8845 5.00465 8
98 1 -5.71378 -10.1471 3.4787 14
99 1 0.524793 -14.5216 -12.7064 14
100 1 -2.12722 -2.03114 -9.58481 12
101 1 0.364209 -11.5392 -10.9012 20
102 1 -8.11742 -8.74536 -15.5275 13
103 1 -14.9815 -8.06627 -3.77547 10
104 1 -2.89795 -15.1657 2.01899 16
105 1 -13.0766 -12.1036 -14.6898 10
106 1 2.84178 -17.3751 -4.92337 13
107 1 -0.889839 -6.8117 1.55085 15
108 1 -4.16599 -18.5817 2.47198 11
109 1 2.86336 -8.78373 -7.0472 22
110 1 2.62547 -8.34702 1.14278 10
111 1 -2.54682 -3.85462 0.962141 13
112 1 -8.48431 -6.24815 -13.0644 21
113 1 -9.63242 -18.9001 -6.98543 20
114 1 -10.1612 -4.27779 -1.64459 14
115 1 2.27036 -3.69003 -7.45558 13
116 1 -3.73583 -9.30419 1.21831 19
117 1 -5.15228 -14.4459 -13.1926 17
118 1 1.1339 -1.45012 -5.27424 10
119 1 1.82847 -16.6912 -10.8718 11
120 1 -1.64635 -19.7762 1.42719 9
121 1 -10.8271 -9.94691 0.292242 18
122 1 5.73308 -10.7901 -3.34214 13
123 1 -1.67833 -4.50921 -12.0306 16
124 1 2.12513 -8.61238 -10.485 18
125 1 -8.11883 -10.8543 1.95248 17
126 1 -6.49878 -15.3129 -0.519743 18
127 1 -8.35496 -3.01513 -4.20621 13
128 1 0.833232 -3.55886 -2.851 15
129 1 -11.4057 -17.2165 -2.27743 16
130 1 6.56265 -13.007 -4.95516 12
131 1 -9.191 -22.1962 -1.87705 10
132 1 4.11032 -8.13976 -4.05879 15
133 1 2.2073 -16.0732 -7.4519 18
134 1 -3.14657 -1.06955 -1.4003 10
135 1 -14.0479 -14.4231 -5.53952 18
136 1 -0.686244 -5.66584 -14.7078 16
137 1 -10.8989 -11.6263 -12.499 20
138 1 -1.57985 -16.789 -11.3237 14
139 1 -11.9748 -17.6435 -8.53861 21
140 1 3.66494 -16.0843 -2.12965 15
141 1 -15.7343 -17.1304 -5.72368 11
142 1 -5.65884 -6.60038 -15.3175 15
143 1 -11.6364 -20.5615 -9.52635 12
144 1 5.45198 -15.9999 1.03114 11
145 1 -4.75967 -9.45409 -16.5191 12
146 1 -8.76348 -4.6028 0.849996 14
147 1 -9.15083 -7.39277 1.24899 20
148 1 0.706325 -4.30311 0.180042 10
149 1 4.71618 -6.35287 -7.1635 15
150 1 -6.41637 -20.1854 1.09719 10
151 1 0.126293 -9.01148 -12.9412 20
152 1 0.257999 -4.46286 -9.98147 16
153 1 -0.00521396 -1.04127 -1.79224 10
154 1 -3.92078 -2.34455 -12.1799 11
155 1 5.29768 -8.58367 -9.84148 11
156 1 5.54713 -15.5563 -4.80045 13
157 1 -6.60527 -4.95448 2.63087 13
158 1 -6.44463 -2.68008 -7.00225 15
159 1 -9.95 -19.4015 0.465269 11
160 1 -1.17445 -20.3561 -5.30772 12
161 1 -13.1003 -20.0247 -6.46801 13
162 1 -12.8421 -6.9467 -9.92922 15
163 2 -14.0162 -13.8422 -1.51726 11
164 2 2.7097 -8.1905 -0.732015 12
165 2 -10.907 -12.8162 -10.8868 22
166 2 -8.29163 -19.7627 0.837784 10
167 2 -1.17615 -11.6612 2.10676 17
168 2 -4.32911 -4.74504 -3.94146 20
169 2 2.77082 -16.851 -9.23945 12
170 2 -7.43215 -5.95901 -11.4446 21
171 2 -4.48629 -11.2918 -16.1375 10
172 2 -8.58456 -4.75593 3.03885 10
173 2 6.08759 -14.4636 -0.0151552 10
174 2 3.313 -5.06341 -6.70438 14
175 2 -6.56363 -4.96598 -1.34954 21
176 2 -1.71752 0.0865668 -1.92229 7
177 2 -2.21371 -2.92216 -11.4591 13
178 2 0.0997474 -9.55071 -15.0782 12
179 2 -13.9652 -11.5323 -9.76545 16
180 2 -6.18913 -18.7705 2.36008 10
181 2 -15.2353 -9.51214 -4.78766 10
182 2 5.67637 -16.4541 -8.54235 9
183 2 -10.5019 -21.8112 -3.24047 10
184 2 -3.36253 -2.95167 -0.560876 14
185 2 -4.55481 -11.5997 4.01765 10
186 2 -9.12648 -15.1161 -3.69665 19
187 2 -5.78444 -21.9812 -5.52184 14
188 2 -12.4766 -21.7666 -5.91512 10
189 2 -8.88503 -22.2908 -6.07502 11
190 2 -9.81313 -20.4153 -8.50898 14
191 2 -7.57649 -6.12754 1.13492 18
192 2 2.74137 -7.10405 -3.82817 16
193 2 -1.10865 -7.04292 -16.1561 13
194 2 2.01496 -9.20945 -5.24557 20
195 2 -3.88233 -2.12498 -8.64031 16
196 2 -5.44825 -7.66512 -3.37821 22
197 2 -7.81711 -3.67381 -6.01015 16
198 2 -2.10839 -4.66853 -13.8658 14
199 2 -9.13076 -7.51017 4.26749 11
200 2 -3.32971 -13.1895 1.65708 18
201 2 -1.47368 -15.3451 -12.5175 14
202 2 -5.66711 -18.7434 -10.2533 17
203 2 -13.1639 -19.7557 -8.44241 11
204 2 3.52096 -17.2304 -6.69054 13
205 2 0.766333 -5.98674 -1.31885 17
206 2 -6.22828 -8.41315 -15.4623 16
207 2 -3.44077 -17.0385 -12.7423 12
208 2 -8.836 -15.1463 -13.3709 14
209 2 -2.52618 -17.4288 -9.91227 16
210 2 2.05026 -12.3526 -10.3971 18
211 2 -3.30127 -14.1244 -14.1956 13
212 2 -11.6327 -18.4951 -6.87289 18
213 2 -5.05472 -7.26663 -12.758 19
214 2 -9.80329 -20.4467 -1.08459 13
215 2 -9.86682 -3.52956 -3.45168 11
216 2 -11.9271 -18.4324 -3.49903 15
217 2 -15.4228 -16.9608 -7.77517 12
218 2 1.05114 -19.8909 -1.5339 11
219 2 -3.09604 -1.74679 -3.1274 18
220 2 -7.5759 -9.93117 3.68946 13
221 2 -13.9916 -7.56985 -2.17641 14
222 2 -11.6671 -15.7471 -11.9306 13
223 2 4.7404 -7.1365 -8.86971 13
224 2 -15.1163 -15.8234 -4.45578 11
225 2 -7.96256 -2.99741 -12.4681 12
226 2 -1.99363 -8.594 -13.1976 18
227 2 -16.1803 -10.9634 -7.30092 10
228 2 0.389023 -16.9844 -7.88591 19
229 2 -4.34677 -20.8658 -8.67768 12
230 2 -8.83862 -3.3485 -0.659006 12
231 2 -3.99282 -21.3552 -2.88321 14
232 2 -1.07697 -4.95458 0.788566 14
233 2 -6.69172 -3.14746 -8.84828 15
234 2 -6.70858 -16.8463 -1.70361 17
235 2 -3.97869 -5.71537 -15.9215 14
236 2 -1.07521 -14.8674 2.91892 14
237 2 4.62258 -8.09581 -5.91698 16
238 2 -0.0146346 -2.95209 -1.07905 15
239 2 -12.2734 -15.6411 -2.18594 15
240 2 -4.72485 -4.72367 1.52768 14
241 2 4.12406 -14.779 1.70218 12
242 2 -3.08614 -8.77719 -16.1528 14
243 2 -2.53439 -7.49393 1.96554 13
244 2 3.21587 -14.4545 -1.25666 20
245 2 -13.0366 -11.8595 -12.8612 13
246 2 -12.4696 -6.42069 -11.8749 14
247 2 -12.6273 -8.70769 -10.5578 16
248 2 -9.5371 -17.8872 -2.10581 18
249 2 2.10826 -3.43509 -4.51907 12
250 2 -10.2126 -12.8009 -14.2571 14
251 2 6.1821 -10.921 -5.17176 14
252 2 -12.6052 -6.14628 -8.34409 13
253 2 3.12698 -19.3254 0.646046 8
254 2 -7.65489 -16.0237 2.32796 12
255 2 -11.1581 -18.7707 -10.1788 13
256 2 -5.17568 -3.61504 -11.1782 16
257 2 -11.6127 -5.52487 -1.54637 13
258 2 -3.98868 -16.5808 2.73164 12
259 2 -13.2672 -7.20544 -4.86655 14
260 2 -5.71655 -6.5658 3.35921 11
261 2 -11.1863 -9.81134 -12.6231 22
262 2 1.41313 -2.18019 -6.96014 12
263 2 -8.285 -7.19681 -1.2158 24
264 2 -9.79941 -9.34004 -15.8276 11
265 2 -7.02177 -21.2272 -8.6978 13
266 2 2.3836 -10.1209 1.72602 9
267 2 1.65061 -8.7653 -8.58556 24
268 2 -1.17934 -20.2338 -0.238729 13
269 2 -9.73454 -9.34672 1.75599 17
270 2 -13.6752 -14.1033 -9.90267 14
271 2 -13.2408 -10.4741 -2.217 16
272 2 -9.6929 -17.505 0.884672 12
273 2 -8.34847 -18.0263 -8.46191 21
274 2 -7.11951 -5.72098 -14.3251 15
275 2 0.461889 -5.1093 -11.8194 12
276 2 0.349865 -12.8076 -13.2887 14
277 2 1.90808 -13.0514 2.5569 14
278 2 3.92344 -11.7166 0.0470013 16
279 2 -4.67662 -2.95974 -14.0053 11
280 2 -7.93759 -11.2868 -15.1137 17
281 2 -4.74309 -1.89438 -5.63327 17
282 2 -10.8995 -3.86839 -11.4821 12
283 2 -10.4963 -5.62607 -13.3294 13
284 2 -11.9362 -8.16108 -0.00158139 15
285 2 2.04148 -14.8934 -11.5989 11
286 2 -12.2209 -7.97786 -14.7226 9
287 2 -1.51332 -12.1811 -14.9698 12
288 2 1.48172 -15.8544 1.35073 15
289 2 -9.09587 -12.5243 1.58353 16
290 2 -11.8074 -11.8464 0.119423 16
291 2 5.49381 -17.7051 1.60736 6
292 2 -13.6923 -12.3056 -5.38484 18
293 2 -6.43633 -13.295 0.67638 20
294 2 -6.00275 -19.9984 -0.787643 15
295 2 5.27421 -12.6003 -2.7752 18
296 2 -2.70671 -21.5499 -6.06221 13
297 2 -6.63099 -2.58023 -3.39714 15
298 2 -12.1797 -11.1791 -15.9798 10
299 2 -11.3048 -14.5992 0.75483 11
300 2 -0.0182646 -18.3127 1.65456 12
301 2 1.65919 -10.4502 -13.0766 11
302 2 4.35769 -9.52765 -2.8343 16
303 2 6.92195 -14.5515 -3.90194 9
304 2 4.71775 -13.2669 -9.26733 14
305 2 -1.82245 -18.1004 -5.32734 19
306 2 2.8801 -6.58488 -11.4882 12
307 2 -14.3435 -18.4372 -5.96544 12
308 2 -15.021 -14.0237 -7.20144 15
309 2 -1.21281 -20.2069 -3.55772 14
310 2 1.64463 -5.33561 -8.86227 18
311 2 3.43689 -11.4552 -7.59647 20
312 2 -1.06224 -3.52354 -8.73867 19
313 2 5.77468 -14.2736 -6.35423 14
314 2 -1.88801 -19.9264 -8.51675 12
315 2 -7.97355 -14.6206 -10.4961 21
316 2 0.402346 -1.43455 -3.55865 12
317 2 -1.95588 -1.2148 -5.83488 14
318 2 -7.32237 -22.1265 -2.91923 12
319 2 -2.71463 -12.9616 -0.735584 19
320 2 3.77004 -9.88591 -10.5969 17
321 2 -0.145847 -9.30907 -10.8958 19
322 2 -10.2162 -7.05816 -10.1058 23
323 2 -8.91977 -17.4006 -11.1987 12
324 2 1.06552 -17.4921 -4.52559 18
325 1 -10.783 -11.9435 -8.96977 22
326 1 -11.406 -14.7326 -7.03237 23
327 1 -6.44866 -17.94 -8.56533 21
328 1 -5.2197 -11.6446 -12.1048 19
329 1 -8.94165 -13.0312 -10.7452 21
330 1 -5.89839 -14.7288 -10.3348 17
331 1 -9.05277 -15.8804 -9.2524 23
332 1 -5.60592 -12.2024 -9.00976 20
333 1 -8.40834 -13.3925 -7.46566 18
334 1 -5.69261 -15.2736 -7.04408 21
335 2 -12.0213 -15.7201 -8.79773 18
336 2 -11.6972 -13.0123 -7.51863 22
337 2 -5.13562 -18.815 -6.92431 22
338 2 -5.84287 -12.534 -13.5293 17
339 2 -8.37437 -8.3265 -13.5561 18
340 2 -5.69446 -15.9366 -11.9788 15
341 2 -8.63111 -11.7525 -12.3452 23
342 2 -5.21432 -12.983 -10.7829 18
343 2 -8.84871 -12.3151 -8.92423 21
344 2 -5.54232 -16.2758 -8.64518 23
345 2 -9.64239 -15.2806 -7.2869 21
346 2 -6.53981 -13.4935 -7.73049 22
347 1 -11.8707 -11.8652 -5.60538 19
348 1 -11.1053 -14.6553 -3.45629 20
349 1 -10.9521 -10.9097 -3.01966 21
350 1 -6.09758 -17.9558 -5.15618 21
351 1 -5.34396 -17.9403 -2.45969 19
352 1 -8.82861 -15.9024 -5.56281 20
353 1 -6.10309 -12.7277 -5.4954 19
354 1 -8.71112 -13.1005 -3.70505 21
355 1 -5.95963 -15.01 -3.89357 20
356 1 -8.61933 -16.1126 -2.18832 22
357 1 -5.77041 -12.4255 -2.34478 22
358 1 -8.25948 -12.9498 -0.371286 19
359 1 -3.35943 -14.5587 -1.29663 20
360 1 -4.78253 -12.2875 0.730233 24
361 2 -12.3167 -15.5658 -5.02237 22
362 2 -11.4216 -12.7919 -3.69195 22
363 2 -9.19502 -17.7937 -5.48203 16
364 2 -6.87566 -18.8369 -3.44335 19
365 2 -8.79268 -12.2834 -5.6002 24
366 2 -6.79208 -16.1469 -5.32613 25
367 2 -6.69381 -13.1701 -3.77332 20
368 2 -0.731889 -17.0278 -1.53918 20
369 2 -8.39472 -14.9428 -0.43735 19
370 2 -5.47709 -14.2549 -1.74372 21
371 2 -6.12282 -14.3886 4.12691 9
372 2 -3.06675 -15.747 0.0355991 18
373 2 -10.7238 -9.73088 -1.70489 20
374 1 -10.5635 -9.03991 -10.2401 21
375 1 -10.6422 -6.18367 -7.92107 17
376 1 -15.3026 -9.54165 -6.62921 11
377 1 -6.18256 -8.67774 -13.3896 20
378 1 -8.11171 -9.81023 -11.9928 22
379 1 -10.4969 -5.71356 -11.3421 18
380 1 -8.25762 -7.05029 -9.90257 20
381 1 -5.26184 -9.19128 -10.3308 22
382 1 -8.17321 -10.1337 -8.72225 23
383 1 -5.37093 -6.32843 -8.14661 22
384 1 -7.81496 -7.2967 -6.37281 22
385 1 -6.01297 -9.38709 -7.19961 20
386 1 -11.6285 -3.88959 -9.66834 10
387 1 -5.4744 -5.94545 -11.3707 19
388 2 -11.0998 -10.0524 -8.63124 21
389 2 -10.4212 -7.34698 -6.37679 18
390 2 -6.14409 -9.95968 -11.9778 20
391 2 -8.54178 -9.25907 -10.2936 22
392 2 -5.72263 -7.46506 -9.6436 22
393 2 -8.42414 -6.17201 -7.86072 20
394 2 -6.17298 -10.332 -8.85276 18
395 2 -8.12211 -9.38678 -6.88686 18
396 2 -5.80027 -7.06261 -6.46113 19
397 2 -3.618 -5.83869 -8.71272 20
398 2 -10.2889 -4.11263 -8.45682 13
399 1 -9.73102 -5.59243 -4.39081 19
400 1 -10.2527 -9.28842 -7.10332 19
401 1 -8.29835 -10.4244 -5.12148 21
402 1 -4.21908 -7.74281 -5.32074 20
403 1 -7.78894 -7.78867 -3.19805 19
404 1 -5.35238 -9.71115 -3.15174 20
405 1 -8.61681 -9.90202 -1.76858 20
406 1 -2.84019 -11.48 -1.8693 24
407 1 -10.2853 -7.44685 -1.62185 22
408 1 -5.88549 -9.60559 -0.380914 21
409 1 -9.34984 -9.22928 3.72419 10
410 1 -6.34495 -5.21487 -5.38811 20
411 1 -4.85065 -3.69562 -9.09536 19
412 2 -14.0201 -8.55166 -7.79413 12
413 2 -10.7901 -7.03563 -3.37581 19
414 2 -10.9372 -10.0251 -5.45662 17
415 2 -7.96455 -6.45613 -4.60037 20
416 2 -5.34574 -11.062 -5.82899 21
417 2 -7.58705 -9.60405 -3.58495 25
418 2 -3.67116 -9.7516 -4.12959 20
419 2 -10.4462 -5.70633 1.39559 14
420 2 -8.57482 -11.6775 -1.86677 22
421 2 -7.67277 -10.0306 0.181499 21
422 2 -3.5592 -5.3839 -1.4546 18
423 2 -4.66728 -10.8384 -1.72205 21
424 2 -5.09382 -4.51389 -7.12507 21
425 2 -2.185 -6.7764 -5.38216 22
426 2 -5.11162 -8.00572 0.243218 22
427 1 -3.34688 -18.3849 -6.4977 21
428 1 -2.54997 -15.8369 -13.9245 11
429 1 -2.07292 -12.7965 -9.53437 18
430 1 -0.60562 -15.2772 -7.83292 21
431 1 -3.35722 -16.1494 -8.85748 20
432 1 1.74165 -12.2404 -8.46218 21
433 1 -3.25987 -13.7079 -6.76698 21
434 1 3.26532 -12.6226 -2.95644 21
435 2 -3.51546 -16.2837 -6.93892 19
436 2 -1.7372 -11.639 -11.3288 21
437 2 -2.14212 -14.5022 -8.66299 16
438 2 2.18213 -14.0857 -7.53684 19
439 2 -3.66494 -11.9631 -8.68189 22
440 2 0.0111675 -17.4307 -10.8211 12
441 2 -4.64796 -14.3168 -5.3961 19
442 2 -0.101297 -15.2297 -5.9333 20
443 2 5.45369 -9.65007 -8.29237 12
444 1 -3.46701 -15.8785 -4.5583 21
445 1 1.14354 -14.0764 -5.10503 21
446 1 -0.516746 -15.2111 -2.41562 19
447 1 1.45559 -14.9826 -0.477726 19
448 1 -2.51788 -18.5982 -3.56843 21
449 1 0.194775 -10.237 -3.56066 19
450 1 -1.1823 -12.5559 0.34135 20
451 1 2.14822 -17.435 0.378411 17
452 2 -4.64377 -17.1378 -4.20606 17
453 2 -3.39293 -19.6976 0.90733 11
454 2 -2.21801 -12.4769 -5.67714 24
455 2 3.86006 -15.9494 -4.03671 16
456 2 2.11363 -16.9594 -1.55295 13
457 2 0.13077 -13.7214 -3.46963 17
458 2 -2.37682 -14.9324 -3.18901 21
459 2 -3.58628 -18.8804 -2.05863 18
460 2 0.206478 -13.5279 -0.529805 19
461 2 -5.23627 -10.5753 1.63734 15
462 2 3.12333 -12.6162 -4.88211 20
463 1 -2.19267 -9.70355 -11.5978 19
464 1 -2.68301 -7.29705 -9.50993 19
465 1 -0.132791 -9.57462 -9.00336 20
466 1 -3.09761 -10.0425 -8.55217 22
467 1 0.895851 -6.84293 -7.77472 21
468 1 -1.81811 -8.08209 -6.79522 22
469 1 -0.702229 -11.477 -6.81344 22
470 1 -1.98954 -5.0225 -8.18369 22
471 1 4.67109 -11.2621 -9.17741 15
472 2 -2.29117 -6.09283 -11.222 19
473 2 -3.42999 -8.88564 -10.3561 23
474 2 1.04111 -6.65994 -14.3893 11
475 2 -1.04043 -7.05803 -8.34781 19
476 2 -0.25008 -12.0487 -8.79235 19
477 2 -3.8782 -9.07695 -6.9988 21
478 2 0.905327 -6.07784 -6.05877 20
479 2 -1.81355 -4.05596 -5.72355 21
480 1 -3.4721 -10.853 -5.6089 19
481 1 1.17144 -7.46343 -4.86276 20
482 1 -2.15173 -8.50098 -3.48976 21
483 1 2.42336 -11.1506 -5.81165 19
484 1 -1.54828 -13.0839 -4.13576 19
485 1 -0.751487 -6.23831 -2.09662 19
486 1 -0.906156 -8.94083 -0.742389 20
487 1 0.269793 -12.2276 -1.99074 18
488 1 0.416405 -10.2649 1.84782 12
489 1 -0.864094 -5.64563 -4.85332 22
490 1 -3.10955 -3.82535 -2.62964 21
491 1 4.57709 -13.5061 0.3051 14
492 2 -1.25548 -9.67502 -7.47181 19
493 2 0.628914 -12.1134 -5.57155 20
494 2 -1.1204 -10.9729 -2.43625 19
495 2 -0.0662973 -8.23021 -3.70062 18
496 2 -2.02008 -7.78631 -1.90112 21
497 2 1.77119 -11.1004 -2.51606 19
498 2 -2.53378 -9.64702 -0.142798 20
499 2 0.0975953 -8.43017 1.46392 12
500 2 -0.710241 -4.64977 -3.21849 22
