ITEM: TIMESTEP
37000
ITEM: NUMBER OF ATOMS
500
ITEM: BOX BOUNDS pp pp pp
-30.0 30.0
-30.0 30.0
-30.0 30.0
ITEM: ATOMS id type x y z Coordination
1 1 -7.1825 1.89549 -8.58999 22
2 1 1.15816 0.13689 1.58532 20
3 1 -3.58294 6.73557 3.90412 16
4 1 4.5979 -2.53651 -0.13838 17
5 1 -11.9116 -0.340465 -2.79629 19
6 1 -7.90367 -1.16458 -12.2594 13
7 1 -3.27762 0.882722 4.57876 22
8 1 -1.51137 -4.98733 -7.91549 21
9 1 -13.8926 -1.88092 -4.41765 15
10 1 -2.72683 1.31626 -13.3195 9
11 1 -0.466024 -5.62692 -5.76169 19
12 1 3.01311 0.19927 -1.55695 18
13 1 -2.15799 4.58555 -9.46724 20
14 1 -3.18846 4.84423 1.64635 21
15 1 0.807767 5.55661 5.90412 8
16 1 -14.0703 -6.44528 -5.20712 10
17 1 -15.6008 -4.53911 -4.14439 10
18 1 6.05892 -0.544986 -1.72057 12
19 1 -1.28529 -0.188568 7.00466 12
20 1 -11.6321 -6.86386 -3.61814 12
21 1 -6.74594 -4.04966 -8.33242 21
22 1 0.508647 -1.24814 -9.23597 21
23 1 0.523692 -7.02763 -9.72252 11
24 1 4.87116 -4.30048 2.81953 13
25 1 -9.44057 5.37931 2.69114 17
26 1 -0.312489 0.774161 4.31714 16
27 1 -3.01545 7.73024 -4.26455 21
28 1 -5.74027 -2.41211 -11.039 17
29 1 -2.52928 5.36473 7.02191 11
30 1 2.6709 -5.02238 -1.42447 20
31 1 -6.06547 8.73542 -1.54644 17
32 1 -6.15633 5.84215 -0.971308 20
33 1 -0.922432 7.15241 -10.8463 10
34 1 3.41993 7.61159 -3.40196 16
35 1 -4.98906 10.6899 -8.63169 12
36 1 -10.725 3.5359 -8.72322 16
37 1 -4.70005 11.123 -3.41661 13
38 1 -3.01236 5.96398 -6.90743 20
39 1 -11.396 5.49868 -2.80847 16
40 1 0.427963 7.42146 3.61295 12
41 1 -6.65044 3.78591 -10.9004 15
42 1 -9.05171 -5.23405 1.69563 13
43 1 -9.2592 -2.40636 -6.42444 23
44 1 0.829335 -8.54327 -6.7758 14
45 1 -8.60884 -0.473729 1.78291 19
46 1 -10.6338 -0.429932 -5.02495 20
47 1 -3.50783 -10.4676 -1.98076 13
48 1 2.04177 1.6317 -9.63544 15
49 1 -11.9729 -4.86453 -9.25142 11
50 1 -0.347339 3.72352 -11.4455 10
51 1 -2.18055 -6.33408 -3.23836 20
52 1 -1.22238 10.7261 -3.88046 17
53 1 -13.7854 0.421794 -0.659332 13
54 1 -2.02763 8.23604 5.3883 11
55 1 -2.65234 -1.86573 4.84251 22
56 1 -1.8021 -8.89261 -8.4597 14
57 1 2.29027 -4.30616 -8.74445 16
58 1 -2.21925 -7.89193 -0.26035 22
59 1 -0.448271 -11.1362 -0.225068 11
60 1 0.327788 -2.30407 5.24726 16
61 1 -0.411714 -3.16389 2.34081 20
62 1 0.549473 7.61535 -5.13332 22
63 1 -8.15573 -6.79671 -2.5901 18
64 1 -6.33064 -9.68095 -3.4558 13
65 1 -5.47127 -6.66845 -3.56787 21
66 1 -0.0159149 5.45111 -7.26078 18
67 1 -0.502394 -5.33616 -0.338519 19
68 1 -5.62016 -2.13028 5.27471 17
69 1 -13.4852 -1.42364 1.90098 13
70 1 1.84631 -8.59168 -0.774379 11
71 1 -5.63422 -7.99586 -0.611945 16
72 1 -4.86506 4.05303 4.89748 21
73 1 -13.868 -6.06114 -1.5487 10
74 1 -2.89146 9.98922 -1.27482 14
75 1 -10.9295 6.43192 0.247053 12
76 1 -12.5638 5.11406 3.04362 8
77 1 -11.7899 -1.80465 -7.80257 21
78 1 -10.1736 0.307014 -7.63548 21
79 1 -10.9443 -1.5924 -11.1278 13
80 1 2.20617 -0.139431 5.24714 10
81 1 -3.88993 -2.97776 7.6587 10
82 1 -9.53275 1.66822 -11.1339 15
83 1 -13.6347 0.496815 -6.56628 15
84 1 -8.92143 -8.37749 -5.32505 13
85 1 -10.4894 0.841807 -0.224388 20
86 1 -6.51091 4.37373 2.36282 22
87 1 -6.81453 5.55276 -5.77645 22
88 1 -3.84455 -11.0223 -7.54063 11
89 1 -4.79819 8.10221 1.1982 16
90 1 1.17813 2.44517 -6.75918 21
91 1 -12.4421 0.895854 -9.7454 14
92 1 -12.0411 4.36384 -5.61442 16
93 1 -4.61728 -11.8537 -4.82308 11
94 1 2.41119 -5.04548 5.28241 11
95 1 -8.4661 5.92032 -8.28343 17
96 1 -8.5599 -1.63404 4.92896 14
97 1 -13.5294 1.83933 2.21391 11
98 1 -5.044 -7.69738 -8.63871 15
99 1 -5.30714 -0.648546 2.16954 22
100 1 -2.06437 -6.23908 2.48262 21
101 1 0.814826 -2.93844 -6.23888 23
102 1 2.01076 4.9133 -5.15956 23
103 1 -8.50271 3.74086 -0.601076 20
104 1 -2.65065 -1.15779 -8.49489 18
105 1 3.9364 -2.5034 5.83517 8
106 1 -9.05531 -6.49419 -7.96358 12
107 1 -12.9352 -4.31763 1.15018 12
108 1 2.79576 2.67141 2.34579 16
109 1 5.11632 5.22917 -5.18048 15
110 1 -3.73491 3.37638 -11.9443 15
111 1 -4.44694 9.2831 -11.3577 9
112 1 0.740187 10.5827 -6.94701 14
113 1 3.20106 4.64756 -8.004 13
114 1 1.59038 -9.38233 2.01564 10
115 1 4.36904 -5.72667 -3.75834 13
116 1 -1.00019 -9.56561 -3.3878 16
117 1 -11.9643 6.31086 -7.87721 9
118 1 5.28389 -0.180852 -4.75622 14
119 1 -5.26015 4.65403 -8.82236 22
120 1 -7.7112 8.85062 -7.7158 14
121 1 -3.82966 -5.53515 -6.05248 21
122 1 1.03409 -6.82643 -2.98212 19
123 1 -6.94601 -3.33766 2.62364 21
124 1 -1.41181 -10.968 -6.27607 13
125 1 -2.96821 -3.64313 -11.8387 13
126 1 0.694012 5.74724 -2.45882 19
127 1 3.89806 -6.58311 1.17208 13
128 1 4.56096 -2.80745 -6.96209 13
129 1 -5.57864 -0.912329 -8.46312 22
130 1 -3.76997 2.35501 7.75166 10
131 1 -6.86799 3.13057 8.08542 8
132 1 0.410177 -3.79989 -10.7343 14
133 1 -13.2051 2.24481 -3.73757 12
134 1 -1.49719 8.44885 -6.8112 22
135 1 3.39573 -1.91078 -10.3261 10
136 1 -6.09222 1.20244 -11.7533 19
137 1 -11.8985 3.38681 -0.396475 18
138 1 -1.71548 -4.98911 5.36883 15
139 1 5.07169 4.44799 0.857113 16
140 1 -13.9855 3.21718 -7.59804 8
141 1 5.97382 -5.27728 -0.466741 10
142 1 -3.15137 -8.24407 -5.65639 21
143 1 2.90085 5.46583 2.8272 12
144 1 -1.20121 -9.24697 2.43869 11
145 1 2.61536 -3.11355 1.82308 20
146 1 6.39187 5.25674 -1.93707 12
147 1 3.02252 -3.30059 -3.79382 21
148 1 3.31584 6.83933 -0.169772 16
149 1 -6.30453 -6.65898 -6.48298 18
150 1 1.33405 8.62203 1.43716 12
151 1 -9.28012 3.29942 -6.06174 22
152 1 -7.03338 6.88065 -10.6876 13
153 1 -6.46724 0.950768 4.21673 20
154 1 -10.468 -3.15159 -3.25033 21
155 1 0.246627 5.28265 0.961187 21
156 1 -8.16764 7.80844 0.994759 15
157 1 -9.97033 2.56551 -3.22426 21
158 1 3.73606 7.76741 -6.32071 14
159 1 -1.69911 3.98782 4.20109 20
160 1 -11.3429 -2.14107 -0.124966 23
161 1 -4.51473 -0.792591 -13.2778 10
162 1 -8.80198 1.76037 5.80048 14
163 1 2.80653 -0.567982 -7.87812 16
164 1 2.09252 10.4734 -4.51021 12
165 1 1.38693 -6.09525 2.46654 16
166 1 -6.74473 7.3758 3.85746 11
167 1 -2.69068 -6.60258 -10.4803 13
168 1 -0.213292 -7.5734 4.70954 11
169 1 -3.94758 2.06507 -8.70141 24
170 1 -10.9343 0.373657 3.26641 17
171 1 4.45981 0.80386 0.619401 18
172 1 -4.94292 7.62312 -8.30522 20
173 1 4.36321 2.30133 -6.79658 15
174 1 -5.60224 0.220997 6.78562 14
175 1 -4.57728 -5.05934 4.70315 15
176 1 -8.03718 5.28166 -3.55406 20
177 1 3.24502 10.0677 -1.32204 9
178 1 -10.5753 -5.27111 -0.648454 19
179 1 7.31897 2.56636 -0.468177 12
180 1 -8.42155 -4.84378 -5.11546 20
181 1 5.73921 2.59361 2.80844 9
182 1 4.1154 -8.32054 -6.09876 7
183 1 0.50298 10.6829 -1.26642 10
184 1 -14.3648 -3.17073 -7.0681 12
185 1 -4.56907 9.7177 -5.98763 16
186 1 -1.80132 9.96879 -9.30713 13
187 1 -8.52838 -1.29958 -9.6415 20
188 1 -1.25914 -1.15282 -11.7336 12
189 1 -6.83786 -10.0264 -6.67601 12
190 1 -3.89007 -9.63321 1.16954 10
191 1 6.30944 -3.29307 -3.42137 11
192 1 -14.783 -2.83484 -1.17688 12
193 1 -3.93877 6.56495 -11.0182 14
194 1 -11.3166 -4.85796 -6.32734 18
195 1 5.09099 -1.05456 3.31203 12
196 1 -9.12381 -4.0071 -10.383 14
197 1 -9.42447 7.92685 -2.18281 13
198 1 -10.2518 -3.08994 2.3951 17
199 1 3.40322 4.50575 -2.30182 18
200 1 5.93431 2.5104 -3.49251 16
201 1 -7.08687 -5.15143 -0.623594 22
202 1 -1.17704 1.40901 -9.1381 21
203 1 1.55564 7.82909 -8.36329 15
204 1 -1.93077 7.87394 1.51981 16
205 1 -2.11712 11.6922 -6.16295 12
206 1 3.36197 1.88484 -3.8569 20
207 1 -8.3331 2.29066 2.2139 21
208 1 2.46648 -5.52485 -5.66821 18
209 1 -4.22505 -3.97162 -8.97079 18
210 1 -8.25449 4.1562 4.87213 16
211 1 -7.06347 8.38674 -4.3801 15
212 1 -5.51165 -6.63267 1.83553 15
213 1 1.62671 -10.0345 -4.45574 10
214 1 -8.57796 -2.23577 -0.705312 22
215 1 -9.53801 6.83702 -5.69113 18
216 2 -14.0189 -4.41035 -0.385867 12
217 2 4.60559 5.38648 -0.911089 16
218 2 -2.24238 -2.03476 7.02439 14
219 2 -9.29928 -0.265123 -11.289 16
220 2 -13.6636 2.41717 -5.72735 10
221 2 -5.2786 -8.45397 1.3784 9
222 2 -0.783468 2.49308 3.60156 18
223 2 4.43627 -0.629808 -0.671945 16
224 2 -10.2118 4.41195 4.31338 14
225 2 -8.29003 7.00666 2.68675 14
226 2 1.1509 -7.06597 -5.78812 19
227 2 -7.75492 2.16381 -11.4611 14
228 2 -3.62938 -4.93543 -10.5413 14
229 2 -3.71193 -8.96133 -0.800116 19
230 2 -6.45557 7.38569 0.070183 17
231 2 5.17063 0.92318 2.42776 13
232 2 3.43602 8.29249 -1.33521 15
233 2 -1.80156 7.79919 3.38935 15
234 2 1.99186 10.7646 -2.58306 10
235 2 -0.239958 8.7046 -9.80785 11
236 2 1.66281 -2.52194 -10.2665 13
237 2 -13.4218 1.45653 -8.26638 13
238 2 -2.55418 -8.0323 1.67763 18
239 2 -11.6387 -0.398004 -0.862689 22
240 2 -3.16539 -8.01443 -9.32407 14
241 2 -4.82029 -10.8134 -3.43922 13
242 2 1.09175 -1.26259 -7.24941 25
243 2 0.178934 7.73007 5.55791 9
244 2 2.01503 -3.07328 5.61304 11
245 2 -7.1218 -5.14777 1.88139 17
246 2 -1.56551 -10.6586 -1.74357 12
247 2 -8.8126 -6.17075 -0.678378 16
248 2 -7.42436 -9.48691 -4.89536 14
249 2 -9.84151 -1.56816 -8.32595 20
250 2 -4.66048 10.0248 -2.01343 16
251 2 -1.10072 -0.632473 -9.65439 18
252 2 4.33191 6.92926 -4.73381 14
253 2 -0.720933 5.25938 -10.37 15
254 2 -8.60313 5.19146 -6.39887 21
255 2 7.69933 4.34393 -0.987232 8
256 2 -1.18399 10.6426 -1.80375 12
257 2 -11.4275 5.99381 2.10943 12
258 2 -3.0922 11.2998 -4.46128 14
259 2 -1.30101 10.3742 -7.47619 17
260 2 -6.57476 5.2443 4.29745 17
261 2 -2.3508 1.34906 6.91899 16
262 2 -1.01999 -3.25255 -11.7851 13
263 2 -5.3834 -11.0402 -6.28914 12
264 2 -3.90558 0.183137 -8.70579 20
265 2 -8.73904 -1.94817 -2.86147 21
266 2 1.21022 -5.23569 -9.79904 11
267 2 1.67353 4.7314 -1.19013 19
268 2 -5.96852 -0.58449 -11.7104 15
269 2 -2.73187 -0.589016 -12.7223 12
270 2 -4.89381 -5.66565 -7.8212 20
271 2 -2.43626 -3.31451 -8.4394 22
272 2 3.83922 -3.07735 -8.74239 12
273 2 -11.9825 -5.86817 -2.00883 14
274 2 -4.42627 -2.50698 -12.4246 13
275 2 -1.7425 4.62862 -7.42109 22
276 2 -6.46031 -8.52001 -7.89398 13
277 2 -4.56515 1.43819 -12.776 13
278 2 -7.85895 2.49045 4.07275 20
279 2 -9.63679 -7.30419 -3.79436 14
280 2 -9.83341 1.19492 1.74495 20
281 2 -7.69287 5.00672 -1.70305 21
282 2 -11.0061 -5.17811 1.20059 12
283 2 -15.1476 -3.03966 -3.14815 11
284 2 0.419294 -8.77659 3.3479 12
285 2 3.33844 -0.131062 -3.78574 17
286 2 -5.60913 -2.61353 -9.13186 20
287 2 -3.14163 6.60565 0.645689 21
288 2 0.142142 7.06097 1.74124 14
289 2 -5.63815 1.89444 7.73847 12
290 2 -10.0229 2.54509 -1.20952 21
291 2 -11.7619 -0.263498 -6.78322 19
292 2 5.55806 4.39552 -3.33487 15
293 2 -14.6804 -5.97924 -3.35936 10
294 2 -7.90541 7.67697 -9.2366 11
295 2 -5.4803 2.75467 -9.32873 20
296 2 -9.66814 6.38448 -3.6768 19
297 2 -0.193652 -5.14404 1.79727 24
298 2 -3.30912 5.72336 -4.74582 21
299 2 0.102399 -8.44527 -8.61623 14
300 2 -0.105635 -10.0921 -5.13036 14
301 2 -9.43225 7.51905 -0.27878 15
302 2 -2.07006 -6.18227 -0.878738 17
303 2 2.42928 -7.67894 1.22666 12
304 2 1.64882 5.77237 4.25157 12
305 2 -3.77655 10.941 -7.21751 13
306 2 -3.88108 -3.17175 4.0291 20
307 2 -5.35555 -6.11728 -0.117999 21
308 2 -4.83602 -0.553976 4.18849 20
309 2 -2.65878 7.74069 -11.762 11
310 2 4.41073 -0.800552 -6.43687 14
311 2 -1.85889 -0.196227 3.60982 25
312 2 -10.0999 -3.73621 -5.15456 20
313 2 2.18713 8.51279 -4.53691 19
314 2 1.66263 9.74001 0.101109 9
315 2 4.72918 -3.74908 -4.65105 15
316 2 -12.288 -6.17155 -5.2656 11
317 2 -3.16637 6.72431 5.74829 12
318 2 0.275493 -0.441029 5.74953 14
319 2 -1.95934 2.81056 -12.4089 11
320 2 4.61927 -2.25313 1.89013 14
321 2 -1.07785 4.79837 5.9993 13
322 2 2.98475 -5.00566 2.6309 15
323 2 -14.431 -1.40222 -6.3311 12
324 2 -8.41407 3.28462 -4.09915 21
325 2 -12.7318 4.47236 -7.48931 12
326 2 -3.78545 -5.59886 2.76367 18
327 2 0.45139 11.2168 -5.09962 14
328 2 -12.0012 -0.987414 -9.72083 15
329 2 6.15878 -3.58156 -1.42658 14
330 2 -7.80355 8.44393 -2.56996 15
331 2 4.74506 -5.8403 -1.77027 14
332 2 -8.69929 -2.92719 1.5665 20
333 2 -10.6066 -5.61831 -8.27946 12
334 2 -3.31721 7.86574 -7.10751 18
335 2 -11.753 5.23147 -0.948468 12
336 2 2.31135 5.80769 -3.49854 19
337 2 -3.7234 -4.33528 6.31108 11
338 2 -13.5732 0.759774 -2.68283 15
339 2 -8.28999 8.19147 -6.00947 14
340 2 -3.82419 4.07515 6.81524 14
341 2 -10.0416 2.19056 -7.65735 19
342 2 1.99885 9.16263 -7.0129 14
343 2 -10.442 1.44626 4.93448 14
344 2 -4.7714 2.24624 4.17361 22
345 2 -11.0333 -3.60826 -10.484 12
346 2 -3.72271 5.74304 -9.26234 20
347 2 -4.87467 -7.29618 -5.34205 21
348 2 -7.15458 5.09393 -9.66443 17
349 2 0.910692 -1.82465 1.83156 19
350 2 -3.34247 4.95539 3.72679 20
351 2 4.66301 4.17833 -6.76396 15
352 2 0.91488 -9.91914 0.15031 11
353 2 2.38374 -0.161451 -9.94509 11
354 2 2.53946 6.94406 1.48036 14
355 2 -10.4174 0.649229 -3.56648 19
356 2 -9.78174 -1.52985 3.47211 13
357 2 -12.572 -3.88586 -7.4749 16
358 2 -2.0862 -8.31569 -4.00089 22
359 2 -3.01989 8.11177 -2.47665 19
360 2 -13.0459 1.89808 0.264454 15
361 2 -10.2151 -3.35357 -1.20988 21
362 2 -3.05319 -12.1359 -6.09661 8
363 2 1.04225 3.48574 1.43753 19
364 2 -5.36671 5.00694 -6.94964 21
365 2 -5.31588 7.84022 -10.4559 15
366 2 3.23673 6.40965 -7.48294 13
367 2 -2.53566 -9.59157 -7.03895 16
368 2 1.73173 0.685043 3.5608 16
369 2 2.62209 1.16846 0.991449 18
370 2 -3.56632 10.407 -9.85452 11
371 2 -7.28006 -0.00190531 -8.79732 23
372 2 -7.93723 -2.67748 -11.0131 15
373 2 -8.71679 -0.679629 -5.60719 22
374 2 -4.93855 7.76159 3.16807 16
375 2 -5.88931 9.29463 -7.84845 14
376 2 -11.3246 6.23266 -6.14414 13
377 2 -12.671 3.21053 3.25985 12
378 2 -2.66862 2.8087 -10.0492 20
379 2 -1.11495 -5.96648 -9.4914 17
380 2 -11.9213 3.82441 -3.75031 15
381 2 -5.02399 4.77709 -11.6291 16
382 2 -0.319099 -5.39234 -3.87548 22
383 2 -1.00338 -3.33142 4.41962 20
384 2 -7.17831 -2.91556 4.64758 15
385 2 -7.565 -3.63111 -6.49571 20
386 2 -12.8717 0.0466835 2.64992 15
387 2 4.66745 -3.94609 4.78241 10
388 2 -14.2038 -1.34184 0.023342 14
389 2 -7.45272 0.0345015 5.59206 14
390 2 -1.84448 -10.5746 1.33015 11
391 2 6.34162 3.10065 1.12599 11
392 2 -2.12283 -6.46597 -6.04823 21
393 2 -5.69215 9.64209 -4.41336 14
394 2 -10.9624 2.07326 -10.0894 12
395 2 -11.9013 -2.54023 1.62412 16
396 2 1.18193 -6.221 4.59219 12
397 2 4.9247 1.80293 -4.97897 14
398 2 0.361183 2.41149 -10.2052 14
399 2 4.1574 3.83861 2.56869 13
400 2 -6.15168 6.4615 -4.08254 22
401 2 3.95491 -0.829328 4.76049 11
402 2 -0.405463 -4.09051 -6.83581 21
403 2 -7.41985 -5.35999 -3.4398 20
404 2 2.78207 -3.7953 -6.67496 19
405 2 1.02348 -8.97061 -2.74162 13
406 2 2.78013 -3.47949 -0.223137 22
407 2 2.3585 -5.16155 -3.44067 18
408 2 -7.96975 3.47456 6.68628 12
409 2 1.58308 4.39915 -7.11918 18
410 2 -14.8785 -4.67254 -5.82607 10
411 2 -11.8982 -1.81046 -3.92846 20
412 2 5.29796 -5.42648 1.34499 13
413 2 -0.0075484 7.29031 -7.20131 21
414 2 6.67429 1.49836 -1.86688 15
415 2 -0.0231985 5.877 -4.64017 19
416 2 -1.7652 -6.60813 4.28301 13
417 2 1.23738 -6.44787 -0.987834 17
418 2 6.16747 -1.19934 -3.54956 14
419 2 2.5287 -9.28649 -5.97428 9
420 2 -8.04593 -5.26366 -8.88481 16
421 2 -1.25932 8.74841 -4.78961 21
422 2 -3.62225 9.27245 0.397161 12
423 2 -6.40537 -7.97929 -2.46789 16
424 2 -5.03574 -1.53484 7.04021 14
425 2 -8.13674 4.06987 1.38355 22
426 2 3.08565 2.20063 -1.98025 21
427 2 2.85712 1.68546 -7.81041 16
428 2 -10.3479 5.66309 -8.77678 13
429 2 -8.21743 -6.48909 -6.14064 19
430 2 4.42806 -7.01941 -4.98417 10
431 1 -5.67884 -2.55282 -5.94947 20
432 2 -3.8296 -5.43135 -2.8939 20
433 2 -5.74198 -2.26301 -3.76039 22
434 2 -5.89809 -0.583127 -6.58576 23
435 2 -4.1485 -3.63767 -5.4565 20
436 1 -8.6708 0.134463 -2.82203 23
437 1 -7.28819 -3.19689 -3.35421 22
438 1 -5.25653 -0.42232 -2.96796 23
439 1 -3.80542 -3.57823 -3.50152 20
440 1 -3.81981 -5.2394 -0.864719 22
441 1 -5.5607 -2.26853 -0.210956 24
442 1 -11.351 3.0239 4.67429 15
443 1 -3.60269 -3.41543 2.01271 23
444 2 -8.44531 -0.261925 -0.198122 20
445 2 -7.07702 -3.35491 -0.899858 21
446 2 -5.62132 -2.494 1.67466 20
447 2 -5.35062 -0.337497 -0.910525 23
448 2 -3.89185 -3.21816 -0.599494 18
449 1 -7.07211 0.502804 -5.60588 24
450 1 -3.89343 0.327823 -6.10794 21
451 1 -5.34997 3.23359 -6.21418 23
452 2 -6.95434 0.658239 -3.49455 20
453 2 -7.41282 2.3147 -6.79072 20
454 2 -3.89906 0.273224 -4.18702 24
455 2 -5.29217 3.26379 -4.27556 24
456 2 -3.9086 2.14302 -6.72776 24
457 1 -6.76132 2.62151 -3.17727 26
458 1 -6.86026 0.958546 -0.209075 24
459 1 -4.84337 5.01721 -3.56478 22
460 1 -3.6784 2.26733 -3.67902 22
461 1 -3.39039 0.587421 -0.92134 20
462 1 -5.00334 3.4839 -0.808861 23
463 1 -4.76451 1.91745 2.12231 22
464 1 -2.81467 6.5609 -1.42012 20
465 2 -6.71123 0.848453 1.70942 19
466 2 -6.79033 2.69468 -1.10867 25
467 2 -3.71273 0.482179 1.18049 22
468 2 -4.76192 3.86269 1.26836 18
469 2 -4.5023 5.25824 -1.63334 23
470 2 -3.41103 2.41181 -1.57615 25
471 1 -2.40634 -2.67525 -6.08918 20
472 2 -2.08703 -2.76542 -4.1498 21
473 2 -2.12334 -0.616619 -6.57794 23
474 2 1.34229 -2.41096 -4.17746 19
475 1 -1.94181 -0.596604 -3.72234 22
476 1 -0.255441 -3.3676 -3.29435 22
477 1 -2.19619 -2.23277 -0.79809 22
478 1 -2.00503 -0.393479 1.5328 20
479 1 1.33885 -0.559165 -3.52285 19
480 1 1.10212 -2.11512 -0.398606 22
481 2 -1.88293 -2.52719 1.20368 22
482 2 -2.12871 -0.630028 -1.85321 23
483 2 -0.350519 -3.49378 -1.28564 23
484 2 1.07311 -0.691581 -1.63871 23
485 1 -0.344074 0.0463591 -6.29524 21
486 1 -2.10886 2.89268 -6.50159 24
487 2 -0.165367 0.3431 -4.3034 22
488 2 -1.63468 3.05494 -4.41701 22
489 2 -0.57463 1.67522 -7.37449 25
490 2 1.8716 3.00854 -4.76471 24
491 1 -1.6417 5.04809 -3.95864 22
492 1 -0.0351343 2.22617 -3.77617 23
493 1 -0.429273 0.424426 -1.32092 21
494 1 -1.60821 3.78095 -1.19272 22
495 1 -0.661229 2.64887 1.52994 19
496 1 1.91471 2.75567 -0.327563 23
497 2 -0.554167 0.805837 0.577138 23
498 2 -1.54812 4.22387 0.684943 21
499 2 -1.25461 5.47125 -2.09466 19
500 2 -0.496254 2.45066 -1.90316 23
