ITEM: TIMESTEP
99000
ITEM: NUMBER OF ATOMS
1500
ITEM: BOX BOUNDS pp pp pp
-30.0 30.0
-30.0 30.0
-30.0 30.0
ITEM: ATOMS id type x y z Coordination
1 1 -15.2749 -0.42471 -5.54077 13
2 1 -13.5997 -4.11637 -5.97692 17
3 1 -13.6076 -5.93728 -3.25642 15
4 1 -15.2934 -2.89405 -3.025 14
5 1 -11.5495 -6.71047 -5.67203 19
6 1 -10.2526 -11.0663 -3.31111 15
7 1 -5.72587 -14.1011 -3.04748 13
8 1 -8.30673 -12.5179 -5.9643 11
9 1 -11.9304 -1.46923 -11.346 12
10 1 -11.9427 -4.99858 -11.2084 12
11 1 -10.199 -5.07263 -8.36849 20
12 1 -12.1286 -3.00051 -8.70621 19
13 1 -12.0735 -1.07322 -5.95847 23
14 1 -10.4631 -3.51557 -5.86958 22
15 1 -10.1724 -5.54345 -2.85629 25
16 1 -11.6493 -2.52028 -2.94711 24
17 1 -7.92073 -11.2902 -8.24053 11
18 1 -8.7385 -6.0229 -10.7057 18
19 1 -10.5538 -7.73443 -11.8764 9
20 1 -9.33349 -8.22599 -8.21671 19
21 1 -10.0713 -9.54084 -5.9327 17
22 1 -8.62843 -6.4149 -5.60244 25
23 1 -6.95742 -9.05772 -5.79793 23
24 1 -7.25752 -11.5185 -3.24871 19
25 1 -8.66169 -8.74903 -3.13091 23
26 1 -7.61094 -9.15627 -10.9719 13
27 1 -9.91202 -4.09719 -12.9148 10
28 1 -8.4253 -0.984489 -11.235 19
29 1 -7.13143 -3.70878 -11.3142 14
30 1 -7.09236 -5.79383 -8.22498 22
31 1 -8.29539 -2.63342 -8.68125 22
32 1 -8.78984 -0.654266 -6.09461 22
33 1 -6.72373 -3.56618 -5.85747 23
34 1 -6.94508 -5.80079 -3.055 22
35 1 -8.57392 -2.86913 -3.39346 23
36 1 -4.91333 -12.6253 -5.81301 15
37 1 -3.8628 -15.8213 -4.97901 10
38 1 -5.28792 -6.66902 -10.8437 20
39 1 -4.02467 -9.27887 -11.6825 13
40 1 -3.53678 -11.3171 -8.63331 15
41 1 -5.87782 -8.5045 -8.56386 20
42 1 -5.15605 -6.59409 -5.71338 24
43 1 -3.81004 -9.55343 -5.99194 23
44 1 -3.56275 -11.3548 -3.37369 22
45 1 -5.25596 -8.40648 -3.02708 21
46 1 -2.94025 -5.87952 -13.5424 12
47 1 -7.19831 0.234818 -14.021 10
48 1 -5.08915 -0.77072 -11.244 20
49 1 -3.6573 -3.65411 -10.9596 22
50 1 -3.75726 -5.81811 -8.20542 24
51 1 -5.45874 -2.66804 -8.6755 22
52 1 -5.22061 -0.696321 -6.03129 23
53 1 -3.24677 -3.72881 -5.91865 21
54 1 -3.41182 -5.69985 -3.18121 23
55 1 -5.3706 -2.8001 -2.96986 25
56 1 -2.02022 -12.5853 -5.79631 20
57 1 -0.341061 -15.5276 -5.99036 11
58 1 -1.76724 -14.2669 -3.39906 17
59 1 -0.7243 -8.54779 -13.7707 12
60 1 -2.00519 -6.85014 -11.0591 19
61 1 -0.220914 -11.4623 -8.80028 16
62 1 1.93389 -14.7571 -8.34768 11
63 1 -2.68823 -8.4414 -8.66913 24
64 1 -1.93971 -6.7882 -5.69566 24
65 1 -0.645466 -9.73897 -6.25616 22
66 1 -0.208788 -11.4727 -3.14427 24
67 1 -1.77977 -8.68064 -3.11836 22
68 1 0.409409 -5.72889 -14.4004 13
69 1 -1.2384 -2.57934 -13.5885 16
70 1 -1.61393 -0.823309 -11.3982 22
71 1 -0.18087 -3.81337 -11.4295 20
72 1 -0.398301 -5.80963 -8.48984 23
73 1 -2.25847 -2.73205 -8.50343 23
74 1 -1.81549 -0.90832 -6.10598 21
75 1 -0.0713832 -3.75841 -6.11238 22
76 1 -0.169063 -5.75008 -3.38542 22
77 1 -2.11164 -2.76188 -3.44842 21
78 2 -13.1464 -5.89202 -6.75222 13
79 2 -13.2235 -5.64134 -1.41812 16
80 2 -15.1365 -3.08714 -1.07004 14
81 2 -14.7715 -1.38369 -3.94777 15
82 2 -14.5456 -4.30896 -4.21032 10
83 2 -10.9787 -8.07722 -7.24291 14
84 2 -8.98513 -6.49602 -8.87414 22
85 2 -9.99692 -11.3657 -1.49542 12
86 2 -11.7239 -8.28839 -1.42384 17
87 2 -10.5134 -9.26258 -4.19249 19
88 2 -5.28793 -14.5734 -5.30941 10
89 2 -10.3474 -5.26426 -6.29489 22
90 2 -12.5418 -2.78864 -6.74129 21
91 2 -12.7981 -1.48318 -9.64115 14
92 2 -10.1155 -3.16702 -8.70058 23
93 2 -10.1379 -5.49857 -1.00067 22
94 2 -11.9246 -2.72846 -1.21198 22
95 2 -12.0032 -1.01135 -4.00007 21
96 2 -10.5162 -3.73864 -3.92743 21
97 2 -8.87884 -11.9885 -4.32589 14
98 2 -6.59972 -12.1514 -6.74017 15
99 2 -8.63322 -8.21728 -6.36108 20
100 2 -10.5488 -5.88937 -12.0497 11
101 2 -9.21227 -11.0276 -7.03305 12
102 2 -6.86687 -11.755 -1.46773 21
103 2 -8.80049 -8.6975 -1.16716 24
104 2 -8.7836 -6.56163 -3.76822 22
105 2 -6.94483 -9.14197 -3.7347 22
106 2 -6.88477 -5.74926 -11.3971 16
107 2 -5.35574 -2.6353 -11.4837 13
108 2 -6.78602 -5.6365 -6.18851 20
109 2 -8.5874 -2.67516 -6.41313 24
110 2 -8.62011 -0.658948 -9.04249 20
111 2 -6.94216 -3.99876 -8.89879 22
112 2 -6.9357 -6.02648 -1.11359 21
113 2 -8.66817 -2.93853 -1.17683 24
114 2 -8.67528 -0.920954 -3.98543 23
115 2 -6.96746 -3.97243 -3.83157 21
116 2 -7.47129 -9.82788 -9.253 14
117 2 -3.80859 -15.1379 -3.18303 14
118 2 -2.1749 -14.6683 -5.82616 12
119 2 -5.44661 -12.2738 -3.87052 20
120 2 -9.06766 -7.95144 -11.04 10
121 2 -3.3273 -11.5355 -6.57602 19
122 2 -5.4322 -8.52372 -6.7645 21
123 2 -5.23888 -6.56594 -8.7115 19
124 2 -4.35291 -9.61402 -8.82925 18
125 2 -3.54628 -11.2988 -1.38045 23
126 2 -4.97426 -8.51783 -1.00948 23
127 2 -5.2417 -6.40505 -3.63016 22
128 2 -3.61321 -9.24613 -3.94399 22
129 2 -3.58997 -6.47923 -11.8567 15
130 2 -8.66239 -2.90179 -12.137 16
131 2 -6.9842 2.22342 -14.5662 11
132 2 -5.6819 -8.59655 -11.2254 12
133 2 -3.74678 -5.5866 -6.29285 22
134 2 -5.12466 -2.59226 -6.69283 23
135 2 -5.35633 -0.677589 -9.23644 23
136 2 -3.72279 -3.77452 -8.99398 21
137 2 -3.51052 -5.46872 -0.917293 22
138 2 -5.16348 -2.74646 -1.05712 21
139 2 -5.4002 -0.954092 -3.73891 21
140 2 -3.63241 -3.68814 -4.06552 23
141 2 1.34158 -15.316 -6.61586 13
142 2 -1.9667 -10.6487 -9.46263 12
143 2 -1.70013 -14.6592 -1.47867 18
144 2 -1.84872 -12.4325 -3.64872 21
145 2 -0.0606219 -15.2124 -3.92728 17
146 2 -2.15189 -9.25295 -12.1942 13
147 2 0.0359952 -4.03276 -14.0786 14
148 2 -0.590605 -11.6492 -6.69033 20
149 2 -2.29946 -8.648 -6.48721 21
150 2 -2.09351 -6.61316 -9.06444 19
151 2 0.740011 -9.99078 -9.7731 18
152 2 -0.0341061 -11.7495 -0.975289 23
153 2 -1.73039 -8.64691 -1.13198 24
154 2 -2.14631 -6.96857 -3.79915 22
155 2 -0.192287 -9.67873 -3.93219 25
156 2 -0.571154 -5.68634 -11.5736 20
157 2 -1.95171 -2.81473 -11.6993 17
158 2 -1.80602 -0.727947 -13.7675 12
159 2 1.50754 -7.3155 -13.7388 13
160 2 -0.202118 -5.71161 -6.44482 20
161 2 -1.62177 -2.80543 -6.58626 21
162 2 -1.88711 -0.689897 -9.46609 23
163 2 -0.463888 -3.77565 -9.30503 22
164 2 -0.300392 -5.85736 -1.45947 24
165 2 -1.92358 -2.76688 -1.14896 24
166 2 -2.11345 -0.963272 -4.22124 24
167 2 -0.269898 -3.88985 -3.81365 23
168 1 -12.4467 -6.72168 -8.30507 11
169 1 -11.992 -8.4167 -3.33251 14
170 1 -14.9867 -1.39068 -0.384611 14
171 1 -13.729 -4.11454 -0.205502 19
172 1 -14.1246 -5.94632 2.7858 13
173 1 -15.8044 -3.04857 2.58995 11
174 1 -15.2543 -0.778931 4.73353 12
175 1 -13.7497 -3.60669 5.25911 18
176 1 -13.8263 -5.12835 8.65698 10
177 1 -11.9503 -6.53319 -0.160016 21
178 1 -10.5823 -9.53254 -0.521798 16
179 1 -10.3412 -11.3885 2.51834 14
180 1 -12.137 -8.33243 2.33784 16
181 1 -12.4678 -7.21941 5.49361 14
182 1 -10.332 -8.94042 5.17896 20
183 1 -12.2552 -8.04106 8.21079 13
184 1 -11.8439 -1.10704 -0.138797 24
185 1 -10.4744 -3.72694 -0.291408 24
186 1 -10.3601 -5.57999 2.72507 24
187 1 -12.2909 -3.01982 2.47347 24
188 1 -11.7119 -0.866643 4.92553 21
189 1 -10.488 -3.66722 4.91439 21
190 1 -9.99618 -6.02615 7.6352 22
191 1 -11.7275 -2.99198 7.3158 18
192 1 -12.7448 1.41135 10.1909 13
193 1 -12.0862 -6.00065 10.538 11
194 1 -8.58951 -12.0777 -0.546501 16
195 1 -9.78353 -10.7963 8.71926 12
196 1 -8.83831 -6.64621 -0.343905 21
197 1 -6.57677 -9.38236 -0.637927 21
198 1 -6.99293 -11.2612 1.99521 20
199 1 -8.70529 -8.36959 2.27727 23
200 1 -8.29092 -6.62187 5.01246 22
201 1 -7.19692 -9.79499 5.11395 23
202 1 -7.34615 -11.3689 7.33727 15
203 1 -8.6529 -8.17116 7.27038 21
204 1 -9.79897 -8.20294 10.5623 15
205 1 -6.74875 -9.41619 9.73326 17
206 1 -8.84642 -1.11686 -0.418483 23
207 1 -6.89386 -3.76041 -0.621715 21
208 1 -6.84677 -5.72619 2.00566 22
209 1 -8.81708 -2.72383 2.46038 24
210 1 -8.5773 -0.836198 4.91999 22
211 1 -7.28276 -3.54392 5.05668 23
212 1 -6.68537 -5.50785 7.79664 24
213 1 -8.73095 -2.73496 7.68224 22
214 1 -8.80314 -1.15688 10.2714 22
215 1 -9.29381 -3.05106 13.0634 12
216 1 -7.43932 -6.25961 12.3126 12
217 1 -11.1422 -0.819721 12.9089 9
218 1 -5.1173 -12.1944 -0.703598 20
219 1 -3.59191 -15.3797 -1.23623 12
220 1 -5.30428 -14.4881 0.99784 10
221 1 -9.37261 -11.9909 5.28312 11
222 1 -5.53145 -12.1508 4.83573 15
223 1 -4.98187 -6.7037 -0.387685 22
224 1 -3.38144 -9.70908 -0.506776 22
225 1 -3.72763 -11.6844 2.17968 21
226 1 -5.80752 -8.44516 2.33923 22
227 1 -5.08423 -6.78213 4.97405 22
228 1 -3.85192 -9.49406 4.7461 23
229 1 -3.76134 -11.3717 7.55816 21
230 1 -5.28253 -8.41997 7.49755 26
231 1 -1.94435 -6.57978 9.88035 24
232 1 -5.1077 -12.1687 9.80368 10
233 1 -2.35728 -5.83445 14.7102 10
234 1 -5.1523 -0.797822 -0.527797 22
235 1 -3.44551 -3.70082 -0.372209 23
236 1 -3.29442 -5.58293 2.2338 21
237 1 -5.35763 -2.59434 1.93926 22
238 1 -5.52146 -0.659764 4.81183 22
239 1 -3.9867 -3.77677 4.65581 22
240 1 -3.41555 -5.61818 7.45378 23
241 1 -5.0695 -2.6143 7.35188 20
242 1 -5.65134 -0.848304 9.86539 20
243 1 -5.43564 -6.50409 10.2927 22
244 1 -3.60302 -5.41905 12.1808 18
245 1 -8.83721 -4.93045 10.1347 20
246 1 -1.90687 -12.6946 -0.778685 22
247 1 -0.0587366 -15.2639 -0.399082 15
248 1 -1.91192 -14.1901 1.90957 18
249 1 -2.47926 -12.2534 5.05721 20
250 1 -0.751094 -14.7992 4.81552 14
251 1 -2.55062 -14.4393 7.60521 13
252 1 -2.07138 -12.5131 10.2733 11
253 1 -1.94888 -6.59812 -0.892672 22
254 1 -0.308462 -9.55315 -0.345451 24
255 1 -0.497102 -11.603 2.03976 22
256 1 -2.15474 -8.64339 2.39362 25
257 1 -2.00777 -6.73012 4.90812 24
258 1 -0.458645 -9.68413 4.7948 24
259 1 -0.423514 -11.4959 7.6704 24
260 1 -2.03661 -9.02938 7.6464 22
261 1 -3.65287 -3.7361 9.63025 22
262 1 -0.50413 -9.71986 10.2863 22
263 1 -3.56763 -9.12615 10.1479 21
264 1 -1.88198 -0.869633 -0.711639 22
265 1 -0.273306 -3.86144 -0.697171 21
266 1 -0.383094 -5.72649 2.02375 20
267 1 -1.7949 -2.40995 2.13039 21
268 1 -1.80846 -0.816768 4.52265 22
269 1 -0.584589 -3.97682 4.89816 22
270 1 -0.625959 -5.8162 7.42184 22
271 1 -1.77384 -2.76206 7.19051 21
272 1 -0.525383 -0.0783033 12.5073 13
273 1 -1.92309 -1.01584 9.77375 22
274 1 -2.00967 -8.17498 12.9359 17
275 1 -0.160292 -3.56114 9.95417 22
276 2 -12.0546 -5.29207 -9.26703 17
277 2 -11.819 -6.61594 -3.84596 20
278 2 -13.2916 -5.76711 4.65028 15
279 2 -15.0763 -2.55159 4.18077 14
280 2 -15.0478 -1.34641 1.52826 14
281 2 -13.809 -4.27226 1.7345 19
282 2 -14.7307 -0.611975 6.74676 13
283 2 -13.1901 -4.35624 6.95985 15
284 2 -10.6791 -10.8916 4.29118 12
285 2 -11.851 -8.2581 4.16428 14
286 2 -12.4827 -6.58004 1.69121 16
287 2 -10.4196 -9.52667 1.54968 19
288 2 -10.7306 -7.56677 6.74377 19
289 2 -11.3993 -9.73448 8.59753 10
290 2 -9.7257 -5.38038 4.4152 22
291 2 -12.0816 -2.66125 4.40375 23
292 2 -11.9095 -1.04682 1.80976 22
293 2 -10.5578 -3.50552 1.99374 22
294 2 -11.3662 -2.61855 12.487 11
295 2 -12.7809 -4.46792 10.1582 11
296 2 -11.6646 -0.925397 6.95117 21
297 2 -9.983 -4.08817 6.82499 20
298 2 -11.906 0.657754 11.6436 11
299 2 -8.82359 -11.8517 1.4508 14
300 2 -2.12218 -12.1859 7.0736 22
301 2 -7.43884 -11.7422 4.48907 16
302 2 -8.73361 -8.57283 4.1845 23
303 2 -8.77882 -6.38725 1.74928 22
304 2 -7.22064 -9.32027 1.38185 23
305 2 -8.68605 -9.15083 8.99581 18
306 2 -12.9479 -6.9815 9.35243 11
307 2 -8.22542 -6.40317 6.95977 22
308 2 -7.1126 -9.14697 7.00243 23
309 2 -6.6891 -11.2124 9.13422 13
310 2 -7.14528 -5.44845 3.97122 24
311 2 -8.94234 -2.56412 4.207 23
312 2 -8.75454 -0.785735 1.49461 23
313 2 -7.00828 -3.35394 1.36722 22
314 2 -5.03432 -8.24133 9.49096 22
315 2 -8.99519 -3.07575 9.68557 21
316 2 -8.85618 -0.731347 6.85957 23
317 2 -6.81031 -3.52242 7.01791 22
318 2 -8.02148 -4.26241 12.2178 15
319 2 -8.64504 -7.5658 11.8225 11
320 2 -5.40842 -12.4155 1.24154 19
321 2 -5.34341 -14.1866 -1.05264 14
322 2 -3.44875 -14.9618 0.837116 13
323 2 1.10583 -12.4078 7.00917 22
324 2 -3.78492 -11.3234 4.25455 21
325 2 -5.68501 -8.66627 4.47648 22
326 2 -5.13771 -6.50681 1.82867 20
327 2 -4.05642 -9.91032 1.61265 22
328 2 -3.2146 -13.8689 9.47128 8
329 2 -9.3497 -11.6363 7.20761 13
330 2 -5.16451 -6.36971 6.87193 23
331 2 -3.71013 -9.5274 6.85889 25
332 2 -2.19233 -6.70162 11.8534 25
333 2 -3.56385 -11.1355 9.60317 19
334 2 -3.72194 -5.64301 4.23107 22
335 2 -5.57438 -2.81984 4.27839 21
336 2 -5.33019 -0.559262 1.49517 20
337 2 -4.01512 -3.86554 1.91363 19
338 2 -5.41513 -11.9819 6.62989 18
339 2 -4.97838 -2.55937 9.54967 19
340 2 -5.43406 -0.671213 6.68597 23
341 2 -3.53711 -3.49012 6.90231 22
342 2 -5.62868 -6.5445 12.2567 16
343 2 -10.2443 -6.3958 9.53986 19
344 2 1.15379 -0.911984 12.1189 16
345 2 -4.23606 -3.87534 11.567 17
346 2 -1.99422 -13.7019 3.79589 17
347 2 -2.18489 -12.2752 1.21634 22
348 2 -0.178653 -15.127 1.53828 15
349 2 -0.952904 -14.7324 6.76819 12
350 2 -0.530348 -11.3923 3.9854 26
351 2 -2.40535 -8.45236 4.27687 21
352 2 -1.91867 -6.91844 1.47289 22
353 2 -0.519727 -9.58614 1.99203 20
354 2 -0.523897 -11.9154 9.66162 21
355 2 -1.90578 -8.4229 9.35104 24
356 2 -2.16562 -6.7901 6.88653 22
357 2 -0.285672 -9.43628 7.0571 23
358 2 -2.06656 -4.35292 13.5831 12
359 2 -3.7983 -8.79651 12.1029 17
360 2 -0.370948 -5.85396 4.29763 22
361 2 -2.22603 -2.91278 3.9716 22
362 2 -1.9222 -0.476825 1.29949 22
363 2 -0.785604 -3.90476 1.50161 22
364 2 -0.263636 -5.52634 9.61921 22
365 2 -3.73362 -5.80754 9.53994 23
366 2 -1.92626 -0.856032 6.59012 22
367 2 -0.297528 -3.76373 6.65993 24
368 2 -3.66855 -6.95811 14.6543 9
369 2 -0.0307522 -3.49013 11.8828 18
370 2 -1.94786 -2.83492 9.30893 24
371 2 2.88416 -5.89965 9.75109 22
372 1 -14.1946 -0.32555 -8.86296 11
373 1 -13.8574 1.54427 -6.75199 13
374 1 -13.5476 -0.0357923 -3.06694 20
375 1 -15.3594 2.76754 -4.08106 9
376 1 -11.8107 10.4727 -6.9237 11
377 1 -13.8007 5.19723 -3.28104 13
378 1 -10.1295 1.57223 -11.1623 15
379 1 -10.4719 -0.0664328 -8.70494 24
380 1 -12.4244 2.56589 -8.98863 12
381 1 -12.2251 4.70086 -6.34917 13
382 1 -10.4077 2.05554 -6.33367 21
383 1 -10.3932 0.30189 -3.40248 21
384 1 -12.3116 3.14369 -3.35988 19
385 1 -7.00053 13.1317 -8.7123 11
386 1 -9.95306 7.84652 -6.13215 17
387 1 -10.2068 5.73152 -3.34453 21
388 1 -11.8302 11.1098 -1.71015 11
389 1 -10.4577 12.0322 -4.43098 14
390 1 -8.5346 2.97034 -13.7497 12
391 1 -7.09269 5.81267 -13.5964 10
392 1 -8.91878 5.66232 -11.4229 13
393 1 -6.77307 1.78329 -11.1616 22
394 1 -6.83653 0.210287 -8.56064 22
395 1 -8.88811 3.20874 -8.85225 20
396 1 -8.4885 5.02435 -5.84235 22
397 1 -7.12925 2.05696 -5.94587 22
398 1 -7.11365 -0.170765 -3.16067 23
399 1 -8.71539 2.98763 -2.92406 22
400 1 -7.36024 8.55756 -11.2315 13
401 1 -9.19009 11.0503 -9.71651 11
402 1 -6.86981 5.56594 -8.68349 21
403 1 -8.66839 7.85133 -8.69679 16
404 1 -11.7384 8.8748 -3.89291 14
405 1 -6.73348 7.51653 -5.72786 23
406 1 -6.76248 5.67981 -3.3514 20
407 1 -8.47693 8.95641 -3.42411 22
408 1 -10.284 13.2606 -7.5395 9
409 1 -8.38978 10.4642 -6.42094 23
410 1 -7.29251 11.6997 -3.7195 17
411 1 -3.19934 0.445027 -13.92 14
412 1 -5.4581 3.13961 -14.0981 16
413 1 -5.4175 4.65783 -10.8309 21
414 1 -3.32928 2.18118 -11.3586 24
415 1 -3.67253 -0.0325524 -8.71949 21
416 1 -5.21759 2.82959 -8.52888 23
417 1 -5.19455 4.95631 -6.11907 21
418 1 -3.62196 2.02475 -5.89011 22
419 1 -3.59061 0.0186736 -3.32997 22
420 1 -5.57517 2.36923 -3.09719 22
421 1 -3.73687 5.76192 -13.5724 13
422 1 -6.74203 13.5726 -6.15907 14
423 1 -3.66932 7.75199 -11.0513 18
424 1 -3.49997 5.85225 -8.68624 26
425 1 -5.3376 8.72326 -8.60426 22
426 1 -5.1809 10.5162 -6.0399 23
427 1 -3.4462 7.79265 -5.79054 23
428 1 -3.40514 5.72853 -3.13906 22
429 1 -5.05414 8.73003 -3.11105 23
430 1 -3.41738 11.7829 -8.86521 17
431 1 -3.55346 13.0814 -6.51199 18
432 1 -3.8242 11.475 -3.42855 23
433 1 -5.2184 14.3672 -3.58792 13
434 1 0.0130378 0.219246 -14.064 15
435 1 -2.03115 2.94908 -13.8034 18
436 1 -1.67933 4.86199 -11.1878 21
437 1 -0.0142546 2.23553 -11.1139 24
438 1 -0.199614 0.110955 -8.59995 24
439 1 -2.0633 3.11462 -8.59079 22
440 1 -1.66976 4.95658 -5.97747 23
441 1 -0.311687 1.94255 -5.98417 23
442 1 -0.198326 -0.100371 -3.50626 21
443 1 -1.86971 2.77561 -3.41404 23
444 1 -0.404931 6.20358 -14.0603 11
445 1 -2.27382 10.9107 -11.0617 12
446 1 -5.74973 11.4899 -11.0148 10
447 1 -0.585391 8.04265 -11.2303 15
448 1 -0.0374651 5.83544 -8.51496 22
449 1 -1.91594 8.73371 -8.41542 22
450 1 -1.99647 10.3877 -5.62884 23
451 1 0.0786459 7.80225 -6.16218 20
452 1 0.00400127 5.52444 -3.34429 22
453 1 -1.52789 8.70293 -3.34086 24
454 1 -0.410649 12.1863 -8.30253 16
455 1 -0.325693 13.6227 -5.83599 16
456 1 -0.263654 11.6336 -3.46587 23
457 1 -2.13363 14.4854 -3.24078 14
458 2 -13.8329 -0.505956 -6.85117 17
459 2 -13.8753 1.39375 -8.74236 10
460 2 -13.4212 -0.255989 -0.841878 19
461 2 -15.4777 3.95128 -2.23275 11
462 2 -13.5005 1.81851 -3.56668 17
463 2 -15.6238 1.6714 -5.5663 9
464 2 -8.85467 9.20004 -9.9804 13
465 2 -13.3913 5.86254 -1.51684 16
466 2 -11.5637 8.88262 -5.86481 13
467 2 -11.332 -3.16877 -11.9984 11
468 2 -10.5545 -0.0135893 -6.7525 23
469 2 -12.2203 2.78745 -6.9058 18
470 2 -10.5451 2.10628 -9.50296 14
471 2 -10.2909 -0.307914 -11.4661 12
472 2 -10.5003 0.019915 -1.52034 25
473 2 -11.94 2.98792 -1.55914 23
474 2 -12.3149 4.79044 -4.43171 17
475 2 -10.2237 2.10224 -4.26668 22
476 2 -10.3631 5.89228 -6.49501 15
477 2 -9.94066 11.0933 -7.75609 16
478 2 -7.37792 11.8353 -9.93641 13
479 2 -10.6216 6.17187 -1.52247 23
480 2 -12.1941 8.91539 -1.86276 13
481 2 -11.5577 10.9524 -3.64307 12
482 2 -10.0794 7.73356 -3.91505 19
483 2 -10.3334 11.6826 -0.694603 13
484 2 -6.98389 -0.0936994 -12.0846 18
485 2 -8.5928 2.04462 -12.0602 16
486 2 -8.63465 4.71348 -13.0076 12
487 2 -7.14454 -0.0101177 -6.77252 24
488 2 -8.8112 3.06577 -6.63205 21
489 2 -8.41237 4.73354 -9.93934 17
490 2 -6.94793 2.26204 -9.37739 20
491 2 -7.05326 -0.132344 -1.0687 23
492 2 -8.37953 2.74654 -1.11482 20
493 2 -8.486 4.83209 -3.74427 20
494 2 -7.28335 1.75393 -3.99654 22
495 2 -7.75778 6.96119 -12.0924 12
496 2 -6.8468 5.68088 -6.58133 24
497 2 -8.32897 8.61785 -6.64379 21
498 2 -8.27401 13.4168 -7.34581 13
499 2 -6.77696 7.39589 -9.0522 18
500 2 -6.67751 5.98484 -1.07478 19
501 2 -8.49252 9.07537 -1.27296 21
502 2 -8.74062 10.8851 -4.34332 22
503 2 -7.26534 7.44814 -3.73927 20
504 2 -11.2437 12.1653 -6.12039 9
505 2 -6.76092 11.8821 -1.56094 20
506 2 -5.34892 13.4249 -7.53551 13
507 2 -3.35877 0.289107 -12.0053 21
508 2 -5.25859 2.84096 -11.6094 21
509 2 -5.37295 5.06891 -13.8009 13
510 2 -3.84144 2.14037 -14.2114 14
511 2 -3.63772 -0.0176772 -6.55366 23
512 2 -5.28241 2.94939 -6.6149 24
513 2 -5.00332 4.72124 -8.93241 19
514 2 -3.58994 2.02697 -9.30729 24
515 2 -3.57823 0.0846166 -1.32654 24
516 2 -5.31306 3.11251 -1.24588 22
517 2 -5.10665 4.54504 -4.02739 23
518 2 -3.67 1.96646 -3.86274 20
519 2 -3.52976 5.97124 -11.6461 18
520 2 -5.54973 9.35998 -11.0626 14
521 2 -3.48013 5.92014 -6.41101 21
522 2 -5.12235 8.66852 -6.59025 21
523 2 -6.68531 11.4894 -6.33816 17
524 2 -3.61048 7.82659 -9.04997 20
525 2 -3.38723 6.0435 -1.07109 21
526 2 -5.137 8.93108 -1.16454 19
527 2 -5.52748 10.5372 -4.03827 24
528 2 -3.61481 7.73382 -3.79859 23
529 2 -6.67987 13.4537 -4.21836 15
530 2 -3.56803 12.1688 -1.409 22
531 2 -5.15773 14.5065 -1.60816 14
532 2 -3.37058 13.2746 -4.10226 21
533 2 0.061958 0.378494 -11.7407 23
534 2 -1.70114 3.00406 -11.7526 22
535 2 -2.06032 4.84581 -14.0373 14
536 2 -0.344354 2.10008 -13.9189 14
537 2 -0.130034 0.0953635 -6.65863 23
538 2 -2.04055 3.11784 -6.36762 20
539 2 -1.7205 5.166 -8.91168 20
540 2 -0.264695 2.12851 -9.19261 23
541 2 -0.289524 0.188741 -1.43526 23
542 2 -1.89236 3.29498 -1.1225 21
543 2 -1.89098 4.89969 -3.90662 22
544 2 -0.334559 1.83152 -3.97031 22
545 2 -0.10258 6.05507 -11.6302 19
546 2 -3.87514 11.4804 -10.6699 11
547 2 -0.16328 5.93225 -6.51191 24
548 2 -1.88212 8.67975 -6.47028 21
549 2 -1.64677 11.4252 -9.37059 14
550 2 -0.0300797 7.79247 -8.96765 18
551 2 -0.0259618 5.71873 -1.41789 23
552 2 -1.69136 8.97904 -1.26519 23
553 2 -2.26025 10.4851 -3.79262 21
554 2 -0.0289566 7.79194 -4.14651 25
555 2 -0.307047 11.4495 -5.83372 22
556 2 -3.42171 11.1843 -7.04498 21
557 2 -2.07386 9.17718 -11.1859 13
558 2 -0.145027 11.742 -1.45974 23
559 2 -1.83852 14.813 -1.34275 14
560 2 -0.508034 13.9786 -3.94782 16
561 1 -15.0487 4.85862 -0.649611 12
562 1 -13.183 1.75779 -0.419217 20
563 1 -13.64 -0.0290757 2.14073 19
564 1 -14.8617 2.90982 2.53051 13
565 1 -14.0658 4.49574 6.03965 11
566 1 -13.2085 1.93201 4.75298 20
567 1 -11.4021 -2.94969 10.5481 18
568 1 -13.5435 7.76399 -0.965485 13
569 1 -13.5203 5.79324 2.11606 17
570 1 -13.5931 8.02164 4.81777 12
571 1 -11.8183 3.03901 7.47252 19
572 1 -11.9442 4.85819 -0.868325 22
573 1 -10.0159 1.78685 -0.677755 22
574 1 -10.3413 0.0906778 2.34275 25
575 1 -11.907 3.12833 1.93966 24
576 1 -11.7664 5.0905 4.69749 23
577 1 -9.96971 2.3699 4.78751 22
578 1 -10.1862 0.331397 7.62955 22
579 1 -13.34 -1.08203 8.17581 15
580 1 -11.6296 4.62165 9.86817 11
581 1 -9.83248 2.20312 10.2393 17
582 1 -7.52542 -0.0290125 12.3994 15
583 1 -10.3648 11.9523 1.15852 12
584 1 -10.4097 8.1939 -1.13921 20
585 1 -10.3608 6.22714 1.80503 22
586 1 -11.6997 8.78192 1.82369 18
587 1 -9.65701 12.1958 6.61032 9
588 1 -8.52938 11.0278 3.48363 16
589 1 -10.1813 6.01964 7.2591 18
590 1 -14.9393 1.29945 7.54398 10
591 1 -5.24578 8.74006 7.22735 21
592 1 -10.2982 8.16001 4.74525 19
593 1 -8.18805 4.74129 -0.805543 19
594 1 -7.07953 1.66685 -0.282772 25
595 1 -6.9957 -0.00768882 2.43428 23
596 1 -8.61767 3.09648 1.81308 23
597 1 -8.73082 5.34596 4.7363 23
598 1 -7.08599 2.36181 4.89173 23
599 1 -7.07705 0.308049 7.17102 21
600 1 -8.35443 3.36161 7.68575 24
601 1 -8.19252 4.99446 10.2619 18
602 1 -6.66071 1.90651 10.4135 22
603 1 -6.15765 -3.28587 11.3331 20
604 1 -5.55059 2.95851 12.7916 12
605 1 -8.47976 11.1209 -0.607461 18
606 1 -6.92735 7.91497 -0.681176 21
607 1 -7.09917 5.8302 2.1857 23
608 1 -8.49238 9.10025 1.47399 22
609 1 -11.5257 10.7596 4.05005 11
610 1 -6.99499 8.13498 4.72046 23
611 1 -6.73273 5.70963 7.72182 25
612 1 -8.83134 8.91053 7.58725 19
613 1 -9.98786 7.35803 10.3826 12
614 1 -7.20934 6.45934 12.6184 11
615 1 -6.87092 13.7632 -0.85221 13
616 1 -6.69472 11.5189 1.73125 20
617 1 -6.85941 13.4478 4.73308 14
618 1 -8.64927 10.5383 9.70297 9
619 1 -4.96399 4.94094 -0.676795 21
620 1 -3.59255 2.30555 -0.674698 24
621 1 -3.52495 0.342199 2.11443 23
622 1 -5.34199 2.71336 2.28574 22
623 1 -5.11608 5.33957 4.53294 20
624 1 -3.52605 1.95505 4.77351 23
625 1 -3.58295 0.135516 7.518 24
626 1 -5.16441 2.89841 7.84947 24
627 1 -5.35016 4.70683 10.341 22
628 1 -3.53814 1.80867 10.2045 22
629 1 -2.40212 -2.99079 12.3127 17
630 1 -4.14585 -0.531948 12.0749 16
631 1 -5.1365 11.059 -0.748275 21
632 1 -3.245 8.03432 -0.598903 21
633 1 -3.38407 6.08389 1.97799 23
634 1 -5.03858 9.00673 2.08076 24
635 1 -5.08731 10.7704 4.54015 22
636 1 -3.62272 7.93259 4.79633 22
637 1 -3.53925 5.81241 7.03508 21
638 1 -2.15453 11.8268 10.2426 17
639 1 -6.57748 7.90669 10.0975 20
640 1 -3.41061 7.64585 9.93223 20
641 1 -1.62755 8.64201 12.8118 15
642 1 -4.46101 8.87348 12.7656 12
643 1 -3.533 14.0537 -0.620735 18
644 1 -3.6459 12.0563 1.97388 21
645 1 -5.50374 14.564 2.20757 14
646 1 -3.19881 13.3489 4.53118 17
647 1 -6.44727 11.632 7.42177 16
648 1 -1.64403 5.02724 -0.806251 22
649 1 -0.280341 2.31539 -0.800552 22
650 1 -0.290697 0.37509 1.90546 22
651 1 -1.87459 2.89831 1.98096 21
652 1 -1.87315 4.86179 4.52576 21
653 1 -0.408415 2.367 4.69904 21
654 1 -0.260144 0.245096 7.27946 21
655 1 -2.02802 2.97473 7.37032 21
656 1 -3.59379 5.77232 12.5424 13
657 1 1.29074 -0.994919 10.0922 22
658 1 1.18586 2.98026 12.2703 15
659 1 -0.146796 2.10447 9.81543 19
660 1 -1.99131 11.0467 -1.00522 22
661 1 -0.328609 7.66752 -0.526541 23
662 1 -0.124437 5.86832 2.17972 25
663 1 -1.71804 9.00508 2.14656 25
664 1 -1.88589 10.753 4.63445 24
665 1 -0.474262 7.8219 4.66272 21
666 1 -0.385138 6.06728 7.21867 20
667 1 -1.90683 8.98387 7.57406 24
668 1 -5.24849 10.5468 9.93428 16
669 1 -0.227087 7.96084 10.0646 19
670 1 1.62898 9.09658 12.6017 14
671 1 -3.91416 11.5082 13.4707 8
672 1 5.02803 14.8054 -7.65652 10
673 1 -0.291882 13.7585 -0.673747 21
674 1 -0.338931 11.837 1.80973 21
675 1 -1.84571 14.5719 1.99473 15
676 1 -0.15012 13.5945 4.97134 17
677 1 -0.397704 11.7593 7.10909 20
678 1 -3.40019 11.9439 7.15831 16
679 1 0.562587 14.1488 9.67819 10
680 2 -13.3592 0.100089 3.96842 20
681 2 -14.4476 3.46935 4.42121 14
682 2 -14.9851 4.62273 1.29099 13
683 2 -13.4096 1.8357 1.46819 17
684 2 -12.3078 -2.18932 9.21202 18
685 2 -13.6115 0.964674 8.78991 12
686 2 -13.2995 6.40738 3.93769 15
687 2 -13.116 7.41124 0.895355 17
688 2 -10.1962 0.371088 4.21716 23
689 2 -11.741 3.1269 4.06844 23
690 2 -11.8111 5.01041 1.40532 22
691 2 -10.5139 1.97728 1.39777 23
692 2 -9.80827 0.263726 9.66994 22
693 2 -11.5716 2.78843 9.4395 14
694 2 -12.152 4.85582 6.64194 19
695 2 -9.97477 2.478 6.74808 23
696 2 -10.0346 5.77625 9.40597 17
697 2 -10.4316 6.30932 3.81713 23
698 2 -12.0693 8.95756 4.23197 12
699 2 -11.5567 10.7414 1.93877 13
700 2 -10.0706 8.16946 0.854978 21
701 2 -10.3028 8.04559 6.72668 18
702 2 -13.5566 2.57261 6.72726 16
703 2 -10.015 11.3231 4.90881 15
704 2 -7.2659 0.57424 4.42007 21
705 2 -8.765 3.56776 3.96032 22
706 2 -8.71825 4.99958 1.11855 22
707 2 -7.106 1.95986 1.78046 22
708 2 -7.10348 0.28044 9.33657 23
709 2 -8.88325 -1.22845 12.6082 13
710 2 -8.45416 5.09932 6.87102 23
711 2 -6.93903 2.43575 7.03502 20
712 2 -4.13042 1.69975 12.0927 16
713 2 -8.09545 3.11443 9.96053 20
714 2 -6.05115 -1.33895 11.7362 18
715 2 -7.23193 6.30739 3.96428 21
716 2 -8.44512 9.20088 3.79643 24
717 2 -8.62323 11.3275 1.48655 18
718 2 -6.91192 8.07588 1.41358 21
719 2 -6.70788 6.0795 9.65569 22
720 2 -8.9373 6.02996 11.6564 11
721 2 -9.37202 10.9046 8.0629 9
722 2 -6.94904 7.89256 6.98768 23
723 2 -6.8207 1.58046 12.6402 13
724 2 -6.54188 11.7777 3.64578 21
725 2 -6.56974 13.5831 1.04379 15
726 2 -8.71857 8.56351 9.33387 16
727 2 -7.84962 12.5968 6.25003 11
728 2 -3.65 -0.0160419 4.17641 22
729 2 -5.32552 2.94247 4.22958 22
730 2 -5.32539 4.76427 1.40854 22
731 2 -3.71058 2.24032 1.41629 22
732 2 -3.72992 -6.51022e-04 9.47193 21
733 2 -5.12239 2.96364 9.84417 24
734 2 -5.29733 4.70378 6.71236 21
735 2 -3.63492 2.03127 6.86464 23
736 2 -7.32556 -6.01374 9.67254 21
737 2 -5.33756 4.89891 12.5451 15
738 2 -6.27666 8.02606 12.1299 15
739 2 -2.11493 -1.16717 12.1187 19
740 2 -3.35954 6.1879 3.97453 21
741 2 -5.19683 8.74565 3.98099 23
742 2 -4.9662 10.7027 1.31554 23
743 2 -3.47462 8.02064 1.33049 20
744 2 -3.87563 5.69607 10.0203 22
745 2 -4.90177 8.58936 9.36366 21
746 2 -4.9238 10.7545 6.60986 22
747 2 -3.90305 7.50766 6.73808 21
748 2 -2.8068 7.51558 12.0823 17
749 2 -2.19672 12.1704 12.2099 10
750 2 -3.73404 11.6532 3.67565 25
751 2 -5.07101 14.1327 4.32099 13
752 2 -3.56971 14.1008 1.58439 17
753 2 -6.84267 10.7385 9.12414 14
754 2 -1.71105 12.6804 5.68914 16
755 2 -0.298304 0.359303 4.11385 23
756 2 -2.10015 3.08306 3.6999 25
757 2 -1.79136 5.03072 1.33448 24
758 2 -0.228844 2.11683 1.22848 25
759 2 -0.340081 -0.00440786 9.09712 24
760 2 -1.98288 2.6892 9.67637 21
761 2 -1.85489 4.80134 6.92087 21
762 2 -0.173117 2.2264 6.64722 24
763 2 1.52624 4.68085 11.888 18
764 2 -1.90046 4.74657 12.2849 16
765 2 -2.76555 9.90826 13.6844 9
766 2 4.6773 3.36399 9.58705 22
767 2 -0.182949 5.94555 4.09932 23
768 2 -1.94672 8.76402 4.00459 24
769 2 -2.0117 11.0301 1.24087 24
770 2 3.00686e-04 7.87201 1.39192 23
771 2 -0.282485 5.88869 9.66797 22
772 2 -1.82789 8.75403 9.41732 20
773 2 -0.429437 12.0678 9.07732 20
774 2 -0.413633 8.03122 6.7157 24
775 2 1.1788 14.4789 7.93126 11
776 2 -4.89994 10.775 11.8821 13
777 2 0.187035 7.78972 12.3854 16
778 2 -0.155213 11.7353 4.14732 24
779 2 -1.6292 14.2788 3.74295 14
780 2 3.55499 15.3126 -8.79221 8
781 2 -0.0733917 13.7252 1.26335 19
782 2 -3.85146 11.6848 8.89976 16
783 2 -2.1321 10.4754 6.67769 23
784 1 1.33579 -12.5984 -5.9903 21
785 1 2.88497 -16.0964 -5.6435 11
786 1 1.64553 -14.4473 -3.1966 19
787 1 2.23271 -8.72264 -13.1734 13
788 1 1.14736 -6.79994 -11.2988 21
789 1 -0.871887 -10.0426 -11.1102 15
790 1 3.53148 -11.9408 -8.41356 16
791 1 1.53871 -8.84056 -8.39004 21
792 1 1.46024 -7.07656 -6.00388 21
793 1 2.87116 -9.59553 -5.67866 23
794 1 3.09169 -11.3692 -3.30352 24
795 1 1.22357 -8.55185 -3.23385 24
796 1 3.25591 -5.86154 -13.4329 13
797 1 1.96038 -3.07215 -13.9017 16
798 1 1.76977 -0.77722 -11.6441 20
799 1 3.29381 -3.42133 -11.2685 20
800 1 2.98032 -5.9415 -9.26723 16
801 1 1.18642 -2.6626 -8.78236 21
802 1 1.52897 -0.792655 -6.42273 21
803 1 2.84306 -4.1633 -5.93756 21
804 1 3.04469 -5.77645 -3.19659 25
805 1 1.56847 -2.78305 -3.30881 22
806 1 4.63043 -12.3771 -5.67004 20
807 1 5.06216 -14.4903 -3.96876 19
808 1 5.11569 -9.10903 -12.7485 10
809 1 2.57251 -10.3563 -10.8165 14
810 1 5.30604 -14.6925 -7.68142 10
811 1 5.11145 -8.80434 -9.06975 17
812 1 4.85682 -7.00425 -6.00258 25
813 1 6.3719 -9.72531 -5.95424 20
814 1 6.5447 -11.8816 -3.28248 24
815 1 4.44166 -8.73838 -3.35363 25
816 1 5.07513 -2.74931 -13.9005 13
817 1 6.33602 -6.74374 -12.3174 12
818 1 4.7873 -0.604644 -11.4094 22
819 1 6.60192 -3.73024 -11.3607 18
820 1 6.46079 -5.75058 -8.81481 21
821 1 4.64111 -2.85559 -8.81104 24
822 1 4.84336 -1.21848 -6.19293 20
823 1 6.27805 -4.06168 -5.85245 25
824 1 6.3166 -6.09398 -3.3068 22
825 1 4.70904 -3.47387 -3.21605 21
826 1 7.62046 -12.9669 -5.97161 14
827 1 9.03815 -4.46739 -11.3633 14
828 1 8.13215 -10.7604 -8.34376 13
829 1 7.91653 -6.95463 -5.82337 22
830 1 9.75967 -10.1849 -5.61391 16
831 1 9.72438 -12.0517 -3.2787 13
832 1 8.11355 -8.85092 -3.52446 21
833 1 8.32574 -8.28137 -10.8194 14
834 1 8.44 -0.991518 -11.3971 17
835 1 13.8785 -3.36326 -9.91422 11
836 1 9.65896 -6.33551 -8.45381 19
837 1 7.73258 -2.80179 -8.53218 22
838 1 7.68261 -1.00442 -5.94112 22
839 1 9.47506 -3.99254 -6.335 21
840 1 9.3837 -5.6298 -3.54151 23
841 1 7.98314 -3.19369 -3.26778 24
842 1 10.8747 -9.38667 -8.51655 11
843 1 11.1308 -7.07708 -5.83095 18
844 1 11.1684 -8.86182 -3.04724 15
845 1 11.7491 -0.882113 -11.7244 10
846 1 12.7837 -6.23519 -8.84434 10
847 1 10.9166 -3.44702 -8.82161 22
848 1 11.1954 -1.22221 -6.00691 20
849 1 12.9685 -4.18693 -6.91746 16
850 1 12.9403 -6.03606 -3.11901 13
851 1 11.3781 -2.84332 -3.5666 21
852 1 15.3477 -1.55195 -6.94576 11
853 1 14.6586 -3.06238 -4.3695 11
854 2 3.40134 -15.2609 -3.79781 15
855 2 1.36719 -12.8145 -8.44451 12
856 2 1.69191 -14.641 -1.13008 15