ITEM: TIMESTEP
24000
ITEM: NUMBER OF ATOMS
2000
ITEM: BOX BOUNDS pp pp pp
-30.0 30.0
-30.0 30.0
-30.0 30.0
ITEM: ATOMS id type x y z Coordination
1 1 -9.41712 3.94836 -14.515 11
2 1 0.0441595 -10.7594 -7.37993 21
3 1 1.02841 11.6517 13.7952 16
4 1 5.72424 -13.9236 5.0061 17
5 1 -11.3976 3.43214 -3.27381 22
6 1 11.2796 -9.2836 -8.70128 13
7 1 -7.77094 0.321601 -6.62196 20
8 1 0.203647 -12.7277 11.3887 10
9 1 -7.14191 -3.75723 -13.4856 12
10 1 -15.6533 -10.0675 8.18897 11
11 1 12.013 -0.0509642 -11.8268 20
12 1 -5.24883 -13.66 6.32485 22
13 1 -12.8475 -10.507 3.84124 12
14 1 -0.655219 3.31187 18.2591 13
15 1 -0.369128 10.2361 -9.12111 22
16 1 1.15878 0.263348 14.4008 19
17 1 -7.37228 -1.03967 -15.2685 12
18 1 -12.5209 -0.645238 14.6377 12
19 1 12.9192 5.25552 2.62801 21
20 1 -1.58537 6.25289 -12.8417 23
21 1 4.65735 5.92473 -14.3345 13
22 1 14.5042 2.61412 10.9223 10
23 1 -13.7292 -0.313127 -8.91283 9
24 1 -8.64116 10.5166 8.16702 14
25 1 3.79878 -16.9332 8.5597 10
26 1 -5.48429 -11.3977 -15.0395 10
27 1 5.24423 -15.9401 0.619065 14
28 1 -6.42387 -17.0017 -3.57405 12
29 1 -15.309 -4.57802 10.4802 12
30 1 -0.645679 -9.09316 -13.0166 17
31 1 8.45384 -11.6217 -14.8162 10
32 1 -1.55942 7.22436 -16.1777 13
33 1 -1.15615 3.4711 10.705 19
34 1 -2.50769 -12.7002 9.70279 19
35 1 3.5132 -8.66167 15.3241 6
36 1 -11.7769 -1.70423 0.483665 21
37 1 -17.9003 0.307299 8.12463 11
38 1 -0.596869 12.97 -4.09016 22
39 1 -3.13381 -14.137 -14.9665 13
40 1 5.78621 -5.19273 -10.4056 21
41 1 2.0204 -5.80506 11.5044 21
42 1 -10.4767 2.03833 -5.65658 22
43 1 3.7799 8.94878 -13.4548 17
44 1 0.986437 11.6598 7.98789 19
45 1 -8.01493 6.03321 -7.46361 26
46 1 -0.0137325 12.6546 -0.326118 20
47 1 1.84793 -16.9195 5.62442 14
48 1 5.35314 -10.7763 -3.97425 23
49 1 9.13064 -5.81721 -14.9601 17
50 1 -9.47288 9.16123 10.7058 12
51 1 -13.3972 -6.3836 -6.58203 17
52 1 -9.76937 5.41806 -2.11009 20
53 1 -11.7239 -11.0714 9.75169 16
54 1 -1.63643 13.6644 15.2056 9
55 1 -13.3801 0.798316 -6.17431 16
56 1 -5.33561 10.9558 12.6584 12
57 1 -7.84427 -13.129 8.1924 20
58 1 4.1448 -20.3063 -5.65099 5
59 1 3.85935 11.0667 12.5718 16
60 1 -13.7069 -3.49994 -6.48648 15
61 1 -11.0708 4.59345 -8.07699 19
62 1 4.28157 5.12405 12.9243 18
63 1 11.5779 -5.54542 -10.0839 16
64 1 7.44567 -14.655 2.63336 13
65 1 -16.4068 -5.0704 5.09437 11
66 1 5.49812 14.0463 10.3472 14
67 1 5.48977 -3.31922 14.57 14
68 1 -7.65381 -13.6666 10.7263 13
69 1 9.00056 4.55519 7.38595 21
70 1 -1.47021 12.9107 9.42079 20
71 1 -2.74704 -9.29371 -10.932 18
72 1 -12.2372 6.88721 5.22112 15
73 1 -9.29949 8.39996 -1.05502 23
74 1 -4.69379 7.292 -11.8751 19
75 1 8.43594 10.7182 -8.66923 17
76 1 4.67809 -11.6653 7.98041 14
77 1 -3.34407 14.1247 -4.85332 14
78 1 -9.27914 8.61191 5.24023 19
79 1 -8.12575 -4.05269 15.9966 10
80 1 -7.54738 -7.23145 11.851 18
81 1 12.3802 -9.36651 -3.16858 13
82 1 -11.1795 4.01331 4.07172 18
83 1 -13.8034 -14.3101 5.61613 9
84 1 11.356 -7.3398 -5.52409 21
85 1 5.79399 0.599448 -10.5212 15
86 1 -4.47085 -2.08542 -16.2726 16
87 1 -0.297949 12.3995 2.95513 18
88 1 -7.72089 6.43241 -10.6728 20
89 1 0.626069 8.41142 18.7521 14
90 1 -0.219385 13.013 -7.16188 22
91 1 -12.2654 9.08221 0.321032 11
92 1 -3.36476 -9.04526 9.17355 18
93 1 15.8652 -0.484723 8.75397 8
94 1 5.43931 -7.86399 -8.76139 19
95 1 3.81692 0.333861 16.6072 11
96 1 -10.0808 -9.09951 -0.450508 20
97 1 -8.65468 -10.619 -3.20171 18
98 1 8.85386 -13.1994 -0.51086 13
99 1 8.73006 2.38379 -15.7945 10
100 1 5.54378 15.9507 5.28883 14
101 1 -10.0157 -12.3297 11.8866 12
102 1 -11.2153 -13.648 7.63141 19
103 1 2.12649 -8.45371 -13.9704 14
104 1 8.70782 -11.6781 1.65345 14
105 1 -4.03816 -17.2149 7.04837 13
106 1 -6.65514 -10.4589 1.84477 17
107 1 14.2023 5.30464 5.07206 14
108 1 16.1694 -5.48487 -5.73492 7
109 1 -14.259 -6.12502 2.33989 12
110 1 10.8287 9.42826 5.02055 19
111 1 12.7424 11.2371 1.6046 14
112 1 -6.64409 2.70562 17.6227 12
113 1 -4.45565 11.7044 10.14 21
114 1 -3.30347 11.442 -5.86313 20
115 1 0.609151 -8.12043 -9.56022 22
116 1 4.9851 -12.3743 -12.6556 13
117 1 2.0976 11.5987 -11.7982 17
118 1 7.62873 -5.17582 12.0069 15
119 1 1.5425 -4.69309 -18.1324 13
120 1 -2.95738 8.58663 -7.37574 18
121 1 14.3733 -0.352475 -4.66134 17
122 1 -11.9491 7.2589 -3.72724 18
123 1 -5.70915 13.7764 -0.382168 11
124 1 9.24331 -0.527984 -11.082 22
125 1 7.71256 -12.0408 4.60407 14
126 1 -7.23221 12.7466 10.4504 11
127 1 8.20903 8.16003 -6.74085 21
128 1 7.50941 11.3223 -5.7805 20
129 1 -1.53045 17.5142 2.69283 12
130 1 9.92034 12.0375 -0.347113 19
131 1 2.38525 14.1689 -3.02415 21
132 1 -0.0888601 13.6675 -10.6426 13
133 1 0.665289 9.44893 -16.1514 10
134 1 -11.5175 -13.9737 3.85933 17
135 1 -13.1548 9.94895 -2.5429 6
136 1 -4.19776 -2.59498 -13.3646 14
137 1 -0.426806 -12.369 -15.4461 11
138 1 8.13988 9.36777 10.1419 16
139 1 2.73236 16.5299 10.6656 11
140 1 -11.5495 -5.59818 -4.61665 18
141 1 -8.41907 11.4113 0.129708 15
142 1 13.5745 -0.205951 -1.53823 17
143 1 -8.28 0.869001 -13.0786 17
144 1 6.22609 1.79365 19.6974 8
145 1 7.30857 13.6743 7.29924 17
146 1 -4.06991 8.5124 8.81441 21
147 1 7.12205 -5.86762 -16.7484 11
148 1 -5.13087 14.5798 10.3245 11
149 1 -0.614413 10.1135 -5.635 21
150 1 1.22744 -5.89149 13.9904 17
151 1 -13.0671 -5.22489 4.8718 19
152 1 -6.07301 -14.2932 -12.916 9
153 1 -7.03134 9.57238 -8.77323 19
154 1 -4.60405 -11.587 4.24814 20
155 1 2.37128 -14.1712 -7.39521 18
156 1 -4.69469 10.1873 -10.3744 17
157 1 -19.0397 1.54554 6.07312 8
158 1 5.30829 6.65773 -6.13462 22
159 1 -7.9257 5.75522 16.1761 10
160 1 -0.946923 -10.4075 10.0109 15
161 1 1.37138 17.1136 7.97254 18
162 1 -1.91406 6.36022 8.98838 22
163 1 13.6773 5.55209 12.1101 11
164 1 -7.57683 13.6255 7.7687 12
165 1 14.3697 -4.13915 -9.26015 16
166 1 -3.67717 13.2947 13.3204 10
167 1 10.514 -10.2672 3.75988 10
168 1 -17.6288 -2.02086 6.04227 11
169 1 -8.10101 -11.6637 3.60809 17
170 1 4.29872 8.28984 14.6344 20
171 1 -11.0485 -1.51465 -5.97845 21
172 1 -2.07492 -14.5702 0.611094 18
173 1 -3.61076 8.5374 5.50939 21
174 1 4.83866 11.598 15.7026 6
175 1 -8.33088 11.4622 -6.33456 12
176 1 -14.3491 -10.6328 -5.93582 13
177 1 -10.7475 -2.02264 11.8898 17
178 1 -1.50587 -10.0556 4.94839 19
179 1 3.13227 -13.6319 5.65381 15
180 1 -14.5008 4.87283 5.85503 16
181 1 14.2176 -1.27912 4.04586 11
182 1 -6.87774 -6.94457 -11.4723 16
183 1 3.91194 -0.331044 12.3242 20
184 1 3.91999 -19.9075 0.892577 10
185 1 -6.01128 6.3643 -13.8523 16
186 1 2.72795 -10.945 -12.3181 16
187 1 10.8398 -0.127621 -14.5914 15
188 1 6.18988 2.63211 -15.1194 13
189 1 -8.03956 -8.14186 -6.01107 21
190 1 -2.80999 14.8189 -7.4943 13
191 1 -10.0695 -8.79251 11.76 15
192 1 6.50095 15.0067 -1.95667 15
193 1 -9.71136 3.16321 15.5227 13
194 1 -6.06235 12.0028 -4.7364 14
195 1 7.18036 -0.0866362 11.0527 20
196 1 -1.90652 -6.02741 -12.5472 18
197 1 -7.36024 9.14874 -12.396 12
198 1 2.89445 6.16567 -8.58763 21
199 1 -7.55343 -10.2727 9.97664 19
200 1 -8.3968 2.61008 4.98423 19
201 1 -6.36833 6.19936 9.2786 21
202 1 2.58828 -11.8673 -5.4212 20
203 1 -5.79532 -17.021 1.32832 14
204 1 11.1548 -12.2557 -2.9506 12
205 1 11.9709 7.97145 12.3737 14
206 1 2.28139 12.0451 -5.25515 19
207 1 -10.8521 12.2259 -0.688793 9
208 1 0.756752 5.82091 10.888 18
209 1 1.70714 -18.7113 -4.67187 16
210 1 10.9999 -1.95138 -1.22764 19
211 1 -8.81303 5.67485 3.66807 20
212 1 -12.5794 -9.46117 -2.47366 20
213 1 9.24442 2.20598 -12.6442 20
214 1 2.46859 -2.86384 13.1806 22
215 1 11.0119 9.55226 -9.63541 11
216 1 -2.19811 -2.98838 -11.11 18
217 1 -3.36788 -15.7314 3.5729 19
218 1 8.15455 -3.36736 -7.17797 21
219 1 -11.8008 -2.10419 3.75319 19
220 1 1.99961 -18.7564 -1.45705 13
221 1 -13.6974 -5.74213 -9.95237 8
222 1 4.53269 12.6043 -0.709335 21
223 1 -1.29227 -2.13036 -15.0142 18
224 1 3.09963 2.84663 18.8032 11
225 1 12.4788 2.819 -0.448284 19
226 1 11.4749 -6.25036 -12.9908 11
227 1 -8.19701 -1.80516 -8.37477 18
228 1 -10.2019 -1.27978 -10.8618 14
229 1 -11.5085 -14.6532 10.1719 9
230 1 8.75829 1.8379 12.7811 15
231 1 -7.82101 -11.7589 -10.4239 14
232 1 2.91755 6.71507 -17.2304 9
233 1 2.2028 11.1384 4.9397 20
234 1 -7.95003 -4.50754 12.9283 21
235 1 -13.4576 -9.03737 -8.38334 13
236 1 -4.82545 -7.63433 -10.1708 17
237 1 -2.69031 10.3106 -15.5673 10
238 1 -5.47347 -10.726 -4.47233 19
239 1 12.0916 -3.81191 -15.142 9
240 1 15.0572 -1.10041 -10.4327 14
241 1 9.65063 3.70688 1.43921 23
242 1 -12.6254 -2.89865 9.99675 21
243 1 -3.17127 -11.8797 0.692791 22
244 1 8.14223 4.29267 18.1627 11
245 1 -8.72122 -18.4144 5.74557 11
246 1 0.0348938 -13.3915 1.48492 20
247 1 0.932475 17.3316 0.66173 13
248 1 6.75724 0.299532 -13.8281 19
249 1 -3.75926 -7.51256 -17.2446 10
250 1 -11.36 -5.8142 12.2779 13
251 1 2.95893 6.80408 20.2759 11
252 1 2.92108 -12.1172 -2.4383 21
253 1 -5.34477 -15.1257 -10.0314 10
254 1 -8.60919 2.84267 -8.17757 19
255 1 6.76263 6.23782 8.20769 18
256 1 -5.82588 4.3627 -9.25991 19
257 1 -1.92045 5.49789 -9.86623 20
258 1 10.8141 -10.9426 -12.2091 10
259 1 -2.82563 13.9074 -1.38197 14
260 1 1.57333 7.8835 5.92765 20
261 1 10.5058 -1.86055 4.34421 19
262 1 -9.14375 -0.451594 6.82571 23
263 1 -3.60426 -5.73717 11.1001 19
264 1 -5.40562 9.12519 3.71964 18
265 1 3.15424 -5.74474 -12.3634 16
266 1 11.8514 8.03244 -1.36162 15
267 1 2.9801 -14.3108 3.16066 19
268 1 -3.71621 -2.46888 15.8784 13
269 1 -15.0316 -6.73721 7.72098 14
270 1 1.23031 -17.0919 -8.61287 12
271 1 -10.6288 5.14056 13.778 13
272 1 -12.5787 2.68544 13.6823 15
273 1 -14.5404 -3.36774 7.30109 20
274 1 -11.3901 -5.46515 7.80716 22
275 1 14.0862 -5.13982 -0.52394 12
276 1 -13.0556 -7.8014 9.94624 15
277 1 8.7374 -3.20505 -9.83276 22
278 1 7.72828 -11.9241 -12.055 13
279 1 3.37206 16.5328 -1.02011 11
280 1 -6.44968 9.20097 -2.6551 22
281 1 10.2983 10.2262 12.7596 12
282 1 8.09932 -11.6803 -2.42239 18
283 1 -2.8632 11.1759 3.58144 21
284 1 3.61079 -13.9988 10.4926 11
285 1 11.5605 -7.16331 4.446 12
286 1 -2.1569 0.200925 15.826 17
287 1 -1.02879 16.1452 6.06896 18
288 1 10.2515 6.4051 17.2975 10
289 1 -8.50841 8.57362 -4.61065 19
290 1 2.17056 -7.18309 -16.8031 13
291 1 5.68655 -8.20336 -15.357 17
292 1 -9.38669 3.04365 11.8559 19
293 1 -11.5391 3.50539 0.404848 21
294 1 -6.16723 9.6244 0.379705 19
295 1 6.66574 -3.58465 9.9067 19
296 1 -13.3067 -13.4435 1.78422 9
297 1 7.40004 -9.21749 6.42539 13
298 1 -7.69185 -6.90714 14.5808 10
299 1 -15.1619 4.89088 0.0509806 13
300 1 1.56238 -13.615 -11.5419 12
301 1 -7.83735 -6.27 -8.21078 17
302 1 2.58249 -3.6114 -13.887 15
303 1 3.69043 18.297 7.26755 9
304 1 -10.8277 -1.4787 -3.00318 18
305 1 5.71378 -8.86627 -12.3223 20
306 1 10.9954 4.86281 -13.9735 12
307 1 -3.97944 -17.0443 -5.67279 15
308 1 -13.3677 -12.0079 -3.95194 9
309 1 12.8486 6.18884 15.1693 11
310 1 9.82241 4.1369 -2.10117 20
311 1 -4.65839 1.54316 -11.4994 23
312 1 3.02626 16.1082 2.94906 13
313 1 -15.1666 -4.11954 -4.16095 13
314 1 -6.3671 6.49951 5.76274 20
315 1 -12.1768 6.1829 -1.18932 20
316 1 10.6712 4.6406 13.1092 18
317 1 13.0698 -1.08911 -8.0645 24
318 1 8.73868 -1.86746 15.7924 11
319 1 10.9665 1.97737 -9.3315 22
320 1 -3.41302 -19.6785 -3.19229 10
321 1 4.92666 -11.1718 -0.624174 18
322 1 10.913 -3.73869 11.4718 12
323 1 -10.2748 -7.64488 -3.33814 20
324 1 -5.60433 -13.7635 2.71853 16
325 1 -9.11857 -5.01193 10.2741 19
326 1 -3.27974 11.8083 0.425831 21
327 1 -10.903 -11.926 -1.67578 16
328 1 6.63253 10.2559 18.5081 8
329 1 -10.2326 5.72461 -5.2137 21
330 1 -2.37559 12.3433 -9.64703 15
331 1 4.46425 12.3579 6.37339 19
332 1 -12.8383 -9.95254 0.594836 16
333 1 -2.25508 -8.87017 -7.9224 22
334 1 -11.7996 0.0906725 5.15199 20
335 1 -13.2512 4.45446 -5.97603 18
336 1 4.05622 -8.54403 8.68841 17
337 1 -4.95156 -14.0521 -1.65338 17
338 1 12.5154 11.2948 6.15942 9
339 1 6.1756 7.23447 -12.0458 15
340 1 -14.0648 3.28217 -8.42113 13
341 1 -2.0267 13.8532 -13.7336 6
342 1 -7.03234 5.93583 -4.29708 19
343 1 -2.04739 -13.1135 3.55412 19
344 1 9.67675 6.32795 2.86302 20
345 1 1.31821 6.48614 -14.7387 18
346 1 -13.8819 0.171577 2.72693 16
347 1 -8.86927 -14.477 5.58291 20
348 1 8.6267 -5.33225 -11.6944 22
349 1 -10.6386 1.10364 2.27579 18
350 1 -14.9883 -1.69266 12.5981 11
351 1 -14.2304 2.63064 4.37333 18
352 1 -8.6737 1.54402 -16.0325 11
353 1 9.00798 -8.68458 -6.90865 20
354 1 0.435606 -10.7863 -11.1834 19
355 1 -4.70003 -2.90949 12.5343 21
356 1 -2.45593 3.14236 -17.2422 15
357 1 3.41142 -21.0456 -2.28673 7
358 1 2.50153 11.6425 -2.16694 22
359 1 -11.7488 9.00715 7.91865 10
360 1 -6.90771 -1.84529 14.3253 17
361 1 -9.04292 -9.57105 -12.3451 9
362 1 -7.57075 -7.31113 8.25707 17
363 1 9.5205 -5.12011 9.5107 14
364 1 9.4273 -7.17755 6.85243 11
365 1 13.3241 7.10956 -5.53987 18
366 1 -4.00165 3.10889 12.7975 20
367 1 1.86693 11.1345 1.01858 21
368 1 -2.62078 -14.59 -3.13509 15
369 1 -5.28393 5.36964 18.1648 10
370 1 -1.85975 16.1917 9.17262 12
371 1 -7.53464 -11.1912 -6.88956 18
372 1 7.78151 14.0926 0.603149 16
373 1 4.05129 6.36366 9.63602 18
374 1 -6.6566 0.660858 9.09452 20
375 1 -11.6165 6.48195 11.3757 11
376 1 -5.14861 -8.83665 -6.92485 21
377 1 -6.86743 9.25314 6.81892 19
378 1 -2.52282 -11.8952 -6.52294 16
379 1 -0.43389 -9.42955 -16.9209 12
380 1 -9.40037 -11.0956 6.54828 18
381 1 9.40018 0.78446 9.69848 14
382 1 -5.17589 -5.77221 14.04 12
383 1 -13.3395 6.97925 -8.22895 9
384 1 9.71684 6.36525 -0.137558 21
385 1 -7.84081 -15.4571 -0.843225 13
386 1 -1.50656 14.9393 1.10074 18
387 1 -1.60977 6.71738 12.1921 21
388 1 -15.4548 -4.7982 -0.514337 10
389 1 1.28246 17.4011 -3.12618 11
390 1 2.18119 12.1585 -8.59381 18
391 1 -6.74398 -9.37656 -9.51214 22
392 1 1.39015 0.189278 17.9348 9
393 1 2.42458 -14.9901 -4.3008 17
394 1 0.177259 -4.96698 -10.9216 18
395 1 3.6194 -16.9248 3.34444 17
396 1 -11.9458 6.59749 2.31768 14
397 1 0.742837 3.08294 16.1649 18
398 1 7.09376 8.38409 -3.78904 22
399 1 -10.0899 7.93972 -10.0803 14
400 1 -14.8892 -7.83214 -0.659875 12
401 1 0.78368 14.7086 9.40083 20
402 1 -3.91332 4.77341 -12.4379 18
403 1 16.3133 8.5762 -5.06705 6
404 1 3.27275 14.0568 -10.0564 10
405 1 14.5165 8.22738 -2.82314 15
406 1 0.630622 0.555807 -11.2422 17
407 1 -2.42112 -14.8229 7.16929 17
408 1 2.96817 -11.1262 10.6191 11
409 1 -9.10004 3.89106 -11.0236 17
410 1 -14.2221 -12.6448 9.60338 11
411 1 -1.59321 -12.6475 -12.8824 15
412 1 8.84265 15.0865 9.84671 7
413 1 2.72361 3.29081 -13.8033 19
414 1 3.02545 -5.50284 16.4414 12
415 1 -14.5582 2.34947 8.60431 19
416 1 -0.26176 -16.3295 2.95707 19
417 1 -11.3357 -4.7876 1.79388 18
418 1 13.258 -6.64496 -7.58658 15
419 1 9.53993 -2.02785 1.78239 18
420 1 2.98925 -8.96493 -6.97897 25
421 1 4.9474 3.40125 -11.8888 16
422 1 11.0178 -2.26786 -4.80898 20
423 1 -7.9973 0.382079 16.0478 15
424 1 5.51826 14.5886 1.91065 17
425 1 -5.15237 0.56013 -17.2418 14
426 1 5.93399 0.348951 -16.7983 13
427 1 -6.15035 -4.76021 9.17418 18
428 1 -3.23498 14.1907 4.27399 21
429 1 -3.62407 -4.95535 -15.0681 14
430 1 -14.842 -3.02106 4.8448 16
431 1 -2.58634 -12.1638 -17.8564 9
432 1 -6.93543 -10.5399 12.8331 13
433 1 2.44951 8.75467 -6.75655 21
434 1 12.7843 0.0909457 6.89097 17
435 1 12.9039 5.8598 -0.139621 17
436 1 -10.8566 -14.6393 -0.71339 14
437 1 -0.0592297 -1.55504 -18.4412 13
438 1 -6.54847 9.32106 10.4659 19
439 1 13.5867 -3.06651 -2.83452 16
440 1 4.46655 16.0064 -7.58817 9
441 1 13.1383 4.56898 -8.42676 17
442 1 -1.00248 9.25494 14.2581 20
443 1 -11.5469 2.67615 6.75094 19
444 1 5.52607 7.96483 11.4349 18
445 1 8.79908 1.25936 17.546 11
446 1 -0.492213 3.67958 -14.3023 19
447 1 -1.15995 -2.00568 14.1607 18
448 1 4.06601 15.3016 8.0125 18
449 1 8.25836 8.02195 -10.1248 21
450 1 -5.67267 8.5953 -5.75231 21
451 1 5.37581 12.8179 -3.87281 18
452 1 11.3434 -1.95862 13.8192 10
453 1 12.4546 2.25876 -14.4988 12
454 1 8.35185 -12.3685 -5.40602 16
455 1 11.53 10.186 9.88132 10
456 1 -11.3614 -7.79861 2.917 17
457 1 -4.78273 12.1316 -13.7693 10
458 1 -11.9923 3.34934 10.3341 20
459 1 -5.18644 12.6056 -8.09136 11
460 1 2.92797 -15.453 -1.45543 15
461 1 5.42979 -2.48207 -8.90954 20
462 1 -0.687078 15.4704 -2.21994 18
463 1 -9.35388 -6.19276 -12.6153 9
464 1 6.21926 -17.0483 5.52755 11
465 1 -9.04185 -5.78999 0.11721 18
466 1 0.838509 8.96505 -13.2354 16
467 1 -1.89953 8.62124 17.0089 15
468 1 -8.05619 -5.0127 7.15843 19
469 1 3.12829 -11.3801 -8.85824 18
470 1 4.62596 -8.07177 11.9871 12
471 1 -9.31303 5.62847 0.901386 21
472 1 4.79452 4.63082 18.8919 14
473 1 4.62094 15.9964 -4.16805 14
474 1 11.5871 -5.07805 -3.06883 20
475 1 1.85864 8.40862 12.4292 22
476 1 2.55065 3.35254 -17.6459 12
477 1 -4.95028 -14.9961 9.80825 17
478 1 8.51826 -2.91428 -13.4495 20
479 1 2.11954 14.5908 6.11427 20
480 1 7.39271 2.40706 -9.11407 20
481 1 -1.53193 0.659076 -16.7367 17
482 1 -2.75454 -11.8154 -2.80601 22
483 1 -11.5784 -3.63525 -11.8107 13
484 1 12.7477 2.6886 4.64456 16
485 1 15.299 5.29377 -3.65468 11
486 1 8.37412 -6.22843 -8.47653 21
487 1 12.5801 5.26036 8.77399 13
488 1 5.20854 -13.6343 -4.85614 18
489 1 2.90063 0.462034 -19.0159 8
490 1 7.85667 10.0078 6.11791 14
491 1 10.0807 8.33708 15.3914 12
492 1 10.3442 7.18805 -3.99567 20
493 1 11.0971 -7.73 1.15817 16
494 1 13.9961 2.022 -9.43455 12
495 1 7.37011 4.44112 13.5186 17
496 1 14.7449 2.74622 7.67455 11
497 1 12.1767 13.1612 -4.15959 10
498 1 -1.34703 2.96297 14.2743 18
499 1 16.194 -2.73853 -7.58846 13
500 1 7.50917 3.01906 10.1161 20
501 1 -7.47162 0.780843 -10.385 19
502 1 10.3074 3.74213 4.88414 21
503 1 -13.8752 4.96026 11.751 10
504 1 7.67727 12.5108 11.3359 12
505 1 11.0012 2.55666 8.19027 17
506 1 0.965334 8.21927 9.13018 19
507 1 1.09498 11.1869 11.2032 16
508 1 -0.308595 -17.093 -1.92961 17
509 1 -3.94253 11.312 -2.4599 21
510 1 10.998 10.1165 -6.15607 16
511 1 11.6363 -2.79309 -11.0048 21
512 1 2.50554 14.2661 0.513124 18
513 1 -3.62291 -11.4148 -9.1934 11
514 1 5.4648 -10.8582 -15.2426 11
515 1 -12.1896 0.0565562 8.69146 23
516 1 -3.64281 5.22541 -15.4462 17
517 1 -6.38552 -16.9419 4.46918 18
518 1 -5.08031 -1.51942 -9.9806 16
519 1 -8.5682 0.371808 -3.13853 21
520 1 7.06835 -9.09096 3.41822 16
521 1 12.1692 14.8321 1.96263 12
522 1 0.159109 -11.5844 7.33412 16
523 1 -14.0212 -7.31635 -4.07843 18
524 1 2.91536 -1.25822 -16.6815 17
525 1 -6.4026 7.51429 12.8881 13
526 1 6.87921 9.2452 -14.0181 8
527 1 12.6437 -0.171665 12.2913 10
528 1 8.32975 2.92041 -6.06491 18
529 1 10.1559 15.0622 -0.678229 15
530 1 3.76142 -16.5178 -6.47124 12
531 1 -10.8922 -5.4126 15.2432 11
532 1 11.2335 -4.58781 4.93618 16
533 1 -0.380334 11.4154 16.8354 12
534 1 9.16405 9.88409 -11.9412 11
535 1 -14.6025 5.70106 -3.943 13
536 1 6.80057 11.2984 1.758 21
537 1 -8.8788 -14.8658 2.13978 24
538 1 9.03594 -5.40612 3.23492 19
539 1 7.53608 13.0155 4.53215 20
540 1 -4.32863 5.36143 11.1315 21
541 1 -10.0358 -6.82613 5.78242 18
542 1 -11.4646 -2.94172 -9.16032 19
543 1 6.7954 0.0936876 14.9565 16
544 1 -3.38178 -13.8101 12.1664 9
545 1 1.68977 5.70401 17.232 20
546 1 -5.84614 12.319 2.26918 20
547 1 0.22905 1.9088 -19.5429 12
548 1 -9.93278 -2.35656 8.94555 23
549 1 10.3567 -1.2476 -7.83494 21
550 1 11.4454 -10.4989 -6.05063 12
551 1 10.2877 1.04397 6.29415 19
552 1 -10.1453 0.844396 13.8307 18
553 1 9.60018 8.45596 8.00369 18
554 1 -0.657461 -4.37996 16.162 11
555 1 -3.53567 5.86339 14.328 16
556 1 0.446721 -4.91248 -15.1772 19
557 1 -6.65812 3.58006 10.5858 20
558 1 4.75154 2.26182 14.1005 14
559 1 -10.6763 -16.6494 6.91888 12
560 1 12.4347 5.27414 -2.7024 22
561 1 8.42002 -14.343 -3.57264 11
562 1 4.6002 9.34572 1.04209 23
563 1 10.0045 12.1702 2.7696 20
564 1 5.8832 -2.08034 -15.2703 18
565 1 5.82716 13.2561 -7.89136 11
566 1 10.7308 8.69421 1.90876 18
567 1 -5.45241 -10.8886 -1.35512 19
568 1 -3.10445 -0.233498 -19.0209 10
569 1 -10.7094 10.5587 2.45163 11
570 1 8.44757 -8.33568 -13.8267 20
571 1 11.3745 6.60373 -10.8642 14
572 1 9.93236 12.8647 -6.07481 13
573 1 13.2449 2.84441 13.7315 12
574 1 10.9716 0.636506 15.5322 14
575 1 -2.33011 -16.2106 9.91201 12
576 1 -3.39769 8.66231 -13.4266 18
577 1 5.37297 10.7811 9.64637 16
578 1 8.2934 -8.94698 -16.8264 10
579 1 7.39834 14.8691 -5.57062 14
580 1 4.81921 9.30552 4.50376 18
581 1 13.7965 -6.3688 -3.77465 15
582 1 6.29003 6.85154 18.9337 13
583 1 -12.0793 -2.24735 6.64815 22
584 1 1.39483 -19.0571 2.9963 11
585 1 -6.89018 14.8336 3.82396 10
586 1 7.0539 8.39839 3.09539 21
587 1 -14.7434 -0.342632 5.97665 18
588 1 -3.58826 3.50032 15.7067 19
589 1 -6.21215 3.59083 -16.2452 14
590 1 -9.81087 6.86688 -12.7539 10
591 1 1.73434 -16.7838 1.03052 15
592 1 8.02311 5.43196 -5.02643 21
593 1 -12.8947 5.20175 8.17617 15
594 1 -0.173136 -2.23111 -12.6766 20
595 1 0.949978 -14.8864 9.14599 13
596 1 0.322003 15.1608 3.82535 17
597 1 -5.2332 0.319382 18.1222 9
598 1 -10.8081 -6.83514 -8.522 17
599 1 -5.51413 -9.82334 -12.3748 17
600 1 -5.72045 -13.0125 -7.50365 13
601 1 -1.0224 16.2677 -5.53378 12
602 1 -3.94968 11.2614 7.13996 18
603 1 5.7668 -10.8747 -7.05263 22
604 1 -0.19948 -22.4324 2.68759 5
605 1 1.48182 -8.91006 10.5921 15
606 1 16.0866 0.107313 -7.64376 11
607 1 -0.232994 -13.9047 -9.57098 13
608 1 -15.0665 -1.05773 9.30622 18
609 1 -2.5511 -18.2505 0.99758 11
610 1 -5.7338 -14.1373 -5.12787 14
611 1 -9.88957 0.67395 10.0878 19
612 1 -8.85053 -17.672 2.35901 9
613 1 14.4991 2.46679 -6.24294 15
614 1 -4.19675 16.6464 5.01016 10
615 1 -15.4251 6.15387 3.22735 10
616 1 14.4321 -2.19904 1.17327 10
617 1 -11.1989 1.12582 -8.76743 15
618 1 11.0321 1.41182 -6.48007 19
619 1 7.44192 7.8876 15.6091 19
620 1 -15.6075 -1.05817 -5.80983 10
621 1 -11.5982 -8.60065 -5.88105 21
622 1 -1.92943 5.90785 18.2141 15
623 1 4.44942 3.81681 -8.75668 17
624 1 9.69162 12.4192 7.44848 14
625 1 -4.57808 -0.0216194 10.8979 21
626 1 -4.09424 -17.1503 -1.88951 14
627 1 -9.24117 -16.2214 9.29515 11
628 1 13.3049 8.27735 7.52759 12
629 1 2.99872 -8.55129 -10.7081 19
630 1 -8.92867 -5.64057 3.44654 18
631 1 9.54453 7.15886 -13.6129 13
632 1 -1.29552 -19.1332 -6.34674 11
633 1 -2.04941 -21.5518 -0.256962 7
634 1 -0.35892 -16.4065 -5.99001 15
635 1 7.65177 -0.402722 -8.5692 18
636 1 9.45059 15.2396 2.78605 13
637 1 -2.39966 -0.196497 -12.6211 21
638 1 -1.91544 0.553096 12.0909 22
639 1 -0.340989 5.08038 -17.955 14
640 1 -9.92004 -1.74533 -13.9825 10
641 1 -12.1364 -6.60582 -1.44025 22
642 1 2.15509 15.0163 -6.85934 14
643 1 -1.45322 -4.21703 -17.6858 12
644 1 9.46098 4.83658 -7.69649 22
645 1 10.2829 -7.4982 -2.0261 18
646 1 -9.02749 6.31961 10.612 18
647 1 4.73376 -11.5245 2.99786 19
648 1 12.9292 -7.8054 -0.795369 14
649 1 13.2914 -2.32177 9.89965 15
650 1 -1.31564 9.51471 7.71119 21
651 1 -14.0491 1.37924 11.6134 12
652 1 -9.06596 2.90267 8.37966 19
653 1 -3.58234 -11.4378 7.08992 18
654 1 5.63588 5.59149 15.9008 16
655 1 -15.5257 -1.89906 1.74924 10
656 1 8.14055 -9.0094 -3.77474 14
657 1 -9.11915 10.956 -3.3443 13
658 1 0.386201 -17.3729 7.91681 10
659 1 1.67252 -2.47179 16.3583 14
660 1 -0.467112 12.2537 5.80222 21
661 1 1.28676 -11.8217 4.38546 19
662 1 1.54907 2.75219 12.5294 19
663 1 -15.7779 -9.86159 -2.52391 9
664 1 1.40834 8.76707 15.9635 19
665 1 4.33378 12.5672 3.10304 19
666 1 -12.6951 -11.2351 7.33426 17
667 1 -7.02674 -16.029 7.52554 15
668 1 6.55604 -6.57328 8.39883 15
669 1 11.9289 -4.84637 8.3498 15
670 1 8.48049 7.16364 5.4242 19
671 1 0.0731182 -10.7191 -4.11184 21
672 1 -2.80074 2.49593 -14.4892 22
673 1 -4.54614 0.348591 14.1859 22
674 1 0.959792 18.137 4.875 12
675 1 14.2578 -4.9474 4.88128 9
676 1 6.63168 5.91247 -8.58328 19
677 1 -5.29764 7.74699 16.2067 10
678 1 8.38611 6.98536 13.1724 17
679 1 5.77089 -2.64465 -12.0584 21
680 1 -8.07462 -12.5609 -0.452367 18
681 1 12.9153 -2.5573 6.76232 17
682 1 2.54181 -3.2155 -10.6242 18
683 1 -0.650882 5.99624 15.4876 20
684 1 5.7456 -13.6333 -9.48185 9
685 1 9.09995 4.95522 -10.4724 18
686 1 11.9227 3.3564 -11.2591 16
687 1 13.7191 2.75605 -3.78384 14
688 1 -1.94332 -5.07352 13.0008 15
689 1 -3.9928 -8.15558 -13.752 17
690 1 7.42385 11.2913 -2.3806 20
691 1 -17.6987 4.60353 4.52434 10
692 1 11.5266 4.31502 -5.87726 20
693 1 13.9462 8.74478 0.49919 15
694 1 6.13127 -5.56207 -13.6817 21
695 1 -8.2385 11.803 4.75298 13
696 1 15.4543 6.3136 2.29992 11
697 1 11.2703 7.5192 -7.59739 17
698 1 3.53245 0.400408 -13.298 17
699 1 10.0758 -4.86115 0.104673 17
700 1 -12.1165 0.509705 -1.62159 19
701 1 13.3349 8.75757 3.78062 16
702 1 -10.4453 -12.0017 1.42213 18
703 1 -10.2571 8.39132 -7.32144 14
704 1 4.75978 3.05746 11.3992 20
705 1 -10.1121 -4.52786 -6.77065 20
706 1 -9.19097 5.97898 7.26689 15
707 1 9.45546 -8.43995 -10.6459 18
708 1 -11.2894 -11.4097 -7.0045 10
709 1 10.779 -10.6745 0.0167669 15
710 1 -14.4772 1.11734 -0.128146 17
711 1 11.3919 6.54395 5.43241 19
712 1 -6.71246 -9.81437 6.41601 18
713 1 10.2621 3.49532 15.5351 15
714 1 15.2898 -3.85931 10.2332 7
715 1 -16.1927 2.96694 1.60755 11
716 1 -0.98051 9.62005 11.0097 19
717 1 3.48124 5.81889 -11.0537 22
718 1 -1.24534 -6.67255 -16.3438 16
719 1 -3.95323 14.2521 7.56846 19
720 1 -17.7502 -12.7737 9.82348 4
721 1 5.43172 9.21382 -8.08434 19
722 1 1.63658 6.26163 13.9693 19
723 1 13.8021 -3.22963 -5.98631 19
724 1 4.52234 -5.66927 13.5674 17
725 1 -1.67106 11.0422 -12.4105 19
726 1 2.51017 8.90327 -10.2464 21
727 1 -7.12695 -2.40545 10.702 20
728 1 14.5923 3.02383 2.144 11
729 1 -1.96665 -6.01024 -9.08802 20
730 1 12.5663 12.9937 -1.16523 14
731 1 -14.4936 -2.31849 -1.30028 13
732 1 -5.24144 -11.3749 10.1576 20
733 1 5.73366 10.1329 -10.9554 16
734 1 5.0316 -2.97633 11.8872 22
735 1 -0.00209029 -13.7531 -1.78112 19
736 1 -4.30277 15.5719 2.05975 14
737 1 -14.1283 3.35067 -1.68907 16
738 1 11.2184 -4.60234 -6.48282 21
739 1 -2.73738 -10.336 -15.4408 18
740 1 -7.79057 8.65324 2.30665 18
741 1 10.8097 10.6762 -2.90144 17
742 1 8.4222 -2.50178 -16.4539 10
743 1 -9.77189 -9.59472 -8.71705 16
744 1 -2.09667 -16.5601 -8.40822 13
745 1 -3.72673 11.1525 15.6697 10
746 1 5.94182 -13.9433 -2.19104 16
747 1 -2.38771 8.18084 -10.1877 19
748 1 10.9854 0.961408 -3.5152 21
749 1 7.33799 8.70995 -0.239928 20
750 1 -0.45215 -20.3762 -3.13381 11
751 1 3.81015 -5.79027 -15.6555 19
752 1 12.2584 0.442208 2.13403 18
753 1 -1.97331 2.88707 -11.178 22
754 1 -0.913875 -7.48548 11.4603 17
755 1 4.37309 9.73167 -5.21596 18
756 1 -15.4496 2.36112 -4.89561 12
757 1 -17.4808 3.40023 7.73168 10
758 1 -0.380419 5.09385 21.0179 6
759 1 -10.0209 -8.92816 8.32484 21
760 1 4.06257 8.90234 7.71104 16
761 1 -1.80752 -17.8576 5.35725 10
762 1 4.8923 9.62625 -2.0363 24
763 1 -3.69276 8.68128 11.8426 18
764 1 -7.65667 0.024613 12.2942 21
765 1 -5.64862 12.7803 5.47984 19
766 1 -4.9931 -8.60188 12.1303 13
767 1 6.61558 -17.9293 2.65065 10
768 1 9.90504 5.74009 10.0345 16
769 1 8.22548 -6.16225 -5.42064 19
770 1 7.21554 -9.71599 -10.0057 19
771 1 -5.30245 0.728847 -14.4822 21
772 1 0.52271 0.869724 -14.3988 18
773 1 7.28741 9.93833 12.9386 16
774 1 -13.7682 -3.98963 13.7076 9
775 1 -5.39801 7.05772 -8.16678 20
776 1 -13.9299 -0.779197 -3.73551 16
777 1 9.4035 13.3742 -3.18603 17
778 1 -11.2724 -16.9216 4.09482 14
779 1 10.6551 14.2896 5.22529 14
780 1 -8.27125 -14.0477 -2.86234 14
781 1 2.90963 13.3234 10.7858 18
782 1 -9.9964 -1.65412 15.9845 11
783 1 -3.11996 -15.6042 -11.729 10
784 1 10.276 -1.98827 8.18333 19
785 1 5.71673 -15.1322 7.76956 13
786 1 4.04972 8.05984 17.6536 20
787 1 13.6771 -1.03305 -13.8782 10
788 1 7.38284 -8.98586 -0.364816 20
789 1 1.19793 4.10072 -11.611 20
790 1 -9.02254 -4.32475 -10.6046 18
791 1 -6.78665 3.30335 -12.4642 21
792 1 -6.7417 2.54488 14.25 19
793 1 8.13593 -2.03503 12.8896 19
794 1 -8.55077 -8.94932 3.83899 16
795 1 13.6946 -5.50879 2.13791 11
796 1 0.405461 7.05263 -10.7861 21
797 1 14.4547 10.8312 -2.40273 11
798 1 -0.601721 14.7927 12.0005 15
799 1 -12.8352 -8.17921 6.96028 18
800 1 9.00657 -11.8341 -8.49631 13
801 2 -15.0087 -2.75375 -5.19571 11
802 2 -5.40244 10.3678 -3.55954 18
803 2 0.248476 -2.98994 -10.9554 20
804 2 -3.50037 6.45225 12.3635 16
805 2 7.52822 -11.6946 -7.10899 17
806 2 -9.38698 -5.57773 -9.19452 19
807 2 0.561808 2.37631 14.4468 17
808 2 3.01494 0.814106 18.5383 10
809 2 -12.1889 -12.1964 2.77691 14
810 2 -15.1098 0.346284 -4.78984 10
811 2 2.4046 12.6143 6.39554 17
812 2 -11.0777 -0.246123 3.4486 21
813 2 0.275443 15.6468 -6.64537 12
814 2 9.63381 2.77758 3.37501 19
815 2 1.23474 13.3727 -4.0991 20
816 2 7.75146 10.027 -4.40222 22
817 2 -10.6251 -5.04778 -12.4436 12
818 2 -11.6583 -9.60841 -7.83199 15
819 2 2.07734 0.83241 12.5949 19
820 2 8.73995 -2.01399 -8.38269 21
821 2 1.45816 -17.142 3.61691 16
822 2 -5.38526 8.47219 -1.19662 21
823 2 -12.4082 -1.04521 -4.64897 16
824 2 7.19077 5.69804 6.44877 19
825 2 9.24703 -11.7878 -13.1571 10
826 2 -12.1634 -13.7947 0.441786 13
827 2 -9.65815 -4.44019 8.10395 22
828 2 -3.6036 -15.9045 8.58002 14
829 2 9.48669 -5.2685 11.3332 11
830 2 0.458766 -18.2253 -7.00307 12
831 2 4.49732 -1.76444 13.3399 20
832 2 -0.985893 9.50744 -7.30949 18
833 2 4.99767 -15.4947 9.72962 8
834 2 -9.3774 -15.1139 -1.75779 13
835 2 -0.225977 4.55233 16.829 17
836 2 -10.042 3.28027 -1.73925 20
837 2 -2.49268 2.01054 15.902 18
838 2 -3.78496 9.29647 -5.63335 21
839 2 3.86257 -20.3642 -3.94057 7
840 2 -0.352894 12.311 -9.05626 18
841 2 11.0422 12.6217 6.10313 13
842 2 8.17007 11.9262 6.6565 16
843 2 12.146 -2.22693 -6.71172 19
844 2 -5.36697 8.95378 12.3741 14
845 2 7.70907 2.14249 -13.9367 15
846 2 -5.33472 9.03302 -12.9793 16
847 2 11.0103 8.65401 -3.02718 19
848 2 -6.98735 -4.98221 14.5232 16
849 2 -16.1909 5.29455 4.98412 10
850 2 12.5761 0.314079 -14.2982 11
851 2 -12.264 -5.19146 13.8421 10
852 2 2.35882 -10.4074 -10.231 20
853 2 -4.25116 -1.04802 -17.7988 10
854 2 -12.1129 -6.35072 6.14553 18
855 2 11.7091 11.8268 0.230325 20
856 2 -3.45547 9.43096 3.66654 20
857 2 -0.456794 -11.6845 -5.74114 18
858 2 -5.15257 15.0044 4.48128 14
859 2 7.2588 -2.46018 14.6677 14
860 2 3.51763 -9.2439 10.559 14
861 2 13.8663 1.76663 3.40706 14
862 2 3.09371 15.4198 -8.74063 11
863 2 -10.4579 0.20142 -2.54685 20
864 2 14.3561 4.0371 6.44807 10
865 2 11.7743 -10.8279 -3.97804 11
866 2 7.44773 -10.879 -3.97482 20
867 2 -4.51061 11.8552 14.0333 12
868 2 4.12465 -12.9725 4.14219 16
869 2 12.7424 -4.49772 6.61271 16
870 2 14.3343 9.38432 -1.2469 14
871 2 -4.91443 -1.71135 14.2871 18
872 2 13.1272 -7.73021 -2.57592 15
873 2 -1.04729 8.24008 9.39837 19