ITEM: TIMESTEP
8000
ITEM: NUMBER OF ATOMS
2000
ITEM: BOX BOUNDS pp pp pp
-30.0 30.0
-30.0 30.0
-30.0 30.0
ITEM: ATOMS id type x y z Coordination
1 1 -9.79542 4.71191 -13.5987 14
2 1 -2.987 -11.4391 -10.0881 19
3 1 1.79102 13.0456 13.7224 13
4 1 7.95803 -14.0912 7.18228 9
5 1 -14.1283 6.05319 -2.39857 17
6 1 11.8496 -10.2104 -10.4972 11
7 1 -9.30378 0.619057 -6.37388 21
8 1 1.13213 -11.3391 10.5428 13
9 1 -7.3058 -2.40199 -13.7066 18
10 1 -12.0769 -9.68112 6.11828 19
11 1 13.2751 0.376273 -10.8501 12
12 1 -5.98854 -14.727 3.67514 15
13 1 -13.4859 -9.6025 2.92297 16
14 1 -1.75608 2.64363 18.9012 11
15 1 -0.0562044 9.90309 -8.92612 19
16 1 1.1285 0.364032 13.973 19
17 1 -9.18189 -0.678063 -15.9134 11
18 1 -12.2331 -2.49742 13.7199 10
19 1 14.3543 5.06573 5.66808 17
20 1 0.899831 8.24423 -10.7944 23
21 1 2.95663 5.71316 -12.4586 19
22 1 14.2277 2.46286 11.4453 14
23 1 -13.5741 1.40578 -9.58182 14
24 1 -9.0109 11.404 8.43726 13
25 1 5.44429 -16.4945 6.75483 11
26 1 2.27668 -14.7641 -10.6386 11
27 1 8.35592 -12.1614 0.399921 19
28 1 -7.73151 -15.5286 -4.6855 12
29 1 -13.8128 -6.70536 11.0865 9
30 1 -0.0568016 -7.43719 -13.1682 22
31 1 9.2901 -12.1534 -10.5615 14
32 1 -1.99811 3.53788 -16.6431 12
33 1 -0.980112 2.80836 10.8485 21
34 1 -1.63412 -13.8286 7.69062 19
35 1 6.06792 -6.96112 12.9182 8
36 1 -11.4656 -2.95326 -0.0101446 21
37 1 -16.3561 -2.74869 8.57752 14
38 1 -5.47101 10.1565 -1.17581 18
39 1 -0.693372 -15.4256 -12.7863 8
40 1 4.96907 -4.85764 -10.5935 19
41 1 0.955949 -5.86726 10.775 20
42 1 -11.1929 3.878 -2.80402 19
43 1 4.6689 11.3779 -12.437 15
44 1 0.623001 11.0263 7.58152 22
45 1 -7.53384 9.2514 -8.46278 19
46 1 -1.54541 12.7596 -0.582572 16
47 1 2.13903 -15.1537 1.82671 20
48 1 4.75932 -10.9163 -4.86251 17
49 1 7.03053 -7.92312 -17.8039 7
50 1 -9.55158 8.20396 8.98233 16
51 1 -12.7605 -6.16006 -9.43226 10
52 1 -8.13815 5.60492 -3.19034 23
53 1 -10.4084 -11.6694 8.05831 22
54 1 -1.3517 12.6954 12.3008 19
55 1 -11.1548 2.4311 -7.1265 18
56 1 -5.67252 10.9158 13.4355 12
57 1 -6.40524 -15.9915 7.98124 12
58 1 6.74722 -18.2363 -1.85886 9
59 1 4.30243 10.6272 14.5113 17
60 1 -13.9448 -1.86594 -9.0117 12
61 1 -11.9757 4.501 -9.20527 15
62 1 4.08327 5.54829 12.4515 18
63 1 11.9707 -5.35983 -10.2976 16
64 1 7.20558 -12.9256 3.20966 12
65 1 -17.2316 -5.74417 6.14795 11
66 1 4.72922 14.9276 7.43093 15
67 1 5.13516 -3.66778 13.281 16
68 1 -7.04908 -13.2229 8.73766 21
69 1 11.6836 3.75049 7.68307 16
70 1 -1.97981 12.2676 9.12943 22
71 1 -3.3953 -8.15479 -11.3106 21
72 1 -12.612 7.73136 8.38712 15
73 1 -8.65243 8.14166 -1.70346 21
74 1 -5.03861 7.05611 -10.9703 17
75 1 10.3793 12.2776 -8.44267 12
76 1 6.94437 -11.3926 8.63229 12
77 1 -5.22059 12.1186 -5.35002 18
78 1 -10.4899 10.0255 2.90988 15
79 1 -7.7788 -4.35869 16.1876 10
80 1 -6.42104 -8.3682 12.3571 16
81 1 11.7142 -10.5359 -4.03468 14
82 1 -11.7473 2.80064 3.69998 20
83 1 -12.1097 -15.7711 3.59559 11
84 1 9.80511 -8.53592 -5.7657 19
85 1 5.01208 0.914525 -10.5502 16
86 1 -5.65013 0.275192 -16.7988 15
87 1 -0.495437 12.8078 2.66261 17
88 1 -7.82837 5.70224 -9.83383 20
89 1 0.833109 8.32624 17.8998 12
90 1 0.37776 12.8142 -6.16916 23
91 1 -13.7141 8.8155 2.301 13
92 1 -4.61114 -8.59198 9.45124 22
93 1 14.9971 -0.367074 10.7018 13
94 1 4.10605 -7.69396 -9.26907 20
95 1 5.3799 -1.53178 16.2267 14
96 1 -8.83752 -8.87284 -1.24664 18
97 1 -8.65826 -9.48359 -4.19277 21
98 1 10.4666 -10.7016 2.16419 12
99 1 8.75315 1.05956 -15.5068 12
100 1 5.41153 17.8649 2.7871 10
101 1 -8.65081 -13.2432 10.884 14
102 1 -11.1784 -14.8413 9.91187 13
103 1 3.48713 -10.6588 -14.3244 12
104 1 7.87929 -9.78026 3.0927 19
105 1 -3.18006 -17.1155 7.51759 10
106 1 -8.6215 -8.85531 2.20963 16
107 1 15.9565 6.21518 8.35056 12
108 1 15.2168 -5.03926 -8.56289 8
109 1 -16.6852 -4.63821 2.79815 10
110 1 8.79517 7.98799 5.90468 18
111 1 15.7229 9.88458 3.15249 12
112 1 -6.83434 2.9561 17.5293 11
113 1 -3.49175 9.83713 11.4888 23
114 1 -2.96975 11.2932 -7.08119 21
115 1 -0.709736 -7.50676 -9.61498 22
116 1 6.10398 -13.3162 -10.4825 11
117 1 1.72493 13.9667 -11.6643 12
118 1 7.67934 -4.96342 11.2144 14
119 1 1.96633 -3.45101 -19.0233 11
120 1 -3.39386 8.50591 -7.95967 18
121 1 12.8051 0.178256 -5.06909 16
122 1 -11.7238 8.57738 -6.16276 15
123 1 -7.08073 12.5841 -0.308116 17
124 1 8.21621 0.183236 -12.011 17
125 1 7.2261 -11.4032 5.3276 16
126 1 -6.11527 12.6156 9.90827 13
127 1 11.1671 7.72315 -5.98511 20
128 1 9.09927 11.026 -6.0625 18
129 1 -2.54853 16.2759 2.40954 13
130 1 9.52323 10.486 -0.931113 21
131 1 -2.30585 12.5206 -3.62644 21
132 1 1.36104 14.4518 -8.26013 18
133 1 3.73151 8.88863 -13.3216 16
134 1 -11.8395 -12.7294 4.89593 18
135 1 -14.2232 9.53687 -1.23603 13
136 1 -5.08948 -4.20072 -12.7622 22
137 1 0.221973 -10.5453 -14.9722 15
138 1 8.4323 10.8782 8.35407 18
139 1 -0.942416 14.6888 7.75031 19
140 1 -10.2312 -4.34246 -5.31802 19
141 1 -11.6978 11.9678 -1.18299 11
142 1 14.0452 -2.34507 -2.85215 13
143 1 -10.5078 1.30477 -14.4494 15
144 1 6.36554 1.59351 18.4161 11
145 1 4.11678 18.3646 6.12082 7
146 1 -4.51382 7.67056 9.04404 21
147 1 2.1781 -8.26792 -16.8304 11
148 1 -4.2715 14.8231 9.05186 14
149 1 -0.441005 10.0377 -5.27424 19
150 1 1.83249 -5.68916 13.5585 16
151 1 -12.2261 -6.23603 5.39164 20
152 1 -2.05862 -12.9213 -15.3525 10
153 1 -7.91239 11.8406 -10.5531 8
154 1 -4.36764 -11.8712 3.99548 17
155 1 3.73579 -16.6042 -6.45153 11
156 1 -4.46324 9.89602 -10.7486 19
157 1 -16.116 0.592881 8.3122 12
158 1 7.54378 8.33986 -5.91052 18
159 1 -8.12246 5.57073 15.2499 13
160 1 -2.07908 -10.1925 7.14091 20
161 1 1.34436 16.4013 5.51807 17
162 1 -1.65216 5.86643 9.17902 21
163 1 12.2751 4.79144 12.4502 19
164 1 -7.14885 14.847 6.68926 10
165 1 11.5558 -7.51632 -8.49898 16
166 1 -3.99113 13.8448 12.6643 11
167 1 10.5411 -7.6559 1.72667 19
168 1 -16.7699 -1.97611 6.0519 13
169 1 -10.0666 -13.6255 2.03508 14
170 1 3.8783 6.69931 15.6731 20
171 1 -14.6495 -1.09535 -3.20581 14
172 1 -3.56309 -14.6415 1.3588 20
173 1 -3.77396 8.05594 5.81183 22
174 1 4.83655 12.1257 11.6599 18
175 1 -8.99063 11.2712 -6.26088 14
176 1 -13.6985 -7.0682 -6.4885 13
177 1 -9.66142 -2.70402 12.2147 16
178 1 -0.453135 -12.1177 5.64256 15
179 1 2.22507 -15.2435 6.73707 16
180 1 -14.5415 9.13532 5.30502 9
181 1 17.2127 1.29453 5.18862 9
182 1 -5.28094 -7.97214 -13.4901 17
183 1 4.12478 -0.111464 12.5633 20
184 1 4.91475 -18.2899 3.6111 9
185 1 -2.14542 6.67146 -13.1868 22
186 1 3.70138 -11.7888 -11.6469 20
187 1 9.45818 -1.96595 -13.6701 14
188 1 3.32261 4.9141 -15.5056 12
189 1 -7.57897 -4.90451 -7.4707 20
190 1 -3.80426 14.5705 -8.03612 11
191 1 -11.7366 -12.1076 11.5492 13
192 1 7.33591 15.5077 -2.18993 11
193 1 -10.1025 2.05217 15.9727 10
194 1 -7.58414 11.162 -3.32974 21
195 1 6.77814 0.592919 11.1023 19
196 1 -2.85429 -5.8666 -13.5211 21
197 1 -6.65919 10.4122 -12.7372 13
198 1 2.57172 6.01489 -9.37414 20
199 1 -7.31393 -10.4512 9.40123 22
200 1 -8.614 2.85467 5.2343 23
201 1 -6.99446 6.65059 9.84345 17
202 1 1.9575 -11.8221 -5.88872 22
203 1 -6.76273 -16.9061 0.815555 19
204 1 9.30133 -12.9424 -2.25791 14
205 1 12.3638 7.35213 13.8946 13
206 1 2.23591 11.1866 -6.76942 18
207 1 -10.9658 9.89119 -3.04045 21
208 1 1.00547 4.9311 11.4466 19
209 1 3.32061 -20.1978 -0.800677 10
210 1 11.0305 -1.54367 -2.30891 21
211 1 -9.93736 5.3933 3.94431 18
212 1 -11.6069 -7.94366 -3.89972 21
213 1 6.07428 2.98615 -12.556 19
214 1 2.52289 -2.66758 12.8006 18
215 1 9.32404 9.31692 -9.90254 13
216 1 -2.35909 -2.15112 -11.3831 20
217 1 -2.41745 -19.1368 4.70969 10
218 1 8.58902 -2.03417 -7.52917 20
219 1 -11.9697 -2.12518 4.28601 20
220 1 1.38699 -17.2235 -2.59365 18
221 1 -8.40221 -6.7784 -9.43831 18
222 1 4.89481 11.9441 0.479855 18
223 1 1.18526 -1.77107 -15.9224 17
224 1 4.29627 1.08744 15.9183 20
225 1 16.115 1.1559 1.54021 10
226 1 10.4661 -7.53983 -11.6098 17
227 1 -7.38937 -4.02005 -10.5996 19
228 1 -12.495 0.347892 -11.8312 16
229 1 -7.7185 -15.7186 10.5305 14
230 1 9.46599 0.124983 12.9928 20
231 1 -5.29789 -9.95566 -11.4799 18
232 1 1.42696 7.39957 -14.313 19
233 1 1.35729 11.06 4.14732 20
234 1 -7.2005 -5.04906 12.091 17
235 1 -10.7315 -8.84761 -9.09068 12
236 1 -5.26782 -6.50008 -9.94085 21
237 1 -1.74616 7.07805 -15.7611 11
238 1 -5.8313 -10.6723 -5.3222 20
239 1 8.59007 -6.25173 -16.1612 11
240 1 14.8969 -1.90262 -10.3612 8
241 1 10.8818 3.33877 0.91092 22
242 1 -9.12473 -7.31053 10.2179 20
243 1 -3.47189 -11.7316 0.152898 23
244 1 8.07479 3.84288 17.1542 15
245 1 -7.90226 -19.7863 5.50172 10
246 1 -0.503723 -13.666 1.39123 23
247 1 -0.881532 16.1596 -0.800196 8
248 1 5.85741 0.270715 -14.3239 19
249 1 -5.3961 -5.12117 -15.9842 13
250 1 -11.9957 -8.59528 13.207 10
251 1 2.94439 6.53555 19.9697 9
252 1 1.11785 -11.086 -3.10685 19
253 1 -3.43651 -13.9719 -12.0351 13
254 1 -8.11602 3.43151 -7.65552 22
255 1 8.10095 4.92397 7.6896 20
256 1 -4.37472 5.59554 -8.23496 20
257 1 -1.75393 6.89805 -9.80491 20
258 1 7.42349 -12.1425 -7.69289 20
259 1 -4.6574 12.9866 -1.73 16
260 1 0.326929 7.94349 5.83057 19
261 1 11.7641 -0.112483 6.41009 17
262 1 -10.0323 0.5812 7.02561 19
263 1 -4.13532 -5.38807 11.1052 19
264 1 -7.71746 8.88612 4.07763 18
265 1 2.18066 -6.28473 -12.0183 18
266 1 12.3501 8.27575 -1.92951 15
267 1 4.89831 -13.6469 0.747736 18
268 1 -2.67395 -1.90025 15.5447 15
269 1 -14.3036 -5.46416 7.68342 19
270 1 0.400827 -16.8711 -5.92693 13
271 1 -10.806 8.11727 14.5256 6
272 1 -10.7647 5.39173 13.2801 14
273 1 -13.7028 -3.54649 9.60553 14
274 1 -12.3076 -6.75001 8.36708 19
275 1 12.9168 -4.95801 -2.2055 16
276 1 -12.1898 -9.51294 9.81397 20
277 1 9.25285 -4.85695 -9.1514 18
278 1 9.85303 -13.9265 -5.64502 10
279 1 4.00946 16.7609 -2.69479 9
280 1 -8.69294 8.50191 -5.03522 21
281 1 9.53976 7.55971 12.3629 19
282 1 6.25314 -12.0645 -2.13809 20
283 1 -4.72546 10.8664 4.35625 21
284 1 4.76391 -14.2861 8.20988 14
285 1 11.3625 -5.92465 5.16912 13
286 1 -1.24833 0.423407 16.3367 15
287 1 -1.4377 15.0315 4.6986 21
288 1 7.93882 6.77252 16.7757 14
289 1 -11.9581 11.2788 -5.18778 10
290 1 0.0850107 -6.07016 -18.6378 9
291 1 6.53041 -10.7538 -12.7036 16
292 1 -10.0625 2.65389 12.1294 19
293 1 -11.4746 2.36894 0.607871 18
294 1 -7.17939 8.81246 0.941862 19
295 1 6.90997 -3.96778 8.61699 20
296 1 -13.0679 -13.24 2.19282 12
297 1 7.19662 -8.22719 6.52046 18
298 1 -9.5373 -10.0249 11.3738 18
299 1 -15.4682 7.16296 0.411245 12
300 1 3.74278 -13.9715 -8.36722 18
301 1 -5.13685 -3.56809 -8.85639 22
302 1 6.76513 -5.36631 -13.3791 18
303 1 4.25392 15.4047 4.64089 18
304 1 -11.4257 -2.09241 -3.27707 17
305 1 4.93676 -8.58395 -12.3475 20
306 1 9.4284 3.36697 -12.5992 17
307 1 -4.67135 -16.8801 -6.69292 13
308 1 -14.474 -9.78241 -4.79208 11
309 1 11.4743 4.8968 16.3578 10
310 1 9.55392 3.77137 -2.17582 14
311 1 -5.05659 2.68577 -9.19447 19
312 1 3.54693 15.8925 0.648011 11
313 1 -15.3641 -3.98173 -4.96504 8
314 1 -6.79392 6.18702 5.88393 18
315 1 -11.5659 8.85574 0.0216986 21
316 1 9.69267 5.21258 14.1371 18
317 1 10.6034 -3.38891 -5.00977 18
318 1 7.98307 -3.42835 13.71 14
319 1 11.4676 0.482103 -8.11412 16
320 1 -5.12303 -17.2841 -3.42637 16
321 1 5.07483 -10.6837 -0.259743 21
322 1 9.93 -2.51212 7.54275 20
323 1 -8.95583 -6.1831 -3.62848 20
324 1 -5.95823 -10.934 1.48511 16
325 1 -8.51305 -7.08428 13.8398 15
326 1 -4.22738 10.8913 0.841835 22
327 1 -11.865 -10.6204 -2.58052 17
328 1 6.90843 10.1732 15.8046 11
329 1 -11.0132 6.82644 -2.74399 22
330 1 -0.602526 12.9434 -9.04201 17
331 1 4.16065 12.0749 6.47361 17
332 1 -15.0347 -9.82354 -1.14653 11
333 1 -3.59214 -6.85088 -8.17941 23
334 1 -13.6557 -0.975403 6.84785 19
335 1 -13.2514 5.89242 -6.60616 11
336 1 3.93125 -8.79476 7.59869 16
337 1 -4.91316 -14.4957 -1.2864 20
338 1 11.7258 10.1112 8.21064 15
339 1 6.1032 6.39043 -13.8009 12
340 1 -12.6223 3.27007 -12.5531 12
341 1 -3.68963 12.617 -11.2694 14
342 1 -10.4357 5.00916 -5.94204 21
343 1 -2.5009 -14.3169 4.3745 18
344 1 9.97151 6.22903 3.12257 20
345 1 0.545042 10.0439 -15.2889 10
346 1 -15.4837 0.869408 4.69914 15
347 1 -8.74287 -16.9038 3.92414 15
348 1 7.87251 -7.03799 -11.2374 21
349 1 -12.7939 -0.0897886 2.01736 21
350 1 -15.1716 -0.697733 11.2872 11
351 1 -12.465 5.30896 5.82803 17
352 1 -7.96632 2.70379 -15.8417 14
353 1 6.87951 -9.62978 -6.70059 17
354 1 -0.923478 -10.2921 -11.3945 17
355 1 -3.25876 -2.96007 12.9921 19
356 1 -4.55638 2.55344 -14.8939 17
357 1 3.92489 -16.5454 -0.412476 20
358 1 0.926514 11.7613 -2.74576 20
359 1 -11.9314 10.2347 7.26788 11
360 1 -5.72207 -2.35597 16.02 15
361 1 -8.72003 -8.50429 -12.0592 12
362 1 -6.16763 -7.69835 7.1848 18
363 1 10.1339 -4.05893 10.1692 17
364 1 9.15404 -5.89125 7.72692 16
365 1 13.2478 5.43395 -5.56058 17
366 1 -3.75051 2.44703 12.5319 19
367 1 1.71822 11.3855 0.819482 19
368 1 -3.80865 -13.9357 -5.01369 22
369 1 -5.29021 6.19432 17.6442 8
370 1 -3.27388 16.9694 7.58371 12
371 1 -8.07712 -11.9632 -6.29652 15
372 1 8.16567 13.9557 0.545632 14
373 1 3.48918 5.80302 9.69805 20
374 1 -7.12468 -0.118661 8.91117 22
375 1 -10.3208 5.06065 10.2965 18
376 1 -7.07341 -7.3026 -6.00704 17
377 1 -7.04802 8.71942 7.61155 18
378 1 -3.30459 -10.4462 -6.54494 18
379 1 -3.43196 -7.8136 -17.7715 8
380 1 -8.23508 -13.4843 5.42403 19
381 1 10.6972 -0.292243 9.61918 22
382 1 -5.34023 -5.43821 14.1453 16
383 1 -10.4827 5.97832 -11.2829 15
384 1 9.7759 6.76557 -0.642126 21
385 1 -7.81484 -16.0639 -1.49992 12
386 1 0.181273 16.2709 2.35588 14
387 1 -1.76302 7.05853 12.0783 20
388 1 -15.2373 -3.23449 -1.63934 10
389 1 0.107176 14.4916 -3.56372 17
390 1 4.31493 12.9679 -7.28218 19
391 1 -5.36398 -9.72095 -8.59202 17
392 1 1.41809 1.92084 17.4954 16
393 1 1.33926 -14.6758 -4.11262 21
394 1 -0.285286 -4.49976 -11.0912 23
395 1 5.71757 -15.7726 1.77723 14
396 1 -10.9171 8.14113 5.60841 18
397 1 2.69794 3.87037 15.2158 19
398 1 7.53785 9.27843 -3.37147 20
399 1 -9.47498 8.90895 -10.7624 14
400 1 -14.9667 -6.23782 0.130188 16
401 1 2.20857 16.4875 8.54481 10
402 1 -4.37257 1.34169 -11.8331 21
403 1 12.6146 6.1164 0.846139 16
404 1 7.87075 13.9481 -7.1787 11
405 1 13.8541 3.06436 -0.343242 14
406 1 -1.11359 0.620338 -11.0565 21
407 1 0.317888 -14.8355 4.50695 20
408 1 4.09331 -11.8226 9.6799 12
409 1 -9.92003 2.59475 -10.5878 21
410 1 -10.9965 -14.9632 6.78343 16
411 1 -1.36135 -14.1851 -9.8526 15
412 1 8.15728 14.3356 6.90554 12
413 1 0.970948 2.40671 -12.3411 18
414 1 3.51761 -4.36913 15.7969 11
415 1 -14.5221 2.21473 10.4741 15
416 1 -1.10504 -19.294 1.31439 17
417 1 -12.3181 -6.05851 1.78665 21
418 1 13.6391 -9.131 -6.41322 12
419 1 10.6412 -2.27433 0.998238 17
420 1 1.16877 -8.68336 -7.55828 21
421 1 3.21452 3.45586 -10.262 17
422 1 12.7868 -5.49778 -6.59256 19
423 1 -7.16751 0.363704 15.7968 16
424 1 6.05857 14.5871 2.13545 21
425 1 -4.09453 -2.71793 -17.1663 14
426 1 6.73744 -0.44393 -17.3302 11
427 1 -7.0073 -4.85083 8.76662 20
428 1 -3.82711 13.8319 2.66067 17
429 1 -7.4173 -2.36279 -17.255 9
430 1 -15.1979 -1.19984 2.3526 16
431 1 -2.93489 -10.727 -16.7127 11
432 1 -4.99911 -11.6195 11.446 15
433 1 1.78249 8.37037 -7.5273 19
434 1 16.1176 2.8558 8.78534 11
435 1 13.1649 4.34898 3.08412 18
436 1 -10.561 -13.0214 -0.612564 11
437 1 -1.19097 -2.54535 -19.0682 9
438 1 -6.66457 9.9825 10.2945 18
439 1 13.5502 -2.91771 0.185556 14
440 1 4.08533 15.5511 -7.83172 12
441 1 13.3843 6.15546 -9.05696 12
442 1 1.71574 10.7975 12.3524 21
443 1 -11.599 2.22171 9.24616 19
444 1 6.9998 9.72554 11.2614 19
445 1 8.41837 0.089851 16.9579 12
446 1 -2.35818 3.10757 -13.9199 20
447 1 -0.317989 -2.71098 13.8941 20
448 1 5.56857 10.8185 8.8917 21
449 1 7.61109 6.6866 -8.95881 20
450 1 -5.94848 9.58829 -5.74142 21
451 1 3.34812 12.0236 -2.17329 18
452 1 10.7215 -2.99245 12.9202 15
453 1 10.9666 0.780211 -12.9399 14
454 1 8.0416 -11.5095 -5.05941 20
455 1 12.868 9.71663 11.5425 12
456 1 -14.8931 -6.39436 3.84301 17
457 1 -4.0901 11.9675 -14.5483 9
458 1 -11.9144 -0.0583004 12.0457 17
459 1 -5.26948 11.8685 -8.74033 15
460 1 1.14904 -14.4414 -1.07639 19
461 1 4.96966 -2.23154 -8.89318 18
462 1 -3.74596 14.7045 -5.17869 12
463 1 -7.90181 -5.6759 -13.5781 13
464 1 2.85714 -17.3179 5.54035 12
465 1 -12.4962 -8.03185 -0.60293 21
466 1 0.975421 10.8674 -12.6776 16
467 1 -1.48011 8.82898 16.7513 11
468 1 -9.57638 -5.6501 7.35688 19
469 1 1.2877 -11.9521 -9.4349 19
470 1 3.03393 -8.22881 11.6126 11
471 1 -9.87452 5.28377 0.359236 20
472 1 3.53822 3.73054 18.6103 15
473 1 5.80976 16.5276 -4.98567 9
474 1 10.5079 -5.47526 -4.04357 18
475 1 4.12851 8.72938 10.8714 22
476 1 1.46877 3.49595 -17.7309 12
477 1 -4.24128 -14.3588 9.69603 18
478 1 6.98322 -2.80284 -15.3115 16
479 1 2.082 13.7537 6.12101 18
480 1 8.27878 4.02264 -9.94005 17
481 1 -2.16456 -3.47147 -14.1247 18
482 1 -3.39288 -11.5376 -3.11982 22
483 1 -10.1719 -5.24283 -11.6975 13
484 1 14.2599 1.39427 3.80455 20
485 1 14.6668 2.7312 -3.593 13
486 1 6.77883 -6.73759 -8.46799 19
487 1 14.3169 7.01639 11.2506 12
488 1 4.66388 -13.7129 -5.01387 20
489 1 4.59493 2.66295 -16.1015 14
490 1 7.52735 11.3875 5.60169 19
491 1 9.4132 9.22192 15.0742 13
492 1 10.3423 5.95968 -3.97349 21
493 1 12.7689 -6.02239 0.693125 14
494 1 12.7111 3.3581 -8.2787 18
495 1 8.23055 2.07963 14.9366 22
496 1 13.7331 4.81376 9.09081 19
497 1 12.6902 11.4684 -2.36626 12
498 1 -0.674499 2.7537 14.3638 18
499 1 13.9665 -2.47615 -6.05066 15
500 1 8.68347 3.93692 11.1373 17
501 1 -8.24077 -2.14538 -8.27309 18
502 1 10.473 4.4837 4.99052 19
503 1 -12.369 7.49377 11.3271 9
504 1 9.85884 11.0613 11.0234 13
505 1 11.5097 2.3954 10.6597 19
506 1 0.695077 7.30978 9.7954 20
507 1 0.992661 13.1907 10.3962 19
508 1 -1.95064 -22.1266 0.55895 6
509 1 -5.61182 8.00841 -3.13411 21
510 1 11.9901 9.43015 -8.49606 12
511 1 9.77849 -5.1966 -12.8246 20
512 1 1.90245 14.1641 -1.10688 14
513 1 -4.34828 -14.8936 -8.62682 17
514 1 9.44233 -10.391 -13.0606 13
515 1 -13.6442 2.14058 6.88307 18
516 1 -4.941 4.48471 -12.185 19
517 1 -4.15725 -17.7328 2.7286 17
518 1 -5.71896 -1.48177 -10.8075 20
519 1 -12.1513 0.917275 -3.71059 20
520 1 9.60202 -8.6653 4.78784 13
521 1 11.0645 11.6048 2.40608 14
522 1 3.0849 -11.9076 6.6028 16
523 1 -13.1222 -4.20489 -7.33143 14
524 1 5.25601 -2.28788 -19.9604 5
525 1 -5.23697 5.88007 14.4263 17
526 1 6.89471 9.39326 -12.2337 13
527 1 12.6072 0.285473 12.7972 15
528 1 6.35528 3.35644 -7.43781 19
529 1 11.0633 12.8084 -0.279834 12
530 1 4.44357 -16.2922 -3.55393 17
531 1 -10.5937 -4.73587 15.3389 11
532 1 12.887 -3.22751 5.39289 16
533 1 -0.950074 10.2021 14.0543 20
534 1 7.10209 11.9723 -10.2162 13
535 1 -14.2131 8.30881 -4.33679 13
536 1 8.02917 11.6319 2.14204 20
537 1 -9.86259 -17.0388 1.32177 10
538 1 9.94644 -4.77198 3.05631 18
539 1 7.59816 17.0336 4.25174 11
540 1 -4.39204 5.10921 10.6417 24
541 1 -11.2675 -8.5629 3.609 17
542 1 -11.1779 -2.81831 -9.85452 16
543 1 6.88275 -0.51961 13.7856 21
544 1 -1.60337 -9.47297 10.0667 16
545 1 5.45193 4.60855 15.5892 21
546 1 -6.62609 11.546 2.44937 19
547 1 1.09753 0.210793 -18.3318 12
548 1 -9.40298 -2.31097 8.72153 20
549 1 9.93839 -0.985422 -10.2447 20
550 1 10.5146 -11.1866 -7.37419 17
551 1 9.35863 2.04049 8.49285 18
552 1 -9.75288 0.431672 14.006 16
553 1 8.76934 7.87687 9.31538 20
554 1 -0.344021 -4.68338 15.9789 9
555 1 -2.40286 5.07647 13.6053 18
556 1 0.688426 -4.58311 -14.0344 20
557 1 -5.93061 2.73588 9.93909 17
558 1 5.53255 2.40172 13.7896 17
559 1 -10.3782 -17.7318 9.32107 9
560 1 13.1921 5.43561 -2.49354 14
561 1 6.88609 -14.9793 -1.97995 19
562 1 4.00488 9.29315 1.93748 19
563 1 9.04777 13.9943 4.16521 15
564 1 4.23235 -2.24867 -16.8954 17
565 1 3.13102 13.4349 -4.84983 20
566 1 9.95983 8.9175 1.84192 19
567 1 -6.18709 -10.7627 -1.76945 20
568 1 -2.31796 -0.130532 -16.5003 18
569 1 -9.20351 10.6623 -0.464229 23
570 1 7.99398 -7.93786 -14.0527 18
571 1 10.6206 6.45926 -10.2962 13
572 1 12.3792 11.5008 -5.74298 14
573 1 11.6619 2.45062 14.5032 19
574 1 10.5216 -0.99981 15.1866 15
575 1 -1.59346 -12.6734 10.9034 12
576 1 -4.54834 8.25886 -14.0591 15
577 1 2.88853 10.7922 9.39586 17
578 1 7.87959 -10.1588 -16.0481 9
579 1 6.42256 13.1237 -4.15933 19
580 1 5.61603 9.12189 5.47006 20
581 1 12.577 -8.0003 -3.51438 15
582 1 5.44147 6.69038 18.1103 13
583 1 -12.1508 -3.53443 6.82031 20
584 1 3.02833 -19.3929 1.96146 12
585 1 -9.74787 12.8266 1.76273 9
586 1 7.12609 8.62081 3.10353 19
587 1 -14.8638 -3.68287 5.08878 23
588 1 -2.99494 4.35954 16.465 17
589 1 -6.75041 5.34906 -15.2786 11
590 1 -7.44931 7.39733 -12.895 17
591 1 1.11881 -17.9437 0.681108 22
592 1 8.13377 5.7115 -5.43301 19
593 1 -14.8 4.02455 12.4423 7
594 1 4.13167 -3.00309 -14.1309 17
595 1 1.01527 -14.2443 9.1839 14
596 1 2.72392 13.9042 2.88555 20
597 1 -4.08176 1.0976 17.149 14
598 1 -8.21686 -10.8258 -9.54747 13
599 1 -5.02923 -12.0944 -14.3358 9
600 1 -6.39767 -14.1998 -7.12456 14
601 1 -0.983483 15.4315 -6.28123 13
602 1 -4.43908 11.0027 7.69011 19
603 1 4.13834 -10.8155 -7.66437 24
604 1 7.78272 -18.3052 1.56933 5
605 1 0.693668 -9.49806 8.02754 19
606 1 14.5725 0.81172 -7.84715 11
607 1 0.771549 -14.221 -7.36837 19
608 1 -11.6967 -1.39962 8.88131 17
609 1 -3.73398 -18.4954 0.111743 17
610 1 -6.17299 -12.8124 -3.68882 18
611 1 -9.46056 0.230991 10.4669 23
612 1 -6.58148 -19.1867 2.23905 11
613 1 15.4323 4.09401 -6.76511 8
614 1 -4.50582 16.1185 4.28485 12
615 1 -15.1942 6.44376 3.62441 10
616 1 12.0171 -1.36592 3.20606 18
617 1 -10.9676 0.0462769 -8.92506 18
618 1 9.46908 2.35933 -6.27202 19
619 1 7.54632 11.7606 13.7274 13
620 1 -14.5855 -0.446217 -6.11609 11
621 1 -10.53 -6.89097 -6.77516 17
622 1 -1.87203 6.13843 18.7476 12
623 1 5.56508 4.95561 -9.99747 17
624 1 10.3551 11.4992 5.89649 15
625 1 -4.37387 0.172856 10.7043 19
626 1 -1.952 -16.3896 -1.077 21
627 1 -7.77306 -19.0095 8.60954 11
628 1 14.3266 8.71892 8.33816 12
629 1 1.82906 -8.9988 -10.6972 19
630 1 -9.9587 -5.07102 3.86242 21
631 1 8.46785 5.75744 -12.385 16
632 1 -2.96266 -18.5841 -4.61931 11
633 1 1.31526 -21.4212 1.36351 9
634 1 -1.4385 -15.9676 -3.96347 20
635 1 7.51365 1.1799 -8.896 17
636 1 8.3573 17.0068 1.20625 9
637 1 -4.13321 -1.26393 -14.0218 21
638 1 -1.85597 -0.279615 12.2414 22
639 1 0.0299683 4.59021 -15.3795 18
640 1 -10.4725 -2.02877 -13.4854 12
641 1 -11.8055 -5.46028 -1.58486 17
642 1 2.11147 16.8116 -5.78285 11
643 1 -3.31156 -5.10142 -18.4675 11
644 1 10.7039 5.20205 -7.61735 21
645 1 10.3366 -7.44478 -1.30834 18
646 1 -7.30582 4.46316 12.0512 18
647 1 4.29076 -10.4108 3.41211 19
648 1 13.4372 -9.41857 0.808815 7
649 1 12.8642 -2.68801 11.1196 14
650 1 -1.91441 9.21822 7.91381 21
651 1 -12.7642 2.63822 13.8746 11
652 1 -8.92083 2.64924 8.01823 18
653 1 -5.21561 -13.7871 6.53452 19
654 1 6.46471 7.83267 13.904 21
655 1 -13.6922 -3.28248 1.4103 18
656 1 8.08026 -9.28474 -3.30261 21
657 1 -10.1336 12.6305 -3.33087 12
658 1 -0.180734 -16.4911 6.48459 14
659 1 2.30632 -1.2716 16.5896 11
660 1 -1.60866 12.0501 5.83455 20
661 1 1.96941 -12.1867 3.80404 20
662 1 2.70653 2.27131 12.1124 20
663 1 -14.6668 -7.44962 -2.72582 14
664 1 1.70918 9.62166 15.2444 19
665 1 5.56514 12.3523 3.54297 20
666 1 -9.5718 -10.749 4.8615 16
667 1 -5.63384 -17.9827 5.47634 16
668 1 8.51583 -8.98457 9.25605 8
669 1 12.7331 -5.30717 8.39131 11
670 1 5.99319 7.52461 7.89091 20
671 1 -0.544174 -10.9088 -7.59395 17
672 1 -0.475111 -1.16909 -13.499 20
673 1 -4.32632 0.0619077 14.2989 20
674 1 -1.55311 18.1701 4.94117 9
675 1 15.3395 -1.2461 3.77797 12
676 1 4.60499 6.87188 -7.02862 20
677 1 -3.76455 8.61024 14.7977 16
678 1 6.9812 6.3076 10.9731 20
679 1 7.5505 -3.09758 -11.6595 17
680 1 -7.08829 -13.6683 0.27584 17
681 1 15.3113 -0.0274106 7.19246 13
682 1 2.68342 -3.01512 -11.2969 18
683 1 0.289352 5.59045 14.7991 17
684 1 6.78438 -15.1173 -7.56449 13
685 1 7.37867 3.74847 -15.7269 9
686 1 12.1818 4.37682 -11.8689 11
687 1 12.5227 1.00739 -2.3408 16
688 1 -2.00328 -5.84522 12.9756 21
689 1 -2.92915 -9.05473 -14.2641 20
690 1 6.88197 12.1647 -1.1259 19
691 1 -13.9893 3.8407 4.14115 15
692 1 11.6342 3.23208 -4.74677 20
693 1 15.5205 6.85908 2.87165 14
694 1 3.19032 -7.2923 -14.3143 16
695 1 -6.59913 11.6617 6.01864 19
696 1 16.5313 7.87268 5.78432 10
697 1 14.395 9.18978 -6.49072 7
698 1 2.76131 0.554661 -14.1999 17
699 1 9.73216 -4.99489 -0.544299 18
700 1 -13.5192 -0.398246 -0.970438 21
701 1 13.0187 8.60544 2.69219 16
702 1 -12.0562 -10.5285 0.540032 16
703 1 -9.97659 6.83924 -7.78353 18
704 1 5.13924 3.66947 10.8801 18
705 1 -11.7663 -1.4103 -6.51776 18
706 1 -10.0164 5.36158 7.51578 19
707 1 9.14109 -9.34366 -9.21415 20
708 1 -11.1259 -10.2761 -5.9945 14
709 1 10.8748 -10.3452 -0.442944 16
710 1 -14.6535 2.08384 1.77878 16
711 1 11.2025 6.81326 6.78486 18
712 1 -6.37072 -10.7189 6.55121 22
713 1 11.8209 1.19651 17.1841 7
714 1 13.2816 -1.965 7.96197 16
715 1 -13.3976 5.27379 1.16259 19
716 1 -0.1915 10.1544 10.5351 22
717 1 4.22212 8.27243 -10.1976 23
718 1 -0.820621 -6.87166 -16.2536 17
719 1 -4.4959 13.6026 6.41939 21
720 1 -12.9705 -12.5983 8.52306 10
721 1 5.76221 9.97844 -7.63633 15
722 1 1.56627 8.15356 13.1459 20
723 1 15.1275 -5.35545 -4.59836 12
724 1 5.82539 -8.05582 10.0879 14
725 1 -1.32985 12.0533 -12.8837 11
726 1 3.06697 11.1782 -10.217 20
727 1 -6.27467 -2.05016 10.6975 20
728 1 16.421 3.75277 2.79253 10
729 1 -3.01874 -4.77989 -10.7754 23
730 1 14.0037 12.1404 1.38309 10
731 1 -16.4121 0.829072 -0.369989 10
732 1 -4.02692 -11.6996 8.60626 21
733 1 4.75892 13.921 -10.7819 11
734 1 4.98131 -2.01068 10.4618 21
735 1 -1.71332 -13.6665 -2.05852 21
736 1 -5.2748 15.7154 0.237807 6
737 1 -15.8813 4.08704 -0.81889 10
738 1 11.3866 -2.96198 -8.1954 16
739 1 0.550486 -12.782 -13.2095 15
740 1 -9.89051 7.66029 2.05152 18
741 1 10.5044 9.69795 -3.93836 19
742 1 4.95533 -5.31668 -16.1913 16
743 1 -5.72517 -13.1476 -10.6251 11
744 1 -2.14556 -16.2631 -7.31076 16
745 1 -2.9904 11.9901 15.2472 11
746 1 3.68896 -13.2108 -1.98357 23
747 1 -1.73624 9.48537 -12.1307 18
748 1 9.62883 -3.10322e-04 -4.86838 21
749 1 7.48269 8.68235 0.0905367 20
750 1 -0.999174 -19.4996 -1.8051 13
751 1 2.06526 -5.11942 -16.2611 18
752 1 12.8864 0.321766 0.911192 20
753 1 -2.05914 3.88567 -10.7562 21
754 1 0.301681 -8.3891 12.3547 12
755 1 5.20722 10.3856 -4.81854 21
756 1 -13.4766 4.63402 -4.43022 14
757 1 -13.7836 4.72461 9.2696 15
758 1 0.802783 5.18365 18.1582 16
759 1 -9.61456 -8.68165 7.77586 22
760 1 3.09532 8.59156 6.97368 20
761 1 -1.53139 -16.5119 2.13802 20
762 1 5.24808 9.41025 -1.79556 18
763 1 -5.08698 7.84733 12.2019 17
764 1 -6.87361 1.03258 12.6691 18
765 1 -9.60974 12.1694 5.46961 11
766 1 -3.83777 -8.53943 12.4351 13
767 1 5.24871 -14.1308 4.73162 18
768 1 11.2143 6.46242 9.85054 18
769 1 7.76307 -5.44033 -5.88856 18
770 1 6.54794 -9.94343 -10.2592 20
771 1 -6.77275 0.875031 -13.6746 22
772 1 0.592067 1.3329 -15.7713 20
773 1 6.90244 13.8406 9.57556 12
774 1 -10.6708 -5.78474 12.6375 13
775 1 -7.23391 6.40598 -6.95774 20
776 1 -14.7198 2.24069 -3.07048 14
777 1 9.65551 12.4733 -3.38525 16
778 1 -10.855 -17.9086 6.42961 10
779 1 13.6804 10.1252 5.86524 11
780 1 -9.50187 -12.3269 -3.62252 14
781 1 4.02554 14.5505 10.5244 10
782 1 -9.25572 -1.64853 16.8553 10
783 1 -3.53933 -17.2469 -10.5929 7
784 1 13.092 1.44352 8.54219 21
785 1 0.86277 -17.8416 3.44115 16
786 1 4.27485 9.64034 17.5943 10
787 1 12.1244 -2.95955 -11.7029 15
788 1 7.57244 -8.99741 -0.170449 19
789 1 2.18243 -0.624792 -12.0777 19
790 1 -8.66541 -0.0211805 -11.5606 17
791 1 -7.20414 3.64536 -11.2077 17
792 1 -5.67142 3.1156 14.638 20
793 1 8.21871 -2.0121 10.4479 21
794 1 -8.07544 -7.50327 5.44076 17
795 1 13.9033 -3.88314 3.00684 11
796 1 0.153555 5.26023 -12.0613 20
797 1 14.0673 9.02323 0.233825 14
798 1 -1.3395 15.7003 10.5204 12
799 1 -14.6954 -8.1254 5.69358 13
800 1 8.06332 -15.2298 -4.53385 13
801 2 -10.7029 -1.82178 -8.36299 19
802 2 -6.9696 8.97615 -4.2853 23
803 2 0.541208 -2.62646 -11.1444 22
804 2 -3.59524 6.54087 13.3888 18
805 2 5.37304 -11.6124 -10.3444 18
806 2 -6.40644 -5.14608 -8.99783 21
807 2 1.32376 2.65071 13.4326 18
808 2 6.50524 -0.261472 16.6943 13
809 2 -13.4924 -11.3215 1.83618 12
810 2 -12.4342 4.17129 -7.31032 15
811 2 1.53397 11.9133 5.92645 20
812 2 -11.4283 1.03394 3.15602 20
813 2 2.27083 15.9471 -7.56869 14
814 2 9.84964 3.66301 3.31833 20
815 2 -2.6802 15.171 -6.45504 13
816 2 10.2401 12.6168 -6.4267 14
817 2 -10.5707 -3.02818 -11.8096 15
818 2 -10.7391 -8.8708 -7.13913 16
819 2 2.17512 -0.040168 12.3672 18
820 2 8.81231 -1.59282 -11.868 17
821 2 0.547122 -16.2065 1.77042 22
822 2 -6.61165 8.54717 -1.1554 21
823 2 -13.6844 0.316357 -4.64794 15
824 2 7.451 6.87634 6.64495 19
825 2 9.33591 -12.4644 -6.53252 16
826 2 -11.39 -12.4868 1.06824 13
827 2 -10.4995 -7.1153 8.70267 17
828 2 -4.38213 -13.6507 4.87595 20
829 2 8.6954 -4.86646 9.27737 17
830 2 -1.81976 -17.0172 -5.63481 15
831 2 3.80842 -2.43826 16.3072 14
832 2 -0.29993 8.12866 -8.11268 20
833 2 1.23818 -16.3274 4.98511 17
834 2 -10.7801 -12.2865 -2.44198 12
835 2 -1.26151 4.49347 15.2978 16
836 2 -11.684 6.00114 0.23481 20
837 2 -3.02912 2.79968 17.3271 16
838 2 -4.45147 8.33457 -4.84983 18
839 2 5.52119 -14.7589 -0.880854 18
840 2 0.134502 10.0558 -11.0177 20
841 2 12.2136 10.9204 6.60959 11
842 2 8.11086 15.6307 5.13483 11
843 2 9.50355 -3.16802 -8.54073 16
844 2 -4.90786 9.29769 13.5185 14
845 2 5.47179 4.42842 -15.314 12
846 2 -5.24912 10.3478 -14.1291 12
847 2 11.5511 7.54437 -3.71433 17
848 2 -5.96578 -4.388 15.3863 12
849 2 -15.1501 8.4682 3.87031 8
850 2 11.1655 0.0696668 -11.3401 17
851 2 -10.1515 -7.99444 13.2411 14
852 2 2.41231 -10.6736 -10.6151 21
853 2 -2.89242 -3.02692 -18.3053 10
854 2 -14.6675 -8.30838 3.80073 16
855 2 9.54466 8.68244 -0.117786 16
856 2 -3.66487 9.41826 4.08926 22
857 2 -1.51295 -11.3625 -6.01273 18
858 2 -5.92276 15.888 5.41653 8
859 2 6.24843 -2.32045 14.4937 15
860 2 1.67932 -9.5813 11.2136 14
861 2 15.6547 2.13146 6.84628 15
862 2 4.38969 15.2588 -9.50394 11
863 2 -12.8319 2.74135 -3.62731 14
864 2 15.6366 4.51813 9.40205 13
865 2 10.2455 -12.2685 -0.701297 12
866 2 7.71402 -11.3648 -2.96624 18
867 2 -4.39792 12.3454 13.8253 12
868 2 3.56514 -11.5694 4.74729 19
869 2 13.3623 -3.70814 7.17658 13
870 2 15.2596 10.5465 1.27578 10
871 2 -4.20881 -2.02806 14.4763 16
872 2 11.1588 -9.16052 -2.20834 16
873 2 -0.972705 7.92227 9.20545 21