ITEM: TIMESTEP
5000
ITEM: NUMBER OF ATOMS
1000
ITEM: BOX BOUNDS pp pp pp
-30.0 30.0
-30.0 30.0
-30.0 30.0
ITEM: ATOMS id type x y z Coordination
1 1 0.690925 -6.18184 -10.2471 20
2 1 7.03308 -6.87239 7.20303 16
3 1 -5.47913 9.95203 -0.684788 17
4 1 -10.2809 5.5933 -5.96009 13
5 1 -0.581355 -6.90257 10.9208 12
6 1 -6.25286 1.81482 -12.846 12
7 1 -7.54753 1.38128 -7.70931 18
8 1 0.0876894 -12.1331 -0.038069 19
9 1 5.8705 -1.88378 3.13178 19
10 1 1.76363 3.95063 9.16741 17
11 1 6.6704 -1.81308 0.311493 20
12 1 -1.84313 7.22962 -10.7332 15
13 1 -3.6016 -1.3563 11.5905 10
14 1 -9.12655 1.68825 -0.609874 21
15 1 -4.31828 0.552176 -6.36684 22
16 1 0.379738 -1.82086 6.40492 18
17 1 1.51194 -6.96075 -7.79591 16
18 1 2.49887 1.19094 13.6041 9
19 1 -0.975874 -13.2706 6.17514 9
20 1 -13.0227 0.910002 1.58148 9
21 1 -6.86181 -0.224285 -5.11589 20
22 1 -1.69062 14.128 -4.48177 12
23 1 5.90272 -3.93062 -11.0568 16
24 1 5.3382 -8.14182 -12.3906 11
25 1 -3.00213 -5.64334 9.60662 14
26 1 -11.0964 4.40536 -0.617409 16
27 1 -0.523048 13.4812 -1.49066 13
28 1 3.18452 -11.1122 2.63889 22
29 1 9.74218 -6.37244 -7.68492 16
30 1 8.18087 -0.18553 2.16909 20
31 1 -5.90267 8.76111 -6.02919 17
32 1 -1.52349 6.01853 -4.51179 19
33 1 1.93899 5.67573 2.69103 21
34 1 2.00334 6.10044 6.40229 17
35 1 -5.26644 -2.31082 0.2533 21
36 1 2.69231 -3.00356 11.1014 16
37 1 -12.8108 -2.38989 1.6865 12
38 1 12.0547 3.75026 4.04272 10
39 1 5.27074 -3.95505 -4.62562 21
40 1 3.96697 -0.0249466 9.29153 16
41 1 -7.52398 -4.03664 1.73547 21
42 1 -0.00242362 -4.29719 -8.28753 22
43 1 -8.89966 9.11538 5.35867e-04 12
44 1 -0.661848 5.03265 -12.5394 11
45 1 3.5236 0.735008 -6.58915 22
46 1 5.60379 -1.94452 -6.8602 20
47 1 6.31032 -7.09907 0.674245 17
48 1 3.7438 -10.0553 8.64509 11
49 1 -3.05625 5.8167 3.17894 22
50 1 -8.13833 -7.60086 9.5298 13
51 1 -9.63083 1.60459 5.36289 20
52 1 10.1524 -5.74903 -4.28762 18
53 1 6.30936 0.318961 -13.7679 14
54 1 6.18667 -1.73243 6.05712 20
55 1 1.04662 11.8002 2.51235 14
56 1 -5.45467 8.15942 -10.8387 8
57 1 1.61951 8.28106 1.17679 18
58 1 -5.6787 -10.0041 7.46175 13
59 1 3.90473 -6.04634 -10.3397 15
60 1 2.52962 -8.03468 -13.8581 12
61 1 -2.88991 2.96555 4.82926 21
62 1 -9.65945 -9.47961 -0.0461649 14
63 1 4.82065 -4.92055 1.51604 19
64 1 -9.23962 -9.54172 -3.26059 13
65 1 10.8789 -8.54754 3.3028 11
66 1 -3.95706 9.36805 3.33121 18
67 1 -3.859 5.95629 -0.0667842 21
68 1 3.96658 6.39398 -9.01906 14
69 1 11.2771 -9.35944 0.0368918 12
70 1 -7.13325 -11.3294 -1.32727 18
71 1 12.4963 8.7629 1.63737 11
72 1 8.25753 6.11072 -3.43584 16
73 1 -4.92895 10.7152 -3.6923 14
74 1 0.415149 -9.66747 -11.7293 12
75 1 -3.55437 8.75076 -8.12092 16
76 1 11.3375 1.07718 -5.55854 17
77 1 8.15454 1.22834 -10.0753 21
78 1 10.1138 -6.88696 6.40158 14
79 1 -5.89143 2.36329 -10.0579 20
80 1 6.11901 11.8122 -0.0748184 13
81 1 10.8882 7.94256 -5.45902 14
82 1 -2.3126 10.6204 -2.59222 21
83 1 -0.594496 -3.65056 -12.1218 12
84 1 -10.2716 -2.12649 -11.0378 7
85 1 -5.82653 9.89415 8.09021 14
86 1 -0.105007 9.08101 -5.07131 18
87 1 5.43773 -4.5264 11.3732 13
88 1 -10.2894 -3.94902 3.28416 16
89 1 -2.62646 -11.7994 1.47401 16
90 1 0.310657 8.88742 -0.749298 20
91 1 9.09081 9.90438 -7.78831 10
92 1 0.856661 -10.9273 8.33606 11
93 1 -7.39281 4.37054 -2.64581 17
94 1 1.15159 5.05703 11.5847 11
95 1 -4.92702 -0.751658 -9.47112 22
96 1 -5.64933 -6.53787 3.56595 19
97 1 -7.50803 -11.3809 1.27776 16
98 1 -5.07534 -2.58911 -3.22894 21
99 1 5.5193 -7.61651 -2.81658 17
100 1 -2.28703 9.27202 8.79773 12
101 1 -6.58444 0.161006 1.81265 22
102 1 -7.90089 -3.38773 -4.2445 20
103 1 0.487138 -10.057 2.68425 21
104 1 9.09902 3.48731 -5.37476 21
105 1 4.91115 1.02461 12.3122 12
106 1 2.83175 1.44059 -9.47836 15
107 1 -7.63611 -4.24386 -10.6143 11
108 1 -4.73372 14.122 -3.27446 10
109 1 7.52815 0.387968 10.6285 11
110 1 -3.80804 11.8505 -5.83778 15
111 1 3.56637 3.35163 -7.80197 20
112 1 -7.90958 0.443324 8.09613 19
113 1 -7.59514 7.18022 9.3964 11
114 1 -0.174728 -9.76445 -8.89876 18
115 1 -0.737679 0.735112 5.1414 20
116 1 2.77353 -4.82204 -3.40099 21
117 1 6.35281 8.79248 -7.59011 14
118 1 0.446228 11.0835 -3.03049 18
119 1 -12.2235 5.99645 4.40335 7
120 1 4.43453 4.97308 7.7057 16
121 1 12.4005 -1.64568 -3.1778 16
122 1 6.58116 4.4685 6.55283 16
123 1 -7.28692 6.39452 5.65657 18
124 1 -12.5154 0.0958624 -4.40458 9
125 1 3.42447 -2.20091 7.99648 17
126 1 6.09505 -9.69825 -4.93487 15
127 1 1.63792 -4.50705 -14.4497 10
128 1 10.2626 2.72175 -7.95725 20
129 1 -10.1813 -3.18296 6.64887 13
130 1 -2.94434 -10.4089 -9.13507 11
131 1 -4.76652 -10.6194 2.89426 18
132 1 -0.18613 -7.32419 3.34742 18
133 1 -5.27727 -6.23757 -10.4969 10
134 1 -9.75841 4.15492 -10.965 8
135 1 7.72921 -0.236437 5.00868 18
136 1 5.66227 -4.64501 4.83439 21
137 1 2.0245 -5.53408 6.61147 15
138 1 4.19586 9.51212 -1.10471 22
139 1 -7.80658 -8.16261 3.90482 19
140 1 3.8982 11.0292 2.40697 14
141 1 -2.4475 -4.72595 -9.8705 18
142 1 -4.0076 -7.77508 -7.79148 20
143 1 -4.33385 -10.5135 -0.308111 18
144 1 2.96064 -5.65777 3.31583 18
145 1 12.9704 4.67102 -1.57022 10
146 1 -3.32663 -5.41067 -3.85347 17
147 1 -9.21808 -4.1915 9.68509 11
148 1 -3.22588 -15.304 0.695682 12
149 1 -0.0944087 1.43473 -7.51215 19
150 1 -2.1606 -13.2415 -1.72389 17
151 1 2.35367 -7.81753 -1.70934 19
152 1 0.575629 -12.9514 3.42097 16
153 1 -8.48328 7.99901 -7.88181 11
154 1 11.4637 7.36743 4.76074 12
155 1 -3.66768 -0.44372 -12.6606 14
156 1 2.52492 4.39047 -11.1532 13
157 1 -2.90647 -5.39684 3.80005 20
158 1 2.01927 11.3551 5.33741 12
159 1 7.34724 2.80438 1.40834 23
160 1 -8.30397 -1.58044 3.95818 20
161 1 -4.87062 -8.2734 9.65485 11
162 1 -4.01411 7.70511 5.57668 22
163 1 4.74478 -5.29582 -14.1996 9
164 1 4.27327 -11.9196 -2.67999 14
165 1 10.6162 -0.896941 -10.9021 15
166 1 -4.17134 -5.32071 1.03359 18
167 1 2.72713 -0.0215936 6.07713 20
168 1 -8.6749 -1.37067 0.907466 20
169 1 12.0955 -7.27121 -5.76129 11
170 1 -6.14261 7.13674 -0.803109 18
171 1 -5.13417 4.88425 5.75883 21
172 1 7.57525 -9.13431 5.2263 13
173 1 0.681829 3.73526 6.04466 19
174 1 -5.98687 -5.54705 -4.54194 21
175 1 -0.290364 9.81969 6.35862 15
176 1 -8.94982 3.01151 -5.06685 15
177 1 -11.9881 3.26263 6.56331 12
178 1 -1.26087 -6.69817 -7.09149 22
179 1 -4.07494 11.9958 2.72909 14
180 1 8.62169 -3.20502 3.73861 19
181 1 5.40962 -8.05584 3.18071 20
182 1 -5.97004 2.93296 -0.240392 22
183 1 -3.78101 -4.25457 7.07558 16
184 1 7.44043 -9.87098 -7.78693 10
185 1 -4.55397 -3.02986 -11.5468 14
186 1 -11.6192 -1.44225 -1.15454 19
187 1 -2.74367 -7.01016 -1.39594 18
188 1 8.37538 3.70768 -1.66985 19
189 1 -6.69221 5.18463 -11.7589 12
190 1 -8.08492 8.18217 3.39692 14
191 1 -7.1075 10.8755 1.91138 12
192 1 -6.75447 4.28563 9.68397 13
193 1 12.7721 -5.3173 -8.71159 8
194 1 13.3491 3.3999 -9.24099 10
195 1 3.02506 3.26142 4.2541 17
196 1 -4.76168 5.52728 -3.18857 20
197 1 -0.702932 -7.57409 -3.52707 23
198 1 -1.08834 10.0986 3.57137 18
199 1 6.32002 0.990725 -5.47595 19
200 1 -9.39917 -0.69698 -6.37831 18
201 1 7.59991 -11.1649 -3.02194 15
202 1 10.5036 1.17481 5.60129 14
203 1 -9.30862 -4.30324 -6.97178 11
204 1 -5.47702 -13.7098 2.76354 12
205 1 -1.67778 11.4422 0.558044 17
206 1 -10.5967 7.09323 -2.05987 12
207 1 -1.40405 -9.80302 -5.69125 22
208 1 5.07726 -9.93755 5.36422 14
209 1 -3.75854 -15.3201 -2.89333 11
210 1 -9.45179 8.64093 -5.19225 9
211 1 -2.64428 -13.7368 3.82946 14
212 1 -4.09625 0.177365 6.77507 19
213 1 -10.2729 6.19059 7.30027 10
214 1 1.55198 -8.68219 -5.05869 16
215 1 -0.692844 -4.56211 5.53106 16
216 1 -11.1845 -0.266543 7.16527 11
217 1 0.282451 -7.48758 7.62843 18
218 1 -6.13038 -5.0588 9.59109 14
219 1 4.1903 -6.83451 -5.71619 16
220 1 5.74771 -12.5204 0.123457 14
221 1 4.7884 11.3484 -3.2486 13
222 1 -6.42019 -6.72343 6.7701 19
223 1 11.3788 -4.56622 7.76235 9
224 1 6.34741 0.785438 -1.24041 21
225 1 -8.18714 4.3983 3.83623 16
226 1 5.58536 0.493244 -8.70102 22
227 1 8.54728 -3.9491 6.54914 24
228 1 2.10456 5.66205 -0.680141 23
229 1 -4.09079 2.33861 11.6777 10
230 1 2.47158 11.548 -0.399587 20
231 1 8.51189 -6.35299 3.51684 19
232 1 -1.45681 -12.853 -4.79941 19
233 1 8.09552 6.43796 7.97315 15
234 1 -6.69027 -1.62207 9.85233 13
235 1 -4.26631 -7.8804 -4.81826 23
236 1 -7.81026 -8.29488 -5.17239 11
237 1 -8.41345 8.89948 6.79333 13
238 1 -4.22977 -13.3954 -5.5923 13
239 1 -5.6531 -2.6256 3.34339 23
240 1 5.22832 1.64295 6.34748 17
241 1 13.5689 6.68943 -3.8026 9
242 1 -2.40224 3.28544 -7.31047 19
243 1 0.319283 3.93121 -6.36482 20
244 1 0.359976 6.64162 8.4061 20
245 1 -12.5786 -4.09625 -1.67441 9
246 1 6.18103 11.1891 -5.72105 12
247 1 -6.74647 -5.44284 -7.49957 18
248 1 -0.14078 -6.64881 -13.3342 11
249 1 7.69736 9.7843 -1.802 17
250 1 4.58498 5.99059 -2.58269 23
251 1 3.2535 4.07361 -4.45989 20
252 1 2.37171 -8.46196 4.35862 22
253 1 -0.51721 1.5666 -13.2352 12
254 1 10.9619 8.83728 -2.61115 13
255 1 5.21341 -4.82026 -1.49182 20
256 1 2.978 1.06867 -14.0784 11
257 1 2.47711 -10.8545 -0.222159 21
258 1 1.21622 -9.44841 11.0439 8
259 1 -8.53525 4.97258 -8.69851 16
260 1 7.81912 5.75039 1.84648 21
261 1 4.32669 -0.727625 -11.4107 18
262 1 -10.0955 -4.02638 -0.173847 20
263 1 11.8667 -2.42483 -6.45961 14
264 1 -5.64735 2.94408 -7.4624 20
265 1 -5.40963 6.08006 -8.54958 21
266 1 8.50055 -7.89718 -10.4341 10
267 1 5.01479 2.56952 -11.6313 17
268 1 8.19822 -3.12694 -6.07768 20
269 1 2.78923 -8.0802 1.38297 24
270 1 -9.41363 -6.18124 7.02699 13
271 1 -1.86994 14.189 1.39824 10
272 1 1.10275 6.79546 -7.07514 19
273 1 13.6128 8.1607 -1.01919 10
274 1 -1.77117 -10.3285 -2.16166 20
275 1 3.76347 -9.88673 -7.11434 16
276 1 4.67478 6.49571 1.07861 19
277 1 12.8955 -4.38047 -4.03925 13
278 1 5.26968 -9.49479 -0.936611 19
279 1 8.50605 -4.45642 0.348606 19
280 1 -9.59524 2.8063 8.57179 15
281 1 -6.90752 -5.51309 -0.817165 17
282 1 -3.55431 -4.89869 -7.00467 20
283 1 -0.748405 -4.26945 8.53869 17
284 1 8.92126 6.6147 -7.12613 14
285 1 -3.04387 8.25132 -5.2722 20
286 1 -0.24959 11.5746 -6.08573 11
287 1 -0.0181039 1.24647 8.27147 17
288 1 1.12296 -10.6922 -3.04236 21
289 1 8.42515 -2.25175 -8.82734 19
290 1 -10.3049 -6.71445 -1.46792 14
291 1 -5.50687 2.78896 -3.98576 21
292 1 -10.1444 -6.66921 1.94194 14
293 1 6.49477 4.04754 -4.18269 21
294 1 5.71343 -8.19159 -8.73281 18
295 1 5.77249 -7.53552 10.1665 12
296 1 12.0415 0.127138 -8.55899 15
297 1 -10.4223 6.84403 1.25252 13
298 1 7.09905 -6.31192 -5.39908 20
299 1 3.3038 7.46979 10.6264 12
300 1 -1.65734 -1.27998 -11.1165 18
301 1 8.19813 2.92696 -13.0752 13
302 1 -1.78616 -7.6995 -10.5389 16
303 1 -4.45006 -11.4561 -3.33478 22
304 1 12.4527 0.944012 -2.16138 13
305 1 11.8143 -5.50992 -12.1964 7
306 1 9.35458 -8.37416 -4.99648 17
307 1 5.65965 8.52359 -4.08571 22
308 1 -9.74518 1.91953 2.16997 16
309 1 11.7727 5.06103 -6.19338 15
310 1 5.36442 -4.67062 8.65488 19
311 1 9.28258 2.62493 3.47312 19
312 1 9.35209 1.9479 8.57042 13
313 1 -7.53661 -2.39693 -8.66015 19
314 1 14.3097 6.83462 2.60823 6
315 1 12.2495 -6.46733 1.42995 13
316 1 -0.116865 -8.73197 -0.108673 24
317 1 3.04071 9.34642 7.8279 16
318 1 4.77253 1.03971 3.43103 18
319 1 -2.92885 15.5754 -1.94081 10
320 1 -4.01479 -11.0021 -6.4824 15
321 1 -2.87028 2.29723 -12.0928 15
322 1 -7.13108 -0.508877 -11.0684 20
323 1 -9.48095 -0.129929 -3.41869 19
324 1 8.45938 -8.18186 -1.84657 18
325 1 2.14274 -11.8711 5.9485 15
326 1 3.02299 -2.83368 4.70153 20
327 1 11.7775 5.70864 -11.5016 8
328 1 8.66046 0.0768005 -6.77966 22
329 1 12.358 -0.829928 0.0224938 17
330 1 9.39257 8.19243 2.38 18
331 1 14.612 -2.53641 -1.24413 9
332 1 -2.06217 5.16776 6.85806 21
333 1 -10.1947 -9.99031 3.3335 10
334 1 -9.82025 1.08895 -12.4721 8
335 1 4.79208 -1.74196 13.1662 8
336 1 -5.1136 13.3979 0.0581913 12
337 1 5.45072 3.86948 -0.41896 23
338 1 3.17931 -1.3927 -4.39182 23
339 1 10.2243 4.59853 0.843547 17
340 1 -9.46375 -0.90853 10.2484 9
341 1 9.94577 0.197364 -13.6353 11
342 1 -0.466433 -4.44882 -5.16497 22
343 1 5.94046 5.92404 10.2412 13
344 1 9.40852 5.56186 4.78384 19
345 1 -0.800324 -3.48127 11.5551 12
346 1 -1.80697 4.79687 9.7884 15
347 1 -4.06758 2.79769 8.01095 18
348 1 -3.69753 5.68007 -6.36438 19
349 1 -1.53039 6.00629 -8.27729 24
350 1 6.94069 6.97688 -0.873675 21
351 1 -2.72701 -2.33741 5.07541 21
352 1 2.62365 10.8547 -5.63735 13
353 1 -6.5495 -14.1446 -3.32616 12
354 1 4.07765 6.08303 4.45855 17
355 1 -5.637 3.02895 3.17138 24
356 1 -7.94653 4.55289 0.499974 21
357 1 5.05002 5.85445 -6.12823 17
358 1 0.786301 1.99535 11.1893 15
359 1 8.44612 8.82306 5.72988 13
360 1 -6.49536 0.175106 -1.8316 22
361 1 0.887321 -1.57317 -6.60249 20
362 1 -0.265576 3.17453 3.25237 21
363 1 2.55409 -4.12717 -6.56935 21
364 1 1.56811 8.49637 3.90772 18
365 1 -12.2969 -1.66874 4.22429 9
366 1 3.03362 -13.7391 1.46424 13
367 1 8.49123 7.07592 -9.9751 12
368 1 8.40645 -9.15946 1.8134 18
369 1 -0.587453 6.46247 1.14028 17
370 1 7.45786 -1.26593 -11.5878 20
371 1 6.55009 -4.84953 -8.29527 18
372 1 -3.48419 11.5672 6.11885 13
373 1 4.41472 -7.16128 6.89402 19
374 1 1.2595 -1.45769 -9.49961 17
375 1 -7.3161 -11.7084 -4.85704 12
376 1 -6.79909 2.80491 6.49409 18
377 1 12.5568 -0.26567 3.33457 10
378 1 -0.325381 8.72612 -8.47156 14
379 1 11.2233 2.51051 -11.0791 15
380 1 11.9167 3.30364 -4.1334 13
381 1 6.12684 5.68328 -12.2438 9
382 1 0.700265 -1.47039 9.78963 17
383 1 -4.10247 -8.4383 5.17455 16
384 1 3.14336 -9.45741 -10.6972 15
385 1 -7.50909 8.05098 -3.02435 16
386 1 6.5028 9.07876 1.29295 17
387 1 -7.77172 -5.01229 4.62475 21
388 1 7.92168 3.95628 -10.0126 14
389 1 -0.127168 -0.869471 12.6149 14
390 1 -10.7564 -2.63216 -4.35281 16
391 1 6.28026 -1.62902 -3.30911 21
392 1 -5.78159 -8.34219 -2.51438 19
393 1 12.004 -3.91227 -0.863476 20
394 1 8.57589 -11.421 -0.212653 12
395 1 0.522988 9.36544 9.74039 9
396 1 -7.50444 1.69184 11.1397 9
397 1 11.0921 -3.30875 1.89909 18
398 1 7.75648 -4.54535 -2.84308 21
399 1 6.3174 4.24316 3.91899 18
400 1 5.63095 10.2535 5.42403 11
401 1 -0.289726 -15.2363 2.71119 8
402 1 -8.19148 -2.65637 -1.75372 24
403 1 3.98003 4.07048 11.6728 13
404 1 6.33567 7.56835 3.67479 18
405 1 9.36797 -1.49466 8.01601 14
406 1 11.5405 -5.07194 4.24469 18
407 1 8.94713 4.14696 10.1635 10
408 1 -4.00079 8.20012 -2.75972 22
409 1 1.922 -11.6447 -9.09048 11
410 1 1.45382 -0.883031 -12.5959 14
411 1 -2.30371 0.998216 10.1578 16
412 1 11.2916 1.76791 1.25752 14
413 1 3.81376 8.81109 -6.5038 17
414 1 10.1622 -3.15419 -13.1584 11
415 1 -6.35908 -14.5856 -0.206035 11
416 1 -5.28494 -2.70716 -6.47035 19
417 1 3.43161 -3.55368 -9.92694 17
418 1 1.94862 -12.2543 -5.14571 13
419 1 2.88905 -6.73468 9.90551 16
420 1 -0.879184 -9.3093 5.89491 18
421 1 11.3559 6.11526 -8.59431 13
422 1 -6.17063 10.1939 4.92188 15
423 1 9.69832 -2.27818 -4.10728 18
424 1 -12.3033 1.83261 -1.29774 11
425 1 9.76503 10.709 0.733541 10
426 1 6.02649 2.65995 9.53225 19
427 1 -10.4535 0.944051 -9.68924 11
428 1 -2.80575 1.56373 -9.44997 20
429 1 11.2299 -6.66733 -2.04875 17
430 1 -9.09203 -5.71407 -3.86243 16
431 1 -7.37097 -11.3975 4.60846 12
432 1 13.7553 -3.48795 2.2427 13
433 1 -11.3985 3.66126 3.19968 15
434 1 1.45849 7.04609 -10.4329 13
435 1 8.14774 -5.12599 9.38321 16
436 1 -3.34014 -1.86904 8.83836 17
437 1 -2.14218 -1.55499 -8.18489 21
438 1 -3.6141 -10.8865 5.94001 13
439 1 6.69927 -2.26952 9.50963 16
440 1 1.65453 -13.666 -1.65935 12
441 1 12.7106 -3.12551 -10.3501 10
442 1 -5.95024 6.12622 2.79649 22
443 1 -6.5738 0.310276 4.77612 20
444 1 -2.4244 -2.34668 -4.95429 21
445 1 -0.822448 -12.6745 -7.06403 15
446 1 10.2943 6.94458 -0.574025 20
447 1 9.26916 0.944291 -0.299924 20
448 1 -2.16711 -9.06571 8.45889 13
449 1 8.93178 10.4172 -4.56545 11
450 1 6.64475 3.00444 -7.69457 18
451 1 -11.054 3.57513 -3.28814 13
452 1 1.23273 6.12163 -3.95021 19
453 1 5.587 8.12188 8.09272 14
454 1 2.28723 8.81662 -3.25016 19
455 1 -4.62155 6.65041 8.60914 18
456 1 8.59658 0.862387 -3.2406 21
457 1 6.35747 -11.9834 2.95222 10
458 1 -6.18298 -2.40459 6.74059 18
459 1 10.3425 4.40911 6.93383 15
460 1 8.89617 -4.61579 -10.6237 15
461 1 -1.33064 2.12715 -4.47662 19
462 1 -3.37503 4.76524 -10.5362 20
463 1 -0.692535 6.4292 4.86056 21
464 1 -2.5875 8.76328 0.448465 17
465 1 -2.67056 -8.20919 1.68352 21
466 1 11.1705 -9.97548 -3.26575 12
467 1 4.6332 -2.59184 -13.5594 14
468 1 -6.30327 -8.39419 0.781139 19
469 1 -7.15122 5.07922 -6.07014 22
470 1 11.3632 -1.97185 5.43549 15
471 1 -8.60876 -8.84621 6.47664 13
472 1 9.38895 -1.84538 -1.10905 19
473 1 -0.0811578 3.7225 -9.43471 19
474 2 -10.0072 2.31077 -10.992 9
475 2 -4.11822 10.6156 -1.8668 16
476 2 4.03972 -2.6238 -11.3032 17
477 2 0.0360612 5.70631 6.44974 18
478 2 -5.82655 -4.49394 -11.05 13
479 2 3.87843 2.55448 12.8789 13
480 2 -8.45378 0.434625 -1.96506 18
481 2 8.80744 1.1544 4.62539 14
482 2 2.45239 1.1922 4.56622 20
483 2 -3.49406 -1.75599 -6.68301 18
484 2 -5.34464 -6.42545 -8.51248 14
485 2 -5.6954 0.767126 -3.46716 20
486 2 0.219132 -5.46172 7.32085 17
487 2 5.55291 1.03525 10.2839 18
488 2 9.9487 -5.1656 -12.2328 10
489 2 8.25294 -0.746437 0.362789 22
490 2 -7.32207 8.79941 -1.22295 17
491 2 11.6774 5.32679 4.81104 12
492 2 -11.9439 -3.10761 3.42307 11
493 2 -2.47116 -11.5391 -0.722817 16
494 2 11.8916 -5.7743 6.39508 9
495 2 -8.16563 9.2254 1.77495 14
496 2 -5.4823 8.89501 -4.02817 22
497 2 -1.14194 5.17324 3.07555 20
498 2 -2.70443 6.08997 5.35524 16
499 2 5.70172 -7.78332 -4.87453 19
500 2 -3.7585 2.00591 -7.57245 22
501 2 3.70187 -10.6832 -9.19415 12
502 2 11.7934 -2.84137 -12.051 11
503 2 -0.748485 -8.59591 1.78666 18
504 2 9.60297 9.93 -2.69702 12
505 2 -3.21871 11.296 4.30097 15
506 2 -3.28939 -6.66969 -6.18015 20
507 2 3.97567 -8.14115 8.94179 16
508 2 11.1777 -2.43405 -0.0153487 21
509 2 -11.9426 1.65069 -3.27008 13
510 2 7.77066 10.5166 0.0724765 14
511 2 7.67581 -11.3185 1.42177 12
512 2 -0.75185 8.48598 4.7609 20
513 2 5.45608 5.20595 5.19927 17
514 2 4.80802 4.9747 -4.40179 20
515 2 -7.76347 0.0767053 10.2223 12
516 2 8.43785 2.66056 -8.3772 20
517 2 -10.2767 4.21662 -4.68468 13
518 2 -11.1528 1.5369 6.54659 13
519 2 -9.32662 -10.7062 1.74921 14
520 2 0.392347 -8.9688 4.45652 18
521 2 -1.17733 -5.21694 11.1001 10
522 2 2.74037 4.7464 5.30695 17
523 2 -10.5635 2.8294 -1.29568 17
524 2 5.72963 -9.64562 -7.2963 14
525 2 10.4507 0.719694 -7.2344 17
526 2 -3.54357 -9.94556 1.43206 17
527 2 6.93839 0.54482 -7.2827 19
528 2 2.44897 8.83815 9.63799 11
529 2 11.172 -8.69392 -4.95247 13
530 2 8.15597 -1.23816 9.78631 13
531 2 -6.51106 -7.87328 2.41099 21
532 2 12.3637 2.94023 -2.53955 10
533 2 2.23691 -9.89014 1.44778 23
534 2 11.7102 -5.68143 -0.315557 17
535 2 -1.82571 4.81613 -6.20839 20
536 2 0.994381 -4.35399 -3.58661 20
537 2 -3.3467 -6.48175 -10.279 15
538 2 -8.18914 -6.9074 5.71677 19
539 2 -6.39278 -10.1155 0.19349 16
540 2 -6.05209 -7.73492 -4.576 19
541 2 -4.32697 8.42343 -0.353278 18
542 2 1.49254 2.48136 -8.37523 17
543 2 8.6755 6.88097 -1.84151 19
544 2 1.82804 5.25515 -5.52552 19
545 2 -8.54104 3.09849 10.0952 10
546 2 -9.81466 5.07744 0.652405 17
547 2 -3.08132 5.48225 8.63829 18
548 2 -11.5334 6.35797 2.64287 10
549 2 -5.35571 4.73249 -6.45321 18
550 2 12.6018 4.50588 -7.96546 13
551 2 12.0255 -6.09069 -4.11215 15
552 2 6.0629 5.6338 -0.0519307 19
553 2 -2.54301 9.98094 1.78016 17
554 2 -5.53391 6.8946 6.21777 23
555 2 0.684308 7.06528 2.41812 17
556 2 11.9155 7.75429 -3.96643 14
557 2 -1.13721 10.0604 -0.684471 20
558 2 7.28948 10.427 -6.82327 12
559 2 2.37604 5.72887 8.2519 20
560 2 -3.07178 0.767204 5.11117 20
561 2 2.62988 -1.99633 6.3167 20
562 2 7.71945 -3.10696 -10.5668 17
563 2 -2.50387 3.01619 10.4329 12
564 2 8.12026 1.11116 -13.8068 11
565 2 -7.3427 -10.2749 6.7065 14
566 2 -1.09175 -8.52482 -1.75721 17
567 2 0.476326 -5.2691 -6.56847 22
568 2 4.72204 -12.2498 1.79862 15
569 2 11.0783 6.90352 -7.09503 15
570 2 1.02508 0.847051 -13.2507 9
571 2 -1.96744 10.5318 7.35512 14
572 2 -8.57696 0.703726 -5.2136 17
573 2 4.73479 8.3591 -8.50995 10
574 2 0.938934 11.9438 -1.45306 17
575 2 -0.0242584 5.23386 9.94197 14
576 2 2.41535 -12.3403 -3.14395 14
577 2 5.9906 2.99321 7.53742 16
578 2 8.70204 -3.47497 -1.46007 19
579 2 8.06603 4.47272 3.75684 22
580 2 -1.42202 3.34173 -13.0575 11
581 2 6.97203 -6.41503 9.2033 15
582 2 0.435564 -12.1868 7.1557 11
583 2 8.35511 -7.70852 6.29893 13
584 2 -4.0753 9.89679 -6.12451 14
585 2 -4.95819 -14.5347 -4.14793 13
586 2 -2.94159 -0.512088 -9.81165 20
587 2 -1.30573 -10.5555 -7.46835 19
588 2 10.6959 9.3569 1.51632 12
589 2 -9.5563 -7.70178 -2.9471 15
590 2 -12.1425 4.16193 5.05535 11
591 2 10.3341 -2.92421 7.02171 15
592 2 -2.70974 -14.9712 -1.08297 11
593 2 1.64276 0.183702 -6.92166 19
594 2 0.103041 -1.68983 -11.109 17
595 2 -8.28652 -2.27101 -10.6443 16
596 2 -4.79396 -1.94583 10.0786 16
597 2 -5.45099 -4.6049 -6.05832 23
598 2 2.40223 -6.0994 -9.44025 15
599 2 8.81196 -0.570809 -9.75682 19
600 2 -5.57685 -4.03254 0.600548 19
601 2 2.19792 -2.88066 -8.72418 18
602 2 2.19524 3.39846 -3.12674 22
603 2 -0.635275 -10.8527 -3.72498 23
604 2 3.57549 5.82372 -10.7762 12
605 2 4.80183 9.27247 6.80123 14
606 2 12.7472 0.546947 1.46612 12
607 2 -8.8437 -3.52752 5.1743 17
608 2 -0.494898 -11.5027 1.72599 22
609 2 2.69563 -0.304269 -10.3528 20
610 2 -3.76539 4.02614 3.4273 24
611 2 -2.96719 -6.75396 0.457138 17
612 2 -6.78086 4.001 4.96121 19
613 2 -5.58824 1.11629 3.19939 24
614 2 -9.8032 -4.49888 7.79607 11
615 2 -2.2785 -15.3086 2.38427 10
616 2 -12.9888 -0.612702 2.74403 7
617 2 -7.15886 -12.9095 0.216313 13
618 2 -9.19784 -7.71142 7.96267 10
619 2 9.46341 -5.33167 8.07986 14
620 2 4.3329 11.2129 -5.14731 14
621 2 5.26505 7.82323 -5.87265 18
622 2 11.7671 0.385898 -3.94884 16
623 2 -1.80195 12.5279 -5.69003 12
624 2 -9.23989 0.306169 -8.0013 15
625 2 -12.5153 0.0765638 -0.199861 12
626 2 0.216161 -13.053 -5.29543 14
627 2 3.48379 -5.47718 8.09305 18
628 2 9.2068 -3.7889 1.86593 19
629 2 -4.98709 7.68025 -7.31096 18
630 2 9.12879 1.6853 1.79854 18
631 2 2.78636 -1.33928 9.95276 17
632 2 -0.297751 -4.5687 -10.4404 20
633 2 5.01986 2.74634 4.11981 18
634 2 7.92958 8.40495 7.40125 11
635 2 -3.18268 0.500303 11.7348 11
636 2 -7.83087 6.35883 3.81943 19
637 2 9.92105 9.68747 -5.97589 11
638 2 -8.34455 -10.1344 -5.00019 10
639 2 -6.15118 -1.98639 -4.93762 24
640 2 -8.34617 -2.66441 10.2812 11
641 2 4.13817 9.40132 -3.28725 21
642 2 -0.452911 -2.26468 -8.10911 20
643 2 10.8943 3.59799 2.50818 17
644 2 10.5011 -6.52926 3.95506 17
645 2 -9.92686 -2.0922 -0.490821 20
646 2 -0.461111 12.6911 1.90069 16
647 2 -3.44387 8.16398 -10.1943 13
648 2 6.3501 0.153022 -10.3239 19
649 2 -7.63774 3.46561 -1.01282 20
650 2 2.2608 -4.60505 4.90122 22
651 2 2.72518 6.26823 1.10645 20
652 2 -8.97044 -2.59068 2.32388 21
653 2 9.39376 -6.52801 -2.63557 19
654 2 0.6121 -10.4577 -1.13841 22
655 2 -4.37527 7.31101 3.76389 20
656 2 1.68798 -7.11292 2.93879 20
657 2 -9.80066 7.25617 -6.48178 10
658 2 4.8327 -11.2973 -0.923567 17
659 2 5.91708 6.14669 7.70563 16
660 2 3.40563 2.77832 -10.6146 17
661 2 -0.181086 7.86057 -10.2387 13
662 2 9.13866 2.87151 -11.4588 16
663 2 -1.34043 12.5033 -3.14206 19
664 2 -7.1468 -1.34763 7.94619 19
665 2 -5.57482 -7.27058 5.18238 19
666 2 -3.3449 -7.42114 3.57616 19
667 2 -11.8583 -2.31031 -2.57815 14
668 2 -2.72617 -4.56185 5.51003 15
669 2 -0.823732 7.17747 -5.68377 20
670 2 6.16212 -5.62665 -3.07928 20
671 2 -0.143569 0.3948 9.98078 16
672 2 -7.66443 -4.64739 -2.6061 19
673 2 5.87979 -1.36118 -12.9373 15
674 2 11.2433 3.08946 -5.95625 16
675 2 6.90873 9.06037 4.58305 13
676 2 6.7018 -2.63527 -4.68399 21
677 2 -8.51232 -5.17662 0.262065 20
678 2 -3.0965 15.1385 -3.78964 10
679 2 3.64625 0.816804 7.56727 17
680 2 1.84883 -12.7197 0.351306 18
681 2 -2.75376 -12.3948 5.57152 10
682 2 -2.842 1.20239 -4.78039 18
683 2 5.16372 -2.47712 8.4363 17
684 2 10.5908 6.57087 -10.4384 11
685 2 2.51372 11.7647 1.37499 14
686 2 6.61154 -10.5773 4.2102 13
687 2 8.57306 -9.64684 -6.06375 14
688 2 4.15105 5.25137 -7.53522 15
689 2 4.75739 -6.04894 3.56672 23
690 2 5.27994 4.35948 10.0036 18
691 2 1.84421 3.59645 2.74981 21
692 2 10.4932 -3.30552 4.04684 17
693 2 4.78211 1.26645 -13.1199 16
694 2 12.6839 -3.45615 -7.73366 10
695 2 -5.94018 11.6851 0.419068 12
696 2 4.54966 -8.0648 -10.461 16
697 2 0.907181 0.676612 12.6945 11
698 2 -7.73445 8.89288 -6.18838 11
699 2 9.18275 -4.13682 -4.59342 19
700 2 7.45799 7.86067 2.07543 19
701 2 14.2156 8.17504 1.04718 7
702 2 11.1659 4.88679 -0.807905 16
703 2 -9.24587 -2.0294 -3.38234 21
704 2 -6.53195 6.24806 -2.47921 19
705 2 -6.68663 3.85109 -8.93162 20
706 2 -6.13395 -2.03605 -1.65815 23
707 2 12.2893 5.3128 -4.25086 14
708 2 -10.3714 7.95091 -0.405584 11
709 2 -1.53565 -7.23178 9.11187 15
710 2 3.67665 -0.298127 13.5528 11
711 2 2.50672 -10.7142 -6.06398 14
712 2 2.30458 -9.21752 -12.3164 11
713 2 4.63107 11.7745 -1.25684 15
714 2 5.57257 10.8192 1.53076 14
715 2 -8.03458 -4.58255 -8.59046 13
716 2 -6.66336 -12.2499 -3.05271 17
717 2 11.605 -2.71734 -4.40544 16
718 2 -5.66903 6.20943 0.838437 19
719 2 2.04925 -11.9097 3.88533 17
720 2 7.46234 -7.55447 2.34971 18
721 2 -6.33714 -4.77987 3.17995 21
722 2 -0.376449 -7.87 -5.64697 17
723 2 2.27856 3.14766 10.817 18
724 2 2.21259 8.94245 -5.34815 18
725 2 -8.39471 6.99597 7.32008 13
726 2 5.35913 -0.850409 -0.733911 19
727 2 -6.40122 -8.37318 8.54883 14
728 2 -1.60096 14.6335 -0.630029 12
729 2 -0.174877 -13.5496 -1.6728 15
730 2 -2.48811 -3.79025 8.40297 16
731 2 8.21878 2.2961 10.2682 11
732 2 -7.10384 3.9212 2.13772 19
733 2 0.497714 9.27365 -2.66722 19
734 2 0.378322 0.166334 6.7087 16
735 2 -0.149515 -7.3592 -8.76082 20
736 2 12.0294 -6.46781 -7.48363 10
737 2 8.90242 -6.70874 -5.85955 19
738 2 -2.52768 9.06181 -3.69917 18
739 2 -5.90305 2.98107 11.2745 10
740 2 -8.82987 4.03167 -6.88916 15
741 2 9.85007 -1.57109 -6.32863 18
742 2 5.95917 3.68688 -2.3732 22
743 2 -3.20836 0.740942 8.44692 15
744 2 -0.728798 -2.31615 4.86744 20
745 2 0.793897 4.72954 -11.2429 15
746 2 -10.8672 -0.831328 -5.02102 13
747 2 -2.4756 -3.13932 -11.4534 16
748 2 -0.509271 4.79213 -3.40878 21
749 2 -5.19474 -1.17264 -11.4609 17
750 2 4.97387 -4.711 -9.43956 16
751 2 -3.952 -7.11809 -2.9816 18
752 2 -0.178514 -9.27229 7.82886 16
753 2 -3.37506 5.11164 -8.56959 22
754 2 5.13821 -2.83838 4.64122 23
755 2 5.60231 6.13152 2.71529 19
756 2 12.3846 -4.96232 -10.5871 10
757 2 1.63936 -14.4569 2.81282 10
758 2 8.60028 4.92909 6.45083 19
759 2 -5.11732 10.6535 6.38799 14
760 2 -10.9519 -5.05814 -1.5314 17
761 2 8.55163 4.12408 -3.62615 18
762 2 3.80395 -9.8558 3.93445 19
763 2 -5.70681 10.5438 3.14053 15
764 2 8.78949 5.31532 -8.76544 16
765 2 5.79789 2.03025 0.213193 23
766 2 -9.67269 2.97845 3.71436 16
767 2 2.12544 7.38574 -8.45326 14
768 2 -5.76129 0.924524 0.00897192 23
769 2 9.2329 -1.59964 -12.7407 13
770 2 -5.82509 1.17827 6.33524 22
771 2 0.839777 2.9881 7.88337 19
772 2 11.1392 3.03795 5.66467 14
773 2 10.8959 0.735094 -12.0892 14
774 2 -9.73088 -4.32609 -4.96003 15
775 2 1.4996 -7.56557 0.0393933 20
776 2 12.1635 -1.32944 -9.63955 12
777 2 -3.22281 6.54417 -1.95257 21
778 2 1.23717 -10.1419 -10.1665 16
779 2 -10.5975 4.47874 8.03774 9
780 2 -6.52925 -1.67208 1.64615 22
781 2 9.13538 -9.95715 -3.14773 15
782 2 -4.23772 -9.72705 -8.04176 12
783 2 -2.99055 -12.5193 -3.72689 22
784 2 9.268 -0.887479 -2.86518 22
785 2 -2.27142 5.6153 -11.6928 13
786 2 2.7151 7.3898 4.80386 20
787 2 -2.76688 -12.6678 -6.65748 15
788 2 5.68446 0.0607046 5.20791 18
789 2 -4.24312 9.10085 8.68554 13
790 2 -4.53124 3.71873 -2.46858 19
791 2 -5.19902 6.41183 -11.1917 12
792 2 0.579242 -12.3821 -8.17293 11
793 2 -8.63273 -9.7556 4.42227 12
794 2 -9.21148 8.1279 -3.43404 12
795 2 7.67733 5.70478 -10.9814 9
796 2 0.0702031 5.20852 -8.05963 22
797 2 3.61713 4.39287 -0.277502 19
798 2 -0.390723 -8.05279 -11.9038 15
799 2 2.88519 -7.91636 -6.71596 17
800 2 -10.3289 -0.286435 -11.2693 8
801 2 9.4807 7.57434 4.43539 16
802 2 -2.06611 0.407856 -12.1005 14
803 2 -10.4927 -8.24285 2.93212 9
804 2 9.59787 0.515819 7.4645 15
805 2 7.98576 5.7375 9.79593 14
806 2 12.4353 4.15477 -10.8274 10
807 2 -1.85359 7.79866 -8.10149 18
808 2 -5.08598 12.5915 -4.31843 12
809 2 11.2415 0.975648 -0.684974 17
810 2 -6.19346 1.31223 -6.30429 22
811 2 6.68368 10.6927 -3.70416 16
812 2 -1.98634 -1.96023 12.1467 12
813 2 -1.90632 -4.88824 -8.01425 19
814 2 -4.9331 -4.46354 -3.20969 20
815 2 6.1186 -0.542573 12.3085 10
816 2 -2.56298 6.82432 1.08238 21
817 2 11.5382 -8.22474 1.55668 11
818 2 6.99695 -8.36327 -11.5966 6
819 2 -0.631602 8.20879 8.78309 15
820 2 6.04772 -5.14007 6.76923 18
821 2 -3.6111 6.5978 -4.69115 18
822 2 1.79019 10.2361 7.01793 13
823 2 -7.39889 6.33629 -7.59904 16
824 2 2.46082 8.88369 -0.652779 20
825 2 -7.68408 -6.43591 -5.69289 15
826 2 5.55784 -4.41155 -12.8482 13
827 2 -5.86114 3.82129 7.91234 17
828 2 13.3141 -3.72355 -2.22215 12
829 2 -0.0134233 9.80271 -6.86453 15
830 2 -8.40717 0.502481 4.3116 21
831 2 -5.58334 -11.8553 -5.54211 13
832 2 5.01639 7.53183 9.76765 14
833 2 -1.70368 -9.6243 -10.3984 11
834 2 -6.46055 3.2728 -11.7922 15
835 2 0.22461 2.07378 -5.61077 20
836 2 3.10034 -1.01533 -13.8584 12
837 2 -7.48704 9.02886 5.15507 16
838 2 -7.15535 8.97568 8.64917 11
839 2 0.986743 11.3011 -4.8367 14
840 2 -5.39082 -14.5907 -1.80197 13
841 2 11.7288 1.90371 -9.47058 15
842 2 7.20424 -2.90365 -7.57703 19
843 2 -6.38971 -11.8923 3.02736 12
844 2 -7.24551 3.78318 -4.43434 17
845 2 -5.21144 -10.238 4.75982 18
846 2 -1.05076 2.60066 -8.49364 17
847 2 3.89953 -8.73546 -1.9825 21
848 2 3.18945 -10.6339 6.93051 14
849 2 10.1444 3.55776 8.68552 10
850 2 6.90257 -3.94267 10.1403 14
851 2 -4.01842 -2.06112 6.75995 17
852 2 6.23272 3.69681 -12.438 13
853 2 2.77316 5.99714 11.4748 13
854 2 -2.64076 -4.34129 -5.18674 20
855 2 -8.88023 -10.5009 -1.90054 14
856 2 -2.672 -9.18795 6.23353 14
857 2 -8.61788 0.738207 1.08937 20
858 2 -4.04347 2.871 -10.5038 23
859 2 -8.30743 -2.51704 -6.79516 18
860 2 -3.6084 13.1905 1.19341 12
861 2 7.85154 -4.73694 4.94583 21
862 2 9.57948 6.42532 1.41404 18
863 2 -5.3055 -14.8578 1.35354 10
864 2 -9.02634 -5.56501 3.25759 17
865 2 -11.2203 -1.71755 5.87967 13
866 2 0.0557202 -2.54004 8.05675 17
867 2 0.786613 -2.67053 11.3264 12
868 2 -0.682624 -14.0899 4.47629 12
869 2 11.3476 -0.314711 4.73937 13