ITEM: TIMESTEP
87000
ITEM: NUMBER OF ATOMS
1000
ITEM: BOX BOUNDS pp pp pp
-30.0 30.0
-30.0 30.0
-30.0 30.0
ITEM: ATOMS id type x y z Coordination
1 1 -11.9657 -0.953135 -5.83607 15
2 1 -10.3083 -4.07685 -6.29228 15
3 1 -10.0723 -5.99127 -4.18578 16
4 1 -11.9408 -3.61531 -3.87755 16
5 1 -8.42072 -7.16846 -6.78195 13
6 1 -6.27639 -10.1009 -5.83518 13
7 1 -7.10687 -11.4998 -3.02222 11
8 1 -8.29028 -8.77151 -4.08395 17
9 1 -9.01095 -1.00578 -11.3515 11
10 1 -7.00125 -3.7131 -11.5814 13
11 1 -6.81532 -5.75912 -9.33334 16
12 1 -8.29571 -2.74345 -8.89392 19
13 1 -8.7744 -1.10074 -6.14237 22
14 1 -6.94889 -4.06163 -6.2945 22
15 1 -6.92412 -5.86035 -3.40578 22
16 1 -8.50339 -2.9426 -3.44597 24
17 1 -5.19651 -6.87869 -11.4489 13
18 1 -4.79872 -8.77088 -8.88933 15
19 1 -5.66865 -6.99766 -6.04623 22
20 1 -3.10653 -9.88114 -5.79002 22
21 1 -3.75142 -11.4128 -2.94765 18
22 1 -5.07315 -8.69751 -3.18958 24
23 1 -5.26483 -0.928811 -11.7222 18
24 1 -4.05036 -4.00416 -11.1126 24
25 1 -3.62057 -5.96337 -8.59308 25
26 1 -5.24165 -2.64025 -8.61196 23
27 1 -5.54904 -0.862611 -6.12721 24
28 1 -3.69468 -4.10335 -6.14187 23
29 1 -3.73964 -5.94484 -3.62158 23
30 1 -5.4463 -2.98849 -3.60633 23
31 1 -1.74052 -12.6118 -5.31048 13
32 1 -2.31232 -7.32066 -11.0072 17
33 1 -1.15473 -11.7421 -7.92899 10
34 1 -1.73458 -8.66445 -8.55369 20
35 1 -1.78501 -6.69055 -5.89764 23
36 1 0.101679 -9.57941 -6.0781 21
37 1 -0.19762 -11.2744 -3.54273 24
38 1 -1.9742 -8.6352 -3.20064 25
39 1 -2.05723 -1.37639 -11.3105 21
40 1 -0.488503 -4.07958 -11.3048 22
41 1 -0.0451346 -5.8395 -8.70429 23
42 1 -2.12829 -2.93537 -8.77926 24
43 1 -2.05228 -0.933761 -6.30333 24
44 1 -0.442251 -3.78185 -6.20311 23
45 1 -0.448689 -5.54592 -3.44353 22
46 1 -2.10072 -2.69012 -3.46947 22
47 2 -12.0901 -2.90012 -1.8711 20
48 2 -11.8588 -5.66416 -3.56002 14
49 2 -8.66773 -10.295 -3.03075 12
50 2 -9.83567 -6.14894 -6.15203 13
51 2 -11.714 -2.8245 -5.99564 12
52 2 -8.47845 -2.71429 -11.0332 12
53 2 -10.5168 -5.7375 -0.908679 18
54 2 -13.4707 -5.45935 -0.947901 11
55 2 -12.2684 -0.70819 -3.99549 15
56 2 -9.94739 -3.85504 -4.15524 22
57 2 -7.63538 -8.74481 -6.05443 13
58 2 -6.60898 -5.6092 -11.3601 9
59 2 -6.98916 -11.1209 -0.334806 16
60 2 -8.60688 -8.4494 -0.733045 18
61 2 -8.56685 -6.89614 -3.4636 20
62 2 -6.33876 -9.94181 -3.91541 17
63 2 -6.86026 -5.98251 -7.21326 20
64 2 -8.76493 -2.88765 -6.82278 20
65 2 -8.88456 -0.846238 -9.28919 16
66 2 -6.66703 -3.86315 -9.30995 19
67 2 -6.99328 -5.57289 -1.41577 22
68 2 -8.46683 -2.79751 -1.49537 24
69 2 -8.62053 -0.989283 -4.21476 22
70 2 -7.03691 -4.04949 -4.30943 25
71 2 -5.39842 -12.1261 -2.20457 15
72 2 -2.5044 -11.4477 -6.56137 14
73 2 -4.94671 -9.0008 -6.86374 18
74 2 -5.19127 -6.92307 -9.3891 17
75 2 -3.20733 -8.974 -10.1112 11
76 2 -2.94667 -11.6511 -0.945775 18
77 2 -5.07037 -8.55779 -1.22584 24
78 2 -5.32921 -6.93826 -4.09568 25
79 2 -3.46814 -9.78493 -3.91225 21
80 2 -3.47893 -5.95828 -11.8416 14
81 2 -5.32263 -2.81775 -11.7706 14
82 2 -3.65429 -6.0008 -6.47116 22
83 2 -5.30114 -2.82801 -6.52578 22
84 2 -5.45846 -0.881595 -9.54272 27
85 2 -3.59896 -4.07794 -9.14333 23
86 2 -3.43345 -5.75435 -1.4248 23
87 2 -5.26653 -3.03042 -1.53149 25
88 2 -5.542 -1.10817 -4.07054 23
89 2 -3.51518 -3.81132 -4.14018 22
90 2 0.239524 -13.5882 -0.527058 13
91 2 -1.82058 -12.2331 -3.53489 16
92 2 -0.249519 -12.7422 -6.64651 10
93 2 -1.70873 -8.70856 -6.58662 22
94 2 -1.91485 -6.72698 -9.11184 21
95 2 -0.218877 -10.045 -8.1228 15
96 2 -0.00570473 -11.4681 -1.74753 20
97 2 -1.77466 -8.71363 -1.10087 23
98 2 -1.9797 -6.82385 -3.8736 21
99 2 -0.371913 -9.37122 -4.121 23
100 2 -0.893501 -6.03568 -11.9283 14
101 2 -2.22075 -3.51197 -11.9718 15
102 2 -0.151002 -5.91481 -6.66585 22
103 2 -2.22032 -2.94026 -6.60297 21
104 2 -2.29221 -0.990522 -9.32871 22
105 2 -0.56646 -3.91455 -9.33148 23
106 2 -0.229951 -5.78389 -1.49801 21
107 2 -1.89721 -3.0008 -1.29493 20
108 2 -2.0871 -1.02895 -4.27106 25
109 2 -0.531836 -3.65983 -4.06376 22
110 1 -13.8736 -3.57728 -1.18946 13
111 1 -12.0829 -6.28393 -1.84587 13
112 1 -9.30481 -10.181 -1.04115 11
113 1 -11.98 -5.0609 4.0058 12
114 1 -12.0176 -1.13538 -0.831796 21
115 1 -10.446 -3.73683 -1.03255 23
116 1 -10.518 -5.52331 1.17046 19
117 1 -13.9333 -5.53007 0.966378 10
118 1 -12.846 -1.07095 4.38501 13
119 1 -12.1684 -2.90704 1.86312 18
120 1 -10.1266 -5.70256 6.60562 11
121 1 -11.9334 -2.9762 6.26702 11
122 1 -8.83838 -6.65908 -1.34636 19
123 1 -6.78066 -9.14984 -0.489379 22
124 1 -7.59915 -11.0578 1.72312 14
125 1 -8.71818 -8.44957 1.85217 17
126 1 -8.9379 -6.58168 3.98226 16
127 1 -6.84242 -9.48956 4.15675 18
128 1 -8.42033 -8.64565 6.22306 12
129 1 -8.52089 -0.942734 -0.770574 24
130 1 -6.9282 -3.76419 -0.696311 22
131 1 -7.09701 -5.86796 1.61062 21
132 1 -8.81925 -3.04122 1.67221 20
133 1 -8.74755 -1.0803 4.53181 19
134 1 -6.88465 -3.89942 4.38473 21
135 1 -7.06706 -5.62464 7.31299 21
136 1 -8.64501 -3.0578 7.36358 20
137 1 -8.75877 -1.24681 9.73666 13
138 1 -6.44385 -3.91381 10.0547 15
139 1 -5.63184 -12.3843 -0.343608 13
140 1 -4.99555 -12.3672 3.07765 14
141 1 -5.30126 -6.43314 -0.968894 20
142 1 -3.41112 -9.48617 -0.548967 23
143 1 -2.66625 -11.4586 1.22647 19
144 1 -5.11803 -8.26952 1.91851 21
145 1 -5.36573 -6.77538 4.477 25
146 1 -3.43071 -9.79614 3.41137 25
147 1 -3.75433 -11.6917 6.31429 12
148 1 -4.96347 -8.82842 6.93613 17
149 1 -5.00616 -6.61895 9.91253 16
150 1 -3.43088 -9.86439 9.24338 10
151 1 -5.23022 -1.1095 -0.76077 24
152 1 -3.65711 -3.93589 -0.68861 25
153 1 -3.54875 -5.56032 1.62255 22
154 1 -5.30769 -3.14067 1.82794 25
155 1 -5.22948 -1.17829 4.60843 23
156 1 -3.37959 -3.71409 4.61934 22
157 1 -3.73403 -5.81436 7.30427 23
158 1 -5.36412 -3.14352 7.06594 21
159 1 -5.10221 -0.921729 9.26806 21
160 1 -3.48363 -3.61902 9.99383 22
161 1 -3.59864 -5.2023 12.8739 10
162 1 -4.85645 -2.68208 12.8182 12
163 1 -1.62844 -12.9513 -1.52527 14
164 1 -1.74743 -12.8934 4.19156 13
165 1 -1.90499 -6.64213 -0.762843 25
166 1 -0.0739865 -9.80528 -0.700919 23
167 1 0.119102 -13.1753 1.2021 15
168 1 -1.67836 -8.27015 2.00949 20
169 1 -2.04677 -6.58989 4.5149 21
170 1 0.0174285 -9.95277 3.48872 22
171 1 -0.240769 -11.8112 6.45538 14
172 1 -1.9348 -9.07926 6.06219 23
173 1 -1.83118 -6.57901 10.0918 18
174 1 -0.320598 -9.02686 8.91344 16
175 1 -1.99878 -1.00404 -0.717865 25
176 1 -0.192832 -3.82098 -0.827919 25
177 1 -0.177777 -5.73847 1.79632 24
178 1 -1.86113 -2.45257 1.98535 24
179 1 -1.87817 -0.969204 4.50473 23
180 1 -0.353128 -4.12827 4.28525 24
181 1 -0.268221 -6.14907 6.97137 21
182 1 -2.01775 -2.77496 6.99875 23
183 1 -1.98932 -0.917524 9.53718 21
184 1 -0.476511 -3.87067 9.21689 21
185 1 -0.116996 -5.46794 12.3977 13
186 1 -1.46132 -2.53698 12.7337 15
187 2 -13.7807 -3.42427 0.766783 14
188 2 -12.4424 -5.48859 2.18531 11
189 2 -9.19115 -10.3198 1.13786 11
190 2 -10.3703 -5.70036 4.64737 15
191 2 -12.4277 -3.10666 4.25107 13
192 2 -11.9749 -1.09439 1.20531 22
193 2 -10.5221 -3.58159 1.0459 21
194 2 -12.0023 -0.971663 6.1724 14
195 2 -10.4136 -3.90278 6.95456 13
196 2 -6.51016 -11.2279 3.26201 15
197 2 -8.85989 -8.53623 4.3078 16
198 2 -8.92516 -6.44282 2.03654 18
199 2 -6.82915 -9.12155 1.66362 22
200 2 -8.65526 -6.87918 6.85386 13
201 2 -6.64968 -9.3108 6.17526 13
202 2 -6.96786 -5.85144 3.76556 24
203 2 -8.34992 -2.69121 3.64151 20
204 2 -8.59096 -1.03842 1.35393 21
205 2 -7.00686 -4.00136 1.19407 24
206 2 -6.35015 -5.60914 9.06071 15
207 2 -7.96568 -2.96004 9.3546 15
208 2 -8.81872 -0.982229 6.59792 20
209 2 -7.01858 -3.71615 6.42449 23
210 2 -4.90206 -4.16741 11.4355 13
211 2 -4.60109 -12.3161 1.25477 14
212 2 -3.83256 -11.4887 4.31727 17
213 2 -4.95383 -8.64126 3.78252 21
214 2 -5.33131 -6.47453 1.00305 23
215 2 -3.13861 -9.56985 1.36641 21
216 2 -4.80337 -8.4428 9.06213 11
217 2 -5.19318 -6.80245 6.44688 23
218 2 -3.38735 -10.0301 7.17182 17
219 2 -3.5368 -5.57389 3.6612 24
220 2 -5.11673 -2.8737 3.86936 23
221 2 -5.08664 -1.26648 1.21687 23
222 2 -3.3979 -3.63452 1.20949 23
223 2 -3.27435 -5.62824 9.24435 21
224 2 -5.07179 -2.71977 9.063 23
225 2 -5.45936 -0.894659 6.90779 21
226 2 -3.60073 -3.88358 6.52591 24
227 2 -5.32652 -0.851232 12.7486 11
228 2 -3.08321 -3.42094 13.1337 11
229 2 -1.51694 -12.636 2.16117 17
230 2 -2.01102 -12.4459 6.03712 12
231 2 -0.199578 -11.6948 4.34636 19
232 2 -1.83353 -8.68295 4.01184 19
233 2 -1.86442 -6.61478 1.16036 22
234 2 -0.0118062 -9.32274 1.75759 22
235 2 -1.85957 -8.58825 9.7512 14
236 2 -2.05607 -6.94614 6.40165 23
237 2 -0.413343 -9.80337 7.01512 19
238 2 -2.04385 -5.65076 11.8989 14
239 2 -0.284016 -5.97997 3.87295 23
240 2 -1.80293 -3.05949 3.72075 24
241 2 -1.82181 -0.663576 1.3561 21
242 2 -0.2856 -3.77902 1.35426 23
243 2 -0.168579 -5.86811 8.99516 21
244 2 -1.90365 -2.68684 9.07556 20
245 2 -2.11926 -0.872387 6.49383 24
246 2 -0.284868 -4.08339 6.5134 24
247 2 -1.68182 -0.812723 11.9448 18
248 2 0.317888 -3.51775 12.6696 14
249 1 -13.8578 -0.129911 -3.04672 12
250 1 -10.5241 -0.110731 -8.76246 12
251 1 -12.1672 4.84249 -5.86015 9
252 1 -10.4781 1.88994 -6.72381 17
253 1 -10.3869 -0.173021 -3.46066 23
254 1 -12.1945 2.68417 -3.79232 14
255 1 -10.6704 7.77983 -6.52843 8
256 1 -9.94485 6.10028 -3.99616 18
257 1 -6.97441 1.60465 -11.6049 15
258 1 -7.16261 0.074594 -9.02801 23
259 1 -8.89173 2.93141 -9.43214 14
260 1 -8.87835 4.79688 -6.70514 20
261 1 -7.10871 1.89523 -6.25874 21
262 1 -6.98521 0.0548911 -3.61286 21
263 1 -8.79114 2.6777 -4.03174 20
264 1 -6.9826 5.5903 -8.89675 14
265 1 -7.03069 7.65529 -6.03862 19
266 1 -6.92618 5.73343 -3.5526 23
267 1 -8.34586 9.23531 -3.90134 18
268 1 -6.00489 10.8286 -2.11943 16
269 1 -5.31213 4.53215 -11.7634 15
270 1 -3.76318 1.58397 -11.4966 22
271 1 -3.80987 0.0724752 -8.70049 24
272 1 -5.65922 2.59786 -8.90148 22
273 1 -5.60569 4.65749 -6.1412 25
274 1 -3.93181 1.86361 -6.16311 24
275 1 -3.74901 -0.0157162 -3.50997 23
276 1 -5.31882 2.74559 -3.41758 23
277 1 -3.05938 7.24751 -11.7059 13
278 1 -3.93217 5.53687 -8.99306 20
279 1 -2.12005 8.50974 -8.90338 19
280 1 -5.4246 10.5522 -5.93769 12
281 1 -3.68165 7.60089 -6.45397 19
282 1 -3.56086 5.74087 -3.54471 24
283 1 -5.31625 8.24475 -3.67451 22
284 1 -3.53811 11.0934 -3.72025 15
285 1 -2.02365 0.706444 -13.2056 9
286 1 -0.288098 7.86374 -11.5467 16
287 1 -0.447116 1.98756 -11.4146 20
288 1 -0.503346 0.0402526 -8.80578 25
289 1 -2.16487 2.81177 -8.73079 23
290 1 -2.14528 4.86575 -6.27745 22
291 1 -0.443215 1.88871 -6.03157 25
292 1 -0.465885 -0.0295 -3.62238 23
293 1 -2.12434 2.96474 -3.26657 24
294 1 1.24599 10.5923 -11.1282 10
295 1 -0.447039 5.70952 -8.83833 24
296 1 -2.46853 10.6502 -11.1948 9
297 1 -2.35193 10.3179 -6.96247 16
298 1 -0.312089 7.80139 -6.23986 23
299 1 -0.250118 5.56621 -3.48469 21
300 1 -1.82705 8.56036 -3.61287 23
301 1 -0.29277 11.4506 -8.85296 13
302 1 -0.0836616 11.1502 -4.79518 18
303 2 -13.7375 -0.213312 -1.01936 14
304 2 -13.5969 1.83021 -2.87699 13
305 2 -10.5593 -0.156339 -6.85984 17
306 2 -11.8599 2.93942 -5.98259 13
307 2 -10.2331 1.85029 -8.7872 12
308 2 -10.308 -0.121432 -1.32229 22
309 2 -11.8244 3.21622 -0.851272 18
310 2 -11.7606 5.11935 -3.64131 15
311 2 -10.4638 1.68894 -3.40439 21
312 2 -10.6491 6.01514 -5.8753 13
313 2 -10.4866 6.08309 -0.617743 17
314 2 -9.68266 7.93517 -3.42298 16
315 2 -7.2074 -0.244991 -11.7194 14
316 2 -7.16687 0.0727523 -6.95059 25
317 2 -8.8585 3.00248 -6.05391 19
318 2 -8.52856 4.58231 -8.79185 14
319 2 -7.20417 1.92019 -9.68715 20
320 2 -6.84654 0.0152521 -1.64267 24
321 2 -8.72859 2.69911 -0.772248 18
322 2 -8.66304 4.69873 -3.29638 20
323 2 -6.8932 2.08558 -4.27413 21
324 2 -7.06906 5.7144 -6.85365 19
325 2 -8.85837 8.36541 -6.23671 10
326 2 -3.58022 7.28298 -9.79975 19
327 2 -7.07382 6.03364 -0.959169 21
328 2 -8.68754 8.16869 -0.492763 16
329 2 -7.97877 10.4875 -2.38403 13
330 2 -7.04408 7.58705 -4.11554 21
331 2 -6.69184 11.7435 -0.436863 14
332 2 -3.58019 -0.347775 -12.2803 16
333 2 -5.40585 2.66414 -11.7079 13
334 2 -3.8761 0.00847766 -6.8547 25
335 2 -5.57585 2.87145 -6.96901 25
336 2 -5.62796 4.88306 -9.99326 18
337 2 -3.78589 1.86278 -9.41812 25
338 2 -3.65767 -0.0473383 -1.42072 25
339 2 -5.22342 3.03588 -1.30093 22
340 2 -5.22453 4.6738 -3.70692 20
341 2 -3.64605 2.08686 -4.05643 23
342 2 -3.52268 5.35966 -12.2566 12
343 2 -3.78231 5.54804 -6.95201 23
344 2 -5.2845 8.57805 -6.30999 15
345 2 -2.06879 8.89085 -11.547 12
346 2 -3.54776 5.87616 -1.5444 24
347 2 -5.31465 8.59957 -1.662 25
348 2 -3.7264 11.1933 -5.78598 14
349 2 -3.58072 7.646 -4.47392 26
350 2 -2.34283 10.6062 -9.05346 12
351 2 -3.88343 11.615 -1.78873 13
352 2 -5.43 10.2196 -3.94341 15
353 2 -0.599204 -0.204943 -12.0902 16
354 2 -2.18337 2.43738 -12.2144 16
355 2 -0.376407 0.0881082 -6.83483 24
356 2 -2.15193 2.95343 -6.7493 24
357 2 -2.07298 4.54939 -9.50524 23
358 2 -0.589117 1.89213 -9.28462 22
359 2 -0.235514 -0.153564 -1.42347 24
360 2 -2.02514 2.67563 -1.19863 21
361 2 -1.94826 4.5494 -4.28185 22
362 2 -0.438962 1.81926 -3.90179 21
363 2 -0.684915 5.99754 -11.7446 15
364 2 -0.352129 5.86538 -6.85665 22
365 2 -1.98501 8.40637 -6.93386 21
366 2 -0.619921 11.1966 -10.919 10
367 2 -0.289794 7.53806 -9.40555 24
368 2 -0.229294 5.88031 -1.4153 25
369 2 -2.17373 8.7041 -1.72502 21
370 2 -1.64747 10.6252 -3.98365 18
371 2 -0.174857 7.43773 -4.10366 23
372 2 1.49814 10.3806 -9.11827 15
373 2 -0.537591 11.219 -0.83858 20
374 2 -0.49712 13.8231 1.07265 10
375 2 -0.294742 11.0103 -6.75005 15
376 1 -13.6159 1.76661 -0.86188 14
377 1 -13.7487 -0.22091 1.1816 12
378 1 -13.7954 2.03013 3.09421 12
379 1 -12.1205 4.87 -1.70065 15
380 1 -10.4268 1.89746 -1.30383 21
381 1 -10.3883 -0.176186 1.67195 22
382 1 -11.8515 2.74403 1.20875 19
383 1 -11.7648 4.36876 3.99894 17
384 1 -10.2724 1.62245 4.09548 22
385 1 -10.4687 -0.0275157 6.78253 17
386 1 -12.1789 2.60778 6.23127 12
387 1 -10.2921 1.87446 8.9803 10
388 1 -10.1854 7.66353 -1.53686 16
389 1 -10.4737 5.75518 1.3036 17
390 1 -10.3526 7.48659 4.20046 14
391 1 -10.5524 5.64178 6.49609 15
392 1 -8.77023 4.76692 -1.19505 22
393 1 -6.91868 1.84382 -0.924864 21
394 1 -6.8399 -0.311995 1.97959 24
395 1 -8.56703 2.68663 1.40067 21
396 1 -8.49329 4.88507 3.60892 23
397 1 -6.9864 1.79055 4.42798 21
398 1 -7.21409 -0.0266178 7.14368 23
399 1 -8.63311 2.71596 6.4269 21
400 1 -8.57417 4.61499 9.2648 12
401 1 -6.8348 1.93507 9.9631 20
402 1 -6.74828 0.164231 12.2178 10
403 1 -8.55613 10.8155 -0.635298 10
404 1 -6.91336 7.93142 -0.973842 22
405 1 -7.02713 5.83107 1.07604 21
406 1 -8.86384 8.55978 1.33127 18
407 1 -8.90233 10.8694 3.49731 11
408 1 -7.18086 7.81555 3.77123 21
409 1 -7.15068 5.78386 6.5017 22
410 1 -8.93725 8.85916 6.43555 12
411 1 -7.31307 7.72013 9.39577 9
412 1 -6.89416 11.5441 1.41732 15
413 1 -5.30059 5.04708 -1.10211 20
414 1 -3.617 1.69295 -0.771489 21
415 1 -3.64823 -0.0782904 1.72988 22
416 1 -5.53576 2.87172 1.77163 20
417 1 -5.28368 4.73381 4.3208 23
418 1 -3.61922 1.91812 4.40856 23
419 1 -3.76887 0.140587 7.02921 23
420 1 -5.14282 3.00291 7.10049 24
421 1 -5.32611 5.03051 9.62622 20
422 1 -3.58651 2.09623 9.82612 21
423 1 -3.44213 0.0430194 12.3012 16
424 1 -5.02967 3.10567 12.2858 13
425 1 -4.78025 12.4708 -0.458826 10
426 1 -3.58069 7.77577 -1.04379 21
427 1 -3.85208 5.81555 1.8607 21
428 1 -5.30744 8.80556 1.73239 21
429 1 -5.67323 10.7845 4.33958 14
430 1 -3.78218 8.1237 4.41169 22
431 1 -3.72446 5.95248 6.76295 22
432 1 -5.54399 8.63922 6.90386 19
433 1 -3.71684 7.9943 9.24167 14
434 1 -3.10741 6.135 11.9736 12
435 1 -2.3217 14.325 1.18952 7
436 1 -3.75871 11.6735 2.25603 17
437 1 -3.69188 11.1123 6.09374 14
438 1 -1.96325 4.93863 -0.789422 23
439 1 -0.306163 1.85957 -0.969653 21
440 1 -0.0915382 0.103077 2.00215 23
441 1 -2.30073 3.0614 1.68173 21
442 1 -1.9623 5.06459 4.41236 23
443 1 -0.26299 1.95299 4.45101 24
444 1 -0.573877 0.232151 7.01885 23
445 1 -1.97793 2.97815 7.07256 24
446 1 -2.12318 4.94587 9.39885 21
447 1 -0.515871 1.91759 9.79296 22
448 1 0.0155539 0.222933 12.565 16
449 1 -1.76004 3.01793 12.33 16
450 1 -2.15789 10.6922 -1.45565 17
451 1 -0.279192 7.90481 -1.06826 20
452 1 -0.341248 6.06215 1.80645 24
453 1 -2.01828 8.85021 1.65973 23
454 1 -1.63789 10.6337 4.03484 17
455 1 -0.304268 7.71271 4.41872 23
456 1 -0.482955 5.72919 6.94347 23
457 1 -1.97408 8.62452 7.12796 23
458 1 -0.30778 7.61013 9.94729 17
459 1 -0.212721 5.94106 12.6609 12
460 1 1.32925 14.2743 1.27829 10
461 1 -0.595367 11.7984 1.01523 19
462 1 4.1435 13.0074 3.61351 12
463 1 -0.298123 11.2699 6.88352 11
464 2 -13.8635 0.0382137 3.11 12
465 2 -13.5599 1.82102 1.17764 14
466 2 -10.2804 -0.409225 3.73619 21
467 2 -12.2872 2.34115 4.24488 17
468 2 -11.7524 4.38983 2.07468 16
469 2 -10.2484 1.78512 1.82861 20
470 2 -9.89341 0.0610025 8.81481 13
471 2 -12.0839 4.53765 6.17167 10
472 2 -10.5078 2.01905 6.77941 18
473 2 -10.1232 5.54067 4.56917 21
474 2 -10.1379 7.37549 2.30462 18
475 2 -10.4074 7.7207 6.19938 10
476 2 -6.87321 -0.150098 3.95615 23
477 2 -8.57292 2.86559 4.40789 22
478 2 -8.58372 4.71548 1.64458 21
479 2 -7.22528 1.45644 1.18299 21
480 2 -6.8171 -0.250029 10.0951 15
481 2 -8.4762 2.64777 9.22641 16
482 2 -8.75974 4.70139 7.15503 18
483 2 -6.78576 1.79757 6.32445 21
484 2 -6.24966 1.9547 11.8595 12
485 2 -7.01227 5.97657 4.41542 20
486 2 -8.44881 9.14765 4.63376 17
487 2 -8.93796 10.6124 1.43891 12
488 2 -7.05612 7.81493 1.72438 21
489 2 -7.10214 5.83197 9.40637 13
490 2 -7.54282 7.75297 7.32663 16
491 2 -7.10774 11.5145 3.3979 13
492 2 -3.65816 -0.220887 3.94415 22
493 2 -5.3134 2.72702 3.96903 22
494 2 -5.44801 4.78736 1.16877 21
495 2 -3.93115 2.00925 1.16752 20
496 2 -3.54673 0.150194 9.12966 23
497 2 -5.1968 3.05971 9.22734 22
498 2 -5.34317 4.85712 6.4872 22
499 2 -3.52163 2.15487 6.32811 24
500 2 -4.6217 4.80475 11.4803 13
501 2 -3.38811 1.87186 11.8515 18
502 2 -3.76953 5.90767 3.80585 22
503 2 -5.34697 8.91269 3.69321 21
504 2 -5.07376 10.7839 1.47649 18
505 2 -3.67207 7.74951 1.15149 22
506 2 -3.68357 5.87252 8.92334 23
507 2 -5.45771 8.45191 8.87383 13
508 2 -5.34497 10.4295 6.30689 14
509 2 -3.77338 7.79179 6.27973 23
510 2 -3.66405 11.4472 4.16421 16
511 2 -3.62908 13.0721 0.866221 13
512 2 -0.111407 -0.0665762 4.02146 21
513 2 -2.10541 3.21944 3.66106 23
514 2 -2.09109 4.90432 1.18001 21
515 2 0.178081 1.74779 0.965063 21
516 2 -0.336427 0.0328745 9.35265 21
517 2 -2.00299 3.01305 8.93785 24
518 2 -2.14101 4.88499 6.39712 24
519 2 -0.317909 1.9468 6.36423 25
520 2 -1.83349 4.82027 12.7118 11
521 2 -0.126478 2.05973 11.8949 17
522 2 -0.123167 5.6586 3.8084 21
523 2 -1.69357 8.70545 3.68175 22
524 2 -1.8964 10.8389 1.88827 18
525 2 -0.284086 7.90915 0.962104 24
526 2 -0.409371 5.67252 8.80309 23
527 2 -1.85608 8.20667 9.10863 16
528 2 -1.94801 10.3847 6.63163 16
529 2 -0.137491 7.60757 6.42347 24
530 2 -1.23589 7.01142 11.5585 12
531 2 0.0162732 11.3018 4.98271 17
532 2 2.76403 13.4399 2.24798 13
533 1 1.56303 -12.9735 -5.80826 9
534 1 0.720235 -6.9499 -11.5172 13
535 1 1.51578 -9.06725 -8.85276 15
536 1 1.57332 -6.66276 -6.22679 22
537 1 3.45335 -9.84665 -6.82785 16
538 1 3.32277 -11.7013 -3.90405 16
539 1 1.39192 -8.56388 -3.41975 23
540 1 -2.20106 -5.20578 -13.0829 8
541 1 1.10773 -0.995658 -11.737 17
542 1 2.42923 -4.09797 -12.8216 11
543 1 2.74065 -5.68251 -8.98536 24
544 1 1.27399 -2.76333 -8.84591 21
545 1 1.3089 -0.881 -6.34241 21
546 1 2.93069 -3.67139 -6.07086 23
547 1 2.97645 -5.7224 -3.55207 20
548 1 1.34429 -2.8107 -3.70704 22
549 1 4.08054 -6.3248 -11.9054 12
550 1 4.9855 -8.33844 -9.00763 13
551 1 4.65488 -6.69789 -6.2471 24
552 1 6.58897 -9.46398 -6.35163 13
553 1 6.93705 -11.0599 -3.52105 13
554 1 4.67169 -8.70097 -3.41092 21
555 1 4.17111 -1.07819 -11.7083 20
556 1 5.96784 -3.64769 -11.7581 14
557 1 6.05142 -5.47259 -9.12775 21
558 1 4.54931 -2.77888 -8.9041 24
559 1 4.52343 -0.964487 -6.25014 24
560 1 6.32619 -3.8566 -6.18468 24
561 1 6.18972 -5.62686 -3.90616 20
562 1 4.55063 -2.60663 -3.41883 25
563 1 8.22131 -6.6051 -6.95949 18
564 1 8.07412 -8.27649 -4.18649 17
565 1 7.37686 -0.71276 -11.6087 14
566 1 9.31317 -5.35112 -10.0172 8
567 1 7.73054 -2.66582 -8.96814 19
568 1 7.7589 -0.839673 -6.13031 24
569 1 9.63259 -3.77547 -7.11482 16
570 1 9.33711 -5.3282 -4.29425 19
571 1 7.73068 -2.67087 -3.60675 23
572 1 11.1009 -7.0615 -5.5574 9
573 1 11.3632 -0.674179 -6.19638 14
574 1 11.0503 -2.76022 -4.40605 16
575 2 3.11005 -11.9832 -0.969778 18
576 2 2.49643 -11.3377 -5.90738 15
577 2 3.56178 -9.37813 -8.81338 12
578 2 1.69111 -8.62869 -6.72071 20
579 2 1.39372 -7.15019 -9.67723 21
580 2 4.52369 -6.51628 -10.0372 17
581 2 1.49876 -12.6137 -3.74128 15
582 2 1.39038 -8.66398 -1.02825 20
583 2 1.31516 -6.54932 -3.90221 22
584 2 3.08559 -9.84573 -3.17586 20
585 2 2.2671 -5.99772 -12.3781 11
586 2 1.20682 -2.96084 -11.8349 15
587 2 3.01235 -5.37095 -6.96037 23
588 2 1.20644 -2.88371 -6.8094 26
589 2 1.04299 -1.03507 -9.53469 24
590 2 2.96423 -3.84152 -9.31838 24
591 2 3.0239 -5.66706 -1.55127 24
592 2 1.56311 -2.54062 -1.44773 22
593 2 1.36902 -0.841135 -4.34346 25
594 2 3.1279 -3.78521 -4.17992 22
595 2 5.2511 -12.0183 -3.28714 13
596 2 5.11327 -8.40442 -7.11821 15
597 2 4.43356 -4.37454 -12.165 13
598 2 6.3364 -11.5415 -0.409785 14
599 2 4.57083 -8.63201 -0.427085 20
600 2 4.57777 -6.75417 -4.10525 20
601 2 6.06183 -9.61078 -4.51987 15
602 2 5.78378 -1.84583 -12.3076 13
603 2 6.23953 -5.82472 -6.83163 20
604 2 4.67096 -2.88642 -7.02234 25
605 2 4.28943 -0.946365 -9.75129 24
606 2 6.01505 -3.77894 -9.78001 22
607 2 6.13543 -5.50972 -1.72671 21
608 2 4.77045 -2.57885 -1.30906 21
609 2 4.453 -0.770296 -3.99392 24
610 2 6.01476 -3.55133 -4.2436 24
611 2 7.99705 -8.34092 -6.22898 14
612 2 8.09696 -6.05647 -8.82005 14
613 2 7.85317 -8.40758 -0.881653 21
614 2 7.97695 -6.44765 -3.52155 22
615 2 8.33713 -9.7511 -3.14861 14
616 2 9.87671 -5.63982 -6.25 17
617 2 7.90207 -2.71597 -6.97384 23
618 2 7.71609 -0.791546 -9.59062 18
619 2 9.29013 -3.68988 -9.2396 12
620 2 9.51517 -5.38303 -0.79536 22
621 2 7.90329 -2.65579 -1.65952 22
622 2 7.60182 -0.706261 -4.12457 23
623 2 9.53238 -3.55458 -3.57048 21
624 2 10.8271 -8.27501 -0.83697 14
625 2 10.9839 -6.56957 -3.68845 14
626 2 10.8163 -2.44397 -6.35371 13
627 2 12.5287 -5.12788 -0.792726 14
628 2 11.3636 -2.60269 -0.782648 20
629 2 10.8474 -0.897113 -4.02534 20
630 2 12.9617 -2.45224 -3.15699 13
631 1 1.51803 -13.0272 -1.71562 14
632 1 1.45242 -12.6446 4.30407 14
633 1 1.2914 -6.70591 -1.17473 20
634 1 3.07811 -9.91112 -1.21747 20
635 1 3.10049 -12.1404 1.12194 16
636 1 1.72411 -8.60717 0.972143 20
637 1 1.42542 -6.985 4.44304 24
638 1 3.08015 -9.90906 3.61746 21
639 1 3.44975 -11.4043 6.33557 13
640 1 1.54868 -8.99807 6.41746 19
641 1 1.52028 -6.89337 9.92313 17
642 1 3.03443 -9.77063 9.36435 9
643 1 1.62089 -0.816573 -0.852019 22
644 1 3.18845 -3.73186 -0.845514 23
645 1 2.96414 -5.59014 1.89889 22
646 1 1.28932 -2.79692 1.91904 25
647 1 1.36474 -1.19961 4.57982 24
648 1 2.91819 -3.77273 4.41782 22
649 1 2.89373 -5.77896 7.09959 22
650 1 1.08158 -2.98368 6.99769 22
651 1 1.31618 -0.863228 9.39632 20
652 1 2.81356 -3.76177 9.76965 21
653 1 3.22198 -5.42303 12.2794 11
654 1 1.82908 -2.58529 13.1197 12
655 1 5.05414 -12.4601 -1.45523 13
656 1 5.49165 -12.5025 3.76045 9
657 1 4.66431 -6.65524 -0.744603 23
658 1 6.36536 -9.58242 -0.794243 18
659 1 6.7151 -11.3233 1.53753 17
660 1 4.79093 -8.67794 1.56578 22
661 1 4.67102 -6.72985 4.66585 21
662 1 5.84932 -9.74968 4.57305 20
663 1 4.70002 -8.51269 7.56553 21
664 1 4.77642 -6.32307 9.85452 17
665 1 4.49232 -0.725727 -0.869153 26
666 1 6.4355 -3.60419 -0.987306 21
667 1 6.19604 -5.2287 1.87628 24
668 1 4.55084 -2.65741 1.72755 24
669 1 4.91826 -0.96507 4.4835 22
670 1 6.1338 -4.06349 4.76888 22
671 1 6.35497 -5.70617 6.99716 23
672 1 4.53651 -2.90012 7.01948 22
673 1 4.83123 -1.00348 9.46112 21
674 1 6.26605 -3.64252 9.93693 20
675 1 5.07625 -3.03605 12.3058 12
676 1 7.90776 -6.3207 -1.47579 22
677 1 9.47792 -9.3176 -1.64404 13
678 1 8.14223 -8.17378 1.37403 20
679 1 8.09303 -6.98591 3.87832 22
680 1 8.77763 -10.2778 3.42089 11
681 1 8.01135 -8.87943 6.56321 11
682 1 7.85244 -6.88301 9.08718 13
683 1 7.51091 -0.784263 -0.767028 22
684 1 9.71444 -3.5558 -1.60277 22
685 1 9.56182 -5.55186 1.09328 24
686 1 7.83506 -2.58268 1.98657 22
687 1 8.03057 -1.0395 4.4775 21
688 1 9.48387 -4.02101 3.78601 22
689 1 9.42882 -5.70519 6.66652 18
690 1 8.03995 -2.81196 7.12506 22
691 1 7.86976 -1.23923 9.86494 18
692 1 9.83751 -3.94009 9.17269 11
693 1 11.3768 -6.51037 -1.709 16
694 1 11.3105 -8.39571 1.05093 14
695 1 11.3469 -6.04005 3.71998 14
696 1 11.0733 -0.637986 -0.878005 23
697 1 12.9551 -3.41158 -1.48816 12
698 1 12.7695 -5.4574 0.974494 15
699 1 11.1088 -2.72374 1.28651 21
700 1 11.6539 -0.408803 4.64767 17
701 1 13.1198 -2.89571 3.50304 12
702 1 11.2996 -3.09177 6.13594 14
703 2 1.59821 -12.804 2.3626 14
704 2 1.85283 -12.2632 6.11856 13
705 2 4.56609 -11.2315 4.75799 15
706 2 1.44818 -9.14481 4.40094 21
707 2 1.58833 -6.6416 0.857192 25
708 2 3.12436 -9.9574 1.71515 19
709 2 1.39937 -8.80929 9.57763 14
710 2 1.44471 -6.97676 6.42825 22
711 2 3.17121 -9.90226 7.51081 16
712 2 1.5264 -6.18873 11.7656 15
713 2 2.89658 -5.72273 3.93986 22
714 2 1.23482 -3.02692 3.86761 23
715 2 1.409 -0.990433 1.31014 23
716 2 2.95755 -3.70407 1.21732 24
717 2 3.09836 -5.60645 9.09713 23
718 2 1.13933 -2.80677 9.12357 19
719 2 0.9718 -1.1459 6.53708 23
720 2 2.73047 -3.85677 6.52485 24
721 2 1.50335 -0.809228 12.9647 11
722 2 3.14036 -3.3235 11.9341 19
723 2 4.98407 -12.1649 1.90954 15
724 2 7.07679 -11.4675 3.54423 10
725 2 4.58311 -8.34501 3.73185 20
726 2 4.67182 -6.20242 1.17511 21
727 2 6.72916 -9.45275 1.39894 18
728 2 4.27931 -8.22555 9.60563 13
729 2 4.56752 -6.7539 6.62266 22
730 2 6.06404 -9.18261 6.37061 16
731 2 4.9667 -4.8399 11.4423 12
732 2 6.37258 -5.81234 3.98243 19
733 2 4.73238 -2.94771 3.73746 25
734 2 4.44525 -0.779081 1.00941 26
735 2 6.34368 -3.54015 1.00187 23
736 2 6.30679 -5.59846 9.017 20
737 2 4.44969 -2.8758 9.10822 23
738 2 4.51536 -0.87462 6.47064 23
739 2 6.33139 -3.62191 6.62333 21
740 2 4.57878 -1.14728 13.1411 12
741 2 6.46379 -2.23019 11.1357 14
742 2 8.21719 -8.7536 4.4799 15
743 2 8.05397 -6.37993 1.79522 21
744 2 9.83839 -9.32467 1.94081 14
745 2 8.06559 -7.04667 7.13655 15
746 2 9.53022 -5.93653 4.68281 18
747 2 7.77175 -2.98009 3.98888 21
748 2 7.82643 -0.795327 1.31342 25
749 2 9.47401 -3.649 1.73344 21
750 2 9.33266 -5.68862 9.32615 10
751 2 8.18357 -2.94759 9.0172 19
752 2 8.26892 -0.750419 6.56308 23
753 2 9.93409 -3.93787 6.95006 16
754 2 8.10511 0.0118295 11.8679 10
755 2 11.3051 -6.57413 1.8879 18
756 2 11.4518 -3.86515 4.32053 16
757 2 11.1603 -0.629961 1.21506 22
758 2 12.7258 -3.64461 1.82696 15
759 2 11.2772 -1.17553 6.48954 15
760 1 5.30216 1.49257 -13.0973 10
761 1 -1.89779 4.351 -11.6162 20
762 1 1.10058 4.86384 -11.6282 16
763 1 2.87734 1.98887 -11.4062 19
764 1 2.58325 0.00507671 -9.10078 22
765 1 1.26941 2.89217 -8.86405 24
766 1 1.31608 4.80641 -6.24289 24
767 1 3.02861 2.12776 -6.09565 24
768 1 2.94646 0.251541 -3.58101 24
769 1 1.27957 2.81871 -3.49028 23
770 1 3.16323 7.55813 -11.1708 15
771 1 3.05997 5.66655 -8.78555 26
772 1 1.5597 8.33364 -8.90409 21
773 1 1.56127 10.7033 -7.08966 15
774 1 3.19166 7.5991 -6.16362 23
775 1 2.91253 5.84672 -3.40159 23
776 1 1.31304 8.55 -3.7376 21
777 1 3.03583 11.6146 -4.43644 13
778 1 4.34843 4.451 -11.3513 16
779 1 7.55985 2.34936 -10.6354 15
780 1 5.80694 0.0646749 -8.98796 23
781 1 4.48608 2.72663 -8.69722 22
782 1 4.67849 4.85461 -6.02973 25
783 1 6.5284 2.06391 -6.31603 24
784 1 5.97316 0.373228 -3.49536 24
785 1 4.72849 3.02786 -3.39218 25
786 1 6.32862 5.4605 -8.75846 21
787 1 4.92509 8.71423 -9.07654 13
788 1 4.87496 10.3679 -6.43792 13
789 1 6.41125 7.65042 -6.14908 22
790 1 6.32632 5.95681 -3.43998 24
791 1 4.86425 8.73058 -3.63758 22
792 1 5.77842 12.0786 -3.636 12
793 1 9.05127 0.268246 -8.79648 17
794 1 9.16877 3.76426 -8.4519 15
795 1 8.16398 5.21241 -6.07812 19
796 1 9.81892 2.07304 -5.7751 22
797 1 9.36739 0.112093 -3.34467 23
798 1 7.8393 3.15831 -3.58368 24
799 1 8.36458 7.3043 -8.61074 11
800 1 9.63933 7.78879 -5.34854 12
801 1 9.61516 5.66133 -3.31041 19
802 1 7.75042 9.16894 -3.63636 16
803 1 11.4113 4.70612 -5.09703 13
804 1 13.0765 2.02073 -5.98571 7
805 1 12.627 -0.470558 -3.38244 14
806 1 11.0692 2.45809 -2.89481 21
807 2 2.7742 0.0508914 -12.1333 14
808 2 1.13208 2.82846 -11.8184 16
809 2 2.9134 0.254616 -6.82335 24
810 2 1.31833 2.96866 -6.80494 26
811 2 1.35394 4.82954 -9.4831 24
812 2 2.89677 1.81851 -9.53808 24
813 2 3.00801 0.442612 -1.70278 24
814 2 1.1356 3.10201 -1.58609 22
815 2 1.37514 4.68975 -4.08279 23
816 2 2.90532 2.16393 -4.06705 22
817 2 3.04823 5.66986 -11.9542 12
818 2 2.9794 5.7822 -6.77044 24
819 2 1.39141 8.57949 -6.86953 23
820 2 1.50724 8.68076 -11.5134 12
821 2 3.2341 7.51957 -9.19954 17
822 2 3.11241 6.0838 -1.41491 25
823 2 1.46574 8.70971 -1.28832 20
824 2 1.47956 10.4509 -3.74353 19
825 2 3.1437 7.60345 -4.25903 23
826 2 3.28254 11.2286 -6.43661 14
827 2 2.81741 11.4256 -0.721887 20
828 2 1.95904 14.1463 -0.608974 10
829 2 3.96759 12.5667 -3.04192 13
830 2 6.6973 1.00879 -11.9456 12
831 2 4.68458 2.85487 -12.1072 13
832 2 6.1738 0.133338 -6.87286 22
833 2 4.73897 2.95731 -6.66698 22
834 2 4.65531 4.56392 -9.40787 20
835 2 6.04917 1.9828 -9.43799 21
836 2 6.319 0.461092 -1.62597 25
837 2 4.54095 3.02191 -1.32986 24
838 2 4.76461 4.88312 -3.93005 22
839 2 6.27321 2.10101 -4.2671 24
840 2 6.30736 5.7628 -6.5503 21
841 2 4.84889 8.59949 -7.04968 20
842 2 6.41196 7.43767 -9.26593 12
843 2 6.28093 5.83645 -1.2389 23
844 2 4.74773 8.77468 -1.37675 22
845 2 4.94773 10.4628 -4.36772 16
846 2 6.45739 7.85648 -4.29425 23
847 2 7.53219 10.5569 1.85399 15
848 2 9.46841 0.239202 -6.82631 18
849 2 8.35984 3.19833 -6.64579 20
850 2 8.35819 5.43254 -8.7542 13
851 2 8.94966 2.03089 -9.29068 13
852 2 9.3203 0.155566 -1.38903 24
853 2 7.68505 3.30153 -1.32916 22
854 2 7.90392 5.12012 -4.15897 25
855 2 9.39991 2.03996 -3.90616 21
856 2 10.2673 6.07417 -5.78514 13
857 2 8.30736 7.98807 -6.62561 14
858 2 9.5487 5.83347 -1.36491 19
859 2 7.8252 8.76146 -0.833596 18
860 2 7.28237 10.9722 -3.19195 12
861 2 9.33832 8.05366 -3.3937 14
862 2 11.5096 3.01966 -5.8344 12