ITEM: TIMESTEP
166000
ITEM: NUMBER OF ATOMS
1000
ITEM: BOX BOUNDS pp pp pp
-30.0 30.0
-30.0 30.0
-30.0 30.0
ITEM: ATOMS id type x y z Coordination
1 1 -11.8296 0.260269 -5.94185 13
2 1 -10.4667 -3.95378 -6.5698 11
3 1 -10.7013 -6.10908 -4.15884 14
4 1 -12.2065 -3.42261 -3.52972 15
5 1 -8.65933 -6.81516 -7.12064 12
6 1 -6.89588 -9.49391 -6.09905 13
7 1 -7.3383 -11.6747 -3.06102 12
8 1 -8.83437 -8.88246 -3.6145 13
9 1 -8.66754 -1.4202 -11.442 12
10 1 -6.62668 -4.31716 -11.6795 14
11 1 -6.36404 -5.90457 -8.88559 17
12 1 -8.29759 -3.07032 -9.13881 17
13 1 -8.64726 -0.820137 -6.27185 24
14 1 -6.77554 -3.99403 -6.55677 21
15 1 -7.05249 -5.75694 -3.75425 22
16 1 -8.61227 -2.87102 -3.59486 25
17 1 -4.75478 -6.82889 -11.4862 12
18 1 -4.67065 -8.93453 -8.65403 15
19 1 -5.04671 -6.73342 -6.32722 23
20 1 -3.4253 -9.92191 -6.07055 20
21 1 -3.99941 -11.5307 -3.19776 17
22 1 -5.41911 -8.7103 -3.63118 20
23 1 -5.20148 -1.02987 -11.914 19
24 1 -3.66079 -3.94066 -11.4054 20
25 1 -3.5091 -5.86288 -8.74307 26
26 1 -5.08206 -2.6451 -8.91564 23
27 1 -5.44254 -0.947625 -6.37064 23
28 1 -3.88809 -3.86152 -6.20554 23
29 1 -3.73658 -5.73546 -3.58637 22
30 1 -5.20785 -2.89988 -3.69067 23
31 1 -1.89731 -12.9505 -5.6898 11
32 1 -1.63731 -6.76032 -11.3298 18
33 1 -3.09927 -12.0882 -8.66613 8
34 1 -1.93044 -8.78039 -8.66266 18
35 1 -1.80591 -6.90566 -6.21618 24
36 1 -0.460875 -9.8914 -6.84752 20
37 1 -0.0680123 -11.6708 -3.64272 16
38 1 -2.05247 -8.60442 -3.389 22
39 1 -2.02286 -1.23349 -11.6126 19
40 1 -0.204589 -3.52139 -11.503 19
41 1 -0.236885 -5.77665 -8.94886 21
42 1 -2.07156 -3.09495 -8.91393 24
43 1 -2.13837 -0.780791 -6.2373 25
44 1 -0.688545 -3.79361 -6.18816 24
45 1 -0.427805 -5.98 -3.48866 23
46 1 -1.99815 -2.93124 -3.34025 24
47 2 -14.275 -2.26709 -2.74147 11
48 2 -12.2138 -5.34773 -3.43935 12
49 2 -9.47672 -10.4461 -2.73423 9
50 2 -9.87536 -5.71879 -6.09318 13
51 2 -10.2555 -3.42584 -4.56319 16
52 2 -8.22961 -3.17706 -11.1724 10
53 2 -10.5264 -6.06616 -0.761354 16
54 2 -13.8164 -4.96098 -0.692743 14
55 2 -12.3955 -0.39264 -4.25309 15
56 2 -11.6471 -2.87897 -1.88465 21
57 2 -8.49505 -8.72382 -6.58808 9
58 2 -6.24368 -5.97946 -11.1832 11
59 2 -6.94517 -11.3125 -0.71966 17
60 2 -8.84457 -8.52772 -1.10867 18
61 2 -8.89477 -6.67008 -3.40601 18
62 2 -6.84038 -10.2047 -4.29306 15
63 2 -6.77963 -5.86355 -7.02887 19
64 2 -8.62248 -2.84139 -7.07749 19
65 2 -8.76303 -0.93855 -9.68335 16
66 2 -6.46949 -3.89797 -9.19827 19
67 2 -6.93256 -5.69931 -1.84975 23
68 2 -8.51862 -2.88224 -1.60997 24
69 2 -8.77473 -0.899201 -4.17698 22
70 2 -6.95367 -3.73047 -4.35718 23
71 2 -5.6094 -12.4793 -2.94312 10
72 2 -3.37106 -11.9838 -6.59024 12
73 2 -5.1336 -8.69804 -6.713 19
74 2 -4.91178 -7.16417 -9.25362 16
75 2 -3.32213 -10.2624 -9.14556 11
76 2 -3.30644 -11.5351 -1.20002 17
77 2 -5.25986 -8.4776 -1.51552 23
78 2 -5.39456 -6.90125 -4.23847 21
79 2 -3.70155 -9.71853 -4.17184 20
80 2 -3.15152 -5.78356 -11.9531 14
81 2 -5.11151 -2.99908 -12.0353 17
82 2 -3.44763 -5.73866 -6.7803 24
83 2 -5.40492 -2.88307 -6.98516 26
84 2 -5.11604 -0.931741 -9.92322 25
85 2 -3.86245 -4.12007 -9.47061 22
86 2 -3.59199 -5.61105 -1.60098 23
87 2 -5.13611 -2.87605 -1.79622 26
88 2 -5.36645 -0.939893 -4.30041 24
89 2 -3.55817 -3.96518 -4.35736 24
90 2 1.5841 -12.3881 1.16482 12
91 2 -1.84054 -12.6513 -3.84434 13
92 2 -0.278072 -11.7742 -6.38631 14
93 2 -2.03047 -8.71472 -6.57984 21
94 2 -1.96936 -7.03565 -9.42933 20
95 2 -0.0784595 -9.15474 -8.77455 16
96 2 -0.288324 -11.6788 -1.499 16
97 2 -1.97394 -8.50026 -1.15995 19
98 2 -2.03934 -6.86495 -4.16063 23
99 2 -0.154404 -9.54953 -3.60844 20
100 2 -0.402214 -5.45885 -12.5273 14
101 2 -1.89492 -3.13037 -12.2189 17
102 2 -0.256463 -5.72582 -6.84245 25
103 2 -2.23494 -2.74792 -6.89114 23
104 2 -1.99654 -1.07985 -9.61598 26
105 2 -0.471538 -3.94297 -9.41202 23
106 2 -0.172697 -5.83761 -1.49991 24
107 2 -2.01866 -2.92895 -1.30393 24
108 2 -2.14897 -1.1402 -4.20588 23
109 2 -0.349579 -4.047 -4.2045 22
110 1 -14.2066 -2.97339 -0.904763 14
111 1 -12.3366 -5.99857 -1.58175 13
112 1 -9.78958 -10.1425 -0.690926 11
113 1 -12.1314 -5.21743 3.90672 13
114 1 -12.062 -1.21964 -0.793743 24
115 1 -10.1191 -4.00652 -1.01876 24
116 1 -10.5878 -5.92932 1.23044 17
117 1 -13.6616 -5.2372 1.08541 12
118 1 -12.5696 -1.64282 4.58845 15
119 1 -11.5889 -3.11276 1.82048 21
120 1 -10.117 -5.86203 6.61873 10
121 1 -10.1491 -3.44023 4.93041 19
122 1 -8.76203 -6.56986 -1.50425 20
123 1 -7.2002 -9.46333 -0.840362 19
124 1 -7.31948 -11.3531 1.27192 13
125 1 -8.93678 -8.63001 2.09564 15
126 1 -8.61519 -6.49724 3.89239 19
127 1 -6.85018 -9.72753 4.16726 19
128 1 -8.56675 -8.71237 6.17089 10
129 1 -8.59675 -1.07796 -0.907148 25
130 1 -6.74633 -3.94125 -0.970064 23
131 1 -7.12683 -5.7968 1.58256 22
132 1 -8.42739 -3.02255 1.82416 22
133 1 -8.27476 -0.973087 4.59943 21
134 1 -6.71508 -4.00088 4.37527 22
135 1 -6.79991 -5.97368 7.00704 23
136 1 -8.32704 -3.04671 7.36161 19
137 1 -8.28316 -1.01621 9.3932 16
138 1 -6.74262 -4.01781 9.98168 15
139 1 -5.41258 -12.4513 -0.882721 12
140 1 -5.39876 -12.5877 3.04376 12
141 1 -5.46603 -6.55707 -0.91275 22
142 1 -3.54279 -9.562 -0.705381 22
143 1 -2.88326 -11.9579 0.787463 15
144 1 -5.08983 -8.46703 1.70406 21
145 1 -5.00949 -6.82147 4.36702 24
146 1 -3.46229 -9.76148 3.31568 20
147 1 -3.91963 -11.2369 6.02658 14
148 1 -5.72097 -8.80249 7.20498 16
149 1 -5.53205 -6.69745 10.1331 15
150 1 -3.61093 -9.14019 9.14233 14
151 1 -5.26904 -1.06116 -0.866225 25
152 1 -3.64643 -3.76932 -0.842416 25
153 1 -3.61213 -5.67782 1.77809 23
154 1 -5.37571 -2.83422 1.90572 24
155 1 -4.99436 -0.816326 4.50943 23
156 1 -3.5434 -3.96052 4.41617 21
157 1 -3.60376 -5.95489 7.24102 26
158 1 -5.25906 -3.05415 7.05898 25
159 1 -4.97831 -1.02534 9.81001 25
160 1 -3.72879 -4.01052 9.04858 22
161 1 -3.66831 -5.42888 12.2183 10
162 1 -5.31817 -2.877 12.1504 13
163 1 -1.92521 -12.6423 -1.81543 15
164 1 -1.90657 -12.3354 4.15839 13
165 1 -1.92754 -6.42391 -1.10971 21
166 1 -0.244782 -9.34789 -1.58826 20
167 1 0.117017 -12.5986 2.38274 13
168 1 -1.58217 -8.4095 0.883865 20
169 1 -2.03629 -6.82739 4.51747 22
170 1 -0.205094 -9.78662 3.94704 22
171 1 -0.302339 -11.4621 7.14817 14
172 1 -1.86572 -8.82354 6.58177 20
173 1 -1.82935 -6.50179 10.052 18
174 1 -0.302607 -9.16392 9.80097 11
175 1 -2.05318 -1.03974 -0.689887 25
176 1 -0.387685 -3.93457 -0.830631 25
177 1 -0.237198 -5.69518 1.92536 23
178 1 -2.02362 -2.9481 2.00472 25
179 1 -2.05602 -0.9469 4.45715 24
180 1 -0.197628 -3.8136 4.54509 23
181 1 -0.220217 -5.77715 7.04844 23
182 1 -1.86206 -2.78966 7.12821 24
183 1 -2.00165 -1.00861 9.73983 22
184 1 -0.256794 -3.84333 9.97539 23
185 1 0.0503733 -5.4685 12.5089 13
186 1 -1.81854 -2.7522 12.2784 16
187 2 -13.7506 -3.31262 1.67391 14
188 2 -12.2474 -5.80101 2.10847 12
189 2 -9.18584 -10.4281 1.11229 12
190 2 -10.2361 -5.66324 4.67863 15
191 2 -11.8785 -3.2321 4.05016 15
192 2 -11.5722 -1.36492 1.03619 22
193 2 -10.0173 -3.85843 1.05579 24
194 2 -12.1165 -0.565793 6.00432 13
195 2 -9.9729 -3.85779 6.84045 13
196 2 -6.80885 -11.4563 3.07515 14
197 2 -8.26265 -8.40255 4.027 16
198 2 -8.96186 -6.61505 1.80514 17
199 2 -7.02667 -8.70425 1.17435 21
200 2 -8.50635 -7.02618 6.43509 14
201 2 -7.03115 -9.76155 6.14418 13
202 2 -6.80672 -5.63157 3.67679 23
203 2 -8.58484 -3.06245 3.80557 23
204 2 -8.4281 -1.19153 1.18204 24
205 2 -6.87116 -3.89467 0.882644 24
206 2 -6.68241 -5.72683 8.81507 16
207 2 -7.78283 -2.75926 9.13464 17
208 2 -8.4164 -1.1528 6.51006 23
209 2 -6.86428 -3.92329 6.33678 25
210 2 -5.40705 -4.69811 11.29 13
211 2 -4.74716 -12.5746 1.00491 13
212 2 -3.93111 -11.5467 4.01705 14
213 2 -5.26407 -8.69074 3.64404 21
214 2 -5.22547 -6.49967 0.993005 22
215 2 -3.28333 -9.50162 1.34713 18
216 2 -5.38751 -8.46693 9.34084 11
217 2 -5.17305 -7.01952 6.54895 23
218 2 -3.72822 -9.92466 7.36888 15
219 2 -3.33183 -5.78276 3.79848 22
220 2 -5.00253 -2.84766 4.14937 23
221 2 -5.2877 -1.04479 1.18271 25
222 2 -3.83954 -3.77293 1.21831 23
223 2 -3.51779 -5.84513 9.1931 22
224 2 -5.35143 -2.90607 8.98164 25
225 2 -5.24202 -1.08002 6.44537 24
226 2 -3.458 -3.97202 6.61393 24
227 2 -5.16265 -0.987374 11.8647 18
228 2 -3.58583 -3.25665 12.75 12
229 2 -1.59123 -12.5911 1.93848 16
230 2 -1.83502 -11.7354 5.90747 13
231 2 0.242518 -11.9288 4.13686 15
232 2 -2.12325 -8.86827 4.36896 20
233 2 -1.89074 -6.55741 1.00884 22
234 2 -0.262788 -9.3505 1.91946 21
235 2 -2.02629 -8.39444 9.91555 14
236 2 -1.81605 -6.94491 6.72368 21
237 2 -0.163069 -9.48708 7.84552 17
238 2 -1.75678 -5.66636 11.8734 14
239 2 -0.288158 -5.88697 4.03157 22
240 2 -1.9424 -2.86444 4.1621 23
241 2 -1.94225 -0.999949 1.32803 25
242 2 -0.40396 -3.87716 1.14487 24
243 2 -0.152784 -5.60263 9.07532 23
244 2 -1.93778 -2.92839 9.14583 25
245 2 -2.06323 -0.869144 6.52871 21
246 2 -0.163029 -3.67857 6.61013 22
247 2 -2.15377 -0.816111 11.7684 19
248 2 0.00563137 -3.6173 12.081 20
249 1 -14.1288 -0.804493 -3.52866 12
250 1 -10.4947 -0.0651819 -9.07238 12
251 1 -12.1251 4.16056 -5.66474 12
252 1 -10.503 2.14396 -7.19379 15
253 1 -10.5725 -0.434554 -3.29827 22
254 1 -12.2795 2.11035 -3.15539 17
255 1 -10.5699 7.65864 -5.32401 11
256 1 -10.1183 5.25236 -4.13234 19
257 1 -6.62658 1.37197 -11.9395 14
258 1 -6.76892 0.00393054 -9.21977 23
259 1 -8.7206 2.80724 -9.86775 15
260 1 -8.90477 4.69694 -6.83725 16
261 1 -7.15346 1.84299 -6.24237 22
262 1 -7.17507 -0.102301 -3.60928 25
263 1 -8.68276 2.52612 -4.09883 24
264 1 -7.41048 5.60195 -9.0185 12
265 1 -7.26191 7.75136 -6.29922 16
266 1 -6.89663 5.71529 -3.36234 20
267 1 -8.38673 8.85271 -3.7426 16
268 1 -7.10492 11.9534 -2.78885 11
269 1 -5.55315 4.6541 -11.421 14
270 1 -3.77829 1.85646 -11.5777 20
271 1 -3.67258 -0.0272898 -8.96893 23
272 1 -5.45704 2.71253 -8.95343 22
273 1 -5.61685 4.80354 -6.20002 22
274 1 -3.75045 2.07815 -6.22717 25
275 1 -3.59793 -0.0122395 -3.51504 24
276 1 -5.26053 2.64336 -3.43719 23
277 1 -3.45728 7.4789 -11.5535 12
278 1 -3.87486 5.73851 -8.56837 21
279 1 -2.26477 8.41642 -8.80959 19
280 1 -5.39468 10.5269 -5.90042 12
281 1 -3.92727 8.01025 -6.01809 21
282 1 -3.74676 5.92991 -3.58779 22
283 1 -5.56557 8.78005 -3.38641 23
284 1 -3.90818 11.9367 -4.0144 12
285 1 -1.8771 0.880605 -13.5064 7
286 1 -0.310829 7.99371 -11.547 18
287 1 -0.605241 2.09696 -11.2761 22
288 1 -0.471838 0.00433148 -8.92624 25
289 1 -2.14362 2.70926 -8.88275 22
290 1 -2.24308 4.91725 -6.34015 21
291 1 -0.332171 1.75192 -6.33074 21
292 1 -0.491932 0.0512943 -3.34068 25
293 1 -1.93522 3.18912 -3.69563 23
294 1 1.04891 10.8143 -10.9271 12
295 1 -0.598278 5.93443 -8.79735 23
296 1 -2.24224 10.5598 -11.0272 13
297 1 -2.4231 10.8156 -7.11371 16
298 1 -0.480238 7.66036 -6.13979 21
299 1 -0.275098 5.59144 -3.49014 23
300 1 -2.25212 8.61043 -3.613 22
301 1 -0.707867 11.738 -9.00658 11
302 1 -0.585644 10.9901 -4.78391 18
303 2 -14.161 -0.981164 -0.555254 14
304 2 -13.8036 1.14006 -2.47369 14
305 2 -10.3181 0.0119085 -7.11289 15
306 2 -11.9996 2.20183 -5.95353 12
307 2 -10.3158 1.84182 -9.34667 10
308 2 -10.325 -0.51492 -1.42502 23
309 2 -11.3263 2.98038 -1.38286 20
310 2 -11.963 4.22016 -3.85614 14
311 2 -10.308 1.59622 -3.54108 23
312 2 -10.627 5.75691 -5.93554 14
313 2 -10.677 5.73381 -0.815339 17
314 2 -10.0823 7.16976 -3.44526 16
315 2 -7.09691 -0.394936 -12.2634 12
316 2 -7.01647 -0.00659453 -7.09773 22
317 2 -8.95847 2.75207 -6.28794 21
318 2 -8.77004 4.3772 -8.80697 12
319 2 -7.21116 1.83415 -9.98437 21
320 2 -7.21781 0.01691 -1.56395 24
321 2 -8.10068 2.7897 -1.1801 23
322 2 -8.44757 4.56596 -3.60343 22
323 2 -6.82573 1.65834 -4.47824 22
324 2 -7.39792 5.97339 -7.01685 18
325 2 -8.87501 8.6363 -5.61698 12
326 2 -3.6557 7.36733 -9.66427 18
327 2 -6.89239 5.76496 -0.883276 20
328 2 -8.73181 8.14802 -0.735892 18
329 2 -8.63595 10.4476 -2.8652 13
330 2 -6.92287 7.48513 -3.53803 21
331 2 -7.11094 11.6809 -0.763041 11
332 2 -3.44255 -0.032433 -12.2957 16
333 2 -5.44767 2.85833 -11.9834 14
334 2 -3.70211 0.0637064 -7.01389 24
335 2 -5.44783 3.02238 -6.9643 24
336 2 -5.55855 4.78584 -9.47676 18
337 2 -3.84651 1.90575 -9.56651 25
338 2 -3.76966 -0.250085 -1.5994 24
339 2 -5.12454 2.60424 -1.48003 20
340 2 -5.25738 4.52347 -4.11401 22
341 2 -3.33253 1.88993 -4.16329 21
342 2 -3.99246 5.64464 -11.9016 12
343 2 -3.91691 5.98415 -6.57239 22
344 2 -5.69627 8.79812 -6.37799 15
345 2 -2.02672 8.78164 -11.8313 12
346 2 -3.66183 5.95157 -1.41054 24
347 2 -5.36269 8.85532 -1.3751 23
348 2 -3.96212 11.623 -6.07917 11
349 2 -4.0289 7.84538 -4.05885 20
350 2 -2.21348 10.4912 -9.18443 15
351 2 -4.1234 11.8233 -1.89293 12
352 2 -5.79953 10.8032 -4.03127 16
353 2 -0.626518 0.128827 -12.1853 17
354 2 -2.06106 2.79002 -12.4078 14
355 2 -0.524147 -0.0449686 -7.00948 25
356 2 -2.06271 2.82697 -6.77585 24
357 2 -2.24609 4.60408 -8.71423 22
358 2 -0.488153 1.97634 -9.43009 24
359 2 -0.471287 0.00794463 -1.39897 23
360 2 -1.99171 2.93566 -1.71556 25
361 2 -1.91679 4.88944 -4.31604 21
362 2 -0.227251 1.6725 -4.34756 23
363 2 -0.667735 5.80498 -11.7894 17
364 2 -0.271973 5.9309 -6.77989 22
365 2 -2.18313 8.35758 -6.95459 22
366 2 -0.529634 11.5628 -10.9142 9
367 2 -0.295726 7.82939 -9.38318 24
368 2 -0.399911 5.854 -1.52357 25
369 2 -2.32398 8.86908 -1.49959 21
370 2 -2.18141 10.7113 -3.72908 19
371 2 -0.59694 7.73817 -3.94318 21
372 2 0.926358 10.7543 -8.8042 15
373 2 -0.699789 11.2817 -0.878121 14
374 2 4.49167 14.2637 3.64046 11
375 2 -0.715251 11.6161 -6.763 14
376 1 -14.5231 0.971711 -0.649134 12
377 1 -14.4545 -1.47311 1.49141 12
378 1 -13.2711 1.13032 3.00311 16
379 1 -11.8112 4.78941 -2.04735 15
380 1 -9.91421 1.61682 -1.42826 20
381 1 -10.2385 -0.116037 1.77577 24
382 1 -11.6933 2.48314 0.614067 21
383 1 -12.0344 3.88961 3.69552 13
384 1 -10.18 1.57155 4.4645 21
385 1 -10.3245 -0.299675 6.98676 17
386 1 -12.355 1.60263 6.18191 12
387 1 -9.91263 1.08345 10.245 12
388 1 -10.493 7.54201 -1.50661 14
389 1 -10.601 5.36943 1.04717 18
390 1 -10.2002 7.20967 4.00446 14
391 1 -10.0815 5.63365 6.46514 13
392 1 -8.76786 4.66694 -0.972023 22
393 1 -6.76081 1.70443 -0.787202 23
394 1 -6.86289 -0.137668 1.78232 24
395 1 -8.70227 2.56088 1.70753 21
396 1 -8.75075 4.65104 3.67514 22
397 1 -6.90454 1.96945 4.29225 21
398 1 -6.83054 -0.113537 7.08513 24
399 1 -8.84836 2.70339 6.76968 22
400 1 -8.61109 4.45174 9.19571 12
401 1 -7.08823 2.08077 9.74502 20
402 1 -6.94783 -0.0158963 12.2879 12
403 1 -8.81187 10.3541 -0.8411 12
404 1 -6.87157 7.58054 -1.20287 21
405 1 -6.8965 5.28493 1.07107 22
406 1 -8.82429 8.16052 1.17875 19
407 1 -8.7393 10.4349 3.35973 12
408 1 -7.16615 7.54728 3.65491 21
409 1 -7.25568 5.69047 6.55488 21
410 1 -8.81039 8.7189 6.26164 12
411 1 -7.14671 7.48072 9.3759 11
412 1 -7.1461 11.5958 1.45329 11
413 1 -5.03537 4.5813 -0.88933 22
414 1 -3.28456 1.64815 -1.0097 21
415 1 -3.79477 0.0619517 1.74697 21
416 1 -5.2358 2.87122 1.9045 23
417 1 -5.18985 4.91492 4.55363 23
418 1 -3.54351 2.01952 4.43931 24
419 1 -3.76537 0.127085 6.97882 23
420 1 -5.33641 2.72115 7.05643 21
421 1 -5.23084 4.83554 9.88778 20
422 1 -3.55108 1.92785 9.67788 25
423 1 -3.75576 0.0440966 12.2739 16
424 1 -5.09188 3.00506 12.1749 13
425 1 -5.17162 10.6684 -0.788886 17
426 1 -3.70077 7.75805 -0.803255 21
427 1 -3.57648 5.82593 1.69437 24
428 1 -5.3474 8.77395 1.72127 21
429 1 -5.55481 10.6139 4.41318 16
430 1 -3.72555 7.91121 4.44981 22
431 1 -3.91715 5.72044 7.18345 22
432 1 -5.5529 8.72692 7.31097 16
433 1 -3.62315 7.60972 9.75772 16
434 1 -3.19781 5.78468 12.5982 10
435 1 3.23196 13.3956 4.64199 12
436 1 -3.68762 11.2685 2.2456 15
437 1 -3.53661 11.1419 6.22453 12
438 1 -2.02293 5.09133 -0.914737 21
439 1 -0.208246 1.92382 -0.961124 22
440 1 -0.321274 -0.113138 1.92565 24
441 1 -1.79831 2.83511 1.94174 24
442 1 -1.9511 5.13294 4.49005 22
443 1 -0.309527 2.05582 4.38508 21
444 1 -0.302463 0.263319 6.99832 23
445 1 -1.89125 2.98205 7.15595 25
446 1 -1.88743 4.93921 9.71447 22
447 1 -0.142124 1.9425 9.98583 23
448 1 -0.708934 0.239558 12.715 16
449 1 -2.11429 2.90285 12.7463 16
450 1 -2.24486 10.8441 -1.59192 15
451 1 -0.450889 7.88845 -1.11314 20
452 1 -0.293029 5.97836 1.74331 24
453 1 -1.87262 8.59188 1.93292 23
454 1 -1.67542 10.8569 4.15918 17
455 1 -0.342481 7.8293 4.80647 26
456 1 -0.0857115 5.82588 6.99851 22
457 1 -2.0274 8.65168 7.16976 21
458 1 -0.646189 7.65473 9.97721 15
459 1 -0.39971 5.98714 12.397 12
460 1 4.96862 14.4317 1.62668 10
461 1 -0.254561 11.4536 0.879707 14
462 1 6.47079 13.7231 4.03836 9
463 1 0.0802164 11.2154 6.58562 13
464 2 -13.4698 -0.708224 3.20019 14
465 2 -13.8747 1.28934 1.16263 14
466 2 -9.71065 -0.103869 3.79143 24
467 2 -12.2147 2.0629 4.1341 15
468 2 -11.6027 3.9706 1.83704 17
469 2 -10.0804 1.44761 0.72721 24
470 2 -8.44319 -0.159326 11.1269 11
471 2 -10.5385 1.91398 6.41094 17
472 2 -10.0036 -0.0151293 8.85469 15
473 2 -10.5821 5.16927 4.50095 17
474 2 -10.181 7.20957 2.00745 16
475 2 -10.276 7.55295 6.15637 10
476 2 -6.70222 0.034316 3.83555 23
477 2 -8.67678 2.73185 3.8087 23
478 2 -8.64808 4.58858 1.51765 22
479 2 -6.98654 1.82253 1.57457 21
480 2 -6.67438 0.228855 9.00062 22
481 2 -8.97469 2.60633 9.60935 14
482 2 -8.5669 4.60551 7.30872 19
483 2 -7.07497 1.80979 6.21924 25
484 2 -6.66602 1.90959 11.7572 15
485 2 -7.30877 5.78794 4.53211 21
486 2 -8.61419 8.72335 4.29343 14
487 2 -8.76957 10.2868 1.16636 12
488 2 -6.88471 7.35682 1.68682 21
489 2 -6.92244 5.4976 9.6915 16
490 2 -7.63449 7.58185 7.2685 16
491 2 -6.95667 10.7913 3.23175 14
492 2 -3.47903 0.0119129 3.72411 25
493 2 -5.2674 3.09187 4.01047 21
494 2 -5.07546 4.73505 1.11402 20
495 2 -3.64538 1.93829 1.07158 25
496 2 -3.58548 -0.0669485 8.97867 24
497 2 -5.53353 2.97999 9.14468 22
498 2 -5.39735 4.67339 6.36232 22
499 2 -3.50829 1.93412 6.4147 24
500 2 -4.55896 4.85137 11.7298 14
501 2 -3.64836 1.87019 11.7824 19
502 2 -3.57648 5.94466 3.71269 25
503 2 -5.41964 8.34623 3.76225 21
504 2 -5.31726 10.8036 1.25383 15
505 2 -4.02023 7.61189 0.880499 23
506 2 -3.6878 5.81582 9.19578 22
507 2 -5.49156 8.20106 9.25318 11
508 2 -5.39336 10.2918 6.19551 13
509 2 -3.97884 7.91024 6.4521 23
510 2 -3.60822 11.3261 4.23553 15
511 2 0.206154 11.2879 4.76769 16
512 2 -0.198581 0.116623 3.88309 23
513 2 -1.70504 3.14225 3.99538 22
514 2 -1.74924 4.81042 1.34819 21
515 2 -0.289558 1.87932 0.964016 23
516 2 -0.320661 -0.0310689 8.98012 25
517 2 -1.91977 2.94133 9.38786 21
518 2 -1.99315 5.0873 6.71835 20
519 2 -0.354358 2.10953 6.61687 22
520 2 -1.7694 4.65759 12.9524 12
521 2 -0.368025 1.97199 12.0855 17
522 2 -0.302876 6.11771 3.81059 23
523 2 -1.96901 8.79621 4.00004 22
524 2 -1.76388 10.869 1.99598 14
525 2 -0.47395 7.84387 1.00849 24
526 2 -0.332636 5.62499 9.0166 23
527 2 -2.08643 8.46673 8.98833 16
528 2 -1.70094 10.4696 6.60794 14
529 2 -0.253437 7.87173 6.65155 22
530 2 -1.98211 6.789 11.4036 12
531 2 3.00167 12.9402 6.49274 10
532 2 6.43396 13.3888 1.99206 12
533 1 1.61837 -12.2658 -6.58827 9
534 1 1.5012 -6.19653 -12.151 12
535 1 1.13588 -8.57976 -9.98598 14
536 1 1.2975 -6.70197 -6.05599 21
537 1 2.90053 -9.42165 -7.1121 16
538 1 3.40096 -11.6354 -4.23297 15
539 1 1.5049 -8.57541 -4.20121 21
540 1 -2.00762 -4.57503 -13.5807 8
541 1 1.09857 -0.74419 -11.6186 20
542 1 3.08735 -3.51986 -12.703 11
543 1 2.61655 -5.75554 -9.08424 19
544 1 0.98465 -2.67034 -8.81916 22
545 1 1.28035 -0.703908 -6.20442 22
546 1 2.64079 -3.6168 -6.34397 22
547 1 2.85784 -5.76859 -3.6937 22
548 1 1.24397 -3.0634 -3.47596 24
549 1 4.7289 -6.27668 -11.643 13
550 1 4.76597 -8.33071 -9.01094 12
551 1 4.6913 -6.57109 -6.41724 21
552 1 6.23139 -9.56534 -6.36492 11
553 1 6.57895 -11.857 -3.61222 9
554 1 4.80411 -8.6114 -3.65062 22
555 1 4.61126 -0.891474 -11.4279 21
556 1 6.11552 -3.70996 -12.3595 12
557 1 5.89972 -5.27678 -9.13191 20
558 1 4.60256 -2.70817 -8.83264 22
559 1 4.69142 -1.06102 -6.19443 23
560 1 6.28182 -3.88715 -6.24963 21
561 1 6.47142 -5.75357 -3.69706 24
562 1 4.71703 -2.91134 -3.84077 20
563 1 8.09702 -6.84479 -6.80236 14
564 1 8.20557 -8.83442 -4.16087 17
565 1 7.70968 -1.01154 -11.3675 12
566 1 8.09667 -4.50267 -10.8596 11
567 1 7.85048 -2.79114 -8.60297 19
568 1 8.05105 -0.793854 -6.11919 22
569 1 10.1902 -4.62839 -7.51736 10
570 1 9.80128 -5.85193 -4.11056 19
571 1 7.95799 -2.91618 -3.54078 21
572 1 11.4779 -8.44841 -4.45435 8
573 1 11.125 -1.10251 -6.37565 11
574 1 10.9652 -2.88025 -4.44679 16
575 2 3.36181 -11.5097 -0.792743 16
576 2 3.11026 -11.0041 -6.17602 15
577 2 2.78582 -8.82241 -9.09801 13
578 2 1.01503 -8.78151 -6.23319 20
579 2 1.16997 -6.41868 -10.2784 17
580 2 4.36429 -6.51388 -9.68361 17
581 2 1.50679 -12.2217 -4.56659 15
582 2 1.46348 -8.67123 -0.79723 19
583 2 1.23055 -6.5697 -4.22286 21
584 2 3.04994 -9.50735 -3.46277 19
585 2 3.35607 -5.57738 -12.8436 11
586 2 1.47518 -2.51264 -12.076 16
587 2 2.87537 -5.82268 -6.78203 23
588 2 1.10195 -2.50394 -6.73674 22
589 2 1.39545 -0.750389 -9.55183 23
590 2 2.73366 -3.74932 -8.55493 18
591 2 3.01371 -5.83753 -1.69801 24
592 2 1.17951 -2.83736 -1.50011 23
593 2 1.02143 -1.00898 -4.21973 23
594 2 2.98565 -3.56702 -4.23265 21
595 2 4.75857 -12.7512 -3.40901 10
596 2 4.86572 -8.54246 -7.05964 15
597 2 4.62157 -2.80791 -11.9747 15
598 2 6.31826 -11.4152 -1.5554 14
599 2 4.76031 -8.64529 -1.6554 19
600 2 4.64144 -6.58372 -4.21363 21
601 2 6.50727 -10.0083 -4.50281 16
602 2 7.76439 -2.82899 -11.7299 11
603 2 6.28868 -5.58422 -7.21895 19
604 2 4.64189 -3.01213 -6.89399 20
605 2 4.25652 -0.795712 -9.25773 21
606 2 6.22869 -3.54903 -9.82012 21
607 2 6.15009 -5.79862 -1.37094 21
608 2 4.61471 -2.88773 -1.9255 24
609 2 4.68085 -0.965373 -3.99076 20
610 2 6.3948 -4.03911 -4.27426 21
611 2 7.74577 -8.59008 -6.07043 13
612 2 6.49114 -5.57225 -11.3998 10
613 2 8.05189 -8.81063 -0.912126 18
614 2 8.0485 -6.90848 -3.42448 22
615 2 10.0133 -9.26 -3.56151 12
616 2 9.54431 -5.79222 -6.07279 16
617 2 7.69023 -2.60637 -6.77471 22
618 2 8.13862 -0.881888 -9.58006 18
619 2 9.06793 -4.49106 -9.23642 13
620 2 9.4401 -5.71471 -0.819196 23
621 2 7.83683 -2.91101 -1.40076 22
622 2 7.78113 -1.06447 -3.91142 21
623 2 9.63476 -3.94895 -3.35198 21
624 2 10.903 -8.47717 -0.296621 14
625 2 11.2612 -6.73139 -3.34486 15
626 2 11.0621 -3.07012 -6.45526 13
627 2 12.3072 -5.53031 -0.341179 15
628 2 11.3857 -2.93871 -0.814028 19
629 2 11.374 -0.894661 -4.44858 15
630 2 12.7457 -2.74646 -2.87061 12
631 1 1.33448 -12.0721 -0.680885 15
632 1 1.30615 -13.1006 5.20859 12
633 1 1.54078 -6.73614 -0.692105 25
634 1 3.07514 -9.75684 -1.47497 21
635 1 3.40803 -11.9411 1.31507 16
636 1 1.60719 -9.10854 1.188 20
637 1 1.27946 -6.89858 4.53909 21
638 1 2.99473 -9.73259 3.88392 21
639 1 3.33936 -11.3462 6.67637 14
640 1 1.42782 -8.70957 6.9912 20
641 1 1.75175 -6.24739 9.88724 20
642 1 2.89107 -9.30808 9.71345 10
643 1 1.20896 -0.839821 -1.08083 23
644 1 3.0767 -3.79275 -1.19249 22
645 1 3.02422 -5.80063 1.79249 23
646 1 1.23723 -2.85986 1.8221 24
647 1 1.34333 -0.968542 4.41552 22
648 1 2.9269 -3.73717 4.32918 23
649 1 3.2053 -5.82304 6.80893 20
650 1 1.49026 -3.05152 7.30858 24
651 1 1.18587 -0.964777 9.47696 21
652 1 3.09578 -3.49421 10.0688 22
653 1 3.37261 -5.21915 12.5223 12
654 1 1.43044 -2.43033 12.827 16
655 1 4.90971 -12.7275 -1.38418 10
656 1 4.64376 -12.8034 3.89553 11
657 1 4.63984 -6.90653 -0.801068 23
658 1 6.25155 -9.58058 -0.985252 19
659 1 6.77847 -11.1591 2.10047 15
660 1 4.91106 -8.74624 1.99667 20
661 1 4.7704 -6.68712 4.43709 22
662 1 5.88066 -10.0073 5.07373 17
663 1 4.80748 -8.54475 7.65838 19
664 1 4.83544 -6.11919 9.92127 16
665 1 4.46304 -1.15882 -0.957409 23
666 1 6.31589 -3.96301 -0.992961 21
667 1 6.24003 -5.76605 1.99015 22
668 1 4.66083 -2.73331 1.62512 22
669 1 4.54343 -0.649191 4.52468 24
670 1 6.15506 -3.48774 4.15708 20
671 1 6.52029 -5.70732 7.13696 25
672 1 4.5736 -2.99921 6.81407 22
673 1 4.468 -1.02582 9.77576 22
674 1 6.31244 -3.68491 10.1981 18
675 1 4.71494 -2.7456 12.671 12
676 1 7.91043 -6.82566 -1.32403 24
677 1 9.8275 -9.23368 -1.70871 14
678 1 8.26149 -8.62383 1.01047 19
679 1 7.86055 -6.52925 4.02195 22
680 1 8.98448 -9.83346 3.96525 12
681 1 8.01535 -8.60906 6.7011 13
682 1 8.02406 -6.73787 9.56849 10
683 1 8.0742 -1.08452 -1.06558 22
684 1 9.68146 -3.96316 -1.29385 22
685 1 9.67508 -6.02107 1.29071 23
686 1 7.8418 -2.8782 1.70984 22
687 1 7.98042 -0.666029 4.44358 23
688 1 9.47284 -3.69503 3.95883 19
689 1 9.53764 -5.48917 6.92894 17
690 1 7.56808 -2.6572 7.33241 22
691 1 7.86258 -0.623432 9.64482 17
692 1 9.53816 -3.4912 9.41816 11
693 1 11.3388 -6.85723 -1.47313 19
694 1 11.4148 -8.79317 1.40915 11
695 1 11.2533 -5.86841 3.92436 16
696 1 11.1248 -0.90975 -0.596014 20
697 1 12.6782 -4.05822 -1.56992 14
698 1 12.8184 -5.7628 1.30874 15
699 1 11.4455 -3.11563 1.37092 20
700 1 11.7781 0.0863033 4.77311 16
701 1 13.1734 -2.89643 3.77735 12
702 1 11.2048 -3.02898 6.25799 14
703 2 3.09622 -13.6516 4.52528 11
704 2 1.47938 -11.8442 6.76562 13
705 2 4.07149 -11.0403 4.86624 19
706 2 1.34395 -8.86192 4.75684 21
707 2 1.45884 -6.68802 1.3357 20
708 2 3.11256 -10.0027 1.94246 21
709 2 1.42856 -8.24248 10.2966 13
710 2 1.42894 -6.88713 6.53115 20
711 2 3.2617 -9.75439 7.85125 15
712 2 1.7687 -5.87281 11.8825 15
713 2 2.44518 -5.46174 3.77197 20
714 2 1.31445 -2.888 3.9118 23
715 2 1.29444 -0.956248 1.09204 25
716 2 3.08866 -3.84526 0.936542 24
717 2 2.99825 -5.34448 8.92472 23
718 2 1.32047 -2.84333 9.32583 22
719 2 1.22375 -1.11601 6.57628 23
720 2 2.92305 -3.81371 6.22945 25
721 2 0.864837 -0.697994 12.9868 12
722 2 2.99884 -3.54563 13.3356 12
723 2 5.2523 -12.2989 2.0844 15
724 2 7.27099 -10.6489 3.84851 14
725 2 4.71583 -8.54044 4.01367 21
726 2 4.45756 -6.92668 1.27749 20
727 2 6.39533 -9.52873 1.05471 19
728 2 4.41859 -8.04237 9.51553 14
729 2 4.92717 -6.70055 6.61423 21
730 2 6.26131 -9.18597 6.73492 15
731 2 4.72217 -4.43372 11.2446 15
732 2 6.25786 -5.35294 3.79618 21
733 2 4.6076 -2.53464 3.69673 23
734 2 4.53434 -0.833443 0.962838 24
735 2 6.32267 -3.93758 1.08022 24
736 2 6.62105 -5.37387 9.2684 18
737 2 5.0786 -2.94708 8.6968 24
738 2 4.48827 -1.12696 6.42613 23
739 2 6.38297 -3.75072 6.28343 25
740 2 3.12386 -1.78793 11.3503 18
741 2 4.96325 -0.693455 12.5724 15
742 2 8.36103 -8.22699 4.79095 17
743 2 7.9745 -6.70569 1.84009 22
744 2 9.61218 -9.11487 2.20143 14
745 2 8.15636 -6.91603 7.49473 14
746 2 9.59656 -5.52381 5.08476 18
747 2 7.82029 -2.63169 3.64664 21
748 2 8.07039 -0.973772 1.10587 21
749 2 9.80696 -4.16868 1.97128 21
750 2 9.34652 -5.41825 9.5614 10
751 2 7.87489 -2.55607 9.73015 15
752 2 7.90868 -0.809104 6.69873 20
753 2 9.79644 -3.57186 7.48407 15
754 2 7.91039 0.63664 11.3965 10
755 2 11.5553 -6.9368 2.30965 16
756 2 11.5151 -4.00178 4.58509 14
757 2 11.3554 -0.991204 1.26795 19
758 2 13.0403 -4.18709 2.1564 13
759 2 11.1343 -1.08001 6.21612 16
760 1 6.03282 2.07867 -11.5119 13
761 1 -2.26988 4.59595 -11.6835 19
762 1 0.900628 5.07529 -11.1654 18
763 1 2.53517 1.70827 -11.3114 17
764 1 2.6826 0.172874 -8.7 24
765 1 1.12336 2.92054 -8.73682 24
766 1 1.15884 4.78754 -6.04114 24
767 1 2.99861 1.8808 -6.32878 21
768 1 2.92858 -0.155112 -3.70465 21
769 1 1.40862 2.52367 -3.6694 23
770 1 2.72138 7.87555 -11.6056 13
771 1 2.65909 5.96886 -8.83289 22
772 1 1.04156 8.80159 -8.58979 22
773 1 1.30178 10.7658 -6.81709 15
774 1 2.88609 7.63957 -6.04999 23
775 1 2.67268 5.72412 -3.23543 24
776 1 1.29201 8.67627 -3.68694 20
777 1 2.40044 12.1202 -4.31671 13
778 1 4.05965 4.79554 -11.6493 14
779 1 8.00035 2.92197 -8.95078 19
780 1 6.26517 0.192439 -8.86404 23
781 1 4.48942 3.02192 -8.99945 23
782 1 4.35263 4.85062 -6.31112 24
783 1 6.3578 2.10893 -6.05532 21
784 1 6.41481 0.136045 -3.2529 25
785 1 4.54396 2.99917 -3.58465 23
786 1 6.18136 5.8888 -8.62602 20
787 1 4.44714 8.03126 -8.64937 16
788 1 4.53798 10.6325 -5.9748 14
789 1 6.42378 7.96851 -6.12177 18
790 1 5.97348 5.52747 -3.44413 23
791 1 4.64871 8.48203 -3.51042 21
792 1 5.29894 12.0461 -3.17224 12
793 1 9.48431 0.297017 -8.73781 15
794 1 9.39961 6.00391 -8.90928 14
795 1 7.9847 4.90437 -6.08762 25
796 1 9.818 1.8834 -6.11892 20
797 1 9.9176 -0.0609448 -3.55081 21
798 1 8.11094 3.11994 -3.40086 22
799 1 7.61001 9.13928 -8.83669 9
800 1 9.47248 8.17946 -6.36389 11
801 1 9.58544 6.24973 -3.47796 18
802 1 7.59317 8.39802 -3.33857 18
803 1 11.052 5.16963 -6.2789 15
804 1 11.3384 3.02064 -8.6795 11
805 1 12.813 -0.819307 -3.11251 11
806 1 11.1984 3.12309 -3.63988 14
807 2 2.85595 -0.103261 -12.0596 15
808 2 1.03946 2.996 -11.4935 16
809 2 2.88976 0.0129783 -6.77566 24
810 2 1.40023 2.94397 -6.73573 22
811 2 1.15597 4.78128 -9.10328 21
812 2 2.95097 1.87185 -9.49324 24
813 2 2.79384 -0.0498485 -1.59041 23
814 2 1.30708 2.85049 -1.59763 24
815 2 1.3196 4.55556 -3.98708 21
816 2 3.22508 1.74097 -4.37875 22
817 2 2.5717 5.84868 -11.6372 12
818 2 2.73801 5.83208 -6.88223 25
819 2 1.18486 8.73447 -6.24247 20
820 2 1.34915 9.18528 -11.7118 12
821 2 2.84186 7.84224 -9.51675 21
822 2 2.83319 5.57244 -1.24061 22
823 2 1.1753 8.67319 -1.6411 23
824 2 1.02427 10.7505 -3.78862 17
825 2 2.98582 7.52259 -4.03996 22
826 2 2.83091 11.3552 -5.89128 14
827 2 2.69832 11.6013 -0.859678 17
828 2 3.8378 13.603 0.506342 12
829 2 3.57619 12.9522 -3.05753 12
830 2 6.28635 0.23923 -11.5331 11
831 2 4.60599 3.04227 -11.7834 12
832 2 6.3247 0.226666 -6.98054 24
833 2 4.59811 2.93532 -6.70142 22
834 2 4.4679 5.07116 -9.40055 20
835 2 6.07921 2.10372 -9.41253 20
836 2 6.37065 -0.122461 -1.37004 21
837 2 4.55859 3.00068 -1.45713 23
838 2 4.35837 4.91029 -4.0114 21
839 2 6.31435 2.12789 -3.96652 19
840 2 6.02405 6.00574 -6.63134 19
841 2 4.5935 8.63586 -6.75395 20
842 2 6.17754 7.79738 -9.19153 12
843 2 6.24231 5.88144 -1.48026 25
844 2 4.48447 8.60647 -1.37997 25
845 2 5.04103 10.324 -4.25895 15
846 2 6.35643 7.39412 -4.2557 21
847 2 8.03768 10.8507 0.882347 18
848 2 9.75053 0.12392 -6.81337 18
849 2 8.0944 3.03752 -6.54751 22
850 2 7.87847 4.90541 -8.59046 15
851 2 9.62498 2.05507 -9.30142 13
852 2 9.77152 0.0711088 -1.66429 24
853 2 7.99597 2.95097 -1.15395 21
854 2 7.85296 4.89677 -3.96007 21
855 2 9.72962 1.91904 -4.13598 20
856 2 10.0913 6.63002 -7.25753 12
857 2 7.87805 8.85291 -7.08579 14
858 2 9.52897 6.13843 -1.35475 19
859 2 9.37927 7.209 1.59103 22
860 2 7.9362 8.69596 -1.4208 19
861 2 9.15345 7.93226 -4.40513 14
862 2 10.4845 4.46474 -9.08713 11