ITEM: TIMESTEP
295000
ITEM: NUMBER OF ATOMS
1000
ITEM: BOX BOUNDS pp pp pp
-30.0 30.0
-30.0 30.0
-30.0 30.0
ITEM: ATOMS id type x y z Coordination
1 1 -12.0042 -1.44322 -5.86458 13
2 1 -10.3724 -3.40232 -6.32723 17
3 1 -10.2104 -5.49829 -4.07775 16
4 1 -12.051 -3.55774 -2.96748 17
5 1 -8.78949 -6.52719 -6.73079 12
6 1 -7.31292 -9.61387 -6.97258 16
7 1 -7.36438 -11.5101 -3.91089 13
8 1 -8.53853 -8.60269 -4.2038 15
9 1 -8.96778 -1.16063 -11.5567 12
10 1 -6.90527 -4.14356 -11.5827 14
11 1 -6.63756 -5.96541 -8.90874 13
12 1 -8.30197 -2.7259 -8.61476 18
13 1 -8.80842 -1.12501 -5.84611 22
14 1 -7.08958 -4.02893 -5.8435 25
15 1 -7.01327 -5.40115 -3.1919 21
16 1 -8.70505 -2.75337 -3.07209 22
17 1 -1.13066 -11.0797 -8.81229 11
18 1 -4.8461 -9.12943 -9.42504 12
19 1 -5.34326 -7.00687 -6.1787 21
20 1 -5.91535 -11.7803 -7.07138 12
21 1 -4.01666 -11.5436 -3.95846 21
22 1 -5.38351 -8.49219 -3.85285 22
23 1 -6.53555 -1.89008 -13.247 8
24 1 -3.47184 -3.50834 -11.7191 16
25 1 -3.70067 -5.94725 -9.65844 17
26 1 -5.47149 -3.04421 -8.55824 22
27 1 -5.5484 -1.05349 -6.16195 23
28 1 -3.69623 -3.91185 -5.98606 22
29 1 -3.65238 -5.73582 -3.37201 22
30 1 -5.44692 -2.86992 -3.67934 23
31 1 -2.53703 -12.9515 -5.92667 11
32 1 -2.08604 -8.61889 -8.30199 18
33 1 1.19343 -12.492 -6.9184 14
34 1 -3.79188 -9.80978 -6.35358 22
35 1 -1.77877 -6.84625 -6.42072 21
36 1 -0.289068 -9.91225 -6.11407 22
37 1 -0.706881 -11.8441 -3.73335 16
38 1 -2.24339 -8.93656 -3.78368 22
39 1 -5.31956 -1.10925 -10.9772 20
40 1 -0.341993 -3.37908 -11.9672 16
41 1 -0.280379 -5.46403 -8.93691 21
42 1 -2.24774 -3.08998 -8.87344 20
43 1 -2.0274 -1.14764 -6.33293 22
44 1 -0.441842 -4.11271 -6.15943 23
45 1 -0.455052 -5.90182 -3.65546 18
46 1 -2.16248 -2.87704 -3.54768 23
47 2 -12.8614 -2.01937 -4.14805 12
48 2 -11.553 -5.5503 -2.85451 13
49 2 -7.16214 -11.2733 -5.71137 13
50 2 -10.0071 -5.2543 -6.01167 12
51 2 -10.2691 -3.53874 -4.13445 21
52 2 -8.08032 -2.62693 -12.3317 10
53 2 -10.1103 -6.07972 -0.388666 21
54 2 -8.82129 -8.80341 -0.673124 14
55 2 -13.178 1.39236 -3.7034 14
56 2 -8.30225 -2.89349 -6.74292 22
57 2 -8.63719 -8.41219 -6.257 12
58 2 -3.1216 -9.91004 -9.10927 11
59 2 -7.67872 -11.7645 -0.441572 12
60 2 -11.8476 -8.46721 0.127689 12
61 2 -8.4609 -6.7553 -3.56992 19
62 2 -5.4545 -9.08788 -5.76459 20
63 2 -6.88516 -5.85841 -6.98204 20
64 2 -11.254 -2.146 -7.46116 12
65 2 -9.18429 -1.71941 -9.8555 13
66 2 -6.84977 -4.0554 -9.59483 16
67 2 -6.82494 -5.676 -1.14203 19
68 2 -9.13992 -2.82971 -1.12797 21
69 2 -8.66786 -0.757724 -3.88949 22
70 2 -7.2883 -3.69047 -3.92789 23
71 2 -5.74484 -12.2044 -3.23416 15
72 2 -4.24412 -12.0619 -6.37758 14
73 2 -5.40772 -7.2645 -9.48275 14
74 2 -0.292714 -9.50454 -8.49301 15
75 2 -5.62028 -10.1143 -8.11365 12
76 2 -4.21928 -11.4133 -0.642787 19
77 2 -5.5128 -8.76355 -0.503514 20
78 2 -5.33762 -6.51452 -4.02665 21
79 2 -3.87067 -9.86976 -3.44961 21
80 2 -3.09738 -5.39817 -11.5613 12
81 2 -5.25165 -2.78675 -11.919 14
82 2 -3.67666 -6.10585 -6.65471 21
83 2 -5.36277 -3.0043 -6.33028 20
84 2 -6.29841 -1.41951 -9.339 22
85 2 -4.03056 -3.96878 -9.21865 21
86 2 -3.91392 -5.64258 -1.39073 22
87 2 -5.77425 -2.94068 -1.65186 23
88 2 -5.26436 -0.922076 -4.28419 24
89 2 -3.8929 -3.86014 -3.96409 21
90 2 0.585407 -11.7252 0.11026 15
91 2 -2.47827 -12.5824 -4.02488 14
92 2 2.92215 -11.9101 -6.27029 13
93 2 -2.10146 -8.85297 -6.06268 20
94 2 -1.79412 -6.58849 -9.44111 19
95 2 0.0872739 -12.6369 -8.73095 7
96 2 -0.949971 -12.0246 -1.86733 18
97 2 -2.08528 -8.77187 -1.1117 19
98 2 -1.90262 -6.83002 -4.32041 24
99 2 -0.267567 -9.79313 -4.03478 21
100 2 -0.319219 -5.38599 -11.6992 14
101 2 -1.93158 -2.69718 -11.5567 15
102 2 -0.0806928 -5.89778 -6.47284 19
103 2 -2.16013 -3.10288 -6.95669 22
104 2 -1.83811 -0.997833 -8.84032 17
105 2 -0.250082 -3.49987 -9.35721 22
106 2 -0.666264 -5.5931 -1.66532 21
107 2 -2.30429 -2.88735 -1.55713 21
108 2 -2.02649 -1.07052 -4.29379 25
109 2 -0.417851 -3.90574 -4.27339 25
110 1 -13.8999 -4.03087 0.0181289 13
111 1 -11.8245 -6.80272 -1.40395 14
112 1 -10.39 -9.59784 0.239393 13
113 1 -11.3654 -6.20281 4.25945 12
114 1 -12.1796 -1.27489 -0.243057 21
115 1 -10.3441 -3.82659 -0.303025 22
116 1 -10.4801 -5.85531 1.53027 21
117 1 -13.1243 -7.53994 1.18019 11
118 1 -13.278 -2.55892 5.21107 11
119 1 -12.2457 -4.002 2.45483 20
120 1 -10.2079 -5.9081 7.49692 13
121 1 -10.3181 -4.03595 5.1856 23
122 1 -8.54669 -6.95649 -1.06245 20
123 1 -7.22713 -9.72025 -1.27433 17
124 1 -8.22472 -11.4016 1.29323 10
125 1 -9.63346 -8.95895 3.3179 13
126 1 -8.55396 -6.96195 4.81009 20
127 1 -6.73929 -9.73638 4.35139 16
128 1 -8.17821 -8.80695 6.77109 12
129 1 -8.80493 -0.813672 -0.595187 22
130 1 -6.98409 -3.88613 -0.585695 23
131 1 -7.01902 -5.94426 1.79868 20
132 1 -8.84797 -2.77964 2.26566 21
133 1 -9.01599 -0.975544 4.78406 21
134 1 -7.25781 -3.96625 4.87184 23
135 1 -6.97534 -5.65076 7.52048 21
136 1 -8.56117 -2.70323 7.82184 23
137 1 -9.00502 -2.1531 11.5781 10
138 1 -6.54993 -4.00281 10.2885 16
139 1 -5.92614 -12.5152 -1.19641 12
140 1 -5.79004 -12.5246 3.64325 10
141 1 -5.18899 -6.66285 -0.837026 23
142 1 -3.79222 -9.68607 -1.4256 21
143 1 -3.87971 -11.6579 1.25672 16
144 1 -5.40508 -8.5579 1.64224 17
145 1 -4.73892 -6.88377 5.07709 23
146 1 -3.48832 -10.0396 3.84426 21
147 1 -4.80546 -10.2813 6.47963 16
148 1 -5.35927 -8.18285 8.16534 15
149 1 -5.09988 -6.36826 10.4651 15
150 1 -3.02949 -9.33772 9.26004 11
151 1 -5.30196 -1.04019 -1.06158 20
152 1 -3.98206 -3.74626 -0.989045 23
153 1 -3.43361 -5.67379 2.0952 22
154 1 -5.67864 -2.99901 2.19633 24
155 1 -5.54167 -0.956286 4.43463 23
156 1 -3.57555 -3.77886 4.6061 23
157 1 -3.4482 -5.84561 7.23674 21
158 1 -5.11471 -2.98127 7.27572 24
159 1 -5.38535 -0.840845 10.0343 21
160 1 -3.775 -3.6917 9.69774 21
161 1 -3.13703 -5.11891 12.4199 11
162 1 -5.44559 -2.9369 12.4988 13
163 1 -2.46927 -12.7969 -1.22698 15
164 1 -2.63409 -12.8899 3.55639 12
165 1 -2.10028 -6.65716 -0.739969 23
166 1 -0.55025 -10.3049 -0.860184 21
167 1 2.1803 -11.5591 1.04442 17
168 1 -2.29488 -8.7272 0.996401 21
169 1 -1.93874 -6.71456 4.44664 21
170 1 -0.336759 -9.51227 3.62962 19
171 1 -0.425789 -11.4881 5.8819 15
172 1 -1.84966 -8.66001 6.61862 20
173 1 -1.5371 -6.63286 9.82609 20
174 1 0.0610391 -9.50803 8.92356 10
175 1 -1.96775 -1.11258 -0.813292 22
176 1 -0.638134 -3.69407 -0.72087 23
177 1 -0.192766 -5.79538 1.80459 22
178 1 -2.14531 -2.92999 1.71396 22
179 1 -2.05564 -1.07809 4.25738 23
180 1 -0.243723 -3.95458 4.17351 23
181 1 -0.344558 -5.39115 7.44081 24
182 1 -1.99009 -2.81756 7.13357 23
183 1 -2.03596 -1.00673 9.73243 20
184 1 -0.199639 -3.30728 9.9331 22
185 1 0.280573 -5.10816 12.342 14
186 1 -1.77568 -2.32955 12.5751 17
187 2 -13.4947 -5.95178 0.0421977 12
188 2 -12.3565 -6.05519 2.58541 14
189 2 -7.05441 -9.47453 -3.31315 19
190 2 -10.0803 -5.89979 5.66392 17
191 2 -12.0386 -4.15795 4.51591 15
192 2 -13.732 -3.06891 1.59988 14
193 2 -10.3364 -3.88298 1.72546 19
194 2 -11.9995 -2.45091 6.60655 16
195 2 -10.1756 -4.02874 8.02756 13
196 2 -4.82281 -11.1293 4.74133 14
197 2 -8.68434 -9.18358 4.90148 12
198 2 -10.0181 -7.21823 3.04898 18
199 2 -9.74115 -10.3128 1.98577 10
200 2 -8.39931 -7.03923 7.05455 14
201 2 -6.43038 -9.3642 6.6683 14
202 2 -7.31462 -5.64652 3.76815 21
203 2 -8.98549 -2.87122 4.14002 21
204 2 -8.82932 -0.85986 1.51591 22
205 2 -7.33808 -4.19295 1.25876 21
206 2 -6.55729 -5.65794 9.42154 16
207 2 -7.40701 -3.2068 11.9158 11
208 2 -8.83623 -0.898249 6.87946 21
209 2 -7.2233 -3.77794 6.63544 23
210 2 -4.73284 -4.58078 11.4339 14
211 2 -7.01612 -11.3433 2.72529 14
212 2 -1.88935 -11.5604 4.76007 15
213 2 -5.12546 -8.31517 4.03682 20
214 2 -5.07947 -6.70465 1.11121 20
215 2 -3.76253 -9.72807 1.81117 22
216 2 -4.6425 -8.25203 9.88537 13
217 2 -5.32871 -6.47017 6.95184 23
218 2 -3.71852 -9.18334 7.40763 16
219 2 -3.61413 -5.5834 3.99021 20
220 2 -5.44108 -2.9553 4.07105 21
221 2 -5.49553 -1.03303 1.0799 24
222 2 -3.94358 -3.69643 1.07734 25
223 2 -3.22521 -5.72848 9.42663 23
224 2 -5.29922 -2.84739 9.16298 23
225 2 -5.47722 -1.16508 6.45925 24
226 2 -3.58439 -4.04008 6.69373 21
227 2 -5.37138 -0.925527 12.2162 17
228 2 -3.1755 -3.36052 13.0706 11
229 2 -4.24336 -13.0883 2.67216 12
230 2 -2.25011 -12.5333 0.616733 13
231 2 -0.765346 -13.4013 3.07735 11
232 2 -1.98241 -8.63544 4.36892 21
233 2 -2.07247 -6.68176 1.23345 22
234 2 -0.491764 -8.90676 1.69029 21
235 2 -1.4495 -8.53833 9.4905 14
236 2 -1.81499 -6.59923 6.59107 23
237 2 -0.267049 -10.1185 7.226 16
238 2 -1.30404 -5.73068 11.5272 16
239 2 -0.185822 -5.7911 3.81774 22
240 2 -1.9428 -2.97765 3.78476 23
241 2 -2.05863 -1.10991 1.24996 23
242 2 -0.413465 -3.80776 1.14238 22
243 2 0.18321 -5.2279 9.48621 20
244 2 -1.97779 -2.81964 9.12683 24
245 2 -2.2049 -0.964519 6.61697 22
246 2 -0.119006 -3.6274 6.31431 23
247 2 -2.04633 -0.55995 11.7182 18
248 2 0.0508357 -3.14193 12.1688 18
249 1 -13.6287 -0.48637 -3.41063 11
250 1 -10.5257 -0.875146 -8.61425 14
251 1 -10.9105 4.68722 -7.46261 12
252 1 -10.3537 1.74882 -6.55791 18
253 1 -10.3607 -0.169691 -3.4519 20
254 1 -12.0368 2.76505 -4.49546 14
255 1 -10.8115 7.81489 -5.48171 9
256 1 -10.7235 5.5458 -4.20717 17
257 1 -7.22595 1.79967 -11.391 12
258 1 -7.47887 0.0387596 -8.64928 22
259 1 -8.84871 2.75211 -8.51428 17
260 1 -8.32668 4.74611 -5.69446 21
261 1 -6.81023 1.93295 -5.86292 22
262 1 -6.94783 0.0835644 -3.13703 24
263 1 -8.72071 2.79353 -3.28319 24
264 1 -7.49687 5.55978 -8.42097 16
265 1 -7.0991 7.89802 -6.04793 15
266 1 -6.89451 5.86907 -3.52983 20
267 1 -8.5932 8.8745 -3.55182 17
268 1 -7.14627 11.4452 -2.90384 14
269 1 -5.45333 4.83373 -11.0457 13
270 1 -3.59252 2.03621 -11.1107 17
271 1 -3.53967 -0.168086 -8.97839 21
272 1 -5.51225 3.10664 -8.80015 21
273 1 -5.06914 4.71692 -6.03784 21
274 1 -3.47901 1.82396 -6.33989 21
275 1 -3.60235 0.0683953 -3.94175 20
276 1 -5.26053 3.0091 -3.25111 24
277 1 -3.77045 7.90517 -10.8993 13
278 1 -4.05079 5.76965 -8.71293 20
279 1 -1.90037 8.67432 -8.52806 21
280 1 -4.90832 11.0324 -5.61028 12
281 1 -3.74006 7.76302 -5.96541 21
282 1 -3.83024 5.85263 -3.55568 22
283 1 -5.29847 9.09729 -3.40675 21
284 1 -3.67317 11.8747 -3.47354 12
285 1 -2.02621 -0.781665 -11.3752 18
286 1 -0.369634 7.64651 -11.2514 17
287 1 -0.346969 1.92217 -11.3096 17
288 1 -0.168278 -0.270853 -8.62077 22
289 1 -1.87646 3.08624 -8.73338 20
290 1 -2.01059 5.10148 -6.3055 20
291 1 -0.390331 2.01838 -5.88622 24
292 1 -0.511519 0.0900748 -3.62795 21
293 1 -2.29587 3.00394 -3.45798 22
294 1 1.25537 10.4662 -11.0177 13
295 1 -0.555138 5.73114 -9.03849 22
296 1 -2.0005 10.8266 -11.0057 10
297 1 -2.3946 11.4259 -7.17539 14
298 1 -0.0381675 7.62289 -6.10578 21
299 1 -0.406554 5.63435 -3.42507 23
300 1 -1.91435 8.84983 -4.32854 21
301 1 -0.160724 11.5614 -8.78666 12
302 1 -0.525406 11.7369 -4.96266 15
303 2 -12.2216 -3.35997 -0.903269 18
304 2 -13.8917 -0.685053 -1.32227 13
305 2 -10.5665 -0.100958 -5.42645 19
306 2 -11.3443 3.33027 -6.16187 16
307 2 -9.97699 1.05351 -8.47207 15
308 2 -10.7777 -0.24908 -1.16801 23
309 2 -12.1432 2.4352 -0.75918 18
310 2 -12.1509 4.48449 -3.47591 14
311 2 -10.3626 2.05056 -3.37967 21
312 2 -10.505 6.11958 -6.2216 14
313 2 -10.8217 5.59707 -0.827811 15
314 2 -10.6314 7.6192 -3.46002 12
315 2 -6.90101 -0.278773 -12.1618 13
316 2 -7.23405 -0.155092 -6.75843 24
317 2 -8.34319 2.86847 -6.5868 22
318 2 -9.23984 4.72632 -8.5194 12
319 2 -7.23546 2.0473 -9.45099 18
320 2 -6.91076 -0.0634512 -1.21535 22
321 2 -8.66292 2.73416 -1.19857 22
322 2 -8.63913 4.93727 -3.8383 22
323 2 -6.82986 1.80745 -3.83109 20
324 2 -7.14788 5.98742 -6.61893 19
325 2 -9.0508 8.81831 -5.28853 10
326 2 -3.83941 7.76622 -8.83803 14
327 2 -6.86013 6.17915 -1.62286 22
328 2 -8.91845 8.44396 -1.04326 18
329 2 -8.92799 10.7636 -2.87466 11
330 2 -6.79366 7.75251 -3.93503 21
331 2 -7.16622 10.9186 -0.858478 17
332 2 -3.73646 0.00285453 -10.9791 16
333 2 -5.6292 2.98185 -11.2648 12
334 2 -3.60086 0.051508 -6.96049 23
335 2 -5.4551 2.97991 -6.85454 22
336 2 -5.96536 5.18945 -9.25144 16
337 2 -3.81733 1.8033 -9.00228 18
338 2 -3.64108 -0.0857629 -1.51049 25
339 2 -5.55089 2.9823 -1.35675 24
340 2 -5.39708 4.77066 -4.08649 22
341 2 -3.72576 1.91257 -4.16201 23
342 2 -3.82889 5.87064 -11.5456 13
343 2 -3.99189 6.05185 -6.8312 21
344 2 -5.31853 9.14225 -5.93757 15
345 2 -2.24745 8.69074 -11.3328 13
346 2 -3.77788 5.74798 -1.31143 22
347 2 -5.16924 8.74205 -1.26992 22
348 2 -3.20233 12.0068 -5.52267 12
349 2 -3.70093 7.84804 -3.86038 20
350 2 -1.99881 10.7659 -8.93786 15
351 2 -3.51671 11.2137 -1.62099 18
352 2 -5.50098 10.8268 -3.83185 15
353 2 -0.328456 -0.0961146 -11.5827 16
354 2 -1.92888 3.13374 -11.0443 18
355 2 -0.315695 -0.109136 -6.371 19
356 2 -1.90009 3.10067 -6.69917 21
357 2 -2.31051 4.99035 -9.14772 23
358 2 -0.35546 1.97641 -9.13049 23
359 2 -0.617054 0.0974105 -1.20803 19
360 2 -2.16091 2.80956 -1.40221 22
361 2 -2.25751 4.86331 -3.78736 21
362 2 -0.375703 2.06495 -3.93093 22
363 2 -0.233871 5.69794 -11.8669 15
364 2 -0.416831 5.80837 -6.78025 22
365 2 -1.88214 8.47216 -6.27132 19
366 2 -0.361398 11.7205 -10.6478 8
367 2 -0.381097 7.83403 -9.37134 21
368 2 -0.258756 5.6138 -1.30482 22
369 2 -1.97404 8.62911 -1.12393 20
370 2 -1.84456 10.9276 -3.69284 18
371 2 -0.461349 7.54776 -4.00866 22
372 2 1.52157 10.3519 -9.05552 15
373 2 -0.18839 11.4987 -1.07722 16
374 2 3.16249 13.6374 1.46401 11
375 2 -0.370734 11.4492 -6.94424 16
376 1 -13.5686 1.61025 -1.78747 13
377 1 -14.1018 -1.12406 2.1901 11
378 1 -12.6647 0.48743 4.32418 14
379 1 -12.0225 4.23562 -1.68374 16
380 1 -10.152 1.64034 -0.63079 20
381 1 -10.5717 0.312519 1.97832 21
382 1 -12.2012 2.17485 1.38709 16
383 1 -12.3471 4.12585 4.10129 13
384 1 -10.1113 2.16544 5.28641 22
385 1 -11.7469 -2.86159 8.58191 10
386 1 -10.7914 -0.648987 6.88925 19
387 1 -8.92504 0.166638 9.56032 16
388 1 -10.5389 7.29022 -1.52237 15
389 1 -11.272 5.51074 1.01651 15
390 1 -10.9842 7.39253 3.59894 13
391 1 -10.5048 5.43753 6.63968 14
392 1 -8.52459 4.73846 -1.13529 20
393 1 -7.04349 1.94205 -0.371983 23
394 1 -7.01353 -0.0662343 2.03377 22
395 1 -8.85795 3.14869 1.96996 19
396 1 -8.59533 5.19134 4.22516 19
397 1 -6.92842 1.80249 4.6553 22
398 1 -6.97802 0.0239827 7.1987 23
399 1 -10.0522 2.7678 8.57857 10
400 1 -7.7264 3.63934 6.62565 20
401 1 -6.60808 2.11888 9.4108 19
402 1 -7.16411 0.448091 12.346 12
403 1 -8.95581 10.5986 -1.00692 11
404 1 -6.97439 8.14262 -1.01193 24
405 1 -6.70075 6.29318 1.70081 19
406 1 -9.16025 8.54631 1.12877 18
407 1 -9.81054 10.9443 3.13507 9
408 1 -7.30053 7.83502 4.6764 22
409 1 -7.13836 6.65728 7.29035 18
410 1 -9.20771 8.90878 6.10682 12
411 1 -4.21 8.34007 9.35037 16
412 1 -7.49213 10.8405 1.16541 15
413 1 -5.37642 4.82584 -0.550061 25
414 1 -3.86177 1.81597 -0.812573 22
415 1 -3.58715 -0.0334114 1.71649 23
416 1 -5.26519 2.95056 2.02788 22
417 1 -5.25543 4.99279 4.48967 23
418 1 -3.56094 1.59815 4.34161 22
419 1 -3.91876 -0.0256232 7.05622 22
420 1 -5.15328 2.99061 6.85782 19
421 1 -5.49056 5.25387 9.40522 18
422 1 -3.56351 2.01783 9.82916 23
423 1 -3.73376 0.404921 12.085 16
424 1 -5.45659 3.67054 11.8368 11
425 1 -4.91337 10.5843 -0.41413 19
426 1 -3.56836 7.62941 -0.868344 22
427 1 -3.75276 6.11118 2.1947 21
428 1 -5.46032 8.82619 2.02604 25
429 1 -6.31768 10.77 4.00073 16
430 1 -3.99951 8.29293 4.7445 22
431 1 -4.21059 6.30192 6.76167 23
432 1 -5.57932 9.47185 7.30466 16
433 1 -3.0998 11.0643 8.44696 11
434 1 -3.46008 6.27995 11.762 13
435 1 3.35714 13.8487 3.63925 11
436 1 -3.61968 11.9021 1.67003 11
437 1 -3.76413 11.7933 5.46954 15
438 1 -2.02611 4.80615 -0.8949 22
439 1 -0.64344 2.01064 -0.756311 23
440 1 -0.626227 0.164604 1.64107 21
441 1 -2.22752 3.18992 1.92972 21
442 1 -2.21015 5.19366 4.55726 22
443 1 -0.428116 1.91473 4.35547 22
444 1 -0.473494 0.143327 7.10034 23
445 1 -2.20606 3.08048 6.95599 22
446 1 -2.05659 5.06945 9.39867 23
447 1 -0.340737 2.02768 9.64107 23
448 1 -0.444496 0.222819 12.465 15
449 1 -2.03708 3.46344 12.256 15
450 1 -1.65899 10.6353 -1.70717 17
451 1 -0.0812603 7.66424 -0.793801 21
452 1 -0.640428 5.98043 1.90053 23
453 1 -2.18774 8.93139 0.937027 21
454 1 -1.77842 10.5779 3.5112 19
455 1 -0.56455 7.72778 4.50245 21
456 1 -0.623138 6.21988 6.77588 18
457 1 -2.13163 9.30239 6.85737 22
458 1 -0.899408 8.11145 9.6338 17
459 1 0.0366951 6.30341 12.1189 13
460 1 4.69525 14.9424 1.1791 8
461 1 -0.336027 11.7401 1.03879 14
462 1 6.21684 14.0366 4.28817 8
463 1 -0.5866 11.7393 6.37364 13
464 2 -13.509 -1.24575 4.14554 12
465 2 -12.5489 -0.199751 1.50158 18
466 2 -10.8369 -0.30143 4.82278 16
467 2 -11.7808 2.12139 4.58524 14
468 2 -12.2426 4.10246 1.82363 12
469 2 -10.3242 2.12435 1.58053 21
470 2 -8.39384 -0.407728 11.4976 11
471 2 -10.3802 0.680152 8.2531 15
472 2 -9.88256 -2.04679 9.81644 13
473 2 -10.7688 5.62282 4.52446 16
474 2 -10.8423 7.37977 1.70067 13
475 2 -10.0342 7.4539 6.83855 11
476 2 -7.31945 -0.30842 4.0148 22
477 2 -8.75183 3.242 4.10938 19
478 2 -7.9945 4.81621 0.926191 21
479 2 -7.16063 2.08178 1.58601 21
480 2 -6.89335 0.096778 9.1066 22
481 2 -7.95981 3.15892 8.61172 17
482 2 -9.96782 3.50651 6.68498 14
483 2 -6.82045 1.73837 6.56192 23
484 2 -6.29974 2.04108 11.5599 15
485 2 -6.93339 6.01337 3.92875 23
486 2 -9.7618 9.09996 4.27511 13
487 2 -9.48567 10.5747 1.06335 11
488 2 -7.21252 8.20717 1.43186 23
489 2 -8.23605 5.51955 6.25101 17
490 2 -7.00222 8.43552 6.43536 17
491 2 -7.95505 11.1186 3.22636 13
492 2 -3.95672 -0.140381 3.75947 24
493 2 -5.28887 2.5937 3.87422 22
494 2 -5.24004 4.97527 1.35711 22
495 2 -3.66598 1.86548 1.33654 22
496 2 -3.61841 0.0137557 9.28895 24
497 2 -5.07341 3.23717 8.85979 22
498 2 -5.34334 4.90476 6.41242 22
499 2 -3.64571 1.82574 6.49824 23
500 2 -4.75783 5.13248 10.9638 15
501 2 -3.71619 2.59427 11.6886 18
502 2 -3.75285 6.24229 4.26422 22
503 2 -5.55532 8.75816 3.81001 21
504 2 -5.2762 10.6389 1.58481 17
505 2 -3.90413 7.79754 1.37441 22
506 2 -5.33966 6.91061 8.52112 16
507 2 -4.7261 10.227 9.08841 11
508 2 -5.31175 10.9873 5.85789 14
509 2 -3.85313 8.63745 6.4975 21
510 2 -3.42958 11.8348 3.60547 14
511 2 -0.119141 11.3424 4.48966 19
512 2 -0.524011 0.00618712 3.77822 22
513 2 -2.16119 2.87991 4.02081 22
514 2 -2.1812 5.22277 1.5002 22
515 2 -0.497558 2.05756 1.1406 24
516 2 -0.469709 0.0418017 9.50797 20
517 2 -2.03967 3.17897 9.33153 19
518 2 -2.42721 5.01739 6.57162 22
519 2 -0.404771 1.98277 6.61012 20
520 2 -1.69222 5.29512 11.8963 15
521 2 -0.366656 2.15174 11.7406 17
522 2 -0.645741 5.81716 3.76221 21
523 2 -2.17441 8.81374 3.89256 22
524 2 -2.08427 10.8246 1.35749 18
525 2 -0.354847 8.00429 1.17819 21
526 2 0.978272 7.22781 10.8608 12
527 2 -1.79837 9.63484 8.82917 13
528 2 -2.35058 11.741 6.54732 13
529 2 -0.647833 8.07802 6.711 21
530 2 -2.72941 7.35585 10.3066 14
531 2 3.19637 12.4669 4.99455 13
532 2 8.09394 12.11 -0.29386 11
533 1 3.9796 -13.4791 -5.96634 7
534 1 1.44196 -6.15584 -11.2734 15
535 1 1.19201 -8.64231 -9.15702 14
536 1 1.55291 -6.81659 -6.08251 24
537 1 2.9557 -9.7678 -6.39081 20
538 1 2.91621 -11.5653 -4.3511 18
539 1 1.39643 -8.53548 -3.74325 21
540 1 -1.83323 -6.76528 -11.4331 10
541 1 1.49012 -0.362133 -11.8971 15
542 1 3.05246 -3.31322 -11.7664 17
543 1 3.15225 -5.55032 -8.99709 22
544 1 1.40453 -2.76405 -9.21826 22
545 1 1.17165 -1.12443 -5.9184 22
546 1 3.05695 -3.77874 -6.13343 24
547 1 2.98969 -5.78506 -3.75092 21
548 1 1.28154 -3.06187 -3.61416 23
549 1 5.18941 -6.59195 -11.2511 12
550 1 4.51734 -8.82156 -8.90603 12
551 1 4.45143 -7.07148 -6.33174 20
552 1 6.4538 -9.95081 -6.12532 12
553 1 5.97336 -11.8326 -3.39149 13
554 1 4.81579 -8.86271 -3.92347 21
555 1 4.9234 -0.566691 -12.3196 14
556 1 6.20485 -3.61639 -11.3365 17
557 1 6.65356 -5.63876 -8.70182 20
558 1 4.43958 -2.37855 -8.98964 22
559 1 4.64085 -0.676383 -6.41784 21
560 1 6.02661 -3.8008 -6.17274 23
561 1 5.98519 -5.89021 -3.56418 23
562 1 4.32634 -2.46119 -3.38503 23
563 1 7.99498 -6.76996 -5.81583 18
564 1 10.2211 -8.37678 -5.62991 9
565 1 8.13505 -1.27598 -11.4429 12
566 1 8.55816 -5.1185 -10.9943 9
567 1 7.93488 -2.72456 -8.82835 19
568 1 7.9918 -0.866592 -6.37404 20
569 1 9.43118 -4.53931 -7.0052 15
570 1 9.51068 -5.94333 -4.14147 20
571 1 7.58941 -2.76324 -3.95093 21
572 1 10.5807 -8.5114 -2.25026 13
573 1 11.2103 -1.26974 -6.60477 13
574 1 11.044 -3.0884 -4.16277 13
575 2 2.96114 -11.9012 -1.06168 19
576 2 1.43734 -12.4913 -3.77221 16
577 2 2.82816 -9.21882 -8.22435 15
578 2 1.39629 -8.65207 -6.04181 22
579 2 1.36127 -6.55845 -9.44773 18
580 2 5.46601 -7.34311 -9.5025 12
581 2 -0.969581 -11.7949 -6.22218 18
582 2 1.0187 -9.10978 -0.784388 21
583 2 1.28093 -6.73175 -3.81568 18
584 2 3.05129 -9.58046 -3.50116 21
585 2 3.45581 -5.66155 -11.2681 12
586 2 1.57866 -2.51183 -12.2569 15
587 2 3.46428 -5.60581 -7.04607 21
588 2 1.34249 -3.02078 -6.95453 24
589 2 1.62011 -0.775423 -9.62378 23
590 2 2.98328 -3.60579 -9.85227 22
591 2 3.02232 -5.58106 -1.60182 21
592 2 1.14526 -2.83111 -1.40107 22
593 2 0.948312 -1.06899 -3.97419 22
594 2 2.94683 -3.81371 -4.09016 22
595 2 4.65526 -12.7151 -4.47976 13
596 2 4.75091 -8.91678 -6.4612 18
597 2 4.82196 -2.43126 -12.0585 15
598 2 5.69915 -11.7769 -1.43517 13
599 2 4.46075 -8.56245 -1.05358 21
600 2 4.5377 -7.05868 -4.39338 26
601 2 6.22866 -10.1823 -4.10076 16
602 2 8.24784 -3.19079 -11.2944 11
603 2 6.39994 -5.84139 -6.6611 19
604 2 4.49891 -2.60272 -6.79893 24
605 2 4.79086 -0.518455 -8.94274 19
606 2 6.09723 -3.41697 -9.21421 22
607 2 6.23142 -5.85339 -1.66056 20
608 2 4.45954 -2.73688 -1.51221 22
609 2 4.40373 -0.821635 -4.2198 24
610 2 6.22001 -3.91138 -4.22707 22
611 2 7.98206 -8.74385 -5.97841 13
612 2 6.81304 -5.37113 -11.4691 11
613 2 7.95708 -8.45498 -1.32101 19
614 2 7.76894 -6.79509 -3.80965 20
615 2 9.6069 -9.1676 -3.72916 12
616 2 9.78857 -6.37398 -6.4657 13
617 2 7.74103 -2.83805 -6.67083 20
618 2 8.36887 -0.868452 -9.63358 17
619 2 8.62983 -4.77835 -8.94836 15
620 2 9.44777 -5.46086 -0.380722 24
621 2 7.52482 -2.90276 -1.68505 21
622 2 7.82899 -0.585437 -4.27121 20
623 2 9.30375 -3.68157 -3.58349 20
624 2 11.0769 -8.72298 -0.590264 13
625 2 10.4648 -6.54005 -2.65769 17
626 2 10.879 -3.13696 -6.12168 13
627 2 12.5825 -5.2819 -0.367178 14
628 2 10.6326 -2.79335 -0.780198 20
629 2 12.854 -0.112621 -6.49996 11
630 2 12.4212 -2.38897 -3.02881 13
631 1 1.11408 -12.3099 -1.87301 15
632 1 0.803806 -13.6017 3.92274 11
633 1 1.14961 -6.42636 -1.03318 22
634 1 3.01003 -9.89281 -1.6025 21
635 1 -0.520739 -12.7483 1.26339 15
636 1 1.59844 -8.55959 0.814443 19
637 1 1.24233 -6.74264 4.7054 24
638 1 2.82289 -9.47468 3.51835 20
639 1 2.87507 -11.8072 6.05558 13
640 1 1.59883 -8.46347 6.73999 18
641 1 1.61651 -6.48898 9.80393 19
642 1 4.60569 -7.15962 9.97586 16
643 1 0.972554 -0.565047 -0.830849 21
644 1 2.94431 -3.61487 -0.980644 23
645 1 3.20749 -5.5798 1.81989 22
646 1 1.13295 -2.58892 1.7315 22
647 1 1.04219 -0.647312 4.54047 24
648 1 2.79397 -4.01364 4.6794 24
649 1 3.26132 -5.64779 7.18244 23
650 1 1.58263 -2.78988 6.9859 21
651 1 1.1503 -0.768753 9.68978 23
652 1 2.79629 -3.98317 10.0373 23
653 1 3.35857 -5.75755 12.4229 12
654 1 1.77654 -2.56224 12.8301 14
655 1 4.5693 -12.8534 -0.513828 13
656 1 4.20457 -12.7579 2.926 13
657 1 4.57621 -6.53044 -0.771294 23
658 1 5.81672 -9.96092 -1.0747 18
659 1 6.71954 -11.486 2.00555 13
660 1 4.89958 -8.74103 1.58404 21
661 1 4.51647 -6.69894 4.38519 22
662 1 5.62474 -10.3779 4.6392 17
663 1 4.50518 -8.78926 6.40184 16
664 1 7.01923 -5.72456 11.684 11
665 1 4.37954 -0.790589 -0.966436 24
666 1 5.88261 -3.79647 -1.07921 22
667 1 6.46776 -5.61137 1.79932 21
668 1 4.41713 -2.62123 1.87423 24
669 1 4.46653 -0.917759 4.62189 23
670 1 5.90355 -3.86627 4.46492 21
671 1 6.14208 -5.69531 6.92735 20
672 1 4.70324 -2.59025 6.95532 21
673 1 4.28727 -0.830546 9.44097 19
674 1 6.24514 -3.96794 9.24344 21
675 1 4.84738 -2.9077 12.4308 13
676 1 7.91773 -6.46297 -1.15324 20
677 1 7.67193 -8.92678 -3.1596 21
678 1 8.29349 -8.72753 0.610669 18
679 1 7.74787 -6.72767 3.85682 21
680 1 9.01005 -10.0706 3.51895 13
681 1 8.14817 -9.01537 6.326 12
682 1 7.77993 -7.38515 9.07839 13
683 1 7.71715 -0.845572 -0.912696 24
684 1 9.21938 -3.87287 -1.55041 22
685 1 9.71867 -5.74838 1.58331 22
686 1 7.65285 -2.79335 1.96253 24
687 1 7.84122 -1.0348 4.76328 21
688 1 9.56348 -3.98635 3.84231 20
689 1 9.45178 -5.75546 6.31668 16
690 1 8.19704 -2.89907 7.08291 20
691 1 8.37642 -1.38409 9.99848 13
692 1 9.40631 -4.54614 9.31202 13
693 1 11.3216 -6.44586 -0.996832 15
694 1 11.2203 -8.68868 1.2239 12
695 1 10.8481 -7.40237 3.81727 13
696 1 11.0169 -1.00606 -0.464331 17
697 1 12.5196 -3.48671 -1.31447 15
698 1 12.9106 -5.69485 1.50852 11
699 1 11.067 -2.98313 1.31379 18
700 1 12.9365 -0.318727 5.65368 11
701 1 12.9753 -3.19312 3.75079 11
702 1 11.0945 -3.27449 6.65838 14
703 2 2.18831 -12.9823 2.63162 14
704 2 1.22263 -12.5795 5.48759 11
705 2 4.39255 -12.0504 4.7149 14
706 2 1.37185 -8.62722 4.44016 21
707 2 1.50077 -6.62763 1.02931 19
708 2 3.07124 -9.60469 1.60022 20
709 2 1.74085 -8.34888 8.81185 15
710 2 1.4681 -6.15385 6.78553 19
711 2 2.89914 -9.91476 6.22571 16
712 2 1.58754 -6.50696 11.8212 13
713 2 2.7804 -5.71226 3.79676 22
714 2 1.40722 -2.91662 3.76816 23
715 2 1.3622 -0.665845 1.07393 24
716 2 2.87932 -3.61886 1.02972 24
717 2 3.33506 -5.75597 9.38371 19
718 2 1.58544 -2.56226 9.19556 23
719 2 1.11508 -1.00112 6.4194 24
720 2 3.27473 -3.94864 6.5899 24
721 2 1.37213 -0.709715 12.5656 15
722 2 5.93145 -4.23349 11.2106 16
723 2 5.15523 -12.1798 1.30536 14
724 2 7.07773 -10.7197 3.51827 14
725 2 4.66638 -8.65669 4.1369 18
726 2 4.7086 -6.78782 1.55416 20
727 2 6.56739 -9.77171 0.874838 17
728 2 6.22634 -6.15584 9.00045 16
729 2 4.63014 -6.93756 6.30758 22
730 2 6.29952 -9.56088 6.40041 14
731 2 5.09684 -6.48354 11.8459 13
732 2 5.92122 -5.59793 3.71151 21
733 2 4.3437 -2.62419 3.80047 23
734 2 4.54976 -0.797093 1.06185 24
735 2 6.00773 -3.58685 1.16417 23
736 2 8.4056 -5.81953 10.3131 10
737 2 4.34795 -2.64763 8.99923 22
738 2 4.68001 -0.5382 6.55379 21
739 2 6.14961 -3.8049 6.31689 23
740 2 3.13669 -3.79473 11.937 17
741 2 4.68257 -1.08117 12.0905 14
742 2 9.13965 -8.45709 4.63926 12
743 2 8.0063 -6.86523 1.65605 22
744 2 9.67305 -9.63364 1.74232 13
745 2 8.19763 -7.10537 6.99433 14
746 2 9.46724 -5.89795 4.23664 18
747 2 7.45591 -2.73916 3.83795 22
748 2 7.71657 -0.887863 1.1255 24
749 2 9.27429 -3.81385 1.99678 18
750 2 9.99501 -4.51708 7.52363 12
751 2 8.22872 -3.11184 9.36944 15
752 2 7.77053 -0.86385 6.74718 21
753 2 9.56761 -3.08871 5.56891 17
754 2 8.18292 -0.203224 11.3682 10
755 2 11.7793 -7.03537 2.05005 13
756 2 11.9823 -3.9348 5.09799 12
757 2 10.9078 -0.948826 1.61244 17
758 2 12.4884 -3.87609 2.08385 14
759 2 11.5921 -0.817267 6.71362 13
760 1 6.68464 2.09501 -11.3169 13
761 1 -2.27739 4.87743 -11.4714 16
762 1 1.42716 4.60049 -11.5529 17
763 1 3.38501 1.97155 -11.7844 17
764 1 3.06758 0.0553269 -8.75617 22
765 1 1.53397 3.15807 -9.26586 21
766 1 1.23841 5.00867 -6.09124 22
767 1 3.04498 2.04503 -6.12692 23
768 1 2.89805 0.24454 -3.64479 23
769 1 1.35023 3.07816 -3.30322 22
770 1 3.03806 7.56949 -11.6863 13
771 1 3.14692 5.76314 -8.88052 20
772 1 1.57012 8.37352 -9.05081 19
773 1 1.42437 10.6181 -7.13478 16
774 1 3.15694 7.85494 -6.2479 20
775 1 2.80335 5.73955 -3.64828 23
776 1 1.24391 8.72481 -3.43622 24
777 1 2.69779 11.7206 -3.989 16
778 1 4.18212 4.56451 -11.6173 15
779 1 8.13942 3.10728 -8.54611 19
780 1 6.54372 0.089926 -8.8766 24
781 1 5.00094 3.05806 -8.79296 22
782 1 4.63077 5.22959 -5.98369 22
783 1 6.47156 1.95756 -6.17876 22
784 1 5.98923 0.0706852 -3.96139 21
785 1 4.61997 3.08612 -3.35738 23
786 1 6.7292 6.10474 -9.07775 16
787 1 4.93789 8.4744 -8.88883 16
788 1 4.75443 10.9806 -6.09311 14
789 1 6.56013 8.04839 -5.74947 23
790 1 6.72678 5.90509 -3.61639 22
791 1 4.5765 8.65895 -3.38252 22
792 1 5.54593 12.6545 -3.90914 15
793 1 9.47538 0.309839 -8.55625 15
794 1 10.0598 6.05979 -8.87173 11
795 1 7.79143 4.68291 -5.91405 20
796 1 9.68717 2.04509 -5.68161 21
797 1 9.5082 -0.132765 -3.25683 24
798 1 8.26538 2.98771 -3.44111 22
799 1 8.35054 8.58327 -8.08485 12
800 1 10.4719 7.7854 -5.55282 10
801 1 9.87448 5.6172 -3.33394 14
802 1 7.7181 10.9144 -5.21798 13
803 1 11.634 2.74886 -4.0559 17
804 1 11.153 3.09943 -7.73103 13
805 1 13.2441 -0.759809 -3.21981 12
806 1 13.155 1.68602 -5.89056 9
807 2 3.21031 0.307655 -12.1213 16
808 2 1.36 2.54098 -11.3676 17
809 2 2.84766 -0.213883 -6.41773 21
810 2 1.41945 3.06401 -5.9421 19
811 2 1.21613 5.2854 -9.63544 24
812 2 3.32338 2.3629 -8.93682 21
813 2 2.95785 0.294843 -1.45888 23
814 2 1.33522 2.81413 -1.42032 25
815 2 1.11514 4.99274 -4.14604 22
816 2 3.26783 1.96737 -4.06812 21
817 2 3.1817 5.84508 -12.2015 12
818 2 3.00182 5.91873 -6.93419 23
819 2 1.49643 8.32809 -7.07407 23
820 2 1.41461 8.51097 -11.7062 13
821 2 3.54217 7.53565 -9.71844 18
822 2 2.85868 6.05517 -1.88421 24
823 2 1.31132 9.17506 -1.20609 22
824 2 0.939732 10.814 -3.99932 19
825 2 2.86858 7.79801 -4.31194 23
826 2 2.7971 11.1883 -5.81893 17
827 2 3.4373 11.5023 -1.00533 20
828 2 5.41705 14.4047 -0.730055 13
829 2 3.64185 13.5968 -3.60948 13
830 2 6.60602 0.25341 -11.8584 13
831 2 5.12948 2.80839 -11.9363 12
832 2 6.39623 0.0272077 -6.86734 25
833 2 5.0455 3.31867 -6.44529 19
834 2 4.93679 4.82523 -9.62296 22
835 2 6.7973 2.05452 -9.3886 17
836 2 6.18305 0.134995 -1.72657 25
837 2 4.73815 3.28154 -1.44672 22
838 2 4.68393 4.92961 -4.03405 22
839 2 6.34452 2.00734 -4.11564 24
840 2 6.30791 5.9783 -6.38623 20
841 2 4.92352 9.11173 -6.89957 19
842 2 6.62489 7.91694 -8.68047 12
843 2 6.31998 6.00699 -1.41623 22
844 2 4.84176 8.64046 -1.43729 19
845 2 6.2254 11.8851 -5.28537 12
846 2 6.53199 7.82164 -3.89241 20
847 2 6.44711 12.4203 -2.25756 16
848 2 9.70715 0.114277 -6.59559 20
849 2 8.07402 2.89634 -6.51046 21
850 2 8.39603 5.02773 -8.63336 15
851 2 9.90356 2.12043 -8.77473 13
852 2 9.43633 0.15698 -1.18291 18
853 2 7.97027 3.10653 -1.41606 21
854 2 8.30635 4.82385 -4.16715 22
855 2 9.6847 1.87262 -3.78786 17
856 2 9.75845 7.26897 -7.33576 12
857 2 8.02239 9.37595 -6.40012 14
858 2 9.91836 5.33578 -0.690067 18
859 2 9.4258 7.60332 2.04027 15
860 2 8.50979 10.311 -3.6297 14
861 2 9.55544 7.42456 -3.7856 15
862 2 11.2747 4.7674 -8.43813 7