ITEM: TIMESTEP
24000
ITEM: NUMBER OF ATOMS
1000
ITEM: BOX BOUNDS pp pp pp
-30.0 30.0
-30.0 30.0
-30.0 30.0
ITEM: ATOMS id type x y z Coordination
1 1 -1.23906 -11.844 -2.04255 15
2 1 2.44018 -13.549 10.8671 17
3 1 -3.57968 3.95322 8.91492 17
4 1 -6.63076 -2.39442 -1.56614 20
5 1 4.15108 -13.5385 18.3083 9
6 1 -2.61068 -6.50159 -7.51206 11
7 1 -3.83033 -10.086 4.85828 20
8 1 14.323 -7.30062 11.8298 9
9 1 3.69908 -1.86842 20.1268 12
10 1 3.87213 2.47926 -3.15136 21
11 1 4.09053 -5.93369 18.8728 19
12 1 -8.52269 -4.34581 4.47007 14
13 1 -0.471025 -4.25341 -7.92109 12
14 1 2.59315 -3.62387 10.7385 18
15 1 9.31483 5.27543 14.7354 14
16 1 0.465673 -8.44363 13.3329 17
17 1 -9.07416 -10.0356 8.00131 9
18 1 -9.34588 1.02139 1.41396 12
19 1 3.83598 9.57163 5.22417 16
20 1 -0.654784 -5.30096 -5.44232 18
21 1 7.32345 -6.34126 -7.38214 12
22 1 1.38999 -8.39165 18.4536 19
23 1 -8.02236 3.2679 9.98404 11
24 1 2.36383 6.2159 6.9396 18
25 1 4.83018 -14.4503 8.46536 14
26 1 10.5942 -10.3917 2.44432 13
27 1 12.9828 -3.14322 8.66864 21
28 1 -2.11698 4.82235 1.79395 20
29 1 5.84159 5.7251 0.699146 17
30 1 5.4978 -0.597062 18.3629 16
31 1 9.91246 -6.78671 17.9185 11
32 1 -10.0569 -7.59276 5.76425 12
33 1 14.5521 6.07061 13.4718 9
34 1 9.34637 -7.32206 0.909526 19
35 1 4.83295 -2.79078 16.625 20
36 1 -5.78277 -5.10349 3.29579 19
37 1 -11.0044 -6.73183 -1.48353 7
38 1 1.56054 10.0238 3.52354 12
39 1 1.70589 7.13081 -5.67168 8
40 1 7.26622 -0.493104 -8.1602 12
41 1 10.7899 -6.53536 12.1947 14
42 1 4.80687 -8.5129 18.0827 13
43 1 -0.790601 5.84237 16.121 14
44 1 -1.55891 -3.8571 16.5516 17
45 1 -4.41052 -1.54195 19.3923 11
46 1 9.78557 -11.9543 5.25695 12
47 1 10.432 -5.3419 -1.93904 16
48 1 3.80039 10.5242 11.0666 11
49 1 -3.72953 0.51902 -4.66494 15
50 1 3.11471 8.46709 8.7313 19
51 1 -3.84206 -11.2323 16.5643 14
52 1 3.20449 -7.24028 0.275228 21
53 1 7.31207 -10.8571 -2.74424 14
54 1 -1.4407 6.00077 12.9469 18
55 1 -8.7673 -7.58584 8.98551 14
56 1 10.127 -4.53136 9.1596 16
57 1 -3.9327 -12.4752 -3.61823 8
58 1 11.6078 -9.12612 10.6773 13
59 1 -4.66259 5.1541 12.3425 22
60 1 6.13229 -1.00858 -5.21947 18
61 1 9.19518 -14.0832 9.27176 8
62 1 -0.718852 -14.7541 10.4049 15
63 1 6.75913 5.5365 3.85177 20
64 1 8.45623 2.30679 7.60117 18
65 1 6.44651 10.1256 -1.67564 9
66 1 -3.02922 -8.13379 -5.04665 14
67 1 3.37054 7.32115 2.60332 20
68 1 15.9451 -1.58959 5.04825 10
69 1 12.5005 0.891473 -2.23789 10
70 1 9.79732 -8.37005 15.7443 16
71 1 -1.76388 3.76726 -0.618437 19
72 1 11.1117 9.5242 4.22019 15
73 1 12.3033 7.12707 6.35085 14
74 1 1.3614 7.80925 5.47465 18
75 1 3.63866 -7.67772 -6.15115 16
76 1 -10.4818 -0.827685 -0.788528 11
77 1 -5.10594 8.03429 10.2106 12
78 1 -1.16276 8.16052 2.77662 13
79 1 6.81367 -6.81364 18.531 18
80 1 -3.59863 -5.25213 14.9969 13
81 1 -3.8672 -13.9434 12.3949 10
82 1 5.72974 7.75349 6.72386 18
83 1 12.8826 5.83357 0.364736 10
84 1 2.19166 -16.0039 10.6376 12
85 1 -9.35054 -0.0388692 4.54584 11
86 1 1.16955 0.612179 16.982 16
87 1 -3.06651 0.323403 4.27855 18
88 1 -1.69311 -1.04374 17.9466 14
89 1 -5.85672 -11.3161 13.2338 13
90 1 5.82552 -6.6071 -4.40957 19
91 1 2.5514 4.5503 12.6488 21
92 1 -2.83936 -2.35902 13.4738 19
93 1 -3.18713 -2.75058 3.74445 16
94 1 -2.32515 -13.8476 3.299 15
95 1 9.18896 4.90908 0.154071 16
96 1 6.7972 -3.83358 19.31 15
97 1 -1.36184 6.10764 -4.07005 13
98 1 -7.37093 0.25654 -4.37849 10
99 1 4.57147 7.38308 -2.34457 18
100 1 8.89856 -0.827514 19.2638 8
101 1 0.690658 7.05425 -2.45417 15
102 1 5.61368 5.11085 -4.57405 19
103 1 0.772502 -6.4431 15.8384 14
104 1 -4.18962 1.58645 17.7208 15
105 1 -6.10487 -9.21316 -3.60434 11
106 1 7.40586 7.87404 -4.22706 11
107 1 3.1475 11.5048 8.34694 13
108 1 -6.45981 -5.03082 9.52252 18
109 1 10.6381 2.81886 16.3815 11
110 1 10.8753 -1.86012 -2.36458 13
111 1 -0.626715 3.33961 14.2427 20
112 1 -3.99055 -1.41107 16.2977 20
113 1 -5.80075 -10.1674 7.51249 17
114 1 4.21768 -6.29079 15.8641 23
115 1 6.76204 -10.6819 3.98561 19
116 1 1.2868 -1.54761 -8.01735 10
117 1 11.8528 -3.23452 0.189797 16
118 1 -7.48327 -8.31645 14.2916 9
119 1 -7.73815 -7.70853 -0.746567 13
120 1 -0.85091 -11.1225 -4.79931 12
121 1 -0.831364 -13.2756 16.557 9
122 1 -5.77654 -6.59528 -5.92899 9
123 1 -6.39902 0.0115287 -0.382474 15
124 1 14.2165 1.71865 13.1068 16
125 1 11.008 -10.6363 13.5493 13
126 1 4.23253 -3.4103 13.6982 21
127 1 5.0609 1.98429 13.5149 21
128 1 -4.19159 -15.178 9.49251 13
129 1 6.60956 8.22324 12.2742 13
130 1 -8.80149 -1.79471 -3.29981 12
131 1 -5.63229 -11.0796 -1.34975 9
132 1 -3.4726 -10.056 10.3865 18
133 1 15.3065 -0.496573 10.2167 16
134 1 -1.42952 -9.83036 18.8999 17
135 1 -4.06483 -12.9669 6.5605 16
136 1 -1.96452 -4.69362 12.2019 14
137 1 5.02235 -8.57912 11.6622 20
138 1 -9.82679 -2.34991 5.83537 13
139 1 9.16843 6.94961 6.4304 17
140 1 -4.33186 3.40349 2.35206 21
141 1 3.53657 3.93865 -6.58462 15
142 1 -10.5293 -1.20206 12.4208 10
143 1 2.03616 5.69195 14.7849 13
144 1 14.0257 -5.7103 9.26069 15
145 1 -6.88557 3.15111 16.1071 12
146 1 -3.80703 -8.18503 19.1273 15
147 1 -3.95782 1.89657 14.7271 20
148 1 6.31804 -3.42401 -8.66245 11
149 1 4.09655 -10.9628 7.20653 21
150 1 12.2786 -6.74608 0.732183 9
151 1 -9.03159 -1.95281 9.13235 15
152 1 6.5881 -12.2841 9.54573 16
153 1 -0.175139 3.64426 10.5121 22
154 1 -5.91393 0.140961 15.7318 14
155 1 3.72738 -15.0713 13.5892 13
156 1 1.6978 1.61221 13.786 22
157 1 -9.06751 -4.78305 -1.68619 15
158 1 -3.85026 8.7214 13.1384 12
159 1 -6.47704 1.63037 5.30722 18
160 1 -8.26762 -4.81868 7.29665 19
161 1 -3.74757 -7.0172 -1.66247 19
162 1 0.846653 6.78448 10.3933 16
163 1 7.06038 -1.90607 15.5051 19
164 1 8.65351 -9.71903 18.6521 9
165 1 3.38887 -9.24502 14.0438 18
166 1 8.87106 -10.6489 0.0631873 17
167 1 -6.65202 -5.82345 -3.49644 17
168 1 -6.40032 -7.99297 2.93758 16
169 1 -2.94401 -12.8623 10.022 17
170 1 13.9235 3.11509 -0.156256 11
171 1 -3.27805 3.56609 -3.9775 15
172 1 -6.7951 3.21281 12.9649 17
173 1 -2.99851 2.87034 12.3466 18
174 1 -5.06573 2.30176 10.6312 17
175 1 14.7203 -4.6798 6.45645 10
176 1 8.7186 -3.0694 -3.81592 19
177 1 4.32331 -9.12088 2.36001 18
178 1 -3.18736 9.93169 8.12244 8
179 1 -8.86176 2.16414 -1.53612 11
180 1 3.63866 -13.7259 5.50757 12
181 1 15.9168 3.22286 14.4019 9
182 1 -8.12766 -2.85013 1.12839 15
183 1 -1.54376 -13.8474 7.91192 19
184 1 0.0496277 10.5451 6.57905 9
185 1 -2.28539 5.59997 4.5088 15
186 1 4.63023 -12.5259 -3.08681 12
187 1 5.0639 -12.1763 12.5122 16
188 1 0.833315 -14.1884 2.78169 12
189 1 -4.40799 2.77252 -0.64418 20
190 1 2.11473 -16.0807 7.40573 11
191 1 0.0345609 -10.2063 15.497 23
192 1 -7.09269 -2.01709 14.5669 16
193 1 7.48869 -8.16023 2.15119 19
194 1 -7.37842 0.236468 10.7838 19
195 1 2.6217 -10.2946 16.5462 15
196 1 -0.0728546 -9.37913 21.1371 9
197 1 4.68916 -7.80951 5.11571 20
198 1 8.05625 -13.1211 12.8262 11
199 1 6.04055 12.129 8.15167 8
200 1 1.57377 -11.8734 19.043 11
201 1 12.0017 4.55418 12.1381 19
202 1 10.6482 -1.73478 3.28279 18
203 1 2.78728 -1.02341 -5.52101 19
204 1 13.25 -4.86583 13.7003 15
205 1 -0.931855 -6.40836 19.629 15
206 1 6.29742 11.4381 5.48346 13
207 1 11.9852 -0.235641 17.3659 9
208 1 2.82831 -12.3695 2.90002 18
209 1 8.84413 9.10627 15.1755 5
210 1 1.98105 -3.81308 19.4303 16
211 1 -0.595049 -7.96773 8.18053 19
212 1 -7.12743 -3.37895 -5.04917 9
213 1 -1.55966 0.290989 12.0354 22
214 1 -3.27955 -12.6588 -0.201144 11
215 1 -3.62533 -6.52033 5.14565 18
216 1 11.9106 2.36041 7.73528 19
217 1 10.0182 2.43639 10.3445 18
218 1 4.72243 -0.272422 -2.82685 21
219 1 0.820511 3.37088 -2.61017 19
220 1 4.47039 3.75544 16.8841 12
221 1 -5.09134 -7.25852 11.6139 14
222 1 5.77682 12.5921 1.7667 7
223 1 -1.37875 -8.86964 -0.0526336 17
224 1 2.79628 -5.07203 -8.70299 13
225 1 10.9239 3.93336 -2.1995 13
226 1 6.41169 2.78783 1.58643 19
227 1 1.22155 -0.0845366 -3.23643 18
228 1 6.83551 -9.13941 9.50738 18
229 1 -1.59098 1.34501 -2.92452 23
230 1 8.17876 4.76999 9.38808 18
231 1 6.33838 -5.97259 7.81656 23
232 1 0.636564 -7.31896 -7.72721 12
233 1 -1.28366 -11.4205 1.81567 19
234 1 3.08818 -0.99115 14.8204 17
235 1 -0.657795 2.72568 3.69105 20
236 1 -1.66451 3.41761 -6.01106 13
237 1 -8.08746 -9.75376 11.4598 11
238 1 11.467 -5.89753 6.49971 15
239 1 -1.77722 -3.97906 -0.354933 20
240 1 3.42954 -14.2788 0.138972 12
241 1 8.82135 2.2031 -6.17212 10
242 1 11.735 -4.97733 3.22172 13
243 1 -7.91114 0.0841633 7.49591 15
244 1 1.52588 3.13141 5.14054 19
245 1 2.39483 5.14843 -3.73691 18
246 1 15.4202 4.37697 2.78597 9
247 1 0.728836 -12.646 -0.117323 16
248 1 9.04106 -3.45135 -6.94838 11
249 1 15.6916 -4.20285 11.8302 10
250 1 3.44671 -11.0861 9.88752 20
251 1 -8.30021 0.89778 13.7274 15
252 1 -4.05703 -4.01912 -2.16072 18
253 1 1.77768 -3.89592 16.1591 14
254 1 7.23423 4.76898 -6.95964 8
255 1 0.563317 5.45662 3.57422 20
256 1 7.52658 9.10614 4.49216 22
257 1 0.0229211 -1.30331 21.0775 8
258 1 6.7362 -13.692 -0.49201 12
259 1 9.03182 -6.25447 -4.85006 16
260 1 -11.492 -4.28046 4.41038 9
261 1 -2.09405 1.53789 1.35615 20
262 1 -7.18893 -6.99759 16.9057 10
263 1 12.9082 7.26171 3.16145 14
264 1 4.25203 -8.16901 -2.21136 19
265 1 5.49369 -13.5114 15.5027 13
266 1 6.42325 -0.505436 -0.0314713 18
267 1 -6.30483 6.09735 9.16898 13
268 1 9.11472 -6.81877 7.80317 17
269 1 7.29709 2.81312 15.2818 16
270 1 0.922214 -3.4469 -2.39243 21
271 1 6.75102 2.33594 -2.56915 16
272 1 0.147204 -8.1774 -5.15188 19
273 1 -6.9265 -10.6713 4.75559 10
274 1 7.84773 2.27519 4.34534 21
275 1 10.3098 -7.70036 3.82147 16
276 1 6.71471 -12.1832 6.78971 14
277 1 6.28396 9.69349 9.34521 16
278 1 -7.45087 6.32335 12.0357 11
279 1 11.2707 8.53816 0.996361 11
280 1 3.01303 1.45361 19.3222 10
281 1 9.87072 -1.9807 14.5058 20
282 1 -2.97848 -2.81336 -5.31369 10
283 1 13.539 2.33632 9.98679 21
284 1 14.0116 -1.82024 11.8109 17
285 1 -0.255413 8.27078 13.4004 10
286 1 8.98845 3.45206 12.6296 20
287 1 2.76308 7.32601 -0.364933 17
288 1 2.06264 -7.48725 3.2852 20
289 1 -4.56229 5.21818 -1.59896 12
290 1 -0.98779 -0.324523 -6.1504 17
291 1 -6.38472 3.0729 -3.27492 11
292 1 16.8522 3.07464 10.7243 10
293 1 0.974747 -14.0691 13.3656 14
294 1 7.55114 5.09911 -2.31581 18
295 1 15.9913 -2.61792 8.13651 14
296 1 5.46857 4.83421 11.5579 20
297 1 10.9302 -4.49717 16.1572 12
298 1 -1.14273 2.27597 17.5593 16
299 1 -6.05163 -11.9879 10.311 12
300 1 -6.02341 0.936893 2.39853 15
301 1 12.9505 3.63204 15.0092 14
302 1 -3.25518 6.56294 7.12204 12
303 1 10.9607 -2.88142 11.6573 18
304 1 5.76432 6.82246 9.35552 19
305 1 -7.58992 -2.46017 12.2365 21
306 1 8.96657 -3.4321 -1.04502 17
307 1 1.19489 -9.20142 -1.99636 20
308 1 10.8134 6.76016 13.1257 12
309 1 7.04567 1.96057 10.0595 21
310 1 6.54804 -8.12052 15.1578 18
311 1 -0.959836 -3.86117 20.4157 14
312 1 -6.51724 -3.40585 17.257 15
313 1 -1.66795 -1.93298 -2.65773 20
314 1 13.15 4.30357 4.77234 18
315 1 4.02407 10.2016 -0.101041 11
316 1 -4.64096 -11.2467 2.25067 14
317 1 5.14042 2.35165 4.86254 24
318 1 -1.77947 1.60083 9.23945 21
319 1 9.93504 4.58804 4.70067 16
320 1 6.53137 -0.631872 9.354 17
321 1 9.28412 7.67179 9.96507 11
322 1 2.25209 -10.0576 -4.5941 15
323 1 4.26141 0.944847 16.3703 19
324 1 6.98513 -5.67794 -2.41357 20
325 1 9.00455 10.6525 6.61063 12
326 1 -9.64193 -4.54545 10.6323 12
327 1 8.56138 -12.9836 2.22018 12
328 1 8.59801 7.81246 -1.40263 12
329 1 7.65396 -9.57543 6.69179 18
330 1 2.67688 4.4561 9.2844 16
331 1 2.72445 -4.61606 -5.80901 20
332 1 9.98363 -8.41131 -1.93347 12
333 1 -3.12261 8.42007 15.9013 9
334 1 2.36611 -11.443 13.1809 21
335 1 -12.0124 -6.57638 1.81408 4
336 1 -1.48072 0.38243 15.2622 21
337 1 11.9466 -0.301118 9.69205 21
338 1 6.07269 8.30652 1.56794 21
339 1 11.8528 1.43068 4.79491 17
340 1 13.8001 0.125855 7.15415 22
341 1 5.7282 2.07802 -5.8187 20
342 1 -2.67652 -8.88569 13.4341 17
343 1 -0.584621 -11.0543 11.8777 17
344 1 7.67237 -9.085 -5.75305 10
345 1 -2.07055 7.26558 -0.532793 12
346 1 18.413 3.70101 7.51593 5
347 1 -5.31088 -4.39821 12.578 16
348 1 9.14004 5.32649 -4.54071 11
349 1 4.97678 -4.93572 21.4498 9
350 1 -11.0812 -2.24949 2.19933 10
351 1 8.1855 -3.44596 6.33585 18
352 1 -5.07686 -8.7197 0.27468 16
353 1 13.473 -8.4544 7.65358 10
354 1 8.15567 -10.8324 15.149 14
355 1 -2.48989 6.72449 10.2158 17
356 1 -4.42523 -4.48243 20.1021 11
357 1 11.5952 0.468889 12.7289 15
358 1 10.8079 -8.95263 5.9398 17
359 1 3.66586 7.52438 12.0128 16
360 1 0.41211 9.87317 9.5767 10
361 1 0.677973 -11.798 8.04661 14
362 1 -6.36678 -5.51965 -0.0588655 23
363 1 1.68763 -6.2489 21.031 12
364 1 9.71383 1.80114 -1.20367 15
365 1 14.0769 0.84356 16.2819 9
366 1 13.6048 -2.53911 15.0756 11
367 1 12.6479 7.18729 10.513 10
368 1 0.837694 8.80168 0.789335 14
369 1 5.02314 -9.9594 -5.2236 12
370 1 1.11547 3.01711 -7.90077 8
371 1 -4.75894 -5.80828 17.7731 16
372 1 11.4078 4.89674 8.4936 19
373 1 8.95848 7.23887 2.72509 18
374 1 6.84441 -8.65684 -1.00393 17
375 1 -3.54669 -15.5085 5.72712 10
376 1 -3.27067 -5.85971 1.97866 20
377 1 4.0569 -2.29709 -7.7735 16
378 1 1.8648 -13.2365 -3.12126 11
379 1 6.54708 -11.1387 18.1058 11
380 1 2.27856 -13.4291 16.2555 16
381 1 10.893 2.57431 2.51526 14
382 1 -5.73361 5.1023 4.31262 11
383 1 11.2617 -11.3277 8.22887 11
384 1 -6.81085 -7.41148 6.07729 20
385 1 14.4279 1.03545 3.51425 16
386 1 8.67673 0.481023 16.7407 14
387 1 -11.9466 -3.14434 -2.40835 6
388 1 1.05288 4.90593 0.418463 19
389 1 9.40055 -11.3881 10.781 15
390 1 -2.37223 -8.59391 2.5211 21
391 1 -6.4962 -9.56027 17.9862 8
392 1 11.3733 -1.38083 6.47399 14
393 1 -2.72227 -1.3399 9.6986 18
394 1 4.60091 4.41889 -1.58291 21
395 1 12.546 -7.43597 14.8965 12
396 1 2.8142 -5.97787 13.0955 18
397 1 -1.19182 -6.45753 -2.44793 22
398 1 -1.77638 -7.99497 16.5695 24
399 1 8.4515 -8.83762 12.5689 20
400 1 -1.09988 -16.745 8.16869 12
401 1 13.1633 -1.5631 3.05182 14
402 1 -5.90703 6.32767 15.1934 11
403 1 -9.48149 -1.75518 15.6669 11
404 1 5.70266 -12.2563 1.74048 16
405 1 16.4522 1.74698 5.36825 10
406 1 7.85477 -5.12876 15.6034 21
407 1 -2.46555 -11.4913 14.2576 14
408 1 8.23758 10.3579 1.11456 14
409 1 6.55325 -2.70886 -2.07198 18
410 1 -6.63669 3.63528 7.16084 15
411 1 4.06949 1.55219 -0.0877812 19
412 1 14.1284 5.19421 8.0128 11
413 1 9.10313 12.447 3.72443 9
414 1 -3.39771 4.59103 16.6888 15
415 1 12.2037 0.35753 0.710344 16
416 1 -0.28039 -16.4913 4.98341 9
417 1 6.07614 6.00896 14.356 13
418 1 8.76892 -4.69765 2.51368 21
419 1 -7.11516 4.12063 0.730202 10
420 1 -2.50472 -3.06287 22.6917 6
421 1 3.70188 5.06942 4.4662 20
422 1 1.97777 -9.28897 5.85575 21
423 1 7.90908 -7.17042 5.00311 20
424 1 1.32327 1.82992 -5.47643 20
425 1 -8.42138 -4.81835 14.5137 12
426 1 0.692006 1.73377 -0.0394002 20
427 1 8.84707 -3.80054 17.7028 15
428 1 -4.77814 -8.54838 15.9008 19
429 1 16.952 0.84886 8.23257 12
430 1 3.95353 1.0459 -8.03389 13
431 2 -12.1478 -6.99178 0.00368307 5
432 2 2.31174 5.6088 -6.61326 11
433 2 5.73377 -8.05803 -5.78645 15
434 2 -3.51019 -3.53004 21.3737 8
435 2 -7.92322 -3.84398 -3.29338 15
436 2 5.75059 -5.70715 19.8151 12
437 2 -9.76958 -8.38369 7.34745 10
438 2 13.8054 0.708475 9.02374 18
439 2 -7.15574 -3.92748 3.5148 16
440 2 -3.28638 -3.02214 1.75061 15
441 2 -4.35778 -12.3792 13.4498 14
442 2 3.22747 -5.19046 20.3985 13
443 2 10.9514 -3.64545 -1.42152 14
444 2 11.8485 -4.5657 7.90375 17
445 2 1.30648 0.0360617 -0.969266 19
446 2 13.4302 6.30882 11.9527 10
447 2 -8.10956 -6.60608 15.2575 9
448 2 -2.27802 -14.0043 11.4802 14
449 2 13.3896 -0.955913 16.1823 8
450 2 -3.26309 8.01347 8.61399 11
451 2 -3.31993 4.60118 3.39007 17
452 2 -2.89066 2.94652 17.9198 13
453 2 8.30914 -7.32532 3.33928 18
454 2 -5.11135 -5.35787 1.38461 20
455 2 6.5131 -12.5499 -2.0683 13
456 2 12.2326 -1.50733 1.46685 16
457 2 12.7151 7.51355 1.19118 9
458 2 -0.253723 1.79639 8.01514 18
459 2 0.964089 -11.9276 -4.63841 12
460 2 2.19219 -15.6164 12.5303 11
461 2 11.1227 -6.8832 2.32129 15
462 2 -9.38694 -4.00965 8.75688 14
463 2 12.1746 8.38877 5.17124 10
464 2 10.0226 -6.08847 10.3815 15
465 2 2.31819 0.517239 15.4902 17
466 2 13.3426 3.37317 8.17746 13
467 2 7.32674 4.51422 1.56851 18
468 2 -8.29704 -3.26138 15.8726 12
469 2 8.54937 -4.54889 -2.56218 18
470 2 -5.55612 0.645414 -4.20285 14
471 2 -7.34233 -0.791986 9.20962 17
472 2 -1.42287 -12.4019 -0.110969 15
473 2 5.13406 -7.68646 13.9734 17
474 2 6.70607 -8.97895 18.7066 13
475 2 -2.45312 3.27297 14.1509 21
476 2 -4.80588 2.90714 12.733 16
477 2 4.8211 -9.3263 -0.413713 21
478 2 16.3714 -0.884822 8.76056 13
479 2 -3.87618 -14.3454 7.74375 12
480 2 0.0557018 6.45675 14.5167 15
481 2 9.22607 -9.39349 1.28904 18
482 2 13.4121 -0.00553901 12.2014 18
483 2 -11.489 -5.7228 3.30962 9
484 2 15.9526 0.0549444 6.21506 13
485 2 3.51684 -15.0632 10.0606 12
486 2 10.3457 -12.5296 9.27524 10
487 2 -6.47966 -4.90694 -5.78097 7
488 2 -0.766186 -9.38438 1.6679 18
489 2 -2.49816 -5.24223 -1.84003 19
490 2 -4.47982 -10.4703 0.482805 17
491 2 2.37283 9.52753 10.1138 15
492 2 6.60881 -5.39717 -5.78164 22
493 2 14.2909 5.65479 3.67642 11
494 2 5.91052 3.82283 -3.17065 20
495 2 -5.28037 -3.10003 18.9258 11
496 2 -5.83904 -3.25059 7.25156 19
497 2 -3.41188 -4.5571 16.6227 17
498 2 -5.46023 1.88792 16.3428 17
499 2 -1.48281 -1.94206 -0.569601 21
500 2 12.358 -0.717838 -1.64216 11
501 2 10.9179 -9.58678 4.01411 13
502 2 10.0444 2.43976 8.24825 16
503 2 3.33551 6.3274 10.0449 20
504 2 -2.24078 -2.13389 16.2643 17
505 2 15.3546 2.75796 4.14575 14
506 2 8.06148 11.576 5.02735 12
507 2 2.6532 3.63485 -2.21589 20
508 2 1.91131 -2.06351 11.4605 19
509 2 8.34119 -5.79507 18.3505 17
510 2 6.65733 -1.83394 -6.97052 16
511 2 4.06667 2.25323 17.7606 13
512 2 8.67815 4.04625 -6.15583 8
513 2 -5.14752 -10.5797 17.8253 10
514 2 5.14827 -13.7269 0.490692 13
515 2 2.93765 -6.80193 -1.60442 20
516 2 4.58078 -12.4775 10.4144 15
517 2 8.01908 0.866538 -1.78572 19
518 2 -5.34874 -5.54957 -1.90969 20
519 2 -2.10023 8.42627 13.8936 11
520 2 -5.21997 -7.07338 4.36643 19
521 2 7.28306 6.11036 -5.16337 11
522 2 1.58639 10.5545 7.81691 13
523 2 3.05578 -3.15498 17.864 18
524 2 7.91495 -12.3558 0.519432 13
525 2 7.22964 4.73605 14.9208 14
526 2 8.83366 -4.82808 7.68598 18
527 2 1.59796 4.35894 10.9223 19
528 2 -1.16575 6.76662 -2.20822 15
529 2 6.60388 -13.0638 13.9879 12
530 2 -2.19477 -12.2102 16.272 12
531 2 8.38705 -9.07203 14.6399 14
532 2 -1.98817 1.52421 3.23693 17
533 2 0.151497 -13.2111 -2.23573 9
534 2 4.05239 -5.9601 -4.96099 19
535 2 -1.47714 -9.37101 -5.13387 14
536 2 12.9798 6.19867 8.84289 11
537 2 -6.62545 -9.18336 -1.43891 14
538 2 -7.79417 1.96243 7.32974 15
539 2 9.40417 -3.44189 15.9002 18
540 2 2.01733 -13.247 1.35198 16
541 2 5.68151 -4.11992 -2.84718 18
542 2 2.10327 -8.04176 -6.68549 15
543 2 -9.6076 -1.76118 0.710991 14
544 2 -2.88486 -5.63812 19.5807 14
545 2 -3.21884 -7.66073 -3.33427 19
546 2 7.69619 -4.27128 -8.00327 11
547 2 11.0216 1.97967 -2.66205 14
548 2 -3.76049 -1.40604 5.12695 18
549 2 6.13775 -7.2414 -2.41208 22
550 2 0.106353 -5.57333 -3.42013 20
551 2 0.319911 -1.66051 -2.83453 21
552 2 3.10452 4.42513 15.8168 17
553 2 6.80984 1.05733 8.38962 16
554 2 -9.81445 -2.54074 11.1047 12
555 2 0.615089 -16.1611 9.64779 11
556 2 0.12809 3.12341 -6.13882 15
557 2 2.80164 1.2792 12.3148 18
558 2 -1.89152 -15.5551 9.25566 14
559 2 0.773125 7.16094 -0.26654 16
560 2 -5.29436 -7.73217 17.9246 14
561 2 1.81751 -10.3497 14.6045 19
562 2 -5.10657 0.446801 10.5258 19
563 2 -4.99911 -11.2562 6.16823 15
564 2 -3.33164 -7.07759 15.6802 16
565 2 10.4555 -6.45656 16.0532 15
566 2 4.19211 5.64057 -3.24371 19
567 2 5.05592 8.23911 8.36681 18
568 2 13.1719 1.48954 -0.657878 12
569 2 3.05096 8.68292 3.75107 16
570 2 -10.6179 -1.6904 -2.65223 10
571 2 -9.20589 -6.38818 10.4841 12
572 2 4.62209 -5.96791 1.02126 20
573 2 5.65814 -13.1604 17.3649 8
574 2 11.7653 -9.23116 14.6856 13
575 2 4.3515 6.32489 -0.377068 21
576 2 6.16047 0.641215 4.43876 19
577 2 4.14115 -1.31279 13.3062 21
578 2 6.2011 4.68677 9.84523 18
579 2 3.22259 -7.49151 18.2946 17
580 2 -5.85759 -2.0107 13.0379 18
581 2 10.7584 8.18643 2.84344 14
582 2 -7.89144 -1.57172 -5.09719 9
583 2 -5.9931 4.17069 2.53365 15
584 2 -7.15291 -4.43993 13.0365 15
585 2 6.72427 0.867807 1.47056 22
586 2 11.5115 3.84222 3.91604 13
587 2 14.2929 -6.5246 7.43018 12
588 2 -3.24386 -3.17727 9.58981 23
589 2 -1.11609 10.1107 8.35651 7
590 2 -1.4903 7.68155 1.14501 12
591 2 2.80142 3.23069 -4.89091 20
592 2 -6.34601 5.79308 13.4956 13
593 2 -10.6587 -1.53852 14.3418 10
594 2 6.71954 -10.7062 8.37499 16
595 2 0.567694 -15.4382 3.87765 12
596 2 2.48007 5.51252 1.84393 18
597 2 -7.31817 -0.850526 -2.37174 20
598 2 5.88605 -4.77441 12.1437 19
599 2 9.93014 7.40568 14.6815 8
600 2 3.60894 -2.80478 -6.07581 19
601 2 0.206086 3.3821 -0.823286 18
602 2 9.65183 8.41011 0.129077 13
603 2 3.46881 3.286 3.66022 24
604 2 -0.764953 -1.822 19.3604 15
605 2 -0.338547 -5.7849 7.69973 18
606 2 -9.71645 -4.37324 5.88042 12
607 2 4.0785 -10.4235 12.796 14
608 2 5.54784 3.84499 -6.36767 16
609 2 8.83684 -4.16624 0.762278 22
610 2 10.2714 -0.232015 18.0078 13
611 2 2.84187 -0.648233 -8.2151 11
612 2 10.6188 0.461254 10.7351 21
613 2 4.99113 11.2527 9.48055 12
614 2 -4.58755 -13.493 10.3406 16
615 2 3.13272 9.01242 0.715873 17
616 2 8.409 -2.71855 19.0684 12
617 2 -2.6152 -12.1104 7.7214 20
618 2 1.15407 -7.97605 20.641 12
619 2 8.42583 -0.50699 15.1262 14
620 2 8.91754 6.62883 -3.00005 13
621 2 8.88682 8.96901 5.97751 18
622 2 3.38823 -13.2103 12.5409 18
623 2 3.39107 -14.6828 7.0482 10
624 2 5.08996 -1.50082 -1.13413 19
625 2 0.920807 4.06992 13.5874 19
626 2 3.81682 -0.130432 19.422 13
627 2 11.3238 -10.5249 11.7405 11
628 2 1.42898 -3.29784 -8.29518 13
629 2 12.4699 -5.67277 4.90174 11
630 2 -0.21968 4.61622 1.68988 23
631 2 8.33905 -7.38863 -6.17269 10
632 2 0.410128 -5.13198 19.9614 16
633 2 -6.03949 4.41054 -0.71711 13
634 2 7.2763 -7.84539 7.83125 17
635 2 3.40391 6.2016 13.4874 14
636 2 14.5682 4.60304 14.6939 10
637 2 11.7349 3.39468 10.2529 21
638 2 -10.2151 -2.53606 3.83035 12
639 2 -7.55105 4.76685 8.51524 11
640 2 -4.56278 0.923987 -0.736085 20
641 2 14.3476 4.5237 1.05851 10
642 2 0.266145 9.32298 2.55673 11
643 2 -3.71166 -9.98455 14.9847 16
644 2 5.14359 -3.09383 20.3058 14
645 2 1.23972 -10.6885 -0.6481 18
646 2 4.03281 -11.1007 -4.1866 15
647 2 7.4721 12.0833 2.03125 10
648 2 5.27821 6.02706 5.20259 21
649 2 -1.80839 -4.02013 -6.27751 13
650 2 -5.26147 -10.8993 -3.38343 10
651 2 9.38096 -1.96732 6.92544 16
652 2 -6.77962 7.41305 10.6096 10
653 2 4.98696 -12.1708 6.21069 17
654 2 10.2828 -1.20674 12.8911 17
655 2 -7.31794 -6.27616 8.22121 17
656 2 -7.46592 -3.98894 -0.311177 18
657 2 10.9402 4.31887 15.2984 14
658 2 7.23464 6.26166 -0.670665 19
659 2 -7.93302 4.53651 11.4886 12
660 2 0.739695 -12.5508 11.9736 16
661 2 6.32389 6.40016 12.5488 15
662 2 -3.07574 -13.7353 4.98565 15
663 2 8.28021 -9.82664 10.7452 17
664 2 7.1301 0.337006 17.8966 13
665 2 -6.86596 2.12878 11.1461 17
666 2 5.35457 6.71819 2.50266 21
667 2 3.38115 -4.67075 12.067 17
668 2 -2.6353 -0.913093 -5.31074 14
669 2 15.4653 -2.54646 10.8267 12
670 2 8.01771 -11.167 5.73025 16
671 2 2.55182 2.0882 0.794967 20
672 2 -0.606382 0.437038 17.302 17
673 2 -4.64319 -2.31155 -1.65948 19
674 2 12.3085 -9.61268 8.85791 11
675 2 10.2259 11.0837 3.36639 12
676 2 -2.94201 -0.794522 12.0275 20
677 2 0.557138 -12.598 17.6079 13
678 2 0.579824 5.88589 -4.10997 14
679 2 -6.81883 1.57991 0.617854 15
680 2 9.24222 -4.21533 -5.25839 15
681 2 0.128064 1.43802 -3.84409 22
682 2 -2.35402 -0.152703 -2.8626 19
683 2 8.32263 -9.67978 -1.72837 14
684 2 -0.794946 -12.7193 3.12441 17
685 2 -0.080829 -13.3816 8.94756 18
686 2 -0.605454 -7.56202 14.6437 17
687 2 12.0746 -4.96639 1.14436 13
688 2 -2.07811 -16.3324 6.20188 11
689 2 8.58338 3.47073 10.7639 18
690 2 1.04093 5.74259 8.73428 16
691 2 -7.07526 -11.5048 11.6896 8
692 2 8.22704 1.07207 6.15208 16
693 2 0.943673 -9.61056 16.9919 19
694 2 -5.7355 4.57292 15.8865 15
695 2 7.62016 -1.89961 -0.716765 21
696 2 4.64577 9.03489 11.9746 14
697 2 -6.88858 1.93777 14.2722 15
698 2 6.45439 3.53543 3.99918 21
699 2 9.68733 -1.55917 -3.57129 16
700 2 -3.4849 -4.23589 13.507 17
701 2 1.76631 -1.92527 20.5269 12
702 2 12.4376 -1.31027 7.94714 15
703 2 9.781 -6.83606 -2.9069 14
704 2 -4.55474 -12.6819 -1.83488 9
705 2 15.5603 -3.04978 6.07463 10
706 2 3.10335 8.10574 6.70331 20
707 2 6.86478 -10.2914 -4.60941 13
708 2 -8.23482 -0.559657 15.1709 14
709 2 -3.02293 2.50286 10.2441 21
710 2 2.05113 -12.6958 4.51503 18
711 2 -2.16185 -11.9919 -3.78335 10
712 2 6.60698 -13.7868 8.35418 12
713 2 14.6783 -4.07764 8.40746 13
714 2 -2.90705 5.55451 -0.636832 16
715 2 7.29141 8.19668 10.2278 15
716 2 6.88188 -12.2896 3.11966 14
717 2 7.18301 -1.71884 12.4528 17
718 2 -0.813563 -2.73592 21.9657 8
719 2 -0.232326 3.94052 4.9966 19
720 2 3.79019 -11.3641 1.58359 18
721 2 -1.08833 -10.043 13.8023 16
722 2 -4.51666 5.68912 9.56856 16
723 2 6.86184 9.16765 -3.06019 9
724 2 -2.13465 3.19124 -2.57247 19
725 2 10.5219 1.47805 0.604718 18
726 2 -0.930746 -6.95259 -6.26403 16
727 2 3.31257 -12.6601 -1.72312 15
728 2 -9.70631 0.692725 -0.500192 11
729 2 10.7062 6.98047 11.1006 13
730 2 -2.62235 2.06412 -5.22079 14
731 2 -6.70351 -8.39324 12.4926 12
732 2 10.0862 5.0593 13.0069 14
733 2 7.61048 0.148763 10.7833 15
734 2 11.5708 5.12251 -0.799425 13
735 2 7.50226 8.47297 2.86686 17
736 2 1.80482 5.74754 4.99015 16
737 2 14.3212 -3.11272 13.4831 13
738 2 6.52069 9.86465 0.273154 14
739 2 5.59071 -6.81514 17.0418 18
740 2 4.11883 -8.58205 -4.08975 17
741 2 1.81402 -2.7963 14.4706 18
742 2 -4.73147 7.96764 15.2947 9
743 2 12.676 -4.20584 15.5948 11
744 2 11.9797 -7.65222 6.87315 14
745 2 -3.31874 6.68061 11.9825 16
746 2 9.672 -8.68712 17.7931 12
747 2 6.55014 0.968993 -4.69994 17
748 2 -5.86245 -1.71862 16.202 16
749 2 -10.3653 0.461702 2.96486 8
750 2 4.63797 9.57305 -1.96015 11
751 2 -2.99123 -3.49878 -3.63059 16
752 2 3.03872 2.58593 -7.83263 11
753 2 1.41102 2.08613 18.2368 13
754 2 14.8179 -5.64673 10.9693 12
755 2 2.67629 7.35426 -2.61576 14
756 2 -8.65679 -0.274736 12.0684 16
757 2 -11.2137 -4.70746 -1.94637 7
758 2 7.37443 9.05256 13.8671 7
759 2 -6.63744 -7.55591 -4.29538 12
760 2 -2.39667 4.97696 -5.03863 9
761 2 5.06603 1.40805 -2.06306 18
762 2 0.866871 -0.986707 -5.9348 13
763 2 -2.44177 4.68671 7.40977 17
764 2 -1.20311 -0.708136 13.7298 17
765 2 4.25109 11.7222 1.38875 8
766 2 -3.49107 -13.2033 1.86864 10
767 2 7.08251 -1.84908 -3.88616 17
768 2 11.0972 -7.38761 -0.582431 11
769 2 -5.27258 -8.2358 7.01109 18
770 2 -5.7639 3.48387 5.40401 17
771 2 -8.70001 -1.25249 6.42612 16
772 2 -3.2504 -7.82484 -0.0621062 18
773 2 0.438039 -13.7126 15.1817 14
774 2 12.2791 1.77961 16.5794 12
775 2 6.5824 -3.8396 17.3055 20
776 2 -0.291312 -7.26695 17.8034 21
777 2 8.10447 0.806163 -7.05102 9
778 2 4.91775 2.92442 15.3022 15
779 2 -6.69105 -7.83642 0.948596 13
780 2 -6.90996 -8.82947 16.2861 12
781 2 -0.734521 -3.29515 12.3653 17
782 2 -3.18004 3.33775 0.794895 18
783 2 -6.31328 -1.77036 0.633567 16
784 2 -0.916673 6.99465 4.23803 15
785 2 9.11613 -11.6253 13.6151 13
786 2 8.77947 6.49031 8.59512 13
787 2 -5.19916 -10.5591 9.26061 17
788 2 -7.65679 -10.0426 6.57398 13
789 2 -4.18359 -4.5467 4.46527 17
790 2 -2.85333 -9.19361 17.6508 18
791 2 8.17284 -11.0703 16.9174 12
792 2 0.541739 -16.4258 6.77842 10
793 2 15.8123 1.53298 10.2538 13
794 2 -0.141087 -8.03806 -1.14982 18
795 2 -4.3668 6.36081 5.60182 10
796 2 -2.97313 -10.5808 3.22645 17
797 2 0.0529511 -4.61106 16.5078 15
798 2 6.9159 -7.57942 11.8397 16
799 2 2.54253 -6.14322 14.965 18
800 2 13.9313 -6.79125 13.7685 11
801 2 8.6221 5.98299 4.43738 17
802 2 4.43937 12.0501 7.13382 9
803 2 4.43014 -4.11845 -8.71777 13
804 2 6.78905 -3.69809 14.6692 18
805 2 12.6039 1.41015 6.42501 19
806 2 9.25813 -7.97649 6.36967 16
807 2 -0.391394 7.4703 11.4474 13
808 2 12.7231 -2.2184 10.378 22
809 2 0.19193 -10.4719 19.5347 12
810 2 3.61749 -13.8688 15.0306 14
811 2 -1.9705 -8.27505 20.0488 13
812 2 6.16296 -9.43024 2.45646 18
813 2 8.31348 -13.3513 10.9956 11
814 2 12.3991 -7.62148 11.3607 15
815 2 0.834384 -3.49007 9.53369 18
816 2 11.5137 -4.37101 12.7275 19
817 2 -3.54137 -0.199534 18.5273 15
818 2 8.86209 3.72927 -1.74728 14
819 2 1.49403 -8.56992 -3.77485 19
820 2 7.25885 -7.0385 0.333189 18
821 2 5.67771 0.513801 -7.31589 13
822 2 -8.07791 2.35008 -3.35633 8
823 2 13.2226 5.30444 6.27041 15
824 2 -9.26787 -6.59348 -1.23412 11
825 2 17.8378 4.00026 9.52794 6
826 2 -8.30392 -6.35717 5.46886 16
827 2 7.4858 -6.54718 14.6415 19
828 2 7.34755 10.726 7.92821 13
829 2 14.5855 -0.802447 4.07559 13
830 2 7.46876 4.17634 7.20983 22
831 2 4.24641 -9.23032 16.116 16
832 2 -8.74851 -9.30388 9.78836 12
833 2 15.2059 1.63964 15.0884 10
834 2 7.13026 -5.26549 9.59471 19
835 2 17.3434 2.43629 6.90019 9
836 2 -3.45562 0.135163 15.4316 19
837 2 -7.60446 0.845241 3.83613 14
838 2 12.6263 0.893818 2.80707 18
839 2 9.77654 -11.907 3.11289 11
840 2 2.28179 -8.58128 1.6185 20
841 2 5.66945 9.37162 5.27524 16
842 2 11.0598 -11.3644 6.43811 12
843 2 -1.24433 4.28558 11.9902 19
844 2 -0.247715 -8.56642 11.5907 16
845 2 3.13705 -12.0251 17.6956 14
846 2 -2.64162 6.53195 16.3935 12
847 2 1.38924 -5.67439 -6.72987 18
848 2 -4.6852 3.69211 -2.77845 16
849 2 -6.38344 -5.19661 17.1578 15
850 2 12.6154 2.71046 12.9368 20
851 2 -3.93296 -7.02808 -6.19563 11
852 2 15.9216 2.85966 12.5851 12
853 2 9.05866 2.10537 3.22721 16
854 2 -0.381036 0.236664 1.06691 15
855 2 10.7114 5.85549 6.24173 15
856 2 -5.51979 -9.78683 3.56974 16
857 2 0.694571 9.63759 5.13137 11
858 2 -4.21364 9.46646 11.4393 8
859 2 6.52545 -8.62949 5.11702 19
860 2 0.847093 -9.63 4.30301 19
861 1 -0.683848 -8.34267 5.05457 21
862 1 0.438961 -6.23624 0.248645 20
863 1 3.87235 -11.0361 -0.209481 21
864 1 0.976425 -9.79083 2.28231 21
865 1 3.92874 -4.49964 -2.54063 19
866 2 2.73049 -7.9773 12.5773 19
867 2 0.555294 -6.81888 4.2075 22
868 2 -2.55716 -8.76829 5.71227 21
869 2 3.29803 -9.44404 4.2919 20
870 2 1.21351 -7.33054 9.02232 19
871 2 -2.31846 -8.72061 9.04955 18
872 2 -1.53208 -1.82273 3.14043 18
873 2 3.91288 -6.45736 4.0842 21
874 1 -5.62248 -2.34279 8.82104 21
875 1 -4.78936 -4.65051 6.36108 22
876 1 1.81317 -7.98209 10.9087 16
877 1 -3.42933 -7.83791 7.72161 21