ITEM: TIMESTEP
76000
ITEM: NUMBER OF ATOMS
2000
ITEM: BOX BOUNDS pp pp pp
-30.0 30.0
-30.0 30.0
-30.0 30.0
ITEM: ATOMS id type x y z Coordination
1 1 -4.72371 2.87723 2.82229 23
2 1 -5.31341 -12.1925 6.27322 20
3 1 3.83396 5.76707 -25.2599 18
4 1 6.15827 -13.3267 19.6188 22
5 1 -8.6313 9.10674 16.8343 21
6 1 10.643 -9.47547 9.36311 15
7 1 -8.16172 4.37092 10.1931 21
8 1 1.80866 -7.54393 28.5816 15
9 1 -8.41978 -1.58121 4.99793 16
10 1 -10.5474 -8.77412 20.3596 16
11 1 11.7448 0.121255 4.43459 17
12 1 -2.05358 -13.0072 17.3497 20
13 1 -12.3451 -7.61327 17.7399 12
14 1 5.20428 3.828 -23.3013 11
15 1 7.42697 -4.74148 26.5552 26
16 1 1.81976 1.79089 23.9803 25
17 1 7.53448 -4.29188 20.7791 24
18 1 -1.81024 8.02261 8.38103 23
19 1 1.73277 3.45197 26.7321 24
20 1 -5.16431 -0.561569 -0.422874 12
21 1 -9.41247 -2.2788 28.6605 18
22 1 14.2158 1.4007 25.754 19
23 1 -1.57027 8.83326 3.09468 16
24 1 1.57553 2.88764 2.55593 21
25 1 12.2964 -1.69588 26.3156 22
26 1 -6.22698 -1.29816 18.6087 22
27 1 -10.9491 8.88751 8.28778 12
28 1 -1.37744 -3.22143 7.59863 22
29 1 -10.6136 11.0851 22.9707 17
30 1 8.09727 -11.8523 24.6209 16
31 1 0.525057 -1.18074 23.8191 25
32 1 7.74262 -11.067 6.36797 17
33 1 9.43362 -9.16554 17.1777 21
34 1 -0.149269 -15.4115 11.7571 20
35 1 -10.6525 -5.80529 28.1713 11
36 1 7.58018 -9.64615 0.650663 11
37 1 7.84151 -8.87679 3.91924 18
38 1 -1.58048 -0.09422 -0.115823 17
39 1 5.33048 1.73898 29.181 23
40 1 1.79942 -12.5239 23.0937 22
41 1 5.71392 -3.3631 29.1211 24
42 1 -11.1046 3.50253 15.8441 18
43 1 -15.001 1.37171 25.421 10
44 1 -6.45151 0.893764 15.63 22
45 1 4.95395 14.9823 9.03234 12
46 1 8.23898 -15.6013 8.96612 14
47 1 3.74879 0.00916685 7.99404 24
48 1 7.30149 -3.60343 4.8549 23
49 1 -2.2636 -4.05197 -28.7741 14
50 1 -13.7118 8.64204 13.9787 11
51 1 4.70781 10.611 5.66722 21
52 1 2.80364 12.1131 27.5626 20
53 1 -9.27947 11.5331 7.88482 11
54 1 -1.05785 16.3489 14.5021 17
55 1 3.1635 -13.4161 19.713 23
56 1 7.48154 -5.98446 12.7089 22
57 1 7.76218 -6.77354 -0.805886 12
58 1 -8.26444 5.91431 29.7177 14
59 1 -10.7105 -4.18162 13.2779 18
60 1 7.13821 1.50139 21.0318 21
61 1 -7.05707 12.2453 15.6561 21
62 1 -5.22798 -12.9225 17.5712 21
63 1 -3.04632 12.3786 27.3371 14
64 1 -6.90314 12.1118 10.1361 14
65 1 1.84781 6.82535 29.963 20
66 1 3.91003 1.69253 10.7893 23
67 1 -3.49891 -16.6997 22.4242 11
68 1 3.31976 4.77414 23.966 24
69 1 8.97283 -17.5125 16.8535 19
70 1 9.41 8.97646 -26.0878 12
71 1 -9.8032 1.40122 9.86012 18
72 1 -8.59018 9.62927 5.44464 12
73 1 4.76863 9.27101 27.0123 22
74 1 14.2942 -3.44159 4.62758 10
75 1 6.94213 -15.0964 22.0946 17
76 1 -14.6882 1.26428 18.6267 10
77 1 -5.76703 -5.10913 15.3845 23
78 1 6.84246 13.151 21.099 13
79 1 3.74772 -1.10388 29.2418 20
80 1 -6.60067 -14.4926 19.9064 14
81 1 -5.9395 -1.85921 23.8832 21
82 1 10.5871 1.05913 26.2017 21
83 1 7.19654 -0.155893 13.0731 22
84 1 0.0374477 6.46236 26.7716 22
85 1 3.98626 -0.932314 23.9187 24
86 1 -6.15043 -5.20544 20.933 21
87 1 -2.41396 -6.14323 7.56096 23
88 1 -11.9944 12.3793 20.3992 11
89 1 -2.63835 15.3574 16.6914 19
90 1 -3.17813 5.0423 8.27456 24
91 1 8.98575 -0.837466 10.2694 22
92 1 8.35859 10.5025 11.4011 22
93 1 6.04627 -7.47279 20.4941 22
94 1 8.31271 -8.29158 28.2312 14
95 1 -0.145421 17.1591 8.90408 12
96 1 -6.97943 14.179 19.8611 15
97 1 -5.81892 -2.01779 28.6242 20
98 1 -5.23698 9.16366 21.8236 22
99 1 -4.31627 -2.89715 26.2459 22
100 1 14.2518 -9.33596 14.4613 14
101 1 -9.4652 -1.57335 18.4079 22
102 1 -8.846 -11.776 20.3246 17
103 1 12.7087 -8.38124 11.6841 17
104 1 6.84253 0.515602 2.64924 24
105 1 -6.53927 -3.80038 -0.540967 9
106 1 0.165045 10.6529 19.0329 23
107 1 -5.04685 8.19711 8.29853 21
108 1 6.84905 10.7684 -25.9087 11
109 1 -1.86995 13.81 13.7561 21
110 1 -10.7383 14.375 15.3441 10
111 1 1.60338 8.07937 18.7743 24
112 1 -0.454607 -4.7512 28.6948 19
113 1 14.1525 -4.14359 25.1492 17
114 1 0.826191 -5.95338 7.65973 24
115 1 2.52134 -8.72974 7.21382 23
116 1 -1.32635 1.29819 24.0434 25
117 1 10.395 -4.44622 -28.7557 10
118 1 -9.04826 -7.17911 18.1839 24
119 1 7.75181 -6.03699 17.8576 23
120 1 -8.84109 -7.02147 12.7447 20
121 1 9.41118 -7.15346 19.8226 21
122 1 -4.94248 7.4353 18.8022 23
123 1 2.54714 4.17754 0.4287 11
124 1 4.9394 14.1143 14.0868 19
125 1 -4.21068 -11.5073 26.6607 16
126 1 -6.12518 -10.6039 28.2516 12
127 1 4.28649 -8.25576 3.28954 17
128 1 5.06093 4.58418 10.9021 23
129 1 13.1128 -12.7611 19.8125 12
130 1 2.78295 -14.9297 22.0286 19
131 1 -5.38705 -12.7585 11.8225 18
132 1 15.5105 2.43553 22.8972 13
133 1 15.5939 -0.517976 10.4296 15
134 1 -14.7379 -1.91728 24.5175 12
135 1 9.96417 7.1149 26.0583 21
136 1 14.831 10.8904 20.9171 13
137 1 3.49225 1.28686 -24.3172 15
138 1 8.76725 4.44346 16.2484 21
139 1 -1.77278 9.37936 27.1708 20
140 1 -3.29255 12.6948 10.9965 21
141 1 8.10545 -11.5031 2.50552 7
142 1 9.55515 -12.7582 9.03614 14
143 1 5.07082 8.57715 2.98778 17
144 1 8.98813 -3.33398 28.8052 21
145 1 2.28586 -4.10984 -2.07407 12
146 1 -3.30203 4.70263 13.5371 24
147 1 8.93646 -1.14702 15.6767 21
148 1 -8.4522 7.79273 7.96636 17
149 1 -4.58632 16.2258 13.6362 11
150 1 10.4441 0.575024 7.80091 21
151 1 9.90711 -13.3654 19.0864 20
152 1 -4.83405 2.5484 7.92154 20
153 1 -8.98402 12.1409 25.6036 11
154 1 14.0741 8.48734 11.2235 9
155 1 4.79248 8.3032 13.6706 24
156 1 -4.34934 15.8584 19.6992 14
157 1 8.24639 8.35439 18.8412 21
158 1 -1.54328 9.86095 10.8547 21
159 1 5.47098 12.2614 3.45355 11
160 1 3.63287 7.59222 5.71682 24
161 1 -10.0574 -10.213 17.4325 16
162 1 -9.4579 10.744 14.1037 20
163 1 -4.72696 -2.85528 2.3552 23
164 1 4.71501 -7.76145 0.346723 16
165 1 10.7744 9.42191 27.5958 11
166 1 1.50321 9.53327 26.9577 22
167 1 -9.89921 4.89385 13.0229 21
168 1 -8.68468 15.8648 17.5237 10
169 1 13.7445 0.480583 12.4109 18
170 1 -9.21174 -0.493786 7.74873 17
171 1 8.69859 -0.426251 -27.7853 16
172 1 1.31823 13.1869 24.8912 19
173 1 -4.83293 7.42642 24.1908 21
174 1 4.80802 -11.3553 1.05631 11
175 1 -8.18075 8.98619 26.3201 16
176 1 -3.50091 10.3581 13.3044 20
177 1 1.75006 -1.60596 -25.9168 12
178 1 -11.5252 1.25932 17.758 18
179 1 1.60088 -12.3044 2.72441 11
180 1 -4.89874 9.92316 5.90362 18
181 1 -0.0565982 -14.0521 20.4834 20
182 1 8.06371 -11.6991 11.7051 23
183 1 -0.0651469 7.63654 5.62244 23
184 1 -13.3068 6.06451 20.9683 15
185 1 0.0395839 7.06707 16.2511 23
186 1 8.44529 10.191 15.7793 18
187 1 -1.881 7.1432 29.666 20
188 1 3.01382 -9.76042 23.3425 23
189 1 -4.84807 3.68192 15.9708 23
190 1 -2.48959 15.5108 21.9038 16
191 1 -3.14211 4.37063 24.1311 22
192 1 13.9787 -0.847581 28.6032 16
193 1 -7.41174 11.6504 20.9799 19
194 1 11.1595 -5.27569 6.50631 21
195 1 -0.84252 9.10245 -27.0368 17
196 1 -2.84911 -0.297624 7.92681 23
197 1 11.1176 -10.0457 19.75 20
198 1 -4.00661 -8.27862 20.6041 22
199 1 -13.8285 3.73458 23.6422 15
200 1 -5.55342 -11.4216 20.8907 21
201 1 -0.795427 4.35772 -25.1701 12
202 1 -9.69426 0.546555 15.2475 23
203 1 3.07781 -15.6068 17.0265 24
204 1 5.88574 -6.96134 9.99088 21
205 1 -1.79345 9.51679 21.7078 25
206 1 -9.56357 0.350339 20.4661 22
207 1 8.82894 9.45607 -28.8402 11
208 1 -6.15425 -0.802252 12.9819 22
209 1 -2.91097 11.1142 8.513 23
210 1 -10.8225 -2.29948 10.2059 14
211 1 -11.2591 1.23814 23.3474 20
212 1 4.63107 -10.3894 19.8974 20
213 1 5.4904 -12.4953 27.1485 9
214 1 -10.468 12.1216 17.0535 13
215 1 13.632 1.87347 20.1882 22
216 1 8.3935 2.72763 13.1872 21
217 1 -5.8008 -10.1576 4.03608 15
218 1 0.111029 1.31311 -24.7623 9
219 1 9.75258 -14.6539 16.5014 22
220 1 -1.61854 4.83269 5.70674 26
221 1 4.60858 -11.1409 6.26445 17
222 1 7.56927 -0.528495 -0.10657 15
223 1 3.17034 5.7901 2.90734 21
224 1 -6.4316 -9.59094 6.90288 23
225 1 2.64983 16.4368 6.57346 9
226 1 -10.3169 -8.54162 25.9389 12
227 1 4.86761 16.3324 12.0744 12
228 1 -4.83995 1.20093 29.3517 19
229 1 1.42881 16.0092 11.8336 18
230 1 9.06687 -1.71099 26.1535 22
231 1 0.920837 -9.39048 4.2226 20
232 1 -3.39522 6.84512 10.8768 24
233 1 2.0512 2.57014 7.89233 22
234 1 -3.64434 -10.485 23.1199 17
235 1 -8.27931 3.01364 26.1973 22
236 1 -8.05468 6.80786 24.2811 22
237 1 5.12101 -15.784 9.03612 20
238 1 1.39276 -16.2503 14.4905 20
239 1 11.4183 -11.5716 16.6083 22
240 1 4.50304 -10.3784 14.4838 21
241 1 14.6337 4.12287 -26.8094 14
242 1 4.99706 8.51749 8.45034 23
243 1 1.50209 10.1787 16.2448 23
244 1 -7.99603 1.56526 18.1307 22
245 1 -8.53746 13.4993 12.8482 13
246 1 0.177599 4.28349 29.3512 21
247 1 9.94501 -17.8202 20.3667 10
248 1 10.4794 -0.0217622 12.9636 21
249 1 0.00740805 4.80587 23.9846 21
250 1 -6.71028 10.3232 24.1362 19
251 1 -9.34328 -1.20535 12.9607 21
252 1 4.89164 3.25665 2.46045 21
253 1 2.55423 -2.21671 26.2756 22
254 1 10.1774 2.48716 5.04395 21
255 1 3.42973 -14.9582 11.4453 24
256 1 3.80023 -3.24104 5.11434 23
257 1 1.7461 -16.8043 19.3733 23
258 1 12.1824 -0.872072 9.94572 21
259 1 -7.51921 -4.50916 23.7037 19
260 1 7.88612 -15.6426 13.7499 23
261 1 -9.10814 -4.87475 10.2918 19
262 1 3.3952 11.4286 13.7037 20
263 1 3.91145 -5.22827 2.35795 20
264 1 8.28849 2.34349 -26.2773 21
265 1 17.0423 5.83134 18.9504 10
266 1 -2.43369 -6.42278 13.0003 22
267 1 14.363 -5.13324 7.30078 12
268 1 -0.772619 -9.71592 17.9259 21
269 1 -3.63915 -9.40655 7.53256 22
270 1 -6.13407 -0.515677 7.86534 22
271 1 -2.22791 -14.1389 26.0403 13
272 1 12.1731 -3.65434 22.8292 21
273 1 5.82898 -3.67257 23.2363 19
274 1 -5.62032 -10.6385 9.77043 23
275 1 2.89986 -7.71807 20.6129 22
276 1 1.92568 4.81845 5.49661 24
277 1 4.90285 8.00287 18.6836 21
278 1 -7.22125 -8.25951 20.614 19
279 1 3.34796 10.8479 18.843 22
280 1 -9.59238 -0.172886 26.2028 20
281 1 -9.59133 -5.23692 5.18342 14
282 1 -2.45544 -9.9076 4.80362 22
283 1 -3.26296 11.3116 3.4172 13
284 1 -0.0595635 -13.102 9.59697 23
285 1 -2.23212 -10.7644 15.2081 23
286 1 12.0205 -2.16578 2.49649 14
287 1 17.2322 0.977986 12.0585 10
288 1 12.2399 2.12768 23.2274 22
289 1 -2.72704 -4.64534 10.2688 22
290 1 -11.6445 -2.81244 26.4909 18
291 1 3.0514 -13.2829 14.3419 21
292 1 8.07574 -1.18446 -24.9684 9
293 1 -0.596176 -17.1276 24.3517 9
294 1 4.62207 -12.3512 16.8454 23
295 1 1.01871 15.4342 17.1129 19
296 1 4.58519 -2.08497 -1.44491 13
297 1 -3.85288 -8.87203 1.77337 14
298 1 -4.22343 -4.86284 28.8706 20
299 1 6.7198 7.69945 -24.7659 12
300 1 4.60429 -16.0659 14.3992 22
301 1 0.206596 -14.6789 6.77639 18
302 1 -6.64546 7.10569 5.2363 21
303 1 10.1597 5.02693 23.6095 22
304 1 -6.61132 1.44663 5.42139 21
305 1 0.390955 5.50808 8.30771 22
306 1 1.29544 -6.83171 23.4063 26
307 1 9.69087 -14.4392 11.7662 20
308 1 0.983586 15.4186 20.9882 12
309 1 1.5298 7.86405 23.9851 21
310 1 12.4539 -1.41192 20.3453 20
311 1 -12.9195 0.0337907 21.0793 18
312 1 2.95283 -7.90051 26.1628 24
313 1 -3.3538 10.5792 24.504 21
314 1 9.17723 -6.24283 5.06045 19
315 1 15.2308 11.2344 17.0648 8
316 1 7.84299 -10.1665 14.5508 22
317 1 -0.306911 -1.51022 -28.0347 14
318 1 -12.5901 -6.00117 25.6642 11
319 1 3.40973 -16.6434 7.01943 13
320 1 -3.58806 9.43602 -28.9637 13
321 1 -8.34257 2.87934 -29.2009 16
322 1 -12.1866 -2.58305 29.5922 11
323 1 -10.632 -4.65077 23.817 20
324 1 16.017 -8.68747 17.3291 12
325 1 -5.29843 -7.79198 29.2534 17
326 1 10.6843 -3.25415 4.85069 23
327 1 12.6921 -15.2064 12.214 12
328 1 3.39291 13.3967 11.4172 24
329 1 -3.70406 12.4642 15.2167 20
330 1 10.1718 4.67863 28.4678 22
331 1 -7.43055 -2.22124 20.9949 22
332 1 5.98654 -9.02883 11.8114 22
333 1 -3.43352 10.3375 19.3002 20
334 1 -4.96611 3.4297 21.4868 25
335 1 4.72484 -10.642 25.3653 19
336 1 12.8379 -6.72484 19.9664 22
337 1 -6.34791 6.15974 21.6285 21
338 1 -5.87776 -4.64984 10.3101 25
339 1 0.195436 1.67039 -27.7648 16
340 1 0.167471 9.43516 30.0382 20
341 1 11.1689 3.67549 -25.9214 17
342 1 -3.27516 13.15 6.26379 17
343 1 1.85448 -9.42146 1.18587 17
344 1 -4.40882 -1.73428 10.3553 24
345 1 9.50103 -8.47053 6.7209 18
346 1 -2.80971 3.93437 29.2238 19
347 1 -11.7411 9.1454 21.5978 14
348 1 -4.45593 -3.31247 7.7893 24
349 1 -6.64013 10.4426 12.8895 21
350 1 10.781 -4.1508 19.9365 22
351 1 -8.48816 -13.0464 17.4234 14
352 1 6.38266 -7.81471 25.8192 19
353 1 -8.33848 -8.23929 28.2754 11
354 1 -11.8269 9.48593 16.2047 17
355 1 1.00011 -4.66167 -28.3177 12
356 1 6.5844 -12.5636 8.7211 25
357 1 -0.931887 -6.76496 4.39139 22
358 1 7.47138 -3.69886 -0.767131 12
359 1 3.08572 12.9973 21.7994 19
360 1 -7.92383 -2.26712 15.4925 20
361 1 5.92417 -8.46219 6.70794 20
362 1 9.21614 3.71389 2.99604 13
363 1 1.19056 -11.582 6.76122 19
364 1 -6.9344 -13.6505 14.5267 16
365 1 1.38653 -12.4985 17.6652 21
366 1 9.19596 4.86457 -28.6941 22
367 1 14.0074 -0.206674 17.575 20
368 1 -8.04707 2.6544 7.30713 21
369 1 1.41794 13.8867 14.1408 24
370 1 -11.5961 4.16703 10.2317 15
371 1 -10.7156 8.97986 25.1341 15
372 1 -5.10894 12.9335 18.2492 21
373 1 -6.17823 4.11752 24.0794 22
374 1 15.5124 4.86077 30.1019 13
375 1 13.8058 -3.7698 14.3939 18
376 1 7.83464 -6.07412 -29.952 16
377 1 10.5391 2.06307 10.5608 21
378 1 -1.72944 -16.6539 14.4306 18
379 1 -3.04319 6.69261 16.149 24
380 1 2.36466 -9.22396 12.2001 21
381 1 0.194464 6.78525 21.283 23
382 1 -6.33196 1.27377 10.6987 20
383 1 6.39464 -13.2092 14.2238 21
384 1 10.8433 -0.540161 23.6207 21
385 1 -7.54456 -3.99686 12.7392 23
386 1 -3.90453 -10.036 18.0979 22
387 1 -5.92045 -5.87266 26.1396 16
388 1 -0.404351 12.953 16.452 22
389 1 -7.45225 -8.24521 15.2108 21
390 1 9.48876 5.82269 -24.7667 13
391 1 -8.47874 9.55925 10.9467 22
392 1 1.64192 14.6617 8.91603 18
393 1 3.20572 10.7675 24.2138 22
394 1 -8.73806 -11.0434 14.4029 16
395 1 -2.13199 -12.6405 12.1822 23
396 1 -14.7713 3.0321 20.8089 13
397 1 -12.6659 11.5123 14.139 11
398 1 11.3144 -12.1221 23.5802 12
399 1 -5.55589 -10.7651 15.2463 23
400 1 14.1226 6.92836 -28.2215 12
401 1 6.02648 5.62616 1.35156 10
402 1 -7.78705 3.85057 3.80213 15
403 1 -1.37933 14.0353 8.59451 18
404 1 -6.72206 7.05399 11.0071 23
405 1 -3.77711 -13.2966 23.4297 20
406 1 13.3166 4.93584 23.6967 21
407 1 3.34523 11.1745 2.06373 11
408 1 -2.76615 0.170971 26.5865 22
409 1 -13.0316 5.31802 14.1426 13
410 1 -11.8148 6.73258 23.8776 18
411 1 -3.5466 -13.8218 20.8235 19
412 1 4.15333 -4.04373 10.3083 24
413 1 9.48443 -6.60262 9.25161 22
414 1 -0.616355 -4.18902 23.9551 26
415 1 -8.05884 3.4673 21.0964 23
416 1 -9.847 -0.825212 -28.7944 16
417 1 -9.59709 10.4882 19.5111 21
418 1 2.73052 -3.8015 23.6093 22
419 1 -6.51704 -0.0138319 2.0484 15
420 1 9.25885 -8.46293 11.9174 20
421 1 -1.05166 -10.0612 2.26188 17
422 1 1.22234 -5.29763 26.135 23
423 1 4.35945 -9.88138 9.49706 20
424 1 -3.04439 -3.29238 -0.134456 19
425 1 8.19116 -16.1136 19.5506 18
426 1 1.83491 10.4546 11.2331 24
427 1 -10.2605 14.3142 19.2323 12
428 1 -2.84346 -0.148704 -29.0657 13
429 1 -7.60397 -7.64614 4.59938 16
430 1 -5.54878 -7.49364 23.4077 16
431 1 10.7281 -10.0842 25.8998 13
432 1 11.7439 4.28822 21.1175 20
433 1 2.17569 -3.31099 7.8677 23
434 1 9.75988 -9.43812 22.5041 22
435 1 11.4788 8.58832 13.6212 18
436 1 -4.52677 1.29854 23.8664 23
437 1 4.94841 10.1158 16.2123 24
438 1 6.54875 -9.48716 22.4811 21
439 1 7.3553 -18.4954 9.97609 10
440 1 6.44713 1.54678 -23.6346 12
441 1 -0.237436 14.4581 27.0806 14
442 1 -9.32556 -10.4253 8.83736 16
443 1 9.79917 11.4671 17.8178 15
444 1 3.0474 9.72267 29.9889 20
445 1 -4.5225 6.90029 29.7489 20
446 1 -5.46207 -6.64951 12.5931 21
447 1 -15.6544 0.735678 22.3876 10
448 1 -6.69937 -9.80299 12.6074 21
449 1 -6.43844 10.1713 18.6379 19
450 1 -3.68285 -9.58839 12.368 20
451 1 -3.00479 -14.8432 6.0285 12
452 1 -0.16405 -15.8285 17.3967 22
453 1 -1.63265 -7.00646 23.2192 22
454 1 7.2225 -0.747421 23.4692 21
455 1 -11.0185 0.782061 28.7195 22
456 1 -9.64128 6.59932 3.9869 10
457 1 10.3201 1.85426 15.85 21
458 1 -0.444755 -13.5688 14.5789 21
459 1 2.06117 4.52513 11.0266 24
460 1 -1.03821 16.7688 18.9602 10
461 1 -1.59323 4.13103 10.6375 24
462 1 3.19133 6.45926 26.6474 21
463 1 -12.1685 -5.33142 16.0494 13
464 1 3.02196 13.5439 6.33444 17
465 1 8.35799 9.10969 8.71359 18
466 1 -8.49061 -10.8624 5.93003 16
467 1 5.51191 -1.36424 -25.4469 12
468 1 1.92237 -15.9347 9.2515 17
469 1 0.280189 -3.8712 5.1316 23
470 1 12.1733 -15.7297 19.106 14
471 1 -11.1746 7.36097 19.0101 18
472 1 4.76823 2.84501 -27.0556 18
473 1 10.0698 7.33093 15.8425 19
474 1 2.95423 7.14327 16.3005 23
475 1 -12.2555 4.20394 4.60907 7
476 1 5.72911 -0.95128 10.3495 20
477 1 7.70365 -12.086 17.1496 22
478 1 -11.9997 -1.12285 18.7526 18
479 1 -0.442292 16.1118 23.7738 11
480 1 -3.32288 1.71134 5.4365 23
481 1 10.3254 5.23294 18.5715 21
482 1 6.8997 13.4616 10.5563 17
483 1 7.34888 -4.17273 15.3341 22
484 1 13.7781 2.06323 15.2626 20
485 1 0.103965 2.15829 -1.65139 8
486 1 2.74286 -9.36138 18.0506 22
487 1 2.73627 -11.2095 28.4506 14
488 1 4.94424 -9.02216 28.152 15
489 1 -4.95055 4.55685 5.22213 22
490 1 -6.96367 -11.8653 23.5905 17
491 1 -0.972756 -12.8225 4.69855 19
492 1 8.19356 10.058 21.8069 20
493 1 3.46551 2.23538 5.21405 23
494 1 3.65326 -2.99351 -28.023 15
495 1 -12.8655 -0.287764 27.0165 17
496 1 1.05226 -18.4737 16.6937 16
497 1 -13.8557 -3.0012 21.2406 13
498 1 14.6986 -3.6015 10.4338 11
499 1 12.4334 -2.81308 11.982 20
500 1 -4.88131 7.68754 13.7268 21
501 1 2.8322 -13.8608 5.21832 16
502 1 5.62757 2.82986 7.99342 23
503 1 8.63989 -2.64776 7.55701 22
504 1 -2.25106 3.69548 -27.5905 14
505 1 4.12601 15.8391 16.7351 12
506 1 -5.84246 -6.0049 2.04129 17
507 1 4.85219 0.716814 0.266895 14
508 1 -6.11349 0.337726 26.1916 19
509 1 -1.70383 13.1882 19.5646 22
510 1 -8.20395 -3.08062 2.54816 13
511 1 -13.1964 4.32197 17.9792 16
512 1 0.11103 -4.57411 0.372888 20
513 1 -0.404416 -8.14445 26.18 22
514 1 0.140115 7.35982 10.8187 21
515 1 14.0784 -0.621492 22.8957 18
516 1 13.8849 6.04386 12.8164 19
517 1 -3.67236 -13.639 14.9837 25
518 1 1.16134 -10.6024 15.1581 20
519 1 -3.8542 -6.40148 -0.589246 14
520 1 -8.83301 9.09888 22.0954 21
521 1 5.67971 -6.10951 4.93573 22
522 1 3.56656 5.49549 13.4433 24
523 1 10.6652 -0.221094 18.1849 21
524 1 1.75003 10.445 5.83365 20
525 1 6.09568 -7.29119 14.9562 22
526 1 13.4526 2.58775 9.93488 21
527 1 4.9453 7.70068 29.4163 19
528 1 -7.74927 0.460993 28.6535 23
529 1 6.66006 6.65213 26.5925 22
530 1 12.4552 -3.05818 29.5242 14
531 1 -0.457034 -2.1085 -1.18229 14
532 1 -4.00099 -7.45012 10.0415 23
533 1 -0.738142 -2.65098 26.3844 23
534 1 8.13811 9.8264 26.0105 16
535 1 8.28914 5.26969 5.39456 20
536 1 -6.61596 12.5425 6.68391 12
537 1 -0.103564 11.2127 13.6795 23
538 1 9.98005 -7.32705 25.2135 20
539 1 12.9751 3.01832 4.24268 12
540 1 10.7063 -5.50549 12.195 23
541 1 13.2236 7.53741 25.6545 15
542 1 -12.1216 -8.10335 22.8746 12
543 1 -1.68136 10.318 5.73275 23
544 1 0.488096 0.428449 26.7492 25
545 1 -11.1597 2.42571 -28.8871 10
546 1 -0.958993 15.6204 6.01009 10
547 1 6.8927 -19.2318 13.9789 9
548 1 7.2667 0.157 7.69583 21
549 1 -1.69774 15.8677 11.4208 15
550 1 -10.6547 -8.26424 6.106 13
551 1 4.84205 -14.4503 24.5266 14
552 1 -10.6298 -8.31005 15.0099 15
553 1 0.25645 11.2265 8.17818 21
554 1 -6.50285 5.53797 7.64426 20
555 1 3.86373 9.14507 -25.1655 13
556 1 1.35378 -10.8816 25.7503 18
557 1 8.30719 4.80368 10.7069 21
558 1 3.10759 -12.7446 8.48396 24
559 1 4.50285 -4.80535 26.1862 23
560 1 7.04421 2.1394 10.645 24
561 1 -6.52762 6.31021 16.3188 21
562 1 13.8019 1.06474 -25.8664 8
563 1 3.37612 11.3383 8.61277 21
564 1 10.6536 -3.7843 14.8376 24
565 1 4.7507 12.7197 -28.4745 13
566 1 -1.72497 2.76768 3.12714 22
567 1 -3.13554 -10.1258 29.8918 12
568 1 0.423792 -0.16713 7.88303 22
569 1 5.49342 -2.35692 2.69577 22
570 1 4.53538 14.0015 23.4623 11
571 1 12.0505 3.59018 7.43286 22
572 1 -2.58072 -5.8074 1.91847 22
573 1 -1.9424 -10.0747 9.98797 23
574 1 -5.58935 -6.4025 7.41585 23
575 1 12.2775 2.65132 18.1071 23
576 1 13.7147 8.07572 15.3234 18
577 1 7.40498 -5.55048 7.36835 22
578 1 15.0305 4.80076 26.8912 15
579 1 7.71071 -9.52062 9.15966 24
580 1 6.78185 8.15987 5.7509 19
581 1 6.66172 10.8416 19.3051 21
582 1 -8.12255 1.28262 23.7265 20
583 1 13.3972 6.88735 -24.9637 6
584 1 10.5046 5.54646 12.7994 20
585 1 15.6013 -1.31399 19.8036 14
586 1 15.4464 5.98982 9.70739 17
587 1 10.3587 -0.499323 29.1338 22
588 1 15.7924 1.87568 28.5081 11
589 1 2.64314 -4.53269 28.9366 21
590 1 9.92069 13.1889 11.022 11
591 1 7.25577 -0.659275 28.8569 21
592 1 12.071 3.14259 12.9206 21
593 1 8.69278 2.10538 23.6569 22
594 1 -7.93472 -3.83061 8.02905 23
595 1 12.1903 4.9549 15.709 21
596 1 9.0743 -3.30806 17.8745 23
597 1 -9.71791 6.07478 26.6492 17
598 1 6.40765 10.6237 29.3922 19
599 1 14.5309 1.80504 -29.0698 14
600 1 4.90415 13.9743 28.6836 9
601 1 -1.00751 11.9091 -28.197 10
602 1 5.19127 1.9708 23.8811 23
603 1 -1.67577 -16.7772 20.037 21
604 1 -4.72219 9.78352 10.6949 20
605 1 13.1191 5.94004 7.02119 11
606 1 9.96625 0.666073 2.03187 16
607 1 3.35381 12.6613 16.6612 24
608 1 -0.476384 -8.85959 7.42746 25
609 1 11.7244 -5.20754 2.8806 12
610 1 -11.5743 3.41084 21.2662 22
611 1 -3.22535 7.19981 5.64675 24
612 1 0.313134 -19.6416 19.6259 13
613 1 -4.74432 -1.47149 5.4547 22
614 1 -8.18232 2.04747 12.5885 19
615 1 7.92727 -6.22997 23.2896 21
616 1 12.9969 11.7489 18.9533 14
617 1 7.8919 -10.2313 19.7884 23
618 1 -7.66851 -1.79589 10.6731 22
619 1 1.90061 -0.973834 -0.532478 15
620 1 1.92917 3.95831 -23.4053 11
621 1 8.13154 7.25131 3.40201 12
622 1 14.8949 -4.19379 27.542 10
623 1 8.73501 3.1666 7.74964 22
624 1 13.0029 12.5093 22.7531 10
625 1 6.27603 -14.7309 11.3773 22
626 1 -7.81076 -3.42992 -29.0259 11
627 1 14.0892 -4.28675 19.6604 22
628 1 5.25144 9.2905 -28.0512 21
629 1 6.4928 11.6549 7.68264 14
630 1 -5.74979 14.031 12.1652 15
631 1 11.3316 8.46657 23.4393 20
632 1 -6.3749 -15.5032 17.0654 15
633 1 15.8606 -6.66892 19.5034 13
634 1 4.46623 14.0259 19.5666 15
635 1 -1.26726 3.34685 26.3753 21
636 1 -10.81 -4.13612 18.1688 21
637 1 -6.41416 -4.2251 5.0183 22
638 1 10.6897 -6.07841 28.4161 19
639 1 -2.07347 -7.64473 28.4467 16
640 1 10.6296 2.08396 -28.733 23
641 1 -2.18137 13.4336 24.2468 21
642 1 6.62445 4.86556 23.9944 22
643 1 8.63582 4.2846 21.5528 22
644 1 1.94834 -0.995844 5.03835 23
645 1 -12.4449 -1.97345 23.7878 18
646 1 7.73295 2.89277 0.357124 11
647 1 -0.64336 -7.33143 10.3313 25
648 1 9.73197 -12.6921 14.3316 19
649 1 6.8945 2.81422 -28.7361 19
650 1 5.10304 4.25755 21.1574 21
651 1 -5.30182 -4.5006 -28.0549 8
652 1 6.76127 4.85192 29.1585 22
653 1 7.18843 -2.8072 -28.2798 17
654 1 2.08912 1.64425 29.4661 22
655 1 2.4943 -6.19028 4.99212 22
656 1 -6.36766 3.73447 28.878 20
657 1 3.60783 4.78942 28.7321 20
658 1 -6.0579 -13.6058 25.8686 11
659 1 13.7122 5.8543 18.066 23
660 1 11.5355 -11.9909 11.3604 15
661 1 -3.08332 1.54339 10.5135 22
662 1 8.20971 8.63914 13.2677 21
663 1 11.4651 10.3074 20.8252 21
664 1 2.08898 -2.57309 2.50309 22
665 1 -6.3509 0.64557 21.0614 21
666 1 5.1498 10.4173 11.2815 21
667 1 11.6234 8.23438 18.1676 21
668 1 -3.89752 -7.89784 15.457 22
669 1 -0.772796 -5.2333 -2.18319 12
670 1 -7.60139 15.7479 14.5756 14
671 1 12.7228 -8.12444 7.67039 12
672 1 6.77654 5.36794 18.7813 24
673 1 15.1991 4.15193 7.19953 15
674 1 6.60263 11.3364 13.6953 23
675 1 -2.8925 6.4139 21.3619 21
676 1 -6.38061 4.11253 18.814 23
677 1 6.9494 5.99199 7.99832 19
678 1 11.7885 -1.13534 -28.2072 14
679 1 12.773 -7.09768 26.349 13
680 1 0.163358 -9.38086 29.8506 11
681 1 0.0958705 5.83229 2.91236 19
682 1 5.45806 12.113 26.0968 17
683 1 10.3506 -8.12712 2.97237 12
684 1 3.82195 0.863824 26.6204 25
685 1 6.50224 7.62252 10.9499 22
686 1 8.03868 7.7979 23.962 22
687 1 14.3632 -6.30541 12.687 14
688 1 7.03584 4.59584 -25.675 18
689 1 -10.6814 -2.73836 21.1255 22
690 1 6.42916 -15.192 16.9986 22
691 1 0.527497 -4.04143 10.407 23
692 1 -5.69394 14.9186 16.8031 18
693 1 -2.71935 -1.45894 23.7397 22
694 1 4.27457 -6.22166 12.7388 22
695 1 4.7746 9.45428 21.4217 21
696 1 -12.4687 -1.32276 12.6939 11
697 1 2.23067 4.12795 -28.1231 18
698 1 -3.34378 2.18894 0.282006 15
699 1 -5.09109 8.28377 3.02645 15
700 1 3.6352 -18.5782 18.1914 15
701 1 10.2034 7.67256 10.642 18
702 1 5.90402 -9.13964 17.2217 19
703 1 -3.12226 4.64843 18.7341 25
704 1 -10.9061 4.18803 28.1712 16
705 1 6.98861 -5.53227 2.15895 21
706 1 4.89985 -16.4049 19.6104 23
707 1 1.40275 13.449 19.1679 19
708 1 -1.23187 0.993539 28.8866 21
709 1 -6.92578 -7.87991 10.0969 20
710 1 -3.57506 -12.6923 3.18167 11
711 1 -3.50824 -15.5422 11.654 13
712 1 0.00980173 12.8714 11.1143 24
713 1 4.06264 -5.67171 7.44933 23
714 1 -0.0893726 10.7415 24.5392 24
715 1 11.0356 -9.55948 13.9617 22
716 1 11.2307 -16.551 14.2925 14
717 1 4.4998 -6.80255 23.5397 25
718 1 17.0686 1.03346 8.33738 11
719 1 10.1708 -16.8418 10.5252 10
720 1 -12.8416 5.65689 26.3741 12
721 1 1.61161 -17.9966 21.8927 14
722 1 -3.70184 -13.0708 9.27906 19
723 1 -13.4751 2.6394 28.4108 13
724 1 -1.75075 -18.289 16.7398 12
725 1 15.1718 3.33726 12.3026 21
726 1 -3.882 15.4018 25.3365 12
727 1 -9.49632 -1.71851 23.6813 21
728 1 -8.15955 7.34968 19.1413 21
729 1 9.09883 -1.55042 20.7392 21
730 1 -11.1285 -4.91753 7.82184 12
731 1 -1.78884 8.09324 13.4387 21
732 1 8.58894 -0.509633 5.39848 24
733 1 11.3636 6.57125 -27.1683 18
734 1 10.1663 6.53169 7.54693 16
735 1 -10.2285 5.37126 7.21867 18
736 1 -10.8668 -7.51614 9.40633 14
737 1 -0.0430777 6.00356 -27.4895 20
738 1 5.03434 4.71412 5.56444 21
739 1 12.8052 6.47836 28.3374 20
740 1 -4.69749 3.02173 26.6981 23
741 1 1.93976 -17.9636 11.9656 13
742 1 -4.96819 -17.5882 19.7067 9
743 1 -0.2968 -9.63858 23.0581 22
744 1 16.715 5.12601 22.8077 10
745 1 2.72552 -6.91477 10.0352 22
746 1 -5.22098 9.37732 16.3348 23
747 1 6.46767 7.58517 16.1381 21
748 1 -8.95474 -5.53273 20.919 21
749 1 11.335 5.54911 4.10113 13
750 1 4.21025 -18.7468 9.32954 9
751 1 6.62014 -19.0303 19.558 12
752 1 12.1517 -17.7063 17.3241 11
753 1 6.56972 2.42866 5.02861 22
754 1 1.9435 16.919 14.3862 12
755 1 -3.00479 -0.0653844 2.80631 23
756 1 0.659623 -1.64953 28.9914 21
757 1 -0.921516 3.92295 0.265115 14
758 1 -9.93767 1.68517 4.98326 12
759 1 -11.5066 2.03109 12.6676 18
760 1 2.41058 14.3431 3.45645 10
761 1 10.5289 1.41597 21.1998 22
762 1 -4.17416 -7.28901 4.83901 23
763 1 -5.43402 -7.18091 17.9855 22
764 1 17.3699 3.41156 9.89773 11
765 1 12.7713 -9.07756 17.2869 22
766 1 -6.59033 8.74317 29.2598 10
767 1 10.8208 -14.9404 21.7456 14
768 1 14.1826 -5.6836 16.7607 20
769 1 12.7185 -9.05585 23.7542 12
770 1 1.40671 9.71618 21.5935 22
771 1 -8.51785 0.63173 -27.0092 9
772 1 -6.33303 6.09712 26.8006 22
773 1 -0.265441 -14.2952 23.8751 14
774 1 8.61751 2.58235 18.6522 21
775 1 10.9499 7.92434 -29.3933 17
776 1 -11.0204 -2.40963 15.5942 19
777 1 9.08948 -7.08447 14.9017 20
778 1 -4.74216 14.214 8.81163 14
779 1 3.08187 6.96401 21.1515 22
780 1 2.57024 -13.4851 26.3333 13
781 1 8.74576 2.13371 28.9658 22
782 1 -0.34478 12.4443 21.9457 24
783 1 5.14314 -12.0396 22.5937 22
784 1 -12.9735 0.189969 15.118 14
785 1 5.22557 3.7138 26.6251 23
786 1 -10.3384 -9.89408 11.9391 13
787 1 2.0336 11.3665 -27.0706 15
788 1 6.6519 12.9195 16.2474 17
789 1 -9.77824 -9.97432 23.1929 12
790 1 -1.53752 -19.3216 22.5838 9
791 1 8.9762 -3.54182 23.6643 22
792 1 10.9761 -6.12976 22.476 19
793 1 4.94146 7.7037 24.1172 22
794 1 -1.95946 9.87745 16.3472 23
795 1 1.34823 -10.2122 9.7212 22
796 1 -1.62575 -1.13981 5.33788 25
797 1 -2.7154 -2.11691 29.0675 22
798 1 -3.78694 12.2716 21.6622 22
799 1 15.8847 -3.19292 22.3506 12
800 1 3.38357 7.53839 11.0473 24
801 1 -2.74744 6.57482 -27.382 15
802 1 8.68224 3.93891 26.4241 23
803 1 8.75056 -2.551 2.36962 19
804 1 -7.32159 -14.2062 22.5276 13
805 1 -3.1504 -4.45395 4.86453 20
806 1 15.5853 -1.25839 25.7387 13
807 1 5.04335 -0.473504 5.36686 22
808 1 -5.64656 4.82289 -28.1965 15
809 1 13.8902 -14.9622 15.9084 11
810 1 1.63884 8.63522 3.06222 16
811 1 -0.651736 -9.47278 12.7041 22
812 1 13.9496 1.15966 7.06169 18
813 1 15.8201 -2.91796 16.9377 13
814 1 4.58968 -5.36579 -28.8039 13
815 1 -2.05996 -12.0119 7.46747 23
816 1 7.76272 14.7108 13.451 13
817 1 -0.580592 -7.90418 20.6586 22
818 1 -9.9282 4.20894 18.5974 20
819 1 15.3533 -0.731554 14.2041 15
820 1 14.9663 8.8389 18.3934 16
821 1 4.99565 -5.35334 -2.51508 11
822 1 -5.25729 12.7554 25.2462 15
823 1 16.4425 8.12144 21.2888 13
824 1 11.2877 9.93833 9.27733 12
825 1 3.67854 0.350664 2.67259 22
826 1 12.3036 -1.0187 14.8765 19
827 1 -8.01489 3.78417 15.7447 22
828 1 13.42 7.36986 20.8334 22
829 1 -12.1989 -5.85857 20.1922 16
830 1 -6.70712 5.65524 1.91245 13
831 1 7.03425 1.07945 26.2755 22
832 1 -8.41777 -6.78725 7.43298 20
833 1 -11.8207 2.70015 25.7691 19
834 1 -1.32511 2.68055 7.7568 21
835 1 12.9227 -5.99759 10.0904 17
836 1 -7.30449 -12.5667 8.34816 14
837 1 14.7058 -11.6502 16.9516 12
838 1 -13.3149 6.77675 16.9227 11
839 1 -9.18905 -5.22159 15.3691 22
840 1 12.0605 4.2375 26.0988 22
841 1 -1.25373 -11.64 25.3589 20
842 1 11.0364 0.39369 -25.4346 12
843 1 14.0255 -6.11497 22.4283 16
844 1 10.917 -5.85338 17.329 22
845 1 -9.76507 6.34069 21.2991 21
846 1 8.09164 7.30125 29.6455 19
847 1 3.54425 5.60542 8.28746 24
848 1 -1.08798 -7.8189 -0.0399343 17
849 1 -4.86287 9.50561 26.8696 19
850 1 -8.26535 -10.9724 25.9189 12
851 1 9.95542 11.8393 14.0221 18
852 1 1.97055 14.0285 -29.6376 11
853 1 10.8848 -3.67985 8.92149 21
854 1 5.10765 -6.46971 28.6009 20
855 1 -0.627227 12.8256 4.70015 13
856 1 1.82603 8.39392 8.18252 24
857 1 -7.76566 -3.07017 26.5214 19
858 1 14.8802 4.4507 20.4379 20
859 1 0.988474 -6.66575 2.62835 22
860 1 12.0217 10.6356 15.6814 18
861 1 -11.2325 7.86501 13.2502 21
862 1 -0.728275 -11.9102 28.4107 13
863 1 8.33266 10.757 5.46435 11
864 1 6.01825 -1.88109 26.1522 22
865 1 5.25437 -17.6694 12.0144 19
866 1 -6.10355 14.9477 22.6792 14
867 1 -11.1407 10.6329 11.1808 12
868 1 12.1113 -2.09491 6.82524 20
869 1 5.66834 -14.052 6.08925 15
870 1 -10.1137 6.36499 16.1201 21
871 1 12.0389 11.3647 11.9522 12
872 1 -3.87927 -4.52175 23.565 22
873 1 10.2588 -5.05585 0.596926 10
874 1 -8.48661 -12.6407 11.4633 13
875 1 1.17832 -12.4173 12.114 19
876 1 2.36487 8.08532 -27.4422 19
877 1 4.50355 -11.902 11.4402 24
878 1 0.115611 11.9895 1.96611 11
879 1 17.0317 5.29303 12.3635 9
880 1 10.0725 7.36289 20.9782 21
881 1 3.66173 -19.1039 14.45 12
882 1 2.11916 -6.46279 -0.12566 17
883 1 12.5555 -2.94103 17.413 24
884 1 -1.27797 -3.12911 2.43707 23
885 1 1.26998 -10.673 20.6168 23