ITEM: TIMESTEP
42000
ITEM: NUMBER OF ATOMS
2000
ITEM: BOX BOUNDS pp pp pp
-30.0 30.0
-30.0 30.0
-30.0 30.0
ITEM: ATOMS id type x y z Coordination
1 1 -5.0765 2.56435 -5.77031 14
2 1 -5.14929 -12.1082 0.635105 14
3 1 2.54937 7.33441 -29.8399 10
4 1 6.75947 -12.5814 12.6434 21
5 1 -8.76148 9.68884 10.1015 18
6 1 10.1036 -8.54368 1.03678 17
7 1 -8.51007 4.14339 3.76876 22
8 1 1.93109 -5.95958 22.2909 18
9 1 -7.95736 -1.54119 -0.860884 20
10 1 -10.7914 -8.03892 13.6095 16
11 1 11.6528 0.679324 -3.21821 15
12 1 -2.10452 -12.3163 10.9118 23
13 1 -12.7764 -7.0274 11.5678 12
14 1 4.03742 4.42197 30.0188 12
15 1 7.191 -4.29017 19.4499 22
16 1 2.1131 2.4996 17.1985 23
17 1 7.1223 -4.04113 14.169 23
18 1 -1.87198 8.51181 1.63241 22
19 1 2.14238 4.32099 19.5439 24
20 1 -6.45221 -0.639672 -6.65013 13
21 1 -8.04611 -1.59078 22.6508 19
22 1 13.6105 2.08471 20.388 20
23 1 -0.139099 9.13625 -6.18588 11
24 1 1.76848 3.18141 -3.74572 20
25 1 12.218 -0.818231 19.2203 22
26 1 -6.1429 -0.707851 11.6294 20
27 1 -10.3698 8.66054 -0.315801 11
28 1 -1.3674 -2.75945 0.862382 23
29 1 -11.2685 10.3739 18.6193 11
30 1 7.37062 -10.7277 18.3809 19
31 1 0.902083 -0.703589 16.6789 23
32 1 7.29052 -12.3029 -1.42785 11
33 1 9.3751 -8.32635 10.1898 22
34 1 -0.454386 -14.5368 5.14055 18
35 1 -10.946 -6.29514 20.3135 12
36 1 7.5018 -8.96101 -6.00487 13
37 1 6.7992 -7.01612 -3.78709 19
38 1 -2.10419 0.90235 -6.20663 18
39 1 4.83702 2.63101 22.2997 21
40 1 1.67367 -12.0402 15.9386 19
41 1 3.9095 -3.05685 22.043 22
42 1 -11.7009 3.82445 9.0533 18
43 1 -13.7883 1.09993 20.0227 14
44 1 -6.319 1.18498 8.93051 20
45 1 1.08612 17.9371 2.42132 11
46 1 7.99558 -14.3964 1.59575 11
47 1 3.3081 0.28349 0.901245 22
48 1 7.05756 -3.41374 -2.23157 23
49 1 -3.03287 -4.16434 24.7574 13
50 1 -11.8388 7.04124 6.6561 20
51 1 4.1784 10.8052 -1.13964 21
52 1 3.13195 12.8181 22.0194 16
53 1 -7.20461 10.4915 0.937401 20
54 1 -0.467057 16.6942 7.89223 14
55 1 3.4833 -13.1508 12.4378 19
56 1 7.26073 -5.32556 5.77165 23
57 1 7.53692 -6.2559 -7.90726 12
58 1 -7.96129 7.18114 22.2246 14
59 1 -10.9176 -3.74429 6.55773 19
60 1 7.21383 1.58224 14.4406 23
61 1 -7.28917 12.6371 9.2217 21
62 1 -5.27111 -12.3602 10.3308 19
63 1 -2.69933 12.7414 19.7681 18
64 1 -7.09242 12.5915 2.92271 17
65 1 0.644139 8.70024 22.5795 22
66 1 3.56306 1.92069 3.71811 23
67 1 -3.44724 -15.8179 16.2254 13
68 1 3.67817 5.05354 17.0692 23
69 1 9.54003 -17.3792 8.48788 14
70 1 7.51818 9.32609 27.6297 13
71 1 -9.63958 0.997122 3.68805 21
72 1 -8.33276 9.65208 -2.75312 13
73 1 5.30013 10.4029 19.1542 19
74 1 13.45 -1.85504 -2.6819 14
75 1 6.77973 -15.2001 15.9288 13
76 1 -14.3361 1.28887 11.9805 11
77 1 -5.74134 -4.65278 8.72107 23
78 1 6.71027 13.2879 14.1141 13
79 1 2.41794 -0.0579414 22.2616 24
80 1 -6.90277 -13.6704 12.69 14
81 1 -5.89644 -1.26624 17.2842 23
82 1 10.125 1.87775 19.9095 21
83 1 6.98303 0.221049 6.13048 22
84 1 0.522956 6.94946 19.7924 20
85 1 3.84834 -0.465371 16.6387 20
86 1 -5.77457 -5.01214 14.0756 23
87 1 -2.67364 -5.93147 0.801531 22
88 1 -10.3352 12.0245 16.2584 16
89 1 -3.04481 15.6296 9.1898 18
90 1 -3.2743 5.56367 1.40024 22
91 1 8.61895 -0.412905 3.48901 24
92 1 7.73177 10.6138 2.89457 17
93 1 5.74985 -7.05496 13.8698 22
94 1 7.25561 -8.5816 21.6431 12
95 1 -0.691463 17.0074 0.039498 14
96 1 -7.69888 15.2261 12.7912 15
97 1 -5.29758 -4.02858 22.2647 21
98 1 -5.34792 9.80133 14.7635 21
99 1 -4.15722 -2.10806 19.7282 21
100 1 14.4956 -8.3279 7.32854 10
101 1 -9.2056 -0.95818 11.729 22
102 1 -8.79779 -10.8778 12.92 18
103 1 12.6256 -7.87629 5.26859 12
104 1 6.66903 0.780559 -4.85655 20
105 1 -6.36927 -3.80145 -6.84625 11
106 1 -0.218504 11.208 12.0314 21
107 1 -5.04055 8.38664 1.37545 22
108 1 3.43607 10.1202 29.2085 12
109 1 -2.04341 14.1809 6.26185 20
110 1 -12.1288 13.0509 7.45876 12
111 1 1.82082 8.65821 12.1563 22
112 1 -1.7518 -4.33899 21.6382 20
113 1 13.541 -3.81279 19.8136 15
114 1 0.329349 -5.79017 0.590704 23
115 1 2.41772 -8.5333 0.381924 20
116 1 -0.933218 1.94759 17.1896 22
117 1 8.82684 -3.69197 24.8341 12
118 1 -9.20534 -6.84432 11.515 25
119 1 7.24207 -5.65867 11.3173 23
120 1 -9.42758 -6.47698 6.37116 20
121 1 9.14075 -6.75186 13.2421 20
122 1 -4.77504 7.87464 12.6504 20
123 1 2.87367 4.51394 -5.75278 15
124 1 4.21391 14.5448 6.45935 18
125 1 -4.0436 -12.8176 21.0594 11
126 1 -6.66006 -10.5163 21.3248 12
127 1 4.12227 -8.03656 -4.00741 18
128 1 5.05279 4.94689 3.67297 20
129 1 13.2473 -11.6643 12.3584 14
130 1 0.961693 -15.6699 15.6221 20
131 1 -4.96654 -13.8831 5.05899 14
132 1 15.2751 3.19901 17.6841 16
133 1 14.7664 -0.394818 2.55522 19
134 1 -15.1156 -2.50129 18.8845 9
135 1 10.1955 7.60625 19.2377 18
136 1 15.1705 10.6147 14.0116 13
137 1 1.47342 -0.501533 27.599 12
138 1 8.3804 5.03228 9.58222 22
139 1 -1.51047 9.58718 20.3273 20
140 1 -3.7799 13.3425 3.58406 19
141 1 6.41215 -10.1592 -3.42122 15
142 1 8.98742 -11.6749 1.31084 16
143 1 4.5184 9.10886 -3.80528 13
144 1 7.85101 -2.16709 22.2523 21
145 1 1.15641 -3.05874 -9.01117 11
146 1 -3.05606 5.46506 6.70125 23
147 1 8.63475 -0.839276 8.98461 23
148 1 -8.75667 7.66572 1.83689 20
149 1 -5.17561 14.3561 7.39101 17
150 1 9.82947 0.76486 0.829518 22
151 1 10.2467 -12.2453 12.9702 20
152 1 -4.98728 2.40642 1.44359 22
153 1 -8.4457 13.0328 19.1285 10
154 1 13.1703 8.3257 5.17211 16
155 1 4.80368 8.8273 7.08999 23
156 1 -4.8597 16.5698 12.1044 13
157 1 8.50114 8.20011 11.6135 24
158 1 -1.7475 10.2855 4.3218 22
159 1 4.71119 12.5572 -3.28793 12
160 1 3.12061 7.99907 -1.0654 24
161 1 -10.3161 -9.73807 10.6365 18
162 1 -9.97319 11.3082 7.63734 20
163 1 -5.11047 -2.8555 -4.08014 22
164 1 4.5775 -7.93859 -7.54088 14
165 1 10.3395 10.0057 21.6145 14
166 1 1.9738 9.87622 19.8899 21
167 1 -9.75445 4.90108 6.43504 24
168 1 -9.89059 14.7055 10.1547 13
169 1 13.4828 0.50311 5.88612 23
170 1 -9.73448 0.0116469 1.09776 16
171 1 6.26299 0.930434 25.0616 20
172 1 1.19613 14.3125 16.9361 15
173 1 -4.90701 7.66819 17.692 21
174 1 4.45149 -10.8079 -6.00994 13
175 1 -8.20015 9.0854 19.8809 18
176 1 -3.5451 11.3985 6.29641 21
177 1 2.68759 -1.68038 24.9155 19
178 1 -11.1725 1.85561 11.3325 20
179 1 1.61904 -11.981 -5.30587 13
180 1 -5.21125 10.0424 -2.00429 19
181 1 0.202513 -13.3187 13.4007 19
182 1 7.64242 -10.8458 4.41336 24
183 1 -0.23179 7.83166 -1.2472 22
184 1 -13.3695 6.2897 15.032 14
185 1 -0.0789476 7.15846 9.53214 25
186 1 8.36119 10.7686 9.16755 20
187 1 -2.62268 7.75055 23.0856 18
188 1 2.80533 -9.30963 16.1267 20
189 1 -4.67701 4.17681 9.47209 22
190 1 -2.3805 16.0029 14.6207 18
191 1 -2.85921 4.93535 17.5757 23
192 1 12.5318 -0.971734 24.4698 10
193 1 -7.59053 12.5084 14.3268 22
194 1 10.9458 -4.38911 0.0279672 20
195 1 -0.73761 9.30681 25.621 15
196 1 -3.42766 -0.519105 1.09627 22
197 1 11.515 -9.57528 14.4552 16
198 1 -3.80563 -7.85225 13.8872 21
199 1 -13.3445 3.21624 17.389 16
200 1 -5.49422 -10.639 13.5769 21
201 1 -1.42952 3.74664 28.2855 12
202 1 -9.77181 1.2138 8.68528 22
203 1 3.45506 -14.8476 9.63512 18
204 1 5.48457 -6.23619 2.7523 20
205 1 -1.62813 9.96313 14.7421 21
206 1 -9.5004 1.00436 14.1981 20
207 1 8.58532 10.7791 24.7815 13
208 1 -6.28074 -0.77691 6.40349 23
209 1 -3.89781 11.2378 0.913475 21
210 1 -10.9359 -2.22373 3.97236 14
211 1 -11.1687 2.78926 19.237 19
212 1 4.4919 -10.1736 12.6248 22
213 1 5.1419 -13.176 20.0195 10
214 1 -11.1338 11.6447 10.1741 14
215 1 14.2536 2.30773 14.7922 16
216 1 8.45648 3.35925 6.3082 24
217 1 -5.92242 -10.3141 -2.53165 15
218 1 -1.27824 1.18785 26.2503 13
219 1 10.5632 -14.2068 9.85476 23
220 1 -1.82969 4.80639 -1.10885 22
221 1 3.84881 -11.0086 -1.08753 18
222 1 7.06877 0.0418648 -7.39327 15
223 1 3.02613 5.90156 -3.60335 20
224 1 -6.92477 -9.3757 1.08658 18
225 1 1.57529 16.8201 -1.05493 10
226 1 -10.4672 -8.15195 17.5108 13
227 1 3.90035 16.0915 4.0541 11
228 1 -3.80912 0.953989 22.8376 17
229 1 1.02635 16.1741 4.66024 19
230 1 8.99423 -1.21552 19.6549 22
231 1 1.12304 -9.46125 -2.57558 17
232 1 -3.49051 7.3743 4.19617 24
233 1 1.62236 2.96823 1.00607 21
234 1 -5.66701 -9.54286 16.4662 17
235 1 -8.02088 3.72152 19.7981 21
236 1 -8.30217 7.55123 17.6031 20
237 1 4.51246 -15.5842 1.7282 16
238 1 1.32421 -15.3054 8.10902 17
239 1 11.3739 -10.8043 9.90671 23
240 1 4.54758 -9.85896 7.34694 21
241 1 13.1618 4.40276 25.9728 18
242 1 4.88985 8.54949 1.69099 26
243 1 1.21381 10.4728 9.47443 21
244 1 -8.04295 2.06862 10.9335 23
245 1 -9.83078 12.8758 4.89537 16
246 1 -0.230573 5.40401 22.5515 22
247 1 8.39346 -17.4089 14.4099 12
248 1 10.4484 0.501193 6.07947 23
249 1 0.422682 5.13206 16.8293 19
250 1 -6.73678 10.8148 17.3969 20
251 1 -9.64398 -0.770417 6.31143 21
252 1 6.03828 4.78922 -3.79794 15
253 1 2.33738 -1.65264 19.5464 23
254 1 9.84367 2.61831 -1.56982 20
255 1 3.68607 -14.0863 4.34433 20
256 1 3.57627 -3.12821 -2.36091 21
257 1 1.77438 -16.4272 12.1477 18
258 1 11.9454 0.00704384 2.88065 23
259 1 -7.70632 -3.92396 16.7557 20
260 1 8.33702 -14.9196 7.20575 20
261 1 -9.464 -4.77935 3.84221 20
262 1 3.09456 11.5728 6.91052 21
263 1 3.4871 -5.06903 -4.66367 22
264 1 9.84019 4.40281 27.9648 17
265 1 17.3791 6.13613 11.7509 9
266 1 -2.63177 -6.08978 5.99936 23
267 1 13.9068 -4.79157 -0.301735 13
268 1 -0.564506 -9.00767 10.9128 22
269 1 -4.01554 -8.82922 0.187569 17
270 1 -6.58495 -0.286083 1.15369 21
271 1 -3.46937 -14.1802 18.3872 14
272 1 12.0752 -3.05936 16.5487 24
273 1 5.53826 -3.41102 16.7916 23
274 1 -5.78157 -10.9011 4.04791 20
275 1 2.343 -7.16449 13.8211 23
276 1 1.28761 5.13464 -1.4465 21
277 1 4.95812 8.1851 12.153 23
278 1 -7.35606 -7.83353 13.8405 20
279 1 3.19044 11.0979 12.5725 24
280 1 -9.32276 0.421031 19.621 18
281 1 -9.6667 -4.34039 -1.71674 14
282 1 -2.34316 -9.95134 -2.11808 23
283 1 -2.43581 9.25193 -3.78286 16
284 1 -0.506582 -12.6949 2.7697 19
285 1 -2.35912 -9.9972 8.26616 23
286 1 11.8784 -2.13926 -5.19505 12
287 1 16.3714 0.653764 4.87475 14
288 1 12.0475 2.85055 17.1795 21
289 1 -2.51801 -4.08851 3.45108 22
290 1 -9.54473 -3.51606 19.2284 18
291 1 3.05466 -12.6262 7.33232 20
292 1 6.26042 0.232697 28.7296 12
293 1 -0.844994 -16.4523 17.6398 10
294 1 4.86793 -11.8911 9.77199 22
295 1 1.5116 16.1991 10.0844 14
296 1 4.00264 -1.4539 -8.26354 14
297 1 -4.00139 -8.432 -5.2389 17
298 1 -5.82461 -7.18933 22.0184 16
299 1 5.65672 7.75378 29.2887 13
300 1 4.89986 -15.4701 7.45011 21
301 1 -0.928952 -14.5523 -1.47676 11
302 1 -6.8769 7.6626 -0.813015 22
303 1 10.3112 5.70506 16.7679 21
304 1 -6.47257 1.58165 -1.50844 20
305 1 -0.0628937 5.66923 1.4221 25
306 1 0.948881 -6.74811 16.7456 24
307 1 10.1233 -13.3803 4.4159 13
308 1 0.669949 16.0533 14.0073 13
309 1 1.63342 8.21975 17.0949 21
310 1 12.1929 -1.17023 13.9113 21
311 1 -12.0416 0.368654 15.4495 17
312 1 2.60549 -7.98796 19.2785 20
313 1 -3.35641 10.7312 16.8415 20
314 1 8.98119 -6.21108 -1.64811 24
315 1 13.6161 10.5644 8.20577 13
316 1 7.89448 -9.33352 7.29905 22
317 1 -0.14713 -2.49552 25.9409 17
318 1 -12.2844 -3.3561 20.2277 13
319 1 1.72979 -16.335 -0.5013 11
320 1 -2.99049 10.6485 22.444 14
321 1 -8.18225 4.55118 23.8701 15
322 1 -10.6691 -3.60914 22.6603 14
323 1 -10.799 -5.28004 16.7763 19
324 1 16.1847 -6.97194 9.87751 9
325 1 -5.09768 -8.62218 19.1 18
326 1 10.3794 -3.21487 -3.1691 20
327 1 11.4336 -15.0625 6.93696 12
328 1 2.5833 13.2526 4.21249 22
329 1 -3.68727 12.8849 9.29229 21
330 1 9.4887 5.79306 21.6527 21
331 1 -7.5183 -1.9287 14.3153 23
332 1 5.96889 -8.54733 4.77813 22
333 1 -3.32728 10.8179 11.9542 22
334 1 -4.52818 4.07672 14.8301 22
335 1 4.22555 -11.3498 17.7952 21
336 1 12.8482 -6.56997 14.3348 18
337 1 -6.65964 6.92712 15.2663 20
338 1 -6.30821 -4.55503 3.67529 23
339 1 -0.0152889 3.32586 24.6866 21
340 1 0.399524 11.8071 21.3129 20
341 1 12.1368 3.38297 28.6091 10
342 1 -4.11345 13.272 -2.03621 13
343 1 1.81815 -8.41142 -5.54219 19
344 1 -4.59966 -1.59134 3.65788 22
345 1 8.85504 -9.29261 -1.46015 15
346 1 -2.79679 4.2317 22.8135 20
347 1 -12.1678 9.19981 15.4034 13
348 1 -4.94701 -3.35812 1.18367 24
349 1 -6.87541 11.0942 6.17477 24
350 1 10.6624 -4.0098 13.4229 20
351 1 -8.6887 -12.583 9.64135 14
352 1 5.69005 -7.88972 19.0529 23
353 1 -8.40709 -8.2981 19.6974 15
354 1 -12.011 9.42332 8.31138 15
355 1 -0.116069 -5.61577 24.1949 15
356 1 6.36901 -12.2449 2.29611 19
357 1 -1.09605 -7.175 -2.16337 21
358 1 7.25319 -3.0475 -7.72136 15
359 1 3.07212 13.2992 14.9358 17
360 1 -7.6992 -1.85825 8.75256 20
361 1 5.85446 -8.22892 -0.546179 21
362 1 10.5395 3.39073 -4.64432 13
363 1 0.976021 -11.6029 0.0368031 19
364 1 -6.76472 -13.1272 7.1655 19
365 1 1.60969 -11.8967 10.6066 24
366 1 7.71495 6.3162 25.5339 21
367 1 13.802 0.0112563 11.1766 19
368 1 -8.56523 2.67944 0.977674 19
369 1 0.878737 14.1842 7.29707 22
370 1 -11.7954 5.01212 4.12736 19
371 1 -12.5067 7.7263 20.6877 9
372 1 -5.4157 13.7027 11.6741 25
373 1 -6.32056 4.6232 16.9366 22
374 1 15.7491 4.50336 24.3196 11
375 1 15.3217 -2.19276 5.06271 16
376 1 6.18508 -4.96149 22.7157 17
377 1 10.3565 2.57969 3.4966 20
378 1 -1.27502 -16.7462 7.05464 16
379 1 -3.57004 7.25699 9.28664 20
380 1 2.4441 -8.66893 5.379 19
381 1 0.117283 7.22358 14.5869 22
382 1 -6.53262 1.18304 3.81009 24
383 1 6.43202 -12.2222 7.51548 20
384 1 10.2602 -0.154225 17.0195 22
385 1 -7.81102 -3.66784 6.4649 24
386 1 -3.76664 -9.54419 11.1864 22
387 1 -6.06574 -5.10826 19.4529 19
388 1 -0.479475 13.2181 9.73433 25
389 1 -7.68125 -7.4365 8.80464 21
390 1 9.36514 7.56466 29.5862 11
391 1 -8.81943 10.1217 4.52709 20
392 1 0.643621 14.7412 1.42326 20
393 1 3.27517 11.3347 17.019 19
394 1 -9.00515 -10.3204 7.75461 18
395 1 -2.13608 -11.5975 5.4342 22
396 1 -14.7524 3.20036 14.8746 12
397 1 -11.8337 10.1926 5.17496 15
398 1 10.8775 -11.6022 17.4469 12
399 1 -5.72377 -10.1011 7.9755 21
400 1 13.4878 7.29998 24.5623 10
401 1 8.78467 6.33338 -4.79189 11
402 1 -8.19167 3.38717 -4.42778 13
403 1 -2.39424 13.9342 0.704023 20
404 1 -6.9478 7.24618 3.93434 20
405 1 -1.24622 -13.5084 16.1762 21
406 1 13.6434 5.89796 16.8559 18
407 1 2.40433 10.7881 -5.08088 13
408 1 -2.85996 0.988151 19.6707 22
409 1 -13.3745 4.44068 6.76641 14
410 1 -11.8912 6.91101 18.1096 18
411 1 -3.56733 -13.668 13.4195 20
412 1 4.09288 -3.52451 3.5533 23
413 1 9.27179 -5.78962 2.37852 20
414 1 -0.888663 -3.63459 16.7276 23
415 1 -8.24055 3.85004 14.1448 22
416 1 -9.96491 -0.0877942 24.2424 16
417 1 -10.5503 10.3094 13.2195 20
418 1 2.29409 -3.69327 16.7753 23
419 1 -6.87577 0.149959 -4.21206 16
420 1 9.32085 -8.0324 4.70814 23
421 1 -0.907554 -10.3768 -4.83778 14
422 1 0.886807 -4.40543 19.2772 20
423 1 4.21094 -9.31044 1.98587 22
424 1 -3.6806 -1.98441 -7.692 14
425 1 9.23468 -15.2283 12.4119 19
426 1 1.40852 10.2842 4.44166 24
427 1 -10.3715 13.4701 13.1695 14
428 1 -3.23597 -1.53752 25.7639 14
429 1 -7.76897 -7.36289 -2.0878 15
430 1 -6.51309 -6.73249 16.7044 16
431 1 10.1171 -9.76062 20.0896 10
432 1 11.8505 4.95206 14.0551 22
433 1 2.07258 -2.90569 0.494664 21
434 1 8.99172 -8.79386 15.8225 20
435 1 11.173 9.48973 6.56719 19
436 1 -4.29134 1.9666 17.0579 22
437 1 4.82565 10.4469 9.42472 20
438 1 5.91783 -9.31557 15.6167 20
439 1 4.4473 -17.1757 4.803 15
440 1 3.03237 1.34467 29.4469 10
441 1 0.886148 14.803 20.4384 10
442 1 -9.69958 -10.6511 2.79774 13
443 1 9.91428 11.3866 12.0498 17
444 1 2.58941 10.6308 23.8724 19
445 1 -4.94084 6.01782 23.4287 18
446 1 -5.82844 -6.71444 6.19468 22
447 1 -14.8683 0.230321 16.9246 11
448 1 -7.84204 -9.25097 5.16661 20
449 1 -7.0334 10.7861 12.0057 18
450 1 -4.23791 -9.04384 5.66962 21
451 1 -3.95411 -13.2835 -1.92665 13
452 1 -0.0693155 -14.9336 10.8878 17
453 1 -2.42297 -6.8379 16.4256 19
454 1 6.89147 -0.151608 16.9137 23
455 1 -11.0109 -0.344384 21.4445 19
456 1 -10.0378 6.30567 -2.75954 12
457 1 10.3003 2.23964 8.90522 20
458 1 -0.450612 -12.692 8.19054 22
459 1 1.69479 4.66844 3.93327 23
460 1 -1.19802 17.1225 11.3864 12
461 1 -1.59766 4.51701 4.04434 24
462 1 3.698 7.50324 19.514 22
463 1 -12.7228 -4.86678 9.43376 14
464 1 2.90265 13.7082 -1.20411 14
465 1 8.19133 9.18862 0.570984 17
466 1 -9.34297 -9.9408 -1.02526 11
467 1 4.34919 -1.35094 27.7819 12
468 1 1.3253 -14.8225 1.99861 20
469 1 0.18978 -3.76068 -1.94513 22
470 1 12.1848 -14.6213 12.5521 14
471 1 -11.9703 7.534 12.2117 14
472 1 4.84656 2.55934 27.1191 21
473 1 9.76316 7.78664 8.74023 19
474 1 3.60646 7.48102 9.55204 23
475 1 -7.93649 4.60582 -1.79712 19
476 1 5.22211 -0.797935 3.05122 21
477 1 8.2701 -11.2763 10.1784 24
478 1 -12.9213 -1.02363 10.986 13
479 1 -1.30815 15.975 18.1518 10
480 1 -3.50026 1.64852 -1.29923 20
481 1 10.4729 5.75457 11.6192 22
482 1 6.21096 13.3184 4.53988 17
483 1 7.21437 -3.63648 8.762 23
484 1 13.5031 2.1514 9.15697 20
485 1 0.276439 2.68396 -6.37675 17
486 1 2.8674 -8.93088 10.4665 21
487 1 1.87767 -11.9039 21.0741 13
488 1 4.33548 -10.0062 20.4584 18
489 1 -5.01392 4.81585 -0.993865 20
490 1 -8.71626 -12.8677 15.6814 9
491 1 -1.575 -13.618 -4.44882 10
492 1 8.17945 10.0116 14.2683 19
493 1 3.46637 2.1773 -1.2875 20
494 1 5.85382 -2.19055 24.9114 20
495 1 -13.6513 -1.54575 21.8238 10
496 1 0.523538 -19.2007 8.74737 10
497 1 -13.9043 -1.8443 14.1445 14
498 1 13.4394 -3.06039 2.33198 21
499 1 12.0885 -2.22896 5.18563 20
500 1 -5.13916 8.2351 6.63609 19
501 1 1.66274 -14.5247 -3.55507 10
502 1 4.99246 3.18324 1.16805 22
503 1 8.46365 -1.88915 0.544151 23
504 1 -4.09685 1.2891 27.3526 8
505 1 4.8217 16.0285 9.42948 12
506 1 -6.32253 -6.10481 -4.65024 13
507 1 4.18262 1.50254 -6.59558 15
508 1 -5.82274 0.965087 19.8556 22
509 1 -2.13836 14.4626 12.347 21
510 1 -7.98189 -2.88524 -3.98005 14
511 1 -13.1097 4.21192 12.4309 16
512 1 -0.547361 -3.10737 -7.11892 20
513 1 -0.529112 -7.03607 19.3332 23
514 1 -0.162048 7.55769 4.33499 24
515 1 14.0378 0.00686152 16.6292 17
516 1 13.4338 5.79069 6.14598 20
517 1 -3.57743 -12.9604 7.80857 17
518 1 1.20963 -10.2245 8.06135 20
519 1 -4.47785 -6.43072 -8.15797 10
520 1 -8.35272 9.65466 15.3079 21
521 1 5.32011 -5.66192 -1.68444 20
522 1 3.54377 5.57613 6.6834 23
523 1 10.5398 0.0728154 11.7578 21
524 1 1.14183 10.6275 -1.31945 21
525 1 6.08034 -6.65362 8.52705 21
526 1 13.3575 2.61145 3.97528 22
527 1 4.42776 8.77085 22.5702 20
528 1 -7.8268 1.26171 21.972 25
529 1 7.13626 7.24993 19.6701 20
530 1 11.0932 -2.56713 22.0027 20
531 1 -1.20339 -0.102689 -8.8425 9
532 1 -4.26301 -6.82803 3.42615 20
533 1 -0.681448 -1.91338 19.7238 23
534 1 8.35464 10.4758 19.5957 17
535 1 8.08447 5.50916 -1.41157 23
536 1 -7.27623 12.7593 -1.20257 9
537 1 -0.30776 11.2169 7.01624 22
538 1 8.85683 -7.268 18.8727 21
539 1 12.7269 3.57282 -1.80015 15
540 1 10.7126 -5.41508 5.20652 22
541 1 14.035 5.0787 22.3281 18
542 1 -12.9446 -7.22469 15.2508 11
543 1 -1.94952 10.8369 -0.99429 24
544 1 0.590125 1.01731 19.7719 24
545 1 -10.2958 2.55016 25.231 11
546 1 -1.43031 15.4523 -2.8656 11
547 1 6.74371 -18.824 6.85316 13
548 1 6.66518 0.706009 0.949057 25
549 1 -1.58134 15.9449 3.42991 12
550 1 -11.0663 -6.99909 -1.45042 11
551 1 4.01302 -14.891 17.318 14
552 1 -11.1787 -7.54485 8.16381 15
553 1 -0.284808 11.4062 1.78093 22
554 1 -6.63953 5.27458 1.38337 24
555 1 -0.0417373 8.91258 28.4379 11
556 1 0.986804 -10.1826 18.7017 22
557 1 8.47286 4.94571 4.15811 20
558 1 3.10052 -12.3235 2.06457 21
559 1 4.22933 -4.98264 19.3494 23
560 1 6.91617 2.26983 3.51145 21
561 1 -6.62841 6.86348 9.6875 20
562 1 11.1167 1.68914 25.3705 19
563 1 2.79006 11.5274 1.41344 21
564 1 11.061 -3.54505 8.01493 17
565 1 3.8033 13.1456 27.2171 9
566 1 -1.85228 2.93761 -3.64102 26
567 1 -3.71672 -9.79163 21.7023 15
568 1 0.16972 -0.15906 1.29431 26
569 1 5.04362 -1.91259 -4.83631 25
570 1 3.52555 13.432 18.8764 15
571 1 11.632 3.51149 0.960079 23
572 1 -2.95381 -5.3021 -4.44562 20
573 1 -2.46797 -10.1113 2.94365 21
574 1 -6.12357 -6.37481 0.915396 22
575 1 12.1283 2.79873 12.1121 21
576 1 13.0628 7.90968 8.95183 21
577 1 6.94641 -5.29231 0.428272 21
578 1 16.3708 4.17466 20.4732 11
579 1 7.55014 -8.82262 2.07089 21
580 1 6.39647 8.2476 -1.35006 23
581 1 6.46597 10.9814 11.9562 19
582 1 -7.79443 1.75037 16.8892 20
583 1 11.5991 7.14936 27.6084 13
584 1 9.95991 6.30799 6.21605 22
585 1 15.2428 -0.71578 13.7843 14
586 1 15.1098 5.6728 3.19659 15
587 1 10.4699 0.373732 22.417 19
588 1 14.4023 2.01959 23.0114 18
589 1 0.89281 -3.05925 22.355 21
590 1 9.7597 13.905 4.09289 9
591 1 5.9619 -0.0809212 22.5924 22
592 1 11.902 3.2893 6.28686 19
593 1 8.60449 2.76547 17.0298 22
594 1 -8.25068 -3.63767 1.2169 23
595 1 11.6393 5.26178 8.71605 20
596 1 8.80268 -2.8363 11.6421 21
597 1 -9.84798 6.0744 20.0087 22
598 1 6.93511 10.5138 22.5938 14
599 1 14.2698 1.60163 25.9649 10
600 1 5.69624 13.0277 24.1917 11
601 1 -1.5162 12.3759 25.2476 10
602 1 5.29477 2.37285 17.1342 25
603 1 -1.61775 -15.9155 13.4807 23
604 1 -5.4224 10.3657 3.69939 20
605 1 13.1303 6.07056 0.0741801 12
606 1 10.0428 0.613922 -5.67097 13
607 1 2.96671 13.4729 9.68065 23
608 1 -0.765216 -8.85168 0.491247 23
609 1 11.9083 -5.22984 -3.01308 16
610 1 -11.5068 3.59699 14.9489 18
611 1 -3.47728 7.77455 -1.22332 21
612 1 -1.06464 -18.9042 11.971 15
613 1 -4.90233 -1.27676 -1.53552 22
614 1 -8.13539 2.30065 6.4129 22
615 1 7.31132 -6.23689 16.7701 20
616 1 13.5062 11.122 11.1983 16
617 1 7.87598 -9.71508 12.9002 21
618 1 -7.99911 -1.7107 3.63299 22
619 1 1.20158 -0.250293 -7.2762 18
620 1 1.73501 3.68477 28.3625 14
621 1 9.3121 8.73054 -2.49605 10
622 1 14.1559 -1.20189 21.4845 13
623 1 8.30284 3.59094 0.968258 23
624 1 13.1219 12.6395 16.2362 7
625 1 6.62372 -14.1909 4.50638 21
626 1 -8.89123 -4.06864 24.5214 11
627 1 14.4583 -3.53144 13.5263 17
628 1 4.82491 10.5543 26.1432 14
629 1 5.74398 11.9966 1.44533 17
630 1 -6.9909 14.9273 4.3324 11
631 1 12.0683 8.54965 16.8044 16
632 1 -6.7613 -15.3616 10.1451 11
633 1 14.4539 -5.40752 11.1125 17
634 1 4.61362 14.513 12.396 12
635 1 -1.06951 3.69023 20.0066 25
636 1 -10.8832 -3.9411 11.808 21
637 1 -6.46282 -4.42468 -1.69015 22
638 1 8.94445 -5.23516 21.9515 16
639 1 -1.46657 -7.44978 22.8247 16
640 1 8.15249 2.82115 26.2332 19
641 1 -2.34137 13.7446 16.6009 22
642 1 6.67441 5.48051 17.2852 22
643 1 8.27311 4.83913 14.6252 22
644 1 1.72012 -0.537471 -1.43452 24
645 1 -12.4528 -2.28775 17.2215 19
646 1 7.77914 3.19977 -6.1873 12
647 1 -0.801689 -6.93592 3.45852 24
648 1 9.71364 -11.7901 6.84631 22
649 1 5.90789 4.20955 24.6547 20
650 1 5.11349 4.30362 14.4113 23
651 1 -6.05571 -5.61073 25.0222 11
652 1 5.93516 6.01357 22.1684 21
653 1 7.42997 -1.6821 27.2964 15
654 1 1.91831 2.70275 22.2522 24
655 1 1.82064 -6.43995 -2.43023 21
656 1 -6.07453 3.65421 22.344 20
657 1 2.69047 6.03919 22.2714 22
658 1 -6.90303 -13.2324 19.3722 10
659 1 13.7922 5.75506 11.5551 22
660 1 10.9082 -10.587 3.59765 15
661 1 -3.27268 1.41167 3.87821 23
662 1 8.18118 9.02886 6.31745 21
663 1 11.9207 10.9268 14.1168 18
664 1 1.64875 -2.18677 -4.72621 22
665 1 -6.11455 1.04121 14.6644 22
666 1 4.62417 10.7418 4.18141 22
667 1 11.865 8.63072 11.4401 24
668 1 -4.05322 -7.60953 8.896 26
669 1 -1.74637 -5.19509 -7.73031 16
670 1 -8.53153 14.1204 7.11605 16
671 1 11.853 -7.416 -0.945617 14
672 1 6.8669 5.5826 11.917 21
673 1 14.9431 3.76128 1.00595 17
674 1 6.33958 11.8218 7.05454 20
675 1 -3.39478 6.82717 15.2659 24
676 1 -6.30395 4.90486 11.5882 19
677 1 6.72823 6.39098 1.48515 22
678 1 8.90848 -0.51287 25.1805 22
679 1 11.7416 -6.83632 20.4214 10
680 1 1.21387 -8.75811 21.9257 16
681 1 -0.223274 6.18521 -4.64193 21
682 1 6.00353 12.8312 20.7794 14
683 1 9.68671 -7.10362 -5.11609 12
684 1 4.1939 1.02302 19.5884 24
685 1 6.29195 7.91758 4.22174 22
686 1 8.48872 8.30697 17.0507 18
687 1 13.7681 -5.04703 5.06241 13
688 1 6.82144 5.19537 28.4113 14
689 1 -10.2208 -2.31502 14.6415 22
690 1 6.93836 -14.1285 9.92463 19
691 1 0.720944 -3.87536 3.35915 22
692 1 -6.44261 15.631 9.50618 15
693 1 -2.57841 -0.945802 16.9861 23
694 1 4.13554 -5.68947 5.6839 20
695 1 5.11066 10.3481 14.9047 21
696 1 -13.0025 -1.2905 6.47305 10
697 1 2.71733 4.72275 25.2245 17
698 1 -2.34251 4.61138 -6.22896 14
699 1 -5.51101 8.70804 -4.80779 10
700 1 2.70114 -19.63 11.0055 12
701 1 10.0602 8.00167 3.63664 19
702 1 6.07112 -8.87916 10.4227 19
703 1 -3.06449 5.16229 11.9725 22
704 1 -11.1036 5.38049 23.0832 13
705 1 6.4161 -4.87941 -5.67145 18
706 1 5.79003 -15.6171 12.1599 21
707 1 1.40206 13.9709 12.6018 21
708 1 -1.16022 1.49418 22.3097 20
709 1 -7.77231 -7.52714 3.42042 23
710 1 -4.02181 -11.5571 -4.31277 12
711 1 -3.54305 -16.3517 4.72785 10
712 1 -0.184571 13.2419 4.46069 22
713 1 3.4452 -5.51959 0.625742 22
714 1 -0.217694 11.1725 17.5962 23
715 1 10.8205 -9.21874 7.11876 21
716 1 11.0739 -17.3913 11.4023 11
717 1 4.12365 -6.32564 16.4198 22
718 1 16.8737 1.08824 1.07344 11
719 1 7.99999 -17.0686 4.95125 9
720 1 -13.0351 4.74946 20.6307 14
721 1 1.05548 -18.637 13.9961 12
722 1 -3.69639 -12.7874 3.09335 18
723 1 -12.8171 1.87992 23.0717 14
724 1 -2.0903 -17.7067 9.6601 14
725 1 15.0783 3.18681 6.87795 17
726 1 -3.77884 15.9377 17.9274 10
727 1 -9.04318 -1.28043 17.1768 21
728 1 -8.15507 7.7334 12.6048 20
729 1 9.08513 -1.16523 14.4303 21
730 1 -11.3607 -4.64343 1.43572 13
731 1 -1.78076 8.21264 6.97395 22
732 1 8.35115 -0.342986 -2.13746 21
733 1 10.7131 10.4144 27.5593 6
734 1 9.99543 6.70024 0.803221 17
735 1 -10.2123 5.29125 0.894378 18
736 1 -10.9104 -7.79123 2.07097 13
737 1 0.346096 6.09417 26.1641 19
738 1 4.8578 5.20267 -1.11502 24
739 1 12.483 7.4906 21.1547 12
740 1 -4.47369 3.62654 19.8762 21
741 1 1.72919 -18.0126 5.90921 15
742 1 -4.22426 -17.7501 12.5773 10
743 1 -0.671363 -9.28594 16.4945 20
744 1 17.1348 5.6732 17.3259 11
745 1 2.33233 -6.75586 3.1376 23
746 1 -5.35737 10.0746 8.96544 23
747 1 6.77601 7.75496 9.54075 24
748 1 -9.1744 -4.92946 13.9115 20
749 1 11.2154 6.11354 -2.7626 14
750 1 2.23773 -17.8725 2.65814 12
751 1 5.49095 -18.8031 12.6013 12
752 1 8.42672 -18.517 11.6775 12
753 1 6.72962 2.42447 -1.70568 21
754 1 2.51329 17.354 7.3389 12
755 1 -3.62297 -0.168827 -3.86873 20
756 1 0.245174 -0.205448 24.2112 23
757 1 0.131727 6.16171 -7.71431 11
758 1 -9.20881 1.34984 -2.12709 12
759 1 -11.4618 1.87082 5.88649 18
760 1 1.63205 14.0162 -4.14101 12
761 1 10.7357 1.79715 14.695 22
762 1 -4.71141 -7.00976 -2.3894 21
763 1 -5.67624 -6.47384 11.4478 23
764 1 16.6805 3.41838 3.43021 13
765 1 12.6305 -8.63152 11.3855 18
766 1 -4.99841 8.55959 21.2944 18
767 1 9.95721 -14.5281 15.5872 14
768 1 14.9838 -4.00671 8.04798 13
769 1 11.7375 -8.37582 17.412 15
770 1 1.45745 10.1096 14.8747 22
771 1 -7.05874 1.01826 24.8687 19
772 1 -6.4513 6.45 20.1792 20
773 1 -0.972553 -12.3063 19.1248 16
774 1 8.99479 2.79042 11.7631 20
775 1 10.7518 7.98973 24.3482 17
776 1 -11.0753 -1.7266 9.07346 19
777 1 9.02065 -6.12808 7.9001 20
778 1 -5.60314 13.8647 0.948911 14
779 1 3.24376 7.32229 14.6531 23
780 1 1.51458 -14.0028 18.8661 16
781 1 8.05899 2.516 22.7911 19
782 1 -0.316526 12.8767 14.7318 22
783 1 4.88206 -12.7894 15.2238 19
784 1 -13.5046 0.795315 8.32615 14
785 1 4.91994 4.22335 19.6988 22
786 1 -10.8972 -9.15013 5.07862 14
787 1 0.991954 11.3174 27.2973 15
788 1 6.5385 13.3505 10.1816 16
789 1 -11.0235 -10.472 15.3672 11
790 1 -1.70172 -18.2209 15.0224 15
791 1 8.604 -2.90366 16.8813 20
792 1 10.3584 -5.70997 16.0293 21
793 1 5.18907 8.15603 17.3983 21
794 1 -1.70605 10.3462 9.55443 22
795 1 0.846358 -10.0543 2.86261 21
796 1 -1.36642 -0.739295 -1.53652 23
797 1 -2.59559 -1.58613 22.1908 22
798 1 -3.80292 12.8404 14.3762 25
799 1 15.3404 -2.7907 16.8599 13
800 1 3.1262 7.75914 4.16547 24
801 1 -2.52373 5.86815 25.7082 16
802 1 8.55264 4.38173 19.217 18
803 1 8.3123 -1.73554 -4.65835 20
804 1 -5.90919 -12.6554 16.0192 17
805 1 -3.03452 -3.81147 -1.69361 22
806 1 15.4283 -0.335 19.3384 12
807 1 5.38696 -0.319919 -2.08333 22
808 1 -5.03116 3.43444 24.8817 15
809 1 13.7606 -13.4986 9.50122 13
810 1 2.68837 7.6195 -5.95298 13
811 1 -0.667107 -9.0297 5.90286 24
812 1 13.4878 0.865979 -0.277222 20
813 1 15.427 -2.25909 10.7109 14
814 1 3.30522 -4.53481 24.6423 15
815 1 -1.82039 -12.205 0.289728 17
816 1 7.30362 15.1694 6.94226 11
817 1 -0.584087 -7.63183 13.8548 23
818 1 -9.69515 4.61441 11.4876 20
819 1 14.8126 -0.901405 7.80441 15
820 1 15.4017 8.9281 11.1242 14
821 1 4.39735 -4.93722 -8.43728 15
822 1 -6.05193 13.4634 17.4706 18
823 1 17.2048 7.88407 14.9836 12
824 1 10.4504 10.7364 3.92635 16
825 1 2.98307 0.47965 -4.1945 21
826 1 11.8605 -0.660931 8.62517 21
827 1 -8.11525 4.25266 8.78159 21
828 1 14.0422 7.8111 14.0551 21
829 1 -12.6749 -4.71754 13.3297 16
830 1 -7.45735 6.8753 -4.11528 14
831 1 7.04181 1.50924 19.7917 23
832 1 -9.01175 -6.4607 0.537014 22
833 1 -10.1923 2.7006 21.85 23
834 1 -1.74077 2.62261 1.36519 24
835 1 12.4512 -5.97055 2.09226 18
836 1 -7.3892 -13.275 3.36008 12
837 1 15.0675 -10.0769 9.7764 11
838 1 -13.1703 6.65201 9.22008 12
839 1 -9.45901 -4.86897 9.20185 23
840 1 12.0127 4.8514 19.383 16
841 1 -3.38773 -11.2952 16.5059 18
842 1 9.62389 0.93692 28.3687 11
843 1 13.3148 -5.54459 17.5292 15
844 1 10.8972 -5.68013 10.8438 19
845 1 -10.1209 6.74286 14.6204 20
846 1 8.11543 8.13628 22.8914 20
847 1 3.16201 5.89389 1.3451 23
848 1 -1.43606 -7.95238 -6.86498 15
849 1 -5.61457 11.2705 20.1535 15
850 1 -8.49822 -11.2444 18.1141 12
851 1 9.30964 12.7789 6.4424 18
852 1 1.2736 13.2984 25.0371 14
853 1 10.3353 -2.86566 2.44355 23
854 1 4.55564 -7.01134 21.9436 14
855 1 -0.409659 13.6285 -1.31818 20
856 1 1.3624 8.45636 1.56607 24
857 1 -7.21791 -2.05505 20.1046 22
858 1 15.3034 5.03172 14.4193 18
859 1 0.0944241 -5.13876 -4.81025 23
860 1 11.1904 12.5252 9.31635 12
861 1 -10.1322 7.14143 4.74165 20
862 1 -1.13579 -10.6864 21.7729 16
863 1 7.46098 11.4138 -1.05737 12
864 1 5.4811 -1.51386 19.4514 22
865 1 3.83657 -18.9189 7.68103 14
866 1 -5.5728 15.4372 15.1716 18
867 1 -13.5891 7.54763 4.82761 10
868 1 11.6445 -1.25657 -0.498789 22
869 1 3.35535 -13.8241 -1.04492 15
870 1 -10.1293 6.70283 9.5174 21
871 1 12.5312 12.5689 6.01513 10
872 1 -4.25556 -4.21036 16.8713 19
873 1 9.74809 -4.38217 -6.05176 14
874 1 -9.03541 -12.0134 5.62508 13
875 1 1.04419 -11.5569 5.38793 24
876 1 2.0148 8.04206 25.518 19
877 1 4.72752 -11.3476 4.86282 21
878 1 -0.485629 11.7634 -3.98065 15
879 1 16.9793 4.65426 6.00088 10
880 1 10.361 7.76799 14.3154 22
881 1 5.50112 -20.3859 9.93073 11
882 1 1.36125 -6.16733 -7.60055 16
883 1 12.0689 -2.6864 11.1716 19