ITEM: TIMESTEP
13000
ITEM: NUMBER OF ATOMS
2000
ITEM: BOX BOUNDS pp pp pp
-30.0 30.0
-30.0 30.0
-30.0 30.0
ITEM: ATOMS id type x y z Coordination
1 1 -5.11326 3.0091 -12.5126 12
2 1 -7.17818 -10.6742 -7.33105 12
3 1 3.83721 8.23333 21.3536 21
4 1 5.68934 -11.4365 9.38776 17
5 1 -7.8633 9.51595 4.86981 19
6 1 11.2866 -8.78753 -3.26267 18
7 1 -8.40785 4.33359 -1.87621 22
8 1 1.15054 -6.76742 16.5341 15
9 1 -7.94691 -1.29713 -8.0166 20
10 1 -10.1963 -8.1368 8.29346 20
11 1 11.4712 0.182813 -10.0914 15
12 1 -2.7183 -11.9325 5.47029 21
13 1 -12.7365 -7.42559 6.76604 13
14 1 4.22599 4.27121 24.3129 10
15 1 7.38573 -3.05219 12.6618 19
16 1 1.81855 3.03583 10.6229 21
17 1 7.12563 -3.42893 7.30398 21
18 1 -2.31734 9.07583 -4.94163 20
19 1 2.222 4.58178 13.9421 19
20 1 -6.44712 -1.59734 -12.6676 11
21 1 -8.47273 -3.18026 14.5244 21
22 1 12.5136 1.22293 15.3086 19
23 1 0.888141 8.37153 -11.5999 14
24 1 1.85625 3.90349 -10.5753 21
25 1 12.3899 -0.817167 12.5803 22
26 1 -6.09647 -0.0796079 5.66028 23
27 1 -10.8897 7.27485 -6.96049 14
28 1 -1.34755 -2.27968 -5.22208 21
29 1 -10.9542 10.9179 13.9018 11
30 1 6.01302 -11.0841 14.8617 9
31 1 0.381097 0.00519605 10.5417 24
32 1 6.87597 -11.8918 -6.92849 17
33 1 8.42827 -7.9641 4.6363 22
34 1 -1.34805 -14.1017 -1.05748 20
35 1 -9.25436 -6.15282 13.0299 16
36 1 6.06748 -7.27364 -11.6111 18
37 1 8.34312 -6.81879 -7.4957 20
38 1 -1.14536 1.78534 -13.1362 15
39 1 3.55156 1.619 16.9303 19
40 1 -0.249744 -10.4857 11.6535 18
41 1 2.9818 -3.5968 16.8709 18
42 1 -11.693 4.59235 3.30506 20
43 1 -13.8686 -0.501346 11.9893 14
44 1 -6.06502 1.90504 2.69732 20
45 1 0.832586 16.1464 -3.01575 15
46 1 4.15667 -13.166 -5.16744 21
47 1 3.38333 0.452106 -5.31249 23
48 1 6.45556 -2.00512 -9.18975 18
49 1 -4.15826 -4.85494 18.707 15
50 1 -12.7789 6.83128 -0.623387 15
51 1 6.34882 8.94661 -8.28074 19
52 1 3.83647 14.6302 16.0458 11
53 1 -8.86768 9.82717 -5.88342 16
54 1 0.14969 16.3682 3.31291 17
55 1 3.45697 -11.2349 6.63372 25
56 1 7.49049 -5.231 -0.573786 20
57 1 5.62121 -4.68506 -14.2095 18
58 1 -8.49426 8.26919 16.2388 13
59 1 -10.9581 -3.59316 0.0233973 19
60 1 6.56838 2.32261 8.08168 23
61 1 -8.4598 11.522 3.16528 19
62 1 -7.98851 -10.0966 8.70095 23
63 1 -3.07564 13.0068 17.197 7
64 1 -7.68204 11.945 -3.9568 18
65 1 -0.498013 8.18799 17.3296 21
66 1 3.50799 2.42203 -2.77682 21
67 1 -2.99916 -13.0662 10.7472 22
68 1 3.2046 6.0407 10.9782 21
69 1 8.3129 -15.0376 0.0471718 18
70 1 5.87208 10.2313 22.9593 10
71 1 -9.74376 1.76391 -1.60861 20
72 1 -8.9864 8.94932 -9.00414 15
73 1 3.87958 10.2163 13.6792 18
74 1 12.6903 -2.3702 -8.80161 16
75 1 6.65018 -16.13 8.0482 13
76 1 -14.3327 0.876321 6.67657 15
77 1 -6.16205 -4.24928 2.52721 22
78 1 6.86487 13.7892 8.4822 13
79 1 1.37829 -0.60358 16.253 21
80 1 -5.50352 -15.0006 9.01744 15
81 1 -6.56623 -1.52669 10.5198 20
82 1 9.54321 2.18121 15.3481 22
83 1 6.66749 0.761213 -0.0640845 21
84 1 0.732469 8.27869 14.3811 16
85 1 3.69778 0.0643197 10.5329 23
86 1 -6.12517 -4.10728 8.27436 23
87 1 -2.8099 -5.21638 -5.29498 18
88 1 -12.2201 12.1749 11.0506 10
89 1 -3.66492 13.7289 3.06042 19
90 1 -3.69017 6.15412 -4.66654 22
91 1 8.8111 -0.241572 -2.38084 23
92 1 7.40547 11.8553 -3.0476 17
93 1 5.66766 -6.31592 6.99267 23
94 1 6.55519 -8.10691 15.3769 14
95 1 -1.84038 17.4883 -4.67903 9
96 1 -8.62404 14.5311 7.08796 16
97 1 -6.6151 -3.46179 16.8148 21
98 1 -6.04509 9.87433 7.78275 19
99 1 -3.63257 -5.3032 13.9161 20
100 1 12.3088 -6.74967 2.18165 20
101 1 -9.30664 -0.397742 4.59972 21
102 1 -8.51531 -13.2473 6.82617 11
103 1 13.6826 -8.49024 -0.95545 14
104 1 6.87217 1.39767 -10.3441 18
105 1 -4.59522 -2.94778 -14.8775 9
106 1 0.151854 11.8982 5.53842 19
107 1 -5.92311 8.86596 -4.54845 22
108 1 2.42078 9.84117 24.071 9
109 1 -1.24751 15.2557 0.429422 19
110 1 -11.5065 13.1777 1.49276 12
111 1 2.07599 9.04254 5.5488 22
112 1 -1.41376 -5.38192 16.7084 20
113 1 12.5953 -3.83513 12.0062 17
114 1 0.14123 -5.21159 -5.73331 20
115 1 1.9257 -7.9187 -6.09085 22
116 1 -1.21857 2.56214 10.8046 21
117 1 7.89766 -3.27176 19.8906 16
118 1 -9.96452 -6.00113 5.0076 23
119 1 7.08577 -5.401 4.73922 19
120 1 -9.07423 -6.01122 -0.477167 19
121 1 9.01892 -5.87721 7.49473 23
122 1 -5.16346 8.14067 5.49326 21
123 1 4.37151 3.96168 -13.2094 17
124 1 6.32871 17.6583 0.329034 7
125 1 -4.39882 -13.1946 13.7289 16
126 1 -7.08608 -11.1583 14.0665 16
127 1 6.58502 -9.18304 -8.98579 20
128 1 5.05334 5.85295 -2.63471 22
129 1 12.6662 -10.9278 5.57463 14
130 1 0.723953 -17.0162 10.7434 14
131 1 -7.34705 -10.8093 0.770986 13
132 1 14.3057 3.84427 12.0086 18
133 1 14.947 0.320971 -3.89615 18
134 1 -15.0873 -3.81507 10.5149 11
135 1 9.75513 8.3849 12.595 20
136 1 15.0824 11.0425 7.67901 12
137 1 0.338508 -0.491253 21.4147 13
138 1 8.52815 5.39334 2.85004 23
139 1 -2.10173 11.2351 12.467 20
140 1 -4.76538 16.2615 -2.75602 12
141 1 8.95906 -10.8792 -8.36185 10
142 1 10.0987 -11.8938 -5.09464 11
143 1 3.86158 9.54415 -10.5257 13
144 1 7.96703 -2.63091 15.9895 24
145 1 1.59539 -3.59329 -15.1968 14
146 1 -3.16287 5.89435 0.511416 22
147 1 8.29567 -0.277557 2.40621 21
148 1 -9.27629 7.127 -4.52989 21
149 1 -5.21742 14.9206 0.272114 15
150 1 9.83158 1.49396 -4.91415 18
151 1 9.89613 -10.5799 6.55572 16
152 1 -5.05619 3.01051 -5.04339 20
153 1 -8.87094 12.1179 12.1712 17
154 1 12.5661 8.78752 -3.26577 12
155 1 4.79236 9.46234 0.104198 22
156 1 -5.15788 14.7838 5.74584 15
157 1 8.48995 8.85125 4.70381 21
158 1 -2.36365 10.5316 -2.19782 22
159 1 4.21976 13.2217 -9.6401 12
160 1 2.97002 8.35831 -7.71351 22
161 1 -10.3971 -10.2207 6.17586 14
162 1 -7.87832 9.64094 0.624046 19
163 1 -3.56531 -2.85867 -10.1958 20
164 1 3.68003 -7.01054 -13.7658 13
165 1 10.7062 10.2694 15.6154 14
166 1 1.03491 11.1912 13.4924 17
167 1 -10.5283 4.31478 0.360487 21
168 1 -10.0067 13.6369 4.24434 15
169 1 13.6364 0.546049 -0.488059 20
170 1 -9.69998 0.500582 -6.84009 14
171 1 7.60901 -0.679758 18.5752 22
172 1 1.67259 14.8026 10.4383 16
173 1 -4.13395 8.05375 11.5543 19
174 1 4.40429 -9.64553 -11.8063 13
175 1 -7.44442 11.3542 15.37 10
176 1 -4.47516 12.9764 -3.47811 20
177 1 1.5857 -2.53305 19.1495 17
178 1 -11.482 1.92626 5.24596 24
179 1 1.64343 -11.4566 -10.5085 13
180 1 -6.32618 10.1813 -8.14896 19
181 1 0.470588 -12.5429 7.13788 23
182 1 6.86581 -11.8145 -0.593492 19
183 1 -0.298305 8.52636 -7.37837 22
184 1 -12.8488 5.66131 11.9584 16
185 1 -0.0861294 8.10876 3.13862 21
186 1 8.17286 11.0251 2.31652 19
187 1 -3.12782 8.04735 17.0334 12
188 1 1.24163 -8.32549 10.3193 19
189 1 -4.83366 5.13821 3.02653 23
190 1 -1.04062 17.7464 8.6002 8
191 1 -2.95272 5.80119 11.0324 20
192 1 12.8809 -0.124535 18.0853 13
193 1 -6.69883 12.3811 9.29435 25
194 1 11.0888 -4.29709 -5.11065 20
195 1 -1.96125 10.0836 20.5717 10
196 1 -3.20443 0.28402 -5.00166 23
197 1 12.7502 -8.89339 8.38662 12
198 1 -4.22393 -6.77916 7.53646 20
199 1 -14.7756 2.77642 10.035 12
200 1 -4.99387 -9.01925 9.01745 20
201 1 -0.703094 1.95962 22.4084 11
202 1 -10.2987 1.63172 2.31321 21
203 1 2.38652 -14.234 5.52349 20
204 1 5.59283 -6.45075 -2.76017 20
205 1 -1.58063 10.4358 8.14536 19
206 1 -9.62409 1.77995 7.59835 19
207 1 7.86964 11.7502 20.7716 8
208 1 -6.30767 -0.0176809 0.131056 21
209 1 -4.44774 11.6897 -6.06065 20
210 1 -11.382 -0.920119 -2.03383 17
211 1 -11.1217 -0.305974 11.2893 19
212 1 3.88738 -8.97795 8.34741 23
213 1 4.53435 -14.3548 13.9242 11
214 1 -11.5044 11.3442 4.88691 12
215 1 13.2089 2.67976 7.40131 21
216 1 8.57507 3.67029 -0.037789 23
217 1 -5.93933 -9.22784 -9.62946 15
218 1 0.539329 1.08218 18.7275 22
219 1 7.94769 -13.0011 3.2149 19
220 1 -2.04905 5.28928 -7.69675 21
221 1 4.22326 -9.94457 -6.61655 20
222 1 6.82356 -0.0787621 -14.9567 12
223 1 2.96163 6.55942 -10.5648 21
224 1 -8.03404 -8.02516 -5.84875 22
225 1 -0.333326 15.5864 -6.02466 15
226 1 -10.5992 -9.00863 11.2085 15
227 1 3.2256 16.8878 -1.37837 12
228 1 -5.60981 0.857752 20.1256 12
229 1 0.503299 17.8512 -0.0590242 10
230 1 9.02539 -0.659617 13.3213 21
231 1 -0.143848 -9.99241 -7.64461 18
232 1 -3.61408 8.01807 -1.99984 23
233 1 1.79385 3.6495 -5.24771 23
234 1 -5.94313 -11.1256 11.4559 22
235 1 -7.42247 5.80745 14.5845 19
236 1 -6.84861 7.24521 12.2785 16
237 1 3.70351 -14.6289 -7.73505 12
238 1 -0.550219 -15.6465 1.5095 17
239 1 9.49621 -10.2441 3.40816 18
240 1 4.15332 -9.15253 1.89584 22
241 1 12.2533 5.35174 20.6314 14
242 1 4.36467 9.54868 -5.35585 20
243 1 1.38078 11.0327 3.01236 21
244 1 -8.14515 2.52026 4.64703 20
245 1 -10.0495 12.5987 -1.82533 13
246 1 1.6466 6.64834 17.1373 19
247 1 9.2892 -16.8178 5.94166 10
248 1 10.2949 0.796793 0.0498448 20
249 1 0.198478 5.80208 10.8102 19
250 1 -5.9312 10.7088 12.377 22
251 1 -9.71274 -0.629437 0.435987 21
252 1 4.97122 4.00478 -10.4195 20
253 1 1.92386 -1.0327 13.0704 19
254 1 10.5586 4.30473 -6.95711 22
255 1 1.80003 -13.9178 -1.75163 18
256 1 3.68446 -3.03886 -7.50216 20
257 1 2.03919 -14.9751 8.96878 19
258 1 11.8681 -0.148074 -2.92329 17
259 1 -7.17031 -4.37592 11.5773 19
260 1 5.22548 -13.5575 0.860911 17
261 1 -9.54986 -3.82157 -2.73048 20
262 1 2.98603 12.2088 0.53024 22
263 1 1.61312 -4.61127 -12.2612 21
264 1 7.3254 2.52156 19.6429 21
265 1 15.5329 5.97997 6.48491 15
266 1 -3.10303 -5.58145 -0.00169881 22
267 1 13.4827 -4.35681 -6.51876 15
268 1 -1.32575 -8.81192 5.2762 20
269 1 -4.74605 -7.91982 -6.58897 21
270 1 -6.63329 -0.175535 -4.94446 23
271 1 -4.81247 -16.1498 11.7245 12
272 1 12.2559 -2.5186 9.48324 22
273 1 5.43888 -2.89308 10.5649 23
274 1 -5.59033 -9.74619 -4.2322 18
275 1 2.11752 -6.54969 7.46927 24
276 1 1.25617 5.66586 -7.82068 24
277 1 5.10821 8.97557 5.57757 23
278 1 -7.25446 -7.13554 8.16989 20
279 1 3.55845 12.1368 5.93172 23
280 1 -5.45681 -2.40271 13.9129 20
281 1 -9.67775 -3.82677 -8.05943 16
282 1 -3.11387 -9.01855 -8.86706 19
283 1 -2.11039 10.0648 -11.6814 11
284 1 -3.39887 -12.6114 -3.27853 16
285 1 -2.8178 -9.76383 2.89585 23
286 1 9.75652 -2.69228 -10.8365 15
287 1 16.8228 1.4734 -1.87687 12
288 1 10.8709 2.15352 12.4335 21
289 1 -3.0269 -3.52591 -2.54316 23
290 1 -9.34824 -2.78704 11.1625 21
291 1 1.48211 -13.2699 1.51861 22
292 1 6.63319 2.49316 22.5362 14
293 1 -2.08628 -16.2411 10.429 20
294 1 2.72998 -11.131 3.59013 21
295 1 2.90125 17.8501 4.43255 15
296 1 5.10033 -2.41045 -15.8115 16
297 1 -3.43044 -7.69699 -11.8446 17
298 1 -7.11123 -9.0758 16.4054 13
299 1 5.25757 7.4118 23.6292 13
300 1 2.99049 -15.7969 0.577708 22
301 1 -2.007 -13.8863 -6.19241 10
302 1 -7.26182 7.53931 -6.73791 23
303 1 10.0487 6.09094 10.0295 19
304 1 -6.91889 1.91721 -7.09505 18
305 1 -0.198294 6.51813 -5.05874 22
306 1 0.762145 -5.59629 10.5869 23
307 1 6.70823 -13.6341 -4.03957 16
308 1 1.50725 16.4942 7.13124 16
309 1 1.59628 9.05891 10.8706 20
310 1 12.3187 -0.191139 7.33151 21
311 1 -11.1141 -0.983779 7.0502 19
312 1 2.67839 -6.6527 12.7803 19
313 1 -3.6905 11.43 10.1533 18
314 1 7.46162 -4.76684 -10.0892 21
315 1 11.6419 10.9935 2.34789 18
316 1 7.42088 -9.62937 1.57216 22
317 1 -1.73123 -3.0606 19.4436 16
318 1 -12.1779 -4.23745 12.2091 16
319 1 4.63498 -16.4148 -4.61348 15
320 1 -1.5013 10.9553 15.8726 19
321 1 -9.75365 5.63342 16.8328 16
322 1 -12.1116 -4.59873 15.6642 8
323 1 -10.0918 -5.68392 10.0059 21
324 1 15.0917 -6.13654 2.34497 10
325 1 -7.26235 -7.90062 11.6901 22
326 1 9.19857 -3.07662 -7.75513 21
327 1 11.9573 -14.242 -0.430434 13
328 1 1.87973 14.0415 -2.25875 20
329 1 -3.15178 12.3393 -0.236883 21
330 1 9.76365 7.10906 15.475 18
331 1 -8.217 -1.47638 7.90228 22
332 1 6.88593 -7.85468 -0.382353 21
333 1 -3.119 11.8489 5.28541 20
334 1 -4.40115 4.36486 8.62519 22
335 1 3.23038 -9.71911 11.6129 19
336 1 12.4217 -5.5216 6.89025 21
337 1 -6.36661 7.24001 9.03004 21
338 1 -6.36287 -3.61286 -2.53154 24
339 1 2.29277 4.00472 18.5841 15
340 1 -0.75248 14.2368 13.0847 15
341 1 10.6277 2.60959 21.6768 13
342 1 -5.4282 13.3407 -8.74593 11
343 1 1.59541 -8.2449 -12.3737 18
344 1 -4.64111 -0.948769 -2.27373 24
345 1 8.78177 -9.30304 -5.47137 19
346 1 -3.42376 4.83128 17.4202 18
347 1 -13.0515 7.13923 9.14355 15
348 1 -4.68126 -2.61428 -5.2154 26
349 1 -6.0036 12.119 1.3316 20
350 1 10.4636 -3.37686 7.10335 22
351 1 -8.08526 -11.0504 3.91153 15
352 1 5.9517 -6.34114 12.8297 20
353 1 -9.55612 -9.28536 14.0396 12
354 1 -12.5263 10.6777 2.48498 8
355 1 -0.523557 -5.48927 19.528 10
356 1 5.95301 -11.0021 -3.9149 21
357 1 -0.387198 -6.91597 -8.02756 20
358 1 7.49502 -3.5277 -16.1376 9
359 1 3.98863 13.883 8.7454 17
360 1 -7.65545 -1.4228 2.82485 21
361 1 5.6641 -7.33752 -5.83945 20
362 1 9.44547 2.81166 -10.4035 18
363 1 -0.327532 -12.4858 -3.3381 15
364 1 -10.6184 -10.1245 0.391537 9
365 1 0.103363 -11.7453 4.19538 21
366 1 7.47891 6.02474 19.0393 19
367 1 13.7998 0.519982 4.58605 19
368 1 -8.66475 2.92146 -4.80449 18
369 1 2.36184 14.8248 1.21424 19
370 1 -12.4543 3.78197 -2.78175 14
371 1 -11.7625 9.04796 11.5274 17
372 1 -6.21146 12.3009 5.94015 21
373 1 -5.92082 4.19766 12.1408 19
374 1 14.5468 5.78022 18.2364 10
375 1 15.5885 -2.01554 -1.1064 12
376 1 6.9231 -5.38616 17.475 11
377 1 10.3972 3.02317 -2.44949 20
378 1 -2.65574 -16.8463 0.0241587 11
379 1 -3.22784 7.94094 3.25023 23
380 1 1.99035 -8.63196 -0.932408 22
381 1 0.364752 7.89541 8.24681 24
382 1 -6.56941 1.86325 -2.361 22
383 1 3.27033 -11.8129 0.403136 22
384 1 10.2724 0.145823 10.2142 23
385 1 -7.66724 -2.9378 0.194212 25
386 1 -4.5556 -9.91209 5.9695 18
387 1 -6.58097 -5.64684 14.37 21
388 1 -0.580847 13.4974 3.51526 20
389 1 -7.81891 -6.84041 2.38579 21
390 1 7.49755 8.0172 21.2428 19
391 1 -9.67171 9.41036 -2.82559 16
392 1 1.22468 13.1552 -4.98294 20
393 1 3.36999 11.6556 10.8819 18
394 1 -10.4704 -8.66849 3.54288 16
395 1 -2.88043 -11.2211 -0.427378 21
396 1 -12.1006 1.42519 8.91507 22
397 1 -12.4023 10.5507 -0.858193 9
398 1 5.53271 -11.4858 12.3712 16
399 1 -6.02775 -9.29863 2.82673 20
400 1 11.4751 7.19277 17.9755 17
401 1 8.16184 5.27681 -11.7428 12
402 1 -8.30318 3.60303 -11.1833 10
403 1 -3.27641 14.8348 -4.97774 18
404 1 -6.84585 7.68249 -2.19206 23
405 1 -0.0721334 -13.5479 10.595 21
406 1 11.7524 3.57259 9.92587 21
407 1 2.00755 11.7944 -10.5811 12
408 1 -3.2698 -0.00324825 14.4457 19
409 1 -13.0213 2.39378 1.37421 17
410 1 -9.20349 8.8616 12.9558 23
411 1 -2.49095 -13.7451 7.90564 20
412 1 3.49887 -3.13324 -2.58548 22
413 1 8.68989 -6.33502 -3.58137 22
414 1 -1.07976 -3.02874 10.5567 21
415 1 -9.87985 4.48456 7.11469 20
416 1 -9.3684 -0.917943 16.5539 16
417 1 -11.8229 10.0122 8.22547 16
418 1 2.33767 -2.92201 10.6314 24
419 1 -6.18587 0.883935 -10.3839 15
420 1 9.61659 -12.6846 0.925676 19
421 1 -0.800725 -8.61512 -10.5657 19
422 1 0.769888 -3.77794 13.3195 18
423 1 3.61517 -8.70546 -3.68795 19
424 1 -3.56493 -0.331492 -13.0068 14
425 1 6.60497 -15.0086 5.07686 17
426 1 1.14854 10.9859 -2.10771 24
427 1 -11.4651 13.47 7.65677 13
428 1 -4.87505 -1.84006 19.2114 12
429 1 -7.66226 -6.34632 -8.43853 19
430 1 -5.24375 -6.26103 10.3226 17
431 1 7.72912 -9.086 12.5376 14
432 1 11.8417 5.49071 7.5738 19
433 1 1.89298 -2.35423 -5.12644 21
434 1 9.45706 -8.31037 9.54171 17
435 1 12.1878 9.41242 -0.459062 16
436 1 -3.86026 2.53476 11.6705 20
437 1 4.87169 11.1101 3.09831 21
438 1 6.10315 -8.24249 10.0339 19
439 1 3.0529 -17.9667 -1.96433 13
440 1 3.32028 1.00452 22.3845 15
441 1 1.63725 15.7131 13.7249 10
442 1 -10.575 -9.59925 -6.0699 11
443 1 9.71466 11.9921 5.07212 17
444 1 2.01144 10.5517 16.2172 18
445 1 -6.96237 5.40954 17.8516 12
446 1 -6.28277 -5.96956 -0.0942375 23
447 1 -14.7065 -0.412338 9.49884 14
448 1 -6.93277 -8.7554 -2.04962 16
449 1 -9.19894 11.6113 6.83504 21
450 1 -4.59121 -8.53308 -0.340924 21
451 1 -4.18151 -12.2455 -8.49192 12
452 1 -0.885891 -14.7299 4.47808 22
453 1 -2.09253 -5.70127 10.9814 21
454 1 7.07027 -0.0522458 10.7245 24
455 1 -8.49141 -0.684282 13.3652 22
456 1 -10.3628 5.5955 -9.44864 11
457 1 10.1932 2.83414 2.87232 22
458 1 -1.42871 -12.3877 1.9843 22
459 1 1.69934 5.42953 -2.61227 23
460 1 -0.323074 18.2344 5.41322 9
461 1 -1.60218 5.10712 -2.42677 22
462 1 3.88767 7.12688 13.9726 18
463 1 -13.4325 -3.31083 2.5935 10
464 1 2.94159 15.0515 -6.9017 11
465 1 7.73136 9.44562 -5.58871 18
466 1 -9.34303 -9.0129 -8.9579 10
467 1 3.53596 -0.354498 19.3638 18
468 1 0.655836 -15.5181 -7.35041 8
469 1 0.490589 -3.20467 -7.9857 21
470 1 10.5954 -13.4131 5.62379 12
471 1 -12.7351 7.54194 4.05519 11
472 1 4.5649 2.71664 19.6185 20
473 1 9.90025 8.18244 2.04158 23
474 1 3.48782 8.41266 2.56455 21
475 1 -8.57991 4.64582 -7.50933 19
476 1 5.57877 -0.546476 -2.61923 22
477 1 6.0592 -10.8032 4.48092 20
478 1 -13.2256 0.00418427 3.83649 17
479 1 -1.05822 16.7479 11.8992 11
480 1 -3.3166 2.2632 -7.77501 21
481 1 10.301 6.459 4.51562 22
482 1 5.3034 14.3966 -1.8466 15
483 1 7.51244 -3.7167 2.26884 19
484 1 13.6712 2.59247 2.08815 17
485 1 1.7549 2.11039 -13.2172 17
486 1 1.95534 -8.63981 4.64139 23
487 1 2.0758 -12.3168 13.3574 17
488 1 3.54137 -9.17627 14.9239 16
489 1 -5.42181 5.11441 -7.34701 19
490 1 -7.95438 -13.7249 9.64138 15
491 1 -0.999578 -12.6994 -8.89968 12
492 1 8.73463 10.9352 7.63165 19
493 1 3.35871 2.7464 -7.82242 23
494 1 4.6779 -3.24073 19.427 16
495 1 -11.3041 -1.94651 13.5279 16
496 1 1.68548 -16.5049 3.15876 18
497 1 -14.4534 -2.57158 7.19884 15
498 1 13.2505 -2.89805 -3.62587 16
499 1 12.3257 -2.21446 -0.710852 18
500 1 -4.83841 8.83572 1.02444 24
501 1 2.05631 -11.7421 -7.22361 19
502 1 4.90071 3.81086 -5.43182 21
503 1 8.58319 -1.76326 -5.04722 23
504 1 -2.47264 0.173261 19.9197 15
505 1 6.05772 17.1961 3.59001 11
506 1 -5.68422 -5.0472 -12.5366 14
507 1 4.51192 1.14715 -14.9515 11
508 1 -6.96185 1.6046 12.2131 20
509 1 -1.36982 14.7987 5.86626 19
510 1 -7.39864 -3.77221 -10.4645 15
511 1 -13.2409 3.82151 6.98967 15
512 1 -0.978858 -5.59084 -12.7612 19
513 1 -0.530943 -6.19037 13.7764 19
514 1 -0.0333352 8.14265 -2.46373 23
515 1 13.3763 0.871151 10.36 22
516 1 13.4724 6.56738 -1.09218 17
517 1 -4.893 -12.2797 2.20262 18
518 1 0.88331 -9.67839 1.98359 21
519 1 -3.85457 -5.8626 -14.9967 10
520 1 -8.56742 9.93581 9.85471 20
521 1 5.09291 -6.24195 -8.35006 19
522 1 3.50497 6.12508 0.0986936 21
523 1 10.1333 0.723367 5.00608 22
524 1 1.94438 11.286 -7.3709 22
525 1 5.82031 -6.30988 1.93053 19
526 1 13.3232 3.00965 -2.92507 23
527 1 5.1035 10.8296 16.5997 17
528 1 -8.49884 2.85109 14.7474 21
529 1 6.81028 7.74196 13.3403 21
530 1 10.0606 -4.28184 17.2149 14
531 1 -0.45606 -0.539434 -14.9234 10
532 1 -4.89702 -6.35319 -2.88791 22
533 1 -0.75855 -0.953431 13.2814 22
534 1 7.10721 10.9962 12.9512 16
535 1 8.21412 6.6971 -7.63128 20
536 1 -8.57735 12.458 -7.35854 11
537 1 0.00244859 12.2514 0.391827 22
538 1 8.17409 -5.94708 14.7836 16
539 1 12.5488 3.30257 -9.14294 16
540 1 10.3254 -7.05718 -0.844432 20
541 1 12.8435 7.43281 15.4436 15
542 1 -14.7365 -5.78708 7.73328 11
543 1 -3.0527 10.1795 -8.77067 17
544 1 0.162546 2.11848 13.3112 17
545 1 -10.1596 2.05687 17.0834 12
546 1 -2.37517 15.4905 -8.05576 10
547 1 5.95123 -17.4613 0.133053 15
548 1 6.81413 1.06126 -5.05933 21
549 1 -2.31931 16.0194 -1.83603 16
550 1 -11.2535 -6.78923 -7.61311 12
551 1 4.54287 -16.061 10.6597 13
552 1 -11.0936 -6.7976 1.59222 17
553 1 -1.53221 12.1155 -5.15805 18
554 1 -7.10386 5.3243 -4.25859 20
555 1 0.0366057 9.20814 23.2723 10
556 1 -2.33454 -8.13782 13.2921 22
557 1 8.2602 5.66292 -2.56927 22
558 1 2.25503 -11.6083 -3.78485 20
559 1 3.93766 -3.78276 13.6035 21
560 1 6.75514 2.45306 -2.4662 24
561 1 -6.9874 7.50683 3.00126 20
562 1 12.0188 -0.356444 21.4266 12
563 1 3.98299 12.763 -4.15987 16
564 1 10.5121 -3.57362 1.60124 17
565 1 4.70886 11.2517 20.4044 17
566 1 -1.56595 3.58326 -10.4242 21
567 1 -3.99252 -10.3419 15.666 14
568 1 0.214523 0.576383 -5.0113 24
569 1 4.74818 -1.30088 -12.896 17
570 1 3.94435 13.8293 12.5799 13
571 1 12.7819 2.29245 -6.28985 21
572 1 -1.09184 -5.04511 -10.1883 18
573 1 -2.95986 -9.19742 -2.89055 22
574 1 -6.25096 -5.59963 -5.44605 21
575 1 11.9539 3.78839 4.82204 21
576 1 13.6694 8.22627 1.95623 16
577 1 6.99748 -4.70847 -6.05257 22
578 1 14.8752 3.85541 14.9712 13
579 1 8.58495 -9.44126 -2.05474 16
580 1 5.78977 6.65109 -12.5223 11
581 1 6.77041 11.8092 6.07819 20
582 1 -7.59471 4.38799 9.57887 19
583 1 9.46135 5.76933 21.6285 12
584 1 10.1283 6.37436 -0.541659 21
585 1 15.4461 0.426421 7.78272 15
586 1 14.205 5.70694 -4.67936 15
587 1 10.3828 -0.829443 16.4575 21
588 1 12.7477 3.52757 17.538 17
589 1 -0.189959 -2.73959 16.1999 18
590 1 11.3583 15.0492 -0.0246593 9
591 1 4.76086 -1.29782 16.2777 19
592 1 11.9803 3.76087 -0.54395 19
593 1 8.49795 3.18333 10.6747 22
594 1 -7.77777 -2.78237 -5.21654 24
595 1 12.0389 5.73072 2.01072 22
596 1 8.77844 -2.26474 4.44901 21
597 1 -11.7109 7.86697 14.9134 12
598 1 9.48172 11.3692 18.2893 11
599 1 13.6582 2.33428 20.153 11
600 1 6.19772 12.6731 17.9653 13
601 1 -0.395662 11.3544 18.7219 18
602 1 5.03136 2.91986 10.9842 25
603 1 -0.763264 -16.0077 7.63535 22
604 1 -5.54044 10.6965 -1.94299 17
605 1 12.5721 6.47303 -7.18712 12
606 1 8.50912 0.0207717 -12.052 13
607 1 5.44614 13.8368 3.51223 15
608 1 -1.74752 -8.30563 -5.64345 19
609 1 10.8437 -5.07552 -8.73326 17
610 1 -11.6727 4.40806 9.48828 20
611 1 -3.43251 7.77121 -7.38245 22
612 1 -2.3439 -18.9919 6.45202 11
613 1 -4.66382 -0.548171 -7.80357 23
614 1 -7.97843 2.58765 0.682471 24
615 1 7.35559 -5.54799 10.0426 22
616 1 13.532 11.7545 4.56439 12
617 1 7.11072 -9.26086 7.22717 22
618 1 -8.14638 -0.938617 -2.43403 22
619 1 1.90555 -1.03188 -12.7146 19
620 1 1.71406 3.36938 22.1942 15
621 1 8.367 8.38364 -10.5764 10
622 1 12.7239 -2.62302 15.3729 14
623 1 8.31699 3.79957 -5.31844 22
624 1 12.7901 11.5674 10.5653 14
625 1 4.54116 -13.6104 -2.14192 20
626 1 -9.66913 -3.73409 18.102 12
627 1 14.7601 -3.00379 7.61675 16
628 1 2.79144 9.68718 19.0177 22
629 1 5.49609 11.934 -6.76479 15
630 1 -7.18393 14.1815 -1.78372 15
631 1 11.9355 8.73894 9.88262 25
632 1 -5.77673 -12.6395 4.81097 15
633 1 14.9596 -4.9138 5.1608 14
634 1 4.77883 15.6643 6.04929 15
635 1 -2.16921 3.30405 14.4602 17
636 1 -11.4957 -3.43454 5.34342 20
637 1 -5.9123 -3.4452 -8.17107 22
638 1 10.2813 -3.47393 13.7659 21
639 1 -1.29151 -8.64803 16.4891 14
640 1 9.96679 1.44603 18.7729 23
641 1 -1.52767 14.9619 9.84323 16
642 1 6.76455 5.98181 10.8804 22
643 1 8.24495 5.22066 7.99731 21
644 1 2.03592 -0.170819 -7.70214 24
645 1 -11.9963 -2.50726 9.47022 23
646 1 7.30079 2.9375 -13.3455 14
647 1 -1.35676 -6.51623 -2.47544 22
648 1 13.7483 -11.6921 -0.0407847 12
649 1 6.78011 3.12765 17.0241 19
650 1 5.14924 5.09644 8.15377 23
651 1 -7.22853 -6.34638 18.45 10
652 1 6.54963 6.96853 16.2069 21
653 1 5.68773 -0.631723 21.4657 14
654 1 -0.294259 5.54563 15.4814 17
655 1 2.46225 -5.66609 -9.48442 18
656 1 -5.65392 2.60717 18.1717 19
657 1 4.69423 5.09999 17.3055 18
658 1 -7.22295 -14.1445 12.4183 12
659 1 13.2518 7.06661 4.62966 18
660 1 11.9821 -11.5747 -2.67367 11
661 1 -3.26875 2.48337 -2.53714 20
662 1 8.31993 9.38371 -0.307204 21
663 1 11.926 11.241 7.73948 20
664 1 2.84792 -2.22417 -10.2342 20
665 1 -6.16075 1.45198 8.84601 22
666 1 4.47818 11.0733 -2.11796 21
667 1 11.9189 9.51489 4.63813 23
668 1 -4.31797 -6.8469 2.76429 20
669 1 -1.15493 -3.94999 -15.1822 12
670 1 -8.52727 13.5321 0.93818 16
671 1 11.2166 -6.79831 -6.05625 15
672 1 6.68669 6.31993 5.44888 23
673 1 15.0367 4.10934 -7.15573 13
674 1 6.23082 12.1402 0.704547 18
675 1 -3.22091 7.66218 7.97436 20
676 1 -6.30586 5.56391 6.22879 21
677 1 6.42085 6.64341 -5.43653 23
678 1 10.4823 -1.80414 19.5862 15
679 1 11.7183 -5.97714 14.8609 12
680 1 0.980677 -8.90834 14.3237 19
681 1 -1.23947 7.00794 -9.64365 21
682 1 6.56742 13.0841 14.6981 13
683 1 9.18674 -7.8573 -10.6714 12
684 1 4.08894 1.49974 14.0605 21
685 1 6.49144 8.88517 -2.79889 20
686 1 8.32102 8.94691 10.469 17
687 1 13.6245 -4.93328 -0.540481 19
688 1 5.66566 5.14526 21.5302 19
689 1 -12.2014 -5.02622 7.99481 21
690 1 4.45926 -13.2872 3.75729 19
691 1 -0.0432553 -3.03081 -2.46667 22
692 1 -7.01385 14.1442 3.72418 18
693 1 -2.68594 -0.513904 10.899 21
694 1 4.07719 -5.35704 -0.552814 20
695 1 5.11098 11.0361 8.84537 22
696 1 -12.7962 -0.850051 0.559798 16
697 1 2.80463 5.97426 20.0447 21
698 1 -2.69621 5.37723 -12.6576 13
699 1 -5.46018 8.90394 -10.5706 14
700 1 3.70942 -18.8851 4.47433 13
701 1 9.99618 10.4586 -3.18394 15
702 1 4.84863 -8.44691 5.29935 21
703 1 -3.10567 5.76477 5.52807 23
704 1 -11.3494 4.20454 14.6448 15
705 1 4.51661 -4.76174 -11.5736 17
706 1 4.89033 -13.7828 7.71953 20
707 1 2.37469 14.345 4.83888 22
708 1 -1.81576 2.33967 17.1897 22
709 1 -8.05013 -6.55676 -3.15996 19
710 1 -3.24098 -10.8933 -11.2051 12
711 1 -4.72037 -14.386 -0.859083 12
712 1 -1.0833 13.411 -2.6378 22
713 1 3.4874 -5.28041 -4.99422 21
714 1 -0.11108 11.8112 10.1845 19
715 1 11.8042 -9.64784 0.92699 16
716 1 10.4115 -15.0988 3.06786 15
717 1 4.24855 -5.6888 9.9842 20
718 1 17.1094 1.13338 -6.77008 9
719 1 7.24823 -16.6537 -2.68233 8
720 1 -12.8665 2.33751 12.0329 16
721 1 1.13387 -18.2299 7.2808 12
722 1 -5.94041 -11.5573 -1.63812 15
723 1 -11.4404 1.08247 14.2479 19
724 1 -2.00448 -17.432 3.28381 12
725 1 15.0819 3.54134 5.19921e-04 14
726 1 -4.05931 14.1324 11.6137 15
727 1 -8.89975 0.525142 9.86908 21
728 1 -9.04548 8.11767 7.36458 22
729 1 8.76972 -0.434879 7.87153 21
730 1 -10.7745 -2.23203 -5.11087 15
731 1 -1.59918 8.7136 0.35339 22
732 1 8.53959 0.612058 -7.80487 20
733 1 10.649 8.83589 20.6096 10
734 1 9.7843 7.4814 -4.81686 18
735 1 -10.9193 4.48242 -5.80468 14
736 1 -11.6335 -5.97082 -3.98089 13
737 1 -0.791582 5.34969 21.7147 12
738 1 4.41098 5.72965 -7.84488 22
739 1 12.5135 9.44443 13.0982 17
740 1 -5.15014 2.69756 14.9548 20
741 1 0.27145 -17.747 -1.10398 12
742 1 -4.51361 -17.811 8.4509 11
743 1 -1.9854 -8.34812 9.95646 19
744 1 15.001 6.82474 13.1508 11
745 1 1.79385 -6.28576 -2.88807 21
746 1 -5.58595 10.3673 3.6701 21
747 1 6.57281 8.1946 2.82761 22
748 1 -9.33789 -4.54605 7.9178 20
749 1 10.6403 5.88956 -9.57962 13
750 1 1.49701 -17.6126 -4.69294 9
751 1 6.80962 -18.2289 5.28628 13
752 1 8.52246 -17.4893 2.41126 12
753 1 6.88628 4.01189 -7.97403 19
754 1 3.20531 17.8532 1.44066 14
755 1 -3.1896 0.782094 -10.4639 18
756 1 -1.54345 -0.0515554 16.6694 18
757 1 0.369665 5.07944 -12.862 16
758 1 -8.85808 0.0543631 -10.3742 10
759 1 -13.9581 1.39784 -1.49366 10
760 1 0.838072 14.0538 -8.79983 13
761 1 10.0222 2.44305 7.87826 22
762 1 -4.45281 -5.8196 -9.62901 19
763 1 -6.21599 -5.87859 5.24129 20
764 1 16.0627 3.29889 -4.6124 15
765 1 10.4379 -8.05438 6.31763 21
766 1 -5.19053 9.66928 15.3372 14
767 1 7.53746 -12.6942 6.97036 15
768 1 16.6778 -2.89567 2.33629 10
769 1 12.2212 -7.19167 12.0357 10
770 1 1.77906 10.7948 7.90962 21
771 1 -8.58287 3.25843 19.3987 11
772 1 -4.18283 5.9299 14.2131 20
773 1 -1.62468 -14.5005 13.0667 13
774 1 8.30482 3.59886 5.43862 22
775 1 8.82419 8.58378 18.0577 21
776 1 -10.7234 -2.04681 2.94258 21
777 1 9.18567 -6.64984 2.01618 19
778 1 -6.61499 14.3284 -4.7724 12
779 1 3.33729 7.93066 8.33737 25
780 1 1.98089 -15.8237 12.7928 11
781 1 7.26926 0.527081 16.0857 21
782 1 0.815439 13.6751 7.82779 21
783 1 2.40088 -11.3612 9.13048 20
784 1 -14.1684 2.9682 4.26105 14
785 1 5.32063 4.52169 13.3431 18
786 1 -12.3911 -7.43285 -0.925974 9
787 1 1.13269 11.704 21.467 12
788 1 7.97498 15.0009 4.59979 14
789 1 -10.6757 -11.4172 8.93521 13
790 1 -1.24522 -19.0087 9.13272 11
791 1 9.00796 -2.83802 9.92311 21
792 1 10.8887 -5.69619 9.7052 20
793 1 4.97673 8.5857 11.0538 20
794 1 -2.21535 10.7727 2.30492 21
795 1 0.181715 -9.02974 -3.81476 17
796 1 -1.36348 -0.265162 -7.76057 24
797 1 -3.93223 -2.60628 16.1627 21
798 1 -3.74629 14.3536 8.06295 16
799 1 14.964 -1.54175 10.5807 14
800 1 3.23383 8.50861 -2.29071 23
801 1 -0.963116 5.2871 18.3881 16
802 1 8.39715 4.57103 13.7472 20
803 1 7.48196 -2.82654 -12.8753 21
804 1 -5.268 -12.3314 8.06079 23
805 1 -2.54056 -3.31309 -7.83373 21
806 1 15.0962 0.928728 12.9181 10
807 1 5.34321 0.135329 -7.62652 20
808 1 -2.78767 2.91389 20.2322 15
809 1 12.5535 -12.8971 2.86456 14
810 1 2.97981 7.32211 -13.5145 11
811 1 -1.30971 -8.5585 0.304053 20
812 1 14.5141 0.608439 -8.63859 14
813 1 16.2218 -1.59419 5.24319 12
814 1 2.33679 -5.50514 18.6511 12
815 1 -3.04855 -10.9067 -5.82788 18
816 1 9.12785 17.0048 2.02308 9
817 1 -0.995362 -6.70733 7.6679 23
818 1 -11.7333 6.62365 6.60998 17
819 1 15.4655 -0.177071 1.93324 14
820 1 15.2808 9.13999 4.86602 12
821 1 3.83872 -5.06444 -16.5134 10
822 1 -6.98669 14.3357 11.991 13
823 1 14.7658 6.06481 9.77237 17
824 1 12.1644 12.2199 -1.15698 11
825 1 3.57256 1.06519 -10.7985 22
826 1 11.8024 -0.255742 2.37418 21
827 1 -8.26885 4.84659 2.4915 18
828 1 13.8204 8.27138 7.64571 22
829 1 -12.9154 -6.41043 4.3488 13
830 1 -7.07622 6.63511 -9.60699 19
831 1 7.00507 2.04746 13.5046 19
832 1 -9.40848 -5.42192 -5.64175 19
833 1 -9.72162 3.21612 11.4672 24
834 1 -1.49499 3.44263 -5.13516 22
835 1 13.5923 -6.35288 -3.77191 12
836 1 -8.72668 -10.5629 -3.76544 13
837 1 14.4366 -10.1914 2.5266 10
838 1 -14.2838 5.47001 1.87606 11
839 1 -9.39157 -4.39909 2.54803 22
840 1 12.5666 6.61802 12.0513 21
841 1 -3.0806 -10.2125 11.6319 19
842 1 8.52844 -0.461183 21.8919 14
843 1 14.5825 -5.24442 10.0765 12
844 1 10.5215 -5.23318 4.37866 23
845 1 -9.80101 6.93772 9.93551 22
846 1 7.69668 9.57056 15.7303 21
847 1 2.96554 6.70033 -5.11781 23
848 1 -1.52197 -8.57495 -13.8088 13
849 1 -4.55983 12.5913 14.0997 13
850 1 -9.38316 -11.9261 11.8654 15
851 1 8.43731 12.9644 -0.624126 14
852 1 2.69096 12.664 18.4992 16
853 1 10.107 -3.50354 -2.41933 20
854 1 3.98274 -6.11317 15.5105 17
855 1 -1.93703 13.2026 -9.55346 11
856 1 0.908948 9.63226 -4.95009 22
857 1 -2.32155 -3.04951 14.0488 21
858 1 16.081 3.77476 8.57978 11
859 1 2.48429 -8.78523 -9.18576 22
860 1 10.0074 13.8357 2.4165 17
861 1 -9.78649 7.00463 -1.14516 20
862 1 -1.43777 -11.3998 14.3292 17
863 1 7.42951 11.5217 -8.67682 9
864 1 5.5213 -0.919738 13.3765 21
865 1 2.94339 -19.076 0.91522 12
866 1 -6.52938 15.7409 8.87386 12
867 1 -14.8354 4.97886 -1.68592 8
868 1 11.2616 -1.08446 -6.95106 17
869 1 7.10174 -13.8001 -8.71083 8
870 1 -9.17642 6.24851 4.84728 18
871 1 13.6518 12.8416 1.10799 9
872 1 -4.1644 -3.19782 11.1047 21
873 1 8.4036 -5.47011 -12.8976 14
874 1 -11.3416 -8.78785 -3.01491 12