ITEM: TIMESTEP
12000
ITEM: NUMBER OF ATOMS
2000
ITEM: BOX BOUNDS pp pp pp
-30.0 30.0
-30.0 30.0
-30.0 30.0
ITEM: ATOMS id type x y z Coordination
1 1 -9.98914 6.8084 -15.8303 10
2 1 -5.28485 -6.98767 -4.24211 19
3 1 5.78677 9.41592 15.4218 18
4 1 11.0996 -9.68746 6.23425 8
5 1 -12.6282 13.3254 -7.04597 11
6 1 10.8536 -6.49818 -9.5626 15
7 1 -6.70161 6.10279 -8.56738 21
8 1 2.10074 -7.31574 12.8384 13
9 1 -9.10958 4.05163 -7.73901 15
10 1 -16.146 -4.10578 4.15339 7
11 1 11.7904 7.9113 -14.2884 10
12 1 -6.99146 4.58909 2.11825 17
13 1 -11.8665 -10.7884 -2.37591 11
14 1 -15.3152 -10.7171 5.61547 10
15 1 2.36249 4.33343 17.4285 11
16 1 6.4807 -2.95656 4.77369 15
17 1 1.09572 4.22098 8.13833 17
18 1 8.74746 -1.62833 0.0880232 17
19 1 3.60154 13.3138 -6.42861 23
20 1 2.97097 0.959914 15.524 13
21 1 -4.6711 1.51289 -15.2462 21
22 1 -9.19669 0.410868 14.4938 12
23 1 14.2449 9.57027 9.33162 18
24 1 5.23034 12.7243 -12.4908 12
25 1 5.97591 10.1456 -11.0299 17
26 1 14.8867 6.33447 10.9427 15
27 1 -7.71085 -0.558623 5.18155 19
28 1 -13.3279 10.0706 -9.46444 9
29 1 -1.98328 1.67088 -6.53765 20
30 1 -14.0983 10.9796 2.43246 14
31 1 7.16795 -12.1979 1.90272 14
32 1 1.05598 -1.35926 5.1134 17
33 1 -1.45411 -8.01404 -10.761 21
34 1 9.95797 -10.0269 3.04043 12
35 1 -10.1243 -11.53 -0.299071 15
36 1 -6.78226 -1.48143 11.937 15
37 1 1.53402 1.86437 -7.41188 22
38 1 1.61261 -7.49821 -12.9351 20
39 1 8.54344 -3.64607 -15.4491 10
40 1 -4.71381 7.46201 -16.4233 15
41 1 -1.30267 7.4077 11.6822 17
42 1 -4.53865 -12.104 1.80717 18
43 1 6.81673 -8.66773 10.077 10
44 1 -14.8712 4.18165 2.93968 21
45 1 -14.8848 -0.357225 8.76383 11
46 1 -13.1942 2.89314 0.548402 21
47 1 0.370293 14.45 -2.21666 22
48 1 -1.60798 -13.1129 -10.602 8
49 1 3.45495 -0.102273 -13.5884 18
50 1 4.34715 -5.40674 -5.34088 20
51 1 -0.572656 -2.88605 12.7009 17
52 1 -15.3596 8.06348 -6.73273 15
53 1 6.13866 13.8502 -10.0299 18
54 1 2.10169 15.7786 12.2145 14
55 1 -10.321 7.44837 -9.70674 16
56 1 -3.25222 17.311 3.83883 18
57 1 6.85771 -8.70393 2.13019 20
58 1 7.91986 -1.00637 -13.0273 19
59 1 -2.51433 -8.27069 -16.6163 11
60 1 -9.98439 12.2005 9.1016 13
61 1 -13.782 0.488233 -10.0699 11
62 1 7.42686 2.62105 2.27081 18
63 1 -5.19893 8.89434 -9.15537 18
64 1 -6.02626 -10.0081 4.2847 19
65 1 -1.02195 14.81 14.0235 10
66 1 -13.5381 6.56196 -5.00461 19
67 1 -5.37527 14.4708 12.6573 11
68 1 2.62779 7.6283 -5.10391 18
69 1 0.240693 10.7227 7.14541 21
70 1 -9.07944 -12.6667 4.78404 11
71 1 -2.37907 10.8729 11.4633 16
72 1 7.10795 -8.3727 -9.28887 19
73 1 3.63621 12.3372 16.3938 13
74 1 -11.9307 5.65655 -13.0804 13
75 1 -7.06021 7.8645 -14.7554 17
76 1 4.52056 3.60622 8.5976 23
77 1 5.61586 2.26142 -11.0178 22
78 1 12.9604 -5.99528 0.149124 13
79 1 -16.2995 0.191775 5.7524 10
80 1 -11.1013 4.84107 -1.15177 16
81 1 6.73132 15.3133 9.41213 15
82 1 6.81025 -3.264 12.8536 12
83 1 -11.5868 -8.34839 2.85393 20
84 1 -10.3195 1.98934 0.624864 20
85 1 15.2656 2.85526 12.2292 11
86 1 10.3749 3.79549 -3.74843 21
87 1 -3.25064 16.4024 11.2251 10
88 1 9.01789 0.676114 7.00276 17
89 1 -7.77265 -2.57158 -2.05487 19
90 1 -1.88777 -4.87285 -6.62648 16
91 1 -10.9296 12.8532 6.49288 12
92 1 -7.22842 19.5905 -1.46824 15
93 1 -1.20713 13.5667 -8.13248 16
94 1 7.71552 2.19777 -3.5998 22
95 1 5.50596 3.15109 -5.25079 21
96 1 9.64984 16.796 -6.5815 15
97 1 10.8228 -3.6656 0.913413 22
98 1 4.35999 -7.28691 7.81762 19
99 1 -5.36718 16.7914 -5.75764 16
100 1 -8.51595 16.1133 3.55568 17
101 1 -4.59786 -2.14589 9.61287 17
102 1 -1.69526 9.69507 2.02847 19
103 1 -2.3296 -1.69441 15.3973 13
104 1 10.7536 0.505981 -8.59617 21
105 1 -10.1239 5.71735 1.66856 19
106 1 -14.561 -10.2326 2.6542 17
107 1 6.08708 -3.00668 -5.22862 17
108 1 10.3771 0.169389 -11.5962 19
109 1 -4.21801 -2.03279 -15.1006 18
110 1 1.66765 -0.0589021 2.3999 19
111 1 -2.70317 12.6438 -0.444626 21
112 1 -6.16941 4.36343 -6.17798 18
113 1 -0.872162 8.38977 14.3569 19
114 1 -2.4498 17.6042 -5.16298 15
115 1 -18.3192 6.96079 -0.0225126 13
116 1 2.53615 6.73141 7.74932 21
117 1 -2.44743 -8.56786 12.3004 19
118 1 15.6162 1.97666 2.32494 18
119 1 0.558593 -3.23131 -9.52677 17
120 1 3.71049 -2.6441 -7.45928 21
121 1 -0.362537 5.27825 9.80559 18
122 1 2.10619 -0.107787 12.7939 20
123 1 -14.4059 -7.47218 0.693657 13
124 1 9.02458 -4.152 3.27335 17
125 1 -12.3661 -4.79447 -3.49493 16
126 1 10.1376 -5.612 -1.56394 21
127 1 -3.08878 7.03887 0.0560457 20
128 1 8.5036 7.72293 -15.282 11
129 1 6.9011 18.3421 -5.11023 18
130 1 -12.0834 -8.82956 9.50894 12
131 1 -7.82608 -6.53433 13.9331 8
132 1 -7.0014 6.82766 -3.32455 17
133 1 1.01773 -10.2902 -9.38314 16
134 1 4.69674 6.06552 -6.49814 16
135 1 10.0632 -7.53236 -4.43815 19
136 1 -2.28808 -11.3709 10.6404 16
137 1 -11.034 -3.1188 0.948094 17
138 1 11.3629 9.6013 12.0906 14
139 1 15.4614 1.58556 -5.90146 15
140 1 -18.7575 2.13724 -1.33594 10
141 1 14.1134 12.752 1.66452 12
142 1 11.6928 11.0911 4.45061 19
143 1 -5.91618 4.21439 12.6608 17
144 1 6.17089 8.44962 -1.87077 18
145 1 -7.53783 9.38194 8.95731 20
146 1 -9.79353 13.4831 -5.03278 17
147 1 -2.3373 -7.72869 -8.14825 18
148 1 8.30544 -12.0786 -3.00612 12
149 1 1.09413 14.2805 -9.32695 16
150 1 11.3117 -4.64514 9.51806 12
151 1 -2.3291 -4.94998 -16.602 16
152 1 -4.69291 11.4537 -6.77325 18
153 1 11.3504 12.1387 -0.70536 20
154 1 -8.51603 9.2846 -7.1993 20
155 1 -9.27689 12.9816 -2.34454 19
156 1 7.69445 4.25825 -10.6923 20
157 1 11.3835 -6.37664 6.68468 11
158 1 -3.4003 3.39169 -9.16705 20
159 1 -3.90601 16.293 7.97549 14
160 1 11.374 10.0475 -4.11046 19
161 1 2.91621 12.3037 -0.516557 20
162 1 -4.15903 21.002 -0.233535 13
163 1 18.5923 9.03183 -3.55034 9
164 1 0.565954 14.1144 2.84499 19
165 1 5.07528 16.1703 -5.41521 23
166 1 3.2324 15.1936 -11.4496 12
167 1 -16.3886 -1.15027 2.24585 12
168 1 -15.7862 7.5386 -2.4764 21
169 1 -4.26441 -2.77509 -8.36432 19
170 1 -0.062895 -8.90344 -14.5228 15
171 1 6.05926 16.7277 6.57399 15
172 1 1.58989 17.7936 9.3585 11
173 1 -15.9299 1.70341 0.888888 18
174 1 -7.07193 14.7675 -0.766895 17
175 1 18.8116 2.70697 -5.71366 6
176 1 -12.4898 2.3401 -13.2698 11
177 1 4.07893 -1.36584 13.868 16
178 1 2.54199 21.4024 4.86657 8
179 1 2.20469 11.8229 4.69319 21
180 1 -1.55489 -7.14764 -13.665 18
181 1 -6.96499 17.4802 6.65996 10
182 1 -1.24307 15.7677 0.69257 18
183 1 3.88814 -4.4257 13.3683 13
184 1 -14.7927 -3.81976 1.64192 14
185 1 -6.71272 -11.737 -9.30388 7
186 1 -6.66971 11.3698 -8.93837 20
187 1 1.90361 -7.48181 5.65622 21
188 1 4.87721 -7.91679 -3.18176 19
189 1 -5.21382 11.5205 -15.4821 9
190 1 -9.60151 2.696 9.68508 17
191 1 5.90374 13.1003 -3.90285 21
192 1 8.61327 11.9946 -8.8251 19
193 1 -6.68449 7.87806 14.9114 10
194 1 0.361342 -11.9989 9.45047 12
195 1 -12.2986 3.55819 3.21502 21
196 1 -0.0467075 19.9834 6.94976 12
197 1 -0.111254 8.95593 8.68343 21
198 1 7.91818 2.8906 12.8936 18
199 1 -9.63839 14.5053 0.313468 17
200 1 13.1852 -0.86403 -10.1737 15
201 1 -5.98083 15.6333 9.72979 12
202 1 -2.45517 4.9107 -5.37426 16
203 1 17.0569 -1.17694 0.255516 6
204 1 -7.68693 2.1638 7.33152 17
205 1 -17.2782 2.19776 3.8249 16
206 1 -9.35807 -6.64239 5.23615 18
207 1 4.13657 4.88076 15.5284 19
208 1 -18.5418 5.50107 -3.17977 13
209 1 -4.1169 -14.5353 4.82621 9
210 1 -8.2646 5.52673 -1.26134 18
211 1 9.08455 -5.81691 -7.09023 21
212 1 -5.77714 16.6241 2.60958 18
213 1 -6.33177 4.28736 9.94231 18
214 1 6.88608 12.4995 9.28786 21
215 1 -11.6594 5.21208 -6.89501 19
216 1 -5.44303 13.4475 -11.1633 14
217 1 -14.3907 0.296884 -5.24609 19
218 1 -8.57341 4.61472 12.6656 15
219 1 -1.93649 -9.47288 8.64035 19
220 1 5.25903 -12.4228 4.55569 13
221 1 -5.32813 11.3983 1.0161 18
222 1 17.8303 7.57578 3.3805 11
223 1 2.53367 3.72543 -9.48833 18
224 1 -6.78204 -4.31978 -14.2753 14
225 1 4.55444 -2.14691 10.8919 20
226 1 5.33649 -11.6431 -3.33326 15
227 1 2.28319 12.8365 -13.9019 10
228 1 4.28683 -11.061 -10.2307 12
229 1 6.68094 -0.467027 -16.4314 16
230 1 6.6364 10.411 -14.5861 9
231 1 -7.9718 -4.90457 -7.56566 18
232 1 -5.66284 15.6034 -9.18787 10
233 1 -12.3007 -6.06922 8.04295 12
234 1 13.5521 15.9133 1.42725 9
235 1 -8.3574 9.32064 12.3032 16
236 1 -4.21569 24.3325 -6.29341 2
237 1 5.8426 2.28933 11.138 17
238 1 -5.72984 -6.54374 -16.3356 10
239 1 -0.208404 14.2843 -12.0098 12
240 1 1.84796 6.24533 -10.1499 20
241 1 -11.7684 -11.2465 7.21388 14
242 1 -8.81443 11.7655 0.148637 20
243 1 -7.49463 10.203 2.59208 22
244 1 -2.68548 -11.4459 -3.97596 18
245 1 -9.19768 -13.9869 1.59021 10
246 1 13.4052 -0.650739 -6.7538 14
247 1 4.45129 -3.70725 0.764871 16
248 1 9.43228 5.02135 10.9645 18
249 1 9.72272 13.1501 -11.1236 14
250 1 4.87961 10.3555 -3.4652 18
251 1 -16.5475 13.265 0.61586 7
252 1 -15.2734 11.4323 -1.55383 15
253 1 3.29672 6.19051 10.9622 20
254 1 4.40951 -14.033 1.49874 12
255 1 14.2667 4.06402 -2.8524 19
256 1 3.4324 3.76535 5.01115 19
257 1 -8.34582 8.94195 -0.547343 16
258 1 -11.1422 1.04146 -4.49156 17
259 1 7.08388 3.03644 -16.3967 13
260 1 8.83528 -2.99231 10.5327 16
261 1 8.50624 10.666 -13.1838 12
262 1 1.59473 -8.07171 -0.10756 20
263 1 -6.96764 -0.307504 -10.1964 17
264 1 -4.41302 -14.6279 -1.31488 10
265 1 14.0429 2.4851 -9.01167 14
266 1 -12.9797 0.131984 6.1447 16
267 1 2.25342 -10.936 -5.86184 11
268 1 -7.18649 -1.9674 -7.49722 18
269 1 0.778032 21.8832 -0.909509 10
270 1 -3.36117 -0.157602 -12.8912 21
271 1 8.39477 3.77343 5.077 18
272 1 15.7029 7.52715 -3.33646 18
273 1 -5.24031 -5.37148 1.65873 17
274 1 11.2711 -2.18143 -12.943 13
275 1 -0.589481 -7.12147 3.29581 18
276 1 -6.41717 -4.21695 -10.2857 18
277 1 -7.50876 5.55735 -12.3841 21
278 1 -4.53345 -12.0447 7.22729 13
279 1 12.8601 3.27742 5.08556 15
280 1 6.70641 -1.90977 7.76328 20
281 1 -8.98449 -9.08511 -12.4631 5
282 1 -4.04708 -5.4633 7.42768 22
283 1 -1.87896 5.31064 -11.275 20
284 1 8.52422 7.44329 0.283258 16
285 1 -9.74514 -5.58218 2.38332 18
286 1 0.0241873 16.3452 3.49512 16
287 1 -11.2234 10.2045 11.4681 11
288 1 -10.8403 -4.09161 -8.91815 12
289 1 -4.18111 -4.30251 -5.95838 16
290 1 0.0649753 8.01684 -15.3358 14
291 1 -10.2749 -1.92502 -7.51486 18
292 1 -8.9469 -9.36835 1.11597 19
293 1 6.25254 -3.77732 -17.3543 11
294 1 9.0956 2.81585 -12.57 17
295 1 14.4459 4.2995 -0.252822 20
296 1 0.984561 -4.10742 -5.33919 18
297 1 -5.88554 -1.18687 15.0776 13
298 1 -10.4827 -7.86043 -2.86028 18
299 1 11.6459 2.4687 7.86091 13
300 1 -9.2786 -9.30379 8.83631 16
301 1 -1.16681 -11.9329 2.92889 19
302 1 -1.38805 17.2709 -2.33195 14
303 1 3.58763 -1.64577 -17.3812 14
304 1 -10.1157 -1.30533 -14.2174 10
305 1 5.60081 -4.60726 -2.19325 18
306 1 -9.23022 -4.1002 13.0793 8
307 1 1.5962 10.2964 16.1318 19
308 1 5.04673 -6.80402 -0.166326 21
309 1 -5.6428 -6.22893 -7.52658 17
310 1 -8.81331 6.27857 -6.39606 18
311 1 10.9368 7.64665 3.87906 18
312 1 -1.85626 2.5444 -13.2251 20
313 1 -2.67118 11.5024 -9.4789 19
314 1 -3.89608 -2.54677 6.64218 17
315 1 12.656 -4.37378 -10.5003 11
316 1 -5.79916 22.1323 -3.71934 9
317 1 2.8337 12.1592 7.54059 20
318 1 12.9661 4.90557 2.90118 18
319 1 -14.0367 14.2987 -1.54427 12
320 1 0.514438 -5.04451 14.4374 14
321 1 -7.2098 5.71462 4.77855 21
322 1 0.390913 -0.267811 -11.8445 19
323 1 14.4878 13.7682 -1.13877 15
324 1 5.19605 -7.92767 4.81915 23
325 1 -3.68127 -1.49412 12.5326 19
326 1 -13.1119 -3.12048 6.97078 12
327 1 -0.575084 -9.33608 -6.04637 21
328 1 -7.12458 11.3102 14.7716 11
329 1 -10.8337 6.7521 12.4882 10
330 1 -13.0752 1.28668 11.3964 13
331 1 -11.8244 -2.42752 9.11443 14
332 1 13.1677 0.195355 -4.27769 17
333 1 -11.411 -8.1469 6.25081 21
334 1 8.96753 2.6385 -6.62333 18
335 1 11.0864 -2.8202 -8.59583 19
336 1 3.9415 20.4013 -1.23936 15
337 1 -5.12732 -0.767774 3.92443 20
338 1 -8.58916 16.3003 -3.13226 14
339 1 3.18969 1.5675 6.49734 17
340 1 6.18948 12.4267 15.5526 12
341 1 -9.61748 -4.95744 7.9702 14
342 1 8.70594 -9.98902 -6.13641 17
343 1 -6.93175 13.5062 2.40125 20
344 1 -9.64278 10.1003 4.51206 16
345 1 5.01658 -10.8161 7.32258 13
346 1 14.2406 -0.531435 4.27876 13
347 1 -4.1753 6.64258 5.75091 20
348 1 -5.36024 0.446801 -2.54445 20
349 1 -3.31446 3.79574 15.4875 12
350 1 -3.0515 19.0311 6.45529 14
351 1 9.96576 4.9963 14.5399 15
352 1 -6.99715 14.0408 -6.97724 14
353 1 -4.62992 -0.410596 -18.0716 13
354 1 -3.92219 6.05993 -7.93097 18
355 1 5.29827 -9.20415 -13.1725 11
356 1 -15.3056 8.26578 8.91423 12
357 1 -18.6717 5.57981 3.74187 12
358 1 -1.80973 -3.70505 -3.79554 20
359 1 -7.32118 9.68684 -3.58885 15
360 1 9.42917 -1.18535 3.17861 14
361 1 -14.9896 -13.5193 3.44639 5
362 1 5.6608 -5.79641 3.01017 22
363 1 -6.10804 -7.1837 5.89013 20
364 1 -18.392 8.90925 2.91877 8
365 1 -2.13243 -3.11025 9.68285 21
366 1 -2.62719 -8.74421 -3.01664 19
367 1 -9.82665 4.9417 -10.8059 18
368 1 2.9199 -4.69224 -16.5807 14
369 1 1.85727 15.4623 5.98201 20
370 1 -16.0698 5.44568 0.164468 22
371 1 5.60098 -11.731 -6.17536 9
372 1 9.35883 5.29992 -15.1705 12
373 1 -8.6772 -11.1939 -3.36379 16
374 1 -13.6259 -1.9893 -7.77393 11
375 1 -1.88576 -4.15695 -0.0958589 18
376 1 7.7267 4.30137 16.0461 13
377 1 15.5997 6.88634 1.78394 18
378 1 -7.11608 3.55788 -10.1558 19
379 1 4.92918 20.7412 2.11373 11
380 1 -15.914 3.72772 -2.38178 19
381 1 -11.9489 12.5564 0.645314 20
382 1 -3.16064 9.74469 -1.15887 16
383 1 -2.71163 9.25075 5.69536 25
384 1 11.0715 7.36315 10.1929 18
385 1 6.03518 3.23951 -8.33361 17
386 1 10.987 -1.31854 11.6799 10
387 1 15.2682 5.33563 -8.83624 12
388 1 -12.4106 -12.0805 0.978318 13
389 1 6.04004 2.7227 5.3134 24
390 1 0.282072 11.2643 -2.52759 20
391 1 0.213165 -9.64467 -3.21003 18
392 1 -1.43748 11.6075 4.14483 20
393 1 -13.4815 3.42874 -5.27145 19
394 1 8.02457 -7.80887 -0.997036 19
395 1 11.0485 5.54664 5.65082 20
396 1 -5.49333 1.31838 -5.45663 17
397 1 -9.2332 -6.69242 10.6271 13
398 1 -5.77344 -3.71806 13.5887 13
399 1 -4.04592 14.8467 0.122707 20
400 1 -15.6516 -2.92032 -5.6272 10
401 1 9.01732 8.21967 14.7915 13
402 1 -5.56522 8.22768 0.262292 17
403 1 -6.85861 13.8939 -3.99315 19
404 1 3.25493 10.4015 13.08 22
405 1 -17.2049 -0.62106 -3.20489 10
406 1 -7.80814 -8.09275 -5.02306 19
407 1 -9.1222 4.88329 7.25585 18
408 1 -10.4804 11.6588 -8.31749 15
409 1 3.66881 -4.62506 6.0276 22
410 1 -5.7631 -9.91963 -3.281 20
411 1 11.5733 9.81467 8.20245 22
412 1 6.27092 5.1429 -13.7196 20
413 1 -4.87653 5.31594 -18.8636 10
414 1 -4.69164 16.1516 -2.52818 23
415 1 -10.7017 4.77582 -4.28408 22
416 1 -1.3029 -6.0345 9.04248 20
417 1 12.8981 9.07129 1.89967 16
418 1 3.31772 9.67924 -15.5978 11
419 1 -5.11241 0.530513 7.90137 17
420 1 -13.8729 9.36303 0.247894 21
421 1 -10.679 5.58199 4.61684 16
422 1 -0.411799 -9.71827 5.48411 18
423 1 3.40737 -2.09496 -3.20231 17
424 1 5.02219 -9.35357 -7.48709 16
425 1 3.12704 -1.36454 7.63492 19
426 1 -14.148 5.0648 8.40354 13
427 1 -11.6099 0.779054 9.08885 16
428 1 -12.311 9.93075 5.08871 17
429 1 -5.80696 -8.91245 0.850519 21
430 1 -7.63657 5.4044 -17.8431 8
431 1 11.2294 -8.20576 -7.25005 13
432 1 -4.31092 -9.34241 -5.98872 20
433 1 -2.24139 0.771274 8.67397 14
434 1 8.36107 -1.06719 -6.7048 15
435 1 -3.45281 3.91796 -15.3401 16
436 1 11.1675 -9.36249 -0.0824286 11
437 1 1.87137 15.6458 -5.85641 17
438 1 -12.3191 15.5317 1.46402 7
439 1 -6.85874 1.78156 11.5128 18
440 1 -12.5036 -2.03658 -11.8537 10
441 1 -7.86983 -3.54603 6.03983 16
442 1 8.01403 -9.07863 7.36725 15
443 1 5.44364 4.0671 0.00359501 20
444 1 -4.54594 8.32348 2.47164 22
445 1 2.92481 -2.40608 -10.7212 17
446 1 9.23619 -3.48418 7.21927 15
447 1 14.339 9.9736 -4.60808 18
448 1 -0.579484 1.56363 15.8177 13
449 1 -3.09631 14.4316 3.18103 22
450 1 8.78528 -6.66678 4.64234 18
451 1 -5.67406 -13.3993 -3.25223 12
452 1 -1.30018 9.65377 17.0884 11
453 1 4.90028 17.5296 9.29631 13
454 1 -10.0224 -7.34875 -7.13634 12
455 1 7.42571 18.681 0.642625 18
456 1 5.17617 7.92613 12.4326 20
457 1 -8.53456 11.6573 6.26693 19
458 1 -8.81593 0.1724 -2.30158 22
459 1 -16.3805 6.55505 5.96532 16
460 1 -6.70786 -4.71413 -4.21989 22
461 1 -4.72978 11.6247 4.49125 20
462 1 -8.12912 -13.6789 -5.77776 6
463 1 -3.83425 -10.7546 -11.6158 14
464 1 -6.90182 -14.5831 3.23845 11
465 1 -7.64564 1.07723 2.23163 21
466 1 8.10104 7.1638 4.06118 21
467 1 -4.30388 -4.82338 10.4678 20
468 1 -7.77163 12.0172 -12.5657 16
469 1 10.6598 13.7648 1.50502 17
470 1 -13.0742 -9.38261 0.438024 16
471 1 8.67994 6.51115 -8.96575 19
472 1 -0.983482 19.4283 3.69649 16
473 1 1.2537 9.73032 -4.64323 22
474 1 -5.07652 10.7313 6.99876 20
475 1 -16.5006 5.18619 -5.25121 17
476 1 1.24631 20.7588 -3.39331 10
477 1 7.65726 17.937 -7.77371 16
478 1 -9.48773 -2.86472 -4.59176 22
479 1 3.09358 8.08554 15.0318 20
480 1 2.70996 -10.6713 -1.87742 17
481 1 -2.70891 -5.02117 -10.3155 18
482 1 9.19255 -10.6625 -0.0939573 16
483 1 -11.8545 14.6017 -3.64133 14
484 1 0.60748 9.654 11.615 20
485 1 13.3198 10.3294 -1.25104 17
486 1 8.57898 13.6054 -1.10709 16
487 1 -9.652 7.6524 -12.427 18
488 1 5.20885 0.278472 -7.86471 16
489 1 -1.13384 -5.31465 6.13507 18
490 1 -14.0819 1.35924 -2.46915 20
491 1 3.45413 18.88 6.99746 13
492 1 0.794374 4.79467 -12.7696 15
493 1 9.35115 16.2419 2.02382 14
494 1 0.810025 18.3293 -4.84288 14
495 1 9.65683 0.121614 -2.95422 16
496 1 11.126 5.72226 -0.841934 19
497 1 2.53571 9.74581 -10.3363 20
498 1 2.71519 -5.69216 2.99459 17
499 1 8.56363 -11.6118 5.04331 9
500 1 1.26758 -6.34681 8.96472 17
501 1 -7.09797 8.52048 -11.2625 22
502 1 -6.18906 -9.84526 7.51082 17
503 1 -8.67554 -10.5758 -7.14952 9
504 1 4.50152 16.1063 3.92009 17
505 1 1.873 2.45052 -15.5105 15
506 1 1.58298 -3.6508 10.9427 21
507 1 -15.8968 2.32243 9.44919 10
508 1 -3.84038 -14.9065 2.13799 12
509 1 -8.854 -1.60812 2.96526 17
510 1 12.1555 2.64329 -10.8027 12
511 1 8.74524 3.60282 -1.00148 18
512 1 0.357964 13.1157 -4.89724 18
513 1 1.81022 -7.39413 -5.78231 15
514 1 4.84795 5.29062 -11.1278 22
515 1 10.1333 3.79413 -8.61613 16
516 1 -3.32315 0.921854 14.7885 15
517 1 6.01453 14.4105 -0.804683 19
518 1 -8.14818 0.773995 -15.9206 12
519 1 0.612321 2.21251 -17.9331 13
520 1 -6.83311 -4.28365 8.16159 18
521 1 -4.27602 17.841 -0.139179 16
522 1 -6.84103 -0.665597 -13.5927 20
523 1 -17.6107 3.85085 6.47514 14
524 1 -0.0666544 -10.3991 -12.0835 19
525 1 -3.06513 -4.89955 13.5476 17
526 1 10.055 9.69247 -10.5741 17
527 1 14.3595 9.33978 11.893 10
528 1 15.6199 13.6841 -4.5098 12
529 1 -11.1497 -6.67826 0.104724 19
530 1 0.452497 -5.47511 0.933125 19
531 1 -5.97952 2.35338 -17.97 13
532 1 -9.89712 16.1879 5.97212 6
533 1 5.54094 -5.73353 -8.1219 17
534 1 2.87007 9.23183 -2.06032 23
535 1 11.587 -0.560475 0.993309 17
536 1 3.8638 12.2567 -9.1373 20
537 1 8.83251 -6.74932 1.75992 20
538 1 12.6693 8.06368 -11.6804 16
539 1 -4.0127 9.23941 13.0042 19
540 1 -12.0068 7.50381 7.09694 17
541 1 1.5423 14.8764 9.14681 16
542 1 7.09378 -0.192518 10.5628 17
543 1 -0.0263444 7.83754 -12.2802 15
544 1 -0.619327 -6.40044 -1.68235 16
545 1 2.12268 3.16562 11.3703 17
546 1 5.94798 11.1444 6.63784 19
547 1 10.5115 6.337 -6.33406 17
548 1 -11.106 10.6882 -4.64865 21
549 1 -4.04215 11.2371 -3.74721 20
550 1 11.5965 2.21965 12.2624 17
551 1 10.2563 6.49054 -12.0741 19
552 1 9.55866 -3.59075 -5.35267 18
553 1 6.24528 5.68676 10.1071 19
554 1 -13.4474 -1.26267 0.103948 19
555 1 -8.46544 13.8329 -9.63582 12
556 1 -2.71319 4.21736 12.1491 14
557 1 -11.3716 3.20928 12.3523 11
558 1 -2.70772 13.7438 -11.2509 14
559 1 14.4381 -3.2815 -1.12095 12
560 1 4.88628 7.49899 -9.1548 18
561 1 -0.0955217 17.0665 -7.5246 11
562 1 -9.9778 -3.97723 -12.5851 11
563 1 5.63942 -9.75254 -0.929575 19
564 1 -14.5687 -2.21427 -2.33203 15
565 1 0.276131 11.819 -10.434 18
566 1 -10.6638 2.14263 -2.02954 15
567 1 -1.10674 11.4048 14.1503 17
568 1 -8.91489 -9.57005 5.53651 21
569 1 8.5097 10.9741 -3.13118 21
570 1 6.70462 -7.86002 -6.31014 18
571 1 5.06736 -6.05033 11.4865 14
572 1 14.2024 7.88932 -0.865886 18
573 1 -11.0191 7.49858 -0.603501 19
574 1 5.2919 6.32121 18.0183 10
575 1 3.83668 18.6433 -3.86379 18
576 1 10.8746 1.22268 -5.31702 16
577 1 1.80476 12.4212 10.1823 20
578 1 -1.42242 4.43353 -18.6654 9
579 1 -6.68618 -7.48522 9.5686 18
580 1 3.34262 0.461139 -10.2874 18
581 1 6.27147 1.40754 -13.9689 21
582 1 -1.48408 15.7718 5.96028 19
583 1 11.608 11.3134 -13.1868 13
584 1 -6.73813 2.95909 -13.4404 18
585 1 -9.10449 -5.47812 -2.04171 21
586 1 -11.2419 1.37453 -10.8621 17
587 1 17.9771 7.94257 -0.162179 11
588 1 18.2475 11.2027 -5.34218 10
589 1 7.2712 -10.0948 -11.8134 11
590 1 11.9442 7.11569 13.608 13
591 1 6.01961 -2.42288 -8.96842 21
592 1 1.19027 -0.351909 -15.4217 17
593 1 4.02317 18.0037 0.860922 19
594 1 -8.99489 3.23244 4.15509 22
595 1 6.81195 10.3799 12.5186 20
596 1 13.1126 12.824 -3.42676 18
597 1 12.7624 2.05909 1.78044 17
598 1 13.8543 7.36534 -6.52069 19
599 1 11.0831 -1.32019 9.07996 17
600 1 13.397 4.39386 13.7249 11
601 1 -1.58629 -1.64418 4.79776 18
602 1 10.5924 15.2478 -2.17224 18
603 1 4.37814 2.27636 2.31483 20
604 1 1.17634 3.00899 14.0184 18
605 1 15.9271 4.52425 -5.18969 15
606 1 12.9391 6.64876 7.99183 20
607 1 -8.04905 2.85044 -3.65895 19
608 1 14.6089 9.82436 3.55463 15
609 1 14.0896 -1.26989 1.32137 16
610 1 2.26036 -5.51715 -2.31022 21
611 1 -12.1448 7.84162 10.0665 13
612 1 7.69608 13.1811 12.4519 13
613 1 14.693 2.18777 9.21363 14
614 1 3.57161 13.4223 2.07041 20
615 1 0.0590005 12.5741 16.7531 10
616 1 0.730219 5.22302 5.16427 20
617 1 -0.507072 -14.9737 2.56332 10
618 1 -3.73616 7.14516 -3.79484 18
619 1 11.2024 17.8993 -3.77225 13
620 1 6.57648 -3.89064 -11.7775 18
621 1 -1.78068 21.5407 0.947631 9
622 1 -4.69757 -8.82121 -9.78399 12
623 1 5.36267 -5.6112 -14.2005 16
624 1 -14.6539 3.1102 5.91356 21
625 1 -4.88866 5.74882 -10.9284 20
626 1 0.971733 -12.8024 5.58308 12
627 1 -5.14061 -2.16785 -11.9574 19
628 1 -17.6263 8.15753 -5.20399 12
629 1 14.8698 -4.2418 2.47608 9
630 1 8.77799 13.1839 4.27665 19
631 1 0.09112 -9.51513 11.1222 18
632 1 -14.9836 5.14385 -8.02777 11
633 1 -1.69735 -2.08278 -14.0926 20
634 1 4.14616 0.0612337 4.35711 19
635 1 -4.08827 9.08221 9.31934 20
636 1 7.19729 7.51574 -11.1999 20
637 1 10.6048 -1.19039 5.52121 14
638 1 12.2276 14.7342 -8.44678 11
639 1 10.8717 17.763 0.127997 11
640 1 7.51258 -6.01669 -4.00858 22
641 1 -12.1122 1.13736 14.3168 10
642 1 14.1216 1.52117 -1.02026 19
643 1 -4.26519 12.3813 15.0775 10
644 1 6.81754 20.3304 -2.39874 12
645 1 -13.1248 9.3161 -3.24565 20
646 1 8.51524 15.9779 4.27374 14
647 1 -13.3451 -7.77718 -2.36812 16
648 1 11.3976 2.22491 -1.64824 18
649 1 6.00121 18.2684 3.69762 17
650 1 -1.91046 3.83773 6.99578 17
651 1 -12.4548 -1.89785 3.61155 18
652 1 -9.21197 -1.89686 -10.1103 19
653 1 4.44803 2.3823 13.2835 23
654 1 -1.05965 -8.25044 14.4985 11
655 1 5.83108 8.53132 8.83671 19
656 1 -5.69266 12.7141 -2.43 21
657 1 8.32666 10.6774 0.0506021 19
658 1 9.11245 -3.27222 -2.05549 20
659 1 5.1033 8.13551 5.05589 18
660 1 2.8434 5.73563 -14.4822 19
661 1 -13.1313 10.815 8.56958 14
662 1 11.6059 7.18895 -8.75748 18
663 1 2.40932 -7.29362 -9.42817 12
664 1 6.53548 -6.74339 -12.315 14
665 1 7.60702 10.727 4.39042 19
666 1 3.16479 9.01762 6.98187 22
667 1 -9.32334 8.04335 6.69895 18
668 1 8.35403 9.58668 9.20155 20
669 1 0.611047 -1.12815 9.8461 17
670 1 -5.88554 7.41066 7.77095 21
671 1 -2.27917 -1.96409 -10.5657 25
672 1 -3.80614 5.62538 9.96409 21
673 1 5.95539 5.57702 6.71958 23
674 1 -7.55382 -9.41628 11.9793 13
675 1 13.9361 15.9717 -2.589 10
676 1 8.04123 -9.49536 -2.80097 20
677 1 1.27368 8.65408 -7.53288 18
678 1 9.1458 12.8897 -5.30827 18
679 1 5.40152 12.9714 4.66205 19
680 1 -2.39754 -1.69688 -17.5821 12
681 1 -0.0540977 1.75422 6.05278 16
682 1 -2.19276 21.589 -2.85105 10
683 1 11.4143 13.9817 4.03429 15
684 1 -11.0655 -2.22921 -1.9971 21
685 1 -2.25648 1.59377 -19.1377 10
686 1 -11.834 11.7765 -1.95965 21
687 1 3.52086 -7.67592 -15.0981 12
688 1 2.14017 7.00529 3.5602 16
689 1 12.082 12.3744 -9.97453 14
690 1 8.85806 18.3335 -1.96365 17
691 1 -1.5875 6.9177 7.67286 21
692 1 -12.9568 6.13479 0.734466 19
693 1 6.75211 8.11398 -4.86224 19
694 1 12.8659 4.33364 10.3809 18
695 1 9.36609 1.66383 10.2314 19
696 1 -1.25771 -11.3647 13.1037 9
697 1 -4.98979 10.9561 -12.068 20
698 1 5.62789 16.3876 12.4233 10
699 1 0.57861 -6.06005 -15.5516 17
700 1 5.72128 0.744951 7.92407 18
701 1 3.41721 15.2953 -2.69405 20
702 1 6.62416 12.7467 1.81387 19
703 1 16.5535 2.04177 -3.37421 12
704 1 6.9238 7.08963 15.6702 17
705 1 -10.2786 1.82587 6.22031 16
706 1 -1.68822 -13.8407 -0.674664 14
707 1 -4.24789 0.113931 -8.54595 17
708 1 -4.40665 19.2674 -2.55743 17
709 1 -1.82504 11.0244 8.84232 19
710 1 5.3306 -1.25671 -12.2962 18
711 1 4.70938 10.4673 10.5028 19
712 1 -13.7484 1.17482 2.90526 20
713 1 -3.98854 13.0805 8.9819 18
714 1 -4.26121 7.57468 -12.893 19
715 1 -2.01815 12.4468 -13.7598 14
716 1 4.37362 -9.26529 1.80887 16
717 1 4.25206 7.68248 -12.2552 16
718 1 3.36923 -2.52791 3.09294 21
719 1 -0.320872 10.0086 -0.484642 16
720 1 -15.3886 9.91206 6.32571 11
721 1 9.1599 1.33902 -15.1629 13
722 1 1.91451 -9.58053 7.68798 19
723 1 1.95139 15.1274 0.0558324 17
724 1 -2.56725 6.86983 17.3722 12
725 1 -7.06383 -6.16049 -12.887 14
726 1 -5.21709 -8.32852 -13.9327 11
727 1 -9.39509 -9.96048 -9.3848 9
728 1 -3.01178 16.1655 -7.90511 13
729 1 8.01963 -5.23566 -9.64088 19
730 1 -2.8884 13.0807 6.48481 22
731 1 3.38423 -5.1224 -11.4745 14
732 1 6.64346 -12.9415 -0.823727 13
733 1 1.01089 -3.63635 7.7939 20
734 1 14.8318 8.31238 -9.62751 14
735 1 3.45889 -13.616 -1.21766 11
736 1 -8.36791 -1.18851 8.17899 15
737 1 3.259 2.83588 -12.4157 19
738 1 -6.94976 -11.2105 -0.639879 19
739 1 -12.6607 -8.66729 -4.87309 10
740 1 -5.07269 4.1493 6.89933 18
741 1 -11.5856 -11.1747 4.2476 16
742 1 13.3556 9.84335 -7.54833 15
743 1 -9.37068 17.6704 0.581804 10
744 1 0.0362016 8.60931 5.18351 21
745 1 -16.573 9.7138 0.609531 14
746 1 12.3415 -3.01876 4.09622 16
747 1 -12.6105 6.49265 -10.0859 16
748 1 2.51696 12.7942 -3.20687 22
749 1 7.6833 5.46666 -4.61479 17
750 1 9.66232 11.4613 10.7144 15
751 1 10.7464 8.78837 -0.926449 21
752 1 -10.6744 9.88538 -13.9544 9
753 1 -9.13808 0.962843 -8.93099 15
754 1 -0.813591 4.27226 16.6242 11
755 1 0.875505 11.9638 -7.55939 22
756 1 8.66162 14.8022 7.16365 12
757 1 -0.481586 1.45023 11.3743 13
758 1 -1.85779 -14.6899 -3.9093 8
759 1 -4.80791 -10.1301 12.7258 12
760 1 -6.07264 -4.33347 4.47002 19
761 1 12.972 11.8666 10.2994 11
762 1 1.1373 -0.705124 -8.40108 16
763 1 -7.54317 11.4316 -5.95281 20
764 1 5.35341 11.091 0.260014 18
765 1 -7.4211 -7.42148 2.90624 19
766 1 13.9474 10.6647 -12.2648 7
767 1 0.927363 -12.7733 -3.01722 16
768 1 -2.0764 -12.4525 -6.80882 11
769 1 1.14691 -9.78457 2.29312 19
770 1 6.87467 7.85436 -7.15955 14
771 1 1.69451 17.6886 -1.66409 18
772 1 -4.66643 1.37794 -10.9731 19
773 1 1.00848 -1.5482 15.696 11
774 1 5.08675 7.44364 -15.5061 15
775 1 -8.78205 1.20272 -12.4585 19
776 1 -10.6273 0.674704 3.65788 20
777 1 4.42897 18.4303 -7.47073 9
778 1 6.36706 -1.18287 -2.13175 19
779 1 -4.89079 -3.90784 -17.0732 12
780 1 -5.70634 -5.28455 -1.34522 17
781 1 9.47238 9.52064 -6.49336 19
782 1 14.0623 -3.46577 -4.66987 10
783 1 -7.27211 13.1089 8.54365 16
784 1 11.8307 -6.13025 3.27326 15
785 1 11.6561 -2.23972 -1.72795 20
786 1 17.4502 1.80817 -0.230345 11
787 1 -0.160868 13.4583 5.99008 19
788 1 -16.9811 5.15273 9.13725 10
789 1 -5.64575 14.4813 5.47016 17
790 1 -5.92662 -12.1707 10.4587 8
791 1 9.92627 1.81426 3.63959 15
792 1 7.61643 8.05675 11.9105 19
793 1 -18.1605 3.30271 1.40553 12
794 1 8.88832 -2.27379 -10.6581 19
795 1 -14.0897 12.2612 -4.14892 16
796 1 1.25079 11.0091 2.52805 19
797 1 1.08207 -12.9452 0.459989 18
798 1 3.55207 0.363351 10.5771 19
799 1 2.85276 18.4989 3.98112 18
800 1 2.86902 -10.5937 4.81697 17
801 1 -9.16049 -0.501446 -5.59233 14
802 1 1.38808 6.34371 13.4163 15
803 1 -17.0724 2.18673 -3.92402 12
804 1 4.35241 9.42355 17.6074 11
805 1 2.13622 20.3916 1.80682 13
806 1 -14.3515 -8.78847 7.59551 12
807 1 -2.24693 -9.41963 2.17301 21
808 1 10.3144 -7.54738 8.87965 11
809 1 13.8972 0.0447615 10.3907 11
810 1 8.39046 3.63224 7.95524 21
811 1 -1.6997 8.59056 -3.51401 17
812 1 0.11655 -6.70565 -8.29993 17
813 1 -1.49558 0.944856 -16.1029 17
814 1 -3.7898 1.42498 11.3766 15
815 1 -7.69134 19.3217 2.26533 11
816 1 18.0112 4.82602 1.66251 12
817 1 8.72916 15.1715 -9.45786 16
818 1 -4.61941 9.65684 16.6907 12
819 1 9.3625 6.87695 7.76922 17
820 1 1.30559 -3.13215 -13.282 18
821 1 -10.2954 -5.85765 -5.25623 17
822 1 -3.12643 -0.64867 -4.23295 18
823 1 16.1213 3.99239 4.25868 15
824 1 -0.248044 3.08094 -10.7227 21
825 1 1.62521 12.9681 13.7467 19
826 1 10.9721 -10.3519 -4.56776 11
827 1 3.83517 4.39023 -17.0337 11
828 1 -2.86801 -7.31935 0.273758 16
829 1 12.1759 11.9109 -6.46902 16
830 1 16.8714 5.69289 -1.46666 14
831 1 4.42075 -4.51506 9.04461 15
832 1 -1.74434 -6.69629 -4.5251 19
833 1 5.77253 17.6061 -1.86245 21
834 1 -0.821657 -6.014 11.6475 21
835 1 -15.7018 7.75103 3.04779 22
836 1 12.7665 7.34132 -3.41424 21
837 1 16.3988 8.88169 6.26826 10
838 1 -0.559795 -4.88352 -12.5164 20
839 1 -5.58218 20.1816 5.05917 9
840 1 12.8095 12.836 7.20889 9
841 1 9.13964 20.0189 -5.15037 10
842 1 4.58211 1.17504 -16.4415 15
843 1 7.68263 -5.04018 -0.24891 21
844 1 -13.4618 5.17904 -2.33252 20
845 1 9.70524 9.65922 6.23626 21
846 1 -14.1763 -4.8038 -0.876103 14
847 1 -9.38418 10.4755 -10.7092 16
848 1 2.53305 9.10278 9.56082 22
849 1 -14.4837 4.04606 -11.2291 8
850 1 -13.9693 6.54394 4.94507 19
851 1 -4.90637 5.08075 -13.5254 17
852 1 9.78845 -4.49436 -11.9215 16
853 1 -12.3706 -2.13566 -4.87455 19
854 1 12.2523 -4.75238 -3.73419 16
855 1 -18.6731 8.97621 -2.32846 12
856 1 -12.5641 1.63487 -7.45231 14
857 1 12.9941 8.89697 6.07369 19
858 1 -3.58801 -8.63225 6.19607 17
859 1 6.55766 0.954039 15.7096 8
860 1 16.1133 4.25453 7.8546 12
861 1 6.62848 -0.885427 2.36696 17
862 1 -12.1919 8.10191 2.70418 20
863 1 5.1207 14.9332 14.3549 12
864 1 3.78154 10.2431 -6.36989 18
865 1 -2.31237 -10.3193 -13.7148 14
866 1 -4.07917 19.7511 2.66026 14
867 1 -12.9793 -5.0468 4.29377 18
868 1 7.50421 15.711 -3.71901 21
869 1 -1.13003 14.1698 10.9012 18
870 1 17.0628 2.0425 -8.70737 8
871 1 3.26941 -10.3347 10.4879 10
872 1 -2.23607 9.22953 -11.8064 21
873 1 -3.6772 14.2406 -5.46337 22
874 1 -6.46519 8.85796 5.17714 21
875 1 15.881 6.95015 8.3033 12