ITEM: TIMESTEP
9000
ITEM: NUMBER OF ATOMS
1500
ITEM: BOX BOUNDS pp pp pp
-30.0 30.0
-30.0 30.0
-30.0 30.0
ITEM: ATOMS id type x y z Coordination
1 1 -8.90655 -8.14785 -7.51619 20
2 1 0.539412 -9.17481 5.58228 21
3 1 -11.9913 8.54542 -0.362117 14
4 1 -10.1852 8.71441 -13.7125 12
5 1 1.0233 -4.30926 8.41086 21
6 1 -10.2351 -1.50339 -16.4879 11
7 1 -5.64895 -15.7493 -2.67674 18
8 1 -10.917 -8.9899 -1.77676 19
9 1 1.25372 1.68477 13.7505 10
10 1 6.17998 -3.19251 1.49901 21
11 1 2.35829 5.33398 8.68243 18
12 1 4.11303 -2.86438 -0.592645 20
13 1 -3.01253 8.91062 -14.6924 20
14 1 6.29136 -5.98687 10.3192 10
15 1 12.2391 3.63994 2.95841 18
16 1 -3.72224 12.2563 -14.6462 10
17 1 4.04704 7.72063 -16.7192 10
18 1 -11.169 0.200303 -4.01226 21
19 1 -4.72432 -1.62717 -10.7053 18
20 1 0.756591 -13.7071 2.7215 15
21 1 0.898011 -1.75394 5.47489 20
22 1 9.227 -10.9388 -4.73895 7
23 1 -6.85149 -12.6408 -10.0696 12
24 1 1.58222 -4.86029 -6.17585 17
25 1 0.798785 -5.03233 -11.7393 25
26 1 0.619316 1.25886 10.1858 18
27 1 -6.63488 -11.361 0.614086 20
28 1 7.46856 -6.72597 7.15159 13
29 1 -11.7272 0.955993 0.182536 20
30 1 -8.59705 0.525834 -6.62826 20
31 1 -8.19195 11.0892 -3.37441 19
32 1 -1.3477 3.37093 -11.3872 20
33 1 2.92119 -7.55725 -16.2004 12
34 1 -2.52911 -5.44914 12.1253 8
35 1 -15.8763 10.7097 -4.8405 9
36 1 2.06796 11.6916 3.50502 19
37 1 -13.5772 12.2927 -2.36861 11
38 1 -1.00473 13.9505 -8.44883 14
39 1 -2.02557 -12.685 7.54612 16
40 1 4.18112 -9.23327 -13.8247 13
41 1 -5.55417 4.7281 11.1384 14
42 1 -11.3767 -4.56632 -12.5014 13
43 1 4.00957 -0.525568 1.57729 20
44 1 -5.59412 9.5154 -16.8691 13
45 1 -10.2505 -9.29335 1.43086 20
46 1 -9.97873 8.3266 -10.9627 13
47 1 -3.97191 4.60657 -9.86154 15
48 1 -0.612413 5.70576 3.00762 21
49 1 -3.5639 6.86897 4.85718 18
50 1 3.85527 -9.68941 -7.77593 14
51 1 3.38701 7.06775 11.6713 17
52 1 5.93262 0.142543 -15.1606 14
53 1 6.30285 -9.90739 0.334448 13
54 1 -11.4574 -1.38719 -1.21349 18
55 1 9.71999 -5.97535 8.75029 8
56 1 -4.62314 -7.88025 4.42185 20
57 1 -13.4397 1.18588 -6.36632 21
58 1 10.9027 4.70941 5.382 17
59 1 7.51088 -4.42947 -0.199125 17
60 1 -2.99254 11.6762 7.71002 12
61 1 6.3326 4.32258 7.13403 16
62 1 -14.6997 -5.43146 4.31497 11
63 1 -3.85615 -7.78588 -11.207 20
64 1 -8.95034 8.98355 -1.86481 15
65 1 -2.96326 8.65129 -18.27 10
66 1 5.59007 2.71464 -7.95682 18
67 1 5.31093 -3.37337 -3.83051 18
68 1 9.19888 -9.56523 1.53665 9
69 1 -0.156246 -10.4712 9.18201 13
70 1 -8.71226 13.1569 -10.0639 10
71 1 -10.7438 10.7975 2.48627 15
72 1 -5.86805 7.9092 3.4046 20
73 1 -7.80017 -11.5872 8.09318 11
74 1 11.5722 -6.55578 -10.103 10
75 1 -9.17441 2.85781 2.13726 20
76 1 6.07217 -4.70199 -7.16923 17
77 1 2.68394 1.78944 -15.9513 20
78 1 -5.46035 -6.20284 -19.7961 11
79 1 -2.42073 12.6894 -1.22185 20
80 1 -9.13786 2.97111 -16.5645 16
81 1 0.504329 13.2067 -11.244 10
82 1 1.03143 15.7478 0.736995 14
83 1 -1.71486 -2.32207 3.82162 17
84 1 -2.03592 -4.65439 -10.4117 20
85 1 5.09396 -10.8316 -10.7952 12
86 1 -3.53983 3.84555 5.7727 22
87 1 -8.41273 -4.35704 -3.85088 19
88 1 4.17476 -5.38141 2.59605 18
89 1 -8.80636 -4.44752 -8.97373 20
90 1 -0.0642002 -11.7733 0.298407 16
91 1 -9.00657 6.42131 -0.0177269 18
92 1 5.59451 4.16587 -16.5944 13
93 1 0.0166944 4.71832 -8.63976 21
94 1 6.25484 -10.2893 -4.49339 16
95 1 -2.49677 -13.2041 2.01115 20
96 1 -5.86839 -11.0416 -6.46359 17
97 1 -15.0504 -4.49766 0.802254 15
98 1 10.2636 6.02217 1.82193 21
99 1 6.53658 5.97511 -3.59679 20
100 1 -5.8701 12.5152 5.32938 11
101 1 -9.9721 13.0117 -6.99112 11
102 1 1.4809 -7.9812 -13.4507 18
103 1 12.2563 -0.057514 9.60268 9
104 1 -8.91449 10.2738 -7.83291 19
105 1 9.15184 -0.128257 -10.3988 18
106 1 -8.11122 7.79646 -8.58919 18
107 1 -5.6361 16.0051 -2.59172 10
108 1 3.03643 5.85505 -11.9439 19
109 1 5.8618 -10.8855 2.95689 9
110 1 -9.21538 6.25021 -5.45292 20
111 1 3.36558 11.2608 -4.17657 18
112 1 11.3729 7.23326 -1.5811 14
113 1 -7.48713 4.41629 -9.89396 20
114 1 -8.97484 -1.56088 -19.626 9
115 1 -2.48304 13.9265 5.58766 14
116 1 -12.2109 2.99557 -8.56417 20
117 1 12.1821 -0.435351 -4.71497 15
118 1 -6.7136 9.56055 5.89345 16
119 1 -6.3694 13.17 -12.8482 11
120 1 4.03659 -2.63645 4.51748 17
121 1 -13.3545 -8.815 0.305691 14
122 1 -9.08201 -11.2657 -1.21231 21
123 1 2.87481 -14.0288 -6.32673 10
124 1 -6.42703 8.00673 -13.5959 20
125 1 0.289838 10.4213 -9.57361 16
126 1 10.9916 7.38461 -7.14391 11
127 1 -5.60858 -9.75523 10.4037 7
128 1 -8.88052 1.96251 -3.3374 17
129 1 1.92777 15.3497 -2.20303 13
130 1 1.94241 9.09041 9.99798 13
131 1 -7.67708 14.9816 0.393475 15
132 1 -10.4753 -2.51188 -10.3715 22
133 1 11.5934 -8.71563 -6.51697 8
134 1 -5.42 -5.6068 6.76408 17
135 1 -14.5988 -0.857043 1.02235 15
136 1 -11.4717 -14.3536 2.31147 10
137 1 -13.7266 1.04837 -2.83721 16
138 1 -2.62913 -17.1937 -0.481449 11
139 1 -7.33522 -2.21225 -6.03199 21
140 1 4.13173 -6.20772 -4.96999 18
141 1 -3.37955 8.24429 2.10267 22
142 1 -6.66142 4.38612 5.03334 16
143 1 -6.03856 1.58355 -10.2998 22
144 1 -9.35167 6.98846 -15.7753 11
145 1 -9.61935 -14.3794 -8.86929 13
146 1 -10.8245 -0.618849 6.32679 14
147 1 -4.05015 -9.93385 1.43029 20
148 1 -3.80358 -14.0119 5.49398 19
149 1 16.4909 3.21024 3.29373 8
150 1 7.06163 -0.260402 -9.35613 16
151 1 6.38014 -1.56109 7.15644 14
152 1 -2.11738 6.43528 -16.5882 18
153 1 7.69887 1.33513 -6.11082 20
154 1 -10.5348 -1.35585 -13.4712 17
155 1 -9.44053 11.2574 -12.9144 13
156 1 -6.95974 12.558 -5.72158 16
157 1 6.55801 1.42332 8.05446 21
158 1 -1.70028 -7.50012 -12.8174 19
159 1 -7.56306 10.4886 -10.8541 19
160 1 0.0813415 5.78969 -13.1497 21
161 1 -0.946989 2.58653 8.02994 18
162 1 -8.49628 12.8543 3.25922 16
163 1 -2.65316 -10.2827 -6.49895 20
164 1 -12.5665 -12.1263 -9.25389 9
165 1 6.30303 -10.7143 -7.56163 10
166 1 3.46785 -5.67344 -2.41412 19
167 1 7.56919 7.73609 -7.01478 20
168 1 -2.91985 11.8802 -6.24676 17
169 1 -15.0143 2.29241 2.32554 11
170 1 0.980584 9.02689 4.50527 24
171 1 12.0689 -0.45458 -0.972789 20
172 1 1.86503 9.60192 1.62066 23
173 1 -14.1735 6.52304 3.40316 9
174 1 -7.63892 -13.2407 -6.63352 22
175 1 5.93068 5.77021 -13.0726 15
176 1 3.72553 3.21903 6.07816 18
177 1 9.09038 6.41822 -9.27787 16
178 1 0.824926 -12.3837 -5.82668 15
179 1 -6.07611 -8.27403 -16.8384 10
180 1 6.24474 -4.20989 -10.7297 15
181 1 -6.7045 -10.0557 3.05617 20
182 1 -2.90319 -15.4465 -4.74506 13
183 1 -13.3354 -6.73207 -10.5849 10
184 1 4.40172 12.9068 -7.73542 12
185 1 2.70117 -2.64465 -19.4584 10
186 1 4.26071 -0.329693 9.70552 18
187 1 13.2923 2.62003 -0.141707 20
188 1 -6.13391 -6.76277 -2.638 18
189 1 9.51117 -2.42311 -15.3196 11
190 1 -5.15178 -5.22812 -0.416323 16
191 1 -8.22164 -5.73052 -15.2678 12
192 1 -10.3477 1.27032 -14.2723 18
193 1 10.4683 6.24818 10.1795 11
194 1 9.18384 -0.315394 7.13143 18
195 1 -3.45327 -10.9659 -12.123 11
196 1 1.58763 -6.72287 2.71952 18
197 1 0.274905 7.83906 -16.3155 18
198 1 0.922907 6.68198 -0.422061 20
199 1 -8.9251 -6.78558 -0.430839 13
200 1 -1.05178 15.5598 -1.99873 17
201 1 -9.56311 -2.50514 3.86521 23
202 1 -3.057 -8.82811 -14.6753 11
203 1 -5.68705 -5.29308 -17.1154 19
204 1 -8.92989 -10.6549 -4.81576 22
205 1 -2.46433 -8.40529 -1.09197 18
206 1 11.5865 0.702856 2.01183 20
207 1 -4.69863 -5.0351 -5.39018 20
208 1 -9.49518 -10.1294 5.13673 13
209 1 -5.35753 -10.1508 -2.10422 21
210 1 -0.384085 -15.7802 0.918722 15
211 1 -3.01334 14.5477 -4.33092 16
212 1 2.64193 -0.229713 -13.5875 21
213 1 -6.61958 -3.03244 -21.0443 8
214 1 0.523765 -10.4644 -2.32598 15
215 1 -3.57066 -12.2036 -9.49508 15
216 1 -12.3067 2.53427 -16.5735 7
217 1 7.46122 5.06695 4.07127 19
218 1 -6.7047 1.61282 -14.8563 20
219 1 -0.563258 8.89543 -13.2439 17
220 1 -6.11191 -5.04386 2.7774 15
221 1 -8.75749 14.6576 -3.70085 13
222 1 -3.50298 11.6152 1.78427 18
223 1 9.68904 -1.95594 -2.29552 22
224 1 -14.0172 0.0564605 4.02779 12
225 1 -2.05195 -6.45747 8.8328 14
226 1 -6.0815 9.16443 0.127496 22
227 1 4.601 -4.71104 -17.699 15
228 1 -0.180263 -14.7949 5.19071 11
229 1 -0.716835 -1.45874 14.1388 10
230 1 -12.7779 -6.54728 2.14027 18
231 1 14.3515 -3.38107 -9.3639 10
232 1 3.06705 -6.93097 -7.32297 18
233 1 7.36113 -8.8 -9.66367 10
234 1 -10.5492 -5.29486 1.35514 16
235 1 -9.92253 13.205 -1.2649 16
236 1 1.76692 8.63886 7.28444 19
237 1 7.85996 7.95137 8.81895 17
238 1 -8.76563 0.50203 -0.1764 22
239 1 6.40496 -7.70696 -6.49666 17
240 1 -3.47292 9.5566 -1.36895 17
241 1 -5.19638 6.58328 -0.444326 22
242 1 -2.32037 -16.194 2.80464 17
243 1 12.6061 -4.2898 4.87527 11
244 1 -4.34762 9.08192 8.24978 15
245 1 -11.2701 -0.28084 -7.43448 22
246 1 -4.07552 -1.79552 13.079 11
247 1 -3.82939 18.5344 -1.465 8
248 1 -2.93656 6.3901 -13.5341 19
249 1 -9.4731 2.39372 7.62919 14
250 1 -14.3244 4.76591 -2.20595 16
251 1 -5.68222 -3.16102 -7.81632 20
252 1 -10.1707 8.84053 -5.29562 19
253 1 9.30484 2.95743 6.54814 18
254 1 -13.9579 -13.6941 -2.1458 10
255 1 5.6778 -9.01375 5.90159 11
256 1 -15.7423 10.5047 -1.4808 11
257 1 3.70611 -7.48178 11.0537 7
258 1 2.01972 -13.2575 -9.7019 12
259 1 -8.29222 -4.01127 -12.2743 19
260 1 4.36634 2.26803 -13.4337 19
261 1 2.74985 12.7003 -0.487598 17
262 1 -13.7101 3.84948 -11.1119 11
263 1 4.95836 1.31194 -18.563 11
264 1 -10.9089 -14.2469 -2.78941 16
265 1 -16.0709 -7.59309 -4.38483 12
266 1 -3.23358 -5.88756 -3.50686 20
267 1 7.68547 4.51367 -6.49497 19
268 1 -4.11386 0.233864 -15.9732 20
269 1 -10.8689 3.77874 -10.99 22
270 1 -9.3892 10.5419 4.89938 13
271 1 -8.40913 11.7435 0.340924 23
272 1 -8.18432 7.84118 7.82121 10
273 1 8.33874 -2.65541 -8.67096 16
274 1 8.23393 3.15684 -9.10852 18
275 1 -3.23897 8.59799 -5.26084 18
276 1 -1.55278 -6.96436 -5.95366 21
277 1 -3.69233 15.6442 0.0940748 16
278 1 -7.58302 3.6608 -6.07876 19
279 1 5.15752 -12.5254 -1.99813 13
280 1 14.4009 -0.751396 7.19767 7
281 1 -14.4739 0.179674 -9.6531 11
282 1 -8.42872 -8.14196 -3.56525 21
283 1 -5.2623 10.7882 -7.82354 19
284 1 -14.1265 -6.36004 -6.63903 15
285 1 -9.76518 5.30079 -8.21392 22
286 1 -2.34105 11.8727 -12.4003 12
287 1 8.05473 10.0313 6.68382 13
288 1 -15.6719 -7.67484 -0.496465 14
289 1 -5.17534 -8.55405 -8.11006 21
290 1 -12.62 -3.13335 2.30434 21
291 1 -11.2913 8.27308 -8.10888 19
292 1 0.818814 -10.2132 2.83052 19
293 1 -8.65989 -16.5171 -2.09478 14
294 1 -0.442305 11.8724 -14.7266 11
295 1 -12.6693 6.25429 -9.467 16
296 1 -5.42789 -14.4335 0.9956 18
297 1 15.0908 6.34924 2.24828 12
298 1 -0.90394 5.85735 6.77535 20
299 1 -16.2868 -0.693514 -6.58343 10
300 1 -12.0107 8.31231 4.69173 12
301 1 -6.50441 -16.8052 0.302011 11
302 1 -2.66149 -2.57824 -9.15353 22
303 1 8.02251 -4.48627 -17.6275 8
304 1 -4.1783 -11.0178 5.22965 19
305 1 -10.6798 0.71259 3.4123 17
306 1 -2.92301 -5.09716 5.04576 16
307 1 0.784727 -9.02872 -7.12426 18
308 1 -0.705129 -4.97661 -14.0797 19
309 1 -2.17304 -3.98851 7.58023 13
310 1 1.84302 -7.68741 -4.03989 18
311 1 -2.94321 2.19323 -18.278 14
312 1 3.36436 -11.1395 4.69259 15
313 1 -2.37704 11.7235 -9.13952 18
314 1 -5.44012 -6.28764 10.2195 13
315 1 -6.35377 -3.47131 8.25241 15
316 1 9.98275 -2.53996 9.71442 10
317 1 9.80992 1.06888 -3.72019 18
318 1 -7.33759 5.47816 2.32519 22
319 1 0.805085 -2.47645 -13.8746 22
320 1 9.65339 -4.27394 3.2942 18
321 1 15.2121 -0.881238 -9.297 9
322 1 -5.04394 1.14518 11.9821 12
323 1 -0.637696 8.04567 -7.78071 18
324 1 3.08831 -7.99628 4.82714 21
325 1 -5.89692 -17.7586 -5.25359 8
326 1 -4.11782 17.1033 2.42444 10
327 1 -9.8234 -11.6227 -11.1582 11
328 1 3.58353 2.42191 9.33286 17
329 1 -5.8213 3.34402 7.70645 18
330 1 -4.2516 -5.98529 -8.7569 19
331 1 -12.4571 3.36289 3.72399 13
332 1 -9.9923 -5.79666 -5.74477 18
333 1 -7.50002 16.1148 3.35224 9
334 1 -8.70698 -15.8477 -5.83435 13
335 1 -0.0432675 -7.76714 -16.2432 13
336 1 -11.5276 -12.032 -0.175823 25
337 1 -9.78648 -1.41618 1.09398 18
338 1 11.2434 -1.90713 4.4133 19
339 1 -7.89869 -8.27688 9.49965 9
340 1 -10.2176 0.729475 -18.3252 12
341 1 10.0664 3.6328 -0.14475 18
342 1 -10.6048 -13.0822 -6.2899 19
343 1 1.14278 3.53642 -10.7554 22
344 1 0.124781 15.2084 -5.02701 13
345 1 -6.25198 11.015 -14.3791 17
346 1 -0.183123 12.3477 0.912906 22
347 1 -13.0318 -2.28041 -7.73581 17
348 1 5.40641 11.0315 -11.1224 11
349 1 -6.27449 -6.8694 -13.6357 17
350 1 -0.700327 -13.3969 -11.8914 10
351 1 -2.58964 -2.92214 -12.4101 22
352 1 -12.2065 11.2359 0.11734 12
353 1 1.18362 8.44465 13.5926 7
354 1 6.18773 7.51643 -1.44055 16
355 1 -1.83331 7.58789 -2.62503 16
356 1 -6.24037 3.62829 -17.7754 10
357 1 1.50205 0.918608 -11.0364 23
358 1 -3.20095 -6.30757 2.00341 14
359 1 -15.0678 -5.4926 -2.75196 16
360 1 -2.18765 3.76848 -14.5107 21
361 1 14.5297 4.37311 -2.47057 15
362 1 5.12598 -6.74293 -0.0470554 17
363 1 12.8509 -3.36104 -1.4915 17
364 1 1.42935 -1.56573 -16.9322 16
365 1 -1.55522 -9.19246 -3.57498 18
366 1 -5.49148 -16.2733 4.51741 9
367 1 -0.00418131 -6.33254 6.20206 21
368 1 -8.15989 5.88294 -11.9547 18
369 1 -0.199264 -10.2922 -11.591 15
370 1 -1.53185 0.0670221 -12.9729 20
371 1 1.25699 -4.96322 11.9856 10
372 1 -12.4381 -4.3861 -3.74467 20
373 1 14.4083 -2.01325 -12.6419 7
374 1 7.95483 -1.62697 -5.2028 18
375 1 -5.41446 12.4773 -0.359821 20
376 1 0.34784 -5.59872 -8.59488 20
377 1 7.36605 1.65181 -12.7688 17
378 1 10.5734 -3.33644 -10.5447 20
379 1 -6.41274 -1.26612 10.8981 14
380 1 7.17297 11.8493 -0.170089 8
381 1 -3.03528 -5.65808 -18.003 13
382 1 -5.46358 0.639211 5.75992 18
383 1 -5.47596 13.4286 -2.76272 15
384 1 -3.92314 -3.1849 -20.0108 12
385 1 -11.1173 3.20591 -2.76098 21
386 1 -6.98969 -8.19236 6.30136 18
387 1 -3.1242 8.72278 -8.32207 18
388 1 11.3108 4.14457 -2.72929 18
389 1 -14.4323 -9.72752 -2.37262 15
390 1 -5.86762 -13.0472 -1.57379 17
391 1 -10.5483 14.3509 1.54891 12
392 1 0.779201 -1.8456 -10.504 20
393 1 0.990838 6.06398 -5.97863 20
394 1 13.5765 -2.49744 -6.42001 12
395 1 2.53162 10.4873 -11.5264 15
396 1 -0.17991 -8.26702 0.0313938 14
397 1 -8.92715 7.48686 4.39853 20
398 1 3.1408 12.0752 8.80173 9
399 1 -0.438234 2.44232 -19.9468 10
400 1 -10.8072 -9.20506 -9.73659 12
401 1 1.4942 -1.38171 8.93462 17
402 1 5.94335 12.9141 6.72901 9
403 1 2.07902 9.17402 -7.59143 18
404 1 -11.5222 13.0529 -4.25372 12
405 1 -7.14762 8.96999 -5.78596 20
406 1 12.5681 -2.50215 1.69026 19
407 1 10.7247 2.52008 -12.0666 14
408 1 -15.2019 -11.2015 -0.526835 12
409 1 -3.22842 5.29705 8.50218 18
410 1 -5.1782 11.8263 -10.9191 13
411 1 3.51126 -10.9363 -4.55376 17
412 1 5.50731 -1.99157 -17.7889 10
413 1 -4.42418 14.0986 -7.46729 11
414 1 -10.0198 -6.19951 -10.6969 15
415 1 1.01061 -12.4518 6.21177 16
416 1 -11.6263 -11.1732 -3.36669 21
417 1 -5.83182 2.6746 -7.80843 19
418 1 -12.4936 -8.48006 4.44683 13
419 1 1.83237 8.42355 -4.51279 17
420 1 4.86002 -13.5142 -9.81288 7
421 1 9.15566 -7.57775 5.27384 11
422 1 4.42465 0.897151 -5.55468 19
423 1 -11.1298 6.58586 2.18249 19
424 1 8.67389 -4.51731 -3.10566 18
425 1 -0.0308818 11.6504 6.28821 16
426 1 -4.69631 1.44185 -13.1007 19
427 1 0.339862 14.51 4.83484 11
428 1 6.1145 6.03914 -8.71795 19
429 1 0.985292 -4.65671 -16.6927 20
430 1 -7.00103 -7.08995 -9.72885 17
431 1 -16.1169 -6.96753 -8.07891 8
432 1 16.0439 4.25239 0.39636 14
433 1 15.183 -1.77114 -3.25855 10
434 1 3.89673 -2.47531 -15.3823 20
435 1 9.18926 -5.7464 -8.24328 19
436 1 6.51573 7.98806 5.55874 20
437 1 -9.56684 3.69848 -0.570466 19
438 1 12.4699 6.07278 -4.15718 12
439 1 10.2709 -4.41202 0.560666 19
440 1 8.19415 3.79367 -14.8715 10
441 1 10.2934 2.30381 10.6385 13
442 1 4.267 -3.30279 9.45224 17
443 1 2.71553 -1.76279 12.2933 14
444 1 11.9422 -0.0816185 -10.2087 16
445 1 8.36641 4.13564 9.64448 18
446 1 -9.56362 0.416225 -11.5524 21
447 1 14.516 7.13326 -1.22848 11
448 1 11.7184 -6.82979 2.53987 13
449 1 -0.100188 -6.06108 -2.65193 20
450 1 12.0791 3.50899 8.72893 11
451 1 -1.55781 8.97314 6.6761 21
452 1 5.1821 2.53945 1.93657 18
453 1 -4.27163 11.3006 -3.63489 18
454 1 3.78681 8.4222 -10.0838 19
455 1 9.49029 1.05274 -14.9273 11
456 1 -0.210735 12.1281 -3.22854 13
457 1 -0.820678 -14.3549 -8.4473 14
458 1 -15.2923 5.06633 1.30987 10
459 1 -4.19644 4.22064 -15.9721 18
460 1 -9.1258 -11.8948 2.29303 16
461 1 -7.92954 -2.83761 -15.7581 16
462 1 -14.7994 4.03321 -7.9579 14
463 1 7.78254 -10.1534 -1.70673 17
464 1 9.78297 7.23359 6.88866 15
465 1 -3.13048 -11.5383 -1.11612 19
466 1 -7.01368 -0.220462 -17.475 17
467 1 6.6396 1.95763 4.85425 16
468 1 1.50573 5.15441 13.8875 9
469 1 2.79253 10.3743 -15.8457 9
470 1 4.36761 3.51017 -10.853 18
471 1 0.1328 -15.4728 -5.16231 12
472 1 14.9918 -2.01407 3.6701 11
473 1 6.55542 8.35958 2.26806 17
474 1 13.0103 -5.98449 -0.266359 12
475 1 1.31893 3.9951 11.4604 15
476 1 -12.9293 -7.94021 -4.22546 21
477 1 -12.1745 0.534243 -11.1604 19
478 1 8.17346 -0.357959 10.2397 16
479 1 -1.75549 -8.37037 4.07212 20
480 1 5.55795 4.94131 9.97381 20
481 1 -12.4219 10.714 -6.62933 13
482 1 13.0608 5.52458 0.473127 22
483 1 8.22333 2.72819 1.7756 19
484 1 -5.2224 -2.04744 -13.9117 20
485 1 -12.5644 -2.60415 4.98797 13
486 1 3.83466 -2.97336 -12.4342 20
487 1 -1.65307 -8.23567 -9.19107 21
488 1 8.61378 -6.26562 -11.3815 16
489 1 5.55889 9.89247 8.57188 16
490 1 4.6599 5.50869 2.57628 18
491 1 9.51322 7.8951 4.29668 14
492 1 0.938332 -7.62509 9.68193 15
493 1 -2.62996 2.93301 11.1024 14
494 1 1.52657 -8.15195 -10.157 16
495 1 -6.52281 1.41966 9.57751 14
496 1 6.67942 1.97922 11.2425 15
497 1 13.0071 2.60962 -4.44189 15
498 1 2.33266 -11.496 -12.3647 12
499 1 -7.87053 -1.18498 -9.16275 19
500 1 3.89824 7.24131 0.0555001 22
501 1 4.508 11.464 1.04563 20
502 1 1.42115 1.09397 6.77691 18
503 1 1.37757 14.8222 -7.99655 12
504 1 8.9206 9.23618 -0.0542267 14
505 1 -6.92785 -6.5242 -6.3515 22
506 1 -5.37552 4.5172 -12.5714 21
507 1 -13.4126 9.6345 -4.01449 18
508 1 5.88639 -7.22254 -16.2494 14
509 1 6.58643 3.18001 -1.14912 20
510 1 8.8588 4.9608 -11.937 15
511 1 12.3605 4.43914 -7.21535 11
512 1 -3.77976 5.46533 2.3196 19
513 1 -7.7966 5.09425 -2.88997 20
514 1 4.39981 6.61028 -6.41106 22
515 1 -5.2993 -13.9836 7.86106 10
516 1 -2.06262 5.72793 -20.1775 6
517 1 2.86285 13.582 5.95528 10
518 1 0.843203 3.2636 5.19886 17
519 1 5.97469 11.728 -4.94606 14
520 1 5.95369 10.7879 3.82444 11
521 1 11.5717 -5.95113 -6.74977 13
522 1 -14.3164 -2.56662 -1.65556 15
523 1 1.69945 -14.4056 -0.710866 12
524 1 -5.19102 -4.47319 -11.3469 19
525 1 -3.7348 10.1813 5.02842 21
526 1 3.06959 -4.34562 -9.5253 15
527 1 2.67381 9.36927 -1.37051 18
528 1 -13.2197 -1.61323 -4.6157 20
529 1 4.323 -9.22497 -2.04402 19
530 1 9.73287 6.12851 -4.96676 17
531 1 1.8853 -5.29067 0.219929 20
532 1 0.401012 12.1001 -6.40047 15
533 1 2.57063 2.73012 -18.7623 11
534 1 -2.33699 -9.38193 7.07813 16
535 1 2.84912 13.8205 -5.11236 15
536 1 -2.29585 0.955327 14.0842 9
537 1 -8.22879 -4.77596 -18.669 12
538 1 3.11058 -1.01385 -8.85648 15
539 1 -1.32574 10.9735 3.04543 20
540 1 6.50598 -7.90032 -13.091 14
541 1 2.43166 -4.98984 5.59492 19
542 1 2.46603 -14.0352 -3.61754 14
543 1 -9.65458 -3.70975 6.69909 14
544 1 -1.83165 -0.071538 -10.4828 19
545 1 -8.70038 -13.4221 -3.76523 23
546 1 -7.39508 -2.0189 5.9299 17
547 1 11.6218 4.83726 -9.97356 13
548 1 -2.14639 0.891235 5.71625 21
549 1 -16.02 8.41138 1.03429 7
550 1 6.90765 -1.54928 -1.14471 19
551 1 -8.87988 10.1434 -16.6307 9
552 1 10.8652 -0.984556 -13.2066 17
553 1 8.36333 3.60742 -3.3331 18
554 1 -9.28882 1.82047 -8.89045 23
555 1 -6.5427 -10.0523 -11.2339 15
556 1 -1.97321 6.15872 -10.423 17
557 1 -0.198094 -2.66556 10.8585 15
558 1 -12.1012 -16.2134 -0.347786 10
559 1 -3.63851 -4.76126 -14.2882 19
560 1 -10.6824 6.4781 -2.68018 19
561 1 3.16753 14.4069 2.66682 11
562 1 -12.9619 -5.66713 -0.383413 19
563 1 7.33644 7.98122 -10.8687 15
564 1 -0.350234 -15.2442 -2.35055 14
565 1 2.04357 1.54085 -7.87206 20
566 1 -0.705566 -3.25394 -18.8815 13
567 1 -1.2503 -0.837155 7.91526 17
568 1 -0.183111 4.17288 -17.1942 19
569 1 -15.8853 2.34662 -4.82667 12
570 1 6.41396 0.611493 -3.55147 17
571 1 -8.97516 -1.9311 -2.44637 19
572 1 13.481 2.10273 -8.14306 8
573 1 5.54623 -1.74873 -6.96945 17
574 1 -8.45124 4.60508 9.53269 12
575 1 3.56697 -8.9519 1.49986 18
576 1 11.7877 -6.20035 -3.4549 15
577 1 9.35399 -3.84379 6.49047 16
578 1 -1.27201 17.5273 0.362727 13
579 1 -4.00505 0.238309 8.19354 16
580 1 -5.27848 -12.908 3.1354 20
581 1 9.15253 0.58265 -0.534923 20
582 1 4.60181 4.6727 13.0343 13
583 1 -14.8018 -3.88121 -5.54962 12
584 1 6.46286 -6.88019 -3.14557 21
585 1 0.163544 10.6311 -0.834823 16
586 1 6.1632 -2.83238 11.5243 9
587 1 -2.03924 14.3941 2.36527 18
588 1 -3.19112 -12.5619 9.96399 7
589 1 -10.373 -2.26507 -5.40283 19
590 1 3.55605 1.45119 12.0888 16
591 1 5.15201 13.8169 -2.48575 10
592 1 -8.96591 -14.3874 -0.289436 22
593 1 5.2671 -4.49461 6.13496 15
594 1 7.04569 -0.0801233 1.81745 19
595 1 4.59295 7.22276 8.09645 20
596 1 -4.8839 6.5715 -7.61987 16
597 1 -0.523638 -10.989 -8.614 19
598 1 -7.51878 5.11358 -14.7668 20
599 1 -3.9636 -3.81022 10.4339 16
600 1 -0.659765 19.589 -1.8986 4
601 1 15.0404 0.694343 1.57888 14
602 1 -4.43332 7.89256 -11.0287 15
603 1 -3.24216 6.85487 10.8899 12
604 1 7.86603 11.5765 9.17463 7
605 1 5.77586 -4.64523 -13.8943 21
606 1 -5.69339 -12.7706 -4.41361 18
607 1 -7.09502 -0.710461 -12.4432 18
608 1 15.4739 0.684447 5.30329 8
609 1 2.58104 -5.24475 -14.0823 21
610 1 -4.71391 -8.48609 -4.91836 20
611 1 8.85423 -6.447 -5.22738 17
612 1 3.90751 -6.42206 7.87989 19
613 1 -5.79162 -15.2894 -7.58125 11
614 1 6.91554 9.6469 -2.79228 15
615 1 -8.98177 -7.65899 3.38457 21
616 1 -12.1581 4.53416 0.524215 17
617 1 6.97098 10.5869 -8.82936 12
618 1 4.19276 0.0174219 -21.0097 6
619 1 -6.73722 11.0943 2.58519 21
620 1 2.25117 5.08251 -15.6759 18
621 1 9.26121 -7.06874 -1.03546 17
622 1 -10.388 2.98638 -5.89142 23
623 1 11.9517 8.50522 1.47513 13
624 1 -13.9303 -14.0081 1.12529 10
625 1 2.36617 6.0446 5.46174 18
626 1 -13.2092 -2.93537 -11.2809 13
627 1 -9.92374 4.53996 4.57624 16
628 1 -6.08991 6.24484 -5.28684 20
629 1 8.45937 -5.62526 -14.9185 15
630 1 -14.6715 -9.52213 -6.04655 11
631 1 10.91 -9.05678 -3.39916 11
632 1 -16.1238 7.35407 -2.48444 11
633 1 -11.6755 -5.47738 -8.38568 17
634 1 -10.1761 -7.6667 7.00414 12
635 1 14.5004 -4.84324 2.78813 10
636 1 9.61205 -1.80816 1.09457 22
637 1 -12.8479 6.51126 -3.77972 18
638 1 -1.57729 9.32146 10.074 10
639 1 0.789362 7.29209 -10.7212 21
640 1 -5.10635 13.9307 3.05361 21
641 1 8.56126 9.89312 -5.65082 12
642 1 0.351696 6.96779 9.9435 15
643 1 7.40632 -5.40265 2.58044 14
644 1 5.29616 9.2296 -13.4001 13
645 1 -3.74663 -2.17389 6.34075 18
646 1 -1.53288 -2.17831 -15.6136 22
647 1 -15.3186 2.14018 -0.563529 13
648 1 -7.08427 -13.3396 5.47944 13
649 1 9.44713 1.3429 4.09534 17
650 1 -3.41297 -13.1219 -6.54849 16
651 1 -15.9913 5.55099 -5.21305 12
652 1 10.4369 -4.55876 -13.0675 14
653 1 -8.68127 9.07208 1.57724 21
654 1 -8.63315 0.767256 5.28386 16
655 1 -9.33341 -11.6002 -8.13761 20
656 1 -2.5625 -12.0329 -3.9589 16
657 1 3.37866 -11.7224 0.413337 15
658 1 2.36742 8.01749 -13.9579 20
659 1 11.5609 -2.93201 -8.15774 15
660 1 7.17712 5.78369 0.285326 20
661 1 11.445 -3.24557 -4.56465 18
662 1 -5.02705 -2.49695 -17.2126 19
663 1 -1.37993 -11.9338 4.46744 21
664 1 5.02859 9.5849 -7.01759 21
665 1 4.83924 0.191512 -11.1712 16
666 1 -12.5142 4.78175 -5.79599 22
667 1 3.18983 5.1436 -8.64218 21
668 1 -11.4743 -5.73046 4.85136 19
669 1 3.56644 8.28616 4.4929 19
670 1 -4.04158 -18.302 2.22675 9
671 1 4.74224 8.58872 -3.5805 17
672 1 -5.85582 6.5493 8.34014 15
673 1 -8.76318 -1.13767 8.19906 16
674 1 10.0861 -0.727552 -7.07417 18
675 1 -8.05774 -5.54315 4.97223 18
676 1 2.66038 -9.85716 7.49313 14
677 1 -6.70181 2.38817e-04 3.00902 19
678 1 7.11004 6.15057 11.5908 10
679 1 4.00062 -6.55535 -11.3507 20
680 1 -1.71747 -0.594823 -18.4377 14
681 1 -5.72371 7.0492 -16.3283 18
682 1 -11.0015 4.39566 -13.9953 14
683 1 12.2619 6.78254 4.03653 14
684 1 -0.448298 8.51983 1.05862 21
685 1 -11.0833 -9.53592 -6.42056 18
686 1 -6.06246 7.76611 -2.6599 20
687 1 11.8449 1.33594 5.87179 16
688 1 -6.06026 -7.79957 0.954129 19
689 1 8.21279 -2.60572 -12.4352 20
690 1 -2.75984 -14.2513 -0.749524 19
691 1 -1.0863 0.809185 -15.8524 18
692 1 -8.04789 2.44915 -12.3483 22
693 1 -10.7893 -5.88279 -2.3648 17
694 1 -14.2571 7.78253 -6.44798 14
695 1 -10.4748 5.7304 7.02691 10
696 1 7.67309 -2.44887 4.2603 19
697 1 -12.1572 -10.735 2.19985 13
698 1 14.8398 -1.75186 -0.435084 13
699 1 0.618129 2.72474 -13.8345 21
700 1 15.4054 1.38305 -1.48862 13
701 2 -11.2828 0.10435 -12.513 16
702 2 -7.04649 12.479 -11.2221 13
703 2 2.68596 -7.67561 -12.0229 20
704 2 -4.05165 7.17004 9.15371 14
705 2 -14.3899 -6.40747 -8.70125 10
706 2 6.08459 -4.02168 10.0398 11
707 2 -14.5471 -11.6974 -2.2337 11
708 2 -15.0127 11.1557 -3.12455 10
709 2 -1.25739 14.3221 3.96226 15
710 2 -13.826 -1.39379 2.65744 15
711 2 7.77665 3.3938 5.38386 16
712 2 -4.28403 -1.67587 -8.83963 22
713 2 -8.92007 -12.8868 -9.74541 15
714 2 -13.305 3.34365 -6.79923 18
715 2 -3.58234 -4.93488 6.9733 17
716 2 3.34454 6.42258 3.87443 19
717 2 7.06209 0.543594 -11.2344 15
718 2 -2.29479 -17.6845 1.63296 9
719 2 5.50082 0.731526 1.7772 22
720 2 -4.19277 14.7656 -2.91741 15
721 2 -10.7271 -0.407987 -15.1429 16
722 2 11.3068 0.161613 3.98947 18
723 2 8.70722 -7.09048 -9.76974 13
724 2 -12.4055 -12.6472 1.56575 14
725 2 -7.63103 -10.2094 9.50525 9
726 2 -5.65838 -14.8886 5.73699 11
727 2 6.47802 -1.79862 2.89645 18
728 2 0.112886 -13.8427 -9.99859 11
729 2 1.41178 -3.06849 11.8614 13
730 2 -8.5149 6.15287 -9.67905 18
731 2 -10.659 -11.2744 -5.54627 16
732 2 0.582306 6.9321 14.1614 6
733 2 -11.6215 9.88889 1.15217 14
734 2 -3.22768 1.92103 12.7452 11
735 2 -4.19695 11.8685 -1.66432 16
736 2 4.74943 -10.9258 1.43911 13
737 2 -4.8492 7.06255 1.76572 21
738 2 0.974444 7.95702 -6.28357 15
739 2 2.19405 -7.38834 -5.78166 19
740 2 -5.69 0.257431 -11.6999 20
741 2 0.895083 -6.01655 -13.6742 20
742 2 6.21534 -0.276232 -5.32036 20
743 2 -5.88928 2.58727 11.1166 15
744 2 6.22154 7.71373 -12.8329 14
745 2 -9.42978 7.06299 -12.6417 17
746 2 11.3625 5.80414 -5.93849 14
747 2 -6.08168 -5.31691 8.68568 13
748 2 -13.9088 11.1279 -0.736237 12
749 2 8.32747 1.70717 -7.88952 15
750 2 0.569024 -11.9699 -11.9975 11
751 2 -14.8887 -9.43002 -0.658446 12
752 2 8.21954 2.42863 -0.186236 18
753 2 -7.95448 9.0483 -0.268533 19
754 2 -6.19221 -14.2091 -9.03003 13
755 2 -5.08015 17.1773 -1.13941 10
756 2 5.67231 -6.15398 7.09906 17
757 2 13.4906 -3.09381 3.56595 13
758 2 -15.8602 3.87352 -6.12579 11
759 2 10.3383 -9.57432 -5.18186 8
760 2 6.1495 -8.96563 -8.25971 16
761 2 8.23458 7.03426 3.36886 16
762 2 1.19007 -13.0768 4.3611 14
763 2 6.00143 -5.03029 1.5516 16
764 2 -9.38726 0.457489 7.11662 16
765 2 14.6174 -2.10896 -8.00812 10
766 2 6.01512 8.33047 7.69098 14
767 2 10.6677 6.71168 5.19175 14
768 2 -7.78395 2.99217 8.57512 15
769 2 2.18396 14.3068 0.939675 15
770 2 11.2647 -7.12066 -5.29404 13
771 2 -1.95156 4.11929 -9.55518 19
772 2 -10.6761 -1.27122 -18.2498 9
773 2 -9.52745 4.10574 6.53467 14
774 2 5.05122 -0.434419 -9.39529 16
775 2 -8.90993 4.15065 -11.1264 21
776 2 -14.7852 -4.37113 -1.10838 15
777 2 -11.3104 -13.3185 -8.01287 12
778 2 15.4067 -0.59597 -1.73427 13
779 2 -1.11778 -8.0956 5.86277 15
780 2 0.241905 0.286176 14.4394 7
781 2 4.16157 2.79757 -17.5382 13
782 2 5.22638 1.36665 9.69179 18
783 2 -1.70749 10.8091 5.67915 17
784 2 -8.73017 1.19066 3.36578 18
785 2 4.99513 -6.50252 -6.6705 18
786 2 12.3145 -3.58107 -9.69602 18
787 2 -10.4283 13.108 3.45195 11
788 2 -3.96869 -9.80691 -0.830528 18
789 2 8.11341 -6.57808 -13.2932 15
790 2 3.99431 2.3638 -6.81161 19
791 2 3.494 3.91338 2.04021 17
792 2 7.26531 -4.31657 -9.01419 16
793 2 2.24873 -4.77453 2.18 18
794 2 -9.41298 -13.0131 -1.83506 19
795 2 8.72996 0.0791663 -2.5 20
796 2 -10.2859 -10.2904 3.05204 18
797 2 7.38184 7.49158 -9.0824 17
798 2 -2.75825 -11.5291 0.788187 20
799 2 15.2147 -2.11919 -10.7564 8
800 2 0.0823512 -13.7211 -6.5415 18
801 2 12.6812 -5.34398 -2.12237 13
802 2 -1.90012 12.2282 1.77016 18
803 2 9.02068 3.0019 -10.8969 16
804 2 -8.61161 -5.57021 -13.4381 13
805 2 -15.0133 -9.15633 -3.94858 16
806 2 -2.24853 -7.31247 0.52579 17
807 2 -4.99105 -5.25963 -3.05991 18
808 2 -9.02784 11.6107 -1.62767 17
809 2 -12.6795 7.4116 3.31239 13
810 2 0.573914 -1.18446 -12.4367 23
811 2 9.83356 2.92116 -2.53169 17
812 2 -2.20411 7.56833 -6.63992 15
813 2 -4.56223 4.75151 7.19088 17
814 2 -2.58192 -0.0927206 -16.6032 16
815 2 -10.9859 7.18162 -4.4576 21
816 2 -5.21398 1.63397 7.56544 16
817 2 -13.36 5.03764 2.4402 14
818 2 -6.43389 7.40781 -7.81829 21
819 2 6.04837 12.8175 -1.43857 12
820 2 13.6265 0.280728 -9.44046 10
821 2 10.493 -4.9592 -4.59956 15
822 2 -9.75005 -5.60201 6.1169 17
823 2 12.2304 -3.76199 0.156608 22
824 2 -2.31001 14.5994 -0.87427 22
825 2 -7.36201 2.32392 -16.4933 18
826 2 -10.3876 5.3999 0.865768 20
827 2 8.53525 -1.81126 6.19776 15
828 2 -5.00432 -10.994 -10.9339 13
829 2 4.5275 5.71235 -16.7075 9
830 2 13.1138 6.81433 -2.52936 13
831 2 -7.96798 -8.80403 4.60148 19
832 2 -3.11804 8.97375 -3.30696 16
833 2 -1.48564 9.50929 -8.98532 20
834 2 1.39384 11.8108 -10.6248 12
835 2 10.6116 4.19986 9.83832 12
836 2 0.112945 9.04919 9.879 14
837 2 9.91525 -3.77132 -8.51746 18
838 2 -2.49255 -0.954789 13.9724 8
839 2 2.27993 -3.18676 8.86082 19
840 2 -15.0278 2.58032 -2.55182 13
841 2 -2.80728 -14.016 -8.7199 13
842 2 2.33588 -8.52543 -8.35946 17
843 2 2.05775 -3.66267 -12.7715 20
844 2 13.0115 2.41774 1.79621 19
845 2 -3.71293 -3.56116 12.3127 11
846 2 1.62161 3.27203 -15.3798 18
847 2 -4.60646 -11.3003 10.2313 10
848 2 -1.26074 -5.08178 -18.2838 12
849 2 -1.00347 -11.1809 -3.60748 15
850 2 -1.64264 -4.68695 -8.60303 19
851 2 0.746715 -14.3411 0.838631 17
852 2 12.6476 3.39024 -9.14703 9
853 2 -4.69118 8.07205 -17.5254 13
854 2 -6.778 9.19251 2.16047 20
855 2 -10.3403 -4.78081 -3.78153 16
856 2 -8.29581 -3.1317 -20.0132 9
857 2 1.07943 11.1111 -15.1905 11
858 2 -2.91953 13.6713 -8.21819 14
859 2 -4.04768 -9.35634 3.25029 20
860 2 15.8243 1.23936 3.32439 10
861 2 0.863941 3.4308 13.2555 13
862 2 -10.1211 -13.9511 -4.784 17
863 2 4.83252 -10.2374 -6.23354 15
864 2 -0.185157 -0.885219 9.76391 16
865 2 2.42976 14.3434 4.41004 10
866 2 10.855 4.39141 -11.7233 11
867 2 0.695234 7.00746 7.38721 19
868 2 9.32432 7.82182 -6.23605 16