ITEM: TIMESTEP
3000
ITEM: NUMBER OF ATOMS
2000
ITEM: BOX BOUNDS pp pp pp
-30.0 30.0
-30.0 30.0
-30.0 30.0
ITEM: ATOMS id type x y z Coordination
1 1 -8.35969 3.68532 -10.6706 23
2 1 -1.42413 -10.3855 -10.7113 18
3 1 5.28884 13.3276 15.3606 11
4 1 9.35862 -7.47008 12.591 11
5 1 -10.4358 10.8335 -4.98715 19
6 1 7.66907 -8.67064 -2.73011 19
7 1 -11.6866 3.28384 -5.4344 20
8 1 6.76962 -3.81597 15.223 17
9 1 -10.5969 2.16426 -10.9356 15
10 1 -10.1824 -10.0615 10.2133 11
11 1 12.0309 -1.68603 -8.96466 20
12 1 -1.50081 -11.7166 5.88776 15
13 1 -13.3972 -8.69054 2.19162 13
14 1 -0.730349 5.13804 17.8733 15
15 1 4.92331 -4.72431 5.89781 18
16 1 0.404741 5.05294 13.9828 19
17 1 -4.23325 10.2839 -11.3214 15
18 1 0.142531 -6.083 12.3941 17
19 1 -10.1742 -4.55912 -10.9715 15
20 1 -14.1819 -3.52778 12.3085 9
21 1 16.4068 5.45937 7.99239 11
22 1 1.49846 9.65087 -12.969 15
23 1 -1.3512 2.62939 -12.634 18
24 1 15.9262 3.57202 10.7187 12
25 1 -9.46323 1.58083 1.24451 20
26 1 -12.4895 10.4894 -8.10559 12
27 1 -0.910852 1.45499 -7.72409 18
28 1 -8.54435 7.00069 4.29665 20
29 1 6.97906 -10.2317 7.33189 17
30 1 1.30202 -3.28818 13.2238 20
31 1 4.19542 -13.019 -11.628 12
32 1 7.42794 -4.75526 7.96997 19
33 1 -7.79624 -14.4836 -2.30883 10
34 1 -15.5156 -4.65918 7.18827 14
35 1 -1.26544 -8.2233 -11.8874 19
36 1 11.8541 -8.62016 -10.984 10
37 1 -5.69394 3.43135 -15.0218 11
38 1 1.96435 7.64877 15.2091 21
39 1 1.49668 -10.9358 10.5746 16
40 1 12.7189 -5.09043 12.0636 10
41 1 -10.7511 -0.607733 4.71849 20
42 1 -17.6458 0.848104 9.36737 7
43 1 -6.46713 2.10077 -4.02805 20
44 1 -3.29103 12.6364 -1.86481 20
45 1 1.02715 -13.8326 -10.1248 10
46 1 1.03079 4.62832 -7.95075 20
47 1 4.79374 -4.17521 -7.63494 14
48 1 -1.64707 -1.81997 12.2065 18
49 1 -11.3324 4.65516 4.76514 23
50 1 4.57264 12.9995 -9.77859 17
51 1 0.688076 7.40533 11.7859 21
52 1 -5.6275 12.424 -6.08578 19
53 1 0.151764 15.8496 0.347063 22
54 1 3.9934 -13.1036 2.72302 20
55 1 12.8731 -3.56577 -4.81026 18
56 1 4.85358 -6.92814 -15.9977 16
57 1 -7.89024 8.81001 13.0027 16
58 1 -8.31211 -1.55672 -3.89371 23
59 1 7.74405 2.21588 4.03327 19
60 1 -3.78795 9.92961 -3.91238 20
61 1 -6.20851 -8.88803 5.90951 18
62 1 -0.722179 15.7949 12.2146 10
63 1 -9.10384 7.82174 -5.4815 18
64 1 -6.12386 10.8702 17.1656 7
65 1 2.96316 9.52888 -4.39109 18
66 1 -0.150485 -17.2052 6.75247 7
67 1 3.34084 4.59828 9.59953 20
68 1 6.6874 -11.5169 -2.9142 20
69 1 5.6327 9.59901 16.3327 18
70 1 -12.3869 8.83346 -5.37417 16
71 1 -9.60517 11.7891 -10.2676 10
72 1 9.8519 3.82799 12.7319 16
73 1 17.9511 0.0497 -8.76002 8
74 1 5.66578 -11.9583 5.30976 19
75 1 -15.9023 -1.81088 4.88633 11
76 1 7.45152 13.8673 12.3735 14
77 1 0.461394 -1.84791 15.8143 16
78 1 -1.5083 -10.3287 9.56709 16
79 1 -8.37331 -0.793838 2.67756 22
80 1 16.5856 5.97942 11.5985 8
81 1 7.72714 0.291096 -4.85735 20
82 1 -5.79003 9.7622 8.10812 20
83 1 5.59402 1.26766 9.55192 17
84 1 -5.69037 -3.07153 2.46302 20
85 1 -3.96863 -2.14314 -10.381 20
86 1 -12.524 6.87677 10.5927 15
87 1 -8.07619 9.61171 -0.202162 20
88 1 -1.49317 7.67268 -7.45686 18
89 1 9.11133 0.249211 -9.12196 21
90 1 9.71905 12.9739 -7.05359 10
91 1 10.7556 -8.64053 -0.130278 23
92 1 6.08702 -7.09721 13.6163 15
93 1 -5.75677 13.6115 -0.0513227 20
94 1 -6.71055 13.0858 6.5139 19
95 1 -10.4758 -2.51182 15.8769 12
96 1 -2.06358 10.552 7.06573 18
97 1 -5.4254 -4.69976 13.0705 17
98 1 14.076 -8.22343 -0.73144 14
99 1 -7.98393 5.19072 6.20039 21
100 1 -5.65564 -9.41231 2.65028 19
101 1 14.5228 -9.03698 -4.40615 9
102 1 6.13227 1.7177 -13.7761 16
103 1 -7.94819 -1.2843 -14.7819 10
104 1 0.0895454 11.1646 3.71439 23
105 1 -5.80716 4.92723 -5.58233 20
106 1 2.17154 5.80163 19.4125 13
107 1 -0.334192 14.3412 -6.44569 16
108 1 -13.0612 9.03461 -2.7609 11
109 1 3.18891 11.8119 2.01756 18
110 1 -1.92975 -7.02738 9.49818 20
111 1 14.2652 2.27846 8.55715 16
112 1 1.12392 -5.68559 -8.33333 21
113 1 3.39917 -7.07116 -5.63026 17
114 1 0.541577 3.38717 11.1368 21
115 1 5.9992 -1.29955 16.9719 14
116 1 -9.83818 -7.20167 -0.340948 21
117 1 7.32081 -3.8375 4.57587 18
118 1 -5.09353 -8.68815 -1.74124 19
119 1 12.6307 -6.28579 4.83368 12
120 1 -2.8946 9.85932 2.60622 20
121 1 3.6874 4.19729 -15.1845 18
122 1 4.11847 12.1817 -1.48805 17
123 1 -7.19206 -8.73543 12.2634 11
124 1 -5.56431 -13.4383 9.28976 9
125 1 6.70908 -9.25459 -14.6253 15
126 1 3.02122 3.64624 -6.26512 21
127 1 12.3008 -6.103 1.87129 17
128 1 2.57698 -13.5416 9.65303 9
129 1 -5.73612 -11.5444 -0.401691 18
130 1 11.881 9.46833 10.2371 18
131 1 14.9439 -3.93864 -8.41353 9
132 1 -16.418 -4.85508 4.39176 11
133 1 13.6974 8.04284 5.28671 21
134 1 15.2812 10.9502 5.81106 11
135 1 -7.90808 0.0911097 18.0643 11
136 1 8.35336 8.70383 -0.551587 20
137 1 -4.30325 12.5211 8.94013 22
138 1 -6.16003 16.3187 -1.88269 14
139 1 -1.11761 -1.18517 -9.12982 22
140 1 11.8925 -7.87349 -8.23146 18
141 1 1.61045 15.6663 -11.0265 11
142 1 9.98039 -4.41953 13.601 18
143 1 2.58166 -3.45591 -19.6281 8
144 1 0.0682812 10.3123 -5.85847 15
145 1 14.0398 -0.26912 -6.31286 19
146 1 -8.60264 10.5852 -7.7377 14
147 1 -9.02267 14.4833 -0.448515 12
148 1 6.30976 4.85569 -16.8116 9
149 1 8.7043 -7.41043 8.60825 15
150 1 -3.60166 3.37787 -10.9901 19
151 1 -10.7625 9.95006 11.1748 11
152 1 10.6824 6.52038 -2.20936 18
153 1 8.18299 14.6863 -5.98756 17
154 1 -2.07627 16.9641 7.09018 13
155 1 10.0828 3.66085 1.51831 20
156 1 -3.75821 9.98954 -0.334192 22
157 1 1.77572 13.7894 -8.57648 20
158 1 5.78446 6.531 -14.0905 15
159 1 -14.4941 -7.15907 4.61273 14
160 1 -15.01 6.38464 -2.54934 12
161 1 -7.93125 -2.29314 -10.6051 18
162 1 3.94981 -9.68509 -14.9505 17
163 1 10.9989 11.9779 9.22035 15
164 1 0.347148 15.4769 9.35856 14
165 1 -11.5107 -6.36271 2.72727 21
166 1 -10.8901 8.066 5.55644 18
167 1 18.3434 -0.196644 -2.51204 12
168 1 -13.9833 1.30075 -6.49622 13
169 1 7.54432 1.13565 18.4592 12
170 1 2.5183 13.0869 8.25682 17
171 1 -5.86077 9.86439 11.1543 18
172 1 2.13062 -8.28686 -17.1943 10
173 1 -6.39123 14.3275 10.0854 12
174 1 -1.07367 14.3015 -2.99918 20
175 1 2.16091 -4.80317 10.3024 17
176 1 -10.9077 -6.84288 9.67052 15
177 1 -1.5392 -11.9246 -13.7807 11
178 1 -5.90114 10.955 -9.15807 17
179 1 -3.41227 -9.78306 4.86362 19
180 1 1.30353 -10.8149 -1.84642 18
181 1 -1.03727 15.4426 -8.83296 17
182 1 -13.166 3.36821 7.16866 18
183 1 2.49767 9.62288 -0.763804 19
184 1 9.60188 6.71157 -5.21514 18
185 1 -10.189 2.22829 18.72 10
186 1 3.84151 -6.20506 16.1778 10
187 1 -9.75677 3.93346 -0.809241 18
188 1 1.99236 16.6814 3.97222 16
189 1 3.17824 8.2369 10.5627 19
190 1 13.3528 7.89575 11.8788 16
191 1 -4.71582 15.6483 4.8959 17
192 1 14.7578 0.223556 -9.42841 12
193 1 -6.48664 12.0111 13.3188 13
194 1 -5.96531 1.98467 -10.6498 18
195 1 12.1015 -2.5969 1.79872 18
196 1 -5.89585 -3.5487 5.73562 18
197 1 -16.1665 2.0052 6.17193 11
198 1 -7.01394 -11.6295 3.02227 18
199 1 4.07118 8.84249 13.047 19
200 1 -14.9648 -0.105033 3.01112 14
201 1 -3.04069 -13.3456 0.490665 18
202 1 11.6449 -9.31033 -2.82669 18
203 1 0.0211562 8.15204 5.55225 19
204 1 -6.35204 1.83257 6.30743 21
205 1 8.29971 12.4699 15.126 15
206 1 -8.5854 1.06865 -2.2134 22
207 1 -3.65893 15.7489 -3.86108 16
208 1 -14.1221 -4.82207 -6.61416 10
209 1 -7.5445 1.89886 12.1589 20
210 1 2.33575 -11.0334 4.86933 18
211 1 8.2341 -13.2769 6.46229 14
212 1 -11.497 10.8362 4.78652 13
213 1 18.2412 0.627168 4.85197 6
214 1 6.17242 1.80267 -7.56169 20
215 1 -5.80592 -7.92768 -14.9565 14
216 1 3.02647 -0.345347 14.6069 20
217 1 6.43964 -15.1959 1.14547 14
218 1 -1.66507 9.8731 -9.29971 19
219 1 5.70191 -12.3995 -14.3568 9
220 1 7.85917 -2.62483 -16.1195 15
221 1 2.30999 6.87434 -14.0531 16
222 1 -5.68229 -3.54087 -6.9106 21
223 1 -2.90816 17.8607 -2.32213 10
224 1 -7.93036 -7.76607 9.2692 18
225 1 8.29642 14.1897 1.91818 14
226 1 -11.1886 4.09291 16.4894 15
227 1 -6.47107 15.214 -5.14692 9
228 1 8.9392 0.980671 10.7041 21
229 1 -3.16889 -5.87571 -15.7155 13
230 1 -2.63975 12.3917 -4.65704 21
231 1 -0.471388 6.41771 -13.0027 22
232 1 -4.12129 -8.53006 8.25413 15
233 1 -6.01434 6.60626 10.0427 19
234 1 -5.3212 6.5565 13.1276 12
235 1 2.61195 -11.5176 -8.63111 16
236 1 -0.200627 -14.7913 -1.1841 19
237 1 13.3452 -9.3187 2.20078 11
238 1 11.6782 8.15893 17.6685 11
239 1 9.34025 12.1231 -12.5576 7
240 1 0.962955 12.7875 -0.707431 22
241 1 -15.001 2.88438 2.11306 14
242 1 -10.4108 13.2391 -2.8638 12
243 1 2.93332 2.44363 13.522 21
244 1 5.04102 -17.9392 1.89404 10
245 1 16.748 -2.34833 -0.45954 13
246 1 2.8111 6.66903 5.00925 22
247 1 -8.21335 7.58712 7.98907 21
248 1 -12.4825 -9.74804 -0.293901 13
249 1 8.25996 3.56043 -13.0533 14
250 1 3.64397 -1.10992 8.68742 23
251 1 12.8527 6.9529 -6.17828 15
252 1 -0.811737 -9.60003 -3.48355 19
253 1 -3.97789 0.660452 -8.89118 20
254 1 3.23974 -17.2027 4.86328 12
255 1 12.0209 0.996328 -7.23858 20
256 1 -9.10766 -5.7681 4.6427 17
257 1 3.95932 -13.602 -5.7008 12
258 1 -6.21781 -7.04241 -8.25241 19
259 1 5.49633 9.46556 -3.13417 21
260 1 0.133701 -2.29722 -19.3983 8
261 1 7.74356 4.10528 17.291 22
262 1 15.3056 5.52137 3.18235 17
263 1 -6.13619 -6.48846 0.695809 17
264 1 12.9981 -5.59017 -10.4857 12
265 1 0.0796128 -6.71 4.31649 21
266 1 -10.6111 -1.16753 -9.53022 19
267 1 -8.0186 4.68201 -7.8827 17
268 1 -3.53705 -12.5005 12.0386 12
269 1 6.74306 -1.53863 9.95761 23
270 1 2.05683 -3.47668 7.49794 19
271 1 -1.34206 -5.60142 -13.007 17
272 1 0.107624 -5.98096 7.71014 21
273 1 4.05615 7.59025 -11.6362 21
274 1 8.42583 8.24024 3.33846 20
275 1 -5.44128 -6.66617 3.92001 20
276 1 2.36676 10.5752 5.90929 19
277 1 -8.14757 2.67906 15.8082 19
278 1 -10.2822 -7.0887 -9.04815 16
279 1 -5.78132 -4.51678 -10.3664 21
280 1 -0.761308 7.48122 -15.1627 12
281 1 -7.40942 -9.64172 -9.6191 13
282 1 -0.229713 -9.63797 3.42604 21
283 1 11.9549 -4.21985 -12.3086 13
284 1 19.0688 2.0456 -5.65314 11
285 1 13.9233 1.3739 5.54742 17
286 1 -10.2492 -0.284305 13.2493 13
287 1 -2.89642 -10.8548 -1.7307 18
288 1 6.93641 3.518 20.653 11
289 1 -3.23149 -16.9186 5.86533 11
290 1 -0.0722118 -12.5167 0.590272 20
291 1 -0.258284 17.5111 -2.42639 14
292 1 5.82734 -0.412835 -16.7762 13
293 1 -6.40417 -4.91982 -15.4892 12
294 1 -11.4286 -7.38888 12.7619 11
295 1 3.41566 8.52933 18.5237 15
296 1 2.24737 -10.6227 1.32072 22
297 1 -4.12722 -8.0298 -10.4053 19
298 1 -7.84147 7.3783 -9.24 22
299 1 15.3297 9.23231 2.9003 14
300 1 -10.6036 8.75179 -9.80187 15
301 1 -1.64411 12.4165 -7.84537 19
302 1 -3.09036 -4.46039 7.93227 21
303 1 8.77659 -10.2971 -5.23312 16
304 1 -6.13335 15.9808 1.5135 14
305 1 2.46055 9.04042 3.34057 20
306 1 9.60212 4.01241 8.22591 18
307 1 -13.4704 0.689547 5.2509 19
308 1 -4.55929 -2.33394 14.5722 20
309 1 -4.58244 10.8334 5.4201 20
310 1 4.30062 -4.04199 -10.5426 15
311 1 12.4593 12.5581 -2.42787 12
312 1 8.08467 -9.90797 4.76015 20
313 1 -2.63847 0.155153 15.3613 17
314 1 -17.696 -2.55814 7.21651 9
315 1 2.10558 -15.7455 -3.60282 14
316 1 -8.78637 8.59522 16.766 11
317 1 -10.628 8.68966 14.1765 12
318 1 -13.6485 0.708484 14.1782 16
319 1 -13.2559 -3.42105 4.58254 22
320 1 15.5293 -3.07093 -5.03892 15
321 1 -10.4023 -11.7199 7.46442 8
322 1 8.99171 -2.92712 -9.56096 15
323 1 9.85209 -11.3223 -1.53455 16
324 1 4.3271 15.9442 -2.26777 12
325 1 -12.1992 13.581 -6.03663 5
326 1 10.5497 6.42888 10.4381 21
327 1 -8.97466 1.53024 4.50268 18
328 1 9.0991 -6.59366 -4.58017 20
329 1 -1.48172 15.3688 4.28817 19
330 1 -2.37428 7.52671 4.27007 20
331 1 4.41858 -9.29864 11.5116 16
332 1 9.78936 -1.20625 8.4535 16
333 1 -1.83777 7.86514 7.70727 16
334 1 -5.62299 -3.52871 -3.90924 21
335 1 -2.20199 2.16649 17.4715 11
336 1 -0.39315 13.0031 7.02844 18
337 1 8.32357 7.50202 17.5888 17
338 1 -7.24556 13.2723 -3.14175 15
339 1 -0.143575 -3.46558 -14.414 17
340 1 -6.2412 4.84974 -2.03143 22
341 1 4.70004 -9.41812 -11.454 20
342 1 -13.3137 3.16148 14.7203 14
343 1 -14.5805 4.50124 4.76705 16
344 1 -6.31139 -0.835322 -8.28155 17
345 1 -5.56054 10.6581 1.60354 20
346 1 7.95734 1.04748 7.68373 21
347 1 -12.428 -9.59819 5.50357 10
348 1 6.85448 -3.89299 11.6739 21
349 1 -8.15698 -8.10847 15.4382 10
350 1 -12.7095 7.56465 -0.459671 13
351 1 -2.84518 -1.3986 9.19809 19
352 1 1.11233 -9.27377 -8.68933 15
353 1 -8.69684 1.1003 -9.41484 19
354 1 7.25268 -4.34139 -12.3017 16
355 1 1.69353 13.3288 11.341 14
356 1 -12.6079 -3.93034 -3.46917 15
357 1 8.90013 -9.69734 -11.9313 11
358 1 11.0542 3.03888 -9.76823 18
359 1 -1.64611 -9.62891 -6.71225 20
360 1 -7.84515 -8.28346 -6.35144 18
361 1 -3.26008 -7.50936 -0.127534 21
362 1 8.51964 6.17843 20.2736 11
363 1 14.1286 -0.17997 -3.49097 16
364 1 -11.4593 2.98671 -8.22386 17
365 1 2.39193 18.0671 0.292073 9
366 1 -13.6972 -0.950589 -4.06297 14
367 1 -5.30864 7.30663 6.16593 20
368 1 -6.79026 12.6465 3.26177 21
369 1 -4.99059 4.58131 7.77725 19
370 1 12.9622 7.82413 14.9281 14
371 1 9.75203 -1.25707 -6.76658 20
372 1 7.60107 -1.45488 12.6298 18
373 1 6.67784 0.594019 -10.9575 18
374 1 -5.75956 -13.0022 -4.41097 12
375 1 -0.37085 -3.73247 -7.38636 21
376 1 0.784434 10.276 8.37811 19
377 1 -6.40586 2.12675 -7.24349 20
378 1 8.13519 -8.0807 2.23004 21
379 1 10.1936 -2.61337 10.931 20
380 1 -11.3034 -1.37119 -1.93069 20
381 1 -2.90553 -10.6969 1.52088 21
382 1 -8.15181 -2.60517 12.6053 14
383 1 -2.06169 12.7756 0.96392 22
384 1 -10.1633 -10.5307 1.66653 16
385 1 6.69083 8.87983 19.2561 13
386 1 -8.54589 6.85617 -2.42645 18
387 1 -0.549328 13.1438 -10.3415 16
388 1 7.63772 10.4398 6.22632 23
389 1 -13.3529 -7.03824 -3.02908 12
390 1 -1.33491 -7.08464 -9.03573 19
391 1 -13.8734 -1.49928 7.28094 13
392 1 -10.5259 6.08545 -6.98457 19
393 1 2.80748 -8.26208 5.90971 14
394 1 -7.96593 -9.9364 -0.37043 18
395 1 9.31689 11.0762 12.0987 18
396 1 10.5282 6.01288 -11.4903 15
397 1 -13.0526 7.2387 -8.14033 12
398 1 -1.34132 16.7223 -11.9903 6
399 1 -8.61771 4.01126 -4.40535 19
400 1 0.955191 -11.9442 7.25187 15
401 1 14.3648 4.66253 6.14907 19
402 1 4.13549 10.4393 -13.7541 9
403 1 -3.20197 1.54952 7.60243 23
404 1 -14.9179 6.00681 1.12336 12
405 1 -5.30224 4.58199 4.54976 20
406 1 -5.35645 -11.6762 5.91279 17
407 1 1.78583 -4.54426 -5.56509 21
408 1 9.20897 -9.49475 -8.57999 18
409 1 -12.226 2.40551 3.0851 21
410 1 -9.17951 1.1026 9.33156 19
411 1 -7.69036 10.2391 5.86357 21
412 1 -0.718656 -8.20515 13.9949 14
413 1 -10.7561 0.754589 -13.3397 11
414 1 9.10219 -6.51379 -7.62737 19
415 1 1.21292 -10.8513 -11.5037 17
416 1 -4.49631 -1.20162 17.4124 11
417 1 2.49794 -7.66685 -0.731765 20
418 1 -4.41211 0.0241379 -15.2909 15
419 1 10.4223 -10.4952 6.75679 10
420 1 1.83154 11.8503 -3.38654 15
421 1 -11.8806 9.47311 8.36433 11
422 1 -6.93124 -2.84199 16.5743 12
423 1 -13.3184 -1.62774 -7.40497 13
424 1 -11.2043 -3.72954 13.2148 18
425 1 12.2073 -2.41834 14.2194 12
426 1 11.4003 1.31274 7.2748 17
427 1 3.82551 0.659116 -8.5728 19
428 1 10.3017 -4.97498 7.02374 13
429 1 15.6378 4.92299 -2.15769 14
430 1 -2.70258 3.54876 9.6869 21
431 1 1.87884 15.0601 -2.5155 16
432 1 5.44426 -7.84517 8.13154 16
433 1 -1.69122 -12.4779 -5.71898 17
434 1 -6.32123 2.57035 19.6542 8
435 1 -3.07731 14.8888 14.2987 9
436 1 -7.08132 -9.3704 -3.61656 19
437 1 5.8615 13.1659 1.1272 17
438 1 5.07225 6.37392 7.39574 20
439 1 -7.22267 -0.746395 9.73776 16
440 1 -8.36174 -7.97057 2.92974 22
441 1 -15.6514 2.6122 9.41797 12
442 1 -5.65273 -6.53732 -4.84695 23
443 1 -3.0315 9.54964 9.76631 16
444 1 -3.91764 -10.5923 -4.8132 18
445 1 0.602508 -10.0105 -13.9516 18
446 1 -4.38156 -16.3209 3.4099 13
447 1 -5.20969 -1.1335 7.63196 20
448 1 11.3794 5.97446 6.16731 16
449 1 -5.20424 -4.70748 16.3542 14
450 1 -7.60853 9.70207 -11.7841 14
451 1 9.08668 4.86166 -1.13218 22
452 1 -4.01381 -14.2118 -2.21448 15
453 1 1.56079 6.98765 -6.1234 22
454 1 -0.253424 17.6297 3.69892 15
455 1 0.675078 7.23032 -10.0051 20
456 1 -1.5915 7.8404 15.2985 16
457 1 -14.1942 -0.294406 -0.540479 16
458 1 -1.18706 18.8205 0.476845 11
459 1 5.89963 9.73889 -6.12714 21
460 1 -4.24518 -6.23019 -12.7735 20
461 1 5.13409 2.13643 15.8072 21
462 1 5.17198 -10.9004 -7.11245 12
463 1 -2.7894 -2.54213 -13.6727 19
464 1 7.26108 -11.6858 2.42069 21
465 1 -10.2666 10.0843 -2.16934 17
466 1 0.285985 7.84812 17.7966 13
467 1 11.272 9.8777 -1.6088 20
468 1 5.33831 7.37061 -0.676668 17
469 1 -5.75852 7.70326 -10.6997 19
470 1 3.24406 7.64276 -8.6694 17
471 1 2.78504 -7.18087 2.86384 20
472 1 -11.5614 -3.79024 0.0523979 26
473 1 5.53918 13.8791 9.5008 16
474 1 -6.30729 4.92879 -12.5973 18
475 1 15.9942 2.25567 4.02635 20
476 1 5.35326 13.37 -6.69597 19
477 1 7.61258 -4.28088 1.43588 19
478 1 17.0868 0.924841 0.527507 14
479 1 -1.11645 0.066749 -14.7686 20
480 1 5.69564 -12.9965 8.72374 11
481 1 0.0444279 -9.29485 6.87661 21
482 1 2.80635 -7.39617 13.4949 16
483 1 -5.52434 5.18696 -9.26023 22
484 1 -9.33066 -10.8042 5.23114 15
485 1 -3.87076 -11.808 -7.51273 14
486 1 8.428 13.2005 6.82779 16
487 1 3.47339 1.13234 -12.2345 17
488 1 0.773973 1.88463 15.3464 20
489 1 -13.3038 3.67283 11.9001 18
490 1 2.54808 -13.777 -0.786323 21
491 1 -10.8169 -3.3947 2.89633 22
492 1 14.9663 -5.8643 -3.34598 17
493 1 9.58465 -2.3453 -3.5046 17
494 1 -3.83271 6.89001 -2.1788 24
495 1 -0.39005 -6.9477 -5.72069 21
496 1 1.71584 4.45164 -11.7587 22
497 1 12.136 -6.99801 -4.92276 18
498 1 -4.68363 2.10859 16.722 16
499 1 3.22808 13.2913 4.6616 23
500 1 -4.37353 -2.93682 -16.3976 11
501 1 2.25725 -2.11911 -16.5151 20
502 1 -6.06206 -3.7528 9.20541 20
503 1 0.417515 13.9851 2.37419 21
504 1 -10.2254 -8.0684 -12.1106 9
505 1 -13.4558 -2.25974 1.48018 16
506 1 -0.0367539 -7.36117 -15.2281 16
507 1 -5.51197 -11.0217 14.424 9
508 1 3.32827 11.5655 -6.90206 16
509 1 12.9827 -1.38759 10.3657 17
510 1 17.8379 3.51714 2.61838 9
511 1 -8.91857 -13.7388 1.17286 12
512 1 -0.451289 -9.08727 -0.454812 21
513 1 0.467243 -4.74181 -17.0457 13
514 1 -9.20063 10.8055 8.02021 14
515 1 6.41905 -5.69481 -5.44753 18
516 1 11.8652 -1.33443 -1.59023 18
517 1 4.2261 16.1324 -8.4258 10
518 1 5.84588 -7.40942 0.434224 20
519 1 15.3623 5.25117 -7.47632 12
520 1 4.69977 5.35809 15.1496 20
521 1 -10.1775 2.47916 7.03473 19
522 1 7.77188 8.99046 11.3777 19
523 1 10.5238 2.40529 16.1886 14
524 1 -2.61022 2.60108 -15.6046 13
525 1 -3.12535 -4.7399 -5.43603 20
526 1 1.50371 -1.42634 10.631 19
527 1 7.46641 11.846 9.43825 19
528 1 9.71544 9.29458 -10.3317 14
529 1 -5.41127 8.08202 -7.25749 16
530 1 -3.07698 15.518 -0.55116 22
531 1 9.10389 -3.32716 16.0737 9
532 1 9.42445 1.24055 -12.2219 17
533 1 11.1375 -8.95254 3.52278 15
534 1 10.1674 9.93647 15.7122 18
535 1 -14.8337 -3.99108 -0.962825 11
536 1 -3.74389 12.8367 -9.30459 18
537 1 -0.272954 1.13277 9.11473 19
538 1 -16.1504 1.90738 12.7302 10
539 1 -2.89831 15.0232 -6.62669 18
540 1 4.88229 -9.78265 -1.39137 20
541 1 6.4196 -1.46298 -8.59804 17
542 1 -2.89333 16.6308 2.12905 14
543 1 -8.78251 -7.12982 -14.6823 11
544 1 5.19743 -15.5923 4.21809 16
545 1 -7.1414 -6.04021 -1.95836 21
546 1 2.58291 13.0414 -12.1863 13
547 1 -3.14693 3.81461 -7.71229 20
548 1 -2.49786 10.4101 16.2083 11
549 1 -8.41593 -5.32645 7.93503 20
550 1 6.06159 3.91256 -2.55759 19
551 1 1.79097 -7.83206 -3.87474 21
552 1 7.65981 -6.7137 15.5831 9
553 1 8.22464 1.89539 -2.91459 20
554 1 -8.03101 6.51437 0.837402 21
555 1 4.69808 3.38236 18.6638 15
556 1 8.02115 16.8465 -3.40143 10
557 1 10.9788 -5.66146 -2.65405 18
558 1 5.55717 6.13954 11.173 22
559 1 1.39803 1.14141 -13.0858 19
560 1 -5.53072 -10.2922 10.9947 13
561 1 -0.641495 4.53794 -5.81056 20
562 1 7.41465 -5.85901 -16.047 15
563 1 1.94503 10.7026 12.6667 19
564 1 8.31339 3.90881 -9.51939 22
565 1 -5.81589 -1.6584 -12.9698 16
566 1 -8.85344 -11.8965 -4.28309 12
567 1 -10.8158 -1.85454 -12.6125 14
568 1 10.9865 1.62927 -0.655039 19
569 1 17.9841 3.32472 -1.23221 11
570 1 6.79889 -6.32044 -10.4257 17
571 1 13.3527 10.4951 16.1134 10
572 1 8.23228 -3.66869 -5.23106 19
573 1 3.22167 0.10414 -18.4804 11
574 1 5.16189 12.4516 6.68462 21
575 1 -8.93301 4.33303 2.59488 21
576 1 10.882 12.7005 16.5503 12
577 1 11.6838 4.18283 -7.02736 19
578 1 15.2467 -1.31731 2.97895 16
579 1 8.43884 6.22666 -14.3469 11
580 1 10.3135 3.70579 18.7585 12
581 1 15.8967 8.21513 9.86207 14
582 1 -2.90068 -4.85724 11.1947 19
583 1 12.3676 9.29055 -3.98673 15
584 1 -0.0885252 -0.189327 13.314 19
585 1 17.374 -0.558194 -5.84378 14
586 1 12.6046 5.4817 9.54468 16
587 1 -8.99539 -1.90998 -7.35575 18
588 1 13.7922 7.37682 1.11745 16
589 1 11.5439 -1.19445 4.78668 19
590 1 -9.46373 7.19437 11.1397 19
591 1 10.2043 15.2097 13.6448 10
592 1 10.2861 5.91485 15.842 19
593 1 9.18129 8.97502 8.5976 20
594 1 -3.99223 12.9022 12.4249 19
595 1 7.56438 3.78154 10.1649 19
596 1 0.100619 -17.8895 0.445567 10
597 1 -6.20394 10.8788 -1.9561 21
598 1 9.74792 9.68939 -6.52617 15
599 1 14.5355 -2.1755 -10.7055 12
600 1 2.89021 14.9762 1.49511 20
601 1 1.46651 -10.0406 -5.63402 22
602 1 9.98082 -4.66083 -14.2002 13
603 1 -14.2831 4.91328 9.25339 14
604 1 -2.63358 6.15353 -10.0675 17
605 1 -1.6939 -14.9232 3.25008 18
606 1 -7.72405 1.39725 -13.1436 16
607 1 -12.5288 1.7882 -0.322916 20
608 1 4.95315 -4.01813 9.33643 19
609 1 12.6683 11.2005 3.49126 18
610 1 2.78305 -7.49979 9.46671 18
611 1 -9.00232 1.16863 -5.76416 21
612 1 0.589704 1.37515 -16.6849 17
613 1 -2.57767 4.621 15.4419 16
614 1 7.84011 6.41238 -11.1746 21
615 1 13.3188 0.180104 12.7764 14
616 1 9.40981 2.18159 -6.6496 21
617 1 10.4098 9.27148 5.5929 19
618 1 6.4385 -8.56033 -8.68359 15
619 1 -13.5333 -2.88116 15.2085 12
620 1 13.7302 -0.775684 7.61096 18
621 1 -0.501295 13.0362 13.3773 17
622 1 7.46146 13.5828 -9.58031 13
623 1 -12.9666 5.9108 -5.03909 17
624 1 9.27997 4.73916 4.49259 18
625 1 -6.19999 -15.1139 0.767841 15
626 1 16.0583 -2.44325 5.62844 12
627 1 6.56822 15.6253 6.2924 10
628 1 -3.3195 7.26158 10.9502 17
629 1 -8.02783 -1.09965 6.16428 20
630 1 -11.3069 -4.11418 -7.00405 17
631 1 7.95374 1.13618 15.0855 16
632 1 -2.47391 -5.24321 14.1685 15
633 1 8.03956 5.913 13.3833 19
634 1 -2.77765 12.7083 3.63967 16
635 1 10.2816 1.51836 4.03302 19
636 1 7.13184 4.25778 6.8229 20
637 1 2.10331 -1.77717 -12.8103 22
638 1 -9.55461 -2.75802 8.96496 17
639 1 8.51124 0.294943 -14.788 13
640 1 -3.69908 -5.03261 -8.5936 19
641 1 12.5264 -11.426 0.217891 11
642 1 7.85677 6.48237 9.12546 19
643 1 5.60131 5.00553 4.18355 21
644 1 -10.557 1.11006 15.7531 18
645 1 13.1042 7.76428 8.31381 20
646 1 0.938918 -5.49363 15.4584 14
647 1 -2.03949 5.53459 12.7455 21
648 1 1.22355 -4.97273 -11.7912 19
649 1 -7.87556 4.74515 9.45772 22
650 1 5.93886 0.544472 13.357 16
651 1 -5.45298 -14.6395 7.08139 10
652 1 14.1101 8.13114 -1.9776 15
653 1 5.69258 -8.80487 -5.12691 16
654 1 -3.31116 6.91726 -5.74007 18
655 1 7.53434 10.628 1.79535 17
656 1 5.81553 8.71215 8.93711 22
657 1 3.21766 0.95241 -15.3232 20
658 1 8.50549 12.0219 -1.20059 20
659 1 12.853 4.44088 0.0258635 17
660 1 -4.22333 -12.6096 3.33205 21
661 1 5.82761 -3.84832 -18.1443 10
662 1 -10.3237 11.8104 0.694436 12
663 1 9.85741 -5.96773 -10.2131 19
664 1 8.09626 6.46274 1.02162 16
665 1 15.3811 7.41218 -4.53077 9
666 1 9.935 14.7046 -1.64001 14
667 1 -5.76961 8.06182 3.21164 22
668 1 7.42721 6.27034 -3.28438 23
669 1 14.1863 3.32752 13.5371 8
670 1 10.3429 0.533551 13.4766 16
671 1 -0.907139 -10.9005 12.4668 13
672 1 -3.25683 7.97596 -12.7799 15
673 1 5.94151 11.2458 13.2151 18
674 1 9.0807 -7.06659 -12.964 17
675 1 3.13887 1.34482 10.9517 20
676 1 7.03952 14.0127 -2.75158 18
677 1 12.4182 10.8745 6.93259 14
678 1 13.4478 -3.80294 -1.49773 19
679 1 5.01693 6.25401 20.5274 12
680 1 -12.15 -4.03225 9.67769 13
681 1 7.68496 -10.0293 0.0961391 23
682 1 1.93988 -2.7582 -9.2676 24
683 1 -9.99243 13.9676 2.80499 9
684 1 0.363286 3.91706 7.48962 22
685 1 7.93618 -4.15619 -2.26721 21
686 1 5.18211 10.8696 3.73309 20
687 1 -10.7925 -3.44707 6.13883 22
688 1 -5.62959 5.10527 18.2401 10
689 1 -8.99458 3.92629 -14.0091 13
690 1 -8.63418 6.63572 -12.1392 13
691 1 4.90649 -9.76626 2.79429 20
692 1 6.51865 7.71067 -9.08762 20
693 1 6.10781 -6.66708 3.35219 18
694 1 -0.483923 7.68836 2.15744 21
695 1 -10.3364 2.46908 12.3867 18
696 1 5.34463 -1.35664 -13.3997 17
697 1 3.74028 -10.5272 8.13701 19
698 1 3.42513 15.4951 7.48662 14
699 1 -5.1223 3.06708 14.1038 16
700 1 -7.78104 -9.19499 -12.8894 13
701 1 -4.84479 -11.3906 -13.6945 9
702 1 -6.52896 -11.5054 -7.08838 12
703 1 -0.542073 17.0833 -5.36747 12
704 1 2.91507 -1.89425 -7.17002 20
705 1 -0.641065 6.13603 9.4222 17
706 1 3.36505 -7.21871 -9.85707 17
707 1 8.70367 -13.4658 -0.10753 16
708 1 -0.498953 -2.96035 8.94602 21
709 1 16.0344 2.17888 -6.92693 17
710 1 3.19072 -10.6993 -3.84169 16
711 1 -16.8478 -2.47908 9.78533 8
712 1 -1.5153 -15.5936 -3.92957 10
713 1 -10.8658 -9.48621 -3.45928 14
714 1 -16.2986 -1.6969 13.2072 8
715 1 -1.84603 -17.9799 2.69409 9
716 1 17.7462 5.17592 -4.90503 10
717 1 -3.07492 14.021 7.24442 20
718 1 -10.9927 -0.874415 7.72933 17
719 1 -13.232 6.91344 6.4465 12
720 1 8.99356 -1.65064 2.81268 18
721 1 -12.6576 -3.40208 -9.74613 12
722 1 -0.868801 11.1259 -2.13204 20
723 1 5.04839 5.21399 -11.8214 17
724 1 7.66898 11.7133 17.7088 10
725 1 5.93347 4.39254 -5.4311 18
726 1 -11.5071 -0.252754 -5.76096 17
727 1 -13.4298 -7.45752 -8.67024 7
728 1 3.35279 10.3642 15.4077 18
729 1 6.05704 12.2727 -12.4679 13
730 1 9.46894 11.4146 3.61231 18
731 1 -2.73885 1.01855 11.0946 18
732 1 1.7114 -15.2701 1.85948 19
733 1 -2.41132 -15.4919 8.55934 9
734 1 0.733955 -8.43736 10.6779 20
735 1 13.0624 13.2131 14.7507 10
736 1 2.40494 -7.16877 -13.0204 19
737 1 -5.825 7.83676 -0.37865 22
738 1 12.5952 3.80874 3.52246 21
739 1 -8.39938 -4.61931 10.4225 17
740 1 7.93017 10.272 -9.20386 14
741 1 0.888673 -14.4239 -6.50423 14
742 1 3.3203 -16.7662 -0.486314 12
743 1 5.55726 -12.2521 0.361915 20
744 1 5.45631 4.98544 -8.77459 18
745 1 4.84905 15.465 3.21675 14
746 1 -2.47194 -0.331662 -17.636 10
747 1 -1.88901 2.52438 13.5166 20
748 1 0.448743 4.1372 -14.9208 18
749 1 -14.2268 4.27735 -7.36231 11
750 1 -9.47749 -4.12353 -2.21165 19
751 1 2.79723 15.356 -5.68323 13
752 1 8.39092 -0.834328 -0.775849 17
753 1 -3.25349 -8.89155 -14.1429 16
754 1 -6.75012 -3.33614 -0.881189 21
755 1 10.4998 6.79368 -8.27773 17
756 1 10.4922 -4.01845 3.84353 19
757 1 -10.5023 4.26117 10.3311 21
758 1 6.57347 -7.16446 10.5945 20
759 1 14.7275 -4.43163 2.92859 13
760 1 15.3447 -3.15226 9.06493 11
761 1 -0.673595 10.1202 10.984 17
762 1 -14.2001 0.191339 17.3643 5
763 1 -9.14811 5.61461 18.1333 11
764 1 -0.545637 -13.7226 11.0309 10
765 1 8.72979 -6.95667 5.4739 17
766 1 10.1019 8.27659 13.0034 20
767 1 -11.6219 -0.167882 1.23575 23
768 1 8.96592 -6.38592 -0.838875 19
769 1 -7.6632 10.1945 -4.27044 17
770 1 5.75376 7.7111 2.70116 20
771 1 8.19963 -15.0638 3.30295 11
772 1 2.26576 3.71625 16.9544 17
773 1 -1.88764 13.3921 10.4588 17
774 1 4.74484 -15.0843 7.4192 9
775 1 -8.79643 -1.43467 -0.313711 22
776 1 3.24943 0.238082 17.654 14
777 1 -11.2671 -7.40906 -5.76739 17
778 1 1.93252 12.8383 15.1174 10
779 1 6.76929 13.3701 4.00281 20
780 1 -9.74246 -8.23798 6.47581 19
781 1 0.951203 -15.0623 5.15047 14
782 1 8.51398 -0.873439 5.48019 18
783 1 14.7831 -2.82409 12.4533 11
784 1 7.25666 7.15718 5.70343 23
785 1 -1.03566 8.01591 -3.90307 20
786 1 -1.39255 -4.25531 -10.1005 20
787 1 1.38775 0.485288 -9.85629 18
788 1 -5.37055 0.207769 13.2728 18
789 1 0.832681 16.0698 6.28032 14
790 1 14.3702 -0.304476 0.0844201 17
791 1 8.00357 5.57777 -7.15215 19
792 1 -6.50896 7.59749 18.4861 9
793 1 6.62414 7.84697 14.7713 18
794 1 11.1481 -1.414 -14.9069 9
795 1 -2.8612 -16.0767 -0.485779 14
796 1 -5.67645 -0.66841 -5.18428 21
797 1 13.2398 -3.44742 5.79715 17
798 1 9.74564 -1.77469 -12.0833 20
799 1 0.308078 10.236 14.8199 18
800 1 11.1616 -9.60549 -6.44984 13
801 1 7.37306 9.20336 -12.2505 19
802 1 -3.9739 -7.60555 -6.94677 20
803 1 12.9773 6.05838 -9.51122 10
804 1 13.3787 0.518077 2.57769 17
805 1 3.14624 -2.62009 16.5063 12
806 1 -4.68897 -11.362 -10.2538 11
807 1 11.4477 9.37925 2.05376 21
808 1 -2.55419 -7.77419 2.85533 20
809 1 -10.9268 5.88076 7.79541 23
810 1 13.471 2.68642 -4.92451 16
811 1 16.3249 7.80757 6.10122 15
812 1 5.89586 -7.00522 -13.4534 21
813 1 -8.4389 11.8042 11.1512 10
814 1 13.7848 10.391 13.033 15
815 1 11.4043 15.3196 -4.09895 9
816 1 2.73626 3.34225 -17.5871 10
817 1 10.7993 -4.35464 0.110074 17
818 1 -11.4518 5.63349 1.17215 18
819 1 13.6703 10.6753 0.120624 15
820 1 -12.6768 -6.48217 -0.211495 15
821 1 -7.18983 12.8478 -11.0245 9
822 1 5.90654 3.39779 12.6914 21
823 1 -8.73633 -4.92262 -8.14337 23
824 1 -12.3097 1.7394 9.64746 16
825 1 -0.40709 4.04429 -10.2799 19
826 1 13.5979 -5.93813 -6.83106 14
827 1 -9.96933 -6.97788 -3.59402 16
828 1 15.5766 -5.47213 -0.0832294 10
829 1 -12.8962 7.60282 3.34684 15
830 1 -8.18786 -4.95388 -5.34843 23
831 1 14.5077 11.2559 10.0544 14
832 1 -5.34853 -6.56185 10.4594 19
833 1 13.2419 5.0783 16.4804 9
834 1 12.2069 -3.78411 9.00265 16
835 1 6.37481 -1.95184 7.011 20
836 1 -10.9101 8.93751 1.82555 17
837 1 -2.99811 10.5927 13.1602 16
838 1 4.98094 10.2977 -9.29518 18
839 1 0.418112 -11.4277 -16.5849 7
840 1 -5.58224 15.6015 7.47419 13
841 1 -7.26793 -11.222 8.00236 16
842 1 8.6591 9.6059 -3.5966 20
843 1 3.19146 5.52982 12.657 21
844 1 18.0774 -3.52325 -3.21975 8
845 1 9.60584 -5.35216 10.9041 18
846 1 -1.94029 13.9741 -14.3659 4
847 1 1.40635 10.8454 -9.86017 19
848 1 -5.06544 -2.05852 11.3082 20
849 1 17.3012 11.1422 8.68203 6
850 1 -2.9692 -1.95472 -6.98936 22
851 1 10.9041 11.9312 0.687963 19
852 1 -12.0043 1.78984 -3.23763 21
853 1 -2.54465 -10.6136 15.1152 8
854 1 5.35869 16.8792 -4.8716 12
855 1 4.20524 -5.44052 12.1652 18
856 1 0.570196 -12.4078 -3.67376 20
857 1 -7.74246 15.4853 4.52542 10
858 1 -15.9407 3.27701 -0.925859 9
859 1 10.6045 -4.38701 -6.83476 18
860 1 2.20618 -13.3486 -14.8131 7
861 1 -8.50326 10.0225 2.96011 20
862 1 9.79677 12.4755 -4.2981 20
863 1 -5.56796 1.80471 9.71909 22
864 1 4.68407 -4.15339 -14.6153 19
865 1 -7.67009 -6.60307 -11.3311 22
866 1 -3.11189 -7.56651 -3.51968 20
867 1 -4.79656 13.0563 15.9171 9
868 1 10.0137 -11.0663 1.93394 18
869 1 -1.58286 10.5132 -13.7346 9
870 1 16.6762 2.0545 -3.97162 19
871 1 15.1158 3.13613 0.777542 17
872 1 4.95278 -13.4128 -2.45473 15
873 1 2.27656 -5.19694 -15.2304 18
874 1 10.5276 3.80343 -3.56154 17
875 1 -2.92763 5.02744 -14.2252 17