ITEM: TIMESTEP
1738000
ITEM: NUMBER OF ATOMS
1000
ITEM: BOX BOUNDS pp pp pp
-30.0 30.0
-30.0 30.0
-30.0 30.0
ITEM: ATOMS id type x y z Coordination
1 1 0.828731 -5.83654 -7.48282 20
2 1 6.46044 -11.5825 8.26063 10
3 1 -8.29889 7.44948 -1.26364 17
4 1 -8.8899 4.00117 -6.6404 15
5 1 -0.827473 -7.15873 10.5163 17
6 1 -6.40936 2.36493 -10.8802 16
7 1 -3.45333 2.25558 -6.1819 22
8 1 -2.79744 -13.722 1.78463 13
9 1 5.22997 -1.25537 6.47719 22
10 1 -2.20703 1.65278 9.34004 21
11 1 6.03792 0.204515 3.08617 19
12 1 0.144509 9.59747 -8.8018 15
13 1 4.50004 -0.798793 13.177 16
14 1 -7.3564 1.59146 -1.38986 21
15 1 -7.14226 1.67867 -7.41272 24
16 1 1.89023 -1.68471 8.15885 22
17 1 3.68018 -0.926178 -4.49629 22
18 1 2.52742 -0.238343 15.293 9
19 1 1.15345 -11.3955 5.8307 16
20 1 -11.7969 0.189102 1.86213 15
21 1 -4.35378 0.897213 -3.0271 20
22 1 -5.21552 14.5145 -4.17228 13
23 1 -6.51866 -0.473476 -10.0501 20
24 1 3.57935 -2.0689 -13.5372 10
25 1 -2.21321 -4.9157 12.5481 16
26 1 -10.1766 4.66969 -1.16634 14
27 1 -0.392905 13.8836 -1.85685 17
28 1 0.406303 -13.6429 1.14747 13
29 1 6.24722 -7.76785 -1.09723 21
30 1 5.31561 2.45165 5.61964 22
31 1 -6.47243 10.2415 -7.16873 13
32 1 3.85745 4.65725 -3.21868 20
33 1 -2.59507 6.51546 8.55359 16
34 1 5.86331 4.06691 8.3993 17
35 1 -6.58381 -1.8749 1.61631 23
36 1 5.24229 -3.36049 11.8573 17
37 1 -9.67161 -2.16191 1.42227 22
38 1 8.18635 2.27203 3.85887 18
39 1 8.63256 -4.17114 -4.28486 22
40 1 5.46363 1.48358 8.29128 19
41 1 -7.77882 -4.6986 2.32172 23
42 1 -5.467 -6.10186 -8.95697 18
43 1 -8.2453 9.84496 1.57525 15
44 1 -2.07321 6.81468 -9.54176 16
45 1 8.6211 -2.72441 -7.31945 18
46 1 6.79702 -0.390483 -2.93085 20
47 1 6.2606 -6.38852 4.20923 21
48 1 5.50554 -9.06339 10.3384 11
49 1 -2.87944 12.5618 8.25446 12
50 1 -6.46443 -7.36428 8.56592 19
51 1 -10.662 1.92606 4.81962 15
52 1 3.88238 -8.14387 -3.31102 18
53 1 7.29067 -0.988068 -9.57465 15
54 1 2.8578 0.750163 6.71768 20
55 1 -1.42443 15.0798 0.750074 11
56 1 -5.35797 7.1765 -8.2029 16
57 1 2.64794 10.6092 5.97127 20
58 1 0.402371 -0.513183 -5.87245 20
59 1 -3.1259 -8.7477 8.64169 15
60 1 -1.19557 -3.04384 -9.48524 18
61 1 4.64041 -2.451 -10.9111 13
62 1 -0.34065 5.76679 6.13844 19
63 1 -9.99495 -7.38625 0.385636 15
64 1 6.36747 -2.96376 3.55572 21
65 1 -9.20338 -8.26149 -5.46034 15
66 1 8.21494 -7.13136 1.97207 20
67 1 -6.39412 9.04291 4.03417 20
68 1 -3.96098 9.22091 -4.84034 21
69 1 4.93254 6.94304 -5.51497 21
70 1 8.5098 -8.2991 5.12813 16
71 1 -6.88939 -9.10988 0.946752 18
72 1 8.34943 5.97473 9.29564 12
73 1 5.05015 8.11527 0.356979 20
74 1 -0.365666 11.0202 -0.411021 21
75 1 0.833121 -9.62561 -10.156 13
76 1 -2.96435 6.487 -5.98617 20
77 1 9.27559 -0.725088 -4.59508 24
78 1 4.85537 -3.90149 -4.86883 20
79 1 5.70524 0.332432 -12.1866 14
80 1 8.89527 -9.64386 8.01661 9
81 1 -6.31964 3.06349 -4.6275 20
82 1 -2.37485 2.14882 1.68707 24
83 1 2.06463 12.5294 -1.79292 15
84 1 7.68845 9.09327 -0.902996 15
85 1 0.704426 9.32168 -2.86208 21
86 1 -2.23001 -4.21853 -12.1251 21
87 1 -12.2682 -3.59205 -3.89239 11
88 1 -5.96786 7.67502 6.80178 18
89 1 -4.13973 11.9663 -5.81883 16
90 1 1.26902 -5.24781 12.1441 15
91 1 -10.9717 -4.94361 9.09902 8
92 1 -3.99056 -12.4424 4.62753 12
93 1 -2.18448 5.06716 2.28255 18
94 1 9.24599 7.59229 -3.97558 14
95 1 0.175963 -9.37623 8.13252 19
96 1 -6.50848 7.14541 0.974534 22
97 1 0.660049 0.823832 10.0732 23
98 1 -5.41858 -0.309826 -13.0001 17
99 1 -4.8596 -7.63616 6.2153 23
100 1 -6.34421 -9.85045 3.96568 18
101 1 -0.625114 0.317175 3.20591 17
102 1 1.25132 -3.02742 3.45962 20
103 1 -5.01158 -0.798968 -5.99442 20
104 1 5.93369 -5.24598 1.12493 22
105 1 -5.38985 11.7672 3.2271 21
106 1 -5.06564 4.80573 1.98763 21
107 1 -4.88276 2.86652 -0.754462 20
108 1 -1.88987 -7.68643 5.75094 22
109 1 6.31427 6.20147 -8.26442 21
110 1 3.22395 -3.67635 14.5226 12
111 1 -4.69351 -4.00475 2.52275 20
112 1 -2.26119 -1.04302 -13.6145 16
113 1 -10.5774 -3.95724 -8.96154 12
114 1 -7.4331 8.90434 -4.10395 19
115 1 1.87008 -2.343 11.2969 24
116 1 -3.22413 9.74917 -8.26702 15
117 1 6.58603 1.10856 -5.06623 23
118 1 -1.0217 11.8815 5.50323 22
119 1 -8.62818 7.11196 7.77782 13
120 1 -3.03103 3.93748 7.23232 21
121 1 5.9768 -7.19711 -8.61802 13
122 1 -2.92072 0.762684 6.10899 23
123 1 -5.83291 1.94111 2.24649 22
124 1 1.30141 -6.84679 -1.65829 20
125 1 6.61901 6.50308 -2.44929 18
126 1 -3.43865 15.0967 -1.82591 14
127 1 -8.74666 1.02905 1.42116 22
128 1 6.31459 1.18866 12.3084 14
129 1 10.9886 -3.81098 -2.28308 15
130 1 2.98373 12.9925 7.83275 10
131 1 -9.90416 4.93273 4.73679 15
132 1 -11.2562 -5.89416 -5.9808 13
133 1 -0.270879 -4.07762 9.78303 22
134 1 1.02766 -11.2211 -7.53849 14
135 1 -7.64366 -3.35863 -9.56514 17
136 1 4.58468 3.97267 -9.58398 25
137 1 -9.70561 -7.56286 8.9616 11
138 1 -8.58358 -6.418 -8.31926 15
139 1 -2.42629 -6.76223 2.84694 21
140 1 -1.80778 -10.7598 0.820935 19
141 1 -7.68844 -2.36262 -13.517 9
142 1 -9.17831 2.5616 -9.6595 13
143 1 11.0807 2.01389 5.6024 18
144 1 7.22014 -0.569379 9.30696 20
145 1 3.09599 -4.72421 9.34521 24
146 1 0.646328 7.11781 2.45502 21
147 1 -7.47433 -5.84141 5.29014 24
148 1 1.78997 13.2917 4.64858 16
149 1 -4.49803 -2.93416 -8.9352 21
150 1 -7.98675 -8.29753 -2.09482 16
151 1 -3.86098 -8.49481 0.208192 22
152 1 -3.00105 -5.62324 -0.38067 22
153 1 2.2712 -6.62162 1.62726 20
154 1 11.3009 5.3242 5.64452 16
155 1 -3.35248 -4.55162 -3.37914 20
156 1 -6.57461 -2.8563 10.312 18
157 1 -1.63667 -14.1042 -3.67808 15
158 1 2.08396 4.46197 -6.08336 19
159 1 -3.64099 -9.2725 3.47062 21
160 1 3.83447 -3.14783 1.57365 21
161 1 -1.24696 -12.7593 -1.27904 17
162 1 -7.62012 5.50688 -9.76518 12
163 1 10.6594 8.11259 4.96117 14
164 1 -3.97759 1.58854 -8.9164 21
165 1 0.933567 6.97428 -10.5997 17
166 1 -5.49214 -4.45657 7.40967 21
167 1 3.22767 9.43675 8.82388 12
168 1 11.2201 1.4932 0.190489 16
169 1 -10.4759 -1.788 7.27977 13
170 1 -4.39441 -6.24761 10.3474 16
171 1 -3.2214 12.2585 -0.14421 20
172 1 -0.0273264 -6.20823 -11.1476 16
173 1 2.46294 -9.93821 2.74813 19
174 1 6.63988 -1.62206 -5.91916 18
175 1 -3.51492 -4.82121 5.28626 20
176 1 0.596424 3.76089 3.30284 22
177 1 -8.61423 -0.796382 4.19093 24
178 1 4.80456 -12.44 -2.75124 12
179 1 -3.77787 13.591 4.98246 15
180 1 -7.4152 4.2885 7.01346 20
181 1 0.260391 4.74771 0.509287 23
182 1 3.48261 -9.96043 7.66653 18
183 1 5.22544 9.08495 5.91078 21
184 1 -9.03573 -2.91479 -3.85103 21
185 1 3.46674 -1.22551 4.1552 21
186 1 -5.81181 11.8038 6.3355 15
187 1 -3.89232 3.9467 -3.79999 22
188 1 -8.02938 2.59516 3.99911 22
189 1 -8.45343 -5.01213 -5.73331 20
190 1 -3.54317 9.63214 4.57601 23
191 1 8.68158 0.933224 6.87762 21
192 1 6.19789 -8.35867 7.1846 20
193 1 -4.75246 -0.393024 -0.00618665 20
194 1 -1.49949 -1.37012 11.4866 23
195 1 1.71988 -3.79911 -9.81765 17
196 1 -8.8933 0.353447 -12.0892 14
197 1 -10.8828 -0.409377 -4.06525 16
198 1 -4.5356 -7.50215 -2.96295 22
199 1 -2.86716 -2.66084 0.698544 20
200 1 11.7583 -0.443739 -2.55878 15
201 1 -4.18721 4.42295 -9.99772 17
202 1 2.56132 1.75283 3.37583 20
203 1 -10.2543 3.7033 8.09661 11
204 1 -8.51863 11.3404 4.51197 13
205 1 -4.89769 9.70497 8.83247 9
206 1 11.0045 -7.21395 -1.68488 11
207 1 12.1627 0.396354 -5.53497 11
208 1 0.226452 2.15924 6.84696 21
209 1 -4.87613 11.4145 -2.58713 23
210 1 4.22705 -4.02129 -8.02466 19
211 1 5.88558 7.58787 8.2612 15
212 1 2.97634 6.22241 -0.515669 21
213 1 -7.79039 0.283546 -4.58566 22
214 1 1.7325 -13.4478 -1.85968 14
215 1 10.8753 -1.08868 6.40578 16
216 1 -10.8584 -2.5282 -6.766 17
217 1 -4.84217 -11.3783 1.47441 16
218 1 -6.24095 13.9106 -1.42393 14
219 1 -5.25402 7.76028 -2.12967 19
220 1 3.57201 -6.78695 -6.26124 21
221 1 4.72101 -8.91879 5.05913 21
222 1 -4.21282 -12.4285 -4.51374 15
223 1 -8.37592 7.17821 -6.8549 14
224 1 -0.751104 -13.2375 4.05242 12
225 1 -4.52785 -0.255733 8.64164 20
226 1 1.23817 -0.581764 -2.36403 20
227 1 -9.00377 1.2844 6.91108 21
228 1 2.50879 -7.09474 -9.20493 15
229 1 3.8492 -6.54691 7.23995 21
230 1 -11.1213 3.39189 1.72758 15
231 1 0.796688 -6.17696 7.49001 21
232 1 -7.80922 -5.87407 11.0425 12
233 1 2.37386 -10.7667 -3.07822 19
234 1 3.22435 -12.1783 0.194791 16
235 1 2.07796 11.7251 -7.63953 14
236 1 -8.18518 -8.65867 6.22737 17
237 1 10.3734 -2.21436 9.10682 17
238 1 5.60883 5.07103 -0.24366 18
239 1 -3.77227 7.84187 2.36236 19
240 1 0.660331 -0.803552 -8.51794 20
241 1 8.10908 -2.76342 7.19708 21
242 1 -2.0964 12.3907 2.44292 23
243 1 0.651755 0.0918798 13.5899 17
244 1 0.937351 13.3884 1.49153 17
245 1 5.95874 -4.74351 6.77786 22
246 1 -0.999147 -11.0811 -4.84469 22
247 1 9.68087 0.00444325 11.6729 14
248 1 -9.02808 -0.612357 9.88191 14
249 1 -4.96738 -11.4216 -7.63157 14
250 1 -1.7489 -8.60448 -11.4915 13
251 1 -8.15924 10.005 7.54255 9
252 1 -6.50387 -9.79456 -4.6222 18
253 1 -6.71686 -3.11977 4.938 22
254 1 8.14025 4.20695 6.72371 22
255 1 9.56591 2.66083 -4.82899 19
256 1 1.34231 3.9234 -9.19824 19
257 1 -0.0398329 6.59275 -7.11741 22
258 1 -2.78044 4.13999 10.7033 15
259 1 -11.2059 -1.7653 -0.908063 18
260 1 6.49522 9.24961 -3.96415 17
261 1 -3.92877 -8.89249 -9.22808 17
262 1 -1.23461 -6.66703 -14.2178 10
263 1 7.18619 5.75796 -11.2699 13
264 1 -0.438124 7.07448 -0.780633 21
265 1 5.28303 4.093 -6.36935 20
266 1 5.25382 -11.516 3.03191 16
267 1 2.8791 3.11157 0.848062 20
268 1 -4.49856 -3.35453 -13.9184 14
269 1 11.1525 8.31844 -1.07027 12
270 1 5.061 -8.58891 1.93967 20
271 1 0.657266 -3.98925 -13.7573 14
272 1 0.0862928 -10.1395 -1.5407 19
273 1 2.31997 -7.54052 10.034 18
274 1 -7.4354 -1.84769 -6.98265 21
275 1 -0.196393 9.06829 5.22461 19
276 1 2.20454 3.93333 -11.7671 16
277 1 -13.1888 -2.96285 1.96909 10
278 1 8.65089 -2.01285 -1.52496 21
279 1 -2.41734 -1.21062 -3.91753 20
280 1 -0.861246 9.35385 -5.91602 22
281 1 -2.62429 -5.76616 -8.72175 20
282 1 3.13712 1.36382 -13.5223 13
283 1 11.1972 -5.9156 -4.92151 12
284 1 3.18393 -8.90698 -0.356277 21
285 1 -7.42553 -1.33036 7.43638 22
286 1 -0.249405 14.1009 7.29725 11
287 1 3.15255 9.4875 -10.0193 15
288 1 12.4661 6.20483 -3.12939 9
289 1 -1.73842 -7.74076 -2.56549 20
290 1 0.395632 -6.11122 -4.79149 19
291 1 -2.97368 9.10255 -1.08863 21
292 1 10.8533 -4.95447 0.738358 14
293 1 3.65593 -5.63429 -0.914673 20
294 1 0.357128 1.56491 0.619252 21
295 1 -7.77022 0.142535 12.0293 9
296 1 -5.62425 -3.38958 -0.563062 22
297 1 -5.65469 -6.82529 -6.33933 22
298 1 -3.10534 -2.12448 14.0259 12
299 1 6.67714 8.96437 -9.86771 11
300 1 -7.07584 12.0349 -4.47888 13
301 1 -1.80704 14.298 -5.05114 12
302 1 -1.41578 -1.45929 8.58667 19
303 1 6.83823 -10.0152 -3.15595 17
304 1 7.1008 -4.38833 -9.54706 12
305 1 -11.8254 -5.06463 -0.563195 14
306 1 -6.55245 5.0204 -1.80493 21
307 1 -10.6806 -6.54089 5.71323 14
308 1 1.91506 9.22907 -0.222309 24
309 1 8.55767 -6.08872 -6.89475 16
310 1 4.07569 -6.6114 12.5568 12
311 1 6.58277 3.44653 -3.32267 22
312 1 1.09529 -1.77858 0.0619592 18
313 1 -9.33795 6.3049 1.84015 15
314 1 8.28759 -5.51576 -1.06252 21
315 1 -0.149734 4.40891 8.89397 21
316 1 -5.65248 -3.37299 -11.4224 17
317 1 5.40271 3.80124 -12.9989 14
318 1 -4.2054 -6.31387 -11.8395 13
319 1 -1.94068 -11.531 -9.5021 12
320 1 11.3527 -2.91443 -5.63328 15
321 1 7.25444 -9.15207 -6.30495 14
322 1 8.98045 -7.8352 -3.73294 16
323 1 3.47221 11.4569 1.59001 18
324 1 -7.72207 3.82192 0.924385 23
325 1 8.10095 5.6107 -5.75583 17
326 1 3.99463 -0.302027 10.5055 21
327 1 6.40877 3.85462 2.79265 17
328 1 8.48328 2.37207 9.83255 16
329 1 -9.75 -0.847008 -9.07909 16
330 1 11.5201 4.8948 -0.232968 16
331 1 8.98048 -4.96717 4.55922 18
332 1 -0.367318 -7.88767 0.710503 19
333 1 2.3498 7.23346 5.33794 21
334 1 5.03439 5.55944 5.38931 22
335 1 -0.962697 12.2973 -7.37943 13
336 1 3.83086 -9.69053 -8.06024 14
337 1 -1.02911 4.66586 -11.8196 15
338 1 -3.10655 -0.848369 -10.8287 20
339 1 -9.48959 2.84043 -3.80561 17
340 1 8.60209 -6.25652 7.52899 18
341 1 1.75108 -7.91901 5.14997 23
342 1 4.20427 1.40309 -1.97789 21
343 1 2.81485 -3.433 6.15751 23
344 1 7.79092 3.76744 -7.85882 16
345 1 3.39974 0.016906 1.14208 19
346 1 11.7245 -0.0293165 3.29512 13
347 1 6.29215 10.2107 1.90488 15
348 1 11.0766 -3.29278 3.5936 15
349 1 -8.26288 2.80282 10.1671 14
350 1 -11.165 -5.14051 2.46958 15
351 1 -9.75123 -2.77955 -12.0545 10
352 1 10.6623 -2.74904 11.9235 10
353 1 -7.62671 12.9337 1.42677 11
354 1 9.39151 5.29605 3.4674 21
355 1 6.69429 -1.67697 0.292577 22
356 1 3.3465 8.58277 3.02105 21
357 1 -8.5452 -4.43695 7.61689 22
358 1 8.57371 0.742865 -7.65077 18
359 1 1.57162 -9.21935 -5.56697 19
360 1 2.29539 4.17145 6.25774 21
361 1 3.35897 5.37566 2.66823 22
362 1 -0.0618448 -2.94047 14.1686 15
363 1 -0.0600715 3.35826 11.9825 13
364 1 -4.75594 -0.711703 12.0248 17
365 1 -1.69422 3.19317 -1.30015 19
366 1 -0.751337 4.06074 -4.56532 20
367 1 5.05691 10.9642 -1.17406 15
368 1 -3.63106 -2.18945 6.12339 19
369 1 0.480183 12.3724 -4.71339 16
370 1 -2.44214 -6.60861 -5.74605 19
371 1 -6.04342 -10.8866 -1.66058 15
372 1 6.47685 6.97964 3.23705 22
373 1 -1.39557 2.98417 4.82245 19
374 1 -3.25058 5.84264 -0.661843 20
375 1 8.53217 6.54583 0.501642 20
376 1 2.66769 1.83696 12.2791 15
377 1 7.92247 6.9588 6.01822 19
378 1 -5.77849 -2.01506 -3.60467 22
379 1 -0.5348 1.32033 -9.88202 21
380 1 3.05057 6.04069 8.50643 16
381 1 5.83723 -3.90939 -2.03026 20
382 1 -4.69487 14.4198 1.75916 15
383 1 -12.207 -1.35684 4.70676 11
384 1 1.04936 -12.9442 -4.63635 13
385 1 4.10485 6.73709 -11.0685 17
386 1 3.53 -5.11432 3.96265 19
387 1 -4.74761 9.90932 0.799422 20
388 1 1.01595 -1.21218 -14.4164 12
389 1 -1.5745 -2.93297 3.67949 20
390 1 10.4817 -4.5674 -8.37407 10
391 1 4.09086 -1.69501 -1.41882 21
392 1 0.251645 11.2638 8.39753 17
393 1 5.01488 -2.54072 9.03407 20
394 1 -0.263015 2.25954 -7.07379 22
395 1 -3.20838 -10.7458 -2.56587 25
396 1 2.17478 1.72853 -4.4626 20
397 1 -5.99981 2.07904 8.10984 20
398 1 9.1217 0.241151 1.52356 21
399 1 2.15447 8.66908 -5.71256 24
400 1 2.64032 1.12953 -10.093 20
401 1 0.278704 -0.751906 5.6172 20
402 1 9.68727 4.64186 -2.46752 19
403 1 1.57477 6.57286 -3.89351 21
404 1 -3.57451 -3.2755 10.2916 23
405 1 -2.50234 -5.47367 8.10485 23
406 1 3.62687 -0.994155 -7.21124 19
407 1 -7.98842 10.8269 -1.39987 13
408 1 7.95426 10.2078 4.74547 12
409 1 -9.94901 -3.54325 4.43949 22
410 1 3.25445 6.91726 -8.29446 23
411 1 -5.68258 4.98705 8.98845 17
412 1 -9.87765 -5.95479 -2.89921 19
413 1 6.18743 1.66422 0.22232 23
414 1 -6.63204 -6.61543 -0.269205 19
415 1 6.29039 -10.9755 -0.0676072 16
416 1 7.83274 -11.6409 5.25981 14
417 1 0.166786 7.84343 8.6317 15
418 1 -5.16108 2.11208 10.7453 18
419 1 8.7079 3.3121 0.622118 20
420 1 6.16221 -6.3517 -4.36676 17
421 1 1.63513 3.739 -2.04722 20
422 1 -1.20359 9.06766 1.49661 22
423 1 -1.12598 14.8975 3.86655 12
424 1 -0.634111 -9.96274 3.89155 18
425 1 -7.26545 -9.24603 -8.06869 12
426 1 -2.30458 1.32662 12.6534 16
427 1 5.13013 12.2672 4.50656 11
428 1 7.73046 -3.67217 10.3248 17
429 1 11.6201 -4.72215 6.81966 11
430 1 10.8264 7.60757 8.22358 10
431 1 -1.80412 6.92524 -3.62853 21
432 1 -0.944424 -8.38995 -7.40664 19
433 1 -2.92514 1.88669 -11.9428 15
434 1 -5.52699 -3.91668 12.9265 14
435 1 12.3247 6.9526 2.45294 11
436 1 3.9118 8.50569 -2.54851 22
437 1 7.39788 2.68441 -10.7475 14
438 1 -4.2645 -13.3674 -1.06513 14
439 1 -4.79403 -4.24507 -6.20719 21
440 1 -1.58227 -3.45504 -15.613 11
441 1 -3.77542 -9.48979 -5.86385 20
442 1 -0.36384 -3.72487 6.56856 22
443 1 -1.56021 0.0464461 -0.817506 20
444 1 2.44256 -13.1131 3.27413 12
445 1 5.95669 1.22987 -8.48963 22
446 1 -8.91629 8.10307 4.4964 16
447 1 8.48781 -3.62327 1.44228 21
448 1 -7.86844 -1.09033 -1.43995 22
449 1 12.0029 3.56207 2.74425 15
450 1 7.63762 -1.77591 13.3942 10
451 1 -10.0426 0.963111 -6.81747 16
452 1 -2.01397 4.18706 -8.31781 23
453 1 8.81911 -9.20989 -0.480553 13
454 1 -6.67612 -5.15705 -3.29114 22
455 1 -5.49478 -6.76486 2.80107 22
456 1 8.7467 -1.37763 4.36426 22
457 1 -10.4295 1.04825 -0.798911 16
458 1 4.95248 9.75566 -7.27638 16
459 1 6.12369 -5.94996 9.68471 17
460 1 -0.825111 -3.55355 -1.98906 21
461 1 -5.91072 0.430307 5.34236 21
462 1 -1.33956 -3.71545 -5.47201 19
463 1 -5.3616 -10.2645 6.94762 15
464 1 10.3457 -5.63882 9.71927 9
465 1 -2.02011 -12.833 -6.52029 15
466 1 11.0631 -1.25008 -8.5952 9
467 1 -6.94651 5.88253 3.90389 24
468 1 -5.11101 3.50595 5.11245 18
469 1 -2.19195 -0.719221 -7.59267 21
470 1 4.57089 -10.6134 -5.51517 15
471 1 9.24813 8.55319 2.05231 16
472 1 12.1267 2.57119 -2.77979 13
473 1 -2.08491 -11.056 6.55295 16
474 1 8.17139 8.99802 -6.98327 10
475 1 3.27583 1.76023 -7.18088 21
476 1 -9.29084 5.94991 -3.92227 14
477 1 1.01629 10.4746 2.97687 21
478 1 -3.59192 6.00135 5.0157 19
479 1 3.49586 11.1563 -4.4589 17
480 1 -2.40593 9.64427 7.39296 17
481 1 8.66957 1.29499 -2.07799 22
482 1 -0.411225 -4.9057 1.22199 20
483 1 4.29713 -12.3925 5.99054 13
484 1 -3.92748 -0.644322 3.00345 19
485 1 10.9974 3.82615 8.44033 14
486 1 1.94711 -3.48575 -5.94787 20
487 1 1.99788 -3.7562 -2.63794 20
488 1 -5.31116 4.46917 -7.25539 21
489 1 2.58255 2.94229 9.45197 19
490 1 -0.874525 1.44687 -4.04621 22
491 1 -1.98053 11.4766 -3.18356 21
492 1 0.390824 -5.84253 4.40773 22
493 1 8.37391 -10.5201 2.51921 13
494 1 0.355226 -1.39055 -11.8299 20
495 1 -8.63668 -4.46142 -0.651293 21
496 1 -6.18693 6.43937 -4.64491 21
497 1 11.3404 0.823309 9.32242 11
498 1 -8.82672 -7.72509 3.48425 18
499 1 11.1219 -1.85788 0.410654 18
500 1 -0.0541727 1.59828 -13.3502 14
501 2 -6.89647 0.645054 -11.9069 16
502 2 -5.7198 12.944 -5.39174 12
503 2 -4.37075 -4.58271 -12.285 15
504 2 -2.94498 -0.66324 12.693 16
505 2 -8.82828 -4.66452 -8.83178 18
506 2 7.11946 -2.99425 12.143 17
507 2 -5.41722 -0.105273 1.92393 21
508 2 8.53774 3.64487 2.55004 20
509 2 1.58627 -0.864105 9.90002 23
510 2 2.84348 0.239983 -5.64308 21
511 2 -6.95661 -7.40339 -8.17604 15
512 2 -5.28892 1.02798 -1.28402 19
513 2 -3.04001 -6.32379 6.29105 21
514 2 4.46703 2.59186 9.3201 19
515 2 12.0112 -0.346286 -7.08202 9
516 2 6.17251 2.2382 3.88197 19
517 2 -6.96561 11.9409 -2.60523 15
518 2 11.3367 3.62748 6.30866 15
519 2 1.23801 -5.52353 -3.16383 19
520 2 -8.21703 -8.16824 8.25696 16
521 2 -2.84092 -13.5672 3.67884 11
522 2 10.813 -2.79257 7.41918 16
523 2 -9.49074 6.46684 3.84266 12
524 2 -2.3237 8.1743 -5.19831 20
525 2 -3.68981 5.01775 9.15569 18
526 2 3.64998 12.6355 5.72749 13
527 2 6.4166 1.51113 -2.05606 20
528 2 2.52023 -9.00724 -9.39265 14
529 2 -5.97139 1.31387 -9.12097 22
530 2 -1.86039 -2.27096 -11.624 21
531 2 -2.04124 -3.00257 -3.29916 16
532 2 6.43341 0.891059 -10.4646 19
533 2 -3.49603 -8.63877 -1.79068 21
534 2 3.40297 8.11574 -0.64952 21
535 2 -5.63672 8.68679 1.98113 22
536 2 -5.578 -9.88179 -8.76554 13
537 2 4.13463 -4.4037 12.9464 15
538 2 8.51899 0.428854 3.49799 19
539 2 -8.47393 5.67317 -2.23203 18
540 2 6.3366 -5.75396 -0.811926 19
541 2 -0.157597 -1.71116 3.99141 17
542 2 6.02252 9.82007 -0.0707379 17
543 2 0.0497025 -13.6768 -2.73685 16
544 2 2.417 10.8265 8.08328 14
545 2 7.95701 9.79096 2.74991 15
546 2 5.19368 7.49819 -3.64814 19
547 2 -5.99712 0.843348 11.932 15
548 2 2.92933 3.03889 -10.1975 20
549 2 -6.83919 -0.00177789 -6.42748 21
550 2 -10.9518 1.62442 1.14108 17
551 2 -9.9322 -6.70497 2.12288 17
552 2 1.48928 -9.62814 4.41279 20
553 2 -1.94318 -3.49746 13.8249 14
554 2 1.7128 4.15297 8.20146 19
555 2 -3.54545 5.92472 1.42674 22
556 2 5.45086 -11.149 -3.87354 15
557 2 11.0644 -4.13712 -4.25421 14
558 2 -1.29063 -12.6835 0.752553 17
559 2 5.78409 -0.580023 -4.43731 21
560 2 6.09974 4.21171 6.34963 23
561 2 10.8194 -7.21116 -3.51388 12
562 2 8.28483 -5.39958 9.32653 17
563 2 -4.96781 -8.02298 4.43341 22
564 2 11.4352 1.28633 -1.77182 18
565 2 2.27728 -1.0958 6.20589 21
566 2 -1.95194 -8.45249 4.06904 22
567 2 8.99517 -5.48849 0.998082 19
568 2 -0.442941 0.484219 -7.72484 23
569 2 2.76724 -12.7859 -3.25842 14
570 2 -5.71023 -4.239 -9.71004 19
571 2 -7.21757 -6.08194 3.52762 24
572 2 -8.45712 -4.77772 -2.78895 21
573 2 -8.21925 -8.14828 -0.0441268 17
574 2 -5.98337 13.8566 0.502807 14
575 2 -0.307119 3.47035 -2.82226 22
576 2 12.11 7.00805 0.505212 13
577 2 3.83016 8.11275 -6.49035 21
578 2 -10.6458 2.47322 6.74179 13
579 2 -2.12487 0.45738 -2.94625 20
580 2 -10.1845 2.79013 -2.03969 17
581 2 -3.695 8.18768 8.23229 17
582 2 -10.5381 3.55736 3.56041 16
583 2 -4.58198 2.27383 -4.42672 22
584 2 8.05607 2.11361 -8.89923 14
585 2 6.41414 -7.95452 5.30571 21
586 2 6.57693 3.57713 0.857285 19
587 2 -3.01809 8.90032 0.81044 22
588 2 -4.83099 13.5423 3.42723 14
589 2 -0.582154 11.1763 1.74409 21
590 2 11.0634 7.52637 -3.01516 11
591 2 -0.0564715 8.94563 -0.012415 19
592 2 2.25206 8.39259 -3.7476 21
593 2 0.418053 3.95753 5.82354 22
594 2 3.08311 -3.09232 3.90549 19
595 2 3.90837 -1.78661 11.5918 22
596 2 -2.7657 -2.31835 -8.69764 21
597 2 2.72488 0.584901 13.6968 15
598 2 4.40387 5.85935 -8.96605 24
599 2 -4.86583 -8.67194 7.95392 18
600 2 -2.91332 -10.8562 -4.5081 22
601 2 -5.39998 -2.50566 -6.76845 18
602 2 3.35074 -11.6662 2.16122 19
603 2 -3.11795 -1.17967 -0.346845 20
604 2 8.69389 7.62122 -5.77308 13
605 2 -4.43462 2.87868 -10.9774 17
606 2 -1.02098 12.3529 7.55487 15
607 2 -3.62029 11.0705 -4.07735 21
608 2 -6.9845 -4.80524 0.229284 23
609 2 5.01743 9.76745 -9.37497 15
610 2 -1.64795 15.006 -1.09251 11
611 2 -6.4436 3.59884 9.94505 16
612 2 5.4272 -5.16378 -8.85954 14
613 2 -3.15269 2.14336 11.1433 17
614 2 8.66031 -8.94794 1.44443 15
615 2 5.21108 8.10054 2.37832 20
616 2 -2.26031 5.01616 -10.1999 16
617 2 5.77492 -3.85034 9.9252 18
618 2 0.152145 -7.04715 5.80507 22
619 2 7.89307 -11.4799 7.1489 11
620 2 -4.49763 10.4217 -7.13808 15
621 2 -5.14383 -10.754 -5.7727 16
622 2 0.244474 -4.53001 -6.00793 16
623 2 -1.32434 -7.29847 -4.40396 23
624 2 10.3503 5.64017 9.01092 12
625 2 -11.1664 -5.1696 -4.22838 16
626 2 -9.64731 4.7107 0.679016 17
627 2 10.8956 -0.873468 10.5272 12
628 2 -3.21437 -13.7828 -4.87421 13
629 2 -1.52584 -1.50021 -5.76137 17
630 2 2.94633 2.48618 -2.86285 22
631 2 -5.83353 -2.08287 -13.563 13
632 2 -1.4433 -5.30446 -15.6921 8
633 2 -4.9139 -1.76082 10.2108 23
634 2 -6.2693 -6.76626 -2.20993 23
635 2 3.22024 -3.15525 -4.3623 21
636 2 8.525 0.888911 -5.52574 22
637 2 -10.5718 -2.00983 5.36047 17
638 2 0.478219 -2.28185 -9.68271 16
639 2 4.02225 1.38184 -0.0573311 21
640 2 0.922956 5.09872 -5.04915 22
641 2 2.62939 -10.4431 -6.61849 17
642 2 2.57819 7.69545 -10.0782 15
643 2 1.43738 13.8084 8.0265 10
644 2 11.6465 3.24774 0.751899 14
645 2 -13.0288 -2.43569 3.64988 11
646 2 -0.75897 -11.5693 5.26921 15
647 2 -0.433633 3.11632 -8.88945 21
648 2 -3.59585 10.9276 8.50202 11
649 2 -5.3247 -7.3216 0.982088 21
650 2 -4.11874 -0.546888 5.04765 18
651 2 -7.86782 4.38288 5.04033 23
652 2 -6.36646 -6.42264 6.89414 23
653 2 1.57223 -10.2648 7.3016 16
654 2 -8.67478 0.304884 -0.370992 21
655 2 -5.98414 -10.5664 0.231625 17
656 2 -7.00698 -1.26456 5.33232 21
657 2 10.3635 -3.87865 10.2785 13
658 2 6.59703 9.43698 -5.98199 17
659 2 -8.44047 -3.97416 5.73198 22
660 2 3.54184 12.1117 -0.427834 13
661 2 8.93822 3.81608 -6.14363 17
662 2 -0.919295 13.3613 -3.55064 18
663 2 -10.3574 -2.44396 -10.206 13
664 2 -9.62692 1.01472 -5.03177 16
665 2 -3.03698 -12.2181 -7.92367 16
666 2 3.40157 -3.12456 8.11559 21
667 2 6.72968 -9.63982 8.74695 13
668 2 -7.36681 10.3926 -5.3177 15
669 2 0.724708 0.352778 -4.0837 20
670 2 2.23158 -6.93481 11.8017 13
671 2 3.29485 -0.216461 -2.7259 21
672 2 2.30174 3.48894 2.71351 20
673 2 3.53577 8.82766 5.05294 22
674 2 -1.18227 0.160634 9.90773 21
675 2 -6.30477 7.42706 4.92871 21
676 2 2.18232 7.83849 9.03685 14
677 2 7.3314 7.94304 -8.4822 14
678 2 -7.69461 -9.42929 -6.12833 14
679 2 -4.41664 -0.778098 -4.18459 16
680 2 -8.13415 2.77396 8.19983 18
681 2 4.83198 10.5803 -3.12122 16
682 2 -0.264512 -9.99951 -6.33889 20
683 2 8.74549 -1.74046 0.468665 20
684 2 8.57478 -6.63586 3.90204 16
685 2 -11.6424 -1.61738 1.16667 19
686 2 -0.733347 6.21083 8.14591 18
687 2 -3.97505 3.17066 -7.86888 21
688 2 -2.5313 0.91781 -10.2135 21
689 2 -7.09436 5.46694 1.82517 21
690 2 3.40187 -8.25573 6.44478 20
691 2 -1.56033 1.90248 0.14745 20
692 2 -10.272 -6.03618 7.63253 13
693 2 5.91309 -8.0028 -3.13194 20
694 2 2.1154 -10.5789 -0.950629 21
695 2 -5.10638 9.73369 -1.42877 23
696 2 -2.16553 -7.29791 0.909608 21
697 2 -8.53799 5.6075 -7.94212 14
698 2 2.93837 -8.38153 1.64627 20
699 2 4.47325 1.3162 11.6681 13
700 2 2.75397 -0.413081 -14.7387 12
701 2 1.78485 10.4432 -9.04679 15
702 2 6.9227 4.01984 -12.0408 11
703 2 -2.82192 13.8239 1.22417 19
704 2 -6.94234 -4.2631 11.8328 12
705 2 -4.0963 -4.69096 8.89449 19
706 2 -3.75989 -5.48592 3.31012 23
707 2 6.00869 7.33991 5.48886 21
708 2 -12.5568 -4.56468 1.21299 13
709 2 -2.15624 -3.36054 5.61231 20
710 2 1.63506 5.46925 -7.85237 21
711 2 3.03704 -1.67602 0.441667 22
712 2 8.51977 3.13427 -2.85904 22
713 2 0.265178 -1.67782 12.6266 22
714 2 -6.20105 -1.63459 -0.471866 20
715 2 -0.585072 -0.276029 -13.4288 19
716 2 5.0875 5.16358 3.47971 19
717 2 2.45826 9.78007 1.66574 23
718 2 3.04252 -7.44196 -1.65535 20
719 2 -6.54011 -3.26246 2.93565 23
720 2 -1.37957 10.2543 -7.93188 17
721 2 8.8482 8.59699 5.22363 16
722 2 0.71173 -2.55784 -1.96745 17
723 2 -2.68049 -13.9555 -2.01971 13
724 2 -3.95287 -11.4423 6.38511 13
725 2 -4.28255 3.12117 1.2268 22
726 2 9.35369 -1.39756 12.8366 11
727 2 3.89946 5.21322 -5.19666 22
728 2 1.8234 12.2368 2.77414 19
729 2 3.89289 0.169517 2.94253 20
730 2 4.89254 -11.3989 7.3453 14
731 2 5.06166 -12.2526 -0.895135 15
732 2 -1.51495 -4.91567 -10.2041 19
733 2 5.58664 -1.33658 4.29892 19
734 2 0.713545 -0.929084 15.3489 10
735 2 -0.0763142 8.84522 3.08988 22
736 2 5.66253 -4.76597 3.59824 20
737 2 1.74559 2.36017 -13.3344 15
738 2 10.5433 -2.85426 -7.51097 14
739 2 -7.95938 11.2618 0.589871 15
740 2 3.11568 -9.46762 -4.41254 19
741 2 3.52311 -1.79448 14.5932 14
742 2 -1.73181 -4.09686 -0.227603 17
743 2 -1.22916 3.25351 2.93812 20
744 2 -6.99631 8.37376 -7.59912 14
745 2 8.12405 -6.12266 -4.94276 19
746 2 0.223583 14.2639 5.45486 12
747 2 8.99662 1.30738 -0.0350833 20
748 2 11.4224 5.18737 3.4796 16
749 2 -7.76807 -1.45994 -3.45969 21
750 2 -1.30361 5.32045 -0.414894 20
751 2 1.04073 0.0982218 -10.5049 19
752 2 -2.37694 0.624245 2.89608 22
753 2 11.7883 4.46433 -2.50812 13
754 2 -8.09374 9.06928 -2.34753 17
755 2 -1.63623 -9.32787 7.32138 19
756 2 5.26555 -0.392054 8.94243 19
757 2 5.62119 -9.74858 -7.32398 12
758 2 -2.48767 -6.87318 -12.6304 12
759 2 0.75369 12.9876 -0.468431 16
760 2 -3.54588 7.79158 4.37576 20
761 2 -11.3189 -4.29426 -7.22203 13
762 2 -9.17762 -7.61576 -3.54753 16
763 2 6.26864 -3.42184 1.30842 21
764 2 -6.31718 6.82548 -0.888706 21
765 2 2.63308 -12.3787 4.92827 15
766 2 10.8456 -6.1143 8.00407 9
767 2 -9.58813 -3.89468 2.62266 23
768 2 -2.97068 -4.80039 -5.27707 20
769 2 5.21313 5.8312 8.92437 15
770 2 -0.187425 7.45532 -2.72187 21
771 2 -9.29421 5.29796 7.73904 12
772 2 1.13223 6.47448 0.25978 20
773 2 -2.63879 -7.24573 9.63411 18
774 2 -3.39181 14.8393 -3.76265 15
775 2 0.462628 -10.9354 -3.51779 20
776 2 -0.582705 -4.98298 8.16264 21
777 2 7.34315 1.13251 8.25497 19
778 2 -8.58029 8.38819 6.34745 14
779 2 -2.18805 10.998 -1.29365 23
780 2 -4.26527 1.4671 8.96294 20
781 2 -2.41939 -9.9887 -10.293 13
782 2 11.2122 -5.32261 -1.06736 13
783 2 10.5766 -5.69059 -6.72193 12
784 2 -5.33567 8.14076 -4.12567 21
785 2 -4.65135 -2.36945 13.2455 14
786 2 -7.50099 1.8358 -3.45498 20
787 2 8.84154 -7.49426 -1.44823 18
788 2 7.58886 8.2671 -2.584 18
789 2 -4.78479 4.89249 3.96578 20
790 2 -0.425526 1.59279 12.9336 14
791 2 1.24137 3.15157 -0.20327 21
792 2 0.725119 4.81363 -11.0667 17
793 2 -9.3508 4.37311 -4.82908 16
794 2 0.397603 -0.181612 -0.651994 18
795 2 1.56398 -1.60751 -7.03907 23
796 2 1.60506 2.54272 -6.33131 20
797 2 2.83981 -5.10606 -6.55326 19
798 2 4.86488 -2.54977 -6.7458 19
799 2 -2.97493 -6.08604 -2.31135 19
800 2 0.563904 -8.07985 9.33556 15
801 2 -1.58077 2.51436 -5.54518 21
802 2 4.82226 0.813946 6.40636 20
803 2 0.994404 0.850989 2.33707 22
804 2 8.3157 -2.43857 -5.31999 23
805 2 0.68366 -13.525 3.22695 13
806 2 7.90275 0.837593 11.0597 15
807 2 -6.43841 9.79297 7.97084 12
808 2 -8.22464 -0.865555 2.11243 23
809 2 8.49218 5.91698 -3.4485 19
810 2 4.82535 -9.81825 3.55947 20
811 2 -8.35718 9.46535 3.39942 17
812 2 6.031 2.99589 -5.0741 20
813 2 6.20237 10.8103 5.16271 12
814 2 -7.64736 2.31125 2.10535 20
815 2 0.529393 8.39887 -6.76674 19
816 2 -6.84349 3.31994 -0.704365 21
817 2 -3.01217 7.42397 -2.18938 20
818 2 6.61815 -2.69088 -10.091 14
819 2 -6.46128 0.336307 7.67444 22
820 2 1.45972 2.47492 11.0249 16
821 2 11.9815 1.75059 3.84839 15
822 2 3.23025 0.300307 -8.64283 18
823 2 -4.33584 -5.75639 -7.40736 17
824 2 -0.472059 -8.29333 -1.38607 20
825 2 9.11393 -0.920373 -8.42624 17
826 2 -2.03255 10.2218 5.44125 20
827 2 -0.374845 -5.15901 -12.8051 17
828 2 -11.3526 0.489969 3.7734 17
829 2 -5.99869 2.0879 4.18748 22
830 2 5.24866 -9.03188 0.0531133 24
831 2 -4.58336 -7.82888 -4.88717 22
832 2 -1.81327 -10.785 -1.23103 21
833 2 11.3162 -2.01235 -1.42969 16
834 2 -4.99456 6.18165 -6.29991 20
835 2 7.92879 7.27458 8.06173 16
836 2 -0.0172948 -10.9973 -9.1199 14
837 2 1.46995 1.53173 8.40723 22
838 2 0.976819 11.1013 5.25303 21
839 2 -2.32954 5.05458 -4.49169 20
840 2 -3.7437 7.92496 -8.91459 15
841 2 -2.87931 -8.78634 -7.45835 21
842 2 -4.79213 -10.9886 3.49387 16
843 2 -8.34374 8.05645 0.95817 17
844 2 5.95185 7.2538 -10.7835 14
845 2 -2.02734 5.9031 -7.62115 21
846 2 3.92967 4.87044 0.624256 22
847 2 -7.73739 -3.19957 -11.7893 17
848 2 4.32625 -6.17258 -4.57905 19
849 2 -10.3544 -0.816908 -7.18386 16
850 2 7.77314 4.11366 8.66202 18
851 2 -4.93794 -1.64247 -10.5281 20
852 2 -11.0678 -5.07308 4.65308 15
853 2 8.85777 2.37487 5.68922 20
854 2 6.40128 -0.364558 13.2853 13
855 2 6.74767 -0.247301 -7.47688 18
856 2 -0.403749 7.89854 -9.48785 17
857 2 -2.48856 12.9552 -6.41234 16
858 2 10.8193 -1.39217 4.35398 16
859 2 -3.60627 0.439854 -7.03551 19
860 2 2.14804 12.1346 -3.77111 16
861 2 1.43738 -4.16675 13.8605 14
862 2 0.0339255 -8.21772 -11.1197 13
863 2 -5.27292 -3.72208 -2.74543 20
864 2 8.45108 -2.04789 9.08251 22
865 2 -5.20647 10.5313 4.79997 20
866 2 6.69318 -11.1145 1.67434 15
867 2 8.07375 -9.37525 -4.66148 13