ITEM: TIMESTEP
29000
ITEM: NUMBER OF ATOMS
500
ITEM: BOX BOUNDS pp pp pp
-30.0 30.0
-30.0 30.0
-30.0 30.0
ITEM: ATOMS id type x y z Coordination
1 1 -16.9804 14.0315 -2.72883 16
2 1 -9.66542 9.06692 10.7454 15
3 1 -14.3258 14.301 12.5804 17
4 1 -4.65218 5.466 5.92763 14
5 1 -19.6196 10.9357 5.03928 22
6 1 -16.6829 7.65841 -3.33569 19
7 1 -14.4054 12.6427 10.0852 18
8 1 -12.9856 3.87613 -0.351714 20
9 1 -25.1439 8.88022 3.59293 15
10 1 -14.2077 9.56274 -4.76169 14
11 1 -13.1553 4.65786 2.40503 18
12 1 -7.26476 8.34286 9.2273 18
13 1 -9.6859 12.2637 -0.604199 18
14 1 -10.9816 17.0641 8.94039 15
15 1 -8.85723 17.5662 6.91747 10
16 1 -25.4059 5.93813 5.00765 12
17 1 -22.3262 10.2247 6.78186 24
18 1 -3.73847 7.80078 3.60697 12
19 1 -12.9621 10.5097 14.6277 14
20 1 -20.5366 3.91746 1.73237 21
21 1 -18.3042 4.8996 -6.03523 12
22 1 -11.1304 6.36673 -0.460607 20
23 1 -8.21813 4.42709 -1.28605 10
24 1 -7.91774 2.59921 12.524 8
25 1 -17.5951 16.0877 11.6521 12
26 1 -9.18307 11.9811 9.77687 13
27 1 -16.499 16.5039 5.98484 14
28 1 -15.8133 2.17795 -5.84788 9
29 1 -15.1238 12.6923 15.3138 13
30 1 -10.1078 3.90436 6.6644 23
31 1 -19.6237 17.8509 3.26079 11
32 1 -16.9404 14.4261 8.52424 20
33 1 -12.9332 14.493 -3.07292 14
34 1 -8.04838 12.5251 5.42044 21
35 1 -14.9596 19.2593 -0.708358 12
36 1 -17.5689 10.5684 -4.63327 17
37 1 -17.5985 20.2682 4.30036 14
38 1 -16.0903 14.6359 3.36037 17
39 1 -23.8729 14.9134 6.44566 9
40 1 -12.0708 13.4876 14.6225 11
41 1 -15.7513 11.4003 -6.71534 7
42 1 -21.304 2.81818 7.6564 15
43 1 -18.9885 5.20358 -1.52525 20
44 1 -10.5395 3.71968 1.39921 17
45 1 -19.8401 9.35045 9.3794 20
46 1 -20.5461 11.9121 -1.50005 18
47 1 -16.0383 1.1827 5.64623 21
48 1 -7.09794 12.9341 -3.15561 12
49 1 -15.5275 5.17702 -1.89376 16
50 1 -9.45471 15.3032 -1.47119 17
51 1 -13.448 2.60696 7.93818 23
52 1 -14.9954 20.8256 2.26047 12
53 1 -24.4873 12.1064 8.36376 15
54 1 -17.0121 21.3025 7.42358 10
55 1 -15.4852 10.6062 13.227 21
56 1 -12.023 1.13623 0.479743 14
57 1 -7.63652 8.01911 -1.52981 11
58 1 -16.0788 1.0136 8.41476 15
59 1 -13.7588 -0.56204 6.41137 13
60 1 -10.2529 11.0153 12.9981 14
61 1 -12.2257 5.42965 11.0149 17
62 1 -11.4189 16.7125 2.27705 18
63 1 -21.3562 2.17561 4.80059 16
64 1 -19.5064 -0.047203 4.35339 15
65 1 -17.6035 4.80918 1.6587 20
66 1 -12.3877 14.6396 0.188862 19
67 1 -13.8174 5.34306 8.29986 18
68 1 -16.424 6.41563 14.4895 16
69 1 -26.2714 9.10849 10.1907 11
70 1 -8.16005 1.91322 4.93516 14
71 1 -19.3757 0.500599 7.24451 14
72 1 -16.1347 9.56127 16.0586 13
73 1 -25.0661 6.68637 8.27014 14
74 1 -19.5625 19.3204 6.08328 10
75 1 -18.8918 16.5335 8.23869 13
76 1 -20.2976 12.4153 12.2106 11
77 1 -23.0346 6.55042 2.66452 18
78 1 -22.4928 8.84719 -2.59491 13
79 1 -20.7766 3.80608 -3.5155 10
80 1 -6.20436 9.4164 5.94188 21
81 1 -13.6572 7.24739 15.1299 11
82 1 -20.6503 9.47359 -5.17236 11
83 1 -25.8249 11.8312 1.98365 8
84 1 -21.0335 1.06648 1.51293 9
85 1 -22.199 11.9704 9.75206 17
86 1 -17.2918 13.3086 12.8302 15
87 1 -19.8737 14.3379 2.97784 16
88 1 -14.7529 -0.608669 0.389333 11
89 1 -15.6357 18.3892 10.8748 14
90 1 -10.5489 11.8608 2.44243 18
91 1 -23.3167 9.05868 0.553395 16
92 1 -22.3812 11.8426 1.76113 20
93 1 -16.2566 -0.85349 3.40433 13
94 1 -7.81414 8.4658 13.0623 11
95 1 -20.0633 15.4012 -1.94878 11
96 1 -20.1538 6.33842 14.5177 11
97 1 -24.1195 11.2708 11.866 10
98 1 -14.2356 1.06655 -2.79638 13
99 1 -18.0206 8.15136 12.8711 22
100 1 -13.6425 2.23487 11.3949 12
101 1 -10.1246 5.54542 3.93664 24
102 1 -12.3361 14.2903 4.19195 20
103 1 -19.3555 11.5254 8.33656 19
104 1 -11.6014 9.64918 0.276156 18
105 1 -5.27221 8.18542 11.614 9
106 1 -20.416 1.3973 -1.47959 7
107 1 -22.7599 9.50357 9.43084 23
108 1 -8.88245 14.8504 9.47804 11
109 1 -4.20627 13.6812 1.87494 12
110 1 -9.71802 13.4223 -4.30048 11
111 1 -14.86 16.2785 -2.44108 14
112 1 -8.90454 15.3038 4.11616 15
113 1 -6.12306 14.6891 -0.550522 12
114 1 -10.8277 2.41425 9.3151 19
115 1 -7.26633 4.27397 4.04703 17
116 1 -11.054 2.40534 3.6485 21
117 1 -19.2814 12.7182 -4.24156 12
118 1 -2.71851 10.6449 0.182785 8
119 1 -16.3595 14.0047 0.164414 18
120 1 -17.3151 17.1077 -1.56824 13
121 1 -16.1792 2.29823 -0.478183 15
122 1 -10.8476 0.727396 6.06877 14
123 1 -21.2518 3.6056 12.3181 10
124 1 -13.2591 -0.0682816 3.36892 14
125 1 -12.945 3.48852 -5.22016 10
126 1 -11.2767 13.1445 6.44861 16
127 1 -5.76429 2.9416 7.20579 12
128 1 -6.16493 10.6522 -0.681742 16
129 1 -14.0911 9.2868 -1.46918 21
130 1 -11.5215 13.8039 11.4446 17
131 1 -21.0674 9.81642 12.5399 16
132 1 -10.4332 5.56643 -3.66603 13
133 1 -22.4603 9.38211 3.45311 21
134 1 -14.5067 17.8109 3.99018 18
135 1 -3.81719 12.4094 -1.59026 9
136 1 -18.0225 8.36487 -7.0324 10
137 1 -21.4993 13.1769 7.01938 19
138 1 -11.765 7.8791 12.6225 19
139 1 -4.11449 10.7224 3.26265 15
140 1 -23.5407 11.8309 -1.09419 11
141 1 -7.84884 4.02685 9.6003 17
142 1 -15.2419 2.39279 2.49792 19
143 1 -6.5793 13.0652 8.29442 12
144 1 -8.31859 1.17118 8.99495 9
145 1 -8.57637 5.9027 11.7938 18
146 1 -6.17733 15.6172 5.55711 8
147 1 -7.46455 5.65519 6.84532 20
148 1 -5.01137 9.9901 8.65303 11
149 1 -18.4953 2.45919 4.27695 22
150 1 -14.8925 20.9619 9.27912 11
151 1 -18.7368 11.6143 0.956887 18
152 1 -15.3346 12.4725 -3.91735 17
153 1 -18.2107 5.16607 12.3118 15
154 1 -23.0058 7.68138 5.81705 20
155 1 -11.5934 19.6811 7.27304 12
156 1 -14.2404 15.0324 7.02962 17
157 1 -20.3407 8.98401 0.12676 19
158 1 -8.1056 14.6436 1.66271 15
159 1 -11.0222 16.2599 12.2069 11
160 1 -21.7882 6.73159 8.25004 21
161 1 -15.6669 5.64502 -5.41999 13
162 1 -19.6257 9.13235 15.6241 9
163 1 -10.1527 8.54627 3.03212 19
164 1 -12.0073 19.5592 3.93386 13
165 1 -11.0289 4.05074 13.0453 11
166 1 -18.4076 19.4193 9.75509 12
167 1 -10.8995 2.53027 -2.72003 11
168 1 -5.60867 5.53861 12.3875 10
169 1 -14.0362 12.1491 -1.03649 19
170 1 -24.2747 8.14718 12.0088 12
171 1 -5.21019 12.4033 5.33903 16
172 1 -14.6195 16.4588 0.874848 19
173 1 -8.11098 10.6031 0.941158 17
174 1 -21.2551 6.96804 11.6312 21
175 1 -14.4422 5.06607 12.5745 16
176 1 -22.1728 13.3043 4.05581 16
177 1 -14.2788 18.3345 7.75831 20
178 1 -23.9828 3.96143 6.968 13
179 1 -5.37215 8.63601 1.46743 14
180 1 -17.6942 2.65666 -3.56081 14
181 1 -2.95892 8.71391 6.31376 8
182 1 -8.42762 1.70476 1.64352 9
183 1 -14.475 20.6906 5.35098 14
184 1 -24.6412 11.9609 4.82697 16
185 1 -17.5859 18.9335 1.06544 14
186 1 -12.1124 17.5603 -1.18916 15
187 1 -19.0837 8.91283 -2.36281 18
188 1 -9.24436 10.2521 -3.99811 11
189 1 -17.9666 0.903153 1.23398 18
190 1 -12.9092 -0.461377 9.13035 10
191 1 -7.17695 7.14646 3.97076 18
192 1 -25.584 9.12276 6.81911 17
193 1 -12.5547 11.5271 -3.98004 14
194 1 -21.5732 5.87562 -0.472624 14
195 1 -5.24926 6.00977 9.06091 15
196 1 -20.7486 6.75028 -5.31476 10
197 1 -22.2858 17.3485 4.49302 7
198 1 -23.9721 4.78524 13.2165 7
199 1 -12.9927 19.0872 10.6424 11
200 1 -6.45284 12.7544 2.74372 17
201 1 -23.871 4.64359 10.0552 13
202 1 -11.201 8.5086 -2.81094 16
203 1 -9.40308 17.2913 0.525357 10
204 1 -11.6025 16.5362 5.64158 20
205 1 -12.1563 19.7034 0.819687 13
206 1 -8.17369 10.3145 3.93949 21
207 1 -19.3438 13.8931 10.0821 14
208 1 -8.34863 5.80846 1.16098 16
209 1 -13.3838 6.24559 -3.38566 20
210 1 -18.3496 11.4854 14.4823 18
211 1 -19.9342 16.5518 0.56922 11
212 1 -18.9802 2.75721 9.90768 12
213 1 -12.3394 4.65682 5.57924 20
214 1 -22.0926 4.93238 4.88196 20
215 1 -22.2665 14.4842 0.567606 12
216 2 -23.359 6.50572 9.49691 18
217 2 -7.79999 16.5244 5.71341 9
218 2 -15.6766 7.79595 15.437 13
219 2 -18.3903 7.08622 -1.97319 20
220 2 -22.8394 11.4439 3.68973 20
221 2 -12.4551 1.25569 9.89013 12
222 2 -10.3368 15.3125 10.6283 13
223 2 -6.72584 11.1993 5.27786 19
224 2 -22.2732 11.7825 11.8039 13
225 2 -16.89 12.6467 14.6235 13
226 2 -11.9759 2.48587 -0.926047 15
227 2 -24.1658 9.78659 -1.14762 10
228 2 -16.7565 3.73309 -1.78065 16
229 2 -17.3305 0.890676 7.155 17
230 2 -20.6736 18.4066 5.00328 9
231 2 -7.10058 6.64647 8.29956 22
232 2 -12.4974 17.5065 3.76344 16
233 2 -16.1762 14.9624 12.4599 15
234 2 -12.5306 20.1706 5.48144 13
235 2 -10.2914 17.1727 -1.31858 14
236 2 -8.14519 6.3405 -0.657291 12
237 2 -24.3572 12.0697 0.760841 11
238 2 -9.20706 2.77614 10.4753 13
239 2 -24.8915 10.8772 6.54269 17
240 2 -13.5522 5.51633 -1.54047 19
241 2 -17.6571 -0.436778 4.67865 12
242 2 -10.2789 10.7684 0.833564 16
243 2 -10.6313 17.9229 6.75146 13
244 2 -6.51683 7.20824 12.7104 10
245 2 -19.5933 2.25714 8.23602 14
246 2 -14.7216 -0.541202 4.51807 14
247 2 -22.5629 3.34961 6.09103 14
248 2 -19.7447 0.199026 2.53923 14
249 2 -19.4146 5.01638 0.547464 17
250 2 -18.0493 20.444 6.09209 12
251 2 -11.6042 8.19141 1.85144 19
252 2 -7.43726 13.8576 4.06741 18
253 2 -8.72865 14.0768 -2.81799 12
254 2 -19.1817 10.4471 -0.753735 19
255 2 -5.73073 14.0358 6.6481 11
256 2 -15.7446 20.7213 4.00568 14
257 2 -19.2309 18.3525 7.91023 11
258 2 -16.0503 19.8886 0.742627 13
259 2 -9.46727 15.7634 1.94032 17
260 2 -14.9516 14.228 8.85766 20
261 2 -11.6562 11.817 14.164 14
262 2 -14.6906 3.90047 -5.93648 11
263 2 -13.3022 0.0851893 1.48847 13
264 2 -12.4005 8.25854 -0.930262 19
265 2 -20.9331 6.33238 3.89248 22
266 2 -9.00377 5.11355 2.81521 21
267 2 -9.30648 12.6231 6.86659 17
268 2 -17.0798 6.47556 -6.62705 11
269 2 -15.7795 5.96543 -3.66501 18
270 2 -15.3202 1.14153 -4.40101 9
271 2 -11.3246 6.62382 -2.4896 17
272 2 -6.67887 8.97268 -0.253821 13
273 2 -23.6696 5.92219 4.34587 16
274 2 -17.2868 3.50656 -5.20595 12
275 2 -14.0097 13.5118 0.458956 18
276 2 -16.5472 0.0203 1.76003 15
277 2 -14.5814 11.2773 -5.25245 13
278 2 -18.0639 15.5624 9.91564 16
279 2 -21.3605 2.5496 2.7274 15
280 2 -20.9986 7.74096 9.46114 16
281 2 -17.8998 15.3004 6.92228 16
282 2 -22.9282 3.48046 8.78719 12
283 2 -26.1879 8.28315 8.54812 12
284 2 -9.58114 3.03486 13.3638 7
285 2 -10.081 10.4243 3.87702 22
286 2 -14.2083 8.58877 -3.22837 19
287 2 -11.4144 14.8596 13.4073 10
288 2 -17.5013 17.9769 10.9729 10
289 2 -18.6398 13.3088 11.6584 17
290 2 -18.0118 12.85 8.70825 20
291 2 -21.3262 10.1893 -2.07596 16
292 2 -4.7137 12.4668 3.47544 13
293 2 -25.0059 5.56681 6.96323 16
294 2 -18.1921 15.5424 -2.38444 15
295 2 -14.2758 6.41608 2.18035 20
296 2 -21.3161 15.7333 -0.605076 10
297 2 -12.7507 3.73979 12.1513 13
298 2 -15.5679 14.833 5.7731 20
299 2 -12.1269 5.02241 -4.45999 12
300 2 -12.4411 2.50126 -3.7301 14
301 2 -23.8197 13.6435 5.0325 13
302 2 -15.0254 2.58757 6.89341 21
303 2 -10.1498 1.3346 7.70378 15
304 2 -13.3182 13.9212 11.1218 17
305 2 -13.0835 19.2787 -0.811019 13
306 2 -19.476 10.0692 11.1031 25
307 2 -18.9394 3.55377 5.74558 23
308 2 -21.1352 10.5068 8.54097 20
309 2 -11.5283 13.0122 -3.6151 16
310 2 -4.23014 10.1848 -1.20143 9
311 2 -14.524 5.94512 14.1588 12
312 2 -21.7177 9.98755 1.41883 21
313 2 -12.4161 19.384 8.87529 14
314 2 -14.6747 19.8333 10.9212 11
315 2 -7.64612 2.64023 3.13453 14
316 2 -21.8903 5.40371 1.36003 14
317 2 -13.9025 13.9327 14.523 13
318 2 -10.5663 12.0479 11.1541 16
319 2 -8.33986 11.9167 -3.93706 10
320 2 -3.81537 6.82764 5.14688 10
321 2 -16.5826 9.14625 12.5397 20
322 2 -4.6322 6.32215 10.9398 10
323 2 -23.8595 8.39652 2.32651 18
324 2 -20.7003 13.9626 5.42369 18
325 2 -19.9842 13.7693 -3.00302 11
326 2 -17.2368 2.72837 9.0181 16
327 2 -13.0997 20.3677 2.67164 11
328 2 -21.7074 7.60521 -0.950352 19
329 2 -6.30894 5.69172 5.09132 20
330 2 -19.9707 16.2365 2.44139 13
331 2 -4.97584 4.63472 7.70192 11
332 2 -21.3057 5.44116 12.7912 13
333 2 -20.8647 4.73198 -1.9845 13
334 2 -15.8915 15.8109 -0.491929 18
335 2 -24.1074 11.078 9.84112 17
336 2 -3.31628 12.7428 0.358109 12
337 2 -12.6906 8.5609 14.2833 15
338 2 -23.0517 16.0574 5.51098 8
339 2 -18.4458 17.5173 0.0128067 13
340 2 -14.7953 10.7373 15.2004 15
341 2 -17.0719 9.4323 -3.09091 19
342 2 -10.9386 18.1917 1.16505 12
343 2 -19.921 10.8931 13.786 15
344 2 -16.0936 11.9794 11.5977 19
345 2 -19.8225 4.92286 -5.00353 12
346 2 -12.7951 16.3948 1.09718 18
347 2 -16.7388 3.09794 1.18085 18
348 2 -16.4946 12.5306 -1.54657 20
349 2 -12.0515 5.83101 9.17834 19
350 2 -13.8972 10.2094 12.2666 19
351 2 -6.11336 14.035 1.25249 16
352 2 -11.9332 -0.503351 7.17772 10
353 2 -9.00362 8.75958 -2.65999 13
354 2 -9.17184 16.4928 8.47845 9
355 2 -21.8858 12.829 -0.588436 14
356 2 -24.2128 6.48192 12.5393 9
357 2 -25.5486 10.6239 3.42394 13
358 2 -12.1917 0.74347 4.74117 15
359 2 -12.7658 16.3451 7.69444 17
360 2 -25.4238 9.73755 11.7143 9
361 2 -18.707 6.90503 6.53036 18
362 2 -10.437 1.63156 1.83424 16
363 2 -12.0352 17.6134 11.553 12
364 2 -17.6858 13.0071 0.70913 16
365 2 -14.9009 14.5973 -3.57537 15
366 2 -7.77895 15.432 -0.496959 14
367 2 -14.7771 0.646377 -1.07356 14
368 2 -5.3385 11.5901 8.04076 12
369 2 -3.41998 9.47297 4.62049 12
370 2 -12.924 15.9653 -2.05338 15
371 2 -21.1416 8.06466 -3.9019 11
372 2 -19.9673 8.04182 -6.54484 10
373 2 -19.0409 8.10665 1.18572 21
374 2 -16.8812 20.5914 9.16284 11
375 2 -15.4047 17.8385 -1.93457 13
376 2 -21.6993 13.807 2.16067 15
377 2 -22.446 8.48559 12.1424 17
378 2 -11.2445 10.2021 -3.98096 14
379 2 -9.58515 3.99643 -2.69876 10
380 2 -23.403 13.5951 7.72492 15
381 2 -17.2653 12.4261 -4.13028 14
382 2 -14.3101 3.8287 3.8068 16
383 2 -5.56027 8.98286 10.0673 12
384 2 -17.8596 6.69691 11.362 21
385 2 -13.8276 11.1177 -2.4773 21
386 2 -23.0982 3.99977 11.7091 9
387 2 -7.19097 4.51313 11.5303 14
388 2 -21.0971 11.4547 6.20943 20
389 2 -18.196 5.93464 14.1129 13
390 2 -14.3441 0.256919 8.10105 13
391 2 -6.97537 10.8938 2.56337 25
392 2 -13.7697 3.00278 1.18212 20
393 2 -18.2094 19.1491 3.07675 11
394 2 -19.7438 10.9866 -4.52257 14
395 2 -19.5652 3.44524 11.5971 12
396 2 -8.95706 4.27487 8.13073 18
397 2 -9.23697 13.1379 1.58348 20
398 2 -7.8055 11.5276 -0.715522 21
399 2 -4.76786 8.86714 6.94243 16
400 2 -18.0498 14.1987 3.56281 19
401 2 -8.36 7.47095 10.6919 20
402 2 -11.792 5.02536 0.895604 21
403 2 -18.8445 3.97608 3.087 21
404 2 -11.6666 4.15481 3.64271 18
405 2 -6.65423 2.95885 5.38061 13
406 2 -8.7924 5.55908 5.51583 21
407 2 -11.904 3.63759 7.3021 20
408 2 -19.87 8.16911 13.9223 16
409 2 -11.212 13.4333 -0.626566 21
410 2 -25.1593 7.85334 5.24873 15
411 2 -21.9099 9.15322 5.26101 22
412 2 -7.21797 2.71108 8.17998 16
413 2 -15.1953 16.291 2.89623 15
414 2 -3.66648 9.78332 1.58874 13
415 2 -10.6204 15.0807 4.71243 19
416 2 -10.6447 6.06894 12.3426 17
417 2 -14.302 3.65281 9.36807 18
418 2 -5.67969 7.59638 2.85957 17
419 2 -9.86606 2.65982 5.42459 18
420 2 -19.3555 2.44708 -2.69774 10
421 2 -15.1234 17.7861 5.71895 17
422 2 -14.9257 20.463 7.25916 14
423 2 -20.4762 0.97185 5.80855 13
424 2 -18.0333 9.78934 15.671 12
425 2 -20.8311 13.1542 9.02292 20
426 2 -8.8835 10.3806 8.841 16
427 2 -5.71693 13.0298 -1.80788 11
428 2 -17.0676 10.0139 -6.43581 13
429 2 -19.515 0.960465 0.0796809 10
430 2 -8.91194 3.83908 0.381176 13
431 1 -17.0965 7.59256 -0.276715 23
432 2 -16.6773 2.09039 3.91831 21
433 2 -17.8154 6.4186 2.68996 19
434 2 -16.1116 9.27792 -0.254728 21
435 2 -15.6812 6.5173 -0.532494 20
436 1 -20.2548 7.63539 5.15064 20
437 1 -19.9752 6.52079 2.08063 19
438 1 -15.8331 6.79981 3.48985 18
439 1 -18.1316 5.37853 4.37766 21
440 1 -17.5854 2.86767 7.14067 20
441 1 -19.6314 5.17822 6.72518 19
442 1 -17.0611 7.12644 9.83433 16
443 1 -16.0706 4.14471 9.84091 17
444 2 -23.3516 8.28221 8.00213 18
445 2 -21.3915 5.82958 6.46692 19
446 2 -16.3823 5.00902 11.7109 18
447 2 -16.3696 5.38316 5.18645 21
448 2 -16.0446 5.92507 8.65506 19
449 1 -17.2161 10.5714 -1.42036 22
450 1 -15.0897 9.57055 1.37623 20
451 1 -17.4565 12.2815 3.76932 18
452 2 -18.9921 9.06465 5.04047 20
453 2 -18.8256 11.0241 2.79366 16
454 2 -16.1324 8.67099 3.37564 18
455 2 -17.9765 12.2357 5.88956 21
456 2 -13.9435 10.8522 0.403676 16
457 1 -17.9543 9.12502 2.72941 18
458 1 -17.7631 8.50261 6.65387 22
459 1 -18.896 13.9724 5.70411 19
460 1 -15.1036 9.54785 4.80596 20
461 1 -15.0828 8.91622 8.20508 19
462 1 -16.9718 11.5551 7.43169 22
463 1 -17.4739 10.3645 10.8516 22
464 1 -13.8179 15.8659 9.82944 18
465 2 -15.6848 8.50624 6.27241 19
466 2 -18.4538 9.85359 7.89127 20
467 2 -11.5263 8.79584 10.9016 18
468 2 -16.2498 8.87194 9.95005 20
469 2 -14.6714 17.4666 9.42765 19
470 2 -15.0653 11.3977 6.8641 21
471 1 -13.7611 6.49409 0.109167 21
472 2 -11.3873 7.07508 4.70571 20
473 2 -8.55972 7.61444 2.6373 20
474 2 -8.13476 8.64372 5.1727 20
475 1 -12.7043 7.76608 6.31498 18
476 1 -15.2585 3.98432 5.40207 19
477 1 -15.9603 6.37153 6.81382 18
478 1 -14.8817 8.27524 11.5571 24
479 1 -9.69499 7.58496 5.81286 22
480 1 -9.75065 5.91621 8.59234 19
481 2 -13.5407 6.80284 11.9814 19
482 2 -13.1208 9.11413 8.06332 17
483 2 -13.7685 6.09612 6.58202 22
484 2 -10.6257 6.91991 7.31291 19
485 1 -13.0018 7.65049 3.34601 19
486 1 -14.1779 12.491 2.01127 15
487 2 -13.3634 9.24481 4.50151 19
488 2 -15.5186 12.7734 3.59712 18
489 2 -12.3306 12.4956 3.35586 17
490 2 -11.4801 11.0074 6.27543 18
491 1 -14.7698 12.8369 5.56539 19
492 1 -12.0018 10.7414 4.20137 20
493 1 -11.8421 8.04119 9.06573 20
494 1 -13.16 10.9478 7.3636 18
495 1 -12.3066 10.67 10.8374 20
496 1 -9.46186 10.5966 6.98634 16
497 2 -9.14403 9.59298 12.8065 14
498 2 -7.79551 13.3759 9.69525 10
499 2 -12.9548 13.7749 6.19635 16
500 2 -13.5009 11.3101 9.34012 17
