ITEM: TIMESTEP
33000
ITEM: NUMBER OF ATOMS
2000
ITEM: BOX BOUNDS pp pp pp
-30.0 30.0
-30.0 30.0
-30.0 30.0
ITEM: ATOMS id type x y z Coordination
1 1 -6.85898 6.47888 -12.8634 23
2 1 0.236104 -10.9191 -3.24777 18
3 1 1.87047 17.5188 12.2321 11
4 1 13.8861 -3.0712 6.17783 11
5 1 -9.66326 17.4048 -2.71898 15
6 1 12.5363 -7.17337 -12.4707 10
7 1 -9.71606 10.7681 -5.99718 17
8 1 -1.90801 -4.4641 10.9409 15
9 1 -7.11245 6.93445 -9.76569 23
10 1 -7.96433 -8.10823 7.84229 11
11 1 15.0931 6.28944 -11.6634 12
12 1 -5.81249 8.14531 -4.04425 23
13 1 -7.61074 -9.24938 0.133603 19
14 1 -9.97354 -2.08257 -0.917717 20
15 1 -0.539451 9.31037 11.0723 19
16 1 6.07246 -1.01827 3.27885 21
17 1 -0.599197 6.52985 9.00488 19
18 1 10.9633 1.30528 0.293536 19
19 1 4.9396 17.3234 -7.78951 16
20 1 0.680013 4.1004 10.0592 22
21 1 -7.75973 -1.69757 -13.8228 14
22 1 -12.8957 -1.95694 7.52002 13
23 1 13.0061 0.259124 6.33335 18
24 1 -0.045462 15.2168 -9.70566 20
25 1 1.30001 9.92122 -14.3628 17
26 1 13.0637 4.83442 11.438 19
27 1 -9.73978 4.72542 -1.65263 20
28 1 -13.8955 3.81628 -8.70493 16
29 1 -5.4745 3.66146 -12.3415 20
30 1 -13.4471 11.0896 4.77212 15
31 1 10.0424 -11.8544 0.863871 9
32 1 -1.61173 2.96992 5.99509 21
33 1 1.79326 -11.2051 -13.4992 10
34 1 8.57399 -3.90353 -4.04605 21
35 1 -4.76795 -9.32242 -0.473623 19
36 1 -5.59528 -5.92143 8.21642 23
37 1 5.88352 0.389039 -6.94376 20
38 1 1.10272 0.263432 -14.4462 17
39 1 11.2163 -4.46927 -13.6135 19
40 1 -2.90503 3.82409 -18.5187 19
41 1 -6.30653 6.78011 10.5345 18
42 1 -0.349078 -11.2496 2.4474 16
43 1 7.62521 -1.18597 11.101 16
44 1 -12.8016 6.4912 -2.21614 18
45 1 -15.1537 -2.80636 5.18856 12
46 1 -8.57613 8.59603 -4.68633 22
47 1 -2.73503 19.4951 -3.40208 17
48 1 1.32001 -12.8611 -10.5131 12
49 1 5.7627 0.420856 -10.0879 17
50 1 5.30905 -2.80639 -14.0078 21
51 1 -3.13056 0.336105 12.9626 19
52 1 -12.5948 8.13281 0.319364 20
53 1 3.85441 10.6499 -12.5761 15
54 1 -0.127045 19.6462 1.95337 18
55 1 -9.80687 12.296 -8.12484 15
56 1 -8.87615 12.622 2.00278 15
57 1 1.41925 -6.11445 0.352828 19
58 1 15.2174 -3.15103 -8.9862 10
59 1 8.06593 -1.99215 -16.9693 12
60 1 -11.4706 11.6047 10.1388 9
61 1 -11.0825 -4.60954 -2.73291 21
62 1 4.86351 1.70658 2.86831 20
63 1 -3.75375 8.74158 -6.26545 21
64 1 -8.57355 -0.096454 -3.30555 21
65 1 -10.2123 14.1222 8.25589 17
66 1 -15.0401 10.5313 -8.24922 12
67 1 -9.27538 16.5753 6.34933 14
68 1 1.34117 13.2418 -8.55219 19
69 1 2.25656 7.41639 4.50952 20
70 1 -3.57929 -10.3985 2.60117 14
71 1 1.51121 9.90301 6.01358 21
72 1 6.2101 -8.69394 -8.22839 24
73 1 6.43609 11.7056 14.0261 18
74 1 -15.5366 5.98976 -8.41666 12
75 1 -13.0554 12.515 -9.22723 12
76 1 7.22506 9.38076 14.8023 14
77 1 14.1079 -3.83258 -12.3062 12
78 1 7.23358 -3.64004 2.57751 17
79 1 -13.9299 0.549851 3.47409 19
80 1 -12.5267 3.8743 -0.526719 22
81 1 2.56718 21.8906 6.07484 8
82 1 5.99223 1.22733 11.0569 15
83 1 -6.10921 -12.1131 1.00236 12
84 1 -10.2083 8.35534 -2.25715 20
85 1 9.56398 4.01949 4.63879 21
86 1 8.22182 1.3287 -1.74709 19
87 1 -1.65117 18.0132 5.36343 19
88 1 4.32048 1.83241 6.61852 18
89 1 -8.71715 0.629769 2.55264 19
90 1 -1.98698 -5.50585 -9.25472 17
91 1 -12.9375 10.8765 1.43739 21
92 1 -8.56298 18.9443 -6.10218 11
93 1 -0.968314 11.8491 -14.7826 14
94 1 7.39861 4.64544 -3.64184 21
95 1 4.68442 4.33593 -5.41537 18
96 1 4.81399 18.7479 -5.21683 12
97 1 7.80361 -3.84942 -0.976388 17
98 1 4.82221 -5.92868 10.7985 15
99 1 -5.17452 18.472 -6.48958 16
100 1 -7.03002 18.9569 1.95439 10
101 1 -5.87956 -0.996551 11.6353 14
102 1 0.19163 13.1494 5.19972 18
103 1 -3.20819 -5.01355 5.3282 16
104 1 12.0612 -5.3753 -7.54483 12
105 1 -12.2787 8.47595 3.60744 16
106 1 -7.481 -3.89666 0.651855 21
107 1 12.0455 -11.3247 -2.96969 11
108 1 0.147036 4.13852 -13.493 20
109 1 -3.19039 0.84444 -16.7636 19
110 1 0.707012 4.94942 5.88167 21
111 1 4.94238 15.4441 -2.4185 18
112 1 -4.79678 12.5271 -8.53273 20
113 1 -1.12282 8.33289 17.6149 11
114 1 1.27681 12.2519 -5.1581 19
115 1 -15.596 12.3295 -2.67849 17
116 1 -0.0186931 11.3091 0.828227 22
117 1 -5.19375 -4.40465 11.2888 15
118 1 16.0303 2.37224 10.8217 10
119 1 2.58416 -4.51085 -4.36016 22
120 1 -0.814394 -3.68442 -14.0612 16
121 1 -6.06889 9.44114 10.0459 20
122 1 5.23678 0.741632 14.0976 19
123 1 -10.3545 -1.87052 -7.47626 16
124 1 3.4356 -1.71237 1.22725 21
125 1 -4.94701 -8.66536 -5.88259 17
126 1 9.85039 -11.3084 -4.96838 14
127 1 -3.30573 11.376 2.26614 20
128 1 -0.401833 5.13862 -16.5324 19
129 1 7.80101 15.5306 2.63035 18
130 1 -8.82562 -5.25534 6.68274 21
131 1 -2.79979 -8.48218 5.22352 17
132 1 -6.12463 11.1645 -5.18594 20
133 1 7.4867 -5.87438 -17.5613 10
134 1 3.79386 12.0133 -6.61196 19
135 1 12.7022 -4.90484 4.18498 16
136 1 4.88054 -11.9583 -0.6425 13
137 1 -7.37861 -0.637373 -6.11968 19
138 1 10.0618 10.6169 14.5349 12
139 1 15.024 2.98278 -10.1703 15
140 1 -16.0381 -1.82631 -0.214192 13
141 1 13.3863 8.37448 5.4748 17
142 1 13.2624 7.02617 8.82434 15
143 1 -7.11891 3.52609 10.1449 21
144 1 5.37205 12.6032 -0.695935 18
145 1 -4.42721 15.716 10.3031 16
146 1 -5.7896 14.4918 -10.7771 15
147 1 -1.47729 -1.35403 -15.8072 17
148 1 10.6705 -8.40124 -10.2021 12
149 1 0.20213 15.6156 -6.46245 20
150 1 10.1601 0.351979 12.3596 10
151 1 2.62164 3.03414 -18.7367 11
152 1 -2.21202 13.463 -9.84018 19
153 1 13.2989 3.00111 -3.36893 18
154 1 -11.9004 14.2701 -6.59831 14
155 1 -6.86001 16.5164 -6.087 18
156 1 6.58589 6.23506 -10.3399 20
157 1 10.81 -8.57412 -3.17106 21
158 1 -13.6646 8.75391 -13.6903 11
159 1 -4.6074 18.9261 5.84239 14
160 1 14.0435 8.64267 -11.4366 16
161 1 8.05063 17.1766 -7.35781 13
162 1 -3.35228 16.8913 -0.438028 20
163 1 15.6444 10.5074 1.52032 14
164 1 -5.06642 17.7363 -3.2811 21
165 1 2.55877 17.5391 -3.07417 17
166 1 -3.91555 10.5408 -15.1532 18
167 1 -10.2273 -8.37105 2.03632 19
168 1 -15.0948 8.60805 -3.11599 17
169 1 -5.52226 5.82172 -18.9366 12
170 1 2.70164 0.590583 -16.765 14
171 1 9.86079 16.2585 8.16598 11
172 1 2.82319 20.2388 2.86002 14
173 1 -13.2488 -1.59292 -2.15722 20
174 1 -9.90564 10.7024 0.447702 19
175 1 15.2023 0.996495 -3.87552 15
176 1 -11.332 2.118 -14.872 11
177 1 2.63123 1.54241 15.438 14
178 1 9.48011 17.3432 0.328875 12
179 1 -4.34571 13.5854 8.59704 17
180 1 -3.02077 1.37744 -19.9971 12
181 1 -7.09705 16.8613 4.54025 18
182 1 -2.29974 10.662 -8.11801 22
183 1 -0.898237 -2.69034 13.2039 13
184 1 -13.8295 1.15924 -0.79262 19
185 1 -1.33693 -8.82765 -11.2709 17
186 1 -9.16068 12.6561 -11.471 13
187 1 6.79864 -14.7022 5.70598 7
188 1 4.04303 -8.3552 0.447039 17
189 1 -1.12587 18.0308 -11.2785 12
190 1 -14.798 3.59012 7.329 17
191 1 5.25703 9.81038 -2.35411 21
192 1 10.5429 13.1089 -4.78016 21
193 1 -8.32419 10.6302 12.7183 15
194 1 3.0895 -4.0421 13.061 12
195 1 -6.9285 6.90745 -0.120088 20
196 1 4.34261 14.9229 1.11192 18
197 1 3.94148 13.0734 13.8643 16
198 1 10.3411 6.57938 10.5541 20
199 1 -5.24503 19.8676 -0.940296 15
200 1 8.0787 -4.06727 -12.0558 20
201 1 -6.60014 17.8245 8.02967 11
202 1 -10.1414 7.02176 -10.9263 19
203 1 12.4791 -1.31762 0.255046 18
204 1 -4.33304 -4.17673 1.98789 19
205 1 -12.027 2.32648 2.1638 18
206 1 -10.9822 0.870489 -1.9707 20
207 1 9.11097 12.7652 12.7145 14
208 1 -12.0336 8.64673 -5.13086 17
209 1 -8.39572 -6.09431 -4.81193 21
210 1 -5.61186 1.9906 -3.56117 16
211 1 3.62495 -3.95788 -7.65402 19
212 1 -4.0962 14.2127 -1.35132 20
213 1 -6.65241 4.00628 0.341558 20
214 1 3.43936 16.4215 9.72432 17
215 1 -8.4575 3.36673 -4.54531 19
216 1 -7.47197 10.3727 -9.78355 20
217 1 -15.2312 -1.13253 -4.82315 11
218 1 -9.58213 2.18752 11.5564 11
219 1 -0.543439 -6.92302 8.43408 15
220 1 8.47207 -10.0506 -2.28612 21
221 1 -10.8488 14.2063 1.00868 18
222 1 15.7987 2.9451 4.46389 14
223 1 8.6923 7.83414 -8.51699 21
224 1 -7.35618 -3.12708 -8.62467 15
225 1 -1.02163 9.15725 8.3859 19
226 1 8.61824 -8.45315 3.05187 15
227 1 5.83076 13.5923 -8.26335 17
228 1 3.7206 -8.50674 -14.5974 14
229 1 6.8774 6.97294 -13.686 19
230 1 6.7386 10.6398 -13.8963 12
231 1 -8.0689 2.17634 -11.6039 22
232 1 0.793519 14.8192 -3.69004 16
233 1 -3.23199 -9.0855 8.10822 12
234 1 7.58447 17.4512 -4.10398 15
235 1 -6.04427 4.9406 14.3439 13
236 1 -7.02028 13.9148 -7.39022 18
237 1 1.04383 -1.58485 11.6636 19
238 1 -2.676 -4.62797 -15.8326 12
239 1 -6.34554 11.9545 -12.4125 19
240 1 1.02733 2.09943 -11.356 19
241 1 -6.89025 -7.16818 1.49528 18
242 1 -9.37537 8.25248 11.5104 18
243 1 -5.76978 13.6633 5.77947 18
244 1 6.34767 -7.80652 -15.2759 13
245 1 -3.82369 -15.2153 0.503921 10
246 1 13.1336 -8.18164 -1.04543 17
247 1 -1.08215 -5.4141 1.75395 20
248 1 9.49226 8.91128 12.3531 18
249 1 6.85788 14.8378 -5.74841 18
250 1 -1.84673 14.0666 -3.87497 22
251 1 -9.99472 6.66843 0.488733 18
252 1 -16.7207 15.1279 -4.44202 10
253 1 1.69338 12.7844 7.72556 20
254 1 5.15777 -9.14951 -2.19202 23
255 1 16.4267 7.24428 -6.7819 11
256 1 2.64302 17.6607 6.73247 17
257 1 -10.0648 8.74829 6.20183 21
258 1 -12.5634 1.52525 -9.30634 14
259 1 2.16225 6.52418 -14.1754 21
260 1 1.2921 1.6993 7.70822 20
261 1 10.2487 16.5582 -9.55936 11
262 1 2.89092 -9.07476 -7.66301 23
263 1 -5.45257 -1.70274 -11.3555 19
264 1 7.40574 -8.90203 0.258905 15
265 1 10.8523 -1.48171 -11.4961 17
266 1 -11.1906 -0.518683 4.14741 16
267 1 6.18493 -12.6036 -3.62508 12
268 1 -13.7012 6.12918 -11.6691 18
269 1 3.09624 15.0257 4.7197 19
270 1 2.79579 -0.722756 -11.2919 19
271 1 8.69039 4.85571 12.4633 17
272 1 13.8523 1.18202 -1.24301 19
273 1 -5.62406 -0.96239 -2.83658 18
274 1 13.8894 -6.12814 -9.92774 9
275 1 -4.97566 -3.89692 -1.30478 18
276 1 -11.0342 0.28441 -11.8074 17
277 1 -14.1496 1.3017 -3.6366 18
278 1 -0.0876218 -9.79561 9.54231 9
279 1 6.10026 5.12016 9.66709 18
280 1 9.40049 -7.22017 8.20367 10
281 1 -7.71049 -4.04562 -11.7283 18
282 1 6.12812 -8.97733 4.05622 12
283 1 0.573086 5.11377 -19.3919 12
284 1 4.99647 9.55444 1.14767 21
285 1 -5.56975 1.12452 1.9932 19
286 1 7.79976 11.813 -2.54722 20
287 1 -3.8574 -2.59055 7.0582 25
288 1 -11.5788 -4.80245 -7.484 17
289 1 -10.7808 -3.44509 -12.657 10
290 1 -5.70218 8.67191 -11.6936 19
291 1 -8.68503 -6.07183 -8.38646 16
292 1 -4.28613 -14.9018 -2.78878 13
293 1 10.0709 1.0692 -13.4046 20
294 1 15.3691 -0.939632 -11.3334 12
295 1 8.69401 6.86549 1.45536 19
296 1 -3.82102 0.648176 -5.02392 18
297 1 -11.401 0.548385 8.96977 14
298 1 -4.63161 -12.3284 -1.07842 16
299 1 11.0918 3.17385 13.4319 13
300 1 -6.15307 -12.3574 -4.02069 14
301 1 1.26122 -8.87127 -1.17131 18
302 1 5.28299 19.0745 -2.18964 12
303 1 5.1104 3.18531 -11.4654 19
304 1 -4.36929 -2.5805 -14.1762 19
305 1 6.08246 -2.92368 -8.08905 21
306 1 -9.51932 -1.87677 6.91228 18
307 1 4.01167 4.13515 15.2912 15
308 1 3.3357 -5.94843 -2.00429 19
309 1 -5.10061 -9.60961 -10.3632 13
310 1 -9.37855 11.1471 -14.1983 12
311 1 8.52161 6.8056 4.54923 19
312 1 -3.04392 6.87229 -17.2403 19
313 1 -1.17144 14.7204 -13.2973 16
314 1 -5.71658 -0.473678 8.11555 21
315 1 5.08528 -10.4208 -13.1801 10
316 1 -7.59646 19.7356 -3.82431 11
317 1 8.02078 13.7394 7.83306 19
318 1 10.2375 4.18158 1.73092 21
319 1 -10.4456 3.20417 5.39987 21
320 1 -2.23339 0.0187981 4.3149 18
321 1 0.238105 16.3298 3.95075 19
322 1 -2.68728 -1.01349 -12.1256 16
323 1 14.6477 7.41195 0.692278 19
324 1 1.03237 -3.10205 -1.98526 21
325 1 -0.602684 1.14875 10.8058 18
326 1 -16.0923 -1.62785 3.02041 12
327 1 2.72248 -13.0192 -4.56635 13
328 1 -8.12109 12.5384 10.2144 15
329 1 -11.4762 11.0192 7.01863 18
330 1 -12.0227 -4.36087 5.9144 15
331 1 -12.0411 -7.29812 5.25105 11
332 1 16.8245 0.946498 -6.06708 11
333 1 -7.02314 -1.71159 2.86274 19
334 1 7.14568 -0.326049 -12.1651 20
335 1 12.5529 -10.9576 -6.59403 9
336 1 6.33628 19.5862 1.53825 13
337 1 -0.451324 -4.29778 6.70299 21
338 1 -3.78938 19.2741 -9.8808 10
339 1 -2.79561 5.67497 6.6628 23
340 1 5.89136 6.91283 12.5575 15
341 1 -15.2481 8.8264 3.83065 17
342 1 14.1073 -8.83036 -4.05 9
343 1 0.649389 9.8601 -9.56372 20
344 1 -5.80567 14.2307 2.61571 18
345 1 10.1602 -8.31877 5.63781 9
346 1 13.5194 0.757625 2.3254 17
347 1 -5.90587 10.673 7.49489 21
348 1 -6.61872 5.69416 -6.57556 20
349 1 -4.20476 3.95268 11.3657 19
350 1 -2.29386 20.2131 -0.145294 16
351 1 12.6265 8.57363 15.5075 9
352 1 -3.83473 16.3782 -11.2547 14
353 1 -4.77769 -2.60985 -17.4374 11
354 1 -6.66768 8.44728 -7.39984 20
355 1 11.0057 -6.43892 -15.6748 10
356 1 -8.9622 9.66791 9.18556 21
357 1 -14.8052 3.16371 1.91105 21
358 1 -3.60117 -4.48473 -11.7699 21
359 1 -8.79948 14.5931 5.05935 17
360 1 4.64256 -0.162497 8.82562 17
361 1 -7.41686 -6.67792 -1.705 20
362 1 11.6035 -1.54954 4.30959 20
363 1 6.94678 -14.2577 9.34192 3
364 1 -18.1989 10.1099 2.02844 8
365 1 -2.28451 0.155253 7.81536 21
366 1 5.00119 -6.43922 -8.89322 22
367 1 -8.67384 -1.07183 -10.5034 20
368 1 12.0124 6.0806 -13.3165 10
369 1 10.675 9.47293 4.93335 22
370 1 -10.4977 6.05045 -4.81019 20
371 1 4.44332 -5.39503 -15.5527 17
372 1 9.72215 7.3648 -11.6708 22
373 1 -2.00401 -14.2386 -8.53785 9
374 1 -16.0136 3.64964 -1.18647 17
375 1 -4.76699 -5.41594 -3.51563 19
376 1 11.3403 6.15058 13.8444 17
377 1 14.9872 6.28013 -2.64041 16
378 1 -15.1446 8.25803 -10.1407 13
379 1 7.32339 19.0326 4.86486 10
380 1 -16.7979 8.33795 -6.60912 12
381 1 -2.09908 14.284 3.87127 19
382 1 -12.7194 10.6368 -2.00289 20
383 1 -2.99381 11.3495 6.52293 18
384 1 13.5879 1.03485 13.3257 8
385 1 13.0447 -1.29302 -2.89493 21
386 1 2.61178 -1.8137 14.0786 13
387 1 17.5602 1.11273 -9.51752 10
388 1 -4.56144 -14.0867 -6.27789 12
389 1 -6.61082 17.0796 -1.37732 17
390 1 -0.24102 -8.31089 -9.1231 18
391 1 0.592436 14.0316 2.21539 18
392 1 -7.22864 5.69213 -3.42814 18
393 1 7.64463 -7.00917 -3.65865 20
394 1 10.6636 1.37832 4.27735 20
395 1 -9.58144 5.51772 -7.75264 18
396 1 -0.402408 -6.6859 4.38154 16
397 1 -3.75436 -2.11795 9.93151 23
398 1 -5.69816 12.19 0.753032 19
399 1 -6.44003 -8.81612 -3.28663 19
400 1 4.95009 11.6351 16.9867 8
401 1 -10.9077 17.432 -5.11408 11
402 1 -1.04886 19.0411 -8.04732 13
403 1 12.0713 13.6273 8.69497 15
404 1 -12.6196 -6.80389 -0.473075 13
405 1 -1.99727 -4.98876 -1.63289 19
406 1 -12.6634 2.02563 6.21758 20
407 1 -9.82526 16.153 -7.62037 13
408 1 11.1711 -5.0763 6.90549 13
409 1 -3.02606 -6.48486 -5.77073 14
410 1 11.3248 6.03199 7.09683 18
411 1 6.32649 10.2363 -7.76448 22
412 1 -6.87051 5.78614 -16.2195 15
413 1 -1.25015 13.2091 -7.00585 21
414 1 -3.28315 15.8336 -5.87286 16
415 1 -2.5706 -12.5463 -3.4223 17
416 1 11.6462 6.42091 3.69432 20
417 1 -0.0256367 6.62767 -11.3394 20
418 1 -3.26283 6.64589 9.86117 20
419 1 -15.8277 3.30368 4.41503 18
420 1 -7.35602 8.48888 5.73791 22
421 1 4.00071 -12.8286 4.83337 13
422 1 -0.299362 -5.66596 -11.5631 20
423 1 4.40022 -8.44118 -10.9072 23
424 1 -1.0261 -2.56745 3.33878 21
425 1 -16.4336 6.37229 5.97525 13
426 1 -15.3728 0.758466 8.42908 9
427 1 -14.8592 15.5019 -1.47444 11
428 1 2.0899 -2.79345 8.31864 18
429 1 -5.60269 3.07383 -16.4499 17
430 1 9.11768 -3.80791 -9.22266 18
431 1 -2.68547 -2.46845 -9.74151 20
432 1 -4.62533 2.76223 6.81862 20
433 1 2.07629 -6.62549 -10.026 22
434 1 -8.41027 1.00075 -13.9373 16
435 1 9.76847 -5.78213 3.00459 15
436 1 5.19077 17.2551 3.01499 18
437 1 -9.29511 17.1109 0.458703 13
438 1 -3.64168 -2.40341 13.4833 11
439 1 -11.1293 -2.93012 -10.1569 13
440 1 -8.42259 -5.70911 10.0649 14
441 1 10.639 1.72539 6.9029 19
442 1 5.6114 6.59051 -0.229072 22
443 1 -5.88746 8.92801 1.81246 19
444 1 8.23378 4.63375 -6.53061 20
445 1 9.4516 -3.51474 4.68406 18
446 1 13.3494 12.842 -2.92662 17
447 1 -6.99499 7.63575 13.9256 15
448 1 2.17867 10.4865 -0.791796 21
449 1 4.81203 -4.18766 1.29935 19
450 1 0.737377 -14.1379 -7.37775 12
451 1 0.0440927 11.3955 16.2825 12
452 1 -1.65715 16.7341 2.19353 21
453 1 -11.0411 -6.7274 -5.4851 15
454 1 14.9479 11.8048 -5.27515 15
455 1 3.47087 12.2477 5.39977 21
456 1 -11.7899 5.38742 7.43313 21
457 1 -5.04314 -5.25474 -8.50322 17
458 1 -11.3651 5.28346 10.535 13
459 1 -6.05504 1.08326 -9.58572 18
460 1 -4.05831 19.3252 2.06762 17
461 1 -5.46128 -11.1505 -7.23713 16
462 1 -10.3447 -6.68308 -11.3627 8
463 1 -6.66173 -6.86958 5.14331 18
464 1 -9.65445 3.86701 1.51381 18
465 1 3.55707 4.86495 7.73005 23
466 1 2.85291 -6.13692 8.57005 17
467 1 -12.1678 12.3338 -13.1936 7
468 1 8.86198 6.6491 -1.77414 20
469 1 -10.0292 -7.79168 -2.52573 19
470 1 2.11632 9.64245 -7.12654 23
471 1 0.938317 22.0839 0.205999 7
472 1 1.2898 6.68642 -8.30855 23
473 1 -6.82569 15.1474 8.76675 15
474 1 -17.0887 6.37227 -2.82072 11
475 1 -2.16494 20.6896 3.87161 9
476 1 7.01643 18.3518 -10.4434 8
477 1 -7.53945 -8.73132 -8.364 15
478 1 0.189287 6.59652 12.3669 21
479 1 2.70156 -12.3566 -7.42029 15
480 1 -5.15702 0.58314 -14.1127 17
481 1 13.3012 -10.671 1.6229 6
482 1 -13.5645 13.0809 -0.491572 17
483 1 -4.30924 6.83022 13.0471 17
484 1 12.6616 11.3603 -6.82592 18
485 1 -0.759585 14.4496 -0.590223 22
486 1 -6.38449 11.7576 -15.6531 10
487 1 9.24295 4.92303 -9.95229 20
488 1 1.24815 -3.11211 1.14048 20
489 1 -11.5084 -9.94545 -0.404722 12
490 1 4.9622 19.452 7.29202 11
491 1 -7.59443 4.57866 -10.6229 21
492 1 13.1452 8.61924 -6.21782 20
493 1 4.14222 17.0976 -11.0233 12
494 1 6.68546 -1.33845 -3.0059 20
495 1 18.1793 7.91154 -1.49568 8
496 1 4.94297 4.89879 -13.7848 20
497 1 3.6747 -6.93782 3.75969 17
498 1 -1.39153 -11.1357 -0.484012 21
499 1 10.6885 -1.88487 7.63026 17
500 1 -12.4067 9.83004 -11.1478 17
501 1 -3.17106 -11.7436 5.56264 11
502 1 3.10064 -5.08353 -13.2548 17
503 1 13.6516 14.4301 3.51722 11
504 1 -4.63486 7.50075 -14.7395 19
505 1 -0.27225 -0.0811816 14.0341 14
506 1 -15.36 3.40963 10.8177 5
507 1 2.31733 -11.5715 -1.50273 14
508 1 -14.3366 4.47152 -3.3594 18
509 1 13.8745 -1.68876 -6.18856 16
510 1 12.7036 10.1316 -4.0397 20
511 1 -5.38931 11.6787 -2.05248 19
512 1 1.44561 -6.29726 -6.73939 19
513 1 6.00939 6.72245 -6.94364 21
514 1 9.18847 -1.94588 -13.8103 20
515 1 -1.6728 3.47559 12.4195 23
516 1 13.6624 11.449 4.49087 16
517 1 -6.49494 0.310476 -16.8834 15
518 1 7.08717 0.0558028 -15.2083 18
519 1 -12.5222 -0.630229 0.768133 19
520 1 -2.74819 11.8222 -0.915608 21
521 1 -10.2353 4.87608 -16.3131 10
522 1 -16.8505 0.799429 0.763961 13
523 1 1.32 -7.76873 -12.8696 17
524 1 -5.00231 -7.85761 10.0844 8
525 1 2.35755 8.22352 -11.3116 20
526 1 16.1369 1.74239 6.94025 13
527 1 16.0903 9.75752 -7.3258 11
528 1 -9.00932 -8.6034 4.55937 15
529 1 -1.19146 -2.68222 -4.09402 15
530 1 -5.92114 0.267041 -19.6943 8
531 1 -13.55 4.6605 5.01672 23
532 1 4.7162 -2.06102 -5.28948 21
533 1 -0.254433 11.6946 -2.76912 22
534 1 11.0482 0.759643 -2.92861 18
535 1 1.55453 17.7148 -9.32824 15
536 1 3.44617 -0.436458 -2.36784 22
537 1 12.9483 6.03543 -5.60942 20
538 1 -1.21624 17.2583 11.1893 15
539 1 -8.75052 8.85687 2.86269 18
540 1 5.08542 17.3618 12.667 6
541 1 8.92377 0.760592 9.16799 17
542 1 -2.49937 6.13187 -20.9633 7
543 1 -4.76076 -1.27977 -8.04752 17
544 1 2.48712 7.69449 11.1069 23
545 1 11.8421 15.3479 5.73149 12
546 1 6.46884 9.21959 -11.0784 21
547 1 -5.67794 16.3044 -8.61013 15
548 1 -2.81781 13.9427 1.27459 20
549 1 13.4811 1.55905 9.75942 15
550 1 12.1061 6.32382 -10.1148 17
551 1 13.9095 -4.57403 -3.78111 11
552 1 12.5208 11.6877 13.2498 10
553 1 -14.5101 -4.39928 -1.90883 9
554 1 -7.2659 9.08143 -14.7619 19
555 1 -5.22432 5.62515 5.22612 22
556 1 -6.11553 2.11817 12.5331 15
557 1 -3.98598 13.6933 -13.7452 13
558 1 7.81139 -5.81744 -6.89445 21
559 1 2.89467 -1.25477 -7.84827 21
560 1 -3.0334 21.0906 -6.62343 11
561 1 -9.46208 0.721446 -8.39937 21
562 1 2.048 -6.69869 5.98332 15
563 1 -12.8898 -3.52039 0.407664 19
564 1 -1.44864 8.88898 -16.6141 13
565 1 -12.8716 11.9697 -4.6545 16
566 1 0.703265 15.5386 9.86216 19
567 1 -11.1046 -6.02833 8.19386 11
568 1 12.0757 15.9418 -3.20282 12
569 1 2.47749 -2.5772 -15.4875 12
570 1 2.53083 1.64894 12.0713 19
571 1 11.1841 8.55943 -8.64948 18
572 1 -13.0402 5.61958 1.96606 21
573 1 4.5868 9.32264 14.2713 17
574 1 3.97438 15.2913 -5.5611 21
575 1 11.9586 -2.04332 -8.36319 18
576 1 2.07322 10.9199 12.8426 18
577 1 7.66026 4.6564 -16.3743 12
578 1 -3.81416 -7.01892 3.02181 16
579 1 -1.08045 7.10902 -14.3852 19
580 1 7.33962 3.2267 -14.1716 20
581 1 10.8302 15.6257 2.74092 15
582 1 9.64623 7.30571 -5.08929 21
583 1 -2.09454 3.38763 -11.3319 16
584 1 -6.47862 -3.42037 -5.81867 18
585 1 -13.2563 -1.6759 -7.3901 15
586 1 17.712 2.26062 1.50692 9
587 1 13.8684 14.8136 -5.75313 14
588 1 2.732 -3.7699 -10.6823 19
589 1 15.5157 6.06731 6.30691 14
590 1 5.46901 -6.43219 -12.8608 19
591 1 7.27807 12.2959 -10.4673 19
592 1 12.1521 14.831 -0.0131557 17
593 1 -7.28087 6.36452 2.84283 22
594 1 9.28091 7.55642 15.6862 14
595 1 11.3385 1.68847 -10.2525 21
596 1 15.7507 3.65761 -1.69677 17
597 1 9.50687 9.55677 -13.8008 11
598 1 4.67868 7.84768 9.16685 20
599 1 15.8295 5.92025 11.3453 8
600 1 3.33329 -0.330246 5.08129 16
601 1 12.9587 9.46757 2.62678 24
602 1 5.6406 7.22998 2.97351 22
603 1 0.884857 8.85907 15.5753 16
604 1 16.7121 3.38041 -7.72476 15
605 1 6.75924 5.02807 6.02819 20
606 1 -10.598 3.00041 -9.79112 21
607 1 11.2023 7.54374 0.649489 21
608 1 9.69341 -2.0869 -1.48249 20
609 1 -1.77914 -2.35841 -0.176624 21
610 1 -12.8138 13.9077 2.94364 13
611 1 9.33835 14.5738 10.2496 14
612 1 7.50318 2.62602 8.10784 17
613 1 4.74308 14.0593 7.76366 20
614 1 -2.30284 17.2487 8.61005 16
615 1 3.90836 3.96638 4.32985 24
616 1 5.76258 -13.4386 2.32246 12
617 1 -5.74384 14.4972 -3.82473 21
618 1 9.39067 13.9666 -7.69612 22
619 1 10.6257 5.37858 -7.58169 20
620 1 8.71118 12.4695 4.22948 20
621 1 -3.24793 -8.35736 -2.85335 18
622 1 12.5079 -3.2425 -16.2742 10
623 1 -15.6674 12.3198 2.41739 14
624 1 -1.94562 9.15247 -11.5869 17
625 1 -0.389198 -14.7458 2.51178 10
626 1 -7.3316 3.44277 -14.5314 18
627 1 -18.1531 7.06071 0.112085 11
628 1 11.8499 -3.85267 1.78224 19
629 1 13.2292 8.6744 12.075 14
630 1 5.01996 -11.0523 6.67523 12
631 1 -16.0923 4.91994 -5.62644 12
632 1 5.14249 2.91766 -16.2445 15
633 1 5.23686 -7.5476 6.53532 18
634 1 -3.12597 10.6712 15.8123 17
635 1 7.67038 15.5051 -11.5078 12
636 1 8.3991 1.86508 14.6485 14
637 1 9.27173 10.7571 -9.29862 17
638 1 12.7381 12.5767 1.1937 14
639 1 7.76679 -6.98167 -9.96742 18
640 1 -10.5404 -3.03097 9.18414 14
641 1 16.1307 -1.09192 5.07237 9
642 1 -0.165077 20.1138 8.20175 11
643 1 4.60586 14.01 -11.5369 15
644 1 -8.99801 13.8568 -4.90659 17
645 1 12.7644 10.7518 7.4105 16
646 1 -8.52184 -9.80226 -5.50928 17
647 1 14.7658 -2.37884 2.89684 18
648 1 7.29183 17.7595 -0.907684 12
649 1 -2.21024 14.5271 12.5247 16
650 1 -8.27172 1.83396 -1.43714 21
651 1 -7.79603 3.06149 -8.12468 20
652 1 7.63373 -1.08524 14.4914 11
653 1 1.89393 -7.237 11.3091 11
654 1 8.84068 4.41649 15.9465 11
655 1 -3.79053 12.6579 -5.42995 19
656 1 10.4833 8.59783 8.27055 18
657 1 6.89773 -0.751562 0.241616 18
658 1 4.6996 7.06818 6.29019 17
659 1 -4.95781 -6.39676 -14.0436 11
660 1 -6.29784 5.86903 7.97752 21
661 1 7.80587 2.68146 -11.02 21
662 1 0.632427 -3.45138 -9.41001 21
663 1 10.102 -8.22059 -6.58549 17
664 1 6.99662 11.1638 6.93278 22
665 1 4.63151 9.57778 4.72155 18
666 1 -3.68553 2.74704 14.9716 12
667 1 9.87673 11.3944 7.55523 20
668 1 1.70916 4.18216 13.4872 20
669 1 -1.58418 13.8432 15.6746 14
670 1 -1.72626 1.6378 -14.0924 17
671 1 -8.65644 6.3892 8.64511 21
672 1 1.76546 10.3717 9.81281 22
673 1 0.348332 -13.4759 5.7535 11
674 1 16.0729 10.5037 -2.06853 10
675 1 6.20078 -11.4047 -7.10034 14
676 1 -1.06358 8.09753 -8.04652 21
677 1 10.5347 16.0788 -6.11441 14
678 1 14.3125 13.076 6.7741 12
679 1 2.45515 2.91775 -14.868 22
680 1 -0.82084 -2.0534 9.24186 20
681 1 3.36828 12.4857 2.12979 17
682 1 16.253 9.07836 4.6957 10
683 1 -5.17875 -1.78648 0.344468 19
684 1 0.171397 2.56785 -21.1854 7
685 1 -12.8468 17.7147 -2.37077 10
686 1 9.18407 -7.09018 -12.9494 17
687 1 7.62034 9.74961 3.79507 22
688 1 10.0171 13.5726 -10.5952 15
689 1 13.2192 9.36222 -0.850884 23
690 1 -3.72152 8.37438 4.03815 21
691 1 -8.07383 14.1366 -1.40036 21
692 1 4.91567 12.7072 -3.98936 23
693 1 5.61008 3.73281 12.7464 22
694 1 6.34934 1.73697 16.7059 10
695 1 5.79879 -3.42553 13.4949 11
696 1 -5.96599 8.92226 -17.5022 12
697 1 2.56841 19.7261 8.56241 13
698 1 9.61505 -3.99192 -16.2989 15
699 1 1.67557 7.78143 7.95081 20
700 1 1.86849 17.6052 -6.40102 15
701 1 7.25565 8.68681 6.81731 20
702 1 14.8455 -3.30497 -0.767321 16
703 1 4.85809 10.6066 11.1943 21
704 1 -14.6468 0.187744 6.13127 15
705 1 6.06578 -6.05029 -0.416412 17
706 1 3.05195 1.68333 -9.12007 18
707 1 -12.1919 17.3709 0.303799 12
708 1 -0.833418 7.53546 5.92182 21
709 1 8.28044 1.87266 -4.88609 20
710 1 5.39694 16.8106 6.80156 19
711 1 -11.8164 -5.36702 2.7162 16
712 1 -4.42759 7.90699 16.3008 14
713 1 -3.73405 6.40297 -10.6843 21
714 1 -8.93959 9.20145 -11.8337 22
715 1 10.8958 -5.72663 -4.59177 16
716 1 7.78062 12.0947 -5.57604 19
717 1 7.79808 -4.7615 7.25485 16
718 1 -7.74554 9.21411 -1.31644 17
719 1 -8.85104 4.95315 11.9201 16
720 1 11.1945 -0.390081 -16.1057 12
721 1 6.55544 -5.5353 4.56574 18
722 1 -1.15294 17.0686 -2.42403 17
723 1 -1.04418 11.3037 13.3072 23
724 1 -4.3773 -7.12152 -10.8872 15
725 1 -7.06768 -7.34404 -11.6609 12
726 1 -0.517213 -11.299 -8.37186 20
727 1 0.0953518 18.873 -0.867186 18
728 1 9.30763 -0.496628 -9.3772 20
729 1 0.584442 20.2456 11.6136 6
730 1 5.42014 -3.49827 -10.903 18
731 1 10.7149 -9.1 0.194205 18
732 1 8.11597 -4.66884 10.2319 10
733 1 17.7759 4.51805 -10.6603 8
734 1 -0.322289 -7.14565 -3.95625 15
735 1 -8.48341 0.227165 5.81325 20
736 1 2.36927 4.85655 -10.9187 19
737 1 -1.34465 -14.4476 -0.919012 17
738 1 -8.57717 -10.5108 -2.28253 14
739 1 -14.7377 6.43084 9.11962 12
740 1 -2.12897 -9.73309 -5.4739 16
741 1 17.2218 8.26563 -10.2464 11
742 1 -4.25367 21.4809 -3.14162 11
743 1 -8.18387 11.6697 6.59373 21
744 1 -10.5296 6.34903 3.90974 22
745 1 10.1754 3.87207 -1.96288 18
746 1 -12.6998 3.22071 -12.054 15
747 1 -3.13011 10.6473 -3.62951 22
748 1 11.3838 0.301763 -6.78907 18
749 1 6.2565 14.2838 12.0472 14
750 1 7.68767 9.09426 -4.07965 22
751 1 -16.6824 11.4623 -5.48231 14
752 1 -10.39 0.0898845 -5.37357 17
753 1 -2.03681 5.64845 15.5006 17
754 1 3.05234 15.3875 -8.62357 22
755 1 13.9957 11.0543 9.98536 10
756 1 -3.92621 8.15668 7.33505 21
757 1 2.21819 -12.1699 2.72676 15
758 1 -0.796063 -11.0085 7.32012 12
759 1 0.267611 -1.4658 5.83707 15
760 1 10.5617 11.6172 10.6407 19
761 1 7.6823 -5.12642 -14.6067 22
762 1 -15.88 9.78413 -0.2195 19
763 1 6.1315 12.1039 2.35317 20
764 1 -7.75061 -0.714708 -0.319303 24
765 1 9.66809 12.8309 -13.1686 9
766 1 -1.73213 -14.934 -5.33314 10
767 1 8.71641 -14.6694 2.79054 6
768 1 0.811363 -14.2762 -2.66108 14
769 1 4.04155 8.07351 -8.67875 21
770 1 15.3063 12.6053 -7.94315 11
771 1 -5.77077 2.98678 -19.4255 11
772 1 -1.84539 8.28862 14.2355 21
773 1 1.49278 7.66277 -16.8334 12
774 1 -12.7367 5.55524 -14.8446 11
775 1 -9.57232 -3.32886 -4.53791 19
776 1 -0.375434 19.1118 -5.09227 13
777 1 7.41295 3.97055 -0.397594 21
778 1 -3.36133 4.67686 -14.5972 19
779 1 -5.57638 3.07675 -6.31694 16
780 1 9.80909 10.342 -6.17608 21
781 1 11.7249 -4.20269 -1.69267 18
782 1 -6.19523 10.9329 14.9338 12
783 1 8.91464 -0.529017 5.46296 20
784 1 14.4423 -5.82801 1.32445 13
785 1 10.8279 3.77517 9.29746 17
786 1 -1.487 14.0601 8.47525 19
787 1 -9.91149 2.96451 8.90513 20
788 1 -11.7814 8.01334 8.98529 17
789 1 2.53693 -11.6366 7.59963 12
790 1 7.08143 4.38367 2.96539 21
791 1 6.17511 6.2298 15.4485 13
792 1 -17.6982 4.01964 1.57679 12
793 1 15.8732 -6.36353 -1.61191 8
794 1 -14.3068 16.426 -4.73275 12
795 1 2.28835 10.1643 2.9664 21
796 1 8.0362 -10.1184 6.23134 10
797 1 3.06256 5.37039 11.2299 23
798 1 1.26768 17.0953 0.750476 17
799 1 1.34758 -8.68594 2.22192 16
800 1 -12.5337 4.41525 -5.97182 15
801 1 -0.672155 12.347 10.2978 17
802 1 -10.1175 -6.27191 0.319074 23
803 1 2.16463 13.7909 16.039 9
804 1 8.62498 13.4039 0.344842 18
805 1 -9.18515 -5.82282 3.68353 19
806 1 1.91203 -14.2034 0.613092 13
807 1 7.22112 2.13643 4.95871 21
808 1 5.02505 -4.22653 7.26729 18
809 1 6.57897 16.5094 9.70866 16
810 1 -0.770902 9.98664 -5.52262 22
811 1 1.60803 -10.0149 -10.707 21
812 1 3.83976 11.1176 -9.52958 23
813 1 -1.94862 3.16522 9.18035 21
814 1 3.63636 18.5223 0.702213 14
815 1 12.6558 3.66967 3.48055 22
816 1 2.42964 14.29 -1.52272 17
817 1 -4.64048 13.1558 14.5289 11
818 1 3.34335 13.3355 10.582 22
819 1 13.5921 -1.72234 -13.9935 14
820 1 -4.50978 -6.56672 -0.247769 18
821 1 -3.9438 6.11421 -7.84631 19
822 1 16.9 -0.0517143 -1.11721 10
823 1 0.53497 -2.91523 -6.65436 17
824 1 -3.34871 10.7657 9.62239 19
825 1 9.35398 -10.5426 -8.08331 14
826 1 9.82277 6.46811 -15.1181 13
827 1 4.55441 -3.18178 -1.43893 21
828 1 10.4494 3.82812 -12.413 18
829 1 15.1652 3.99371 -5.02601 15
830 1 4.37078 -2.73715 10.5971 20
831 1 -2.86183 -10.0792 -8.59377 16
832 1 11.9975 11.1812 -10.7472 14
833 1 4.2456 -3.28751 4.10898 18
834 1 -16.6575 12.2582 -0.375672 12
835 1 10.8166 4.02506 -5.20155 19
836 1 15.1816 3.95105 1.80239 16
837 1 5.41349 -2.52434 -17.1778 13
838 1 -5.54969 10.8609 4.23988 20
839 1 15.0914 6.20738 3.44797 20
840 1 12.559 14.6039 -8.41081 13
841 1 -0.155729 -1.23399 -11.6616 18
842 1 7.79965 1.77868 1.49999 21
843 1 -8.09793 11.4725 -3.04754 19
844 1 9.59438 10.559 1.66565 17
845 1 -9.49422 -11.78 0.718573 8
846 1 -12.2237 10.0667 -7.33864 18
847 1 4.18849 10.6413 8.16029 25
848 1 -13.1252 1.08467 -6.18939 16
849 1 -7.94215 5.24633 5.55764 18
850 1 -1.2428 4.79257 -9.10696 17
851 1 8.22345 -0.669127 -6.17992 20
852 1 -13.6666 -4.05455 -4.80903 12
853 1 12.0668 -7.14191 1.84527 17
854 1 -15.1508 6.48965 -0.347906 21
855 1 -4.69215 3.69668 -9.72759 19
856 1 8.46581 6.22127 7.82281 21
857 1 -4.48983 -2.28808 3.97799 17
858 1 1.91615 7.00765 14.4913 18
859 1 17.0459 -1.39734 1.19705 9
860 1 9.39985 -1.49829 1.91653 22
861 1 -10.5062 12.426 -1.73219 14
862 1 0.387298 16.2466 7.31333 20
863 1 4.07862 8.73128 -14.7277 14
864 1 -1.8426 -7.15923 -13.8585 14
865 1 -11.6471 13.9529 5.2845 15
866 1 -6.62346 -3.72061 5.9931 19
867 1 9.45355 14.9448 -2.40438 17
868 1 0.650528 14.2004 12.6787 19
869 1 14.7763 0.46236 -8.05548 18
870 1 7.79195 -1.69342 8.57385 16
871 1 -0.230227 12.3756 -11.3386 19
872 1 2.02354 13.3233 -13.915 12
873 1 -4.27896 1.4395 10.1889 21
874 1 7.73165 9.32983 9.60522 20
875 1 -3.44869 -3.12445 -6.39901 16