ITEM: TIMESTEP
19000
ITEM: NUMBER OF ATOMS
1500
ITEM: BOX BOUNDS pp pp pp
-30.0 30.0
-30.0 30.0
-30.0 30.0
ITEM: ATOMS id type x y z Coordination
1 1 -4.69965 -7.88084 -4.36281 17
2 1 5.13595 -9.57963 8.33266 22
3 1 -14.2263 4.70315 -0.166445 8
4 1 -8.37782 -3.68211 -11.638 14
5 1 5.52407 -11.1409 11.474 11
6 1 -7.22955 -6.86963 -11.1068 20
7 1 -3.52864 -17.2754 -0.718587 13
8 1 -13.0575 -7.77716 -1.64849 10
9 1 0.528147 -3.12276 15.9605 17
10 1 9.16315 -4.42521 3.7324 17
11 1 5.07544 1.9248 13.0849 16
12 1 10.9898 -2.26585 2.18994 23
13 1 -2.77523 6.42881 -8.21525 23
14 1 3.1578 -7.06136 14.5168 12
15 1 16.1358 3.49066 9.79826 9
16 1 -1.04848 4.46888 -10.0754 19
17 1 1.0573 5.46585 -14.9517 10
18 1 -6.41586 -3.11479 -1.60827 17
19 1 -1.78922 -5.1543 -6.19152 19
20 1 8.61158 -15.1309 5.16052 10
21 1 1.65878 -1.50956 6.5882 21
22 1 14.4641 -12.0151 -0.132154 11
23 1 -3.79956 -15.9791 -9.27094 11
24 1 4.89639 -6.35402 -2.49199 19
25 1 5.05491 -7.23445 -8.86291 18
26 1 2.45964 -2.08481 10.1545 17
27 1 0.620989 -11.5636 2.77913 16
28 1 0.762408 -7.49332 10.6613 20
29 1 -7.15468 -1.31424 0.691483 23
30 1 -5.88879 -0.3668 -3.07669 22
31 1 -6.43653 8.66185 0.0327722 23
32 1 2.12439 1.79933 -11.678 20
33 1 7.2831 -11.1349 -5.65542 20
34 1 -4.35928 -4.60489 14.3617 18
35 1 -12.0817 6.95426 -1.6796 14
36 1 7.34315 10.3652 9.71963 12
37 1 -10.385 4.65237 0.112451 23
38 1 0.425701 13.8935 -5.66312 6
39 1 5.11479 -13.3397 6.00478 15
40 1 5.63083 -8.85458 -3.39856 21
41 1 -2.33996 0.583042 13.1461 22
42 1 -9.44973 -5.96021 -9.23787 13
43 1 9.6329 -1.06268 4.6173 23
44 1 -6.38767 2.30564 -9.72138 19
45 1 -9.72577 -8.88266 8.71655 16
46 1 -7.84388 3.69442 -7.02641 19
47 1 -1.45336 0.761929 -11.7109 19
48 1 5.35336 3.69316 6.46857 21
49 1 4.9439 2.99533 9.61203 21
50 1 10.097 -11.0905 -3.98496 20
51 1 6.52441 0.304272 10.5593 18
52 1 8.41493 -3.76586 -14.8221 8
53 1 8.29097 -10.485 9.21338 12
54 1 -9.11917 -2.25735 3.37015 19
55 1 7.95314 -7.0422 9.3312 20
56 1 -1.28898 -8.94132 7.86509 17
57 1 -9.21796 4.2011 -2.97335 18
58 1 13.4862 -2.12765 9.65365 18
59 1 9.08749 -4.17023 -0.218548 21
60 1 2.49937 7.19635 12.9798 9
61 1 2.84945 1.11771 11.1245 19
62 1 -6.61658 -7.07803 5.55938 20
63 1 -4.07597 -11.066 -5.22269 18
64 1 -5.02979 7.17457 2.69054 18
65 1 -6.3208 5.7559 -12.0218 11
66 1 6.6104 1.82092 -6.10616 22
67 1 6.95058 -5.42755 -4.7753 21
68 1 15.9204 -5.1469 1.92248 17
69 1 0.323784 -13.4924 10.0728 13
70 1 -5.46246 11.1712 -6.29727 12
71 1 -5.73805 9.90046 6.54228 15
72 1 0.11892 5.38278 9.36537 15
73 1 -9.09146 -11.5775 9.84371 9
74 1 15.7371 -5.08875 -4.13723 17
75 1 -13.0019 1.14157 5.29149 9
76 1 11.6207 -3.25723 -1.07662 19
77 1 7.97474 3.67644 -11.1522 15
78 1 -5.7466 -2.57957 -15.1429 14
79 1 -3.09743 9.39846 1.54179 17
80 1 -6.65586 -1.59913 -12.7424 20
81 1 2.06844 11.8096 -6.0321 12
82 1 1.31935 12.9038 0.213508 13
83 1 -2.79495 -6.28817 9.32963 20
84 1 8.02774 -9.25741 -8.80058 16
85 1 9.68965 -12.8659 -6.77548 11
86 1 4.47283 0.0854697 8.05667 21
87 1 -6.44976 -6.02143 -2.42844 18
88 1 7.58141 -5.90285 1.22254 22
89 1 -10.0525 -7.26722 -1.81155 18
90 1 7.83705 -10.6647 3.39469 22
91 1 -5.93513 3.2619 3.37854 23
92 1 7.63944 -1.09593 -13.7837 14
93 1 1.37191 3.908 -5.55411 24
94 1 13.8142 -11.7378 -3.09142 11
95 1 0.442758 -11.0465 9.01359 21
96 1 -3.60705 -12.4238 -2.59799 19
97 1 -12.4689 -9.2455 7.26516 9
98 1 12.354 1.04054 9.14449 18
99 1 9.37342 4.66682 -1.55314 19
100 1 0.193358 5.16834 13.7356 13
101 1 -9.6664 9.52154 -4.21389 10
102 1 0.951321 -10.5619 -9.59072 16
103 1 13.7305 -9.10818 4.58785 14
104 1 -2.17891 4.31751 -4.74492 21
105 1 15.5622 -0.766162 -7.53137 17
106 1 -6.54228 8.63055 -4.25384 20
107 1 -1.93965 13.1617 0.679968 17
108 1 6.75644 3.22084 -8.34199 21
109 1 7.48877 -12.0381 5.5453 18
110 1 -5.54835 6.76067 -2.22273 22
111 1 5.01171 8.33073 -3.25041 20
112 1 11.415 9.28843 0.632978 10
113 1 -9.23529 7.45685 -6.01967 14
114 1 -9.26951 -6.07652 -13.661 8
115 1 1.89728 7.89289 9.49451 15
116 1 -13.4013 -3.33761 -6.13307 8
117 1 13.4207 -0.782113 -2.58285 19
118 1 -2.38666 6.60694 11.8134 8
119 1 -4.31445 8.84069 -8.74257 14
120 1 2.70457 -4.19913 7.30531 19
121 1 -9.85481 -9.18713 5.72325 21
122 1 -3.34074 -11.1078 3.41724 19
123 1 6.66166 -14.4867 -5.52642 16
124 1 -5.71842 5.33958 -9.08982 21
125 1 3.41344 6.65967 -5.25969 18
126 1 11.7408 3.35446 -5.74331 21
127 1 -2.59798 -11.9779 10.5689 14
128 1 -6.26778 1.82657 -0.346023 20
129 1 3.39042 11.0355 1.9944 18
130 1 9.68025 6.77801 13.6739 9
131 1 -3.05537 14.7634 2.73522 10
132 1 -8.01573 -8.22845 -3.52087 20
133 1 13.201 -6.00298 -1.85717 17
134 1 -4.28734 -4.97147 6.24082 22
135 1 -9.62516 -2.78395 0.855826 20
136 1 -10.525 -13.5888 2.95965 12
137 1 -10.9441 1.91016 -4.56275 19
138 1 -1.2532 -15.7675 0.141132 18
139 1 -4.22345 -3.59927 -2.8447 21
140 1 9.26457 -8.62953 -3.47904 23
141 1 2.01963 4.03374 9.8609 18
142 1 -6.07531 0.701088 5.4792 20
143 1 -3.6943 3.21721 -8.40163 21
144 1 -9.12283 3.53312 -9.68854 15
145 1 -9.57128 -8.84294 -10.1163 11
146 1 -6.54862 2.89394 11.1157 15
147 1 -4.53426 -8.66944 7.33594 17
148 1 2.39702 -14.8453 4.26008 11
149 1 18.0808 0.791278 7.63357 11
150 1 8.99369 -2.31455 -11.2751 17
151 1 5.36697 -2.80666 10.2171 19
152 1 3.85555 -0.585858 -13.0822 18
153 1 7.13403 -3.30701 -8.37467 15
154 1 -6.69925 -9.13418 -8.82978 17
155 1 -6.11852 7.58969 -6.78736 20
156 1 -7.11336 10.6681 -2.72998 15
157 1 10.3895 3.52369 9.45703 19
158 1 0.125227 -13.8051 -12.5226 13
159 1 -8.52381 7.00368 -9.33385 11
160 1 3.28379 -1.38441 -10.2679 17
161 1 -3.5904 0.781098 7.93277 21
162 1 -4.05115 7.41912 7.51272 18
163 1 1.53628 -11.4268 -6.79907 18
164 1 -7.51664 -16.3746 -4.59662 9
165 1 11.659 -13.2018 -1.96284 13
166 1 8.10108 -9.33398 0.500614 20
167 1 8.8392 4.97533 -6.31816 18
168 1 -3.68492 9.38125 -5.81888 23
169 1 -12.2518 -0.384223 -0.848558 15
170 1 4.61819 6.46842 10.9237 20
171 1 13.6397 -1.30344 0.694283 21
172 1 2.6462 3.57268 4.79696 20
173 1 -7.48599 7.96806 7.78256 12
174 1 -9.28761 -11.3205 -6.88368 11
175 1 2.64348 7.99955 -12.9772 10
176 1 9.11706 -3.98109 9.75704 21
177 1 10.2989 4.06861 -8.67682 14
178 1 3.41177 -13.5357 -1.91031 17
179 1 -0.87843 -12.8706 -16.8717 5
180 1 10.9966 0.0488436 -4.43497 21
181 1 -10.6867 -12.0566 7.30151 13
182 1 -1.53773 -18.3181 -5.00441 9
183 1 -2.7014 -13.7949 -14.1799 9
184 1 7.87107 11.9781 -3.77949 10
185 1 3.75763 -9.82157 -11.1917 17
186 1 7.47559 -5.90394 12.4071 14
187 1 16.6618 0.653774 4.06621 16
188 1 -5.67808 -9.99186 1.6287 23
189 1 11.5817 -7.63341 -7.89573 21
190 1 -1.65523 -6.25798 1.73082 19
191 1 -2.96109 -8.36057 -6.77532 21
192 1 -6.53804 -5.9352 -8.11117 17
193 1 15.5764 0.897044 9.79701 15
194 1 10.5065 -1.53295 7.78993 20
195 1 2.14553 -14.8913 -9.92983 13
196 1 3.5486 -7.38186 4.6894 20
197 1 1.60435 2.00944 -14.7589 16
198 1 4.46087 5.54413 2.18415 21
199 1 -3.26509 -7.91942 4.02328 22
200 1 3.73582 14.1084 3.18479 8
201 1 -7.29094 -4.03069 6.50356 18
202 1 -4.42233 -7.68719 -10.3426 18
203 1 -1.43494 -8.07522 -12.3314 19
204 1 -6.7759 -12.0239 -7.37166 18
205 1 2.86916 -8.98181 1.8833 17
206 1 12.3968 0.0230351 4.88052 23
207 1 -0.508827 -7.44297 -0.246056 19
208 1 -8.88729 -2.44347 8.75552 15
209 1 -2.78706 -11.1361 0.397563 20
210 1 3.54854 -13.4396 1.15325 16
211 1 -4.68427 11.2189 -0.45099 19
212 1 5.78245 -1.81262 -11.1224 21
213 1 -4.35335 -7.76077 -13.5278 17
214 1 0.968125 -16.6755 -4.78066 14
215 1 -1.38176 -15.9896 -7.36326 19
216 1 -7.32836 0.477878 -14.5082 11
217 1 10.0315 1.28821 6.9201 22
218 1 -2.85 -2.06812 -13.4131 22
219 1 0.0203461 3.44294 -12.6661 20
220 1 -2.37173 -4.16371 3.71324 23
221 1 -6.74884 10.6717 3.41514 15
222 1 0.117498 11.1872 2.31385 18
223 1 13.4173 -3.43666 3.21729 16
224 1 -11.7683 -1.30308 3.17758 15
225 1 -5.27711 -11.5691 10.6184 14
226 1 -2.34185 6.46637 4.78666 19
227 1 5.1353 -13.041 -10.996 10
228 1 5.88669 -14.3311 3.44907 13
229 1 -1.14471 -0.6151 16.7227 15
230 1 -11.9476 -7.10548 4.12602 11
231 1 17.3945 1.48584 -6.48198 11
232 1 7.6998 -5.58545 -7.59657 19
233 1 13.5239 -9.36915 -10.0192 11
234 1 -4.9836 -5.71731 2.609 18
235 1 -4.6534 12.1962 5.03622 13
236 1 3.9463 -0.84974 14.045 18
237 1 11.2078 5.69824 8.21154 20
238 1 -5.49017 -1.90601 3.58743 20
239 1 15.5348 -8.97262 -4.41928 15
240 1 -0.681662 7.6248 2.30436 19
241 1 -2.5342 4.17657 3.02296 21
242 1 4.85184 -9.89095 5.63299 20
243 1 16.7378 -8.18577 3.60709 13
244 1 -3.22608 4.5727 7.81955 20
245 1 -8.57338 -1.09907 -4.72591 22
246 1 1.02387 -3.06951 12.9277 21
247 1 1.82919 12.2804 4.69254 13
248 1 -4.07575 0.479436 -11.6084 18
249 1 -2.11615 -2.82682 11.5111 20
250 1 -11.1513 3.38033 2.96986 17
251 1 -2.34531 -6.36778 -3.84072 19
252 1 -6.86465 5.35697 0.15025 23
253 1 7.60043 -1.2224 7.64899 22
254 1 -12.5091 -11.9962 4.94569 11
255 1 4.94676 -7.77124 11.605 18
256 1 -11.1273 6.60973 3.60007 12
257 1 2.37387 -9.80594 13.0835 13
258 1 4.70229 -14.7518 -8.04532 14
259 1 -4.46389 -5.24971 -5.77208 18
260 1 3.53651 3.63361 -13.938 12
261 1 6.13753 11.5282 2.81016 15
262 1 -7.64527 5.63302 -4.35846 20
263 1 5.94441 -5.73145 -14.0264 15
264 1 -7.45326 -15.5967 2.30086 10
265 1 -10.3865 -8.41719 -6.75961 12
266 1 -1.12817 -9.51373 1.84922 18
267 1 9.0211 1.23366 -6.71904 18
268 1 -5.82144 -3.05387 -10.2844 20
269 1 -7.18592 -3.53736 -4.82728 22
270 1 -4.99347 5.87485 9.44832 14
271 1 -7.90819 11.3089 0.498125 13
272 1 0.0450886 2.26365 12.1595 19
273 1 12.7095 -3.44403 -3.92441 21
274 1 10.5398 -1.26574 -9.02473 18
275 1 -3.45609 3.94341 -1.93367 22
276 1 7.24713 -10.9654 -1.45083 20
277 1 -1.92437 11.9181 4.61894 15
278 1 -4.27524 1.90125 -4.10242 22
279 1 16.3631 -10.3687 -1.72766 11
280 1 15.286 -5.15147 8.94445 11
281 1 -11.3534 0.99976 -9.02019 9
282 1 -3.77929 -14.3279 -0.446111 19
283 1 -0.702324 10.0213 -4.42921 18
284 1 -7.42712 -14.4798 -7.67875 10
285 1 -5.22553 4.78461 -5.71617 23
286 1 1.56399 9.24041 -10.0927 12
287 1 10.5677 8.48578 10.4218 10
288 1 -8.29564 -9.22762 -0.776116 25
289 1 -0.844342 -10.4636 -4.43316 21
290 1 -13.1798 -2.82226 0.986732 13
291 1 -10.2353 4.61656 -7.28206 13
292 1 6.06598 -8.5187 2.92647 20
293 1 -0.247113 -15.4917 3.46197 13
294 1 7.22815 6.37015 -9.39033 16
295 1 -12.1695 7.08452 -4.95112 9
296 1 1.10229 -13.6955 0.497263 19
297 1 14.4237 10.7609 2.27917 5
298 1 -1.05071 1.15864 6.35803 19
299 1 -11.7734 -6.39066 -4.56538 13
300 1 -5.79116 5.50681 5.53854 20
301 1 -2.45601 -13.735 4.98144 14
302 1 1.12784 -5.08732 -7.60086 21
303 1 6.22923 -8.18698 -6.00971 21
304 1 -1.39504 -5.33617 12.354 19
305 1 -7.51831 -4.48384 3.40262 19
306 1 0.643985 -6.87317 7.70638 22
307 1 1.60903 -11.5155 -3.70592 15
308 1 2.20914 -12.3448 -11.2966 14
309 1 -4.17541 -5.27346 11.3798 17
310 1 9.01087 -14.6441 -0.951349 15
311 1 -5.28098 3.54342 -14.4871 13
312 1 10.108 -13.1271 4.25483 17
313 1 1.66423 8.76157 -6.68017 19
314 1 -5.92095 -7.93132 13.4866 10
315 1 -5.61471 -6.05907 8.52086 21
316 1 10.5559 -10.1472 5.29107 16
317 1 11.3594 2.26677 -2.18304 21
318 1 -5.72515 2.76975 7.77864 21
319 1 3.766 -4.15355 -12.9485 19
320 1 9.8716 -13.4451 7.67956 9
321 1 18.6503 -0.170999 -4.40864 9
322 1 -3.06615 -3.60055 16.7395 12
323 1 1.4182 8.0895 -3.20979 17
324 1 8.86696 -7.74846 3.64343 20
325 1 -4.78401 -17.9814 -3.69085 12
326 1 2.49837 9.50466 6.81278 15
327 1 -3.23723 -13.0916 -11.2178 16
328 1 7.66615 4.59365 9.21333 18
329 1 -5.89498 -3.01821 10.2645 17
330 1 -5.28345 -8.93155 -1.53304 23
331 1 -9.72595 -0.0901687 6.11195 17
332 1 -3.98879 -13.1415 -8.00838 21
333 1 -0.349825 7.76804 6.80441 18
334 1 -2.47615 -13.3478 -5.42774 20
335 1 -5.72101 -12.54 -12.867 10
336 1 -2.02358 -13.4349 2.23708 19
337 1 -9.39383 -5.50533 8.77361 14
338 1 15.1944 -1.44396 12.1387 8
339 1 -8.15996 -5.86368 11.6494 12
340 1 -9.17342 0.560423 -11.4784 12
341 1 12.8883 4.87238 -1.44731 16
342 1 -9.55968 -15.0731 0.130687 10
343 1 1.49337 1.23616 -8.37544 22
344 1 -1.25168 10.761 -1.23332 18
345 1 -2.92295 6.96895 -11.0198 15
346 1 2.55298 2.41122 7.07318 18
347 1 -11.0683 -0.756408 -6.66816 16
348 1 8.59168 9.11105 -4.50747 14
349 1 1.23845 -9.19403 -12.5672 19
350 1 4.68606 -11.9622 -5.22694 17
351 1 6.34939 -4.93151 -10.9788 19
352 1 -9.92395 9.71495 2.47625 13
353 1 3.04423 4.04443 12.766 21
354 1 8.48205 8.52793 2.09713 17
355 1 0.518704 6.71308 -0.237237 21
356 1 -3.86036 3.73153 -11.7976 19
357 1 4.62766 -0.78783 -7.60693 18
358 1 -0.0252693 -8.19962 4.02188 19
359 1 -11.8214 -5.4341 0.706422 13
360 1 -0.0714279 -3.71611 -15.3365 12
361 1 15.581 4.28632 -1.95542 15
362 1 10.5938 -10.4583 -1.14255 19
363 1 16.7538 -2.59997 1.261 17
364 1 4.67575 -2.65253 -15.1151 14
365 1 4.35963 -10.5935 -0.796303 19
366 1 -0.983083 -10.8028 5.63501 17
367 1 3.13196 -9.94773 10.46 19
368 1 -9.02716 1.18654 -7.01415 21
369 1 4.34978 -10.5629 -8.3442 18
370 1 3.21353 -5.06056 -16.5519 10
371 1 -0.958463 -5.5937 15.1659 15
372 1 -10.3119 -7.34273 1.11972 18
373 1 13.8318 -5.93135 -9.06938 15
374 1 9.55795 -3.15944 -3.48767 19
375 1 -4.39606 11.7956 2.56796 17
376 1 2.90381 -8.82109 -4.78901 19
377 1 10.2136 0.66499 -11.6582 15
378 1 15.1857 -8.07256 -7.35093 14
379 1 -9.59657 -3.52576 11.8982 9
380 1 10.1441 6.54514 3.79046 16
381 1 1.6712 -11.7978 -14.7515 12
382 1 -1.20887 -1.3464 8.02748 22
383 1 -5.95364 13.9378 1.20792 9
384 1 -5.50554 -5.41954 -16.0025 9
385 1 -8.85557 1.10644 -1.9709 22
386 1 -3.15409 -12.3342 7.71257 16
387 1 -0.936066 7.02925 -5.17929 23
388 1 16.3888 0.8489 -1.89749 16
389 1 -10.1629 -11.6467 -1.20535 14
390 1 -0.783919 -13.6781 -2.31435 19
391 1 -3.20775 10.9048 7.80004 10
392 1 0.779327 -2.10914 -8.46511 16
393 1 3.43366 5.14405 -2.95542 23
394 1 17.7864 -1.57588 -1.75268 15
395 1 6.23917 10.9493 -5.93903 12
396 1 4.67722 -11.0979 2.66675 18
397 1 -7.83381 0.973019 8.72752 19
398 1 7.39318 7.57247 11.4494 17
399 1 -0.710922 1.16297 -16.1748 8
400 1 -3.36811 -10.4178 -9.57729 20
401 1 2.65143 -4.73924 10.014 20
402 1 10.5202 5.54166 11.4241 17
403 1 3.99631 3.64892 -7.15359 23
404 1 -10.811 10.2026 -1.10056 11
405 1 -3.79403 9.53695 -2.47726 21
406 1 13.6673 -4.77506 11.8033 10
407 1 15.7354 2.02813 -9.35997 7
408 1 -14.9288 -10.7511 -1.05041 4
409 1 1.22952 0.799464 8.53527 18
410 1 -1.71371 11.8051 -7.05047 12
411 1 9.65105 -15.7325 1.62002 12
412 1 8.78734 -5.89278 -11.8484 16
413 1 -3.24971 11.8026 -4.05606 14
414 1 -6.06555 -10.1952 -11.3539 18
415 1 8.62452 -12.3616 1.14695 21
416 1 -5.37171 -13.0087 2.2026 19
417 1 -2.1506 -1.90534 -10.5637 20
418 1 -6.98755 -8.46156 10.1336 15
419 1 3.79026 7.2167 -0.455063 23
420 1 8.43438 -13.5317 -3.94309 16
421 1 6.25979 -12.477 8.51498 14
422 1 7.21667 -0.0678834 -3.32324 21
423 1 -8.97918 2.43725 5.07134 17
424 1 14.8285 -3.63501 -0.883172 19
425 1 4.23641 9.32575 10.7426 12
426 1 -0.463628 -4.17218 -9.33165 22
427 1 4.46605 11.4815 5.10823 16
428 1 7.73645 -0.274837 -9.01902 19
429 1 -2.9538 -10.461 -12.8842 16
430 1 -1.50352 -11.051 -6.94715 22
431 1 -8.02142 -9.28677 -13.4481 10
432 1 16.4757 2.98698 5.51119 14
433 1 16.8502 0.155981 1.10207 18
434 1 10.7239 -4.38199 -9.04184 18
435 1 12.2303 -9.32703 -3.91385 20
436 1 11.3969 5.64108 1.3116 17
437 1 -7.90568 0.342655 2.97175 21
438 1 14.4888 -0.18811 -5.04153 15
439 1 14.7078 -5.90166 5.35592 17
440 1 8.57838 2.05362 -13.7394 8
441 1 8.25232 -0.91898 12.3465 8
442 1 -0.150115 -8.08237 13.5324 14
443 1 1.86445 -5.45072 17.4052 7
444 1 13.1653 -1.88592 -8.24659 20
445 1 13.5069 3.74817 9.59585 18
446 1 -3.07858 -3.36399 -8.21791 17
447 1 17.0046 3.08101 1.37395 11
448 1 10.8934 -6.0507 2.47907 18
449 1 2.48969 -8.23629 -1.48082 21
450 1 12.0284 -4.82291 8.98364 19
451 1 5.69814 7.44395 8.1626 18
452 1 7.75491 1.83815 4.43184 20
453 1 -1.88166 6.4734 -1.85065 22
454 1 4.79961 7.64289 -10.5143 15
455 1 12.5609 -2.58951 -11.3577 11
456 1 4.1912 10.5726 -1.03733 17
457 1 -2.2724 -16.0009 -3.87599 20
458 1 -10.2201 2.28051 7.3415 12
459 1 -2.51677 2.35799 -14.4149 16
460 1 -6.18446 -10.149 5.03227 18
461 1 -2.524 -4.97399 -10.9917 21
462 1 -13.6489 0.34116 -5.79012 8
463 1 13.354 -11.8641 3.65217 11
464 1 16.1804 6.15642 4.57884 11
465 1 1.80162 -9.35408 6.98227 21
466 1 -8.16952 -3.05653 -14.7103 12
467 1 4.28171 -4.75087 12.742 18
468 1 3.86271 1.92317 15.576 13
469 1 4.06564 6.63124 -8.02088 22
470 1 4.69477 1.34726 -9.11261 24
471 1 2.81306 -16.3041 -1.60655 12
472 1 17.4336 -4.41797 4.31818 14
473 1 13.4263 4.54258 3.47548 16
474 1 15.8696 -7.85589 -0.018701 14
475 1 0.969321 -0.205285 13.8186 21
476 1 -8.23902 -11.8438 1.17967 19
477 1 -8.92582 -3.57877 -7.63425 17
478 1 10.7778 -6.2992 10.5022 13
479 1 -3.34152 -10.7949 13.415 9
480 1 12.252 4.25527 13.791 7
481 1 -9.42405 7.46201 0.982863 20
482 1 14.9999 0.588491 6.1953 21
483 1 10.7514 2.29081 3.69566 20
484 1 0.795716 -6.58366 -14.9999 19
485 1 -13.9236 0.345929 1.57019 10
486 1 3.1511 -4.41929 -9.92328 23
487 1 0.078532 -7.78437 -5.8567 22
488 1 11.111 -5.96324 -3.65483 20
489 1 6.86898 -2.01857 4.83677 20
490 1 7.24087 5.71459 4.08836 18
491 1 14.6555 8.86758 5.41398 7
492 1 -3.10451 -7.84174 13.661 14
493 1 -0.410723 2.40588 15.3334 16
494 1 2.30104 -8.04815 -8.8399 19
495 1 -5.19155 1.7434 13.8243 10
496 1 6.12188 -2.55787 13.3751 13
497 1 18.3537 2.81263 -3.54021 8
498 1 10.0906 -10.198 -7.04514 16
499 1 -4.23316 -1.79659 -5.63614 22
500 1 7.45875 5.65758 0.995293 20
501 1 8.75569 11.8981 3.519 10
502 1 -5.27949 0.0358852 10.0322 20
503 1 1.78929 11.6589 -2.9813 15
504 1 14.803 5.71385 7.21013 13
505 1 -2.40167 -9.19501 -2.02506 16
506 1 -5.18892 -4.77498 -12.7481 23
507 1 -7.73458 7.96959 4.44555 16
508 1 9.99646 -8.88964 -11.1198 11
509 1 9.99121 2.57613 1.13274 15
510 1 13.3825 0.618777 -10.2701 18
511 1 11.6702 3.15283 -11.3242 10
512 1 -0.616649 4.58524 6.1429 19
513 1 -4.33301 3.7386 1.14548 20
514 1 7.15888 5.708 -3.32349 20
515 1 -0.09832 -10.7796 12.1413 16
516 1 -2.05321 5.45413 -13.7004 15
517 1 7.00959 11.4952 6.95804 11
518 1 4.84029 -3.06588 7.2512 19
519 1 9.79229 11.1979 -1.43901 9
520 1 11.2807 9.0607 3.26217 14
521 1 17.3702 -2.22123 -5.57082 14
522 1 -12.6906 -1.15877 -4.04815 15
523 1 6.47571 -15.068 -2.24785 17
524 1 -1.50466 -8.79346 -15.3685 14
525 1 -1.2768 2.53002 9.06126 19
526 1 4.70786 -4.98137 -6.94252 18
527 1 5.84929 8.80718 1.72608 17
528 1 -11.9249 -3.61114 -2.23221 17
529 1 7.53163 -18.2474 -0.204538 6
530 1 10.2084 5.90219 -4.11417 15
531 1 5.12095 -8.14299 -0.222113 20
532 1 1.35157 9.64895 -0.392092 21
533 1 3.81199 -6.87759 -11.7006 19
534 1 3.24004 -13.3147 11.8982 9
535 1 4.79329 12.0856 -3.20233 12
536 1 2.53594 -0.94321 17.0191 13
537 1 -1.32122 -15.6743 -11.0355 12
538 1 6.62804 -1.98706 -5.71834 17
539 1 3.30321 5.82087 7.75536 24
540 1 7.05611 -12.5702 -8.10855 18
541 1 -0.420505 -4.34868 6.36635 20
542 1 8.08832 -17.3914 -3.59348 7
543 1 -9.7424 -6.27971 6.17118 18
544 1 -1.82531 0.949073 -8.77866 20
545 1 -6.85891 -16.1164 -1.27868 11
546 1 -7.47072 -4.08296 14.6854 9
547 1 13.2783 3.64035 -8.60132 13
548 1 -5.772 -1.58165 7.52794 19
549 1 -9.64135 5.48604 6.29319 14
550 1 11.3867 -3.29222 5.81579 18
551 1 -1.42946 8.6796 -8.15451 15
552 1 15.7321 -2.00773 -10.2426 9
553 1 8.81827 2.82818 -4.11167 23
554 1 -5.54006 1.43024 -6.67287 22
555 1 -6.16743 -13.9468 -10.173 13
556 1 0.61457 6.39427 -7.6189 20
557 1 -6.01324 -2.618 16.9206 8
558 1 -10.5401 -10.5361 1.99981 17
559 1 -0.996603 -12.9844 -8.97257 20
560 1 -8.43339 2.97358 1.35975 19
561 1 8.43808 7.7323 8.42763 17
562 1 -8.59144 -4.6234 -2.7466 17
563 1 5.54674 5.87062 -12.7886 11
564 1 0.0264328 -17.9872 -1.58364 11
565 1 3.42839 0.943737 -5.78096 22
566 1 3.08491 -8.61319 -14.8408 12
567 1 -0.438024 -3.94016 9.21693 18
568 1 2.11706 -1.60689 -15.5948 12
569 1 -10.7864 -3.88866 -4.6293 19
570 1 10.0015 -0.543744 -0.890871 24
571 1 -3.63759 -8.07884 0.665093 19
572 1 12.5765 0.545965 -7.05601 19
573 1 7.94511 -6.32299 -2.1605 25
574 1 -4.03784 -1.03279 15.1546 17
575 1 10.8919 -9.13864 1.50862 17
576 1 17.712 -7.43446 -3.20455 10
577 1 15.6004 -10.2225 2.09911 11
578 1 4.45356 11.6168 8.53102 10
579 1 -5.25046 -2.00729 12.8101 16
580 1 -5.55617 -13.5657 4.97757 14
581 1 14.13 1.66874 2.94037 23
582 1 8.57185 2.75409 12.0718 15
583 1 -10.2104 -10.2976 -3.79628 13
584 1 13.4374 -10.5707 -7.05548 11
585 1 2.46224 8.04285 2.49246 18
586 1 11.3103 -2.96589 12.0271 13
587 1 -1.32855 8.53496 9.83158 11
588 1 0.507642 -13.195 6.35415 15
589 1 -7.23433 -6.684 0.852504 17
590 1 3.79628 -4.02605 15.7265 14
591 1 6.80381 11.6551 -0.200808 15
592 1 -4.29096 -15.4608 2.52837 14
593 1 6.48555 -6.88913 5.87753 21
594 1 9.7046 -6.32392 7.09295 18
595 1 8.78072 4.28949 6.16431 21
596 1 -2.74006 1.07347 -6.16396 19
597 1 2.75985 -6.4597 -5.84808 20
598 1 0.520409 -0.831191 -12.7907 19
599 1 -1.66115 -0.221476 10.1845 20
600 1 7.19214 9.16766 5.8023 17
601 1 15.3274 -1.67035 4.08274 22
602 1 -0.621453 4.02093 -7.52171 19
603 1 2.76387 4.40122 15.7289 12
604 1 12.897 2.0159 11.9091 11
605 1 12.9916 -7.00953 -5.39939 22
606 1 -5.20746 -14.5605 -3.03157 20
607 1 -4.58595 -0.308448 -9.02483 21
608 1 17.3275 -2.09473 6.8464 14
609 1 -0.728347 -7.70108 -8.96921 21
610 1 0.600978 -10.8487 -0.934114 20
611 1 18.0154 -5.09023 -0.207008 13
612 1 3.77978 -14.2766 9.62985 9
613 1 -4.86777 -16.08 -6.23815 16
614 1 8.64056 13.3917 0.949878 7
615 1 -2.44161 -6.68783 6.19 21
616 1 -9.97092 0.617687 0.685724 19
617 1 6.7792 7.90211 -7.17697 13
618 1 6.75591 -8.39327 -11.3678 16
619 1 -2.99059 9.12471 4.65462 18
620 1 4.74805 4.74403 -10.6603 20
621 1 10.3814 -6.80096 -0.57627 21
622 1 -6.16374 3.80183 -2.61552 19
623 1 12.4657 3.2591 6.13496 22
624 1 -12.2084 -12.6114 -0.0414553 9
625 1 6.98117 1.6719 7.46409 17
626 1 -8.44706 -6.28194 -5.88416 19
627 1 -8.32899 4.34308 9.11179 13
628 1 -3.72868 6.88938 -4.7213 19
629 1 12.0501 -7.2441 -11.1809 10
630 1 -7.23191 -11.3254 -3.463 20
631 1 13.5301 -7.2228 1.77647 18
632 1 -12.7128 7.96583 0.76094 12
633 1 -6.53859 -9.19772 -5.89741 17
634 1 -5.60811 -13.4576 8.6258 9
635 1 11.9863 -7.66532 6.43223 9
636 1 11.8997 0.334547 1.58877 18
637 1 -12.5494 4.30462 -3.12723 13
638 1 6.70397 5.19721 13.4054 11
639 1 2.28638 4.47574 -9.67628 19
640 1 0.611558 14.03 2.94342 12
641 1 14.3325 4.73213 -5.35761 8
642 1 0.817439 1.50163 17.619 9
643 1 7.62801 -9.09349 6.64786 20
644 1 4.02267 10.2686 -8.32034 13
645 1 -1.46433 -2.44832 14.1122 19
646 1 0.525045 -6.2606 -11.5997 19
647 1 -9.26463 -1.56087 -1.83861 21
648 1 -7.23437 -10.3494 7.86885 19
649 1 12.5845 6.42766 5.35135 15
650 1 3.58912 -15.5907 -4.65662 15
651 1 -11.791 2.54804 -0.636071 17
652 1 15.6185 -4.60365 -7.5157 14
653 1 -8.16192 5.0519 3.1979 21
654 1 -10.1713 -3.39596 5.76768 17
655 1 1.51689 -15.203 -7.23557 14
656 1 0.376586 -13.8933 -5.21456 21
657 1 6.14853 -12.8839 0.375975 17
658 1 -0.275838 8.3445 -13.1913 9
659 1 13.7909 2.2183 -3.30131 17
660 1 10.5127 8.71796 6.28451 12
661 1 18.3147 -4.1677 -3.1808 10
662 1 -2.44577 -5.26528 -14.304 18
663 1 4.28227 -7.22404 8.02047 20
664 1 11.0069 7.79337 -2.21349 10
665 1 5.96857 1.49988 -11.6654 19
666 1 -8.47154 7.15446 -2.05788 21
667 1 6.0409 5.18931 -5.28905 21
668 1 -10.8193 -4.36202 3.18334 17
669 1 4.50016 7.22593 5.23612 17
670 1 1.83492 -16.4754 1.00863 13
671 1 6.58622 8.13531 -1.08394 17
672 1 -2.23898 3.55093 13.2737 15
673 1 -8.10945 -0.434962 11.547 12
674 1 14.3263 1.66987 -0.347639 19
675 1 -1.96321 -8.61099 10.9939 20
676 1 2.71769 -12.2933 7.77347 18
677 1 -3.51518 -1.55443 5.7019 20
678 1 10.2268 0.41489 10.6454 17
679 1 9.48758 -7.62769 -5.82607 22
680 1 -4.10901 0.0424373 -15.526 12
681 1 -8.23363 3.31656 -12.5025 11
682 1 -5.99607 -2.50334 -7.22643 23
683 1 15.2956 5.86109 0.907048 10
684 1 1.81081 6.53028 4.96353 19
685 1 -5.65798 -11.6069 -0.805524 20
686 1 -3.23894 6.84195 0.432495 20
687 1 17.0654 -2.09193 9.45125 12
688 1 -3.33178 -3.32322 8.77604 23
689 1 10.7988 -4.20065 -6.46819 16
690 1 11.561 -12.8236 0.999209 16
691 1 1.29751 -9.75551 -16.9554 9
692 1 -7.87889 -0.988823 -9.40125 19
693 1 -8.06945 -8.26097 3.03364 19
694 1 -7.70309 1.95009 -4.39917 21
695 1 -3.63361 2.69438 10.6178 22
696 1 5.81234 -5.51125 9.5041 22
697 1 -8.8359 -12.4702 4.65716 14
698 1 14.2407 -2.89694 7.01329 19
699 1 0.793187 -3.52312 -12.5178 22
700 1 18.8287 -1.92011 3.45622 9
701 2 -3.75523 1.24943 -7.93655 20
702 2 -6.27529 8.54327 -2.16829 21
703 2 4.95471 -11.8825 -7.19267 19
704 2 -0.196546 3.23919 13.7395 17
705 2 -7.58563 -9.89374 -4.52719 22
706 2 6.95371 -4.07612 9.981 21
707 2 -13.5661 -11.588 -0.254084 7
708 2 -11.6971 5.70269 -6.19671 9
709 2 7.17445 6.38219 8.70329 18
710 2 -10.348 -1.22216 1.6922 22
711 2 11.3636 2.07272 10.8191 17
712 2 -0.616774 -5.45397 -4.46045 20
713 2 -8.42498 -13.0583 -7.34633 8
714 2 -6.66626 3.61814 -4.63277 19
715 2 3.10392 -7.81164 6.66579 19
716 2 8.41215 2.32934 6.25316 22
717 2 9.47514 -0.506738 -10.2773 16
718 2 1.7303 -16.0612 2.80857 11
719 2 8.09507 -0.888682 5.70128 20
720 2 1.66139 12.4645 2.11731 17
721 2 -5.84639 -7.19603 -9.3321 15
722 2 8.96369 -2.53311 8.18936 20
723 2 10.1794 -9.27009 -5.01717 22
724 2 -9.24986 -14.7188 2.08376 11
725 2 -10.2381 -12.5055 9.07569 8
726 2 -4.56459 -12.5148 3.96488 17
727 2 9.12799 -3.18997 1.63748 21
728 2 2.97767 -15.075 -8.22937 11
729 2 3.25923 -5.77623 15.9656 10
730 2 0.642871 8.68296 -4.92876 20
731 2 -5.24457 -11.8664 -3.89004 18
732 2 2.76523 0.29886 12.9228 17
733 2 -6.42201 11.8383 1.67932 15
734 2 -1.27352 1.34491 16.6948 11
735 2 -4.82929 8.13684 0.949523 18
736 2 9.05678 -15.3789 3.38128 11
737 2 -10.0569 3.78573 6.54848 14
738 2 5.50374 9.67121 -7.24291 13
739 2 12.9678 -8.52939 -6.60361 21
740 2 -0.970148 -2.20535 -9.34233 20
741 2 2.35924 -10.1397 -8.11253 17
742 2 9.87138 -3.17671 -1.65161 21
743 2 -0.484545 0.32114 12.6724 20
744 2 1.02432 8.94908 -11.7833 8
745 2 -4.70784 6.88074 -8.26403 21
746 2 13.1073 4.38803 -6.71579 11
747 2 -9.62421 -4.90154 10.5773 10
748 2 -8.62809 4.91716 1.1301 19
749 2 11.0222 -6.28726 -5.99346 20
750 2 3.41107 -13.9765 -11.3012 11
751 2 -14.2204 -9.26854 -1.75255 5
752 2 16.1628 4.69002 6.0226 13
753 2 -5.84149 10.7489 4.79325 14
754 2 -3.64894 -15.145 -7.45032 19
755 2 -0.190688 12.174 3.948 14
756 2 2.15621 -13.9335 10.5079 11
757 2 15.2643 -9.47333 3.76277 12
758 2 -9.25625 0.669709 -5.10978 18
759 2 13.9415 -10.1107 -4.24171 15
760 2 14.6178 -9.5216 -8.32583 10
761 2 9.08335 1.38914 3.27355 18
762 2 10.0176 -14.0731 5.94734 10
763 2 5.36725 -6.50626 3.96333 18
764 2 -7.14366 -3.92212 16.5162 6
765 2 18.2139 -2.31846 -3.82018 10
766 2 8.5649 9.01096 10.3523 12
767 2 13.9866 -0.15699 9.70443 19
768 2 0.21304 3.62891 10.1564 19
769 2 4.6768 11.988 6.78857 12
770 2 17.0236 -6.81087 -1.20107 16
771 2 0.891972 4.89219 -8.64266 19
772 2 -8.7169 -7.64938 -13.0066 9
773 2 -7.0664 1.20855 10.6575 16
774 2 12.06 -3.29504 -7.86845 18
775 2 -4.39834 -1.47637 -7.66783 23
776 2 -12.3856 -4.12212 -0.678539 12
777 2 -7.56584 -15.9215 0.358861 9
778 2 17.7025 -3.38698 2.74244 15
779 2 1.496 -6.06405 9.1531 21
780 2 0.633309 -0.692105 17.3676 11
781 2 3.97082 -4.31526 -14.9036 15
782 2 6.34615 -1.77078 11.6251 15
783 2 2.86237 2.24388 9.08283 18
784 2 -5.50253 -3.74192 3.12681 22
785 2 8.81284 -10.3424 -2.2766 20
786 2 14.1201 -4.59482 -2.83423 18
787 2 -5.75466 7.1884 8.36561 14
788 2 4.92136 -9.67844 1.234 20
789 2 11.8628 -9.29113 -10.9085 9
790 2 7.11282 1.43051 -4.34688 20
791 2 5.07836 1.52819 6.81108 20
792 2 11.3797 -5.36024 -1.50904 19
793 2 5.56937 -4.48068 1.95485 17
794 2 -10.2449 -8.58796 2.65702 15
795 2 13.5665 -2.21962 -1.04142 19
796 2 -9.76229 -7.12707 8.45181 14
797 2 9.85384 2.92722 -12.053 11
798 2 1.00823 -9.60671 2.61039 19
799 2 16.0281 -2.84237 -8.44859 12
800 2 3.56478 -12.255 -3.43576 17
801 2 16.2935 -4.25105 0.380253 17
802 2 -3.41094 13.1487 3.79983 14
803 2 15.3067 -0.0294764 -9.5312 14
804 2 -4.49769 -9.16551 -6.00926 21
805 2 -10.2403 -10.2677 -5.67116 13
806 2 -0.465787 -7.51487 2.09008 20
807 2 -2.54946 -6.44367 -0.200774 22
808 2 -8.23938 9.54391 3.25614 14
809 2 -11.0937 5.20756 2.31169 15
810 2 2.81319 -4.3229 -5.96594 19
811 2 10.4076 4.13095 -6.82886 14
812 2 -0.211827 5.37805 -6.0793 20
813 2 -4.15914 -3.64587 12.4716 20
814 2 3.4759 -8.56841 -12.7605 16
815 2 -12.7438 4.07178 -1.35342 12
816 2 -2.3397 -0.390637 6.65007 22
817 2 -8.32555 0.734207 5.00467 19
818 2 -7.38042 -2.66602 -9.00129 20
819 2 7.21352 11.698 5.0167 11
820 2 14.6803 3.99468 -3.67873 14
821 2 11.6394 -11.2492 -2.91896 16
822 2 -6.27241 -1.44086 11.4289 16
823 2 13.6138 0.810922 1.21378 18
824 2 -3.7115 10.2708 3.23128 20
825 2 -7.14109 3.92837 -8.68283 22
826 2 -9.19206 3.35361 3.49809 19
827 2 10.221 -8.06949 5.32223 18
828 2 -6.95867 -10.8766 -13.4963 8
829 2 7.42757 2.57594 -12.4868 14
830 2 17.2546 3.62837 -2.31339 11
831 2 -11.5636 -7.70519 5.99292 12
832 2 2.03994 7.73464 -0.368892 20
833 2 -2.21658 10.4247 -3.45068 15
834 2 3.26394 11.7103 -4.29912 13
835 2 13.2519 -2.57881 11.6362 12
836 2 10.8533 -0.221074 9.0143 16
837 2 16.7435 -8.86705 -3.00284 10
838 2 2.6875 0.913256 17.1794 12
839 2 -0.533571 -6.95242 12.0353 17
840 2 -14.0495 -1.56496 -5.21059 9
841 2 -0.630428 -17.1726 -6.12903 13
842 2 3.13591 -6.18365 -8.63233 17
843 2 6.59979 -2.81067 -14.6307 13
844 2 15.2807 7.2205 5.96657 10
845 2 -2.0536 -1.2271 15.3558 18
846 2 5.63193 3.08025 -10.2259 19
847 2 -1.48284 -12.9849 6.69517 14
848 2 0.337629 -8.30041 -15.9851 13
849 2 -1.11004 -14.4404 -4.15846 19
850 2 0.980597 -7.1103 -7.32136 19
851 2 2.78509 -14.8447 -0.0666231 15
852 2 16.8731 -0.25774 -6.02397 13
853 2 -0.385152 2.2625 -14.5421 19
854 2 -6.45766 4.42725 9.73387 14
855 2 -3.67444 -10.7608 -1.22801 20
856 2 -8.29217 -1.27415 -11.5423 16
857 2 -0.758765 5.56979 -15.045 11
858 2 -3.99541 12.0862 -2.15612 12
859 2 -0.949123 -11.6195 1.55318 18
860 2 17.0755 1.10598 6.03783 15
861 2 0.783173 3.53777 16.1706 10
862 2 -3.39878 -15.8852 0.778397 14
863 2 9.18757 -12.1695 -5.09735 18
864 2 0.818537 -1.99962 14.6229 18
865 2 5.90153 11.6057 9.71751 9
866 2 10.5467 0.160598 -7.53148 17
867 2 6.4184 3.61789 8.48045 20
868 2 11.893 3.15633 -3.82133 19
869 2 -7.0047 -6.24226 2.73553 17
870 2 9.60777 -6.82544 -2.81255 22