ITEM: TIMESTEP
25000
ITEM: NUMBER OF ATOMS
2000
ITEM: BOX BOUNDS pp pp pp
-30.0 30.0
-30.0 30.0
-30.0 30.0
ITEM: ATOMS id type x y z Coordination
1 1 -6.41748 4.28172 -14.0938 17
2 1 -3.51807 -10.807 -10.7326 14
3 1 -0.58365 15.1887 15.5664 16
4 1 -0.116842 -9.45924 14.7417 14
5 1 -12.1557 8.53324 -2.59821 19
6 1 10.8036 -4.03543 -0.446417 22
7 1 -9.41376 6.26522 -8.80763 23
8 1 1.42413 -4.18387 17.0108 12
9 1 -12.7476 4.00064 -12.4837 11
10 1 -13.329 -5.49949 10.0915 21
11 1 4.03429 1.73686 -7.6537 19
12 1 -1.14336 -9.97159 3.79903 20
13 1 -16.1438 -6.78994 2.84614 12
14 1 -4.57762 5.83432 17.6978 23
15 1 2.88189 -3.86155 7.86727 22
16 1 -2.082 4.97316 19.6228 16
17 1 -3.48974 10.4506 -9.59185 13
18 1 -2.81692 -8.01649 12.2859 17
19 1 -12.6475 -1.39116 -10.0247 16
20 1 -14.5178 -4.76245 13.4311 15
21 1 15.0375 7.13736 6.66935 10
22 1 -0.463417 10.6589 -9.35505 14
23 1 -4.04613 5.55228 -12.3188 17
24 1 15.948 3.85738 10.9337 10
25 1 -10.8387 1.30756 2.67975 19
26 1 -15.6097 12.5818 -2.01081 7
27 1 -1.28338 3.36378 -6.69938 18
28 1 -11.4165 8.259 6.39161 19
29 1 -2.16079 -13.3654 11.6517 14
30 1 6.34204 -4.43649 12.4117 18
31 1 5.49269 -13.4463 -5.32406 13
32 1 13.2456 -1.87785 5.89037 14
33 1 -9.44298 -13.5263 -0.919023 5
34 1 -17.1255 -4.83521 8.31031 13
35 1 -2.89812 -3.82407 -10.0033 16
36 1 5.06761 -8.4714 -10.0193 19
37 1 -10.6276 2.25288 -14.7065 14
38 1 4.2012 3.1463 18.6098 15
39 1 -4.38609 -14.7091 13.0929 7
40 1 8.07536 0.0857147 13.1022 17
41 1 -13.2014 0.192342 6.10526 18
42 1 -15.8395 -1.07581 6.99273 18
43 1 -7.10119 2.81321 -2.05135 19
44 1 -5.29322 14.2062 -0.190732 18
45 1 -0.966486 -16.0594 -4.9458 11
46 1 1.87094 2.69385 -2.37332 17
47 1 1.94412 -9.59987 -8.27805 18
48 1 -5.80698 -3.39872 14.0676 18
49 1 -14.1744 7.80868 7.42589 20
50 1 6.28553 10.7934 -8.71035 15
51 1 -6.71863 10.1846 11.2404 21
52 1 -8.40416 9.59487 -2.81941 19
53 1 -3.98442 19.0276 3.84808 13
54 1 4.57201 -8.13394 7.18428 13
55 1 8.92757 -4.15213 -8.27886 20
56 1 3.85013 -6.56791 -13.2822 12
57 1 -11.5301 13.6758 14.9203 9
58 1 -10.0409 -1.46136 -1.99372 18
59 1 5.84241 1.79656 7.1801 19
60 1 -3.76066 10.541 -1.74192 19
61 1 -9.81428 -9.19568 8.7801 20
62 1 2.42915 16.6735 15.411 14
63 1 -9.66827 7.4568 -0.236288 23
64 1 -8.10056 13.9965 15.2335 10
65 1 -4.70003 13.3198 -3.67111 18
66 1 -3.29905 -17.6064 0.662668 10
67 1 2.11205 2.96186 14.5728 16
68 1 6.2185 -13.3406 -1.34976 14
69 1 5.61255 9.59256 14.1341 17
70 1 -12.1915 2.8414 -2.3739 20
71 1 -14.1153 7.09302 -8.85509 8
72 1 15.4574 1.72714 14.118 8
73 1 12.2326 -0.841661 -4.19031 20
74 1 2.83405 -6.77527 9.62483 18
75 1 -17.4424 2.72143 5.98425 14
76 1 5.30463 17.8684 11.3217 12
77 1 -1.54721 -1.84745 16.7296 15
78 1 -2.43104 -15.2607 9.52187 13
79 1 -10.5609 -0.633742 4.72265 21
80 1 8.4482 4.35719 14.1063 15
81 1 8.03242 -3.29337 -1.32549 21
82 1 -11.2419 13.2796 10.3506 19
83 1 2.9742 1.3031 11.4653 22
84 1 -8.90668 -3.16438 4.93972 19
85 1 -4.68074 -1.89723 -8.9567 18
86 1 -13.0331 9.7366 9.93382 24
87 1 -13.3379 8.58298 4.11469 21
88 1 -3.12072 10.371 -4.4802 18
89 1 6.43607 -1.02344 -2.44022 22
90 1 7.28109 11.6263 -5.56058 18
91 1 3.25925 -6.2495 5.44419 18
92 1 -0.173706 -10.7905 12.431 15
93 1 -7.83993 12.394 5.89328 17
94 1 -9.23726 12.8781 12.6111 22
95 1 -7.97047 -4.77458 17.9028 12
96 1 -4.24314 10.1078 9.47476 16
97 1 -5.59447 -4.03554 17.0155 15
98 1 8.53361 -5.07538 1.34548 21
99 1 -10.3548 4.89852 7.71965 20
100 1 -10.1146 -6.93271 4.42004 14
101 1 10.4562 -9.50048 -3.41248 14
102 1 5.08915 1.40668 -15.6288 8
103 1 -10.1643 5.4973 -14.7593 11
104 1 4.44621 14.9442 4.78288 17
105 1 -6.62502 6.56366 -5.08767 20
106 1 0.869683 10.7973 17.9435 13
107 1 -6.54051 12.0677 -2.44453 17
108 1 -12.6666 11.8347 -0.893585 17
109 1 -0.145664 12.295 3.35737 18
110 1 -3.40125 -7.64383 9.27046 22
111 1 14.8541 0.805214 11.5051 11
112 1 -1.47035 -4.73391 -7.29784 18
113 1 -1.77059 -9.20924 -4.89272 22
114 1 -0.32643 0.910545 12.8053 17
115 1 4.87914 3.70878 13.6442 16
116 1 -14.2451 -5.3159 1.0435 21
117 1 5.61038 -3.80433 6.47315 20
118 1 -9.79789 -9.68083 -4.0781 16
119 1 9.55107 -9.76746 2.2149 12
120 1 -4.70305 10.3407 6.07631 18
121 1 -0.715483 2.73098 -9.84116 21
122 1 3.27866 16.7269 2.07476 19
123 1 -13.3898 -7.55571 12.3023 15
124 1 -9.46529 -14.1674 9.8685 11
125 1 6.84593 -7.57075 -4.76012 17
126 1 1.59152 -1.28863 -4.81777 20
127 1 13.26 -4.8866 0.425226 12
128 1 -2.67787 -16.6977 4.38277 13
129 1 -10.8495 -12.9349 2.45399 8
130 1 7.52579 12.3578 11.8597 19
131 1 13.9512 -1.30108 -6.76117 14
132 1 -17.6515 -3.67812 2.13678 12
133 1 7.43233 11.3236 7.36931 15
134 1 11.0878 11.8209 6.38137 14
135 1 -9.97621 1.48092 20.0778 9
136 1 6.91034 8.65965 -0.237697 21
137 1 -1.91464 5.59333 12.5813 18
138 1 -10.0472 15.958 0.545359 12
139 1 -1.77364 -1.62997 -7.4047 19
140 1 10.6776 -9.43325 -7.01603 10
141 1 -0.83948 12.9697 -4.19462 16
142 1 3.85793 -4.23214 14.8635 18
143 1 -2.94731 -2.69797 -16.2266 14
144 1 -7.1288 14.7979 -4.90248 14
145 1 11.2067 1.89493 -0.974645 20
146 1 -11.0476 6.73793 -11.3129 15
147 1 -10.7538 14.1539 -2.21157 13
148 1 -7.95252e-04 1.27422 -12.3782 18
149 1 9.26633 -4.5836 11.8037 15
150 1 -3.75032 4.78845 -8.83985 18
151 1 -13.9781 12.8293 12.325 12
152 1 5.63501 6.20612 2.09396 19
153 1 1.02862 19.4019 0.893662 18
154 1 -8.37805 14.3068 8.06305 17
155 1 6.87095 3.72087 5.22534 19
156 1 -6.23198 10.4244 0.104841 19
157 1 2.09375 16.3433 -4.06687 12
158 1 1.76203 4.15176 -8.62542 22
159 1 -14.9181 -9.075 5.05533 12
160 1 -15.9969 4.81416 0.682848 15
161 1 -12.5791 -4.38121 -7.96004 18
162 1 2.51802 -11.1798 -11.3241 11
163 1 9.34525 13.7319 8.13668 13
164 1 -2.89749 13.6691 7.93747 15
165 1 -21.1371 -0.726793 -1.67094 6
166 1 -13.945 12.6269 8.77757 15
167 1 16.0832 0.910431 -2.29517 10
168 1 -11.8112 4.17629 -9.84577 18
169 1 6.67155 0.834585 16.9041 10
170 1 -1.09509 10.1583 9.72402 18
171 1 -5.18381 10.4637 14.2185 19
172 1 0.756288 -7.20439 -14.0872 13
173 1 -7.88494 15.1121 11.7661 13
174 1 -7.48321 16.0415 2.48279 16
175 1 -0.46472 -7.77158 10.1053 17
176 1 -10.9666 -5.20272 13.1378 20
177 1 0.385097 -14.8186 -8.09762 12
178 1 -11.8915 6.05586 -6.92729 19
179 1 -5.13793 -6.65637 6.91755 16
180 1 2.16968 -16.675 -0.347586 10
181 1 -2.30151 12.5751 -7.09614 16
182 1 -16.58 5.6565 7.29508 18
183 1 -1.4221 11.1413 0.589474 21
184 1 8.38689 14.7678 -0.134204 13
185 1 -9.88487 5.91687 16.3915 15
186 1 -2.8586 -7.62596 16.4026 9
187 1 -10.0136 4.78364 1.15569 19
188 1 0.303992 16.8203 12.1451 17
189 1 -6.04785 12.728 12.5217 17
190 1 9.91588 4.49214 9.17744 14
191 1 -5.37726 16.1745 8.18537 17
192 1 12.3133 -3.92333 -8.3529 10
193 1 -11.9873 15.3139 12.4435 11
194 1 -10.0067 -2.47562 -9.35673 17
195 1 11.7836 -3.65333 3.09388 19
196 1 -9.15291 -3.12739 8.38434 22
197 1 -18.7738 3.52577 8.59909 10
198 1 -11.9888 -10.0185 6.46136 13
199 1 -3.4897 7.33242 14.4749 19
200 1 -13.0319 2.81725 4.29929 20
201 1 -2.06288 -8.83583 -1.77423 19
202 1 9.58694 -5.80503 -2.71046 20
203 1 -2.00734 15.0902 3.60794 19
204 1 -8.84242 1.77293 8.62862 21
205 1 1.98421 14.6593 13.3303 18
206 1 -10.0647 2.15781 -0.659253 21
207 1 -7.19789 17.7907 -0.011958 9
208 1 -13.3434 -6.52203 -5.7808 17
209 1 -10.8339 4.02327 18.5256 10
210 1 2.74058 -11.6728 8.81285 15
211 1 7.92665 -12.2209 7.01514 10
212 1 -13.2308 10.8435 6.37664 20
213 1 15.7255 1.84318 2.95736 11
214 1 5.59285 0.857469 -4.9087 21
215 1 -8.38109 -2.38418 -14.9655 16
216 1 2.68268 -4.2771 11.7146 23
217 1 4.80736 -15.6523 1.28419 11
218 1 0.0418906 10.0161 -5.94644 21
219 1 2.40164 -9.41843 -5.07643 21
220 1 4.88495 -3.61265 -13.215 19
221 1 -1.46016 5.68817 -11.4901 19
222 1 -9.26882 -4.38709 -6.85847 18
223 1 -2.55948 15.2071 -2.48234 17
224 1 -10.1418 -6.19892 10.5917 20
225 1 5.96692 12.175 4.28127 17
226 1 -6.20816 2.93304 19.8043 15
227 1 -7.82372 13.1709 -7.45429 10
228 1 4.61304 -2.15031 12.3703 23
229 1 -5.49023 -3.68147 -11.16 18
230 1 -2.29544 17.964 -4.45294 9
231 1 0.779558 7.45302 -8.10643 21
232 1 -3.11091 -10.9353 9.30084 17
233 1 -6.43881 7.28872 16.2686 23
234 1 -4.02179 9.15739 17.0589 18
235 1 5.32758 -11.0529 -9.3685 12
236 1 -3.36028 -16.1545 -3.02243 10
237 1 8.93659 -11.3228 -0.706879 12
238 1 8.06293 7.28412 15.2512 14
239 1 3.62868 9.51583 -10.7233 13
240 1 -2.19227 13.4866 1.4265 21
241 1 -17.9711 1.07825 -2.11853 10
242 1 -8.73299 13.6218 -0.176837 23
243 1 -2.2824 2.95718 17.5528 20
244 1 6.67541 -13.1831 1.36976 15
245 1 15.0375 -1.22269 3.09643 12
246 1 -0.717252 7.50271 7.60818 20
247 1 -5.93503 11.7345 17.3179 15
248 1 -14.1833 -8.63265 1.25377 14
249 1 5.18738 2.4755 -12.1659 15
250 1 1.06444 -1.75491 11.4318 21
251 1 11.8875 8.80225 -2.61016 15
252 1 -4.35846 -7.29771 -3.51234 21
253 1 -5.10403 -0.349598 -6.18136 20
254 1 -5.8419 -11.3253 4.60599 19
255 1 10.4404 2.18734 -9.84595 9
256 1 -14.4474 -3.44593 7.79075 23
257 1 3.4538 -13.2001 -0.452117 17
258 1 -5.66129 -7.79338 -9.19375 20
259 1 2.84641 10.1941 -0.718343 17
260 1 -5.60181 -1.30601 -13.8195 20
261 1 6.16669 5.54389 20.4469 12
262 1 11.3404 6.70809 7.93374 19
263 1 -7.88434 -9.80146 -0.910635 15
264 1 6.38046 -3.07403 -10.552 22
265 1 -1.92098 -6.21994 3.88623 16
266 1 -16.1003 1.83573 -6.0992 11
267 1 -9.49061 4.1817 -12.2744 20
268 1 -7.71433 -11.1674 9.48814 20
269 1 7.4788 -2.04725 11.1543 23
270 1 0.138103 -4.4017 9.51369 23
271 1 -7.71509 -1.31775 -11.5298 17
272 1 -7.24301 -6.73795 9.72051 21
273 1 1.46363 4.3141 -11.6647 22
274 1 5.42695 9.13523 6.48823 18
275 1 -8.28671 -6.46032 7.11546 20
276 1 0.775099 12.9954 7.63468 18
277 1 -6.76137 0.850213 21.3563 10
278 1 -13.3552 -6.78195 -9.28895 11
279 1 -8.01521 -7.89883 -7.1127 22
280 1 3.30435 10.9849 -4.48417 13
281 1 -9.12103 -8.16074 -10.1476 14
282 1 0.397743 -11.9236 5.8733 21
283 1 10.3044 -4.34259 -11.3396 12
284 1 12.8881 2.24864 -3.67985 17
285 1 14.5371 1.82753 8.80149 11
286 1 -11.5959 1.08201 16.5332 16
287 1 -3.70334 -11.6811 -5.82595 21
288 1 7.31285 4.24179 16.8668 17
289 1 -4.45411 -16.1431 6.75976 11
290 1 -3.97046 -9.73348 5.33585 16
291 1 -2.67269 19.3934 1.20139 11
292 1 3.44192 -0.857541 -15.8779 13
293 1 -11.2572 -0.528538 -15.7008 11
294 1 -13.031 -6.80945 15.5605 12
295 1 4.11511 11.2108 17.1232 15
296 1 3.05833 -11.7058 5.22972 15
297 1 -8.77831 -10.9598 -8.4745 11
298 1 -11.6881 8.82978 -9.21684 12
299 1 10.5926 10.0226 3.80275 15
300 1 -8.88713 10.8799 -5.56863 15
301 1 0.176145 14.1552 -0.831362 18
302 1 -6.30771 -3.61147 10.257 19
303 1 5.03143 -8.76829 -3.31556 18
304 1 -12.0825 14.112 1.24222 13
305 1 1.02235 9.54214 5.48801 17
306 1 10.636 6.34268 13.7326 19
307 1 -14.5096 2.55102 7.60599 23
308 1 -7.74199 0.159459 18.1332 19
309 1 -10.6046 10.7848 4.70103 20
310 1 0.490081 -5.84782 -9.07282 16
311 1 8.59326 12.7536 -3.13804 14
312 1 7.53785 -6.52022 9.88322 12
313 1 -5.01659 1.71313 16.714 20
314 1 -16.6341 -4.4879 4.90905 12
315 1 -4.44155e-04 -15.1956 -2.58943 12
316 1 -9.44576 8.40382 15.4959 14
317 1 -8.50708 9.77469 13.4742 22
318 1 -13.479 -1.29067 13.1271 16
319 1 -18.3865 0.0768884 7.37655 10
320 1 15.6291 -2.30933 -3.62 14
321 1 -15.6841 -7.05152 10.682 12
322 1 7.24049 -1.28058 -7.22292 18
323 1 1.89515 -13.0167 -3.77088 19
324 1 4.33136 19.1698 0.707324 15
325 1 -12.7807 11.8705 -4.09777 11
326 1 9.40044 6.99823 10.6313 19
327 1 -11.3631 2.49448 6.47393 20
328 1 3.6298 -5.79283 -3.83649 18
329 1 -6.99288 10.645 8.15077 20
330 1 -6.21468 7.67864 6.69067 19
331 1 -2.35232 -12.3145 15.0384 9
332 1 8.02401 3.01266 11.497 13
333 1 -5.98359 7.26062 9.68794 19
334 1 -7.83067 -3.13299 -1.62217 17
335 1 0.647707 1.83133 17.6074 14
336 1 1.07271 7.67708 10.5912 20
337 1 4.52547 6.32838 18.3589 15
338 1 -8.55167 16.2891 -2.55215 13
339 1 2.65205 -3.82543 -10.6171 22
340 1 -6.78636 5.35944 -0.0399685 22
341 1 -0.845157 -11.52 -8.51249 17
342 1 -14.8104 7.89117 11.9732 18
343 1 -15.559 4.99309 4.24461 16
344 1 -7.57555 -1.9194 -6.76019 17
345 1 -6.9467 10.4648 3.55282 19
346 1 3.77013 -1.32016 9.89787 24
347 1 -12.6209 -8.41973 8.92724 17
348 1 11.5774 -3.46095 9.95716 14
349 1 -12.7349 -10.7407 12.0171 9
350 1 -15.558 7.93952 2.21157 15
351 1 -4.91402 -1.02375 11.9155 18
352 1 -7.11265 -9.87482 -11.361 13
353 1 -11.311 -1.45517 -6.76061 18
354 1 4.42193 -3.9913 -8.06243 17
355 1 -1.07303 17.5302 9.59728 13
356 1 -16.103 -1.12309 -5.15785 13
357 1 7.95612 -8.96803 -8.18176 14
358 1 9.3356 -1.70279 -9.58553 14
359 1 -8.58679 -12.5787 -5.77279 10
360 1 -10.7602 -8.14961 -7.59137 15
361 1 -4.44031 -6.85459 2.37947 18
362 1 6.58927 8.26986 18.3933 12
363 1 14.2697 -5.55852 -3.05958 12
364 1 -14.7302 0.759167 -2.88183 16
365 1 -4.21065 16.3729 1.8155 17
366 1 -13.0982 -2.38656 -2.21944 18
367 1 -8.93228 7.77119 8.21143 19
368 1 -9.3052 13.8581 3.49944 19
369 1 -7.84187 4.7312 9.83536 22
370 1 9.83879 14.4354 11.1341 12
371 1 10.899 -1.68384 -6.69142 15
372 1 7.54782 -2.81338 14.7462 16
373 1 7.40617 0.472211 -10.1678 16
374 1 -6.80607 -11.1425 -4.05131 22
375 1 -3.68294 -3.1287 -5.40047 20
376 1 -0.753539 8.07454 13.1625 17
377 1 -6.93753 3.12508 -6.70482 18
378 1 7.91625 -5.92277 7.11466 16
379 1 12.2259 3.62923 18.8862 9
380 1 -12.977 0.146255 -0.729369 19
381 1 -5.60398 -9.93238 1.44977 14
382 1 -10.4109 -0.36382 14.4479 18
383 1 -3.4194 12.3281 4.78769 17
384 1 -12.9446 -6.57228 4.17156 18
385 1 7.33333 11.0446 17.9144 11
386 1 -12.3675 5.42109 -0.700185 21
387 1 2.23569 7.90373 -5.77681 18
388 1 6.24924 9.28499 3.4803 17
389 1 -16.3321 -6.72474 -0.178587 11
390 1 -4.83374 -9.00748 -5.70464 20
391 1 -17.2504 -0.788559 4.03282 13
392 1 -9.36119 4.57549 -5.59851 20
393 1 1.20024 -6.61753 7.44339 19
394 1 -4.20617 -10.7685 -2.48081 19
395 1 11.3252 14.2779 14.3567 13
396 1 6.46032 5.88798 -11.5454 10
397 1 -12.2016 8.83559 -5.8001 12
398 1 -0.487793 15.8348 -6.37415 13
399 1 -9.53594 4.80733 -2.29166 19
400 1 -0.180757 -16.6333 1.9826 13
401 1 8.12067 7.45183 8.11637 20
402 1 2.9623 9.88773 -7.7529 21
403 1 -5.55002 1.40937 9.68 19
404 1 -15.9435 2.29539 3.16246 17
405 1 -7.74649 4.22016 6.81109 22
406 1 -3.87561 -13.2263 6.74966 19
407 1 1.09469 -4.45762 -3.01736 21
408 1 8.62613 -12.12 -6.07731 11
409 1 -13.0057 5.4194 5.76626 20
410 1 -10.471 3.83338 14.766 20
411 1 -10.9264 14.1228 5.91466 13
412 1 -5.41351 -10.2215 16.2805 9
413 1 -8.64598 3.70895 -9.05247 20
414 1 11.0277 -6.64791 -8.33437 12
415 1 -4.61552 -6.00546 -12.2567 18
416 1 -3.57602 0.223212 19.303 14
417 1 3.37529 -6.0706 2.05931 21
418 1 -7.37037 2.17553 -12.4912 19
419 1 12.0537 -4.05328 6.87886 12
420 1 -1.41229 16.5071 -0.0647565 21
421 1 -15.9956 10.5602 8.11631 13
422 1 -10.1545 -1.57294 18.0794 16
423 1 -18.5601 -1.99062 -3.06377 12
424 1 -8.77101 -3.13289 15.0359 23
425 1 9.63772 -0.172011 15.8559 11
426 1 6.08913 1.04531 10.2233 18
427 1 -2.29333 8.70429 -12.1242 13
428 1 10.0594 -1.02188 8.51734 16
429 1 12.9353 9.07686 0.907549 10
430 1 -4.94541 3.94575 11.7579 16
431 1 1.5448 12.8424 1.12223 21
432 1 0.926728 -7.24978 12.4274 20
433 1 -6.11143 -11.4363 -8.31218 16
434 1 -4.853 5.38626 20.7994 13
435 1 -2.8755 11.8496 12.1784 17
436 1 -13.3968 -4.94197 -1.60963 16
437 1 4.0739 14.4194 -0.288719 16
438 1 2.60134 6.62417 7.26385 21
439 1 -10.7621 -0.199334 11.402 23
440 1 -8.30089 -6.86167 0.236344 15
441 1 -16.7155 1.62589 9.51098 18
442 1 -13.3104 -3.24836 -4.9888 18
443 1 -9.75292 10.0359 10.6573 20
444 1 -7.40821 -8.3465 -4.1753 16
445 1 -2.83594 -6.66504 -9.6957 19
446 1 -5.69841 -16.1939 3.17247 12
447 1 -7.66928 -1.01792 9.9141 21
448 1 10.4824 11.0308 9.88121 19
449 1 -7.23947 -2.26195 19.9139 10
450 1 -5.38423 13.4918 -7.7598 11
451 1 6.88889 3.51622 1.90445 18
452 1 -6.67783 -14.5183 -2.98041 15
453 1 0.283672 8.03544 -3.70121 17
454 1 -0.704539 17.9663 5.33853 14
455 1 1.07853 5.02734 -6.18632 20
456 1 1.75117 4.97245 16.8483 17
457 1 -14.3107 -2.41563 0.653215 19
458 1 0.026672 17.5492 2.47969 20
459 1 5.58421 16.3981 -5.35988 11
460 1 -8.20784 1.0546 -15.1356 15
461 1 1.53461 -1.37786 17.3389 13
462 1 3.07209 -12.7869 -7.4373 16
463 1 -5.062 -0.0837936 -11.2753 20
464 1 7.99109 -9.5317 4.702 18
465 1 -12.8999 8.59895 0.321667 21
466 1 -1.7296 5.778 16.2404 21
467 1 8.85457 7.29631 5.11239 15
468 1 3.00659 7.32964 1.59923 19
469 1 -6.46221 10.1693 -8.27465 15
470 1 5.41506 6.71286 -5.62118 17
471 1 0.891134 -6.88584 4.09788 18
472 1 -15.7269 -6.73815 -3.95126 11
473 1 3.05619 18.1834 12.9856 11
474 1 -8.60307 8.30632 -10.5037 13
475 1 12.8176 9.40957 6.71191 13
476 1 2.57255 15.5774 -7.32153 9
477 1 8.8301 -3.58215 4.28892 17
478 1 15.3797 3.2607 0.0191136 15
479 1 -6.41279 4.63441 -10.7968 22
480 1 5.52996 -10.7332 8.36283 12
481 1 -1.17877 -9.22486 7.19513 19
482 1 -0.695953 -6.37671 15.6304 14
483 1 -6.43155 5.86309 -7.74052 20
484 1 -11.2732 -11.5708 9.41404 15
485 1 -6.35309 -13.9458 -6.28523 13
486 1 2.32763 18.4744 9.68274 10
487 1 -0.758526 5.24899 -16.9972 7
488 1 -3.9962 -1.66519 17.3589 13
489 1 -14.7 1.93635 14.8163 11
490 1 -2.4211 -13.8504 1.52828 15
491 1 -11.5015 -2.87166 6.47139 21
492 1 9.37735 -8.10018 -0.651379 17
493 1 8.49171 -1.77359 -4.12203 19
494 1 -4.4884 7.2251 -0.130934 20
495 1 -2.15471 -5.44753 -4.12797 22
496 1 3.32533 6.7942 -8.96782 21
497 1 7.91373 -4.36477 -5.04912 20
498 1 -2.47969 8.48847 20.2838 11
499 1 5.03767 11.1554 1.271 18
500 1 -5.03528 -0.752957 -16.507 10
501 1 1.62822 -3.92036 -13.9907 18
502 1 -9.51477 -3.06297 11.593 22
503 1 -4.14928 18.0399 10.3377 11
504 1 -11.2571 -3.92104 -14.3274 13
505 1 -15.9967 1.32004 0.0937116 14
506 1 -0.626035 -5.32501 -11.559 19
507 1 -7.98482 -9.15707 14.6443 15
508 1 1.99372 12.8992 -2.64231 13
509 1 13.3314 -1.415 9.28237 14
510 1 14.585 6.23336 0.695455 10
511 1 -8.67373 -11.6141 4.8592 14
512 1 1.38152 -9.46749 3.21783 17
513 1 -5.27675 -4.31582 -15.2231 14
514 1 -13.3151 15.7015 9.30327 8
515 1 1.01616 -6.91387 -5.75365 19
516 1 12.4433 1.67555 1.59012 20
517 1 2.79466 20.7982 -1.28163 7
518 1 5.71821 -4.40135 3.4661 22
519 1 10.8882 5.18071 -9.16682 12
520 1 2.02287 -1.60239 13.9151 21
521 1 -11.456 7.01865 9.69307 20
522 1 7.0935 9.60257 10.0023 20
523 1 8.90281 5.97903 19.4729 13
524 1 -1.39475 3.28198 -14.0889 23
525 1 -4.74996 -4.27988 -2.59532 20
526 1 -1.73518 -1.8279 13.561 17
527 1 2.29301 12.8619 10.1035 22
528 1 10.9243 10.8435 -5.57848 14
529 1 -8.16101 8.45951 -7.01247 19
530 1 -5.81117 13.6479 2.5027 17
531 1 4.6884 -1.92381 16.0039 15
532 1 4.58652 3.94693 -10.2752 20
533 1 5.43928 -10.6276 3.28992 16
534 1 3.69029 6.69368 14.9811 16
535 1 -19.1369 -3.23895 -0.401511 10
536 1 -3.8599 15.2502 -5.75939 15
537 1 -2.9664 2.16694 11.5264 21
538 1 -11.8113 1.94122 12.8716 19
539 1 -5.20416 16.7313 -2.56142 15
540 1 6.45364 -7.22457 -0.678536 17
541 1 3.38468 -1.36468 -7.82572 18
542 1 -3.02392 17.8858 6.82144 11
543 1 -8.03274 -4.30165 -12.1152 20
544 1 7.87487 -12.623 4.01953 12
545 1 -10.2358 -8.02535 -1.93213 16
546 1 3.25212 12.8186 -9.13509 12
547 1 -4.08376 2.83616 -6.48285 12
548 1 -3.94566 8.59838 11.7273 20
549 1 -13.1643 -10.9254 3.57132 10
550 1 3.67999 4.38929 0.215939 21
551 1 -0.538918 -11.0057 -2.98625 19
552 1 1.92927 -7.09904 15.354 15
553 1 8.27805 3.18879 -1.36042 21
554 1 -10.6713 7.73784 2.46254 18
555 1 0.993765 3.74003 19.5924 14
556 1 6.48068 15.3953 -2.56571 13
557 1 6.12561 -4.9342 -2.65301 18
558 1 6.3922 6.80002 12.6398 17
559 1 -3.49829 3.02736 -11.7408 23
560 1 -9.86386 -11.5641 12.1 16
561 1 -1.39317 5.4523 -3.41744 17
562 1 2.65682 -3.41363 -6.07931 18
563 1 -0.437959 12.4371 12.9812 20
564 1 1.96495 2.13109 -5.03489 18
565 1 -10.4256 0.856522 -10.572 19
566 1 -6.21585 -12.5851 -0.572997 17
567 1 -13.2724 1.08335 -7.76266 14
568 1 9.03812 -0.386322 -1.20725 20
569 1 13.7259 5.65822 -2.57295 14
570 1 6.97689 -6.01745 -7.85041 19
571 1 10.7698 12.0905 17.217 11
572 1 5.40467 -2.59746 -5.00024 20
573 1 0.355565 -1.59336 -15.1622 16
574 1 3.9082 17.8408 6.15242 15
575 1 -10.2402 4.46546 4.33979 20
576 1 5.57203 17.0203 14.5745 11
577 1 10.1525 2.8018 -6.55825 13
578 1 12.9267 3.95245 6.30488 15
579 1 1.56593 4.1545 -14.8646 12
580 1 9.45497 3.50745 20.8881 8
581 1 13.1837 10.931 14.8948 12
582 1 -5.12205 -6.10704 12.0213 17
583 1 9.04759 9.13231 -3.82591 21
584 1 -3.08986 0.564098 15.132 19
585 1 15.6516 0.215123 -5.42183 12
586 1 9.74759 2.37091 17.6763 12
587 1 -13.0955 -3.94047 -11.7321 11
588 1 13.4386 9.93603 4.02709 8
589 1 14.5982 4.62972 3.41042 10
590 1 -10.6128 4.6099 11.5492 21
591 1 5.0886 14.685 16.427 15
592 1 9.63484 9.08567 19.2343 12
593 1 5.40905 12.5215 9.2935 18
594 1 -5.77114 13.1907 8.93008 16
595 1 13.7971 4.69293 14.2157 12
596 1 -5.53638 -15.8736 -0.217949 12
597 1 -9.08945 10.8262 1.75221 19
598 1 10.4113 4.56729 -2.8443 19
599 1 15.0839 -3.74128 -6.41258 7
600 1 2.40101 19.3249 3.60492 14
601 1 0.319438 -10.653 -6.49556 19
602 1 7.31168 -5.27294 -13.2609 11
603 1 -16.2644 5.04907 10.9227 15
604 1 -4.31713 8.27246 -7.09012 19
605 1 1.14128 -14.7117 8.77077 9
606 1 -12.6975 2.4112 -5.31106 19
607 1 -13.277 3.00872 1.09765 23
608 1 7.86837 -8.64508 7.21718 13
609 1 9.95862 15.388 5.86512 13
610 1 -0.236561 -12.3609 9.1583 15
611 1 -9.57365 2.21784 -4.13412 17
612 1 -4.15671 4.07742 -16.5385 10
613 1 -7.03209 4.12988 16.3913 18
614 1 11.3807 8.03011 -7.81124 14
615 1 14.6741 9.82061 11.7412 8
616 1 7.08831 2.54833 -6.61212 14
617 1 9.94459 9.3768 7.7349 17
618 1 4.18908 -11.7151 -3.78244 19
619 1 -6.62668 -0.375259 15.3222 18
620 1 13.9964 1.40528 5.31977 14
621 1 -3.37272 14.5036 17.0217 8
622 1 8.87623 10.3202 -7.86075 12
623 1 -15.3137 6.95696 -1.26876 12
624 1 6.91731 4.51947 8.61527 19
625 1 -7.97298 -14.0498 4.20495 12
626 1 15.2589 5.12881 8.06824 11
627 1 2.65183 14.8979 7.48348 15
628 1 -8.70084 7.43567 11.0547 20
629 1 -10.4508 -0.0577108 7.76332 25
630 1 -10.888 -6.1715 -11.1252 12
631 1 12.6421 7.31411 18.8972 7
632 1 -5.28219 -6.67288 15.3291 15
633 1 0.831221 6.39057 15.0443 19
634 1 -7.94735 16.139 5.97271 12
635 1 8.98641 1.79963 7.21362 17
636 1 4.50379 6.87639 8.96054 20
637 1 0.00899195 -2.20573 -11.5201 20
638 1 -13.753 -0.44262 9.63454 25
639 1 6.90933 -1.93033 -14.9454 10
640 1 -6.32342 -5.29829 -5.52153 19
641 1 7.54421 -11.1522 -3.73976 17
642 1 3.98323 9.63366 9.7898 19
643 1 3.04789 4.50398 10.1809 16
644 1 -13.1609 4.17997 16.0667 14
645 1 11.6806 2.94518 12.5427 17
646 1 -7.59047 -5.83965 12.664 22
647 1 -1.69273 2.99528 14.2646 15
648 1 0.734324 -2.23562 -8.39045 18
649 1 -13.6199 5.18356 9.64807 21
650 1 4.95135 0.619754 13.6846 18
651 1 -7.11147 -13.7798 7.4143 15
652 1 8.19642 11.4421 1.48354 19
653 1 0.456743 -7.57534 -2.21335 23
654 1 -4.02655 7.77898 -3.55602 19
655 1 1.13677 10.1389 2.06096 18
656 1 1.20231 10.3894 11.8815 19
657 1 1.11124 1.56424 -16.2302 11
658 1 5.82287 14.0683 -7.64788 11
659 1 9.88328 4.37835 1.55797 18
660 1 -6.38178 -8.1976 4.3881 18
661 1 -1.92552 -8.40562 -12.8358 15
662 1 -12.7943 10.7832 2.13891 21
663 1 8.33734 -6.43209 -10.1488 17
664 1 4.00577 4.24511 7.01025 21
665 1 10.0086 9.88398 -0.844193 15
666 1 6.07765 16.8403 0.462519 15
667 1 -8.49758 8.21616 4.71344 18
668 1 6.67316 5.08759 -0.769655 18
669 1 12.3496 6.00999 11.1107 16
670 1 11.6238 5.64674 16.5507 16
671 1 -4.92313 -10.7261 13.6696 15
672 1 -2.17954 7.33584 -9.1265 18
673 1 3.8148 12.087 12.8532 20
674 1 5.46351 -5.83896 -10.4307 19
675 1 4.04253 1.16885 15.6556 16
676 1 5.75703 18.8433 3.52079 12
677 1 7.93311 16.3432 9.06132 14
678 1 10.6819 -0.788999 3.60822 17
679 1 2.38624 6.63667 20.175 12
680 1 -15.0466 -3.92755 10.7775 18
681 1 2.75176 -17.0798 3.15634 11
682 1 2.47221 1.29932 -10.2475 20
683 1 -10.3403 16.2124 10.8864 12
684 1 -2.1002 4.82238 9.92694 20
685 1 4.27598 -3.15317 -1.71261 23
686 1 3.78018 11.838 6.59386 18
687 1 -14.622 -6.56754 6.8307 19
688 1 -5.72779 8.60537 19.3825 15
689 1 -4.69811 1.44651 -14.7606 17
690 1 -7.57956 6.55274 -13.0123 14
691 1 5.76056 -7.4363 4.06753 16
692 1 5.81586 7.58914 -8.93538 18
693 1 1.47282 -9.49925 6.59441 19
694 1 -2.96226 7.86881 5.48905 20
695 1 -13.7945 4.96187 13.1967 18
696 1 3.04442 2.06278 -13.2205 18
697 1 2.87693 -9.38895 10.5059 13
698 1 1.73927 10.2915 8.5093 22
699 1 -3.0721 2.29452 21.0502 12
700 1 -9.04411 -8.22474 -13.2327 8
701 1 -4.9664 -9.10295 -12.8324 11
702 1 -10.6273 -6.67712 -4.53886 17
703 1 -3.17297 19.2803 -1.95772 8
704 1 -0.439176 -3.23895 -4.63785 20
705 1 0.937377 4.54269 12.2985 19
706 1 -2.72146 -9.48885 -7.94566 20
707 1 8.77372 -6.48265 4.24825 18
708 1 -2.14434 -4.2892 11.5725 17
709 1 11.9452 4.81253 -5.89383 16
710 1 2.26221 -9.50864 -1.75161 22
711 1 -16.7068 -1.98231 9.71741 14
712 1 -2.52003 -11.4852 -0.0735549 17
713 1 -11.0575 -9.83001 0.825921 12
714 1 -16.0641 -0.738556 12.087 11
715 1 -3.01969 -12.6782 4.36512 15
716 1 12.691 1.56876 -7.03865 14
717 1 -0.296316 15.425 7.11272 15
718 1 -11.8691 2.7984 9.4859 21
719 1 -16.4331 7.97271 9.523 16
720 1 7.22263 -1.25112 4.6755 19
721 1 -13.0066 0.74176 -13.0335 12
722 1 -3.87197 11.1529 1.76421 19
723 1 7.64546 4.31817 -9.7303 14
724 1 8.49537 13.6365 16.6454 13
725 1 9.47737 6.82991 -0.912856 21
726 1 -12.2779 -0.206076 -4.19382 18
727 1 -15.4253 -4.97067 -6.56536 12
728 1 2.12821 12.4753 15.24 19
729 1 7.47589 7.1122 -3.13984 20
730 1 7.56246 14.6982 5.70726 20
731 1 -5.8633 1.64659 13.2701 22
732 1 -0.631305 -13.8985 3.99766 17
733 1 -5.36657 -13.7733 9.88335 15
734 1 -5.34621 -9.27598 10.7911 18
735 1 4.89915 15.0966 11.1586 18
736 1 -1.2465 -4.5633 -15.1845 10
737 1 -6.744 8.1216 1.5148 20
738 1 9.4792 1.81654 3.989 19
739 1 -11.6696 -2.95999 9.95217 21
740 1 9.94862 6.61107 -5.03374 16
741 1 -4.53415 -13.1108 -3.72347 17
742 1 0.619855 -13.9183 0.731691 13
743 1 2.58004 -15.1598 5.67666 14
744 1 4.11069 4.19412 -6.40607 19
745 1 -0.963255 20.1236 4.0322 12
746 1 -1.8014 0.889352 -16.206 15
747 1 -4.57099 4.21 14.9466 22
748 1 -0.0265405 6.61777 -13.9514 14
749 1 -12.5923 5.62271 -4.02274 20
750 1 -10.5705 -4.57722 -0.460077 20
751 1 0.297006 18.6922 -2.38971 12
752 1 6.04739 -1.07646 0.648405 19
753 1 -6.73221 -6.75974 -13.5661 14
754 1 -8.36503 -3.12302 1.41996 20
755 1 6.77079 3.53041 -3.78741 16
756 1 11.8728 -1.10574 0.839684 22
757 1 -15.3393 10.4172 11.6744 11
758 1 4.34857 -6.46642 12.8388 14
759 1 17.16 -4.02089 3.89607 4
760 1 11.7416 0.666361 6.84529 17
761 1 -6.46046 7.75812 13.1541 20
762 1 -12.7659 7.24625 14.8608 12
763 1 -7.81394 6.2066 19.6349 15
764 1 -7.08802 -12.7348 11.7598 17
765 1 6.81376 -7.89473 1.95705 24
766 1 10.0441 11.6232 14.2114 20
767 1 -13.3387 -0.282453 2.64513 18
768 1 8.39878 -2.38159 2.0323 23
769 1 -10.4074 10.3521 -0.575686 17
770 1 3.81166 7.37037 4.90375 18
771 1 4.40751 -13.8721 3.7023 16
772 1 2.89372 8.79824 18.1475 16
773 1 2.1581 14.065 17.5056 13
774 1 5.29101 -13.4108 6.82198 13
775 1 -10.8809 -1.6486 0.872298 19
776 1 -0.794759 -0.532144 19.6631 10
777 1 -10.4601 -3.44756 -3.9378 18
778 1 -0.684453 12.4972 15.958 18
779 1 7.47536 17.9976 6.2563 10
780 1 -8.87044 -9.40375 6.06753 18
781 1 -1.30789 -15.2997 7.08461 15
782 1 5.41441 -4.15716 9.81384 23
783 1 10.7063 -0.57067 11.2843 14
784 1 6.27462 6.11751 5.35883 18
785 1 -1.8719 7.88781 -1.46057 20
786 1 4.01004 -7.03915 -6.97531 18
787 1 -4.4843 1.97627 -8.89223 20
788 1 -8.4979 1.87311 15.1172 19
789 1 1.20814 14.7582 4.34005 21
790 1 15.3597 -0.229485 0.0443901 15
791 1 2.68061 5.29453 -3.04832 18
792 1 -3.33376 12.4206 14.9928 17
793 1 6.49603 12.2502 15.2822 15
794 1 5.86307 -0.0840562 -13.139 17
795 1 -5.31909 -13.2051 2.18593 16
796 1 -7.89997 -0.300148 -3.81878 15
797 1 14.0442 -4.75482 3.85222 12
798 1 4.87775 -0.843537 -10.5135 18
799 1 0.114895 7.14836 18.3459 19
800 1 9.96603 -6.21822 -5.65513 18
801 1 2.91022 6.32582 -11.9181 15
802 1 -3.9229 -6.45756 -6.70696 19
803 1 8.63219 8.05672 -10.4527 10
804 1 9.05113 0.714142 1.48661 22
805 1 -3.17282 -4.44413 14.6145 18
806 1 -0.437186 -9.21468 -10.3837 19
807 1 6.65889 13.8165 2.16935 20
808 1 -7.61606 -5.44892 3.01837 16
809 1 -10.4404 11.324 7.89907 20
810 1 12.9683 8.13311 -5.18875 11
811 1 12.9917 8.78655 9.77553 18
812 1 2.30271 -7.2184 -10.8971 19
813 1 -8.21063 9.34251 18.1574 13
814 1 12.0497 8.76781 12.5771 20
815 1 4.61397 18.0588 -2.33001 13
816 1 0.46079 7.91392 -10.888 19
817 1 5.65867 -4.44189 0.70936 21
818 1 -13.296 5.9917 2.48925 21
819 1 9.59035 13.3067 2.70665 13
820 1 -17.426 -3.95014 -4.09684 10
821 1 -9.34757 12.9401 -4.40434 14
822 1 2.17158 9.44951 14.7195 19
823 1 -7.09472 -4.7777 -8.92021 17
824 1 -14.6242 2.33587 11.0828 19
825 1 -1.81526 7.05284 -5.81323 18
826 1 12.2751 -7.10651 -1.72183 12
827 1 -12.8917 -8.97291 -4.36178 10
828 1 11.0342 -6.55004 2.53269 12
829 1 -16.4571 8.20794 5.65588 12
830 1 -17.6597 -0.350534 1.24231 12
831 1 12.177 11.7515 11.8631 14
832 1 -7.9594 -9.43367 11.597 20
833 1 11.5407 8.71775 15.9895 16
834 1 8.25716 -3.6228 8.7446 19
835 1 3.82152 -0.890417 6.6845 22
836 1 -15.7987 9.88691 0.177108 11
837 1 -0.670506 8.90153 16.3654 20
838 1 7.23152 8.48814 -6.09973 16
839 1 -0.537117 -10.6737 -12.9992 10
840 1 -7.69281 18.5667 9.97662 6
841 1 -6.29947 -9.60783 7.7174 21
842 1 6.86379 10.519 -2.01079 18
843 1 3.52503 7.54426 12.168 20
844 1 11.4435 -3.46835 -3.59247 16
845 1 10.0036 -2.8415 13.399 13
846 1 0.947189 12.9539 -6.97594 17
847 1 -0.220523 10.9443 -2.10573 18
848 1 -8.05369 -0.609588 12.8805 22
849 1 16.3696 7.15893 10.2783 9
850 1 -5.42881 -1.93248 -3.93801 19
851 1 8.08081 16.298 3.00987 15
852 1 -14.9454 3.45134 -2.16317 16
853 1 -10.7851 -9.22723 14.2758 14
854 1 1.81601 16.6234 -0.746991 19
855 1 2.74305 -10.048 13.8455 9
856 1 -0.371664 -13.0363 -5.168 18
857 1 -5.32018 15.895 4.95157 14
858 1 -16.2111 -4.25629 -1.36043 17
859 1 12.7332 -8.13696 -5.08547 10
860 1 5.14041 -9.93449 -6.41185 21
861 1 -13.0038 12.5276 4.11173 15
862 1 5.24318 13.2617 -4.30285 15
863 1 -8.59386 2.15431 11.3541 23
864 1 2.57704 -1.14673 -12.7865 21
865 1 -8.78737 -5.48655 -15.3612 12
866 1 -5.3691 -7.96524 -0.674648 17
867 1 -4.25008 14.8723 10.9949 15
868 1 3.89405 -8.63041 0.650235 19
869 1 -5.37712 8.03839 -10.872 18
870 1 13.861 -2.63129 -1.26774 16
871 1 13.507 -0.00994057 -1.98076 16
872 1 6.0766 -10.2673 -0.689815 22
873 1 -3.08003 -3.2557 -12.9386 19
874 1 12.3399 4.81384 -0.409949 17