ITEM: TIMESTEP
87000
ITEM: NUMBER OF ATOMS
5760
ITEM: BOX BOUNDS pp pp pp
-0.1342189986 32.9342189986
-0.1146295415 34.2546295415
0.3343261224 63.2656738776
ITEM: ATOMS id type x y z Coordination
1 1 33.0756 5.37755 0.793679 22
2 1 1.4493 2.44097 0.573285 23
3 1 1.63715 0.724352 3.2464 22
4 1 2.83281 5.50759 6.15576 24
5 1 1.39779 2.59538 6.03239 23
6 1 11.4662 28.9914 8.70737 21
7 1 4.78367 31.3728 6.14661 23
8 1 3.14115 9.93396 8.42908 23
9 1 3.20786 11.2757 16.3495 24
10 1 32.6963 5.28854 6.04062 21
11 1 8.40785 0.823589 13.6266 22
12 1 -0.168608 28.1539 21.38 21
13 1 32.9588 11.1978 0.624711 24
14 1 1.61794 8.08538 0.843492 22
15 1 8.32376 6.84685 3.29723 23
16 1 0.0131316 9.52626 3.16123 22
17 1 31.1716 14.3055 11.1831 25
18 1 0.217299 11.2827 5.95214 23
19 1 26.5979 9.33905 8.51172 24
20 1 31.5308 8.52065 5.9877 24
21 1 1.41541 18.3499 8.5559 21
22 1 0.345361 9.52446 8.5166 24
23 1 1.48323 8.2215 21.6356 24
24 1 32.8619 9.47886 19.0008 23
25 1 -0.0893958 17.5061 0.737117 21
26 1 1.37074 14.2141 0.756483 23
27 1 5.091 12.4235 3.17723 22
28 1 0.0931054 15.3854 3.09664 21
29 1 31.09 19.9384 5.89939 21
30 1 3.26808 11.313 5.80652 22
31 1 4.93828 31.1929 16.3172 24
32 1 3.4594 15.1677 3.3579 23
33 1 29.6282 20.7591 8.4548 22
34 1 29.8079 16.8552 15.9881 22
35 1 -0.0354652 11.5097 16.2155 21
36 1 8.25294e-04 17.6052 16.4196 21
37 1 3.20759 5.24315 0.927911 25
38 1 4.89908 2.26165 0.856148 23
39 1 6.77705 3.56737 3.19189 22
40 1 4.43915 6.22847 3.83153 26
41 1 4.73466 6.63031 8.27253 23
42 1 31.1291 2.89395 11.0021 22
43 1 8.21783 31.766 16.4154 23
44 1 3.32589 3.53526 3.2055 25
45 1 1.62874 12.4082 8.659 23
46 1 0.43503 5.71457 16.4265 22
47 1 8.44252 25.2949 11.2603 23
48 1 6.79177 3.56039 14.0954 25
49 1 3.18783 10.9188 0.844142 23
50 1 5.114 8.15873 1.23373 25
51 1 6.71589 11.2324 16.2875 22
52 1 6.84239 15.3798 8.67307 23
53 1 8.31002 14.1986 5.73888 23
54 1 6.68586 34.164 5.85425 21
55 1 3.0964 3.51524 8.70733 26
56 1 4.80156 6.50185 13.9283 22
57 1 6.78622 22.7491 16.4867 23
58 1 5.23892 2.90239 11.3183 23
59 1 11.6389 1.0057 13.803 22
60 1 31.0125 17.8588 13.547 20
61 1 4.8119 13.9491 0.317579 22
62 1 6.32229 9.33885 3.41897 22
63 1 9.57765 11.0575 5.79881 24
64 1 6.38477 5.58815 5.77225 22
65 1 0.373089 16.8808 5.92345 22
66 1 9.89096 15.6281 3.37668 24
67 1 3.27451 9.80637 13.7896 23
68 1 3.45977 20.9119 8.36898 21
69 1 1.19697 19.783 6.23268 22
70 1 1.58131 6.92203 13.7716 23
71 1 1.11549 14.3879 11.2472 23
72 1 5.1744 14.7057 6.11786 21
73 1 6.7803 5.60598 0.740916 21
74 1 8.25187 2.36718 0.405403 21
75 1 8.19508 2.88168 5.96368 23
76 1 10.0117 32.0025 8.92042 25
77 1 3.13079 5.76474 11.513 23
78 1 10.05 3.5947 8.37735 22
79 1 18.3155 1.02606 13.3499 21
80 1 8.14434 2.48359 10.966 23
81 1 8.20533 6.55494 18.7169 24
82 1 11.4837 2.90602 11.2334 22
83 1 17.9038 29.3853 13.8403 19
84 1 11.6683 2.67171 16.2357 22
85 1 6.57755 11.3923 0.714834 22
86 1 7.83802 8.51405 0.655658 22
87 1 8.01788 8.33324 6.03642 23
88 1 6.39544 11.4398 5.75634 22
89 1 4.80868 8.263 6.23814 22
90 1 11.3925 2.75314 5.69174 23
91 1 8.04881 6.37348 8.72121 24
92 1 4.91656 2.82662 5.81698 24
93 1 10.1214 32.2344 14.0926 25
94 1 6.35285 5.5816 11.5711 25
95 1 6.21693 9.4413 13.9412 25
96 1 4.94581 13.8704 16.7569 23
97 1 6.65786 16.9653 0.671803 23
98 1 8.36021 14.0382 63.2207 22
99 1 11.2812 12.5466 3.19373 24
100 1 9.77949 14.9736 8.32042 24
101 1 1.8085 18.0971 3.30234 22
102 1 1.4098 18.0012 13.5447 21
103 1 4.85701 12.3981 13.8587 22
104 1 3.66686 17.4155 5.91286 21
105 1 4.72368 8.30359 10.9679 22
106 1 1.47077 12.5168 3.25187 22
107 1 8.08052 12.0988 19.0257 24
108 1 32.6639 20.83 13.9382 24
109 1 9.96322 5.50579 0.299411 21
110 1 11.7158 2.69486 0.768422 24
111 1 11.4902 0.725045 3.41675 25
112 1 9.4567 3.40933 3.28133 22
113 1 6.67276 3.78961 8.44039 21
114 1 16.5195 31.8574 8.62795 22
115 1 17.8867 0.663944 7.82321 22
116 1 11.5787 6.33489 8.48013 25
117 1 13.3763 3.40814 8.01889 23
118 1 11.4739 6.38217 13.7132 24
119 1 8.30922 29.6184 18.9704 22
120 1 13.0849 34.0559 11.0086 21
121 1 9.78354 11.5104 0.133867 21
122 1 11.2809 8.43113 0.672102 24
123 1 11.5153 6.12544 3.03432 21
124 1 8.25294 12.4591 3.20031 25
125 1 6.38202 9.67397 8.70499 22
126 1 9.68575 5.612 6.01928 25
127 1 11.6564 8.19107 16.3609 24
128 1 8.21931 8.36507 10.8893 21
129 1 9.73435 5.2969 11.2321 24
130 1 11.5173 8.57491 10.8882 21
131 1 3.34679 9.34943 18.8716 22
132 1 2.8512 14.9077 13.8838 22
133 1 10.0485 16.7843 0.601568 21
134 1 11.719 14.1413 0.653719 22
135 1 9.77348 9.48893 3.07747 23
136 1 11.9721 18.1815 3.19689 24
137 1 19.9299 16.8634 10.6119 24
138 1 14.454 12.2345 8.35825 23
139 1 11.0072 12.3674 8.8612 24
140 1 27.6928 19.8714 11.1918 23
141 1 4.81975 12.2362 19.2275 25
142 1 12.7905 17.0565 11.3241 23
143 1 13.219 15.061 19.0831 22
144 1 7.98032 12.2279 9.08456 23
145 1 13.2274 5.53416 0.551037 24
146 1 14.8747 2.91085 0.581993 25
147 1 16.2031 -0.0921905 6.0582 24
148 1 13.1278 3.53769 3.07567 24
149 1 14.9662 1.29045 3.6234 23
150 1 14.543 2.95709 5.50905 22
151 1 26.4932 33.7873 11.12 23
152 1 13.1934 5.72887 11.4402 24
153 1 10.3581 -0.148106 16.4345 22
154 1 16.1781 3.73452 13.6248 23
155 1 16.4265 34.3901 10.9718 22
156 1 16.9571 0.0853533 16.2665 22
157 1 12.9359 11.3808 0.215211 24
158 1 14.3498 8.48853 0.508083 23
159 1 14.8095 6.55311 3.26265 24
160 1 12.8579 9.32604 3.19759 25
161 1 12.904 9.294 7.98321 20
162 1 16.3513 5.74787 5.69668 22
163 1 9.72442 9.30304 8.68611 23
164 1 10.9459 8.47827 5.81573 25
165 1 8.68568 18.3058 8.90922 24
166 1 13.1694 5.59606 16.45 22
167 1 23.3039 3.49355 13.9211 20
168 1 9.81295 11.4856 11.3434 22
169 1 13.0598 16.8226 0.827318 23
170 1 14.966 14.2778 0.654489 23
171 1 14.3912 12.1885 3.00921 21
172 1 13.0793 15.059 3.17796 25
173 1 18.0686 14.2596 5.91257 23
174 1 19.3936 11.2923 6.2402 24
175 1 13.3721 9.24798 13.9081 24
176 1 7.93987 14.4505 11.4078 23
177 1 14.5547 14.4116 10.9526 23
178 1 4.88445 20.0631 6.20423 24
179 1 17.8026 13.8622 10.7389 21
180 1 14.9682 17.7732 13.6011 22
181 2 6.53958 3.69166 10.4964 23
182 2 6.41966 3.5878 5.1232 24
183 2 32.9649 5.36583 2.70331 24
184 2 32.8993 34.1677 2.89226 24
185 2 13.1429 34.0054 13.1487 24
186 2 1.5528 9.0378 13.2037 23
187 2 32.9714 9.45721 5.24757 25
188 2 1.60703 0.792286 5.28289 25
189 2 21.618 29.625 15.9831 20
190 2 0.278786 31.9977 20.5736 23
191 2 4.50128 8.41332 13.3524 22
192 2 6.87745 32.2237 10.9497 22
193 2 3.70362 15.4638 5.38449 22
194 2 3.05338 5.5451 8.30644 20
195 2 8.30879 12.4532 5.1298 24
196 2 6.55791 11.4966 2.56455 24
197 2 4.90216 13.9624 18.6533 21
198 2 29.5159 11.5242 13.1243 25
199 2 5.16943 6.65825 15.7771 23
200 2 10.1032 33.9827 18.2706 23
201 2 3.34382 9.54383 15.7607 25
202 2 3.31523 21.2819 10.587 24
203 2 31.2075 7.00084 10.4936 23
204 2 28.4593 2.87243 12.9166 22
205 2 32.7582 11.3742 2.68222 23
206 2 27.6184 19.7328 8.02278 21
207 2 0.171764 14.9284 5.09183 24
208 2 1.88801 14.4157 2.89962 21
209 2 22.9834 17.4075 13.0017 22
210 2 1.51119 18.0297 10.6654 24
211 2 5.18597 23.6747 10.2635 23
212 2 27.864 24.1009 10.9065 21
213 2 27.7886 20.0432 13.2538 22
214 2 29.8967 22.5713 13.0851 21
215 2 3.51135 9.69161 10.2147 23
216 2 0.823735 6.43982 5.20836 24
217 2 3.15607 34.2885 2.59274 23
218 2 5.94312 9.53818 5.3449 23
219 2 4.95716 2.69402 2.67391 23
220 2 6.62384 5.69592 2.81631 23
221 2 26.3794 3.44785 15.8683 23
222 2 31.197 12.0508 10.5652 23
223 2 5.11684 0.837397 4.97645 24
224 2 6.62172 33.8938 2.69849 23
225 2 10.0552 26.4564 20.9015 24
226 2 3.03519 5.66875 13.3874 23
227 2 13.631 32.1816 21.0384 25
228 2 13.6231 3.9085 15.5175 23
229 2 1.53747 8.45658 2.9427 23
230 2 31.2201 14.3219 8.03356 23
231 2 4.87217 3.03551 8.07337 21
232 2 9.75068 11.4285 2.24774 24
233 2 2.1696 31.234 13.2044 21
234 2 1.71739 2.36482 7.95868 24
235 2 29.5099 15.0764 10.2958 24
236 2 4.71232 8.65119 8.14008 19
237 2 12.7399 0.148872 23.465 23
238 2 0.0653117 9.65245 10.4563 23
239 2 29.6665 11.5147 18.7065 21
240 2 8.33504 6.42416 20.829 24
241 2 7.96859 14.0623 8.19296 22
242 2 1.62657 12.5692 15.6081 24
243 2 7.93511 20.0066 2.41532 23
244 2 6.65822 20.7344 5.24353 23
245 2 31.0959 8.88228 13.6561 21
246 2 8.17717 8.25606 7.99168 24
247 2 29.5832 22.7111 8.08613 23
248 2 4.58444 8.17235 2.97879 22
249 2 1.67339 20.0967 3.14625 20
250 2 31.0742 17.8159 10.6544 22
251 2 4.89987 12.0606 15.8575 23
252 2 28.0165 12.1619 10.5114 25
253 2 9.91467 3.92032 5.1576 24
254 2 6.43066 5.52114 7.81526 24
255 2 8.04394 8.56442 2.62418 22
256 2 8.02243 2.04349 2.39995 22
257 2 16.7725 -0.036999 12.8461 24
258 2 6.20636 32.351 5.68368 23
259 2 9.77692 3.64207 10.4529 23
260 2 27.7776 6.6968 10.8528 21
261 2 9.1672 29.6362 10.4119 23
262 2 11.1293 6.06742 20.8525 22
263 2 6.6336 3.57996 20.7028 25
264 2 4.99668 0.990821 15.5307 24
265 2 17.9038 6.4461 5.11914 23
266 2 24.643 14.3443 8.08609 19
267 2 4.82251 14.6995 8.07591 22
268 2 6.62331 11.5232 7.91221 25
269 2 9.88955 5.53342 13.1077 24
270 2 4.97031 8.13954 18.3325 23
271 2 6.34282 9.2665 10.5577 24
272 2 7.72103 6.71308 5.23027 23
273 2 6.72026 5.52212 18.4373 24
274 2 3.17499 5.43272 18.1315 24
275 2 4.92842 2.62518 13.2172 26
276 2 4.7977 6.26492 10.9983 22
277 2 3.22752 17.4536 8.41429 23
278 2 6.90045 15.3112 15.7961 21
279 2 4.85866 20.0954 3.17015 22
280 2 12.6835 11.342 7.63968 24
281 2 4.41705 6.26304 5.72369 22
282 2 32.6678 17.0836 8.21014 24
283 2 29.6681 11.4538 7.7469 23
284 2 11.4193 13.9409 7.77625 23
285 2 3.83055 5.23969 23.7129 21
286 2 3.32782 20.8818 20.9188 23
287 2 1.59865 14.3804 18.9755 19
288 2 7.7025 8.40908 13.3727 22
289 2 11.5371 31.2729 12.9144 25
290 2 12.88 3.87647 10.6839 21
291 2 12.6668 9.50416 5.39784 20
292 2 16.4062 31.9737 10.7886 22
293 2 19.9916 3.84049 10.906 21
294 2 9.99224 34.0228 13.7726 21
295 2 11.3741 8.04598 2.72553 22
296 2 11.5506 0.575497 5.17616 25
297 2 8.17589 0.718152 10.6189 22
298 2 8.44071 2.51438 18.2161 24
299 2 14.768 12.2048 10.6337 22
300 2 16.484 10.8861 18.4996 24
301 2 19.6861 5.54227 8.11356 26
302 2 11.3927 8.05005 7.67391 24
303 2 8.31529 14.6085 2.8631 22
304 2 13.3535 5.4981 2.6422 23
305 2 8.34686 6.44925 16.1988 23
306 2 6.50184 5.70078 13.4409 23
307 2 2.85181 9.24297 5.52877 23
308 2 11.3318 8.29331 12.7834 25
309 2 14.9475 6.33224 15.8704 24
310 2 31.4522 6.76748 15.9377 25
311 2 6.91249 15.3767 5.57172 24
312 2 8.4579 6.39131 10.4786 23
313 2 6.38851 11.1801 13.0819 24
314 2 3.19378 14.6986 16.0065 22
315 2 11.2612 18.0158 10.7582 21
316 2 16.0576 22.5282 13.5785 21
317 2 8.60925 17.7739 20.8203 23
318 2 14.9672 6.38382 10.4406 22
319 2 11.5719 6.23799 15.7001 23
320 2 8.16293 12.5077 11.0183 21
321 2 10.129 32.5127 16.0511 22
322 2 13.1226 5.43831 18.4538 23
323 2 16.4578 11.0142 7.30465 22
324 2 14.3373 14.1325 7.74071 22
325 2 14.8954 2.93249 2.64728 24
326 2 13.2947 5.45508 7.59889 24
327 2 16.3283 9.50516 5.08188 25
328 2 16.1958 5.4158 2.46376 23
329 2 18.2241 0.812732 5.78177 21
330 2 10.1802 32.5359 11.1552 21
331 2 11.1976 6.50493 5.24537 22
332 2 3.18245 3.94605 10.7733 21
333 2 10.0839 3.48215 15.6222 25
334 2 8.24176 3.02822 12.939 24
335 2 14.8372 23.5711 10.3695 25
336 2 15.1245 0.770598 21.1765 24
337 2 18.0208 2.82864 8.08268 21
338 2 14.816 6.97966 5.28917 21
339 2 14.5621 12.3731 63.044 23
340 2 17.9203 8.61076 2.60079 22
341 2 11.7144 2.83146 7.79946 25
342 2 23.1623 3.49615 10.442 24
343 2 12.7288 11.2872 2.74571 24
344 2 16.4167 15.2109 5.23223 23
345 2 14.9384 14.0344 18.4257 24
346 2 20.189 5.30465 18.2623 23
347 2 9.49491 9.48047 4.95274 24
348 2 11.2578 6.8102 10.3882 24
349 2 15.8261 11.2894 2.61234 22
350 2 16.456 17.0262 2.69943 23
351 2 11.1017 12.2124 5.13393 25
352 2 10.1279 17.4662 2.72283 22
353 2 23.2897 3.69049 15.8261 24
354 2 10.0889 16.7559 7.90618 24
355 2 14.5963 12.1893 5.385 22
356 2 14.7794 17.9488 5.45402 22
357 2 17.8454 12.0034 15.6441 24
358 2 0.366808 17.4353 18.2123 21
359 2 16.4867 26.0118 15.7359 22
360 2 8.14801 13.8793 18.333 25
361 1 26.5789 5.3626 16.6021 22
362 1 31.3355 8.85224 16.4931 21
363 1 5.10669 2.7498 21.3607 23
364 1 31.0074 2.71224 21.7645 22
365 1 0.0527903 9.39942 24.1033 23
366 1 1.61824 6.31991 24.5105 26
367 1 6.38167 34.2167 27.5309 23
368 1 29.6021 14.9574 13.9783 23
369 1 33.036 5.59217 26.8379 21
370 1 31.173 6.24882 29.1466 23
371 1 29.2804 3.56166 29.5772 25
372 1 31.0849 31.5651 27.0103 22
373 1 32.9999 17.2774 11.1159 23
374 1 31.4769 14.058 16.5339 22
375 1 1.75181 6.43796 18.9954 24
376 1 29.5948 11.5505 16.5994 23
377 1 24.0989 13.6693 26.4943 21
378 1 29.9014 16.8519 21.143 21
379 1 31.3296 12.5093 19.3359 25
380 1 0.0850837 11.5589 21.915 23
381 1 29.8643 11.6326 26.7462 22
382 1 23.3805 5.5397 27.2955 23
383 1 -0.0367663 9.28075 29.5435 25
384 1 27.6755 17.8197 29.3302 22
385 1 27.984 18.0155 13.6637 21
386 1 31.5103 17.7297 18.5742 20
387 1 29.4141 9.61219 19.0534 21
388 1 3.04644 21.23 24.1378 22
389 1 29.3547 20.6638 18.8455 23
390 1 29.7471 15.0431 24.7376 25
391 1 28.0721 12.1682 24.1089 22
392 1 1.19709 14.3128 27.1935 22
393 1 4.7584 20.0066 16.275 22
394 1 31.3546 18.2111 29.4991 21
395 1 8.64727 18.2109 18.9609 23
396 1 4.76068 8.07458 32.0156 23
397 1 6.47924 33.9436 22.0426 24
398 1 9.87 28.8763 16.4649 22
399 1 28.1464 8.24276 16.7454 23
400 1 6.65691 5.24623 27.0472 24
401 1 2.94825 9.11598 24.1918 23
402 1 3.36032 3.51178 18.7749 23
403 1 2.74687 4.98851 27.1842 23
404 1 7.68732 0.955002 24.7708 24
405 1 10.0057 33.8669 21.84 21
406 1 6.07222 9.33673 29.7036 23
407 1 3.12925 3.49255 29.447 24
408 1 33.0365 3.76172 29.3729 22
409 1 29.47 20.8517 13.7275 19
410 1 8.19266 8.55259 16.6104 24
411 1 8.46038 6.58342 13.8448 23
412 1 32.9328 15.4936 24.2774 24
413 1 29.8945 9.49683 24.1809 22
414 1 9.95319 32.4421 24.2819 23
415 1 9.45318 9.59541 19.0289 24
416 1 1.4261 18.6544 24.2772 23
417 1 1.56329 12.4843 29.3492 22
418 1 2.56316 11.2869 26.7303 22
419 1 1.59947 12.589 24.3334 23
420 1 7.82797 12.2223 29.2162 20
421 1 1.52747 24.0858 13.4797 22
422 1 6.34936 11.4474 21.7274 24
423 1 1.81603 0.951545 19.2413 23
424 1 24.1674 19.488 16.6084 25
425 1 28.185 13.8221 21.869 23
426 1 31.9543 13.8778 27.014 22
427 1 3.00018 9.66466 29.3972 22
428 1 2.78496 17.1076 26.5975 20
429 1 3.036 15.4113 24.295 24
430 1 4.89149 18.3263 29.493 25
431 1 6.1469 10.9122 26.507 21
432 1 4.51708 20.1044 26.351 23
433 1 13.1293 9.44819 19.1177 20
434 1 11.3238 29.4402 19.2302 23
435 1 8.32234 29.1849 14.2126 23
436 1 4.91165 8.66479 16.5056 23
437 1 8.54256 2.47679 16.2657 25
438 1 3.15508 3.53671 24.4182 24
439 1 13.0742 0.0326503 26.8738 23
440 1 4.55029 0.507681 29.6261 24
441 1 6.50223 3.60449 24.2709 23
442 1 7.69241 6.70932 29.5577 22
443 1 6.23326 3.71736 29.5864 23
444 1 4.6673 6.38257 29.4049 24
445 1 9.75665 14.876 13.9488 24
446 1 9.63747 3.87508 13.8253 23
447 1 13.7051 34.3075 16.8305 23
448 1 9.88187 5.20141 27.243 23
449 1 6.37833 9.12359 18.9649 23
450 1 29.7829 11.1169 21.6307 22
451 1 13.1599 5.59888 27.1207 23
452 1 10.0152 5.55698 16.6605 24
453 1 11.5169 8.59612 26.9849 24
454 1 4.49574 7.97358 26.9425 23
455 1 9.52161 9.23207 29.5015 23
456 1 1.45596 6.57859 29.4358 22
457 1 3.32601 14.884 19.1669 22
458 1 3.29491 17.0515 16.3931 21
459 1 13.347 16.9992 21.6054 22
460 1 4.67179 8.5099 21.3419 22
461 1 31.2223 6.57919 19.0697 21
462 1 13.141 17.2787 27.153 25
463 1 6.4565 9.38141 24.1733 22
464 1 8.16391 14.3251 26.6834 20
465 1 4.4707 14.3842 26.865 24
466 1 7.88986 12.048 24.3546 23
467 1 2.8553 15.3558 29.5596 22
468 1 2.72375 17.528 32.0731 22
469 1 0.204829 32.5493 8.7731 23
470 1 16.7092 34.0631 21.7582 23
471 1 11.7574 31.4636 21.4423 23
472 1 31.5174 0.711035 19.3151 23
473 1 9.78379 34.3767 11.3635 24
474 1 16.5695 3.72408 24.4499 22
475 1 14.8878 31.611 27.0067 24
476 1 5.06261 6.43879 24.2392 23
477 1 19.6522 3.74313 24.6209 22
478 1 11.2612 2.66362 27.1122 25
479 1 9.35291 3.55537 29.5846 23
480 1 11.2126 6.63879 29.9212 23
481 1 18.1655 8.05598 10.6402 23
482 1 14.8409 6.37855 18.9011 21
483 1 17.9136 31.1397 16.4841 24
484 1 4.92308 6.35232 18.8698 23
485 1 4.65062 12.3339 24.3111 22
486 1 3.62737 5.38034 21.4779 22
487 1 8.19091 6.3391 24.087 24
488 1 11.3412 19.8169 21.6085 23
489 1 9.12283 11.2742 26.7632 21
490 1 9.57974 15.181 24.5001 23
491 1 7.8453 8.14418 26.7017 21
492 1 11.25 12.0506 29.4241 20
493 1 31.1609 20.0783 16.3623 22
494 1 4.79822 18.0731 13.616 21
495 1 9.72524 5.56289 21.7148 24
496 1 11.341 19.988 26.655 21
497 1 32.951 11.305 27.0551 22
498 1 12.874 9.68406 24.393 21
499 1 9.78141 9.20812 24.6788 24
500 1 27.7703 19.4563 16.1914 23
501 1 8.06602 20.0362 26.7221 23
502 1 11.2218 14.2066 27.3495 23
503 1 11.2034 14.0945 32.0472 22
504 1 9.35957 15.1382 29.4725 22
505 1 12.9821 5.54737 21.8497 23
506 1 18.1975 6.83614 13.7329 24
507 1 9.91445 26.4094 18.9503 24
508 1 22.1871 26.9957 19.502 19
509 1 18.0869 6.04498 19.2277 22
510 1 11.7107 2.40491 21.5435 21
511 1 7.64462 0.627573 29.4734 23
512 1 11.3055 6.5419 19.0197 24
513 1 13.0379 9.53606 29.7646 24
514 1 12.7394 3.60413 29.8447 23
515 1 16.5411 32.2831 24.3163 23
516 1 11.311 0.819776 29.4996 22
517 1 16.3537 11.059 16.4722 24
518 1 11.6921 11.8459 13.8304 24
519 1 14.9949 8.14819 16.5677 22
520 1 11.5705 13.994 21.6862 22
521 1 14.4677 6.81664 24.3049 22
522 1 14.8884 8.66924 26.9872 22
523 1 16.636 5.48433 16.3615 22
524 1 11.3016 12.2938 24.0824 22
525 1 11.3772 17.946 24.189 22
526 1 15.9886 9.60136 29.9745 23
527 1 14.2247 6.52543 29.591 23
528 1 14.6632 12.4279 29.7903 25
529 1 8.17322 14.1149 16.2794 22
530 1 11.409 11.9544 19.2499 23
531 1 20.0549 3.60035 19.3288 25
532 1 6.0501 15.1178 24.203 22
533 1 15.9411 15.4011 24.0658 21
534 1 19.7555 22.7603 21.3548 21
535 1 14.7454 14.1198 21.6278 24
536 1 16.5203 16.9127 16.4428 26
537 1 10.9697 25.4787 26.6784 21
538 1 16.0779 16.7504 27.113 21
539 1 13.158 15.2968 24.7861 26
540 1 9.70463 23.0025 27.0614 24
541 2 8.08406 8.40304 23.8007 23
542 2 29.6145 3.94435 21.2071 23
543 2 24.6177 0.385213 21.0277 22
544 2 1.44963 3.03402 13.0633 24
545 2 4.93285 2.58511 23.6199 24
546 2 1.61711 6.3698 31.6531 24
547 2 27.6958 8.61088 18.6548 21
548 2 31.595 6.3467 21.0423 23
549 2 1.2226 0.782385 32.2296 21
550 2 32.7537 3.9938 31.2226 24
551 2 19.6137 3.96707 15.8558 21
552 2 1.54528 2.376 29.1514 22
553 2 29.7278 5.33846 18.4364 23
554 2 31.464 8.38021 23.9651 24
555 2 29.9933 11.4043 23.7417 23
556 2 3.28472 11.4972 13.2914 22
557 2 26.2369 9.50266 26.4077 20
558 2 31.2825 14.0913 29.9789 18
559 2 29.534 9.78001 26.6605 23
560 2 31.5016 14.3599 18.5036 24
561 2 5.03345 6.20928 31.2183 24
562 2 0.343068 11.0084 28.9348 23
563 2 0.0299135 9.30581 31.5714 22
564 2 1.52649 8.40838 28.8486 24
565 2 -0.0760107 28.467 13.1785 21
566 2 28.0258 23.955 26.0204 24
567 2 6.59865 26.848 15.8218 22
568 2 27.6266 19.7834 18.2401 21
569 2 3.54593 15.2983 21.218 22
570 2 4.46419 17.9922 26.1382 22
571 2 6.49437 14.972 21.2116 23
572 2 -0.179964 15.0484 21.549 19
573 2 1.26073 12.3679 31.3755 26
574 2 32.925 15.3695 32.0905 22
575 2 29.6446 17.2102 28.9541 23
576 2 1.82705 18.1002 15.6769 23
577 2 31.3138 12.4405 21.3802 21
578 2 4.73283 0.639367 26.6301 25
579 2 9.58245 3.57886 21.0015 22
580 2 31.7542 29.979 10.6305 20
581 2 9.4618 0.406018 29.1589 25
582 2 6.15369 8.84615 26.1256 23
583 2 8.00631 2.8342 23.5252 24
584 2 2.05437 6.52923 26.4962 24
585 2 4.61549 0.386946 31.7074 22
586 2 3.51437 3.59131 31.4927 22
587 2 -0.0519651 5.56265 23.996 24
588 2 4.90028 2.22142 28.7944 24
589 2 2.0661 6.7753 15.9107 22
590 2 6.47677 9.56544 21.016 22
591 2 4.86391 6.38201 20.7057 26
592 2 32.7283 17.021 13.2523 25
593 2 3.27577 5.38158 29.0727 22
594 2 31.3409 8.49329 29.0745 23
595 2 -0.194491 20.7547 10.5881 23
596 2 1.51907 12.6818 26.1857 25
597 2 6.5269 5.48851 28.8679 25
598 2 3.26862 9.60546 31.3729 23
599 2 1.38001 14.3499 29.3047 22
600 2 6.43703 9.13017 31.6103 21
601 2 4.57396 12.1218 20.9927 23
602 2 27.965 14.3604 18.3899 24
603 2 0.060692 9.71653 15.7013 23
604 2 31.3914 17.9254 15.6768 25
605 2 2.94616 11.0961 23.7946 24
606 2 4.86404 20.1977 29.0979 22
607 2 0.451566 11.1368 23.6263 22
608 2 1.27187 18.2548 26.2002 23
609 2 4.38636 12.1856 31.9516 21
610 2 3.05163 15.6966 31.5675 23
611 2 8.2658 19.791 28.6078 24
612 2 4.69212 11.8398 26.2358 22
613 2 12.9581 32.6938 25.6159 25
614 2 4.22971 8.30426 28.9665 22
615 2 31.5482 13.8912 24.0199 23
616 2 6.82565 3.53809 15.9525 22
617 2 7.69468 2.48843 28.8921 24
618 2 6.60193 34.0144 24.1487 21
619 2 6.18123 11.2688 23.7437 24
620 2 6.70444 5.39824 23.5887 22
621 2 7.84252 0.630676 31.7452 23
622 2 6.40436 3.4715 31.4951 25
623 2 6.7972 3.51831 26.1009 23
624 2 10.7915 14.1257 23.6182 24
625 2 17.8761 2.52739 24.3694 20
626 2 9.577 9.04812 21.1314 23
627 2 22.8452 15.1535 16.0343 22
628 2 3.16302 9.51595 20.7105 24
629 2 14.2625 6.52645 20.8942 22
630 2 6.26058 11.2725 29.2323 20
631 2 3.26373 3.47571 20.7803 23
632 2 3.28701 11.4793 28.5313 22
633 2 8.38089 6.27497 31.7199 23
634 2 8.13241 12.4095 31.0322 26
635 2 4.47173 14.4281 29.0734 21
636 2 7.82299 8.52558 28.7254 23
637 2 9.76214 11.542 18.3235 23
638 2 4.72168 20.072 23.5603 25
639 2 29.6694 14.8833 15.8783 21
640 2 31.2701 12.2829 15.702 25
641 2 8.23079 6.39741 26.7325 20
642 2 7.71557 18.3123 25.8955 23
643 2 3.05779 17.5799 28.5924 22
644 2 6.47703 9.40883 16.1994 21
645 2 9.40647 15.3079 31.3582 22
646 2 6.37563 15.2612 31.0376 23
647 2 13.0913 17.2631 29.2228 21
648 2 6.4648 17.5301 28.732 21
649 2 1.49719 1.26616 10.5415 22
650 2 14.7906 2.71478 18.8915 21
651 2 16.3746 9.21751 15.9034 25
652 2 6.87209 34.2057 13.1914 25
653 2 3.00799 8.98041 26.0658 22
654 2 11.5857 13.9695 18.527 21
655 2 4.95914 8.11746 23.3324 25
656 2 9.94247 15.2128 26.4175 21
657 2 11.6584 0.616453 31.4208 24
658 2 9.63444 3.33954 31.5841 24
659 2 11.5518 8.40401 29.1695 21
660 2 5.24693 2.57921 18.4266 23
661 2 11.4982 2.87531 23.3833 23
662 2 13.1751 9.78838 26.381 23
663 2 26.186 3.72259 27.1419 21
664 2 13.4142 3.75332 21.153 21
665 2 8.07949 12.3336 21.5143 24
666 2 17.4937 8.49432 23.9819 21
667 2 7.55598 14.1421 23.8194 22
668 2 25.9681 11.188 18.4085 23
669 2 11.072 6.73681 31.7973 21
670 2 9.34545 9.00311 31.454 22
671 2 6.34047 15.1479 26.3093 23
672 2 14.8173 14.3565 28.8001 24
673 2 4.00635 13.9912 23.6016 23
674 2 11.4314 12.3126 26.1205 26
675 2 -0.0432406 15.3093 26.1671 21
676 2 3.3357 16.7983 18.3586 23
677 2 10.9321 11.9618 21.3299 22
678 2 18.1916 17.9332 26.2858 24
679 2 9.74248 17.0761 29.0521 23
680 2 9.58016 14.9256 20.9643 23
681 2 11.2961 12.1056 31.749 21
682 2 12.0247 20.0197 28.7493 21
683 2 7.90324 20.125 23.6268 23
684 2 7.65902 12.1105 26.3255 22
685 2 8.1738 31.4126 18.3551 25
686 2 9.81274 0.0635842 23.6054 22
687 2 16.726 32.6075 16.1956 20
688 2 13.2842 28.1583 18.5054 23
689 2 17.8379 31.4554 28.9971 23
690 2 17.3821 8.40797 29.0771 23
691 2 21.5451 6.4821 21.2249 24
692 2 19.6794 3.39226 26.7169 22
693 2 14.8616 1.27203 31.8726 21
694 2 13.007 3.79755 31.6574 23
695 2 11.1724 2.82029 29.1039 23
696 2 9.59116 5.44777 29.1679 23
697 2 11.9062 31.2306 18.6927 23
698 2 9.80903 5.49767 23.8295 22
699 2 16.2489 11.2534 23.4723 25
700 2 13.114 5.54239 13.3546 23
701 2 16.0656 5.54757 29.313 21
702 2 12.9591 11.5126 29.2523 22
703 2 17.7865 14.1674 23.5861 24
704 2 14.7944 6.60017 26.6216 23
705 2 14.7785 6.74382 31.4693 25
706 2 12.9971 9.20234 31.9202 23
707 2 12.6077 5.37373 28.8851 22
708 2 9.54111 11.2951 29.1159 21
709 2 10.9385 19.883 18.2742 23
710 2 14.2913 14.4401 23.8248 23
711 2 4.56031 14.296 13.4827 22
712 2 11.7283 2.52494 18.1284 25
713 2 16.5052 9.51789 26.5158 21
714 2 20.8757 18.0776 20.7825 21
715 2 9.78283 17.0557 23.6191 23
716 2 15.5363 15.2809 26.0696 20
717 2 14.2782 12.2791 31.8371 23
718 2 12.8011 15.2215 31.7264 20
719 2 9.69283 22.5417 28.9355 24
720 2 14.7216 12.3154 26.787 22
721 1 32.4622 23.22 63.3575 23
722 1 1.9726 19.8128 0.839272 21
723 1 5.09326 18.3919 3.50421 23
724 1 3.2654 16.8569 0.546015 23
725 1 3.09084 22.9111 6.38159 23
726 1 31.444 18.35 3.30184 23
727 1 32.6194 26.7887 8.26203 20
728 1 29.8056 23.0337 6.09062 25
729 1 31.2826 25.7812 5.94464 23
730 1 31.4676 23.862 18.9569 21
731 1 1.36445 25.9199 10.6515 21
732 1 29.7762 28.9089 10.9287 21
733 1 32.7186 28.595 0.733723 24
734 1 1.21721 25.6859 0.758107 25
735 1 2.89284 26.5813 3.41607 22
736 1 -0.0139107 26.2601 3.50224 24
737 1 31.459 29.7387 3.58305 24
738 1 1.79759 1.08654 13.6107 21
739 1 3.31556 0.38411 11.0012 23
740 1 3.09346 26.7854 8.33916 21
741 1 3.14755 -0.0673161 16.1464 24
742 1 -0.144727 28.7132 5.89299 24
743 1 25.9593 22.5818 16.3875 24
744 1 31.5248 31.005 16.263 19
745 1 -0.213463 34.3995 0.879971 26
746 1 1.28247 31.2575 0.721932 24
747 1 0.00440882 34.208 5.88969 24
748 1 2.95444 32.3402 3.36928 23
749 1 31.1987 1.01773 3.25146 22
750 1 3.12281 28.4628 5.98653 23
751 1 6.67144 32.4197 8.97222 22
752 1 29.7723 28.7993 6.26922 24
753 1 26.2642 32.0441 8.54804 24
754 1 31.5434 31.752 11.0975 19
755 1 3.26794 3.72714 13.54 23
756 1 -0.279669 0.311603 11.3726 24
757 1 3.19056 22.8538 0.596453 23
758 1 5.1241 20.1315 1.08924 23
759 1 6.55023 15.2054 2.9001 21
760 1 3.33638 21.02 3.61784 24
761 1 32.7357 22.9443 5.74667 22
762 1 9.77663 17.093 6.00334 25
763 1 3.31415 23.1179 10.7142 21
764 1 1.76082 29.6847 8.37959 22
765 1 1.42304 23.9008 8.28412 24
766 1 8.06111 11.9954 13.7561 23
767 1 1.39815 12.1072 19.0748 23
768 1 1.77146 29.4237 13.9011 24
769 1 2.71252 28.3741 0.505416 23
770 1 4.63543 25.7034 0.738143 23
771 1 4.74956 23.6185 3.20799 20
772 1 1.598 29.2296 3.03451 21
773 1 6.90158 28.4672 11.1219 22
774 1 8.70669 31.296 11.3885 24
775 1 8.24576 23.6475 8.29984 23
776 1 0.143824 28.81 11.1497 22
777 1 28.4744 31.3 16.5311 22
778 1 1.60261 31.3805 5.97543 25
779 1 6.52815 21.124 13.6756 21
780 1 27.8772 29.6641 14.1105 23
781 1 3.18432 33.6067 0.674042 22
782 1 4.82733 30.9496 0.785998 22
783 1 4.87966 29.1136 3.06646 20
784 1 6.56154 32.2609 3.51286 21
785 1 -0.28039 32.3986 3.57199 23
786 1 11.5289 0.756997 8.4501 22
787 1 0.00927539 32.4624 13.892 23
788 1 29.5834 32.4402 8.72484 25
789 1 5.08934 31.7216 11.3438 23
790 1 29.7135 32.3717 13.7136 21
791 1 11.4301 23.7827 18.5951 24
792 1 4.8505 1.01394 8.41101 22
793 1 6.35137 22.7922 0.912591 24
794 1 8.163 19.7745 0.575189 22
795 1 9.86095 21.1933 3.19762 24
796 1 8.0235 18.1209 3.42708 24
797 1 6.68537 22.7563 5.80471 21
798 1 12.7981 11.446 5.708 22
799 1 4.94783 23.9205 8.35739 22
800 1 31.3312 23.7192 8.43326 25
801 1 6.6687 22.8073 11.1646 23
802 1 6.7752 21.0288 8.86753 25
803 1 9.75636 16.87 11.4715 25
804 1 1.71904 19.9854 10.8794 22
805 1 6.50743 28.444 0.659768 22
806 1 8.34364 25.6475 0.94125 22
807 1 7.94253 23.5933 3.54326 25
808 1 6.5047 26.3036 3.25098 22
809 1 10.1621 20.8535 8.18198 24
810 1 4.9704 18.0258 8.9172 22
811 1 11.5384 23.4803 8.45305 23
812 1 6.40016 -0.155749 11.2206 22
813 1 14.4356 29.1696 8.92512 24
814 1 5.23675 29.4267 8.74633 23
815 1 11.6257 25.406 11.024 22
816 1 4.87883 20.2857 11.1888 20
817 1 6.18124 34.0291 0.917377 24
818 1 8.07179 31.81 1.05344 22
819 1 7.82116 29.3041 3.73868 21
820 1 7.91277 31.4332 6.40328 24
821 1 10.3374 28.5471 11.366 23
822 1 11.533 31.2701 6.44837 25
823 1 10.0345 26.3984 8.28925 24
824 1 8.44443 0.961204 8.56157 22
825 1 31.1688 8.90559 11.5088 23
826 1 1.86899 31.6517 11.1561 23
827 1 19.8117 34.3332 10.719 20
828 1 1.84249 31.3886 16.3567 22
829 1 9.64641 22.412 0.850048 24
830 1 11.579 20.0201 0.64619 22
831 1 14.6549 23.9045 3.1204 24
832 1 6.73239 20.8873 3.37628 24
833 1 11.2689 14.0055 5.79471 23
834 1 13.0566 20.986 3.50985 22
835 1 9.56642 9.11029 13.5387 22
836 1 8.25803 19.9274 6.27539 24
837 1 13.2305 11.4802 16.4361 24
838 1 3.44483 11.7013 11.1035 22
839 1 6.41154 15.1042 19.2402 24
840 1 11.2261 23.3101 13.6292 22
841 1 9.68079 28.6567 0.838896 23
842 1 11.2458 25.4632 0.831785 22
843 1 10.1679 22.5299 5.95385 22
844 1 11.5119 23.9124 3.11483 23
845 1 7.11078 28.3342 6.09583 22
846 1 9.65049 26.6831 3.3301 21
847 1 4.99264 25.7483 5.87906 22
848 1 8.30632 25.3804 5.94723 24
849 1 9.99484 22.5956 11.0921 23
850 1 10.0351 26.5859 13.73 23
851 1 6.6624 28.7673 16.3724 25
852 1 3.24596 26.553 13.962 25
853 1 9.90183 -0.227229 0.281169 21
854 1 11.7225 31.5777 1.01497 23
855 1 11.6136 29.6973 3.46472 23
856 1 8.17257 0.511643 3.43784 26
857 1 9.80527 34.1537 5.95026 22
858 1 13.3847 0.00856505 6.23345 25
859 1 4.62137 14.5286 11.58 24
860 1 2.9508 21.1156 13.6375 21
861 1 14.7536 31.2151 11.6127 25
862 1 15.2593 23.9303 8.44784 24
863 1 5.01374 25.7322 11.2375 23
864 1 6.65128 32.2013 13.6576 23
865 1 12.9219 22.9063 0.501536 21
866 1 14.6378 19.9835 1.03648 25
867 1 13.2967 17.1137 5.85634 25
868 1 14.6073 25.7605 6.05715 24
869 1 11.4898 25.5252 5.71252 23
870 1 10.8972 14.303 11.3299 24
871 1 11.4861 17.874 8.73898 25
872 1 11.5266 19.9558 5.63924 20
873 1 11.5691 19.8928 11.1659 24
874 1 13.0966 20.8817 8.13964 22
875 1 14.3354 23.7761 13.6516 22
876 1 11.5002 13.9394 16.2295 24
877 1 12.8697 28.8148 1.02067 25
878 1 14.6564 25.905 0.72646 25
879 1 17.8902 23.9983 3.43984 26
880 1 13.1662 26.9077 3.35613 21
881 1 9.88346 28.7816 5.63591 23
882 1 13.2681 28.6643 5.72585 23
883 1 8.33342 29.6948 8.3596 21
884 1 15.0877 19.626 10.8483 20
885 1 21.6544 0.959595 8.65408 22
886 1 19.7439 26.306 14.1075 24
887 1 4.8287 24.1653 19.0289 22
888 1 8.23948 19.6818 11.3245 25
889 1 13.3855 -0.249492 1.05128 23
890 1 14.6869 31.7288 0.556488 21
891 1 14.963 29.8496 3.18694 22
892 1 13.3385 32.935 3.59186 22
893 1 19.7462 5.76573 5.64363 21
894 1 17.9675 31.3906 5.50687 21
895 1 9.6014 32.7259 3.47624 21
896 1 13.4435 32.3558 8.66302 23
897 1 16.1289 32.5507 13.7918 21
898 1 23.0976 -0.219396 16.0851 22
899 1 17.8389 23.5623 13.9719 23
900 1 21.7399 25.6256 11.0456 20
901 2 4.83773 14.2214 2.50125 23
902 2 3.48898 17.2002 2.94106 23
903 2 32.7508 22.8577 2.32437 23
904 2 8.4523 23.4514 5.81908 22
905 2 1.43736 23.6847 20.7928 23
906 2 23.2927 26.6491 15.5556 23
907 2 1.88558 31.5458 7.77663 23
908 2 30.2485 15.3165 5.0127 21
909 2 -0.203377 26.4857 20.4881 24
910 2 1.67962 18.021 21.1405 22
911 2 29.3905 21.0406 10.5438 22