ITEM: TIMESTEP
84000
ITEM: NUMBER OF ATOMS
5760
ITEM: BOX BOUNDS pp pp pp
-0.15975635 32.95975635
-0.1015827222 34.2415827222
0.3724294012 63.2275705988
ITEM: ATOMS id type x y z Coordination
1 1 33.098 5.74125 0.338341 21
2 1 1.37227 2.77559 0.63228 23
3 1 1.12403 0.946453 3.47365 23
4 1 3.11811 5.65332 5.87189 24
5 1 1.91389 2.7707 6.06906 23
6 1 11.3029 29.375 8.61405 23
7 1 4.94601 31.6175 6.05102 22
8 1 3.31775 9.37998 8.86568 24
9 1 2.80082 11.2947 16.3832 22
10 1 32.6352 5.47151 6.0127 25
11 1 8.19465 0.869105 13.7196 20
12 1 32.7476 28.5376 21.8548 23
13 1 32.7141 11.2842 1.1722 25
14 1 1.53714 9.01922 0.7079 21
15 1 8.43817 6.89539 3.53704 22
16 1 0.061322 9.14553 3.46988 20
17 1 31.3822 14.2451 11.2298 25
18 1 -0.33602 11.2049 5.94452 23
19 1 26.4903 9.71596 8.85896 22
20 1 31.3638 8.44258 6.02755 24
21 1 1.44086 17.8991 8.87246 24
22 1 0.092064 9.52747 8.61849 22
23 1 1.68422 8.05366 21.6367 23
24 1 0.145931 9.04926 19.2008 23
25 1 -0.0617845 16.837 0.442439 22
26 1 1.40656 13.8746 0.669952 20
27 1 5.08078 12.3362 3.6256 22
28 1 -0.235143 15.2623 3.34419 24
29 1 31.2838 19.9865 5.68988 24
30 1 2.80475 11.1598 6.15521 21
31 1 4.98527 30.7283 16.4708 22
32 1 3.22568 15.3046 3.18187 21
33 1 29.3007 20.8697 8.22905 22
34 1 29.4802 17.1425 16.451 23
35 1 32.9812 11.0334 16.619 25
36 1 32.9698 17.5002 16.8678 24
37 1 3.43544 5.37431 0.351047 22
38 1 4.98319 2.45557 0.845661 24
39 1 6.64578 4.24669 3.42044 23
40 1 4.9884 6.62576 3.48214 26
41 1 4.66128 6.53285 8.67479 22
42 1 31.3451 2.8976 11.2067 22
43 1 8.1446 31.085 16.3145 23
44 1 3.45902 3.60685 3.30583 23
45 1 1.45713 12.1909 8.86459 25
46 1 0.195937 5.41981 16.2545 23
47 1 8.15391 25.6914 11.2947 24
48 1 6.02886 3.61018 13.7348 23
49 1 3.36085 11.1068 0.897543 22
50 1 4.44653 8.09355 1.01659 23
51 1 6.50228 10.7841 16.5584 23
52 1 6.16706 15.0213 7.74273 20
53 1 8.19206 14.1349 5.86702 19
54 1 6.57501 -0.159424 6.21119 23
55 1 2.95245 3.81183 8.66751 24
56 1 4.89513 6.1124 13.7104 21
57 1 6.3102 23.1576 16.4019 20
58 1 4.64285 2.49105 10.9599 23
59 1 11.6595 0.745914 14.0752 23
60 1 31.2974 17.7957 14.0348 24
61 1 4.85675 14.0253 0.78396 23
62 1 6.43894 9.37093 3.03466 19
63 1 9.81654 11.369 5.95763 22
64 1 6.45408 5.86861 6.13313 25
65 1 32.571 17.2775 5.84409 22
66 1 9.87806 15.0658 3.1873 22
67 1 3.10398 9.36351 13.6184 23
68 1 3.21013 21.1552 8.31064 25
69 1 1.5767 20.2513 5.85841 21
70 1 1.86959 6.47961 13.8633 26
71 1 1.17136 14.2358 11.1975 23
72 1 4.45192 14.1891 5.80788 23
73 1 6.57044 5.69666 0.569436 22
74 1 8.28244 2.89118 1.13546 23
75 1 8.04049 2.53862 5.7119 24
76 1 10.1285 32.4358 8.95703 24
77 1 3.15445 5.16372 10.9972 25
78 1 9.55772 3.48477 8.53689 23
79 1 18.1279 0.613607 13.7019 21
80 1 8.06434 2.63803 11.3215 23
81 1 7.67773 6.31676 19.3585 24
82 1 11.4591 2.83024 11.4292 25
83 1 18.076 29.5318 13.7269 21
84 1 11.3539 3.04803 16.9452 24
85 1 6.61267 11.1062 0.939753 23
86 1 8.13343 8.36193 0.632058 23
87 1 8.40318 8.53506 6.25102 24
88 1 6.36497 11.3295 6.11795 24
89 1 5.08468 8.55566 6.39555 24
90 1 11.4418 2.67982 5.48588 22
91 1 7.99933 6.45076 8.61949 22
92 1 4.93487 2.83778 6.12922 22
93 1 9.85457 32.4879 13.8021 21
94 1 6.32105 5.52522 10.7654 23
95 1 6.56035 9.17218 13.6106 22
96 1 5.00597 13.979 16.022 20
97 1 6.31487 16.8384 0.863467 23
98 1 8.09904 14.0468 0.586427 22
99 1 11.557 12.3852 3.50514 23
100 1 9.5299 14.9939 8.67972 22
101 1 1.7535 17.6171 3.60009 24
102 1 1.34443 18.2928 13.944 23
103 1 4.76421 12.3706 14.0448 22
104 1 3.09406 17.4174 6.30479 24
105 1 4.55366 8.26261 11.6522 23
106 1 1.35142 12.3689 3.48603 22
107 1 7.99381 12.3461 18.9731 24
108 1 0.143798 21.1566 13.8694 22
109 1 9.60166 5.45581 0.594668 21
110 1 11.7343 2.66661 1.00563 22
111 1 11.4205 0.923483 3.27999 24
112 1 9.60387 3.63709 3.26991 23
113 1 6.27555 3.70563 8.62526 26
114 1 16.1676 32.4322 8.4451 21
115 1 17.6963 0.901155 8.65249 23
116 1 11.3469 6.31703 8.44312 24
117 1 12.8382 3.40511 8.45843 22
118 1 11.1312 6.28961 14.0821 24
119 1 8.54292 29.3843 19.0966 22
120 1 13.1492 0.415301 11.447 22
121 1 9.88554 10.9861 0.902645 24
122 1 11.1552 8.24782 0.721901 23
123 1 11.5548 6.41766 3.38138 23
124 1 8.44643 12.2205 3.55189 25
125 1 6.56621 9.56169 8.75531 22
126 1 9.63704 5.29902 6.18687 23
127 1 11.4397 8.75332 16.4319 22
128 1 8.37641 8.52105 11.4405 23
129 1 9.73922 5.5081 11.2119 25
130 1 11.4382 8.33976 11.1006 23
131 1 3.39062 9.27852 19.182 23
132 1 2.76491 15.2865 13.6897 21
133 1 10.0189 16.8977 0.352046 24
134 1 11.6024 13.9675 0.80149 22
135 1 10.1744 9.26077 3.51003 21
136 1 11.6577 17.4088 3.40716 24
137 1 20.0305 17.1146 11.3719 23
138 1 14.8647 12.5093 8.52995 23
139 1 11.7802 12.55 8.44603 21
140 1 28.0121 20.0454 10.8513 19
141 1 4.94116 12.477 18.5726 23
142 1 13.2354 17.4981 10.8286 22
143 1 12.7769 15.301 18.8895 22
144 1 7.90051 12.0763 8.98538 22
145 1 13.1097 5.70009 0.281899 22
146 1 14.7968 2.69216 0.506587 21
147 1 16.3237 34.2894 6.02934 23
148 1 13.4921 3.79855 3.2057 20
149 1 14.7079 0.774979 3.49808 23
150 1 14.2922 2.67892 6.04428 23
151 1 26.5027 -0.119244 11.3501 24
152 1 12.7229 5.48624 11.0769 23
153 1 10.133 34.2355 16.6042 23
154 1 16.5031 3.84685 13.7266 22
155 1 16.4271 33.9276 11.0018 20
156 1 16.5761 -0.0384685 16.3014 23
157 1 12.7343 11.4148 0.530081 22
158 1 14.5559 8.83089 0.194953 20
159 1 14.7451 6.72814 2.89397 20
160 1 12.943 9.59905 3.27516 21
161 1 13.0719 9.10847 8.87219 24
162 1 16.5305 6.22799 6.03205 21
163 1 9.77107 9.43962 8.58233 22
164 1 11.4702 8.50582 6.28502 22
165 1 7.96994 17.7489 8.70114 23
166 1 13.0289 5.56912 16.3022 23
167 1 23.2624 3.6527 13.8557 22
168 1 9.83498 11.4313 11.0308 20
169 1 13.2177 17.0682 0.719278 21
170 1 14.9665 13.9561 0.850383 24
171 1 14.7197 11.7663 3.22268 21
172 1 13.5052 14.7833 3.16473 23
173 1 18.0234 13.9653 6.5183 24
174 1 19.918 11.3488 6.04707 22
175 1 12.9648 9.60542 13.8429 23
176 1 7.61444 14.2593 11.0631 21
177 1 14.8201 14.423 11.3362 21
178 1 4.80773 19.9133 5.83064 23
179 1 18.046 14.1128 10.9098 20
180 1 14.6332 18.3393 13.3088 21
181 2 6.42212 3.421 10.6395 23
182 2 6.51672 4.0834 5.41363 23
183 2 -0.0625156 6.05401 2.25354 22
184 2 32.9045 0.20909 2.21815 24
185 2 13.172 0.160803 13.3987 23
186 2 1.56522 8.39239 13.6567 20
187 2 0.0136088 9.29598 5.33623 26
188 2 1.14312 0.80707 5.49174 22
189 2 21.7511 29.3048 15.7126 23
190 2 32.6821 32.4556 21.3426 22
191 2 5.06455 7.92312 13.6874 21
192 2 6.69408 32.0478 10.212 25
193 2 3.03356 15.5498 5.39255 23
194 2 2.97988 5.78591 7.92041 26
195 2 8.08847 12.398 5.36135 23
196 2 6.82587 11.2232 2.76196 23
197 2 4.92569 14.3653 18.0618 23
198 2 29.5942 11.0791 13.3555 24
199 2 4.92051 6.42272 16.1896 23
200 2 9.64271 0.110839 18.763 23
201 2 3.30179 9.25992 15.6968 23
202 2 3.10107 21.1115 10.3851 25
203 2 31.5647 7.05815 10.7079 22
204 2 28.3497 2.96023 13.2277 22
205 2 -0.164939 11.1226 3.12141 19
206 2 27.6616 19.9797 7.84403 21
207 2 0.011638 15.3538 5.36844 24
208 2 1.1658 14.0005 2.80794 21
209 2 23.1403 17.4504 13.2301 22
210 2 1.5489 18.6814 10.9471 21
211 2 4.87005 23.8669 10.5235 25
212 2 27.8659 24.1798 10.559 22
213 2 28.1136 19.7552 12.8971 24
214 2 29.7683 22.2542 12.6612 22
215 2 3.17636 9.4663 11.105 22
216 2 1.44642 6.3888 5.26752 25
217 2 2.79002 34.0848 2.75823 24
218 2 6.60384 9.38065 5.60376 24
219 2 5.2322 2.74537 2.96066 22
220 2 6.32258 5.70387 2.46942 26
221 2 26.148 3.64362 15.8474 24
222 2 31.3547 12.1269 11.0636 22
223 2 4.86544 0.689122 5.32261 24
224 2 6.13601 -0.122732 2.83993 22
225 2 9.59902 26.4458 21.64 23
226 2 3.41817 5.29841 12.902 23
227 2 12.8184 32.1573 20.7929 23
228 2 13.059 3.76723 16.0084 24
229 2 1.72275 8.38031 2.48647 22
230 2 31.8906 14.5082 7.60338 22
231 2 4.46033 2.97589 7.94663 24
232 2 10.0556 11.1153 2.98508 23
233 2 1.61793 31.5371 13.1964 26
234 2 1.25412 2.87347 7.90524 23
235 2 29.7055 15.1517 10.8687 21
236 2 5.08119 8.3988 8.33595 23
237 2 13.2155 33.7661 23.5304 22
238 2 32.9245 9.30081 10.9769 22
239 2 29.7762 11.089 18.9941 20
240 2 8.24018 6.64879 21.2284 22
241 2 7.94518 14.1389 7.94849 23
242 2 1.10852 12.1655 15.7168 21
243 2 8.09523 19.3949 2.34867 21
244 2 6.70393 20.8384 5.07896 23
245 2 31.7752 8.31072 13.9921 21
246 2 8.40619 8.32681 8.03907 23
247 2 29.3803 22.8343 7.45108 24
248 2 4.71056 8.3608 2.90897 21
249 2 1.97825 19.1067 2.53623 21
250 2 31.5395 18.1272 11.0062 22
251 2 4.62112 11.863 16.0162 22
252 2 28.2353 12.5242 10.6866 25
253 2 9.82769 3.66221 5.12093 23
254 2 6.37208 5.55457 8.26784 22
255 2 8.08738 8.70058 2.67361 23
256 2 8.16739 2.70611 3.06838 20
257 2 16.251 34.0799 13.135 23
258 2 6.47392 32.1376 5.37969 22
259 2 9.40575 3.68016 10.5456 25
260 2 28.1755 6.56532 10.7901 23
261 2 8.50409 29.8442 10.4779 22
262 2 11.0614 6.83499 21.4286 21
263 2 6.37937 3.26909 21.3121 24
264 2 4.96521 0.521295 15.7918 22
265 2 18.1151 6.69452 5.27146 21
266 2 24.9301 14.4275 7.97177 24
267 2 4.58382 14.3799 8.1255 22
268 2 6.28717 11.1701 8.29508 22
269 2 9.68918 5.20568 13.1263 21
270 2 5.22286 8.13679 18.6852 23
271 2 6.31191 9.21658 11.3712 19
272 2 8.16151 6.23699 5.28992 22
273 2 6.37799 5.10181 18.2758 24
274 2 3.34081 5.2126 18.3064 22
275 2 4.47383 2.49209 13.2009 22
276 2 4.48595 6.63364 10.6128 22
277 2 3.14392 16.8007 8.18438 22
278 2 6.51251 15.0861 15.3574 23
279 2 4.88647 19.8462 2.52713 26
280 2 13.2495 10.9226 8.23329 22
281 2 4.77267 6.68774 5.56757 21
282 2 32.8238 17.3814 8.17096 22
283 2 29.5013 11.5323 8.05227 23
284 2 11.4971 14.5578 8.15029 20
285 2 3.76709 4.9723 23.6458 23
286 2 3.06893 20.9575 21.4511 23
287 2 1.45223 13.7948 18.6409 22
288 2 8.49133 8.32301 13.2641 21
289 2 11.4742 31.468 13.4193 22
290 2 13.0779 3.84747 10.3375 25
291 2 12.7908 9.52508 5.32209 23
292 2 16.5907 32.0532 10.4034 23
293 2 19.9907 3.87296 10.4711 22
294 2 9.86601 -0.00138321 13.5931 24
295 2 11.7301 8.23057 2.48213 26
296 2 11.1437 0.755986 5.33433 23
297 2 8.10026 0.859529 10.7602 24
298 2 8.28241 2.96342 18.6409 22
299 2 15.047 12.5045 10.7357 21
300 2 15.9862 11.4376 18.2985 22
301 2 19.8951 5.40213 7.98932 24
302 2 11.4787 8.38602 8.20239 20
303 2 7.96771 14.2602 3.16175 21
304 2 13.1925 5.67225 2.54656 22
305 2 8.41769 6.01413 15.6809 22
306 2 6.41724 5.30756 13.1456 25
307 2 3.47372 9.42208 5.63379 22
308 2 11.4875 8.03123 13.2215 23
309 2 14.7231 6.46815 15.6836 23
310 2 31.5555 6.34236 15.982 21
311 2 6.31174 14.8336 5.54846 21
312 2 8.09316 6.64458 10.6203 23
313 2 6.43062 11.2822 13.2868 24
314 2 3.2524 15.1073 15.7099 23
315 2 11.4256 17.9458 10.607 22
316 2 16.3232 23.1669 13.1661 22
317 2 8.58463 18.0211 21.2425 22
318 2 14.6504 6.08613 10.5698 24
319 2 11.446 6.74499 15.9418 25
320 2 8.00882 12.309 11.0207 24
321 2 9.60282 32.2127 16.1939 21
322 2 12.6156 5.6755 18.7477 21
323 2 16.2345 11.1595 7.91521 23
324 2 14.6926 14.2489 7.76217 25
325 2 13.5217 2.3016 2.1436 20
326 2 13.121 5.33404 8.1212 22
327 2 16.8508 9.54366 5.27721 22
328 2 16.6173 6.35013 2.87614 20
329 2 17.651 1.09275 5.38039 22
330 2 9.64078 32.6881 10.71 21
331 2 11.6374 6.32899 5.91824 20
332 2 3.21943 3.36753 10.5348 24
333 2 9.94549 3.56189 16.1004 24
334 2 8.34616 3.01111 13.1344 22
335 2 14.3861 23.2484 9.92743 25
336 2 14.6056 0.91063 20.9333 22
337 2 18.3963 2.51766 7.62723 22
338 2 14.2414 7.06859 4.90653 23
339 2 14.4131 12.692 62.5926 23
340 2 18.6083 8.75891 2.47074 24
341 2 11.5735 2.83421 7.40344 24
342 2 23.2032 3.80569 10.4802 22
343 2 12.9317 11.4764 2.59544 23
344 2 16.3693 15.1306 5.66421 24
345 2 14.6503 14.4096 18.4077 21
346 2 19.9637 5.47308 18.4253 22
347 2 9.79425 9.44098 5.64382 22
348 2 11.2737 6.63434 10.4361 22
349 2 16.5984 11.5828 2.75431 21
350 2 16.6673 17.1822 3.07749 22
351 2 11.3855 12.6028 5.49591 22
352 2 9.87324 17.2164 3.17154 19
353 2 23.1374 3.7092 15.9699 24
354 2 9.57501 17.2798 8.22187 21
355 2 14.5716 11.7818 5.5476 22
356 2 14.5947 17.918 5.25836 22
357 2 18.016 12.1615 15.9332 23
358 2 0.148453 16.9261 18.6058 23
359 2 16.4883 26.468 16.4443 20
360 2 8.2539 14.3734 18.3086 24
361 1 26.5508 5.4869 16.254 24
362 1 31.5162 8.35602 16.3179 20
363 1 4.59557 2.61892 21.5608 21
364 1 31.0761 2.92162 21.8681 22
365 1 0.212863 9.22778 24.2472 22
366 1 1.47784 6.40262 24.3061 22
367 1 6.6298 34.1344 27.2685 21
368 1 29.7624 15.3441 13.9492 23
369 1 -0.228159 5.52949 27.1259 23
370 1 30.9358 6.63086 29.488 20
371 1 29.4008 3.5064 29.5955 23
372 1 31.5174 31.2564 27.273 24
373 1 0.141721 17.301 11.3601 24
374 1 31.3131 14.4516 16.3512 20
375 1 1.76567 6.02924 19.294 22
376 1 29.9381 11.1298 17.0399 23
377 1 24.3886 13.7782 26.9919 24
378 1 29.9601 17.1028 21.7516 22
379 1 31.4302 12.3196 19.0228 22
380 1 0.0725669 11.0233 21.6814 22
381 1 29.9169 11.3576 26.8128 22
382 1 22.9555 5.37117 26.6343 23
383 1 0.0693111 9.47568 29.4621 22
384 1 27.6991 17.8133 29.1463 22
385 1 27.8098 17.7896 13.3655 21
386 1 31.3777 17.935 19.1885 25
387 1 30.115 8.95893 19.1792 24
388 1 3.29252 20.754 24.1738 22
389 1 29.8201 20.4577 19.0204 24
390 1 29.2022 14.9316 24.0871 22
391 1 28.0293 12.0523 24.3624 24
392 1 1.23987 14.6608 26.9662 22
393 1 5.1627 20.1368 16.7238 23
394 1 31.0716 18.0578 29.2706 22
395 1 8.09942 17.7221 19.1348 22
396 1 4.5996 8.72138 32.2741 22
397 1 6.51797 34.0546 21.7554 22
398 1 9.7358 28.548 16.4673 24
399 1 27.6675 8.60912 16.6848 23
400 1 6.16859 5.78207 27.25 22
401 1 3.12927 9.4699 24.0524 23
402 1 3.04669 3.04593 18.8383 24
403 1 2.9923 5.17247 27.2862 25
404 1 8.27147 0.867205 24.1603 21
405 1 10.1401 0.135984 21.9517 21
406 1 6.36252 9.11549 29.6656 24
407 1 2.68065 3.70855 29.8675 23
408 1 32.7284 3.44008 29.7375 23
409 1 29.3558 20.6799 13.7112 23
410 1 8.16078 8.05743 16.5337 24
411 1 8.59448 6.57367 13.7308 23
412 1 32.6968 15.1991 23.9991 22
413 1 29.761 9.58014 24.3912 22
414 1 9.55857 31.9728 24.1428 22
415 1 9.92839 9.3138 19.3541 25
416 1 1.21683 18.3699 24.6321 23
417 1 1.38235 12.5567 29.327 21
418 1 3.40519 11.1086 27.104 23
419 1 1.39158 12.3718 24.1803 23
420 1 7.85592 12.4483 29.4457 23
421 1 1.74693 23.7409 13.65 24
422 1 6.14115 10.6749 21.597 24
423 1 1.87985 0.426054 19.2658 23
424 1 24.7972 20.1776 16.4585 25
425 1 27.9621 14.3024 21.1828 20
426 1 31.2456 14.0041 26.7197 20
427 1 3.04244 9.50702 29.6315 24
428 1 3.13912 16.8496 26.8872 24
429 1 2.93854 15.3839 24.1584 24
430 1 4.68566 17.5446 29.6476 22
431 1 6.57874 11.091 26.9664 24
432 1 4.9882 19.7262 26.9292 24
433 1 13.3912 9.39539 19.0048 22
434 1 11.5636 29.3412 18.9328 22
435 1 8.30945 29.2143 13.7463 23
436 1 4.79339 8.18936 15.8642 21
437 1 8.3578 2.5975 16.526 24
438 1 3.48865 3.28657 24.3553 23
439 1 13.004 34.2724 26.8873 24
440 1 4.94543 0.876664 29.1843 19
441 1 6.3109 3.62169 24.5632 24
442 1 7.96441 5.8549 29.2085 23
443 1 6.06319 3.30307 29.8514 21
444 1 4.6643 6.35666 29.9217 26
445 1 9.52752 14.8721 13.4408 22
446 1 9.61165 3.7174 14.3069 27
447 1 13.2439 34.401 16.5818 23
448 1 9.80239 5.84427 27.1769 24
449 1 6.83707 9.3634 19.0799 21
450 1 29.4631 11.039 21.5121 23
451 1 13.0675 5.7101 27.0479 24
452 1 10.0763 5.79092 16.9602 25
453 1 11.5291 8.55249 27.0322 23
454 1 4.71099 8.30536 26.7702 22
455 1 9.6203 9.38889 29.5688 22
456 1 1.5344 6.38297 29.8713 24
457 1 2.99455 15.1782 18.5744 19
458 1 3.30987 16.8402 16.2974 22
459 1 13.1242 17.1038 21.4698 23
460 1 5.00941 7.96532 21.7688 24
461 1 31.4359 6.21249 18.9165 22
462 1 13.1074 17.1223 26.4988 19
463 1 6.48324 9.74182 24.3131 23
464 1 7.94711 14.28 26.8034 23
465 1 4.46404 14.2969 26.7616 23
466 1 8.21035 12.3408 24.4335 24
467 1 3.42586 14.6221 29.4256 23
468 1 2.6036 16.6705 32.081 20
469 1 0.0698457 32.5488 9.07009 25
470 1 16.3051 0.0978638 21.4744 20
471 1 11.5543 31.032 21.552 22
472 1 31.0963 1.04552 19.1231 24
473 1 10.0185 -0.0801801 11.5524 24
474 1 16.4362 3.83651 24.4883 23
475 1 15.0518 31.3885 27.2062 23
476 1 5.00817 6.49107 24.4288 24
477 1 19.7128 3.86842 24.2788 22
478 1 11.2647 2.66365 27.0735 23
479 1 9.72863 3.71181 29.9651 21
480 1 11.3567 6.43442 29.7599 23
481 1 17.8873 8.64244 11.4038 23
482 1 14.6633 6.34767 19.0924 23
483 1 18.0457 31.1096 16.7014 24
484 1 4.98258 6.22296 18.5827 21
485 1 5.00787 12.7997 24.2501 21
486 1 3.3387 5.32367 21.7456 21
487 1 8.018 6.66819 24.4762 25
488 1 11.1977 19.9136 21.9719 25
489 1 9.82751 11.2686 26.9493 22
490 1 9.56333 15.1046 24.4584 24
491 1 8.08327 8.53449 27.0304 22
492 1 10.9556 12.0634 29.5203 23
493 1 31.2197 19.7704 16.5912 21
494 1 4.65559 18.379 13.8408 22
495 1 9.63884 5.62782 22.202 22
496 1 11.1493 19.9289 26.8675 22
497 1 0.072264 11.1591 26.355 19
498 1 13.2646 9.7089 24.2723 23
499 1 9.51507 9.56214 24.0361 22
500 1 27.8101 19.6149 16.5355 22
501 1 7.89225 20.1958 26.8078 23
502 1 11.4469 14.4402 26.7347 24
503 1 11.3713 14.234 31.9031 24
504 1 9.55256 14.965 29.3894 23
505 1 12.8993 5.90084 21.759 22
506 1 18.1806 6.31505 13.2896 19
507 1 9.94279 26.3396 19.7817 24
508 1 23.0303 26.5767 19.1134 25
509 1 18.3332 6.32651 18.8676 24
510 1 11.508 3.03875 22.0857 21
511 1 8.21534 0.71951 30.0332 20
512 1 11.3799 6.82467 19.4573 24
513 1 13.2134 9.35256 29.9835 23
514 1 13.1207 3.76923 29.6245 23
515 1 16.496 32.4941 24.1042 20
516 1 11.3961 0.810786 29.5369 22
517 1 16.303 11.4082 16.0406 20
518 1 11.5335 12.1629 13.5575 22
519 1 14.6423 8.42433 16.4499 21
520 1 11.4968 14.3154 21.5708 22
521 1 14.1142 6.70356 24.298 21
522 1 14.5526 8.75182 26.9201 23
523 1 16.3467 5.58676 16.3835 24
524 1 11.4271 12.4802 24.2123 24
525 1 11.2449 17.9351 24.4432 23
526 1 16.5066 9.88313 29.3366 21
527 1 14.8027 6.2873 29.7936 20
528 1 14.6692 12.4291 29.5244 25
529 1 7.7139 13.7977 16.5026 24
530 1 11.4081 12.5334 18.7167 23
531 1 20.1487 3.8185 19.3213 24
532 1 6.45406 15.2661 24.1362 22
533 1 16.3217 15.287 24.1233 22
534 1 19.6991 22.9823 21.8858 22
535 1 14.8176 14.1424 21.4307 22
536 1 16.2959 17.2681 16.1444 23
537 1 11.6423 25.7617 27.0522 23
538 1 16.5657 17.2296 27.3658 27
539 1 12.931 15.1071 23.9759 21
540 1 10.01 22.8328 26.5519 22
541 2 7.7459 8.83448 23.3569 22
542 2 29.6131 3.77364 21.0327 25
543 2 24.6317 0.784297 20.7488 26
544 2 1.59302 2.70024 13.6695 21
545 2 5.34991 2.18096 23.4022 23
546 2 1.34534 6.81657 31.7067 24
547 2 27.7679 8.29961 18.7502 24
548 2 31.5121 6.34713 21.0415 25
549 2 1.36894 0.666053 31.5488 24
550 2 33.0703 3.86169 31.4636 22
551 2 19.8272 3.6822 16.0841 20
552 2 1.18277 2.69433 28.9429 22
553 2 29.504 5.61495 18.6239 22
554 2 31.6372 8.27671 23.8973 23
555 2 29.2313 11.1633 23.3172 22
556 2 3.00853 11.3417 13.7159 19
557 2 26.4728 9.5759 26.1802 23
558 2 30.891 13.9855 28.6947 23
559 2 29.8824 9.51687 26.3418 22
560 2 31.6806 14.3795 18.3112 24
561 2 4.65916 6.62851 31.9653 21
562 2 0.0209034 11.3748 28.7467 25
563 2 -0.222415 9.52781 31.7788 21
564 2 1.64384 8.17012 29.0567 23
565 2 0.0801893 28.5684 13.4595 23
566 2 28.0992 22.6867 25.7063 18
567 2 6.67664 26.3228 15.7365 23
568 2 28.2012 19.8566 18.3664 22
569 2 2.89341 15.3479 20.5187 24
570 2 4.71476 17.9346 26.2775 24
571 2 6.4886 15.239 20.8067 24
572 2 32.7065 15.2825 20.9967 22
573 2 1.12026 12.1977 31.3172 23
574 2 32.8251 15.4262 31.7569 20
575 2 29.556 17.1335 28.7086 23
576 2 1.63438 18.1065 16.1013 23
577 2 31.5431 12.2161 21.1878 20
578 2 4.82423 0.668759 27.0294 22
579 2 9.32049 3.76988 21.5718 23
580 2 31.5573 29.7319 11.0378 23
581 2 9.72622 34.3189 29.1307 24
582 2 6.21162 9.40595 26.1684 24
583 2 8.0301 2.7107 24.2695 22
584 2 1.37204 6.21408 26.3724 22
585 2 4.5291 0.367293 32.1088 22
586 2 3.1979 4.04218 31.6649 22
587 2 32.8773 5.57666 23.9497 21
588 2 4.27017 2.69517 29.0058 20
589 2 2.10613 6.37411 15.5755 23
590 2 6.39607 9.08871 20.9086 22
591 2 5.01417 6.14609 21.0239 23
592 2 32.8213 17.0603 13.3282 23
593 2 2.87365 5.46932 29.2348 22
594 2 31.1145 8.69565 28.8386 21
595 2 33.0135 20.9556 10.5693 23
596 2 1.70975 12.2355 26.4726 20
597 2 5.95066 5.12529 29.0227 20
598 2 3.22012 9.54666 31.3062 24
599 2 1.26896 14.2815 28.6728 23
600 2 6.11318 9.60342 31.706 23
601 2 4.49183 12.3448 20.6742 24
602 2 27.9126 14.0465 18.484 22
603 2 0.350583 9.05371 16.3306 22
604 2 31.2779 18.1426 15.9309 23
605 2 3.1419 11.5178 23.7813 24
606 2 5.09676 19.3865 28.7796 22
607 2 0.569509 10.967 23.5908 20
608 2 1.50548 18.0613 26.3781 23
609 2 4.67985 12.4099 31.5773 25
610 2 2.99547 14.921 31.3586 25
611 2 7.85713 19.8002 28.9895 24
612 2 4.82448 12.1792 26.0011 24
613 2 13.0178 32.3817 26.3521 23
614 2 4.73265 8.202 29.1944 25
615 2 30.9097 13.9057 23.5807 21
616 2 6.43686 3.72382 15.7264 24
617 2 8.23175 2.69293 29.8014 19
618 2 6.60708 34.1029 23.8195 23
619 2 6.35541 11.578 23.316 24
620 2 6.77169 5.30027 23.7999 24
621 2 7.90213 0.657089 32.0119 21
622 2 5.94477 3.73437 31.7077 22
623 2 6.59955 3.9389 26.5512 25
624 2 11.126 14.302 23.6984 24
625 2 18.2122 2.82307 23.8699 23
626 2 9.75209 9.95301 21.2725 23
627 2 22.9487 15.1309 16.1591 22
628 2 3.22098 9.26398 21.287 23
629 2 14.7947 6.70769 21.1056 23
630 2 6.37522 11.0799 28.8469 24
631 2 3.09626 3.24123 20.9699 22
632 2 3.61822 11.2133 29.2354 23
633 2 7.76847 6.38837 31.5463 22
634 2 8.13819 11.9557 31.3875 24
635 2 4.8027 13.708 28.6244 24
636 2 8.11531 8.09216 29.0015 23
637 2 9.83354 11.1432 18.3664 23
638 2 5.10448 19.7361 23.9711 22
639 2 29.7039 15.2293 15.9073 19
640 2 31.5326 12.4245 16.2189 21
641 2 8.22439 6.36113 26.518 22
642 2 8.14944 18.2752 26.3139 23
643 2 3.18861 16.5387 28.797 23
644 2 6.64419 9.01427 15.8419 21
645 2 9.67278 15.2436 31.5344 24
646 2 6.62003 14.587 31.3001 24
647 2 13.0748 17.0323 28.778 24
648 2 6.41462 16.8008 28.7649 24
649 2 1.35979 0.876559 10.8275 23
650 2 14.5417 2.81218 18.5169 23
651 2 16.4228 9.45591 16.0605 22
652 2 6.56802 34.1358 13.315 24
653 2 3.25389 9.45412 26.3235 22
654 2 11.1913 14.4449 17.9944 26
655 2 4.89662 8.66244 23.828 21
656 2 9.45178 15.2402 26.3053 23
657 2 11.1122 1.12193 31.4743 24
658 2 9.72124 3.89611 31.8724 23
659 2 11.2235 8.23804 29.0918 22
660 2 4.84972 2.30517 18.3753 25
661 2 11.2565 2.69873 24.2352 22
662 2 12.8252 9.7734 26.1342 24
663 2 26.1896 3.50503 26.5034 24
664 2 13.1703 3.84443 21.4805 19
665 2 7.69271 12.3715 20.7514 22
666 2 17.9492 8.65766 23.4682 23
667 2 7.91219 14.2556 23.8274 23
668 2 26.802 11.0145 18.5579 22
669 2 11.3022 6.63579 31.7872 21
670 2 9.22768 9.47917 31.403 21
671 2 5.86664 15.5102 26.2423 23
672 2 14.7731 14.1523 28.6903 24
673 2 4.68605 14.3719 23.32 23
674 2 11.7112 12.5605 26.1423 24
675 2 32.7713 15.1937 25.9625 23
676 2 3.18517 17.1174 18.4552 22
677 2 11.4379 12.7126 20.8053 25
678 2 17.9877 18.0569 26.3317 25
679 2 9.43018 17.0024 28.8351 24
680 2 9.71676 15.2453 20.9909 24
681 2 11.3537 12.1419 31.59 23
682 2 11.6274 20.0088 29.0464 21
683 2 8.21891 19.8803 23.6882 24
684 2 8.14287 12.3525 26.3509 24
685 2 8.28415 31.58 18.4347 24
686 2 10.0365 33.8812 24.03 19
687 2 16.4432 32.1483 15.8264 23
688 2 13.1429 28.4712 18.2738 24
689 2 17.9351 31.1602 28.8143 21
690 2 18.2531 8.81961 28.6683 23
691 2 21.4486 6.53586 21.2193 22
692 2 19.6985 4.06882 26.4646 22
693 2 14.2526 0.714175 31.4943 22
694 2 13.3754 3.92589 31.7769 24
695 2 11.2522 2.83077 29.2292 22
696 2 9.97798 5.42842 29.1256 19
697 2 11.5161 31.4258 18.4051 24
698 2 9.80081 6.38414 24.0394 22
699 2 16.1986 11.5394 23.8426 22
700 2 12.9622 5.56385 13.1466 24
701 2 16.3255 5.83697 28.576 25
702 2 12.8169 11.1434 29.068 23
703 2 17.9865 14.2076 23.6319 21
704 2 14.6392 6.95283 26.2749 23
705 2 14.8733 6.76721 31.6322 22
706 2 13.096 9.3271 31.8566 21
707 2 13.1485 5.71317 29.0373 23
708 2 9.22941 11.4896 28.7531 22
709 2 11.3328 20.2164 18.4592 21
710 2 14.4944 14.211 23.5894 23
711 2 4.01703 13.8979 12.9144 20
712 2 11.3487 3.21004 18.7953 22
713 2 16.3135 9.60785 26.0276 23
714 2 20.9773 18.1632 21.0076 22
715 2 9.34981 17.0472 23.8988 22
716 2 16.6374 15.2264 26.468 21
717 2 14.6595 12.4314 31.4925 23
718 2 12.735 15.1881 31.0061 25
719 2 9.93369 22.5007 28.7187 23
720 2 14.528 12.5179 26.2304 24
721 1 32.9336 22.667 0.675596 23
722 1 1.51276 19.568 0.567204 23
723 1 5.1453 18.3219 3.698 23
724 1 3.18476 16.9441 0.785999 23
725 1 2.86859 22.7741 5.76494 23
726 1 31.1029 17.957 2.80371 21
727 1 -0.296696 26.2821 8.209 23
728 1 29.4052 22.9756 5.40118 22
729 1 31.1106 25.9596 5.8746 24
730 1 31.2825 23.7188 19.179 25
731 1 1.30326 25.6863 11.3393 23
732 1 29.8547 28.2989 11.4654 26
733 1 0.40498 28.496 0.309558 22
734 1 2.10069 25.3157 63.1958 20
735 1 3.584 26.5768 2.94008 19
736 1 0.481599 26.5874 3.17836 23
737 1 31.2699 29.6531 3.14211 25
738 1 1.45635 0.671473 14.178 25
739 1 3.14569 34.0088 11.348 24
740 1 2.97069 26.6299 8.76599 24
741 1 3.4351 33.6837 16.369 22
742 1 32.8507 28.425 5.95496 23
743 1 26.443 23.3505 15.8015 20
744 1 32.0062 31.1998 16.3371 21
745 1 32.8071 -0.0296191 63.238 22
746 1 1.39182 31.5639 0.6358 22
747 1 32.6933 33.938 6.14047 23
748 1 3.32777 32.1532 3.27368 24
749 1 31.5914 1.07096 2.84859 21
750 1 3.06732 28.813 5.64767 21
751 1 6.51739 32.2152 8.35747 21
752 1 29.482 28.4149 5.59205 21
753 1 26.5945 32.4488 8.64604 25
754 1 31.461 31.8373 11.2056 22
755 1 3.24079 3.68873 13.9424 24
756 1 -0.091885 34.2455 11.2789 23
757 1 2.98628 22.4619 0.512143 22
758 1 4.8436 19.723 0.720098 24
759 1 6.42781 15.287 3.48482 24
760 1 3.14187 20.3978 2.91751 21
761 1 32.7466 23.0003 5.67111 23
762 1 9.43528 17.3585 6.09599 21
763 1 3.25567 23.2412 11.05 24
764 1 1.34405 29.4256 8.3107 23
765 1 1.52349 23.7724 8.6836 24
766 1 8.05976 12.5323 13.8511 21
767 1 1.40857 11.9248 19.1081 23
768 1 1.6275 29.5564 13.9655 25
769 1 3.06869 28.1126 0.539685 22
770 1 5.64289 25.3824 0.419342 21
771 1 4.77253 23.5742 3.53035 26
772 1 1.19895 29.2874 3.24712 23
773 1 6.71269 28.8302 11.1166 23
774 1 8.2106 31.403 11.4829 24
775 1 8.19847 23.4277 8.41414 23
776 1 0.00587269 28.6331 11.3668 25
777 1 27.5254 31.0676 16.5431 21
778 1 1.46112 31.2428 6.00086 25
779 1 6.6715 20.8753 13.7512 24
780 1 28.1236 29.6301 14.094 24
781 1 2.71539 34.3 0.924152 23
782 1 4.73647 31.1396 0.627387 21
783 1 4.77886 29.0372 3.31012 22
784 1 6.0566 32.3911 3.43149 22
785 1 32.896 32.3077 3.3272 23
786 1 11.575 1.07745 8.42477 22
787 1 -0.0204843 32.0924 13.8188 24
788 1 29.634 32.3723 8.6288 22
789 1 5.02991 31.0579 11.1695 23
790 1 29.8676 32.3015 13.9072 24
791 1 11.4264 23.7507 19.3696 26
792 1 4.72462 0.628438 8.63952 24
793 1 6.28669 22.7634 1.05158 23
794 1 8.26471 19.8829 0.533291 21
795 1 10.2946 20.9895 3.52473 23
796 1 8.19758 17.8071 3.4042 24
797 1 6.46586 22.8322 5.8035 20
798 1 12.8531 11.3251 6.18186 24
799 1 4.62978 23.6338 8.54751 24
800 1 31.2199 23.3482 8.387 22
801 1 6.55144 23.0313 11.3643 23
802 1 6.59736 20.7714 8.74126 24
803 1 9.965 16.985 11.2682 23
804 1 1.52483 20.5732 11.3382 25
805 1 6.60227 28.2194 0.781786 23
806 1 8.15242 25.1622 0.661301 21
807 1 8.10856 23.3957 3.52491 23
808 1 6.20012 26.1797 3.88246 23
809 1 9.80255 20.5268 8.66363 22
810 1 4.75281 18.1159 8.76961 25
811 1 11.5711 23.9598 8.6483 25
812 1 6.55017 33.7238 11.345 22
813 1 14.8377 29.6021 8.84775 24
814 1 4.65583 29.4535 8.44795 23
815 1 11.4643 25.3955 11.2771 25
816 1 4.66232 20.0942 11.2248 22
817 1 6.35092 34.2286 0.88859 24
818 1 7.85258 31.2659 1.03719 22
819 1 7.88657 29.4197 3.50155 21
820 1 8.08077 31.3075 6.12773 23
821 1 9.90569 28.4033 11.0996 23
822 1 11.4018 31.2356 5.79392 22
823 1 9.87679 26.4174 8.55349 23
824 1 8.20735 0.403805 8.96305 24
825 1 31.3107 8.68087 11.7412 25
826 1 1.81569 31.0033 11.4326 24
827 1 19.5832 34.1538 11.2668 24
828 1 1.61877 31.3231 16.7106 24
829 1 10.0198 22.692 0.950729 22
830 1 11.7805 20.0109 0.724222 20
831 1 14.5886 23.665 3.50661 22
832 1 6.7957 20.4637 3.23904 24
833 1 11.2863 14.4823 6.03106 24
834 1 13.149 20.4442 3.71319 24
835 1 9.87034 9.38302 13.9508 23
836 1 8.05862 20.0312 6.09365 23
837 1 13.0647 11.6182 16.2564 23
838 1 3.35654 11.3767 11.2886 20
839 1 6.36294 15.1875 18.7751 22
840 1 11.3269 23.9481 14.3067 24
841 1 9.86092 28.2034 1.02741 24
842 1 11.6117 25.2623 0.870478 23
843 1 10.0144 22.6114 6.01038 23
844 1 11.7063 23.4923 3.43304 24
845 1 6.05486 28.2184 6.06696 21
846 1 9.41607 26.3917 3.25303 20
847 1 4.49678 25.5376 6.25254 21
848 1 8.57193 25.3862 6.21379 21
849 1 9.73094 22.8517 11.1533 23
850 1 9.66965 26.5275 13.9815 26
851 1 6.59397 28.4555 16.6035 26
852 1 3.31631 26.5245 13.9639 26
853 1 9.63389 34.002 0.619852 20
854 1 11.4814 31.0358 63.7745 21
855 1 11.2079 29.3856 3.53164 21
856 1 8.07826 0.780785 3.5971 24
857 1 9.76334 33.8421 5.77357 22
858 1 12.7936 -0.263938 5.8617 22
859 1 4.95264 14.2214 11.2743 21
860 1 3.16116 21.0335 13.8727 24
861 1 14.9482 31.5503 11.381 21
862 1 14.7748 23.8454 7.786 21
863 1 4.90225 25.959 10.6235 20
864 1 6.36284 31.9435 14.0001 25
865 1 12.9727 22.6327 0.87414 25
866 1 14.7963 19.582 0.593043 22
867 1 13.2104 16.769 5.86837 23
868 1 14.7547 25.795 6.11248 24
869 1 11.5346 25.4923 5.61967 22
870 1 11.2348 14.0282 10.9925 21
871 1 11.4001 17.8203 8.52338 23
872 1 11.7007 19.5819 5.98707 22
873 1 11.3537 19.9948 11.1865 25
874 1 13.1425 21.1241 8.67376 25
875 1 14.6311 24.0804 13.7803 24
876 1 11.0345 14.2105 16.0212 20
877 1 13.1557 28.5544 0.826067 22
878 1 14.7784 25.5403 0.622155 21
879 1 17.7591 23.8589 3.05742 20
880 1 13.1917 26.2753 3.24504 21
881 1 9.36967 28.3894 5.86807 21
882 1 13.3234 28.407 6.34245 25
883 1 8.21241 29.3868 8.60537 24
884 1 14.9421 20.106 11.2781 24
885 1 21.1476 0.516259 8.55664 21
886 1 19.4182 26.729 13.5181 23
887 1 4.9944 23.6621 19.2945 24
888 1 8.20636 19.9466 11.0815 22
889 1 13.1467 33.8264 0.947406 23
890 1 14.9439 31.2865 0.857334 24
891 1 14.4684 29.5869 3.49267 24
892 1 13.1253 32.2056 3.32081 22
893 1 19.955 6.05304 6.1631 24
894 1 17.8996 31.2704 6.0279 22
895 1 9.55498 32.4553 3.0475 22
896 1 13.0705 32.3738 8.80687 23
897 1 16.7045 32.3523 13.8212 23
898 1 23.0656 -0.26811 16.2959 26
899 1 17.9712 23.682 13.8171 22
900 1 21.1575 25.8378 10.7748 21
901 2 5.01375 14.1944 2.9955 21
902 2 3.71659 17.1441 3.34878 22
903 2 32.7686 22.5786 2.58495 21
904 2 8.16991 23.541 5.28486 25
905 2 0.956309 23.7584 21.2396 22
906 2 23.1887 26.1635 15.5046 23
907 2 1.33388 31.2271 8.13073 23
908 2 29.8609 15.5842 5.53605 21
909 2 32.395 26.8946 20.8133 23
910 2 1.45531 18.341 21.2148 22
911 2 29.6628 20.9896 10.2139 23