ITEM: TIMESTEP
1035000
ITEM: NUMBER OF ATOMS
1000
ITEM: BOX BOUNDS pp pp pp
-3.0000000000000000e+01 3.0000000000000000e+01
-3.0000000000000000e+01 3.0000000000000000e+01
-3.0000000000000000e+01 3.0000000000000000e+01
ITEM: ATOMS id type x y z 
1 1 -2.88353 -5.51706 -11.8315 
2 1 0.847431 -10.2262 7.63998 
3 1 -8.39274 8.28282 -5.01765 
4 1 -11.6795 0.301086 -6.19702 
5 1 -5.13908 -4.40138 12.2652 
6 1 -7.11747 -6.1625 -10.974 
7 1 -3.42715 1.76045 -5.04964 
8 1 -3.69453 -11.3876 1.38393 
9 1 5.42932 -1.56429 5.11661 
10 1 0.581394 -0.878361 11.1153 
11 1 10.9269 -0.0431583 5.70888 
12 1 -0.109024 5.9375 -7.84765 
13 1 -0.177653 -3.00484 15.0185 
14 1 -5.91974 1.03028 2.46408 
15 1 -4.91079 -4.14053 -10.353 
16 1 2.9486 -1.98709 9.95293 
17 1 0.283393 -6.32053 -5.5539 
18 1 4.21431 4.06774 13.1896 
19 1 -0.890756 -11.1874 3.54841 
20 1 -13.3987 -1.14229 2.37407 
21 1 -12.3952 1.98157 -3.35428 
22 1 -5.43961 7.69712 -3.37287 
23 1 -1.44163 0.760688 -9.89792 
24 1 3.41412 -3.76643 -10.1658 
25 1 -5.96255 -1.27589 11.6816 
26 1 -10.1258 4.11602 -3.45629 
27 1 -0.480703 9.06719 -1.86563 
28 1 1.93925 -11.5456 -0.618687 
29 1 4.84429 -5.78631 -4.38729 
30 1 7.28975 0.88091 5.86591 
31 1 -9.58586 8.67198 -7.59847 
32 1 5.66422 5.96065 -5.20538 
33 1 2.49993 7.1788 2.83773 
34 1 5.31238 7.81214 8.21348 
35 1 -8.04504 -1.57843 1.87426 
36 1 10.622 0.0511832 9.20223 
37 1 -12.9721 -3.2109 -0.310915 
38 1 14.8567 3.83635 4.29594 
39 1 7.67575 -3.35472 -2.99237 
40 1 1.94111 1.20112 9.10909 
41 1 -4.87874 -5.7985 0.104064 
42 1 -1.13293 -4.80405 -13.9642 
43 1 -6.119 8.44797 -0.526032 
44 1 -4.34798 8.47146 -9.01025 
45 1 2.53174 -3.72747 -5.31988 
46 1 7.78216 -4.06618 -5.83591 
47 1 2.28611 -6.24438 5.64472 
48 1 3.83779 -5.08442 10.3002 
49 1 -0.45109 9.71514 8.82745 
50 1 -8.23914 -3.30086 10.5439 
51 1 -12.4007 4.33266 1.82223 
52 1 11.7003 -6.9214 -3.59011 
53 1 6.15331 1.95438 -11.2503 
54 1 3.15064 -0.265078 6.14102 
55 1 -0.996458 10.7708 1.08296 
56 1 -10.5114 5.4123 -9.42186 
57 1 1.57905 8.9388 0.38354 
58 1 -0.763326 0.181729 -6.1827 
59 1 -6.15699 -5.37507 8.8566 
60 1 -2.01589 -2.74824 -10.1611 
61 1 8.75783 -7.63922 -5.20909 
62 1 -1.39954 4.8242 7.12605 
63 1 -8.84942 -7.30443 0.533483 
64 1 5.70516 -2.6865 2.45784 
65 1 -10.2532 -11.4999 -2.73538 
66 1 4.65524 -7.25987 4.00312 
67 1 -7.70771 5.88961 4.28837 
68 1 -4.7957 6.78294 2.56509 
69 1 2.50004 5.84061 -5.83152 
70 1 7.28834 -10.494 -0.499359 
71 1 -5.98305 -9.63395 -0.126132 
72 1 12.3533 3.05294 5.76773 
73 1 5.93235 4.31724 -0.576861 
74 1 -2.29925 13.6155 -5.57477 
75 1 -3.58252 -8.6627 -12.8287 
76 1 -3.07415 7.82445 -5.53442 
77 1 9.71273 -0.564084 -2.08156 
78 1 2.6404 -1.78936 -2.37745 
79 1 8.36072 2.6766 -9.2222 
80 1 7.92027 -10.7706 2.56829 
81 1 -9.3232 5.7127 -6.8414 
82 1 -0.741901 1.52642 -3.57439 
83 1 4.89513 8.40342 0.762143 
84 1 7.45517 9.56408 -1.63411 
85 1 1.10218 11.9705 -0.956144 
86 1 -4.53544 -5.69972 -14.6448 
87 1 -9.58735 -6.35764 -5.1746 
88 1 -1.4694 5.30997 10.5692 
89 1 -0.038078 7.62346 -5.03234 
90 1 -0.984563 0.313358 13.7153 
91 1 -10.798 -7.2083 6.00443 
92 1 -8.11346 -7.71123 8.03674 
93 1 2.35352 7.43492 -2.4605 
94 1 10.691 7.62368 -2.54263 
95 1 -4.67154 -8.30139 8.17411 
96 1 -7.99674 3.00237 -5.87184 
97 1 3.22211 6.07517 10.7579 
98 1 -5.22782 1.95935 -11.41 
99 1 -4.18471 -4.96879 3.31299 
100 1 -8.31985 -10.1223 1.83324 
101 1 1.33776 1.50373 3.27229 
102 1 -0.543737 -0.588073 2.09072 
103 1 -5.64378 -1.45588 -2.93878 
104 1 2.66319 -7.53067 -3.22883 
105 1 -2.04107 12.0507 9.09805 
106 1 -6.88638 2.85965 5.35318 
107 1 -9.26389 1.06015 -2.95319 
108 1 1.23855 -8.97042 4.82938 
109 1 4.37156 2.9885 -5.81956 
110 1 5.51334 1.11176 14.0039 
111 1 -2.50539 -3.25086 1.3468 
112 1 -1.97686 6.47049 -10.4729 
113 1 -6.25416 -7.15502 -5.10881 
114 1 -3.99016 11.1408 0.430236 
115 1 6.02167 -2.57136 11.0619 
116 1 -4.78611 11.3841 -5.09361 
117 1 2.76053 4.09869 -8.27165 
118 1 -1.74289 2.19372 1.97584 
119 1 -9.53012 4.36568 6.84633 
120 1 -2.95738 8.70624 10.8407 
121 1 -0.556113 -7.64147 -11.9437 
122 1 0.927622 5.794 5.50068 
123 1 -3.77928 -0.0664657 0.85927 
124 1 -0.371577 -7.73235 -2.74959 
125 1 3.13586 11.7661 -6.05661 
126 1 4.05837 10.1088 -1.56471 
127 1 -8.82504 1.5707 0.932746 
128 1 5.93347 6.04569 10.8098 
129 1 12.8551 -0.7575 -2.79913 
130 1 4.86064 8.89566 3.94923 
131 1 -10.8985 6.0162 3.95596 
132 1 -10.5765 -8.10356 -2.54157 
133 1 6.19434 -5.90223 9.8356 
134 1 2.12973 -8.91631 -0.406995 
135 1 -4.9364 5.46449 -10.7087 
136 1 9.35116 0.231892 -7.13766 
137 1 -11.8077 -3.78391 5.87663 
138 1 -4.04716 -12.4087 -6.8589 
139 1 -2.84883 -8.57302 3.53122 
140 1 -1.82209 -6.27185 1.91785 
141 1 -6.23728 -4.01694 -13.0807 
142 1 -9.10542 -1.0762 -8.17038 
143 1 12.8422 4.01552 10.2202 
144 1 5.8237 -1.18281 8.48601 
145 1 1.52659 -4.31805 8.03884 
146 1 8.61095 5.27493 2.40338 
147 1 -9.56542 -12.3302 -0.106633 
148 1 3.65831 11.7575 1.12314 
149 1 -6.7217 -7.619 -13.6486 
150 1 -3.49063 -10.6361 -9.98714 
151 1 -5.89895 -7.63512 2.57341 
152 1 -1.66119 -5.13576 -0.939856 
153 1 -3.61717 -6.42975 6.39817 
154 1 13.6673 5.51833 2.26727 
155 1 -4.53246 -3.86398 -5.75547 
156 1 -2.55428 -2.20315 12.8547 
157 1 -4.26211 -13.848 -0.869149 
158 1 4.50116 0.319143 -4.36354 
159 1 -1.16036 -12.7804 0.740065 
160 1 3.64574 -3.02075 0.220787 
161 1 -1.24565 -13.6068 -2.6491 
162 1 -9.77777 2.01198 -8.74776 
163 1 13.5886 6.73958 5.52487 
164 1 -8.30994 0.564563 -11.3687 
165 1 -1.14174 8.76122 -8.02598 
166 1 -8.81557 0.277986 4.38534 
167 1 0.738758 11.6018 6.56986 
168 1 13.4539 1.40813 9.23107 
169 1 -9.03201 -0.0145985 10.3753 
170 1 -8.49079 0.973336 7.26863 
171 1 -5.1674 12.2696 7.46113 
172 1 1.39093 -1.57637 -11.2892 
173 1 4.73803 -8.73727 1.10705 
174 1 9.63803 -2.8578 -8.09756 
175 1 -1.98768 -2.64039 4.47686 
176 1 1.74392 2.6556 6.45133 
177 1 -13.9951 -0.0789363 -0.745073 
178 1 5.93581 -8.75093 -3.70495 
179 1 -0.498386 7.65217 2.35706 
180 1 -9.58185 3.38038 3.72805 
181 1 0.848664 4.53106 2.37455 
182 1 2.76706 -7.33795 8.5683 
183 1 0.774934 6.87867 8.76449 
184 1 -7.44353 -5.49857 -2.0914 
185 1 2.68877 -1.22814 3.04703 
186 1 -2.82209 10.568 6.4117 
187 1 -6.31649 1.70955 -3.97155 
188 1 -13.9995 1.81653 2.13971 
189 1 -5.15623 -0.248006 -6.16353 
190 1 -8.45646 7.55473 1.49942 
191 1 4.46294 3.03974 10.033 
192 1 3.86588 -9.4794 6.57428 
193 1 -4.5417 2.92074 0.223215 
194 1 -4.1561 -3.13885 9.24511 
195 1 3.9704 -9.40154 -8.52531 
196 1 -5.78086 -5.83219 -8.14686 
197 1 -10.6265 -0.830555 -0.196281 
198 1 -3.13458 -8.30656 -0.378402 
199 1 -3.04384 -1.24504 -4.58836 
200 1 13.4263 2.30953 -2.60684 
201 1 -7.84236 -2.57943 -10.8285 
202 1 4.60553 1.42388 3.72723 
203 1 -8.04896 9.78113 8.10197 
204 1 -6.00124 9.4902 2.59023 
205 1 -2.88289 7.73733 7.1935 
206 1 11.354 -4.10847 -2.84075 
207 1 11.7138 1.29071 -5.18562 
208 1 3.30586 4.3382 4.33768 
209 1 -4.85057 5.89895 -0.782371 
210 1 0.314541 -9.65037 -5.15443 
211 1 -0.284498 6.2256 -0.226687 
212 1 1.99198 1.497 -3.10115 
213 1 -6.53936 10.2147 -7.58433 
214 1 4.49803 -11.2436 -2.47609 
215 1 9.38914 2.60442 7.17362 
216 1 -7.79792 -0.559019 -5.47451 
217 1 -8.12404 -8.51695 4.84175 
218 1 -2.66986 5.08706 1.49936 
219 1 -10.947 7.09068 -4.38002 
220 1 -1.94138 -9.0019 -7.24274 
221 1 5.27481 -6.88512 7.15325 
222 1 -4.18474 -13.3799 -4.14646 
223 1 -11.7562 3.4768 -6.53489 
224 1 -0.713185 -10.3093 -1.66879 
225 1 -0.981575 1.27774 8.30286 
226 1 1.10096 2.40828 -6.05309 
227 1 -4.84366 5.46381 6.5646 
228 1 0.249456 -7.56496 -8.35711 
229 1 -2.9275 -0.993575 7.53981 
230 1 -11.7327 -0.155788 5.58801 
231 1 -0.0875247 -7.07235 7.23018 
232 1 -6.37408 3.40123 8.6246 
233 1 2.87774 -7.2817 -6.62454 
234 1 6.29489 -4.54114 4.50635 
235 1 -0.0473443 11.7655 -7.15873 
236 1 -9.05128 -4.62582 7.34518 
237 1 7.47984 -4.37093 7.40161 
238 1 7.88617 -0.162661 3.37274 
239 1 -4.38246 3.63289 3.72284 
240 1 1.29692 1.01736 -8.74106 
241 1 9.68918 -5.02673 4.92924 
242 1 -1.76975 3.71771 -1.07168 
243 1 -1.13277 2.24246 11.385 
244 1 1.35992 12.6749 2.28402 
245 1 8.08915 -7.43237 3.84026 
246 1 -0.994569 -12.5958 -5.54747 
247 1 7.47015 9.17915 5.98011 
248 1 -4.17495 6.00629 9.29613 
249 1 -4.78954 -7.97707 -2.58482 
250 1 -8.97171 -9.25216 -5.06197 
251 1 -5.09189 9.046 8.52457 
252 1 -6.18356 -10.576 -4.58349 
253 1 -5.13516 -2.16982 2.96948 
254 1 14.0577 0.963185 6.18754 
255 1 9.04568 3.99832 -0.748207 
256 1 -1.12191 3.31077 -8.21511 
257 1 -6.73772 4.30073 -8.40041 
258 1 0.443129 7.85296 11.6219 
259 1 -10.5665 -4.55088 -2.75098 
260 1 1.16321 14.3337 -5.69227 
261 1 -6.21127 -9.42122 -10.5607 
262 1 -3.46171 -2.83473 -13.5994 
263 1 7.85073 8.27421 -4.07653 
264 1 7.72878 7.07449 -0.00340504 
265 1 6.88506 1.44005 -6.68901 
266 1 1.94879 -13.3523 2.50083 
267 1 4.16566 1.71325 -1.35167 
268 1 -8.10931 3.85477 -11.0261 
269 1 8.3314 5.47022 -3.30313 
270 1 6.15554 -5.58219 1.71 
271 1 -2.61919 0.176477 -13.1324 
272 1 0.671277 -6.88798 -0.238083 
273 1 -1.70646 -5.27949 12.6786 
274 1 -6.3141 -2.24745 -7.92437 
275 1 5.31486 5.47366 2.30113 
276 1 3.72119 5.23146 -11.0162 
277 1 -12.5796 -4.64852 2.66166 
278 1 10.8669 -2.32719 -0.162467 
279 1 -1.5118 4.35663 -5.37948 
280 1 -5.97153 7.02117 -6.85876 
281 1 5.53201 -6.90236 -10.2274 
282 1 3.88446 1.13613 -7.70814 
283 1 10.3837 -5.09912 -5.99948 
284 1 2.31505 -9.86515 2.3534 
285 1 -11.3343 1.0158 2.60078 
286 1 -2.98651 9.04487 3.43155 
287 1 -3.32663 5.58688 -7.96822 
288 1 11.1878 5.41743 4.06591 
289 1 -3.96526 -10.8447 -2.06681 
290 1 1.52467 -4.64535 -8.05326 
291 1 3.01904 5.67831 -0.0861426 
292 1 11.9491 -3.92629 2.26147 
293 1 1.34177 -6.9058 2.79513 
294 1 5.28296 -2.86091 -4.9185 
295 1 -9.25186 3.39483 9.54763 
296 1 -5.76516 -2.89028 -0.190799 
297 1 -4.42759 -9.10514 -6.86899 
298 1 -0.938329 -3.32225 10.1051 
299 1 4.38053 7.04246 -8.23919 
300 1 -3.6358 9.42271 -2.65575 
301 1 -1.92985 11.9567 -1.95698 
302 1 0.49539 -1.37858 7.77894 
303 1 3.8169 -10.582 -5.84164 
304 1 3.54768 -1.70816 -7.55242 
305 1 -11.7604 -6.03492 -0.0664797 
306 1 -11.3391 2.2938 -0.776775 
307 1 -7.9189 -2.98304 4.85976 
308 1 5.25406 7.16333 -2.25741 
309 1 0.822507 -10.0548 -10.2618 
310 1 0.615298 -6.17111 10.5775 
311 1 7.54532 -0.329073 -4.52971 
312 1 -0.308146 -0.13535 5.35477 
313 1 -9.66175 4.879 0.557165 
314 1 11.0983 -5.93795 -0.230399 
315 1 7.2807 2.4724 12.2495 
316 1 -4.11567 2.19015 -8.52825 
317 1 7.6806 6.10357 -8.03352 
318 1 -0.152648 -1.78827 -13.9029 
319 1 -2.62943 -9.43544 -4.05974 
320 1 14.3071 3.00632 0.422183 
321 1 8.27415 -5.95745 -8.05715 
322 1 5.97189 -7.87711 -7.00819 
323 1 5.65345 11.2099 -3.90944 
324 1 -6.8877 4.04773 2.14781 
325 1 11.5148 4.75386 -3.53221 
326 1 1.65346 -3.7429 12.9212 
327 1 7.33908 2.39683 1.82189 
328 1 6.65975 4.82321 8.17267 
329 1 -8.23747 -4.60416 -7.915 
330 1 12.7868 5.30417 -1.22247 
331 1 8.79363 -2.29648 5.30297 
332 1 -0.758542 -9.38697 1.29215 
333 1 4.00651 10.6487 7.09806 
334 1 6.55481 3.83191 4.89928 
335 1 -1.81032 6.46241 -2.81591 
336 1 -1.08681 -12.6701 -8.91365 
337 1 -7.073 1.15148 -8.60624 
338 1 -6.02084 -0.714922 -13.0194 
339 1 -11.5038 -1.35612 -3.06987 
340 1 11.5556 -6.7308 3.33966 
341 1 -1.34428 -5.90735 4.86255 
342 1 3.63843 2.78088 1.33942 
343 1 1.05094 -3.14995 5.24277 
344 1 9.83807 6.71945 -5.82947 
345 1 5.63746 -1.30457 -2.09432 
346 1 13.9902 -1.52289 6.99575 
347 1 9.44086 10.2862 1.26672 
348 1 12.4481 -3.65179 4.96671 
349 1 0.860343 4.16781 9.59403 
350 1 -9.65645 -5.26898 3.70637 
351 1 -7.74613 -7.93005 -7.95649 
352 1 10.6319 1.94894 11.5549 
353 1 -4.90497 11.6171 4.01396 
354 1 9.94222 0.889793 0.867428 
355 1 8.15365 -4.28846 -0.59084 
356 1 10.3187 7.88382 5.85789 
357 1 -9.56858 -1.49906 7.27875 
358 1 8.44083 -0.592275 -10.199 
359 1 -3.32817 -7.40519 -9.69271 
360 1 8.40718 7.18577 8.50209 
361 1 5.7619 6.31618 5.44077 
362 1 2.62986 -0.897761 13.799 
363 1 2.24088 1.74695 12.2882 
364 1 -6.71877 1.8139 11.3661 
365 1 -4.21269 4.10553 -3.0275 
366 1 -5.10368 3.54222 -6.02897 
367 1 6.89419 12.1016 -0.695612 
368 1 -4.78697 -3.57314 6.0792 
369 1 -0.0281331 14.3563 -3.01838 
370 1 -1.53007 -4.62666 -3.93101 
371 1 -6.90247 -12.3366 -1.79247 
372 1 11.2629 3.87613 0.801013 
373 1 -0.136044 8.71633 5.59234 
374 1 -7.37207 3.42479 -1.40628 
375 1 9.46228 2.64185 -3.36859 
376 1 4.89571 2.0892 7.2223 
377 1 6.45432 11.1489 2.27047 
378 1 -6.67991 0.29853 -0.518864 
379 1 0.422568 -1.75465 -8.63178 
380 1 3.55444 5.28681 7.62057 
381 1 1.95006 -4.71991 -2.43333 
382 1 3.7915 11.7517 4.3704 
383 1 -10.8616 -2.12099 3.14095 
384 1 4.62349 -11.648 0.603795 
385 1 6.98851 9.22544 -7.01937 
386 1 3.52779 -4.14186 3.16284 
387 1 -2.08907 6.06083 4.70473 
388 1 4.84741 -1.0141 -10.496 
389 1 -2.75162 -2.22672 -1.55497 
390 1 4.96873 -4.80885 -7.98462 
391 1 1.9003 -0.110057 0.116759 
392 1 3.12153 8.90738 9.82954 
393 1 4.16153 -3.69057 6.65202 
394 1 2.08544 -0.761513 -5.47616 
395 1 -6.99299 -11.0732 -7.47852 
396 1 -0.195092 -1.63055 -3.49776 
397 1 -3.81167 2.30282 6.74369 
398 1 11.1033 -0.823431 2.81687 
399 1 -1.96551 10.5396 -4.86693 
400 1 9.16765 3.53724 -6.10571 
401 1 -0.962439 2.92609 4.66679 
402 1 6.48962 2.89094 -3.89623 
403 1 1.23108 7.4357 -10.2041 
404 1 -2.73979 -0.496544 10.4264 
405 1 -1.35871 -4.05637 7.29053 
406 1 2.50315 -7.03456 -10.258 
407 1 -8.35279 6.63419 -1.86323 
408 1 9.70664 10.8425 4.1231 
409 1 -7.19707 -5.08432 2.43457 
410 1 5.45409 3.98652 -8.94397 
411 1 -4.22009 0.928869 12.7731 
412 1 -11.3877 -9.484 0.109962 
413 1 7.55191 -1.5769 0.129071 
414 1 -4.62718 -4.51079 -2.78987 
415 1 9.56414 -8.45155 1.22948 
416 1 6.90016 -9.68818 5.63735 
417 1 2.78839 8.09978 6.36105 
418 1 -7.66552 6.41618 8.86793 
419 1 9.66561 2.4648 3.91109 
420 1 5.73388 -7.38952 -1.40565 
421 1 1.27506 2.99955 -0.816269 
422 1 7.49416 8.16971 2.77841 
423 1 -1.31922 11.8431 4.14487 
424 1 1.91804 -12.1925 4.88536 
425 1 -8.43045 -2.16891 -2.68544 
426 1 4.56997 0.331359 11.2048 
427 1 3.02402 13.1525 -3.0883 
428 1 7.60645 1.60339 9.53196 
429 1 11.3221 -3.19062 7.84989 
430 1 11.0732 8.0708 3.09101 
431 1 0.66924 4.68163 -3.56558 
432 1 0.527678 -4.47566 -11.7861 
433 1 -2.26143 3.30297 -11.084 
434 1 -3.59831 2.55868 9.97076 
435 1 12.4805 2.18235 2.85907 
436 1 1.79362 8.75906 -7.22413 
437 1 6.72717 -3.77313 -10.0313 
438 1 -6.60361 -12.8694 1.13013 
439 1 -7.10063 -3.89195 -4.84704 
440 1 0.34131 1.23471 -12.196 
441 1 -2.95256 -6.5428 -5.09005 
442 1 -3.13291 -5.76077 9.8964 
443 1 -0.963311 0.247629 -1.00098 
444 1 -2.24016 -9.52137 6.51716 
445 1 7.26877 1.46584 -1.31179 
446 1 -8.90674 8.94753 4.63602 
447 1 8.95951 -3.3692 2.37393 
448 1 -14.3397 3.33804 -1.0406 
449 1 11.4223 5.30416 7.92288 
450 1 9.05922 4.56417 9.97558 
451 1 -9.93162 -2.6681 -5.65098 
452 1 -4.50157 -0.670386 -10.3495 
453 1 8.52221 -7.41969 -2.07699 
454 1 -7.83758 -8.96953 -2.65571 
455 1 -11.1664 -7.80719 2.53216 
456 1 8.99283 5.2797 5.99445 
457 1 -12.5381 5.68614 -1.19121 
458 1 -3.33368 11.3104 -7.84666 
459 1 8.37 -7.25459 7.38352 
460 1 0.238783 -2.84421 -0.288425 
461 1 -5.53283 0.346695 8.62423 
462 1 -2.65593 -5.38288 -8.01509 
463 1 -6.12542 -10.7675 3.58248 
464 1 8.38812 -0.279328 12.1508 
465 1 1.35954 -11.9035 -4.01201 
466 1 10.5996 -2.07238 -5.32541 
467 1 -7.60381 11.6337 4.98235 
468 1 -6.08716 -0.264643 5.52415 
469 1 -2.86886 -1.66416 -7.9261 
470 1 1.23061 -10.9738 -7.62341 
471 1 10.7053 6.81471 0.629055 
472 1 13.2106 0.0463424 0.332065 
473 1 -5.48682 -8.55347 5.31911 
474 1 4.29706 8.63973 -5.42304 
475 1 6.45732 -1.29627 -7.98203 
476 1 -13.3639 4.75763 -3.99165 
477 1 3.93715 4.60287 -2.90013 
478 1 1.67266 9.74117 3.78227 
479 1 2.18662 9.77842 -3.76739 
480 1 0.932271 4.69334 12.8763 
481 1 5.17867 0.10102 1.14187 
482 1 0.162527 -3.94263 2.60937 
483 1 4.64218 -11.0667 3.65953 
484 1 -3.42738 0.278782 4.23034 
485 1 14.6271 4.38457 7.68248 
486 1 5.17104 -4.59057 -1.97904 
487 1 -1.29561 -3.30486 -6.44202 
488 1 -7.68458 7.07645 -9.46166 
489 1 -5.69249 8.2816 5.61102 
490 1 -3.83161 0.87149 -2.03595 
491 1 -3.05914 8.16615 0.112342 
492 1 -6.75048 -5.76994 5.56015 
493 1 3.59474 -5.83526 0.46019 
494 1 3.28989 2.17921 -11.0984 
495 1 -9.22968 -3.93623 0.300498 
496 1 -7.5945 5.51894 -4.32123 
497 1 8.91628 -2.36333 9.80157 
498 1 -6.85349 -2.2792 8.04966 
499 1 14.0508 -1.31311 3.5087 
500 1 0.645401 4.15514 -10.6011 
501 2 -10.2883 -1.13831 -6.5153 
502 2 -3.5685 7.47287 -3.69765 
503 2 0.182242 -3.52865 -13.7558 
504 2 2.3071 3.39369 13.2307 
505 2 -6.83463 -7.76389 -11.7863 
506 2 2.00783 -2.02634 12.0652 
507 2 -9.51056 1.49744 2.95254 
508 2 13.1326 4.59814 0.521918 
509 2 -0.653083 5.34976 8.75385 
510 2 -5.11292 -2.39846 -9.37801 
511 2 -6.66065 -9.64484 -8.63933 
512 2 -10.6341 2.28967 -2.543 
513 2 -3.38947 -3.39331 3.2223 
514 2 0.766889 2.59441 8.75496 
515 2 6.66782 -1.91988 -10.0112 
516 2 8.79576 1.73011 5.42622 
517 2 -6.81441 8.73043 1.13615 
518 2 14.0567 3.20591 8.93791 
519 2 -2.71205 -4.07151 -2.40214 
520 2 -10.7187 -5.22953 6.1003 
521 2 0.489957 -12.718 3.77652 
522 2 9.34717 -3.90943 6.79174 
523 2 -8.84162 6.42793 -0.0811677 
524 2 -3.80916 7.3587 -7.12575 
525 2 -1.37722 7.85347 4.2654 
526 2 -3.59315 5.38676 3.43814 
527 2 2.14254 -2.09293 -0.424847 
528 2 4.46024 -2.90392 -1.56043 
529 2 -4.28475 3.76118 -11.1424 
530 2 0.192433 -2.9518 -10.3282 
531 2 -5.9926 -0.209839 -4.41592 
532 2 9.60942 -3.37173 -6.21754 
533 2 -2.2741 -8.14717 1.41326 
534 2 11.7087 6.97771 -1.12437 
535 2 1.94984 5.6445 3.88726 
536 2 1.95988 -6.53792 -8.21605 
537 2 1.77378 -2.3038 14.7251 
538 2 8.17777 3.39392 8.53513 
539 2 -14.1702 4.80935 -2.18865 
540 2 1.18414 -1.18808 6.00347 
541 2 -3.61763 -0.958538 -2.58312 
542 2 9.26477 8.09572 1.64089 
543 2 1.85562 -12.6604 0.949879 
544 2 4.3397 6.82045 6.65498 
545 2 5.73609 9.40379 2.28878 
546 2 2.59441 7.91222 -8.74102 
547 2 -9.0805 4.99345 8.42172 
548 2 3.01959 2.08136 -9.10791 
549 2 -8.22212 1.25173 -4.87514 
550 2 -12.1038 -0.536943 3.55733 
551 2 -7.23753 -8.42612 1.1942 
552 2 2.24871 -8.94145 8.0041 
553 2 -2.35982 1.36896 12.9447 
554 2 1.13007 8.62316 9.85484 
555 2 -7.44373 0.318355 1.37546 
556 2 4.60263 -7.3635 -3.03969 
557 2 11.8284 -2.06423 -3.67107 
558 2 -3.19983 -13.1315 0.389266 
559 2 2.79355 -5.5474 -4.31049 
560 2 3.60635 8.98874 7.95738 
561 2 6.3238 -4.44441 -4.14755 
562 2 5.42664 -4.21417 10.7373 
563 2 -5.12706 -5.93741 1.97283 
564 2 14.4266 -0.78383 5.19525 
565 2 3.60728 -0.278246 4.39159 
566 2 0.0351289 -13.0341 -3.91603 
567 2 10.4989 -1.56368 4.62784 
568 2 0.404479 0.0451566 -4.46394 
569 2 1.4719 -7.672 -1.8325 
570 2 -4.71773 -7.57986 -14.1519 
571 2 -4.69675 -9.17223 3.62886 
572 2 -9.96189 -8.88528 1.21951 
573 2 -5.0388 -3.04117 -4.0455 
574 2 -4.73251 8.32639 3.84015 
575 2 -0.207359 1.70365 -7.39613 
576 2 7.41922 5.38028 -1.27337 
577 2 4.06672 5.37099 -9.07042 
578 2 -5.92109 5.50645 8.67233 
579 2 -4.56004 1.49721 -6.58647 
580 2 -11.6065 4.24667 -0.336591 
581 2 -7.29428 0.0285836 11.0653 
582 2 -6.7979 1.03821 4.349 
583 2 -7.54025 1.49266 -1.80929 
584 2 6.02849 -3.4837 -6.91779 
585 2 6.92804 -8.83096 -1.85818 
586 2 5.49449 2.00012 5.34187 
587 2 1.12769 8.49585 2.21873 
588 2 -7.09929 8.15663 8.38187 
589 2 0.560956 1.69292 5.15709 
590 2 10.2013 6.24176 -3.88354 
591 2 3.85245 6.57745 1.5653 
592 2 4.05783 8.46743 -3.28326 
593 2 -1.41507 9.12154 7.32578 
594 2 -1.57027 -0.898521 3.88336 
595 2 3.03511 -3.68442 8.96111 
596 2 4.84418 -0.438197 -8.41975 
597 2 -0.197303 3.93254 11.4245 
598 2 6.10471 1.41708 -4.88691 
599 2 -4.08908 -0.898046 9.19485 
600 2 -0.0743685 -12.3743 -7.06311 
601 2 -2.90243 -4.94805 -6.11847 
602 2 5.56467 -11.5288 -1.01224 
603 2 -1.53325 -2.70405 -4.52695 
604 2 9.0861 8.68405 -2.63327 
605 2 -7.28335 2.26015 -11.5144 
606 2 -3.34636 11.9338 7.70635 
607 2 -2.62768 3.45033 0.650946 
608 2 -8.18646 -7.17168 -1.47417 
609 2 0.911603 7.00554 -6.62981 
610 2 1.87529 7.15495 -0.696646 
611 2 5.61736 2.8683 13.295 
612 2 4.12249 -8.87348 -6.68827 
613 2 9.03502 3.25653 11.5398 
614 2 10.1618 -4.01534 -1.24056 
615 2 9.31617 5.41684 4.19639 
616 2 -4.96923 9.78752 -4.06085 
617 2 -1.30155 -5.52707 10.8297 
618 2 -6.50998 -8.43808 8.36664 
619 2 6.56182 -8.23113 6.93766 
620 2 -5.01527 10.9475 -6.88088 
621 2 -6.26037 -13.47 -0.477465 
622 2 -2.54322 2.34693 -9.30859 
623 2 -0.490928 -11.152 -9.89737 
624 2 9.31287 9.51568 5.43319 
625 2 -11.5637 -7.80265 -0.870654 
626 2 -12.4187 2.71163 2.8345 
627 2 6.25059 0.937341 8.21242 
628 2 -3.32636 -9.1649 -2.26619 
629 2 1.95767 -0.690185 -7.59335 
630 2 2.97421 0.982756 -5.65322 
631 2 -5.5182 -2.38437 -13.3621 
632 2 -6.48544 -5.69089 -13.8169 
633 2 -4.07947 0.405682 6.30482 
634 2 -6.28272 -8.71448 -3.93207 
635 2 3.23912 -3.515 -7.99087 
636 2 9.20916 -1.1742 -8.64106 
637 2 -3.88597 -2.22158 0.247114 
638 2 -2.18272 -3.52928 -8.30831 
639 2 0.36319 -4.70076 -1.24332 
640 2 5.61887 2.33984 -7.59277 
641 2 -2.95748 -8.62336 -5.6918 
642 2 0.447809 9.9708 -7.66301 
643 2 4.92991 10.3844 5.26309 
644 2 14.3921 2.98515 6.01778 
645 2 -9.84267 0.0774523 5.96544 
646 2 1.72665 -10.6841 6.13011 
647 2 -1.59837 4.86294 -7.23096 
648 2 2.45875 4.47465 6.18477 
649 2 -9.05616 -5.15813 1.8253 
650 2 -4.60868 -0.323054 2.77484 
651 2 -6.20627 6.34206 5.5949 
652 2 -7.6884 -4.73498 4.21306 
653 2 6.30722 -6.34829 3.75398 
654 2 -13.1361 -3.00605 1.71399 
655 2 -8.05529 -11.9098 0.952347 
656 2 -4.9432 -7.69855 -0.573838 
657 2 7.37116 -6.1271 8.42838 
658 2 0.811644 8.45463 -3.47395 
659 2 -0.613258 -2.53154 1.46695 
660 2 2.78902 11.3681 -2.26264 
661 2 8.72006 0.964732 -2.506 
662 2 -2.33019 11.6325 -0.105121 
663 2 -9.38309 -4.60894 -6.20351 
664 2 -12.6605 -1.49569 -1.01848 
665 2 -2.85701 -13.1983 -5.6093 
666 2 7.10023 -2.7542 8.81813 
667 2 9.02043 -6.65404 5.71473 
668 2 -7.8852 9.13751 -6.77278 
669 2 6.05479 -0.0643714 -0.571841 
670 2 2.16868 -5.3412 11.5808 
671 2 -2.13468 0.404893 -4.75456 
672 2 5.4423 3.59495 1.43214 
673 2 7.13888 8.59179 7.84187 
674 2 1.5691 -0.695566 9.3902 
675 2 -7.69888 3.81176 3.92932 
676 2 3.16619 1.80388 10.6718 
677 2 5.95007 9.4801 -5.25259 
678 2 -4.42183 -9.55147 -11.095 
679 2 -5.46194 0.868148 -9.81756 
680 2 -8.93392 -1.74558 3.72309 
681 2 6.07043 10.8426 -2.00539 
682 2 0.652973 -4.80262 -6.40071 
683 2 10.2141 4.07962 -2.28104 
684 2 9.84965 -7.68854 2.97416 
685 2 -10.5863 0.947176 0.53605 
686 2 0.197446 10.6587 4.83535 
687 2 -4.29829 9.57607 -0.776966 
688 2 1.95032 5.62546 -10.7602 
689 2 -9.41812 7.33061 4.08721 
690 2 0.220939 -3.12945 8.5688 
691 2 2.20706 4.02577 0.73864 
692 2 -11.7152 -1.9516 6.14763 
693 2 3.36801 -10.1631 0.383423 
694 2 -0.768489 -9.60555 -3.61293 
695 2 -5.78405 12.1706 5.61343 
696 2 0.547521 -7.10715 5.11085 
697 2 -12.4221 3.32304 -4.76974 
698 2 2.26974 -7.32972 1.00589 
699 2 6.60921 8.00718 4.82795 
700 2 -1.64223 1.3335 -11.9475 
701 2 -0.699374 14.0576 -4.82949 
702 2 8.93158 2.12579 -7.50008 
703 2 -1.52259 7.56713 -1.07307 
704 2 -6.93151 -0.293368 7.50132 
705 2 -8.07944 -4.60476 9.27762 
706 2 -2.85188 -5.21805 0.717201 
707 2 -0.0251882 2.8642 2.72782 
708 2 -10.5643 -6.34646 -3.50098 
709 2 -2.49935 -4.1837 8.8681 
710 2 -0.850273 5.93999 -4.5385 
711 2 0.907258 1.17686 -1.07257 
712 2 3.57853 -2.17246 -5.64877 
713 2 4.50382 -6.6555 9.13347 
714 2 -6.44724 -4.02985 -6.81806 
715 2 4.84641 3.41036 -10.8655 
716 2 11.647 3.61948 3.96288 
717 2 6.96976 6.35138 1.74813 
718 2 7.0931 -2.64309 -1.27195 
719 2 -6.72988 -1.71099 -1.62309 
720 2 -1.6745 10.3164 -2.86311 
721 2 7.08237 5.25517 6.3682 
722 2 -3.90999 -1.89127 -6.37622 
723 2 2.57161 -11.7971 -2.53132 
724 2 -3.97696 -8.41903 6.45898 
725 2 -4.57648 2.15159 -3.36991 
726 2 2.96777 1.12234 7.20867 
727 2 8.35734 8.16387 -5.97212 
728 2 2.18535 12.8037 0.483353 
729 2 2.92585 2.50408 3.33931 
730 2 5.77684 -11.1102 2.14573 
731 2 6.82761 -8.14399 -5.2586 
732 2 -0.73722 7.26708 -9.26214 
733 2 6.3892 0.93244 2.70393 
734 2 4.11659 0.249785 13.2049 
735 2 -1.30854 -1.56185 14.1656 
736 2 8.02116 -3.62931 4.30832 
737 2 -4.32786 0.207279 -12.2351 
738 2 10.9587 -5.1929 -4.27697 
739 2 -4.72428 10.9492 2.07684 
740 2 3.94993 -8.00373 -9.82656 
741 2 0.533065 0.698399 12.1504 
742 2 -0.634064 -4.14512 4.48993 
743 2 -5.21655 2.85313 2.07251 
744 2 -10.9621 4.99012 -7.51971 
745 2 9.56743 -7.03093 -0.205632 
746 2 3.36269 9.85445 0.127504 
747 2 13.7386 5.46787 4.19622 
748 2 14.2253 3.19854 2.51431 
749 2 -9.80212 -0.784794 -2.10493 
750 2 -8.50152 4.72269 -2.50679 
751 2 -7.95534 2.77976 -7.91868 
752 2 -4.88553 0.933375 -0.507521 
753 2 9.62796 5.11398 0.84136 
754 2 -7.63403 6.02339 -7.71101 
755 2 -2.80595 -2.66903 6.38785 
756 2 9.49434 0.338403 10.8093 
757 2 2.34084 -10.4594 -9.01453 
758 2 0.270539 -0.0892003 -9.99437 
759 2 4.0987 12.2635 -4.44464 
760 2 5.7205 12.1037 0.849337 
761 2 -5.20119 -10.9429 -6.45247 
762 2 -7.78837 -10.7612 -5.7786 
763 2 9.56869 0.687858 2.58425 
764 2 -6.21715 6.98783 -1.79788 
765 2 -1.88623 -10.1417 4.72739 
766 2 7.92981 -4.59984 1.37439 
767 2 -5.97226 -2.14212 4.9036 
768 2 -4.07935 -6.39115 -3.72831 
769 2 4.59187 4.73448 11.0993 
770 2 0.247967 3.11012 -4.48428 
771 2 -10.2449 4.85671 5.17742 
772 2 5.86868 -1.36769 -4.10606 
773 2 -7.40415 -6.05865 7.35208 
774 2 -1.87444 9.04472 1.56472 
775 2 -1.06368 -12.2057 -1.13807 
776 2 -1.28831 -5.7035 6.77845 
777 2 12.2897 2.04246 10.7294 
778 2 -14.1594 3.41103 0.827589 
779 2 5.23287 4.28086 -4.57284 
780 2 -1.27437 -1.5827 11.1451 
781 2 -2.5072 -7.67296 -11.4482 
782 2 11.8663 -5.81693 1.68231 
783 2 6.68892 -7.07477 -8.55381 
784 2 -3.12621 5.2031 -1.9301 
785 2 -3.39738 4.69196 10.3986 
786 2 -9.24913 4.76407 -5.17979 
787 2 12.0922 -6.30544 -1.76057 
788 2 6.09751 8.07577 -0.795539 
789 2 -3.03912 5.93499 6.80878 
790 2 4.90067 -1.34814 10.2691 
791 2 2.77845 3.09741 -2.26685 
792 2 -1.1882 4.7875 -10.8042 
793 2 -11.6222 0.284693 -4.27832 
794 2 1.64748 -2.85477 -3.61235 
795 2 -4.28118 -5.74895 -9.33437 
796 2 -3.82688 6.75243 -9.69395 
797 2 -7.42215 -1.05212 -11.8843 
798 2 5.03983 -4.83317 -9.93748 
799 2 0.485839 -9.90289 -0.130998 
800 2 -3.96739 -6.55989 8.42201 
801 2 -6.52593 4.23484 -5.13027 
802 2 5.01054 -3.20932 4.31372 
803 2 7.88594 3.51734 3.3074 
804 2 8.49112 -4.34712 -8.95691 
805 2 -1.73774 -11.0536 1.72323 
806 2 10.976 9.87171 2.73909 
807 2 -3.74127 7.94396 9.23309 
808 2 -11.8498 -6.08161 1.99962 
809 2 8.4347 2.45353 0.0958731 
810 2 2.24794 -4.51396 6.19938 
811 2 -7.28041 9.72381 3.88493 
812 2 10.7682 3.05459 -4.90966 
813 2 7.49698 5.85269 9.6124 
814 2 -9.18169 1.39062 9.16425 
815 2 1.62375 12.7087 -6.43218 
816 2 -8.12974 3.37547 0.64971 
817 2 -1.66545 1.95025 -1.80932 
818 2 4.78611 0.65364 -11.3246 
819 2 -1.94063 2.673 7.3143 
820 2 -7.49057 3.28148 10.1634 
821 2 13.9792 0.00608326 8.06836 
822 2 7.4035 4.34926 -8.96157 
823 2 -7.02525 -5.66803 -4.12908 
824 2 0.539075 -9.37349 2.8531 
825 2 12.6198 0.996114 -3.58074 
826 2 -0.828135 5.55958 1.83048 
827 2 -1.05935 -5.81213 -12.2715 
828 2 -5.03308 3.72056 5.62386 
829 2 -9.8647 -2.07439 0.936043 
830 2 4.89963 -10.6112 -4.23499 
831 2 -2.79784 -11.9325 -8.80029 
832 2 -1.49072 -7.19392 -1.02619 
833 2 10.632 -2.65293 1.71031 
834 2 -1.40477 9.02196 -5.92079 
835 2 2.86381 11.8446 6.32132 
836 2 -3.61225 -8.92971 -8.61458 
837 2 6.12031 1.7188 10.6746 
838 2 1.54858 6.29485 11.9682 
839 2 -0.120591 4.76583 -1.62761 
840 2 -6.29147 8.46001 -8.60555 
841 2 2.12547 -5.04788 -11.0934 
842 2 -4.47111 -10.7351 -0.242701 
843 2 -9.05449 7.38154 -3.54625 
844 2 6.20847 7.79287 -8.08252 
845 2 -3.33892 3.80411 -4.86171 
846 2 7.51499 -0.422991 -6.5923 
847 2 -3.4578 -3.55295 -11.6125 
848 2 4.9019 -6.10391 -6.48985 
849 2 -10.8712 -3.05862 -3.98789 
850 2 9.75714 6.6487 7.29367 
851 2 -6.64017 5.10097 -10.2107 
852 2 -10.1624 -7.2278 3.89788 
853 2 12.3553 1.19464 5.36532 
854 2 4.97274 3.84571 8.17593 
855 2 8.79022 5.39679 -6.60517 
856 2 -0.258892 12.6337 -2.12161 
857 2 -1.87932 12.3553 -7.08192 
858 2 12.8334 -2.82856 6.54048 
859 2 -4.8408 4.19533 -7.77574 
860 2 2.77991 9.81891 -5.7383 
861 2 -3.94034 -0.960408 12.0697 
862 2 0.0807038 -9.13864 -7.30492 
863 2 -5.70237 -7.44344 -6.99099 
864 2 7.47873 0.726555 13.6015 
865 2 -4.15361 9.22482 6.95527 
866 2 8.33422 -9.76408 1.03815 
867 2 8.7468 -6.14116 -6.26818 
868 2 2.24342 5.4675 9.06492 
869 2 3.73429 -7.46005 6.11656 
870 2 2.45737 5.71173 -3.8238 
871 2 -1.97054 10.1651 10.1395 
872 2 -10.0644 7.85 -6.07838 
873 2 -3.06734 12.0329 -4.91111 
874 2 -9.52911 -9.727 -3.24143 
875 2 -2.23509 -1.4886 -13.8475 
876 2 -4.79825 2.02775 8.4077 
877 2 13.0268 -2.78548 3.3665 
878 2 -2.84335 9.61682 -8.8779 
879 2 -6.61513 -3.16551 11.8775 
880 2 -0.831936 -1.61948 -1.56378 
881 2 -4.67179 -11.8121 -3.50341 
882 2 -0.386518 11.5381 8.13458 
883 2 -3.06546 -4.91786 -13.8488 
884 2 -8.83596 0.393154 -9.42871 
885 2 2.61549 3.85587 -6.23894 
886 2 -9.83318 3.83683 -9.93093 
887 2 -6.25601 10.6812 7.8695 
888 2 -1.22575 7.32461 11.0718 
889 2 1.76473 14.3285 -3.8457 
890 2 -8.91799 -12.4883 -1.99712 
891 2 7.60489 1.1999 -10.3508 
892 2 -0.880056 -1.58113 -7.02842 
893 2 -5.91911 -4.75227 -1.22519 
894 2 -4.83163 -5.28742 5.30027 
895 2 -6.94552 6.06551 2.36459 
896 2 -9.14479 -8.11706 6.31064 
897 2 0.87478 4.12156 -8.55084 
898 2 1.86318 -3.13245 3.39508 
899 2 5.11242 -10.4397 5.43121 
900 2 11.7985 7.45759 5.03908 
901 2 4.73302 -1.62194 6.94544 
902 2 -8.36404 2.83539 6.83262 
903 2 8.17062 3.72191 -4.25249 
904 2 4.54399 7.58586 10.2038 
905 2 -1.02245 -6.38583 -4.02401 
906 2 -10.8129 -11.023 -0.719571 
907 2 -7.92956 -10.2539 3.66005 
908 2 -8.17191 -2.87404 6.82206 
909 2 5.82722 2.54475 -1.9159 
910 2 -6.80577 -0.502884 -7.4178 
911 2 -8.67527 -7.79452 -6.29676 
912 2 -3.13128 11.1514 4.5774 
913 2 7.28318 -0.988021 5.22487 
914 2 13.2275 5.45097 7.22601 
915 2 -5.34557 -11.7278 2.09484 
916 2 -11.201 -3.8287 3.86395 
917 2 -13.6928 0.332226 1.07626 
918 2 -2.14913 1.34421 9.84231 