ITEM: TIMESTEP
491000
ITEM: NUMBER OF ATOMS
1000
ITEM: BOX BOUNDS pp pp pp
-30.0 30.0
-30.0 30.0
-30.0 30.0
ITEM: ATOMS id type x y z Coordination
1 1 -3.37653 -5.40552 -10.3115 20
2 1 -0.370731 -10.2758 7.92935 10
3 1 -8.3443 9.55823 -1.37472 11
4 1 -10.7304 0.50467 -5.97407 17
5 1 -5.618 -4.43975 11.6518 15
6 1 -7.09127 -6.102 -10.4097 15
7 1 -4.91258 3.24858 -6.05897 20
8 1 -3.61319 -12.1324 2.85283 17
9 1 5.57402 -1.93586 4.77178 23
10 1 0.652811 -0.657761 11.1185 22
11 1 10.1836 -0.369217 5.06316 18
12 1 -0.0686894 6.14925 -7.73948 22
13 1 0.0309916 -2.8163 12.9774 12
14 1 -5.92939 0.920164 2.66995 23
15 1 -5.65196 -3.569 -10.618 20
16 1 3.18501 -1.85514 9.21539 20
17 1 1.27884 -6.29605 -4.37389 20
18 1 4.67916 3.99939 12.9421 14
19 1 -3.18773 -10.2013 5.61656 15
20 1 -13.359 -1.84675 1.89971 15
21 1 -12.5616 1.79736 -3.4802 15
22 1 -5.87788 7.52934 -3.01159 21
23 1 -1.48209 0.699835 -9.93081 22
24 1 3.71459 -4.04738 -10.2865 16
25 1 -5.81071 -0.983944 11.3416 17
26 1 -10.112 4.00492 -2.94897 21
27 1 -0.529019 9.4354 -2.01435 22
28 1 1.83044 -12.9062 0.0402733 15
29 1 6.06639 -6.43686 -4.39949 18
30 1 7.10269 0.578368 6.62337 20
31 1 -9.01392 8.35744 -6.97095 11
32 1 5.51129 5.92353 -5.49876 25
33 1 2.67625 7.4388 2.95599 23
34 1 5.22123 8.40166 8.62216 15
35 1 -7.98188 -1.54299 1.52122 20
36 1 6.24218 -1.494 8.18061 20
37 1 -12.7727 -3.30907 -1.17508 14
38 1 15.3963 1.00516 3.885 11
39 1 8.18114 -2.3579 -3.22266 23
40 1 2.2811 1.14847 9.03431 21
41 1 -5.9427 -6.15656 -0.198147 19
42 1 -1.5859 -5.33066 -12.6736 16
43 1 -5.97907 8.4797 -0.150069 21
44 1 -4.12374 7.89519 -8.66801 16
45 1 1.80527 -2.74141 -5.43252 20
46 1 7.95132 -3.78635 -5.73688 20
47 1 2.86767 -6.26249 5.81366 19
48 1 3.64918 -6.9769 9.97059 15
49 1 -0.637917 9.84162 8.90811 15
50 1 -8.36957 -2.81351 10.3705 14
51 1 -12.9806 4.20588 1.67443 11
52 1 11.4379 -6.91197 -3.46056 11
53 1 6.16501 1.57028 -11.2289 13
54 1 3.77864 -0.208561 6.11648 23
55 1 -1.02772 10.8851 0.854452 22
56 1 -10.7012 5.32485 -9.17471 11
57 1 1.87064 9.15707 0.160193 24
58 1 -0.953995 0.120473 -6.22358 22
59 1 -6.57923 -5.03605 8.57593 17
60 1 -2.4687 -2.42626 -10.5939 21
61 1 8.88758 -8.14602 -5.20669 14
62 1 -1.80073 4.79418 7.27324 21
63 1 -8.85816 -7.24928 0.178825 22
64 1 5.68213 -2.68834 1.5756 22
65 1 -9.80992 -11.0149 -3.15104 11
66 1 6.82111 -9.78947 3.52185 14
67 1 -7.65248 6.20287 4.12114 19
68 1 -4.7783 6.46898 2.48827 21
69 1 2.10848 6.31858 -5.67141 22
70 1 6.42254 -9.52827 0.314832 18
71 1 -6.05032 -10.0996 0.652798 20
72 1 11.6675 6.74196 4.05199 18
73 1 6.06399 4.62191 -0.609166 21
74 1 -1.68789 13.4063 -6.54571 10
75 1 -2.79193 -8.53515 -11.9425 12
76 1 -3.4575 8.18756 -5.37488 21
77 1 10.1338 0.522182 -2.10992 18
78 1 2.65846 -1.27218 -2.45715 22
79 1 7.99232 1.51045 -8.47948 18
80 1 9.40408 -8.49998 4.95431 13
81 1 -9.62535 5.62389 -6.31408 17
82 1 -1.90289 2.16199 -4.24304 17
83 1 5.06643 8.96255 0.682163 20
84 1 7.78826 9.8185 -1.46553 16
85 1 1.27035 12.2911 -1.49472 18
86 1 -4.04346 -6.52178 -14.4667 9
87 1 -8.95846 -6.04562 -5.27062 18
88 1 -1.64039 5.64166 10.4792 16
89 1 -0.244545 7.8985 -4.91513 22
90 1 0.0223541 0.607825 13.8003 11
91 1 -10.7331 -7.2226 5.90702 10
92 1 -7.90711 -7.3915 7.90431 14
93 1 1.93255 7.59017 -2.69427 19
94 1 10.5698 6.67576 -2.82644 16
95 1 -5.287 -7.77785 9.79103 11
96 1 -9.01579 2.59838 -6.07176 19
97 1 3.60493 6.32051 10.8166 17
98 1 -5.7741 2.0815 -11.7781 16
99 1 -4.53611 -4.9437 2.61128 21
100 1 -8.76971 -10.105 1.91102 17
101 1 1.54475 1.66786 3.39328 20
102 1 -0.352511 -0.868825 2.21928 22
103 1 -5.61906 -1.43562 -3.38905 20
104 1 3.32132 -7.65246 -2.87608 20
105 1 -2.30934 11.9437 8.88034 10
106 1 -6.9222 2.88241 5.12353 19
107 1 -9.10028 1.11967 -2.94016 22
108 1 -0.256761 -8.07005 4.25749 23
109 1 3.46359 3.20061 -5.38973 24
110 1 5.37977 0.833482 13.6873 12
111 1 -2.4656 -3.1729 1.36521 22
112 1 -1.79902 6.26372 -10.6321 15
113 1 -5.69628 -6.84701 -5.04657 21
114 1 -4.46231 11.3164 0.17769 13
115 1 5.26639 -2.05174 11.7277 16
116 1 -4.34655 11.5029 -5.50291 14
117 1 2.596 3.90064 -8.40139 23
118 1 -1.7422 2.4121 2.06125 21
119 1 -9.88824 4.38166 6.07587 14
120 1 -2.88811 8.49309 10.5732 12
121 1 -0.625578 -7.06285 -10.0773 18
122 1 1.21901 5.53002 5.37316 21
123 1 -3.59281 -0.335254 0.873814 24
124 1 -1.06234 -7.83017 -2.37809 22
125 1 3.48444 11.9522 -6.30599 12
126 1 4.47528 10.468 -1.54006 19
127 1 -8.96961 1.41461 1.27473 20
128 1 6.6255 5.4611 11.174 14
129 1 12.804 -1.43515 -3.39108 11
130 1 4.87427 9.48886 4.6 18
131 1 -11.0468 6.27913 3.82171 13
132 1 -10.3557 -7.85842 -3.04665 16
133 1 7.03292 -5.43913 11.3972 9
134 1 1.1069 -10.2773 -1.2503 23
135 1 -5.05991 4.97641 -10.027 17
136 1 10.3138 0.594989 -8.0056 12
137 1 -11.7376 -4.12262 5.28711 13
138 1 -4.49463 -12.9289 -6.5886 13
139 1 -3.18327 -9.00655 2.61014 22
140 1 -1.13752 -5.94699 2.65911 20
141 1 -6.51012 -4.44224 -13.2268 15
142 1 -9.03802 -1.05104 -8.48216 18
143 1 12.1491 3.27675 9.6029 11
144 1 5.13046 -4.29401 9.60825 20
145 1 1.54223 -4.5637 8.40351 21
146 1 8.79235 5.37599 2.32725 23
147 1 -8.59235 -11.7005 -0.700615 17
148 1 3.80408 12.1013 1.05013 17
149 1 -5.99244 -7.95661 -13.2459 9
150 1 -3.25609 -10.7678 -9.2602 14
151 1 -6.17586 -7.86584 2.64661 19
152 1 -2.86004 -6.0906 -0.274952 22
153 1 -3.25923 -6.37683 4.93447 22
154 1 14.0598 3.79245 3.74116 16
155 1 -4.06089 -3.48424 -5.97066 23
156 1 -3.14791 -2.4531 12.347 16
157 1 -3.30272 -13.5176 -0.308607 14
158 1 5.42931 0.840801 -5.73306 20
159 1 -0.910745 -13.2332 1.70178 14
160 1 2.92864 -2.90444 0.423636 23
161 1 -0.783818 -13.9351 -1.80328 14
162 1 -9.62424 2.19701 -8.88503 16
163 1 13.8829 5.89866 1.45475 13
164 1 -8.63135 0.625221 -11.6132 13
165 1 -1.08522 8.89164 -8.65737 17
166 1 -9.06229 0.284846 4.32092 20
167 1 0.846605 11.4468 6.7855 15
168 1 12.3454 0.157925 8.31319 14
169 1 -10.3365 1.34518 7.01594 13
170 1 -7.96955 0.348585 9.34178 15
171 1 -5.09297 10.0056 8.10363 13
172 1 1.69994 -1.01347 -10.8388 19
173 1 3.41997 -8.26679 0.184788 20
174 1 9.2901 -3.52931 -8.50977 13
175 1 -1.78172 -2.8385 4.25948 23
176 1 1.83479 2.52276 6.65515 21
177 1 -13.6659 -0.264581 -1.16127 14
178 1 6.42467 -9.05193 -3.28297 15
179 1 -0.600124 7.94768 2.1725 23
180 1 -10.9797 2.96855 3.63092 17
181 1 0.692351 4.77145 2.25688 23
182 1 0.934504 -7.93786 7.4474 20
183 1 0.569708 6.98493 8.29508 20
184 1 -7.65503 -5.36939 -2.63024 21
185 1 2.84528 -0.99602 2.85404 23
186 1 -3.71671 10.8171 5.70044 16
187 1 -6.27197 1.8904 -3.50247 19
188 1 -14.3289 1.3186 1.24777 11
189 1 -5.03699 -0.114743 -6.48257 20
190 1 -8.11793 7.52456 1.67261 17
191 1 4.17267 3.51105 9.90608 21
192 1 3.51973 -10.0771 8.15267 11
193 1 -4.49189 2.82984 0.714045 24
194 1 -4.50961 -2.93223 9.37744 24
195 1 3.44871 -9.93026 -8.22271 15
196 1 -5.95073 -5.52007 -7.78697 21
197 1 -10.4572 -1.15671 -0.428882 22
198 1 -3.58506 -9.06808 -0.435347 20
199 1 -2.70001 -1.55959 -4.42408 21
200 1 13.1386 1.75235 -2.63329 16
201 1 -8.25608 -2.60614 -11.2614 14
202 1 5.14449 1.22797 3.9147 22
203 1 -10.2587 7.36953 7.20373 10
204 1 -6.37132 9.90841 2.39395 16
205 1 -2.88316 7.95197 7.40873 20
206 1 11.5131 -4.37037 -3.38345 15
207 1 11.4142 1.12288 -5.04831 16
208 1 3.50021 4.45742 4.13514 19
209 1 -4.6324 5.56508 -0.632986 21
210 1 1.05528 -9.76834 -4.42754 20
211 1 -0.121865 6.48067 -0.434406 25
212 1 1.63391 1.56192 -2.87937 21
213 1 -6.09275 9.43265 -7.46451 14
214 1 3.98853 -10.7928 -1.71287 17
215 1 11.9317 2.38832 5.89381 21
216 1 -7.74062 -0.607441 -5.47305 19
217 1 -8.52362 -8.30294 4.78143 18
218 1 -2.3593 5.46333 1.62375 23
219 1 -10.1773 7.25359 -3.42083 14
220 1 -2.00321 -9.47606 -6.02161 22
221 1 5.47913 -7.38877 8.10529 17
222 1 -3.8225 -14.1687 -3.59691 15
223 1 -12.0164 3.26669 -6.47875 12
224 1 -0.774721 -11.0298 4.06762 19
225 1 -0.98909 1.77731 8.2391 21
226 1 0.829038 3.15095 -5.78205 22
227 1 -5.0136 5.58729 6.44132 20
228 1 0.141399 -8.05779 -7.09706 23
229 1 -2.7917 -0.818173 7.02381 23
230 1 -11.9115 -0.719591 5.14382 14
231 1 -1.80902 -8.21772 10.2903 11
232 1 -6.15021 3.45254 8.57971 20
233 1 3.37793 -7.15127 -5.99059 23
234 1 3.72835 -8.05256 3.32516 19
235 1 0.081795 11.7996 -8.03346 13
236 1 -8.85423 -4.62566 7.39204 17
237 1 7.96047 -4.22754 8.79067 15
238 1 7.5302 -0.214281 3.16122 22
239 1 -4.20574 3.43304 3.91046 22
240 1 1.26685 0.794638 -8.27679 21
241 1 8.85757 -5.32951 5.95247 16
242 1 -2.15818 3.57961 -1.64217 22
243 1 -0.965722 2.31881 11.7478 18
244 1 1.34672 13.0429 1.80639 11
245 1 6.57025 -7.07024 5.23133 19
246 1 -1.12171 -13.7258 -5.03163 11
247 1 7.55856 9.11091 6.55891 16
248 1 -4.69291 6.17391 9.66498 13
249 1 -4.06358 -8.33674 -3.24539 19
250 1 -7.58017 -9.39745 -4.81333 17
251 1 -8.39713 9.61328 7.96967 9
252 1 -4.47493 -10.7554 -4.1087 19
253 1 -5.12032 -2.0583 3.03299 22
254 1 14.5798 2.51249 6.47574 14
255 1 9.20001 4.4492 -0.619653 23
256 1 -0.912593 3.22273 -8.07573 20
257 1 -6.90096 3.87441 -8.04393 21
258 1 0.62033 7.82784 11.2418 13
259 1 -10.6089 -4.5241 -2.94398 18
260 1 1.44833 14.1455 -6.26929 8
261 1 -5.27097 -8.51308 -9.95407 18
262 1 -3.65642 -3.2226 -13.267 16
263 1 7.75763 8.23979 -4.71722 17
264 1 7.5778 7.32643 0.0164802 22
265 1 8.28327 4.40047 -5.94162 19
266 1 1.63106 -12.8731 3.50553 12
267 1 4.02529 2.11248 -1.89237 24
268 1 -8.32125 3.95567 -10.944 14
269 1 7.65091 5.79052 -2.99597 21
270 1 6.35509 -6.33819 2.18613 21
271 1 -2.97852 0.198394 -13.0206 15
272 1 1.0371 -6.15903 -1.0086 20
273 1 -2.27126 -5.35475 12.6687 13
274 1 -6.31664 -2.31256 -8.16982 20
275 1 5.54782 5.97733 2.21697 21
276 1 3.97699 4.38743 -10.8479 15
277 1 -12.5456 -5.15422 1.94152 14
278 1 10.6234 -2.47079 -1.37605 19
279 1 -1.73273 4.77574 -5.25237 20
280 1 -7.15632 10.2305 -4.39469 12
281 1 5.068 -6.95704 -9.13197 15
282 1 4.57124 1.25641 -8.62481 23
283 1 10.6428 -5.56656 -6.28861 14
284 1 1.45742 -9.94763 2.23977 20
285 1 -11.624 0.481778 2.31827 18
286 1 -2.81998 8.89978 3.14938 22
287 1 -3.43822 5.27065 -7.49913 20
288 1 12.9479 8.63255 -0.444701 9
289 1 -1.61112 -11.2454 0.116437 22
290 1 1.84791 -4.79128 -7.5711 21
291 1 3.0108 6.01533 -0.0411951 22
292 1 12.1703 -3.86793 1.39974 15
293 1 1.77296 -6.26764 2.20074 23
294 1 4.82547 -2.38375 -4.57289 23
295 1 -9.09846 3.3456 9.37899 10
296 1 -5.5658 -2.81226 -0.298842 23
297 1 -4.9356 -9.96052 -7.07786 18
298 1 -0.866909 -3.2687 10.0404 22
299 1 4.52394 6.87356 -8.04191 17
300 1 -4.07154 9.99226 -2.80325 20
301 1 -2.29904 12.2939 -1.66092 13
302 1 0.616016 -1.25002 8.14202 20
303 1 4.12155 -10.479 -5.07758 15
304 1 3.60493 -1.62539 -7.52259 23
305 1 -11.8753 -6.5631 -0.392195 15
306 1 -11.5834 1.97156 -0.602339 23
307 1 -7.56743 -2.86019 4.74616 23
308 1 4.98584 7.54302 -2.41111 24
309 1 0.484658 -10.6098 -9.31592 13
310 1 0.426438 -6.2708 10.7385 15
311 1 8.31389 0.342891 -5.02406 19
312 1 0.0408842 -0.319144 5.43306 21
313 1 -9.98925 4.729 0.92949 21
314 1 10.8892 -6.45567 -0.416988 16
315 1 7.70711 2.40494 12.3614 13
316 1 -4.03354 2.63671 -8.98487 21
317 1 8.01118 6.46978 -7.49788 13
318 1 -0.412381 -1.91776 -12.7838 13
319 1 -1.86014 -10.872 -3.13871 21
320 1 13.1494 2.65843 0.978322 15
321 1 8.3522 -6.82008 -8.50883 10
322 1 6.25744 -8.68798 -6.80694 14
323 1 6.0543 11.1879 -4.15021 16
324 1 -6.93406 4.23487 1.65272 20
325 1 12.4038 4.44436 -4.55309 12
326 1 2.58393 -4.22407 11.422 17
327 1 6.71975 2.77584 1.87673 24
328 1 7.171 5.10783 7.98199 19
329 1 -8.93618 -4.56238 -8.52031 14
330 1 12.1167 4.63061 -1.29067 17
331 1 7.86272 -3.72778 3.56264 18
332 1 -0.678313 -8.29723 0.868236 21
333 1 4.3283 11.4317 6.91966 11
334 1 6.56715 3.95165 4.97987 19
335 1 -2.3895 6.73782 -2.76597 24
336 1 -1.6322 -12.6259 -7.8174 13
337 1 -6.49898 1.11373 -8.515 20
338 1 -6.08572 -0.783977 -13.218 15
339 1 -11.3841 -1.25239 -3.30265 18
340 1 10.0853 -5.93884 2.82402 16
341 1 -0.103641 -5.48189 5.64119 22
342 1 3.69362 3.16489 1.28696 21
343 1 2.05913 -3.05954 5.71991 21
344 1 10.1973 7.12856 -5.67586 12
345 1 5.75706 -0.196399 -2.78949 19
346 1 13.0181 -0.308118 5.51501 17
347 1 9.65895 9.91213 0.951598 15
348 1 11.2041 -3.04435 4.08087 18
349 1 0.761372 4.12892 9.45009 22
350 1 -9.64184 -5.53245 3.19022 19
351 1 -7.60005 -7.73896 -7.50163 16
352 1 9.38748 4.78751 10.2913 15
353 1 -4.39705 12.1917 3.43179 12
354 1 9.64972 1.91737 0.632038 22
355 1 6.13797 -3.79719 -1.46405 22
356 1 9.6504 5.12803 5.73356 19
357 1 -9.87953 -1.69627 7.37681 17
358 1 8.17806 -1.13559 -10.2477 14
359 1 -3.14687 -7.55747 -7.59501 21
360 1 8.40504 7.84585 9.36686 11
361 1 6.16529 6.68937 5.5344 19
362 1 2.51733 -1.12518 13.2889 13
363 1 2.50251 1.73858 12.2143 20
364 1 -6.25298 2.16147 11.5427 12
365 1 -4.51623 4.79107 -3.7676 21
366 1 -6.39726 6.68521 -6.28164 21
367 1 7.06715 12.3242 -0.704548 10
368 1 -4.41023 -3.48103 5.89036 21
369 1 0.091465 14.1524 -3.79246 10
370 1 -0.848493 -4.31368 -2.56189 21
371 1 -5.44357 -11.7912 -1.88491 21
372 1 11.3946 4.22146 2.40034 23
373 1 -0.143529 8.39035 5.61473 20
374 1 -7.58398 3.44976 -0.783219 22
375 1 9.51214 3.25704 -3.09439 24
376 1 5.28636 2.15038 7.34758 20
377 1 7.24261 11.0656 1.82967 14
378 1 -6.39598 0.327092 -0.642174 23
379 1 0.449099 -1.88878 -8.19895 23
380 1 3.80423 5.2115 7.62281 21
381 1 2.67329 -4.3292 -2.32467 20
382 1 3.34208 12.6854 4.53371 10
383 1 -10.4625 -2.58905 2.74889 22
384 1 4.15324 -11.0546 1.88142 15
385 1 7.11119 9.09369 -7.08622 12
386 1 3.71345 -4.38642 3.234 23
387 1 -2.01873 5.94579 4.71172 22
388 1 5.24922 -1.1062 -10.3588 17
389 1 -2.54315 -2.39972 -1.63342 22
390 1 4.94249 -4.64388 -6.89126 19
391 1 1.80846 0.403172 0.208144 22
392 1 2.77968 9.53875 9.4416 15
393 1 5.39072 -4.31433 6.11742 19
394 1 2.34207 0.176883 -5.34391 21
395 1 -7.20659 -12.8365 -3.65366 12
396 1 -0.347797 -0.99586 -3.07596 23
397 1 -3.64396 2.25995 6.39294 20
398 1 10.479 -1.40868 1.75811 20
399 1 -1.27008 10.8989 -4.47944 18
400 1 10.8361 3.73451 -7.3007 11
401 1 -0.94102 2.81927 5.01073 20
402 1 6.33954 3.0212 -3.85001 23
403 1 1.76354 7.10071 -10.0709 15
404 1 -2.41677 -0.124707 10.2028 22
405 1 -1.65512 -3.88487 7.58079 20
406 1 1.99384 -7.32417 -9.31415 15
407 1 -8.11845 6.42192 -1.16515 22
408 1 10.0538 9.79485 4.29159 13
409 1 -7.34942 -4.46591 1.92255 20
410 1 5.6911 3.80537 -7.99765 20
411 1 -3.5106 1.34634 12.9599 12
412 1 -11.0467 -9.67209 -0.201681 14
413 1 7.72157 -1.0178 -0.286636 20
414 1 -4.35634 -4.8515 -2.80263 22
415 1 9.2856 -8.77975 1.75971 14
416 1 6.85069 -9.84143 7.06122 12
417 1 2.66414 8.65906 6.54319 21
418 1 -7.79897 5.92054 7.86627 16
419 1 9.15302 2.40303 4.55301 21
420 1 6.38694 -6.92904 -0.918674 20
421 1 1.04338 3.37279 -0.841359 20
422 1 7.39904 8.46151 3.18821 18
423 1 -1.02218 10.8624 3.7736 15
424 1 1.63693 -10.5213 5.6894 15
425 1 -8.30823 -2.19325 -2.42496 19
426 1 5.08947 0.408055 10.572 22
427 1 3.51889 13.4043 -3.42289 11
428 1 7.55598 1.66079 9.55449 20
429 1 10.8324 -2.83907 7.26593 11
430 1 10.6799 8.00647 7.1884 13
431 1 0.144052 4.94074 -2.9861 23
432 1 0.515502 -4.06527 -10.4567 18
433 1 -2.62745 3.13816 -11.628 16
434 1 -3.3838 3.0705 10.0006 21
435 1 12.1369 1.16399 2.70478 20
436 1 1.87323 8.89225 -7.38638 17
437 1 6.44554 -3.98038 -9.4275 17
438 1 -6.3358 -12.8925 1.03817 14
439 1 -6.61642 -3.72451 -5.06552 20
440 1 0.175208 1.19793 -12.6673 13
441 1 -2.46738 -6.38368 -5.03141 22
442 1 -3.26076 -5.4206 10.0561 18
443 1 -1.31393 0.799681 -0.746319 22
444 1 -2.16986 -7.47928 7.42195 20
445 1 7.32638 2.04232 -1.25308 23
446 1 -9.10261 8.93977 4.76357 15
447 1 8.55356 -4.3654 0.193884 22
448 1 -14.4335 3.17761 -1.24422 13
449 1 12.8254 9.22426 2.29354 10
450 1 11.8553 6.07806 9.82279 9
451 1 -10.4156 -3.0144 -5.90987 14
452 1 -4.68021 -0.557323 -10.5349 24
453 1 9.147 -8.74341 -1.68522 14
454 1 -6.91785 -8.57417 -2.15609 24
455 1 -11.6226 -8.13624 2.73608 14
456 1 9.76543 2.43279 7.62987 19
457 1 -12.5117 5.50332 -1.2505 13
458 1 -3.21579 11.029 -8.28101 12
459 1 8.64541 -7.32689 8.33717 13
460 1 0.197266 -2.71203 -0.709522 20
461 1 -5.15373 0.54626 8.59567 20
462 1 -1.4283 -4.87946 -7.95496 22
463 1 -6.35057 -10.9288 4.08248 17
464 1 7.66484 -0.962313 11.5227 13
465 1 1.77023 -12.6237 -3.4601 14
466 1 10.6901 -2.18508 -5.89358 15
467 1 -6.8687 11.1329 5.60098 13
468 1 -5.66267 -0.213288 5.68664 22
469 1 -2.4862 -1.47535 -7.79654 22
470 1 1.11332 -11.5423 -6.37037 17
471 1 10.6592 7.17496 0.37803 22
472 1 12.8077 -0.519093 -0.0310478 16
473 1 -5.66647 -8.40023 6.45435 17
474 1 4.57789 8.75788 -5.31573 19
475 1 6.79744 -1.56364 -7.24496 21
476 1 -13.2577 5.14599 -3.93723 9
477 1 3.27271 4.8179 -3.03836 24
478 1 1.53607 9.99325 3.54688 22
479 1 2.41425 10.0885 -3.76976 19
480 1 1.25328 4.74398 12.4149 14
481 1 4.95001 0.271998 0.606072 24
482 1 0.67676 -3.62893 2.72368 20
483 1 4.6347 -11.6898 5.33162 10
484 1 -2.6489 0.108987 3.93314 23
485 1 12.8289 5.3885 6.64583 14
486 1 8.47155 -5.58267 -2.65854 23
487 1 -0.695009 -3.58955 -5.81831 22
488 1 -7.55629 6.64678 -9.41048 15
489 1 -5.41144 8.36149 5.20595 20
490 1 -4.11472 0.693193 -2.14887 19
491 1 -2.99276 8.1833 -0.200727 23
492 1 -6.67509 -5.7784 4.90699 23
493 1 3.98762 -5.39861 0.229524 21
494 1 2.90797 1.64357 -11.0752 17
495 1 -9.75697 -4.19646 -0.0350026 21
496 1 -7.52993 4.81675 -4.13073 20
497 1 9.4574 -0.667785 9.25836 15
498 1 -6.93805 -2.00245 7.52873 20
499 1 13.9971 -1.55808 2.56566 11
500 1 0.694618 3.98736 -10.8794 17
501 2 -10.4921 -1.20845 -6.92072 13
502 2 -3.81539 7.96397 -3.43349 21
503 2 -2.30429 -1.61049 -13.1444 16
504 2 2.81441 3.71105 12.5894 14
505 2 -6.52219 -7.72262 -11.2408 13
506 2 3.07807 -2.4881 12.1225 17
507 2 -9.9586 1.47783 3.06653 20
508 2 13.1466 4.67012 0.22036 15
509 2 -0.631786 5.46269 8.61368 20
510 2 -5.7504 -1.75605 -9.72677 22
511 2 -6.29503 -8.88443 -8.10497 17
512 2 -10.4964 2.48276 -2.18886 22
513 2 -3.48203 -3.09117 3.06287 21
514 2 0.789493 2.42731 8.62374 21
515 2 7.70827 -2.27397 -8.81765 18
516 2 8.24826 0.59709 4.78043 18
517 2 -7.59719 9.1697 0.951971 15
518 2 13.289 3.75327 5.58355 17
519 2 -2.71539 -4.37799 -1.50511 22
520 2 -10.4158 -5.18254 6.12506 16
521 2 -2.64571 -10.6297 3.78279 18
522 2 9.18057 -3.77505 7.37222 15
523 2 -8.94309 6.24086 0.605653 19
524 2 -3.88665 7.07267 -6.81024 18
525 2 -1.4587 7.75805 4.20719 22
526 2 -3.52424 5.39012 3.46658 22
527 2 1.98044 -1.66413 -0.648968 22
528 2 3.98984 -4.09787 -0.956752 21
529 2 -4.4684 3.57203 -11.2074 15
530 2 0.325961 -3.73564 -8.40567 24
531 2 -5.72491 0.39306 -4.46416 18
532 2 10.2762 -3.68765 -6.87404 13
533 2 -2.3334 -9.60595 0.796683 20
534 2 11.7629 7.2625 -1.23365 14
535 2 2.08265 5.48987 3.37969 20
536 2 1.8793 -6.92158 -7.26333 22
537 2 -1.5434 -6.62132 11.2445 14
538 2 8.81737 0.724567 7.9038 19
539 2 -13.9079 4.44934 -2.29138 12
540 2 1.74434 -2.38428 3.79691 20
541 2 -3.65491 -1.23839 -2.73624 22
542 2 9.14201 8.37034 -0.0728795 19
543 2 2.20207 -12.1585 1.83331 16
544 2 4.77337 7.06096 7.09667 20
545 2 5.78916 9.54834 2.61941 18
546 2 2.73251 7.7671 -8.60474 16
547 2 -9.07221 4.5608 7.82967 14
548 2 2.77808 1.97963 -8.803 27
549 2 -8.70986 1.09309 -4.87006 20
550 2 -12.0058 -1.23054 3.07528 18
551 2 -7.75059 -8.60479 1.3227 20
552 2 1.78975 -9.73772 7.39222 13
553 2 -1.69466 1.23295 13.1816 12
554 2 1.00947 8.90899 9.57578 16
555 2 -7.04052 0.3319 1.26209 23
556 2 5.26567 -7.13463 -2.60467 23
557 2 11.9171 -2.71691 -4.37758 15
558 2 -2.59939 -12.5344 1.29712 18
559 2 3.07871 -2.80961 -3.53289 20
560 2 3.9163 9.83682 7.87235 14
561 2 7.66462 -5.08396 -4.2252 21
562 2 6.01473 -3.82076 11.4914 14
563 2 -5.99638 -5.94817 1.67613 20
564 2 14.4162 -0.464309 4.16879 12
565 2 4.26067 -0.297289 4.10032 21
566 2 0.119838 -13.7431 -3.54831 14
567 2 9.60596 -1.65658 3.59977 16
568 2 -1.54318 0.110377 -4.31464 18
569 2 -0.881472 -6.94678 -0.632795 21
570 2 -4.08915 -8.06563 -13.1216 11
571 2 -4.95887 -9.37767 2.12935 21
572 2 -10.6461 -9.52855 1.81067 14
573 2 -4.88289 -3.53777 -4.18939 20
574 2 -4.38558 8.20421 3.42618 22
575 2 -0.346477 1.72157 -7.05532 22
576 2 7.78516 5.66934 -0.97968 24
577 2 4.29452 4.99205 -8.83762 19
578 2 -5.93424 5.53943 8.34101 16
579 2 -4.7146 1.58472 -7.19116 18
580 2 -11.5699 4.41422 0.0798106 17
581 2 -6.36099 0.478102 10.4395 19
582 2 -7.02877 1.05652 4.54032 19
583 2 -7.17066 1.59567 -1.8983 22
584 2 6.11131 -3.13649 -6.06127 19
585 2 7.11582 -8.81529 -1.38915 17
586 2 5.92958 1.94013 5.50733 23
587 2 1.16614 8.46961 2.05766 21
588 2 -8.49876 7.65451 8.16796 10
589 2 0.601574 1.64614 5.29312 20
590 2 11.3631 6.09982 -4.41727 16
591 2 4.05075 7.26122 1.43947 23
592 2 3.57815 8.48117 -3.2723 21
593 2 -0.987406 8.41317 7.57313 21
594 2 -0.990258 -1.06329 4.21234 22
595 2 3.24334 -3.90612 9.50877 20
596 2 5.13701 -0.86458 -8.24394 22
597 2 -0.132881 4.02568 11.4652 17
598 2 9.49354 1.46927 -3.88198 19
599 2 -3.63209 -0.866954 8.8784 23
600 2 -0.211234 -12.8648 -6.51351 14
601 2 -2.3754 -4.4964 -5.97001 22
602 2 4.82943 -10.7211 0.0226584 15
603 2 -1.27436 -2.96894 -3.7984 23
604 2 8.89226 7.69134 -3.37492 16
605 2 -7.72707 2.45394 -11.7304 14
606 2 -3.67677 11.6446 7.67382 12
607 2 -2.5707 3.62239 0.622307 22
608 2 -7.67443 -6.91528 -1.30202 18
609 2 0.833443 7.4727 -6.58873 19
610 2 1.67506 7.33526 -0.629437 24
611 2 6.07053 2.75774 13.2072 14
612 2 4.52583 -9.49413 -6.68327 16
613 2 8.02465 4.17478 11.5119 12
614 2 9.52214 -4.007 -2.29061 20
615 2 11.5688 6.60117 6.07328 14
616 2 -4.95037 10.9532 -7.43439 12
617 2 2.33275 -6.1825 11.1436 12
618 2 -6.24475 -8.22117 8.29641 11
619 2 7.12888 -8.27539 8.57669 12
620 2 -2.54442 12.1407 -5.31473 15
621 2 -5.15499 -12.8381 -3.41459 16
622 2 -2.23069 2.33461 -9.31059 20
623 2 -1.24489 -11.3102 -9.23767 12
624 2 9.3538 9.00398 6.07817 15
625 2 -10.5938 -7.88743 -0.958712 18
626 2 -12.7086 2.08149 1.98212 17
627 2 7.76047 -1.55894 9.70472 19
628 2 -2.74329 -14.2468 -2.11616 14
629 2 0.147727 -0.265155 -9.48163 24
630 2 2.12983 2.02323 -4.87178 20
631 2 -5.46605 -2.51001 -13.1529 16
632 2 -5.98169 -6.21942 -14.3455 9
633 2 -4.01109 0.416245 5.99462 21
634 2 -5.79424 -8.87218 -3.96174 19
635 2 3.40681 -3.41996 -6.98941 21
636 2 7.35649 0.251228 -6.83332 19
637 2 -3.53094 -2.06995 0.0242573 22
638 2 -2.56202 -3.18184 -8.88068 22
639 2 0.866798 -4.20079 -1.59608 22
640 2 4.76174 2.33047 -6.82277 20
641 2 -0.0226832 -9.77807 -5.99952 18
642 2 0.285883 9.99842 -7.80669 16
643 2 4.7425 11.4754 5.07662 12
644 2 15.717 2.59457 4.93769 8
645 2 -10.1315 -0.218085 5.85761 17
646 2 -1.16344 -10.4984 6.19673 14
647 2 -1.56 5.05129 -7.19724 21
648 2 2.88168 4.361 6.10067 19
649 2 -9.3557 -5.39498 1.28837 21
650 2 -4.40158 -0.222295 2.67149 23
651 2 -6.2246 6.81776 5.38766 18
652 2 -7.78123 -4.67946 3.89462 22
653 2 5.76376 -7.72157 3.65922 17
654 2 -13.2159 -3.41104 0.8527 15
655 2 -7.69692 -11.3494 0.911672 16
656 2 -4.24375 -7.25921 -0.849567 20
657 2 8.32966 -5.81928 9.9494 11
658 2 0.616434 8.85924 -3.29383 23
659 2 -0.515079 -2.8085 1.14253 22
660 2 3.17824 11.4754 -2.49986 18
661 2 10.5003 4.70835 -2.35101 20
662 2 -2.51567 11.8063 -0.0243846 14
663 2 -9.39588 -4.48128 -6.66505 17
664 2 -12.2222 -1.44426 -1.1976 18
665 2 -3.03483 -13.615 -5.39364 13
666 2 6.16438 -3.66717 8.10355 20
667 2 9.07622 -7.33346 6.4802 13
668 2 -7.4706 9.34402 -6.14005 13
669 2 6.24039 0.276114 -1.05653 19
670 2 0.484998 -4.36232 11.3518 17
671 2 -0.827088 -1.63541 -6.80899 24
672 2 5.40702 4.17917 1.15176 23
673 2 7.07722 8.36164 8.17533 14
674 2 1.72004 -0.577755 9.49737 21
675 2 -8.09258 4.47064 4.85599 19
676 2 3.4546 1.78022 10.4111 23
677 2 6.48847 9.56578 -5.08838 17
678 2 -3.73054 -9.51274 -10.5825 15
679 2 -5.2667 1.46672 -9.96687 22
680 2 -8.53221 -1.68818 3.47404 21
681 2 6.7245 11.2259 -2.30645 11
682 2 0.881821 -4.6807 -5.69692 22
683 2 9.74146 2.31258 -1.25349 18
684 2 9.84905 -7.87078 3.30129 14
685 2 -10.3953 0.57305 0.421116 19
686 2 0.0560432 10.3268 5.28692 18
687 2 -4.39291 9.46579 -0.667012 21
688 2 2.37171 5.2684 -10.605 15
689 2 -9.42307 7.38081 3.45493 15
690 2 0.157708 -3.12395 8.34761 21
691 2 1.94616 4.44366 0.5075 22
692 2 -12.0159 -2.39306 5.78789 9
693 2 2.63732 -8.99424 -1.53647 19
694 2 -0.0863408 -9.90344 -2.70347 20
695 2 -5.27746 11.7973 4.98634 12
696 2 0.841776 -7.20715 5.5394 21
697 2 -13.0964 3.25687 -4.74376 14
698 2 3.11154 -9.2121 1.77133 19
699 2 6.52453 8.53081 5.07913 17
700 2 -1.89847 1.59355 -12.3087 17
701 2 -1.77924 9.12488 -5.15569 19
702 2 9.52021 2.37768 -7.68134 14
703 2 -1.3185 7.71089 -1.48267 25
704 2 -6.47371 -0.289309 7.71799 19
705 2 -8.15604 -4.34807 9.39349 14
706 2 -2.57615 -5.31027 1.4984 21
707 2 -0.0171631 2.9737 2.81388 18
708 2 -10.1287 -6.05817 -3.77444 15
709 2 -2.71469 -3.81065 9.2703 21
710 2 -1.13574 6.16702 -4.31149 23
711 2 0.645444 1.37621 -0.95708 20
712 2 4.24659 -0.707883 -5.47035 22
713 2 5.4737 -6.26943 9.8075 15
714 2 -5.70335 -3.78767 -6.87585 21
715 2 4.56764 2.65094 -11.3906 14
716 2 10.357 5.32871 3.71091 18
717 2 7.40826 6.81705 1.92963 21
718 2 5.99717 -2.4839 -2.96102 22
719 2 -6.50059 -1.49201 -1.35426 19
720 2 -1.97583 10.6081 -2.5895 22
721 2 7.58095 5.4819 5.92461 19
722 2 -3.54878 -1.50664 -6.24189 21
723 2 2.15967 -12.1442 -1.63371 15
724 2 -3.60829 -7.92289 6.11004 17
725 2 -6.13046 3.45076 -4.28397 19
726 2 3.32895 1.42974 7.41287 23
727 2 8.69399 7.95556 -6.53849 13
728 2 2.27167 12.8629 0.0915756 14
729 2 3.37497 2.46283 3.07792 22
730 2 2.73234 -11.8563 4.82359 13
731 2 6.83045 -8.26558 -5.03152 16
732 2 -0.388745 7.14322 -9.54667 16
733 2 6.15953 0.995439 2.26283 23
734 2 3.48427 0.627912 13.4833 15
735 2 0.646141 -1.15281 13.6496 12
736 2 6.91411 -2.10669 3.43409 20
737 2 -4.93979 0.669949 -12.783 14
738 2 11.6265 -5.6566 -4.74668 12
739 2 -5.18148 11.361 1.88485 13
740 2 3.6623 -8.31155 -9.19793 13
741 2 0.830516 1.21774 12.1156 18
742 2 2.39506 -4.30665 1.88677 22
743 2 -5.40909 2.93045 2.44305 20
744 2 -11.4196 4.6229 -7.58379 11
745 2 9.80075 -7.94028 0.0516098 16
746 2 3.63045 10.1948 0.330449 19
747 2 13.2587 7.62315 1.24665 11
748 2 14.119 2.08205 2.7427 18
749 2 -9.59696 -0.789954 -2.34387 19
750 2 -8.35323 4.6659 -2.23954 21
751 2 -7.85698 2.27369 -7.83078 22
752 2 -4.61184 1.06199 -0.33341 22
753 2 10.4647 5.3598 1.03953 22
754 2 -7.73768 5.48917 -6.86327 21
755 2 -2.59184 -2.87949 6.20834 21
756 2 8.07398 0.903174 11.265 13
757 2 1.80234 -11.0475 -8.07344 15
758 2 0.643676 -0.523654 -12.4322 13
759 2 4.6586 12.1536 -4.83734 12
760 2 5.6595 11.9288 0.699326 13
761 2 -3.02821 -9.41055 -7.66921 19
762 2 -8.17667 -11.3191 -4.1841 14
763 2 9.12639 -0.087294 0.883647 22
764 2 -6.08023 6.91256 -1.13799 24
765 2 -5.20714 -10.3988 5.67237 12
766 2 8.59251 -5.00408 2.00031 21
767 2 -5.57147 -2.18252 4.97506 23
768 2 -4.1651 -6.4548 -4.03339 23
769 2 4.7346 4.85207 11.3014 17
770 2 -0.508033 3.33018 -4.37225 20
771 2 -10.6308 6.27502 5.64514 14
772 2 6.71476 1.09574 -4.22887 21
773 2 -7.19081 -5.91476 6.85281 21
774 2 -1.94102 9.18008 1.28186 22
775 2 0.0585288 -13.7918 -0.00327975 15
776 2 -1.57863 -5.72597 6.85207 22
777 2 11.2593 4.69723 10.8157 9
778 2 -14.4338 3.44097 0.704231 11
779 2 4.88644 4.09332 -4.25253 25
780 2 -1.22248 -1.5568 11.1114 21
781 2 -1.67997 -6.93088 -11.6177 14
782 2 11.3084 -5.68754 1.4621 13
783 2 6.63866 -7.66164 -8.25349 14
784 2 -3.43677 5.17697 -2.05339 23
785 2 -3.28802 4.95903 10.1126 16
786 2 -9.43371 4.27043 -4.90592 18
787 2 11.6624 -5.73279 -1.99136 14
788 2 5.9939 8.84875 -1.21682 23
789 2 -3.12325 6.15653 6.62965 21
790 2 2.21171 -1.42616 6.95617 20
791 2 2.3087 3.26706 -2.23054 21
792 2 -1.3977 4.31661 -11.1337 16
793 2 -11.7711 0.518263 -4.44079 16
794 2 1.22178 -0.70877 -4.10146 18
795 2 -5.35118 -5.33282 -9.58309 21
796 2 -3.50784 6.12407 -9.48039 17
797 2 -7.58055 -0.830687 -11.9535 16
798 2 4.98548 -5.12657 -8.95584 17
799 2 0.280854 -10.0644 0.743341 22
800 2 -3.41183 -7.55218 9.68384 13
801 2 -5.85466 6.18215 -4.39079 20
802 2 3.95774 -3.53245 5.07265 20
803 2 7.82163 3.67209 3.61015 22
804 2 8.14877 -5.02928 -8.94951 13
805 2 -0.288414 -12.6404 3.34678 16
806 2 11.4755 8.65511 3.76186 13
807 2 -4.4097 7.93386 9.26241 14
808 2 -12.5944 -7.20586 1.35232 13
809 2 8.12268 3.05663 0.377568 18
810 2 1.65825 -4.89824 6.52487 19
811 2 -7.14902 9.57811 4.37089 18
812 2 11.4477 3.07799 -5.6167 16
813 2 7.7796 6.15573 9.7067 13
814 2 -10.7659 2.62537 5.56548 14
815 2 1.7511 12.5201 -7.36961 11
816 2 -8.56438 3.27708 1.0413 20
817 2 -2.46562 1.80631 -2.27758 20
818 2 6.73285 -0.321197 -11.0703 12
819 2 -1.77866 2.66614 6.84268 23
820 2 -7.36184 3.07509 10.0154 13
821 2 13.4881 1.05344 6.88792 14
822 2 6.14345 2.13203 -9.18329 20
823 2 -7.14414 -5.50185 -4.53728 23
824 2 0.0906084 -7.47855 2.54323 23
825 2 12.6049 0.399566 -3.78877 13
826 2 -0.554561 5.99441 1.82339 23
827 2 -0.857642 -3.67356 -11.9709 17
828 2 -5.08567 3.6063 5.55466 20
829 2 -9.60996 -2.60175 0.94358 22
830 2 5.15878 -10.5668 -3.41966 13
831 2 -2.91935 -9.96561 -4.56319 21
832 2 -2.17385 -11.9821 -1.47092 21
833 2 10.7972 -2.84198 0.511075 20
834 2 -5.32935 10.74 -4.18259 13
835 2 2.44678 11.8374 6.22137 13
836 2 -3.5194 -12.1999 -7.92399 11
837 2 6.05363 1.05688 8.71107 21
838 2 1.99451 6.32947 11.6635 16
839 2 -0.416142 4.64582 -1.23335 21
840 2 -6.23182 7.64023 -8.23589 17
841 2 1.03744 -5.83234 -9.88872 16
842 2 -5.47687 -12.1366 2.69375 14
843 2 -9.46826 8.08184 -2.01029 14
844 2 6.26501 7.52269 -7.6985 14
845 2 -3.38441 3.63191 -4.94917 18
846 2 8.04024 4.12792 -3.97766 23
847 2 -3.78078 -3.79348 -11.2979 18
848 2 4.88527 -6.04846 -5.80243 20
849 2 -10.766 -2.88951 -3.98094 17
850 2 10.4618 7.58605 9.08551 10
851 2 -7.02141 4.98083 -9.98307 18
852 2 -10.4969 -7.10363 3.8994 15
853 2 11.4759 1.09278 4.52699 22
854 2 5.49659 3.87298 8.42626 19
855 2 9.62009 5.39591 -7.14734 11
856 2 -0.433807 12.4929 -2.62505 16
857 2 -0.546216 14.2846 -5.52718 10
858 2 11.5015 -1.60073 5.79571 13
859 2 -5.13156 4.25603 -7.76204 23
860 2 3.25177 10.1015 -5.67649 16
861 2 -4.23459 -0.907656 12.0897 16
862 2 -1.4526 -7.40622 -6.51063 19
863 2 -4.74829 -6.76047 -7.02357 23
864 2 5.86105 -0.299284 12.2269 17
865 2 -4.11983 9.18437 6.63666 20
866 2 7.66157 -9.324 1.71622 16
867 2 9.22571 -6.90951 -6.63537 15
868 2 2.6148 4.89398 9.19963 21
869 2 4.07983 -8.50177 9.01909 12