ITEM: TIMESTEP
4
ITEM: NUMBER OF ATOMS
1500
ITEM: BOX BOUNDS pp pp pp
-30.0 30.0
-30.0 30.0
-30.0 30.0
ITEM: ATOMS id type x y z Coordination
1 1 -24.5371 1.34039 4.6277 16
2 1 -10.2606 -0.372277 13.816 22
3 1 -27.309 19.4464 4.93377 12
4 1 -28.0433 6.00818 3.26174 14
5 1 -12.8073 7.38006 17.127 22
6 1 -24.037 15.3479 4.75256 23
7 1 -17.8499 10.1243 1.65084 20
8 1 -19.1727 -2.5809 13.1397 12
9 1 -26.7323 4.95659 17.0967 16
10 1 -13.1392 13.9867 23.8907 16
11 1 -10.3455 8.56904 15.4402 22
12 1 -16.3937 16.9016 19.9237 20
13 1 -10.094 11.21 13.7201 23
14 1 -15.7379 20.0101 1.81601 20
15 1 -13.1945 13.4448 20.4087 21
16 1 -5.02025 16.7941 20.6988 17
17 1 -12.6502 21.9574 1.94975 22
18 1 -14.2558 15.072 -5.65551 12
19 1 -21.1603 13.7673 15.0542 21
20 1 -17.4144 9.93888 -1.43078 21
21 1 -7.76577 1.10542 16.3535 21
22 1 -10.3698 11.4001 17.1345 22
23 1 -6.86629 -0.855594 12.471 18
24 1 -21.0563 1.86647 11.8116 21
25 1 -10.43 8.35297 5.42204 20
26 1 -14.4804 2.25832 -1.21004 13
27 1 -13.6377 19.1212 20.366 23
28 1 -14.7361 -0.352608 17.0886 16
29 1 -10.2013 8.09379 25.202 7
30 1 -26.5207 13.5345 14.9178 22
31 1 -26.161 10.2787 3.29905 23
32 1 -21.7151 22.3164 6.59086 21
33 1 -13.2907 15.8881 2.05224 22
34 1 -12.787 7.07746 0.257415 18
35 1 -18.9476 12.8867 19.9918 21
36 1 -24.3121 15.5856 11.4247 20
37 1 -14.3558 24.7282 19.9767 13
38 1 -28.0705 14.9142 0.755301 12
39 1 -16.3754 29.027 9.388 9
40 1 -13.0637 4.16432 11.866 22
41 1 -9.56029 5.47976 3.57951 19
42 1 -25.7603 23.2152 15.983 10
43 1 -26.9346 2.45298 1.89246 10
44 1 -7.30743 13.2431 13.67 23
45 1 -24.8449 20.9332 4.72529 18
46 1 -20.3853 1.96115 18.0444 13
47 1 -26.8709 16.3569 3.10764 19
48 1 -13.5704 18.9194 3.65516 22
49 1 -10.8932 16.9664 13.6375 20
50 1 -10.4439 16.967 17.1903 21
51 1 -12.2473 -1.53258 11.8827 22
52 1 -8.39083 16.4017 22.0954 21
53 1 -4.62454 9.04995 -0.779622 19
54 1 -7.57608 1.60746 10.5571 20
55 1 -23.4152 6.91354 13.3631 23
56 1 -6.80901 14.1101 26.4911 11
57 1 -23.638 3.94578 11.9551 23
58 1 -23.4044 9.93922 11.66 22
59 1 -5.20335 11.3567 17.3301 19
60 1 -4.12685 3.11466 3.23962 21
61 1 -13.4723 21.9131 18.5897 22
62 1 -10.4468 14.3636 18.6892 23
63 1 -26.3551 7.78985 15.0461 21
64 1 -20.3676 0.0618522 2.01873 11
65 1 -20.9859 24.8986 8.22803 14
66 1 -15.2854 16.9022 0.467855 20
67 1 -10.5426 11.4771 3.56494 20
68 1 -7.86879 10.4875 5.11812 21
69 1 -4.95527 5.52026 10.8114 19
70 1 -4.91441 8.49992 19.0098 15
71 1 -15.5841 25.576 1.68184 12
72 1 -21.2923 19.4542 14.907 22
73 1 -21.9525 22.2398 9.91918 20
74 1 -23.6082 6.80966 16.6033 18
75 1 -4.71063 6.04226 1.51524 20
76 1 -26.5726 13.8254 17.8631 18
77 1 -3.21726 9.03853 -3.74799 7
78 1 -16.0814 12.7784 -5.36841 13
79 1 -19.7324 11.8875 -5.86092 15
80 1 -16.1844 22.4816 13.7889 23
81 1 -23.2734 15.4375 1.37623 17
82 1 -12.5479 24.993 0.464664 13
83 1 -16.3619 19.6213 11.9122 23
84 1 -18.5547 7.14988 20.3384 23
85 1 -17.9886 7.3629 3.27837 21
86 1 -10.2288 11.4266 0.19824 20
87 1 -13.3643 16.0949 18.6769 22
88 1 -29.2119 3.31478 10.9186 10
89 1 -1.0925 8.32915 4.20147 13
90 1 -23.3814 3.99933 8.70484 22
91 1 -3.78246 -0.247092 10.9457 13
92 1 -21.6276 16.6031 10.0018 22
93 1 -10.0776 17.2732 -3.26326 11
94 1 -10.7292 17.0849 3.67942 23
95 1 -5.34418 -0.334431 2.47598 15
96 1 -4.74806 -0.146985 14.3336 14
97 1 -29.1099 7.06874 13.4142 19
98 1 28.7254 6.9023 18.4467 10
99 1 -8.84583 21.5725 22.7781 9
100 1 -8.1616 16.2878 8.67333 24
101 1 -16.6451 19.5486 22.0382 20
102 1 -20.9752 21.8311 0.0383158 15
103 1 -21.0575 7.44995 -2.12025 17
104 1 -8.9821 10.4134 22.7641 12
105 1 -19.1492 21.6838 5.06852 21
106 1 -5.30833 14.5647 5.47245 23
107 1 -29.4624 14.7175 4.23439 12
108 1 -19.2175 26.9426 9.6052 14
109 1 -4.49688 14.6999 -1.23786 13
110 1 -4.77637 2.42226 12.5103 18
111 1 -20.6199 13.5887 1.53943 21
112 1 -10.4519 25.8755 8.88051 19
113 1 -5.64578 20.3038 8.77502 24
114 1 -18.9668 21.5549 11.7436 20
115 1 -26.2903 8.73754 -0.603805 16
116 1 -13.8584 24.8133 16.7955 19
117 1 -25.8922 7.34692 4.96271 22
118 1 0.0556304 13.8445 5.1769 15
119 1 -18.248 21.0435 15.2253 20
120 1 -23.4264 21.7916 1.99267 15
121 1 -13.3934 7.57199 23.5201 10
122 1 -29.0661 7.85774 20.7609 12
123 1 -8.85752 -3.08888 12.4259 15
124 1 -12.999 -4.08255 6.75656 12
125 1 -20.7194 19.1587 -1.82441 16
126 1 -13.4753 18.872 6.99076 24
127 1 -4.80802 23.1165 13.2745 15
128 1 -13.2345 6.95482 20.2342 19
129 1 -21.5675 13.7614 8.22499 22
130 1 -13.8795 24.4612 10.2028 23
131 1 -10.5801 19.8008 18.8686 22
132 1 -28.9479 19.0098 13.2097 12
133 1 -18.5765 13.0078 -0.15493 24
134 1 -0.8898 5.39156 5.96615 10
135 1 -20.4933 5.14534 16.8165 21
136 1 -27.4728 19.4012 10.5184 15
137 1 28.6256 5.11895 15.5316 9
138 1 -29.8584 13.391 13.8454 14
139 1 -12.9566 1.18928 10.1894 21
140 1 -23.5319 6.86707 10.2755 22
141 1 -7.0515 1.94455 3.96678 19
142 1 -16.4712 24.8136 11.8876 20
143 1 -21.0326 10.7319 16.8077 22
144 1 -23.9196 12.4497 -0.354772 17
145 1 -23.2914 19.1976 -0.159347 13
146 1 -28.5103 9.28885 8.15356 18
147 1 -25.7813 15.2656 20.6308 11
148 1 -15.6298 2.00548 11.7658 23
149 1 -9.67704 -3.22876 15.219 11
150 1 -2.90164 9.67923 16.7844 14
151 1 -10.7889 17.1052 6.98772 23
152 1 -11.0728 17.3092 20.5163 21
153 1 -15.4719 19.7536 -1.51654 16
154 1 -7.68651 16.0693 -1.44826 16
155 1 -20.7832 7.89258 1.71806 19
156 1 -18.4679 21.8039 1.89616 22
157 1 -21.7269 19.349 4.73446 20
158 1 -7.59001 13.2311 17.2097 23
159 1 -17.737 6.79365 -3.26169 17
160 1 -18.1347 21.397 -1.33207 17
161 1 -10.1114 23.4126 -0.25939 15
162 1 -20.3669 21.274 21.5978 13
163 1 -21.6879 19.6703 18.2452 24
164 1 -11.4581 1.25136 0.0657848 16
165 1 -20.7012 -1.62056 10.5122 16
166 1 -6.39428 -0.618849 8.98483 17
167 1 -10.4126 5.33665 10.2521 23
168 1 -1.17154 21.1429 10.6168 8
169 1 -19.0391 21.398 8.17469 23
170 1 -23.5692 12.748 13.2903 23
171 1 -10.2831 19.2221 25.1814 10
172 1 -2.5499 13.5496 7.1031 21
173 1 -11.3749 22.7378 20.475 16
174 1 -21.3252 16.7889 16.555 23
175 1 -28.8057 9.02613 4.74605 15
176 1 -10.5328 20.1926 -1.42992 14
177 1 -15.9346 8.22156 22.0282 18
178 1 -3.30524 22.188 4.26093 10
179 1 -9.02992 -0.539059 7.16738 18
180 1 -21.4847 14.3933 -6.09802 12
181 1 -7.69375 13.413 3.54223 22
182 1 -29.6656 9.99517 18.943 15
183 1 -11.2482 -1.19132 1.90472 16
184 1 -24.9788 4.23781 3.90894 23
185 1 -12.8575 24.6561 6.83888 21
186 1 -9.19821 8.33098 -4.2439 13
187 1 -11.3473 16.4483 23.9862 18
188 1 0.141752 13.7441 8.40341 13
189 1 -18.388 3.8062 11.8258 22
190 1 -5.01976 8.74495 5.55602 21
191 1 -15.1792 -0.516389 9.41454 20
192 1 -25.9496 14.5046 -2.13947 13
193 1 -28.5107 11.9895 2.58908 15
194 1 -7.4579 10.4422 15.5811 22
195 1 -13.221 10.3549 18.7558 20
196 1 -19.946 10.2845 -3.33037 21
197 1 -16.2311 5.18002 19.9499 19
198 1 -15.7014 22.8137 0.335911 18
199 1 -10.9239 20.029 8.57499 22
200 1 -20.5654 5.08515 13.4307 22
201 1 -16.2724 22.0214 10.23 21
202 1 -25.4677 7.35918 19.3789 16
203 1 -19.9232 3.84046 -3.03444 7
204 1 -24.3921 6.48146 -1.47776 12
205 1 -25.2379 1.97723 7.32612 19
206 1 -20.9657 2.06459 8.53699 22
207 1 -2.42647 16.3136 18.9791 11
208 1 -18.1606 1.08914 9.96049 21
209 1 -20.7696 4.87555 19.9281 14
210 1 -14.8977 -0.800688 6.23983 20
211 1 -15.3557 8.00299 15.1706 24
212 1 -13.6749 27.552 12.1876 16
213 1 -12.5737 12.888 -3.32576 16
214 1 -17.4136 10.0199 -5.08117 17
215 1 -12.9252 1.27552 6.85286 24
216 1 -18.2981 1.98908 3.3409 19
217 1 -23.3614 12.565 3.09644 20
218 1 -5.33872 17.4871 17.3206 18
219 1 -25.8855 16.868 0.339117 17
220 1 -18.6187 24.4302 0.169413 14
221 1 -18.6904 12.6858 16.563 23
222 1 -23.6801 23.8066 4.93723 11
223 1 -13.2161 21.6302 15.2343 22
224 1 -4.72958 5.30703 13.8664 18
225 1 -22.5914 13.9178 21.6798 14
226 1 -15.4858 0.328315 20.441 8
227 1 -26.9663 21.8211 12.9564 13
228 1 -8.6528 2.73276 -1.02306 16
229 1 -10.2371 2.45794 8.56215 24
230 1 -19.657 12.4749 23.2645 16
231 1 -28.4746 5.15072 19.6005 11
232 1 -1.66109 4.61548 1.88653 13
233 1 -6.68005 10.4855 1.9489 19
234 1 -12.7491 4.10709 2.24148 21
235 1 -17.8309 4.331 15.1502 21
236 1 -18.3515 25.1092 3.27899 16
237 1 -13.2256 15.9563 15.3344 22
238 1 -4.68665 13.6003 21.7849 15
239 1 -23.9314 9.80009 14.8838 22
240 1 -5.80106 1.9187 0.546757 17
241 1 -19.2643 23.4933 14.6388 20
242 1 -21.7243 19.552 11.5407 23
243 1 -7.29491 5.17369 19.0539 14
244 1 -2.21076 7.72635 7.08855 20
245 1 -24.5865 21.124 11.1168 19
246 1 -18.1157 7.19907 6.96904 19
247 1 -17.0431 13.9791 24.8769 12
248 1 -19.5069 27.7562 14.7321 9
249 1 -21.2878 16.379 3.34527 22
250 1 -24.1732 15.7851 17.9154 22
251 1 -22.2889 25.4612 11.1523 12
252 1 -20.2593 8.00433 5.08035 19
253 1 -18.3677 24.7447 6.45679 18
254 1 -3.18472 11.0016 19.6763 13
255 1 -23.1419 0.852503 16.2663 12
256 1 -7.59965 2.02554 13.7439 20
257 1 -24.231 18.4148 9.65281 22
258 1 -16.5826 5.75795 23.7181 11
259 1 -10.0193 2.46869 5.44118 22
260 1 -27.2654 5.50296 0.0487984 12
261 1 -9.56666 11.3758 -3.06443 18
262 1 -11.1293 22.7422 13.7183 23
263 1 -21.132 7.9607 8.57506 20
264 1 -17.4163 0.845042 0.215872 13
265 1 -15.5621 -3.31751 9.10765 15
266 1 -28.8634 3.84768 14.5129 14
267 1 -18.2906 1.24493 6.70354 25
268 1 -2.30831 16.3494 8.63603 17
269 1 -27.0813 11.6176 -0.253403 18
270 1 -28.7146 10.1573 15.0223 17
271 1 -27.3443 18.7926 18.534 10
272 1 -19.6227 25.6407 12.4094 19
273 1 -19.8888 24.5893 19.8937 11
274 1 -3.31376 3.58985 -0.451737 13
275 1 -3.72846 6.0364 4.57442 18
276 1 -18.9817 18.5746 6.59078 24
277 1 -12.9345 4.11843 5.51954 21
278 1 -15.6923 19.4094 15.3699 20
279 1 -23.3982 9.81511 8.42762 19
280 1 -10.3032 5.46987 6.90871 22
281 1 -3.03135 8.09257 13.6475 16
282 1 -21.2917 13.5054 5.1229 21
283 1 -20.1492 2.3244 15.1346 21
284 1 -18.0835 24.0239 9.56055 19
285 1 -23.9562 1.01165 10.081 22
286 1 -27.1037 16.0924 6.15624 19
287 1 -12.7645 24.9531 3.52599 17
288 1 -11.0995 22.9257 17.4405 18
289 1 -25.4402 7.62897 8.49038 22
290 1 -23.079 6.34772 3.4196 20
291 1 -29.3553 12.6452 17.0924 15
292 1 -29.5569 14.9082 7.71025 13
293 1 -6.28514 1.95537 18.9521 9
294 1 -20.8792 -0.309621 15.0196 14
295 1 -7.05115 24.0969 0.946894 12
296 1 -20.5105 19.2056 1.64115 19
297 1 -13.134 1.28178 13.4541 19
298 1 -5.90328 23.3022 16.4556 12
299 1 -18.1071 7.15864 17.0005 22
300 1 29.0131 11.3256 10.3311 10
301 1 -21.8013 22.5984 13.0272 20
302 1 -25.925 2.34363 15.1272 15
303 1 -12.0928 6.93885 3.17949 20
304 1 -7.52405 7.48385 0.521967 20
305 1 -15.8738 10.876 16.9838 22
306 1 -23.8896 15.6723 14.8363 21
307 1 -17.4986 1.17162 16.5861 15
308 1 -13.9558 -1.31924 0.554676 9
309 1 -15.4675 5.13495 0.404613 22
310 1 -21.1169 7.92883 18.3544 19
311 1 -12.8827 4.10547 8.68409 22
312 1 -18.031 12.7271 -3.30233 25
313 1 -6.99953 -1.55208 15.425 16
314 1 -16.2897 22.6833 6.78103 23
315 1 -21.5124 9.59254 23.1424 12
316 1 -18.4311 10.0058 21.9252 20
317 1 -4.33899 6.0882 17.2076 13
318 1 -7.49281 13.2337 10.3687 21
319 1 -21.6419 16.596 13.2069 21
320 1 -14.9941 11.073 -3.03829 20
321 1 -4.42095 2.81295 16.0321 16
322 1 -2.91115 24.3269 11.2245 11
323 1 -15.7975 11.1796 20.4551 23
324 1 -11.0003 22.7684 10.5519 23
325 1 -10.1919 5.64727 16.8161 22
326 1 -15.4027 2.25098 1.85123 20
327 1 -17.0368 25.3879 18.2861 13
328 1 -21.204 0.741915 5.29339 18
329 1 -10.5992 14.3354 21.9268 20
330 1 -24.3295 18.4834 19.8903 15
331 1 -18.1963 4.03126 8.54457 22
332 1 -28.3576 12.9577 20.2932 14
333 1 -24.6301 3.65972 0.508054 14
334 1 -24.1007 21.1199 21.8964 9
335 1 -20.4507 1.84717 -0.240291 10
336 1 -15.5975 7.85173 -1.31299 20
337 1 -23.2882 4.12862 15.3862 20
338 1 -20.7304 10.8689 13.585 22
339 1 -5.70709 8.30878 12.1781 21
340 1 -26.6868 9.98335 20.413 22
341 1 -23.3438 16.6958 -1.65328 18
342 1 -5.52452 17.2017 10.5086 21
343 1 -25.9438 -0.197517 12.0589 12
344 1 -15.9238 16.8626 3.72501 22
345 1 -15.8049 25.7501 8.20731 17
346 1 -18.3684 18.7488 3.485 21
347 1 -16.3529 19.8662 18.6114 21
348 1 -26.2343 10.27 6.57515 21
349 1 -5.96049 21.7975 3.399 20
350 1 -23.2917 6.60856 6.64476 22
351 1 -22.581 2.69925 2.6259 16
352 1 -9.23848 5.21358 -2.94945 13
353 1 -26.9847 19.206 7.70852 14
354 1 -19.5342 18.3358 23.4992 11
355 1 -8.36529 19.1271 10.4257 24
356 1 -13.6326 18.8561 10.2534 26
357 1 -25.8053 13.4478 1.69749 20
358 1 -10.6132 14.2383 1.84772 21
359 1 -7.91826 7.263 14.0029 21
360 1 28.9254 8.31815 15.934 13
361 1 -18.2666 18.6632 -3.41896 12
362 1 -2.98393 19.0544 10.1672 22
363 1 -7.63967 4.98914 8.76332 24
364 1 -1.92849 13.3081 10.4017 18
365 1 -13.136 9.85326 -1.33203 20
366 1 -10.3976 5.3439 13.5613 21
367 1 -12.8259 -1.961 14.9467 17
368 1 -4.80647 -0.0782961 17.6387 10
369 1 -20.3673 16.087 -0.208925 23
370 1 -14.2727 -0.991401 3.4535 17
371 1 -9.95723 14.2058 -1.64446 20
372 1 -12.7001 4.25899 18.7335 19
373 1 -29.7255 11.2449 22.1082 9
374 1 -1.14203 11.2049 2.87815 14
375 1 -0.14953 8.01896 11.7495 11
376 1 -21.4084 24.314 2.52877 15
377 1 -12.5223 1.40094 3.49651 20
378 1 -13.2134 13.1106 0.124814 20
379 1 -5.00161 5.67632 7.51661 18
380 1 -24.4584 12.5574 19.8597 20
381 1 -8.98713 27.8866 12.8699 12
382 1 -19.3251 8.09515 -5.26883 10
383 1 -21.4167 10.9631 20.0788 21
384 1 -17.1771 28.1059 12.1175 13
385 1 -23.5079 15.5591 -4.37642 13
386 1 -29.2066 15.7728 15.1858 12
387 1 -14.7417 3.74904 21.5523 12
388 1 -10.4048 19.9056 1.90288 18
389 1 -5.56502 14.4575 8.6838 22
390 1 -26.7626 2.4513 12.2221 18
391 1 -15.6514 4.90152 10.2121 24
392 1 -20.0982 25.2985 16.7126 16
393 1 -6.75085 7.37909 -2.69615 15
394 1 -16.3586 19.6531 8.41008 24
395 1 -7.36383 10.4108 8.66552 20
396 1 -7.3686 24.5343 4.16852 17
397 1 -10.4198 2.56511 11.8898 22
398 1 -23.7717 12.673 16.5472 24
399 1 -14.3748 21.7317 21.5256 15
400 1 -18.0449 14.8709 -5.78165 12
401 1 -27.7053 2.68041 5.46864 13
402 1 -22.3772 7.62239 21.1122 15
403 1 -8.21039 21.8227 18.4385 18
404 1 -7.65538 19.0418 0.354614 19
405 1 -26.1188 19.9387 1.7028 13
406 1 -13.4314 27.2541 8.61495 14
407 1 -6.15144 10.7405 21.6036 15
408 1 -0.0159573 14.4157 2.11857 7
409 1 -25.7066 4.62894 6.68411 20
410 1 -13.1511 13.0801 17.1494 22
411 1 -9.76816 25.6827 2.30978 14
412 1 -15.4067 2.07929 4.97321 22
413 1 -7.72692 13.424 0.220899 21
414 1 -15.4582 25.7539 5.09378 14
415 1 -22.1704 5.74926 0.674685 16
416 1 -9.56483 -0.585611 10.4113 20
417 1 28.9829 10.1511 13.5822 10
418 1 -24.1778 12.3825 6.26323 21
419 1 -29.7261 2.73989 17.4483 7
420 1 -10.8596 22.9492 7.33578 23
421 1 -18.3826 4.02052 1.42303 19
422 1 -13.1001 -1.84714 18.6758 9
423 1 -8.11329 16.2932 5.38403 24
424 1 -26.9367 16.3184 9.57355 21
425 1 -3.76231 2.92039 6.24239 16
426 1 -7.811 19.329 20.4094 19
427 1 -15.5622 13.8035 -1.62653 21
428 1 -13.8647 24.7339 13.6025 21
429 1 -5.67558 17.1266 3.76965 21
430 1 -14.6782 5.12465 -2.70628 15
431 1 -17.4671 -1.78845 7.80308 17
432 1 -20.905 10.657 -0.230378 19
433 1 -1.82747 10.6172 8.99489 23
434 1 -2.72518 16.2636 12.0432 16
435 1 -2.5172 1.10686 1.53894 11
436 1 -7.40929 4.67218 5.52157 20
437 1 -5.74116 26.3915 12.0821 14
438 1 -20.7886 13.652 11.7058 20
439 1 -5.4372 17.5032 7.23379 23
440 1 0.95512 11.0719 10.321 12
441 1 -2.8158 16.4423 5.53621 20
442 1 -10.3985 13.9923 25.8193 13
443 1 -15.4009 5.27822 16.8355 24
444 1 -10.8375 17.0869 10.3194 23
445 1 -11.5682 10.9745 24.1828 15
446 1 -2.587 13.8544 3.76414 20
447 1 -5.09566 14.6545 18.611 21
448 1 -21.0665 10.753 3.2534 20
449 1 -4.65257 14.1931 11.9334 21
450 1 -2.35973 10.7952 5.64739 22
451 1 -18.4136 6.81639 10.2775 23
452 1 -2.88033 13.3181 17.1794 13
453 1 -8.81516 24.6529 16.7451 13
454 1 -7.95857 16.2174 15.3556 21
455 1 -24.4391 18.4168 6.27765 22
456 1 -8.03007 19.1094 3.75154 20
457 1 -3.79079 11.919 -2.77407 12
458 1 -14.2306 -29.7659 11.4602 8
459 1 -17.7117 -0.672664 4.54323 15
460 1 -26.8499 17.1678 15.4529 16
461 1 -21.0946 13.4607 -2.3408 20
462 1 -17.3745 -1.83294 11.0809 19
463 1 -22.376 11.9677 -4.39386 13
464 1 -29.1658 6.41537 9.91509 12
465 1 -3.7419 -0.176474 7.4895 14
466 1 -5.55122 20.181 11.9319 21
467 1 -11.7197 0.939654 17.7742 15
468 1 -25.4209 7.2188 1.73757 23
469 1 -7.74675 10.355 18.9577 19
470 1 -19.6621 15.4205 21.7077 20
471 1 -5.51755 23.103 10.1418 23
472 1 -4.96748 20.9143 0.913989 13
473 1 -13.3465 -3.89432 3.22628 8
474 1 -2.74892 7.9298 10.3215 20
475 1 -8.30332 22.1343 11.8946 22
476 1 0.272022 8.12986 8.64992 13
477 1 -18.8114 15.5342 18.1995 23
478 1 -27.9291 6.45371 6.75609 16
479 1 -28.6376 8.91113 1.53962 14
480 1 -7.6531 13.5212 20.4032 22
481 1 -23.6918 0.995453 13.3452 19
482 1 -8.12872 16.5294 25.2536 15
483 1 -21.0107 25.7983 5.2622 11
484 1 -5.26741 14.4128 15.4668 21
485 1 -8.18294 16.1856 12.0181 20
486 1 -12.1071 6.87014 -3.27403 16
487 1 -19.0801 21.7453 18.2073 22
488 1 -6.77549 13.2333 -3.0731 15
489 1 -18.1614 4.06431 5.22145 19
490 1 -7.25824 4.40237 2.10698 21
491 1 -7.92242 16.3266 18.9088 20
492 1 -10.3739 14.1332 15.356 23
493 1 -5.44075 16.2598 23.7327 10
494 1 -15.1849 11.2854 23.375 13
495 1 -19.1807 18.727 20.1073 19
496 1 -9.74354 2.42737 2.03765 21
497 1 -22.6314 22.5722 19.8378 14
498 1 -5.17453 11.6496 24.726 9
499 1 -2.8834 19.1184 13.2547 14
500 1 -9.79943 -3.37063 8.9264 12
501 1 -24.3708 18.0294 2.96705 23
502 1 -8.30665 19.1526 7.07862 25
503 1 -11.375 25.7397 18.428 11
504 1 -15.6614 8.21028 18.7321 22
505 1 -16.3241 22.9198 3.69251 21
506 1 -7.8063 25.03 13.9676 17
507 1 -20.3276 5.29138 7.16351 20
508 1 -15.0742 8.17571 2.02838 19
509 1 -29.7909 17.9499 9.63702 11
510 1 -3.94744 11.8028 0.542105 16
511 1 -11.0813 19.8935 12.0013 25
512 1 -5.59066 20.1556 5.57123 23
513 1 -11.3404 25.5895 12.0372 21
514 1 -18.5134 15.6482 15.0436 22
515 1 -24.28 15.6282 8.02517 23
516 1 -10.9209 20.0825 5.25325 22
517 1 -10.0409 -1.41721 17.33 13
518 1 -21.9626 18.4899 -4.17093 8
519 1 -11.5516 19.8324 22.4793 16
520 1 -14.3546 16.2758 21.8363 22
521 1 -7.62935 24.7058 7.62495 19
522 1 -7.89296 19.0445 16.9448 23
523 1 -5.21773 8.34552 8.84864 20
524 1 -24.2577 18.6161 16.3613 23
525 1 -14.5173 -3.54267 12.3986 10
526 1 -15.2587 11.0435 0.342711 19
527 1 -10.9605 19.4665 15.367 21
528 1 -7.73168 7.71691 7.00273 20
529 1 -13.6979 21.768 11.99 21
530 1 -23.8359 9.82333 18.1775 21
531 1 -11.0307 -4.53234 11.994 11
532 1 -8.5071 21.8843 2.27987 22
533 1 -7.10017 4.7256 15.6247 22
534 1 -19.0678 18.5886 13.368 22
535 1 -12.2448 9.67374 -4.35173 14
536 1 -12.8311 4.27605 15.5597 20
537 1 -11.031 28.5935 10.6277 12
538 1 -22.1453 18.367 21.7597 16
539 1 -23.4637 9.55042 1.50561 18
540 1 -9.50877 8.69891 2.23238 22
541 1 -17.2288 22.721 20.3928 16
542 1 -10.1391 5.52237 0.44337 21
543 1 -9.41444 3.07899 18.1285 18
544 1 -8.36022 -0.202931 0.70613 14
545 1 -26.4574 10.8321 16.7338 22
546 1 -16.0907 13.8431 1.87931 23
547 1 -20.1621 -1.51749 7.05908 14
548 1 -21.6202 22.202 16.3133 22
549 1 -2.86047 16.5055 2.26603 14
550 1 -15.9588 16.6222 16.9001 22
551 1 -24.6847 23.9616 12.8357 11
552 1 -4.56621 11.2149 13.9096 22
553 1 -10.833 22.9099 3.97651 25
554 1 -5.19299 14.4847 1.93705 21
555 1 -8.19024 16.2288 1.90916 25
556 1 -28.7287 11.9726 6.05469 16
557 1 -28.9547 9.29522 11.0258 18
558 1 -11.7982 17.2537 -6.05841 8
559 1 -21.4605 16.5724 19.5391 21
560 1 -17.8395 6.98558 13.5292 24
561 1 -18.5395 6.9454 0.0329224 19
562 1 -21.5234 19.3918 8.13867 22
563 1 -8.87246 21.7662 15.2944 23
564 1 -28.1782 8.10998 17.599 20
565 1 -5.39119 17.3203 0.363654 15
566 1 -19.1297 -3.81043 9.53431 12
567 1 -13.0472 18.9039 0.406841 20
568 1 -10.2002 8.38238 -1.23106 20
569 1 -16.1699 13.6717 18.4623 23
570 1 -12.926 18.8035 -2.72769 15
571 1 -26.1344 7.84689 11.7935 22
572 1 -7.99125 7.52011 10.4331 22
573 1 -20.883 4.98526 10.3194 22
574 1 -8.37525 21.8834 5.66446 23
575 1 -4.74174 2.47626 9.27748 18
576 1 -26.8434 20.1603 15.588 17
577 1 -7.20667 1.5849 7.12324 20
578 1 -3.05569 -0.0137036 4.6661 13
579 1 -5.31555 8.38458 15.4372 21
580 1 -13.328 18.9362 17.2711 23
581 1 -23.9929 21.0278 14.1891 22
582 1 -15.8527 -0.896372 13.6021 17
583 1 -4.72557 11.2874 10.5383 22
584 1 -5.17421 20.7392 18.4003 13
585 1 -26.3308 10.7056 13.0047 23
586 1 -1.173 2.28205 4.14351 11
587 1 -13.6683 18.7309 13.5168 22
588 1 -12.8288 10.0188 21.6489 20
589 1 -16.0306 22.5896 17.0133 20
590 1 -10.3256 2.52637 15.2229 20
591 1 -22.1062 3.61966 5.72319 21
592 1 -14.6554 16.5183 25.5964 12
593 1 -8.28697 21.899 8.73253 23
594 1 -26.0071 5.13059 13.5383 24
595 1 -10.1762 5.49857 20.2529 15
596 1 -2.50155 3.3769 11.1802 10
597 1 -5.62848 20.2904 15.184 19
598 1 -16.1898 19.8091 5.25846 22
599 1 -14.9984 5.30825 3.7019 20
600 1 -19.7531 16.0602 -3.62814 19
601 1 -16.8655 16.7284 23.1505 20
602 1 -16.6562 25.4138 15.2564 15
603 1 -2.2878 13.5477 13.879 14
604 1 -13.5562 21.8279 5.25858 22
605 1 -16.7168 19.2412 25.2872 9
606 1 -7.48286 19.1192 23.6717 11
607 1 -6.2845 10.1925 -4.21026 14
608 1 -18.3923 0.821433 13.2613 19
609 1 -18.5083 12.9532 3.61084 22
610 1 -1.65727 10.7605 12.214 18
611 1 -12.5521 10.1909 1.96674 19
612 1 -15.7309 5.01642 6.94159 23
613 1 0.373373 10.8168 6.79841 13
614 1 -18.3374 4.28073 22.1489 12
615 1 -15.2698 8.14528 -4.5044 15
616 1 -7.82648 27.6393 9.66162 13
617 1 -15.0222 5.25932 13.3855 21
618 1 29.6011 14.9098 10.8016 13
619 1 -3.66973 19.3559 3.50723 17
620 1 -7.45491 10.4325 -1.22451 18
621 1 -22.9389 24.325 17.7708 13
622 1 -13.5459 15.8534 -1.49303 17
623 1 -6.88014 7.47408 3.76748 19
624 1 -23.5707 12.7358 9.91652 21
625 1 -5.54293 17.2752 13.6991 21
626 1 -23.8564 -2.21717 10.5187 9
627 1 -7.89752 13.691 23.7351 21
628 1 -23.2536 9.54819 -1.99418 15
629 1 -28.1198 16.2998 12.376 17
630 1 -18.1708 15.8659 1.88498 22
631 1 -6.3455 4.82838 -1.1033 15
632 1 -27.9574 3.45784 8.26069 15
633 1 -8.76717 -0.394557 4.01612 17
634 1 -24.6208 18.3006 12.9108 21
635 1 -23.5606 9.5047 4.93183 22
636 1 -14.94 2.47593 18.2127 21
637 1 -0.0552802 5.2442 9.20882 10
638 1 -7.56223 7.58434 17.4535 21
639 1 -26.1163 13.4304 8.10988 21
640 1 -13.8844 18.7653 23.6803 19
641 1 -7.57149 21.7107 -0.819719 12
642 1 -22.1914 25.4012 14.5154 14
643 1 -8.37423 24.7505 10.7701 21
644 1 -16.7492 13.7302 21.8633 20
645 1 -10.4064 8.48521 18.8821 21
646 1 -9.99535 25.5042 5.5303 16
647 1 -18.4206 10.0687 18.7271 21
648 1 -20.4284 5.00911 3.56538 18
649 1 -26.1306 10.5912 9.83916 23
650 1 -15.4506 2.39303 14.8717 19
651 1 -10.5251 11.4634 20.3938 22
652 1 -12.7984 -4.13841 9.73518 13
653 1 -26.2872 13.4823 11.5342 19
654 1 -4.73013 11.6807 3.83288 21
655 1 -24.3576 21.2191 7.70375 15
656 1 -21.5405 13.6986 18.3402 21
657 1 -17.5464 4.02498 -1.4875 17
658 1 -15.5983 2.21643 8.28672 23
659 1 -11.7396 -1.5353 5.14581 19
660 1 -13.0366 21.9525 -1.1411 14
661 1 -2.72519 19.4873 6.89982 17
662 1 -3.16397 19.2857 20.8341 5
663 1 -5.09786 11.5876 7.19386 20
664 1 -15.7822 17.1998 -3.67213 14
665 1 -18.1906 3.92605 18.5506 19
666 1 -4.9985 26.1412 8.92509 12
667 1 -10.4153 17.1349 0.0707516 21
668 1 -26.6086 13.3268 4.70335 23
669 1 -13.6483 21.7794 8.63175 23
670 1 -24.3594 9.80064 21.5433 14
671 1 -8.26142 19.1249 13.4697 21
672 1 -12.0192 -1.4486 8.29214 21
673 1 -5.46747 23.1715 6.85983 20
674 1 -24.6532 21.1467 18.1993 17
675 1 -26.5185 12.3232 22.927 10
676 1 -7.91093 13.2608 6.77924 21
677 1 -19.5765 7.11678 23.392 12
678 1 -7.59978 4.55157 12.0114 22
679 1 -18.3167 9.7243 15.2445 21
680 1 -8.95247 11.4767 25.7746 12
681 1 -3.76494 8.83791 2.23643 21
682 1 -25.5136 11.1814 -3.01244 10
683 1 -17.6421 15.9178 -1.52523 22
684 1 -28.7434 12.4372 9.32946 18
685 1 -11.1568 26.0385 14.841 15
686 1 -18.7466 18.5618 17.0001 22
687 1 -23.2968 -0.265299 7.52425 15
688 1 -18.962 18.6414 10.0457 25
689 1 -3.10671 16.4144 15.4241 15
690 1 -22.7141 -1.84284 13.3635 12
691 1 -3.14447 6.55406 -0.97809 11
692 1 -6.12475 -1.20848 5.44933 13
693 1 -11.8095 3.9919 -1.48084 17
694 1 -10.8458 14.3771 -4.88918 11
695 1 -26.2244 4.79738 10.1313 22
696 1 -21.6341 16.5399 6.54856 24
697 1 -20.4543 14.8992 24.3905 10
698 1 -7.96895 7.78655 21.012 15
699 1 -27.4099 0.655294 8.92073 11
700 1 -7.49729 10.4817 12.1837 22
701 1 -17.9428 18.6882 0.0775632 21
702 1 -2.82491 22.2219 8.66177 14
703 2 -26.8772 15.5267 -0.785716 14
704 2 -21.3611 19.8375 0.00193216 17
705 2 -13.0953 8.31708 2.17735 21
706 2 -16.799 15.5801 18.4063 23
707 2 -20.0986 6.96861 3.42656 22
708 2 -14.1964 17.2288 20.0594 22
709 2 -30.0038 8.66086 14.3798 17
710 2 29.5702 13.0858 10.2457 11
711 2 -13.32 25.5508 18.5773 14
712 2 -21.8008 9.81659 18.4184 22
713 2 -7.67002 14.2497 15.39 19
714 2 -17.9467 11.0723 3.44087 20
715 2 -23.2686 4.86317 4.75941 19
716 2 -23.8509 13.6613 8.15346 22
717 2 -15.5617 1.30979 16.6414 16
718 2 -11.3212 16.204 18.8646 22
719 2 -9.52297 10.3093 -1.25958 22
720 2 -17.2466 -0.607771 9.4899 23
721 2 -8.09194 11.3653 13.8959 22
722 2 -23.9896 22.3896 3.6905 15
723 2 -29.5414 14.9192 12.5728 14
724 2 -5.40328 10.4953 15.5276 22
725 2 -6.48606 0.113539 1.01324 13
726 2 -17.6227 1.92597 11.8103 22
727 2 -28.2888 12.4571 22.1522 8
728 2 -20.0512 -2.25274 8.73251 14
729 2 -5.9226 6.27441 18.2832 15
730 2 -15.4288 -1.69289 7.82176 18
731 2 -8.60503 13.3522 26.2543 11
732 2 -10.6849 24.8249 0.926941 15
733 2 -24.2779 -0.985803 12.4304 11
734 2 -16.1725 15.7027 24.6935 16
735 2 -20.9857 21.4392 11.6398 22
736 2 -19.3517 10.9633 20.3029 21
737 2 -23.7108 19.2078 4.35085 23
738 2 -10.0996 -1.43268 12.1013 20
739 2 -17.112 21.7885 18.493 18
740 2 -16.3648 25.3597 3.46687 14
741 2 -4.82261 7.61427 3.85142 18
742 2 -17.8616 11.2258 0.00311525 20
743 2 -12.904 5.31857 3.96278 19
744 2 -0.178597 12.9814 3.39181 10
745 2 -17.149 18.8283 20.2019 20
746 2 -14.084 17.2704 -2.71565 18
747 2 -26.061 15.3142 1.59883 18
748 2 -6.04767 27.1356 10.2681 12
749 2 -21.2639 7.6848 22.7064 13
750 2 -21.2288 24.2397 6.43118 16
751 2 -4.39605 10.6204 5.596 21
752 2 -17.4445 2.32527 1.5725 19
753 2 -29.8344 14.0215 15.7587 11
754 2 -7.72931 19.9926 8.77853 24
755 2 -15.8805 24.5584 13.7027 19
756 2 -26.5825 3.7678 0.553566 12
757 2 -18.52 25.0422 15.6078 18
758 2 -6.72156 0.383826 17.848 14
759 2 -8.24213 5.78627 16.8417 22
760 2 -23.7605 19.2799 11.4468 22
761 2 -4.29003 -0.992684 5.78063 12
762 2 -15.5584 1.33623 0.0403452 13
763 2 -7.60977 17.2162 13.6349 23
764 2 -7.59008 -0.498168 10.6321 18
765 2 -3.63894 1.7553 10.9674 16
766 2 -26.1196 10.6483 22.0901 14
767 2 -0.766171 3.79122 5.12604 12
768 2 -14.3521 20.1467 18.7775 22
769 2 -4.70785 15.5064 22.1269 14
770 2 -23.7852 22.2257 12.5806 18
771 2 -10.3228 21.7397 12.1777 23
772 2 -1.73156 2.72173 2.32406 12
773 2 -10.3946 19.0728 10.2813 24
774 2 -25.4716 9.16191 1.85667 18
775 2 -21.3004 13.6066 23.1393 12
776 2 -7.20514 14.4775 1.85629 21
777 2 -28.5342 15.3736 2.6692 15
778 2 -29.4318 11.9564 19.0186 15
779 2 -23.1233 1.99693 11.6963 22
780 2 -2.53999 14.2387 12.0351 16
781 2 -18.0351 2.22918 15.0142 20
782 2 -18.9359 13.7328 24.7769 12
783 2 -10.4932 13.1807 -3.31233 16
784 2 -13.3122 10.7684 23.4069 15
785 2 -13.0782 15.732 24.7919 14
786 2 -23.8569 21.7565 9.45901 16
787 2 -9.09222 1.72651 3.80885 22
788 2 -0.634869 9.69678 5.5302 17
789 2 -26.1885 18.118 9.66773 21
790 2 -12.4329 2.29458 11.7571 21
791 2 -7.01017 -0.599622 7.06747 15
792 2 -9.95354 10.3113 5.08757 21
793 2 -8.5166 19.891 18.6574 18
794 2 -9.8533 -1.16481 5.50563 16
795 2 -7.73465 11.5641 20.4875 22
796 2 -18.4625 5.10923 13.3695 22
797 2 0.0330373 9.92134 11.5597 13
798 2 -20.6916 4.1521 15.1447 19
799 2 -7.4333 26.7475 13.1199 12
800 2 -17.6759 4.91545 10.2639 23
801 2 -4.01845 7.671 0.609239 16
802 2 -12.2729 -0.589241 3.46286 21
803 2 -3.44193 0.00606345 2.81203 14
804 2 -25.9345 23.0917 14.0435 12
805 2 -1.8092 14.9655 2.17121 14
806 2 -19.3245 2.92272 -1.40754 11
807 2 -24.2999 7.85507 14.8479 23
808 2 -20.2298 1.48954 6.79573 21
809 2 -23.0938 2.00657 8.50799 21
810 2 -20.8541 26.5978 15.2848 12
811 2 -23.7133 22.4653 6.35777 14
812 2 -9.74056 13.3076 3.42759 24
813 2 -2.47885 17.1738 10.3507 15
814 2 -13.1957 16.816 0.275086 21
815 2 -25.6017 19.4303 18.7102 16
816 2 -15.9066 12.8297 -3.37093 21
817 2 -26.6938 12.542 9.78203 20
818 2 -19.4851 16.9401 19.3791 20
819 2 -28.8417 18.0975 11.415 14
820 2 -21.1917 15.5383 1.48446 18
821 2 -7.6414 23.8883 12.4727 18
822 2 -7.31685 14.4494 5.2702 22
823 2 -6.67088 -0.0577054 3.947 16
824 2 -24.5032 10.8073 16.4892 23
825 2 -8.07693 14.1574 12.0547 23
826 2 -18.3675 19.5661 11.761 22
827 2 -26.0409 15.2394 4.65167 23
828 2 -24.5901 13.9363 21.4066 13
829 2 -5.74589 13.8329 20.2078 18
830 2 -23.7237 5.10367 -0.302222 15
831 2 -11.0281 18.8778 -2.87875 13
832 2 -5.02028 19.1415 10.3014 21
833 2 -25.682 3.99866 11.8711 24
834 2 -12.9372 19.8982 8.67042 25
835 2 -16.6759 24.5269 0.406893 15
836 2 -15.5839 21.7313 5.11423 19
837 2 -8.42998 14.3384 18.6611 23
838 2 -16.3933 15.6212 21.4762 21
839 2 -3.86123 2.00855 0.505744 14
840 2 -19.8944 10.5272 23.1499 13
841 2 -18.907 8.13063 18.5925 22
842 2 -23.7709 10.5192 6.67263 21
843 2 -22.9506 7.51216 -2.16687 14
844 2 -9.70549 4.47829 8.56774 21
845 2 -12.1771 8.11617 -1.30622 20
846 2 -2.72749 11.3221 10.5913 20
847 2 -22.4511 21.5349 18.0176 20
848 2 -13.1263 11.0864 0.26782 20
849 2 -21.2113 6.70326 19.8706 16
850 2 -18.0773 12.8408 -5.52631 16
851 2 -12.4078 5.23115 10.2987 24
852 2 -15.0475 4.06244 5.31038 21
853 2 -6.48628 1.53304 8.94976 19
854 2 -2.06731 20.0175 11.7576 13
855 2 -20.1712 18.0791 -3.54589 14
856 2 -18.9642 25.4991 18.4331 13
857 2 -22.3266 5.00801 7.35 20
858 2 -27.6774 9.86389 0.184698 13
859 2 -8.35552 19.9496 1.96637 20
860 2 -16.3028 24.7373 6.565 18
861 2 -17.7461 -1.09777 12.9929 17
862 2 -2.70863 11.7215 13.5059 17
863 2 -13.0994 14.7105 22.0047 19
864 2 -22.175 -2.19165 11.4699 13
865 2 -12.2693 2.11751 8.54318 22
866 2 -11.7638 7.71359 24.443 9
867 2 -13.477 23.0024 20.3666 17
868 2 -3.00296 17.5289 3.88058 14
869 2 -11.5328 19.2123 20.5401 22
870 2 -5.14497 16.3403 8.78584 22
871 2 -28.5844 17.35 14.1333 12
872 2 -7.05768 5.77791 10.5205 20
873 2 -13.1689 22.8443 13.5816 23
874 2 -5.46479 22.2229 14.9031 15
875 2 -13.5207 16.6659 -6.27797 8
876 2 -16.4077 4.70419 21.9884 15
877 2 -18.5478 27.2769 13.2005 14
878 2 -15.7714 4.44504 15.0123 20
879 2 -4.61874 1.81411 14.3889 17
880 2 -22.8802 5.02717 10.4615 22
881 2 -21.8158 22.7286 1.43604 12
882 2 -19.2279 0.489392 0.488327 10