ITEM: TIMESTEP
77000
ITEM: NUMBER OF ATOMS
2000
ITEM: BOX BOUNDS pp pp pp
-30.0 30.0
-30.0 30.0
-30.0 30.0
ITEM: ATOMS id type x y z Coordination
1 1 -9.73093 2.75341 -11.1228 19
2 1 -4.53684 -12.6692 -1.84854 22
3 1 2.49448 2.95265 14.5987 26
4 1 4.08174 -13.0419 5.707 16
5 1 -13.1722 8.01985 4.53935 23
6 1 6.96066 -9.11276 -7.3505 16
7 1 -14.7486 1.22519 -3.76004 22
8 1 -3.87057 -10.4206 12.0236 19
9 1 -11.0057 1.1595 -8.52419 22
10 1 -16.1051 -7.57486 6.80282 17
11 1 4.781 -0.690256 -7.29745 22
12 1 -6.07898 -13.2935 6.16204 22
13 1 -14.0585 -6.6518 9.0379 24
14 1 -1.42896 0.358987 19.5565 18
15 1 -2.24202 3.42081 12.2391 23
16 1 -6.51472 8.07077 -5.99113 24
17 1 -3.98036 -5.14938 17.5962 12
18 1 -12.7069 -3.60087 -12.5958 14
19 1 -15.679 -7.65339 11.7698 17
20 1 7.75068 7.70843 8.8867 19
21 1 -3.87774 9.95953 -8.58457 20
22 1 -4.74283 -2.03533 -15.0236 15
23 1 12.7759 0.47965 5.49194 13
24 1 -16.4972 2.51464 -7.20372 16
25 1 -6.66023 -3.36431 -6.67156 20
26 1 -16.3862 9.92159 11.8454 10
27 1 4.09354 -9.93523 9.05837 16
28 1 -1.01287 -12.5698 -7.10941 21
29 1 0.6197 -13.4679 0.505107 21
30 1 -11.4496 -10.2756 -4.14691 21
31 1 -14.0003 -4.9573 11.666 20
32 1 -4.61405 -10.2197 -9.14898 20
33 1 3.5486 -9.71458 -7.97967 20
34 1 -5.3055 3.52066 -14.2346 14
35 1 -1.84231 1.59272 14.6673 21
36 1 -5.76453 -13.7205 11.493 16
37 1 -2.13997 -9.18968 14.5432 11
38 1 -19.3086 3.87079 6.94275 16
39 1 -17.7671 -4.6126 12.1556 16
40 1 -14.4857 -0.924984 4.55887 21
41 1 -7.99438 10.9128 -0.765038 23
42 1 -5.93008 -15.2304 -7.3146 16
43 1 -1.89809 -4.28964 -9.27435 23
44 1 -3.25665 -7.3943 -9.13762 23
45 1 -5.14665 -2.13299 17.7547 17
46 1 -14.8076 4.90724 4.59297 21
47 1 -0.10153 8.9711 -11.2218 17
48 1 -4.23593 10.6791 9.80353 22
49 1 -11.9546 5.40808 -6.09499 20
50 1 -7.81137 12.8348 1.88739 23
51 1 2.60265 -12.8769 3.12571 23
52 1 2.09813 -6.58469 -1.71015 22
53 1 -3.34379 -7.33789 -14.3235 18
54 1 -14.1705 6.20878 12.6356 21
55 1 -14.5951 -6.37915 -7.20309 21
56 1 3.92084 -3.72805 3.87391 23
57 1 -12.7568 9.86554 1.63501 23
58 1 -14.254 -10.4231 6.61725 23
59 1 -5.47653 8.74691 12.8583 19
60 1 -15.1931 5.13113 -5.95692 18
61 1 -9.66307 10.4082 15.4804 9
62 1 -10.9841 -17.1502 5.94048 14
63 1 -0.450647 4.49114 9.65444 25
64 1 -1.00273 -16.3746 -4.64398 16
65 1 -3.05017 10.393 15.9274 14
66 1 -18.136 -1.75343 -6.06188 11
67 1 -16.0797 5.08878 -9.30892 10
68 1 1.7 7.20115 17.5538 15
69 1 9.08531 -1.28759 -10.987 9
70 1 5.85089 -10.2894 5.02489 17
71 1 -19.0395 -3.35939 3.45972 19
72 1 2.73749 15.4063 9.61102 15
73 1 1.80985 0.707429 19.7687 13
74 1 -15.6065 -13.6345 7.08388 13
75 1 -19.4379 2.03622 -1.80676 16
76 1 7.63543 1.53381 9.05475 21
77 1 3.50437 -3.56406 -1.68153 24
78 1 -9.8582 9.19842 12.9595 18
79 1 2.54839 -1.1463 9.32818 25
80 1 -7.98657 -6.34575 -6.65208 20
81 1 -15.9452 7.54941 9.26709 17
82 1 -14.1572 11.8251 -4.82656 12
83 1 -9.76645 7.81863 -6.23168 21
84 1 3.61806 -1.60833 -4.43257 22
85 1 2.37473 12.4508 -3.76152 18
86 1 2.31322 -6.71172 3.92774 24
87 1 0.949377 -9.76928 9.31177 19
88 1 -11.2825 10.9522 -0.970175 20
89 1 -12.4507 15.5151 1.04308 13
90 1 -12.2998 -1.78529 11.3246 22
91 1 -7.4314 6.97841 6.98772 20
92 1 -8.91251 -7.86617 11.6898 21
93 1 10.6675 -9.18258 -3.00641 11
94 1 -14.336 -1.02719 9.41846 21
95 1 -14.0892 -12.3619 3.88532 21
96 1 5.36438 -10.3998 -5.57259 21
97 1 -0.0856439 -1.6208 -9.17029 23
98 1 -8.94362 -5.07688 -14.2222 16
99 1 -4.37095 12.8867 7.26926 20
100 1 -13.8252 7.74957 -10.7043 8
101 1 -1.92632 6.17156 20.0453 13
102 1 -4.49933 10.8151 -0.780069 24
103 1 -14.6372 10.5911 -1.70797 18
104 1 -4.3795 10.5787 4.45763 23
105 1 -5.72574 -10.1835 14.295 12
106 1 11.4373 1.26629 8.13298 15
107 1 -6.42686 -7.90766 -4.17516 21
108 1 1.91155 -6.61177 -7.5398 21
109 1 -5.62776 3.9662 11.8841 20
110 1 1.10297 -0.0295325 14.4503 21
111 1 -12.9454 -7.77908 1.00148 24
112 1 -13.1592 -7.50888 -4.19687 21
113 1 7.31418 -9.48377 2.2515 15
114 1 -6.16635 7.80352 4.48307 22
115 1 -0.421673 -3.11682 -11.8804 22
116 1 -4.18965 16.2378 -0.783849 15
117 1 -9.68609 -15.7753 8.3322 15
118 1 -16.9076 -14.165 4.41383 9
119 1 -1.54025 -9.77311 -14.2607 13
120 1 -1.54017 5.05277 -6.23684 23
121 1 5.78115 -12.5185 2.44021 14
122 1 -7.99562 -18.1225 4.23436 17
123 1 -12.7005 -9.50452 3.5671 24
124 1 9.25659 3.53004 13.9265 12
125 1 7.93541 -6.2885 -8.09009 16
126 1 -17.9286 -4.97479 1.34764 19
127 1 2.4925 6.60324 6.54818 23
128 1 9.193 4.56308 3.48451 17
129 1 -13.4697 2.19536 18.1046 11
130 1 -8.43611 7.65291 15.3161 19
131 1 -8.96591 14.4668 -5.31899 11
132 1 -4.97876 -6.25073 -6.92685 23
133 1 3.06136 -10.54 -10.8115 14
134 1 0.541742 12.199 -11.2671 8
135 1 1.23854 -9.54587 14.1901 11
136 1 -6.73347 -3.25059 -11.6994 21
137 1 -7.85011 6.97216 -3.45289 25
138 1 3.50757 3.81698 -4.22141 22
139 1 -9.66503 9.62145 -3.34166 25
140 1 -12.8927 13.364 -1.8094 16
141 1 1.893 -0.731205 -6.82607 23
142 1 6.72644 -10.9488 7.38908 11
143 1 -16.4815 3.87395 -3.48509 22
144 1 -13.0211 13.3532 9.4254 9
145 1 8.05407 6.35464 -5.02523 15
146 1 2.05764 10.2904 -0.814508 24
147 1 -9.53193 15.6354 1.9485 18
148 1 3.83808 9.44363 1.59841 23
149 1 -6.30065 7.81099 -0.922021 24
150 1 -2.39954 12.6431 -9.91028 14
151 1 1.4801 6.97837 -9.37634 21
152 1 -19.8688 -9.82856 4.98996 8
153 1 -17.9197 4.81747 -1.60174 21
154 1 -9.70195 -3.46002 -11.9025 20
155 1 1.33005 -11.8189 -8.38287 19
156 1 5.44527 11.2955 13.045 13
157 1 -4.05231 11.4297 13.1006 17
158 1 -19.1566 3.55767 -4.84685 11
159 1 -14.8017 10.7847 4.00813 15
160 1 10.3626 -3.57247 -2.40913 19
161 1 -13.1861 -0.620975 -14.0703 9
162 1 -0.111207 1.64665 16.8227 22
163 1 4.05985 13.3564 4.77156 15
164 1 -7.36764 6.96577 12.1035 18
165 1 -1.30448 -13.865 -10.3084 13
166 1 -12.8906 15.4138 6.9925 10
167 1 -4.8463 10.7819 -5.98984 24
168 1 -4.52375 -7.27114 14.9874 17
169 1 -12.3285 -7.08911 11.404 21
170 1 -3.80715 -13.9041 -9.57353 16
171 1 -11.8226 7.94403 -8.54454 18
172 1 -7.66731 -10.3511 5.75198 23
173 1 -1.02689 -12.4438 -2.12891 21
174 1 -5.27728 11.2797 -11.0646 13
175 1 -20.7433 2.63051 14.5295 10
176 1 7.31943 7.85287 -2.04612 18
177 1 -13.1162 4.65871 15.5079 17
178 1 -5.64296 -7.82304 12.4515 22
179 1 -11.2382 4.928 -0.715862 23
180 1 -0.808775 16.2316 9.82733 12
181 1 -3.84148 4.96714 9.67585 24
182 1 10.9551 0.603361 14.2751 10
183 1 -11.1937 16.2391 4.20766 14
184 1 3.29504 -7.8355 -4.69437 21
185 1 -13.109 9.23642 12.8084 16
186 1 -13.1224 4.05646 -3.53875 22
187 1 8.97643 -6.61589 2.95812 16
188 1 -12.3133 -9.37422 8.98456 21
189 1 -20.8661 -0.624124 9.40602 12
190 1 -15.8068 -9.59314 4.33567 20
191 1 3.25272 0.923148 17.1703 17
192 1 -19.5445 4.25739 0.819522 13
193 1 -5.93569 -15.3991 3.9241 22
194 1 0.622646 -9.51035 -1.55211 20
195 1 -5.93633 9.75033 7.30721 25
196 1 -1.0215 11.8525 13.2037 18
197 1 -12.9918 -1.77822 -3.70166 21
198 1 -6.76769 10.1254 -8.69243 21
199 1 -16.3258 -3.707 -1.25499 21
200 1 -13.5184 -6.07402 16.5118 12
201 1 -4.17044 -16.3131 6.13801 23
202 1 -2.30353 -15.6945 8.79131 15
203 1 -16.0164 9.76178 0.943848 15
204 1 12.178 0.602128 0.0670198 15
205 1 3.77061 1.84062 -1.72578 20
206 1 -9.86176 -10.8237 -12.0449 10
207 1 -0.733824 -4.85176 11.9193 20
208 1 2.11579 -13.015 9.68726 15
209 1 -6.73463 4.54755 -8.98426 21
210 1 2.23329 -10.4735 -5.32219 22
211 1 6.9464 -2.73783 -13.5548 11
212 1 -1.21206 5.31293 -11.5816 22
213 1 -11.5159 -4.62362 -3.4543 19
214 1 -6.02064 14.2221 -5.46764 17
215 1 -14.0898 -12.5284 9.23067 16
216 1 0.588826 15.4943 0.757412 10
217 1 -14.5191 1.89877 15.0042 20
218 1 -6.1466 9.97123 -3.19766 24
219 1 5.5679 -1.3248 8.92439 21
220 1 -9.69846 -7.80529 -8.87554 19
221 1 -8.18583 10.9493 -5.80604 23
222 1 -1.52979 1.3383 -9.34023 22
223 1 -10.7108 -10.23 6.22173 25
224 1 -17.6392 4.6374 9.66206 17
225 1 -12.6248 7.45667 10.2332 23
226 1 -1.81154 -10.6057 -8.9688 23
227 1 -7.76974 -12.2389 3.53283 22
228 1 5.41139 -10.7572 0.0366812 18
229 1 5.56681 3.64004 15.2335 19
230 1 0.357962 7.65165 -6.52154 23
231 1 -6.14913 9.81179 1.63575 21
232 1 -17.8494 -4.91191 6.42084 17
233 1 -16.2544 7.69331 -1.35563 18
234 1 -0.525487 4.44649 15.0296 19
235 1 -1.10785 -18.3823 3.12879 14
236 1 7.0761 -1.79883 0.190917 21
237 1 -0.745593 6.63567 6.80234 23
238 1 -10.451 -1.11789 15.0425 21
239 1 -16.4684 -7.4676 -4.36945 19
240 1 0.992684 -0.303334 -11.9125 20
241 1 -0.224198 -2.80029 14.6136 21
242 1 3.36859 8.13278 -6.85574 18
243 1 0.532897 -13.728 -4.5185 20
244 1 -4.83413 -0.114656 -11.661 22
245 1 -5.04544 -18.0073 8.52735 16
246 1 11.9318 1.04409 -5.75849 12
247 1 -12.6275 -4.13012 9.15193 23
248 1 -0.0491729 -18.4966 -0.385276 9
249 1 -15.0087 -4.76047 -4.21892 23
250 1 -0.768525 12.8246 1.73147 24
251 1 -2.1092 -5.81862 -11.8601 19
252 1 1.40302 3.82628 12.1968 23
253 1 7.4144 2.03058 -1.79266 20
254 1 6.59483 -3.79402 -8.03377 21
255 1 -13.2299 -3.5195 -6.75138 22
256 1 -14.7686 -0.355241 -6.28161 20
257 1 -8.51024 -18.7794 7.93331 12
258 1 5.4176 -5.07621 11.7167 20
259 1 0.568599 -4.0609 9.32961 24
260 1 -6.36307 -9.47115 -6.54743 23
261 1 -2.49671 -9.684 9.03655 20
262 1 -1.79081 7.26057 -8.92416 22
263 1 -1.04957 10.9328 4.27392 25
264 1 -10.9101 -6.61564 3.76682 22
265 1 -6.32494 15.506 7.93696 14
266 1 -9.89938 -6.1928 16.7934 10
267 1 -15.7928 -10.4647 -9.88405 9
268 1 -12.913 -9.8988 -11.7368 9
269 1 -3.56483 7.97709 -11.5275 20
270 1 -7.98243 -10.8581 -4.64558 20
271 1 -9.44975 -13.3181 6.18867 21
272 1 1.76746 -9.02359 -13.6675 11
273 1 10.1188 -2.12586 -5.18311 21
274 1 9.20168 0.787109 6.17686 24
275 1 -14.3323 -11.0211 12.1518 14
276 1 -6.02593 -9.49585 3.93645 22
277 1 3.936 -2.21186 19.1347 11
278 1 -11.4757 -18.052 3.39694 12
279 1 -6.04444 -19.1742 1.96381 10
280 1 -9.59809 14.0207 -0.751767 21
281 1 1.55273 1.23202 -9.36591 22
282 1 -7.77316 -7.80314 -13.5063 15
283 1 -13.877 -8.29805 13.7861 17
284 1 1.06424 6.01915 20.0607 9
285 1 -2.71653 -13.5798 6.05073 23
286 1 -7.99696 -12.4048 -7.11142 20
287 1 -13.4366 3.76193 -8.71575 18
288 1 6.23397 4.78518 9.00472 24
289 1 -13.1389 2.27026 -6.1328 23
290 1 -3.34552 4.39543 -8.90609 23
291 1 3.19998 -17.4787 -0.978368 9
292 1 -11.0291 12.9515 -3.90792 18
293 1 -5.56526 13.6548 10.6651 16
294 1 7.38825 3.81385 6.39528 24
295 1 -12.2414 -2.03318 7.04775 20
296 1 -5.39653 -4.12951 14.8739 18
297 1 -11.3183 4.88689 4.4255 21
298 1 0.42041 -9.08441 -6.64065 20
299 1 6.97453 9.61795 -4.93677 9
300 1 -2.53644 -9.57835 4.16255 24
301 1 -4.74599 -0.0524615 20.0333 13
302 1 -21.0283 -0.567252 3.98225 13
303 1 -4.60157 -16.3178 0.751752 18
304 1 -12.4007 3.48503 12.4192 23
305 1 -15.9863 7.50386 14.8108 12
306 1 -19.1687 -3.73957 9.20059 14
307 1 -16.3312 -6.29768 14.8484 13
308 1 13.0606 -7.36012 -4.34729 8
309 1 -16.8201 -12.3224 9.9565 9
310 1 1.30115 -4.50473 -9.47871 21
311 1 5.00581 -12.237 -8.41029 13
312 1 -7.64249 16.2465 4.89748 16
313 1 -12.8347 9.27171 -3.47431 19
314 1 5.73836 6.57396 11.535 25
315 1 -13.9832 -4.86178 6.3045 23
316 1 7.10221 -7.33791 0.00650639 20
317 1 -9.68858 7.62825 4.56007 23
318 1 -9.29563 9.66477 7.22974 23
319 1 0.775674 -12.7628 12.7529 13
320 1 8.60117 -8.47541 8.00263 11
321 1 -7.23177 4.92777 9.43446 20
322 1 -11.2413 -6.59092 -1.65385 21
323 1 -7.66065 -0.181146 17.7015 16
324 1 -7.42998 12.5269 7.06039 21
325 1 3.70652 4.66949 17.4639 14
326 1 -11.6345 11.0014 -6.0171 15
327 1 -3.26186 -4.87075 -16.2329 13
328 1 0.127698 -11.1282 -11.5944 15
329 1 -15.6338 3.74702 12.7718 23
330 1 -14.1771 0.84583 6.96838 22
331 1 -9.90605 -3.60499 -6.1485 22
332 1 -9.47742 9.86242 1.84224 23
333 1 4.13171 -3.82933 8.89077 24
334 1 -14.7347 -10.7912 1.30364 20
335 1 4.01556 -7.68549 6.37423 22
336 1 -11.8174 -12.9115 13.8078 11
337 1 -17.6999 7.00109 1.31332 14
338 1 -7.35217 -4.81158 12.2723 23
339 1 4.09583 -15.3541 -2.74988 14
340 1 -9.86243 2.46835 -6.35821 21
341 1 3.15517 -1.70716 -9.73524 21
342 1 -0.821312 16.617 3.90299 10
343 1 -14.604 -0.434854 -0.947792 23
344 1 1.05933 -3.91594 -16.6072 11
345 1 4.08432 3.53686 -9.4996 18
346 1 -10.3798 -14.3551 -7.74864 15
347 1 -14.8949 -10.5232 -4.16522 21
348 1 -11.431 -10.627 0.843725 25
349 1 7.40676 0.982287 14.9785 17
350 1 5.5469 1.26997 -4.51653 22
351 1 -11.8213 5.39681 -11.5211 13
352 1 -2.78665 15.3567 7.3477 17
353 1 -17.9521 -0.938506 -1.41975 18
354 1 -12.7689 9.74616 7.38081 21
355 1 -11.4795 10.7207 4.57066 20
356 1 -10.8759 4.82915 9.76645 23
357 1 5.80108 -1.23341 16.56 15
358 1 8.68327 -4.72437 -5.09834 23
359 1 1.43801 -5.57938 14.4115 20
360 1 11.4364 -1.48213 -8.25774 12
361 1 -9.70433 -13.2982 -4.39639 22
362 1 -2.85331 -9.53183 -1.55124 21
363 1 -2.65936 9.79141 7.00235 24
364 1 -11.3594 1.21515 -3.32564 26
365 1 2.19738 -10.6237 0.287178 21
366 1 7.4695 -4.03671 8.47564 21
367 1 -13.1592 -3.49057 -1.40536 21
368 1 -9.73748 -9.4056 3.42851 22
369 1 -10.8637 -7.57806 14.6548 17
370 1 -7.94226 10.5816 4.63955 24
371 1 -16.3367 -7.84936 1.3801 19
372 1 2.45024 6.58366 11.9258 22
373 1 -12.8177 3.983 1.60211 22
374 1 -0.319443 13.1885 -7.94467 12
375 1 -2.5184 13.4358 9.89999 18
376 1 -16.352 -9.46355 -1.25991 15
377 1 -3.11637 -7.47955 -4.34863 22
378 1 -16.0255 -3.99201 9.05908 21
379 1 -14.5194 6.83864 1.80603 22
380 1 2.77589 -10.4441 5.62884 17
381 1 -7.74888 -16.2907 1.11882 23
382 1 2.22177 11.3732 13.3539 15
383 1 2.60101 7.37179 -12.2572 8
384 1 -14.6607 1.47193 -9.21303 15
385 1 -8.393 13.1978 -8.02278 13
386 1 -14.4959 4.95292 -0.851486 24
387 1 -7.49751 -12.5112 8.87219 23
388 1 8.9447 -1.02958 2.84036 22
389 1 -8.2806 7.52161 -8.93091 24
390 1 -7.17417 0.924731 12.2903 22
391 1 -17.6491 -0.921794 4.16173 21
392 1 -12.6643 2.00248 9.41394 19
393 1 -12.109 -13.7756 6.39841 18
394 1 6.99574 -7.66533 -4.52918 24
395 1 -16.02 -2.03579 6.96196 20
396 1 -18.6469 -3.9041 14.9861 10
397 1 -19.2088 1.86122 9.53984 18
398 1 -4.18499 -6.93303 9.6224 25
399 1 -9.68681 1.09703 -14.2207 12
400 1 5.42239 -12.3302 -2.87775 17
401 1 -4.21682 -12.1637 -6.82502 21
402 1 -8.74074 -3.91723 14.7539 18
403 1 -8.02533 -2.24637 -14.7271 16
404 1 0.742447 -13.3017 5.50109 20
405 1 -2.8107 9.72866 -3.31506 26
406 1 -17.7647 6.82867 6.68372 14
407 1 -9.03759 -1.8832 12.2232 21
408 1 -15.8721 -7.65583 -9.78325 9
409 1 -10.6092 -6.54787 9.11372 24
410 1 3.11204 -10.5839 11.8062 16
411 1 -1.50654 -0.553886 -6.4514 25
412 1 5.91964 -7.11388 8.46854 21
413 1 9.05617 4.70186 -1.90836 18
414 1 -3.60998 1.18333 17.5243 21
415 1 -4.28983 12.7022 1.82728 23
416 1 5.70092 -6.7061 3.40021 22
417 1 -6.15482 -13.4025 0.808833 23
418 1 -9.90021 4.41495 15.7682 16
419 1 -8.43298 13.5978 10.155 12
420 1 -9.86304 -9.56237 -6.69877 21
421 1 0.742613 15.5844 6.80998 15
422 1 2.99869 4.51979 9.23051 23
423 1 -10.6482 0.951638 12.2293 20
424 1 -9.45821 -9.42698 -2.05684 22
425 1 -13.8608 0.702648 12.1805 21
426 1 -14.6638 -6.89399 -1.65519 23
427 1 -11.0366 10.4739 10.0716 19
428 1 -7.89674 -12.3053 -1.78143 21
429 1 -7.90423 -10.441 -9.38077 20
430 1 -11.1428 -12.4712 3.34625 25
431 1 -9.0887 -7.54061 6.56446 20
432 1 4.04184 -1.91619 6.27108 23
433 1 -7.09791 -6.47293 15.2604 15
434 1 -17.0421 7.58442 -7.3208 10
435 1 3.96051 1.75153 3.71554 23
436 1 -13.6589 -13.3243 -4.28942 16
437 1 -7.65842 16.4828 -0.501619 14
438 1 -4.9527 5.13423 -6.44654 24
439 1 -3.95597 6.42871 12.4622 25
440 1 -16.0758 1.79876 4.55855 20
441 1 -6.44525 15.4726 -3.17343 17
442 1 0.437908 13.453 -1.4595 20
443 1 -11.5653 -6.47974 -7.16538 21
444 1 -1.83103 -1.05787 16.8367 21
445 1 0.685557 -15.1657 -7.3036 15
446 1 -4.96375 -4.39987 -9.56645 21
447 1 0.66442 -15.5202 3.23068 20
448 1 -14.5016 4.61137 9.83945 20
449 1 -1.6648 4.59881 17.5464 24
450 1 5.53521 6.72525 0.866916 22
451 1 -2.53166 10.1145 1.64088 22
452 1 -9.81822 4.59343 -8.64189 22
453 1 -2.94007 2.36419 -6.56503 22
454 1 -0.890521 -10.3902 6.5259 21
455 1 -21.4533 1.30933 1.30783 10
456 1 0.805824 13.2921 9.04277 20
457 1 -6.49359 0.574465 -14.2406 16
458 1 4.02282 3.80477 0.919815 24
459 1 -1.08204 12.6118 -3.80731 23
460 1 3.87998 -7.59678 0.761604 21
461 1 12.1195 -1.15781 -2.87373 16
462 1 -6.21441 -1.35007 -9.08019 22
463 1 -4.55181 -10.5571 6.8451 20
464 1 -4.04798 -15.9427 10.9796 15
465 1 -2.99936 -13.0262 12.8033 13
466 1 -11.5215 -0.473798 -5.90273 22
467 1 -17.3741 -10.9892 6.0985 18
468 1 -8.86078 -16.8059 -7.30675 9
469 1 5.83142 13.1975 9.92877 12
470 1 -2.05648 -0.276807 -13.1747 21
471 1 0.748555 -2.93118 20.1627 12
472 1 -17.285 -1.05992 9.63184 22
473 1 -10.3013 -18.0518 -2.10183 13
474 1 -16.0854 -1.86683 1.75104 23
475 1 9.91581 -7.61498 -5.94141 14
476 1 13.1916 -2.66022 -0.6757 14
477 1 -10.9275 6.65897 -3.222 23
478 1 0.226219 -7.40086 -4.23557 23
479 1 1.15206 3.37793 -11.2948 13
480 1 5.25179 -4.54305 -4.96492 20
481 1 -13.9327 -0.883423 15.0224 20
482 1 -1.15087 12.4135 6.96275 24
483 1 -5.88179 -5.02401 -13.9786 22
484 1 4.27115 -0.555459 -13.2232 13
485 1 -8.34987 -9.07143 14.3273 18
486 1 -9.40178 13.6957 4.65044 23
487 1 -13.0468 -7.50884 -10.07 15
488 1 -19.5345 2.34563 3.73951 17
489 1 -3.16224 -11.7136 -12.4136 15
490 1 -11.9948 -15.0428 10.8925 9
491 1 -3.15575 8.03182 -6.36871 23
492 1 9.00769 0.699437 12.0229 18
493 1 5.73568 4.71477 -1.56114 22
494 1 -14.1827 -12.3215 -1.4266 18
495 1 -1.13676 -10.6088 0.979264 18
496 1 -4.94032 -9.99687 -14.5966 13
497 1 -15.2585 9.29633 6.61218 18
498 1 0.0124126 -3.52301 -6.77321 23
499 1 7.28932 -3.80195 3.00651 21
500 1 0.246907 15.0034 -4.9214 12
501 1 0.699587 -7.59616 6.55235 23
502 1 6.69606 3.8372 -4.35359 22
503 1 1.4425 6.27547 14.3944 18
504 1 -17.3085 -1.08851 16.529 13
505 1 3.78113 8.83599 12.2967 20
506 1 0.98089 -1.40431 17.6817 21
507 1 -3.56913 -3.44741 -12.213 21
508 1 -9.89295 -7.33554 -4.59548 20
509 1 -2.1923 -1.95467 11.9795 21
510 1 4.36319 3.69608 12.1417 26
511 1 2.00317 4.79789 -6.74895 23
512 1 -12.9274 7.84573 -0.840815 23
513 1 -1.15924 10.686 -1.03875 22
514 1 2.56845 -4.69529 17.557 14
515 1 8.29698 -0.693991 -8.09782 20
516 1 7.63135 -9.26026 -1.53525 16
517 1 9.30971 5.92624 11.1995 13
518 1 -17.8432 -6.24219 -1.42964 16
519 1 -9.78933 10.4791 -8.61306 14
520 1 -3.79508 0.954275 12.0769 24
521 1 -15.8165 4.71818 15.814 13
522 1 -5.03063 7.5446 -8.79167 25
523 1 -0.799995 -12.6128 3.36028 21
524 1 6.16109 -1.783 -10.8099 22
525 1 -8.16277 12.4357 -3.0647 20
526 1 -11.1922 -6.56878 -12.1076 15
527 1 -2.66085 -15.275 3.46859 25
528 1 -19.4539 -1.47687 1.38103 16
529 1 -1.11485 7.66643 -13.5523 10
530 1 -5.04572 7.27273 15.5623 21
531 1 -15.8924 -9.66064 9.1104 20
532 1 2.08211 6.71192 1.27773 23
533 1 -0.836335 -10.5315 -4.28992 20
534 1 1.01457 -7.71491 11.8367 21
535 1 5.42079 -0.681323 -1.64764 23
536 1 -14.5368 6.70252 7.18506 23
537 1 1.37274 3.76435 17.632 19
538 1 -1.07833 16.1115 -2.1264 12
539 1 8.91767 -6.3419 -2.60777 22
540 1 3.79402 9.61513 15.8855 13
541 1 -3.15765 2.56507 -11.5435 21
542 1 -5.83897 -19.2377 5.70095 15
543 1 -4.87597 -0.561166 -6.11149 26
544 1 2.0547 -5.50715 -13.8965 16
545 1 0.591676 14.3527 12.3636 12
546 1 3.83597 2.11504 -6.8554 21
547 1 -8.19222 -6.50459 -11.2181 25
548 1 -7.99704 -10.5303 1.18499 19
549 1 -14.6792 -4.11299 -9.87312 16
550 1 10.2911 -1.74731 0.173078 22
551 1 10.6334 3.48843 0.261266 16
552 1 3.27103 -3.62337 -7.05131 21
553 1 7.08615 5.89562 13.671 19
554 1 4.00104 -13.6494 -0.149856 19
555 1 -0.455681 2.38795 -13.6917 13
556 1 2.08915 10.6529 4.05799 23
557 1 -12.8294 1.96225 4.48559 22
558 1 6.24198 8.40931 14.3435 17
559 1 4.07401 7.77836 3.89376 23
560 1 10.2558 -4.10318 8.05133 14
561 1 8.87586 4.83906 -7.6707 13
562 1 10.2159 -2.38784 13.0255 12
563 1 11.8207 -0.0385416 11.102 10
564 1 -2.36261 -7.80479 11.741 21
565 1 5.32141 10.7085 -1.96044 18
566 1 -2.52305 -2.70597 19.4156 14
567 1 13.3305 -4.45914 -3.77616 11
568 1 1.14146 -2.14901 11.9876 23
569 1 -8.24122 -0.737751 -6.0474 24
570 1 7.35901 1.8144 3.42396 22
571 1 5.27061 -4.98655 6.46011 22
572 1 -17.77 6.85799 12.531 14
573 1 6.25522 6.58504 16.8108 10
574 1 7.49234 3.40676 12.0704 23
575 1 -2.56937 7.56462 9.4982 25
576 1 -2.63263 14.6861 12.4346 10
577 1 2.64653 0.882314 11.8041 22
578 1 -7.50743 -18.0863 -1.6784 12
579 1 -4.59274 12.7093 -3.6263 23
580 1 3.70786 9.71813 -3.79545 24
581 1 7.3255 -4.88949 -11.0192 14
582 1 -6.13901 13.326 -0.546116 23
583 1 -9.45691 -15.479 -1.79978 23
584 1 5.03157 -7.79255 -9.80866 16
585 1 -19.0953 -1.96489 11.8604 16
586 1 -8.33036 4.95224 -6.32133 23
587 1 -7.6601 -15.9759 6.44221 23
588 1 -9.41602 -1.80052 -9.04297 21
589 1 -12.8293 2.06717 -0.940892 24
590 1 7.19977 -7.72492 5.23201 18
591 1 7.05126 9.78514 0.786851 14
592 1 -5.86665 -9.51608 9.72798 24
593 1 -18.1943 -4.66594 -4.17592 14
594 1 -1.75923 -1.89147 -16.0811 11
595 1 -6.11207 2.68435 18.1969 15
596 1 0.722011 10.1325 -8.42548 15
597 1 7.39622 -2.16025 11.1941 21
598 1 0.345963 4.34856 -3.82029 23
599 1 5.72251 6.86438 6.77571 21
600 1 -4.38713 -16.0855 -4.74376 15
601 1 -14.1565 -0.736438 17.9865 13
602 1 9.0585 -1.1395 8.4116 20
603 1 -6.28174 10.0692 15.6971 15
604 1 1.92499 11.3914 -6.33705 15
605 1 -15.9471 9.38236 -4.83394 13
606 1 2.22722 10.3966 9.32479 22
607 1 -10.9133 -16.5532 0.923591 19
608 1 8.80472 -5.25878 6.31034 17
609 1 5.5123 12.1875 1.46521 13
610 1 -8.91562 3.8861 12.1968 20
611 1 -14.3808 -6.70852 4.1355 19
612 1 -16.5197 -4.10511 -7.34889 14
613 1 3.09176 -2.73645 14.5097 22
614 1 -7.70629 -10.6561 11.9808 23
615 1 5.67692 0.88672 11.3662 20
616 1 -11.1866 12.618 1.93089 21
617 1 5.72148 4.90378 3.70653 22
618 1 4.35154 3.89171 6.24014 22
619 1 0.980682 -1.94232 -14.3636 18
620 1 -10.6807 -0.77607 9.4147 20
621 1 4.97783 -5.67591 -12.8687 15
622 1 7.88589 -11.1101 -4.5038 11
623 1 -0.65058 6.37786 12.1448 22
624 1 -2.78357 8.08237 4.16847 22
625 1 -17.7363 2.36946 15.7882 15
626 1 4.46214 1.72747 8.8338 23
627 1 -8.63296 -2.80631 17.6956 13
628 1 -3.955 3.99701 15.0327 20
629 1 -6.57516 -7.69019 -9.08452 23
630 1 -11.6828 1.61238 15.6701 20
631 1 -2.18641 -5.62544 15.0282 19
632 1 -15.6966 -13.6731 1.81092 12
633 1 8.83646 6.56618 0.475115 15
634 1 0.578913 -15.4874 -1.78918 22
635 1 0.349434 9.63318 1.71728 23
636 1 7.44107 9.58985 5.85952 16
637 1 4.08458 -3.11084 -14.9587 13
638 1 -2.78345 13.5525 -0.764665 25
639 1 0.546192 13.4928 4.79267 21
640 1 -11.0445 -12.2679 -1.7518 23
641 1 -5.01467 -6.5416 -11.5003 22
642 1 -14.1503 12.6087 1.18526 15
643 1 4.00277 -9.35683 -2.52284 20
644 1 6.99049 3.74981 -10.2322 11
645 1 3.72871 13.343 -1.28258 14
646 1 -12.8934 4.07446 6.98435 22
647 1 2.27044 5.01126 -1.21558 23
648 1 9.27732 -2.00407 15.7987 12
649 1 6.71817 -2.40448 14.1894 22
650 1 -5.67595 -15.1114 8.57976 18
651 1 -6.56344 8.08117 -11.6108 17
652 1 -1.20511 10.6681 9.73888 20
653 1 2.72759 -7.32643 -10.875 18
654 1 -3.76479 -1.06302 14.5184 19
655 1 -2.76958 15.3374 2.00435 18
656 1 3.80004 9.55461 6.37594 21
657 1 13.3588 -5.99128 -1.05814 10
658 1 4.41512 0.194556 14.0625 24
659 1 -15.5227 -2.16933 12.4502 20
660 1 -1.33353 -16.4185 0.840384 19
661 1 -3.42771 -3.39777 -6.76519 20
662 1 -10.7605 15.6741 -2.35634 11
663 1 2.59329 12.4997 6.99866 22
664 1 -19.4627 -1.85701 6.68285 18
665 1 -5.61195 1.80237 14.7359 20
666 1 -2.47406 4.55671 -14.1901 13
667 1 -4.42153 7.02417 -14.3293 11
668 1 4.0 -15.6371 4.07098 11
669 1 1.8891 6.90084 -3.73246 24
670 1 -18.9377 5.40825 15.2882 10
671 1 2.74378 -2.96591 -12.3577 22
672 1 -1.3845 -14.0263 11.0486 15
673 1 -6.01287 13.4563 4.38117 23
674 1 -9.58259 2.43264 18.0861 12
675 1 -11.6518 -4.40961 -9.84088 18
676 1 -7.65675 -14.0171 -9.84682 11
677 1 -11.4734 -12.4456 -6.2424 20
678 1 -5.00359 12.8051 -7.99349 16
679 1 1.95693 -4.69113 -4.15678 23
680 1 -9.28023 7.67727 9.85081 22
681 1 2.36327 -12.5076 -2.57279 22
682 1 2.38783 -15.8349 7.32557 10
683 1 -1.05355 -6.579 9.26863 23
684 1 9.95877 2.18232 -7.92828 13
685 1 -2.93251 -13.4762 -4.62935 21
686 1 -17.6687 0.94601 7.02493 20
687 1 -9.3335 -19.2919 0.93039 13
688 1 -13.4579 -9.53112 -6.46296 18
689 1 -13.0212 -3.46178 14.2958 16
690 1 -13.2692 -15.343 3.79189 16
691 1 10.2584 3.81699 -5.09515 15
692 1 -9.35299 15.3281 7.27507 15
693 1 -9.11617 2.10759 9.69922 22
694 1 -16.1335 7.77349 3.7964 19
695 1 5.48997 -0.889375 3.21696 22
696 1 -16.6083 -1.21372 -8.71144 11
697 1 -4.2646 6.84145 -3.80412 21
698 1 6.83045 -1.63795 -5.25493 20
699 1 0.329573 9.44015 15.2118 18
700 1 7.44496 7.58323 3.10188 17
701 1 -18.1912 1.08489 -4.39543 15
702 1 -16.2925 -9.31617 -6.85313 13
703 1 -3.56344 2.9648 20.0244 15
704 1 5.27698 0.875973 -10.166 15
705 1 5.40101 10.4024 9.56778 21
706 1 -4.13329 -5.05524 12.254 22
707 1 -12.6511 -15.4545 -2.06631 15
708 1 -4.01705 -18.3401 3.71525 16
709 1 -7.28995 -6.71301 9.43851 24
710 1 3.98687 7.52109 8.92518 22
711 1 -0.196387 -7.53863 -9.32306 17
712 1 -11.2261 7.01757 2.03328 25
713 1 0.826405 7.82054 4.22893 23
714 1 -10.4843 -4.59505 6.82619 21
715 1 4.86299 6.88103 -9.71628 11
716 1 -11.2889 -15.6346 -4.93631 16
717 1 -6.139 -15.1986 -1.99701 20
718 1 -2.74688 -13.365 0.88683 22
719 1 0.226255 1.96078 -6.58499 23
720 1 -6.10083 15.8338 2.12009 17
721 1 -10.8761 -1.99826 -15.2004 11
722 1 -5.32717 -2.17119 12.1338 21
723 1 -6.30485 2.68517 -11.6039 22
724 1 -12.7414 -1.32355 -8.77252 24
725 1 -14.4242 -5.13505 1.43173 21
726 1 -3.06537 15.093 -3.66459 18
727 1 -6.33263 -6.9822 -16.0814 9
728 1 -13.1607 -9.42999 -1.55245 23
729 1 6.74583 2.16902 -7.58796 22
730 1 8.74354 -4.60543 0.229237 22
731 1 -11.051 6.56837 12.3865 19
732 1 0.66118 -9.57794 3.68926 22
733 1 11.9607 -4.99934 1.016 13
734 1 7.8029 -4.71723 13.8078 14
735 1 -5.84737 7.64232 9.64854 20
736 1 -19.6926 -0.375354 15.4318 12
737 1 -16.6811 0.487739 13.0105 18
738 1 -7.2758 -16.7615 10.3887 14
739 1 5.99514 0.9917 6.19801 23
740 1 4.11781 6.284 15.0057 23
741 1 -17.796 0.99103 1.41201 21
742 1 5.19006 -6.27841 -2.25804 21
743 1 -17.8847 6.79253 -4.35882 15
744 1 -2.62949 13.6082 4.53173 24
745 1 1.12933 -15.719 10.3966 8
746 1 -0.699078 -4.14844 17.4665 16
747 1 -7.67883 10.514 9.9256 20
748 1 -3.97458 -12.516 9.27595 22
749 1 -12.7627 -1.70861 1.90653 22
750 1 -0.296544 0.816469 11.725 21
751 1 -19.7615 -3.79107 -0.170833 10
752 1 -4.55101 8.44186 18.3599 11
753 1 0.285009 7.63638 -1.04283 24
754 1 -18.5279 -7.11602 3.64046 12
755 1 -9.46922 -15.5631 3.77983 22
756 1 2.65161 -4.83895 11.7058 23
757 1 6.42544 -9.14308 10.3253 12
758 1 0.609344 9.3235 11.4614 17
759 1 -4.60682 -10.4982 -3.71937 23
760 1 -7.84139 1.2665 -8.82399 23
761 1 -8.71361 1.82483 14.9221 18
762 1 -4.37744 16.0174 5.14699 16
763 1 12.1973 -1.28179 2.70177 15
764 1 -1.23243 7.08196 -3.81954 24
765 1 -12.1948 7.52721 14.9887 14
766 1 0.811672 7.36601 9.19034 24
767 1 4.37537 -4.81262 -9.6781 24
768 1 -9.57378 -13.5211 0.914443 23
769 1 12.4332 -1.63224 8.05439 11
770 1 -2.9571 -9.31323 -6.43781 23
771 1 -4.45225 5.55706 18.0128 17
772 1 2.63966 -13.4594 -6.28361 17
773 1 -5.07326 5.34441 -11.4496 24
774 1 -5.92137 -9.2765 -1.31043 20
775 1 8.91834 0.91804 -4.96134 20
776 1 10.4334 -4.18074 3.94737 12
777 1 -0.746343 -10.5294 12.3142 20
778 1 -6.45826 -13.2865 -4.72601 23
779 1 2.57545 12.5453 1.5135 19
780 1 -21.2542 0.942119 12.1608 10
781 1 5.05132 6.84979 -3.93652 23
782 1 9.01541 1.09101 0.797983 22
783 1 -2.67161 -9.08022 -11.6228 19
784 1 -14.674 12.5369 6.6711 13
785 1 10.6451 3.35125 6.22364 15
786 1 5.07025 12.2729 -4.63642 10
787 1 -3.13702 -1.50459 -9.25289 21
788 1 5.35682 -4.55502 0.903741 23
789 1 -14.5714 1.18978 1.86288 25
790 1 9.00538 6.53975 5.80936 14
791 1 -17.757 -11.1661 2.55227 13
792 1 -14.8241 10.0648 -7.85241 9
793 1 1.1595 1.75863 9.15914 22
794 1 -16.2539 -1.76175 -3.7485 20
795 1 -16.0792 1.77386 9.8571 21
796 1 -6.39916 2.34831 -6.15625 23
797 1 5.05758 -6.77581 -7.03105 20
798 1 -13.2619 -13.0036 -8.33998 12
799 1 10.3683 -7.66764 0.284153 15
800 1 -20.8949 1.08897 6.64057 14
801 1 -16.3256 -3.91014 4.13571 21
802 1 9.46557 4.48787 8.66874 15
803 1 -11.1708 -12.0176 8.99357 19
804 1 6.16721 -4.19529 17.074 10
805 1 8.36166 -6.20898 10.5205 13
806 1 2.12026 -4.67495 6.50616 23
807 1 -16.2717 3.61488 7.14591 21
808 1 -2.52091 8.98105 12.4547 23
809 1 -0.171208 4.29057 -9.10299 21
810 1 -6.38742 -9.58439 -11.9138 16
811 1 -12.9477 13.6529 4.17232 16
812 1 -19.036 -10.1993 8.44252 8
813 1 3.82387 7.66681 -1.16787 22
814 1 -2.13525 7.30156 14.9233 19
815 1 11.2644 -4.5177 -6.06144 14
816 1 2.18453 -6.81109 8.88286 22
817 1 -2.36966 11.0964 -12.6875 11
818 1 -1.32754 10.3842 -5.979 24
819 1 -10.7491 -4.78985 11.9157 21
820 1 11.1081 1.89408 2.9964 17
821 1 -8.31596 -4.54806 -9.05371 22
822 1 6.22978 12.233 6.75344 15
823 1 -17.8996 4.77806 3.94901 18
824 1 -9.33183 -13.7546 10.8535 20
825 1 -2.73082 13.564 -6.3155 19
826 1 4.67134 -5.15815 14.8432 17
827 1 -4.28569 -12.4748 3.33894 20
828 1 -10.6063 12.3397 7.4402 19
829 1 -16.1727 4.02289 1.78347 22
830 1 8.58736 -0.99833 -2.53437 22
831 1 -2.56916 -15.7813 -7.42141 14
832 1 -11.2242 7.05758 7.29129 24
833 1 5.47243 5.22817 -6.86653 22
834 1 -9.11745 -3.86554 9.48942 23
835 1 -0.242148 -7.0559 -15.429 12
836 1 -10.521 -11.4581 -9.52039 18
837 1 -4.59447 -10.2638 1.06007 21
838 1 -7.31765 5.83953 18.002 11
839 1 2.16187 -16.1655 1.12794 17
840 1 -8.56806 5.59817 -11.8484 16
841 1 11.0164 1.95103 -2.59672 17
842 1 2.45392 4.75873 3.83275 23
843 1 -2.7051 -15.5431 -1.84192 18
844 1 -0.920357 -4.39904 -14.3799 17
845 1 7.34515 -2.32103 5.83289 20
846 1 -7.97385 -0.496016 -11.6096 22
847 1 -8.34394 -12.4919 13.9257 11
848 1 0.412314 9.55234 -3.51937 27
849 1 1.73048 1.24141 -4.17501 23
850 1 -14.4744 6.71453 -3.30662 22
851 1 -19.4303 4.14776 12.2944 13
852 1 -0.267059 3.04929 20.8689 13
853 1 -11.0528 -10.4459 12.0444 23
854 1 0.66148 9.84997 6.91592 23
855 1 -2.33779 -19.0911 6.31268 11
856 1 -3.09344 7.90616 -0.706353 24
857 1 -6.9989 5.03044 14.7638 19
858 1 -12.1981 -2.94962 17.1539 18
859 1 -14.2064 10.403 9.84642 16
860 1 5.51505 1.06385 0.819716 22
861 1 -11.7195 -10.6491 15.0969 10
862 1 -0.719718 -12.4249 8.3984 20
863 1 7.78522 9.17302 11.8741 13
864 1 6.86763 -3.70337 -2.49281 20
865 1 2.37948 -16.8092 -4.46217 12
866 1 -11.3844 0.198837 -11.1981 16
867 1 -3.02953 1.25894 -15.6087 11
868 1 3.26719 12.7989 10.815 16
869 1 -15.3762 -3.34403 15.8448 16