ITEM: TIMESTEP
1000
ITEM: NUMBER OF ATOMS
2000
ITEM: BOX BOUNDS pp pp pp
-30.0 30.0
-30.0 30.0
-30.0 30.0
ITEM: ATOMS id type x y z Coordination
1 1 -8.31593 5.41212 -12.1544 15
2 1 -4.72938 -10.1251 -10.1208 17
3 1 3.03026 18.6511 10.1479 10
4 1 8.4015 -12.7957 2.8159 15
5 1 -11.0547 7.83744 -1.24576 20
6 1 9.83749 -10.8184 -14.2268 11
7 1 -15.5332 3.23672 -5.27011 12
8 1 -1.61054 -6.81836 9.48979 18
9 1 -7.7431 1.45834 -13.3003 20
10 1 -11.2779 -9.08427 4.95683 17
11 1 14.479 3.27843 -9.33668 10
12 1 -0.0566874 -10.9632 1.54204 20
13 1 -10.4644 -8.13274 -0.48977 21
14 1 3.28946 4.46046 18.0623 10
15 1 0.93905 12.2586 -11.4568 18
16 1 2.55156 0.614876 12.7249 19
17 1 -9.22201 3.60243 -14.4997 12
18 1 -10.5125 -1.20047 9.41529 18
19 1 12.3486 6.07536 7.01253 20
20 1 2.82975 9.35115 -11.4402 22
21 1 3.63448 3.26738 -15.8839 20
22 1 12.7358 1.86195 11.0306 15
23 1 -11.6468 5.42843 -12.79 10
24 1 -10.1381 11.1497 10.4572 12
25 1 10.2951 -14.7325 0.219068 13
26 1 0.48167 -12.658 -9.72232 20
27 1 7.13098 -11.0133 0.840941 19
28 1 -8.16507 -12.6802 -7.29739 13
29 1 -12.1977 -4.7276 9.89588 16
30 1 0.987726 -5.21036 -11.6732 20
31 1 6.59143 -11.6556 -15.6779 10
32 1 -1.57023 5.50555 -17.1558 14
33 1 0.254206 3.24276 17.6925 12
34 1 2.51957 -12.6254 3.68602 17
35 1 4.46653 -2.59652 11.7379 17
36 1 -13.9952 -0.684444 1.92225 21
37 1 -15.6866 0.307297 9.03011 12
38 1 -4.14724 12.1377 -3.21473 18
39 1 0.766574 -16.1094 -10.2967 6
40 1 6.77094 -6.51304 -13.2719 22
41 1 -1.27925 -4.52168 12.7473 14
42 1 -12.6241 4.90306 -1.28204 21
43 1 4.94225 13.4402 -14.3808 9
44 1 -0.96306 13.9164 5.58533 19
45 1 -10.8124 8.22821 -6.74695 20
46 1 -0.782027 14.0283 -0.544232 19
47 1 2.52988 -13.4831 0.474369 21
48 1 9.45437 -6.62075 -8.14092 19
49 1 5.48807 -6.31725 -16.1139 14
50 1 -9.52704 8.77838 12.1405 13
51 1 -11.6315 -2.41986 -10.8818 15
52 1 -7.42441 7.85044 -6.38911 21
53 1 -8.32251 -8.34046 6.89041 20
54 1 -3.12663 15.9487 10.315 11
55 1 -14.2629 6.73254 -6.15307 13
56 1 -7.01266 6.98178 13.0722 15
57 1 -3.48641 -11.0468 7.00987 21
58 1 10.1282 -15.7521 -6.25553 13
59 1 5.09564 13.2491 11.6972 14
60 1 -14.2748 2.96048 -11.7908 9
61 1 -9.26893 13.9222 -5.38174 12
62 1 5.95258 8.06463 9.36331 19
63 1 13.1809 -2.78534 -7.70024 21
64 1 10.5224 -11.6524 0.527699 15
65 1 -16.97 -3.28241 4.91227 11
66 1 7.48342 16.9942 5.44829 14
67 1 5.71475 0.564801 12.2427 19
68 1 -4.71436 -12.7388 4.44548 21
69 1 14.7869 3.31488 2.20139 16
70 1 -3.93083 13.1125 10.9343 15
71 1 -3.94638 -4.64125 -9.34803 21
72 1 -15.8489 8.28674 7.07612 9
73 1 -9.20436 10.2448 -1.17825 22
74 1 -2.13443 9.29566 -8.43999 19
75 1 11.8108 11.3581 -10.1484 14
76 1 6.18152 -7.19013 9.74797 14
77 1 -3.42978 15.6901 -5.98588 12
78 1 -9.90418 13.3887 4.43698 11
79 1 -7.83668 -4.06057 12.9068 14
80 1 -6.00401 10.9456 4.72795 17
81 1 -4.77983 -6.77419 10.1932 23
82 1 12.7122 -8.27483 -4.53132 17
83 1 -10.6559 2.10542 3.01125 20
84 1 -8.95114 -14.1849 1.44364 12
85 1 10.5583 -7.3403 -5.98977 22
86 1 6.31242 1.31573 -9.05673 20
87 1 -2.85842 2.26037 -17.3607 16
88 1 -0.505142 11.9688 2.65062 22
89 1 -7.07522 6.28743 -9.35812 19
90 1 3.80767 9.84898 15.2004 16
91 1 3.50834 18.3531 -9.28757 10
92 1 -13.846 10.0313 2.30833 16
93 1 -3.14054 -7.59042 12.685 15
94 1 12.302 0.976793 7.99125 18
95 1 5.98748 -7.45368 -9.12265 23
96 1 9.60382 -3.42916 15.2663 9
97 1 -8.31617 -6.08716 -1.17464 21
98 1 -8.40099 -8.27479 -4.69949 21
99 1 10.5796 -7.68226 0.644673 15
100 1 7.20821 5.89702 -18.1526 8
101 1 7.70753 15.1748 -3.2027 19
102 1 -7.85198 -12.0273 12.0451 13
103 1 -8.24085 -12.7942 9.03628 16
104 1 5.04065 -9.82591 -13.3164 17
105 1 12.5194 -9.85761 -1.39289 14
106 1 0.426496 -14.5387 4.28039 13
107 1 -7.09293 -9.38554 -1.2439 19
108 1 15.7607 6.07582 7.92344 12
109 1 15.6916 -5.26517 -7.07473 13
110 1 -16.4611 -5.96024 2.5586 11
111 1 11.3884 11.0802 3.79931 20
112 1 15.4123 9.82527 2.39336 13
113 1 -6.49762 4.26493 15.8563 13
114 1 -7.02018 9.64528 10.1972 18
115 1 -5.38238 10.9806 -5.87738 20
116 1 -0.463424 -8.56513 -12.103 19
117 1 8.03768 -13.7601 -13.9526 7
118 1 1.51229 14.1929 -13.8088 10
119 1 12.9484 -2.34897 9.45626 13
120 1 3.45013 1.18964 -18.4575 13
121 1 -1.89505 11.4 -5.71301 20
122 1 9.81607 2.63519 -6.28014 20
123 1 -10.3467 11.7594 -3.46753 16
124 1 -9.07174 15.1338 -2.42216 13
125 1 7.39592 3.06459 -11.0086 21
126 1 8.47192 -9.11519 4.98645 13
127 1 -8.80635 13.942 9.54105 11
128 1 14.2492 7.25147 -7.031 17
129 1 5.44171 13.2066 -2.75051 20
130 1 -2.76157 15.9845 -0.154485 11
131 1 7.65264 10.6169 -1.28765 22
132 1 0.65226 13.4885 -8.74846 22
133 1 6.08935 20.5107 -8.79809 6
134 1 4.66718 10.2607 -14.2801 13
135 1 -12.0681 -9.44034 2.09034 16
136 1 -13.4924 7.33014 0.380641 18
137 1 -5.65236 0.645245 -11.6584 20
138 1 -0.383804 -9.12917 -14.9677 13
139 1 10.655 15.579 5.87079 12
140 1 -1.77804 15.1656 2.50818 16
141 1 -11.9448 -2.57549 -4.32966 21
142 1 -10.8325 11.5243 1.6027 19
143 1 16.7311 -3.42437 -4.77994 11
144 1 -7.342 1.57546 -17.0384 10
145 1 5.51159 4.15615 15.6298 17
146 1 5.71625 15.9171 -1.01513 18
147 1 -2.40935 8.54169 6.93564 21
148 1 2.07763 -7.80533 -16.5661 10
149 1 -5.81551 15.8 7.717 10
150 1 1.35464 11.7867 -5.93343 20
151 1 2.95066 -7.10694 10.7334 14
152 1 -13.8696 -3.5605 3.87532 23
153 1 -1.38015 -11.6542 -12.7462 11
154 1 -6.6484 12.2104 -9.01963 12
155 1 -3.64326 -9.42961 4.17535 22
156 1 3.98921 -15.3249 -6.8967 12
157 1 -4.35736 12.2598 -13.2649 12
158 1 -15.0135 2.15727 7.16084 14
159 1 11.3847 7.74819 -5.83858 18
160 1 -10.0999 4.10949 11.3792 22
161 1 0.237261 -8.85475 9.67116 18
162 1 1.38269 16.5615 4.69371 15
163 1 -0.526479 7.75942 9.64332 22
164 1 12.5328 4.22369 13.2492 14
165 1 -7.36167 12.231 0.800732 20
166 1 14.0698 -5.07979 -9.40738 13
167 1 -6.38854 14.935 10.2502 9
168 1 14.2359 -5.76744 0.24324 12
169 1 -17.3504 -0.0123398 5.27363 9
170 1 -6.52379 -8.9517 4.42505 22
171 1 6.62255 9.64664 12.7374 23
172 1 -13.9564 -0.455246 -3.77055 19
173 1 -2.23337 -12.1896 -1.25237 21
174 1 -2.43528 11.1185 4.73399 19
175 1 5.25745 15.6519 10.1962 13
176 1 -5.7258 9.25354 -8.5078 20
177 1 -12.9068 -3.57888 -8.45404 13
178 1 -8.61649 -3.60572 9.82709 22
179 1 -0.0626229 -8.88552 4.20373 19
180 1 6.09673 -14.7209 4.52528 9
181 1 -12.9191 13.0536 4.41087 13
182 1 15.615 -4.48725 3.17176 9
183 1 -5.10038 -3.90287 -15.0657 17
184 1 3.02624 2.16687 9.70446 26
185 1 7.67133 -16.2376 -1.24395 15
186 1 -1.44034 5.85667 -11.8377 19
187 1 2.52375 -10.4037 -13.2912 13
188 1 7.74462 2.82256 -13.7884 18
189 1 2.48772 7.35876 -14.3782 17
190 1 -5.37882 -1.94709 -9.46017 22
191 1 -1.08009 15.7016 -8.51844 13
192 1 -10.4228 -10.8064 9.9603 14
193 1 9.62847 14.4654 -5.29538 14
194 1 -3.6482 2.68238 16.0066 12
195 1 -6.12569 14.7745 -4.00861 15
196 1 7.91542 3.10872 6.73628 21
197 1 -1.64795 -5.74769 -11.7207 21
198 1 -2.33932 11.9932 -10.019 17
199 1 2.82793 6.83188 -8.98613 20
200 1 -6.8312 -10.9513 6.73401 21
201 1 -9.07797 2.43437 5.63554 19
202 1 -7.27598 4.20603 12.4074 18
203 1 1.89919 -10.1268 -10.0266 21
204 1 -4.68283 -14.0995 0.0129054 17
205 1 12.2843 -13.1921 -5.45272 13
206 1 11.2486 7.51356 12.0798 17
207 1 8.91347 11.5918 -10.865 17
208 1 1.15914 10.9282 -0.81099 21
209 1 -12.8808 10.6424 -0.617179 15
210 1 1.20325 4.90119 9.54068 23
211 1 7.44359 -17.5307 -4.66731 11
212 1 11.9318 -0.56252 -1.44128 18
213 1 -12.0482 4.9346 4.0468 16
214 1 -9.92653 -5.38374 -4.48207 18
215 1 7.17535 5.76856 -12.3982 21
216 1 4.74304 -4.30946 9.556 21
217 1 10.5174 11.2555 -13.5225 12
218 1 -2.42834 -0.0135288 -11.8289 20
219 1 0.848447 -16.3385 1.45626 14
220 1 9.42221 0.744631 -9.37243 21
221 1 -10.3517 -3.97377 4.17809 23
222 1 5.78521 -12.4544 -5.42018 18
223 1 -8.59199 -2.94215 -9.34939 20
224 1 9.92991 13.4253 -8.29789 15
225 1 2.89919 -1.33209 -14.2028 25
226 1 4.87687 7.82365 14.3272 21
227 1 15.0915 1.71459 -0.480958 15
228 1 10.6525 -3.94731 -9.48504 20
229 1 -9.51226 -0.389579 -12.0728 22
230 1 -12.2071 2.53014 -9.45291 16
231 1 -6.82699 -14.5697 10.3657 10
232 1 9.05893 0.280118 6.92842 18
233 1 -5.0865 -5.72076 -11.9929 22
234 1 -0.479533 8.02684 -14.0883 16
235 1 2.96325 11.9187 1.98991 20
236 1 -6.04849 -3.17042 10.2814 23
237 1 -10.2043 -9.17983 -10.2071 13
238 1 -7.22387 -2.66724 -12.3095 24
239 1 -2.42189 10.223 -15.4286 11
240 1 -7.64081 -9.82603 -8.12859 21
241 1 8.57737 -4.07482 -13.0249 19
242 1 16.156 -2.57709 -8.82445 11
243 1 11.3125 5.2645 4.17507 21
244 1 -7.66966 -6.46056 10.199 20
245 1 0.0564123 -10.4739 -4.35155 21
246 1 8.97445 7.35661 17.1059 10
247 1 -5.78846 -16.3176 5.32868 10
248 1 1.64133 -11.761 -1.88143 20
249 1 0.437935 15.965 -3.85286 12
250 1 6.91356 3.45319 -16.1175 15
251 1 -5.53194 -1.19375 -13.5987 19
252 1 -12.1203 -7.96598 11.8928 8
253 1 3.29833 7.20559 17.5236 11
254 1 4.5502 -11.9268 -1.64359 18
255 1 -2.80513 -12.9783 -10.6329 13
256 1 -12.8698 7.49071 -9.21687 8
257 1 9.30093 5.83147 6.1321 21
258 1 -5.30702 3.5888 -9.43543 21
259 1 -0.375665 9.2793 -11.0736 21
260 1 8.27401 -13.2776 -10.6093 13
261 1 -2.89855 14.8308 -3.45322 17
262 1 1.08107 10.5192 4.56342 20
263 1 9.62991 2.13586 3.87417 18
264 1 -12.0323 -0.973514 4.10899 21
265 1 1.46406 -4.15991 9.67787 18
266 1 -9.42766 8.66077 5.73373 14
267 1 3.15886 -3.05369 -11.5383 21
268 1 15.9141 8.10537 -1.61269 12
269 1 3.05735 -10.6335 1.01553 20
270 1 -3.56916 0.15479 14.6925 16
271 1 -15.2394 -5.46317 6.08419 12
272 1 2.09482 -16.5987 -4.79383 14
273 1 -9.48348 5.82266 14.1493 14
274 1 -11.0786 7.26525 11.241 12
275 1 -14.9362 -2.9869 8.03528 12
276 1 -12.0811 -5.68432 6.1765 17
277 1 16.7188 -3.5999 -1.28557 13
278 1 -10.3336 -7.77798 9.16019 15
279 1 10.0476 -3.53228 -6.32119 20
280 1 11.2554 -10.6807 -7.12625 19
281 1 5.94699 17.229 -3.64835 14
282 1 -7.39621 11.7639 -3.25474 24
283 1 10.5828 7.78955 9.09427 20
284 1 8.52106 -7.78119 -3.46567 21
285 1 -10.8402 8.59681 2.34746 18
286 1 6.35348 -9.87391 8.52905 10
287 1 13.6441 -2.36885 4.22393 15
288 1 -1.18447 -2.01503 15.7836 12
289 1 -3.37399 12.3237 7.15316 22
290 1 8.81897 8.49681 14.1198 19
291 1 -6.49221 14.3811 -6.88547 11
292 1 -2.97386 -6.54564 -14.9883 15
293 1 3.82208 -13.8 -13.963 7
294 1 -10.0138 1.69132 9.54015 19
295 1 -16.8947 2.88807 3.32729 12
296 1 -5.91192 10.7124 -0.881737 20
297 1 12.2523 -1.18576 6.59488 19
298 1 -9.10885 -10.1265 4.2252 19
299 1 6.11347 -5.18469 7.22885 21
300 1 -8.60356 -9.08289 12.6353 15
301 1 -14.72 4.65211 1.9122 17
302 1 3.27989 -11.7234 -8.02017 21
303 1 -6.987 0.566668 -9.28398 23
304 1 6.53842 -0.754711 -13.8936 20
305 1 1.24738 14.9914 7.35345 21
306 1 -10.3109 0.303646 -4.18765 21
307 1 5.27546 -10.2437 -9.93726 20
308 1 9.77009 5.02414 -14.4005 12
309 1 -4.03596 -15.0765 -6.37752 17
310 1 -12.8178 -6.05464 -5.60021 17
311 1 11.3097 6.21275 15.1003 12
312 1 11.4077 3.33042 -3.91351 17
313 1 -8.61318 2.178 -10.5019 16
314 1 3.2278 17.492 1.79805 12
315 1 -15.6061 0.155455 -6.89471 12
316 1 -9.07915 4.74207 3.61271 18
317 1 -8.36119 9.32115 1.92542 18
318 1 -6.14416 5.08483 9.34697 18
319 1 9.84363 4.93058 12.3739 19
320 1 11.8529 -2.56352 -4.12535 18
321 1 10.6383 -3.18558 11.8354 13
322 1 12.4481 0.344902 -10.0482 17
323 1 -7.65378 -15.7556 -5.78716 7
324 1 -10.2907 2.09581 -6.72962 21
325 1 3.31194 -10.1394 -5.31186 20
326 1 9.88262 -1.7196 8.90967 18
327 1 -10.1476 -4.10097 -6.73865 18
328 1 -5.78793 -11.2438 1.6686 18
329 1 -9.95181 -5.92512 12.667 14
330 1 -2.34539 10.9366 -0.656529 20
331 1 -9.64311 -10.3322 -2.57371 17
332 1 7.89749 12.2268 13.9299 11
333 1 -10.6365 6.0577 -3.84912 21
334 1 2.1573 16.2786 -7.7847 14
335 1 2.92702 11.412 7.49559 21
336 1 -11.8726 -8.56995 -4.04472 15
337 1 -2.8768 -8.88251 -6.76638 18
338 1 -12.2504 4.20553 9.53305 20
339 1 -13.6198 7.60033 -3.03389 17
340 1 5.97624 -9.36782 3.20635 20
341 1 -5.09793 -13.9016 -3.42839 21
342 1 12.2162 12.3699 6.40579 13
343 1 7.00605 7.53097 -14.8377 14
344 1 -13.0702 1.49808 -14.5724 10
345 1 0.803341 16.3142 -11.2823 13
346 1 -8.75275 5.31894 -6.8229 20
347 1 -1.15597 -11.7182 4.51906 20
348 1 13.6537 7.73216 3.63052 18
349 1 1.33009 10.6794 -14.7118 12
350 1 -15.0193 -1.16097 -0.522068 15
351 1 -3.05794 -11.1964 1.65943 23
352 1 7.75459 -9.77822 -11.3798 21
353 1 -13.6514 2.04908 3.93153 20
354 1 -14.2061 -1.47525 10.7863 12
355 1 -15.4905 10.9024 4.90412 10
356 1 -4.44483 0.668682 -19.1939 9
357 1 8.75956 -9.52878 -8.26288 22
358 1 2.71116 -7.3652 -13.9145 17
359 1 -2.87941 -3.59024 10.0168 18
360 1 -3.19688 4.1515 -19.6593 7
361 1 5.08195 -12.8834 2.13549 22
362 1 6.28431 14.4942 -5.59239 18
363 1 -13.5895 10.9526 7.18046 12
364 1 -6.16688 -1.62543 13.8144 15
365 1 -10.7682 -4.47207 -12.2922 12
366 1 -6.87835 -5.42924 6.68722 19
367 1 8.23961 -4.41946 9.93387 19
368 1 8.62462 -7.1081 7.88761 14
369 1 13.1621 9.18163 -3.72641 19
370 1 -1.82537 1.0589 11.6285 20
371 1 2.56746 13.627 -0.276139 20
372 1 -1.0037 -13.8462 -4.8766 20
373 1 -3.98135 5.74952 14.5763 11
374 1 -2.25608 15.8163 7.42751 14
375 1 -8.27642 -12.1793 -10.4265 11
376 1 10.0927 13.478 -1.55274 18
377 1 4.62808 8.67047 6.25915 20
378 1 -7.18638 2.1828 9.85144 21
379 1 -9.25858 4.01623 8.28598 19
380 1 -7.91842 -6.24956 -7.92374 18
381 1 -6.24663 8.56571 6.78558 18
382 1 -4.61798 -11.8207 -6.17041 18
383 1 -3.6663 -8.86812 -12.9655 17
384 1 -8.03748 -12.9439 3.86767 19
385 1 11.203 3.03066 6.20807 19
386 1 -4.683 -4.54772 12.5946 19
387 1 -10.2377 6.98585 -10.4137 12
388 1 9.75999 6.19063 -3.36122 17
389 1 -9.21135 -13.4264 -4.30735 10
390 1 0.376466 16.8122 -0.419179 13
391 1 -2.35295 10.6558 8.96338 21
392 1 -14.5253 -3.32934 -6.02201 14
393 1 4.94346 16.8112 -6.38881 16
394 1 6.78166 11.456 -7.97816 18
395 1 -6.57071 -7.04847 -10.3386 14
396 1 2.84346 2.70925 15.0804 18
397 1 0.293438 -15.3333 -7.05222 19
398 1 -0.182517 -2.77025 -12.1424 21
399 1 10.4426 -12.7032 -2.3041 19
400 1 -11.9101 10.6735 4.65189 19
401 1 3.25878 5.62803 12.4199 18
402 1 9.95185 8.40685 -0.579879 22
403 1 -9.0935 9.38021 -8.85602 17
404 1 -13.6693 -6.80791 0.301696 15
405 1 4.33615 16.4952 4.64494 16
406 1 -3.26067 4.86009 -14.5176 17
407 1 11.0557 5.55877 -0.54258 17
408 1 8.11279 14.8589 -10.4252 11
409 1 15.9724 -0.5806 -2.95193 11
410 1 -0.861783 -0.0524695 -13.9335 19
411 1 3.50707 -15.5281 2.83282 13
412 1 3.22828 -9.42815 9.5522 12
413 1 -12.0866 4.85577 -6.68599 18
414 1 -11.3669 -14.3244 5.8841 9
415 1 -1.27834 -10.1167 -9.36186 19
416 1 7.98446 14.042 3.45669 18
417 1 1.21708 6.2603 -11.7589 20
418 1 2.2565 -2.51061 15.7081 11
419 1 -15.6418 2.53228 10.7681 11
420 1 4.15535 -17.2213 -3.27229 13
421 1 -12.2866 -2.98123 1.44623 18
422 1 13.1354 -7.60458 -7.14375 15
423 1 12.7444 -3.71778 -1.26684 19
424 1 3.42868 -8.23658 -8.1061 22
425 1 4.8494 4.19734 -13.2216 20
426 1 12.4905 -4.71289 -5.46771 17
427 1 -2.67003 2.95323 13.0915 19
428 1 8.31667 16.7843 -0.827462 9
429 1 -3.23207 -1.15513 -16.2226 16
430 1 5.9974 2.71745 -18.8074 10
431 1 -8.96279 -2.65328 6.67912 20
432 1 1.15704 14.7543 2.15655 18
433 1 -7.42949 -0.774175 -15.5204 16
434 1 -17.0997 -0.50422 2.5472 11
435 1 -5.11441 -12.0423 -12.4394 12
436 1 -5.49104 -10.0436 13.1511 12
437 1 0.748255 10.115 -8.23396 23
438 1 14.6504 5.08141 4.80342 18
439 1 16.0416 4.89642 -0.198426 12
440 1 -8.08453 -12.9243 -1.40901 17
441 1 0.751069 -5.17462 -18.7262 10
442 1 -7.64968 12.2171 12.2087 10
443 1 9.96528 -4.81604 1.70874 17
444 1 6.86689 17.5252 -9.43121 11
445 1 13.0571 5.96684 -9.62833 17
446 1 2.98922 7.72475 10.0395 21
447 1 -11.8016 2.56741 6.59847 20
448 1 4.56427 10.561 10.2362 21
449 1 7.93999 1.16237 15.3028 15
450 1 1.98146 1.72401 -14.1142 23
451 1 4.15967 -0.586536 9.6289 22
452 1 6.36917 11.8524 7.68911 20
453 1 6.40652 9.24504 -12.0343 23
454 1 -9.22895 8.70689 -3.87799 21
455 1 -0.543561 11.8665 -3.28484 21
456 1 12.8206 -2.23923 14.7339 8
457 1 10.2897 2.92945 -11.5915 18
458 1 10.5741 -10.1588 -4.59278 20
459 1 12.4958 9.9216 9.4339 16
460 1 -12.6905 -9.91851 -0.95398 14
461 1 -6.39349 9.90669 -11.8353 11
462 1 -11.319 0.373904 12.195 15
463 1 -3.48394 13.1083 -7.94674 15
464 1 7.29825 -11.4417 -2.67342 19
465 1 5.88194 -4.06731 -11.2886 19
466 1 -0.0339704 14.1896 -5.70908 18
467 1 -8.30169 -4.01164 -14.6832 13
468 1 7.72935 -13.6016 -0.365623 22
469 1 -11.8615 -5.55305 -2.00844 20
470 1 4.3036 11.8838 -10.7332 15
471 1 0.206445 9.71116 13.2628 14
472 1 -9.46219 -5.12273 7.20904 19
473 1 3.75876 -7.3464 -11.1531 21
474 1 0.884205 -6.89425 12.7004 9
475 1 -13.3161 7.40645 3.55921 19
476 1 6.1458 6.94203 17.3168 12
477 1 8.38598 16.1338 -6.98586 11
478 1 9.55432 -4.62138 -3.68765 22
479 1 2.80774 13.7642 9.29762 19
480 1 0.0516737 3.1017 -17.7464 13
481 1 -4.97157 -12.055 9.89912 18
482 1 9.0088 -5.42989 -15.8003 11
483 1 4.73239 14.1736 6.8528 19
484 1 9.61513 5.67012 -9.35935 18
485 1 -2.43202 -4.30668 -17.5367 13
486 1 -2.86382 -10.843 -4.0912 18
487 1 -11.54 -1.78376 -14.3191 12
488 1 11.1833 3.47599 1.70764 20
489 1 14.8693 2.70941 -3.14625 12
490 1 7.48584 -4.18254 -8.74051 20
491 1 13.7998 7.13839 9.71783 13
492 1 5.49875 -9.02264 -6.62589 19
493 1 2.77985 4.38265 -18.6099 10
494 1 10.9249 14.5168 3.2258 15
495 1 9.38173 10.5721 11.3121 18
496 1 15.558 6.03129 -4.59608 11
497 1 11.5351 -0.594287 3.34201 17
498 1 11.5724 2.99412 -8.63308 19
499 1 7.39319 2.6943 13.0039 20
500 1 14.5821 4.09829 10.3471 12
501 1 16.0672 8.94845 -5.33412 11
502 1 1.0341 -0.235936 16.9178 11
503 1 15.3663 -1.18397 -6.34125 13
504 1 7.81954 5.15126 9.19176 20
505 1 -8.8044 -0.509532 -7.14701 19
506 1 15.6328 7.08596 1.71087 16
507 1 -11.5969 8.76121 8.54658 12
508 1 11.049 13.1127 9.2259 12
509 1 10.3365 1.71371 13.0428 19
510 1 1.27793 9.01637 7.43766 22
511 1 -0.18354 17.4606 9.18419 13
512 1 -1.18018 -16.5702 -0.49574 14
513 1 -5.5993 8.99847 -4.04311 22
514 1 14.3606 9.60859 -9.51825 13
515 1 10.8613 -2.21547 -11.6801 15
516 1 2.97753 17.4085 -1.38993 11
517 1 -2.37111 -12.906 -7.74153 18
518 1 11.4125 -4.89892 -12.4898 12
519 1 -15.0118 4.69697 5.29351 16
520 1 -5.02121 6.32152 -12.1653 18
521 1 -2.29686 -15.2036 2.21795 15
522 1 -3.26755 3.15259 -11.9376 22
523 1 -13.4224 1.91892 -6.81845 21
524 1 10.5916 -6.81827 5.13395 12
525 1 12.5688 12.898 0.871079 14
526 1 1.14584 -7.95459 7.13096 21
527 1 -14.3525 -0.839746 -9.13031 17
528 1 5.21464 1.52078 -14.8036 18
529 1 -0.25079 4.2512 14.8676 18
530 1 7.65966 10.6959 -14.3723 13
531 1 12.7445 0.985981 14.534 12
532 1 8.14464 5.88714 -5.95806 19
533 1 12.6394 11.1404 -1.25259 16
534 1 5.59273 -13.6274 -8.59645 15
535 1 -8.46615 1.74787 13.6064 18
536 1 13.5598 1.29246 4.34769 21
537 1 -1.11149 11.9186 11.3975 14
538 1 7.82802 13.4456 -13.2886 12
539 1 -12.4093 9.60778 -4.31675 16
540 1 8.02381 9.10083 2.03867 23
541 1 -6.81489 -15.3318 -1.66159 8
542 1 13.1721 -4.82085 6.00539 13
543 1 6.69094 16.6163 2.24161 15
544 1 -2.47978 5.52454 8.84674 18
545 1 -10.5396 -5.68293 1.07421 19
546 1 -10.6932 -0.305471 -9.42068 20
547 1 6.4643 2.41554 9.5191 18
548 1 -1.68673 -10.5765 12.5368 9
549 1 6.66977 5.73133 12.6534 21
550 1 -4.69926 13.5639 -1.03304 22
551 1 0.825006 0.668952 -16.6771 19
552 1 -9.99553 0.0979818 6.76399 16
553 1 9.44001 0.443636 -12.4631 16
554 1 11.7089 -8.04393 -10.0484 15
555 1 5.84561 5.53087 6.81568 23
556 1 -11.4455 2.69056 13.9689 10
557 1 9.64239 12.8742 6.25833 21
558 1 2.0131 -3.59631 12.6787 17
559 1 -1.25641 5.5799 11.9336 17
560 1 0.552719 -2.5411 -15.8128 22
561 1 -5.52997 0.793743 12.2866 20
562 1 4.36958 2.77635 12.3411 22
563 1 -8.4044 -15.517 7.41865 11
564 1 13.4377 6.52442 -2.72736 19
565 1 8.32819 -14.5392 -3.82362 21
566 1 4.66733 11.045 -0.689636 19
567 1 10.0664 17.6519 3.15191 6
568 1 4.46827 -0.632747 -16.4651 17
569 1 3.43264 15.3208 -3.87745 15
570 1 11.241 8.76969 2.21716 19
571 1 -4.86389 -8.44234 -3.76437 22
572 1 -1.67914 -0.817017 -18.55 13
573 1 -9.79723 12.9304 -0.908271 19
574 1 8.53581 -6.65132 -10.9673 22
575 1 11.9647 8.46571 -12.2057 13
576 1 13.8151 10.8342 -6.27488 16
577 1 10.9282 2.82979 15.8791 14
578 1 9.73107 -0.381088 17.2859 5
579 1 -1.43833 -11.5764 9.2401 11
580 1 -3.42026 9.0792 -11.388 21
581 1 1.75121 15.9767 11.0398 14
582 1 7.63237 -8.71189 -15.2427 12
583 1 9.73459 11.0124 -6.80375 21
584 1 8.10658 10.9092 4.87525 19
585 1 14.1832 -5.29971 -3.21707 15
586 1 6.64315 10.0374 16.4295 13
587 1 -14.3292 -0.254964 5.51945 19
588 1 1.74375 -14.8423 -2.38935 21
589 1 -9.3342 14.8598 1.3448 11
590 1 6.81184 11.9154 2.2131 19
591 1 -15.3214 -3.81148 0.537888 13
592 1 0.183951 6.02762 18.1743 8
593 1 -4.30982 8.02003 -17.2121 7
594 1 -4.95584 9.26576 -14.1751 12
595 1 4.11556 -16.2831 -0.518391 19
596 1 6.84162 6.39359 -9.26429 22
597 1 -14.9953 9.38941 9.72986 7
598 1 3.79014 -4.49664 -14.2813 15
599 1 3.31538 -10.611 6.99346 13
600 1 4.20041 14.363 2.69235 18
601 1 -0.401109 1.4633 15.0641 19
602 1 -8.6281 -5.94602 -11.5937 17
603 1 -6.43319 -6.75249 -14.3344 12
604 1 -5.26281 -12.8276 -8.74318 15
605 1 4.43813 20.1187 -5.48045 6
606 1 -5.89128 11.4318 8.37363 14
607 1 7.87728 -9.61474 -5.54375 19
608 1 10.4394 -15.7512 -3.12492 13
609 1 5.36345 -8.1795 5.88117 20
610 1 14.251 0.354926 -8.12247 15
611 1 0.0551049 -11.7734 -6.86267 20
612 1 -12.3117 -2.40632 6.89621 21
613 1 -3.02797 -15.0619 -2.52814 14
614 1 -6.83719 -11.0735 -4.6017 21
615 1 -13.0499 1.42182 9.49923 20
616 1 -5.63621 -14.9802 2.24188 16
617 1 12.8827 4.38064 -6.3126 17
618 1 -5.55059 15.0363 1.71357 12
619 1 -16.1491 8.51938 2.63061 10
620 1 9.86728 -3.29684 4.37665 21
621 1 -13.9798 -0.527491 -12.4374 9
622 1 8.0613 3.50324 -8.34589 20
623 1 7.39347 12.8509 9.94715 17
624 1 -15.7981 2.27433 -9.09534 10
625 1 -11.6535 -6.3661 -10.1956 9
626 1 1.05137 7.16078 12.61 18
627 1 4.47726 6.67139 -11.8549 19
628 1 14.3092 13.2976 3.10877 11
629 1 -3.73512 2.39413 9.97472 21
630 1 -0.69841 -16.7072 -3.98078 14
631 1 -5.75807 -13.5416 7.37513 18
632 1 15.0596 9.62311 7.31103 10
633 1 3.58914 -4.89857 -8.82065 23
634 1 6.68778 8.0561 4.02796 20
635 1 -9.50381 -6.61799 4.46619 22
636 1 9.13884 8.06823 -12.6146 18
637 1 -1.85997 -17.6529 -6.34137 8
638 1 1.6145 -17.9119 -1.75639 11
639 1 5.45885 -14.2658 -2.52221 19
640 1 6.42742 8.84754 -6.79913 23
641 1 11.7617 12.847 -4.41095 14
642 1 -1.8631 -3.18331 -14.661 18
643 1 -0.109776 -1.15885 13.0256 16
644 1 1.50259 6.58838 -17.1674 11
645 1 -10.0001 0.916058 -15.3723 15
646 1 -9.98257 -3.48958 -2.0232 18
647 1 3.06272 15.0077 -10.4811 15
648 1 3.37505 -3.47924 -17.0914 15
649 1 8.83166 9.13278 -5.13745 14
650 1 8.02757 -5.95858 4.06631 18
651 1 -8.31829 6.58657 10.2409 17
652 1 8.35141 -8.27121 1.6536 19
653 1 12.5437 -6.30921 2.8492 12
654 1 12.2599 -0.915449 11.6219 14
655 1 -0.170141 12.2037 7.08045 21
656 1 -13.58 5.03593 12.4006 10
657 1 -7.93846 5.64112 6.33834 20
658 1 0.173442 -10.4733 7.11343 17
659 1 8.45848 7.76655 11.1123 19
660 1 -13.7151 -3.40435 -2.52484 15
661 1 9.21764 -9.55233 -1.3933 22
662 1 -8.35171 10.7307 -6.1354 23
663 1 6.73629 -16.3233 1.11219 14
664 1 4.48943 0.123701 15.0057 14
665 1 2.29065 13.4961 5.09966 23
666 1 3.00283 -9.04743 4.0153 21
667 1 0.964873 3.32536 11.7883 19
668 1 -14.3682 -6.96705 -2.68893 12
669 1 1.74279 12.8416 12.7457 12
670 1 7.39267 13.6251 -0.221425 21
671 1 -11.3968 -12.1076 3.20168 15
672 1 -2.92344 -14.3957 5.07263 16
673 1 8.19584 -2.70545 6.73315 19
674 1 10.8271 -4.23258 7.31602 17
675 1 8.1534 8.13803 7.08833 21
676 1 0.867736 -7.09794 -9.47734 21
677 1 -0.143757 2.39366 -11.5484 22
678 1 -2.96971 -2.13953 12.302 20
679 1 -3.92768 12.3242 2.1121 19
680 1 13.1187 0.628776 1.07857 21
681 1 4.76785 11.5978 -5.81801 20
682 1 -2.35914 8.66126 11.9169 17
683 1 9.20503 10.6038 8.38784 20
684 1 7.42057 -1.27306 -10.5892 18
685 1 -5.09742 -11.5643 -1.58075 22
686 1 16.2048 2.31708 5.20767 9
687 1 1.24791 -0.272086 -11.2781 27
688 1 2.81036 9.42617 12.6258 21
689 1 10.4825 -11.0217 -10.6167 13
690 1 4.97786 5.50153 -15.7833 15
691 1 12.8463 5.03584 -12.2483 9
692 1 14.9986 -2.06741 0.363225 16
693 1 3.99731 -5.05463 13.6926 10
694 1 -2.83932 -7.40749 -9.95665 19
695 1 10.615 10.2755 -3.37137 21
696 1 -17.3615 6.1461 4.72871 8
697 1 11.4826 8.58217 -8.71485 18
698 1 13.1741 8.56672 -0.0943459 22
699 1 1.82196 -1.69956 -18.7869 12
700 1 -7.10583 13.493 6.28945 13
701 1 16.417 8.67384 5.16674 10
702 1 13.3558 13.1915 -7.99436 8
703 1 4.5076 0.263282 -11.6206 21
704 1 11.7882 -6.73207 -1.76371 18
705 1 -12.079 -0.477195 -1.42718 21
706 1 9.9725 8.04396 4.48462 22
707 1 -10.3289 -11.2765 0.526692 17
708 1 -11.7365 11.3832 -7.30284 9
709 1 4.44243 5.08831 9.60586 23
710 1 -12.6723 -0.822025 -6.69896 21
711 1 -11.4376 6.14933 6.80309 14
712 1 10.0743 -8.14176 -13.0314 14
713 1 -10.4897 -7.53688 -7.15686 16
714 1 15.2263 -9.07675 -2.2809 6
715 1 -15.9294 1.9796 0.603395 12
716 1 11.5638 9.55186 6.23626 19
717 1 -5.04047 -8.20147 7.26374 21
718 1 8.501 5.05573 15.2671 18
719 1 14.8985 0.401839 9.15426 10
720 1 -10.7273 5.99538 1.23328 17
721 1 -0.678152 13.8535 9.5838 21
722 1 5.02203 9.28595 -8.93365 21
723 1 0.149489 -6.01015 -15.4979 18
724 1 -4.39918 14.0135 4.50881 14
725 1 -9.89046 -12.0555 6.58141 16
726 1 8.53012 9.29193 -9.3698 20
727 1 1.21827 10.6583 10.4175 22
728 1 16.5745 -6.2428 -3.84632 10
729 1 7.45931 -3.73973 12.7722 12
730 1 -1.70255 14.4237 -11.6459 14
731 1 3.68984 12.7586 -8.24268 16
732 1 -5.30278 -0.695599 9.57802 21
733 1 15.849 -0.392663 2.45565 11
734 1 -3.70319 -2.52899 -12.1107 23
735 1 16.0481 11.9572 -0.0923942 7
736 1 -14.389 1.96442 -1.80816 14
737 1 -3.4042 -9.35183 10.1112 20
738 1 6.91799 16.7883 -12.8416 6
739 1 6.69196 -1.42155 9.76226 21
740 1 2.35266 -13.0764 -5.09137 22
741 1 -6.97255 15.747 -0.672507 14
742 1 -15.3505 5.01672 -0.910144 13
743 1 11.4603 -0.806244 -6.9298 20
744 1 3.15901 -13.8054 -10.5984 13
745 1 -7.31909 7.72946 4.16695 19
746 1 17.1055 7.98692 -7.75987 6
747 1 8.44129 -1.91006 -15.6186 9
748 1 -7.1065 -9.85794 -11.6118 14
749 1 -0.100396 -8.274 -7.16814 20
750 1 -4.21099 10.5588 12.1855 12
751 1 8.88869 -12.7212 -6.37044 19
752 1 -1.48556 11.7765 -12.6916 15
753 1 12.7354 0.780601 -4.68985 19
754 1 9.51432 6.04811 1.87019 22
755 1 7.8063 -15.6357 -7.58015 14
756 1 6.15838 -3.34625 -15.2893 17
757 1 12.2789 2.75495 -1.42213 19
758 1 0.267679 5.17192 -14.2532 19
759 1 -2.17609 -7.96331 6.6706 21
760 1 7.25035 11.6596 -4.57341 21
761 1 -12.119 2.89968 -3.70475 23
762 1 -15.4902 5.67143 10.0477 9
763 1 0.928955 8.54907 15.7653 10
764 1 -6.69921 -9.68439 9.9018 20
765 1 4.71637 11.8605 4.80015 20
766 1 -0.48191 -13.5873 0.0532494 16
767 1 2.27507 12.5725 -3.72291 19
768 1 -4.26526 8.16211 9.44688 21
769 1 -8.25962 -0.761776 11.4899 22
770 1 -10.4802 12.3257 7.34596 14
771 1 -6.3913 -6.63982 13.3 13
772 1 6.54986 -11.713 5.30356 14
773 1 10.0163 3.01212 9.79014 15
774 1 7.37494 -6.67419 -6.05728 23
775 1 5.74247 -12.478 -11.8522 17
776 1 -5.0643 2.0627 -14.1667 16
777 1 -1.43863 2.6571 -14.65 22
778 1 8.04788 14.8346 7.89753 16
779 1 -11.0758 -3.109 12.3807 14
780 1 -3.65371 6.4109 -9.19829 22
781 1 -14.1727 4.90945 -3.61651 17
782 1 9.84282 11.6653 1.0228 21
783 1 -9.05566 -16.0822 4.52676 11
784 1 14.9837 11.5763 4.96314 11
785 1 -9.84394 -10.2951 -5.83758 14
786 1 4.43166 17.3562 7.37418 13
787 1 -6.80896 1.12745 15.3315 12
788 1 -2.3837 -16.0598 -9.04507 12
789 1 14.0437 3.47269 7.38072 18
790 1 5.52669 -18.7268 -1.27665 7
791 1 4.74194 12.1291 14.7196 12
792 1 13.5695 -2.93299 -10.9239 13
793 1 6.4118 -8.63021 -0.590853 21
794 1 3.00107 2.87718 -11.4472 19
795 1 -11.0618 2.65603 -12.072 19
796 1 -6.8866 6.68785 -14.7589 10
797 1 -4.32898 6.18434 11.8414 15
798 1 7.68308 -0.997996 13.2926 19
799 1 -8.53389 -8.69005 2.11339 21
800 1 11.2459 -2.31023 1.12173 19
801 1 -0.218914 6.93026 -8.80954 21
802 1 12.9474 5.66267 1.10428 21
803 1 1.62644 18.7258 6.87653 9
804 1 -12.7952 -6.52501 3.43228 17
805 1 10.79 -13.5624 -8.39823 13
806 2 -10.4686 0.343119 -7.56546 21
807 2 -5.71053 11.0805 -3.81455 20
808 2 -0.632317 -0.803502 -12.0642 21
809 2 -2.3911 6.87687 10.5564 15
810 2 3.66824 -9.3032 -9.83571 22
811 2 -6.87375 -5.25077 -6.72642 18
812 2 2.56481 2.52399 11.4595 22
813 2 4.04376 1.61623 13.8397 17
814 2 -12.2958 -10.4832 0.747532 14
815 2 -14.745 5.05447 -5.576 13
816 2 0.561452 14.8705 5.13575 19
817 2 -12.2814 -0.871997 1.09603 20
818 2 5.29219 18.8465 -9.46007 9
819 2 9.34623 6.13402 4.25224 21
820 2 0.395396 14.9622 -7.38675 17
821 2 11.5421 12.7007 -8.78356 13
822 2 -12.9619 -0.387086 -13.9118 11
823 2 -10.7254 -6.34363 -11.7113 10
824 2 4.8198 4.86124 11.7537 21
825 2 7.57493 -0.17275 -9.07208 18
826 2 3.27023 -15.4024 0.926894 18
827 2 -8.71655 10.5051 -3.82067 21
828 2 -15.3348 2.30188 -7.11347 13
829 2 14.8516 5.47866 1.67537 16
830 2 10.6138 -9.71131 -9.1281 19
831 2 -9.56103 -11.6385 -1.37698 17
832 2 -11.7055 -6.68565 -0.243581 21
833 2 -1.45502 -11.8867 0.584473 21
834 2 9.95009 -5.22803 8.83454 15
835 2 -3.25368 -16.8479 -7.32955 10
836 2 2.7439 -0.866328 14.7611 16
837 2 1.84397 11.7919 -8.2956 19
838 2 5.83901 -17.0822 -0.329986 14
839 2 -8.78734 -11.2031 -4.45381 16
840 2 -0.120267 5.71502 13.6157 16
841 2 -12.551 9.3755 3.53325 20
842 2 0.857001 2.86565 14.4831 19
843 2 -7.21361 8.00059 -3.93536 22
844 2 9.43947 -9.94311 0.892124 19
845 2 -0.308824 12.1981 -5.29907 19
846 2 13.1382 12.293 4.61719 17
847 2 8.14194 16.9265 3.56148 15
848 2 10.3938 0.543199 -6.3496 18
849 2 -6.50575 5.95417 11.2138 17
850 2 5.28628 3.55199 -15.1265 19
851 2 -4.96052 8.38124 -12.4004 15
852 2 12.5812 7.03192 -4.4319 20
853 2 -5.98831 -3.51463 13.3921 15
854 2 -15.468 9.89355 3.33445 11
855 2 13.231 1.79223 -9.15434 17
856 2 -10.2942 -8.07063 12.8036 10
857 2 3.70893 -8.79046 -13.0774 16
858 2 2.07212 -3.7072 -18.5032 11
859 2 -13.2462 -7.74067 2.04923 17
860 2 8.69454 12.1791 -0.490005 17
861 2 -5.92075 9.05681 4.13939 18
862 2 -3.29649 -8.94984 -8.96449 14
863 2 -4.07164 15.7321 8.52268 14
864 2 6.45839 0.0999061 14.4787 14
865 2 4.58072 -8.12347 10.2314 12
866 2 14.696 5.29934 6.60488 16
867 2 7.30739 16.3816 -10.9305 9
868 2 -14.4136 2.87051 -3.66713 16
869 2 15.9948 7.80196 6.79755 11
870 2 8.82798 -10.2916 -3.49048 19
871 2 9.322 -10.8471 -6.35914 20
872 2 -6.1105 11.2253 12.2862 10
873 2 6.61212 -8.87118 1.3075 21
874 2 11.7397 -5.72915 6.22361 12