ITEM: TIMESTEP
163000
ITEM: NUMBER OF ATOMS
5760
ITEM: BOX BOUNDS pp pp pp
0.104176434 32.695823566
-0.0795534364 34.2195534364
-0.1131504276 63.7131504276
ITEM: ATOMS id type x y z Coordination
1 1 20.8194 14.8917 3.20915 23
2 1 7.97457 9.99733 49.7018 22
3 1 18.281 4.17484 57.6609 25
4 1 14.2362 0.757085 20.2083 19
5 1 1.04778 4.42742 22.0631 20
6 1 3.76199 28.2975 13.2415 25
7 1 6.3542 3.61895 30.8964 22
8 1 4.47282 11.3684 14.3671 19
9 1 18.3318 2.05357 17.6507 18
10 1 31.2088 6.39373 19.711 21
11 1 19.5799 0.693799 22.4736 20
12 1 23.2861 2.34889 59.9084 20
13 1 16.3542 18.2177 60.5878 20
14 1 10.8408 9.93879 59.8558 24
15 1 5.10266 8.79027 23.4979 18
16 1 2.85814 3.39917 14.213 22
17 1 3.30442 13.0825 10.3669 18
18 1 7.85169 20.4317 8.73888 21
19 1 7.27851 10.1475 60.5467 20
20 1 20.2508 31.9487 58.803 20
21 1 15.3027 31.1823 26.2513 24
22 1 1.10322 2.31156 11.8238 21
23 1 26.8283 33.4383 15.81 25
24 1 32.4777 9.43001 2.48164 21
25 1 7.89711 10.433 52.9637 20
26 1 11.9696 29.4133 59.6365 25
27 1 25.6377 19.5209 20.0898 23
28 1 0.473344 23.2483 60.5664 21
29 1 31.6467 21.8115 33.0885 21
30 1 10.7294 28.7298 1.3933 23
31 1 26.5188 8.16105 8.51148 22
32 1 17.4874 14.7137 16.9007 22
33 1 26.294 27.9307 9.55634 23
34 1 5.94354 22.2749 62.3653 25
35 1 31.7732 13.5098 8.46316 22
36 1 12.5888 23.8767 16.0783 20
37 1 5.6362 6.70409 60.4101 21
38 1 23.4339 32.1128 7.9008 20
39 1 14.9034 23.4508 10.7363 21
40 1 17.77 31.3813 5.25726 23
41 1 7.03566 5.18392 20.327 17
42 1 12.0498 13.5966 25.6722 18
43 1 0.33755 7.8419 12.9447 22
44 1 12.4077 1.52532 61.5029 22
45 1 9.59527 26.6094 8.96563 22
46 1 12.5696 33.2066 8.32639 24
47 1 1.41451 17.1843 17.3249 21
48 1 29.7126 18.5107 11.6136 20
49 1 5.50052 25.7285 63.7156 21
50 1 5.66492 17.6887 9.94305 21
51 1 25.8566 1.53142 33.2593 22
52 1 6.13624 12.8756 61.6901 19
53 1 4.73603 7.8051 5.6246 22
54 1 0.471261 20.255 7.71551 21
55 1 26.2261 12.5112 4.22724 20
56 1 21.8903 13.6447 5.53005 21
57 1 22.9393 30.2173 14.0121 23
58 1 31.4635 15.722 17.4165 20
59 1 20.4488 8.1282 19.6485 22
60 1 1.71844 21.887 27.9217 22
61 1 2.90291 16.5782 60.2304 23
62 1 0.456241 11.7557 5.1219 24
63 1 9.57098 22.37 5.11493 18
64 1 11.0515 30.8673 10.5107 22
65 1 30.1145 5.0935 13.9642 20
66 1 18.0534 8.55995 22.027 19
67 1 20.8169 13.7851 11.1372 19
68 1 17.4765 20.2437 8.05339 22
69 1 11.8687 10.9023 12.1716 21
70 1 1.35504 9.39105 23.9588 22
71 1 12.7733 32.0134 17.8273 19
72 1 11.7354 2.17025 0.643833 20
73 1 19.377 25.0432 58.9787 22
74 1 24.5608 28.2591 2.89587 15
75 1 11.2077 9.93547 8.82221 25
76 1 8.10042 9.0795 1.99619 23
77 1 27.8581 2.9872 38.0306 21
78 1 14.8724 10.0168 7.53215 20
79 1 10.1626 4.21168 6.44407 23
80 1 9.98007 7.26503 59.3483 21
81 1 4.67994 26.65 25.8094 19
82 1 1.4457 9.46671 59.6451 22
83 1 9.23703 28.3129 36.1498 20
84 1 0.542358 12.4986 34.7593 23
85 1 11.4834 15.3952 23.1327 17
86 1 8.40941 12.1824 0.373285 24
87 1 13.8309 3.82254 15.6502 21
88 1 23.816 8.0585 62.5341 21
89 1 19.6247 15.2014 14.1476 23
90 1 12.7519 8.1867 3.83626 22
91 1 1.59476 24.4116 8.39929 21
92 1 21.1824 16.6846 6.60837 23
93 1 30.7222 6.92457 0.883995 23
94 1 12.1709 25.234 2.86519 21
95 1 1.06623 9.9101 17.8381 21
96 1 29.0704 17.8186 19.722 26
97 1 26.2588 20.8788 59.8735 22
98 1 31.5685 22.3131 9.34043 23
99 1 12.2564 5.17796 1.75123 23
100 1 6.53138 16.4681 19.7207 22
101 1 10.5814 11.3523 23.9291 21
102 1 6.12374 29.9777 12.2799 20
103 1 10.6356 31.2838 57.6094 23
104 1 24.8676 18.1138 4.69916 21
105 1 3.96861 26.0067 8.06178 21
106 1 10.5308 0.772447 7.72744 22
107 1 29.963 29.9782 18.8944 20
108 1 15.0656 29.0479 14.9789 21
109 1 23.7303 4.44233 4.33367 18
110 1 11.3728 29.6069 18.2848 22
111 1 18.6929 15.8235 59.6527 18
112 1 4.38682 9.34033 17.5682 22
113 1 6.67365 11.2828 15.7366 17
114 1 3.95436 33.2102 23.4001 21
115 1 17.9486 24.8816 17.5726 22
116 1 18.909 17.5912 14.8476 19
117 1 18.2616 7.24639 62.231 20
118 1 20.8076 31.2416 24.1096 20
119 1 7.90598 5.55337 24.8057 20
120 1 19.4642 14.1824 23.7457 22
121 1 6.02818 21.7874 56.3395 24
122 1 12.7075 22.0812 60.7978 22
123 1 10.0145 32.2555 7.83441 21
124 1 11.2729 17.1124 12.0354 22
125 1 6.96257 -0.0135592 8.36838 19
126 1 11.6882 4.33405 59.9848 21
127 1 27.0687 29.7288 12.1363 24
128 1 21.1076 22.3231 9.05469 20
129 1 3.11233 31.3379 62.7837 22
130 1 4.46446 23.2326 9.94451 20
131 1 13.0428 34.278 2.22432 20
132 1 32.2965 17.6629 30.6201 21
133 1 27.0679 13.7217 15.2234 24
134 1 11.7655 11.5475 62.2874 21
135 1 4.09361 23.3517 18.2701 18
136 1 9.55095 13.1447 60.6513 22
137 1 12.7935 21.7484 11.9603 22
138 1 15.4018 22.6653 3.28494 21
139 1 11.6121 28.1159 11.146 18
140 1 23.4093 1.79554 1.06531 19
141 1 26.3545 30.0678 60.784 22
142 1 24.0211 17.6556 17.2596 20
143 1 14.0064 32.8774 31.7231 21
144 1 12.2677 29.2117 25.6772 24
145 1 15.06 30.8227 0.911491 23
146 1 20.4678 25.3969 9.57756 21
147 1 27.8347 32.229 0.0913359 18
148 1 13.1654 2.29908 6.11058 24
149 1 11.8752 33.2018 4.67546 24
150 1 28.4378 2.79843 14.2311 23
151 1 16.3068 17.9519 3.256 23
152 1 24.5155 17.008 62.6391 20
153 1 30.8076 3.30402 21.1255 23
154 1 8.71158 32.0084 31.6682 17
155 1 25.4294 3.03716 55.9908 20
156 1 18.7101 13.6409 62.5292 21
157 1 26.3128 15.5241 12.6672 23
158 1 14.3692 16.9485 11.7384 23
159 1 19.8805 29.841 3.52332 21
160 1 19.1754 31.4251 11.2136 23
161 1 19.9787 1.54822 14.0876 19
162 1 8.80123 15.1516 0.355582 20
163 1 22.8539 11.0513 63.5387 21
164 1 10.432 5.80824 18.8703 20
165 1 7.65767 14.1177 2.72652 24
166 1 19.2235 3.03261 5.82925 22
167 1 1.57055 12.1461 19.4684 19
168 1 19.9599 8.96078 14.3958 20
169 1 20.5919 15.711 0.319323 20
170 1 4.49137 15.357 56.9811 24
171 1 28.648 30.265 59.7159 21
172 1 2.15752 14.9059 63.0777 22
173 1 13.2528 29.8796 12.6598 20
174 1 27.7939 13.5296 2.18711 21
175 1 11.7949 5.20084 4.36018 26
176 1 22.1165 11.5297 29.0774 21
177 1 4.69079 14.3079 7.37393 21
178 1 6.45424 21.6638 21.2669 22
179 1 26.2428 19.9159 56.201 20
180 1 25.0015 27.7557 14.2799 22
181 2 10.3151 22.3549 15.9664 21
182 2 1.22597 16.6242 59.2706 20
183 2 7.70908 29.1124 61.7718 21
184 2 25.1247 1.63424 24.3222 22
185 2 14.4894 21.2755 24.4612 22
186 2 28.0135 7.31614 20.7098 24
187 2 30.6688 12.952 4.80544 22
188 2 15.8317 0.0732629 41.0445 21
189 2 17.3221 6.76884 60.3958 20
190 2 9.95738 5.94043 9.97749 25
191 2 2.23557 22.1311 25.6637 21
192 2 12.2311 20.677 17.29 19
193 2 26.4607 33.2768 17.9131 22
194 2 27.2289 23.3713 35.6252 22
195 2 3.34358 21.3336 17.9382 20
196 2 28.6427 15.7796 35.4475 23
197 2 1.97769 27.6276 19.5558 18
198 2 14.0016 30.348 2.2728 19
199 2 1.62063 18.9855 11.0169 19
200 2 26.1966 2.77253 11.6242 21
201 2 27.7674 12.1731 31.2971 19
202 2 2.98172 13.4223 23.2913 19
203 2 9.39913 10.271 4.04414 21
204 2 27.7726 10.2201 62.4826 19
205 2 8.84447 0.880457 4.83943 20
206 2 16.0071 11.4213 14.1767 15
207 2 3.42354 15.4081 3.56525 19
208 2 20.4711 18.6155 5.47746 19
209 2 31.6875 15.069 10.6781 18
210 2 7.15421 26.5469 6.01383 24
211 2 32.4389 23.184 62.394 20
212 2 22.714 29.3472 23.8602 22
213 2 12.3305 -0.0343562 31.6167 24
214 2 20.026 9.48163 7.73055 23
215 2 9.47261 15.2011 60.2269 25
216 2 21.2299 33.4225 16.4393 22
217 2 18.6388 30.4996 16.9232 22
218 2 24.6602 9.99211 3.36294 20
219 2 5.04143 9.63906 19.7094 18
220 2 26.4627 27.1463 2.96445 18
221 2 13.4074 16.5019 63.3552 19
222 2 21.1887 8.03232 53.9773 20
223 2 21.1402 1.32043 23.3943 20
224 2 10.0869 26.403 11.2896 24
225 2 4.11996 19.1792 10.8714 20
226 2 9.26984 22.308 28.2716 19
227 2 30.4462 20.0886 12.2118 20
228 2 21.3476 26.2475 14.199 22
229 2 5.76401 19.959 24.5359 23
230 2 30.7664 20.1797 1.5615 20
231 2 22.4829 31.4106 1.31042 21
232 2 10.423 24.0336 62.1323 22
233 2 13.8114 14.8349 25.8003 20
234 2 10.8412 22.3381 6.44658 20
235 2 0.793234 13.9538 63.5572 21
236 2 16.7468 25.3037 19.0473 21
237 2 19.6042 13.2903 2.73594 23
238 2 17.7138 6.67361 22.8712 21
239 2 8.42796 17.5534 5.59274 21
240 2 14.5566 19.4957 16.0717 22
241 2 15.1179 23.1957 6.06446 22
242 2 31.8489 28.4375 8.55948 23
243 2 14.0421 10.4074 11.9469 21
244 2 23.6071 15.6227 63.4697 23
245 2 16.8584 31.9837 61.1298 17
246 2 24.9838 21.3666 15.578 20
247 2 31.4718 2.72143 5.76019 22
248 2 17.5008 7.55227 7.79916 22
249 2 25.1189 15.0635 58.2597 22
250 2 2.78222 19.2543 8.14338 20
251 2 6.57784 18.1759 21.7451 21
252 2 7.12532 23.793 8.31502 22
253 2 1.43949 32.0201 19.329 21
254 2 5.62593 23.906 0.660644 22
255 2 18.9362 8.38087 16.1361 23
256 2 23.4342 5.26309 2.60417 18
257 2 11.7382 4.32483 9.88086 25
258 2 18.396 13.7914 18.1804 22
259 2 26.8464 32.4902 14.097 20
260 2 19.006 2.53045 56.7568 20
261 2 29.9428 7.78894 6.2153 21
262 2 9.80482 -0.0481626 20.2856 22
263 2 12.9849 29.0428 14.3572 21
264 2 32.4882 33.5012 27.1946 18
265 2 30.2038 33.849 7.40497 22
266 2 13.3501 20.2846 8.21226 17
267 2 13.6007 3.11032 52.5544 22
268 2 21.6169 29.7281 62.4449 20
269 2 20.2122 11.3782 33.9116 26
270 2 9.78821 24.8398 13.5755 23
271 2 12.2546 2.49223 19.0798 20
272 2 31.7093 6.43428 13.5353 20
273 2 4.05895 15.6238 17.9661 17
274 2 5.48081 7.53514 13.1448 21
275 2 31.0149 12.4978 31.2671 23
276 2 22.4465 4.06004 59.747 20
277 2 5.0493 4.89431 10.2625 23
278 2 6.21538 30.0461 9.21598 20
279 2 4.02356 10.0994 57.6584 21
280 2 11.0246 33.3249 6.69345 21
281 2 21.79 16.28 2.06132 22
282 2 12.4389 24.4971 57.9645 23
283 2 30.7258 23.649 0.952644 21
284 2 12.7015 5.96603 60.5381 23
285 2 30.1134 0.896852 1.02998 21
286 2 9.30714 7.75415 17.7969 21
287 2 23.6353 11.2351 1.53274 23
288 2 14.4576 3.93897 26.6865 22
289 2 3.76683 6.23489 60.6159 22
290 2 8.30233 9.54405 20.0409 20
291 2 32.515 18.955 58.1468 21
292 2 3.98477 0.895611 57.1351 21
293 2 17.3719 3.10685 51.3339 23
294 2 13.2773 34.0014 36.0433 22
295 2 27.145 31.5145 7.88065 18
296 2 1.74413 20.7223 29.588 22
297 2 7.87681 6.49801 32.6095 21
298 2 4.14464 1.84885 18.6295 21
299 2 29.2845 17.2713 3.90894 19
300 2 12.2595 30.2244 39.1098 20
301 2 8.68816 16.4477 50.8608 23
302 2 4.86074 8.32529 3.82448 21
303 2 11.8129 33.0069 2.63687 22
304 2 11.2287 11.0692 21.6528 20
305 2 0.43009 8.02415 28.2545 18
306 2 6.51702 26.4194 3.04139 22
307 2 18.196 33.1973 15.167 22
308 2 24.8819 21.0191 5.39397 23
309 2 7.03854 10.9124 9.86271 19
310 2 16.9021 13.9412 2.96726 19
311 2 13.8884 5.72978 9.06517 21
312 2 18.7021 11.4404 7.94339 16
313 2 2.87245 25.2769 21.5634 20
314 2 7.22922 17.5227 60.6394 22
315 2 16.7028 19.5629 59.2956 18
316 2 23.9646 19.5916 60.4716 20
317 2 9.85565 18.4618 11.5106 21
318 2 17.2116 6.9593 18.0698 21
319 2 9.19138 9.26574 0.673874 24
320 2 20.6741 5.8126 21.789 24
321 2 28.6797 30.8776 17.9859 24
322 2 22.5216 20.0006 13.9932 20
323 2 22.4408 14.7505 11.4526 19
324 2 11.2134 31.5803 18.8164 23
325 2 14.1199 8.37332 6.81867 23
326 2 27.3938 29.6427 15.7854 21
327 2 6.04671 22.7495 25.8276 16
328 2 31.174 25.4012 12.971 22
329 2 8.98896 16.0516 10.2267 20
330 2 15.5522 7.5671 15.8439 19
331 2 24.766 14.0483 2.1956 21
332 2 19.5749 26.101 2.66762 27
333 2 3.72484 30.1738 12.1438 22
334 2 11.4429 14.9407 11.0315 21
335 2 17.0533 27.6364 7.90392 22
336 2 17.4865 25.4487 1.32922 23
337 2 18.3989 0.363738 62.0617 22
338 2 4.6654 18.7686 1.42606 16
339 2 28.3725 17.1634 12.3547 17
340 2 24.7178 4.85508 12.0059 21
341 2 20.5223 10.7913 0.088359 20
342 2 6.57101 31.0487 16.3042 22
343 2 10.7569 27.7179 7.21001 17
344 2 14.0998 11.2001 21.2227 19
345 2 23.7026 10.1759 19.0509 24
346 2 6.79575 2.18801 12.2794 23
347 2 12.2185 11.86 52.88 18
348 2 0.376713 18.2035 3.27908 19
349 2 25.8213 0.821549 7.43312 23
350 2 27.6828 14.3224 11.9083 20
351 2 7.57541 25.9149 12.5691 21
352 2 21.9722 21.0186 63.2395 21
353 2 2.42724 1.63845 9.68181 21
354 2 14.3035 10.6616 51.8635 21
355 2 0.904584 27.0652 61.6464 21
356 2 26.395 24.362 9.22862 20
357 2 26.215 13.7045 35.9838 19
358 2 13.6672 12.6006 26.1725 18
359 2 2.00491 1.61344 6.25855 19
360 2 26.2549 17.3276 23.2962 22
361 1 30.2807 32.7316 62.1224 23
362 1 32.1813 15.704 0.681889 22
363 1 18.2871 6.13607 4.39684 21
364 1 7.25356 7.65557 17.9433 22
365 1 2.78608 16.4587 29.591 22
366 1 18.2861 10.5449 34.5994 22
367 1 7.1178 26.3336 24.3199 22
368 1 25.6514 1.47659 42.3356 23
369 1 16.2936 21.5506 46.1613 20
370 1 1.81547 19.2308 37.6177 22
371 1 19.886 22.2176 22.4302 25
372 1 24.0382 8.38227 37.7084 23
373 1 13.9842 31.017 57.7815 20
374 1 15.6413 21.86 26.4602 24
375 1 31.5737 6.72694 26.7805 19
376 1 13.7743 12.4474 14.4259 22
377 1 31.5887 13.2333 14.0622 18
378 1 0.396357 0.235326 9.98972 20
379 1 4.97279 11.3725 19.8503 19
380 1 19.574 21.7788 38.9495 20
381 1 5.74736 25.1005 13.0117 22
382 1 7.69312 19.7152 30.6512 21
383 1 26.8299 16.4256 36.076 19
384 1 1.10711 2.4451 37.8983 21
385 1 4.77508 14.4431 31.1412 18
386 1 9.14181 26.6985 6.00206 20
387 1 16.4161 3.33862 25.4939 21
388 1 4.56423 24.3029 20.8645 21
389 1 25.0542 20.662 17.3367 21
390 1 21.903 11.3511 15.3753 21
391 1 31.6399 24.9316 20.5608 22
392 1 11.8077 31.5502 20.7949 20
393 1 0.69753 26.1893 3.96233 23
394 1 31.8645 6.56658 35.1419 19
395 1 9.68263 17.1596 24.3461 21
396 1 32.247 22.8023 22.4501 19
397 1 32.7978 27.8144 20.0114 20
398 1 22.6273 1.86778 20.7647 23
399 1 10.0818 8.01941 27.736 22
400 1 18.6339 30.7554 25.7087 24
401 1 7.69549 0.313856 31.1278 20
402 1 4.9987 1.42022 30.7392 20
403 1 23.0796 29.5324 26.0126 23
404 1 7.38041 13.3591 18.9571 18
405 1 14.7809 5.65599 24.7407 22
406 1 6.24626 18.9761 20.0664 19
407 1 10.9957 2.26511 43.9242 20
408 1 4.02726 10.0504 39.7935 20
409 1 16.7393 2.75832 15.734 19
410 1 16.1915 12.234 36.0118 22
411 1 16.1809 16.7788 30.5031 23
412 1 31.305 21.4769 13.04 22
413 1 21.4091 30.456 27.5277 22
414 1 31.9512 12.5178 23.8449 19
415 1 19.3292 18.5223 29.4663 23
416 1 14.6248 2.64596 22.9423 25
417 1 8.25388 32.5707 20.6865 22
418 1 10.7737 15.2527 6.38564 20
419 1 27.429 0.0954293 19.2117 21
420 1 24.7697 11.6799 16.7653 22
421 1 10.1754 7.96136 24.756 21
422 1 23.6002 30.0737 9.51594 21
423 1 32.5593 27.3004 6.63833 21
424 1 8.83576 17.0864 7.59589 21
425 1 25.8261 23.8598 27.7683 22
426 1 32.1752 31.9966 38.3318 24
427 1 19.6071 12.8392 29.6794 21
428 1 8.14936 2.31169 33.2942 20
429 1 11.1982 1.36049 19.9267 17
430 1 7.77562 30.5174 28.6152 24
431 1 4.66531 28.3826 31.5183 22
432 1 2.35751 24.5296 26.977 22
433 1 11.8565 21.6565 7.87894 19
434 1 26.6634 25.8222 27.1701 22
435 1 23.879 32.3289 11.0526 24
436 1 26.0934 3.23009 1.52719 20
437 1 32.5531 21.4772 25.4927 20
438 1 30.1704 13.186 16.719 22
439 1 19.5363 33.8714 24.8051 22
440 1 23.7608 24.8835 25.5143 21
441 1 22.8956 30.2206 22.2941 19
442 1 19.7152 11.0433 37.3265 19
443 1 29.2179 19.7846 32.3157 20
444 1 4.07812 0.675177 26.6429 20
445 1 14.6459 30.5525 61.0334 22
446 1 17.8826 1.15556 -0.0262149 23
447 1 30.7869 19.9314 18.2438 21
448 1 26.9259 1.34109 25.7192 21
449 1 4.00826 14.5945 1.59244 22
450 1 9.68556 4.45297 21.7612 21
451 1 8.47795 25.8689 36.0696 23
452 1 11.1072 4.09839 11.6589 22
453 1 10.1904 2.44236 10.252 23
454 1 12.097 2.75817 8.79374 26
455 1 19.9652 32.2833 21.6476 23
456 1 4.46716 17.535 17.1574 19
457 1 20.3208 17.688 17.0057 22
458 1 0.592973 11.3651 31.9888 22
459 1 28.03 13.6719 31.8982 19
460 1 5.15227 29.3227 24.8195 21
461 1 14.3925 23.4473 28.4806 23
462 1 9.58128 20.3409 6.63847 21
463 1 18.4227 29.1204 8.10752 25
464 1 23.8035 1.80822 15.451 22
465 1 18.1519 23.0741 15.1047 23
466 1 11.4685 9.18864 38.3897 20
467 1 30.5366 12.1585 33.1543 20
468 1 20.9471 33.7724 31.98 24
469 1 13.6638 2.40236 12.0235 26
470 1 6.60295 26.8504 29.4209 21
471 1 19.7771 6.28476 23.3424 21
472 1 17.5412 24.2642 21.3459 22
473 1 7.23765 6.74569 30.9734 23
474 1 28.2132 5.5346 20.2962 22
475 1 2.73872 14.7946 33.3051 18
476 1 13.9574 6.9011 19.8871 23
477 1 9.21012 14.6791 11.5704 21
478 1 11.7992 25.0739 33.1472 23
479 1 2.2994 16.7763 27.3136 22
480 1 9.09654 10.8187 32.6004 22
481 1 5.53676 8.20367 15.0726 19
482 1 11.6273 6.04304 8.91143 23
483 1 13.7747 5.23735 10.7667 22
484 1 2.19319 14.4256 24.5237 20
485 1 13.2037 13.9858 34.6867 23
486 1 13.3307 24.0001 25.4602 20
487 1 3.77893 11.9609 32.9941 23
488 1 15.7559 22.3778 16.8695 23
489 1 17.8934 8.62213 25.0732 19
490 1 16.3548 8.91546 33.1147 21
491 1 11.3958 7.17712 62.5688 19
492 1 24.9439 27.8498 25.9964 18
493 1 9.14602 5.72035 12.3018 23
494 1 5.1212 9.97441 3.4909 21
495 1 9.07708 14.0933 30.3957 22
496 1 13.7646 10.9782 25.1773 22
497 1 12.6786 20.6152 15.4657 22
498 1 5.60844 29.4672 27.8656 22
499 1 1.69261 31.1547 14.3011 20
500 1 23.9492 26.8642 39.4117 20
501 1 22.3419 5.286 24.7557 22
502 1 26.5883 11.0184 32.0999 24
503 1 11.2359 22.5076 22.8911 23
504 1 2.68796 27.4366 36.922 21
505 1 4.17198 14.381 27.559 23
506 1 14.7957 27.4059 12.7179 23
507 1 7.06243 33.8312 1.25121 23
508 1 25.6185 32.6698 4.97314 18
509 1 29.8019 -0.0174858 13.8141 23
510 1 13.2835 5.66206 22.3239 19
511 1 18.4811 20.052 31.0757 20
512 1 10.7248 9.42081 35.0087 23
513 1 8.45613 10.1573 8.78985 21
514 1 4.0098 22.6069 53.7993 21
515 1 16.1042 5.98673 22.0965 19
516 1 7.07693 11.9298 34.6941 26
517 1 9.12699 18.839 54.7332 21
518 1 3.61579 12.5578 63.4111 22
519 1 27.807 16.6821 16.3299 20
520 1 19.8785 27.0191 20.5532 20
521 1 22.4686 16.1843 12.7667 20
522 1 1.29504 18.935 4.94868 20
523 1 17.0906 17.8194 23.0038 18
524 1 20.625 8.26242 25.1083 22
525 1 16.3863 31.4638 31.6311 23
526 1 3.76771 14.5685 19.5192 22
527 1 21.3361 19.9373 25.1031 25
528 1 1.66987 14.0621 41.8627 19
529 1 31.3636 24.8022 2.34259 22
530 1 10.9957 13.3676 9.91029 20
531 1 7.25042 15.1605 9.07648 20
532 1 10.3179 10.2823 1.98655 21
533 1 22.2548 11.6331 24.41 23
534 1 14.8138 14.3585 16.9085 20
535 1 12.4253 8.35247 25.5794 22
536 1 8.72407 4.86631 35.3828 19
537 1 4.79244 11.6524 29.5792 24
538 1 6.88482 33.8706 14.708 21
539 1 5.52689 27.5125 34.6346 23
540 1 14.9015 19.6541 39.0255 21
541 2 3.24406 10.3014 24.6637 22
542 2 32.1418 3.33372 22.5944 22
543 2 28.7921 5.49713 18.5838 20
544 2 23.8761 32.6892 38.211 20
545 2 11.0542 30.5344 24.9885 19
546 2 22.4333 30.5662 8.31809 21
547 2 14.7432 20.3179 12.9812 23
548 2 4.04045 30.544 18.0548 23
549 2 5.57641 30.8191 29.1832 21
550 2 20.0844 16.013 16.0321 19
551 2 24.348 26.7374 60.4435 24
552 2 3.46188 24.6694 15.8145 22
553 2 1.94259 6.84647 62.8872 20
554 2 11.9187 28.3961 57.9506 21
555 2 10.4585 27.9053 14.1637 23
556 2 27.2726 16.0858 26.2172 22
557 2 8.4349 26.7257 14.8031 23
558 2 18.1164 4.00047 25.9979 24
559 2 26.7204 2.1153 46.6691 21
560 2 11.2383 19.5013 5.47659 20
561 2 19.8692 4.57063 23.9676 24
562 2 8.67717 21.3727 25.5549 21
563 2 30.3366 21.0803 39.8516 21
564 2 31.7034 3.00697 44.0259 23
565 2 29.6523 11.3061 12.1127 18
566 2 13.1941 20.4258 41.8366 21
567 2 18.2398 31.6062 3.43278 18
568 2 6.47967 1.58958 32.4982 20
569 2 4.90857 5.47901 33.021 20
570 2 0.938667 30.0529 16.2324 20
571 2 4.1983 21.9077 31.8737 22
572 2 18.6458 8.38643 19.8927 22
573 2 6.43517 6.63857 19.0948 20
574 2 20.5463 8.99176 30.9447 20
575 2 31.0995 15.915 6.11985 21
576 2 28.93 1.20281 18.988 21
577 2 11.2954 23.55 3.55433 21
578 2 17.9362 7.56186 38.5503 22
579 2 20.4193 13.9866 31.0108 24
580 2 2.04305 13.9015 20.4852 20
581 2 17.6408 33.3437 32.1671 24
582 2 7.23673 1.74926 29.9231 20
583 2 22.1212 5.45733 26.4936 20
584 2 7.98749 19.7162 13.5736 19
585 2 16.1917 24.523 37.0316 22
586 2 14.7554 33.7905 30.1225 24
587 2 5.12622 21.8856 15.9796 20
588 2 9.17048 7.70442 35.9485 19
589 2 26.7966 8.00853 23.8526 22
590 2 15.2445 11.8979 23.7199 16
591 2 27.0384 24.3415 33.0623 19
592 2 31.9551 1.86587 2.77028 21
593 2 21.6671 6.69172 31.4897 18
594 2 14.3602 2.14468 30.7849 21
595 2 23.1648 19.4256 24.0122 25
596 2 0.368209 25.6357 10.0263 23
597 2 22.4339 5.42309 34.3 22
598 2 6.99952 12.979 16.8713 20
599 2 16.1193 13.4679 15.9834 21
600 2 31.0715 16.6787 15.4419 20
601 2 7.89778 22.7354 11.583 24
602 2 7.74504 18.3824 8.87834 21
603 2 26.219 9.16122 34.301 22
604 2 13.4303 10.5127 33.747 21
605 2 9.20246 12.1296 33.9656 19
606 2 10.7248 3.37528 40.0389 21
607 2 24.5889 21.9279 18.7846 22
608 2 24.8619 31.6191 15.4174 21
609 2 24.5228 24.5069 17.9067 22
610 2 25.2731 13.519 15.8986 19
611 2 2.09003 -0.0313121 3.44957 22
612 2 29.2404 13.2272 21.3494 23
613 2 29.1543 34.0659 26.5464 21
614 2 21.8004 2.48896 15.9019 22
615 2 4.47159 13.1304 5.53455 22
616 2 6.75345 20.3183 10.5233 22
617 2 23.4961 10.0886 23.049 25
618 2 26.6303 4.39564 2.82891 20
619 2 6.89391 28.6652 35.944 21
620 2 2.10254 12.6437 32.7688 22
621 2 11.5268 0.139472 28.5931 20
622 2 12.5219 9.4348 23.86 21
623 2 27.0079 13.3034 24.1285 22
624 2 26.2721 15.3171 20.5001 20
625 2 3.88048 7.96686 7.85996 20
626 2 30.2469 7.70298 31.1447 19
627 2 12.3537 33.1019 54.6702 17
628 2 16.7537 22.7234 20.6821 21
629 2 29.014 17.9755 16.7955 20
630 2 5.29246 11.3617 35.7788 19
631 2 0.289798 10.8243 24.7184 19
632 2 13.2246 15.4445 17.2518 20
633 2 10.6629 25.0742 31.6629 21
634 2 10.6298 33.5436 44.4813 23
635 2 2.21237 10.4546 27.0903 21
636 2 15.532 1.73388 33.1967 21
637 2 11.2689 8.06352 8.50915 19
638 2 0.269758 11.8912 13.6232 18
639 2 21.9807 0.660726 31.1455 20
640 2 15.3321 12.3357 10.2481 19
641 2 6.03218 19.3879 4.78742 17
642 2 21.5965 7.19181 23.6806 19
643 2 13.6402 10.8163 15.4538 25
644 2 28.7965 26.7709 14.1709 23
645 2 18.4628 24.0963 41.9849 22
646 2 24.2233 9.17902 15.9287 18
647 2 26.8938 10.9409 23.0866 20
648 2 7.23246 15.9465 40.369 20
649 2 21.8124 31.5256 14.585 18
650 2 25.0498 20.8563 37.7715 19
651 2 13.697 0.678845 12.5315 19
652 2 6.03595 15.0226 27.3613 20
653 2 15.2217 5.22029 14.7564 18
654 2 13.7852 25.0981 27.1318 19
655 2 30.091 6.92083 44.7315 22
656 2 30.0074 25.7613 16.4914 23
657 2 8.13141 4.26009 33.5777 20
658 2 6.837 8.1074 38.0137 19
659 2 31.5409 8.92558 11.6695 20
660 2 12.5787 15.7446 30.5694 22
661 2 1.89735 2.85534 20.5252 23
662 2 17.6816 5.70557 12.9298 20
663 2 6.83475 9.07236 54.1965 18
664 2 30.7201 5.92666 21.5402 18
665 2 29.0816 13.6379 26.081 23
666 2 27.3793 22.4339 59.4649 21
667 2 11.605 9.57936 13.322 22
668 2 32.595 8.16487 35.106 21
669 2 19.8642 33.7355 29.8269 21
670 2 14.8539 5.43937 20.8694 20
671 2 5.35847 8.43581 33.9601 24
672 2 14.128 4.47927 1.71694 21
673 2 18.6313 24.4475 29.5153 20
674 2 9.68859 27.9906 40.6438 19
675 2 16.5815 30.8574 33.2856 22
676 2 0.523114 20.6008 5.74698 23
677 2 20.7392 1.84516 36.5021 20
678 2 31.0725 15.7539 37.307 24
679 2 7.70025 9.01469 62.0759 22
680 2 18.2681 23.0691 39.6546 23
681 2 7.83143 24.3772 20.4281 21
682 2 17.2794 22.0414 34.7258 19
683 2 8.59068 22.2032 18.6811 22
684 2 29.9554 28.1442 31.8692 21
685 2 17.4369 32.1046 11.7301 20
686 2 1.84031 0.150841 21.089 22
687 2 16.1566 28.681 18.3618 22
688 2 30.67 8.06099 19.2636 21
689 2 23.6511 23.8449 45.3255 24
690 2 18.6598 16.4112 17.966 21
691 2 18.5179 14.3995 28.5789 21
692 2 31.6232 29.3051 19.6222 23
693 2 12.8855 4.94901 29.1217 22
694 2 15.6752 15.5278 29.0496 21
695 2 0.833062 14.9356 17.3263 25
696 2 17.6833 3.99324 17.2728 17
697 2 29.6622 2.77064 24.153 20
698 2 3.24123 10.1865 13.5369 19
699 2 9.36288 18.7247 2.92274 21
700 2 15.7779 1.98002 19.7124 19
701 2 8.35886 12.0615 26.2307 20
702 2 5.14685 20.7116 13.1704 19
703 2 14.7338 24.3733 40.1169 21
704 2 19.986 3.19779 28.4385 20
705 2 10.3431 2.15587 12.1136 21
706 2 13.3392 18.9131 25.9787 22
707 2 5.11845 11.0273 31.2289 22
708 2 0.443234 23.5518 20.7361 18
709 2 31.5376 17.7676 11.8335 21
710 2 21.2423 20.5584 9.43825 17
711 2 26.118 21.2392 24.3054 17
712 2 23.5858 8.41921 32.2968 23
713 2 16.25 4.98883 30.9458 21
714 2 11.8241 16.5956 14.5661 21
715 2 3.62657 19.1301 62.674 20
716 2 27.3704 15.7306 37.8395 21
717 2 25.161 4.77399 38.7656 22
718 2 14.3336 13.0886 29.4914 19
719 2 4.68489 9.55126 38.2935 17
720 2 17.8193 6.37894 35.4835 22
721 1 0.831872 27.6094 9.19139 20
722 1 8.56295 7.61914 61.5075 19
723 1 21.5434 6.52391 12.2868 22
724 1 15.8111 9.6616 2.17581 21
725 1 29.8634 27.5868 7.64308 18
726 1 2.72752 27.8956 2.92125 20
727 1 7.97263 20.8642 57.3042 26
728 1 12.7511 6.42107 57.3671 24
729 1 0.988758 1.1677 4.21196 24
730 1 19.4618 3.08369 25.1261 23
731 1 9.10172 13.3325 16.4691 22
732 1 1.84513 6.67838 10.4709 23
733 1 17.7323 9.657 8.69332 17
734 1 29.0021 29.3174 0.670771 17
735 1 1.77981 8.81325 7.53326 20
736 1 25.8239 20.6371 6.81924 22
737 1 25.5608 15.0681 4.61393 21
738 1 17.0034 2.4846 56.1868 21
739 1 20.9577 9.59251 22.6803 22
740 1 14.5138 33.1277 22.8812 21
741 1 30.0192 33.2406 23.6479 23
742 1 26.8843 6.06597 24.568 19
743 1 0.449463 21.6115 63.1153 21
744 1 28.6449 6.04021 7.15844 21
745 1 18.7334 33.0354 18.8817 21
746 1 25.8479 2.40716 62.2815 21
747 1 9.2672 7.73979 19.9056 19
748 1 32.0783 21.8763 16.2041 20
749 1 14.5212 1.40913 14.3797 21
750 1 27.345 19.0371 17.3592 21
751 1 23.8033 9.28907 14.115 22
752 1 22.4783 32.225 4.33016 18
753 1 1.5313 17.343 11.995 25
754 1 25.0468 8.25908 59.7011 20
755 1 32.3599 10.159 62.6644 20
756 1 2.83965 0.0861661 5.37964 19
757 1 19.0774 17.1613 62.1891 19
758 1 21.0187 22.9651 4.82214 20
759 1 23.2969 21.4293 61.2839 21
760 1 27.5661 1.02874 6.09298 22
761 1 15.6813 22.1963 13.5725 22
762 1 4.85958 31.1579 9.95047 25
763 1 5.13793 20.5273 17.558 23
764 1 23.5893 13.404 14.5295 21
765 1 8.63055 5.08211 9.21846 22
766 1 9.92099 28.1927 27.8596 20
767 1 29.1024 7.73889 24.1219 19
768 1 30.262 26.7463 0.400699 20
769 1 2.35591 8.86661 14.932 20
770 1 3.96413 22.5719 3.32318 20
771 1 4.69012 2.89888 0.0645876 19
772 1 25.5712 19.695 62.0827 18
773 1 22.5443 26.0502 61.081 20
774 1 23.9921 8.48558 5.56081 22
775 1 4.66941 6.89075 9.62673 20
776 1 4.01607 19.1318 12.6618 21
777 1 9.5609 2.42622 60.0877 21
778 1 3.48736 4.35472 20.0782 21
779 1 20.1087 20.3207 19.6488 24
780 1 25.7128 23.3391 60.4686 22
781 1 2.11731 29.6611 11.2432 20
782 1 13.145 2.77901 58.517 22
783 1 11.9445 31.1442 2.18728 23
784 1 24.1165 14.0023 10.8205 22
785 1 18.6897 28.4845 5.43822 26
786 1 19.4639 4.80766 17.4677 20
787 1 31.0623 33.01 5.83515 20
788 1 0.685842 29.857 4.75901 20
789 1 6.92409 29.9536 34.6673 21
790 1 10.1948 -0.0711173 62.562 20
791 1 2.47438 11.0118 3.16177 23
792 1 21.0519 31.8008 62.2711 23
793 1 5.01635 12.6704 55.2539 21
794 1 14.0434 -0.05179 57.2676 21
795 1 10.4682 17.5177 4.6797 20
796 1 12.9292 31.6396 24.8041 21
797 1 32.2099 31.8069 19.6566 21
798 1 3.88583 28.2603 0.0900554 22
799 1 22.679 24.1227 11.3346 20
800 1 6.18159 22.8836 2.20912 20
801 1 2.30291 26.2716 11.1107 21
802 1 12.6222 13.7893 12.06 21
803 1 26.7249 27.0896 4.8431 19
804 1 5.9027 27.9521 5.1994 20
805 1 13.4029 7.66479 60.0416 20
806 1 3.68328 26.4321 22.6678 23
807 1 8.35355 29.3821 60.1525 19
808 1 29.4931 0.801175 60.6823 22
809 1 30.7239 2.5361 9.40548 22
810 1 7.00911 21.457 24.2564 24
811 1 30.6913 18.8185 -0.0955748 20
812 1 9.46869 0.168601 42.6844 18
813 1 7.44435 6.56083 7.32003 19
814 1 2.84348 23.7497 5.89453 22
815 1 31.7437 25.377 17.204 22
816 1 28.2611 5.0435 12.1954 22
817 1 31.0939 31.4869 14.9899 22
818 1 20.1845 25.2701 23.238 19
819 1 18.3408 32.6318 7.50004 24
820 1 18.021 0.532151 6.58755 21
821 1 15.8345 33.4621 60.5748 19
822 1 16.4131 33.5574 26.9305 24
823 1 11.7931 27.118 41.032 21
824 1 30.7036 1.98267 11.8796 23
825 1 31.7257 30.2626 12.3727 21
826 1 17.7746 3.46439 9.7134 23
827 1 7.15622 1.61461 4.24539 24
828 1 20.5099 11.1276 9.55085 20
829 1 13.5051 27.6836 1.77388 22
830 1 8.55829 2.37177 13.165 22
831 1 9.72054 32.2099 0.118916 20
832 1 17.8571 23.7279 0.637787 23
833 1 20.0654 25.9761 62.6582 24
834 1 4.82731 14.0565 3.97149 23
835 1 18.3815 20.6068 24.4809 22
836 1 30.7741 24.0803 62.6094 18
837 1 22.968 6.11798 29.0823 15
838 1 5.31661 15.8363 25.1249 23
839 1 22.7165 24.0536 17.4498 24
840 1 18.5483 22.6251 3.58353 23
841 1 7.78473 15.2541 5.73841 26
842 1 2.22564 8.29178 4.60655 23
843 1 27.8183 9.2473 54.4963 21
844 1 7.51149 30.6913 7.806 21
845 1 7.99201 26.8843 0.454413 22
846 1 14.0267 20.0439 2.20948 20
847 1 11.5942 16.496 32.7051 21
848 1 12.0308 3.57745 38.4031 23
849 1 4.41335 13.0897 24.9352 20
850 1 21.2354 30.545 6.34999 24
851 1 15.2025 12.1231 12.2585 20
852 1 11.2962 27.0808 4.65731 22
853 1 12.2896 30.3992 6.57689 21
854 1 30.6294 30.8452 22.4081 23
855 1 1.00213 22.8305 2.00527 22
856 1 27.364 33.5216 60.7981 23
857 1 32.0996 4.93716 59.0982 20
858 1 19.3473 6.99256 59.5332 18
859 1 3.71135 8.27536 25.6572 22
860 1 7.88189 5.65137 28.6826 21
861 1 11.8069 25.668 36.0591 22
862 1 5.6045 19.2315 63.4475 23
863 1 13.5919 5.1746 6.9491 24
864 1 8.79093 23.8922 56.9925 25
865 1 12.3215 18.5024 7.40199 22
866 1 2.30681 15.4079 57.8515 20
867 1 16.4617 1.12283 3.61978 23
868 1 21.1937 14.3898 16.3763 20
869 1 2.4942 30.1649 19.4653 24
870 1 6.30299 21.2753 5.28008 23
871 1 6.01215 33.0691 11.6205 23
872 1 31.6952 13.917 62.6835 23
873 1 30.0895 24.823 58.7851 20
874 1 10.0453 20.2484 59.5776 24
875 1 8.48148 28.1106 3.48465 20
876 1 1.95344 19.4536 25.6604 20
877 1 8.47186 32.7214 9.81671 22
878 1 7.70333 1.69887 0.887069 21
879 1 10.886 24.755 11.672 23
880 1 9.51611 3.95054 62.9895 22
881 1 23.5413 5.03315 0.361481 19
882 1 4.3755 1.13569 2.3354 22
883 1 6.86539 3.85123 61.9116 20
884 1 13.2558 8.1205 8.86867 22
885 1 26.4856 25.7695 7.62111 21
886 1 27.5679 33.6037 11.451 23
887 1 6.54216 24.752 5.57582 21
888 1 32.2757 19.4497 11.1016 21
889 1 30.0253 19.636 8.69848 21
890 1 18.5293 13.8992 4.51726 24
891 1 22.5169 11.5828 11.527 23
892 1 5.72207 32.7633 7.17337 24
893 1 23.609 32.5186 56.4092 19
894 1 21.6403 19.8 11.92 21
895 1 6.23213 9.63134 63.2114 22
896 1 12.0926 24.9604 6.72093 24
897 1 0.700782 29.6945 21.762 19
898 1 12.6464 14.1245 4.09661 25
899 1 9.78213 32.1069 26.2124 25
900 1 20.6114 20.5992 6.14067 25
901 2 1.97571 28.0158 0.688376 23
902 2 9.17266 6.4775 26.2307 21
903 2 26.626 34.1508 4.71965 19
904 2 20.5807 9.62899 59.7134 18
905 2 22.1953 11.2207 17.215 23
906 2 9.65667 4.17535 13.4935 24
907 2 13.1045 6.29023 3.80978 21
908 2 18.9454 2.5989 59.6445 20
909 2 3.78746 23.5019 37.6086 21
910 2 27.4293 20.9586 17.9411 26
911 2 23.5 17.4487 15.0699 19
912 2 6.80703 10.8093 1.49741 22