ITEM: TIMESTEP
15000
ITEM: NUMBER OF ATOMS
1000
ITEM: BOX BOUNDS pp pp pp
-30.0 30.0
-30.0 30.0
-30.0 30.0
ITEM: ATOMS id type x y z Coordination
1 1 2.65706 -6.34167 -8.7321 21
2 1 8.71331 -10.0568 8.93521 12
3 1 0.283152 9.50546 -2.02293 21
4 1 -7.5144 5.30773 -3.22817 11
5 1 2.16777 -7.20757 10.5958 16
6 1 -4.7103 1.9842 -11.1103 13
7 1 -3.48003 2.65044 -8.97757 22
8 1 2.39569 -10.4541 2.38442 17
9 1 8.40979 -1.44223 4.25654 19
10 1 5.18097 3.44257 9.71129 20
11 1 8.92724 -2.08676 0.981856 20
12 1 2.37247 6.47463 -10.1912 15
13 1 0.279181 -2.92899 13.1628 15
14 1 -7.25922 0.427892 1.44768 21
15 1 -0.140057 0.146366 -5.56324 24
16 1 2.2421 -1.71466 7.8564 20
17 1 4.94241 -5.29192 -6.32347 20
18 1 4.09893 1.41668 13.8373 15
19 1 3.76327 -12.5847 7.45319 15
20 1 -9.62858 1.17438 3.44305 12
21 1 -5.52757 -1.10083 -4.00062 15
22 1 0.437229 13.2306 -5.10176 9
23 1 8.13376 -3.45719 -9.90388 19
24 1 8.67626 -6.73992 -9.75767 14
25 1 0.0146538 -5.15833 11.2183 16
26 1 -9.33095 3.44022 1.43316 10
27 1 2.88167 12.3911 -0.231015 15
28 1 7.5182 -11.4824 3.31939 15
29 1 14.4275 -6.11064 -7.70595 13
30 1 10.9329 -0.815313 2.60382 21
31 1 -4.08619 8.95907 -5.74675 12
32 1 1.67052 7.07034 -4.07149 22
33 1 4.91327 5.64295 4.65821 22
34 1 4.55448 6.12346 8.27078 22
35 1 -2.82875 -2.0176 0.733088 22
36 1 5.98672 -0.484051 14.5672 12
37 1 -9.47444 -3.80206 5.81287 12
38 1 15.0614 1.6483 5.5625 16
39 1 9.99447 -4.1607 -3.48887 19
40 1 5.84409 0.240926 11.0134 22
41 1 -2.3948 -4.35742 2.93124 23
42 1 2.06557 -3.8364 -6.54498 18
43 1 -4.71836 9.20789 -1.07098 12
44 1 1.49043 3.62306 -11.2981 14
45 1 7.68832 0.922822 -4.06562 20
46 1 9.16905 -1.59347 -5.41596 20
47 1 7.66826 -6.88469 4.47729 19
48 1 6.02021 -11.4395 9.96866 9
49 1 -0.931584 5.63266 4.46238 23
50 1 -5.38999 -5.86807 7.94628 18
51 1 -5.74187 2.58889 6.28927 20
52 1 13.3649 -6.37322 -4.13536 18
53 1 9.73194 1.21499 -14.0194 9
54 1 8.06453 -1.45517 7.80647 18
55 1 5.44545 10.2305 1.25374 23
56 1 -3.31949 8.14582 -9.17264 11
57 1 3.91214 8.15862 3.93308 24
58 1 -2.47349 -10.386 9.54218 10
59 1 7.56433 -7.24266 -6.38054 18
60 1 8.12463 -4.68571 -14.121 7
61 1 -0.385982 2.76782 6.12987 19
62 1 -6.2566 -9.0062 1.60649 10
63 1 7.86923 -4.87594 2.53581 20
64 1 -5.25159 -7.62798 -4.00158 11
65 1 10.3683 -4.55017 3.76214 22
66 1 0.681004 9.07583 3.42018 19
67 1 -1.47425 5.58721 1.48519 19
68 1 5.37825 6.10972 -6.08881 22
69 1 11.8526 -7.69072 3.29255 17
70 1 -3.53472 -10.6029 -0.299151 16
71 1 12.7682 7.84676 5.29891 16
72 1 12.9203 6.24695 -1.43515 19
73 1 -2.1646 13.4648 -3.07333 8
74 1 4.08742 -8.58904 -11.0345 12
75 1 2.50791 8.96747 -8.36998 14
76 1 13.8758 1.48091 -4.08534 19
77 1 9.07517 -0.184497 -10.5817 18
78 1 11.1596 -7.97028 8.29213 18
79 1 -3.83524 5.29137 -10.7423 13
80 1 8.21126 9.47439 1.15925 17
81 1 12.9718 9.03616 -3.12225 11
82 1 3.2682 8.67505 -1.64596 23
83 1 2.56954 -4.11837 -11.1876 15
84 1 -10.4333 -0.46193 -3.97574 9
85 1 -1.08503 8.50688 9.63985 14
86 1 3.53701 8.97171 -5.1044 21
87 1 5.94955 -2.44216 12.4674 17
88 1 -8.0992 -2.95692 3.50283 20
89 1 0.431118 -10.8818 4.31188 18
90 1 6.47409 8.10041 -0.975443 20
91 1 13.0949 6.58857 -5.22721 14
92 1 3.08886 -10.2423 9.18897 16
93 1 -3.19343 2.77528 -1.76974 21
94 1 2.11604 3.37933 12.3545 16
95 1 -2.66338 0.243012 -7.68578 22
96 1 -2.80172 -4.55066 6.66777 20
97 1 -3.6136 -10.2587 3.00545 16
98 1 -3.00192 -2.35164 -2.58458 20
99 1 8.87115 -8.52541 -1.7593 20
100 1 2.38996 8.13779 8.59486 20
101 1 -3.7547 0.79978 2.59106 22
102 1 -5.65946 -2.38193 -0.758589 18
103 1 4.72774 -10.656 4.34332 19
104 1 10.8057 5.54566 -3.20002 22
105 1 5.50211 5.01924 15.5995 5
106 1 3.27708 1.63501 -10.3466 18
107 1 -3.70225 -2.93182 -8.61346 16
108 1 -2.51426 11.4478 -0.593301 13
109 1 11.6435 -0.972123 12.5042 11
110 1 -1.6293 10.5082 -6.64331 11
111 1 4.20588 3.77658 -8.22366 23
112 1 -3.11834 1.0287 9.35892 20
113 1 -3.24154 7.15847 11.662 8
114 1 2.11398 -9.08991 -8.71593 17
115 1 2.58454 0.955005 6.18859 20
116 1 4.98435 -4.84026 -1.76149 22
117 1 8.8647 10.5158 -6.9182 10
118 1 5.22146 11.0352 -1.54745 20
119 1 -7.37672 6.83921 4.79209 10
120 1 8.12586 3.84858 11.406 15
121 1 14.6165 -1.10495 -1.90058 20
122 1 8.01195 4.29708 7.84872 22
123 1 -4.86406 8.66493 4.84691 15
124 1 -8.42612 -2.36332 0.593873 18
125 1 5.1497 -2.3602 9.4442 20
126 1 7.50182 -10.9493 -3.30844 18
127 1 4.26097 -3.65737 -9.08741 18
128 1 11.9645 1.57466 -8.41995 19
129 1 -7.11134 -3.20157 7.46089 15
130 1 -0.844222 -10.4436 -7.96966 11
131 1 -2.19034 -6.86409 4.59185 19
132 1 2.61739 -7.06273 4.33313 21
133 1 -3.23618 -6.30936 -9.68714 9
134 1 -7.48393 0.53041 -5.51196 17
135 1 10.8246 0.699323 7.46836 19
136 1 8.13563 -4.20171 6.27461 21
137 1 5.93912 -5.26448 7.96661 21
138 1 7.39701 8.24862 4.0244 22
139 1 -7.05624 -5.86861 4.9204 16
140 1 7.74956 11.2616 3.42531 13
141 1 -0.243416 -4.82103 -9.77005 15
142 1 -0.965326 -7.89012 -7.60032 17
143 1 -0.953702 -10.6981 0.94207 15
144 1 5.24393 -5.27205 4.12139 22
145 1 16.7951 3.0614 1.4871 15
146 1 -0.4384 -4.34083 -2.29359 21
147 1 -5.68518 -3.18819 10.4241 14
148 1 -0.378265 -14.4617 3.04825 12
149 1 5.42549 1.14694 -6.15439 19
150 1 0.763001 -13.2355 -0.0870413 17
151 1 6.16399 -7.81415 -0.655483 20
152 1 3.18607 -14.2872 2.0297 14
153 1 -5.6571 5.8501 -5.9804 17
154 1 13.7139 4.74141 6.03011 18
155 1 -2.17376 0.095272 -11.4961 17
156 1 6.08761 5.25324 -10.5916 10
157 1 -0.119382 -5.14865 4.64299 22
158 1 5.04909 11.1786 4.66203 14
159 1 10.4978 4.49973 2.47491 18
160 1 -5.89331 -0.207551 4.52302 19
161 1 -1.64532 -7.70529 11.7194 8
162 1 0.0256509 8.12088 6.37528 23
163 1 10.629 -4.61641 -11.9711 13
164 1 6.76778 -12.932 -1.87183 12
165 1 14.3266 -0.628331 -9.7726 12
166 1 -0.278055 -4.40725 0.850603 21
167 1 5.35605 0.383811 7.94686 21
168 1 -5.23421 -2.12868 2.42404 22
169 1 13.9704 -7.2917 -0.745308 15
170 1 -0.79222 8.38125 -0.245083 17
171 1 -2.79547 6.96636 7.50757 22
172 1 12.9382 -9.10429 5.3559 13
173 1 2.71817 3.72391 7.63317 23
174 1 -2.43445 -5.63952 -3.76747 18
175 1 2.22129 10.3868 6.05027 16
176 1 -5.64266 2.15044 -3.08139 18
177 1 -7.5754 4.74202 7.59666 12
178 1 2.09575 -7.37575 -5.78103 19
179 1 -0.0956206 11.3605 5.4632 13
180 1 13.2875 -3.82432 3.78132 21
181 1 10.1473 -4.60739 8.58807 20
182 1 -3.37916 3.58717 1.25103 18
183 1 -0.414163 -5.67733 7.96291 23
184 1 10.1858 -10.7753 -5.09337 13
185 1 -2.6972 -3.28967 -11.4958 9
186 1 -10.8485 -1.80819 3.57333 11
187 1 0.265092 -6.9026 -1.08002 22
188 1 11.5376 4.1442 -0.70783 21
189 1 -5.70847 5.15499 -9.07459 12
190 1 -6.83139 10.0802 6.72481 8
191 1 -2.32387 9.4192 5.00342 17
192 1 -3.77061 3.59107 11.6625 12
193 1 14.9459 -3.58588 -4.90559 19
194 1 14.7029 1.78218 -7.24819 12
195 1 5.49428 3.19052 6.1165 19
196 1 -1.22642 6.04044 -2.36858 23
197 1 3.18086 -7.00751 -2.7778 22
198 1 2.57002 11.4243 2.96346 15
199 1 10.8209 1.18602 -2.30928 19
200 1 -4.84289 2.59297 -6.11257 20
201 1 10.3593 -11.555 -1.6634 12
202 1 13.79 -0.442277 7.34252 15
203 1 -7.88114 -2.70347 -4.06963 13
204 1 -2.17533 -12.6851 5.24094 10
205 1 2.72837 8.56522 0.89624 20
206 1 -3.97297 7.32261 -3.0172 17
207 1 1.98026 -9.70439 -3.84733 21
208 1 9.44418 -10.0289 5.91826 16
209 1 -1.86179 -14.8855 -0.0227055 10
210 1 -6.39318 8.59208 -4.11292 9
211 1 1.77453 -13.8319 4.90593 12
212 1 -0.986984 0.0216677 7.9964 17
213 1 -8.2149 7.70605 8.83328 8
214 1 4.61755 -8.69361 -6.35205 21
215 1 2.80258 -4.5907 6.17068 22
216 1 -6.09371 2.42253 9.28552 16
217 1 2.61467 -7.01103 7.59921 21
218 1 -3.21564 -5.02219 10.3038 18
219 1 6.2829 -7.40546 -3.78259 17
220 1 8.19599 -10.9058 -0.0115718 19
221 1 6.64166 13.8614 -3.01804 11
222 1 -2.84639 -7.53638 7.90211 16
223 1 13.2622 -5.10365 9.3638 12
224 1 10.5605 1.48107 0.800217 21
225 1 -4.64041 5.73164 5.6675 19
226 1 8.39368 1.20658 -7.19602 19
227 1 12.1932 -5.55487 6.42714 20
228 1 4.55195 6.36535 0.817127 25
229 1 -0.801479 -0.487504 14.6334 12
230 1 6.88431 12.5661 0.571299 12
231 1 11.5694 -1.94848 5.76037 20
232 1 2.14035 -12.6402 -3.2721 16
233 1 10.5658 6.75337 10.7285 10
234 1 -2.72297 -2.22403 11.8726 15
235 1 -0.244037 -7.54211 -4.32709 23
236 1 -3.60286 -8.47445 -6.24172 13
237 1 -5.28394 8.78727 8.83732 14
238 1 -1.6997 -13.536 -3.483 10
239 1 -2.90332 -1.70396 4.35452 23
240 1 8.1858 1.3832 9.21728 19
241 1 14.9709 4.53902 -0.0223189 18
242 1 2.33752 1.45319 -7.71973 19
243 1 3.07111 4.02176 -5.49166 23
244 1 2.19479 5.10813 10.1075 18
245 1 -10.3711 -4.30808 0.98713 11
246 1 9.55467 11.9506 -4.23566 10
247 1 -4.09551 -5.51894 -6.3849 13
248 1 6.00068 -5.66825 -11.1036 14
249 1 11.8342 9.52649 -0.127336 14
250 1 7.31356 5.57798 -1.37113 22
251 1 6.02682 3.78008 -4.16522 21
252 1 4.95429 -8.01419 5.93708 20
253 1 0.877591 0.961916 -12.4086 12
254 1 14.1825 8.20025 0.224079 14
255 1 8.296 -4.94807 -0.947169 21
256 1 3.62895 -0.814213 -11.6435 15
257 1 5.39134 -10.7044 0.967053 19
258 1 5.84859 -8.32761 9.87548 18
259 1 -7.82621 3.6208 -6.55992 11
260 1 9.94229 6.97175 3.95209 21
261 1 5.32728 -0.874269 -8.81463 17
262 1 -4.72066 -6.80348 2.6793 21
263 1 16.1487 -0.544201 -5.20902 11
264 1 -1.34148 2.61972 -6.81547 22
265 1 -2.77978 5.4738 -7.45477 20
266 1 12.0237 -7.85397 -5.93397 16
267 1 7.01068 2.07412 -9.75052 16
268 1 12.123 -4.22825 -6.22119 19
269 1 6.07594 -8.09579 2.39189 19
270 1 -6.65845 -6.08085 10.1558 9
271 1 0.356182 10.9379 0.48512 19
272 1 2.38373 6.39277 -6.77104 21
273 1 17.2994 6.67638 0.24559 8
274 1 1.89422 -9.79648 -0.616985 25
275 1 7.1894 -11.145 -6.8058 13
276 1 6.81972 5.7107 2.12538 22
277 1 15.9869 -5.88671 -2.01331 10
278 1 9.04978 -7.76762 1.22448 19
279 1 14.4363 -2.84189 0.676962 21
280 1 -4.76383 6.00361 9.43905 14
281 1 -3.57356 -4.71393 -0.793095 20
282 1 -0.547349 -4.81445 -6.04412 22
283 1 2.71456 -4.51815 9.31522 21
284 1 7.62322 7.99059 -7.53126 16
285 1 -0.223257 7.59733 -7.93429 20
286 1 3.1733 12.3196 -3.36718 16
287 1 2.72964 1.35885 10.327 21
288 1 4.95423 -9.97532 -2.5117 20
289 1 10.4064 -2.12449 -8.19647 15
290 1 -5.26578 -7.85485 -0.939395 15
291 1 -3.16739 0.686181 -4.33353 21
292 1 -8.59951 -6.49388 3.05248 13
293 1 8.61193 3.24792 -2.67275 21
294 1 9.54424 -9.25238 -7.70664 13
295 1 8.63124 -6.83427 10.072 16
296 1 13.836 -1.16383 -6.75184 21
297 1 -4.11058 5.79559 -0.405592 15
298 1 9.97765 -6.70695 -4.35195 21
299 1 7.11403 6.01044 10.26 16
300 1 0.326121 -1.7659 -10.7043 17
301 1 9.9831 3.63064 -7.70034 20
302 1 0.351035 -7.65699 -10.0339 14
303 1 -0.478842 -10.2775 -2.2745 23
304 1 16.7353 -0.257315 0.10502 17
305 1 12.6844 -3.31094 -9.51004 17
306 1 12.0625 -9.27004 -2.86066 16
307 1 7.81848 11.2456 -1.89008 17
308 1 -6.32405 2.78512 2.84579 18
309 1 14.3856 4.65171 -3.57446 10
310 1 7.8818 -3.79847 10.0972 21
311 1 10.6943 3.72237 5.79162 16
312 1 11.4179 1.11457 10.3878 14
313 1 -6.23803 -2.5024 -7.28672 12
314 1 16.6518 4.06113 4.742 10
315 1 15.1473 -7.24209 4.13275 11
316 1 3.02134 -7.04164 0.744214 21
317 1 5.69045 9.06205 9.89958 11
318 1 7.78504 1.10217 5.98518 20
319 1 0.361514 13.5226 -1.61776 12
320 1 -1.10757 -10.9094 -5.19705 15
321 1 -1.74957 3.21252 -12.1572 16
322 1 -5.07458 -1.19675 -10.6846 12
323 1 -6.9357 -0.0500968 -1.72316 20
324 1 11.458 -3.54962 0.859138 18
325 1 6.23398 -11.6952 6.69956 15
326 1 5.45303 -2.62255 5.94213 22
327 1 12.6576 4.73688 -8.46216 12
328 1 12.3366 -1.38581 -4.02177 21
329 1 17.771 -2.30813 2.31906 13
330 1 10.5119 9.81783 6.13576 10
331 1 17.1025 -2.6703 -2.94202 10
332 1 -0.354078 5.40085 7.78271 22
333 1 -6.50034 -9.22663 4.52845 13
334 1 -6.08368 0.142495 -8.34405 13
335 1 8.80349 -2.17552 13.6321 12
336 1 -2.78845 10.0083 2.06785 13
337 1 8.24266 3.55234 0.883911 19
338 1 8.49203 -1.53148 -2.63181 16
339 1 12.9552 6.05741 2.30554 20
340 1 -5.26323 -0.288812 11.3104 13
341 1 11.5636 0.420969 -11.7245 15
342 1 1.99696 -4.37885 -3.85243 19
343 1 6.18288 7.80023 13.0645 7
344 1 10.9069 6.6121 7.43593 19
345 1 2.81844 -4.88869 13.0309 11
346 1 -0.763836 3.14717 13.8577 9
347 1 -0.277953 2.93984 9.57207 17
348 1 -0.579738 2.58905 -3.72463 20
349 1 -0.343724 5.13205 -5.47168 21
350 1 10.029 7.90829 -2.05127 18
351 1 -0.375786 -2.44984 6.08471 21
352 1 5.84512 11.7724 -4.88427 15
353 1 -4.23931 -13.7401 -1.22212 9
354 1 7.4623 6.80324 6.18898 20
355 1 -3.34642 0.668342 6.2415 21
356 1 -3.26476 3.63828 4.4353 23
357 1 8.20082 6.40667 -3.89515 23
358 1 1.39344 0.264589 13.3327 18
359 1 13.6886 6.23657 8.44488 9
360 1 -4.3064 0.258704 -0.299408 21
361 1 5.74317 -1.92534 -4.27585 18
362 1 2.65981 3.85121 4.27994 21
363 1 7.12244 -4.74785 -4.06899 21
364 1 4.89147 8.49748 6.77185 19
365 1 -10.268 -1.19979 6.53118 7
366 1 6.39445 -13.5101 1.23475 13
367 1 10.3663 6.33938 -6.50933 18
368 1 10.7814 -10.5567 2.70256 12
369 1 1.76255 6.37042 2.90146 19
370 1 9.8077 -1.97004 -13.5726 13
371 1 9.72275 -5.04086 -6.74811 21
372 1 0.0902251 10.8723 8.57415 12
373 1 7.75961 -7.61186 7.55834 23
374 1 2.18202 -1.22744 -9.00836 21
375 1 -3.64201 -10.9109 -3.38754 14
376 1 -3.29021 3.54678 7.99221 23
377 1 16.6723 -1.78923 5.26141 12
378 1 0.831368 10.4836 -5.53195 15
379 1 10.6185 2.87525 -10.9983 12
380 1 15.9635 2.2688 -1.70256 13
381 1 7.3239 4.75034 -8.02418 17
382 1 2.90067 -1.66421 11.3948 22
383 1 0.194615 -7.96773 6.18131 20
384 1 6.19941 -8.61059 -8.99851 17
385 1 -2.8882 10.1305 -3.026 18
386 1 13.8393 9.16922 3.18037 10
387 1 -4.95916 -3.79117 4.56968 20
388 1 8.40152 3.85385 -5.56789 22
389 1 2.87615 -1.94588 14.5459 13
390 1 -9.95184 -3.68265 -2.30441 9
391 1 11.8985 -1.07775 -0.522799 23
392 1 -2.56644 -7.95081 -2.06593 20
393 1 17.6379 -3.51299 -0.651723 11
394 1 11.3165 -8.87062 -0.236954 16
395 1 4.81535 4.90731 12.7816 15
396 1 -2.47157 1.00897 12.7537 15
397 1 12.02 0.777145 4.69515 17
398 1 12.899 -5.74384 1.22897 20
399 1 7.83735 4.23973 4.23921 20
400 1 7.26457 10.4973 6.76211 14
401 1 5.29982 -13.5426 4.45952 13
402 1 -6.58895 -4.83931 1.36262 19
403 1 6.55314 2.75951 13.1459 15
404 1 11.1967 9.38958 2.72484 16
405 1 11.8202 -1.90429 9.19152 14
406 1 14.1445 -7.40193 7.63432 11
407 1 11.103 3.55846 8.96468 17
408 1 -0.850562 8.50758 -4.8273 20
409 1 4.36463 -10.9728 -8.26715 13
410 1 5.4681 -3.20868 -12.4261 13
411 1 -0.445469 -0.443345 10.7103 21
412 1 17.5911 0.852195 3.23961 13
413 1 5.35121 10.4071 -7.48631 12
414 1 12.9919 -2.14273 -12.3876 10
415 1 -2.97206 -13.12 1.9796 13
416 1 -2.80297 -2.44394 -5.58714 21
417 1 7.17568 -2.89304 -7.19071 19
418 1 4.62205 -11.3081 -4.9147 15
419 1 5.4017 -5.32672 11.3142 16
420 1 2.76851 -10.1212 6.15547 20
421 1 11.9252 3.75988 -5.77269 22
422 1 -3.05214 10.3579 7.33912 17
423 1 13.0237 -4.01506 -1.91702 20
424 1 -9.58081 0.463585 -0.413685 12
425 1 15.6674 6.8326 2.9347 13
426 1 9.91135 1.30172 13.27 12
427 1 -8.79494 2.26162 -3.37875 14
428 1 -0.225587 0.826108 -9.46657 24
429 1 16.4547 -5.69427 1.51579 14
430 1 -6.83381 -5.33167 -1.77177 15
431 1 -3.85453 -9.83665 6.46769 14
432 1 17.0212 -4.62883 4.09832 10
433 1 -8.46568 4.02896 4.80359 12
434 1 5.14894 7.36061 -9.14027 17
435 1 10.6606 -4.17812 11.5253 14
436 1 -0.487725 -3.18314 9.20711 20
437 1 -0.568171 -2.21686 -7.72134 20
438 1 0.500366 -11.3439 7.09369 15
439 1 9.0737 -1.03908 10.9956 22
440 1 3.76074 -12.17 -1.10014 15
441 1 16.0642 -3.23812 -8.21427 10
442 1 -3.94511 6.51062 3.11848 17
443 1 -6.02567 -0.441709 7.5486 16
444 1 0.410632 -1.9427 -3.93005 22
445 1 1.68122 -12.0293 -6.80554 13
446 1 9.99144 6.8384 0.523835 22
447 1 13.7007 2.33804 2.91199 18
448 1 0.0777041 -8.77116 9.23484 17
449 1 10.6514 8.91679 -5.13882 15
450 1 10.7117 0.792491 -5.68865 21
451 1 -6.56771 3.35753 -0.768907 18
452 1 4.28637 6.38992 -2.9968 23
453 1 8.41676 8.71963 8.71546 14
454 1 6.26362 8.91504 -4.14086 20
455 1 -0.480758 5.5937 11.7277 14
456 1 13.5963 1.14621 0.333754 21
457 1 10.1549 -7.30904 5.92363 19
458 1 -3.80626 -2.30629 7.7909 23
459 1 14.3571 2.5916 8.65525 10
460 1 11.5723 -7.02523 -9.33551 12
461 1 2.90247 -1.24954 -5.934 18
462 1 -0.59754 6.1416 -10.7236 15
463 1 2.22531 6.29796 6.29274 22
464 1 1.257 6.60269 -0.757561 22
465 1 0.390248 -8.03929 2.42373 18
466 1 10.7442 -6.35566 -1.43265 23
467 1 6.94106 -0.381017 -12.7502 10
468 1 -2.11792 -6.85582 0.743504 19
469 1 -3.17805 4.48042 -4.34115 20
470 1 14.5579 -3.82626 6.46008 16
471 1 -5.85953 -9.12897 8.30221 10
472 1 13.7672 -0.405183 2.63687 18
473 1 1.00408 4.11475 -8.39741 21
474 2 -6.77582 1.76724 -6.75617 15
475 2 -3.05062 12.0424 -2.30959 11
476 2 6.17638 -2.68832 -8.78199 17
477 2 2.44725 5.87028 8.42104 19
478 2 -3.63303 -4.39357 -9.72199 13
479 2 5.16773 3.34364 14.3195 12
480 2 -5.49651 1.63939 -1.04077 18
481 2 11.0427 1.92673 6.06824 19
482 2 5.75125 1.19029 6.21144 20
483 2 -0.181413 -1.65137 -5.97845 21
484 2 -3.53869 -7.26175 -7.75989 11
485 2 -3.06578 1.12993 -2.59466 21
486 2 1.2465 -6.33418 6.64287 18
487 2 8.31435 2.50781 12.8759 13
488 2 12.3984 -3.58387 -11.4981 11
489 2 11.0464 -1.69721 0.983541 20
490 2 -1.55737 9.61949 -1.46338 20
491 2 14.9034 3.56295 5.34348 13
492 2 -10.6568 -2.63412 5.12484 8
493 2 1.57647 -14.4616 3.09222 12
494 2 13.8858 -5.22454 7.46724 15
495 2 -3.3662 8.116 6.0013 19
496 2 -2.51526 9.72156 -4.84361 16
497 2 2.90713 5.86591 4.43564 18
498 2 0.317162 5.90361 6.01415 21
499 2 7.3771 -8.93779 -3.05477 21
500 2 0.338303 2.31816 -8.00087 19
501 2 7.66529 -9.33568 -7.91438 15
502 2 14.4176 -2.434 -9.18979 13
503 2 2.444 -8.07472 2.41617 21
504 2 11.202 9.40666 -2.01769 16
505 2 0.796753 11.3613 7.02599 12
506 2 0.0201134 -7.01015 -6.12891 23
507 2 6.58614 -6.45283 10.3727 14
508 2 14.0012 0.835008 4.1757 21
509 2 -8.01515 -0.365266 0.0178338 16
510 2 12.9889 9.23673 1.59071 15
511 2 9.32509 -10.836 4.06621 11
512 2 3.89648 9.58839 5.22329 20
513 2 9.46237 8.91453 3.47401 18
514 2 7.66729 4.79095 -3.38152 23
515 2 -3.65803 0.760918 11.3228 14
516 2 10.6269 1.07018 -9.99472 18
517 2 -6.7055 0.649001 -3.57816 21
518 2 -7.13601 2.90053 7.76793 14
519 2 -5.16013 -9.38494 3.20727 13
520 2 3.02146 -8.08166 5.84154 20
521 2 0.976347 -4.79063 12.6655 14
522 2 4.59186 3.8116 7.77601 24
523 2 -9.28537 1.34446 1.34514 14
524 2 8.19751 -11.0567 -5.13066 12
525 2 13.4365 -2.40741 -5.40005 17
526 2 0.332445 -10.3407 2.51132 16
527 2 10.0011 -0.61709 -6.81054 21
528 2 6.37027 7.36356 11.2302 14
529 2 13.0363 -8.83692 -1.44026 12
530 2 10.6727 -2.89581 12.7801 11
531 2 -5.80186 -5.12161 3.32645 19
532 2 16.8185 1.65993 -0.00663589 14
533 2 5.87841 -9.95507 2.91662 22
534 2 16.6812 -6.35665 3.4447 9
535 2 1.66334 2.92075 -3.70444 19
536 2 2.96654 -4.98415 -2.39047 20
537 2 -1.39036 -6.74361 -9.45343 12
538 2 -5.98012 -4.40189 6.16657 17
539 2 -2.70442 -6.87709 2.76773 18
540 2 -2.00034 -9.30448 -6.49503 15
541 2 -1.14737 10.0813 1.29143 15
542 2 3.83307 2.43472 -6.68467 22
543 2 12.8093 5.77646 -3.4875 18
544 2 4.45772 4.85747 -4.39924 21
545 2 -2.75744 2.9014 13.0501 10
546 2 -7.43297 3.57822 0.866596 12
547 2 0.369799 4.17547 12.7 12
548 2 -5.5827 6.52427 4.21541 14
549 2 -1.41327 3.61695 -5.08058 23
550 2 11.0914 2.18424 -6.80108 22
551 2 16.1118 -6.11756 -0.169173 12
552 2 10.9966 6.23303 2.1547 16
553 2 2.5086 8.4854 2.67569 20
554 2 -1.06081 7.2149 8.11166 21
555 2 5.04691 6.61035 2.76054 22
556 2 13.7281 8.20246 -1.59028 12
557 2 4.5992 8.22789 0.0791692 23
558 2 7.062 9.73321 -7.34463 12
559 2 4.28781 8.02555 8.86064 15
560 2 -0.764843 1.05842 6.26181 22
561 2 6.1463 -1.68006 7.90041 24
562 2 9.1652 -1.9649 -9.77764 15
563 2 -0.313441 1.22214 13.9887 12
564 2 8.40498 2.847 -8.54607 18
565 2 -3.91301 -9.58978 8.38626 12
566 2 1.99922 -7.78995 -0.796433 20
567 2 2.71334 -5.3242 -5.61938 20
568 2 7.71366 -12.1375 1.50156 14
569 2 13.6188 3.35986 -4.69973 17
570 2 2.71388 0.688675 -11.7266 13
571 2 0.637595 9.08856 9.14587 12
572 2 -6.45164 -1.93154 -2.31426 19
573 2 6.71765 7.52494 -5.58995 25
574 2 2.29927 13.3961 -1.95844 13
575 2 2.88041 1.54415 12.3999 19
576 2 5.5594 -12.6706 -0.383643 16
577 2 7.0453 3.06986 9.1135 20
578 2 13.0726 -3.95139 0.0374958 18
579 2 9.94834 4.86993 4.48295 17
580 2 0.169139 2.73159 -12.1759 13
581 2 9.08651 -8.2259 8.95895 18
582 2 5.37157 -12.1997 8.36605 12
583 2 14.3491 -7.49019 5.83603 14
584 2 -0.178456 9.01553 -6.71872 16
585 2 -2.44911 -14.4339 -1.86846 9
586 2 0.156706 -0.868089 -8.91506 19
587 2 2.56743 -10.954 -8.20213 14
588 2 14.2545 7.51397 4.09829 12
589 2 -6.00986 -6.88675 -2.4778 12
590 2 -8.07438 5.50103 5.89032 12
591 2 12.0596 -3.79459 9.11699 15
592 2 -0.492533 -14.0901 1.09825 13
593 2 4.66894 -0.588244 -5.58108 20
594 2 2.18008 -2.12868 -10.9825 18
595 2 -5.18768 -1.67685 -8.76059 12
596 2 -0.809577 -2.32777 11.2595 19
597 2 -2.54592 -4.52152 -5.36099 20
598 2 4.13638 -5.47721 -8.09106 19
599 2 11.3868 -3.74239 -8.02734 19
600 2 -2.27641 -4.59476 0.758022 19
601 2 6.13141 -3.60002 -5.39013 16
602 2 4.34214 3.06345 -2.15352 22
603 2 1.61954 -7.79527 -4.04949 20
604 2 6.72876 6.61942 -9.206 14
605 2 6.65947 9.75861 8.41378 12
606 2 16.8231 0.146108 4.82971 14
607 2 -5.70801 -2.14845 8.54708 16
608 2 2.71741 -10.9532 4.18813 23
609 2 3.61382 0.185218 -9.18116 22
610 2 -1.00122 3.50052 4.48231 20
611 2 -0.365687 -7.61516 0.720535 19
612 2 -3.98274 5.27622 7.54124 21
613 2 -3.85039 2.96749 6.09113 20
614 2 -6.87608 -4.83393 8.71031 12
615 2 3.66748 -13.5422 5.67229 15
616 2 -10.0292 -0.0734482 4.91588 11
617 2 -2.77147 -11.1065 1.40152 15
618 2 -6.1868 -7.40633 8.94877 9
619 2 12.7402 -7.03573 8.8625 12
620 2 7.70237 12.3873 -3.82508 11
621 2 8.0149 7.67655 -2.34293 20
622 2 14.7609 0.749847 -2.49182 19
623 2 1.94341 11.9666 -4.78922 14
624 2 -4.51569 1.31839 -7.61993 18
625 2 -6.96974 1.02698 3.19277 20
626 2 2.84166 -12.2325 -4.9678 14
627 2 6.05187 -3.70434 10.589 20
628 2 11.8961 -3.73622 5.38309 18
629 2 -3.20156 9.5658 -7.49393 12
630 2 11.9219 0.7562 2.37856 18
631 2 5.16322 -1.38342 11.1871 23
632 2 1.54122 -5.7049 -10.054 16
633 2 7.28529 4.09205 6.22167 18
634 2 11.9766 6.19415 9.22242 10
635 2 0.944742 -1.45602 14.0415 14
636 2 -2.94693 5.65481 4.65884 20
637 2 12.5996 8.51721 -4.85845 13
638 2 -3.88461 -8.83311 -3.32173 20
639 2 -3.577 -1.33494 -4.32625 18
640 2 -4.49839 -2.11605 11.4968 13
641 2 6.85001 10.0655 -0.622919 18
642 2 2.88114 -2.83389 -8.05204 22
643 2 12.6242 4.01453 2.50088 18
644 2 10.7078 -5.94045 7.5173 21
645 2 -5.19504 -1.82462 4.4308 20
646 2 1.95277 11.6181 1.27276 16
647 2 -1.47116 7.4479 -9.64792 13
648 2 6.50795 0.643702 -7.9139 17
649 2 -4.66234 3.78289 -0.446672 18
650 2 5.98574 -4.46436 6.01462 19
651 2 5.34028 5.75577 -1.55889 22
652 2 -3.06174 0.146592 4.33694 20
653 2 11.3023 -4.76724 -2.35886 18
654 2 2.60832 -10.8866 -2.25344 21
655 2 -0.532006 8.76764 4.70021 21
656 2 5.79243 -7.17642 4.40681 21
657 2 -6.32863 6.70956 -3.34653 14
658 2 6.86524 -9.52447 -0.0327297 22
659 2 7.6966 6.2556 8.15503 22
660 2 5.97082 3.82628 -9.29249 17
661 2 4.39131 9.12448 -8.54055 14
662 2 11.5417 3.6031 -9.53419 14
663 2 1.40033 8.5887 -0.73779 18
664 2 -2.58521 -3.34686 9.06451 23
665 2 -0.926943 -7.65714 8.00453 22
666 2 0.0543453 -7.1256 4.21317 21
667 2 -7.18809 -2.44291 1.97612 20
668 2 -0.607627 -4.52464 6.43151 21
669 2 3.49213 7.02015 -5.24406 20
670 2 10.4778 -7.89484 -2.98114 21
671 2 1.52545 -0.139314 11.421 22
672 2 -5.66154 -4.2671 -0.555917 20
673 2 8.65209 -0.442941 -13.7485 11
674 2 11.9367 0.394747 -4.15783 21
675 2 9.28565 10.3154 7.5032 8
676 2 8.45618 -3.99615 -2.62839 21
677 2 -8.60712 -5.40998 1.45152 15
678 2 -0.323137 13.7064 -3.4308 9
679 2 4.74551 1.34118 9.90493 22
680 2 3.34067 -10.3524 0.696775 21
681 2 2.23642 -11.587 8.01722 15
682 2 -0.0267759 0.398551 -3.60645 19
683 2 7.55973 -0.171902 10.1953 20
684 2 12.3222 5.7883 -6.85504 17
685 2 5.01515 12.2335 0.0363041 17
686 2 11.9205 -9.66725 3.95567 11
687 2 12.7616 -8.07017 -4.30252 15
688 2 6.63727 4.38877 -6.26093 23
689 2 8.57975 -5.20379 4.61861 20
690 2 5.69971 6.40268 14.2545 8
691 2 4.81815 3.6804 4.38371 21
692 2 13.4326 -2.29119 2.6566 20
693 2 7.44033 0.908379 -11.3838 14
694 2 15.9001 -1.9699 -6.44585 13
695 2 -3.47843 8.71024 3.22889 12
696 2 10.0811 -8.02588 -8.97479 13
697 2 4.06364 -0.636484 14.5962 12
698 2 -5.39801 7.66694 -5.56562 15
699 2 14.0808 -5.80157 -2.25965 16
700 2 12.1493 9.57442 4.76679 10
701 2 16.5023 5.47979 3.74797 11
702 2 17.036 2.61638 3.18136 13
703 2 -9.61461 -2.38333 -3.84412 10
704 2 -2.82432 6.01914 -3.19616 19
705 2 -4.12832 4.52863 -6.40354 20
706 2 -3.83254 -1.77943 -0.877685 21
707 2 14.7924 3.87262 -1.79126 15
708 2 -4.01883 7.4805 -0.895049 15
709 2 0.248099 -7.18599 11.0551 13
710 2 5.97078 0.989126 13.414 15
711 2 5.72392 -11.7154 -3.11791 16
712 2 5.74174 -7.77833 -10.5743 11
713 2 7.31691 13.1983 -1.27117 11
714 2 6.75823 9.23192 2.52398 22
715 2 -5.26445 -3.97311 -7.13466 10
716 2 -3.87141 -11.9523 -1.63895 14
717 2 13.0873 -2.16711 -2.02912 20
718 2 -3.45296 5.70958 1.44932 16
719 2 4.85444 -10.1999 6.12786 17
720 2 8.52631 -8.14019 5.72553 19
721 2 -2.99136 -4.87713 4.80376 19
722 2 4.16695 -9.33358 -4.32743 17
723 2 6.22645 4.40754 11.3323 18
724 2 4.95355 10.0133 -5.62725 17
725 2 -7.05872 9.06581 8.27002 7
726 2 8.66358 1.14177 1.0949 19
727 2 -1.53095 -9.23829 10.5607 9
728 2 -0.433111 12.1042 -0.798329 16
729 2 2.80883 -13.4796 0.121319 15
730 2 0.839658 -4.7893 9.42074 20
731 2 11.4949 1.01343 12.3376 9
732 2 -4.19585 2.73278 2.8539 20
733 2 3.17019 10.5556 -1.92788 20
734 2 3.26059 0.121769 7.70615 19
735 2 3.06361 -8.49087 -7.32558 22
736 2 15.8854 -1.97397 -4.02497 14
737 2 14.2013 -5.35551 -5.7481 14
738 2 1.06619 8.89717 -3.81851 18
739 2 -1.89311 -0.903592 13.2646 14
740 2 -8.09131 4.85435 -5.07771 9
741 2 11.2096 -5.76862 -5.48809 17
742 2 10.1758 3.65286 0.594031 18
743 2 -1.05336 1.06446 9.71967 16
744 2 2.1046 -2.91079 5.97271 21
745 2 4.33394 6.13532 -10.6627 11
746 2 -9.33611 0.940425 -4.82325 11
747 2 -0.631821 -3.34095 -10.9027 16
748 2 2.30516 6.0897 -2.39173 24
749 2 -3.29007 -1.48612 -11.1016 15
750 2 8.52524 -6.0603 -7.7627 20
751 2 -1.15502 -6.9113 -2.75897 22
752 2 2.17199 -8.53579 8.9141 20
753 2 -2.03221 3.77232 -8.472 23
754 2 7.81988 -2.25513 5.78249 19
755 2 7.28083 6.23831 4.07381 19
756 2 15.5508 -4.8893 -8.2452 8
757 2 4.94755 -13.683 2.56319 15
758 2 10.0263 4.5292 7.42415 19
759 2 -1.77376 9.97848 8.60068 16
760 2 -9.69009 -3.41432 -0.554592 13
761 2 10.7773 6.19875 -1.30882 21
762 2 11.3886 -8.73839 6.46637 18
763 2 -1.97916 11.1895 5.84353 13
764 2 10.2519 4.68272 -5.1546 19
765 2 7.12245 3.89834 2.5314 21
766 2 -6.42174 3.61146 4.76821 16
767 2 4.34365 5.64684 -7.79467 22
768 2 -2.52927 0.218344 0.874466 20
769 2 13.3715 -0.315798 -11.4123 11
770 2 -3.17712 -0.35173 8.03025 21
771 2 1.88336 2.96297 9.53398 20
772 2 14.5454 1.32865 7.4487 14
773 2 10.545 1.94439 -12.6078 10
774 2 -7.96948 -4.34402 -2.91218 10
775 2 5.22873 -7.42141 0.843288 19
776 2 14.5627 0.705654 -5.68102 16
777 2 -0.891556 6.26896 -0.438816 19
778 2 4.78178 -10.0244 -9.72963 12
779 2 -7.13192 6.10114 8.72551 12
780 2 -3.39481 -2.78647 2.80932 21
781 2 10.9242 -11.181 -3.49867 12
782 2 -0.0901264 -11.611 -6.76641 12
783 2 0.593782 -11.3232 -0.53637 18
784 2 14.532 -0.810747 0.734101 20
785 2 1.12375 5.34809 -10.7194 12
786 2 5.3051 6.49801 6.4472 23
787 2 0.270239 -12.8821 -3.39205 14
788 2 8.7692 0.272642 7.55576 20
789 2 0.0608892 5.18124 9.80046 16
790 2 -1.12214 3.69864 -2.25208 19
791 2 -4.32204 6.35577 -9.14557 15
792 2 5.37197 -10.5536 -6.71027 16
793 2 -5.9788 -9.48143 6.33248 9
794 2 -4.66442 9.16419 -3.11636 13
795 2 9.60836 8.29052 -6.80601 12
796 2 1.42622 4.80022 -6.52853 20
797 2 7.68235 3.59976 -0.964048 20
798 2 2.23331 -8.14461 -10.5227 10
799 2 5.72464 -7.24184 -5.73968 20
800 2 -9.67423 0.758637 -2.34437 11
801 2 14.0925 4.35966 8.08172 11
802 2 -0.27191 0.0109327 -11.4239 15
803 2 -7.56402 -7.69798 4.08694 11
804 2 11.0984 -1.11291 10.676 18
805 2 9.92734 1.92175 9.3992 18
806 2 13.4323 3.10972 -7.66301 12
807 2 1.73455 7.13846 -8.55127 17
808 2 -0.702201 11.9854 -5.78944 12
809 2 17.3258 -0.54445 1.97524 15
810 2 -2.04503 0.759441 -5.86263 22
811 2 6.17652 10.4997 -3.21858 20
812 2 2.94493 -3.04389 12.9249 17
813 2 0.360198 -4.28755 -7.93345 22
814 2 -2.21386 -4.33569 -2.4579 22
815 2 9.63116 -0.532707 13.6083 12
816 2 -0.223344 6.4094 2.75968 20
817 2 13.5888 -6.92052 2.81318 16
818 2 10.4755 -5.82422 -10.5389 13
819 2 3.22735 4.75496 11.7421 15
820 2 7.87503 -5.63347 7.75187 20
821 2 -0.317746 6.63379 -4.30709 21
822 2 1.95342 8.45129 6.74984 22
823 2 -1.18031 6.43599 -6.99189 20
824 2 7.7683 11.1884 1.61174 14
825 2 -3.74026 -6.6459 -4.57239 15
826 2 11.4484 -1.19022 -13.1317 12
827 2 -3.74114 5.40404 11.0637 11
828 2 16.9008 -4.38099 -2.30271 10
829 2 2.39224 9.67932 -6.54027 16
830 2 -5.38242 0.668754 6.19398 19
831 2 -2.27412 -11.8397 -4.2631 11
832 2 9.60908 7.94566 9.76197 11
833 2 -0.11417 -9.01455 -8.86643 13
834 2 -4.92323 3.68944 -10.1213 15
835 2 1.77022 0.612322 -6.10522 21
836 2 5.2827 -1.35509 -12.2562 12
837 2 -4.83326 9.82105 6.93195 12
838 2 -4.27449 7.63813 9.90015 14
839 2 4.93674 12.8818 -3.5481 14
840 2 -3.39312 -14.1309 0.458952 10
841 2 13.478 0.39877 -8.41431 17
842 2 8.99119 -3.13334 -6.71953 18
843 2 -2.89515 -10.7383 4.9798 16
844 2 -4.49065 2.94396 -4.09848 21
845 2 -3.16659 -8.06024 6.06926 19
846 2 2.35935 2.90651 -9.33233 17
847 2 9.01827 -6.81537 -0.795735 20
848 2 7.85114 -10.3086 7.27955 16
849 2 12.6283 2.16038 9.1686 13
850 2 9.48259 -5.3356 10.5763 15
851 2 0.193489 -1.66136 8.01128 19
852 2 8.98932 5.1986 -7.36169 21
853 2 9.17158 5.39986 11.1484 14
854 2 0.365832 -4.03608 -4.40579 21
855 2 -5.01204 -9.4029 0.217211 15
856 2 0.788969 -9.72836 6.03637 19
857 2 -5.24082 -0.0127907 1.44721 19
858 2 -1.69855 4.78902 -11.3196 12
859 2 -6.71559 -1.56354 -5.39285 15
860 2 1.31584 10.6679 4.27559 18
861 2 9.01959 -2.98635 8.54971 21
862 2 9.88471 7.7474 5.87875 19
863 2 -2.10567 -13.4796 3.58452 12
864 2 -8.38936 -4.74436 4.18692 17
865 2 -8.86664 -2.41829 6.92669 12
866 2 2.95711 -2.68329 9.39981 17
867 2 3.41906 -5.96038 11.2738 16
868 2 6.30371 -11.9352 4.83955 16
869 2 14.8404 -1.83838 6.30242 15
870 2 4.95509 -7.93983 -2.05255 21
871 2 2.50882 5.9446 0.765866 20
872 2 -2.62206 -1.7746 -7.5458 19
873 2 -2.59996 -2.5481 6.19119 23