ITEM: TIMESTEP
9000
ITEM: NUMBER OF ATOMS
2000
ITEM: BOX BOUNDS pp pp pp
-30.0 30.0
-30.0 30.0
-30.0 30.0
ITEM: ATOMS id type x y z Coordination
1 1 -5.37936 2.14061 -11.6918 22
2 1 -4.40899 -13.2103 -5.30501 18
3 1 3.99426 13.3634 10.5609 15
4 1 10.6477 -7.51847 6.51254 19
5 1 -11.5354 8.22008 1.8723 20
6 1 10.7056 -8.2634 -8.75644 18
7 1 -10.3182 3.59883 -5.85017 17
8 1 0.765802 -3.85013 10.1114 19
9 1 -7.3242 -0.819188 -11.8444 21
10 1 -15.2789 -6.63991 7.60141 12
11 1 18.5918 3.50779 -8.53359 9
12 1 -2.17142 -10.9526 2.35668 20
13 1 -14.2506 -6.25434 4.51558 19
14 1 0.99964 4.08673 16.393 15
15 1 -0.0540523 6.45654 7.92956 19
16 1 1.68131 12.1158 -9.9152 17
17 1 5.72219 5.22507 13.4182 21
18 1 -7.8952 -2.32595 -15.5995 11
19 1 -15.9293 -2.82669 11.8112 9
20 1 14.5528 2.0553 5.44132 19
21 1 0.952024 12.4321 -13.5829 12
22 1 6.26195 7.85541 -10.5921 20
23 1 16.6987 -0.668225 7.29382 9
24 1 -14.212 4.58906 -7.06444 10
25 1 -2.17687 -3.20432 -6.03796 22
26 1 -9.75782 7.9341 10.43 13
27 1 9.83751 -11.0146 4.99232 13
28 1 3.54536 -13.0587 -11.0193 12
29 1 11.4185 -10.8941 1.9845 12
30 1 -6.6285 -12.5356 -7.21351 14
31 1 -10.3426 -5.35232 10.997 15
32 1 0.998794 -7.64082 -10.138 19
33 1 7.25852 -8.12722 -9.10049 18
34 1 -3.90118 4.24171 -13.8614 17
35 1 9.40021 7.78741 15.6012 21
36 1 0.892185 -11.5279 6.97239 17
37 1 6.87229 -2.43364 11.1226 20
38 1 -13.6506 -1.0816 0.440603 19
39 1 -12.715 0.195203 8.47112 18
40 1 -10.6185 2.65952 0.161309 19
41 1 -2.99191 13.8315 -0.821242 19
42 1 0.405149 -11.1737 -10.6516 18
43 1 0.667295 1.60777 -11.1349 23
44 1 6.55552 -2.83581 -7.96696 21
45 1 6.61261 1.21554 17.6361 12
46 1 -12.8791 5.1041 2.22719 19
47 1 4.49868 12.0806 -8.40139 23
48 1 1.78623 14.6407 8.71521 15
49 1 -9.83215 7.85167 -9.12657 12
50 1 -2.10888 18.9106 2.12381 12
51 1 3.17754 -10.567 3.5393 16
52 1 7.80282 -5.87527 -2.92507 19
53 1 7.81839 -3.41649 -14.9765 12
54 1 -7.67307 5.56694 12.3877 17
55 1 -10.9698 -4.28014 -8.80635 15
56 1 8.1937 -0.672948 5.41195 19
57 1 -8.45268 11.1173 -5.07824 19
58 1 -6.70672 -8.30627 4.72949 20
59 1 -3.84541 15.315 7.2668 12
60 1 -12.5343 6.7477 -8.05433 11
61 1 -3.46415 11.003 14.4271 13
62 1 -6.24687 -11.3372 5.6462 21
63 1 3.24705 6.54605 8.29697 23
64 1 7.18402 -14.6553 -5.30542 11
65 1 8.11157 12.8069 14.4596 12
66 1 -10.0478 4.5927 -9.07896 19
67 1 -12.3893 3.12617 -9.60774 12
68 1 4.13976 10.0401 10.0558 22
69 1 13.9853 -2.31886 -11.927 7
70 1 12.0235 -8.35216 3.89219 15
71 1 -17.5248 -0.99706 6.59508 9
72 1 5.05695 16.8468 5.33212 14
73 1 2.67924 -2.48343 16.1098 11
74 1 -11.5323 -12.0461 5.10883 12
75 1 -10.9266 -1.09865 -2.10066 18
76 1 13.1098 6.22873 5.22646 18
77 1 -6.67725 13.8886 9.32034 12
78 1 6.87503 0.139428 8.14142 22
79 1 -1.23573 -5.93439 -8.49968 18
80 1 -12.9812 8.59743 10.025 9
81 1 -7.73043 10.3592 -1.23244 21
82 1 0.980794 5.91509 -7.86047 18
83 1 9.47525 -0.544543 -5.32797 17
84 1 9.09103 8.70684 -9.14771 17
85 1 13.9825 -2.09455 6.96099 17
86 1 3.74391 -9.58818 9.91134 15
87 1 -8.25977 14.7444 -5.56274 12
88 1 -12.8611 7.55687 7.31401 14
89 1 -8.04749 -0.810618 14.2533 15
90 1 -3.32092 8.23164 4.28857 18
91 1 -5.30391 -5.07531 10.0021 18
92 1 15.5695 -9.32599 -4.91568 9
93 1 -6.94253 2.39341 8.21513 19
94 1 -10.8059 -13.6496 2.11856 12
95 1 11.8231 -3.67069 -4.85065 19
96 1 7.19668 1.23298 -11.9781 21
97 1 -3.49007 -1.67542 -12.2974 21
98 1 0.195057 11.6044 2.50928 19
99 1 -9.85595 7.53987 -6.03529 21
100 1 4.64295 8.12033 16.1503 16
101 1 -0.210182 13.7886 -4.88147 20
102 1 -14.5239 9.77705 4.67039 13
103 1 2.24959 10.9022 -0.0723248 22
104 1 -4.68944 -6.15842 4.10318 21
105 1 13.0024 2.62903 10.5516 21
106 1 2.01513 -5.41943 -7.90286 24
107 1 3.86235 -3.5103 -10.3804 20
108 1 -3.20244 6.32723 7.50366 23
109 1 5.00769 -2.48388 13.655 16
110 1 -10.4796 -6.44397 -1.81642 19
111 1 -7.18988 -8.02452 -3.56176 20
112 1 9.77707 -8.112 2.91908 18
113 1 -1.16828 9.04267 2.13291 24
114 1 8.98515 5.63443 -15.5893 12
115 1 7.48602 17.2831 -4.04104 14
116 1 -7.98054 -11.2357 10.5688 10
117 1 -9.1795 -10.8759 6.73269 15
118 1 6.77398 -7.65988 -13.1675 13
119 1 5.98459 5.27691 -5.68172 18
120 1 13.163 -9.34101 -0.306099 12
121 1 -6.91539 -17.6154 3.38334 13
122 1 -12.8755 -7.69007 -1.55956 11
123 1 18.6754 4.06392 10.3644 9
124 1 16.5132 -2.44269 -9.44477 8
125 1 -15.455 -3.44957 5.96289 14
126 1 11.0058 11.6805 6.65467 16
127 1 18.3211 9.66018 3.65795 15
128 1 0.836102 0.741971 16.5793 18
129 1 -5.8409 9.03705 12.3397 16
130 1 -4.05123 11.6794 -5.94583 17
131 1 -0.873665 -3.87361 -13.3915 19
132 1 12.6988 -11.2715 -7.07026 10
133 1 1.87483 14.694 -11.4062 12
134 1 8.48446 -1.68617 13.3126 13
135 1 0.382448 1.00474 -15.8345 18
136 1 -0.963335 9.12893 -2.99018 26
137 1 12.8946 2.81197 -2.34678 17
138 1 -12.2759 5.75766 -4.67686 17
139 1 -5.93991 12.0833 0.399118 20
140 1 11.5889 -0.196319 -9.18321 18
141 1 8.31198 -5.53504 6.33167 19
142 1 -6.25663 2.46505 -6.02182 20
143 1 -10.375 9.82292 8.37976 14
144 1 14.7067 11.1071 -6.71318 11
145 1 7.37479 11.6071 -2.24843 21
146 1 -3.10725 17.0111 4.5837 11
147 1 12.7117 10.6001 1.59395 18
148 1 -2.28292 12.0911 -3.1909 22
149 1 3.64344 15.8088 -9.05712 16
150 1 -0.0176533 4.90813 -15.9203 11
151 1 -13.229 -8.37925 2.36725 13
152 1 -14.6121 8.13401 1.55858 14
153 1 -5.16755 -3.12249 -16.7067 12
154 1 3.85286 -8.5764 -14.4432 17
155 1 12.164 11.9115 11.1166 16
156 1 3.19309 17.8412 3.12644 12
157 1 -11.502 -0.986037 -6.31677 18
158 1 -12.6066 11.2041 2.74849 12
159 1 15.9945 1.90737 -2.21267 16
160 1 -7.30023 4.3271 -13.1941 15
161 1 11.9413 0.214369 14.8487 10
162 1 6.88052 17.8099 3.03373 11
163 1 3.24112 12.0518 7.21016 18
164 1 4.78901 -5.9248 -15.113 17
165 1 -3.2725 12.0777 7.92849 20
166 1 -0.682572 11.1925 -6.25682 22
167 1 4.5945 -5.80587 13.5206 11
168 1 -11.4704 -5.52636 3.84968 19
169 1 -1.47572 -9.79115 -12.6697 14
170 1 -9.09798 12.5668 -8.22627 10
171 1 -3.06506 -9.65301 4.71146 20
172 1 3.85457 -15.7521 -6.32739 10
173 1 2.05601 9.9886 -8.13301 18
174 1 -12.0196 0.146212 12.7257 13
175 1 13.0838 11.772 -1.8372 20
176 1 -4.97031 7.97489 15.6147 13
177 1 0.032572 -8.65819 10.4436 15
178 1 -11.7334 4.63746 -0.985344 19
179 1 1.12814 19.6164 1.51035 11
180 1 1.78251 9.05728 7.91267 21
181 1 14.348 7.97837 11.3173 22
182 1 -5.98966 11.9726 6.39483 14
183 1 16.6274 -5.51696 -7.44341 8
184 1 -4.09379 13.8468 10.3744 15
185 1 -4.24803 2.7664 -8.30796 20
186 1 14.879 -5.09083 2.4004 15
187 1 -8.66639 -5.85391 4.30082 20
188 1 -16.6382 -0.816789 2.46385 13
189 1 -9.75307 -5.11373 0.865998 19
190 1 11.105 5.27996 11.5852 21
191 1 -13.4099 1.75728 -1.25446 19
192 1 -1.67701 -14.4 2.78117 18
193 1 7.78909 -9.28343 -1.43387 20
194 1 -1.70239 10.915 5.13265 20
195 1 9.93758 14.3606 11.4511 12
196 1 -5.5992 -3.00097 -6.42801 19
197 1 -6.04671 13.1017 -7.81527 12
198 1 -15.7132 2.16986 -6.53437 11
199 1 -7.75518 -2.33311 11.4535 21
200 1 0.118128 -9.7054 4.80164 19
201 1 7.85919 -10.5853 7.49295 8
202 1 -10.1035 13.6499 3.57193 7
203 1 17.2382 4.21057 4.25635 13
204 1 8.16675 1.87989 -5.63216 21
205 1 -5.26966 -8.74049 -15.6253 9
206 1 5.28178 1.18306 10.7735 20
207 1 5.58395 -13.8057 2.55675 14
208 1 -0.499338 9.27325 -8.63492 18
209 1 5.37894 -10.7432 -13.2619 13
210 1 7.98631 3.04319 -14.5598 17
211 1 2.62341 9.80568 -13.5747 14
212 1 -6.11538 -7.02534 -6.59933 14
213 1 -1.27101 16.5791 -6.13141 12
214 1 -9.90322 -9.40744 9.8081 12
215 1 9.23364 16.7249 -2.0785 11
216 1 -3.33487 5.15797 18.4862 8
217 1 -5.67544 15.3779 -2.61506 14
218 1 12.7026 3.14176 7.21832 21
219 1 -3.7473 -6.02408 -17.3383 13
220 1 -2.12791 8.55789 -5.94072 20
221 1 2.21233 3.6311 -12.839 17
222 1 -6.19634 -12.2076 8.60824 20
223 1 -8.9269 5.18951 8.38326 20
224 1 -7.24716 10.8148 8.8407 17
225 1 4.17669 -8.07153 -8.8937 21
226 1 -7.30114 -12.1629 -1.328 18
227 1 10.6097 -11.2368 -1.31253 13
228 1 12.8753 10.5038 14.1157 11
229 1 10.1202 14.3377 -8.15092 14
230 1 -4.2722 9.05673 -3.41439 22
231 1 -7.86138 5.01393 4.63563 23
232 1 -13.0766 9.83487 -0.272615 11
233 1 2.05859 7.41594 10.7178 22
234 1 3.16925 -12.3468 0.816059 16
235 1 10.7682 2.54237 0.0675389 20
236 1 3.57791 7.86228 4.97535 21
237 1 -14.3729 3.30446 8.97405 13
238 1 -14.7873 -2.50837 -2.61267 13
239 1 9.91752 4.8643 -13.1404 16
240 1 3.34887 -1.28425 10.589 21
241 1 13.1654 6.92732 -11.4454 6
242 1 4.54351 -9.34493 -0.226262 19
243 1 -2.79202 -4.10527 -10.6679 21
244 1 -2.33044 -15.1891 6.12975 17
245 1 12.5452 -0.80216 -5.9911 19
246 1 -5.66584 0.407837 6.82139 22
247 1 3.9079 -15.838 0.301094 15
248 1 -8.08697 -9.18977 -10.794 15
249 1 6.44233 14.7473 -2.90098 22
250 1 2.48921 -2.70736 -13.0657 20
251 1 5.15689 5.42255 18.4609 12
252 1 17.2441 3.53371 1.21393 15
253 1 11.6706 -5.68596 -9.99286 14
254 1 -7.46714 -8.25117 -13.8063 9
255 1 -12.7347 0.00157748 -10.8336 12
256 1 -6.69987 -14.9348 9.21938 10
257 1 10.2859 2.69292 9.60508 20
258 1 1.61841 -2.66929 7.65068 20
259 1 -4.79124 -10.9041 -13.5235 9
260 1 2.29153 -8.52353 7.48274 18
261 1 3.97605 7.35867 -13.0347 16
262 1 5.48564 9.11677 2.71035 21
263 1 -6.24239 -5.62395 1.55076 20
264 1 1.84315 16.2448 6.15569 13
265 1 -4.4745 -1.96012 11.1881 19
266 1 -10.5099 -7.66802 -8.43173 11
267 1 -4.28875 -4.3834 -13.7504 20
268 1 -1.08912 10.3626 -14.2808 11
269 1 -5.03939 -9.89595 -5.83091 19
270 1 -1.27243 -8.28367 1.89456 22
271 1 4.53574 -3.76197 -15.6035 16
272 1 16.0612 1.96034 -10.5895 14
273 1 16.935 7.59777 5.65246 20
274 1 -8.01422 -4.2136 9.55658 19
275 1 -4.24969 -10.971 -0.00184341 21
276 1 12.1351 5.75595 17.766 9
277 1 -7.59444 -13.2103 3.76173 18
278 1 0.172202 -11.2908 1.05902 20
279 1 -0.445436 17.8022 -0.151156 15
280 1 13.5723 1.98577 -10.8823 15
281 1 -4.95551 -0.219586 -14.8562 19
282 1 -7.35564 -5.05466 12.4542 15
283 1 7.02131 7.47811 17.9028 12
284 1 3.93602 -11.5097 -2.02417 20
285 1 -3.20703 -12.1566 -11.2417 11
286 1 -7.0345 3.01973 -8.24324 18
287 1 14.1483 9.25585 5.63832 16
288 1 -5.4213 8.07681 -6.16747 18
289 1 4.2608 5.06053 -10.3641 19
290 1 9.59656 -10.2438 -7.72979 14
291 1 -4.86002 15.0667 -6.02177 14
292 1 5.50517 10.907 -0.118345 21
293 1 15.0367 -0.91827 4.33301 18
294 1 -12.6228 -2.67204 6.38046 20
295 1 -3.25769 -7.65971 9.85648 16
296 1 -6.52144 7.88322 4.53089 21
297 1 6.04676 -1.26274 -10.3801 20
298 1 18.3305 10.9625 -1.83151 11
299 1 5.373 -8.43009 3.11643 19
300 1 0.032558 -2.67848 15.8349 12
301 1 -14.0179 -3.23961 3.32466 17
302 1 1.01466 -16.9434 -4.39127 11
303 1 -2.45522 8.29264 13.1165 21
304 1 -4.17152 4.80331 15.6173 17
305 1 -15.19 -1.921 8.91924 15
306 1 -12.5 -6.24122 6.95702 20
307 1 14.5783 -2.32917 1.37193 19
308 1 -14.7749 -5.45152 9.84661 14
309 1 12.8106 -3.012 -8.06296 17
310 1 12.1974 -10.7241 -3.69602 15
311 1 5.86489 17.0535 -6.37777 13
312 1 -8.59462 13.8143 -2.75227 13
313 1 11.7173 7.66005 13.4439 19
314 1 -9.73514 0.114772 0.855315 20
315 1 10.8347 -7.87037 -2.10632 17
316 1 -2.84565 12.3431 2.07987 22
317 1 -6.23273 5.56558 7.9152 20
318 1 6.99549 -9.0821 9.87518 8
319 1 15.9649 -4.19911 5.43729 12
320 1 -1.65126 9.03335 7.678 21
321 1 -5.44092 -5.1852 -3.82745 24
322 1 -1.1954 0.0714684 13.2408 19
323 1 0.999529 13.8106 4.10304 16
324 1 10.0135 11.4055 16.3155 13
325 1 -6.1249 11.771 -3.8647 18
326 1 0.805472 -2.7409 -15.3761 18
327 1 8.2213 -9.58595 -10.9822 14
328 1 -4.73935 2.43423 17.9917 11
329 1 -12.441 2.72338 4.90308 20
330 1 -5.96761 -3.46593 -11.193 17
331 1 -4.74451 8.81008 1.32781 20
332 1 10.5796 0.0268492 7.5826 19
333 1 -15.0863 -9.30011 4.91957 10
334 1 10.8452 -4.0627 6.99538 17
335 1 -9.49784 -7.96991 12.1942 11
336 1 -16.6265 7.3479 4.50133 10
337 1 3.63578 -4.11823 11.0541 20
338 1 3.71741 -9.70618 -11.5061 18
339 1 -1.71022 0.440348 -8.78677 21
340 1 11.0784 -4.05273 -13.2541 9
341 1 1.1181 14.7213 0.395663 18
342 1 -8.46778 0.602202 -5.62295 19
343 1 8.53945 -5.90626 -7.82995 18
344 1 12.4452 4.24131 -12.3571 15
345 1 -5.56083 -16.0803 -5.02244 8
346 1 -13.5554 -3.69289 -6.43583 13
347 1 -2.73706 -8.9681 -0.514221 20
348 1 12.7997 9.5387 16.9496 8
349 1 11.2251 5.71951 -3.53561 17
350 1 -7.4175 6.08106 -7.36231 18
351 1 6.42463 16.7036 -0.401525 16
352 1 -14.6901 -1.08568 -5.86934 15
353 1 -8.54049 7.33237 6.98974 21
354 1 -7.07005 13.6037 2.5366 13
355 1 -4.27148 3.43624 7.77175 23
356 1 11.6171 4.93483 14.9854 16
357 1 11.2823 1.8786 -6.77179 18
358 1 3.57555 3.37706 14.9045 20
359 1 10.1693 1.9435 -10.5059 21
360 1 -7.36725 -14.2449 -3.83671 14
361 1 2.83944 -8.88425 -2.92116 19
362 1 2.2558 9.02932 2.56007 22
363 1 -10.5084 1.26438 -8.13464 19
364 1 7.90477 -12.452 -2.70893 13
365 1 14.0692 0.182023 8.12005 15
366 1 -8.73831 -2.92972 -6.80042 16
367 1 -8.16502 -8.04181 1.64022 21
368 1 -12.4735 -7.46353 10.3892 13
369 1 -1.03557 11.014 -0.281073 21
370 1 -7.04505 -9.62181 -0.480086 22
371 1 8.8998 10.0201 12.6045 19
372 1 -9.81347 8.7313 -2.28688 18
373 1 1.55238 13.8041 -7.19164 19
374 1 7.26706 14.1511 5.7823 22
375 1 -9.34693 -9.26189 -1.91606 19
376 1 -1.11445 -9.55647 -8.99611 19
377 1 -9.99924 0.220617 9.88667 19
378 1 -14.2811 6.90163 -2.06931 10
379 1 4.99252 -6.46038 6.19474 20
380 1 -4.32237 -14.2752 -1.75952 23
381 1 15.1772 12.09 11.7923 7
382 1 7.13246 11.5652 -11.8908 11
383 1 -10.309 3.48765 -12.3204 10
384 1 0.6342 16.5597 -8.61009 13
385 1 -9.55429 5.58519 -3.66502 19
386 1 -2.96402 -11.7565 6.7721 19
387 1 15.437 4.77591 6.95828 19
388 1 0.789885 7.29767 -13.8312 15
389 1 -0.928587 1.49423 10.635 22
390 1 -15.6908 1.57894 1.33939 15
391 1 -6.4375 3.7224 10.7651 21
392 1 -4.64607 -13.7024 3.51396 18
393 1 5.07203 -5.57608 -8.39262 21
394 1 -8.82583 2.19976 5.32223 19
395 1 -10.2598 -2.59736 12.1532 15
396 1 -15.7222 7.30234 7.48247 10
397 1 -0.0251478 -5.41939 7.33897 19
398 1 -8.14786 1.06302 -14.3655 14
399 1 10.118 -6.7152 -5.13375 18
400 1 2.17984 -10.6109 -8.58048 21
401 1 -2.27972 -4.37768 9.94586 19
402 1 -5.29689 2.15038 -16.4604 9
403 1 3.98179 -16.3022 4.32796 10
404 1 2.52616 11.664 -5.29078 22
405 1 -11.7002 9.62666 5.38809 18
406 1 -6.44284 -7.51696 13.5359 10
407 1 -8.8807 -6.21679 -11.2002 14
408 1 -6.61701 -5.79292 6.89784 22
409 1 9.74643 -2.56189 10.8671 14
410 1 3.17248 3.49649 -7.22766 21
411 1 14.3183 -7.53707 5.80168 8
412 1 17.2153 8.95209 -4.7668 11
413 1 -2.2623 0.241369 18.4327 8
414 1 -0.569019 15.2936 -2.25213 20
415 1 8.09333 -2.63991 8.29314 19
416 1 -1.91726 -13.0639 -4.05909 19
417 1 -2.13172 2.75516 16.4349 19
418 1 -1.09491 15.2868 6.21361 15
419 1 -5.49646 -9.3214 -9.24035 17
420 1 11.1623 12.9829 0.303253 17
421 1 5.22692 9.01467 7.06341 23
422 1 -6.71271 2.48297 13.1321 18
423 1 -4.07203 -7.73376 -3.57515 22
424 1 -9.17435 2.85399 10.3937 16
425 1 -9.7657 -8.38273 -5.39404 13
426 1 -5.18127 8.8362 7.64406 19
427 1 1.31695 -8.38791 -6.53813 22
428 1 -0.37908 -6.51635 -17.2599 12
429 1 -4.35247 -16.4032 1.69098 16
430 1 -6.6622 -3.25776 4.1538 21
431 1 10.1823 2.42835 5.94489 17
432 1 -4.02009 -5.71057 14.0494 11
433 1 -3.87498 9.00571 -9.4539 15
434 1 9.21661 5.71736 -0.795674 20
435 1 -5.51755 -13.2872 0.78465 18
436 1 2.57895 15.2516 -3.20124 20
437 1 1.56562 6.71202 -10.8068 17
438 1 -1.1574 7.58453 10.1368 20
439 1 -13.522 0.522324 -4.1191 20
440 1 4.38193 17.9395 -3.18265 15
441 1 7.79236 11.7114 -7.7343 19
442 1 -5.94681 -4.5711 -8.68411 19
443 1 6.67048 4.7762 16.0686 21
444 1 4.71966 -13.0978 -7.62892 16
445 1 0.129266 -2.81927 -8.33206 20
446 1 6.89741 -10.9592 3.54726 18
447 1 -9.48605 11.6736 0.864438 13
448 1 6.86831 7.84791 13.526 19
449 1 10.9015 8.44484 -0.274916 18
450 1 5.56607 8.99851 -3.06571 20
451 1 -8.24894 9.62153 -7.55402 18
452 1 4.30534 1.84662 -10.8556 20
453 1 2.09072 -8.45387 1.9134 19
454 1 -12.4231 -4.00799 -1.75732 19
455 1 5.095 15.3444 1.96487 19
456 1 -4.7494 5.8673 -8.7577 16
457 1 13.1901 8.43064 -2.44053 15
458 1 9.30665 17.2838 -6.47378 11
459 1 10.0884 -5.7007 3.90507 20
460 1 14.6445 6.25142 -3.50831 14
461 1 -0.976542 -1.52532 -10.6614 20
462 1 1.22632 -13.892 -1.34686 17
463 1 -0.611012 -14.4465 8.26874 11
464 1 1.70255 -6.79584 10.7107 16
465 1 -7.26615 0.0363128 -8.61793 18
466 1 -13.0974 -8.89234 7.94738 10
467 1 -0.229514 -11.8929 -6.33245 20
468 1 8.63407 17.3355 5.17091 9
469 1 -1.22128 6.13217 -10.522 19
470 1 2.2899 0.894907 13.4353 17
471 1 -12.3194 5.68069 11.8904 9
472 1 -1.29164 -16.6099 0.385256 14
473 1 -11.0951 -2.62645 0.504199 16
474 1 14.2219 -0.227044 -3.26713 18
475 1 10.7292 0.147522 -2.39899 22
476 1 -7.59216 8.47624 -3.92915 18
477 1 3.53494 -6.67788 -5.70314 21
478 1 3.37059 6.97791 -8.40205 19
479 1 12.8608 -2.91454 -2.08975 17
480 1 -5.52965 -2.98097 14.3443 15
481 1 10.5096 10.9695 -1.87416 21
482 1 -2.46378 -0.399079 -17.3179 12
483 1 5.83035 4.32991 -16.9805 13
484 1 -4.3635 -2.79919 7.88898 23
485 1 -3.21134 16.8428 -0.448892 18
486 1 -6.72691 -5.44994 -15.436 13
487 1 -17.3957 -0.538898 -0.742812 11
488 1 0.740477 -8.22738 -14.9102 15
489 1 -4.98516 -9.44266 11.5122 15
490 1 1.109 8.64238 -5.52532 22
491 1 15.7167 1.96056 10.3384 11
492 1 17.8877 7.25769 -2.12453 17
493 1 -10.7097 -10.044 0.476033 15
494 1 0.932795 -9.00434 -0.547744 20
495 1 0.474706 -0.354225 -13.3817 21
496 1 -4.96999 12.6041 12.4457 14
497 1 3.4051 -2.46143 -8.0843 24
498 1 12.5701 -0.542073 -0.22421 17
499 1 6.94789 14.7529 -8.35873 18
500 1 7.28785 -5.53142 2.45541 21
501 1 16.8652 5.78539 -6.49605 14
502 1 2.71749 11.2144 12.982 15
503 1 -7.38429 -2.87635 6.88223 15
504 1 8.18532 10.7289 5.27305 22
505 1 8.51526 1.58754 15.3117 14
506 1 4.76011 2.90431 -13.425 21
507 1 -1.89134 -9.09057 -6.1212 19
508 1 2.19635 1.14404 10.3283 20
509 1 10.2202 14.1703 5.9978 15
510 1 7.50931 8.21433 -5.85443 22
511 1 -2.0905 14.1051 -7.51681 19
512 1 3.9723 12.1587 -2.8303 20
513 1 11.09 0.148137 11.6915 16
514 1 14.7133 3.29966 -13.9009 7
515 1 14.7809 -6.8064 -5.44597 15
516 1 17.9625 9.31549 11.8449 9
517 1 -16.1973 -5.65443 2.54882 9
518 1 -6.39953 11.5366 -10.369 10
519 1 0.359239 4.46907 10.2501 23
520 1 -15.3607 0.643726 11.6261 8
521 1 -0.96739 14.1863 -10.8271 16
522 1 5.37419 -14.3024 -2.59411 14
523 1 7.93699 0.177607 -9.03451 20
524 1 -3.31618 15.5131 -3.36099 14
525 1 -5.98701 -6.43227 -11.5628 17
526 1 1.49772 -14.813 1.84154 20
527 1 -17.0448 -0.338753 -4.29587 11
528 1 3.69041 11.863 -11.7527 16
529 1 1.44574 9.29323 15.6141 12
530 1 -11.1877 -3.32466 8.77986 21
531 1 7.10767 8.34401 -0.454406 24
532 1 4.61226 -9.46827 -6.45939 20
533 1 5.07258 -6.7537 10.6002 14
534 1 -9.7348 4.82641 2.14622 20
535 1 8.81351 4.33566 18.0113 12
536 1 8.51299 13.9 -5.50649 20
537 1 11.4314 -5.34085 -2.21336 17
538 1 9.79988 11.7571 9.01044 18
539 1 2.88115 6.68884 -16.0636 14
540 1 -3.62334 -9.81764 8.23197 17
541 1 1.49687 0.547885 -8.08219 21
542 1 6.00171 0.088807 -15.5986 16
543 1 6.4097 11.5463 8.24781 24
544 1 11.165 6.19432 -7.38035 18
545 1 -1.69398 -1.56989 -14.5269 21
546 1 -2.6911 -10.8177 -3.44275 26
547 1 -8.39934 -3.62966 -13.1337 17
548 1 12.3999 5.68454 -0.766186 19
549 1 17.5826 4.41519 -2.44755 14
550 1 12.2742 -5.79189 -7.24776 18
551 1 16.8294 6.42209 12.8141 10
552 1 8.72578 -10.0347 -4.50654 18
553 1 5.97552 7.28081 -16.2383 11
554 1 8.80152 14.9411 2.99072 17
555 1 -7.87157 2.63018 2.23474 22
556 1 11.4429 13.3031 13.67 9
557 1 13.501 8.1084 -6.43402 13
558 1 12.2044 3.43521 3.37123 19
559 1 15.1436 2.32236 -7.55799 21
560 1 5.65111 1.51409 14.3415 19
561 1 14.9917 7.42741 7.96625 18
562 1 9.11545 -6.88449 8.62408 14
563 1 15.5837 13.599 -1.68776 12
564 1 3.52174 0.0086857 16.1289 17
565 1 17.4398 0.622998 -8.06342 11
566 1 9.8071 5.19616 8.33139 19
567 1 -3.68223 -2.02511 -8.64003 19
568 1 15.9393 6.00834 -0.198993 19
569 1 12.3633 -2.86688 3.90412 17
570 1 -4.13242 5.70236 12.6845 19
571 1 10.6862 8.56619 10.718 20
572 1 8.22522 6.03596 10.2005 19
573 1 5.52649 11.0533 5.29983 20
574 1 -1.86415 11.078 10.8942 23
575 1 8.20988 2.97433 8.1425 20
576 1 -1.67147 -17.3926 3.52133 14
577 1 -6.52474 15.6964 -0.0885153 10
578 1 11.7963 12.5217 -5.27492 20
579 1 8.74847 -0.73437 -14.3392 13
580 1 0.77598 18.317 -3.66864 13
581 1 1.84117 -13.7756 -8.10255 13
582 1 8.43288 -1.93167 -11.0458 18
583 1 -11.936 5.50687 8.98721 17
584 1 -1.61028 11.8399 -9.03363 17
585 1 -4.16349 -17.7737 5.14501 12
586 1 -4.66103 0.152648 -9.89617 21
587 1 -13.2347 2.97478 -4.1079 16
588 1 12.3446 -5.75918 1.38084 19
589 1 15.3519 8.66347 2.26117 20
590 1 -0.92674 -6.40588 13.4185 10
591 1 -14.1274 -2.46314 -9.24731 10
592 1 3.82197 1.3831 -17.8195 9
593 1 0.126798 2.66581 13.7853 21
594 1 8.8535 8.21729 -12.3683 13
595 1 17.9551 -3.78518 9.42768 4
596 1 9.27291 3.1419 -8.30014 19
597 1 15.7545 12.359 3.46434 13
598 1 7.96438 -14.2236 -8.36352 9
599 1 -13.011 -2.75542 10.9251 16
600 1 13.6784 0.747618 2.50976 19
601 1 -0.439251 11.0935 13.7747 16
602 1 8.53814 14.3921 -11.2378 10
603 1 -12.4761 8.90248 -4.10192 14
604 1 12.2672 13.7497 3.57763 13
605 1 -9.52439 -17.0822 1.09015 8
606 1 17.5757 -2.4109 2.46644 11
607 1 4.94368 18.6298 0.693861 10
608 1 -3.10181 2.11896 13.1614 20
609 1 -9.92977 -2.64765 3.73911 20
610 1 -8.44005 -3.86801 -9.89164 19
611 1 8.80178 5.42074 14.1858 19
612 1 -1.87231 -10.6051 10.4867 13
613 1 8.64871 9.16392 7.83444 20
614 1 -3.97198 10.594 -0.971665 22
615 1 10.3779 8.1988 6.08503 17
616 1 8.64169 5.60454 4.93229 20
617 1 2.90541 3.34671 -16.4364 15
618 1 -11.1752 2.52697 7.6779 20
619 1 11.4245 3.38876 -15.9387 7
620 1 12.4275 -8.74735 -5.95054 17
621 1 13.0222 9.21224 9.19889 16
622 1 6.56623 6.21684 7.85484 23
623 1 -5.26919 -0.473202 17.2422 12
624 1 15.8513 5.14259 10.4264 20
625 1 0.941613 -1.65519 11.9954 20
626 1 -1.64496 4.85301 13.921 18
627 1 1.68305 -5.55043 -13.0581 16
628 1 -4.86732 -0.12842 13.7691 20
629 1 6.89737 3.41608 11.1463 20
630 1 -8.4778 -14.0128 6.77407 16
631 1 15.7973 9.56631 -0.598913 20
632 1 6.17354 -11.7259 -4.95833 22
633 1 5.82992 11.4024 -5.22012 20
634 1 14.6412 11.7253 7.38761 12
635 1 5.50197 -1.3891 -13.0597 21
636 1 4.0717 14.0957 -0.671195 18
637 1 17.9976 8.64105 0.871865 17
638 1 -8.52275 -11.5766 1.17595 19
639 1 3.13532 -1.20455 -15.9962 17
640 1 -8.25175 8.45093 1.51338 16
641 1 10.0777 -3.02537 -7.96423 21
642 1 11.8128 10.0685 -7.94991 14
643 1 12.1896 14.5844 -1.99218 16
644 1 -6.28748 5.81593 1.62747 20
645 1 7.59001 6.24415 -3.32642 21
646 1 14.1834 1.1211 13.3073 12
647 1 14.9714 -4.91643 11.0996 5
648 1 1.03598 -11.8378 10.0752 12
649 1 -4.04162 9.88852 -12.4039 11
650 1 7.22464 12.2465 10.7873 17
651 1 9.31957 -6.65072 -11.2435 14
652 1 3.69598 4.01514 10.9099 21
653 1 10.8573 15.6444 -4.74755 16
654 1 6.83535 12.4269 2.43803 21
655 1 16.4344 -6.4889 -2.87916 9
656 1 10.4578 8.16875 18.1142 10
657 1 -10.9894 0.018035 3.65421 17
658 1 6.04464 -12.7987 -0.0300192 14
659 1 2.76355 -0.755797 -10.57 23
660 1 -8.55399 10.1299 5.23154 15
661 1 4.23956 13.6099 4.18531 14
662 1 -16.0521 -3.22334 0.63008 14
663 1 -2.03887 7.55556 16.0253 12
664 1 -1.06867 9.27837 -11.6634 15
665 1 -6.32725 8.25561 -10.6639 15
666 1 3.54635 -17.1422 -3.23696 9
667 1 11.0046 8.26503 -4.91986 20
668 1 -11.3359 2.9636 13.4499 10
669 1 2.9605 0.759042 -13.9632 20
670 1 4.35156 -11.8753 8.27513 13
671 1 3.54211 11.9853 1.87774 19
672 1 -2.39235 -0.512629 15.7766 16
673 1 -6.50002 -11.6824 -10.4999 10
674 1 -2.25196 -8.30454 -14.8194 12
675 1 -3.3617 -11.4965 -7.8609 17
676 1 2.04003 17.158 -5.96932 15
677 1 8.52028 -3.51674 -5.20196 22
678 1 -1.51486 15.1486 9.61741 12
679 1 5.79991 -8.70236 -4.05383 21
680 1 1.9278 -17.8908 1.71993 12
681 1 5.13586 -2.54517 8.25608 23
682 1 13.2598 1.5781 -4.83367 17
683 1 2.63865 -12.9853 -4.62291 17
684 1 -9.92941 -0.458662 6.53291 20
685 1 -3.82208 -17.5133 -1.26103 10
686 1 -5.16041 -11.1156 -2.90212 23
687 1 -10.4888 -0.0772633 15.4862 8
688 1 -7.05687 -15.9414 -1.5456 13
689 1 19.2556 6.32961 -5.15809 8
690 1 2.28429 17.5231 -1.12546 17
691 1 -16.4538 4.53343 6.26025 11
692 1 10.577 -0.301647 3.62732 16
693 1 -11.2798 -3.11889 -11.2869 14
694 1 0.787404 12.1051 -2.76444 19
695 1 14.4365 -0.61633 -8.92001 18
696 1 8.22029 14.4397 8.66227 13
697 1 8.70909 4.64166 -5.77469 21
698 1 -13.8035 1.001 -7.93935 17
699 1 -10.6203 -3.19966 -4.35881 18
700 1 2.3645 6.39108 16.4004 14
701 1 7.38839 5.99685 -8.3431 22
702 1 16.8083 10.2868 9.60016 13
703 1 -1.98582 -1.24504 10.1053 22
704 1 -0.958172 -15.6256 -2.51116 16
705 1 -6.72677 -18.1552 0.5562 9
706 1 -3.20512 -5.89044 7.28842 19
707 1 12.3276 13.5205 8.86989 12
708 1 6.49785 -6.18276 -5.75476 19
709 1 -6.18477 7.70237 -1.08452 23
710 1 8.82656 8.6898 2.85756 20
711 1 -7.62084 -2.54755 1.35191 22
712 1 9.44726 5.6053 -10.5087 18
713 1 -1.77309 -15.1411 -5.86995 12
714 1 1.30419 -16.4123 4.40499 15
715 1 -0.583893 -17.5025 6.35431 9
716 1 6.15321 2.64379 -7.61018 23
717 1 9.4449 13.4871 -3.01289 23
718 1 -2.75347 1.30655 -12.7862 24
719 1 2.19222 4.96737 12.9103 21
720 1 -1.69343 6.75068 -13.3428 14
721 1 -10.0628 -0.729164 -12.9265 15
722 1 -8.60703 -5.19969 -4.31456 19
723 1 4.1031 14.4728 -5.94317 20
724 1 -2.41479 -3.61782 -16.5833 14
725 1 -7.35526 -6.49643 -1.3617 22
726 1 10.182 11.8653 -10.7666 11
727 1 14.3141 -8.18224 2.20691 11
728 1 -2.87207 3.98265 10.5997 20
729 1 7.68567 -8.33741 5.23388 23
730 1 16.7871 -4.16394 -0.568751 12
731 1 13.0961 -1.99296 12.0152 9
732 1 1.40832 10.7729 5.07133 19
733 1 -7.56788 1.92703 16.3648 11
734 1 -7.18402 4.88969 15.6914 10
735 1 -7.19151 -17.3085 6.51666 11
736 1 10.8478 5.58204 2.08294 22
737 1 5.73402 10.452 12.3207 20
738 1 -15.8054 1.94227 -1.93785 14
739 1 9.39353 -6.44601 -0.259089 19
740 1 -10.6181 11.3275 -2.50127 15
741 1 -3.25647 -13.5616 9.28875 12
742 1 10.2901 3.22698 12.8613 18
743 1 -4.27982 13.4698 4.54217 16
744 1 0.308104 -12.7052 3.72051 13
745 1 -7.40164 -2.10484 -4.34744 18
746 1 5.08163 6.87003 11.0072 24
747 1 -13.8617 -5.63601 -3.78586 9
748 1 0.190322 7.52245 13.5467 21
749 1 7.4388 13.6887 -0.0544002 20
750 1 -13.4018 -11.5462 2.43448 8
751 1 -5.68661 -14.8049 6.46647 20
752 1 8.13106 -5.60028 11.7606 10
753 1 13.8221 -5.40169 7.21063 13
754 1 9.70729 12.5033 2.97747 18
755 1 -0.123163 -6.34897 -5.32288 20
756 1 -2.2023 3.00084 -10.5713 22
757 1 -2.43523 -2.98264 13.2167 18
758 1 -1.29832 15.292 1.60282 20
759 1 14.2661 5.75203 2.40912 17
760 1 4.10563 8.35039 -5.68506 21
761 1 0.47276 9.60007 11.219 20
762 1 7.22657 8.52895 10.3053 21
763 1 7.25825 4.03408 -11.1568 24
764 1 -9.09513 -10.2601 3.62804 18
765 1 16.9689 0.982839 3.61028 13
766 1 4.6803 0.603093 -7.82734 20
767 1 3.39493 7.88281 13.5255 20
768 1 6.80616 -10.8745 -7.89973 17
769 1 6.0496 9.42009 -13.6349 15
770 1 -0.274346 -8.19506 -3.26512 20
771 1 15.1992 5.59231 -9.251 10
772 1 17.5574 -1.02852 -2.13719 8
773 1 2.00544 -4.45227 13.5717 15
774 1 -1.38147 -6.66146 -11.786 17
775 1 8.67494 10.6335 0.395167 23
776 1 -16.5327 1.52799 4.70974 12
777 1 14.0583 4.75042 -6.40788 14
778 1 18.7456 6.59224 3.15601 12
779 1 4.273 -6.84703 -11.5985 19
780 1 -4.45141 10.3454 10.1686 19
781 1 17.7896 6.67771 9.34728 17
782 1 13.9539 13.868 -4.75307 12
783 1 6.25614 5.89544 -13.3671 22
784 1 10.8893 -3.35702 0.386002 19
785 1 -12.9971 1.86677 2.18458 19
786 1 12.4431 8.43886 3.33459 17
787 1 -13.2654 -5.73934 0.984854 18
788 1 -10.8821 10.3895 -6.05677 13
789 1 5.33469 3.38694 8.23979 21
790 1 -10.1612 -1.46669 -9.49099 20
791 1 -10.9229 4.82542 5.63658 20
792 1 -4.2697 5.44528 -5.92851 20
793 1 13.9513 -8.00758 -8.47484 13
794 1 -11.5611 -6.30652 -5.9542 12
795 1 14.029 -6.1537 -0.883724 16
796 1 -15.6112 1.49818 7.42895 13
797 1 -8.50845 -11.3511 -4.52701 15
798 1 19.9117 8.73916 6.93087 8
799 1 -6.01554 -10.9616 2.52134 24
800 1 13.5916 2.78714 16.0495 8
801 1 11.8574 -2.61597 8.7931 13
802 1 12.3855 0.325558 5.56356 19
803 1 -13.3109 6.68505 4.71084 21
804 1 0.747888 13.1945 11.5818 16
805 1 5.99093 9.25586 -7.5346 18
806 1 2.78664 -7.3695 -17.3055 11
807 1 -4.8695 10.9712 3.6124 16
808 1 -10.986 -8.22349 5.07017 17
809 1 8.9921 8.95534 -3.05965 21
810 1 0.0414519 11.6391 8.26758 20
811 1 16.0653 -0.599922 -5.87089 14
812 1 6.87152 -5.06648 8.78834 18
813 1 -4.02463 13.6687 -10.5177 11
814 1 3.78212 9.20332 -10.5092 20
815 1 -4.5528 1.29255 10.3743 24
816 1 19.4824 5.60115 6.80007 10
817 1 1.02299 -4.57458 -10.3359 21
818 1 17.0592 11.9458 0.89441 15
819 1 -15.0319 4.64164 0.478716 16
820 1 -6.78422 -8.92335 8.57394 19
821 1 5.41632 13.8791 -11.0265 13
822 1 6.49431 -1.36703 15.7464 12
823 1 -2.01511 -12.5527 -0.692014 20
824 1 -4.36113 15.2733 2.16629 15
825 1 -15.2154 4.27326 3.58015 16
826 1 15.4416 -3.23725 -4.64622 15
827 1 1.46572 -11.0797 -13.3523 12
828 1 -9.85582 7.31098 4.18757 18
829 1 15.6213 11.0589 -3.43571 15
830 1 -7.64911 -0.264832 3.86318 21
831 1 6.57702 -4.44897 -12.4453 19
832 1 -3.39885 -7.77038 -9.69344 13
833 1 0.721862 -11.442 -2.83571 18
834 1 -2.18936 13.312 12.6219 15
835 1 9.0346 -12.8184 1.72925 11
836 1 -2.35674 12.7435 -13.4448 9
837 1 17.6335 2.91931 -5.34288 14
838 1 7.48869 6.37169 2.2415 19
839 1 1.65002 -17.0707 -0.995863 15
840 1 2.73375 -4.50199 -17.501 11
841 1 14.4022 3.48911 0.468638 18
842 1 1.43391 3.67728 -9.78811 19
843 1 -0.968855 -8.4894 7.5535 20
844 1 9.34781 10.8912 -5.34413 21
845 1 12.3428 3.79627 -9.26445 22
846 1 -7.64407 3.13063 -3.31881 22
847 1 -12.4168 2.70178 10.9526 17
848 1 3.409 2.22403 18.0992 13
849 1 -8.97725 -7.61423 7.40434 17
850 1 6.64467 7.64693 4.99229 24
851 1 2.27204 -14.7799 7.05009 12
852 1 2.5081 9.1523 -2.85399 22
853 1 -4.49075 6.57738 10.2495 22
854 1 -7.34712 -0.69499 9.14077 21
855 1 -8.92902 12.4496 6.9113 11
856 1 9.49548 3.42071 -2.79942 18
857 1 -2.85944 -8.62418 13.2861 11
858 1 5.06182 -10.2841 6.20966 18
859 1 12.8453 5.6843 9.16938 22
860 1 9.24847 -2.68847 -2.16688 23
861 1 6.68614 -12.7329 -11.1089 9
862 1 -8.51708 1.37872 -10.7876 20
863 1 -2.19548 2.23328 -15.8256 14
864 1 3.55529 17.6253 8.71491 6
865 1 -13.873 -5.25557 13.0562 8
866 1 -6.04452 5.93453 -3.20857 21
867 1 -10.4373 2.55177 -3.06725 22
868 1 14.0646 13.4025 1.23481 13
869 1 -9.35683 -16.0732 3.94443 11
870 1 0.20683 8.18401 4.77322 22
871 1 16.7784 11.0769 6.24106 13
872 1 -8.45715 -10.2489 -7.62839 15
873 1 5.0544 14.7544 8.10077 16
874 1 -7.17291 0.536112 11.3821 20
875 1 -1.77062 -13.3605 -8.33216 14
876 1 14.032 4.72923 12.437 17