ITEM: TIMESTEP
28000
ITEM: NUMBER OF ATOMS
1000
ITEM: BOX BOUNDS pp pp pp
-30.0 30.0
-30.0 30.0
-30.0 30.0
ITEM: ATOMS id type x y z Coordination
1 1 -4.74321 -8.22754 -5.7246 16
2 1 7.11714 -10.537 7.02126 11
3 1 -10.8509 7.28155 2.87442 11
4 1 -8.50179 4.73508 -3.23837 19
5 1 0.28938 -8.58803 11.1378 16
6 1 -5.64853 1.82334 -11.159 13
7 1 -6.81152 -8.75518 3.36837 23
8 1 3.05432 -2.62275 9.54177 20
9 1 -2.21592 1.7912 10.6947 15
10 1 9.01674 -2.01315 4.18487 19
11 1 5.06214 12.6845 -5.79229 10
12 1 -0.96049 0.812939 15.9222 13
13 1 -5.47929 1.84102 2.63952 19
14 1 -3.20399 -2.06182 -8.0519 20
15 1 3.79465 -3.00424 12.3186 18
16 1 3.63689 -5.01453 -5.9899 21
17 1 2.13088 5.46627 14.5057 11
18 1 -4.82692 -11.4235 7.2016 13
19 1 -7.83575 -0.49269 6.0706 20
20 1 -7.6253 -1.91908 -0.612349 18
21 1 -0.826578 13.3262 -1.37352 16
22 1 2.81022 1.54706 -8.61792 18
23 1 5.86767 -3.0993 -10.6475 14
24 1 -0.498183 -5.82114 13.8013 10
25 1 -10.7795 3.9364 3.78562 16
26 1 -2.56145 10.3419 -0.147587 17
27 1 3.25959 -11.9659 2.68436 15
28 1 7.25034 -9.9722 -4.81967 15
29 1 7.84002 1.19847 5.107 21
30 1 -3.56981 7.58203 -4.84714 16
31 1 -1.93553 9.78636 -5.61281 18
32 1 2.92121 6.05358 11.6069 17
33 1 -8.66654 2.55332 1.45165 20
34 1 5.49106 -0.566513 10.9241 17
35 1 -7.26012 0.585282 9.8805 17
36 1 12.1229 -0.0180537 6.15477 13
37 1 8.77148 -2.1939 -0.172726 19
38 1 2.62239 2.14849 7.53274 18
39 1 -8.1147 -10.1266 5.91235 12
40 1 -1.82247 -8.86307 -6.66399 21
41 1 -5.31143 10.9963 -1.28785 12
42 1 -0.64439 6.83165 -4.84891 20
43 1 5.43681 -2.07902 -5.3508 21
44 1 8.29711 -6.84836 3.37193 19
45 1 4.20216 -10.8219 8.92934 10
46 1 -6.1493 7.4857 6.78219 16
47 1 -6.53207 -7.22444 11.7366 11
48 1 -5.20975 2.37017 9.92049 18
49 1 7.51213 -7.46199 -7.40708 16
50 1 4.89303 -0.0129009 -11.5504 15
51 1 -3.56676 11.4334 4.68207 12
52 1 0.148188 3.76963 -12.8514 14
53 1 1.55434 7.2736 0.265186 20
54 1 -2.48878 -8.52829 7.24125 19
55 1 1.23792 -0.595211 -7.21668 21
56 1 3.44292 -8.64611 -8.58419 16
57 1 2.28478 2.0692 16.0829 8
58 1 -9.81364 -7.45461 3.06664 16
59 1 7.06291 -4.37784 4.55829 22
60 1 -6.0895 -5.25424 -4.62639 18
61 1 7.89513 -10.0322 3.13359 12
62 1 -2.97761 6.09457 5.7535 20
63 1 4.26109 1.15604 -6.08279 19
64 1 9.92104 -5.58045 -0.573667 16
65 1 -4.41943 -9.06741 -0.116528 17
66 1 9.15507 10.9911 2.07008 10
67 1 13.8579 4.47089 -5.31629 10
68 1 -7.23157 9.89599 -3.57424 9
69 1 2.52463 -7.68317 -11.0643 12
70 1 -0.174669 8.80218 -2.34948 20
71 1 12.635 2.5008 -7.51362 11
72 1 4.53885 5.58098 -8.06182 16
73 1 7.48631 -8.18004 5.57567 16
74 1 -7.77217 1.78346 -4.85944 14
75 1 11.3498 7.56162 -1.68131 11
76 1 12.3973 1.49664 -2.43732 21
77 1 0.787795 11.9487 -3.84626 14
78 1 -5.30006 -8.56692 -11.4866 5
79 1 -10.4791 -3.22668 -2.93073 10
80 1 -2.25447 6.05171 14.4844 12
81 1 -1.15464 12.9824 -5.17391 11
82 1 6.85045 -3.15126 12.6073 9
83 1 -10.6255 -1.30392 7.31054 13
84 1 -3.00338 -13.9941 5.07587 11
85 1 3.99434 10.5003 -0.75627 21
86 1 14.9362 -2.69893 5.19331 11
87 1 -2.31653 -10.0577 9.43745 13
88 1 -4.32564 2.29947 -3.11267 21
89 1 1.8672 8.14609 10.1721 17
90 1 -4.77756 -0.360363 -6.02078 22
91 1 -6.34386 -5.89996 3.7232 20
92 1 -5.36873 -14.0376 2.71114 14
93 1 5.31726 -7.25272 -3.40359 19
94 1 -0.895486 7.89736 2.91895 20
95 1 -7.60062 -0.251876 2.59256 18
96 1 -7.38149 -7.45405 -5.67524 12
97 1 8.17952 -5.35108 8.94381 14
98 1 5.13166 3.80369 -5.67593 19
99 1 4.20735 -0.280984 7.74219 20
100 1 1.57915 8.36363 -5.10736 22
101 1 -2.26089 -6.46218 -5.08644 21
102 1 -3.23318 8.73267 -2.47449 19
103 1 4.12532 -0.0667448 13.2286 11
104 1 0.388619 10.8212 -7.33668 9
105 1 4.98275 3.72364 -11.082 13
106 1 -3.0526 5.29619 11.1094 19
107 1 -5.37187 6.7889 12.8659 10
108 1 2.01964 -12.9852 -4.97739 14
109 1 2.01901 -6.1609 -3.97217 22
110 1 10.1588 9.92685 -4.07394 13
111 1 -1.51548 13.9439 4.00639 9
112 1 -11.3495 1.47035 1.16334 12
113 1 0.496177 3.16406 10.9325 15
114 1 10.9499 -2.23689 1.67871 21
115 1 4.54521 5.74426 8.59117 22
116 1 -9.0162 4.83342 6.09256 15
117 1 -12.9027 -7.14393 1.75492 8
118 1 -2.05668 -3.00013 11.4172 16
119 1 0.362685 -7.90412 2.60369 19
120 1 1.14521 -2.78659 -13.6946 12
121 1 8.59711 -2.39374 -5.52261 20
122 1 -10.237 2.2593 7.005 14
123 1 -5.44348 -8.98104 -8.27415 12
124 1 -3.66927 -4.95395 3.34652 20
125 1 -2.54011 -10.8624 4.59893 20
126 1 -1.98927 -4.8649 -7.40621 22
127 1 -7.09375 3.91099 -8.8645 10
128 1 5.39542 5.04767 13.2878 9
129 1 8.82394 -1.60043 10.3088 12
130 1 -1.37956 -5.5579 6.8436 21
131 1 7.17499 8.29664 1.86798 15
132 1 -8.75366 -7.56329 8.64378 9
133 1 2.77238 11.6412 2.63095 17
134 1 -3.09915 -8.26054 -9.53368 15
135 1 -3.38864 -11.3455 -1.2734 19
136 1 -5.17143 -5.92745 1.14252 22
137 1 11.2601 4.48098 1.94684 16
138 1 -3.5771 -5.78391 -2.13109 23
139 1 -7.85891 -2.23186 8.70125 15
140 1 -1.1664 -9.5369 1.03426 22
141 1 -3.88739 -8.52245 2.49417 23
142 1 3.1663 -12.0656 -1.704 16
143 1 -4.36691 4.98138 -10.9501 14
144 1 10.2797 6.02236 7.61605 13
145 1 -2.25082 1.28863 -5.7229 18
146 1 3.52336 9.67578 -7.417 12
147 1 -1.85399 -2.5298 8.23591 22
148 1 2.4963 11.1689 8.59885 11
149 1 11.9314 3.39779 5.931 11
150 1 -4.67253 1.99301 6.1544 18
151 1 0.808047 -7.39551 8.26773 21
152 1 -8.02487 6.69403 8.47423 11
153 1 0.329226 -4.03691 -8.44587 18
154 1 4.41706 -7.76325 -0.0328573 20
155 1 11.5867 -2.73954 -10.0386 10
156 1 -2.77625 -3.17315 5.49425 20
157 1 -0.69617 3.69621 15.3058 14
158 1 -7.8001 2.78096 4.32778 22
159 1 12.7098 -4.1609 -3.31536 12
160 1 -1.42216 12.4763 1.6214 14
161 1 -0.727932 8.32919 5.58179 17
162 1 2.57903 -11.367 5.78245 16
163 1 -0.184049 5.51943 12.2767 17
164 1 -7.93239 -1.63024 -4.97367 13
165 1 -3.19355 9.304 7.19465 17
166 1 -6.27816 4.37331 -5.60875 14
167 1 -10.2029 0.694684 4.60409 17
168 1 -3.64499 -3.39727 -4.81967 21
169 1 -4.18073 8.37116 1.58572 17
170 1 8.77624 -2.55435 7.1435 19
171 1 3.37674 -8.36745 10.2607 15
172 1 1.82547 -0.931787 14.7015 15
173 1 2.91141 -9.24801 -2.85298 18
174 1 -1.89173 0.799543 -8.45035 19
175 1 -10.2969 -9.01721 0.542665 14
176 1 -2.0856 -6.57572 0.932409 23
177 1 15.593 1.85681 1.10631 11
178 1 -0.591437 6.29868 -10.9742 13
179 1 -8.49173 3.49708 10.6417 14
180 1 -8.33741 7.44899 -2.76662 15
181 1 -0.817754 6.48884 8.59052 22
182 1 11.3513 -3.74689 -6.86756 15
183 1 10.0843 -0.255243 -7.83944 17
184 1 -6.05387 2.43709 -0.454215 19
185 1 -1.96051 -10.8469 -4.57721 19
186 1 3.98418 13.0132 6.86795 8
187 1 -6.85654 6.90706 -5.86331 17
188 1 5.84064 -10.0046 -1.99994 15
189 1 12.7014 -3.39107 10.7686 10
190 1 -5.98433 -3.11002 -7.4601 15
191 1 -8.58143 -11.2274 2.27126 14
192 1 -4.63909 6.65399 -1.00592 19
193 1 -7.086 8.13331 -0.0905026 20
194 1 0.558204 -5.68526 -12.9797 12
195 1 0.0294183 -12.1438 3.21069 18
196 1 -4.36192 -13.9837 -0.382482 14
197 1 -6.45922 7.06835 -9.33514 8
198 1 0.475711 -13.9396 5.90954 8
199 1 -4.81794 -2.58144 13.1859 16
200 1 -3.63578 4.41289 7.94828 18
201 1 -0.054057 -4.41316 -4.98313 24
202 1 0.708786 -0.659645 8.30656 19
203 1 -8.70993 1.72494 12.6077 10
204 1 -2.6711 -8.36102 12.1083 11
205 1 -3.76958 -5.85944 12.4971 18
206 1 1.30602 -9.61441 -6.2384 20
207 1 7.54058 -8.30153 0.29811 18
208 1 -3.08465 12.2105 -2.95869 14
209 1 -4.00441 -6.93974 9.69063 18
210 1 11.2769 -5.21578 8.7441 15
211 1 9.84241 3.70908 -1.61564 20
212 1 3.32308 -3.4192 -8.36193 19
213 1 9.7385 -5.36781 5.67244 18
214 1 -7.49929 -0.908521 12.9262 10
215 1 1.05722 14.0841 1.49475 13
216 1 9.31685 -7.71473 7.68408 10
217 1 -1.49914 -14.0186 -1.58492 16
218 1 0.0250305 10.4779 3.49424 17
219 1 -5.33408 -0.860633 7.62715 19
220 1 -8.1017 -11.3835 -0.957224 12
221 1 -6.81643 -12.605 -3.71064 9
222 1 -4.51869 7.60918 9.42092 16
223 1 -3.94774 -13.371 -3.75614 12
224 1 -4.16956 -5.28597 6.77691 21
225 1 8.77608 3.20428 7.35272 15
226 1 13.2405 3.33462 -0.594011 16
227 1 4.61593 6.90755 -5.38343 21
228 1 1.82554 5.05615 -5.80485 21
229 1 5.51295 7.60807 10.9482 15
230 1 -6.24169 -0.216756 -2.98596 17
231 1 4.40889 10.3482 -4.34907 19
232 1 -4.50445 -11.3692 -6.00601 10
233 1 -2.56054 -6.51547 -12.4067 11
234 1 11.3644 7.04577 -4.96822 16
235 1 3.68431 8.94226 2.30672 21
236 1 5.84149 -0.629637 -8.20559 20
237 1 3.27552 -8.49411 6.73623 19
238 1 -3.24162 2.98244 -13.7708 11
239 1 12.0798 4.57792 -3.37096 15
240 1 6.70091 -5.16773 -0.889032 18
241 1 2.05204 0.47483 -13.5886 10
242 1 1.78699 -6.46916 5.53007 21
243 1 1.35972 -11.004 8.80911 15
244 1 -5.39003 1.75307 -7.60177 14
245 1 0.477355 1.54019 -10.47 18
246 1 -11.2821 -5.80863 4.929 10
247 1 10.5627 -0.849946 -4.37366 19
248 1 -1.63077 7.32376 0.246904 21
249 1 9.26396 -8.73117 -2.23158 10
250 1 -0.231161 3.69079 -8.25635 20
251 1 13.6673 -1.76351 -4.37022 16
252 1 -6.71824 -5.49442 8.82062 18
253 1 -5.8539 11.1521 1.88465 12
254 1 6.63514 9.83467 -6.17806 16
255 1 14.3466 1.20246 -5.19924 12
256 1 -0.121495 -10.868 -1.73033 19
257 1 0.812405 -6.7091 -6.65507 21
258 1 4.87142 6.99412 -0.124035 21
259 1 15.9214 -1.76339 1.17119 10
260 1 0.21527 -8.52163 -3.49016 18
261 1 -8.64825 5.46125 13.0836 7
262 1 -4.03736 -4.38886 -10.2266 14
263 1 -1.36684 -2.44196 14.6597 15
264 1 7.45072 5.5173 -7.16927 21
265 1 -11.2114 5.54148 -2.88662 11
266 1 2.18437 12.8435 -1.16064 16
267 1 -3.9031 -1.07775 10.2715 18
268 1 5.44106 -11.0601 0.891643 13
269 1 7.04712 -5.22813 -4.54099 18
270 1 -11.1707 -6.03625 -0.537882 12
271 1 -11.6276 -0.271695 -1.51793 8
272 1 -10.4774 0.205482 9.68395 10
273 1 9.36644 13.33 -2.22314 8
274 1 5.93508 -9.75858 -7.50339 12
275 1 3.56797 -5.36709 8.00822 20
276 1 7.05844 -0.622157 -3.2538 23
277 1 -8.72961 8.41163 5.66442 13
278 1 9.67002 -5.88134 -5.34097 14
279 1 2.18547 7.44857 7.24247 23
280 1 -1.61878 -3.71178 -12.6179 10
281 1 7.58364 4.71144 -9.94391 14
282 1 -0.796888 -6.92629 -9.84646 17
283 1 -0.360361 -12.0329 -7.25688 13
284 1 14.6332 0.235335 -1.17306 16
285 1 10.5105 -5.94287 -8.80622 8
286 1 4.05209 -10.6677 -5.04004 18
287 1 9.46777 10.1798 -1.02591 15
288 1 -7.7011 4.89063 -0.505575 21
289 1 15.1837 2.76807 -2.59315 12
290 1 0.780405 -2.49119 11.5532 18
291 1 7.40479 6.14391 7.94632 20
292 1 -8.83177 0.898397 -1.03326 20
293 1 13.0236 6.55888 1.13594 8
294 1 14.1715 -3.84706 2.21925 16
295 1 -1.6459 12.4595 6.90529 11
296 1 6.02239 2.97865 7.89971 17
297 1 -4.87845 11.3808 -5.84234 8
298 1 -0.791493 -14.3021 -4.81085 10
299 1 -2.42918 6.2936 -8.95695 14
300 1 -3.48781 -0.39229 -12.2982 12
301 1 -9.65789 5.46051 -6.11179 8
302 1 11.16 -5.16765 2.48491 16
303 1 -1.00553 -5.18124 10.341 20
304 1 10.6276 3.12541 -9.77349 13
305 1 14.4405 -1.79646 8.3971 10
306 1 7.25592 12.4618 -0.462149 16
307 1 12.531 -5.02597 -0.321416 14
308 1 -0.853759 -0.0268622 12.8706 18
309 1 -8.88224 -4.17564 6.71179 17
310 1 -5.25043 -1.00428 -9.66939 14
311 1 4.57678 2.49917 10.719 14
312 1 -9.08132 9.51187 2.39744 12
313 1 9.40399 3.89186 4.07275 23
314 1 6.50182 4.57085 4.90631 21
315 1 -7.76185 2.69694 7.59511 20
316 1 6.19736 -4.00107 -7.50904 19
317 1 -4.54553 -5.99737 -7.55308 18
318 1 5.92317 11.0032 7.93808 9
319 1 5.37332 8.33085 8.0428 18
320 1 1.98557 -5.79875 10.7623 18
321 1 -2.39079 2.88369 13.0532 19
322 1 -6.76906 1.41016 15.1252 9
323 1 -2.35543 5.30855 -2.68452 22
324 1 7.30101 11.3656 -3.54191 19
325 1 1.99602 -0.0593553 11.4114 21
326 1 5.23741 13.5264 -2.56327 16
327 1 -7.45088 -13.8036 -0.016695 11
328 1 8.08719 5.3366 1.86781 19
329 1 -0.59439 2.76081 7.4951 21
330 1 -5.7043 5.52759 1.70191 18
331 1 9.00294 4.83086 -4.58945 18
332 1 1.58014 4.68977 8.12438 18
333 1 5.97816 11.1643 2.41449 16
334 1 1.36047 -1.46111 -9.81861 15
335 1 -2.8217 10.4164 10.0185 9
336 1 12.3083 -1.65393 -1.26595 23
337 1 8.38444 7.13756 5.17518 14
338 1 -10.1036 -1.08557 1.84461 14
339 1 2.18258 -10.2575 0.67731 20
340 1 9.46208 8.30458 -7.09312 12
341 1 5.79465 -6.16619 2.29126 21
342 1 2.08428 7.70708 4.45975 21
343 1 4.06629 -1.91704 -13.5658 9
344 1 5.20163 -7.42334 -6.02632 20
345 1 -1.06816 8.20074 11.7442 11
346 1 4.82592 -7.01974 4.74333 20
347 1 2.14981 4.46883 -10.1591 12
348 1 -2.25516 -11.83 1.54111 21
349 1 -2.51341 0.452188 7.21251 19
350 1 12.3645 0.631223 1.07729 16
351 1 -4.7522 8.64512 -7.9404 9
352 1 8.49373 2.82926 -7.59506 18
353 1 10.9537 4.87095 -6.77827 16
354 1 -2.1035 4.37059 -6.07391 17
355 1 -4.75845 -3.87071 15.9323 8
356 1 -5.12477 -8.53773 5.76508 22
357 1 3.01337 -11.5353 -8.08922 12
358 1 -10.135 7.52758 -0.295999 13
359 1 10.3709 8.03943 1.68788 13
360 1 -7.97234 -6.91243 5.90894 18
361 1 7.68112 7.67094 -4.50516 18
362 1 -3.96906 -0.498082 15.7253 11
363 1 -11.7762 -3.83656 1.41323 10
364 1 9.34908 2.09852 -3.38903 19
365 1 -6.29254 -7.04962 -2.72456 16
366 1 12.3167 -2.36377 4.59665 20
367 1 3.18211 -8.80556 3.49279 22
368 1 -0.00810668 9.45976 8.38818 19
369 1 -5.85939 5.03671 9.91258 17
370 1 9.36256 2.21311 1.08139 20
371 1 9.62431 -3.59051 -2.72693 17
372 1 5.00012 7.32491 5.12799 19
373 1 4.48136 10.2106 5.12182 16
374 1 -1.83525 -12.1878 7.29975 14
375 1 -5.80823 -2.78061 2.17282 18
376 1 1.98963 2.50013 13.1541 21
377 1 4.28767 13.4382 0.69531 13
378 1 6.85365 -8.41547 9.13417 11
379 1 12.8068 -5.18771 5.52445 12
380 1 8.75239 8.84633 9.2948 9
381 1 0.855756 10.3507 -0.102689 19
382 1 0.215067 -9.66143 -9.03269 15
383 1 -0.835319 0.160815 -13.8129 11
384 1 -6.93529 -4.01586 11.3513 15
385 1 10.7914 0.957548 3.85275 19
386 1 2.38847 14.3909 -4.50665 9
387 1 8.06445 -1.5938 -9.948 15
388 1 -2.27179 -14.879 1.82641 11
389 1 -8.71938 -5.21119 -1.71536 15
390 1 5.20775 -6.16522 -9.22291 16
391 1 -2.79493 -8.59773 -3.059 19
392 1 5.22626 -5.61068 10.9447 16
393 1 0.368749 -9.49088 5.64935 21
394 1 10.8711 -0.0423752 -11.1293 9
395 1 -6.29553 10.0127 4.42821 11
396 1 15.1224 -3.38687 -1.21176 11
397 1 -10.3879 2.58932 -3.16407 11
398 1 11.1438 6.43257 4.29848 13
399 1 6.72059 4.27051 10.6605 11
400 1 -8.92532 -4.03649 -5.95835 8
401 1 -2.13917 3.09409 -11.0202 20
402 1 8.12643 -4.02935 1.57387 21
403 1 -8.5719 -9.45869 -2.48575 10
404 1 -7.57541 -8.08596 0.21284 21
405 1 14.3203 -4.5603 7.87507 9
406 1 -11.0333 -2.49266 4.36155 10
407 1 6.48952 8.27698 -9.14587 10
408 1 10.3349 -4.00807 11.9377 8
409 1 -7.06965 -4.49988 14.1965 11
410 1 -1.44474 -1.77393 -10.3234 16
411 1 -5.65482 -11.2416 1.41224 22
412 1 5.86106 -2.94749 8.05705 21
413 1 0.395809 -12.5562 0.23337 19
414 1 12.5932 -0.774943 -7.22275 14
415 1 -8.24354 5.89216 3.07632 21
416 1 -6.01888 4.84333 14.823 10
417 1 1.34416 -14.9098 -2.26595 8
418 1 7.70454 6.18592 -1.72277 16
419 1 10.2946 0.256494 -1.57893 20
420 1 1.06674 -3.16444 6.58276 20
421 1 3.04258 8.28213 -2.37372 22
422 1 7.78414 1.59871 -10.8989 16
423 1 -10.8444 4.63139 0.5517 16
424 1 4.73766 5.12346 -2.86664 20
425 1 0.790965 12.1062 5.65858 14
426 1 6.42217 9.06933 -2.24698 17
427 1 -3.82864 2.85089 15.7765 12
428 1 7.16136 0.76779 -5.94626 20
429 1 5.56545 -10.8756 4.49625 16
430 1 -3.97629 -3.8802 9.3775 18
431 1 10.9869 -0.759681 8.88366 11
432 1 9.92616 -9.13627 -5.73632 9
433 1 0.263599 7.77792 -7.79957 14
434 1 -0.00640353 5.0362 5.38455 24
435 1 -2.40216 5.85038 2.94163 21
436 1 -2.56098 -7.13008 4.3399 22
437 1 10.4045 -7.67894 0.899949 10
438 1 2.62784 -4.23115 -11.1866 16
439 1 -8.08206 -5.25468 0.90466 16
440 1 -5.49451 5.64595 -3.21138 19
441 1 7.59187 -0.0153176 7.75954 18
442 1 -5.64355 -11.3253 4.71984 17
443 1 14.0938 -0.42038 3.24333 17
444 1 6.02646 2.34067 -8.31046 21
445 2 -6.61044 2.28671 -6.1959 14
446 2 -3.5955 10.6698 -2.16397 18
447 2 -0.280102 -4.15514 -13.7272 11
448 2 -2.73684 1.16072 15.481 14
449 2 -7.57622 -8.17856 -3.44238 13
450 2 5.10153 3.88261 11.9253 13
451 2 -8.49559 4.8637 1.47138 22
452 2 11.3028 4.39173 4.26152 15
453 2 -3.20006 -0.47037 -9.7393 19
454 2 -5.26441 -12.2566 -4.54075 11
455 2 -3.28697 3.44544 -1.84083 21
456 2 -6.31181 -4.69823 2.02089 19
457 2 3.06173 3.8859 6.97734 20
458 2 10.0903 -1.28676 -10.2043 13
459 2 7.54015 -0.492692 4.29487 21
460 2 -1.77017 11.9117 -0.0062073 17
461 2 12.2497 1.51927 5.26611 14
462 2 -7.00088 -7.18529 9.62411 12
463 2 -3.99556 -9.3521 4.44428 21
464 2 12.3555 -4.79152 7.28634 14
465 2 -10.6781 3.14662 1.90147 16
466 2 -5.48771 4.57237 -0.216177 20
467 2 -2.96116 5.91145 9.27961 19
468 2 5.33142 -1.97355 -3.3663 21
469 2 -4.53218 -2.88351 -9.30914 15
470 2 5.57706 -7.81523 -7.72628 17
471 2 6.8887 -3.54635 -5.72319 19
472 2 16.4294 0.187737 0.508337 8
473 2 -3.85008 9.25499 8.97475 11
474 2 -3.2621 -9.95198 -5.40999 16
475 2 4.83983 -8.7458 9.12868 14
476 2 10.626 -1.12358 4.99099 17
477 2 -10.8538 -2.75298 2.63795 11
478 2 8.44477 7.52299 3.0374 17
479 2 3.9916 -9.89027 1.88995 16
480 2 1.59158 5.24994 4.12886 22
481 2 6.77754 7.46884 6.3409 20
482 2 4.45323 9.7176 -2.38573 18
483 2 -7.2492 -0.512014 8.16982 19
484 2 0.916093 3.73841 -6.70502 19
485 2 -8.55054 2.88243 -3.70568 18
486 2 -7.31049 1.81051 2.66426 18
487 2 -11.4407 -7.77929 0.568925 11
488 2 2.59891 -6.94928 8.45125 19
489 2 0.229053 -6.64312 11.0331 16
490 2 -1.82961 6.74787 12.6198 14
491 2 -3.85574 3.68476 10.5096 14
492 2 4.34844 -8.27515 -2.00467 21
493 2 11.2417 4.01204 -8.39794 11
494 2 0.506218 -13.9014 -0.887525 10
495 2 4.01571 -6.45165 -4.8968 19
496 2 4.24253 11.7449 8.63928 9
497 2 7.25937 -9.08111 -2.97555 14
498 2 0.860596 2.89307 8.8956 16
499 2 -8.31 -8.66651 7.0264 12
500 2 13.6452 -1.05619 5.08547 14
501 2 1.27731 -9.32835 3.91501 22
502 2 14.7052 -3.00129 -3.20997 10
503 2 -5.52439 -10.4132 -7.19732 10
504 2 -6.02028 -12.1683 3.12654 16
505 2 -4.30988 -6.70643 3.24071 22
506 2 -3.05185 -3.40513 2.31475 22
507 2 -1.65476 8.69093 -4.0759 20
508 2 5.60332 -0.341456 -6.15418 20
509 2 14.085 2.71585 -6.40371 12
510 2 8.99608 4.25764 -6.51977 22
511 2 -7.92207 5.30057 10.0394 13
512 2 -10.0163 5.67026 3.62159 14
513 2 -4.68631 -4.55581 13.8672 15
514 2 -8.79431 3.51507 12.7996 11
515 2 -8.03784 -3.76139 -0.959078 15
516 2 9.93682 1.52593 -10.7214 13
517 2 12.201 -2.27957 -3.12647 20
518 2 9.23677 3.93725 1.94139 21
519 2 -0.510657 14.0022 2.48014 13
520 2 -6.9243 8.66245 5.6101 13
521 2 12.4424 0.44521 -0.831079 19
522 2 3.15787 8.21387 -0.335827 21
523 2 5.48125 12.2129 -4.1174 15
524 2 -1.91919 1.51709 8.68321 18
525 2 -1.85093 -6.87927 13.0583 12
526 2 1.58843 -5.07138 -5.85207 20
527 2 0.964434 1.33723 12.1601 21
528 2 4.09695 4.98923 -9.86245 12
529 2 -6.07626 -10.1546 6.19762 14
530 2 -1.13973 -11.5103 -0.154565 20
531 2 -1.90318 -4.55614 -5.47374 25
532 2 6.48632 -9.69244 -0.410683 15
533 2 11.2518 0.605973 -3.53455 19
534 2 -2.59364 5.09496 -10.5457 15
535 2 -0.757703 13.103 5.34259 12
536 2 -9.01921 -9.76521 -0.624658 11
537 2 12.0711 5.02222 -5.28875 14
538 2 2.86578 13.5783 1.93355 13
539 2 3.65376 7.80662 10.6719 14
540 2 -1.27518 -9.91845 -2.90066 18
541 2 6.03666 6.83996 9.15802 15
542 2 14.7416 -1.53804 -0.600433 16
543 2 8.2456 5.34414 4.39217 22
544 2 -0.88333 9.41147 -7.11345 14
545 2 8.6852 -3.01088 11.7412 9
546 2 -0.351769 -11.5422 8.22289 14
547 2 6.49413 -11.0377 2.56411 12
548 2 -6.47628 9.71938 -1.52026 16
549 2 -4.10333 -11.4958 0.648185 19
550 2 -0.301202 -0.176686 -9.71574 16
551 2 -0.538607 -10.1169 -6.21013 18
552 2 5.04034 11.5491 6.23352 12
553 2 -12.4498 -5.28246 0.874594 7
554 2 -8.01288 2.65272 -0.280663 19
555 2 9.17277 -0.895218 8.12947 15
556 2 -2.62651 -14.7779 -0.137755 14
557 2 2.24714 -0.160153 -9.17626 15
558 2 -2.82935 -4.74578 -11.6459 13
559 2 -3.84772 -7.56494 -11.7518 10
560 2 -6.29791 -3.41266 9.60958 18
561 2 -4.696 -9.29259 -10.0006 7
562 2 0.410911 -2.52416 -6.0656 21
563 2 5.0806 -1.84851 -11.9535 10
564 2 -7.51268 -5.00501 5.511 15
565 2 7.46885 -6.29503 -5.89474 18
566 2 -4.89795 -7.01959 -4.35397 19
567 2 4.94614 8.95678 -8.56022 11
568 2 1.67711 11.3598 4.14 19
569 2 10.6962 1.34782 1.84503 18
570 2 -8.46699 -6.57483 -0.375617 19
571 2 -4.77511 -5.59124 8.66489 19
572 2 -1.06387 2.59386 -9.61477 18
573 2 2.57527 6.19112 8.65676 20
574 2 -6.70172 -7.56342 4.7852 20
575 2 -4.14188 5.67127 2.6459 18
576 2 -7.76902 1.47503 6.10851 23
577 2 -3.23071 -10.9536 8.01894 14
578 2 -10.2257 -0.864636 5.4751 16
579 2 -5.71434 -9.51946 2.14646 21
580 2 -5.88804 -1.15256 3.53961 18
581 2 11.4802 -4.89596 10.6869 9
582 2 6.47077 7.45436 -1.23532 18
583 2 6.73602 9.47275 -4.3005 20
584 2 5.88541 2.27408 -6.16272 18
585 2 0.539639 13.5523 -0.145832 15
586 2 -6.06524 -7.46633 -7.18407 13
587 2 -5.69068 -1.02125 -7.54392 14
588 2 -3.38418 -13.0497 -1.9055 17
589 2 7.25818 -10.0444 4.96388 14
590 2 12.1885 -3.66203 1.81998 17
591 2 -7.28144 8.1968 -4.41357 13
592 2 7.98197 0.875054 -4.14006 20
593 2 5.42931 -1.4215 12.9283 12
594 2 -0.0938963 -5.86156 -8.39653 19
595 2 4.69595 5.35696 4.5042 20
596 2 3.95711 7.60032 6.85159 19
597 2 -0.20278 -0.798145 14.6168 15
598 2 -6.12918 6.50761 8.69747 13
599 2 6.68937 6.77312 -6.00529 20
600 2 -6.94373 -13.1812 -1.66291 11
601 2 -5.73879 -5.12828 -2.49161 17
602 2 -8.89248 0.772374 10.9082 14
603 2 10.5715 9.45839 -2.32784 11
604 2 9.9952 3.78743 -3.53742 17
605 2 8.33689 -8.31781 2.03478 14
606 2 -10.7433 -0.287423 0.237463 15
607 2 -2.54858 7.54389 2.05611 17
608 2 0.186136 11.5977 -5.66751 13
609 2 4.70863 0.948291 -8.50241 18
610 2 -10.0972 3.87577 -1.78021 17
611 2 -8.06922 -6.40929 2.48041 18
612 2 8.64023 -4.0797 -0.687376 20
613 2 9.28064 -7.57184 -0.743025 14
614 2 -7.26821 10.1733 2.74609 12
615 2 0.303278 -4.90828 6.00671 19
616 2 -10.0795 5.08947 -4.39248 11
617 2 -1.41227 -6.99558 2.89245 20
618 2 1.54813 4.65667 11.9355 18
619 2 0.552222 1.9386 -13.6808 12
620 2 4.80891 10.8492 -6.25628 12
621 2 6.66811 3.02032 -10.3549 14
622 2 0.397951 8.73655 3.94695 20
623 2 -6.59079 -4.29334 16.056 7
624 2 -7.17425 -5.66607 12.4417 12
625 2 -2.6149 -4.12804 7.27107 19
626 2 -11.2149 -1.87148 -2.04302 9
627 2 -8.55263 -5.635 7.97322 14
628 2 0.666844 6.78024 -6.07044 19
629 2 9.92715 -1.05656 -6.0848 17
630 2 2.70535 -3.15649 7.66187 19
631 2 4.2629 -4.46798 -10.1183 13
632 2 8.2647 4.66985 -0.842512 17
633 2 2.22906 12.375 6.99036 12
634 2 3.25085 -2.72281 -6.6173 20
635 2 -7.54404 -1.47379 1.07484 17
636 2 -3.08598 12.071 -5.11472 11
637 2 -2.32362 4.12461 14.4782 16
638 2 1.42509 -11.8962 1.93763 18
639 2 -3.87557 -12.2888 5.36384 16
640 2 -0.85511 -1.82879 12.4671 16
641 2 6.9273 6.40212 -9.02482 14
642 2 4.48266 10.492 3.14247 18
643 2 4.23421 -8.96309 4.99815 20
644 2 8.20274 -8.91211 -6.17371 12
645 2 -0.728359 7.1594 -9.25898 11
646 2 3.72954 5.78779 13.5451 11
647 2 -1.32355 3.37554 11.5915 18
648 2 6.64218 -6.53026 4.13803 19
649 2 2.73172 -3.09012 -12.9786 14
650 2 11.7559 -2.25238 -8.10619 13
651 2 -4.48164 10.325 0.978992 17
652 2 4.47243 -10.087 -8.49142 12
653 2 0.453085 2.16763 15.9225 14
654 2 -6.25758 7.57705 -7.58189 12
655 2 12.6913 -3.51461 -5.35053 13
656 2 5.7759 12.4301 0.870694 15
657 2 11.8117 6.51835 2.58919 12
658 2 12.201 -0.829581 2.58911 19
659 2 -10.3397 1.24918 -2.02603 12
660 2 -3.51682 1.18415 -7.10655 18
661 2 -5.45204 3.87808 -4.02336 19
662 2 14.0294 3.96686 -3.60543 12
663 2 -10.3325 7.05056 -2.05989 12
664 2 -1.30113 -9.75471 11.0762 11
665 2 -4.56384 -1.98887 15.0453 12
666 2 5.50302 -9.4434 -5.64946 20
667 2 0.907799 -0.960793 -14.1284 10
668 2 4.08576 12.7043 -1.24466 15
669 2 7.29848 13.4166 -2.3408 10
670 2 -3.26976 -1.63787 -6.07746 21
671 2 -5.85432 -14.3327 0.871264 12
672 2 7.69663 1.70664 7.14105 15
673 2 -10.9892 6.37552 1.13766 15
674 2 3.02389 -10.4661 7.45969 17
675 2 9.13684 -2.35808 2.23952 20
676 2 -0.610436 -6.23845 8.53533 18
677 2 -5.75141 -7.58991 0.237169 21
678 2 1.99774 9.40086 8.79926 14
679 2 2.63413 10.9005 0.451593 21
680 2 -9.66352 3.84977 7.62664 13
681 2 -1.67537 -9.69769 5.82586 20
682 2 -2.36738 12.1365 3.54805 14
683 2 2.07782 -13.1986 -3.11223 16
684 2 1.58536 -1.2752 9.83988 18
685 2 5.1559 3.89348 9.3851 16
686 2 -5.06644 6.26539 5.71163 17
687 2 -5.70285 7.29692 0.760491 18
688 2 0.00854317 5.36462 14.3528 13
689 2 0.426023 -13.4438 -6.15617 12
690 2 10.518 -1.6355 -0.346199 23
691 2 9.88473 -9.67256 -3.75125 6
692 2 -3.34258 8.42709 -0.593111 19
693 2 -7.71542 0.661645 13.7582 9
694 2 -7.98202 5.02742 -6.68302 15
695 2 14.3629 -4.42587 0.159074 12
696 2 7.40394 10.7047 -1.70831 20
697 2 -3.87975 -2.35064 11.653 18
698 2 3.01645 0.642025 14.8859 12
699 2 3.72573 5.28602 -6.29117 18
700 2 -9.49662 -2.61978 -4.64658 9
701 2 -3.12529 -5.72353 -8.73491 20
702 2 1.04916 7.96546 -3.355 18
703 2 -4.49133 3.35766 -12.1895 11
704 2 2.17905 -8.09965 -7.10562 25
705 2 0.524041 -8.59892 0.894296 20
706 2 7.71646 -7.02518 8.90024 12
707 2 4.50243 -1.53791 9.36726 18
708 2 9.03243 -1.56779 -3.29516 21
709 2 4.08198 -12.069 4.46955 13
710 2 7.34339 10.1991 1.68655 14
711 2 -0.334183 11.0031 7.1507 17
712 2 -9.52329 -6.80993 4.85407 17
713 2 10.7577 6.92317 -6.79209 12
714 2 3.89727 -6.18107 6.15888 18
715 2 -7.76176 4.85812 4.7369 20
716 2 5.24562 3.59143 -3.62411 17
717 2 4.5351 1.64705 7.48723 18
718 2 -5.23909 3.40911 7.49608 17
719 2 3.8208 14.1249 -5.62155 6
720 2 6.7644 -0.0896511 -10.6181 14
721 2 -4.21513 0.0987055 6.18681 21
722 2 -5.49194 0.429751 16.2053 7
723 2 14.1489 -3.45773 9.66849 9
724 2 11.9015 0.75866 -8.27819 15
725 2 -4.66872 -3.98847 -6.39014 21
726 2 1.81708 -10.1326 -1.35972 20
727 2 13.7895 -0.525357 -5.79017 14
728 2 2.21009 7.42353 2.38338 20
729 2 1.05076 -8.54397 -10.2449 12
730 2 -5.63802 2.97221 15.069 12
731 2 -9.47958 0.366288 2.76908 19
732 2 4.67555 -11.238 -3.08916 15
733 2 3.0316 -11.8503 -6.12753 15
734 2 -1.66226 -10.6753 2.93793 21
735 2 15.3901 -2.13644 3.07003 13
736 2 1.65734 9.25273 -7.90122 11
737 2 8.93083 12.2283 0.528342 11
738 2 -2.3176 -12.9207 -4.52973 14
739 2 2.60726 -1.70464 13.2169 17
740 2 -2.4092 0.925023 12.2423 17
741 2 -4.26099 7.09489 -2.92768 18
742 2 -2.41232 5.78614 -5.06107 14
743 2 1.11079 -11.1994 -8.36653 13
744 2 -3.38195 -14.7369 3.28776 11
745 2 -9.39613 8.20444 3.94189 12
746 2 9.55373 8.69669 -5.0874 15
747 2 -1.82956 4.57412 -7.96408 18
748 2 4.21621 7.02625 -3.42489 24
749 2 -1.36517 -8.53536 -8.80066 18
750 2 -0.350145 -6.86466 -5.00388 21
751 2 -7.67382 -2.88752 -6.68445 10
752 2 9.12019 6.9042 8.79348 11
753 2 -2.42469 1.00626 -13.3029 13
754 2 -10.463 -3.57209 5.55859 10
755 2 7.76157 -3.92035 7.9401 15
756 2 7.2736 4.3361 7.43438 19
757 2 11.7895 3.2646 -1.91018 19
758 2 2.03758 13.2062 -3.1488 14
759 2 -3.95482 9.60286 -6.31257 11
760 2 13.6171 -4.1434 4.3457 13
761 2 -0.530739 0.0389005 -6.85739 22
762 2 7.57204 8.91434 -7.47751 12
763 2 2.55182 3.5411 14.9568 12
764 2 -3.26068 -7.42228 -6.73237 19
765 2 3.95745 0.709287 11.1437 18
766 2 -0.120473 4.97507 7.26095 21
767 2 2.85039 -6.34217 0.0871617 19
768 2 8.96579 -6.91948 -8.31018 10
769 2 -4.94395 6.21553 11.178 13
770 2 8.30136 -9.22425 7.42597 10
771 2 3.49939 8.44356 -5.63167 19
772 2 7.34502 9.7981 8.40725 10
773 2 -7.07044 5.86806 -4.1606 16
774 2 -1.2582 12.9494 -3.07396 12
775 2 -2.87649 -8.3948 0.796072 23
776 2 1.72553 -3.25099 -9.37011 16
777 2 -4.39118 5.9523 14.4563 11
778 2 14.6829 1.04447 -3.15716 14
779 2 -5.66068 11.1 -3.77312 10
780 2 -7.58231 -2.33798 6.59169 17
781 2 -7.82013 -11.1646 -2.91363 9
782 2 -1.2972 9.6582 10.2762 13
783 2 -0.650189 -6.79828 -11.9223 13
784 2 -6.1936 5.32856 -10.0463 10
785 2 1.75995 2.69481 -9.97757 14
786 2 -1.71742 -1.74479 -12.3543 13
787 2 -8.66624 6.73976 6.74915 13
788 2 0.092578 7.28108 10.6059 17
789 2 9.52364 11.6613 -3.03196 11
790 2 -1.51311 -13.1688 2.56608 18
791 2 8.40195 0.882153 -7.63443 21
792 2 10.7961 -4.4003 -9.86979 8
793 2 -7.65611 -11.9344 0.839457 16
794 2 -8.95641 8.75037 0.725132 14
795 2 -2.95687 -8.33431 9.0822 17
796 2 0.440025 4.76523 -11.3212 13
797 2 1.14375 -12.4349 5.08422 16
798 2 12.8723 -0.477477 8.39773 10
799 2 9.14775 -7.16382 5.35707 15
800 2 -2.84934 -5.16785 10.7133 19
801 2 8.9581 3.84299 -9.37169 14
802 2 6.11071 6.33935 11.9634 10
803 2 -2.10161 -6.99887 -2.88563 17
804 2 -8.67909 -9.1353 1.74773 17
805 2 -8.34011 -10.4879 4.10272 14
806 2 -3.82079 -2.01462 8.67002 19
807 2 -4.14984 7.30183 -9.04794 10
808 2 -7.77407 -5.46451 -5.55222 15
809 2 -2.26512 7.80952 6.57266 19
810 2 9.79622 -5.81637 7.84455 14
811 2 10.2503 6.40666 5.92866 15
812 2 -3.26568 -6.83276 6.34758 19
813 2 -9.52723 -1.53194 9.02011 12
814 2 -7.85386 6.60979 -1.15495 20
815 2 -0.816299 1.61457 6.10336 20
816 2 5.32851 -4.1502 12.1372 13
817 2 1.42519 -8.12528 6.4458 21
818 2 9.42733 1.99879 4.47477 20
819 2 9.07249 -4.25356 -4.40143 17
820 2 0.202105 11.1137 1.62652 18
821 2 -7.61116 0.114539 -4.35187 15
822 2 -4.60969 -3.8835 5.27666 22
823 2 2.33058 -3.86406 11.1008 17
824 2 3.46305 -6.7629 11.1205 14
825 2 4.93336 -4.64732 8.97059 17
826 2 5.95022 4.1454 -7.68396 19
827 2 10.8408 3.83028 7.51748 11
828 2 6.57589 -2.52982 -8.95487 17
829 2 8.54292 -3.53287 5.34809 21
830 2 15.2728 3.05528 -0.668342 12
831 2 10.7649 -5.37136 -6.97783 11
832 2 0.252513 7.85306 7.34498 19
833 2 14.7272 -2.97778 6.95153 10
834 2 -4.40859 -7.49845 11.6369 13
835 2 -0.924805 -3.16473 9.85469 19
836 2 -6.68831 -2.63288 12.8406 12
837 2 4.34523 -12.0803 -0.164741 13
838 2 11.0737 -5.21624 4.42998 14
839 2 11.4788 -6.2102 0.637787 12
840 2 1.6718 -9.3548 9.77354 15
841 2 6.50537 -4.2753 2.51578 22
842 2 -6.87934 5.63396 13.347 10
843 2 -1.33217 6.6054 4.44102 20
844 2 9.07664 1.82987 -1.17879 20
845 2 1.91025 -5.98447 -11.4264 15
846 2 3.97473 -7.47394 -9.89947 12
847 2 3.63487 -0.0481603 -13.0107 9
848 2 -1.64964 3.69899 -12.8266 13
849 2 9.75313 9.5529 0.900958 11
850 2 -10.5744 -4.81234 -1.78916 11
851 2 12.7244 4.6447 0.733585 10
852 2 -7.51413 -0.257793 -1.359 18
853 2 1.24907 -6.46776 3.61982 20
854 2 0.655953 10.6236 -2.62474 19
855 2 14.2395 0.977484 1.70845 14
856 2 7.87669 6.1509 -3.46968 20
857 2 5.88793 -11.3629 8.10339 8
858 2 -11.6515 -6.53127 3.06529 11
859 2 7.20654 -0.448973 10.0151 15
860 2 4.24601 -6.93923 2.89077 17
861 2 2.40833 -2.35331 4.78239 19
862 2 11.6076 7.29559 -0.0193151 10
863 2 -7.21063 2.60459 9.42927 16
864 2 -10.0786 2.52866 5.11343 17
865 2 9.22165 -5.434 2.49755 22
866 2 5.94259 -6.61715 0.318967 21
867 2 -0.317321 -15.3364 -3.17362 9
868 2 5.37064 7.55961 1.8779 18
869 2 11.2535 -4.44374 -1.68461 15
870 2 3.68494 8.52622 4.54367 19
871 2 -1.43972 -13.8839 6.29726 11