ITEM: TIMESTEP
4000
ITEM: NUMBER OF ATOMS
500
ITEM: BOX BOUNDS pp pp pp
-30.0 30.0
-30.0 30.0
-30.0 30.0
ITEM: ATOMS id type x y z Coordination
1 1 -5.16485 -0.445504 -6.39836 17
2 1 7.10954 -2.32937 4.02286 24
3 1 2.2836 4.99161 8.35555 10
4 1 8.50265 -3.24655 0.865349 17
5 1 -10.7653 1.97321 -1.59801 14
6 1 -2.85867 0.52368 -8.58567 20
7 1 0.595345 0.39297 10.0677 11
8 1 3.47541 -4.37147 -5.73156 22
9 1 -10.0285 -1.22828 -3.43991 16
10 1 3.01679 6.13384 -9.36487 12
11 1 5.12931 -7.2843 -5.79074 11
12 1 5.29429 0.0117772 4.19829 21
13 1 2.17204 4.15341 -6.26326 22
14 1 2.94842 6.30006 2.18267 19
15 1 5.25945 3.76275 7.1289 13
16 1 -8.64638 -0.715673 -1.05561 20
17 1 -12.2382 -3.24773 0.24977 7
18 1 6.5848 -0.342309 -4.03363 23
19 1 3.57158 -1.53989 8.00851 17
20 1 -9.80772 -2.56477 1.67284 15
21 1 -2.43575 -3.60305 -8.68637 14
22 1 4.84734 -1.73275 -6.25177 24
23 1 6.83157 0.980605 -8.72682 15
24 1 7.54044 -7.32519 4.42613 13
25 1 -4.63051 8.4526 4.98756 12
26 1 0.729019 0.342361 6.75957 20
27 1 -1.36094 8.51846 0.717599 20
28 1 -0.173744 -1.9325 -10.9232 11
29 1 -2.2587 2.71544 7.14866 15
30 1 7.18283 -5.45951 2.12238 22
31 1 -6.87891 8.17916 -0.373868 10
32 1 5.69995 6.5301 -7.83356 10
33 1 8.03615 4.07749 -3.75911 19
34 1 -3.4546 8.21761 -5.38593 8
35 1 -3.68999 1.91174 -6.02896 23
36 1 -4.20295 7.72504 -1.33224 15
37 1 0.640613 7.51546 -1.41772 18
38 1 -8.84403 3.42251 -3.34059 16
39 1 1.23332 4.87587 5.00222 20
40 1 -4.13298 1.82294 -10.8694 10
41 1 -7.0084 -3.97737 3.1257 16
42 1 -6.64734 -3.3747 -0.498968 23
43 1 6.64354 -7.35226 -2.57135 12
44 1 -8.94055 2.25072 1.3102 23
45 1 -10.6118 -2.28163 -5.8692 9
46 1 1.22294 -10.772 3.1935 11
47 1 7.49509 1.3226 -5.92429 18
48 1 -6.01759 -2.7102 -8.52405 11
49 1 0.162798 7.07014 -7.70854 13
50 1 1.69131 -6.72434 -1.54148 16
51 1 -1.86586 8.76787 -2.83418 12
52 1 -12.8824 2.4427 0.882576 9
53 1 0.853418 7.15679 7.68326 14
54 1 2.06176 -3.99487 7.11997 18
55 1 1.05939 -9.00088 -2.85556 16
56 1 7.72372 4.36921 -7.49609 10
57 1 -3.96077 -7.53511 -1.17619 17
58 1 -1.81431 -10.046 2.80646 13
59 1 6.58325 -2.68245 7.36093 15
60 1 2.33893 -5.10374 3.93498 19
61 1 4.41205 8.94538 2.34953 18
62 1 -5.78459 -6.63962 4.43502 13
63 1 -4.47995 -8.50017 1.898 14
64 1 -3.23599 -5.78194 -4.00786 20
65 1 3.91788 -5.77173 0.970476 20
66 1 -3.47077 -4.05385 4.2303 17
67 1 -10.8457 2.2382 3.73918 11
68 1 3.90718 -10.749 1.94743 8
69 1 -3.00949 -5.73467 1.46667 22
70 1 3.10506 1.60975 8.02435 14
71 1 -10.7578 0.124485 2.00509 14
72 1 -4.34067 9.38507 1.87422 11
73 1 -9.34806 5.12477 3.12259 12
74 1 -2.5373 6.53157 7.16817 13
75 1 -7.14663 -3.92523 -5.78093 14
76 1 -5.32806 2.98791 -3.53178 20
77 1 -4.95956 -3.04109 -3.42304 21
78 1 8.9927 -1.07128 6.27574 12
79 1 -2.42716 -3.91827 9.63863 10
80 1 -6.04488 0.42195 -9.36641 14
81 1 -12.7747 -2.5296 -3.1147 6
82 1 -3.10987 -10.1253 -0.523278 14
83 1 -7.21722 5.91714 5.33164 11
84 1 -5.04756 4.48941 -0.484804 18
85 1 -1.07608 -10.0933 -5.63488 10
86 1 -0.562301 10.5371 3.42918 14
87 1 -7.29645 1.94586 -5.88959 21
88 1 -8.7593 4.71105 -5.97555 11
89 1 -3.80068 -10.1686 -5.63901 12
90 1 6.0046 -5.93374 6.88205 14
91 1 -5.34887 5.26658 -6.20021 16
92 1 -1.85047 2.23612 10.5824 7
93 1 -7.39716 3.03513 4.55702 21
94 1 0.167282 -4.09939 -6.42611 19
95 1 -0.0900702 -2.23148 7.55254 20
96 1 2.77711 -7.08684 6.8698 15
97 1 1.54984 -7.18801 -5.71405 15
98 1 6.81626 2.08911 -1.04997 20
99 1 -4.9506 4.70158 3.76272 20
100 1 2.7114 2.68426 -11.0579 11
101 1 8.5024 -4.45512 5.33295 16
102 1 -5.55369 -7.66345 -5.29978 11
103 1 -4.84299 -1.26498 4.30717 18
104 1 7.4539 2.03927 5.38018 14
105 1 10.1566 6.23204 -2.88591 7
106 1 0.925502 3.97385 -8.89979 18
107 1 -0.784969 4.48456 -5.91424 22
108 1 1.66221 9.20492 1.01513 16
109 1 4.41323 3.49064 -8.54773 18
110 1 2.09681 -8.7337 0.69852 16
111 1 4.02039 -5.64951 -3.30188 18
112 1 -0.111693 -11.4756 0.0491902 11
113 1 -5.76712 3.25497 -8.05093 13
114 1 8.93164 -1.80683 -4.26159 13
115 1 -3.09094 6.29099 -7.80065 10
116 1 2.36655 -5.62736 -8.01482 11
117 1 -6.96624 -0.531811 1.57882 23
118 1 -1.53394 -11.5983 -3.13725 11
119 1 2.96358 -2.77024 -9.16945 17
120 1 5.87995 6.03035 1.11129 17
121 1 4.55952 -7.40406 4.04007 18
122 1 -4.40831 -5.10513 -6.90934 12
123 1 0.920008 -3.25837 10.1472 12
124 1 0.439391 3.36572 8.10348 15
125 1 6.31267 -2.06808 -9.81143 13
126 1 -10.1551 1.40748 -5.12662 12
127 1 4.17474 7.33742 -0.757453 16
128 1 7.99254 -1.82874 -7.17474 14
129 1 -0.750228 1.70784 -10.8118 12
130 1 -10.4751 4.64952 -0.21587 11
131 1 -0.706146 -5.77047 7.17486 12
132 1 10.5262 -0.31931 1.2136 12
133 1 -8.33205 -0.779661 -7.07033 14
134 1 10.1025 -5.78671 2.52598 10
135 1 -0.750977 -7.44036 -0.702819 22
136 1 5.77039 3.48734 3.96152 14
137 1 2.71292 -10.074 5.38922 9
138 1 3.51836 -2.52177 4.97137 20
139 1 9.17007 6.29299 0.695778 11
140 1 6.22221 -3.95167 -0.823269 23
141 1 7.80834 3.21663 1.90918 16
142 1 -2.23651 -6.97677 -6.6049 15
143 1 4.20222 6.23209 5.0068 16
144 1 -3.3959 5.53476 -4.31605 22
145 1 -3.38073 -1.33999 7.60748 10
146 1 -5.79311 -9.24642 -2.97071 11
147 1 7.65353 8.93434 2.0285 7
148 1 -1.68758 4.66383 4.70267 21
149 1 -7.1854 5.28392 1.38268 17
150 1 5.12951 4.84887 -1.95298 20
151 1 6.46618 0.622042 7.99588 11
152 1 0.0544639 -1.08854 -8.14469 19
153 1 0.975784 7.6413 3.79736 23
154 1 6.89814 -4.59243 -5.25634 17
155 1 2.63635 11.1796 3.54472 12
156 1 5.27861 -4.66156 4.32735 21
157 1 -2.08131 7.39807 3.73058 20
158 1 4.39508 -0.0835612 -8.37683 19
159 1 4.08337 -4.6562 8.9859 11
160 1 4.12929 1.49392 -5.69541 18
161 1 -4.62535 4.14356 6.9298 14
162 1 11.1448 0.328765 -2.07461 11
163 1 0.278749 8.56957 -4.76538 12
164 1 10.7758 2.90892 -4.53836 10
165 1 -1.53169 -1.3837 10.4739 11
166 1 -3.20588 -6.29444 7.1321 10
167 1 -6.76131 5.7915 -3.3017 15
168 1 5.27032 9.54139 5.16296 10
169 1 -8.96932 -5.78321 2.74416 10
170 1 8.36246 -1.22118 -1.385 18
171 1 -6.6073 -6.14339 1.08355 18
172 1 8.95052 0.558292 3.50728 15
173 1 8.28284 -7.17885 -0.281078 12
174 1 1.75811 9.89861 5.61362 13
175 1 -8.15565 -3.88289 -3.08252 15
176 1 0.15836 5.42948 -3.12959 21
177 1 3.05056 7.43562 -6.24325 14
178 1 -6.88901 -0.458721 -3.74719 20
179 1 2.68921 -0.424991 -10.9426 12
180 1 -1.92406 -8.38968 -3.3727 24
181 1 -0.937276 -6.84033 2.90078 19
182 1 8.34007 -4.64984 -2.49466 15
183 1 -11.9963 -0.462618 -0.311236 15
184 1 -2.56397 3.63095 -8.40081 19
185 1 -5.85333 -5.66662 -2.57804 18
186 1 10.4436 -2.38799 3.68637 14
187 1 -3.66948 -1.78393 -10.853 9
188 1 -7.0151 7.9405 2.8525 12
189 1 -8.15148 0.264228 4.66696 12
190 1 7.56332 7.1081 -1.96601 13
191 1 10.025 2.78912 -0.699616 14
192 1 -0.15439 -8.31716 5.76124 14
193 1 5.46944 0.607722 -11.057 11
194 1 6.00753 6.0561 -4.63706 14
195 1 3.6527 8.36456 7.70191 9
196 1 2.55859 6.20109 -3.55814 18
197 1 8.63853 1.18329 -3.15277 20
198 1 -5.51213 1.05113 6.46816 14
199 1 5.76552 -4.66975 -7.68024 14
200 1 -1.34828 9.0089 6.23682 13
201 1 -3.07806 6.1056 1.32305 18
202 1 -3.20496 -7.62997 4.6945 15
203 1 6.24548 -8.3096 1.09788 11
204 1 -9.35431 -5.39527 -0.585805 11
205 1 -6.9534 1.57204 -1.01018 19
206 2 -12.0819 1.50109 2.37332 10
207 2 9.58059 4.15538 0.654843 11
208 2 2.34372 1.06295 6.24758 18
209 2 -0.999876 -2.75422 -7.36346 20
210 2 -10.16 0.955645 -3.3673 17
211 2 -2.69994 -5.88215 3.43032 20
212 2 4.44466 0.257238 8.10509 13
213 2 6.7578 1.72752 1.01384 21
214 2 -2.81901 7.96737 5.44912 14
215 2 6.56616 -6.03125 -6.49507 11
216 2 -5.41444 2.10762 -9.54132 12
217 2 1.21444 -2.19419 -9.26405 18
218 2 -5.57513 9.17994 3.21786 11
219 2 7.09493 -4.25935 3.61892 21
220 2 7.599 7.21941 1.14693 12
221 2 -1.08208 7.60125 7.79568 8
222 2 3.56318 10.0934 4.71987 13
223 2 3.77848 6.84011 -7.94098 13
224 2 7.16218 -0.417489 -10.5152 10
225 2 -7.14241 0.0224733 -5.61354 19
226 2 0.773913 -9.82382 4.92362 11
227 2 -9.0204 1.12434 -0.494373 21
228 2 3.48949 -6.3778 -6.3779 14
229 2 -1.59627 -8.43298 3.85208 15
230 2 6.08169 -0.848231 -7.71702 21
231 2 3.00964 6.70658 7.86251 12
232 2 4.9694 -3.06762 7.97593 16
233 2 -7.21503 -6.0048 3.45584 11
234 2 -0.233993 -10.9783 2.05544 11
235 2 -8.55952 -6.47043 0.799303 11
236 2 -3.0231 -9.6794 1.35321 17
237 2 -5.70301 -7.39069 -3.29579 13
238 2 -7.40692 7.37782 1.16843 11
239 2 3.35917 -0.177517 -6.80734 18
240 2 9.9181 4.50898 -3.80171 12
241 2 5.98306 4.5806 -8.36818 11
242 2 -7.24456 2.31564 -3.78649 20
243 2 10.5792 0.753652 -0.267229 11
244 2 -0.053461 9.88783 1.66424 14
245 2 -6.22049 7.54723 5.39152 9
246 2 2.37426 8.13394 -0.61329 19
247 2 1.24319 7.76522 -6.34658 14
248 2 -0.356639 6.00775 4.02486 20
249 2 2.38925 -3.63044 8.97074 12
250 2 4.26493 -1.4385 -10.0125 16
251 2 -2.3365 -11.531 -5.03683 7
252 2 -2.70774 -5.46059 -8.0132 11
253 2 -7.6912 -4.79703 -1.56438 14
254 2 8.30051 -6.62278 -2.08044 10
255 2 6.08307 9.30063 3.44093 10
256 2 -0.883596 0.5526 -9.076 20
257 2 3.71303 1.12373 -11.8184 10
258 2 -4.12589 -3.24984 -9.11534 10
259 2 2.01291 -3.01557 -6.15558 21
260 2 7.47318 2.50862 -7.7922 10
261 2 -5.08422 -3.31513 3.40128 20
262 2 0.952789 -0.702312 -11.8015 12
263 2 4.06382 6.65028 -4.82846 13
264 2 -0.564923 -9.5593 -3.90013 15
265 2 0.937296 2.60897 -10.2569 12
266 2 -3.44811 5.7443 3.81072 18
267 2 -5.10837 -7.09055 0.635197 20
268 2 -7.02514 1.59435 1.05336 20
269 2 -8.88023 -3.7404 2.66946 14
270 2 -12.4305 -2.15651 -1.36104 8
271 2 4.14508 -6.33282 7.82232 12
272 2 9.75598 -0.947889 -2.63193 15
273 2 0.00973686 -0.0724137 -6.40626 18
274 2 2.42322 6.19501 4.16706 18
275 2 1.53297 8.81033 7.04331 13
276 2 0.360743 -1.37332 9.19087 16
277 2 -8.88359 4.36496 1.15464 16
278 2 -9.21779 -3.54361 -5.8177 10
279 2 9.32925 6.88584 -1.17698 8
280 2 -11.5131 -1.65714 1.46177 12
281 2 -5.45908 1.59949 -6.64469 22
282 2 3.21473 4.16553 -9.8579 13
283 2 -9.91304 3.66934 -1.80492 12
284 2 3.20313 -4.51415 5.48058 22
285 2 5.19334 -7.12229 -3.84893 14
286 2 -1.73503 -11.2267 -1.08707 11
287 2 -7.87856 5.95549 3.61584 13
288 2 2.25273 -6.83555 0.648258 18
289 2 2.12373 -10.5679 1.09368 9
290 2 3.49312 3.70256 7.91145 14
291 2 -1.21245 8.23136 -1.06985 18
292 2 -2.10298 -5.19646 8.39387 11
293 2 -1.34541 -6.77437 1.02938 20
294 2 -1.68252 -1.32755 6.65841 17
295 2 -1.30573 5.47487 -7.56424 15
296 2 7.86528 -0.912247 -5.50878 17
297 2 1.94308 -1.65116 6.62228 19
298 2 -6.40873 -0.188502 -1.7341 21
299 2 7.89337 6.19376 -3.64888 11
300 2 4.68358 7.8103 6.03081 11
301 2 8.15528 -3.26879 -1.00728 17
302 2 -6.32635 -4.20085 1.15861 20
303 2 0.670103 5.00578 7.10398 18
304 2 7.21812 -0.99582 7.31479 15
305 2 1.17983 5.75439 -8.5108 14
306 2 6.30025 -4.11304 1.04058 22
307 2 1.4825 1.78057 9.16151 14
308 2 9.22248 -6.0957 4.26832 12
309 2 -11.4048 -2.43265 -4.20758 9
310 2 -5.32986 4.70354 -4.33664 20
311 2 -6.96461 4.21202 -6.95957 14
312 2 -1.81636 -7.09916 6.32008 12
313 2 2.99437 10.1467 2.02163 15
314 2 -6.05432 -4.13174 -7.26977 12
315 2 10.0275 -0.787111 2.88747 13
316 2 -5.92251 7.29447 -2.11909 11
317 2 8.67509 -6.04295 1.08594 16
318 2 -4.71095 -5.84271 5.97486 10
319 2 -4.02385 -6.6151 -5.67034 16
320 2 0.715922 7.25126 -3.47638 18
321 2 -9.15819 3.42401 4.05191 13
322 2 -0.779175 -3.29385 10.8189 9
323 2 -11.9501 3.90558 0.657939 10
324 2 -3.62371 6.01329 -0.718769 19
325 2 -1.23543 2.98338 8.94821 11
326 2 -10.0002 -0.382762 -6.05657 13
327 2 4.58936 7.27561 1.48856 17
328 2 -2.8508 4.70906 6.97401 16
329 2 0.22838 -4.06368 6.4526 20
330 2 -4.33789 -0.0547305 -10.4361 12
331 2 0.435613 3.3916 -7.08298 17
332 2 -2.19582 -8.42211 -1.58321 18
333 2 -3.2975 -8.60965e-04 -6.70712 20
334 2 5.34633 -2.52033 4.50365 19
335 2 8.43451 2.75494 -1.89944 20
336 2 3.40749 -8.13178 5.49221 13
337 2 5.81589 1.28543 -4.94442 20
338 2 5.2091 4.53881 5.4625 13
339 2 -4.13346 2.36849 6.47794 17
340 2 -6.38925 -4.37315 -4.14595 19
341 2 1.39571 -8.62799 -0.983153 14
342 2 -2.85915 8.14548 1.91423 17
343 2 -7.18108 1.60649 5.55001 13
344 2 -8.18098 -1.54364 0.609604 22
345 2 -4.53176 -9.73341 -1.74472 14
346 2 4.731 1.94649 3.87048 21
347 2 -3.15442 7.43685 -3.39893 16
348 2 -2.13004 2.69259 -6.82121 22
349 2 6.69552 5.96789 -6.36119 11
350 2 0.825532 -5.82316 -6.7567 15
351 2 8.78928 0.702006 5.44922 13
352 2 6.59517 2.30584 7.01436 13
353 2 -1.54946 8.7798 -5.06605 9
354 2 -5.06871 -1.12929 -3.96234 19
355 2 -1.80368 -2.08179 -11.0732 12
356 2 -0.0307668 9.12727 4.72607 16
357 2 -3.91818 6.56001 -6.12409 13
358 2 -8.26583 5.07617 -4.0979 12
359 2 -6.00145 4.49855 5.74116 14
360 2 3.59623 3.11609 -6.77442 17
361 2 6.86566 -3.1411 -8.31957 13
362 2 -9.26684 2.83591 -5.87203 11
363 2 -2.44362 2.23474 -9.8427 13
364 2 7.30874 -4.70368 7.01407 15
365 2 -4.73853 -0.742392 6.30921 13
366 2 -1.5493 -6.56961 -4.39424 21
367 2 -9.56295 1.1316 2.96378 16
368 2 9.79247 -3.66358 2.26965 15
369 2 -11.9621 1.24193 -0.288006 14
370 2 -1.14051 0.529135 10.6809 8
371 2 3.30323 -10.6899 3.54754 10
372 2 6.91798 -0.477128 3.5327 19
373 2 1.25515 -7.1748 -3.77121 17
374 2 -5.25532 4.58464 1.38993 17
375 2 -6.60356 -0.795223 -7.78883 14
376 2 -6.6852 -0.478699 3.60256 17
377 2 0.883423 -7.12959 6.91289 13
378 2 4.94101 1.58324 -9.26727 17
379 2 7.80191 2.57363 3.66268 15
380 2 -4.97334 8.53341 0.359462 11
381 2 9.02758 -2.58005 5.07216 15
382 2 5.2274 -3.57814 -5.68565 21
383 2 -3.86926 -5.88524 -2.07529 21
384 2 3.91119 -4.34906 -8.60875 14
385 2 6.35924 -7.35587 2.85967 15
386 2 8.50088 -0.830199 0.677513 20
387 2 6.02729 -4.48209 -2.87861 20
388 2 -0.657508 1.91274 6.55593 18
389 2 6.16649 4.21091 -3.56182 19
390 2 -10.5426 -4.12955 -0.0364434 13
391 2 -8.31308 -1.8824 -3.02328 20
392 2 5.97489 -6.69719 5.22156 15
393 2 3.30745 5.65716 -1.86806 22
394 2 10.7798 1.66389 -3.31348 10
395 2 5.94675 6.60971 -1.19297 15
396 2 0.744301 -5.66803 3.02908 19
397 2 3.97747 -5.59099 2.99864 20
398 2 8.26182 -3.60314 -4.09201 15
399 2 5.06309 -9.65154 1.04123 9
400 2 -2.49995 -8.93257 -6.19482 12
401 2 1.20002 7.45109 1.86197 22
402 2 0.949118 11.511 4.16911 11
403 2 -4.69377 -8.09561 3.73435 13
404 2 -3.08523 -1.94568 9.42094 10
405 2 -5.09854 2.77092 3.59884 19
406 2 5.97687 4.27124 2.00436 17
407 2 8.77231 2.2287 -4.94907 15
408 2 -4.26475 4.435 -7.6233 15
409 2 -5.36422 -9.49893 -5.03272 9
410 2 6.34881 -7.64212 -0.747099 16
411 1 -1.61423 -1.15595 -6.02512 21
412 1 -0.0963933 -5.60597 -3.58428 21
413 1 -1.76601 -2.72769 -3.75833 21
414 2 -5.0489 -3.33361 -1.53186 20
415 2 -3.38125 -3.75022 -4.33107 20
416 2 -0.00505768 -5.68157 -1.41733 22
417 2 -1.81964 -2.68949 -1.76677 23
418 2 -1.63254 -0.791136 -4.11362 22
419 2 -0.411651 -3.84857 -4.50862 20
420 1 -4.81583 -1.19253 -1.20604 21
421 1 -3.24936 -3.83791 -1.07277 23
422 1 -4.68802 -3.21235 1.42806 22
423 1 -1.53304 -0.632963 -0.829251 24
424 1 -0.151826 -3.61416 -1.14365 21
425 1 0.816647 -5.50653 0.971837 22
426 1 -1.52594 -2.6751 1.8041 25
427 1 -1.93334 -1.04874 4.73231 19
428 1 -0.181177 -3.91898 4.37917 22
429 2 -4.89553 -1.1254 0.819859 24
430 2 -2.86604 -3.89647 1.07706 19
431 2 -1.72619 -2.79676 3.88803 20
432 2 -1.71061 -0.854649 1.04288 26
433 2 0.166692 -3.69264 0.714815 24
434 1 -3.43789 0.0182415 -3.55987 22
435 1 -0.347154 1.77478 -6.45278 21
436 1 0.0218791 0.100917 -3.59658 23
437 1 -1.79837 2.88539 -3.33708 22
438 2 -3.23388 -0.0870122 -1.6534 23
439 2 -5.47588 2.73824 -1.39539 19
440 2 -3.63828 2.13226 -4.0176 19
441 2 0.154519 0.336952 -1.49716 22
442 2 -1.91499 2.88774 -1.36585 21
443 2 -1.61519 4.78161 -3.94797 19
444 2 -0.235601 2.22295 -4.34111 22
445 2 0.118777 5.47885 -1.17053 22
446 1 -3.60326 1.82795 -0.906377 22
447 1 -3.24386 0.121392 1.64373 21
448 1 -5.41413 2.52843 1.63315 20
449 1 -3.61816 1.74596 4.56806 23
450 1 -1.78153 4.92849 -0.814201 22
451 1 -0.175139 2.21072 -0.706631 25
452 1 0.0256284 0.0537427 1.94421 25
453 1 -1.89493 2.84473 1.94284 24
454 1 -0.0579263 1.89671 4.33648 19
455 1 0.096838 5.61802 1.47422 25
456 2 -3.38935 -0.12543 3.61469 24
457 2 -3.53048 1.96682 1.08691 21
458 2 0.0155619 -0.0143202 3.89873 25
459 2 -1.52096 3.06565 3.90691 22
460 2 -1.60248 4.77109 1.00664 23
461 2 7.52863e-04 2.15336 1.43218 22
462 1 1.71183 -0.9848 -6.14785 22
463 1 1.2698 -2.75118 -3.78816 22
464 1 4.96425 -3.02894 -3.58779 20
465 2 3.43622 -5.86281 -1.53273 20
466 2 1.64706 -2.63028 -1.68642 23
467 2 1.64467 -0.760413 -4.16613 23
468 2 2.77928 -4.01587 -3.89265 25
469 2 5.14356 -2.41036 -1.60737 21
470 2 4.78401 -1.09428 -4.3226 24
471 1 1.65777 -0.830456 -0.898123 24
472 1 3.26726 -3.85906 -1.29096 22
473 1 1.6336 -2.75051 1.49874 24
474 1 1.58583 -0.9507 4.47966 20
475 1 5.077 -0.510542 -1.02922 22
476 1 4.87647 -2.78216 1.48874 24
477 2 1.75122 -3.00656 3.51782 24
478 2 1.58587 -0.735422 1.03661 23
479 2 3.13329 -3.69389 0.690448 20
480 2 5.00949 -0.720355 1.15266 24
481 1 3.27536 -0.225814 -3.5394 22
482 1 1.6697 2.77517 -3.43363 25
483 1 5.15381 2.61538 -3.52416 22
484 2 3.30804 0.204216 -1.55599 20
485 2 1.7272 2.95101 -1.39319 22
486 2 1.59973 4.52709 -4.28808 19
487 2 3.39767 1.80319 -3.81484 21
488 2 7.03862 0.265096 -2.13193 22
489 2 5.1521 3.11978 -1.04108 20
490 1 1.92509 4.86573 -0.822234 23
491 1 3.36281 2.01802 -1.11221 22
492 1 3.2517 0.193538 1.72138 22
493 1 1.75615 2.99298 1.85803 21
494 1 3.03083 1.79651 4.54362 19
495 1 6.86473 -0.0423343 1.40404 20
496 1 4.89426 2.84354 1.37027 18
497 2 3.16025 -0.309652 3.67073 21
498 2 1.50224 3.07757 3.91473 21
499 2 2.10366 4.8723 1.19767 24
500 2 3.28419 1.98825 1.00894 22
