ITEM: TIMESTEP
7000
ITEM: NUMBER OF ATOMS
2000
ITEM: BOX BOUNDS pp pp pp
-30.0 30.0
-30.0 30.0
-30.0 30.0
ITEM: ATOMS id type x y z Coordination
1 1 -9.00812 3.56055 -15.0316 16
2 1 -2.51474 -7.76632 -10.6257 17
3 1 5.34332 11.7744 13.022 18
4 1 8.61989 -6.71477 4.70008 20
5 1 -9.62957 9.09068 -4.73252 19
6 1 11.3654 -7.82219 -8.32742 19
7 1 -8.6161 6.34285 -5.47521 18
8 1 0.198649 -6.90637 10.2571 17
9 1 -6.58751 1.65929 -9.9432 22
10 1 -8.14067 -5.67147 8.6517 21
11 1 14.6848 4.37781 -11.1872 14
12 1 -1.46778 5.69989 -6.6493 19
13 1 -2.08056 -14.062 3.06764 23
14 1 -12.4668 -7.30212 4.85024 12
15 1 5.75616 3.68412 14.9931 23
16 1 6.78907 -1.05398 5.44884 23
17 1 3.23588 1.22545 6.35574 22
18 1 9.75855 0.807983 2.35203 19
19 1 -1.95633 12.2615 -11.4262 21
20 1 3.65058 -1.76968 13.0448 14
21 1 -7.42185 -0.0846665 -17.4536 10
22 1 -12.454 -1.71065 11.559 12
23 1 15.1063 5.48983 6.80868 21
24 1 2.63869 11.6322 -12.0387 20
25 1 4.08809 6.81432 -13.2153 23
26 1 16.6831 2.67699 11.2518 13
27 1 -6.49865 1.3423 1.22065 20
28 1 -11.9231 3.48494 -13.1621 13
29 1 -1.22575 2.44678 -7.84623 21
30 1 -8.99121 11.8472 8.13088 15
31 1 9.2983 -9.62705 6.35206 15
32 1 2.7129 -1.13195 8.79964 18
33 1 4.03895 -11.913 -10.9415 19
34 1 12.9944 -8.71953 0.672865 18
35 1 -4.42361 -12.2477 -7.16622 17
36 1 -11.6713 -4.40167 9.67903 17
37 1 5.77089 -2.87085 -6.35415 22
38 1 3.07935 -8.41802 -12.6173 21
39 1 11.2376 -7.55979 -11.8872 9
40 1 -0.948929 6.4018 -17.6526 9
41 1 2.87898 4.4958 13.2277 21
42 1 -1.33751 -12.729 9.82237 11
43 1 11.3802 -3.30717 12.4435 13
44 1 -9.34765 1.9699 1.68023 22
45 1 -14.3304 1.09893 7.40046 12
46 1 -7.98234 2.92778 -0.84135 20
47 1 -0.72394 13.9073 -5.00572 20
48 1 5.45531 -12.9993 -7.81556 18
49 1 2.09222 4.1483 -12.8916 22
50 1 7.48506 -1.31753 -9.63742 18
51 1 -1.45906 -3.26301 13.1654 15
52 1 -11.7719 6.69598 -2.2838 18
53 1 5.8289 11.8683 -11.7918 17
54 1 1.90923 10.8624 7.89049 21
55 1 -7.33693 8.30497 -7.52204 20
56 1 0.397637 13.7075 0.190755 17
57 1 5.44659 -11.8066 3.11334 23
58 1 7.85893 -7.44727 -8.2348 17
59 1 7.90606 -5.02092 -16.6149 11
60 1 -2.87472 10.9779 10.1697 20
61 1 -13.2364 -4.11844 -10.1008 9
62 1 11.212 3.20544 4.41918 20
63 1 -6.15116 7.77017 -4.08799 19
64 1 -2.54188 -11.5058 4.90052 24
65 1 0.785473 15.3525 10.4455 12
66 1 -11.6924 4.39189 -10.0089 16
67 1 -4.70868 12.1621 12.6786 11
68 1 1.10633 4.53605 -7.68416 20
69 1 6.8709 7.88742 4.95857 18
70 1 -5.81041 -13.478 6.87882 22
71 1 4.74027 3.74597 7.98371 20
72 1 8.71935 -14.457 -3.7449 11
73 1 6.48205 14.2506 14.6221 6
74 1 -11.1088 1.19443 -14.0193 11
75 1 -11.2185 6.39292 -13.2842 12
76 1 7.48419 6.79102 10.8101 18
77 1 14.9568 -0.474979 -12.8957 9
78 1 12.469 -8.33857 7.32595 15
79 1 -13.3354 0.242511 4.17164 16
80 1 -4.41955 -0.159476 3.75338 17
81 1 6.53152 13.9855 5.56147 18
82 1 6.45375 -1.47117 14.057 14
83 1 -4.92126 -12.8832 4.13258 22
84 1 -8.63927 -0.558345 -0.355812 18
85 1 15.741 2.93472 5.15062 15
86 1 8.41366 -2.80989 -1.73187 20
87 1 0.402392 12.3654 9.99742 20
88 1 6.82892 0.94106 7.87548 22
89 1 -6.29977 -4.53246 0.760049 20
90 1 -0.616822 -6.0992 -9.89696 16
91 1 -10.7962 8.79715 7.17133 15
92 1 -8.48035 11.5289 -2.90061 15
93 1 -3.14922 8.9409 -10.131 18
94 1 7.90016 3.86461 -2.4449 20
95 1 8.45012 -0.522838 -6.947 24
96 1 10.2967 14.0212 -8.74465 11
97 1 10.992 -7.05947 2.11297 22
98 1 3.39502 -6.51054 10.7767 14
99 1 -5.00353 16.4829 -4.40218 12
100 1 -6.74814 15.0821 3.58256 11
101 1 -7.65143 -2.85469 14.2318 16
102 1 -2.22515 6.83061 3.34542 19
103 1 -5.81114 -5.38005 10.2061 20
104 1 15.9282 -5.11219 -5.38248 15
105 1 -9.93019 4.22881 3.76212 22
106 1 -9.33721 -11.4032 1.48527 13
107 1 10.3073 -7.12518 -5.80834 16
108 1 8.98118 3.56516 -11.7279 18
109 1 -4.53075 1.22536 -16.3194 17
110 1 5.93016 1.94737 4.53511 18
111 1 2.46844 15.2364 1.43186 16
112 1 -5.47887 6.54931 -12.0122 19
113 1 2.90272 11.4479 15.5416 10
114 1 1.25066 15.4107 -7.21405 18
115 1 -12.7863 12.4402 -0.587594 14
116 1 1.03373 11.0495 2.48541 16
117 1 -7.30717 -2.69126 8.85874 23
118 1 15.0323 -2.8891 9.58758 9
119 1 0.617949 -3.76133 -9.10263 19
120 1 5.65169 -5.36471 -9.07965 19
121 1 -1.17296 4.76806 8.33736 21
122 1 9.88318 -0.156421 14.294 16
123 1 -7.88891 -4.84287 -3.50011 19
124 1 5.39445 -2.65165 2.50613 21
125 1 -6.047 -7.33423 -6.01952 19
126 1 14.0321 -8.03494 4.11442 14
127 1 -7.12338 8.22488 0.513131 21
128 1 7.90536 6.1551 -16.2238 13
129 1 7.49678 17.4444 -4.73809 14
130 1 -6.58943 -11.8356 9.07502 16
131 1 -8.38929 -11.8149 6.32749 17
132 1 -3.8243 6.44736 -0.0135136 18
133 1 5.89674 -6.3481 -14.9349 16
134 1 3.19399 7.2595 -7.57963 21
135 1 12.4695 -6.96033 -1.73034 23
136 1 -0.85837 -16.5614 4.33405 11
137 1 -7.66241 -6.40117 -1.00004 22
138 1 18.2464 7.2234 8.12157 12
139 1 15.7309 -0.970701 -9.79646 15
140 1 -13.7214 -2.50899 2.47857 15
141 1 12.7141 7.15147 7.14838 20
142 1 16.4961 10.5499 3.6853 14
143 1 -3.28445 5.69679 16.001 11
144 1 6.23739 8.80153 -3.59332 19
145 1 -2.16264 13.0422 8.16794 18
146 1 -3.27799 15.3873 -6.08043 18
147 1 0.672766 -6.19699 -12.3432 18
148 1 10.742 -10.5634 -10.2705 11
149 1 2.99613 15.8586 -12.3809 9
150 1 8.96385 -2.01536 11.677 16
151 1 1.74098 -0.529746 -18.1142 16
152 1 -1.18291 11.0035 -8.75231 20
153 1 13.6493 2.76559 -6.41748 21
154 1 -10.6452 9.26962 -8.46405 15
155 1 -10.664 14.9821 -1.47654 12
156 1 7.49719 2.1625 -8.88718 20
157 1 14.3438 -5.64193 6.64394 13
158 1 -6.97165 5.52253 -9.08656 18
159 1 -6.66017 12.6634 9.81819 15
160 1 14.5382 8.52848 -6.24341 18
161 1 6.27299 14.2694 -3.6759 20
162 1 -2.63806 17.1951 -0.0893412 10
163 1 11.6174 8.06569 -1.1715 19
164 1 -1.1166 9.87867 -5.16827 20
165 1 2.78731 15.7506 -9.5553 20
166 1 4.42445 9.81442 -13.7981 20
167 1 -11.6031 -9.11733 2.63586 11
168 1 -13.85 10.8099 -3.14067 10
169 1 -3.35672 -1.5592 -14.3043 20
170 1 3.49278 -8.83248 -15.9067 11
171 1 12.4418 13.3818 8.08628 10
172 1 2.35372 16.469 5.07557 16
173 1 -9.36913 -0.689481 -6.92346 19
174 1 -9.68814 13.3504 1.52194 17
175 1 17.2717 0.638532 -4.12781 14
176 1 -8.74174 3.51739 -18.3325 8
177 1 7.87345 3.12029 17.171 14
178 1 7.59514 16.5789 4.26939 14
179 1 -0.300096 11.8162 5.81847 18
180 1 4.93267 -6.33495 -17.7771 9
181 1 -2.30605 16.6264 8.38762 11
182 1 -0.951712 14.0935 -8.16678 22
183 1 1.44217 -4.54602 12.7172 12
184 1 -9.59223 -5.38983 1.62193 13
185 1 -1.26946 -12.2372 -13.5104 12
186 1 -7.54066 10.5864 -9.57365 15
187 1 0.101888 -12.2574 2.14989 19
188 1 6.09496 -13.3202 -5.1426 16
189 1 -1.37225 13.4857 -14.2567 11
190 1 -14.0077 3.96407 8.2644 12
191 1 1.01452 8.07739 -5.13178 23
192 1 8.24321 6.46507 -3.44763 20
193 1 -4.28889 6.83899 12.7714 15
194 1 1.72222 -11.5103 8.14833 16
195 1 -6.84903 5.50841 -0.420748 19
196 1 3.62661 18.1956 3.29463 10
197 1 1.26387 4.35991 10.3349 19
198 1 12.9968 7.43392 14.3816 11
199 1 -3.79258 12.9445 2.48806 18
200 1 13.855 -2.63594 -8.1282 19
201 1 -3.93445 14.4268 10.4035 13
202 1 -4.63757 3.12003 -8.13153 20
203 1 15.6723 -6.06611 -0.581649 14
204 1 -5.84175 -1.79079 5.71121 19
205 1 -12.7479 3.61545 4.88064 15
206 1 -4.37051 -9.85619 3.01448 20
207 1 8.01551 9.02088 12.9039 21
208 1 -11.4296 -0.768228 -2.84429 17
209 1 -2.57958 -13.7892 -0.479902 18
210 1 -4.66238 -1.26624 -3.61976 17
211 1 8.71775 -6.55633 -2.40071 22
212 1 -1.96839 9.68875 2.7067 19
213 1 -5.43211 2.65461 3.9867 18
214 1 5.33234 14.2414 11.0236 15
215 1 -5.27503 1.73867 -4.92998 19
216 1 -5.92666 11.6547 -7.82681 16
217 1 -12.1331 -4.49972 -7.46818 13
218 1 -7.66383 -0.597457 11.2609 21
219 1 0.593178 -8.62065 0.615123 18
220 1 6.38352 -10.3226 5.862 18
221 1 -11.6287 11.1977 2.77983 17
222 1 18.0682 5.84102 1.70814 11
223 1 6.45543 6.01123 -6.10883 21
224 1 -4.22984 -6.15644 -16.1052 11
225 1 7.83962 1.48863 13.5678 20
226 1 7.94216 -13.3592 2.12657 18
227 1 -0.65667 10.5596 -13.1609 16
228 1 5.54003 -10.1716 -13.1484 14
229 1 10.3093 1.46019 -13.7871 15
230 1 4.40786 7.3972 -16.1187 22
231 1 -2.92328 -4.51615 -9.28922 17
232 1 -2.59086 16.9084 -8.54572 12
233 1 -8.28475 -8.94877 8.39738 18
234 1 10.2655 16.7194 -3.6 13
235 1 -5.64473 4.43528 13.5344 14
236 1 -7.43551 16.4643 -1.90647 10
237 1 8.15411 1.45736 10.6385 20
238 1 -2.41234 -4.63298 -13.9191 20
239 1 -3.50767 13.5442 -9.18222 16
240 1 5.10528 6.66694 -9.68773 21
241 1 -5.47849 -10.3178 5.92637 21
242 1 -6.43441 6.88894 7.43119 19
243 1 -5.92506 10.2599 8.31557 20
244 1 0.32934 -11.2415 -7.62215 19
245 1 -5.02665 -14.4107 -2.78157 15
246 1 13.8164 -10.0857 -1.93028 12
247 1 5.24307 -6.92055 -1.06661 18
248 1 13.1345 11.3958 13.5321 10
249 1 8.95729 9.09789 -5.44562 18
250 1 1.21282 10.5311 -0.380057 22
251 1 -7.27413 4.14535 2.35231 23
252 1 -12.6982 13.7581 -3.78986 10
253 1 4.08782 5.68767 10.4883 19
254 1 7.19843 -16.2606 0.850846 13
255 1 14.3078 3.25895 -2.97288 20
256 1 3.92397 10.1358 2.44432 19
257 1 -6.86289 5.50032 4.81927 16
258 1 -10.6895 -4.90385 -2.59421 17
259 1 6.92151 8.81484 -11.3695 20
260 1 6.23132 -0.827604 10.862 19
261 1 11.0556 12.1648 -10.6575 11
262 1 5.47188 -9.68581 -5.77569 19
263 1 -0.360318 0.286582 -10.3127 22
264 1 1.38726 -15.0732 2.02599 19
265 1 10.4489 1.63951 -6.74147 22
266 1 -8.73803 -1.42912 5.62894 20
267 1 6.34152 -14.097 -1.80531 18
268 1 -9.23379 -3.43189 -8.78842 19
269 1 5.48351 17.3563 -2.45939 19
270 1 2.69214 -1.39375 -15.0563 22
271 1 8.20585 6.48911 14.5396 19
272 1 15.8629 5.08328 -0.528307 18
273 1 -1.28121 -5.89848 -0.304223 22
274 1 15.6337 -3.94802 -10.7619 10
275 1 -1.81694 -8.70574 2.63908 21
276 1 -6.20858 -1.22224 -12.2188 18
277 1 -8.86885 -0.6219 -10.1508 21
278 1 -8.95758 -14.2613 8.63852 9
279 1 10.5304 -0.622438 7.76058 19
280 1 4.71806 -2.07484 7.41841 23
281 1 -4.99682 -7.48218 -13.5776 17
282 1 3.15034 -7.22263 4.28571 20
283 1 1.84971 8.91151 -13.5913 20
284 1 8.05094 12.8979 -0.263005 19
285 1 -3.85831 -6.5642 1.75993 23
286 1 4.68619 12.6034 1.40654 19
287 1 -5.49306 -2.84188 11.9 22
288 1 -9.01017 -7.84795 -9.74512 13
289 1 -4.93492 -5.778 -11.6226 16
290 1 -0.190233 9.36633 -16.8254 13
291 1 -3.40815 -7.40158 -7.64908 21
292 1 -0.385413 -11.345 -0.806359 18
293 1 9.44678 -2.20487 -15.4382 14
294 1 15.1734 1.80778 -9.77524 19
295 1 14.3735 4.50016 2.8808 17
296 1 -2.53706 -3.81541 -3.33169 25
297 1 -8.81347 -3.76672 10.8498 22
298 1 -4.9702 -14.8788 1.51765 19
299 1 9.03998 5.60188 17.3387 13
300 1 -6.63439 -16.0211 3.94327 14
301 1 3.04267 -12.6964 -0.0412496 20
302 1 -0.463594 16.9104 -2.96019 13
303 1 7.39519 2.70121 -15.9465 16
304 1 -6.32289 -2.36356 -16.1488 11
305 1 7.8512 -7.588 0.670214 21
306 1 -10.0112 -7.04994 10.9384 13
307 1 5.11395 8.81859 18.2352 10
308 1 4.12736 -9.23532 -3.28349 17
309 1 -3.77381 -9.80836 -11.8489 18
310 1 -8.96706 5.52917 -11.1203 17
311 1 13.0903 2.93025 6.90395 20
312 1 -3.07823 2.90573 -10.5332 22
313 1 -0.0995154 8.95388 -11.1485 22
314 1 -2.35376 -2.96502 7.04235 17
315 1 8.99268 -13.1216 -8.49736 13
316 1 -1.67404 11.3017 -2.29813 20
317 1 5.01144 11.1323 4.86745 19
318 1 12.9565 -0.543975 2.50343 20
319 1 -7.56671 1.08195 4.6958 19
320 1 -3.2402 -5.97399 10.7589 18
321 1 -4.79147 10.1619 2.3001 20
322 1 3.48015 -4.74215 -12.9111 16
323 1 16.5635 10.9498 -1.42708 13
324 1 9.76171 -10.5507 1.35744 21
325 1 -1.71729 -0.196031 15.69 11
326 1 -15.2077 -1.5582 5.60361 9
327 1 2.92422 -15.1466 -2.86821 16
328 1 -7.75472 10.2835 11.2614 14
329 1 -9.66673 8.57498 13.4851 7
330 1 -13.4391 -1.71456 8.53105 16
331 1 -13.3089 -4.52966 6.50006 14
332 1 13.0743 -2.62671 -4.65856 21
333 1 -10.6057 -6.42018 7.47248 16
334 1 11.3526 -2.03423 -6.73194 19
335 1 13.4203 -10.9035 -4.8622 12
336 1 4.47012 19.3128 -4.86499 14
337 1 0.425487 0.0462121 6.78814 20
338 1 -9.49062 15.9723 -4.42964 8
339 1 1.87718 1.13373 11.5965 21
340 1 12.8658 6.95839 10.962 20
341 1 -7.02594 -2.16887 2.56996 20
342 1 10.8204 -9.63313 -3.53234 21
343 1 -1.61692 11.461 0.348419 19
344 1 -4.71371 7.90503 4.55349 18
345 1 5.09518 -8.36538 8.48562 16
346 1 16.465 -3.67936 1.17072 14
347 1 1.09589 6.855 8.56457 21
348 1 -4.02117 -2.79044 -6.29672 19
349 1 -1.07767 3.00126 17.1322 11
350 1 -0.331497 13.8394 3.19045 19
351 1 11.065 9.58118 15.324 14
352 1 -6.97285 14.2995 -6.11704 13
353 1 1.92849 -3.96381 -17.2547 14
354 1 -3.11718 3.94095 -4.73984 16
355 1 8.94887 -6.0061 -13.206 16
356 1 -6.22361 4.53173 10.4274 21
357 1 -12.676 5.79876 2.37411 15
358 1 -2.06013 -1.94643 -8.39568 22
359 1 -4.85959 12.2906 -1.7279 21
360 1 8.88818 1.11816 5.47761 19
361 1 -8.79068 -8.47993 0.770752 16
362 1 5.87045 -5.77677 2.72649 21
363 1 -7.89201 -9.51473 11.7821 10
364 1 -13.4606 8.51152 -0.913202 15
365 1 0.692481 -4.326 8.18705 17
366 1 3.00102 -12.4851 -5.46889 24
367 1 -3.30359 -0.214683 -11.1478 22
368 1 11.7133 -1.13897 -14.0065 13
369 1 4.48801 14.8684 3.64523 19
370 1 -8.58166 1.47549 -4.347 20
371 1 5.70233 -6.8157 -11.9562 20
372 1 9.7493 6.47013 -13.1043 12
373 1 -1.53042 -13.6719 -7.17489 18
374 1 -12.1224 -6.8034 -4.75508 12
375 1 -2.85614 -8.32493 -0.111303 22
376 1 12.2787 6.83704 17.2399 10
377 1 11.5907 3.01024 -1.20889 21
378 1 -5.42321 4.24524 -11.1387 19
379 1 4.89735 18.3571 -0.172499 13
380 1 -11.9082 -0.66854 -5.67358 16
381 1 -7.94618 9.56785 5.81431 22
382 1 -6.56153 11.4908 0.608433 21
383 1 -1.10956 9.08138 6.07539 17
384 1 13.6164 3.55373 11.9097 20
385 1 12.0642 0.805219 -3.57762 19
386 1 12.8084 -1.05997 13.9442 14
387 1 15.8015 4.67633 -8.38585 15
388 1 -4.42802 -15.4109 -6.04582 12
389 1 4.16695 3.65449 4.72042 22
390 1 -0.838012 7.55737 0.195231 19
391 1 2.80535 -6.23558 -4.47487 20
392 1 3.89182 7.1896 3.30132 17
393 1 -10.6996 4.34184 -6.56464 19
394 1 6.78951 -9.0244 -1.95148 17
395 1 13.2663 -0.359988 8.25482 22
396 1 -6.40316 -0.166619 -7.30058 16
397 1 -5.99207 -9.14545 0.113043 22
398 1 -7.87267 -5.83504 12.7065 16
399 1 -4.12081 13.2996 -4.39457 21
400 1 -9.45737 -8.00826 -3.13422 14
401 1 9.35676 11.4519 14.5575 15
402 1 -9.0708 7.79676 -2.00886 20
403 1 2.04136 12.6369 -9.50748 21
404 1 7.88512 11.0845 6.21187 19
405 1 -14.4362 -5.20484 -3.01395 9
406 1 -1.08296 -8.51379 -5.92143 20
407 1 -11.2409 3.33576 7.34178 18
408 1 -11.7244 7.24136 -5.40194 18
409 1 3.35222 -9.90888 6.13475 24
410 1 -3.06097 -12.8382 -4.57079 20
411 1 13.5956 10.5222 6.18534 16
412 1 6.71535 8.29966 -14.7314 12
413 1 -11.5106 3.90328 -16.0572 9
414 1 -0.478092 15.9255 -10.6275 16
415 1 -10.0097 6.36633 -8.71259 20
416 1 2.18787 -13.9517 6.70911 12
417 1 12.5956 5.65211 4.69432 18
418 1 3.3805 10.4848 -16.9357 12
419 1 -2.33921 -0.221465 8.3258 19
420 1 -10.5199 2.00098 -1.56293 18
421 1 -5.09517 6.22226 2.40009 22
422 1 0.387366 -11.9095 4.91223 21
423 1 2.87286 -4.14407 -7.25334 21
424 1 8.24655 -8.75925 -11.1045 16
425 1 0.681986 -3.18295 4.62114 20
426 1 -10.6182 1.61514 4.61038 18
427 1 -13.3031 1.28399 10.57 11
428 1 -13.1666 10.422 5.02004 9
429 1 0.368523 -6.21421 6.09971 21
430 1 -5.85904 2.82302 -18.8993 9
431 1 9.84576 -9.74796 -6.79999 19
432 1 2.16225 -11.2374 -13.6215 14
433 1 -2.69282 -3.26914 10.3405 19
434 1 6.15069 -6.01293 -5.10496 17
435 1 -0.757712 3.84405 -15.2736 20
436 1 10.5399 -12.1161 3.9334 11
437 1 3.88179 12.6982 -4.51282 16
438 1 -9.73888 12.3336 5.23803 15
439 1 -4.27438 -1.63219 14.1862 14
440 1 -10.8209 -5.4052 -11.755 11
441 1 -4.69146 -7.22394 4.95031 22
442 1 10.1666 -6.516 7.7984 17
443 1 8.98048 3.87524 1.31571 20
444 1 -2.98922 6.22759 6.08759 16
445 1 1.82765 2.9107 -10.0494 20
446 1 11.6523 -6.47983 5.25773 19
447 1 16.7681 8.83944 -4.19674 13
448 1 -0.793881 1.96442 12.0825 18
449 1 3.02789 12.6454 -1.62545 19
450 1 8.17615 -3.87205 3.11272 21
451 1 0.823111 -15.561 -8.49822 9
452 1 -0.00373113 5.8821 16.9364 13
453 1 -0.637283 16.4015 5.5123 13
454 1 -6.63636 -8.71824 -8.57629 15
455 1 11.3917 16.5286 -0.05521 10
456 1 6.94076 6.21009 7.88466 22
457 1 -3.1561 2.3322 9.37635 21
458 1 -2.69972 -7.32844 -3.61374 22
459 1 -9.18528 3.90609 9.80921 18
460 1 -7.20371 -3.9638 -6.29402 17
461 1 -3.41059 11.7707 5.22449 17
462 1 -2.85797 -10.0614 -8.55693 17
463 1 -0.896965 -6.90481 -14.9515 17
464 1 -6.55116 -12.0341 1.55824 17
465 1 -4.93056 -4.51637 3.86909 20
466 1 11.9246 0.252479 5.29486 20
467 1 -4.73605 -4.63453 14.0666 15
468 1 -7.79273 6.57122 -13.9505 17
469 1 9.20372 6.70506 -0.258583 20
470 1 -6.61477 -12.5298 -4.29801 16
471 1 1.91953 6.35516 -10.7937 20
472 1 2.97449 15.4831 -1.70514 17
473 1 -0.98044 8.38051 -7.84284 18
474 1 -0.133072 9.75817 8.77077 20
475 1 -12.9372 -3.0611 -4.26528 14
476 1 1.35672 18.1694 -5.62509 17
477 1 6.78289 11.708 -4.98101 19
478 1 -6.47206 -5.33043 -8.94916 18
479 1 4.93658 3.40862 17.8048 12
480 1 2.28534 -13.3594 -8.41258 18
481 1 1.53874 -2.41267 -11.4791 23
482 1 11.6643 -9.25505 3.90372 16
483 1 -8.38909 10.5392 2.90148 19
484 1 5.69471 6.69203 13.4029 20
485 1 11.9815 10.6491 -1.97945 17
486 1 4.269 9.76371 -0.157768 19
487 1 -6.77231 9.66453 -12.7881 12
488 1 4.1587 4.33784 -8.06932 18
489 1 3.74528 -6.97275 1.25992 20
490 1 -15.7634 -2.09178 -2.21544 6
491 1 5.32337 17.0299 6.22987 13
492 1 -2.59949 7.13536 -15.354 13
493 1 14.1897 8.17852 -2.82386 22
494 1 7.39229 15.7854 -7.7781 15
495 1 10.1024 -4.67026 0.387411 22
496 1 17.2322 3.63592 -2.82614 13
497 1 2.28332 1.10998 -12.2274 20
498 1 4.059 -9.61671 0.250701 20
499 1 4.68078 -13.3565 5.80993 15
500 1 2.37597 -9.14125 10.4022 13
501 1 -9.37788 2.60714 -9.20215 21
502 1 -11.0409 -12.1509 4.36601 11
503 1 -1.32457 -11.349 -10.1348 16
504 1 9.74242 14.096 4.80232 12
505 1 3.76644 4.21662 -15.2157 23
506 1 6.33573 0.286936 16.3279 10
507 1 -12.1939 4.12949 11.3278 10
508 1 0.416357 -14.0418 -1.14337 19
509 1 -12.0429 -3.35242 0.249612 14
510 1 16.977 -3.75536 -7.89992 10
511 1 14.1407 -1.11067 -2.26139 19
512 1 -4.11263 9.59318 -4.24721 19
513 1 4.31334 -7.43262 -7.02906 20
514 1 4.70769 4.15164 -11.4995 19
515 1 10.9465 -4.69892 -7.56304 17
516 1 -4.95821 1.17205 15.46 11
517 1 8.32041 18.8963 -1.45744 12
518 1 -3.14718 -1.56212 -17.2524 13
519 1 6.54046 3.8866 -18.5486 11
520 1 -5.08204 -4.4535 7.3406 23
521 1 -1.6351 14.5454 -2.08482 16
522 1 -7.8424 0.264243 -14.7379 17
523 1 -12.9589 2.83922 1.70554 14
524 1 0.83402 -9.71543 -15.3475 13
525 1 -5.20668 -10.236 11.1756 13
526 1 1.88225 9.87441 -8.29847 19
527 1 17.6424 4.11334 8.45888 12
528 1 15.9302 6.15558 -3.37454 19
529 1 -7.74981 -10.355 -2.27064 15
530 1 0.559938 -8.44943 -2.72665 22
531 1 -0.782545 -1.58295 -16.0266 20
532 1 -4.77276 12.754 7.61096 17
533 1 4.27787 -3.07953 -9.7772 18
534 1 3.59128 7.00192 -0.0309367 18
535 1 13.5428 -2.86588 0.466659 23
536 1 5.37447 16.6736 -9.26318 13
537 1 5.69693 -8.77216 2.51402 20
538 1 14.6846 7.37538 -9.67118 14
539 1 5.062 9.04787 15.3023 19
540 1 -7.86538 3.51292 7.08799 22
541 1 7.80498 9.27312 9.01932 22
542 1 12.788 0.955746 16.3457 10
543 1 4.10136 1.05892 -16.6762 20
544 1 -2.17539 -5.16015 -6.25844 21
545 1 2.66681 -3.62444 10.4221 16
546 1 10.7741 11.8096 5.32338 17
547 1 8.41231 7.47575 -8.72008 19
548 1 -6.4594 11.2918 -4.80408 21
549 1 1.8266 15.3212 -4.29637 19
550 1 14.5972 -3.63064 12.3842 8
551 1 11.9335 4.13561 -12.9901 15
552 1 15.1314 -7.88548 -3.68292 15
553 1 15.3021 12.3894 11.258 8
554 1 -12.5453 -5.6813 2.42956 12
555 1 -5.27728 12.325 -11.4683 13
556 1 0.648242 1.59535 8.94534 19
557 1 -10.5799 1.27057 11.4622 16
558 1 -3.09138 15.1132 -11.996 11
559 1 8.85769 -10.7834 -1.23381 19
560 1 5.31557 -0.366685 -7.88861 20
561 1 -2.00532 18.0898 -5.81323 11
562 1 -6.34268 -4.84153 -14.2534 14
563 1 5.16427 -15.7844 3.8674 13
564 1 -15.2154 -4.30575 0.192527 9
565 1 3.81225 13.2378 -14.5799 13
566 1 -4.791 3.32431 -1.46005 19
567 1 -1.20865 7.35727 13.7991 18
568 1 -10.1141 -3.60968 7.40572 20
569 1 3.06331 9.19951 -2.52769 20
570 1 5.1614 -8.90856 -9.95972 21
571 1 5.35997 -3.29837 10.7819 15
572 1 8.31087 2.67313 -5.17243 21
573 1 -11.192 9.61397 -2.23796 20
574 1 6.28953 6.19402 16.2248 19
575 1 6.65684 19.3732 -7.12169 9
576 1 13.0895 -5.98037 -5.22447 18
577 1 5.79661 9.4079 10.7628 16
578 1 3.5369 5.68312 -18.5387 13
579 1 -4.42506 -14.0612 9.86119 10
580 1 -0.605788 2.81829 -12.0356 21
581 1 9.6851 0.740669 -16.6641 10
582 1 4.47341 13.5441 6.99745 18
583 1 11.361 6.60218 -10.1241 18
584 1 -0.0260465 -0.753945 -13.2949 22
585 1 -2.08771 -10.0309 -2.60412 18
586 1 -8.11528 -3.69576 -11.5784 19
587 1 14.8354 2.41636 0.0249161 19
588 1 14.9034 5.59662 -5.61736 18
589 1 12.3261 -4.26962 -9.86719 18
590 1 15.037 8.85172 12.3556 11
591 1 7.81357 -10.6669 -4.37177 21
592 1 1.64582 6.02723 -15.6758 19
593 1 7.4565 14.7471 2.32441 19
594 1 -4.07993 3.82926 1.82824 18
595 1 11.0296 12.5106 11.233 14
596 1 11.2974 5.80169 -3.57819 18
597 1 15.8688 -0.44929 0.772566 17
598 1 12.1804 5.57092 -6.81575 19
599 1 9.956 3.69474 14.5149 22
600 1 16.0616 5.9846 10.7732 15
601 1 2.21637 -7.58055 7.52492 22
602 1 14.8282 13.9802 -2.05867 11
603 1 6.62218 5.47459 -0.490771 19
604 1 3.98742 0.972823 14.2475 19
605 1 17.9282 0.0132747 -6.90324 12
606 1 12.0725 1.65246 9.78852 21
607 1 -7.64585 3.19326 -7.08032 21
608 1 14.4864 7.70022 1.40925 16
609 1 7.11449 -4.84703 0.208762 21
610 1 1.66865 -5.24144 -1.33608 17
611 1 -8.66313 8.71254 9.05186 17
612 1 12.489 9.92756 9.22514 18
613 1 10.95 -0.232015 11.4417 22
614 1 5.18406 9.45176 6.96279 20
615 1 3.15701 13.2482 9.6789 18
616 1 7.73528 4.3314 6.01131 21
617 1 -1.04664 -16.5997 0.408122 16
618 1 -3.09801 12.0133 -6.5158 22
619 1 12.929 11.8537 -7.70085 13
620 1 12.4811 -1.41468 -11.0747 18
621 1 2.24964 18.6904 -2.61189 12
622 1 -0.454081 -11.4394 -4.81747 21
623 1 11.8476 -4.3006 -13.1321 14
624 1 -12.7355 6.73424 5.93913 16
625 1 -2.66845 7.80514 -12.5853 19
626 1 -3.89316 -16.1366 5.0048 14
627 1 -5.38186 1.25305 -12.9798 19
628 1 -9.88447 4.35516 -3.12864 18
629 1 15.8991 -4.90879 4.15582 13
630 1 17.0198 13.6827 4.29838 5
631 1 0.303012 -8.85431 4.31042 23
632 1 -11.6148 -1.34004 -8.63566 17
633 1 4.18368 2.00341 -19.3279 13
634 1 2.85073 -4.6236 6.44233 19
635 1 -0.0854014 4.54219 13.8963 24
636 1 8.69017 10.7324 -9.30388 19
637 1 14.7129 -0.23569 11.7014 19
638 1 9.39579 4.62096 -8.01998 19
639 1 10.4905 13.8385 2.27136 18
640 1 3.69213 -10.6651 -7.8493 20
641 1 -9.68876 -1.00121 13.4527 15
642 1 16.3147 -2.23279 3.69744 12
643 1 2.04719 13.5635 12.6838 15
644 1 7.47284 13.2076 -10.061 14
645 1 -11.5338 11.0531 -5.66977 15
646 1 10.4274 11.339 0.16832 24
647 1 -7.75566 -13.4494 -1.15294 14
648 1 11.9128 -3.76369 3.07887 16
649 1 8.21781 17.5635 1.11064 14
650 1 -4.39254 4.72636 8.40487 21
651 1 -7.19592 -6.1724 2.94206 18
652 1 -5.54837 -2.61513 -9.48453 24
653 1 11.9969 1.77031 13.4015 19
654 1 -2.5961 -8.54181 9.83928 17
655 1 10.5139 6.41895 12.2207 17
656 1 -4.44438 15.43 -1.56345 15
657 1 13.0883 5.40424 -1.04698 19
658 1 6.90049 -0.204411 2.17377 23
659 1 11.8912 6.42215 1.90322 21
660 1 5.86125 -0.629243 -14.3833 18
661 1 -8.13957 0.666415 7.90982 19
662 1 9.83887 0.636392 -10.1168 21
663 1 1.0698 -6.31973 -7.55802 20
664 1 14.049 -8.6061 -6.71395 13
665 1 10.4285 2.31487 7.9442 21
666 1 9.51001 6.41354 3.29729 24
667 1 -7.71348 1.75568 13.2776 16
668 1 10.4459 6.9285 9.48746 20
669 1 0.89632 -0.89658 13.9699 15
670 1 1.01935 6.90607 11.7615 19
671 1 0.671198 -3.8593 -14.4091 20
672 1 -2.91559 4.78994 11.7199 22
673 1 10.4565 3.89113 10.8127 21
674 1 -8.93166 -14.924 5.38856 13
675 1 16.9904 7.47249 -1.14878 15
676 1 10.9662 -12.353 -2.70933 15
677 1 -1.73896 7.15509 -4.48288 16
678 1 8.88105 9.79828 -2.18273 21
679 1 9.38388 10.2492 3.67439 19
680 1 6.60979 0.518962 -18.0833 15
681 1 -1.5704 -1.03341 4.74919 18
682 1 4.14423 15.8652 -6.35583 22
683 1 13.8851 10.488 0.301607 19
684 1 -5.22544 -8.55962 -2.76728 22
685 1 -1.14263 1.18955 -17.4381 13
686 1 -8.91198 11.4713 -6.67341 18
687 1 8.66232 -4.89979 -10.1407 19
688 1 6.3419 4.8491 3.03026 20
689 1 13.0977 9.69094 -10.4195 14
690 1 11.3405 13.6608 -2.48103 19
691 1 1.77292 3.88947 7.0432 21
692 1 -8.04484 7.18517 3.03794 22
693 1 6.29537 8.89822 -7.5638 20
694 1 13.5305 4.10605 15.3476 14
695 1 15.592 1.25751 14.127 11
696 1 -0.195134 -10.7225 10.6209 12
697 1 -3.77798 10.5464 -13.5883 14
698 1 6.50779 12.103 8.77938 20
699 1 7.13242 -3.84796 -13.3534 20
700 1 4.3691 1.21454 9.46095 19
701 1 9.09289 14.492 -5.79787 14
702 1 11.5036 8.80905 4.71007 20
703 1 18.1692 -2.57524 -4.78898 9
704 1 8.12447 8.90806 16.4386 15
705 1 -11.8532 -1.81273 5.53794 22
706 1 4.8932 -14.6667 0.913191 19
707 1 1.79798 -0.56603 -9.06326 20
708 1 -8.21897 15.8713 1.1684 10
709 1 3.81211 6.47573 7.16751 19
710 1 8.72172 -4.62434 -5.03477 18
711 1 7.13944 10.8418 2.04115 20
712 1 -10.3393 -1.25624 2.70652 20
713 1 2.40248 3.16815 16.5649 17
714 1 -3.69328 4.6471 -16.7862 15
715 1 -5.33697 7.80571 -15.0578 14
716 1 6.51717 -11.8565 0.530034 22
717 1 11.3718 9.04816 -7.91899 17
718 1 5.75793 -7.36716 5.64824 19
719 1 1.21591 8.2197 2.2621 18
720 1 -10.1493 6.76244 11.1523 13
721 1 7.5532 0.704854 -11.7605 18
722 1 4.58994 -11.4045 8.52198 14
723 1 5.8452 14.4687 -0.564163 20
724 1 -2.82477 2.80038 14.6583 18
725 1 -7.82019 -6.75284 -12.3304 14
726 1 -2.67037 -9.63518 -15.0202 12
727 1 -5.18469 -11.5548 -9.68689 11
728 1 -0.0353869 17.8079 -8.47992 15
729 1 8.25897 -3.30061 -7.86261 20
730 1 0.637664 14.8 7.7543 18
731 1 7.36195 -10.4949 -8.21098 19
732 1 9.19953 -13.587 -0.383031 18
733 1 6.55066 -4.13343 5.51868 21
734 1 18.1163 1.84254 -9.11282 9
735 1 0.400586 -14.667 -5.365 19
736 1 -10.8907 -0.590803 8.89765 17
737 1 -0.877643 5.1024 -10.0443 19
738 1 -5.23072 -16.4804 -0.898378 10
739 1 -4.07829 -10.0715 -5.38718 22
740 1 -6.21741 1.57614 9.79057 19
741 1 -3.42646 -17.0004 1.93835 12
742 1 17.054 7.10262 -7.09012 13
743 1 -2.58983 15.8298 2.36085 13
744 1 -2.19232 2.65667 6.14097 19
745 1 -13.466 8.52848 1.9585 14
746 1 10.1728 -1.53065 0.695917 22
747 1 -11.2429 -2.41607 -11.9711 13
748 1 0.793653 12.1788 -6.34866 22
749 1 11.9416 3.23612 -9.24467 22
750 1 8.79616 14.549 10.0224 10
751 1 9.47839 5.76179 -5.76048 19
752 1 -12.1131 0.789728 -10.8125 14
753 1 -11.9918 -7.16642 -8.2067 10
754 1 1.64865 8.97139 17.1817 12
755 1 3.43775 9.15307 -10.8052 24
756 1 12.3613 11.5668 3.26351 17
757 1 0.200285 -1.62279 10.0409 19
758 1 -2.22859 -15.9513 -3.17264 17
759 1 -6.5908 -16.3031 7.5129 10
760 1 -1.93758 -6.1283 8.10963 20
761 1 16.7465 10.0026 10.0189 11
762 1 3.0812 -6.11591 -10.4074 22
763 1 -5.87023 9.726 -1.56475 19
764 1 9.99488 8.71571 1.58268 17
765 1 -7.29879 -4.56671 5.73852 23
766 1 10.2202 9.33875 -11.978 14
767 1 -1.32649 -16.7033 -5.98236 10
768 1 1.95438 -17.4041 -0.607386 10
769 1 5.24753 -11.8094 -2.21037 20
770 1 7.16063 5.12672 -10.0708 15
771 1 6.87234 19.5688 2.11667 8
772 1 -2.5936 1.31519 -13.8826 19
773 1 0.760872 1.86937 14.4741 19
774 1 2.32993 8.08587 -18.3079 12
775 1 -8.70845 -2.63104 -14.6615 11
776 1 -8.68465 -1.81714 -3.79891 21
777 1 3.26479 18.7949 -8.18873 14
778 1 9.06351 1.20625 -0.454953 21
779 1 -1.36879 -4.44286 -16.6456 14
780 1 -4.51402 -6.15073 -1.42234 21
781 1 11.8159 8.16675 -5.21402 16
782 1 14.0338 -5.67454 1.47055 17
783 1 -7.50028 7.2387 11.307 16
784 1 8.47665 -9.69435 3.68621 19
785 1 17.5106 -4.55541 -2.21296 13
786 1 12.8558 -5.79877 9.71033 11
787 1 1.9379 8.80447 5.66156 21
788 1 -9.20149 4.87072 12.7726 14
789 1 -5.01702 9.91817 11.1785 17
790 1 -3.56722 -11.2669 8.16647 22
791 1 11.745 3.0396 1.34454 21
792 1 7.91642 12.1559 11.4618 19
793 1 -11.7346 -0.0397806 0.474329 15
794 1 10.7254 -4.89492 -2.75115 20
795 1 -10.6394 14.3112 -6.59247 9
796 1 6.44308 7.90432 1.99092 21
797 1 2.22146 -16.4883 4.72947 10
798 1 7.6532 4.55004 12.4188 21
799 1 2.29728 13.2152 5.20191 19
800 1 2.26909 -10.1004 2.94888 19
801 1 -6.70774 0.0198661 -2.25829 18
802 1 5.26089 3.01643 11.9518 19
803 1 -10.2017 -3.33967 -5.30248 18
804 1 0.78044 10.6028 13.9186 13
805 1 8.41319 15.8777 -1.17371 22
806 1 -7.01037 -9.34235 3.6171 19
807 1 -2.5432 -14.2474 7.04267 16
808 1 9.29398 -3.55377 6.30571 21
809 1 12.6266 -2.86857 5.70216 22
810 1 9.80163 5.39642 6.44587 20
811 1 0.144219 8.63567 -2.29358 19
812 1 1.74043 -10.031 -10.6509 17
813 1 -2.93884 4.76767 -13.133 23
814 1 -2.87874 -0.528492 11.5694 18
815 1 0.169187 16.5736 2.05612 12
816 1 17.4896 3.041 1.8316 12
817 1 3.31574 10.2324 -6.2641 21
818 1 -2.03095 9.98885 13.072 15
819 1 10.851 9.58791 11.6392 18
820 1 9.51425 -2.70706 -11.4237 17
821 1 -4.91205 -11.8055 -1.5861 22
822 1 -3.90495 0.256422 -8.28679 18
823 1 14.8472 0.0238174 5.77887 15
824 1 4.95111 -0.600836 -11.4781 17
825 1 2.43011 7.37067 14.0389 17
826 1 12.0745 -11.4791 -7.69146 12
827 1 5.87593 7.11779 -18.6618 10
828 1 0.0201742 -5.88803 -4.31504 22
829 1 13.1032 7.19941 -12.6305 13
830 1 17.5553 -1.40511 -1.73177 14
831 1 -2.12623 -6.02755 13.5992 10
832 1 -0.591052 -9.22017 -12.7711 19
833 1 8.95639 12.6115 -3.35032 19
834 1 0.397323 -6.4158 2.64079 21
835 1 -10.8565 8.35634 4.04561 21
836 1 11.5105 3.24482 -4.34137 19
837 1 19.069 8.19692 4.2355 11
838 1 5.48444 -3.03568 -15.9132 20
839 1 -6.3065 11.7614 5.12142 20
840 1 16.7331 8.96272 6.37982 15
841 1 13.6082 14.6358 -5.07954 8
842 1 7.02289 5.3327 -13.7908 18
843 1 11.0644 -1.79234 -1.97022 22
844 1 -9.66888 4.78835 -0.0455196 19
845 1 14.6894 7.96067 4.57516 19
846 1 -8.76371 -3.50281 -0.90129 18
847 1 -9.55471 8.56772 -11.4439 13
848 1 7.93241 3.79081 8.90477 21
849 1 -11.519 2.04657 -7.63455 16
850 1 -9.79798 6.11558 7.09562 23
851 1 -3.71679 6.34837 -9.31743 21
852 1 14.8116 -6.39879 -8.93363 12
853 1 -9.70664 -8.15677 -6.40805 12
854 1 13.7631 -4.33518 -2.65265 20
855 1 -14.2619 5.6649 -0.265983 9
856 1 -4.79794 -5.57457 -4.70633 19
857 1 15.1289 7.77949 8.7522 18
858 1 -2.70674 -8.511 6.12069 21
859 1 11.1932 3.61945 17.2496 10
860 1 15.7655 -2.68576 7.01346 12
861 1 9.67741 -1.85198 3.69915 17
862 1 -10.6306 7.90582 0.79278 21
863 1 3.06082 8.56181 8.87946 20
864 1 4.87852 10.6801 -9.33598 19
865 1 1.76875 -6.59255 -16.8089 12
866 1 -3.47198 14.7703 5.27494 16
867 1 -10.2838 -9.46044 5.50693 14
868 1 11.0737 11.5016 -4.7108 16
869 1 2.34176 9.98772 11.096 18
870 1 14.7405 -0.158043 -5.74401 15
871 1 5.58323 -4.9432 8.18031 18
872 1 1.03346 14.1821 -12.4766 17
873 1 4.7265 13.1943 -7.92266 18
874 1 -4.82222 -1.25975 8.7316 22
875 1 17.6404 6.00143 5.34683 13