ITEM: TIMESTEP
25000
ITEM: NUMBER OF ATOMS
2000
ITEM: BOX BOUNDS pp pp pp
-30.0 30.0
-30.0 30.0
-30.0 30.0
ITEM: ATOMS id type x y z Coordination
1 1 -9.97376 2.74931 -2.26285 20
2 1 -3.32672 -13.9142 0.0200821 22
3 1 8.05261 9.9721 19.0608 11
4 1 9.56167 -13.748 14.1863 16
5 1 -8.51973 6.04495 4.3961 20
6 1 13.9356 -10.0316 -3.19564 7
7 1 -12.9795 0.347368 2.02383 21
8 1 -1.81646 -6.90198 20.4907 20
9 1 -10.9866 -2.26602 -1.5177 18
10 1 -9.02974 -16.1009 15.4313 14
11 1 7.94728 -4.31294 -5.32282 19
12 1 -3.47665 -13.6762 10.3298 22
13 1 -10.8 -14.2516 15.0797 15
14 1 2.87583 1.30566 23.251 10
15 1 -4.47364 0.369017 16.8271 23
16 1 0.424204 12.1167 -0.783533 14
17 1 -1.2889 -1.52549 20.925 21
18 1 -12.9768 3.82807 -1.65602 12
19 1 -13.0321 1.71155 22.1731 11
20 1 16.3309 2.54883 9.53042 11
21 1 1.92889 6.56093 -0.880304 22
22 1 4.35041 6.18422 -7.53139 13
23 1 11.5971 -2.75231 16.4268 18
24 1 -11.8235 7.21213 -1.57514 12
25 1 -6.97801 7.06354 19.2578 21
26 1 8.50103 -11.1688 14.3035 20
27 1 4.63826 -16.2635 -1.32079 12
28 1 9.36649 -15.7521 8.65895 13
29 1 -9.31027 -17.0643 5.43722 11
30 1 -9.21466 -7.61388 17.2024 20
31 1 3.11335 -8.3794 -5.52749 22
32 1 5.60178 -15.9866 -3.99924 10
33 1 -4.21694 1.99104 -3.90305 24
34 1 -3.34497 1.79829 19.9263 19
35 1 -0.909962 -12.5553 16.139 18
36 1 8.43553 -9.99342 20.79 12
37 1 -10.0896 -1.64283 9.3855 20
38 1 -15.2679 -1.30176 16.8193 9
39 1 -6.03179 10.8587 0.755991 15
40 1 -5.53568 -15.1213 -2.43212 12
41 1 0.609135 -0.315466 -3.92737 18
42 1 1.40405 -11.4788 -0.681073 20
43 1 -4.01009 -5.32499 17.5986 23
44 1 -10.6519 9.17397 7.0319 15
45 1 8.92769 6.84391 -6.48692 10
46 1 1.3843 14.2468 18.1171 12
47 1 -7.31907 5.43205 1.2728 21
48 1 3.43403 9.43779 3.81839 21
49 1 2.62543 -13.6773 9.84083 17
50 1 4.44806 -9.39926 2.53727 21
51 1 9.17548 -8.55275 -7.86943 12
52 1 -5.99892 6.77606 22.1176 17
53 1 -11.7372 -8.45168 5.97168 17
54 1 -7.96591 10.7116 -1.74658 14
55 1 -3.95785 -14.3454 16.52 16
56 1 2.11932 9.54862 22.0017 12
57 1 -12.5118 4.3723 4.02828 17
58 1 -5.43129 4.26462 19.7973 21
59 1 1.32141 -16.3519 11.3233 18
60 1 5.28858 -17.6901 12.884 12
61 1 5.62737 12.009 17.8759 12
62 1 -14.5564 -8.65544 -0.986536 9
63 1 -11.4529 5.48134 -3.94258 12
64 1 3.7518 2.88794 18.0 18
65 1 12.88 -6.689 -3.42852 13
66 1 6.57951 -10.9015 18.4069 16
67 1 -15.7501 -3.70818 7.61576 11
68 1 5.06371 16.4906 14.2084 9
69 1 4.07705 -3.77708 20.4496 17
70 1 0.208565 -17.683 13.6418 12
71 1 4.99422 -5.37389 23.9006 11
72 1 5.17825 8.44006 18.6987 16
73 1 -3.53997 -7.99811 -0.935523 22
74 1 -8.02533 6.83739 15.8465 15
75 1 -9.77243 11.5619 4.87097 12
76 1 0.384016 3.55116 -1.74457 17
77 1 12.0636 8.06739 0.78492 17
78 1 7.23023 -8.24918 13.7324 23
79 1 5.0692 -14.6369 16.5401 17
80 1 -4.89975 13.2852 6.82481 16
81 1 -12.6757 7.49811 12.8474 13
82 1 -11.4558 -6.36176 18.7835 14
83 1 -8.19837 11.8546 16.4855 11
84 1 -2.34933 -8.26248 17.9828 20
85 1 12.9021 -8.01401 5.43882 13
86 1 -7.85804 1.33124 15.5168 19
87 1 -15.1595 -15.2352 11.7755 10
88 1 8.33586 -10.8807 5.45392 21
89 1 5.31896 -3.68161 -3.26829 23
90 1 -4.89895 -11.1167 -5.85354 14
91 1 -0.0118524 9.90126 7.97601 16
92 1 -6.33438 3.52303 -1.28389 20
93 1 -1.12551 5.75481 24.4424 11
94 1 -0.39891 8.64966 4.17947 20
95 1 -9.79577 10.0574 10.1314 11
96 1 -5.73014 -11.8323 17.3444 16
97 1 14.645 -3.15653 17.6129 13
98 1 8.42725 -11.2799 -5.73531 16
99 1 0.094265 -1.97714 24.3596 13
100 1 -7.04507 -11.9364 7.26013 21
101 1 -8.60648 -10.8875 3.92799 20
102 1 11.7117 -12.6959 12.5021 13
103 1 8.74473 -3.37166 -2.76777 20
104 1 7.89673 16.0446 8.53161 8
105 1 -13.0239 -16.4104 14.3521 8
106 1 -7.34134 -18.9369 14.0719 12
107 1 2.08956 -5.53413 -5.73165 26
108 1 9.18423 -12.1693 7.95205 17
109 1 -2.00495 -18.5278 15.7072 10
110 1 -9.00397 -10.7891 8.98636 20
111 1 11.4783 6.26759 14.5523 21
112 1 14.7334 -3.88706 -2.90098 9
113 1 -13.3162 -13.5358 12.9244 19
114 1 9.25633 6.4964 12.574 23
115 1 14.9596 6.25147 14.3016 14
116 1 -6.54817 0.621016 19.861 22
117 1 -4.55404 6.25962 17.0397 24
118 1 -5.03296 5.8831 -2.57822 21
119 1 0.08773 -7.98563 -0.409241 25
120 1 9.03535 -12.6941 2.22431 21
121 1 2.25868 11.3833 -2.57664 12
122 1 12.7588 -5.58088 18.6332 12
123 1 0.941461 0.865142 -11.3486 6
124 1 -2.46913 8.01106 1.18279 22
125 1 10.9854 -3.7236 2.7135 21
126 1 -13.8077 5.53378 1.48729 11
127 1 -6.40299 11.0795 9.14268 17
128 1 6.71086 -0.294009 -3.39412 20
129 1 10.8783 -10.2728 9.91306 17
130 1 -4.84241 0.734534 -1.86501 18
131 1 -0.809195 9.13044 23.6809 12
132 1 10.4818 -0.513814 -2.51873 20
133 1 2.88038 9.50044 -0.876014 17
134 1 -1.55743 13.2888 7.70949 17
135 1 11.7065 8.26033 6.99363 20
136 1 -4.26568 13.8095 9.51332 14
137 1 3.80361 11.7626 0.804098 16
138 1 6.26888 7.62954 -4.50406 14
139 1 -14.05 -13.2641 8.90862 13
140 1 -13.9479 7.7015 3.68077 8
141 1 -3.16358 -6.41441 -3.53567 20
142 1 0.904693 -2.94133 -5.82014 19
143 1 11.8548 12.8011 11.6345 14
144 1 -0.602409 9.94917 14.3808 19
145 1 -11.8528 -5.36578 3.7893 20
146 1 -8.36183 8.6047 12.8385 17
147 1 12.9006 -2.59337 4.52298 14
148 1 -11.4483 10.3094 -1.22523 12
149 1 7.35598 -7.65624 19.177 21
150 1 6.50909 11.5567 6.5725 22
151 1 -2.64456 6.93481 14.7946 19
152 1 3.50628 -8.01143 -10.556 10
153 1 -1.3066 13.4513 19.9273 11
154 1 -0.620427 8.85124 -8.48203 13
155 1 2.41407 -5.25345 17.923 21
156 1 -8.1243 -11.7825 19.0668 12
157 1 -3.422 -8.25598 -6.28703 18
158 1 -4.41137 9.86881 -8.24213 11
159 1 -3.06123 -10.5604 15.509 19
160 1 6.65436 -13.3921 5.28989 21
161 1 -2.46704 11.1881 -6.55386 10
162 1 -15.9346 1.60718 21.9683 6
163 1 11.8796 6.31304 3.98569 21
164 1 -5.99966 2.55595 22.8569 20
165 1 3.68762 -13.9828 21.0107 9
166 1 3.13678 13.6791 12.6297 18
167 1 -3.5357 4.07609 14.5756 25
168 1 12.812 6.64298 16.9358 15
169 1 -4.00974 9.82871 3.48772 19
170 1 14.6906 -6.59339 -0.42842 12
171 1 -1.63034 9.75216 20.5163 17
172 1 12.6162 -8.27059 17.9444 16
173 1 -12.5096 0.499083 13.4378 20
174 1 -9.26505 -8.68392 11.821 23
175 1 9.99596 7.17073 17.7626 17
176 1 -12.0311 -4.48079 8.79919 21
177 1 -2.62452 -14.8748 7.04751 21
178 1 -2.152 9.238 12.1341 19
179 1 3.66789 13.5033 16.0175 15
180 1 -5.15812 11.8586 -2.73122 10
181 1 -9.44349 -7.39546 -5.15285 12
182 1 -10.1757 -8.96586 20.6204 12
183 1 -0.931567 -11.4601 12.7994 21
184 1 6.34497 -14.4857 18.8332 12
185 1 -12.0359 7.32031 19.0851 14
186 1 16.0998 5.54398 8.01487 13
187 1 -6.98962 -7.80612 -7.33889 9
188 1 3.97013 -2.10073 18.3464 20
189 1 7.04847 -17.2596 7.29703 12
190 1 -0.320685 9.14367 -1.42975 23
191 1 2.60169 -14.3735 -6.03377 14
192 1 9.94042 -7.22136 -5.4244 13
193 1 7.53032 1.18752 -6.76042 17
194 1 -4.7611 -5.42375 -0.811321 21
195 1 0.327544 14.5567 1.69795 9
196 1 -5.86315 -17.7107 19.9704 12
197 1 -1.32489 16.3379 9.62456 12
198 1 -8.90099 -6.18833 20.5646 15
199 1 -7.92994 8.29127 1.94715 20
200 1 7.36547 -2.32845 17.9633 20
201 1 0.0964672 -8.00414 -5.60335 21
202 1 -5.59712 8.02267 -0.477572 19
203 1 3.71974 5.89944 -3.89696 17
204 1 -8.06572 -15.0913 18.4736 11
205 1 -12.3162 3.4501 14.6176 19
206 1 -6.4298 4.52353 14.2943 21
207 1 1.61739 -15.0751 2.64031 15
208 1 -9.35937 -19.6704 7.99625 11
209 1 13.1816 -6.35654 2.57816 13
210 1 7.65255 5.99623 19.3906 14
211 1 6.78272 3.39777 -0.865184 19
212 1 -2.43004 8.18453 6.51208 19
213 1 -9.9934 0.44021 11.5516 17
214 1 -12.4066 10.4516 2.45464 9
215 1 0.94336 3.20481 17.4952 20
216 1 4.07572 -14.6794 12.7666 21
217 1 11.0624 -3.16838 7.97105 23
218 1 -11.4779 3.04611 12.1602 19
219 1 -10.682 -5.63545 -2.87952 16
220 1 5.33712 -0.350953 -7.82807 11
221 1 0.77671 -2.54482 18.2737 20
222 1 11.3361 4.73741 -4.49868 12
223 1 4.17353 -11.3208 5.39179 22
224 1 -1.14984 -2.86668 -3.40951 21
225 1 -5.87593 -13.9137 13.1952 20
226 1 7.8493 -3.53687 2.46682 21
227 1 -13.5809 -6.46062 16.1671 11
228 1 5.13244 -14.303 2.84225 19
229 1 -15.3069 -6.1547 -2.04991 7
230 1 6.54607 9.19466 4.63689 24
231 1 -1.82996 -10.6271 -8.27864 10
232 1 10.2241 1.95465 22.9737 11
233 1 13.4512 2.86883 9.43972 20
234 1 6.75423 -8.29932 -5.39717 21
235 1 -6.77901 -4.55795 -5.09852 14
236 1 -11.6453 3.54288 0.626945 17
237 1 -8.00572 -18.3867 17.4665 11
238 1 12.9587 -11.5589 18.4902 7
239 1 -3.37425 -12.6981 -2.78557 20
240 1 -1.97564 7.25743 -6.21229 20
241 1 -5.57667 -10.7077 9.76493 23
242 1 2.29887 8.29078 5.9337 19
243 1 -13.8725 -1.39278 20.7306 8
244 1 -8.99727 -9.44306 1.55607 19
245 1 -7.97195 -9.61036 -4.83005 12
246 1 2.22582 7.64022 -9.59381 8
247 1 -12.2331 -10.5605 -1.45752 12
248 1 6.92203 -10.9654 -8.09228 10
249 1 9.00352 -1.37541 -4.94646 16
250 1 9.04918 0.383113 13.3135 20
251 1 -8.05923 -12.8532 15.1391 16
252 1 -4.07921 -11.6772 7.41732 23
253 1 7.12959 -3.50457 23.1567 13
254 1 -5.51367 -19.3653 8.70488 10
255 1 -0.832788 -13.8563 11.0922 20
256 1 -8.28229 11.224 7.23812 12
257 1 4.82188 -7.30784 -7.73006 19
258 1 1.58765 -9.16329 -2.8878 21
259 1 -5.71492 -4.48983 23.325 15
260 1 -3.0546 0.795266 22.9264 21
261 1 2.48658 -11.4846 7.8025 20
262 1 -7.73693 -13.798 -0.740274 14
263 1 -8.88724 8.1718 -0.838711 17
264 1 11.3625 1.52909 14.6072 18
265 1 -5.1694 -1.00635 -4.26259 18
266 1 3.34297 3.23148 -0.644 23
267 1 7.70397 -15.2657 2.72679 14
268 1 -2.98161 15.988 6.71999 11
269 1 2.7661 10.6214 13.6947 17
270 1 9.03964 -1.14623 15.351 23
271 1 -10.1121 -1.45238 14.6696 19
272 1 -3.37012 -3.98639 20.6272 18
273 1 -7.0175 6.31376 10.791 19
274 1 4.70889 -9.49018 -2.52688 22
275 1 14.972 7.96168 2.32083 11
276 1 5.79468 -13.3755 10.3673 20
277 1 2.16652 -9.89129 20.9935 12
278 1 -12.6294 -4.8126 13.1167 14
279 1 4.75668 -16.7219 4.59779 13
280 1 -9.11628 4.90956 18.1023 19
281 1 -13.5493 4.90393 17.4329 14
282 1 -10.3722 -10.128 15.1152 19
283 1 -11.8007 -9.27566 17.6497 12
284 1 10.9334 -4.96689 5.7648 19
285 1 -5.63245 -14.0844 19.8751 13
286 1 6.42016 -8.08549 -0.291987 23
287 1 6.37047 -12.2457 -2.88249 20
288 1 0.0389853 16.8332 6.47381 11
289 1 -5.87296 10.3947 -5.7003 10
290 1 1.15356 12.9528 21.7047 9
291 1 -10.736 -5.48557 11.126 19
292 1 6.12169 -11.2675 7.89068 22
293 1 -4.02066 10.1902 14.1923 20
294 1 4.28126 -12.5935 18.4547 17
295 1 12.3778 -7.81703 10.1514 16
296 1 -2.50365 3.08247 16.8093 21
297 1 -0.35935 1.53562 20.138 20
298 1 -10.2738 9.59225 14.3205 13
299 1 13.1539 3.89423 20.715 12
300 1 -6.06287 11.0087 3.7804 18
301 1 -2.38467 -1.6023 -9.8542 12
302 1 3.53297 -11.6223 -5.07573 23
303 1 -8.24565 6.09659 23.4168 11
304 1 -14.3421 -4.57354 10.5457 12
305 1 -5.6813 7.79438 8.3516 17
306 1 7.83559 -4.42871 15.7393 18
307 1 -11.2168 -13.5275 9.56434 20
308 1 5.62016 -7.34309 16.1714 21
309 1 -7.90544 -9.70759 16.9205 18
310 1 -12.059 6.81696 9.23136 17
311 1 -2.81971 -2.56596 17.5637 21
312 1 8.15495 -10.9137 -0.189394 25
313 1 -4.28487 -3.84384 -4.73877 19
314 1 6.15437 -3.72551 -8.35524 14
315 1 2.47369 9.8031 9.564 20
316 1 -10.5104 -2.12488 3.9273 19
317 1 0.280628 -12.4622 -3.20378 19
318 1 8.77202 2.1554 -3.67107 19
319 1 -5.3703 -15.4512 1.22112 16
320 1 -10.0215 -8.54227 -1.95395 17
321 1 11.7675 1.70621 20.095 21
322 1 13.1018 3.07579 5.40162 19
323 1 -5.01778 7.02651 -5.94615 19
324 1 3.74958 12.564 9.17624 18
325 1 -13.838 -10.0781 7.06036 13
326 1 -8.4408 3.32961 11.9056 21
327 1 -5.39978 9.08058 11.0119 21
328 1 -5.5944 3.03703 17.1425 22
329 1 8.3967 0.663065 19.9851 21
330 1 9.69576 -6.21874 2.89968 21
331 1 3.30522 -6.82719 21.367 18
332 1 10.1905 2.93457 0.0354987 22
333 1 -3.80191 -18.1284 2.9687 12
334 1 0.758233 8.72713 11.8368 17
335 1 -10.151 -0.484325 1.29681 20
336 1 9.11936 -16.5416 5.36221 9
337 1 13.7037 -3.09258 13.4705 22
338 1 -8.6177 -2.68268 1.65194 19
339 1 -7.63008 -11.5242 11.2366 19
340 1 -7.18633 -9.3886 20.8887 12
341 1 -3.42694 10.4249 9.26184 20
342 1 -12.292 -11.6362 3.79687 11
343 1 10.228 4.56995 20.1392 19
344 1 -14.4215 1.97324 4.06849 18
345 1 -1.61065 6.41439 -1.60421 22
346 1 4.48123 8.90684 12.2647 21
347 1 -14.7149 -9.58193 10.1728 10
348 1 -0.445661 -12.2085 1.91102 21
349 1 -12.3077 -2.21175 11.1891 21
350 1 -14.4362 4.17165 6.39986 12
351 1 2.10275 -11.6039 13.4039 22
352 1 -5.81925 -16.8255 4.23003 13
353 1 12.9157 9.24902 15.6781 13
354 1 8.81285 3.8224 -6.01295 12
355 1 -11.65 0.760344 -1.14094 18
356 1 2.92283 14.566 6.15506 13
357 1 -8.7481 2.46977 0.845759 22
358 1 -2.61632 -14.4531 13.4787 19
359 1 16.0615 8.81133 11.9101 10
360 1 1.97546 3.74009 -8.26398 12
361 1 -12.3186 0.650845 9.68671 22
362 1 -4.32067 -17.7093 6.65794 18
363 1 11.3816 -11.2905 -0.877848 13
364 1 -15.6703 2.16071 18.084 9
365 1 -11.9837 -2.21969 17.7181 14
366 1 -10.6393 8.244 3.8252 17
367 1 -9.81669 2.78012 -5.46957 14
368 1 7.73645 -15.5706 -2.1228 9
369 1 -1.60316 -9.3259 -3.19151 20
370 1 -7.21497 -6.0809 17.6764 20
371 1 -2.68883 4.70864 -4.34177 21
372 1 9.31785 -13.4437 10.4139 18
373 1 -1.71463 11.4221 -3.23749 13
374 1 -13.1115 8.64753 16.0317 10
375 1 -0.690985 -4.70763 22.8408 19
376 1 -12.982 -8.22534 -3.81638 10
377 1 -13.0416 -11.9829 15.3455 14
378 1 11.7101 -11.1933 15.0875 14
379 1 10.4304 -16.0654 11.806 12
380 1 14.9989 7.96514 5.86994 14
381 1 -6.81058 -4.22393 20.4275 20
382 1 4.92106 8.36676 1.49363 20
383 1 -2.12185 -17.1918 4.53578 17
384 1 -5.23517 4.67456 24.8835 13
385 1 -1.10071 11.5457 17.6391 18
386 1 -6.28995 -12.4028 -3.40811 15
387 1 9.52788 10.7338 7.81304 16
388 1 5.77151 3.9342 15.1148 20
389 1 -9.54821 -3.98189 18.1792 19
390 1 -5.55453 -10.9222 4.40963 20
391 1 -9.92115 3.09141 22.7991 13
392 1 -12.0541 -9.56845 1.6673 12
393 1 -5.21433 9.57269 20.4539 10
394 1 -3.57893 -12.2309 2.13443 19
395 1 -2.24389 -10.7118 -5.28934 16
396 1 -7.11507 -14.0182 10.1762 21
397 1 7.12433 1.58325 15.4229 20
398 1 -5.34495 -8.94358 18.1754 19
399 1 -14.3647 10.7868 -0.24981 4
400 1 9.38803 4.04411 9.92168 21
401 1 -4.74688 -16.1746 9.48741 19
402 1 -4.30204 12.2645 11.6688 18
403 1 2.49314 11.0327 16.4711 22
404 1 -12.5774 -3.12044 5.99899 19
405 1 6.9654 12.8202 8.69609 21
406 1 9.77434 9.56629 -1.28186 12
407 1 -7.05532 -8.07745 -0.647005 17
408 1 -0.105218 0.782576 22.7131 16
409 1 3.34115 -14.5144 0.133035 17
410 1 -1.50296 -5.35146 -5.52305 20
411 1 8.50667 -16.9074 14.2525 10
412 1 -10.205 5.96522 11.6793 20
413 1 0.193057 6.53175 19.9814 18
414 1 9.57368 5.82743 7.11864 20
415 1 4.90782 8.79434 7.16678 23
416 1 -6.4048 4.07207 -4.73921 19
417 1 -10.5468 -6.05878 6.40591 19
418 1 -2.29542 15.0409 12.4079 12
419 1 -5.99422 1.36445 -6.28815 19
420 1 11.513 6.42414 9.91358 18
421 1 4.8719 11.8127 4.20562 19
422 1 15.0193 0.0794786 5.56087 13
423 1 -2.28981 -2.65379 -7.03371 19
424 1 1.54241 -12.9584 18.9201 15
425 1 0.407275 -15.632 19.5168 10
426 1 -7.48874 1.00242 -3.25692 21
427 1 -4.17906 -11.7528 12.8937 21
428 1 3.30467 -12.8666 -2.54825 19
429 1 7.06679 8.47171 13.1293 19
430 1 -3.31519 8.30803 -3.40551 20
431 1 5.51997 1.91379 21.1836 17
432 1 -8.60509 -1.88593 20.401 16
433 1 -1.00255 -18.0311 6.91436 16
434 1 -15.715 -5.40344 4.72854 8
435 1 12.9194 -5.83368 7.94261 14
436 1 9.50879 -2.19463 5.02573 23
437 1 2.68747 -12.1328 2.64928 22
438 1 3.60245 -0.354203 -3.40411 21
439 1 11.4067 -5.52811 0.0399088 23
440 1 -5.83962 -1.96765 25.4277 11
441 1 9.56543 13.6665 7.31743 15
442 1 -4.79728 -1.00134 -6.88784 18
443 1 10.3212 0.513827 -6.91831 12
444 1 -7.51609 -7.64391 14.6082 21
445 1 -0.526621 11.3548 5.12168 15
446 1 -6.57022 -6.46663 -3.18797 15
447 1 -13.6693 -1.97465 8.53997 16
448 1 0.214632 -12.5733 -6.57923 15
449 1 -5.27704 -19.3503 16.8892 14
450 1 6.86614 5.49176 1.77006 21
451 1 13.3677 -2.47973 20.3749 13
452 1 15.8898 2.91671 6.06818 14
453 1 -10.4031 -11.4994 6.44348 22
454 1 -3.22433 0.379367 -8.90746 16
455 1 -8.38735 9.25518 17.902 13
456 1 8.97195 -5.71772 7.99058 23
457 1 -2.25838 13.2015 1.45678 11
458 1 13.697 1.80416 -3.06268 10
459 1 0.0415052 3.95115 22.5605 14
460 1 -10.6576 1.35661 16.2026 19
461 1 5.88039 9.91054 15.6831 19
462 1 7.67589 -6.797 22.5651 13
463 1 0.668969 0.410748 -8.18834 14
464 1 -5.00461 -9.19616 1.96642 21
465 1 -1.36151 0.410233 17.3507 18
466 1 12.9573 7.68534 12.2897 21
467 1 8.33668 0.621393 -0.713467 20
468 1 -5.34056 7.15655 3.50123 22
469 1 1.85418 12.0021 3.22076 16
470 1 9.60931 -12.8582 17.6819 15
471 1 9.66755 -8.36703 -0.444126 19
472 1 11.9525 -12.2944 1.94077 13
473 1 11.4334 9.40789 18.4772 12
474 1 -10.8548 -11.9227 12.3213 18
475 1 -3.00994 10.3545 -0.896014 19
476 1 -13.3408 1.73013 17.0227 18
477 1 -1.10642 10.798 1.77132 18
478 1 5.52178 -14.2842 7.70337 18
479 1 4.85154 -5.05767 -0.393595 22
480 1 0.780344 12.9337 8.95523 16
481 1 -8.44807 -4.86983 -0.83053 20
482 1 6.69854 -14.403 13.3238 19
483 1 -13.3588 -9.74987 13.4234 15
484 1 0.324956 10.3387 -5.94999 11
485 1 -3.4925 6.99498 20.0397 23
486 1 -11.0212 -5.01676 15.9641 19
487 1 -0.675195 -15.2018 -5.21366 12
488 1 0.76465 -7.95379 18.3191 22
489 1 -9.98531 3.92741 8.94385 19
490 1 2.13074 -4.38857 24.7447 11
491 1 6.58531 10.9218 1.10162 15
492 1 11.2931 -11.3083 4.9205 13
493 1 -1.08441 6.54592 17.4171 21
494 1 -2.70414 3.566 -9.64054 13
495 1 -11.7171 -16.1246 11.9471 17
496 1 7.69417 -5.77249 -7.77526 16
497 1 0.277474 13.7427 14.8152 16
498 1 11.5035 7.63775 -3.87981 10
499 1 -4.32108 -5.63232 -7.062 13
500 1 -3.72797 -14.2751 3.77707 22
501 1 -9.25925 -3.36067 -3.66635 14
502 1 10.8741 1.07889 10.6541 22
503 1 15.025 2.2044 2.93677 14
504 1 4.78147 -11.3397 0.182344 26
505 1 10.8464 5.72401 22.5555 11
506 1 6.3946 -11.9109 2.77084 22
507 1 0.12343 4.31963 -5.8675 15
508 1 6.05695 13.9568 11.379 15
509 1 8.96975 9.50549 16.521 15
510 1 12.6477 5.50876 7.22618 22
511 1 15.7549 -3.42624 11.6526 12
512 1 13.6603 5.14335 1.58096 16
513 1 7.89318 -4.64985 20.0579 18
514 1 14.6742 3.39697 18.4438 12
515 1 -1.29532 -5.06067 17.8458 21
516 1 9.8968 9.12044 4.52724 18
517 1 0.928202 -4.86918 20.7555 22
518 1 11.7312 -0.00646338 0.10561 22
519 1 9.76794 0.411582 17.2206 20
520 1 -6.97859 -2.01363 -1.2821 15
521 1 15.3578 5.65711 11.5606 15
522 1 -11.2945 0.200507 19.4851 16
523 1 6.03072 13.7044 14.6758 12
524 1 13.8148 -0.88858 14.9408 19
525 1 3.63577 7.9005 15.1166 20
526 1 0.735809 9.17011 18.267 16
527 1 -6.64423 -18.0804 11.6013 13
528 1 -6.60971 5.51368 6.79335 20
529 1 8.08358 6.38841 4.63281 22
530 1 12.7781 -1.81214 -5.21557 10
531 1 -2.44239 15.8937 3.7845 11
532 1 -2.67055 -17.1341 -0.921742 15
533 1 9.66241 -6.55698 -3.24738 16
534 1 -13.633 3.75278 20.3214 13
535 1 -8.93911 5.34877 -6.88907 11
536 1 -11.1259 -16.9334 7.34416 16
537 1 -0.565894 -14.5052 -1.23307 18
538 1 -11.0603 1.03532 4.21012 21
539 1 9.06206 -7.7054 10.8468 24
540 1 13.4326 10.7611 12.9496 14
541 1 0.732609 -10.0439 15.8486 20
542 1 -11.6536 -3.4765 2.08148 18
543 1 4.80357 2.65995 -7.7743 12
544 1 -5.25676 1.11312 25.5104 15
545 1 5.14144 6.03185 -1.09101 17
546 1 14.7192 0.515046 20.0983 10
547 1 9.66727 -0.258674 2.56896 23
548 1 13.2381 10.7771 6.77745 15
549 1 1.58783 -17.7454 0.0747836 9
550 1 -9.06983 -2.68262 24.3164 9
551 1 10.7056 -1.57036 18.8663 18
552 1 2.97224 11.7397 19.6198 11
553 1 6.27917 4.71618 -5.55842 15
554 1 -10.3134 5.82203 0.771702 18
555 1 8.37993 9.70013 10.6703 17
556 1 -7.59223 -17.2216 7.42089 19
557 1 10.5544 -3.00756 12.9926 20
558 1 0.293664 15.2391 11.5659 14
559 1 -8.382 2.31884 18.404 20
560 1 -10.3417 -7.63604 8.91418 20
561 1 -10.5575 -6.3834 0.772424 16
562 1 11.8364 -5.78718 15.8518 18
563 1 -0.437381 -15.6645 16.2315 18
564 1 9.68825 -2.16218 21.4928 15
565 1 -7.45004 8.76483 5.10077 22
566 1 4.14262 -2.61156 -5.79936 17
567 1 -8.72376 -4.41866 14.6807 19
568 1 8.14493 -5.47666 -0.214662 23
569 1 12.9289 -9.1174 -0.570979 15
570 1 5.214 5.97698 17.2388 19
571 1 -15.2216 -1.18864 12.9368 9
572 1 14.6984 2.81316 12.4005 15
573 1 -4.87551 -1.22396 20.1959 20
574 1 -3.58871 7.28075 23.6902 13
575 1 4.94295 -5.48223 -5.68007 19
576 1 -5.16493 -7.0828 20.0561 21
577 1 4.50705 -2.06709 23.302 14
578 1 -9.70948 -18.8821 11.2852 12
579 1 14.2145 8.33053 8.89956 20
580 1 7.57617 -16.1987 10.5558 18
581 1 12.8018 13.4005 8.16973 12
582 1 11.1604 11.9049 15.1289 11
583 1 1.40257 -2.26523 -9.4154 10
584 1 10.2309 10.5928 1.5841 14
585 1 11.4976 4.27715 12.4785 21
586 1 -8.96145 -14.5024 7.16455 22
587 1 -1.92259 1.4596 -12.0761 6
588 1 -4.86999 10.7188 6.73057 18
589 1 4.1437 -12.2455 -8.23961 11
590 1 11.8806 5.59332 -0.484064 18
591 1 8.1203 11.9357 3.26867 14
592 1 9.62827 3.68468 4.69211 19
593 1 12.0545 -0.922507 22.2549 12
594 1 9.8377 -5.87059 17.8307 18
595 1 -6.15918 -16.0636 15.8516 20
596 1 -0.378452 5.9777 -8.6233 16
597 1 11.4665 9.80694 10.2372 19
598 1 5.9013 -9.65205 -10.1577 9
599 1 8.25303 8.08481 1.71647 23
600 1 5.73546 9.70894 9.7404 22
601 1 13.3316 -4.27531 10.1469 16
602 1 6.21752 -1.70754 20.9995 19
603 1 -12.5799 -7.67443 11.0814 17
604 1 2.6357 -15.8576 17.7784 16
605 1 -8.83688 10.8853 1.64379 16
606 1 4.71586 7.11874 9.86085 21
607 1 -14.9836 1.04422 7.42624 13
608 1 -3.09016 3.22932 24.5149 13
609 1 -7.01229 8.23275 -8.29607 9
610 1 -9.55096 8.25806 -3.54063 13
611 1 0.712772 -14.7073 7.64931 17
612 1 8.16085 2.39549 2.33819 24
613 1 -7.77993 0.558748 22.8406 16
614 1 6.72025 -6.55146 -2.83011 22
615 1 1.95991 -13.1482 16.1145 17
616 1 3.3592 11.6188 6.65295 17
617 1 -3.02722 -5.00502 25.6326 9
618 1 -5.20654 -9.25419 -3.51092 20
619 1 -2.7557 -15.9755 -3.82215 12
620 1 -6.91987 -12.5894 1.8371 20
621 1 0.541746 14.87 4.26161 13
622 1 3.13171 -8.09035 -0.124241 23
623 1 -6.73051 11.0894 13.6292 16
624 1 11.748 -10.7682 -6.17163 7
625 1 2.98195 -14.0262 5.60443 19
626 1 4.43432 -8.53159 18.5403 19
627 1 14.1718 -0.59647 -0.948181 13
628 1 1.3608 -17.0222 5.13562 15
629 1 -13.2186 -2.07258 14.7902 16
630 1 -2.38984 -19.9628 9.04829 10
631 1 -6.92385 -13.8954 4.66325 16
632 1 -11.0585 -0.0160762 23.0962 10
633 1 -0.0191292 -18.6026 10.2675 14
634 1 14.8571 5.39966 4.41554 15
635 1 0.681546 12.0555 11.9125 18
636 1 -13.1786 3.8937 9.12498 19
637 1 13.0968 0.563131 7.95091 18
638 1 -13.1786 -3.32824 -3.04791 11
639 1 1.5031 8.36486 1.36629 22
640 1 9.83182 -2.28765 0.0173826 22
641 1 3.79207 6.74324 20.6567 13
642 1 11.0101 0.741768 5.29589 20
643 1 -14.403 -0.91369 4.80695 17
644 1 -13.3766 -5.0437 0.119657 15
645 1 2.16104 3.09478 20.783 15
646 1 5.56282 2.64222 -3.64766 17
647 1 13.1401 6.58355 20.0238 13
648 1 -5.95706 -1.40183 22.8226 21
649 1 4.41738 -19.0997 6.62313 9
650 1 -4.29834 -16.7161 14.081 17
651 1 -3.14085 -6.36 23.0083 16
652 1 10.3529 7.81634 20.7385 14
653 1 -1.72185 -11.1665 -0.814075 21
654 1 -11.312 6.32949 6.55963 17
655 1 5.73558 5.93531 12.9205 22
656 1 -14.1109 -9.67139 16.578 8
657 1 13.7368 5.18605 -2.41267 10
658 1 -1.52206 -15.6941 2.03116 18
659 1 3.20282 -17.4736 14.6415 14
660 1 -3.45565 -17.5733 17.9622 14
661 1 5.08121 0.627286 -0.422604 25
662 1 4.60736 15.4068 9.26909 12
663 1 -0.412251 -4.5985 -8.58996 16
664 1 -2.60922 -0.242534 26.0736 10
665 1 -4.48512 3.83115 -7.41327 16
666 1 -8.3278 -0.93665 -6.13755 10
667 1 -8.39717 -8.89283 6.60871 20
668 1 1.89409 17.169 8.73311 10
669 1 -1.443 -7.38389 -8.01254 14
670 1 11.8258 2.40886 2.63752 20
671 1 12.3792 -6.29945 12.7541 18
672 1 -5.52309 9.83401 16.7804 20
673 1 5.66798 -11.5605 13.1417 21
674 1 10.6907 -4.90266 10.572 21
675 1 14.4975 -5.6328 15.6538 12
676 1 0.923383 6.90065 14.9704 18
677 1 -10.6122 5.2018 20.9786 14
678 1 -8.86802 -1.12771 17.294 20
679 1 -2.07785 -17.3 11.2586 13
680 1 2.36225 6.07648 17.7312 18
681 1 -13.9631 -1.24327 -0.188921 16
682 1 9.69982 -7.91875 5.46456 18
683 1 -6.45371 8.40232 -3.35633 19
684 1 5.39463 -17.7507 16.7115 8
685 1 1.94202 -1.7843 21.3645 16
686 1 -4.28372 12.5105 17.8337 12
687 1 0.573286 -14.4312 13.6459 19
688 1 1.87354 0.488497 18.3135 21
689 1 -13.858 -6.19402 6.87556 14
690 1 7.4917 0.264478 23.0459 13
691 1 8.02331 14.1594 4.92702 9
692 1 -14.0318 -15.8466 8.82441 11
693 1 0.304042 -21.8943 9.91919 6
694 1 5.73711 -5.04152 18.2601 21
695 1 13.5555 -9.91298 12.1608 10
696 1 9.38997 3.9669 15.2771 20
697 1 -5.18372 -10.8762 -0.609973 23
698 1 -2.65231 -0.636829 -4.96419 21
699 1 2.81613 -7.71096 23.7128 9
700 1 -2.69066 12.7728 14.9336 13
701 1 14.3228 -2.70213 7.55022 11
702 1 3.55088 5.22763 1.78437 22
703 1 -7.79888 3.58772 20.726 19
704 1 10.1083 9.07922 13.4545 22
705 1 7.82394 -9.3457 -3.18481 19
706 1 -5.61597 -14.1892 7.47292 18
707 1 12.8338 0.456838 12.3419 21
708 1 3.45301 -6.44951 -2.87336 24
709 1 -1.85246 4.3325 19.2676 20
710 1 10.0684 -11.7322 -3.4759 14
711 1 12.0308 -3.12818 -2.06933 20
712 1 11.3454 1.36163 -4.53781 16
713 1 12.9658 -1.44974 10.402 21
714 1 -0.149018 -8.20339 22.1967 16
715 1 0.127651 -18.0835 -2.93527 8
716 1 12.8991 9.53444 3.73211 16
717 1 -14.6224 5.65515 11.6648 10
718 1 13.5678 2.59069 -0.0231926 17
719 1 14.2261 2.8494 15.0212 16
720 1 2.15148 -10.2332 -7.48064 13
721 1 -5.32847 13.0081 14.8199 12
722 1 16.5042 -0.395351 12.6171 12
723 1 7.24868 8.87593 -1.03966 21
724 1 2.81147 0.553097 -6.39785 14
725 1 7.78473 -8.58809 8.14794 23
726 1 -10.2192 -0.250076 6.74232 20
727 1 8.19819 3.26794 12.3708 22
728 1 -11.7187 -10.1439 9.20624 21
729 1 -8.31232 5.5883 -3.05883 18
730 1 6.3377 0.4189 18.202 21
731 1 -14.1252 -3.1703 2.81352 17
732 1 -14.6063 2.19129 12.0604 13
733 1 -2.97975 3.79999 -1.33646 22
734 1 10.7974 -9.90207 1.95509 20
735 1 -9.96528 -12.0928 0.93058 16
736 1 10.5483 -9.23566 7.33447 16
737 1 -14.7544 5.26108 14.4825 11
738 1 -10.1075 -8.17747 3.41963 19
739 1 12.6192 0.121889 17.6066 20
740 1 -2.73068 -14.1158 18.918 13
741 1 10.029 -7.76167 19.6165 15
742 1 9.7312 -10.4005 17.8151 20
743 1 9.18643 -5.90899 13.6754 20
744 1 -9.20544 3.85598 14.9415 18
745 1 6.40278 11.6396 12.418 19
746 1 8.67138 5.77695 -0.582246 18
747 1 -0.178898 -8.30448 -10.6422 7
748 1 -11.0794 9.96686 17.7513 13
749 1 -9.40201 -16.5461 9.67275 22
750 1 7.91705 8.59178 7.07652 22
751 1 2.02345 6.97296 23.2402 12
752 1 13.6245 -3.20586 0.385267 17
753 1 9.34612 -7.97104 16.0465 20
754 1 8.64877 9.35607 -4.13961 11
755 1 2.16235 8.67406 -3.67393 15
756 1 -6.10323 -2.84391 17.9371 22
757 1 15.3899 -9.7588e-05 9.79358 16
758 1 0.14127 -6.05977 -3.11367 24
759 1 11.2001 12.4264 4.71427 13
760 1 -11.9801 2.69165 6.67287 23
761 1 -3.23447 -9.2623 21.1022 13
762 1 5.63528 10.5625 -2.18409 13
763 1 5.57024 -9.58132 21.4739 11
764 1 -0.349299 -14.1475 4.87818 22
765 1 -2.91595 12.6723 4.38744 16
766 1 -15.9527 -0.447734 1.9005 11
767 1 14.0697 -9.24298 2.308 10
768 1 2.02621 -15.8031 -3.4798 15
769 1 -9.18749 7.02552 9.00123 19
770 1 10.0243 5.17462 2.12214 21
771 1 6.20008 -6.14749 -11.2545 8
772 1 -8.51587 -10.9376 -1.17356 20
773 1 10.1982 -14.1321 4.48445 12
774 1 -2.31775 12.0196 22.3802 7
775 1 10.2979 -13.8022 -0.721752 10
776 1 0.36039 6.82243 -3.60384 19
777 1 13.5371 -0.282413 2.71513 18
778 1 7.70792 6.60942 9.75621 23
779 1 2.91571 -20.158 10.1172 8
780 1 2.05159 -5.94105 -9.20861 13
781 1 10.7552 2.87263 7.65114 21
782 1 -0.7587 2.09149 -3.89414 19
783 1 -0.56926 -10.6158 18.7473 13
784 1 4.83734 6.44684 4.5417 25
785 1 6.68295 -1.98816 -0.496333 24
786 1 -9.87978 3.92054 3.30463 17
787 1 -11.0817 3.6739 18.4904 19
788 1 -0.218212 -4.92182 26.5639 7
789 1 -8.28708 -15.1198 12.7006 20
790 1 7.78923 6.97783 15.7233 23
791 1 1.84369 -18.1484 8.17855 15
792 1 1.51015 7.22082 -6.378 20
793 1 -9.7068 8.42315 20.8549 11
794 1 -2.93142 -2.36097 23.5376 20
795 1 -11.3385 6.24194 15.3063 20
796 1 -6.38696 -10.6348 14.6567 19
797 1 4.21761 -10.2898 15.5012 19
798 1 7.1078 2.99185 18.0799 18
799 1 8.03219 -8.95229 2.25982 20
800 1 6.10061 -13.6899 -5.70895 13
801 1 -2.13049 1.94337 -6.72488 19
802 1 -7.4504 3.03771 -8.49707 6
803 1 2.22801 16.9198 13.2182 8
804 1 -2.80363 -16.4535 20.8943 9
805 1 -3.66444 5.47556 1.04837 22
806 1 -14.8038 2.31987 0.735834 14
807 1 10.8767 14.9805 9.92217 10
808 1 -12.2332 -19.1855 8.84752 9
809 1 11.5163 3.50634 16.9646 21
810 1 -11.6809 -14.3187 6.503 13
811 1 9.19274 13.0852 12.8836 11
812 1 -8.03046 -7.26852 23.1755 7
813 1 -0.288211 -18.6077 3.31648 10
814 1 16.5886 -2.54696 14.777 10
815 1 4.26449 -16.5942 9.87788 16
816 1 7.95461 3.40632 22.0624 11
817 1 8.44022 -2.10292 -8.37019 12
818 1 7.82757 -10.6087 10.8096 21
819 1 2.20705 -3.37037 -3.14458 22
820 1 -10.1647 -0.480222 -3.96853 13
821 1 -3.60223 6.75472 -9.02446 13
822 1 -3.37208 4.15073 21.9211 22
823 1 7.10026 -12.7547 16.2732 19
824 1 -10.8207 -7.42835 13.8403 22
825 1 11.0953 -8.64378 13.5406 20
826 1 2.16166 2.87868 -3.91155 19
827 1 14.2432 11.0527 9.92286 13
828 1 -2.84304 9.20123 17.5247 22
829 1 -15.6798 -11.4396 13.3346 8
830 1 6.7224 -13.8693 -0.0300417 20
831 2 -14.0992 -5.05516 -2.73988 10
832 2 -2.48161 11.6457 2.74087 17
833 2 -2.17625 -4.74998 -3.61446 19
834 2 -4.90036 9.23708 18.5799 17
835 2 8.11972 -9.5056 -6.44838 16
836 2 -6.6793 -8.52389 1.01763 19
837 2 -1.81915 1.94535 18.6646 18
838 2 7.92734 -8.74297 22.3726 9
839 2 -14.8326 -14.4852 10.0969 12
840 2 -12.232 6.29765 0.350844 14
841 2 1.47517 8.94702 14.4003 20
842 2 -8.30484 1.37333 11.233 24
843 2 2.28196 11.3845 -0.52521 17
844 2 9.49081 4.52819 12.1651 20
845 2 -0.816967 15.3954 2.9975 12
846 2 6.96355 14.7469 9.64381 16
847 2 -11.6683 -9.10011 -2.45446 13
848 2 -14.4588 -6.5096 -0.35654 9
849 2 5.70242 -1.4731 17.5219 21
850 2 6.35767 -6.26891 -0.979841 22
851 2 4.47517 -16.4306 11.694 19
852 2 -15.4097 1.655 2.47859 12
853 2 -12.987 0.157521 3.88396 23
854 2 8.7198 0.569578 15.3189 19
855 2 12.7546 -2.65883 2.65261 17
856 2 -8.6633 -10.9145 7.01018 20
857 2 -12.5088 -10.8564 16.805 11
858 2 -7.19376 -11.8765 9.30511 21
859 2 9.31051 -16.922 10.2359 12
860 2 1.03799 -16.8592 2.30111 15
861 2 4.5389 -5.11207 22.06 19
862 2 2.29145 7.03091 -4.735 19
863 2 -0.364474 -17.7692 11.8029 13
864 2 -8.4108 -11.3151 1.98555 17
865 2 0.0811811 -0.38282 19.7872 15
866 2 -10.6837 5.46668 8.28455 20
867 2 -4.60591 -0.745158 26.2965 11
868 2 -6.91148 5.61452 3.42638 21
869 2 5.48254 -15.9841 17.4792 14
870 2 -3.95146 5.81003 13.9011 20
871 2 -1.81622 6.4296 0.266385 21
872 2 9.65415 9.50868 18.6368 11
873 2 3.29194 -6.02656 -0.986043 24
874 2 7.30986 13.4757 13.0175 13
875 2 10.084 -6.49776 -1.23383 22
876 2 -0.800952 11.7115 15.5328 19
877 2 5.09078 6.59303 -5.57625 13
878 2 -4.40198 10.961 -6.58696 8