ITEM: TIMESTEP
14000
ITEM: NUMBER OF ATOMS
500
ITEM: BOX BOUNDS pp pp pp
-30.0 30.0
-30.0 30.0
-30.0 30.0
ITEM: ATOMS id type x y z Coordination
1 1 3.15317 -1.65824 3.47357 17
2 1 -6.0902 5.23476 5.54912 17
3 1 7.2723 2.925 4.11765 10
4 1 -13.9724 2.32811 -0.379537 12
5 1 -5.69077 4.0225 -11.2877 13
6 1 -0.663512 1.778 5.52761 17
7 1 -10.4057 3.95436 -2.22295 23
8 1 -2.08045 3.55077 -10.691 17
9 1 2.54012 -4.15828 -5.45057 15
10 1 2.7996 3.10643 2.40139 18
11 1 -8.15081 9.61428 -7.33423 11
12 1 -2.41625 5.86581 9.02835 11
13 1 -10.4638 2.41934 0.308258 24
14 1 -12.0755 0.873556 -2.73252 18
15 1 5.47219 0.765658 -6.50255 12
16 1 0.235583 -1.07971 6.95179 11
17 1 -11.1655 -3.56991 0.326025 14
18 1 -8.59481 -2.6563 -10.0717 12
19 1 0.717624 0.0102491 -7.59736 21
20 1 3.48819 -3.85933 0.914349 12
21 1 -10.0006 9.40542 2.51748 13
22 1 -2.20877 9.97984 -1.0041 16
23 1 -4.01306 -2.43441 -7.30202 21
24 1 -5.19899 6.46899 8.58478 12
25 1 4.44515 -0.96838 -1.03124 18
26 1 -6.95696 10.0492 2.84591 16
27 1 1.00915 6.5457 -8.37246 14
28 1 5.04357 10.9244 -3.4146 11
29 1 -5.72035 10.1569 -5.98197 14
30 1 -9.28399 6.80752 -7.83626 18
31 1 -7.74695 10.0354 -3.67913 14
32 1 -0.580499 7.33811 -5.70916 17
33 1 -12.0943 5.24815 -0.226945 17
34 1 -3.85381 9.10869 7.95627 9
35 1 -7.29058 3.38281 -7.47637 22
36 1 -7.07529 -4.03853 4.70783 13
37 1 4.24997 -1.56063 -4.46475 17
38 1 -12.1071 4.06085 5.02105 11
39 1 -10.6318 2.08428 -4.83755 23
40 1 -3.31124 -7.43131 2.49248 20
41 1 3.00332 3.86771 -8.02211 15
42 1 -6.85438 -1.02036 -12.1999 7
43 1 -3.5131 5.97628 -12.4355 9
44 1 -5.62879 -7.01431 0.570479 22
45 1 -5.46014 11.5281 -2.6227 10
46 1 -13.7779 4.75219 2.33372 12
47 1 -2.30998 8.47367 5.04867 17
48 1 2.35726 1.21863 5.92322 12
49 1 -1.72659 -7.50025 -3.78535 18
50 1 3.26042 0.622718 -9.23129 10
51 1 -9.51089 -4.93366 -2.20363 15
52 1 -5.17136 -5.00493 2.74596 21
53 1 2.05994 -3.63523 6.21682 8
54 1 -0.526474 -4.05844 5.93147 17
55 1 2.14077 10.6504 -1.77482 11
56 1 -8.745 -7.89017 1.81493 12
57 1 -6.53013 -10.3228 -0.252686 12
58 1 -7.50425 -4.28005 -4.60619 21
59 1 -5.50776 -0.98337 5.26432 18
60 1 -12.2527 1.74718 2.41826 14
61 1 0.511626 -8.161 -1.8005 10
62 1 -12.5191 -0.275951 0.0853464 14
63 1 -8.15402 11.1734 -0.278282 12
64 1 -7.96898 7.26443 2.93231 23
65 1 -6.35357 8.0383 5.84274 19
66 1 -9.99685 -0.0963546 -11.2208 10
67 1 -10.1954 3.76251 -7.9043 19
68 1 -6.97978 -2.62667 -7.32365 23
69 1 5.78279 1.45798 1.92042 14
70 1 -4.14918 -3.67696 5.71465 16
71 1 -7.85742 1.56565 -9.84431 18
72 1 -12.433 0.0114252 -6.23898 13
73 1 -6.5042 -9.38448 -3.63709 11
74 1 -8.15534 7.46465 8.17042 8
75 1 -8.68895 6.97523 -2.48607 20
76 1 1.51902 -8.02544 -5.01168 9
77 1 -1.1786 11.6518 3.94413 8
78 1 -13.2385 -0.605999 -9.0737 10
79 1 -12.2041 6.7013 -2.57689 14
80 1 -5.50548 -7.36767 -8.08215 11
81 1 -0.541101 -9.22118 1.58203 13
82 1 -12.0646 5.0118 -5.69782 16
83 1 -8.49117 -0.879275 5.32643 14
84 1 -9.64085 6.73166 5.43365 18
85 1 -2.7227 -6.60867 -6.26271 17
86 1 -3.88747 2.2338 5.70577 22
87 1 -3.19847 -6.64728 5.32241 14
88 1 -0.640764 -4.30478 -4.53769 21
89 1 4.4543 6.74594 -2.99683 21
90 1 -0.714383 0.744724 -10.3627 16
91 1 1.18385 -4.25302 3.38272 18
92 1 -8.79713 -7.16124 -4.29261 14
93 1 -10.4907 1.78849 4.50421 17
94 1 5.20078 3.10991 6.11673 9
95 1 7.30909 8.82292 -2.71922 10
96 1 -2.20188 5.87885 -8.26108 19
97 1 -4.11382 9.04893 -11.0873 10
98 1 0.45252 10.6825 0.448084 14
99 1 1.21714 3.30271 -10.3072 13
100 1 -2.0398 -6.86254 -0.146584 23
101 1 4.48654 1.4075 -3.20986 19
102 1 -4.16347 -8.20807 -1.86321 16
103 1 -11.3039 2.09754 -10.0615 10
104 1 7.93402 2.93105 -1.83098 9
105 1 -6.77366 7.43481 -5.3217 23
106 1 -0.0757606 -5.9936 -7.51516 11
107 1 -10.6718 -1.19787 2.7813 16
108 1 -5.56015 -7.09803 -5.20166 18
109 1 -3.06733 -5.06099 -8.68396 12
110 1 -0.463934 8.8854 -2.77907 16
111 1 -3.44771 -9.84634 0.66883 14
112 1 -8.44112 -5.54647 -7.36876 16
113 1 -2.8885 0.0298407 8.28755 12
114 1 -4.26306 2.63183 9.22139 10
115 1 1.24773 -1.77184 -10.1179 10
116 1 -13.3834 2.69218 -7.16338 13
117 1 2.77786 9.12256 -4.17049 16
118 1 2.37958 1.57157 -5.18587 21
119 1 -6.5154 7.02386 -11.9652 9
120 1 -11.7939 7.03583 3.26388 13
121 1 -2.50524 -1.08759 5.44162 21
122 1 -8.2961 4.96923 -10.1528 13
123 1 5.94157 -1.67835 1.54456 10
124 1 1.8064 4.07442 5.39613 15
125 1 -3.46387 -10.0073 3.49191 11
126 1 5.87501 7.096 -0.0964385 13
127 1 6.08433 5.91093 3.83729 9
128 1 -6.19233 -4.2562 -9.86141 13
129 1 -0.323343 6.08626 6.16498 12
130 1 -5.76385 6.20877 -7.98833 19
131 1 -7.09472 2.09098 5.32019 18
132 1 -8.45419 -7.97902 -1.30112 13
133 1 3.88019 6.06289 1.9585 16
134 1 -8.39822 9.8344 5.32756 12
135 1 -6.70378 8.17763 0.1135 21
136 1 5.79778 9.6587 -5.66986 10
137 1 -1.21495 3.45761 7.84552 13
138 1 -4.05345 1.06049 -10.2013 19
139 1 -3.20194 5.41861 5.84974 19
140 1 7.31629 0.332629 -4.87948 10
141 1 3.2572 9.08314 2.56281 11
142 1 1.23894 -6.52788 1.10794 13
143 1 -2.25343 9.56676 2.45625 20
144 1 -0.283811 -3.14559 -7.37807 19
145 1 -0.170593 -6.99097 4.07978 15
146 1 -10.0003 4.39304 2.83308 23
147 1 6.83284 4.45057 0.94655 13
148 1 -6.05199 10.3639 -9.66892 9
149 1 4.53264 4.42144 -5.33714 21
150 1 -6.54713 0.266714 8.1964 9
151 1 -6.08896 -7.23101 4.39664 15
152 1 -9.84344 8.30194 -0.822748 16
153 1 4.67549 9.89674 -0.177703 11
154 1 -11.5501 -5.01458 3.11902 8
155 1 7.39226 5.69591 -3.86541 12
156 1 -11.3293 -7.28732 0.845405 8
157 1 4.77517 4.48996 -1.42619 22
158 1 2.55697 -3.04511 -2.40286 14
159 1 0.388331 9.3922 3.40182 15
160 1 -10.4929 -2.3684 -7.73416 13
161 1 -3.74011 9.29795 -4.00565 15
162 1 -1.29427 7.1967 -11.1235 10
163 1 -8.82391 0.171675 -7.8456 22
164 1 -1.95613 -2.01268 -9.79931 17
165 1 -3.59375 -9.34892 -5.47619 10
166 1 -2.34505 -4.2335 3.60449 21
167 1 6.59484 0.805204 -1.16622 13
168 1 -13.531 3.84655 -3.60014 15
169 1 -8.29337 8.4841 -10.4607 9
170 1 -10.3575 -4.22027 -5.07918 12
171 1 5.37954 0.139018 4.60917 12
172 1 -4.82332 -1.32142 -10.134 15
173 1 -12.9155 7.82514 0.545451 9
174 1 -9.01357 4.08734 7.0566 11
175 1 2.94789 7.66086 -0.497244 21
176 1 5.77306 6.30388 -6.62058 12
177 1 -6.49198 -9.49934 2.67213 14
178 1 -0.722993 3.07924 -7.86346 23
179 1 3.15759 7.01985 -6.32461 17
180 1 2.70088 7.1946 4.87895 9
181 1 -3.62826 8.9272 -7.78198 14
182 1 7.65868 3.49785 -5.42132 11
183 1 3.12625 -1.73919 -7.35671 15
184 1 -4.37182 10.459 4.81937 12
185 1 -4.69088 10.6156 0.0755911 13
186 1 -9.368 -6.97786 4.60867 7
187 1 0.731751 -5.30177 -2.34939 21
188 1 -11.13 -1.88135 -2.52015 16
189 1 -10.0881 7.73131 -4.74469 16
190 2 -12.2809 1.51997 0.537082 19
191 2 4.36182 6.566 -0.988745 20
192 2 -7.34201 1.44298 -8.05607 18
193 2 -13.5942 0.828067 -7.62922 9
194 2 -7.65278 -8.26984 3.70901 12
195 2 -1.57551 -0.969959 7.26079 12
196 2 4.77004 0.860668 -1.32346 17
197 2 -6.10384 8.0087 7.90085 13
198 2 3.01623 -2.31025 -5.7052 17
199 2 -7.2651 3.32671 -10.2574 15
200 2 -3.72547 -3.14916 -9.356 15
201 2 -6.35094 9.76648 4.71798 14
202 2 5.68061 -0.160162 2.75994 11
203 2 4.04746 10.371 -1.92688 15
204 2 -3.8231 9.15043 5.99618 16
205 2 4.20205 8.25919 1.07293 14
206 2 -0.537744 7.01637 -9.23359 12
207 2 1.36053 0.163765 -9.43912 15
208 2 -11.991 2.66215 -8.33156 13
209 2 -1.95937 -6.20395 3.61522 21
210 2 -12.846 3.47252 3.42566 13
211 2 0.731374 -4.64854 -6.19683 17
212 2 -4.81846 -9.67785 -0.697349 13
213 2 -3.1483 7.47647 8.29731 12
214 2 2.50085 -3.15536 4.34389 13
215 2 -10.4167 -6.99952 2.74225 8
216 2 -5.21423 -7.03282 2.47757 19
217 2 -11.84 -5.03994 1.37048 8
218 2 -7.24075 -9.70349 -1.91366 11
219 2 -9.71026 -7.90005 0.216008 10
220 2 -3.79502 11.1897 -1.68994 9
221 2 -0.978034 1.11722 -8.1501 20
222 2 6.25961 8.88582 -0.967657 11
223 2 -1.75192 5.49886 -11.2124 13
224 2 -10.9594 5.7138 -7.22111 13
225 2 4.1631 4.63419 -3.33358 21
226 2 -3.21048 9.35982 0.517723 19
227 2 -8.63213 10.2701 3.52956 13
228 2 -2.39521 8.9583 -2.75917 18
229 2 -4.05845 9.91614 -9.4516 9
230 2 -7.45796 3.93743 5.77789 18
231 2 -3.91192 -2.10394 4.58764 21
232 2 -0.254421 -2.50372 -10.5339 10
233 2 -2.127 -8.30885 -5.31776 13
234 2 -5.05504 -5.50293 -8.34312 14
235 2 -10.928 -3.64088 -3.28526 13
236 2 3.97324 -1.22678 -2.79264 17
237 2 4.20099 6.57029 3.69808 12
238 2 -3.91587 2.81301 -11.071 15
239 2 -2.73763 -0.226458 -10.2416 17
240 2 -5.42265 -1.46162 -8.18653 23
241 2 -1.78665 -5.08261 -7.34945 17
242 2 4.26525 -0.125356 -7.75676 14
243 2 -7.00645 -3.97835 2.64959 17
244 2 -1.90964 -1.94336 -7.83911 20
245 2 -4.31806 -7.89456 -6.65185 14
246 2 -5.56944 4.15332 -8.09049 20
247 2 -6.4532 8.23351 2.01643 21
248 2 -9.28481 -4.17826 -0.259385 17
249 2 -8.44434 8.37935 6.55438 11
250 2 -11.2666 -3.04955 3.19169 7
251 2 -13.5511 2.13374 -2.41072 13
252 2 0.584488 -2.93469 6.95902 11
253 2 3.95967 5.47528 -7.1578 14
254 2 -5.90724 0.193554 -10.9307 14
255 2 -0.573405 8.25426 1.77664 21
256 2 1.93803 8.63307 3.87171 10
257 2 -2.50578 2.07427 8.22474 13
258 2 -9.73399 7.90583 3.70169 17
259 2 -8.8902 -1.53074 -8.68578 17
260 2 6.63746 7.10171 -2.91158 15
261 2 -11.9996 -0.667767 -1.55992 16
262 2 -8.65787 6.85606 -5.7648 21
263 2 -0.429551 2.48574 -10.9473 13
264 2 -8.32816 6.68767 -0.474075 19
265 2 2.25465 -4.74581 -3.41807 15
266 2 -2.53211 -6.99888 -2.01139 19
267 2 -9.23688 9.64053 0.460818 15
268 2 -3.63411 -7.83922 0.662415 21
269 2 -0.600304 -8.48917 -0.261482 13
270 2 0.141936 3.32485 6.29738 16
271 2 -7.36622 11.0864 -2.07538 12
272 2 -7.03155 -2.15528 4.85232 16
273 2 -5.87994 -4.98234 0.11868 16
274 2 -5.38683 -5.24667 4.88607 17
275 2 -3.01895 7.93514 -11.9437 9
276 2 7.18648 1.74578 -6.32047 10
277 2 1.40595 5.88015 5.29843 11
278 2 3.33713 7.49613 -4.52459 20
279 2 -0.413785 10.9217 2.27578 12
280 2 -10.9497 -1.71491 0.530214 15
281 2 -4.70556 5.87142 6.73084 17
282 2 3.45006 0.0419749 4.56847 16
283 2 -5.45681 5.66991 -12.2163 11
284 2 -1.89902 5.12948 7.44269 14
285 2 2.22937 -5.02421 1.73042 13
286 2 -12.0917 -1.47185 -7.74655 10
287 2 -11.2817 6.21279 -4.43002 16
288 2 -12.0502 0.271961 -10.4114 8
289 2 -8.25181 -5.51624 5.10892 10
290 2 2.33613 10.1459 -0.100799 13
291 2 -7.71089 -4.01288 -8.57157 14
292 2 6.80738 4.02448 -0.980863 15
293 2 -11.6796 7.55299 -1.0036 13
294 2 6.36086 -0.46844 0.202935 11
295 2 -8.63325 1.05115 4.37757 18
296 2 -8.82059 -5.43652 -5.40008 16
297 2 -3.74603 8.84288 -5.89646 16
298 2 -11.6629 8.73579 1.74887 9
299 2 -2.58277 -4.69841 5.68364 14
300 2 -12.3168 6.16549 1.48564 13
301 2 -9.2126 8.81062 -2.72267 17
302 2 -3.98081 4.78752 9.15578 10
303 2 -10.2616 3.60865 -5.87921 21
304 2 1.28044 9.83585 -3.07588 14
305 2 -6.74082 6.70613 4.48009 20
306 2 1.42779 2.88301 3.78482 14
307 2 -8.79439 -1.36223 -11.5361 10
308 2 -3.88529 6.87488 -8.15076 15
309 2 -6.08794 -5.30898 -5.05049 21
310 2 3.91012 1.93726 1.5039 21
311 2 6.56845 10.0091 -3.9787 9
312 2 -3.84159 -8.39695 4.40961 13
313 2 3.05099 2.50557 -9.52413 10
314 2 -1.62628 6.64114 4.97567 19
315 2 -8.30004 5.00321 2.09814 20
316 2 -9.95023 -2.47457 -5.96135 18
317 2 -7.02017 -7.80103 -4.62462 16
318 2 -5.29976 10.5099 -4.05256 13
319 2 -10.9453 5.59012 4.3887 15
320 2 -10.3385 2.35207 2.4779 21
321 2 -4.76449 -8.57263 -3.81936 13
322 2 0.698468 0.415851 5.69556 18
323 2 -6.15833 8.78695 -10.8901 11
324 2 2.20876 3.55841 -6.09716 19
325 2 0.843068 -7.48087 -6.62524 9
326 2 6.48407 1.67242 5.33429 9
327 2 3.35592 2.77024 6.00928 13
328 2 -6.31656 10.2713 -7.77025 12
329 2 -8.53999 5.03682 -8.34767 17
330 2 -6.33323 -2.67491 -10.9501 11
331 2 -2.9585 10.8325 3.68427 12
332 2 -7.6354 9.40936 -5.39618 16
333 2 -13.0287 3.2898 -5.48227 16
334 2 -9.35804 6.07589 7.34577 11
335 2 -2.15911 4.08047 -8.71712 20
336 2 1.35591 -1.97522 -8.10032 17
337 2 -12.5912 4.71461 -2.13144 17
338 2 -8.08983 6.60697 -11.0176 11
339 2 0.468119 -5.30425 4.87448 14
340 2 -10.5379 3.29184 5.84789 12
341 2 -11.5302 0.236559 3.42636 15
342 2 0.671382 -7.76031 2.38663 12
343 2 -14.0298 3.7194 0.695426 11
344 2 -7.69422 0.223312 6.6915 11
345 2 -4.75147 -10.375 2.19972 13
346 2 6.81338 3.15374 2.22714 10
347 2 -2.20317 -5.46364 -4.29001 20
348 2 -6.53124 11.0476 0.896183 11
349 2 -9.75305 1.15024 -9.64844 14
350 2 -8.74444 -0.849609 2.58331 20
351 2 -0.987253 -2.60881 4.57058 21
352 2 1.21741 4.74425 -9.21264 16
353 2 6.22912 4.31418 4.85963 9
354 2 4.53833 -2.46149 2.0762 13
355 2 5.78529 -0.750991 -5.18447 11
356 2 0.536354 -6.28913 -0.703966 16
357 2 2.78423 -2.77535 -0.318577 16
358 2 -5.99649 2.06337 8.72392 12
359 2 5.0589 8.15915 -6.44797 11
360 2 -12.039 0.62769 -4.61476 18
361 2 -10.4086 4.30089 -0.244831 21
362 2 -2.01439 -9.4991 2.30249 12
363 2 1.10793 6.72889 -6.45651 17
364 2 7.9966 3.96596 -3.51628 12
365 2 4.06704 10.3707 -4.93537 10
366 2 -0.743552 -4.02461 2.15888 22
367 2 7.65783 0.804938 -3.02005 11
368 2 0.383508 -7.88183 -3.62317 12
369 2 -7.41059 -6.97988 -7.9516 11
370 2 -0.370059 9.29165 -0.840132 19
371 2 -0.93705 9.96422 4.74946 13
372 2 -7.4681 -9.32371 0.946396 11
373 2 -4.47423 -0.571518 7.31868 15
374 2 5.47017 5.44395 1.71698 15
375 2 6.27919 5.07774 -5.40094 14
376 2 -9.16867 8.71965 -8.63663 11
377 2 -8.60811 -6.59106 -2.42483 15
378 2 4.39544 1.95145 -5.12356 19
379 1 -8.81225 -1.19978 -4.85519 22
380 1 -5.39961 0.515185 -7.50838 23
381 1 -4.28706 -4.55002 -4.41217 19
382 1 -5.41214 -1.28356 -4.5955 22
383 2 -7.55009 -3.8793 -2.65493 22
384 2 -9.46341 -0.906458 -2.80846 20
385 2 -8.99097 0.65452 -5.68762 19
386 2 -6.86902 -2.29259 -5.58123 21
387 2 -4.43543 -4.27494 -2.59482 18
388 2 -5.95804 -0.901887 -2.71589 21
389 2 -5.29438 0.337835 -5.5549 23
390 2 -3.89109 -2.38402 -5.25101 21
391 1 -9.12816 0.92185 -2.1275 22
392 1 -7.40715 -1.99453 -1.98579 22
393 1 -7.69087 -4.05881 0.795887 17
394 1 -9.05138 -0.709061 0.512247 23
395 1 -8.54787 1.13842 2.65803 21
396 1 -7.2496 -2.08635 2.70551 18
397 1 -6.14757 -4.88044 -1.81653 18
398 1 -5.93373 0.957252 -2.35043 21
399 1 -4.21741 -1.92226 -2.17194 23
400 1 -3.90669 -3.92582 0.080861 21
401 1 -5.77883 -0.873455 0.242797 20
402 1 -5.43268 1.18337 2.95689 22
403 1 -3.93401 -1.74441 2.67598 24
404 2 -9.03226 1.42552 -0.395002 24
405 2 -7.32919 -1.61271 -0.00713239 22
406 2 -3.66809 -4.00541 2.04749 23
407 2 -5.33955 -0.63071 2.25443 22
408 2 -5.51838 1.15255 -0.0921173 22
409 2 -3.89815 -1.83206 -0.210862 23
410 2 -5.35267 1.15461 4.92584 22
411 1 -7.39495 1.56887 -4.94695 24
412 1 -8.78397 4.85729 -5.05069 24
413 1 -3.85164 3.37075 -7.66865 24
414 1 -3.80533 1.6211 -4.87676 23
415 1 -5.66904 4.39682 -5.17027 24
416 1 -3.69539 6.91216 -5.96427 21
417 2 -10.5081 2.13769 -2.71293 22
418 2 -7.59009 1.76427 -2.98125 23
419 2 -8.82702 4.93813 -2.95935 23
420 2 -7.44794 3.51851 -5.32524 20
421 2 -6.89414 7.31803 -3.36647 20
422 2 -4.08875 1.48624 -8.27628 20
423 2 -4.28565 1.74851 -2.84145 23
424 2 -5.30627 4.62764 -3.2108 24
425 2 -5.67938 6.28911 -6.10569 23
426 2 -4.17667 3.30816 -5.50533 22
427 2 -3.88011 7.17038 -3.64089 21
428 1 -7.29163 3.64771 -2.41565 24
429 1 -7.20162 2.05677 0.271347 23
430 1 -8.65301 4.89681 0.121985 20
431 1 -6.64493 4.17681 2.51542 19
432 1 -5.41823 6.53709 -2.55882 21
433 1 -3.98443 3.55861 -2.46667 23
434 1 -3.85931 1.97621 0.0639029 21
435 1 -5.32817 5.14152 -0.00393322 23
436 1 -4.99771 7.31018 3.0043 24
437 1 -3.72452 4.11322 2.52455 20
438 1 -3.30721 7.3929 -6.02432e-04 23
439 2 -6.9781 2.31565 2.08047 24
440 2 -6.91615 3.7449 -0.395655 24
441 2 -3.80251 1.99912 2.0516 23
442 2 -5.16373 5.2987 2.15909 20
443 2 -4.89187 6.90491 -0.817735 19
444 2 -3.17451 3.81095 -0.650182 22
445 2 -3.95786 3.97824 4.88454 20
446 2 -3.09284 7.73724 3.28361 19
447 1 -2.6421 0.106899 -7.80057 21
448 1 -2.13429 -1.45303 -5.04606 21
449 1 1.13323 -1.60845 -4.76632 24
450 2 -0.400229 -3.83571 -2.67987 18
451 2 -2.38916 -1.26476 -2.99568 23
452 2 -2.23455 0.417047 -5.56987 24
453 2 -0.496924 -2.5325 -5.3826 20
454 2 1.15433 -1.62833 -2.75425 22
455 2 0.954283 0.415251 -5.60457 21
456 1 -2.35277 -4.61573 -2.43767 20
457 1 -2.18763 0.576802 -2.69634 21
458 1 -0.830495 -2.18957 -2.10384 21
459 1 -0.995081 -3.82266 0.38278 21
460 1 -2.29368 -0.814374 0.456648 22
461 1 -2.15191 1.10669 2.97306 21
462 1 -0.267224 -1.73832 3.12537 21
463 1 1.05059 0.69208 -2.3179 23
464 1 1.36684 -1.34105 0.27865 19
465 1 1.36375 0.75621 3.33229 19
466 2 -2.31208 -4.82711 -0.483474 18
467 2 -2.06687 -1.09395 2.52304 20
468 2 -2.05107 0.945465 -0.489224 23
469 2 -0.783187 -2.11023 -0.114566 20
470 2 -2.43289 1.17046 4.85271 21
471 2 1.45977 -0.853218 2.2328 20
472 2 1.36143 0.765287 -0.370242 20
473 1 -0.678406 1.4133 -5.14667 24
474 1 -2.3824 4.37031 -5.14052 25
475 1 0.75731 4.83559 -5.55585 22
476 2 -0.638946 1.49964 -3.09003 25
477 2 -2.30899 4.39827 -3.34305 25
478 2 -1.90625 5.9885 -6.21169 21
479 2 -0.77162 3.33743 -5.76421 20
480 2 -0.39012 7.11838 -3.71018 20
481 2 2.51758 1.54166 -3.14474 21
482 2 0.685657 4.42573 -3.42639 22
483 1 -2.22343 6.36399 -2.61181 25
484 1 -0.690782 3.50755 -2.50231 24
485 1 -0.224773 1.76617 0.274719 22
486 1 -1.66637 4.66936 0.166231 21
487 1 -1.59455 6.54618 3.08575 20
488 1 -0.186107 3.80418 2.7838 18
489 1 -0.138967 7.51667 0.158145 21
490 1 0.920949 6.17879 -2.77537 24
491 1 2.36053 3.7174 -3.10524 20
492 1 3.22569 1.63015 -0.306008 21
493 1 1.43115 4.51104 -0.0983588 22
494 2 -0.564444 1.98526 2.74035 20
495 2 -1.85694 4.86353 2.06808 19
496 2 -1.64697 6.46445 -0.367302 22
497 2 -0.0811415 3.44967 -0.379016 21
498 2 2.55142 4.71796 1.3557 16
499 2 1.29442 6.50134 -0.812682 22
500 2 2.95038 3.77236 -1.22461 22
