ITEM: TIMESTEP
13000
ITEM: NUMBER OF ATOMS
500
ITEM: BOX BOUNDS pp pp pp
-30.0 30.0
-30.0 30.0
-30.0 30.0
ITEM: ATOMS id type x y z Coordination
1 1 3.68608 6.64487 6.73008 19
2 1 2.07413 10.0258 7.07132 17
3 1 -3.69281 3.67809 -9.68683 22
4 1 -10.372 6.04734 -5.24172 10
5 1 1.73844 8.19898 -13.2054 8
6 1 4.76842 -1.50914 -8.10008 11
7 1 5.42833 5.32428 4.70276 18
8 1 4.20481 11.7105 6.99816 10
9 1 -9.21167 4.24812 -0.112642 17
10 1 8.0041 4.08485 -3.50486 23
11 1 7.93342 8.01215 4.07941 12
12 1 -8.1768 -2.05945 -0.938351 10
13 1 -4.59353 0.698757 -8.04447 18
14 1 8.29229 3.86915 -6.78468 15
15 1 8.13158 0.204426 0.654292 13
16 1 -6.82711 15.1306 1.42081 15
17 1 -0.630573 15.1097 -1.90327 17
18 1 -0.612856 3.88637 -11.2584 15
19 1 -0.787069 10.3452 5.15311 18
20 1 -4.61583 12.4973 1.39618 22
21 1 -0.633116 8.57846 -11.6528 19
22 1 -3.63948 14.8065 -7.96842 12
23 1 -3.42335 12.0238 -8.7528 20
24 1 -3.71172 15.181 -3.36827 12
25 1 -9.24291 9.09603 -4.14532 16
26 1 1.03224 12.7803 5.1714 14
27 1 -5.59862 11.2606 -12.4371 10
28 1 -6.22049 -1.7844 1.89665 11
29 1 5.27569 -1.33944 -4.57315 14
30 1 -7.19307 6.48595 -6.21704 22
31 1 0.146028 -2.43171 1.70553 11
32 1 5.59822 9.93981 -7.80795 15
33 1 -8.86224 3.84645 -6.30255 14
34 1 1.12485 11.2466 -11.7447 12
35 1 -1.21563 15.9272 -5.24948 11
36 1 -9.20051 4.98263 3.23206 11
37 1 -0.747337 15.6603 1.6783 12
38 1 1.42837 4.55034 7.29148 16
39 1 2.09277 -1.66171 -6.56903 17
40 1 7.77421 5.58478 -9.99885 9
41 1 3.69259 3.093 6.1951 16
42 1 1.11002 2.0802 5.2124 21
43 1 4.13846 12.1906 -3.37987 20
44 1 -9.19639 -1.18091 3.67651 8
45 1 -2.75147 -5.0488 -3.89656 9
46 1 -3.92252 4.09324 6.01125 20
47 1 -7.85878 8.27939 3.20735 14
48 1 5.36683 -0.447225 -1.24654 17
49 1 -8.70919 1.88777 4.56274 10
50 1 -6.04963 15.1053 -1.53018 15
51 1 -7.6312 12.3899 2.94066 14
52 1 -4.53923 12.1647 4.78467 13
53 1 -7.3637 0.751199 -6.06963 16
54 1 -1.30832 0.875841 -10.133 17
55 1 4.46869 8.9485 8.84822 10
56 1 -2.04432 2.32533 7.31119 18
57 1 -6.64387 4.9849 -11.1856 14
58 1 -9.23235 3.91812 -2.98488 17
59 1 -5.82777 -3.27178 -4.39242 11
60 1 -6.56301 14.003 5.092 8
61 1 -0.684814 -1.02954 -7.95895 16
62 1 -1.94049 13.0452 3.36098 18
63 1 -7.61815 7.29414 -9.56603 14
64 1 -9.46499 14.4617 -4.91411 9
65 1 -2.77451 -2.08381 -9.329 10
66 1 5.0113 -0.0941166 5.12441 11
67 1 -9.16943 8.59827 -7.0028 13
68 1 -5.12712 6.76405 7.88401 9
69 1 -6.80339 9.91625 5.00235 12
70 1 -0.731153 13.3691 -9.58545 14
71 1 -0.562596 0.130231 6.25436 12
72 1 1.97105 -0.26708 -9.64818 14
73 1 4.827 7.61654 -10.5718 14
74 1 7.0155 2.06226 5.39132 12
75 1 -6.30091 -1.62506 -7.95602 9
76 1 -5.97829 2.86994 4.35481 17
77 1 6.58602 7.60815 6.29822 11
78 1 8.01353 10.9361 -3.83445 14
79 1 -3.10446 9.0381 -13.4117 12
80 1 -2.3008 11.9046 -11.5775 18
81 1 1.75758 15.1977 -3.81775 14
82 1 2.58547 8.72589 -9.64937 20
83 1 2.61991 -1.14811 0.374202 14
84 1 7.16234 2.14619 -1.45688 19
85 1 -0.0683944 -3.28698 -4.00244 12
86 1 -6.45269 8.61146 -11.8982 12
87 1 10.648 5.20043 -4.65758 13
88 1 -6.76695 13.7415 -8.03845 11
89 1 4.36965 1.32728 -9.71424 13
90 1 -6.18184 -0.273172 4.66007 13
91 1 -0.914971 -3.71271 -6.81829 10
92 1 2.36167 3.5089 -9.71286 15
93 1 5.35284 -0.300521 1.88978 19
94 1 -6.74835 1.71893 -9.49331 11
95 1 -1.31107 4.56427 8.87823 13
96 1 0.560605 7.45688 8.31553 13
97 1 5.2628 4.2758 -8.5078 19
98 1 4.46704 13.1335 -6.64398 11
99 1 9.73194 6.91085 -7.17221 13
100 1 -3.62807 6.0751 -11.616 20
101 1 -9.50314 9.91752 -0.966068 13
102 1 1.16832 1.99074 8.64661 10
103 1 -7.57724 10.3883 -9.4932 11
104 1 7.02136 2.47575 2.23248 20
105 1 6.91487 11.3309 4.72164 12
106 1 2.17726 -0.607028 3.73007 14
107 1 8.47135 9.5053 -1.0825 14
108 1 6.36883 13.4788 2.21541 12
109 1 3.95834 12.71 3.27886 20
110 1 -4.53992 14.1897 -10.8593 9
111 1 -8.45013 -1.60142 -3.91094 13
112 1 -10.0673 12.0456 -2.49024 12
113 1 6.34653 13.9628 -3.7876 9
114 1 4.83591 9.59879 5.00231 20
115 1 -1.08916 6.121 -13.5723 11
116 1 5.78607 15.5277 -0.471441 9
117 1 6.91315 0.798995 -7.92174 12
118 1 7.73169 -0.576479 3.70258 10
119 1 -4.49811 8.12491 5.00093 16
120 1 7.01966 7.44841 1.15064 18
121 1 -1.3682 13.1863 -6.71126 19
122 1 8.16751 9.15205 -6.2962 16
123 1 -4.44604 3.22136 8.81794 8
124 1 -3.71806 1.00277 5.34045 15
125 1 -7.37186 12.6754 -0.489713 16
126 1 4.31849 12.9046 -0.299064 19
127 1 -9.89639 2.01353 1.9459 10
128 1 8.1072 4.19431 0.0754548 17
129 1 -1.90048 -4.53019 -0.556994 6
130 1 8.13809 10.628 2.07758 12
131 1 8.16538 -1.1827 -2.53943 11
132 1 2.16425 15.6158 -0.301901 13
133 1 -10.177 1.17665 -4.69104 12
134 1 2.06772 11.9459 -8.52408 18
135 1 -6.36767 4.59062 -8.29396 16
136 1 2.73903 5.37039 -11.0014 12
137 1 -3.67514 -1.82347 -6.36474 16
138 1 9.98923 1.68002 -3.5204 12
139 1 -10.2245 6.97385 -2.02889 14
140 1 -3.36695 9.24961 -10.1963 22
141 1 -6.10704 -0.791393 -1.93481 19
142 1 7.48848 4.96872 3.03739 15
143 1 -3.20649 3.31521 -12.6719 11
144 1 -8.93215 15.0506 -1.50994 11
145 1 -6.67412 5.99486 4.66937 18
146 1 6.91637 12.5895 -1.16629 15
147 1 9.90782 6.85467 -0.702352 13
148 1 -3.13655 -1.33326 2.94609 12
149 1 8.21944 8.22439 -9.70485 9
150 1 4.63489 11.3011 -10.0664 9
151 1 2.732 15.9625 2.62176 8
152 1 1.37879 14.3328 -6.67404 13
153 1 9.56714 7.77469 -3.74823 16
154 1 7.15783 1.26744 -4.92659 20
155 1 -4.21307 15.5238 3.32013 12
156 1 -3.27834 15.6262 0.238272 15
157 1 -3.57507 -0.978168 -0.144313 18
158 1 11.1896 4.92085 -2.0588 9
159 1 -9.75898 0.875113 -1.24779 13
160 1 -7.40053 13.278 -3.52191 21
161 2 -8.27447 6.53145 3.6105 12
162 2 8.16275 10.7265 0.140374 16
163 2 -7.39998 11.8906 -8.50742 13
164 2 -4.21836 -1.39209 1.51759 13
165 2 3.36494 10.1303 8.19284 12
166 2 -4.83267 14.1973 4.57158 12
167 2 6.6002 -1.16823 -7.9102 11
168 2 -3.91232 7.26318 -10.0861 23
169 2 1.30535 4.28051 -11.2165 13
170 2 -3.71633 12.1488 3.07601 22
171 2 6.94823 5.34009 1.31063 20
172 2 5.22307 11.858 -1.9201 19
173 2 -2.16177 14.7982 2.50652 14
174 2 4.03737 15.6989 -0.142855 11
175 2 2.60279 11.0463 -10.1688 14
176 2 6.6683 6.99015 -10.5513 10
177 2 -6.92729 6.84273 -11.349 13
178 2 0.856844 0.0488643 4.93709 13
179 2 -9.19721 7.95098 -0.962435 15
180 2 5.14502 1.07378 -8.14829 16
181 2 -4.55416 -4.81544 -4.51983 7
182 2 5.47227 11.2398 5.83019 14
183 2 4.13915 4.78886 6.14289 17
184 2 -7.04432 -1.04844 0.215605 14
185 2 -2.37647 -4.734 -2.22303 8
186 2 -9.64111 0.728193 3.37184 9
187 2 -1.2925 -4.41948 -5.02688 10
188 2 -5.67326 -2.71798 -6.30315 12
189 2 -7.50617 15.3463 -0.313122 12
190 2 7.00696 9.74868 -4.88073 16
191 2 0.824359 9.75769 -12.8001 11
192 2 -1.37686 15.0214 -0.0439117 16
193 2 -7.12357 14.3743 3.27263 11
194 2 -1.93798 15.633 -3.42664 14
195 2 0.514877 13.6274 -8.24383 14
196 2 -0.768228 12.1486 4.597 14
197 2 0.500427 3.71072 8.82366 12
198 2 4.02987 4.81348 -9.84961 16
199 2 1.10828 -0.371985 -7.73318 18
200 2 -8.80983 -0.129548 -5.11993 10
201 2 7.73311 2.24541 -3.36283 20
202 2 6.10873 13.8535 0.335747 13
203 2 -2.65077 7.23323 -12.8867 15
204 2 0.22562 7.3629 -12.9474 13
205 2 -1.25877 -1.05664 -9.9883 9
206 2 2.36388 1.55259 -9.65776 15
207 2 8.71087 6.71167 -8.736 11
208 2 -1.84187 4.70959 -12.51 12
209 2 -4.34463 -1.29231 -8.12846 13
210 2 -1.39239 8.7227 -9.80104 23
211 2 -9.04222 -0.67428 -2.06958 13
212 2 -6.74055 12.4648 1.39095 19
213 2 -7.14782 -1.60452 3.55558 9
214 2 -9.84229 7.4156 -3.95994 15
215 2 7.30445 -0.945248 1.89237 12
216 2 1.34254 14.958 1.85425 13
217 2 -0.805275 5.99328 7.97794 16
218 2 -7.91591 10.124 3.34045 12
219 2 -9.39716 6.74286 -6.60898 13
220 2 8.92741 9.4023 -2.95562 14
221 2 -9.03039 1.27107 0.589898 15
222 2 -3.8516 10.2103 -8.68591 20
223 2 2.91954 7.28109 -10.8697 15
224 2 -6.17533 13.2116 -1.82742 20
225 2 3.9978 -0.969373 -6.20623 17
226 2 0.642457 -2.75806 -5.8979 12
227 2 -8.3471 15.0334 -3.59783 11
228 2 4.48015 -0.822781 0.450532 14
229 2 3.57332 14.5414 3.44263 10
230 2 -2.05211 15.3044 -6.88172 14
231 2 -4.1715 2.26273 6.81829 16
232 2 -0.289021 12.1889 -10.8851 14
233 2 1.89268 6.55827 7.38682 17
234 2 7.57839 12.4566 -2.93274 13
235 2 5.18968 12.022 1.69983 19
236 2 -5.93402 2.40946 1.00094 18
237 2 2.53757 11.9994 6.37896 13
238 2 5.30255 8.06413 7.61756 13
239 2 -2.44615 9.91343 -11.803 19
240 2 1.1787 9.69203 5.2997 20
241 2 8.07697 1.12927 3.14341 12
242 2 -10.1223 4.18731 -4.72335 12
243 2 -6.34899 12.3944 -4.76816 17
244 2 -4.30523 12.4335 -11.5248 11
245 2 -1.7236 1.04554 4.99979 17
246 2 6.09992 14.9617 -2.30397 10
247 2 -4.77582 2.21789 -9.22371 17
248 2 10.8542 6.59894 -2.78342 13
249 2 -8.33245 13.9176 -6.61621 9
250 2 10.0023 4.92854 -0.785532 12
251 2 -4.35045 -0.53952 4.46413 14
252 2 -7.14512 3.47584 -9.91253 12
253 2 -3.86847 13.0396 -7.14767 18
254 2 -9.16109 13.1507 -1.42079 14
255 2 -0.416966 1.35097 7.79521 13
256 2 -10.1512 10.1816 -2.75734 11
257 2 -0.516512 8.81772 7.40317 10
258 2 -8.38818 8.70308 -8.77114 12
259 2 0.462111 15.0908 -5.18847 14
260 2 -4.632 10.0636 4.73028 16
261 2 -4.94639 4.40222 -11.6599 15
262 2 -3.77066 -0.81558 -4.62424 18
263 2 4.04612 7.87396 5.05478 22
264 2 7.87428 6.59373 -3.77766 19
265 2 4.11263 0.116111 3.41767 17
266 2 -3.80561 7.4783 6.93903 13
267 2 -9.08108 2.02365 -5.94186 13
268 2 -6.45314 7.93943 5.20814 13
269 2 -9.50943 3.89806 1.75147 12
270 2 -1.99785 -2.35744 -7.54214 13
271 2 -2.88597 13.5149 -10.0554 14
272 2 4.93757 11.7435 -8.15693 11
273 2 3.48176 -1.25027 -9.61561 9
274 2 6.8788 3.5015 4.22126 15
275 2 6.65335 9.21293 4.8496 14
276 2 -1.35625 11.7484 -8.48755 20
277 2 -1.80353 2.31658 -11.5634 12
278 2 -4.84673 15.3962 1.36159 14
279 2 -5.29442 14.9321 -9.1163 9
280 2 -8.40338 10.1928 -5.71519 18
281 2 -6.73675 12.0718 5.04607 10
282 2 7.23339 4.38508 -8.49987 14
283 2 -10.3709 13.0426 -4.14765 10
284 2 -4.85087 9.40785 -12.7143 12
285 2 4.97373 1.90678 5.55325 14
286 2 -5.24185 4.92792 4.78486 19
287 2 -7.52177 3.66883 3.85832 15
288 2 6.86474 0.135591 5.22858 10
289 2 -10.0132 5.16164 -1.49095 13
290 2 -4.6514 4.97656 7.87454 13
291 2 -1.222 -1.41747 2.65687 15
292 2 8.15682 7.45787 -0.596842 16
293 2 4.49375 -0.352561 -3.08826 16
294 2 -4.08457 15.0874 -1.47962 16
295 2 -6.96549 10.1983 -11.1155 11
296 2 -7.02463 1.18393 4.79399 11
297 2 2.21855 2.42262 7.06993 12
298 2 4.57753 9.37615 -9.62315 15
299 2 7.24685 12.1436 3.04717 12
300 2 6.92063 6.44059 4.49886 18
301 2 7.78903 1.90647 -6.55829 15
302 2 9.58411 -0.0496926 -2.60225 9
303 2 7.56805 9.2603 -8.25575 12
304 2 -9.58694 1.85216 -2.8954 15
305 2 8.02333 2.22337 0.397078 16
306 2 2.653 12.7052 -6.72644 15
307 2 9.33442 5.37674 -6.00654 15
308 2 4.89551 12.8802 -4.8721 14
309 2 10.5271 3.60052 -3.43444 9
310 2 7.25904 -0.0118712 -1.20353 17
311 2 -6.52987 0.599287 -7.89611 14
312 2 1.2352 15.8735 -2.0446 11
313 2 2.11488 12.3488 3.59767 17
314 2 -0.809305 -3.16347 0.0565128 11
315 2 -2.56408 3.12166 9.00802 11
316 2 7.91911 8.67053 2.39592 14
317 2 9.79964 8.06872 -5.69869 13
318 2 -6.74829 6.73471 -7.84736 17
319 2 -6.77491 -2.23368 -2.90659 14
320 2 6.95932 -0.736043 -3.95566 15
321 1 -6.06962 3.65205 -4.59787 20
322 1 -7.50212 1.52473 -3.08671 21
323 1 -0.490124 -0.560852 -5.16684 22
324 1 -2.92964 -1.35902 -2.98678 17
325 1 -0.902765 4.29678 -8.23954 21
326 1 -3.76193 3.95969 -6.40148 19
327 1 -1.92813 2.02529 -6.38232 19
328 1 -4.56749 0.893683 -4.76133 21
329 1 -0.444882 4.20691 -4.80825 23
330 1 -3.33396 3.99837 -2.9767 24
331 1 -1.74435 1.72239 -3.04493 22
332 2 -6.84941 4.30927 -6.49412 21
333 2 -6.41228 1.77771 -4.70635 21
334 2 -7.22954 4.36498 -3.42149 21
335 2 -0.974391 -1.61731 -3.29555 17
336 2 -1.87508 4.78913 -9.92301 22
337 2 -4.29002 4.73954 -8.1301 22
338 2 -1.23276 1.00613 -8.12875 22
339 2 -3.81314 1.95892 -6.05712 21
340 2 -1.59884 4.06613 -6.38295 21
341 2 -4.1272 4.77526 -4.50962 23
342 2 -0.667376 1.71124 -4.67351 20
343 2 -3.54255 1.95168 -2.79393 24
344 2 -1.56075 4.83198 -3.15547 21
345 1 -6.54474 5.12275 -1.63592 21
346 1 -7.03033 0.957683 0.229873 19
347 1 -6.50051 4.15912 1.11709 22
348 1 -0.283505 -1.40557 -1.35636 18
349 1 -0.56547 0.215468 3.4122 15
350 1 -4.54673 2.18169 -1.03836 21
351 1 -0.671837 4.05137 -1.18686 21
352 1 -3.58179 5.12333 -0.0283144 21
353 1 -1.38752 1.50217 0.277591 19
354 1 -4.28028 2.66446 2.11941 20
355 1 -0.824207 5.09944 1.8113 21
356 1 -3.85769 5.34358 3.33495 22
357 1 -2.07772 2.5933 3.69145 21
358 1 -0.666181 4.94636 4.6896 21
359 2 -6.52453 1.07799 -1.74976 21
360 2 -7.60533 5.06207 -0.0764758 17
361 2 -4.27389 -0.841766 -1.78235 17
362 2 -1.51367 -0.277142 -0.445156 19
363 2 -4.7842 4.21056 -1.38534 20
364 2 -0.365955 1.99964 -1.51151 20
365 2 -3.26371 1.98955 0.448427 23
366 2 -1.79136 4.59758 0.143227 21
367 2 -4.72924 4.99711 1.65938 22
368 2 -0.815787 1.62364 2.25085 21
369 2 -4.09487 2.51413 3.99542 20
370 2 -1.92632 4.48215 3.2447 22
371 2 -1.86669 3.89245 5.83555 23
372 1 -6.52325 10.2598 -5.11262 17
373 1 -8.52896 11.8776 -6.73104 13
374 1 -6.9864 7.71558 -3.47824 18
375 1 -1.9621 6.79135 -9.43202 22
376 1 -4.68165 6.71101 -8.23951 22
377 1 -0.787233 9.97755 -8.43559 25
378 1 -3.75547 9.51125 -6.93394 20
379 1 -1.73531 7.46879 -6.50101 20
380 1 -4.11541 6.51904 -5.24451 22
381 1 -0.556255 9.6284 -5.08993 23
382 1 -3.30171 9.60984 -3.7886 24
383 1 -1.45971 6.93953 -3.37614 20
384 1 -4.49698 12.5302 -5.30931 18
385 1 -1.64099 12.759 -3.58185 23
386 2 -5.89913 7.62565 -5.28954 21
387 2 -7.2337 9.49706 -3.25432 20
388 2 -0.871106 6.25947 -7.94509 20
389 2 -3.68626 7.52772 -6.76871 21
390 2 -1.71382 9.48492 -6.58243 22
391 2 -4.38568 10.4593 -5.19765 20
392 2 -0.524938 7.04514 -5.06465 21
393 2 -3.15324 7.43817 -3.64768 23
394 2 -1.60992 10.619 -3.44916 22
395 2 -0.512462 12.5985 -5.1726 22
396 2 -3.59517 13.0132 -3.48446 21
397 1 -6.12993 10.5156 -2.04697 22
398 1 -7.59332 7.41934 -0.255868 19
399 1 -6.78209 10.2097 1.45895 18
400 1 -4.48983 7.48492 -1.93734 22
401 1 -0.793715 9.80263 -1.6744 21
402 1 -3.61318 9.96761 -0.22531 20
403 1 -1.55021 7.5834 -0.0395825 20
404 1 -5.25088 7.46578 1.49612 21
405 1 -0.671939 10.3469 1.54359 22
406 1 -3.59119 9.82729 2.88525 19
407 1 -1.91136 7.63186 3.25782 22
408 1 -1.60477 7.20856 6.92493 16
409 1 -4.34431 12.4468 -1.81016 23
410 1 -1.48694 12.8265 -0.0898636 22
411 2 -6.23072 7.05111 -1.85048 18
412 2 -7.67163 10.6869 -0.495157 19
413 2 -7.14537 7.6277 1.54143 17
414 2 -4.3132 9.74939 -2.06827 20
415 2 -0.412481 7.88767 -1.89533 21
416 2 -3.53612 7.15742 -0.166803 21
417 2 -1.69977 9.50276 -0.0668093 21
418 2 -4.99024 9.70867 1.18198 21
419 2 -0.919802 7.20355 1.73494 22
420 2 -4.09876 7.31571 3.37257 19
421 2 -1.70704 9.54696 3.18395 21
422 2 -1.19864 7.20367 5.07231 21
423 2 -0.559906 12.9822 -1.7623 19
424 2 -3.32289 12.1489 -0.111637 24
425 2 -0.447075 12.2932 1.50015 20
426 1 2.6196 -0.877964 -3.12866 17
427 1 0.959552 1.67587 -8.02939 19
428 1 2.16133 4.32453 -6.93159 21
429 1 4.01611 1.19799 -6.3772 24
430 1 1.29034 1.40631 -4.88937 21
431 1 4.698 4.12807 -5.15716 23
432 1 2.44243 4.22881 -3.34311 20
433 1 4.48389 1.63217 -3.13886 20
434 2 1.57111 -0.660325 -4.75897 18
435 2 0.906242 3.79682 -8.27162 20
436 2 2.27893 1.87872 -6.6338 22
437 2 4.18593 4.61894 -6.99036 18
438 2 1.52624 4.58906 -5.12589 22
439 2 5.0981 1.90301 -4.97988 21
440 2 2.38494 2.20936 -3.28695 22
441 2 4.23109 5.00061 -3.32018 23
442 2 6.72437 4.58383 -5.20929 20
443 1 1.47847 1.80498 -1.48288 21
444 1 5.11696 4.42067 -1.8059 22
445 1 2.2515 5.10008 0.236957 20
446 1 4.19544 2.26588 0.217077 20
447 1 0.983517 2.51757 2.05021 23
448 1 4.90729 5.45692 1.39976 24
449 1 2.19818 4.81893 3.68594 21
450 1 3.90119 2.08584 3.23298 21
451 2 1.63804 -0.618823 -1.35118 16
452 2 1.65627 -1.37666 1.87605 15
453 2 1.38234 4.67973 -1.58478 21
454 2 5.09841 2.42825 -1.58971 22
455 2 2.34864 1.86231 0.430363 21
456 2 4.06339 4.49226 -0.117892 19
457 2 1.20113 4.55741 1.80657 22
458 2 5.34388 1.67428 1.79628 24
459 2 2.1031 2.31432 3.70487 18
460 2 4.29795 5.16547 3.21365 22
461 2 1.29587 4.56816 5.25878 20
462 2 7.05693 4.65521 -1.61975 19
463 1 0.904508 6.87537 -8.07747 20
464 1 2.37756 9.00371 -6.69869 21
465 1 4.38325 6.78146 -6.76337 21
466 1 1.29582 6.66528 -4.9956 22
467 1 5.14338 9.50159 -4.8579 18
468 1 2.01211 9.4726 -2.98798 23
469 1 4.06864 6.84753 -3.3647 24
470 1 1.47899 12.1226 -5.14329 21
471 1 7.00873 6.46409 -5.41402 22
472 2 0.999009 8.81109 -8.61091 20
473 2 2.45001 6.43039 -6.78315 19
474 2 4.32098 8.67426 -6.91363 18
475 2 1.2714 10.2354 -5.76311 18
476 2 5.36949 7.21176 -4.87666 19
477 2 2.07312 7.32474 -3.39247 21
478 2 3.82376 9.71266 -3.42767 20
479 2 2.27395 13.0881 -3.47057 21
480 1 1.21918 6.87627 -1.7183 19
481 1 5.1204 9.7447 -1.84652 21
482 1 2.05007 10.502 -0.0331054 23
483 1 4.10129 7.76401 -0.190734 20
484 1 1.04491 7.85035 1.66802 21
485 1 4.87418 9.82116 1.55391 19
486 1 2.20293 10.436 3.67001 22
487 1 3.57232 7.42902 3.21653 22
488 1 0.68042 7.84583 5.14832 22
489 1 1.2558 12.5291 -2.1522 19
490 1 1.46922 12.9867 1.80678 21
491 1 6.93863 6.6039 -1.99743 22
492 2 1.09439 10.6411 -1.83568 22
493 2 5.23244 7.50457 -1.69037 21
494 2 2.17501 7.11785 -0.0627043 21
495 2 3.97042 9.94736 -0.302558 17
496 2 0.995649 9.59477 1.7349 24
497 2 4.93793 7.49287 1.56325 22
498 2 1.73232 6.87213 3.18867 20
499 2 4.05959 10.2144 3.18424 18
500 2 2.3926 12.8166 0.0959701 22
