ITEM: TIMESTEP
39000
ITEM: NUMBER OF ATOMS
500
ITEM: BOX BOUNDS pp pp pp
-30.0 30.0
-30.0 30.0
-30.0 30.0
ITEM: ATOMS id type x y z Coordination
1 1 3.5775 19.7964 1.63636 12
2 1 -0.109442 22.2384 1.47757 16
3 1 -5.08031 16.9219 -15.0075 21
4 1 -11.7407 19.7272 -10.1678 15
5 1 -0.370005 19.9411 -16.8777 14
6 1 2.25136 12.684 -14.7974 11
7 1 4.07318 17.113 -0.504049 17
8 1 1.97435 24.5454 2.13651 11
9 1 -12.8181 19.2482 -4.65088 10
10 1 6.01449 16.8035 -8.67215 20
11 1 5.51223 21.0741 -0.795268 12
12 1 -10.7488 11.7033 -7.48999 12
13 1 -5.47831 13.6113 -13.6374 19
14 1 7.95587 15.0368 -12.0261 10
15 1 5.74813 10.488 -4.71689 11
16 1 -8.5531 28.0979 -4.17623 12
17 1 -2.8609 27.3316 -6.98734 18
18 1 -1.82012 16.6843 -16.5548 17
19 1 -2.9708 22.8772 -0.32647 19
20 1 -6.17865 25.0992 -3.87458 21
21 1 -1.943 22.9729 -17.9212 10
22 1 -5.97834 27.5079 -12.7862 15
23 1 -3.6607 24.8117 -16.4116 15
24 1 -5.39415 27.1294 -9.3724 16
25 1 -10.9411 22.9141 -9.79955 16
26 1 -1.21846 25.176 0.0355171 11
27 1 -6.50898 24.2335 -14.2909 22
28 1 -8.45193 12.0851 -3.36735 14
29 1 3.36702 11.4705 -10.1983 12
30 1 -8.88002 19.4935 -11.8508 19
31 1 -1.93194 9.57465 -3.47831 8
32 1 3.84325 23.2683 -13.8001 17
33 1 -10.8011 16.5292 -9.32934 17
34 1 -0.542078 26.2442 -16.5524 10
35 1 -2.83237 27.2098 -11.0906 16
36 1 -10.9589 18.1169 -2.74545 17
37 1 -2.73135 28.2154 -3.88635 14
38 1 1.5928 17.5291 0.252294 20
39 1 0.343941 11.7365 -12.1362 15
40 1 7.12903 17.6989 -12.987 13
41 1 2.88478 14.5286 1.47463 12
42 1 -0.414328 15.3785 -0.391336 21
43 1 2.32565 26.4834 -8.73831 16
44 1 -11.5436 12.3602 -4.11972 11
45 1 -4.38881 9.11625 -9.63369 12
46 1 -8.1745 16.7508 1.99993 10
47 1 -8.69612 20.4358 -2.44976 20
48 1 3.32322 11.65 -6.67328 16
49 1 -10.0923 14.5498 -3.18004 15
50 1 -8.84819 27.4083 -10.7789 13
51 1 -10.7685 26.5115 -4.94098 12
52 1 -6.39442 25.3206 -0.574926 13
53 1 -9.57823 15.8036 -11.966 13
54 1 -6.21322 13.0658 -16.6051 10
55 1 3.01722 22.3693 3.74904 8
56 1 -2.79024 14.6781 1.33197 12
57 1 -8.05178 17.6527 -17.2113 10
58 1 -12.1744 17.4678 -7.40626 15
59 1 -5.52845 10.6423 -3.89402 13
60 1 -8.78312 25.9618 -2.2521 14
61 1 -3.34476 13.7293 -17.4705 11
62 1 -3.81219 25.6349 -1.81155 19
63 1 -7.80452 21.8558 -14.4511 20
64 1 -11.4397 26.3879 -8.18114 11
65 1 -4.34357 10.852 -15.5931 11
66 1 1.77087 11.7448 -0.0400233 9
67 1 -10.9923 21.7492 -12.793 10
68 1 -7.69002 19.3959 2.18951 10
69 1 -11.2585 22.1249 -1.47527 8
70 1 -2.95595 27.7951 -14.3548 12
71 1 -0.201321 12.9307 1.76847 11
72 1 -1.73555 13.1746 -14.5601 16
73 1 2.67022 20.6406 -15.3737 15
74 1 6.1724 15.035 -0.436537 9
75 1 -8.24995 13.2281 -11.775 15
76 1 -8.49793 16.9292 -0.833873 21
77 1 5.53165 22.8169 2.46626 11
78 1 5.00122 25.2729 -9.23499 14
79 1 -4.90097 21.4322 -19.0935 10
80 1 -6.90166 23.6448 -17.0735 14
81 1 -0.584558 28.0994 -8.78548 13
82 1 0.641421 22.7963 -15.6731 17
83 1 -0.0461383 11.1551 -5.04142 19
84 1 5.16693 14.736 -7.04099 22
85 1 -1.83535 9.23355 -7.14622 11
86 1 -8.04954 21.2719 -18.1455 9
87 1 9.54567 16.998 -10.3293 9
88 1 -8.72001 26.5232 -14.261 12
89 1 3.06277 15.4113 -15.7846 11
90 1 -8.2747 13.7343 0.00610892 11
91 1 -3.50967 11.4199 -12.6152 16
92 1 -0.0248666 14.2536 -16.9254 12
93 1 2.33577 10.4214 -3.26889 11
94 1 -8.05378 14.8242 -15.0667 13
95 1 -1.33076 18.752 2.47373 12
96 1 -3.10448 19.9947 0.935227 17
97 1 4.20461 17.9136 -13.5952 17
98 1 2.86615 25.5689 -11.8829 15
99 1 8.36004 20.2199 -11.3363 13
100 1 -5.76966 19.4937 -16.9347 19
101 1 -10.8513 21.6222 -4.54331 16
102 1 0.056274 15.947 2.76654 11
103 1 -9.80131 23.6074 -15.5418 10
104 1 5.36048 14.2247 -3.41384 18
105 1 2.76907 28.1371 -3.39789 12
106 1 0.0416783 12.3485 -1.78583 16
107 1 6.48461 23.0629 -5.70411 13
108 1 4.84436 25.1121 -3.46266 11
109 1 1.856 25.9871 -0.268441 12
110 1 -5.78615 27.0777 -15.8704 12
111 1 -7.68378 10.9309 -8.62189 16
112 1 -11.457 23.8145 -6.54996 15
113 1 5.41215 26.6007 -6.57427 14
114 1 2.83948 22.758 0.0149043 21
115 1 -2.80225 18.3703 -18.6339 12
116 1 2.98059 29.5466 -6.45271 8
117 1 5.24991 14.764 -13.2443 13
118 1 5.78538 11.6579 -2.19199 9
119 1 -6.4087 19.7705 -0.712669 22
120 1 5.29572 20.0981 -3.89677 15
121 1 -3.72792 24.9717 -12.873 20
122 1 6.61933 23.2028 -11.6771 12
123 1 -4.6129 17.3232 2.49484 9
124 1 -5.7674 15.04 0.202261 16
125 1 -8.55405 24.8187 -5.65251 22
126 1 2.55915 25.9618 -5.49767 18
127 1 -12.7734 15.9363 -4.62701 13
128 1 6.30514 17.0578 -5.69839 13
129 1 -5.59257 8.84981 -6.82243 11
130 1 5.11593 24.5817 0.180977 10
131 1 6.5378 11.6226 -8.1404 11
132 1 0.166232 28.1935 -5.32093 15
133 1 -11.1163 12.926 -10.6135 10
134 1 -0.114862 24.8654 -13.8047 21
135 1 -8.11302 18.1168 -14.1304 17
136 1 1.03377 17.5204 -15.5173 18
137 1 -6.07961 10.7692 -12.4404 14
138 1 8.20291 14.4232 -8.6032 13
139 1 -12.8453 20.7933 -7.47557 11
140 1 -4.4067 21.9303 -15.4202 20
141 1 -8.69746 10.0878 -5.34233 12
142 1 6.56904 18.0504 -2.57542 9
143 1 -5.26084 16.1415 -18.2008 12
144 1 -8.34555 27.4771 -7.4232 15
145 1 -10.2363 19.2331 0.160518 13
146 1 8.14799 24.7895 -7.87785 9
147 1 7.63925 19.4295 -8.37676 13
148 1 -5.22111 12.3577 -1.37778 12
149 1 5.53146 20.6413 -13.8245 13
150 1 2.86022 24.9105 -15.3762 11
151 1 0.144809 27.3877 -1.77842 12
152 1 -0.268307 27.2469 -12.5058 13
153 1 6.75289 22.3531 -8.79386 18
154 1 5.4355 13.5827 -10.1925 17
155 1 -5.78989 28.0195 -2.33989 13
156 1 -5.51982 28.2194 -5.63883 14
157 1 -5.65219 11.7568 -6.47246 21
158 1 7.64676 13.2858 -5.22805 10
159 1 -12.2503 13.9118 -7.13447 14
160 1 -9.05206 25.18 -9.15135 23
161 2 -9.55498 19.0508 -1.59656 17
162 2 8.11641 23.0442 -7.21034 10
163 2 -8.44326 24.5959 -14.7882 15
164 2 -6.70964 11.4486 -2.7413 15
165 2 3.82737 23.8471 2.62895 10
166 2 -7.01363 26.5506 -1.8422 13
167 2 3.46573 14.0718 -13.9001 14
168 2 -4.47155 19.9267 -15.3986 21
169 2 0.0447163 15.8976 -15.7731 17
170 2 -5.20785 24.4876 -2.34312 21
171 2 5.29599 17.8422 -3.97837 18
172 2 3.41307 25.6567 -7.40481 16
173 2 -3.939 27.4354 -2.63042 14
174 2 1.90302 28.8103 -5.17256 10
175 2 0.710726 24.9541 -15.5359 13
176 2 3.57348 20.0038 -13.9731 16
177 2 -7.65992 19.6078 -17.3475 13
178 2 -0.228509 12.211 0.16517 11
179 2 -10.8328 19.6443 -4.49452 19
180 2 2.84465 17.1054 -14.8743 17
181 2 -3.67673 10.2827 -3.11093 10
182 2 3.36286 24.8288 0.177236 14
183 2 3.26354 18.3335 0.604345 15
184 2 -9.90805 11.494 -4.30474 13
185 2 -3.68555 8.6629 -7.46622 10
186 2 -11.706 14.4649 -3.8601 14
187 2 -4.79278 10.5053 -10.9617 12
188 2 -5.78779 9.96798 -8.54981 12
189 2 -9.06361 27.0655 -5.74848 17
190 2 5.42975 24.0562 -10.5094 17
191 2 -0.484537 21.8554 -16.9863 14
192 2 -3.57371 28.2684 -5.4088 15
193 2 -10.134 26.9926 -3.12959 9
194 2 -2.8736 27.5479 -9.10333 16
195 2 -4.05225 27.1037 -12.5992 18
196 2 -2.85538 24.8209 -0.70226 16
197 2 1.39696 15.8509 1.16959 15
198 2 1.87854 14.1508 -16.3507 10
199 2 -3.58281 13.0396 -13.8412 17
200 2 -8.89508 11.7753 -10.3145 14
201 2 6.39775 14.8692 -8.82804 18
202 2 3.62249 26.6528 -4.04595 15
203 2 -4.2075 19.679 -18.724 12
204 2 -1.69733 18.6309 -16.8824 15
205 2 -4.44568 12.2095 -16.838 10
206 2 -1.66391 13.5693 -16.6011 13
207 2 7.0526 19.6025 -12.9219 12
208 2 -3.23672 16.5163 -18.1952 11
209 2 -6.35091 12.6636 -11.9629 19
210 2 -3.57068 23.9153 -14.6753 20
211 2 -11.7862 12.3584 -6.08198 11
212 2 -8.15171 25.3996 -3.90887 18
213 2 -9.16997 13.4027 -1.93319 13
214 2 -11.6082 21.1886 -8.84059 14
215 2 4.33944 10.6288 -3.42239 11
216 2 -0.81219 27.5247 -3.41562 14
217 2 -3.17994 18.4436 2.05387 12
218 2 -9.8479 22.4298 -2.58361 12
219 2 -10.76 20.381 -11.6 15
220 2 5.3468 22.8032 -7.16062 19
221 2 -12.1783 15.5852 -6.74176 13
222 2 -5.8419 22.3947 -14.0649 20
223 2 0.866023 19.5621 -15.416 17
224 2 -8.02084 25.5365 -7.43231 22
225 2 2.43074 11.938 -11.7817 15
226 2 -1.57618 10.6697 -8.49818 14
227 2 -9.71376 27.1218 -9.04247 11
228 2 2.17998 11.1455 -5.13952 15
229 2 2.08474 27.4986 -1.71801 8
230 2 -6.7119 27.338 -10.9012 16
231 2 -4.31648 15.6988 1.42414 10
232 2 -1.57894 24.7804 -17.2714 11
233 2 -1.00453 20.441 1.88964 12
234 2 6.46682 25.5083 -7.92425 12
235 2 5.06059 23.6269 -4.57329 15
236 2 -8.28163 14.202 -4.18362 17
237 2 0.527717 24.8176 0.923222 14
238 2 3.90404 20.9729 2.93998 9
239 2 -3.63423 22.1484 -17.3414 16
240 2 -0.828406 22.7022 -0.278683 20
241 2 6.48937 12.3893 -4.0102 10
242 2 -12.0122 17.8819 -9.29019 11
243 2 -8.06617 24.1004 -10.8663 21
244 2 -6.10749 25.0846 -16.0301 16
245 2 -4.61685 13.4253 -2.9933 19
246 2 4.49376 28.2641 -6.5891 9
247 2 -6.65368 13.6426 -14.9232 15
248 2 8.67603 18.7429 -9.98585 13
249 2 -8.95505 26.3441 -12.3547 14
250 2 6.88466 18.0298 -7.32588 14
251 2 -6.54621 13.51 -0.483717 11
252 2 -8.10727 16.7171 -15.625 12
253 2 -5.78723 25.2696 -12.8438 23
254 2 -11.7657 25.6644 -6.40675 12
255 2 -1.15239 14.6342 2.13461 10
256 2 -12.4597 22.1277 -5.80229 9
257 2 -3.83471 21.84 1.06351 16
258 2 -9.96863 22.5065 -14.0431 11
259 2 -0.943619 28.0336 -10.9731 11
260 2 -6.15075 23.6071 0.110137 15
261 2 -5.97223 17.2499 -16.798 15
262 2 -6.41522 12.4207 -8.3038 20
263 2 1.47592 22.5582 2.29483 13
264 2 5.97211 20.4345 -8.79411 18
265 2 1.60733 11.3414 -1.81796 12
266 2 -6.68226 20.5074 1.17743 12
267 2 -10.4525 14.6588 -10.5663 15
268 2 -11.0718 20.9473 -0.0786126 7
269 2 -12.3431 17.5743 -4.05358 13
270 2 -4.93476 10.8068 -13.848 11
271 2 -3.79837 26.8027 -15.8095 13
272 2 3.71174 25.1925 -13.6923 11
273 2 0.604136 12.8637 -13.8373 16
274 2 5.94958 16.6583 -1.41758 13
275 2 3.44918 20.9131 -0.174531 16
276 2 -1.10302 26.593 -14.3761 15
277 2 -5.46544 14.3895 -17.6526 9
278 2 -6.69815 28.2843 -4.01553 15
279 2 -7.04963 27.3741 -14.4505 11
280 2 -10.6739 23.2409 -11.5323 13
281 2 -7.2303 21.409 -1.85967 16
282 2 5.80461 16.57 -13.4649 11
283 2 -10.8534 24.5605 -8.61434 14
284 2 -6.39672 22.0622 -18.4034 10
285 2 4.09304 15.2353 0.270387 12
286 2 -9.35136 18.2516 1.42823 11
287 2 -9.63197 16.4323 -2.57963 20
288 2 5.86327 13.5894 -1.45056 10
289 2 -12.5707 19.1638 -6.63134 13
290 2 -6.43842 17.7068 2.36069 12
291 2 -1.75015 9.90474 -5.31037 11
292 2 6.03079 21.343 -5.24791 15
293 2 2.47222 11.3878 -8.51011 13
294 2 -6.0408 27.4086 -7.36004 17
295 2 -8.57592 22.6418 -16.5683 11
296 2 -8.14207 15.2907 0.830602 11
297 2 1.63435 13.0033 1.47795 12
298 2 2.57908 22.7711 -15.2991 15
299 2 5.50862 25.035 -1.65888 7
300 2 5.8879 19.8891 -2.0584 11
301 2 6.22231 14.269 -11.7347 14
302 2 7.5476 12.999 -7.17063 11
303 2 5.43727 22.2353 -12.9338 15
304 2 -11.2528 13.0297 -8.74269 11
305 2 6.32343 14.9293 -5.16149 16
306 2 0.872634 25.8162 -12.1782 17
307 2 8.69015 16.8424 -12.0324 9
308 2 3.57834 26.327 -10.1742 11
309 2 9.06715 15.0624 -10.261 9
310 2 5.21987 10.8234 -6.66927 12
311 2 -8.62141 14.6305 -13.2031 16
312 2 -1.00295 27.7872 -6.86351 13
313 2 -0.150176 25.4793 -1.62494 16
314 2 -0.46768 12.2359 -6.66083 23
315 2 -0.0239574 17.6867 3.39636 7
316 2 5.62702 22.5114 0.489641 11
317 2 7.55239 21.8002 -10.4294 14
318 2 -7.85501 20.2043 -13.4562 17
319 2 -9.02602 10.7931 -7.15339 13
320 2 5.09565 12.0853 -9.2559 16
321 1 -7.76202 17.2849 -10.4154 23
322 1 -8.87773 13.8858 -9.12037 21
323 1 -1.83699 11.572 -10.1651 17
324 1 -5.05865 11.8677 -9.39329 20
325 1 -1.84068 16.5849 -13.4306 23
326 1 -5.05866 17.1672 -11.9808 22
327 1 -3.10132 14.7015 -11.9808 20
328 1 -6.0323 14.3546 -10.7971 20
329 1 -2.18448 17.169 -10.2557 20
330 1 -5.07404 17.0455 -8.66371 21
331 1 -3.15142 14.6234 -8.5445 22
332 2 -8.74983 17.5503 -12.053 17
333 2 -7.72821 15.1724 -10.5907 21
334 2 -9.40849 18.1311 -9.10098 23
335 2 -3.26371 12.7265 -9.23993 22
336 2 -3.0394 17.27 -14.8785 19
337 2 -6.20391 17.7727 -13.6864 21
338 2 -1.66597 14.6982 -13.4883 22
339 2 -5.03363 15.1263 -12.2399 20
340 2 -2.86642 17.2942 -12.065 20
341 2 -5.98819 17.5209 -10.3719 23
342 2 -2.02704 14.9855 -10.3063 20
343 2 -5.31409 14.7257 -9.06031 22
344 2 -3.11389 17.1913 -8.57849 21
345 1 -8.44861 17.117 -7.50714 20
346 1 -8.97635 15.0372 -5.76299 19
347 1 -8.10668 16.9002 -3.88816 22
348 1 -2.28268 12.1282 -7.24204 19
349 1 -3.24002 12.2942 -4.01741 20
350 1 -6.47752 14.269 -7.5012 21
351 1 -2.29249 17.1689 -6.9885 18
352 1 -5.26767 17.0648 -5.63277 22
353 1 -3.32877 14.5834 -5.35656 21
354 1 -6.17271 14.3587 -4.01651 21
355 1 -2.27727 17.3854 -3.98499 23
356 1 -5.37121 17.2723 -2.25485 19
357 1 -3.09121 14.8135 -2.33985 19
358 1 -2.10977 17.4289 -0.763692 22
359 2 -8.66989 15.0194 -7.70358 19
360 2 -9.31718 16.9335 -5.55101 20
361 2 -6.59302 10.3011 -5.44836 14
362 2 -3.97226 12.4838 -5.96961 20
363 2 -6.5265 17.3527 -7.14494 23
364 2 -2.27717 14.9911 -6.90505 24
365 2 -5.5214 14.8017 -6.01704 20
366 2 -3.49654 16.7199 -5.39392 20
367 2 -6.07541 16.4005 -3.86371 21
368 2 -2.07011 13.918 -3.77874 20
369 2 -7.00099 17.8606 -0.983671 20
370 2 -3.23813 16.8435 -2.29549 20
371 2 -2.37314 14.8604 -0.544955 17
372 1 -7.70259 22.0316 -10.2147 21
373 1 -9.16543 24.1951 -12.5216 16
374 1 -9.03423 20.0042 -8.6096 21
375 1 -2.76897 19.1268 -15.0956 22
376 1 -5.87551 19.833 -13.571 20
377 1 -2.00505 22.4517 -13.845 22
378 1 -5.08542 22.0594 -12.0989 24
379 1 -2.76064 19.4465 -12.3328 21
380 1 -5.83787 19.8896 -10.2932 19
381 1 -2.29639 22.6359 -10.3915 22
382 1 -5.11392 22.2832 -8.77632 21
383 1 -3.1863 19.5709 -8.681 21
384 1 -6.22714 24.8123 -10.9769 21
385 1 -3.24778 25.0207 -8.73309 22
386 2 -7.80483 19.9943 -10.4149 20
387 2 -9.21153 22.1217 -8.94162 20
388 2 -1.86617 20.4852 -13.8543 23
389 2 -4.70666 19.9938 -12.2583 21
390 2 -3.15657 22.6838 -12.4628 18
391 2 -5.84572 22.1652 -10.3894 19
392 2 -2.03883 19.9026 -10.3763 20
393 2 -5.05173 19.8613 -8.33858 22
394 2 -3.34099 23.1351 -8.84771 22
395 2 -2.17481 25.1763 -10.7753 18
396 2 -5.23492 25.0381 -9.43013 23
397 1 -8.49815 22.2364 -6.9229 22
398 1 -9.34424 19.0575 -5.36628 22
399 1 -8.0262 23.1247 -3.12362 20
400 1 -6.34542 19.5548 -7.03886 21
401 1 -2.27652 22.5808 -7.17762 21
402 1 -5.76988 22.6762 -5.64909 21
403 1 -3.2594 20.7247 -5.13285 20
404 1 -6.27514 19.9182 -3.77895 21
405 1 -2.6244 23.1812 -3.452 22
406 1 -5.57072 22.7756 -1.8068 21
407 1 -3.16238 20.2523 -2.20108 22
408 1 -5.78867 22.0372 1.18605 11
409 1 -6.28749 24.6947 -7.74708 21
410 1 -3.8456 24.6394 -5.67186 23
411 2 -8.26821 19.9242 -6.72388 19
412 2 -9.85003 22.9607 -5.6335 17
413 2 -8.07481 18.811 -3.92552 23
414 2 -6.592 22.6492 -7.46487 23
415 2 -2.28903 20.5392 -7.04373 22
416 2 -5.39539 20.1124 -5.35495 17
417 2 -3.43077 22.7513 -5.59491 20
418 2 -6.30259 22.767 -3.77041 21
419 2 -2.07095 19.7062 -3.87168 21
420 2 -5.20341 19.1546 -2.35081 21
421 2 -3.52215 22.1343 -2.08974 26
422 2 -2.53698 19.266 -0.710039 20
423 2 -2.55547 25.5427 -6.85673 22
424 2 -5.73304 24.8574 -5.83297 23
425 2 -2.48075 25.1339 -3.91597 21
426 1 0.56415 11.4188 -8.50503 18
427 1 0.467298 14.9268 -13.9147 21
428 1 0.994291 17.1181 -12.1189 22
429 1 2.71496 13.7833 -11.8776 19
430 1 -0.196474 14.4414 -10.3599 22
431 1 3.16047 16.8601 -10.3743 17
432 1 0.576363 16.7382 -8.72896 21
433 1 2.71319 13.9617 -8.57178 23
434 2 -1.58019 11.0074 -12.0881 13
435 2 -0.272965 17.747 -13.8306 21
436 2 1.12749 15.2429 -11.9541 22
437 2 2.72579 17.624 -12.0537 21
438 2 -0.222967 17.5467 -10.4559 21
439 2 3.66027 14.6156 -10.1839 21
440 2 0.664129 14.7969 -8.37694 20
441 2 2.27 17.426 -8.73361 21
442 2 4.83958 17.7216 -9.75283 19
443 1 -0.369565 14.3158 -6.82592 21
444 1 3.26493 17.9509 -7.11946 19
445 1 0.759982 16.7493 -5.38452 20
446 1 2.37916 13.5883 -4.93881 19
447 1 -0.432956 14.76 -3.71547 23
448 1 3.55366 16.8599 -4.11776 20
449 1 0.914937 17.7796 -2.51032 22
450 1 2.47452 14.9975 -1.86825 23
451 2 -0.141828 12.3779 -10.2527 19
452 2 -0.866514 11.2826 -3.28016 14
453 2 -0.388233 17.6694 -6.80077 22
454 2 3.31397 13.6214 -6.71956 18
455 2 0.837442 14.8458 -5.32109 20
456 2 2.14992 17.9703 -5.20219 18
457 2 -0.496873 16.9734 -3.69553 20
458 2 3.48386 14.5813 -3.58298 21
459 2 0.332008 14.6087 -1.99848 21
460 2 2.58385 17.0688 -1.81082 18
461 2 -0.111502 17.483 -0.80577 20
462 2 4.63647 16.5856 -6.43162 17
463 1 0.0393592 19.7068 -13.6563 23
464 1 0.872351 22.389 -12.1164 22
465 1 2.98381 19.7701 -12.0657 21
466 1 -0.196084 19.7899 -10.1993 19
467 1 3.79663 22.8505 -10.3913 21
468 1 0.717693 22.5043 -8.51239 20
469 1 2.45227 20.4944 -8.85742 19
470 1 -0.210804 24.9514 -10.4148 20
471 1 5.1206 19.499 -10.0617 24
472 2 -0.0320288 22.9453 -13.9095 20
473 2 1.06495 20.6122 -12.2183 21
474 2 2.69077 23.2766 -12.0656 21
475 2 -0.426517 22.9744 -10.342 21
476 2 3.91591 20.7881 -10.5252 21
477 2 0.563056 20.5995 -8.65416 22
478 2 2.64928 22.6528 -8.73344 19
479 2 0.39044 26.1511 -8.88074 20
480 1 -0.501386 19.8247 -7.13359 23
481 1 3.66472 23.5711 -7.13697 21
482 1 0.403173 22.6975 -5.42373 22
483 1 2.58269 19.8643 -5.13778 19
484 1 -0.341433 20.6197 -3.71336 22
485 1 3.13865 22.7538 -3.9499 18
486 1 0.0888221 23.5237 -1.99638 22
487 1 2.33811 20.4861 -1.6984 20
488 1 -0.535745 20.3681 -0.163791 21
489 1 -0.295229 25.6003 -7.0535 21
490 1 -0.771381 25.7346 -4.17522 22
491 1 5.1463 20.775 -7.0842 18
492 2 -0.474245 23.3642 -7.0916 22
493 2 3.36022 20.1247 -7.24072 21
494 2 0.739169 20.688 -5.57857 20
495 2 2.32565 23.8238 -5.35654 20
496 2 -0.879917 22.423 -3.63159 20
497 2 2.9338 20.9219 -3.71283 19
498 2 0.473312 19.9054 -1.66809 22
499 2 1.88948 22.6398 -1.86193 18
500 2 0.590673 26.2195 -5.43223 20
