ITEM: TIMESTEP
16000
ITEM: NUMBER OF ATOMS
1500
ITEM: BOX BOUNDS pp pp pp
-30.0 30.0
-30.0 30.0
-30.0 30.0
ITEM: ATOMS id type x y z Coordination
1 1 -1.60107 -15.8398 -4.88754 11
2 1 3.90979 -12.1753 6.93924 15
3 1 -15.6029 5.26205 -5.55126 9
4 1 -13.4667 3.53202 -7.40116 16
5 1 -0.516112 -7.9689 12.8161 14
6 1 -15.6455 -2.50402 -9.74406 7
7 1 -6.23839 3.56076 -2.24247 24
8 1 -7.31702 -14.154 3.80835 10
9 1 -14.221 -2.73502 6.02202 12
10 1 -1.10857 4.71076 16.8301 13
11 1 1.89526 -1.161 8.88914 21
12 1 -0.285722 7.93711 16.8427 13
13 1 1.64397 -5.30686 3.62421 20
14 1 -3.34299 7.63312 -4.66664 19
15 1 -2.08261 2.9384 14.8209 22
16 1 10.237 4.94193 6.45503 18
17 1 -2.28025 10.8909 -9.72535 11
18 1 0.918056 5.36937 -11.1688 23
19 1 -9.77064 0.495826 0.258726 22
20 1 -4.23886 -2.23626 -10.1201 20
21 1 6.46991 -13.1167 5.13802 14
22 1 2.09402 -3.25761 10.9841 18
23 1 8.06101 -5.50361 4.12674 22
24 1 -2.36912 -11.272 -6.89677 18
25 1 1.60624 -3.37669 -4.41738 23
26 1 -1.07809 -4.25545 -14.5367 12
27 1 -1.98964 5.99217 14.3443 20
28 1 -1.12071 -9.50646 6.38544 21
29 1 4.73107 -7.20984 11.6446 17
30 1 -7.16608 -2.15723 6.20884 19
31 1 -13.5125 -0.0955492 0.198975 16
32 1 -2.72405 12.6974 -0.245659 20
33 1 1.24989 3.42357 -6.94772 20
34 1 4.40287 -0.304436 -14.8214 11
35 1 -5.35093 -2.96024 15.8296 11
36 1 -13.7907 6.80025 -2.6873 13
37 1 0.0743199 16.8103 9.47857 12
38 1 -10.4855 6.6267 -2.94599 17
39 1 1.04646 14.0947 -0.346684 18
40 1 -1.44271 -15.1646 3.11979 19
41 1 1.46068 -7.06878 -7.11473 24
42 1 -7.51435 5.60257 13.6897 19
43 1 -12.4093 -9.11066 -9.49872 11
44 1 6.40505 -0.81324 6.20015 22
45 1 -7.60907 8.58076 -0.111871 18
46 1 -5.91205 -10.6029 9.07153 19
47 1 -13.1357 6.72524 -6.46276 13
48 1 4.36307 4.94161 -4.19591 21
49 1 3.51305 5.23779 6.11725 22
50 1 3.37364 2.88461 8.56562 18
51 1 2.89214 -14.5969 2.20218 13
52 1 6.31256 4.02856 14.3225 19
53 1 0.818324 -1.897 -6.57302 21
54 1 6.72878 -8.32336 4.22745 23
55 1 -8.89011 -3.24835 4.16822 21
56 1 6.57849 -4.71061 13.63 9
57 1 -8.3771 -11.524 8.25621 10
58 1 -8.07585 -2.93397 0.521728 21
59 1 12.423 4.02752 8.97442 15
60 1 6.60137 -2.60928 -2.07315 19
61 1 1.54964 12.977 14.1178 11
62 1 4.86339 0.652578 9.3929 21
63 1 -10.9417 -1.51504 5.51305 21
64 1 -5.07484 -4.51115 -7.498 20
65 1 -7.68513 6.33571 -1.56073 21
66 1 -2.22233 2.74896 -7.68178 22
67 1 5.24857 -0.00163438 -1.56188 20
68 1 3.45362 -1.08371 -4.4028 22
69 1 4.81729 -5.50242 3.25693 21
70 1 7.77169 -9.67643 6.34413 17
71 1 -6.25735 11.1738 -5.08411 14
72 1 -10.9152 10.7845 4.91079 10
73 1 -4.02136 10.7106 12.9598 15
74 1 -12.9363 -2.75125 8.42968 14
75 1 10.8729 -1.59677 -4.94845 19
76 1 -10.0382 9.46544 11.9021 10
77 1 3.73707 -6.3918 -4.959 20
78 1 -3.56986 7.09098 -13.5726 12
79 1 -4.24753 0.129253 -15.9667 12
80 1 0.612285 11.268 0.322357 17
81 1 -4.82126 5.02588 -6.88266 20
82 1 -1.31349 13.342 -5.46441 15
83 1 -2.6995 9.63997 2.41318 18
84 1 -4.30188 -5.76922 14.3476 20
85 1 -2.4264 -5.65764 -5.62946 20
86 1 3.17861 -4.24566 -6.72681 19
87 1 -1.29886 5.0777 8.62829 21
88 1 -9.27584 -6.8069 -3.97776 19
89 1 11.9169 -3.58841 0.677606 16
90 1 -7.84874 -8.79302 -5.34338 17
91 1 6.32975 -6.63519 7.08061 22
92 1 -8.04208 5.99644 2.29965 19
93 1 -0.582598 3.03167 -10.0903 21
94 1 2.75027 6.23927 -7.76342 21
95 1 8.45461 -9.38637 0.800937 18
96 1 -2.36777 -17.6158 4.41795 8
97 1 -7.09933 -10.1948 -3.08284 19
98 1 -12.3448 0.904086 2.36156 18
99 1 7.26738 10.3798 8.4924 16
100 1 3.86497 5.41088 0.861635 21
101 1 -4.56997 11.4308 10.1578 17
102 1 -5.86533 9.53073 -3.03493 21
103 1 -0.954174 -5.86475 -11.0225 17
104 1 8.23476 -1.58168 13.7353 12
105 1 2.94121 8.26399 -5.30819 22
106 1 8.62701 -3.60262 -4.03192 18
107 1 -8.38775 8.48798 -3.8681 19
108 1 -3.65522 13.753 8.10589 18
109 1 11.3792 -0.0832921 -8.47229 9
110 1 3.34649 -6.30551 6.09733 20
111 1 -9.15547 4.19664 -11.0077 19
112 1 4.20035 11.1941 0.728741 20
113 1 5.36452 13.0648 -1.12364 17
114 1 -4.39422 12.3588 2.65707 22
115 1 -5.19811 -5.58199 -10.2561 20
116 1 2.29253 9.98039 8.0549 19
117 1 -15.3811 -4.18255 -0.852068 11
118 1 13.1245 -2.53104 -2.43165 14
119 1 0.726422 6.2799 11.2115 21
120 1 -0.514029 8.19271 -5.6442 22
121 1 2.05423 -4.94999 8.92837 22
122 1 -11.1181 -8.68324 2.2754 12
123 1 -7.84948 -7.41955 3.91417 19
124 1 4.73106 -11.9596 -2.16722 16
125 1 -7.72488 8.14394 -9.57316 13
126 1 -3.00244 9.6523 -1.68199 20
127 1 8.99759 8.53077 -3.52388 17
128 1 -2.68301 -10.2415 13.8802 12
129 1 -7.37978 3.2009 0.877546 21
130 1 3.24464 14.9697 4.62418 18
131 1 3.10364 5.3379 13.0477 18
132 1 0.278943 12.8574 5.20873 19
133 1 -4.43271 0.295137 -7.02947 20
134 1 10.1165 -8.62082 3.65307 12
135 1 -9.51941 -3.07713 8.06945 18
136 1 -16.8158 5.02548 5.50478 11
137 1 -8.07984 -8.16998 10.0849 14
138 1 -17.259 0.360478 -0.975601 14
139 1 -4.7719 -16.1355 3.04932 13
140 1 -4.92309 -5.04804 -1.52814 20
141 1 5.01777 -9.23574 0.914669 22
142 1 -2.83814 15.2987 10.1194 13
143 1 -7.66032 -0.0193383 8.33651 23
144 1 -9.79062 0.866626 -4.91464 18
145 1 -8.27754 4.87225 -7.69465 21
146 1 -12.2723 -7.0987 -5.2317 16
147 1 -9.52788 1.01362 10.6313 22
148 1 -3.76124 -4.38068 11.6098 17
149 1 0.669918 -10.4349 8.64806 20
150 1 11.7679 2.37424 1.10814 23
151 1 5.75087 2.00979 -3.87422 24
152 1 9.11504 5.03835 13.2148 12
153 1 -5.92369 5.9918 -15.6523 8
154 1 0.819198 -0.488712 -9.57371 20
155 1 -9.91886 -3.157 -7.95059 18
156 1 -5.24648 10.6094 -8.40295 14
157 1 -7.48483 10.8307 1.70617 13
158 1 4.69885 -3.80012 11.6043 19
159 1 -2.00353 -6.24457 -8.45295 22
160 1 -4.46232 8.55504 -10.4615 16
161 1 2.95161 12.0087 -7.74486 13
162 1 -9.09386 -0.0743926 3.26096 19
163 1 -2.58062 11.104 7.24302 20
164 1 0.861012 -8.00043 -10.0475 17
165 1 -9.14182 -14.4588 0.604559 11
166 1 7.93982 -11.4967 -0.648737 12
167 1 3.47282 -6.28324 0.441718 23
168 1 6.40201 15.4283 -3.2964 8
169 1 -1.02661 8.56062 -0.00715772 20
170 1 -13.5871 3.36034 4.59101 17
171 1 0.678694 4.19379 14.4424 20
172 1 13.4699 3.81658 3.6057 17
173 1 1.72629 4.99534 8.0662 20
174 1 -11.0685 5.34268 6.45203 18
175 1 -15.1838 -4.22611 2.2793 11
176 1 7.81082 -0.1711 -9.14497 20
177 1 3.24909 -1.16849 13.1966 18
178 1 7.59257 8.90295 -6.61875 15
179 1 0.31503 -7.95364 -2.08983 20
180 1 -7.40565 -3.9445 -14.3124 11
181 1 5.90463 2.41751 -9.80807 20
182 1 -12.3535 2.18735 9.65037 15
183 1 -2.40708 -16.7675 0.805026 11
184 1 -12.403 -4.11564 -7.15917 19
185 1 -1.57149 14.7326 -2.29189 15
186 1 1.16547 1.2278 -15.4225 12
187 1 4.26339 5.08683 16.962 10
188 1 14.7667 2.65299 0.203274 11
189 1 -9.05151 -5.44364 5.59661 21
190 1 3.5288 -2.98966 -11.5346 19
191 1 -6.03757 -9.85343 3.11163 21
192 1 -9.7287 -0.970635 -9.9912 21
193 1 -14.1087 -6.44921 -8.18542 10
194 1 9.82429 -2.79651 9.95382 17
195 1 5.3079 -5.39192 9.34945 20
196 1 -9.50436 -9.16654 -11.4042 11
197 1 1.78431 -3.35787 6.41714 22
198 1 -0.94479 9.6848 -12.3674 9
199 1 3.92303 9.10897 3.55374 20
200 1 -8.57223 -5.79584 8.7 16
201 1 -0.240494 10.0846 5.88499 19
202 1 -9.10178 1.32398 14.7878 12
203 1 -10.8416 -9.55615 -6.49648 12
204 1 -6.60926 -2.16744 -8.38566 18
205 1 -5.67154 -5.84156 -4.56602 21
206 1 -1.94282 -12.3446 0.976767 18
207 1 8.51624 2.59306 7.38329 20
208 1 -4.95883 -3.02848 -4.38018 21
209 1 -11.3759 -1.72637 10.5293 13
210 1 0.315585 -14.5818 1.37518 17
211 1 -4.34096 -12.63 3.64784 18
212 1 -2.67527 16.4619 0.502532 10
213 1 0.164517 2.12125 -12.8524 19
214 1 -7.50076 -3.66543 -11.1542 20
215 1 -1.64899 -8.81225 0.598615 21
216 1 -6.86605 -9.57495 -11.0752 9
217 1 -11.9576 2.1344 -9.79841 16
218 1 6.99417 5.40251 6.30007 18
219 1 -5.21098 2.90542 -9.23719 20
220 1 -6.03732 5.52745 -9.95367 18
221 1 -2.94335 -4.61114 8.16034 20
222 1 -7.09007 13.708 -3.4911 12
223 1 4.52372 10.6846 10.3321 21
224 1 11.3783 1.78845 6.92033 21
225 1 -6.33844 2.77753 9.60688 19
226 1 -0.669281 -4.63101 13.2315 20
227 1 -8.48909 8.47551 9.84903 16
228 1 0.650781 -3.27175 -11.9327 19
229 1 4.37994 -10.9317 3.94859 22
230 1 -6.42732 -0.406015 18.3915 5
231 1 -6.20778 -6.18238 12.3883 18
232 1 10.0682 -8.62362 -1.82871 14
233 1 5.26982 -3.56111 -5.18604 20
234 1 6.62945 -8.76255 -1.42338 21
235 1 -7.74276 -8.56434 6.9286 18
236 1 -9.55314 11.4821 -4.586 7
237 1 2.23838 0.626329 10.9566 20
238 1 5.93689 8.3623 10.5424 19
239 1 -12.0219 -4.59502 4.6455 19
240 1 8.46815 -9.42689 -4.59981 12
241 1 -7.82678 10.2554 6.06305 13
242 1 -10.0875 7.36195 4.2156 15
243 1 4.95346 -10.2301 12.7558 7
244 1 8.63125 -6.06758 9.69172 17
245 1 -0.0666889 7.78708 8.20948 19
246 1 -6.32829 -2.04532 -2.15598 19
247 1 -3.78821 2.50462 17.2196 11
248 1 -0.821441 15.5217 3.73636 15
249 1 -10.1338 5.67141 -5.5967 18
250 1 -9.93444 7.18095 14.525 12
251 1 -12.5516 8.41898 6.91215 15
252 1 -2.91023 -2.67354 -7.38798 22
253 1 -9.9289 10.1609 8.21624 12
254 1 8.00394 0.313747 8.89898 19
255 1 -8.26604 -12.1855 2.07285 16
256 1 4.47979 -9.09053 6.67256 20
257 1 -12.3489 7.99472 -0.845792 10
258 1 -2.7587 -3.0866 14.9057 14
259 1 4.2579 -9.68706 -7.36403 14
260 1 -6.47102 -1.76579 -13.0336 14
261 1 6.31547 -2.93058 -13.6588 11
262 1 6.15711 14.9065 5.49935 11
263 1 -10.9729 -2.1885 1.69277 23
264 1 5.63134 -5.51361 -12.0296 14
265 1 -3.67345 -16.5486 -3.05386 8
266 1 -12.4216 -5.67875 -2.45277 19
267 1 -5.47681 -4.35357 3.86656 18
268 1 9.68656 3.80206 -1.36298 22
269 1 -12.6267 -1.36399 -10.447 16
270 1 -14.8904 -1.50227 -5.31728 14
271 1 -8.0297 5.0049 10.2699 18
272 1 -5.19369 11.1944 6.8439 19
273 1 -2.42029 8.10528 5.14042 19
274 1 9.81563 -2.8448 -1.58339 18
275 1 9.1189 0.510877 -6.45285 19
276 1 -5.87158 5.57921 0.868765 20
277 1 1.97033 -9.33742 -5.17991 23
278 1 0.168747 5.77094 5.55527 22
279 1 -11.9254 0.97132 -2.23674 17
280 1 1.88732 -13.3917 -1.07898 17
281 1 12.2996 -1.76242 8.51218 13
282 1 -10.5915 -3.85801 -4.33107 20
283 1 -8.34978 -8.84567 1.19641 19
284 1 -3.93859 15.0953 2.45678 13
285 1 -10.9426 -9.78746 -3.33574 16
286 1 -13.3612 6.3728 1.02235 18
287 1 1.41095 14.1167 -3.75069 19
288 1 8.38752 13.44 6.67693 9
289 1 -12.7554 -5.52387 1.05026 18
290 1 -0.947561 -9.72858 -4.44814 21
291 1 -13.8605 -0.352142 9.25041 11
292 1 -16.115 2.99915 -2.87076 11
293 1 -4.68624 -9.53365 5.89458 19
294 1 -7.14087 -12.9084 -0.803144 20
295 1 3.06548 7.7096 -10.4889 15
296 1 -11.6864 3.36385 -4.13483 17
297 1 -1.96065 -14.7764 6.95267 15
298 1 12.5679 8.75252 6.02998 10
299 1 -3.13443 3.05566 9.47758 18
300 1 -9.36045 2.55361 3.35551 18
301 1 -8.03557 3.06764 6.24175 21
302 1 -4.20875 -14.9103 5.30493 13
303 1 0.318052 -6.23288 -4.68646 22
304 1 6.45598 -8.18968 -7.54949 12
305 1 -2.82689 -9.39068 8.94086 20
306 1 -11.1862 1.77947 12.6318 14
307 1 -5.55656 -4.84979 7.17091 17
308 1 5.55026 -9.64662 -4.38928 18
309 1 -3.42179 -7.86785 -11.373 13
310 1 -0.958028 -2.11181 11.9854 17
311 1 1.94029 -5.29313 -1.85372 20
312 1 -9.15327 1.72459 -11.8045 16
313 1 5.64122 -14.3834 2.96499 9
314 1 -5.14712 15.1695 -1.01323 14
315 1 -9.44578 -1.05135 13.2126 16
316 1 -2.99705 -6.77268 10.7342 19
317 1 7.67963 -7.57014 12.4553 13
318 1 8.88725 2.21677 1.02056 20
319 1 -8.42942 6.20622 7.47053 16
320 1 2.39367 2.17362 -4.71454 23
321 1 3.95012 -10.8496 9.58363 16
322 1 7.13794 10.0058 -1.27703 22
323 1 -2.18722 6.64151 11.1593 21
324 1 2.24052 8.41112 0.502798 22
325 1 4.23168 -2.33576 8.42085 20
326 1 -2.26977 -12.8914 -3.97731 19
327 1 -2.88307 15.9778 6.87357 13
328 1 -4.65987 -13.7292 -5.32802 15
329 1 2.64507 7.57852 16.0445 13
330 1 -5.21776 0.235859 8.71219 16
331 1 -7.46015 -7.14771 -1.64363 16
332 1 -11.7 7.23692 10.1012 15
333 1 -8.39273 -5.82437 -6.30822 20
334 1 -12.8265 7.21544 12.6331 9
335 1 -6.18925 -7.58623 -7.48236 18
336 1 2.36958 -6.31456 -11.9336 13
337 1 -9.36603 -16.0909 -1.97146 6
338 1 -5.93867 -3.5126 9.65722 18
339 1 9.81555 -0.821713 6.83031 19
340 1 -6.76739 -3.17101 12.8887 19
341 1 -11.0668 5.35196 -8.8591 19
342 1 8.67557 6.52225 -1.85042 21
343 1 -9.58436 -13.0021 -2.64824 15
344 1 1.10736 5.33643 -4.96192 22
345 1 -0.599107 13.1874 2.15692 20
346 1 -3.0036 7.70926 -7.67764 22
347 1 -1.54089 10.8835 15.4393 13
348 1 -14.8458 -1.4622 -1.99583 16
349 1 4.97337 10.5056 -5.48053 17
350 1 -5.72859 -10.6489 -7.18924 17
351 1 0.606682 -13.0992 -6.1814 13
352 1 -3.11385 1.73199 -13.3198 18
353 1 -10.1498 8.68388 1.75339 14
354 1 6.47803 6.91098 14.5974 11
355 1 4.17093 9.35467 -2.12319 21
356 1 5.64655 8.42745 0.759876 24
357 1 -10.3195 7.95191 -7.77762 15
358 1 -0.598552 5.82993 -7.98225 25
359 1 -0.40617 -8.42158 3.52239 21
360 1 -16.4574 -1.55758 4.10914 11
361 1 -6.33364 2.93785 -12.365 18
362 1 8.79572 8.32062 1.21233 19
363 1 3.05212 -8.09628 3.27245 24
364 1 10.5241 5.51252 1.07576 20
365 1 4.76738 -2.12604 -8.2698 21
366 1 0.0367248 -10.3069 -1.03011 18
367 1 -1.08959 -10.1161 11.0914 18
368 1 2.15184 -9.39837 11.5784 15
369 1 -10.3592 3.16934 -7.23008 19
370 1 -0.840643 -11.2504 -9.39196 10
371 1 -2.94899 5.53194 -9.39495 21
372 1 0.058291 -1.95505 15.0766 14
373 1 -13.1646 -2.29707 3.24263 17
374 1 11.0067 -3.36699 -9.65449 8
375 1 13.6228 -0.555688 0.315343 17
376 1 -4.65615 8.68164 0.917715 22
377 1 -0.85365 -8.39353 -7.21343 24
378 1 3.78203 3.37312 -6.88507 23
379 1 7.21537 -1.02679 -4.52197 20
380 1 -9.98244 4.00468 15.427 12
381 1 1.50837 15.9073 2.2646 14
382 1 -6.95679 -6.74057 -12.5076 14
383 1 -8.63855 -2.14729 10.5769 17
384 1 -5.38442 14.3496 5.59403 12
385 1 -9.65667 -2.04339 -12.3344 14
386 1 -16.4428 4.51852 2.43228 15
387 1 -4.80391 -8.97333 11.8241 18
388 1 1.49641 9.06014 -8.32592 20
389 1 12.2813 6.38463 3.48053 16
390 1 -10.0765 -11.1962 -0.659983 15
391 1 -3.00178 -5.8541 5.5023 18
392 1 -5.07449 8.13734 10.6599 21
393 1 0.127858 -4.60825 -7.11173 21
394 1 2.10317 6.26457 2.88293 20
395 1 11.8803 0.308227 3.27162 20
396 1 2.68804 17.0403 -3.94466 7
397 1 0.841269 -12.4867 6.96891 16
398 1 -4.60666 5.854 9.03614 19
399 1 4.15244 5.53459 9.99154 19
400 1 -4.60206 2.667 -16.5074 11
401 1 -7.46148 -3.20186 -5.54396 20
402 1 0.403025 -5.38437 16.1762 10
403 1 6.46129 10.7407 12.1568 15
404 1 6.36545 7.39109 -9.94662 13
405 1 -6.91754 8.36628 -6.73013 15
406 1 -4.05079 12.1611 -3.36712 21
407 1 10.5791 3.01838 12.2184 13
408 1 11.9554 1.40963 -5.33017 14
409 1 -10.0838 -4.8994 -0.550181 21
410 1 -0.706772 0.61585 12.0211 17
411 1 -2.25738 10.7197 -6.44494 20
412 1 0.712474 -11.9773 -3.47328 17
413 1 7.15997 -2.92218 -10.6843 18
414 1 -4.42839 13.3222 -6.31325 10
415 1 -10.7231 -4.22979 -10.6082 20
416 1 3.22873 -14.6297 5.53162 12
417 1 -17.0401 -1.98101 0.835341 12
418 1 -8.08469 1.04445 -1.96262 22
419 1 -3.21386 -5.67103 16.9506 9
420 1 2.21744 6.30847 -2.24648 20
421 1 4.18159 -6.68932 -9.24214 16
422 1 1.74094 -6.56885 13.26 15
423 1 8.54466 0.125851 -2.08573 20
424 1 -12.7794 3.50354 -0.40213 15
425 1 10.0779 -6.71103 1.03528 16
426 1 4.40907 9.93022 14.0991 15
427 1 -3.25942 0.560051 -10.1629 15
428 1 3.24235 15.7016 7.86411 14
429 1 7.19785 4.87543 -11.3745 13
430 1 2.3392 -0.565187 -12.6739 19
431 1 -4.57161 -10.9763 -4.37535 21
432 1 -11.7327 -6.92805 -11.3902 11
433 1 13.0076 5.51424 -0.245734 14
434 1 12.1053 7.70868 -2.66536 11
435 1 5.93955 -4.73005 -8.58999 18
436 1 6.02646 -12.5558 0.924778 14
437 1 6.91338 9.03561 4.11498 23
438 1 -10.9832 4.87863 12.2073 19
439 1 8.86311 6.41305 4.24013 19
440 1 13.4728 -0.185761 6.30709 15
441 1 9.40857 2.50234 -9.63881 12
442 1 5.71682 1.9492 16.5981 13
443 1 -0.731866 -4.24249 9.73614 18
444 1 7.46055 3.24924 3.6478 20
445 1 0.61519 0.783932 14.659 16
446 1 11.2639 0.723074 -1.97768 21
447 1 10.8583 1.1734 9.71335 19
448 1 -11.8225 -1.3282 -7.09309 17
449 1 12.0647 8.07797 0.650011 13
450 1 11.4685 -5.63258 3.62931 12
451 1 0.0261831 -6.27626 0.713645 23
452 1 7.10912 5.1638 11.4853 17
453 1 1.42991 14.2927 11.2317 14
454 1 5.44765 2.47555 6.22574 20
455 1 -5.58491 11.9481 -0.251405 20
456 1 10.5006 7.48028 -5.68746 12
457 1 6.56691 -0.100016 -12.1244 14
458 1 3.97522 16.4366 -1.34019 11
459 1 -3.36005 -10.0748 -2.01536 18
460 1 -14.2795 2.8766 7.43771 17
461 1 -10.3015 7.02637 -11.3479 9
462 1 -5.81122 -15.8976 -0.00191179 11
463 1 -7.94936 0.596103 -7.63494 15
464 1 -16.2753 1.72033 -6.35593 15
465 1 9.43236 -9.29454 9.60296 11
466 1 8.61567 7.8325 7.19421 18
467 1 -0.188203 -7.31966 8.93791 21
468 1 -15.9762 -3.28675 -7.16616 9
469 1 0.0635848 -6.29765 5.89947 19
470 1 -4.48061 7.44876 13.649 18
471 1 4.86236 9.19258 -8.0899 16
472 1 5.47987 0.262583 -6.86967 21
473 1 1.33508 -10.5844 -8.01104 15
474 1 11.1242 -5.24079 8.79173 9
475 1 8.78513 11.981 3.94003 14
476 1 12.004 -5.63814 -1.72263 14
477 1 -6.0999 8.59532 7.34285 16
478 1 -9.91352 -5.9545 2.49817 23
479 1 -14.7236 -4.87814 -4.04888 13
480 1 8.81383 1.92255 14.9074 11
481 1 -5.02437 -8.28997 15.0439 12
482 1 6.80822 10.2211 15.7494 6
483 1 -7.96204 14.4102 -0.120421 6
484 1 7.37453 5.05993 0.760286 19
485 1 4.87017 7.34106 7.54754 19
486 1 2.209 4.44155 -13.9119 12
487 1 -11.1353 2.19799 5.60645 21
488 1 4.83409 2.51985 -12.6515 18
489 1 -1.37937 -2.63952 -4.71849 23
490 1 7.14769 -6.55359 -4.82965 16
491 1 9.67958 4.71087 9.66402 19
492 1 5.56948 6.04451 3.86303 22
493 1 11.3973 7.52088 8.15327 14
494 1 -4.19907 0.135869 14.7776 13
495 1 0.641773 3.10847 12.0582 21
496 1 -0.965557 -0.46235 -11.5411 18
497 1 -3.28381 8.81607 8.15017 21
498 1 3.38927 -0.620918 16.0014 13
499 1 10.0748 10.8419 -1.96533 11
500 1 6.75339 -12.2849 -3.64552 11
501 1 -4.505 2.79276 -4.67569 21
502 1 5.36068 12.0204 4.08386 21
503 1 4.87836 14.6631 1.76201 16
504 1 -2.06408 -1.46045 9.17727 19
505 1 2.3149 11.765 -2.03452 18
506 1 7.36451 11.1839 1.6752 22
507 1 -3.96525 -13.671 -1.6014 18
508 1 -1.49267 -0.956319 -16.288 10
509 1 -11.5969 8.77844 -4.76269 12
510 1 8.20971 -5.68416 -9.47837 11
511 1 10.4394 3.26023 3.9475 19
512 1 9.03726 5.84575 -8.03565 15
513 1 7.91008 13.6506 -0.541372 15
514 1 -2.74608 5.31676 6.39175 21
515 1 -10.4108 5.88659 0.399273 19
516 1 5.61463 6.16194 -1.27635 22
517 1 -3.80058 -12.0533 11.1939 13
518 1 -3.48939 4.2019 -12.2724 18
519 1 1.95779 13.4349 8.2231 19
520 1 2.98863 1.96378 14.1372 22
521 1 0.508946 16.5989 -1.18538 12
522 1 7.75499 14.8549 2.78818 10
523 1 12.876 -4.36269 -4.70321 9
524 1 -13.9551 0.0576287 5.70545 19
525 1 1.07995 -11.0598 3.62956 19
526 1 -4.14141 -3.11188 -15.1668 12
527 1 0.128468 1.65116 8.75945 22
528 1 5.2543 -5.63054 -2.10212 22
529 1 4.51723 13.7083 10.5298 11
530 1 -16.2104 1.78984 4.6935 13
531 1 2.88189 -11.8385 0.866644 18
532 1 5.68139 7.92584 -4.11837 21
533 1 1.83833 -9.16931 0.884991 21
534 1 -0.3616 14.4056 8.33269 18
535 1 1.57332 -1.94405 -15.0236 12
536 1 -1.72476 -7.97805 15.9005 11
537 1 2.58086 11.2706 5.51034 22
538 1 -5.27594 2.49248 13.8881 20
539 1 -11.1222 -6.72333 -8.44216 18
540 1 2.6396 0.414979 -6.99572 23
541 1 -3.53026 13.6474 13.0488 9
542 1 3.48161 -12.1173 -5.66476 15
543 1 1.91077 -9.40006 5.87886 21
544 1 1.43798 -14.8224 -4.04391 14
545 1 -10.9574 0.0247603 7.81026 20
546 1 -1.19971 0.0728487 -7.62876 24
547 1 -7.00892 -14.139 -3.47904 15
548 1 -13.8183 4.42569 10.6771 11
549 1 10.3694 3.64881 -6.69201 15
550 1 -5.4673 5.4215 6.42826 17
551 1 -13.1067 8.48584 3.72061 12
552 1 6.81146 -2.76952 3.33813 20
553 1 -0.959824 11.4008 -2.90251 21
554 1 6.81624 3.31738 -6.06276 20
555 1 9.24552 2.30373 -3.91213 22
556 1 -14.2262 0.137013 -8.27211 15
557 1 -13.5673 -8.64004 -2.9526 9
558 1 4.14904 13.236 -5.11489 16
559 1 -3.3757 0.335065 11.7114 15
560 1 -6.71419 0.129757 12.131 22
561 1 1.50963 -4.96092 -9.31445 22
562 1 -6.71121 6.0313 -4.53157 21
563 1 4.82042 12.9975 7.40339 20
564 1 -9.63869 -5.25336 11.9365 9
565 1 4.57874 6.07966 -12.5403 15
566 1 -0.78182 -14.2404 -1.40712 18
567 1 4.17658 4.91291 -9.89928 21
568 1 -4.58991 -6.0444 -14.3981 10
569 1 -2.13846 3.96096 12.014 21
570 1 -0.573305 8.1906 -9.62352 24
571 1 -7.98039 -4.47519 -2.92318 23
572 1 5.18299 -3.50153 0.854775 21
573 1 -5.08592 -8.1722 0.181966 20
574 1 6.08461 5.96545 -7.13985 20
575 1 6.69231 -6.52332 1.52172 22
576 1 -7.2668 8.43575 12.8163 16
577 1 9.64106 -7.23138 6.22145 16
578 1 13.0835 -2.45316 3.6919 14
579 1 6.37232 -8.43696 9.46399 20
580 1 0.97641 10.3235 11.445 16
581 1 -4.66593 4.99854 15.4111 17
582 1 -4.94613 -13.5419 8.16169 11
583 1 8.51036 0.119089 4.07874 21
584 1 4.58712 12.9015 13.2733 10
585 1 -16.3753 7.0679 2.74508 12
586 1 3.20688 -8.36413 -2.06018 21
587 1 5.19979 9.98889 6.61139 20
588 1 5.77881 0.364033 13.8685 17
589 1 -0.902927 12.0278 9.54581 20
590 1 -1.68057 -11.8064 4.95608 20
591 1 -9.29007 -1.96471 -1.67465 19
592 1 2.27021 3.0701 17.1516 11
593 1 0.732847 9.39531 2.9894 20
594 1 -5.26887 -7.45114 8.21779 19
595 1 10.8285 -0.508621 11.9374 11
596 1 8.99139 -4.45575 6.92217 17
597 1 6.56625 3.58859 9.42935 20
598 1 -4.352 6.65336 -2.39973 19
599 1 -3.64085 -8.26141 -5.72118 20
600 1 -7.12288 1.13137 -14.2541 13
601 1 -8.25309 -2.00167 16.0831 9
602 1 0.51806 16.4194 6.41599 14
603 1 15.2944 2.83923 6.14082 10
604 1 1.59819 14.8961 -6.6494 11
605 1 0.305286 7.64962 13.8807 19
606 1 3.10572 8.12534 10.9666 15
607 1 4.58609 -0.293418 -10.2648 20
608 1 -5.33619 -10.9729 0.640032 18
609 1 -6.2416 -0.290498 -5.07375 19
610 1 14.3841 2.10886 8.57487 10
611 1 -1.10959 -2.88301 -9.51198 23
612 1 -3.09238 -7.5746 -2.88679 21
613 1 14.9898 0.984544 3.2895 13
614 1 2.24765 -3.85822 14.4008 14
615 1 -8.40302 -6.15974 -9.60804 19
616 1 2.44449 12.7732 2.87741 20
617 1 -4.59999 -2.08709 7.07433 19
618 1 -11.1809 4.79852 2.83391 20
619 1 10.7034 4.94445 -4.18555 17
620 1 2.33604 2.28704 -10.1617 23
621 1 -7.71978 12.5964 4.06306 12
622 1 -3.0507 5.58654 -16.4323 9
623 1 8.56843 -3.79472 1.27984 18
624 1 -15.2461 2.34046 0.283007 15
625 1 10.2152 10.7613 7.1634 10
626 1 -11.3636 -8.29578 -0.352838 16
627 1 4.12321 3.057 11.721 19
628 1 -13.1637 1.29025 -5.39968 17
629 1 -9.67109 3.17016 8.86011 17
630 1 -2.49153 5.06933 -5.26507 24
631 1 9.76349 -4.47037 -6.8748 15
632 1 -8.91262 -10.5987 -8.38909 11
633 1 10.3017 -6.48359 -4.29011 14
634 1 -15.8735 5.43097 -0.378746 12
635 1 -12.2227 -2.67253 -1.60813 19
636 1 -9.59246 -10.9184 4.59235 14
637 1 6.88768 -2.38399 8.93229 19
638 1 5.60292 -3.96137 5.99218 22
639 1 -13.7719 5.99392 7.634 13
640 1 -0.729268 15.211 12.4952 11
641 1 1.19898 7.21183 -13.2788 13
642 1 -2.73709 12.9166 4.73229 22
643 1 7.44318 11.5218 -4.41294 12
644 1 1.81066 10.5295 16.086 11
645 1 3.19154 -7.97876 9.00014 21
646 1 -0.0530879 12.2218 -7.97046 13
647 1 -7.05631 2.75216 17.0102 9
648 1 -3.0214 -4.79874 -12.4412 15
649 1 -17.1925 1.10818 2.37792 11
650 1 -1.70557 -12.6801 9.01996 14
651 1 6.51233 -1.14858 11.5742 16
652 1 -0.584521 -17.0631 -1.66576 8
653 1 -13.8916 5.87218 4.64055 19
654 1 12.4094 3.28277 -2.41913 17
655 1 -4.88083 10.0716 4.19181 20
656 1 -7.82143 3.10986 12.4484 22
657 1 -3.62188 -9.03408 -9.04197 17
658 1 -3.10873 -5.80133 0.405473 20
659 1 7.17579 -10.6051 3.53901 16
660 1 -7.34511 5.8895 -12.5911 13
661 1 10.2213 -0.753615 0.389848 20
662 1 14.0767 5.56002 6.62694 13
663 1 14.0667 0.929429 -2.6284 9
664 1 -8.83237 4.22341 -13.8569 11
665 1 -6.96928 -11.3118 5.59117 18
666 1 7.45227 5.28372 -3.99246 21
667 1 6.65569 3.06779 -1.42975 21
668 1 -7.74932 3.04783 -5.20802 20
669 1 1.41392 11.2088 -5.55256 23
670 1 -11.9769 -5.49185 7.37282 12
671 1 1.98791 8.0631 5.90325 22
672 1 0.383358 -14.5692 5.10773 16
673 1 0.830689 8.90069 -2.48015 24
674 1 -0.908111 11.7245 13.0582 15
675 1 -5.15254 5.2114 11.7768 22
676 1 7.06135 -0.824598 0.910213 18
677 1 -8.07798 -5.93863 14.734 8
678 1 7.07332 -11.8086 8.16679 12
679 1 -6.68872 0.446092 4.91327 19
680 1 8.68698 8.46582 10.4673 12
681 1 8.56804 -5.63311 -1.1759 21
682 1 -13.4355 -3.68409 -12.2144 7
683 1 -0.889803 4.52655 -13.9062 18
684 1 -17.0624 0.0329267 -3.99598 9
685 1 10.5396 11.3911 0.53233 13
686 1 -2.19101 9.38526 10.8727 18
687 1 -7.90419 -12.2303 -5.47283 15
688 1 -4.40813 6.85384 3.64252 20
689 1 8.19843 1.25557 11.6567 20
690 1 -4.48422 -6.92782 2.92141 19
691 1 8.05538 -2.4407 -7.50759 22
692 1 -3.05709 -9.83849 3.28328 19
693 1 -1.51466 2.29609 -15.8104 14
694 1 -6.24022 -0.0338752 -10.7455 19
695 1 -6.79558 -6.07504 1.30343 19
696 1 -9.69323 3.46801 -2.07326 22
697 1 -3.54538 8.40439 16.0038 10
698 1 9.44766 -4.2843 12.5178 10
699 1 -10.8549 -7.96077 5.54185 16
700 1 10.3483 -2.73841 4.45395 15
701 1 -1.68098 6.56625 -11.7318 19
702 1 10.1422 9.14094 3.38665 17
703 2 -12.9408 0.476375 -10.0867 14
704 2 -5.04381 6.55727 -5.48639 19
705 2 -2.36739 -1.52966 -10.4904 17
706 2 -4.74639 0.60429 12.9823 14
707 2 -12.6036 -6.06076 -6.72987 16
708 2 2.28464 0.724054 13.0025 19
709 2 -6.38188 -10.5446 -5.23715 18
710 2 -14.1312 5.06018 -6.58607 13
711 2 1.3694 16.1841 8.23128 14
712 2 -10.7188 3.58981 4.2889 20
713 2 8.87342 2.00172 3.23815 19
714 2 -4.36208 0.836449 -5.13193 18
715 2 -11.8495 -9.01298 -5.07924 12
716 2 -8.20668 1.69246 -0.0781227 18
717 2 -6.30057 -4.00571 5.57 19
718 2 5.11565 2.44218 13.3876 19
719 2 8.61757 0.400809 -4.3008 21
720 2 0.575178 -14.5236 3.19046 16
721 2 4.97172 0.297123 5.66386 22
722 2 -6.13715 9.90802 0.354138 17
723 2 -16.3514 3.60309 -4.79833 12
724 2 10.8376 5.15958 8.3696 18
725 2 9.73715 -8.4009 -3.68429 13
726 2 -10.3035 -9.51392 0.454405 14
727 2 -8.39211 1.70108 4.81642 17
728 2 -4.02251 -16.7744 4.54948 11
729 2 9.67292 -5.90584 7.84195 15
730 2 1.96737 -13.014 -4.82567 16
731 2 2.36559 -1.9515 15.1556 13
732 2 0.0664526 13.7365 -6.88989 14
733 2 -10.1617 -11.0237 -2.47105 15
734 2 3.3694 6.62238 17.4005 10
735 2 -11.7876 4.75942 0.755185 17
736 2 -3.60525 6.52939 15.6722 15
737 2 -10.6726 4.79891 -3.80479 16
738 2 5.32929 -9.43577 3.33576 20
739 2 -1.80187 8.01347 9.45619 20
740 2 -0.84858 13.6411 -3.45787 20
741 2 2.9842 -11.0029 -7.12849 13
742 2 -6.15358 -0.295834 -7.35575 17
743 2 1.6737 -3.168 -7.76915 22
744 2 8.69942 2.30222 -5.98202 22
745 2 -2.64531 11.8494 14.1283 12
746 2 5.24058 0.78724 -13.4302 13
747 2 -4.31251 6.94142 -15.3881 8
748 2 8.25696 10.5262 -2.93885 16
749 2 -8.96536 -0.594363 15.2064 11
750 2 -11.064 9.12551 3.64427 14
751 2 9.74534 3.94225 -8.54619 11
752 2 2.17008 -4.32786 -11.0999 19
753 2 -14.0121 -1.17713 7.38682 14
754 2 11.6655 8.12954 4.28983 15
755 2 -6.99819 8.64926 11.0023 18
756 2 -3.90039 -6.42384 -4.78253 19
757 2 -4.48217 15.1866 7.15545 12
758 2 3.62126 -10.6699 11.4328 11
759 2 6.35494 -0.819995 9.57789 17
760 2 -16.5026 2.68498 1.68074 14
761 2 11.9418 -5.727 -3.58066 12
762 2 6.61531 -12.3741 -1.74466 13
763 2 6.73431 8.64011 7.39367 17
764 2 2.49579 -13.4749 6.84793 12
765 2 7.38414 -5.43186 6.18243 20
766 2 -6.62467 -1.75024 17.1342 9
767 2 13.2307 -2.35791 1.48199 13
768 2 1.51754 2.74612 8.15943 22
769 2 7.36149 6.99899 11.0752 17
770 2 -3.93772 7.06335 11.726 22
771 2 3.03467 13.851 11.8239 12
772 2 11.6207 -5.49463 1.63745 14
773 2 1.36348 10.8001 -7.69081 20
774 2 -11.0398 -4.86467 -8.54184 18
775 2 -8.56122 2.93966 10.6173 21
776 2 5.21898 -0.400084 -4.66282 21
777 2 -7.83795 1.06512 -4.90351 17
778 2 -10.1982 -1.72566 3.43342 20
779 2 -11.9655 -6.31418 -0.789334 18
780 2 11.745 -0.60264 6.85051 17
781 2 -4.47379 -6.27898 6.70783 18
782 2 -3.24294 1.4873 15.5625 12
783 2 4.9896 -3.83303 -12.7093 12
784 2 4.10947 3.03634 17.0465 13
785 2 1.45262 8.53014 12.3692 15
786 2 -10.0968 1.23949 1.96511 19
787 2 -2.11652 -9.17577 -6.10165 18
788 2 10.3168 -0.828753 -1.7047 21
789 2 -9.04708 8.32572 13.2629 13
790 2 -7.11985 -10.4115 1.33726 16
791 2 4.88253 -8.48915 -8.71686 11
792 2 4.99577 1.84648 -1.89217 20
793 2 1.70173 6.0262 14.0762 19
794 2 5.36384 -5.63551 -4.26031 19
795 2 2.42559 -3.08813 8.70542 22
796 2 -7.25616 -9.16763 4.54144 20
797 2 13.8891 2.72962 -1.53019 12
798 2 -6.53276 -7.73547 11.3002 16
799 2 6.54043 8.01064 -7.81227 17
800 2 -1.8016 -8.49162 10.2991 19
801 2 9.45961 -4.58323 -8.91815 12
802 2 0.710256 -14.953 -2.28168 15
803 2 11.9619 -4.00775 4.17716 11
804 2 -3.04828 11.1416 3.62029 23
805 2 2.40396 5.96023 -9.68127 23
806 2 -8.15379 -2.85469 -7.35417 21
807 2 -6.17435 -0.933078 7.40295 19
808 2 0.0198971 -6.41849 3.80315 19
809 2 -6.78558 -7.30642 0.121865 20
810 2 -1.02267 11.9856 6.6603 20
811 2 -8.99926 11.5278 4.8978 11
812 2 2.38706 0.377094 -5.17855 24
813 2 5.42632 7.94263 3.59114 18
814 2 2.55867 6.18416 -4.16114 22
815 2 -5.76728 3.58842 15.7822 17
816 2 -4.65163 4.48445 -16.3339 11
817 2 -15.3309 6.11577 1.25637 14
818 2 -1.09896 6.50576 6.77047 22
819 2 -10.0704 9.53257 10.0842 11
820 2 -8.24436 2.7924 -3.11218 22
821 2 7.4913 14.4319 1.03578 12
822 2 11.6304 6.91505 -4.20673 12
823 2 8.51953 -9.7285 -1.31533 15
824 2 -13.42 -1.87923 10.1929 10
825 2 5.61306 2.40485 3.29461 20
826 2 0.697356 9.2344 7.20905 20
827 2 -9.81251 7.8988 -9.78365 12
828 2 -6.29174 11.1891 3.08779 19
829 2 8.24514 -5.71403 12.9805 9
830 2 -11.463 -8.9344 -11.0981 9
831 2 4.50604 4.74078 -7.92069 21
832 2 10.8601 9.49607 1.41718 17
833 2 -13.5902 -4.12709 7.25268 11
834 2 1.86141 8.12723 3.95536 22
835 2 -5.22766 11.1186 -6.61319 15
836 2 -5.42236 11.2472 -2.20342 18
837 2 7.73563 0.553901 13.3256 18
838 2 -2.19318 9.6115 6.20428 21
839 2 11.7526 -4.75231 -6.30189 11
840 2 -3.10194 4.17281 13.6537 23
841 2 -2.34212 1.85348 11.488 17
842 2 -11.2332 2.56816 -1.53366 18
843 2 -3.68649 -6.90461 -13.0139 12
844 2 1.67983 -9.31557 -1.25105 23
845 2 2.40164 2.63923 -8.27394 22
846 2 13.7579 5.51487 4.46158 12
847 2 -1.07411 7.22398 12.6256 19
848 2 4.09493 -0.378206 -7.94048 23
849 2 -7.63613 -3.22059 8.53726 20
850 2 -3.01423 -4.35513 -14.3067 11
851 2 -3.46214 -7.71303 1.0992 24
852 2 -0.82429 -4.67505 -4.95876 20
853 2 6.02657 -12.46 3.3689 13
854 2 9.21986 8.78412 -5.3714 13
855 2 -6.26598 0.17001 -12.9435 16
856 2 -5.08806 12.1449 8.48752 16
857 2 -9.19129 -5.95985 -2.08025 17
858 2 -12.4438 -5.00933 -11.4281 12
859 2 4.23447 10.9968 -7.20442 16
860 2 -1.08139 12.3773 0.541425 19
861 2 -7.45346 -15.233 -0.206807 15
862 2 14.7077 1.04148 6.91765 10
863 2 0.787403 3.90139 16.482 15
864 2 -3.11421 -14.8235 -4.13812 14
865 2 -1.60529 -13.8681 1.91282 17
866 2 2.09284 1.38194 15.8712 16
867 2 6.18848 11.3491 14.4234 9
868 2 12.2123 1.27098 -3.44307 14
869 2 7.34393 5.50149 13.6972 12
870 2 6.98082 13.7794 -2.19977 12
871 2 -13.8452 1.49562 8.67362 12