ITEM: TIMESTEP
22000
ITEM: NUMBER OF ATOMS
1500
ITEM: BOX BOUNDS pp pp pp
-30.0 30.0
-30.0 30.0
-30.0 30.0
ITEM: ATOMS id type x y z Coordination
1 1 -2.15551 -14.0851 -4.46816 12
2 1 -0.266602 -10.5239 9.19275 19
3 1 -15.9595 6.20748 -6.41309 7
4 1 -13.7782 2.36526 -9.116 13
5 1 -1.71279 -7.82154 14.1676 16
6 1 -11.8407 -4.13642 -7.64998 16
7 1 -6.84007 3.94845 -1.30174 21
8 1 -8.6768 -12.63 4.99919 13
9 1 -14.7202 -3.15789 7.28689 13
10 1 -1.38749 5.48309 17.2992 14
11 1 1.92642 1.0956 10.5628 19
12 1 -1.06296 10.4582 18.6066 8
13 1 1.3586 -4.82673 3.90723 21
14 1 -4.62082 8.65007 -4.58489 19
15 1 -1.75597 2.91955 15.9525 17
16 1 9.69433 5.32837 6.09825 20
17 1 -3.92896 12.1172 -8.84816 11
18 1 0.461159 5.92118 -8.85148 22
19 1 -10.2563 0.447195 1.51464 22
20 1 -5.19138 -2.80552 -11.4572 17
21 1 5.11557 -14.0527 4.13987 6
22 1 1.31018 -2.49162 11.6271 21
23 1 7.93009 -5.34192 4.54237 21
24 1 -3.70771 -11.2009 -4.90827 19
25 1 1.22788 -2.94584 -3.59438 23
26 1 -1.84965 -3.80646 -14.102 10
27 1 -2.83528 6.65384 14.5412 23
28 1 -1.80369 -9.02136 6.80898 23
29 1 2.93749 -5.64995 12.3697 17
30 1 -8.25206 -3.24599 5.59457 15
31 1 -12.4962 0.647241 -1.36284 17
32 1 -3.30266 11.5911 0.507185 18
33 1 0.233932 3.58507 -6.39104 20
34 1 3.31886 2.95595 -13.6171 11
35 1 -5.08335 -1.80474 17.1445 13
36 1 -15.0329 6.61945 -3.05554 12
37 1 -0.844919 16.0337 9.46088 13
38 1 -11.886 7.65426 -2.8493 14
39 1 1.63723 12.9863 -0.906117 20
40 1 -1.17434 -13.5338 3.61281 20
41 1 2.65427 -7.83316 -7.21164 14
42 1 -7.89924 6.23505 16.5456 12
43 1 -12.7699 -7.0221 -6.31038 14
44 1 6.45816 -0.264335 6.57773 21
45 1 -8.1821 8.81184 1.04833 20
46 1 -6.34682 -10.6862 9.56432 17
47 1 -13.1666 6.33973 -5.48024 17
48 1 3.49881 5.77131 -3.66696 22
49 1 3.30213 5.90247 6.79221 20
50 1 3.28885 3.83691 9.80551 22
51 1 1.1688 -16.7798 3.11337 9
52 1 6.11609 4.45951 15.0463 17
53 1 0.207694 -1.62953 -6.52341 19
54 1 5.93437 -7.79437 5.03849 22
55 1 -10.1363 -4.72054 4.1525 22
56 1 7.71273 -4.07949 15.2482 5
57 1 -10.7934 -10.3992 6.68235 12
58 1 -8.51122 -2.32713 1.36645 19
59 1 11.8049 5.89611 8.67642 13
60 1 6.24819 -2.14611 -1.06595 20
61 1 1.12382 13.7515 13.8882 14
62 1 4.83853 0.868803 9.75059 21
63 1 -13.1918 -2.56787 4.22524 20
64 1 -5.44634 -4.54693 -6.22858 20
65 1 -8.34987 7.02644 -1.87748 19
66 1 -3.04235 3.78427 -6.64633 21
67 1 4.80797 0.699655 -1.46368 21
68 1 3.35487 -0.0690619 -3.47072 23
69 1 4.65462 -5.36114 4.56272 22
70 1 8.17726 -8.83968 6.60386 12
71 1 -6.6707 11.1534 -4.06289 16
72 1 -11.8994 9.57868 5.76968 14
73 1 -3.70985 11.2861 14.2467 16
74 1 -13.0026 -2.93464 10.1359 14
75 1 12.646 -1.10524 -5.14478 10
76 1 -11.7885 8.80004 13.0209 11
77 1 2.78507 -6.05315 -3.63847 20
78 1 -4.22512 7.46624 -11.4624 14
79 1 -6.00594 0.247421 -14.6851 16
80 1 -0.197219 11.7067 1.67915 22
81 1 -6.59792 3.64654 -6.94251 21
82 1 -1.84086 14.5 -3.65025 15
83 1 -3.41941 9.73619 3.65136 20
84 1 -6.59938 -4.8791 15.1261 13
85 1 -3.82842 -5.68754 -3.63028 26
86 1 1.23499 -4.21225 -6.26045 19
87 1 -1.40971 5.48443 9.63127 23
88 1 -10.2509 -4.96365 0.671238 20
89 1 11.7205 -3.20772 1.49885 15
90 1 -8.98594 -8.1156 -5.12566 17
91 1 6.33793 -6.04703 7.42471 18
92 1 -8.31366 5.91165 3.44443 20
93 1 -1.10028 2.61982 -9.04255 22
94 1 1.66578 6.74024 -6.06086 22
95 1 8.00651 -9.18484 2.14572 17
96 1 -4.9143 -16.2064 3.21234 11
97 1 -9.06493 -9.79445 -2.35144 25
98 1 -14.9551 2.6234 1.11347 19
99 1 6.58742 10.9385 7.64858 19
100 1 3.0949 5.45063 1.59493 22
101 1 -4.69595 12.2524 11.5052 16
102 1 -6.27103 9.49798 -1.73154 22
103 1 -0.901555 -5.49734 -10.9823 15
104 1 8.78475 -1.03477 14.7856 9
105 1 1.95662 8.95263 -3.53201 23
106 1 7.93535 -3.40013 -3.56183 22
107 1 -9.90406 10.1783 -4.81744 11
108 1 -4.54092 13.2916 8.53454 16
109 1 9.83967 0.53242 -7.28472 16
110 1 2.94886 -5.59575 6.75731 21
111 1 -7.94232 2.90062 -9.56471 19
112 1 3.30422 12.052 1.09392 20
113 1 5.99779 12.6258 -1.57769 20
114 1 -4.18722 13.0104 3.40733 18
115 1 -6.05514 -5.67819 -9.49509 21
116 1 3.35099 9.47386 9.18747 20
117 1 -15.5814 -4.6503 -0.764671 14
118 1 11.7031 -1.75403 -1.73286 15
119 1 0.103192 7.22208 12.5183 22
120 1 -1.46725 8.69034 -3.76068 23
121 1 1.36714 -4.64999 9.47372 19
122 1 -12.073 -7.47553 2.21474 19
123 1 -8.39886 -7.16563 3.26709 22
124 1 5.55297 -11.6323 1.75544 15
125 1 -8.34087 8.76131 -9.33865 14
126 1 -3.27106 9.68186 -1.88861 23
127 1 10.1303 8.81982 -2.31453 19
128 1 -4.26462 -10.076 14.2465 12
129 1 -8.36412 3.18311 0.620281 21
130 1 2.92929 15.6591 5.06208 14
131 1 3.8466 5.46862 12.9359 17
132 1 -0.733052 16.901 5.07671 10
133 1 -5.12899 1.21402 -6.92061 21
134 1 10.1375 -7.89874 4.68442 12
135 1 -10.4261 -4.55941 9.54218 17
136 1 -13.7704 3.91375 4.32655 22
137 1 -9.21888 -10.12 9.93109 15
138 1 -15.7527 0.991063 -1.5602 17
139 1 -6.14723 -15.0859 0.413142 16
140 1 -5.24369 -4.68918 -1.13834 22
141 1 4.31925 -8.7641 2.17633 21
142 1 -3.124 14.8061 11.1442 16
143 1 -9.80193 -1.69634 9.56689 16
144 1 -10.2602 0.956754 -3.94446 19
145 1 -8.2129 6.29481 -8.31081 18
146 1 -14.705 -7.5239 -4.42523 11
147 1 -10.6635 1.59493 11.5556 15
148 1 -3.43427 -1.13575 10.3354 21
149 1 -0.914083 -7.22547 9.29185 18
150 1 11.8028 2.9273 1.45429 23
151 1 4.85736 2.62185 -3.91709 19
152 1 9.42395 5.34605 14.9307 10
153 1 -4.11513 5.27272 -13.2354 19
154 1 0.545961 -0.109425 -9.37348 19
155 1 -10.0163 -1.8418 -7.62495 16
156 1 -6.93137 11.6761 -7.99269 12
157 1 -9.58203 10.3456 3.89519 14
158 1 4.87213 -2.75071 12.419 18
159 1 -2.57155 -6.86143 -8.82757 21
160 1 -6.04371 10.3651 -10.9642 11
161 1 0.969273 11.6463 -8.27942 14
162 1 -10.3733 -0.949038 3.65367 20
163 1 -5.27231 9.05002 6.57555 19
164 1 -0.168863 -8.90471 -7.54729 15
165 1 -7.87399 -11.404 1.72142 17
166 1 7.82421 -10.9145 -0.320221 14
167 1 2.53605 -6.10764 1.16055 19
168 1 6.01496 13.6203 -4.57035 14
169 1 -1.72948 8.82331 1.61668 21
170 1 -13.5359 2.50568 7.92392 19
171 1 0.651784 5.24918 14.86 23
172 1 13.608 3.43667 4.12697 18
173 1 1.68446 6.47572 9.43132 21
174 1 -10.6843 3.28947 6.37466 18
175 1 -15.7305 -2.53939 2.09329 14
176 1 7.44233 0.486745 -8.74656 18
177 1 3.3517 0.0243299 12.8303 19
178 1 9.76078 10.7022 -5.3742 10
179 1 -0.713099 -7.63048 -1.03902 23
180 1 -7.66189 -4.26288 -13.2783 11
181 1 5.71843 3.10956 -8.79783 20
182 1 -13.7534 1.79759 11.146 16
183 1 -4.58235 -17.5541 0.0887146 11
184 1 -16.3335 -5.22435 -6.59194 9
185 1 -2.2298 16.3606 -0.804122 10
186 1 -0.383895 1.81065 -13.5431 15
187 1 3.64008 5.43591 17.0395 14
188 1 14.8024 2.8679 1.1783 13
189 1 -8.60641 -5.9966 6.39113 22
190 1 3.70237 -2.31745 -12.7197 10
191 1 -6.60247 -10.4711 4.39786 20
192 1 -9.77301 -0.399524 -10.122 15
193 1 -14.4364 -5.97964 -9.23886 13
194 1 9.77201 -3.37064 9.4151 15
195 1 4.67371 -5.17384 10.05 22
196 1 -11.4377 -8.49077 -12.2326 9
197 1 1.33561 -2.57454 7.04831 19
198 1 -2.63477 10.0734 -10.9278 12
199 1 3.5147 9.74285 3.44067 19
200 1 -10.2684 -7.21872 8.66491 20
201 1 -0.114903 11.2972 6.83079 20
202 1 -9.14932 1.11623 15.7731 11
203 1 -9.26926 -11.1216 -5.15513 14
204 1 -6.85959 -1.81576 -6.60878 21
205 1 -7.09844 -5.84975 -4.22416 20
206 1 -1.25334 -10.8904 2.02585 22
207 1 8.16356 2.3542 6.9078 23
208 1 -5.42632 -2.96179 -3.88592 24
209 1 -13.8679 -0.880536 12.9389 10
210 1 -1.02824 -16.7078 0.492832 15
211 1 -5.73655 -13.2846 3.51428 19
212 1 -3.16516 17.1294 2.76725 10
213 1 0.865102 3.78876 -11.2317 21
214 1 -8.0298 -3.52126 -8.74269 17
215 1 -2.49315 -8.26268 1.09897 23
216 1 -8.16929 -9.7301 -11.2366 9
217 1 -11.5014 4.06225 -11.5838 12
218 1 6.27578 5.38309 7.10415 24
219 1 -4.70445 2.87356 -9.50098 22
220 1 -4.88155 6.56933 -7.37816 19
221 1 -3.77585 -3.96967 9.44428 18
222 1 -8.88869 12.0015 -1.57634 11
223 1 4.57205 12.1824 9.55586 15
224 1 11.4356 2.49588 6.3842 20
225 1 -7.93208 1.75342 10.1806 17
226 1 -0.750611 -4.41782 13.9682 19
227 1 -8.89626 9.79663 11.4833 12
228 1 0.65194 -3.47177 -11.6635 14
229 1 4.02046 -11.1874 4.57615 17
230 1 -7.01579 0.777629 17.9055 10
231 1 -9.94387 -7.28632 11.859 9
232 1 10.0422 -8.50648 -0.735052 14
233 1 4.47772 -3.47616 -3.75672 20
234 1 6.20383 -8.06513 -0.444714 22
235 1 -8.10628 -8.59641 7.03476 21
236 1 -11.0535 9.99164 0.517828 11
237 1 0.532811 0.255854 13.3126 16
238 1 5.48161 8.47273 12.7885 19
239 1 -13.4392 -5.54868 4.3546 14
240 1 7.66723 -8.77346 -3.36502 14
241 1 -7.91204 8.27771 8.70299 18
242 1 -9.58846 8.16682 6.09171 19
243 1 3.68515 -8.45477 12.0673 14
244 1 6.32565 -2.85535 9.6046 20
245 1 -0.140786 9.43108 9.81977 23
246 1 -7.03206 -1.62504 -1.47477 22
247 1 -3.90247 2.40671 17.8013 12
248 1 -3.52531 15.3822 4.86913 17
249 1 -9.24118 7.27804 -4.93531 17
250 1 -10.0584 5.75912 14.2966 18
251 1 -12.9086 7.52014 7.63091 13
252 1 -3.87387 -1.72382 -6.78395 22
253 1 -11.3638 9.26967 9.4251 14
254 1 8.27151 0.616749 9.18758 17
255 1 -11.9519 -10.2039 3.18113 11
256 1 3.62216 -8.83089 6.43881 18
257 1 -12.4732 7.24531 -0.52324 14
258 1 -2.54836 -2.68456 16.0872 18
259 1 3.82368 -8.74117 -4.73844 17
260 1 -7.38955 -1.08352 -12.2855 17
261 1 6.04064 -2.37206 -10.4133 16
262 1 6.00624 15.6936 4.1501 14
263 1 -12.1499 -2.09856 0.828617 20
264 1 5.00284 -5.21172 -10.9109 9
265 1 -2.85609 -15.8443 -1.89148 15
266 1 -10.8074 -7.09715 -1.69003 17
267 1 -5.67967 -4.66307 4.15876 21
268 1 10.1078 3.5751 -0.819018 18
269 1 -12.8658 -0.893399 -9.12939 15
270 1 -15.2893 -2.25283 -5.37023 17
271 1 -7.71908 5.76549 11.0659 16
272 1 -6.24916 10.6447 9.32155 15
273 1 -1.57327 8.60454 7.27818 21
274 1 9.04609 -2.26997 -0.108369 22
275 1 9.74265 -0.121601 -4.52135 21
276 1 -6.88344 5.93787 0.942472 22
277 1 0.821148 -8.58814 -4.36832 19
278 1 -0.132578 6.12229 6.7162 20
279 1 -14.3744 0.941258 -4.33947 18
280 1 2.28855 -15.6465 0.17679 10
281 1 11.9334 -0.00201833 9.01593 13
282 1 -12.6685 -3.53364 -4.88291 16
283 1 -9.00418 -8.26504 0.676684 21
284 1 -6.64146 16.4995 3.81616 7
285 1 -11.6933 -8.93631 -3.5545 16
286 1 -13.3744 5.54044 1.89355 19
287 1 1.79666 14.5885 -3.85916 18
288 1 7.45401 13.0573 5.0356 17
289 1 -15.3377 -6.20025 1.63422 9
290 1 -2.35936 -8.48507 -2.9854 20
291 1 -15.6951 -1.2001 10.2191 10
292 1 -16.1763 3.38234 -3.66003 16
293 1 -4.93424 -9.274 6.88975 19
294 1 -6.14755 -10.1569 -0.950964 24
295 1 2.60314 8.9584 -8.42496 19
296 1 -10.158 4.54402 -6.53619 20
297 1 -3.59169 -14.6008 5.98431 13
298 1 12.1758 8.88583 6.68471 13
299 1 -3.10392 2.30214 9.42261 23
300 1 -8.94511 1.93766 4.09755 19
301 1 -7.91078 3.1991 7.80226 18
302 1 -6.55884 -14.7701 6.49091 10
303 1 -0.701861 -5.70303 -4.25332 20
304 1 6.59723 -7.55949 -6.36813 11
305 1 -4.15815 -8.9002 10.4401 20
306 1 -12.078 1.12344 14.5903 12
307 1 -5.90545 -5.75528 7.30857 16
308 1 5.10876 -10.1711 -2.57792 17
309 1 -2.8979 -8.24688 -11.5435 10
310 1 -1.97308 -1.56146 13.2119 20
311 1 1.27093 -4.59777 -0.792338 22
312 1 -9.02091 1.20635 -12.7473 14
313 1 1.38941 -14.2331 4.8139 14
314 1 -1.81691 14.258 1.60211 20
315 1 -11.1554 -2.2695 14.7428 7
316 1 -3.77089 -4.84913 13.2396 20
317 1 6.37944 -6.23595 12.5844 12
318 1 8.28368 3.00029 1.67749 21
319 1 -9.93267 5.98487 8.18797 19
320 1 1.46708 2.66952 -3.79941 20
321 1 2.84854 -10.6469 9.84215 12
322 1 6.96946 9.61595 -0.976131 20
323 1 -4.20548 6.32317 11.8051 17
324 1 1.73886 8.91261 1.33959 18
325 1 2.88701 -1.98066 9.16137 19
326 1 -3.76145 -13.0925 -1.7821 20
327 1 -3.65644 15.9562 7.92718 11
328 1 -6.57521 -11.9938 -3.7365 17
329 1 1.27286 7.95239 17.6934 11
330 1 -5.42929 0.602174 8.99732 19
331 1 -6.99467 -7.18541 -1.82769 25
332 1 -10.5134 6.85925 11.4614 17
333 1 -10.606 -5.61663 -4.29543 21
334 1 -13.6387 6.2891 14.5735 7
335 1 -6.03898 -8.78224 -9.72184 16
336 1 1.87261 -5.80657 -9.26139 13
337 1 -8.91811 -14.2498 -3.77519 12
338 1 -6.35455 -2.87281 10.1223 13
339 1 9.78557 -0.376527 6.2326 21
340 1 -5.1544 -1.8 14.1747 19
341 1 -12.153 5.1587 -8.70994 15
342 1 8.05908 6.46022 -0.731449 21
343 1 -9.27708 -14.7978 -0.619594 10
344 1 0.0592146 5.96759 -3.58968 24
345 1 -0.474622 17.157 1.50336 12
346 1 -2.81591 9.68832 -6.99292 16
347 1 -1.54221 12.0148 15.7935 15
348 1 -17.1624 -1.74134 -1.65135 9
349 1 6.14879 10.5884 -6.43365 14
350 1 -6.20926 -10.2484 -6.37745 16
351 1 -1.17346 -11.1737 -3.75759 20
352 1 -2.33975 2.76817 -11.6565 21
353 1 -11.2894 7.90132 2.75216 18
354 1 6.61428 7.25877 15.9415 13
355 1 3.58478 9.96498 -0.483016 23
356 1 5.71479 8.47147 1.53173 21
357 1 -10.9462 7.81846 -7.79369 14
358 1 -1.64988 6.27419 -6.30598 22
359 1 -0.668343 -7.39028 3.85383 26
360 1 -16.9956 -1.81927 4.83659 10
361 1 -4.57291 -0.420204 -11.485 21
362 1 8.81564 8.47606 1.02192 18
363 1 2.60118 -7.44939 4.07557 21
364 1 9.84544 5.79895 1.9853 22
365 1 3.39191 -1.61567 -6.07379 21
366 1 0.336713 -10.3875 -1.29724 17
367 1 -1.78855 -10.4185 12.2364 14
368 1 0.950349 -8.82865 12.1419 15
369 1 -11.0351 1.98323 -9.3366 18
370 1 -1.31597 -11.9759 -6.70225 14
371 1 -2.73982 5.35185 -9.34937 20
372 1 0.207522 -2.40122 16.6958 12
373 1 -12.5744 1.7113 2.0273 18
374 1 8.62419 -2.54414 -9.17986 14
375 1 12.9293 -0.150718 1.3837 17
376 1 -4.82214 8.62393 0.911994 22
377 1 -2.12336 -8.1752 -5.90235 22
378 1 3.43043 3.95494 -6.41841 22
379 1 6.77423 -0.298291 -4.09363 18
380 1 -9.99369 3.57764 16.6268 11
381 1 2.53203 17.1495 2.82502 11
382 1 -8.31057 -6.61411 -11.1764 17
383 1 -7.95419 -0.668064 11.9778 15
384 1 -7.27069 15.2557 7.11007 8
385 1 -10.4006 -2.42022 -12.6996 10
386 1 -17.9224 2.4641 2.98532 10
387 1 -6.61391 -8.95301 12.2045 16
388 1 0.0455515 9.07963 -6.31408 21
389 1 11.6932 6.63317 3.98192 16
390 1 -10.4972 -11.9442 0.589948 15
391 1 -2.98385 -6.29255 6.82183 18
392 1 -5.81898 8.72141 11.7569 18
393 1 -2.18552 -4.86416 -6.50492 20
394 1 1.55031 6.62125 3.94382 20
395 1 11.569 0.691705 4.06618 21
396 1 3.73101 16.3578 -5.08118 9
397 1 -2.82815 -11.9775 5.18383 19
398 1 -5.32875 3.64822 10.3704 18
399 1 5.17609 6.15661 10.1533 21
400 1 -5.91397 3.72771 -15.3106 12
401 1 -8.92637 -2.90314 -4.67067 19
402 1 -0.694665 -5.75693 16.9638 12
403 1 6.05837 11.666 11.5146 13
404 1 6.50234 8.55488 -8.27967 13
405 1 -6.81975 9.19444 -6.52408 17
406 1 -4.9884 12.5364 -1.78844 15
407 1 11.296 4.33621 12.1729 10
408 1 11.843 2.1052 -4.59403 13
409 1 -12.2159 -3.60884 -1.71402 18
410 1 -1.86593 1.42814 12.7506 18
411 1 -3.09301 11.5426 -4.05902 20
412 1 2.36777 -13.0402 -1.82395 15
413 1 3.18422 -3.51646 -8.43134 14
414 1 -4.88191 13.3851 -5.58191 11
415 1 -10.9315 -4.94678 -13.0792 11
416 1 -0.664578 -12.7865 6.92521 18
417 1 -17.113 0.0930287 1.47854 11
418 1 -8.71433 1.00033 -1.53363 20
419 1 -4.21748 -5.27857 17.5645 11
420 1 1.8219 7.02109 -0.866524 23
421 1 4.55925 -5.32421 -6.64444 19
422 1 1.08134 -6.75371 14.7484 12
423 1 8.00101 0.746716 -1.17358 21
424 1 -11.7302 3.32884 -0.127562 21
425 1 9.5737 -6.34233 1.78214 19
426 1 3.10729 8.06074 15.0859 18
427 1 -3.14537 -0.163489 -9.32582 23
428 1 2.23844 15.3896 8.57149 12
429 1 6.89521 6.25708 -9.51704 15
430 1 2.24099 0.230661 -11.4708 18
431 1 -5.82271 -8.6425 -3.92954 21
432 1 -13.5238 -6.8416 -12.4994 10
433 1 13.2508 5.89739 1.31979 14
434 1 12.7223 6.35696 -1.97299 11
435 1 8.16744 -4.89184 -6.01477 15
436 1 2.10879 -11.7431 2.47159 16
437 1 6.89999 9.51252 4.40334 22
438 1 -12.21 4.05117 12.7775 15
439 1 8.0732 6.35458 4.39 23
440 1 13.2411 -0.243739 6.61224 15
441 1 8.82474 3.53084 -8.74193 12
442 1 4.1274 2.42244 16.5692 14
443 1 -1.38034 -3.50325 11.0065 19
444 1 6.47754 3.80771 4.44327 25
445 1 -0.834483 0.430872 17.8435 11
446 1 10.7683 0.822754 -0.901818 20
447 1 10.0311 2.69467 9.76798 22
448 1 -12.3381 -0.643909 -6.28234 19
449 1 11.6113 8.21916 -0.00133666 14
450 1 11.41 -5.11933 4.24427 16
451 1 -0.345723 -5.68619 1.71341 21
452 1 8.45841 6.8609 12.7647 13
453 1 1.81237 11.4755 11.4916 19
454 1 4.75715 2.62704 7.04529 22
455 1 -6.36171 11.6964 1.45891 15
456 1 11.7152 7.69465 -4.98566 11
457 1 5.40484 1.14711 -11.8874 12
458 1 4.1695 15.2924 -2.05342 14
459 1 -2.97793 -10.6912 -0.588015 22
460 1 -16.0627 2.17067 9.72281 10
461 1 -9.96831 7.14213 -10.8092 11
462 1 -6.61756 -15.6844 -2.2714 13
463 1 -8.74272 1.16597 -6.53261 24
464 1 -16.8305 2.94477 -6.91104 10
465 1 7.6504 -6.23268 9.73531 17
466 1 8.37768 8.38142 6.96831 20
467 1 -1.88545 -6.27747 11.531 17
468 1 -15.0737 -3.00577 -8.22272 14
469 1 0.014035 -5.66486 6.29722 23
470 1 -6.34352 9.38415 15.1306 11
471 1 3.64677 9.80261 -6.18744 19
472 1 5.04956 1.18825 -6.45914 19
473 1 1.87851 -11.1163 -6.27675 13
474 1 11.0765 -3.05163 6.7043 17
475 1 10.1794 12.7087 3.36037 12
476 1 10.567 -5.14989 -0.805047 15
477 1 -3.61295 8.17321 9.05938 18
478 1 -13.1291 -4.17558 1.7422 19
479 1 -15.173 -4.77576 -3.3911 15
480 1 7.67312 2.00088 15.4603 13
481 1 -5.07588 -7.36847 15.0937 14
482 1 5.43789 10.5822 14.928 10
483 1 -6.99985 13.0893 4.94092 14
484 1 6.60212 5.6715 1.61219 21
485 1 4.61596 8.46047 5.97246 18
486 1 2.46079 6.38653 -12.6446 12
487 1 -12.1598 0.780644 5.31758 19
488 1 4.38236 4.22112 -11.3355 16
489 1 -2.03247 -2.56365 -4.06691 21
490 1 5.96897 -6.57976 -3.1915 24
491 1 8.40533 5.8979 9.08251 19
492 1 4.76348 6.68579 4.06521 22
493 1 10.3609 8.59881 8.84974 10
494 1 -3.18541 0.666919 15.2799 18
495 1 0.858246 4.57397 11.6589 20
496 1 -1.1953 -0.893817 -11.3398 21
497 1 -2.12531 11.2002 9.38236 22
498 1 1.9552 0.30674 15.9868 16
499 1 10.9894 11.8057 -2.25204 9
500 1 5.14241 -13.6007 -0.984158 11
501 1 -4.99304 3.07583 -4.02725 22
502 1 4.73007 13.0536 4.17054 19
503 1 5.75531 14.6261 1.16719 15
504 1 -0.459553 -0.957655 9.67437 21
505 1 3.91904 11.7991 -3.00059 21
506 1 6.91124 11.6877 1.6581 18
507 1 -3.18935 -14.2578 1.3364 21
508 1 -2.33966 -0.476097 -14.3933 13
509 1 -9.80988 9.44946 -1.86796 18
510 1 7.29269 -5.4236 -8.68828 10
511 1 9.97433 3.50753 4.07433 21
512 1 9.46918 7.19692 -6.93624 11
513 1 8.95925 13.939 0.130356 12
514 1 -3.79427 6.15427 6.64108 20
515 1 -9.93624 6.11633 0.595796 21
516 1 4.82531 6.89967 -1.3288 19
517 1 -4.93218 -11.9323 11.8675 13
518 1 -6.02716 5.40467 -10.8092 21
519 1 1.32628 12.6756 8.70671 18
520 1 2.63048 3.18203 14.3154 19
521 1 1.30732 16.0775 -0.586879 14
522 1 8.94437 15.267 2.96406 9
523 1 11.4667 -3.88662 -3.93464 11
524 1 -15.9463 -0.0873569 7.43063 13
525 1 0.0121697 -10.5916 4.50419 22
526 1 -4.6576 -2.49001 -14.0346 13
527 1 -0.214786 2.4289 10.0543 18
528 1 4.51254 -4.82645 -0.711682 20
529 1 3.8195 14.5445 12.0672 11
530 1 -16.0 2.33578 6.06611 13
531 1 3.79969 -10.8499 -0.0221173 19
532 1 5.38399 9.22762 -3.27175 22
533 1 1.18422 -8.75124 1.65072 21
534 1 -3.47058 12.1543 6.1457 19
535 1 0.753706 -1.27515 -14.1004 14
536 1 -2.45255 -8.1328 16.635 10
537 1 1.76173 12.3865 4.64563 18
538 1 -4.11007 3.55955 14.1001 20
539 1 -11.8729 -7.17116 -9.92884 16
540 1 1.80193 0.70235 -6.45494 22
541 1 -3.69344 14.715 14.0056 10
542 1 4.22123 -12.4126 -4.29143 10
543 1 0.693572 -8.38775 6.83139 22
544 1 1.11118 -13.4468 -4.85867 12
545 1 -11.5374 -2.0619 7.0449 19
546 1 -1.67847 0.833702 -6.54958 23
547 1 -7.10098 -12.5891 -1.11001 19
548 1 -13.1477 4.8611 10.0549 13
549 1 10.3595 4.58951 -6.1349 13
550 1 -7.20213 5.9413 6.46923 18
551 1 -14.2144 7.35714 4.45259 14
552 1 6.2896 -2.20719 4.32165 22
553 1 -1.6223 12.7297 -1.1727 19
554 1 7.21122 4.49185 -6.64652 18
555 1 8.70834 2.76654 -3.68381 19
556 1 -15.6094 0.338551 -7.265 15
557 1 -14.5595 -7.71294 -1.30216 11
558 1 2.99222 12.5589 -5.89929 17
559 1 -4.632 0.953501 12.0758 21
560 1 -6.42335 0.697772 14.4042 18
561 1 -0.725337 -3.24839 -8.98401 21
562 1 -6.22671 5.96713 -4.29057 20
563 1 4.88479 14.3621 7.35098 14
564 1 -9.56818 -3.29887 11.993 11
565 1 4.13759 8.02973 -11.0121 12
566 1 -0.936723 -13.15 0.192612 18
567 1 4.16575 6.19488 -8.84053 20
568 1 -5.78309 -7.44606 -12.9422 11
569 1 -2.2797 4.2671 12.2496 21
570 1 -0.813364 9.20576 -8.8027 19
571 1 -8.67713 -4.02448 -1.69132 21
572 1 4.51981 -3.18216 1.75418 22
573 1 -6.19545 -8.59996 1.70113 23
574 1 5.01136 7.01204 -5.694 17
575 1 6.18311 -6.37854 2.15934 23
576 1 -8.86198 8.54737 14.2899 15
577 1 9.32219 -6.14293 7.02677 15
578 1 13.1622 -2.19389 4.09682 16
579 1 5.21489 -8.4519 8.78555 17
580 1 -0.0456141 10.0868 13.6038 20
581 1 -4.48606 5.41937 16.4354 16
582 1 -5.30388 -13.3712 8.87439 13
583 1 7.81983 0.991855 3.95029 23
584 1 2.82009 11.2511 13.7368 17
585 1 -16.2813 5.52992 2.36507 11
586 1 2.84864 -7.75815 -1.38162 24
587 1 3.46725 11.3248 6.75901 21
588 1 5.31619 -0.52312 14.9622 13
589 1 -1.59694 12.4433 12.7005 20
590 1 -3.12374 -11.2127 8.2172 18
591 1 -10.4191 -1.58606 -2.15077 18
592 1 1.27145 2.86568 16.5376 14
593 1 0.300358 9.66715 4.55514 22
594 1 -7.35055 -7.31307 9.75868 18
595 1 10.2549 0.691631 11.8896 15
596 1 7.7497 -2.99191 7.40383 20
597 1 6.72982 3.39788 9.24366 18
598 1 -4.553 6.93737 -1.76201 23
599 1 -4.89308 -7.4737 -6.84659 21
600 1 -6.23378 2.60048 -12.4591 23
601 1 -8.25565 -2.12891 15.3826 13
602 1 -1.25936 14.0992 7.31281 18
603 1 15.5795 2.44253 6.65444 10
604 1 0.72231 15.0874 -6.39314 11
605 1 -0.0946211 7.99907 15.7095 19
606 1 2.80839 8.23513 11.8192 20
607 1 4.49488 -0.122803 -8.74736 21
608 1 -4.48611 -10.9968 2.16731 21
609 1 -6.81311 0.110298 -4.15332 23
610 1 13.2113 3.28834 8.92435 12
611 1 -3.92205 -3.25066 -9.01799 19
612 1 -4.15973 -7.40455 -0.90468 22
613 1 14.7816 0.637341 3.86667 13
614 1 2.42439 -3.17455 14.6528 15
615 1 -9.36956 -6.06992 -7.92826 18
616 1 2.00225 14.2613 2.06963 18
617 1 -5.49349 -2.21496 7.26764 22
618 1 -10.5117 3.80862 3.18743 21
619 1 10.6715 5.13391 -3.14155 18
620 1 2.38649 2.74526 -8.762 23
621 1 -8.20466 11.0983 6.79787 12
622 1 -2.84993 5.31791 -16.1596 7
623 1 7.52958 -3.2964 1.79317 20
624 1 -13.0728 3.18677 -3.28597 21
625 1 9.6966 11.02 5.73023 14
626 1 -11.8155 -9.45329 -0.311529 16
627 1 5.13761 2.94789 12.2028 19
628 1 -12.4521 2.19695 -6.70274 20
629 1 -11.148 0.887427 8.67562 15
630 1 -3.16408 5.55824 -3.92295 22
631 1 10.1285 -2.4025 -6.59019 15
632 1 -8.93478 -9.20382 -7.99581 10
633 1 9.17202 -6.3615 -3.27507 15
634 1 -15.2782 4.95564 -0.875576 15
635 1 -14.2096 -1.43578 -2.48092 21
636 1 -9.35421 -10.0231 3.62427 21
637 1 8.28481 -1.83021 11.3662 18
638 1 4.55786 -3.16368 6.70473 22
639 1 -15.0042 5.20423 7.39085 12
640 1 1.78429 16.2714 11.5506 10
641 1 0.921186 8.99742 -10.842 14
642 1 -1.29788 12.904 4.23469 19
643 1 8.00427 11.5333 -3.64518 15
644 1 1.66611 10.8826 16.3039 15
645 1 1.98664 -7.49415 9.22807 25
646 1 -1.278 12.2603 -6.76883 17
647 1 -7.05792 3.51849 18.2663 9
648 1 -3.76724 -5.18494 -11.7555 19
649 1 -15.2184 0.378443 3.60852 17
650 1 -2.07198 -12.8495 10.0683 10
651 1 6.64535 0.411966 12.5173 18
652 1 0.172567 -15.6349 -2.58677 14
653 1 -11.6722 6.14862 5.02635 21
654 1 13.25 3.30308 -1.86632 16
655 1 -6.41534 9.97546 3.8012 18
656 1 -8.71624 3.49573 13.2051 18
657 1 -3.2218 -9.78657 -8.59174 16
658 1 -3.83339 -5.44379 1.66482 23
659 1 7.31014 -11.6032 4.50714 8
660 1 -7.31557 7.56498 -12.5342 11
661 1 9.95147 -0.0224084 1.8434 20
662 1 14.1276 5.47569 6.54615 12
663 1 13.4945 0.986185 -1.50045 13
664 1 -8.73071 4.51756 -13.3764 13
665 1 -8.20667 -11.9787 7.82205 13
666 1 7.12396 5.9746 -3.58549 14
667 1 6.54263 3.80084 -1.11818 22
668 1 -8.14342 3.12392 -4.15768 19
669 1 0.424225 11.7609 -3.73197 23
670 1 -12.0667 -4.67651 6.89965 18
671 1 1.59885 8.42001 7.07488 21
672 1 -1.59846 -16.4016 3.80241 12
673 1 0.11827 9.87967 -0.899811 23
674 1 -0.821445 16.5681 12.8294 8
675 1 -6.54782 5.71898 13.7307 20
676 1 6.22216 0.026868 1.44271 21
677 1 -6.12863 -5.93162 11.8861 15
678 1 2.25704 -11.8207 7.09053 15
679 1 -7.57294 0.633551 6.3785 18
680 1 6.87294 8.76856 10.0372 16
681 1 7.6255 -5.429 -0.46011 22
682 1 -13.0785 -3.91513 -10.576 13
683 1 -0.300009 5.17626 -13.5807 14
684 1 -17.47 0.566397 -4.05984 12
685 1 11.1446 11.0156 0.608004 12
686 1 -2.47385 9.17382 12.3474 22
687 1 -10.8124 -12.0502 -2.53301 14
688 1 -5.23424 7.11071 3.67135 19
689 1 8.62394 3.42169 12.8861 15
690 1 -5.55141 -7.12035 4.29826 21
691 1 6.81921 -1.65166 -6.47402 22
692 1 -3.39687 -9.29465 4.43743 23
693 1 -3.75345 2.65968 -14.6155 17
694 1 -6.50711 0.132657 -9.06152 22
695 1 -7.09262 -5.33429 1.30895 22
696 1 -10.7431 4.95598 -3.01611 18
697 1 -3.16745 8.96977 16.6415 16
698 1 8.84852 -4.44075 12.4794 11
699 1 -11.0475 -7.57306 5.66108 18
700 1 9.28776 -2.1122 3.86521 24
701 1 -1.18761 6.8893 -11.6921 18
702 1 10.0012 8.94738 4.17152 17
703 2 -11.309 0.0563897 -9.33132 17
704 2 -4.57983 6.83356 -4.0399 21
705 2 -3.59576 -1.66044 -10.5734 22
706 2 -4.45003 1.57598 13.8389 20
707 2 -14.935 -6.53936 -5.9808 12
708 2 1.64559 1.39815 14.4704 20
709 2 -7.35322 -10.974 -2.33992 21
710 2 -11.6956 3.49407 -7.81401 19
711 2 0.498365 14.5625 9.1543 13
712 2 -11.8329 4.21348 4.75181 22
713 2 7.99788 3.07669 3.65825 20
714 2 -5.16802 1.1859 -4.74229 25
715 2 -12.8845 -8.23037 -4.87166 15
716 2 -8.63342 1.12196 0.835605 22
717 2 -6.7669 -4.58596 5.77271 19
718 2 4.58348 3.68465 13.8835 18
719 2 8.37431 0.883764 -3.6056 17
720 2 -0.646612 -16.9479 2.2203 11
721 2 4.90306 0.81237 6.48424 23
722 2 -6.62817 9.65061 1.67053 19
723 2 -17.221 4.9384 -6.57192 6
724 2 10.0366 5.96161 8.0155 19
725 2 9.32504 -8.12171 -2.5002 14
726 2 -12.1227 -9.31583 1.5384 13
727 2 -8.90569 2.16337 6.10661 19
728 2 -5.80358 -15.047 4.68831 12
729 2 10.1242 -4.75762 7.93072 15
730 2 2.77051 -12.5889 -5.42809 10
731 2 1.70097 -1.58883 15.4962 17
732 2 -0.11286 14.7411 -4.47425 12
733 2 -11.0772 -11.0564 -1.00915 14
734 2 2.72964 7.21519 16.8145 15
735 2 -9.8376 4.23912 1.14266 21
736 2 -3.15452 6.9834 16.5571 13
737 2 -9.81324 4.13418 -4.66289 19
738 2 4.26396 -8.68556 4.57219 20
739 2 -0.690803 8.83752 11.6792 23
740 2 -2.10209 14.7794 -1.89805 14
741 2 4.52265 -10.3102 -4.22958 13
742 2 -5.61184 -0.873102 -7.57647 22
743 2 1.95031 -2.25941 -6.97281 21
744 2 10.4886 3.62602 -4.36418 17
745 2 -2.47941 12.9595 14.463 17
746 2 2.41901 4.36095 -12.3613 15
747 2 -5.92863 6.35653 -12.5537 16
748 2 9.90252 10.4195 -3.5052 14
749 2 -9.675 -0.75827 15.673 12
750 2 -12.2844 8.207 4.34624 16
751 2 9.02784 3.98494 -7.01712 15
752 2 0.534796 -4.50678 -9.6881 17
753 2 -15.6757 -1.6247 8.50524 11
754 2 11.3779 7.98857 5.1311 18
755 2 -7.76405 9.92283 13.3475 10
756 2 -3.90869 -7.54961 -3.93474 20
757 2 -5.31935 14.991 8.02396 14
758 2 2.61545 -9.97468 11.7334 10
759 2 6.7559 0.679407 10.2425 22
760 2 -15.5573 2.97789 -0.723732 16
761 2 10.5968 -5.21422 -2.63822 14
762 2 5.64752 -11.9255 -0.0978278 15
763 2 6.60108 9.16395 6.62653 20
764 2 -1.43425 -12.1364 8.43598 15
765 2 7.07462 -4.37589 8.74433 20
766 2 -7.23219 -0.189226 16.0554 14
767 2 12.8088 -2.03355 2.31134 17
768 2 1.5725 3.05684 10.3566 19
769 2 7.29782 7.81 11.6488 14
770 2 -6.12752 6.88076 12.2106 18
771 2 2.70025 13.0658 13.0504 15
772 2 10.9295 -4.99007 2.3757 18
773 2 -0.420874 10.6332 -7.34871 18
774 2 -12.6043 -6.63689 -8.27064 15
775 2 -10.4332 3.22487 12.5385 18
776 2 5.05735 0.801429 -4.35575 20
777 2 -8.4676 0.913628 -4.4678 18
778 2 -11.8004 -1.41543 5.01909 17
779 2 -12.7745 -8.47621 -1.81262 14
780 2 11.4956 0.626733 6.37576 18
781 2 -4.97015 -7.19116 6.49211 20
782 2 -2.48104 1.5093 17.0132 14
783 2 4.59627 -4.0036 -12.2599 8
784 2 2.74795 3.85785 16.5191 16
785 2 -1.75122 10.1267 14.0759 19
786 2 -10.7359 1.67174 3.10613 21
787 2 -2.25309 -10.0725 -4.78812 18
788 2 9.73193 -0.781408 -1.18841 19
789 2 -10.2945 7.81855 13.689 14
790 2 -8.17302 -8.97824 2.56664 18
791 2 4.33768 -7.40722 -6.43692 15
792 2 4.94644 2.57839 -1.7838 19
793 2 -0.818727 6.69598 14.4583 21
794 2 4.63175 -5.37398 -3.81144 21
795 2 0.940391 -2.48001 9.55774 20
796 2 -6.63217 -8.80091 5.85813 19
797 2 14.5927 2.13286 -0.548838 11
798 2 -8.00913 -7.56401 11.7917 14
799 2 5.51805 8.52828 -6.73272 18
800 2 -2.54392 -7.73327 10.1452 16
801 2 8.69164 -3.71046 -7.44107 14
802 2 0.535621 -15.5708 -0.484083 14
803 2 12.0257 -3.36827 4.95578 15
804 2 -3.32328 11.4194 4.36346 16
805 2 2.43313 6.99454 -9.16681 19
806 2 -8.76374 -1.05594 -6.31995 20
807 2 -7.01114 -1.46736 6.11323 16
808 2 -0.469965 -5.49163 3.74864 21
809 2 -7.28023 -7.21788 0.430137 20
810 2 -1.39466 12.5121 6.17332 19
811 2 -10.0917 9.99453 6.00381 14
812 2 1.86024 0.791771 -4.59479 25
813 2 5.15094 8.66364 3.5103 19
814 2 1.71863 6.82162 -4.18251 20
815 2 -6.26475 5.15351 17.1428 12
816 2 -4.01054 4.49904 -15.055 12
817 2 -14.9928 5.73472 0.712533 13
818 2 -1.99136 6.98255 6.32603 22
819 2 -10.6936 8.99667 11.3351 13
820 2 -8.27656 2.72883 -2.32909 19
821 2 9.89091 13.8922 2.01894 12
822 2 11.4762 7.21241 -3.04596 14
823 2 9.05401 -9.69879 0.270742 12
824 2 -14.0651 -1.91504 11.3349 10
825 2 4.67874 2.72899 3.90978 23
826 2 1.32461 8.77424 8.95681 23
827 2 -9.61046 7.38498 -9.06445 14
828 2 -7.53832 10.8563 4.87699 13
829 2 6.30266 -5.02782 14.0972 10
830 2 -10.2091 -6.79096 -11.0042 15
831 2 3.57465 5.89431 -6.67532 21
832 2 11.2556 10.0774 -1.12 11
833 2 -12.9183 -3.22373 8.1252 17
834 2 1.62768 8.72406 3.41415 23
835 2 -6.15689 11.835 -6.24618 14
836 2 -6.98194 12.0584 -1.84229 12
837 2 7.09181 0.148225 14.7941 11
838 2 0.0565628 9.31149 6.6347 21
839 2 11.8449 -2.93392 -5.62872 11
840 2 -2.05469 3.41266 13.9953 20
841 2 -2.62363 2.50217 11.3452 19
842 2 -11.7648 3.43865 -1.91746 18
843 2 -4.0061 -7.02328 -12.5772 12
844 2 1.01551 -8.5294 -0.271214 21
845 2 2.00713 2.79017 -6.52794 20
846 2 12.975 5.43622 4.89221 17
847 2 -3.37036 7.56599 13.0744 21
848 2 3.5094 0.262929 -7.10659 23
849 2 -8.21611 -2.7483 10.7295 14
850 2 -3.65625 -3.53629 -12.8072 18
851 2 -4.45271 -7.51359 1.25702 23
852 2 -2.24457 -4.59331 -4.52324 22
853 2 5.50105 -12.337 4.23621 11
854 2 10.3534 8.87778 -5.80922 9
855 2 -7.07261 1.00051 -13.1994 17
856 2 -5.30581 12.1376 9.69068 15
857 2 -10.2999 -5.25966 -1.65674 16
858 2 -14.3187 -5.53728 -11.0 11
859 2 2.47749 10.9508 -7.22898 14
860 2 -1.65784 12.8164 0.713688 19
861 2 -8.35483 -15.8802 -3.26705 8
862 2 13.068 1.19257 8.27806 14
863 2 -0.316939 4.16861 16.09 16
864 2 -2.68789 -13.9642 -0.430963 19
865 2 -2.01731 -12.7113 1.99423 18
866 2 0.997773 1.36911 17.5111 13
867 2 5.54431 10.5038 12.9524 16
868 2 12.8302 1.75132 -3.11985 14
869 2 8.04436 6.65391 14.8726 11
870 2 7.42083 13.1221 -3.24487 15
871 2 -15.315 0.596997 10.839 12
872 2 4.48011 -5.30824 1.23976 23