ITEM: TIMESTEP
4000
ITEM: NUMBER OF ATOMS
2000
ITEM: BOX BOUNDS pp pp pp
-30.0 30.0
-30.0 30.0
-30.0 30.0
ITEM: ATOMS id type x y z Coordination
1 1 -11.6893 2.21372 -12.2051 13
2 1 -3.23161 -8.36856 -10.4131 19
3 1 0.960963 14.8939 11.9888 14
4 1 8.42161 -10.9072 6.50053 9
5 1 -11.0416 7.90993 -1.68841 20
6 1 9.84313 -11.6115 -9.75517 11
7 1 -12.2359 1.83224 -8.88745 17
8 1 -0.237697 -9.31918 8.51953 18
9 1 -7.54361 -1.05718 -11.6095 25
10 1 -10.7897 -11.2425 4.40555 16
11 1 18.3499 1.66868 -10.71 5
12 1 -2.18577 -10.1225 2.7633 21
13 1 -11.2375 -9.34718 2.09422 16
14 1 3.32719 2.38137 16.2508 16
15 1 1.42121 4.48064 9.86552 20
16 1 -2.05768 9.56696 -11.9894 18
17 1 3.33842 -1.45538 11.4967 21
18 1 -7.30867 0.695601 -13.8186 21
19 1 -14.6682 -7.0451 8.12063 7
20 1 15.3213 4.05727 8.11804 17
21 1 1.73746 9.85148 -11.3259 22
22 1 6.34842 4.06435 -13.6565 21
23 1 13.1371 5.90268 10.3453 16
24 1 -13.5034 4.73508 -8.37244 12
25 1 -9.69081 9.46725 7.06187 16
26 1 6.77047 -12.4096 3.72835 14
27 1 3.80189 -14.1594 -12.1851 9
28 1 11.9756 -11.6918 -1.253 12
29 1 -7.52309 -13.5051 -8.0327 8
30 1 -12.67 -5.65939 12.3262 10
31 1 1.08307 -6.44766 -14.1728 18
32 1 10.1957 -8.70964 -11.7509 11
33 1 0.765233 4.884 -16.4301 18
34 1 1.9462 4.42897 13.498 21
35 1 -0.0989931 -11.5542 7.35911 18
36 1 4.07917 -4.78109 12.5012 14
37 1 -10.9324 -1.07588 -0.0341768 19
38 1 -12.7335 -3.46249 9.30488 13
39 1 -1.2687 11.5716 -3.70987 17
40 1 1.40883 -12.2987 -13.7366 13
41 1 9.14952 -4.23815 -10.0057 20
42 1 -1.90093 -4.53805 13.9934 15
43 1 -11.5273 7.02392 1.38407 18
44 1 3.77824 12.0076 -11.3495 16
45 1 2.03436 11.9548 12.4808 21
46 1 -5.96167 7.19686 -8.11483 20
47 1 0.158155 13.5044 -1.76059 20
48 1 3.54548 -9.38404 3.0778 21
49 1 6.13984 -9.24463 -5.11102 23
50 1 3.41234 -2.61916 -16.0591 21
51 1 -7.88269 11.2059 9.81066 13
52 1 -11.4652 -4.23713 -9.04588 19
53 1 -5.74497 7.05354 -5.23797 22
54 1 -7.87415 -7.85895 4.84792 19
55 1 -0.643552 15.6142 9.46785 14
56 1 -10.7527 3.50625 -7.10784 19
57 1 -6.29284 11.1547 12.1648 10
58 1 -3.20102 -17.1033 8.64183 9
59 1 5.63474 -14.1022 -7.15984 12
60 1 3.11168 14.5094 14.8042 12
61 1 -14.6709 -0.127352 -10.9018 7
62 1 -13.0013 7.54481 -8.13044 12
63 1 5.30405 6.82074 12.164 20
64 1 14.8059 -4.29189 -9.29491 14
65 1 8.97675 -10.2175 2.34477 12
66 1 -14.7155 -6.6186 4.48042 10
67 1 6.33258 15.7499 2.85804 15
68 1 5.06882 -2.28741 14.1471 14
69 1 -8.22319 -11.2622 5.68945 20
70 1 12.8677 2.31616 7.82671 18
71 1 -0.551566 15.301 5.7737 19
72 1 -1.25574 -6.66345 -8.56748 22
73 1 -8.85585 7.63528 8.86977 17
74 1 -7.71314 12.6037 -0.9907 21
75 1 0.454249 7.80565 -8.28696 21
76 1 13.3349 9.08351 -6.53971 17
77 1 5.56872 -9.56848 8.31605 13
78 1 -2.80486 14.9575 -2.83079 17
79 1 -9.8302 11.7125 5.88165 15
80 1 -7.7519 -4.82635 12.7415 19
81 1 -1.69566 9.43768 4.39773 21
82 1 -3.79446 -8.36879 9.17524 17
83 1 14.2743 -8.39208 -4.99517 13
84 1 -7.92123 4.14595 4.79534 20
85 1 -9.67366 -14.2927 3.01249 11
86 1 8.91259 -8.9031 -7.48561 18
87 1 11.7848 -3.42309 -15.0808 14
88 1 -4.87728 1.77503 -15.744 14
89 1 0.687596 12.6775 1.30139 22
90 1 -8.06859 3.73986 -8.9262 21
91 1 3.0054 10.0377 18.7236 11
92 1 1.33548 13.0385 -9.03276 21
93 1 -12.9682 11.6641 -0.235066 13
94 1 -4.96845 -6.74031 6.21154 20
95 1 14.431 -2.10262 9.83725 11
96 1 5.97201 -4.61557 -11.3601 23
97 1 8.05019 -0.384419 15.0873 12
98 1 -7.73402 -6.92202 -1.7308 20
99 1 -7.71353 -6.93648 -4.9075 21
100 1 11.9228 -8.7746 0.602318 15
101 1 11.5731 4.99254 -13.576 11
102 1 9.61863 15.765 -3.78125 12
103 1 -7.72539 -12.1974 11.1302 13
104 1 -9.70331 -14.3307 9.19002 7
105 1 6.35579 -6.27179 -17.1037 10
106 1 12.0357 -8.83223 -2.37728 19
107 1 -0.929186 -16.0903 4.74859 13
108 1 -8.18486 -10.4429 -0.346397 22
109 1 15.6165 7.77261 11.7544 11
110 1 17.3273 -4.50405 -6.76739 10
111 1 -12.9955 -8.69056 4.88353 15
112 1 11.5595 7.23434 4.78218 19
113 1 14.8836 12.3673 2.13631 13
114 1 -5.93866 3.64896 16.1599 10
115 1 -4.76746 10.5061 9.50244 16
116 1 -3.32051 12.2562 -4.98918 16
117 1 1.53339 -7.0057 -10.179 18
118 1 6.64186 -13.0575 -10.6123 13
119 1 0.230945 12.6184 -12.3226 14
120 1 9.23406 -5.26181 9.94571 15
121 1 0.123948 0.766296 -18.866 15
122 1 -3.45444 8.92356 -9.02682 15
123 1 11.0347 1.58784 -5.74232 23
124 1 -8.37305 9.37413 -5.00892 21
125 1 -5.47042 13.1778 -2.18494 18
126 1 8.63448 1.16361 -10.4025 18
127 1 9.60818 -7.2118 4.6269 18
128 1 -2.91952 15.8929 6.67106 12
129 1 16.9173 7.61162 -7.84793 11
130 1 6.70125 12.6905 -2.66201 19
131 1 -4.87728 16.5624 1.50664 13
132 1 13.7786 5.76813 -5.3353 17
133 1 -2.27111 8.61247 -5.11552 17
134 1 0.109491 15.7237 -9.6299 11
135 1 4.5246 9.1569 -13.7908 15
136 1 -10.3563 -12.3664 0.423216 14
137 1 -13.146 8.85122 -0.227949 13
138 1 -5.00873 -1.01452 -13.8788 20
139 1 0.539543 -6.46017 -17.2245 14
140 1 12.0153 14.0337 7.00015 10
141 1 0.962129 15.557 -0.494794 20
142 1 -11.4652 -4.74209 -5.12847 21
143 1 -10.4008 13.7769 -0.504457 13
144 1 15.7941 -1.40265 -1.87059 16
145 1 -10.0754 0.454327 -16.2911 8
146 1 8.80092 5.1905 16.9878 17
147 1 5.42288 18.5934 1.19393 7
148 1 -1.64159 10.5946 8.07258 18
149 1 -0.393348 -5.4874 -20.3727 8
150 1 0.780319 13.2146 7.98984 23
151 1 -4.06728 13.3366 -7.93291 19
152 1 3.25947 -3.85521 9.41274 21
153 1 -10.7052 -6.99749 0.0589757 18
154 1 3.55814 -6.05032 -15.7645 18
155 1 -7.67217 10.1943 -8.32235 18
156 1 -1.79106 -12.3255 4.89635 19
157 1 3.85984 -11.4417 -6.00077 17
158 1 -2.80789 10.1174 -15.4347 12
159 1 -10.5084 1.53294 7.92677 17
160 1 10.9656 8.08113 -5.47059 23
161 1 -4.2423 5.84157 15.0496 15
162 1 -0.592145 -12.4332 10.9262 12
163 1 3.94334 17.0651 -1.02232 20
164 1 0.0967893 7.7238 8.16109 21
165 1 14.0295 6.77311 13.8714 13
166 1 -8.32653 12.4366 2.48015 17
167 1 14.0549 -4.92041 -6.16723 20
168 1 -3.97514 15.9349 8.94846 9
169 1 12.3666 -6.4273 2.95256 17
170 1 -14.0393 -0.115099 4.26139 12
171 1 -4.84353 -11.9044 3.17423 18
172 1 6.14267 7.43695 15.921 23
173 1 -14.5164 0.628881 -3.6121 13
174 1 -1.83797 -12.1178 -1.57454 22
175 1 0.882625 9.93773 3.03271 21
176 1 4.06277 15.1175 11.5934 12
177 1 -6.95361 13.5066 -9.30706 12
178 1 -13.7707 -3.96661 -7.03723 14
179 1 -8.55826 -6.79074 11.0272 18
180 1 1.32981 -11.6211 3.67259 20
181 1 5.42405 -15.3143 6.83444 10
182 1 -11.1483 11.8537 2.57621 16
183 1 15.1524 3.94197 4.66311 16
184 1 -7.09738 -4.04694 -17.0835 12
185 1 5.99186 0.0935347 12.4118 24
186 1 6.20169 -16.536 1.72556 8
187 1 0.950547 4.05574 -13.0565 21
188 1 3.88363 -3.9569 -13.7741 22
189 1 13.1699 -1.20937 -13.0617 12
190 1 5.63959 5.9288 -15.4808 17
191 1 -6.09453 -4.0669 -8.32633 18
192 1 -5.79994 16.6365 -8.05004 11
193 1 -11.0588 -11.8804 11.6153 9
194 1 7.51302 18.4103 -4.68492 9
195 1 -6.10488 1.00457 14.6623 16
196 1 -11.3585 13.3649 -3.71575 8
197 1 7.37815 1.71624 10.5858 21
198 1 3.05479 -4.64301 -18.1123 15
199 1 -5.17273 10.0857 -6.46873 20
200 1 3.17376 7.19137 -10.8062 22
201 1 -6.11339 -10.2996 8.02261 18
202 1 -7.178 4.88072 8.1056 21
203 1 -5.31261 7.71871 8.05766 19
204 1 0.495632 -9.32402 -5.29673 21
205 1 -4.62975 -14.4178 -2.34788 16
206 1 11.7772 -13.0007 -4.55591 13
207 1 11.351 8.62613 14.6063 13
208 1 9.23514 10.2806 -6.94974 19
209 1 -0.0738417 16.5919 -2.95277 19
210 1 -11.5275 1.86797 1.28533 21
211 1 -13.6699 9.9694 -3.54109 13
212 1 4.3174 6.30772 9.19521 20
213 1 3.0653 -14.9536 0.622332 17
214 1 11.5308 -3.47789 -2.06837 22
215 1 -8.28827 6.90491 6.07951 21
216 1 -10.7399 -8.07639 -6.17352 21
217 1 8.99454 6.00306 -10.9418 19
218 1 6.52004 -3.8694 7.87422 20
219 1 11.1235 10.0879 -8.9115 18
220 1 1.42836 -0.607963 -13.5389 22
221 1 1.74506 -16.579 3.66909 18
222 1 9.83519 -0.896032 -8.46547 22
223 1 -12.4704 -5.7054 6.0674 17
224 1 3.46793 -13.5563 -3.66024 13
225 1 -8.19161 -4.8064 -10.6386 18
226 1 5.37403 16.86 -7.02706 16
227 1 0.549042 -0.876209 -16.8984 17
228 1 4.00196 5.54663 15.1684 19
229 1 15.2453 3.7313 1.65248 16
230 1 11.8956 -5.75468 -10.3384 15
231 1 -5.72646 -3.55716 -12.2757 18
232 1 -10.4984 -0.755838 -10.1192 23
233 1 -4.87166 -13.9246 9.45335 14
234 1 11.5325 -1.09248 11.0045 17
235 1 -7.4809 -7.06472 -15.8922 11
236 1 2.69969 6.82022 -13.5434 24
237 1 3.05873 11.8285 -0.154055 22
238 1 -5.1607 -4.86839 11.506 19
239 1 -11.3773 -6.32232 -11.3463 16
240 1 -5.69828 -6.65195 -10.0305 20
241 1 -0.343351 7.44638 -15.6941 16
242 1 -5.49539 -9.51253 -8.81038 20
243 1 9.29031 -4.86468 -15.6601 14
244 1 15.0566 -2.08696 -7.27373 19
245 1 12.2175 4.43082 3.18377 20
246 1 -6.43751 -6.77498 8.81799 17
247 1 -2.72093 -9.66918 -0.560155 20
248 1 8.95752 8.34932 17.4271 13
249 1 -2.69332 -14.6542 7.22964 18
250 1 1.53086 -12.0673 -0.0903575 21
251 1 -5.55735 17.5326 -4.04628 8
252 1 6.17978 2.34396 -15.8896 20
253 1 -10.1298 -3.60371 -12.1968 22
254 1 -10.4449 -6.58532 13.6415 15
255 1 5.55555 7.90424 18.9597 13
256 1 0.976715 -12.0425 -3.78029 17
257 1 -6.31022 -9.25531 -11.7936 15
258 1 -9.09137 7.37903 -10.0629 15
259 1 12.4979 5.00342 6.59038 22
260 1 -5.09086 4.26133 -10.0494 19
261 1 0.0821181 7.60814 -11.8682 18
262 1 2.70754 -9.18803 -14.5987 15
263 1 -5.73656 15.8451 -1.47525 18
264 1 4.05397 9.17038 4.39782 19
265 1 11.2946 0.602791 4.95681 19
266 1 -10.4026 -1.08543 2.92508 23
267 1 -5.59807 -10.1467 13.424 9
268 1 -4.99652 10.239 2.63728 21
269 1 5.16236 -0.408901 -14.8892 23
270 1 15.0456 11.0412 -3.95528 14
271 1 6.38383 -9.33511 -1.97118 22
272 1 -3.54173 -1.48862 15.0661 16
273 1 -10.5984 -8.87051 6.30627 19
274 1 0.8706 -14.5394 -4.79426 11
275 1 -5.62868 8.9791 14.4053 14
276 1 -7.47819 6.39641 14.0183 14
277 1 -13.6712 -0.484965 7.90199 10
278 1 -12.4225 -9.7094 9.11925 12
279 1 14.3622 -2.96861 -3.24727 22
280 1 -11.5745 -9.05095 11.651 12
281 1 11.8141 -3.87968 -8.2001 23
282 1 10.0799 -11.2134 -6.35471 19
283 1 1.40803 18.9106 -3.92658 10
284 1 -11.1139 10.8486 -3.32024 19
285 1 10.6724 10.455 11.8813 12
286 1 8.96485 -10.6625 -3.27253 21
287 1 -2.74011 11.9233 2.85247 20
288 1 5.57227 -12.4518 6.82917 13
289 1 11.7892 -3.34838 5.20818 20
290 1 -1.16015 6.15037 11.0019 18
291 1 0.285344 2.07533 14.7416 17
292 1 -1.56807 14.7743 1.67585 19
293 1 8.68282 10.366 15.0061 15
294 1 -8.78982 12.0695 -5.84927 14
295 1 -1.3314 -1.88968 -20.328 11
296 1 4.18392 -7.23087 -12.3173 20
297 1 -9.46554 -0.298735 11.1302 18
298 1 -13.4815 4.49925 1.00224 13
299 1 -5.14551 10.3867 -0.664266 19
300 1 9.00824 -2.00004 7.82995 20
301 1 -7.84199 -13.5144 -2.03397 17
302 1 8.77052 -7.97971 7.33492 16
303 1 -8.60604 -9.70323 13.0434 11
304 1 -13.8583 9.71201 2.28143 15
305 1 3.41216 -9.12109 -7.78043 21
306 1 -1.89812 -1.43945 -11.7124 20
307 1 13.5714 -4.83619 -13.2036 9
308 1 3.10889 12.1364 3.30066 20
309 1 -10.6058 -1.37193 -3.62795 20
310 1 6.53302 -5.55899 -14.2618 19
311 1 13.1947 1.57063 -11.7899 11
312 1 -3.90984 -12.269 -14.6804 10
313 1 -13.1878 -6.94473 -4.61219 15
314 1 12.4376 5.81967 16.4524 10
315 1 12.9403 3.47788 -4.3184 17
316 1 -8.81267 1.64209 -10.647 23
317 1 6.90121 19.1053 -1.53998 8
318 1 -11.8338 0.826487 -5.36725 19
319 1 -5.7236 7.37173 4.69582 21
320 1 -9.86566 10.6799 0.266436 18
321 1 -2.95715 8.37057 9.55213 19
322 1 9.48877 4.0 11.494 21
323 1 12.6776 -1.06755 -6.99189 19
324 1 6.87877 -3.71143 11.6716 17
325 1 14.0266 1.30847 -7.85388 16
326 1 -6.05783 -14.6327 -4.98333 13
327 1 -9.11717 0.670035 -7.13342 21
328 1 3.42002 -10.0734 -3.49419 20
329 1 12.1637 -0.784006 7.67654 22
330 1 -8.68758 -4.88194 -6.78801 21
331 1 -5.46349 -9.45637 4.47228 19
332 1 -6.83607 -7.04258 13.8001 15
333 1 -1.93813 12.1889 -0.375494 21
334 1 -12.7033 -10.7946 -4.01843 11
335 1 6.48594 13.3588 14.6251 11
336 1 -8.79257 6.47569 -0.507364 18
337 1 -0.8534 10.9365 -9.66344 17
338 1 5.80021 13.76 5.10736 18
339 1 -13.4123 -7.13465 -1.43888 15
340 1 -2.74013 -9.43668 -7.35005 18
341 1 -9.90018 -0.547302 6.37043 18
342 1 -11.87 7.42966 -5.14021 20
343 1 6.0939 -9.7164 5.07241 18
344 1 -4.74083 -11.7918 -3.6907 23
345 1 8.65476 12.1107 6.82553 17
346 1 8.88981 7.10774 -14.2861 13
347 1 -12.4486 5.99765 -11.4256 9
348 1 -2.0692 13.4908 -10.4675 15
349 1 -8.46177 6.20156 -6.75595 17
350 1 -1.13662 -12.288 1.24464 19
351 1 14.9691 6.57646 6.26555 16
352 1 1.05608 9.85035 -15.4081 14
353 1 -14.7476 1.1589 -0.14683 10
354 1 -4.96188 -12.6862 6.29126 18
355 1 7.52152 -9.85067 -10.6251 16
356 1 -10.9933 1.65213 4.6169 20
357 1 -13.5487 -2.28723 11.264 11
358 1 -11.4776 7.51 6.18261 13
359 1 -7.25942 5.87022 -14.7607 9
360 1 5.97363 -10.8503 -8.40375 22
361 1 -1.91313 -7.39382 -12.2297 18
362 1 -3.4021 -4.83112 9.3582 18
363 1 -3.28238 2.73632 -18.4009 12
364 1 9.90126 -13.4827 -2.54563 12
365 1 3.21459 12.1972 -6.68639 22
366 1 -12.9922 10.6969 5.2216 13
367 1 -5.30548 -4.09239 14.5157 15
368 1 -13.8888 -5.99372 -9.93894 11
369 1 -9.18771 -5.91467 7.23222 17
370 1 9.33613 -4.73387 6.30491 19
371 1 11.9631 -8.71473 6.25536 8
372 1 16.3701 7.87588 -5.28523 14
373 1 -2.64026 1.22207 13.3062 19
374 1 4.10307 11.786 -3.45528 20
375 1 -4.5546 -12.1535 -6.72605 15
376 1 -1.50115 4.44537 14.5822 17
377 1 0.220233 12.5695 4.77061 22
378 1 -6.9436 -11.9339 -11.3438 12
379 1 8.31194 15.1858 -5.8079 17
380 1 6.64465 7.5534 7.62658 19
381 1 -5.27232 1.99051 8.16718 21
382 1 -7.72488 2.0071 10.2023 19
383 1 -7.66574 -7.47202 -8.36801 21
384 1 -4.40088 9.60714 5.80001 19
385 1 -6.06123 -14.0283 -13.225 7
386 1 0.782931 -3.85714 -15.5636 21
387 1 -5.50146 -9.00144 1.56054 20
388 1 9.11522 -0.865199 11.9985 18
389 1 -3.52805 -7.87428 13.9937 10
390 1 -7.55275 3.95193 -12.1274 18
391 1 11.5156 6.84729 1.48798 20
392 1 -7.71164 -12.0147 -5.26732 18
393 1 1.61134 18.4662 -0.169932 10
394 1 -0.946246 13.0779 14.026 13
395 1 -13.6494 -1.72064 -5.12066 16
396 1 -2.0436 18.4864 -5.02974 11
397 1 6.6045 9.4888 -7.00852 18
398 1 -4.87634 -6.85937 -7.05069 23
399 1 6.80765 4.82282 15.1813 22
400 1 -0.477203 -10.7679 -15.4667 11
401 1 2.78745 -4.39105 -10.4505 19
402 1 7.06667 -13.4396 0.7559 13
403 1 -7.64675 10.0021 3.90765 20
404 1 1.9303 7.37986 11.6177 17
405 1 9.95998 9.11508 -2.00098 20
406 1 -7.08238 10.2191 -10.9272 11
407 1 -14.1722 -4.62622 0.123729 12
408 1 4.12383 17.0921 4.26672 10
409 1 -4.53233 4.71548 -13.0522 18
410 1 16.5031 8.44405 -1.91626 13
411 1 5.71398 11.9806 -8.71087 17
412 1 16.3191 0.241371 0.820066 10
413 1 0.167061 1.47411 -11.5346 19
414 1 2.40466 -16.4003 6.75507 14
415 1 0.586858 -9.40436 12.3264 11
416 1 -10.6536 4.43358 -10.1824 17
417 1 -10.3609 -13.9947 6.16893 11
418 1 -2.70709 -9.52777 -14.408 15
419 1 9.2197 14.1179 1.79629 14
420 1 3.61436 4.13219 -11.8015 24
421 1 5.24197 0.392862 15.4111 15
422 1 -11.0794 3.53817 12.4298 8
423 1 -2.94797 -14.795 0.247934 18
424 1 -11.5713 -4.03692 -1.39967 22
425 1 15.9615 -6.12726 -4.3539 16
426 1 13.2204 -2.24717 -0.213129 17
427 1 6.95 -6.21899 -6.81821 20
428 1 5.85729 0.957554 -11.8808 22
429 1 10.5627 -6.27254 -7.13093 22
430 1 -6.30532 -1.1852 15.9608 10
431 1 7.02392 14.7266 -0.206629 17
432 1 -5.83814 -1.24629 -16.3531 13
433 1 8.26658 2.09776 -17.9109 7
434 1 -6.18943 -3.89989 7.94752 16
435 1 -1.23327 17.6161 1.16364 12
436 1 -8.11321 -2.80158 -14.1606 19
437 1 -13.6308 -1.53438 1.74413 13
438 1 -4.70871 -5.95052 -17.7988 11
439 1 -4.55232 -11.7592 11.1824 12
440 1 2.60535 9.76228 -8.43968 23
441 1 15.8995 3.38697 13.1952 8
442 1 16.0495 5.83987 -0.075232 13
443 1 -10.1236 -11.8257 -2.94853 16
444 1 -2.48508 0.155437 -17.2889 18
445 1 -6.90733 11.2069 6.86668 18
446 1 14.6311 -4.20544 3.60039 16
447 1 2.17765 15.6611 -7.13955 16
448 1 16.7781 4.03514 -8.42738 10
449 1 3.99143 9.56606 15.1173 19
450 1 -7.88062 1.67494 6.57542 22
451 1 6.63568 10.1522 9.52224 21
452 1 6.86975 2.44857 17.2737 14
453 1 0.473823 1.77729 -15.287 19
454 1 -0.604709 -0.990219 13.4811 13
455 1 8.14762 11.743 3.79938 17
456 1 7.81157 8.64379 -9.82469 19
457 1 -7.8269 15.0086 -6.18956 11
458 1 1.38336 13.5768 -4.55778 20
459 1 11.5364 -3.84202 11.619 9
460 1 9.88027 3.09616 -12.0242 18
461 1 11.8495 -9.59818 -5.69527 19
462 1 15.2413 11.0792 10.6199 7
463 1 -13.4542 -7.11949 1.9053 17
464 1 -5.3576 9.63888 -13.7272 11
465 1 -11.3054 -0.00714257 13.4666 11
466 1 -4.48533 11.0619 -10.1569 19
467 1 4.79223 -12.1502 -1.13282 19
468 1 6.96487 -1.27267 -10.1134 21
469 1 -4.02973 15.7611 -6.03409 17
470 1 -10.0994 -4.78382 -15.3743 11
471 1 4.73704 -15.0286 4.06638 15
472 1 -10.6722 -6.55421 -3.15344 20
473 1 2.82839 11.625 -13.9641 10
474 1 -3.16616 11.0333 13.2359 12
475 1 -9.42868 -3.82014 9.56042 17
476 1 3.85615 -5.99062 -8.59584 20
477 1 3.56793 -7.8441 10.7976 11
478 1 -10.8305 9.03403 4.00821 20
479 1 7.7287 5.29039 19.6807 8
480 1 4.7792 19.1224 -4.76516 10
481 1 11.581 -3.79773 -5.26352 20
482 1 4.07536 9.14502 10.7441 18
483 1 2.49859 1.43704 -20.6214 9
484 1 -2.33945 -14.8167 10.8607 11
485 1 8.95626 -0.975633 -15.2714 14
486 1 3.51108 14.5925 1.09925 17
487 1 11.985 7.62522 -11.1036 15
488 1 0.320778 -3.60394 -12.1189 20
489 1 -6.11429 -9.54547 -6.10294 22
490 1 -13.0806 -4.63976 -13.4966 10
491 1 14.5319 6.73258 3.01426 19
492 1 14.8878 2.04733 -0.607507 15
493 1 6.39437 -7.67358 -9.30143 18
494 1 13.1373 8.88364 11.226 15
495 1 3.74228 -12.982 -9.47704 16
496 1 3.95944 5.0037 -18.4054 10
497 1 11.0802 11.9284 3.42676 17
498 1 8.13397 12.0249 12.1296 14
499 1 11.7463 6.57451 -2.28332 17
500 1 16.5392 -3.44991 1.53333 12
501 1 12.545 7.17191 -8.51232 18
502 1 8.50039 7.50855 14.1214 20
503 1 17.599 5.24744 10.7718 8
504 1 17.9486 11.4593 -2.68232 7
505 1 1.72106 -0.550958 15.2719 10
506 1 16.239 -1.41736 -4.79567 15
507 1 10.3439 0.652345 8.94111 18
508 1 -4.92387 -1.30531 -10.4577 21
509 1 17.0557 6.40188 3.17768 11
510 1 -8.58222 8.9397 12.417 13
511 1 9.52705 13.0537 9.40437 11
512 1 12.0052 3.71933 10.1397 22
513 1 4.02492 9.2782 7.70369 20
514 1 2.23284 16.0199 8.33104 13
515 1 -1.59891 -17.4047 1.90316 13
516 1 -5.05639 9.90085 -3.90888 20
517 1 14.7284 10.1098 -8.86325 13
518 1 11.7481 -3.35648 -11.7788 19
519 1 3.25458 16.6822 -4.30995 21
520 1 -4.17665 -12.048 -10.4808 15
521 1 10.9249 -6.27736 -13.0622 15
522 1 -13.3018 3.40994 3.98316 12
523 1 -6.70149 7.17304 -11.9945 15
524 1 -6.18028 -16.488 -0.387769 10
525 1 -5.22138 1.29314 -12.0691 20
526 1 -10.7881 4.66968 -3.75626 22
527 1 9.69594 -6.19626 1.11101 22
528 1 11.589 11.2722 6.21182 18
529 1 0.338698 -9.64746 5.13689 21
530 1 -13.49 -1.36083 -8.67919 16
531 1 5.46586 1.88868 -20.1095 10
532 1 -2.63385 4.03539 11.8082 17
533 1 9.07944 8.99597 -12.2543 14
534 1 13.7038 0.537189 12.1108 11
535 1 9.54764 4.14408 -8.87124 21
536 1 10.4353 12.4524 -5.36369 18
537 1 1.5017 -11.2973 -10.6628 18
538 1 -10.7867 -2.9699 12.0021 20
539 1 16.3123 -1.434 4.56965 12
540 1 -0.323302 12.5867 10.5568 19
541 1 10.2758 13.7787 -7.97896 13
542 1 -11.2463 10.1876 -6.34377 13
543 1 12.0451 11.8476 0.0779559 17
544 1 -8.72635 -9.30364 -3.70253 22
545 1 11.5801 -3.81047 1.46545 21
546 1 6.4373 12.2461 1.82606 19
547 1 -3.91236 4.94678 9.30578 22
548 1 -8.07331 -7.73152 1.62123 20
549 1 -7.65594 -1.8053 -8.73625 20
550 1 8.02528 1.88966 14.1314 19
551 1 0.826755 -3.84644 11.9912 15
552 1 11.0085 6.74801 11.9405 20
553 1 -4.62226 13.3979 0.920988 20
554 1 2.97443 1.57446 -17.1577 19
555 1 -7.30869 -0.810199 8.38874 21
556 1 9.91944 -0.792884 -11.9473 18
557 1 12.6987 -10.9644 -7.64225 9
558 1 9.69945 3.60954 7.84859 21
559 1 -8.85895 -1.5027 14.1816 16
560 1 9.30761 9.50897 8.03923 24
561 1 -1.63311 -3.05365 10.8748 20
562 1 -2.60111 7.33048 13.1533 18
563 1 -1.71086 -4.00565 -17.0211 18
564 1 -5.39531 1.03127 11.5945 19
565 1 6.35039 3.61112 12.7034 20
566 1 -7.1501 -14.4082 5.10846 14
567 1 15.8138 4.812 -2.88256 14
568 1 8.55717 -14.5326 -4.97186 11
569 1 8.90099 11.8971 -0.420662 22
570 1 10.6148 15.4031 -0.487581 12
571 1 6.02833 -0.00729745 -17.537 16
572 1 6.72366 12.5084 -5.75553 21
573 1 12.7127 8.82375 -0.65754 18
574 1 -5.52693 -9.53935 -2.12959 17
575 1 -1.38274 -1.92592 -14.8123 19
576 1 -7.67843 9.2948 0.48182 19
577 1 7.66037 -7.50209 -12.7669 17
578 1 15.3701 6.89846 -9.90467 10
579 1 12.1073 10.4075 -3.57664 19
580 1 12.9296 3.45155 13.6849 13
581 1 10.4051 1.49733 12.9134 17
582 1 -2.09639 -10.3596 12.8407 9
583 1 -1.89066 6.20912 -13.0048 16
584 1 3.53816 12.2886 6.47616 21
585 1 7.56557 -8.82818 -15.0388 9
586 1 7.30277 14.95 -8.98959 12
587 1 9.33627 9.42493 4.86702 19
588 1 15.4311 -7.49509 -1.64547 13
589 1 6.21668 10.4856 16.9316 14
590 1 -12.631 -2.15872 5.74481 18
591 1 3.83636 -12.8909 2.08454 16
592 1 -7.51494 15.067 1.02995 13
593 1 7.0571 8.74451 2.64583 21
594 1 -11.4724 -3.76333 1.44936 22
595 1 1.13818 4.44356 16.3215 13
596 1 -2.1576 5.95797 -18.1871 9
597 1 -5.0345 7.17381 -16.2482 9
598 1 8.05155 -11.613 -0.669367 18
599 1 9.27033 6.93959 -7.46011 21
600 1 -11.4151 6.91458 12.1819 7
601 1 6.69415 -2.0692 -13.5023 22
602 1 2.82313 -13.9704 8.4923 14
603 1 3.24907 14.697 -2.32657 18
604 1 -3.21499 1.6498 15.9426 12
605 1 -9.21468 -8.75148 -11.1242 15
606 1 -2.34611 -7.46449 -16.0623 15
607 1 -6.70421 -10.786 -14.8217 10
608 1 -2.75602 16.2192 -8.74644 11
609 1 -2.45618 12.3784 6.31675 17
610 1 4.05993 -9.93981 -10.7249 20
611 1 6.38631 -14.6072 -1.93616 10
612 1 3.68506 -6.65524 8.18255 21
613 1 16.6631 0.618426 -6.94142 11
614 1 1.2137 -11.6498 -7.57415 17
615 1 -9.94106 -3.93273 4.92825 21
616 1 -2.66884 -17.2953 -1.27468 12
617 1 -9.07166 -10.2609 -8.11447 18
618 1 -11.211 -3.39162 15.0221 10
619 1 -6.87869 -13.9548 1.02846 17
620 1 16.4901 1.26917 -3.32745 12
621 1 -3.91174 14.8575 3.98268 18
622 1 -15.9047 8.82512 4.80877 6
623 1 12.6919 -1.10547 3.28264 17
624 1 -13.3884 -3.24022 -11.1365 17
625 1 0.303896 10.41 -6.79453 15
626 1 11.6487 2.08413 -9.06452 20
627 1 4.86386 11.6438 12.4004 16
628 1 -14.6069 0.981471 -7.05402 11
629 1 -11.6912 -8.57884 -9.14536 13
630 1 1.07876 7.3752 14.5152 16
631 1 5.92587 6.69294 -12.6295 20
632 1 12.7316 14.6737 3.56946 9
633 1 -2.78561 1.80457 9.66283 17
634 1 -2.3276 -14.3702 -3.94636 18
635 1 -5.57778 -16.1147 6.75323 11
636 1 12.3149 11.1158 8.95007 17
637 1 1.17639 -8.6801 -12.0808 18
638 1 -7.73932 9.05353 -2.30654 20
639 1 9.0272 6.52121 3.20382 24
640 1 -8.3045 -4.92545 3.17921 21
641 1 11.5088 9.32366 -13.9918 7
642 1 -1.4313 -12.8746 -9.20787 8
643 1 0.649705 -17.264 0.153966 12
644 1 0.576865 -14.4853 -1.51569 20
645 1 6.62223 3.98901 -10.6364 23
646 1 6.49178 15.6619 -3.60851 21
647 1 -2.34888 0.924835 -14.0957 19
648 1 1.52483 1.73231 11.2832 15
649 1 2.95253 7.4618 -16.7361 13
650 1 -11.9543 -2.10032 -14.2824 12
651 1 -8.68164 -4.06047 -3.28304 22
652 1 -0.173893 16.444 -6.16546 16
653 1 -4.60103 -2.69007 -18.8997 10
654 1 16.1709 3.33029 -5.45733 12
655 1 12.8952 -6.10091 -0.525117 22
656 1 -8.46267 5.90576 11.5368 17
657 1 5.97072 -10.293 0.941261 23
658 1 15.2649 -6.78278 1.50866 11
659 1 11.8259 -3.5387 8.80778 18
660 1 1.17846 10.3631 6.39736 21
661 1 -8.04148 2.42443 13.3878 16
662 1 -5.90394 4.18088 12.3398 19
663 1 0.152686 -15.5308 8.72889 13
664 1 6.6798 9.16711 12.9253 20
665 1 -13.1596 -0.966525 -1.67751 18
666 1 9.20422 -8.05847 -4.66398 22
667 1 -6.24664 12.6386 -5.23191 19
668 1 4.85072 -17.9301 4.47581 10
669 1 3.74505 1.53772 13.4234 20
670 1 2.35823 14.7277 5.39729 19
671 1 3.11708 -10.2132 6.58352 20
672 1 3.75996 3.41641 11.0261 21
673 1 -14.2645 -4.0024 -3.25518 15
674 1 0.948479 12.0878 16.9204 11
675 1 6.81068 9.35261 -0.385505 19
676 1 -7.93683 -11.2412 2.59343 20
677 1 -4.11081 -17.4042 4.68852 8
678 1 6.28007 -6.23995 5.86334 20
679 1 12.3759 -5.94458 6.31364 17
680 1 8.90262 6.38749 6.14574 22
681 1 0.203984 -9.24903 -8.5389 17
682 1 -2.02323 3.61475 -11.8042 22
683 1 -3.99253 -2.10487 12.6861 19
684 1 -2.94656 17.8001 -1.32181 14
685 1 14.7127 1.23528 3.40408 15
686 1 5.83923 6.59922 -8.90836 23
687 1 -0.466231 9.45968 11.9749 19
688 1 8.00465 7.33005 10.5494 18
689 1 8.83093 -3.84027 -13.2135 20
690 1 -4.76868 -11.6442 -0.158167 21
691 1 14.855 0.70766 6.67992 17
692 1 4.3533 -1.64811 -11.5165 23
693 1 2.41876 7.8001 17.2913 14
694 1 5.11083 -11.7994 -12.9424 15
695 1 9.07803 4.67643 -15.6861 12
696 1 12.5098 4.61572 -10.4618 16
697 1 15.3536 -4.71027 -0.726737 18
698 1 1.17575 -6.61715 10.291 19
699 1 -2.69577 -4.42774 -13.6247 18
700 1 4.61729 14.2841 -5.6192 22
701 1 -10.3459 4.75276 3.07494 20
702 1 12.2313 4.12855 -7.057 18
703 1 16.0349 9.57207 4.31334 14
704 1 0.931671 -2.99715 -18.6296 18
705 1 -6.16532 14.3962 6.54545 11
706 1 14.8911 9.67064 7.347 14
707 1 13.3858 12.2333 -6.54784 13
708 1 8.13549 1.14758 -13.7485 17
709 1 9.83595 -6.63618 -2.13204 19
710 1 -11.0332 1.66441 -2.03097 23
711 1 12.8097 9.83167 2.75997 20
712 1 -11.3263 -9.34205 -1.05788 15
713 1 -9.7551 8.40477 -7.7756 15
714 1 6.99198 4.72538 9.4584 21
715 1 -10.6918 -2.04021 -7.23503 20
716 1 -10.4246 4.02857 6.23619 17
717 1 13.6816 -7.33563 -7.53712 15
718 1 -13.7698 -9.78396 -6.53007 8
719 1 12.4593 -6.22677 -3.9373 22
720 1 -13.7683 7.05281 3.36492 14
721 1 11.9043 7.95505 7.85869 19
722 1 -3.30144 -9.87554 6.45401 20
723 1 10.1323 4.56147 14.7224 18
724 1 14.8312 -2.70485 6.86591 13
725 1 -10.748 4.36593 -0.483714 21
726 1 1.40009 10.4612 9.66999 17
727 1 5.03022 9.63949 -10.6709 18
728 1 -4.52639 -6.47243 -13.1155 17
729 1 0.910363 15.9661 3.10768 17
730 1 -9.66029 -11.4125 8.17201 17
731 1 8.65999 11.3 -3.69941 16
732 1 0.631492 10.0238 14.8348 16
733 1 17.7743 -4.26433 -3.15059 11
734 1 6.12566 -6.51332 10.2939 14
735 1 -2.91802 12.1737 -13.313 12
736 1 8.34406 11.954 -10.1155 14
737 1 -4.3798 -0.939272 9.88673 18
738 1 16.8459 7.04494 9.00027 8
739 1 -3.06996 -4.5286 -10.4759 21
740 1 14.8581 11.325 -1.02534 13
741 1 -13.3003 3.40878 -2.04528 15
742 1 -2.65715 -11.697 8.74049 21
743 1 4.68225 14.6103 -8.49935 15
744 1 6.44665 -1.26363 9.72026 19
745 1 -2.47403 -9.93247 -4.02173 19
746 1 -8.3953 14.5959 -3.20316 14
747 1 -14.6343 6.76472 -2.89423 11
748 1 12.9261 -1.30509 -9.69772 20
749 1 -5.17963 -9.15073 -16.468 11
750 1 -8.27317 6.78199 2.91942 21
751 1 17.0142 11.132 -6.53521 11
752 1 6.49996 -2.7927 -16.5403 19
753 1 -9.17882 -7.43753 -13.8968 10
754 1 -1.88604 -12.5844 -5.97312 16
755 1 -3.04999 14.0363 11.3853 10
756 1 7.22215 -12.2794 -5.80165 17
757 1 -0.72998 12.6978 -16.3314 6
758 1 12.575 -0.5129 -3.62199 19
759 1 9.79527 9.36261 1.18582 23
760 1 -1.97015 -17.0345 -4.67275 7
761 1 4.44586 -1.53664 -19.4742 12
762 1 12.7689 4.05043 -0.211622 18
763 1 -1.90872 4.09976 -15.6335 21
764 1 -1.43085 -6.43288 8.19122 18
765 1 6.19049 9.55805 -3.73102 19
766 1 -8.9726 6.48519 -3.83307 20
767 1 -10.6547 4.4774 9.74599 16
768 1 5.51631 4.56949 18.2494 13
769 1 -8.92579 -8.85733 8.10056 16
770 1 6.41542 10.1575 5.96378 23
771 1 0.243803 -14.7134 1.97931 20
772 1 3.25975 8.90049 -5.16008 22
773 1 -6.16328 13.3607 9.39564 11
774 1 -11.5707 -0.64087 9.78151 16
775 1 -6.16304 13.0376 3.59653 18
776 1 -1.98415 -6.49407 11.7563 15
777 1 0.439467 -14.0769 6.21729 17
778 1 10.722 6.07828 8.91134 19
779 1 8.84439 -3.36721 -6.67549 22
780 1 5.15232 -11.0724 -15.9701 7
781 1 -9.20282 2.74782 -14.4589 14
782 1 -0.776225 3.46533 -19.3426 10
783 1 6.20503 12.0287 7.96736 18
784 1 -6.90898 -1.69786 11.531 17
785 1 -1.90194 6.5647 -10.0773 19
786 1 -13.5739 4.38952 -5.39651 14
787 1 10.8109 13.3099 -2.73523 13
788 1 -6.60041 -15.9456 3.15213 12
789 1 13.9769 12.1414 5.27516 14
790 1 -10.4386 -11.4773 -5.87327 13
791 1 4.85929 15.3851 7.50091 13
792 1 -7.67081 -4.48718 16.2608 9
793 1 -1.42784 -11.2575 -12.104 16
794 1 14.4801 1.8723 9.95157 13
795 1 2.31671 -19.5532 2.29549 6
796 1 3.67388 12.4307 16.2604 13
797 1 15.6394 -0.840488 -10.6881 13
798 1 9.42787 -9.14335 -0.694236 21
799 1 3.30619 1.45185 -13.4355 21
800 1 -10.1579 -0.0208186 -13.2157 18
801 1 -6.16962 4.22728 -17.5568 7
802 1 -5.06119 6.63151 11.8431 19
803 1 11.349 -7.06523 9.14639 10
804 1 -10.8685 -6.32813 3.62907 23
805 1 11.8483 1.10684 1.24545 24
806 1 3.36578 3.97282 -15.1531 22
807 1 16.3016 9.39153 1.4021 13
808 1 3.32038 13.3096 9.67915 21
809 1 -13.6016 -3.70698 3.58088 18
810 1 8.91911 -13.9598 -8.29176 11
811 2 -11.7839 -2.21445 -9.40317 19
812 2 -4.78885 11.971 -3.82261 19
813 2 0.562802 -1.69886 -11.9598 20
814 2 -2.27234 7.60399 11.2302 18
815 2 3.52514 -11.7708 -10.8252 20
816 2 -6.52241 -6.11191 -8.13849 19
817 2 2.56496 6.41825 13.4667 17
818 2 7.48858 4.0688 18.2216 13
819 2 -11.6833 -7.59393 -1.80466 18
820 2 -10.1058 7.52744 -5.95355 17
821 2 4.07285 12.9615 4.93763 22
822 2 -10.5599 1.12079 2.69807 20
823 2 0.443913 16.4821 -8.09422 12
824 2 11.3397 5.12085 4.81594 21
825 2 -4.43495 15.2551 -8.06673 16
826 2 12.2321 6.32713 -6.75573 18
827 2 -13.3137 -2.80718 -13.0873 10
828 2 -10.2031 -5.09671 -10.4053 22
829 2 3.38948 1.46504 11.3211 20
830 2 8.78211 -0.741359 -10.238 17
831 2 3.72152 -14.7976 2.54839 17
832 2 -5.75347 9.03928 -2.32381 20
833 2 -13.7613 0.603475 -5.33842 15
834 2 14.4011 4.41406 6.29568 17
835 2 7.56351 -9.63902 -8.64651 20
836 2 -9.06223 -10.9378 -4.38007 18
837 2 -10.6168 -5.5092 6.11131 17
838 2 -2.47297 -12.2078 2.89771 18
839 2 12.2761 -7.32502 7.5114 10
840 2 -2.17961 -11.8796 -10.564 13
841 2 6.28097 -1.21065 15.0628 12
842 2 -0.268053 9.51285 -11.1792 19
843 2 3.08251 -18.0854 3.81708 11
844 2 -12.5507 -11.3087 -5.71121 10
845 2 0.782552 8.8801 13.2858 16
846 2 -7.71144 7.21734 1.01595 18
847 2 0.249097 4.41248 14.5487 16
848 2 -4.17009 8.87023 -5.47615 21
849 2 9.66426 -11.6087 -1.79945 18
850 2 -1.86369 4.80198 9.89694 19
851 2 -0.520661 12.1313 -8.20942 15
852 2 9.61028 11.7503 5.3547 18
853 2 10.4434 15.2435 -2.26169 8
854 2 11.4187 -1.6175 -8.34049 24
855 2 -4.17645 7.57977 14.1133 15
856 2 2.49367 2.23651 -15.254 18
857 2 -4.5098 8.89375 -15.389 9
858 2 11.2434 8.15513 -3.56053 19
859 2 -6.82789 -5.49147 14.7644 14
860 2 -14.4778 9.69653 5.7431 9
861 2 17.3256 0.052467 -10.5802 7
862 2 -8.84712 -7.70498 13.0494 15
863 2 -0.0325184 -7.27013 -12.8014 18
864 2 -1.67178 1.63983 -18.486 16
865 2 -13.9913 -7.96138 3.47436 12
866 2 11.6176 10.1881 -1.18097 17
867 2 -2.5809 10.1894 2.8584 19
868 2 -4.70827 -10.2521 -7.16565 19
869 2 0.833701 14.7319 4.42595 17
870 2 7.33928 1.31003 15.9574 12
871 2 1.87138 -8.18056 11.3884 12
872 2 16.7466 5.07654 8.90652 11
873 2 5.81902 15.9018 -8.48742 15