ITEM: TIMESTEP
5000
ITEM: NUMBER OF ATOMS
500
ITEM: BOX BOUNDS pp pp pp
-30.0 30.0
-30.0 30.0
-30.0 30.0
ITEM: ATOMS id type x y z Coordination
1 1 -6.86139 1.69443 -7.00457 21
2 1 7.73765 -3.50468 6.00957 15
3 1 2.84352 0.282208 6.54144 17
4 1 10.0154 0.104331 1.86297 12
5 1 -10.6644 1.23151 -2.6431 16
6 1 -3.40124 -0.814523 -7.50186 18
7 1 -0.562691 -1.30783 6.82837 19
8 1 1.0537 -4.35143 -6.90694 16
9 1 -11.1739 -1.80448 -3.10891 15
10 1 4.63706 2.23087 -8.6335 15
11 1 5.93065 -7.80832 -6.03801 13
12 1 5.22936 -0.774627 1.91809 18
13 1 1.83223 3.52714 -3.88471 21
14 1 1.30838 3.61301 1.67866 22
15 1 2.60159 3.44271 7.34416 16
16 1 -8.98087 -4.41876 2.14916 17
17 1 -9.90531 -2.49279 -0.270872 17
18 1 7.75309 -0.36407 -2.57225 17
19 1 4.28875 0.756786 9.23099 9
20 1 -4.79949 -6.97332 3.28393 18
21 1 -3.59132 -5.61082 -10.242 9
22 1 7.0902 -1.94524 -5.76259 16
23 1 6.59291 1.0387 -6.37052 17
24 1 5.70548 -7.88173 -0.61131 14
25 1 -4.38959 10.7177 2.3565 9
26 1 7.30065 0.11458 7.27458 14
27 1 0.541921 5.99653 -1.15634 20
28 1 -2.41963 0.941047 -4.77809 19
29 1 1.71708 -5.10951 -10.0424 12
30 1 -0.557475 1.993 7.43394 14
31 1 8.3037 -4.07667 2.98264 19
32 1 -5.17361 9.03606 0.178197 16
33 1 -4.28834 4.73412 1.03652 19
34 1 3.21116 7.08261 -9.20885 10
35 1 7.77076 4.95268 -3.66116 13
36 1 -2.28923 7.99405 -5.99096 11
37 1 4.45328 -4.93272 -2.2073 19
38 1 -7.33231 2.24221 -9.85828 12
39 1 -4.42194 -1.52517 -0.93695 21
40 1 -5.77097 8.52026 -2.68176 13
41 1 -0.429997 8.95836 -3.13733 14
42 1 -9.85644 4.51827 -1.69756 14
43 1 -0.805553 5.17709 8.04696 12
44 1 -4.38236 2.02819 -9.4871 15
45 1 -6.79122 -6.29865 5.15661 13
46 1 -7.83954 -2.01292 3.41774 17
47 1 -6.08457 -4.08094 -4.44517 22
48 1 3.20819 -6.07741 -4.9996 19
49 1 -6.91745 -0.653567 0.554062 19
50 1 -10.4945 -2.55053 -5.50827 14
51 1 -2.97707 -9.79056 4.65825 10
52 1 3.68449 1.75549 -5.13548 21
53 1 -5.58034 -3.04934 1.71526 21
54 1 -6.31234 -4.19505 -8.3555 14
55 1 2.39991 4.38396 -9.86345 13
56 1 -1.961 3.67009 2.8171 21
57 1 -3.13237 1.0885 4.53788 20
58 1 -6.97253 2.6182 1.45736 20
59 1 1.11441 -5.28817 -2.41776 17
60 1 -3.14948 6.7728 -1.7654 17
61 1 -9.77234 2.61279 0.427669 13
62 1 2.18814 6.23537 6.60539 11
63 1 4.97277 -1.82723 6.89958 20
64 1 -0.544294 -8.8028 -6.75579 14
65 1 10.0546 0.847987 -4.84373 9
66 1 -2.86075 -12.0694 -1.54916 7
67 1 -0.866903 -9.57792 -0.769538 15
68 1 2.76094 -4.71428 6.00987 18
69 1 -0.474778 -7.14921 6.84826 12
70 1 3.62727 10.2243 -0.536875 9
71 1 -8.30114 -7.67173 2.64486 10
72 1 -4.43218 -9.18253 -2.72247 16
73 1 -3.26879 -4.31158 1.29027 22
74 1 0.178854 -4.45046 1.4823 20
75 1 -7.52339 -6.33017 -2.49805 21
76 1 0.0764169 5.99832 -8.05357 17
77 1 2.65398 -5.16866 0.00310244 19
78 1 -4.28536 -5.01255 6.10351 17
79 1 -8.10457 -0.128377 5.09762 15
80 1 4.68584 -8.93699 -3.6894 13
81 1 -3.18409 -1.29218 2.15072 21
82 1 -0.351353 -2.02743 3.44362 23
83 1 -9.8008 1.13458 2.68676 13
84 1 -2.62682 9.64046 -0.839053 10
85 1 -7.72079 8.91864 2.02085 10
86 1 0.698312 1.34056 5.02972 21
87 1 -5.08214 3.51363 3.58895 21
88 1 -9.05147 -4.40773 -7.09915 13
89 1 5.30535 -2.6632 3.8396 21
90 1 -8.62082 0.166833 -4.44984 20
91 1 -6.46778 -1.59519 -5.88857 20
92 1 7.80861 -0.760347 4.55346 17
93 1 -6.50931 4.02904 -4.08598 17
94 1 -4.3967 -3.40272 8.21623 12
95 1 -6.1713 -0.929531 -8.80706 13
96 1 -11.2925 0.749621 -5.75719 14
97 1 -1.93501 -8.8257 2.27881 15
98 1 -1.5262 -5.04112 -4.87994 18
99 1 -5.32925 8.16859 4.02448 13
100 1 5.26113 0.668047 4.35779 18
101 1 -4.28139 3.38714 -1.62885 20
102 1 -4.03188 -9.23349 -5.65819 14
103 1 -2.55705 6.23272 3.80014 18
104 1 3.0387 3.14229 -1.53729 19
105 1 -9.37344 3.20087 -4.8973 21
106 1 -10.9201 5.40439 -5.37987 9
107 1 -3.6607 -7.47581 -0.115556 17
108 1 2.61254 -4.52322 2.96024 23
109 1 -7.54519 4.58686 -7.13844 17
110 1 -5.6161 2.22465 6.45193 11
111 1 -8.14361 3.24262 4.52143 12
112 1 1.13662 -8.59287 -9.24307 10
113 1 0.021923 -4.54295 8.44858 13
114 1 -2.62584 -6.22722 9.11487 12
115 1 2.82531 -9.39805 -6.31133 11
116 1 7.67147 0.942362 -0.0652134 19
117 1 -6.40719 5.6128 -0.933966 22
118 1 3.44828 -0.586689 -10.2482 11
119 1 -1.46074 3.50102 -0.182429 21
120 1 7.03757 -6.33961 4.62804 12
121 1 -4.38831 -6.44336 -4.25943 18
122 1 -10.7864 -1.76275 3.08878 12
123 1 6.12537 5.3267 2.34312 17
124 1 8.50267 4.57992 -0.284525 13
125 1 1.29029 1.1601 -9.83012 12
126 1 -2.94554 5.71074 -8.77931 10
127 1 0.756874 8.67219 -0.229772 12
128 1 1.78925 2.87918 -7.39484 18
129 1 -2.03162 -11.774 1.43719 7
130 1 5.41358 4.2588 -0.980372 17
131 1 7.65632 -7.88756 -2.97157 9
132 1 1.13198 -8.35353 -3.72724 15
133 1 -10.0502 2.73348 -8.05989 13
134 1 3.35759 3.35616 3.6204 18
135 1 10.2591 -4.2677 0.450456 9
136 1 -0.832746 3.71956 -5.65276 21
137 1 -4.01882 5.82703 -4.9144 16
138 1 6.56503 -4.2702 -7.79131 13
139 1 -0.163189 -7.07043 0.588128 19
140 1 -6.53242 -3.32971 6.33871 13
141 1 -1.59496 -9.72862 -4.10002 13
142 1 4.04547 -6.59489 -8.15663 15
143 1 5.21063 8.65266 -2.48292 10
144 1 4.1515 -7.42251 2.02429 12
145 1 4.73774 -0.899584 -3.92049 21
146 1 -7.47164 -4.00114 -0.767799 21
147 1 -6.89387 -6.84857 -5.95521 17
148 1 1.9759 -2.32704 7.73713 15
149 1 -3.13073 -0.157679 8.08769 14
150 1 4.44589 -3.68657 -9.86239 12
151 1 -7.60474 1.72193 -1.65599 18
152 1 4.33189 7.41499 -5.55508 13
153 1 5.98146 2.36274 -3.34225 20
154 1 -1.38414 3.28818 -9.95928 11
155 1 -6.96821 5.73073 2.49384 14
156 1 5.30418 -5.28375 6.80187 12
157 1 2.4161 0.580356 2.45576 20
158 1 -8.86269 -0.549879 -7.68378 17
159 1 8.74379 -7.04754 1.52028 9
160 1 -1.46386 -7.13899 -2.52897 19
161 1 5.28904 5.1443 5.59002 11
162 1 0.900107 -6.73905 3.69421 16
163 1 -0.403318 -4.26805 5.29935 21
164 1 5.12881 2.27394 1.43124 19
165 1 9.39248 4.40457 2.86181 9
166 1 5.29176 -0.33477 -1.18416 16
167 1 7.69563 3.54547 5.41256 12
168 1 -3.91794 -6.41145 -7.25463 18
169 1 3.24052 6.07113 3.06317 18
170 1 -4.39088 2.75333 -6.04352 20
171 1 -5.20169 6.27223 -7.55264 12
172 1 -3.2248 -3.2226 4.41615 17
173 1 -2.4631 -8.82786 -9.32145 9
174 1 -6.88106 -8.50788 -0.733621 10
175 1 3.18327 6.07267 0.162347 19
176 1 -2.50871 3.42957 5.92235 19
177 1 -9.92872 6.24707 0.74796 9
178 1 6.10482 4.45653 -6.50333 16
179 1 5.81279 2.97108 8.03849 10
180 1 -5.40379 0.758773 -3.49128 20
181 1 -1.3157 -3.1652 -9.25734 14
182 1 0.471058 4.71565 4.67457 22
183 1 4.52427 -3.80869 -5.64861 18
184 1 2.60005 10.3049 2.18935 7
185 1 5.6779 -4.36409 0.929065 17
186 1 -0.401201 8.02015 6.99205 10
187 1 6.33936 -1.09534 -9.03095 11
188 1 3.70649 -7.52035 4.88772 10
189 1 -1.30841 1.55872 -7.83396 16
190 1 1.91715 -1.32084 -5.29661 15
191 1 -3.81019 1.56413 1.04307 24
192 1 10.6431 0.490578 -1.31747 11
193 1 0.305193 6.25623 -4.48865 18
194 1 2.61448 -1.33885 4.4098 24
195 1 9.0487 3.45383 -6.1699 9
196 1 -1.61973 -2.51019 9.54764 10
197 1 -5.73245 -6.88251 8.49101 10
198 1 -8.61477 6.42629 -3.22937 15
199 1 5.28921 8.38032 1.10025 11
200 1 -9.20162 -4.76066 4.85422 10
201 1 8.24834 -2.01487 0.110925 18
202 1 -6.5401 -5.9936 1.09987 20
203 1 9.82217 1.31243 4.7394 9
204 1 7.65992 -5.41068 -0.95497 15
205 1 2.82234 6.66463 -3.06061 24
206 1 -0.0355083 6.4048 1.9594 20
207 1 -8.89501 -3.93723 -3.39451 19
208 1 -1.55768 4.3216 -2.90901 21
209 1 1.47276 8.02155 -6.32754 16
210 1 -7.52146 -1.67535 -2.84866 22
211 1 1.1214 -2.00492 -8.43057 15
212 1 -7.58244 -9.0048 -4.17148 11
213 1 -1.88728 -6.40633 3.96056 19
214 1 6.83458 -3.15612 -2.1474 17
215 1 -11.67 -0.19249 0.150888 11
216 1 -4.90195 4.67955 -10.6633 10
217 1 -9.94655 -6.36694 -4.67598 13
218 1 10.3064 -2.36098 3.52921 9
219 1 -3.56239 -3.83025 -6.89161 22
220 1 -8.31905 8.1057 -0.844993 13
221 1 -5.17144 -0.985035 5.64011 18
222 1 -1.03459 -5.97984 -8.58227 19
223 1 4.70347 5.09677 -3.81164 19
224 1 11.0097 2.9095 0.231142 11
225 1 -2.81351 -9.19534 7.50007 10
226 1 4.26623 -0.848163 -7.20618 21
227 1 2.8225 5.17118 -6.44954 25
228 1 0.723919 7.96628 4.19286 14
229 1 2.90689 10.3362 -4.14897 10
230 1 10.4155 3.54416 -3.14544 11
231 1 -1.98297 -4.1128 -1.5474 18
232 1 -5.58268 0.183649 2.88505 22
233 1 6.75975 -5.37209 -4.68712 16
234 1 -1.10006 -1.90457 -6.20151 19
235 1 -3.03647 7.52175 6.73077 10
236 1 -3.99787 -2.41092 -3.86839 21
237 1 -2.188 8.85733 3.93639 12
238 1 -5.66348 -8.87261 5.41712 11
239 1 2.54229 -8.60136 -1.0543 15
240 1 -10.7835 -5.00099 -1.41534 11
241 1 -7.85203 7.67935 -5.78559 10
242 2 -9.36963 -0.428605 3.76069 13
243 2 9.47795 3.20391 4.51962 8
244 2 1.14489 -4.26252 7.04029 14
245 2 -5.04272 -2.81085 -5.6474 20
246 2 -9.41685 2.54224 -1.4295 16
247 2 -0.858472 -9.17934 7.26124 8
248 2 3.94878 2.45301 8.52052 9
249 2 6.37524 -3.73298 2.62506 21
250 2 -4.7801 -3.8313 -2.95595 20
251 2 -4.38404 2.59714 5.25031 18
252 2 -3.57972 4.85199 2.91917 22
253 2 3.95769 -1.44001 -1.85567 18
254 2 4.53695 -9.06927 -5.50414 12
255 2 -4.1472 0.258054 -8.99426 14
256 2 0.751603 -6.67806 -9.33983 14
257 2 -2.05498 -2.40873 -4.59814 20
258 2 -4.45109 -6.05013 1.62796 20
259 2 -3.36912 10.1008 0.731656 9
260 2 9.87142 -3.04935 1.95702 12
261 2 5.94874 -4.34044 -0.931066 18
262 2 5.13139 8.31083 -0.690628 12
263 2 -1.82303 6.72742 8.05537 10
264 2 4.51109 10.0858 1.45602 7
265 2 1.51433 7.25833 -8.25428 12
266 2 4.35287 -2.05025 -10.8699 8
267 2 -10.2387 0.970719 -7.36113 15
268 2 -0.901902 -6.22551 8.29018 12
269 2 -10.8765 1.25858 1.04604 12
270 2 5.68282 -6.17643 -7.09439 15
271 2 -2.82725 -10.6979 -2.90003 12
272 2 7.0398 -3.94087 -5.83303 13
273 2 0.694174 5.00997 6.87852 16
274 2 4.40881 -3.51069 6.73369 15
275 2 -4.10594 -9.78211 6.18892 9
276 2 3.19273 -3.21599 4.42885 20
277 2 -2.03434 -11.1271 -0.340259 11
278 2 -1.59536 0.0674313 -6.69455 16
279 2 -0.893441 -5.02504 -2.7048 17
280 2 -9.01647 -6.03756 3.1948 11
281 2 -7.61557 -8.15929 -2.46984 13
282 2 -6.5543 -7.93081 3.94769 13
283 2 -4.14091 8.51981 -1.59538 12
284 2 6.33054 -0.739981 -7.00094 16
285 2 8.94651 4.68446 -2.15723 12
286 2 3.66733 5.64967 -10.4594 6
287 2 -6.0966 2.7536 -2.62361 15
288 2 -7.43934 2.96901 -5.56372 21
289 2 6.67889 4.88852 0.378341 15
290 2 1.40292 6.91313 0.292201 17
291 2 -6.17514 10.0796 1.34044 11
292 2 -0.551372 4.33541 1.66273 20
293 2 -0.785985 9.03523 -1.02105 11
294 2 2.15373 6.28146 -5.04139 20
295 2 -1.86219 3.58434 7.76874 11
296 2 -6.56262 -1.27814 2.10328 21
297 2 3.50628 -0.787564 8.14071 14
298 2 3.55387 -5.20107 -9.52458 12
299 2 -2.06094 -9.49172 -5.98289 13
300 2 -0.718481 -5.26018 -6.69184 18
301 2 -4.35561 -0.39594 0.823236 21
302 2 -9.62783 -5.83074 -2.68459 13
303 2 7.52915 -5.66741 -2.89348 14
304 2 4.66358 6.69246 1.59219 14
305 2 -0.483723 1.58245 -9.6897 12
306 2 1.73515 -0.576199 -9.26706 12
307 2 2.18439 0.756465 -5.17485 16
308 2 -2.69798 -7.05172 -8.68556 15
309 2 2.99584 -4.6648 -6.19578 16
310 2 8.48226 1.34171 -6.01556 13
311 2 -5.08612 -5.28827 4.31204 20
312 2 0.904344 -3.77298 -9.06008 15
313 2 2.84355 3.33137 -5.92393 18
314 2 -0.506855 -9.01244 -8.63114 9
315 2 -0.596466 6.92935 -6.13937 18
316 2 -1.53221 4.64905 4.7329 23
317 2 -7.70449 -7.99815 0.98628 13
318 2 -7.36644 1.1968 0.22882 17
319 2 -4.52427 5.44042 -0.883162 18
320 2 -7.60657 -4.63812 5.81223 15
321 2 -3.91249 -3.20227 2.77543 22
322 2 -9.9841 1.49836 -4.43335 17
323 2 3.81807 -6.28069 6.20744 13
324 2 6.59637 1.18985 -1.81782 17
325 2 -2.35826 -2.38588 -7.71234 17
326 2 2.75357 4.82459 1.66344 21
327 2 1.87689 9.25058 3.57362 9
328 2 0.133522 -2.25232 8.57829 13
329 2 -6.49748 7.39445 2.71606 14
330 2 0.787676 -0.00276761 3.56259 20
331 2 -9.68679 -2.53437 -7.37458 13
332 2 0.875434 -2.18771 -6.54908 17
333 2 11.346 1.27482 1.00309 8
334 2 -10.7328 -1.42323 1.14735 14
335 2 -4.84039 4.29235 -4.98898 19
336 2 4.68301 0.246866 -8.91856 12
337 2 -10.0249 4.39204 0.225502 11
338 2 0.027873 -6.27112 5.27683 17
339 2 4.57518 7.18079 -3.68247 15
340 2 2.06498 -6.48999 -3.63385 16
341 2 -0.414377 -8.7757 -2.7145 18
342 2 -6.36759 8.01976 -0.825719 17
343 2 1.06916 -5.91434 -0.451268 19
344 2 0.75553 -8.63462 -0.427553 14
345 2 1.41168 6.10588 3.67265 21
346 2 -7.34335 8.03325 -3.96386 10
347 2 -4.86107 -5.24591 7.88813 14
348 2 -3.18564 -8.13223 3.62155 14
349 2 -1.28058 -1.2753 1.83931 22
350 2 -4.6272 -3.04782 6.08661 17
351 2 -1.24885 5.46312 -9.46495 13
352 2 9.79696 0.187452 -3.05124 12
353 2 1.4677 -1.37103 6.05804 20
354 2 -6.68559 -5.75435 -0.860559 21
355 2 6.12641 4.47669 -2.84075 17
356 2 1.06101 7.58163 6.06371 12
357 2 3.99943 -1.8948 -5.43233 18
358 2 -9.76612 -4.40362 0.323702 16
359 2 1.41378 1.60321 7.01015 17
360 2 -4.29383 1.16312 -4.90063 21
361 2 -7.24003 -3.85786 -2.62271 22
362 2 6.08242 1.01735 8.41827 11
363 2 1.58057 2.7503 3.78091 22
364 2 2.72439 2.42109 -8.9786 14
365 2 9.79528 -5.93214 0.247409 9
366 2 3.49942 4.75687 6.34889 15
367 2 3.69518 -4.55127 1.43394 18
368 2 -3.07421 -6.00435 -1.30726 17
369 2 -3.27006 3.18184 0.230907 20
370 2 -11.5238 -0.95224 -4.99977 12
371 2 -9.46033 6.80153 -5.50192 10
372 2 -7.94597 3.23917 -8.43909 15
373 2 -7.66785 -1.99966 -0.750844 22
374 2 -6.04284 -7.48094 6.64096 12
375 2 1.82907 10.1141 0.32534 10
376 2 -4.48217 -4.76669 -8.51434 14
377 2 9.22732 -0.34201 0.0993898 15
378 2 -9.58358 6.71567 -1.29379 11
379 2 7.05089 -6.92513 0.792734 17
380 2 -2.32558 -4.90805 5.00557 18
381 2 -6.21202 -6.01153 -4.04771 23
382 2 -1.55859 8.85812 -4.54827 13
383 2 -8.6767 7.79445 1.06912 12
384 2 3.26179 5.04919 -1.48398 20
385 2 -3.77296 -7.74548 8.65612 12
386 2 -6.21463 4.67369 0.949329 18
387 2 -2.61447 2.82468 -2.27921 19
388 2 -1.34089 0.189796 7.76644 15
389 2 -10.4501 3.85718 -6.69707 11
390 2 3.70551 10.0006 -2.51089 9
391 2 -6.87464 4.52747 3.96514 14
392 2 -1.08485 -2.55875 5.24816 20
393 2 -6.6738 -2.43972 -7.69047 15
394 2 -0.082702 2.96297 -7.13998 19
395 2 -3.04694 -7.80342 -3.59582 18
396 2 -5.22893 2.52809 -7.77908 20
397 2 6.924 -1.84141 6.70773 15
398 2 -1.30967 1.60511 5.51511 19
399 2 9.52679 3.7502 1.1101 12
400 2 2.74367 -6.94134 3.17484 15
401 2 5.5665 0.885964 -4.63847 18
402 2 4.67898 4.67442 3.86747 14
403 2 -7.3864 0.105191 -3.00163 20
404 2 -2.42288 2.73222 -6.06143 16
405 2 -5.40155 1.92242 2.35144 22
406 2 -9.66894 -4.57958 -5.18678 17
407 2 -2.01582 -8.14854 0.466145 17
408 2 -0.769105 4.83911 -1.32624 18
409 2 -8.64914 2.38857 2.81254 16
410 2 -9.579 -3.20676 3.60537 14
411 2 -5.54288 -9.39618 -4.5111 14
412 2 6.41027 4.14191 6.70395 11
413 2 -2.70571 5.87764 -3.54815 18
414 2 -4.89512 6.11472 -9.30923 10
415 2 4.68156 5.42396 -6.02959 17
416 2 2.807 -7.95347 -7.67893 14
417 2 6.2749 -0.721189 3.59362 19
418 2 4.12703 1.59892 2.90627 17
419 2 0.154138 4.41296 -4.18857 19
420 2 -7.58132 0.0624389 -6.13005 22
421 2 -2.13168 -4.51885 -9.90461 12
422 2 -7.44554 -5.5087 -7.08348 14
423 2 -1.66545 8.49614 5.73425 11
424 2 -3.43834 6.50136 -6.82366 15
425 2 -7.08534 6.3401 -6.74932 14
426 2 -3.88026 7.31898 5.04667 11
427 2 1.73477 4.96542 -8.09905 16
428 2 5.71093 -2.78064 -8.82333 14
429 2 -4.64895 -3.37858 -0.0788364 23
430 2 -9.74216 4.81678 -3.79025 14
431 2 -3.37939 3.56014 -10.0281 11
432 2 2.55698 -4.07566 -1.61113 16
433 2 6.83332 -4.95884 5.97008 13
434 2 -4.07604 -0.673149 3.91125 20
435 2 -3.39506 -5.31897 -5.58485 20
436 2 -7.1532 1.59963 5.33559 14
437 2 3.25358 -1.40194 2.25619 20
438 2 8.49828 -6.04875 3.44331 12
439 2 -11.0346 -0.542034 -1.65285 16
440 2 -3.38877 -1.83955 8.75577 11
441 2 -2.4979 -10.6378 2.7635 7
442 2 9.55371 -0.382133 3.64998 12
443 2 1.01642 -9.00902 -5.63674 13
444 2 -3.97085 9.4844 3.65815 12
445 2 -7.40008 0.468453 -8.86918 14
446 2 -7.0171 -1.60676 5.35315 14
447 2 5.40028 -7.12212 3.95697 12
448 2 4.305 3.0197 -0.0872464 22
449 2 5.70985 2.72681 -7.00563 18
450 2 7.58541 4.68846 3.29031 12
451 2 -6.90144 5.40279 -2.93495 21
452 2 8.38707 -2.68365 4.35232 13
453 2 4.82094 -5.27804 -4.14202 18
454 2 -7.06776 -4.16354 1.46106 21
455 2 6.72625 -1.78068 -3.81416 18
456 2 6.13428 -8.48047 -2.23448 14
457 2 5.8265 0.514671 0.755902 16
458 2 6.8567 -1.4864 -1.09691 16
459 2 -4.7338 0.420391 6.99179 14
460 2 3.97072 3.05412 -3.53776 21
461 2 -10.5727 -3.3123 -1.98938 17
462 2 4.04961 -0.467801 5.37435 22
463 2 -9.10858 -1.88183 -4.15532 21
464 2 4.03163 -8.1952 0.20863 11
465 2 3.08028 8.75774 -5.73633 14
466 2 10.7376 2.54268 -1.57145 12
467 2 7.65852 4.4497 -5.50746 13
468 2 -0.498473 -6.18832 2.50488 16
469 2 0.904146 -3.38511 2.78962 21
470 2 8.39052 -3.90515 -0.203143 15
471 2 2.94708 -8.83444 -3.04457 13
472 2 -5.13076 -7.48807 -6.50629 16
473 2 0.879063 7.1717 -2.85516 21
474 2 -1.11093 7.47978 3.16307 17
475 2 -4.96633 -8.82654 -0.920397 17
476 2 -2.56556 -4.17887 9.15136 11
477 2 -2.52545 1.64251 2.7715 23
478 2 8.2875 1.49698 6.17162 12
479 2 10.2046 3.05377 -4.78588 9
480 2 -6.39832 3.54159 -10.8652 8
481 2 -8.54754 -7.76779 -5.47808 12
482 2 7.38182 -7.35818 -4.73487 10
483 1 -0.855159 -1.7796 -3.12694 19
484 1 -4.7165 -4.96759 -1.2863 21
485 2 -1.88133 -2.07959 -1.57137 19
486 1 -0.653778 -1.51194 0.0589033 19
487 2 -1.40074 -3.99933 0.450831 20
488 1 -2.15514 1.10512 -1.81361 20
489 2 -1.07084 0.575641 -3.39464 19
490 2 -4.60929 -0.985037 -2.79409 20
491 1 -0.798033 0.841563 2.0196 22
492 2 -0.875493 0.57218 -0.254325 19
493 1 2.22508 -2.1444 -1.96665 16
494 2 1.13032 -1.5224 -3.5252 18
495 1 1.93216 -2.22742 1.26739 21
496 2 1.25037 -1.39617 -0.460663 20
497 1 1.13351 0.638751 -3.46685 19
498 2 1.52681 2.07225 -2.16529 19
499 1 1.24039 0.575245 -0.456157 20
500 2 1.19619 1.64427 1.22762 22
