ITEM: TIMESTEP
26000
ITEM: NUMBER OF ATOMS
2000
ITEM: BOX BOUNDS pp pp pp
-30.0 30.0
-30.0 30.0
-30.0 30.0
ITEM: ATOMS id type x y z Coordination
1 1 -11.6935 4.3004 -11.8065 16
2 1 -3.12521 -9.62238 -12.3568 19
3 1 2.89586 14.6138 11.8703 9
4 1 9.22619 -13.4233 3.11854 7
5 1 -12.8622 7.14662 -3.37976 16
6 1 4.546 -10.1976 -12.0633 19
7 1 -12.1074 1.42653 -10.8065 22
8 1 1.47001 -8.74602 7.46319 18
9 1 -8.41015 -2.37232 -14.294 19
10 1 -13.2298 -13.604 0.155187 9
11 1 16.1107 -4.81685 -8.49442 8
12 1 -5.0868 -13.048 0.066272 21
13 1 -13.6998 -7.84959 0.637131 19
14 1 2.15208 2.73678 15.0732 14
15 1 0.132006 4.53936 8.0298 19
16 1 -3.41812 6.56296 -15.2287 17
17 1 3.4284 -1.39574 9.52976 19
18 1 -9.41029 0.991865 -15.4983 16
19 1 -16.2164 -3.61061 6.55131 11
20 1 14.6879 3.94242 7.31582 14
21 1 1.86609 10.6733 -12.7757 22
22 1 10.8637 3.51634 -17.4856 13
23 1 12.7862 9.7949 7.06817 18
24 1 -14.2745 3.48469 -10.2017 15
25 1 -11.8599 8.94762 5.73263 13
26 1 4.3979 -11.6398 -0.118409 17
27 1 4.35524 -13.5237 -12.5758 11
28 1 9.69167 -13.2832 -3.76925 12
29 1 -8.1437 -13.2672 -11.2206 11
30 1 -14.9236 -3.40028 9.5105 13
31 1 1.10644 -6.01162 -15.6634 21
32 1 9.18793 -8.20827 -12.5373 15
33 1 -0.387217 4.33938 -18.9793 20
34 1 -0.831404 1.08828 9.38691 20
35 1 -0.946571 -12.3407 3.79935 20
36 1 2.58874 -3.24098 11.9181 19
37 1 -11.3587 -2.52824 -2.24583 22
38 1 -14.2462 0.672223 4.33009 15
39 1 -7.34208 12.7507 -2.81872 16
40 1 0.768167 -11.7613 -15.7739 10
41 1 8.48397 -2.93968 -12.6026 20
42 1 -2.71098 -4.59822 11.5203 18
43 1 -12.6875 7.16059 -0.299246 17
44 1 4.86642 12.2702 -14.2445 16
45 1 2.11599 10.7048 13.2097 17
46 1 -7.00678 6.52435 -10.491 19
47 1 -1.21945 12.5167 -3.10527 21
48 1 2.3984 -9.5491 1.21451 20
49 1 5.48494 -8.78664 -7.18375 19
50 1 2.25774 -7.34263 -20.2693 8
51 1 -10.5473 10.1583 8.35211 11
52 1 -12.239 -4.01559 -11.1674 19
53 1 -6.95125 6.23714 -7.02109 21
54 1 -8.55586 -7.75686 2.7143 21
55 1 0.258617 13.9478 8.61702 10
56 1 -11.4123 4.01398 -8.64904 18
57 1 -9.0893 8.83431 6.075 18
58 1 -2.20743 -12.1337 7.52871 15
59 1 6.59192 -13.8221 -4.20484 17
60 1 5.73934 14.3264 10.7896 14
61 1 -14.8176 1.76819 -12.7603 11
62 1 -15.5679 5.49702 -7.169 9
63 1 4.97556 6.84554 9.83275 22
64 1 11.9546 -4.16747 -13.4174 14
65 1 8.98436 -10.6142 0.0879088 17
66 1 -16.4228 -5.96312 0.630521 11
67 1 7.8585 13.7862 4.48376 10
68 1 5.69777 -1.84976 12.8035 13
69 1 -10.1941 -10.3188 3.39849 20
70 1 10.8954 0.592359 10.3425 15
71 1 -5.34048 11.8518 11.472 10
72 1 -2.41945 -6.95911 -10.9574 22
73 1 -15.0151 7.68995 6.4905 8
74 1 -10.5703 11.8358 -1.96944 15
75 1 -1.25344 7.55235 -9.96489 17
76 1 9.37236 9.19251 -7.31079 19
77 1 4.35639 -8.14003 6.03699 17
78 1 -4.66981 14.2883 -2.18611 18
79 1 -9.79861 11.7942 5.4694 8
80 1 -12.1118 -4.78673 9.83679 14
81 1 -2.5975 10.2307 3.65615 21
82 1 -9.72201 -7.41135 5.51692 18
83 1 10.7797 -9.01519 -3.76564 18
84 1 -8.50194 3.02629 2.4449 20
85 1 -13.6082 -15.5653 3.35782 5
86 1 7.15756 -11.9956 -8.68794 19
87 1 5.92398 -0.812103 -15.4119 18
88 1 -0.161206 -0.790663 -19.2927 18
89 1 -0.733633 11.617 -0.0782042 18
90 1 -8.60052 3.55416 -10.4472 21
91 1 6.35428 11.5851 16.2789 11
92 1 -0.822151 9.89757 -12.1102 19
93 1 -17.0336 7.56245 1.26338 10
94 1 -5.52193 -7.58198 4.76685 17
95 1 10.7002 -2.47931 10.0001 10
96 1 5.45139 -3.26696 -13.9971 21
97 1 4.40382 0.209299 15.4087 10
98 1 -7.83125 -7.76252 -3.88564 20
99 1 -8.12838 -7.34194 -7.39221 20
100 1 7.88984 -8.78138 -2.91782 23
101 1 10.7767 6.42685 -17.7239 9
102 1 8.6173 15.1965 -7.4373 7
103 1 -6.21208 -8.22364 8.66904 14
104 1 -8.02886 -10.9305 10.2643 12
105 1 5.30772 -5.15006 -19.9883 9
106 1 11.3513 -10.9665 -1.96039 12
107 1 -3.45095 -16.7443 4.74121 11
108 1 -7.8495 -12.5704 -0.772705 18
109 1 16.0981 5.59966 9.88663 11
110 1 11.062 -3.48309 -7.2423 23
111 1 -12.5607 -8.02484 4.31357 17
112 1 10.9272 6.51984 3.48687 20
113 1 13.3991 9.87274 -0.159264 15
114 1 -7.2323 4.9637 13.0925 11
115 1 -6.41652 9.26645 7.80855 16
116 1 -4.95976 12.3699 -9.48675 21
117 1 0.507063 -5.80378 -12.5717 22
118 1 8.30954 -10.3319 -10.97 13
119 1 -1.46664 12.9236 -10.3757 20
120 1 5.97115 1.18203 13.2292 16
121 1 2.39887 2.45212 -19.0523 21
122 1 -5.99754 9.09256 -12.5414 15
123 1 10.9435 1.78816 -7.30286 22
124 1 -8.80316 8.95212 -6.71105 22
125 1 -5.84372 12.5484 -6.77757 21
126 1 8.08491 1.96354 -12.382 19
127 1 8.15221 -7.76436 2.02858 18
128 1 0.925352 14.0428 5.53467 15
129 1 13.5902 3.82289 -16.3683 9
130 1 3.63979 12.558 -5.06327 21
131 1 -5.59974 18.1714 -2.46154 8
132 1 15.1707 4.13265 -9.19274 14
133 1 -3.86863 9.93952 -6.52818 17
134 1 -3.08556 15.8525 -9.67838 15
135 1 3.15886 11.6138 -16.7826 10
136 1 -8.08309 -12.1583 2.44968 18
137 1 -14.0879 4.59069 -0.930267 18
138 1 -5.72407 -1.41878 -15.2456 23
139 1 -3.28516 -8.89209 -18.703 13
140 1 8.10779 11.441 1.37332 19
141 1 2.19787 19.6304 -0.90513 10
142 1 -11.8365 -4.76702 -7.20217 22
143 1 -15.1876 11.0978 -2.16762 12
144 1 13.5031 -3.68411 -2.00491 16
145 1 -11.1481 3.3378 -16.5412 10
146 1 7.36591 2.9529 14.6162 12
147 1 2.25622 20.1465 -3.64823 12
148 1 -3.15215 9.30909 6.49024 20
149 1 -0.00167643 -4.04457 -20.7933 12
150 1 1.83038 11.6473 6.82578 22
151 1 -9.37833 16.3581 -10.0163 6
152 1 2.35679 -3.80132 8.50667 21
153 1 -10.9375 -7.73811 -2.17272 18
154 1 2.33809 -9.08087 -16.5601 16
155 1 -12.3021 8.5028 -11.6276 8
156 1 -6.51498 -16.2891 4.63719 10
157 1 2.43302 -10.9289 -7.29908 20
158 1 -2.81911 9.30085 -17.4446 10
159 1 -11.5457 0.176708 5.963 21
160 1 10.5987 6.49029 -8.15181 18
161 1 -8.22566 7.26372 9.26355 15
162 1 -1.05423 -9.84133 5.92456 19
163 1 1.05207 18.0978 -6.15397 15
164 1 -1.08179 7.53382 6.39025 19
165 1 13.0465 9.78122 11.042 13
166 1 -9.96824 11.8122 1.14085 11
167 1 13.1569 -9.34318 -7.27075 11
168 1 -5.21267 12.2892 7.88522 13
169 1 10.8916 -6.33781 1.86027 17
170 1 -14.2977 -2.15264 2.81542 16
171 1 -6.45352 -14.5883 1.97693 19
172 1 4.5457 8.01792 12.0514 23
173 1 -15.2088 0.34442 -5.90913 14
174 1 -2.576 -13.3613 -4.56421 21
175 1 0.264987 9.77577 1.94045 18
176 1 4.65179 13.7051 5.56087 17
177 1 -8.03507 13.8245 -9.69716 15
178 1 -14.4415 -4.65928 -9.27683 16
179 1 -5.30667 -3.78757 9.66603 17
180 1 -2.76549 -10.0371 0.880587 24
181 1 5.60916 -14.6018 2.33402 11
182 1 -13.3364 12.7708 -0.32081 10
183 1 15.5623 2.44516 2.86944 9
184 1 -6.57207 -3.8998 -17.0405 19
185 1 5.3146 0.443923 9.64053 19
186 1 5.30146 -16.8501 -3.62386 9
187 1 -0.315178 3.63291 -15.7235 17
188 1 2.77335 -3.61429 -15.6654 20
189 1 10.3812 1.94585 -14.5986 16
190 1 1.95386 7.16605 -14.6887 20
191 1 -6.60823 -4.90028 -10.7403 23
192 1 -8.45879 11.6257 -7.9962 19
193 1 -11.4936 -15.2812 6.33583 5
194 1 6.90387 13.0545 -9.07711 15
195 1 -8.39119 1.04335 11.3482 14
196 1 -11.7244 9.39143 -4.99325 18
197 1 8.08676 0.588754 8.424 18
198 1 5.79366 -9.62148 -17.5017 10
199 1 -6.18271 9.44978 -8.52714 24
200 1 1.70262 7.17525 -11.525 18
201 1 -4.22562 -9.70591 6.88877 18
202 1 -8.46512 3.74541 6.13433 21
203 1 -7.1698 6.69918 6.06784 20
204 1 -0.0287096 -8.67112 -7.73312 24
205 1 -8.04125 -12.4205 -3.90908 14
206 1 9.16402 -11.3879 -5.63637 18
207 1 11.9479 8.56792 13.4685 14
208 1 8.83072 9.34152 -11.0834 18
209 1 0.344485 14.6178 -1.2375 21
210 1 -12.5891 0.261269 -0.286189 21
211 1 -12.1755 9.41253 -1.58997 24
212 1 1.99603 7.21909 7.81205 21
213 1 2.67261 -16.3046 -1.86758 16
214 1 10.3704 -2.84761 -4.81554 20
215 1 -9.96169 6.25105 4.30793 19
216 1 -11.6676 -6.37533 -10.0338 18
217 1 8.63317 4.83182 -13.5957 14
218 1 5.31044 -4.64437 6.33081 23
219 1 12.5236 8.86265 -12.8147 11
220 1 -0.259723 -0.430956 -15.8093 22
221 1 -2.84241 -12.6395 1.92413 19
222 1 9.16414 -0.592529 -10.6313 19
223 1 -14.6534 -6.56776 5.9888 11
224 1 1.24142 -13.5992 -7.85206 13
225 1 -9.13412 -4.74036 -12.7397 19
226 1 2.91463 16.088 -8.72125 15
227 1 2.14185 -0.824975 -17.8688 21
228 1 2.36709 4.9843 12.4793 18
229 1 16.608 1.42401 -3.97648 11
230 1 8.93467 -5.44145 -14.4848 17
231 1 -6.22017 -4.85902 -13.8927 22
232 1 -11.0503 -1.16012 -12.8592 16
233 1 -6.02993 -12.0603 7.93945 13
234 1 14.9988 0.99897 12.3766 6
235 1 -8.05336 -6.79084 -17.3627 17
236 1 0.0610295 7.88131 -17.3273 19
237 1 1.36088 11.7616 -2.4687 20
238 1 -9.20392 -8.34173 8.66567 14
239 1 -13.4176 -6.7984 -12.5876 14
240 1 -5.5071 -7.20307 -12.4703 20
241 1 -2.24822 15.8025 -12.3833 9
242 1 -6.55459 -9.91767 -11.9044 18
243 1 4.81213 -8.2242 -15.0051 19
244 1 14.4374 -3.891 -11.098 13
245 1 12.0433 4.77643 0.821594 17
246 1 -8.72948 -4.7198 4.14363 18
247 1 -3.2229 -9.3216 -2.46717 21
248 1 8.85872 7.99858 14.2189 20
249 1 -5.63881 -17.5911 1.91649 10
250 1 -0.686763 -11.4111 -2.91797 20
251 1 -2.43636 17.4083 -7.41138 14
252 1 4.97304 5.30767 -15.0049 20
253 1 -13.6388 -5.12156 -14.9411 11
254 1 -13.1417 -7.35038 11.5398 9
255 1 6.11458 8.50501 15.6937 14
256 1 -0.843347 -11.5916 -6.11263 18
257 1 -5.04765 -6.58968 -15.9962 21
258 1 -6.87343 6.21781 -13.7668 17
259 1 11.8358 3.62103 5.45513 16
260 1 -5.62756 4.05239 -12.0207 20
261 1 -0.593767 7.14714 -13.5633 19
262 1 4.07025 -6.47619 -17.5261 20
263 1 -4.50355 15.7152 -5.30507 20
264 1 3.50044 9.30067 3.09365 22
265 1 10.6239 2.1133 3.47138 13
266 1 -11.5126 -2.34492 0.774615 20
267 1 -8.33554 -8.11848 11.6239 14
268 1 -5.57999 8.92976 1.5836 22
269 1 0.731632 -3.5793 -17.4549 21
270 1 12.9737 11.8898 -2.04049 13
271 1 5.17389 -8.54047 -3.52244 21
272 1 -0.085287 -2.23152 13.4607 15
273 1 -14.7895 -10.8398 0.532232 10
274 1 -2.23809 -13.5629 -8.05022 17
275 1 -10.7257 5.5265 12.9285 8
276 1 -14.1194 4.18017 8.79146 12
277 1 -16.1196 -5.19464 3.62871 13
278 1 -15.7467 -8.75814 3.21632 12
279 1 13.9766 -3.62567 -4.93198 21
280 1 -11.2631 -9.86406 10.0408 12
281 1 11.4489 -4.29352 -10.5637 22
282 1 5.26205 -12.8049 -7.11465 18
283 1 -0.242485 14.3203 -8.11192 22
284 1 -14.3842 9.54359 -4.62638 14
285 1 9.19875 13.4266 9.6521 12
286 1 8.44778 -8.67205 -6.02304 17
287 1 -4.26907 12.4183 1.83991 21
288 1 3.83777 -10.8072 7.40867 9
289 1 11.0877 -4.59909 3.68437 15
290 1 -2.86569 4.22445 9.80819 22
291 1 -0.285261 3.49323 11.6034 22
292 1 -2.65552 15.1453 0.851798 14
293 1 9.66841 11.1029 15.3765 12
294 1 -12.1993 9.61397 -8.05173 13
295 1 1.16624 -1.5551 -22.0929 12
296 1 3.39965 -5.89005 -14.1225 24
297 1 -12.9782 2.44546 11.2806 14
298 1 -16.5621 2.86402 -1.26993 10
299 1 -6.3392 9.72193 -1.90486 21
300 1 8.4464 -1.65585 6.36919 19
301 1 -9.94363 -13.7272 -1.94426 13
302 1 11.0691 -11.2869 3.33842 10
303 1 -10.5632 -9.60929 12.758 9
304 1 -17.1773 8.96184 -2.03124 7
305 1 2.65934 -8.58703 -9.36303 24
306 1 -2.38543 -1.37368 -13.666 21
307 1 7.74371 -3.14178 -16.3653 16
308 1 1.77747 13.7031 1.6128 18
309 1 -11.2496 -1.50691 -5.31239 19
310 1 4.60582 -11.2835 -15.6232 12
311 1 15.1736 -0.875772 -12.2424 9
312 1 -5.46125 -9.57456 -14.8097 19
313 1 -13.5414 -7.7075 -7.78052 13
314 1 10.4128 8.3532 17.0474 9
315 1 11.6615 4.81812 -5.27463 20
316 1 -9.58454 1.15999 -12.4318 17
317 1 5.25776 16.5429 -4.27844 14
318 1 -12.1451 0.916082 -7.35401 22
319 1 -7.09001 6.94848 2.519 22
320 1 -14.6979 9.73202 0.57951 14
321 1 -4.18696 6.47607 7.73949 18
322 1 7.82449 5.80374 8.6426 20
323 1 11.5462 -0.965676 -8.87191 21
324 1 5.34467 -4.38085 10.1059 18
325 1 14.6289 0.585341 -9.66235 18
326 1 -5.27905 -16.1178 -13.1055 7
327 1 -9.14315 0.674674 -9.05952 21
328 1 2.51101 -8.57275 -4.92403 23
329 1 14.1669 0.407635 5.50713 12
330 1 -9.28797 -4.95517 -9.28515 22
331 1 -6.65244 -9.67809 2.09117 17
332 1 -9.31503 -6.08456 12.7009 8
333 1 -4.04068 11.7875 -1.5025 21
334 1 -9.15909 -10.1626 -2.8231 16
335 1 4.13353 11.4776 11.388 20
336 1 -9.98569 6.04621 -2.27291 21
337 1 -7.12051 11.8402 -11.4194 14
338 1 3.13761 14.8486 -2.73157 19
339 1 -13.5125 -7.38036 -4.71303 14
340 1 -5.50333 -13.0918 -9.06576 17
341 1 -11.1763 -2.24791 4.19905 16
342 1 -8.87109 9.43854 -13.4595 12
343 1 5.45147 -9.46446 2.59189 20
344 1 -5.9377 -15.4964 -3.95943 12
345 1 10.9025 12.84 6.24813 12
346 1 4.34413 6.70031 -17.1333 18
347 1 -14.0183 4.27303 -14.4286 7
348 1 -5.7176 15.3453 -11.2698 13
349 1 -9.73131 6.40763 -8.38783 18
350 1 -3.04076 -15.6277 1.75918 18
351 1 14.6116 5.61563 4.21737 15
352 1 0.489252 10.3674 -15.0764 15
353 1 -15.4933 0.413273 -2.30254 14
354 1 -10.4494 -12.7605 4.85605 13
355 1 8.07425 -9.00887 -8.85194 21
356 1 -12.4465 0.429123 2.63382 22
357 1 -13.1428 -0.973846 12.0895 12
358 1 -16.1507 5.61276 3.85762 14
359 1 -8.29959 3.1004 -17.9552 11
360 1 3.79589 -12.633 -9.91865 19
361 1 -2.32236 -6.93101 -13.8889 22
362 1 -2.788 -4.022 7.99327 21
363 1 -3.56965 -0.063031 -19.8343 12
364 1 3.83528 -11.5909 -4.04022 22
365 1 1.09211 11.3376 -9.26256 17
366 1 -11.3076 8.74982 2.05578 19
367 1 -6.30713 -4.79843 12.2306 13
368 1 -10.661 -7.49647 -12.7827 19
369 1 -13.2511 -3.21391 6.99581 15
370 1 7.69232 -4.17239 5.23679 18
371 1 4.49321 -11.7697 3.90687 13
372 1 13.5037 5.48874 -11.6745 17
373 1 -3.72603 1.02088 11.2203 16
374 1 0.950129 12.8071 -5.47529 21
375 1 -3.43643 -15.4295 -6.60502 12
376 1 -3.43935 3.7511 12.9176 15
377 1 -0.711607 13.1226 2.86712 16
378 1 -11.0247 -10.0342 -11.2744 14
379 1 5.35969 15.2558 -6.65286 17
380 1 4.90441 6.45191 6.74128 22
381 1 -6.74329 1.43259 5.77128 21
382 1 -11.2739 -1.70822 8.70921 19
383 1 -8.48697 -7.14855 -10.9004 20
384 1 -5.86222 9.04115 4.52747 19
385 1 -9.22974 -10.6335 -14.2689 14
386 1 -0.272868 -6.24217 -18.9923 17
387 1 -6.08479 -9.53616 -0.945138 23
388 1 7.80523 -1.91863 10.7021 16
389 1 -5.45295 -7.4027 12.0667 9
390 1 -8.83867 3.91344 -13.6792 18
391 1 11.7134 7.67209 -0.284337 18
392 1 -5.00507 -12.2707 -6.54786 16
393 1 -0.636813 19.4676 -1.39385 10
394 1 -3.4978 8.57593 9.57446 19
395 1 -13.9095 -2.2359 -7.24668 19
396 1 -2.16361 18.6338 -4.61926 13
397 1 6.69039 10.332 -8.35108 16
398 1 -4.89794 -7.20076 -9.30349 21
399 1 3.8424 6.08805 15.1806 16
400 1 -3.93906 -11.4876 -17.0961 12
401 1 2.68557 -2.78908 -12.213 24
402 1 7.331 -13.1748 0.244343 12
403 1 -8.46478 10.684 2.83123 17
404 1 2.45368 9.11459 10.2556 19
405 1 5.60921 13.1668 -3.42461 17
406 1 -6.97065 8.35671 -16.1625 9
407 1 -15.2566 -5.14094 -2.46939 13
408 1 0.559763 16.8482 0.636693 16
409 1 -5.56742 3.71652 -15.3858 19
410 1 13.3941 4.77324 -3.32256 17
411 1 1.93192 14.0266 -11.041 19
412 1 13.4626 1.66105 -4.25506 20
413 1 -0.805178 1.62788 -13.8038 21
414 1 -3.11294 -13.7412 4.88299 17
415 1 0.481519 -7.94138 10.797 12
416 1 -9.71559 6.98084 -12.1356 15
417 1 -13.9008 -11.6745 3.54377 11
418 1 -5.84314 -9.39317 -18.3758 11
419 1 7.78442 13.7564 -0.510704 11
420 1 2.90559 3.42399 -13.9202 21
421 1 2.71173 -0.620353 12.986 19
422 1 -13.8147 3.86131 5.64237 17
423 1 -3.62068 -15.542 -1.47531 21
424 1 -12.0334 -4.59005 -4.03389 22
425 1 15.2598 -7.05558 -5.84367 12
426 1 11.6445 -0.591323 -2.28501 21
427 1 6.27886 -6.17096 -8.82848 22
428 1 5.70235 2.07362 -14.4074 21
429 1 11.0857 -6.4848 -15.2745 6
430 1 -3.02703 -1.66522 12.5392 14
431 1 4.88722 18.8574 -1.67047 10
432 1 -5.4911 -1.45881 -18.6915 13
433 1 7.6651 5.56593 -16.453 15
434 1 -6.58963 -3.91483 6.16749 16
435 1 -5.25736 15.0337 0.246315 14
436 1 -9.42239 -3.514 -18.2711 9
437 1 -15.5085 -0.177449 0.777394 17
438 1 -2.80288 -5.92419 -21.3046 8
439 1 -3.61574 -6.49593 9.9492 15
440 1 3.89802 10.1257 -9.45244 18
441 1 14.1684 6.63865 11.7686 16
442 1 16.5162 5.00679 -3.732 10
443 1 -10.7618 -12.7924 -5.65419 6
444 1 -0.599932 1.59274 -21.4458 13
445 1 -3.96091 12.8027 5.57152 14
446 1 12.3677 -8.99068 1.39806 13
447 1 0.0409739 16.5303 -9.80458 15
448 1 15.3954 2.32565 -11.9907 13
449 1 2.13815 7.78712 13.4185 17
450 1 -8.82983 1.069 4.59345 19
451 1 8.81987 9.02072 9.37134 21
452 1 11.4386 3.66096 11.6238 14
453 1 -1.64403 1.48746 -17.7565 18
454 1 0.666928 0.526092 15.8222 9
455 1 5.42105 15.1796 2.58717 12
456 1 6.89875 6.92713 -12.6975 19
457 1 -10.7608 13.5693 -8.3275 8
458 1 -1.76924 11.4053 -7.50358 19
459 1 7.82739 -4.12919 8.27959 16
460 1 11.9236 4.71564 -14.3957 20
461 1 12.0207 -11.1139 -5.18798 14
462 1 11.2592 11.2322 8.91106 15
463 1 -15.6453 -8.10982 -1.84697 10
464 1 -2.69617 6.45806 -19.053 12
465 1 -12.987 0.731464 8.32713 15
466 1 -9.6095 9.35396 -9.79342 17
467 1 1.37511 -12.044 -4.94093 22
468 1 6.14153 -0.19645 -12.1537 21
469 1 -4.09536 12.2985 -4.61556 20
470 1 -9.8934 -4.75312 -15.4751 18
471 1 3.0856 -15.2534 0.889467 16
472 1 -10.5457 -7.34093 -5.41838 17
473 1 1.86596 13.8746 -14.4946 13
474 1 -6.30877 8.79219 11.8797 12
475 1 -9.6032 -4.88858 7.34041 16
476 1 3.43893 -5.87869 -10.8903 21
477 1 2.30174 -6.02348 10.2735 19
478 1 -12.7611 5.60741 2.37747 20
479 1 7.43107 5.98489 16.7088 12
480 1 3.48158 18.298 -6.41919 12
481 1 12.0854 -6.3499 -5.40254 20
482 1 1.26434 11.9782 10.0453 20
483 1 1.4056 4.19122 -21.4023 14
484 1 0.962213 -11.0519 9.2971 10
485 1 8.19963 1.56703 -16.3602 16
486 1 1.25888 16.7564 -2.60828 21
487 1 12.7178 7.35542 -16.0831 10
488 1 -0.445196 -3.3981 -14.0301 22
489 1 -5.88581 -9.4218 -8.08045 18
490 1 -14.2708 -1.72901 -14.6169 12
491 1 16.9178 6.20268 -7.33787 11
492 1 14.6687 -1.01925 -3.77663 16
493 1 6.32969 -6.08503 -12.6676 21
494 1 13.7062 7.61037 9.03792 19
495 1 3.53922 -15.8643 -10.5589 7
496 1 6.38086 6.02284 -19.4709 11
497 1 8.67162 8.35595 0.513868 19
498 1 10.3193 10.4598 11.856 18
499 1 10.9356 7.65563 -3.50157 19
500 1 12.8159 -2.9174 1.42271 15
501 1 14.7887 5.33842 -14.0426 12
502 1 6.42782 6.26511 13.4062 19
503 1 15.5056 7.11493 6.66216 13
504 1 16.0088 6.6926 -10.7627 12
505 1 3.45553 2.46966 11.5328 20
506 1 13.6976 -2.45847 -7.8915 23
507 1 10.9144 0.870456 7.02413 18
508 1 -5.14596 -1.80398 -11.8261 23
509 1 15.3662 4.60659 0.752681 10
510 1 -11.1314 3.68755 8.26989 20
511 1 6.9574 11.1104 10.2919 18
512 1 11.6436 4.6071 8.67335 19
513 1 3.32738 9.14513 5.79338 21
514 1 2.40643 15.8274 3.32501 12
515 1 -5.72052 -12.6712 4.17773 19
516 1 -6.65009 10.5818 -4.98284 22
517 1 12.9688 8.15207 -10.0994 15
518 1 10.9287 -1.78741 -15.2266 10
519 1 3.06373 13.1043 -8.34056 20
520 1 -4.10955 -12.6332 -13.7314 15
521 1 7.27502 -10.8615 -14.2897 11
522 1 -14.3771 2.9032 2.60895 18
523 1 -8.66215 6.35652 -18.5414 6
524 1 -5.35458 -15.8666 -9.64763 8
525 1 -6.62337 1.06311 -14.0644 21
526 1 -11.445 3.59896 -5.52867 19
527 1 9.27743 -6.71218 -0.266515 20
528 1 10.8196 13.5914 3.15075 10
529 1 -0.404863 -9.42664 2.62963 22
530 1 -14.3321 -1.87605 -10.8865 15
531 1 4.7315 3.46063 -20.6626 14
532 1 -5.79928 2.8564 11.1411 16
533 1 7.47739 10.123 -14.4044 14
534 1 14.8616 3.03373 10.402 14
535 1 8.86701 4.09269 -10.0905 20
536 1 11.1394 11.0514 -10.5373 11
537 1 1.55854 -11.8043 -12.4991 19
538 1 -15.6024 0.0757912 10.6188 8
539 1 11.8655 -1.37934 4.33415 19
540 1 -2.79496 11.598 9.30654 16
541 1 4.36294 12.1285 -11.2332 20
542 1 -13.2709 7.48576 -5.9694 15
543 1 9.9268 10.4674 -1.85608 19
544 1 -8.5402 -10.4644 -6.07546 21
545 1 10.4898 -4.06184 -0.0870223 17
546 1 5.00947 12.8354 -0.411883 17
547 1 -5.86555 3.87355 7.70276 21
548 1 -8.40323 -8.14368 -0.631874 23
549 1 -8.75711 -2.4731 -10.8789 21
550 1 8.78515 0.6223 11.7698 13
551 1 -0.233836 -3.1648 10.5259 22
552 1 10.809 6.86465 11.1908 22
553 1 -7.8484 15.822 -1.69571 7
554 1 4.75936 2.945 -16.7154 22
555 1 -8.73331 -1.9 6.20175 22
556 1 8.72013 -0.42145 -13.894 19
557 1 10.6465 -11.0327 -8.42358 13
558 1 9.14175 4.93489 6.26935 18
559 1 -13.2345 5.38493 11.588 9
560 1 10.2729 7.02879 7.6726 21
561 1 -2.75853 -1.31927 9.30487 22
562 1 -3.34256 7.08181 11.7064 16
563 1 -2.73199 -9.29136 -15.8166 18
564 1 -7.01708 0.746852 8.73439 19
565 1 8.36087 5.04315 11.5366 17
566 1 -7.13372 -10.1086 5.36832 22
567 1 15.3397 3.37771 -5.7309 17
568 1 2.06005 -14.6953 -4.24057 14
569 1 8.68178 9.93468 -3.87327 21
570 1 9.49893 12.9922 -3.0366 14
571 1 5.05196 0.610093 -18.7072 16
572 1 7.47036 12.0758 -5.75508 21
573 1 12.3415 8.39503 -6.1955 15
574 1 -5.19879 -9.62679 -4.40751 19
575 1 -2.49097 -1.62189 -16.992 23
576 1 -8.74644 9.23771 -0.132737 22
577 1 9.05159 -5.86461 -10.5884 20
578 1 10.3556 6.57599 -11.5882 21
579 1 14.7764 11.0082 -5.24664 10
580 1 14.8169 4.28316 13.2021 10
581 1 9.36543 3.56534 9.72364 18
582 1 -1.54526 -9.098 8.85252 18
583 1 -2.68612 4.72366 -13.5084 17
584 1 2.74954 12.1265 4.05825 20
585 1 0.0142993 -8.94434 -17.6395 15
586 1 5.90267 14.9374 -11.8632 7
587 1 9.73259 9.89319 6.18376 16
588 1 14.8034 -6.06925 -2.93041 13
589 1 7.11001 10.1342 12.8706 18
590 1 -16.9488 -1.68556 4.45055 11
591 1 0.386877 -11.9243 0.780215 20
592 1 -7.42165 14.7654 -5.06174 14
593 1 5.14336 12.194 2.4126 19
594 1 -12.1623 -5.10532 -0.535936 19
595 1 -0.467382 3.93993 14.7897 12
596 1 0.580403 7.54558 -20.2399 12
597 1 0.118703 10.9725 -18.6292 9
598 1 1.74598 -13.0577 -1.51686 18
599 1 7.71613 7.0637 -9.27328 19
600 1 -11.1018 6.5336 9.7719 14
601 1 4.722 -2.40997 -17.3228 20
602 1 2.39142 -14.2289 3.88853 12
603 1 -0.92867 15.8331 -4.792 22
604 1 -1.00445 1.00845 13.3084 16
605 1 -8.03984 -7.60845 -14.3103 22
606 1 -1.97065 -5.22356 -17.0361 21
607 1 -9.78855 -9.18431 -17.4567 8
608 1 -6.27796 15.9896 -8.08706 17
609 1 -1.41026 11.8686 6.91947 20
610 1 2.62885 -8.47293 -12.0456 20
611 1 8.10087 -14.1427 -7.02448 13
612 1 2.49382 -6.30848 7.24417 18
613 1 16.7586 -1.42528 -8.84273 11
614 1 1.00064 -11.1135 -9.43816 22
615 1 -11.3574 -6.35201 2.72112 17
616 1 -2.93466 -16.8189 -4.30599 11
617 1 -7.88722 -10.9568 -9.41813 16
618 1 -10.4281 -0.739669 12.352 11
619 1 -9.80729 -13.938 1.38236 14
620 1 14.7285 -0.120012 -6.67867 19
621 1 -4.00903 15.2692 3.42871 11
622 1 -14.2099 8.47709 3.40639 15
623 1 11.3455 0.192744 1.04413 18
624 1 -15.4714 -3.9989 -12.2783 10
625 1 -3.56622 9.95741 -10.7667 19
626 1 11.3086 1.73368 -11.0328 15
627 1 4.18808 9.56451 8.49485 23
628 1 -14.7098 0.377211 -8.99939 16
629 1 -12.3401 -9.38413 -14.6811 9
630 1 -1.17405 6.32719 13.2442 16
631 1 4.51443 8.91518 -14.864 16
632 1 10.7986 12.6776 0.244311 14
633 1 -3.87084 1.50143 7.82685 19
634 1 -2.90108 -15.6748 -10.6647 11
635 1 -8.83149 -13.0628 7.13085 11
636 1 13.4779 11.8569 4.65331 10
637 1 0.359852 -8.4777 -14.3236 23
638 1 -9.20157 9.21989 -3.17781 20
639 1 7.47545 6.28304 1.69664 20
640 1 -9.37161 -5.09214 0.802634 21
641 1 10.5239 8.75415 -14.8605 11
642 1 -1.69083 -12.4352 -11.0352 16
643 1 0.725346 -17.275 0.852441 11
644 1 -0.65962 -14.8394 -3.4245 19
645 1 5.7353 4.01806 -12.1294 20
646 1 2.5113 15.384 -5.46833 22
647 1 -3.51379 1.01855 -15.5403 22
648 1 1.02746 -0.143861 10.9018 20
649 1 2.4848 9.25554 -18.5513 12
650 1 -12.5435 0.7793 -14.7621 13
651 1 -9.03464 -4.99354 -5.66202 23
652 1 -2.85281 14.3318 -7.3728 19
653 1 -3.31352 -3.62577 -19.7951 14
654 1 16.9795 2.1331 -8.30114 11
655 1 12.323 -8.15851 -1.46292 16
656 1 -9.71705 1.53877 7.92048 22
657 1 6.06543 -9.01981 -0.169456 19
658 1 13.4932 -5.76421 0.191611 14
659 1 10.8643 -3.81872 6.76117 13
660 1 0.370445 9.93119 5.03426 22
661 1 -10.1141 3.01602 13.0826 8
662 1 -8.46229 4.2754 9.49808 19
663 1 0.207195 -12.2136 6.34394 14
664 1 4.60842 13.2235 14.0046 12
665 1 -14.245 -2.45818 -4.24422 18
666 1 9.59706 -5.96842 -7.73445 21
667 1 -9.2279 12.0074 -5.07081 19
668 1 4.82203 -14.1975 -1.71498 20
669 1 5.92885 3.67787 11.1817 20
670 1 3.4 16.4429 0.244393 16
671 1 2.02042 -10.4729 4.90978 20
672 1 2.66439 4.23873 9.39842 22
673 1 -15.1274 -5.2094 -6.08416 13
674 1 -0.00702937 9.34748 14.6984 11
675 1 6.1905 9.86487 -1.57157 23
676 1 -10.9427 -8.25928 0.583122 19
677 1 -2.19217 -18.1263 0.646582 11
678 1 5.98583 -6.87747 4.12446 16
679 1 10.9975 -8.25007 4.34447 10
680 1 7.83828 6.5596 4.68449 20
681 1 -0.0942499 -8.6794 -11.0473 22
682 1 -5.03555 1.6016 -17.5954 17
683 1 -6.14352 -1.11427 11.2488 14
684 1 -5.52235 18.13 -6.02903 11
685 1 13.9695 2.22422 -0.671258 16
686 1 4.91254 6.52817 -10.5544 17
687 1 0.229967 6.45877 10.3202 20
688 1 7.8686 7.99879 11.6453 21
689 1 7.62754 -6.71073 -17.6054 11
690 1 -4.99263 -12.543 -3.26051 20
691 1 13.9526 0.335973 1.82938 13
692 1 3.05759 -0.976384 -14.2208 23
693 1 3.27847 9.82532 16.0317 10
694 1 0.135683 -14.2238 -11.3693 13
695 1 3.04034 5.80713 -19.4923 18
696 1 13.3239 1.83394 -14.0817 14
697 1 11.9372 -5.88787 -2.57406 21
698 1 0.332328 -5.44665 12.617 13
699 1 -3.76546 -3.84624 -15.3236 19
700 1 5.86228 16.0172 -1.32005 14
701 1 -11.4462 3.01905 0.8416 19
702 1 11.5445 4.2173 -9.24373 14
703 1 13.5932 7.33136 2.26597 18
704 1 4.46069 -1.63839 -20.9852 10
705 1 -6.48671 12.5684 3.92464 14
706 1 15.4605 9.11676 4.40811 11
707 1 12.3312 10.0291 -7.90166 14
708 1 7.84069 3.25074 -18.3978 12
709 1 8.62875 -5.81301 -4.57399 23
710 1 -12.3119 0.912731 -3.8124 23
711 1 15.0082 9.85749 -2.95378 9
712 1 -11.0108 -10.952 -0.238899 16
713 1 -13.2135 6.74723 -8.94001 15
714 1 5.76113 3.57249 8.59644 20
715 1 -11.3361 -1.71908 -9.26634 21
716 1 -11.2923 2.97628 4.52449 21
717 1 10.9508 -8.08623 -9.55468 16
718 1 -10.3184 -8.66911 -8.54028 18
719 1 14.3419 -9.31645 -3.59163 12
720 1 -15.5944 5.37199 1.21918 14
721 1 6.23336 9.66683 4.90533 18
722 1 -3.8579 -10.3603 4.07504 21
723 1 13.1429 6.66283 14.7614 7
724 1 12.4249 -1.53219 7.62693 12
725 1 -11.4259 3.01738 -2.1515 19
726 1 0.417483 9.6088 8.24717 22
727 1 5.49838 9.74202 -12.1255 18
728 1 -5.04615 -6.26894 -18.8559 15
729 1 -2.16429 16.3096 -2.1934 18
730 1 -10.7158 -10.2846 6.36506 17
731 1 11.56 11.0971 -4.66528 16
732 1 -0.380335 9.05243 10.5678 19
733 1 15.4965 -0.892743 -1.46505 11
734 1 5.42427 -6.72684 8.53485 12
735 1 -3.60131 9.57316 -14.3371 13
736 1 8.00362 12.1579 -12.4265 13
737 1 -5.74871 -1.62801 7.92155 21
738 1 12.2817 8.90351 4.71935 18
739 1 -3.58269 -4.42323 -12.6107 20
740 1 17.0768 8.91562 -5.40017 8
741 1 -14.2052 2.97555 -3.88437 18
742 1 -5.13412 -14.4157 7.162 11
743 1 2.12964 16.9201 -12.3952 8
744 1 5.60416 -1.97252 7.64745 24
745 1 -3.16223 -9.05204 -6.66354 20
746 1 -12.636 12.3714 -4.06658 14
747 1 -15.7707 5.39874 -4.11847 10
748 1 12.2316 -1.31474 -12.095 19
749 1 -6.69174 -13.061 -13.2077 11
750 1 -9.7258 6.20427 1.22547 19
751 1 16.1899 9.12733 -8.88745 8
752 1 5.7764 -5.07164 -15.8642 18
753 1 -11.1253 -6.98967 -15.8829 14
754 1 -3.08862 -10.3225 -9.49313 21
755 1 -2.94682 10.1724 12.4085 13
756 1 6.36692 -11.0272 -5.26497 20
757 1 -1.09194 12.4903 -13.5106 13
758 1 12.0035 -0.844371 -5.33845 21
759 1 5.73077 9.15002 1.53244 20
760 1 -0.566773 -16.8428 -2.00463 12
761 1 2.43676 -3.96857 -20.0175 17
762 1 11.0607 4.68108 -2.30662 19
763 1 -3.16561 4.0824 -16.7281 17
764 1 -2.95867 -6.60337 6.73444 19
765 1 5.66459 9.89416 -5.27238 21
766 1 -9.34516 6.3322 -5.16742 19
767 1 -12.5768 6.38814 7.00238 14
768 1 5.21157 3.53695 16.0808 12
769 1 -11.7645 -7.05657 7.74301 14
770 1 6.94744 8.37842 7.25583 19
771 1 -2.28912 -12.8106 -1.12516 21
772 1 2.73928 10.2832 -6.90976 19
773 1 -7.91038 11.5262 10.3377 9
774 1 -14.6754 -0.737929 7.43199 17
775 1 -6.50966 12.0094 -0.127181 18
776 1 -0.791144 -5.59459 8.92755 22
777 1 -0.182828 -15.011 2.12076 14
778 1 12.389 6.69452 6.11638 22
779 1 8.3452 -3.80706 -9.13566 19
780 1 5.75535 -8.43942 -10.8924 17
781 1 -8.12109 -0.822621 -16.8869 14
782 1 2.80975 0.993749 -21.5636 12
783 1 6.25374 13.788 8.22253 9
784 1 -8.86179 -2.01421 9.52923 17
785 1 -3.71478 7.00532 -11.7489 21
786 1 -14.1911 3.26054 -7.254 18
787 1 10.1182 12.0507 -7.19217 12
788 1 -6.9574 -15.6353 -0.863014 12
789 1 11.9558 10.4404 2.42793 16
790 1 -10.5643 -12.2388 -8.51261 10
791 1 9.05747 9.11619 3.34594 18
792 1 -12.0012 -3.84583 12.8609 10
793 1 -1.49144 -11.1508 -14.1065 16
794 1 13.7352 1.33965 9.08039 14
795 1 4.53396 -17.3046 0.233912 10
796 1 7.75013 14.0573 14.2173 7
797 1 13.2993 -5.70476 -7.92457 19
798 1 6.89597 -11.4231 -2.26026 21
799 1 2.1815 1.54848 -15.9043 20
800 1 -12.0631 -2.61707 -16.0314 10
801 1 -5.58418 4.963 -18.3646 11
802 1 -5.57935 6.04821 10.1282 20
803 1 8.00414 -10.3172 3.9084 14
804 1 -17.6132 -2.84735 1.37531 10
805 1 10.1333 2.56202 0.260754 17
806 1 2.22098 5.07553 -16.7043 20
807 1 14.6713 6.99499 -1.53351 13
808 1 3.1147 14.4453 8.83335 15
809 1 -14.1797 -2.71606 -0.640844 18
810 1 6.68464 -14.3372 -10.4432 9
811 2 -12.1922 -1.91232 -10.937 18
812 2 -6.78795 12.9698 -8.40516 21
813 2 -0.146832 -1.04934 -13.9913 21
814 2 -3.82814 6.67662 9.76208 18
815 2 3.26096 -12.1393 -11.8832 19
816 2 -8.75333 -12.11 -12.8568 12
817 2 1.75047 5.64836 10.5457 22
818 2 7.04701 4.29823 15.7056 12
819 2 -11.5352 -7.40104 -3.90069 17
820 2 -11.6908 5.74838 -8.24497 20
821 2 3.24579 12.5328 2.09538 19
822 2 -12.3656 -1.895 2.68903 19
823 2 -1.44604 15.9504 -8.29574 17
824 2 10.474 5.09602 4.61648 18
825 2 -9.70381 14.6163 -9.40601 9
826 2 10.8048 10.1065 -6.27846 18
827 2 -11.2303 1.42898 -16.0871 12
828 2 -11.4137 -5.64838 -12.0283 20
829 2 6.26827 1.4507 8.31111 19
830 2 8.00587 -0.752864 -11.9037 18
831 2 1.7613 -14.7377 2.17943 15
832 2 -7.35298 9.884 -3.49974 20
833 2 -14.3457 1.47052 -7.35224 17
834 2 13.9091 8.25319 6.45252 17
835 2 6.34629 -8.15463 -8.79055 21
836 2 -9.60824 -13.3111 -4.22132 11
837 2 -7.42611 -8.60312 4.12891 16
838 2 -3.35831 -11.7229 0.250314 19
839 2 6.16777 -10.6592 3.89735 14
840 2 -5.53632 -11.5869 -14.1146 15
841 2 4.76474 -0.800809 13.9946 11
842 2 3.85562 10.2765 -15.7268 18
843 2 2.52319 -17.1361 0.859488 11
844 2 -9.60641 -11.9088 -6.82682 11
845 2 1.82307 10.1053 14.9756 11
846 2 -9.09253 7.1068 -0.598263 23
847 2 0.326939 2.40101 15.0179 11
848 2 -4.34207 8.90388 -8.0455 19
849 2 8.65694 -12.872 -1.79508 13
850 2 -3.91445 4.14491 7.68631 19
851 2 -5.68783 10.606 -10.0473 19
852 2 10.8163 9.20533 3.49154 19
853 2 5.34617 14.7122 -4.61019 16
854 2 11.1329 -0.250339 -10.6751 15
855 2 -6.77431 10.667 12.0131 9
856 2 6.28598 6.39837 -17.6081 15
857 2 0.684779 9.2325 -19.3277 11
858 2 14.9981 8.22903 -9.92489 14
859 2 -12.7002 -5.35239 11.6064 10
860 2 -12.4028 8.87836 3.96619 16
861 2 14.1087 -4.49593 -9.20483 14
862 2 -9.73453 -8.01927 13.2914 9
863 2 -0.392203 -6.53142 -14.072 21
864 2 -1.52421 0.792696 -19.8165 15
865 2 -16.052 -7.40829 1.80457 12
866 2 13.5434 11.0635 -3.79634 13
867 2 -4.10234 10.5118 1.77123 19
868 2 -6.24208 -7.04407 -10.6787 21
869 2 -0.416954 13.0371 5.88608 15
870 2 7.86192 1.7673 13.3622 12
871 2 0.815589 -10.3804 6.51299 20