ITEM: TIMESTEP
1639000
ITEM: NUMBER OF ATOMS
1000
ITEM: BOX BOUNDS pp pp pp
-30.0 30.0
-30.0 30.0
-30.0 30.0
ITEM: ATOMS id type x y z Coordination
1 1 -1.74221 -11.3917 -9.68129 10
2 1 5.24496 -9.34491 7.4176 14
3 1 -10.105 7.89654 -2.06961 11
4 1 -9.58094 0.956922 -10.2283 8
5 1 -1.94576 -6.87599 10.566 15
6 1 -5.32944 1.90232 -11.1603 13
7 1 -2.58139 3.01563 -2.82687 18
8 1 -3.67699 -13.4975 2.56403 16
9 1 8.36332 0.0966485 5.6084 23
10 1 -0.638375 4.88111 5.15979 21
11 1 7.7815 -2.71114 3.63475 22
12 1 -1.77247 9.46236 -9.03395 16
13 1 -0.953176 -0.616903 11.3517 16
14 1 -10.5594 0.666586 1.45058 19
15 1 -2.90935 -2.49191 -8.40608 21
16 1 1.39807 -2.9455 8.29457 19
17 1 4.73155 -2.43611 -7.32288 21
18 1 -0.296595 6.42187 12.0904 14
19 1 -3.07016 -11.4852 7.82222 14
20 1 -12.8423 0.822691 -0.108721 15
21 1 -8.78024 -1.90023 4.44924 17
22 1 -2.74121 14.403 -1.13391 10
23 1 1.42744 1.27518 -9.49354 19
24 1 6.46252 -3.27438 -10.2125 16
25 1 -3.26595 -3.45075 10.7939 17
26 1 -11.9725 5.37226 -2.2411 15
27 1 0.317579 13.8971 -1.07891 16
28 1 0.798442 -12.5132 4.24682 17
29 1 3.63397 -5.24836 -5.95761 20
30 1 7.76694 5.70569 5.70011 18
31 1 -8.58247 9.10124 -4.53318 15
32 1 -5.35511 8.07057 -4.14333 18
33 1 4.90519 6.60237 5.13911 18
34 1 1.51304 3.5787 12.5647 13
35 1 -9.89666 -5.10863 -0.337632 16
36 1 2.15992 -1.87128 12.2184 11
37 1 -6.52239 -2.05998 -3.55989 23
38 1 11.1586 1.60792 6.42366 15
39 1 6.74122 8.14694 0.343248 21
40 1 7.02807 1.24806 10.5174 17
41 1 -7.41588 -5.47099 1.9063 22
42 1 -2.22624 -8.32276 -7.61802 25
43 1 -7.37233 9.40887 -1.40101 18
44 1 3.81452 8.06969 -10.6706 13
45 1 3.26049 0.568218 -7.21781 19
46 1 7.63525 -1.88193 -2.85414 23
47 1 8.18 -8.61634 2.94894 17
48 1 4.65055 -7.08878 9.73887 14
49 1 -5.66701 5.46539 4.08858 23
50 1 -5.30565 -6.05646 10.7428 15
51 1 -11.5588 4.80645 3.23292 13
52 1 6.80102 -6.96888 -6.72729 15
53 1 6.54194 1.74867 -7.357 19
54 1 9.20047 3.02435 3.98604 22
55 1 -1.05912 10.1761 4.38159 23
56 1 -8.97718 4.81167 -7.25269 11
57 1 -0.467994 7.4266 2.50664 20
58 1 -2.53798 0.565912 -4.60837 18
59 1 -7.46335 -8.05014 9.77372 13
60 1 -0.670052 -5.57968 -9.57998 21
61 1 5.41477 -6.13987 -9.44809 13
62 1 -1.12495 3.17385 7.35883 19
63 1 -9.91717 -7.27382 2.19209 17
64 1 5.75184 -6.15887 2.71743 20
65 1 -8.71325 -8.2203 -0.487598 16
66 1 8.75893 -5.43268 1.77423 20
67 1 -6.28547 6.57198 -1.55438 19
68 1 -6.83767 2.21419 -0.696983 22
69 1 2.5451 6.12203 -6.97035 20
70 1 6.45577 -10.179 1.04506 16
71 1 -6.34171 -9.12518 -3.13025 19
72 1 12.478 4.28336 5.82171 11
73 1 9.5656 2.47725 0.96123 23
74 1 -1.69 12.3094 -3.82666 16
75 1 -0.749845 -8.68162 -10.7572 15
76 1 -6.76391 11.1951 -6.71142 12
77 1 10.2172 2.31979 -5.18833 17
78 1 3.97658 -3.74611 -3.38038 20
79 1 6.03202 6.05737 -11.9017 12
80 1 8.21206 -9.24589 6.31231 9
81 1 -4.99869 0.21223 -8.42335 18
82 1 -3.4086 6.03356 -3.23839 21
83 1 7.20037 11.2338 1.65706 15
84 1 9.90463 10.0092 -0.291249 13
85 1 -0.305802 6.10052 -2.87367 22
86 1 -2.92051 -6.43396 -11.5449 15
87 1 -11.5135 -2.33891 0.0299482 17
88 1 -3.48566 9.66983 9.73748 13
89 1 -0.246189 10.367 -6.0585 19
90 1 -1.03623 -5.26173 7.33441 19
91 1 -9.36776 -4.77846 4.56742 20
92 1 -1.72836 -13.5998 5.42168 14
93 1 0.663646 8.85486 -0.434166 22
94 1 8.6521 8.76078 -2.81656 18
95 1 -0.736235 -9.33225 8.26407 16
96 1 -6.14469 5.83586 -8.68713 16
97 1 0.478532 6.05576 8.00561 20
98 1 -10.3643 -6.00895 -5.65878 12
99 1 -9.92816 -5.85756 8.41577 11
100 1 -4.90709 -12.8031 5.50326 10
101 1 -2.84712 0.768073 -0.193409 21
102 1 0.674078 1.60488 4.98251 21
103 1 -1.58162 -2.25804 -5.3132 20
104 1 4.29066 -8.82886 -1.39262 20
105 1 -3.53383 7.92753 3.97732 23
106 1 -7.76028 2.71499 3.83839 20
107 1 -8.86191 -0.725382 -0.952029 22
108 1 -3.38143 -10.362 1.93808 20
109 1 6.13669 0.824113 -12.6016 14
110 1 4.26232 0.859482 12.0886 14
111 1 -5.82246 -2.63537 2.57408 20
112 1 -1.44671 5.44063 -11.923 15
113 1 -10.1982 -2.02512 -11.0382 10
114 1 -5.57824 12.2921 -0.352242 15
115 1 6.46858 5.42842 8.66789 21
116 1 -3.30657 11.4696 -6.78814 11
117 1 0.976781 7.60066 -4.96948 21
118 1 -5.4994 0.35156 4.61246 22
119 1 -8.0752 0.665457 6.28019 22
120 1 -5.39889 6.99027 9.53994 15
121 1 0.972709 -12.8626 -4.00466 16
122 1 -1.55391 2.1445 2.53201 20
123 1 -5.85052 -1.05015 -0.549818 20
124 1 2.44393 -5.49814 -1.46625 23
125 1 6.16232 10.1657 -4.4881 15
126 1 -1.72776 11.4571 -0.932509 21
127 1 -9.23466 3.9946 6.0631 18
128 1 2.88977 6.37033 11.0192 17
129 1 13.0978 -0.858628 -2.16154 13
130 1 3.80566 9.8357 5.53969 21
131 1 -8.44029 6.00422 3.67505 18
132 1 -9.9276 -3.5914 -3.17271 18
133 1 2.53224 -6.16685 7.68941 19
134 1 1.29907 -9.80162 -2.49591 22
135 1 -0.146231 -0.183337 -12.0721 17
136 1 7.65785 1.16098 -4.22806 21
137 1 -10.7628 -0.308732 6.6537 14
138 1 -7.76254 -5.99446 -8.01104 20
139 1 -4.39787 -8.50726 4.41122 19
140 1 -2.68462 -6.52972 -0.111679 25
141 1 -6.80451 -1.00232 -10.8759 14
142 1 -8.20747 2.03097 -3.74268 20
143 1 9.4924 5.24065 10.9134 13
144 1 5.21578 -1.86402 10.4221 16
145 1 0.060496 -7.81392 5.96671 23
146 1 5.97839 8.209 7.5239 18
147 1 -1.62765 -9.85792 4.78112 22
148 1 2.5588 13.9891 2.52345 11
149 1 -4.71642 -3.792 -10.9267 17
150 1 -3.87996 -9.25147 -10.5503 15
151 1 -6.17503 -8.54645 1.60876 22
152 1 -4.72169 -5.87662 2.07211 20
153 1 1.92776 -1.52214 5.45034 21
154 1 3.56747 3.36215 2.46446 23
155 1 -4.81011 -4.6667 -2.88174 21
156 1 -7.05227 -0.359179 12.0403 13
157 1 -0.1167 -12.5519 -1.23618 21
158 1 1.55591 3.04367 -7.04069 21
159 1 -0.950911 -15.2245 3.03936 13
160 1 5.36378 -4.58086 -0.352356 20
161 1 1.78975 -13.8871 1.29366 16
162 1 -3.77397 3.26596 -8.79074 20
163 1 8.60292 8.06681 9.7658 14
164 1 -4.23742 -2.13626 -5.58362 21
165 1 0.527941 8.19405 -11.2909 13
166 1 -2.80612 0.897238 9.667 20
167 1 3.73662 12.916 6.25994 10
168 1 12.1784 1.78923 3.19722 16
169 1 -12.1826 2.86314 5.98497 10
170 1 -4.15201 -9.06877 10.166 12
171 1 -4.14881 11.239 4.5486 14
172 1 4.01435 -5.00843 -11.6168 14
173 1 3.56434 -11.5157 2.54987 16
174 1 9.91082 -2.07203 -9.54319 13
175 1 -3.92406 -2.45139 5.38174 22
176 1 5.01763 2.53953 7.78189 20
177 1 -9.12456 -2.54009 1.78829 19
178 1 8.43096 -8.22604 -3.76218 15
179 1 -1.96546 9.35099 1.41482 21
180 1 -6.32193 3.48939 6.82144 21
181 1 0.53973 4.15532 2.98658 21
182 1 2.44437 -9.90033 9.15743 13
183 1 4.17773 3.60857 10.9376 20
184 1 -5.53432 -8.69081 -7.96109 19
185 1 5.71947 -1.57403 4.67053 20
186 1 -2.02276 13.3664 4.71962 14
187 1 -2.83816 7.91957 -11.525 12
188 1 -12.6657 3.77013 0.184608 15
189 1 -4.0304 -5.63831 -8.24409 23
190 1 -4.43777 9.58435 -1.13422 19
191 1 6.05323 3.66747 4.43777 23
192 1 7.85092 -7.64967 8.99594 11
193 1 -4.05753 5.65688 -6.12562 20
194 1 1.25047 -3.53381 2.91878 22
195 1 -1.80609 -11.4683 -3.0892 23
196 1 -8.04869 -4.05995 -10.3866 14
197 1 -9.31805 -0.549347 -4.42195 22
198 1 -4.20528 -9.34686 -0.931855 23
199 1 -1.90517 -4.71245 -2.46025 22
200 1 11.5528 4.85431 -6.21203 13
201 1 -1.94397 2.51708 -6.95685 22
202 1 3.87913 1.08594 5.11553 21
203 1 -7.03273 6.74799 6.85032 15
204 1 -5.08668 9.97406 1.74179 20
205 1 -4.29 3.58704 9.37211 23
206 1 10.6325 -0.451395 -4.45871 19
207 1 12.4352 2.12473 -3.34242 12
208 1 5.97472 -0.420267 7.77199 20
209 1 -5.49531 3.90062 -3.06451 19
210 1 -1.01805 -14.934 -4.20066 14
211 1 -1.15784 7.81976 6.56881 22
212 1 4.79654 -0.913028 -4.58956 20
213 1 -9.79696 1.77255 -6.79901 16
214 1 4.15144 -12.266 -3.51861 13
215 1 10.5196 -1.46847 7.59367 17
216 1 -8.28029 -8.45864 -5.59867 15
217 1 -6.8669 -12.6388 2.46388 13
218 1 5.5935 6.0657 2.21005 21
219 1 -13.486 2.35106 -2.82595 14
220 1 -0.487215 -8.9478 -5.07222 21
221 1 2.85303 -7.17109 4.46984 21
222 1 -6.73678 -10.8796 -0.115547 17
223 1 -6.99409 2.37966 -8.11346 16
224 1 -0.92786 -12.2277 2.07607 22
225 1 -2.12223 0.607169 5.48566 21
226 1 1.88621 0.981209 -4.48164 24
227 1 -9.85193 -3.65123 7.42926 18
228 1 0.878166 -6.79794 -6.77027 21
229 1 0.153328 -4.69475 4.43402e-04 22
230 1 -12.9789 2.07246 3.05116 15
231 1 -6.2784 -7.26714 7.25336 21
232 1 -6.07021 -3.19702 12.2589 13
233 1 2.61027 -7.48207 -3.98529 22
234 1 3.88161 -8.82733 1.82 21
235 1 -1.44372 9.0621 -3.02656 21
236 1 -7.92703 -7.69495 4.33775 23
237 1 10.8689 -3.98304 5.83476 15
238 1 8.17303 5.34885 -0.935678 21
239 1 -3.79402 3.29046 5.04869 21
240 1 0.314313 -2.25564 -9.69689 23
241 1 9.46797 -4.57548 9.08025 14
242 1 -3.94736 4.05659 -0.371839 21
243 1 -2.60356 5.09569 12.6824 13
244 1 5.11311 13.3577 0.0017215 12
245 1 8.01817 -5.6173 4.91652 19
246 1 -3.47623 -14.6752 -2.15944 13
247 1 3.78707 5.23845 8.12462 19
248 1 -6.9779 2.31971 9.57083 18
249 1 -3.03718 -12.0676 -0.493849 22
250 1 -6.72019 -11.4197 -5.9965 12
251 1 -4.19193 8.67762 6.76726 19
252 1 -0.418219 -12.4605 -6.88638 14
253 1 -5.26881 -1.78883 9.54608 21
254 1 7.76411 2.86351 7.2415 17
255 1 6.3485 3.94854 -3.42871 21
256 1 4.52543 1.95472 -9.52389 21
257 1 2.5189 4.42794 -10.1317 20
258 1 -1.02201 9.87571 9.12572 17
259 1 -13.2188 -1.22049 2.57352 14
260 1 3.80505 7.9946 -4.45403 20
261 1 -6.19284 -6.89212 -10.9641 11
262 1 2.9148 0.381116 -12.5446 16
263 1 5.8833 6.28718 -5.51287 21
264 1 3.32543 8.55971 0.763232 19
265 1 3.75506 -1.40032 -10.1069 22
266 1 -0.0694577 -6.08964 3.38263 18
267 1 7.27356 1.06385 -0.943926 20
268 1 -2.34862 2.13552 -12.4225 14
269 1 10.4042 6.8421 4.30621 15
270 1 6.66089 -7.49912 -0.0447038 19
271 1 4.05575 3.60296 -12.3201 15
272 1 1.60173 -10.4627 0.0225532 18
273 1 1.13063 -6.78737 9.48556 17
274 1 -8.31134 -3.58953 -5.62901 21
275 1 4.83102 4.25743 -0.652769 20
276 1 2.59658 6.08854 -12.5517 13
277 1 -11.3436 -0.827213 -2.61363 18
278 1 9.76165 -2.94603 0.335289 21
279 1 -0.0763316 3.12797 -4.52729 21
280 1 -10.4666 6.40049 -5.2209 15
281 1 2.16236 -10.3356 -5.59025 18
282 1 1.8054 -2.78948 -12.2764 15
283 1 10.5504 -2.7322 -6.36581 13
284 1 0.859295 -7.65699 0.592229 23
285 1 -8.73662 -3.35263 10.922 10
286 1 -0.930795 14.6821 1.92093 12
287 1 -2.53991 8.39948 -5.94374 20
288 1 11.4025 7.69206 -1.88315 15
289 1 -3.75358 -10.079 -5.33752 21
290 1 2.37195 -4.19956 -8.73336 21
291 1 1.94065 5.6079 0.0817356 22
292 1 12.4515 -3.92174 -0.67418 13
293 1 4.19239 -12.184 -0.675012 16
294 1 2.81048 -0.520131 -2.02617 21
295 1 -10.0553 2.07379 8.43142 14
296 1 -7.53312 -3.71612 -0.907178 21
297 1 -5.36628 -7.29795 -5.41533 22
298 1 -2.28628 -1.68181 8.26398 18
299 1 4.67003 8.51877 -7.3704 16
300 1 -7.75124 12.095 -3.38423 9
301 1 2.82217 14.9223 -2.16153 8
302 1 0.248041 0.197243 8.12022 20
303 1 5.21225 -9.55777 -4.78278 16
304 1 6.77193 -0.491459 -9.53988 23
305 1 -11.8075 -4.47884 2.80953 15
306 1 -4.90803 2.88953 -5.69054 19
307 1 -6.95653 -4.15163 9.16389 21
308 1 6.34448 6.76296 -2.80681 21
309 1 4.02218 -8.57627 -7.54814 15
310 1 3.1367 -4.37546 10.5377 16
311 1 6.7155 -4.30347 -4.99447 22
312 1 -0.35078 -0.714179 2.95522 22
313 1 -8.86199 4.6754 -1.85012 23
314 1 9.43234 -5.57927 -5.10903 14
315 1 1.12882 10.5909 7.55316 16
316 1 -0.72108 3.66768 -9.71696 24
317 1 7.35383 2.79855 -10.3968 17
318 1 0.61398 -5.8164 -12.4836 12
319 1 -4.01349 -11.7873 -8.09531 14
320 1 11.5281 4.816 -0.852643 18
321 1 7.9361 -4.18052 -7.70877 18
322 1 5.39167 -6.32923 -3.1459 20
323 1 7.36408 11.1987 -1.52691 15
324 1 -10.4228 0.979438 4.28956 19
325 1 11.3222 8.0624 -5.4914 13
326 1 4.26312 -2.90627 7.32332 21
327 1 6.71483 0.56195 2.61345 21
328 1 6.35081 6.04024 11.822 13
329 1 -5.95069 -3.00579 -8.16005 20
330 1 11.2627 7.54119 1.24926 13
331 1 2.12961 -1.85517 0.611778 18
332 1 -3.40585 -7.70109 -3.26617 20
333 1 1.80343 10.0539 3.12905 23
334 1 2.87347 4.18434 5.45806 24
335 1 -4.55252 11.3673 -3.69599 17
336 1 -1.17197 -9.55416 -0.467259 24
337 1 -4.49913 4.7612 -11.1857 13
338 1 -3.45792 -0.861427 -11.5168 16
339 1 -12.7121 0.614305 -5.37904 11
340 1 11.0018 -6.80507 4.02125 12
341 1 0.760258 -9.28731 3.24625 22
342 1 -0.186426 0.593418 -2.23551 20
343 1 3.183 -4.35845 5.15641 21
344 1 6.90883 7.96468 -9.4516 12
345 1 5.17615 -1.48577 -0.961243 18
346 1 12.3413 -1.07369 1.18924 17
347 1 5.41287 8.93466 3.15781 21
348 1 11.2986 -4.13757 2.24897 19
349 1 1.9084 2.87046 8.40653 21
350 1 -10.7103 -9.52996 4.70553 11
351 1 -10.658 -4.00611 -8.34699 13
352 1 9.00001 0.805689 8.62606 18
353 1 -3.02799 12.4138 1.64984 17
354 1 12.6832 5.23229 -3.951 13
355 1 4.75661 -3.1141 1.89401 21
356 1 7.11446 3.28271 12.3465 12
357 1 -8.04463 -0.707591 9.03636 19
358 1 10.5295 3.29157 -8.69153 14
359 1 -2.44165 -5.33855 -5.7812 23
360 1 5.30732 8.50648 10.9501 11
361 1 1.20469 1.25751 0.90791 21
362 1 0.0527233 -4.06919 11.1246 14
363 1 -4.17299 7.80785 12.3407 13
364 1 -6.16735 4.92599 11.552 14
365 1 -2.90367 6.51588 -8.77982 22
366 1 -7.8698 7.93547 -6.99272 14
367 1 6.60171 10.611 5.14139 14
368 1 -4.29179 -4.5508 7.70464 20
369 1 4.03471 12.1623 -2.81526 17
370 1 -0.442586 -7.18109 -2.35492 22
371 1 -5.25969 -13.8599 0.127768 16
372 1 4.69807 2.00801 -3.04874 20
373 1 -4.78032 2.24068 2.2261 21
374 1 -9.59885 3.00358 0.891193 19
375 1 8.0687 4.44679 -6.09927 19
376 1 3.07215 -0.15738 8.52249 19
377 1 8.37785 8.63615 6.27071 11
378 1 -5.46607 0.507713 -3.12596 22
379 1 0.0336024 -0.0668273 -6.90965 21
380 1 1.65187 7.79054 5.4782 21
381 1 8.0744 -5.20404 -1.93207 22
382 1 1.02473 12.7426 4.90811 18
383 1 -11.4004 -3.06192 5.23712 14
384 1 2.13316 -14.6641 -1.9114 13
385 1 8.05059 7.88434 -6.08713 19
386 1 2.86645 -5.59597 2.04087 19
387 1 -0.612625 3.34908 -0.468592 21
388 1 4.74092 -2.34498 -13.2772 11
389 1 -4.3549 -3.59955 -0.270327 20
390 1 7.50689 -1.11636 -6.30058 20
391 1 4.44126 0.921165 0.283694 21
392 1 -1.85462 11.1781 6.80913 19
393 1 5.28193 -5.78057 6.17292 18
394 1 1.93115 -2.44507 -5.91044 22
395 1 -5.2589 -11.9116 -3.34347 19
396 1 0.369255 -2.84531 -2.30938 22
397 1 -3.85665 5.69518 6.98907 21
398 1 12.9907 1.96377 -0.14848 15
399 1 0.232431 11.9579 1.8133 20
400 1 9.03074 5.18071 -10.8242 12
401 1 -1.09014 -2.66568 5.54527 19
402 1 4.77162 3.28577 -6.35802 20
403 1 -1.34123 5.36568 -6.10907 19
404 1 1.26233 1.1619 11.2849 16
405 1 -5.95853 -4.79307 5.01051 22
406 1 1.85025 -7.06887 -10.0116 16
407 1 -10.5858 1.89914 -1.9811 22
408 1 2.60687 6.57635 3.0367 23
409 1 -6.82709 -2.49349 6.65256 21
410 1 3.08629 10.787 -5.33046 17
411 1 -1.60946 2.13105 12.5369 14
412 1 -11.5611 -2.96125 -5.42181 15
413 1 9.72456 -0.099793 2.31121 23
414 1 -5.94632 -6.68812 -0.8837 22
415 1 11.6507 -6.89496 0.625874 12
416 1 5.48083 -10.0053 4.51415 14
417 1 -2.46503 6.56911 9.71833 23
418 1 -8.29791 5.02085 9.00159 13
419 1 6.77672 3.1979 1.35527 20
420 1 10.6261 -6.4821 -1.95391 13
421 1 2.73385 4.43877 -4.14442 22
422 1 4.49991 9.31207 -1.92092 22
423 1 0.159181 13.1224 7.59707 11
424 1 0.423943 -12.2547 7.74473 11
425 1 -5.47919 -4.67655 -5.70039 20
426 1 -0.585532 3.81458 10.1611 19
427 1 4.50194 12.0994 3.09113 17
428 1 7.72148 -3.23084 6.81465 20
429 1 10.5187 -6.75103 7.29431 11
430 1 10.108 5.46521 7.90906 17
431 1 -1.77888 6.39202 -0.424508 20
432 1 0.632188 -9.83424 -7.92471 15
433 1 0.789154 3.06655 -11.9397 15
434 1 -4.01686 -0.532055 12.3485 14
435 1 12.1355 4.68307 2.37091 16
436 1 2.79593 6.60353 -2.31085 22
437 1 8.03642 -1.32681 -12.4486 12
438 1 -9.06657 -10.3419 1.80692 15
439 1 -6.83056 -0.0770987 -6.24073 18
440 1 -1.43556 -3.37033 -11.8709 15
441 1 -3.30946 -13.3561 -5.20931 14
442 1 -3.06331 -7.63642 7.32146 21
443 1 -0.684452 -1.75002 0.187099 18
444 1 -2.91966 -5.56436 4.85704 21
445 1 10.2451 7.04738 -8.47334 11
446 1 -6.46711 8.99852 4.17917 15
447 1 9.99489 2.69062 -2.20801 20
448 1 -6.87747 4.74005 1.1477 22
449 1 9.04898 9.30387 2.94361 15
450 1 1.67887 9.1021 11.5127 12
451 1 -11.075 -0.899611 -7.8746 14
452 1 0.381864 6.85338 -8.7081 20
453 1 9.00998 -9.15856 -0.479262 14
454 1 -8.12363 -6.30576 -3.32058 19
455 1 -9.28802 -8.63751 7.20423 14
456 1 11.0817 -1.26784 4.54569 17
457 1 -9.82148 6.20884 0.59935 15
458 1 1.24015 13.1007 -4.4026 12
459 1 6.53275 -4.68147 9.15125 16
460 1 3.36698 -0.695895 3.28772 21
461 1 -4.62927 2.18328 12.7162 13
462 1 -1.86541 0.610524 -9.40854 22
463 1 -7.17413 -10.3392 4.60934 17
464 1 10.1259 2.26435 11.8231 9
465 1 -2.90207 -16.1848 0.637793 9
466 1 9.45502 0.346232 -7.71452 18
467 1 -7.4969 8.05278 1.0349 16
468 1 -5.05848 0.766189 7.38482 21
469 1 -0.391992 -3.76982 -7.28156 19
470 1 -0.726873 -15.3745 -0.51803 14
471 1 8.39562 5.67803 2.38061 21
472 1 9.33403 5.69569 -3.78394 25
473 1 -5.66274 -9.91412 7.28735 16
474 1 2.12454 3.00278 -1.79357 22
475 1 5.86713 4.80795 -8.8556 22
476 1 -11.019 3.4254 -4.49326 18
477 1 2.57421 11.5202 0.0962583 20
478 1 2.63352 8.44247 8.65031 17
479 1 1.52862 10.2302 -2.896 23
480 1 -1.577 9.23719 12.6067 9
481 1 7.59404 -1.92023 0.483157 20
482 1 -2.04916 -3.89861 2.3089 22
483 1 2.46428 -10.5124 5.86242 16
484 1 -3.52107 -1.22236 2.20014 19
485 1 11.5955 3.11322 9.40648 11
486 1 10.4346 -3.31719 -3.09662 19
487 1 0.711111 -4.93272 -4.568 21
488 1 -5.01248 9.33683 -8.62541 12
489 1 -2.64152 5.11913 2.51992 19
490 1 -3.08457 -1.53156 -2.28623 22
491 1 -4.50633 7.0628 1.07176 20
492 1 -2.20513 -7.9884 2.67409 19
493 1 6.95402 -10.802 -2.22396 15
494 1 9.60342 1.26278 -10.8414 15
495 1 -7.58021 0.321215 2.02484 21
496 1 -7.47344 5.84719 -4.62853 20
497 1 8.27939 -1.81825 10.2233 16
498 1 -11.6774 -6.53941 6.08362 12
499 1 9.72247 -0.33452 -1.17414 22
500 1 1.65826 9.26715 -8.21878 17
501 2 -9.98718 -3.69985 -10.2034 11
502 2 -5.85529 8.40577 -2.22336 20
503 2 4.19636 1.76048 -12.9916 12
504 2 -2.16342 2.84088 9.27142 18
505 2 -7.43866 -5.76153 -9.97811 14
506 2 -1.59375 5.4511 10.9682 20
507 2 -11.0096 -2.13236 6.82709 14
508 2 7.58673 7.39825 -1.22134 21
509 2 4.52523 -1.60585 8.50861 19
510 2 -2.41487 -6.73408 -8.62015 24
511 2 -9.07546 -5.02523 -2.2418 19
512 2 -5.55043 2.94513 0.46645 19
513 2 -0.366241 -10.9808 3.88595 20
514 2 7.66575 4.92671 11.4828 16
515 2 7.91726 -1.79974 -10.5909 17
516 2 6.35914 1.1542 0.771607 22
517 2 -1.97422 7.14118 -2.40597 20
518 2 10.9516 1.60617 8.36904 16
519 2 -1.07084 -5.75494 -1.06337 22
520 2 -8.8112 -9.22448 5.20264 16
521 2 -4.75466 -8.05938 6.2396 21
522 2 9.22968 -6.31456 8.93481 10
523 2 -8.7138 6.96376 1.98272 16
524 2 -9.17155 6.58154 -6.55011 13
525 2 -1.31465 7.53973 8.54108 19
526 2 -8.06705 3.85386 -0.0633315 20
527 2 3.61096 0.419191 -3.5985 17
528 2 12.4885 -2.65147 -2.26685 14
529 2 -2.93259 -3.38501 -6.56411 20
530 2 1.03851 -5.41581 -8.40413 20
531 2 -4.36038 -6.03338 -6.55199 21
532 2 9.33131 3.10304 -10.2719 12
533 2 -8.9437 -6.18364 3.33954 21
534 2 8.39366 9.84492 1.0649 16
535 2 -3.75609 8.91438 0.586349 22
536 2 -2.80279 -11.5577 -4.75186 19
537 2 3.04098 -6.24395 9.9677 16
538 2 11.3429 -3.174 4.16835 16
539 2 -12.6541 2.37364 -4.61186 14
540 2 2.8678 -2.69464 2.30803 22
541 2 7.57724e-04 2.73769 1.65061 21
542 2 0.816935 1.97898 -0.826091 21
543 2 5.23256 -10.3516 2.66073 15
544 2 -1.8981 9.78603 10.7706 14
545 2 6.12512 10.8788 3.21606 15
546 2 4.06863 6.765 -5.95626 23
547 2 -6.8686 5.97447 10.1179 14
548 2 6.05881 1.10478 -10.3516 23
549 2 -6.02201 -0.489455 -4.5531 20
550 2 -13.4777 2.37224 1.17092 15
551 2 -10.4273 -8.93707 2.85658 13
552 2 -0.927011 -6.27166 5.02121 21
553 2 -2.7541 0.703561 11.5694 16
554 2 0.344811 6.28744 6.09432 20
555 2 -7.0897 4.52512 3.18191 21
556 2 7.65088 -3.84839 -3.48289 20
557 2 7.71602 2.51335 -5.65223 20
558 2 -3.18427 -9.56174 3.55361 17
559 2 6.63895 -3.00877 -6.64451 21
560 2 3.37477 3.41189 7.16683 20
561 2 6.86806 -8.0392 -5.10245 16
562 2 6.05281 -4.04205 7.17867 20
563 2 -5.27044 -3.54652 6.20128 20
564 2 11.9655 2.71426 -1.64702 18
565 2 1.80197 -5.19112 3.97671 20
566 2 -5.70121 -8.10502 10.5573 13
567 2 9.0202 -6.57583 3.41077 16
568 2 3.06941 4.32083 -6.28606 22
569 2 3.96966 -4.63679 -1.68958 17
570 2 -4.69223 -5.63451 -11.3513 14
571 2 -5.92246 -4.62567 3.08244 22
572 2 0.919059 -3.03735 -0.446842 20
573 2 -9.9775 -3.11954 3.65824 18
574 2 -1.81114 8.66514 3.39684 22
575 2 4.07673 -1.06551 -6.38207 19
576 2 9.71814 4.46258 -5.23951 20
577 2 2.45211 11.8196 -3.90617 16
578 2 -7.7043 4.94741 7.07913 21
579 2 -3.34827 3.91887 -6.74763 20
580 2 -10.4758 6.18411 -1.29922 16
581 2 -2.25865 4.43026 6.11116 20
582 2 -9.85277 4.9036 4.46958 15
583 2 -1.45602 4.73433 -4.01611 22
584 2 11.0864 5.1821 -8.10788 13
585 2 10.3583 -7.78541 -0.459989 13
586 2 3.03996 10.6239 -1.51092 20
587 2 -0.546601 13.3938 5.86436 13
588 2 -6.34261 1.55381 3.07791 19
589 2 -0.334119 5.28173 -1.15045 22
590 2 10.3512 7.76539 -3.50006 17
591 2 -0.800458 7.90774 0.4504 21
592 2 -3.89759 4.7337 -2.13766 20
593 2 0.305309 4.04055 8.41965 21
594 2 -2.43689 -1.33035 6.05378 19
595 2 2.70212 -4.11845 7.32284 20
596 2 3.35956 -3.74856 -7.24672 21
597 2 -4.65238 5.81925 12.2908 14
598 2 3.48375 9.0029 -8.96283 16
599 2 -7.15176 -8.90492 7.85118 15
600 2 -0.537 -13.435 -5.26473 13
601 2 0.283172 -11.2982 -2.77429 22
602 2 5.99544 -11.4479 -0.638333 14
603 2 -1.35683 -0.420758 -0.951795 20
604 2 6.70961 7.98659 -7.59476 15
605 2 -3.7721 3.09079 -11.5878 15
606 2 -0.357097 9.69207 6.3765 24
607 2 -3.34887 0.863186 1.70975 20
608 2 -11.3254 -2.61514 -7.33369 12
609 2 -0.210189 3.84806 -6.28788 23
610 2 0.748631 14.5381 2.8085 13
611 2 2.82868 2.26108 11.8855 13
612 2 2.53966 -12.0194 -4.65082 16
613 2 -0.0315255 2.5868 11.6416 18
614 2 12.1188 -5.6537 -0.854839 11
615 2 4.79406 8.44322 8.9559 17
616 2 -3.2891 6.08206 -11.7959 10
617 2 4.97082 -3.92699 10.3452 16
618 2 -1.05333 -11.2305 8.46288 13
619 2 7.07959 -8.66765 7.68236 13
620 2 -3.28641 11.7624 -4.92369 14
621 2 -2.71609 -10.3631 -1.57044 23
622 2 -0.19516 -0.0970732 -9.09215 21
623 2 -0.401558 -10.0199 -9.40609 15
624 2 11.7593 4.35936 7.63088 11
625 2 -9.78391 -6.8747 0.468336 14
626 2 -12.9677 3.91501 -1.75104 14
627 2 7.18781 -1.17154 6.50575 22
628 2 -4.02279 -7.56493 -1.40059 24
629 2 -0.517416 -5.28634 -6.04138 23
630 2 1.4192 1.08721 -6.45742 20
631 2 0.0245834 -2.03002 -11.9223 16
632 2 -6.46733 -2.89224 -10.2908 16
633 2 -3.91678 -3.08396 8.84803 20
634 2 -5.66148 -10.6327 -7.5057 14
635 2 2.26703 -6.20291 -5.38945 22
636 2 5.40646 -1.91446 -9.14979 20
637 2 -6.9449 -2.24316 8.72639 23
638 2 -3.20118 -0.6318 -9.02781 24
639 2 -0.674854 -3.6293 -3.68444 21
640 2 2.0737 5.71933 -8.7361 21
641 2 -3.52699 -10.8432 -9.69855 12
642 2 1.69494 10.3533 -6.65201 17
643 2 1.81886 12.2123 6.49243 14
644 2 7.12399 1.30555 8.38774 19
645 2 -12.3232 0.794994 -2.31379 18
646 2 -0.00866001 -13.1669 5.83398 14
647 2 -2.37522 6.66288 -6.96216 17
648 2 -4.58353 6.64182 3.13557 22
649 2 -6.1952 -8.48796 3.53102 22
650 2 -1.64727 -2.02297 2.02659 20
651 2 -3.88624 1.98293 -4.14606 19
652 2 -5.77277 -5.64605 8.45628 20
653 2 1.83578 -10.9091 7.7226 14
654 2 -10.0221 -1.11262 0.534144 22
655 2 -6.72086 -12.6853 0.601082 13
656 2 -10.8282 -8.14662 6.09225 12
657 2 7.90112 -3.58091 9.60341 14
658 2 8.97893 10.2861 -1.78795 14
659 2 -4.85496 -1.32123 3.6893 20
660 2 4.46176 3.95308 -4.32461 25
661 2 9.86334 7.7738 -6.49406 14
662 2 -1.53297 13.1708 -2.04524 15
663 2 -9.21579 -7.25223 -4.71468 14
664 2 -11.2846 0.373332 -6.6437 13
665 2 -2.38141 -15.8982 -1.22535 13
666 2 10.3679 -3.61362 7.71556 13
667 2 10.8237 -5.70152 5.76289 13
668 2 -7.85705 10.3295 -2.79169 16
669 2 3.71734 -0.835823 -0.191154 18
670 2 3.81483 -0.984017 11.904 13
671 2 0.203405 -2.16965 -6.19712 21
672 2 5.93064 5.55363 4.08108 20
673 2 4.25616 7.50045 2.45137 21
674 2 0.538127 -6.76522 7.57304 21
675 2 -11.8603 0.338774 2.89607 16
676 2 3.93093 3.01599 4.35439 21
677 2 4.49897 4.01499 -9.99755 20
678 2 -5.28481 -8.28643 -9.89306 15
679 2 -5.18361 -3.22074 -4.45344 23
680 2 -7.46167 0.648658 10.3358 14
681 2 5.02932 8.61443 -0.205862 21
682 2 2.29764 -3.51319 -4.32074 20
683 2 8.39462 4.17179 0.921117 21
684 2 9.67453 -8.01814 6.08623 11
685 2 -11.1931 2.07999 -0.0170315 21
686 2 -2.87126 7.44244 5.91653 21
687 2 -7.47402 12.4029 -5.33202 8
688 2 2.98054 0.216681 -9.14918 20
689 2 -3.16272 3.25569 2.9653 20
690 2 -0.171997 -4.66859 1.97016 21
691 2 1.68366 2.89638 -3.61903 22
692 2 -12.8218 -1.03499 0.672464 14
693 2 2.96011 -10.2544 -1.46047 21
694 2 -2.67384 -12.0805 1.41995 21
695 2 -4.24803 11.3619 2.64601 18
696 2 -0.268355 -7.74093 2.43605 23
697 2 -11.527 -1.13451 -4.5831 15
698 2 2.79488 -12.2057 0.986393 18
699 2 2.98739 6.15443 4.99221 24
700 2 2.04565 -2.83022 -10.0491 21
701 2 0.185656 8.78817 -9.45766 17
702 2 6.88673 3.20359 -8.54919 19
703 2 0.975592 12.7712 0.279579 19
704 2 -5.46403 0.286998 12.8642 11
705 2 -7.73456 -2.08047 11.6201 12
706 2 -3.58886 -6.92677 3.2241 22
707 2 -0.815054 5.80734 3.36278 22
708 2 -11.1469 -2.60255 -1.86898 18
709 2 -0.656204 1.57393 6.54847 19
710 2 -1.12824 5.63686 -9.4056 24
711 2 0.700541 -0.740198 1.32312 21
712 2 6.73202 -0.435788 -4.69009 21
713 2 2.15583 0.325227 4.76103 20
714 2 -3.20639 -5.63369 -3.74322 20
715 2 4.62472 5.33486 -12.6714 11
716 2 3.89805 2.11109 -1.28139 23
717 2 5.14377 6.43447 7.29075 19
718 2 9.30194 1.60313 -0.771195 21
719 2 -9.30408 -0.266571 5.16986 19
720 2 -3.08397 10.3794 -2.24175 19
721 2 0.0489713 8.41579 12.2759 11
722 2 -2.83312 -1.28662 -4.07352 20
723 2 2.48645 -11.654 4.13803 16
724 2 -3.10084 -12.6008 6.4019 13
725 2 -6.97561 -4.00626 -6.9981 21
726 2 5.15452 -0.0416116 3.576 21
727 2 7.21253 8.4826 -4.27856 19
728 2 3.85153 12.7789 1.33711 16
729 2 0.847288 3.52294 4.78825 22
730 2 4.22805 -9.85308 6.07413 14
731 2 3.85459 -9.6947 -6.05312 15
732 2 1.99197 4.47794 -12.0718 14
733 2 8.39866 -3.44082 1.53882 21
734 2 1.26473 5.39001 11.8717 15
735 2 8.1878 4.84725 7.54702 19
736 2 3.88531 -7.15424 2.94075 19
737 2 1.19788 1.00338 -11.6475 21
738 2 9.473 -0.905301 -6.07711 21
739 2 -5.89278 10.2652 0.0513447 17
740 2 2.29352 -8.43166 -8.54303 16
741 2 -1.36424 -2.70058 11.1551 15
742 2 0.219792 -2.06648 4.34632 21
743 2 -4.2419 -0.118716 -1.60996 21
744 2 -8.908 1.33335 -8.47154 15
745 2 8.99242 -6.36637 -3.33929 16
746 2 3.2349 13.2658 4.2054 13
747 2 11.2653 8.48167 -0.357647 12
748 2 11.6232 5.48314 0.755194 17
749 2 -6.8759 -7.64888 -6.83683 19
750 2 -9.72876 3.61741 -6.02852 15
751 2 -5.57416 4.61747 -4.96128 18
752 2 -7.28921 0.190095 0.0569686 20
753 2 5.52375 8.49393 5.08492 20
754 2 -8.92316 8.16345 -0.577754 14
755 2 -2.96666 -5.78259 6.87158 23
756 2 5.51493 2.15903 11.8296 13
757 2 0.473405 -10.8566 -6.29876 17
758 2 2.30445 -4.84418 -12.3338 13
759 2 4.10407 13.6176 -1.64867 12
760 2 3.75117 10.0803 3.52532 20
761 2 -4.71202 -8.89651 -4.17128 23
762 2 -6.10322 -10.7052 -1.97494 17
763 2 11.8249 -2.94825 0.934312 17
764 2 -7.04479 5.33134 -2.75693 19
765 2 -1.56013 -8.74537 6.43838 20
766 2 7.09636 -6.34645 1.42082 18
767 2 -6.92721 -6.43561 5.53718 17
768 2 -8.33522 -4.0843 0.886689 22
769 2 4.50128 5.60717 11.4013 17
770 2 2.10531 9.02608 -4.28161 23
771 2 -6.86805 7.06508 4.98402 16
772 2 3.03652 1.49027 1.68219 20
773 2 -3.46375 -5.6556 10.5923 17
774 2 -1.32782 15.0716 -0.0927859 13
775 2 0.74102 -14.0276 -0.547139 17
776 2 3.41311 -6.15437 6.12207 19
777 2 9.3223 -0.952547 8.9285 16
778 2 -10.9443 4.53418 1.21879 18
779 2 -2.31498 2.79144 -0.917486 20
780 2 -2.47773 7.33117 12.952 10
781 2 -3.78095 -8.96493 -6.88025 22
782 2 9.7349 -1.58992 -2.66043 20
783 2 6.40361 -6.03349 -1.42094 20
784 2 1.61594 6.36593 -3.64385 24
785 2 -3.14482 3.24863 12.8225 15
786 2 -7.35661 -1.95893 -1.56974 22
787 2 1.05572 -1.06758 -2.57187 19
788 2 9.67377 1.18684 -3.66467 19
789 2 -5.05362 4.55538 5.69208 19
790 2 -4.03931 1.37982 5.69266 20
791 2 4.65831 -4.95329 1.43037 18
792 2 2.27256 7.55495 -11.4214 13
793 2 -10.832 -0.626409 -9.66121 10
794 2 -1.19049 1.71999 -3.52267 21
795 2 -1.10011 -3.22923 -8.94882 22
796 2 -3.91256 7.28409 -4.93068 17
797 2 -5.25388 0.0203054 -11.2861 14
798 2 6.70874 -4.9189 -8.90595 16
799 2 -2.54738 -8.38421 0.684246 21
800 2 -2.31231 -8.09192 9.11952 19
801 2 -1.53901 0.632524 -6.1171 18
802 2 9.8322 -4.46679 -1.15173 21
803 2 5.25577 4.32281 1.30278 22
804 2 10.2806 -3.90977 -4.80788 17
805 2 -1.08573 -15.7585 1.36532 11
806 2 9.27372 7.04748 5.95774 15
807 2 -2.37405 11.5248 4.96482 18
808 2 -7.49156 -1.60371 2.71947 19
809 2 12.2252 0.157608 -3.55342 15
810 2 1.82454 -9.10969 1.34382 22
811 2 -6.84251 9.27955 2.30891 16
812 2 8.15101 0.562308 -11.7344 11
813 2 5.01386 3.93014 9.26403 21
814 2 -12.3281 3.33771 4.1747 12
815 2 -2.0881 9.99149 -7.25258 15
816 2 -9.78907 3.34601 -2.83241 22
817 2 -5.47816 1.49424 -7.04463 17
818 2 6.27894 -1.17527 -13.164 13
819 2 -8.3264 -3.58761 5.90228 21
820 2 -1.0087 -0.630198 9.28091 19
821 2 11.8346 -0.700444 2.99263 14
822 2 10.1193 -0.187548 -9.51582 13
823 2 -7.46854 -7.58067 -1.83185 21
824 2 -0.275157 -11.0942 0.316929 24
825 2 12.0798 3.51509 -4.72388 15
826 2 2.15682 7.50947 -0.611066 20
827 2 0.347501 -7.28316 -11.198 13
828 2 -10.7383 3.08746 7.17274 14
829 2 -6.39818 -0.138395 6.2317 22
830 2 5.58853 -11.0805 -3.61853 13
831 2 -4.74188 -13.1048 -1.60359 18
832 2 0.308101 -8.52651 -1.20281 22
833 2 10.3336 2.07756 -7.18235 18
834 2 -1.02063 7.32005 -12.1645 13
835 2 3.55701 8.22626 11.6124 12
836 2 -2.98525 -14.8134 -4.07861 12
837 2 7.24812 2.54967 3.13489 21
838 2 1.03301 9.16998 9.48589 16
839 2 3.10764 4.67767 -1.56463 19
840 2 -7.30146 4.50636 -7.91654 17
841 2 -1.7134 -8.15462 -3.70351 24
842 2 -9.00159 -7.23786 8.96361 13
843 2 -9.83968 7.80947 -3.86771 16
844 2 4.67644 9.65063 -5.61879 17
845 2 -0.920274 8.61268 -5.00363 21
846 2 5.7403 10.8261 -2.79031 17
847 2 -4.33215 -3.79106 -8.85575 18
848 2 3.61148 -13.4984 -1.89507 13
849 2 -9.7414 -5.78072 -7.35816 14
850 2 9.84671 6.58251 9.58715 12
851 2 -2.0121 0.425436 -11.6504 17
852 2 -12.7372 -2.75132 3.76375 10
853 2 11.985 2.51904 5.01091 14
854 2 7.04913 7.4857 10.715 12
855 2 8.78155 7.04652 -9.69981 11
856 2 1.76323 9.97971 1.14824 21
857 2 1.23489 14.2372 -2.6049 11
858 2 12.7196 0.0389349 -0.315304 16
859 2 -6.60391 2.0026 -2.51923 21
860 2 -0.216901 10.1979 -1.96766 21
861 2 1.62853 -3.06041 10.6946 19
862 2 -2.51213 -8.29091 -11.2999 14
863 2 -8.26916 -2.34366 -4.29691 20
864 2 8.50057 1.84734 11.4039 14
865 2 -7.69048 2.51657 5.79719 23
866 2 8.07576 -9.00608 1.06922 14
867 2 7.93382 -5.6022 -6.16866 15