ITEM: TIMESTEP
1292000
ITEM: NUMBER OF ATOMS
1000
ITEM: BOX BOUNDS pp pp pp
-30.0 30.0
-30.0 30.0
-30.0 30.0
ITEM: ATOMS id type x y z Coordination
1 1 -1.94975 -11.0983 -8.83831 14
2 1 5.66091 -9.86525 7.6066 13
3 1 -9.64725 8.10009 -1.98868 13
4 1 -10.3017 2.36021 -8.58832 9
5 1 -2.01441 -6.9124 10.0606 18
6 1 -4.97808 1.67252 -11.5959 13
7 1 -2.93815 3.79864 -3.02401 22
8 1 -3.93782 -13.6926 2.32219 16
9 1 8.67273 -0.325881 5.21995 18
10 1 -1.66452 5.40305 5.38498 22
11 1 9.49738 -3.33372 3.60248 20
12 1 -0.922273 9.52713 -9.30913 17
13 1 -1.14576 -1.31186 11.2185 19
14 1 -11.0594 0.182906 1.34015 23
15 1 -3.0976 -2.21659 -8.46211 22
16 1 1.20503 -2.96434 7.90786 22
17 1 5.11877 -2.86078 -7.60952 20
18 1 -1.15322 7.02822 12.498 13
19 1 -2.772 -12.2494 7.84507 14
20 1 -13.4561 0.36845 -0.385761 13
21 1 -7.99502 -1.14031 4.53668 20
22 1 -2.19901 14.8587 -1.19678 12
23 1 1.3452 1.07449 -9.69033 21
24 1 6.36425 -3.67494 -10.3537 16
25 1 -3.15832 -4.07784 11.0482 16
26 1 -10.9498 5.40455 -2.28941 15
27 1 0.74111 14.3776 -0.808776 16
28 1 0.762675 -12.65 4.48704 17
29 1 3.41554 -5.08303 -5.52681 20
30 1 8.24524 5.03849 5.9812 20
31 1 -8.51486 9.66335 -4.89954 13
32 1 -4.76598 9.74659 -3.96186 21
33 1 3.58416 7.51378 6.82092 18
34 1 3.31513 3.5909 12.4153 11
35 1 -9.79089 -4.96831 0.0691626 18
36 1 2.23192 -2.04809 11.1623 13
37 1 -6.58758 -1.62566 -2.97364 23
38 1 11.4986 1.27773 6.30579 17
39 1 5.29593 6.65161 1.5638 22
40 1 7.56156 0.380837 9.86615 15
41 1 -7.74614 -5.77199 2.15752 19
42 1 -2.37263 -8.05451 -7.76828 21
43 1 -6.75297 9.91898 -1.958 16
44 1 4.02286 7.528 -10.1192 16
45 1 3.44359 0.209438 -6.37657 18
46 1 7.88248 -1.73932 -2.9918 20
47 1 8.45078 -9.1131 3.09911 15
48 1 4.31901 -7.47266 8.47865 17
49 1 -5.74898 5.64528 4.09239 20
50 1 -5.55652 -6.53255 10.7578 16
51 1 -11.8076 4.81549 3.50525 14
52 1 6.74542 -7.06022 -5.99953 16
53 1 6.94577 2.77236 -10.573 17
54 1 9.80186 2.83773 3.84805 18
55 1 -1.45536 10.2892 4.80268 22
56 1 -6.24046 4.9462 -6.58434 19
57 1 -0.46956 7.09236 2.52573 21
58 1 -1.30685 1.22791 -3.49883 22
59 1 -6.89545 -9.28951 10.3108 11
60 1 -0.781164 -5.20653 -8.98506 21
61 1 5.36094 -6.5394 -9.03199 14
62 1 -2.18442 2.73646 7.55642 20
63 1 -10.8386 -6.94631 2.60672 17
64 1 5.70674 -6.79655 2.84383 22
65 1 -8.78697 -8.13835 -0.206344 15
66 1 8.83065 -6.31087 1.44846 21
67 1 -6.48717 7.2998 -1.61016 20
68 1 -6.16199 1.72717 -0.875352 23
69 1 3.04282 6.4292 -6.86736 21
70 1 6.40314 -9.99046 1.14044 17
71 1 -6.82432 -8.91021 -3.21727 19
72 1 12.5799 4.35024 5.53061 13
73 1 8.89169 2.58137 0.935909 21
74 1 -1.90099 12.4766 -3.91131 16
75 1 -0.906793 -8.6486 -10.5893 15
76 1 -5.90228 11.1588 -6.70275 14
77 1 9.97693 2.65456 -5.63672 17
78 1 3.68461 -3.67916 -3.17348 20
79 1 6.15667 5.95019 -11.9219 12
80 1 8.63281 -10.0478 6.20732 10
81 1 -4.84105 0.448811 -8.52998 23
82 1 -1.93198 6.73811 -3.47665 19
83 1 6.21891 10.4905 1.29566 17
84 1 8.32372 9.12469 -0.237115 16
85 1 1.26046 7.03978 -2.9453 23
86 1 -2.72101 -6.55786 -11.0007 18
87 1 -11.633 -2.33179 -0.4677 15
88 1 -3.78102 9.84374 9.56579 13
89 1 -0.0485549 11.2461 -6.32641 15
90 1 -0.808903 -5.73321 7.68624 22
91 1 -9.35328 -4.35124 4.01581 20
92 1 -2.17145 -13.4519 5.18084 15
93 1 0.321741 8.81433 -0.508001 21
94 1 9.47023 10.1556 -3.33411 13
95 1 -0.821718 -9.92089 8.5925 16
96 1 -5.62327 6.23142 -9.14874 14
97 1 0.252731 5.06332 8.17805 18
98 1 -10.357 -4.87488 -5.47589 14
99 1 -8.67409 -6.51627 10.4112 14
100 1 -5.30624 -12.4323 5.45019 13
101 1 -3.03198 1.30276 -0.322245 22
102 1 0.0261845 1.75885 4.9975 21
103 1 -4.38812 -3.42606 -5.31487 20
104 1 3.82804 -9.48044 -1.05027 21
105 1 -3.55383 7.83648 4.37401 19
106 1 -7.38384 3.02053 3.80059 20
107 1 -8.69141 -0.235788 -0.627129 20
108 1 -3.61028 -9.9552 1.96737 19
109 1 6.07647 0.508759 -12.2668 16
110 1 4.21614 0.584411 10.6317 17
111 1 -6.80118 -3.04577 2.16481 19
112 1 -0.428168 5.81506 -11.6213 16
113 1 -9.89823 -1.91698 -10.7105 9
114 1 -5.13908 12.7581 -1.36217 16
115 1 6.16452 5.4635 7.95135 18
116 1 -2.79186 11.835 -7.091 15
117 1 1.12757 8.64733 -5.42943 22
118 1 -5.2398 0.237568 4.18652 19
119 1 -8.50145 0.921425 6.45254 23
120 1 -6.34624 7.48208 9.45883 12
121 1 0.860872 -12.8134 -3.28969 17
122 1 -2.37287 1.70589 2.44872 24
123 1 -5.61482 -1.05885 -0.331802 21
124 1 2.44344 -6.35259 -1.01249 22
125 1 6.2819 10.2997 -4.4073 17
126 1 -0.597811 11.9236 -1.07502 23
127 1 -9.71408 4.49779 5.91788 17
128 1 1.68952 5.81034 10.9155 16
129 1 12.7462 -0.951748 -2.07057 13
130 1 4.6014 7.32671 9.75208 16
131 1 -8.58032 5.805 3.2745 19
132 1 -9.67494 -3.02897 -2.61777 21
133 1 2.23383 -5.37846 5.8639 23
134 1 1.15379 -9.98797 -1.70885 21
135 1 -0.368172 -0.543701 -12.1207 16
136 1 7.85979 1.22494 -4.35664 22
137 1 -12.1838 0.082648 7.15888 13
138 1 -7.52248 -5.52137 -7.77999 20
139 1 -4.72774 -8.71505 4.63588 20
140 1 -2.95573 -7.10777 0.306408 25
141 1 -6.6272 -0.896049 -10.7378 16
142 1 -7.77761 1.24496 -3.43826 21
143 1 8.6005 4.79038 9.58863 15
144 1 5.46177 -2.1415 9.72176 17
145 1 0.585531 -8.15269 6.38086 19
146 1 5.82949 9.7396 7.97168 15
147 1 -1.61976 -10.0478 5.13516 20
148 1 2.37444 14.5445 1.71504 14
149 1 -4.56606 -3.9565 -10.8597 18
150 1 -4.16893 -9.33532 -10.6954 14
151 1 -6.68646 -8.84275 1.88421 21
152 1 -4.97277 -6.06104 2.28601 23
153 1 1.81168 -1.48193 5.45694 23
154 1 2.93536 3.9499 1.23019 22
155 1 -5.34459 -4.82476 -2.89331 21
156 1 -6.44583 -0.945182 10.2765 18
157 1 -0.252323 -13.073 -0.694811 23
158 1 1.54223 3.3047 -6.51923 22
159 1 -0.665382 -15.147 2.619 13
160 1 4.06361 -3.82829 0.16151 22
161 1 2.00972 -14.4575 1.68319 14
162 1 -4.00248 3.52201 -8.77209 20
163 1 8.11282 7.64757 9.24728 13
164 1 -3.11449 -0.421906 -5.77846 20
165 1 1.16116 9.17347 -11.6816 11
166 1 -3.56089 -0.210828 9.62006 20
167 1 3.90628 12.5103 6.38906 12
168 1 12.7881 1.53774 3.28193 13
169 1 -12.7248 3.02781 5.89856 12
170 1 -3.73317 -9.46996 10.3111 12
171 1 -4.28267 11.137 4.07481 14
172 1 3.94462 -5.2486 -11.6414 14
173 1 3.60647 -11.7419 2.9388 18
174 1 9.52918 -1.97171 -9.45997 14
175 1 -3.78984 -2.57557 5.17404 17
176 1 2.78629 1.89951 6.17999 21
177 1 -9.5274 -2.48022 1.78556 21
178 1 7.66455 -7.5601 -2.76653 16
179 1 -2.31896 9.46579 1.48577 22
180 1 -6.77588 3.80439 6.95478 20
181 1 -0.195937 4.27363 2.72315 20
182 1 2.70898 -10.5212 9.1432 11
183 1 1.86093 2.58072 9.30755 19
184 1 -5.6555 -8.53189 -7.90366 19
185 1 4.89646 -0.650697 4.72974 21
186 1 -1.03818 12.8574 4.15252 15
187 1 -2.50702 8.56993 -11.4407 11
188 1 -12.4069 3.24309 0.712314 16
189 1 -3.70518 -5.26727 -7.9071 25
190 1 -3.41745 10.0889 -1.27916 21
191 1 5.53703 2.74537 5.5215 22
192 1 7.99728 -7.57842 7.92287 14
193 1 -3.1622 5.48899 -6.47749 23
194 1 0.92353 -3.4275 2.70716 20
195 1 -1.86862 -10.6106 -2.84479 21
196 1 -7.55752 -4.23872 -10.7408 13
197 1 -9.31133 -1.06928 -5.36203 25
198 1 -4.84707 -9.50758 -0.963153 22
199 1 -2.13699 -4.52837 -1.83566 23
200 1 11.3049 5.48646 -5.95603 14
201 1 -1.60437 2.70384 -6.20506 21
202 1 2.65259 1.15788 3.28837 19
203 1 -7.78654 7.13066 6.56836 14
204 1 -5.23918 10.3321 1.02125 18
205 1 -4.67361 3.02956 9.026 18
206 1 10.637 0.0891194 -4.07481 21
207 1 12.268 2.28335 -3.67517 12
208 1 6.38328 -0.309513 7.11991 19
209 1 -4.94122 6.55648 -3.59703 20
210 1 -3.02755 -14.1848 -6.88452 9
211 1 -2.018 7.884 7.38688 19
212 1 5.16408 -0.969825 -4.51221 23
213 1 -7.98427 2.2172 -6.35383 19
214 1 4.41223 -12.3306 -3.5846 13
215 1 11.1122 -1.92047 7.21823 14
216 1 -8.31322 -7.42803 -5.44463 15
217 1 -7.18284 -12.7898 2.87506 11
218 1 4.26454 9.02726 3.59097 22
219 1 -12.7217 2.68949 -2.87921 12
220 1 -0.866386 -8.75126 -4.63957 23
221 1 3.43803 -8.29116 5.18227 21
222 1 -7.05866 -11.0441 0.104859 15
223 1 -6.87479 2.94706 -9.31703 14
224 1 -1.35478 -11.9575 2.52473 20
225 1 -2.22783 0.102594 5.60059 19
226 1 1.83326 1.26825 -4.17568 23
227 1 -11.2509 -2.7892 7.3926 13
228 1 0.734763 -6.38145 -6.51529 22
229 1 -0.358531 -5.18995 0.837993 23
230 1 -13.4633 1.42661 3.25627 13
231 1 -5.77703 -7.67035 7.28131 22
232 1 -6.31248 -4.13804 11.6416 12
233 1 2.13518 -7.74507 -3.61692 18
234 1 3.86833 -8.87759 2.17835 24
235 1 -1.35049 9.68339 -3.32116 22
236 1 -7.93671 -7.09877 4.75221 19
237 1 11.964 -4.38498 5.31865 15
238 1 8.16179 5.57105 -0.929252 19
239 1 -4.01049 3.01131 4.93676 23
240 1 0.611758 -2.15838 -8.95506 21
241 1 8.96603 -4.70283 6.88279 18
242 1 -3.94602 4.47082 -0.718301 23
243 1 -3.34082 4.47886 13.252 13
244 1 5.2699 13.5835 0.355501 13
245 1 8.63466 -6.17188 4.81392 23
246 1 -2.82694 -13.9895 -3.51558 17
247 1 3.43584 4.62997 7.94802 17
248 1 -7.65478 2.20207 9.92806 17
249 1 -3.24826 -12.2863 -0.490977 20
250 1 -7.40469 -10.8536 -5.80852 12
251 1 -5.51464 9.60689 6.51258 15
252 1 -1.35486 -11.898 -5.66356 16
253 1 -5.24659 -2.86303 7.99187 21
254 1 8.56715 2.25116 7.11758 18
255 1 6.22741 4.18236 -3.16716 20
256 1 4.29168 1.63934 -8.76434 23
257 1 2.66609 4.45541 -9.78466 22
258 1 -0.513086 10.1214 8.20305 18
259 1 -11.0211 -1.26461 4.3798 18
260 1 4.08731 7.73831 -4.06296 22
261 1 -6.09294 -6.6792 -10.5079 13
262 1 3.11775 0.243026 -11.8772 16
263 1 6.22107 6.57683 -5.74369 22
264 1 3.03785 8.07783 0.45969 22
265 1 3.29155 -1.49036 -9.20161 19
266 1 0.110828 -6.27735 4.11428 21
267 1 6.83036 1.18885 -1.0771 21
268 1 -2.07024 2.23823 -11.6379 18
269 1 10.5793 6.20528 4.16539 15
270 1 5.78845 -6.83624 0.169158 22
271 1 4.1014 3.06966 -11.5351 19
272 1 1.77415 -11.1215 0.899659 23
273 1 1.25855 -7.3931 9.88779 13
274 1 -8.58739 -0.173255 -8.70814 20
275 1 6.08807 3.93253 0.704298 19
276 1 2.42222 6.17302 -12.4461 12
277 1 -11.1017 -0.0279958 -2.96837 20
278 1 9.48699 -3.09311 0.552506 22
279 1 0.119262 4.37619 -3.13388 22
280 1 -8.6781 6.4561 -4.77761 15
281 1 2.08253 -10.3723 -4.82479 18
282 1 1.93814 -2.97459 -12.2081 16
283 1 10.4602 -2.92661 -5.9698 13
284 1 0.614004 -8.36332 1.02853 21
285 1 -8.38786 -3.43133 9.52695 15
286 1 -0.594768 15.008 2.10351 13
287 1 -2.17401 8.58726 -6.42462 20
288 1 11.5627 8.47383 -1.86354 13
289 1 -3.97488 -9.30982 -5.06433 20
290 1 2.58142 -4.69206 -8.80166 22
291 1 1.3015 5.51971 -0.339689 21
292 1 12.8998 -3.90298 -0.747456 13
293 1 4.28221 -12.1875 -0.0924251 16
294 1 3.46116 -0.844449 -1.79791 22
295 1 -10.5384 2.60379 8.39162 14
296 1 -7.40786 -3.6737 -0.547745 23
297 1 -5.45595 -6.5641 -5.60272 19
298 1 -2.06221 -2.41048 8.23223 20
299 1 5.48798 8.97796 -7.21387 17
300 1 -7.25478 12.523 -3.94241 11
301 1 3.1191 15.0447 -1.72971 10
302 1 -0.0702208 0.146339 8.14991 23
303 1 5.61555 -9.48525 -4.90598 13
304 1 6.66977 -0.816127 -9.36516 21
305 1 -12.0477 -3.98599 2.51363 14
306 1 -4.56959 2.41272 -5.71037 22
307 1 -7.3357 -5.47348 7.80531 20
308 1 7.26887 7.93676 -3.1061 21
309 1 3.53146 -7.91169 -6.60993 17
310 1 3.12742 -4.62078 9.10714 18
311 1 6.45514 -4.24551 -4.83961 22
312 1 -0.550262 -0.959345 3.01513 21
313 1 -7.40964 4.3616 -1.5372 15
314 1 9.73367 -5.44403 -4.75159 13
315 1 2.55723 9.78519 8.14298 18
316 1 -0.51346 3.69141 -8.87946 21
317 1 5.74224 4.92088 -8.84472 25
318 1 0.532393 -6.02155 -12.0496 14
319 1 -5.20206 -11.6191 -8.38635 12
320 1 11.4182 4.94659 -1.07303 18
321 1 8.07633 -4.33854 -7.56155 15
322 1 5.00251 -6.79311 -2.96554 20
323 1 7.25437 12.0782 -1.60197 12
324 1 -10.3074 1.84014 4.13647 21
325 1 11.6074 8.29876 -5.04512 11
326 1 4.30013 -3.00998 6.6544 22
327 1 6.08404 1.37609 2.61314 20
328 1 6.01527 2.81705 11.302 13
329 1 -5.68947 -2.50155 -8.2908 22
330 1 10.9078 7.60694 1.23184 13
331 1 6.72055 -4.1195 1.61567 21
332 1 -3.86627 -7.01444 -2.8684 20
333 1 1.1741 9.51478 2.79077 21
334 1 1.74219 4.78735 5.01596 17
335 1 -4.71218 13.6778 -4.8529 10
336 1 -1.57758 -9.91336 -0.236951 22
337 1 -3.57043 4.9563 -11.5519 14
338 1 -3.31867 -1.10664 -11.285 16
339 1 -11.7252 1.12772 -5.75694 15
340 1 11.4704 -7.2624 3.67852 12
341 1 0.954347 -9.67558 3.62046 20
342 1 0.362937 0.081064 -1.43852 22
343 1 3.64074 -3.47118 3.50036 23
344 1 7.23583 7.57763 -8.92359 14
345 1 5.55299 -1.61022 1.4912 18
346 1 11.7421 -1.21245 1.19069 18
347 1 5.77598 6.72396 4.83217 20
348 1 12.3561 -4.46054 2.12267 14
349 1 -1.45869 2.38291 10.3876 20
350 1 -10.8281 -8.74556 5.3451 12
351 1 -9.5368 -3.35408 -8.22801 17
352 1 10.8422 0.503333 9.35082 12
353 1 -3.07719 12.6878 1.12192 17
354 1 12.8712 5.33134 -3.69357 11
355 1 2.13516 -1.28274 0.897567 23
356 1 5.41678 1.98271 8.41609 20
357 1 -9.77502 -0.600777 9.17337 14
358 1 11.3794 3.2037 -8.38594 14
359 1 -2.24182 -6.08974 -5.13262 20
360 1 6.3815 5.57158 11.5359 12
361 1 0.696581 1.62572 1.43986 19
362 1 -0.158506 -4.33415 9.98037 18
363 1 -4.20219 7.26701 11.5819 13
364 1 -6.09278 4.75584 11.438 15
365 1 -2.17542 6.53866 -8.98418 21
366 1 -6.96236 8.21133 -7.24601 12
367 1 6.35578 10.8246 4.90076 15
368 1 -3.78309 -5.37003 8.41337 20
369 1 3.9275 12.0353 -2.54516 16
370 1 -0.685988 -7.17386 -1.94164 24
371 1 -5.68846 -13.8434 -0.111101 13
372 1 4.43148 1.8648 -3.48559 19
373 1 -4.89104 1.92108 1.71672 21
374 1 -9.47529 3.37358 1.49741 20
375 1 7.96283 4.01959 -6.83423 21
376 1 3.14911 -0.325036 7.97197 23
377 1 8.08484 8.11502 6.29316 17
378 1 -4.52627 0.78161 -3.50142 22
379 1 0.180885 0.0147039 -6.69466 20
380 1 0.507585 7.67797 5.75902 20
381 1 7.7348 -4.72663 -1.74332 20
382 1 1.74093 14.4006 4.62104 11
383 1 -12.2195 -5.87804 5.34412 12
384 1 2.75293 -14.5467 -1.82474 12
385 1 8.62817 8.3061 -5.89086 17
386 1 2.72106 -5.91254 2.07676 22
387 1 -0.816595 2.99144 -0.39412 20
388 1 4.99872 -2.24912 -13.1083 12
389 1 -4.44134 -3.98001 0.186877 24
390 1 7.92201 -1.35491 -6.23343 20
391 1 4.14272 1.15748 0.486972 21
392 1 -3.00167 12.006 7.05928 12
393 1 5.52529 -5.99042 5.85993 22
394 1 2.02475 -2.84513 -6.44299 23
395 1 -5.68732 -11.8302 -2.82681 15
396 1 0.436155 -1.72519 -3.84716 21
397 1 -4.08053 5.38965 6.74645 18
398 1 12.1432 1.84983 -0.311549 16
399 1 -0.424931 11.5651 1.57945 21
400 1 9.27994 4.56026 -9.48418 15
401 1 -0.868847 -3.5681 5.65478 23
402 1 6.52017 1.4947 -7.33053 19
403 1 -0.0956331 5.82733 -6.19739 22
404 1 1.02572 0.990765 11.5207 17
405 1 -6.3389 -4.5638 5.05721 21
406 1 1.8024 -7.43853 -9.55578 16
407 1 -10.2666 2.40915 -1.20406 20
408 1 2.42471 6.41401 3.07728 20
409 1 -7.51768 -2.11016 6.84798 18
410 1 3.28719 10.7196 -5.307 19
411 1 -2.21768 1.33869 12.4338 17
412 1 -12.6294 -2.1697 -4.25402 10
413 1 8.89795 -0.278863 2.21992 19
414 1 -6.29534 -6.83264 -0.570313 24
415 1 12.3349 -7.29327 0.232426 9
416 1 5.80227 -10.0587 4.4414 17
417 1 -2.64603 5.27561 9.52946 20
418 1 -8.62129 5.33928 9.07612 14
419 1 5.1869 4.80125 3.42103 19
420 1 10.5094 -6.10229 -1.50243 17
421 1 2.94823 4.68995 -3.94619 22
422 1 4.96955 9.2507 -1.49339 22
423 1 0.545281 12.6514 7.18437 15
424 1 0.526582 -12.7885 7.66679 11
425 1 -7.28478 -3.92859 -5.25914 23
426 1 0.02305 3.82278 13.2858 11
427 1 3.7299 12.0766 3.26011 17
428 1 6.83899 -3.23964 5.01622 20
429 1 11.2683 -7.71199 6.46856 10
430 1 10.764 6.05758 7.61594 12
431 1 -2.55335 7.23754 -0.769806 18
432 1 0.214325 -9.4613 -7.49638 17
433 1 0.931452 2.87037 -11.436 19
434 1 -4.24017 -1.51823 12.6302 12
435 1 12.1307 4.50487 1.87478 16
436 1 4.36205 5.93385 -1.33658 23
437 1 8.16913 -1.02652 -12.0984 11
438 1 -9.47987 -10.1046 2.39525 13
439 1 -6.35038 -0.466116 -6.05672 22
440 1 -1.48481 -3.58173 -11.7285 16
441 1 -5.64106 -13.6426 -5.70543 9
442 1 -2.90089 -8.49721 7.47816 21
443 1 -1.46786 -2.30124 0.292992 23
444 1 -3.30277 -5.74758 5.3635 23
445 1 10.5906 6.89797 -8.47772 12
446 1 -6.57475 8.45393 3.50799 15
447 1 9.78042 2.84953 -2.19974 21
448 1 -6.51455 4.57088 0.872966 25
449 1 8.32777 8.57511 3.21078 15
450 1 1.75767 8.79521 11.0533 10
451 1 -11.5468 -0.795592 -7.98146 10
452 1 0.945187 6.96142 -9.0483 22
453 1 8.96045 -9.02253 -0.325117 14
454 1 -8.38302 -6.02606 -2.78816 20
455 1 -8.77895 -9.1883 8.15755 13
456 1 11.6184 -1.54166 4.15676 17
457 1 -10.9913 6.40391 0.824264 13
458 1 1.29341 13.3096 -4.10387 15
459 1 6.36501 -4.87464 8.24717 18
460 1 1.18586 -3.31029 -1.37446 21
461 1 -5.05896 1.7768 12.1234 14
462 1 -1.72779 0.727152 -9.30007 21
463 1 -7.92332 -10.3337 5.14049 17
464 1 9.26194 2.84232 11.1713 12
465 1 -2.51391 -15.1401 -0.114262 14
466 1 10.2728 0.321996 -7.47423 15
467 1 -8.20391 7.96143 0.860373 15
468 1 -5.59824 0.527143 7.23092 19
469 1 -1.09459 -3.15729 -6.4018 20
470 1 0.364507 -15.8938 -0.603266 9
471 1 8.34014 5.64666 2.43952 20
472 1 8.84327 5.36563 -3.84507 20
473 1 -5.37659 -10.4688 7.58321 15
474 1 2.18439 2.66656 -1.4797 20
475 1 4.81577 3.73004 -6.17935 20
476 1 -10.9281 4.03538 -5.53295 11
477 1 2.34982 11.3453 0.189322 19
478 1 1.85052 10.3118 5.46833 20
479 1 1.76181 10.1811 -2.65001 21
480 1 -1.00874 7.81534 9.76483 15
481 1 5.79068 -2.10846 -1.2435 18
482 1 -2.47428 -4.13857 2.79014 25
483 1 2.83369 -11.0541 6.16288 17
484 1 -3.79768 -1.34495 1.73128 19
485 1 11.6411 3.54806 8.86697 13
486 1 10.4838 -3.09243 -2.71107 19
487 1 0.797607 -4.83758 -3.9822 20
488 1 -4.14978 9.1388 -8.38779 16
489 1 -3.18007 5.2759 2.21607 20
490 1 -2.74826 -1.4749 -2.41903 20
491 1 -5.22935 7.30077 1.07082 19
492 1 -2.21103 -7.83411 3.0676 20
493 1 6.66616 -10.5981 -1.76745 14
494 1 9.34939 1.21116 -10.2889 16
495 1 -7.76201 0.540949 2.19191 20
496 1 -5.83619 3.93892 -3.64456 20
497 1 9.01994 -2.44914 9.70923 11
498 1 -10.6052 -5.85672 7.47806 14
499 1 9.17441 -0.184455 -1.01109 21
500 1 2.51274 9.57439 -8.31952 16
501 2 -9.20438 -3.74535 -10.028 12
502 2 -5.52429 8.4881 -2.64237 20
503 2 4.56156 1.41444 -12.2325 16
504 2 -3.08793 1.88458 9.29679 21
505 2 -7.1181 -5.47285 -9.58499 15
506 2 -1.43761 5.12437 13.2055 14
507 2 -11.6302 -1.53126 6.16743 13
508 2 7.91854 7.67072 -1.38004 19
509 2 4.8069 -1.4113 7.79219 25
510 2 -2.70436 -6.52339 -8.84398 21
511 2 -8.76373 -4.49218 -1.60215 22
512 2 -5.28292 3.18661 0.290229 20
513 2 -0.317862 -11.066 4.07957 19
514 2 7.79083 4.21418 11.5065 11
515 2 7.76746 -2.01541 -10.2828 18
516 2 5.95807 1.8346 0.644189 21
517 2 -3.47422 5.57007 -2.78351 21
518 2 11.0675 2.01371 7.97037 15
519 2 -1.46167 -5.95209 -0.596372 24
520 2 -9.17754 -9.28599 6.26896 14
521 2 -4.69204 -9.09374 6.44087 20
522 2 8.90891 -6.44396 6.75458 18
523 2 -9.39714 6.98767 1.83068 17
524 2 -7.4362 6.4872 -6.24187 15
525 2 -1.16122 6.28459 8.63446 22
526 2 -8.52506 3.98853 -0.104375 21
527 2 3.65626 0.313577 -4.3855 17
528 2 12.3418 -2.61113 -1.89478 15
529 2 -2.88315 -2.287 -6.54422 20
530 2 1.13389 -5.82335 -8.4995 22
531 2 -3.44856 -5.17521 -3.07415 21
532 2 10.07 2.8891 -9.93214 12
533 2 -9.04409 -6.21551 3.57229 21
534 2 7.53915 9.19967 1.69613 17
535 2 -3.65013 8.64678 0.366983 18
536 2 -2.02772 -12.4067 -7.47186 12
537 2 2.87622 -6.56126 9.3267 14
538 2 11.5579 -3.53115 3.66163 17
539 2 -11.8683 2.65462 -4.58582 13
540 2 2.85084 -3.15544 1.55185 22
541 2 -0.877329 2.83912 1.52238 21
542 2 0.780801 1.67814 -0.455296 24
543 2 5.15109 -10.6023 2.67987 18
544 2 -2.20995 9.12855 9.00125 16
545 2 5.49248 10.7575 3.06832 15
546 2 4.50822 7.30055 -5.93946 22
547 2 -7.24052 5.85618 10.2991 14
548 2 6.1362 1.22807 -9.50808 22
549 2 -6.33168 0.205108 -3.94776 23
550 2 -13.3618 1.70879 1.5468 11
551 2 -10.4033 -8.67754 3.47323 14
552 2 -0.493912 -7.95776 3.91176 17
553 2 -2.53304 -0.570128 12.5091 14
554 2 0.233787 5.79951 6.17256 22
555 2 -6.74456 4.8051 2.74721 23
556 2 7.28487 -3.39606 -3.12693 21
557 2 7.91748 2.10021 -6.03609 20
558 2 -3.07358 -9.69048 3.80252 17
559 2 6.61874 -3.00362 -6.44 21
560 2 2.11232 3.63944 6.89908 18
561 2 6.53372 -7.5689 -4.31109 17
562 2 5.90187 -4.23375 6.50622 22
563 2 -5.40731 -3.14012 6.02904 20
564 2 11.603 3.02381 -1.75384 17
565 2 2.05656 -4.80115 3.81795 19
566 2 -5.33439 -8.41801 10.8548 14
567 2 9.42083 -7.3241 3.28966 17
568 2 2.90838 4.58486 -6.06199 22
569 2 2.91763 -4.43241 -1.35673 22
570 2 -4.55487 -5.87502 -11.3146 15
571 2 -6.30446 -4.73664 3.23696 22
572 2 0.240299 -3.38442 0.507236 24
573 2 -10.6282 -3.04818 3.40968 20
574 2 -2.61199 9.27428 3.55386 20
575 2 3.29812 -1.53868 -7.17823 22
576 2 9.48706 4.54402 -5.52629 24
577 2 2.44835 11.6377 -3.82868 15
578 2 -8.04614 5.29462 7.3378 16
579 2 -3.21391 3.53403 -6.96811 23
580 2 -10.8384 6.7953 -1.02775 11
581 2 -2.94428 3.97275 6.21729 22
582 2 -9.96278 5.50436 4.45961 17
583 2 -0.222296 5.99901 -4.06189 22
584 2 11.0956 5.11673 -8.02606 14
585 2 10.3496 -7.67642 -0.332911 13
586 2 3.40431 10.4723 -1.41379 20
587 2 0.481368 13.4221 5.45703 14
588 2 -6.20724 1.53113 3.27861 21
589 2 -0.065045 4.68566 -1.34587 21
590 2 11.0362 9.32048 -3.60778 10
591 2 -0.795265 8.20939 0.892235 21
592 2 -2.18195 8.35337 -2.16922 20
593 2 -1.29923 3.85331 9.03658 18
594 2 -2.19833 -1.83411 6.22223 20
595 2 2.71663 -4.0111 7.14605 22
596 2 3.58212 -4.15194 -7.16768 21
597 2 -4.62577 5.37052 12.2767 14
598 2 4.12623 8.7301 -8.54607 15
599 2 -6.80499 -9.19361 8.33756 17
600 2 -1.24977 -13.0432 -4.09336 14
601 2 -2.42164 -10.4374 -4.7126 17
602 2 5.51714 -10.916 -0.384364 17
603 2 -1.70085 -0.384785 -0.891405 22
604 2 7.22723 7.94609 -7.01472 18
605 2 -3.8602 3.21065 -12.0445 11
606 2 -0.902435 9.0644 6.43557 23
607 2 -3.58538 0.487898 1.29863 22
608 2 -9.85848 -1.54832 -7.60801 18
609 2 -0.221532 4.02455 -6.76288 19
610 2 0.965111 15.0411 2.94109 13
611 2 3.11366 1.93008 11.339 15
612 2 2.49245 -11.9539 -3.70564 15
613 2 -0.443345 2.04283 12.2198 16
614 2 12.3614 -5.56677 -0.654495 11
615 2 4.22077 8.93471 8.54567 14
616 2 -2.51305 6.59854 -11.5179 13
617 2 4.94556 -3.91008 9.1349 16
618 2 -1.02043 -11.9215 8.31831 13
619 2 7.4793 -9.53656 7.54145 11
620 2 -3.12743 12.8601 -5.49209 13
621 2 -3.14221 -10.3712 -1.38575 21
622 2 0.283966 -0.199404 -8.82284 22
623 2 -1.12002 -9.30837 -8.94491 16
624 2 11.9597 4.75179 7.1415 13
625 2 -9.89064 -6.8093 0.645105 17
626 2 -11.893 3.86663 -1.72592 14
627 2 6.71114 -1.31381 5.52715 17
628 2 -4.35921 -7.50132 -1.00191 25
629 2 -0.597946 -5.17424 -5.39368 23
630 2 1.72608 1.1283 -6.17149 21
631 2 -0.0631859 -2.37236 -11.8892 15
632 2 -5.93063 -2.658 -10.5258 16
633 2 -3.50711 -3.52924 8.70103 20
634 2 -4.88925 -13.2981 -7.39136 10
635 2 2.26447 -6.61277 -5.45202 23
636 2 5.10542 -2.13655 -9.45326 21
637 2 -7.11964 -3.51745 8.09246 19
638 2 -3.1244 -0.582866 -9.31406 24
639 2 -0.427697 -3.39191 -2.62745 22
640 2 2.86549 6.18315 -8.99037 19
641 2 -4.08672 -8.51416 -6.8943 20
642 2 1.93287 10.3589 -6.65097 16
643 2 2.41649 11.6534 6.89117 15
644 2 8.40972 4.12597 7.7958 23
645 2 -12.8855 0.938662 -1.99835 17
646 2 -0.474682 -13.0091 5.99149 15
647 2 -1.81501 6.71524 -7.0228 21
648 2 -4.5227 6.61689 3.09325 21
649 2 -6.68008 -8.43645 3.98585 22
650 2 -2.0478 -2.45375 2.04625 21
651 2 -1.53011 2.94866 -4.23668 24
652 2 -5.46873 -6.22447 8.64462 23
653 2 2.23433 -12.0334 7.91484 12
654 2 -9.86014 -1.30551 0.180261 22
655 2 -6.6726 -12.8823 1.14046 13
656 2 -11.0756 -7.32631 6.32156 12
657 2 8.20028 -3.98676 8.79054 14
658 2 8.42481 10.6391 -1.77283 16
659 2 -4.34224 -1.38284 3.72755 23
660 2 4.5536 3.64262 -4.24505 20
661 2 10.5493 7.53403 -6.49712 12
662 2 -1.64191 13.2069 -2.12268 19
663 2 -9.31075 -6.03917 -4.43207 15
664 2 -11.7842 0.956409 -7.7602 12
665 2 -1.96141 -13.6328 -1.35726 18
666 2 10.7052 -3.63148 6.59086 15
667 2 11.606 -6.21315 5.54369 13
668 2 -7.77388 10.8084 -3.54959 14
669 2 4.16185 -0.80326 0.0691198 19
670 2 3.96492 -1.25688 10.8378 14
671 2 0.413255 -1.9422 -5.90854 19
672 2 6.12792 4.84461 -1.26213 19
673 2 3.81505 7.58031 2.29233 20
674 2 0.0803732 -6.18943 5.96088 18
675 2 -11.7178 0.312436 3.1668 18
676 2 5.37861 2.85879 3.67969 18
677 2 4.31851 3.52667 -9.62956 22
678 2 -5.40564 -8.19947 -9.75745 16
679 2 -6.11215 -2.77081 -6.35831 22
680 2 -7.88708 0.0733293 9.70055 17
681 2 4.71529 7.61123 -0.478324 19
682 2 2.2719 -3.62206 -4.53647 20
683 2 7.9982 4.40838 0.872055 22
684 2 10.2923 -9.06519 5.91181 11
685 2 -10.758 2.11237 0.74767 21
686 2 -2.95384 6.97489 5.87545 18
687 2 -6.20873 12.5773 -5.51017 11
688 2 3.33323 0.308019 -9.87527 21
689 2 -3.62863 3.18314 3.01998 24
690 2 -0.702452 -5.01031 2.7931 21
691 2 1.78723 3.27439 -3.29114 23
692 2 -12.4862 -0.917719 0.492744 14
693 2 2.64167 -10.7359 -0.691895 22
694 2 -3.17289 -11.8806 1.38123 20
695 2 -4.31919 11.5185 2.23666 16
696 2 1.32165 -6.503 0.729486 23
697 2 -11.3184 -0.66873 -4.88645 15
698 2 3.10382 -12.6977 1.45625 16
699 2 3.46084 5.22609 4.31139 23
700 2 2.10053 -2.91982 -9.58914 19
701 2 1.0548 8.91307 -9.38825 15
702 2 7.53767 3.88359 -8.83621 21
703 2 2.50572 15.4797 -0.0848109 11
704 2 -4.90615 -0.124472 11.27 16
705 2 -7.54327 -2.94892 10.9132 15
706 2 -3.93174 -7.01871 3.78009 21
707 2 -1.58499 5.53037 3.34563 20
708 2 -11.389 -2.02343 -2.4089 16
709 2 -1.13806 1.30357 6.61904 18
710 2 -0.478737 5.51944 -9.53034 21
711 2 0.82182 -0.245456 1.83018 24
712 2 7.12545 -0.602827 -4.4897 21
713 2 2.12952 0.598402 4.93643 21
714 2 -6.84746 -5.59896 -4.43 23
715 2 4.26702 6.76592 -12.3605 11
716 2 3.38729 1.17913 -1.7529 21
717 2 4.43703 6.31127 7.92144 18
718 2 9.03524 1.84252 -0.635866 22
719 2 -9.69207 0.174838 5.07676 19
720 2 -2.97752 10.5136 -3.20991 20
721 2 0.102639 7.86129 11.4625 11
722 2 -2.78827 -0.222068 -3.84518 20
723 2 2.7694 -11.8884 4.53179 19
724 2 -3.54512 -12.3538 6.11211 13
725 2 -8.24972 -2.3974 -4.16332 24
726 2 4.47659 0.127255 2.8428 20
727 2 8.04516 9.27775 -4.33468 17
728 2 3.68035 13.1371 1.67276 16
729 2 0.748019 3.19144 4.13103 20
730 2 4.68825 -9.72685 5.95435 20
731 2 3.74577 -9.45755 -5.27102 16
732 2 2.35223 4.24214 -11.9125 16
733 2 8.65449 -4.10676 1.92287 20
734 2 1.7255 4.5759 12.3541 13
735 2 3.3305 1.52872 8.33888 22
736 2 3.81397 -7.3358 3.39391 22
737 2 1.11061 0.910061 -11.8358 17
738 2 9.89182 -0.929103 -5.76937 20
739 2 -5.37938 10.9267 -0.899965 18
740 2 2.078 -8.55848 -8.10937 17
741 2 -1.50316 -3.07691 10.6201 19
742 2 0.394832 -2.0879 4.18606 23
743 2 -4.49568 0.253403 -1.43093 23
744 2 -8.41656 1.91054 -8.64267 15
745 2 9.05314 -6.05918 -3.04583 15
746 2 3.26285 13.217 4.78718 14
747 2 10.4943 8.67954 -0.40734 13
748 2 11.3787 5.78625 0.736047 15
749 2 -6.92817 -7.09456 -6.84126 18
750 2 -9.79414 2.89879 -6.47381 11
751 2 -6.68024 3.30291 -5.66464 21
752 2 -7.12692 0.774443 0.342672 22
753 2 4.47309 7.92011 5.22527 23
754 2 -7.95281 8.55886 -0.947197 15
755 2 -2.8693 -6.49243 7.01508 21
756 2 5.91637 1.1507 10.4533 17
757 2 0.333243 -10.8874 -6.06171 16
758 2 1.94806 -4.81018 -12.0897 14
759 2 4.13536 13.4984 -1.32649 16
760 2 2.68877 10.3608 3.82675 19
761 2 -5.15237 -7.9552 -4.00937 22
762 2 -6.61388 -10.3192 -1.61287 18
763 2 12.4304 -2.99607 0.868242 14
764 2 -6.35689 5.51449 -2.65213 20
765 2 -1.12977 -8.90433 6.74856 22
766 2 7.02688 -6.60423 1.52895 22
767 2 -6.40204 -6.1138 6.09836 20
768 2 -8.41325 -4.08065 1.31862 22
769 2 5.034 4.21498 11.9945 12
770 2 2.29724 8.41188 -3.75955 21
771 2 -7.27623 6.99414 4.72853 17
772 2 2.55644 2.09282 1.60218 21
773 2 -3.55837 -5.92329 10.5682 17
774 2 -1.04243 15.1082 0.251617 14
775 2 2.13467 -15.2214 -0.0927079 11
776 2 3.83857 -6.65768 6.16578 21
777 2 10.3451 -1.29964 8.92518 11
778 2 -11.5698 4.72908 1.58595 15
779 2 -2.64236 3.02995 -1.21524 21
780 2 -2.4363 6.82015 10.9538 15
781 2 -6.32893 -10.5067 -7.41994 12
782 2 9.89063 -1.31647 -2.74024 20
783 2 6.60805 -6.33651 -1.43444 21
784 2 3.22784 6.34359 -2.90878 22
785 2 -3.49393 2.5831 12.882 13
786 2 -7.24518 -1.64989 -1.10463 23
787 2 1.61017 -1.3572 -1.42625 22
788 2 9.78534 1.88085 -3.78853 19
789 2 -5.61069 4.29935 5.53086 19
790 2 -4.23011 0.869799 5.55923 18
791 2 5.73059 -3.2819 3.08092 22
792 2 1.07465 7.22418 -11.8429 16
793 2 -11.7038 -1.70018 -9.70952 8
794 2 0.25277 0.26185 -3.54371 20
795 2 -0.879268 -3.33988 -8.34967 21
796 2 -3.7706 8.48245 -5.27594 21
797 2 -5.03525 -0.19486 -11.5862 14
798 2 6.62866 -5.01058 -8.90949 15
799 2 -2.14097 -8.63763 1.26876 21
800 2 -1.98806 -8.68472 9.88908 14
801 2 -1.60979 0.530078 -6.49248 21
802 2 9.50622 -4.56001 -0.737354 21
803 2 4.6451 4.82974 1.61734 23
804 2 10.6631 -3.70081 -4.31483 14
805 2 -0.696399 -15.3994 0.779527 13
806 2 9.57611 6.80023 5.97762 18
807 2 -2.69909 11.9767 5.05622 15
808 2 -7.8614 -1.44691 2.50286 23
809 2 12.4215 0.546257 -3.49401 13
810 2 2.01652 -9.54164 2.0321 21
811 2 -6.56833 8.64843 1.77188 18
812 2 7.96324 0.948656 -11.6888 13
813 2 5.27967 3.57938 7.31362 16
814 2 -12.212 3.06305 3.90147 15
815 2 -1.32194 10.6062 -7.6195 15
816 2 -6.93402 2.69719 -2.35797 18
817 2 -4.77334 0.584102 -6.44128 22
818 2 6.60007 -1.24576 -13.0555 11
819 2 -8.33179 -2.97396 5.00175 22
820 2 -1.42242 -0.732655 9.29842 22
821 2 12.4786 -0.403874 2.81667 15
822 2 10.009 -0.14246 -9.31362 14
823 2 -7.73699 -7.59858 -1.78104 20
824 2 -0.313242 -11.2311 0.897892 21
825 2 12.0292 3.89386 -4.67086 17
826 2 1.57634 7.36651 -0.896038 20
827 2 0.670367 -7.63625 -10.9748 13
828 2 -11.2282 3.64461 6.92462 15
829 2 -7.03816 -0.266916 6.28564 18
830 2 5.65072 -10.9939 -3.63358 12
831 2 -4.80012 -12.875 -1.47948 17
832 2 -0.198387 -8.8117 -0.90512 21
833 2 10.8374 2.18355 -7.13775 17
834 2 -0.76202 9.36962 -11.4794 9
835 2 3.09103 7.34086 10.9182 13
836 2 -3.95885 -14.491 -5.05641 9
837 2 9.05967 1.60149 5.35888 17
838 2 1.04983 9.46403 9.41333 14
839 2 2.81439 4.32586 -0.739072 23
840 2 -6.33635 4.68575 -8.4788 16
841 2 -1.97765 -7.32884 -3.60872 20
842 2 -8.53323 -8.26681 9.84596 13
843 2 -9.32837 8.27041 -3.85578 13
844 2 4.9704 10.4258 -6.07465 13
845 2 -0.69405 9.28113 -5.21305 21
846 2 5.9251 11.5504 -2.91073 16
847 2 -4.2011 -3.76885 -8.89273 22
848 2 4.11701 -13.18 -1.77731 13
849 2 -8.8053 -4.27314 -6.6304 16
850 2 9.33348 6.39319 8.97021 16
851 2 -1.7306 0.435842 -11.3798 16
852 2 -11.8547 -5.7308 3.52752 12
853 2 12.2642 2.44548 4.9309 13
854 2 6.47319 6.52516 9.86747 15
855 2 8.61437 6.19841 -8.869 16
856 2 0.90644 12.5444 0.428861 23
857 2 1.47902 14.4429 -2.55298 13
858 2 12.242 -0.163662 -0.412902 14
859 2 -4.44204 2.86259 -3.77873 24
860 2 -0.0231513 10.1817 -2.07951 24
861 2 1.71272 -3.375 9.90854 16
862 2 -2.50927 -8.40199 -11.145 13
863 2 -5.17454 -2.98049 -3.4889 23
864 2 9.2022 1.13705 10.0437 16
865 2 -8.55909 2.82057 5.79285 18
866 2 8.16832 -9.40258 1.31835 16
867 2 8.11566 -5.47859 -5.92642 15
868 2 1.95676 4.57516 9.44385 16
869 2 6.19167 -6.94006 7.88128 17