ITEM: TIMESTEP
22000
ITEM: NUMBER OF ATOMS
2000
ITEM: BOX BOUNDS pp pp pp
-30.0 30.0
-30.0 30.0
-30.0 30.0
ITEM: ATOMS id type x y z Coordination
1 1 -2.40999 5.72646 -18.9916 12
2 1 0.0402138 -12.1738 -10.0507 22
3 1 5.30837 17.6017 10.4115 8
4 1 11.5344 -9.95656 0.902439 13
5 1 -8.30425 9.40429 -3.73391 21
6 1 15.0345 -9.92001 -11.0511 7
7 1 -9.20317 6.16962 -8.86745 19
8 1 1.66625 -5.22231 8.48397 19
9 1 -5.21616 2.17414 -15.423 23
10 1 -9.40111 -5.2892 2.01104 19
11 1 12.7689 6.70847 -15.2756 14
12 1 -3.94709 -16.1001 -0.494514 14
13 1 -8.50611 -8.07736 0.585739 20
14 1 5.63925 5.00653 13.4221 19
15 1 1.93152 12.4294 -11.8741 21
16 1 4.43167 -3.59658 11.6341 16
17 1 -2.78352 3.4391 -16.6159 19
18 1 -7.69199 -6.91351 11.9073 10
19 1 18.3247 10.2349 2.0805 9
20 1 2.25039 9.99265 -14.0592 19
21 1 6.65732 7.20251 -15.5171 23
22 1 12.2605 5.99756 11.8111 18
23 1 -8.22354 3.33402 -10.4509 16
24 1 -5.39103 11.3045 5.61186 18
25 1 8.7814 -7.75936 7.12119 13
26 1 5.98859 -12.5922 -13.013 15
27 1 16.6364 -7.80121 -1.62348 7
28 1 -2.78217 -10.9004 -5.16003 24
29 1 -11.8437 -3.54036 4.13331 15
30 1 2.16755 -5.42817 -15.7861 21
31 1 11.1825 -4.15612 -19.1679 7
32 1 2.64937 3.85032 -20.9597 10
33 1 1.74532 5.70067 8.31377 18
34 1 1.59671 -10.9704 5.25602 15
35 1 4.1622 -0.997776 13.1987 18
36 1 -8.4845 0.131424 -2.03321 19
37 1 -8.72453 2.94546 5.88469 18
38 1 -3.25256 15.2702 -3.83369 19
39 1 -3.27872 -14.1735 -10.0031 11
40 1 7.30804 -5.50068 -11.7433 23
41 1 2.69417 0.827859 15.167 16
42 1 -6.44613 8.3407 -2.06752 19
43 1 10.2673 14.3321 -11.2185 20
44 1 4.96677 15.2289 8.1962 18
45 1 -6.3498 5.29922 -14.1169 19
46 1 2.15677 18.0167 -1.22202 15
47 1 5.40435 -8.93521 1.42587 19
48 1 10.0653 -5.89809 -6.57265 17
49 1 6.86478 -7.93022 -16.9313 13
50 1 -3.30171 12.257 11.4254 11
51 1 -10.9618 -6.54247 -10.8861 13
52 1 -3.10095 9.35791 -6.91689 24
53 1 -5.16253 -9.34776 5.04529 18
54 1 -2.14568 14.2266 9.0361 12
55 1 -9.11344 10.0907 -11.5418 11
56 1 -3.86178 12.2754 8.12272 19
57 1 4.86948 -15.436 3.42214 13
58 1 5.72123 -17.2103 -3.60459 13
59 1 8.07657 13.0461 10.4931 16
60 1 -7.87596 6.25524 -16.7144 10
61 1 -7.90043 12.7534 -15.3374 6
62 1 6.95501 12.0742 7.73526 19
63 1 12.5035 -5.01113 -12.0035 17
64 1 13.1471 -8.00388 3.56157 9
65 1 -11.9921 -3.54211 1.00479 13
66 1 7.03989 18.348 1.58777 22
67 1 7.05072 -2.79623 13.4246 12
68 1 -6.42144 -12.0799 3.17475 16
69 1 13.5003 6.23527 4.85762 21
70 1 7.10225 17.9854 7.90287 11
71 1 -0.208428 -6.40641 -10.0451 19
72 1 -9.12625 7.6074 2.7501 19
73 1 -5.50982 11.2816 -3.20206 19
74 1 -1.14097 8.61751 -15.5101 19
75 1 10.4844 13.6849 -1.50174 20
76 1 10.5952 -7.19558 2.7159 17
77 1 -0.223201 17.0301 -6.15644 17
78 1 -4.78975 14.4062 4.29328 19
79 1 -4.89731 1.1389 10.8812 17
80 1 -3.37684 -5.25732 4.59181 21
81 1 12.5425 -5.39754 -8.5491 22
82 1 -5.83964 5.15985 2.70939 21
83 1 -5.7608 -12.7859 0.250324 17
84 1 14.892 -10.0253 -3.75778 10
85 1 7.62673 4.00035 -13.9443 21
86 1 -0.234941 -1.3434 -16.8862 20
87 1 2.6995 14.3581 5.42168e-04 19
88 1 -7.04046 13.5796 -11.8887 10
89 1 6.43473 6.85134 15.0141 21
90 1 5.70318 16.9707 -6.65665 20
91 1 -10.8043 12.8345 0.619121 9
92 1 -6.30429 -5.28954 9.67952 18
93 1 16.2014 -0.231404 6.30085 11
94 1 7.45717 -7.94103 -10.1701 20
95 1 5.99753 -0.15057 15.6832 11
96 1 -8.28276 -5.40139 -2.42457 18
97 1 -5.51556 -6.46725 -7.15146 19
98 1 14.1559 -8.06818 0.612336 14
99 1 7.84663 3.82182 -16.6817 18
100 1 9.19233 21.3363 -5.87354 9
101 1 2.89307 -6.26818 10.6756 15
102 1 -0.725554 -12.5079 3.80622 14
103 1 7.23342 -11.3914 -15.6287 8
104 1 9.63602 -6.26199 -3.00597 18
105 1 2.23863 -13.7804 4.2513 16
106 1 -6.59774 -6.30234 -0.182866 22
107 1 12.5577 12.175 7.42205 16
108 1 12.2961 -1.18158 -12.2221 20
109 1 -11.3187 -3.71304 -1.55166 17
110 1 14.9789 10.7285 2.37846 17
111 1 15.599 7.63302 -5.35215 15
112 1 -2.86428 6.77095 10.6772 17
113 1 -2.63223 11.9306 5.56774 19
114 1 -3.66815 12.2848 -8.72615 21
115 1 1.95723 -5.24081 -12.2948 19
116 1 5.4134 -14.9935 -11.3336 13
117 1 7.11488 16.2724 -15.5618 8
118 1 6.53899 -5.69476 12.0158 10
119 1 3.16812 -1.14507 -19.5909 12
120 1 -0.908137 11.2388 -10.4005 23
121 1 12.2954 3.38378 -7.15864 19
122 1 -9.10995 11.6612 -8.5911 12
123 1 -5.96373 10.979 -0.0498334 18
124 1 7.18854 0.822656 -11.8966 21
125 1 15.6171 -3.14204 5.31211 10
126 1 -6.82725 15.7298 7.0 11
127 1 16.2003 5.95594 -10.4303 7
128 1 7.41545 14.907 -6.40015 20
129 1 -0.349994 17.0493 -2.76817 17
130 1 13.9002 14.1422 -9.81697 14
131 1 -1.15385 14.1263 -5.19695 20
132 1 4.10652 14.9471 -16.4918 11
133 1 5.66397 11.2816 -16.5413 16
134 1 -3.64145 -11.9352 7.19904 10
135 1 -11.1295 10.6819 -2.43361 11
136 1 -2.69466 0.331177 -15.662 21
137 1 2.47091 -9.4689 -17.0449 10
138 1 9.73373 18.1565 2.55329 12
139 1 5.00544 16.6825 -0.344967 19
140 1 -8.78854 0.187025 -9.03223 15
141 1 -7.2772 15.9586 3.04072 13
142 1 15.9987 -0.369337 -10.1919 15
143 1 -7.93564 2.85252 -17.3492 13
144 1 8.82866 7.13575 12.8743 24
145 1 8.73109 21.9947 -2.59535 10
146 1 -1.03117 10.2211 8.08326 20
147 1 -0.381757 -4.4459 -18.1795 22
148 1 2.24436 14.7987 6.6239 17
149 1 -0.388836 14.2529 -8.4657 18
150 1 1.76096 -4.01288 12.9637 12
151 1 -11.302 -6.64829 -0.859639 12
152 1 -2.54343 -11.3867 -11.5622 18
153 1 -6.2755 11.2638 -10.5975 22
154 1 -0.738707 -8.93743 1.60384 19
155 1 7.9802 -13.4761 -7.53996 18
156 1 -3.97612 14.6224 -10.6061 11
157 1 -12.0478 5.05943 5.65307 12
158 1 12.2417 12.3284 -7.34915 20
159 1 -0.370685 5.71942 12.7032 14
160 1 5.05742 -9.46891 8.19389 13
161 1 -0.298414 17.7206 1.46708 11
162 1 1.39681 8.76655 6.81173 22
163 1 11.6441 7.82185 15.0435 10
164 1 -3.15172 15.6622 2.71375 16
165 1 16.8263 -3.61169 -15.1357 7
166 1 -5.18114 14.4605 9.65066 14
167 1 14.838 -6.8575 -7.08269 17
168 1 -9.56161 0.597387 3.18578 17
169 1 -3.2421 -11.3508 1.85127 17
170 1 8.67291 4.75226 15.291 18
171 1 -11.9064 5.87456 -7.13136 12
172 1 -1.21127 -17.9183 -3.8356 12
173 1 -0.876096 11.2596 3.22712 17
174 1 8.31265 15.9951 11.0054 9
175 1 -0.503029 17.4472 -9.45892 11
176 1 -11.9593 -9.51645 -10.5052 6
177 1 -7.36648 -0.676681 8.91254 20
178 1 1.56846 -8.43088 3.24998 18
179 1 8.40193 -11.0786 1.67442 16
180 1 -9.96576 13.9291 2.65241 11
181 1 15.4503 5.10465 -0.280325 16
182 1 -2.71168 -5.24881 -15.8625 18
183 1 7.33764 2.87059 10.2241 21
184 1 4.72422 -17.1982 0.228828 16
185 1 -3.13024 9.37024 -13.5339 16
186 1 7.7937 -15.8241 -10.9199 9
187 1 7.2829 0.729901 -15.0386 19
188 1 9.03036 10.0465 -17.4463 9
189 1 -3.72008 -2.25057 -10.1958 21
190 1 2.26424 15.1807 -6.66733 20
191 1 -3.69903 -10.4568 9.00358 12
192 1 12.6973 18.1052 -5.63668 15
193 1 -2.78652 0.326245 14.9325 9
194 1 -4.30451 14.9202 -7.03552 16
195 1 10.3888 2.17523 8.35042 21
196 1 -0.109084 -7.60098 -17.1685 15
197 1 -0.602392 14.1514 -11.8995 16
198 1 4.98076 5.62048 -13.75 19
199 1 -3.85509 -7.25855 10.8613 14
200 1 -7.94168 13.6665 5.2799 13
201 1 -6.98675 8.22116 7.37023 18
202 1 2.26569 -11.28 -8.60261 21
203 1 -0.255701 -15.1309 -4.5416 18
204 1 10.9184 -10.8571 -4.10367 12
205 1 9.41448 10.495 13.9253 15
206 1 7.31281 12.4098 -11.4071 19
207 1 -5.98326 13.8375 -2.31816 17
208 1 4.37641 7.97276 8.45625 22
209 1 0.573233 -19.654 -1.66616 12
210 1 12.5633 0.371494 -5.37226 19
211 1 -8.50982 9.3444 -0.519764 24
212 1 -6.19745 -3.82267 -5.53945 20
213 1 10.3907 5.37364 -13.9093 22
214 1 7.35788 -2.84726 10.4529 19
215 1 12.1462 13.6821 -14.3616 10
216 1 -0.378713 -0.945767 -13.7996 21
217 1 4.20218 -11.8199 3.37927 18
218 1 10.0019 -0.661632 -10.4715 24
219 1 -7.86867 -0.0176818 1.299 19
220 1 4.75937 -15.5735 -7.93395 18
221 1 -8.77432 -2.03016 -10.8246 16
222 1 4.80784 16.8224 -3.2946 20
223 1 10.1027 -1.22573 -19.9146 9
224 1 6.98517 9.51441 13.1615 22
225 1 15.8996 5.20135 -3.6701 14
226 1 10.0126 -6.88467 -13.5698 15
227 1 -11.3513 -5.08175 -14.7806 9
228 1 -9.04907 0.808655 -12.1144 14
229 1 -2.92107 -13.8098 1.10194 19
230 1 12.3472 -0.0934344 7.88057 20
231 1 -0.270208 -7.02817 -13.8848 20
232 1 4.02872 9.24702 -15.3234 17
233 1 4.96838 13.6833 -1.60758 21
234 1 -3.00014 0.738353 8.14499 22
235 1 -8.30972 -5.10297 -10.9802 17
236 1 -0.367908 -3.44554 -12.3445 19
237 1 -0.0205036 8.29778 -18.0739 14
238 1 -3.2468 -5.45769 -8.70606 21
239 1 14.4748 -4.91565 -15.8677 9
240 1 12.211 1.50989 -11.0366 19
241 1 13.2171 5.99025 1.17426 19
242 1 -2.05739 -4.55659 10.7041 17
243 1 -0.554201 -9.39471 -1.85095 20
244 1 3.8538 8.17394 14.9757 20
245 1 2.33597 -19.9276 0.965399 11
246 1 2.03013 -11.6866 -1.30781 22
247 1 7.09524 18.491 -4.79642 19
248 1 8.59331 6.80141 -17.8385 12
249 1 -5.50749 -0.087878 -17.4035 17
250 1 -7.57178 -9.91513 10.1146 9
251 1 5.39146 14.1744 11.5184 18
252 1 5.08664 -12.5191 0.32399 20
253 1 -3.23131 -11.9616 -15.5151 5
254 1 -6.47775 5.51274 -10.4534 18
255 1 12.4883 8.81215 3.1803 22
256 1 -2.33585 6.27985 -12.2521 17
257 1 3.97394 8.4901 -11.8378 20
258 1 8.21063 -12.8171 -11.2805 15
259 1 -3.66989 18.1621 -2.38932 10
260 1 4.50181 10.9431 3.64951 21
261 1 13.5892 3.42976 3.11543 20
262 1 -5.80577 2.20284 4.51825 21
263 1 -0.679384 -3.9891 13.3619 11
264 1 -5.9912 8.20421 1.54905 23
265 1 4.01757 -6.91873 -17.2342 17
266 1 15.4897 13.1825 -2.93704 17
267 1 7.10905 -11.4719 -2.11658 18
268 1 -1.52857 1.83414 11.6369 19
269 1 -13.204 -1.16198 6.1804 10
270 1 1.91044 -17.271 -0.368292 20
271 1 -5.91375 8.1898 10.4743 16
272 1 -5.82803 4.5789 10.6722 16
273 1 -10.0364 -2.52809 7.12076 18
274 1 -10.1019 -8.46011 5.81639 9
275 1 14.9569 -3.89341 -6.12215 14
276 1 -9.3983 -4.79496 10.66 13
277 1 9.63946 -3.72638 -11.912 21
278 1 7.66372 -13.9831 -3.12109 12
279 1 6.37411 21.3491 -4.95193 12
280 1 -8.30623 9.01148 -7.09006 19
281 1 12.7987 8.89445 12.2294 10
282 1 10.2993 -9.57642 -6.36787 17
283 1 -3.45689 12.2732 1.91352 19
284 1 7.64461 -11.3081 6.57638 10
285 1 13.6115 -2.39918 3.13871 20
286 1 1.79147 3.22936 16.4686 14
287 1 1.56461 14.1332 3.20393 18
288 1 6.10195 10.3926 15.6017 14
289 1 -2.69364 19.3692 -7.24158 6
290 1 -2.99689 -5.97491 -18.7538 14
291 1 7.1595 -8.4908 -13.8113 17
292 1 -8.09579 6.14843 9.18009 14
293 1 -8.29521 2.99708 -0.628908 22
294 1 -3.25651 12.3492 -1.48136 20
295 1 10.342 -1.37122 12.1313 11
296 1 -5.68746 -9.38901 -2.04519 18
297 1 8.21382 -5.70966 4.83541 19
298 1 -4.20836 -4.22272 12.306 16
299 1 -10.6482 5.10898 -4.43115 19
300 1 4.59821 -9.16137 -8.73422 20
301 1 -3.55478 0.570855 -12.25 20
302 1 10.937 -3.5127 -14.9367 21
303 1 7.925 15.0915 2.72153 20
304 1 -9.14 0.311347 -5.32438 20
305 1 4.85149 -9.58705 -15.2748 18
306 1 10.5565 2.10223 -15.0144 22
307 1 -3.29682 -11.0389 -8.40535 22
308 1 -7.94439 -7.07927 -5.47135 17
309 1 12.1546 2.80485 15.8896 8
310 1 13.1042 5.89549 -5.38811 20
311 1 -7.97687 3.12139 -14.2502 16
312 1 4.1445 19.855 0.458329 14
313 1 -11.8002 -5.56987 -6.88878 9
314 1 -6.13494 8.02094 4.62113 22
315 1 -8.50313 12.7574 -2.19446 15
316 1 7.82737 4.9788 11.6211 22
317 1 12.8325 0.503688 -8.73351 23
318 1 11.057 0.882319 14.3431 11
319 1 12.1514 6.3296 -8.8245 19
320 1 -4.07193 -13.7666 -3.43019 16
321 1 7.1484 -8.62744 -3.49945 21
322 1 13.5369 0.821558 4.44651 21
323 1 -6.33144 -3.45655 -8.93091 19
324 1 -3.52923 -7.9701 -0.33257 20
325 1 -7.29296 -3.48672 7.59121 20
326 1 -0.926001 15.0 4.89533 16
327 1 -5.6494 -9.30383 -5.1263 20
328 1 11.2284 12.6578 12.8342 9
329 1 -6.21026 8.20404 -5.4152 21
330 1 4.66102 14.7609 -11.6266 17
331 1 10.385 13.5503 1.64241 19
332 1 -5.32524 -9.7521 -10.8467 14
333 1 -1.0037 -9.16144 -8.50109 22
334 1 -7.69362 -0.587732 5.57695 19
335 1 -7.72299 12.1258 -5.04441 16
336 1 12.7933 -5.35977 1.47145 21
337 1 -0.852475 -12.2718 -3.55738 20
338 1 12.3293 17.3457 0.730591 12
339 1 10.0796 8.23476 -14.9218 19
340 1 -8.38098 9.57965 -16.4882 7
341 1 2.42534 19.1925 -10.7869 8
342 1 -6.25528 8.47861 -8.9153 20
343 1 1.66839 -11.4822 1.49017 21
344 1 15.7718 5.57183 3.35062 14
345 1 2.69553 12.5451 -15.5742 16
346 1 -11.6074 2.4329 -5.76276 11
347 1 -8.7882 -13.0834 1.76447 10
348 1 10.4785 -6.69201 -10.3053 19
349 1 -8.54577 3.64955 3.12645 21
350 1 -12.9921 0.529026 9.62591 8
351 1 -8.70249 10.1016 5.01126 17
352 1 0.0427515 6.41795 -20.598 11
353 1 9.77983 -9.85483 -9.69263 18
354 1 -7.84463 -5.08795 -14.1334 17
355 1 -1.12167 -3.21489 8.28122 18
356 1 -0.343976 3.04933 -19.0494 16
357 1 7.43864 -8.37806 3.57591 14
358 1 4.42343 14.1106 -4.92526 20
359 1 -3.93746 14.842 6.47636 16
360 1 0.0449233 -0.47986 13.4008 17
361 1 -8.89781 -3.6284 -16.838 11
362 1 -5.97873 -3.27307 4.65027 21
363 1 10.6128 -2.19562 9.02985 18
364 1 10.3562 -3.31735 4.61933 21
365 1 14.8358 11.3575 -8.98586 15
366 1 -0.164835 4.69019 9.92543 20
367 1 2.11394 14.7737 -3.3016 18
368 1 -0.0108352 -11.9653 -6.78341 18
369 1 2.68131 5.78365 14.506 18
370 1 4.99604 16.7275 3.41313 18
371 1 -5.28985 -6.23273 -10.5243 22
372 1 14.2041 14.9811 -0.991773 16
373 1 7.20584 8.79933 6.46454 23
374 1 -5.56643 2.46287 8.03046 23
375 1 -12.9045 -0.700457 2.9034 10
376 1 -5.84033 -3.53427 -12.0877 21
377 1 -3.21988 8.76969 6.67816 18
378 1 -2.84476 -8.07964 -10.251 21
379 1 -6.05545 -6.23038 -16.6316 11
380 1 -7.11292 -11.8219 -2.77126 13
381 1 12.932 2.79325 6.38827 19
382 1 -5.05868 -1.25061 12.9129 10
383 1 -5.19539 5.2615 -17.4524 17
384 1 9.87568 11.1873 -6.69728 21
385 1 -5.2615 -12.7377 -5.80816 14
386 1 5.09277 22.59 -2.39504 11
387 1 1.61912 9.56971 9.72938 17
388 1 -11.3824 -0.514196 -3.81991 15
389 1 5.90606 18.2116 -9.8556 11
390 1 4.96089 17.1323 -13.8136 9
391 1 -3.10332 -2.23661 -13.4196 19
392 1 -0.76582 5.27612 16.8559 10
393 1 5.47357 -12.4449 -9.89977 21
394 1 5.09714 -3.62109 -15.8014 20
395 1 10.1061 -12.5584 -0.9839 12
396 1 -11.7845 8.24399 -2.33172 13
397 1 3.24635 9.51539 17.2304 8
398 1 9.77466 10.7806 -3.17684 21
399 1 -6.49644 8.32308 -12.562 18
400 1 -12.537 -3.42403 -4.52318 11
401 1 2.88292 19.0558 3.13295 10
402 1 0.111014 5.50004 -13.7748 21
403 1 12.5595 6.20311 -2.20793 20
404 1 11.5927 16.9599 -12.267 10
405 1 16.1121 2.24265 -8.63632 13
406 1 2.68704 0.305518 -15.5585 20
407 1 4.51528 -12.614 6.17777 13
408 1 1.2567 -7.91432 6.49809 20
409 1 -5.75452 2.49158 -12.2681 20
410 1 -7.78685 -8.80057 3.05635 16
411 1 2.48839 -11.4683 -11.8804 19
412 1 9.1661 16.5915 0.0695289 20
413 1 2.47341 3.33032 -13.6959 21
414 1 4.55779 2.29463 11.7137 19
415 1 -10.944 3.41299 8.63091 14
416 1 5.42458 -15.4449 -1.57044 19
417 1 -8.51719 -2.79294 -0.340693 20
418 1 14.5881 -6.67579 -10.355 15
419 1 12.5484 0.198318 -1.75061 19
420 1 4.68125 -6.39847 -9.96928 20
421 1 7.89495 6.72565 -12.5864 19
422 1 12.9731 -2.19351 -9.81098 23
423 1 -2.41631 -1.49409 11.5881 19
424 1 9.9571 17.1454 -6.2102 20
425 1 -3.21719 -2.43201 -18.0306 18
426 1 2.83562 6.70036 -19.3262 15
427 1 -3.23234 -2.21411 6.61532 20
428 1 -2.54578 16.0326 -0.465866 18
429 1 -2.79195 -2.96825 -20.4326 12
430 1 -11.9405 2.10229 -2.45833 11
431 1 -0.216763 -12.0763 -13.4403 15
432 1 -0.226105 -19.3452 2.36377 10
433 1 2.05573 12.205 -8.39476 21
434 1 14.7592 1.85365 8.5914 16
435 1 13.2723 9.0412 -3.18722 20
436 1 -8.32865 -8.36053 -2.3682 20
437 1 -2.08934 -0.0133683 -19.0271 15
438 1 -3.32129 9.22424 3.21296 20
439 1 16.2156 2.48539 -1.72302 14
440 1 4.60107 14.0789 -8.45547 19
441 1 13.7647 1.04461 -14.6635 14
442 1 7.18611 8.48132 9.92496 20
443 1 -6.40924 5.0338 6.1483 18
444 1 12.2334 15.2714 6.54666 12
445 1 7.01937 -0.209584 11.9086 18
446 1 4.30594 2.37553 -18.8887 13
447 1 2.24408 -2.62676 9.95343 17
448 1 10.2281 8.58922 11.1846 21
449 1 7.00343 9.95784 -13.7825 20
450 1 -5.76741 11.0391 -6.9236 19
451 1 -0.439527 19.9223 -3.52485 11
452 1 13.0431 -0.44968 10.7462 14
453 1 9.77787 2.27728 -12.0525 20
454 1 12.8438 -10.115 -6.02329 15
455 1 10.0814 10.8623 6.3147 19
456 1 -10.7685 -6.38763 -4.01238 13
457 1 -3.59937 12.0465 -11.9071 20
458 1 -9.69955 -1.23714 10.5922 11
459 1 2.09724 18.9073 -7.8807 15
460 1 4.43044 -9.32774 -5.49941 21
461 1 8.13913 -2.07478 -16.3645 21
462 1 2.05175 17.9129 -4.69161 18
463 1 -3.12592 -5.37579 -12.2569 19
464 1 7.60392 -14.2367 0.542033 12
465 1 -8.96093 -2.21596 -3.98725 24
466 1 0.450447 14.3767 -15.5663 9
467 1 0.0971936 8.93223 16.1472 8
468 1 -7.43835 -8.74917 6.84393 18
469 1 5.01419 -9.27759 -11.8787 19
470 1 4.88032 -0.321108 9.82364 23
471 1 -8.44598 15.605 -0.128506 12
472 1 7.21439 2.30969 13.8497 22
473 1 8.26256 18.7265 -7.42767 15
474 1 15.2864 -10.2156 -7.53493 9
475 1 2.67394 15.4504 10.1752 10
476 1 5.70035 8.5355 -18.6777 15
477 1 -0.552593 -6.8561 12.3927 10
478 1 10.4852 1.55353 -18.0557 12
479 1 4.53391 13.8867 5.26768 21
480 1 10.6126 8.5013 -12.0453 19
481 1 -0.159354 -3.8487 -15.4298 19
482 1 -0.00875997 -9.05131 -5.32772 23
483 1 -8.82527 -2.25155 -13.9729 17
484 1 15.2198 -0.760753 -1.09699 15
485 1 13.2936 6.91388 -11.7911 20
486 1 9.8485 -3.44874 -8.68321 21
487 1 15.2831 8.21189 7.35839 13
488 1 7.52416 -8.27299 -6.93526 21
489 1 5.60241 5.487 -18.2596 15
490 1 12.4153 11.9351 -4.31577 20
491 1 12.755 7.3328 9.33774 18
492 1 15.4244 4.88838 -7.08152 17
493 1 16.6107 -7.25051 1.56328 6
494 1 12.8897 9.26118 -10.2098 17
495 1 10.1034 5.17836 10.149 23
496 1 15.4301 11.7627 7.34582 11
497 1 10.0648 14.3698 -4.70577 22
498 1 2.28905 6.11881 11.6479 20
499 1 15.5697 -0.552197 -13.5406 11
500 1 17.0974 11.6527 5.2053 11
501 1 -6.05661 -0.42099 -10.6816 21
502 1 16.283 7.87463 1.29682 17
503 1 -8.10825 13.1517 8.70468 10
504 1 12.1516 10.7684 9.98089 17
505 1 12.4599 3.4 9.59796 22
506 1 4.49353 10.5545 6.82987 21
507 1 7.41748 19.4036 5.03205 12
508 1 0.198448 -14.0887 1.26211 17
509 1 -3.7375 12.2832 -5.15957 22
510 1 15.2117 10.7353 -6.1957 17
511 1 10.8615 -0.806514 -16.4328 16
512 1 2.98441 21.1177 -5.02891 13
513 1 -0.329371 -15.5139 -9.70468 10
514 1 15.5175 -6.51561 -13.1433 8
515 1 -12.1782 7.83418 4.49268 11
516 1 -0.222794 8.59302 -12.5248 18
517 1 -1.671 -18.7538 -0.266685 11
518 1 -3.39015 3.63213 -13.7913 20
519 1 -9.48691 3.5535 -7.55598 19
520 1 12.8877 -5.16592 4.77971 11
521 1 15.1332 14.7482 1.75205 12
522 1 -1.52793 -6.1538 6.81867 19
523 1 -9.7151 -2.05005 -6.42787 16
524 1 -0.55047 -6.10371 -20.8256 8
525 1 -1.67703 7.46852 14.7737 11
526 1 8.93301 14.5543 -13.6289 17
527 1 9.97699 1.95437 11.3625 25
528 1 9.87899 8.45806 -8.64465 21
529 1 17.0849 13.1105 -0.43688 8
530 1 5.6773 -18.3726 -9.9065 6
531 1 -7.35109 -3.04642 11.4457 15
532 1 15.3509 -3.86032 -1.22572 12
533 1 -1.05467 11.1487 13.7124 15
534 1 8.04891 17.0241 -12.0153 12
535 1 -6.82208 13.0163 -8.51648 15
536 1 10.1588 19.3541 -0.704162 14
537 1 -0.635233 -15.664 -1.26277 17
538 1 12.6523 -5.54976 -1.93229 20
539 1 7.22875 21.2265 -0.325137 13
540 1 -4.36769 5.80946 8.1012 20
541 1 -5.97627 -9.8939 0.879625 20
542 1 -5.66948 -0.665772 -13.769 20
543 1 9.69641 -0.986528 6.53078 19
544 1 1.96952 -8.9711 9.98296 9
545 1 7.08338 5.41135 18.0784 11
546 1 -0.45268 13.5804 -1.83014 21
547 1 7.33758 -2.51676 -19.4644 11
548 1 -5.2418 -0.605905 6.72091 21
549 1 9.73165 -0.434985 -13.6945 22
550 1 12.1975 -12.1071 -10.4722 9
551 1 11.2407 5.52878 6.50708 20
552 1 -0.488776 1.75919 15.8717 11
553 1 12.5986 15.4249 3.76585 13
554 1 1.99335 0.294145 11.6651 20
555 1 -1.11336 7.25295 8.51372 20
556 1 -5.50598 -4.70349 -18.6141 11
557 1 -2.17326 3.74577 13.752 14
558 1 9.95815 7.88029 8.42656 20
559 1 -3.51285 -14.2267 4.5159 11
560 1 17.0167 7.41564 -2.222 10
561 1 7.60588 -11.2376 -5.22657 19
562 1 7.26841 11.9185 -1.86913 21
563 1 10.3218 17.551 -2.93703 19
564 1 7.54977 0.569224 -18.456 15
565 1 6.99889 12.0006 -8.36199 23
566 1 13.3326 11.7781 -1.37083 18
567 1 -5.50111 -6.49853 -3.69901 24
568 1 2.19287 -2.38118 -17.3269 17
569 1 -5.49364 16.8411 0.694452 12
570 1 4.98342 -6.37838 -13.8996 21
571 1 12.5611 12.0113 -11.5641 15
572 1 12.1587 16.4036 -8.21068 16
573 1 15.2574 5.34459 9.73959 10
574 1 13.2438 2.54483 12.4946 14
575 1 -0.955088 -7.93018 9.06169 17
576 1 0.470529 10.7882 -16.4006 13
577 1 9.25565 10.6975 9.1576 21
578 1 8.65198 -4.61288 -17.8547 15
579 1 11.3538 19.61 -8.33649 11
580 1 10.0862 10.5164 3.52138 23
581 1 15.7511 -6.71783 -3.97723 12
582 1 8.65978 8.04172 16.2191 15
583 1 -10.3201 -5.73506 7.59654 11
584 1 5.35305 -14.964 -4.97992 18
585 1 -6.95677 15.0152 -5.35002 11
586 1 8.14055 11.7872 1.51265 22
587 1 -8.35979 -2.80469 3.28825 17
588 1 4.53306 3.30476 18.858 7
589 1 -5.02889 2.59804 -18.9404 12
590 1 -4.91085 8.11019 -15.7956 14
591 1 4.55584 -12.0911 -3.43133 23
592 1 13.2299 14.8451 -6.10137 19
593 1 -8.95626 9.62877 8.87896 10
594 1 7.83088 -5.44484 -15.1394 21
595 1 4.33059 -9.04518 4.97704 19
596 1 7.15891 18.151 -2.15596 17
597 1 1.41856 3.32408 12.8791 19
598 1 -12.797 -8.04081 -13.2265 5
599 1 -2.88226 -8.74644 -13.4803 18
600 1 -2.54809 -13.7006 -6.38165 19
601 1 1.95772 15.674 -9.76941 20
602 1 4.32256 17.5604 6.25905 14
603 1 7.41823 -11.0004 -8.50612 19
604 1 2.81073 -16.5184 -4.29905 20
605 1 4.20618 -6.33686 6.74251 19
606 1 12.818 3.71931 -13.335 19
607 1 1.14793 -16.7387 -7.46668 14
608 1 -10.0279 0.656987 8.11968 15
609 1 -2.42622 -16.5141 -7.10781 11
610 1 -2.85133 -8.33347 -6.85149 24
611 1 -11.581 2.06861 4.28299 15
612 1 1.69151 -19.4691 -5.4623 10
613 1 13.4053 3.73617 -10.2127 20
614 1 -0.485474 14.1137 1.42699 20
615 1 -11.4121 8.20182 0.926357 15
616 1 13.3902 0.48794 1.26347 21
617 1 -11.4536 -3.27831 -12.3863 11
618 1 10.2129 5.25808 -10.274 22
619 1 10.8658 13.5548 9.67351 13
620 1 -8.51998 6.45777 -12.2359 13
621 1 -7.9035 -8.34604 -10.9582 12
622 1 7.60624 12.96 13.5857 11
623 1 6.81968 9.21151 -10.764 20
624 1 13.124 17.9302 -2.33236 13
625 1 -0.312126 -0.455432 9.6996 20
626 1 -3.5661 -16.1759 -4.10349 10
627 1 -5.65432 -15.04 1.99585 14
628 1 15.2222 14.0892 5.51224 12
629 1 2.65078 -8.49973 -13.872 23
630 1 -5.92754 -3.09049 1.37986 21
631 1 9.86111 11.4601 -13.0265 21
632 1 2.83246 -14.009 -9.6578 16
633 1 3.15469 -17.7431 3.09176 13
634 1 2.36256 -14.1825 -2.27546 20
635 1 9.84848 11.4036 -9.78894 23
636 1 4.36725 19.5755 -2.69629 19
637 1 2.47834 3.67295 -17.3906 20
638 1 2.57748 3.11588 9.75439 22
639 1 3.09577 9.27266 -18.1568 12
640 1 -8.38091 0.0569485 -15.4834 15
641 1 -8.96519 -4.84614 -6.97473 21
642 1 9.4968 16.8455 -9.83847 19
643 1 -6.03978 -2.98076 -15.7878 19
644 1 14.2824 17.7995 -10.1039 7
645 1 12.7308 -2.7324 -3.29635 22
646 1 -6.47055 11.1856 10.1119 12
647 1 9.67418 -9.61418 -1.7317 19
648 1 12.5141 -8.76825 -8.88541 19
649 1 9.69994 -4.34999 7.17996 17
650 1 1.66729 11.8762 5.01252 19
651 1 -8.00198 2.76887 9.60215 15
652 1 -9.47528 7.0318 6.47143 14
653 1 -1.64339 -8.88904 5.15195 20
654 1 4.80694 11.2146 12.9969 18
655 1 -10.4931 -0.489198 -0.452353 15
656 1 12.9863 -5.61426 -5.15155 19
657 1 -4.94616 17.7165 -5.2853 9
658 1 7.27223 -13.3876 3.94555 10
659 1 4.95075 2.72666 16.1666 16
660 1 4.91858 13.5028 1.8917 23
661 1 8.15826 -9.35832 9.43767 10
662 1 5.09847 4.97562 10.1748 21
663 1 -10.047 -7.64182 -8.15394 13
664 1 8.86893 2.12292 16.8746 10
665 1 7.44591 14.6641 0.219052 19
666 1 -10.4575 -9.78427 2.19822 10
667 1 -0.456517 -10.2781 7.51342 14
668 1 15.3587 -1.449 8.89047 9
669 1 7.40901 -2.63947 6.46304 20
670 1 9.59427 8.2081 4.72724 20
671 1 2.26808 -8.29438 -10.41 21
672 1 0.246474 2.08791 -15.6501 22
673 1 -0.299934 2.1861 8.16661 22
674 1 1.51716 17.0105 4.29082 14
675 1 15.7561 -3.44076 1.6744 13
676 1 4.52702 11.1629 -10.009 20
677 1 -3.96205 9.7847 12.5633 10
678 1 10.101 13.9951 4.78746 19
679 1 7.64324 -2.64684 -13.6783 22
680 1 -3.0297 -11.1501 -1.85532 20
681 1 16.3464 -1.161 1.94828 11
682 1 4.83294 -0.0199495 -13.7097 22
683 1 2.42606 9.80878 12.2922 17
684 1 11.078 -12.9995 -7.09441 10
685 1 10.7613 4.77996 -16.9268 14
686 1 12.6897 9.93716 -13.7539 12
687 1 15.0362 0.087185 -3.70291 15
688 1 5.22117 -7.28209 9.75656 14
689 1 -0.128661 -9.41917 -11.9235 21
690 1 7.28119 15.0504 -10.0535 19
691 1 -11.3255 5.4135 2.39935 17
692 1 12.8743 8.86281 -6.74651 22
693 1 16.1723 8.81536 4.42369 15
694 1 5.97283 -5.53885 -18.5024 13
695 1 -7.29073 11.349 2.76025 16
696 1 16.535 10.559 -0.466384 17
697 1 16.1103 13.5416 -6.16658 11
698 1 4.69208 2.71291 -15.6865 20
699 1 13.0125 -2.56996 -0.106304 21
700 1 -8.16366 3.14271 -3.98166 19
701 1 13.3655 8.76414 -0.261262 20
702 1 -8.18917 -10.9781 -0.217052 19
703 1 -6.71087 10.7381 -13.8569 17
704 1 7.22227 5.6911 8.15106 21
705 1 -6.16099 2.28706 -8.71773 20
706 1 -8.48911 6.0151 0.750051 22
707 1 14.9143 -3.4277 -12.1175 16
708 1 -6.75895 -9.7251 -7.7628 15
709 1 12.3103 -8.25856 -2.98892 17
710 1 -11.2024 1.85429 1.34374 17
711 1 13.8127 10.214 5.29529 19
712 1 -3.82385 -8.19405 2.69165 18
713 1 10.4335 4.52875 13.437 20
714 1 13.0186 -2.98506 6.54299 17
715 1 -9.02797 6.18222 -1.98317 23
716 1 3.52437 12.847 8.94634 20
717 1 8.50356 12.6872 -15.9807 10
718 1 -0.937963 -9.85981 -15.5381 13
719 1 -0.576655 13.1751 7.07645 17
720 1 -6.61727 -11.6044 7.10094 11
721 1 9.61261 14.2196 -8.0002 21
722 1 5.71671 10.7005 10.0336 19
723 1 15.4128 -3.74138 -8.99374 14
724 1 7.22235 -5.32111 8.58298 19
725 1 1.99175 14.8303 -13.1532 17
726 1 4.74141 12.2573 -13.7844 19
727 1 -3.03366 3.25359 6.40184 23
728 1 16.0651 2.53762 1.87454 14
729 1 2.67976 -2.13113 -14.3572 22
730 1 15.4852 16.167 -4.15329 11
731 1 -11.102 5.11074 -0.580166 18
732 1 0.669203 -16.6509 3.1472 13
733 1 4.63706 19.8848 -8.31677 11
734 1 7.89091 0.364083 9.0258 20
735 1 1.7933 -11.1021 -4.81609 20
736 1 1.82434 11.5226 15.0158 13
737 1 -10.3837 7.95141 -5.24196 18
738 1 15.4189 2.18666 -11.823 14
739 1 3.12793 -12.0323 -14.8183 11
740 1 -6.11609 14.0674 1.07248 18
741 1 12.6381 15.3252 -3.54485 20
742 1 11.2383 -5.6991 -16.1972 11
743 1 -5.51633 -6.82611 -13.5025 15
744 1 5.15515 -12.2899 -6.60758 23
745 1 1.88126 13.5538 13.1851 11
746 1 4.11255 -18.0672 -6.47594 12
747 1 -0.926865 11.6351 -13.7363 18
748 1 14.7774 -0.606634 -6.91398 21
749 1 10.3126 10.4849 0.106514 20
750 1 3.55702 -18.7751 -2.49297 15
751 1 2.60094 -4.84013 -19.3924 13
752 1 16.4963 3.06298 5.59632 13
753 1 0.101337 5.18745 -16.9617 23
754 1 -3.62997 -8.14333 7.28313 20
755 1 7.4584 12.2192 -5.13825 20
756 1 -8.0312 6.1711 -5.54125 21
757 1 -13.2999 1.91566 7.26201 12
758 1 5.17349 7.93924 11.5129 22
759 1 -6.00455 -6.25917 5.96137 19
760 1 7.35347 12.1423 4.4964 21
761 1 -0.800233 -12.4579 -0.639445 18
762 1 7.28684 15.2875 -3.07102 23
763 1 0.64854 11.9564 10.3407 16
764 1 -2.94063 3.4526 9.67892 20
765 1 -10.1956 10.147 2.20972 14
766 1 -3.82622 -4.81151 8.03449 20
767 1 7.88303 -8.43433 0.0497337 20
768 1 11.9951 9.14479 6.7122 24
769 1 12.2187 -2.4053 -6.46937 20
770 1 9.10434 -10.5615 -12.8237 12
771 1 1.32076 0.877433 -18.837 21
772 1 -0.310071 -0.115829 -21.0141 9
773 1 5.54491 21.4194 2.79649 8
774 1 -9.76904 -8.0001 9.49692 11
775 1 -3.66195 9.36971 -10.5234 22
776 1 -10.6651 8.81575 -8.62518 11
777 1 15.118 8.04985 -8.50158 17
778 1 -3.20591 -17.4117 2.42526 10
779 1 16.046 10.4266 -3.46654 14
780 1 -3.12532 -8.2477 -3.8417 24
781 1 9.35598 17.2495 5.35763 13
782 1 -4.73212 -2.55002 9.91263 21
783 1 2.52193 -13.9952 -5.71497 23
784 1 14.8643 4.89078 7.34484 17
785 1 3.15659 -14.6788 0.984062 24
786 1 3.97331 5.87871 17.0533 13
787 1 13.668 3.76612 -16.489 10
788 1 10.6905 -6.96347 -0.127415 19
789 1 5.00035 -0.619808 -17.1882 18
790 1 -11.0775 -4.15872 -9.28475 14
791 1 -2.54232 6.04513 -15.5883 19
792 1 -0.0747557 8.71937 11.4542 17
793 1 9.67741 -5.8707 10.1462 12
794 1 -6.27942 -6.231 2.9772 19
795 1 15.2455 2.39928 -5.42808 17
796 1 3.04716 6.57462 -15.4283 23
797 1 12.8215 12.5469 3.97094 21
798 1 7.59073 14.9312 6.48897 17
799 1 -8.92805 -5.1295 5.29537 19
800 1 10.1626 -14.1686 -9.40565 10
801 2 -2.42275 5.26571 -13.8348 21
802 2 -5.96413 9.50506 -10.5054 23
803 2 4.52838 0.806812 -15.6652 19
804 2 -0.48868 5.47635 8.20857 22
805 2 6.87564 -8.54234 -11.7823 19
806 2 -1.40472 -2.8236 -14.0955 18
807 2 5.26471 8.88962 9.8388 24
808 2 12.5416 4.21782 12.6249 15
809 2 -10.5617 -7.91213 0.208694 13
810 2 -7.86484 7.65989 -8.54567 19
811 2 9.40277 12.1131 4.7566 20
812 2 -8.97123 -0.995221 4.07982 18
813 2 5.14739 14.8758 -6.65781 20
814 2 12.9136 5.01467 -0.537408 20
815 2 1.75924 17.2991 -6.61013 16
816 2 10.655 12.4529 -11.1836 20
817 2 -8.57781 -3.37604 -12.2459 18
818 2 -5.94932 -2.65554 -13.8165 18
819 2 4.8377 2.87523 9.833 17
820 2 6.85352 -5.87744 -13.524 22
821 2 4.23297 -11.184 1.6397 21
822 2 -2.82409 11.1396 -3.58219 20
823 2 -8.3192 5.23966 -7.29686 24
824 2 12.8563 5.6096 3.13137 21
825 2 10.1457 -11.3164 -11.3712 14
826 2 -8.88621 -6.83381 -3.83478 16
827 2 -9.83639 -4.02074 3.67337 15
828 2 -2.32588 -13.068 2.83088 17
829 2 9.23115 -7.6822 9.20422 10
830 2 1.84979 -15.434 -8.71307 13
831 2 7.30348 1.08833 15.8142 11
832 2 2.59699 14.3334 -11.3151 19
833 2 3.43483 -13.5387 2.66921 19
834 2 -6.05785 -10.7813 -6.30433 13
835 2 1.98922 8.10222 11.541 19
836 2 -6.70273 9.29731 0.0741629 19
837 2 6.35208 4.05782 11.6662 17
838 2 0.015629 12.3619 -8.82926 21
839 2 10.5564 -11.2709 -2.40226 15
840 2 2.6218 14.5357 -8.32979 18
841 2 13.5723 16.2707 1.82854 10
842 2 9.44797 14.7343 0.347036 16
843 2 10.5866 3.43397 -13.4668 20
844 2 1.61887 9.92364 15.9535 12
845 2 -1.62989 4.31484 -17.7384 18
846 2 0.090721 14.7562 -13.5615 13
847 2 12.7376 17.9958 -11.2442 10
848 2 -3.42121 -1.04721 13.4566 14
849 2 -11.4325 9.40069 -0.940714 12
850 2 9.71481 3.10345 -10.2317 20
851 2 -2.89466 -8.69413 9.49534 15
852 2 4.36403 -5.83903 -15.5251 21
853 2 -4.75156 -2.0598 -17.1819 18
854 2 -8.69257 -3.57815 1.39503 20
855 2 15.7888 14.2581 0.183874 13
856 2 -1.20349 12.3122 1.58828 20
857 2 -0.770435 -8.52311 -10.1755 22
858 2 2.24314 14.4781 11.5513 11
859 2 6.65877 -1.04829 10.0665 19
860 2 0.821059 -3.45731 8.28345 18
861 2 15.3139 2.93727 6.87659 16
862 2 11.9558 14.7834 -12.8479 14
863 2 -5.43763 6.39676 -5.62084 21
864 2 15.5276 6.44849 8.13435 11
865 2 11.0807 -9.64077 -8.16852 17
866 2 10.7929 -7.94671 -2.10351 19
867 2 -5.38284 15.4703 8.10429 12
868 2 7.6111 -9.45855 -1.67089 21
869 2 16.1045 -5.24728 1.49768 11
870 2 17.3739 11.7597 0.832456 11
871 2 -0.745878 -0.013378 15.2877 11
872 2 9.21802 -8.02604 -10.3165 20
873 2 2.44004 10.597 6.42822 20
874 2 13.1004 8.45471 5.10561 20
875 2 10.6229 17.5921 1.01593 13