ITEM: TIMESTEP
5000
ITEM: NUMBER OF ATOMS
1500
ITEM: BOX BOUNDS pp pp pp
-30.0 30.0
-30.0 30.0
-30.0 30.0
ITEM: ATOMS id type x y z Coordination
1 1 -7.30254 -10.112 -8.76558 11
2 1 4.20615 -13.964 3.83485 14
3 1 -12.9089 5.05417 -2.84764 17
4 1 -12.2439 -2.00362 -7.00461 20
5 1 1.80325 -6.40619 8.53967 20
6 1 -10.1546 4.15727 -8.41884 19
7 1 -4.46685 -2.48607 -7.93123 21
8 1 -7.10396 -13.4303 5.44797 12
9 1 -15.3529 -6.78564 7.5936 10
10 1 1.02175 0.746777 14.7135 18
11 1 3.95747 -1.03345 7.33293 21
12 1 -2.68394 3.40835 11.1842 20
13 1 3.49909 -1.45683 4.25822 23
14 1 -2.3849 8.30746 -7.28088 21
15 1 -1.61344 -1.22361 11.2212 19
16 1 10.5915 6.09855 7.72154 12
17 1 0.780711 9.6599 -7.85324 21
18 1 0.902553 5.63107 -13.4274 19
19 1 -8.47306 4.33337 7.14756 21
20 1 -4.44553 -1.71435 -11.1254 18
21 1 4.47766 -10.4511 8.05697 16
22 1 1.21793 -1.03641 9.67813 19
23 1 3.06414 -15.1114 1.43696 15
24 1 -8.58849 -13.7749 -0.483582 10
25 1 2.85182 -3.8085 -4.15995 20
26 1 -0.924545 -8.32063 -12.1449 16
27 1 -1.79849 8.21695 11.2868 17
28 1 -1.67621 -13.2435 7.8793 13
29 1 3.80725 -6.61459 11.4335 16
30 1 -13.24 -0.452643 3.13409 17
31 1 -7.08271 -0.671857 -9.50037 23
32 1 -7.37238 10.1181 -2.96624 21
33 1 0.312915 4.32214 -7.54343 23
34 1 -0.663754 -6.73004 -9.09815 24
35 1 -2.88348 -2.11408 14.6754 17
36 1 -12.9726 5.21345 0.681128 20
37 1 -1.24062 12.0531 9.01313 13
38 1 -13.2106 4.86858 -7.23891 12
39 1 -5.15749 15.3293 -2.39341 17
40 1 0.811621 -7.33075 1.62104 21
41 1 4.7161 -6.49231 -6.02862 19
42 1 -9.43224 6.55581 8.62803 21
43 1 -15.6838 -5.74321 -7.00511 11
44 1 6.29079 -0.0889286 4.94239 23
45 1 -10.4773 10.7974 -3.64315 16
46 1 -14.1368 -6.07786 10.226 10
47 1 -14.4607 2.31936 -4.82902 12
48 1 0.314096 6.79763 -5.7588 22
49 1 2.3836 3.07398 3.64337 16
50 1 3.14966 1.40336 5.63207 22
51 1 0.638451 -17.3245 -0.0034866 10
52 1 4.52995 6.98731 13.9961 12
53 1 11.0769 -2.49096 -10.2196 15
54 1 3.84915 -11.3728 1.35168 19
55 1 -7.09477 -2.6631 1.80464 18
56 1 4.27498 -3.75244 12.1608 14
57 1 -7.59895 -8.36469 9.83632 14
58 1 -10.2726 -0.756731 2.05229 22
59 1 11.9072 2.06435 6.77073 13
60 1 9.04817 -3.56372 -4.75134 18
61 1 0.426532 8.83893 9.42931 21
62 1 3.02497 1.81962 9.43377 21
63 1 -9.08488 -4.22818 0.867511 22
64 1 -5.94229 -11.3404 -5.79614 14
65 1 -9.19879 12.2985 -1.21622 14
66 1 -1.84698 4.00168 -9.80096 22
67 1 3.66456 -1.32453 -5.56117 21
68 1 7.39645 -3.05227 -7.4631 15
69 1 10.28 -9.90236 2.42495 14
70 1 5.94063 -8.3891 10.4176 12
71 1 -4.16393 14.4006 -5.45326 15
72 1 -9.09783 6.77169 5.11073 20
73 1 -7.06363 10.0884 0.529627 20
74 1 -5.16029 -5.91538 9.95376 22
75 1 11.288 -11.1993 -5.76182 9
76 1 -15.4627 6.49786 4.8291 11
77 1 8.5161 -7.76167 -9.60377 14
78 1 -0.264024 -0.0515242 -14.2246 19
79 1 -6.64085 -1.79039 -15.573 12
80 1 -3.31068 10.5478 5.28181 19
81 1 -12.0628 5.40987 -10.6606 11
82 1 -1.42014 11.649 -8.01823 18
83 1 -2.7764 7.3525 2.54361 18
84 1 -3.57105 -7.00066 11.796 17
85 1 -1.76656 -4.18274 -7.41357 18
86 1 5.25977 -3.55687 -10.7123 16
87 1 0.565041 3.74415 10.1352 18
88 1 -15.0889 -11.1613 -1.07655 8
89 1 9.73395 -6.42896 -1.28903 21
90 1 -8.60116 -7.68726 0.00688016 23
91 1 6.23498 -13.1367 2.12063 16
92 1 -7.22592 4.84785 -0.318982 22
93 1 4.36331 5.12145 -12.9141 13
94 1 2.91242 5.80803 -6.06775 21
95 1 8.83326 -12.6674 -0.515565 13
96 1 5.9376 -11.7733 5.05457 14
97 1 -12.584 -8.96062 2.46761 14
98 1 -15.179 -5.47307 2.82313 16
99 1 8.54283 9.44722 9.28731 13
100 1 6.12636 3.61349 0.397802 22
101 1 -5.68236 8.33531 13.0655 11
102 1 -8.47398 10.3831 -8.80969 12
103 1 -4.49238 -7.70901 -13.3946 19
104 1 8.57027 -1.64429 11.5464 11
105 1 -5.06054 11.4367 -7.38426 18
106 1 8.59487 1.43277 -5.90992 23
107 1 -12.8952 7.80963 -7.90436 10
108 1 -5.2484 14.5084 1.08894 17
109 1 9.82683 4.34163 -10.8343 13
110 1 7.56025 -7.24961 1.72024 18
111 1 -7.64891 2.16967 -8.22163 19
112 1 1.85356 14.6472 -1.86255 15
113 1 8.17382 8.70866 2.88886 18
114 1 -5.18249 9.09007 3.08511 19
115 1 -7.20532 -6.09698 -12.2529 13
116 1 -3.29868 13.5815 6.27777 13
117 1 -10.0884 -2.66456 -4.29085 22
118 1 13.8392 -0.258028 -2.93616 18
119 1 -5.47167 8.84732 6.32846 20
120 1 -4.79291 11.9163 -3.88244 22
121 1 2.30792 -5.13187 17.0052 8
122 1 -14.7 -8.41803 4.53001 10
123 1 -3.8484 -12.3498 5.28987 19
124 1 1.46675 -12.8572 -3.19687 18
125 1 -10.2816 7.21065 -9.41634 14
126 1 0.081136 6.85375 -2.83818 21
127 1 6.90767 9.63414 -0.171765 16
128 1 0.345686 -7.47616 11.6984 18
129 1 -8.06654 2.15453 -1.35655 21
130 1 0.293344 12.2053 2.949 17
131 1 -0.276986 6.57255 7.79188 20
132 1 -8.15838 9.78923 4.04005 17
133 1 -4.1125 0.526329 -9.22572 20
134 1 12.0199 -8.40063 -0.436149 14
135 1 -5.75807 -5.17555 6.42817 20
136 1 -18.0619 4.91449 6.22296 11
137 1 -10.3061 -8.27646 5.01979 15
138 1 -18.1554 -1.16377 0.467208 10
139 1 -2.2764 -12.7435 1.85418 20
140 1 -11.1161 -3.41797 -1.18341 21
141 1 4.99469 -8.42477 -8.08188 20
142 1 -4.04209 11.6684 1.60452 18
143 1 -9.87056 -1.63897 5.95924 18
144 1 -10.1144 0.0962335 -8.68349 21
145 1 -10.9065 10.3412 -6.39487 13
146 1 -15.727 -1.89917 -1.75195 17
147 1 -15.2708 -1.57367 10.8883 9
148 1 -3.52508 -9.24158 4.86984 21
149 1 2.4275 -11.9954 6.01757 15
150 1 12.8312 -0.249588 2.47834 13
151 1 4.09809 4.19005 -2.77623 20
152 1 3.6642 1.96494 12.5162 20
153 1 -3.83809 8.78008 -12.3073 13
154 1 6.57247 4.34886 -10.5661 16
155 1 -3.68407 -5.17988 -9.48752 16
156 1 -5.44321 14.3022 -8.99773 6
157 1 -7.81811 10.4202 -6.0441 20
158 1 5.96101 1.19507 7.86783 18
159 1 -5.38072 -4.2446 -17.5822 12
160 1 -5.59973 9.13506 -8.59267 17
161 1 2.40535 7.52622 -11.5278 14
162 1 -7.55951 5.42352 13.8224 15
163 1 -8.70852 4.39004 10.7914 18
164 1 3.97773 -11.2285 -10.1867 12
165 1 -8.4691 -12.4999 1.97882 13
166 1 5.41846 -13.6943 -1.01554 19
167 1 5.44643 -5.69308 -0.0933282 17
168 1 7.88306 9.29463 -3.0409 20
169 1 -4.80015 9.42202 -1.02614 22
170 1 -10.3619 1.86108 3.87108 19
171 1 2.21082 7.51759 11.4779 14
172 1 11.8147 1.5517 -1.656 22
173 1 5.5925 10.9148 9.98362 13
174 1 -6.09372 2.01477 7.53742 19
175 1 -13.498 -4.78147 -6.0459 18
176 1 5.22531 7.8888 -10.4986 12
177 1 0.900232 -2.33781 11.9468 16
178 1 8.70121 8.49457 -6.3823 16
179 1 2.68765 -9.83317 -3.18056 16
180 1 -3.13579 4.06601 -14.6121 17
181 1 5.79531 -0.0245511 -6.769 23
182 1 -16.179 -2.6698 5.07172 12
183 1 2.75445 -15.7911 -2.8934 11
184 1 -14.165 -8.12128 -7.90851 10
185 1 -0.251943 12.5946 -2.92369 21
186 1 1.54634 -2.39039 -15.046 15
187 1 2.26651 3.93227 14.5997 16
188 1 14.3087 1.58777 -0.211902 12
189 1 -5.57552 -7.94805 2.00809 23
190 1 8.71854 -5.03601 -11.5101 12
191 1 -7.69693 -11.171 8.3988 12
192 1 -4.30411 -4.07209 -13.7355 17
193 1 -13.3357 0.534696 -7.60811 17
194 1 9.18854 1.45512 5.50961 18
195 1 0.426764 -3.61766 7.58019 20
196 1 -5.78646 -7.82524 -16.5381 10
197 1 -1.23734 -6.50825 6.74023 20
198 1 -0.575841 7.12965 -10.0415 22
199 1 2.8228 8.01774 -0.398194 17
200 1 -8.8727 -4.86059 5.79015 20
201 1 -1.3802 10.1043 0.771857 21
202 1 -9.29808 -2.56651 12.9997 16
203 1 -10.8808 -8.06899 -7.3205 12
204 1 -7.86596 -8.17744 -14.0977 9
205 1 -8.30095 -9.19809 -5.72037 17
206 1 -2.62584 -14.1126 -1.73658 12
207 1 9.59185 4.63191 5.76609 19
208 1 -6.46852 -9.48784 -0.112109 17
209 1 -10.8602 -4.78282 11.801 11
210 1 0.00241074 -13.77 0.182905 18
211 1 -0.474544 -5.82534 3.5689 22
212 1 -2.17492 13.3294 2.62397 16
213 1 6.09581 0.250372 -14.3645 13
214 1 -7.22491 -4.85166 -15.5106 11
215 1 -2.10378 -8.87749 2.33098 20
216 1 -1.29564 -10.1867 -8.21193 21
217 1 -11.2006 2.10968 -6.60001 18
218 1 8.59161 3.36428 8.4275 22
219 1 -8.39688 0.65372 -14.4829 13
220 1 -4.01821 11.5232 -10.353 11
221 1 -7.25149 -0.798842 8.29053 20
222 1 -6.77248 15.3439 -5.98845 9
223 1 2.23588 7.70181 5.7076 19
224 1 9.53848 -1.59054 3.07321 17
225 1 -8.75386 1.75549 9.2769 18
226 1 -2.3518 -12.3844 10.7692 12
227 1 -8.36248 7.23518 1.9074 21
228 1 1.53301 -5.69905 -11.303 19
229 1 0.0144343 -10.7067 1.47348 21
230 1 -5.47439 0.343559 14.5979 18
231 1 -13.7473 -4.88881 5.55221 19
232 1 15.2554 -1.43523 -4.9912 9
233 1 4.52325 -3.22781 -7.36198 20
234 1 8.97468 -14.3309 -6.52454 7
235 1 -5.12474 -4.42299 3.34639 19
236 1 -9.34724 13.0056 -6.56945 11
237 1 -2.33836 4.01308 7.58315 21
238 1 7.83126 6.85065 13.3263 9
239 1 -11.854 0.224998 6.0972 16
240 1 5.08277 -9.47288 -5.01683 20
241 1 -5.71677 12.0644 4.65516 16
242 1 -10.0775 4.27309 1.73908 23
243 1 6.73704 -8.98072 6.24776 17
244 1 12.1769 -4.73465 -1.96885 18
245 1 -7.32578 9.44422 8.52348 17
246 1 -5.12813 -5.08517 -2.77024 18
247 1 -1.01642 0.0163455 16.6437 12
248 1 -8.98509 12.7885 2.21287 13
249 1 -8.10635 5.00297 -6.84189 20
250 1 -14.7583 3.59623 9.55982 15
251 1 -11.7296 6.47285 3.25811 18
252 1 -4.45817 -5.46146 -6.01563 20
253 1 -7.90737 15.3143 0.357847 11
254 1 8.99417 -3.60868 4.96578 16
255 1 -13.9368 -11.7325 3.17586 5
256 1 9.38772 -10.5423 5.36523 13
257 1 -15.7332 4.60029 1.82679 15
258 1 -1.48086 -5.51552 14.1696 14
259 1 2.04359 -14.1474 -5.87319 13
260 1 -6.98595 -3.9823 -9.94152 17
261 1 5.61627 -0.318403 -10.5694 19
262 1 2.58057 10.8288 4.71844 23
263 1 -10.855 -0.175578 -2.48303 21
264 1 1.25966 -9.39269 -10.5843 18
265 1 -5.28336 -13.4957 0.340689 16
266 1 -15.6666 -7.96349 -1.93669 11
267 1 -2.96723 -10.0131 -0.39974 16
268 1 11.5501 1.86926 -5.04655 22
269 1 -14.884 0.261972 -10.4972 6
270 1 -18.2366 -0.483149 3.80089 10
271 1 -12.0989 7.20787 6.67584 20
272 1 -11.305 10.5603 2.7694 11
273 1 -7.22738 10.2025 11.4537 10
274 1 10.8707 -0.648614 -4.23076 18
275 1 12.9798 -2.94454 -7.64013 11
276 1 -5.07745 6.19095 -2.80322 24
277 1 -0.26693 -7.53263 -3.79842 21
278 1 -3.0558 7.03289 6.10244 21
279 1 -11.1236 -0.264007 -5.22773 20
280 1 4.45772 -6.43102 -3.04385 16
281 1 11.3838 -0.0512339 8.84133 13
282 1 -7.70783 -0.731173 -6.58652 22
283 1 -8.35422 -9.28759 2.77673 19
284 1 -6.19872 12.6215 -1.04636 19
285 1 -12.6195 -11.2664 -2.66449 13
286 1 -10.1827 4.91566 -4.99402 22
287 1 0.624346 14.889 -4.57971 14
288 1 3.12793 9.76497 7.98954 18
289 1 -14.7073 -4.96902 0.0390075 15
290 1 -6.52392 -7.42919 -7.08807 14
291 1 -17.0646 1.95016 7.66446 12
292 1 -15.5079 4.10086 -1.97795 12
293 1 3.88985 -8.89886 5.12066 19
294 1 -5.2739 -11.532 2.69233 20
295 1 4.67199 12.8404 -7.02765 11
296 1 -7.57374 6.93695 -8.96936 20
297 1 -0.877267 -12.0519 4.44288 24
298 1 12.3877 5.59037 4.05605 12
299 1 -4.33759 -1.46508 12.2795 23
300 1 -14.3944 2.2264 0.319196 12
301 1 -4.88618 8.39725 9.67094 25
302 1 -8.70959 -6.04707 8.37036 19
303 1 0.205879 -5.4744 -5.71916 22
304 1 6.95586 -11.1021 -9.37292 11
305 1 -1.54852 -1.30876 7.78964 20
306 1 -15.3828 3.68884 5.2075 17
307 1 -4.13985 -7.62814 7.35184 18
308 1 5.63548 -13.3442 -8.01373 10
309 1 -3.35298 -8.38304 -10.0751 23
310 1 -7.63963 -3.93514 8.07292 20
311 1 1.6222 -7.79032 -1.09964 17
312 1 -4.82541 1.25154 -14.3129 14
313 1 1.6748 -9.23283 3.40454 20
314 1 -1.93645 10.2203 -2.6418 23
315 1 -6.53613 -2.55045 14.0105 15
316 1 -7.49684 -5.96611 11.6938 16
317 1 10.5459 -5.36267 7.08386 14
318 1 6.00595 0.636604 -0.2508 21
319 1 -7.45776 4.45368 3.53537 21
320 1 2.58527 0.708486 -15.4949 13
321 1 8.44578 -7.39339 4.52992 21
322 1 13.3553 6.41138 -1.38305 9
323 1 -2.37051 0.828603 13.8957 20
324 1 4.32119 12.2799 1.93615 21
325 1 3.62639 -4.08637 6.10807 21
326 1 -2.94632 -12.1016 -5.81439 16
327 1 -7.30903 14.9561 3.88898 9
328 1 -8.85897 -9.67855 -2.5303 17
329 1 2.55846 4.40424 12.0533 20
330 1 -12.1678 2.01635 10.1521 15
331 1 -5.4779 -10.9271 -3.03139 18
332 1 -16.4257 1.86948 10.8861 9
333 1 -11.5126 -8.40233 -0.844337 21
334 1 -2.33155 9.26646 8.2457 19
335 1 -5.12059 -10.643 -11.9287 14
336 1 -3.1529 -6.32807 -15.9775 13
337 1 -8.9695 -11.3521 5.22373 12
338 1 -8.17847 1.21883 5.69455 17
339 1 6.2918 -2.19046 6.63045 19
340 1 -4.94585 -5.14884 13.5525 19
341 1 -8.84754 5.7272 -12.1319 13
342 1 10.7097 4.82533 -1.91098 22
343 1 -11.9067 -12.8984 0.68196 10
344 1 -2.68639 4.77532 -6.24486 22
345 1 -3.13219 12.8447 -1.84573 23
346 1 -5.10961 6.8456 -6.77107 21
347 1 -3.99252 5.7411 12.1971 20
348 1 -13.2692 -2.76866 -3.44887 18
349 1 5.52554 9.56527 -5.91096 17
350 1 -8.23919 -6.02613 -4.38951 18
351 1 -1.84362 -11.6571 -10.9479 12
352 1 1.46297 -2.73375 -12.1503 21
353 1 -11.7239 9.99391 -0.81227 13
354 1 -0.371583 2.71632 17.4444 10
355 1 5.57523 7.2456 1.35336 21
356 1 0.122849 6.80007 0.511568 23
357 1 -12.0181 1.80896 -10.6178 13
358 1 3.54551 1.31662 -7.90313 19
359 1 4.94931 -6.77003 4.26817 20
360 1 -15.7997 -2.89785 2.00646 16
361 1 -6.8993 3.5485 -14.1242 13
362 1 10.0053 7.0536 -3.41079 15
363 1 6.76988 -7.88084 -0.854957 18
364 1 14.1256 3.49811 -2.95215 16
365 1 1.14661 1.98598 -9.46216 19
366 1 1.86503 -6.09845 5.04674 21
367 1 -1.95549 -15.1463 4.83151 14
368 1 2.99592 -8.99035 10.1551 15
369 1 -6.91212 3.79919 -10.1094 21
370 1 1.07632 -11.7352 -7.95868 17
371 1 -0.723167 3.13126 -13.2699 20
372 1 1.66512 -5.35789 13.9371 18
373 1 -12.7131 -2.50456 4.94445 20
374 1 14.8228 -3.15604 -1.64027 13
375 1 10.1825 -3.52592 0.809493 20
376 1 -5.09081 8.88705 -4.49274 24
377 1 1.31085 -7.91133 -7.09815 20
378 1 1.31533 4.8201 -10.7006 18
379 1 8.01177 -6.25636 -6.86289 22
380 1 -10.8354 0.375055 12.0622 17
381 1 5.74284 11.6321 5.28778 16
382 1 -3.77128 -1.88302 -17.2512 14
383 1 -10.026 -1.74089 10.4209 17
384 1 -2.3439 15.1777 -0.0305551 14
385 1 -7.33554 -1.95257 -12.6043 18
386 1 -18.637 2.62446 4.60074 13
387 1 -5.97575 -8.54309 13.2788 10
388 1 3.19512 9.23889 -6.29918 23
389 1 9.056 1.43255 -2.36728 24
390 1 -11.3371 -6.0157 3.47464 18
391 1 -1.06467 -7.71995 -0.737908 23
392 1 -8.25171 12.0355 8.33101 10
393 1 3.89461 -7.4295 -11.0456 12
394 1 -2.59969 7.54851 -0.742381 22
395 1 6.88009 -2.04107 -1.35727 17
396 1 4.00078 13.7624 -4.23264 15
397 1 4.20154 -8.24856 1.16759 19
398 1 -11.3131 4.12342 8.42264 20
399 1 1.50422 11.4228 10.532 11
400 1 -1.89048 6.48591 -15.2809 9
401 1 -10.2051 -5.93237 -2.03918 18
402 1 -2.60987 -4.10565 11.7677 17
403 1 7.56813 11.9901 8.37535 12
404 1 3.0153 13.3458 -9.58841 9
405 1 -9.85144 7.80366 -6.76479 22
406 1 -0.427736 12.879 -0.0724505 19
407 1 8.73448 -3.02448 8.57381 17
408 1 12.4704 3.54895 -8.13585 16
409 1 -11.9579 -5.94856 0.546001 20
410 1 -1.59199 1.31226 9.01587 19
411 1 0.199026 12.5483 -10.0677 10
412 1 0.156612 -10.7198 -5.3012 22
413 1 0.719727 0.0499982 -11.6237 18
414 1 -1.79289 15.5794 -2.86335 13
415 1 -9.18976 -2.62345 -9.17911 18
416 1 0.624646 -14.6552 5.98298 12
417 1 -14.721 -7.66634 0.769699 14
418 1 -8.35451 2.17723 -5.00107 24
419 1 -11.1987 -3.36237 7.86252 20
420 1 2.51384 11.359 -3.65935 21
421 1 -4.12946 -9.52909 -6.80612 20
422 1 3.7752 -9.23041 13.4429 7
423 1 5.81236 3.33001 -6.06324 20
424 1 -13.915 7.33083 -1.52248 14
425 1 12.7754 -5.9282 -5.76758 12
426 1 3.7982 10.1846 12.7447 9
427 1 -1.96062 1.03948 -11.2472 19
428 1 -0.208417 12.5758 6.07796 13
429 1 6.56983 2.02691 -8.64962 22
430 1 -2.01583 -4.07877 -18.7352 8
431 1 -6.22433 -13.8519 -2.83235 10
432 1 -12.4965 -5.4236 -8.76424 15
433 1 9.49803 3.31463 0.282662 18
434 1 13.0667 4.39491 0.486292 16
435 1 10.794 -8.18674 -7.10707 15
436 1 4.19126 -12.1771 -3.78885 20
437 1 7.64667 13.1119 3.69464 9
438 1 -8.14901 1.37901 2.18023 19
439 1 7.44268 3.88171 -2.14431 19
440 1 14.1723 2.66943 3.40644 9
441 1 9.93863 2.60326 -8.25404 21
442 1 5.82859 -1.16102 13.4524 14
443 1 -1.48994 -5.15396 9.18907 17
444 1 3.3632 4.84708 0.627572 20
445 1 1.81203 -1.58615 17.1469 11
446 1 15.3266 2.00773 -6.17589 9
447 1 8.37035 -0.0433791 8.40121 18
448 1 -7.58777 -3.96555 -6.03845 19
449 1 8.55763 4.76995 2.35872 19
450 1 12.1778 -1.32835 -0.2015 17
451 1 -2.82659 -6.19697 1.36942 19
452 1 8.98859 1.42636 10.7156 15
453 1 3.84665 12.6751 7.63376 13
454 1 5.86028 3.11769 4.94408 20
455 1 -10.8735 7.50974 -3.27719 19
456 1 7.16834 6.54192 -4.06984 18
457 1 11.0525 0.720074 -10.5582 15
458 1 1.86037 14.5302 1.22431 14
459 1 -3.74706 -11.5421 -8.85419 17
460 1 -14.8722 6.35112 7.58591 13
461 1 -8.9768 2.6537 -12.1865 14
462 1 -4.10766 -14.4788 3.17618 12
463 1 -5.91054 1.06533 -11.6113 20
464 1 -16.0442 -3.92695 -4.89864 11
465 1 5.96969 -10.9475 0.189642 19
466 1 10.742 7.90105 4.63971 12
467 1 -1.14028 -8.27983 9.33152 19
468 1 -15.1286 -2.37101 -8.49781 11
469 1 7.44955 -5.71762 6.83535 21
470 1 -2.26532 4.73883 16.3596 10
471 1 10.764 10.3546 -4.05285 8
472 1 3.84288 4.24457 -8.70382 18
473 1 7.00039 -14.2749 -3.44268 10
474 1 12.5685 -5.27909 0.646928 13
475 1 2.43042 9.70988 1.89249 17
476 1 14.4439 -6.42832 -3.19197 9
477 1 -5.82977 1.91391 10.7957 17
478 1 -13.4297 -5.90469 -2.64993 16
479 1 -12.0504 -2.55816 -10.1236 13
480 1 6.06641 1.70668 10.8119 22
481 1 -2.43831 -9.3055 12.8242 10
482 1 5.48162 4.26002 14.1677 16
483 1 -7.59287 12.7659 -4.06475 17
484 1 7.82761 1.44202 2.46316 19
485 1 5.007 5.65582 3.32135 18
486 1 -1.12869 -0.759924 -17.08 12
487 1 -12.7968 -3.23134 11.0514 14
488 1 8.41875 1.60288 -11.8434 17
489 1 -2.77081 -9.3806 -3.84978 21
490 1 8.0362 -10.0197 -6.9728 18
491 1 5.63571 3.94094 8.08986 19
492 1 0.475437 2.56244 6.6644 19
493 1 10.4387 6.7385 10.9101 12
494 1 0.188891 -2.97616 15.2116 18
495 1 -3.80435 1.86437 17.2128 11
496 1 0.521205 -5.80744 -14.1798 13
497 1 -9.83882 2.99839 13.6213 15
498 1 4.13817 0.900627 15.5004 14
499 1 8.31642 6.70538 -0.460128 21
500 1 2.53081 -12.7741 -0.771742 20
501 1 -7.95291 6.98586 -4.61958 20
502 1 4.63171 9.3766 -3.03487 18
503 1 3.10667 13.6937 4.79629 13
504 1 -4.4965 -3.21548 9.04332 22
505 1 -1.89654 13.0902 -5.30308 18
506 1 4.6699 8.77817 4.4049 20
507 1 -5.32251 -7.84598 -4.57606 20
508 1 -1.68987 -2.24 -12.5001 17
509 1 -13.1182 7.99101 -4.59784 13
510 1 6.65792 -3.15723 -13.4702 11
511 1 2.36528 6.38129 2.72254 22
512 1 5.33097 6.75493 -1.45473 23
513 1 7.99677 11.9105 0.985404 12
514 1 -4.74853 3.82181 5.51124 19
515 1 -10.1222 4.26381 -1.66656 19
516 1 2.62991 7.17377 -3.6103 20
517 1 -0.188994 -10.6838 11.2053 12
518 1 -5.96393 7.1194 -12.1309 13
519 1 0.099294 10.1931 12.1101 12
520 1 0.0866481 1.39859 12.023 21
521 1 6.8025 14.5442 -4.04967 8
522 1 3.58655 6.47651 9.31108 17
523 1 10.1015 -2.00818 -1.9694 22
524 1 -14.2985 1.90706 7.60196 17
525 1 -0.60514 -16.7658 -2.50788 10
526 1 -0.955599 -0.713694 -9.15609 20
527 1 2.51974 4.47449 6.9389 18
528 1 6.14674 -3.50162 -4.93037 21
529 1 0.163479 8.6455 3.23 19
530 1 -15.3489 0.0888751 5.63023 15
531 1 1.12907 -16.3719 3.19966 10
532 1 5.75137 6.67318 -7.84084 21
533 1 9.00229 -8.38295 7.88531 13
534 1 -5.76013 6.37845 4.10267 21
535 1 3.8164 -0.900904 -12.8354 20
536 1 1.41321 -9.6487 7.82622 20
537 1 4.77375 14.9312 -0.896227 16
538 1 -7.45286 2.86722 16.083 14
539 1 -9.37484 -5.38055 -9.44765 14
540 1 2.63502 -5.70911 -8.53406 21
541 1 -4.57455 11.1885 7.87175 16
542 1 3.44262 -11.1718 -6.71069 18
543 1 4.42686 -7.13348 7.42866 20
544 1 -1.03883 -13.8828 -8.21635 11
545 1 -13.2583 -1.29353 8.56953 19
546 1 -2.25976 2.13715 -7.19917 21
547 1 -8.38662 -12.3186 -3.85965 11
548 1 -13.3296 2.98077 12.7241 11
549 1 10.9335 5.90741 -8.06415 14
550 1 -5.27048 4.64053 9.41254 18
551 1 -13.1223 8.65028 1.51044 12
552 1 6.59821 -1.34146 2.1868 22
553 1 -2.72876 10.4055 -5.68389 17
554 1 8.60459 -0.367049 -9.35501 20
555 1 5.23969 2.17961 -12.2247 15
556 1 -16.918 -0.634258 -4.25459 9
557 1 -16.5684 -7.59743 -5.21845 9
558 1 2.06672 10.4053 -10.9045 13
559 1 -4.92356 2.76327 13.4708 17
560 1 -2.56531 -3.81829 5.75043 22
561 1 -0.106971 -3.60191 -9.84764 20
562 1 -7.96896 7.43998 -1.60321 20
563 1 6.01736 8.89404 7.35451 18
564 1 -10.249 -3.57253 3.50982 20
565 1 8.43672 6.85622 -9.67643 11
566 1 -2.49531 -16.173 0.78164 12
567 1 2.58128 7.35823 -8.8009 22
568 1 -0.5444 -3.67954 -16.0487 13
569 1 -4.30599 0.255066 9.29128 16
570 1 -0.410824 8.34978 -12.9373 14
571 1 -12.6321 -3.17213 1.64298 22
572 1 7.54285 -4.66056 -2.23194 20
573 1 -4.40573 -8.01013 -1.68284 19
574 1 8.36701 5.22386 -6.57123 19
575 1 9.0851 -9.51553 0.0180677 19
576 1 -10.2317 6.10931 12.3065 12
577 1 9.04718 -13.1669 3.15692 11
578 1 12.0955 -8.40583 -3.76425 15
579 1 10.3651 -1.63849 6.53575 16
580 1 -2.3174 6.02112 9.17879 21
581 1 -12.7057 6.40633 9.95192 11
582 1 1.05097 -12.4766 8.95688 11
583 1 9.23847 -0.0855585 0.147481 19
584 1 5.46056 5.17187 11.5138 18
585 1 -13.3245 -0.719789 0.03535 17
586 1 10.0046 -6.87213 -4.28899 19
587 1 -0.0332936 5.97616 4.81456 23
588 1 3.17551 -2.6554 14.6774 15
589 1 -0.00970489 9.7323 6.16374 22
590 1 -0.328801 -9.0531 5.13336 16
591 1 -7.57523 -3.62713 -1.89942 19
592 1 -0.427917 5.61667 11.9646 16
593 1 2.68775 11.6594 -0.600707 20
594 1 -10.1951 -9.10515 7.83279 11
595 1 8.14652 -6.30293 9.81994 11
596 1 10.5286 -6.60114 2.54516 18
597 1 8.30489 10.4199 5.4642 13
598 1 -2.78989 7.10319 -4.36881 22
599 1 -2.06969 -8.19496 -6.40944 22
600 1 -5.46056 6.8973 -14.7068 10
601 1 -9.0339 0.290247 14.8307 14
602 1 -3.55882 15.462 3.38332 9
603 1 11.1057 2.55912 3.66324 17
604 1 0.292659 9.85993 -4.86788 25
605 1 -2.71092 7.44678 14.0938 12
606 1 7.44363 9.9857 11.9102 9
607 1 8.3546 -1.30218 -12.3862 13
608 1 -5.84998 -10.4154 6.30517 21
609 1 -5.29171 0.7617 -6.43969 22
610 1 12.8029 -0.305863 5.03906 10
611 1 1.03747 -2.29381 -7.32797 22
612 1 -2.79719 -5.96102 -3.86539 22
613 1 12.6778 -3.20496 -4.57876 20
614 1 0.898231 -7.98119 14.8825 9
615 1 -2.07334 -5.43616 -12.0882 17
616 1 7.53372 15.3683 0.713647 8
617 1 -4.09206 -6.50147 4.16907 22
618 1 -18.2805 5.25086 2.64991 8
619 1 9.96058 4.10725 -4.5102 17
620 1 3.60903 -4.14011 -13.7039 13
621 1 -9.89208 9.61551 6.69746 15
622 1 0.0479607 2.80168 -16.214 13
623 1 7.08189 -8.09731 -3.81727 16
624 1 -10.9304 1.89163 -0.0527399 23
625 1 7.43344 6.51897 4.76026 20
626 1 -9.9581 -10.9714 0.167427 18
627 1 7.12585 1.11022 13.327 13
628 1 -10.23 -5.00538 -6.57573 16
629 1 -13.3442 9.09412 5.28695 11
630 1 -4.92869 3.74804 -8.15742 22
631 1 11.0221 -5.47817 -8.95097 13
632 1 -13.7695 -9.02106 -3.90773 15
633 1 10.4824 -9.91056 -2.42829 15
634 1 -12.9702 3.01649 3.40974 17
635 1 -10.9578 -8.46646 -3.7975 17
636 1 -4.98047 -9.15682 9.51458 19
637 1 11.9146 -3.14475 3.10929 13
638 1 6.24769 -3.76761 3.87692 18
639 1 -11.5275 4.40116 5.21762 16
640 1 -3.5726 10.0604 12.9304 11
641 1 4.55987 10.0862 -8.74001 15
642 1 -8.92959 12.2951 4.8101 13
643 1 8.92455 12.4732 -2.31354 10
644 1 -0.635585 3.56997 14.0026 18
645 1 3.32022 -3.60218 9.40703 19
646 1 1.49818 12.4383 -6.41616 21
647 1 -6.67285 -2.66853 10.788 20
648 1 -6.49318 -8.22288 -10.7423 13
649 1 -14.2098 -0.301537 -3.84018 17
650 1 -4.86705 -12.3196 8.40564 13
651 1 3.79584 -0.632037 10.6947 20
652 1 -1.05782 -14.3372 -5.04493 13
653 1 -18.4773 2.14677 1.61357 12
654 1 10.1764 -1.41395 -6.91623 17
655 1 -10.3687 6.79965 0.191977 19
656 1 -7.82656 0.123116 12.4799 20
657 1 -3.0021 -9.69966 -14.9129 9
658 1 0.100445 -10.0964 -1.86645 18
659 1 6.70112 -11.9002 -5.66541 17
660 1 -2.13636 9.40105 -10.1073 17
661 1 13.378 4.74071 -5.4933 10
662 1 7.76342 6.2871 8.74691 17
663 1 7.19324 -0.901635 -3.81574 17
664 1 -2.60394 6.0041 -12.434 22
665 1 -2.14038 -10.335 7.44545 22
666 1 5.64469 11.8252 -1.7488 17
667 1 2.13255 2.33415 -13.3814 18
668 1 -11.55 2.36907 -3.76568 18
669 1 0.572505 9.78356 -1.44029 23
670 1 -14.9286 -3.96301 8.25713 17
671 1 5.0075 6.17497 6.24092 18
672 1 1.49935 -12.9289 2.74568 21
673 1 7.15717 12.4066 -5.65982 12
674 1 -7.14044 6.77199 10.7071 18
675 1 -13.9211 -0.0763208 12.4592 10
676 1 5.61332 1.20374 -3.12881 19
677 1 -8.55428 -5.18702 14.3643 10
678 1 7.16801 -10.3544 3.03281 21
679 1 -4.36566 -0.807349 6.47571 20
680 1 8.44713 4.0655 11.69 17
681 1 6.24643 -5.76806 -9.31733 20
682 1 -9.76784 -0.520826 -11.6352 16
683 1 -3.99604 3.33888 -11.3389 19
684 1 -16.9495 1.46894 -1.49548 10
685 1 4.69199 15.6059 2.05551 12
686 1 -6.03155 6.2102 7.50516 18
687 1 -11.6264 -10.3518 -6.04883 11
688 1 -5.3952 6.66234 0.603454 25
689 1 11.5394 3.59039 9.61722 11
690 1 -6.9424 -7.79389 5.44216 22
691 1 12.5771 0.0884711 -7.97317 14
692 1 7.32714 -11.1569 -2.75504 18
693 1 2.70581 -1.93548 -9.37721 20
694 1 -2.96007 1.37219 -16.7141 10
695 1 -7.81462 -6.09296 2.97146 24
696 1 -7.53715 4.54032 -3.48173 22
697 1 -4.7643 5.01417 15.6989 13
698 1 6.03184 -3.7891 9.86789 15
699 1 -11.9511 -6.40281 8.03096 15
700 1 7.68013 -4.44288 1.49556 20
701 1 -3.82615 6.27395 -9.71843 25
702 1 10.859 7.25662 1.1588 13
703 2 -10.4122 1.30936 -11.6206 13
704 2 -9.55133 11.2021 -7.36489 12
705 2 0.933788 -1.40829 -10.0372 18
706 2 -3.49987 4.88184 10.4885 22
707 2 -6.40949 -5.64658 -6.63164 18
708 2 -0.502955 1.41492 13.7358 21
709 2 -15.0395 -7.32114 2.75744 15
710 2 -15.7254 0.86993 -4.34153 12
711 2 -1.51588 13.1484 7.29696 12
712 2 -13.1087 0.476603 7.93919 13
713 2 7.50874 1.35142 4.53645 19
714 2 -4.16109 -0.836752 -6.09745 19
715 2 -12.4576 -7.40092 -3.65069 19
716 2 -10.2684 1.54122 -5.03886 21
717 2 -5.82988 -10.6374 8.3 16
718 2 1.41768 3.41578 8.43792 20
719 2 6.69427 -1.23811 -13.8033 12
720 2 0.537547 -13.2842 -1.63443 17
721 2 5.34273 -0.679782 3.36508 21
722 2 -9.3111 11.7209 -4.9729 14
723 2 -15.6407 2.53971 -1.00413 13
724 2 11.8012 -0.0608105 6.77616 15
725 2 10.1046 -12.6393 -5.95281 8
726 2 -6.04114 -6.19781 3.83822 20
727 2 -11.7817 -1.82979 6.54781 18
728 2 -5.39526 -13.7934 4.31712 14
729 2 9.17083 -5.81696 5.65713 17
730 2 0.818696 -13.6247 -7.22055 13
731 2 4.56024 -2.47411 13.5391 15
732 2 0.314043 13.2074 -8.04389 14
733 2 -13.1812 -12.2839 -0.901717 9
734 2 0.783088 1.55075 16.5644 13
735 2 -10.1042 6.3775 1.91744 18
736 2 -2.99715 2.77705 13.2429 21
737 2 -7.37632 9.15709 -4.55266 20
738 2 2.5068 -14.9132 3.17623 12
739 2 -0.504001 8.38436 7.46375 21
740 2 -3.3078 12.2057 -6.14444 16
741 2 8.08353 -7.33584 -5.41799 19
742 2 -5.05039 -0.984895 -9.03878 19
743 2 0.299015 -5.42771 -7.77269 18
744 2 8.66422 -1.74249 -8.12235 18
745 2 -2.90863 7.88997 9.71145 22
746 2 -1.28236 4.15511 -15.3183 15
747 2 -10.3938 6.32362 -11.1618 11
748 2 8.08719 10.0058 1.49074 14
749 2 -6.6336 -4.46854 14.3293 13
750 2 -10.8716 11.4323 -1.78803 10
751 2 8.36182 1.59285 -8.69154 24
752 2 -0.819592 -9.92507 -10.8504 16
753 2 -15.797 2.01247 6.00508 17
754 2 6.23353 7.05356 3.13002 20
755 2 -4.88904 12.8942 0.184544 20
756 2 -10.2076 -8.91274 -5.67623 15
757 2 -7.41932 13.3746 4.93746 13
758 2 4.40574 -8.50985 11.808 9
759 2 6.10229 -6.94033 6.04865 19
760 2 -12.3848 1.29209 3.66938 16
761 2 9.22491 -10.9415 -1.7006 15
762 2 7.34555 -14.2191 -5.51453 9
763 2 6.24076 4.95798 4.8565 17
764 2 4.06991 -12.6741 5.24447 15
765 2 9.71237 -8.11777 3.30105 17
766 2 -7.59976 -2.03283 12.2444 22
767 2 11.3277 -7.25505 -5.62816 16
768 2 -0.585158 5.24213 9.86468 21
769 2 9.15921 5.82592 12.1469 12
770 2 -8.92642 8.60744 8.0816 17
771 2 0.84816 10.3742 2.8766 17
772 2 13.6245 -8.05344 -2.83366 12
773 2 3.66195 7.65598 -2.10513 20
774 2 -10.4432 -1.61239 -10.2731 17
775 2 -9.99496 -0.627492 13.4422 13
776 2 -0.477731 2.26597 -10.0844 21
777 2 -8.46557 -1.20192 -8.23867 18
778 2 -18.1107 3.04151 6.49941 9
779 2 -14.9437 -9.02786 -0.505457 13
780 2 12.7324 1.23687 3.69342 13
781 2 -4.93086 -5.93079 7.93618 23
782 2 -1.97654 1.69316 17.3594 11
783 2 7.71233 -0.0708902 -11.0496 17
784 2 2.96005 -0.562509 15.8226 13
785 2 -1.90729 6.50107 12.598 17
786 2 -11.1007 3.93467 3.33783 20
787 2 1.17445 -10.0905 -6.73324 18
788 2 10.5572 -2.58531 -5.50739 17
789 2 -11.8253 9.12321 6.29383 12
790 2 -2.93629 -7.64601 -0.362162 23
791 2 6.93012 -10.2386 -4.58536 15
792 2 2.86509 -1.8252 -3.94966 20
793 2 5.11874 9.55401 8.74207 16
794 2 6.01873 -12.6146 -3.93013 17
795 2 2.50582 -2.27941 10.5645 20
796 2 -5.40185 -8.47682 6.39803 18
797 2 13.5845 -0.0717367 0.423685 13
798 2 -8.00487 -6.53542 10.0958 16
799 2 9.37106 10.6509 -2.8818 11
800 2 -3.76404 -8.28308 3.11274 19
801 2 11.1699 -10.0688 -4.11782 11
802 2 4.0702 -13.0898 -6.83803 15
803 2 12.5826 -5.30293 -3.99016 17
804 2 -11.5622 10.2626 1.04302 12
805 2 12.3882 5.28373 -7.00612 11
806 2 -4.13646 -10.1379 -13.516 12
807 2 -10.3067 -6.97206 7.82714 15
808 2 -1.79409 -9.91958 -2.09334 16
809 2 -4.89158 -10.0993 -1.1061 17
810 2 -9.49364 11.5146 3.25886 15
811 2 -12.9769 8.70465 -0.557052 13
812 2 3.95636 0.411631 -6.28705 20
813 2 8.30967 4.6727 -0.650733 20
814 2 1.51685 3.99977 -9.09332 19
815 2 -11.6601 2.94658 14.1832 8
816 2 -0.960428 1.1799 -16.8528 11
817 2 -12.6313 1.32095 0.067649 17
818 2 -3.81292 1.73511 10.3695 21
819 2 -14.4506 7.70544 6.00096 10
820 2 -8.26506 3.96147 -5.21159 24
821 2 5.81452 9.783 5.56571 22
822 2 4.77583 2.97774 -4.55334 19
823 2 10.3647 -8.16474 -2.25725 18
824 2 -15.4411 0.226064 11.2404 12
825 2 6.25202 2.19795 1.68937 20
826 2 -4.95256 7.21661 2.50348 20
827 2 -11.8697 3.61538 -10.3527 13
828 2 -6.41513 0.534569 9.67653 18
829 2 10.0356 -0.126546 10.1155 14
830 2 -10.7726 -6.41581 -8.09027 14
831 2 2.43382 5.95718 -12.7313 13
832 2 8.51667 7.57756 -2.37491 19
833 2 -15.5684 -5.49722 9.08893 10
834 2 0.944242 7.335 -1.04676 20
835 2 -4.50676 12.7169 -8.89694 12
836 2 -2.92789 9.19264 -4.29319 20
837 2 8.00981 -2.87471 10.3905 12
838 2 -1.02708 2.42561 10.6214 20
839 2 12.3391 -4.92843 -7.49812 13
840 2 -7.42566 -0.593963 14.4484 14
841 2 -1.26595 -4.52841 7.22531 20
842 2 -12.6245 0.636575 -3.99504 18
843 2 -6.01325 -8.11221 -14.7001 16
844 2 6.90112 -10.04 -1.22181 18
845 2 3.86514 -1.60166 -10.8868 17
846 2 13.8655 2.71484 1.4106 13
847 2 -3.15504 6.09068 15.2799 12
848 2 1.07284 3.79591 -12.6243 18
849 2 -8.97313 -5.0567 12.6928 12
850 2 -3.628 -2.65547 -12.7055 11
851 2 0.0753879 -9.00222 -0.241368 19
852 2 -2.18447 -7.60537 -4.33264 21
853 2 4.62499 -12.1194 -0.360708 18
854 2 8.95315 5.77765 -4.6075 19
855 2 -8.28796 2.29851 -13.8758 13
856 2 -4.61301 12.014 6.15735 14
857 2 -7.97053 -9.69632 -0.95409 17
858 2 -8.54911 -0.597144 -13.1127 15
859 2 6.96002 8.54136 -5.36832 20
860 2 -3.26257 16.1659 -1.75478 12
861 2 -8.10616 -12.3605 3.91655 14
862 2 12.8068 -1.57702 3.73194 11
863 2 0.865548 4.57424 13.1213 18
864 2 -10.1487 -12.8437 0.356214 10
865 2 3.51917 -10.687 -4.87322 19
866 2 0.148862 -1.27199 16.0429 15
867 2 -0.10489 10.6776 9.6832 17
868 2 13.7931 2.36839 -7.53879 12
869 2 3.29221 5.91756 11.2877 19