ITEM: TIMESTEP
17000
ITEM: NUMBER OF ATOMS
1000
ITEM: BOX BOUNDS pp pp pp
-30.0 30.0
-30.0 30.0
-30.0 30.0
ITEM: ATOMS id type x y z Coordination
1 1 -0.168236 -12.4181 -8.80252 16
2 1 9.16646 -15.7168 9.44934 9
3 1 -8.47556 2.35473 1.00506 11
4 1 -6.35878 1.36907 -4.8834 11
5 1 -0.285473 -11.5662 13.6567 11
6 1 -2.84545 -4.70502 -7.59718 17
7 1 -0.639847 -17.4241 5.68303 12
8 1 10.2077 -5.89086 8.33858 20
9 1 3.24558 2.09061 10.4477 16
10 1 -1.6434 7.28505 -5.00358 10
11 1 4.22704 -0.836128 15.616 9
12 1 -4.33763 -5.34154 4.29212 22
13 1 0.64516 -3.30616 -7.98118 18
14 1 4.97012 1.96675 14.0588 8
15 1 4.12788 -15.1358 7.5471 16
16 1 -7.39986 -5.33322 3.65018 16
17 1 -4.84041 -5.39207 0.814499 22
18 1 0.233742 9.4884 -0.741747 12
19 1 5.79373 -2.91064 -8.36798 20
20 1 13.3948 -7.96641 -7.812 14
21 1 -2.58216 -12.9943 13.0733 9
22 1 -7.30647 0.0164255 3.5511 18
23 1 4.33736 10.9057 -0.171972 9
24 1 5.3105 -15.7208 4.74768 16
25 1 11.8605 -10.7363 -6.68672 18
26 1 12.1005 -3.54747 8.65855 21
27 1 -5.70771 3.72675 -6.79734 8
28 1 6.0649 1.75853 8.62506 20
29 1 6.97328 -6.29136 13.1965 18
30 1 -5.68214 -8.01262 2.50125 21
31 1 16.0796 -1.87689 8.48314 11
32 1 14.6583 -9.98553 -2.32888 20
33 1 9.09099 -3.55924 9.91671 23
34 1 -3.23446 -8.50954 4.056 19
35 1 2.35302 -10.8301 -8.24525 18
36 1 -3.70134 5.4133 -2.57836 13
37 1 -1.64627 1.90895 -7.89715 22
38 1 12.1426 -5.64356 -3.76531 20
39 1 9.96005 -11.4525 7.82507 18
40 1 12.1619 -14.5645 10.9794 5
41 1 1.29527 4.55708 4.36554 14
42 1 -5.26553 -11.7463 10.7897 9
43 1 -5.83887 -3.06672 8.76707 16
44 1 13.9215 -15.1039 -4.49561 10
45 1 6.71333 -5.55951 -12.684 10
46 1 2.05135 9.61167 2.33005 15
47 1 -3.9393 2.27372 -2.1625 22
48 1 4.67407 4.73294 2.11064 19
49 1 -0.490749 -13.1131 9.14782 17
50 1 5.74351 -14.1727 -8.63126 12
51 1 8.91939 -10.2839 -6.90676 20
52 1 4.40833 -1.24639 8.30904 23
53 1 -8.08575 -12.4292 -0.11126 10
54 1 14.3356 -9.40915 5.94799 14
55 1 -4.55037 -12.9261 -3.83851 11
56 1 11.7646 -8.68913 4.76757 20
57 1 0.368369 1.81979 5.30937 18
58 1 5.87977 -0.819566 -6.30259 22
59 1 12.2173 -16.3164 -1.45711 12
60 1 -3.59747 -15.4672 1.11459 15
61 1 12.0688 4.42169 3.43826 16
62 1 12.7514 -0.417717 -0.0556358 17
63 1 1.81977 8.36866 -3.36096 14
64 1 4.92174 -12.156 -10.7322 14
65 1 4.28051 7.51732 -5.27181 11
66 1 17.4981 -8.20232 -2.37077 14
67 1 8.01467 -2.32211 -12.4717 11
68 1 11.0048 -14.4562 3.74961 14
69 1 -2.51999 0.332287 -4.44857 21
70 1 9.29339 9.00479 0.999777 10
71 1 15.7663 -0.669906 -3.75279 13
72 1 -1.10023 3.6504 -2.99577 22
73 1 4.60688 -9.04209 -11.2581 14
74 1 -8.73264 -9.32002 -1.72883 11
75 1 -0.961533 6.65931 7.33837 9
76 1 5.27189 8.52646 -2.42025 15
77 1 5.27001 -3.67945 14.2504 13
78 1 -9.73192 -10.2093 3.95019 10
79 1 1.10653 -15.182 7.73277 15
80 1 6.15511 6.48663 0.844029 19
81 1 11.9461 3.13686 -6.16113 11
82 1 0.327293 -14.7663 12.4613 10
83 1 -5.91905 -2.7795 2.409 21
84 1 1.41581 0.737995 13.0618 13
85 1 -3.28697 -2.33819 -5.86571 20
86 1 -1.90648 -11.7622 5.22553 19
87 1 -5.91222 -17.2287 2.50591 8
88 1 10.1346 -13.8071 -1.82157 18
89 1 -3.52342 5.36198 2.47291 18
90 1 -2.31584 -3.12301 7.32955 20
91 1 -5.69133 -4.56376 -3.07082 15
92 1 3.98042 -17.7523 2.50056 13
93 1 9.27468 -0.203695 -4.84588 19
94 1 8.81943 -3.172 12.9086 14
95 1 1.82108 0.439438 -7.74755 21
96 1 -1.17968 -8.93412 -10.7912 9
97 1 -1.77188 4.64828 -0.297635 19
98 1 12.7782 -0.529341 9.5931 16
99 1 -0.00153457 4.78545 -6.32466 18
100 1 5.43701 -0.421398 -10.2213 16
101 1 -3.8167 1.55842 9.13231 14
102 1 -0.349511 2.07519 10.662 13
103 1 3.93859 -15.3149 -6.72066 11
104 1 8.52107 3.92788 -6.27032 19
105 1 1.39606 5.65846 -3.86524 20
106 1 -8.86311 -2.65134 4.32981 11
107 1 7.24713 1.93119 11.7758 13
108 1 18.5424 -5.36245 -4.32814 8
109 1 4.64917 5.05401 5.2421 22
110 1 -8.67576 3.01768 7.0664 9
111 1 -5.16606 -10.1112 -3.99117 18
112 1 6.96506 -5.91832 9.63247 20
113 1 6.12041 -14.3521 -2.81943 17
114 1 3.26647 -5.55852 -11.014 16
115 1 11.589 -5.17235 -6.8955 21
116 1 -8.16622 -12.1336 5.58476 12
117 1 -2.59529 -10.8783 -5.523 20
118 1 0.435209 -5.92825 -9.94457 15
119 1 -5.92808 -2.24543 -5.08378 14
120 1 12.8065 -6.42997 10.0445 18
121 1 8.81256 -8.69447 9.72269 22
122 1 5.61982 -9.27801 7.76256 19
123 1 9.95695 7.28254 3.67004 13
124 1 -0.146551 -13.8062 5.65272 20
125 1 7.1053 6.95205 4.86177 18
126 1 1.79784 -11.4166 -11.3418 12
127 1 -3.15269 -10.4733 -8.2742 12
128 1 0.995562 -11.1855 3.34542 21
129 1 12.9759 -0.501368 6.52645 21
130 1 -4.62022 -8.81506 9.37871 14
131 1 1.77066 -14.0292 1.92135 18
132 1 5.01904 -14.7753 2.07747 21
133 1 11.2492 -15.8334 -4.49312 13
134 1 -4.45773 0.138367 -7.15404 17
135 1 15.6445 1.24881 4.29889 16
136 1 -3.12213 -3.29845 -2.63051 20
137 1 0.877173 3.23636 -8.36411 18
138 1 0.120357 -8.952 8.56086 19
139 1 5.63435 7.24923 7.37706 13
140 1 17.1121 -2.81083 0.0261383 12
141 1 -4.32307 -4.81176 7.29312 22
142 1 -2.43195 -11.3064 9.02858 20
143 1 -3.18502 5.50798 6.18455 12
144 1 11.0006 -8.55174 -8.56049 16
145 1 8.29184 -14.148 1.21864 23
146 1 11.7794 -5.66602 -9.84439 12
147 1 -5.39759 -10.7831 7.72199 15
148 1 14.2487 -13.6639 -1.73048 11
149 1 0.930026 5.92175 -0.933592 22
150 1 -1.73703 -0.138354 5.68737 23
151 1 5.91353 -13.6972 9.60431 16
152 1 4.26016 4.60516 8.53255 16
153 1 -0.741076 -8.36006 -4.86868 20
154 1 -2.40585 8.0531 4.31446 14
155 1 -5.29361 -0.435844 -2.82132 14
156 1 -7.14752 -4.93012 6.84739 16
157 1 -0.0462827 -9.49626 -7.67537 20
158 1 -2.57176 3.00772 4.32557 20
159 1 14.4931 -8.18888 9.2645 14
160 1 7.18264 -11.0433 9.51553 19
161 1 4.24886 -5.85857 11.8627 22
162 1 8.80931 -12.7824 -8.20647 15
163 1 1.35152 -8.16032 -10.9073 13
164 1 -5.70694 -8.80504 -0.715912 23
165 1 0.593373 -11.5519 0.267675 22
166 1 14.27 -3.48912 -4.03519 21
167 1 -3.12693 0.0287977 -10.371 9
168 1 -1.6474 3.01848 7.53582 18
169 1 -4.20306 8.35786 1.36419 8
170 1 -4.79341 1.75451 5.8016 22
171 1 14.3137 -6.77511 -2.07546 21
172 1 14.688 -5.04037 -8.36485 13
173 1 5.92668 -11.3765 -3.39988 17
174 1 2.39132 6.47282 2.3891 17
175 1 -6.44002 -2.88465 -0.832878 16
176 1 8.8595 -16.1431 -2.12306 13
177 1 14.7035 -4.58195 10.0637 13
178 1 -8.14134 -10.1215 -5.20761 7
179 1 2.58842 -14.1031 4.88719 21
180 1 -1.64434 7.1869 -2.14562 16
181 1 -5.72891 3.65853 -0.256978 16
182 1 0.586427 -15.0078 -6.75833 13
183 1 9.02151 -9.30192 6.30789 22
184 1 1.01059 -18.92 2.93475 12
185 1 -6.56475 3.99537 -3.50717 11
186 1 2.48964 -17.3489 5.43737 14
187 1 0.482153 -3.40874 8.42447 24
188 1 -4.47646 -0.837919 7.33458 21
189 1 5.21295 -8.3916 -4.72654 19
190 1 -6.89029 -6.59491 9.16065 11
191 1 1.07038 -6.56253 10.2128 23
192 1 -1.53484 -6.06178 8.64531 21
193 1 8.44073 -11.4958 -1.73425 20
194 1 8.07047 -14.5481 4.33816 21
195 1 7.16667 4.79135 -3.74512 20
196 1 -6.3652 -15.5986 5.5136 10
197 1 9.22316 -16.8581 5.8536 9
198 1 16.424 -5.34507 -2.00143 16
199 1 7.87319 -3.26607 -6.62549 19
200 1 12.5213 -11.8321 6.14462 13
201 1 -1.30871 -7.0137 11.9565 17
202 1 5.45642 9.03555 2.14138 13
203 1 11.6838 -8.9411 8.15667 21
204 1 2.13061 -17.1544 -0.322687 13
205 1 9.45796 2.17381 9.72629 13
206 1 -3.34132 -5.69877 13.8173 9
207 1 0.00520205 -14.816 -0.761312 15
208 1 -5.24079 -11.5316 -6.64908 12
209 1 -5.82293 3.62785 7.52842 12
210 1 3.08541 -13.2059 -1.00339 20
211 1 -2.5691 -9.13778 7.11152 19
212 1 14.3907 -3.41153 6.34159 17
213 1 16.9892 -1.19461 5.77758 11
214 1 7.75152 1.29987 -7.22641 20
215 1 2.92155 2.96762 -5.85814 19
216 1 1.64487 3.37229 8.46412 14
217 1 -6.04844 -10.6795 4.04798 14
218 1 10.3362 5.52668 -4.33277 15
219 1 -2.37207 -13.4131 -7.08109 13
220 1 5.96581 -9.81845 -8.12328 18
221 1 13.74 1.84606 2.11806 22
222 1 7.18552 3.92366 -0.409465 20
223 1 9.895 -4.5718 -11.8009 11
224 1 6.75078 -11.5919 2.88432 22
225 1 0.170642 -0.0286733 -10.751 12
226 1 16.7116 2.97536 1.15016 11
227 1 11.5011 -8.62999 1.28523 23
228 1 2.49397 -2.36735 -9.89293 18
229 1 9.43857 -11.2044 1.01175 20
230 1 2.63818 -9.22091 12.9315 18
231 1 -5.02672 -2.70987 -8.78056 10
232 1 4.96094 -3.34199 -11.7097 13
233 1 -9.60269 -7.16511 2.8696 9
234 1 14.5131 -8.46718 -0.0811628 21
235 1 0.0954257 1.88741 -5.15224 23
236 1 5.9965 -12.2331 -6.27091 17
237 1 8.19585 0.828838 -11.1286 14
238 1 13.502 -8.82899 -4.69803 20
239 1 -7.0467 -13.4334 8.01365 8
240 1 -0.450779 6.39054 1.86756 17
241 1 6.00481 2.32883 -4.96189 18
242 1 17.2644 -2.40677 -3.1495 13
243 1 6.25957 -12.2123 0.122998 20
244 1 7.72644 -7.34214 -7.41636 20
245 1 17.3316 -9.01255 1.47146 12
246 1 7.22137 -12.0085 6.28691 20
247 1 -7.0646 0.272926 8.86867 12
248 1 0.29989 -12.2347 -5.71736 18
249 1 0.543344 -10.0539 11.069 20
250 1 7.68552 3.76457 -9.46658 12
251 1 -2.57693 4.91779 -7.67873 11
252 1 7.61034 8.07982 -4.31851 10
253 1 4.17041 -0.541998 11.7283 22
254 1 8.83787 -12.8003 -5.03558 17
255 1 8.84241 -5.78066 -4.89445 20
256 1 -6.65835 -13.8185 2.0883 15
257 1 -5.33312 -0.0530288 0.627619 21
258 1 -9.83777 -13.5398 2.65121 6
259 1 14.712 1.7752 -1.1385 13
260 1 9.99854 -10.6658 -10.0388 13
261 1 5.42542 -10.0577 14.0557 10
262 1 11.2331 -3.06863 -5.12276 21
263 1 -9.02463 0.39694 6.15957 9
264 1 16.6893 -10.3558 -4.44849 11
265 1 7.26873 4.45001 7.46431 20
266 1 3.45398 -2.32091 -6.29787 18
267 1 10.3464 1.98172 -8.48619 15
268 1 -0.0552281 -6.07478 -6.43231 19
269 1 -2.6904 -10.4615 -1.26758 21
270 1 14.5551 -3.29854 -0.484614 23
271 1 13.9433 -12.2727 -5.04209 13
272 1 11.5051 -14.113 -7.0936 11
273 1 14.1294 4.90322 0.110441 14
274 1 -4.46288 0.117145 3.50551 22
275 1 13.6089 1.1126 -5.38875 11
276 1 -2.25497 -9.15236 13.6464 9
277 1 11.8006 -3.32353 11.6587 15
278 1 -4.09057 -8.08041 -6.13737 16
279 1 15.989 -1.11179 2.03552 16
280 1 12.4515 -11.3699 3.03519 19
281 1 9.03175 7.00405 7.1457 10
282 1 7.37322 -0.529222 10.0773 23
283 1 -0.526939 1.73833 -0.661316 20
284 1 3.28427 -13.1628 -4.52831 21
285 1 -1.01178 2.95379 -10.4902 10
286 1 -1.71854 -3.06391 -9.85801 12
287 1 -8.19237 -6.44488 -0.702001 15
288 1 11.9495 -13.7592 0.966863 18
289 1 2.38096 -12.1934 13.349 13
290 1 14.0848 -2.52085 -6.29993 18
291 1 15.6197 -6.75661 4.27295 13
292 1 13.5021 3.22873 5.40308 17
293 1 16.3764 -6.02399 7.52066 12
294 1 -1.63654 -0.643043 12.0558 15
295 1 -0.934119 -13.7764 2.61068 18
296 1 -6.8063 -7.52231 -3.67999 17
297 1 9.61314 -6.23367 11.6549 17
298 1 -0.972768 9.37393 2.33656 14
299 1 12.8285 -1.01135 3.24237 21
300 1 9.95826 -1.25453 8.1398 22
301 1 -5.71802 -7.45695 6.74525 18
302 1 9.07088 -7.11632 -10.9861 15
303 1 2.92513 -10.6363 -5.20891 17
304 1 11.9143 2.26315 8.36245 13
305 1 8.73189 1.58234 6.73386 23
306 1 2.61488 -2.65044 13.1704 18
307 1 0.173373 -3.85969 11.281 21
308 1 -3.82664 -2.99221 13.1013 10
309 1 2.27514 2.97681 -2.7861 19
310 1 11.1182 6.82364 0.785481 15
311 1 9.81146 8.11119 -2.28085 13
312 1 -2.36694 -18.1176 2.62804 11
313 1 9.84307 -1.04859 5.10752 20
314 1 -5.54945 3.1694 2.90598 21
315 1 8.94519 2.58702 -3.41814 19
316 1 5.8616 -3.11026 11.5993 23
317 1 15.4137 4.76007 2.95723 10
318 1 7.48848 -10.0574 -11.1559 12
319 1 10.7244 -10.7687 -3.86061 19
320 1 8.01459 4.20298 4.47597 19
321 1 -8.73996 -8.06611 5.79049 10
322 1 6.95294 -17.0107 2.04852 12
323 1 11.3522 -0.447921 -6.96528 18
324 1 8.51542 -4.76675 -8.77387 19
325 1 10.5963 -8.21092 -5.69038 20
326 1 0.700983 7.84126 4.78639 16
327 1 4.89908 -11.7442 11.9089 15
328 1 0.493762 -14.6085 -3.38734 14
329 1 1.49682 -0.971349 10.5941 21
330 1 12.6687 -6.05315 3.24226 21
331 1 4.37657 5.58807 -1.63892 20
332 1 10.6337 -0.81667 -10.6489 12
333 1 12.3509 -0.948933 -3.37159 16
334 1 5.35401 3.19168 -10.5411 11
335 1 3.02899 -3.95305 10.1757 25
336 1 -2.81029 -14.4619 10.5569 9
337 1 7.79936 -13.1982 -11.3316 9
338 1 -6.52889 5.37856 2.09657 12
339 1 10.2525 4.24213 6.19551 19
340 1 -5.24369 -11.2853 1.41567 18
341 1 4.61832 1.95811 -8.18438 18
342 1 1.53915 -5.53147 13.5129 15
343 1 -8.19311 -9.49915 0.871096 15
344 1 12.3904 -6.06389 -0.198315 23
345 1 -2.09871 -10.8224 1.8339 19
346 1 15.3937 -11.6826 0.952783 14
347 1 9.78396 -11.8231 4.04968 22
348 1 2.316 7.01529 7.62647 11
349 1 -4.31608 -0.259943 11.0407 14
350 1 11.9667 -3.35105 5.39406 23
351 1 12.3188 -11.2006 -0.6869 20
352 1 8.82708 2.07328 3.11767 22
353 1 4.01892 8.42712 4.57505 13
354 1 4.1751 -11.9587 8.08536 20
355 1 -3.36792 -7.95352 -2.96495 21
356 1 7.1196 -0.632721 13.2071 17
357 1 10.0064 2.69832 -0.208635 17
358 1 11.8456 -8.97279 11.6667 11
359 1 6.20495 -8.83934 11.2071 21
360 1 11.2661 1.77457 4.79516 20
361 1 2.47751 -13.9287 -9.17863 14
362 1 3.22751 -5.16442 -8.074 21
363 1 -0.766664 -2.95216 13.5056 14
364 1 19.0112 -3.80979 7.30403 5
365 1 5.82248 4.54558 -6.93918 19
366 1 11.5841 -3.21089 -8.28864 19
367 1 -1.13902 -17.5876 0.073782 11
368 1 -2.47779 -5.49754 -4.5347 22
369 1 5.54601 -5.87458 -6.71237 19
370 1 0.0519826 -10.7175 -2.89421 18
371 1 4.02059 -6.78296 14.7496 11
372 1 2.78637 -13.8873 10.2185 16
373 1 16.666 -3.68625 -5.83031 15
374 1 -6.69461 5.7566 5.42102 11
375 1 14.172 -9.01633 2.51778 19
376 1 -8.39636 -4.07959 1.08048 14
377 1 17.6547 0.473456 -0.728236 9
378 1 10.212 -0.530575 11.6537 15
379 1 -5.58306 -5.81081 -6.26291 11
380 1 -0.890723 -0.534636 -6.43953 16
381 1 18.0648 -10.8283 -0.875962 9
382 1 -4.90349 -12.3735 -1.35674 12
383 1 -3.27903 -13.2463 7.10208 16
384 1 13.2015 -6.18621 6.60329 22
385 1 -5.19468 -2.17755 5.26698 24
386 1 2.89326 5.68607 -7.83522 11
387 1 8.43783 -13.3095 10.6501 10
388 1 -4.20928 -5.52366 10.3011 15
389 1 3.36165 -8.04327 -6.8991 21
390 1 -2.78914 -15.7685 4.8802 14
391 1 8.85505 -9.22583 13.2737 9
392 1 5.39488 -16.4571 -0.726435 14
393 1 16.3743 -7.12348 -5.78188 13
394 1 -8.13201 3.14779 3.83847 13
395 1 -2.62644 -2.80754 10.2143 24
396 1 3.81002 -15.8924 -3.1357 13
397 1 12.8584 3.52982 -3.27366 12
398 1 14.4886 -3.6151 2.76977 19
399 1 3.09552 -9.18384 9.94901 22
400 1 11.9465 5.70989 -1.8474 14
401 1 8.95242 -1.31887 -8.40073 20
402 1 -9.14906 -1.07007 -0.407592 6
403 1 8.85104 5.52906 -1.4812 20
404 1 8.62516 5.15953 1.83403 24
405 1 7.65204 9.28759 -0.765136 12
406 1 -1.26554 0.06698 8.88548 23
407 1 11.5075 -2.8903 -1.67068 23
408 1 7.54949 -15.2712 7.28685 14
409 1 15.0386 0.897762 7.71263 11
410 1 11.3748 -8.30334 -2.35595 22
411 1 -3.48575 2.86262 -5.4167 21
412 1 3.22987 1.87645 6.9084 23
413 1 2.93568 7.79081 -0.0304984 19
414 1 1.38141 -11.493 7.61861 18
415 1 10.152 -16.5999 1.26896 12
416 1 5.51286 -6.6581 -9.77475 19
417 1 -3.01903 -15.3049 -2.76298 9
418 1 -3.36595 1.99371 0.921906 19
419 1 12.4594 -11.0996 9.40698 14
420 1 -3.87372 -13.7454 3.92778 16
421 1 15.6716 -6.22151 1.21199 18
422 1 2.43809 1.29608 -10.5532 12
423 2 -5.79258 -4.5293 -5.13865 15
424 2 0.00987668 7.45127 -3.89195 15
425 2 5.45036 -5.0596 -8.54327 21
426 2 2.4328 -0.853733 12.5205 18
427 2 -1.33339 -11.019 -7.1405 20
428 2 8.94165 -1.02107 12.6356 16
429 2 -5.48441 -5.77323 5.76073 21
430 2 13.3986 -2.15137 4.97116 17
431 2 -6.51386 -10.9759 -5.09097 14
432 2 -5.25161 -3.39068 0.740382 20
433 2 -2.26646 -13.7045 8.75881 14
434 2 6.25122 -1.09787 11.6347 20
435 2 9.99041 -5.65889 -9.93777 17
436 2 -5.23529 7.04019 2.08404 12
437 2 16.6657 -0.482677 4.2123 12
438 2 -9.3537 -12.2722 3.93142 9
439 2 2.77149 -15.8095 6.52253 15
440 2 11.7618 -11.874 7.79261 11
441 2 -3.29482 4.81666 4.44232 18
442 2 -3.902 4.20828 -6.7609 11
443 2 1.22557 2.32558 6.89831 19
444 2 11.9004 -10.1842 -2.30526 17
445 2 -0.0406931 -2.21465 -6.35358 18
446 2 6.66762 -11.5702 -11.254 15
447 2 15.0673 -6.85065 -7.51591 13
448 2 13.9724 -0.184991 -3.97336 16
449 2 -2.88092 8.82899 2.53905 11
450 2 -2.18477 -9.71331 -9.64436 10
451 2 4.24326 -11.62 13.8842 11
452 2 12.4825 -6.91606 4.91125 20
453 2 -8.36669 -2.67688 -0.321235 11
454 2 7.93385 5.86788 3.4686 21
455 2 9.25714 -13.7449 2.94133 20
456 2 3.35324 5.14752 3.66584 17
457 2 7.39891 8.081 1.08778 19
458 2 6.60459 2.73933 -3.19762 19
459 2 -3.67459 -4.01953 9.20008 18
460 2 9.84745 -4.09045 -7.50461 19
461 2 -4.91335 -2.6737 -2.96039 18
462 2 -7.85282 -7.07223 7.33825 11
463 2 -2.77757 -17.0687 0.74877 11
464 2 3.02856 -11.1827 3.33692 23
465 2 2.79743 -6.79012 13.0388 16
466 2 1.38744 2.44588 10.0552 17
467 2 -4.6967 -3.35319 3.91968 22
468 2 10.8644 -10.4038 -8.32671 17
469 2 11.2098 -6.27368 -2.0075 22
470 2 3.94532 -17.0171 4.12672 15
471 2 6.8967 2.41034 6.83308 24
472 2 14.4239 -13.4462 -3.7752 11
473 2 6.88906 -8.94233 9.46845 21
474 2 0.0124695 -11.147 5.16505 24
475 2 16.1772 -4.66655 -0.0472143 15
476 2 4.18977 -14.1617 3.85713 21
477 2 15.7247 -8.27776 1.59758 15
478 2 -0.718377 -13.6984 -7.5363 14
479 2 -5.14423 -7.4267 0.433126 19
480 2 0.834111 -13.9728 3.5356 17
481 2 1.4656 -13.9383 -1.78603 19
482 2 0.904629 2.64096 0.499559 18
483 2 5.47434 -2.68241 -6.58072 20
484 2 9.61004 1.59162 -1.61978 15
485 2 7.205 -0.872632 -11.4048 13
486 2 -3.82732 -1.20434 12.4082 10
487 2 -5.95809 -0.832622 2.51305 20
488 2 -2.53713 -0.426667 10.2468 17
489 2 -5.32689 0.563553 9.58783 13
490 2 15.3893 -3.68792 -7.31515 12
491 2 17.4217 -10.7038 0.739215 10
492 2 12.6501 -4.01749 3.20305 20
493 2 0.663397 6.14172 3.71326 15
494 2 -1.81527 1.76468 5.83443 21
495 2 14.5708 -0.124352 2.6976 15
496 2 4.21306 6.40533 0.965036 18
497 2 9.18788 7.19039 -4.14969 14
498 2 4.32772 2.71423 8.78494 18
499 2 6.02093 -6.76241 11.4078 21
500 2 7.47825 -5.39441 -6.6029 20
501 2 -1.28011 -2.53326 11.6662 20
502 2 9.93983 1.04917 -10.4115 13
503 2 -4.07401 -10.6356 9.8796 13
504 2 3.97353 -13.8436 -2.84215 19
505 2 9.90334 -11.2993 -5.535 17
506 2 6.99687 -15.9352 3.66625 17
507 2 13.4565 -0.680036 -6.44272 16
508 2 0.642018 2.08419 -10.1815 13
509 2 -0.651324 8.83153 3.9701 11
510 2 -3.57306 -11.1354 0.316568 16
511 2 5.87193 4.11602 -8.86742 15
512 2 5.80913 9.89798 -0.795761 12
513 2 3.2232 0.783882 14.6314 9
514 2 4.58961 -11.6914 -4.78298 18
515 2 11.8708 -1.18531 7.91603 21
516 2 14.7993 -8.35721 4.39337 16
517 2 11.8296 -0.115785 4.7407 19
518 2 -2.03834 1.95163 -5.6505 20
519 2 6.95721 -9.68437 13.105 15
520 2 4.01611 -8.36092 8.23467 23
521 2 8.94097 -16.4737 7.62497 9
522 2 2.663 7.04 -4.44564 15
523 2 -1.17036 -15.0827 -2.3766 9
524 2 2.68232 -3.03215 -8.01794 18
525 2 1.53385 -12.3059 -9.49303 17
526 2 10.539 5.34722 2.6185 17
527 2 -4.00055 -11.2057 -2.59147 17
528 2 -6.12428 -4.95473 8.54853 14
529 2 12.7029 -12.7318 10.4951 6
530 2 0.41748 -16.5476 0.12751 13
531 2 7.71492 -2.87261 -8.74404 20
532 2 -0.322642 -4.31981 -9.42532 15
533 2 -0.306964 -7.29166 -10.62 12
534 2 0.920019 -3.67046 13.3825 14
535 2 1.4832 -11.1579 -6.61407 21
536 2 6.2291 -8.27745 -6.65777 19
537 2 10.6306 -6.16618 -5.42344 20
538 2 -1.91139 -9.34604 5.17742 20
539 2 7.46132 -6.69096 -9.53961 19
540 2 1.81652 -10.7435 -3.60854 19
541 2 4.04829 1.7422 -10.1795 12
542 2 9.63053 2.97657 4.79661 23
543 2 14.7683 -3.34762 8.65056 17
544 2 -8.65867 -10.144 5.47556 9
545 2 0.732542 -13.2116 7.81361 20
546 2 2.8088 -0.515885 -6.36446 22
547 2 -2.17646 -14.0273 5.64244 18
548 2 -2.03567 1.9101 2.76869 20
549 2 -3.82779 -13.0287 11.4862 9
550 2 4.11341 -13.8356 8.86211 17
551 2 -8.508 -6.78591 4.37449 15
552 2 -2.48493 -14.9838 2.75886 16
553 2 -1.44778 -7.89252 8.10047 19
554 2 9.97699 -9.45614 11.2299 17
555 2 7.07967 4.96518 -5.52441 18
556 2 10.5132 8.05593 2.14164 11
557 2 18.5312 -3.6859 -3.8788 9
558 2 1.56417 8.39559 -1.37139 19
559 2 -5.80152 -7.75954 -5.20057 15
560 2 -6.76209 -5.45386 -1.74292 16
561 2 2.24365 -18.0144 1.76139 11
562 2 5.95396 -11.1747 7.98093 21
563 2 10.3634 -15.6618 5.08211 11
564 2 -2.99646 3.66368 -3.44505 21
565 2 12.7797 -3.66377 -0.0820999 20
566 2 7.00641 -3.41647 13.2195 15
567 2 6.47965 5.10715 5.58412 22
568 2 4.01984 -3.78507 12.2505 22
569 2 -5.02018 -0.0943758 5.49245 18
570 2 9.26495 4.54961 -3.14921 20
571 2 -4.38448 -9.80778 -7.11243 13
572 2 -0.880485 -11.0944 -4.66548 19
573 2 -2.9466 -11.317 7.10488 18
574 2 12.7319 5.96042 -0.0564958 11
575 2 17.3383 -0.871116 0.600321 10
576 2 14.8579 -12.4346 -0.50807 13
577 2 -6.24639 -9.64322 1.18882 18
578 2 0.959778 6.78496 0.739096 20
579 2 0.230258 2.29941 -2.27144 22
580 2 5.94426 0.691014 -7.81621 23
581 2 -8.6382 1.93947 5.21235 10
582 2 -5.0619 -12.4407 3.24923 17
583 2 10.2746 -16.6076 -0.758131 14
584 2 9.00234 -12.8635 -0.198641 21
585 2 -4.41007 3.7955 1.3485 19
586 2 -5.43735 1.55807 -3.17705 15
587 2 8.58481 -10.9045 2.71926 24
588 2 9.22166 1.76087 11.4437 10
589 2 2.81284 -3.52157 -11.6826 12
590 2 1.83779 4.58558 -6.91226 16
591 2 9.76858 -2.5891 -11.5693 14
592 2 4.11339 7.3209 -1.51023 19
593 2 -4.26914 -4.81925 12.1885 12
594 2 0.978297 -8.43041 10.2781 21
595 2 -8.79877 -10.8985 -0.600528 10
596 2 4.84966 3.18753 -5.9414 19
597 2 12.9694 -9.42622 0.133076 21
598 2 7.0173 -3.93491 10.2365 22
599 2 5.28038 -5.70171 -11.4455 15
600 2 11.9843 -1.14523 1.52962 22
601 2 9.86558 1.9325 1.39766 23
602 2 -5.01285 -9.17496 3.80183 18
603 2 -1.46124 8.74054 -1.06875 14
604 2 0.109187 0.357976 11.656 15
605 2 5.20173 -17.0874 1.24619 14
606 2 -0.194686 -15.7208 6.34492 14
607 2 11.6974 -6.76174 11.5496 15
608 2 11.8799 1.4951 -7.35572 13
609 2 6.42737 4.61928 1.35655 19
610 2 6.33269 -12.2606 10.6208 16
611 2 12.5557 -15.1937 -5.79586 9
612 2 1.84264 -0.562514 -9.90342 15
613 2 4.24136 1.54258 12.0654 14
614 2 6.2085 -0.498743 8.53317 21
615 2 12.5272 -9.78028 6.21752 21
616 2 3.24996 -7.68245 -10.8658 15
617 2 17.0713 -5.52686 -5.70196 13
618 2 -2.15764 5.80473 1.27586 17
619 2 7.33306 -11.4044 -7.59161 21
620 2 6.67374 1.23083 13.5699 12
621 2 -5.16146 1.92181 -6.23959 15
622 2 17.4109 -10.2081 -2.55814 10
623 2 9.49831 7.3047 5.32112 11
624 2 16.7279 1.94436 -0.434148 12
625 2 15.4507 -0.892973 7.05938 14
626 2 -2.67628 -8.64107 -4.74367 20
627 2 -7.5127 4.28634 0.822581 11
628 2 -3.15157 0.37861 -2.63855 25
629 2 11.5337 -0.889648 -1.42768 19
630 2 -7.26178 1.76031 2.80077 19
631 2 -0.0718235 -10.9649 8.93701 17
632 2 9.39221 -6.7802 9.9114 19
633 2 7.0746 -12.8907 -4.19198 17
634 2 3.21574 -6.1897 -6.21394 18
635 2 9.63982 9.47598 -0.779551 9
636 2 10.3768 6.72313 -1.15272 17
637 2 0.0895866 -7.6891 -6.70977 17
638 2 -3.95167 -12.5153 -7.48657 11
639 2 17.6661 -2.76782 6.95669 10
640 2 -2.26458 2.83195 -0.61002 21
641 2 7.96964 -13.8324 5.95672 18
642 2 12.3322 -9.37118 2.91829 21
643 2 -6.11027 -12.085 8.97579 13
644 2 -2.30112 -7.92315 -1.37889 23
645 2 7.72821 1.45404 9.80715 19
646 2 6.2976 5.37377 -1.40285 20
647 2 -7.62485 4.5012 6.56577 9
648 2 -2.19129 -11.1272 13.4539 10
649 2 3.66851 9.60328 1.27865 15
650 2 3.37097 -13.7354 1.06755 22
651 2 4.0358 -9.36947 11.6368 21
652 2 9.6158 -4.21382 11.6325 20
653 2 -8.70063 -0.796276 4.66414 11
654 2 3.3835 -0.538101 9.95313 23
655 2 2.31486 -15.1418 -7.68222 12
656 2 15.9415 -8.66279 -1.33711 19
657 2 12.414 -12.4603 -6.19347 14
658 2 -0.723954 5.46359 -1.73477 21
659 2 -2.27016 -4.03654 13.835 13
660 2 -6.03344 -0.972932 -0.963888 15
661 2 15.822 -8.73271 -4.87476 15
662 2 9.05539 4.46173 0.200548 18
663 2 0.675601 -0.253853 8.70132 23
664 2 2.76699 2.30169 -8.0506 20
665 2 -7.90474 -8.21101 -0.651417 14
666 2 2.13487 -5.64684 -9.46275 19
667 2 2.63657 1.7613 -4.29974 21
668 2 -1.06426 -4.76919 -7.13793 15
669 2 9.34989 -8.43541 -7.18367 21
670 2 -0.598689 -10.4147 -0.98466 18
671 2 -1.6342 -14.5874 12.1114 10
672 2 11.9696 -6.78281 8.19121 22
673 2 12.4204 -8.82076 -6.31892 20
674 2 5.6804 -15.5013 6.67994 18
675 2 15.6242 4.59204 1.16306 10
676 2 0.71843 7.30706 6.76534 11
677 2 -6.22394 -12.5965 0.197352 15
678 2 8.63085 -0.507376 -2.99951 21
679 2 6.22056 -11.2497 4.78582 23
680 2 -6.80359 4.59845 3.99604 17
681 2 9.62139 -4.02803 -4.53787 22
682 2 8.90851 -0.381902 6.5281 22
683 2 -8.00009 -3.78148 5.49132 16
684 2 4.42901 6.18584 -6.81551 10
685 2 8.52635 -5.69102 -12.261 11
686 2 -1.14626 -2.83527 8.68965 21
687 2 0.355567 -5.71577 11.9202 19
688 2 15.189 -5.61268 5.80304 19
689 2 6.60653 -3.57991 -12.5498 10
690 2 -5.38716 -8.525 -2.72968 18
691 2 12.7508 -4.68549 -8.41356 15
692 2 4.29147 -13.5873 -9.75715 13
693 2 -8.12806 1.39259 7.68749 11
694 2 -2.50002 -5.52275 7.03385 23
695 2 10.0619 -15.038 -3.35142 14
696 2 3.68914 -15.11 -4.92217 13
697 2 7.00278 -16.0773 -1.84694 14
698 2 18.089 -6.42849 -2.7403 13
699 2 -2.8929 -0.588071 -6.33865 19
700 2 9.02724 5.12859 7.03231 15
701 2 3.55699 -16.4183 -1.33075 14
702 2 9.96405 -3.5907 8.22042 20
703 2 2.53918 5.22272 8.22455 14
704 2 -6.83679 3.94108 -5.11212 8
705 2 5.02228 -13.7002 -6.91301 12
706 2 -2.05043 -17.5209 4.4798 11
707 2 -4.42838 2.05269 3.91834 21
708 2 8.8289 3.03696 -8.00263 16
709 2 -0.93327 3.77979 -8.09611 16
710 2 7.97244 2.0226 -5.3471 21
711 2 0.598386 -9.8839 -11.5644 12
712 2 3.76936 -9.78822 -7.53117 19
713 2 -3.73778 -6.09497 -6.23959 18
714 2 11.8797 3.37308 6.6578 14
715 2 -1.24436 -1.25779 -10.1733 13
716 2 -7.06174 -16.7521 3.84665 6
717 2 14.7134 -8.9708 7.716 14
718 2 9.40181 -1.6321 10.1004 21
719 2 11.496 -1.24589 -5.02511 20
720 2 2.34272 4.99749 -2.03285 20
721 2 5.65112 8.07436 -4.27328 14
722 2 18.0921 -5.26002 7.90603 7
723 2 10.2758 4.14519 -5.81038 15
724 2 4.08529 -2.32436 14.6565 13
725 2 1.46338 -9.39706 -9.13886 20
726 2 11.9792 -1.34692 11.2119 12
727 2 -1.96389 7.31333 5.95101 11
728 2 11.3546 -15.3853 1.75922 12
729 2 14.7582 -10.5287 -4.18406 13
730 2 5.55756 7.5885 3.51505 18
731 2 10.1078 -14.3991 10.5231 8
732 2 0.478924 3.91094 -4.59316 20
733 2 2.28173 8.14224 3.39108 19
734 2 -5.31636 4.61162 -2.1168 13
735 2 7.51131 8.2292 -2.39529 16
736 2 -3.35347 -12.6301 -5.27205 16
737 2 9.46762 -9.04357 -10.5618 15
738 2 -2.52418 -0.788015 7.46035 23
739 2 14.9297 -5.5866 2.75515 16
740 2 -1.55294 5.82976 -6.37336 13
741 2 -5.54496 -7.36919 9.96186 12
742 2 0.902561 -14.0948 -5.0333 16
743 2 10.1022 1.95731 7.97251 17
744 2 3.47549 -10.6576 -11.0734 15
745 2 -2.06171 1.5675 -9.94289 11
746 2 7.03136 2.36962 -10.8029 12
747 2 0.0789077 1.38116 -7.15317 23
748 2 -5.09868 5.20623 6.70037 10
749 2 -4.47534 2.34362 7.44542 18
750 2 11.8859 5.14311 -3.6954 14
751 2 -0.806119 -18.8036 1.98716 9
752 2 12.7666 -4.38284 -5.74979 18
753 2 10.1364 -8.94319 -3.99104 21
754 2 -4.68877 -15.1824 4.91108 14
755 2 -5.4621 1.74442 0.206557 20
756 2 -5.87876 -11.3774 5.98355 14
757 2 -0.420852 0.131332 -4.414 20
758 2 7.30281 -14.8086 9.37442 13
759 2 13.2846 0.999881 8.33058 11
760 2 9.78679 -9.4746 8.22575 18
761 2 -2.71823 -6.57901 10.4749 17
762 2 11.0559 -1.56902 -8.86126 14
763 2 5.66458 5.65135 8.17184 15
764 2 -5.49632 -15.4065 2.14766 13
765 2 -7.38468 -13.857 6.28344 9
766 2 -4.50248 -2.78788 6.96756 20
767 2 -2.44221 -3.40296 -4.6165 21
768 2 -8.24012 -9.20526 -3.55659 11
769 2 -2.68285 6.65602 -3.61034 11
770 2 9.12919 -12.0279 9.60273 18
771 2 15.6506 2.59534 2.83756 15
772 2 0.92019 -18.3889 4.78109 11
773 2 -9.40962 -9.22569 2.40228 12
774 2 -7.84447 -3.57001 2.88409 15
775 2 1.63299 -2.84682 10.2391 22
776 2 5.44464 -5.69941 14.3378 13
777 2 3.21226 -12.5935 6.35652 20
778 2 12.6718 -4.35255 6.91992 21
779 2 9.3171 -12.3601 -3.12659 16
780 2 1.07643 2.82019 3.96005 19
781 2 -3.67237 -5.56288 -2.88235 22
782 2 0.165159 -5.19756 9.1302 23
783 2 2.8317 -10.5486 8.51653 19
784 2 -2.3194 -7.25558 13.491 9
785 2 4.34039 -8.65801 14.606 12
786 2 9.16722 0.397352 -7.84869 17
787 2 14.9734 1.87759 6.18546 15
788 2 12.2067 -7.38071 -9.03878 14
789 2 12.966 -9.11191 10.0586 14
790 2 15.718 -3.36206 -2.29525 18
791 2 11.3904 -11.8785 0.773738 22
792 2 7.33108 7.80533 6.75551 11
793 2 15.3345 -2.71607 1.48589 17
794 2 1.19889 -14.5602 10.6504 10
795 2 1.27574 -10.3867 13.01 15
796 2 -1.10643 -9.11359 11.963 16
797 2 6.31507 -13.3641 1.64333 20
798 2 9.01996 -11.3994 6.08892 21
799 2 14.2142 -10.9764 2.18423 16
800 2 0.652245 -13.1366 13.2878 12
801 2 -1.8962 2.1716 9.25873 17
802 2 12.2926 -2.86721 -3.25082 18
803 2 9.07697 -12.2264 -10.2188 11
804 2 7.57772 -13.7892 -9.18868 11
805 2 4.63251 -2.23735 -10.1683 16
806 2 -3.46964 -3.95167 -9.32597 10
807 2 14.0461 4.79063 4.2418 11
808 2 -5.70577 -5.92862 3.02059 20
809 2 17.2283 -0.695891 -2.14446 11
810 2 -8.75186 -6.00714 1.21206 15
811 2 9.67999 -8.19463 4.55163 23
812 2 13.6004 3.37873 -1.50606 12
813 2 14.2887 -5.28874 -3.11973 20
814 2 15.9684 -2.08878 -4.87767 12
815 2 3.18152 -12.7266 11.6208 17
816 2 -8.59888 -13.5813 1.37179 7
817 2 15.0817 -6.48816 9.28736 13
818 2 11.6181 -12.3745 4.55324 16
819 2 13.5404 1.19719 0.32562 17
820 2 -6.55669 -1.4617 8.18078 14
821 2 -9.11826 0.620485 0.543465 9
822 2 14.1768 -6.49464 -0.0955161 19
823 2 8.2352 -16.0981 1.15797 15
824 2 -3.85672 -13.8009 -2.26206 10
825 2 12.6334 2.50905 3.69583 19
826 2 12.9375 -16.3821 -3.3064 9
827 2 7.10523 2.48563 3.39456 21
828 2 -1.70872 -12.2215 3.20147 17
829 2 2.81058 -5.89545 10.0842 20
830 2 -1.67442 5.01592 7.4719 13
831 2 6.04948 -9.06042 -10.0625 16
832 2 -5.8169 -0.526981 -5.06233 12
833 2 -4.47689 -8.92148 7.29254 18
834 2 8.4876 -7.20837 13.0324 13
835 2 -4.85047 -2.41219 -6.90051 14
836 2 12.88 -4.28929 10.4102 15
837 2 13.372 -8.07795 -2.94896 20
838 2 -4.467 -0.705598 -8.95859 12
839 2 13.5152 3.03411 -5.11201 9
840 2 0.17751 -13.4301 0.730236 18
841 2 0.597023 9.64824 1.13664 13
842 2 3.72442 7.59328 6.30869 15
843 2 12.2925 -14.3794 -0.942287 16
844 2 9.76594 -13.7034 -6.60518 16
845 1 -2.57508 -5.77335 -1.02043 21
846 1 -3.30266 -8.06703 0.763812 22
847 1 3.2265 -10.5494 -1.87616 22
848 1 3.40065 -5.03194 -4.62662 19
849 1 0.312609 -5.4004 -2.98475 20
850 1 1.87125 -7.85959 -3.64354 21
851 1 -0.449905 -8.40318 -1.26174 21
852 1 3.79745 -5.24505 -1.67643 20
853 1 0.90553 -5.90473 0.315061 20
854 1 2.89675 -8.54228 0.341607 19
855 2 -2.73507 -6.18962 0.823708 21
856 2 2.80394 -11.297 -0.296382 21
857 2 -0.426977 -6.21316 -4.46953 19
858 2 3.25352 -8.64404 -4.88336 18
859 2 0.190557 -8.71187 -3.12697 21
860 2 2.37075 -5.58186 -3.00369 20
861 2 -0.416185 -5.71495 -1.34566 20
862 2 3.50981 -8.6867 -1.51122 19
863 2 0.873472 -7.83457 0.600769 18
864 2 2.80588 -5.42967 0.176988 23
865 1 -1.94732 -5.24918 2.53241 21
866 1 -1.48332 -5.75877 5.53169 22
867 1 3.61573 -11.6381 1.60132 21
868 1 4.3449 -12.0445 4.53925 20
869 1 -0.242868 -8.4526 2.27952 22
870 1 3.88997 -5.91423 1.62733 20
871 1 1.16276 -6.00033 3.63436 23