ITEM: TIMESTEP
12000
ITEM: NUMBER OF ATOMS
2000
ITEM: BOX BOUNDS pp pp pp
-30.0 30.0
-30.0 30.0
-30.0 30.0
ITEM: ATOMS id type x y z Coordination
1 1 -9.66774 5.99608 -16.6967 10
2 1 -1.44736 -4.28866 -10.2481 18
3 1 4.82368 15.2919 13.9562 9
4 1 9.85615 -6.61866 7.12154 10
5 1 -10.87 11.8831 -1.3972 17
6 1 12.6664 -9.14208 -7.25805 9
7 1 -9.21212 8.6875 -9.71903 18
8 1 0.650219 -5.32486 11.9888 14
9 1 -11.2246 0.492321 -10.9986 14
10 1 -13.6653 -6.21647 9.2678 11
11 1 11.2968 2.69377 -12.5817 17
12 1 -3.01215 -12.5791 2.46086 19
13 1 -10.757 -5.54089 1.9391 20
14 1 -3.79062 6.31951 17.0191 11
15 1 7.89601 -3.46262 3.79843 20
16 1 0.422618 5.4444 9.84754 21
17 1 -0.213815 8.91954 -12.0395 23
18 1 2.13203 2.81069 9.98126 21
19 1 -5.46426 2.44775 -17.4952 18
20 1 -10.9276 -1.22893 11.8115 17
21 1 14.5163 6.69032 4.07233 19
22 1 0.998258 11.6321 -12.4968 17
23 1 4.37387 6.20005 -14.5246 18
24 1 14.3695 5.80466 11.3784 16
25 1 -7.95323 -0.591737 1.26228 22
26 1 -9.29087 8.61555 -6.08885 21
27 1 -1.60173 -1.23103 -8.561 22
28 1 -10.1898 8.27519 7.69851 18
29 1 7.75976 -11.439 5.27707 13
30 1 3.16341 0.0264626 8.43413 20
31 1 -0.261395 -11.1977 -12.0931 13
32 1 11.3219 -11.3227 1.11924 10
33 1 -6.53446 -11.8945 -5.7168 10
34 1 -13.1078 -3.65591 11.4108 15
35 1 1.55494 0.735493 -15.2607 19
36 1 9.74753 -5.56023 -14.6555 13
37 1 -0.976115 5.4447 -18.8069 16
38 1 -0.564095 2.67897 11.0674 22
39 1 1.31238 -10.8164 9.14987 18
40 1 4.40861 -2.17752 12.2602 18
41 1 -14.0103 0.0819198 4.19865 18
42 1 -12.8712 3.51686 8.20907 18
43 1 -4.96312 2.62559 -5.53986 23
44 1 -1.06063 13.4038 -0.911755 19
45 1 -1.14661 -9.78323 -15.4888 9
46 1 0.268679 2.37519 -8.83557 18
47 1 5.65581 -3.13734 -11.864 21
48 1 -0.910759 -3.07757 11.4667 17
49 1 -11.2464 0.0224593 -0.541813 19
50 1 6.06552 12.7474 -12.9567 15
51 1 4.24374 14.869 6.91488 19
52 1 -7.04993 10.8223 -8.35988 23
53 1 2.38003 14.596 -1.32796 21
54 1 6.28964 -8.99727 3.22523 19
55 1 7.95652 -5.78144 -5.33028 17
56 1 7.48814 -2.52389 -18.8801 10
57 1 -5.66327 9.8366 3.89913 21
58 1 -10.3715 1.22863 -8.29565 17
59 1 8.93133 4.52111 5.23664 21
60 1 -4.00342 9.35969 -4.7346 19
61 1 -6.60575 -8.66277 5.55142 18
62 1 2.30187 14.6817 12.0995 13
63 1 -10.0272 6.1257 -5.2185 24
64 1 -3.32206 11.1127 10.3074 15
65 1 2.85116 7.52481 -6.62602 18
66 1 -2.42939 -15.3603 5.07285 13
67 1 2.23405 7.17476 6.53702 20
68 1 7.39198 -13.9939 -3.66319 14
69 1 6.90075 12.8851 15.085 12
70 1 -11.7145 5.73914 -9.81796 15
71 1 -9.08605 8.14045 -13.1875 12
72 1 6.13061 4.97768 9.83364 22
73 1 11.691 -0.409046 -6.94521 19
74 1 8.98503 -12.6701 2.27726 12
75 1 -15.5818 1.28713 7.25588 10
76 1 3.15748 18.7829 0.295727 14
77 1 7.15054 -2.45086 14.6818 11
78 1 -5.27105 -12.7699 6.36262 16
79 1 -9.41447 -3.54193 -0.521483 23
80 1 14.0463 1.39628 3.76411 16
81 1 9.04249 -2.50104 -3.94004 19
82 1 -0.14585 14.8822 9.64279 13
83 1 8.29915 2.36655 10.6346 18
84 1 -6.4856 -3.53535 0.705257 19
85 1 -4.55649 -5.95784 -9.68483 19
86 1 -10.2707 11.8635 7.04137 12
87 1 -6.74857 10.989 -5.50395 21
88 1 -4.05245 9.00444 -8.13021 21
89 1 6.24652 -0.750113 -6.82214 19
90 1 10.3225 15.1628 -9.81597 15
91 1 8.23629 -6.81093 1.90869 18
92 1 5.68597 -7.85639 11.5515 11
93 1 -3.05679 17.9824 -5.3703 13
94 1 -7.37252 16.0231 5.04782 14
95 1 -7.00302 -4.19398 13.9662 9
96 1 -3.33009 7.20303 2.95698 22
97 1 -3.61621 -7.42363 13.5058 11
98 1 13.1868 -4.82052 -7.17396 16
99 1 -10.1129 6.66785 2.00894 18
100 1 -5.48704 -11.8699 0.269374 19
101 1 12.8535 -7.84514 -4.78515 14
102 1 5.36801 2.89422 -8.77684 19
103 1 -7.15178 0.515455 -18.4818 13
104 1 -0.410676 15.8483 1.18567 19
105 1 -5.5493 6.89983 -12.3001 22
106 1 3.52528 9.90989 18.2414 10
107 1 3.54814 11.4214 -6.98962 22
108 1 -11.6218 13.7484 1.00542 10
109 1 1.73308 9.61147 1.09387 20
110 1 -4.12554 -10.3131 11.5515 15
111 1 14.5678 3.36464 9.66839 16
112 1 1.05522 -3.33395 -8.76546 22
113 1 5.94886 -3.16822 -8.73694 18
114 1 0.401314 4.51665 6.62287 18
115 1 7.4024 -0.435914 12.7232 19
116 1 -8.94303 -3.7149 -4.39305 21
117 1 5.55559 -5.666 3.28496 20
118 1 -9.40695 -8.61539 -3.4901 16
119 1 10.9782 -9.91892 -1.42213 14
120 1 -0.440522 6.89158 5.03637 20
121 1 8.08922 9.59943 -13.7815 20
122 1 9.84885 17.475 -8.38064 14
123 1 -6.17372 -15.2808 10.6399 10
124 1 -7.50914 -13.1721 8.75959 19
125 1 3.01492 -6.40134 -18.9929 10
126 1 5.97873 5.35055 -3.73375 23
127 1 12.5894 -7.10085 -2.11217 13
128 1 -0.267798 -15.606 7.74952 11
129 1 -8.50743 -9.17388 3.47069 20
130 1 16.3013 9.32224 9.96261 10
131 1 13.1388 0.920564 -10.0336 16
132 1 -13.9863 -5.62048 3.40311 16
133 1 9.32945 13.1245 5.62 27
134 1 15.6093 10.1516 4.21498 14
135 1 -7.63416 6.51571 15.3459 10
136 1 5.63629 10.8029 -4.02412 20
137 1 -3.84178 8.53016 8.4967 17
138 1 -4.47914 15.461 -3.47859 22
139 1 4.33126 -0.569348 -15.3509 18
140 1 8.14602 -11.99 -10.8995 9
141 1 -0.00748999 14.5609 -11.4199 11
142 1 6.65023 -0.514398 9.14731 21
143 1 1.26176 3.95896 -20.5798 8
144 1 0.557872 12.8314 -4.43789 20
145 1 12.5695 2.22635 -4.5282 19
146 1 -8.87689 10.4881 -2.84019 22
147 1 -8.42962 16.469 -3.94651 10
148 1 7.64974 2.08341 -11.7815 20
149 1 7.59414 -7.86348 5.65389 14
150 1 -4.46471 5.57309 -7.05346 18
151 1 -5.64221 15.7383 7.85602 11
152 1 13.6112 10.1006 -9.33225 17
153 1 7.86929 15.0371 -7.40685 23
154 1 -3.26382 18.3597 -1.79222 16
155 1 15.275 9.20021 -1.91135 21
156 1 -2.73344 12.7372 -3.69221 18
157 1 4.5988 15.0543 -8.47674 20
158 1 8.71723 9.88297 -16.1598 13
159 1 -11.985 -8.74166 7.47198 14
160 1 -10.1824 12.8437 -3.68437 13
161 1 -6.1694 -1.10977 -15.5668 15
162 1 1.46612 -2.84014 -19.2728 13
163 1 7.24837 15.5585 7.48151 19
164 1 -0.46893 19.6265 -0.413751 12
165 1 -9.65139 -0.350183 -5.25016 20
166 1 -9.92234 15.2874 -1.47858 14
167 1 14.2802 3.32592 -1.95449 17
168 1 -8.2714 3.60397 -16.0449 22
169 1 7.18176 2.09682 14.5224 16
170 1 6.81244 19.1937 -0.0978253 14
171 1 -2.2291 9.60719 4.49775 22
172 1 4.89877 -4.09562 -17.9103 15
173 1 -2.79967 16.9072 7.42544 10
174 1 -1.9238 14.5942 -6.14517 21
175 1 2.67563 -0.318553 11.5382 22
176 1 -7.69067 -6.40925 1.24795 20
177 1 -3.65439 -7.62101 -15.6172 10
178 1 -3.96308 15.6028 -8.28394 13
179 1 -2.34702 -11.864 5.27487 16
180 1 2.8846 -13.0004 -4.01642 16
181 1 -2.25659 12.6061 -12.3457 12
182 1 -12.2707 2.30175 10.9502 12
183 1 4.20662 10.8434 -0.852274 22
184 1 11.7574 10.3647 -4.10702 17
185 1 -2.7025 5.37677 14.2384 18
186 1 -0.0488133 -7.64538 9.28939 22
187 1 -12.5466 2.97442 -2.09515 19
188 1 1.11213 17.5149 -1.22088 16
189 1 2.25237 9.69212 8.79263 19
190 1 14.1582 7.68512 13.9075 11
191 1 -6.1165 14.9754 2.19921 22
192 1 13.7206 -4.57163 -10.2675 12
193 1 -2.69508 13.817 8.24229 17
194 1 -2.15925 4.6292 -8.63489 20
195 1 13.7532 -4.95644 -0.416273 13
196 1 -6.65776 -3.65611 4.24394 22
197 1 -11.7991 1.69773 3.82289 19
198 1 -7.2655 -10.8287 7.32124 22
199 1 6.87342 7.86088 10.8488 19
200 1 -15.9378 1.1826 -1.76526 11
201 1 0.728496 -13.8816 0.24104 17
202 1 5.84507 -5.85815 -0.195932 18
203 1 0.732993 14.8954 3.57298 19
204 1 -9.0292 1.9917 2.37943 21
205 1 6.04851 14.6299 10.6996 19
206 1 -10.295 2.96405 -5.66511 20
207 1 -6.35976 13.8672 -9.36467 13
208 1 -13.2568 -4.38368 -3.90905 13
209 1 -9.26777 -2.42259 8.88845 25
210 1 0.749446 -8.80729 1.7121 18
211 1 4.38913 -11.68 6.9456 13
212 1 -8.96142 14.9546 2.22447 15
213 1 16.2183 3.93068 3.83187 11
214 1 7.7878 1.1288 -8.26157 17
215 1 -4.50141 -4.40287 -14.927 14
216 1 5.10315 2.04291 11.8885 19
217 1 6.1222 -16.0795 1.24711 12
218 1 -2.324 6.73797 -13.5753 24
219 1 3.77684 -6.88846 -15.9419 17
220 1 7.62952 4.64903 -15.8232 17
221 1 5.22926 9.55172 -15.3923 14
222 1 -7.37363 -1.52132 -6.13973 19
223 1 0.490935 18.6172 -6.32986 9
224 1 -6.8509 -7.60623 8.94111 20
225 1 12.2882 16.2683 -5.8247 14
226 1 -4.72041 5.30649 11.5344 18
227 1 -7.25076 13.961 -3.95519 22
228 1 8.48328 1.45022 6.33048 19
229 1 -3.57148 -2.06121 -14.6048 16
230 1 -3.41963 11.4198 -7.55438 20
231 1 2.36827 7.23287 -10.4407 22
232 1 -3.52135 -8.29718 9.68004 18
233 1 -11.6783 3.65505 5.89682 19
234 1 -8.52226 5.26951 7.08629 22
235 1 -2.18232 -10.2221 -7.01007 21
236 1 -1.37865 -10.5813 -0.496562 19
237 1 7.65512 -10.1703 -3.00527 17
238 1 8.80713 11.3453 13.9221 18
239 1 7.45651 9.72425 -10.6944 21
240 1 1.08181 12.1793 -2.00486 16
241 1 -8.23529 2.06084 -0.993926 20
242 1 -8.492 13.416 -6.92457 15
243 1 3.69408 7.66335 10.3766 19
244 1 2.37126 -17.3561 1.53369 10
245 1 12.8855 -0.158717 -1.67849 18
246 1 3.54216 9.67918 4.64722 22
247 1 -6.90712 6.71764 3.74512 22
248 1 -10.9296 -5.52636 -3.52506 24
249 1 11.0186 7.44151 -9.15715 20
250 1 5.51471 2.72795 8.37805 19
251 1 10.9697 12.426 -9.8929 18
252 1 3.09594 -7.00818 -1.53169 19
253 1 -1.23646 1.11427 -13.4972 18
254 1 1.91203 -11.7253 5.40282 22
255 1 9.93118 2.80928 -6.5956 19
256 1 -10.7124 0.0338581 6.10158 23
257 1 4.83635 -15.3234 -0.940563 16
258 1 -9.94715 -4.23542 -9.568 13
259 1 8.37776 15.0663 -4.49286 23
260 1 2.23666 -1.62115 -13.2693 17
261 1 6.59036 4.62651 12.4205 19
262 1 14.0714 4.74591 1.28746 14
263 1 -5.18605 -6.46627 3.26145 22
264 1 10.5525 -0.321597 -12.1782 20
265 1 -1.24426 -9.52146 7.35911 19
266 1 -9.04245 0.217943 -13.5692 14
267 1 -7.74709 3.56477 -9.33122 16
268 1 -2.77701 -15.7198 9.11611 10
269 1 9.11435 -5.01626 12.7145 10
270 1 4.91858 -2.86528 8.74327 19
271 1 -4.72665 -7.26213 -12.6959 13
272 1 2.24932 -3.60144 6.37233 21
273 1 2.3861 9.19524 -14.3153 18
274 1 6.528 9.60578 2.85424 20
275 1 -9.00447 -8.04559 6.79351 21
276 1 1.7358 12.7545 1.02951 22
277 1 -6.55752 -2.77822 11.1481 20
278 1 -7.00102 -7.63036 -7.98936 13
279 1 -2.1904 -1.15891 -12.1514 19
280 1 -4.86767 7.57627 -14.9757 18
281 1 -3.17953 -9.56315 -10.2811 16
282 1 -2.41082 -6.66836 1.83702 19
283 1 8.46541 -2.86749 -13.1127 16
284 1 14.7902 4.01098 -8.57421 14
285 1 11.1712 1.91283 5.29384 19
286 1 -7.60172 -4.84887 9.7085 20
287 1 -4.05549 -9.04037 -1.04892 17
288 1 6.00969 4.37719 16.3989 14
289 1 -3.04333 -18.3612 0.156752 8
290 1 2.23562 -10.5262 -0.876649 18
291 1 -1.34484 15.3682 -2.81878 19
292 1 9.17772 2.20089 -14.3735 21
293 1 -6.65706 -2.97799 -17.6028 7
294 1 -12.0885 -7.056 11.3294 10
295 1 4.58753 6.9213 17.3471 15
296 1 4.17221 -9.82455 0.861391 22
297 1 -1.51884 -7.15326 -8.58087 21
298 1 -9.60364 5.55954 -7.60438 19
299 1 10.2601 9.66889 5.45156 19
300 1 -6.74078 3.34123 -12.2499 18
301 1 0.924135 6.13772 -13.2161 23
302 1 -3.61519 -3.27453 6.10367 22
303 1 6.06219 -8.93508 -11.7027 20
304 1 -5.8737 18.6551 -3.44587 10
305 1 1.17205 19.5427 2.66831 10
306 1 11.8435 -2.021 9.64402 24
307 1 -7.93151 -0.473997 4.40899 19
308 1 -3.29315 -2.64631 9.46317 20
309 1 -1.09913 12.8733 6.19036 16
310 1 1.5456 -5.70203 -17.1871 15
311 1 13.1958 8.12921 -4.16926 19
312 1 7.22461 -10.5141 0.836156 20
313 1 -3.18371 0.0882707 14.9597 13
314 1 -14.1293 -1.33672 6.85796 18
315 1 1.85752 -15.2402 -6.58278 9
316 1 -7.04493 8.60882 9.76349 15
317 1 -10.096 7.63972 13.0536 12
318 1 -13.9945 -0.554069 10.0924 15
319 1 -15.3938 -3.30056 9.01643 11
320 1 9.11825 0.187271 -5.38857 21
321 1 -10.4783 -5.72966 8.45576 20
322 1 11.6982 -2.84989 -9.60038 20
323 1 12.0801 -10.7187 -3.80463 10
324 1 6.66451 17.808 -7.41142 14
325 1 -6.31778 10.8804 -2.37155 19
326 1 11.6163 7.25707 12.321 23
327 1 -10.8397 -0.725617 2.44661 21
328 1 8.51105 -9.73862 -6.75513 15
329 1 -2.3341 10.3953 1.77742 18
330 1 -5.28588 4.48649 2.86016 21
331 1 5.95608 -9.03147 8.29836 11
332 1 12.8924 -4.22145 7.52738 14
333 1 -0.775322 7.92599 8.23661 19
334 1 -10.1881 -6.49694 -6.9035 16
335 1 -3.23215 2.97474 16.3543 15
336 1 -2.50756 14.5559 2.04283 17
337 1 8.05137 7.96132 13.9658 19
338 1 -5.93279 16.3152 -5.91031 15
339 1 -1.23322 1.39895 -20.1188 15
340 1 -4.98426 2.62221 -9.13279 20
341 1 7.0224 -5.97708 -16.6877 11
342 1 -8.01107 6.40589 12.0309 17
343 1 -16.4115 4.4893 0.0200751 6
344 1 -4.77345 -3.08276 -8.32641 20
345 1 -4.67494 13.3392 -0.788249 20
346 1 9.41782 -1.33292 7.50998 21
347 1 -13.2934 -10.2965 5.00766 10
348 1 7.49034 -3.99118 8.07214 20
349 1 -9.29041 -7.37614 10.9513 16
350 1 -8.83155 7.58468 -2.4664 20
351 1 -2.45716 -0.0128327 7.60826 20
352 1 5.72077 -9.21674 -8.07279 19
353 1 -4.69125 -0.0240727 -10.1617 18
354 1 9.7265 6.26855 -15.0268 22
355 1 4.9415 19.1297 2.56179 13
356 1 -7.80759 1.17082 -7.2927 21
357 1 3.28928 -4.29796 -14.1325 19
358 1 10.1152 5.18413 -11.7246 18
359 1 0.571381 -12.0312 -6.5843 19
360 1 -13.3631 -7.04547 -2.66733 14
361 1 -2.05733 -6.70649 -1.71358 19
362 1 10.6261 6.5924 15.0752 17
363 1 14.6469 3.85017 -5.20057 18
364 1 -6.33845 1.29724 -14.8402 22
365 1 6.06304 19.5606 -5.33705 7
366 1 -13.251 -1.51485 -5.89326 13
367 1 -7.72129 10.8335 6.42575 16
368 1 -8.57616 9.65252 0.164005 21
369 1 -3.70455 7.20005 6.22396 21
370 1 11.4129 4.71719 10.3563 20
371 1 9.18936 -1.8667 -7.94629 16
372 1 10.0971 -1.91079 13.5565 16
373 1 12.3595 4.80205 -10.2871 17
374 1 -0.293207 -16.7596 -4.14298 10
375 1 0.646852 -5.99218 -6.73261 19
376 1 -0.202916 12.2567 3.6293 18
377 1 -13.7506 0.357928 -3.50092 19
378 1 5.54141 -8.77231 -1.78929 20
379 1 15.3853 1.53759 6.89991 16
380 1 -7.43071 1.91615 -4.41293 21
381 1 -5.29365 -5.98834 6.05989 17
382 1 -9.60316 -6.43677 13.7039 9
383 1 -3.89245 12.2507 3.22498 17
384 1 -9.15407 -8.8577 0.312142 16
385 1 9.40025 10.7053 16.6028 11
386 1 -6.9933 7.92091 -4.18163 20
387 1 -0.123861 12.2868 -7.4028 15
388 1 8.60253 15.3668 3.61876 17
389 1 -13.5334 -7.34638 0.80781 15
390 1 0.0627375 -9.02942 -5.97817 22
391 1 -11.333 0.391496 8.7259 20
392 1 -11.1623 9.08084 -3.99893 16
393 1 2.36715 -9.05937 3.86361 21
394 1 -3.15723 -15.2538 -3.811 10
395 1 11.651 12.5957 7.9667 15
396 1 11.7385 10.0366 -14.6176 14
397 1 -7.47302 5.91521 -14.3092 20
398 1 -0.570357 16.4213 -8.6975 15
399 1 -5.62082 5.90094 -9.64924 22
400 1 -0.142231 -11.5653 2.02009 23
401 1 12.7813 9.43836 2.93963 21
402 1 -0.241577 11.5812 -15.1576 10
403 1 -3.59888 2.37255 6.07184 18
404 1 -14.1136 0.1677 1.36314 18
405 1 -9.067 4.72921 3.64996 21
406 1 -7.85852 -13.5546 5.9444 15
407 1 3.08462 -3.94136 -7.13251 20
408 1 9.91417 -5.66823 -11.0076 13
409 1 -11.4243 2.73636 0.948695 20
410 1 -9.53995 2.13464 12.7683 13
411 1 -9.69882 7.85024 4.87419 20
412 1 -0.82493 -2.87797 7.79939 19
413 1 -10.0319 2.80298 -18.1292 11
414 1 8.07556 -7.02901 -8.92819 18
415 1 1.12685 -5.7124 -11.0583 20
416 1 -3.94064 -3.55028 12.6703 15
417 1 3.13194 -7.20031 -5.53548 20
418 1 -4.79432 4.43791 -14.7992 27
419 1 5.44478 -12.7038 1.63272 20
420 1 7.06519 10.4842 -7.19841 21
421 1 -12.0483 10.0109 5.08554 13
422 1 -6.03466 0.816787 16.1189 13
423 1 -9.40895 -2.18287 -11.7032 14
424 1 -9.40057 -2.77229 5.90928 23
425 1 7.84859 -6.70741 9.72229 14
426 1 8.38369 5.4474 -1.83335 21
427 1 5.91178 2.15934 -14.389 20
428 1 10.2035 -5.46173 3.6584 13
429 1 16.8215 11.6922 -5.36601 12
430 1 -1.97869 6.22155 11.3288 20
431 1 3.63764 13.0763 -4.40732 18
432 1 8.0972 -3.01535 10.3317 22
433 1 -4.56515 -8.91182 -6.30725 19
434 1 0.536437 10.1939 14.7528 19
435 1 -1.91376 17.1429 4.07053 14
436 1 -5.0294 -11.7494 -8.22524 10
437 1 9.59707 16.5392 0.476808 21
438 1 5.59211 9.66231 8.03812 22
439 1 -5.94905 5.83156 9.04416 20
440 1 -5.35585 -8.43733 -3.65336 19
441 1 -9.70771 6.5997 10.2055 16
442 1 -7.90641 -4.8107 -7.29582 20
443 1 -5.72529 12.9026 8.18517 15
444 1 -4.18953 -6.05774 -6.48588 21
445 1 1.91903 -9.33133 -17.0502 10
446 1 -7.4922 -11.7492 3.66428 18
447 1 -4.65662 -0.0585279 4.76029 16
448 1 10.6252 3.84544 7.70685 15
449 1 -6.58367 -6.80576 12.5017 16
450 1 -6.66093 9.76319 -13.1057 12
451 1 7.6804 8.5776 -0.948311 18
452 1 -8.96265 -12.0841 0.260693 11
453 1 0.637633 5.32233 -6.91443 20
454 1 -3.59281 15.9196 -0.33753 19
455 1 0.164523 8.32441 -8.80168 18
456 1 -0.179958 8.76221 10.813 19
457 1 -12.3125 -2.79995 1.15238 22
458 1 1.82498 16.3117 -4.0425 20
459 1 8.62621 12.5468 -8.6936 20
460 1 -7.33981 -1.63341 -9.30789 18
461 1 0.508442 3.89245 16.1593 17
462 1 3.16623 -10.024 -10.5095 19
463 1 6.28436 -2.94443 -15.1925 20
464 1 6.58863 -12.2626 -1.03402 19
465 1 -11.5006 10.3818 1.46076 17
466 1 3.37561 5.24372 15.0386 19
467 1 12.5107 9.37774 -1.08384 19
468 1 4.90766 14.0452 0.590099 19
469 1 -4.76281 11.6322 -10.9968 19
470 1 2.5566 4.57542 -8.57245 23
471 1 2.73793 -5.98856 4.92903 22
472 1 -14.0992 -1.99294 -1.74652 17
473 1 2.91592 17.6147 3.94666 13
474 1 -1.57096 4.01396 -14.173 23
475 1 10.1704 9.74181 1.23338 24
476 1 5.41695 16.1515 -11.4854 10
477 1 8.38603 -4.28709 -0.311533 14
478 1 16.083 11.0966 0.243296 14
479 1 0.716288 -0.86316 -10.6219 22
480 1 -3.17478 -9.90153 1.91925 22
481 1 0.136591 -12.3541 6.8117 18
482 1 1.91435 -8.16334 11.6986 12
483 1 -8.60765 5.86588 -11.2497 19
484 1 -10.4764 -11.557 7.12503 14
485 1 1.18223 -12.8163 -9.48171 14
486 1 9.62394 16.7003 6.49903 14
487 1 2.62018 1.92106 -10.1455 19
488 1 4.02087 -0.231545 14.034 15
489 1 -12.099 5.9965 8.84996 14
490 1 0.150259 -18.5488 -1.47272 10
491 1 -9.37736 -3.40487 2.67351 20
492 1 14.4327 -2.04036 -5.57203 16
493 1 9.69984 0.00896736 -2.34221 19
494 1 -5.05507 5.7151 -4.02658 20
495 1 2.20475 -6.47573 -8.81137 21
496 1 2.91496 4.59593 -11.7977 19
497 1 11.4048 -3.25153 -5.38636 21
498 1 -2.60312 0.0641573 11.4461 21
499 1 10.2131 19.255 -0.20644 8
500 1 -1.04827 -0.0680458 -18.0043 20
501 1 8.68584 2.53775 -17.2858 14
502 1 -5.96448 -2.33003 7.56996 22
503 1 -6.92443 15.8265 -0.811448 19
504 1 -11.6772 2.90006 -15.7929 11
505 1 -14.2315 3.20404 5.19627 13
506 1 -1.43918 -7.56812 -17.9543 11
507 1 -6.83697 -12.6517 12.2554 10
508 1 1.97516 10.982 -9.76392 17
509 1 15.7724 5.03149 7.24762 14
510 1 12.1356 7.10137 0.8558 16
511 1 -7.14904 -13.3787 -2.17907 11
512 1 0.347264 -8.1391 -2.95121 22
513 1 -2.13631 -3.15568 -17.0488 16
514 1 -8.78684 14.7185 8.81289 6
515 1 2.86526 -3.35696 -10.6293 24
516 1 12.0906 -0.72873 -4.00397 21
517 1 5.97224 13.2537 -6.11289 20
518 1 9.51119 -9.16149 2.77558 17
519 1 15.8944 9.21741 -7.41499 14
520 1 5.47416 7.13846 13.9795 21
521 1 -9.12099 2.36095 5.93808 19
522 1 8.45003 15.9343 10.0676 11
523 1 9.74302 0.384084 15.0325 10
524 1 2.23766 3.43428 -15.0063 21
525 1 -5.28219 -3.46114 -5.47319 18
526 1 -0.00698819 -0.35817 9.5967 22
527 1 6.89722 12.1964 7.93456 23
528 1 5.5393 6.2264 -10.2683 19
529 1 -8.47881 11.3425 -11.1237 14
530 1 1.79564 14.6998 -6.85253 19
531 1 12.3567 -3.99205 11.8853 11
532 1 13.0769 5.64608 -13.5001 14
533 1 9.88977 -8.38007 -3.81421 18
534 1 7.62015 12.2801 11.1759 21
535 1 -15.1534 -4.43467 0.637896 12
536 1 -2.95158 13.6715 -9.58144 19
537 1 -0.586265 2.34817 8.06826 21
538 1 -8.55796 -0.0350147 11.0727 22
539 1 -1.32255 10.6334 -9.80992 23
540 1 6.51734 -8.73748 -5.50479 19
541 1 6.08608 0.00893487 -10.4048 17
542 1 -0.164377 18.184 -3.51609 13
543 1 -9.66576 0.350809 -16.8076 14
544 1 5.07294 -11.4739 3.87787 18
545 1 -12.6172 -4.67187 -0.931336 20
546 1 3.5502 11.6336 -15.3914 10
547 1 -8.08757 4.41993 -3.24412 19
548 1 0.341174 5.1193 13.0726 23
549 1 -11.3374 -5.57702 5.60732 24
550 1 4.93315 7.81748 -2.46497 20
551 1 0.522307 -9.27138 -9.09569 22
552 1 3.54736 -5.48264 13.0223 11
553 1 8.43898 3.1757 -3.3784 21
554 1 -8.30705 9.74322 3.13055 20
555 1 3.71837 12.3381 15.6968 13
556 1 7.96184 17.5649 -10.7086 10
557 1 10.3706 -6.41284 -6.75762 19
558 1 4.8946 11.1829 10.3228 22
559 1 2.73461 8.17758 -17.0896 13
560 1 -3.45396 -13.6688 11.3042 12
561 1 0.143784 5.48717 -10.2468 23
562 1 4.27522 -1.39887 -17.9537 13
563 1 6.71021 13.3148 2.72239 21
564 1 11.9737 4.97874 -7.09006 22
565 1 3.7671 0.989732 -12.4519 20
566 1 -2.47704 -9.57396 -3.61671 21
567 1 -10.8183 -3.43487 -6.50048 18
568 1 7.7699 7.38526 1.55148 19
569 1 18.5906 8.47377 -0.885115 9
570 1 4.95218 -6.06495 -10.2469 21
571 1 13.8278 9.2375 11.2016 15
572 1 5.67092 -6.40524 -6.84663 18
573 1 -0.152354 5.21832 -16.1555 20
574 1 6.52756 16.6452 1.06589 19
575 1 -8.07895 4.73408 0.499701 21
576 1 12.9391 9.20598 16.8631 7
577 1 10.8294 7.67071 -6.08005 19
578 1 13.933 -1.7117 1.25396 14
579 1 15.0908 6.87813 -10.0657 13
580 1 8.9448 5.82169 12.2658 22
581 1 17.387 5.79132 9.90746 9
582 1 2.16658 -8.88425 6.69553 23
583 1 14.1954 11.9463 -3.41386 16
584 1 2.28627 2.27842 13.4793 21
585 1 14.3951 1.1835 -7.28155 14
586 1 13.1779 6.5467 8.88671 18
587 1 -7.71917 0.962085 -10.8131 20
588 1 10.9138 6.94038 3.48085 21
589 1 10.7705 -3.89412 5.93082 18
590 1 -7.48067 9.06296 13.6368 11
591 1 9.24754 10.1507 8.21852 21
592 1 12.1951 1.87291 11.2184 18
593 1 3.35853 13.6925 3.71595 20
594 1 2.97818 13.1073 9.35776 21
595 1 6.29042 4.90814 6.5191 19
596 1 -0.855329 -16.4237 1.73497 17
597 1 -5.21359 13.3106 -6.40842 22
598 1 13.5168 13.8963 -8.25617 12
599 1 11.9917 0.177263 -15.104 12
600 1 4.48305 16.8428 -1.572 18
601 1 2.91435 -10.03 -6.94115 16
602 1 13.4819 -1.42139 -11.9876 13
603 1 -12.7832 5.27643 2.79523 15
604 1 -2.99481 4.59602 -11.5991 24
605 1 -2.2628 -13.0549 -0.289211 19
606 1 -3.71653 1.69281 -12.9693 18
607 1 -14.7016 1.73884 -6.68218 9
608 1 12.1256 -7.89116 0.966549 9
609 1 13.0047 11.7129 5.72181 18
610 1 -0.0596209 -6.47034 5.9738 20
611 1 -12.6139 3.56859 -12.2538 10
612 1 0.859498 2.76618 -18.0751 17
613 1 -1.04108 2.22476 14.0839 19
614 1 9.64463 11.7819 -13.2303 14
615 1 14.7118 0.409854 10.6466 12
616 1 8.26509 7.82552 -8.20823 20
617 1 11.6359 12.6966 3.1868 19
618 1 3.28933 -9.09564 -13.818 15
619 1 -8.74975 -0.308409 14.3285 10
620 1 11.98 -0.0564349 3.13844 16
621 1 -1.94693 10.9452 16.032 9
622 1 7.6302 14.055 -11.3258 15
623 1 -12.1056 8.13918 -7.00275 13
624 1 7.25284 11.1355 0.0998506 20
625 1 -11.0186 -11.5128 3.8105 11
626 1 13.204 -3.11019 4.10965 13
627 1 8.55494 19.1903 2.21324 11
628 1 -2.83942 5.20745 8.06886 22
629 1 -11.2014 -7.86654 -1.23254 18
630 1 -6.40998 -1.39994 -12.6642 17
631 1 12.5978 -1.15781 12.3579 16
632 1 -2.16653 -5.55278 11.1416 18
633 1 9.45879 6.55618 9.4342 17
634 1 -8.03313 12.9868 -0.446285 24
635 1 9.07194 4.56875 1.98816 14
636 1 11.6874 4.38837 3.50224 19
637 1 9.42527 7.07542 -17.7798 12
638 1 -8.32727 0.0176839 7.83643 22
639 1 7.20684 -0.354294 -13.5305 20
640 1 -1.73984 -4.40964 -7.11931 19
641 1 9.82047 -9.04123 -9.56107 13
642 1 11.3859 6.43365 6.45348 21
643 1 6.10023 5.61206 2.75168 21
644 1 -5.84192 4.38308 14.2299 18
645 1 11.2471 11.5752 11.4203 14
646 1 1.66284 -2.73863 13.6729 13
647 1 -0.0112636 11.6295 9.83367 18
648 1 -0.188526 -3.59523 -12.4772 20
649 1 -6.78816 3.20781 10.6749 20
650 1 9.7848 2.90984 12.8413 22
651 1 -6.11251 -16.1696 7.75493 11
652 1 17.7348 11.2236 -1.90847 12
653 1 4.78916 -11.8764 -10.0803 13
654 1 -1.66068 7.46665 -6.69528 19
655 1 11.375 13.4318 -4.01216 19
656 1 11.3952 17.0695 3.41952 11
657 1 2.34752 5.95256 -18.0261 11
658 1 5.60671 16.2711 -5.02123 22
659 1 9.67456 13.0269 0.605699 18
660 1 -6.0246 -9.1147 1.47969 18
661 1 -2.72927 4.17031 -20.9321 11
662 1 -10.2858 13.7356 4.80403 10
663 1 6.12507 -6.10721 -13.6621 18
664 1 8.10554 7.75783 4.9872 21
665 1 13.5762 8.79649 -12.3828 10
666 1 12.8534 15.2308 -2.33957 12
667 1 -6.66501 7.94914 1.1225 21
668 1 7.841 8.39826 -4.52596 19
669 1 12.3103 4.49313 13.7334 18
670 1 12.4745 1.1964 14.2116 12
671 1 -1.5879 -10.814 10.6717 15
672 1 -3.38304 9.62329 -12.3797 19
673 1 4.9989 12.8449 12.948 17
674 1 11.4377 -3.09296 -12.5946 16
675 1 2.90247 5.49418 8.3899 18
676 1 10.8995 14.2159 -7.30774 21
677 1 8.56952 11.347 3.35033 19
678 1 13.7064 -4.90893 -3.60554 16
679 1 8.01657 7.31258 17.3568 12
680 1 -12.2443 -2.47118 4.29827 23
681 1 2.56766 -12.411 2.30466 22
682 1 3.50322 -0.836361 -8.77742 19
683 1 -7.92211 18.2479 3.11462 8
684 1 2.47263 7.07924 3.13453 23
685 1 4.92267 -6.02941 -3.51456 19
686 1 4.10995 11.2078 1.98409 21
687 1 -14.9772 -2.79208 3.09972 17
688 1 3.73041 8.87392 14.945 22
689 1 -4.23122 5.95337 -19.2608 12
690 1 -5.55149 9.06502 -18.4881 6
691 1 5.68206 -11.7557 -4.32682 22
692 1 10.8921 10.2811 -7.76093 19
693 1 5.14216 -3.74164 5.59053 18
694 1 -0.626087 7.41881 1.35 21
695 1 -11.7266 4.59236 11.6636 13
696 1 7.44544 -0.497397 -16.4744 21
697 1 3.31856 -8.44986 9.24913 14
698 1 3.07698 16.1686 1.44111 23
699 1 -3.50229 2.27384 12.719 19
700 1 -7.14626 -5.12329 -10.696 14
701 1 -3.73163 -5.20524 -18.508 13
702 1 -2.87147 -12.9201 -6.50903 13
703 1 2.22026 16.3244 -9.67719 12
704 1 5.64443 -3.38891 -5.23228 19
705 1 0.839235 14.7765 7.08734 16
706 1 9.30172 -8.57118 -12.0313 12
707 1 7.75505 -15.7082 -2.0197 12
708 1 1.9488 -5.48857 8.454 17
709 1 16.6501 5.91983 -6.62926 13
710 1 6.54262 -12.5315 -7.27573 13
711 1 -12.0439 -2.81934 7.83472 23
712 1 -1.68802 -15.9569 -1.34378 18
713 1 -7.48909 -6.65326 -4.84678 19
714 1 -9.36444 2.7332 9.12471 21
715 1 -4.5952 -14.755 -0.297935 17
716 1 17.6452 8.96672 -4.38687 12
717 1 -4.95579 18.286 3.50637 12
718 1 -5.36619 4.99433 5.97735 19
719 1 -11.8767 8.70318 -1.21334 16
720 1 10.1468 0.686071 0.691872 20
721 1 -11.5598 -1.90187 -8.96227 13
722 1 2.88936 10.3133 -3.6088 20
723 1 8.17508 4.44237 -9.38919 19
724 1 9.25725 13.5828 9.19112 18
725 1 8.55191 5.63784 -5.44218 18
726 1 -12.841 4.63517 -7.4033 16
727 1 -13.0019 -6.64 -6.22563 11
728 1 1.32874 7.57438 13.0617 24
729 1 4.86109 8.18612 -12.6231 21
730 1 11.9753 14.7697 5.18855 12
731 1 -3.60202 2.53043 9.4594 20
732 1 0.23063 -11.3726 -2.96415 18
733 1 -5.84897 -15.0441 4.67935 12
734 1 -4.95489 -5.20464 9.78429 21
735 1 11.418 9.49248 14.2613 17
736 1 3.51204 -6.87968 -12.1764 21
737 1 -5.60038 8.40195 -1.82286 21
738 1 5.23075 7.57807 4.90778 20
739 1 -9.01023 -6.18562 4.33407 20
740 1 10.8994 9.80707 -11.399 18
741 1 3.73658 -13.1067 -7.1462 16
742 1 1.40289 -16.7517 4.51539 11
743 1 3.44005 -12.7871 -1.31736 21
744 1 8.29659 7.3526 -11.5404 18
745 1 9.45118 18.2543 -4.90643 11
746 1 -3.01348 0.633564 -15.6414 18
747 1 -0.00165456 -0.380831 13.0012 18
748 1 -2.45887 3.03932 -16.7238 18
749 1 -10.8824 5.59329 -13.4836 14
750 1 -8.30633 -0.660867 -2.08053 22
751 1 3.26475 17.6229 -6.62649 15
752 1 8.64562 -1.76248 1.34717 15
753 1 -2.1274 -2.17039 -19.8567 11
754 1 -5.24923 -6.14025 -0.536584 19
755 1 13.8774 6.85895 -7.07854 23
756 1 11.3803 -2.92916 1.7097 17
757 1 -1.56441 9.8457 12.6861 22
758 1 4.76305 -7.29638 5.58711 17
759 1 15.0312 -2.25197 -2.18338 15
760 1 11.9697 1.14417 8.33141 23
761 1 3.22169 11.7229 6.75791 19
762 1 -8.69664 2.92322 16.0614 11
763 1 -4.85151 9.09749 11.7231 13
764 1 0.00683686 -14.1394 10.2345 10
765 1 8.42478 1.93066 2.90682 22
766 1 5.93202 9.89159 13.0034 21
767 1 -16.1047 -1.01704 0.411299 10
768 1 8.80594 -7.92984 -0.512159 19
769 1 -10.6811 11.2751 -8.16021 10
770 1 4.74182 8.18793 1.30206 25
771 1 2.32298 -14.7266 6.28295 12
772 1 3.35415 2.39142 16.4186 9
773 1 0.286955 17.611 5.87298 13
774 1 -1.06303 -9.26062 4.52482 23
775 1 -5.99093 -3.40799 -2.3737 20
776 1 3.28251 5.35074 11.829 21
777 1 -11.0235 -2.54128 -3.10415 22
778 1 0.29293 9.5766 18.1377 9
779 1 7.38419 16.7068 -2.52211 19
780 1 -10.0679 -10.215 9.49384 14
781 1 -3.98614 -16.0814 2.40919 13
782 1 10.0293 -4.57122 8.96032 19
783 1 14.6319 -3.19326 10.1966 10
784 1 6.43446 9.9309 5.70056 20
785 1 -0.565055 9.58996 -4.62679 18
786 1 1.11085 -6.48274 -14.261 17
787 1 -1.8432 1.99293 -10.8567 23
788 1 -5.16982 -0.0168669 9.88439 19
789 1 -3.07433 19.0234 1.79637 10
790 1 13.4637 1.68163 0.742717 14
791 1 4.84474 8.57226 -8.51496 20
792 1 -0.611746 12.4656 12.2951 13
793 1 9.08975 9.70476 11.1882 22
794 1 9.50175 -2.50272 -15.8662 16
795 1 -4.68782 -11.8252 -2.61103 19
796 1 -4.57888 -0.331075 -6.96556 24
797 1 12.2928 -0.865304 6.44683 21
798 1 7.21988 5.04603 -13.1102 20
799 1 -0.974659 7.47772 15.3409 20
800 1 12.0691 -6.84985 -9.14335 13
801 1 11.4671 9.76486 -17.6875 8
802 1 -1.70236 -7.17924 -5.18288 23
803 1 12.7898 7.14111 -16.3353 11
804 1 13.1605 6.04199 -1.70251 20
805 1 2.00793 -2.92452 9.63857 20
806 1 -1.86715 -6.6614 -11.9564 19
807 1 10.6175 16.6209 -2.60914 18
808 1 0.482291 -6.24594 2.80666 25
809 1 -13.2265 8.37894 2.5252 13
810 1 11.3365 5.18587 -4.04639 22
811 1 16.5234 7.056 2.10994 10
812 1 -0.139302 -1.81763 -15.2893 17
813 1 -7.14774 13.0532 4.59877 18
814 1 15.1789 10.7607 7.45073 12
815 1 13.8565 13.762 -5.50574 15
816 1 6.441 7.21418 -16.106 17
817 1 11.4682 -3.21989 -1.66882 20
818 1 -11.0292 1.27423 -2.94993 19
819 1 14.5943 13.0976 2.63429 13
820 1 -11.4093 -9.92736 1.5359 14
821 1 -5.8198 9.18674 -10.0617 22
822 1 7.21789 7.3483 7.63605 18
823 1 -13.1915 2.37342 -9.688 13
824 1 -12.8237 6.6286 5.86794 16
825 1 -2.75717 7.38353 -10.3864 22
826 1 14.6565 -1.68525 -8.55805 13
827 1 -11.6436 -9.26833 -4.71071 10
828 1 10.1259 -5.75504 -3.27177 21
829 1 -12.8196 5.42989 0.205893 15
830 1 -4.48201 -6.10398 -3.68068 22
831 1 12.108 9.46548 8.65189 22
832 1 -4.71488 -10.0721 4.75525 19
833 1 9.1808 4.29525 15.8766 12
834 1 14.7733 -1.56501 7.71169 13
835 1 9.62711 -0.975556 4.25195 21
836 1 -10.3844 5.11456 -1.7123 20
837 1 2.64133 10.4546 12.2928 20
838 1 4.29447 9.9911 -11.1608 18
839 1 -0.722345 -4.77369 -19.5753 11
840 1 -4.21458 14.6106 5.22464 19
841 1 -7.59544 -5.11741 6.56943 22
842 1 9.1109 12.3355 -5.5529 18
843 1 0.423432 10.1576 6.73555 20
844 1 15.1317 0.268484 -3.99127 14
845 1 6.30245 -4.84016 11.6519 18
846 1 -2.74611 9.1472 -16.5575 12
847 1 5.62556 12.4294 -9.24919 23
848 1 -6.48779 2.61376 7.4416 21
849 1 17.7599 8.01099 7.93105 7
850 1 -4.07515 -3.72307 -11.8689 19
851 1 14.9964 13.387 -0.591996 13
852 1 -15.179 3.81634 -3.11 12
853 1 -3.82703 -11.6982 8.3852 17
854 1 3.5254 13.662 -10.9033 17
855 1 6.34415 -1.24884 6.47989 23
856 1 -1.05796 -13.3808 -3.64025 18
857 1 -5.53816 18.5214 0.348903 14
858 1 -12.5633 6.28044 -3.90068 17
859 1 10.6977 2.63399 -9.67031 17
860 1 0.471078 -8.56758 -12.3978 18
861 1 -5.41555 10.6542 0.651576 22
862 1 13.6434 10.7457 -6.12219 17
863 1 -6.68569 2.36348 3.86253 19
864 1 10.0533 -0.0715264 -17.6438 9
865 1 -2.18471 -9.5722 -13.1432 12
866 1 3.17463 -10.0744 -3.79341 22
867 1 -3.50861 11.2434 6.6981 19
868 1 10.5731 -13.3895 -1.80521 10
869 1 -0.319869 8.09318 -15.2859 16
870 1 15.7758 6.38107 -3.94151 16
871 1 9.03861 14.3379 -1.44226 17
872 1 2.51829 -17.3698 -1.8745 10
873 1 2.13215 0.481017 -18.5504 11
874 1 10.5509 7.66796 -2.3485 21