ITEM: TIMESTEP
25000
ITEM: NUMBER OF ATOMS
2000
ITEM: BOX BOUNDS pp pp pp
-30.0 30.0
-30.0 30.0
-30.0 30.0
ITEM: ATOMS id type x y z Coordination
1 1 -11.9967 3.37875 -13.0607 9
2 1 -11.3069 -8.05925 -10.8418 11
3 1 -1.40667 11.8002 14.6087 10
4 1 4.50683 -9.72019 9.67481 19
5 1 -12.6934 11.5877 2.39508 19
6 1 7.3474 -7.68525 -8.77944 14
7 1 -13.898 6.2491 -1.71235 16
8 1 -1.47018 -3.9289 10.186 21
9 1 -14.121 2.05491 -11.1425 14
10 1 -14.6052 -6.48871 7.84972 22
11 1 15.1272 1.13599 -7.94198 10
12 1 -4.89788 0.735732 -4.8742 18
13 1 -6.49537 -9.41125 4.68533 19
14 1 -15.5129 -11.6065 4.20519 12
15 1 -3.40195 6.82884 14.7382 22
16 1 4.77934 -3.18553 9.26315 22
17 1 0.633598 4.35342 9.98498 19
18 1 6.745 -3.43841 6.90454 25
19 1 -8.27494 12.6823 -7.99665 13
20 1 -3.94844 2.15802 13.5151 17
21 1 -7.6042 1.79548 -16.2053 13
22 1 -13.9871 -1.37699 9.17414 21
23 1 7.53816 5.80273 7.58985 19
24 1 -3.42613 6.82038 -8.01852 19
25 1 0.380384 7.83383 -11.4091 11
26 1 11.6152 0.0483397 14.3955 10
27 1 -11.142 1.63804 -3.48998 22
28 1 -14.276 5.1562 -5.1939 18
29 1 -2.25524 -4.87934 -6.94808 22
30 1 -18.4418 6.50206 6.51861 16
31 1 6.31867 -13.2331 5.74883 17
32 1 0.0119063 -6.4856 10.3744 20
33 1 0.970846 -13.9935 -9.9474 13
34 1 8.34636 -12.115 2.97569 15
35 1 -10.2263 -11.8765 -5.11225 20
36 1 -15.8656 -3.81924 8.85502 23
37 1 -0.982954 -5.68066 -4.18955 20
38 1 -0.735348 -8.4803 -14.7904 13
39 1 5.54845 -9.45324 -10.9921 12
40 1 -4.74237 4.13684 -13.0887 13
41 1 -3.64491 7.00467 11.6049 19
42 1 -1.94112 -10.2298 8.1054 20
43 1 3.01043 -6.35973 15.1304 14
44 1 -20.4505 -1.25189 9.04334 17
45 1 -17.8712 -6.62864 6.18455 19
46 1 -11.971 -1.06319 -2.04803 21
47 1 -6.06426 15.8588 -1.15156 13
48 1 0.925776 -11.8587 -12.488 12
49 1 0.671367 1.76484 -2.43053 15
50 1 -0.0376475 -7.64199 -9.3449 17
51 1 -3.78379 -3.15648 11.8692 18
52 1 -13.6438 9.03885 3.86499 23
53 1 3.08205 6.93874 -10.978 15
54 1 -2.18577 12.8221 9.06044 18
55 1 -13.6908 9.62101 -8.07025 14
56 1 -3.71307 13.6258 2.23192 19
57 1 -1.31793 -10.4064 5.08086 20
58 1 5.19073 -9.54561 -4.24521 19
59 1 -0.250249 -5.25065 -14.4777 20
60 1 -9.49682 6.78749 12.7641 20
61 1 -16.9112 -0.495917 -5.53124 15
62 1 8.57399 -2.81356 9.65381 22
63 1 -12.0668 7.15416 0.41342 20
64 1 -12.0782 -11.3955 3.8482 16
65 1 -3.16739 12.6195 11.648 14
66 1 -16.6949 10.4354 -1.43545 10
67 1 -8.0705 9.97337 14.1001 12
68 1 -2.6763 2.85984 -4.20861 21
69 1 -4.65258 5.83328 8.54989 17
70 1 -4.70445 -16.3046 12.3581 8
71 1 -1.55923 6.73946 5.93952 17
72 1 6.07025 -13.0822 -2.69051 13
73 1 2.22983 6.5267 14.4272 19
74 1 -17.3972 4.50046 -4.96241 10
75 1 -12.0471 5.33451 -3.22392 17
76 1 1.39052 1.67484 10.9229 21
77 1 9.83597 -7.2289 -6.36615 13
78 1 7.85733 -10.2681 6.06354 18
79 1 -20.3775 -7.56207 8.02576 7
80 1 -16.9258 -3.96901 5.09049 24
81 1 2.1319 13.0713 6.39814 19
82 1 0.595051 -3.71533 15.6022 14
83 1 -7.60689 -11.8871 3.52675 21
84 1 -20.296 -1.42905 6.07315 15
85 1 9.40016 2.88687 8.70383 16
86 1 3.26578 -4.30337 -1.06001 20
87 1 -5.43732 12.2798 7.89 17
88 1 -0.0698356 1.01076 8.03593 21
89 1 -9.28166 -4.66501 1.13768 21
90 1 -6.53278 -7.77976 -6.95986 22
91 1 -15.6068 10.6128 7.83924 10
92 1 -10.7315 15.7869 1.73074 13
93 1 -6.59615 1.1372 -7.89052 16
94 1 3.02435 -0.838158 -5.24396 18
95 1 1.71384 -4.58709 -4.01815 19
96 1 7.62323 11.165 -5.98814 12
97 1 4.8156 -8.28712 6.35771 18
98 1 4.65394 -13.2365 10.7388 14
99 1 -6.68609 14.5859 1.0754 19
100 1 -11.7914 13.8125 4.05527 16
101 1 -9.96244 -3.80493 13.5074 20
102 1 -9.64448 8.3322 9.73659 18
103 1 -9.45675 -1.2063 10.7569 18
104 1 7.64459 -4.33732 -2.44541 17
105 1 -9.13871 4.13344 7.35399 21
106 1 -8.53432 -15.3869 0.644853 17
107 1 2.03613 -8.03667 -3.83005 16
108 1 6.58692 2.2875 -13.1283 16
109 1 -6.97941 -1.83014 -15.8799 14
110 1 -2.24216 9.40226 1.07382 25
111 1 -9.88636 7.65143 -2.00847 20
112 1 -1.39736 0.419532 17.9436 15
113 1 -5.76392 10.8961 -4.49321 19
114 1 -13.6404 11.4507 -1.62132 15
115 1 -3.11499 6.84625 2.63519 18
116 1 -6.46868 -9.26795 11.2129 20
117 1 9.41357 -6.31073 10.3723 21
118 1 0.31117 -7.20413 -6.28459 18
119 1 2.28431 -9.48104 -6.61863 18
120 1 -0.0274499 -1.03967 11.3302 20
121 1 -2.57982 -2.22198 17.8598 12
122 1 -12.3562 -4.7966 0.69189 16
123 1 6.77421 -8.07439 11.674 21
124 1 -10.9288 -7.92854 1.3433 20
125 1 9.80528 -8.94966 1.85018 13
126 1 -8.74961 6.42829 5.11057 19
127 1 6.42963 4.52596 -15.4023 5
128 1 3.08213 15.2421 -0.63726 14
129 1 -9.57776 -9.68048 11.9927 18
130 1 -11.6596 -15.7123 7.52429 14
131 1 -3.47106 -7.64981 -11.739 18
132 1 -0.436604 3.74118 -5.59647 19
133 1 10.1897 -7.99188 -0.875573 13
134 1 0.844933 -14.7018 5.50485 18
135 1 -13.8963 -13.4927 0.284072 12
136 1 12.8599 7.58936 11.5207 14
137 1 13.2627 -4.11614 -4.6466 11
138 1 -15.6188 -7.0028 1.40097 19
139 1 8.48888 8.4348 8.40708 21
140 1 12.7556 7.70013 6.48625 17
141 1 -9.33602 2.07679 15.7643 15
142 1 2.63443 1.46397 -0.203981 21
143 1 -4.84934 10.0574 12.6441 19
144 1 -3.26559 9.02633 -5.72919 18
145 1 -3.51618 -6.74999 -8.69972 19
146 1 8.21731 -10.0774 -6.76037 13
147 1 0.182805 10.6858 -10.2986 10
148 1 1.93402 -3.08802 10.8281 19
149 1 0.632023 -2.29623 -15.749 20
150 1 -3.06445 6.01635 -5.02911 19
151 1 9.17316 0.33369 1.47024 19
152 1 -14.278 8.48639 -5.08351 13
153 1 -12.528 13.8923 0.726817 15
154 1 4.85383 -1.11595 -9.94148 18
155 1 9.76576 -11.1213 8.77201 10
156 1 -9.49645 1.88408 -8.68652 19
157 1 -13.5132 10.814 11.3429 9
158 1 14.3815 3.18359 -5.06683 11
159 1 0.647832 6.42109 -1.5969 18
160 1 -3.64035 16.2791 4.23615 16
161 1 6.44352 8.17869 1.30596 21
162 1 -8.3272 8.52616 0.813716 20
163 1 -0.94227 11.3618 -6.42253 16
164 1 3.40153 4.66251 -13.5593 14
165 1 -11.9084 -16.5042 4.84567 12
166 1 -13.8294 9.55831 0.33916 22
167 1 -9.33135 -3.89198 -10.3941 19
168 1 -0.91592 -9.58048 -11.5853 20
169 1 8.82859 14.6401 8.43821 11
170 1 -1.43136 16.6314 9.41151 13
171 1 -15.1506 -4.87287 -1.22081 21
172 1 -9.57078 12.6968 2.88665 23
173 1 15.1195 1.10453 0.00105071 9
174 1 -12.929 3.42575 -7.91189 21
175 1 5.17364 -4.69784 16.6129 11
176 1 2.27512 15.6362 4.22607 16
177 1 -5.05494 10.4636 5.66041 19
178 1 -3.03669 -4.93435 -13.2923 16
179 1 -8.22763 11.5884 8.62805 18
180 1 -4.38404 5.4742 -2.18056 17
181 1 0.393445 -8.81454 12.1364 16
182 1 -19.4556 -4.14507 7.87892 19
183 1 -6.87553 -9.99881 -12.2466 15
184 1 -10.8292 11.559 -8.59679 13
185 1 -7.34654 -14.7059 4.41637 20
186 1 4.91993 -15.2409 -5.26219 10
187 1 -6.22368 11.1535 -10.8107 12
188 1 -22.0139 -4.54791 9.32275 6
189 1 -4.83912 7.04102 0.666015 19
190 1 11.0911 5.70091 -3.09565 17
191 1 -12.5046 1.13281 14.164 17
192 1 -0.801257 -12.1164 11.1182 15
193 1 -13.8903 -2.40262 0.0444239 20
194 1 -0.901121 12.7217 0.680472 21
195 1 -2.53883 2.94968 9.2883 18
196 1 10.8846 5.55009 13.6181 15
197 1 -6.44461 14.4643 6.94952 18
198 1 10.9544 -6.23927 -3.54744 14
199 1 -11.0768 12.1269 8.92198 12
200 1 -10.0856 -1.31863 -8.23285 21
201 1 11.5322 -8.48268 7.91826 14
202 1 -9.79251 -4.10851 9.5676 19
203 1 -18.6842 0.884357 7.64521 19
204 1 -8.37069 -10.914 6.70092 23
205 1 -0.233649 7.56477 15.8928 17
206 1 -19.8128 -3.43644 -1.40832 10
207 1 -5.88188 -13.817 -1.73444 20
208 1 -6.93025 -3.79084 -3.83795 21
209 1 4.69726 -6.70603 -2.43058 21
210 1 -6.2599 13.1406 4.12893 20
211 1 -8.9385 -3.7239 4.59782 18
212 1 -0.341266 11.8597 11.568 17
213 1 -11.5118 -1.57402 -4.70264 23
214 1 -7.45739 8.47794 -6.38431 18
215 1 -14.5121 -2.36604 -3.4834 23
216 1 -11.9219 -1.95606 12.3336 17
217 1 -3.74445 -9.19281 5.98134 21
218 1 -0.407376 -14.055 8.71356 14
219 1 -16.6375 9.03912 1.87806 18
220 1 13.6911 -0.326852 10.0105 15
221 1 6.58653 -2.54639 -5.74019 18
222 1 -10.3867 -6.46752 -13.8778 9
223 1 3.82692 -0.747499 12.2833 19
224 1 3.74444 -15.788 5.86128 13
225 1 -6.01411 10.7351 -7.82419 19
226 1 1.87202 -8.7675 -13.8327 13
227 1 7.65434 -0.405019 -8.71551 21
228 1 0.687348 0.63015 -16.1082 15
229 1 -8.6055 -6.10676 -5.77947 19
230 1 -7.53503 8.27667 -3.63086 16
231 1 -11.6076 -10.9829 10.1482 14
232 1 6.31525 14.4778 -0.411161 13
233 1 -9.97574 0.486829 18.9056 6
234 1 -8.8557 11.0127 -2.99463 19
235 1 4.36259 2.33009 10.619 17
236 1 -6.2162 -7.97279 -10.5163 16
237 1 -5.91254 6.6243 -6.46232 21
238 1 1.35583 1.09033 -6.81068 18
239 1 -8.91519 -12.408 11.521 15
240 1 -11.8932 3.3334 8.89421 19
241 1 -7.22563 3.98735 9.99046 17
242 1 -2.28999 -13.3946 -6.274 21
243 1 -6.04771 -13.0007 1.42232 19
244 1 8.62944 -11.078 -1.81988 14
245 1 -4.50957 -7.82408 -0.579459 21
246 1 8.58415 4.64762 14.4585 18
247 1 4.49724 7.71794 -4.59758 19
248 1 -7.1138 11.9253 1.46933 19
249 1 -14.9831 -1.53173 3.16735 19
250 1 -11.1156 12.9287 -2.3814 16
251 1 -1.35533 3.74641 15.0131 19
252 1 1.48385 -17.016 -0.173043 13
253 1 13.1135 0.581621 3.09326 18
254 1 3.26816 9.86839 8.62037 19
255 1 -11.4076 3.25332 5.27216 19
256 1 -13.3027 -8.20237 -0.628216 24
257 1 1.77849 3.82533 -7.70463 19
258 1 2.19193 -4.27394 13.5232 19
259 1 8.58651 8.96882 -8.88895 14
260 1 -5.21024 -9.83724 -2.99235 19
261 1 -7.98595 -2.66213 -13.4052 22
262 1 -2.54835 -16.5816 5.85631 9
263 1 5.42718 -3.42369 1.55812 21
264 1 -12.8458 0.553432 6.36876 20
265 1 4.7265 -16.1766 -0.0795332 9
266 1 -10.2166 -4.21557 -6.27457 17
267 1 4.62146 12.5277 4.35986 21
268 1 -5.20787 -3.44378 -14.2192 20
269 1 3.21602 2.90474 15.5142 18
270 1 13.4577 -0.0311292 6.59916 15
271 1 -9.06919 -6.85731 4.23641 19
272 1 6.99614 -2.93612 -10.4948 20
273 1 -4.95696 -6.37119 6.86775 18
274 1 -12.7977 -2.16181 -10.6621 17
275 1 -14.6807 0.932035 -7.77576 18
276 1 -9.38361 -16.0934 10.7227 11
277 1 5.54581 -0.782484 10.1167 20
278 1 5.29733 -8.93686 14.6842 13
279 1 -12.7525 -4.73156 -11.4822 12
280 1 0.77026 -11.6515 13.4022 11
281 1 -5.12716 5.29879 -10.074 19
282 1 6.06088 4.9472 -0.0143299 16
283 1 -9.71259 -9.40109 4.23285 17
284 1 1.73267 13.4411 2.57392 18
285 1 -5.50226 -3.99352 16.6678 14
286 1 -13.5482 -8.35015 -6.80954 15
287 1 -7.61328 -3.9635 -7.87576 20
288 1 -6.56019 7.31299 -9.53923 21
289 1 -7.2085 -11.1428 -6.36192 22
290 1 -8.78691 -9.4305 9.10794 21
291 1 3.69648 1.53005 -14.9414 15
292 1 13.7843 -2.23868 -7.68004 10
293 1 8.9212 2.29673 5.42124 21
294 1 -6.94295 -5.60333 -1.72385 20
295 1 -14.3655 -2.76176 11.4247 18
296 1 -3.35955 -11.7133 -0.642204 20
297 1 7.99573 9.11309 11.3286 19
298 1 -8.95129 -16.7422 8.36109 15
299 1 -5.68504 -10.4729 0.569194 17
300 1 -3.72168 19.2844 5.91139 10
301 1 2.31882 -4.53588 -16.6446 11
302 1 -10.9914 -3.6936 -13.4375 16
303 1 -10.4838 -7.47125 14.0963 11
304 1 1.73255 5.16131 16.7239 17
305 1 0.0932869 -9.89965 2.12348 18
306 1 -7.87034 -12.5502 -11.4448 15
307 1 -10.964 8.9666 -7.23365 19
308 1 5.80479 4.33561 5.69245 19
309 1 -8.95965 5.88493 -5.73085 15
310 1 -1.71561 3.87894 -7.88733 20
311 1 -6.81527 -3.80752 11.2121 20
312 1 3.57647 -14.3906 -8.07572 12
313 1 -5.10857 17.2464 1.58509 12
314 1 2.74804 10.546 4.89226 19
315 1 10.9007 0.478563 8.28012 22
316 1 -12.3588 -2.30682 3.34836 17
317 1 -5.09342 -6.34211 11.2456 23
318 1 -11.7793 11.4616 5.67206 19
319 1 2.80038 -1.35009 -13.2567 21
320 1 11.2565 11.8121 2.19365 13
321 1 -0.563513 -14.8554 -1.12123 20
322 1 -2.81506 -3.73245 14.654 16
323 1 -15.2588 -6.61884 4.66436 21
324 1 -1.80914 -15.8402 -5.09252 14
325 1 -12.3989 6.40614 14.3128 13
326 1 -8.08011 3.22273 13.2826 15
327 1 -17.9702 -5.85095 10.3749 13
328 1 -14.8868 -5.90033 10.848 18
329 1 12.9891 -2.36967 0.911391 15
330 1 -12.6262 -8.50681 12.1188 11
331 1 3.44614 -3.5201 -6.92028 19
332 1 7.78067 -12.2489 -5.10433 12
333 1 0.119669 15.2179 -1.58987 14
334 1 -5.62554 -6.80482 4.05141 20
335 1 -9.03824 13.5879 -0.488511 24
336 1 -1.38995 1.40658 12.0192 21
337 1 6.97531 5.61605 11.7457 20
338 1 -17.7526 -1.93282 7.21203 22
339 1 5.60056 -10.1206 -1.21664 20
340 1 -5.17039 9.77536 2.21107 21
341 1 -8.76738 11.7079 5.46355 22
342 1 5.71054 -14.8483 8.49644 12
343 1 9.27322 -5.47807 7.63221 22
344 1 -4.66324 2.14929 10.6187 17
345 1 -8.24816 -1.58407 -5.61497 20
346 1 0.21117 1.33429 14.6723 18
347 1 -5.00829 17.3158 7.90072 13
348 1 6.48947 2.23087 16.281 12
349 1 -9.55092 12.0418 -5.36061 18
350 1 0.286814 -6.98081 -16.4457 13
351 1 -13.9194 2.81334 -2.38179 16
352 1 4.50415 -6.75015 -11.5392 17
353 1 -12.9685 5.37625 11.5779 16
354 1 -17.6723 0.287517 4.46325 17
355 1 -15.3923 -0.567696 -11.2745 12
356 1 -8.02164 9.43211 4.20242 22
357 1 7.598 -0.244688 6.82054 23
358 1 -10.1773 -17.5998 2.79702 9
359 1 8.70844 -14.0391 10.3837 5
360 1 -13.6905 -8.85604 9.22734 18
361 1 -16.7906 6.9743 3.85561 17
362 1 -2.1233 -1.19993 9.21683 14
363 1 1.7294 -15.4254 -4.29896 15
364 1 -7.46792 3.01304 -11.5169 15
365 1 5.97378 -0.537014 -13.3925 16
366 1 3.55259 10.449 1.98124 17
367 1 -16.7843 -2.44511 -0.782618 19
368 1 2.41895 -9.09544 -10.4523 22
369 1 7.19635 2.65161 -9.96006 16
370 1 -8.89351 -12.7903 -8.13502 18
371 1 -14.2144 -7.82687 -3.78225 15
372 1 -7.59645 -7.20986 1.12151 20
373 1 6.15184 2.96867 12.7355 19
374 1 6.75842 0.98818 -1.39144 18
375 1 -12.4102 5.62 -10.8103 17
376 1 0.644084 17.4081 0.457064 7
377 1 -18.3765 -0.0666776 -2.5052 13
378 1 -10.8758 9.5995 3.03124 23
379 1 -8.64096 15.3876 4.27918 17
380 1 -11.891 6.21142 4.64772 21
381 1 9.11138 3.48916 11.8571 17
382 1 9.855 -2.1665 -0.69272 20
383 1 7.92248 -4.47982 12.1047 21
384 1 11.8998 1.50704 -6.27275 20
385 1 -4.07856 -16.0597 -2.55069 16
386 1 -7.96924 1.52605 -2.2383 22
387 1 -2.71401 -7.83025 -5.92066 19
388 1 -1.34173 8.9139 4.35036 23
389 1 -12.8509 0.613599 0.980934 20
390 1 5.45484 -10.3986 3.90383 19
391 1 10.2307 -0.971681 11.5088 17
392 1 -12.7208 -4.2625 -2.58667 19
393 1 -8.12762 -7.57405 6.9578 21
394 1 -8.27451 -6.06613 12.2599 20
395 1 -8.25454 17.3045 1.20104 10
396 1 -10.5755 -13.1504 -0.577311 20
397 1 5.85798 8.04271 16.8578 10
398 1 -12.8984 9.10975 -2.83862 16
399 1 -0.598985 8.38684 -7.54839 20
400 1 5.95375 10.1598 3.78934 17
401 1 -16.4357 -8.16829 -1.86104 12
402 1 -4.33106 -10.4899 -6.41408 21
403 1 -15.2046 1.40442 8.2834 19
404 1 -17.7988 7.99794 -0.996021 11
405 1 3.21224 -6.62376 10.3185 17
406 1 -8.09574 -12.1744 -0.988515 22
407 1 10.3316 11.8573 7.98183 18
408 1 3.92038 3.91887 -9.49757 23
409 1 -15.7644 4.7132 -9.48251 9
410 1 -3.30676 11.4826 -9.1179 11
411 1 -8.18939 1.93512 -5.48301 20
412 1 -5.50072 -12.4891 5.82153 21
413 1 10.2358 6.11667 7.3685 18
414 1 -2.64538 6.45859 -12.9638 13
415 1 -7.03553 -0.0733149 15.8709 15
416 1 -17.0579 4.01882 2.22418 16
417 1 -10.1036 -0.943997 5.13151 15
418 1 -4.48893 -14.1725 3.88853 18
419 1 -0.390554 -12.2862 -0.00325274 18
420 1 3.04782 -6.73656 -8.21885 19
421 1 -4.30623 -3.61558 8.72967 19
422 1 -16.89 4.28244 8.80216 17
423 1 -18.8157 -3.19653 11.1384 16
424 1 -11.9572 6.2252 8.1025 18
425 1 -3.15633 -9.38497 10.6831 21
426 1 -9.76427 4.30728 -15.3043 10
427 1 4.94041 -9.16008 -7.48524 19
428 1 -3.01863 -10.2394 -13.7459 13
429 1 -4.53793 -6.77229 14.6601 13
430 1 3.01545 -11.2262 1.02031 22
431 1 -6.38872 4.3126 -16.2945 8
432 1 2.25819 -13.6351 1.04467 21
433 1 -0.73493 9.88847 -1.66902 19
434 1 -15.2806 11.776 4.34374 13
435 1 -8.82708 -2.36085 16.1254 12
436 1 -12.5571 -6.22848 -8.05818 16
437 1 -11.1861 -7.17192 7.98168 18
438 1 8.81433 -8.40545 14.3263 13
439 1 3.14302 -0.119058 2.95235 19
440 1 -8.37879 3.69066 4.19759 22
441 1 0.0878643 -2.50742 -6.01349 18
442 1 7.93837 -8.52073 8.28049 22
443 1 11.688 8.36979 -3.03759 10
444 1 -6.95862 2.22275 17.4841 12
445 1 -4.46946 11.0615 -0.635395 20
446 1 6.74092 -5.65969 9.29652 20
447 1 -4.6304 -13.2375 -4.33502 19
448 1 -6.61799 4.62269 15.5032 17
449 1 -6.87083 11.7727 11.2137 13
450 1 -13.2658 -10.7727 -4.73878 13
451 1 7.75235 12.716 2.87507 19
452 1 5.5145 7.49592 10.1011 21
453 1 -17.203 2.21416 10.5412 18
454 1 -10.6183 -10.0267 -1.93871 20
455 1 -17.7451 5.79099 10.4068 12
456 1 -11.3814 -7.37358 -3.47465 16
457 1 -8.51755 8.70197 6.81673 16
458 1 -11.2428 -12.492 -11.0356 7
459 1 -7.43508 -8.5565 -14.7031 10
460 1 -10.0909 -13.4221 2.62593 17
461 1 -10.7519 -4.86959 6.22972 19
462 1 8.1723 0.771945 10.4018 20
463 1 -7.95113 -5.4276 15.0433 16
464 1 -12.7718 6.35227 -7.62937 19
465 1 5.49874 -0.370698 1.41527 20
466 1 -10.1486 -14.9441 -5.73906 8
467 1 -2.03694 1.05963 -6.6067 21
468 1 -0.694491 17.9847 4.17545 15
469 1 -3.84178 2.82031 -9.51466 21
470 1 -5.9664 9.23695 8.97353 18
471 1 -20.86 -3.90983 1.39886 10
472 1 -4.01714 14.9954 -3.77576 11
473 1 6.5473 9.13435 -3.63938 18
474 1 -8.6239 -9.59375 -9.0349 20
475 1 1.14756 -1.33399 17.9171 12
476 1 -1.7858 -14.098 -11.2005 10
477 1 -3.35259 -7.19531 -15.3194 21
478 1 4.11362 -11.2888 7.14014 20
479 1 -10.1653 6.6673 2.85581 20
480 1 -1.53748 9.17123 12.8603 21
481 1 9.84789 3.3661 -1.48545 14
482 1 -1.93025 6.97643 -0.608195 22
483 1 -11.7021 8.52591 -10.0779 19
484 1 4.09748 2.478 -5.75266 17
485 1 1.66944 -9.43581 5.49608 21
486 1 -18.0599 -5.5899 -0.174137 16
487 1 1.64604 17.5341 6.88416 10
488 1 -11.8607 7.67223 -13.4242 8
489 1 5.17764 2.78915 1.56398 22
490 1 4.52699 11.394 -5.59779 16
491 1 2.99589 -8.29842 3.24071 20
492 1 12.2123 2.32026 6.30527 14
493 1 -5.0404 -0.457598 -14.3266 21
494 1 -1.6304 -8.49747 0.70508 21
495 1 -2.22728 -13.545 6.11232 19
496 1 3.94585 -11.7732 13.6753 10
497 1 -10.8796 4.25764 -6.58328 23
498 1 -13.4656 -13.9836 5.72808 12
499 1 -3.1653 -12.1466 -9.56128 19
500 1 8.8955 15.4215 5.52719 8
501 1 -1.28598 0.773711 -9.73186 22
502 1 1.40608 1.75253 18.0509 13
503 1 -19.3135 0.274058 12.2161 12
504 1 -0.685507 -17.2922 -2.65616 13
505 1 -19.8439 -3.87455 4.75371 15
506 1 13.161 -5.33424 -1.39642 7
507 1 5.11074 -1.73721 4.30894 22
508 1 -6.90433 9.19478 -1.22855 23
509 1 -2.86837 -9.05956 -2.49989 17
510 1 1.84544 0.609709 -10.5654 18
511 1 9.46641 -4.40764 -5.20574 17
512 1 -13.2711 -0.254021 17.0157 10
513 1 0.226954 6.56754 1.67222 21
514 1 -12.2193 -0.0499499 -12.6877 16
515 1 2.19176 -0.788213 -17.5328 9
516 1 -9.62893 2.07039 10.6601 17
517 1 -6.83896 12.565 -2.30424 19
518 1 -9.86914 -0.903063 -11.3309 19
519 1 -17.1606 -9.11664 3.37379 14
520 1 -5.40684 -10.9761 -15.8614 9
521 1 -6.00764 -11.3414 13.774 12
522 1 1.40368 6.29775 -5.56959 19
523 1 15.2914 5.02826 11.1253 9
524 1 10.3623 2.93376 2.49779 22
525 1 -11.7979 -15.7388 -0.311737 12
526 1 -3.58339 -9.45943 2.70027 19
527 1 -4.6902 -4.708 -16.9201 13
528 1 -12.8428 9.48987 8.47389 16
529 1 -4.17845 -2.34351 -10.9228 23
530 1 5.19194 6.12198 3.12177 16
531 1 8.48763 -1.68407 4.20973 20
532 1 1.17476 11.2131 -4.05279 18
533 1 7.06074 -8.40922 3.51334 24
534 1 14.4525 -0.319784 -4.90114 14
535 1 2.95718 11.9993 11.8343 15
536 1 -9.8741 5.06673 10.9187 20
537 1 -0.118598 14.9852 6.85941 20
538 1 5.65171 -6.23881 13.6949 20
539 1 0.932674 3.60455 -10.5332 21
540 1 -8.50552 -8.62851 -4.43856 18
541 1 -0.497376 -3.72527 13.0152 20
542 1 5.41019 13.0728 12.962 11
543 1 6.37898 3.68815 -7.35231 17
544 1 -10.3727 10.3055 -0.422485 21
545 1 -3.9063 8.4597 -2.15763 24
546 1 10.8381 -6.54984 13.7031 12
547 1 11.0945 0.0104096 -9.16309 18
548 1 10.8108 -5.15921 -0.0989084 16
549 1 7.27755 11.4191 8.91209 19
550 1 -11.5563 -10.748 6.89952 18
551 1 -8.60036 9.8832 -9.78874 18
552 1 -5.09277 -0.450869 13.4879 14
553 1 -17.0673 -1.4418 13.7363 14
554 1 -6.84482 13.7198 -5.81955 14
555 1 5.85077 -12.7024 0.225295 19
556 1 3.36196 -3.74643 -9.81479 19
557 1 -3.12377 17.2209 -1.09932 9
558 1 -8.80351 -6.5794 -9.17991 16
559 1 3.68803 -12.8448 4.3305 21
560 1 -16.002 -4.08998 2.35527 20
561 1 -1.57048 5.84024 -10.3499 19
562 1 -11.5739 1.13729 -6.23172 20
563 1 -2.19753 9.23371 16.3873 14
564 1 -15.5299 -8.9702 6.35 18
565 1 2.42903 4.40728 0.0174678 19
566 1 0.330212 -11.1328 -9.19837 21
567 1 3.32003 -8.67751 12.5558 16
568 1 6.07129 0.333849 -6.39004 19
569 1 -14.246 3.85001 6.39014 19
570 1 -1.56097 6.53198 9.12904 21
571 1 2.74549 13.8118 -3.22724 15
572 1 11.4186 -1.54625 -3.85095 18
573 1 0.417802 9.13385 10.0328 18
574 1 0.934122 1.99377 -13.3324 17
575 1 -7.02162 -14.2213 11.8147 13
576 1 -6.51405 -1.9434 -9.43091 19
577 1 8.25248 -0.34794 -11.6011 15
578 1 -1.14297 14.3568 3.88299 23
579 1 7.44976 5.5447 -9.07624 19
580 1 -6.01689 -7.56783 -16.652 12
581 1 -7.35349 -12.2636 -3.64863 18
582 1 -16.5896 -3.3741 -6.1418 13
583 1 7.37043 1.24454 3.43003 18
584 1 15.4507 4.41998 0.119945 11
585 1 0.725165 -6.53937 -1.55286 22
586 1 10.8024 9.08236 13.0539 12
587 1 0.153886 -10.218 -1.5384 19
588 1 -1.26313 -4.34864 -17.2302 14
589 1 0.784915 9.40543 1.20517 18
590 1 -8.33531 -0.997201 2.18632 23
591 1 8.3083 8.3095 14.363 15
592 1 7.87872 2.85687 0.576964 22
593 1 10.2679 -2.36751 7.01099 19
594 1 12.7026 3.52938 -8.6194 10
595 1 5.35178 5.42577 14.9666 19
596 1 13.9504 5.48712 13.6287 9
597 1 4.62001 -4.11417 12.0623 19
598 1 7.91112 12.9877 -2.98321 11
599 1 -1.62316 3.55004 18.0518 15
600 1 9.84449 0.831216 -1.95047 20
601 1 0.904101 3.75654 12.9281 19
602 1 -13.9119 1.06804 -4.83634 21
603 1 11.2474 4.76488 3.88023 19
604 1 7.87487 -4.7355 4.40301 21
605 1 -2.92142 -6.43914 2.10049 18
606 1 -15.602 8.0506 11.7915 10
607 1 7.82627 11.5917 13.8482 11
608 1 11.2094 1.33641 11.8536 19
609 1 4.68169 12.0165 7.17656 19
610 1 1.09628 14.1462 9.85571 15
611 1 0.710591 9.96222 6.88438 17
612 1 -0.63128 -18.427 3.16383 9
613 1 -10.0562 4.64388 -0.237987 19
614 1 8.59781 7.95997 -1.44262 16
615 1 8.39001 -4.27909 -8.30407 18
616 1 -1.44192 15.5961 1.30268 17
617 1 -5.5363 -13.7867 -7.08673 17
618 1 7.32788 -5.80294 -11.2083 12
619 1 -21.632 1.04775 6.13357 10
620 1 -7.39461 4.12328 -8.0843 21
621 1 -7.11953 -17.7155 3.18623 11
622 1 -9.15217 1.28828 -13.599 15
623 1 -17.6944 2.50238 -0.898712 15
624 1 9.92635 -7.5745 5.29745 20
625 1 11.9422 8.28565 3.09071 19
626 1 -1.70391 -14.2083 12.4366 14
627 1 -16.7847 1.88192 -3.75643 16
628 1 -1.87693 -0.898989 -17.3982 10
629 1 1.47785 -5.10459 8.0933 20
630 1 -9.41925 6.48132 16.3305 11
631 1 5.9199 7.70553 -9.46221 13
632 1 10.498 -3.89997 12.9732 16
633 1 7.06573 2.62306 -4.29219 20
634 1 12.9837 11.2694 5.22332 13
635 1 0.610577 -12.3481 -3.89224 19
636 1 -15.6902 -2.56221 15.751 10
637 1 6.40234 2.48137 8.00188 20
638 1 -1.59926 14.8947 11.9398 10
639 1 5.53997 10.6738 -8.65336 12
640 1 -17.4427 8.33222 -4.38378 9
641 1 9.95912 6.64616 4.72204 19
642 1 -9.34683 -14.4882 -2.70494 19
643 1 11.9541 -5.43725 6.67442 15
644 1 6.60126 13.9851 5.54529 16
645 1 -6.39482 7.48952 14.0501 17
646 1 -12.7378 -4.33716 8.47731 20
647 1 -13.5975 -2.35191 -6.70714 20
648 1 4.89085 -2.40705 14.5274 15
649 1 -2.47858 -10.6764 13.7685 12
650 1 5.85054 7.4447 13.3994 22
651 1 0.233389 11.6845 3.21318 20
652 1 4.23932 1.96608 4.44352 19
653 1 2.2732 4.19857 6.09043 20
654 1 -3.2757 0.766974 -12.2217 18
655 1 -17.1795 -0.830868 10.3155 21
656 1 10.4543 -2.73055 -10.1674 12
657 1 -4.9345 -5.63675 -5.86057 21
658 1 9.90827 -9.2834 -4.03754 13
659 1 4.51662 4.73893 8.84841 19
660 1 3.80839 6.91045 6.27315 22
661 1 -15.4836 0.978601 14.5515 13
662 1 7.62617 10.6676 5.50259 23
663 1 -0.184823 -6.47238 14.1284 13
664 1 -2.53105 8.84729 7.45516 16
665 1 -6.76356 -4.70917 -11.4225 19
666 1 -10.1213 0.833987 8.4276 20
667 1 3.6478 -0.474195 16.3216 13
668 1 -10.8636 -19.2203 6.70734 7
669 1 10.6994 9.03226 0.0819855 12
670 1 3.0785 -12.091 -2.17477 15
671 1 -0.751348 8.90461 -4.27525 22
672 1 6.89484 11.0425 0.0775024 19
673 1 9.22766 9.50147 2.66259 19
674 1 4.55498 -2.8783 -15.4476 11
675 1 -1.91557 4.28861 11.8959 22
676 1 1.97402 11.7326 -0.75339 20
677 1 12.5386 5.60247 1.01122 16
678 1 -10.3098 -6.40087 -0.968809 19
679 1 -7.78265 -4.55916 -15.5761 15
680 1 -10.8967 16.5157 -1.54913 10
681 1 5.73399 -4.94332 -8.33706 20
682 1 8.18513 4.28158 3.35825 18
683 1 10.1114 5.97967 -8.12312 12
684 1 10.3878 13.3181 5.08386 15
685 1 -6.6661 3.87658 6.79179 18
686 1 -8.48538 2.29091 1.61048 22
687 1 5.02247 3.26588 -2.05901 20
688 1 11.7775 2.72432 14.5717 14
689 1 8.38947 -5.22432 15.2482 13
690 1 -4.24623 -13.7524 14.2812 10
691 1 -9.6151 6.59723 -8.56118 20
692 1 -2.86173 9.82174 10.047 18
693 1 1.24504 -6.4756 -11.6608 20
694 1 2.45853 -0.998785 9.05722 22
695 1 1.88814 8.73187 -3.06564 18
696 1 2.99595 8.4026 11.77 21
697 1 6.52897 -1.88644 -1.15804 18
698 1 4.57847 4.63057 17.6567 12
699 1 -16.0993 -4.78216 13.1471 12
700 1 0.614459 -12.3095 3.31363 21
701 1 -1.72228 -4.93313 -10.5585 22
702 1 -15.6596 11.9199 1.02698 13
703 1 1.93992 7.00222 8.45605 19
704 1 2.55717 -8.64949 0.0695133 20
705 1 2.88798 7.31131 1.31229 19
706 1 -14.5909 -2.04627 6.13945 20
707 1 -5.64698 4.86896 12.597 21
708 1 -10.1469 4.24578 -10.083 14
709 1 -8.48375 8.21857 -12.1454 15
710 1 -3.14153 -12.0998 3.24009 18
711 1 7.58708 6.56856 -5.98394 17
712 1 -0.450145 -7.74203 7.2117 20
713 1 -5.04714 7.87536 4.85675 16
714 1 -14.3656 3.46425 12.8442 16
715 1 -2.15859 1.52532 -14.879 15
716 1 2.00126 -12.2296 10.3906 19
717 1 -2.42535 13.7225 -1.36454 19
718 1 -5.01864 -0.875788 18.0888 12
719 1 -13.2618 -4.99242 -5.48474 19
720 1 -9.92295 -10.4041 -12.9849 10
721 1 -11.378 -11.2753 -7.74808 12
722 1 -4.40562 12.3358 -6.03491 15
723 1 0.829711 -4.38659 -7.98426 20
724 1 -3.67431 13.5871 6.2392 19
725 1 4.12177 -12.0031 -5.22746 17
726 1 5.29405 -13.8627 2.76832 19
727 1 1.24667 -8.97041 9.19643 16
728 1 12.1019 2.82362 -2.83753 17
729 1 3.02856 -17.639 -2.65369 8
730 1 -12.258 -3.02263 15.0154 13
731 1 -2.03355 -2.26741 -8.71558 18
732 1 -5.30832 -16.55 0.461663 16
733 1 -12.7799 -13.2593 -2.90472 14
734 1 -17.5033 3.18941 12.7034 10
735 1 -13.3503 -16.3073 2.39212 7
736 1 15.7582 2.53043 -2.69479 10
737 1 -6.42703 17.2971 5.1175 12
738 1 -6.78349 -0.0511163 10.6034 14
739 1 -16.9879 4.16976 5.4351 18
740 1 4.44856 -5.51473 7.12097 19
741 1 -17.2069 -1.05802 -8.3825 12
742 1 2.42976 4.24759 -3.52528 16
743 1 9.43869 0.384989 -5.61495 19
744 1 4.36312 10.0438 14.4417 14
745 1 9.69901 3.79409 -5.07994 17
746 1 -16.502 5.39556 -2.5759 16
747 1 -15.8568 -5.72696 -6.86748 10
748 1 -2.51229 6.47846 18.3464 12
749 1 1.06016 6.26696 -8.50144 21
750 1 10.7143 9.30948 5.75735 23
751 1 -6.29484 -3.0575 13.9401 18
752 1 0.0595387 -15.3721 -7.44993 11
753 1 -10.205 -13.4747 5.73821 20
754 1 -2.65552 -7.26266 9.09864 22
755 1 11.6522 11.5255 10.8616 9
756 1 -2.62987 -9.8316 -8.8606 19
757 1 -14.7462 6.84696 6.07426 18
758 1 6.94078 7.26565 4.9767 22
759 1 -12.6191 -7.33884 5.74802 20
760 1 5.70951 5.29679 -11.839 16
761 1 -3.0119 -14.8512 -8.41396 12
762 1 -0.871744 -15.0617 2.40835 20
763 1 -3.19074 -14.2532 0.338586 19
764 1 4.31107 1.29921 -8.73529 20
765 1 5.14153 14.9666 2.34718 12
766 1 -4.33126 0.809324 -17.0592 8
767 1 -2.24521 -0.200421 14.9945 17
768 1 -6.92916 -0.194442 -11.7823 18
769 1 -15.5641 -3.67272 -9.58769 13
770 1 -13.4989 -8.77537 2.69114 20
771 1 -0.465725 14.0798 -4.10542 11
772 1 5.00996 -5.53261 4.02726 27
773 1 -6.21484 -6.35047 -13.5128 20
774 1 -8.01585 -8.65666 -1.34002 20
775 1 14.0427 5.71388 -2.55903 11
776 1 8.59906 -6.28317 1.81955 19
777 1 -11.4805 9.06383 16.18 8
778 1 6.88618 -11.6425 8.95353 18
779 1 11.0679 -4.57937 3.54931 19
780 1 13.8428 -5.48728 13.1153 6
781 1 -3.0055 11.1646 3.38633 21
782 1 -12.2843 1.04124 10.8918 18
783 1 -14.8228 7.36856 9.42373 18
784 1 -3.26067 -15.0249 9.58761 11
785 1 2.88047 1.80927 7.70311 23
786 1 5.41175 10.8447 10.4702 20
787 1 -19.3063 -0.00909687 0.278398 13
788 1 7.34978 -7.87221 -1.53081 20
789 1 -12.5318 11.3442 -5.30284 13
790 1 -0.538716 4.7483 4.05538 21
791 1 2.69783 -13.8764 7.84694 17
792 1 2.82087 -4.07772 17.9545 8
793 1 -1.34138 11.7869 6.11636 18
794 1 -0.635219 -7.71232 4.05423 20
795 1 -10.4709 -1.50771 0.885622 20
796 1 0.92334 -1.09856 13.8317 19
797 1 -17.0623 -5.16236 -3.4057 13
798 1 1.35592 9.67133 14.0254 16
799 1 5.21911 7.15045 -1.63105 19
800 1 -14.6833 -11.4176 7.93175 12
801 1 -5.83687 -16.1478 6.60565 15
802 1 10.22 -9.22321 11.1207 15
803 1 12.4502 -6.30611 9.65236 14
804 1 -0.549238 3.39494 6.90041 22
805 1 -7.31491 5.69062 -1.61666 21
806 1 -0.49987 -10.4995 -5.92125 17
807 1 -4.19671 0.0909889 -9.03895 21
808 1 -4.19619 1.55484 16.6343 17
809 1 -2.14148 16.7745 6.71498 20
810 1 10.9865 -0.0508176 5.15208 19
811 1 2.21007 8.69534 -6.24159 20
812 1 -12.4306 8.73419 12.8601 13
813 1 8.41052 12.8794 10.9055 15
814 1 4.74199 -3.31171 -11.9633 17
815 1 -9.18397 -10.671 1.27276 22
816 1 -4.96531 -2.35462 -6.79317 21
817 1 14.2864 1.96943 12.8348 11
818 1 -0.188566 -0.540957 -13.5064 18
819 1 -5.56248 7.39909 17.1198 12
820 1 6.15306 -11.9048 -8.73882 11
821 1 9.01637 1.45471 -14.6227 5
822 1 -5.50535 -7.52308 -4.12997 20
823 1 9.62047 2.69254 -7.89153 17
824 1 13.3878 -2.83835 4.82239 15
825 1 -2.65081 -6.77114 12.0575 19
826 1 -6.0894 -11.3023 -9.36937 22
827 1 4.15847 9.41775 -1.19129 17
828 1 -5.5634 -9.37065 8.36603 25
829 1 -19.7732 3.40115 4.45932 11
830 1 12.1434 1.1565 0.244352 22
831 1 14.1391 2.63184 9.20614 13
832 1 -2.08895 -2.53508 -12.7738 17
833 1 -17.4127 8.43491 9.07459 11
834 1 11.4201 8.94917 9.00656 17
835 1 10.016 8.6401 -5.81949 12
836 1 3.97439 2.1307 -11.7714 24
837 1 5.9779 -5.50443 -0.133913 18
838 1 -16.8581 0.864886 1.75917 19
839 1 15.5103 9.40758 4.94752 7
840 1 -12.1014 -11.0206 0.859659 19
841 1 -14.7678 8.03189 -10.7972 9
842 1 3.42574 5.2418 11.764 21
843 1 -15.0825 0.141449 -1.57472 22
844 1 -20.3187 4.36386 7.12931 12
845 1 -4.86472 3.32278 -6.83034 23
846 1 4.72926 -7.08267 -5.62681 14
847 1 -14.744 -10.665 -1.87299 14
848 1 8.33664 -3.34559 1.26321 19
849 1 -18.3422 -1.67726 2.54959 18
850 1 -9.65607 -3.91273 -2.89541 21
851 1 5.91573 8.81406 7.51524 22
852 1 -7.69821 -14.1553 7.61362 18
853 1 8.72971 1.15273 14.0314 19
854 1 12.2898 -3.58129 10.1472 19
855 1 14.0423 -3.31582 8.01307 12
856 1 -10.9822 1.23719 3.02117 24
857 1 -4.81099 10.8378 15.6989 10
858 1 4.22806 6.49392 -7.41178 21
859 1 -2.82575 -7.21165 -18.4074 9
860 1 -9.56918 14.2294 7.18783 13
861 1 -16.9205 -8.57678 8.69051 13
862 1 4.9432 12.414 -2.50297 16
863 1 0.0447022 6.56251 11.3807 21
864 1 13.1652 -0.944469 -1.87599 15
865 1 6.65439 -10.8899 12.0945 14
866 1 -3.70815 9.01051 -10.4473 17
867 1 1.9388 11.6465 -8.5416 10
868 1 -4.22692 4.44534 16.3458 16
869 1 13.1052 6.0497 9.04157 13
870 1 -4.65178 -4.35493 -8.90809 19