ITEM: TIMESTEP
35000
ITEM: NUMBER OF ATOMS
2000
ITEM: BOX BOUNDS pp pp pp
-30.0 30.0
-30.0 30.0
-30.0 30.0
ITEM: ATOMS id type x y z Coordination
1 2 -16.5458 -0.398401 -4.00022 15
2 1 -4.67785 -16.6122 -3.03687 11
3 2 -3.40292 -17.4907 -1.89203 10
4 1 -3.98512 -16.3332 2.72846 13
5 2 -2.76602 -16.7979 4.14967 13
6 1 -0.0669121 -16.5564 -4.98439 14
7 1 3.47891 -17.5736 -4.88244 9
8 2 -0.0688223 -16.7198 -3.1791 16
9 2 3.84041 -17.0181 -3.14625 14
10 1 0.110915 -16.661 0.737973 17
11 1 0.966491 -17.038 7.18215 10
12 1 3.2939 -17.3233 0.277485 13
13 2 0.568527 -16.7118 2.30374 16
14 2 3.12572 -17.6968 2.03691 11
15 2 -7.10475 -6.37496 -14.2824 13
16 2 -7.06253 -2.91328 -15.3929 13
17 2 -1.50475 -4.82722 -15.696 16
18 2 -3.2742 -1.98321 -16.0374 15
19 2 -5.28031 0.501537 -15.6904 13
20 2 -6.88026 5.57869 -14.0393 16
21 2 -1.70122 0.843511 -15.9892 16
22 2 -3.40611 3.69388 -16.195 13
23 2 1.50327 7.20026 -16.4137 12
24 2 -3.39597 -7.72743 -15.5968 13
25 2 2.19194 -4.95417 -15.9932 10
26 2 0.0843894 -1.96101 -15.8358 14
27 2 7.08183 -5.01117 -14.5039 12
28 2 7.34873 -1.53469 -15.1785 14
29 2 8.60357 1.19041 -14.9867 11
30 2 1.9968 0.986906 -15.9217 14
31 2 -0.255775 3.84982 -16.2237 16
32 2 1.54561 8.87396 -14.0188 15
33 2 5.19719 1.41051 -15.5088 12
34 2 2.93641 3.76938 -15.8068 14
35 2 6.56498 6.11052 -13.0781 13
36 1 -15.5881 -9.30388 -5.74896 8
37 1 -16.5052 -8.01201 -2.57578 12
38 1 -15.0223 -4.44151 -8.41964 12
39 1 -17.4443 -4.47849 -3.92536 9
40 1 -17.4105 -2.59305 -7.16404 11
41 1 -17.2454 0.454355 -5.53102 13
42 1 -15.4217 -2.60538 -4.79164 17
43 1 -14.9698 -5.3393 -2.2038 18
44 1 -16.7441 -1.71472 -2.36877 14
45 1 -13.0147 -11.5894 -5.27852 13
46 1 -12.2349 -8.42129 -10.1601 15
47 1 -10.5097 -10.638 -10.3152 14
48 1 -12.2811 -10.5164 -7.80239 13
49 1 -13.7154 -7.51172 -7.54495 14
50 1 -13.006 -6.38018 -4.82399 16
51 1 -11.3931 -8.90072 -5.02047 23
52 1 -11.9832 -10.7274 -2.31436 17
53 1 -13.3649 -8.06972 -2.16898 24
54 1 -13.0962 -4.96616 -10.7189 12
55 1 -14.871 -2.00518 -10.8595 11
56 1 -11.9195 -2.36893 -10.1909 21
57 1 -11.9479 -4.88818 -7.46668 23
58 1 -13.6127 -1.79833 -7.35468 21
59 1 -13.5873 0.0766548 -5.01223 19
60 1 -11.7363 -3.12038 -4.82419 19
61 1 -11.6342 -4.95319 -2.31243 23
62 1 -13.4982 -1.71896 -2.23897 22
63 1 -9.77513 -13.0326 -8.31359 14
64 1 -9.91734 -11.9001 -5.0743 20
65 1 -8.19185 -14.6222 -5.18361 14
66 1 -9.90013 -13.0601 -2.30755 14
67 1 -10.6856 -7.90418 -12.6665 11
68 1 -10.0817 -5.41651 -9.99187 22
69 1 -8.59683 -8.07725 -10.3289 20
70 1 -8.90017 -10.4713 -7.85275 21
71 1 -10.316 -7.51227 -7.81648 20
72 1 -10.1327 -5.97453 -4.91572 21
73 1 -8.39118 -8.52512 -5.16767 24
74 1 -8.58634 -10.5741 -2.33042 22
75 1 -10.0965 -7.76934 -2.21106 24
76 1 -10.1447 -2.41281 -13.029 17
77 1 -8.04021 -4.5259 -15.295 12
78 1 -8.31779 -5.57528 -13.0758 19
79 1 -9.94041 -0.0951364 -10.1588 23
80 1 -8.37072 -3.14872 -10.4784 20
81 1 -8.10175 -4.69758 -7.56369 21
82 1 -10.2496 -2.22452 -7.61016 22
83 1 -10.1615 0.0795966 -4.92758 23
84 1 -8.58491 -2.95375 -4.77494 24
85 1 -8.42723 -5.20715 -2.15214 24
86 1 -10.1775 -2.06365 -2.20014 21
87 1 -7.74374 -12.1046 -10.4159 11
88 1 -6.39856 -13.1056 -7.55171 18
89 1 -6.59172 -11.8677 -4.85918 23
90 1 -4.92348 -14.3234 -5.08128 19
91 1 -3.4798 -17.5223 -0.0687023 9
92 1 -6.57515 -13.7544 -2.1026 21
93 1 -3.79368 -8.31237 -12.5565 18
94 1 -4.47324 -11.3539 -13.0621 10
95 1 -7.01606 -7.99159 -13.0063 15
96 1 -6.62692 -5.91314 -10.1972 23
97 1 -5.17767 -8.67354 -10.1564 22
98 1 -5.47997 -10.3193 -7.4274 20
99 1 -6.9993 -7.68652 -7.73501 23
100 1 -6.4932 -5.78681 -5.23614 20
101 1 -4.91123 -8.42602 -4.88163 23
102 1 -5.4712 -10.5836 -2.43596 20
103 1 -6.86457 -7.64646 -2.16992 23
104 1 -6.76325 -0.604881 -15.5416 11
105 1 -4.89326 -3.25494 -15.76 15
106 1 -4.63848 -5.40211 -13.3824 23
107 1 -7.10139 -2.05835 -13.2995 20
108 1 -6.80615 -0.188722 -10.4089 22
109 1 -5.33511 -2.91874 -10.9785 20
110 1 -4.67331 -4.90401 -7.9204 22
111 1 -6.64796 -1.94781 -7.53294 22
112 1 -6.6225 0.133606 -5.28519 22
113 1 -5.10067 -3.17603 -4.83704 21
114 1 -4.83862 -4.70162 -2.65112 23
115 1 -7.06583 -1.92948 -2.5996 20
116 1 -4.69995 -11.6801 -10.1456 15
117 1 -4.69947 -16.3301 -9.26986 6
118 1 -3.48253 -17.1692 -6.3236 12
119 1 -3.2332 -13.5761 -8.0672 20
120 1 -3.49148 -11.2958 -5.00063 24
121 1 -1.92095 -14.379 -5.46558 22
122 1 -1.79612 -16.3687 -2.36663 18
123 1 -3.51051 -13.4938 -2.67565 20
124 1 -5.71543 -7.35713 -15.3369 12
125 1 -2.91563 -5.92357 -15.6891 16
126 1 -1.99229 -13.2765 -10.6907 12
127 1 -1.08602 -7.17581 -12.9992 21
128 1 -3.17919 -5.83965 -10.8074 22
129 1 -1.76437 -8.86853 -10.2605 21
130 1 -2.21005 -10.5768 -7.65401 20
131 1 -3.27844 -7.73121 -7.74367 24
132 1 -3.04458 -5.91218 -5.14129 21
133 1 -1.54167 -8.7099 -5.13147 21
134 1 -1.77746 -10.8258 -2.13142 20
135 1 -3.43338 -7.64606 -2.21276 23
136 1 -3.33171 -0.0426329 -15.8641 18
137 1 -1.58524 -2.8529 -15.6264 19
138 1 -1.53311 -4.53956 -13.0797 21
139 1 -3.37531 -1.96948 -12.9513 22
140 1 -3.62497 0.0387999 -10.3351 21
141 1 -1.79866 -3.05811 -10.2249 23
142 1 -1.61766 -4.71193 -7.68543 23
143 1 -3.35429 -1.87547 -7.52384 22
144 1 -3.37618 0.150115 -5.16709 22
145 1 -1.79955 -2.95295 -4.95286 24
146 1 -1.61416 -4.93173 -2.37373 23
147 1 -3.58119 -1.82273 -2.8023 21
148 2 -15.9842 -7.59492 0.0133293 12
149 2 -16.2775 -9.74418 -4.14971 10
150 2 -13.3685 -11.3039 -3.58623 14
151 2 -16.6766 -6.13381 -3.098 11
152 2 -15.3819 -3.18374 -7.01562 15
153 2 -17.7316 -3.15745 -5.26376 10
154 2 -14.8389 -4.97679 -0.168648 19
155 2 -16.3499 -1.74396 -0.58989 14
156 2 -17.0891 -0.649537 -7.13119 11
157 2 -16.0846 -3.55925 -2.79728 14
158 2 -14.1387 -10.448 -6.71754 12
159 2 -8.0512 -13.1676 -8.81625 14
160 2 -14.2984 -7.70719 -5.56671 15
161 2 -12.1119 -8.32109 -8.14327 21
162 2 -11.4113 -10.7458 -5.6659 17
163 2 -11.332 -10.6819 -0.471391 20
164 2 -13.2108 -7.83374 -0.0869434 22
165 2 -13.3906 -6.26868 -2.96283 20
166 2 -11.6843 -8.63186 -3.03514 23
167 2 -13.6551 -5.77145 -7.98247 16
168 2 -14.3277 -3.66144 -9.87377 13
169 2 -11.4697 -4.13536 -10.0785 18
170 2 -11.8905 -4.90931 -5.38901 20
171 2 -13.4557 -1.95259 -4.79465 16
172 2 -13.9139 0.0602678 -7.74915 22
173 2 -12.0532 -2.86105 -7.35481 17
174 2 -11.6543 -4.82918 -0.281597 22
175 2 -13.2949 -2.00758 -0.478376 24
176 2 -13.5028 0.232469 -2.98442 20
177 2 -11.9934 -2.95714 -2.76335 19
178 2 -10.6442 -11.2929 -8.31846 18
179 2 -11.0797 -9.37236 -11.6299 11
180 2 -9.31481 -13.6082 -0.546307 15
181 2 -10.0185 -11.5061 -3.32114 21
182 2 -8.49491 -13.8667 -3.55352 16
183 2 -8.78006 -10.5545 -11.0266 15
184 2 -10.6327 -7.12728 -10.4501 18
185 2 -13.3653 -6.88168 -10.4501 13
186 2 -8.8668 -7.47656 -12.7587 15
187 2 -8.31396 -10.9059 -5.89658 25
188 2 -10.062 -7.82591 -5.84185 20
189 2 -10.0384 -5.5687 -7.92227 21
190 2 -8.74538 -8.71217 -8.52127 24
191 2 -8.23716 -10.9743 -0.481655 23
192 2 -9.94507 -7.42812 -0.235909 23
193 2 -10.0826 -6.06049 -2.94006 24
194 2 -8.47692 -8.90414 -3.29104 24
195 2 -8.30475 -5.14424 -10.7946 21
196 2 -9.99946 -2.05703 -10.905 20
197 2 -10.3431 -0.390335 -13.0948 13
198 2 -8.3561 -3.59048 -13.2579 15
199 2 -8.43867 -4.8754 -5.38625 22
200 2 -10.0617 -1.90448 -5.36962 19
201 2 -10.3955 0.181477 -7.7996 22
202 2 -8.30236 -2.86544 -8.30897 24
203 2 -8.16855 -4.8924 0.0308561 20
204 2 -9.93128 -1.84365 -0.0580439 20
205 2 -10.0861 0.180513 -2.87736 23
206 2 -8.43486 -3.16977 -2.44877 19
207 2 -4.50189 -16.1741 -4.97536 13
208 2 -9.57527 -13.6196 -6.4678 13
209 2 -6.45807 -11.4377 -8.81877 20
210 2 -6.36177 -13.7662 -5.77336 19
211 2 -4.2027 -16.0075 0.899601 14
212 2 -6.70924 -13.639 -0.138792 18
213 2 -6.56926 -11.8943 -2.98171 23
214 2 -5.16416 -14.8943 -2.68867 18
215 2 -4.72483 -10.1577 -11.4235 17
216 2 -6.78612 -8.08658 -11.0195 18
217 2 -5.1484 -7.82281 -13.5997 20
218 2 -3.03719 -10.477 -14.0267 12
219 2 -5.43581 -10.2736 -5.51649 21
220 2 -6.56086 -7.76572 -5.56346 21
221 2 -6.5151 -5.92044 -8.06616 20
222 2 -5.00767 -8.71569 -8.09748 22
223 2 -5.02726 -10.7425 -0.124086 19
224 2 -6.85799 -7.78687 -0.204476 24
225 2 -6.90269 -5.94876 -3.16985 24
226 2 -5.06543 -8.58617 -2.7238 19
227 2 -5.03796 -4.72874 -10.3923 19
228 2 -7.02065 -2.12902 -11.1066 22
229 2 -7.04794 -0.19918 -13.7005 19
230 2 -4.86964 -3.43965 -13.1886 20
231 2 -4.92299 -4.86502 -5.80266 24
232 2 -6.86199 -2.20365 -5.45196 19
233 2 -6.83719 -0.114451 -8.27442 22
234 2 -4.75358 -2.82953 -8.01864 22
235 2 -5.00701 -4.98768 -0.496486 23
236 2 -6.8808 -1.8915 -0.545023 23
237 2 -6.77386 0.239693 -3.46584 24
238 2 -5.41295 -2.93857 -2.80524 21
239 2 -5.21145 -14.5011 -8.57018 14
240 2 -3.12522 -12.3669 -11.7474 11
241 2 -1.27194 -16.0564 -6.60091 16
242 2 -3.47366 -13.3275 -6.00514 23
243 2 -3.82195 -11.3684 -7.96893 21
244 2 -3.31426 -16.6039 -8.16982 10
245 2 -1.52696 -16.14 -0.2953 17
246 2 -3.42815 -13.4463 -0.391866 21
247 2 -3.88047 -11.5231 -2.91057 21
248 2 -2.33201 -14.5812 -3.57701 21
249 2 -1.86307 -9.01797 -12.312 20
250 2 -3.5533 -7.60875 -10.5045 20
251 2 -4.5933 -5.03198 -15.4905 15
252 2 -2.77269 -6.22759 -12.9307 22
253 2 -1.49585 -10.7071 -5.03764 22
254 2 -3.30256 -7.74846 -5.65405 24
255 2 -3.05058 -5.86076 -8.50884 23
256 2 -1.55453 -9.0591 -8.16856 18
257 2 -1.83662 -10.5433 0.188852 19
258 2 -3.47655 -7.4043 -0.290006 22
259 2 -3.18264 -5.54067 -2.98825 22
260 2 -1.73467 -8.66255 -2.79553 23
261 2 -1.47913 -4.66495 -11.2364 23
262 2 -3.27396 -1.75824 -10.9795 23
263 2 -3.5946 -0.0241579 -13.6513 22
264 2 -1.59904 -2.78992 -13.6495 23
265 2 -1.59039 -4.92143 -5.80469 25
266 2 -3.58041 -1.7973 -5.23672 19
267 2 -3.48423 0.141308 -8.41255 24
268 2 -1.60786 -2.82181 -8.27959 22
269 2 -1.76773 -5.09066 -0.456515 21
270 2 -3.31402 -1.91535 -0.314075 23
271 2 -3.35459 0.12773 -3.12759 23
272 2 -1.97139 -2.8853 -2.5826 20
273 1 -16.012 -6.02872 0.984204 14
274 1 -14.8416 -9.10873 0.425819 12
275 1 -15.9825 -7.45285 4.09323 10
276 1 -16.6308 0.0430618 0.079634 12
277 1 -15.4113 -3.22385 0.239355 16
278 1 -14.9048 -4.65007 2.86337 18
279 1 -16.7454 -1.45748 3.35576 14
280 1 -16.6483 3.0508 7.97075 11
281 1 -15.4676 -3.03553 6.11787 15
282 1 -14.1049 -4.86603 9.00619 11
283 1 -15.2333 -10.7891 -3.21746 10
284 1 -13.1291 -5.88556 0.182053 21
285 1 -11.5518 -8.95653 0.438925 22
286 1 -11.7372 -10.8659 3.04475 15
287 1 -13.1853 -7.78471 2.92262 20
288 1 -13.6428 -5.78374 5.79126 18
289 1 -11.4927 -8.9106 5.04354 16
290 1 -6.92528 -13.4993 8.12487 15
291 1 -13.6399 -8.15211 7.08156 9
292 1 -11.703 -2.6237 10.5718 15
293 1 -10.1483 -7.88012 12.9619 7
294 1 -13.1177 0.0102356 0.514068 23
295 1 -11.7585 -3.02427 0.654518 23
296 1 -11.5214 -4.68127 3.5276 22
297 1 -13.4299 -1.58655 3.31084 21
298 1 -13.1386 0.270687 5.81652 22
299 1 -11.5597 -2.82525 5.53316 22
300 1 -11.5126 -4.85017 7.89345 19
301 1 -16.3322 0.247266 5.99147 14
302 1 -13.1248 0.263683 11.0492 12
303 1 -13.3735 -1.92467 8.25002 17
304 1 -9.84235 -11.7797 0.200821 18
305 1 -8.26399 -14.7799 0.313281 13
306 1 -10.0051 -13.4597 2.71542 13
307 1 -11.0596 -12.0203 6.24795 10
308 1 -8.71421 -13.3261 5.94345 13
309 1 -9.99243 -5.93403 0.717381 24
310 1 -8.45266 -8.70377 0.294696 22
311 1 -8.31821 -10.813 3.02899 25
312 1 -9.85338 -7.96879 3.2299 23
313 1 -9.67935 -6.26913 5.47895 21
314 1 -8.30657 -9.06097 5.7439 24
315 1 -8.46992 -10.5966 8.4483 17
316 1 -10.4255 -7.89076 8.11594 17
317 1 -10.288 -5.78988 10.6533 14
318 1 -8.47209 -8.77338 11.025 17
319 1 -10.2856 0.0720111 0.341137 23
320 1 -8.56827 -3.12764 0.409839 22
321 1 -8.30951 -4.78736 3.04666 21
322 1 -10.163 -1.85613 2.93742 21
323 1 -10.0679 0.220971 5.62475 23
324 1 -8.6773 -2.69656 5.60301 21
325 1 -8.25754 -4.67229 7.63441 20
326 1 -10.1425 -1.88446 8.2124 23
327 1 -9.85034 -0.322341 11.3506 20
328 1 -8.32057 -2.87945 10.1037 18
329 1 -8.1656 -5.23338 13.3831 12
330 1 -8.52841 -1.84837 14.6862 11
331 1 -6.60735 -11.6999 0.355067 24
332 1 -5.03133 -14.8899 -0.298206 17
333 1 -2.43516 -17.0907 6.027 11
334 1 -6.84525 -13.8312 2.92296 19
335 1 -6.5345 -11.2995 5.67243 22
336 1 -5.3097 -14.7657 5.39289 16
337 1 -4.87375 -13.8026 11.2267 12
338 1 -6.37973 -11.5668 10.5903 14
339 1 -6.45503 -5.83404 0.317144 21
340 1 -4.86785 -8.7236 0.488675 23
341 1 -4.95092 -10.8934 3.09128 23
342 1 -6.70739 -7.92056 3.17946 22
343 1 -6.60322 -5.82092 5.30446 20
344 1 -4.97982 -8.93697 6.02927 24
345 1 -5.2383 -10.304 8.50196 20
346 1 -7.06284 -7.57943 8.02998 21
347 1 -7.00962 -5.77052 10.4979 21
348 1 -4.8672 -8.30578 10.4619 22
349 1 -4.67888 -10.627 13.9383 9
350 1 -6.43441 -7.95397 13.2519 15
351 1 -6.80558 -0.152031 0.410125 26
352 1 -5.0565 -2.74635 0.210071 21
353 1 -5.11471 -4.55175 2.84801 20
354 1 -6.7141 -1.87161 3.02543 23
355 1 -6.66605 -0.0684677 6.06392 25
356 1 -5.28851 -2.45955 5.56663 22
357 1 -5.13955 -5.03057 7.90015 22
358 1 -6.48756 -2.10287 8.50976 23
359 1 -6.54453 0.201494 10.508 21
360 1 -5.03953 -2.7952 10.5093 20
361 1 -4.95769 -4.66106 13.3587 20
362 1 -6.65529 -1.78569 12.7927 18
363 1 -3.4905 -11.6846 0.515429 19
364 1 -1.85225 -14.184 0.279635 22
365 1 -0.802908 -16.5229 3.87482 16
366 1 -3.1085 -13.5755 3.23031 22
367 1 -3.07166 -11.3643 5.17436 19
368 1 -4.04045 -15.8031 8.49525 13
369 1 -3.56163 -12.9154 7.54395 20
370 1 -3.3149 -11.1833 11.0144 21
371 1 -1.65338 -14.5184 10.095 11
372 1 -3.49311 -5.55435 0.403845 23
373 1 -1.64258 -8.61782 0.122164 20
374 1 -1.64714 -10.5061 2.54067 20
375 1 -3.3607 -7.58914 2.80561 21
376 1 -3.36685 -5.83008 5.48073 26
377 1 -1.54647 -8.53701 5.30093 21
378 1 -1.68487 -10.1826 8.20541 20
379 1 -3.28265 -7.72134 8.41573 24
380 1 -3.41859 -5.45739 10.8626 21
381 1 -1.35225 -8.6455 10.6982 21
382 1 -1.24338 -10.7225 13.5895 13
383 1 -3.16112 -7.75146 13.0757 20
384 1 -3.63407 0.0689358 0.139989 23
385 1 -1.78344 -2.86127 0.343391 25
386 1 -1.4345 -4.61295 3.04587 21
387 1 -2.88276 -1.9441 3.05808 22
388 1 -3.438 0.0272858 5.60009 20
389 1 -1.71946 -2.93285 5.67578 23
390 1 -1.42326 -4.79635 8.45134 23
391 1 -3.22525 -1.80691 7.97931 21
392 1 -3.42379 0.250411 10.8597 22
393 1 -1.85414 -2.64472 10.9101 24
394 1 -1.88164 -4.47901 13.4778 23
395 1 -3.54536 -1.5176 13.4781 21
396 2 -16.4556 -6.19848 2.76654 11
397 2 -14.7856 -9.06769 2.30182 13
398 2 -14.9079 -4.38239 4.78973 17
399 2 -16.289 -1.44254 5.22759 13
400 2 -16.843 -0.0851367 2.07579 13
401 2 -14.9483 -2.69461 2.43282 21
402 2 -14.8308 -3.35963 8.0933 13
403 2 -14.6662 -9.52943 -1.64853 14
404 2 -11.7426 -10.8508 4.95911 16
405 2 -14.2793 -7.67644 5.38973 13
406 2 -13.1257 -5.97504 2.57399 23
407 2 -11.6234 -8.75509 2.56716 19
408 2 -13.3189 -6.03971 7.64902 14
409 2 -11.8056 -8.60092 6.88571 15
410 2 -11.9467 -4.7728 5.53791 19
411 2 -13.3075 -1.76653 5.16136 23
412 2 -12.8771 0.0877354 2.76381 20
413 2 -11.8226 -2.82164 2.46173 21
414 2 -12.0312 -4.42255 9.84932 15
415 2 -12.903 -1.29366 10.0583 15
416 2 -13.2232 -0.0328902 7.70488 20
417 2 -11.7119 -2.79189 7.54142 24
418 2 -14.6262 1.5291 10.7721 13
419 2 -10.2947 -13.3426 4.46271 12
420 2 -10.6567 -11.6274 1.97786 16
421 2 -8.49492 -14.645 2.04055 13
422 2 -9.32256 -11.8579 7.21754 13
423 2 -7.96743 -10.5983 4.7278 25
424 2 -9.81947 -8.31942 4.9818 19
425 2 -10.1188 -5.90645 2.66265 22
426 2 -8.19899 -8.75644 2.47547 22
427 2 -8.0357 -10.5065 10.3417 16
428 2 -10.3834 -7.77777 10.5262 15
429 2 -9.80201 -6.16391 7.3531 21
430 2 -8.2527 -8.82745 7.75545 21
431 2 -9.77346 -5.9712 12.6407 12
432 2 -8.05939 -8.57758 12.8559 12
433 2 -8.34446 -4.81488 5.30938 20
434 2 -10.0027 -1.66143 4.8709 26
435 2 -9.89021 0.237681 2.23193 23
436 2 -8.57763 -2.98114 2.37926 23
437 2 -8.49146 -4.84161 9.78344 23
438 2 -9.84981 -1.82868 10.1695 19
439 2 -10.1129 0.159727 7.57566 22
440 2 -8.4599 -2.74834 7.78405 22
441 2 -9.40938 -0.8523 13.0589 15
442 2 -7.67012 -3.36359 13.7821 14
443 2 -3.88462 -17.3974 7.46509 8
444 2 -6.73601 -13.4862 5.42986 17
445 2 -7.18427 -11.9952 2.25116 21
446 2 -4.78176 -14.4768 3.33061 15
447 2 -6.47252 -13.5121 10.0531 13
448 2 -6.35306 -11.6292 7.67989 20
449 2 -5.07697 -14.3644 7.29778 16
450 2 -4.90765 -10.7732 4.92015 22
451 2 -6.65781 -7.90866 5.28755 21
452 2 -6.70524 -5.96078 2.41817 24
453 2 -5.1752 -9.04605 2.46251 23
454 2 -4.90512 -10.1468 10.6037 22
455 2 -6.63108 -7.51649 10.345 20
456 2 -6.78144 -5.76326 7.41498 22
457 2 -5.11809 -8.11112 7.79939 21
458 2 -6.51622 -5.98969 12.6745 18
459 2 -5.29893 -12.0975 12.1393 10
460 2 -5.08903 -4.64508 5.24383 21
461 2 -6.9747 -1.83347 4.96829 23
462 2 -6.7528 0.0864021 2.4236 23
463 2 -5.25247 -2.77904 2.12978 25
464 2 -4.95391 -4.69736 9.93577 24
465 2 -6.77145 -2.03411 10.6763 20
466 2 -6.63964 -0.232268 8.17102 23
467 2 -4.87255 -2.87799 7.56028 22
468 2 -4.3172 -4.86078 15.3656 15
469 2 -5.67125 -1.56355 16.7746 10
470 2 -5.82797 0.019724 12.8327 22
471 2 -4.86405 -2.73414 12.5767 21
472 2 -0.721089 -16.4366 6.51195 13
473 2 -2.64627 -13.1891 5.44044 20
474 2 -3.21007 -11.7313 2.43872 21
475 2 -1.5406 -14.6979 2.58189 20
476 2 -3.32181 -14.3408 10.7529 10
477 2 -3.57308 -11.1791 7.97862 19
478 2 -2.60228 -14.2935 8.48938 13
479 2 -3.07465 -10.8287 12.8948 14
480 2 -1.33988 -10.4926 4.59714 24
481 2 -3.58744 -8.06736 4.92437 22
482 2 -3.42118 -5.52288 2.61403 20
483 2 -1.68718 -8.535 2.21188 21
484 2 -1.40013 -10.4064 10.0625 20
485 2 -3.07259 -7.39911 10.2563 23
486 2 -3.11013 -5.78172 7.44271 22
487 2 -1.7615 -8.63325 7.24811 21
488 2 -4.62223 -8.71345 13.6228 16
489 2 -3.46112 -5.57435 12.9528 21
490 2 -1.24694 -8.81027 12.9388 18
491 2 -1.49774 -4.73278 4.82575 24
492 2 -3.43061 -2.10317 5.22464 23
493 2 -3.47605 -0.353875 2.17858 22
494 2 -1.35003 -2.83226 2.33002 23
495 2 -1.53015 -4.58237 10.7241 21
496 2 -3.54307 -1.48307 10.1479 23
497 2 -3.48344 0.314776 7.54014 23
498 2 -1.70149 -3.01941 7.70904 22
499 2 -1.49397 -4.34714 16.6739 11
500 2 -3.64302 -1.88699 15.3411 21
501 2 -3.10925 0.374572 12.9364 23
502 2 -1.82919 -2.52468 13.0081 21
503 1 -13.7821 0.341456 -9.56619 16
504 1 -15.7486 0.354821 -7.98382 16
505 1 -16.6133 6.56735 -4.66548 11
506 1 -15.1118 3.07457 -5.41941 18
507 1 -15.2863 1.0652 -2.54219 15
508 1 -16.5015 5.71329 -0.689358 11
509 1 -17.2245 3.69804 -7.26733 9
510 1 -14.5476 8.65679 -5.18397 16
511 1 -14.6127 7.35586 -2.10634 19
512 1 -11.9953 0.139779 -12.3287 11
513 1 -14.9955 6.49046 -7.70198 12
514 1 -12.1145 2.75656 -10.0762 15
515 1 -11.9891 1.30764 -7.65183 21
516 1 -14.096 3.59164 -7.79092 21
517 1 -13.5458 5.75456 -5.0806 24
518 1 -11.914 2.9115 -4.84811 24
519 1 -11.7513 1.06456 -2.47994 22
520 1 -13.8878 4.06409 -2.44695 22
521 1 -12.3453 8.45965 -10.0639 9
522 1 -12.0726 6.07606 -7.65726 19
523 1 -10.625 12.0004 -8.93652 9
524 1 -12.5588 11.7382 -5.76212 11
525 1 -11.5306 8.49545 -5.1077 21
526 1 -11.5135 6.8723 -2.34346 21
527 1 -13.816 10.3237 -3.14434 12
528 1 -11.8476 12.7899 -2.28568 11
529 1 -8.86644 6.36042 -14.616 10
530 1 -8.89629 0.861814 -12.8841 20
531 1 -9.89466 3.92224 -12.6418 15
532 1 -10.3654 5.72167 -10.4673 17
533 1 -8.35946 3.06132 -10.4457 21
534 1 -8.56277 0.765341 -7.58138 21
535 1 -10.1644 3.95764 -7.82668 24
536 1 -10.1393 5.94428 -4.98456 24
537 1 -8.84182 2.86811 -4.82646 23
538 1 -8.27902 0.952819 -2.48818 23
539 1 -10.2723 3.93368 -2.03889 22
540 1 -10.1977 7.44092 -12.791 11
541 1 -8.53119 8.50264 -10.2991 18
542 1 -8.3469 6.6517 -7.52116 24
543 1 -9.91446 9.13331 -7.9777 20
544 1 -9.86372 11.2382 -5.22145 20
545 1 -8.2259 8.3846 -5.12668 22
546 1 -8.20117 6.53584 -2.41755 21
547 1 -10.1888 9.87162 -2.54337 23
548 1 -7.98176 12.8028 -7.53426 16
549 1 -8.32039 14.2461 -5.22585 12
550 1 -8.1728 12.7496 -2.57305 17
551 1 -3.2594 5.52322 -15.7755 15
552 1 -5.04991 2.56981 -15.7287 16
553 1 -5.25341 0.663993 -13.2267 21
554 1 -6.93227 3.57645 -13.2716 20
555 1 -6.78904 5.59893 -10.6266 20
556 1 -5.18487 2.60226 -10.5115 22
557 1 -5.1881 0.956484 -7.67903 21
558 1 -6.7411 3.54382 -7.80892 23
559 1 -6.59336 5.58734 -4.97736 22
560 1 -5.37354 3.0036 -4.88758 22
561 1 -5.07596 0.880364 -2.37185 25
562 1 -6.88215 3.72999 -2.16744 23
563 1 -5.68051 6.64857 -13.3752 19
564 1 -6.58088 9.11452 -13.1335 14
565 1 -7.23978 11.2707 -10.0647 15
566 1 -4.92606 8.43302 -10.5857 19
567 1 -5.05668 6.56457 -7.8058 24
568 1 -6.6006 9.44886 -7.46823 24
569 1 -6.63635 11.535 -4.92651 20
570 1 -5.2296 8.6944 -4.83055 23
571 1 -4.7478 6.67637 -2.2302 21
572 1 -6.71817 9.50399 -2.13473 23
573 1 -4.83823 12.3417 -7.43918 23
574 1 -5.21463 15.2209 -7.35682 12
575 1 -4.94667 14.3111 -5.06496 18
576 1 -4.70078 12.582 -2.26646 23
577 1 -6.66767 15.5355 -2.49865 11
578 1 -0.27975 5.66477 -16.0321 15
579 1 -1.9188 2.70174 -15.485 19
580 1 -1.82862 0.783593 -12.6185 24
581 1 -3.49688 3.77529 -12.8816 23
582 1 -3.39545 5.74637 -10.2388 24
583 1 -1.78957 2.74974 -10.0696 25
584 1 -1.69275 0.902882 -7.78334 21
585 1 -3.51761 3.60669 -7.6278 22
586 1 -3.42983 5.96432 -5.10928 21
587 1 -1.84179 3.38333 -5.26248 21
588 1 -1.84306 1.07533 -2.50989 23
589 1 -3.62558 3.67617 -2.63756 22
590 1 -1.89577 8.58446 -15.3678 15
591 1 -1.70809 6.37677 -13.4155 22
592 1 -3.22097 9.52586 -12.8601 16
593 1 -3.93506 11.6962 -10.5324 18
594 1 -1.91797 8.50082 -10.542 20
595 1 -1.54646 6.64809 -7.96835 21
596 1 -3.37386 9.55578 -7.60197 22
597 1 -3.02633 11.6856 -4.90591 20
598 1 -1.65987 8.60947 -5.11597 20
599 1 -1.50759 6.64975 -2.19682 21
600 1 -3.41789 9.43571 -2.61096 19
601 1 -1.70037 12.7421 -12.7076 10
602 1 -5.66718 14.4195 -10.4358 9
603 1 -1.50765 12.6215 -7.45868 20
604 1 -2.62228 14.4973 -9.51052 13
605 1 -3.23992 17.2615 -5.3071 11
606 1 -1.3678 14.5659 -5.00038 23
607 1 -1.49427 12.4661 -2.12221 21
608 1 -3.04739 15.6317 -2.60217 20
609 2 -16.443 2.09968 -6.42606 14
610 2 -16.7178 4.61891 -4.96746 13
611 2 -15.3949 -0.462347 -9.83856 12
612 2 -15.0245 0.995526 -0.233744 19
613 2 -15.9477 4.23566 0.622547 13
614 2 -16.0628 6.19126 -2.42675 13
615 2 -14.791 2.64723 -3.27634 20
616 2 -15.1528 6.93885 -5.91454 17
617 2 -15.4177 7.23462 -0.166886 15
618 2 -14.8517 8.62228 -3.29104 14
619 2 -12.7428 -1.24938 -11.2331 14
620 2 -14.0618 2.19648 -9.31306 11
621 2 -11.6096 1.11375 -10.7889 18
622 2 -12.0881 1.09621 -5.5946 21
623 2 -13.3979 4.02066 -5.74945 21
624 2 -15.7736 4.86797 -7.95555 14
625 2 -12.0485 3.55098 -8.11278 20
626 2 -11.6775 1.23412 -0.30819 21
627 2 -13.4481 4.08178 -0.251116 21
628 2 -13.1177 5.95323 -2.77399 23
629 2 -11.6207 3.0282 -2.83578 22
630 2 -13.2451 7.33129 -8.70834 15
631 2 -11.8762 6.72057 -5.83056 23
632 2 -12.8837 9.76228 -5.66987 15
633 2 -10.79 9.65925 -9.51832 13
634 2 -11.5791 6.93194 -0.298661 22
635 2 -13.8218 9.90238 0.542472 13
636 2 -12.7905 11.9277 -3.71801 13
637 2 -11.3683 8.52456 -3.28385 23
638 2 -11.4876 12.0023 -7.30976 11
639 2 -11.6224 12.5759 -0.405682 13
640 2 -8.4285 1.05174 -10.7168 20
641 2 -10.318 3.65669 -10.8055 17
642 2 -10.1229 5.62472 -13.164 11
643 2 -8.57561 2.7441 -13.1324 14
644 2 -8.20428 1.24415 -5.71182 22
645 2 -10.2941 3.75278 -5.86512 23
646 2 -10.2208 5.96179 -8.17296 21
647 2 -8.56192 2.74894 -8.21737 21
648 2 -8.23103 0.818945 -0.551566 22
649 2 -9.95262 3.33582 -0.315514 21
650 2 -10.0029 5.75668 -2.83109 22
651 2 -8.44973 2.82574 -2.93071 24
652 2 -8.42299 6.3934 -10.9789 22
653 2 -11.145 7.443 -11.031 13
654 2 -8.19754 7.91705 -13.2622 12
655 2 -8.15132 6.44878 -5.78099 24
656 2 -9.79799 9.3042 -6.16399 22
657 2 -8.82611 11.9503 -9.15107 13
658 2 -7.81424 8.555 -8.38189 20
659 2 -8.1633 6.95843 -0.0215976 19
660 2 -10.3298 9.66124 -0.608971 22
661 2 -10.4787 11.6358 -3.12615 20
662 2 -8.49781 8.47687 -3.12365 23
663 2 -8.45989 12.2672 -5.5423 17
664 2 -8.17233 12.6129 -0.710866 21
665 2 -7.85656 14.492 -3.4239 14
666 2 -5.26789 0.561859 -11.2487 23
667 2 -6.62066 3.7272 -11.2828 23
668 2 -3.93725 5.59514 -13.9325 19
669 2 -5.24273 2.76166 -13.8093 20
670 2 -5.06642 0.969251 -5.80731 23
671 2 -6.85237 3.85512 -5.67999 24
672 2 -6.60079 5.57306 -8.21293 22
673 2 -5.12266 2.82559 -8.4845 25
674 2 -5.22776 1.08589 -0.196582 24
675 2 -6.85313 3.47541 0.0553685 20
676 2 -6.48454 5.82816 -2.95667 23
677 2 -5.33788 2.78057 -2.89192 22
678 2 -5.07638 6.45721 -10.7806 21
679 2 -6.56021 9.55536 -10.8733 19
680 2 -4.95366 8.57735 -13.5717 14
681 2 -5.03637 6.93244 -5.69763 22
682 2 -6.78818 9.78024 -5.36944 20
683 2 -6.58218 11.3964 -8.11253 19
684 2 -4.87873 8.40107 -8.04461 22
685 2 -5.10766 6.48388 -0.243766 23
686 2 -7.02018 9.67535 -0.208223 20
687 2 -6.57114 11.3871 -2.67554 20
688 2 -5.04185 8.7522 -2.50854 19
689 2 -5.58358 12.4253 -10.6335 13
690 2 -4.76586 12.574 -5.40765 23
691 2 -6.81096 14.3238 -6.55682 12
692 2 -3.82566 15.6652 -6.01304 15
693 2 -4.7286 12.6959 0.0498742 21
694 2 -6.4741 15.393 -0.650216 15
695 2 -4.71731 15.0016 -3.18776 16
696 2 -1.96569 0.905512 -10.6912 21
697 2 -3.18609 3.7314 -10.9615 22
698 2 -1.86952 6.6663 -15.6131 13
699 2 -1.72373 2.64376 -13.5893 23
700 2 -1.6177 0.729291 -5.82298 22
701 2 -3.62876 3.86925 -5.3775 21
702 2 -3.19622 5.35987 -8.17165 21
703 2 -1.57781 3.03605 -8.09658 20
704 2 -1.96124 0.82678 -0.649549 24
705 2 -3.17073 3.87666 -0.624699 25
706 2 -3.13699 6.17549 -3.19414 22
707 2 -1.70862 3.13444 -3.27886 23
708 2 -1.90469 6.55576 -11.0792 22
709 2 -3.45244 9.75113 -10.8698 20
710 2 -2.63319 11.332 -13.4626 12
711 2 -1.92505 8.25504 -13.3374 18
712 2 -1.80621 6.68131 -5.58159 21
713 2 -3.36414 9.64185 -5.23083 22
714 2 -3.168 11.5401 -7.80874 19
715 2 -1.78353 8.50157 -7.92112 21
716 2 -1.42256 6.53706 -0.225757 22
717 2 -3.15124 9.94642 -0.42077 23
718 2 -3.16193 12.0195 -2.9725 21
719 2 -1.53495 8.58517 -2.68018 21
720 2 -2.71658 13.0272 -10.9996 15
721 2 -1.44606 12.785 -5.62439 22
722 2 -1.47281 17.7721 -5.22664 10
723 2 -4.50606 14.5332 -8.93073 14
724 2 -1.45686 12.5909 0.115953 19
725 2 -2.74819 15.9699 -0.620933 18
726 2 -3.51133 17.9305 -3.63555 9
727 2 -1.32757 14.601 -2.78271 20
728 1 -16.481 4.05431 2.46319 12
729 1 -14.9568 2.75026 0.481982 18
730 1 -14.759 0.883474 3.31513 21
731 1 -16.6329 5.83624 5.55912 10
732 1 -14.8733 3.21528 5.13765 18
733 1 -14.7594 1.27114 8.79557 15
734 1 -15.2967 8.94866 0.678785 12
735 1 -14.8024 6.85258 3.4782 19
736 1 -15.491 8.99974 4.96101 8
737 1 -13.1812 5.79948 0.414373 21
738 1 -11.6331 3.147 0.317564 22
739 1 -11.3791 1.36207 3.03714 22
740 1 -13.3385 4.22074 2.99304 24
741 1 -13.234 6.19277 5.98518 22
742 1 -11.7841 3.38286 5.67217 22
743 1 -11.6802 1.026 8.46728 24
744 1 -13.2117 4.27432 8.95152 18
745 1 -12.5437 5.90954 11.9983 12
746 1 -10.9952 2.68652 11.2599 18
747 1 -15.1317 3.44137 11.0552 8
748 1 -12.7281 11.4255 0.645145 13
749 1 -12.1292 8.7334 0.179321 22
750 1 -11.7321 6.95018 3.32371 26
751 1 -13.4703 9.8002 2.98071 18
752 1 -12.2607 8.99105 6.1061 18
753 1 -11.5473 6.91477 8.68749 21
754 1 -10.9814 8.3706 11.6576 12
755 1 -11.0276 12.7634 2.95108 12
756 1 -9.9728 6.71158 0.541311 21
757 1 -8.42947 2.32747 0.572078 23
758 1 -8.38137 0.813146 3.28002 24
759 1 -10.0203 4.08153 2.80743 22
760 1 -10.1543 6.07857 5.76614 23
761 1 -8.46411 3.14822 5.33785 19
762 1 -8.45364 1.13838 8.20069 24
763 1 -9.93515 4.27683 8.1192 22
764 1 -9.42544 5.50404 11.2396 23
765 1 -8.12971 2.88229 10.8248 22
766 1 -8.18683 1.09483 13.577 16
767 1 -10.1459 3.79312 13.8883 11
768 1 -9.95643 11.7293 0.0131529 18
769 1 -8.67587 8.87914 0.0573128 23
770 1 -8.24247 6.74148 3.05198 25
771 1 -10.3189 10.0503 2.84438 21
772 1 -10.0077 11.3465 5.36019 18
773 1 -8.54665 8.76535 5.84143 23
774 1 -8.02322 6.90045 8.30279 22
775 1 -10.005 9.99107 8.49111 18
776 1 -8.13187 8.53663 11.0386 17
777 1 -8.11187 6.65879 13.6171 13
778 1 -7.81951 14.2571 0.24395 15
779 1 -8.08204 12.5627 2.92792 20
780 1 -8.96702 14.2019 5.71574 12
781 1 -9.58354 12.9878 8.36789 9
782 1 -6.66739 5.4796 0.204203 23
783 1 -5.0613 2.82688 0.493658 26
784 1 -5.01907 0.901242 2.95884 24
785 1 -6.76887 3.65037 2.85258 23
786 1 -6.83393 5.92483 5.43725 22
787 1 -5.11444 2.85563 5.68255 24
788 1 -4.96524 1.22983 8.30483 22
789 1 -6.87697 4.13969 8.27245 23
790 1 -6.23172 6.0594 11.1834 23
791 1 -4.78745 3.22328 11.1449 22
792 1 -4.79202 1.41575 13.8808 21
793 1 -6.46714 4.22666 13.459 16
794 1 -6.39261 11.7502 0.342164 22
795 1 -5.30149 8.64839 -0.116969 21
796 1 -5.20676 6.29332 2.77243 21
797 1 -7.03801 9.61733 2.80947 20
798 1 -6.29252 11.4713 5.63843 21
799 1 -4.9768 8.57517 5.94111 23
800 1 -4.98843 6.7781 8.44706 21
801 1 -6.54464 9.70631 8.44055 23
802 1 -6.97216 11.5432 11.205 13
803 1 -4.86846 8.89226 11.4632 21
804 1 -4.61734 7.33613 13.804 16
805 1 -4.78891 11.3532 13.4402 11
806 1 -4.64672 14.6784 0.055667 19
807 1 -4.83431 12.82 2.51315 22
808 1 -6.09684 15.3523 3.24659 13
809 1 -7.1287 14.0659 9.06801 10
810 1 -4.93355 12.1154 7.82407 18
811 1 -3.28665 5.54721 0.28181 23
812 1 -1.56077 2.64641 0.0765644 22
813 1 -1.93084 0.7651 2.72001 21
814 1 -3.37778 3.70744 2.93935 24
815 1 -3.50911 5.68308 5.6752 22
816 1 -1.58983 2.895 5.48714 24
817 1 -1.57703 1.21175 8.20122 22
818 1 -3.4269 3.90258 8.11688 23
819 1 -3.00727 5.94061 11.0818 24
820 1 -1.66878 3.13557 10.9837 24
821 1 -1.50564 1.45146 13.5931 20
822 1 -3.05064 4.38286 13.8381 22
823 1 -3.3202 11.4179 0.656547 23
824 1 -1.8998 8.38102 0.0217469 20
825 1 -1.8747 6.59619 2.71167 20
826 1 -3.6197 9.28874 2.99514 23
827 1 -3.26081 11.4411 4.87747 22
828 1 -1.96705 8.42829 5.67326 22
829 1 -1.79983 6.83953 8.25664 21
830 1 -3.35031 9.68199 8.54124 21
831 1 -3.76599 11.8691 10.594 17
832 1 -1.47806 8.89766 11.2269 24
833 1 -1.08995 7.08214 13.9883 20
834 1 -2.94955 9.4178 14.451 15
835 1 -2.40712 19.2869 -3.07537 9
836 1 -1.36138 14.6233 0.446355 22
837 1 -1.61723 12.505 2.73953 21
838 1 -2.94765 15.9985 2.39883 16
839 1 -2.0995 14.6434 5.23149 16
840 1 -1.52458 12.5529 7.95097 17
841 1 -5.35605 14.3191 5.75357 15
842 1 -1.95409 12.6354 12.7174 12
843 2 -14.9237 1.26106 5.13068 20
844 2 -16.6563 4.02442 6.42368 12
845 2 -16.3913 5.22186 3.80581 13
846 2 -15.091 2.88965 3.01115 16
847 2 -16.1999 1.16116 7.56886 11
848 2 -15.0188 3.41002 8.88223 11
849 2 -14.8575 7.2359 5.63091 15
850 2 -15.2166 8.67644 2.77023 13
851 2 -11.4178 1.53886 5.1844 23
852 2 -13.0299 4.47034 4.86284 22
853 2 -13.4436 6.04225 2.27059 25
854 2 -11.8093 3.06801 2.48497 24
855 2 -11.2145 0.728352 10.6785 18
856 2 -13.382 4.43533 10.9816 12