ITEM: TIMESTEP
8000
ITEM: NUMBER OF ATOMS
1500
ITEM: BOX BOUNDS pp pp pp
-30.0 30.0
-30.0 30.0
-30.0 30.0
ITEM: ATOMS id type x y z Coordination
1 1 -3.86438 -15.0698 -7.30913 17
2 1 6.96658 -14.9518 5.00835 10
3 1 -12.0092 5.22297 -6.87058 13
4 1 -13.52 3.07012 -9.16969 10
5 1 0.72492 -10.2326 12.3389 15
6 1 -13.358 -2.47654 -9.60768 15
7 1 -4.61857 0.681035 -4.89887 21
8 1 -3.40871 -13.4622 3.21552 17
9 1 -11.9908 -6.7459 4.6589 16
10 1 2.679 3.7678 13.5479 14
11 1 6.60158 -5.65352 6.67885 21
12 1 -2.85302 5.02487 12.0402 16
13 1 3.54726 -8.41754 2.44707 19
14 1 -2.3655 4.5871 -7.48266 16
15 1 2.19107 1.27377 12.7531 20
16 1 14.1886 3.80797 6.11266 15
17 1 1.51808 6.29646 -11.1337 16
18 1 4.35827 2.46391 -13.6995 21
19 1 -8.28362 -2.11699 -1.63955 21
20 1 -2.99183 -4.71219 -10.4869 21
21 1 4.58914 -16.4322 2.25423 10
22 1 3.29634 -6.4331 7.67171 25
23 1 10.014 -9.29854 0.509389 15
24 1 -4.40104 -14.6591 -10.1446 12
25 1 3.64212 -7.0592 -5.70639 18
26 1 -0.0504383 -5.30108 -15.7639 16
27 1 -0.794009 2.18502 12.6496 19
28 1 1.50972 -10.4004 9.31706 17
29 1 7.21159 -7.73366 13.2376 12
30 1 -6.90378 -5.19542 4.23064 19
31 1 -11.05 -2.81662 -2.30288 16
32 1 -0.455491 10.2 -0.675416 19
33 1 1.71865 1.15123 -8.87225 22
34 1 5.729 -3.03915 -18.6344 9
35 1 0.614201 -3.53624 14.4926 14
36 1 -9.28562 2.88302 -3.51754 17
37 1 0.159251 12.2377 8.96023 12
38 1 -5.73241 4.83736 -9.02193 18
39 1 1.96335 11.7508 -2.19054 19
40 1 0.106843 -15.1787 -0.332071 20
41 1 3.4571 -10.0126 -8.35149 20
42 1 -7.42655 3.83371 10.3319 11
43 1 -11.3084 -6.54615 -13.7459 11
44 1 8.32791 -0.758657 4.27151 19
45 1 -8.35261 6.38394 -3.31975 20
46 1 -6.09105 -14.4127 7.216 9
47 1 -10.0653 3.35651 -9.32151 16
48 1 5.20782 3.66637 -6.20198 22
49 1 3.76958 2.64292 4.65467 22
50 1 7.15301 4.43819 10.5573 15
51 1 5.09796 -16.4466 -2.99997 9
52 1 7.73319 -0.244874 10.7537 19
53 1 4.59853 -4.85284 -7.6338 18
54 1 8.84853 -12.1439 2.86554 13
55 1 -7.05242 -8.19462 3.33063 22
56 1 6.97598 -5.05817 14.6753 15
57 1 -6.85435 -11.7878 3.95332 17
58 1 -7.55477 -6.33729 -1.32662 19
59 1 15.2302 0.713923 4.79624 15
60 1 8.79743 -4.94468 -3.80082 23
61 1 3.92541 9.44911 12.6868 10
62 1 5.98958 0.0479501 7.76326 17
63 1 -9.88157 -7.30352 2.04042 21
64 1 -5.69255 -6.51779 -10.9857 22
65 1 -6.25934 3.90427 -4.26325 19
66 1 -0.468975 -0.928524 -8.79573 23
67 1 6.90608 -2.42855 -3.02988 21
68 1 5.61928 -2.38591 -6.37942 18
69 1 8.78481 -8.28717 7.23206 19
70 1 7.05155 -11.7509 5.10606 18
71 1 -7.22447 8.23815 -9.36816 11
72 1 -6.31589 6.21404 2.62261 17
73 1 -3.55839 4.13491 8.7589 14
74 1 -7.28588 -7.91966 10.2926 17
75 1 11.8553 -5.11937 -8.97668 15
76 1 -10.0571 7.06851 5.16112 14
77 1 5.32774 -9.37861 -6.32676 21
78 1 -1.74016 0.786152 -15.1782 18
79 1 -1.78173 -2.5517 -16.0297 12
80 1 2.0536 8.33027 -0.140742 18
81 1 -5.47702 1.82268 -10.9199 19
82 1 -3.23874 11.7189 -5.77228 8
83 1 -1.76054 7.20829 0.636704 22
84 1 -3.07668 -7.22283 9.85786 21
85 1 -1.52556 -8.67308 -7.17986 21
86 1 5.28317 -9.59853 -10.6267 19
87 1 0.426765 0.321692 10.2587 17
88 1 -7.90395 -8.14156 -5.66248 17
89 1 10.1838 -7.74082 -3.27444 19
90 1 -8.54408 -11.9757 -6.17021 19
91 1 9.6213 -9.23842 3.48325 17
92 1 -5.55415 3.38897 1.2209 20
93 1 7.47973 -3.3434 -12.6755 14
94 1 4.27917 3.99775 -9.52238 24
95 1 10.1752 -11.3929 -1.78404 15
96 1 -1.49682 -17.6238 3.76286 12
97 1 -7.10806 -14.1475 -3.8043 19
98 1 -10.3754 -4.51993 3.28998 23
99 1 10.7591 8.42044 7.28877 14
100 1 5.28156 2.89281 -0.80584 21
101 1 -5.73019 9.1464 8.36865 14
102 1 -3.98141 6.86871 -5.31831 18
103 1 -0.206207 -6.65319 -10.3399 17
104 1 7.76724 -2.23077 15.5766 10
105 1 2.28197 6.21921 -5.68196 21
106 1 9.74631 -3.87228 -6.64224 19
107 1 -9.58133 7.84089 -6.485 12
108 1 -7.68773 11.2934 3.47424 12
109 1 12.3092 1.15491 -13.9643 11
110 1 5.4108 -8.39836 6.35003 18
111 1 -8.59142 0.630653 -12.9165 14
112 1 6.62855 9.78966 2.42547 20
113 1 9.46478 7.74997 0.305136 20
114 1 -5.72791 4.93163 -1.27118 22
115 1 -8.12183 -3.75403 -12.2491 20
116 1 4.63959 9.75703 5.84837 21
117 1 -14.7237 -1.98462 -6.01745 14
118 1 15.2225 -4.87718 -4.32882 13
119 1 0.365402 5.99119 8.84627 15
120 1 0.797725 5.34155 -8.555 18
121 1 4.24201 -6.68443 12.9855 20
122 1 -12.8988 -9.15555 3.47797 10
123 1 -4.58486 -10.6122 2.29798 16
124 1 3.22013 -14.8105 -5.54318 16
125 1 -3.23127 6.08284 -12.9934 15
126 1 -0.556777 6.2933 -4.66122 18
127 1 13.7212 6.47609 -3.98581 11
128 1 0.989563 -13.05 10.721 17
129 1 -6.0974 0.117488 -2.4117 21
130 1 1.21951 14.5583 4.28225 17
131 1 4.1832 2.38659 10.3805 17
132 1 3.74006 13.6058 5.70146 14
133 1 -3.59771 0.314481 -10.0197 21
134 1 12.859 -9.07712 -1.35439 12
135 1 -5.28609 -5.32577 8.67408 20
136 1 -12.6003 0.566978 2.85606 21
137 1 -8.73921 -11.8571 7.1084 10
138 1 -12.3897 3.00933 -3.38552 17
139 1 -2.93907 -15.7456 1.60026 21
140 1 -2.62879 -7.80016 -2.42753 23
141 1 7.42961 -11.4513 -0.301764 19
142 1 -2.33728 12.6004 7.1865 10
143 1 -8.57421 -4.17312 7.35455 16
144 1 -7.57932 -2.72219 -6.60372 18
145 1 -6.7042 5.99348 -12.1379 13
146 1 -13.0757 -7.15948 -5.47864 15
147 1 -14.367 -1.23236 7.85803 8
148 1 -1.92444 -9.28955 8.0557 18
149 1 1.9013 -13.8417 7.80246 19
150 1 15.9904 1.33453 -0.864935 14
151 1 7.942 -0.793782 -5.6247 18
152 1 10.6426 0.970666 11.9361 10
153 1 -2.85329 3.74199 -18.9831 7
154 1 4.63009 -6.15405 -11.2272 17
155 1 -8.96796 -4.76485 -9.22122 20
156 1 -5.3341 9.25296 -7.26715 10
157 1 -7.62329 9.23508 -1.96373 13
158 1 8.11102 -5.68074 11.8406 16
159 1 -3.26598 -8.5441 -9.54522 19
160 1 -1.64854 6.03767 -10.451 15
161 1 3.65414 6.29541 -8.01847 19
162 1 -5.33879 -1.90654 2.98234 19
163 1 -6.25666 7.03163 10.4102 12
164 1 1.22859 -12.6737 -10.8939 13
165 1 -8.27713 -14.8974 -0.586401 16
166 1 7.41349 -13.596 -2.65107 11
167 1 5.3848 -9.26259 -0.318113 20
168 1 8.59652 8.99444 -6.01444 17
169 1 0.429541 5.53769 -1.43828 23
170 1 -11.2768 -1.77045 4.66703 19
171 1 -0.169058 4.89415 12.3534 17
172 1 16.8351 -0.762204 0.889237 10
173 1 5.51019 3.23758 7.56327 22
174 1 -10.2143 1.80561 4.41684 17
175 1 -16.6387 -5.33889 -5.63941 7
176 1 9.38415 2.32789 -9.75703 20
177 1 5.30643 -5.03114 9.61985 20
178 1 9.77377 7.51336 -8.63138 16
179 1 5.97702 -10.9873 -3.15947 23
180 1 -3.68736 -5.492 -14.691 17
181 1 9.84418 -2.74236 -10.6903 17
182 1 -8.34146 -2.55529 4.82833 19
183 1 -0.343977 -18.4313 0.450336 9
184 1 -10.5006 -9.67451 -6.56794 17
185 1 0.182808 11.8306 -4.15573 18
186 1 4.38127 -0.350041 -17.6212 12
187 1 6.2148 1.81537 12.7351 13
188 1 16.5185 -1.35401 -3.42408 9
189 1 -3.75343 -8.23488 1.04181 20
190 1 8.87569 -3.86645 -16.688 9
191 1 -1.30296 -11.5998 4.6992 18
192 1 -11.6807 -3.89163 -11.3085 18
193 1 -9.95788 -7.12927 -9.76979 17
194 1 9.24434 -1.92382 12.8564 16
195 1 6.60748 -7.55112 9.50729 23
196 1 -5.91085 -8.57222 -12.6183 20
197 1 4.38219 -5.96834 4.7012 18
198 1 4.46545 8.40768 -10.7069 10
199 1 4.97464 7.59856 0.293748 23
200 1 -6.35343 -9.813 6.13578 16
201 1 3.24795 9.82257 1.76555 20
202 1 -11.1084 -3.44618 12.0547 5
203 1 -10.3162 -10.6844 -9.91916 13
204 1 -3.10656 -2.2293 -8.47577 22
205 1 -4.63665 -8.46653 -6.88879 18
206 1 -6.10036 -16.9034 0.214973 14
207 1 11.9115 0.145198 3.2324 23
208 1 -3.57177 -5.80902 -4.88571 22
209 1 -10.2743 -6.49253 10.6506 11
210 1 2.64165 -15.0322 -2.62818 16
211 1 -0.0961074 -13.6784 2.27227 22
212 1 0.211829 13.4487 -0.868748 13
213 1 6.1344 -0.245344 -13.1826 18
214 1 -6.46494 -5.44493 -13.8393 19
215 1 -3.07351 -15.7234 -1.81885 18
216 1 -5.45385 -8.55734 -15.3691 13
217 1 -11.907 0.205156 -8.74083 20
218 1 12.4144 3.77308 3.63959 20
219 1 -2.81041 1.88708 -12.9932 21
220 1 -3.62861 3.93952 -10.462 21
221 1 -3.40825 -6.69467 6.7157 22
222 1 -5.39381 11.9601 -1.27623 16
223 1 2.04082 8.16879 4.93223 20
224 1 14.3519 -1.81732 2.85323 18
225 1 -3.10588 -0.956934 8.4066 21
226 1 0.249065 -7.62551 11.2345 17
227 1 -5.5847 8.40572 4.9562 19
228 1 2.38255 -5.79274 -14.0224 17
229 1 6.6736 -13.8609 2.23131 14
230 1 2.1745 -2.33329 11.1832 20
231 1 -9.73284 -9.31008 8.99153 12
232 1 11.4809 -9.66756 -4.57816 14
233 1 7.13609 -6.08298 -6.75358 21
234 1 9.19591 -12.0705 -4.54778 12
235 1 -3.84887 -8.85466 4.81171 20
236 1 -6.56802 6.16099 -6.52266 19
237 1 3.79018 -2.35919 8.46645 20
238 1 12.2879 6.77472 9.12843 10
239 1 -10.4596 -4.70861 -0.268257 21
240 1 8.79698 -11.8208 -7.56907 11
241 1 -3.338 8.64288 2.58848 19
242 1 -8.60691 4.06921 1.28845 20
243 1 4.41477 -13.279 8.86664 18
244 1 14.7086 -6.87148 7.11834 9
245 1 -1.28148 3.05648 4.54677 16
246 1 -4.83243 -4.97542 -2.61675 20
247 1 -0.737641 -0.140164 14.4729 11
248 1 -0.690658 11.7937 4.67262 16
249 1 -8.16854 0.901524 -10.0017 18
250 1 -7.97903 1.11879 8.83055 16
251 1 -12.9567 5.41075 4.15144 10
252 1 -3.46365 -5.53119 -7.82448 20
253 1 -4.09744 8.19698 -0.901084 20
254 1 9.46458 -3.53326 6.27907 18
255 1 -8.6072 -12.8677 1.48472 15
256 1 7.09383 -10.9478 8.75926 17
257 1 -10.6705 7.46697 -1.18553 9
258 1 2.40578 -4.79285 10.8559 19
259 1 4.61367 -12.9163 -11.1286 10
260 1 -4.78773 -2.90828 -12.1479 21
261 1 7.50369 -1.45706 -16.5194 12
262 1 3.68668 13.6344 2.5299 17
263 1 -8.35502 -4.11899 1.5499 16
264 1 4.55628 -7.21188 -15.768 11
265 1 -4.53143 -16.7856 -4.39486 15
266 1 -11.835 -9.58413 -3.71905 11
267 1 -0.802295 -9.15173 -0.452192 19
268 1 12.4771 1.58545 -2.3673 21
269 1 -6.42226 -0.874171 -11.0679 20
270 1 -15.7906 -8.01382 -7.93432 5
271 1 -6.301 9.49314 0.950587 17
272 1 -8.12097 8.8142 2.69729 13
273 1 -3.48553 5.45527 3.39157 20
274 1 11.6273 -5.20958 -3.73083 22
275 1 13.0318 -1.68895 -9.12031 13
276 1 -4.26971 2.41642 -2.28171 23
277 1 0.460184 -11.8369 -7.53899 21
278 1 2.8563 4.49269 7.37468 17
279 1 -9.63129 -2.52875 -4.95796 21
280 1 1.47811 -11.9497 -3.99421 18
281 1 13.7566 -2.61974 9.24729 11
282 1 -10.2203 -5.85206 -6.33911 22
283 1 -7.45267 -9.48735 0.629064 19
284 1 -0.0980591 8.88247 2.88014 20
285 1 -10.0224 -12.0947 -3.82233 21
286 1 -11.9306 3.63347 1.46154 16
287 1 5.9807 11.476 -5.77704 11
288 1 10.2985 10.7512 4.83266 12
289 1 -14.0564 -6.38884 -2.846 12
290 1 2.73021 -13.7021 -8.03707 15
291 1 -16.7161 -3.38265 5.25623 6
292 1 -13.6079 2.71118 -6.3567 13
293 1 -0.204115 -11.8063 7.59423 20
294 1 -5.78715 -18.8021 -1.9365 10
295 1 8.02554 4.79873 -12.0088 16
296 1 -8.85342 4.54307 -6.3186 21
297 1 -1.41887 -14.5287 5.27728 23
298 1 16.323 6.96645 1.80282 11
299 1 -0.789737 -2.51869 9.63999 20
300 1 -8.06828 -0.750312 0.836664 18
301 1 -7.95179 0.774266 5.64595 21
302 1 -4.29081 -15.9969 4.87852 12
303 1 1.24716 -9.73308 -6.35784 18
304 1 6.05321 -8.55233 -13.1472 11
305 1 -0.566342 -6.26952 8.53026 22
306 1 -13.9431 -3.54854 5.79625 15
307 1 -1.20318 -8.32853 5.1316 19
308 1 8.12638 -11.7271 -11.0165 7
309 1 -0.402969 -9.61744 -12.6419 15
310 1 -0.0645437 -4.9503 11.9005 20
311 1 3.58479 -8.49484 -3.11726 20
312 1 -7.09052 0.362279 -15.6252 10
313 1 4.16059 -14.4356 4.71481 20
314 1 -2.52884 12.0232 -2.26874 15
315 1 -7.05647 -4.99472 11.407 12
316 1 -5.3766 -9.34127 8.75553 17
317 1 10.9378 -6.54376 5.9808 20
318 1 10.4371 -0.07091 -0.101584 20
319 1 -7.15663 1.27776 3.02317 21
320 1 3.53875 0.432266 -5.5444 19
321 1 9.57608 -11.6178 6.47128 11
322 1 11.3559 5.40135 -0.656493 19
323 1 -2.26049 1.93934 9.44544 19
324 1 3.48634 5.95559 -1.53869 21
325 1 8.87148 -5.04861 8.77398 23
326 1 -2.07574 -16.781 -5.8559 12
327 1 -4.33004 11.7929 3.62283 15
328 1 -7.39971 -14.6837 -8.90689 10
329 1 1.48668 3.90418 10.2377 19
330 1 -4.60041 -3.61158 6.14317 20
331 1 -7.55528 -11.9958 -1.4577 22
332 1 -11.0177 4.3061 6.24573 13
333 1 -7.42921 -8.75487 -8.98891 19
334 1 -7.49189 4.3254 7.48605 15
335 1 -5.19124 -11.2012 -10.2241 18
336 1 1.26594 -8.73001 -15.6357 9
337 1 -6.10442 -14.0316 2.38344 14
338 1 -6.63306 -6.95822 6.9133 17
339 1 11.0194 -1.1102 6.21242 19
340 1 -5.48145 -7.42258 12.9492 11
341 1 -7.70461 3.74075 -11.3181 19
342 1 10.4721 3.84117 -3.73111 18
343 1 -7.79768 -16.4471 -3.07731 12
344 1 1.73857 3.18458 -6.61565 20
345 1 2.44611 16.1964 1.41604 6
346 1 -0.940417 2.84459 -9.60189 25
347 1 1.46308 10.1259 10.9412 14
348 1 -14.5885 0.236698 -3.27338 10
349 1 6.50048 7.61639 -2.58894 15
350 1 -7.35561 -12.1377 -9.53296 13
351 1 -1.33116 -14.2207 -9.09745 14
352 1 3.19891 -0.539151 -13.9586 16
353 1 -7.99967 6.32018 -0.385404 20
354 1 5.12886 6.05034 12.7394 10
355 1 8.89054 6.29981 -2.54855 20
356 1 6.80316 5.35759 -0.229214 22
357 1 -9.4525 6.00582 -9.05107 16
358 1 1.96312 3.09531 -11.7256 19
359 1 1.62436 -10.9321 2.18947 18
360 1 -13.6859 -3.8787 -0.400155 14
361 1 -5.03651 -0.0790952 -13.5816 21
362 1 14.3437 7.02803 -0.548115 16
363 1 7.11234 -7.76147 1.61576 20
364 1 14.2516 3.70642 -1.01224 16
365 1 5.10808 -3.01925 -10.3929 19
366 1 0.665661 -12.2504 -1.04107 23
367 1 -0.361574 -15.4541 8.61353 13
368 1 3.26582 -12.4249 12.6786 10
369 1 -9.28839 -0.25902 -7.53933 19
370 1 -2.0484 -11.931 -11.2666 14
371 1 0.422921 0.587297 -12.0748 21
372 1 3.53718 -5.82944 16.0008 10
373 1 -12.9026 -6.09518 0.781069 14
374 1 11.761 -2.26447 -12.8349 11
375 1 14.6113 -3.03685 -2.18904 15
376 1 -2.92235 5.56024 -2.42503 22
377 1 0.481796 -9.71778 -9.97693 19
378 1 4.34425 0.655172 -10.4937 19
379 1 7.45511 -2.20069 -8.59877 15
380 1 -9.8008 -1.00441 9.8026 12
381 1 1.00294 12.2581 1.5636 21
382 1 -5.66991 -5.84579 -16.727 9
383 1 -2.48807 -4.22482 8.87125 22
384 1 -6.94052 13.1274 1.55755 10
385 1 -6.82724 -3.11312 -14.7954 14
386 1 -11.224 -1.62474 0.479606 20
387 1 -4.97251 -13.3971 10.993 10
388 1 1.94172 9.00237 -8.55867 12
389 1 16.4703 4.70326 -0.0833552 13
390 1 -10.8334 -14.4792 -1.56031 7
391 1 -1.08926 -10.1965 1.58674 17
392 1 -8.4054 7.48377 8.29429 10
393 1 1.2101 -7.15153 -7.54967 18
394 1 3.41665 4.49411 1.37175 22
395 1 13.5132 -0.775786 0.15133 23
396 1 4.9812 9.70651 -3.51329 21
397 1 3.5199 -11.4059 4.10214 15
398 1 -5.4667 1.39316 8.46761 24
399 1 9.03281 6.71698 9.89301 15
400 1 -1.88262 0.997102 -17.675 13
401 1 -6.70573 -5.90938 -7.68272 21
402 1 0.800954 -7.21821 14.1878 13
403 1 7.60595 8.37981 5.35225 18
404 1 8.22899 4.33185 -8.46745 22
405 1 -3.92863 7.99871 -10.0453 10
406 1 -1.55858 8.54882 -3.14637 19
407 1 11.9497 3.06625 9.58881 13
408 1 11.3226 0.0201777 -10.954 18
409 1 -8.70326 -9.33247 -2.2251 18
410 1 1.36787 -3.97047 7.71351 22
411 1 -0.607322 9.58457 -5.93004 12
412 1 -0.913314 -14.2666 -3.19752 20
413 1 8.17297 -0.686911 -11.4527 19
414 1 -5.01454 10.1706 -4.20067 17
415 1 -8.22201 -7.84296 -14.6018 14
416 1 4.15028 -15.9936 7.00068 13
417 1 -15.1274 -3.12511 -3.26471 13
418 1 -5.98485 -2.50854 -3.80882 20
419 1 -2.12976 -8.87529 12.9951 13
420 1 3.70097 3.41894 -3.63508 21
421 1 2.85583 -10.5674 -13.0672 15
422 1 4.1164 -10.1594 11.7416 17
423 1 10.0056 -2.24428 -3.73891 21
424 1 -10.537 2.149 -6.43066 21
425 1 8.46221 -8.70511 -5.46253 17
426 1 5.72498 7.74801 10.8387 13
427 1 2.11642 -1.5406 -10.9288 20
428 1 0.624718 14.876 7.11806 9
429 1 10.1363 3.56311 -13.4584 14
430 1 4.1517 -3.41059 -13.5838 18
431 1 -5.34921 -12.2627 -6.45611 20
432 1 -13.8616 -5.34102 -11.8405 11
433 1 13.9748 0.213155 -5.15745 13
434 1 15.2427 4.0771 -3.06356 14
435 1 6.66601 -7.02682 -9.5348 17
436 1 3.48334 -11.9326 -5.29797 19
437 1 7.88281 5.20256 5.13554 22
438 1 -9.3659 -1.49926 6.99161 19
439 1 9.0203 4.57635 2.19542 21
440 1 14.6957 -5.19024 3.7376 13
441 1 12.7518 3.10417 -11.0426 11
442 1 8.42797 0.868288 14.1772 12
443 1 3.00801 -8.00152 10.0556 21
444 1 8.73088 1.51317 2.26529 19
445 1 2.26366 -0.914234 14.1123 17
446 1 12.8252 -3.29995 -6.18705 21
447 1 14.7606 0.959156 8.05391 10
448 1 -9.63409 -1.7534 -10.7389 18
449 1 14.9029 9.49388 1.28495 10
450 1 13.9221 -7.30196 1.25714 13
451 1 2.00985 -9.35235 -0.334599 21
452 1 11.5161 5.27671 6.50247 21
453 1 4.78447 10.6553 9.71694 15
454 1 4.78096 -0.368895 5.00102 21
455 1 -2.72937 10.5194 0.401721 20
456 1 10.7946 5.87288 -11.1036 13
457 1 10.0106 -0.64779 -14.8525 12
458 1 3.28665 14.3 -0.508368 15
459 1 -1.94291 -12.2594 -5.78641 20
460 1 -14.3585 -0.482798 5.16093 15
461 1 -7.64014 3.39596 -14.9198 14
462 1 -3.0217 -18.9822 0.644556 11
463 1 -5.73802 -0.293776 -7.34404 21
464 1 -15.0488 0.5264 -9.1043 9
465 1 11.8952 -8.97057 7.43822 9
466 1 16.365 8.84344 4.48803 9
467 1 1.27032 -8.481 7.46081 22
468 1 -12.0357 -7.4367 -11.1701 16
469 1 2.55687 -8.66431 5.22255 21
470 1 -2.71994 2.96024 14.7118 10
471 1 7.86572 7.50554 -10.3403 14
472 1 6.1523 1.00605 -7.87734 22
473 1 2.36588 -17.3728 -7.47296 7
474 1 12.0482 -4.59721 7.80856 17
475 1 11.6547 10.3097 1.85636 14
476 1 13.6875 -7.62952 -4.13069 15
477 1 -4.84441 6.08698 6.3457 17
478 1 -11.0042 -7.76669 -0.962345 16
479 1 -12.7101 -4.07245 -5.01455 18
480 1 10.3317 -2.36054 9.33491 18
481 1 -1.93332 -12.462 12.5213 9
482 1 9.30742 4.10574 8.03394 16
483 1 -3.78859 13.4796 0.723414 11
484 1 8.95146 3.32975 -0.68195 19
485 1 10.1927 2.83857 5.10005 19
486 1 3.98151 3.24189 -16.7528 12
487 1 -10.9732 -4.63749 6.28866 20
488 1 8.64606 1.65187 -14.1025 17
489 1 -0.7706 -6.36536 -5.55644 21
490 1 7.31563 -9.64609 -8.27305 19
491 1 12.8044 1.60613 6.33896 20
492 1 6.06366 4.4265 2.76749 20
493 1 14.4459 6.16651 3.90436 15
494 1 3.9942 -3.77858 13.7102 18
495 1 0.428482 2.35323 8.13111 18
496 1 0.745535 -2.76541 -13.7203 19
497 1 -1.65364 5.46481 6.55973 16
498 1 4.66824 1.56346 15.516 9
499 1 12.2701 8.43222 -1.31382 15
500 1 5.08891 -18.6379 -5.48787 5
501 1 -2.62869 -0.354355 -6.68406 22
502 1 7.35409 7.03942 2.20128 20
503 1 6.17904 12.9323 0.973732 13
504 1 -0.628658 -0.921629 7.03773 21
505 1 3.72536 12.5832 -3.84387 13
506 1 12.283 7.43041 1.72895 15
507 1 -4.37174 -13.0164 -3.30873 23
508 1 1.84843 -2.34265 -16.7514 13
509 1 -11.0716 5.76372 -4.19248 16
510 1 6.86906 -5.64852 -14.2201 16
511 1 11.5905 2.36197 0.772162 19
512 1 11.386 4.27952 -8.07589 18
513 1 9.50257 10.2121 -3.03552 14
514 1 1.62528 4.19865 4.29997 18
515 1 -7.23098 2.06524 -0.580032 23
516 1 7.26455 3.48842 -3.37071 23
517 1 -2.09782 -13.3008 9.39568 15
518 1 -4.87751 5.50951 -15.5545 11
519 1 3.14293 13.5985 9.5818 12
520 1 7.2394 -2.52491 7.79375 19
521 1 6.7537 11.769 -2.5501 14
522 1 9.04543 12.3819 2.44641 9
523 1 14.5379 -4.68927 -8.17647 9
524 1 -14.2163 -5.40612 3.57203 12
525 1 1.21334 -16.4819 2.75336 15
526 1 -1.34624 -4.68185 -12.817 16
527 1 -2.66829 1.77747 6.49457 18
528 1 6.49002 -7.58936 -3.7297 20
529 1 2.33628 10.6725 7.48194 18
530 1 -12.8909 -2.68254 2.55014 18
531 1 3.76181 -11.5142 -1.41221 19
532 1 7.77273 6.01383 -5.55723 22
533 1 6.31341 -10.4209 2.59963 18
534 1 -0.651342 6.1888 3.70579 18
535 1 3.66553 -4.67814 -16.9884 13
536 1 2.82592 -15.2764 10.4014 12
537 1 4.6678 7.66759 4.01359 23
538 1 -3.58529 0.208143 13.2588 13
539 1 -7.92429 -10.32 -12.0458 12
540 1 2.90353 -1.81817 -7.91496 19
541 1 -2.48764 10.4987 9.33497 13
542 1 5.14838 -12.1546 -7.95946 16
543 1 4.47018 -10.3061 8.06314 17
544 1 0.100674 -15.0782 -6.74489 17
545 1 -11.5937 -3.22643 9.03647 15
546 1 0.109023 -3.762 -8.65784 20
547 1 -6.15645 -16.4021 -7.02936 10
548 1 -11.4815 0.864273 7.14429 15
549 1 10.9368 6.45434 -5.82924 17
550 1 -5.20123 2.88683 4.85537 21
551 1 -10.6702 6.70082 2.0777 14
552 1 8.62204 -4.45478 2.00347 18
553 1 2.38698 10.7207 -6.14332 16
554 1 12.5963 1.54622 -7.98538 17
555 1 9.67316 -0.279955 -8.22326 19
556 1 -11.4444 -2.87363 -7.36655 22
557 1 -12.4806 -9.44982 -8.5126 13
558 1 6.36438 6.71082 -8.10784 17
559 1 -4.4516 -1.8249 10.7481 16
560 1 -4.00002 -4.56893 11.6159 15
561 1 2.35549 -7.96855 -11.2042 21
562 1 -4.18567 2.09507 -7.51856 23
563 1 6.29221 11.9307 4.26301 15
564 1 -9.37153 -6.89567 5.86942 22
565 1 6.5731 4.38069 -14.6914 12
566 1 0.396736 -16.491 -3.72398 14
567 1 6.69054 2.31446 -11.3006 19
568 1 -2.11225 -7.61908 -16.0497 10
569 1 2.7401 1.1006 8.28867 20
570 1 1.48928 3.44472 -14.5345 15
571 1 -5.92503 -8.2028 -3.04077 19
572 1 6.70906 -5.59498 -1.06177 23
573 1 -6.60642 -10.8964 -4.52848 21
574 1 9.00929 2.43965 -6.41167 19
575 1 7.70078 -8.88119 -1.57413 20
576 1 -5.5342 5.18434 12.9941 10
577 1 13.3286 -8.20943 4.41828 11
578 1 13.5963 -5.8887 -1.09934 18
579 1 8.79808 -9.18281 10.8055 10
580 1 2.92567 7.79459 7.45881 18
581 1 -4.60159 2.58671 11.3752 19
582 1 -3.78582 -15.2101 8.3111 13
583 1 10.6373 -2.39467 1.69561 20
584 1 9.86621 3.8955 12.2361 8
585 1 -13.502 2.04741 -0.660145 15
586 1 6.36536 -12.5081 -5.61091 15
587 1 6.45293 6.29051 8.11423 19
588 1 5.262 -0.865098 13.3903 19
589 1 2.56828 11.0488 4.15556 21
590 1 1.24756 -13.1244 4.71622 21
591 1 -7.00708 -5.40249 -4.59695 20
592 1 4.34909 -0.286649 10.9759 21
593 1 1.7644 6.71657 1.80134 23
594 1 -7.213 -10.3314 11.4848 10
595 1 10.7676 -4.13578 11.2586 12
596 1 10.877 -6.5778 2.68576 18
597 1 6.91122 1.86275 4.90671 18
598 1 -2.22118 3.54597 -4.61371 21
599 1 -3.07115 -11.2943 -7.70459 18
600 1 -2.11317 -1.29064 -12.0714 18
601 1 -1.76816 -2.76664 12.9508 13
602 1 -1.58039 13.6233 2.4523 12
603 1 14.6374 1.82214 1.70213 20
604 1 8.34462 10.6326 -8.33217 9
605 1 -0.499668 7.82176 11.2154 12
606 1 6.68612 9.135 8.2609 12
607 1 6.77874 -5.62415 -17.4623 9
608 1 -5.45613 -14.12 -0.301608 21
609 1 -4.32244 -3.33633 -6.23628 22
610 1 14.2548 -2.5981 5.62133 14
611 1 2.56281 -4.79122 -10.2689 19
612 1 -3.24413 -9.51886 -4.46757 23
613 1 15.6561 -3.98355 0.70415 15
614 1 3.99568 -8.84762 14.2695 11
615 1 -8.46182 -7.10963 -11.7895 20
616 1 4.63616 11.0005 -0.663229 21
617 1 -3.97356 -5.86887 3.58275 17
618 1 -10.221 1.5614 0.890457 17
619 1 12.9721 3.61093 -5.25103 13
620 1 6.31133 1.31382 -15.6993 15
621 1 -8.32279 9.64107 6.17892 11
622 1 0.535303 2.65346 -17.5529 13
623 1 10.1932 -5.93524 -0.327052 18
624 1 -9.87726 0.393868 -2.13915 17
625 1 10.1721 6.84985 4.19593 17
626 1 -10.305 -11.6551 -0.301478 13
627 1 8.4096 1.15817 7.41933 16
628 1 -12.3559 -5.67631 -8.32538 20
629 1 -7.79891 4.20005 4.51227 17
630 1 -0.927468 2.19267 -6.70149 20
631 1 9.89388 -7.58269 -9.09008 13
632 1 -11.7085 -12.3192 -6.77848 11
633 1 13.4686 -8.07941 -7.95865 8
634 1 -11.1575 4.24098 -1.10636 17
635 1 -10.0818 -5.6575 -3.6179 18
636 1 -9.9272 -10.1876 3.06537 17
637 1 11.7271 -3.63184 4.4311 19
638 1 7.67691 -6.85549 3.99054 20
639 1 -13.4222 2.44382 5.6468 12
640 1 3.41729 12.8243 12.4751 7
641 1 4.18658 5.13574 -12.3372 16
642 1 -3.61736 9.81535 6.21007 14
643 1 11.3374 9.32988 -5.75958 8
644 1 2.3119 6.60133 11.3727 18
645 1 6.82034 -12.2035 11.4207 10
646 1 5.00973 8.60716 -6.28195 17
647 1 -6.47384 0.498349 11.2108 13
648 1 -3.01942 -7.42132 -12.39 21
649 1 -14.6467 -1.0518 -0.15257 12
650 1 -3.48973 -11.9557 6.5865 21
651 1 5.77079 -2.74294 11.9116 16
652 1 -2.10439 -18.3056 -2.64799 13
653 1 -14.5503 2.63055 2.73868 11
654 1 11.1782 -0.30019 -5.3807 16
655 1 -5.70388 7.40642 -2.98383 20
656 1 -6.5025 -2.14386 9.01107 21
657 1 -3.47785 -10.453 -14.0964 11
658 1 -1.45085 -11.1231 -2.73416 20
659 1 4.89828 -13.7842 -0.528833 18
660 1 -1.77971 4.1267 -15.4252 18
661 1 11.9586 -3.15939 -0.930248 23
662 1 16.1595 3.69178 3.34435 15
663 1 12.7808 -1.23661 -3.02094 19
664 1 -4.70906 2.54611 -16.2673 17
665 1 -5.79819 -12.2067 8.75003 16
666 1 7.5869 9.49206 -0.530205 22
667 1 9.2881 0.745937 -2.90492 19
668 1 -7.33121 2.24506 -7.15127 19
669 1 5.03354 6.12318 -4.37204 19
670 1 -12.2737 -7.12453 7.93537 11
671 1 4.58275 5.77251 5.56147 20
672 1 1.15236 -16.4769 5.52206 15
673 1 1.62377 8.69327 -3.12722 22
674 1 -3.4959 7.63442 8.23714 17
675 1 -5.36756 -0.451296 6.2253 22
676 1 8.28732 -3.1449 -0.80704 19
677 1 -4.24449 -9.7561 11.31 15
678 1 7.01192 -13.6911 7.88897 12
679 1 -2.66672 -1.2727 5.11241 20
680 1 15.0569 7.35972 7.01156 9
681 1 11.4576 -6.56348 -6.28516 20
682 1 -10.3962 -3.3381 -14.5406 7
683 1 -4.96988 3.50494 -13.5682 23
684 1 -12.4111 -0.0971117 -5.30855 20
685 1 9.98363 11.4292 -0.394778 11
686 1 -0.428606 8.60599 6.47651 19
687 1 -9.43234 -14.9862 -6.16673 12
688 1 -2.88418 4.42901 0.566905 18
689 1 12.0639 -0.0374189 9.2519 14
690 1 -2.46536 -12.707 -0.203969 25
691 1 9.26944 -5.79736 -11.3542 10
692 1 2.66952 -13.763 1.48996 19
693 1 1.52471 0.824544 -15.817 17
694 1 -5.88642 -3.72602 -9.22509 21
695 1 -4.82604 -10.552 -1.41952 22
696 1 -8.09057 0.106941 -4.70323 21
697 1 -3.57371 8.06761 11.4032 12
698 1 9.96642 -5.02372 14.2943 9
699 1 -11.1699 -9.65946 6.31648 13
700 1 13.1529 -4.32544 1.90277 18
701 1 -0.567989 4.15329 -12.3843 20
702 1 12.7908 8.57511 4.91398 18
703 2 -13.359 -0.620847 -9.43989 14
704 2 -3.97416 4.27307 -8.46864 18
705 2 1.74161 -2.7141 -9.29806 18
706 2 -4.97876 -0.468137 9.18158 21
707 2 -10.3169 -5.78547 -8.25009 18
708 2 4.34678 1.18996 12.5178 18
709 2 -8.36689 -12.916 -4.36387 19
710 2 -11.6557 2.26831 -9.55583 15
711 2 1.96867 14.2599 5.92873 14
712 2 -8.41533 -4.01087 3.52313 20
713 2 9.86574 2.9011 1.14758 21
714 2 -2.71175 -1.99914 -5.74495 22
715 2 -11.0671 -10.9072 -8.13251 12
716 2 -6.4789 -2.45579 -1.77837 21
717 2 -2.70584 -7.10148 4.48491 19
718 2 6.45466 -0.848456 11.8177 17
719 2 5.72067 -7.68227 -11.0298 17
720 2 2.99631 -15.9078 5.47005 15
721 2 6.73506 -0.951479 4.91186 20
722 2 -7.15784 4.5474 0.151612 16
723 2 -14.3901 1.90401 -7.95123 11
724 2 14.8921 1.72839 6.36615 12
725 2 9.06482 -10.6211 -5.71008 16
726 2 -6.21569 -11.2274 -2.63803 20
727 2 -8.80216 -2.89157 0.0038347 19
728 2 -2.53509 -15.9597 4.44738 14
729 2 13.3039 -8.12325 6.26169 9
730 2 0.945732 -13.4999 -8.99909 15
731 2 5.43181 -5.83456 15.5626 12
732 2 4.38622 10.4714 -5.99548 14
733 2 -10.7625 -12.6056 -2.14396 13
734 2 3.25484 5.37897 13.2196 11
735 2 -6.87861 5.14386 -2.67359 19
736 2 -1.59696 4.06283 13.3203 13
737 2 -9.44291 4.49761 -4.37442 20
738 2 5.41666 -10.9959 4.29798 20
739 2 -3.37583 5.74601 7.45034 12
740 2 1.97521 11.8152 -4.50329 14
741 2 3.81525 -12.6577 -9.43633 15
742 2 -4.81332 -2.52434 -7.87044 23
743 2 2.62721 -6.12765 -11.8918 16
744 2 9.82287 -2.33541 -5.4388 21
745 2 -4.43083 6.56775 12.1518 11
746 2 8.25544 0.315517 -15.3983 14
747 2 -3.25762 4.97788 -16.1328 12
748 2 11.0716 9.39701 -2.11328 14
749 2 -5.92247 -3.48589 10.7728 16
750 2 -5.48482 7.01349 -0.912217 23
751 2 11.9142 -0.121333 -8.71766 16
752 2 2.83183 -7.58517 -15.494 14
753 2 -12.5358 -4.91753 5.02619 19
754 2 14.7817 8.59937 5.54136 10
755 2 -5.00426 8.12924 6.86807 17
756 2 -2.51744 -10.4547 -6.08034 19
757 2 -6.05447 12.3212 3.01292 10
758 2 4.96874 -11.7675 11.6532 12
759 2 7.73296 -7.2042 6.03674 19
760 2 -10.0491 -0.1178 0.124154 19
761 2 13.4799 -6.34542 -8.6301 11
762 2 7.62946 -12.7653 -4.277 13
763 2 8.33689 6.76691 4.08619 20
764 2 5.77514 -14.808 6.70407 13
765 2 9.58957 -7.27312 4.03509 17
766 2 -1.92202 -4.50201 11.7658 19
767 2 13.7102 -5.84159 -3.3114 19
768 2 3.28628 0.143213 1.71064 20
769 2 11.506 4.90562 8.32949 17
770 2 -3.64327 2.2576 7.95459 19
771 2 4.78168 9.79664 7.89901 16
772 2 12.1152 -8.81656 -3.08358 16
773 2 8.01263 6.23634 -8.65245 19
774 2 -9.78473 -3.69492 -10.751 21
775 2 -3.85785 -1.8999 6.32084 20
776 2 6.22416 -3.67239 -8.12226 17
777 2 -7.582 -0.654332 -6.82235 19
778 2 -10.3592 -6.64428 3.94332 20
779 2 -10.6395 -9.34918 -2.3085 15
780 2 14.7954 -5.47045 1.68301 13
781 2 -0.0734845 -9.90188 8.12655 18
782 2 -0.749908 -1.94368 14.2594 13
783 2 9.30285 -2.18185 -15.9582 11
784 2 6.42604 1.18156 14.7732 12
785 2 2.15877 6.09057 8.17218 17
786 2 -6.63847 0.0561627 -0.469185 21
787 2 -0.450572 -8.36152 -8.67267 18
788 2 12.0346 -3.33175 -2.86699 21
789 2 -9.196 8.11816 6.48974 10
790 2 -6.83581 -15.1039 0.699233 15
791 2 8.49978 -7.42723 -10.5335 12
792 2 7.1262 -0.486616 -3.648 20
793 2 -0.490794 3.8119 9.4649 20
794 2 3.10153 -8.93103 -6.18576 18
795 2 3.87808 -6.09092 9.4371 20
796 2 -5.47494 -9.83953 4.09981 18
797 2 14.865 -0.402733 -3.61062 13
798 2 -5.10064 -14.1971 9.15636 13
799 2 10.8744 6.14784 -8.91202 14
800 2 -4.99303 -10.8274 7.4092 18
801 2 10.3074 -4.51575 -10.2809 15
802 2 1.90726 -15.6741 -7.29139 13
803 2 14.3194 -7.85229 -0.556621 11
804 2 -3.24924 12.665 2.29641 14
805 2 12.5611 3.08373 -9.29844 13
806 2 -7.64391 -6.9508 -9.62027 17
807 2 -4.87166 -4.28807 4.27723 20
808 2 2.39392 -9.59427 3.61575 17
809 2 -1.94571 -7.5543 -0.225792 20
810 2 -1.72174 9.41815 1.4871 18
811 2 -7.43553 9.24231 7.75738 11
812 2 3.80467 -3.22276 -6.9642 20
813 2 7.54415 5.36471 1.50676 20
814 2 5.19703 4.75238 -7.96643 19
815 2 -4.26679 3.47808 13.5323 12
816 2 -1.15258 3.50234 -18.3514 9
817 2 -12.8137 3.53644 -1.57835 12
818 2 -0.146856 4.21895 3.64074 21
819 2 -9.08434 4.91626 6.0863 14
820 2 -5.97564 -0.687662 -4.30831 22
821 2 6.7187 11.635 2.14265 18
822 2 14.4865 4.79553 -4.5584 11
823 2 10.615 -11.0451 -3.53759 14
824 2 -11.1267 -4.91606 10.9716 8
825 2 6.89424 0.556642 1.71623 20
826 2 2.21982 5.18299 2.82181 22
827 2 -4.98073 5.49246 -13.367 16
828 2 -5.23882 6.45315 4.28783 17
829 2 11.9484 -3.04015 9.96106 14
830 2 -8.8076 -11.6611 -10.4329 11
831 2 6.06976 5.03366 -12.7738 15
832 2 10.2306 6.75583 2.03158 17
833 2 -11.0164 -7.90756 9.23819 12
834 2 3.32753 6.31221 0.526825 21
835 2 -5.38235 8.92751 -9.29387 8
836 2 -6.16336 9.16715 -3.22265 14
837 2 6.41737 -4.39623 11.3808 20
838 2 0.29401 7.85954 4.60692 18
839 2 10.6127 -6.1802 -7.84524 17
840 2 -2.02776 1.1595 13.8461 13
841 2 -0.55257 -3.85643 8.00754 20
842 2 -9.26333 1.42977 -5.29656 20
843 2 -4.83022 -6.50826 -13.313 24
844 2 1.27885 -10.1268 -8.26796 19
845 2 4.09991 -1.22872 -9.88195 22
846 2 16.7429 5.01851 2.0907 11
847 2 -1.08333 1.55205 10.8294 20
848 2 5.60469 1.93813 -9.73263 16
849 2 -6.50382 -6.85392 8.76195 21
850 2 -1.81015 -5.34125 -14.9815 17
851 2 -1.64752 -14.6933 -1.39609 21
852 2 -0.146553 -8.25523 -5.67935 18
853 2 5.45486 -14.7313 0.98683 11
854 2 12.152 7.91806 -4.79213 13
855 2 -4.57576 -1.03332 -11.9266 18
856 2 -1.74238 12.0949 8.96694 9
857 2 -7.56217 -9.24318 -4.02523 23
858 2 -10.3008 -7.04772 -11.7943 19
859 2 5.79135 7.6557 -9.92099 15
860 2 0.499828 9.25964 -1.76345 18
861 2 -4.74379 -18.7812 -0.143125 11
862 2 14.975 -1.13583 4.4796 13
863 2 1.01624 3.27191 12.4569 19
864 2 -6.6049 -16.1283 -4.70763 16
865 2 -4.40157 -15.5782 -0.447237 21
866 2 3.21932 2.48589 14.8766 11
867 2 7.29272 7.58493 9.33356 14
868 2 12.7351 -1.45257 -5.37454 18
869 2 9.27058 1.98128 13.0277 12
870 2 9.66332 9.99628 -4.93317 11