ITEM: TIMESTEP
20000
ITEM: NUMBER OF ATOMS
2000
ITEM: BOX BOUNDS pp pp pp
-30.0 30.0
-30.0 30.0
-30.0 30.0
ITEM: ATOMS id type x y z Coordination
1 1 -11.1465 2.6741 -13.874 7
2 1 -1.85402 -13.7857 -10.2949 17
3 1 2.54759 10.6863 15.9482 7
4 1 8.51667 -14.435 5.41511 11
5 1 -10.6842 4.08502 -2.87229 20
6 1 12.4542 -14.2942 -11.3905 14
7 1 -9.40464 0.804093 -11.373 15
8 1 1.13571 -11.5475 7.76356 20
9 1 -5.81308 -5.0337 -12.5416 20
10 1 -9.66207 -15.149 2.84261 13
11 1 14.452 0.421376 -9.91249 19
12 1 -1.60515 -13.2409 2.07327 19
13 1 -11.5774 -12.6864 2.5608 14
14 1 3.90917 -2.22889 16.5678 9
15 1 2.42088 1.38805 9.25516 22
16 1 -2.0267 4.80138 -14.7751 16
17 1 5.32436 -4.00832 10.9399 18
18 1 -7.8652 2.64847 -15.0035 10
19 1 -13.595 -6.72483 6.01024 12
20 1 18.4698 1.36397 5.18582 12
21 1 3.4359 3.42435 -13.2356 18
22 1 9.6094 2.18958 -14.092 18
23 1 14.0809 0.667594 8.68038 23
24 1 -12.1197 0.383111 -9.07848 16
25 1 -9.17472 11.4591 3.92037 8
26 1 10.7053 -14.5489 -0.242072 13
27 1 7.03145 -16.9103 -13.922 12
28 1 9.40094 -15.6604 -2.43424 11
29 1 -4.98702 -18.7265 -8.09111 11
30 1 -9.29847 -10.1975 8.78151 13
31 1 2.50614 -9.48834 -13.8696 16
32 1 11.6789 -10.8473 -11.391 19
33 1 -0.569806 0.844166 -16.7042 20
34 1 1.88072 0.805741 12.6326 25
35 1 2.91165 -13.7604 8.88867 13
36 1 9.84395 -5.99824 9.86288 17
37 1 -9.35537 -4.40859 -0.792192 22
38 1 -11.8935 -3.92853 7.01318 13
39 1 -1.03382 9.0407 -4.83787 17
40 1 4.53797 -17.7838 -11.5387 12
41 1 9.92697 -8.05046 -10.546 18
42 1 1.12323 -6.1062 14.4617 9
43 1 -10.2842 4.28717 0.178047 19
44 1 4.53074 8.4528 -10.9678 18
45 1 3.02083 6.22837 11.5624 22
46 1 -4.24631 3.71643 -9.66822 21
47 1 0.713345 8.70466 -2.54288 19
48 1 3.80162 -11.9057 2.56652 20
49 1 7.3444 -13.1072 -8.40302 20
50 1 7.85724 -8.16525 -18.7906 10
51 1 -6.67848 10.5814 4.80339 13
52 1 -9.50991 -7.15194 -9.01839 17
53 1 -4.58351 4.19613 -6.32508 20
54 1 -6.62029 -9.75941 4.05002 20
55 1 1.97408 12.1722 12.8674 10
56 1 -9.13481 1.28012 -7.50228 20
57 1 -4.64146 5.25197 10.4722 21
58 1 -0.357571 -19.0875 3.95593 12
59 1 7.50381 -19.315 -7.45873 15
60 1 4.96024 8.12754 12.3824 20
61 1 -9.6062 -1.49513 -9.41094 18
62 1 -13.4136 3.32226 -8.06488 12
63 1 7.16132 3.19235 11.9688 22
64 1 16.5994 -7.70554 -10.911 10
65 1 11.4407 -14.9059 2.51789 9
66 1 -14.005 -7.00056 2.38945 14
67 1 9.88502 11.9836 2.5656 18
68 1 10.6875 -4.75402 13.0849 13
69 1 -7.31337 -16.5597 4.68927 13
70 1 13.1465 4.26511 4.65579 21
71 1 4.03626 12.115 10.112 12
72 1 -0.235273 -10.6354 -8.15394 17
73 1 -9.21148 8.08911 4.61765 15
74 1 -8.27572 9.14436 -1.45017 19
75 1 1.53474 3.329 -9.73443 23
76 1 18.3575 4.81076 -6.38542 12
77 1 6.69039 -12.4536 7.88246 12
78 1 -3.64039 12.7572 -2.0964 16
79 1 -9.2419 6.92412 1.32895 21
80 1 -4.38229 -6.18478 10.5594 18
81 1 -0.806244 6.26456 3.49946 20
82 1 -3.81006 -8.51207 8.71886 23
83 1 13.7444 -10.2998 -7.25782 18
84 1 -6.66668 1.25005 3.91628 22
85 1 -7.66224 -15.8032 0.897613 17
86 1 14.5324 -11.8917 -12.1133 9
87 1 12.0098 -5.05086 -17.8758 9
88 1 -1.25626 -2.2493 -17.6635 18
89 1 2.98951 9.44995 0.504117 19
90 1 -6.38492 0.674337 -9.47898 24
91 1 5.13637 5.61329 14.0264 23
92 1 5.69948 8.21649 -8.00885 19
93 1 -6.56145 9.1794 1.94475 22
94 1 -3.64118 -8.82083 5.65269 23
95 1 14.9208 -6.47643 8.43643 13
96 1 7.34062 -7.3366 -12.2324 16
97 1 9.02196 -2.65132 15.6912 12
98 1 -6.4915 -9.7834 -2.67361 20
99 1 -6.52995 -9.54763 -5.96186 20
100 1 12.9076 -11.9808 -2.19771 13
101 1 11.1282 4.99499 -16.2629 7
102 1 8.53538 16.5741 -2.62921 7
103 1 -4.44232 -16.2491 11.0023 7
104 1 -5.95675 -17.0563 7.69374 12
105 1 4.73092 -7.98109 -17.5827 17
106 1 12.9706 -12.403 -5.37279 15
107 1 3.1284 -18.5665 4.94883 13
108 1 -6.25244 -13.2681 -0.426579 16
109 1 17.4271 2.42408 9.81875 11
110 1 18.4662 -7.3686 -8.19583 9
111 1 -11.9933 -9.36493 4.114 18
112 1 13.2319 8.07049 3.44238 18
113 1 16.0091 10.8099 3.21513 11
114 1 -2.19546 -2.04777 17.4538 6
115 1 -5.90819 8.89916 9.59718 9
116 1 -3.20629 11.2974 -5.35503 20
117 1 2.52219 -10.2529 -10.4826 19
118 1 9.86448 -15.9679 -13.0988 13
119 1 7.2092 11.0447 -12.7566 8
120 1 12.4813 -8.34134 8.70507 13
121 1 3.18642 -0.201392 -17.479 17
122 1 -1.07367 5.46597 -10.8698 19
123 1 13.2432 -1.87949 -5.86776 19
124 1 -6.44924 6.66303 -6.71096 19
125 1 -5.14827 10.4364 -2.75719 20
126 1 9.86359 -1.89174 -10.6593 22
127 1 10.0897 -12.5894 3.10761 19
128 1 3.06115 13.5442 7.11931 9
129 1 17.2209 1.59169 -5.36269 16
130 1 8.44025 12.4004 -4.34847 16
131 1 -2.23565 11.7002 0.386423 19
132 1 14.7455 5.67234 -3.64406 19
133 1 -1.13076 6.02213 -6.41272 20
134 1 2.63908 9.79913 -8.75724 13
135 1 5.58156 5.58297 -12.9591 21
136 1 -13.5785 -12.4616 -0.0309948 9
137 1 -13.3969 3.97722 -1.48666 15
138 1 -2.86635 -4.25493 -14.1545 21
139 1 2.63442 -9.17648 -18.0656 15
140 1 13.251 10.267 6.22417 12
141 1 4.7432 11.5443 0.153135 17
142 1 -10.395 -6.91088 -5.35866 20
143 1 -6.07724 12.5338 2.22104 14
144 1 19.2255 -1.838 -5.97971 9
145 1 -8.19584 -1.35724 -15.2489 13
146 1 13.2479 1.445 16.4035 9
147 1 6.38359 13.9308 -1.8565 14
148 1 -0.113969 6.39512 7.06436 18
149 1 1.05128 -6.74193 -19.0915 15
150 1 2.17747 10.4548 8.36152 15
151 1 -3.38844 9.68183 -7.76687 20
152 1 7.13101 -6.47088 10.8018 14
153 1 -9.17245 -10.1041 -0.787438 17
154 1 1.46632 -12.031 -17.9952 11
155 1 -7.23663 6.15486 -9.9996 15
156 1 -1.77045 -16.0349 4.14237 19
157 1 5.69603 -16.5546 -5.88452 16
158 1 -3.55835 7.83129 -14.0989 9
159 1 -13.0892 -0.486584 6.0519 10
160 1 12.7102 3.38231 -5.88092 21
161 1 -3.53828 1.92367 12.1648 19
162 1 0.960318 -13.3633 10.8801 12
163 1 4.42437 13.1013 -4.22878 15
164 1 1.35894 4.17234 7.52981 22
165 1 16.3184 -0.728598 9.01822 17
166 1 -4.66809 14.4914 -0.116461 10
167 1 15.8659 -8.09418 -7.66911 16
168 1 -3.23933 10.5333 6.20139 13
169 1 14.1595 -9.53036 3.38432 13
170 1 -15.2325 2.27286 0.760461 7
171 1 -5.28179 -15.8996 2.56865 19
172 1 3.51644 3.2834 11.5709 20
173 1 -12.9629 -2.02309 -4.63712 17
174 1 -1.19437 -15.6102 -2.32656 21
175 1 2.34793 6.71251 2.10271 23
176 1 4.5015 11.0895 12.7697 15
177 1 -5.52616 8.69421 -10.1369 13
178 1 -12.0798 -8.10291 -7.11798 12
179 1 -3.756 -11.052 10.3299 21
180 1 0.84177 -14.3594 3.17153 17
181 1 3.35037 -17.2199 -0.477757 18
182 1 -8.10969 11.2553 -0.161468 12
183 1 16.4822 3.14027 2.91233 16
184 1 -4.25905 -7.34054 -15.6895 18
185 1 7.09028 -1.17525 10.9002 19
186 1 4.38916 -18.4332 -3.14534 19
187 1 2.8463 0.942275 -14.7083 18
188 1 4.67266 -7.6871 -13.8943 20
189 1 12.4072 -5.09364 -14.6566 14
190 1 7.23087 2.15758 -15.071 18
191 1 -4.25844 -8.06559 -9.49407 22
192 1 -5.59922 11.6165 -8.29353 14
193 1 -7.3894 -14.4769 7.11782 16
194 1 5.71845 16.0741 -4.41751 11
195 1 -5.40404 -2.17939 14.8164 12
196 1 -8.20289 10.6064 -4.39683 14
197 1 9.73155 -1.02943 9.23334 20
198 1 0.140547 -10.1012 -19.8053 7
199 1 -3.11335 6.85507 -8.16144 23
200 1 4.92873 3.73413 -10.845 20
201 1 -4.34967 -11.9815 7.15176 20
202 1 -6.60759 2.06584 7.25509 18
203 1 -4.38728 4.66449 6.98502 19
204 1 1.45513 -12.9788 -5.53675 21
205 1 -5.35713 -14.045 -3.18853 15
206 1 9.79273 -18.2066 -4.95011 9
207 1 13.477 6.73641 12.2247 13
208 1 11.3675 6.02186 -5.36812 20
209 1 2.40303 10.0699 -4.44999 19
210 1 -10.487 -1.30361 0.801007 21
211 1 -11.828 5.94618 -5.12762 13
212 1 4.26278 3.8159 9.1262 22
213 1 5.79439 -19.1771 -0.542135 14
214 1 13.2744 -7.02259 -2.4285 17
215 1 -7.14211 4.47869 5.49714 19
216 1 -9.80618 -10.6536 -7.085 14
217 1 10.7695 5.02442 -13.1236 13
218 1 7.22096 -6.28072 7.97844 21
219 1 16.7394 2.62186 -8.46955 17
220 1 2.73138 -4.98235 -14.3465 21
221 1 1.45256 -20.8272 2.37257 12
222 1 11.0151 -4.53259 -8.56505 19
223 1 -9.11823 -9.36431 5.46895 22
224 1 4.77799 -19.64 -9.38849 11
225 1 -7.341 -7.65513 -10.9557 23
226 1 7.59939 14.3243 -6.54467 12
227 1 1.87473 -2.91868 -19.3085 14
228 1 4.63373 1.91277 14.5032 21
229 1 16.7215 1.93947 0.6028 17
230 1 12.6098 -7.84364 -12.5703 14
231 1 -4.25965 -8.03435 -12.1765 20
232 1 -8.54571 -4.66168 -10.9568 20
233 1 0.904002 -17.8676 6.26953 14
234 1 15.9217 -0.863498 11.6013 11
235 1 -5.15189 -12.2938 -14.1689 9
236 1 5.77501 3.50294 -17.7174 10
237 1 6.91555 8.3759 -1.10283 18
238 1 -1.81914 -5.45234 12.5951 19
239 1 -7.8683 -8.65427 -16.5926 8
240 1 -2.96154 -10.8551 -10.78 22
241 1 2.563 6.87914 -13.9383 19
242 1 -4.48601 -12.2322 -8.6617 20
243 1 4.85181 -11.3627 -18.6054 10
244 1 18.7654 -4.10064 -8.26631 14
245 1 14.2935 1.66851 2.58926 16
246 1 -7.61184 -6.61301 5.99808 21
247 1 -1.41709 -12.9894 -0.961898 20
248 1 10.5768 4.06164 16.1588 14
249 1 4.51854 -16.7605 7.21213 11
250 1 1.03428 -14.7719 -0.204736 23
251 1 -3.05534 13.8045 -7.72184 13
252 1 7.98971 -3.24146 -15.6111 21
253 1 -10.3806 -7.31432 -14.7852 11
254 1 -6.84555 -10.3049 10.5685 14
255 1 7.75255 2.92126 18.1454 12
256 1 2.43064 -15.285 -3.19728 19
257 1 -4.67497 -14.0324 -11.7501 14
258 1 -7.02949 3.33584 -11.2921 15
259 1 14.3556 5.2184 2.22703 18
260 1 -4.05809 0.54895 -11.4218 19
261 1 0.808233 2.89254 -12.1806 20
262 1 4.96143 -14.2141 -16.4098 10
263 1 -3.00896 14.2496 -4.63884 12
264 1 5.11646 6.57199 4.41416 20
265 1 13.0544 -1.88616 4.04166 20
266 1 -9.63661 -4.88326 2.37433 19
267 1 -2.37961 -13.7763 11.867 16
268 1 -3.27535 7.49758 1.85095 24
269 1 6.09733 -5.5022 -15.8861 21
270 1 13.7731 8.21157 -4.64514 17
271 1 6.77696 -12.6582 -1.99061 21
272 1 -0.682568 -3.27889 14.2756 16
273 1 -9.75362 -12.4811 5.21085 14
274 1 1.49816 -17.8646 -4.87789 20
275 1 -6.20069 4.08893 12.3173 11
276 1 -6.3052 1.24175 14.1149 12
277 1 -11.3326 -1.08711 8.35559 11
278 1 -11.7893 -9.36412 7.14018 11
279 1 16.3249 -6.0747 -4.00669 16
280 1 -9.41766 -13.7292 9.8124 5
281 1 12.8698 -7.11135 -8.54292 16
282 1 12.1587 -16.5565 -10.2295 10
283 1 2.04324 12.4135 -6.6105 16
284 1 -10.8921 8.46018 -3.50941 12
285 1 11.93 6.31533 9.60761 20
286 1 10.0105 -12.3541 -6.46612 17
287 1 -0.122605 8.80337 1.83979 19
288 1 8.05376 -15.5972 2.64492 18
289 1 11.4387 -9.68413 5.18202 18
290 1 -0.654128 1.26401 10.4753 22
291 1 1.62588 -1.7577 14.8621 14
292 1 -0.584951 11.8897 -2.99629 18
293 1 10.9972 6.82719 14.2521 14
294 1 -8.23812 8.75084 -8.66624 11
295 1 -1.13138 -3.88443 -19.9623 11
296 1 5.61413 -10.5715 -12.2507 18
297 1 -7.30015 -1.42096 12.393 14
298 1 -12.277 1.24781 0.601678 18
299 1 -3.81862 7.71406 -1.41308 19
300 1 11.2368 -4.61982 7.6896 20
301 1 -11.2723 -14.9763 -0.284072 12
302 1 9.85692 -11.8008 6.80632 14
303 1 -6.02091 -13.6565 10.3062 16
304 1 -11.8962 7.03602 -0.204724 15
305 1 4.3848 -13.1842 -6.79803 20
306 1 -0.3082 -4.77536 -12.8074 20
307 1 13.2084 -2.38173 -15.8837 10
308 1 4.75533 8.94714 2.98292 22
309 1 -9.70394 -4.03632 -4.06181 21
310 1 5.18143 -10.9671 -15.4467 19
311 1 13.4879 -2.37472 -12.2425 18
312 1 2.13025 -15.7318 -9.69607 17
313 1 -12.5159 -11.2334 -4.93765 13
314 1 13.2743 4.28563 14.4259 12
315 1 13.541 1.22782 -3.50414 21
316 1 -6.90428 -2.13537 -11.328 21
317 1 3.05909 15.2115 -6.14677 12
318 1 -10.3049 -1.6858 -5.87735 22
319 1 -4.27867 4.27894 3.56833 20
320 1 -9.39319 6.06539 -2.25634 19
321 1 -1.69114 4.171 8.93031 17
322 1 11.0042 0.669101 10.9322 20
323 1 13.8745 -4.87083 -7.03811 20
324 1 11.9541 -7.74479 11.52 9
325 1 16.3745 -2.85235 -6.69189 15
326 1 -4.13778 -17.4257 -4.85074 19
327 1 -7.48326 -2.24356 -7.75835 20
328 1 4.40409 -12.8685 -3.36141 21
329 1 13.6386 -3.79802 6.51261 21
330 1 -7.18394 -7.26598 -7.20462 20
331 1 -4.45059 -12.8014 3.89581 20
332 1 -4.78831 -12.3441 12.9686 13
333 1 -1.50249 9.79478 -0.868757 20
334 1 -11.6935 -13.0849 -2.63249 14
335 1 8.16863 8.76276 14.1401 12
336 1 -7.32853 3.90346 -1.30069 22
337 1 2.76648 5.74399 -11.4447 22
338 1 7.94476 13.6916 3.5589 9
339 1 -12.4704 -9.9384 -1.73549 15
340 1 -1.89473 -13.0191 -7.14541 22
341 1 -9.00519 -3.7473 5.52628 20
342 1 -11.0469 3.03192 -6.41343 18
343 1 6.80939 -11.8965 4.37391 20
344 1 -3.25292 -14.4902 -4.90827 17
345 1 7.93178 6.79177 2.53966 21
346 1 8.03701 5.25239 -14.6811 17
347 1 -12.2912 4.47717 -11.3232 8
348 1 -0.240712 12.667 -12.5937 5
349 1 -7.48137 3.37821 -7.96691 19
350 1 -2.22261 -15.8849 0.925127 21
351 1 17.3754 4.78454 5.28335 11
352 1 2.45161 8.66422 -16.6793 6
353 1 -12.8675 -1.65714 -1.1087 16
354 1 -4.38768 -15.6855 5.50909 19
355 1 11.6167 -12.5909 -14.2523 13
356 1 -10.2627 -0.888324 4.05522 17
357 1 -10.9533 -7.18086 10.2511 9
358 1 -12.9147 4.83322 4.72786 10
359 1 -2.85444 0.857733 -19.2623 12
360 1 10.232 -13.5681 -9.6855 19
361 1 -0.145379 -10.7709 -12.4157 14
362 1 -1.81903 -6.79973 9.19362 21
363 1 0.327525 -0.395395 -19.6189 12
364 1 8.65652 -16.1869 -6.8338 19
365 1 5.7655 8.34203 -4.63039 19
366 1 -11.1033 9.94286 1.2468 10
367 1 -3.89431 -8.75087 12.2508 19
368 1 -11.0551 -8.00988 -11.1516 11
369 1 -10.8568 -6.6431 7.05351 17
370 1 10.0336 -7.38468 6.16252 22
371 1 13.0852 -12.119 4.52854 11
372 1 18.7817 2.86483 -3.33745 11
373 1 -0.749511 -0.780648 12.776 22
374 1 3.80292 9.09992 -2.1865 21
375 1 -4.5838 -15.2333 -7.74471 23
376 1 -0.390388 2.24657 14.2553 17
377 1 1.71221 9.42135 3.67461 17
378 1 -6.85065 -16.2927 -8.92554 9
379 1 11.3336 16.7598 -4.66527 7
380 1 7.03971 4.09994 7.26084 22
381 1 -4.66881 -0.945818 6.84551 19
382 1 -7.64957 -1.41384 9.20187 16
383 1 -6.4243 -10.3379 -8.64673 19
384 1 -4.19791 7.37154 4.95225 20
385 1 -3.03233 -16.8514 -10.3898 10
386 1 1.22601 -7.32981 -15.5039 18
387 1 -3.96437 -11.9378 0.954934 19
388 1 11.317 -3.13385 10.6866 22
389 1 -1.82163 -10.8087 13.3454 14
390 1 -6.7701 0.58851 -13.0216 19
391 1 11.8843 2.52865 2.35703 20
392 1 -7.43916 -18.2277 -3.65858 10
393 1 1.79297 12.006 -1.89383 19
394 1 -0.638815 9.27925 12.8217 13
395 1 -12.391 -5.02555 -5.73509 17
396 1 -0.332943 14.635 -6.77749 9
397 1 8.31814 6.20641 -7.01547 23
398 1 -3.71022 -9.7502 -7.32136 19
399 1 7.28633 3.09718 14.8805 18
400 1 4.34631 -15.2607 -12.9179 17
401 1 4.46443 -7.54198 -10.6597 23
402 1 9.60974 -17.8866 -0.0617916 8
403 1 -6.57941 6.73915 3.57418 22
404 1 2.17959 0.973426 16.4926 12
405 1 10.7084 6.97721 -1.89504 16
406 1 -5.1436 5.63124 -12.3414 12
407 1 -13.2505 -7.20642 -0.846787 16
408 1 6.15974 13.0672 1.56353 16
409 1 0.0650636 3.94397 -17.5799 14
410 1 17.7672 5.71458 -2.69324 15
411 1 8.05938 9.08791 -10.2874 14
412 1 15.7543 -1.63145 0.524048 17
413 1 1.62974 -2.17054 -12.5584 21
414 1 6.72601 -17.2982 4.52328 13
415 1 -0.748979 -9.59592 10.4914 19
416 1 -13.1206 1.9277 -11.3661 9
417 1 -4.7628 -19.1189 3.97361 8
418 1 -2.04897 -12.6784 -13.3899 15
419 1 10.5601 11.409 5.96126 11
420 1 6.20781 1.20613 -12.1478 16
421 1 7.85862 -3.34638 12.7179 18
422 1 -9.43606 1.63504 8.68376 13
423 1 -2.79178 -18.519 -1.01405 16
424 1 -10.4651 -7.25483 -2.41322 21
425 1 17.4109 -10.2066 -5.95785 8
426 1 13.9857 -4.57546 -0.428844 22
427 1 7.93848 -10.615 -6.77579 21
428 1 7.37834 -1.64711 -12.8305 18
429 1 10.9784 -10.8805 -8.55352 21
430 1 -2.16775 -6.75011 15.6166 9
431 1 10.5305 13.7555 -2.71289 18
432 1 -4.08479 -1.25517 -16.0269 15
433 1 9.32714 -0.747763 -15.3638 15
434 1 -4.76082 -6.14657 7.20537 22
435 1 0.501093 14.5712 -0.941691 9
436 1 -5.72693 -3.64182 -15.5049 16
437 1 -12.6348 -4.16165 0.882352 16
438 1 -4.59254 -9.74969 -16.2071 11
439 1 -1.46145 -12.8548 9.03873 16
440 1 3.04324 6.33526 -8.35873 18
441 1 17.9601 -0.463081 7.26059 16
442 1 16.5817 8.36738 -3.58315 15
443 1 -9.15056 -15.2556 -2.78519 14
444 1 -3.87725 -2.24242 -21.1025 4
445 1 -1.64012 11.1224 3.72635 16
446 1 16.5062 -6.9358 3.02793 10
447 1 3.71843 10.5184 -12.5837 10
448 1 15.2554 4.18798 -5.97405 21
449 1 5.94908 5.79107 10.3957 21
450 1 -7.64786 -0.770779 5.83138 18
451 1 7.7899 7.46628 9.18345 18
452 1 12.0858 -1.40443 15.2868 13
453 1 1.75432 -2.27613 -16.0042 21
454 1 2.17379 -3.06482 12.9195 17
455 1 10.3102 8.80191 2.05756 17
456 1 13.1417 6.37918 -8.01372 19
457 1 -6.01242 12.9047 -5.30571 15
458 1 3.49914 6.8336 -4.92336 21
459 1 14.2932 -3.57454 9.97106 17
460 1 11.6105 -0.181237 -12.6283 19
461 1 10.0741 -12.4347 -3.09588 19
462 1 15.4303 7.84051 9.2879 9
463 1 -13.3827 -10.0003 1.44391 12
464 1 -1.51925 6.40223 -16.8143 10
465 1 -8.24149 -6.21418 11.6966 12
466 1 -1.09652 7.28755 -12.8919 15
467 1 5.97167 -15.8443 -3.00819 15
468 1 7.98909 -5.10815 -10.3369 21
469 1 -0.464334 10.7025 -7.98118 17
470 1 -6.93811 -8.26532 -13.9401 19
471 1 5.27316 -20.0795 2.8555 11
472 1 -9.64432 -9.64008 -4.02282 21
473 1 6.47367 8.20742 -13.6297 15
474 1 -0.367905 5.72302 13.734 15
475 1 -6.3474 -9.43812 7.2355 20
476 1 4.986 -10.3815 -8.60759 20
477 1 2.74731 -10.4058 10.5423 11
478 1 -9.65178 5.40113 3.95877 18
479 1 10.1453 0.826871 17.1669 13
480 1 5.82845 15.206 -8.01532 8
481 1 13.3183 -7.51247 -5.21853 20
482 1 7.46677 9.47545 11.1918 12
483 1 6.20429 0.881336 -18.6871 12
484 1 1.76824 -16.4329 8.44674 12
485 1 10.5886 -2.82127 -17.5336 16
486 1 8.65439 12.3872 -0.288879 17
487 1 14.3915 0.551138 -13.9016 7
488 1 1.45062 -6.95535 -12.2286 20
489 1 -5.22261 -12.461 -5.66251 23
490 1 -8.82751 -4.40198 -14.6427 17
491 1 17.8482 5.69623 2.05475 15
492 1 17.8402 -0.0347265 -2.1401 15
493 1 8.16112 -10.7789 -9.97683 19
494 1 13.2831 3.49808 8.02095 19
495 1 5.25772 -15.8109 -8.78743 19
496 1 7.87788 -1.25647 -18.6481 16
497 1 13.8071 8.6443 -1.46434 20
498 1 10.3412 8.05918 11.6578 15
499 1 12.2905 4.47725 -2.97087 18
500 1 16.0926 -3.76164 2.17055 16
501 1 13.632 3.10319 -9.20872 18
502 1 12.3479 3.87312 11.4174 21
503 1 16.3632 2.06068 6.78177 17
504 1 16.8412 7.61621 -5.95926 14
505 1 4.90493 -1.4807 13.2078 19
506 1 18.9172 -6.03451 -2.33306 10
507 1 12.4302 -1.59194 7.83495 21
508 1 -2.90048 -5.2924 -10.8872 19
509 1 18.2066 7.52733 4.26688 9
510 1 -8.1107 6.20533 9.40265 7
511 1 10.5772 8.93201 7.84155 16
512 1 15.0707 -1.41778 6.55309 20
513 1 5.25066 6.6945 7.80905 20
514 1 5.75006 12.1075 7.35226 13
515 1 0.355878 -18.0862 1.22408 17
516 1 -3.50603 6.77177 -5.0589 19
517 1 13.9475 8.92161 -9.15433 10
518 1 14.1439 -5.41423 -10.858 18
519 1 7.87852 9.67409 -5.72943 19
520 1 -1.76227 -18.7863 -6.57198 13
521 1 10.677 -8.12838 -15.9177 14
522 1 -12.99 1.67152 3.70728 15
523 1 -4.85352 3.37811 -14.0328 17
524 1 -5.58867 -20.3088 -5.89861 7
525 1 -4.24297 -2.03797 -12.7962 18
526 1 -9.92332 1.41887 -3.85405 20
527 1 11.1622 -9.45055 1.4807 19
528 1 14.9437 6.18773 -0.494069 16
529 1 1.35703 -11.7296 4.58265 22
530 1 -12.2829 -5.44721 -9.48544 12
531 1 9.12918 -4.33918 -19.9679 9
532 1 -3.48906 -0.32159 14.4679 13
533 1 8.96085 7.41586 -12.1409 14
534 1 16.8392 -3.70753 8.1965 13
535 1 11.5655 0.747583 -8.83473 20
536 1 10.9209 13.9111 -5.58624 13
537 1 4.86595 -13.2493 -10.1801 22
538 1 -7.39028 -7.27407 9.237 19
539 1 16.5567 -0.837189 3.62594 20
540 1 -1.08222 9.48247 9.16839 17
541 1 12.411 11.0944 -7.4246 12
542 1 -10.0343 8.4287 -6.79908 12
543 1 11.9859 11.4768 -0.20027 19
544 1 -7.68596 -12.303 -3.93497 19
545 1 13.3598 -6.73173 0.88287 19
546 1 2.37573 12.4682 1.43 16
547 1 -4.01647 2.3942 8.98812 19
548 1 -6.73033 -10.0465 0.761033 20
549 1 -6.06821 -5.06301 -9.2638 21
550 1 10.2124 -1.57755 13.1223 19
551 1 1.35455 -5.89002 11.2678 19
552 1 14.8388 5.05118 10.6384 15
553 1 -4.48153 10.8065 0.373077 22
554 1 4.78511 -3.02486 -17.8608 18
555 1 -6.31732 -3.43604 7.55129 20
556 1 11.0299 -5.36848 -11.8068 21
557 1 11.4204 -15.2173 -6.62839 16
558 1 10.9231 0.550741 7.13173 21
559 1 -4.80945 -6.95804 14.3331 16
560 1 10.8079 5.25101 7.1699 22
561 1 -0.429965 -3.68598 10.5516 21
562 1 -2.08597 4.42346 12.0229 17
563 1 -1.59261 -8.43251 -17.7947 13
564 1 -4.87746 -0.663355 10.0825 18
565 1 9.87303 2.91294 12.2646 19
566 1 -5.05804 -17.9185 0.827586 16
567 1 19.612 7.6788 0.382456 9
568 1 10.3594 -18.7731 -8.08262 10
569 1 9.24407 10.1647 -2.08497 18
570 1 11.0734 14.054 0.926163 9
571 1 9.27519 -6.00868 -17.2738 17
572 1 10.0076 8.4007 -4.25887 17
573 1 19.3738 3.87136 -0.119978 9
574 1 -3.69182 -11.8917 -2.53467 20
575 1 -0.463337 -5.436 -16.266 20
576 1 -6.19074 6.84415 0.133718 20
577 1 9.31195 -12.4426 -12.8191 21
578 1 11.8467 3.56574 -11.0949 13
579 1 14.933 10.3919 -6.19931 12
580 1 14.9165 1.66214 11.2304 14
581 1 13.3338 -2.24461 12.9455 13
582 1 -0.70029 -15.7486 9.21918 15
583 1 0.645257 4.1615 -14.7525 19
584 1 7.48022 10.0425 7.21984 13
585 1 9.09113 -11.2805 -16.1962 13
586 1 9.13298 11.5225 -8.0655 13
587 1 10.6895 5.85131 3.86115 21
588 1 16.2667 -8.58592 -3.25324 14
589 1 8.49346 5.73257 16.029 13
590 1 -12.906 -1.2374 2.71196 14
591 1 6.08196 -15.854 -0.130042 15
592 1 -3.17729 13.3204 2.73292 11
593 1 7.37322 9.67439 1.33332 19
594 1 -10.9957 -7.47987 0.78892 21
595 1 4.66695 0.743054 18.1626 12
596 1 3.33562 3.56378 -16.9556 14
597 1 -2.53406 3.99897 -19.28 7
598 1 9.71936 -12.2105 -0.289944 17
599 1 10.545 3.94993 -7.65796 17
600 1 -10.0994 4.46555 7.0862 13
601 1 9.02794 -6.10493 -14.1577 20
602 1 5.39465 -14.195 4.17383 16
603 1 4.89648 10.8468 -6.25801 16
604 1 -4.73005 -4.76585 16.664 8
605 1 -5.91446 -10.7777 -11.8868 21
606 1 0.0743291 -10.9903 -15.6961 15
607 1 -7.55365 -13.277 -10.779 12
608 1 -2.91482 11.7006 -10.2739 12
609 1 -1.30391 8.89199 5.24594 19
610 1 6.27812 -13.237 -13.8257 20
611 1 6.9598 -19.7417 -4.20613 12
612 1 4.95369 -9.24791 8.01329 17
613 1 15.6052 -1.40699 -4.3443 20
614 1 2.50004 -15.6126 -6.83318 19
615 1 -10.518 -6.82555 4.24839 19
616 1 1.81773 -20.8108 -4.56926 13
617 1 -7.32824 -13.524 -7.6912 18
618 1 -7.60546 -8.63799 14.1908 8
619 1 -4.99885 -19.4604 -2.44375 11
620 1 16.5319 -3.32384 -1.89933 18
621 1 2.36548 11.7572 5.06852 14
622 1 -12.1826 7.27957 3.26966 12
623 1 13.7353 -5.03572 3.50109 20
624 1 -11.4027 -5.30288 -12.6914 12
625 1 0.421197 7.74898 -9.12411 18
626 1 12.6873 -2.34281 -9.84658 21
627 1 8.84313 5.68608 12.7297 20
628 1 -12.6021 -2.76284 -7.93477 13
629 1 -8.87714 -10.4508 -11.3711 11
630 1 1.01804 3.87649 10.8878 22
631 1 7.9808 3.8881 -11.7953 21
632 1 13.7625 9.50671 1.07848 14
633 1 -1.94025 -1.26616 9.07707 20
634 1 -1.18735 -19.3405 -3.55757 15
635 1 -2.07693 -17.2186 6.87461 14
636 1 13.2257 7.29538 6.54357 20
637 1 1.22763 -13.4504 -11.9185 13
638 1 -6.46618 7.69177 -3.55991 19
639 1 9.38487 3.44457 2.37145 21
640 1 -7.78591 -7.50162 2.85098 21
641 1 11.2105 6.57377 -9.66043 14
642 1 -0.97115 -16.2953 -8.46813 17
643 1 4.33443 -21.57 -3.29889 12
644 1 0.844465 -17.8454 -2.20461 20
645 1 8.97433 0.792765 -10.5418 20
646 1 6.72983 11.1135 -2.49227 17
647 1 -1.2937 -1.63034 -14.7748 20
648 1 1.26755 -1.29992 10.8239 19
649 1 5.01677 6.70413 -16.3629 10
650 1 -11.1308 -3.52143 -15.4125 10
651 1 -7.45513 -7.07744 -3.77558 23
652 1 0.905219 9.66117 -11.253 18
653 1 -3.23472 -4.27993 -17.0059 16
654 1 15.8911 2.8007 -2.59472 22
655 1 14.1736 -9.40094 -0.57212 13
656 1 -6.81407 7.47557 6.93106 17
657 1 7.11675 -13.0272 1.43494 23
658 1 16.7727 -6.1755 -0.0631243 12
659 1 15.5285 -6.79333 11.0369 7
660 1 2.33119 6.96951 5.51768 20
661 1 -7.33255 -4.69413 13.9622 11
662 1 -6.77288 1.37693 10.7818 16
663 1 2.57402 -14.3496 5.70368 19
664 1 5.02382 8.88263 9.63801 23
665 1 -12.3995 -4.69114 -2.66432 18
666 1 13.0025 -13.2716 -8.69135 14
667 1 -6.3542 9.36966 -5.9561 20
668 1 7.97101 -18.8554 2.04756 9
669 1 8.05604 0.190175 13.9205 19
670 1 5.1599 11.5532 4.6446 17
671 1 4.08465 -12.0197 6.50617 19
672 1 5.31423 0.99326 11.2073 21
673 1 -13.1828 -8.19146 -4.10397 16
674 1 1.99029 7.70753 14.1215 17
675 1 8.35817 6.02614 -0.410829 22
676 1 -7.22965 -13.4834 2.89472 19
677 1 -1.96499 -19.3277 1.68903 13
678 1 7.93642 -9.41885 6.70482 20
679 1 16.3001 -9.88409 5.11191 8
680 1 10.0867 3.40779 5.34553 20
681 1 1.63095 -12.3985 -8.66401 19
682 1 0.192053 0.186351 -13.1674 17
683 1 -3.32148 -3.12066 12.0927 21
684 1 0.621182 14.8331 -3.99864 13
685 1 18.8033 -0.519377 1.29604 9
686 1 7.77781 3.46746 -8.91963 20
687 1 -0.575061 6.62126 10.5977 20
688 1 9.2777 4.93067 9.8905 21
689 1 9.58474 -9.66016 -13.4546 20
690 1 -4.13805 -14.8654 -0.217458 18
691 1 19.3375 -1.48317 4.53445 9
692 1 5.81511 -4.52735 -12.7333 23
693 1 4.29944 3.76664 16.5423 12
694 1 7.1046 -14.7537 -11.2741 21
695 1 8.82292 2.44126 -17.6 12
696 1 18.9199 -0.237541 -8.70982 6
697 1 18.0362 -3.73876 -4.35591 15
698 1 4.12671 -6.94289 9.86363 16
699 1 -1.69504 -7.05502 -14.3385 19
700 1 13.5909 13.4714 -4.79473 11
701 1 -9.24351 1.81372 2.15324 17
702 1 14.3785 0.975784 -6.73863 20
703 1 18.3831 9.91443 1.93507 9
704 1 2.98775 -5.53193 -17.1101 21
705 1 -0.0471487 11.7205 6.93969 11
706 1 15.6063 8.48219 6.16799 13
707 1 15.93 5.78091 -8.35606 12
708 1 10.6788 -2.4671 -13.9368 21
709 1 10.8268 -9.66663 -1.76972 20
710 1 -10.402 -1.16125 -2.46415 20
711 1 13.5026 3.49532 -0.230875 21
712 1 -9.30494 -13.0396 0.199302 19
713 1 -10.0198 5.19419 -8.44953 14
714 1 7.7159 1.65311 9.14568 24
715 1 -9.00815 -4.78972 -7.17269 19
716 1 -9.53599 2.15328 5.16371 21
717 1 14.1971 -9.08038 -10.3542 17
718 1 -10.0785 -12.9976 -5.47127 13
719 1 15.7015 -11.8747 -3.2293 8
720 1 -13.7608 5.02126 1.33512 12
721 1 13.49 0.630016 5.36373 23
722 1 -2.26024 -11.0183 4.15945 16
723 1 13.0238 1.09686 13.2055 18
724 1 13.0311 -6.96117 5.70198 16
725 1 -9.54314 1.78078 -0.960951 17
726 1 2.55403 7.00176 8.51918 19
727 1 5.84554 6.16153 -9.4684 20
728 1 -2.85833 -10.0552 -13.7107 19
729 1 0.0887893 13.7951 2.23781 8
730 1 -3.83068 -14.5542 8.49831 22
731 1 12.4766 11.1795 -3.07355 15
732 1 2.3544 4.36839 14.1386 19
733 1 19.367 -6.63844 -5.72674 9
734 1 9.53432 -8.72592 8.71259 14
735 1 -2.28053 8.83277 -10.6829 19
736 1 10.6319 8.7302 -7.73364 18
737 1 -3.48897 -4.12817 8.76194 22
738 1 15.1427 5.55384 7.31588 17
739 1 -1.09363 -7.80696 -10.9374 19
740 1 17.5227 9.61028 -1.12941 12
741 1 -13.4886 1.00984 -2.69349 14
742 1 -0.767917 -14.2026 6.22172 20
743 1 7.23383 12.3631 -9.83095 9
744 1 8.14845 -3.53981 9.1875 22
745 1 -0.636699 -13.5466 -3.91005 20
746 1 -7.10966 13.8124 -2.53021 10
747 1 -13.8967 3.63746 -4.58597 14
748 1 15.4764 -2.8391 -9.502 15
749 1 2.76593 -13.0787 -14.6953 15
750 1 -7.00262 4.0125 2.01094 20
751 1 15.4731 2.86048 -11.5882 8
752 1 7.50197 -8.33317 -15.4695 19
753 1 -8.77718 -5.51545 -17.8149 7
754 1 -0.603422 -16.2024 -5.45261 24
755 1 -3.14651 7.18627 7.7861 19
756 1 7.06721 -13.1053 -4.92237 20
757 1 0.313737 9.8872 -14.3669 11
758 1 13.7286 -3.93252 -3.63939 19
759 1 11.1722 5.36729 1.06137 20
760 1 3.79846 -20.2699 -6.78412 11
761 1 5.87842 -5.7339 -18.9075 13
762 1 14.8516 0.256019 -1.19865 17
763 1 -3.06405 2.22129 -16.8604 17
764 1 -0.950398 -9.02852 7.39824 17
765 1 8.17264 5.77965 -3.75487 23
766 1 -7.40428 4.40345 -4.3855 18
767 1 -12.2459 2.28566 7.09162 13
768 1 6.87439 0.13464 16.4991 14
769 1 -6.6652 -12.2805 5.80553 17
770 1 8.71002 7.22467 5.8945 17
771 1 1.62607 -20.9869 -1.24514 10
772 1 5.94473 5.5101 -6.02151 20
773 1 -3.47937 8.35057 11.3012 11
774 1 -9.08833 -4.6012 8.90215 17
775 1 -4.10752 10.0773 3.33983 24
776 1 1.29587 -9.07654 12.9247 8
777 1 3.08197 -16.2821 2.55783 15
778 1 10.7515 2.77165 8.86373 21
779 1 10.0733 -7.31156 -7.27125 20
780 1 8.38397 -14.4547 -15.7279 9
781 1 -5.91963 0.706839 -16.131 13
782 1 2.41861 2.22884 -19.2418 10
783 1 7.83297 10.8623 4.15834 15
784 1 -6.12253 -4.26286 10.7398 18
785 1 -1.87831 3.29261 -11.3852 19
786 1 -12.4406 0.409803 -6.17963 19
787 1 14.8716 11.5618 -2.10507 12
788 1 -7.41709 -19.1053 -0.319751 7
789 1 12.6042 12.5105 3.52137 11
790 1 -6.63216 -15.5897 -5.22689 19
791 1 4.13173 9.05536 6.27425 22
792 1 -4.3941 -9.85335 15.1204 11
793 1 1.18664 -18.6229 -8.41553 12
794 1 16.7169 -4.0921 5.35793 15
795 1 4.18965 -21.3754 0.101015 10
796 1 5.0553 8.50425 15.7236 11
797 1 17.1581 -4.32388 -11.4123 7
798 1 11.1797 -10.0885 -4.71366 20
799 1 4.42455 -2.73014 -14.272 18
800 1 -10.0462 -2.17126 -12.7174 12
801 1 -2.18432 1.70358 -14.0339 18
802 1 -4.18994 6.04007 13.5455 8
803 1 16.8596 -9.8339 8.92174 5
804 1 -9.054 -10.4352 2.40512 20
805 1 13.0184 -2.59028 1.08837 19
806 1 5.82684 -0.820004 -15.94 19
807 1 16.5118 7.83088 1.11462 18
808 1 2.14878 9.48999 11.2206 22
809 1 -13.1738 -4.33073 4.16527 12
810 1 7.56579 -18.026 -10.814 15
811 2 -8.9244 -5.32236 -9.33338 20
812 2 -5.10733 7.67882 -5.0009 20
813 2 1.93447 -4.85132 -12.1474 22
814 2 -0.884858 4.29386 10.5936 22
815 2 5.81997 -18.4386 -10.3733 13
816 2 -4.47627 -10.017 -9.47546 20
817 2 1.40398 1.28958 14.4635 17
818 2 11.6298 0.0560232 16.2466 11
819 2 -6.73449 -12.3382 -1.94912 20
820 2 -9.40386 3.5545 -7.68262 15
821 2 6.36607 9.63084 3.29832 17
822 2 -9.87093 -1.76934 2.50119 19
823 2 2.87693 9.55326 -11.1776 15
824 2 13.0133 0.602104 7.15593 20
825 2 -2.04702 10.3947 -9.10521 18
826 2 14.5214 4.4279 -7.98273 17
827 2 -10.6939 -5.2801 -14.8525 12
828 2 -10.0164 -4.03704 -12.1936 16
829 2 5.18585 -0.8912 11.3017 17
830 2 9.95428 -4.75846 -10.4313 18
831 2 4.31738 -16.2315 0.686245 15
832 2 -3.82907 6.37385 -2.84393 18
833 2 -12.5173 -1.60816 -6.40866 16
834 2 14.7963 -1.10439 4.54622 18
835 2 12.3174 -15.0214 -9.07402 12
836 2 -12.2375 -11.8397 -1.31102 16
837 2 -9.40667 -7.26781 5.64162 20
838 2 -1.15343 -15.1776 2.5562 17
839 2 11.5194 -11.7179 5.57445 10
840 2 -0.648993 -18.3086 -7.91093 14
841 2 9.47505 -3.49485 14.0059 16
842 2 2.41541 5.11179 -13.2826 16
843 2 5.67567 -20.7177 0.983058 10
844 2 -9.36359 -13.8902 -3.90139 12
845 2 0.188724 4.00432 14.2615 12
846 2 -6.57547 4.9753 0.100252 22
847 2 2.54475 -0.871513 16.2538 13
848 2 -1.11371 7.11281 -7.97323 23
849 2 11.1599 -12.1564 -4.87626 19
850 2 -2.0037 2.00085 9.24199 19
851 2 0.705114 9.89558 -9.27853 16
852 2 9.41878 13.1147 4.35502 12
853 2 12.3965 15.1178 -5.19079 9
854 2 13.0671 -4.8229 -9.04691 19
855 2 -4.34279 6.74493 11.799 13
856 2 8.16917 0.711172 -18.9821 9
857 2 -1.73035 5.30071 -18.3433 9
858 2 13.5793 4.02361 -4.42998 20
859 2 -5.03028 -10.6007 13.6911 14
860 2 -12.1504 8.16835 1.40579 11
861 2 17.3557 -3.92021 -9.56988 13
862 2 -5.59558 -11.8503 10.9673 14
863 2 1.7556 -10.8846 -12.1254 19
864 2 2.08723 0.211285 -19.2256 11
865 2 -10.3888 -9.26464 -2.02202 19
866 2 13.5589 9.65526 -3.29527 17
867 2 -1.27232 7.10101 1.86089 21
868 2 -3.83343 -13.4643 -7.11017 20
869 2 1.46733 12.678 3.27362 12
870 2 10.9296 -2.58934 16.0234 11
871 2 2.0229 -11.9918 9.55759 16
872 2 17.2839 2.84703 4.95707 16
873 2 8.29233 10.8404 -9.53529 13