ITEM: TIMESTEP
3000
ITEM: NUMBER OF ATOMS
2000
ITEM: BOX BOUNDS pp pp pp
-30.0 30.0
-30.0 30.0
-30.0 30.0
ITEM: ATOMS id type x y z Coordination
1 1 -10.0222 4.47603 -15.6473 12
2 1 -1.10882 -8.16803 -9.42145 22
3 1 1.25907 12.5261 15.1742 11
4 1 7.42364 -11.463 7.0184 12
5 1 -12.4653 9.25737 -1.39756 22
6 1 9.86062 -9.33828 -11.8966 16
7 1 -11.1329 3.59855 -6.2572 22
8 1 2.51113 -6.98308 11.7994 14
9 1 -7.49903 1.91603 -10.2335 19
10 1 -12.9656 -8.86936 5.96482 15
11 1 14.8434 3.70459 -7.95276 11
12 1 -4.1137 2.01261 -5.71109 17
13 1 -2.33615 -10.148 0.258943 26
14 1 -11.5096 -6.50112 5.99201 20
15 1 2.70644 4.29968 16.4115 21
16 1 5.85933 -6.84559 4.67184 16
17 1 -0.112331 2.09092 11.6965 20
18 1 7.85776 -5.54809 6.72882 18
19 1 0.0774371 9.98275 -11.5885 18
20 1 3.53035 1.79224 15.2966 18
21 1 -9.99616 -1.36647 -16.6304 10
22 1 -15.0386 -3.70837 13.1488 8
23 1 13.1859 2.54701 7.12478 20
24 1 -0.064569 12.0771 -13.9841 14
25 1 3.16277 4.80834 -13.8109 20
26 1 11.0909 3.21418 12.3318 19
27 1 -12.0465 1.64098 3.12682 18
28 1 -13.0104 5.29242 -8.03435 16
29 1 -1.0192 0.791337 -6.54609 17
30 1 -11.8356 9.5778 8.35853 15
31 1 8.42661 -14.5325 5.11495 9
32 1 -0.849506 -1.42036 7.25354 20
33 1 2.99467 -14.7791 -13.0283 10
34 1 8.03281 -12.6076 -1.62388 12
35 1 -7.08964 -13.9817 -4.76174 14
36 1 -12.1068 -5.01637 11.679 17
37 1 4.89482 -5.91755 -7.5676 20
38 1 -0.270843 -6.33299 -12.6505 18
39 1 8.30507 -8.65017 -14.3682 11
40 1 -4.2016 5.03093 -17.768 11
41 1 0.622785 5.6072 12.5652 20
42 1 0.0970907 -11.151 7.82881 16
43 1 4.4747 -5.62572 13.7556 10
44 1 -11.6562 -1.15678 3.60156 23
45 1 -16.2532 -3.75094 7.25094 14
46 1 -7.90699 1.3753 -1.23482 24
47 1 -5.66729 16.789 -3.39948 11
48 1 -0.4932 -15.1173 -12.656 11
49 1 2.59338 1.7306 -9.28843 18
50 1 7.30419 -4.7339 -9.03456 23
51 1 -2.22729 -2.73581 12.7809 18
52 1 -14.1299 3.69817 -2.24784 14
53 1 4.69578 14.9864 -13.3004 11
54 1 -0.320416 11.8947 5.94165 18
55 1 -9.39945 8.81595 -8.7226 20
56 1 -1.39577 15.2556 0.441817 20
57 1 0.349088 -9.48558 2.3528 21
58 1 6.74504 -7.95752 -4.69651 20
59 1 5.44934 -5.23068 -16.5164 11
60 1 -8.84686 8.97408 13.0756 12
61 1 -12.3822 -4.72783 -8.93659 14
62 1 7.14799 0.970573 6.29416 20
63 1 -8.50609 8.27438 -3.39402 21
64 1 -5.20053 -8.90168 8.22254 21
65 1 -4.33901 11.37 9.83224 14
66 1 -12.7015 8.50757 -7.97349 16
67 1 -6.02149 8.22095 14.4945 13
68 1 0.517622 8.69547 -7.97976 20
69 1 1.03798 6.50387 3.1075 19
70 1 -6.68649 -16.1492 7.94908 10
71 1 3.34075 4.57319 8.29845 17
72 1 3.64913 -14.7701 -9.56885 14
73 1 3.94778 12.7882 19.5544 11
74 1 -10.581 3.07215 -9.71329 17
75 1 -13.7274 7.29906 -10.778 11
76 1 5.54543 4.24701 10.6531 18
77 1 14.8725 -2.17945 -10.7188 9
78 1 8.95314 -11.4671 3.9071 11
79 1 -15.663 -2.10015 4.11829 14
80 1 -5.74332 -0.85846 0.588295 19
81 1 6.3786 15.9766 5.77433 16
82 1 5.83758 -2.72653 13.9787 15
83 1 -5.54356 -12.479 4.86715 20
84 1 -11.2034 -1.14884 0.256045 19
85 1 9.84128 2.36059 6.49525 20
86 1 8.0561 -1.69654 -0.895279 18
87 1 1.71062 11.8693 9.06005 17
88 1 4.3418 -1.10895 7.83407 17
89 1 -9.52913 -3.60743 1.94729 22
90 1 -3.42915 -5.36848 -8.74994 20
91 1 -14.738 8.16819 8.52811 10
92 1 -4.57408 11.6909 -2.3813 20
93 1 -2.80133 6.80979 -8.97783 19
94 1 5.01918 2.2952 -3.99314 22
95 1 5.1071 -0.158671 -5.45261 20
96 1 8.23727 12.1862 -5.34336 17
97 1 7.63217 -7.31385 2.56832 18
98 1 5.51032 -11.4473 9.93742 11
99 1 -6.35135 16.2237 -6.65945 9
100 1 -10.7941 11.13 5.17958 18
101 1 -8.14933 -4.3462 17.1181 14
102 1 -4.52633 5.88636 4.09325 18
103 1 -5.54691 -5.17811 12.5886 18
104 1 11.8986 -3.92748 -6.03984 20
105 1 -10.2787 4.96219 8.38095 20
106 1 -10.6846 -11.1978 2.67835 14
107 1 10.2186 -9.11608 -8.45429 16
108 1 4.87368 0.176408 -10.6939 20
109 1 -6.79221 -2.62008 -16.9158 9
110 1 1.35386 0.0104506 7.96363 19
111 1 -0.533963 12.4261 1.39243 20
112 1 -8.28643 7.0706 -11.6521 17
113 1 0.661747 8.3425 20.1521 10
114 1 -1.5647 14.0 -7.19193 17
115 1 -14.5599 12.2838 -0.0519272 13
116 1 0.449515 11.5822 -1.22473 16
117 1 -5.17536 -8.26128 11.1491 20
118 1 13.2262 2.51222 10.0074 15
119 1 2.28452 -4.20707 -9.19336 21
120 1 4.11269 -6.64184 -10.6365 22
121 1 0.500818 3.35744 7.21596 21
122 1 5.00124 -0.845308 16.3532 14
123 1 -8.90823 -5.10967 -2.29062 20
124 1 6.54878 -3.85578 3.5031 16
125 1 -7.47509 -8.64935 -3.17332 24
126 1 8.61754 -9.70364 0.282152 18
127 1 -5.67052 7.9462 2.32427 17
128 1 8.98549 4.57539 -15.2351 10
129 1 6.16611 18.9979 -2.53017 14
130 1 -7.60493 -12.785 11.3182 12
131 1 -9.98963 -12.5147 9.36615 10
132 1 -2.29933 7.39613 2.29373 19
133 1 2.73405 -8.0959 -13.6036 19
134 1 3.15547 7.39544 -3.84449 15
135 1 10.2234 -9.82099 -2.649 10
136 1 -2.56212 -14.4449 8.57312 14
137 1 -7.54884 -8.98606 3.7158 18
138 1 16.0496 7.67148 7.78091 9
139 1 15.8318 -2.1126 -7.4809 11
140 1 -15.1217 -5.36024 3.03154 12
141 1 9.30074 7.92061 4.45456 24
142 1 12.2643 8.56216 5.56711 19
143 1 -6.59853 3.52068 16.4659 10
144 1 7.03885 4.90711 0.0280081 17
145 1 -6.67767 10.1637 7.73247 21
146 1 -5.00565 10.5549 -5.38806 21
147 1 -0.369981 -5.32909 -10.0811 20
148 1 8.0146 -11.7873 -12.5299 14
149 1 1.64573 15.107 -13.6568 12
150 1 8.79822 -3.68367 12.7399 15
151 1 -0.28384 0.703752 -18.3341 11
152 1 -4.89281 8.79383 -8.3515 18
153 1 9.08957 -2.4456 -3.95756 17
154 1 -10.7889 11.584 -7.38726 11
155 1 -9.6581 14.7923 -0.109609 11
156 1 10.5938 2.44765 -10.2557 17
157 1 7.82396 -8.91524 5.62781 16
158 1 -8.14467 3.41931 -7.44315 18
159 1 -9.49135 11.2226 10.6509 12
160 1 11.7583 7.43062 -5.63472 16
161 1 4.97921 13.8321 -5.03862 19
162 1 -3.80792 16.1178 2.49739 12
163 1 11.0405 10.9902 -0.265392 21
164 1 -2.27334 10.1364 -3.46985 16
165 1 2.47274 15.5463 -10.2312 15
166 1 6.76251 11.2645 -14.9434 8
167 1 -11.4231 -9.19882 1.0813 18
168 1 -15.4853 9.94672 -2.34278 9
169 1 -4.99261 -2.04076 -14.205 19
170 1 0.572189 -9.91133 -15.6115 12
171 1 6.76203 13.3577 10.1079 10
172 1 -0.43784 15.2148 6.56086 15
173 1 -11.1993 -2.49764 -2.89878 19
174 1 -11.8682 13.112 2.18973 13
175 1 15.1781 -3.28126 -2.45658 15
176 1 -11.8475 0.857347 -16.0597 9
177 1 6.47692 1.37908 19.3786 8
178 1 5.13538 18.3816 5.17084 8
179 1 -4.14448 7.36569 7.25096 18
180 1 3.15768 -7.70574 -16.7598 10
181 1 -7.17108 12.7175 9.51317 12
182 1 -1.66855 10.0365 -9.27199 21
183 1 2.59621 -2.7408 13.5806 17
184 1 -10.6253 -3.46803 5.34164 21
185 1 -3.53846 -13.1898 -12.1197 14
186 1 -9.11414 12.2064 -9.94998 13
187 1 -2.14239 -11.7762 4.16638 20
188 1 2.29446 -14.6295 -7.16818 16
189 1 -2.99446 10.402 -12.7043 15
190 1 -14.8874 -1.02691 9.65373 14
191 1 0.440769 9.55188 -4.15535 13
192 1 11.7736 9.50653 -3.08485 22
193 1 -4.34102 5.44553 14.071 18
194 1 2.2032 -10.1657 10.7153 13
195 1 -9.60724 2.53374 0.815912 17
196 1 2.58407 16.1256 5.31998 16
197 1 0.283206 5.92203 9.2524 19
198 1 11.7399 6.85324 13.4783 14
199 1 -5.69192 11.5742 3.42511 21
200 1 13.7194 -4.67439 -8.69027 14
201 1 -6.62467 9.70995 11.1785 19
202 1 -3.63205 0.633083 -8.68053 18
203 1 11.0436 -7.77122 2.43918 13
204 1 -6.32341 -1.49876 6.82344 21
205 1 -14.2378 -1.67074 7.08288 16
206 1 -7.51511 -10.4546 6.41525 19
207 1 4.96379 8.89005 15.9288 19
208 1 -15.945 1.18131 -1.03766 12
209 1 -3.86318 -12.6052 -1.87464 23
210 1 -5.30131 -1.02427 -5.37832 20
211 1 4.03687 -7.84505 -3.34323 20
212 1 -2.67235 10.8582 3.65946 21
213 1 -8.76628 -0.402684 2.27825 22
214 1 2.93068 14.3071 13.7607 10
215 1 -8.33065 -0.942561 -4.0771 25
216 1 -6.05044 13.6584 -8.99101 11
217 1 -13.8626 -4.53939 -5.87796 12
218 1 -10.5285 -1.95998 12.7579 17
219 1 -2.54343 -8.38456 3.63133 21
220 1 2.6684 -13.7524 6.0714 14
221 1 -14.2209 11.2991 3.16259 13
222 1 14.6314 3.2131 4.26278 13
223 1 7.10191 2.86786 -5.61287 20
224 1 -5.48479 -7.48447 -15.4173 9
225 1 2.70183 0.354974 11.5899 19
226 1 5.91865 -13.4909 3.98415 17
227 1 -2.70226 6.33731 -13.1452 20
228 1 2.98466 -9.81894 -11.1125 20
229 1 7.52585 1.67272 -10.9586 21
230 1 3.7563 7.35281 -15.703 14
231 1 -5.2447 -1.7532 -8.34444 14
232 1 -4.03219 11.6876 -7.60649 17
233 1 -10.3266 -10.3992 11.7004 9
234 1 8.55782 18.4979 -3.84403 9
235 1 -9.69799 1.80623 17.1719 11
236 1 -3.47634 13.3608 -5.14671 15
237 1 7.88322 -0.697719 8.54328 21
238 1 -5.24432 -6.35023 -12.3621 17
239 1 -6.40213 11.9501 -11.7755 11
240 1 2.68606 5.02998 -10.5295 23
241 1 -5.38803 -11.8457 8.01232 18
242 1 -7.70318 4.12723 9.77861 22
243 1 -8.17268 6.39749 11.3823 20
244 1 0.490146 -12.3436 -6.5618 21
245 1 -5.29907 -12.6711 0.525749 19
246 1 8.14901 -13.5101 -4.83425 10
247 1 -3.68867 1.42992 7.21535 21
248 1 1.9919 -4.64257 -2.78267 19
249 1 9.84257 9.53957 14.803 13
250 1 6.43497 9.36589 -9.3806 16
251 1 -1.96755 13.4993 -2.23498 19
252 1 -12.2578 3.68731 5.86164 22
253 1 -13.0222 12.2235 -2.99185 14
254 1 3.0117 5.80327 10.7434 17
255 1 2.99295 -17.2688 1.99248 12
256 1 11.1482 -0.688084 -5.54542 22
257 1 1.82557 9.58468 6.28358 17
258 1 -9.89106 5.59734 5.18926 19
259 1 -10.8792 -6.58366 -2.91868 22
260 1 6.76947 4.68227 -12.5434 17
261 1 2.18932 -1.86844 10.1363 18
262 1 7.86108 11.9762 -9.01701 14
263 1 1.52204 -9.83919 -4.14 18
264 1 -3.01893 -0.689449 -11.5212 20
265 1 -1.69604 -16.6097 6.5698 11
266 1 8.16048 -0.290553 -6.66079 20
267 1 -9.49593 -1.61926 8.16307 21
268 1 2.41394 -16.545 -1.37189 13
269 1 -9.33955 -4.38278 -8.34189 20
270 1 3.73481 16.1297 -2.91287 21
271 1 1.28565 -2.9582 -14.4059 21
272 1 5.34223 5.33551 16.9339 22
273 1 12.7833 1.69728 0.761235 17
274 1 -7.07742 -6.29328 1.81929 19
275 1 13.4861 -5.11868 -11.5942 11
276 1 -4.02632 -6.99225 1.15426 19
277 1 -8.78912 -1.29285 -9.88177 18
278 1 -9.65943 0.986588 -7.85461 20
279 1 -8.54057 -15.462 9.85217 9
280 1 9.31222 -0.49338 11.197 18
281 1 5.5979 -3.96266 8.88248 19
282 1 -4.4353 -8.43339 -9.66135 21
283 1 2.2787 -4.65888 7.91618 18
284 1 2.04334 7.61351 -13.0534 19
285 1 5.89074 10.3005 -0.590776 20
286 1 -5.60084 -3.92612 5.0802 16
287 1 1.32287 15.1025 2.02629 21
288 1 -7.16843 -1.96264 14.7858 21
289 1 -9.18265 -7.59238 -5.72962 23
290 1 -6.92194 -4.03808 -10.024 21
291 1 -2.22297 5.87064 -15.7943 17
292 1 -7.60391 -8.4651 -7.71416 19
293 1 -5.58234 -6.78013 4.55694 20
294 1 -4.1916 -4.02894 0.698916 19
295 1 10.1223 -2.04386 -14.7391 9
296 1 14.0361 0.228709 -8.369 18
297 1 -0.365633 -3.93231 5.63372 18
298 1 12.0389 5.17704 0.795758 19
299 1 -1.13619 -3.90682 -4.24513 18
300 1 -7.37473 -6.2267 9.91299 20
301 1 -3.00666 -9.96335 -3.23109 22
302 1 7.9836 4.97537 18.2315 13
303 1 -6.98663 -15.7275 4.71766 17
304 1 3.15484 6.27517 -7.18527 19
305 1 -0.942152 -11.7444 -2.75985 19
306 1 -3.78349 18.4509 -5.34853 12
307 1 8.37586 1.03291 -14.4951 15
308 1 -5.29193 -4.77321 -14.9399 18
309 1 4.57466 -5.30095 2.0262 18
310 1 -9.9692 -6.9535 12.1668 15
311 1 3.41097 6.74598 21.5274 12
312 1 3.73095 -10.3452 -1.7589 20
313 1 -6.046 -11.756 -10.6592 14
314 1 -10.4921 5.95515 -9.2241 23
315 1 8.72501 5.14775 5.93046 21
316 1 -4.84692 3.75171 -8.4793 19
317 1 -0.064835 6.99197 -10.7447 18
318 1 -6.84072 1.29183 5.74592 22
319 1 6.1982 -14.0608 -11.5112 14
320 1 -6.72034 16.6598 0.226885 8
321 1 2.41773 11.0512 3.71528 22
322 1 8.68546 1.37793 3.64282 20
323 1 -9.95057 2.48355 6.80027 18
324 1 -2.96856 -4.99934 14.0079 14
325 1 -8.29616 9.19024 3.10924 20
326 1 2.52265 -4.64993 -12.059 21
327 1 14.8359 9.21466 -1.66551 18
328 1 3.49018 -10.3111 1.12744 19
329 1 -3.75976 -1.31813 15.0984 19
330 1 -17.1482 -5.2446 5.24427 8
331 1 -0.724025 -17.4828 -2.97904 11
332 1 -8.41943 6.30905 15.5244 12
333 1 -11.1012 6.51578 12.9437 14
334 1 -14.8706 -3.81867 9.99717 15
335 1 -16.2143 -6.91468 8.24666 9
336 1 15.4159 -5.92001 -1.4362 9
337 1 -10.206 -6.59636 8.99834 20
338 1 10.0056 -3.9277 -10.9088 19
339 1 9.04546 -14.0976 -7.22901 12
340 1 2.49503 19.0116 -4.58817 11
341 1 -3.15193 -5.15325 3.64529 20
342 1 -9.55613 13.2174 -3.33069 12
343 1 -0.786163 1.78742 5.43112 21
344 1 8.66326 5.42342 11.8787 21
345 1 -8.23538 -2.58588 4.81865 22
346 1 6.68409 -9.90326 -2.49521 19
347 1 -3.71315 12.189 0.799434 20
348 1 -7.38916 6.2188 4.62293 19
349 1 5.79011 -13.752 7.19574 10
350 1 13.762 -0.264579 5.78434 15
351 1 -1.85732 5.45622 6.78436 20
352 1 -7.1188 -3.43858 -6.35272 22
353 1 -1.1848 0.255525 15.7523 15
354 1 -1.64392 14.0196 3.80512 19
355 1 8.00029 7.78218 17.2089 21
356 1 -6.62211 13.962 -4.77764 12
357 1 2.59856 -4.22185 -17.7213 13
358 1 -5.43749 5.67929 -2.37255 17
359 1 6.00739 -8.72731 -11.8425 22
360 1 -9.3475 2.95201 12.309 16
361 1 -14.7148 3.18636 3.06664 17
362 1 -0.762233 -5.73365 -7.14749 22
363 1 -6.73116 10.6043 0.492969 18
364 1 7.23277 -2.61699 6.50846 19
365 1 -8.02961 -10.9671 0.784727 21
366 1 7.28864 -8.83563 8.75106 17
367 1 -3.85541 6.25411 0.15545 16
368 1 -7.8746 -9.40438 12.571 13
369 1 -15.8331 8.98933 0.213959 10
370 1 -1.03243 -1.60698 9.94953 24
371 1 2.01368 -12.7896 -10.1877 20
372 1 -6.08912 -1.06774 -11.3611 20
373 1 6.04259 -0.389975 -13.027 23
374 1 4.41748 14.2242 3.41053 20
375 1 -10.2459 0.605145 -2.11404 21
376 1 5.50918 -6.13626 -13.7815 21
377 1 9.65404 4.56008 -11.8639 14
378 1 -5.39916 -15.4041 -7.33428 10
379 1 -13.4273 -7.54326 -4.56693 13
380 1 -3.16226 -7.60523 -1.35998 18
381 1 10.6469 5.75307 16.8407 10
382 1 13.1477 1.46966 -3.34989 24
383 1 -7.38447 2.92922 -13.5073 16
384 1 3.11615 18.9149 -1.30699 12
385 1 -13.6332 -1.8285 -4.6391 14
386 1 -8.70525 8.83655 6.1715 18
387 1 -11.9787 10.4581 1.85987 18
388 1 -7.09238 7.00011 8.16614 20
389 1 8.86917 6.00035 14.722 20
390 1 10.2649 -6.25656 -4.47123 16
391 1 8.15592 -3.32325 15.6378 10
392 1 12.2642 1.97727 -6.40811 23
393 1 -5.26937 -15.2161 -3.29778 13
394 1 2.70612 4.27088 5.41137 19
395 1 -5.12452 8.2101 -3.9003 18
396 1 0.0149929 -8.66782 -6.26887 20
397 1 -0.0113306 9.48716 3.69713 23
398 1 5.35146 5.44765 -2.15226 17
399 1 -8.96919 2.17569 -4.73887 21
400 1 4.78822 -10.6169 -4.97573 20
401 1 10.224 -0.61772 5.83654 22
402 1 -9.83046 -4.21698 -4.89225 21
403 1 -4.74286 -9.7127 5.35397 23
404 1 -7.67745 -6.94073 14.5443 13
405 1 -4.47508 14.7334 -0.857244 18
406 1 -8.73308 -8.18961 -0.28302 21
407 1 5.84174 10.3306 18.5815 19
408 1 -7.2692 8.18934 -0.857995 17
409 1 2.60449 12.852 -11.9173 20
410 1 5.28424 12.4343 5.52344 18
411 1 -12.3714 -8.9886 -1.76792 12
412 1 -2.31407 -10.6018 -6.29681 20
413 1 -12.165 0.213458 6.86647 15
414 1 -11.6811 6.74598 -2.63501 18
415 1 4.55705 -9.61693 6.30661 16
416 1 -6.57744 -11.2651 -2.99477 19
417 1 12.2542 10.0512 8.85736 15
418 1 6.61958 7.93443 -14.2817 13
419 1 -13.0256 4.13246 -11.2805 12
420 1 -1.45646 15.4155 -9.92897 11
421 1 -10.2757 6.31217 -6.38093 18
422 1 -2.03183 -13.0071 1.21659 20
423 1 11.509 5.3542 6.33049 22
424 1 1.76603 9.6697 -15.2739 13
425 1 -5.05158 4.21817 8.28092 20
426 1 -16.8143 1.32716 2.27507 11
427 1 -7.51502 4.29658 6.44927 20
428 1 -5.04202 -15.253 2.32515 17
429 1 1.91082 -4.25589 -6.03297 18
430 1 7.13023 -7.88177 -8.3489 22
431 1 -2.84645 -1.38809 5.32254 22
432 1 -15.856 3.60436 5.7265 9
433 1 -15.7926 -1.15718 12.328 8
434 1 -15.2617 9.23594 5.61056 10
435 1 -2.45838 -4.04249 8.02835 20
436 1 -9.54517 2.10527 -17.5738 8
437 1 7.88382 -10.2093 -10.2329 18
438 1 -0.276077 -9.93148 -12.0336 22
439 1 -4.5604 -2.29981 11.8951 23
440 1 3.69444 -8.12128 -6.3392 21
441 1 -6.49466 2.71131 -16.2098 16
442 1 5.54427 -12.1507 0.485578 20
443 1 2.70812 11.6699 -5.29481 18
444 1 -13.7434 11.1875 6.57017 10
445 1 -5.98428 -2.32799 17.4732 11
446 1 -9.99971 -7.26019 -9.27416 15
447 1 -5.15653 -5.77625 7.52889 20
448 1 11.5015 -4.9938 11.3712 12
449 1 6.41687 0.719633 0.915322 19
450 1 -6.25526 1.81871 2.1764 22
451 1 2.25714 -1.10718 -7.96095 19
452 1 10.8481 -7.71691 8.97304 8
453 1 1.7151 9.52082 0.908562 17
454 1 14.9245 6.81058 -4.12052 14
455 1 -3.44144 1.32544 10.5096 24
456 1 1.02029 14.8785 -1.62316 19
457 1 8.19729 -6.28643 10.0238 14
458 1 -4.71333 -12.2416 -4.83392 22
459 1 -0.896139 5.98954 18.3428 11
460 1 -2.52798 13.6788 8.01284 14
461 1 -10.9859 -12.012 -7.03996 8
462 1 9.43351 15.4604 1.75275 14
463 1 4.4993 7.03196 6.89572 19
464 1 -6.35797 1.5203 8.48213 23
465 1 -4.17048 -6.38003 -4.01988 22
466 1 -11.861 3.8597 10.7937 20
467 1 -6.79277 -5.97437 -4.26675 22
468 1 -5.57149 9.30285 5.20422 21
469 1 -4.91727 -10.8125 -7.74402 20
470 1 -2.20503 -8.26023 -14.7145 16
471 1 -4.72128 -10.392 2.28379 19
472 1 -5.56688 -1.12492 3.65801 19
473 1 7.33775 3.15402 8.34552 20
474 1 -5.87245 -4.92203 15.7534 13
475 1 -10.8725 7.68531 -11.6148 16
476 1 9.6493 5.20207 -1.02123 22
477 1 -7.30272 -13.949 -0.989644 16
478 1 0.903033 3.43898 -6.6806 15
479 1 2.63419 18.0427 2.70841 12
480 1 0.42531 5.98549 -8.1464 14
481 1 0.580689 8.52104 11.9142 18
482 1 -13.5449 -0.872701 -1.61796 17
483 1 -0.453287 19.27 -6.19329 11
484 1 5.30235 11.4016 -6.97501 23
485 1 -6.20916 -6.05041 -7.38786 22
486 1 3.58125 2.23632 18.0444 16
487 1 -0.835018 -13.115 -10.4431 21
488 1 -0.286611 -2.84142 -11.7059 21
489 1 8.01425 -13.2175 1.85019 14
490 1 -10.2314 8.95806 0.114378 19
491 1 3.61293 6.38802 14.3594 23
492 1 8.39587 8.3194 -0.454292 19
493 1 2.75613 9.40859 -2.10288 18
494 1 -9.12757 9.76983 -12.3376 13
495 1 3.97868 3.28361 -7.09935 18
496 1 2.66432 -7.1548 6.10423 17
497 1 -13.486 -6.78215 0.367762 14
498 1 4.51894 17.6505 8.32437 8
499 1 -3.18286 3.46142 -13.9677 20
500 1 9.24114 6.47255 1.97513 22
501 1 6.96492 14.2363 -7.08576 14
502 1 7.32155 -4.98252 -0.123413 22
503 1 15.4522 1.68776 -0.0507738 12
504 1 0.403533 -0.0846612 -13.4525 20
505 1 0.744664 -10.4312 -0.259388 17
506 1 0.389491 -12.4317 4.93228 20
507 1 1.81309 -8.38423 8.50592 19
508 1 -10.7532 5.04666 -12.2067 15
509 1 -10.8586 -11.3952 5.97287 15
510 1 4.43152 5.44519 2.13779 19
511 1 -2.88609 -11.0682 -10.2172 24
512 1 10.0744 15.7043 4.92398 11
513 1 1.39299 2.24871 -11.9996 20
514 1 1.54593 -0.369037 16.0925 16
515 1 -13.4051 2.46669 14.7873 11
516 1 -2.06046 -17.0127 1.52358 14
517 1 -12.7175 -3.50552 2.04794 20
518 1 14.7813 -4.66567 -5.38947 15
519 1 11.086 -0.749794 -2.12517 19
520 1 -2.38956 3.65871 -7.41948 17
521 1 -7.17291 7.81189 -6.10163 17
522 1 4.84763 -9.38068 -8.54202 22
523 1 4.47751 2.80754 -12.0078 21
524 1 9.1608 -3.234 -7.24672 21
525 1 -6.40986 0.962795 17.5535 10
526 1 5.03609 17.6044 0.343931 16
527 1 -3.90818 -1.8912 -16.5832 12
528 1 -0.249756 -7.01372 4.13663 20
529 1 5.10541 3.35 -19.1185 11
530 1 -9.24984 -3.83435 10.5272 22
531 1 -2.74261 16.7399 -2.38619 13
532 1 -8.47285 -2.89298 -13.7707 16
533 1 -15.0258 0.548314 4.36774 17
534 1 -1.33599 -11.8186 -13.3577 15
535 1 -3.94443 -12.4511 11.2158 13
536 1 1.45733 11.8532 -8.85776 18
537 1 14.1866 4.92133 8.68966 15
538 1 13.758 4.12031 -1.88626 18
539 1 -9.55397 -10.9393 -1.52587 15
540 1 -0.139794 -8.56616 -2.11576 17
541 1 1.6915 -1.10879 -16.7107 18
542 1 -9.50517 8.09578 9.18945 18
543 1 5.15597 -3.19716 -10.6543 21
544 1 2.95347 6.541 -0.0557693 16
545 1 11.0303 -3.05965 -0.503199 19
546 1 3.53858 14.2073 -8.09188 22
547 1 2.62989 -7.50647 -0.175226 22
548 1 5.98931 -2.66376 -2.60857 20
549 1 14.0033 4.63328 -5.30121 19
550 1 4.01953 12.4358 16.3713 14
551 1 -9.64645 1.14893 9.3411 22
552 1 -3.62639 -4.2575 -2.68172 22
553 1 6.95147 10.6009 12.1334 14
554 1 8.21268 -0.204401 17.1088 14
555 1 1.60089 2.42369 -15.425 20
556 1 -4.01358 -3.7989 -5.66722 20
557 1 0.384686 -1.21532 13.1446 19
558 1 7.36227 11.3493 7.23003 17
559 1 5.71181 6.83552 -8.45048 19
560 1 -7.64703 10.9584 -7.08114 20
561 1 -1.05768 15.8205 -4.60178 20
562 1 11.3756 -1.9019 13.566 12
563 1 12.9333 0.34482 -10.9875 15
564 1 10.8046 -11.327 -5.80176 12
565 1 11.7001 9.44703 11.6247 12
566 1 -14.0005 -10.0852 3.18322 10
567 1 -5.83104 9.90272 -13.0141 14
568 1 -1.32369 1.20987 8.807 20
569 1 -13.4766 -1.42918 14.8165 11
570 1 -3.44548 12.7477 -10.874 13
571 1 2.82372 -13.0047 -4.70771 16
572 1 7.60077 -1.65925 -9.75892 22
573 1 -3.08581 16.7971 -7.21992 13
574 1 -8.14295 -5.58398 -12.8853 11
575 1 2.6729 -14.5263 3.28417 17
576 1 -12.3277 -6.14728 3.11679 23
577 1 3.18182 12.7069 -15.3664 13
578 1 -8.24493 5.26285 -0.866836 19
579 1 -0.722907 9.61933 14.112 16
580 1 -11.889 -3.72528 8.20416 22
581 1 5.54485 11.1468 -3.40923 21
582 1 2.90701 -11.6056 -7.69082 23
583 1 3.49183 -4.7713 10.7792 19
584 1 7.94062 0.240207 -3.5458 24
585 1 -10.9355 6.3461 0.786333 14
586 1 4.79981 4.47029 19.9304 15
587 1 5.36979 17.3746 -5.1842 12
588 1 12.478 -7.09811 -6.6082 14
589 1 3.58718 8.92599 12.425 17
590 1 -0.8851 3.95113 -17.8418 12
591 1 -5.22811 -14.935 10.9394 9
592 1 -0.357399 -0.0538975 -9.59767 22
593 1 7.92553 2.61843 -17.2625 13
594 1 2.76071 15.1191 7.89241 11
595 1 8.50362 4.62132 -9.26893 19
596 1 -0.668642 -3.48902 -16.6726 14
597 1 -5.43186 -9.2909 -5.00903 20
598 1 -10.4874 -3.9265 -11.0727 15
599 1 11.2568 2.2759 -1.36777 19
600 1 16.5585 3.25692 -3.33939 14
601 1 9.79902 -5.91458 -7.99007 18
602 1 14.4453 7.86813 10.5388 10
603 1 7.33571 -10.6835 -7.08485 20
604 1 3.37021 4.37222 -16.8433 17
605 1 5.74657 13.8304 1.11964 17
606 1 -9.20986 3.05753 3.55123 20
607 1 8.84568 10.2789 18.4823 9
608 1 11.7107 7.99889 0.112741 21
609 1 14.4334 -0.495318 2.46926 12
610 1 11.551 5.01486 -8.30106 15
611 1 8.61614 2.19988 14.2725 18
612 1 11.9052 6.1008 10.4252 19
613 1 -0.0459143 -4.58555 10.4216 21
614 1 10.99 12.4212 -3.64838 18
615 1 7.19837 4.46107 3.13526 18
616 1 0.402803 2.5276 14.76 22
617 1 13.9276 -1.33597 -5.19679 20
618 1 8.10189 2.7116 11.3003 22
619 1 -6.86745 0.400641 -6.65662 21
620 1 12.4907 7.33225 3.06633 18
621 1 9.98743 -4.94752 1.76079 20
622 1 -0.490333 -6.71039 0.64202 19
623 1 -12.4952 6.80082 10.5256 15
624 1 8.91509 8.57136 12.6783 18
625 1 8.23974 -0.614937 14.0534 19
626 1 4.35878 10.2464 8.16616 18
627 1 0.72977 11.5251 12.3168 16
628 1 3.78802 1.3741 6.59704 22
629 1 -1.7394 -15.1136 3.30273 22
630 1 -6.87587 11.2064 -3.85581 16
631 1 10.1287 10.5503 -6.51583 14
632 1 12.2759 -3.01817 -12.9042 12
633 1 -0.0794964 18.8081 -2.77121 10
634 1 -2.92773 -13.4932 -7.9131 21
635 1 10.6271 -6.25425 -12.6585 14
636 1 -12.9945 1.42614 8.94438 18
637 1 -5.7679 4.62377 -11.9524 19
638 1 -8.37378 -16.9878 1.98881 8
639 1 -4.78869 1.87187 -11.3967 22
640 1 -14.7856 1.06859 -4.13446 10
641 1 10.3043 -6.96357 5.79818 14
642 1 9.89524 10.2219 6.78363 20
643 1 -1.23223 -9.17708 6.60713 22
644 1 -14.0992 -1.80048 -8.07468 10
645 1 1.91035 1.95778 -19.6118 8
646 1 2.41328 -2.1095 5.43041 15
647 1 -1.55687 4.73975 15.1836 19
648 1 7.84038 10.8122 -12.2498 13
649 1 12.7341 1.10526 13.5238 10
650 1 8.35437 4.1915 -3.53666 23
651 1 5.5597 -2.49806 0.963344 23
652 1 11.9479 13.7939 2.86123 12
653 1 0.261117 -16.1462 -9.29868 12
654 1 -10.5189 -2.79717 15.6873 13
655 1 11.8087 -2.1662 3.3599 19
656 1 -1.32892 10.7527 10.6503 16
657 1 7.64051 13.7363 -12.6771 7
658 1 -12.7595 9.17183 -4.71914 14
659 1 8.37967 12.2871 1.23165 20
660 1 -9.54615 -13.698 0.719003 12
661 1 12.5705 -5.27122 3.44752 15
662 1 7.51097 17.0991 2.75472 15
663 1 -2.34415 4.3553 9.30673 22
664 1 -10.511 -8.41743 3.6413 20
665 1 -9.66555 -1.81392 -6.74666 17
666 1 5.8132 0.789663 12.6574 19
667 1 -2.49304 -9.55479 12.4278 11
668 1 6.42565 7.29724 14.2427 22
669 1 -6.2223 13.879 1.25113 19
670 1 10.0822 -0.20789 1.01071 17
671 1 4.62618 -5.18281 -1.53211 23
672 1 11.2214 4.23502 3.47347 19
673 1 3.50837 1.07294 -17.2575 19
674 1 -7.02553 -0.957556 9.7672 17
675 1 9.73465 -0.359623 -12.1259 18
676 1 -3.2099 -7.45532 -6.72638 20
677 1 10.8867 -12.0044 -9.39737 10
678 1 8.64469 5.70094 8.90743 19
679 1 5.45645 3.91723 5.48161 19
680 1 -11.0878 0.486566 15.0739 17
681 1 8.74423 9.38119 9.76496 17
682 1 -0.61104 -3.08633 15.5596 14
683 1 -2.17165 6.22475 12.008 22
684 1 -2.02043 -4.43593 -14.0751 20
685 1 -6.66047 1.86946 11.3984 18
686 1 -5.15149 5.52501 -5.91526 15
687 1 5.83588 3.88703 14.0809 22
688 1 -8.14694 -13.6587 6.67329 18
689 1 14.4676 6.86781 -0.327557 13
690 1 5.465 -14.0814 -7.33386 16
691 1 -6.64778 6.36784 -8.98777 19
692 1 8.5856 12.3928 -1.72981 17
693 1 7.7508 13.9505 4.06403 19
694 1 6.03783 0.198871 -19.0777 9
695 1 -4.00826 -1.51684 8.52978 20
696 1 1.00083 14.1155 -5.33598 17
697 1 14.7291 11.4743 0.164488 12
698 1 -6.0137 -6.66196 -1.08902 25
699 1 -1.69334 -0.398942 -14.9702 19
700 1 -11.204 12.2464 -0.855425 19
701 1 7.48766 -6.60343 -11.6058 22
702 1 6.3319 6.88438 4.35019 20
703 1 8.25436 5.89626 -6.49306 19
704 1 13.2583 12.1872 -2.37191 13
705 1 -1.36184 4.50868 3.88198 21
706 1 -7.76345 4.97441 1.94562 16
707 1 5.99837 8.51667 -2.76721 19
708 1 11.2506 2.74652 15.6668 12
709 1 10.7084 -0.328675 16.1629 13
710 1 -0.646069 -12.3535 10.3841 16
711 1 -4.30528 8.17502 -14.8106 13
712 1 6.13827 13.0082 14.0735 14
713 1 8.62434 -5.79417 -14.9716 12
714 1 2.00687 2.39428 9.69062 20
715 1 7.43247 15.7858 -3.65487 16
716 1 7.80257 10.8806 4.07084 21
717 1 -5.31936 3.36233 -1.00593 17
718 1 13.051 -6.2953 -3.21026 20
719 1 5.7858 7.50132 19.2198 16
720 1 -13.4449 -6.56801 8.83019 12
721 1 0.93425 -15.2948 1.12403 23
722 1 -0.421847 -2.66086 -8.12369 16
723 1 -8.92204 12.0669 2.59893 21
724 1 1.32796 6.85524 6.24542 22
725 1 4.72267 -5.05491 -4.8038 20
726 1 3.31907 12.0107 0.686581 21
727 1 -13.4065 -3.60436 4.97202 19
728 1 0.271353 2.8624 17.5438 14
729 1 -5.83716 5.63253 -15.2423 18
730 1 -8.01685 7.05463 -14.6359 12
731 1 2.2936 -13.3044 -0.340916 18
732 1 7.21363 8.6704 -5.86041 20
733 1 2.67795 -7.37248 2.83493 18
734 1 -1.67657 9.84814 0.997657 16
735 1 -13.9835 4.77464 12.9508 10
736 1 4.79974 -2.95269 -13.3505 20
737 1 2.87923 -12.7415 9.34975 12
738 1 0.972665 17.665 0.363941 13
739 1 -3.17177 2.39146 15.6158 17
740 1 -7.1171 -7.44697 -10.3244 16
741 1 -3.82819 -9.54407 -12.8703 16
742 1 -8.02095 -13.2226 -8.31494 15
743 1 0.502724 16.3643 -8.1005 15
744 1 5.45242 -2.75716 -7.28148 22
745 1 -3.10385 10.6552 6.91667 19
746 1 5.30439 -11.8526 -10.142 23
747 1 5.11566 -14.732 0.982828 14
748 1 4.75981 -6.95466 8.1868 20
749 1 15.0262 1.21795 -5.65056 17
750 1 -1.11487 -15.9438 -6.33165 14
751 1 -12.0204 -2.42166 10.3992 17
752 1 2.22668 1.06311 -5.88254 16
753 1 -5.53417 -16.3239 0.0340268 12
754 1 -8.13201 -11.026 -5.99726 20
755 1 -11.7959 0.975145 12.1782 20
756 1 -7.64816 -13.1121 3.16679 20
757 1 12.2124 6.91872 -2.68949 21
758 1 -3.32422 15.8362 5.58966 13
759 1 -4.96624 3.34354 5.06059 18
760 1 -14.0817 7.78637 2.88689 15
761 1 9.46759 -3.91108 4.52056 20
762 1 -11.6592 -1.06539 -9.64582 14
763 1 -0.667613 11.3433 -6.71263 18
764 1 9.50903 2.82673 -7.08764 20
765 1 6.84267 13.2466 17.3622 11
766 1 10.0562 1.71212 -4.39068 23
767 1 -12.9971 1.13139 -7.29576 13
768 1 -11.6021 -6.38952 -6.16625 18
769 1 2.61052 7.05281 17.7529 22
770 1 5.02396 6.67285 -11.6273 19
771 1 10.5373 12.4009 4.14916 19
772 1 -2.19785 0.245722 12.6253 20
773 1 -2.96013 -15.6461 -0.810571 15
774 1 -9.88401 -16.611 6.67909 8
775 1 -2.7905 -4.81104 10.5356 22
776 1 15.0888 10.6407 9.4721 8
777 1 2.0575 -7.5678 -8.48048 19
778 1 -8.16626 11.2608 -1.52219 17
779 1 5.10715 11.0778 2.27874 21
780 1 -8.44533 -4.42852 7.16838 24
781 1 8.37637 7.61418 -11.3302 15
782 1 -2.47977 -15.9626 -9.6395 14
783 1 -0.447486 -18.2313 3.32851 12
784 1 -0.715676 -14.4231 -1.58271 19
785 1 5.50216 3.80766 -9.23094 22
786 1 7.85997 18.3167 -0.0994245 11
787 1 -4.5777 0.665347 -14.3825 19
788 1 -2.37491 3.49873 12.6455 20
789 1 0.776943 6.34957 -15.7765 16
790 1 -11.3093 -1.15609 -13.2506 12
791 1 -12.0127 -4.27544 -0.959397 17
792 1 2.85294 18.0172 -7.50476 10
793 1 8.28929 -1.80461 2.48133 20
794 1 -3.08252 -5.22743 -17.3297 11
795 1 -6.96907 -4.1918 0.140927 17
796 1 9.08667 7.19499 -3.61564 22
797 1 13.1486 -8.70066 -0.583272 9
798 1 -5.15786 6.99931 11.5474 20
799 1 6.51327 -9.75192 2.29105 17
800 1 12.6816 -6.07843 0.407233 18
801 1 13.3908 -1.7761 11.5129 8
802 1 -0.639546 9.14908 7.52639 19
803 1 -10.9497 4.46769 15.0915 13
804 1 -6.93124 4.16101 13.2339 20
805 1 -2.71971 -11.671 7.03995 21
806 1 5.52764 -0.525499 3.56082 19
807 1 7.4652 10.5553 15.5409 17
808 1 -14.2399 -0.292822 1.40578 19
809 1 7.15259 -5.88001 -2.93531 19
810 1 -10.2192 10.2199 -4.10876 19
811 1 3.30379 8.2129 3.41372 24
812 1 0.169913 -14.4594 7.73589 17
813 1 6.41435 2.0051 16.2301 20
814 1 1.12749 13.6375 4.00717 17
815 1 1.70378 -9.6455 5.10882 21
816 1 -5.57449 -0.409523 -2.35409 20
817 1 2.92145 3.46823 12.6585 20
818 1 -14.3495 -4.82271 -2.69694 12
819 1 1.63768 10.4386 17.6184 13
820 1 3.62642 15.3219 0.272353 20
821 1 -7.94337 -7.3231 6.90138 21
822 1 -4.27322 -14.752 5.54109 17
823 1 8.84125 -3.35483 9.58895 18
824 1 13.1149 -6.11727 8.112 8
825 1 7.03556 8.42242 7.50745 19
826 1 -2.39975 9.09697 -6.11146 18
827 1 0.690031 -10.5894 -8.57304 20
828 1 -1.74093 1.60935 -11.7745 20
829 1 -5.14815 0.513647 13.7165 18
830 1 -0.869121 17.0608 3.41898 15
831 1 12.1231 1.19458 3.54119 21
832 1 3.43295 8.73836 -9.12778 20
833 1 -2.59587 7.40717 15.4206 14
834 1 5.95522 7.76168 10.4883 20
835 1 7.77924 -3.42844 -12.3134 22
836 1 -5.81985 -9.40854 -0.299555 21
837 1 -6.44962 2.29799 -3.91329 19
838 1 15.4973 0.799972 7.68123 7
839 1 2.41757 -1.66679 -10.9689 22
840 1 0.583079 6.95499 15.3534 21
841 1 9.31212 -14.5667 -10.3404 10
842 1 6.31161 5.79418 -16.9222 10
843 1 -1.08361 -6.91751 -4.21358 16
844 1 13.0257 3.97675 -10.9098 12
845 1 14.8627 -3.69866 0.950841 11
846 1 0.744645 -5.30854 13.6372 12
847 1 -2.64806 -7.09826 -11.9563 19
848 1 6.44776 15.3323 -1.09713 19
849 1 -0.346656 -6.29749 7.84805 23
850 1 -13.3355 6.51864 5.79646 17
851 1 11.2766 4.57374 -4.2559 25
852 1 16.3324 6.35893 3.72761 8
853 1 2.62429 -5.48785 -15.0476 19
854 1 -7.67334 12.0864 5.73902 20
855 1 15.5277 9.19878 5.24743 14
856 1 10.0607 15.1245 -2.45981 13
857 1 5.35287 2.43449 -14.8199 21
858 1 10.2681 -5.68903 -1.55023 17
859 1 -12.8156 2.03285 -0.289194 18
860 1 10.3459 9.67954 2.24927 20
861 1 -10.3279 -5.8849 0.857797 23
862 1 -12.0752 10.7922 -10.3443 12
863 1 5.23637 1.41086 9.59193 21
864 1 -11.7204 0.453727 -4.88526 21
865 1 -13.7065 4.94039 8.3949 16
866 1 -2.73541 4.30107 -10.9646 21
867 1 12.2524 -7.54332 -10.1406 12
868 1 -11.2781 -9.11727 -7.16301 18
869 1 12.4823 -9.20332 -3.71455 10
870 1 -14.3531 5.7295 0.90084 14
871 1 -6.42611 -3.53131 -3.00928 24
872 1 10.5815 7.58967 7.83955 21
873 1 -2.76302 -7.13064 9.40587 21