ITEM: TIMESTEP
27000
ITEM: NUMBER OF ATOMS
2000
ITEM: BOX BOUNDS pp pp pp
-30.0 30.0
-30.0 30.0
-30.0 30.0
ITEM: ATOMS id type x y z Coordination
1 1 -12.3802 5.5715 -9.84777 15
2 1 -3.49693 -9.47789 -4.86771 20
3 1 2.70289 16.7803 16.7553 8
4 1 4.37205 -7.71971 9.56608 16
5 1 -11.4077 12.5301 3.87255 20
6 1 10.0595 -6.59529 -11.2504 11
7 1 -14.6462 6.00012 -4.83596 16
8 1 -2.6437 -3.17036 17.4385 12
9 1 -9.67914 6.18409 -8.31271 17
10 1 -13.5152 -8.08154 10.6998 16
11 1 12.8558 4.90348 -8.91043 7
12 1 -6.88248 7.16403 -2.45961 23
13 1 -4.91605 -6.56538 4.56603 19
14 1 -16.9069 -3.89608 7.83485 12
15 1 -0.383363 9.14066 17.069 18
16 1 3.79968 -1.16544 6.42582 21
17 1 -6.59382 7.34059 14.489 20
18 1 6.81481 -1.76016 7.69569 22
19 1 -3.43137 14.6007 -6.34062 22
20 1 -3.24667 1.4251 12.6281 20
21 1 -10.5413 4.10497 -13.2242 14
22 1 -13.8625 -3.06876 17.6641 8
23 1 9.25472 3.05369 10.6929 23
24 1 1.91466 12.8408 -8.19817 20
25 1 1.62882 6.0361 -10.5632 18
26 1 7.11855 4.65669 11.1282 18
27 1 -13.0518 3.63096 5.43867 20
28 1 -11.4427 6.7719 -5.67675 18
29 1 -6.17139 2.12476 -5.98682 23
30 1 -13.8147 14.7037 12.2008 15
31 1 3.83348 -13.9062 9.21465 9
32 1 -3.37855 1.40215 9.45996 23
33 1 -0.160478 -10.2094 -9.21453 15
34 1 5.77438 -3.90068 -1.60072 21
35 1 -8.61852 -6.48134 3.57891 18
36 1 -12.3054 -7.32976 13.5201 12
37 1 2.95575 0.414207 -3.77173 18
38 1 4.11822 -2.98882 -9.26362 21
39 1 6.85085 -6.8508 -12.9102 14
40 1 -5.51688 5.20536 -14.333 14
41 1 -1.68003 9.72516 12.6074 24
42 1 -0.0686141 -6.33389 11.3816 20
43 1 0.673985 -3.36263 16.8135 12
44 1 -15.3478 4.83167 1.50708 20
45 1 -16.6643 -4.00141 11.2751 11
46 1 -9.47123 5.14135 1.00368 21
47 1 -6.88376 15.0317 -0.757475 22
48 1 -5.81195 -5.81593 -8.05738 21
49 1 1.15632 -1.92554 -8.71919 24
50 1 5.9581 -2.24549 -12.3144 18
51 1 -3.24204 -0.804086 15.1425 19
52 1 -15.9741 9.88775 2.48437 21
53 1 1.66277 14.1502 -10.7979 15
54 1 0.293304 18.6243 9.29454 11
55 1 -12.802 12.1505 -5.94232 15
56 1 -8.9154 16.1216 0.889026 21
57 1 -0.581409 -5.01903 -1.24507 22
58 1 8.44901 -1.4448 -5.38192 16
59 1 0.24106 -4.09946 -16.0709 9
60 1 -12.8126 16.1028 14.6599 9
61 1 -15.9745 -1.40099 -4.76888 12
62 1 2.3142 1.57047 6.00577 23
63 1 -14.312 9.99986 -0.61632 19
64 1 -11.397 -3.82074 7.88391 18
65 1 -2.96891 17.5684 9.20879 16
66 1 -15.4612 9.72214 -6.26265 11
67 1 -8.89592 15.422 15.2382 12
68 1 -1.38482 12.0645 -6.03835 20
69 1 -0.560958 6.76347 7.84436 21
70 1 -6.69281 -10.4176 8.94082 19
71 1 -1.34064 9.29284 9.15493 24
72 1 7.15621 -12.3004 -3.9871 12
73 1 -0.756967 14.7581 16.694 16
74 1 -14.9979 7.14798 -8.1102 10
75 1 -16.3566 8.67754 -3.1124 17
76 1 1.91675 11.1926 13.1402 21
77 1 11.2747 -0.127531 -9.50788 13
78 1 6.89915 -9.73544 3.87413 14
79 1 -18.56 -1.32088 9.44051 10
80 1 -16.274 3.33062 6.14026 19
81 1 2.38057 17.962 7.25403 14
82 1 1.40211 4.53841 14.4491 23
83 1 -9.06693 -11.8847 10.068 10
84 1 -12.113 5.57959 2.33927 20
85 1 7.00173 4.20791 8.06202 21
86 1 5.5541 1.95072 1.26928 19
87 1 -1.24097 14.8054 6.80653 22
88 1 2.3006 1.65572 9.32566 21
89 1 -12.0797 -1.6114 5.76899 22
90 1 -6.48367 -2.64822 -6.18813 20
91 1 -15.4156 12.2728 10.3321 15
92 1 -10.8401 18.0113 -0.081913 11
93 1 -6.35165 10.1639 -7.34263 22
94 1 4.43579 4.6461 0.225405 21
95 1 1.88936 4.96074 -2.15143 21
96 1 5.08422 15.842 -3.51681 18
97 1 6.02279 -3.95165 1.51497 23
98 1 0.43307 -7.20246 14.3175 12
99 1 -7.29635 17.7833 -1.44058 16
100 1 -9.91097 15.4649 8.11488 21
101 1 -6.98079 -0.250353 16.8225 15
102 1 -4.15656 9.53945 7.57566 20
103 1 -5.86118 -7.03196 9.12396 18
104 1 13.0699 -7.06471 -5.52249 10
105 1 -15.496 7.45246 8.61392 21
106 1 -12.3103 -10.5649 5.95799 13
107 1 11.7453 -9.22992 -2.8386 9
108 1 1.88641 1.53317 -6.73054 18
109 1 -10.2364 -0.987985 -14.0682 11
110 1 -1.6218 4.07187 9.30011 23
111 1 -3.82129 15.2937 4.7428 24
112 1 -8.7721 11.3285 -8.17862 22
113 1 -5.30531 8.19404 20.396 11
114 1 -3.33875 13.6413 -3.47113 20
115 1 -18.2536 11.2403 4.05579 15
116 1 -4.10988 9.59057 4.77385 23
117 1 -6.31608 -2.90272 15.2977 16
118 1 7.9109 -0.239117 11.588 15
119 1 -1.24268 -1.44391 -3.81384 17
120 1 4.75614 -5.42704 -6.68932 23
121 1 -7.69813 10.0242 12.5241 20
122 1 -0.57494 1.06515 19.0084 14
123 1 -12.2374 -2.05587 -0.628499 21
124 1 1.20353 -1.17095 4.55856 22
125 1 -8.26309 -6.21538 0.264448 19
126 1 6.58675 -9.51048 -0.463068 20
127 1 -5.85589 12.3982 4.89661 22
128 1 2.21175 3.93619 -9.05703 22
129 1 5.88006 17.4336 1.8442 16
130 1 -7.41498 -9.03611 11.7752 19
131 1 -6.15506 -12.4459 11.2657 10
132 1 -8.92713 8.40169 -0.681725 19
133 1 1.72332 -4.81638 -13.942 14
134 1 4.95708 12.384 -3.5383 22
135 1 7.49532 -7.07662 1.40611 16
136 1 -2.68178 -14.0608 9.50584 13
137 1 -11.8812 -2.2343 2.52679 20
138 1 11.4 6.0686 11.1091 16
139 1 14.5036 -1.22595 -5.65817 12
140 1 -17.9797 -1.03042 6.24426 12
141 1 7.45061 9.41942 7.98816 19
142 1 13.4034 9.75463 8.24886 13
143 1 -8.54351 2.68696 17.2283 17
144 1 1.83329 9.5653 0.889409 22
145 1 -8.69167 12.1072 14.5707 19
146 1 -9.03064 16.0079 -5.7999 13
147 1 -5.44031 -4.90242 -11.3014 21
148 1 8.20281 -8.42102 -10.5273 14
149 1 -1.78012 17.1225 -7.00929 16
150 1 -0.279981 6.28834 16.9418 19
151 1 -2.22254 1.5852 -14.5011 20
152 1 -6.87581 10.0967 -4.29563 23
153 1 9.18842 6.4317 -1.8886 20
154 1 -15.857 11.4987 -3.3006 14
155 1 -11.877 15.4675 2.10388 23
156 1 4.72849 2.98075 -7.73721 15
157 1 4.71916 -7.6253 2.3585 22
158 1 -8.5031 5.64982 -5.31519 21
159 1 -10.1583 17.3202 13.2555 13
160 1 10.7243 7.18469 -4.73992 17
161 1 4.55802 13.9898 -0.51743 18
162 1 -5.98334 18.0198 1.32871 15
163 1 14.9626 10.9082 5.40183 9
164 1 -5.93895 15.6867 -4.02024 20
165 1 -0.468388 18.9029 -1.75046 19
166 1 -0.627874 12.2774 -12.2428 12
167 1 -14.1983 -8.61951 7.61995 15
168 1 -19.2567 8.78878 1.84314 12
169 1 -4.79722 1.144 -13.2187 19
170 1 -0.798943 -6.95095 -12.1761 16
171 1 6.71446 15.2553 12.7406 12
172 1 -1.1386 19.0377 6.6744 14
173 1 -17.3914 2.091 0.876402 16
174 1 -12.4584 16.6723 8.07229 14
175 1 11.2845 0.837844 1.67103 21
176 1 -13.1905 2.9718 -11.2352 13
177 1 1.03373 3.99206 20.7352 12
178 1 4.99829 16.3022 4.49292 20
179 1 -5.87026 19.0756 10.5356 10
180 1 -2.39145 -4.62539 -13.9686 18
181 1 -6.52408 17.5079 8.25551 19
182 1 -4.09611 11.1688 -5.12555 23
183 1 -0.395256 0.928874 14.552 19
184 1 -14.2544 0.825114 5.56185 22
185 1 -4.86721 -8.07523 -9.85757 19
186 1 -11.9764 14.5363 -6.75507 9
187 1 -2.45918 -10.5003 8.35574 17
188 1 2.0432 -13.9371 -0.744395 12
189 1 -6.18885 13.9577 -9.0974 16
190 1 -16.3922 4.38577 9.62068 21
191 1 -0.578269 9.61266 -0.714022 23
192 1 7.41139 11.2082 -1.78828 22
193 1 -11.7722 11.1482 16.0525 18
194 1 -1.36337 -5.38339 16.1942 14
195 1 -9.83961 5.00552 4.07986 19
196 1 2.26434 17.4434 2.98226 18
197 1 1.54541 13.9667 15.2212 20
198 1 6.90685 8.7362 12.2247 18
199 1 -9.18381 18.02 6.31132 14
200 1 13.3616 -4.06108 -6.70997 12
201 1 -6.76011 16.8962 12.6386 15
202 1 -10.1107 8.42109 -3.67309 21
203 1 8.72812 -3.3253 3.27192 17
204 1 -6.9222 -1.5018 6.07834 20
205 1 -17.0514 1.79407 8.6589 15
206 1 -9.10346 -3.35364 5.88425 19
207 1 1.88099 6.8583 12.7218 20
208 1 -18.1836 5.28484 0.628207 15
209 1 -6.02174 -9.80718 0.356902 17
210 1 -8.62951 2.25257 -0.860403 21
211 1 3.90422 -4.66727 -3.7308 23
212 1 -7.08892 15.135 6.24399 23
213 1 -8.97946 1.29668 5.96506 20
214 1 5.82864 18.1153 11.0731 11
215 1 -11.5167 2.19019 -2.21441 23
216 1 -6.77318 13.0138 -5.76649 23
217 1 -15.6798 -0.900207 0.416336 18
218 1 -14.0506 0.453329 16.7958 13
219 1 -2.29091 -6.53313 3.69503 23
220 1 2.41063 -8.55847 6.98507 19
221 1 -12.1634 12.3738 10.5781 19
222 1 12.7335 4.02211 8.80764 14
223 1 1.73367 8.65524 -2.86493 19
224 1 -8.17116 -3.80597 -12.6875 15
225 1 -1.43826 4.20838 12.8827 20
226 1 4.22423 -6.61068 6.27689 19
227 1 -3.04097 9.02685 -6.81722 18
228 1 1.44841 -9.41807 -11.6658 11
229 1 9.84319 5.34886 -10.6005 13
230 1 1.74459 10.6479 -10.6638 17
231 1 -10.1061 -0.134551 -5.91346 19
232 1 -2.26979 19.2925 -4.20252 11
233 1 -10.355 -8.97117 11.2972 15
234 1 5.22328 18.4172 -0.961888 13
235 1 -14.3453 5.70373 14.5985 15
236 1 -8.95454 14.6625 -2.92217 20
237 1 4.87306 0.605754 13.8684 16
238 1 -8.27317 -4.63364 -9.75259 17
239 1 -8.83518 12.4038 -10.8871 13
240 1 -1.61502 5.84352 -10.8931 16
241 1 -4.27672 -9.86402 12.7362 12
242 1 -10.3997 9.26943 10.3855 22
243 1 -6.21149 12.1372 11.2143 23
244 1 4.28797 -9.82795 -6.59442 19
245 1 -5.71784 -9.60739 3.88442 17
246 1 10.0261 -9.01856 -0.307647 12
247 1 -3.83432 -6.59003 0.786405 22
248 1 6.04772 11.1802 16.3796 13
249 1 3.61848 14.4784 -6.17467 19
250 1 -1.13459 12.0351 0.633642 23
251 1 -12.2372 6.29602 6.07663 22
252 1 -16.6159 13.0855 1.89565 14
253 1 -3.30476 12.5591 12.872 23
254 1 5.87962 -13.1269 4.42026 12
255 1 10.9828 8.48386 -0.288527 20
256 1 -0.15605 12.304 8.18931 22
257 1 -10.3633 9.28249 7.19913 19
258 1 -11.9569 -4.36797 -2.19577 20
259 1 4.7156 9.04616 -10.2734 16
260 1 -0.497125 1.36919 11.2186 22
261 1 6.93756 14.4511 -8.76285 12
262 1 2.58274 -7.47172 -5.36807 19
263 1 -6.53559 2.45783 -9.30732 20
264 1 1.39952 -15.6593 7.38332 10
265 1 6.60296 -0.549907 -7.43635 16
266 1 -15.7452 -0.792752 10.3701 17
267 1 5.30456 -12.4289 -0.872847 18
268 1 -11.559 -1.74682 -4.05256 16
269 1 -0.271948 17.8855 1.00798 20
270 1 2.69386 -1.99671 -11.6306 19
271 1 2.8302 5.97038 16.3772 20
272 1 13.8111 2.7907 6.38768 16
273 1 -8.76087 -3.17443 -0.641393 22
274 1 10.4374 -8.27303 -7.91056 11
275 1 -3.90134 -3.57491 2.70649 22
276 1 -7.0298 -0.0568827 -11.3692 19
277 1 -15.0844 3.01384 -3.47815 23
278 1 -2.83189 -8.15229 14.9595 14
279 1 2.09597 1.81369 16.0195 19
280 1 0.366548 -3.79815 13.7404 20
281 1 -6.55117 -2.43731 -9.87196 22
282 1 -0.776711 -4.40831 7.15166 21
283 1 -3.92233 7.60154 -10.2035 15
284 1 1.59875 9.71804 4.55367 20
285 1 -9.30907 -0.421774 4.06171 20
286 1 3.18468 14.1322 3.42327 17
287 1 -5.55059 -0.763942 13.4761 17
288 1 -11.7747 -4.59044 -6.07212 18
289 1 -9.2519 -2.31698 -7.82253 20
290 1 -6.11815 8.02634 -12.7931 14
291 1 -8.98798 -6.09444 -3.06128 19
292 1 -6.773 -7.568 2.09741 18
293 1 10.286 1.75841 -11.7746 10
294 1 13.5872 1.16092 -7.65743 10
295 1 5.41908 6.58786 4.80016 20
296 1 -6.83189 -0.956747 -0.775637 22
297 1 -13.3016 0.123808 12.5886 18
298 1 -0.975632 -11.1379 3.75741 22
299 1 5.80363 6.15793 14.6771 22
300 1 -8.02652 -12.7225 3.92416 12
301 1 1.25325 -10.1902 2.45154 17
302 1 -0.168808 20.84 0.769856 14
303 1 2.41161 1.07109 -10.548 23
304 1 -6.0087 -2.26682 -13.3552 18
305 1 9.44101 -1.78384 1.02894 23
306 1 -8.65341 -6.49178 11.0664 18
307 1 -1.12976 6.66579 21.6751 10
308 1 -1.14004 -8.17231 -1.95317 21
309 1 -7.88446 -8.1461 -8.72331 16
310 1 -11.925 9.54614 -7.1902 22
311 1 5.5087 6.87203 7.67397 20
312 1 -7.17323 3.31654 -12.3706 17
313 1 -4.14746 12.1397 -8.22002 20
314 1 -9.97822 -0.156245 11.3857 18
315 1 6.18368 -10.9794 -8.99442 12
316 1 -10.133 18.2237 3.10918 13
317 1 1.78004 14.6374 8.76813 21
318 1 8.47249 -0.151479 5.94011 21
319 1 -13.0131 4.28384 8.81717 22
320 1 -5.917 -3.83645 10.8204 20
321 1 -6.18978 12.161 8.01298 21
322 1 -1.74425 -2.00823 -10.0313 21
323 1 14.1202 7.37483 -0.191778 9
324 1 1.07321 -2.15924 1.48341 23
325 1 -1.32515 2.98337 16.9155 18
326 1 -14.7818 -1.86397 7.265 20
327 1 -0.909075 -13.91 -0.302741 12
328 1 -11.5965 13.2869 13.8522 19
329 1 -14.3571 12.6285 14.3877 13
330 1 -14.4772 -4.7371 14.9712 15
331 1 -13.9426 -5.41866 12.3932 14
332 1 13.2291 -1.48301 0.784835 17
333 1 -11.4206 -7.30228 8.39393 19
334 1 3.93029 0.231005 -8.35227 18
335 1 8.61973 -9.04874 -3.05574 20
336 1 3.08073 19.8518 1.27608 14
337 1 -3.5739 -4.01916 9.53559 21
338 1 -12.7055 15.3907 -0.704853 18
339 1 -4.04468 4.1714 11.1578 24
340 1 2.81196 10.7631 16.5046 18
341 1 -14.891 5.76564 6.79579 17
342 1 5.4915 -7.25554 -4.01501 18
343 1 -7.20063 12.45 0.425774 21
344 1 -9.51781 10.3634 4.17858 22
345 1 4.37571 -10.6412 10.0372 12
346 1 8.86986 -3.47671 6.17874 14
347 1 -6.92047 9.51897 9.69424 20
348 1 -8.75346 2.60467 -4.17872 21
349 1 -5.21365 2.71192 18.3569 13
350 1 -2.96888 19.7548 0.643011 12
351 1 4.84877 8.23275 16.6404 17
352 1 -10.4683 17.3972 -2.65263 10
353 1 -3.10416 -2.88512 -16.3891 11
354 1 -9.5251 5.45678 -2.2329 22
355 1 5.03217 -4.64214 -13.7886 15
356 1 -12.6917 3.50155 13.579 21
357 1 -18.4717 5.64544 6.13519 16
358 1 -4.40876 -0.255747 -5.6688 26
359 1 -9.15136 12.7892 5.89891 21
360 1 1.89566 -1.07333 14.1841 18
361 1 -11.3861 -5.04401 4.421 18
362 1 1.69314 -6.02707 8.85318 19
363 1 -6.15378 -8.75337 15.1457 11
364 1 -16.5898 8.58135 5.60258 23
365 1 -4.06204 -1.18183 11.0262 22
366 1 5.72889 -9.89772 -3.82007 20
367 1 -7.24206 -0.0286936 -7.59565 24
368 1 7.49621 3.56026 -11.609 14
369 1 8.61496 11.8295 6.77465 19
370 1 -15.4195 5.62223 -2.25283 19
371 1 3.75042 -6.98918 -12.2517 15
372 1 7.40543 7.37236 -9.43391 16
373 1 -2.06609 -11.5213 -2.82492 16
374 1 -16.1357 -3.17306 -1.62741 13
375 1 -5.94607 -4.28579 0.736724 23
376 1 6.00053 5.11191 17.6899 14
377 1 13.1882 8.6533 5.09241 20
378 1 -9.70863 6.80789 -11.3999 14
379 1 3.70793 19.2672 4.50517 13
380 1 -17.4543 4.49838 -4.85625 12
381 1 -8.99974 12.0613 9.76956 21
382 1 -14.3529 14.4461 3.89697 18
383 1 -7.24648 9.69288 6.0812 21
384 1 6.9836 2.66731 13.9413 20
385 1 10.9237 0.0822045 -1.4765 22
386 1 2.14703 -0.606176 17.5322 12
387 1 13.7169 1.85891 -4.51646 12
388 1 -4.24603 -12.2662 3.53875 16
389 1 -9.95411 10.575 1.30146 24
390 1 -0.920574 -6.88711 -4.51638 19
391 1 -3.28585 12.5548 6.43416 20
392 1 -12.6097 4.9807 -1.31842 22
393 1 1.74548 -6.81183 -2.52443 20
394 1 4.86327 -0.28606 9.86257 20
395 1 -14.4114 -0.547347 -2.41413 21
396 1 -8.27584 -7.08789 7.87026 16
397 1 -9.88166 -1.00178 13.9897 17
398 1 -9.16655 15.7524 4.21335 22
399 1 -11.1041 -5.08449 0.874061 21
400 1 0.837514 13.2436 19.5462 10
401 1 -12.8262 10.0521 2.4879 18
402 1 0.949405 19.951 -4.36074 10
403 1 9.0161 13.9714 8.9369 12
404 1 -14.165 -5.37456 -0.903926 15
405 1 -3.50453 -6.10818 -5.56082 20
406 1 -12.4904 1.81997 10.5301 20
407 1 -15.7451 14.0872 -1.17453 13
408 1 0.0715322 -9.174 9.06815 22
409 1 -6.29367 -9.72997 -3.28411 16
410 1 9.88636 4.8097 8.18779 20
411 1 3.82775 10.576 -7.86732 18
412 1 -13.2399 4.52606 -7.48195 18
413 1 -4.46565 19.1619 -7.00884 8
414 1 -6.214 12.5297 -2.67929 19
415 1 2.18344 -12.2703 4.41092 19
416 1 8.37622 6.47325 6.30984 19
417 1 -1.43057 11.2265 -9.69462 18
418 1 -7.19867 4.42545 12.7886 22
419 1 -19.2388 4.79176 9.50391 11
420 1 -9.00689 6.9205 9.39272 20
421 1 -5.55758 -9.24874 7.05085 16
422 1 -1.56718 -4.32065 -7.0655 22
423 1 4.72829 -9.77606 -12.0764 12
424 1 -4.35546 -1.45071 8.01311 22
425 1 -17.1994 6.9482 11.5844 15
426 1 -14.9919 -2.13986 13.1673 17
427 1 -16.7489 13.8015 6.38512 13
428 1 -1.57056 -1.27449 9.29832 21
429 1 -8.41074 6.66656 -14.3174 13
430 1 7.11832 -4.02379 -4.39132 21
431 1 -2.31993 -7.58641 -7.69052 20
432 1 -6.04565 1.87835 11.114 22
433 1 1.1441 -1.61811 -5.31008 18
434 1 -8.34146 3.52464 -15.4416 12
435 1 6.22802 -6.91487 -1.43931 17
436 1 -2.10291 16.1024 -3.69002 19
437 1 -15.6264 15.5657 9.39629 9
438 1 -6.60535 4.5449 16.1266 19
439 1 -12.0311 -2.45136 -9.07196 13
440 1 -9.33433 -2.97204 16.8462 13
441 1 6.61899 -5.6009 7.90677 17
442 1 2.43189 6.85067 2.85146 24
443 1 -8.5076 7.56785 2.15642 22
444 1 3.50755 6.53702 -4.18265 18
445 1 5.89671 -4.28609 5.10588 21
446 1 10.4301 10.7565 -2.7057 19
447 1 -12.1914 7.67531 15.7817 15
448 1 0.915849 11.6058 2.36058 19
449 1 -0.341178 -3.76144 4.35023 24
450 1 0.377263 -13.3035 -3.70042 13
451 1 -6.83218 10.2357 16.2556 23
452 1 -5.82797 20.012 6.73904 9
453 1 -10.7519 -9.48419 -3.8326 10
454 1 9.87713 13.9585 -1.26895 19
455 1 -0.615486 11.7795 11.153 21
456 1 -12.025 6.92153 12.201 20
457 1 -6.14963 -3.57 -2.54861 19
458 1 -14.1032 5.79957 11.001 19
459 1 -9.24094 -3.13365 -4.22539 21
460 1 -6.61012 18.08 4.88899 18
461 1 -8.13792 -9.54407 -5.46448 11
462 1 -5.45114 -5.01977 -14.4796 14
463 1 -8.51929 -10.14 6.6376 17
464 1 -11.5326 1.54456 7.10444 20
465 1 1.06551 4.18661 10.8799 23
466 1 -7.68188 -5.8972 15.8568 14
467 1 -13.8573 9.06484 -9.59065 11
468 1 5.8494 6.91613 1.45476 24
469 1 -10.563 -7.75498 2.15868 20
470 1 -0.94584 9.78051 -4.23324 24
471 1 -2.0793 21.1228 3.65699 8
472 1 -4.03911 8.21043 -3.86072 22
473 1 -5.73239 12.8738 14.4898 21
474 1 -18.8186 3.23865 -2.10042 12
475 1 -2.88433 15.945 1.39325 22
476 1 5.35256 16.7534 -6.85175 11
477 1 -6.54159 -6.97702 -4.61428 18
478 1 -4.20914 7.64996 16.7515 18
479 1 1.81841 -12.0626 -6.44784 16
480 1 -4.42168 0.0322525 -9.20211 18
481 1 1.09922 -5.64488 1.92165 20
482 1 -13.7451 14.3202 7.14352 17
483 1 -1.84105 4.40683 19.6293 17
484 1 5.18864 10.3553 -0.35319 22
485 1 -2.85838 12.1382 3.43545 23
486 1 -11.8796 11.732 -9.2519 13
487 1 2.8635 7.2919 -7.46601 21
488 1 -1.72825 -4.31007 1.19581 22
489 1 -15.112 -1.63207 3.90255 18
490 1 5.58767 17.9839 7.3035 14
491 1 -9.71306 1.4492 -12.3942 19
492 1 9.11943 6.98815 1.58961 16
493 1 1.97965 17.5656 -7.12377 15
494 1 6.61901 -0.994295 0.816266 19
495 1 15.0966 4.03071 0.411389 11
496 1 -0.89031 3.98769 -7.41615 16
497 1 4.19611 -10.1686 4.53675 18
498 1 0.0935771 -9.97979 6.26967 18
499 1 1.866 -8.34956 11.3779 17
500 1 -8.59374 8.41657 -6.92372 24
501 1 -12.1273 -10.3977 9.37287 12
502 1 2.82041 -7.04468 -8.66709 19
503 1 7.68612 16.0277 6.63154 14
504 1 -2.81035 7.4783 -13.1456 14
505 1 -0.986301 -0.776912 17.0492 15
506 1 -17.1702 4.31569 12.7138 14
507 1 3.27842 -15.3625 4.09529 11
508 1 -16.9895 0.653951 4.21086 16
509 1 12.9654 -4.25183 -3.94511 14
510 1 10.6867 3.31279 -0.034019 18
511 1 -9.02605 11.2261 -2.4074 22
512 1 1.72663 -4.56922 -6.71604 20
513 1 0.549407 6.9041 -5.25183 21
514 1 10.7413 -3.5092 -9.54095 15
515 1 -5.02904 1.55529 15.3914 19
516 1 6.32082 14.1273 2.35144 18
517 1 -7.89837 -2.21726 -15.5308 10
518 1 2.57922 3.66276 -12.6483 17
519 1 -12.3848 -0.75768 9.07438 18
520 1 -4.76244 13.182 1.72213 19
521 1 -12.4267 -0.100693 -11.5438 14
522 1 -19.2835 2.41942 6.23123 11
523 1 -4.16596 -7.42453 -12.8222 14
524 1 -6.27002 -5.93391 13.0354 20
525 1 -1.57796 13.9355 -8.88043 23
526 1 12.5514 2.97116 11.621 12
527 1 10.931 13.6406 -4.46972 14
528 1 -13.0526 -9.91504 2.50387 11
529 1 -0.00790412 -4.11223 -3.89442 17
530 1 -4.52758 -0.49146 -15.4112 16
531 1 -11.9928 10.0596 12.9002 19
532 1 2.19607 -2.90947 -2.14852 20
533 1 -1.3323 9.71407 2.93379 21
534 1 8.32646 1.15811 -0.180468 21
535 1 1.1785 17.0573 -4.21994 17
536 1 1.72299 -0.112096 -0.586925 18
537 1 10.9802 3.3879 -2.85594 18
538 1 -4.04583 10.7767 18.5242 17
539 1 -11.9562 7.0745 9.24785 23
540 1 1.22903 16.7978 14.0636 18
541 1 6.24332 1.39988 17.2887 11
542 1 -4.93604 2.81142 -16.3331 12
543 1 -7.30783 -0.726659 -3.90105 20
544 1 -3.36176 7.0965 12.6729 20
545 1 10.029 13.7978 12.1181 11
546 1 5.89787 8.63226 -6.66546 18
547 1 -13.0259 9.84964 -4.27113 20
548 1 -0.942702 15.3664 -0.983892 19
549 1 7.27458 -3.28209 10.136 13
550 1 7.93544 4.75804 -7.7809 17
551 1 11.9782 -6.42254 -2.19258 13
552 1 7.94649 12.251 13.4953 16
553 1 -14.2078 -4.06436 5.14613 17
554 1 -9.12737 14.5234 -8.76072 14
555 1 -7.26198 4.31465 9.23949 24
556 1 -16.1103 0.505541 13.968 14
557 1 -6.41206 16.4978 -7.27373 15
558 1 3.63648 -12.3057 -3.53686 17
559 1 5.91397 1.51631 -5.18735 17
560 1 -5.33947 18.5517 -4.2 12
561 1 -9.51879 -1.65334 -11.2141 19
562 1 0.528935 -14.4733 10.2395 11
563 1 -13.0999 0.149899 0.466081 19
564 1 -3.75714 13.3612 -11.1476 13
565 1 -11.2511 7.80145 0.460934 25
566 1 -4.24473 15.4174 14.799 16
567 1 -11.9969 -2.40745 11.6709 15
568 1 4.37517 9.12033 2.81645 20
569 1 2.12022 -4.96573 -10.564 19
570 1 3.65483 -3.1573 14.8402 10
571 1 4.75704 5.93695 -8.80121 21
572 1 -13.8229 9.09514 6.37518 19
573 1 1.03328 7.24691 19.5633 16
574 1 2.73322 20.742 -1.41181 11
575 1 9.85738 -4.11194 -6.39411 21
576 1 -0.610581 11.753 14.82 19
577 1 2.43775 6.57572 -14.0348 9
578 1 -1.25317 -8.89084 11.877 16
579 1 -6.65438 5.12996 -7.46578 18
580 1 4.58976 0.755867 -13.0829 15
581 1 1.80528 15.6004 5.29029 19
582 1 9.29556 3.84055 -5.6372 16
583 1 -2.86828 1.41215 -10.7495 21
584 1 -6.2625 -7.26888 -1.26069 23
585 1 -10.0626 0.645495 -9.35948 23
586 1 12.826 3.10771 3.04407 21
587 1 12.6531 5.73401 -1.79952 18
588 1 3.78596 -2.46326 -6.33617 19
589 1 8.93674 7.04302 12.9459 17
590 1 7.35523 -6.96037 -7.082 20
591 1 1.78027 9.58646 -13.2139 7
592 1 8.76108 12.0686 3.76332 21
593 1 -10.189 4.31834 7.57361 21
594 1 8.51807 5.66231 15.8512 14
595 1 7.9055 8.81349 -0.351765 24
596 1 11.3186 1.6549 4.80462 21
597 1 9.38006 9.5781 -7.71593 14
598 1 4.67119 7.35678 11.3034 22
599 1 10.0039 3.97251 13.3455 15
600 1 1.22199 -1.33718 7.96307 23
601 1 13.552 9.93323 2.01171 15
602 1 2.38855 6.64838 6.13911 24
603 1 -4.10753 4.76155 14.7606 16
604 1 14.8619 0.940037 0.935889 14
605 1 4.32362 4.08448 9.3377 22
606 1 -11.827 3.95201 -4.15627 18
607 1 6.87582 4.13363 3.25146 23
608 1 8.30012 1.14508 3.12414 23
609 1 -3.49225 -3.43673 -0.754864 19
610 1 -16.224 9.7168 13.0882 11
611 1 4.82167 12.8053 13.9884 20
612 1 6.18363 2.03598 11.2695 19
613 1 -1.4178 14.4091 10.0735 20
614 1 -0.745778 17.0578 11.6521 18
615 1 1.22195 4.42307 7.79444 21
616 1 0.0343761 -14.5632 4.99445 14
617 1 -10.0783 13.5911 -0.277078 22
618 1 8.6036 15.8785 -5.94264 10
619 1 8.54429 1.49762 -8.88686 18
620 1 -0.166262 14.5131 1.93041 22
621 1 -3.84489 -9.29306 -1.58666 20
622 1 7.86676 -4.32024 -11.4676 17
623 1 -18.4025 7.90134 8.0997 15
624 1 -5.57886 5.30857 -10.7619 17
625 1 -2.08584 -12.7514 5.93122 19
626 1 -9.32158 2.84381 -7.3192 21
627 1 -17.9533 6.69359 3.16989 19
628 1 6.96879 -6.80741 4.71291 15
629 1 11.9197 11.7677 4.24503 17
630 1 -1.28248 -7.57726 6.59564 17
631 1 -17.7148 1.69742 -4.8356 13
632 1 0.192965 3.6698 -14.7504 13
633 1 0.0424136 -3.49182 10.4674 20
634 1 -7.04112 10.6185 19.0708 13
635 1 4.33249 12.6882 -9.86501 17
636 1 9.27393 3.3327 17.0412 8
637 1 8.10171 8.47772 -3.53719 19
638 1 9.92587 14.0218 2.14695 16
639 1 1.09293 -9.58694 -3.92869 20
640 1 -10.6172 0.161685 16.6581 13
641 1 9.70451 -1.23953 9.55669 15
642 1 -1.35814 17.1122 15.3783 12
643 1 4.11918 16.0016 -9.54676 13
644 1 -11.4452 12.8038 -3.12783 17
645 1 12.1098 12.3432 6.95333 15
646 1 -10.0494 -10.7014 3.62072 14
647 1 10.9924 -1.4986 3.67654 19
648 1 8.58048 16.4628 3.48455 14
649 1 -5.11203 10.1541 13.5296 18
650 1 -11.6532 0.988171 3.63216 22
651 1 -12.0703 1.40263 -5.32053 19
652 1 4.46171 2.96435 15.5701 21
653 1 -4.43319 -5.68259 15.4881 16
654 1 7.47066 8.98175 14.7738 17
655 1 -8.89238 13.3679 2.51418 22
656 1 5.46962 12.4263 5.23049 19
657 1 3.81919 -2.22033 3.32921 20
658 1 2.50426 6.5282 9.16665 22
659 1 -3.5965 -2.00823 -12.0895 22
660 1 -10.4221 4.60009 10.6255 22
661 1 6.2402 0.190972 -10.5894 20
662 1 -4.02259 -2.99748 -4.64744 19
663 1 10.0379 -6.63378 -5.31646 18
664 1 2.38676 11.9054 9.59272 23
665 1 1.57353 9.62948 7.73883 22
666 1 -10.0782 6.14273 17.4518 14
667 1 8.38829 11.1267 10.2638 21
668 1 -3.65785 0.138205 18.1925 12
669 1 -3.32329 10.6858 15.7502 21
670 1 -0.592482 -0.497157 -11.6931 20
671 1 -8.77173 6.36482 12.3841 20
672 1 4.31992 9.30481 13.7586 24
673 1 -8.26168 -13.2155 7.46247 10
674 1 12.2674 6.94554 2.60035 17
675 1 8.71289 -11.5489 -1.30926 13
676 1 -5.53478 7.47001 -6.01126 19
677 1 6.92681 15.3852 -0.90215 19
678 1 10.2771 14.2619 5.32047 14
679 1 -0.207567 2.78172 -11.6294 21
680 1 -1.11374 -1.43141 12.8944 21
681 1 1.84943 13.4712 0.00200475 18
682 1 11.5474 5.57756 5.6727 19
683 1 -9.30797 -3.59922 2.50202 23
684 1 -2.63669 5.30804 -15.3039 12
685 1 -14.9071 16.2364 1.98131 10
686 1 6.82548 -3.63094 -7.97635 22
687 1 4.51012 9.55388 6.17029 21
688 1 9.05881 12.9844 -7.34444 13
689 1 11.4392 11.7318 0.381561 13
690 1 -6.17879 6.88859 7.34664 23
691 1 -11.4488 14.7113 5.70231 20
692 1 4.44309 9.50525 -3.01737 20
693 1 3.84966 2.47019 18.447 12
694 1 4.18471 4.2671 12.7337 21
695 1 -3.45692 -6.5537 12.0192 21
696 1 -9.04103 9.71474 -12.729 12
697 1 2.18752 18.9896 11.6043 11
698 1 3.12312 -2.10266 -14.7314 14
699 1 -0.71335 6.69314 11.1661 23
700 1 3.57366 18.6368 -3.55409 12
701 1 5.68874 12.0178 8.43741 22
702 1 11.2824 -3.15274 -1.30865 19
703 1 1.65863 10.6147 19.273 14
704 1 -16.1564 -1.9353 16.2762 10
705 1 4.03504 -10.5238 1.73006 18
706 1 -3.04547 2.01185 -7.49741 19
707 1 -13.1699 17.2908 4.92744 12
708 1 -3.33923 6.73509 9.23372 24
709 1 5.79093 1.46578 -1.98526 20
710 1 2.87725 12.5839 6.28664 20
711 1 -14.4528 1.36404 8.61334 23
712 1 -7.6791 5.0312 19.6321 12
713 1 -7.27626 8.01739 -9.66311 19
714 1 -10.4827 9.29314 -9.95966 20
715 1 3.32081 -10.7645 -1.20407 15
716 1 7.35601 13.8933 -3.60729 20
717 1 2.53021 -3.82382 6.29449 19
718 1 -6.61974 10.1584 2.92673 22
719 1 -16.9167 6.77956 14.8697 9
720 1 8.14004 -0.767532 -12.7749 12
721 1 1.93428 -11.478 9.32212 16
722 1 -1.08072 16.9505 3.89819 20
723 1 -9.66015 9.46781 16.9992 17
724 1 -8.85171 -5.43822 -6.49305 20
725 1 -7.03842 -6.98549 -11.983 13
726 1 -3.21472 -10.3921 -8.09077 15
727 1 -3.8311 13.6561 -0.658492 20
728 1 5.26983 -1.69577 -3.64291 20
729 1 -7.18702 14.9077 9.76278 22
730 1 5.58338 -7.74279 -9.77847 20
731 1 7.29575 -12.4314 1.43732 13
732 1 2.85852 -3.21778 9.57739 17
733 1 12.4757 4.90539 -4.94356 14
734 1 -1.31383 -11.7984 -5.90474 15
735 1 -12.4805 -2.25733 15.1521 20
736 1 -0.731821 1.25971 -5.54792 21
737 1 -3.5536 -12.3734 0.116513 15
738 1 -8.89047 -8.97588 -1.5432 14
739 1 -15.2585 2.21828 11.7081 19
740 1 -9.68224 -10.7916 1.08074 11
741 1 12.3432 8.49618 -3.27751 13
742 1 -4.07253 18.6551 3.51861 16
743 1 -9.10624 7.2062 5.7153 21
744 1 -15.0962 10.7508 7.97039 20
745 1 7.67116 4.39223 0.61396 21
746 1 -13.2779 -1.39307 -6.81682 16
747 1 -3.27801 10.8631 -1.98981 22
748 1 8.82573 0.869323 -3.83342 19
749 1 3.64453 16.1825 13.1552 18
750 1 5.68504 12.344 -6.85948 21
751 1 -19.214 6.56599 -2.55139 10
752 1 -14.4289 -3.94189 -4.57775 14
753 1 -2.23489 8.18183 19.2248 19
754 1 0.179914 14.9034 -6.17968 22
755 1 11.606 11.8605 10.5594 12
756 1 -6.1369 6.42257 10.8028 23
757 1 1.42129 -13.7898 2.03036 18
758 1 -5.32175 -14.6369 8.71332 10
759 1 -7.3157 -0.841554 9.85494 16
760 1 10.0605 10.048 12.7471 14
761 1 5.60265 -5.19065 -10.4424 19
762 1 -15.292 11.604 4.7306 19
763 1 10.6196 9.03824 6.57734 23
764 1 -8.32848 -4.21875 9.00688 20
765 1 6.92674 10.8067 -8.87403 18
766 1 -2.13737 -14.1245 2.66965 15
767 1 3.56667 -11.4363 6.96719 17
768 1 -0.713301 -10.9801 -0.120775 19
769 1 1.97379 11.5194 -5.13904 23
770 1 8.79671 17.0461 0.302954 11
771 1 -7.58055 0.586296 -16.095 10
772 1 -6.99587 7.44165 18.091 19
773 1 -1.23585 8.3866 -9.96864 16
774 1 -14.5725 -0.114942 -9.49152 10
775 1 -14.4589 2.39749 -0.846228 22
776 1 -4.00269 17.5068 -1.85685 20
777 1 4.17684 4.11497 2.98762 21
778 1 -1.54825 -1.60795 -14.1273 17
779 1 -9.78173 -0.199285 0.881509 24
780 1 7.95671 11.157 -5.02707 22
781 1 8.02347 -1.52698 -1.83584 21
782 1 -9.42 12.8285 17.6296 12
783 1 3.27747 -4.8628 3.32399 21
784 1 11.5601 -4.35191 1.39402 11
785 1 10.8687 0.856734 11.4668 14
786 1 -4.50334 8.99715 10.7802 21
787 1 -15.701 3.1115 15.0453 12
788 1 -14.7437 9.2957 15.7811 12
789 1 -4.20644 -11.6504 9.63232 16
790 1 4.39672 3.98094 5.99119 22
791 1 3.57083 13.3321 17.6985 12
792 1 -17.2586 3.325 3.49447 17
793 1 9.03899 -5.74296 -2.88715 18
794 1 -13.8284 14.2145 -3.67179 11
795 1 -1.15847 10.4626 6.06268 18
796 1 -0.741194 -11.6717 10.2694 13
797 1 1.7939 4.31803 17.9913 21
798 1 -3.60902 17.4201 6.19358 19
799 1 -3.08451 -9.47108 5.59228 20
800 1 -11.5696 2.62503 1.01551 22
801 1 -1.30335 7.02835 14.4748 19
802 1 -15.6569 -4.14958 1.73132 9
803 1 -1.32168 12.0028 18.2676 16
804 1 4.40774 15.0237 7.23637 22
805 1 -13.6322 -7.58999 4.76983 14
806 1 -1.85569 -15.9549 7.68641 9
807 1 5.07289 1.54437 7.512 21
808 1 2.725 -5.26136 11.8916 19
809 1 4.32828 14.0103 10.7428 20
810 1 -5.75036 9.68384 -1.61856 20
811 1 -0.0471528 -8.89728 -6.86198 18
812 1 -3.74116 4.10103 -9.05907 16
813 1 -8.02363 1.59985 14.3807 20
814 1 0.727293 19.9058 3.55578 16
815 1 10.8456 1.66802 8.15033 21
816 1 -0.421474 12.8836 -2.72553 22
817 1 -6.74288 13.4981 17.3154 12
818 1 1.43783 14.4011 11.9865 21
819 1 8.61368 -1.90569 -9.71678 19
820 1 -10.9425 -8.23462 5.54971 20
821 1 -6.00074 4.34582 -4.16538 18
822 1 11.3519 -0.989929 6.74419 15
823 1 -1.87569 -1.2041 -7.31054 21
824 1 -4.41834 14.9782 11.4009 22
825 1 7.76892 -9.86136 -6.18624 16
826 1 4.81388 6.16107 -11.7532 15
827 1 -3.66095 -6.01113 -2.50299 19
828 1 10.2889 5.96721 -7.46386 16
829 1 13.6422 0.195821 3.90708 14
830 1 1.80817 -1.08098 11.3364 22
831 1 -5.45853 -8.59954 -6.74244 18
832 1 8.05455 12.7431 0.320973 22
833 1 -3.13476 -4.34839 6.22071 19
834 1 -17.9787 11.0109 7.0585 13
835 1 6.5699 6.15513 -5.32321 15
836 1 8.44526 2.5199 5.82728 19
837 1 -0.0160762 -3.71197 -12.0665 21
838 1 -10.7899 14.8539 11.1289 22
839 1 11.9429 6.8819 8.33533 15
840 1 9.58 16.2884 -2.867 11
841 1 -0.0850321 0.927137 -8.85553 22
842 1 5.09946 0.955788 4.27744 24
843 1 -14.5802 7.19811 0.277167 18
844 1 7.52064 9.18269 4.69513 21
845 1 -13.51 -6.85608 1.55723 17
846 1 -12.8511 12.7078 1.09049 22
847 1 1.35896 8.95567 10.9755 23
848 1 -17.3638 0.174252 -1.98046 17
849 1 -13.782 9.55061 10.3813 20
850 1 -2.96108 5.6194 -5.89339 19
851 1 8.56011 -5.50704 -9.13701 21
852 1 -13.1969 -6.6871 -3.94765 14
853 1 8.2995 -4.36976 -0.192461 20
854 1 -14.6553 7.54609 3.47242 20
855 1 -9.78813 -0.265027 -2.43424 21
856 1 4.55327 9.40661 9.04799 19
857 1 -5.88164 -4.60317 7.30657 19
858 1 1.74096 8.45728 14.6834 23
859 1 13.3373 0.503335 9.14568 10
860 1 6.6287 -1.67841 3.94521 20
861 1 -11.2742 8.24739 3.81753 23
862 1 -1.58516 14.6947 13.4772 24
863 1 0.499161 9.98588 -7.41507 21
864 1 -3.08373 -5.31263 -10.2318 24
865 1 -8.95409 17.6689 10.3242 17
866 1 -9.03874 -3.80182 12.4535 15
867 1 1.96003 16.5585 -1.00039 16
868 1 -3.60787 13.8991 17.1267 14
869 1 13.9758 -0.689447 -2.14319 15
870 1 4.62487 -2.59978 12.0816 15
871 1 -2.96623 16.6831 -9.44531 12
872 1 -1.50404 15.2796 -11.7908 10
873 1 -9.66522 2.57822 12.4906 20
874 1 8.00841 7.21559 9.97283 21
875 1 -4.34974 -3.51278 -7.92743 22