ITEM: TIMESTEP
30000
ITEM: NUMBER OF ATOMS
2000
ITEM: BOX BOUNDS pp pp pp
-30.0 30.0
-30.0 30.0
-30.0 30.0
ITEM: ATOMS id type x y z Coordination
1 1 -7.06144 4.09806 -15.9664 9
2 1 -0.219941 -10.9749 -11.7565 21
3 1 9.91815 9.93384 6.45492 19
4 1 9.44159 -12.2395 4.51751 16
5 1 -7.78505 7.91267 -2.8939 22
6 1 12.2289 -8.85008 -12.6412 19
7 1 -9.74797 2.37718 -10.0639 21
8 1 3.67146 -7.84235 7.8388 18
9 1 -4.15191 0.0988015 -13.0642 15
10 1 -10.1032 -10.8717 4.10577 12
11 1 11.8976 2.0139 -10.379 21
12 1 -0.552823 1.24276 -8.5603 21
13 1 -0.450298 -15.8239 -1.15231 17
14 1 -9.28077 -10.0409 1.02525 16
15 1 3.71373 3.59915 14.7742 13
16 1 10.3976 -6.06429 1.83635 21
17 1 4.12739 2.61718 7.95072 20
18 1 9.26365 -2.65076 1.24976 23
19 1 1.12125 12.5928 -12.6451 14
20 1 5.70516 0.388527 8.32602 20
21 1 -5.26292 -1.11071 -16.3827 14
22 1 -7.97015 -5.36004 9.61079 16
23 1 15.2127 3.49848 6.00785 19
24 1 4.49213 9.19508 -17.3476 14
25 1 7.65113 3.59563 -16.2913 19
26 1 17.5504 0.694106 7.18272 16
27 1 -3.37936 1.31425 -3.05965 19
28 1 -12.5335 5.27798 -8.32876 11
29 1 -0.0420639 -1.64524 -10.4589 20
30 1 -5.89873 8.7544 6.8011 18
31 1 8.9597 -15.0137 4.89388 13
32 1 3.6774 -2.83001 4.65517 21
33 1 6.51465 -13.306 -13.9058 14
34 1 10.3816 -13.4448 -0.0618408 15
35 1 -4.09981 -15.0545 -7.87502 17
36 1 -10.3393 -7.2249 8.54062 12
37 1 8.87513 -1.92863 -8.01979 21
38 1 7.99915 -5.66762 -14.9588 19
39 1 12.8657 -11.0854 -15.1655 11
40 1 2.78726 3.22754 -19.668 14
41 1 7.04824 2.19573 13.9794 17
42 1 1.76059 -11.4979 2.8365 17
43 1 13.3271 -6.49805 9.54562 12
44 1 -7.7347 -1.86043 0.135928 18
45 1 -16.1097 -0.966539 1.02414 6
46 1 -8.69711 2.31889 -4.84567 22
47 1 -0.290342 13.7335 -6.91975 14
48 1 3.51064 -13.3677 -14.2685 15
49 1 7.98366 1.59276 -13.5465 22
50 1 7.71113 -4.26823 -10.4126 21
51 1 0.882287 -2.45103 9.72325 23
52 1 -10.7904 3.46895 -2.78208 19
53 1 8.50797 11.484 -15.9532 11
54 1 3.36629 10.587 3.56762 19
55 1 -2.05955 7.37039 -14.7924 17
56 1 2.08788 12.7996 -1.28549 21
57 1 5.20582 -15.4209 0.511166 22
58 1 10.448 -5.61319 -5.27959 21
59 1 10.6392 -6.86673 -18.3128 13
60 1 -6.51551 5.46339 7.62266 17
61 1 -10.4863 -5.13065 -9.97628 14
62 1 8.90509 3.09458 0.818451 22
63 1 -3.03693 5.55042 -11.217 17
64 1 -6.39964 -12.6234 4.53443 22
65 1 1.4049 12.6312 9.6455 16
66 1 -5.69529 6.73965 -8.42305 17
67 1 -3.30736 9.64809 8.67015 20
68 1 4.74294 8.02725 -7.31384 20
69 1 5.94545 5.41619 1.42809 22
70 1 0.447217 -17.2358 5.16649 13
71 1 5.847 5.39324 4.65982 21
72 1 10.4416 -14.9461 -6.05059 10
73 1 8.68005 9.50173 9.16803 18
74 1 -11.9473 0.0164603 -10.6259 14
75 1 -7.43551 1.98271 -7.73129 21
76 1 8.85435 2.84882 11.7469 24
77 1 15.9006 -3.75256 -13.498 14
78 1 11.0312 -13.4973 2.50969 14
79 1 -13.8651 -2.62835 3.72166 11
80 1 -2.61574 1.45745 -0.102051 18
81 1 8.12385 16.0341 3.16813 10
82 1 8.30745 -3.50649 12.7153 15
83 1 -1.36871 -11.8209 2.87072 17
84 1 -5.23972 -3.08364 -1.46365 20
85 1 18.7183 3.79791 6.80301 12
86 1 11.5432 -3.13775 -3.53574 21
87 1 1.52206 11.8732 5.77184 23
88 1 6.63748 -2.6903 6.35475 21
89 1 -3.25937 -4.84745 -0.780695 21
90 1 -0.417336 -4.85898 -11.6381 21
91 1 -7.65021 4.41784 4.73058 18
92 1 -5.19602 9.67635 -3.31823 20
93 1 2.26581 7.01647 -9.60521 18
94 1 8.02278 0.770806 -7.00271 19
95 1 11.1121 -0.218627 -8.40349 22
96 1 12.1976 12.3203 -10.9481 15
97 1 7.68019 -8.19116 0.919048 20
98 1 9.28229 -10.1038 7.64364 11
99 1 -3.38986 13.0779 -7.48644 9
100 1 -8.75248 10.4269 2.21236 12
101 1 -2.36341 -6.37393 12.4964 9
102 1 -0.816911 8.42451 0.539073 19
103 1 -4.6268 -7.09415 7.36113 21
104 1 16.4345 -9.69172 -7.64466 12
105 1 -5.59805 0.77122 1.516 19
106 1 -4.60033 -16.5345 1.08675 17
107 1 10.9878 -10.1637 -7.09437 19
108 1 9.5153 -0.769581 -15.2571 21
109 1 -2.53797 -0.464829 -18.4853 16
110 1 8.25587 -0.106025 2.88808 23
111 1 -0.484782 11.1119 -0.799494 22
112 1 -6.5431 3.86009 -9.73714 20
113 1 4.82071 9.62941 12.8153 13
114 1 3.02954 12.2891 -9.36872 23
115 1 -11.961 5.29991 -0.400937 17
116 1 5.85227 5.59036 -1.95051 23
117 1 -3.67487 -8.95076 3.37284 19
118 1 16.281 -2.12833 6.74012 17
119 1 5.41654 -4.80396 -12.2747 23
120 1 9.38603 -10.1762 -12.3669 20
121 1 4.02782 2.58003 4.90985 21
122 1 11.21 -5.03164 11.9995 13
123 1 -6.51052 -5.90012 -2.18086 21
124 1 7.64177 -5.17357 -0.0887738 23
125 1 -5.35455 -6.32512 -5.61299 19
126 1 12.9677 -11.4139 0.737906 12
127 1 -3.74627 7.07546 -0.152916 21
128 1 12.6782 1.98686 -19.8472 11
129 1 10.6668 17.5196 -7.44029 7
130 1 -3.77506 -13.8193 8.18577 13
131 1 -6.54304 -15.3044 6.53387 14
132 1 -1.72581 4.93171 -1.0271 18
133 1 7.48775 -8.0656 -17.1906 19
134 1 9.87798 4.59637 -10.3131 15
135 1 14.7457 -12.7512 -2.25513 8
136 1 0.851059 -18.2314 2.20636 16
137 1 -5.10558 -8.88714 -3.29604 20
138 1 18.9519 7.16116 6.57341 12
139 1 16.9932 -5.18667 -10.3481 13
140 1 -12.8966 -4.82654 1.44724 15
141 1 14.4858 9.01598 2.04826 20
142 1 19.9937 8.34465 1.35407 10
143 1 -2.1982 3.1362 11.7781 17
144 1 10.443 3.00458 -4.46193 17
145 1 -1.36383 11.8236 7.20901 24
146 1 -1.51178 10.4921 -7.7186 17
147 1 2.29872 -6.03787 -12.9744 20
148 1 9.90719 -12.6232 -14.4273 13
149 1 5.16235 11.9427 -15.9446 13
150 1 10.6681 -2.48893 10.0845 19
151 1 3.89986 0.532017 -21.128 12
152 1 2.15127 6.8706 -6.37256 21
153 1 14.3514 -1.57061 -6.81393 19
154 1 -10.2134 7.56269 -9.27979 14
155 1 -7.13586 12.2376 -3.42793 12
156 1 12.2076 3.38834 -12.4255 20
157 1 9.2276 -10.8915 1.73007 22
158 1 -3.69538 4.18082 -8.57299 21
159 1 -3.45253 12.7374 4.34465 17
160 1 16.8811 6.95391 -11.4854 17
161 1 8.24987 12.3408 -6.90714 23
162 1 -0.727906 15.7454 -2.01591 14
163 1 12.3259 4.92153 -5.68105 21
164 1 1.27784 9.8856 -5.05891 19
165 1 3.83793 13.9796 -13.5487 11
166 1 7.38394 9.22512 -16.882 15
167 1 -7.17709 -11.3203 -1.32372 18
168 1 -13.0578 5.95455 -3.24657 13
169 1 0.472692 -4.12202 -15.6886 19
170 1 6.06554 -10.2288 -19.1183 11
171 1 12.2972 13.2528 4.55852 13
172 1 1.73243 14.6914 3.61936 16
173 1 -9.77679 -3.17444 -6.53666 20
174 1 -10.0199 9.11601 -0.338623 19
175 1 19.4438 -0.671655 -3.55966 14
176 1 -6.86453 0.874218 -14.3123 16
177 1 12.3372 -1.96026 12.5417 11
178 1 5.26742 16.0668 3.35697 12
179 1 2.79815 5.47149 6.0204 20
180 1 7.75116 -7.20682 -20.1603 10
181 1 -2.66392 14.8606 6.43786 11
182 1 2.21821 9.81967 -8.08418 22
183 1 8.05331 -6.40989 11.8597 9
184 1 -8.50992 -7.0466 2.68076 21
185 1 1.32611 -11.3577 -16.63 11
186 1 -7.60032 9.88581 -10.7205 13
187 1 -2.39728 -14.1602 0.467071 20
188 1 7.79943 -16.4502 -7.88942 12
189 1 -0.295369 10.5509 -14.9275 10
190 1 -11.1695 2.40821 7.63814 11
191 1 5.29677 5.84605 -5.05028 24
192 1 15.8596 5.91418 -8.81092 22
193 1 -5.1677 4.84155 13.0569 12
194 1 2.3865 -10.276 8.15466 17
195 1 -8.19784 5.16879 -3.94399 23
196 1 3.88329 13.5062 1.48958 20
197 1 4.14935 8.30608 4.75236 20
198 1 14.6679 6.20334 8.50679 15
199 1 -1.85474 13.2412 -1.44001 21
200 1 16.8886 -8.90068 -10.4048 12
201 1 -2.19875 13.4845 9.1916 10
202 1 -1.15465 0.792273 -11.71 18
203 1 16.391 -7.5019 1.20075 12
204 1 -2.9194 -6.13375 2.20846 20
205 1 -9.8227 0.291941 5.46878 16
206 1 -6.25763 -14.1494 -0.214419 17
207 1 10.0872 7.14905 8.29552 21
208 1 -12.2552 2.18707 -8.62712 12
209 1 -0.0138717 -15.6203 -4.18356 21
210 1 -2.91744 -1.25757 -5.25704 20
211 1 7.53626 -8.02054 -4.96836 21
212 1 2.48303 9.73969 -0.471227 20
213 1 -2.4875 -2.55037 1.31269 19
214 1 6.52431 12.0533 7.95863 15
215 1 -5.45211 -3.06139 -6.80686 20
216 1 -4.85766 10.6353 -11.2317 12
217 1 -12.5855 -3.24395 -8.20905 12
218 1 -11.1905 -3.89343 9.08908 11
219 1 1.23401 -12.1242 -0.761326 15
220 1 5.88793 -15.4513 6.83687 10
221 1 -10.2509 7.49166 1.98919 13
222 1 16.6486 6.60308 1.66191 23
223 1 10.1158 2.78874 -7.74968 20
224 1 -1.46506 -5.4364 -17.072 17
225 1 9.03348 0.519921 9.40991 22
226 1 8.32243 -16.2362 -1.44829 16
227 1 2.68736 7.63438 -12.9592 18
228 1 4.94623 -10.8456 -14.2281 18
229 1 14.1645 1.43517 -16.4018 16
230 1 6.07551 6.41773 -15.2685 22
231 1 -3.41432 -5.83498 -11.7298 21
232 1 0.161332 12.5421 -9.65413 12
233 1 -6.75994 -12.1196 7.80973 15
234 1 11.4118 15.1649 -5.21467 15
235 1 -4.98868 1.92947 12.3526 18
236 1 -4.61911 12.244 -5.38893 14
237 1 9.00403 -0.571044 5.89068 19
238 1 -1.03407 -7.05487 -14.0163 22
239 1 1.51785 9.87606 -11.4299 18
240 1 5.70661 3.83065 -13.3391 19
241 1 -4.04426 -11.609 5.46076 19
242 1 -5.28714 6.56711 4.34649 22
243 1 -2.34484 7.80505 3.31978 22
244 1 1.26305 -14.2899 -9.7924 20
245 1 -3.6995 -19.3789 -4.67667 7
246 1 13.1663 -12.9328 -5.44861 10
247 1 2.93149 -10.6964 -5.99192 21
248 1 12.0767 9.57117 9.13923 17
249 1 10.4175 8.14093 -11.611 21
250 1 5.48633 8.76649 -4.27947 18
251 1 -6.05452 0.132959 -1.39468 23
252 1 -12.497 8.25522 -0.843775 12
253 1 3.35557 3.02067 10.5624 19
254 1 7.28405 -15.9826 -4.717 19
255 1 22.2766 -0.182333 -2.75157 6
256 1 5.30846 7.92564 0.126257 20
257 1 -6.50994 5.83346 1.58951 19
258 1 -7.72148 -4.2118 -5.10489 19
259 1 13.0039 4.19008 -15.6531 20
260 1 8.79423 -4.73492 9.25101 17
261 1 12.9297 9.54946 -13.133 16
262 1 4.37732 -10.4426 -9.24302 18
263 1 2.55326 -0.619354 -15.1549 23
264 1 3.44566 -17.4631 1.21828 18
265 1 13.2111 -1.82289 -10.7654 20
266 1 -7.45997 -4.5944 3.91125 17
267 1 5.54493 -18.6101 -5.34061 11
268 1 -6.86519 -5.56861 -11.2844 24
269 1 8.3018 14.6525 -4.50499 17
270 1 5.12648 -1.7281 -19.9239 16
271 1 9.9637 1.96137 14.6576 12
272 1 16.7769 3.27671 1.43285 22
273 1 -0.947907 -7.75329 -1.01837 19
274 1 16.1285 -6.86941 -12.6784 12
275 1 2.43051 -7.14269 0.805083 20
276 1 -5.3255 -4.12171 -13.3719 19
277 1 -9.48529 -0.0860048 -12.5624 16
278 1 -0.399789 -15.3823 7.86618 13
279 1 11.8771 -0.821316 7.40161 22
280 1 11.3199 -5.49654 4.36275 22
281 1 -2.93228 -8.49076 -16.1266 12
282 1 5.43375 -5.2818 4.67874 20
283 1 3.09757 4.82978 -14.7974 24
284 1 10.8703 9.234 -2.96652 21
285 1 -4.41837 -12.062 2.27644 21
286 1 8.76853 10.0689 1.20758 20
287 1 -3.68736 -4.47311 9.35256 21
288 1 -7.40374 -10.3416 -10.1666 13
289 1 -2.40638 -3.74857 -14.6145 19
290 1 4.83276 6.52987 -17.8434 15
291 1 -1.54523 -9.73888 -9.03521 17
292 1 -1.36584 -12.8103 -2.58551 20
293 1 15.6276 -5.68959 -15.8867 10
294 1 18.6373 0.29975 -10.2301 10
295 1 14.886 3.09314 -0.603174 19
296 1 -0.399981 -5.13629 -5.56131 20
297 1 -6.05865 -3.49599 7.37249 21
298 1 -1.00026 -14.1561 -7.17881 18
299 1 10.7716 6.93169 13.5921 12
300 1 -3.2353 -14.551 3.57179 21
301 1 5.9932 3.04597 -6.84802 19
302 1 1.93787 -13.3909 -3.72225 21
303 1 4.4863 15.7457 -5.45545 17
304 1 10.735 1.52736 -17.5866 23
305 1 -3.29494 -3.20347 -17.8052 13
306 1 5.03961 -8.73319 -4.39001 21
307 1 -7.26112 -8.49293 8.31349 15
308 1 5.85974 6.77394 14.0189 16
309 1 4.38889 -13.4356 -5.39657 22
310 1 0.195273 -8.15599 -17.3473 13
311 1 -7.65916 6.02054 -11.0066 16
312 1 13.6018 5.86127 1.29878 21
313 1 -0.163451 1.30027 -14.3344 20
314 1 5.61824 6.48821 -12.0466 18
315 1 2.74722 -5.70627 6.37937 21
316 1 8.35102 -12.7118 -11.5936 16
317 1 -4.09518 13.9165 -2.75954 15
318 1 5.72617 10.6078 1.77965 20
319 1 14.1922 0.391353 1.66734 22
320 1 -8.02522 -1.80714 3.88499 18
321 1 1.12856 -7.95134 9.65971 13
322 1 -3.80263 10.2136 2.0671 21
323 1 8.39747 -3.4359 -13.8299 21
324 1 16.3605 8.24814 -6.59955 14
325 1 4.04263 -11.9716 -1.9782 19
326 1 1.59521 -3.98405 12.2977 14
327 1 -13.254 -6.32341 3.94772 12
328 1 2.55424 -17.9261 -7.42133 15
329 1 -6.2031 8.94697 9.76594 11
330 1 -7.41165 6.57089 11.5945 13
331 1 -11.8855 -4.6267 6.34949 15
332 1 -10.7176 -7.76468 5.30872 15
333 1 17.6672 -2.92671 -2.40722 16
334 1 -9.61061 -10.2471 7.08348 12
335 1 10.2732 -4.7659 -8.51164 23
336 1 12.2702 -12.5829 -8.18162 11
337 1 7.22277 16.8976 -6.14809 14
338 1 -0.292689 -5.41639 1.25189 21
339 1 -6.81447 10.1614 -5.79888 18
340 1 2.81973 0.0928323 6.40481 22
341 1 16.2686 8.10058 6.52405 16
342 1 -8.25133 -4.53547 0.397127 23
343 1 9.44199 -7.92214 -7.2327 20
344 1 0.448872 8.64731 -2.82012 20
345 1 -0.511401 5.7688 1.67318 22
346 1 7.4522 -12.5453 6.79403 12
347 1 13.3623 -6.48803 0.318616 22
348 1 0.82379 2.95161 6.88138 19
349 1 -4.43927 -4.42644 -9.23517 24
350 1 1.15604 2.05075 12.759 17
351 1 1.15112 11.8718 2.17947 22
352 1 12.1064 6.95369 10.5796 14
353 1 -6.5273 11.6723 -8.38027 11
354 1 5.29779 -4.33237 -21.0716 10
355 1 -4.02081 1.13875 -9.70949 19
356 1 10.3088 -9.57752 -15.8505 18
357 1 -4.74689 4.4183 10.2483 19
358 1 -8.86092 0.17418 -2.44951 21
359 1 -1.34751 -4.06655 -8.40345 21
360 1 -2.86584 7.57129 -3.05579 21
361 1 9.58988 -3.09603 4.00001 22
362 1 -8.59469 -13.7066 -2.13755 10
363 1 11.5379 -7.62928 7.08092 14
364 1 -4.48786 -10.3532 9.21151 17
365 1 -13.9424 2.95233 -2.28005 11
366 1 -0.541415 -4.9306 6.99774 19
367 1 4.44364 -13.2908 -11.2286 17
368 1 -2.68966 -2.46896 -11.9116 22
369 1 11.9634 -1.47527 -16.6551 24
370 1 6.30991 15.9168 0.141136 14
371 1 -8.20355 -0.72316 -5.73068 20
372 1 7.64484 -6.57295 -12.8657 21
373 1 15.8505 4.90738 -16.338 11
374 1 -4.04657 -15.0227 -11.5821 12
375 1 -10.398 -6.04699 -7.12866 14
376 1 -0.0225819 -8.08696 -4.19905 20
377 1 15.0291 5.34062 11.4504 11
378 1 16.735 0.790408 -2.62083 20
379 1 -2.37961 4.09298 -13.8199 20
380 1 6.09267 16.9675 -3.32826 12
381 1 -14.1983 -0.870225 -8.81909 8
382 1 -3.85181 9.77412 5.5535 20
383 1 -3.57061 10.1836 -1.05249 18
384 1 -1.85436 4.34303 4.94431 23
385 1 12.4234 4.11739 13.8148 10
386 1 14.6953 -4.62312 -8.46217 18
387 1 13.7961 -3.3618 10.7277 13
388 1 19.3953 0.779498 -6.85733 12
389 1 -1.91458 -16.1327 -9.15836 16
390 1 6.66786 2.66405 3.04405 22
391 1 -0.494697 6.58712 -5.1217 17
392 1 2.55901 -8.47294 -8.73506 19
393 1 7.21323 9.33009 -1.33917 18
394 1 10.9148 0.0513157 -5.29044 23
395 1 -6.54167 1.77895 -3.90347 19
396 1 6.40623 -10.923 -3.15311 22
397 1 13.2791 -2.93946 4.70782 22
398 1 -7.9222 -4.90937 -8.69909 19
399 1 -4.37799 -10.9706 -1.20655 20
400 1 -2.25004 -7.72615 9.58464 18
401 1 -2.05121 10.7655 -3.91076 24
402 1 -7.30881 -11.3358 -4.24977 15
403 1 10.9142 9.65889 11.9748 14
404 1 -5.65092 6.83004 -4.81757 21
405 1 3.98198 11.0195 -12.2494 24
406 1 10.2684 12.8755 2.29797 22
407 1 -10.6094 -8.15542 -4.72842 9
408 1 1.07202 -11.2925 -8.94083 20
409 1 -9.31694 -3.45504 6.03506 20
410 1 -8.43814 7.76804 -5.95653 17
411 1 7.28506 -10.5246 3.80618 18
412 1 -2.79943 -17.8468 -6.38605 13
413 1 14.6732 10.1544 4.90401 16
414 1 10.3986 6.88404 -16.4348 16
415 1 -11.0047 5.05065 -10.5665 10
416 1 2.58095 15.1198 -10.8385 13
417 1 -6.93321 0.541005 -10.5996 24
418 1 1.35184 -14.7163 1.26891 20
419 1 14.4881 6.42862 4.39837 20
420 1 7.50751 6.43583 -18.3404 13
421 1 -0.981862 -0.0260114 7.51422 20
422 1 -13.7533 -0.453534 -1.43219 12
423 1 -3.47602 4.66376 2.10194 18
424 1 -1.16592 -15.8108 2.21067 15
425 1 4.94947 -5.373 -8.78976 20
426 1 8.01438 -9.34605 -14.4624 20
427 1 2.7006 -4.42689 2.55203 20
428 1 -8.51579 1.49182 2.61605 19
429 1 -11.0587 -1.08416 7.86352 14
430 1 -9.35685 4.43355 1.77822 15
431 1 2.6729 -5.00576 9.22752 19
432 1 -4.63296 1.54963 -16.4986 16
433 1 8.08137 -10.2748 -9.27384 21
434 1 1.80114 -9.06253 -14.3986 22
435 1 -3.46585 -4.98318 5.83135 18
436 1 5.90867 -8.10836 -7.62369 23
437 1 0.787753 4.37048 -17.646 16
438 1 7.86877 -13.2336 -0.444192 22
439 1 7.48749 9.61938 -8.13043 18
440 1 -7.79508 7.85011 4.04018 13
441 1 -1.47983 -2.81704 12.2169 17
442 1 -8.40081 -8.58318 -12.9458 12
443 1 -5.82378 -7.28916 4.56426 20
444 1 14.4685 -7.15476 6.31794 10
445 1 10.8833 -0.186195 -2.34945 21
446 1 -1.377 2.57317 2.48502 21
447 1 5.53165 -2.33732 -10.252 21
448 1 13.2342 -8.57807 2.7694 13
449 1 18.7263 5.57346 -9.9599 11
450 1 0.0881148 2.73282 9.53584 17
451 1 7.93058 11.0284 -3.58176 19
452 1 7.60838 -5.95307 3.02872 21
453 1 4.18872 -15.9329 -9.59146 15
454 1 -3.73975 7.2863 10.514 15
455 1 -1.35507 15.2408 3.48985 13
456 1 -6.0127 -10.1746 -7.28038 17
457 1 14.4936 15.541 -2.27493 10
458 1 8.74994 4.78926 6.69725 24
459 1 -4.6639 -0.826883 7.40848 21
460 1 -3.42072 -8.72085 -6.37157 17
461 1 -6.38835 2.0165 8.98519 22
462 1 -5.09875 -7.32004 -8.96575 19
463 1 -1.1459 10.6793 3.5045 20
464 1 -1.43665 -13.2272 -10.1917 21
465 1 1.93684 -4.83733 -19.011 13
466 1 -3.06896 -15.7299 -2.69461 15
467 1 -5.78684 -5.58324 1.12813 22
468 1 11.657 -0.226746 3.92897 21
469 1 -0.4256 -5.09848 10.2597 19
470 1 -5.75591 5.10674 -13.6191 15
471 1 13.3805 2.0986 -4.21638 19
472 1 -5.07323 -16.1 -4.71393 13
473 1 5.74657 3.06123 -10.3189 17
474 1 3.06641 16.3205 -2.26468 11
475 1 4.35632 5.04314 -7.96633 19
476 1 1.4972 9.55124 8.40391 21
477 1 -12.998 -1.78104 -5.72004 12
478 1 2.22628 15.3653 -7.76819 16
479 1 9.57933 10.8735 -9.51312 22
480 1 -2.1303 -8.91707 -12.6 18
481 1 6.92565 4.31226 16.2466 7
482 1 2.2348 -15.5818 -12.4966 14
483 1 3.45452 -3.60628 -14.3467 21
484 1 9.1012 -16.2906 1.72413 14
485 1 -6.4149 9.15536 0.0153923 21
486 1 6.29885 4.41094 12.0186 22
487 1 10.3831 6.9143 -5.31495 19
488 1 7.86569 7.24239 -3.61488 22
489 1 -6.25892 8.7398 -13.9025 12
490 1 8.21058 0.986537 -10.0834 22
491 1 4.98135 -9.43995 2.71461 18
492 1 -11.8438 -4.09444 -1.28739 14
493 1 6.48066 13.4853 5.4692 17
494 1 -1.75153 5.68962 -17.4073 16
495 1 13.5399 4.85463 -2.55221 20
496 1 8.91331 13.5291 -11.0377 14
497 1 7.24541 -7.97205 -2.16695 23
498 1 21.0063 3.0485 -1.49369 11
499 1 5.36778 0.812757 -11.5061 24
500 1 2.44156 -9.83798 -3.31809 18
501 1 3.49009 -17.2932 4.69862 13
502 1 5.91502 -10.4674 8.41782 14
503 1 -4.77088 2.70422 -11.8277 18
504 1 -7.49528 -15.164 2.97819 14
505 1 0.229999 -14.0182 -14.5698 11
506 1 15.0306 11.5587 -0.469201 17
507 1 2.79141 1.8522 -13.1501 22
508 1 3.90567 0.869319 12.9892 16
509 1 -9.47238 1.19855 9.84519 14
510 1 1.19677 -17.9588 -2.73549 19
511 1 -10.7796 -6.52583 0.86088 19
512 1 17.6956 -6.45526 -7.78903 11
513 1 14.2385 -4.01572 -5.15961 20
514 1 -0.431109 7.7833 -7.79938 19
515 1 4.04267 -7.81718 -10.9366 21
516 1 8.71286 5.02362 -13.8452 19
517 1 14.379 -7.77214 -9.88088 19
518 1 -1.85977 0.80902 13.5297 11
519 1 7.17158 12.8949 -0.988365 18
520 1 -0.910363 0.0959617 -21.3216 8
521 1 11.3304 5.07255 -18.4418 13
522 1 -0.385415 -4.77703 4.1812 21
523 1 0.5547 12.3435 -3.84381 21
524 1 -8.29535 -5.79671 -15.122 11
525 1 -10.8117 -1.42875 -0.291485 16
526 1 4.16829 -9.34283 -16.7826 18
527 1 -1.32169 -13.0722 7.75107 17
528 1 4.57002 8.72501 -10.1437 25
529 1 18.9227 2.02928 3.94983 14
530 1 18.8988 6.40639 -1.03974 17
531 1 -5.58179 -13.513 -3.20181 19
532 1 2.5622 -7.17137 -5.70815 19
533 1 1.8541 -2.14848 -21.6667 10
534 1 -4.72168 12.1882 7.17481 13
535 1 8.61967 -7.01718 -9.98479 18
536 1 8.76226 4.02331 -2.03121 22
537 1 15.6009 -7.24306 -1.86283 15
538 1 5.78786 14.7928 -11.0099 15
539 1 4.64902 -9.09399 -1.14544 21
540 1 17.8354 3.41542 -12.0717 14
541 1 8.64607 6.06751 11.2199 19
542 1 -6.40093 0.750412 4.96679 16
543 1 8.64931 5.18565 2.44473 21
544 1 12.4263 0.891937 13.5125 12
545 1 5.67243 -1.14702 -16.5476 19
546 1 -1.97237 -6.93149 -10.0566 19
547 1 4.01156 -2.45932 8.42554 22
548 1 11.2467 9.96347 3.65836 22
549 1 11.6935 6.09665 -13.6469 19
550 1 -2.98738 7.8872 -9.32841 17
551 1 2.85669 12.6621 -6.16448 19
552 1 15.957 -4.94013 8.4652 14
553 1 12.0951 1.18595 -14.3903 17
554 1 13.5191 -9.4719 -6.84837 18
555 1 15.1628 13.4636 6.19377 11
556 1 -10.0061 -8.75191 -1.263 15
557 1 -3.80667 10.6117 -15.0481 9
558 1 2.99435 0.474351 9.76796 16
559 1 -9.22988 -2.30516 10.9825 11
560 1 -2.48845 9.37667 -12.3671 13
561 1 7.6906 -13.4204 -5.54198 20
562 1 7.90065 -1.39983 -11.9803 18
563 1 1.22627 15.533 -4.37701 16
564 1 -4.62832 -5.91663 -16.0636 14
565 1 6.20843 -16.632 3.06445 15
566 1 -9.82921 -5.78186 -2.59389 18
567 1 5.05984 9.1311 -14.0777 21
568 1 -3.58115 1.32274 -6.8107 21
569 1 1.75519 8.75241 11.1439 16
570 1 -7.90277 -6.11369 6.30084 20
571 1 11.0457 5.87006 -3.10957 21
572 1 3.07896 -10.8323 -11.7705 21
573 1 6.99282 -7.89778 8.98612 15
574 1 11.9474 -2.94943 -6.72125 22
575 1 -9.08127 6.05057 -0.723301 19
576 1 8.71663 5.50141 13.9868 17
577 1 10.9704 14.4547 -8.52022 17
578 1 15.4664 -7.40048 -5.51014 14
579 1 5.83455 5.62282 8.32163 21
580 1 7.16916 0.26471 -19.5982 17
581 1 1.14238 -13.2941 9.4071 13
582 1 2.21624 1.3537 -10.293 20
583 1 13.5628 -0.688743 -18.6216 12
584 1 4.07533 13.3617 4.29967 17
585 1 14.9654 5.6893 -13.8596 21
586 1 2.61928 -2.22846 -18.0643 20
587 1 -0.340179 -11.7359 -4.82278 18
588 1 -5.57713 -7.20115 -13.9455 15
589 1 18.0439 3.1991 -1.64494 19
590 1 20.3176 5.62662 -3.47816 12
591 1 11.0564 -8.78408 -9.75495 21
592 1 17.8524 6.20482 9.25698 12
593 1 6.3106 -10.768 -6.6671 22
594 1 6.49088 3.69455 -20.0075 14
595 1 10.2468 11.7626 -0.978759 21
596 1 -5.6667 3.26328 0.174227 19
597 1 12.4265 12.3225 10.0136 10
598 1 15.1208 3.7014 -7.13438 19
599 1 16.0715 -1.08094 -0.124144 23
600 1 18.037 5.9464 -13.8915 9
601 1 14.4813 0.395632 9.32372 14
602 1 16.8705 0.695602 3.10644 20
603 1 8.77673 -6.37632 5.97517 20
604 1 16.3337 10.9698 -7.22079 12
605 1 10.8108 0.291578 0.772268 21
606 1 6.26454 -1.1889 13.4007 16
607 1 17.2313 -0.730832 -8.08283 15
608 1 10.2141 2.38183 7.51931 21
609 1 -5.83276 -2.38134 -10.3741 19
610 1 16.0306 5.63534 -1.29484 17
611 1 11.3423 -4.49222 -0.405337 21
612 1 2.49613 -6.95589 -2.27723 21
613 1 -8.88927 7.70462 8.8922 11
614 1 12.2136 14.2366 7.55433 11
615 1 13.5634 2.91149 8.34901 18
616 1 6.69071 8.47793 3.44124 19
617 1 3.87511 13.3763 7.7223 13
618 1 9.71992 2.37664 4.20143 22
619 1 0.979354 -19.9045 -0.556226 11
620 1 -3.21298 8.43062 -6.07861 19
621 1 15.1259 10.1856 -10.4136 13
622 1 15.5307 -2.10203 -16.0294 13
623 1 5.69781 12.6583 -4.20668 22
624 1 -2.4119 -13.2272 -13.5704 13
625 1 10.2687 -7.17278 -13.729 20
626 1 -10.8898 3.14418 4.4373 12
627 1 0.451055 5.61267 -14.9417 19
628 1 -1.70595 -20.4632 1.58603 10
629 1 -2.03761 -0.90683 -14.9947 20
630 1 -11.0227 0.291527 -7.30793 21
631 1 11.136 -8.42442 0.628826 17
632 1 17.8314 11.0661 -1.90247 16
633 1 3.82371 -10.8598 4.87607 20
634 1 -11.9087 -2.72381 -11.6015 10
635 1 9.63705 2.67019 -19.8399 17
636 1 6.2185 -2.92252 2.82229 23
637 1 -1.82088 6.41854 13.0203 9
638 1 10.9273 9.89788 -15.7313 13
639 1 16.6312 -1.83405 9.56974 11
640 1 12.6626 4.61385 -9.00677 22
641 1 16.2971 13.5812 0.347072 12
642 1 6.82081 -15.0258 -10.295 13
643 1 -6.1692 -3.32412 11.0061 14
644 1 18.7386 -2.00634 1.75256 12
645 1 3.72963 7.91994 7.99703 22
646 1 10.1182 11.4534 -13.1508 17
647 1 -10.6684 6.64843 -6.00246 16
648 1 12.6651 11.209 -2.86914 17
649 1 -6.02326 -16.5909 -2.00082 12
650 1 15.2595 -3.8326 0.870054 20
651 1 9.6386 15.4139 0.191952 13
652 1 -2.13515 4.64077 8.34267 20
653 1 -6.86284 -8.37831 -0.350568 20
654 1 -8.51494 -2.72576 -11.5013 19
655 1 9.50873 -0.470842 12.7856 21
656 1 -0.861398 -10.507 10.4433 11
657 1 10.5139 4.2196 9.58533 20
658 1 -2.09232 14.2252 -4.5615 14
659 1 13.3892 0.641582 -1.62759 20
660 1 10.1213 -6.52965 -1.94371 21
661 1 11.8105 2.66075 2.28977 20
662 1 8.18247 -2.71003 -20.6163 13
663 1 -5.48121 -2.62361 1.48866 20
664 1 12.9054 -2.75711 -14.01 19
665 1 1.35615 -5.65784 -9.46905 19
666 1 13.8927 -10.6993 -10.3302 18
667 1 11.7807 5.02919 3.87315 24
668 1 11.1298 5.36011 0.0411921 21
669 1 -7.34197 0.117876 11.0273 17
670 1 14.545 3.2214 3.39905 22
671 1 5.36731 -3.81879 11.235 15
672 1 0.724435 5.81643 8.25655 19
673 1 5.74817 -4.52709 -16.127 17
674 1 -2.97715 1.81679 8.47125 18
675 1 -0.843669 3.17285 -6.49197 20
676 1 7.20412 3.37078 9.16421 24
677 1 -5.18201 -16.556 4.04936 14
678 1 17.8563 8.27093 -3.47884 19
679 1 8.51957 -10.5169 -5.03441 19
680 1 1.71432 4.30325 -8.1391 20
681 1 10.3369 9.77527 -6.20467 22
682 1 13.0849 14.2712 0.243838 13
683 1 10.0894 -0.533118 -19.271 17
684 1 0.620457 -2.3335 3.11733 22
685 1 5.56619 13.8215 -7.48153 22
686 1 15.4511 10.6572 -3.74531 21
687 1 -2.04434 -9.73717 -2.50332 18
688 1 0.808898 1.08279 -19.2488 21
689 1 -9.87741 10.0719 -2.97153 13
690 1 13.2061 -5.79102 -13.8216 20
691 1 11.2785 2.79031 -1.10171 21
692 1 16.1146 8.89221 -13.4157 9
693 1 13.2436 10.1234 -5.72293 20
694 1 1.00365 3.8191 3.49697 20
695 1 -1.04387 3.18125 -3.20029 21
696 1 13.429 7.15764 -7.4968 19
697 1 16.4092 3.53531 8.96194 17
698 1 11.4896 0.997368 10.4751 22
699 1 2.58417 -15.7007 7.17194 15
700 1 -0.235506 6.54557 -12.2377 16
701 1 8.15146 10.8468 4.33774 18
702 1 12.8804 -7.86128 -15.8031 15
703 1 5.7988 -0.485447 4.36543 22
704 1 12.2085 12.4593 -6.75652 19
705 1 11.9304 10.2877 1.00701 17
706 1 17.4434 -5.81553 -4.04504 12
707 1 8.27159 9.16198 13.8564 12
708 1 -10.0647 -5.06311 3.8245 19
709 1 5.17847 -17.6665 -2.54208 19
710 1 3.05448 -1.58748 -12.0677 21
711 1 -8.57822 12.1215 -0.51104 13
712 1 3.02765 6.16791 3.225 18
713 1 7.69428 -4.92668 -7.0663 23
714 1 7.31473 13.5733 2.00897 22
715 1 -10.668 -2.53467 2.64278 17
716 1 0.806678 5.10724 11.4878 20
717 1 -0.522709 4.01915 -20.4765 8
718 1 -4.71465 7.43893 -16.1201 11
719 1 5.42268 -14.5818 -2.52144 22
720 1 13.5574 6.83299 -11.1052 24
721 1 5.13756 -6.02019 1.38584 23
722 1 2.59702 6.22836 0.0713349 20
723 1 -10.4302 4.68222 10.0834 10
724 1 10.5541 -4.3964 -15.9883 23
725 1 4.10158 -13.0947 8.07036 13
726 1 4.97996 14.8024 -2.0688 19
727 1 1.01819 -1.06755 13.1316 15
728 1 -5.72574 -10.2875 -12.6734 10
729 1 -0.387085 -10.4891 -14.6653 15
730 1 -5.89124 -13.0653 -9.71763 13
731 1 4.9613 16.5861 -8.87557 12
732 1 10.4807 -4.53264 -12.4073 21
733 1 1.28947 8.50413 2.29126 24
734 1 6.55046 -9.56744 -11.6439 21
735 1 9.54832 -13.5196 -3.24524 16
736 1 5.83303 -8.064 5.76644 21
737 1 17.4629 2.64048 -8.99318 20
738 1 5.16603 -16.1329 -7.01856 18
739 1 -4.73265 -2.32371 4.29783 18
740 1 5.02168 0.330548 -8.86799 18
741 1 -1.72798 -18.5281 -2.93436 17
742 1 -3.1251 -11.9894 -7.51878 18
743 1 -7.84324 -0.999883 7.96414 21
744 1 -3.8851 -19.0042 -0.916885 13
745 1 15.2691 0.652719 -9.86492 19
746 1 -2.83785 15.4224 0.260919 13
747 1 -3.59532 1.02289 5.13118 23
748 1 -11.2807 1.97545 -0.0203007 17
749 1 14.256 -3.97337 -1.86155 22
750 1 -9.90691 -5.17184 -13.0261 12
751 1 5.0754 10.8803 -6.59042 22
752 1 14.5703 -0.327723 -13.188 17
753 1 9.57674 12.0473 9.30867 17
754 1 16.5862 5.626 -4.54228 17
755 1 -8.9966 -0.480147 -9.23191 20
756 1 -8.32902 -7.9276 -9.43628 15
757 1 1.34214 6.68026 14.851 7
758 1 8.51764 8.06117 -14.214 20
759 1 13.8032 11.9455 2.75622 16
760 1 1.10319 -2.68793 6.41397 20
761 1 0.111299 -19.1062 -5.91908 9
762 1 -3.24592 -16.0238 6.43132 13
763 1 -1.97305 -7.68464 5.55086 16
764 1 14.5301 12.3321 8.42398 11
765 1 4.76349 -7.58686 -14.2476 23
766 1 -4.12671 4.20163 -2.87863 20
767 1 12.8638 8.05975 -1.00128 21
768 1 -3.84726 -8.48503 0.0043849 19
769 1 13.6749 7.81781 -15.7404 16
770 1 1.06113 -17.506 -10.1027 12
771 1 3.97113 -19.6137 -0.965121 11
772 1 3.05904 -16.4567 -4.57744 21
773 1 10.9318 -0.123006 -12.1975 21
774 1 11.1571 14.3866 -2.46675 14
775 1 3.78035 0.583085 -17.9305 23
776 1 3.75602 -1.58139 11.5061 20
777 1 4.74839 3.73247 -17.2848 17
778 1 -8.04365 -2.21812 -14.7727 14
779 1 -8.39545 -2.53485 -2.84249 22
780 1 8.20817 15.6817 -8.62933 16
781 1 14.0423 -1.22357 -3.47525 20
782 1 0.16334 -2.6417 -18.7115 17
783 1 -3.11722 -6.60818 -3.25089 21
784 1 15.0783 3.69337 -10.8206 22
785 1 15.918 -10.4761 -1.03222 10
786 1 -3.75193 6.65185 7.15271 20
787 1 6.49952 -10.7131 0.231684 22
788 1 17.8339 -4.93543 -0.494131 13
789 1 16.055 -4.90643 5.10079 13
790 1 1.39221 9.29234 5.19605 21
791 1 -8.05695 3.50265 12.1627 13
792 1 -4.82234 3.58793 6.47756 23
793 1 0.3398 -13.992 4.37391 19
794 1 12.6945 -1.53425 -0.364109 20
795 1 9.54727 7.1122 4.9518 21
796 1 -14.3532 -3.06811 -0.0457316 11
797 1 10.7172 -8.73478 -3.83265 16
798 1 -9.50019 9.86907 -7.94879 10
799 1 7.87492 6.67605 -0.524978 21
800 1 3.94269 -14.2478 3.44391 19
801 1 6.94368 -1.76645 10.0044 20
802 1 4.9962 11.7462 -0.421457 21
803 1 3.76742 -12.2023 1.18009 19
804 1 -5.73161 -1.36392 -4.09059 22
805 1 6.22745 0.915808 11.3114 21
806 1 -12.3249 -5.1417 -4.60184 12
807 1 4.43751 10.5489 9.69964 19
808 1 10.445 12.3652 -4.40177 21
809 1 -7.93714 -12.3551 1.68014 16
810 1 -2.5685 -18.0616 3.98951 16
811 1 9.90545 -8.79749 4.30665 19
812 1 14.2749 -5.74907 3.03924 19
813 1 12.4964 8.00724 6.09279 18
814 1 3.13545 7.38142 -3.02682 19
815 1 0.630742 -8.1259 -11.5165 22
816 1 0.0510996 -0.144136 -17.4667 22
817 1 -2.16359 -2.27571 9.02097 20
818 1 0.450152 14.3613 0.566734 18
819 1 18.7125 0.960132 0.300708 16
820 1 7.3879 6.88171 -9.71097 17
821 1 -0.658973 7.88666 10.1438 20
822 1 12.1422 5.31814 6.99917 23
823 1 10.3288 -2.49344 -10.7221 21
824 1 -3.30451 -11.672 -4.71541 17
825 1 -3.12529 -1.50319 -9.02883 22
826 1 18.0781 -0.827277 4.96113 13
827 1 5.8645 -1.45815 -14.1076 24
828 1 3.11571 5.85587 9.71475 19
829 1 11.1688 -11.7842 -10.8816 16
830 1 9.09812 5.99614 -20.5856 8
831 1 -0.0417772 -7.79585 -7.39928 19
832 1 15.4447 2.89581 -14.2301 15
833 1 20.3798 -2.21317 -0.866048 10
834 1 5.59731 -5.27553 8.00423 18
835 1 2.74482 -5.86258 -16.5228 19
836 1 14.454 13.8854 -5.0015 13
837 1 2.84375 -7.14968 4.1509 20
838 1 -12.1092 0.185059 2.6907 13
839 1 13.2956 1.27479 -6.9988 19
840 1 19.5233 4.95996 1.79044 15
841 1 7.97401 -5.11806 -18.4089 18
842 1 -5.8965 11.9056 1.42997 15
843 1 17.6361 8.8309 4.16424 17
844 1 14.3956 13.1945 -8.64246 11
845 1 7.70889 1.02424 -17.06 19
846 1 13.0403 -6.28326 -3.57653 18
847 1 -10.8308 -2.70424 -3.92177 19
848 1 16.0968 8.53824 -0.750231 19
849 1 -7.88588 -8.19284 -4.15634 16
850 1 -5.39202 7.80191 -11.683 18
851 1 7.02385 2.36831 6.17668 22
852 1 -5.65838 -0.346645 -7.73472 19
853 1 -4.95479 3.03911 3.66294 22
854 1 0.30537 3.55173 -11.6071 20
855 1 15.1048 -10.0109 -13.4891 10
856 1 -8.95142 -9.83459 -7.0382 10
857 1 15.7399 -9.69002 -4.1738 12
858 1 -11.8552 0.73858 -3.39542 20
859 1 -2.58691 -6.27489 -6.82799 20
860 1 17.7359 10.6492 7.18828 9
861 1 -1.47752 -10.9074 0.33965 18
862 1 14.4379 2.42814 11.8161 13
863 1 16.0142 -2.30795 3.01972 19
864 1 12.2878 -3.37851 1.99042 19
865 1 -8.33515 2.52239 -0.399529 18
866 1 6.99751 7.89474 6.65416 21
867 1 7.26146 9.35633 -11.4759 22
868 1 5.13974 -6.4832 -18.9062 17
869 1 -2.49382 12.6259 1.40749 21
870 1 -8.80545 -13.3668 5.39687 14
871 1 12.3792 9.36105 -9.05602 20