ITEM: TIMESTEP
3000
ITEM: NUMBER OF ATOMS
1000
ITEM: BOX BOUNDS pp pp pp
-30.0 30.0
-30.0 30.0
-30.0 30.0
ITEM: ATOMS id type x y z Coordination
1 1 -2.62629 -8.90212 -8.99706 13
2 1 8.31707 -10.7922 7.23889 10
3 1 -11.4382 9.23427 -2.61629 7
4 1 -10.6904 2.64714 -8.12738 11
5 1 1.00324 -8.18303 10.5862 16
6 1 -8.4727 -0.875929 -10.8363 15
7 1 -4.9611 0.405974 -6.03586 21
8 1 -3.8672 -14.3663 2.81052 9
9 1 2.99585 -3.44397 4.88684 20
10 1 -0.334373 2.44004 10.2842 17
11 1 8.69251 -1.70851 1.42034 15
12 1 -4.21898 8.08196 -8.46381 15
13 1 3.80323 -1.40159 14.2014 10
14 1 -8.23008 0.873004 -1.31173 22
15 1 -2.18108 -1.48085 -5.85139 20
16 1 1.50249 -2.36739 7.7707 19
17 1 4.23201 -4.82167 -5.16741 15
18 1 1.89109 3.53 14.7862 7
19 1 -0.955232 -10.994 7.75411 16
20 1 -12.3954 -0.37394 2.81358 15
21 1 -10.1362 0.362927 -4.10154 20
22 1 -0.844756 10.7974 -0.618476 18
23 1 4.63072 1.69271 -11.6493 15
24 1 4.81167 -7.36431 -9.59088 15
25 1 -2.41757 -2.40857 12.006 12
26 1 -12.4498 4.71044 -1.10952 12
27 1 2.10115 12.9496 -0.513634 12
28 1 1.22475 -12.257 3.19003 13
29 1 6.35435 -5.56407 -3.5888 20
30 1 6.38231 -2.08691 3.93612 20
31 1 -9.12502 8.04294 -4.41079 13
32 1 -0.335058 5.7307 -3.32471 22
33 1 1.27727 4.99144 4.26686 21
34 1 0.783006 5.41662 10.0263 21
35 1 -8.34881 -2.40211 1.6685 19
36 1 6.56356 -1.22586 12.5325 14
37 1 -11.0657 -1.38603 -1.68012 16
38 1 12.4245 0.883644 6.14049 14
39 1 8.3964 -2.93384 -3.39659 18
40 1 4.44846 -1.03914 8.68446 20
41 1 -7.75307 -4.9973 2.06081 21
42 1 -3.58872 -3.64345 -7.58258 16
43 1 -7.21094 10.365 1.05156 13
44 1 -2.70471 3.20322 -8.3063 21
45 1 7.90921 0.0176365 -3.07374 14
46 1 7.99539 -1.55912 -6.49384 16
47 1 8.23829 -7.0379 4.58202 19
48 1 6.74828 -8.75387 9.07463 14
49 1 -4.66536 9.35866 6.59263 19
50 1 -6.58624 -6.7201 14.715 6
51 1 -11.2209 5.01204 5.71579 11
52 1 6.90939 -10.8788 -6.11821 10
53 1 5.21109 -0.973221 -13.568 11
54 1 3.83931 -0.616732 5.63886 20
55 1 -0.0362296 11.4598 1.97244 23
56 1 -6.71208 6.4971 -10.8515 13
57 1 1.24599 8.61721 1.11929 23
58 1 -3.30605 -7.79046 12.9253 10
59 1 1.97706 -4.32691 -7.36775 13
60 1 7.65087 -7.85533 -7.12954 15
61 1 -1.78548 1.15945 7.20657 21
62 1 -9.17019 -7.28801 -0.991759 13
63 1 5.46553 -5.23739 4.1596 18
64 1 -8.21695 -8.89105 -3.35075 13
65 1 10.1197 -9.83766 0.201273 10
66 1 -4.99929 7.01785 3.98651 19
67 1 -3.57352 5.48385 1.81019 20
68 1 2.36675 5.48817 -7.16999 21
69 1 7.60744 -8.59821 -2.33009 18
70 1 -8.46195 -9.95421 0.0380806 11
71 1 12.4724 6.88008 7.86938 7
72 1 8.46175 5.5775 -0.923975 21
73 1 -5.976 13.025 -4.86321 11
74 1 -0.898327 -6.58578 -10.9931 9
75 1 -3.07355 6.35274 -6.88561 22
76 1 10.9668 1.28449 -3.76698 18
77 1 9.05744 2.68562 -10.2967 8
78 1 9.97995 -9.3534 3.4906 12
79 1 -6.70856 3.04329 -6.5659 17
80 1 4.81775 9.15243 -3.16138 21
81 1 13.4016 9.78504 -2.84097 7
82 1 -6.11641 9.87892 -1.93472 16
83 1 -3.81565 -4.2329 -12.5411 9
84 1 -12.4976 -1.89285 -4.29097 13
85 1 -2.47018 10.9274 8.19478 12
86 1 -3.68137 11.7959 -3.35536 14
87 1 4.63309 -4.22791 12.4768 14
88 1 -11.7932 -4.18086 6.15162 12
89 1 -3.09116 -10.7936 2.62953 19
90 1 0.676878 7.8221 -2.10334 19
91 1 11.0006 7.97806 -5.07045 9
92 1 1.56993 -10.9395 9.36782 16
93 1 -10.0363 3.19638 -1.58034 20
94 1 -2.29632 5.05759 10.1003 17
95 1 -5.57446 1.17632 -8.67294 17
96 1 -6.63607 -5.73115 6.87264 19
97 1 -5.09538 -9.75756 4.36872 16
98 1 -5.03328 -2.52246 -5.36351 20
99 1 4.85854 -6.81026 -1.13457 21
100 1 -2.03796 11.2281 4.96003 18
101 1 -6.80331 0.0583524 1.70304 20
102 1 -6.8588 -0.646573 -3.66308 18
103 1 -0.954799 -10.0697 4.53319 19
104 1 5.01201 2.45679 -3.23094 21
105 1 4.95243 1.33933 11.5424 17
106 1 -4.40576 3.79305 -11.5573 17
107 1 -6.07907 -4.7559 -6.67779 24
108 1 -8.65851 11.9458 -4.68006 9
109 1 6.85961 0.0987196 9.09095 21
110 1 -7.09134 9.62495 -5.57167 18
111 1 2.28533 4.22412 -10.7736 21
112 1 -7.13166 3.10733 8.26858 17
113 1 -7.28145 8.20641 9.59323 11
114 1 0.761531 -10.5414 -7.14167 14
115 1 0.933868 -10.9197 -1.14589 16
116 1 5.42554 8.59287 -9.04536 10
117 1 -2.01775 9.07744 -3.61935 19
118 1 -9.88134 0.163305 1.16742 20
119 1 3.34998 3.71412 12.4138 15
120 1 14.832 1.41968 0.381522 9
121 1 -0.0179731 7.71882 5.12466 16
122 1 -11.2264 7.21545 3.83781 12
123 1 -6.51864 -5.67758 -0.442839 19
124 1 3.45718 -2.16726 11.1369 19
125 1 3.48655 -7.77947 -4.17937 18
126 1 -1.14496 -1.93334 -11.7828 16
127 1 10.3656 1.66861 -6.9913 14
128 1 -13.3848 -0.103314 5.94249 9
129 1 -8.99082 -5.22678 -8.11035 14
130 1 -4.13516 -5.50157 1.96809 20
131 1 -2.0966 -7.64754 2.5965 21
132 1 -10.5512 -2.91029 -9.97909 11
133 1 -11.9786 0.0465873 -9.84558 10
134 1 9.18137 -0.632345 10.628 11
135 1 4.50736 -4.57933 9.48641 23
136 1 2.44337 -6.28957 4.15296 22
137 1 5.96938 9.2275 2.43421 14
138 1 -7.45925 -7.70955 4.27349 18
139 1 3.15493 11.3604 2.06127 15
140 1 -3.75559 -7.07058 -10.9072 8
141 1 -5.29964 -10.0153 -7.74311 12
142 1 -5.61921 -8.10046 1.53064 23
143 1 14.0062 4.29044 6.08711 9
144 1 -5.68611 -6.47966 -3.89987 19
145 1 -8.43176 -4.21822 12.5464 10
146 1 -2.07221 -9.98175 -1.25217 22
147 1 2.91502 1.84902 -5.97923 23
148 1 -1.35423 -12.9436 4.83373 13
149 1 3.45437 -5.87943 1.16811 20
150 1 1.7649 -13.4535 0.169301 14
151 1 -6.93576 3.50611 -12.6953 10
152 1 8.22052 5.51699 5.76445 16
153 1 -3.34153 0.551809 -11.8311 14
154 1 -3.17956 6.07732 -10.1556 18
155 1 -4.01302 -5.71167 7.36667 21
156 1 2.48222 9.54702 7.06147 14
157 1 9.78307 -0.568027 4.69044 19
158 1 -10.6204 1.58744 6.74949 14
159 1 -5.92684 -6.10739 11.9401 13
160 1 -6.56793 12.2839 6.13493 10
161 1 5.95649 -6.17148 -12.7414 10
162 1 4.65127 -12.6061 1.72547 13
163 1 9.29549 -3.06621 -9.44783 18
164 1 -3.39193 -3.84002 4.70218 21
165 1 1.47649 0.948195 7.44241 21
166 1 -9.69038 -0.912471 4.56398 18
167 1 9.32621 -10.0314 -4.79492 10
168 1 -3.04589 10.8506 2.01674 17
169 1 -6.16679 4.0705 4.96922 18
170 1 4.7943 -10.9059 8.05527 17
171 1 -4.2868 7.93162 9.55774 14
172 1 -8.22186 -2.46486 -5.13161 17
173 1 -0.150019 13.9923 4.8824 12
174 1 -5.43528 2.35387 -3.57101 20
175 1 -13.1618 5.30289 2.44686 10
176 1 -2.94643 -5.14926 -5.21111 17
177 1 -5.90056 8.38944 1.13079 19
178 1 7.07108 -2.99585 7.36357 18
179 1 6.18429 -8.73489 6.26764 20
180 1 -0.533175 -5.65744 12.5442 14
181 1 3.79703 -11.9439 -6.30613 11
182 1 -7.33111 -3.6799 -10.7849 15
183 1 -12.4524 0.932265 -1.25248 14
184 1 -3.98568 -7.3181 -0.836522 17
185 1 10.802 4.3513 -2.73529 21
186 1 -7.80025 0.880819 -13.6851 9
187 1 -8.20836 7.30017 5.17944 17
188 1 -5.19909 12.7988 2.52156 10
189 1 -6.08484 6.40046 7.08412 17
190 1 10.2768 -4.16131 -5.15518 14
191 1 12.9725 2.16607 -7.09686 8
192 1 2.41879 4.3021 7.13099 18
193 1 -5.05977 6.81947 -0.985185 18
194 1 0.999742 -9.10521 -3.59319 19
195 1 1.11171 10.3967 4.09268 18
196 1 5.56443 4.34184 -0.812949 18
197 1 -8.72232 2.74705 -4.72181 15
198 1 4.33942 -10.3653 -1.89633 19
199 1 11.4282 -2.66359 6.74824 12
200 1 -11.3538 -3.99796 -5.34146 12
201 1 -7.35072 -11.1454 3.40089 11
202 1 -3.08662 12.5005 -0.524485 12
203 1 -8.59083 6.28841 -1.39958 15
204 1 -1.312 -11.1247 -4.18878 22
205 1 3.23336 -9.08798 6.60667 22
206 1 -4.29444 -12.3961 -2.47876 18
207 1 -7.83904 4.15787 -9.59364 15
208 1 -4.39328 -12.2129 5.02546 11
209 1 -5.67933 -2.33318 11.6915 12
210 1 -8.55557 4.65234 3.63027 17
211 1 2.27571 -6.99556 -6.98852 19
212 1 -1.61032 -4.90476 7.48556 19
213 1 -12.8001 3.10028 4.31919 10
214 1 -1.91819 -7.1195 9.60377 20
215 1 -7.07179 -4.28737 9.4757 20
216 1 1.54988 -6.00588 -1.96895 17
217 1 6.94343 -11.2723 -0.0344553 18
218 1 0.589624 10.3874 -6.0906 14
219 1 -6.29097 -8.64426 7.14408 16
220 1 12.2656 -6.05809 7.63139 11
221 1 8.2867 1.34671 2.5552 17
222 1 -7.62729 1.15739 4.93807 18
223 1 5.28391 0.601971 -7.93737 15
224 1 10.1298 -8.45051 6.29848 13
225 1 -5.47245 4.93758 10.1718 14
226 1 2.27469 10.0454 -1.46568 19
227 1 4.61263 -5.99698 6.91428 20
228 1 -2.5852 -14.1965 -4.85722 10
229 1 4.24502 6.94773 12.0663 12
230 1 -10.0035 1.65256 10.1323 11
231 1 -4.5112 -9.648 -3.69151 20
232 1 -7.5762 -8.11829 -6.26352 15
233 1 -7.65766 9.57286 6.74951 15
234 1 -4.81173 -12.7472 -6.21734 10
235 1 -6.19846 -3.82 4.45357 21
236 1 9.9967 0.805979 7.67987 18
237 1 11.8914 5.83756 0.00218672 14
238 1 0.375305 3.30204 -8.6903 18
239 1 0.175253 6.03273 -9.02853 22
240 1 -1.43827 7.65303 11.463 11
241 1 -13.1778 -2.33572 0.187339 12
242 1 5.05399 9.49385 -5.76578 16
243 1 -6.78783 -7.26024 -9.41653 11
244 1 1.09072 -4.25659 -11.3558 14
245 1 10.5568 7.98689 -2.07493 19
246 1 3.92677 7.68191 -0.15259 22
247 1 5.92773 0.20559 -5.08655 16
248 1 2.51316 -9.73151 3.7168 16
249 1 -4.68082 1.43127 -13.9273 11
250 1 12.6 8.61962 0.551203 6
251 1 7.32067 -4.85389 1.96575 21
252 1 -0.259391 0.787321 -10.7392 21
253 1 1.06731 -8.9371 1.4394 18
254 1 3.88651 -10.319 11.1522 10
255 1 -9.72481 1.72935 -11.3594 12
256 1 1.77288 2.18331 -12.6552 13
257 1 -11.3722 -3.76197 2.93481 20
258 1 12.0351 -1.66607 -3.44906 11
259 1 -4.26812 8.1842 -4.67823 18
260 1 5.19765 -6.9042 -6.83554 17
261 1 4.36609 4.8288 -12.5039 11
262 1 11.935 -4.24775 -8.62022 8
263 1 -10.43 -4.4886 9.52984 10
264 1 1.75377 13.9921 2.94453 13
265 1 -0.88813 8.54918 -9.24506 11
266 1 13.4755 3.56356 -2.49594 12
267 1 -2.97515 -12.7567 -0.10845 14
268 1 3.94556 -4.52582 -9.32671 19
269 1 6.19311 6.06552 1.14883 21
270 1 10.7448 -3.46479 0.649443 20
271 1 4.21076 -9.338 0.681965 19
272 1 -8.0671 0.129777 7.61883 19
273 1 -4.14495 -7.43729 -6.39973 15
274 1 -0.731953 -3.69963 9.90468 19
275 1 4.91919 4.03575 -9.28313 21
276 1 -3.93774 10.8471 -6.15922 12
277 1 -0.175225 11.6364 -3.48583 13
278 1 -3.28276 2.15633 10.2422 18
279 1 2.5524 -12.3848 -3.19092 16
280 1 6.43942 -3.84512 -9.74257 15
281 1 -12.3758 -5.61053 0.619665 13
282 1 -6.55403 3.86359 -0.623301 16
283 1 -9.35069 -6.10954 6.98431 16
284 1 6.90247 8.16145 -0.776036 18
285 1 3.97093 -9.29651 -7.59471 15
286 1 6.43253 -6.31339 11.335 13
287 1 8.21263 2.84015 -4.9434 22
288 1 -9.12821 8.50738 1.94167 12
289 1 9.26405 -6.93741 -4.48941 17
290 1 1.29143 6.22384 13.2713 13
291 1 -0.67091 1.18722 -6.47372 22
292 1 7.43358 5.6913 -10.6984 11
293 1 -0.90256 -2.09941 -8.21834 17
294 1 -0.370663 -13.29 -2.48766 16
295 1 11.8274 3.17465 0.216184 16
296 1 9.91937 -5.59414 -7.90695 13
297 1 6.46758 -12.0501 -3.48804 12
298 1 6.96937 11.3383 -4.09465 9
299 1 -8.72593 2.81543 1.62826 21
300 1 12.9376 6.65599 -3.94686 12
301 1 1.83391 -4.89114 10.2994 19
302 1 5.89325 1.96218 4.24151 19
303 1 9.38348 2.36757 9.89062 14
304 1 -8.43763 0.461462 -7.22113 17
305 1 13.0792 5.63026 3.21636 9
306 1 10.2556 -6.04248 3.15936 20
307 1 -1.12576 -7.36606 -0.322495 14
308 1 1.51678 8.86681 10.3932 13
309 1 4.18951 1.83854 8.72072 17
310 1 -6.44594 12.6113 -1.65533 11
311 1 -1.79237 -12.1684 -7.73253 10
312 1 -5.30876 4.82147 -8.74022 20
313 1 -6.11177 -1.66809 -12.7315 12
314 1 -12.4026 2.80759 -3.87832 12
315 1 12.4519 -8.0354 2.99554 10
316 1 0.13241 -8.29755 7.72816 21
317 1 1.5961 -5.39582 7.26086 22
318 1 8.62004 5.66822 -4.40475 17
319 1 12.9774 -4.76113 1.86032 13
320 1 9.42548 6.53011 8.28368 12
321 1 14.3591 -5.30064 4.89503 10
322 1 -3.77596 3.82652 7.09149 21
323 1 -10.1925 -7.10191 2.07371 15
324 1 -12.128 -2.69353 -7.8297 10
325 1 8.60875 1.80316 12.6986 8
326 1 -1.75771 13.7092 1.8625 13
327 1 11.0378 3.89018 3.31208 17
328 1 6.18751 -3.77551 -0.861183 19
329 1 9.11157 2.56743 5.38198 18
330 1 -10.813 -1.42132 7.7466 16
331 1 7.96649 -0.749873 -11.6727 12
332 1 -0.771285 -8.42158 -6.36448 17
333 1 7.18712 3.06258 7.6941 20
334 1 4.64087 4.69877 4.53058 18
335 1 1.16809 -3.25835 12.9467 11
336 1 -1.3751 4.68435 13.1563 13
337 1 -7.35344 3.23607 11.976 8
338 1 -3.52831 2.93404 -5.85014 22
339 1 -0.696165 4.33641 -5.84188 20
340 1 8.24325 10.4546 -1.01783 10
341 1 -4.13451 -4.51605 10.039 20
342 1 3.14018 11.2345 -4.79174 12
343 1 -5.95812 -10.1321 -1.00969 16
344 1 7.96776 3.78692 1.53411 16
345 1 -2.21752 4.69096 4.5769 19
346 1 -7.06692 5.48224 1.36011 20
347 1 5.68056 6.14711 -3.5238 19
348 1 5.3305 5.65011 7.26226 17
349 1 6.29546 7.75355 9.70806 11
350 1 1.87976 -2.10822 -9.22618 16
351 1 -0.229372 4.43773 7.47261 20
352 1 4.70241 -2.65149 -3.1854 18
353 1 3.13579 7.65375 3.83858 17
354 1 -13.943 -2.56598 3.66456 8
355 1 4.78871 -13.3437 -1.54047 12
356 1 6.22825 6.50075 -7.00691 20
357 1 4.72984 -7.76371 3.31232 18
358 1 -1.67063 8.37533 2.81729 21
359 1 3.89923 -3.70071 -12.3976 18
360 1 10.3813 -5.15701 -11.7244 8
361 1 0.360287 11.9642 7.34059 13
362 1 3.67157 -7.93191 9.46541 22
363 1 2.75432 1.07741 -9.18034 21
364 1 -6.71908 -11.2599 -4.65685 11
365 1 -4.84547 1.04983 7.3607 21
366 1 11.6277 -3.1325 3.57975 15
367 1 -0.510598 7.91208 -5.81087 20
368 1 7.90385 3.5912 -7.77678 18
369 1 7.65046 2.7837 -2.11837 17
370 1 4.4356 6.40809 -10.0529 17
371 1 -3.47852 -0.736402 9.74366 16
372 1 -1.83971 -10.3897 10.5771 12
373 1 2.61602 -6.8606 -11.6707 13
374 1 -8.82925 11.0535 -2.26477 11
375 1 6.50924 7.76068 4.83485 13
376 1 -8.2333 -2.94479 6.46825 20
377 1 5.154 3.62781 -6.04762 21
378 1 -0.447343 -0.31404 9.73609 16
379 1 -11.3892 -4.60498 -2.07059 15
380 1 10.5845 0.154161 -0.574412 17
381 1 -5.86284 -3.98709 -2.99372 19
382 1 10.6623 -6.49308 0.26271 17
383 1 6.83579 -10.27 3.02672 16
384 1 -0.295274 8.6854 8.32841 17
385 1 -4.96161 4.37544 14.3752 4
386 1 7.30089 -0.228282 6.01782 20
387 1 10.9413 -7.95861 -2.55548 13
388 1 3.18968 5.4149 1.68277 21
389 1 2.74597 12.9921 5.40893 10
390 1 1.86917 -11.7592 5.94971 17
391 1 -8.85764 -2.6136 -2.57525 20
392 1 1.68337 0.785907 12.4538 12
393 1 5.1646 10.667 -0.0468841 13
394 1 7.43789 -6.11145 8.00169 20
395 1 14.3865 -8.20285 6.23319 5
396 1 6.94726 5.22514 10.3322 12
397 1 -3.57507 5.75213 -3.289 20
398 1 1.04571 -8.02884 -9.45821 15
399 1 -0.65043 1.13279 -13.5236 11
400 1 -6.30406 0.208631 10.323 17
401 1 13.6153 2.29545 3.67183 13
402 1 2.21221 8.72548 -7.91099 16
403 1 7.49106 -3.29406 -12.7525 12
404 1 -5.60184 -12.2787 1.09631 12
405 1 -6.97525 -2.18084 -8.11892 19
406 1 4.95245 -1.14092 -10.0599 18
407 1 -2.59746 -7.66562 -3.71913 19
408 1 3.04732 -7.07415 12.0695 14
409 1 -0.556538 -6.36709 5.11512 23
410 1 10.7489 4.80924 -6.61972 17
411 1 -9.21816 10.3135 4.36651 10
412 1 8.41233 -5.30355 -1.24867 21
413 1 -12.0323 2.98859 0.94625 17
414 1 10.2699 6.85437 4.6952 11
415 1 4.30191 4.65274 9.57225 21
416 1 -12.7994 0.30535 -6.73617 12
417 1 -3.15616 0.0762835 -8.27961 20
418 1 11.2614 -4.22855 -2.23066 14
419 1 -8.34477 -5.44673 -4.64302 15
420 1 -4.56175 -8.20117 10.2879 15
421 1 9.09548 -3.30014 4.26934 17
422 1 -10.3952 5.51791 0.814989 18
423 1 2.0554 7.59571 -10.9219 12
424 1 9.34532 -7.77732 9.55074 11
425 1 -8.58442 -1.85739 9.93096 17
426 1 -3.72781 -2.57047 -10.2796 17
427 1 -4.3311 -10.9573 8.12591 12
428 1 7.19407 -3.09914 9.9524 19
429 1 -0.524791 -11.0306 1.38851 19
430 1 10.9494 -0.994461 -7.96651 11
431 1 -5.09048 10.5565 3.8612 18
432 1 -4.3116 -2.63271 7.20398 18
433 1 0.598855 -13.118 -5.43886 14
434 1 8.48575 7.14446 2.26997 12
435 1 11.2463 0.470761 2.38481 14
436 1 -2.58299 -8.33056 6.29708 23
437 1 7.95841 8.31167 -3.89867 18
438 1 8.03322 0.488919 -8.55138 16
439 1 -12.065 6.60797 -4.15329 8
440 1 3.04399 4.91329 -4.4984 16
441 1 3.19844 7.33961 8.70093 16
442 1 2.39738 8.08399 -4.62145 22
443 1 -5.20463 10.723 8.88757 11
444 1 13.8312 0.469974 -2.14871 12
445 1 4.68637 -11.2298 4.56177 15
446 1 -5.37676 -0.796583 4.60933 19
447 1 11.8502 3.62232 7.55248 13
448 1 7.16817 -4.52915 -6.60796 18
449 1 0.140187 -5.57872 -4.52836 17
450 1 -6.94576 6.60312 -7.2605 17
451 1 -2.70783 6.86154 6.62426 20
452 1 -1.60905 7.68915 -0.10358 18
453 1 -4.28544 -7.06291 4.79193 22
454 1 7.50687 -8.08704 0.976708 22
455 1 1.76108 -1.32659 -13.2425 14
456 1 -9.66187 -4.56922 -0.0295702 19
457 1 -7.04236 5.93964 -4.23414 16
458 1 10.2203 -4.76285 8.87155 10
459 1 -9.03655 -4.82582 4.31534 19
460 1 13.5012 -2.01045 -0.244761 13
461 1 -0.632689 4.33895 -12.0326 15
462 2 -12.3905 -2.41522 -6.02294 9
463 2 -7.19309 12.9044 -3.50225 12
464 2 0.728709 -2.52385 -12.0426 13
465 2 -4.43958 7.46576 7.22522 21
466 2 -7.84283 -5.47488 -9.73547 13
467 2 3.68739 -0.0875244 12.373 15
468 2 -10.5464 -0.371157 2.89156 18
469 2 9.49371 2.81626 3.2831 19
470 2 1.08949 -3.88739 8.98896 20
471 2 -6.78522 -2.90928 -6.23939 21
472 2 -7.92343 -6.10714 -6.64207 16
473 2 -12.0455 2.76346 -1.73011 16
474 2 -2.26669 -7.03032 4.86164 24
475 2 4.2049 2.99265 10.6851 17
476 2 7.80465 -2.68582 -10.726 18
477 2 7.16389 -2.96372 1.68552 19
478 2 -7.33933 10.9866 -0.893715 12
479 2 13.0146 2.63274 6.42552 11
480 2 -10.3895 -5.18094 5.52449 14
481 2 -3.17256 -13.6837 4.52715 9
482 2 13.7267 -6.18317 6.52139 7
483 2 -7.51441 7.37966 1.35087 20
484 2 -7.52316 7.76331 -5.84598 14
485 2 -3.18731 10.648 6.45464 19
486 2 -3.55417 5.79351 3.84525 21
487 2 4.61422 -6.24014 -3.71869 16
488 2 -1.53155 -0.39368 -7.19689 19
489 2 1.7834 -4.1093 -9.37432 20
490 2 9.19896 -0.777028 -7.73861 15
491 2 0.0878596 -7.37318 1.47829 17
492 2 9.59052 7.41047 -4.13829 16
493 2 -4.79914 8.89698 4.53512 21
494 2 -3.10669 -10.8134 -8.31141 11
495 2 5.27386 -8.71308 10.3696 14
496 2 10.4414 -4.14524 2.46092 18
497 2 -12.5417 1.56523 -5.34733 11
498 2 6.73134 8.04986 1.20829 18
499 2 5.92019 -11.7911 2.8706 11
500 2 -1.18962 8.0225 6.7185 19
501 2 4.8834 8.16834 4.03522 13
502 2 2.17836 7.24785 -6.45002 18
503 2 -9.0899 2.04943 8.59413 13
504 2 4.59095 -2.96354 -10.2978 17
505 2 -10.5231 -0.0299085 -10.8049 12
506 2 -12.3944 5.08045 4.10658 12
507 2 -9.39714 -8.2566 0.685399 14
508 2 0.095242 -6.55648 6.90411 21
509 2 -0.663944 -3.45893 11.9973 14
510 2 -2.85448 6.88857 10.3531 16
511 2 -10.3265 1.98126 0.76241 20
512 2 6.07502 -5.73445 -5.638 18
513 2 12.5816 -0.0109467 -3.57359 14
514 2 -4.10952 -13.6275 1.25774 10
515 2 6.66662 -0.110048 -6.90421 15
516 2 0.873767 4.88435 5.99897 18
517 2 7.65575 -6.72621 -2.63413 21
518 2 6.13272 -4.46989 10.9297 16
519 2 -5.33584 -6.96201 6.3495 19
520 2 14.9888 1.97725 2.21588 9
521 2 -2.06435 -9.39382 3.05068 19
522 2 11.9623 -6.30415 2.13114 16
523 2 -5.35164 -7.33047 -10.2336 9
524 2 -8.45525 -6.5223 3.13 19
525 2 -2.74692 -6.90403 0.894403 20
526 2 -6.02396 -10.6338 -3.0595 14
527 2 -5.44166 10.7027 1.77233 18
528 2 1.43231 1.00315 -6.57334 18
529 2 11.5779 7.53733 -0.631231 14
530 2 3.1166 4.95682 -9.05113 22
531 2 -6.51855 3.82372 13.3677 5
532 2 -12.4595 4.86125 0.815137 13
533 2 -3.90898 3.89865 9.59121 18
534 2 -9.68192 5.86321 4.97881 13
535 2 -6.76554 4.00505 -4.95956 14
536 2 11.7048 3.35427 -7.04178 11
537 2 10.498 -8.08382 -0.754974 15
538 2 6.7663 2.37581 2.02823 15
539 2 1.2568 10.1949 2.11018 22
540 2 -6.7632 6.01978 4.49523 18
541 2 12.861 9.67753 -0.961606 6
542 2 2.17876 8.12835 -1.04685 21
543 2 0.0426274 9.03763 -7.46611 14
544 2 -1.80494 1.17378 9.19535 18
545 2 2.50656 -3.84918 11.7982 19
546 2 3.45548 -1.91032 -13.2895 12
547 2 -3.18511 4.31459 13.9676 6
548 2 5.76121 4.77121 -11.263 13
549 2 -7.61449 -5.49761 13.4378 6
550 2 3.76995 -8.16024 -5.96965 18
551 2 1.06434 -5.88663 -6.11509 17
552 2 6.6355 -12.5061 -1.50446 10
553 2 12.221 8.63459 -3.80289 9
554 2 -6.37242 2.18529 -14.1239 9
555 2 -0.385471 12.325 5.62552 16
556 2 -7.68072 -4.00592 -3.12586 21
557 2 3.23308 8.04404 -9.38748 14
558 2 -0.636293 9.76131 -4.80077 18
559 2 0.542451 4.50013 14.075 9
560 2 5.31096 -10.9289 -6.85819 11
561 2 5.3009 6.12479 10.8136 14
562 2 8.18308 -6.38557 0.797598 20
563 2 4.32334 2.91238 3.79136 17
564 2 -3.83626 4.31782 -9.64974 21
565 2 7.39132 -7.00162 9.74148 18
566 2 -0.945951 -9.47087 6.43902 19
567 2 9.49747 -10.1302 5.42872 12
568 2 -7.26807 11.5159 -6.06295 9
569 2 -4.22834 -13.3174 -4.21065 12
570 2 0.0705903 -0.867847 -9.59859 18
571 2 0.513794 -8.69142 -7.88191 15
572 2 7.88903 6.76201 9.51235 10
573 2 -10.9671 -6.01476 -0.988001 12
574 2 -10.7566 7.14749 2.01982 13
575 2 8.83419 -3.56542 8.57843 14
576 2 -1.43682 -13.0498 -1.10424 17
577 2 3.35257 -0.622146 -8.90348 18
578 2 -5.61417 -3.37704 -11.8987 12
579 2 -8.86925 -2.74152 -10.8535 13
580 2 -4.53467 0.613533 10.6726 14
581 2 -1.4797 -6.35078 -4.5723 17
582 2 3.68423 -5.12943 -7.04129 17
583 2 9.63878 1.66881 -5.1396 24
584 2 -6.80643 -3.39436 2.68251 22
585 2 1.26261 -2.34715 -7.20873 16
586 2 0.898522 4.49203 -4.42602 19
587 2 -0.830676 -9.29244 -4.42754 18
588 2 3.15716 6.08455 -11.7032 12
589 2 2.12378 9.23409 8.79363 12
590 2 12.2041 1.0023 4.03287 14
591 2 -13.5111 -1.18502 4.54717 11
592 2 -2.5489 -11.2932 4.63969 17
593 2 1.34801 1.6032 -10.5957 19
594 2 -2.05169 4.88435 6.72324 19
595 2 -5.89512 -6.10345 1.43048 19
596 2 -6.84857 1.91712 1.44906 24
597 2 -4.64788 7.01574 1.68968 18
598 2 -8.68122 -5.02206 8.57259 14
599 2 1.01446 -11.2013 7.4881 15
600 2 -12.8836 -2.14806 1.98154 13
601 2 -7.24345 -10.9921 1.11193 11
602 2 -7.49188 -4.52881 5.59834 19
603 2 10.5547 -6.66304 8.64156 11
604 2 2.97083 9.99615 -6.28211 16
605 2 8.05864 11.6299 -2.57104 8
606 2 11.4323 6.19138 -5.62142 12
607 2 0.85464 11.3266 -1.22243 16
608 2 -10.3291 -3.75614 -8.28332 13
609 2 -10.0232 0.0658426 -0.970094 20
610 2 -0.93177 -13.3882 -4.39085 15
611 2 4.84024 -7.81386 7.46451 20
612 2 10.317 -7.61584 4.59162 13
613 2 -8.5035 10.1751 -3.92388 15
614 2 11.5261 1.2844 0.612259 19
615 2 5.09922 -2.37678 12.594 15
616 2 -2.50683 -3.41602 -5.90395 17
617 2 3.1322 5.65538 3.56298 21
618 2 1.77526 8.82731 5.22451 16
619 2 0.956855 -0.725585 8.38093 19
620 2 -8.07173 3.04678 4.51631 18
621 2 7.08312 6.66954 -5.29316 16
622 2 -6.02522 -8.26205 -7.54127 16
623 2 -8.67172 -0.748083 -4.30391 20
624 2 -9.57832 -3.67687 11.0194 11
625 2 5.49832 9.19444 -1.29677 22
626 2 12.2406 4.46859 1.7005 14
627 2 11.0737 -9.14644 1.82747 10
628 2 -9.92577 -3.41113 1.7222 21
629 2 -3.36661 11.2539 3.82547 17
630 2 -2.46894 7.56392 -5.28815 20
631 2 4.44698 2.02223 -9.54578 17
632 2 -5.47005 4.49653 0.969724 22
633 2 3.02969 -5.22311 5.85206 24
634 2 -10.9913 -3.22275 8.30991 13
635 2 4.48008 -8.65044 -1.27006 19
636 2 1.55128 -12.8358 -1.59517 15
637 2 -8.36815 10.2031 2.63784 13
638 2 0.549984 -5.56516 3.74731 20
639 2 -12.3677 4.89603 -3.3937 9
640 2 2.89026 -8.76886 1.9034 17
641 2 2.59668 5.42363 9.18402 22
642 2 0.995109 0.326888 -13.7198 10
643 2 -4.8739 6.99311 -10.0859 13
644 2 8.18563 4.31144 -9.61643 13
645 2 -1.94776 11.9529 -2.50446 13
646 2 -6.96437 -1.22537 11.0362 14
647 2 -4.32239 -6.26023 10.8068 16
648 2 -4.62932 -5.21658 3.89793 22
649 2 -12.7517 -0.742539 -0.805365 13
650 2 -3.09048 -4.22221 6.6771 21
651 2 0.336705 4.60051 -10.2941 19
652 2 7.70693 -1.26037 -4.39762 16
653 2 4.04453 -2.66406 9.02949 22
654 2 -5.10876 -0.835797 -4.32396 22
655 2 5.04594 -0.133359 -11.6997 16
656 2 8.25773 5.61459 1.00885 16
657 2 5.04267 7.27456 8.38512 16
658 2 7.13845 -3.96389 -2.54947 15
659 2 -8.16919 -5.57545 -0.119079 21
660 2 -4.39713 12.2965 -5.20653 10
661 2 -0.428233 4.1805 9.40788 19
662 2 0.680406 -12.5578 1.27529 16
663 2 -2.66828 -11.1068 8.90476 12
664 2 6.30821 -1.24758 7.50264 19
665 2 6.06975 4.62567 -7.7412 19
666 2 3.38973 11.2042 -0.361763 14
667 2 3.98503 -11.0848 6.31896 16
668 2 7.22666 -10.5034 -4.21679 12
669 2 0.127854 2.73009 -12.8795 11
670 2 4.80802 -3.37133 4.17971 21
671 2 2.27153 2.4777 13.4067 10
672 2 2.58513 2.50525 8.21827 18
673 2 6.06466 -6.67178 5.21609 19
674 2 -1.57538 -0.0651302 -12.0561 16
675 2 11.4636 -2.51095 -9.1872 11
676 2 -3.51217 13.0468 1.68115 12
677 2 6.08894 -8.46191 -8.23558 13
678 2 0.765361 1.15179 10.8929 14
679 2 -6.63774 4.50602 -11.2104 14
680 2 10.6946 -5.92296 -2.97449 14
681 2 2.23803 12.159 3.67356 15
682 2 11.0431 5.64399 3.92058 13
683 2 13.6962 4.1345 4.32136 13
684 2 -10.1556 2.2696 -3.36464 16
685 2 -6.78659 5.89899 -1.07493 18
686 2 -9.19267 1.98231 -6.61588 17
687 2 10.6378 4.51005 -0.764112 17
688 2 -10.9918 8.01996 -4.03393 9
689 2 -2.99723 -7.2923 7.87229 23
690 2 5.1379 -0.1112 10.2439 17
691 2 2.32867 -12.4158 -5.10977 15
692 2 2.61946 -5.07121 -12.399 13
693 2 2.80573 9.74353 -3.27662 20
694 2 4.69852 10.6286 1.67734 13
695 2 -4.26462 -5.48815 -7.04194 18
696 2 -7.7993 -9.59408 -4.9638 13
697 2 9.48972 -0.389473 2.7542 22
698 2 -5.56283 8.70956 -0.837569 15
699 2 3.07709 -11.6685 3.4426 18
700 2 8.2056 -5.2527 3.68881 16
701 2 -5.78687 -4.86944 8.30248 21
702 2 -5.15071 -4.56012 -4.79534 21
703 2 3.14614 5.60724 12.8084 13
704 2 0.725072 7.27944 -3.9598 19
705 2 -9.89762 8.47732 4.3548 13
706 2 4.88287 4.45985 1.24587 19
707 2 -5.08886 -7.393 13.6098 8
708 2 1.9971 13.393 1.20177 12
709 2 2.21381 -10.4946 -2.41253 19
710 2 -0.37111 -7.89364 9.55432 22
711 2 9.66786 1.05191 11.3438 9
712 2 -9.05507 4.67404 1.70878 22
713 2 -5.18978 6.63538 -3.95246 19
714 2 -1.76222 3.53007 11.2861 13
715 2 -2.6832 -7.994 -7.3167 15
716 2 12.7426 -2.77108 -1.87379 13
717 2 8.94764 -6.70208 -6.35719 17
718 2 -4.59479 12.3693 -1.7238 14
719 2 -6.79266 3.43915 10.2667 13
720 2 -6.88921 1.21658 -3.57552 20
721 2 10.4088 -2.99581 -3.70308 16
722 2 4.99236 6.2451 -0.826348 20
723 2 -3.28845 2.06118 6.39837 21
724 2 2.40683 -1.98334 6.07309 19
725 2 -2.49991 5.03116 -11.7712 11
726 2 -11.8494 1.20519 -8.38472 11
727 2 -5.36376 -3.14842 -8.78039 14
728 2 0.458717 4.81933 -7.49224 20
729 2 -7.95404 -0.595295 -8.88032 15
730 2 5.60283 -5.67915 -9.37691 18
731 2 -2.47996 -8.08074 -1.8607 16
732 2 -0.212723 -10.6048 9.95413 14
733 2 -3.79441 1.75945 -7.26563 18
734 2 5.75611 -0.426904 4.9747 19
735 2 10.6013 -5.20708 -9.79252 9
736 2 0.476117 -12.2415 4.98408 15
737 2 10.8784 7.33316 8.84631 5
738 2 -6.04043 10.6345 7.13506 15
739 2 -11.2944 -5.52745 2.28546 15
740 2 11.7877 2.96812 -3.44911 18
741 2 2.68234 -8.35041 4.85591 24
742 2 -5.87489 12.3955 4.34764 14
743 2 6.72406 1.47593 -3.80428 17
744 2 3.98794 4.46535 6.3749 19
745 2 -11.5059 3.12968 5.78928 12
746 2 0.440941 7.52421 -10.0504 14
747 2 -6.91778 -0.450906 -1.7666 20
748 2 7.11391 -1.26297 -13.3065 10
749 2 -6.08435 0.42101 5.89795 19
750 2 -1.5642 -1.54272 10.5318 14
751 2 11.5475 -0.567188 6.96781 11
752 2 8.36839 0.844422 -10.6849 10
753 2 -9.55495 -3.76882 -5.08335 18
754 2 -0.26656 -9.41897 -0.0441539 19
755 2 11.9757 0.602628 -7.41647 10
756 2 -0.412827 7.549 1.31498 21
757 2 0.823574 -6.75538 -10.9432 11
758 2 -9.26561 0.306632 6.00721 17
759 2 -7.422 -0.354417 3.76831 21
760 2 4.65281 -12.0938 -3.04917 15
761 2 -0.251096 -11.898 -7.01575 13
762 2 -2.44082 -10.9301 0.698677 21
763 2 14.2749 -0.388289 -0.370431 10
764 2 -4.9829 6.60399 -7.4327 18
765 2 6.16544 6.10333 5.66267 14
766 2 -3.07787 -13.2756 -6.53534 10
767 2 3.52766 0.290757 7.43995 18
768 2 -3.70199 9.71923 8.92563 16
769 2 -1.84236 4.66148 -4.34879 21
770 2 -7.40036 5.99907 -9.03872 13
771 2 3.08699 -7.72136 -8.9552 18
772 2 -4.72608 -10.5842 6.14177 17
773 2 -10.7125 10.9423 -2.26404 7
774 2 5.70692 8.53219 -7.19728 15
775 2 -2.51933 4.56948 -6.82623 20
776 2 4.95428 4.3684 -4.13829 22
777 2 -2.66155 -5.956 -12.1729 8
778 2 1.70454 -7.18661 -3.58578 17
779 2 -11.5496 -0.703753 -3.30759 17
780 2 6.22083 4.49649 8.85272 18
781 2 -4.6374 -0.329895 -12.8413 14
782 2 -9.46164 -2.8271 4.82913 20
783 2 8.68851 0.528653 9.12046 16
784 2 6.24408 1.60791 8.19999 20
785 2 8.74273 4.49563 -6.26856 16
786 2 -2.33236 7.12365 -8.69578 17
787 2 -0.78396 9.0562 -1.58355 18
788 2 13.0438 -4.18087 3.95368 12
789 2 -4.03996 -1.3741 -6.7558 22
790 2 6.48658 9.32455 -4.21181 19
791 2 1.83027 -2.00991 14.3486 8
792 2 -2.56424 -2.63072 -8.74618 14
793 2 6.79972 1.29574 12.5562 12
794 2 -0.918461 9.98268 3.77748 18
795 2 7.76722 -9.26615 -0.592797 19
796 2 11.2162 -4.34882 -6.82053 12
797 2 -0.650638 10.6563 8.1034 13
798 2 8.94769 -9.21725 8.33732 11
799 2 -3.7996 10.0377 -4.1381 15
800 2 -0.129988 7.55743 9.94959 16
801 2 -8.48047 6.78427 -3.31868 13
802 2 1.12313 11.8242 -4.78598 11
803 2 -7.66876 -7.10487 -4.45645 16
804 2 5.89777 -4.30344 -12.7429 14
805 2 -5.67184 4.21999 6.94326 19
806 2 12.6205 -3.33692 0.976096 13
807 2 -4.85111 9.1871 -6.26612 14
808 2 -10.2135 -0.377593 9.40365 12
809 2 -5.89119 -11.3 -6.46561 11
810 2 2.90737 7.83683 11.0382 13
811 2 -1.88616 -7.95898 -10.4557 10
812 2 -8.03149 2.08465 -12.2521 11
813 2 3.21777 3.92315 -6.41938 20
814 2 -3.86532 2.43989 -12.5318 13
815 2 -8.15079 11.1743 5.75691 10
816 2 -7.5498 7.83834 7.16289 14
817 2 4.99941 11.1947 -4.41623 11
818 2 -4.79092 -11.8995 -0.700843 16
819 2 9.14604 2.00301 -8.47389 15
820 2 7.82718 -3.92877 -8.36782 15
821 2 -7.10494 -9.53568 4.25283 14
822 2 -8.35588 2.84123 -0.53662 23
823 2 -7.86939 -7.38343 6.79018 13
824 2 -1.08955 2.62362 -7.67214 18
825 2 2.23305 -9.00616 8.33525 22
826 2 10.4762 2.665 8.16719 13
827 2 5.83858 -4.7793 8.04295 18
828 2 -4.08776 -0.816328 7.73463 19
829 2 6.26236 7.02515 -9.58322 12
830 2 -0.639833 6.3878 12.4872 13
831 2 -4.52369 -7.91352 -4.42019 20
832 2 -8.17128 -9.10564 -1.5352 12
833 2 -5.67348 -8.97786 8.90476 12
834 2 -7.83093 -1.90988 8.09031 20
835 2 -6.51884 3.53926 -8.27185 19
836 2 -11.8966 -3.64747 -3.59167 11
837 2 -0.375979 13.9153 2.90215 11
838 2 7.98691 -7.54019 6.62438 19
839 2 13.0133 5.17411 7.41901 9
840 2 -5.29044 -11.2816 3.00981 17
841 2 -12.9076 -3.74863 4.65237 10
842 2 -12.5007 1.97535 2.61001 12
843 2 -4.05403 -2.78311 11.2074 17
844 2 1.08106 -6.39175 11.7811 16
845 2 0.90761 -10.3417 2.82395 15
846 2 9.15002 0.754451 5.98603 22
847 2 -0.472383 -11.3361 -2.53067 20
848 2 -2.19037 9.23491 0.960997 17
849 2 -6.57576 1.05748 -6.8937 19
850 2 -4.88795 -2.63007 5.3269 19
851 2 2.87983 -6.00297 9.11521 22
852 2 -1.89565 -6.86356 12.3328 14
853 2 7.60696 3.58639 -0.495473 18
854 2 4.68625 -6.16399 12.1457 14
855 2 4.77979 1.78599 -6.38262 20
856 2 8.24704 3.82206 6.57349 17
857 2 9.07582 -4.29519 -12.614 10
858 2 -3.23816 6.30964 -1.57952 20
859 2 7.61818 -2.47268 5.47346 17
860 2 3.32383 -3.55318 -4.21991 20
861 2 -5.24089 -5.88017 -1.94958 16
862 2 13.0526 5.45083 -2.52574 12
863 2 8.43152 -3.46977 -5.61684 16
864 2 2.22444 11.5253 6.6589 11
865 2 10.543 -2.59554 5.04531 13
866 2 -3.03535 -9.04627 11.188 13
867 2 2.66335 -8.85186 11.3469 13
868 2 -6.59938 -4.32539 11.5293 14
869 2 3.79346 -13.6957 0.122931 13
870 2 5.56985 -8.19863 1.57642 20
871 2 14.2051 -7.22647 4.43272 9