ITEM: TIMESTEP
4000
ITEM: NUMBER OF ATOMS
2000
ITEM: BOX BOUNDS pp pp pp
-30.0 30.0
-30.0 30.0
-30.0 30.0
ITEM: ATOMS id type x y z Coordination
1 1 -8.30917 5.39002 -13.2413 13
2 1 -4.46262 -10.2328 -9.78906 19
3 1 4.22258 16.5766 8.79848 15
4 1 8.0257 -12.5965 2.56156 16
5 1 -9.99617 8.61012 -1.84236 20
6 1 7.89068 -10.8596 -13.7635 12
7 1 -13.8602 3.77944 -7.55031 12
8 1 -1.46124 -6.11242 9.05819 18
9 1 -6.11804 2.57492 -12.1294 20
10 1 -12.7825 -9.01582 4.7006 12
11 1 14.8434 5.04041 -9.52998 10
12 1 0.0566307 -11.2499 1.61532 19
13 1 -10.9005 -8.36706 0.279077 22
14 1 2.92709 6.17564 15.1366 16
15 1 2.00212 11.9618 -11.2809 20
16 1 2.54886 0.238461 12.3094 18
17 1 -8.26846 2.94566 -15.4554 14
18 1 -12.205 -2.18261 8.69246 17
19 1 13.5795 5.83525 7.39025 19
20 1 3.63169 9.41418 -12.5022 15
21 1 3.69237 2.9291 -16.9757 17
22 1 14.7858 0.122212 10.686 11
23 1 -11.6305 5.68326 -12.6247 8
24 1 -10.4938 10.1471 10.6056 14
25 1 9.08295 -14.5112 0.145869 14
26 1 1.91825 -12.6694 -11.4422 15
27 1 7.64941 -11.4368 -0.274989 21
28 1 -8.62724 -12.5076 -7.57198 13
29 1 -12.1337 -5.57443 8.95642 15
30 1 2.51257 -5.70424 -12.3293 19
31 1 6.53134 -11.2389 -16.1633 10
32 1 -1.06902 4.31652 -17.0876 20
33 1 -0.164392 2.89805 17.9208 10
34 1 1.63145 -12.5228 3.99088 16
35 1 3.95065 -2.21814 13.0375 22
36 1 -13.249 -0.623073 0.768319 18
37 1 -16.0341 -0.795518 6.14775 16
38 1 -3.43265 12.1003 -3.89093 20
39 1 0.955344 -15.6418 -10.3913 13
40 1 5.23634 -7.24673 -14.0136 16
41 1 -1.37676 -3.98629 11.3178 15
42 1 -11.5137 3.63135 0.00700456 17
43 1 4.77762 13.6974 -14.5992 13
44 1 -0.227955 15.0745 4.30797 18
45 1 -9.91948 8.30977 -7.13298 20
46 1 -0.644435 15.0055 -0.576461 19
47 1 2.21055 -13.787 0.262844 22
48 1 9.93407 -5.80652 -8.69375 20
49 1 4.91455 -6.72893 -17.0434 14
50 1 -8.59024 8.49539 12.6786 12
51 1 -12.5645 -2.91912 -10.3453 13
52 1 -6.63959 8.36386 -7.22661 23
53 1 -8.5428 -7.79507 6.12734 20
54 1 -1.13071 16.9844 9.36881 10
55 1 -13.1843 7.49748 -6.97113 11
56 1 -5.78312 6.87777 14.1313 15
57 1 -4.22625 -10.6322 6.5801 20
58 1 9.45336 -15.561 -6.25569 10
59 1 5.40491 14.1952 12.3978 12
60 1 -13.7206 2.36101 -10.7262 10
61 1 -9.49565 14.6106 -4.76954 9
62 1 6.7514 8.16134 9.81314 19
63 1 13.2454 -1.9523 -9.79421 16
64 1 10.9734 -11.1956 1.1096 12
65 1 -17.673 -3.03024 5.40273 11
66 1 8.83935 16.9523 4.46045 17
67 1 5.60531 0.398563 12.0039 20
68 1 -3.93782 -12.4404 4.07075 16
69 1 15.2513 3.85354 1.44112 14
70 1 -3.15062 14.4902 9.53439 15
71 1 -3.57589 -4.58257 -10.33 19
72 1 -14.7964 8.00241 7.467 11
73 1 -8.04471 11.3836 -1.61958 19
74 1 -1.52593 9.16569 -9.3663 20
75 1 10.9577 11.8122 -8.50829 19
76 1 5.88495 -7.18837 9.55204 13
77 1 -3.51508 15.7271 -6.32179 11
78 1 -9.83171 12.6671 7.17042 8
79 1 -8.20883 -4.82299 12.1102 15
80 1 -4.66536 11.1867 3.76077 19
81 1 -5.24041 -6.2423 9.10489 19
82 1 13.9013 -9.37836 -4.74217 14
83 1 -10.5034 1.68913 3.37582 17
84 1 -8.42063 -13.9013 0.988311 16
85 1 11.2784 -7.03314 -6.36792 20
86 1 6.71805 0.835888 -9.6984 17
87 1 -2.54965 1.10287 -17.7589 17
88 1 0.443146 12.9929 1.13333 19
89 1 -6.53823 6.62935 -9.41075 21
90 1 4.69763 10.9959 17.8729 7
91 1 3.20936 18.1323 -10.1916 10
92 1 -12.6597 11.2192 1.20713 13
93 1 -2.82012 -7.26368 12.2276 13
94 1 13.0573 0.835709 8.65375 18
95 1 7.80525 -7.18359 -10.1199 19
96 1 6.84082 -2.18688 16.2987 7
97 1 -7.49159 -6.75822 -1.47696 23
98 1 -7.91309 -8.91023 -4.77557 22
99 1 13.6836 -6.10871 0.778791 11
100 1 5.20461 5.23938 -18.1007 10
101 1 6.35077 18.2875 -3.82905 11
102 1 -8.63534 -12.3611 10.704 12
103 1 -10.5843 -13.653 8.15655 11
104 1 4.2596 -9.24607 -15.9894 14
105 1 13.1082 -10.8268 -2.13125 11
106 1 -0.0958942 -15.4215 4.35602 11
107 1 -5.92056 -9.75909 -1.96286 20
108 1 16.5621 4.89867 7.3225 10
109 1 15.2183 -4.54438 -7.70504 13
110 1 -15.3965 -3.97762 3.94372 16
111 1 10.3209 12.3792 2.50474 16
112 1 16.975 13.034 1.94384 6
113 1 -6.35002 3.80284 15.5474 14
114 1 -5.20294 9.42003 12.4448 14
115 1 -5.15999 11.1817 -6.87113 21
116 1 1.37534 -9.43902 -11.901 20
117 1 7.14646 -15.6581 -14.0298 6
118 1 2.24608 14.7192 -13.4422 13
119 1 12.5605 -2.49344 9.15349 15
120 1 3.26594 1.6546 -19.8166 11
121 1 -1.53363 11.0165 -6.36342 18
122 1 11.0097 2.93004 -7.08434 21
123 1 -9.63064 11.5197 -3.61069 21
124 1 -8.09915 14.2863 -1.7301 18
125 1 8.18694 2.80682 -11.4991 17
126 1 8.78632 -9.29594 2.37629 18
127 1 -8.87732 13.5047 9.17306 11
128 1 14.5283 7.92025 -6.98634 14
129 1 5.38126 15.0875 -3.62459 17
130 1 -3.1243 16.7898 0.361739 15
131 1 7.24429 11.3781 -2.48553 18
132 1 -0.04855 12.5611 -8.87806 19
133 1 6.54399 20.284 -8.65143 6
134 1 5.1439 10.4031 -15.0348 12
135 1 -12.7623 -9.86784 1.96364 13
136 1 -12.1286 8.64373 -0.143 15
137 1 -5.20767 -0.965889 -11.4967 20
138 1 -1.40317 -9.36797 -14.2432 14
139 1 10.1058 14.241 4.78585 21
140 1 -2.39828 17.1391 3.66647 12
141 1 -11.4927 -3.05404 -3.96935 15
142 1 -9.48293 12.2445 2.04383 11
143 1 14.9887 -3.06609 -4.98722 15
144 1 -4.68548 2.47274 -17.1576 20
145 1 5.13872 4.35116 15.3923 15
146 1 5.06925 17.7991 -1.42102 15
147 1 -2.18143 9.56819 5.84652 18
148 1 1.64637 -6.49776 -17.4089 15
149 1 -3.03997 16.0773 6.66422 13
150 1 1.9039 11.4959 -6.9165 18
151 1 2.91696 -6.40508 10.228 14
152 1 -12.7412 -4.15281 2.93995 19
153 1 -1.4327 -11.8937 -12.9915 12
154 1 -6.66726 12.1871 -9.78911 11
155 1 -2.89198 -9.32848 3.95693 22
156 1 3.16998 -16.5586 -7.49875 12
157 1 -2.97585 12.0072 -13.723 10
158 1 -16.3302 2.14029 6.27902 14
159 1 12.4294 9.04902 -4.8031 17
160 1 -9.62594 2.91531 10.6244 18
161 1 -0.256104 -9.47422 10.1171 15
162 1 1.97956 17.182 3.51286 15
163 1 -0.0317754 8.23344 10.1714 21
164 1 13.0152 5.23332 12.1947 13
165 1 -7.06925 12.0215 0.768072 21
166 1 12.8234 -4.93682 -9.70923 15
167 1 -6.88223 14.7431 10.9832 6
168 1 14.5262 -3.37467 1.2235 16
169 1 -18.1995 -0.510658 4.03263 10
170 1 -6.30822 -9.59849 3.60073 20
171 1 5.33368 9.16675 12.0579 18
172 1 -13.0162 0.140563 -4.36193 13
173 1 -0.630905 -12.4967 -1.53896 20
174 1 -1.41502 11.9185 3.18272 20
175 1 6.48894 15.8416 9.85159 15
176 1 -4.93799 9.75345 -9.68578 22
177 1 -13.0023 -3.99525 -7.79231 12
178 1 -9.40704 -3.62787 9.96243 21
179 1 0.198733 -9.27022 4.23012 20
180 1 6.06617 -15.0457 3.58346 10
181 1 -11.783 12.5592 4.27485 8
182 1 15.6803 -4.41546 3.76726 9
183 1 -5.5707 -4.37714 -15.6859 15
184 1 3.12557 2.46428 9.57916 21
185 1 7.12656 -14.8203 -2.28903 18
186 1 -1.03767 5.89909 -12.2802 19
187 1 1.29122 -11.5633 -14.311 12
188 1 8.61275 2.95955 -14.8636 17
189 1 2.434 7.84037 -14.4553 17
190 1 -5.27135 -2.00892 -8.83918 19
191 1 -1.60271 15.63 -8.24228 11
192 1 -10.1627 -10.2678 8.64819 15
193 1 9.18926 16.2703 -4.33335 10
194 1 -2.96457 2.40071 16.3676 15
195 1 -5.64224 16.0976 -3.51751 12
196 1 8.45385 3.23635 6.53285 19
197 1 -0.160807 -6.59658 -12.3493 18
198 1 -1.58178 11.9415 -11.3541 17
199 1 3.83071 6.81612 -9.26946 16
200 1 -7.15678 -10.862 5.87289 15
201 1 -8.70301 3.51853 6.2541 19
202 1 -6.02878 3.65094 12.3283 16
203 1 2.85934 -10.367 -9.39308 19
204 1 -5.57902 -14.2331 1.42452 17
205 1 12.0593 -12.4929 -5.20316 11
206 1 11.5356 8.4326 12.8851 11
207 1 8.09127 11.4687 -11.1346 19
208 1 1.51065 10.9545 -1.16281 20
209 1 -12.2569 11.0617 -2.09719 11
210 1 1.48715 5.76898 9.65961 22
211 1 6.99555 -16.8566 -4.61235 11
212 1 11.8573 0.50023 -2.15187 19
213 1 -12.032 4.63606 2.87817 21
214 1 -9.36508 -5.96196 -4.43284 22
215 1 7.69151 5.58727 -12.1264 18
216 1 4.82711 -3.79082 10.1461 21
217 1 10.502 12.1143 -12.7028 12
218 1 -2.34688 -0.32826 -12.2506 18
219 1 0.721803 -16.4336 1.10375 16
220 1 10.208 1.08784 -9.63715 18
221 1 -9.82764 -3.96468 3.87709 23
222 1 5.92004 -11.7648 -7.51488 18
223 1 -8.34164 -2.92795 -9.47051 20
224 1 10.0974 14.2176 -9.9634 12
225 1 5.46706 -2.91185 -14.5401 18
226 1 5.57031 7.97905 15.3085 20
227 1 15.0147 1.58589 -2.03063 14
228 1 10.2839 -3.91988 -11.0057 18
229 1 -7.53056 -0.213172 -13.7844 22
230 1 -11.4411 4.25991 -10.0834 18
231 1 -7.86627 -14.901 9.58032 10
232 1 10.2536 0.329785 6.75607 18
233 1 -2.82212 -5.78549 -13.9717 18
234 1 -0.163363 6.89551 -15.1826 17
235 1 3.3248 12.5308 1.43171 20
236 1 -6.79317 -3.47167 9.17314 20
237 1 -9.84715 -8.62776 -10.8197 12
238 1 -6.70174 -3.55374 -12.2192 19
239 1 -1.40799 9.59474 -15.4251 12
240 1 -7.75269 -9.45148 -8.43183 21
241 1 8.7321 -4.50473 -14.8699 18
242 1 15.6917 -1.40141 -9.7897 9
243 1 11.6292 5.02952 4.35982 19
244 1 -9.01469 -6.48138 9.50461 24
245 1 5.88369e-04 -10.5975 -3.99956 20
246 1 8.78392 7.59171 15.5442 17
247 1 -6.22604 -15.1974 3.9856 16
248 1 2.1979 -11.9572 -2.36457 19
249 1 -1.01261 17.8284 -1.69241 11
250 1 8.10222 5.10125 -17.9794 8
251 1 -5.30222 -1.9621 -14.5003 16
252 1 -12.0985 -8.58207 10.9339 10
253 1 3.48906 7.78806 18.9237 7
254 1 4.93389 -11.823 -2.27319 19
255 1 -1.99125 -13.4944 -10.8418 11
256 1 -11.296 8.15146 -9.65694 10
257 1 10.3683 5.9827 7.0593 19
258 1 -4.90051 3.96557 -9.2787 22
259 1 0.289025 9.18485 -12.0652 22
260 1 7.9199 -14.9986 -11.1114 10
261 1 -2.54085 15.2159 -3.11927 17
262 1 1.8912 11.3199 4.17926 17
263 1 9.8494 2.33527 3.72923 19
264 1 -11.093 -1.18048 2.40751 21
265 1 1.73779 -3.30561 10.3092 19
266 1 -8.62692 9.11991 5.79259 15
267 1 3.62341 -2.82548 -12.1098 20
268 1 16.8369 7.80164 -1.34379 11
269 1 3.35634 -11.147 1.02203 21
270 1 -3.27597 -0.0620767 14.1032 16
271 1 -16.5654 -5.80416 6.01975 7
272 1 1.40783 -18.5635 -4.96507 11
273 1 -8.0367 5.32919 12.3029 15
274 1 -10.0189 6.39442 10.7189 15
275 1 -15.2308 -3.30123 7.7176 15
276 1 -13.0186 -6.08617 5.68069 16
277 1 16.8326 -2.61143 -1.59322 8
278 1 -11.146 -8.26901 7.25231 17
279 1 9.78636 -2.9242 -7.54664 19
280 1 11.6062 -10.4351 -8.32183 12
281 1 3.46778 17.7075 -3.96991 13
282 1 -6.70935 12.1561 -4.3101 19
283 1 11.3887 8.87095 8.1117 19
284 1 8.91437 -7.40128 -3.806 21
285 1 -10.6652 7.98349 3.4292 19
286 1 6.09638 -9.44459 7.56696 11
287 1 13.6563 -2.81338 4.37871 18
288 1 -0.994412 -2.20358 15.651 10
289 1 -2.79248 12.6304 6.7859 19
290 1 10.2739 10.2579 14.5997 12
291 1 -6.267 14.6053 -6.13338 11
292 1 -4.69267 -7.76438 -15.7169 11
293 1 3.03598 -12.0811 -17.3489 5
294 1 -8.46734 -0.638403 9.80134 17
295 1 -17.5234 2.34441 3.63489 10
296 1 -5.02458 10.9618 -1.46522 20
297 1 11.4274 -2.13871 6.25567 22
298 1 -9.15567 -9.56575 3.624 21
299 1 5.99227 -5.09457 7.31955 18
300 1 -8.95231 -9.25488 11.7026 16
301 1 -15.002 4.05448 3.06699 16
302 1 3.14628 -12.7944 -8.03007 15
303 1 -6.85399 0.594112 -9.7222 22
304 1 7.17915 -1.01755 -14.7402 16
305 1 1.97668 15.1565 6.79474 22
306 1 -9.58364 0.486494 -5.15634 17
307 1 4.55411 -9.8318 -12.4725 15
308 1 10.0876 5.99944 -14.5627 13
309 1 -3.13859 -16.9195 -6.10236 13
310 1 -11.954 -5.71147 -5.30732 15
311 1 11.7754 7.05824 15.003 13
312 1 11.8643 4.06583 -3.95582 20
313 1 -7.71996 3.70004 -9.85957 21
314 1 4.55339 16.3333 1.03105 20
315 1 -16.1623 -0.595928 -5.99144 9
316 1 -8.65474 5.458 3.9591 20
317 1 -8.56954 9.16338 0.72716 20
318 1 -5.1915 5.26323 8.72275 18
319 1 8.179 4.41872 15.2841 14
320 1 11.582 -1.3283 -4.52519 21
321 1 9.93068 -3.08442 11.9384 13
322 1 12.5687 0.338425 -11.2692 17
323 1 -6.3202 -15.2353 -7.01619 11
324 1 -9.92281 2.63608 -8.17507 15
325 1 3.60356 -10.7292 -5.11494 17
326 1 10.1856 -1.48206 9.35555 18
327 1 -9.94721 -4.35618 -7.03543 17
328 1 -5.84209 -11.2804 0.457828 18
329 1 -10.5193 -6.24047 12.3731 12
330 1 -1.66808 11.4639 -0.958693 20
331 1 -9.03493 -9.91435 -1.9948 22
332 1 8.11646 12.088 12.9519 13
333 1 -9.71619 6.26492 -3.90191 22
334 1 1.85379 15.9166 -7.04695 14
335 1 3.55711 11.5885 7.19072 20
336 1 -11.2408 -8.73791 -3.84109 17
337 1 -2.06099 -9.33536 -6.74677 17
338 1 -11.6367 4.71382 8.99433 19
339 1 -13.6956 7.52289 -2.94429 9
340 1 6.3269 -10.6448 1.84938 21
341 1 -4.71984 -14.472 -4.69507 17
342 1 13.0696 14.1706 6.31843 13
343 1 7.62458 7.66318 -14.6325 15
344 1 -12.0716 2.05717 -13.147 13
345 1 0.543675 16.9218 -11.4036 8
346 1 -8.08133 5.85378 -6.6417 21
347 1 -0.764696 -12.1577 5.1766 17
348 1 13.8523 8.29785 3.49447 12
349 1 1.44989 10.8571 -14.4893 12
350 1 -14.8807 -0.641583 -1.3101 14
351 1 -3.10328 -11.3088 1.54635 17
352 1 8.46641 -9.1147 -11.2617 14
353 1 -13.4395 1.29436 3.63484 18
354 1 -14.9997 -0.111806 9.11313 13
355 1 -13.7409 11.5258 6.5731 12
356 1 -4.90505 0.672948 -19.5522 9
357 1 8.89346 -9.70098 -8.34363 20
358 1 1.88774 -7.79409 -14.9698 17
359 1 -3.3148 -3.48474 9.05102 18
360 1 -2.45083 2.98125 -20.0157 11
361 1 4.49731 -12.4146 3.51619 18
362 1 5.1367 15.1262 -6.98065 17
363 1 -13.4326 10.141 9.03844 13
364 1 -6.9611 -1.67822 12.3326 16
365 1 -10.3373 -4.42708 -11.6683 14
366 1 -6.56713 -5.13334 6.24491 20
367 1 8.08052 -4.15845 9.84961 18
368 1 8.22004 -7.17008 7.07268 14
369 1 15.4844 10.0484 -2.92338 15
370 1 -1.42833 1.39109 11.4347 21
371 1 3.19716 14.8184 -1.04617 21
372 1 -1.23317 -14.4519 -4.49601 18
373 1 -3.34041 5.3959 15.5439 11
374 1 0.00942954 17.4712 6.11849 15
375 1 -7.91707 -11.3626 -11.2171 12
376 1 10.1011 14.9154 -0.999585 17
377 1 5.06226 8.82952 7.25225 23
378 1 -6.80385 2.04115 8.9398 18
379 1 -8.26001 5.42823 8.31958 19
380 1 -7.91635 -6.95374 -6.93073 17
381 1 -5.58438 9.23428 5.83028 13
382 1 -5.23463 -12.2525 -6.68471 17
383 1 -3.86896 -8.14871 -12.381 18
384 1 -8.44686 -13.1983 4.09248 18
385 1 12.053 2.98684 6.35994 15
386 1 -5.01646 -4.60167 12.1486 15
387 1 -9.30874 6.23813 -9.75943 20
388 1 9.95212 7.09785 -3.37273 19
389 1 -8.14785 -13.8457 -4.31673 14
390 1 -0.0430363 18.668 1.53196 9
391 1 -1.70117 11.0422 9.19797 20
392 1 -14.4033 -3.52582 -5.25122 10
393 1 3.65996 18.9091 -6.61705 12
394 1 7.22701 11.8833 -8.32401 21
395 1 -5.74981 -7.16237 -9.14705 18
396 1 2.19112 3.01182 16.0377 17
397 1 0.679031 -14.9981 -6.73914 18
398 1 0.455501 -2.7696 -12.2574 21
399 1 10.8535 -12.8301 -1.63532 14
400 1 -12.0858 8.31704 6.67318 19
401 1 3.92734 6.63385 12.2562 19
402 1 9.90527 8.845 -1.05074 23
403 1 -7.88171 9.41184 -10.1766 17
404 1 -13.4301 -6.18351 0.746321 15
405 1 5.5308 17.1897 3.85543 17
406 1 -2.66871 4.10545 -14.5379 20
407 1 11.1789 5.43935 -0.881906 22
408 1 6.65597 14.2812 -10.044 22
409 1 16.0699 -0.0992398 -4.12314 12
410 1 0.703363 -0.948828 -14.5804 18
411 1 2.83508 -15.4394 3.38188 13
412 1 3.03717 -9.52079 9.24163 11
413 1 -10.8887 5.11195 -6.73417 20
414 1 -11.3468 -14.7097 5.09039 11
415 1 -0.698219 -10.4177 -9.58636 17
416 1 8.03646 15.3638 1.61949 20
417 1 2.1773 5.68542 -11.9833 20
418 1 2.17758 -1.37094 14.9254 15
419 1 -14.2131 2.7143 8.2827 13
420 1 3.84974 -16.9244 -4.19098 16
421 1 -11.3207 -3.42191 0.405639 22
422 1 14.209 -7.57832 -7.81431 12
423 1 11.8726 -3.59007 -3.19524 14
424 1 3.72845 -8.78676 -7.17584 18
425 1 6.00305 2.22691 -14.0874 18
426 1 12.5466 -4.15995 -6.653 22
427 1 -2.88697 2.90293 13.1853 20
428 1 8.26533 17.5422 -1.50959 12
429 1 -3.89841 -2.21422 -17.8263 10
430 1 6.14937 2.6792 -19.9827 9
431 1 -8.79717 -2.81479 6.59188 20
432 1 1.6706 15.2795 1.3981 21
433 1 -7.0404 0.878255 -16.6159 13
434 1 -17.0201 -0.392249 1.11635 12
435 1 -4.732 -11.9986 -12.1839 12
436 1 -6.10978 -10.913 12.2426 10
437 1 1.96591 9.48822 -8.97975 21
438 1 14.9157 5.76928 3.93669 17
439 1 14.7228 5.44149 -0.995081 16
440 1 -7.25299 -13.0215 -1.58816 17
441 1 -0.117516 -4.59596 -19.1456 13
442 1 -7.32548 11.1441 11.1584 13
443 1 11.5519 -4.47558 -0.29111 18
444 1 5.84348 17.2754 -8.96342 16
445 1 12.7098 7.19512 -8.94093 15
446 1 3.10822 8.53144 9.74045 19
447 1 -11.4605 2.84256 6.05997 17
448 1 5.40037 10.7291 9.99379 19
449 1 7.26481 1.98874 14.5327 19
450 1 2.93717 1.48142 -14.3967 18
451 1 4.25447 -1.05917 9.44005 23
452 1 6.59112 12.1284 7.21437 21
453 1 6.53072 9.03076 -12.099 20
454 1 -8.08157 8.62541 -4.46675 24
455 1 -0.374763 12.8989 -3.01636 20
456 1 9.70231 -2.80096 15.1919 11
457 1 11.27 2.90411 -13.033 14
458 1 10.749 -10.0443 -5.27917 16
459 1 12.6861 11.6919 8.03562 14
460 1 -12.1092 -11.1807 -1.58075 11
461 1 -6.08279 9.87166 -12.9195 10
462 1 -11.7838 0.352224 10.6756 14
463 1 -3.28563 12.839 -8.67254 14
464 1 8.28918 -11.4889 -3.2394 17
465 1 5.96133 -4.81025 -11.7625 21
466 1 -0.316988 14.1036 -5.87325 18
467 1 -8.38576 -3.42687 -14.421 15
468 1 5.94375 -14.003 0.473684 23
469 1 -10.8708 -6.51044 -1.71562 20
470 1 5.35006 11.9961 -11.3153 21
471 1 -0.237827 10.4376 12.252 16
472 1 -9.90372 -5.36815 6.69783 20
473 1 5.12066 -7.38935 -9.51087 21
474 1 0.339368 -7.12291 11.5221 13
475 1 -13.6572 9.68276 3.83378 11
476 1 7.01243 6.80243 17.5049 10
477 1 8.41308 15.41 -7.3552 14
478 1 9.87969 -4.59265 -5.25626 22
479 1 3.44843 13.84 9.28867 21
480 1 1.18351 1.26809 -16.7929 19
481 1 -5.48859 -12.2659 9.44825 14
482 1 10.5629 -5.29265 -17.6455 7
483 1 5.31216 15.3684 6.59568 21
484 1 9.88997 6.81771 -9.99406 19
485 1 -3.15379 -5.75193 -17.794 11
486 1 -2.97791 -11.5436 -4.12591 19
487 1 -10.9546 -1.44509 -13.3395 15
488 1 11.572 3.82248 1.76891 19
489 1 15.7557 3.78244 -3.4683 14
490 1 7.18228 -4.34107 -9.29638 19
491 1 11.6329 6.71131 9.85652 18
492 1 5.85482 -10.5143 -10.1005 17
493 1 0.752809 3.24341 -18.9504 14
494 1 11.547 15.7326 2.38903 13
495 1 11.2623 11.2743 11.0009 12
496 1 14.9976 6.89448 -3.99829 16
497 1 11.4286 -0.668402 3.69208 18
498 1 12.1959 3.71174 -10.0061 18
499 1 8.01147 3.56512 11.6413 20
500 1 14.1126 3.76482 9.72456 14
501 1 15.1916 12.4943 -4.91405 12
502 1 1.69617 -0.269355 17.239 11
503 1 15.5188 0.0324392 -6.69426 10
504 1 8.01896 5.25443 9.03862 19
505 1 -7.98284 -0.786698 -7.20094 17
506 1 16.8345 7.25131 2.01931 11
507 1 -9.78876 7.77029 8.37563 18
508 1 10.8171 14.6881 8.38443 12
509 1 9.81935 1.05585 12.77 15
510 1 1.15339 9.29089 6.70157 20
511 1 1.48175 17.8964 9.18601 10
512 1 -1.54512 -17.7067 -0.244081 12
513 1 -4.88652 9.18385 -4.38163 21
514 1 14.2812 11.1236 -8.27669 12
515 1 10.7237 -1.48587 -14.2036 11
516 1 1.56294 17.2844 -0.78733 16
517 1 -3.24193 -13.8552 -7.51697 18
518 1 11.2817 -4.90193 -14.346 15
519 1 -13.5917 5.56295 5.24609 18
520 1 -5.26557 6.5144 -11.862 16
521 1 -3.05937 -15.8974 2.0479 14
522 1 -3.1499 2.94399 -12.206 21
523 1 -15.1119 1.88962 -5.07821 11
524 1 11.1164 -6.69664 5.30458 12
525 1 12.8013 13.4656 0.582871 13
526 1 0.742708 -7.48446 7.69552 17
527 1 -15.5199 -1.99591 -8.25578 10
528 1 7.40162 0.710557 -17.1896 11
529 1 -0.277723 4.5021 14.9965 19
530 1 7.60804 11.1227 -14.4555 15
531 1 12.736 1.9694 13.0823 11
532 1 9.14926 7.01729 -6.49307 18
533 1 12.9069 11.4155 -1.83296 16
534 1 4.86165 -13.8859 -9.75945 18
535 1 -8.04343 1.61942 13.5233 17
536 1 14.0796 0.367942 5.5103 16
537 1 -0.022291 13.3213 11.1359 13
538 1 8.13721 14.0561 -13.0267 13
539 1 -11.5858 9.33765 -4.56652 16
540 1 8.2901 9.28164 1.64147 21
541 1 -7.2609 -16.1466 -2.66963 10
542 1 13.6587 -5.11582 7.00294 10
543 1 7.50621 18.255 1.28857 10
544 1 -2.05357 5.48469 9.53358 22
545 1 -8.92203 -5.75413 0.776664 22
546 1 -9.64796 -0.604062 -10.7307 20
547 1 6.31998 2.17845 9.75892 18
548 1 -2.4754 -10.8049 11.7304 9
549 1 6.67372 6.16085 12.4679 23
550 1 -4.87231 14.1575 -1.26636 19
551 1 3.76606 -0.943244 -16.7451 18
552 1 -10.1525 -0.11769 6.02163 19
553 1 9.5056 0.0622714 -12.5618 15
554 1 10.8645 -7.28219 -11.612 16
555 1 6.68312 6.37564 6.4732 23
556 1 -10.918 2.70069 13.2796 10
557 1 9.82058 12.2216 7.01322 22
558 1 1.00001 -4.39043 13.2485 13
559 1 -0.71585 4.86414 12.0299 22
560 1 2.00721 -3.41019 -17.0208 19
561 1 -5.36037 0.880248 11.9784 21
562 1 4.89665 3.38918 12.4361 21
563 1 -8.84314 -16.1542 6.42279 13
564 1 12.6989 8.07504 -1.77493 19
565 1 5.92359 -13.639 -4.95043 21
566 1 4.74858 11.9359 -1.10833 20
567 1 11.243 16.7702 6.02569 10
568 1 5.31347 -0.558584 -18.8926 12
569 1 1.36232 16.1664 -3.94322 17
570 1 11.5639 9.52402 1.00061 17
571 1 -4.47356 -8.18698 -4.14016 19
572 1 -0.510646 -1.47338 -17.0914 15
573 1 -10.7567 12.9751 -0.248146 15
574 1 8.58932 -6.43737 -13.1522 17
575 1 11.9589 9.7479 -10.5606 13
576 1 12.4902 12.629 -6.05154 15
577 1 10.6619 3.82421 13.6881 18
578 1 9.87922 0.739804 15.4397 12
579 1 -2.00602 -12.1962 8.90086 13
580 1 -2.94726 8.77989 -12.1603 20
581 1 3.10041 16.0845 11.7595 10
582 1 7.90286 -8.17701 -16.2771 13
583 1 9.42984 11.7105 -5.70528 21
584 1 8.18124 11.0322 4.53143 22
585 1 13.6957 -6.32889 -4.9453 19
586 1 7.23729 10.4031 15.7449 12
587 1 -14.4846 -1.25936 3.96914 19
588 1 1.06052 -15.5822 -2.40337 21
589 1 -8.5462 15.1 1.30158 11
590 1 6.90254 12.2762 2.04908 22
591 1 -15.2078 -3.24095 0.499521 13
592 1 2.09036 5.13835 17.6211 12
593 1 -3.67163 5.3267 -17.6206 11
594 1 -3.82842 6.99312 -14.8034 13
595 1 3.28587 -16.7191 -0.530241 17
596 1 6.84098 6.92013 -8.97537 18
597 1 -12.763 7.17389 10.11 16
598 1 3.04269 -4.83468 -14.7915 18
599 1 4.21659 -10.9629 6.29032 11
600 1 7.05347 14.1917 4.70073 21
601 1 -0.481153 0.961382 15.0425 23
602 1 -8.10227 -6.06233 -10.3129 18
603 1 -5.89177 -6.10881 -13.0887 15
604 1 -6.35252 -13.0215 -9.17185 14
605 1 5.65776 20.8042 -5.35469 5
606 1 -5.36587 12.5846 9.53913 14
607 1 7.23987 -9.96478 -5.37678 21
608 1 10.1623 -14.9292 -3.34383 10
609 1 6.55992 -8.44813 4.33075 19
610 1 14.2109 1.72738 -8.69506 19
611 1 -0.513487 -12.1567 -6.89388 18
612 1 -12.2333 -3.20101 5.84452 20
613 1 -4.1565 -15.8142 -1.56001 16
614 1 -6.51113 -11.2128 -4.29149 18
615 1 -13.3285 0.309811 6.72438 18
616 1 -6.36598 -16.4354 0.619758 12
617 1 13.9807 4.75725 -6.44859 16
618 1 -5.29491 15.7254 1.89255 14
619 1 -14.1774 7.20021 1.87391 14
620 1 9.76627 -3.48728 4.37421 18
621 1 -13.3349 -0.313167 -10.8132 13
622 1 9.10356 4.23901 -8.76046 17
623 1 8.28947 13.0128 10.1867 18
624 1 -16.0301 1.55264 -8.10509 9
625 1 -12.0021 -6.41224 -9.92421 10
626 1 0.99148 7.24296 13.0005 18
627 1 4.83859 6.20098 -12.9919 15
628 1 13.7506 13.8481 3.6808 13
629 1 -3.25366 2.52488 9.31067 22
630 1 -1.29044 -17.4448 -3.28162 13
631 1 -6.13979 -15.2276 7.22006 11
632 1 14.1803 8.90006 8.39445 12
633 1 2.94972 -4.57166 -9.34098 24
634 1 6.40174 8.19537 4.21568 20
635 1 -7.87503 -6.3312 3.66218 22
636 1 9.98202 9.22466 -13.436 13
637 1 -0.509227 -18.0121 -7.78149 11
638 1 1.23418 -19.0562 -1.76088 11
639 1 4.46977 -14.7255 -2.59053 20
640 1 6.93075 9.30509 -6.49287 20
641 1 12.277 13.7105 -3.16861 13
642 1 0.0777256 -4.22252 -14.9891 20
643 1 -0.166 -1.06507 12.4432 19
644 1 2.05953 6.10543 -17.5651 12
645 1 -9.90448 -0.146162 -15.4358 12
646 1 -9.46807 -3.82557 -1.71698 22
647 1 3.50417 15.3109 -9.88934 18
648 1 3.0153 -5.23213 -19.7293 12
649 1 8.87763 9.44801 -3.94356 21
650 1 8.67599 -6.45742 4.02504 16
651 1 -6.76813 7.25717 10.5516 18
652 1 10.3514 -6.97485 1.49439 17
653 1 11.6833 -4.89476 2.55255 15
654 1 12.1161 -1.23193 12.4437 12
655 1 0.00446548 12.4187 6.03346 17
656 1 -13.0432 3.72406 11.0398 11
657 1 -7.17599 6.58393 6.51304 21
658 1 0.142835 -10.3502 7.45032 14
659 1 9.02826 7.96921 11.7869 16
660 1 -13.34 -3.87534 -1.98381 15
661 1 10.039 -9.36828 -1.08709 19
662 1 -8.13954 10.9488 -6.66863 18
663 1 6.79648 -16.9225 0.598212 9
664 1 4.47741 0.327598 14.9729 16
665 1 3.95714 14.2559 3.62324 21
666 1 3.78701 -9.15285 3.70498 16
667 1 1.568 3.32027 12.5573 19
668 1 -13.644 -7.91094 -2.42225 10
669 1 2.58797 12.2506 11.4207 18
670 1 7.05143 14.116 -0.87773 18
671 1 -11.1177 -12.1226 2.71593 14
672 1 -3.34516 -14.6387 4.91057 14
673 1 8.07612 -2.59829 7.42776 21
674 1 10.4173 -4.82402 7.41506 15
675 1 8.17967 8.89727 6.81103 20
676 1 1.67383 -7.26996 -9.76321 21
677 1 0.438898 3.17266 -12.2781 22
678 1 -3.40435 -1.56972 11.4519 18
679 1 -3.56206 12.515 1.08131 18
680 1 13.3423 1.06326 1.28986 17
681 1 4.89334 11.7963 -5.81167 19
682 1 -1.9917 8.201 12.0676 19
683 1 8.9144 10.513 8.98511 17
684 1 6.79766 -1.20532 -11.4669 17
685 1 -3.98485 -12.8621 -1.51513 20
686 1 15.8491 2.82299 4.93593 11
687 1 1.18105 -0.0492266 -12.3404 21
688 1 2.73251 9.41209 13.0354 17
689 1 10.0128 -11.7825 -11.1304 11
690 1 6.72454 4.79605 -15.1054 16
691 1 12.2929 5.91821 -11.7941 14
692 1 15.9069 -0.46648 -0.517384 10
693 1 3.70351 -4.94612 13.4239 9
694 1 -2.19952 -7.32761 -9.71973 21
695 1 9.80605 12.8034 -2.80364 18
696 1 -17.2518 6.08723 2.95623 6
697 1 11.1116 9.18833 -7.39209 21
698 1 17.9301 10.068 0.28536 7
699 1 1.93474 -2.03284 -19.7988 12
700 1 -6.2249 13.2565 6.24623 10
701 1 16.1219 7.71692 5.65122 11
702 1 10.8529 14.7237 -6.67317 12
703 1 4.22883 -0.401464 -12.7109 19
704 1 11.597 -6.89013 -2.24753 17
705 1 -11.4604 -0.530378 -1.80036 22
706 1 9.66638 7.88166 5.06568 21
707 1 -10.1428 -11.4046 0.659287 16
708 1 -11.2648 12.0457 -6.4806 8
709 1 4.94984 5.40722 9.78647 23
710 1 -11.3534 -1.12762 -8.01767 15
711 1 -10.8047 6.19772 6.10283 21
712 1 10.5483 -7.55428 -15.0189 12
713 1 -10.464 -8.07951 -7.37901 17
714 1 14.5191 -7.56089 -2.17369 11
715 1 -14.8323 1.89625 0.488907 14
716 1 11.7555 10.6572 4.92002 18
717 1 -4.8231 -7.72432 5.71923 22
718 1 10.4998 5.029 17.2866 9
719 1 14.7348 -1.64095 8.19654 15
720 1 -9.8582 6.33376 0.208427 17
721 1 0.313466 14.1105 8.81213 22
722 1 5.42624 9.60786 -8.66734 20
723 1 -1.15719 -6.95896 -16.5533 15
724 1 -4.00797 14.3183 4.15078 16
725 1 -10.3046 -11.326 5.38371 17
726 1 8.74681 9.64414 -8.78666 20
727 1 1.19201 11.4726 8.91667 20
728 1 16.8382 -5.3299 -4.34158 9
729 1 7.21141 -3.9016 13.0086 14
730 1 -1.00445 14.4457 -11.7319 13
731 1 3.69686 12.6674 -8.50897 19
732 1 -5.07336 -0.93951 8.59364 20
733 1 15.3322 -0.551511 2.82457 12
734 1 -2.70771 -3.60937 -12.5851 18
735 1 15.5338 10.9338 -0.362656 12
736 1 -13.3802 2.33177 -2.25959 16
737 1 -4.3003 -9.66862 9.38869 18
738 1 5.19434 15.7548 -12.454 14
739 1 6.62761 -1.61924 10.132 21
740 1 2.50031 -13.5 -4.9813 19
741 1 -6.76167 17.4071 -0.252539 11
742 1 -14.0873 4.97884 -1.35266 12
743 1 11.5108 -0.591375 -7.56044 17
744 1 3.52849 -15.2564 -12.9803 7
745 1 -7.42957 8.13172 3.07891 18
746 1 16.2222 9.56351 -5.89031 11
747 1 7.35405 -3.30808 -17.3184 11
748 1 -6.45412 -8.84743 -11.1632 17
749 1 0.483792 -8.65987 -7.47672 18
750 1 -3.40332 11.6186 11.7745 15
751 1 8.78493 -12.1468 -6.48219 17
752 1 -0.17135 12.8791 -14.263 13
753 1 12.943 1.65504 -4.94854 20
754 1 10.0532 6.80643 1.84919 22
755 1 6.54956 -15.9475 -7.72324 14
756 1 4.78444 -3.42157 -18.2363 15
757 1 13.1595 3.22861 -0.985617 17
758 1 1.6595 4.61334 -14.9377 20
759 1 -1.7736 -7.94739 6.38657 18
760 1 7.01946 12.856 -5.00816 20
761 1 -11.6358 3.12378 -4.02305 18
762 1 -14.8796 4.99961 7.99955 15
763 1 2.54486 8.65179 16.5191 12
764 1 -6.73857 -8.85826 8.53411 19
765 1 5.17027 11.2425 4.08482 19
766 1 -1.69188 -14.2962 0.21914 19
767 1 2.52166 12.9884 -3.93065 20
768 1 -3.81613 8.13454 8.95556 19
769 1 -9.50642 -0.516971 13.8136 10
770 1 -12.6453 12.8478 9.905 8
771 1 -6.69 -7.27977 11.7533 14
772 1 7.23279 -11.5202 5.02651 12
773 1 10.7783 3.80204 9.74615 16
774 1 7.76327 -6.73227 -6.63192 22
775 1 5.66436 -12.4107 -13.3834 15
776 1 -4.57187 0.981305 -14.6936 21
777 1 -1.51748 1.32249 -14.8587 21
778 1 8.04475 15.1383 7.44988 20
779 1 -11.0824 -2.64537 11.8869 13
780 1 -3.12738 6.80098 -9.61009 23
781 1 -12.997 5.43756 -4.84556 14
782 1 9.39204 11.5081 -0.163475 19
783 1 -8.95352 -16.4935 3.01789 12
784 1 14.8366 11.0335 6.06477 12
785 1 -9.75378 -10.8329 -5.62197 11
786 1 6.9646 17.9962 7.14479 11
787 1 -5.89851 0.659703 15.35 12
788 1 -1.79809 -15.5225 -8.87525 12
789 1 15.6698 1.75906 7.79044 14
790 1 4.75242 -18.8313 -1.44012 8
791 1 4.96571 11.6465 13.9985 14
792 1 12.9021 -2.50035 -12.3116 13
793 1 6.31125 -9.02978 -1.54204 21
794 1 4.20337 3.2582 -11.4955 19
795 1 -9.33605 2.28787 -11.9518 20
796 1 -5.78104 4.15015 -14.8616 18
797 1 -4.07276 6.15633 11.9363 21
798 1 7.06723 -0.999059 13.7988 18
799 1 -7.66913 -8.77108 0.995965 18
800 1 11.9259 -1.71391 0.556842 18
801 1 0.450322 6.94299 -9.6285 20
802 1 13.024 6.33504 1.59784 22
803 1 3.83 18.421 6.15992 14
804 1 -11.1447 -7.08974 2.51196 17
805 1 8.07072 -13.2017 -9.07 17
806 2 -9.896 -0.263006 -6.98217 14
807 2 -5.25877 11.2281 -3.53029 21
808 2 -0.671478 -1.38454 -12.944 20
809 2 -2.34165 6.30437 11.3208 23
810 2 4.02305 -9.2582 -10.689 19
811 2 -8.33011 -5.16861 -6.97794 18
812 2 3.01114 1.98548 11.7398 19
813 2 5.66779 2.94572 14.1882 19
814 2 -11.9869 -10.3315 0.205714 14
815 2 -12.9921 5.58793 -6.66925 14
816 2 1.09999 16.4203 4.84909 17
817 2 -11.3324 -0.823451 0.122812 20
818 2 5.26239 19.0097 -9.30767 9
819 2 10.0953 6.40175 4.06452 19
820 2 0.076347 15.515 -7.28067 13
821 2 11.0328 13.7683 -8.49826 14
822 2 -11.4306 0.444321 -14.1715 11
823 2 -10.1154 -6.28585 -10.9234 12
824 2 5.01273 5.33533 11.6581 21
825 2 8.52662 0.779648 -10.9066 18
826 2 2.5782 -15.6452 0.919141 15
827 2 -8.06445 10.7055 -4.58085 23
828 2 -15.292 2.61981 -6.70833 10
829 2 15.7059 5.75014 1.19015 16
830 2 10.4079 -10.4784 -9.7954 14
831 2 -10.1252 -11.3273 -1.23837 17
832 2 -11.0247 -6.41314 0.209692 21
833 2 -1.43069 -12.4624 0.524142 19
834 2 9.97169 -4.61886 9.02179 15
835 2 -2.33007 -16.9539 -8.04074 12
836 2 3.09489 -0.198014 15.9403 13
837 2 2.27093 11.3925 -8.78438 19
838 2 5.27141 -17.28 -0.484314 15
839 2 -6.88831 -11.5985 -2.50008 17
840 2 -0.32618 5.96315 13.7395 16
841 2 -12.3453 8.26553 4.73798 19
842 2 1.23475 3.78596 14.4202 18
843 2 -6.22341 8.02284 -4.28388 22
844 2 10.0599 -9.25816 1.04943 15
845 2 -0.129731 12.4464 -6.68024 18
846 2 13.614 12.5943 5.11012 14
847 2 9.42157 16.9824 6.33127 12
848 2 9.84053 0.270355 -8.05949 18
849 2 -6.15795 5.5906 11.4027 19
850 2 5.35326 3.53801 -15.9855 21
851 2 -5.05125 8.28147 -12.5303 16
852 2 13.709 9.63005 -2.62122 18
853 2 -6.94708 -3.86298 12.9664 14
854 2 -13.3141 11.1251 4.79199 11
855 2 13.8866 3.35666 -9.2549 15
856 2 -10.5189 -8.56232 12.2688 9
857 2 4.67949 -9.44465 -14.2977 20
858 2 2.97752 -3.49697 -20.443 9
859 2 -12.7285 -7.98355 1.62814 12
860 2 8.42176 12.6562 -1.31265 17
861 2 -5.51821 9.13981 3.53402 19
862 2 -2.35883 -9.27164 -9.87466 16
863 2 -2.75701 16.3898 8.52478 12
864 2 6.24169 -0.137504 15.3823 14
865 2 4.18583 -7.91911 9.52695 12
866 2 16.721 3.11896 6.55217 11
867 2 5.45593 15.9231 -10.4676 17
868 2 -13.5596 2.35567 -4.10059 15
869 2 15.9257 5.6301 5.67439 11
870 2 9.2743 -11.0769 -1.17428 18
871 2 9.00121 -10.6662 -4.70188 19
872 2 -5.36662 11.0113 11.2656 12
873 2 6.72182 -9.49597 0.344955 20
874 2 11.9975 -6.31507 6.91392 10