ITEM: TIMESTEP
2000
ITEM: NUMBER OF ATOMS
1500
ITEM: BOX BOUNDS pp pp pp
-30.0 30.0
-30.0 30.0
-30.0 30.0
ITEM: ATOMS id type x y z Coordination
1 1 -6.79292 -9.81416 -6.25233 18
2 1 5.11177 -10.976 7.98867 10
3 1 -9.89817 7.00301 1.10165 23
4 1 -7.95152 0.182986 -11.5346 22
5 1 -0.624155 -7.03862 10.8263 19
6 1 -7.16268 -3.36761 -11.9484 20
7 1 -4.17457 -14.599 -0.796158 18
8 1 -11.8137 -9.02592 3.46626 24
9 1 0.384984 -1.92819 16.1299 6
10 1 5.40483 -3.172 5.77526 20
11 1 1.2053 5.67478 10.4809 17
12 1 9.13305 -1.87654 1.88086 20
13 1 -3.54376 5.81651 -7.75837 20
14 1 5.1439 -4.47916 13.0522 7
15 1 15.7574 4.73454 8.44148 13
16 1 -2.18338 7.45234 -11.1573 18
17 1 1.69595 7.63167 -15.4663 10
18 1 -9.33273 -0.948663 -0.683277 18
19 1 -2.29433 -3.34652 -8.5003 24
20 1 6.55227 -13.4187 2.91188 15
21 1 -0.447634 -2.37482 7.45521 21
22 1 10.3534 -12.1655 -0.664221 12
23 1 -7.68098 -13.0982 -7.65164 15
24 1 3.36234 -6.0465 -3.17209 22
25 1 3.0346 -6.50845 -13.8166 19
26 1 0.6405 0.0701411 11.4369 17
27 1 -4.0056 -11.534 1.93476 21
28 1 2.72944 -6.17335 11.0012 15
29 1 -10.783 -1.85139 1.82868 17
30 1 -7.31088 -0.701016 -3.37061 20
31 1 -6.61021 9.94762 -1.67724 21
32 1 -0.576129 1.16936 -11.2844 25
33 1 2.77426 -9.75923 -12.964 9
34 1 -2.93816 -5.45291 14.6151 11
35 1 -13.9722 5.49039 -3.92443 9
36 1 3.79164 13.4263 6.25023 10
37 1 -11.416 7.60319 -2.06966 20
38 1 1.12828 12.2129 -4.19424 16
39 1 -0.336278 -15.5245 4.17233 11
40 1 5.18841 -6.7237 -6.81505 16
41 1 -5.73838 4.21433 14.6442 12
42 1 -13.0779 -5.69896 -8.77542 18
43 1 7.87739 0.704179 4.49068 21
44 1 -8.81558 6.91395 -13.2102 8
45 1 -8.88887 -9.87473 4.56244 19
46 1 -9.76931 4.40073 -9.35247 20
47 1 -1.96655 2.74408 -8.79794 23
48 1 0.395779 5.35632 4.16862 19
49 1 0.08941 3.88965 6.88719 21
50 1 6.73689 -10.0048 -5.50228 15
51 1 3.79567 7.38692 13.4248 9
52 1 9.04881 -1.29624 -13.7599 17
53 1 8.98632 -11.8506 4.76835 9
54 1 -8.86766 -4.06349 1.06457 20
55 1 7.09529 -5.31472 10.6022 14
56 1 -5.80695 -9.64257 6.71907 18
57 1 -10.6721 -1.01951 -4.11958 22
58 1 13.5249 2.37997 7.8485 20
59 1 7.02179 -3.60707 0.456693 17
60 1 -2.67634 9.33425 11.0664 14
61 1 3.90896 2.7524 7.32787 17
62 1 -10.0092 -4.39126 4.65163 23
63 1 -3.52129 -6.3618 -8.48475 20
64 1 -6.74995 7.7696 0.85183 20
65 1 -6.09383 7.33512 -14.9475 10
66 1 6.29427 2.76942 -5.99539 20
67 1 6.67889 -5.13893 -2.48232 20
68 1 12.507 -7.71487 3.54322 12
69 1 1.47063 -11.8694 8.93316 13
70 1 -6.47 14.3782 -6.64906 10
71 1 -9.54443 10.5021 4.74865 13
72 1 -5.29633 5.57197 6.08869 23
73 1 -10.7028 -9.61046 10.2165 10
74 1 12.7448 -6.43497 -6.1296 12
75 1 -11.0435 1.42997 4.53463 18
76 1 9.35171 -4.64679 -3.66406 22
77 1 2.90956 2.59533 -11.7772 22
78 1 -4.76732 -3.55258 -16.1554 9
79 1 -1.29447 10.8615 1.03901 19
80 1 -10.1545 0.900707 -14.5452 11
81 1 1.64975 12.5946 -7.50711 11
82 1 2.15422 11.3603 0.885086 17
83 1 -4.74229 -6.64816 6.87927 18
84 1 -0.184073 -6.18759 -8.82768 21
85 1 5.86104 -10.6798 -8.20969 12
86 1 -3.41395 2.79456 7.77849 20
87 1 -7.19594 -6.58856 -3.47186 22
88 1 7.00395 -4.75458 3.3101 18
89 1 -10.8499 -6.23656 -3.87204 23
90 1 4.29299 -10.0745 2.74919 16
91 1 -7.71919 4.80878 1.48972 20
92 1 7.02076 0.84916 -15.165 13
93 1 0.353134 4.83281 -6.19521 22
94 1 10.0534 -9.16928 -1.30122 18
95 1 -4.96422 -14.4905 4.25319 14
96 1 -7.74003 -11.4053 -3.60998 16
97 1 -15.3602 -7.68407 3.00635 15
98 1 10.6224 3.74689 7.45389 19
99 1 6.96914 5.14339 -1.51087 24
100 1 -3.68344 11.1591 9.07115 16
101 1 -8.94754 12.7377 -6.1915 9
102 1 -1.93783 -7.04664 -11.6431 21
103 1 13.0633 -2.73751 9.19345 11
104 1 -5.13813 8.02022 -6.05242 19
105 1 14.4124 -0.44252 -10.2379 11
106 1 -8.60884 7.05226 -7.03547 18
107 1 -2.95977 12.5958 -0.0355612 15
108 1 4.81484 4.49971 -10.7305 20
109 1 5.95604 -10.9219 4.75196 15
110 1 -5.98942 7.38565 -2.90109 21
111 1 2.96505 9.42018 -3.96512 21
112 1 10.385 6.03801 -2.59308 16
113 1 -10.1931 10.293 -6.58016 10
114 1 -9.08609 -5.15018 -13.2787 16
115 1 0.00857109 11.0541 9.6627 17
116 1 -14.2892 -1.36701 -4.87723 13
117 1 13.3052 0.795935 -4.11931 22
118 1 -4.74052 8.20525 8.32339 18
119 1 -4.67928 11.4354 -6.93265 16
120 1 4.46052 -4.25667 8.92867 19
121 1 -14.2348 -10.9783 3.35736 11
122 1 -6.51276 -12.2135 4.75332 19
123 1 0.799066 -13.3005 -7.32865 11
124 1 -6.61288 5.78549 -8.49289 19
125 1 0.895643 9.96688 -7.09692 18
126 1 12.2419 7.07624 -7.11094 11
127 1 -4.20444 -11.3109 8.83091 18
128 1 -6.94312 1.28943 -1.81744 20
129 1 3.75203 14.3636 0.745608 13
130 1 3.04273 10.4323 11.8224 9
131 1 -6.28134 13.6721 1.20176 11
132 1 -8.37733 -6.64597 -6.14875 21
133 1 12.1124 -7.16362 -3.07476 16
134 1 -7.30511 -4.28118 3.48539 21
135 1 -12.4843 -3.47234 4.6972 16
136 1 -9.77943 -12.2566 2.85088 21
137 1 -12.6389 -0.934391 -2.06716 17
138 1 -2.81283 -14.8582 1.92539 17
139 1 -5.61463 -3.60174 -3.43742 20
140 1 5.13039 -8.91355 -2.8351 15
141 1 -3.89331 9.19942 5.70929 20
142 1 -8.1473 1.50275 4.27562 18
143 1 -5.00995 2.90479 -7.89249 22
144 1 -11.1942 5.63176 -11.757 11
145 1 -12.372 -9.13652 -9.31953 13
146 1 -11.1121 -0.330014 9.44198 15
147 1 -3.54348 -10.8918 4.91455 20
148 1 0.694172 -13.5609 6.68286 14
149 1 12.4591 4.39439 5.23338 19
150 1 6.40385 -0.895802 -8.73624 18
151 1 5.47421 -1.4225 9.97136 17
152 1 0.0334938 5.35368 -15.3861 17
153 1 8.68731 -0.380652 -10.6547 17
154 1 -10.8726 -4.40064 -11.3641 19
155 1 -7.89536 10.3926 -8.95058 12
156 1 -7.30101 15.353 -3.75853 7
157 1 6.40542 2.40773 9.96132 19
158 1 -2.76342 -9.83788 -13.8785 13
159 1 -8.90501 7.52678 -9.90483 12
160 1 2.06078 6.15723 -12.1466 21
161 1 -4.92394 0.742905 10.5454 20
162 1 -7.01204 10.3595 7.83979 14
163 1 0.0631925 -9.4336 -6.08331 18
164 1 -8.73433 -14.4804 -4.78719 12
165 1 8.46545 -10.3805 -3.03142 15
166 1 4.92044 -6.80042 -0.284326 18
167 1 8.49878 6.20406 -7.79083 21
168 1 -2.91935 7.79113 -4.311 21
169 1 -12.9261 0.12367 2.58234 16
170 1 0.632852 6.6474 7.80602 21
171 1 11.0975 -0.624627 -0.0516363 23
172 1 2.27071 7.70556 4.13475 17
173 1 -11.282 8.02482 4.35141 14
174 1 -10.0053 -10.2168 -7.66572 18
175 1 5.39827 6.86071 -12.9163 15
176 1 3.25838 -2.11832 7.21518 20
177 1 9.94996 8.33643 -9.83112 10
178 1 3.5142 -11.4864 -3.03437 16
179 1 -4.7213 -9.07249 -15.8742 9
180 1 7.84639 -1.04786 -5.9729 19
181 1 -13.2331 -7.34351 8.69286 14
182 1 -3.01165 -14.5087 -3.98725 16
183 1 -8.45377 -7.83971 -11.8011 21
184 1 6.3493 11.7492 -5.1518 10
185 1 2.8794 -5.91836 -17.1849 11
186 1 6.46296 -0.177249 14.0401 8
187 1 16.6669 1.20924 2.7404 12
188 1 -5.20401 -7.27927 -1.07264 18
189 1 10.5601 -3.12291 -11.1824 20
190 1 -3.52276 -5.94571 1.78761 21
191 1 -8.08197 -5.09346 -10.2839 20
192 1 -9.68809 -2.38645 -10.1032 22
193 1 13.6925 3.3257 10.7518 14
194 1 8.65321 -0.631954 9.71796 17
195 1 -2.85832 -11.805 -10.8577 14
196 1 0.846058 -6.50185 4.72712 21
197 1 -1.45164 7.74662 -16.3749 10
198 1 2.34016 6.21599 1.45785 19
199 1 -10.0667 -6.66341 3.05821 19
200 1 8.69839e-04 13.9592 1.68591 16
201 1 -9.37912 -2.61235 9.2629 19
202 1 -8.79014 -10.6695 -13.3351 10
203 1 -3.87866 -4.44847 -12.5934 17
204 1 -9.78484 -8.79988 -4.4418 20
205 1 -1.69569 -8.85116 2.08838 23
206 1 14.5356 2.35565 4.34752 16
207 1 -3.72678 -5.94231 -3.15083 23
208 1 -11.0933 -6.92758 10.9869 14
209 1 -3.40803 -9.54839 -0.0400697 24
210 1 -0.427408 -11.4686 1.84957 22
211 1 -1.63539 14.1646 -2.89443 10
212 1 1.72455 2.21024 -16.175 13
213 1 -5.74245 -5.92587 -13.8979 20
214 1 0.36798 -12.7476 -1.72598 23
215 1 -4.73383 -11.933 -7.80933 15
216 1 -8.14609 -0.852942 -14.0775 16
217 1 7.41422 2.37609 7.25151 19
218 1 -4.23594 1.28198 -10.5145 22
219 1 -1.79148 4.13214 -11.6357 20
220 1 -3.54971 -4.58534 4.41044 18
221 1 -5.03929 12.868 -1.99643 17
222 1 0.457091 10.9546 3.44952 18
223 1 12.5669 -2.57989 1.37322 19
224 1 -13.1287 -0.521443 6.14701 11
225 1 -6.4199 -10.0786 11.4239 12
226 1 -4.75905 7.15423 3.71873 21
227 1 3.37991 -8.30581 -16.0265 10
228 1 2.62547 -12.5922 3.81119 16
229 1 -3.70225 -2.13646 15.5455 10
230 1 -14.1612 -8.90213 5.82547 12
231 1 13.9188 -1.65399 -6.95552 19
232 1 6.23518 -4.02805 -5.23674 19
233 1 9.31718 -9.92495 -6.77717 11
234 1 -7.43583 -6.60704 1.111 17
235 1 -9.46626 12.355 -0.326539 11
236 1 3.3382 1.04563 9.83172 18
237 1 12.1374 5.5309 9.25575 19
238 1 -7.4911 -1.03388 1.64233 22
239 1 9.99257 -8.10181 -4.92446 19
240 1 -2.8191 8.78675 2.13115 18
241 1 -4.50777 4.98612 1.90355 20
242 1 -0.662781 -12.7585 4.12271 19
243 1 13.3201 -5.39673 5.35413 12
244 1 -4.96867 4.33562 9.56588 20
245 1 -8.84846 -1.16444 -6.57806 18
246 1 -1.50017 -1.20117 13.512 18
247 1 -1.21144 14.4796 5.14373 13
248 1 -4.32578 5.17843 -10.745 21
249 1 -9.91495 2.30754 11.8857 12
250 1 -14.2544 2.89508 1.53889 13
251 1 -3.35833 -4.08462 -5.97675 20
252 1 -8.33201 6.49703 -1.42399 22
253 1 10.1008 1.60069 9.72814 21
254 1 -12.2419 -11.474 0.411584 17
255 1 6.0354 -8.31996 6.74846 17
256 1 -11.8833 11.0572 -1.04523 11
257 1 0.336839 -6.04149 13.2102 11
258 1 -0.794056 -11.1994 -8.89013 17
259 1 -7.25896 -3.80269 -7.18463 20
260 1 4.36681 1.32345 -14.4618 19
261 1 5.64283 13.1369 3.50732 12
262 1 -10.8819 1.60637 -6.7992 17
263 1 5.88872 -2.32397 -13.9099 20
264 1 -9.42222 -14.4406 0.416444 14
265 1 -14.7369 -6.84607 -6.67733 11
266 1 -1.73432 -6.656 -0.692004 23
267 1 9.20954 2.45176 -6.86735 20
268 1 -5.3942 -0.879244 -11.9252 20
269 1 -9.53986 0.586685 -8.96881 20
270 1 -7.63385 8.53811 6.35982 20
271 1 -8.22404 11.1083 2.06414 18
272 1 -7.08365 6.97669 9.2893 16
273 1 11.1054 -1.81955 -5.49838 19
274 1 9.96258 1.73006 -9.55815 18
275 1 -4.53367 4.95837 -3.23828 20
276 1 1.70575 -8.8284 -3.60255 18
277 1 -2.80614 12.2034 3.07016 18
278 1 -6.02846 2.2682 -4.53523 22
279 1 8.14444 -11.4317 1.9274 16
280 1 14.4011 -0.846952 7.22866 13
281 1 -12.3693 -1.9709 -7.68685 16
282 1 -6.79487 -9.67747 1.43336 20
283 1 -1.9601 10.9431 -5.30852 18
284 1 -12.0141 -7.23742 -6.55186 19
285 1 -8.88991 4.92249 -4.34369 19
286 1 -1.79957 10.585 -11.0241 10
287 1 7.22806 9.58855 5.12959 19
288 1 -14.0765 -7.63984 -3.07146 16
289 1 -3.39058 -9.86188 -6.01147 21
290 1 -12.9676 -6.32394 5.46743 17
291 1 -11.0552 7.18019 -5.10773 12
292 1 3.10461 -8.28964 5.09839 19
293 1 -6.517 -15.3358 1.58088 11
294 1 3.55858 9.69555 -13.0147 10
295 1 -7.14726 2.93019 -10.4691 19
296 1 -5.36847 -11.2273 -1.12507 20
297 1 15.6383 5.69567 4.92758 13
298 1 -2.59869 -0.264899 7.63482 16
299 1 -15.9404 -1.90534 -2.58705 10
300 1 -8.34657 5.56086 6.53051 18
301 1 -7.96527 -14.4107 6.43925 12
302 1 -0.0341691 -4.01142 -5.75313 22
303 1 5.65219 -5.70695 -10.733 19
304 1 -3.13337 -5.50304 9.65666 22
305 1 -9.56252 -1.43548 3.96566 24
306 1 -1.21808 -6.26231 7.05626 22
307 1 3.64709 -9.49324 -6.37089 18
308 1 0.24536 -8.3739 -13.6097 19
309 1 -5.97762 -5.01373 11.8044 19
310 1 3.18954 -9.73408 -0.908086 19
311 1 -6.85724 1.68672 -15.958 12
312 1 8.56333 -14.9047 0.469022 9
313 1 -1.60203 10.9547 -8.01263 17
314 1 -4.84677 -7.07495 12.772 15
315 1 -6.96098 -5.59072 8.27157 19
316 1 10.4341 -3.89599 10.7702 15
317 1 9.02203 1.97823 -1.03369 20
318 1 -6.32216 4.31963 3.72794 21
319 1 0.939286 -1.55585 -11.1932 24
320 1 10.2634 -7.20462 6.07477 13
321 1 14.3741 1.08058 -6.77745 14
322 1 -5.21806 1.52587 16.211 9
323 1 0.0997977 8.66197 -4.70476 22
324 1 7.51804 -5.57216 6.24247 19
325 1 -5.44512 -16.0133 -3.50992 10
326 1 -1.70548 13.6523 8.85394 9
327 1 -8.48518 -12.7335 -11.3174 9
328 1 4.10911 4.63397 11.9287 16
329 1 -7.69762 0.796294 9.3976 20
330 1 -5.13207 -6.72542 -5.8208 21
331 1 -10.0038 2.31607 7.8223 16
332 1 -9.58571 -7.82581 -9.06424 22
333 1 -5.1513 13.0233 7.62059 11
334 1 -5.89013 -15.5295 -6.71451 11
335 1 -2.75196 -6.7387 -14.4226 19
336 1 -8.77711 -10.8411 -1.16986 21
337 1 -7.60644 -3.25429 6.21479 19
338 1 12.3219 0.254255 8.84422 20
339 1 -7.90295 -7.57062 11.4786 14
340 1 -10.5743 2.48354 -11.9627 16
341 1 10.9642 4.00144 0.984896 19
342 1 -10.7461 -13.3504 -2.76274 14
343 1 1.1542 2.86821 -8.53615 23
344 1 1.85835 13.345 -1.67926 15
345 1 -5.11363 8.06397 -11.579 12
346 1 1.10546 9.09969 6.76788 21
347 1 -12.0135 -3.92805 -4.9904 20
348 1 6.6684 9.22047 -8.45472 12
349 1 -5.29738 -7.19532 -11.6963 20
350 1 -0.945825 -14.105 -9.68775 10
351 1 1.56229 -8.35952 -10.4416 18
352 1 -11.0352 10.2668 2.14207 15
353 1 1.09594 2.73283 11.6222 20
354 1 8.78729 6.4014 0.0409758 19
355 1 -1.3309 7.40728 -1.55041 19
356 1 -5.63384 4.95648 -14.8267 13
357 1 2.14542 0.155231 -9.00462 22
358 1 -2.69406 -7.45358 5.12731 22
359 1 -14.9087 -6.0571 0.142088 14
360 1 -0.896173 1.0322 -15.9001 17
361 1 12.6372 6.09565 -0.369473 16
362 1 6.82203 -9.36499 0.00711006 21
363 1 14.5977 -0.215987 -0.598077 18
364 1 1.90592 -2.81621 -14.25 18
365 1 -0.519642 -9.85742 -1.06153 23
366 1 -2.35173 -15.3251 6.47457 10
367 1 3.49018 -7.91647 8.36241 19
368 1 -12.2058 2.72364 -9.52536 11
369 1 -0.340375 -10.8535 -11.8999 13
370 1 0.976783 0.218793 -13.6518 18
371 1 1.8995 -2.94455 13.0568 11
372 1 -12.2503 -6.36186 -0.997924 18
373 1 13.8834 -3.68344 -9.59066 13
374 1 8.83306 0.770033 -4.1923 20
375 1 -4.99998 10.9077 1.22941 19
376 1 1.96781 -7.20992 -5.81426 22
377 1 6.69335 1.31302 -11.6003 20
378 1 11.365 -4.27882 -7.89512 16
379 1 -6.66798 -1.72692 11.2125 17
380 1 7.92861 9.22334 -0.161904 15
381 1 -3.09149 -6.71618 -17.1048 10
382 1 -5.89354 -3.26807 8.83628 19
383 1 -4.39799 15.2339 -3.68984 10
384 1 -8.5506 -4.10717 -15.926 9
385 1 -11.6772 1.60385 -0.339429 20
386 1 -6.98514 -12.7612 9.31771 9
387 1 -1.62224 7.54621 -7.50487 20
388 1 12.2613 2.47652 -0.991803 19
389 1 -13.7452 -11.1185 -2.08803 10
390 1 -2.34929 -12.8112 -0.461097 24
391 1 -7.64578 12.3522 5.5956 14
392 1 1.29126 -3.13617 -8.6515 24
393 1 2.16962 5.83721 -3.86648 21
394 1 14.2875 -1.94346 -3.42708 13
395 1 3.74202 10.3596 -7.21884 17
396 1 1.59499 -8.72446 1.61652 19
397 1 -6.7267 2.97437 6.82784 19
398 1 5.7771 8.81036 11.0145 13
399 1 -3.59282 1.87312 -16.8769 15
400 1 -6.57637 -6.72969 -8.96859 21
401 1 1.96846 -2.10895 9.77017 18
402 1 9.09251 8.91249 7.8326 14
403 1 3.08221 7.50537 -6.30233 20
404 1 -9.36388 11.8534 -3.13074 14
405 1 -5.29573 10.0272 -4.0063 17
406 1 11.6372 -2.31518 6.11951 17
407 1 12.3424 2.55982 -12.0292 11
408 1 -13.259 -8.98031 0.777159 20
409 1 -1.57961 3.90311 10.307 18
410 1 -4.77765 11.0009 -10.3918 9
411 1 7.11388 -12.827 -0.576524 15
412 1 8.01589 -4.44564 -13.0555 14
413 1 -3.42176 13.6834 -6.15212 10
414 1 -7.81115 -7.67114 -15.0673 13
415 1 3.15189 -15.2896 2.98706 11
416 1 -11.5953 -9.17943 -1.95218 20
417 1 -3.33112 1.43992 -6.47403 20
418 1 -11.0678 -8.81653 6.84079 21
419 1 1.88331 8.0645 -1.69413 23
420 1 4.65284 -12.6108 -5.70753 9
421 1 5.6537 -8.39303 10.1369 11
422 1 5.5844 0.487301 -3.16786 24
423 1 -10.1724 4.59901 3.77432 19
424 1 9.98465 -3.54793 -0.0694593 22
425 1 3.49748 11.4901 8.37258 15
426 1 -2.61073 -1.50115 -11.0332 21
427 1 3.29712 10.6919 5.30692 20
428 1 7.31568 3.5798 -9.43538 19
429 1 0.0571758 -7.44914 -17.0212 13
430 1 -4.43161 -9.25266 -9.16145 17
431 1 -11.7209 -7.07767 -11.6319 11
432 1 14.0649 3.66519 1.81428 21
433 1 16.3329 1.60264 -3.43356 9
434 1 3.78525 -3.91404 -11.7747 23
435 1 6.90794 -6.8799 -4.48582 19
436 1 5.64594 6.37999 4.1429 19
437 1 -9.47873 1.27264 2.00858 21
438 1 12.7735 6.39611 -3.89628 12
439 1 14.1661 -5.41454 1.57204 12
440 1 6.5677 3.81083 -13.815 14
441 1 11.4556 2.04468 13.1226 11
442 1 -1.08201 -4.03356 10.3947 15
443 1 3.24121 -0.0672421 15.5118 6
444 1 13.1137 1.61717 -8.91603 18
445 1 8.81929 4.89455 9.86716 18
446 1 -6.86654 -0.654031 -8.79943 22
447 1 15.3725 6.66563 1.55197 8
448 1 10.7144 -6.82804 0.740492 19
449 1 1.75284 -6.8233 -0.709462 24
450 1 13.8268 0.341502 11.979 11
451 1 3.41739 8.64795 8.91593 18
452 1 5.39646 3.20021 4.87562 21
453 1 -2.73144 10.1956 -1.92176 21
454 1 3.74481 8.44245 -10.1883 17
455 1 10.7498 0.974867 -14.4296 10
456 1 3.55035 10.8356 -1.7398 19
457 1 -3.29381 -16.298 -6.59383 10
458 1 -13.9331 2.35382 4.27246 10
459 1 -3.80273 5.10145 -16.9117 11
460 1 -11.0533 -15.0017 5.42941 8
461 1 -5.16651 -3.5377 -9.687 21
462 1 -12.2941 1.76949 -3.94077 15
463 1 8.40235 -8.1563 3.57808 17
464 1 13.6289 6.83933 6.90778 14
465 1 -0.345281 -9.85553 4.82315 18
466 1 -10.7013 -2.36906 -13.329 14
467 1 6.65629 -0.867864 7.14049 19
468 1 -0.969933 2.42187 13.4829 15
469 1 7.00516 7.2351 -10.3696 17
470 1 4.42267 2.04215 -8.79095 18
471 1 -0.27807 -14.99 -4.86262 15
472 1 16.608 -0.657818 5.00135 9
473 1 8.49736 7.61292 3.37196 20
474 1 13.4109 -7.68364 -0.260034 11
475 1 -4.3528 2.81598 12.1774 16
476 1 -9.64802 -9.75385 1.1367 19
477 1 -13.1669 -2.5686 -10.6468 12
478 1 11.3431 -1.28492 11.2952 15
479 1 -3.5084 -9.35126 11.1935 16
480 1 6.98356 6.16168 11.9166 15
481 1 -8.58721 9.11715 -4.08018 18
482 1 11.0736 2.36073 3.86423 20
483 1 8.94754 3.86286 4.68722 20
484 1 -1.40803 -1.66428 -13.4319 23
485 1 -11.1787 -3.03464 7.19172 20
486 1 4.54651 -2.69227 -8.62827 22
487 1 -1.45832 -7.04337 -5.73829 23
488 1 10.5992 -7.6057 -8.21749 12
489 1 5.70236 4.82147 8.50132 19
490 1 3.20297 5.04702 5.60656 20
491 1 11.8733 9.26172 8.52574 8
492 1 -1.61321 -8.04986 13.6745 11
493 1 -2.58248 3.94741 16.0135 7
494 1 2.98735 -5.745 -8.70481 20
495 1 -8.59156 3.44145 15.1089 7
496 1 8.20862 1.0664 12.1268 16
497 1 14.192 3.73886 -2.54911 16
498 1 4.54431 -8.42466 -9.70598 18
499 1 -5.54551 -1.31372 -6.09923 18
500 1 5.4412 6.11817 1.07378 17
501 1 8.30075 11.4129 2.77086 12
502 1 -3.10534 -3.77338 7.14466 23
503 1 3.55672 12.8246 -4.64543 15
504 1 10.6063 7.63028 1.58059 12
505 1 -4.9611 -8.85137 -3.30997 19
506 1 -3.03041 1.00806 -13.2234 21
507 1 -9.45536 9.22599 -0.660013 24
508 1 5.70177 -6.89319 -13.5397 13
509 1 7.74301 3.57757 1.22678 18
510 1 9.04719 2.28796 -12.7753 16
511 1 10.7018 4.2439 -7.71361 23
512 1 -2.76277 4.21774 4.84433 21
513 1 -6.20471 4.52264 -1.55114 21
514 1 5.80735 5.83927 -4.80756 19
515 1 -2.4686 -8.59519 8.31484 23
516 1 -3.19147 6.51848 -13.9172 18
517 1 5.85962 10.2173 7.40367 16
518 1 1.0355 1.12609 7.97649 21
519 1 7.65817 10.9691 -2.23337 11
520 1 10.6949 9.5356 4.34219 12
521 1 14.4355 -4.23339 -6.22581 12
522 1 -15.4894 -4.44869 2.32164 9
523 1 1.8583 -15.8007 -0.838543 12
524 1 -1.15721 -3.89782 -11.2193 22
525 1 -2.77269 6.11689 8.07118 22
526 1 3.22713 -4.09367 -5.83709 21
527 1 4.07164 8.85918 0.445491 20
528 1 -13.8933 -3.81348 -1.80134 17
529 1 3.93696 -13.6284 -1.34206 16
530 1 8.56255 5.30502 -4.65437 22
531 1 2.74096 -5.77156 2.10798 20
532 1 0.144417 10.6726 -2.03166 20
533 1 4.15935 -1.31827 -15.8323 12
534 1 -1.03091 -10.771 10.7904 12
535 1 5.3062 13.8032 -2.47359 12
536 1 -2.26339 0.591207 15.9907 14
537 1 -6.19034 -9.88036 -12.7381 14
538 1 4.28956 -1.01787 -6.00623 22
539 1 -1.50659 9.10675 8.01838 22
540 1 8.09447 -8.43457 -10.5005 11
541 1 1.59387 -4.93169 7.77806 22
542 1 2.31234 -13.8973 -3.97027 13
543 1 -12.2405 -4.05996 9.64764 11
544 1 -0.556312 -0.366733 -8.96697 21
545 1 -7.45624 -14.1377 -1.53519 17
546 1 -9.03532 -0.719489 11.3434 14
547 1 13.2074 4.57375 -9.37189 8
548 1 -5.23114 -0.654145 7.14614 19
549 1 -12.5422 8.06646 0.690044 14
550 1 10.3635 -4.73668 3.53058 21
551 1 -5.13594 8.62161 -8.90633 19
552 1 11.1868 -1.18935 -8.66839 23
553 1 7.59391 2.91571 -3.80514 18
554 1 -7.51638 2.0917 -6.81785 17
555 1 -10.9295 -11.6204 -10.7037 9
556 1 0.554885 8.57203 -10.1468 18
557 1 -3.81391 -3.56439 12.2159 20
558 1 -6.82658 -12.4065 1.63337 20
559 1 -1.51275 -8.76537 -8.6631 19
560 1 -9.14942 3.08087 -0.792683 18
561 1 5.58431 9.52208 3.13129 20
562 1 -12.8231 -6.15956 2.51971 19
563 1 8.45411 5.67725 -12.2931 11
564 1 -1.75074 -15.9973 -1.3728 12
565 1 2.8359 1.99979 -5.93369 20
566 1 -0.579985 -4.50287 -17.1716 10
567 1 -1.67842 1.26033 10.6746 18
568 1 -0.891742 4.15267 -17.9337 12
569 1 -10.5191 -3.62976 -1.78098 19
570 1 7.58357 -0.398963 -0.220043 22
571 1 -7.05513 -4.20411 -1.35173 20
572 1 13.4271 4.24024 -6.10677 17
573 1 7.84009 -1.94819 -2.68204 19
574 1 -8.24964 5.25543 12.5129 12
575 1 5.5796 -7.32491 2.90058 17
576 1 14.7672 -5.555 -3.16361 11
577 1 10.9799 -5.05674 8.13794 16
578 1 0.690524 11.7659 6.60821 20
579 1 -7.00519 2.11479 12.6685 19
580 1 -4.84129 -13.4467 6.87569 15
581 1 9.55197 1.45312 2.00147 21
582 1 8.16291 3.18561 13.9969 8
583 1 -16.1094 -4.92808 -4.3319 11
584 1 9.14335 -6.81573 -2.0651 18
585 1 0.24062 8.58566 0.717628 21
586 1 8.00655 -2.20959 12.149 16
587 1 -2.04972 12.0436 5.86061 19
588 1 -1.66435 -11.5938 7.55047 19
589 1 -8.70313 -3.71964 -4.44812 20
590 1 4.09718 1.10152 12.7948 13
591 1 6.2114 11.9646 0.185642 16
592 1 -9.13945 -16.0649 3.4364 12
593 1 3.84244 -5.56818 5.95797 20
594 1 8.85321 -2.67149 5.95438 19
595 1 6.62691 7.36917 8.63658 17
596 1 -2.60185 4.35089 -5.79389 24
597 1 2.02652 -10.2216 -8.54089 15
598 1 -2.33889 3.64621 -14.444 20
599 1 -4.4914 -0.21524 13.3876 17
600 1 1.91938 14.1572 4.00782 13
601 1 13.2062 0.297305 1.95861 22
602 1 -0.6471 5.72769 -9.11409 18
603 1 -1.85842 7.09091 11.3296 13
604 1 9.60359 7.78681 10.9286 14
605 1 6.91133 -2.65221 -10.9463 21
606 1 -2.97115 -11.7521 -3.14568 20
607 1 -3.85391 -0.621581 -8.26113 23
608 1 16.719 2.78839 5.78178 12
609 1 1.12997 -4.99081 -11.3421 19
610 1 -1.88387 -8.50443 -3.24091 24
611 1 12.074 -3.83258 -2.54443 16
612 1 1.54512 -9.29782 10.7641 13
613 1 -4.51029 -14.4328 -9.30036 12
614 1 8.19955 8.0126 -3.07301 17
615 1 -8.55951 -6.63497 5.63037 18
616 1 -14.0098 5.74626 3.27531 11
617 1 5.59997 6.4568 -7.92017 20
618 1 5.10497 -4.70909 -15.3737 15
619 1 -6.61659 9.91801 3.6555 19
620 1 3.34743 4.50813 -13.9807 16
621 1 7.91915 -6.67871 0.601536 18
622 1 -9.31639 2.06105 -4.01788 19
623 1 10.8159 6.9162 5.7924 17
624 1 -12.2405 -14.2474 2.1076 9
625 1 2.88821 4.16335 9.25542 22
626 1 -14.6278 -3.95232 -7.3284 11
627 1 -12.0563 4.54956 5.9242 12
628 1 -6.00758 5.35343 -5.5259 21
629 1 9.06764 -5.56956 -10.4048 16
630 1 -12.6701 -9.41959 -5.02778 14
631 1 10.8008 -9.90982 1.57022 13
632 1 -14.1246 5.18007 -0.796647 14
633 1 -10.4567 -4.83662 -7.52323 23
634 1 -8.69226 -8.07446 8.69939 20
635 1 13.8901 -2.82093 4.01666 16
636 1 11.0437 -0.578086 3.80188 19
637 1 -11.3281 5.15307 0.887545 21
638 1 0.786223 8.38362 10.4138 19
639 1 2.39436 5.84925 -8.83843 19
640 1 -4.64516 13.793 4.21265 11
641 1 9.93683 7.2724 -5.92986 15
642 1 0.682737 5.57661 13.3097 10
643 1 8.57905 -6.70351 8.92636 14
644 1 3.35476 12.1708 -10.2803 6
645 1 -3.51495 -1.79379 9.97773 20
646 1 0.0193057 -4.92741 -14.153 20
647 1 -14.3755 -2.26818 0.521868 12
648 1 -8.86866 -10.8113 7.17704 16
649 1 10.424 0.826802 6.37859 21
650 1 -2.27891 -13.1576 -6.60327 20
651 1 -14.1865 2.80939 -1.92265 12
652 1 12.1413 -0.972526 -11.7752 16
653 1 -8.17287 7.16551 3.86 21
654 1 -9.17574 -0.466457 7.24609 20
655 1 -7.51602 -10.0921 -9.59096 23
656 1 -0.542512 -11.5493 -3.81665 18
657 1 5.17748 -15.3945 0.864529 11
658 1 -0.120177 8.69046 -13.1113 14
659 1 11.3391 0.85375 -6.58379 22
660 1 7.70574 6.58929 5.95048 17
661 1 10.3494 -1.12536 -2.65934 20
662 1 -2.61662 -1.52271 -16.8392 12
663 1 0.420568 -8.57794 7.6483 19
664 1 6.565 8.69484 -5.53477 18
665 1 4.35624 -0.808033 -11.2774 21
666 1 -11.1064 4.73259 -2.54292 24
667 1 3.79808 4.25526 -6.3449 21
668 1 -11.0672 -5.95254 7.34804 20
669 1 4.81079 7.81658 6.54075 21
670 1 0.171159 -14.5424 1.22418 19
671 1 5.42064 8.12474 -2.28133 21
672 1 -4.96415 6.90247 11.5542 11
673 1 -9.57494 -4.49197 11.6107 14
674 1 11.4044 3.26722 -4.08526 22
675 1 -5.51837 -7.78244 9.60679 22
676 1 2.95954 -11.6795 6.2796 14
677 1 -5.91863 -1.62253 4.46535 20
678 1 10.291 4.57131 12.0672 14
679 1 8.1126 -6.53246 -7.7413 19
680 1 -4.94618 -0.406382 -15.3417 16
681 1 -8.40838 3.9839 -13.507 15
682 1 -11.3502 -0.385854 -11.3347 13
683 1 12.7429 6.68883 3.1416 18
684 1 -1.81655 7.52598 5.27976 18
685 1 -9.50156 -11.5232 -5.47621 15
686 1 -4.29258 7.16775 -0.182353 22
687 1 15.7355 1.51525 9.25319 12
688 1 -4.71637 -8.16497 2.91223 16
689 1 8.61904 -3.30839 -7.89906 18
690 1 2.50223 -12.1613 0.709362 20
691 1 0.651127 -1.50665 -16.2815 15
692 1 -5.8665 2.49929 -13.1825 22
693 1 -9.269 -6.53922 -1.03804 19
694 1 -10.5144 4.30112 -6.47481 19
695 1 -8.10774 3.9354 9.54882 17
696 1 8.04057 -3.75779 8.52341 20
697 1 -11.429 -11.6195 5.44988 16
698 1 15.6959 -2.30122 1.81022 12
699 1 1.08067 3.48775 -13.3883 18
700 1 15.7855 2.74439 -0.239853 13
701 2 -10.773 -1.10514 -7.16054 18
702 2 -8.03104 14.2902 -5.14501 9
703 2 1.46429 -6.41165 -10.2429 21
704 2 -3.49624 8.09964 12.2904 9
705 2 -8.26738 -6.93189 -10.0236 23
706 2 6.51529 -3.85928 12.2453 11
707 2 -13.8665 -10.3565 -0.239244 12
708 2 -12.1422 6.43509 -3.57149 15
709 2 2.26899 12.5753 7.4718 14
710 2 -12.662 -1.60588 1.66284 16
711 2 9.6089 3.34877 9.03428 18
712 2 -1.64239 -3.12592 -6.51056 21
713 2 -11.3498 -10.7858 -9.1486 12
714 2 -10.8431 0.703111 -4.83385 17
715 2 -3.07469 -5.76958 6.29419 20
716 2 2.48911 2.14765 8.66495 19
717 2 6.63403 -0.593748 -10.9443 18
718 2 1.40141 -15.9351 3.58592 11
719 2 5.80765 0.69177 4.28598 19
720 2 -1.55639 12.8145 1.66704 17
721 2 -11.9704 -2.13518 -12.0773 12
722 2 11.3503 2.03545 7.94505 18
723 2 9.3079 -8.04368 -7.01617 17
724 2 -10.5678 -13.2644 1.42893 17
725 2 -10.2541 -9.44107 8.5174 16
726 2 -6.59154 -14.0462 5.4295 13
727 2 8.62594 -3.86726 3.61209 15
728 2 -0.96253 -13.8329 -7.82868 15
729 2 3.41744 -4.03303 13.0978 8
730 2 -1.69122 7.32028 -9.25972 20
731 2 -9.27588 -10.3253 -3.09282 14
732 2 0.453236 3.71307 13.078 15
733 2 -10.1003 10.8588 0.716037 17
734 2 -4.33458 3.27221 15.8525 10
735 2 -5.05678 10.7679 -2.34256 17
736 2 8.97913 -13.6993 -0.993938 10
737 2 -4.59541 5.21074 4.31989 18
738 2 3.16563 11.6696 -8.46626 11
739 2 5.22819 -6.20161 -3.16694 20
740 2 -2.3294 -1.38011 -9.15372 22
741 2 0.239813 -9.34443 -9.31232 18
742 2 8.2354 -2.52023 -0.627235 19
743 2 -5.03324 1.62102 13.5291 17
744 2 1.743 8.92882 -13.9367 12
745 2 -5.53147 6.79584 -9.99307 19
746 2 11.8771 7.11852 -5.32277 14
747 2 -7.94899 -5.47473 11.5533 19
748 2 -11.1375 8.2387 2.14849 19
749 2 7.9653 -2.03068 -9.1321 20
750 2 -0.371888 -12.4264 -10.3463 13
751 2 -14.2305 -9.23139 2.5171 15
752 2 10.5825 2.68607 -0.333158 19
753 2 -6.54924 9.83808 1.71052 24
754 2 -5.72874 -13.2181 -8.92412 14
755 2 -2.88581 13.8954 4.58001 11
756 2 0.894671 -10.947 10.3989 12
757 2 12.4025 -3.82821 5.11849 16
758 2 -12.9336 1.28959 -2.19129 16
759 2 10.1492 -8.2521 -3.03249 16
760 2 8.72608 -9.91495 -4.97856 14
761 2 6.94269 7.67385 4.50145 18
762 2 8.10634 -13.6732 1.8019 14
763 2 5.6326 -5.04026 5.03081 17
764 2 -8.9514 2.35755 13.4152 12
765 2 14.293 -2.46763 -5.19887 15
766 2 5.30355 8.6783 8.49423 18
767 2 13.8169 4.02914 9.05332 16
768 2 -7.18248 4.00166 13.5085 13
769 2 6.46838 11.1722 3.22514 14
770 2 13.7214 -6.94088 -2.03918 12
771 2 -1.24353 5.78321 -6.80916 21
772 2 -10.0016 -6.26948 -12.1004 16
773 2 -10.3875 0.769169 11.0901 14
774 2 6.58156 0.259204 -7.31586 20
775 2 -6.97277 2.39914 -8.67439 20
776 2 -13.4095 -4.70415 3.31531 18
777 2 -9.64418 -12.9205 -4.18057 16
778 2 14.4228 -1.59104 0.615291 13
779 2 -4.35298 -8.07718 8.08371 21
780 2 -1.04939 -0.805083 15.4948 11
781 2 5.58806 -0.314308 -15.1017 12
782 2 7.8065 -0.632541 12.7878 14
783 2 -0.70265 7.44021 6.83429 20
784 2 -7.68918 -2.39076 3.72864 23
785 2 5.42729 -8.70922 -6.44199 20
786 2 11.0316 -2.45338 -7.32327 21
787 2 -8.35396 10.7169 6.47683 12
788 2 -3.65672 -9.54768 2.09925 21
789 2 8.65133 -6.98633 -9.38912 15
790 2 5.88786 2.21735 -3.94532 21
791 2 3.37051 3.02272 5.56498 21
792 2 8.27305 -6.22737 -3.53167 18
793 2 2.56321 -5.61758 4.30917 21
794 2 -8.06095 -12.2486 3.50712 21
795 2 9.23048 0.503826 -2.37767 23
796 2 -10.248 -10.1274 5.8575 18
797 2 7.23478 5.52946 -9.18492 19
798 2 -1.78188 -8.56207 4.04942 22
799 2 14.1782 -3.54244 -7.9124 14
800 2 -1.76206 -15.4821 -5.84772 11
801 2 12.525 -5.94309 0.647242 17
802 2 -5.37635 13.3748 2.6878 16
803 2 11.2539 0.880045 -8.53982 21
804 2 -4.75133 -7.2853 -9.6421 20
805 2 -15.0203 -7.65489 -4.70952 10
806 2 -2.02508 -7.03638 1.24331 21
807 2 -3.66345 -5.77471 -0.928309 24
808 2 -6.06892 7.63768 -1.11087 21
809 2 -11.1904 9.91032 4.34105 10
810 2 1.01339 -1.47951 -9.23483 21
811 2 9.66906 5.50783 -6.38228 20
812 2 1.59252 8.69429 -8.28868 21
813 2 -7.10411 0.350227 11.4073 17
814 2 -0.907984 -2.57735 -16.7253 15
815 2 -10.8656 6.32321 -0.488792 20
816 2 -3.83842 -2.066 7.70335 17
817 2 -11.7588 3.22667 4.25941 19
818 2 -4.62951 4.51539 -8.77244 21
819 2 7.64734 10.969 0.669737 13
820 2 13.3507 4.33888 -4.22766 16
821 2 10.8287 -5.33048 -2.42282 16
822 2 -11.4018 -2.59645 9.18351 18
823 2 11.6693 1.08654 2.75946 20
824 2 0.64089 10.272 1.63978 22
825 2 -9.72885 5.48318 -12.8621 13
826 2 -9.77214 5.35813 2.10364 19
827 2 9.31184 -4.12119 7.02142 20
828 2 -7.90988 -8.97105 -13.4221 15
829 2 2.20949 5.9253 -14.3463 17
830 2 12.2331 6.42937 -2.1464 13
831 2 -12.3351 -8.27543 10.0484 11
832 2 0.215869 8.96273 -1.22217 22
833 2 -2.71466 9.71091 -3.79738 18
834 2 2.58511 9.62669 -5.80575 17
835 2 11.9084 0.37231 12.3946 13
836 2 1.79932 7.35966 9.20896 19
837 2 14.3614 -5.79481 -5.1086 11
838 2 -1.09704 0.388799 12.3836 18
839 2 2.91162 -5.16587 9.42044 16
840 2 -14.2789 -1.86828 -1.43547 13
841 2 -4.37442 -15.6688 -8.00066 11
842 2 3.49641 -9.08169 -8.3704 18
843 2 4.30117 -2.31524 -12.8429 21
844 2 14.3523 1.94843 2.53231 18
845 2 -4.06068 -0.100422 15.8438 12
846 2 4.37465 0.778379 -12.6471 18
847 2 -7.38233 -11.6622 10.7435 9
848 2 -1.5125 -5.98872 -17.4247 11
849 2 1.25016 -12.4327 -3.43462 17
850 2 -0.347586 -5.82944 -6.51449 22
851 2 3.32637 -15.366 0.216494 13
852 2 14.0067 2.84811 -7.58376 14
853 2 -4.95973 6.53195 -16.2261 10
854 2 -5.79493 8.97011 5.43753 19
855 2 -6.93558 -6.21973 -0.951716 19
856 2 -9.93057 -0.371442 -13.0151 16
857 2 4.50636 8.15351 -11.9871 13
858 2 -2.71502 11.8787 -6.5275 11
859 2 -4.43318 -9.33371 5.39279 18
860 2 16.6829 1.11589 4.92416 11
861 2 -1.65655 2.30282 15.3997 12
862 2 -9.60707 -14.46 -1.34297 12
863 2 7.03026 -8.97774 -3.34839 18
864 2 1.85801 -1.18192 15.2685 8
865 2 4.79699 11.3911 6.58463 17
866 2 12.6747 3.16077 -10.2413 11
867 2 2.23738 4.43542 11.6202 18
868 2 10.4501 7.71501 -7.98895 11