ITEM: TIMESTEP
23000
ITEM: NUMBER OF ATOMS
2000
ITEM: BOX BOUNDS pp pp pp
-30.0 30.0
-30.0 30.0
-30.0 30.0
ITEM: ATOMS id type x y z Coordination
1 1 -11.7282 4.97651 -8.36036 14
2 1 -4.14618 -7.7741 -6.2664 19
3 1 6.46379 11.875 16.2958 18
4 1 10.3434 -7.79578 9.17757 13
5 1 -15.285 10.0188 0.828239 16
6 1 11.2784 -6.69329 -6.82825 12
7 1 -12.2242 4.63709 -4.22076 21
8 1 -4.61569 -6.07816 16.6772 15
9 1 -8.69605 2.09463 -7.97261 21
10 1 -17.0789 -4.43685 7.25859 13
11 1 10.4154 5.48701 -10.1797 15
12 1 -3.35192 4.52002 -3.68116 19
13 1 0.698242 -11.5343 7.27868 19
14 1 -17.5628 -2.14397 5.00374 12
15 1 0.138216 4.74998 20.3903 13
16 1 5.2298 -0.812448 9.0893 22
17 1 2.06205 6.74505 14.4327 20
18 1 8.03664 -0.0525021 4.5546 19
19 1 -1.45608 12.4651 -4.86487 20
20 1 1.12406 -4.67361 17.1204 13
21 1 -11.6178 2.05429 -10.6486 10
22 1 -12.7039 -0.994318 13.5888 19
23 1 11.5388 9.06824 11.2358 17
24 1 1.42824 13.1959 -8.55144 18
25 1 1.69963 5.14067 -9.36886 22
26 1 14.7152 5.25026 13.9633 12
27 1 -9.22365 2.52892 2.80314 23
28 1 -17.0053 4.00773 -4.85811 12
29 1 -5.8906 4.76814 -5.01933 19
30 1 -10.6884 12.9136 13.6957 13
31 1 9.08701 -11.3138 9.12766 6
32 1 -0.846934 -0.240946 13.4324 20
33 1 5.96782 -10.0157 -6.96469 12
34 1 8.68081 -8.69043 4.08064 18
35 1 -4.97043 -11.0275 -2.06529 18
36 1 -12.6424 -3.8915 15.8825 10
37 1 3.97341 -0.046157 0.0801993 21
38 1 0.424283 -3.0668 -10.248 22
39 1 9.659 -5.6658 -8.93163 14
40 1 -4.31147 7.11767 -12.1782 15
41 1 2.68663 7.05599 22.6 14
42 1 -3.89415 -12.1022 11.03 15
43 1 6.02996 -3.39452 16.9445 6
44 1 -14.514 3.32825 5.14054 21
45 1 -15.4007 2.2946 10.1828 15
46 1 -10.238 1.46839 0.551019 19
47 1 -1.30119 17.7932 1.28108 16
48 1 -0.140833 -11.7811 -7.38069 11
49 1 0.539815 2.39763 -7.14691 19
50 1 6.69907 -4.33015 -8.41104 22
51 1 -2.88923 -2.32497 14.9974 21
52 1 -12.7332 8.1628 1.2845 18
53 1 6.64158 14.4866 -6.87086 15
54 1 1.47 15.1074 14.2748 17
55 1 -7.79679 7.43424 -4.67359 20
56 1 -3.53333 16.1802 5.11594 18
57 1 4.63745 -7.11365 9.37669 19
58 1 5.26049 -1.72876 -2.69762 21
59 1 7.50211 -5.31612 -11.242 14
60 1 -8.00577 11.4588 17.194 13
61 1 -15.1695 -1.20944 -2.70487 19
62 1 1.91176 2.81648 10.4898 19
63 1 -11.7081 10.8158 -0.595399 23
64 1 -6.66605 -7.93084 8.54412 24
65 1 -3.07901 14.9832 17.2117 13
66 1 -15.1357 6.45651 -3.60811 15
67 1 -7.44009 13.8759 14.5594 20
68 1 -1.47231 10.6092 2.5165 20
69 1 3.00267 6.71265 10.0952 18
70 1 -6.40366 -6.50822 10.9516 19
71 1 3.53957 8.81136 12.3419 23
72 1 5.62217 -13.1135 0.604134 11
73 1 0.885559 13.6187 19.9608 9
74 1 -15.8404 0.707931 -5.48643 13
75 1 -14.7953 5.77517 -6.7745 11
76 1 6.47841 9.23053 16.9325 20
77 1 11.0453 1.27726 -3.9132 22
78 1 10.1182 -8.3689 6.46601 11
79 1 -16.9812 -0.733655 2.61391 11
80 1 -9.4642 0.219529 5.30394 23
81 1 6.88432 19.3579 8.26583 11
82 1 3.15645 -3.90126 13.9311 15
83 1 -6.32216 -9.94871 11.4806 18
84 1 -12.6892 3.41315 1.5919 19
85 1 11.7211 5.79603 9.15526 19
86 1 7.48304 2.34035 1.87344 22
87 1 -1.82556 16.5343 13.3321 23
88 1 0.323246 -1.25032 11.1321 18
89 1 -10.7322 -2.90145 3.5218 20
90 1 -3.50518 -4.14523 -6.6017 21
91 1 -13.6996 8.1688 12.5839 13
92 1 -6.83697 18.2125 1.73374 11
93 1 -2.89697 10.5154 -2.98808 21
94 1 2.50626 4.2796 -3.57251 19
95 1 4.07465 1.43211 -2.76845 17
96 1 8.60808 14.4569 -1.68367 18
97 1 12.3234 -2.89926 8.98159 15
98 1 7.24288 -4.07172 13.6482 12
99 1 -4.38617 17.6996 0.230418 16
100 1 -11.5941 17.7192 6.85078 6
101 1 -4.70119 -1.0916 17.6961 15
102 1 -3.80275 11.4585 8.23521 17
103 1 -6.23896 -2.63576 10.588 20
104 1 12.7614 -4.61872 -1.24651 20
105 1 -9.42674 7.04359 9.63221 19
106 1 -13.3897 -11.3561 3.66889 12
107 1 9.8736 0.359212 -1.4591 20
108 1 4.62582 4.76017 -9.06331 20
109 1 -7.3692 3.88551 -13.5423 9
110 1 3.89801 2.04511 7.77835 22
111 1 -2.08825 14.2591 7.12136 18
112 1 -11.7069 9.14633 -4.08517 20
113 1 -0.736746 10.6825 21.2174 11
114 1 -0.0255948 13.0388 0.784682 21
115 1 -16.9421 11.9476 3.01513 12
116 1 0.835587 14.2141 6.23397 19
117 1 -7.4356 -4.65838 8.13205 21
118 1 15.1153 3.87877 11.0864 14
119 1 -1.98126 -3.25123 -4.36308 22
120 1 8.15669 -4.16439 -2.25808 22
121 1 -2.06852 8.18208 8.03284 19
122 1 6.78897 0.602036 17.4014 14
123 1 -11.3183 -4.41635 -0.307298 19
124 1 6.12137 -2.06543 5.32713 19
125 1 -11.5102 -6.6598 2.15612 19
126 1 11.6889 -6.77978 4.15323 17
127 1 -6.49993 9.91885 8.67894 18
128 1 5.52411 8.03186 -8.07336 18
129 1 4.98068 18.1923 3.42122 15
130 1 -9.22031 -6.95487 12.7171 13
131 1 -9.56805 -9.2161 10.1698 16
132 1 -4.40747 8.88917 5.59384 17
133 1 4.62644 -7.43105 -11.6851 14
134 1 4.81422 9.84173 -5.58289 20
135 1 14.6469 -7.95899 2.14091 9
136 1 -3.16648 -13.0576 7.85437 18
137 1 -8.50924 -9.63164 1.32842 20
138 1 14.3763 10.0001 12.2157 16
139 1 13.3902 -0.0256907 -1.69199 19
140 1 -12.9275 -0.975038 5.5314 17
141 1 16.5546 9.49966 10.1215 12
142 1 14.2004 16.2095 9.50107 8
143 1 -6.97038 4.18977 19.1407 10
144 1 7.16816 5.45832 4.63268 21
145 1 -3.65759 13.9085 13.9252 20
146 1 -6.74665 16.9828 -1.67447 14
147 1 -5.3316 -2.71402 -8.89954 22
148 1 9.27784 -7.07244 -3.43457 22
149 1 3.73917 15.7075 -8.70388 10
150 1 8.49211 0.0907837 14.5137 21
151 1 1.78658 -3.2378 -12.8608 14
152 1 -5.80092 11.406 -0.530332 21
153 1 11.1223 4.38758 1.71676 18
154 1 -10.1385 12.1638 -3.63867 19
155 1 -8.77827 15.2355 1.774 16
156 1 7.93257 4.30643 -5.31351 20
157 1 7.32974 -7.30018 6.92886 22
158 1 -7.84411 4.68451 -2.77735 21
159 1 -5.78621 18.3068 13.5775 11
160 1 13.1899 9.38262 -5.86423 13
161 1 3.96545 12.7738 1.18014 21
162 1 -2.54947 19.4363 7.33655 10
163 1 10.5037 10.128 0.380091 20
164 1 -2.30775 15.1705 0.475428 20
165 1 0.906099 15.7646 -6.76337 15
166 1 3.0476 9.87234 -12.3095 14
167 1 -15.0539 -8.88686 5.60649 12
168 1 -18.3576 9.21739 1.78261 10
169 1 -2.9193 -3.0104 -11.1761 24
170 1 -1.7355 -5.03292 -9.006 22
171 1 8.44685 16.0632 16.6285 10
172 1 2.91071 18.541 13.4044 14
173 1 -12.4119 -3.06896 -3.7381 22
174 1 -11.5206 13.9853 1.78943 15
175 1 16.608 1.44711 2.75673 8
176 1 -14.3252 3.09178 -6.78245 16
177 1 7.81644 5.64072 15.7318 20
178 1 3.85315 19.0633 6.65755 14
179 1 -5.42684 12.8017 10.9044 19
180 1 1.46558 -6.73265 -10.1069 19
181 1 -3.22497 18.075 16.1257 14
182 1 -3.17967 13.9826 -1.91875 22
183 1 -0.503743 -7.54235 16.0904 16
184 1 -14.799 -2.89264 8.5921 17
185 1 -2.12984 -10.9346 -10.1592 8
186 1 -7.23523 12.6581 -5.81952 14
187 1 -6.12593 -8.20428 4.158 20
188 1 5.45547 -10.4592 -0.390154 20
189 1 -2.65013 9.35589 -6.07429 18
190 1 -17.0964 4.98365 13.0895 6
191 1 0.225568 12.3934 3.98449 21
192 1 10.0015 9.86117 -5.296 17
193 1 -7.98748 8.08094 18.9966 10
194 1 -0.882843 -7.81649 12.6246 20
195 1 -12.707 6.14497 4.36327 20
196 1 2.03574 16.5827 8.03871 20
197 1 0.496351 10.0362 13.5101 22
198 1 14.5064 7.58683 16.6991 12
199 1 -7.08506 15.6361 9.68311 16
200 1 13.193 -1.92074 -4.21598 14
201 1 -5.53715 15.8374 14.7686 15
202 1 -8.69825 1.89591 -5.22337 22
203 1 11.5238 -4.78427 6.43001 17
204 1 -5.08412 -5.61708 8.31047 17
205 1 -15.1302 -0.399205 7.75357 16
206 1 -9.74353 -6.08193 4.97597 22
207 1 6.8803 11.3177 19.6959 17
208 1 -15.8768 3.04359 0.180317 17
209 1 -3.52512 -13.3278 1.57478 18
210 1 -8.14733 -0.77271 2.70065 21
211 1 4.4496 -4.75194 -1.18268 18
212 1 -5.72998 14.2091 6.88085 20
213 1 -8.08508 2.55402 5.73707 19
214 1 3.85712 14.401 16.2252 18
215 1 -6.1257 0.0794799 0.253768 21
216 1 -8.62518 14.8707 -3.79039 12
217 1 -15.1544 -5.09098 -2.98261 10
218 1 -7.42248 3.21265 16.0893 21
219 1 -0.871574 -8.00933 7.48905 19
220 1 -1.20537 -11.3644 12.6943 15
221 1 -13.6979 12.6854 5.1457 16
222 1 17.3698 8.54666 7.34565 9
223 1 5.94476 6.42271 0.732253 19
224 1 -7.28043 -8.30836 -11.054 9
225 1 5.10692 1.93815 11.098 20
226 1 5.49329 -11.2871 9.41005 15
227 1 -4.34234 5.9497 -9.80463 17
228 1 3.66006 -9.17406 -9.17616 12
229 1 7.15751 3.73613 -10.5521 16
230 1 3.50046 7.20503 -11.1843 20
231 1 -6.5753 -0.890843 -4.07191 22
232 1 -3.10564 17.5501 -2.47996 14
233 1 -9.10971 -5.82929 15.1491 15
234 1 7.56878 17.4867 1.88708 17
235 1 -9.31487 5.3617 17.3876 16
236 1 -5.86429 14.2646 0.169533 22
237 1 2.98706 -0.391833 11.3681 19
238 1 -6.15388 -4.61598 -11.3804 17
239 1 -6.47219 13.151 -2.68794 21
240 1 1.65299 8.8627 -5.69414 20
241 1 -10.5364 -8.99244 7.61307 19
242 1 -5.09336 7.93492 13.0446 20
243 1 -7.69319 10.0264 11.0561 23
244 1 1.12112 -8.97625 -2.83974 19
245 1 -7.38274 -13.2454 2.2761 13
246 1 10.6692 -8.95326 1.62668 17
247 1 4.79098 -3.93792 2.98926 21
248 1 12.0291 9.57376 17.375 19
249 1 6.97926 10.6976 -6.93504 20
250 1 -1.07498 14.9092 3.7024 20
251 1 -11.6402 4.08351 7.14308 20
252 1 -9.2377 12.1387 -0.550299 24
253 1 3.10328 7.19009 17.0358 23
254 1 2.59976 -14.3736 4.95838 9
255 1 10.1608 7.9646 2.06677 19
256 1 2.43504 11.7265 11.745 21
257 1 -10.879 9.94074 11.5578 20
258 1 -9.98552 -7.19921 -0.370588 22
259 1 7.53513 5.07534 -8.11389 18
260 1 4.23551 1.87536 13.4495 23
261 1 6.34926 10.2988 -2.99803 19
262 1 4.55106 -7.22951 0.953357 25
263 1 -0.61003 -0.533584 -5.41 20
264 1 -0.807397 -12.5674 9.63921 17
265 1 8.32046 1.78483 -4.17893 18
266 1 -13.7605 -0.47811 10.6594 22
267 1 2.40135 -12.4416 -0.0282682 13
268 1 -9.82887 -3.36494 -5.30265 21
269 1 2.47721 14.4639 -0.713466 17
270 1 0.700657 -0.484937 -12.8922 15
271 1 5.36624 5.4105 20.9347 13
272 1 14.9635 6.76753 2.77895 10
273 1 -4.541 -3.30614 5.25962 22
274 1 6.49762 2.23258 -7.36349 20
275 1 -2.53029 -6.08086 4.81103 19
276 1 -6.70554 0.033388 -9.7764 19
277 1 -14.1545 1.69774 -3.71584 21
278 1 -9.14424 -14.4882 9.43042 10
279 1 10.0686 3.37522 14.7673 20
280 1 2.35479 -3.57305 10.3002 19
281 1 -4.93613 -5.95957 -8.24216 19
282 1 0.708285 -3.79588 7.70619 20
283 1 0.52776 11.8307 -12.9593 12
284 1 5.88133 8.80164 4.73223 17
285 1 -12.4755 -5.83713 4.47945 18
286 1 2.87183 12.0449 7.2632 21
287 1 -5.43277 0.33321 10.8718 19
288 1 -9.88959 -7.32177 -5.40841 15
289 1 -4.21824 -1.25689 -6.14267 22
290 1 -2.278 10.076 -13.2266 12
291 1 -6.69487 -5.41326 -0.503737 20
292 1 -6.55231 -5.85363 5.49405 18
293 1 9.11008 0.545441 -6.84308 20
294 1 14.1682 1.79916 -4.30513 12
295 1 13.8535 8.01967 8.44087 19
296 1 -1.22351 -2.86623 0.100995 20
297 1 -8.337 -1.13511 13.8335 20
298 1 -2.69354 -7.75191 1.87201 20
299 1 8.36344 5.70412 19.7985 14
300 1 -8.51594 -13.3235 6.48483 12
301 1 2.32849 8.39361 0.0803785 19
302 1 -0.544156 -8.72298 4.95206 22
303 1 4.02048 16.5691 1.14484 21
304 1 3.38472 0.0563096 -10.5364 17
305 1 -8.92923 0.813939 -12.8956 12
306 1 2.84715 -3.07016 5.30275 20
307 1 -7.39447 -6.21982 17.454 11
308 1 0.740872 9.19652 23.9174 9
309 1 5.1014 -9.67168 3.41407 19
310 1 -2.90918 -10.9967 -6.67871 17
311 1 -12.4685 7.02137 -6.02784 16
312 1 11.3199 12.905 8.41882 18
313 1 -7.16745 5.36663 -7.51711 19
314 1 -2.6328 8.68866 -9.93109 14
315 1 -6.46476 1.27893 7.81613 20
316 1 7.57916 -9.10425 -4.66925 19
317 1 -3.97949 18.5464 3.35824 14
318 1 3.59393 13.7967 9.72002 21
319 1 6.89509 2.03811 8.69427 18
320 1 -9.84532 1.77009 8.17991 18
321 1 -4.67882 -4.36272 19.0309 10
322 1 -7.6615 12.6975 8.53558 18
323 1 -0.697315 -0.208393 -10.801 19
324 1 12.5312 11.6856 -0.377795 16
325 1 2.07753 -6.21148 8.43801 20
326 1 -1.88714 0.252884 17.0174 18
327 1 -16.3287 1.04255 5.09813 16
328 1 -1.22846 -11.7194 -0.990234 19
329 1 -11.1654 8.14381 17.888 7
330 1 -8.41187 7.38577 12.4017 20
331 1 -13.892 -3.66927 12.4102 14
332 1 -16.3237 -2.34745 10.9175 13
333 1 12.175 -5.5059 1.65582 22
334 1 -15.807 -5.90551 10.365 13
335 1 8.15681 -1.1935 -3.48459 19
336 1 12.437 -7.5321 -3.65323 14
337 1 4.86153 19.3946 0.030968 11
338 1 -4.54655 -1.79623 7.956 22
339 1 -11.3758 13.7754 -0.848406 13
340 1 -0.943958 1.6125 10.79 22
341 1 11.965 11.2631 14.058 22
342 1 -13.0115 1.94067 8.18358 17
343 1 12.9214 -7.78846 -0.323485 14
344 1 -6.14848 11.0051 5.48901 18
345 1 -9.85209 10.4345 8.45497 17
346 1 3.96764 -9.29011 12.0289 11
347 1 12.9571 -0.0712612 7.37191 20
348 1 -0.953412 6.658 14.1986 18
349 1 -7.46612 -2.51359 -0.407978 20
350 1 -1.63784 2.85144 18.2327 14
351 1 -0.793263 16.6419 9.58236 21
352 1 9.08451 8.93613 18.8412 17
353 1 -8.71935 15.1265 -1.30233 15
354 1 4.65035 -4.82384 -12.8713 11
355 1 -7.61589 2.80627 -0.488043 21
356 1 6.55478 -7.3558 -8.9214 17
357 1 -11.592 9.50356 14.8708 13
358 1 -17.6045 4.35394 5.97402 13
359 1 -3.26983 0.904106 -4.67161 18
360 1 -4.75217 10.2996 2.34536 20
361 1 5.25959 -2.10135 12.442 18
362 1 -10.6437 -9.14999 3.80576 21
363 1 8.29189 -5.99061 11.5595 15
364 1 -6.30168 -7.63495 13.8447 14
365 1 -15.0819 9.53314 3.80644 20
366 1 -0.482387 -5.27586 10.6534 18
367 1 6.98178 -8.22759 -1.76408 20
368 1 -5.76201 1.3569 -6.45067 20
369 1 5.68506 -2.37061 -10.8616 17
370 1 5.4585 16.0035 9.41058 22
371 1 -12.2958 0.160926 -2.25324 20
372 1 2.6306 -7.02574 -4.7445 19
373 1 8.70664 5.61036 -12.6076 10
374 1 -3.59968 -13.7442 -4.65368 9
375 1 -15.1077 -5.87481 0.702759 13
376 1 -2.50948 -4.11023 2.63164 22
377 1 11.6598 6.83202 18.5983 11
378 1 8.75117 5.41054 1.48022 22
379 1 -9.45549 4.89949 -5.55282 23
380 1 6.387 17.3604 5.95364 19
381 1 -16.745 -0.46892 -0.295592 13
382 1 -8.56954 12.7925 11.9484 19
383 1 -10.8244 14.835 4.76488 15
384 1 -6.10749 6.71275 10.4168 19
385 1 9.40741 8.45015 15.7156 20
386 1 12.0136 1.39216 0.936438 22
387 1 8.87696 -1.55471 17.1679 10
388 1 10.6853 4.85355 -3.68507 20
389 1 -6.00479 -13.1296 -0.54319 12
390 1 0.0962918 7.77667 11.2483 21
391 1 -6.301 7.51668 2.49032 19
392 1 2.03925 -6.71859 -1.28759 21
393 1 0.0798913 12.9249 9.90977 18
394 1 -9.88019 2.22308 -2.84079 18
395 1 4.44398 -5.44577 5.63038 20
396 1 15.8852 2.03377 8.47038 13
397 1 -10.084 -0.992686 -4.16176 20
398 1 -8.43481 -8.3213 5.99367 20
399 1 -9.34455 -3.39903 17.6749 10
400 1 -3.63868 13.7882 2.44233 19
401 1 -13.2479 -7.48347 -0.495334 14
402 1 4.02198 12.9567 19.3473 14
403 1 -10.1893 7.39215 2.68214 20
404 1 -0.287452 13.2595 -2.15394 20
405 1 8.5502 17.7494 10.0703 13
406 1 -16.6602 -6.13998 3.91965 14
407 1 -3.65323 -5.70996 -4.34259 15
408 1 -14.4083 5.93505 7.66727 21
409 1 -14.0729 9.6704 -2.49838 13
410 1 9.81109 -5.21171 8.7536 19
411 1 -5.29922 -10.7033 1.99169 19
412 1 9.66952 14.1355 13.7688 19
413 1 3.27636 10.1964 -8.18464 22
414 1 -11.7027 2.51273 -6.43924 21
415 1 -1.65251 15.6722 -5.30702 15
416 1 -9.81211 4.79186 0.565612 18
417 1 -1.91003 -11.1674 6.44836 23
418 1 11.4654 11.1678 5.93701 14
419 1 0.432057 8.9551 -14.4394 14
420 1 -3.98903 3.04773 10.5449 22
421 1 -17.9689 5.61878 1.02235 13
422 1 -9.0621 4.76793 11.272 16
423 1 -5.41191 -10.7382 6.66084 22
424 1 0.43087 -4.23129 -2.5562 16
425 1 8.1189 -5.81555 -5.59789 23
426 1 -5.24094 -2.1876 13.5427 17
427 1 -12.2217 4.32205 9.83246 19
428 1 -15.6247 -0.0211958 13.1938 11
429 1 -17.4757 7.38014 6.97317 13
430 1 -2.36614 -3.37162 12.053 17
431 1 -9.3488 3.34252 -10.6862 15
432 1 9.88828 -6.43769 -0.194975 19
433 1 -1.11872 -6.16213 -6.118 20
434 1 -6.60565 -3.07395 16.5735 22
435 1 2.70206 -2.91783 -0.0826701 21
436 1 -4.4348 2.64785 -10.6695 19
437 1 4.68062 -8.7192 6.94192 22
438 1 1.23653 11.0439 -0.102321 20
439 1 -11.2682 13.1574 10.364 12
440 1 -5.61535 0.452177 15.4097 17
441 1 -9.26106 -5.52271 -10.9885 10
442 1 -9.58674 -3.23839 10.2031 22
443 1 12.5211 -2.07785 12.4877 11
444 1 3.31704 5.52148 -0.368204 20
445 1 -7.06939 7.98544 6.91265 17
446 1 4.05693 -0.496478 -5.38609 18
447 1 10.9269 -5.13878 11.9371 12
448 1 13.1393 8.28147 -0.186329 18
449 1 -1.35926 3.43995 15.1703 19
450 1 -0.529296 17.0825 6.15974 20
451 1 8.73651 -2.91518 11.3202 19
452 1 -3.0373 -13.6171 -1.49369 13
453 1 -5.23306 10.6579 18.7596 12
454 1 0.512545 18.6415 11.8333 17
455 1 -8.47189 -6.28989 -3.20727 20
456 1 10.5581 16.9895 3.84095 13
457 1 5.92901 10.2093 13.0853 20
458 1 -6.72619 6.59356 15.0538 20
459 1 -4.11492 -2.8044 0.353679 20
460 1 -9.6424 4.92263 14.4109 17
461 1 -8.75625 -3.50898 -2.30221 21
462 1 -5.24364 15.5451 11.9017 21
463 1 -4.631 -7.4228 -2.25193 20
464 1 -3.85957 -6.52008 -11.0978 15
465 1 -3.19559 -10.0404 3.81118 24
466 1 -8.30552 -1.57388 7.78989 21
467 1 8.79785 2.07287 11.7175 17
468 1 -8.01837 -3.66108 13.2434 21
469 1 -9.39059 7.12907 -8.23603 16
470 1 5.27419 4.52844 7.02538 19
471 1 -9.22141 -11.8353 -0.136947 11
472 1 -1.42822 7.3298 -4.00018 20
473 1 -0.915291 19.2387 3.88384 11
474 1 -4.72504 7.78051 -3.49889 22
475 1 -2.20374 9.28317 13.302 20
476 1 -14.7129 1.32371 2.68462 17
477 1 2.07572 18.0182 -1.03285 15
478 1 4.96249 12.8555 -4.81353 22
479 1 -7.45878 -6.24698 -6.35381 17
480 1 2.57016 4.21012 21.5919 11
481 1 1.62885 -12.0617 -4.00486 11
482 1 -4.30019 -0.247439 -15.3929 13
483 1 7.17346 -10.1495 6.92873 16
484 1 -10.8666 13.5667 7.17368 16
485 1 4.28608 9.62706 18.6302 19
486 1 7.97636 8.07475 -0.877475 20
487 1 4.11245 12.1298 4.24343 20
488 1 -10.1993 10.0481 -6.45965 14
489 1 0.132977 5.81305 -5.98925 22
490 1 -0.268747 -7.09517 2.74536 19
491 1 -13.0208 -3.40239 2.35043 20
492 1 5.86537 18.5571 11.5984 13
493 1 -7.31065 9.88732 -7.26982 14
494 1 9.02638 9.24234 5.36618 19
495 1 7.16938 16.0316 -4.13895 14
496 1 7.27639 -3.40746 3.09381 23
497 1 14.4819 3.52951 1.33087 16
498 1 -4.24984 -0.250045 -8.57313 18
499 1 2.73636 -5.46757 2.28223 22
500 1 1.8189 -8.96999 7.19097 18
501 1 1.93386 -7.03278 14.9928 12
502 1 -10.3089 6.50391 -3.23615 20
503 1 -13.7489 -11.2783 7.21196 12
504 1 -0.353293 -9.08019 -5.74979 19
505 1 11.6163 15.7189 9.17769 17
506 1 -1.16081 5.25389 -11.4774 15
507 1 1.32281 1.96194 18.8661 12
508 1 -13.9025 4.7449 14.2654 14
509 1 -1.18859 -13.7666 3.96694 14
510 1 -13.7858 0.710438 0.175695 22
511 1 15.1461 -2.26888 -1.3428 11
512 1 9.60943 2.38924 3.7406 22
513 1 -7.95308 9.44684 0.812557 21
514 1 2.84111 -9.84879 -5.99851 17
515 1 2.57705 7.47044 -8.04426 20
516 1 12.5134 2.956 -1.07 21
517 1 -4.93281 1.99369 17.8576 14
518 1 6.75779 14.3135 6.38318 17
519 1 -5.67486 1.67548 -13.2992 16
520 1 2.15581 3.44536 -15.0274 14
521 1 -11.0099 -0.485682 8.40235 19
522 1 -3.88205 16.4681 8.45386 18
523 1 -6.35064 -1.45575 -12.4149 16
524 1 -16.9865 3.48021 3.28351 17
525 1 -0.786792 -8.17715 -11.5538 12
526 1 -10.1578 -6.35896 9.20535 18
527 1 0.465216 10.0262 -3.13717 19
528 1 15.0749 7.14565 11.239 16
529 1 10.4668 5.45109 4.32964 19
530 1 -12.2878 -10.5098 0.318881 13
531 1 -0.179626 -5.40418 0.561013 20
532 1 -1.54725 -2.40851 -13.9608 17
533 1 -8.22978 15.632 12.3563 14
534 1 0.201759 -3.35914 -6.89846 20
535 1 2.36198 9.14298 5.54606 19
536 1 12.9727 2.82339 4.93075 18
537 1 0.0117652 16.0318 -1.83145 21
538 1 7.94396 -4.3051 5.97827 22
539 1 14.6208 8.28284 -3.20334 13
540 1 1.66096 10.5997 18.4332 18
541 1 -11.4211 6.64765 12.3362 22
542 1 7.97213 10.4868 10.4125 17
543 1 9.48839 1.36026 18.9199 8
544 1 0.500503 2.8699 -12.3856 16
545 1 -5.53948 -4.08747 -2.86559 20
546 1 4.15175 1.8396 16.5164 18
547 1 8.65564 14.4521 10.0195 19
548 1 7.44043 7.57602 -5.36853 19
549 1 -8.18733 9.97619 -2.67111 17
550 1 1.57782 17.8151 2.14286 15
551 1 11.9725 0.276486 15.2292 13
552 1 9.38443 2.49231 -9.3543 15
553 1 15.2465 -6.53492 -1.3407 9
554 1 13.0792 12.9766 17.2779 13
555 1 -14.8558 -3.65749 5.27388 17
556 1 -4.64274 16.2485 -3.93925 13
557 1 0.21676 -2.38222 15.4102 17
558 1 -13.4139 1.26606 15.8222 12
559 1 -1.88248 14.1326 -7.79197 12
560 1 7.47863 -8.91531 1.30055 21
561 1 5.04816 3.16381 -4.89478 18
562 1 -0.788779 19.129 -1.05986 9
563 1 -6.43174 -3.50031 -6.19049 19
564 1 2.422 -8.96258 3.37569 16
565 1 -11.7592 0.00682784 2.7802 19
566 1 3.43506 12.9645 -10.9285 14
567 1 -7.36421 5.05723 1.37044 19
568 1 -1.48034 12.0535 16.0619 15
569 1 -10.9205 -3.71062 12.9806 19
570 1 4.09645 7.49711 2.57615 23
571 1 5.14091 -6.04033 -6.51347 20
572 1 -1.14771 -11.1354 15.7105 10
573 1 8.9815 2.94496 -0.422548 20
574 1 -12.0624 9.71761 4.99903 18
575 1 2.15126 5.9593 25.354 4
576 1 7.07217 16.8582 -1.09395 16
577 1 12.6684 -1.78635 0.882573 22
578 1 4.49718 12.6335 14.0843 21
579 1 -1.30711 4.21333 -14.9154 20
580 1 -8.78097 -12.1563 11.192 11
581 1 -1.80963 2.82069 -5.7363 18
582 1 2.40308 -0.04402 -16.038 9
583 1 3.23811 18.4616 9.9656 15
584 1 10.2048 6.67936 -6.32755 19
585 1 -3.71154 -0.303484 -11.4074 20
586 1 -5.55189 -8.19487 0.511951 19
587 1 -8.9057 -3.14352 -9.42683 18
588 1 11.4645 3.9404 6.85973 22
589 1 11.1426 6.17772 -0.648107 20
590 1 11.0911 -2.16286 -2.04472 21
591 1 14.4544 10.6891 15.5638 15
592 1 6.97151 -5.45433 0.44893 24
593 1 1.70465 5.59809 -13.7399 18
594 1 6.77179 11.9341 3.00082 18
595 1 -10.0835 6.9396 6.21325 18
596 1 10.177 14.704 17.978 10
597 1 12.416 11.3276 -3.91089 13
598 1 16.5997 3.17864 5.94464 12
599 1 13.0552 7.61042 -8.85456 12
600 1 5.93752 6.00605 17.6053 19
601 1 16.4307 8.06322 14.4177 8
602 1 0.485775 -4.90684 13.396 19
603 1 11.5075 13.8484 -2.32599 10
604 1 5.46994 4.41732 3.26238 23
605 1 1.05402 0.891714 16.2223 17
606 1 15.6061 2.72759 -2.06463 11
607 1 6.12405 4.31483 12.7219 21
608 1 -7.75372 -0.950764 -6.89559 23
609 1 14.9792 9.0743 5.1055 15
610 1 10.2576 -3.43413 3.70872 20
611 1 0.335404 -3.65454 3.29762 20
612 1 -12.4865 6.71778 15.4705 14
613 1 7.3012 14.1272 14.7998 19
614 1 11.5526 5.7923 15.4611 21
615 1 4.49119 15.7128 12.6419 23
616 1 2.57628 17.776 16.1507 12
617 1 3.11873 4.93642 11.9743 21
618 1 -3.09873 -15.242 5.12261 9
619 1 -7.81819 12.167 2.35763 19
620 1 9.73407 12.7822 -7.39582 13
621 1 12.1486 0.209823 -6.62514 11
622 1 2.24962 17.0979 4.62026 18
623 1 -2.68005 -9.36998 -3.58915 19
624 1 9.24642 -3.27098 -7.0098 19
625 1 -17.1108 5.23752 9.6755 12
626 1 -5.61617 10.3416 -4.49958 17
627 1 -5.85872 -13.7691 7.7882 14
628 1 -1.90037 1.37744 -8.58934 21
629 1 -12.9498 3.53418 -1.22978 18
630 1 10.6985 -0.634031 10.1007 20
631 1 12.0691 15.2961 5.77399 15
632 1 1.13321 -5.97316 5.69908 21
633 1 -10.4808 -0.201895 -7.49507 20
634 1 0.0728641 5.93393 -16.3342 10
635 1 1.91783 -0.930017 8.40665 21
636 1 -1.73254 6.24052 18.2477 18
637 1 5.02661 9.86614 -10.1257 17
638 1 13.0501 3.09593 13.4891 15
639 1 4.87397 7.71504 -2.17685 19
640 1 9.75103 11.2069 3.50826 20
641 1 4.87977 -10.9014 -3.88056 13
642 1 -10.4235 1.10802 15.5396 17
643 1 10.254 3.49265 8.9417 18
644 1 -0.364544 16.794 17.8362 9
645 1 9.67729 15.8173 -7.02431 5
646 1 -14.3853 13.3739 0.684063 10
647 1 8.76358 12.1343 6.92581 21
648 1 -10.2518 -12.2522 2.70388 14
649 1 14.2968 -3.22137 6.48372 12
650 1 10.0475 18.1666 6.84438 13
651 1 -1.05566 4.27895 11.9587 20
652 1 -10.4384 -3.21483 6.70505 22
653 1 -13.1501 -4.50673 -5.9607 11
654 1 5.4164 -0.978778 15.4614 17
655 1 -3.84367 -8.92575 12.5581 19
656 1 10.4771 11.88 19.4997 13
657 1 -6.02227 15.5178 3.1152 20
658 1 4.54214 4.41708 9.43556 19
659 1 5.92698 -0.254822 2.85291 22
660 1 8.54519 6.07261 7.21973 20
661 1 -0.79917 0.54711 -15.5749 16
662 1 -8.06661 -0.182511 10.6983 21
663 1 7.55919 0.148499 -10.7443 12
664 1 -4.36437 -0.644228 -2.58997 22
665 1 10.9485 -4.68284 -4.59165 16
666 1 11.2379 5.7069 12.4862 16
667 1 5.84521 7.44874 11.211 21
668 1 -10.015 2.05287 18.3728 10
669 1 11.9769 14.9979 15.34 12
670 1 -1.66232 -2.78307 18.6298 13
671 1 -0.0354286 9.1447 16.1067 24
672 1 -1.08715 -5.2426 -12.9033 14
673 1 -4.30401 4.82965 16.2985 22
674 1 -5.34053 5.07564 -1.06199 20
675 1 6.64894 3.58157 18.838 16
676 1 -12.9008 -9.12822 9.58103 14
677 1 14.9342 9.90794 1.39891 10
678 1 10.2456 -9.53485 -1.60289 15
679 1 -1.17873 8.94498 -0.539963 21
680 1 5.01277 9.7858 0.574417 22
681 1 8.79788 14.1154 3.47074 22
682 1 0.640274 2.67722 -17.523 9
683 1 -2.78822 -0.565707 10.7403 16
684 1 1.80893 14.6608 -3.99889 18
685 1 12.5801 10.7209 3.13191 15
686 1 -8.05244 -7.17294 2.71483 18
687 1 -2.79814 1.99738 -16.35 10
688 1 -13.3974 11.4336 2.62569 20
689 1 6.41529 -1.57721 -7.6543 20
690 1 4.49674 8.28287 7.91468 21
691 1 8.28687 10.2504 -9.79694 11
692 1 9.70554 13.2628 0.393959 21
693 1 0.808469 7.69934 7.74612 21
694 1 -8.69701 9.49125 4.24582 17
695 1 1.96199 6.93996 -3.3663 20
696 1 9.3032 3.95556 17.6822 19
697 1 12.1414 2.64695 16.5547 11
698 1 -3.55475 -9.0666 15.721 13
699 1 -4.40757 13.1934 -5.14046 17
700 1 6.68537 13.0136 11.7966 22
701 1 8.42391 -2.63562 -9.73464 14
702 1 1.75017 3.71202 15.1929 18
703 1 6.07162 13.4035 -1.66083 20
704 1 6.22925 13.0061 9.03346 20
705 1 14.8749 -3.75905 1.10067 16
706 1 6.80521 8.33516 21.1085 11
707 1 -12.4461 -2.81671 9.92596 20
708 1 3.65317 -12.8746 2.93599 15
709 1 2.38211 -1.10352 -2.79018 18
710 1 -8.91939 17.2031 4.11146 12
711 1 -1.32239 9.89692 10.0819 19
712 1 5.92619 -2.56785 0.924778 21
713 1 6.27051 10.8104 6.22236 21
714 1 -11.7245 2.97019 4.55844 19
715 1 -5.42015 7.25836 18.1434 15
716 1 -6.76576 7.85776 -10.0713 13
717 1 -4.90129 10.5279 -8.34374 11
718 1 4.17918 -11.53 5.96644 19
719 1 8.17189 12.649 -4.40587 19
720 1 3.93707 -3.4918 7.90701 21
721 1 -0.879402 11.4242 7.37536 18
722 1 -14.4021 5.10937 11.4182 18
723 1 3.42867 -2.31034 -8.0296 22
724 1 1.40821 -10.2095 13.2588 14
725 1 3.76011 15.3736 6.39882 22
726 1 -6.41102 9.4039 16.1551 17
727 1 -8.45561 -7.83557 -8.74451 13
728 1 -5.9172 -9.11695 -7.92283 14
729 1 -5.68443 -11.6205 -5.29951 10
730 1 1.32251 17.6629 -4.36123 12
731 1 5.95291 -3.39905 -5.16017 22
732 1 -2.43262 14.3366 10.5995 21
733 1 6.0851 -6.17865 -3.27454 21
734 1 6.38533 -12.8609 4.42164 12
735 1 4.99633 -5.20725 11.2312 17
736 1 16.1625 4.93421 -4.30011 8
737 1 4.01971 -8.89183 -2.05029 19
738 1 -10.7722 -0.441897 11.5296 19
739 1 0.545742 1.4456 -3.79685 16
740 1 -4.51962 -12.7131 4.74645 20
741 1 -7.56057 -8.93558 -1.98321 17
742 1 -12.8604 2.10476 12.5187 16
743 1 -7.517 -11.1693 4.09486 20
744 1 13.5204 5.64202 -2.74991 17
745 1 -3.11217 18.1534 10.8681 16
746 1 -3.08736 6.38018 10.071 19
747 1 -13.3627 11.9719 7.86498 12
748 1 11.7523 -0.148931 4.22734 17
749 1 -11.8247 -3.45134 -9.07448 10
750 1 -2.96389 11.9421 -0.287551 20
751 1 6.09333 5.10688 -2.91573 19
752 1 7.4632 13.8328 19.4504 10
753 1 8.43337 5.68173 -1.93438 18
754 1 -16.8649 1.58989 -2.53822 15
755 1 -10.1098 -5.42244 -7.57485 15
756 1 1.00279 7.65164 19.2725 21
757 1 1.08406 10.2873 -9.95169 21
758 1 9.47058 15.3907 6.90955 20
759 1 1.42484 1.79713 13.0118 20
760 1 -0.589524 -13.3751 1.09989 14
761 1 -10.8552 -11.9557 9.01524 17
762 1 -2.54068 -5.96269 14.3268 19
763 1 14.2227 13.4767 13.8371 12
764 1 3.01633 -3.90265 -4.84129 21
765 1 -10.6002 10.6742 2.18596 19
766 1 7.079 8.29734 8.53007 14
767 1 -8.07101 -3.08447 5.02093 21
768 1 6.79072 8.20273 -11.8773 12
769 1 -3.37734 -9.75268 0.0610906 20
770 1 -0.0912275 -14.7076 6.81206 13
771 1 2.57213 -9.55967 0.48656 20
772 1 4.46202 6.4198 -5.624 19
773 1 8.03481 19.3748 4.76781 11
774 1 -4.06711 4.67479 -14.1475 15
775 1 0.691119 5.55787 17.1587 21
776 1 -2.87217 7.47812 -15.0577 11
777 1 -9.74991 -0.465971 -10.296 15
778 1 -14.3771 -3.00594 -0.823598 20
779 1 4.53086 16.9825 -3.08768 13
780 1 13.396 -3.13352 3.8891 18
781 1 -4.29698 -3.34629 -14.1264 12
782 1 -6.07423 -4.11952 2.59472 17
783 1 10.7683 7.96274 -3.36318 24
784 1 8.93391 -6.16462 3.2818 21
785 1 -6.4719 13.9604 17.282 11
786 1 7.2098 -8.90591 9.92219 16
787 1 16.361 -1.77668 3.76508 12
788 1 11.2105 0.922326 12.616 16
789 1 -0.990607 13.3466 13.5014 17
790 1 -11.9985 4.02292 16.3984 14
791 1 -8.73916 10.103 13.8792 19
792 1 -4.35079 -11.9565 14.0878 11
793 1 5.79515 2.10891 4.748 21
794 1 9.53041 11.2833 16.3851 21
795 1 -15.5134 6.48373 4.87311 19
796 1 8.87966 -2.6565 0.154583 20
797 1 -9.78168 13.285 -6.55266 9
798 1 1.91305 9.88461 9.21285 21
799 1 2.2181 -12.7011 11.348 10
800 1 3.21715 4.28371 18.7916 18
801 1 1.33116 15.2067 11.4311 18
802 1 6.53177 -4.44397 9.10454 20
803 1 -9.0388 -0.0829479 -1.72761 19
804 1 4.29657 4.76276 15.1299 23
805 1 -16.4267 -3.49251 2.02049 13
806 1 1.5638 12.0073 15.1721 18
807 1 4.92011 14.9005 3.68025 21
808 1 -12.0797 -6.17474 7.67187 17
809 1 -5.75333 -14.0228 10.837 8
810 1 9.71418 -2.02009 6.63114 19
811 1 7.96564 -1.82075 8.4453 18
812 1 9.00554 11.0843 13.7739 20
813 1 -4.55897 8.25828 -0.409774 17
814 1 -0.661825 -6.62594 -3.48352 21
815 1 -2.13425 4.20107 -8.29594 17
816 1 -6.11602 3.63926 13.5463 21
817 1 0.910896 19.5125 8.39376 13
818 1 16.9484 5.20621 8.86653 12
819 1 3.30638 10.7183 -2.6649 20
820 1 -3.6193 8.17492 15.9009 20
821 1 8.72825 6.86093 13.3475 20
822 1 3.84467 1.18505 -7.98114 19
823 1 -7.85878 -11.0071 8.15003 23
824 1 -5.93593 2.28671 -2.95319 23
825 1 14.1341 4.41669 8.04366 19
826 1 1.11869 -0.827982 -8.18142 21
827 1 -2.11715 10.0276 18.6289 17
828 1 10.4126 -10.3151 -4.36979 9
829 1 5.27871 5.68525 -13.097 12
830 1 -2.8302 -5.87491 -0.73375 25
831 1 10.3189 8.35665 -10.9275 11
832 1 14.8854 0.535465 5.37355 15
833 1 -2.03937 -5.06353 16.9713 16
834 1 -2.70876 -8.09666 -8.85287 18
835 1 6.54144 14.3669 1.25478 21
836 1 -2.53531 -4.08936 8.2284 17
837 1 -16.4872 13.4984 6.55871 5
838 1 13.0251 6.21597 -5.5899 14
839 1 14.1891 13.7976 7.88996 12
840 1 2.22939 -5.10172 -7.48173 17
841 1 -8.66818 15.7342 6.75179 20
842 1 15.5737 12.7425 10.818 12
843 1 10.0978 16.0462 0.509705 14
844 1 3.62046 3.86198 -11.7153 18
845 1 9.37367 -0.617873 2.19421 19
846 1 -9.21384 5.10227 4.40498 21
847 1 10.6432 9.5225 8.55921 17
848 1 -14.4552 -8.2495 2.69283 14
849 1 -12.7795 11.637 -5.12105 10
850 1 6.0214 7.41868 14.1889 19
851 1 -12.83 -0.75292 -5.3629 19
852 1 -12.1561 7.7187 9.35817 18
853 1 -3.25311 6.32158 -6.35638 17
854 1 10.508 -1.51371 -5.07713 18
855 1 -11.4361 -5.87964 -3.07144 18
856 1 14.7026 -5.31097 4.09867 15
857 1 -17.9507 6.69204 3.58921 12
858 1 -8.94805 -4.14524 1.54922 20
859 1 10.0515 12.1792 11.1419 20
860 1 -3.02144 -6.93399 10.0921 19
861 1 6.72298 2.54732 15.4892 21
862 1 12.7483 2.32409 9.71547 19
863 1 9.96478 0.798093 8.05609 17
864 1 -14.6454 8.92717 6.9438 17
865 1 2.33889 16.0787 18.9975 9
866 1 -1.62232 11.3027 -8.34606 17
867 1 1.51454 -6.47566 -13.2794 10
868 1 -2.83696 19.8757 13.1024 11
869 1 -15.3468 -8.70675 9.00021 11
870 1 9.76012 11.2341 -2.28767 22
871 1 3.20123 9.92082 15.1247 24
872 1 15.2465 0.123621 1.10207 13
873 1 10.5355 -2.60649 14.1727 14
874 1 1.83786 12.151 -5.53954 20
875 1 4.52316 12.7592 -8.06748 18
876 1 -8.50486 1.90566 13.4806 18
877 1 16.6747 11.5329 7.12204 10
878 1 -1.84219 -1.59942 -7.85665 22