ITEM: TIMESTEP
17000
ITEM: NUMBER OF ATOMS
2000
ITEM: BOX BOUNDS pp pp pp
-30.0 30.0
-30.0 30.0
-30.0 30.0
ITEM: ATOMS id type x y z Coordination
1 1 -13.8849 2.95922 -15.7038 5
2 1 -2.93338 -12.1546 -6.46169 17
3 1 3.35754 13.1991 14.8102 12
4 1 7.03602 -11.2921 6.28409 15
5 1 -9.72492 7.96477 -2.22578 21
6 1 13.9601 -7.27345 -7.21903 9
7 1 -11.1109 5.22933 -3.40783 14
8 1 -2.36078 -7.46502 12.6118 13
9 1 -6.50563 -2.12249 -9.09551 17
10 1 -12.8384 -10.9934 4.88353 12
11 1 12.3588 4.49781 -10.1079 17
12 1 -7.48692 -11.8545 1.21902 19
13 1 -15.3302 -8.91695 2.98573 13
14 1 -4.3529 3.03116 17.6502 8
15 1 2.1225 5.10641 9.06843 22
16 1 -1.0228 12.4077 -11.6519 18
17 1 2.44808 -0.620929 12.6889 21
18 1 -6.85845 -1.23905 -13.3228 11
19 1 -16.3998 -3.01844 9.31233 10
20 1 11.3048 3.94786 6.93129 16
21 1 1.70364 11.7461 -12.2164 16
22 1 0.366413 10.8334 -16.466 11
23 1 15.8973 2.33172 12.3866 8
24 1 -11.9046 6.73997 -6.62293 15
25 1 -12.249 9.79591 8.68973 13
26 1 5.52281 -13.5994 6.77149 13
27 1 1.83239 -15.1289 -9.12749 11
28 1 7.94414 -15.2326 2.04458 7
29 1 -8.87843 -11.5037 -5.3956 16
30 1 -18.0662 -5.37238 7.36687 9
31 1 0.880662 -6.79867 -7.45897 19
32 1 8.64355 -8.8602 -8.63784 9
33 1 -2.82548 7.6512 -18.0039 10
34 1 -1.9468 3.40895 12.8869 16
35 1 -2.0702 -10.9419 8.38917 16
36 1 5.83363 -5.7433 12.6868 13
37 1 -10.0959 -3.92506 0.978278 21
38 1 -13.1031 -1.97256 10.3286 19
39 1 -8.68213 -1.08661 -0.77114 21
40 1 -3.41498 13.6226 -2.92491 18
41 1 -2.52225 -15.257 -9.98376 12
42 1 1.96018 1.56829 -16.4029 15
43 1 3.70193 -3.62464 -8.94085 20
44 1 -7.41353 -4.0534 12.3584 17
45 1 -11.7239 9.88899 -3.92972 15
46 1 3.90926 9.91296 -14.0035 18
47 1 -2.09261 10.7002 5.2719 18
48 1 -11.3849 12.6906 -6.04259 11
49 1 -1.08605 15.775 5.10582 21
50 1 0.574005 -13.0951 3.49176 19
51 1 6.36493 -3.82352 -6.34982 19
52 1 2.75491 -5.13078 -10.9606 16
53 1 -9.5125 8.71878 10.1731 16
54 1 -15.5271 -3.34727 -9.32602 15
55 1 -4.66454 10.5173 -4.59047 21
56 1 -8.71256 -8.34458 8.3923 18
57 1 -6.86094 11.5279 12.6035 12
58 1 -7.81325 8.10029 -10.5423 18
59 1 -7.41243 10.4478 10.6515 16
60 1 -3.56418 -18.2075 8.14414 10
61 1 4.80214 4.90358 7.11701 21
62 1 9.39641 -14.5611 -1.24468 9
63 1 5.54232 11.8973 16.836 13
64 1 -15.8709 2.50806 -8.42008 12
65 1 -10.5576 7.46077 -9.20926 18
66 1 7.56631 8.71103 13.1148 20
67 1 12.9398 -4.9185 -9.41333 11
68 1 8.99341 -13.2106 5.39436 10
69 1 -17.1497 -3.63726 3.04459 15
70 1 5.27358 13.7057 6.28078 18
71 1 3.85426 -3.6818 15.3883 11
72 1 -8.9598 -10.9936 4.49263 21
73 1 -14.4347 1.38568 -5.52676 18
74 1 9.74978 1.02071 9.12202 21
75 1 -0.700365 16.2832 11.1248 11
76 1 4.42746 -0.450136 7.63465 22
77 1 -1.4188 -6.09824 -6.18822 20
78 1 -15.2333 7.80771 9.57869 10
79 1 -8.56444 13.9281 -1.7697 18
80 1 -1.74704 9.54728 -10.6665 19
81 1 7.82402 -2.15453 -4.51809 20
82 1 6.8159 13.8425 -10.2199 15
83 1 7.02451 -4.21472 3.79865 23
84 1 6.40956 -10.9044 9.66563 9
85 1 -4.07999 13.0574 -6.49239 18
86 1 -6.43901 14.8271 5.34287 14
87 1 -10.2121 -4.81413 14.7383 8
88 1 -4.15895 8.74878 7.46042 20
89 1 -7.43627 -5.87969 14.1411 15
90 1 10.2365 -1.75462 -2.77 19
91 1 -9.85374 2.2004 0.73485 20
92 1 -10.3307 -15.4994 2.85863 11
93 1 8.54873 -9.83184 -5.57945 15
94 1 0.27027 -1.5466 -16.0117 17
95 1 -2.52769 3.219 -13.1315 17
96 1 -1.13685 12.0816 -0.939992 16
97 1 -4.48862 7.28265 -11.4585 20
98 1 2.77123 7.85457 17.1237 17
99 1 -1.78772 18.0623 -5.6582 16
100 1 -13.5449 12.0991 2.16417 9
101 1 0.450998 10.7602 0.852035 22
102 1 -3.7741 -5.72951 10.5139 21
103 1 10.2264 -1.08567 10.7928 20
104 1 3.63188 -4.96131 -6.76889 20
105 1 5.9936 -6.01329 -8.77868 22
106 1 -3.41014 5.81718 8.57615 22
107 1 7.40057 -0.0836978 16.8427 11
108 1 -12.4641 -6.01522 0.140423 18
109 1 -14.3422 -5.04639 -5.94126 19
110 1 12.3985 -7.93091 6.36294 10
111 1 -13.5011 7.56919 4.3251 20
112 1 6.15637 7.13009 -15.1858 14
113 1 4.86659 15.0391 1.85565 20
114 1 -7.45427 -13.537 9.91715 16
115 1 -5.83271 -16.4604 7.87952 15
116 1 3.76497 -7.7831 -9.19778 17
117 1 2.77319 6.91171 -8.66322 22
118 1 10.8679 -10.422 0.705931 7
119 1 -4.46025 -15.5225 3.61597 18
120 1 -9.3886 -6.79517 -0.639163 23
121 1 15.0199 7.49261 8.49264 13
122 1 10.9718 -1.09011 -11.704 15
123 1 -16.4187 -5.34647 -1.70782 17
124 1 11.7631 12.6196 2.05596 16
125 1 15.5609 9.10512 1.13914 10
126 1 -5.54586 4.89093 14.9712 16
127 1 0.80585 7.84451 12.3293 21
128 1 -3.14615 9.70042 -7.28736 21
129 1 -3.35899 -9.13492 -6.42949 20
130 1 5.04724 -10.2418 -9.7213 15
131 1 1.21621 14.1934 -11.9402 15
132 1 6.04063 -4.78185 9.35879 20
133 1 1.63934 3.201 -18.2618 11
134 1 -0.465795 11.7129 -8.72667 16
135 1 8.74914 2.73431 -5.59147 17
136 1 -8.65094 11.3227 -8.42438 20
137 1 -6.89847 18.2092 0.157931 7
138 1 5.24509 6.47176 -11.0599 18
139 1 5.72937 -9.15773 4.73535 19
140 1 -6.28432 10.8364 -7.24124 23
141 1 -9.17715 13.1496 10.0763 10
142 1 13.858 7.68449 -7.03111 14
143 1 5.65138 11.2737 -2.80167 21
144 1 -6.14636 16.083 -1.53401 15
145 1 10.5773 8.41072 -5.50104 23
146 1 0.731066 11.3258 -6.30421 21
147 1 -2.91767 16.972 -9.22725 12
148 1 -1.36458 7.23006 -15.5473 15
149 1 -12.0024 -9.35633 -0.697425 17
150 1 -11.6635 10.3524 -0.492465 18
151 1 -8.31666 -3.74307 -7.5013 18
152 1 0.642192 -10.1117 -12.7748 12
153 1 9.75555 13.7678 9.04272 13
154 1 -3.81729 16.4243 9.63793 9
155 1 -13.0414 1.80999 -8.04637 15
156 1 -11.007 9.73069 3.01004 19
157 1 14.6731 1.44725 -4.06689 12
158 1 -6.65776 4.38594 -14.5265 15
159 1 4.3421 2.17675 16.4361 15
160 1 5.01135 16.8533 4.61042 15
161 1 -3.28677 11.769 12.7466 18
162 1 1.80783 -7.25183 -14.7866 10
163 1 -3.47491 14.8159 11.9092 12
164 1 1.20515 14.4592 -6.60717 17
165 1 3.97509 -3.2214 12.3457 19
166 1 -12.1186 -4.85955 4.4029 20
167 1 -3.3238 -12.8045 -12.4038 7
168 1 -9.12186 15.305 -9.08027 11
169 1 -4.54654 -6.49973 6.003 16
170 1 2.91043 -14.5653 -4.53238 14
171 1 -6.69454 9.39961 -12.7684 14
172 1 -16.579 2.31062 6.15695 12
173 1 8.58331 13.2022 -1.7598 14
174 1 -7.79977 2.44995 13.4879 18
175 1 -3.05334 -8.24999 9.52199 20
176 1 -9.32639 5.14934 -0.57459 18
177 1 1.94883 15.626 3.26952 18
178 1 4.52082 7.51258 12.5464 21
179 1 13.7303 4.6285 11.8161 17
180 1 -5.56522 17.9795 3.70608 11
181 1 10.8612 -2.68617 -6.11985 19
182 1 -5.94547 13.1499 10.9794 14
183 1 -5.00733 2.23377 -8.5093 20
184 1 12.0525 -7.71605 3.41296 11
185 1 -7.57026 -2.05788 6.41122 18
186 1 -17.1133 0.908641 1.21069 10
187 1 -10.0992 -3.12947 4.88811 17
188 1 4.36551 10.3529 13.8115 16
189 1 -16.7538 -0.376584 -4.80247 14
190 1 -2.2128 -18.8617 0.912157 10
191 1 4.27904 -6.72711 -2.19707 19
192 1 -3.38766 10.9575 2.16379 20
193 1 4.8454 15.0797 12.4911 8
194 1 -8.50171 -0.623401 -8.30402 20
195 1 -6.44468 12.5878 -10.0144 17
196 1 -13.7086 -1.72781 -4.95506 19
197 1 -12.2787 -0.427569 7.88099 19
198 1 -2.932 -9.0917 6.15484 16
199 1 1.66394 -11.7589 7.58393 15
200 1 -16.6727 7.75351 5.57374 9
201 1 12.9887 9.14379 0.484778 20
202 1 5.14676 7.08465 -6.95103 18
203 1 -7.58624 -7.58074 -11.8794 12
204 1 4.56391 2.64014 12.3865 20
205 1 2.57955 -14.3091 6.13668 14
206 1 -2.1871 7.4862 -9.01948 19
207 1 2.70353 -11.8988 -10.7698 16
208 1 9.59741 5.47331 -10.2784 22
209 1 -2.51098 0.88043 -17.3185 15
210 1 -10.7625 -5.44062 -5.91182 18
211 1 -5.14752 19.1306 -4.80529 11
212 1 -10.0805 -12.1131 9.66738 15
213 1 7.06866 16.4389 0.0934544 13
214 1 -10.4694 3.32969 12.8954 15
215 1 -7.13001 14.301 -7.16808 20
216 1 4.14364 2.30389 9.34601 21
217 1 -5.09496 -7.7762 -9.8426 21
218 1 -3.91078 19.3842 -7.8343 10
219 1 2.58064 1.23254 -12.4154 15
220 1 -9.2664 -12.7841 12.8145 10
221 1 -9.36113 5.92297 8.55631 18
222 1 -9.93785 6.37951 12.0288 15
223 1 -0.33504 -10.2893 -6.72542 18
224 1 -3.55731 -14.4162 0.428104 18
225 1 8.54633 -12.4101 0.610979 15
226 1 12.8009 6.91288 13.9237 11
227 1 6.2869 12.0446 -6.43778 22
228 1 -1.7744 11.5041 -4.5259 18
229 1 -14.1584 -0.617881 0.982236 23
230 1 -11.3338 12.9879 -2.53185 11
231 1 5.48303 4.96262 10.2703 17
232 1 3.6282 -14.5852 3.5077 15
233 1 12.3538 1.0832 0.587832 14
234 1 3.77702 7.15822 3.85101 21
235 1 -9.27018 5.12913 5.38488 21
236 1 -14.0406 -8.53952 -6.40954 13
237 1 7.23809 3.46125 -11.5014 21
238 1 2.31729 -0.37286 9.2882 21
239 1 8.07743 11.9921 -12.0776 11
240 1 3.07146 -9.376 -3.67956 17
241 1 -5.04492 1.27799 -13.5014 15
242 1 -0.183523 -17.417 6.82945 10
243 1 6.37508 0.689245 -5.33143 21
244 1 -9.37891 -0.155567 2.57687 23
245 1 2.97878 -14.9871 -0.607587 14
246 1 -9.78175 -5.59697 -10.1254 16
247 1 0.945682 17.8285 4.78727 13
248 1 -0.632405 -1.02766 -12.3764 19
249 1 -2.41587 1.33758 15.684 14
250 1 12.0471 4.06999 1.29164 18
251 1 9.47696 -3.5065 -11.678 19
252 1 -9.34522 -2.04549 -11.2147 18
253 1 -10.5905 1.18044 -10.3215 18
254 1 -6.0073 -12.5161 12.5829 9
255 1 7.5064 -0.726746 8.76839 22
256 1 3.85 -3.27342 9.01921 22
257 1 -10.6611 -8.80887 -10.9684 9
258 1 1.43175 7.86931 -15.7832 16
259 1 3.13021 9.79948 -1.11148 20
260 1 -10.0141 -6.72416 2.34408 21
261 1 -1.06343 13.4141 2.49984 20
262 1 -10.1855 -2.27679 10.8346 18
263 1 -12.197 -7.00851 -8.18802 20
264 1 -7.83303 -6.32846 -8.63817 19
265 1 -5.04446 9.15158 -16.6751 12
266 1 -9.26748 -7.4322 -3.79899 18
267 1 -5.48688 -10.2349 6.28203 18
268 1 5.79566 1.00964 -13.2225 17
269 1 13.0379 1.96652 -10.2876 15
270 1 9.80115 1.02673 2.08662 17
271 1 -12.6148 -5.45625 10.2315 14
272 1 -5.76049 -9.97906 1.55504 17
273 1 5.36429 9.00315 18.9362 12
274 1 -6.21485 -17.8246 5.48231 12
275 1 -2.35174 -12.2801 -1.77293 17
276 1 -0.590298 16.8268 -2.03662 15
277 1 5.35968 4.73886 -13.6038 18
278 1 -7.34411 -4.43177 -11.5404 17
279 1 -14.8374 -10.3819 7.85617 9
280 1 5.58421 8.22506 15.3278 21
281 1 0.228137 -10.2047 1.1365 20
282 1 -4.32881 -12.5373 -9.74437 11
283 1 -5.12166 9.21407 -9.6264 20
284 1 7.09395 7.39967 4.47403 18
285 1 -7.91913 5.77846 -12.4561 22
286 1 -5.32979 11.535 -14.7611 13
287 1 5.52551 -12.5817 -4.66979 19
288 1 -4.48577 15.9572 -5.14169 20
289 1 0.430734 17.182 7.88657 12
290 1 9.64434 1.16063 5.6402 23
291 1 -10.0064 2.92835 3.92528 22
292 1 -3.91193 -4.41971 13.7629 13
293 1 -6.57316 9.03288 2.17391 20
294 1 0.584432 -4.44546 -8.83865 22
295 1 13.4414 11.9318 -1.14036 10
296 1 3.3105 -9.48761 -0.350048 19
297 1 -3.33227 -1.40211 13.7734 16
298 1 -16.9007 -2.30227 0.140335 18
299 1 3.99563 -12.2582 -1.47552 18
300 1 -9.41299 9.53569 13.6197 12
301 1 -13.0567 5.32414 13.1418 10
302 1 -16.4527 -3.25748 5.83565 16
303 1 -10.5763 -5.86702 7.268 17
304 1 12.3893 -4.13263 -0.721041 14
305 1 -13.643 -11.2064 10.7997 7
306 1 8.28724 -0.777587 -7.46314 21
307 1 8.76843 -13.3882 -4.03481 15
308 1 1.99121 17.681 -1.75058 13
309 1 -7.07384 15.5577 -4.5296 13
310 1 7.38352 7.62389 10.1185 18
311 1 -9.61698 1.04626 5.67606 18
312 1 6.69856 -8.54747 -3.79048 15
313 1 -6.19203 12.909 3.32689 19
314 1 -6.36322 6.44682 6.62315 20
315 1 2.90639 -8.88027 6.12228 17
316 1 14.5924 -3.00101 4.30098 12
317 1 -0.64786 5.71646 10.4222 21
318 1 -7.22532 -3.17634 -3.45882 19
319 1 1.90587 4.4559 16.8378 11
320 1 -5.66581 10.2321 5.14563 21
321 1 10.1547 7.33053 15.3275 15
322 1 -6.0377 16.48 -7.4818 15
323 1 -0.378568 0.622946 -14.2283 16
324 1 6.72938 -8.58295 -11.9765 8
325 1 -5.85365 4.08768 8.48989 19
326 1 -15.3249 1.21756 3.72047 17
327 1 -4.73216 -6.85279 -7.12856 20
328 1 -6.40435 8.82454 -0.632827 22
329 1 6.03601 -3.38487 6.64567 22
330 1 -14.6978 -8.38152 0.0496447 12
331 1 8.92208 -8.9701 8.73781 12
332 1 -10.7612 -10.3176 12.295 14
333 1 -15.8653 7.2702 2.27388 12
334 1 -1.74553 -4.32835 9.64207 19
335 1 1.87913 -11.7864 -5.01194 21
336 1 -5.01525 -4.35626 -9.88352 20
337 1 8.16925 3.74078 -14.166 14
338 1 3.70463 10.8221 4.87988 20
339 1 -9.01969 0.403057 -4.74466 20
340 1 4.88524 -4.48796 -14.4147 12
341 1 9.72333 2.55425 -8.79283 20
342 1 -7.63443 -14.7141 -5.87698 12
343 1 -14.5008 -8.31427 -3.29106 12
344 1 -7.79026 -8.43088 2.82297 20
345 1 10.395 4.32396 16.0219 13
346 1 11.6128 2.96249 -5.3304 17
347 1 -7.08013 8.16489 -7.39451 19
348 1 0.892451 14.0183 -0.110384 20
349 1 -16.9489 -3.15283 -5.92151 14
350 1 -10.5177 8.16835 5.98278 21
351 1 -9.09484 8.55332 0.814164 21
352 1 0.543667 7.76645 8.81767 18
353 1 10.648 4.11705 10.2686 19
354 1 13.9272 -4.0868 -6.61178 14
355 1 6.64278 -3.16102 14.3096 11
356 1 9.05275 5.10385 -7.7948 19
357 1 -4.68889 -16.773 -0.82125 19
358 1 0.947445 -7.08699 -3.87418 17
359 1 1.14383 10.023 6.82661 18
360 1 -10.13 3.63645 -5.78306 17
361 1 7.43745 -7.67456 -0.583242 13
362 1 10.6209 -1.68422 7.61301 24
363 1 -9.48593 -2.51756 -4.98807 19
364 1 -7.2263 -5.38618 4.33805 21
365 1 -12.5051 -8.2155 10.5547 11
366 1 -3.43302 10.4761 -1.18065 19
367 1 -12.9037 -10.6146 -3.29684 11
368 1 8.22736 12.1846 14.8977 12
369 1 -10.0147 2.19746 -2.32312 19
370 1 1.32378 13.5376 -9.03257 16
371 1 4.80884 12.4997 10.8282 18
372 1 -11.0986 -12.2232 -0.365111 12
373 1 -1.00045 -10.0115 -3.80865 16
374 1 -17.674 -0.481323 4.34845 11
375 1 -11.4096 10.1358 -7.7507 14
376 1 9.08081 -7.15968 4.25974 21
377 1 -2.03674 -15.8525 -1.39257 18
378 1 9.35964 11.865 5.30499 22
379 1 6.30459 10.9385 -14.846 11
380 1 -11.956 2.63007 -13.0833 15
381 1 -4.73832 15.007 -10.1308 12
382 1 -8.5122 6.35355 -4.67393 20
383 1 -2.25557 -11.7475 5.86868 20
384 1 11.916 9.53755 6.74293 18
385 1 -0.672231 12.7393 -14.6871 12
386 1 -3.50143 0.0479819 9.56457 20
387 1 -14.6359 2.17011 -0.194453 16
388 1 -9.22662 -0.455733 8.54612 21
389 1 -2.70351 -15.7051 6.88774 16
390 1 7.13614 -6.40731 -5.79516 21
391 1 -15.578 4.94847 5.36514 19
392 1 -15.2067 -0.493505 6.36979 16
393 1 -14.0844 8.05699 7.3473 17
394 1 -1.63869 -5.75386 7.55458 19
395 1 -6.8026 0.691023 -10.369 20
396 1 6.26228 -15.258 -1.90911 15
397 1 -2.38335 -8.24697 -12.2626 14
398 1 -4.571 -2.95215 10.6496 23
399 1 -8.62426 2.27921 -12.9238 18
400 1 3.11894 -9.11453 2.66721 21
401 1 3.77615 12.5655 -5.63114 19
402 1 -12.0731 11.0672 5.42349 13
403 1 -5.88007 -2.36027 14.5735 16
404 1 -14.2075 -5.39177 -10.2172 13
405 1 -10.0903 -13.6636 6.08317 15
406 1 9.18354 -6.35786 10.7713 15
407 1 1.12612 3.78565 -7.90037 18
408 1 10.4433 -6.51215 7.72194 16
409 1 14.1742 9.59152 -3.43857 14
410 1 -4.4034 2.97558 10.9684 20
411 1 4.13202 12.2887 0.539629 21
412 1 9.21307 -4.35423 5.99253 20
413 1 -4.05593 -18.3082 -2.77652 11
414 1 -8.57122 3.5283 16.0503 10
415 1 -5.1711 14.2953 8.18548 13
416 1 -9.54414 -7.94929 -6.92891 21
417 1 5.92159 14.4899 -4.09193 15
418 1 3.76538 8.075 9.85411 20
419 1 -6.92674 4.64249 11.8457 20
420 1 -6.84311 -6.24577 -2.35145 20
421 1 -14.2019 3.36186 7.56454 16
422 1 -6.92206 -9.26256 -6.77431 18
423 1 -7.60548 9.4304 7.19574 20
424 1 -4.53725 -10.9151 -3.9931 19
425 1 -1.82524 -6.50437 -14.7254 13
426 1 -7.29807 -14.0236 3.7793 19
427 1 7.15066 1.91513 6.98274 21
428 1 -9.87433 -7.16649 12.0894 18
429 1 -12.1753 4.23365 -8.28985 15
430 1 9.01356 5.09108 -0.333745 17
431 1 -4.98173 -13.9888 -4.23831 19
432 1 -3.8158 15.5726 3.96773 18
433 1 -1.34539 4.50016 -9.52782 16
434 1 -1.73812 8.38559 13.2595 23
435 1 -16.8067 -3.0084 -2.61251 19
436 1 -4.06903 17.6696 -2.62273 14
437 1 3.31912 12.7279 -2.39149 19
438 1 -6.5728 -8.87669 -3.72466 18
439 1 4.82667 5.69031 17.8054 14
440 1 -1.01869 -16.957 -7.4683 10
441 1 -0.797367 3.28306 -15.4289 17
442 1 6.44138 -12.9553 3.97994 17
443 1 -8.39057 10.4873 4.1275 22
444 1 2.60622 10.3488 11.5079 17
445 1 6.24677 7.84085 -3.78273 16
446 1 0.652339 11.3166 -2.68378 20
447 1 -10.4415 10.4404 -10.97 13
448 1 3.3414 5.03775 -6.7843 18
449 1 1.04059 -5.96589 6.26065 21
450 1 -18.7244 -4.99207 -0.0366547 8
451 1 2.45154 15.5884 6.11006 18
452 1 -8.26392 5.5569 -7.77717 21
453 1 10.7613 5.4528 -4.17643 18
454 1 2.36558 16.8234 -8.0437 15
455 1 10.0913 -5.33454 -0.743554 16
456 1 14.5983 5.65335 0.894885 14
457 1 -1.74117 6.04223 -12.6278 20
458 1 -2.72156 -8.93117 2.97666 20
459 1 -3.95166 -10.4124 11.2783 17
460 1 -0.276755 -9.70757 10.9496 13
461 1 -7.87202 2.23885 -7.42062 17
462 1 -8.02986 -11.1253 7.8587 22
463 1 0.59962 -9.32839 -10.046 20
464 1 8.47933 15.4697 6.63891 14
465 1 3.46332 5.78332 -16.6553 13
466 1 2.07659 -0.325472 15.6975 13
467 1 -14.8334 4.71785 10.8524 16
468 1 -4.82479 -19.1722 1.85569 9
469 1 -13.5761 -3.01985 -0.702876 20
470 1 12.7947 -6.46968 -5.03598 14
471 1 14.49 -1.29289 -1.0204 9
472 1 -4.17092 7.48094 -6.13697 18
473 1 4.00999 -7.12507 -5.0242 19
474 1 0.585285 7.8077 -11.0084 18
475 1 8.49558 0.466923 -0.432653 15
476 1 -6.15553 -0.528046 12.2149 17
477 1 7.83347 14.3102 3.68155 22
478 1 -1.66959 -3.68232 -15.4303 17
479 1 1.75089 4.67538 -14.3464 15
480 1 -7.38763 -3.17772 9.04672 22
481 1 -4.74299 13.2943 0.181974 18
482 1 -12.0478 -0.516526 -12.1548 13
483 1 -13.4048 -1.72237 4.69621 19
484 1 3.13658 -8.08488 -12.147 14
485 1 -7.78384 -10.0475 11.4771 23
486 1 0.0210862 8.70984 -7.87489 21
487 1 14.4379 3.42632 7.26262 13
488 1 13.4413 3.77856 -1.7215 15
489 1 -8.64862 -13.1534 -2.71414 16
490 1 -2.42412 -9.12527 -0.372481 19
491 1 1.22981 -3.80615 -16.9983 10
492 1 -4.68182 11.9878 7.01664 20
493 1 1.59346 -1.90866 -10.9769 21
494 1 13.5035 -5.85428 1.24836 11
495 1 -0.341089 18.5917 -8.26306 11
496 1 3.8167 -6.39797 4.13345 20
497 1 14.7099 4.86789 -8.73693 14
498 1 2.69089 10.8883 17.785 14
499 1 -7.03947 1.86797 9.75583 21
500 1 6.90882 13.1049 8.07633 20
501 1 6.82844 2.13971 14.3231 21
502 1 -4.23711 2.78483 -16.1218 14
503 1 -6.86414 -6.09828 -5.69623 21
504 1 1.23334 -3.21311 14.1346 13
505 1 6.79908 10.6753 5.80257 21
506 1 9.61238 9.60303 -13.9251 11
507 1 -9.76593 14.5681 -5.63643 13
508 1 1.13157 14.6173 -3.18981 19
509 1 9.07947 -3.86189 12.2026 13
510 1 8.38965 6.2687 -13.415 19
511 1 9.43836 -7.69828 1.47363 17
512 1 11.6667 11.5006 9.27793 12
513 1 -14.0321 -8.18614 5.6883 15
514 1 -8.54618 12.3693 -13.9977 9
515 1 -1.18902 2.61165 9.27572 22
516 1 -15.3025 -0.924442 12.1096 9
517 1 -6.65604 14.4984 -12.7311 12
518 1 0.702449 -11.0623 -2.00451 15
519 1 5.74456 -1.60891 -8.38415 19
520 1 -1.71397 14.8439 -5.60307 15
521 1 -12.124 -3.80408 -11.449 12
522 1 3.31187 -11.8153 4.7333 19
523 1 -13.2451 -3.8847 -2.96532 17
524 1 -1.90385 15.0999 -11.6899 11
525 1 -2.73855 9.59061 15.7471 14
526 1 -10.8409 -9.93842 7.10739 16
527 1 8.4837 12.7078 -4.41951 18
528 1 2.37007 -10.2179 -7.84663 18
529 1 3.48546 -6.31299 10.4852 17
530 1 -15.4971 4.51929 2.65577 15
531 1 0.611076 6.56064 15.2739 16
532 1 3.43735 15.458 -4.58274 17
533 1 10.733 -6.02141 -7.4497 21
534 1 0.455513 14.2533 9.44914 19
535 1 -2.74075 4.5866 -17.6407 14
536 1 -8.58786 -9.48514 14.2591 11
537 1 0.260547 1.07719 -9.95668 16
538 1 2.50772 -0.662185 -18.1602 15
539 1 3.16376 18.8135 7.30185 8
540 1 10.691 8.34159 -8.32889 21
541 1 -3.5124 -5.35209 -17.6394 7
542 1 -5.32841 -10.2532 -1.3733 19
543 1 -14.8042 -2.48188 -12.2208 11
544 1 10.571 3.35745 -1.68128 17
545 1 13.2295 6.80885 -4.58537 16
546 1 9.93574 -7.40627 -4.22083 15
547 1 14.8537 7.79343 11.8846 11
548 1 3.65207 -13.2204 -7.28379 19
549 1 -5.75904 5.89972 -17.5313 12
550 1 7.18015 13.4009 0.594486 19
551 1 -10.0144 5.94386 2.12582 17
552 1 10.9565 10.4491 15.2081 10
553 1 8.66181 10.0507 -3.06567 18
554 1 12.6206 0.832765 7.73002 17
555 1 7.93087 7.6291 -9.27523 21
556 1 4.22824 4.64551 14.7796 19
557 1 16.1776 4.52257 9.21867 12
558 1 1.2674 -4.06639 11.0796 17
559 1 13.018 10.4684 -6.32572 14
560 1 2.10598 4.68086 12.2037 18
561 1 14.0748 -1.67106 -9.22019 11
562 1 8.08013 0.283442 12.3233 22
563 1 -6.04438 5.03826 -5.86284 22
564 1 15.3963 7.01083 -1.59567 10
565 1 12.4294 -4.89915 4.54812 16
566 1 -12.5142 6.74989 9.70765 20
567 1 10.067 11.6126 12.3678 13
568 1 10.3346 2.3741 12.8918 20
569 1 3.52977 7.83089 6.94526 19
570 1 4.37463 15.7136 8.75831 12
571 1 8.26606 4.71591 5.64881 20
572 1 -1.60375 -14.593 3.57474 18
573 1 -7.52973 11.9474 -5.07131 22
574 1 12.3809 10.0768 -9.55036 11
575 1 10.7664 0.847047 -14.1928 7
576 1 -0.258814 16.0221 0.908247 15
577 1 -4.01961 -14.9989 -7.26454 17
578 1 8.93027 -6.52316 -10.8599 14
579 1 -16.5122 5.55845 8.55299 11
580 1 -10.3856 4.76711 -10.9918 17
581 1 -7.01987 -16.1462 -2.66871 19
582 1 -5.11194 6.08923 -8.89432 20
583 1 -11.9191 1.38626 -4.48037 18
584 1 9.68066 -4.27278 2.38352 17
585 1 12.8202 11.7061 4.90142 16
586 1 0.361478 -8.81795 8.11063 21
587 1 -14.568 -0.971233 -7.53558 17
588 1 5.88243 -1.84656 -19.4427 5
589 1 -6.46767 0.614298 16.8735 11
590 1 4.84995 12.6149 -12.4989 16
591 1 11.5797 -0.79746 13.2305 15
592 1 11.4911 5.56131 -7.2274 22
593 1 10.9893 14.8612 4.21131 12
594 1 6.30357 -15.1472 -6.11347 11
595 1 -12.5445 -2.93203 12.9951 10
596 1 14.0453 -1.43198 6.82361 15
597 1 -0.223798 12.9749 12.1171 16
598 1 4.36172 15.6118 -10.7644 12
599 1 -9.1937 9.32882 -5.32505 18
600 1 8.81895 11.5069 2.74308 19
601 1 -9.55249 -15.9107 -0.923941 10
602 1 12.1938 -0.332322 4.63227 18
603 1 10.13 15.1251 0.891374 12
604 1 -4.04518 8.88901 10.7016 19
605 1 -12.8159 -7.97577 2.80783 20
606 1 -5.91706 -3.33556 -6.07699 21
607 1 7.04519 1.74056 10.3364 19
608 1 -6.05556 -8.72631 9.4428 21
609 1 7.36285 3.18591 16.8454 16
610 1 -7.21909 11.4956 0.732783 21
611 1 9.63185 6.82369 2.67716 20
612 1 8.09409 3.77878 2.6233 21
613 1 4.78081 2.32231 -17.4418 10
614 1 -14.8249 -6.95317 8.39109 13
615 1 7.76167 -0.637902 -10.4964 16
616 1 12.0429 -9.31502 -4.32221 10
617 1 6.21511 8.29556 7.60803 17
618 1 -9.84502 1.0016 15.7557 11
619 1 9.75222 6.81293 8.04818 16
620 1 -0.572599 -0.586525 13.9138 20
621 1 -4.63653 7.66453 14.3 18
622 1 -1.32639 -4.31473 -10.6401 17
623 1 -5.7924 6.87024 9.6688 19
624 1 7.13914 5.76303 14.2613 20
625 1 -9.1469 -17.4272 6.29152 9
626 1 10.8701 8.30227 -2.40394 21
627 1 7.18659 -12.4575 -1.52429 19
628 1 6.55736 10.3453 -0.508199 15
629 1 6.50697 9.50251 2.94678 18
630 1 4.85795 -0.745663 -16.6311 14
631 1 0.926003 17.0545 -4.99063 15
632 1 10.1697 10.7281 -0.125567 20
633 1 -8.04551 -9.06664 -0.303046 18
634 1 -3.61783 -2.06758 -18.1584 9
635 1 -10.7132 13.3175 0.773857 13
636 1 6.42724 -3.47024 -11.3656 21
637 1 13.7533 7.27193 -11.7424 9
638 1 8.36254 14.3618 -7.26161 11
639 1 -12.8636 8.43715 1.19068 15
640 1 7.64403 9.44266 -6.4503 21
641 1 12.5327 2.39037 14.6081 12
642 1 8.84144 -1.25547 14.556 14
643 1 -5.42432 -8.16745 13.154 15
644 1 -10.4166 8.00881 -12.5418 11
645 1 3.09097 13.2036 8.60629 18
646 1 7.25667 -5.1934 -13.8028 14
647 1 1.396 2.25802 11.0 17
648 1 4.10488 18.088 1.03415 11
649 1 11.1907 9.97829 3.05099 21
650 1 13.1029 -2.0093 -3.72014 15
651 1 7.48698 6.70829 17.7543 13
652 1 -14.0174 -3.48341 7.38855 19
653 1 0.142503 -13.023 0.193412 21
654 1 -0.86749 -1.25609 -9.11372 21
655 1 -9.5615 13.281 3.85645 13
656 1 2.88204 9.77615 2.40687 17
657 1 -14.9928 -5.4115 4.31997 19
658 1 -0.987664 3.61348 16.0873 11
659 1 -6.82986 7.13584 -14.5491 17
660 1 -10.4055 4.58269 -14.1363 11
661 1 3.27551 -11.9597 1.37159 22
662 1 11.5319 11.083 -12.5337 8
663 1 -15.2405 2.03115 12.7783 8
664 1 3.79328 -1.87384 -13.6059 15
665 1 2.98914 -9.45563 9.47838 15
666 1 -2.2294 17.6901 3.25453 12
667 1 -8.44765 -2.14249 15.9458 12
668 1 -11.4434 -10.2234 -7.51118 13
669 1 -4.7644 -6.41336 -12.7885 11
670 1 -5.96934 -11.8008 -6.39156 17
671 1 -3.73757 20.8282 -1.9015 6
672 1 8.78127 -4.7858 -8.50051 16
673 1 0.377683 10.6465 3.85094 21
674 1 5.25449 -9.71165 -6.33961 19
675 1 5.51815 -13.9141 0.462417 17
676 1 4.04733 -6.4126 7.31135 21
677 1 14.1024 1.62069 -7.82761 12
678 1 -0.388561 -12.5743 -8.72134 19
679 1 -13.986 -3.60028 2.14623 18
680 1 -7.03767 -18.1462 -0.577151 12
681 1 -5.30214 -13.1288 -1.2917 17
682 1 -12.2237 5.19138 6.44364 22
683 1 -6.81984 -14.9538 0.486115 21
684 1 14.4171 3.92653 -5.69027 11
685 1 -3.73419 16.9697 0.503121 14
686 1 -12.4465 4.54235 3.43201 19
687 1 9.83699 -2.01073 4.19163 19
688 1 -16.1658 -0.0637846 -10.406 12
689 1 1.94096 7.75131 -5.9923 18
690 1 6.81548 1.7659 -8.45153 21
691 1 7.527 13.3141 11.4374 14
692 1 8.38423 6.78918 -6.03247 18
693 1 -16.335 3.52744 -5.23557 9
694 1 -15.8995 -6.5054 -7.72515 12
695 1 -2.56555 6.68511 16.7579 13
696 1 1.20481 4.74416 -11.289 17
697 1 12.0671 14.2252 6.8436 11
698 1 -0.616908 -1.50272 10.554 21
699 1 -5.90396 -17.1125 -5.30483 11
700 1 -4.81253 -14.8908 9.88683 11
701 1 -0.233463 -6.75729 10.0909 19
702 1 14.7582 10.8129 7.70438 8
703 1 0.467448 -6.86818 -11.3565 20
704 1 -6.19586 11.3903 -2.0347 20
705 1 8.23016 4.33694 8.49114 20
706 1 -12.011 0.895746 2.58445 21
707 1 6.55811 8.1806 -12.633 19
708 1 0.370464 -14.1414 -6.47099 19
709 1 -0.14962 -18.7519 3.26985 11
710 1 0.35815 -14.0544 -3.16119 16
711 1 6.12106 4.8676 -8.94698 21
712 1 7.40581 17.7706 2.47744 9
713 1 -0.202994 0.294769 -19.445 9
714 1 1.34185 1.96296 14.3333 19
715 1 -2.75601 11.1787 -16.2799 12
716 1 -14.7388 0.910969 -13.0947 12
717 1 -10.9743 -1.0634 -3.03322 18
718 1 -0.327098 20.204 -1.83672 5
719 1 -3.8301 -2.4273 -12.0658 15
720 1 -6.95389 -6.0701 1.3161 23
721 1 10.6973 8.15685 -11.764 16
722 1 10.0805 -9.87331 6.15069 13
723 1 -8.35951 6.99755 15.1216 12
724 1 6.84053 -7.1402 2.72962 18
725 1 13.2424 -2.10522 1.76295 13
726 1 11.3119 -3.98881 10.1986 14
727 1 -2.1006 14.0133 7.57725 18
728 1 -14.47 1.20486 9.43644 18
729 1 -9.72233 2.82223 10.1481 19
730 1 -4.84345 -11.7618 8.76079 17
731 1 6.17583 0.974248 1.03252 21
732 1 0.939613 11.4814 9.47932 16
733 1 -16.7605 0.474141 -1.82331 13
734 1 10.1198 -0.191542 -5.42429 17
735 1 -8.49262 10.1641 -2.34142 18
736 1 -0.223866 -13.4749 6.72862 14
737 1 5.10378 -0.728874 14.4086 21
738 1 2.08996 12.8289 3.08981 22
739 1 -0.0532652 -9.27725 4.34031 22
740 1 -10.4126 -4.36435 -1.955 19
741 1 -2.08438 1.01422 11.8274 19
742 1 -16.3065 -6.26498 -4.62166 13
743 1 0.346275 11.9536 15.632 13
744 1 5.93446 12.256 3.26497 19
745 1 -10.0829 -9.72344 1.53297 22
746 1 -2.65709 -17.8209 4.29797 16
747 1 7.06545 -6.57408 6.25561 21
748 1 12.9779 -4.73028 7.44064 12
749 1 6.61924 10.2064 9.95983 19
750 1 -2.49088 -6.97069 -8.99263 19
751 1 -4.79468 4.14871 -12.0211 18
752 1 -11.3027 0.649927 10.9103 17
753 1 -2.99669 12.9582 4.50147 17
754 1 10.5597 3.65505 3.7062 17
755 1 3.18308 9.99779 -7.87727 20
756 1 -6.38163 9.8961 15.5692 12
757 1 10.1844 5.97545 12.9442 22
758 1 9.77268 -2.40747 -14.6647 10
759 1 -10.7255 -12.6515 2.79999 14
760 1 14.7268 1.42344 9.35247 16
761 1 4.09964 3.17147 -10.9976 16
762 1 -0.268748 8.92826 17.3873 13
763 1 6.98154 -12.442 -7.0584 15
764 1 3.65521 9.4191 -16.8394 10
765 1 -3.82477 -7.75087 -3.13642 20
766 1 11.5296 5.10428 -13.0605 14
767 1 15.725 0.674875 4.75781 9
768 1 -1.50028 -3.50544 12.7523 16
769 1 -2.71383 -10.2253 -9.58881 17
770 1 4.14771 15.2607 -1.10646 20
771 1 -12.6956 1.63855 5.78705 22
772 1 5.71832 3.58216 -5.67829 19
773 1 13.2977 7.59272 3.11694 17
774 1 1.25088 -4.29166 -13.8003 16
775 1 -8.07963 12.6951 6.75155 17
776 1 15.3624 8.8161 5.4407 10
777 1 9.68975 11.5861 -6.16726 18
778 1 3.09571 6.83927 -12.9602 20
779 1 6.84661 -4.99681 -2.80598 20
780 1 -13.8669 -0.413615 -2.38051 19
781 1 10.0641 7.91821 4.91232 16
782 1 -16.5452 -6.10176 1.5699 17
783 1 -11.2106 13.038 -8.9451 12
784 1 8.16383 4.10293 11.6648 23
785 1 -11.1175 -0.75916 -7.12076 15
786 1 -10.2615 2.70381 7.34091 21
787 1 -2.80129 4.74531 -6.93021 21
788 1 10.6858 -2.9444 -9.42263 17
789 1 -11.4818 -8.72674 -5.09903 17
790 1 11.8806 -6.89216 -1.7951 13
791 1 -15.1907 5.37844 -0.637523 11
792 1 -12.4648 -3.77848 -7.70321 18
793 1 11.2616 8.99224 12.6305 19
794 1 -7.5955 -5.1971 7.34185 19
795 1 10.4611 1.21875 16.3398 13
796 1 13.3042 -1.57387 10.1338 14
797 1 7.63004 -1.25326 6.05235 25
798 1 -11.6113 -0.279325 -0.0187732 20
799 1 -1.20828 9.14816 10.0062 18
800 1 3.38004 9.21052 -11.1479 23
801 1 -0.493854 -6.8863 -17.3705 8
802 1 -3.79566 17.1475 6.41365 14
803 1 -8.4809 -14.9865 8.01165 12
804 1 4.85633 15.0691 -7.50919 18
805 1 0.0156148 10.4597 13.5551 16
806 1 12.918 -1.06584 -6.59251 17
807 1 5.82681 -7.78951 9.73724 17
808 1 -3.47912 12.1355 -9.35899 18
809 1 3.95989 12.1343 -9.62644 19
810 1 -5.96023 -0.422527 8.83429 19
811 1 14.8421 5.96981 5.91013 10
812 1 -3.01219 0.91656 -10.6658 20
813 1 14.6449 11.203 2.12691 11
814 1 -13.6636 4.01229 -2.77786 13
815 1 -5.28864 -13.2283 6.38798 18
816 1 1.2214 17.0464 -11.1335 9
817 1 5.07184 -0.688887 10.9868 21
818 1 -2.04471 -11.5357 2.08518 20
819 1 -7.9691 14.7807 1.48888 14
820 1 -13.8052 8.15613 -2.07501 8
821 1 10.5982 -0.176336 -8.94418 19
822 1 0.16919 -13.4922 -12.1263 9
823 1 -7.94907 7.57294 4.12026 26
824 1 8.87158 11.1485 -8.81844 18
825 1 -11.0463 -3.10513 7.81645 19
826 1 6.84131 -3.08361 -16.5543 12
827 1 -8.2923 -10.0143 -9.37061 13
828 1 -0.27078 -16.5388 -4.19323 11
829 1 -2.44699 12.3205 10.083 19
830 1 6.04988 -10.2827 1.38064 19
831 1 -3.61818 13.2864 -13.7492 14
832 1 12.2616 0.521454 -2.57207 19
833 1 8.52646 8.44362 0.505057 20
834 1 0.431138 -16.381 0.81056 13
835 1 6.84057 -1.72803 -13.8222 19
836 1 9.89796 -2.00771 0.30974 20
837 1 -2.85853 9.21157 -14.2686 19
838 1 -6.8649 -8.35262 5.93187 21
839 1 6.13073 10.6096 -9.81529 21
840 1 4.10465 1.66566 -8.2627 23
841 1 -12.5173 4.33615 0.610913 17
842 1 -12.2549 3.53591 10.0167 20
843 1 1.83849 8.98774 14.8355 22
844 1 -9.07631 -5.15632 9.83474 19
845 1 8.80628 9.98033 7.95819 21
846 1 -4.87304 -12.4392 3.36952 18
847 1 3.38475 10.092 -4.36021 20
848 1 -7.15486 7.72327 12.3826 17
849 1 -3.41018 6.07593 12.0759 21
850 1 -9.77599 10.8886 8.15638 15
851 1 7.68797 4.69591 -3.60843 19
852 1 -6.60992 -6.23807 10.4835 22
853 1 4.13319 -12.6812 9.06109 8
854 1 12.6091 6.45895 10.2541 15
855 1 10.244 -4.59564 -4.07117 18
856 1 5.29133 -13.837 -9.47593 10
857 1 -7.64291 3.35538 -10.5512 18
858 1 -3.27076 -1.12966 -14.8819 15
859 1 4.06938 10.5333 8.24623 24
860 1 -16.9506 -8.82072 6.57264 10
861 1 -9.50827 13.2908 -11.6 14
862 1 -15.0166 5.50461 -7.16104 8
863 1 11.3587 11.0739 -3.63806 19
864 1 -7.36235 -17.2467 2.9009 15
865 1 -1.42069 8.23329 5.85979 18
866 1 13.8692 11.0167 11.6054 7
867 1 -9.5016 -10.0882 -2.27069 20
868 1 2.00824 14.6794 12.0166 13
869 1 -9.00951 -0.449902 13.4261 15
870 1 -2.92716 -16.2536 -4.76087 13
871 1 12.7531 1.45912 11.3034 21
872 1 1.13944 -16.541 3.9402 14
873 1 8.09813 9.71551 16.8954 14
874 1 -4.21019 -3.26403 7.60477 22