ITEM: TIMESTEP
6000
ITEM: NUMBER OF ATOMS
2000
ITEM: BOX BOUNDS pp pp pp
-30.0 30.0
-30.0 30.0
-30.0 30.0
ITEM: ATOMS id type x y z Coordination
1 1 -13.4473 5.59027 -14.9316 7
2 1 -5.5642 -11.8442 -7.4691 17
3 1 2.71803 12.2256 14.1274 16
4 1 6.80025 -11.1362 5.92364 16
5 1 -9.47815 8.76168 -1.87725 20
6 1 14.7951 -6.54169 -7.25013 10
7 1 -13.1502 6.29532 -6.20502 14
8 1 -1.11803 -7.49813 12.6262 10
9 1 -6.91623 -0.589352 -7.83707 23
10 1 -12.7068 -12.1492 6.96651 10
11 1 13.3989 6.81126 -8.91691 11
12 1 -7.89786 -11.8095 2.12252 19
13 1 -15.3708 -10.41 4.90996 9
14 1 -2.81667 3.48575 17.3229 15
15 1 2.86812 4.607 9.61395 19
16 1 -2.60684 9.8389 -10.9941 17
17 1 2.31271 -0.295079 12.4784 23
18 1 -8.46032 0.109904 -15.1139 12
19 1 -15.944 -2.14846 9.8811 14
20 1 11.4707 3.41042 8.34662 21
21 1 -0.741851 12.3395 -11.4784 20
22 1 -1.0494 9.60997 -15.9612 14
23 1 14.3398 2.82404 12.7349 13
24 1 -12.6846 5.0846 -8.93487 15
25 1 -11.2608 9.09844 9.23876 15
26 1 5.59667 -13.8711 5.3975 13
27 1 2.95562 -14.4633 -8.61888 12
28 1 7.82346 -12.5914 -0.122042 17
29 1 -8.64262 -14.5642 -3.67455 9
30 1 -15.6111 -4.85743 8.21014 19
31 1 1.56118 -7.03778 -7.52904 24
32 1 10.288 -10.2932 -9.55335 10
33 1 -1.04608 7.54847 -18.839 5
34 1 -0.230661 4.05552 13.7981 17
35 1 -1.99962 -11.5541 8.14047 16
36 1 6.71221 -6.1081 13.6403 10
37 1 -13.3083 -2.37391 -0.275746 18
38 1 -14.4102 -0.163037 10.5888 20
39 1 -9.18867 -0.696306 -0.528028 17
40 1 -3.96648 12.3092 -2.93622 17
41 1 -2.42885 -14.6469 -10.8311 8
42 1 3.12413 -2.07588 -13.2034 22
43 1 3.83328 -3.90639 -10.3816 23
44 1 -3.98536 -2.83298 14.6816 16
45 1 -13.0774 9.22451 -2.34578 17
46 1 2.22954 11.8759 -12.7407 16
47 1 -2.0203 10.7382 7.52262 21
48 1 -9.36924 10.6594 -5.63067 21
49 1 -0.0877205 13.7164 0.0778613 20
50 1 0.289005 -12.7455 2.3817 20
51 1 6.30926 -4.37801 -4.9634 21
52 1 3.79482 -5.61087 -12.8992 17
53 1 -10.9438 9.96335 12.6387 6
54 1 -15.8951 -3.72587 -10.2529 8
55 1 -2.98541 10.4278 -4.55138 18
56 1 -7.61067 -10.1817 8.73338 19
57 1 -4.84634 10.8493 13.9558 17
58 1 -9.22883 7.79816 -7.76481 19
59 1 -6.91757 10.2094 11.3245 18
60 1 -5.12367 -15.3051 11.9062 11
61 1 5.92691 4.71837 7.66529 19
62 1 5.3706 -14.045 -2.38178 14
63 1 6.01687 13.1349 17.3518 8
64 1 -14.286 2.20301 -9.32862 18
65 1 -12.0079 8.55604 -8.6721 15
66 1 6.10137 7.10179 12.6563 22
67 1 13.7332 -5.09526 -10.3442 10
68 1 8.02189 -13.0315 3.70519 11
69 1 -19.2154 -3.49125 3.81163 11
70 1 5.11961 14.7139 5.51225 17
71 1 4.5833 -3.09772 14.0994 16
72 1 -9.03424 -8.86931 5.71873 20
73 1 -15.1118 0.790501 -1.86104 12
74 1 10.057 1.11761 9.60875 22
75 1 -0.717565 15.7491 12.0045 12
76 1 5.15394 -1.62682 7.97053 19
77 1 -1.58153 -6.91518 -5.56939 20
78 1 -15.2636 7.66645 8.62181 8
79 1 -7.96776 11.1239 -2.91876 19
80 1 -3.86768 7.85248 -9.34781 19
81 1 7.71148 -1.79376 -4.03045 19
82 1 7.87036 14.5427 -9.4113 9
83 1 7.04329 -4.85525 4.57936 18
84 1 6.48249 -8.87932 8.69808 15
85 1 -2.94556 12.5659 -6.65547 16
86 1 -5.63686 13.9782 5.36877 17
87 1 -9.78326 -1.95148 16.6394 12
88 1 -4.52289 8.2641 7.5629 23
89 1 -7.21977 -4.18591 15.5029 14
90 1 12.9407 -5.87381 -2.27759 17
91 1 -10.3739 2.7859 2.59283 16
92 1 -10.1524 -12.6679 5.06735 15
93 1 10.5074 -8.70105 -7.23133 15
94 1 3.54955 -4.3785 -15.6408 12
95 1 -5.60164 -0.864832 -13.9549 20
96 1 -0.55603 11.0945 0.971174 20
97 1 -6.86051 6.54152 -11.507 22
98 1 2.33532 10.4723 19.8412 9
99 1 -1.71412 17.0419 -4.61556 20
100 1 -12.3103 10.5986 1.4807 16
101 1 2.18972 9.73456 2.89457 22
102 1 -4.14765 -6.23385 9.78525 21
103 1 10.6271 -1.61096 11.4976 19
104 1 3.9397 -4.11006 -6.94245 22
105 1 4.16565 -6.62473 -9.41868 23
106 1 -3.42691 5.58684 8.97074 24
107 1 7.80958 0.35563 16.5585 14
108 1 -13.8861 -7.01301 -2.6311 19
109 1 -10.8812 -6.64646 -3.54957 18
110 1 9.58851 -9.6564 5.30199 12
111 1 -9.67797 8.3068 2.1183 15
112 1 5.35738 6.66944 -14.6673 14
113 1 2.70355 15.6446 1.21249 19
114 1 -9.06224 -12.2711 11.4344 15
115 1 -10.4901 -15.3311 11.5145 12
116 1 3.23833 -8.76973 -12.0546 15
117 1 4.28959 6.20082 -7.80484 19
118 1 10.8991 -10.4188 -1.00607 11
119 1 -7.55991 -15.8792 6.69717 13
120 1 -10.7761 -6.63056 -0.562581 18
121 1 16.2367 8.74345 8.85577 12
122 1 13.6506 -2.49022 -12.025 9
123 1 -15.9659 -4.12714 0.4113 19
124 1 13.0259 8.6002 2.8842 18
125 1 15.2349 9.96102 3.45765 13
126 1 -5.41528 2.89915 15.3102 17
127 1 0.338015 8.72925 11.0843 21
128 1 -3.5694 9.76835 -7.51749 17
129 1 -2.77256 -9.4876 -7.65923 19
130 1 8.27871 -11.7748 -9.99781 7
131 1 -0.247048 11.7684 -8.53406 23
132 1 7.48633 -3.63967 10.6868 20
133 1 0.0117254 -0.212366 -15.2609 19
134 1 -1.41606 7.10248 -7.73297 20
135 1 9.636 1.02929 -5.17472 19
136 1 -13.3849 9.5942 -5.67919 12
137 1 -8.6238 14.8952 -0.959444 12
138 1 4.95206 3.53409 -8.01223 20
139 1 5.36811 -11.5285 2.94709 17
140 1 -6.93493 9.46841 -6.99707 20
141 1 -7.41921 12.6849 9.12802 9
142 1 12.9153 9.5804 -6.51727 13
143 1 2.50051 11.9767 -2.66363 19
144 1 -5.08449 15.147 -1.58417 17
145 1 9.74238 11.2086 -0.7405 18
146 1 -0.416636 10.9948 -5.78724 19
147 1 -1.03626 15.1287 -9.81021 17
148 1 0.216669 9.59729 -13.0313 17
149 1 -13.8401 -9.71545 2.39118 12
150 1 -13.1507 12.1017 -1.15265 10
151 1 -7.8568 -2.45852 -10.3707 20
152 1 -0.0454014 -10.7868 -14.3497 8
153 1 10.2675 14.5555 9.50456 11
154 1 -3.4537 14.7026 9.80301 14
155 1 -12.689 0.706211 -5.08636 17
156 1 -10.6981 11.7954 3.80048 14
157 1 14.1585 3.1364 -2.73368 10
158 1 -9.55486 5.1858 -15.75 8
159 1 4.70351 1.94267 16.6323 11
160 1 1.013 18.6005 4.55001 10
161 1 -1.87334 10.113 13.0779 20
162 1 0.234169 -7.54499 -13.5262 11
163 1 -3.03925 13.3112 12.7906 14
164 1 -0.370011 14.5181 -6.35883 18
165 1 3.3514 -5.55903 13.0224 12
166 1 -16.2612 -4.49494 4.12856 14
167 1 -2.2215 -12.3597 -12.4064 14
168 1 -9.17861 14.6835 -7.10373 11
169 1 -3.87 -5.63398 6.27674 23
170 1 4.04643 -15.1923 -5.14551 12
171 1 -7.43603 10.4772 -15.4212 12
172 1 -16.9715 2.27354 6.14897 13
173 1 7.51709 12.6209 -2.38708 17
174 1 -6.28087 2.64328 13.1629 18
175 1 -2.23027 -8.86983 9.90978 17
176 1 -9.41559 5.49406 -0.251881 18
177 1 -0.151064 16.3414 2.31591 18
178 1 3.15865 7.04172 10.3622 21
179 1 13.8768 5.64806 13.8448 13
180 1 -6.13473 16.807 3.39253 10
181 1 11.6669 -2.26511 -9.25292 17
182 1 -6.8181 12.6436 12.7007 8
183 1 -4.7621 1.46659 -9.30402 20
184 1 13.4283 -6.44115 1.68806 11
185 1 -6.8489 -3.49537 6.36157 19
186 1 -17.226 -1.82109 1.92919 18
187 1 -9.61004 -4.40615 6.8591 19
188 1 6.51901 9.55218 13.8857 18
189 1 -17.7242 -1.29361 -3.89467 9
190 1 -2.69688 -18.5075 -0.726768 9
191 1 3.22403 -6.26125 -2.32351 22
192 1 -2.85703 10.0419 1.91775 20
193 1 5.95751 12.9617 13.4895 17
194 1 -9.63753 1.64944 -5.95852 18
195 1 -6.84032 12.0343 -10.9305 13
196 1 -13.0222 -2.30994 -6.25915 17
197 1 -11.6528 0.555241 8.55424 19
198 1 -2.42462 -8.61822 6.10616 20
199 1 0.773644 -12.3278 6.29626 21
200 1 -12.9195 8.15645 3.14918 18
201 1 15.1414 6.83326 4.22137 14
202 1 5.3691 4.40978 -5.10703 21
203 1 -7.37102 -5.68106 -11.323 13
204 1 3.56948 3.07203 12.3979 17
205 1 2.33405 -15.0178 6.393 10
206 1 -4.72826 8.21842 -12.7891 18
207 1 1.83158 -11.7459 -10.6321 13
208 1 8.21402 3.17349 -10.4033 14
209 1 -0.397035 4.03115 -18.7425 7
210 1 -9.89891 -4.29511 -5.78268 20
211 1 -5.26571 17.3275 -5.31521 13
212 1 -10.9266 -9.44592 12.1274 12
213 1 7.45048 16.0345 -0.0474318 15
214 1 -9.30035 2.72333 14.7559 14
215 1 -4.63898 13.8378 -7.86841 16
216 1 4.20632 2.20556 9.26556 20
217 1 -4.69492 -6.0594 -10.3532 16
218 1 -2.85081 16.5014 -7.57666 15
219 1 1.62908 1.10461 -12.1834 22
220 1 -7.66777 -9.71524 12.2943 16
221 1 -9.09182 5.56907 9.96386 20
222 1 -8.98081 7.9394 12.0122 17
223 1 0.509355 -9.52145 -5.83826 21
224 1 -3.89645 -13.2943 -0.0410082 16
225 1 8.51279 -9.61589 -1.72568 19
226 1 12.0547 8.15314 13.8649 17
227 1 5.07655 11.2468 -7.84415 15
228 1 -0.230826 10.5288 -2.55644 19
229 1 -14.6056 0.378092 1.39895 16
230 1 -10.2532 12.2354 -1.44582 17
231 1 5.89982 4.36985 10.9513 21
232 1 2.4223 -15.6577 1.81342 16
233 1 11.0336 0.895527 -0.614474 16
234 1 4.87423 7.09358 6.25249 18
235 1 -9.20882 4.00542 7.06124 16
236 1 -13.5826 -8.42408 -6.28549 13
237 1 6.6927 1.6597 -12.5563 21
238 1 2.0675 -0.734803 9.20716 21
239 1 8.31414 11.6304 -11.6936 10
240 1 3.62803 -9.218 -4.36612 19
241 1 -4.7514 2.02597 -12.5116 20
242 1 -4.46488 -16.3109 5.66241 11
243 1 6.55443 1.70288 -5.50165 24
244 1 -9.1888 0.350789 2.6451 20
245 1 3.23481 -14.8596 -1.1526 17
246 1 -10.9754 -3.48696 -8.56581 19
247 1 1.97314 15.4311 4.35264 20
248 1 -0.240546 -1.3546 -11.9519 23
249 1 -0.298335 3.79336 16.5888 13
250 1 13.8977 4.71333 3.12143 16
251 1 11.8452 -5.50111 -12.0216 12
252 1 -7.02331 0.123319 -11.2351 20
253 1 -10.4365 -1.10953 -10.4414 15
254 1 -7.55646 -14.2397 13.3433 11
255 1 8.43608 -1.25569 8.90096 19
256 1 3.87059 -4.0262 9.32705 18
257 1 -8.52919 -8.50388 -10.4108 14
258 1 3.25671 4.73078 -16.3196 13
259 1 4.60583 10.4666 -1.41685 19
260 1 -10.0245 -6.68771 2.55188 19
261 1 -0.138162 13.1617 3.26084 20
262 1 -11.664 -2.39312 11.7717 18
263 1 -11.3468 -6.87743 -7.15371 16
264 1 -9.33929 -6.26899 -8.61524 18
265 1 -4.76213 8.82659 -16.2357 14
266 1 -8.04831 -8.60434 -3.37555 19
267 1 -5.60507 -8.56648 5.55968 21
268 1 8.15671 -1.0619 -14.3243 16
269 1 12.36 4.18467 -9.55405 9
270 1 11.0411 3.58775 5.20588 17
271 1 -12.1702 -4.02969 8.80735 19
272 1 -4.43187 -9.8038 0.924284 21
273 1 5.46758 10.6773 19.7058 8
274 1 -9.59394 -17.7254 8.70253 10
275 1 -2.47562 -11.2819 -1.72208 23
276 1 -0.580629 19.0783 -2.31068 15
277 1 5.85834 3.39759 -15.6693 16
278 1 -7.94583 -3.09119 -13.5129 13
279 1 -14.8137 -7.21437 10.1229 12
280 1 7.04866 7.63399 15.8448 20
281 1 0.350604 -10.2677 0.89976 21
282 1 -5.15387 -11.4523 -11.2954 11
283 1 -7.1629 9.29146 -10.068 18
284 1 7.39969 8.39274 4.39884 16
285 1 -3.84447 4.85835 -10.7608 22
286 1 -4.29255 11.2648 -13.6088 18
287 1 7.95744 -11.2033 -4.71271 14
288 1 -3.76549 14.6145 -4.93241 20
289 1 0.190285 14.2296 9.77103 23
290 1 9.30728 1.14756 5.93357 21
291 1 -10.7133 1.35522 5.68804 20
292 1 -3.71967 -5.73718 13.1324 15
293 1 -6.19873 8.89005 2.37602 19
294 1 1.15899 -4.15602 -9.09905 23
295 1 12.9891 12.5903 -1.7112 11
296 1 3.14085 -9.46496 -0.890833 22
297 1 -3.52144 0.215206 13.2115 19
298 1 -18.9583 -3.31576 0.15216 10
299 1 2.91107 -11.8174 -3.11004 23
300 1 -7.40691 9.15598 14.2512 17
301 1 -11.9406 3.82809 13.2188 16
302 1 -18.3776 -2.95985 7.40322 12
303 1 -12.7201 -4.38953 5.50176 19
304 1 13.2558 -2.87551 -1.81657 15
305 1 -13.3658 -10.3246 9.72175 10
306 1 7.30889 -1.40648 -6.772 20
307 1 8.74578 -13.5262 -2.71798 10
308 1 2.23431 19.0125 -2.69959 12
309 1 -7.09103 15.53 -4.7032 15
310 1 8.95652 8.79109 10.5424 19
311 1 -10.2397 -3.09352 3.86294 16
312 1 7.01861 -7.90086 -3.83031 22
313 1 -5.44281 12.2144 2.93231 19
314 1 -6.65762 5.97779 7.56976 20
315 1 3.1678 -10.0604 6.17322 17
316 1 12.5517 -4.32565 6.81042 16
317 1 0.0441393 5.57766 9.91691 19
318 1 -7.79283 -2.95686 -3.84201 21
319 1 2.79109 4.91264 16.8475 16
320 1 -4.71079 10.6552 5.43014 21
321 1 10.4983 8.89194 16.8734 12
322 1 -6.59978 16.4258 -7.94255 12
323 1 0.468391 -2.92523 -14.4384 20
324 1 7.42838 -7.97687 -9.71546 13
325 1 -8.94032 2.34241 11.6465 21
326 1 -17.2213 1.61252 2.43382 11
327 1 -4.12607 -5.42843 -6.92676 18
328 1 -5.84267 9.05226 -0.730103 19
329 1 6.61283 -4.62008 8.03704 21
330 1 -13.5259 -9.14532 -0.69672 17
331 1 8.96352 -9.50484 8.41655 12
332 1 -9.3406 -6.67514 12.5859 16
333 1 -15.4214 8.75305 2.85309 10
334 1 -1.93294 -2.8552 9.3222 21
335 1 1.98976 -12.5201 -6.52181 19
336 1 -4.86339 -2.70768 -9.07408 18
337 1 9.00015 2.5349 -15.3556 9
338 1 5.6995 10.8501 5.18238 19
339 1 -9.66348 -0.373457 -3.37079 20
340 1 6.02505 -6.68294 -13.3126 11
341 1 10.3214 2.36145 -11.6375 16
342 1 -6.39805 -13.3197 -5.06221 17
343 1 -13.2572 -10.6607 -3.6573 9
344 1 -7.81794 -8.79076 2.97255 18
345 1 11.1154 5.63189 16.52 13
346 1 11.1658 2.85456 -2.7349 18
347 1 -9.19178 4.35885 -9.13415 20
348 1 0.602064 16.3692 -1.26819 17
349 1 -15.4468 -2.75603 -5.30077 20
350 1 -9.91683 6.76527 6.49566 19
351 1 -8.2416 10.7614 1.04777 19
352 1 -1.47343 8.08974 9.01768 21
353 1 11.164 5.14427 13.4433 20
354 1 10.7066 -1.88006 -6.0713 15
355 1 7.73681 -2.68289 15.3241 12
356 1 10.2947 4.48739 -5.52754 14
357 1 -6.94819 -17.4032 -3.1682 8
358 1 0.714214 -6.49984 -4.00898 19
359 1 2.56946 10.2174 6.23048 19
360 1 -11.5385 3.00071 -7.82685 19
361 1 5.5475 -7.90594 -0.909616 20
362 1 10.7422 -1.54515 7.53212 22
363 1 -9.72843 -1.50332 -5.89462 21
364 1 -7.2572 -5.94955 4.88381 24
365 1 -12.062 -5.84918 11.117 15
366 1 -2.16885 10.0393 -1.23006 19
367 1 -10.3994 -9.80063 -2.18531 19
368 1 8.21393 12.7697 15.8453 9
369 1 -10.3943 2.749 -2.65672 19
370 1 -0.278251 8.8753 -9.66306 19
371 1 4.24123 13.1113 10.899 21
372 1 -9.93387 -9.30383 1.04531 19
373 1 -2.32504 -9.73081 -4.67563 19
374 1 -18.4362 -0.227233 4.81276 13
375 1 -16.3224 9.18082 -3.60025 8
376 1 7.42254 -7.74822 6.07129 18
377 1 -2.13285 -15.4171 -3.07756 16
378 1 12.6112 11.451 6.70545 17
379 1 4.76877 10.644 -12.7748 13
380 1 -13.7902 3.84081 -12.0929 12
381 1 -1.9333 17.6637 -10.8929 7
382 1 -8.75177 4.88299 -4.69191 13
383 1 -2.29462 -12.185 5.06264 22
384 1 13.0418 6.52455 8.71366 18
385 1 -1.07254 12.2992 -14.3098 13
386 1 -3.5195 -0.121173 9.6345 24
387 1 -15.5393 3.04804 -0.0700613 12
388 1 -8.51565 1.70294 8.39102 17
389 1 -7.48804 -14.1747 9.81531 21
390 1 8.06031 -7.07281 -6.10001 19
391 1 -14.5154 5.60182 4.45158 17
392 1 -17.2573 -0.0783525 7.93144 16
393 1 -12.9517 7.089 6.55184 19
394 1 -1.26701 -6.39127 7.94219 19
395 1 -8.28084 3.12543 -12.8515 18
396 1 8.73926 -15.6375 0.127294 7
397 1 -2.55135 -9.05285 -10.7183 22
398 1 -4.67201 -3.07576 11.2543 20
399 1 -5.14741 2.06021 -15.3587 18
400 1 3.08768 -9.50163 2.91738 20
401 1 2.37488 12.1982 -6.63896 19
402 1 -13.5247 10.1547 7.20021 9
403 1 -6.62999 -2.48375 17.6238 10
404 1 -12.8824 -5.63691 -10.2221 14
405 1 -11.2687 -9.91054 7.36826 17
406 1 11.4909 -6.26752 10.7757 13
407 1 1.10656 1.08024 -9.18565 22
408 1 11.1648 -7.00712 7.3181 14
409 1 13.952 9.7258 -3.37987 10
410 1 -3.97949 2.43133 10.8536 18
411 1 2.52897 12.0444 0.954622 22
412 1 9.67387 -4.53323 6.08495 22
413 1 -4.07091 -19.8584 -3.73349 5
414 1 -5.76692 4.1068 18.1865 10
415 1 -3.6795 13.0018 7.95024 19
416 1 -7.90153 -9.38203 -6.78161 19
417 1 6.66078 15.812 -2.82144 18
418 1 4.29752 9.16738 8.27802 19
419 1 -6.01481 4.49399 10.1244 21
420 1 -7.8147 -5.67879 -2.25685 18
421 1 -12.7847 2.84271 10.5783 20
422 1 -5.2994 -8.00495 -8.18524 18
423 1 -8.1699 9.06755 8.36379 19
424 1 -4.00549 -12.903 -3.86542 18
425 1 -1.94858 -6.63144 -12.0512 15
426 1 -7.63413 -11.549 4.6598 17
427 1 6.91686 1.29913 8.05807 21
428 1 -10.3338 -4.16633 13.9389 17
429 1 -12.7105 7.03862 -11.8708 13
430 1 8.04798 6.54493 1.24809 21
431 1 -5.18652 -15.4972 -2.21615 15
432 1 -2.93651 14.6633 2.38822 19
433 1 -0.918722 4.09587 -9.0611 21
434 1 -0.724435 6.75366 12.4993 19
435 1 -16.6216 -4.61847 -2.20887 15
436 1 -4.48954 18.2059 -2.41477 12
437 1 5.0277 14.113 -1.16321 19
438 1 -5.85077 -9.85547 -4.04953 17
439 1 5.27598 5.11669 18.2193 10
440 1 -0.398235 -15.4465 -8.71449 11
441 1 -2.3695 0.519406 -13.8491 21
442 1 5.09628 -14.0955 2.29099 17
443 1 -10.4059 9.28186 4.86792 17
444 1 1.31269 9.16217 13.7387 20
445 1 7.31909 9.60887 -0.369101 18
446 1 1.90692 9.45795 -0.315661 23
447 1 -9.71132 10.7893 -9.40035 19
448 1 1.68571 3.59304 -7.33912 22
449 1 1.49845 -6.77858 6.00918 20
450 1 -17.7955 -6.59183 -0.711162 10
451 1 1.41955 16.2263 7.14533 16
452 1 -6.78743 3.35075 -10.3918 20
453 1 10.439 6.2962 -3.39787 22
454 1 3.54836 16.1993 -6.99942 10
455 1 9.70566 -4.79003 -0.57094 20
456 1 14.0708 4.91071 0.0725343 13
457 1 -0.808787 3.96244 -11.8804 19
458 1 -2.33795 -9.37882 3.53936 23
459 1 -4.19205 -14.348 8.43021 14
460 1 1.94605 -7.68488 10.9763 14
461 1 -8.94831 1.21002 -9.48503 19
462 1 -7.60132 -12.4664 7.73806 15
463 1 -0.0250867 -9.8894 -8.53843 22
464 1 9.9722 15.1299 5.7239 12
465 1 0.406614 6.74743 -14.68 16
466 1 1.9745 -0.842928 16.1223 12
467 1 -16.5453 3.02825 9.91834 14
468 1 -3.91674 -17.4218 2.52541 11
469 1 -12.7605 -5.25034 0.376724 17
470 1 14.4398 -3.29803 -7.66729 12
471 1 14.2658 0.0647746 -1.52647 12
472 1 -3.94213 7.55592 -5.5468 18
473 1 4.27147 -6.4931 -5.74879 23
474 1 1.80617 3.86489 -10.7716 21
475 1 10.1802 -1.19443 -2.14025 17
476 1 -7.01728 -0.480932 15.3401 19
477 1 4.28295 17.5319 3.42452 15
478 1 -2.45847 -2.61824 -13.8478 21
479 1 0.713958 4.12502 -14.2375 16
480 1 -7.73722 -3.71256 9.6138 18
481 1 -3.1481 12.7608 0.278468 19
482 1 -10.3267 -1.02143 -13.6066 11
483 1 -14.2505 -2.9292 2.64127 16
484 1 -0.188693 -9.81029 -11.3812 17
485 1 -6.4497 -7.277 14.1095 12
486 1 1.78784 6.24992 -9.36381 20
487 1 14.5717 3.20235 9.55436 15
488 1 10.612 5.22801 -1.02773 18
489 1 -8.75337 -11.9402 -1.06226 18
490 1 -2.19922 -8.61084 0.162727 22
491 1 -0.565334 -2.5616 -17.5233 10
492 1 -4.03366 10.9351 9.72646 19
493 1 2.38738 -1.05713 -10.2913 24
494 1 12.4487 -4.07807 0.631737 18
495 1 0.274086 16.9776 -7.02628 15
496 1 4.47324 -7.01084 4.69951 19
497 1 15.3279 7.77075 -5.09736 9
498 1 4.171 10.36 16.4793 18
499 1 -6.54613 -0.306984 11.2874 20
500 1 7.44374 13.574 10.0641 18
501 1 6.32128 2.46463 14.3905 21
502 1 -3.00428 4.96186 -17.942 11
503 1 -6.77398 -5.46101 -5.02235 16
504 1 1.6096 -2.91803 14.0557 14
505 1 9.29707 12.5713 7.37684 18
506 1 5.74606 8.84393 -10.0188 19
507 1 -9.75176 13.5445 -3.83837 18
508 1 -0.64994 13.5359 -2.98758 17
509 1 9.31811 -4.09084 12.9654 15
510 1 7.71826 5.12224 -13.4185 14
511 1 10.8998 -7.26003 -0.906767 19
512 1 13.0301 13.4486 11.0918 7
513 1 -14.3352 -6.8043 5.45489 13
514 1 -8.88307 11.788 -13.1287 9
515 1 -1.85257 2.95303 9.10901 24
516 1 -15.0002 -0.74056 13.3259 11
517 1 -5.78623 13.5389 -14.5928 8
518 1 0.03346 -9.60063 -2.51654 18
519 1 4.99502 -1.67986 -8.76986 21
520 1 -2.37472 16.2354 -1.51927 17
521 1 -10.1336 -5.27831 -11.3948 14
522 1 2.92795 -13.2413 3.80434 21
523 1 -13.8532 -3.57372 -3.133 17
524 1 0.148169 15.5048 -13.0009 11
525 1 -2.46361 10.796 16.5947 10
526 1 -13.1265 -7.06877 7.90301 18
527 1 4.73346 11.3842 -4.38878 18
528 1 3.04167 -9.74475 -8.45667 18
529 1 5.14886 -6.95342 10.848 16
530 1 -13.1091 4.43039 1.89953 16
531 1 3.96755 8.01232 14.6478 21
532 1 4.23668 14.1943 -4.62948 19
533 1 12.0198 -5.68915 -5.97763 21
534 1 1.24852 11.7505 11.6298 20
535 1 -2.3134 2.64901 -16.4236 15
536 1 -5.63341 -12.3516 13.3231 9
537 1 -1.64423 1.3837 -10.8458 18
538 1 1.55159 1.39049 -17.9893 9
539 1 2.57598 15.7182 10.1396 15
540 1 7.1941 6.60461 -8.45009 16
541 1 -4.46636 -3.24785 -16.2955 11
542 1 -4.13919 -8.45917 -1.86488 20
543 1 -13.2263 -3.11727 -11.9725 12
544 1 10.8027 3.19492 1.12518 18
545 1 13.4021 7.02791 -1.47914 13
546 1 9.09347 -5.41197 -3.63966 21
547 1 15.5434 8.70625 12.3461 10
548 1 5.22703 -10.9982 -6.00526 17
549 1 -2.39786 6.85833 -14.8096 15
550 1 5.16068 14.2398 2.4255 22
551 1 -9.59886 5.77067 3.42121 17
552 1 10.3139 10.4756 13.9806 16
553 1 10.0967 8.0544 -1.01031 19
554 1 12.6048 1.18181 6.71088 15
555 1 7.70246 6.51274 -5.59131 21
556 1 5.27391 4.84462 15.0109 20
557 1 15.5487 5.60364 11.1642 13
558 1 1.45132 -3.47257 11.2683 19
559 1 11.1172 10.0042 -3.63032 17
560 1 2.77367 5.72418 12.9075 22
561 1 12.5062 0.581119 -9.83973 12
562 1 7.8638 -1.19122 12.9083 19
563 1 -7.1644 2.95621 -7.64626 23
564 1 15.8548 7.25878 1.04847 9
565 1 12.1026 -5.65569 4.30621 14
566 1 -11.7388 6.87048 11.2504 11
567 1 10.5522 11.4855 10.1555 18
568 1 9.59833 1.63072 12.7392 22
569 1 1.29776 8.10146 8.08906 18
570 1 6.12838 15.6573 11.6479 12
571 1 8.14073 3.93367 6.19842 18
572 1 -2.75203 -14.8299 2.65185 18
573 1 -6.75489 12.6604 -4.91544 21
574 1 9.40129 9.60982 -6.33881 18
575 1 10.6203 0.130999 -14.4435 9
576 1 0.81365 19.1453 0.848314 9
577 1 -3.43387 -14.5256 -6.55905 15
578 1 12.543 -7.77623 -9.8081 9
579 1 -14.6046 4.66519 7.76139 20
580 1 -9.4564 7.10474 -10.2669 17
581 1 -5.98241 -13.6395 1.08971 18
582 1 -6.36739 6.24918 -8.58738 21
583 1 -13.8201 3.72862 -3.21922 15
584 1 9.50775 -5.1674 2.55139 18
585 1 15.0896 12.9403 5.04058 12
586 1 0.441378 -8.95262 7.86081 19
587 1 -17.3402 -1.6414 -7.26611 8
588 1 2.49417 -1.32742 -16.4257 17
589 1 -4.02198 0.166607 16.4606 12
590 1 5.35183 13.2366 -11.6913 10
591 1 12.2911 0.0405738 13.104 16
592 1 8.23894 8.87391 -3.73104 17
593 1 12.7579 15.0413 3.60076 11
594 1 6.8843 -14.1471 -5.84561 10
595 1 -12.7124 -2.29731 14.9726 8
596 1 14.2052 -1.86231 7.95063 14
597 1 -0.699793 13.2741 14.0851 14
598 1 4.52978 13.7564 -8.91575 16
599 1 -9.05473 7.78154 -4.61588 18
600 1 9.83168 13.6529 3.10243 13
601 1 -9.25453 -14.6383 2.53032 10
602 1 13.9747 -1.12488 4.49476 11
603 1 7.48782 16.2648 3.44899 13
604 1 -3.44382 8.1466 11.3497 19
605 1 -15.2775 -7.31781 1.3279 12
606 1 -7.53281 -3.58281 -7.34195 20
607 1 6.72699 1.32216 11.1568 20
608 1 -6.60348 -7.61835 10.8674 18
609 1 8.03975 5.33977 15.3298 19
610 1 -6.47477 12.5112 -0.990495 19
611 1 9.42542 6.19824 4.16001 16
612 1 8.37057 3.29354 3.11234 19
613 1 2.96048 1.22447 -14.9358 18
614 1 -13.8594 -1.24009 7.12658 17
615 1 8.41285 -2.61519 -9.5899 20
616 1 13.2225 -8.45661 -4.57616 10
617 1 6.22827 7.59962 9.73619 19
618 1 -9.42464 -0.428482 13.5788 21
619 1 10.5238 9.58078 7.88793 18
620 1 -0.976396 -1.28626 14.2988 15
621 1 -3.60196 8.29358 14.4502 17
622 1 -1.65234 -3.77025 -11.2188 20
623 1 -6.13616 7.81103 9.89613 20
624 1 7.98863 4.34679 12.8768 23
625 1 -10.5778 -15.1411 7.83636 14
626 1 13.0701 10.6596 0.621639 14
627 1 5.45203 -10.9503 -2.69382 20
628 1 7.75588 12.637 0.684722 18
629 1 7.4613 12.3634 3.87699 19
630 1 4.7129 1.165 -17.8049 12
631 1 1.27222 16.0305 -4.26186 19
632 1 11.4188 13.2468 0.886461 16
633 1 -7.24767 -8.59315 -0.412469 23
634 1 -5.88939 -0.61446 -18.3239 8
635 1 -10.9221 13.797 1.5026 9
636 1 6.92575 -5.4149 -11.1301 19
637 1 10.8652 8.67946 -9.1401 14
638 1 8.44061 14.3345 -4.14138 11
639 1 -11.4848 7.15521 0.447599 17
640 1 4.26421 7.00904 -4.28207 20
641 1 11.9814 2.65257 14.7663 16
642 1 10.5633 -0.0015577 15.9771 12
643 1 -3.84411 -9.20172 13.0832 14
644 1 -9.44057 9.18331 -12.277 14
645 1 4.66199 16.1717 8.70846 11
646 1 9.19452 -6.04977 -12.796 11
647 1 1.25566 1.81979 10.8778 21
648 1 5.57738 18.575 -1.81525 9
649 1 10.1181 10.1658 4.85121 17
650 1 14.6771 -2.97667 -4.2817 12
651 1 8.18269 7.6826 18.5584 9
652 1 -11.4399 -1.721 6.06001 17
653 1 -0.0113376 -13.4485 -0.961906 20
654 1 -0.572209 -1.44432 -8.78867 21
655 1 -8.35627 14.0794 3.54757 13
656 1 4.68408 10.6444 1.90705 21
657 1 -17.5354 -6.08832 6.09919 11
658 1 -0.125972 5.60755 18.5459 14
659 1 -7.2768 7.27719 -15.1671 12
660 1 -10.6421 6.96739 -13.8995 13
661 1 2.99165 -12.4235 0.365649 23
662 1 8.25157 9.53476 -9.19072 16
663 1 -15.0107 2.48364 13.2513 10
664 1 5.11879 -0.0874317 -14.5806 20
665 1 3.42659 -9.26737 8.87006 13
666 1 -0.782756 15.9823 5.22377 19
667 1 -6.07859 0.768102 18.88 8
668 1 -10.581 -10.2474 -7.97233 13
669 1 -5.50299 -8.31509 -11.8055 13
670 1 -9.21995 -12.57 -6.56835 14
671 1 -3.36859 20.2595 -4.70603 10
672 1 6.39456 -4.84461 -8.45199 24
673 1 -0.0582218 10.4711 4.50502 20
674 1 5.24459 -8.10209 -7.20448 21
675 1 5.30382 -16.707 0.445558 9
676 1 3.73602 -6.41231 8.04733 19
677 1 14.58 4.3111 -6.72241 8
678 1 -0.42127 -12.561 -8.07378 16
679 1 -15.3756 0.229654 4.43302 19
680 1 -6.01154 -16.3185 0.289847 11
681 1 -6.10131 -11.2419 -1.29371 23
682 1 -13.8521 1.8062 7.46141 21
683 1 -6.55495 -15.8296 3.4369 12
684 1 13.5842 6.13752 -3.9825 16
685 1 -3.71702 17.704 0.962212 9
686 1 -11.8117 4.02259 5.45738 20
687 1 10.8242 -2.78724 4.36554 19
688 1 -14.7438 -1.37567 -8.89897 16
689 1 1.61582 6.07976 -6.09004 20
690 1 6.76156 0.724884 -9.29838 22
691 1 8.33992 12.7604 12.8771 14
692 1 6.76763 6.38171 -2.36771 20
693 1 -15.2844 0.961338 -6.37817 15
694 1 -15.1857 -5.51394 -7.78092 10
695 1 -3.36448 6.53888 18.4541 14
696 1 4.98213 5.4778 -11.2145 21
697 1 12.4372 14.7863 6.89536 12
698 1 -0.739464 -1.57323 11.0417 20
699 1 -4.87441 -16.8539 -5.61797 11
700 1 -8.01835 -17.2806 11.8107 10
701 1 -1.05989 -5.83298 10.5596 19
702 1 13.9129 10.767 9.81261 15
703 1 1.30422 -7.65155 -10.8617 20
704 1 -6.42109 9.22581 -3.64946 19
705 1 9.62547 6.48948 7.87676 16
706 1 -11.8544 0.0361539 2.92827 16
707 1 7.3169 7.5122 -12.1481 14
708 1 2.21373 -16.5789 -6.83513 9
709 1 -0.923457 -17.4626 1.20679 11
710 1 0.874698 -14.852 -4.06344 18
711 1 8.0044 3.44488 -7.23822 20
712 1 6.7651 18.7125 1.56305 8
713 1 -3.64838 -0.480179 -16.5657 19
714 1 1.35991 1.46594 14.3187 15
715 1 -3.23636 11.9651 -16.9 9
716 1 -10.7546 2.58359 -14.1728 11
717 1 -11.9331 -1.99243 -3.82041 18
718 1 -0.26262 19.7931 -5.29832 10
719 1 -5.09212 -3.52348 -12.0657 19
720 1 -7.4872 -5.8424 1.33904 19
721 1 11.0649 7.48142 -5.93555 18
722 1 10.1514 -7.95631 2.15855 12
723 1 -6.31483 6.90571 16.2648 14
724 1 5.89073 -8.1432 2.71967 18
725 1 14.7573 -4.17649 3.7111 9
726 1 12.4639 -3.80819 12.4624 12
727 1 -0.449822 13.2884 6.96157 21
728 1 -11.8909 0.836435 12.9423 19
729 1 -9.09088 5.06181 12.8084 14
730 1 -4.10232 -11.5219 10.4768 16
731 1 10.0666 0.799587 3.20339 15
732 1 3.30635 9.3446 11.8982 19
733 1 -15.7332 -1.69436 -1.49911 17
734 1 11.5671 -4.03632 -3.65504 15
735 1 -11.4415 11.0334 -3.89591 16
736 1 -1.22288 -15.0673 6.94308 12
737 1 4.50859 -0.922245 14.906 18
738 1 2.69323 13.6387 6.90156 21
739 1 0.606894 -10.1457 4.57439 19
740 1 -10.4258 -3.51983 -1.98284 22
741 1 -1.55393 1.21945 11.9106 20
742 1 -16.4683 -8.68258 -3.08339 6
743 1 0.637133 11.2866 16.5797 13
744 1 3.33989 12.4402 3.95753 21
745 1 -10.6257 -9.66121 3.97891 20
746 1 -6.35203 -17.6839 9.84303 10
747 1 8.75519 -6.35495 8.70393 20
748 1 14.1405 -4.89986 9.50049 10
749 1 5.87208 10.3649 10.504 18
750 1 -0.945421 -6.3809 -9.06385 23
751 1 -3.00855 4.40671 -14.1286 18
752 1 -9.09768 -0.552948 10.1742 16
753 1 -2.37816 12.8288 5.30764 21
754 1 13.6504 4.57316 6.34574 16
755 1 1.62298 8.91641 -7.85246 18
756 1 -5.66644 9.44746 17.2292 10
757 1 9.07946 7.63157 13.4832 21
758 1 9.75726 -3.14981 -12.8643 14
759 1 -11.1794 -12.0543 1.77736 11
760 1 12.7706 0.476477 10.0824 20
761 1 4.32389 2.13045 -10.2634 21
762 1 -0.464213 8.66197 18.1988 12
763 1 9.5579 -12.0071 -6.68018 9
764 1 2.61344 8.91724 -14.7907 14
765 1 -3.99116 -6.91244 -4.1464 18
766 1 10.403 5.97928 -11.3195 11
767 1 14.7363 -1.40128 1.27181 11
768 1 -1.63869 -3.7834 12.703 17
769 1 -3.10509 -11.8805 -9.30349 16
770 1 3.71556 16.1291 -1.95438 16
771 1 -14.2706 2.69575 4.7768 18
772 1 8.21944 3.52329 -3.86691 20
773 1 14.2862 8.59808 6.41328 15
774 1 1.464 -4.21756 -12.4543 21
775 1 -7.66704 11.659 4.90674 17
776 1 17.451 11.1043 5.98934 7
777 1 7.1504 12.8113 -6.12427 19
778 1 4.11172 3.16539 -13.3958 24
779 1 6.41675 -5.07656 -1.77286 17
780 1 -12.9174 3.39032 -0.728107 14
781 1 11.7543 7.7023 5.40009 19
782 1 -16.6503 -9.64202 1.41543 8
783 1 -11.5703 12.0589 -7.41743 9
784 1 8.53449 4.35962 9.77203 22
785 1 -11.8805 0.373075 -8.13842 23
786 1 -11.5848 4.44472 8.24205 20
787 1 -3.79935 5.2591 -7.05368 20
788 1 9.42445 -5.90486 -9.77061 19
789 1 -10.6728 -9.13822 -5.3357 19
790 1 13.8984 -8.62795 -1.38512 9
791 1 -14.8266 6.19113 1.18548 14
792 1 -13.0117 -5.12207 -5.63691 18
793 1 11.8965 9.28768 11.1923 19
794 1 -7.05647 -6.41918 7.93246 19
795 1 9.52835 2.95932 15.7015 17
796 1 13.8448 -2.2872 10.6692 13
797 1 7.81956 -1.8094 6.12306 19
798 1 -10.3648 1.61887 -0.0486206 17
799 1 1.89683 11.8581 8.92904 15
800 1 3.19752 8.39285 -11.2164 21
801 1 -1.47029 -5.14025 -15.1444 11
802 1 -3.81669 15.6811 6.13827 15
803 1 -10.6416 -12.4121 9.46088 17
804 1 6.88474 15.8738 -6.28491 10
805 1 0.834077 6.53056 15.6076 20
806 1 13.99 -0.646536 -6.87095 12
807 1 8.16447 -7.64039 11.4409 10
808 1 -3.76534 12.1407 -10.1198 14
809 1 2.60902 11.2472 -10.0668 22
810 1 -6.18709 0.359887 8.13164 19
811 1 15.9102 5.78299 7.85299 11
812 1 -3.39692 -0.859389 -11.1041 21
813 1 13.6809 12.9298 1.93599 11
814 1 -15.078 6.30488 -2.79983 14
815 1 -5.02826 -11.9845 6.88401 21
816 1 1.75252 14.4092 -9.78207 15
817 1 5.10173 -1.69351 11.2005 16
818 1 -2.34156 -11.9203 1.79579 20
819 1 -6.19988 14.7864 1.30263 16
820 1 -15.4398 9.29809 -0.211618 12
821 1 9.34863 0.285442 -8.61053 20
822 1 0.250914 -13.8057 -13.3989 7
823 1 -6.99048 8.40689 5.27658 21
824 1 10.2185 12.2233 -8.84031 9
825 1 -8.6068 -0.965649 6.84932 21
826 1 6.1417 -2.34262 -17.0559 11
827 1 -7.05315 -10.8948 -9.28609 14
828 1 -0.42937 -12.0927 -4.0949 20
829 1 -1.57867 11.6359 10.5263 19
830 1 5.91839 -10.5643 0.587736 19
831 1 -2.90724 14.8047 -13.2567 10
832 1 12.9556 -0.0143679 -3.98801 16
833 1 10.0284 9.59468 2.09526 19
834 1 0.472186 -16.3974 -1.13605 13
835 1 6.06272 -3.80623 -13.4594 19
836 1 10.1368 -2.07291 1.23263 19
837 1 -2.25169 6.46969 -11.9018 19
838 1 -5.39586 -8.90247 8.23154 18
839 1 5.73906 9.32073 -6.33321 16
840 1 3.90916 0.808111 -7.10085 23
841 1 -11.6351 6.37279 -2.79993 17
842 1 -15.1284 5.79595 10.7679 8
843 1 2.83117 7.7943 17.7258 15
844 1 -10.119 -7.02058 8.94222 17
845 1 7.47189 10.3503 7.8256 21
846 1 -4.66606 -11.951 3.53283 18
847 1 2.20985 8.93926 -3.92549 21
848 1 -5.63538 6.38568 13.0564 20
849 1 -3.28011 4.00755 12.4425 21
850 1 -10.1966 10.9108 7.12353 13
851 1 7.44112 3.67022 -0.442516 20
852 1 -6.95771 -5.42379 12.2992 18
853 1 4.21515 -12.6317 7.75313 11
854 1 10.726 6.50098 10.5218 18
855 1 9.42389 -4.59002 -7.27599 17
856 1 5.24538 -13.2275 -8.75359 9
857 1 -11.0861 2.77045 -10.616 18
858 1 -3.95623 2.08979 -18.7508 8
859 1 5.55432 12.544 7.3634 21
860 1 -14.427 -3.7065 11.4436 13
861 1 -7.6521 12.6348 -8.05727 17
862 1 -14.1523 3.67951 -6.27109 13
863 1 10.4325 15.3205 -1.7145 8
864 1 -10.4963 -16.9962 5.00682 7
865 1 -1.52361 7.94053 5.83725 21
866 1 15.77 13.1068 8.20757 11
867 1 -8.7827 -11.214 -3.70004 19
868 1 2.59318 14.4667 12.6654 15
869 1 -8.18558 -2.54163 12.4472 18
870 1 -1.1785 -16.6065 -6.22066 11
871 1 11.2731 3.39725 11.3779 22
872 1 -0.59226 -14.8063 4.0347 16
873 1 7.3986 10.1644 17.6573 13
874 1 -4.67849 -2.88314 8.20861 21