ITEM: TIMESTEP
871000
ITEM: NUMBER OF ATOMS
1500
ITEM: BOX BOUNDS pp pp pp
-30.0 30.0
-30.0 30.0
-30.0 30.0
ITEM: ATOMS id type x y z Coordination
1 1 0.828076 -5.91137 -8.76354 20
2 1 5.81972 -12.7589 7.81884 13
3 1 -12.8147 8.4042 -0.720211 12
4 1 -13.1001 0.404637 -8.74193 13
5 1 -0.615045 -7.92475 11.1562 16
6 1 -12.1056 -1.58918 -13.2637 9
7 1 -3.10482 4.11735 -5.21023 27
8 1 -4.38936 -13.7181 4.0973 9
9 1 -13.0749 -5.10675 6.85024 15
10 1 -0.0635085 0.320789 15.9451 12
11 1 5.98326 -1.88278 6.12599 19
12 1 0.949201 5.56879 8.80594 19
13 1 6.27723 -1.46683 3.26761 17
14 1 -4.77783 10.6062 -10.2573 13
15 1 1.71163 -1.18098 13.8053 18
16 1 8.5408 1.70435 14.2039 13
17 1 4.3497 6.33478 -12.9518 12
18 1 1.30256 2.12247 -17.353 10
19 1 -10.084 -0.0193339 -1.35189 25
20 1 0.162777 0.18261 -8.2699 23
21 1 4.73948 -15.8905 -5.77035 10
22 1 2.59688 -1.8038 6.24192 23
23 1 8.21703 -13.855 1.95215 16
24 1 -7.96367 -9.97835 -3.08366 20
25 1 2.87276 -2.30691 -4.1215 24
26 1 7.68887 -9.26536 -9.86808 12
27 1 3.4367 4.49848 13.3732 11
28 1 -0.0434883 -11.3259 6.4853 16
29 1 4.8539 -5.50357 10.0622 19
30 1 -12.9185 -1.37507 -1.22632 22
31 1 -7.71687 1.23191 -6.22133 22
32 1 -6.3544 12.1266 7.20771 15
33 1 1.08704 4.70835 -8.85593 24
34 1 9.49416 -4.9702 -9.56326 16
35 1 -3.43023 -2.39575 11.3778 21
36 1 -13.2377 6.28871 -3.53027 16
37 1 1.94529 12.9436 9.24127 12
38 1 -7.63377 13.0968 -6.3646 8
39 1 -0.385572 17.6142 2.31478 10
40 1 0.694153 -11.5952 -1.71611 22
41 1 13.3266 -12.0632 -0.202418 11
42 1 -12.4208 3.39167 8.49463 10
43 1 -8.91627 -2.85594 -5.94598 22
44 1 5.29443 1.32536 3.28176 22
45 1 -5.19193 8.449 -2.02256 20
46 1 -9.48191 -10.6333 4.83662 15
47 1 -10.5757 2.35851 -7.55659 23
48 1 2.77718 7.03872 -7.16708 22
49 1 1.9612 5.66892 3.58792 20
50 1 1.21136 0.304772 8.01119 23
51 1 9.92222 -12.3606 -5.80242 14
52 1 4.93511 1.32941 13.9881 20
53 1 10.9422 -4.39854 -3.77816 22
54 1 9.54824 -12.0719 4.25772 15
55 1 -7.60201 -4.95535 0.379407 23
56 1 6.31292 -4.413 12.5272 16
57 1 -6.39256 -10.2673 5.5589 18
58 1 -10.4314 -3.32073 -0.66587 23
59 1 11.522 1.64483 3.46499 25
60 1 8.41249 -2.451 -4.03892 21
61 1 -0.98864 11.5568 9.00353 17
62 1 4.70492 -0.132046 8.6381 20
63 1 -5.07769 -6.49874 1.44253 23
64 1 -1.56568 -4.78352 -14.4172 12
65 1 -5.95324 11.6498 -2.82529 19
66 1 -2.42265 8.26936 -10.8433 17
67 1 3.90164 2.13656 -4.54976 25
68 1 5.73643 -0.738764 -4.46832 21
69 1 6.8994 -9.14285 3.6535 23
70 1 7.59815 -10.2597 9.46192 11
71 1 -5.07355 13.526 -5.60939 18
72 1 -9.17022 12.3294 1.64515 14
73 1 -5.42101 9.58258 7.41425 21
74 1 -8.11823 -3.73684 8.45857 21
75 1 12.5808 -10.9781 -8.05785 6
76 1 -8.59331 2.25936 3.39738 20
77 1 5.34538 -7.33544 -2.57888 22
78 1 5.60888 3.1384 -9.86444 23
79 1 -11.241 -2.00782 -10.0741 20
80 1 1.97848 4.37889 6.43702 20
81 1 -1.64842 15.7287 -1.83123 17
82 1 -10.0845 3.88656 -10.1627 19
83 1 1.69779 12.8133 -1.74038 19
84 1 -1.57632 9.61587 1.85783 21
85 1 -0.709406 3.42402 -3.59914 24
86 1 -6.6655 -6.15054 6.86021 20
87 1 3.17963 -0.296429 -6.7015 21
88 1 5.26519 -1.87071 -14.7022 11
89 1 -2.3555 0.706943 7.281 22
90 1 -7.86278 -7.08608 -3.58587 25
91 1 5.31834 -6.12142 1.95458 19
92 1 -1.03142 -3.34022 -7.67518 22
93 1 11.718 -10.7398 2.4323 17
94 1 -5.68515 7.26318 4.09554 20
95 1 6.3885 0.715715 -14.8164 8
96 1 -2.94428 4.54039 1.99591 21
97 1 4.01611 5.8794 -9.61754 23
98 1 11.8426 -13.8358 2.28263 9
99 1 1.10174 -13.9285 4.50179 14
100 1 -7.30786 -7.89949 -0.614348 26
101 1 -12.3038 -5.45497 0.989788 18
102 1 11.0916 6.21275 5.84568 15
103 1 7.94719 5.92667 -2.65649 21
104 1 -11.4863 3.39456 5.21387 17
105 1 -5.42705 7.19487 -9.72974 22
106 1 1.96579 -2.52797 -8.4573 23
107 1 9.83424 -4.26423 8.56113 16
108 1 -4.17569 7.48037 -5.00964 20
109 1 8.16048 3.60059 -7.80209 20
110 1 -9.76232 10.0364 -5.74252 16
111 1 3.31883 -3.5828 -1.07184 23
112 1 -10.5201 8.22112 -2.70365 21
113 1 10.6334 0.343154 -12.0078 12
114 1 7.93732 -10.8309 6.34477 16
115 1 -8.69081 4.41117 -5.70466 23
116 1 -1.94506 4.03985 -0.802719 21
117 1 7.51659 14.6973 -1.58692 10
118 1 4.59672 16.7386 -4.99129 8
119 1 -2.49557 9.37231 -3.0382 24
120 1 -1.11369 -1.46826 -10.0782 21
121 1 0.570863 16.4292 5.29359 12
122 1 -13.6524 -5.84754 -8.04081 13
123 1 12.5855 -4.07257 -8.79139 12
124 1 -4.03949 10.2063 4.39879 20
125 1 -4.50248 10.5978 -5.52153 19
126 1 2.22164 -5.52887 15.7461 10
127 1 -13.9338 -4.20978 3.97274 14
128 1 -4.02845 -10.4678 3.19378 22
129 1 2.97084 -17.0411 -0.528836 12
130 1 -10.9806 8.77755 -8.29928 10
131 1 -0.0574278 8.94344 -1.32255 23
132 1 4.15907 13.8939 -6.42325 16
133 1 -2.30671 -9.9806 8.80348 14
134 1 -9.97391 5.48655 -2.64562 24
135 1 5.30079 12.9886 5.76923 11
136 1 -0.668628 2.75591 9.66631 23
137 1 -2.69562 15.5729 1.36318 20
138 1 -9.58703 1.12414 -10.5649 20
139 1 12.7686 -7.27642 3.54192 16
140 1 -6.03335 -3.28393 6.12791 20
141 1 -13.5673 0.890453 6.2837 17
142 1 -6.68944 -9.00439 2.57187 24
143 1 -14.9656 -2.91127 -2.97611 12
144 1 -2.7758 1.58766 1.35535 19
145 1 -0.140462 -13.3995 -3.94014 18
146 1 -2.22891 -1.95827 2.75776 20
147 1 -4.94667 0.208722 -4.73641 23
148 1 3.06127 -7.03817 -0.156133 25
149 1 -5.81781 12.3412 2.3083 21
150 1 -7.00189 0.0754186 4.06514 17
151 1 -10.5717 -5.4351 -4.25809 22
152 1 -6.33444 10.8662 -7.37136 19
153 1 -10.562 -8.78468 -3.97497 23
154 1 -8.344 5.94958 13.7553 9
155 1 0.289612 -10.0385 3.0708 20
156 1 6.11601 -16.2732 3.19384 7
157 1 15.0963 2.13189 4.64688 14
158 1 4.94323 6.59656 -4.72966 25
159 1 3.8239 -0.113643 11.2989 22
160 1 -7.02789 -2.55462 2.89332 22
161 1 -4.15593 5.88221 -12.4992 19
162 1 4.68585 0.763601 -11.8612 20
163 1 -11.7417 -8.63624 -9.09123 10
164 1 -1.97556 14.9495 -5.25687 18
165 1 2.63612 17.2989 -2.06956 10
166 1 7.27895 -0.301551 11.51 20
167 1 -6.16586 -9.52502 -8.56751 20
168 1 -10.1158 7.17055 -5.64701 22
169 1 -1.62964 4.92331 -10.8244 22
170 1 -0.869005 4.3546 3.74491 24
171 1 -10.6878 6.55876 0.487499 23
172 1 -9.63275 11.1243 7.00459 15
173 1 3.6112 -7.82815 -8.32691 20
174 1 -4.64515 -12.8714 0.778554 17
175 1 10.6047 -13.7221 -0.307529 13
176 1 -2.99832 2.4997 4.72085 21
177 1 -5.66015 -0.269861 1.90104 21
178 1 0.687616 -5.34353 -0.606445 23
179 1 2.25317 12.9558 -8.29322 14
180 1 1.38725 10.9048 0.857555 20
181 1 -12.1039 0.839268 1.20343 23
182 1 4.91788 4.17057 4.98436 21
183 1 10.0001 -3.65987 -1.21613 23
184 1 2.93679 8.80473 5.14095 20
185 1 -10.4451 3.3937 -0.188482 21
186 1 -13.3031 -7.74088 -4.63553 17
187 1 8.56522 2.6962 -10.8173 16
188 1 1.90739 -2.46442 9.327 21
189 1 5.58669 8.29191 -10.6775 12
190 1 4.51579 -5.02869 -8.6943 24
191 1 -1.52408 3.02467 -8.0394 24
192 1 10.5529 -3.29477 -6.39535 20
193 1 -11.9377 -2.19535 5.13019 21
194 1 8.59669 -14.277 -3.04155 16
195 1 -8.93745 -4.72546 -10.5454 22
196 1 4.75076 16.1295 0.377668 11
197 1 6.9436 -3.3126 -9.53191 18
198 1 1.87073 1.93772 13.6351 16
199 1 16.1068 -1.04827 -0.816265 15
200 1 -4.52243 -9.3138 0.217029 23
201 1 7.27896 -10.6159 -7.31915 13
202 1 -1.13169 -5.56298 5.07483 19
203 1 -6.3358 -1.91162 -6.6943 24
204 1 -13.3995 3.69752 -9.17328 12
205 1 9.29202 2.96995 5.73352 22
206 1 6.95572 -4.84266 7.24632 22
207 1 -5.08353 -4.03529 -14.9284 14
208 1 3.4076 -7.59986 7.61956 20
209 1 1.59749 6.80859 -14.7423 14
210 1 7.10213 11.3529 3.52016 15
211 1 -8.84243 -7.88196 4.67842 22
212 1 -1.18374 12.0767 -0.760551 23
213 1 -11.1062 -3.10908 7.97425 19
214 1 -5.71837 -7.29454 -6.27771 23
215 1 -4.2647 -4.56175 -7.33207 22
216 1 -9.2277 -10.0566 -9.89676 14
217 1 -2.34689 -7.78187 2.57076 22
218 1 -4.70388 -3.2841 0.708262 20
219 1 2.18687 -5.78112 4.497 22
220 1 8.83528 -0.286294 3.76841 21
221 1 -5.10894 -2.45789 -2.24257 23
222 1 -7.05635 -2.36419 13.4429 15
223 1 -1.9053 -9.81825 -1.9247 22
224 1 2.2663 4.71842 -4.29636 23
225 1 -2.11063 -11.3726 1.04823 21
226 1 -3.5523 13.6999 -0.512552 19
227 1 -1.81391 0.895168 -13.7565 21
228 1 -6.44232 -3.09745 -12.1557 20
229 1 2.68012 -4.72387 1.49612 20
230 1 3.00484 -11.8715 -3.87202 22
231 1 -2.66843 -11.4417 -4.34703 18
232 1 -12.7175 1.61571 -11.9963 11
233 1 10.6011 0.126582 6.31418 22
234 1 -4.2663 -2.49908 -9.79586 22
235 1 0.334923 11.0914 -8.46057 18
236 1 -2.6785 -3.26339 6.28456 19
237 1 -6.71758 14.1562 -0.300454 15
238 1 -3.30561 12.3199 6.91419 19
239 1 13.349 0.192046 1.40698 20
240 1 -11.0729 0.19172 7.80961 24
241 1 -0.956549 -3.58178 14.4725 15
242 1 -1.34264 11.6384 4.65761 17
243 1 1.83107 -0.713155 -11.2046 20
244 1 6.07414 -8.69993 0.258149 21
245 1 -4.16447 -2.68649 13.9984 16
246 1 -14.2146 -2.09332 7.4409 15
247 1 15.7089 -7.57393 -1.52847 12
248 1 7.98854 -5.52972 -2.45218 20
249 1 10.4083 -11.4404 -2.33223 19
250 1 -4.15262 -4.49442 3.75252 22
251 1 -6.70317 14.7641 -3.19646 11
252 1 -1.36088 3.99544 6.74802 21
253 1 9.73306 4.47507 8.35402 16
254 1 -9.52536 -0.99899 2.01942 23
255 1 2.39347 -8.91303 -2.38037 22
256 1 -7.08916 10.3364 4.40608 23
257 1 -8.47446 4.76739 1.85212 22
258 1 0.233153 1.78473 5.56041 24
259 1 4.21806 -10.3726 9.63524 17
260 1 10.2573 -4.88101 3.00327 23
261 1 -2.21414 9.34904 7.01836 20
262 1 -6.45821 0.334831 -9.29305 22
263 1 4.17605 -3.35143 3.81095 20
264 1 -3.27232 1.80018 15.2191 11
265 1 -1.68115 14.2767 4.29088 20
266 1 -12.0852 3.80846 -4.70908 20
267 1 -11.5079 0.750478 12.2099 14
268 1 -14.2882 1.8212 3.36368 14
269 1 -3.0599 -0.945635 -7.54817 24
270 1 -7.52605 10.6455 -0.21623 21
271 1 8.70379 -2.70777 11.0747 15
272 1 -9.50328 -9.94369 1.98352 20
273 1 9.63673 -7.70863 8.13761 13
274 1 -4.898 2.52655 0.114536 21
275 1 -8.60051 7.98906 6.05092 23
276 1 -1.65804 -4.45079 9.23719 22
277 1 4.18022 -9.29196 -5.03279 20
278 1 -3.45188 0.952853 -10.2355 24
279 1 3.82013 -3.21933 -11.281 20
280 1 6.98742 12.0504 0.811417 18
281 1 -13.7166 -3.10066 -8.30412 13
282 1 7.86864 -7.48014 -4.86423 20
283 1 -8.31264 -8.84242 -6.33633 22
284 1 -13.8022 -10.9725 -3.54776 10
285 1 -2.44224 -6.57321 -0.821832 21
286 1 -2.25654 -1.21692 -3.2481 22
287 1 12.646 6.52674 -5.12879 14
288 1 -10.5864 -0.119213 -14.5807 12
289 1 -15.5607 -5.87255 -4.53906 10
290 1 2.48147 2.72047 3.12965 25
291 1 -5.57184 6.6937 7.39201 17
292 1 -9.77452 10.3586 3.9584 16
293 1 -7.50155 4.66664 8.68859 22
294 1 12.2166 0.839905 -9.66648 12
295 1 12.025 -7.31537 -8.93961 11
296 1 0.356311 7.1696 6.30378 23
297 1 -5.31552 6.18872 0.610218 21
298 1 1.44828 -7.38024 -5.69369 23
299 1 0.729165 10.3602 6.87615 22
300 1 3.38007 7.28401 -2.03158 23
301 1 -9.18906 2.43579 -3.51484 23
302 1 7.81649 -11.6676 -1.09895 21
303 1 12.2009 -2.50947 6.70855 17
304 1 -10.9986 -6.88126 -6.81589 17
305 1 -4.98001 -11.3521 -2.29426 18
306 1 4.85958 14.8234 -2.88045 17
307 1 -10.1539 -9.47673 -0.917701 21
308 1 -12.9038 8.98583 -5.52566 9
309 1 -0.968968 14.1289 -8.57005 14
310 1 6.41912 10.0193 6.41097 17
311 1 -10.7001 -12.0094 -2.67084 14
312 1 -1.33462 -6.29034 -6.45297 21
313 1 -9.79812 -1.27156 10.5021 19
314 1 -13.09 5.15841 -1.04622 17
315 1 4.63524 -10.2458 6.31541 22
316 1 -5.82129 -10.6605 -5.45614 19
317 1 5.79562 3.47155 -13.1271 13
318 1 -7.06125 6.36494 -3.96724 25
319 1 -1.64826 -12.9315 3.85306 16
320 1 12.5415 3.73042 0.884818 22
321 1 -5.56142 1.60425 9.33434 25
322 1 -15.8472 -0.378859 -1.29841 11
323 1 2.15753 2.99879 -1.82719 26
324 1 -7.43134 4.99658 5.21413 20
325 1 -6.83844 -12.019 3.03023 15
326 1 2.14861 -4.26214 -6.30186 22
327 1 7.54573 -13.9809 -6.20853 14
328 1 0.145817 -4.07791 6.9786 20
329 1 -11.0086 0.405391 4.39625 18
330 1 -0.179053 -7.2361 8.01656 20
331 1 10.3812 -7.08771 -1.93692 21
332 1 4.84257 -10.7548 -9.51976 12
333 1 -5.02936 -4.44761 9.10728 21
334 1 4.60828 -6.26512 -5.81783 23
335 1 -3.81091 2.8528 -12.509 24
336 1 3.39709 -15.2654 1.92735 18
337 1 -1.54577 11.6236 -6.11729 22
338 1 -6.16746 -0.126411 15.433 12
339 1 -11.6322 -7.99211 6.74171 15
340 1 5.61456 -8.28957 11.2405 14
341 1 9.48003 3.01051 -2.16223 20
342 1 -5.83966 3.28863 2.99211 22
343 1 5.82024 1.44879 -7.12829 21
344 1 10.5333 -9.00142 5.31781 16
345 1 -0.112437 6.70578 1.69524 22
346 1 10.4783 7.67124 -3.03656 23
347 1 -0.884788 1.99435 13.1799 18
348 1 4.35274 11.4949 2.56633 18
349 1 5.19455 -7.12271 5.01365 21
350 1 -3.60299 -11.0029 -7.78906 16
351 1 -2.96605 12.6764 2.22962 23
352 1 -10.3409 -12.0055 -8.09919 9
353 1 6.51854 0.949417 5.86631 22
354 1 -7.98651 0.185585 12.0756 23
355 1 -3.21323 -6.15219 -4.02676 20
356 1 -10.2642 5.73395 7.31547 17
357 1 -11.1123 0.927679 -5.42697 19
358 1 -7.7575 7.31268 9.12973 18
359 1 -1.0037 -10.3163 -10.0974 12
360 1 -4.38586 -6.05127 -12.7694 12
361 1 0.83008 -15.7422 2.09191 12
362 1 -9.33258 -2.01184 5.44557 21
363 1 11.7418 -1.79697 3.82884 22
364 1 -5.74779 -4.84788 12.0602 15
365 1 -9.58831 2.89673 -13.3195 15
366 1 10.0592 5.91317 -0.252746 23
367 1 -7.3236 -11.1762 -0.123586 17
368 1 -0.276543 5.4746 -6.27615 24
369 1 2.97166 14.5642 6.52331 12
370 1 -2.90269 6.11034 -7.7963 25
371 1 -0.550642 7.54083 12.9227 16
372 1 -12.8183 -5.41148 -1.84488 20
373 1 6.35077 10.9003 -5.94082 17
374 1 -10.386 -3.71852 -12.9288 16
375 1 2.49358 -15.0167 -3.26094 18
376 1 -0.327663 1.89605 -10.6666 23
377 1 -7.87189 13.2707 4.77441 14
378 1 5.27928 7.09306 11.8197 14
379 1 10.7757 9.03843 -6.16325 14
380 1 3.91532 12.3723 -0.693441 18
381 1 -7.63051 9.1211 -9.66708 12
382 1 4.07298 4.03533 -7.16276 23
383 1 8.38453 -10.9007 1.61155 21
384 1 -14.1042 -8.12865 -1.60819 12
385 1 2.99691 4.89733 0.751164 24
386 1 -6.63868 4.00668 -14.5752 13
387 1 13.2178 6.3531 0.715409 17
388 1 5.88075 -5.06985 -0.305572 21
389 1 15.7023 -2.49719 -3.45016 11
390 1 -3.16552 -1.46298 -15.4805 18
391 1 0.00554668 -9.01741 0.0835202 23
392 1 1.17865 -12.4629 1.56177 23
393 1 2.74368 -7.61906 10.8568 20
394 1 -9.43934 -0.540413 -8.0054 26
395 1 5.58639 7.87891 3.18515 20
396 1 2.22261 -10.6932 -6.93381 19
397 1 -0.216697 7.90964 -8.61838 22
398 1 2.11651 -2.92761 16.5733 10
399 1 -12.9947 -10.935 -0.296454 11
400 1 15.6634 -5.59687 -4.38203 9
401 1 10.1235 -6.37778 -6.80364 22
402 1 -1.67753 6.33026 -3.30073 24
403 1 -5.6705 4.86208 -6.928 24
404 1 2.63593 -6.20696 -11.2252 20
405 1 11.998 3.91419 -11.1385 9
406 1 7.47871 -1.14275 -11.8636 14
407 1 -9.41435 0.488206 15.19 10
408 1 9.92145 10.6981 2.08212 12
409 1 0.443889 -0.84034 -16.1311 13
410 1 0.299925 -6.85358 2.27415 18
411 1 -4.4149 -1.54204 8.4637 21
412 1 -2.91808 16.8967 4.25675 10
413 1 -8.65681 -2.28348 -15.0269 16
414 1 -15.0179 -0.794723 1.31563 16
415 1 -7.4614 -6.87589 9.8343 16
416 1 -3.17878 9.47344 -8.04477 23
417 1 12.7825 -1.7734 -1.33379 20
418 1 -8.81006 -11.9072 -5.38125 16
419 1 0.125531 -10.1351 -4.70754 22
420 1 -9.73532 4.7202 10.6544 13
421 1 0.115067 -4.00133 -11.6969 19
422 1 2.72605 7.76759 1.04297 20
423 1 12.6758 -3.37249 0.928275 20
424 1 4.90263 11.3433 -8.93404 14
425 1 3.00415 -10.2705 0.39893 20
426 1 3.59137 -0.157824 -1.77259 25
427 1 -8.89314 1.79908 6.66775 18
428 1 -7.51905 -1.81259 -0.495865 22
429 1 4.09372 5.21256 8.41772 16
430 1 -1.65873 1.2548 -16.9815 12
431 1 -3.26388 -2.98102 -5.05487 23
432 1 -0.0639481 -3.27743 11.7836 20
433 1 8.00179 5.71643 5.05645 24
434 1 6.62982 6.1953 -7.72295 23
435 1 -10.4616 11.1619 -1.89966 9
436 1 -2.64513 12.3293 -3.24489 20
437 1 5.43497 -4.05304 15.3391 13
438 1 0.0525977 -1.77991 -13.4765 18
439 1 -12.6135 -8.4433 1.32694 17
440 1 -0.939933 -1.57846 8.74716 20
441 1 -3.68459 12.924 -7.84588 18
442 1 3.47023 -13.2953 -0.822101 21
443 1 8.06569 -1.46247 -7.22633 20
444 1 -4.60061 16.3972 -0.976209 13
445 1 -7.64219 -5.72376 -13.4423 14
446 1 5.53436 -12.3564 1.05116 19
447 1 -10.0444 -6.52701 -1.23168 23
448 1 -6.09714 2.92712 -4.17383 25
449 1 -9.66244 -5.21495 6.00843 23
450 1 5.26685 9.52133 0.121744 20
451 1 7.17008 -6.71565 -8.25042 20
452 1 4.37443 -7.04751 13.8916 11
453 1 6.56302 1.61387 -2.0776 24
454 1 -0.588208 1.11829 2.71385 23
455 1 -7.9611 9.27786 -3.7491 19
456 1 14.4325 -8.26566 -4.77826 11
457 1 2.46172 7.63964 12.4424 10
458 1 -4.33184 3.8953 -9.56362 23
459 1 3.61394 10.7681 7.57576 18
460 1 11.993 7.07189 -8.48878 11
461 1 -2.71891 -2.42122 -12.4469 20
462 1 -0.28744 -7.50454 -3.01445 21
463 1 -10.3211 -7.31462 -12.2037 12
464 1 8.93518 -0.299113 -1.34268 24
465 1 14.7809 3.10851 -4.00213 11
466 1 10.1554 -9.47558 -7.25556 17
467 1 7.45685 -11.1346 -4.52065 23
468 1 6.80115 11.9754 -2.17552 22
469 1 -8.09822 1.6537 0.463043 21
470 1 8.30251 8.79763 -0.882322 22
471 1 15.0604 2.07798 -0.839811 17
472 1 13.3902 0.985058 -6.38802 12
473 1 10.3873 0.00274681 12.2953 13
474 1 1.6513 -5.54683 9.68513 21
475 1 11.8804 1.22094 -1.52431 22
476 1 -1.54177 -0.908422 13.8507 19
477 1 13.2381 -9.34063 -2.12569 17
478 1 9.55232 3.34033 11.2349 14
479 1 -7.44346 3.42656 -8.81182 22
480 1 13.0998 4.86005 3.75464 15
481 1 10.7509 -1.48337 1.12424 23
482 1 -1.65338 -4.57945 1.81875 21
483 1 7.83809 -1.43654 8.18903 20
484 1 3.77475 10.172 10.8277 11
485 1 3.38626 1.40716 6.14025 23
486 1 -4.09017 10.5087 -0.630613 24
487 1 8.63113 7.42563 -8.69695 16
488 1 10.1537 -1.88743 -9.70162 16
489 1 -3.9984 16.7813 -4.18696 9
490 1 -0.389644 -8.92894 -7.78588 18
491 1 -10.1662 6.04082 3.98631 19
492 1 -6.56472 1.88111 -11.8852 20
493 1 -2.68333 -15.2286 1.27023 12
494 1 -4.33412 -0.409411 -12.4287 22
495 1 -13.6518 -0.0336415 -3.9598 14
496 1 7.2658 -4.14972 3.65537 19
497 1 11.0613 7.51497 2.5544 17
498 1 1.30372 -9.64814 8.58773 19
499 1 -11.8367 -4.88448 -10.797 13
500 1 -0.0116393 3.50853 1.00844 23
501 1 3.84797 -4.45031 6.9125 21
502 1 -2.35554 4.93689 13.745 15
503 1 2.93107 4.25162 -15.0222 15
504 1 10.4624 1.15043 -7.32983 18
505 1 4.5308 2.06282 0.277271 24
506 1 2.16207 -13.8857 -6.29987 16
507 1 16.015 -2.81653 2.16355 12
508 1 9.40905 11.7413 -1.05425 15
509 1 8.39205 0.74554 -4.58136 18
510 1 -3.83818 8.50613 9.90446 21
511 1 -9.87935 -3.977 2.76449 20
512 1 -11.0021 -3.84041 -7.65636 24
513 1 7.94429 -1.57492 14.3629 12
514 1 -2.38748 -5.05617 11.8218 20
515 1 6.64384 4.24882 13.1266 12
516 1 -5.65481 15.597 2.48753 15
517 1 6.16372 6.7083 -0.640667 23
518 1 4.1773 -1.04445 1.19805 23
519 1 7.80122 2.77091 3.19628 22
520 1 -4.88084 1.70243 -15.5881 16
521 1 -9.22143 1.89605 9.98538 18
522 1 6.66657 3.72538 -4.76334 21
523 1 -0.112637 -4.41823 -3.83049 23
524 1 9.86885 -8.29969 2.52821 20
525 1 8.8826 1.64774 8.78005 21
526 1 5.47831 7.1752 6.27421 18
527 1 8.33105 7.47112 7.33182 16
528 1 2.87179 0.567746 16.4222 12
529 1 -1.81549 5.74372 10.4978 22
530 1 5.06009 -8.32452 -11.2436 15
531 1 -3.74229 7.9144 13.2261 13
532 1 -4.41617 5.23992 -2.49031 24
533 1 6.37634 -0.303607 16.6163 9
534 1 13.7341 7.73937 -1.99622 15
535 1 11.4458 -9.59153 -4.83868 18
536 1 -8.59568 6.0984 -8.70298 22
537 1 3.10533 9.84869 -2.27422 23
538 1 8.87093 8.86328 4.58716 17
539 1 -0.639166 -0.897853 5.42962 22
540 1 1.11622 15.7482 -0.524892 16
541 1 9.04216 10.4787 -3.61037 17
542 1 2.84149 -5.78711 -3.27864 22
543 1 -5.06542 -8.4012 -2.93894 22
544 1 1.34478 -7.16046 -14.1517 10
545 1 -4.8774 14.3206 4.94597 14
546 1 6.42238 -5.78747 -11.0783 14
547 1 5.4762 4.85546 2.19914 21
548 1 9.65321 5.49003 -5.65733 22
549 1 9.87031 5.1537 -9.52703 18
550 1 -3.92721 5.38574 5.18888 20
551 1 -7.21214 4.29607 -1.22946 22
552 1 4.01323 9.27221 -5.18497 22
553 1 -3.83529 -7.40005 10.2852 16
554 1 0.0730932 9.22188 -12.3552 13
555 1 5.38934 8.16917 9.19283 17
556 1 0.973625 0.47668 10.9768 19
557 1 0.0610355 16.4832 -3.89274 12
558 1 7.70364 6.87823 1.59858 20
559 1 -6.63584 0.771612 -1.92073 21
560 1 13.8611 -4.84212 -6.21173 13
561 1 -14.983 -1.22621 4.36246 12
562 1 5.70396 -13.5747 -3.32913 21
563 1 1.18619 2.58036 -6.31318 26
564 1 -3.62565 3.75986 8.34873 21
565 1 6.15953 -1.77997 -1.51502 23
566 1 0.684504 8.92479 3.88239 19
567 1 -12.3505 -2.35589 2.11198 20
568 1 6.05529 -15.2302 -0.133748 15
569 1 7.94125 8.01851 -5.46645 21
570 1 3.63526 -9.01943 2.71875 19
571 1 -2.22062 7.36697 4.38319 22
572 1 -0.558349 -7.28786 -11.8511 15
573 1 2.59554 -12.9569 7.54999 12
574 1 4.61256 14.3109 3.34179 12
575 1 -7.34963 3.67446 11.6294 18
576 1 -3.10706 -0.648268 -0.226362 21
577 1 -6.87499 -8.46735 -11.7138 14
578 1 5.00313 -2.82832 -6.60209 21
579 1 1.70678 0.615745 0.397837 23
580 1 -0.030542 13.606 6.86961 18
581 1 4.78656 -12.8507 -6.65159 15
582 1 3.26862 -3.48963 12.3007 20
583 1 -0.901371 -11.8819 -7.07996 17
584 1 -10.71 -1.48622 13.5917 11
585 1 1.1319 0.582219 -3.47302 25
586 1 -2.8691 -8.96623 -5.11972 22
587 1 0.711945 -2.19923 -1.55817 23
588 1 -14.1061 0.700959 9.48555 11
589 1 12.3918 4.82442 -2.38992 20
590 1 -6.20559 2.4774 6.22766 21
591 1 -12.1116 8.70114 2.78369 11
592 1 10.759 -0.549061 -4.14037 22
593 1 -1.22589 8.73224 -6.06863 22
594 1 11.7637 3.80894 -7.67894 17
595 1 2.32059 -0.476709 3.50427 22
596 1 7.39253 3.60529 -0.11604 23
597 1 -13.1581 -4.0956 -5.36663 21
598 1 -8.62235 -7.52228 -9.36187 18
599 1 3.31759 0.790351 -16.2959 12
600 1 -4.82983 0.136913 12.824 21
601 1 -3.12669 -6.41188 7.21499 19
602 1 4.96965 -0.784493 -9.35623 23
603 1 -10.1796 9.62296 0.36159 18
604 1 11.8597 10.5236 -3.05609 12
605 1 -6.92234 -5.52145 4.00694 20
606 1 6.92993 5.45921 -10.7092 17
607 1 5.67986 -16.6214 -2.57794 11
608 1 1.4783 6.70363 -11.4304 21
609 1 2.53319 -3.65201 -14.7617 12
610 1 -2.56868 0.262079 10.4616 21
611 1 -1.19607 6.60624 -13.4647 18
612 1 -10.77 -2.19607 -3.60373 21
613 1 7.91303 -2.65298 0.842211 20
614 1 -5.49642 -5.35757 -1.84968 24
615 1 11.5977 2.78397 -4.68961 21
616 1 12.0094 -6.97808 0.667672 21
617 1 -4.9583 5.76512 10.5973 21
618 1 6.13208 -12.0107 4.26551 18
619 1 14.4247 -5.646 1.39039 17
620 1 8.13908 -6.13958 10.4344 12
621 1 2.76522 8.2874 8.31936 19
622 1 -5.4233 5.00446 13.734 14
623 1 -3.59036 -11.269 6.32163 15
624 1 6.95709 0.436012 1.05525 24
625 1 -0.542216 8.6793 9.64781 21
626 1 -15.0078 -3.72935 0.275374 14
627 1 5.28759 -10.9323 -1.94003 21
628 1 0.707867 5.63888 -1.30129 25
629 1 6.3241 9.02311 -3.18084 23
630 1 4.72438 -1.11007 14.0041 19
631 1 1.4995 12.1728 3.79411 19
632 1 3.24433 -11.4637 3.54924 22
633 1 -7.92895 -0.938993 -3.78544 24
634 1 2.9049 2.57497 9.50594 20
635 1 2.38211 16.5111 1.8403 11
636 1 -12.47 -10.1467 3.67582 9
637 1 8.50406 -6.52184 5.22708 21
638 1 11.4872 -5.78912 6.24556 15
639 1 11.8582 2.04839 9.7814 13
640 1 -2.53415 7.33264 -0.28297 22
641 1 1.88188 -9.20129 -10.8773 13
642 1 -7.10335 4.77807 -11.355 19
643 1 -12.6249 -1.38721 10.5236 13
644 1 0.11745 13.9116 1.59291 18
645 1 15.4708 3.73457 1.70641 14
646 1 1.99887 10.5453 -6.53051 23
647 1 -2.05894 10.458 12.1214 13
648 1 7.30426 5.35034 10.1939 16
649 1 2.70629 1.89486 -9.11367 23
650 1 -6.89523 -12.4329 -8.03533 12
651 1 -4.42236 1.83381 -7.1418 22
652 1 14.3961 -0.79951 4.2671 16
653 1 -0.226726 4.60749 -16.2935 13
654 1 -2.13241 -3.91649 -1.35856 22
655 1 16.7134 -4.57283 -0.631745 11
656 1 1.09995 -6.03651 12.9001 16
657 1 -5.8613 -5.96868 -9.53905 23
658 1 -0.648334 1.20894 -1.24208 25
659 1 1.54891 15.7199 -6.67455 11
660 1 1.85594 -8.80333 5.41188 21
661 1 -11.5696 8.27595 6.03538 11
662 1 5.0025 4.29467 -2.42893 24
663 1 4.40565 -5.38655 -13.7532 13
664 1 -7.52128 10.4445 9.37728 13
665 1 2.7477 3.65718 -11.8856 22
666 1 8.62504 -6.21008 1.09847 22
667 1 -11.9 -1.15563 -6.74672 19
668 1 10.1916 4.91958 2.72873 23
669 1 -9.42681 -6.92963 1.72959 21
670 1 6.06632 2.57784 10.4011 19
671 1 -7.5109 -3.32292 -8.74753 20
672 1 -10.2232 8.77951 9.10667 12
673 1 -8.01512 -1.23248 -11.551 20
674 1 10.9268 -10.0359 -0.0161685 21
675 1 -8.23709 -5.54824 -6.96689 21
676 1 14.101 -9.15278 1.01298 15
677 1 -12.2595 4.29739 2.08857 16
678 1 -5.96727 -4.09242 -4.93511 23
679 1 -4.72251 -7.72262 4.74793 20
680 1 13.964 -4.11687 4.2892 14
681 1 9.22206 -2.97587 5.82515 20
682 1 -14.731 2.67635 0.23499 14
683 1 1.05252 10.5647 11.6659 12
684 1 2.61936 9.28228 -9.68503 19
685 1 -4.28065 11.7795 9.75825 12
686 1 5.27358 8.42023 -7.73878 20
687 1 0.85342 4.74021 11.8838 18
688 1 6.4494 -8.05047 7.57434 23
689 1 0.285951 13.3061 -4.97464 20
690 1 0.675813 -2.17014 1.0761 20
691 1 -6.71771 -1.84176 10.2566 22
692 1 -2.3992 -5.06573 -9.95899 20
693 1 -12.1784 2.15736 -2.37891 22
694 1 -8.41382 -9.07152 7.74974 14
695 1 5.41157 -2.80487 9.65813 21
696 1 -2.28705 -13.3256 -1.60076 17
697 1 -14.6783 3.36683 -3.28569 12
698 1 7.335 -4.35062 -6.4427 21
699 1 -7.94773 8.01931 2.37817 20
700 1 -7.40304 -0.404344 7.63882 20
701 1 -1.61018 1.12162 -5.39361 23
702 1 -3.63559 -8.2748 -11.0648 13
703 1 -3.28253 -7.48384 -8.36829 19
704 1 11.7618 -6.78249 -5.0933 19
705 1 -1.94879 11.6059 -11.1041 12
706 1 13.275 -2.27187 -5.21814 16
707 1 11.3695 8.99282 -0.170188 18
708 1 9.83144 1.93087 0.966981 22
709 1 -2.94277 3.80169 -15.0427 15
710 1 -5.00201 -8.80496 7.73704 18
711 1 4.04152 12.0893 -3.73407 20
712 1 8.13318 0.622158 -9.64448 20
713 1 -11.5357 5.39399 -7.65342 16
714 1 1.42917 7.73703 -4.32039 24
715 1 -10.5954 -6.59514 9.02723 14
716 1 6.29014 3.75301 7.29842 18
717 1 0.414432 -14.7086 -0.866715 17
718 1 0.551459 10.5493 -3.8663 24
719 1 -6.88629 8.44559 12.1735 9
720 1 -7.31243 2.79779 14.2391 13
721 1 14.0178 0.297623 -3.32892 16
722 1 0.672553 -3.17389 3.96699 20
723 1 -9.24429 -4.50305 11.8058 15
724 1 4.20842 -14.1484 5.06374 12
725 1 -4.19566 -0.880775 5.06638 20
726 1 12.2406 3.16806 6.49909 16
727 1 5.33205 -4.13313 -3.67804 22
728 1 -6.24122 -1.14868 -15.0499 16
729 1 0.186361 -1.74862 -5.57835 23
730 1 -7.01162 8.13243 -6.57915 22
731 1 -14.5456 5.63878 -6.28723 9
732 1 6.87934 13.7042 -4.92895 10
733 1 -2.46589 6.94736 7.59359 21
734 1 -12.2349 -11.116 -5.67401 12
735 1 -3.33547 1.69149 -2.66865 25
736 1 -4.5912 9.0416 2.0804 22
737 1 13.5574 0.508217 7.28267 12
738 1 -1.70657 -8.83033 5.52548 23
739 1 12.8958 -5.0804 -1.6691 21
740 1 8.01802 -8.57316 -1.60253 21
741 1 1.73597 1.2432 -13.9317 21
742 1 -8.07138 1.12981 -16.0279 11
743 1 -8.10225 -4.13502 -2.84378 24
744 1 -7.91086 7.44624 -0.654506 22
745 1 -3.77253 3.24347 11.5909 21
746 1 10.8293 -0.973239 9.29073 18
747 1 -11.9097 -6.6499 3.94128 18
748 1 16.3714 0.61188 1.98613 13
749 1 -0.225959 3.74095 -13.1691 22
750 1 15.5808 5.09765 -1.13611 13
751 2 -11.7047 -2.93411 -11.8111 13
752 2 -4.40913 12.1598 -4.06822 24
753 2 -2.94294 2.00718 -15.6561 16
754 2 -4.25682 1.34359 11.0618 20
755 2 -13.109 -1.52842 -8.92433 14
756 2 1.57442 -1.1032 16.0177 16
757 2 -11.3103 -11.1401 -0.945598 14
758 2 -11.9243 0.84177 -7.25163 19
759 2 1.07359 15.0443 6.39622 13
760 2 -13.4853 -2.32798 4.02722 19
761 2 8.94427 4.14974 4.164 20
762 2 1.37467 -1.66081 4.94755 21
763 2 -3.56478 0.477638 -6.35346 23
764 2 -7.01231 -5.78868 -5.45728 22
765 2 -11.9659 -0.688893 -4.54976 20
766 2 -3.21536 -8.76499 3.82783 23
767 2 5.55875 -0.128686 12.5947 20
768 2 10.2183 -6.5459 -8.80054 16
769 2 4.62792 -14.0344 0.553575 20
770 2 3.28977 1.12219 4.07136 22
771 2 -4.27046 12.4196 0.702651 23
772 2 -14.0643 4.68907 -4.57497 15
773 2 12.8528 0.159795 3.29275 21
774 2 12.313 -10.7125 -1.36379 17
775 2 -0.939033 -2.84047 -2.53313 21
776 2 -10.6492 -10.6432 3.47407 12
777 2 -10.4476 -3.52627 4.67214 24
778 2 -5.85961 -12.2606 -0.571785 15
779 2 10.1148 -7.15741 6.27998 18
780 2 0.253035 -10.4523 -6.75656 19
781 2 4.62208 0.285058 15.6154 15
782 2 -0.853383 12.4182 -9.63924 14
783 2 -8.0972 -9.71894 -1.10305 24
784 2 0.915338 3.19551 12.7676 17
785 2 -6.32903 14.0386 3.37505 16
786 2 -2.68912 2.97362 13.431 16
787 2 -6.01949 9.59728 -6.01704 20
788 2 6.92355 -15.2658 1.77823 11
789 2 -2.60508 5.57192 3.7476 19
790 2 -7.40911 4.18959 3.32989 22
791 2 0.389348 7.92091 -13.7749 11
792 2 2.97104 1.36084 -0.805409 23
793 2 6.00561 -9.0877 -1.68309 21
794 2 -3.31737 2.56712 -8.69378 25
795 2 2.68703 -5.70043 -14.523 10
796 2 -4.18366 -1.57088 -3.86175 24
797 2 5.41003 1.76703 -13.6154 18
798 2 -2.06164 8.5511 12.7769 15
799 2 -1.08685 -5.19983 -0.0882175 22
800 2 2.76336 0.479933 -12.4182 17
801 2 -6.19529 10.3523 -9.01719 15
802 2 6.81069 7.93643 -9.15645 17
803 2 -7.07318 4.70467 14.4927 10
804 2 -9.17811 10.3013 8.64369 12
805 2 12.9357 -3.22272 -7.01465 12
806 2 5.48557 -11.2856 -7.89142 18
807 2 -12.7291 -8.29508 3.20047 14
808 2 10.0245 9.24977 3.14906 14
809 2 -4.04682 8.16904 3.94859 20
810 2 -4.25478 -4.6336 -5.43618 20
811 2 -2.81956 12.4341 8.77059 15
812 2 7.15413 -11.4189 8.02704 14
813 2 8.4344 1.50685 4.6726 22
814 2 -11.0773 2.34334 -4.01257 22
815 2 3.12392 0.0530862 7.6292 23
816 2 -1.43895 2.47512 0.334847 24
817 2 11.2461 -8.36405 -0.907883 22
818 2 10.0607 -14.2853 1.59849 11
819 2 8.25702 11.6015 1.95096 15
820 2 7.54894 -12.4626 0.507647 19
821 2 7.35813 -2.23406 4.81922 20
822 2 -3.98789 -3.90439 12.3018 20
823 2 15.4027 -5.95707 -0.223292 15
824 2 -1.69147 7.76606 6.18345 22
825 2 10.6254 4.50738 6.66428 18
826 2 -7.6063 8.67667 10.4021 14
827 2 12.55 9.41076 -1.78465 12
828 2 13.6801 -7.45818 1.84229 16
829 2 2.37768 8.33527 -5.8467 25
830 2 -6.02977 -4.68591 -13.2804 17
831 2 -5.51207 4.18547 11.7311 20
832 2 7.24835 -0.0696699 -5.8242 21
833 2 -7.71717 0.519535 -10.8266 18
834 2 -13.8917 -1.37953 9.08611 12
835 2 -7.52753 -10.5075 1.45403 20
836 2 15.2178 0.221649 0.365247 18
837 2 1.53294 -8.14837 7.20841 21
838 2 -2.58157 -2.53317 14.8848 13
839 2 6.78503 -1.09205 -13.7595 10
840 2 1.37631 1.24867 15.3307 13
841 2 0.833462 7.57396 8.33028 20
842 2 -11.5064 1.26276 -0.758015 22
843 2 5.53373 -7.77662 -4.65158 19
844 2 4.18812 -1.70876 -0.687146 23
845 2 -4.99031 13.4161 6.72916 15
846 2 -4.03393 -10.8858 1.19718 22
847 2 12.0113 -9.25493 -8.3387 10
848 2 5.07771 1.0268 -3.34252 24
849 2 7.12372 6.88773 3.57336 21
850 2 2.69809 -5.73714 -5.10332 22
851 2 4.77776 -4.18368 11.492 20
852 2 -8.44312 -8.23213 2.92794 22
853 2 7.68354 2.25513 1.12111 24
854 2 2.39073 -4.01104 3.33425 22
855 2 -8.3708 -9.4958 5.86798 17
856 2 10.406 7.13762 -9.29591 11
857 2 -0.616667 -8.71566 1.86139 18
858 2 10.8504 -3.57713 -9.23601 16
859 2 4.72263 -16.7065 -0.929381 13
860 2 10.6307 -6.49369 1.88097 20
861 2 -0.561768 -0.378821 -4.52524 27
862 2 -1.23914 16.136 4.78512 14
863 2 13.459 2.47872 -5.18191 14
864 2 0.86035 -5.57749 -2.49693 22
865 2 -6.6122 -8.95309 -6.63718 22
866 2 -8.1546 -5.29846 2.30043 22
867 2 -3.40234 -7.4878 0.823757 19
868 2 -3.38689 -5.2341 -2.15427 22