ITEM: TIMESTEP
15000
ITEM: NUMBER OF ATOMS
1500
ITEM: BOX BOUNDS pp pp pp
-30.0 30.0
-30.0 30.0
-30.0 30.0
ITEM: ATOMS id type x y z Coordination
1 1 -2.56943 -11.7123 -3.33088 16
2 1 6.71061 -10.4382 8.87589 13
3 1 -9.10803 7.78908 -4.6153 15
4 1 -11.9101 5.85364 -4.89817 14
5 1 1.98172 -7.17566 14.9484 15
6 1 -13.6542 1.27763 -7.67412 10
7 1 -5.85513 4.05364 -0.851614 20
8 1 -5.0166 -11.9006 7.44745 11
9 1 -12.672 -2.28688 8.9563 20
10 1 1.9685 3.84156 15.8525 18
11 1 5.93136 -1.89672 9.03446 20
12 1 -1.20312 4.45128 17.1296 17
13 1 2.64304 -4.44996 4.37017 20
14 1 -4.13614 9.25168 -2.95663 23
15 1 -2.35089 2.45399 14.9309 20
16 1 11.529 5.40848 9.89206 17
17 1 2.08004 13.6847 -7.30001 14
18 1 4.70699 10.0057 -11.9284 11
19 1 -8.74341 0.563476 2.69472 22
20 1 -2.62137 -1.18097 -7.53117 20
21 1 7.30543 -12.3887 5.97597 9
22 1 2.32078 -1.0982 11.029 17
23 1 8.56345 -8.05515 5.21129 19
24 1 -4.26724 -9.67731 -5.69109 15
25 1 2.39333 -2.63684 -4.44762 21
26 1 -0.458202 -2.4087 -12.2463 17
27 1 -3.76925 4.42434 18.9167 9
28 1 -0.0762707 -7.74292 12.8874 20
29 1 5.21449 -6.57057 13.7752 17
30 1 -7.25522 -1.96991 7.52574 18
31 1 -10.4556 -2.41978 2.78593 24
32 1 2.04259 12.0634 1.50493 21
33 1 0.727734 4.57063 -6.35267 21
34 1 7.75431 -0.0255533 -15.0248 6
35 1 -5.24162 -2.81053 15.1474 19
36 1 -11.2056 10.4933 -1.21641 10
37 1 -0.926357 16.0133 7.33938 16
38 1 -7.40793 9.49769 -3.06118 17
39 1 -2.44054 15.4403 0.8406 20
40 1 -1.72603 -8.12984 2.19738 20
41 1 0.947438 -9.14925 -8.34117 12
42 1 -7.37454 7.96226 14.7367 12
43 1 -11.5125 -5.66346 -9.22395 8
44 1 9.03055 3.91544 7.29512 20
45 1 -9.29951 8.31474 -0.306538 22
46 1 -8.07483 -9.63436 11.5213 13
47 1 -9.42375 6.17198 -8.21614 13
48 1 3.59241 5.9361 -3.80524 21
49 1 3.56329 5.34171 6.183 21
50 1 4.68909 3.97906 10.7422 20
51 1 7.93145 -13.008 2.43226 9
52 1 8.19482 7.42751 14.7982 10
53 1 4.73959 -2.42637 -6.26203 21
54 1 9.3895 -10.9988 3.91032 11
55 1 -7.36056 -4.24062 5.2612 20
56 1 2.94097 -1.18667 14.1421 19
57 1 -7.42537 -12.2891 9.74108 10
58 1 -6.91282 -2.0918 2.66697 21
59 1 14.9844 2.33806 10.2168 9
60 1 8.07476 -0.00258728 -3.08486 17
61 1 0.462767 10.8753 11.9326 17
62 1 8.1412 5.45919 10.4876 19
63 1 -9.39409 -4.29798 8.23833 24
64 1 -6.11986 -4.37186 -6.47367 15
65 1 -5.96104 10.2984 -0.559496 19
66 1 -3.09049 4.16821 -5.8229 24
67 1 5.83836 1.34375 -1.98233 18
68 1 3.84585 0.16501 -4.8852 19
69 1 7.78578 -4.23126 10.2309 18
70 1 7.39701 -7.41974 8.08219 19
71 1 -5.47377 12.5536 -7.76485 10
72 1 -10.6318 11.6577 7.17894 13
73 1 -3.24521 8.0052 10.0083 19
74 1 -8.40622 -7.65991 14.2277 12
75 1 12.4571 -0.960139 -6.94555 12
76 1 -11.5908 8.15305 10.8903 10
77 1 6.75905 -6.97321 -3.26168 17
78 1 0.325947 7.27934 -13.5777 15
79 1 -0.242129 0.928263 -12.4247 17
80 1 3.4186 13.4291 4.28749 21
81 1 -5.8247 4.55446 -7.03108 17
82 1 -0.974101 17.0492 -1.3078 16
83 1 -2.12938 10.5569 4.45111 19
84 1 -4.4914 -4.79035 10.2479 18
85 1 -1.36776 -2.23681 -4.85717 19
86 1 3.05989 -5.4951 -3.83775 16
87 1 -1.70794 5.35833 10.2994 18
88 1 -10.7512 -7.49117 1.62814 18
89 1 8.50027 -5.34902 5.67111 19
90 1 -8.953 -6.95592 -2.02723 18
91 1 9.18306 -2.29288 7.69536 18
92 1 -6.98554 6.72946 5.47112 23
93 1 6.98588 0.618118 -9.1305 19
94 1 7.93318 6.45623 -8.21968 19
95 1 9.54928 -8.0787 1.20614 18
96 1 1.7375 -11.8857 6.28739 19
97 1 -10.1975 -10.2404 0.126291 13
98 1 -10.049 -0.990893 8.21844 20
99 1 7.95909 11.1791 9.53914 19
100 1 4.39816 6.15586 1.215 21
101 1 -5.53975 10.745 9.81868 18
102 1 -5.16699 12.4878 -2.03846 21
103 1 -1.96192 -0.928019 -10.0867 22
104 1 6.77045 -4.0195 15.8251 10
105 1 -0.967392 9.04693 -3.32931 22
106 1 13.72 0.46567 -4.14975 17
107 1 -7.01378 13.9044 -5.40128 8
108 1 -6.508 14.1149 4.72687 17
109 1 14.4221 4.29315 -6.94438 9
110 1 6.85427 -7.40943 3.50711 19
111 1 -7.13713 4.92292 -9.65846 17
112 1 6.35831 12.8771 3.82173 21
113 1 8.59241 12.2749 1.4002 15
114 1 -5.7225 10.9745 4.87878 21
115 1 -2.67869 -4.5682 -5.97443 20
116 1 3.83823 17.3774 6.8167 12
117 1 -12.9944 2.39108 2.13073 16
118 1 13.8292 -3.89763 -0.211713 10
119 1 1.2272 10.3545 9.00395 21
120 1 -2.10572 12.0512 -2.88747 21
121 1 4.74348 1.06346 10.1417 18
122 1 -12.8523 -5.81641 7.0096 14
123 1 -8.66253 -7.21898 4.60591 20
124 1 2.25986 -12.5147 0.171663 15
125 1 -3.94745 7.85139 -10.101 14
126 1 -2.64337 10.048 -0.274385 21
127 1 12.359 8.29566 -2.56084 13
128 1 0.238584 -9.81792 15.3428 11
129 1 -7.14405 3.05146 2.66156 21
130 1 2.50825 16.7666 3.86601 12
131 1 0.186062 5.32073 13.9668 19
132 1 -0.291649 13.0299 3.15212 23
133 1 -4.46499 1.10856 -6.00319 21
134 1 11.2387 -7.84817 3.75875 14
135 1 -7.94115 -3.72216 13.1031 22
136 1 -12.419 0.476601 7.40582 19
137 1 -10.9211 -10.1963 6.56247 13
138 1 -13.2449 2.39276 5.71243 24
139 1 -2.37441 -11.4658 2.12059 18
140 1 -3.86224 -4.4788 -0.74438 20
141 1 6.30546 -9.68765 2.21483 19
142 1 -4.26301 15.7749 6.14508 12
143 1 -11.1593 0.194924 11.0174 22
144 1 -9.22604 0.622869 -1.74263 19
145 1 -6.46084 7.22395 -7.74561 15
146 1 -14.8733 -1.94359 -3.82191 10
147 1 -12.6781 0.624579 13.8861 14
148 1 -1.54856 -5.41239 11.7965 19
149 1 1.68912 -10.822 12.7796 14
150 1 12.4576 3.35584 0.945133 22
151 1 5.83103 3.7028 -4.27699 16
152 1 10.0009 2.88882 13.61 10
153 1 -1.39525 4.88 -15.497 9
154 1 4.39173 -0.305612 -8.54836 19
155 1 -9.9122 -2.23179 -5.43551 15
156 1 -4.04512 13.2389 -5.10542 22
157 1 -8.66911 14.2011 2.22078 11
158 1 7.41738 -1.38206 16.7208 8
159 1 -2.90768 -7.76157 -10.3802 12
160 1 -1.14407 9.28151 -7.99928 20
161 1 3.82732 10.9202 -7.42922 15
162 1 -6.80027 1.39447 5.16649 21
163 1 -6.50919 9.78513 12.4636 12
164 1 2.16978 -7.93611 -4.96597 17
165 1 -8.56775 -11.9731 5.74117 9
166 1 5.87388 -12.0104 -0.133482 14
167 1 5.75167 -3.47529 1.63521 22
168 1 5.17122 13.3761 -2.42142 13
169 1 -0.169098 9.02409 2.02406 21
170 1 -10.8188 4.16362 10.6173 17
171 1 1.77946 6.8489 16.9414 12
172 1 13.951 2.6545 4.30816 20
173 1 3.66881 6.90605 9.59049 21
174 1 -13.3143 2.90856 9.08082 20
175 1 -12.0825 -0.905692 0.0649848 18
176 1 9.37735 3.14077 -7.33731 19
177 1 1.96373 1.52446 13.5192 18
178 1 8.32535 9.81532 -4.03638 11
179 1 4.10591 -6.29571 2.32791 17
180 1 -3.21144 0.0306222 -13.2843 17
181 1 9.69471 0.737891 -5.71156 18
182 1 -9.5064 2.12376 8.95244 20
183 1 -0.243201 -13.6949 4.25392 13
184 1 -13.8434 -4.27363 -6.88196 8
185 1 -2.23591 14.5932 -2.73799 20
186 1 2.00873 -0.0481535 -14.5922 8
187 1 5.91765 6.99226 16.6221 8
188 1 15.2704 4.53306 1.6688 13
189 1 -3.99561 -3.96442 4.73675 16
190 1 9.03037 0.0949278 -11.503 12
191 1 -4.33785 -8.16217 7.96188 18
192 1 -7.85145 1.49325 -9.95002 16
193 1 -11.6016 0.138418 -9.58336 13
194 1 8.08534 1.12086 14.418 15
195 1 5.52623 -4.54006 7.36227 20
196 1 -4.41956 -3.13698 -8.24692 19
197 1 3.24156 -2.46946 6.79783 19
198 1 3.12028 12.2404 -10.5212 8
199 1 4.68492 10.0568 3.64899 22
200 1 -10.0733 -7.03065 7.61783 24
201 1 1.26767 14.0196 6.11207 21
202 1 -7.9265 -2.2974 16.4707 14
203 1 -9.1013 -4.0978 -7.41361 16
204 1 -5.2615 0.130707 -8.80496 21
205 1 -5.68741 -5.87108 -2.15868 19
206 1 -4.81762 -10.826 1.62886 17
207 1 12.2726 2.6878 7.44406 20
208 1 -4.15472 -2.84979 -2.86163 20
209 1 -12.7304 -2.85457 15.7384 9
210 1 2.10775 -14.24 3.24649 9
211 1 -0.255314 -9.94848 4.31466 21
212 1 -4.539 16.2442 -1.11969 18
213 1 5.97197 7.23077 -10.4354 19
214 1 -3.98331 1.92302 -10.9338 16
215 1 -4.44518 -7.59928 0.637292 20
216 1 -4.64584 -6.05909 -8.35524 17
217 1 -12.0023 4.02841 -7.73683 12
218 1 8.24079 7.6662 5.48816 19
219 1 -1.59576 4.72778 -8.31135 15
220 1 -3.8847 7.54488 -6.48106 18
221 1 -4.94064 -1.71785 10.5497 24
222 1 -6.46646 16.4132 -3.02478 9
223 1 1.8743 8.40783 6.87928 25
224 1 7.7718 1.26242 6.10196 18
225 1 -4.29296 4.03401 9.54638 17
226 1 0.384503 -3.49019 13.1935 21
227 1 -7.19466 11.9573 7.04368 16
228 1 2.85481 -2.20964 -12.4152 15
229 1 5.97644 -9.94367 6.02652 21
230 1 -4.63193 -0.236335 15.8411 18
231 1 -11.6556 -5.77545 13.6701 14
232 1 12.132 -4.32714 -2.54989 14
233 1 5.56628 -4.19298 -2.17025 23
234 1 10.0059 -7.5026 -1.79741 14
235 1 -5.86779 -4.97773 7.48582 17
236 1 -8.72033 12.1847 -0.947789 18
237 1 0.620722 1.57202 10.1532 18
238 1 12.5613 9.2884 10.8062 10
239 1 -12.3615 -1.83132 5.6291 22
240 1 8.48068 -9.21467 -3.95013 9
241 1 -3.91125 10.5379 7.40781 20
242 1 -8.15581 8.90095 5.75587 19
243 1 3.85858 -9.88442 14.3676 9
244 1 13.561 -4.92918 8.35941 12
245 1 0.325694 7.5015 9.69031 22
246 1 -6.23487 -1.24594 -0.8133 18
247 1 -2.45603 1.43743 18.0749 11
248 1 -3.34373 18.0537 1.31259 9
249 1 -8.36679 5.07705 -5.05532 19
250 1 -8.84678 5.57528 15.3995 11
251 1 -12.8855 6.30654 8.61845 17
252 1 1.68587 -1.22248 -7.34101 21
253 1 -5.51733 13.7608 8.10002 13
254 1 5.86512 -0.997255 12.1659 20
255 1 -7.75148 -8.93395 6.27795 15
256 1 4.34108 -7.6343 8.71585 21
257 1 -11.55 9.64676 5.08743 12
258 1 -0.112224 -0.179524 13.2892 22
259 1 3.4178 -6.63196 -8.70166 15
260 1 -4.65572 3.9561 -14.1742 15
261 1 8.83818 3.39367 -10.4572 19
262 1 3.81536 15.3229 1.58701 16
263 1 -8.80517 -1.37286 5.13085 23
264 1 5.4656 -4.60843 -11.4148 10
265 1 -1.77106 -14.6659 -1.35776 8
266 1 -14.3781 -2.00367 3.32124 14
267 1 -2.48978 -5.33526 2.4696 20
268 1 11.2749 0.738309 -0.0277243 17
269 1 -10.5482 3.0357 -10.1906 13
270 1 -11.9729 0.225401 -3.51388 19
271 1 -9.23833 5.64538 8.37647 20
272 1 -13.3859 9.85327 8.24975 10
273 1 -1.65016 8.1244 7.85297 21
274 1 11.0103 -1.7077 -1.93607 20
275 1 14.4577 2.03595 -1.43097 16
276 1 -5.68748 6.14652 1.81996 20
277 1 2.11533 -9.86236 -2.03244 22
278 1 0.215601 5.73511 6.95484 23
279 1 -10.3086 2.07825 0.980979 20
280 1 1.63987 -7.16311 -0.76498 21
281 1 11.5565 -2.81136 10.5451 17
282 1 -10.5926 -4.49417 0.29444 20
283 1 -11.7333 -10.379 3.19097 10
284 1 -1.95995 13.3719 6.35684 21
285 1 -12.1778 -7.37161 -0.725419 11
286 1 -13.6734 7.11409 5.67839 15
287 1 0.0382458 16.6857 -4.13054 14
288 1 8.82476 14.3643 9.13089 9
289 1 -12.4401 -5.14359 2.68089 16
290 1 -0.45842 -8.84987 -3.01799 20
291 1 -8.36352 -0.751395 10.7618 18
292 1 -12.1059 6.56373 -0.133246 14
293 1 -7.22264 -6.97266 8.70052 21
294 1 -6.40872 -13.1337 2.9136 12
295 1 7.93984 9.71717 -10.4139 11
296 1 -7.07669 6.79565 -1.62159 21
297 1 -3.24218 -13.1739 4.6556 13
298 1 12.8716 10.5384 5.75225 13
299 1 -2.95142 1.51676 10.7041 20
300 1 -10.1734 1.10851 5.92023 23
301 1 -11.2608 6.35915 13.2422 12
302 1 -5.3066 -10.003 10.5507 16
303 1 0.110275 -5.30585 -4.64511 21
304 1 4.03303 -3.29382 -9.35384 20
305 1 -1.35762 -1.35732 10.4152 23
306 1 -14.4195 0.558758 11.25 15
307 1 -2.64992 -3.45466 8.47159 17
308 1 5.1916 -7.89767 -5.89397 15
309 1 0.560836 -7.00195 -10.7404 16
310 1 -2.95984 -2.3143 12.7362 21
311 1 2.19224 -4.38316 -1.13459 19
312 1 -7.57275 4.0584 -12.5097 12
313 1 4.93753 -12.1998 4.32582 15
314 1 -3.31618 17.562 -3.91789 13
315 1 -9.7664 -5.01998 16.0089 12
316 1 -9.18678 -6.45038 11.1945 21
317 1 8.76942 -1.17796 10.2774 19
318 1 9.62873 4.73141 1.2698 22
319 1 -8.40535 4.42235 4.75141 22
320 1 2.09018 2.87168 -4.00078 21
321 1 6.69964 -7.67887 11.2475 15
322 1 9.73841 9.33555 0.997842 21
323 1 -2.78511 6.22144 14.5421 21
324 1 3.04601 9.03028 1.37023 21
325 1 9.84809 0.874679 8.06766 22
326 1 -4.4731 -13.3809 -1.01186 10
327 1 -5.2827 15.5127 2.38579 19
328 1 -7.37634 -9.76428 -6.19752 12
329 1 3.88676 4.99421 14.2583 18
330 1 -5.7639 1.192 11.8988 19
331 1 -7.71594 -3.7187 -0.457138 20
332 1 -13.331 3.46802 12.5216 13
333 1 -13.1489 -6.68208 -6.34444 9
334 1 -10.1724 8.80737 14.1013 7
335 1 -8.27359 -6.76982 -5.27925 18
336 1 -1.23421 -5.73028 -12.4138 13
337 1 -3.62068 -10.1299 4.72751 17
338 1 -7.26875 -3.76452 10.4938 22
339 1 10.0375 2.45869 10.4057 21
340 1 -6.87612 -5.60582 16.2212 15
341 1 -6.573 9.8707 -10.3716 8
342 1 7.15555 4.47895 -1.8214 20
343 1 -7.57721 -12.3863 -0.18201 15
344 1 0.540065 6.20689 -3.47584 25
345 1 -0.263375 17.5981 1.93179 10
346 1 -1.09835 7.0132 -5.95292 21
347 1 -1.913 10.8817 17.4433 8
348 1 -14.1835 4.5769 0.491756 12
349 1 2.97944 13.0046 -0.858379 18
350 1 -10.4726 -7.99531 -7.07598 10
351 1 -0.595031 -11.198 -6.18683 11
352 1 1.10231 4.19688 -11.9258 16
353 1 -9.68214 10.5273 1.90819 17
354 1 5.52936 9.61313 14.3221 12
355 1 2.49674 9.23836 -3.39406 21
356 1 5.06453 11.492 1.42289 22
357 1 -6.18348 10.8183 -5.13873 15
358 1 1.82975 8.22535 -6.27545 22
359 1 2.9333 -9.2919 7.33212 19
360 1 -16.1293 -0.178545 5.35963 12
361 1 -4.42206 4.77547 -10.3565 19
362 1 15.3718 7.32963 3.22971 9
363 1 8.79369 -4.93105 2.659 21
364 1 9.32238 7.50442 2.95163 22
365 1 3.85432 3.89783 -6.33155 17
366 1 1.65043 -7.2761 5.14563 18
367 1 -1.97497 -8.84957 9.83779 17
368 1 4.56525 -5.25063 10.194 17
369 1 -10.0929 5.79856 -2.19899 19
370 1 -2.5106 -9.46759 -8.15981 14
371 1 1.19789 6.45661 -8.93266 19
372 1 0.850489 -1.80399 16.389 14
373 1 -14.4203 -4.91859 4.76514 12
374 1 14.452 1.35201 -7.75437 10
375 1 14.8902 -2.97174 6.31134 14
376 1 -4.0552 9.03608 2.26188 19
377 1 -0.977386 -6.28448 -7.81283 23
378 1 3.84705 4.73958 -10.038 18
379 1 6.90045 0.690619 -5.83923 21
380 1 -10.977 -0.0756892 15.9331 10
381 1 1.15461 15.1823 0.929108 18
382 1 -6.36418 -0.966653 -11.7658 16
383 1 -6.83106 -0.858472 13.604 21
384 1 -6.66989 14.2847 0.0850197 14
385 1 -6.90888 1.47966 -13.5675 11
386 1 -12.3146 0.135354 3.24616 21
387 1 -5.70294 -8.76562 16.382 10
388 1 -1.7688 12.2898 -7.54337 14
389 1 16.4543 5.16722 4.67911 10
390 1 -9.52703 -12.708 2.45102 9
391 1 -2.29793 -7.25801 5.40462 17
392 1 -9.28224 10.5337 9.6368 10
393 1 2.11752 -4.86977 -6.80408 20
394 1 2.79171 7.31892 4.26701 23
395 1 14.975 -0.396949 4.31886 14
396 1 2.90106 14.89 -4.04915 13
397 1 4.65711 -12.5307 7.6586 12
398 1 -4.86688 7.20141 12.987 16
399 1 6.28849 7.19187 11.8207 16
400 1 1.96252 5.28913 -14.8547 14
401 1 -9.29718 0.428506 -4.43674 18
402 1 -2.18147 -0.808698 15.7344 19
403 1 6.08792 12.3977 11.5339 10
404 1 9.92747 6.88191 -10.7383 14
405 1 -2.78841 10.1259 -5.59639 20
406 1 -3.38511 12.5043 0.732584 23
407 1 11.1457 7.05814 12.9464 11
408 1 15.3273 3.14142 -4.49211 11
409 1 -9.53782 -1.42657 0.368918 20
410 1 -3.43532 0.316747 13.0778 21
411 1 -2.14267 15.9794 -6.83594 11
412 1 -0.982168 -10.6441 -0.699627 20
413 1 9.54387 -1.44361 -8.40536 14
414 1 -5.00384 15.9376 -6.34999 12
415 1 -2.1763 -4.33352 -9.93524 21
416 1 -2.3467 -12.4907 10.3922 9
417 1 -15.6251 1.54885 2.57528 12
418 1 -7.3187 1.42945 -0.0122167 22
419 1 -3.88582 -5.99453 16.9343 12
420 1 1.98948 7.20401 -0.924535 21
421 1 2.24702 -5.53431 -13.0384 9
422 1 8.35063 -6.07444 13.4545 10
423 1 10.6579 -2.18272 -5.12941 16
424 1 -11.7605 8.52782 -2.78771 15
425 1 9.86274 -4.44834 -0.480029 17
426 1 3.26954 9.13234 11.8749 16
427 1 0.489756 3.01457 -9.64963 17
428 1 2.11887 18.0317 10.19 7
429 1 11.1015 6.67133 -7.88665 15
430 1 4.30107 4.60549 -12.8149 21
431 1 -5.91451 -8.02891 -3.57693 18
432 1 -10.1268 -3.01398 -10.4722 10
433 1 13.5914 5.22074 -1.09745 13
434 1 11.1898 7.21052 0.379894 20
435 1 7.06621 -2.86702 -7.90425 18
436 1 4.67044 -6.72596 -0.863668 20
437 1 7.75458 10.1076 3.9136 25
438 1 -10.9888 -2.06227 14.0066 19
439 1 6.56416 8.87904 0.975169 24
440 1 11.9829 -0.0445817 5.72903 22
441 1 12.0256 2.86496 -5.66701 22
442 1 7.64676 4.05619 15.9715 13
443 1 0.64577 -3.90954 9.73034 15
444 1 7.97478 4.30202 4.1762 22
445 1 2.92215 0.866233 16.4363 16
446 1 15.3786 -1.44686 -1.4811 10
447 1 12.9588 3.64318 12.0257 11
448 1 -10.1978 1.02546 -7.29062 20
449 1 10.2824 11.9252 4.19286 15
450 1 13.2208 -5.34454 4.97675 15
451 1 1.10512 -5.99425 1.91022 19
452 1 9.01781 6.73007 8.28238 18
453 1 1.05091 14.109 11.9688 13
454 1 7.04302 3.36259 9.05905 23
455 1 -6.42646 12.1161 1.9785 23
456 1 8.97085 8.21254 -2.25899 19
457 1 11.2434 1.14932 -9.11194 16
458 1 2.09069 17.1123 -1.66505 11
459 1 -3.8487 -9.42615 -2.23881 18
460 1 -15.7211 1.59377 8.46737 14
461 1 -5.72426 7.17078 -12.0938 12
462 1 -1.56721 -11.8688 6.71699 15
463 1 -7.799 1.77012 -6.3159 19
464 1 -14.5477 6.08961 -2.6873 9
465 1 9.61453 -5.30457 8.22991 16
466 1 10.8885 5.72266 5.25605 14
467 1 3.6421 -8.44948 11.7406 20
468 1 -10.6438 3.3101 -4.43998 23
469 1 2.23941 -5.22156 7.2339 16
470 1 -2.05206 7.2705 17.6251 16
471 1 10.3157 9.67327 -8.97183 10
472 1 9.57963 4.02204 -4.07047 19
473 1 2.8355 -10.8026 -5.38952 13
474 1 14.6924 -2.24432 9.3229 12
475 1 8.93383 14.9956 3.92939 13
476 1 11.8728 -5.22142 2.04153 17
477 1 -7.22864 8.12535 8.96965 17
478 1 -10.6524 -4.4741 5.16332 23
479 1 -9.95943 -2.36983 -2.40002 18
480 1 4.12534 -1.95207 17.2033 12
481 1 -3.34568 -7.4107 12.7929 19
482 1 9.5489 8.30213 10.601 19
483 1 -3.61498 13.1472 3.66336 20
484 1 7.87778 6.22423 0.188537 21
485 1 9.53106 10.3944 7.11154 21
486 1 7.51024 6.18291 -12.6324 12
487 1 -11.8247 -5.64151 10.283 15
488 1 12.0486 4.37184 -9.11141 12
489 1 -0.158918 -3.11754 -2.8073 18
490 1 9.06038 -5.42128 -3.45668 19
491 1 6.12568 5.68525 7.12438 23
492 1 5.90806 6.83793 3.37334 25
493 1 14.2919 6.40804 9.66795 9
494 1 0.0550374 1.78769 15.979 18
495 1 -0.764259 8.11243 12.6415 21
496 1 3.24723 1.48003 -10.9199 15
497 1 -1.66568 13.1653 12.3525 19
498 1 5.9653 0.996273 17.1651 14
499 1 11.6602 10.8762 -0.123145 10
500 1 4.0141 -12.8308 -2.37294 11
501 1 -4.61786 3.24256 -3.06812 20
502 1 4.39993 14.1255 6.95665 21
503 1 6.32356 15.9423 3.20697 14
504 1 -0.698096 4.04293 8.74568 19
505 1 -0.400766 12.9181 -0.643375 20
506 1 12.3014 9.53877 2.98039 14
507 1 -7.00999 -9.75194 -0.60279 21
508 1 4.53168 2.5828 -15.19 12
509 1 -10.1802 11.1601 -3.94487 8
510 1 6.34947 -5.82657 -8.31126 13
511 1 12.5734 6.04321 2.92379 20
512 1 9.94807 7.05159 -5.31287 17
513 1 7.04882 11.0763 -1.24309 18
514 1 -4.75637 6.1022 7.51621 19
515 1 -8.86096 7.01874 2.81759 18
516 1 5.50991 7.35267 -1.94017 22
517 1 -2.91311 -9.12752 15.6359 13
518 1 -2.35032 6.56887 -12.6328 14
519 1 -0.830234 16.1401 10.7297 13
520 1 4.69005 3.99859 17.3359 11
521 1 7.0713 14.2529 0.414909 15
522 1 7.11008 16.176 6.42558 12
523 1 13.8031 -2.65374 -3.87723 11
524 1 -15.1694 -2.88292 6.93525 12
525 1 0.840671 -9.92587 1.30112 21
526 1 -3.54162 -3.09084 -12.8069 11
527 1 2.11454 4.45818 9.08823 18
528 1 7.57343 -2.47644 -1.00141 18
529 1 1.99887 15.2135 9.29332 19
530 1 -16.0769 -1.64736 10.1406 9
531 1 2.95592 -9.85933 3.84829 17
532 1 4.6373 8.36423 -4.9839 16
533 1 5.04349 -6.93064 5.60553 20
534 1 -0.183544 11.0674 6.83999 23
535 1 4.32519 -0.770287 -15.5976 8
536 1 -1.8321 -10.1693 12.8075 13
537 1 3.15871 11.4094 6.5624 23
538 1 -5.61462 3.62699 17.1603 11
539 1 -7.33635 -5.94692 -9.06358 12
540 1 2.0225 1.41042 -7.25756 20
541 1 -2.8681 13.5665 9.05358 18
542 1 4.94329 -9.69381 -3.04214 20
543 1 1.12713 -9.06675 10.0836 21
544 1 0.410079 -12.7295 -2.62138 14
545 1 -14.0418 -1.2006 13.3151 12
546 1 -0.933086 1.5219 -6.20131 22
547 1 -5.98653 -11.6158 -3.2168 16
548 1 -10.3272 2.93047 13.9359 14
549 1 12.3539 8.66593 -6.28789 9
550 1 -6.79145 3.88952 7.36465 21
551 1 -11.0279 8.29672 8.15561 20
552 1 9.6202 -0.457813 4.6628 19
553 1 1.0901 12.63 -3.55453 16
554 1 11.049 5.2532 -1.99004 22
555 1 9.02331 2.59454 -0.82058 24
556 1 -13.5852 2.89373 -4.35049 12
557 1 -13.8641 -5.41655 -2.96853 8
558 1 4.38925 10.1083 -1.33345 21
559 1 -4.51079 4.28388 13.2434 17
560 1 -5.05011 -4.80843 13.2982 19
561 1 1.09326 -4.32608 -10.1028 24
562 1 -5.83182 6.47549 -4.11454 21
563 1 4.91146 16.2087 8.96012 10
564 1 -10.5016 -3.10286 11.1145 20
565 1 6.43978 1.36199 -11.8927 14
566 1 -0.651807 -13.4225 1.0409 15
567 1 6.04673 3.38897 -7.99187 16
568 1 -6.54518 -3.12065 -10.5415 13
569 1 -2.10456 4.07822 12.9458 15
570 1 4.18319 6.90341 -8.27416 16
571 1 -5.92186 -1.29484 -5.81208 18
572 1 7.4308 -1.63572 3.45885 20
573 1 -7.77858 -6.86367 0.752536 19
574 1 7.46166 6.37761 -4.77192 17
575 1 7.22421 -6.19431 0.578217 22
576 1 -4.194 9.02155 15.6169 16
577 1 11.4229 -6.92438 6.90961 13
578 1 14.3415 -2.90828 2.78952 13
579 1 4.55851 -3.62162 11.9307 15
580 1 3.32179 12.8786 9.69659 17
581 1 -5.66908 6.54481 16.5999 15
582 1 -5.25203 -10.3089 13.7425 11
583 1 10.3409 2.68435 4.67854 20
584 1 8.29201 10.0015 12.9142 13
585 1 -14.3338 4.27595 3.96548 16
586 1 7.17488 -8.77657 -0.439591 20
587 1 6.04192 11.1147 6.96619 19
588 1 3.52454 -4.24554 15.3905 14
589 1 -0.156597 13.8094 8.90456 23
590 1 0.00257998 -9.23178 7.1322 19
591 1 -7.62869 -4.04557 -3.8316 17
592 1 1.65411 5.70069 12.073 18
593 1 1.43993 10.5363 4.42884 23
594 1 -6.23976 -6.66926 10.99 21
595 1 10.3092 -0.532027 12.4624 14
596 1 11.4393 -3.17856 7.05942 19
597 1 6.93264 8.51184 8.72787 22
598 1 -3.88331 7.12639 -0.415467 22
599 1 -2.1931 -7.7858 -5.02735 18
600 1 -0.976285 1.27578 -15.2806 9
601 1 -8.0258 0.62541 17.3971 8
602 1 -1.56802 15.7819 4.14054 17
603 1 14.7875 4.24703 7.29527 13
604 1 4.86866 13.5377 -6.53636 8
605 1 -0.823024 9.00324 15.3907 17
606 1 4.15284 10.3562 9.70945 17
607 1 5.94923 -1.61116 -10.8971 16
608 1 -6.45286 -8.76331 2.77954 15
609 1 -6.34732 0.829816 -3.44227 17
610 1 13.418 0.0160403 11.7828 9
611 1 0.947274 -0.335181 -10.0621 19
612 1 -2.27262 -5.94206 -3.08276 18
613 1 14.5491 0.259506 7.66505 13
614 1 -1.95598 -3.88252 15.2692 15
615 1 -7.96526 -0.861206 -8.55793 23
616 1 5.67454 16.5135 -0.68292 8
617 1 -3.58277 -1.01989 7.70506 19
618 1 -10.5113 6.66153 5.76718 21
619 1 12.6954 6.05265 -4.5448 15
620 1 6.83586 3.80737 -13.5384 12
621 1 -8.78168 11.9598 4.38542 18
622 1 3.42946 8.39974 -14.3082 12
623 1 9.5066 -2.4748 1.35093 19
624 1 -10.6304 3.38455 3.75631 21
625 1 11.5937 12.0409 8.6018 12
626 1 -8.69448 -5.02861 2.73005 23
627 1 6.97547 3.84657 12.7418 18
628 1 -12.6994 -0.751796 -6.18294 12
629 1 -6.3511 5.9635 10.9687 15
630 1 -2.93432 5.9289 -3.18254 23
631 1 5.73797 -4.73046 -5.22901 22
632 1 -11.6054 -7.92125 -3.57426 13
633 1 7.86009 -2.39403 -4.68593 23
634 1 -12.0166 6.15116 3.09117 12
635 1 -13.0211 -2.9091 -1.40127 12
636 1 -12.1341 -7.59427 4.76712 19
637 1 12.0091 -0.423549 9.23846 21
638 1 5.9919 -4.15212 4.52649 20
639 1 -11.0877 3.91071 7.10576 22
640 1 0.185633 11.7751 14.8095 12
641 1 2.74566 7.1073 -11.4965 23
642 1 -3.68417 10.3287 12.3024 18
643 1 5.56937 11.1727 -4.35026 15
644 1 1.83379 8.83341 14.4909 16
645 1 1.80761 -6.07218 11.7945 19
646 1 -1.0262 13.5811 -5.22779 18
647 1 -6.62107 1.87341 14.9262 18
648 1 -0.532124 -3.08774 -8.03887 21
649 1 -16.7758 2.76059 5.58446 10
650 1 -0.79503 -6.41965 8.73307 16
651 1 4.91318 1.80162 13.7565 21
652 1 -3.41837 -14.1069 1.88001 13
653 1 -15.1568 4.63295 7.04434 14
654 1 11.4941 2.17819 -2.74296 19
655 1 -7.19474 9.03997 2.57548 21
656 1 -8.59677 2.1574 11.6607 16
657 1 -5.67767 -8.92089 -8.71975 11
658 1 -1.41102 -7.37325 -0.349632 22
659 1 9.14453 -10.9504 0.258601 11
660 1 1.7983 10.2511 -12.3951 13
661 1 12.3734 0.301386 2.99777 20
662 1 14.5748 7.88145 6.60664 11
663 1 14.7323 0.928713 1.2335 14
664 1 -2.19732 3.20665 -12.6509 15
665 1 -9.84604 -9.18871 9.20194 16
666 1 7.18412 10.8672 -6.96984 9
667 1 7.31821 0.189775 0.390306 22
668 1 -7.58782 3.25808 -2.75012 24
669 1 0.475752 10.8243 -5.87515 18
670 1 -13.7648 -3.20292 11.8052 13
671 1 4.96957 8.36042 6.07805 20
672 1 0.966469 -12.3272 9.39492 13
673 1 0.953975 10.0914 -1.17932 21
674 1 -4.97472 13.0169 11.9878 11
675 1 -7.64297 4.06143 13.2008 15
676 1 9.0482 1.80622 2.31269 23
677 1 -0.539622 -6.29794 15.939 14
678 1 3.90903 -11.4628 10.8165 12
679 1 -5.57782 0.988422 8.29279 20
680 1 11.8814 8.82428 8.32485 17
681 1 5.28887 -1.12522 -3.05666 19
682 1 -9.75124 0.0741255 -11.6258 14
683 1 -0.781414 8.62437 -10.6526 15
684 1 -12.353 3.39264 -1.3442 16
685 1 7.88488 13.1755 6.54621 21
686 1 -1.74747 10.4008 10.0189 20
687 1 -8.83176 -9.93966 -3.01282 17
688 1 -3.69595 7.6573 4.95362 19
689 1 7.36503 1.06926 11.0855 22
690 1 -5.11676 -7.02087 5.27199 16
691 1 9.26741 -4.8434 -6.35568 12
692 1 3.90859 -9.34437 0.477193 20
693 1 5.05566 5.79852 -15.2969 12
694 1 -2.91983 2.21776 -8.54261 18
695 1 -5.63344 -5.02231 1.79084 20
696 1 -8.52286 4.78618 0.465167 19
697 1 -3.15299 12.1339 15.0198 13
698 1 7.88384 -3.26171 13.1937 13
699 1 -13.0727 -8.31797 8.39139 9
700 1 11.7794 -2.7476 3.92579 20
701 1 1.18475 10.4067 -8.75656 16
702 1 11.0365 13.4765 6.37672 13
703 2 -13.9419 2.24989 -6.20406 11
704 2 -3.71856 13.3496 -3.1121 18
705 2 -1.1891 3.4037 -6.71544 20
706 2 -6.7403 2.51228 12.7583 19
707 2 -10.5863 -0.291844 -5.97224 20
708 2 4.79958 2.1284 11.7074 20
709 2 -11.081 -8.72491 -0.0489275 16
710 2 -9.19363 6.64802 -6.06002 16
711 2 2.40555 16.7459 5.65428 14
712 2 -9.41139 3.93061 8.9749 16
713 2 8.35465 3.12416 5.68298 24
714 2 -4.45481 1.23603 -4.05161 20
715 2 -12.6162 -6.84962 -2.37584 10
716 2 -6.79213 1.32075 1.72866 22
717 2 4.05272 -5.27836 8.17596 19
718 2 5.17674 3.92195 13.5596 19
719 2 5.19415 -2.50524 -7.94113 21
720 2 -1.12282 -12.1098 8.86882 14
721 2 5.76107 1.36443 5.72702 20
722 2 -10.7782 10.6876 0.557435 11
723 2 -11.3031 8.38381 -0.739823 14
724 2 13.3225 4.90261 10.6125 13
725 2 13.8024 -2.9298 -1.89798 11
726 2 -8.90593 -6.96133 2.52638 20
727 2 -8.88871 -1.4223 6.97825 20
728 2 -3.65621 -11.3206 6.30238 14
729 2 9.78381 -4.15368 6.64826 15
730 2 1.38686 -8.85049 -3.68962 20
731 2 3.45896 0.570075 14.4731 22
732 2 -0.84909 15.5624 -5.41343 15
733 2 -10.6812 -11.2215 1.68184 11
734 2 4.4058 5.80187 16.3743 13
735 2 -7.97253 11.3343 2.56733 20
736 2 -2.33807 5.5305 18.2182 13
737 2 -7.44753 7.46965 -3.54467 21
738 2 6.45126 -8.39631 4.88135 19
739 2 -1.79909 9.66444 12.0391 20
740 2 -1.49564 17.3403 -3.01377 14
741 2 3.82689 -9.24838 -5.42837 13
742 2 -4.44356 3.16764 -6.68927 19
743 2 4.55584 -2.82627 -11.3296 16
744 2 11.885 1.37886 -4.36504 20
745 2 -5.37292 11.2729 11.8382 13
746 2 10.5614 2.9967 -9.65199 14
747 2 -2.56712 4.94554 -13.8297 12
748 2 12.538 9.81113 -1.55891 10
749 2 -9.18387 -0.518531 16.4256 12
750 2 -12.9147 8.20385 9.40497 11
751 2 12.9433 3.11676 -1.31666 21
752 2 1.30692 -3.23387 -11.6834 18
753 2 -12.4333 -3.70065 10.5309 17
754 2 11.7026 10.7068 4.25388 12
755 2 -3.73495 9.62671 9.22365 18
756 2 -1.61043 -6.09263 -5.85646 17
757 2 -8.32229 13.8762 4.0566 15
758 2 4.12591 -7.99792 13.849 15
759 2 10.9211 -2.23123 8.85215 21
760 2 -10.1341 3.23662 5.71711 23
761 2 12.9929 -1.78441 -5.2261 12
762 2 9.07685 -7.62557 -3.32764 10
763 2 6.16763 8.79129 4.09654 22
764 2 5.09311 -11.3073 9.27863 14
765 2 8.96242 -0.684309 6.65391 21
766 2 -6.36989 -1.24785 16.2038 13
767 2 15.2314 -3.82178 1.1914 9
768 2 1.85509 4.56257 6.12567 25
769 2 12.2942 10.625 9.59211 13
770 2 -3.25901 10.5567 15.8238 12
771 2 1.41794 13.5722 10.1233 19
772 2 10.7083 -6.95406 2.19044 16
773 2 2.20168 10.3863 -6.8037 18
774 2 -8.09697 0.767217 -8.05467 19
775 2 -5.19031 2.0305 9.91643 16
776 2 6.09055 0.525832 -4.21926 19
777 2 -8.18231 1.34148 -3.27083 20
778 2 -11.9617 -1.49289 7.41564 19
779 2 -10.6086 -4.37423 2.27911 18
780 2 15.1409 -1.55871 7.48812 14
781 2 1.45264 -7.98953 11.6184 22
782 2 -3.92261 2.70404 17.8704 12
783 2 9.93728 -0.422113 -10.0363 12
784 2 7.09907 5.88967 15.7984 13
785 2 1.62953 9.67012 10.9077 21
786 2 -8.77763 0.630165 4.60641 24
787 2 -0.870524 -8.35526 -8.31042 15
788 2 8.75039 -0.586627 -4.85053 20
789 2 -10.1685 8.83935 9.75769 16
790 2 -3.00755 -6.63693 1.25267 17
791 2 5.11216 -6.58318 -4.46179 18
792 2 5.77754 3.19676 -2.16591 19
793 2 0.641705 7.21559 11.6002 19
794 2 1.62003 -4.46591 -3.08074 21
795 2 6.62495 -0.378918 10.2732 18
796 2 -11.4014 -9.1376 8.20966 13
797 2 11.59 5.22439 0.695451 21
798 2 -6.72831 -8.44221 10.4623 18
799 2 9.09097 6.5136 -6.90682 18
800 2 -9.05849 -7.38464 9.29205 21
801 2 10.5192 -1.4261 -6.87848 16
802 2 -0.393221 -12.549 -0.868917 19
803 2 10.6072 -3.75791 2.60193 18
804 2 -5.53319 11.6494 8.04488 15
805 2 10.5369 5.55112 -4.26355 20
806 2 -6.62155 -3.88275 -2.07699 16
807 2 -5.59324 -1.04719 7.43648 21
808 2 1.17646 -5.27075 5.37031 16
809 2 -3.89412 -3.98826 2.34214 18
810 2 -0.226355 12.8927 7.07264 25
811 2 -10.2556 11.2608 5.33067 12
812 2 2.16039 1.07398 -4.40022 21
813 2 8.72868 9.64221 2.5076 19
814 2 1.98167 7.07108 -4.40324 20
815 2 -4.1186 7.12769 15.457 20
816 2 0.0833731 6.20414 -15.2453 10
817 2 -12.7387 2.59766 7.44176 20
818 2 -0.0917673 7.74497 6.73226 22
819 2 -6.3912 5.60264 12.8032 17
820 2 -7.84149 3.45361 -0.921706 23
821 2 3.76106 15.1969 3.46756 17
822 2 12.2195 7.92704 -4.6787 13
823 2 10.3748 -5.57879 -2.13051 12
824 2 -12.724 -3.05969 13.6125 13
825 2 6.55737 3.37164 3.17289 20
826 2 1.50377 10.3822 6.45096 19
827 2 -3.84107 6.8769 -11.6418 14
828 2 -7.57158 5.93413 1.7687 21
829 2 8.85 -1.82948 12.3877 17
830 2 -7.85371 -5.15527 -6.19817 17
831 2 6.11831 6.87151 -8.37231 18
832 2 9.10166 9.56555 5.41667 18
833 2 -10.8793 -3.45587 15.6353 13
834 2 2.90597 9.27628 3.79401 24
835 2 -4.84591 14.3564 -7.26538 12
836 2 -6.18699 15.2097 -1.33813 14
837 2 5.89996 -2.56685 16.7249 11
838 2 -0.705957 9.97668 8.36949 22
839 2 9.25655 -3.83411 -4.7365 16
840 2 -1.49861 2.47697 16.7826 15
841 2 -5.34366 3.40778 15.0011 22
842 2 -11.078 1.50166 2.84844 19
843 2 -6.0604 -4.23713 -8.82419 18
844 2 3.95791 -9.19363 -1.56315 20
845 2 1.96306 3.14311 -6.58815 18
846 2 15.6082 6.93917 5.05096 10
847 2 -1.53958 7.06518 9.61131 23
848 2 5.87067 3.69744 -6.18054 16
849 2 -6.87855 -4.90272 12.2959 19
850 2 -2.62443 -1.62629 -13.3199 12
851 2 -1.77456 -10.2842 -2.42704 18
852 2 -1.37056 -4.08843 -3.88312 18
853 2 9.28149 -10.6275 2.10389 14
854 2 8.33959 10.1088 -2.14034 16
855 2 -4.23031 3.38706 -12.0528 18
856 2 -2.9947 7.22939 6.82512 19
857 2 -7.16304 -4.16774 2.20798 19
858 2 -8.35591 -2.74039 -10.9923 14
859 2 6.12808 9.15453 -10.9291 13
860 2 -0.222233 13.3704 1.26117 19
861 2 -4.73089 -14.0103 3.12167 11
862 2 14.3912 2.30179 8.11887 16
863 2 0.627976 5.2531 16.8928 15
864 2 -6.25898 -12.6997 -1.66226 11
865 2 -3.87966 -11.4678 3.25379 16
866 2 3.34826 2.78802 16.5747 17
867 2 5.81863 10.107 8.67533 19
868 2 14.8477 0.272316 -0.539322 11
869 2 6.29025 8.49652 15.6444 9
870 2 6.23162 11.9345 -2.63752 16
871 2 -15.666 0.116431 9.59929 12
872 2 5.43873 -5.49715 1.10498 17
873 2 -1.69038 16.5311 2.37089 17
874 2 11.7022 3.79321 5.73296 19
875 2 -2.33165 8.77507 -9.49839 14
876 2 8.64783 -4.5024 14.8925 10