ITEM: TIMESTEP
19000
ITEM: NUMBER OF ATOMS
1000
ITEM: BOX BOUNDS pp pp pp
-30.0 30.0
-30.0 30.0
-30.0 30.0
ITEM: ATOMS id type x y z Coordination
1 1 2.92851 -8.66229 -13.1879 18
2 1 11.5863 -14.7667 6.00217 15
3 1 -2.61337 7.73652 -3.07363 16
4 1 -6.00944 4.74756 -5.74721 12
5 1 5.46046 -10.8574 7.78218 18
6 1 -2.88053 0.127246 -13.3419 12
7 1 -2.00361 -1.38241 -7.6602 20
8 1 4.01595 -13.9311 0.334067 17
9 1 9.61735 -6.20774 1.82779 20
10 1 7.65304 1.00379 5.39273 19
11 1 9.12763 -5.51144 -1.51459 19
12 1 2.69826 0.797931 -13.0621 12
13 1 4.11608 -5.51745 8.65939 18
14 1 -5.94115 -3.74716 -0.789898 23
15 1 -0.173465 -3.79616 -7.89841 21
16 1 4.43921 -5.29621 5.20512 20
17 1 6.11695 -8.36198 -7.74357 19
18 1 8.97477 -4.29702 9.32959 16
19 1 4.10971 -16.1504 3.14703 16
20 1 -8.30563 -3.07067 2.36689 12
21 1 -3.07146 -3.65987 -6.34023 21
22 1 -0.685587 9.05731 -5.62344 9
23 1 11.4954 -9.85137 -11.5388 15
24 1 9.13613 -12.1512 -11.0315 14
25 1 3.23994 -10.3174 9.01097 9
26 1 -7.21955 1.05659 -0.908787 14
27 1 4.17048 9.25702 -2.30695 11
28 1 11.7042 -14.0402 -0.851202 14
29 1 13.6964 -11.4171 -6.72886 14
30 1 14.1644 -3.943 0.215564 18
31 1 -0.737023 4.28229 -6.29871 19
32 1 3.18402 1.8759 -6.28918 19
33 1 2.88811 4.68609 -0.610356 18
34 1 5.66943 2.82818 4.47986 17
35 1 -4.3705 -6.83679 -2.64719 21
36 1 6.7424 -6.07091 7.12178 22
37 1 -8.63147 -8.42435 0.113843 12
38 1 17.8165 -1.06173 4.73683 13
39 1 11.9205 -8.7115 -4.74662 23
40 1 6.61345 -2.70401 8.45219 22
41 1 -1.70094 -12.2853 -0.988593 20
42 1 2.77196 -8.45215 -9.75454 19
43 1 -5.53613 6.39915 -1.84404 12
44 1 4.25266 -1.47615 -11.7522 14
45 1 10.1423 -1.75265 -6.09217 17
46 1 9.75513 -4.91637 -6.74216 23
47 1 9.5653 -11.267 1.76941 18
48 1 9.91955 -15.9758 8.66757 7
49 1 0.912823 1.78037 1.23285 19
50 1 -4.13361 -12.0686 7.33365 12
51 1 -4.64516 -0.682119 0.350177 19
52 1 12.5249 -11.44 -3.71083 19
53 1 10.6742 -4.82602 -14.3548 12
54 1 9.48527 -4.33151 6.74151 22
55 1 4.95024 9.8849 1.06711 11
56 1 2.6861 1.34473 -9.94512 21
57 1 5.11195 5.03935 2.0128 18
58 1 -1.75194 -14.3867 6.32554 17
59 1 8.985 -8.27765 -6.77292 21
60 1 5.88422 -10.826 -12.713 13
61 1 1.6976 -0.951316 3.0027 21
62 1 -6.0065 -13.5745 -0.137659 10
63 1 9.03756 -8.84228 0.0670447 22
64 1 -4.0576 -11.9562 -2.79546 18
65 1 15.2343 -12.0908 4.0109 13
66 1 0.375695 6.98322 -1.31455 20
67 1 -3.76784 6.22815 3.07912 17
68 1 8.97001 1.40075 -5.14859 20
69 1 14.3964 -9.18262 -2.09313 19
70 1 -3.4644 -14.5926 -0.590508 18
71 1 13.3548 7.20728 4.39127 12
72 1 10.4482 4.63435 -2.00294 22
73 1 -2.85917 6.42231 -6.16947 14
74 1 3.48728 -11.3848 -11.5203 15
75 1 4.13082 3.21109 -11.3726 12
76 1 17.3881 -0.36785 -3.14799 15
77 1 9.91278 -4.17924 -10.5552 14
78 1 13.4216 -12.2469 7.02881 9
79 1 -2.19005 -0.413806 -10.9687 23
80 1 9.52147 6.84124 -0.200099 16
81 1 12.0297 7.78124 -1.6888 9
82 1 1.69372 7.35548 -4.54024 16
83 1 -0.0345449 -8.84468 -14.3103 10
84 1 -6.53938 -2.65066 -8.18428 12
85 1 1.60084 4.94392 7.14558 13
86 1 4.05916 6.311 -10.0019 9
87 1 11.342 -10.0103 8.58237 17
88 1 -8.50415 -8.9865 3.57955 9
89 1 1.31245 -15.3095 1.79658 19
90 1 2.58776 4.87533 -3.66925 16
91 1 13.609 2.95327 -6.90751 15
92 1 0.8 -14.7468 8.53248 10
93 1 -6.21523 -1.72602 -2.80251 18
94 1 7.47346 0.431804 10.1121 12
95 1 -0.576623 -3.55432 -11.1778 20
96 1 -1.28414 -9.9336 3.86369 20
97 1 -5.07232 -17.2091 -0.337904 7
98 1 -1.42599 -7.22701 -4.50903 19
99 1 9.5319 -11.0309 -5.41237 20
100 1 5.09129 4.27652 7.28295 14
101 1 -2.98362 -4.08033 0.682654 23
102 1 -6.14363 -5.28135 -7.26438 14
103 1 6.70062 -14.0007 2.60642 19
104 1 11.9021 0.280208 -7.28894 16
105 1 11.3037 -6.49237 8.65569 13
106 1 8.18983 -1.61029 -11.9285 15
107 1 -3.23636 -8.63376 -9.49079 17
108 1 -1.2174 9.68835 -1.00674 11
109 1 11.8964 -2.47483 7.96776 14
110 1 2.79482 4.04561 -8.43276 16
111 1 7.58613 -2.60642 -8.73873 16
112 1 -2.15928 -2.9984 3.59812 19
113 1 -2.89451 1.19092 5.94355 16
114 1 1.46764 -11.9323 -9.65942 15
115 1 3.31608 -3.40985 3.84644 23
116 1 7.30477 -5.69572 -5.54997 20
117 1 13.0661 5.16568 -9.05158 8
118 1 4.76522 7.3576 -4.46667 15
119 1 -7.66214 3.22756 1.9854 12
120 1 7.36123 3.55577 8.74942 12
121 1 14.6969 -3.58946 -3.44814 21
122 1 12.3851 0.377464 6.97657 19
123 1 -6.83618 5.39055 4.14796 13
124 1 -7.96761 -4.57531 -3.08174 15
125 1 6.45537 -8.7782 5.57715 19
126 1 14.9561 -15.3455 -0.033663 7
127 1 5.77961 -8.07628 -11.1823 20
128 1 10.0508 -1.14998 -14.5235 12
129 1 -6.55495 -6.98915 5.69168 14
130 1 -1.42062 -11.6741 -8.30373 14
131 1 -1.55304 -13.5226 1.90414 17
132 1 4.17233 -11.1007 2.41614 22
133 1 -3.13299 -8.95942 -12.7701 12
134 1 -2.17967 3.35519 -11.668 12
135 1 10.9871 -6.23639 5.10109 19
136 1 9.11194 -9.13992 3.81637 21
137 1 8.39479 -10.5278 7.11118 21
138 1 7.79055 2.18612 1.94612 23
139 1 -2.10248 -9.46046 0.872397 20
140 1 7.32294 7.28079 1.17306 15
141 1 -0.492021 -8.49295 -11.5642 20
142 1 -2.97184 -11.7254 -10.2211 10
143 1 0.390416 -15.134 -1.43873 20
144 1 6.27109 -8.66391 2.08506 23
145 1 19.3084 1.79273 -1.08345 8
146 1 0.49062 -9.75903 -4.51261 21
147 1 -4.92333 -8.67502 8.35132 8
148 1 1.0409 -18.606 0.0378949 14
149 1 6.26085 -0.0085014 -6.68139 20
150 1 3.62797 -18.9816 -1.36772 11
151 1 7.32566 -11.5439 -2.315 19
152 1 3.71428 -18.7803 2.19717 8
153 1 -3.65323 5.09274 -8.43299 14
154 1 15.7003 3.8016 4.43175 14
155 1 -1.30627 -2.92324 -15.0145 10
156 1 6.38052 1.02283 -12.8029 13
157 1 1.17714 -9.4834 2.34651 22
158 1 5.72845 8.31778 3.61042 12
159 1 11.1929 -2.60903 1.84152 19
160 1 -5.46942 -3.57382 2.38425 20
161 1 -0.608618 -11.6849 7.27148 18
162 1 -2.65463 1.49202 0.587703 14
163 1 6.13607 -7.26909 -13.6571 16
164 1 7.50156 -16.5556 -5.23718 11
165 1 18.021 -3.43841 -11.5411 7
166 1 0.545884 -10.0261 -1.22956 21
167 1 6.73936 -3.1623 5.51261 20
168 1 -4.33474 -6.79759 0.932764 20
169 1 14.9494 -13.381 -3.80669 10
170 1 -0.0313473 3.06612 -1.20637 16
171 1 -1.53008 3.22096 8.35891 13
172 1 11.1748 -10.5306 5.44247 19
173 1 5.10718 -0.974255 4.79841 17
174 1 -3.1621 -9.32867 -6.73117 19
175 1 4.07859 6.65725 5.62084 12
176 1 -4.8088 -0.519222 -5.22054 14
177 1 -7.40899 -1.17789 5.55099 9
178 1 3.91066 -11.1399 -8.11167 22
179 1 -0.365806 7.9021 1.90547 15
180 1 13.5679 -5.37829 2.85194 23
181 1 8.79611 -13.2467 4.96971 22
182 1 -0.859015 0.604249 -2.09374 15
183 1 0.903303 -8.68431 6.01761 19
184 1 11.5644 -13.4053 -6.3201 16
185 1 -2.26359 -5.98317 -14.3484 11
186 1 -9.08582 -4.64965 0.258557 11
187 1 1.64753 -12.4565 -3.26996 21
188 1 13.1315 2.18841 -1.40873 21
189 1 -0.748149 4.65738 -9.38478 14
190 1 -6.27707 8.79208 3.52279 8
191 1 -3.26026 8.09346 0.978029 10
192 1 -1.45831 -0.0605495 8.19534 10
193 1 18.036 -6.93657 -6.79732 8
194 1 16.131 -1.55349 -9.2813 12
195 1 7.55701 -0.67266 3.12793 24
196 1 0.405915 1.38875 -4.60803 21
197 1 3.72996 -12.6732 -5.04651 19
198 1 2.2809 9.64116 3.62397 9
199 1 11.8863 -3.5141 -3.70918 20
200 1 -4.50448 -0.504347 -8.16327 15
201 1 9.19794 -16.47 -1.9876 10
202 1 15.2768 -2.24144 2.49261 21
203 1 -9.20433 -3.34529 -5.94557 7
204 1 -1.3988 -15.9554 0.854937 16
205 1 2.43175 6.96622 1.72459 19
206 1 -7.47995 4.76946 0.0420658 12
207 1 3.26178 -14.3754 -7.93012 15
208 1 9.841 -16.3475 4.90158 15
209 1 0.466743 -20.189 -2.85863 9
210 1 -7.5397 3.70783 -3.01861 8
211 1 0.628478 -17.9842 2.84618 13
212 1 0.48498 -3.17501 4.9251 18
213 1 -6.37302 2.12128 4.7233 11
214 1 7.46347 -13.5145 -5.25688 20
215 1 3.80047 -8.28786 3.64373 21
216 1 -5.02703 -3.6146 5.3605 15
217 1 2.39066 -10.6437 5.20896 19
218 1 -2.40382 -8.9583 6.77329 20
219 1 5.74773 -8.80664 -4.39093 19
220 1 8.9459 -17.0699 1.42425 13
221 1 7.18115 6.70251 -2.53178 19
222 1 -2.66653 -12.142 5.00478 19
223 1 15.2335 -8.24153 3.18458 14
224 1 12.9262 -1.51002 -0.957568 22
225 1 -1.8197 3.26021 3.23064 19
226 1 5.38448 -3.67445 -7.96991 19
227 1 14.5948 -9.63492 6.3558 10
228 1 6.07162 1.9327 -1.35212 19
229 1 3.89267 -2.77089 10.4059 14
230 1 4.88538 7.22067 -0.639298 19
231 1 12.7172 -11.8948 2.50137 17
232 1 4.34834 -16.8608 -6.25378 10
233 1 11.9052 3.70044 6.45932 18
234 1 -3.68384 -5.75763 7.43809 17
235 1 1.23063 -12.4405 -6.3753 18
236 1 -5.20915 -9.82689 -4.3124 20
237 1 -4.16331 3.98339 5.61032 14
238 1 2.01115 -18.156 -4.14703 10
239 1 -1.25789 -6.52137 2.30331 20
240 1 9.76447 -1.8548 5.64273 19
241 1 14.6657 2.82699 -4.05899 14
242 1 2.34684 -3.88311 -9.68017 19
243 1 9.18431 1.37243 -7.85128 18
244 1 3.65497 1.28441 6.75206 16
245 1 -7.88145 -9.41881 -2.77943 10
246 1 10.3001 6.52706 -7.39149 12
247 1 -5.72001 -9.17127 -6.95032 14
248 1 8.68177 -9.69732 -13.2046 11
249 1 10.172 7.23317 -4.36615 12
250 1 5.50034 4.30617 -3.01528 24
251 1 5.80103 1.26812 -4.02406 22
252 1 6.78977 -11.751 4.50479 19
253 1 1.94927 -3.94043 -14.7341 10
254 1 15.1112 5.57198 -1.41505 12
255 1 9.23882 -8.76918 -3.30275 22
256 1 5.02158 -3.42343 -17.075 7
257 1 9.29591 -13.6507 0.257917 16
258 1 7.21197 -13.586 8.32136 16
259 1 -2.67308 1.87702 -8.98063 20
260 1 13.9032 3.42116 1.33949 21
261 1 5.83363 -4.34876 -11.1219 15
262 1 -5.05562 -9.63237 -0.939855 21
263 1 16.5725 -2.09857 -5.35075 15
264 1 0.34005 -1.07354 -9.2121 20
265 1 0.283937 1.35466 -7.51802 21
266 1 11.4765 -12.7924 -9.54278 11
267 1 7.83979 -3.16434 -14.969 11
268 1 14.1085 -8.64401 -6.74946 17
269 1 6.42732 -11.5639 0.700052 20
270 1 -5.65875 -10.4764 5.15993 14
271 1 1.60721 9.44392 0.338031 15
272 1 7.05338 5.74599 -8.38601 15
273 1 17.3689 2.92666 -2.63687 10
274 1 0.935262 -15.3996 -5.28008 16
275 1 8.49274 -12.9109 -8.46973 19
276 1 7.26809 4.54622 -0.0779829 22
277 1 17.9913 -8.83195 -4.91072 9
278 1 9.93794 -13.3053 -3.03511 16
279 1 13.7524 -7.49248 0.618752 19
280 1 -4.96733 -0.856025 3.87279 16
281 1 -1.64924 -6.13214 -0.88553 22
282 1 0.434033 -9.47668 -8.08608 20
283 1 3.59123 -7.91764 7.04194 20
284 1 11.6139 2.35673 -3.65745 16
285 1 -0.0439624 0.995 -11.3931 19
286 1 4.9407 7.79656 -7.5838 11
287 1 3.87073 -2.42428 6.81206 19
288 1 5.20003 -13.092 -2.82073 13
289 1 14.445 -4.81619 -11.4436 14
290 1 -6.93182 -6.30225 -0.988793 17
291 1 -1.76021 -1.46733 -4.31307 18
292 1 -7.25294 -10.6928 1.55317 13
293 1 9.24892 1.85178 -1.8265 20
294 1 9.64664 -15.1156 -6.94115 13
295 1 9.93879 -12.826 8.18047 16
296 1 13.8208 -2.7965 -6.82606 22
297 1 -8.59819 6.98921 2.15125 8
298 1 12.7737 -15.9778 -4.66482 7
299 1 3.87894 2.7464 9.99195 9
300 1 0.585168 -6.21788 -12.9282 17
301 1 14.2533 -1.58703 -11.5175 13
302 1 -0.108299 -11.2824 -12.1214 13
303 1 3.0047 -15.2422 -2.45909 15
304 1 17.9822 -3.94933 -3.11754 15
305 1 13.9924 -5.85224 -8.33399 17
306 1 14.1133 -12.5354 -1.11878 20
307 1 7.31075 6.1183 -5.52425 17
308 1 -2.82287 -1.69609 -1.14817 19
309 1 15.3042 0.618947 -6.39156 15
310 1 9.54308 -8.11442 7.05016 21
311 1 12.3805 -3.52823 4.67784 20
312 1 14.3051 -0.564023 4.95934 19
313 1 -3.42029 -3.65768 -9.44662 20
314 1 16.5714 3.61721 0.738207 14
315 1 17.2141 -8.13259 -0.133864 14
316 1 3.65473 -11.4309 -0.918302 19
317 1 8.67555 4.40378 6.32891 16
318 1 8.95946 -3.60789 3.45939 21
319 1 1.27499 10.1989 -2.8395 11
320 1 -4.07689 -12.3895 -6.38459 10
321 1 0.201815 -1.46769 -13.3621 13
322 1 -3.66036 -3.05438 -12.7679 14
323 1 -5.87687 -3.23057 -5.54676 18
324 1 11.6261 -10.6314 -0.724789 19
325 1 6.67125 -15.6345 5.57058 14
326 1 7.47714 -6.31821 3.67925 22
327 1 12.5525 0.740636 -13.1431 11
328 1 12.9301 -5.50775 -5.83996 21
329 1 19.0071 -1.79264 -0.38833 15
330 1 9.92653 2.39798 4.02507 18
331 1 15.9393 -5.65621 -5.50942 20
332 1 1.1596 1.84551 8.16501 15
333 1 -4.7057 -15.1177 2.04032 16
334 1 -5.41048 -0.53993 -11.0477 11
335 1 9.38247 -7.85702 10.6925 12
336 1 -2.53636 5.74779 -0.578786 17
337 1 9.93065 -0.0510104 0.565131 21
338 1 10.3077 -5.96589 -4.32045 21
339 1 15.1523 0.0684066 -0.126628 17
340 1 -5.76391 -2.83004 8.07353 8
341 1 16.5315 -5.77114 -13.56 5
342 1 3.21964 -9.28078 -6.21859 21
343 1 15.1696 -1.26412 7.37676 15
344 1 13.2006 0.519221 1.71775 21
345 1 6.20411 -8.20879 9.2479 17
346 1 3.90489 -0.328418 12.0488 8
347 1 1.28413 -0.849143 6.781 18
348 1 0.960022 -1.09431 -6.12644 21
349 1 3.88453 -1.12127 -8.38905 21
350 1 10.291 3.56596 0.862419 20
351 1 1.58815 -6.55298 3.97422 24
352 1 4.35542 4.77536 -5.49694 19
353 1 -0.806121 -17.4249 -4.7442 9
354 1 4.67817 2.28235 1.13911 19
355 1 -1.24708 -1.20171 1.52059 19
356 1 -6.11469 8.86283 0.66148 8
357 1 10.8767 4.03123 -5.60356 16
358 1 6.99356 -2.0597 11.4192 11
359 1 14.167 5.29002 6.68785 10
360 1 -3.33688 -4.10393 -3.03626 20
361 1 7.77083 -6.16459 -9.37082 22
362 1 4.37372 -0.181258 1.96712 23
363 1 11.52 -9.47941 -7.90185 20
364 1 2.56692 2.17949 3.70768 20
365 1 -6.76653 -6.30059 2.45216 19
366 1 7.03598 -18.895 -0.0826784 9
367 1 11.4256 2.29415 -9.91399 17
368 1 13.9535 -15.204 3.34028 10
369 1 1.03375 4.50246 2.04136 18
370 1 9.67293 -6.89299 -12.4768 14
371 1 11.1661 -6.76564 -8.39663 21
372 1 1.08718 6.51541 4.3174 15
373 1 4.42445 -14.7818 7.04478 10
374 1 3.871 -5.41477 -12.6529 15
375 1 -1.84273 -14.3354 -3.66579 16
376 1 -0.958012 0.133832 3.9758 19
377 1 19.2673 -0.0207591 1.85798 8
378 1 1.52221 6.64252 -7.72906 13
379 1 13.1853 -2.61153 -13.9969 8
380 1 14.2977 -0.454308 -3.3402 19
381 1 9.67705 1.18638 -11.8258 14
382 1 1.4483 -4.63209 6.92093 21
383 1 0.407474 -12.7526 3.98014 19
384 1 6.53138 -11.1098 -6.24435 19
385 1 -3.44313 4.64606 -3.7381 15
386 1 12.1808 4.63058 3.2606 20
387 1 -4.59107 -9.36697 2.74429 18
388 1 11.4375 -0.682284 -10.1892 20
389 1 6.22173 -5.44945 10.7519 15
390 1 -7.21668 -7.49515 -4.84271 11
391 1 11.6252 -4.43913 -0.461474 19
392 1 -1.88041 -11.8183 -4.70498 20
393 1 17.0149 -7.13259 -2.8292 14
394 1 12.4429 -17.338 3.06568 9
395 1 7.25308 6.52385 6.10869 11
396 1 -1.91759 -3.26243 7.17055 16
397 1 17.9192 -3.34816 2.38334 15
398 1 11.6543 -8.22642 -1.78841 20
399 1 10.8629 -0.210382 3.89742 24
400 1 8.49248 5.53431 3.46228 20
401 1 7.1314 -18.3467 3.46577 10
402 1 -4.66041 -6.45887 -5.63044 20
403 1 9.2276 -1.21354 8.06247 17
404 1 11.1299 7.86685 2.14405 14
405 1 15.4775 -3.77983 5.07715 17
406 1 16.4028 -5.79244 2.54838 17
407 1 13.2308 1.88066 4.27 19
408 1 -0.572878 4.69466 -3.07623 17
409 1 6.65418 -11.1081 -9.89225 20
410 1 4.18394 -5.93695 -15.576 11
411 1 0.813477 -3.56271 9.72268 12
412 1 15.8332 1.22401 3.0484 17
413 1 9.86892 4.60308 -9.69972 13
414 1 12.6469 -7.24653 -12.4739 11
415 1 -1.7909 -18.2268 -1.37925 12
416 1 -2.30229 -6.54652 -7.75453 19
417 1 8.7384 -9.22037 -9.83511 21
418 1 6.61571 -15.6968 -7.82504 13
419 1 8.24932 -10.6387 9.81695 16
420 1 3.16083 -13.6418 4.27417 18
421 1 13.9389 1.01132 -9.82829 14
422 1 -1.94491 5.34633 5.83351 13
423 1 16.91 -10.1243 -7.94978 7
424 1 -8.44718 -2.15007 -0.702656 13
425 1 15.6087 5.92058 3.04052 12
426 1 9.92272 1.86669 8.38416 12
427 1 -5.14782 2.86112 -9.15661 11
428 1 0.244877 -6.61639 -9.57164 20
429 1 17.113 -11.0173 -2.24538 10
430 1 -2.26484 -9.41967 -2.37409 20
431 1 -2.40841 -16.5769 4.05075 14
432 1 18.0447 -5.06763 -0.252727 13
433 1 -7.15908 -0.319671 2.03039 15
434 1 7.42984 2.93671 -10.1353 13
435 1 11.7841 -8.78796 2.56811 19
436 1 -0.631646 -6.36111 8.40664 12
437 1 -2.5085 -5.85846 -11.3434 18
438 1 0.79312 -15.618 5.19323 17
439 1 14.375 -4.38578 8.29557 9
440 1 6.32459 -16.8621 -2.43691 11
441 1 17.3968 -3.88572 -8.20733 11
442 1 -4.4426 3.94734 1.51517 15
443 1 -3.96184 -6.79423 4.17728 19
444 1 0.976238 -6.45906 -6.20693 19
445 1 5.23967 -13.6648 -10.0976 12
446 1 12.9787 6.15299 0.879639 17
447 1 16.3367 -2.41507 -0.999741 21
448 1 2.33257 -12.4698 7.6539 14
449 1 13.1192 5.55199 -5.37845 12
450 1 12.0381 -3.33626 -8.90768 19
451 1 -6.27115 1.71605 -4.36543 10
452 1 6.13123 2.537 -7.11473 19
453 1 10.7556 6.66528 5.21181 15
454 1 7.85876 3.87668 -4.13948 20
455 1 2.13245 -0.415477 9.36464 17
456 1 10.6752 -0.98786 -2.76702 20
457 1 10.0065 -14.4742 2.43352 18
458 1 -1.06796 -5.6609 5.47237 20
459 1 15.2449 2.20802 7.06219 12
460 1 14.0872 -8.17207 -9.89116 14
461 1 3.38785 -6.33657 -8.00655 16
462 1 1.54497 3.72785 -11.9345 13
463 1 0.436296 2.70902 5.07454 20
464 1 2.7939 2.04367 -2.68275 19
465 1 1.05707 -12.3168 0.452282 21
466 1 15.5219 -10.8074 0.933141 15
467 1 7.6457 -5.56988 -16.2977 8
468 1 -4.47621 -11.8933 1.55329 19
469 1 -2.99262 2.50071 -5.86973 20
470 1 14.0996 -6.33161 5.62164 14
471 1 -4.66731 -14.4295 4.87091 11
472 1 13.5009 -6.19905 -2.45921 20
473 1 6.45161 0.292302 -9.87483 20
474 2 -5.20151 1.05989 -9.816 12
475 2 -1.8627 7.619 -4.7156 14
476 2 5.64566 -5.99415 -11.7956 14
477 2 8.68652 2.65829 5.28748 18
478 2 -2.92776 -7.02217 -13.0033 14
479 2 10.0897 -3.04026 8.20072 18
480 2 -4.70929 -4.82943 -2.26529 22
481 2 14.2506 0.0569388 3.09077 17
482 2 6.75989 -1.96098 4.03773 23
483 2 -0.426432 -5.96607 -7.53459 22
484 2 -3.01661 -9.66062 -11.0876 15
485 2 -2.13232 -3.28972 -4.62368 19
486 2 2.94511 -11.9059 3.78742 18
487 2 8.09377 -0.568818 6.45393 19
488 2 12.8633 -7.97164 -8.34402 18
489 2 13.0597 -5.70658 -0.565104 17
490 2 -3.81301 6.17591 -2.57343 14
491 2 15.2882 1.849 4.95005 19
492 2 -7.25997 -7.69045 4.01572 13
493 2 5.66858 -18.5479 -1.30419 9
494 2 15.5001 -6.28883 4.12509 13
495 2 -4.7363 8.79603 2.23394 9
496 2 -1.77686 4.52819 -4.67246 17
497 2 3.0353 1.28867 2.10251 17
498 2 0.655727 2.81605 3.16476 19
499 2 8.27234 -12.6261 -3.58287 15
500 2 0.60739 -3.0476 -9.6566 18
501 2 5.93138 -10.9807 -8.08601 19
502 2 17.3906 -2.94811 -9.80913 9
503 2 4.8287 -14.8517 2.06348 17
504 2 10.4321 6.70859 -2.45807 12
505 2 2.58433 7.72411 4.95721 13
506 2 0.343358 -11.7578 -7.79629 19
507 2 8.88065 -14.2777 8.84704 11
508 2 17.7275 -6.59475 -1.11324 12
509 2 -4.95808 -2.01517 -1.21162 19
510 2 15.724 3.72422 -2.50776 13
511 2 10.6011 -16.6673 2.39631 13
512 2 4.65171 2.8388 6.04711 16
513 2 11.301 -0.139931 1.91179 19
514 2 9.2612 -0.129339 -6.38125 16
515 2 -6.23832 -2.35729 6.24692 9
516 2 12.7233 -1.11577 -13.1609 11
517 2 -6.94921 3.56065 -4.80234 9
518 2 -8.32879 -2.40486 4.28598 11
519 2 -5.47261 -15.491 0.227475 11
520 2 5.86406 -12.1108 2.70661 21
521 2 4.58278 -8.91267 8.93719 15
522 2 4.743 -3.23599 5.14062 20
523 2 -5.99752 3.92127 0.695625 14
524 2 10.2141 -14.2019 -8.66344 13
525 2 16.2411 -4.04621 -4.62457 20
526 2 0.110626 -14.0051 0.825984 19
527 2 14.1536 -6.12605 -10.0536 13
528 2 6.98872 5.07486 7.33545 13
529 2 13.7951 -12.1513 -4.89207 16
530 2 14.698 -4.63855 6.551 16
531 2 -3.95695 -10.1443 1.03459 21
532 2 18.1619 -2.07344 -3.90194 11
533 2 7.49782 -9.37166 -2.72521 19
534 2 16.5031 -9.90829 -0.434571 15
535 2 2.68989 -0.82335 -6.72639 22
536 2 3.83969 -9.12556 -4.45921 18
537 2 -1.13518 -9.85529 -12.9496 12
538 2 -3.23684 -10.0618 3.86235 19
539 2 -3.14329 -13.1867 0.837173 19
540 2 -4.6045 -10.6013 -6.15517 17
541 2 -1.3778 4.7655 -1.4707 14
542 2 5.99719 -1.25491 -8.35741 20
543 2 18.1627 1.09075 -2.63654 10
544 2 7.13033 2.42056 -5.31391 19
545 2 -2.25994 -1.52656 7.5763 11
546 2 -7.37893 7.25156 3.90969 10
547 2 0.340422 -0.107361 8.64893 15
548 2 -7.41303 -0.724183 -1.38995 13
549 2 -3.08235 -1.16149 -5.89586 17
550 2 15.1341 -0.264006 -10.489 12
551 2 17.2566 -9.78173 -3.469 11
552 2 13.4463 0.87852 -0.1509 18
553 2 1.30842 9.07359 2.15865 14
554 2 -2.71847 4.72171 4.13452 16
555 2 2.62519 5.47069 3.0379 16
556 2 13.6296 6.61537 -1.04007 11
557 2 3.79527 4.11457 -2.2748 20
558 2 11.0054 5.69604 -8.73475 13
559 2 6.06821 0.881649 4.62439 18
560 2 1.24789 -2.82696 3.27797 22
561 2 6.09703 -5.61378 5.47359 23
562 2 10.811 -5.03448 -9.07877 18
563 2 5.28619 -1.53644 11.7967 11
564 2 10.6382 0.648463 -13.3539 11
565 2 -3.16909 -15.3964 5.45559 14
566 2 3.50479 -12.3558 -2.80935 20
567 2 4.12027 -8.09317 -8.25162 18
568 2 7.91977 -18.6374 1.81722 9
569 2 15.3253 2.32844 -5.72424 12
570 2 3.55526 -4.05491 -15.8599 9
571 2 3.51895 5.36482 6.94506 12
572 2 -6.25677 -1.76743 -4.54609 15
573 2 9.94048 2.61013 -6.32497 19
574 2 3.18408 6.12105 -4.81865 17
575 2 2.96077 1.47774 8.96583 15
576 2 5.74119 -17.0983 -5.13979 10
577 2 11.7953 -2.29518 6.13308 20
578 2 15.2526 -7.34257 -2.63623 20
579 2 10.6892 -2.72015 3.61444 21
580 2 0.843806 0.247868 -12.9655 14
581 2 9.02616 -12.2232 6.43548 19
582 2 2.70129 -14.3613 7.7592 11
583 2 11.7551 -13.2062 7.26516 15
584 2 0.973116 4.93971 -8.25739 16
585 2 0.186794 -18.7527 -4.19946 10
586 2 -0.45449 -5.69096 -11.1911 20
587 2 3.69416 -13.0275 -9.2539 16
588 2 13.7932 6.60151 2.66919 18
589 2 -6.95668 -9.4354 -4.3071 12
590 2 -6.94003 3.5489 3.74811 13
591 2 13.7115 -7.91723 6.42238 16
592 2 -0.204769 -19.5105 -1.03655 10
593 2 6.867 -4.43254 -9.24653 19
594 2 2.00144 -4.916 -13.1588 15
595 2 -2.60377 -3.65789 -11.2166 16
596 2 0.674683 -5.03716 8.55741 12
597 2 -1.74245 -9.59569 -8.36309 19
598 2 7.93845 -11.3245 -12.6416 11
599 2 11.1123 -4.51313 -5.40266 21
600 2 -1.4225 -10.0202 -0.812862 19
601 2 6.98211 -8.18035 -9.54885 18
602 2 5.44013 -0.896426 -4.94476 19
603 2 1.45601 -14.4991 -3.09075 17
604 2 7.83205 0.292445 -11.9111 15
605 2 8.95154 6.14536 5.45259 14
606 2 17.8616 0.320692 3.24941 12
607 2 -6.44049 -10.0679 3.2752 15
608 2 8.17382 -15.0663 1.7065 18
609 2 3.85516 -3.55407 -11.0856 14
610 2 0.384736 -0.0200275 1.90667 22
611 2 3.03806 -12.2881 0.640634 23
612 2 0.353664 3.74531 8.08304 12
613 2 -1.53466 -3.17169 1.44045 21
614 2 -6.01391 -8.62012 6.25384 14
615 2 2.45559 -17.2842 2.68356 14
616 2 -8.85805 -6.59041 -0.0895803 11
617 2 -3.07394 -17.0503 -0.229017 11
618 2 -4.63399 -12.3239 5.44258 14
619 2 14.7378 -11.553 5.70949 11
620 2 8.43712 6.04082 -7.16129 16
621 2 9.03683 4.68903 -0.501956 21
622 2 15.3895 -0.76308 -4.82996 16
623 2 3.16732 7.10044 -8.46764 11
624 2 -5.09665 -4.46021 -8.76383 16
625 2 -8.19694 -1.73177 0.973312 16
626 2 4.89797 -15.5334 -7.39376 14
627 2 4.49822 -8.37708 5.34603 21
628 2 13.219 -7.60323 2.57943 19
629 2 2.7949 2.87335 -4.38371 17
630 2 12.4703 -2.88878 0.543572 19
631 2 7.50486 -4.4195 7.97152 18
632 2 1.12209 -8.47904 -12.7679 18
633 2 9.14014 0.476021 3.89642 18
634 2 12.5724 5.98098 5.81487 14
635 2 4.27082 -4.85449 10.5846 12
636 2 -3.02734 2.73429 1.82076 13
637 2 13.6786 5.09126 -7.1632 11
638 2 -4.23296 -10.1299 -2.67957 20
639 2 -3.03914 -7.3395 -6.17199 21
640 2 -4.93595 -4.40197 8.27151 10
641 2 8.04399 7.03893 -3.95121 15
642 2 1.97465 -5.67783 -9.02343 17
643 2 13.7936 3.7163 3.40174 24
644 2 15.5765 -10.3859 2.83387 12
645 2 -4.99138 -4.64999 0.712181 19
646 2 2.57607 8.61298 -3.12862 17
647 2 -0.227474 3.80025 -11.3461 12
648 2 9.22812 -6.10295 -10.8752 18
649 2 -3.1973 5.89711 1.24823 17
650 2 7.01755 -8.53118 3.64352 21
651 2 3.98014 5.98099 0.678593 19
652 2 -5.02237 -6.75288 2.69473 19
653 2 12.8896 -8.81705 -0.485721 19
654 2 4.97403 -15.2607 -2.79603 17
655 2 1.61336 3.51118 0.549543 20
656 2 8.51079 -11.1869 3.48358 23
657 2 -4.26431 5.52787 -5.28305 16
658 2 5.64201 -11.8311 -1.21859 17
659 2 10.6382 0.0261689 7.78847 16
660 2 8.36545 -1.81665 -14.0076 13
661 2 4.55835 0.143521 -12.8873 12
662 2 11.3113 -3.03623 -14.8129 9
663 2 1.2988 7.44601 0.187969 19
664 2 -3.54258 -7.67195 7.54702 14
665 2 0.966601 -11.9146 5.92298 23
666 2 0.200863 -10.9665 2.96964 20
667 2 -7.4711 -6.44786 -3.00036 17
668 2 1.69706 -8.57601 4.21959 21
669 2 5.87577 6.80649 -9.32744 8
670 2 13.4338 -14.4248 -1.00649 11
671 2 4.7422 -3.13747 8.6168 21
672 2 -5.03143 -7.83257 -4.23584 20
673 2 8.84677 -4.72168 -14.7671 11
674 2 12.2128 -1.68278 -7.12227 16
675 2 9.59331 3.2852 2.58391 17
676 2 12.7689 -9.68072 -3.13524 20
677 2 -5.09386 -7.41128 -0.634096 22
678 2 0.570042 10.3926 -1.10642 12
679 2 8.55286 -3.32161 5.46382 21
680 2 8.36979 -17.5293 -0.608615 10
681 2 -0.322018 -16.8689 4.19799 12
682 2 0.671505 -3.06418 -6.27802 24
683 2 7.62956 -7.96642 7.19047 22
684 2 12.4378 1.0202 -11.2382 14
685 2 3.65608 9.14298 -0.232699 14
686 2 10.2632 -14.4807 4.511 17
687 2 13.8147 -14.7564 -3.87677 12
688 2 8.92386 -2.59677 -10.5062 16
689 2 10.2444 -9.40906 1.70659 20
690 2 7.37133 -1.3704 9.49218 14
691 2 6.30772 0.651654 1.90414 21
692 2 16.9388 -2.89119 3.95094 15
693 2 6.65286 -3.69434 -16.2749 8
694 2 17.1913 -5.40512 -7.24844 12
695 2 -4.65277 7.7194 -0.438697 13
696 2 9.97083 -8.51381 -8.14037 20
697 2 7.49832 -3.78246 10.8804 13
698 2 -1.79005 5.38265 -7.55472 17
699 2 12.3225 -9.95552 -6.16806 18
700 2 11.6816 7.86057 3.97098 12
701 2 16.3289 4.1596 2.6079 12
702 2 15.6084 1.78088 0.970422 17
703 2 -4.51031 -4.52128 -5.87261 20
704 2 2.15714 2.18748 -7.98916 20
705 2 -2.52189 -0.289368 -8.93471 21
706 2 -2.0029 -6.9572 -2.63448 19
707 2 13.7572 0.901491 -7.69302 16
708 2 -8.20518 5.1572 1.67726 11
709 2 0.447815 -12.7946 8.43732 11
710 2 9.75219 -6.03606 9.76209 14
711 2 8.29148 -16.2708 -6.99549 12
712 2 3.86824 -8.47769 -11.3423 18
713 2 7.12222 6.7158 -0.685368 16
714 2 9.06634 7.15298 1.67579 15
715 2 -6.31807 -7.15206 -6.58486 15
716 2 -1.50136 -14.5219 -1.13523 20
717 2 13.4185 -4.89241 -3.95713 19
718 2 -0.895703 1.72056 -0.386662 15
719 2 7.98965 -17.0849 4.79742 13
720 2 11.8879 -10.6289 3.48416 16
721 2 -0.869741 -8.66067 2.32435 16
722 2 2.69277 -11.1364 -6.35144 21
723 2 4.57508 1.14435 11.0798 7
724 2 9.70618 3.72502 -3.8939 20
725 2 -1.31849 1.84848 4.67914 18
726 2 8.52049 -1.3913 1.41582 21
727 2 -2.41043 -12.8313 7.52432 15
728 2 5.26724 7.42322 -2.63082 16
729 2 2.21533 -19.3255 -2.54899 9
730 2 2.49302 -9.53295 7.29238 14
731 2 13.8147 -2.48653 8.47911 10
732 2 -2.4684 -0.467399 -2.65029 18
733 2 0.309619 10.2936 -4.51041 9
734 2 0.938244 -5.28708 5.1779 21
735 2 2.7841 -10.4059 -9.69223 22
736 2 17.9137 -8.8968 -6.87284 9
737 2 11.6392 -7.16556 -5.89402 23
738 2 4.35082 3.30053 -7.15576 16
739 2 1.8122 -2.74094 6.63658 20
740 2 -5.43285 -1.50357 -6.69813 16
741 2 14.7161 -6.91619 -6.45287 19
742 2 7.51117 0.944274 -2.80616 20
743 2 1.81869 -1.98118 9.95502 14
744 2 3.74271 -6.33772 3.49861 22
745 2 6.30449 -2.29724 -11.5679 17
746 2 -5.44949 4.4615 -7.76648 12
747 2 -0.594925 -7.01079 -14.2371 12
748 2 4.59449 1.31046 -2.33918 19
749 2 -2.87756 -4.07175 -14.0621 11
750 2 9.85892 -8.71668 -11.6475 15
751 2 -3.5376 -13.1095 -4.54198 10
752 2 6.08575 -14.1963 7.0676 14
753 2 -0.280162 -0.50875 -7.49871 20
754 2 7.93279 -4.83442 2.52013 21
755 2 6.15704 2.93704 0.284672 21
756 2 15.2012 -10.37 -7.4384 11
757 2 5.13969 -18.1616 3.14786 11
758 2 12.3589 0.154479 4.95126 20
759 2 0.349334 4.72316 5.58217 19
760 2 -7.14904 -9.53142 -1.20175 14
761 2 13.6307 1.45762 -3.09079 17
762 2 6.96155 -13.9057 4.4909 20
763 2 -1.51494 8.79766 0.604332 15
764 2 10.8111 0.748279 -8.77985 16
765 2 6.01258 -1.12451 -1.22613 19
766 2 -2.77725 -0.470478 0.573143 19
767 2 8.08136 4.61626 -9.34414 12
768 2 -2.1383 -4.25558 -1.1878 20
769 2 14.8561 -6.1148 -12.9355 9
770 2 -1.29209 -3.24537 5.47407 18
771 2 3.45572 -0.615364 6.75299 17
772 2 16.6213 -1.19465 6.27481 12
773 2 17.3528 -4.87183 -12.4232 6
774 2 -9.16309 -4.04411 -4.2596 7
775 2 10.2063 -9.53916 -1.36117 18
776 2 15.9837 -2.47652 -7.53628 15
777 2 -0.166306 2.53653 -5.71415 17
778 2 5.63542 -12.0123 -11.2634 15
779 2 -6.85479 0.0484657 4.03432 13
780 2 -2.51779 -6.53727 0.7352 21
781 2 9.89946 -14.5249 -1.57472 13
782 2 -3.36624 -12.0482 -8.40861 13
783 2 2.84543 -18.9902 0.271559 11
784 2 13.2183 -2.01979 -3.03726 20
785 2 2.64499 2.39312 -12.0838 12
786 2 4.49007 3.20287 2.96947 17
787 2 2.57097 -16.6478 -5.3144 14
788 2 12.3419 -5.42364 4.35916 21
789 2 1.62903 1.56363 6.22809 17
790 2 0.513757 -0.733965 -4.34493 20
791 2 -0.86555 2.73636 -8.64241 20
792 2 6.85994 -14.1582 -8.98433 16
793 2 -5.54225 -15.5874 3.80249 7
794 2 -7.19335 5.18256 -1.7637 9
795 2 12.634 3.54385 -9.55237 11
796 2 7.32203 1.86064 -8.30518 19
797 2 8.9605 1.74582 0.0587837 19
798 2 1.60601 -11.9342 -11.4784 12
799 2 8.74481 -12.5989 -6.53079 19
800 2 -5.05772 -1.55567 -9.43183 13
801 2 15.6642 5.64419 5.42511 11
802 2 0.458564 -2.92714 -14.76 11
803 2 -6.17335 -11.9903 0.813436 13
804 2 14.2677 -2.45384 4.31644 18
805 2 13.7052 3.48668 6.94791 13
806 2 14.4716 -3.5374 -12.6855 12
807 2 5.98152 2.63667 -11.3351 13
808 2 0.627178 7.53302 -6.08605 13
809 2 19.6703 0.327402 0.0155729 8
810 2 -1.99008 -3.67339 -7.97827 19
811 2 11.2921 6.0902 -5.28226 14
812 2 5.83493 -6.41333 8.88559 16
813 2 0.613229 -8.55793 -9.94576 24
814 2 0.973658 -8.93653 -2.684 19
815 2 12.7734 -5.45109 8.63724 12
816 2 0.220839 6.30017 2.39934 16
817 2 16.3072 -7.54787 1.65359 14
818 2 10.9821 -11.4027 -10.7481 13
819 2 5.47549 3.60002 9.24096 11
820 2 9.62854 -9.29491 5.63217 20
821 2 4.82525 1.11864 -6.23149 16
822 2 5.89179 6.97399 5.01124 13
823 2 -3.60194 2.70326 -7.66212 18
824 2 6.04364 4.94878 -4.66428 21
825 2 -4.42052 -8.98026 -8.21173 14
826 2 13.0278 -8.70765 -11.285 12
827 2 -4.6371 2.05983 5.55806 12
828 2 17.4459 -6.84741 -4.88379 12
829 2 3.23854 4.61193 -10.2246 14
830 2 -4.20839 -3.06664 3.84951 15
831 2 -0.784066 -15.3454 -4.70751 15
832 2 10.172 3.65342 7.44762 15
833 2 -0.889732 -11.7327 -10.2573 15
834 2 -2.41039 1.46277 -11.9721 15
835 2 3.56486 -3.02993 -8.07383 20
836 2 5.97501 -6.30209 -15.2933 12
837 2 -4.95657 5.37824 4.51365 14
838 2 -2.78014 4.28648 7.15636 11
839 2 5.69887 7.35144 -6.03141 13
840 2 -1.92478 -17.5887 -3.36674 10
841 2 11.4141 -6.41503 -13.5166 10
842 2 13.4121 -4.4131 -7.59745 18
843 2 -2.64289 -15.8097 2.35565 18
844 2 -4.49992 1.67288 -4.75623 14
845 2 -1.60053 -13.1011 3.69785 22
846 2 4.16784 -0.0485278 -10.2562 17
847 2 9.44841 -9.16152 -5.15796 21
848 2 10.1844 -16.0636 6.95949 11
849 2 14.2857 0.655281 7.08808 13
850 2 12.7417 -10.6184 6.69768 13
851 2 -0.390822 -7.46782 6.82031 16
852 2 9.48342 2.5356 -10.4635 16
853 2 8.20926 1.74796 9.20742 11
854 2 1.56984 -8.3435 -6.75077 22
855 2 -4.52639 -13.1599 -1.36218 16
856 2 1.38482 -14.3956 3.51141 21
857 2 -5.63349 -1.5492 1.90102 19
858 2 1.11561 0.366344 -9.96949 20
859 2 -7.42834 -3.68671 -6.76816 11
860 2 -1.12991 7.73219 -2.06154 19
861 2 9.51671 -7.14578 3.53222 19
862 2 10.7418 5.71443 2.76479 21
863 2 -0.0308908 -17.1776 1.09806 17
864 2 -8.47504 -9.1996 1.76319 9
865 2 -7.67693 -4.68352 1.58028 15
866 2 3.36651 -5.8399 6.83944 21
867 2 7.84591 -8.88187 9.9387 15
868 2 4.20965 -15.1684 5.01562 14
869 2 15.3875 -1.82633 0.66493 21
870 2 5.6553 -12.6293 -4.96274 18