ITEM: TIMESTEP
28000
ITEM: NUMBER OF ATOMS
2000
ITEM: BOX BOUNDS pp pp pp
-30.0 30.0
-30.0 30.0
-30.0 30.0
ITEM: ATOMS id type x y z Coordination
1 1 -7.93659 6.35829 -12.8737 9
2 1 2.46601 -9.45861 -11.341 20
3 1 10.4841 12.1188 10.0631 12
4 1 11.6381 -11.2077 6.04067 14
5 1 -7.48842 5.07882 -2.61285 19
6 1 16.2027 -8.35417 -12.2742 12
7 1 -7.78596 3.46599 -6.13022 21
8 1 -2.0443 -8.27846 11.4795 8
9 1 -7.51375 0.0100925 -10.838 19
10 1 -11.3164 -9.41465 -0.79115 11
11 1 21.0086 4.67037 -11.6395 6
12 1 0.162942 1.50318 -7.67275 24
13 1 2.80185 -15.2382 -0.684847 22
14 1 -12.3762 -6.23963 -1.51682 13
15 1 3.01044 3.46744 15.5138 15
16 1 10.1739 -4.67726 2.70263 18
17 1 7.46501 4.5844 8.93852 15
18 1 14.3229 -2.09404 -1.69095 18
19 1 3.03619 9.84151 -10.9862 17
20 1 8.32132 -2.56287 13.7743 13
21 1 -4.17102 -0.984304 -15.1032 16
22 1 -9.77355 -1.97511 5.97773 17
23 1 18.088 6.05765 4.37748 20
24 1 6.6008 10.862 -13.9512 21
25 1 5.92854 2.56966 -13.6147 19
26 1 17.3042 2.12974 9.48247 14
27 1 -4.39629 -0.806186 -2.2966 20
28 1 -7.85423 4.89695 -8.76619 18
29 1 -1.05294 -0.48077 -10.2957 21
30 1 -6.0781 8.79812 8.54825 16
31 1 11.7659 -13.1464 3.55271 15
32 1 3.89393 -0.422677 5.24472 21
33 1 8.26651 -12.5488 -12.8326 18
34 1 15.3498 -12.6436 -0.615755 10
35 1 -1.86492 -14.8795 -7.36551 13
36 1 -9.57294 -5.91563 6.5521 14
37 1 8.76499 -3.35811 -6.08226 22
38 1 7.52397 -5.50836 -12.1507 19
39 1 13.1366 -8.14439 -14.7547 18
40 1 -0.0927793 6.00862 -18.7584 11
41 1 5.88527 2.77696 14.5013 18
42 1 4.19751 -15.2623 5.1218 18
43 1 9.55834 -5.28317 7.26244 17
44 1 -8.81137 -3.06082 -1.00643 20
45 1 -13.1889 -5.27585 1.73291 12
46 1 -4.79873 -2.39443 -4.73233 22
47 1 1.39265 13.2368 -2.99558 18
48 1 3.98706 -15.3771 -9.83216 11
49 1 6.41687 0.532399 -11.295 20
50 1 10.5991 -5.61373 -16.2825 22
51 1 2.41241 -4.25021 13.4426 10
52 1 -10.5108 4.29864 -3.83009 15
53 1 10.2104 11.522 -14.3791 15
54 1 7.18792 13.5332 5.61708 22
55 1 -4.69123 8.56408 -6.70551 19
56 1 3.75045 14.762 -1.64518 15
57 1 6.06906 -9.97133 3.0047 18
58 1 10.4211 -3.36034 -8.4398 24
59 1 11.3231 -5.18947 -19.8548 14
60 1 -3.49583 6.86054 10.6285 16
61 1 -10.9426 -2.2976 -9.30919 9
62 1 9.47724 1.57223 3.62911 20
63 1 -5.62765 5.83256 -5.61639 20
64 1 -3.19751 -9.5929 2.54661 21
65 1 1.04994 11.3995 12.7116 10
66 1 -6.31698 7.51708 -8.58191 20
67 1 -1.20682 9.07033 11.5154 18
68 1 3.64644 5.36622 -5.66947 20
69 1 8.52019 4.80516 4.76887 22
70 1 -4.14786 -11.83 4.88082 20
71 1 8.1027 7.23882 6.77377 22
72 1 10.876 -17.3505 -2.05089 12
73 1 7.00399 8.26352 12.1194 20
74 1 -9.13106 1.96752 -9.27053 17
75 1 -8.06248 2.77141 -11.9217 15
76 1 5.75211 5.35663 12.7425 20
77 1 17.716 -1.76805 -12.8037 11
78 1 12.7384 -10.9774 1.2893 16
79 1 -14.0131 0.0812953 2.41448 10
80 1 -4.16343 -3.09499 -0.218741 22
81 1 11.9249 15.2176 2.46782 15
82 1 7.02268 -7.19596 7.40562 18
83 1 0.215497 -9.19697 4.49415 18
84 1 -7.89524 -1.27667 -3.29602 19
85 1 11.2195 0.857978 8.67284 22
86 1 12.1085 -1.3696 -3.69118 19
87 1 6.07024 16.0633 8.40062 13
88 1 7.16427 -0.262728 5.21494 21
89 1 -3.0551 -9.19114 -3.18204 18
90 1 -0.79027 -3.55789 -11.989 21
91 1 -7.62568 5.67076 9.89331 13
92 1 -4.65588 13.4969 -4.00787 11
93 1 0.435191 6.82089 -10.6019 19
94 1 6.29016 1.43681 -8.29422 25
95 1 8.18558 -0.733716 -8.22488 25
96 1 12.9665 10.5973 -10.8486 12
97 1 15.3976 -8.89765 4.52495 11
98 1 9.83611 -7.50395 9.13092 13
99 1 -1.77945 13.5544 -3.63879 12
100 1 -6.23313 11.3414 4.12441 13
101 1 0.918117 -6.12859 10.2018 17
102 1 2.2419 10.9202 2.77524 20
103 1 -1.19481 -2.73852 5.69228 21
104 1 15.6483 -7.73542 -6.75263 15
105 1 -3.92455 5.45237 2.85364 17
106 1 -4.3048 -14.1923 -1.49655 16
107 1 14.6167 -6.18595 -10.8425 20
108 1 7.73009 -0.618733 -13.2947 21
109 1 0.494315 -3.37866 -17.6427 19
110 1 9.3491 -1.43162 2.62122 23
111 1 4.85522 11.2183 -0.90511 20
112 1 -4.37633 4.95954 -8.53629 18
113 1 4.74919 7.7834 15.269 13
114 1 3.6688 11.2893 -5.78844 20
115 1 -9.59523 8.95501 -0.271096 14
116 1 6.05129 8.36714 -0.258311 21
117 1 -3.96629 -8.93637 5.39574 19
118 1 19.844 2.49193 7.04038 13
119 1 1.92807 -6.22507 -11.4798 20
120 1 11.9862 -8.58871 -11.6323 23
121 1 2.23773 4.57733 2.43014 24
122 1 9.98943 -0.640642 10.7955 20
123 1 -9.74292 -6.60227 -2.25152 18
124 1 12.0672 -2.9626 0.745475 20
125 1 -0.711291 -7.12038 -8.72205 19
126 1 16.1771 -9.72251 0.809652 14
127 1 1.21041 7.72771 2.71498 22
128 1 12.5377 0.877294 -13.8693 18
129 1 12.6622 13.6078 -7.31902 12
130 1 -7.30459 -10.4782 9.5016 10
131 1 -7.82467 -7.51056 8.71415 15
132 1 0.753531 5.79336 0.0609185 21
133 1 10.1322 -7.8872 -18.9411 12
134 1 10.5337 5.31507 -10.3977 19
135 1 16.2729 -8.47451 -1.78727 18
136 1 1.86645 -18.0274 4.29825 8
137 1 -2.09868 -12.1481 -0.332181 15
138 1 20.2008 7.20178 6.88147 12
139 1 20.0487 -4.20353 -8.63447 12
140 1 -14.0282 -4.11877 -1.50391 8
141 1 18.6318 11.0596 2.46 14
142 1 17.3932 9.22025 5.31282 19
143 1 -2.02084 -0.0196892 14.1876 11
144 1 14.6912 3.22891 -2.97544 18
145 1 4.57629 10.082 10.2234 21
146 1 -2.09818 13.8748 -6.54962 12
147 1 2.17418 -6.41543 -16.377 22
148 1 15.1024 -10.9766 -11.263 10
149 1 8.6903 14.2155 -14.3789 10
150 1 11.4219 -2.59324 8.054 18
151 1 6.97333 -2.1286 -20.9934 11
152 1 -2.37929 8.86435 -4.04561 16
153 1 17.7884 -2.25134 -7.00811 21
154 1 -7.31078 8.16512 -4.88917 17
155 1 -7.44997 13.7365 -2.05443 9
156 1 16.1548 1.74631 -10.7165 18
157 1 11.645 -9.28472 3.44261 17
158 1 2.04756 4.74504 -7.75482 24
159 1 3.14444 15.2879 9.05238 11
160 1 15.9423 9.05054 -10.9991 11
161 1 8.53405 8.93042 -5.50174 24
162 1 2.89751 16.201 1.72843 15
163 1 12.8497 8.16995 -5.20973 21
164 1 -1.96756 10.4904 -6.79696 19
165 1 5.51175 14.7364 -13.1078 10
166 1 7.83976 11.9752 -16.7945 11
167 1 -8.8473 -10.5513 1.38178 19
168 1 -10.8158 6.44224 -1.32969 15
169 1 -1.14628 -6.01679 -16.4299 22
170 1 4.79061 -7.82255 -16.3327 15
171 1 10.0979 13.0087 6.99094 20
172 1 6.79178 17.2402 5.31209 11
173 1 -7.28979 -8.31311 -7.03595 15
174 1 -7.46472 11.5175 0.894409 16
175 1 19.7823 -1.34649 -3.73149 15
176 1 -6.53825 0.919905 -14.0858 11
177 1 11.2385 1.65678 15.06 14
178 1 11.0412 16.9355 0.00570596 14
179 1 -1.04255 10.8439 7.42576 15
180 1 8.3477 -11.627 -16.214 14
181 1 2.30836 12.5856 10.5222 16
182 1 0.242086 9.67354 -9.79492 18
183 1 8.14229 -4.72596 11.2152 12
184 1 -1.36826 -6.92793 2.61004 20
185 1 2.80691 -11.5728 -15.2271 12
186 1 -2.81904 10.4741 -11.8153 15
187 1 0.75811 -13.3879 1.3233 21
188 1 11.2201 -14.6561 -4.35508 16
189 1 -0.0368545 5.36307 -13.0112 20
190 1 -10.407 1.6887 7.66375 13
191 1 3.91526 7.43173 -2.52339 22
192 1 16.5519 7.27508 -5.52154 25
193 1 -4.95963 1.29705 11.1299 18
194 1 4.22039 -12.5665 7.37166 13
195 1 -9.0922 3.96795 -0.834986 18
196 1 5.86209 15.3432 0.572598 16
197 1 1.57666 7.07403 7.87642 17
198 1 16.147 4.26557 13.448 9
199 1 -0.235441 12.7028 4.87143 17
200 1 15.7207 -5.44422 -13.8036 13
201 1 -1.04534 12.0401 10.2972 14
202 1 -1.76221 0.9276 -12.3155 21
203 1 14.4354 -4.62094 0.554169 20
204 1 0.401662 -5.71895 5.04491 16
205 1 -12.2906 -0.259702 5.0539 15
206 1 -5.01287 -11.1388 0.0671197 19
207 1 10.194 7.53235 12.823 13
208 1 -12.073 1.44456 -4.10733 14
209 1 1.81465 -17.7226 -2.5809 11
210 1 -2.34867 -3.80561 -2.6072 20
211 1 9.89247 -8.20809 -4.69293 19
212 1 1.44065 11.8894 0.178907 19
213 1 -2.63628 -0.112573 0.109834 21
214 1 9.99948 12.5134 3.3786 22
215 1 -0.741217 -3.02929 -5.38903 21
216 1 -2.44162 12.0296 -9.26074 16
217 1 -10.9385 -3.74782 -6.70367 15
218 1 -3.58625 -3.85071 11.4429 15
219 1 4.65823 -12.4606 4.24365 18
220 1 9.40847 -14.4067 4.87298 12
221 1 -8.84641 9.38123 3.08507 16
222 1 19.7698 3.74993 2.36455 17
223 1 11.1409 2.23191 -6.92213 21
224 1 -1.60891 -8.44115 -17.9424 11
225 1 10.6635 2.78026 6.91446 21
226 1 11.2855 -16.7615 3.05029 12
227 1 1.90054 7.80187 -13.5238 19
228 1 7.44452 -9.57511 -13.5198 19
229 1 14.5679 0.217033 -16.5709 13
230 1 5.40844 3.32922 -18.4007 17
231 1 -4.59548 -0.651722 -10.324 22
232 1 0.38058 14.1015 -9.46033 13
233 1 -5.34012 -5.24658 7.75499 20
234 1 10.8798 9.61919 -3.64203 21
235 1 -5.16688 -1.23922 13.4097 11
236 1 -1.38054 13.383 -0.486359 15
237 1 14.1009 2.37663 3.11666 19
238 1 -0.421795 -5.17989 -19.4559 13
239 1 -2.34908 8.19536 -9.14802 18
240 1 4.781 6.62831 -10.2915 19
241 1 -5.3492 -8.28654 -0.0324405 19
242 1 -4.07727 2.34567 6.53395 21
243 1 -0.35043 9.62866 4.56197 19
244 1 6.22065 -13.6561 -8.36989 20
245 1 -0.385296 -15.4836 -1.95119 18
246 1 16.7153 -12.1999 -4.05001 9
247 1 8.1145 -7.94031 -2.12614 21
248 1 16.244 7.04236 12.5986 12
249 1 10.4626 9.86239 -16.6744 12
250 1 2.56186 10.517 -2.70734 21
251 1 -7.51692 0.958402 2.08925 17
252 1 -7.22972 11.7293 -4.65099 16
253 1 4.78897 3.311 9.92893 18
254 1 9.41508 -18.04 0.398039 15
255 1 16.55 0.714479 -7.46713 21
256 1 5.85016 8.24406 4.99738 20
257 1 -9.55138 7.90253 8.39569 13
258 1 -4.81842 -9.57274 -5.13116 18
259 1 10.857 3.20373 -15.4826 17
260 1 9.92892 -0.947418 6.32138 19
261 1 10.4734 8.61652 -10.5507 22
262 1 8.11818 -10.7167 -5.61534 18
263 1 4.71527 -4.87308 -10.791 22
264 1 5.34044 -18.5036 4.99524 9
265 1 12.6184 1.95818 -10.6651 20
266 1 -6.51167 -3.90412 1.16561 17
267 1 8.49998 -15.8247 -4.082 18
268 1 -3.42074 -6.48734 -10.136 18
269 1 9.66153 12.1172 -6.21586 22
270 1 6.94578 -4.75895 -15.5866 18
271 1 8.7463 1.81534 15.8754 16
272 1 19.8478 7.03786 -4.76246 19
273 1 0.0822868 -6.4031 -0.33976 19
274 1 15.1058 -3.65214 -11.4646 21
275 1 2.14272 -9.30861 -0.370413 21
276 1 -0.329639 -6.85909 -13.7157 21
277 1 -6.31581 1.75503 -8.68107 24
278 1 -4.56836 -12.2865 8.64795 13
279 1 11.8068 2.66322 11.6294 17
280 1 4.84308 -5.58209 5.41867 20
281 1 0.700366 -10.6579 -13.1912 20
282 1 7.50591 -6.53713 4.78069 18
283 1 5.74818 9.66264 -17.076 16
284 1 8.95853 7.84318 0.413787 19
285 1 -1.90624 -12.2885 -3.37686 20
286 1 7.07122 12.7524 3.04359 21
287 1 -2.88931 0.00983885 5.18306 19
288 1 -4.67377 -10.1036 -12.7253 9
289 1 -3.40597 -4.92904 -13.7122 22
290 1 3.96588 7.18309 -15.803 22
291 1 -3.66014 -9.70728 -9.79141 18
292 1 -2.2882 -8.80657 -0.278415 19
293 1 14.6001 -5.04289 -20.2845 5
294 1 18.3389 -1.46449 -9.77401 17
295 1 15.1294 2.33254 6.56304 19
296 1 3.59316 -5.90366 -5.47169 22
297 1 -2.66184 -5.50096 6.00273 21
298 1 -0.0876686 -9.47335 -3.36228 18
299 1 10.9717 5.67715 15.424 11
300 1 -3.772 -14.7367 4.4121 15
301 1 5.31568 4.79224 -8.31548 21
302 1 3.75373 -11.8663 -0.747843 24
303 1 10.0224 16.1569 -2.83577 15
304 1 12.5149 -0.039701 -18.8446 13
305 1 -3.2431 -3.49978 -17.5177 16
306 1 6.82266 -6.38127 -0.0544912 19
307 1 -6.73947 -8.35934 11.9669 9
308 1 4.77802 5.61355 17.4988 11
309 1 8.79891 -12.8323 -3.30988 24
310 1 1.04187 -13.6742 -12.3713 10
311 1 -5.71458 4.33829 -10.976 17
312 1 15.3747 6.37249 -0.108078 22
313 1 0.751812 -0.914583 -13.2399 21
314 1 5.1436 8.54495 -12.8981 19
315 1 -0.965408 -0.935466 2.63863 21
316 1 11.444 -12.0882 -11.4368 15
317 1 0.59904 14.9579 -0.721767 13
318 1 8.58386 9.50181 3.95015 26
319 1 11.1676 2.02038 1.23199 19
320 1 -6.06366 -0.0121312 4.73823 19
321 1 3.75282 -8.31845 10.9377 11
322 1 -1.22802 11.2063 1.90744 19
323 1 9.16828 -3.02899 -15.4448 19
324 1 16.961 11.1062 -6.00836 13
325 1 7.86608 -11.1596 -0.734722 20
326 1 4.84438 -1.69615 14.1044 17
327 1 -11.2953 -2.74319 2.85319 18
328 1 6.19819 -13.6972 -5.36668 22
329 1 -4.61226 4.17209 11.9136 15
330 1 -6.82111 1.31892 7.57952 17
331 1 -11.9663 -6.6664 5.13633 11
332 1 -9.67375 -9.17999 4.62887 16
333 1 15.3577 -4.78462 -6.01858 18
334 1 -7.96928 -7.28716 2.18754 19
335 1 11.937 -0.392665 -8.46829 21
336 1 16.9172 -10.8149 -6.34121 11
337 1 10.3087 16.6363 -6.74751 9
338 1 0.61844 -4.53312 2.27413 19
339 1 -7.7598 10.2336 -7.63253 15
340 1 1.18337 1.63527 7.27532 20
341 1 18.1904 6.38035 10.4019 12
342 1 -8.01673 -1.73097 3.66526 16
343 1 14.3177 -10.2204 -4.17966 22
344 1 -2.56287 6.41972 0.341516 19
345 1 -2.38669 8.33941 2.49174 18
346 1 7.06027 -12.8116 7.23705 12
347 1 18.093 -4.99603 3.54087 9
348 1 -2.09215 5.03939 8.06791 21
349 1 1.18406 -5.15468 -6.72394 21
350 1 1.48577 -0.858618 13.1415 17
351 1 4.35494 12.9682 1.62828 22
352 1 12.0514 6.9851 9.73763 16
353 1 -4.72036 12.0485 -6.67111 15
354 1 7.84913 -6.20177 -20.5184 11
355 1 -2.69221 0.174729 -4.95529 23
356 1 11.4207 -10.0337 -16.4138 11
357 1 -3.30569 8.38894 6.5579 18
358 1 -14.2504 2.4438 3.96667 11
359 1 0.148732 -3.57119 -8.73162 21
360 1 0.626894 8.08223 -2.65164 21
361 1 12.0355 -5.21587 4.93974 16
362 1 -9.68711 -11.6688 -1.93042 13
363 1 8.7747 -9.20243 5.41987 15
364 1 -4.56999 -8.63315 8.55608 18
365 1 -9.73449 6.76841 1.93672 16
366 1 3.89375 -6.92816 8.1021 18
367 1 8.61662 -12.2107 -8.87929 19
368 1 0.858858 -3.84597 -14.4657 20
369 1 11.3912 -2.96723 -17.3879 19
370 1 9.2564 14.0766 0.528428 22
371 1 -8.46217 0.34598 -6.15905 18
372 1 8.88071 -9.58541 -11.0191 21
373 1 14.677 2.79811 -13.412 15
374 1 1.2537 -16.2483 -7.88153 12
375 1 -10.7283 -5.9602 -8.80442 9
376 1 1.99454 -7.17267 -2.48075 20
377 1 13.467 6.51521 13.6 12
378 1 14.2864 1.30873 -4.97779 19
379 1 -4.25175 4.91597 -13.5157 13
380 1 11.88 15.2093 -4.91414 13
381 1 -12.0162 -1.14487 -5.27859 13
382 1 -5.91408 8.44327 4.90736 19
383 1 -4.26212 8.82215 -0.547114 18
384 1 -1.24551 6.74066 5.41436 21
385 1 10.3808 5.53542 7.42135 23
386 1 16.3981 -1.76381 -4.7287 17
387 1 12.8752 -1.5594 10.2623 16
388 1 14.0867 2.07801 -8.17173 19
389 1 0.208823 -16.4804 -5.17143 14
390 1 2.39605 3.17961 4.84845 22
391 1 -1.12805 4.48503 -2.35113 21
392 1 4.84513 -9.01862 -5.73239 21
393 1 5.46825 9.87133 2.39757 23
394 1 -5.02326 -0.413332 -7.15936 20
395 1 10.7649 -10.0928 -2.39492 19
396 1 17.6781 0.161829 6.358 17
397 1 -8.12657 -5.51479 -8.03148 19
398 1 -1.34903 -12.8943 4.16154 18
399 1 0.106829 -9.63464 9.596 14
400 1 -0.134571 10.5573 -4.47654 19
401 1 -10.2652 -6.97702 -5.55563 13
402 1 9.73186 9.01374 9.84041 20
403 1 -5.23097 3.77469 -3.31105 19
404 1 5.679 9.96027 -8.66041 23
405 1 12.4868 11.8223 1.07503 23
406 1 -8.34374 -9.81233 -4.36741 16
407 1 0.669671 -10.4323 -8.44757 19
408 1 -10.869 0.410533 1.50126 16
409 1 -9.29464 7.18454 -7.19792 12
410 1 15.8435 -7.13905 2.1058 14
411 1 0.914976 -12.4178 -1.52617 20
412 1 15.286 13.9787 6.445 14
413 1 7.57264 4.30386 -16.2101 19
414 1 -4.60826 1.99981 -11.6302 21
415 1 2.69302 14.0357 -11.7117 12
416 1 -5.93722 0.9202 -4.02888 22
417 1 3.55043 -13.8442 2.26611 23
418 1 20.0227 8.86797 0.582656 15
419 1 6.12191 6.51083 -18.2834 12
420 1 0.827405 -0.194604 5.57204 22
421 1 -14.2039 2.35508 0.317363 13
422 1 -4.15602 5.44606 6.21292 22
423 1 1.45916 -12.6308 5.18227 21
424 1 4.794 -6.23274 -8.02053 21
425 1 9.63338 -7.18624 -13.3721 18
426 1 2.39746 -3.03255 5.56788 19
427 1 -9.02163 3.24357 3.03027 18
428 1 -12.2675 -3.72862 5.46348 9
429 1 -9.93625 5.57736 6.53756 15
430 1 5.35746 -7.3006 2.55272 21
431 1 -2.87033 1.73442 -15.1138 16
432 1 12.6192 -8.54955 -6.20607 18
433 1 5.86818 -11.1681 -10.8724 20
434 1 1.19953 -4.25051 7.84322 17
435 1 6.84332 -6.54887 -5.96454 21
436 1 2.59103 2.29069 -17.748 20
437 1 10.9864 -8.76074 -0.0264992 21
438 1 5.37907 8.14282 -6.40189 22
439 1 -8.6535 9.95834 6.3068 14
440 1 0.212784 0.349152 10.5735 21
441 1 -5.56895 -6.95462 -13.0288 16
442 1 -4.25209 -6.51694 3.53826 16
443 1 12.7322 -5.48255 8.52587 14
444 1 8.43198 2.09269 -5.71108 24
445 1 -0.59751 5.08044 2.8868 21
446 1 7.22174 -2.32743 -10.0125 23
447 1 13.2418 -7.90813 5.92116 16
448 1 19.6966 9.47717 -6.56402 11
449 1 0.735243 2.79575 11.6985 20
450 1 8.3416 11.8859 -3.58667 17
451 1 12.4245 -6.42158 2.56956 19
452 1 3.34721 -17.882 -5.63855 11
453 1 -2.46156 2.98485 13.3395 14
454 1 4.74747 15.1045 4.00416 16
455 1 -3.67162 -12.7447 -9.13864 10
456 1 13.7746 13.7725 -3.12295 13
457 1 13.3439 8.05472 7.15056 17
458 1 -4.56064 0.0224631 8.48796 21
459 1 1.69055 -8.72725 -6.04049 20
460 1 -10.5121 1.52215 10.2327 10
461 1 -4.15021 -7.01172 -7.11635 21
462 1 -0.22628 14.3269 7.54636 12
463 1 -2.40046 -11.3989 -6.55794 16
464 1 0.515077 -8.25961 -19.7331 10
465 1 0.986983 -15.3109 3.70431 18
466 1 -2.85397 -3.61496 2.8679 19
467 1 12.7612 0.176459 5.55208 18
468 1 -1.94432 -4.99415 9.1103 16
469 1 -1.8023 5.4437 -15.4122 16
470 1 10.4433 5.06834 -1.04049 19
471 1 -2.79401 -15.3833 -4.1722 15
472 1 4.02237 3.17412 -10.6802 22
473 1 6.25445 16.288 -3.2164 11
474 1 -1.27857 4.4959 -7.70024 20
475 1 2.9833 8.81275 5.04614 22
476 1 -11.36 -3.51755 -3.32396 17
477 1 4.8273 14.895 -6.07075 12
478 1 8.59682 10.2523 -8.71215 19
479 1 -2.34006 -8.72905 -13.2932 18
480 1 6.82637 -0.775491 16.2484 13
481 1 6.05392 -13.878 -11.2757 14
482 1 4.49117 -5.33904 -13.7208 21
483 1 11.8889 -14.5694 0.50977 18
484 1 -6.24275 8.97708 1.85874 20
485 1 8.8759 5.80844 10.7597 19
486 1 13.9147 6.3521 -3.24085 21
487 1 7.63691 7.48637 -3.21726 18
488 1 -2.07875 7.15889 -12.3997 17
489 1 7.29138 4.02558 -10.9923 22
490 1 5.15288 -9.04858 -0.602474 23
491 1 -11.4275 -9.407 -3.73144 11
492 1 9.64089 15.2329 4.2243 18
493 1 -0.234373 2.46834 -13.9637 21
494 1 23.1243 5.02769 -4.61366 7
495 1 11.0276 12.3499 -9.40247 19
496 1 11.658 -7.28476 -2.63874 21
497 1 21.2658 3.06606 -7.07876 12
498 1 4.2661 -0.858836 -13.3409 21
499 1 6.16407 -10.7772 -3.08905 21
500 1 6.08051 -12.0763 1.13682 20
501 1 7.20408 -10.0162 8.37734 14
502 1 -3.09007 1.87872 -8.89623 20
503 1 -8.91948 -13.8874 0.482008 8
504 1 3.95512 -12.4364 -12.1641 19
505 1 13.1833 13.5732 8.61038 12
506 1 2.33206 1.74346 -13.7114 20
507 1 3.27577 0.357358 16.1171 14
508 1 -9.31124 -1.82388 9.31521 11
509 1 4.48705 -17.2044 -0.614898 16
510 1 -10.5757 -0.374106 -2.30134 19
511 1 18.4242 -5.79992 -6.12022 13
512 1 17.4635 1.24588 -3.77833 20
513 1 -2.81389 5.38969 -4.76627 18
514 1 6.80913 -8.95114 -8.09524 23
515 1 8.99692 4.85036 -13.8842 16
516 1 13.6013 -3.65686 -8.60729 18
517 1 -0.199173 -3.20136 11.0056 18
518 1 13.3421 11.0337 -1.87911 23
519 1 3.32992 -3.0913 -15.959 18
520 1 10.1492 1.43056 -20.1583 9
521 1 -4.58039 -1.19215 2.74354 20
522 1 1.15896 13.6721 2.3517 18
523 1 -1.29003 -2.48947 -15.5658 19
524 1 -11.6023 2.24634 -1.08635 19
525 1 5.27942 -10.9702 -17.4066 11
526 1 -6.23176 -9.49172 2.97942 21
527 1 2.73248 7.95319 -8.26347 17
528 1 15.7717 5.5287 7.22009 18
529 1 19.2976 3.91873 -3.03922 18
530 1 -5.91505 -11.32 -3.22583 18
531 1 3.14395 -10.2114 -3.56273 21
532 1 4.27438 -7.87837 -19.3647 13
533 1 -3.82926 10.1275 9.74608 14
534 1 5.08868 -8.01033 -11.015 23
535 1 7.16421 5.62504 -0.661103 20
536 1 17.8635 0.960091 2.05696 21
537 1 7.1745 12.7175 -9.02237 21
538 1 8.85467 -7.50026 1.79456 17
539 1 18.3831 6.40677 -10.7946 14
540 1 7.40328 8.93858 9.16012 24
541 1 -7.61132 3.53382 6.23902 19
542 1 13.1553 8.53128 2.91638 21
543 1 11.0168 -1.34803 13.5457 14
544 1 6.35448 0.979689 -16.1231 23
545 1 -0.877383 -9.15849 -11.1997 16
546 1 5.62602 -2.06529 10.8533 18
547 1 15.5895 10.9735 3.01184 24
548 1 12.1026 4.14357 -12.779 20
549 1 -4.76216 10.0996 -4.03438 21
550 1 5.00279 13.349 -3.49204 19
551 1 14.8937 -3.81743 8.93921 12
552 1 15.1618 -0.0248374 -13.1759 16
553 1 18.9013 -9.8178 -3.56124 9
554 1 18.0498 12.6599 8.54204 9
555 1 -7.85837 -9.26123 -0.897791 17
556 1 0.146626 11.857 -11.3639 15
557 1 2.77457 -2.02504 11.1493 21
558 1 -6.29256 -4.90514 12.0526 11
559 1 2.88835 11.9762 -8.64728 18
560 1 12.4687 -12.7292 -2.31226 21
561 1 12.6292 -2.03743 -11.7221 18
562 1 0.767301 13.1274 -6.27196 14
563 1 -3.62987 -5.91656 -18.5268 10
564 1 9.32791 -15.3029 2.01579 19
565 1 -4.19787 -6.44872 -2.67382 19
566 1 4.79588 12.707 -15.4876 12
567 1 -2.51755 1.71149 -2.11218 24
568 1 3.97586 7.76847 12.5827 18
569 1 -7.1059 -7.11207 5.39177 19
570 1 8.69696 4.18413 -3.09604 23
571 1 10.238 -8.9911 -8.36008 20
572 1 6.78625 -7.76926 10.7052 16
573 1 13.8595 -1.65834 -6.51177 17
574 1 -6.10258 6.44312 -0.109436 18
575 1 5.71475 2.18852 17.2829 11
576 1 9.72147 14.9223 -8.84672 14
577 1 16.6712 -4.31333 -8.5383 20
578 1 4.8732 7.99958 7.52917 19
579 1 0.854673 3.01204 -19.8676 12
580 1 -1.49418 -11.9504 10.519 11
581 1 1.40259 0.446201 -10.9286 24
582 1 7.8941 -1.1794 -17.7258 17
583 1 8.59208 17.447 2.02566 11
584 1 9.8946 -0.513523 -10.9866 22
585 1 5.17392 -5.21375 -17.9443 19
586 1 0.4662 -12.8223 -4.2292 17
587 1 -5.54056 -4.05501 -15.5095 11
588 1 15.2239 2.02943 0.462247 18
589 1 18.0543 3.59002 -8.93313 21
590 1 10.6558 -5.97273 -10.2812 20
591 1 17.2844 10.0843 11.3281 10
592 1 11.2253 -11.4756 -5.52593 22
593 1 4.50556 3.6529 -15.7103 21
594 1 10.0236 10.4652 -1.24358 17
595 1 -6.50028 1.98864 -1.23822 19
596 1 15.6527 11.4155 9.19663 14
597 1 18.8343 4.23115 -5.9026 21
598 1 17.6018 -1.98315 3.40772 13
599 1 13.6171 4.6345 -9.55046 18
600 1 8.94047 3.76571 13.346 23
601 1 18.7009 4.87487 7.96697 16
602 1 4.18914 -2.00133 8.3258 19
603 1 18.49 9.82264 -3.33971 14
604 1 10.373 1.28748 -3.3316 20
605 1 4.2763 0.666864 12.739 19
606 1 20.6899 -0.763567 -7.66428 11
607 1 12.974 0.109173 12.7108 16
608 1 -2.72095 -1.74545 -12.995 22
609 1 17.3244 3.4204 4.74079 21
610 1 15.139 -4.6723 -2.73919 17
611 1 5.20023 -7.35995 -3.1938 21
612 1 -5.29927 3.77871 9.00345 18
613 1 11.8163 10.7163 5.1272 19
614 1 14.4866 1.31482 10.4971 17
615 1 8.63913 10.661 6.76916 22
616 1 7.55947 13.6335 9.2232 16
617 1 5.83306 2.49261 5.03346 20
618 1 3.48257 -16.9323 2.60111 19
619 1 -4.39803 12.9177 -0.984127 13
620 1 12.1672 8.46073 -13.9718 15
621 1 14.6078 -2.25128 -18.246 11
622 1 8.24024 14.8801 -4.98956 21
623 1 2.13544 -13.1791 -9.3557 19
624 1 13.8302 -4.90953 -16.2614 18
625 1 -11.608 2.99579 5.25774 16
626 1 -2.31607 3.78322 -10.7368 19
627 1 -0.448051 -15.3696 6.28488 10
628 1 0.638099 -0.0611104 -16.1406 16
629 1 -11.673 1.03249 -7.77705 11
630 1 15.0784 -7.53685 8.05331 11
631 1 21.9015 6.45656 -1.66961 14
632 1 6.83634 -13.3958 3.64422 19
633 1 -5.4048 -3.74604 -11.1201 19
634 1 3.15047 1.32717 -20.4623 14
635 1 7.04399 -4.01241 2.94002 23
636 1 2.81932 1.31176 9.93051 22
637 1 8.62326 8.77895 -18.424 10
638 1 16.6044 0.732918 12.71 8
639 1 13.5707 5.10052 -5.99474 23
640 1 15.427 13.4755 0.203323 18
641 1 9.5959 -14.6428 -10.1267 13
642 1 -6.79519 -1.99593 7.014 17
643 1 15.3364 -0.493535 4.39529 21
644 1 2.02389 11.5067 7.81025 19
645 1 11.509 13.6374 -11.8181 10
646 1 -9.55279 9.70573 -3.96833 10
647 1 12.4695 8.07872 -1.51606 20
648 1 -2.46387 -16.8286 -0.595952 11
649 1 17.8487 -3.25076 0.290385 15
650 1 14.4446 16.3552 0.935579 9
651 1 0.947114 5.20519 5.70207 23
652 1 -2.25597 -5.05936 -6.47982 19
653 1 -7.99656 -5.41586 -11.3814 10
654 1 5.98375 -4.52894 8.74899 20
655 1 -1.26375 -7.76158 6.84678 17
656 1 14.7159 8.19259 10.4705 17
657 1 -0.365456 9.0648 0.270784 21
658 1 11.9916 6.50145 0.947303 19
659 1 11.9795 -3.96614 -2.21422 20
660 1 13.8881 5.56447 3.16299 19
661 1 6.351 0.812349 -19.5301 17
662 1 -3.97882 -2.70142 5.84323 18
663 1 12.1683 -2.5529 -14.3158 20
664 1 3.41956 -3.70669 -8.23785 24
665 1 15.2147 -8.83518 -8.97664 16
666 1 13.3241 5.14788 6.12318 17
667 1 11.4295 3.76126 4.01785 22
668 1 -7.73414 0.23095 11.2881 14
669 1 17.7978 8.38754 8.52622 15
670 1 6.17764 -5.10867 13.4448 10
671 1 3.27463 4.8256 8.03333 21
672 1 5.61979 -4.15811 -21.0006 12
673 1 -2.67596 -0.824442 11.3654 20
674 1 -1.19629 2.90187 -4.97992 22
675 1 10.5217 -1.12803 16.1927 9
676 1 -7.14861 -12.9338 6.85477 10
677 1 16.9219 5.68817 -3.43516 20
678 1 13.9761 -13.4853 -5.83602 14
679 1 2.79031 4.80868 -12.9445 24
680 1 12.0048 3.76124 -3.89956 21
681 1 14.5393 9.81595 0.64373 20
682 1 3.934 -0.445262 -17.5634 18
683 1 1.4922 -1.18657 8.3537 20
684 1 6.63418 11.7216 -5.9771 22
685 1 15.442 8.60992 -2.50441 22
686 1 -1.31225 -8.46208 -6.11753 19
687 1 4.16996 -0.826128 -21.8881 10
688 1 -9.34148 11.5336 -1.70118 11
689 1 12.1741 -5.44205 -12.9189 19
690 1 8.82462 4.03314 2.01175 22
691 1 13.3434 5.30471 -15.5385 11
692 1 16.2869 11.754 -2.56999 14
693 1 5.34681 4.49353 2.88467 25
694 1 -3.49586 4.23394 -0.948715 19
695 1 10.431 5.18938 -6.0217 18
696 1 13.4105 3.26962 14.5981 13
697 1 13.6548 -2.78663 6.57191 18
698 1 2.22117 -11.253 10.1646 12
699 1 3.14333 11.7522 -13.3866 16
700 1 13.3806 13.2855 3.38319 18
701 1 12.7561 -7.00596 -18.0554 14
702 1 7.57232 -2.40525 8.79236 17
703 1 11.1487 10.0512 -7.14316 21
704 1 10.448 8.31295 6.17851 17
705 1 19.0485 -6.91794 -2.94092 10
706 1 7.47055 4.79566 16.3848 13
707 1 -11.7761 -1.99651 0.0231012 20
708 1 9.11425 -15.0558 -0.969366 19
709 1 7.18152 -4.54468 -8.59551 21
710 1 -4.0653 11.3324 1.16395 17
711 1 6.05169 5.08316 6.56335 21
712 1 9.78701 -5.54201 -4.3024 20
713 1 8.00775 10.9318 1.33963 21
714 1 -7.17649 -5.74623 -1.29241 21
715 1 0.388409 1.50865 14.962 13
716 1 0.467144 7.46515 -16.0314 15
717 1 -0.596858 9.40503 -13.9229 13
718 1 10.6513 -12.1395 -0.00208426 20
719 1 13.3955 7.16422 -10.7585 18
720 1 8.80549 -3.35126 5.03735 19
721 1 4.23699 7.4015 2.15022 21
722 1 -6.76001 6.24176 7.16128 17
723 1 10.1699 -0.115368 -15.9965 20
724 1 9.91803 -12.7954 7.05565 10
725 1 7.06311 12.8371 -0.595464 20
726 1 -2.21378 6.69836 13.7629 11
727 1 -3.72336 -7.39925 -15.4322 15
728 1 0.771872 -8.89056 -16.368 16
729 1 -0.997023 -14.5136 -10.1963 11
730 1 4.33459 14.3821 -9.47933 14
731 1 7.87158 -6.78772 -9.44261 21
732 1 3.02891 13.544 6.201 17
733 1 14.0051 -11.0373 -14.0183 10
734 1 13.123 -17.3383 -0.0987892 9
735 1 5.30434 -8.70111 5.92017 19
736 1 19.3092 1.12019 -11.3488 10
737 1 9.00476 -14.0817 -6.58851 17
738 1 -8.82476 -4.73836 3.51479 16
739 1 4.04844 -0.970073 -10.5389 22
740 1 0.902469 -17.0106 0.511613 15
741 1 -4.34081 -13.2209 -6.00153 14
742 1 -9.03001 1.0416 5.01035 18
743 1 -1.27484 -15.2774 1.93032 20
744 1 19.6329 6.11231 -8.13499 14
745 1 0.914043 15.8126 4.8337 11
746 1 -1.17038 3.09603 5.76364 23
747 1 -11.2188 8.27071 5.14851 11
748 1 15.2015 -0.808771 1.27228 24
749 1 -7.8997 -2.88205 -10.267 17
750 1 2.53719 8.15177 -4.88828 21
751 1 9.02645 1.84434 -9.53952 21
752 1 14.7971 10.959 5.79609 16
753 1 16.2433 3.16982 -5.70473 19
754 1 -13.5176 -0.27677 -1.92852 13
755 1 -6.16933 -10.6323 -9.66362 9
756 1 0.809954 4.9203 13.5633 19
757 1 8.52678 8.47895 -13.371 20
758 1 16.5882 14.4871 3.02009 11
759 1 0.386763 3.92787 8.93378 22
760 1 5.20918 -16.5206 -3.89564 18
761 1 -6.56909 -12.8624 2.46793 17
762 1 1.49556 -7.99433 7.16434 17
763 1 19.7475 10.6359 6.52963 10
764 1 9.60927 -6.24116 -7.20442 23
765 1 -3.99016 6.68662 -2.67036 19
766 1 10.7732 9.31033 2.05709 18
767 1 -2.66694 -5.65775 0.382941 22
768 1 12.6165 2.83671 -17.8189 11
769 1 4.00596 -14.9783 -6.49506 19
770 1 5.91509 -19.0799 0.72234 10
771 1 6.08424 -14.1495 -2.00005 22
772 1 8.24639 4.49288 -8.32144 20
773 1 12.09 14.1949 -0.787378 18
774 1 1.26143 -0.736986 -18.6745 16
775 1 4.34648 0.870622 7.41581 19
776 1 3.22253 5.09522 -19.6739 12
777 1 -6.36463 -2.08582 -13.0079 14
778 1 -5.89538 -4.02474 -2.50066 23
779 1 6.95914 15.7916 -8.28262 11
780 1 17.1716 -0.0793974 -1.39165 22
781 1 2.81704 -5.81278 -19.5734 14
782 1 -1.04802 -6.22326 -3.90033 18
783 1 16.0537 5.90629 -7.89062 18
784 1 14.2668 -7.01561 -0.521241 19
785 1 1.18543 8.08591 13.0114 16
786 1 9.93872 -10.7489 9.34297 9
787 1 19.5297 -3.93698 -1.93595 11
788 1 15.298 -0.508719 8.05388 20
789 1 5.30501 10.939 7.51077 18
790 1 -8.31078 3.55796 11.7396 8
791 1 -1.0879 5.65268 11.3658 22
792 1 1.23343 -12.3877 7.7139 17
793 1 10.8089 -0.567549 -0.89958 19
794 1 12.6459 10.6642 8.50353 20
795 1 -11.3617 3.86933 1.75758 20
796 1 14.2957 -7.3963 -3.75475 17
797 1 -5.22775 9.95182 -9.23729 17
798 1 7.62297 6.72722 2.89238 22
799 1 7.25711 -16.651 4.48367 13
800 1 6.44116 1.0647 10.9098 16
801 1 5.47258 11.2135 4.95714 19
802 1 10.3389 -5.8181 -0.465752 21
803 1 -5.70246 -5.2567 -5.86104 21
804 1 9.14462 2.90682 10.3113 19
805 1 -8.46175 -4.61946 -4.30608 22
806 1 4.58914 11.3587 13.0449 10
807 1 10.4015 12.9887 -2.5156 21
808 1 -6.94745 -10.1275 6.19089 18
809 1 -2.16161 -13.3819 7.10075 15
810 1 16.5415 -6.31513 5.6972 10
811 1 13.6065 -3.27453 3.24778 16
812 1 15.1412 7.91671 4.73356 19
813 1 0.427927 5.42995 -5.09055 22
814 1 3.97449 -10.5175 -8.94612 19
815 1 1.4399 4.65447 -15.8239 21
816 1 -2.50373 2.37057 2.99268 20
817 1 7.97881 17.3969 -0.763152 12
818 1 18.6563 2.19027 -0.107983 20
819 1 8.32738 7.46899 -7.93396 21
820 1 2.51456 5.64182 10.7695 21
821 1 13.084 3.78122 8.72039 18
822 1 9.85574 -3.59645 -11.8793 19
823 1 -3.31698 -12.5051 1.6506 21
824 1 -2.14331 -1.22929 -7.30317 23
825 1 20.4405 1.38297 4.69641 11
826 1 5.83406 -3.1017 -13.031 19
827 1 3.46684 3.45801 12.4418 16
828 1 13.9676 -11.4688 -7.75714 14
829 1 10.7142 6.99359 -15.6621 15
830 1 2.17236 -6.88051 -8.79885 21
831 1 15.5291 5.59644 -12.7317 14
832 1 20.5733 -0.710129 -0.489937 10
833 1 3.89697 -5.06184 10.8352 19
834 1 3.70915 -8.32824 -13.7301 21
835 1 10.7685 6.7754 -3.92629 21
836 1 2.27084 -7.68566 2.56273 20
837 1 -13.163 5.64583 4.00974 9
838 1 17.9665 3.27395 -12.2968 12
839 1 21.1065 6.30371 1.9448 14
840 1 7.82974 -7.70282 -15.9163 18
841 1 -3.1481 10.5925 4.68379 17
842 1 20.4257 9.1398 3.74266 12
843 1 13.54 11.3111 -5.01909 16
844 1 8.8946 2.21643 -17.6636 15
845 1 12.615 -6.6147 -8.77672 19
846 1 -6.3654 -0.88066 7.81864e-04 17
847 1 13.402 4.10007 -0.0916594 18
848 1 -7.69654 -13.7545 -2.99759 7
849 1 -5.08721 7.81844 -12.1932 15
850 1 7.99043 2.38479 7.12068 22
851 1 -7.30048 -2.99862 -6.70695 19
852 1 -6.95473 6.14555 3.85557 18
853 1 0.763316 3.59366 -10.9555 20
854 1 17.677 -5.17377 -11.6158 13
855 1 -5.88575 -7.56392 -9.76454 17
856 1 17.0997 -6.00673 -0.297983 17
857 1 -13.7278 5.60912 0.323496 9
858 1 -2.69356 -2.88793 -9.58518 17
859 1 16.9668 7.87798 2.00082 21
860 1 3.07126 -9.93606 5.54081 20
861 1 8.30769 0.589845 12.9447 20
862 1 16.7267 -2.8999 5.99699 13
863 1 12.3943 -0.0863255 2.544 17
864 1 -6.68842 4.18177 1.4929 19
865 1 7.6319 11.3161 11.6864 13
866 1 7.33062 7.24494 -10.334 20
867 1 7.34332 -9.42509 -18.98 11
868 1 3.45837 16.6196 6.13263 12
869 1 -8.73479 -12.2393 3.99198 12
870 1 14.5293 9.43927 -7.77378 18
871 1 5.48757 6.50572 10.1604 23
872 1 20.2252 -3.43029 -5.27235 12
873 1 12.3612 -9.62471 8.38375 10
874 1 5.64418 11.9423 -11.2309 21
875 1 8.38157 10.1561 -11.4105 20