ITEM: TIMESTEP
23000
ITEM: NUMBER OF ATOMS
1500
ITEM: BOX BOUNDS pp pp pp
-30.0 30.0
-30.0 30.0
-30.0 30.0
ITEM: ATOMS id type x y z Coordination
1 1 2.47306 -5.47118 -7.63108 17
2 1 10.0012 -7.46777 4.96226 15
3 1 -8.23707 8.23333 -3.26001 20
4 1 -7.76807 4.58648 -6.09165 19
5 1 -4.26124 -9.04587 10.465 13
6 1 -6.61818 2.53499 -10.7884 19
7 1 -1.63891 -11.8514 6.02602 12
8 1 -2.94591 -3.97952 11.081 20
9 1 -1.85729 5.85451 16.8575 10
10 1 1.42193 8.74893 8.52223 24
11 1 1.0796 12.304 -10.0862 17
12 1 7.14068 6.20095 14.1047 17
13 1 15.8928 12.209 8.36183 9
14 1 3.45048 11.4981 -12.9233 12
15 1 5.5634 6.58167 -14.3728 12
16 1 1.12331 -2.65565 -7.60401 19
17 1 5.85365 -9.53339 5.74307 13
18 1 11.4286 -8.59044 2.46784 8
19 1 -3.63893 -9.98857 -5.26107 16
20 1 0.9965 -6.88908 -12.0944 13
21 1 1.76722 4.00196 16.3176 7
22 1 0.132769 -11.4909 8.58598 13
23 1 5.57869 -2.56694 12.7973 15
24 1 -12.172 0.668921 -0.17602 21
25 1 -7.99704 2.07444 0.294604 19
26 1 -7.16372 12.9565 -5.63552 10
27 1 3.41804 1.70269 -10.798 21
28 1 2.78317 -2.60391 -13.3157 11
29 1 -0.330809 3.66103 13.2366 18
30 1 -10.2509 11.3949 1.23002 17
31 1 7.847 17.2421 6.17865 13
32 1 -9.5721 10.0929 -5.91109 13
33 1 -1.59002 14.8981 -2.32265 21
34 1 3.46491 -9.29834 0.00391919 17
35 1 9.64028 -3.17631 -5.91577 22
36 1 -6.55113 7.97597 13.2281 14
37 1 -9.6985 1.1726 -8.01361 12
38 1 9.82289 2.21041 5.21774 22
39 1 -3.75169 15.708 -6.15387 10
40 1 -4.5887 -6.09017 11.6543 16
41 1 -12.598 5.65769 -4.88692 9
42 1 4.68275 8.8091 8.43471 24
43 1 6.76106 -9.42809 0.0924403 15
44 1 7.44349 7.28161 16.8479 9
45 1 16.0545 2.25553 -6.36319 16
46 1 7.28459 -6.77476 4.57518 20
47 1 3.23215 -4.71856 13.5768 10
48 1 -7.30056 -7.18166 6.04313 19
49 1 -7.37365 0.4776 2.76364 20
50 1 14.8755 3.54763 6.88273 18
51 1 8.02583 -2.44478 -3.47787 20
52 1 -2.03764 11.02 10.8533 18
53 1 4.88381 -1.04519 9.54866 19
54 1 -0.706843 -6.10361 -7.43592 20
55 1 -4.62955 17.0489 -0.789148 17
56 1 -1.50954 10.8821 -4.78953 23
57 1 5.42855 0.897569 -8.28658 23
58 1 8.64549 -0.552008 4.9468 21
59 1 2.48775 -9.44739 9.86102 12
60 1 -9.83843 10.9692 -2.76023 15
61 1 -6.82823 12.4052 3.04018 19
62 1 -1.9599 10.7837 5.48666 22
63 1 -3.51127 -11.7952 8.91023 13
64 1 13.114 -3.36117 -5.08095 14
65 1 -8.78486 5.82345 5.04986 22
66 1 11.357 -2.10651 -2.90898 18
67 1 7.28163 3.5098 -13.5065 13
68 1 -2.96189 1.86902 -10.2725 20
69 1 0.144987 13.8093 0.383832 25
70 1 -9.58249 6.64739 -7.19997 13
71 1 -0.0456355 14.0236 -5.14002 20
72 1 2.96994 11.7696 3.0199 24
73 1 -3.21548 -4.67473 14.3022 11
74 1 -0.480616 -3.54633 -4.84453 18
75 1 4.36284 -7.27964 -10.856 12
76 1 2.89504 7.63169 10.6012 20
77 1 -10.6934 -3.29313 -0.116418 19
78 1 -12.6193 -7.65039 -1.7648 11
79 1 13.5671 -5.20576 1.68118 13
80 1 -3.33561 11.9192 3.13526 24
81 1 8.12039 5.3604 -10.3174 19
82 1 8.19702 10.9401 -5.06113 18
83 1 9.80327 -3.20723 -0.0836726 21
84 1 -1.88312 -6.72785 9.31943 20
85 1 -4.4846 -6.65242 6.07838 17
86 1 -13.5431 0.906383 5.98233 13
87 1 9.56447 13.1865 10.9864 11
88 1 -3.20838 10.5614 14.8977 9
89 1 -1.2451 16.702 -0.656197 20
90 1 -0.834164 -4.36225 -9.97434 21
91 1 9.98683 -0.510529 12.5798 13
92 1 1.3547 10.906 -4.65082 24
93 1 15.016 5.36777 -5.22297 21
94 1 -10.5306 13.0162 -1.12617 12
95 1 -4.516 14.6285 3.08897 22
96 1 7.47441 3.89778 -8.17268 23
97 1 11.864 -2.25282 2.32979 20
98 1 -3.47617 7.86078 -4.7995 22
99 1 5.11109 14.8456 -3.36821 16
100 1 11.7153 10.9692 -0.0474604 21
101 1 1.28759 15.0716 -8.24394 15
102 1 -7.01645 -3.86868 -5.81344 20
103 1 1.25047 17.0881 5.64803 18
104 1 -10.2563 0.603666 -2.72002 20
105 1 14.8297 -2.13703 -2.48879 15
106 1 0.15919 11.774 8.53778 20
107 1 3.12891 13.8574 -5.08786 19
108 1 3.91914 0.695954 13.2674 17
109 1 -13.9381 -2.16194 5.0606 12
110 1 -2.20647 -8.17909 3.58297 19
111 1 2.1151 -8.13253 -3.73401 15
112 1 -2.1054 10.961 -10.2778 12
113 1 12.9084 12.4608 2.37052 20
114 1 -1.01702 -9.45828 10.5061 17
115 1 -6.52464 7.87833 -0.15589 23
116 1 0.762822 19.3989 0.672512 13
117 1 1.3338 10.8752 11.5522 21
118 1 -7.9575 14.1192 5.08268 14
119 1 -4.39171 4.88071 -10.1699 22
120 1 15.1051 -0.323652 4.39281 21
121 1 -7.70187 -4.54685 7.88354 19
122 1 -7.19737 11.1535 9.47029 18
123 1 -1.62157 -6.03303 5.99652 20
124 1 -13.6201 7.03001 -2.13146 11
125 1 -2.70455 -9.77476 0.408022 20
126 1 6.58159 -5.44686 -3.3053 21
127 1 -4.19259 13.924 9.73947 13
128 1 -6.79639 2.19985 -4.55949 21
129 1 -0.833324 17.2247 -6.19949 13
130 1 -11.0667 -3.12472 -5.15559 12
131 1 -7.11737 3.23595 10.9337 21
132 1 1.30917 -7.8661 2.30768 22
133 1 4.66481 -8.92836 8.74601 11
134 1 14.9791 3.02484 2.34561 19
135 1 8.42051 8.94087 -2.38202 23
136 1 6.06715 9.2177 14.372 15
137 1 -1.13298 4.58469 -10.3919 22
138 1 12.5849 5.02948 -10.3403 14
139 1 -7.13137 -5.55516 2.54311 22
140 1 -1.47806 14.9831 -8.99688 10
141 1 -6.08764 19.0144 1.62783 10
142 1 10.0582 5.60585 8.29548 20
143 1 -5.04222 -2.45666 -13.3761 13
144 1 -0.617333 11.7034 -7.6479 20
145 1 3.65364 7.16819 -10.0823 22
146 1 -5.63026 9.18064 7.05862 18
147 1 -4.32513 7.41287 15.2219 12
148 1 2.19713 -4.48338 -11.0161 18
149 1 -10.2313 -6.41618 3.41284 19
150 1 11.9107 -8.5334 -3.09974 10
151 1 6.84747 13.7371 -5.6025 14
152 1 0.0760338 12.0708 -2.20725 24
153 1 -9.7922 8.69886 -0.555928 19
154 1 3.10793 13.7378 11.401 15
155 1 13.7658 7.96034 -0.17909 20
156 1 3.20841 11.7725 8.398 23
157 1 -10.3506 9.49364 4.9577 18
158 1 -7.62589 -3.97297 -0.401423 19
159 1 10.0802 6.60968 -7.96645 19
160 1 6.30568 2.13239 11.039 22
161 1 6.80372 8.51439 -10.3273 24
162 1 5.35317 -6.73973 -5.70044 20
163 1 -3.87988 0.0765606 -8.00037 21
164 1 9.49963 3.00847 -5.1339 23
165 1 -6.94247 0.651342 8.10093 22
166 1 4.48348 -11.0654 -1.8143 12
167 1 -7.62156 -2.09174 -11.6543 12
168 1 8.98862 16.4624 0.149258 13
169 1 0.0244322 1.78867 -10.2609 23
170 1 4.75222 5.53596 17.0784 9
171 1 16.2958 6.04419 -2.38313 18
172 1 14.0112 -0.0566009 -7.22395 14
173 1 -6.73449 0.821596 -7.48879 21
174 1 -9.23217 3.88918 -9.44834 12
175 1 14.7586 -1.13409 9.68128 12
176 1 6.79937 0.207093 7.54496 22
177 1 -4.29899 -8.49817 -10.2152 13
178 1 1.95684 -5.3495 7.5023 18
179 1 4.11457 10.3444 -10.3583 22
180 1 8.20585 8.86377 3.07073 21
181 1 -5.49696 -2.35974 2.98523 22
182 1 4.7451 14.8883 3.13694 20
183 1 -5.51423 -2.06198 8.04395 20
184 1 -8.64964 -9.02548 -5.97877 13
185 1 -3.74631 -5.32837 -7.80048 19
186 1 -7.21259 -9.3209 0.410442 15
187 1 -0.507553 -5.54093 1.64079 17
188 1 17.8686 9.24477 8.95005 6
189 1 -8.13367 0.554166 11.2317 13
190 1 -2.0666 -6.61046 -0.995279 19
191 1 -3.24105 -11.5019 3.64585 16
192 1 2.45475 16.687 -4.78831 15
193 1 5.58308 4.91404 -10.4981 22
194 1 -6.46879 0.47378 -13.4298 13
195 1 -1.98549 -9.32981 -2.83692 17
196 1 -1.95115 -6.99838 -10.7957 17
197 1 -4.60491 10.7014 -5.30911 20
198 1 11.4416 8.71515 8.0481 20
199 1 -1.8365 3.01607 -7.66273 21
200 1 0.901331 9.32329 -7.95495 20
201 1 4.41169 20.946 3.1339 11
202 1 1.6803 14.3195 3.27829 22
203 1 11.5601 -0.90515 5.17413 20
204 1 -6.75569 5.96363 7.96603 21
205 1 -1.94028 -0.924524 10.4712 19
206 1 -3.03858 13.6887 6.52103 20
207 1 0.059903 -4.72571 -13.2849 14
208 1 4.92639 -6.18343 -0.407496 20
209 1 -5.56157 -3.43511 12.0396 11
210 1 -7.56597 -1.76912 10.0945 17
211 1 12.8264 0.505239 -3.69644 20
212 1 8.73621 0.979932 -8.18301 20
213 1 9.94416 -5.30465 -3.29288 25
214 1 -3.9586 17.7013 3.42263 15
215 1 9.68975 7.96935 13.9139 15
216 1 -8.71173 -0.210271 5.51187 18
217 1 11.6503 -6.2436 -5.61071 16
218 1 -1.67058 14.8239 3.0073 22
219 1 -5.215 11.5426 5.35313 21
220 1 8.0389 -6.85077 10.1882 10
221 1 14.3764 -4.01776 7.65585 10
222 1 -1.95012 8.89052 8.45332 21
223 1 -9.79642 -3.8537 5.22111 18
224 1 1.43753 4.94309 10.3455 23
225 1 -2.46256 16.6971 5.6061 16
226 1 -9.88577 5.72757 8.99399 16
227 1 -13.1739 7.57761 4.24786 11
228 1 -2.27158 -2.62412 -7.33265 24
229 1 -6.4567 13.7487 0.36203 20
230 1 11.8002 2.67749 7.83648 18
231 1 -13.3405 -5.69093 4.10964 11
232 1 9.98849 -4.94663 8.7315 12
233 1 -12.5117 12.5136 1.19677 11
234 1 1.52013 -0.848952 11.0756 23
235 1 4.35515 -8.57613 -8.0759 18
236 1 -5.3062 -0.567466 -4.73997 24
237 1 11.9866 1.06353 -10.0402 12
238 1 6.07237 18.0644 2.45339 16
239 1 -8.63217 3.65223 -2.60286 20
240 1 5.18394 -5.08631 -8.93994 17
241 1 -5.06086 -11.0774 -1.35794 15
242 1 -11.9054 -1.74817 -2.49467 19
243 1 -3.5961 -5.23425 3.02513 22
244 1 12.4632 8.17346 -5.98707 22
245 1 -8.13828 9.05075 -9.70571 8
246 1 -8.69935 -2.64721 -3.13262 23
247 1 -6.40844 8.57958 9.7626 22
248 1 -8.06576 14.4187 -3.04758 12
249 1 -6.86127 8.32359 4.8475 21
250 1 7.62397 -3.72508 -8.41693 18
251 1 17.8698 4.09948 -3.85439 12
252 1 3.19286 -5.52544 -2.90996 18
253 1 -0.264426 14.0524 5.7925 19
254 1 -6.79867 5.70409 -2.17705 18
255 1 8.71295 -7.88171 1.52966 19
256 1 14.3867 1.79763 10.0598 16
257 1 -5.88443 -2.56161 -2.24037 23
258 1 0.495589 -9.80882 -0.630896 17
259 1 0.0669871 11.7318 3.15341 24
260 1 -10.938 -5.11387 -2.59991 18
261 1 -10.3306 6.08367 -3.6299 19
262 1 4.16019 13.2763 -9.8756 17
263 1 3.14904 19.6819 5.36376 11
264 1 -13.8685 -4.53976 -3.35053 10
265 1 -4.11938 -5.43413 -2.90941 20
266 1 -12.3776 3.71961 8.40636 14
267 1 -6.69146 11.9057 -3.19057 17
268 1 6.53192 -3.98177 9.82105 18
269 1 -10.6233 -9.00652 0.547043 12
270 1 8.47755 8.82139 -13.0516 13
271 1 -7.0667 6.11916 -8.45071 19
272 1 -0.124494 -12.3631 2.55207 11
273 1 10.5926 16.108 6.57269 11
274 1 -3.27308 2.66058 10.6088 19
275 1 -12.3881 2.79374 -2.7483 16
276 1 -7.9734 11.277 6.1218 17
277 1 -4.94842 -9.9089 6.84946 17
278 1 7.27159 -7.1346 -9.0863 15
279 1 -12.048 10.1777 3.09249 14
280 1 1.6632 -2.7343 7.59118 21
281 1 8.35666 -6.04093 -6.50955 20
282 1 0.727001 -8.53338 -8.65084 19
283 1 1.02678 -6.12513 4.35983 22
284 1 3.05742 -3.07708 -5.05453 20
285 1 -2.52477 8.87959 -7.57022 21
286 1 8.28235 -8.12391 -2.29898 18
287 1 1.80411 14.7709 -2.60767 22
288 1 -3.87794 -0.881584 13.3936 14
289 1 -11.2359 -4.70072 8.94143 13
290 1 8.06801 -2.48359 7.42078 22
291 1 7.72268 2.34457 -10.6341 20
292 1 12.467 -4.92874 4.46154 17
293 1 15.5064 11.8981 -2.45473 12
294 1 -2.00082 1.00002 12.589 15
295 1 3.32067 13.9765 0.265652 22
296 1 4.71855 -3.1308 7.40502 21
297 1 -1.45672 -12.0701 -0.765633 12
298 1 -2.6482 19.1662 1.06292 12
299 1 -2.91745 -8.54483 -7.85159 25
300 1 6.02808 7.49344 11.0698 21
301 1 -5.23351 3.30448 8.09491 21
302 1 -4.9967 -8.70544 1.60257 20
303 1 -9.47073 8.8564 10.8027 11
304 1 -6.85484 -4.63221 -9.21333 17
305 1 -5.03058 10.7785 11.8684 15
306 1 -5.85799 -8.92902 -7.41656 16
307 1 -0.568496 -1.96363 -14.8942 9
308 1 -5.34194 -9.48945 4.3501 20
309 1 -5.21105 -0.451069 5.56887 22
310 1 8.28312 4.60363 10.6358 21
311 1 -8.79351 -4.71457 11.1286 12
312 1 -11.7077 8.95843 -3.11158 13
313 1 9.72986 6.21325 3.00269 23
314 1 -6.2644 -8.93433 -4.07411 14
315 1 4.72138 16.5849 6.09695 19
316 1 2.4784 6.46818 -7.84275 25
317 1 -2.37492 9.18069 17.1882 11
318 1 -14.1026 3.92691 0.218376 10
319 1 6.62042 11.6254 -8.18059 21
320 1 -8.77872 -6.3518 -6.72224 15
321 1 -1.28091 -11.4112 -7.99132 12
322 1 -1.00538 0.908446 -7.13136 23
323 1 -7.93622 10.6006 -0.721261 21
324 1 4.18322 6.55243 13.9141 19
325 1 11.9333 8.95491 2.44764 21
326 1 6.59853 13.768 -0.499608 18
327 1 -13.5032 10.3058 -0.421 10
328 1 6.72926 8.15936 -4.63211 23
329 1 4.33702 -5.49171 5.80437 17
330 1 -11.3483 -0.924382 5.08957 18
331 1 0.0513112 5.62993 -13.1651 14
332 1 14.6623 9.48889 2.40459 14
333 1 8.18063 -2.28997 2.41772 21
334 1 16.9736 9.20476 -3.94775 11
335 1 0.431916 7.49953 -10.4717 19
336 1 3.19638 -5.32588 2.50563 20
337 1 -0.0541195 -10.2506 4.74434 17
338 1 0.907485 -6.68089 10.0338 17
339 1 -4.89482 5.00699 -4.82231 22
340 1 -1.31848 -10.2897 -10.2742 14
341 1 4.95975 2.95852 -14.7846 9
342 1 6.85504 0.24488 13.9705 10
343 1 -12.9672 -0.830054 2.19883 15
344 1 10.9174 -0.385659 -5.68626 24
345 1 11.1266 3.24697 -2.90844 22
346 1 -5.27969 14.9606 -2.69814 15
347 1 -2.24053 -6.64216 -4.92599 20
348 1 5.94239 6.30445 -7.41618 24
349 1 7.76588 -0.216108 -5.63823 24
350 1 -6.05883 1.7728 14.0893 10
351 1 11.7527 16.1935 1.83412 12
352 1 -7.11761 5.77549 -11.2773 12
353 1 -7.09509 2.21196 5.59367 21
354 1 1.84037 16.4854 0.56594 21
355 1 -5.09471 -0.704948 -10.2705 20
356 1 -10.406 2.56869 5.39931 20
357 1 -7.22624 -7.93579 11.4281 9
358 1 5.24575 9.13712 -7.68687 22
359 1 14.0497 7.75811 -3.80587 21
360 1 -12.0729 -3.29381 2.80658 17
361 1 1.469 -6.39201 -0.468052 21
362 1 -6.33649 14.3339 7.7475 18
363 1 1.1714 -1.67503 -10.3028 15
364 1 13.2051 3.16807 -0.185876 21
365 1 6.96957 14.0304 -9.98192 9
366 1 6.58429 -2.69228 4.77311 22
367 1 -7.9451 6.29799 11.1165 17
368 1 6.44398 13.1858 10.921 15
369 1 -1.63029 3.01447 -12.9272 19
370 1 -9.09233 -0.835659 0.191658 22
371 1 3.18823 1.94533 10.234 22
372 1 8.48116 11.2751 13.5412 11
373 1 10.94 13.1081 -4.50722 17
374 1 -7.63432 16.6335 -0.147824 13
375 1 9.88693 13.5531 0.40184 21
376 1 11.8913 -2.80507 11.0188 13
377 1 10.6607 8.85752 -9.48468 18
378 1 -12.6977 -5.94711 0.669767 14
379 1 -1.6439 5.29136 10.7032 22
380 1 0.151698 18.0402 -3.26216 12
381 1 8.47033 -6.03116 -0.817042 20
382 1 10.6704 3.62491 -8.09326 19
383 1 -3.00869 17.4244 -3.82657 13
384 1 -4.96103 -5.73779 -11.9589 11
385 1 11.57 -6.25184 -0.133581 16
386 1 -14.4942 1.34297 -1.49584 8
387 1 -9.63489 -1.65053 7.68588 20
388 1 7.77767 10.8404 0.412621 23
389 1 3.69278 -1.06079 -10.5893 17
390 1 4.64601 -6.59465 10.9631 13
391 1 9.59341 6.09993 -2.6599 25
392 1 -9.68562 14.5533 1.87395 16
393 1 9.37532 0.473036 -2.75297 23
394 1 2.84992 9.26676 14.5776 15
395 1 0.861998 3.51235 -8.03058 22
396 1 1.5059 14.6912 8.20342 14
397 1 11.9263 7.43041 -12.2099 10
398 1 -2.43749 -3.38488 -12.526 14
399 1 -4.82464 -8.11374 -1.81936 18
400 1 -8.9725 0.232533 -10.7016 13
401 1 13.4333 7.85688 5.55655 20
402 1 16.6597 8.52735 -0.740909 11
403 1 11.8391 -3.57689 -7.79712 11
404 1 9.61872 -8.44713 -5.00696 14
405 1 8.67471 17.4513 3.40715 13
406 1 -6.83894 6.08521 2.82834 21
407 1 15.4958 11.5726 0.670673 11
408 1 16.9108 3.40094 -0.628632 16
409 1 13.738 10.7341 -8.08736 13
410 1 16.6381 6.11675 7.79351 11
411 1 3.12638 -3.81295 10.3572 20
412 1 6.0073 3.65617 13.4867 19
413 1 16.9779 0.920942 -3.05377 12
414 1 9.52942 7.5006 11.0147 19
415 1 -4.86729 3.00509 -7.37194 23
416 1 12.552 11.7939 9.971 13
417 1 9.92784 0.217282 7.6007 20
418 1 9.62734 1.8697 11.1386 18
419 1 5.02915 14.553 8.46922 19
420 1 9.80681 13.2445 5.60487 21
421 1 -3.36357 11.9355 -2.36193 23
422 1 13.7864 13.7477 -3.87545 13
423 1 14.2707 2.41171 -9.76579 9
424 1 4.05807 18.8744 0.794348 13
425 1 -0.391884 -8.90172 -5.95007 16
426 1 -11.5507 6.56771 6.62997 16
427 1 -6.96088 11.063 -7.6439 13
428 1 -6.51837 -11.3713 2.11626 14
429 1 -5.00553 3.29708 -12.9135 15
430 1 -8.66915 5.70763 -0.292939 23
431 1 9.96399 -3.61369 4.87213 18
432 1 8.30467 14.2286 8.14488 16
433 1 2.90484 -8.18072 5.03585 22
434 1 -12.8281 0.214577 -4.64754 11
435 1 -0.148739 8.00295 18.6135 9
436 1 8.92075 10.8602 -10.633 14
437 1 9.54007 7.75249 -5.36276 22
438 1 3.89766 -10.2648 -4.98046 16
439 1 16.6203 2.44286 4.99845 13
440 1 10.6799 14.6428 3.5189 18
441 1 13.3064 0.580335 2.08293 20
442 1 -0.45755 8.06058 10.7102 21
443 1 -13.1892 2.34003 2.89743 16
444 1 -5.60177 -2.368 -7.60651 24
445 1 7.6877 -0.697048 10.2935 22
446 1 -0.0340531 -4.47001 14.9898 10
447 1 4.07336 8.89148 17.6739 8
448 1 -3.24699 13.9137 0.341351 21
449 1 9.53751 7.89547 5.9824 24
450 1 11.6343 10.8306 5.03007 22
451 1 -0.223042 -0.0391866 -12.8413 18
452 1 -8.45825 2.96866 8.50675 21
453 1 12.6624 2.56498 -5.7492 20
454 1 9.95988 -5.02633 -10.4542 8
455 1 13.3091 5.79949 7.88613 18
456 1 1.26526 11.0161 5.80648 21
457 1 9.84753 10.9902 7.934 20
458 1 1.23125 1.3788 13.0608 18
459 1 -0.313669 9.88341 13.605 21
460 1 2.70057 0.282704 -14.1485 15
461 1 -5.21552 5.41011 11.0916 21
462 1 11.6943 5.6412 11.5906 14
463 1 14.8847 11.1691 5.00866 13
464 1 6.86948 -10.8193 -4.11592 12
465 1 7.87599 10.8756 5.61411 23
466 1 6.29848 17.6379 8.89945 7
467 1 3.21439 17.4413 -1.98384 15
468 1 13.0272 11.7223 7.26568 18
469 1 -9.06412 -6.61866 -0.332442 20
470 1 -1.66973 -1.23757 -9.80097 19
471 1 -7.11801 15.8631 2.84541 18
472 1 10.0299 -1.78716 -9.06829 16
473 1 12.9869 13.2947 -6.99508 11
474 1 9.54354 11.8581 -2.3573 20
475 1 -5.18234 9.28212 2.95062 22
476 1 13.4823 13.8591 -0.569874 15
477 1 -6.65308 -10.363 9.46292 10
478 1 -2.71877 7.68832 -10.1067 15
479 1 10.6768 10.5002 11.9319 14
480 1 6.2703 5.73143 8.20822 23
481 1 11.1498 15.5256 -2.09451 11
482 1 6.41727 19.4462 5.7596 14
483 1 15.6161 0.658562 -0.243753 16
484 1 -10.6462 0.943642 9.31876 14
485 1 5.2371 -8.06955 -2.50177 22
486 1 4.06827 3.98231 -7.99837 22
487 1 3.3046 13.7165 5.68848 24
488 1 -13.9714 -2.32119 -0.379059 13
489 1 8.02563 -9.45294 3.62521 14
490 1 12.5634 11.0249 -3.8024 21
491 1 10.4086 3.62794 -11.445 15
492 1 2.69909 -10.3983 7.02544 14
493 1 5.68437 16.2311 0.500528 17
494 1 -5.05904 0.934187 11.1518 19
495 1 -8.57418 -7.85908 -9.26994 7
496 1 4.28932 -2.30604 -7.64809 21
497 1 -0.674731 17.0809 8.56225 9
498 1 6.83158 -9.53218 -7.00145 12
499 1 7.93019 -8.41189 7.65824 11
500 1 1.53596 -11.2332 -3.16797 10
501 1 -12.78 -1.58004 8.00905 13
502 1 -6.90778 -5.54146 -2.56703 20
503 1 -10.9434 -2.24265 10.4473 11
504 1 15.6834 7.92564 -6.91214 15
505 1 -3.07766 6.29686 8.21756 23
506 1 -10.7974 12.9883 4.11226 12
507 1 10.2518 0.361045 2.49398 21
508 1 3.48589 11.9451 -2.4188 22
509 1 11.6899 5.37631 -5.11691 24
510 1 9.8182 8.08056 0.536951 21
511 1 -10.3722 2.83509 -5.04814 18
512 1 -8.80704 -1.79736 -8.02232 15
513 1 4.93073 8.74873 -12.7812 18
514 1 0.964386 6.52155 13.0259 22
515 1 -0.7394 -2.25028 13.3757 17
516 1 2.23124 0.531375 -7.64324 24
517 1 -5.12042 11.196 0.498665 22
518 1 4.5952 10.6611 5.70216 24
519 1 -6.34217 -4.28984 4.91858 19
520 1 10.63 10.7978 -7.12458 16
521 1 -3.52564 -12.9649 0.958391 11
522 1 2.75819 12.1152 -7.4858 23
523 1 -3.39632 0.374689 -14.047 10
524 1 2.7512 4.13852 13.1535 19
525 1 1.98271 7.91769 -13.8661 12
526 1 -10.0836 0.818367 2.70936 22
527 1 -5.2129 -6.09517 0.435229 20
528 1 15.0506 10.7578 -5.2261 16
529 1 15.3781 -2.25497 1.56997 14
530 1 -6.5802 5.00048 14.1619 13
531 1 6.51409 -5.3194 1.96078 22
532 1 17.4197 -0.528429 2.67797 7
533 1 16.6118 0.604759 7.60316 13
534 1 2.56577 17.4254 3.06766 23
535 1 -2.07216 6.80179 13.1889 20
536 1 -1.15311 -6.53666 12.3462 14
537 1 11.3272 5.0593 5.53478 22
538 1 7.42014 10.1852 11.2204 19
539 1 -13.3873 4.05333 5.79307 13
540 1 13.5575 -5.62728 -2.40503 12
541 1 6.16218 11.7899 3.1096 23
542 1 9.73071 4.61776 13.5099 13
543 1 0.817613 20.0329 3.31348 10
544 1 4.90514 -8.064 2.71791 21
545 1 -7.1978 0.403489 -2.1478 22
546 1 4.96964 5.13081 10.6057 21
547 1 6.63989 13.4724 5.35281 22
548 1 -10.7964 -7.31175 6.38848 14
549 1 11.5449 -0.00564843 10.0404 18
550 1 15.2278 -3.68701 4.29961 13
551 1 14.6283 4.87947 10.6918 10
552 1 -4.14154 -3.20797 -10.2828 21
553 1 -4.32046 6.3084 -7.36831 20
554 1 -2.03084 -2.56554 7.93806 21
555 1 -0.356052 17.3154 2.34434 19
556 1 13.2188 2.2802 4.80551 21
557 1 4.47192 14.5738 -7.40528 15
558 1 1.11999 7.57912 16.0892 19
559 1 4.33768 10.3835 10.6869 19
560 1 10.0904 5.91594 -13.5529 10
561 1 -8.31741 -8.87115 3.38053 16
562 1 14.6554 5.34713 4.89466 18
563 1 6.74961 -0.956922 -10.0104 16
564 1 -0.149944 -5.65695 -2.83666 17
565 1 14.6393 3.22094 -3.63224 21
566 1 2.08418 -2.22833 13.2652 15
567 1 -5.57245 -6.62379 -5.63593 19
568 1 8.05122 14.6283 2.62289 21
569 1 -8.97751 8.21783 7.44352 20
570 1 11.1626 8.65528 -2.23793 22
571 1 5.84367 0.426008 -12.6551 14
572 1 -4.00878 11.3349 8.36946 23
573 1 1.77827 2.97734 -13.5588 15
574 1 11.8128 -0.285451 -0.859397 21
575 1 -8.90977 3.53274 3.05016 20
576 1 14.881 5.51391 0.804231 16
577 1 -13.5102 -5.30256 7.08366 9
578 1 8.01385 8.60772 8.07573 20
579 1 -8.62259 -0.70617 -5.17954 21
580 1 -7.21686 13.6038 11.3583 7
581 1 -0.57057 6.1621 -7.71604 24
582 1 15.6129 -1.35625 -5.39295 11
583 1 -10.8921 -7.24689 -4.64935 11
584 1 13.0048 -3.35889 -0.205561 19
585 1 -9.71905 6.95185 2.24486 16
586 1 -4.07821 -3.42252 -0.0464236 20
587 1 -4.55734 -4.40189 8.61256 17
588 1 16.3129 -2.25282 7.28266 12
589 1 13.5527 0.00917878 7.16674 21
590 1 -8.56245 9.35248 2.18941 20
591 1 1.74797 12.4013 14.3073 11
592 1 8.22381 8.81483 -7.97344 22
593 1 -3.96112 16.6824 8.51827 11
594 1 8.14337 14.898 -3.10234 13
595 1 -0.412299 11.2379 17.0114 9
596 1 8.55734 -3.17785 11.2726 15
597 1 6.65198 11.756 -12.0512 15
598 1 -0.22898 1.86447 10.2794 22
599 1 -4.0468 -3.53775 -5.09621 24
600 1 -10.5334 3.33941 0.160661 23
601 1 -2.23608 -9.03438 7.0076 19
602 1 8.05526 3.01559 8.26316 24
603 1 2.19147 -10.7758 -7.27856 11
604 1 -11.5653 4.90109 3.22358 20
605 1 14.0658 7.74972 -9.7172 11
606 1 -5.56166 16.8489 5.47887 12
607 1 -3.47911 0.508112 8.05407 23
608 1 -4.16251 -11.2331 -8.58855 11
609 1 2.17835 -9.76825 -10.6384 11
610 1 5.97011 -11.0102 2.02423 11
611 1 2.05069 4.36037 -10.597 22
612 1 13.0803 5.59776 -2.23307 21
613 1 9.74836 11.614 2.84375 22
614 1 11.7067 3.39064 2.62169 22
615 1 0.872001 10.0141 -11.8986 12
616 1 0.440069 -8.16676 7.47007 19
617 1 6.5352 11.6479 -2.13768 22
618 1 8.13604 5.12606 -5.05365 24
619 1 -6.76391 7.88174 -5.95641 22
620 1 -8.84933 -7.3901 9.25564 15
621 1 6.29476 11.6591 8.11508 22
622 1 2.75593 -10.508 2.99723 13
623 1 5.07517 11.0801 -5.13055 24
624 1 -3.9169 8.17371 10.7288 19
625 1 -10.1846 3.3551 11.004 13
626 1 11.3238 5.38258 -0.149354 23
627 1 -0.170756 -3.53571 10.4012 19
628 1 7.84789 -5.1711 6.79461 19
629 1 12.8579 8.1168 10.2822 14
630 1 6.20892 -3.53212 -5.97669 22
631 1 -5.38895 8.66633 -9.61698 15
632 1 -3.48474 12.3462 -7.41695 14
633 1 -12.2942 6.72161 0.530398 16
634 1 13.2985 14.1222 4.75604 13
635 1 0.296399 13.7293 11.4186 10
636 1 -9.14698 -8.171 -2.87309 16
637 1 12.4313 2.49722 12.4383 11
638 1 -3.677 -3.37517 5.31137 23
639 1 15.1677 5.1333 -8.502 10
640 1 10.0731 -5.55534 2.3241 20
641 1 9.33575 0.338621 -11.5921 13
642 1 -3.32524 5.86536 -12.6453 12
643 1 -8.81772 -2.82072 2.47281 20
644 1 -5.04487 8.92858 -2.68535 20
645 1 -3.64047 4.27811 14.3544 13
646 1 11.3981 -2.58969 7.37716 18
647 1 -8.34535 -10.1422 6.61022 12
648 1 12.8656 6.20094 2.85565 21
649 1 3.35411 5.38996 -13.2962 17
650 1 14.9385 8.41418 7.66937 17
651 2 -9.88441 -7.79056 -6.04108 11
652 2 -1.625 11.0333 -2.86857 20
653 2 4.16274 -0.880838 -13.3181 11
654 2 -1.87034 9.29447 10.2872 24
655 2 -7.25936 -3.35324 -7.86586 16
656 2 5.04187 3.35272 9.68433 23
657 2 -12.6294 -1.66768 3.78253 15
658 2 -8.73223 5.76482 -2.51462 21
659 2 1.65354 13.1391 12.5096 11
660 2 -10.4979 0.659825 4.88692 23
661 2 11.2931 9.12245 5.83427 20
662 2 -7.28253 -5.57841 -5.76175 22
663 2 -6.53512 5.88214 0.0303508 20
664 2 -0.262216 -4.91692 5.14583 21
665 2 4.42663 8.572 10.3533 19
666 2 8.99951 3.50594 -9.28642 20
667 2 -1.31628 -12.0488 4.17676 12
668 2 -5.07423 10.7412 -3.16025 21
669 2 -10.5458 5.70654 -5.53223 12
670 2 9.71877 7.70233 7.88202 23
671 2 12.2846 -7.04883 -1.89942 11
672 2 -12.1542 -7.58291 0.175194 12
673 2 -7.58839 -2.57802 8.35739 21
674 2 -3.17565 -10.5625 7.35148 18
675 2 13.1517 -4.29312 6.24113 15
676 2 2.69651 -7.89485 -11.7307 11
677 2 8.52162 0.550475 12.8458 13
678 2 5.43655 12.9585 -11.4596 12
679 2 -9.00372 -8.51934 -0.15017 14
680 2 0.315656 5.74101 16.6869 11
681 2 -9.14712 14.4851 3.57865 13
682 2 -2.97662 6.08507 15.1635 14
683 2 -3.14289 11.5587 -5.58359 17
684 2 9.83551 -8.43365 3.2208 13
685 2 -1.68676 10.5567 7.71709 21
686 2 4.61194 11.7958 -8.33109 20
687 2 6.6302 -3.48509 -2.81862 21
688 2 1.06079 -2.56077 -5.54467 21
689 2 14.6628 9.09046 -7.99418 13
690 2 -6.82069 4.98799 12.071 17
691 2 3.7277 7.35758 -13.6193 13
692 2 1.88844 8.10326 -9.22426 20
693 2 11.5163 10.7807 -2.12882 17
694 2 -3.05201 0.735957 10.5358 20
695 2 -4.12977 15.7996 4.82669 19
696 2 11.0207 3.62294 -6.03873 18
697 2 0.374037 -3.28793 -9.38453 19
698 2 -13.2798 -3.02414 -2.04552 13
699 2 11.2863 14.6922 5.40424 16
700 2 -3.29815 12.2052 5.13178 22
701 2 2.60359 -3.88428 -7.16201 19
702 2 0.66309 16.701 7.39742 13
703 2 8.15573 -2.50036 9.51422 21
704 2 10.2853 0.38419 4.46994 22
705 2 -8.60997 3.77567 -0.462595 17
706 2 11.799 -6.27688 1.92814 17
707 2 7.94529 -7.96443 -0.16125 17
708 2 8.56888 14.0025 4.46541 23
709 2 7.96483 -6.53775 2.68026 21
710 2 15.7588 -3.64957 6.13301 10
711 2 -4.15935 -2.71739 13.3458 12
712 2 13.348 -5.23023 -0.330164 12
713 2 -0.306726 11.7886 5.08712 25
714 2 11.4433 4.01792 12.8499 12
715 2 -5.82251 6.74543 14.4371 13
716 2 9.76201 13.3566 2.14446 22
717 2 16.7749 1.03206 3.66071 14
718 2 3.29725 11.9211 -5.45636 21
719 2 -8.57061 -1.28676 -9.96292 14
720 2 -5.00722 3.32176 10.1685 21
721 2 6.33713 6.37477 -5.36786 22
722 2 -5.12492 3.0966 -5.25014 22
723 2 -12.8528 5.95429 5.33939 13
724 2 -5.59564 -2.31849 4.97103 20
725 2 12.4457 6.44251 4.70866 20
726 2 3.74656 -2.97841 12.703 14
727 2 -0.439298 1.67432 12.2037 18
728 2 12.814 0.65985 -5.69052 17
729 2 8.42521 7.48988 14.974 11
730 2 -0.213242 11.8395 11.0368 18
731 2 -8.94683 5.54073 3.03871 22
732 2 6.27566 -5.22279 -5.16903 21
733 2 9.27953 2.31753 -3.33062 24
734 2 -3.63534 15.7202 10.1033 9
735 2 -4.46474 -11.9427 2.26004 14
736 2 12.0123 -4.57563 -5.97871 15
737 2 1.76002 10.725 7.70266 21
738 2 12.6978 -7.63699 -4.68744 9
739 2 9.44112 0.150089 10.2006 22
740 2 -12.7922 -4.74109 2.26974 15
741 2 13.4534 8.08762 1.93546 19
742 2 -9.15962 -8.48286 6.30579 16
743 2 14.5765 11.8707 -6.75111 11
744 2 1.15928 -9.59672 -4.40968 13
745 2 7.17903 1.63666 -8.84527 21
746 2 2.49035 -9.46305 -8.83841 13
747 2 11.8852 -0.650837 1.47835 21
748 2 -5.38057 16.2497 7.47555 12
749 2 16.182 9.99743 -2.28935 14
750 2 -2.38369 -8.8756 -9.73847 18
751 2 -4.70721 -4.43494 10.4656 16
752 2 -4.22115 -3.61687 1.92233 22
753 2 -4.00205 -5.50257 -0.910858 22
754 2 -5.17281 14.9353 -0.497499 21
755 2 -12.1587 12.1001 3.22902 13
756 2 11.7795 10.9458 2.99846 23
757 2 5.10956 9.16285 -5.72954 23
758 2 -4.9462 9.68284 8.83331 23
759 2 -7.62295 4.21076 -10.5433 14
760 2 -12.2868 10.531 1.13598 14
761 2 -6.37985 6.63519 9.8806 24
762 2 -11.4597 2.55972 9.82661 11
763 2 5.00479 20.3995 4.84856 9
764 2 13.3375 5.14098 -0.223665 23
765 2 9.84005 -3.32083 -3.72301 21
766 2 -8.76216 2.16248 10.3681 18
767 2 3.29629 13.82 2.52159 25
768 2 -6.23719 17.84 -0.00472992 12
769 2 -6.69458 8.20088 2.8418 20
770 2 15.6239 -0.78132 6.42255 16
771 2 -2.96691 -10.6468 -6.92787 15
772 2 10.1319 7.86679 -12.9075 11
773 2 13.366 12.4171 5.60465 18
774 2 -9.85159 -3.63856 10.0489 14
775 2 1.85591 10.7193 -2.81769 22
776 2 -1.4221 17.0645 -2.77618 16
777 2 3.02487 12.0528 -0.328093 22
778 2 15.5453 0.566451 9.22573 13
779 2 1.26517 8.86126 10.4362 25
780 2 14.9924 -2.64035 -0.730169 14
781 2 -3.55082 6.25398 10.4157 19
782 2 2.79727 0.0153052 9.86375 22
783 2 -9.90428 6.94028 0.379622 17
784 2 -4.20621 -3.97328 -12.5024 12
785 2 9.93345 -8.56959 -3.0559 14
786 2 2.08344 -1.19516 -8.34224 20
787 2 16.6089 2.49139 -4.48043 13
788 2 -5.35718 3.49304 14.2245 11
789 2 5.65037 4.77172 -8.47563 23
790 2 -8.17774 -6.53861 10.8948 10
791 2 -5.20467 5.11211 -12.0181 13
792 2 4.57779 -10.875 3.19675 13
793 2 6.6805 -9.23833 -2.8736 18
794 2 14.2215 12.0185 -3.79662 16
795 2 -6.65693 9.97648 -8.93846 11
796 2 -1.78462 14.9915 5.36158 19
797 2 -9.90582 -2.04533 5.87907 19
798 2 -8.67963 5.18861 -8.0294 16
799 2 6.75942 9.71544 -8.91418 20
800 2 7.59629 17.3041 1.47287 13
801 2 -11.8086 -6.72993 4.6346 13
802 2 15.1038 4.84886 8.70055 15
803 2 -1.84437 7.43114 17.8455 10
804 2 -8.06782 -9.08885 -4.07575 14
805 2 9.82931 -6.37503 -5.16833 17
806 2 1.77461 3.29939 14.5622 13
807 2 7.09917 18.3441 4.23669 14
808 2 16.7579 1.72162 -1.39653 11
809 2 5.24973 7.13302 17.9391 7
810 2 12.809 14.7021 -2.57474 12
811 2 -12.6921 -3.69212 8.17377 13
812 2 8.06085 -2.49991 0.388406 18
813 2 3.6105 17.832 5.55815 17
814 2 8.08809 8.97363 5.12061 23
815 2 -2.68383 5.96039 -10.6569 20
816 2 5.68302 1.61964 13.0524 14
817 2 -6.26735 14.087 2.25669 21
818 2 -0.416595 -2.96755 7.10792 20
819 2 8.2474 -7.79374 5.92161 13
820 2 -1.66424 -7.53721 -6.49799 17
821 2 -0.278345 13.5947 -9.12459 14
822 2 -10.4414 -3.17522 -2.13775 21
823 2 -4.77351 -9.83073 -3.06656 13
824 2 3.87917 2.02854 -8.91349 21
825 2 -2.01321 -5.58167 -8.89934 21
826 2 2.98548 11.7944 10.6478 19
827 2 -8.71572 -2.68548 0.353501 19
828 2 -9.8609 11.65 5.33767 13
829 2 15.2037 -2.74125 8.88462 12
830 2 -6.53893 11.9651 -0.325891 21
831 2 -3.66004 -9.21176 2.89155 18
832 2 -0.917615 9.75003 18.2286 9
833 2 7.21748 3.9933 -11.3822 15
834 2 -4.5236 2.66501 -10.9662 20
835 2 7.61193 9.94997 -11.7898 17
836 2 15.5541 3.7685 0.655534 13
837 2 -7.18101 -3.84651 -3.2264 19
838 2 -8.05415 9.02779 0.369696 21
839 2 -4.43513 16.6195 -3.0078 14
840 2 -1.94701 -0.936798 12.515 19
841 2 -2.30912 -2.72018 -5.25714 19
842 2 5.91563 0.788271 -6.18042 21
843 2 7.78252 3.66186 -6.28179 23
844 2 8.36734 12.4247 12.1191 10
845 2 4.22722 -9.32743 6.90103 14
846 2 0.541913 1.59858 -8.28128 23
847 2 13.2827 6.32777 10.7476 13
848 2 11.3823 5.4526 -12.0188 13
849 2 1.11806 -6.56891 -8.05462 17
850 2 2.74812 11.5239 -11.022 16
851 2 9.75939 17.3824 5.35895 11
852 2 16.8485 7.88941 8.35236 8
853 2 -6.81366 2.56017 7.46017 22
854 2 -11.7528 6.79308 2.65971 17
855 2 1.76904 -7.14029 8.41325 19
856 2 -1.06652 7.65301 -8.85102 19
857 2 -10.1239 -4.23991 3.33737 19
858 2 -7.23231 -3.51709 11.3229 14
859 2 2.11584 -11.0199 8.87908 13
860 2 -7.77522 15.2958 -1.48025 15
861 2 -1.267 -5.30248 -11.8055 16
862 2 -12.8293 2.43943 7.13134 12
863 2 6.86582 -2.07441 11.4819 17
864 2 -5.27921 -6.07374 2.30921 20
865 2 -7.0505 0.39911 4.98102 21
866 2 11.315 -3.53579 9.38026 15
867 2 5.04028 14.3603 -5.32905 18
868 2 8.23913 13.9878 10.0718 12
869 2 11.6738 9.01076 0.201484 18
870 2 1.6294 16.9229 -2.85922 16
871 2 -6.94891 2.68495 -6.93787 22
872 2 6.92215 18.5522 7.19264 10
873 2 -11.7828 -6.21189 7.64914 11
874 2 -7.03331 2.35552 2.13423 22
875 2 -0.345924 15.9034 -7.79899 11
876 2 -3.46614 -11.6215 -0.373035 14