ITEM: TIMESTEP
4000
ITEM: NUMBER OF ATOMS
500
ITEM: BOX BOUNDS pp pp pp
-30.0 30.0
-30.0 30.0
-30.0 30.0
ITEM: ATOMS id type x y z Coordination
1 1 5.85369 -1.69964 8.57635 9
2 1 -3.3851 6.22495 8.79873 13
3 1 -8.38007 2.06587 3.80249 20
4 1 -4.44393 0.250867 -9.1541 17
5 1 -10.4625 -0.0756147 -2.50612 14
6 1 -1.61049 1.89727 -11.4889 7
7 1 5.9638 -9.25337 -3.695 6
8 1 1.06692 3.88839 6.46076 23
9 1 -0.0355398 5.49979 -6.77508 24
10 1 0.269954 6.60133 8.71889 13
11 1 -10.3872 -3.46514 1.68952 16
12 1 7.28021 -2.27078 -3.46598 15
13 1 0.963738 1.20413 9.98413 13
14 1 -9.54255 -5.76265 0.0343803 13
15 1 -4.46748 -6.55273 -6.54866 14
16 1 4.76977 2.38385 -6.15666 23
17 1 4.8421 -3.40738 4.30792 16
18 1 -4.83008 8.116 3.46227 19
19 1 -3.63568 9.24622 0.107554 15
20 1 -1.83004 -6.04958 -8.79554 13
21 1 -3.79546 3.48217 6.73007 22
22 1 7.35669 -1.49017 5.22441 8
23 1 -8.84401 8.34481 3.68408 12
24 1 1.32165 6.27812 -9.30352 14
25 1 5.57427 8.3886 -1.76735 18
26 1 -1.7776 8.397 -6.24665 15
27 1 -6.94284 5.15623 -6.77333 21
28 1 -3.62047 8.89894 -3.99255 15
29 1 -1.21065 8.0126 -1.18384 20
30 1 -10.4158 3.05747 0.89722 14
31 1 -1.65996 6.24592 6.06468 18
32 1 -6.34289 2.68124 -9.23418 15
33 1 -6.30317 -6.56933 3.93097 16
34 1 2.98199 -5.89161 -1.65422 20
35 1 -9.65403 -0.949589 3.2758 23
36 1 -8.31285 0.18801 -4.02149 21
37 1 -1.68125 -8.72081 3.50551 13
38 1 3.19255 3.18137 -9.28777 16
39 1 -6.96481 -8.29696 -4.33446 11
40 1 -1.76624 6.04158 -10.813 10
41 1 -1.431 11.0567 -1.35138 11
42 1 -9.82226 -1.40943 5.96743 15
43 1 0.106972 8.90845 6.4483 13
44 1 1.81703 0.912389 6.9273 21
45 1 1.86553 -8.59507 -2.78233 20
46 1 6.0777 4.22898 -8.16891 10
47 1 -4.56632 -8.11793 1.21919 15
48 1 2.94394 -1.39327 9.38797 11
49 1 0.0128064 -4.23693 6.94167 12
50 1 4.07979 11.0936 -1.45139 9
51 1 -7.46557 -7.85908 1.21305 13
52 1 0.244954 -8.24723 0.257395 20
53 1 -4.08165 0.638634 6.40973 20
54 1 -7.4645 -0.54826 8.15938 13
55 1 2.47545 -10.354 -0.0214962 12
56 1 -11.4857 -3.52714 4.83612 12
57 1 -5.23503 6.45104 6.05024 18
58 1 -10.3455 4.86733 3.16547 12
59 1 -6.48993 5.08161 7.91547 11
60 1 -7.54887 -5.40758 -6.11154 12
61 1 -10.8252 4.3254 -7.36735 8
62 1 -5.68665 -3.17338 -6.67798 18
63 1 4.27102 1.41339 9.3171 12
64 1 -1.74831 -3.02065 9.35312 11
65 1 -7.65213 -0.568373 -8.83931 10
66 1 -10.8033 -3.17892 -1.74942 13
67 1 -3.02826 -9.4544 -0.464148 16
68 1 -7.16195 5.36149 3.91039 22
69 1 -0.480508 -7.12508 -6.51884 19
70 1 -3.14422 9.12533 5.64584 12
71 1 -10.3186 2.60724 -4.63361 15
72 1 -9.62011 6.95581 -6.84578 8
73 1 0.353466 -10.0188 -5.70712 15
74 1 3.01963 -5.80557 3.87401 18
75 1 -9.16313 5.57769 -4.2033 17
76 1 -4.64259 -0.457987 9.4677 13
77 1 -9.72968 1.22948 6.17757 11
78 1 1.68477 -5.54844 -8.47767 10
79 1 -3.97842 -5.20466 7.50811 16
80 1 3.22445 -7.43666 -5.51389 13
81 1 6.10515 3.38741 0.681784 18
82 1 1.51105 0.523888 -8.9875 15
83 1 1.61221 -9.01035 3.37151 10
84 1 -6.34818 -9.03511 -1.2593 11
85 1 -7.90241 -3.63856 4.65404 21
86 1 4.32333 4.00598 7.1029 15
87 1 7.95934 6.16499 -0.0183437 11
88 1 0.143471 3.3004 -9.30037 19
89 1 -1.89615 7.64796 -8.84922 13
90 1 -2.17709 10.4008 2.12512 12
91 1 5.04971 0.930062 -8.79567 12
92 1 3.44076 -7.95578 1.35917 15
93 1 4.82115 -5.28362 0.781929 18
94 1 -0.0327061 -5.88633 4.24861 19
95 1 -8.1605 2.08209 -7.14993 20
96 1 6.40377 0.22358 -0.676171 19
97 1 -4.90899 8.32605 -7.14836 13
98 1 2.89172 -10.5469 -3.80639 11
99 1 -9.50675 -3.4795 7.85872 12
100 1 -0.238385 -11.2615 -2.19305 13
101 1 2.17689 -4.1775 -6.13494 16
102 1 5.48536 -8.23026 -0.594986 12
103 1 -1.06039 -8.06253 -2.82956 23
104 1 -2.16239 0.500601 10.618 9
105 1 -4.43662 2.74497 9.55339 13
106 1 3.18781 -0.664872 -6.41283 19
107 1 -8.92785 7.84697 -1.70357 12
108 1 2.43155 8.42907 -1.63084 20
109 1 6.50015 4.13882 -4.48602 15
110 1 -3.20044 3.67685 -9.6178 18
111 1 -11.2616 1.47019 3.34543 13
112 1 0.778754 -1.70815 7.28808 16
113 1 -10.2851 0.496884 -6.43388 13
114 1 6.29953 -1.78801 1.77028 19
115 1 2.39377 4.07449 9.25026 15
116 1 -1.46186 -7.51419 6.32323 11
117 1 5.86159 4.32083 3.77266 14
118 1 4.68321 7.74032 3.68145 11
119 1 -2.69339 -8.96296 -7.00369 11
120 1 2.8195 6.70845 6.60407 13
121 1 -3.27823 5.32634 -6.44925 25
122 1 -3.92639 -8.12157 -3.79031 18
123 1 4.5489 6.10128 1.05401 21
124 1 -8.54485 6.18475 0.724664 18
125 1 4.50631 6.38906 -3.82502 20
126 1 -0.858712 3.46051 8.92135 17
127 1 -1.48489 0.247543 -9.06877 18
128 1 6.39722 -6.01188 -2.48598 13
129 1 0.866523 11.2085 3.40468 9
130 1 -6.95595 9.2863 5.5973 11
131 1 5.36892 -3.96428 -5.58118 9
132 1 3.28331 -3.61365 6.7956 12
133 1 -6.73896 2.13366 6.86692 14
134 1 5.41253 0.561392 6.54099 15
135 1 0.0866143 9.03888 -3.90962 16
136 1 7.92932 6.81341 -3.0904 8
137 1 -4.36379 -3.2071 10.343 8
138 1 -2.55649 -2.64278 6.38964 19
139 1 -7.18024 8.63003 1.67785 15
140 1 3.92283 9.85758 1.29152 14
141 1 -9.32886 -5.85572 3.08076 13
142 1 6.50959 1.01785 3.09314 15
143 1 -6.99255 -6.0563 -1.81416 17
144 1 3.22928 4.99295 4.32396 20
145 1 10.4287 -1.68036 -3.04546 6
146 1 1.06951 10.0346 0.745305 17
147 1 -10.0924 -2.75639 -5.07829 11
148 1 1.75446 8.4546 -6.61057 14
149 1 -6.34565 0.064194 -6.4353 23
150 1 0.0231816 -2.72532 -8.74825 14
151 1 -2.46321 -10.7938 -3.95211 12
152 1 -4.28285 -8.22702 6.30102 10
153 1 7.7738 -3.45856 -1.35028 11
154 1 -11.4251 -0.606668 0.621221 12
155 1 -5.03711 6.09378 -9.17554 14
156 1 -9.32148 -5.35336 -3.54942 14
157 1 3.67491 2.32978 4.46766 22
158 1 -3.06429 -2.61089 -9.02174 13
159 1 -9.12229 6.50093 6.13141 10
160 1 -6.76939 -3.27037 8.29122 15
161 1 6.69994 9.03396 0.96235 9
162 1 8.14698 3.55121 -1.97463 12
163 1 -6.98963 -5.79466 6.40133 13
164 1 3.18709 5.19589 -6.86191 23
165 1 5.10602 7.72454 -7.39869 8
166 1 1.88084 8.24464 3.65462 18
167 1 3.70995 9.52327 -4.37157 12
168 1 8.50856 1.01003 -4.24175 10
169 1 6.47721 -0.802234 -5.84259 13
170 1 -1.10206 7.88698 3.3319 19
171 1 -6.25624 8.17289 -1.58798 18
172 1 -3.4012 -5.76334 4.58409 21
173 1 5.85582 -6.77706 3.39642 8
174 1 -8.10012 -3.15814 -0.98262 20
175 1 -7.19397 8.16066 -4.69711 16
176 2 -10.6443 -2.9628 6.43331 11
177 2 4.56748 5.70031 3.04432 16
178 2 -10.2557 1.50574 -3.15489 14
179 2 -2.61953 -8.64363 5.27811 10
180 2 -0.789419 1.96807 9.90978 13
181 2 -7.18104 5.42546 5.88886 18
182 2 6.12249 -7.80826 -2.47274 10
183 2 -6.26672 0.713919 -9.44637 13
184 2 0.0116595 -6.71405 -8.46842 10
185 2 -4.89024 8.93729 5.62341 11
186 2 6.77678 -2.1918 3.67294 11
187 2 5.3778 10.1793 -0.0348144 11
188 2 -1.67293 8.02572 6.11967 17
189 2 2.70835 10.1132 -0.460719 13
190 2 1.65439 6.62492 -7.30448 17
191 2 5.15548 0.09301 -7.0498 15
192 2 -10.682 2.29 -6.88513 10
193 2 -3.16052 -6.82374 7.17452 10
194 2 -8.11642 0.51709 2.66776 23
195 2 4.6168 -10.5237 -3.71515 8
196 2 1.54265 -10.409 -2.34638 14
197 2 0.00781432 5.05295 5.52464 23
198 2 1.43812 -0.442629 8.7576 15
199 2 -5.99106 -7.83071 2.34618 15
200 2 1.51836 -9.30733 1.30246 12
201 2 -9.16884 -6.78548 1.46274 12
202 2 -5.08872 -9.41302 -0.154944 12
203 2 -5.68205 -8.82741 -2.95589 15
204 2 -7.0289 8.85455 3.64428 13
205 2 3.20612 3.24536 -7.08945 23
206 2 4.00295 7.14192 -1.98733 20
207 2 -0.274238 7.14594 -9.81607 11
208 2 6.25799 2.85668 2.62632 15
209 2 -2.1659 10.7575 0.253807 12
210 2 -8.22814 6.72193 2.64421 19
211 2 -0.880415 9.57893 -2.29382 16
212 2 3.73995 8.33496 -6.06724 12
213 2 -3.66859 5.47408 5.92078 23
214 2 -0.805353 -2.70247 7.85492 13
215 2 1.37451 -3.83898 -8.07628 11
216 2 -0.52307 -6.56922 -4.02492 19
217 2 -3.23696 -5.2592 -5.17755 20
218 2 -8.56195 -5.00513 -1.70319 16
219 2 9.19715 -2.57072 -2.15245 7
220 2 2.61531 9.49047 2.63958 14
221 2 -2.93811 -0.862474 -9.79051 14
222 2 -0.258716 1.56087 -9.94954 18
223 2 -3.22048 -7.26647 -7.8421 12
224 2 1.43249 -6.2663 -6.09306 14
225 2 6.06004 3.87741 -6.46684 14
226 2 -7.92414 -5.70902 4.33495 16
227 2 -1.78243 -4.21568 -8.72422 14
228 2 -0.900273 -9.0209 -6.62585 13
229 2 -2.94944 1.67923 -9.90774 16
230 2 -5.56067 6.1399 3.5842 20
231 2 -7.50274 -7.43401 -0.719455 14
232 2 -8.0092 7.88186 -0.1062 15
233 2 -9.41865 -2.47009 4.3197 19
234 2 -11.0411 -1.17994 -1.17855 14
235 2 1.29496 -5.04676 3.11517 22
236 2 9.96888 -0.379812 -4.18385 7
237 2 0.659404 7.05592 2.69991 18
238 2 -5.4369 -2.21785 9.19391 13
239 2 -10.1162 2.86338 3.45354 17
240 2 -9.93212 -0.71783 -4.90413 16
241 2 8.4562 5.29269 -1.78006 10
242 2 -10.465 -1.70285 1.66889 17
243 2 -3.25732 8.68507 -7.78745 13
244 2 3.15497 1.18599 -9.52631 14
245 2 -10.1662 4.97819 1.17162 12
246 2 4.39436 -5.59709 -5.74933 12
247 2 0.451516 -7.94402 -1.69063 21
248 2 -8.39361 8.23827 5.68921 10
249 2 4.10415 -9.43994 0.113301 10
250 2 1.31653 7.63983 7.28721 13
251 2 -4.20647 9.14529 -2.02567 16
252 2 -7.95231 -3.96937 6.55046 16
253 2 -3.31821 6.26166 -9.81515 13
254 2 6.83044 -0.173878 -3.89718 17
255 2 0.153439 2.43573 7.38143 19
256 2 7.22374 7.67473 -0.761158 11
257 2 3.12955 7.16155 4.62814 16
258 2 -10.7261 -4.30642 -0.214539 14
259 2 -1.50087 6.15356 7.97973 14
260 2 4.71396 -0.528238 9.32174 10
261 2 -1.46908 4.13199 -10.5367 14
262 2 -2.91085 3.65681 8.60456 18
263 2 3.79815 -4.75164 5.31243 11
264 2 -8.18043 2.15383 -5.22533 22
265 2 -6.90422 5.07117 -4.63528 21
266 2 -9.19479 5.24344 -7.33335 13
267 2 -3.83809 -4.21613 5.76866 19
268 2 -0.308812 10.8126 2.02071 14
269 2 -8.321 -6.76804 -4.61001 10
270 2 6.02822 0.193948 1.2027 18
271 2 -7.5272 8.40697 -2.94263 13
272 2 6.51149 -1.77448 -1.0809 15
273 2 -4.83049 -5.1858 3.4578 20
274 2 -5.37158 -6.9836 -4.85225 17
275 2 -1.97374 8.01352 -4.16022 18
276 2 -9.94398 6.25037 4.34034 11
277 2 -3.02388 -4.32659 8.81991 13
278 2 -10.5091 0.247185 4.68163 15
279 2 -5.19531 6.52239 8.21815 10
280 2 -9.07522 6.17424 -2.32397 15
281 2 4.70126 10.0201 -2.80043 10
282 2 -5.7791 3.13315 8.25625 15
283 2 -2.65547 -1.35549 9.91815 10
284 2 -6.59488 -1.5717 -7.47291 15
285 2 -1.78221 6.50642 -7.19421 22
286 2 -2.78074 -7.53576 -2.25691 24
287 2 3.47453 0.391028 6.07202 21
288 2 6.34235 5.39038 0.485246 18
289 2 2.92751 -7.61848 3.2437 15
290 2 4.73496 2.73196 -4.22021 18
291 2 0.618442 4.88318 9.50789 12
292 2 -4.03904 1.14496 10.2975 10
293 2 -8.6125 -4.10354 -5.01214 12
294 2 -2.25844 8.04756 0.28868 22
295 2 -8.98109 -0.238571 7.15388 14
296 2 -10.7508 -4.67679 3.41631 13
297 2 -1.98204 -10.2727 -1.86438 13
298 2 2.64394 2.25539 9.62224 15
299 2 -5.56004 6.39516 -7.33853 17
300 2 4.87943 5.78098 -7.89076 13
301 2 1.79621 -9.25002 -4.7591 16
302 2 6.44311 -1.55347 6.84492 11
303 2 2.66941 4.84459 7.52724 15
304 2 0.0193088 9.003 -5.99814 15
305 2 -5.9566 -5.24578 -7.12692 13
306 2 -2.73724 9.05885 3.60022 16
307 2 -5.06222 8.21165 -5.17249 17
308 2 -10.413 4.43745 -5.21359 14
309 2 -8.18145 2.18416 5.73365 18
310 2 1.66308 4.50188 -9.64017 16
311 2 3.7239 -2.64405 -5.94286 12
312 2 -8.68474 7.36521 -5.32322 13
313 2 -5.15608 4.10301 -9.78283 13
314 2 3.2963 -2.86072 8.38145 11
315 2 -5.82148 0.339413 7.51401 17
316 2 -8.23994 -2.22354 8.66875 10
317 2 -0.528646 -5.75323 6.154 17
318 2 -11.1506 0.920589 1.5423 12
319 2 -5.92586 -4.88077 7.64653 16
320 2 0.0222742 -8.24376 4.20246 14
321 2 5.10269 2.10792 7.72976 15
322 2 2.66227 -6.71779 -3.45705 18
323 2 -5.02707 8.26145 1.42863 19
324 2 -8.68536 0.423585 -7.51661 14
325 2 -5.0375 2.12289 5.49805 18
326 2 1.34035 -3.29309 6.08255 18
327 2 5.20518 2.78652 -9.14684 11
328 2 5.30192 7.97005 1.82076 14
329 2 6.65946 0.419288 5.05455 13
330 2 6.40835 -2.55504 -5.32338 12
331 2 4.88921 -5.20748 2.98701 15
332 2 6.35304 5.91115 -3.63047 14
333 2 -10.6305 -3.46756 -3.52225 11
334 2 -8.34257 -3.18827 0.925564 23
335 2 2.85554 -6.57876 0.241778 22
336 2 1.93839 8.39121 -3.82403 19
337 2 6.99107 2.36801 -0.856345 15
338 2 3.14842 5.37606 -4.63572 24
339 2 6.73667 -4.18761 -2.80875 11
340 2 5.42793 -7.19678 1.39038 12
341 2 -0.345158 -10.8967 -4.2023 12
342 2 0.623065 8.42358 -0.25316 21
343 2 0.811581 9.97359 4.90993 11
344 2 -2.38904 -8.29808 1.30832 15
345 2 -5.76624 -7.15707 5.61982 13
346 2 4.62554 4.02299 5.34471 17
347 2 7.7529 2.70354 -3.82545 13
348 2 -6.53525 3.38709 -7.35188 18
349 2 -2.9754 -9.51612 -5.29225 14
350 2 4.78926 -5.14399 -1.59448 17
351 1 -4.87391 -5.19637 -3.90991 23
352 1 -7.32629 -2.60548 -3.90595 22
353 1 -3.08399 -0.61901 -6.61578 23
354 1 -2.56118 -4.06972 -6.3939 17
355 1 -1.93562 -5.3724 -3.61781 22
356 1 -3.33766 -2.56899 -4.19865 24
357 2 -5.23811 -5.11081 -1.85935 22
358 2 -6.49098 -2.43963 -2.02943 21
359 2 -6.85874 -0.816376 -4.62027 21
360 2 -5.62193 -3.75155 -4.92163 18
361 2 -3.65346 -2.49157 -6.95866 17
362 2 -1.99569 -4.8408 -1.67524 22
363 2 -3.47329 -2.37616 -2.08922 25
364 2 -3.33552 -0.589239 -4.42842 20
365 2 -1.2713 -3.20695 -5.1185 19
366 1 -6.79748 -0.761419 -1.20352 22
367 1 -5.02653 -3.35515 -0.890849 23
368 1 -5.19361 -5.24677 1.70807 20
369 1 -6.70807 -2.29626 1.70958 24
370 1 -6.74636 -0.500529 3.75055 22
371 1 -4.94093 -3.23058 4.38611 22
372 1 -3.65452 -6.03246 -1.11203 23
373 1 -3.73034 -0.572397 -1.27779 22
374 1 -1.60438 -3.17367 -1.08859 21
375 1 -2.04617 -6.46527 1.64831 20
376 1 -3.28621 -2.38568 1.33435 24
377 1 -3.69009 -0.497754 3.71135 20
378 1 -1.77314 -3.30473 3.34165 20
379 2 -6.5228 -2.35755 3.93979 20
380 2 -6.62665 -0.576358 0.802585 22
381 2 -5.4759 -3.49214 0.855363 19
382 2 -3.98787 -6.23941 0.737654 23
383 2 -1.77335 -5.2211 3.37091 22
384 2 -3.78863 -2.24663 3.1227 22
385 2 -3.30473 -0.662837 0.680287 24
386 2 -1.67708 -3.36718 1.06413 24
387 2 -3.54144 -1.1496 5.93975 20
388 1 -4.91063 2.31796 -6.99638 22
389 1 -5.28729 0.0925418 -3.79269 22
390 1 -6.88613 3.09536 -4.09251 23
391 1 -5.24855 6.30503 -4.31627 22
392 1 -1.89631 2.63744 -6.74789 25
393 1 -1.95568 0.747147 -3.82096 25
394 1 -3.84622 3.61721 -3.96363 22
395 1 -1.57914 6.15668 -4.19163 23
396 2 -8.35788 0.140368 -1.7518 19
397 2 -4.52735 0.507624 -7.13753 23
398 2 -5.42422 0.707997 -2.14811 23
399 2 -7.1563 3.21898 -2.10291 20
400 2 -4.99598 2.24634 -4.73651 24
401 2 -5.42648 6.59564 -2.31004 21
402 2 -1.71312 0.7372 -7.04583 22
403 2 -3.455 3.56262 -7.53352 22
404 2 -2.17068 0.548259 -1.93589 22
405 2 -3.71138 3.69851 -2.06225 23
406 2 -3.20059 5.47151 -4.61597 22
407 2 -1.86851 2.58459 -4.82174 25
408 2 -1.70643 6.13722 -1.70726 21
409 1 -8.81086 2.17433 -1.6591 17
410 1 -8.40422 0.511103 0.810592 25
411 1 -7.27793 5.3454 -2.06798 21
412 1 -5.54536 2.30277 -1.28543 24
413 1 -5.1327 0.655715 1.26426 24
414 1 -7.09694 3.45371 1.02228 23
415 1 -5.4609 2.62937 3.7089 22
416 1 -5.39479 6.07865 1.0294 24
417 1 -3.64262 5.67721 -1.40657 24
418 1 -2.32148 2.61723 -1.20032 23
419 1 -1.96849 0.346709 1.47778 24
420 1 -3.79537 3.48174 1.41743 23
421 1 -3.6005 5.52403 3.83122 20
422 1 -1.99703 2.42133 4.18358 23
423 1 -1.01473 1.0705 6.79058 20
424 1 -2.27462 6.31514 1.087 23
425 2 -8.59129 2.34036 0.197621 21
426 2 -5.2207 0.657984 2.98391 25
427 2 -7.16281 3.5264 2.86459 24
428 2 -6.87899 5.11518 -0.0835266 23
429 2 -5.25762 2.49216 0.763435 23
430 2 -1.98733 0.431239 3.44708 23
431 2 -3.6948 3.54359 3.4327 23
432 2 -3.80395 5.27244 0.560734 20
433 2 -2.10289 2.49998 0.805467 22
434 2 -2.6935 1.66741 5.87857 19
435 2 -2.05989 6.33791 3.21316 22
436 1 -0.0568858 -0.447363 -6.53225 21
437 1 1.20778 -5.49829 -4.3128 20
438 1 -0.0333788 -2.11739 -3.87482 22
439 1 3.07929 -2.47031 -3.93744 19
440 2 0.159376 -1.01262 -8.42901 14
441 2 1.29648 -4.92843 -1.72997 21
442 2 -0.257361 -2.17051 -1.98636 25
443 2 -0.38314 -0.240379 -4.47025 21
444 2 1.48385 -3.5374 -4.48171 20
445 2 3.22501 -2.33997 -1.81139 18
446 2 3.33235 -0.455016 -4.31954 20
447 1 -0.284025 -5.85936 -1.37557 21
448 1 -0.302465 -0.18024 -1.39298 23
449 1 1.42043 -3.01785 -1.43393 23
450 1 1.27154 -5.06541 1.19999 21
451 1 0.145863 -2.3169 1.3467 21
452 1 -0.182966 -0.35516 4.03055 22
453 1 1.5046 -3.13342 4.02915 22
454 1 3.25084 -0.472827 -1.36037 23
455 1 5.08571 -3.04623 -1.45857 18
456 1 3.42561 -2.21492 1.31631 23
457 1 3.34807 -0.517376 3.5251 22
458 2 -0.315679 -6.34765 0.472531 21
459 2 -0.287781 -2.2471 3.44972 21
460 2 -0.385473 -0.343927 0.699984 23
461 2 1.78712 -3.11429 0.669527 23
462 2 0.212964 -0.183307 5.98661 20
463 2 3.40851 -2.40133 3.43406 20
464 2 2.84481 -0.55904 0.776534 22
465 2 5.20166 -3.29408 0.679136 19
466 1 1.36932 2.41136 -6.61227 24
467 1 1.38224 0.536495 -4.0274 21
468 1 -0.277016 3.38524 -4.15511 24
469 1 1.68198 6.31879 -4.08313 22
470 1 5.08524 0.84319 -3.80549 21
471 1 2.76508 3.49472 -3.99177 21
472 2 1.77413 0.444394 -6.91106 20
473 2 -0.128203 3.28301 -7.4031 25
474 2 1.31302 0.498639 -1.91939 23
475 2 -0.515982 3.44394 -2.29693 24
476 2 0.089218 5.45567 -4.74003 26
477 2 1.36874 2.49113 -4.60676 24
478 2 1.42456 6.28745 -2.1087 21
479 2 4.75409 0.762289 -1.80388 19
480 2 2.84267 3.57572 -1.9796 22
481 1 -0.0196639 5.20726 -1.47693 21
482 1 1.08349 2.32705 -1.59723 23
483 1 1.28611 0.528556 0.98813 22
484 1 -0.487916 3.22613 1.50139 23
485 1 -0.520973 5.35154 3.73669 20
486 1 1.41714 2.38048 3.6252 24
487 1 1.17572 6.69541 0.689754 22
488 1 3.16568 5.44296 -1.44265 21
489 1 4.55 2.69135 -1.61841 20
490 1 4.05344 1.083 1.06657 22
491 1 2.45829 3.86818 1.27813 23
492 2 1.48259 0.397912 3.26977 24
493 2 -0.337529 3.19847 3.48961 21
494 2 -0.317932 4.94788 0.425515 24
495 2 1.45644 2.37477 0.501572 22
496 2 2.02449 2.53502 5.67954 21
497 2 4.30445 1.02043 3.07532 23
498 2 2.78368 3.54716 3.13171 23
499 2 2.62299 5.60779 0.43408 19
500 2 4.23609 2.92447 0.773748 24
