ITEM: TIMESTEP
24000
ITEM: NUMBER OF ATOMS
2000
ITEM: BOX BOUNDS pp pp pp
-30.0 30.0
-30.0 30.0
-30.0 30.0
ITEM: ATOMS id type x y z Coordination
1 1 -8.44309 3.2263 -16.44 14
2 1 -4.56013 -10.9484 -7.78743 16
3 1 -0.815748 10.5127 13.4875 17
4 1 7.44904 -14.3253 6.12239 12
5 1 -11.661 9.6824 -0.31174 19
6 1 10.3329 -11.6084 -10.7331 15
7 1 -9.13812 0.122148 -6.35246 18
8 1 3.28203 -11.2232 9.70744 20
9 1 -10.2022 -0.331081 -12.8252 14
10 1 -13.715 -9.49191 5.89325 13
11 1 13.5762 -0.491487 -13.5624 11
12 1 -7.95561 -17.4763 0.91864 12
13 1 -13.3312 -9.85107 2.01855 12
14 1 -3.8442 4.57709 19.1329 9
15 1 0.570877 9.38441 -9.09356 19
16 1 1.50857 0.942747 14.6642 22
17 1 -8.36768 0.175183 -17.4241 12
18 1 -12.3259 -4.44731 12.5615 13
19 1 12.0108 0.281046 11.8135 18
20 1 1.00145 8.55074 -12.0204 19
21 1 3.9357 6.15462 -11.8604 19
22 1 13.8821 -2.01811 12.5445 8
23 1 -15.3262 4.91653 -7.45134 7
24 1 -9.46531 9.47939 7.0921 21
25 1 6.55796 -13.1396 3.61392 17
26 1 2.37951 -10.0963 -13.0746 17
27 1 7.88521 -11.2221 1.61875 21
28 1 -8.06312 -15.1615 -6.40196 14
29 1 -11.0289 -7.42391 12.7502 13
30 1 -0.464457 -9.52952 -13.547 17
31 1 7.60952 -10.433 -12.2653 15
32 1 -0.233398 4.79021 -16.6851 15
33 1 -0.852155 3.98153 10.6631 19
34 1 -1.02909 -13.5397 7.12576 19
35 1 4.05616 -6.21961 15.578 11
36 1 -11.9006 -1.97974 0.96741 19
37 1 -14.8863 -3.44297 7.66114 14
38 1 -4.20536 11.9344 -3.20718 20
39 1 -2.33261 -14.5571 -10.5949 11
40 1 5.35022 -5.06289 -10.582 21
41 1 2.46771 -5.3352 10.9784 20
42 1 -11.3868 3.02065 0.265869 17
43 1 2.14701 11.6822 -11.8109 14
44 1 1.33325 11.9116 7.44912 20
45 1 -8.63991 11.6853 -7.71026 13
46 1 -1.76342 13.8654 -1.9388 16
47 1 1.94048 -14.6474 2.71545 22
48 1 5.4747 -10.5427 -3.83774 20
49 1 4.51726 -6.95001 -17.1695 16
50 1 -12.5911 8.39365 7.88692 11
51 1 -13.5986 -3.90147 -8.09793 13
52 1 -6.54199 6.80798 -5.3267 23
53 1 -11.5616 -10.8801 7.19579 17
54 1 -2.04982 14.8345 11.1879 12
55 1 -11.6008 3.4807 -5.62914 16
56 1 -8.45969 10.8183 11.4962 12
57 1 -5.19553 -15.4925 8.02544 15
58 1 5.24368 -16.6618 -2.60944 16
59 1 0.451039 13.8353 13.374 14
60 1 -11.83 0.0203339 -4.53357 19
61 1 -14.102 1.86904 -8.90546 14
62 1 2.11748 4.55498 15.3208 19
63 1 14.091 -9.99925 -11.3283 8
64 1 8.84142 -11.4295 4.79898 14
65 1 -16.856 -2.28358 4.38228 10
66 1 4.15796 13.7201 8.27127 16
67 1 7.10813 -6.14271 15.5352 11
68 1 -6.76335 -12.5218 7.16892 20
69 1 10.5702 2.76488 7.80009 20
70 1 0.777574 11.8426 11.0603 21
71 1 -3.03614 -8.15847 -11.8684 16
72 1 -11.5626 4.87123 7.59113 16
73 1 -8.73058 8.46986 -1.95896 20
74 1 -7.06149 6.26172 -8.61005 18
75 1 11.1798 10.6335 -8.72243 8
76 1 7.93291 -10.9878 7.96775 13
77 1 -9.36075 13.6734 -4.52626 18
78 1 -11.3868 10.0046 2.14004 16
79 1 -6.37992 -5.70637 16.1659 10
80 1 -5.81564 -7.51652 11.0542 16
81 1 13.4302 -10.8594 -7.79106 12
82 1 -11.2707 3.98592 3.70505 19
83 1 -11.4896 -14.389 5.26277 15
84 1 10.6354 -11.992 -6.83542 17
85 1 5.88433 -2.3192 -12.7364 19
86 1 -3.03958 -0.217327 -16.7455 17
87 1 -1.22836 13.0192 2.01313 18
88 1 -9.97573 5.26539 -9.5664 13
89 1 -0.899837 9.51363 18.2752 12
90 1 -1.11394 12.3804 -8.07206 20
91 1 -14.8751 5.26752 0.529194 15
92 1 -2.96848 -8.74169 9.49762 21
93 1 12.2913 0.32972 8.52759 18
94 1 5.66073 -7.9331 -8.52701 19
95 1 5.9074 -5.29725 18.6023 6
96 1 -10.1011 -11.0836 1.05328 19
97 1 -7.60992 -9.45343 -3.47754 18
98 1 10.6745 -9.96798 2.28442 14
99 1 5.40163 -0.301609 -17.0335 13
100 1 5.91425 14.0969 -1.66761 18
101 1 -9.00542 -13.1972 8.91866 17
102 1 -9.8067 -15.6008 10.3717 8
103 1 6.40754 -10.4224 -17.4505 6
104 1 7.68031 -8.428 3.21168 22
105 1 1.84331 -14.502 8.50975 13
106 1 -8.73554 -9.10351 2.77537 19
107 1 13.219 3.00919 9.5472 17
108 1 13.3342 -6.6009 -11.116 13
109 1 -16.1721 -1.84677 0.0261204 11
110 1 9.93308 7.57104 6.01209 20
111 1 16.6242 4.64415 -0.093129 9
112 1 -5.45463 5.03867 16.1724 15
113 1 -7.01982 12.0235 8.5822 13
114 1 -3.83201 11.4885 -6.19092 20
115 1 0.277035 -7.69172 -8.37827 20
116 1 6.72899 -12.623 -10.1657 11
117 1 1.04266 14.3564 -9.52325 11
118 1 5.97463 -6.44612 11.8211 14
119 1 -0.801613 -1.29512 -18.0932 12
120 1 -2.64579 8.64351 -8.16718 20
121 1 12.9509 -0.520784 -2.1492 18
122 1 -12.4401 10.7623 -7.43201 7
123 1 -7.42316 12.0586 -2.15986 18
124 1 7.7621 0.0163051 -8.98261 19
125 1 7.95753 -8.03773 6.57375 18
126 1 -7.39048 9.22538 9.10386 19
127 1 13.494 1.39783 -7.55643 13
128 1 6.88454 6.4279 -2.57772 20
129 1 -3.13314 15.7111 0.649763 15
130 1 9.16078 12.838 -0.9615 15
131 1 -1.2306 12.997 -4.76123 19
132 1 -0.915856 15.2593 -7.06466 14
133 1 3.51908 9.17748 -13.923 14
134 1 -14.2651 -12.6707 7.11992 9
135 1 -16.0966 5.83544 -2.7175 10
136 1 -5.57675 -2.02726 -13.4284 16
137 1 2.71334 -12.6227 -11.1426 14
138 1 10.892 11.3246 8.97544 7
139 1 -0.95047 13.041 5.83064 19
140 1 -9.26963 -6.21357 -6.95773 19
141 1 -14.371 8.27109 1.19437 14
142 1 14.4625 -0.0471674 -4.65649 12
143 1 -9.78135 2.38939 -13.8442 12
144 1 5.1609 0.752827 18.6197 11
145 1 4.97605 17.4163 6.20878 9
146 1 -3.75836 8.62285 8.64086 18
147 1 0.533465 -7.48756 -16.7501 14
148 1 -4.80083 14.6829 8.93294 12
149 1 -0.944121 10.0878 -6.4233 18
150 1 2.21152 -4.85079 14.1433 17
151 1 -10.654 -7.64309 8.83088 18
152 1 -2.42131 -11.8615 -12.7715 13
153 1 -7.34985 11.1262 -11.0356 11
154 1 -3.5841 -11.2919 4.48923 21
155 1 3.23636 -17.6797 -4.31976 11
156 1 -1.9616 9.99199 -10.8404 17
157 1 -14.4861 -0.357132 9.28847 14
158 1 9.43907 8.04331 -7.09238 19
159 1 -8.3723 4.92593 14.2028 17
160 1 0.0513057 -10.871 9.28933 20
161 1 1.54953 17.1649 6.25521 11
162 1 -0.846603 7.10641 8.64045 20
163 1 10.4429 2.98364 14.1848 18
164 1 -10.2469 15.52 0.0533721 10
165 1 13.1604 -13.142 -9.41184 9
166 1 -5.94128 11.2766 14.0747 10
167 1 11.103 -7.24355 0.895551 20
168 1 -14.7229 -0.737278 6.03531 16
169 1 -8.82391 -12.2599 5.27011 19
170 1 4.78814 4.4818 16.7969 19
171 1 -16.8137 -0.116249 -3.12975 10
172 1 -3.50919 -14.4174 2.11317 18
173 1 -3.43404 8.24049 4.8499 20
174 1 3.4116 13.1199 12.274 14
175 1 -12.0847 11.1183 -3.88062 11
176 1 -14.2531 -3.78864 -5.00525 14
177 1 -8.51377 -2.57553 12.5409 20
178 1 -0.97556 -10.0218 5.61699 22
179 1 3.95186 -16.1031 7.4832 11
180 1 -15.1037 8.51161 4.76546 7
181 1 17.2531 2.84772 4.68198 10
182 1 -9.69938 -7.75467 -9.51059 16
183 1 4.0517 -0.799315 14.3626 21
184 1 4.74083 -15.4844 4.5998 16
185 1 -2.29231 3.6971 -11.5368 19
186 1 5.04546 -9.92652 -10.8368 19
187 1 8.1154 -6.44752 -13.8467 18
188 1 4.39177 6.33082 -15.9269 12
189 1 -6.28168 -5.30861 -8.04136 22
190 1 -7.7613 14.6798 -6.90813 10
191 1 -8.02264 -8.71811 11.3284 17
192 1 5.19248 16.0028 -5.43906 9
193 1 -8.05603 2.38734 16.064 15
194 1 -6.97607 11.7987 -5.25836 19
195 1 7.11651 -1.74503 9.36494 16
196 1 -3.60438 -4.57133 -13.1853 22
197 1 -5.42507 8.23585 -9.89256 21
198 1 2.03698 6.30681 -9.26494 19
199 1 -5.65904 -10.9624 10.0302 20
200 1 -8.52523 2.99103 5.41991 21
201 1 -6.73425 6.55507 9.20547 19
202 1 -0.207816 -10.4716 -7.05365 20
203 1 -5.80572 -13.5026 0.341975 19
204 1 10.5014 -12.8917 -2.89645 12
205 1 10.1711 7.99714 15.6874 12
206 1 6.17201 10.5055 -8.10673 18
207 1 -13.7317 7.73337 -1.86314 16
208 1 3.42435 7.47303 9.38653 19
209 1 0.0809521 -16.141 0.313746 14
210 1 10.0679 -1.81413 -2.59332 19
211 1 -8.79213 5.55974 3.72542 19
212 1 -8.12776 -5.79844 0.848258 20
213 1 8.68624 -0.810282 -13.0051 15
214 1 2.36811 -2.04584 12.2796 22
215 1 12.191 7.2512 -10.1143 9
216 1 -3.02066 -1.81812 -11.8052 19
217 1 -2.40511 -16.5752 7.28941 13
218 1 9.15887 -2.90416 -7.17929 21
219 1 -12.2808 -6.29197 5.86657 16
220 1 2.92984 -17.946 -0.71223 16
221 1 -10.9427 -5.03397 -10.1607 18
222 1 4.17834 12.5373 -0.359825 21
223 1 0.981586 -2.00511 -12.7715 20
224 1 4.34603 1.55362 15.708 20
225 1 14.728 1.91463 2.92025 18
226 1 8.42119 -7.31634 -10.7227 21
227 1 -9.90503 -2.84872 -11.2678 20
228 1 -11.7705 0.207719 -7.35478 21
229 1 -6.51313 -13.8119 10.4627 13
230 1 8.13336 0.600887 12.0391 17
231 1 -4.48446 -10.2835 -10.753 16
232 1 1.35707 5.81105 -13.8166 16
233 1 1.41738 11.7514 3.86313 21
234 1 -6.15988 -4.69381 12.6609 21
235 1 -9.87148 -11.9183 -5.70528 13
236 1 -6.74137 -4.11084 -11.4643 20
237 1 -1.33016 7.41528 -14.7499 18
238 1 -5.28963 -10.9512 -4.34761 18
239 1 7.19734 -4.92977 -16.81 12
240 1 13.5895 -3.84925 -12.7129 12
241 1 12.1926 3.71496 2.58501 18
242 1 -8.91464 -5.76839 10.9825 21
243 1 -3.48143 -11.7698 1.19779 20
244 1 6.49221 5.55812 19.1218 9
245 1 -4.1084 -13.8788 5.83434 18
246 1 -0.454197 -13.3699 0.777134 18
247 1 -0.0543214 16.3888 -1.11347 14
248 1 10.9753 -1.12128 -15.7373 14
249 1 -5.50851 -1.83553 -16.7786 19
250 1 -7.40551 -7.58012 13.8849 14
251 1 1.255 7.77795 18.3048 13
252 1 2.96564 -12.0234 -1.35375 18
253 1 -4.9532 -14.3474 -11.8478 8
254 1 -8.13627 3.02366 -8.17405 19
255 1 7.39417 6.58979 8.30741 16
256 1 -5.49548 2.66422 -10.0347 21
257 1 -3.65642 5.42026 -9.44876 20
258 1 6.78153 -15.1785 -7.8275 10
259 1 -4.68402 14.7439 -1.78636 17
260 1 0.59407 8.89345 5.27289 21
261 1 10.0988 1.16051 5.15222 19
262 1 -8.90215 0.196288 7.39289 20
263 1 -3.34145 -5.76971 10.7663 18
264 1 -5.99895 10.1574 3.34275 20
265 1 2.30551 -5.03995 -12.3957 19
266 1 16.279 7.02445 0.443362 6
267 1 4.94127 -13.285 0.847761 20
268 1 -2.13431 -3.05503 15.7092 12
269 1 -14.3973 -6.99824 8.22898 13
270 1 0.993532 -17.4095 -5.73959 12
271 1 -11.1123 9.54393 12.8989 7
272 1 -9.00831 4.91724 11.4741 16
273 1 -14.3107 -5.12634 10.2185 11
274 1 -14.0242 -8.50792 11.4236 8
275 1 9.89335 -7.21368 -3.65159 20
276 1 -14.2514 -11.8389 10.4589 8
277 1 12.8421 -3.53423 -7.62829 15
278 1 8.02227 -14.5715 -2.19925 16
279 1 2.31453 18.2677 -2.14122 11
280 1 -8.87946 9.40341 -5.02358 18
281 1 8.18021 10.6824 14.9517 12
282 1 9.99433 -12.6916 0.162988 14
283 1 -4.03708 11.8801 3.98495 21
284 1 5.27086 -12.7697 7.60177 17
285 1 14.5062 -5.16359 7.1117 6
286 1 0.566118 -1.01543 17.3012 13
287 1 -5.0357 14.5255 2.3829 14
288 1 8.17859 4.88358 15.4996 19
289 1 -11.0085 8.39021 -3.30292 16
290 1 0.51156 -4.38734 -17.6148 12
291 1 4.94672 -10.6807 -14.4553 13
292 1 -7.77933 -0.493649 14.1989 20
293 1 -11.7791 0.751631 2.22819 16
294 1 -6.09505 10.0142 -0.085443 19
295 1 7.84398 -4.80686 8.05298 19
296 1 -12.4298 -13.3628 2.16184 10
297 1 4.53305 -9.07163 7.43313 20
298 1 -4.92211 -12.114 12.8818 8
299 1 -13.2756 3.43089 -1.81407 14
300 1 2.97624 -11.5018 -5.48994 20
301 1 -5.63593 -2.55692 -9.86497 20
302 1 8.09289 -10.079 -8.74867 18
303 1 2.94365 16.9082 8.84838 9
304 1 -10.6734 -2.61976 -2.47026 19
305 1 5.46857 -5.55656 -14.2886 21
306 1 8.73536 1.46528 -16.0358 14
307 1 -4.89821 -16.1238 -5.95628 17
308 1 -12.4113 -7.00943 -6.08255 15
309 1 7.30304 3.13465 17.3414 13
310 1 11.0265 4.38701 0.171082 16
311 1 -11.0423 2.13546 -9.20244 20
312 1 2.55108 17.3706 0.846359 14
313 1 -13.9617 -3.8691 -1.40368 19
314 1 -6.17673 6.80958 5.59331 18
315 1 -12.3721 6.57628 1.89759 18
316 1 6.93624 1.86793 14.5583 20
317 1 11.6285 -2.2539 -5.19868 14
318 1 10.529 -5.11641 14.5324 12
319 1 11.0972 3.38686 -6.00757 19
320 1 -4.09636 -17.5221 -3.00449 16
321 1 5.59155 -10.4451 -0.681554 22
322 1 9.398 -1.58889 7.43833 20
323 1 -10.178 -8.31944 -3.95682 18
324 1 -5.61817 -10.1668 2.5901 18
325 1 -5.15546 -8.71688 14.3131 11
326 1 -3.13221 12.1063 0.208737 21
327 1 -12.3721 -11.4816 -4.24521 11
328 1 3.90033 7.65028 15.1132 16
329 1 -10.5935 3.95974 -3.14031 16
330 1 3.45596 12.3339 -8.57143 17
331 1 7.18001 9.44651 6.21425 16
332 1 -11.992 -7.23749 -1.73642 19
333 1 -2.75531 -8.33291 -7.67264 21
334 1 -11.8268 -1.36347 7.66169 19
335 1 -13.042 4.90901 -9.32194 12
336 1 6.43775 -10.3215 5.00233 20
337 1 -2.26695 -15.3024 -1.95332 17
338 1 11.1773 8.31026 9.25284 16
339 1 6.17586 4.13012 -15.8005 10
340 1 -8.50852 2.58618 -11.4295 18
341 1 -4.37066 12.0652 -12.3496 11
342 1 -10.1778 6.6424 -5.49165 17
343 1 1.36623 -14.6076 5.60683 22
344 1 11.7816 6.67245 3.6743 16
345 1 1.31042 7.93823 -15.575 14
346 1 -16.0527 1.11905 4.23985 10
347 1 -6.08233 -15.4873 3.03201 18
348 1 8.54042 -8.82444 -6.14737 17
349 1 -11.8406 -1.42146 4.32106 18
350 1 -16.2374 -2.35588 11.0358 7
351 1 -15.5295 5.71097 6.93096 6
352 1 -11.3394 1.91087 -16.9512 6
353 1 8.79419 -14.5701 -5.45998 11
354 1 -2.10086 -10.1007 -15.7892 8
355 1 -3.09544 -1.86391 12.7757 17
356 1 -3.37047 6.02702 -17.4444 11
357 1 4.59573 -13.6018 -2.41827 20
358 1 1.74661 11.3612 -6.06021 21
359 1 -11.7887 10.5975 5.36518 11
360 1 -5.42187 -2.83313 15.0759 16
361 1 -8.29433 -9.61835 -11.1059 9
362 1 -6.32708 -7.61843 7.94924 23
363 1 10.097 -3.01269 9.95494 15
364 1 9.67551 -4.05176 4.47143 18
365 1 14.3856 4.48152 -8.57921 12
366 1 -3.3927 3.35904 12.4171 19
367 1 1.04047 11.8638 0.235501 18
368 1 -3.74699 -13.2911 -4.51989 17
369 1 -2.08561 6.95778 13.2242 18
370 1 -4.59088 15.8579 5.51456 11
371 1 -7.22033 -13.9011 -4.30151 21
372 1 5.26587 14.3956 5.47084 14
373 1 5.25347 9.40477 7.78768 14
374 1 -5.58503 1.32976 8.62689 22
375 1 -11.4845 4.2292 10.7618 13
376 1 -5.3961 -8.41369 -5.8584 20
377 1 -8.70611 8.81856 4.47206 19
378 1 -5.33391 -14.5 -2.40819 21
379 1 -5.35783 -5.00827 -16.5032 13
380 1 -8.25108 -15.15 5.4178 19
381 1 10.0815 0.952215 10.0849 17
382 1 -3.43756 -6.20214 14.6439 12
383 1 -7.28351 5.50526 -14.1194 13
384 1 12.3995 8.46135 -2.29601 14
385 1 -10.8562 -14.9464 -4.26867 15
386 1 -0.440601 16.3406 1.78147 13
387 1 -7.58419 7.733 12.1556 19
388 1 -10.7667 -4.84489 -0.0945401 22
389 1 -2.72905 16.0525 -4.56267 11
390 1 2.94286 18.0465 -5.51881 9
391 1 -6.02373 -8.57455 -9.18818 19
392 1 1.9941 2.25262 17.2352 15
393 1 0.0758755 -13.0327 -8.99365 16
394 1 -0.705973 -6.65555 -10.9082 18
395 1 7.58543 -16.6905 3.13884 10
396 1 -11.2974 6.63136 5.15477 17
397 1 -0.538132 3.9253 18.0471 14
398 1 9.41673 10.4148 -2.58773 20
399 1 -8.24406 7.94337 -11.6947 15
400 1 -14.4261 -6.56291 -3.02401 11
401 1 -0.430342 16.0287 8.58871 13
402 1 -3.49631 1.58319 -12.8253 20
403 1 9.41576 6.40089 2.27613 19
404 1 8.12547 12.248 -9.6012 9
405 1 14.7164 -1.11613 0.842468 15
406 1 -0.697405 0.535968 -11.2643 22
407 1 0.831069 -17.5834 5.88662 13
408 1 3.8636 -11.3852 12.8403 9
409 1 -9.2189 -0.543756 -9.86607 18
410 1 -12.6775 -14.4191 8.53266 12
411 1 -6.38028 -12.7432 -6.45341 17
412 1 7.50737 11.9536 7.86136 14
413 1 1.40403 3.34809 -11.4945 19
414 1 3.97823 -2.16842 18.0225 13
415 1 -14.2474 3.64137 12.9751 9
416 1 -3.53394 -17.9432 2.73348 16
417 1 -16.1867 -4.73532 1.58832 11
418 1 13.262 -6.62855 -7.33916 15
419 1 9.89328 -1.56948 1.12857 19
420 1 2.49876 -8.9301 -7.43827 18
421 1 3.8218 3.64093 -9.5995 19
422 1 13.7914 -5.25771 -4.66837 10
423 1 -6.76716 -0.0860854 17.0729 11
424 1 3.12043 16.4134 3.72128 13
425 1 -1.76983 -1.90637 -14.2321 17
426 1 6.38208 1.25191 -14.1813 14
427 1 -6.4835 -4.75596 9.60694 21
428 1 -6.7915 15.8178 -0.19598 13
429 1 -8.34385 -3.5934 -16.9402 10
430 1 -14.6674 -1.87354 2.65941 17
431 1 -4.26349 -7.8309 -14.7897 14
432 1 -1.73615 -11.8219 11.7001 14
433 1 4.72572 10.2043 -5.83484 21
434 1 15.9793 1.21008 7.55927 14
435 1 14.3699 2.71052 0.455869 16
436 1 -11.3992 -13.4291 -1.28688 12
437 1 -3.81358 -0.593058 -19.1387 11
438 1 -10.4792 11.0427 9.62721 13
439 1 13.8365 -5.42393 0.879996 10
440 1 6.7258 13.4077 -6.69484 13
441 1 12.7096 2.10031 -11.2728 13
442 1 2.4433 10.9161 14.6156 18
443 1 -11.5238 1.46587 9.02942 18
444 1 6.85777 7.38822 13.5843 24
445 1 5.32775 -3.58672 15.6899 22
446 1 -6.30805 2.98747 -13.1466 20
447 1 -0.283352 -1.33339 14.2131 21
448 1 5.35036 10.5246 13.0036 19
449 1 8.22939 5.75372 -8.83693 19
450 1 -6.21011 9.52999 -6.82435 21
451 1 1.46572 12.5429 -2.77166 22
452 1 11.7858 -4.54797 12.0447 13
453 1 9.5278 -2.13899 -10.0342 19
454 1 11.7137 -10.3025 -4.01821 15
455 1 10.7218 9.82734 12.6378 13
456 1 -14.0448 -6.56487 0.628345 15
457 1 -5.83481 9.44362 -13.3609 13
458 1 -13.7131 -1.07058 12.3514 11
459 1 -4.51017 11.1178 -8.81124 17
460 1 -0.505111 -18.2487 -2.64265 15
461 1 5.9677 -2.49317 -9.16872 20
462 1 -6.11496 14.9583 -4.57518 16
463 1 -6.77958 -5.73135 -14.0997 15
464 1 4.55176 -16.5957 1.57924 17
465 1 -8.22702 -8.51808 -0.590036 23
466 1 0.311711 10.5574 -14.4667 11
467 1 -2.76867 10.0299 15.3846 16
468 1 -9.10212 -5.62246 7.46132 20
469 1 0.997678 -9.98648 -10.3529 21
470 1 3.27816 -7.80316 12.5238 17
471 1 -9.11263 5.84377 0.323785 19
472 1 2.76337 5.09859 19.2333 9
473 1 5.54376 17.6727 -1.73669 8
474 1 10.9647 -4.91544 -4.34657 21
475 1 1.19989 9.12202 11.8082 16
476 1 3.02892 3.96286 -17.6025 9
477 1 -3.02637 -14.7057 10.2811 12
478 1 9.18051 -3.16863 -14.3768 16
479 1 1.21122 14.3418 4.36321 17
480 1 6.2079 4.24746 -10.9703 17
481 1 -1.19241 -4.12127 -11.9966 19
482 1 -2.72032 -11.7999 -2.24413 19
483 1 -13.5048 -3.96373 -11.8667 11
484 1 13.4226 5.81788 5.84615 19
485 1 15.4875 1.86856 -2.06724 12
486 1 12.002 -8.62027 -6.00879 16
487 1 12.5525 6.6381 13.9393 10
488 1 7.90608 -11.7221 -1.48829 20
489 1 5.33469 0.782062 -10.8852 18
490 1 9.90777 13.1574 2.59219 11
491 1 7.44734 8.20402 17.0233 12
492 1 10.2235 7.018 -1.2056 20
493 1 12.7679 -5.52995 5.057 11
494 1 9.7582 1.17263 -11.2151 16
495 1 7.20182 -0.973944 15.5272 17
496 1 12.7714 3.72113 13.0539 13
497 1 11.9587 11.7653 -3.07916 10
498 1 -1.04401 1.43162 16.1642 18
499 1 14.8387 -3.95489 -9.51684 9
500 1 7.3788 4.60061 11.8968 19
501 1 -8.16425 -3.42329 -8.27569 18
502 1 14.9829 3.77742 7.05894 14
503 1 -11.1159 6.09958 13.0284 15
504 1 7.99078 10.0006 11.4364 14
505 1 12.4395 0.887715 14.3996 10
506 1 0.653103 9.12405 8.70329 18
507 1 1.46144 14.2334 10.0665 19
508 1 -8.01431 -19.785 5.11008 6
509 1 -6.35608 9.06768 -3.47544 23
510 1 11.0254 5.62755 -7.75972 19
511 1 11.399 -5.54545 -14.582 9
512 1 3.03754 15.2973 -2.02443 20
513 1 -0.331443 -13.5432 -5.71226 19
514 1 5.8072 -7.48625 -12.1629 20
515 1 -10.9462 1.71246 6.03917 19
516 1 -8.25251 -1.89671 -14.6163 15
517 1 -4.97096 -16.4348 0.331838 18
518 1 -6.18965 -0.0733535 -11.4777 21
519 1 -14.2439 1.53793 -5.56716 15
520 1 9.86893 -7.02193 3.79087 17
521 1 15.0642 7.16989 2.99032 14
522 1 1.85461 -11.7263 7.26915 21
523 1 -14.2334 -0.943663 -6.6558 13
524 1 2.57539 0.512394 -18.7415 8
525 1 -4.79689 5.99508 13.309 20
526 1 6.47976 7.29612 -12.936 14
527 1 13.8164 -4.41927 14.9471 5
528 1 9.39435 2.59254 -8.40444 19
529 1 12.7374 11.1326 3.32362 13
530 1 3.25332 -15.4042 -7.31191 14
531 1 -11.3096 -2.10698 14.3399 15
532 1 12.3603 -2.10265 6.16445 19
533 1 -2.86862 12.9503 13.8711 12
534 1 5.31293 10.2929 -11.39 11
535 1 -12.9306 7.48198 -7.2318 10
536 1 11.3399 8.9445 1.19823 16
537 1 -8.69416 -15.1015 -1.78849 13
538 1 11.2209 -4.5781 2.28163 21
539 1 7.48155 14.8813 7.09444 9
540 1 -3.02553 6.10458 10.0917 21
541 1 -10.6468 -8.02222 0.920792 19
542 1 -13.2374 -6.76717 -8.88087 9
543 1 9.33638 -6.21824 11.2459 13
544 1 1.19129 -10.0657 11.8349 16
545 1 5.18737 4.3667 13.8901 22
546 1 -6.01816 12.794 0.885117 20
547 1 -1.61258 1.64511 -19.0686 10
548 1 -9.24721 -2.92425 9.25271 20
549 1 8.0362 -4.63665 -8.7039 18
550 1 13.2064 -12.4451 -5.34673 7
551 1 7.54081 3.69873 8.8569 18
552 1 -10.1877 0.322958 15.8306 14
553 1 9.80265 6.48427 13.5692 17
554 1 2.1152 -2.40366 15.5357 17
555 1 -0.732458 4.19561 14.0293 15
556 1 -0.21394 -5.19061 -14.5007 19
557 1 -5.33634 3.97105 10.504 19
558 1 4.65664 2.27454 12.3101 21
559 1 -10.2658 -16.241 7.54527 15
560 1 13.7858 6.04578 -5.79848 13
561 1 5.50077 -13.2271 -5.79722 16
562 1 4.74762 9.48297 0.712418 17
563 1 7.64563 12.3368 4.78918 15
564 1 2.10302 -1.38942 -16.4134 16
565 1 4.33338 13.0119 -4.14133 20
566 1 12.1955 12.1498 0.620237 11
567 1 -5.49473 -10.6955 -0.799732 24
568 1 -2.49115 2.74569 -15.9549 17
569 1 -9.4526 11.3613 -0.0831963 18
570 1 11.3174 -8.24298 -12.4813 13
571 1 10.3967 4.25721 -10.3355 16
572 1 8.82589 11.0003 -6.32463 16
573 1 9.18356 1.304 16.0649 13
574 1 8.89057 -3.61143 16.2772 11
575 1 0.328608 -13.5393 10.7792 16
576 1 -3.11161 7.05135 -12.2848 18
577 1 3.53888 11.0839 9.37051 22
578 1 6.68128 -8.23586 -15.0164 18
579 1 8.92985 13.6347 -3.70227 11
580 1 10.1819 10.0284 3.95382 16
581 1 13.1271 -8.01659 -3.7125 16
582 1 4.12944 7.75864 19.6242 8
583 1 -12.1226 -4.56218 8.88113 21
584 1 -1.99091 -18.7512 5.63085 10
585 1 -11.7148 13.1093 2.22011 9
586 1 7.40697 8.366 3.29467 13
587 1 -15.3493 -5.05832 4.75804 12
588 1 -2.43521 4.63086 15.9858 20
589 1 -5.19378 6.78909 -14.4928 15
590 1 -6.30256 5.24043 -11.739 20
591 1 2.70263 -14.9783 -0.565249 20
592 1 8.07061 5.18689 -5.54153 24
593 1 -11.6296 3.43645 15.0691 11
594 1 3.25498 -3.03094 -13.7385 18
595 1 3.99305 -14.1112 10.5991 10
596 1 1.86921 14.4552 1.59392 21
597 1 -4.68844 2.31031 16.5674 14
598 1 -9.25818 -6.68764 -12.6354 12
599 1 -5.62053 -6.49492 -11.7876 17
600 1 -5.51707 -14.5724 -8.61308 16
601 1 -4.10949 14.4335 -7.22004 13
602 1 -4.04804 11.9372 10.9256 16
603 1 5.9851 -10.2083 -7.08114 17
604 1 6.4981 -17.8429 -0.507935 11
605 1 2.52798 -8.36662 9.37378 19
606 1 12.4113 -1.76409 -10.3909 16
607 1 -0.43278 -15.8314 -8.14043 11
608 1 -11.463 -1.77709 10.9027 17
609 1 -5.01563 -19.4131 0.206371 9
610 1 -7.96305 -11.762 -1.24679 19
611 1 -8.8624 -0.00787769 10.7681 19
612 1 -7.77971 -17.1706 -3.82633 13
613 1 15.1507 3.15566 -5.49611 14
614 1 -8.59096 14.3176 2.30857 15
615 1 -14.5375 6.19825 3.93865 13
616 1 9.65851 -1.65936 3.86931 21
617 1 -12.2063 -1.54428 -10.1553 16
618 1 10.7276 -0.107939 -7.84674 20
619 1 5.0407 9.98284 15.9908 13
620 1 -13.8179 -1.25274 -2.86318 17
621 1 -7.7265 -9.25024 -7.06615 17
622 1 -3.84699 7.9294 17.5083 13
623 1 9.7074 6.41602 -12.336 10
624 1 12.5282 9.94603 6.39193 14
625 1 -2.91187 0.23087 10.8398 19
626 1 -2.64625 -19.7491 -0.285549 10
627 1 -7.29654 -17.7704 7.27307 12
628 1 13.2038 5.93352 10.5322 13
629 1 3.0471 -7.50404 -10.6441 19
630 1 -9.06958 -5.88276 4.18326 18
631 1 9.78372 3.08089 -13.519 13
632 1 -2.32414 -16.586 -5.3853 14
633 1 -0.310155 -19.4447 2.83642 14
634 1 -1.10497 -16.626 3.66807 18
635 1 6.20458 3.09182 -8.25166 20
636 1 4.65868 15.3376 0.774965 14
637 1 -5.7233 0.713465 -15.1203 18
638 1 -1.36784 1.22355 12.8983 18
639 1 3.79094 2.99815 -13.6263 16
640 1 -10.6874 -3.58077 -14.2103 10
641 1 -8.60277 -6.03868 -2.88787 22
642 1 0.65408 15.4479 -3.93509 17
643 1 -2.58648 -3.39469 -17.5072 16
644 1 9.50994 7.31844 -3.53175 21
645 1 9.93571 -5.71865 -7.25416 21
646 1 -10.1143 7.98099 9.67786 20
647 1 4.40203 -10.4987 2.3934 22
648 1 13.4402 -8.73603 -0.280719 9
649 1 9.97089 -1.20478 13.5668 15
650 1 -1.78834 10.4112 6.85161 21
651 1 -13.3468 0.701548 15.4423 9
652 1 -8.02579 2.61682 9.15514 18
653 1 -6.94962 -12.2714 3.11235 18
654 1 2.94053 6.11077 12.6786 16
655 1 -16.1575 1.25209 1.24935 10
656 1 7.31227 -8.90537 -3.25311 20
657 1 -11.2546 13.2187 -2.15359 10
658 1 2.03318 -17.3132 2.77392 18
659 1 5.25632 -3.79832 12.8142 18
660 1 -1.13287 13.2846 8.5168 20
661 1 1.28753 -11.191 4.1573 22
662 1 2.04851 3.33865 12.3218 24
663 1 -11.8273 -5.00591 -3.58424 22
664 1 -0.046383 12.1809 15.947 13
665 1 3.99462 12.513 3.02056 16
666 1 -11.0656 -10.4992 3.67719 18
667 1 -5.42535 -17.673 5.46851 13
668 1 8.2635 -7.88746 9.2797 12
669 1 11.4529 -5.84469 8.37622 11
670 1 8.6426 7.28708 10.435 16
671 1 -1.77105 -10.1198 -9.92202 20
672 1 -0.782224 3.08892 -13.6161 19
673 1 -3.98341 0.0594413 14.7824 17
674 1 -2.5574 17.7331 3.77511 6
675 1 15.2518 -0.262636 4.06047 13
676 1 6.27707 7.77631 -6.86926 19
677 1 -5.6862 8.61095 14.971 12
678 1 5.5504 7.96707 11.2522 17
679 1 8.06598 -4.37161 -11.8884 21
680 1 -9.13991 -14.1998 2.31848 20
681 1 16.7702 -1.52985 6.86861 5
682 1 3.24449 -2.68004 -10.7565 20
683 1 -0.744846 7.83946 15.6321 16
684 1 9.51721 -14.2602 -8.88139 12
685 1 7.76344 -1.91825 -16.906 13
686 1 12.255 1.706 -14.6559 10
687 1 12.3942 -2.9661 -0.751955 19
688 1 -0.891864 -4.47336 12.63 15
689 1 3.09066 -9.34325 -16.7578 12
690 1 6.4981 11.143 -2.96583 20
691 1 -13.8694 2.61088 6.58785 14
692 1 13.0063 2.86859 -3.12723 22
693 1 15.0702 4.51436 3.53524 19
694 1 3.2757 -7.65903 -14.202 19
695 1 -6.49595 13.3556 4.86657 15
696 1 14.6308 7.5697 8.11872 13
697 1 11.8746 9.15251 -5.38551 13
698 1 1.03347 0.537903 -13.8968 16
699 1 9.55831 -4.35211 -0.745236 22
700 1 -10.6853 0.516733 -1.38027 17
701 1 10.3047 4.34084 4.75057 24
702 1 -11.3054 -10.1226 -1.87184 14
703 1 -11.5002 8.17986 -9.8703 10
704 1 4.88122 4.49183 10.6004 22
705 1 -10.9148 -3.02105 -6.13881 17
706 1 -8.40363 6.38107 6.90887 19
707 1 10.988 -8.44872 -9.3225 18
708 1 -11.1541 -9.57836 -7.17172 14
709 1 10.8568 -9.71738 -1.52085 19
710 1 -13.8264 3.14559 2.68901 16
711 1 11.4254 5.93622 8.0036 18
712 1 -6.41691 -10.0354 5.47884 20
713 1 7.34063 -0.987102 18.0775 11
714 1 14.2778 -1.10694 9.35148 11
715 1 -11.9511 6.16832 -0.799116 21
716 1 -1.89659 10.5308 9.97764 20
717 1 5.41166 6.52855 -9.532 20
718 1 -2.89028 -6.6951 -16.6735 12
719 1 -4.00706 12.7162 7.37136 21
720 1 -10.7869 -11.0738 10.2189 12
721 1 8.00699 8.83552 -10.3694 15
722 1 1.01923 5.99772 10.3546 20
723 1 11.8108 -6.09821 -1.66581 20
724 1 5.90345 -9.1196 10.5831 14
725 1 -0.972366 12.5845 -11.1896 10
726 1 2.85593 8.64006 -8.24588 18
727 1 -6.14414 -1.38393 11.1275 19
728 1 17.5518 6.36942 5.25391 10
729 1 -3.85137 -5.99969 -9.62133 23
730 1 14.1348 9.7289 0.883657 11
731 1 -17.2532 3.23106 -1.98026 9
732 1 -3.38727 -11.3655 7.70006 17
733 1 2.59263 14.5941 -6.3682 17
734 1 5.16638 -0.787835 10.7902 18
735 1 0.187655 -13.5721 -2.33105 20
736 1 -8.5926 15.7447 -2.7238 11
737 1 -12.9506 5.9278 -3.9973 16
738 1 10.9523 -4.81472 -10.0917 20
739 1 0.178955 -12.6795 -12.2329 16
740 1 -8.72357 8.44123 1.43909 23
741 1 11.9412 5.88753 -4.31743 19
742 1 4.48348 -3.24095 -17.5398 10
743 1 -6.88803 -12.1617 -9.95163 11
744 1 2.63532 -14.7432 -4.3151 19
745 1 -4.66364 8.82785 11.6168 20
746 1 7.40363 -14.6496 0.920282 16
747 1 -3.07807 10.597 -14.9688 9
748 1 9.945 1.50512 -3.38555 15
749 1 7.62459 9.26222 -0.690683 19
750 1 0.390543 -20.8595 -0.0997357 8
751 1 2.9985 -5.0975 -15.9127 16
752 1 12.2607 -0.295188 2.69183 21
753 1 -3.2428 4.77235 -14.1453 19
754 1 -0.0570302 -7.49703 11.0375 19
755 1 7.17125 8.82996 -4.62006 20
756 1 -8.48482 2.2492 -1.16505 16
757 1 -14.2151 3.3142 9.2763 12
758 1 -1.82426 6.64676 19.9839 9
759 1 -8.24456 -9.94562 8.80524 18
760 1 3.4845 8.99366 4.15635 18
761 1 -1.3215 -13.0105 3.963 23
762 1 3.63535 10.3313 -3.05716 18
763 1 -5.81223 10.406 6.0626 18
764 1 -6.70388 1.91726 12.8264 16
765 1 -9.60222 11.4641 3.84739 16
766 1 -2.2807 -9.27966 13.0568 13
767 1 3.98926 -12.8613 5.05945 21
768 1 10.1823 4.21397 10.4909 20
769 1 7.19675 -6.01412 -5.30459 19
770 1 2.39201 -12.5184 -7.61696 17
771 1 -5.45614 2.07142 -17.9959 11
772 1 0.869686 2.44275 -16.5619 15
773 1 5.91805 12.6957 10.3274 15
774 1 -9.3702 -4.89286 14.5079 15
775 1 -8.66969 8.16823 -7.9555 18
776 1 -16.5333 3.20801 -4.75613 9
777 1 6.87407 12.4923 1.21592 16
778 1 -9.82049 -16.8141 3.64077 11
779 1 15.1314 9.3629 5.31939 10
780 1 -12.5662 -13.7831 -6.94805 6
781 1 4.42196 11.4881 5.69437 19
782 1 -8.57708 -2.54092 16.0634 14
783 1 -3.86691 -16.9816 -9.37385 8
784 1 12.9201 2.12136 5.38324 23
785 1 2.83044 -20.1846 1.40484 8
786 1 1.7748 9.57115 17.0165 16
787 1 11.4507 -2.24784 -12.9875 20
788 1 8.00642 -8.38794 -0.111299 22
789 1 3.40603 0.0163756 -12.479 17
790 1 -12.4925 1.15169 -11.9291 9
791 1 -6.28527 5.27371 -17.3108 10
792 1 -9.95452 2.44607 13.069 18
793 1 8.07639 -3.77065 13.4279 16
794 1 -9.13813 -8.792 6.12347 19
795 1 13.9742 -3.10795 3.94626 15
796 1 -0.779546 6.31005 -11.1657 20
797 1 15.6089 5.20621 -3.16417 11
798 1 -2.46729 15.9328 6.93634 14
799 1 -13.9026 -7.25366 3.16618 14
800 1 5.54673 -16.4523 -5.52482 13
801 2 -8.81121 -2.57626 -9.84422 18
802 2 -5.35861 8.4721 -5.38284 21
803 2 -1.15746 -2.57612 -10.8502 23
804 2 -3.63644 7.11712 11.9875 18
805 2 3.23211 -10.6253 -11.3825 16
806 2 -6.30004 -3.40704 -8.26948 17
807 2 2.88902 2.7838 15.5746 18
808 2 5.3672 -1.51316 15.6446 22
809 2 -12.5035 -11.271 3.13792 13
810 2 -13.9028 6.10806 -7.74163 11
811 2 0.809393 12.7113 5.6332 20
812 2 -11.0865 0.562586 3.84167 19
813 2 2.7233 13.8521 -3.31806 22
814 2 11.1805 2.72897 3.88523 21
815 2 -6.00971 14.7015 -6.44137 13
816 2 10.8473 9.4293 -7.28534 13
817 2 -9.0417 -4.03916 -15.0978 13
818 2 -9.43097 -10.0942 -6.72154 14
819 2 1.74998 1.38287 12.5457 20
820 2 8.07223 -2.70925 -8.87255 24
821 2 0.626769 -15.8971 2.1881 18
822 2 -6.63977 8.73831 -1.59559 18
823 2 -16.5095 1.35234 -3.96461 11
824 2 9.5776 3.52983 6.25832 19
825 2 9.89063 -13.8755 -7.12776 10
826 2 -11.8497 -13.4646 0.446048 9
827 2 -10.5093 -6.95544 10.9077 17
828 2 -4.45981 -13.9009 3.78498 18
829 2 8.64244 -3.13592 8.67838 16
830 2 -0.837071 -16.9682 -6.43731 10
831 2 5.22025 -3.66654 18.0435 13
832 2 1.97239 8.29412 -10.1683 18
833 2 3.53483 -18.2683 1.57205 14
834 2 -11.7493 -11.9533 -2.51269 12
835 2 1.06673 4.48788 13.5455 16
836 2 -8.32733 6.53613 2.00441 17
837 2 -3.92231 3.78532 17.2734 14
838 2 -2.84238 9.61116 -6.22103 21
839 2 6.79141 -12.9352 1.63578 19
840 2 -0.68778 11.188 -9.61244 20
841 2 16.3281 7.85607 4.63092 12
842 2 7.34501 14.0771 5.49961 12
843 2 11.0079 -3.35528 -11.5114 22
844 2 -7.32117 11.018 12.9754 12
845 2 3.69497 -0.0454672 -17.2239 11
846 2 -4.85374 10.9779 -14.1042 9
847 2 10.5692 5.65453 -2.93473 20
848 2 -5.46969 -4.65051 14.7933 16
849 2 -15.0953 6.88715 5.68731 11
850 2 10.4872 2.12466 -15.2104 11
851 2 -6.6811 -8.77792 9.72328 17
852 2 3.13299 -9.54228 -14.7248 17
853 2 -4.22405 -1.93824 -17.9566 14
854 2 -11.0036 -5.55775 4.36861 15
855 2 10.438 13.0181 0.800019 12
856 2 -4.02264 9.87478 3.6739 18
857 2 -6.45875 -12.6092 -8.21573 14
858 2 -5.24649 12.3757 5.83736 18
859 2 8.85436 -5.33395 15.4417 11
860 2 1.99503 -7.52026 11.1754 19
861 2 14.6878 5.60961 7.5444 16
862 2 3.31463 11.4644 -4.83503 18
863 2 -12.9529 4.65417 0.021437 16
864 2 14.1619 1.70016 7.90703 16
865 2 13.0317 -10.6201 -5.46147 12
866 2 6.39676 -13.1808 -1.13942 22
867 2 -6.04895 7.58202 13.4241 16
868 2 4.93096 -11.7116 4.02679 22
869 2 12.7892 -1.46449 7.88628 13
870 2 16.069 2.77925 -0.539001 12
871 2 -3.60355 -2.15222 14.82 14
872 2 12.8403 -9.12895 -2.09531 15
873 2 -1.45412 9.1293 8.35655 20