ITEM: TIMESTEP
17000
ITEM: NUMBER OF ATOMS
1500
ITEM: BOX BOUNDS pp pp pp
-30.0 30.0
-30.0 30.0
-30.0 30.0
ITEM: ATOMS id type x y z Coordination
1 1 -5.74108 -11.0956 -6.10965 17
2 1 1.274 -12.4205 7.64963 17
3 1 -8.28067 4.90112 4.21319 19
4 1 -8.2986 1.93565 -11.6322 18
5 1 2.30293 -8.89334 12.1504 12
6 1 -8.81979 -4.71234 -12.2231 17
7 1 -2.26823 -16.6534 -0.583339 11
8 1 -14.0313 -8.56437 -0.398255 11
9 1 1.41946 1.65707 18.2042 9
10 1 6.33133 -4.54953 5.03659 19
11 1 -0.366027 5.64474 12.4915 12
12 1 8.00599 -3.74816 2.08506 21
13 1 1.35478 4.17728 -11.5327 20
14 1 7.517 -6.61262 12.9104 11
15 1 15.2213 3.74959 6.81082 12
16 1 0.188427 5.99613 -13.91 12
17 1 1.39177 1.70302 -14.0327 22
18 1 -8.2532 -2.19107 -2.06779 21
19 1 -1.12964 -4.18918 -8.74024 22
20 1 7.10413 -10.0117 5.12013 16
21 1 1.37535 -3.28512 7.24982 17
22 1 7.7408 -13.2179 -3.34979 18
23 1 -6.11309 -11.1427 -11.5788 15
24 1 3.9605 -7.65512 -4.41354 19
25 1 5.16097 -10.9536 -12.1088 17
26 1 1.29521 -3.33806 11.5485 17
27 1 0.690555 -12.7233 1.55328 22
28 1 5.17844 -7.46799 11.66 14
29 1 -9.41353 -0.8776 1.0359 22
30 1 -6.09221 -1.20407 -4.25715 20
31 1 -0.493308 10.8815 -5.2256 17
32 1 2.18645 1.65899 -8.98559 25
33 1 2.43761 -10.3604 -13.9754 10
34 1 -0.0764858 -4.0678 14.8726 10
35 1 -12.4771 4.61013 -5.9414 11
36 1 3.65118 8.73972 6.82689 13
37 1 -10.0078 5.82037 -0.99569 11
38 1 1.52034 13.088 -9.58739 8
39 1 1.33601 -17.3587 3.95459 8
40 1 6.6355 -8.75453 -6.39083 20
41 1 -5.05827 6.37421 11.0817 15
42 1 -11.8962 -8.6087 -10.6164 12
43 1 7.70067 -1.81638 5.1394 19
44 1 -6.84196 6.58316 -14.367 8
45 1 -5.66942 -12.3357 1.92937 18
46 1 -7.52483 4.23505 -7.14603 16
47 1 -1.19091 1.24161 -8.55942 23
48 1 1.87944 4.19666 4.10712 22
49 1 1.52186 2.43558 6.73551 20
50 1 7.84151 -11.7706 -5.82454 18
51 1 7.24244 3.23747 14.9514 14
52 1 11.0305 -1.36671 -13.9359 10
53 1 8.71515 -11.5915 2.25016 13
54 1 -7.73399 -3.34226 2.17375 20
55 1 10.2605 -8.98792 8.99313 13
56 1 -8.1115 -11.4518 9.83542 10
57 1 -9.63646 -1.57702 -4.57157 20
58 1 14.6175 1.27948 8.76027 13
59 1 6.62607 -4.835 -0.404171 21
60 1 -2.91269 6.52336 13.4778 8
61 1 5.69786 -1.71616 7.90386 15
62 1 -8.15966 -4.13953 5.68335 20
63 1 -2.3458 -7.41725 -8.82883 19
64 1 -5.71239 11.4452 1.18968 9
65 1 -4.74162 3.51921 -11.8088 17
66 1 7.25863 1.17375 -6.23826 17
67 1 6.94366 -6.72036 -2.98139 21
68 1 11.4027 -7.7928 -0.451391 19
69 1 4.32156 -12.9854 8.54144 17
70 1 -6.33568 10.034 -10.181 10
71 1 -11.3023 7.86571 5.50832 14
72 1 -3.03571 4.81754 6.50377 18
73 1 -4.93882 -12.6049 9.65636 13
74 1 14.9929 -5.59957 -7.56891 12
75 1 -13.3081 -0.467996 4.09764 13
76 1 10.7851 -6.40832 -3.13443 19
77 1 3.85344 0.506367 -11.7463 21
78 1 -6.78364 -0.123488 -15.9046 12
79 1 -0.342248 6.53153 3.36845 21
80 1 -7.21538 2.70269 -14.2026 15
81 1 3.3551 10.9973 -9.87356 15
82 1 2.64114 10.6747 -1.84893 18
83 1 -4.55467 -4.87041 7.57172 19
84 1 0.587685 -6.97475 -8.9414 19
85 1 9.53254 -9.39515 -8.11817 18
86 1 -1.96692 2.05529 6.21657 18
87 1 -5.80872 -6.81594 -4.41225 22
88 1 6.74641 -6.6741 2.64254 20
89 1 -10.8336 -8.40709 -1.41085 20
90 1 6.6506 -13.7085 -0.846186 13
91 1 -6.72358 5.27786 1.24769 21
92 1 11.0159 3.24298 -12.3506 16
93 1 2.175 3.42263 -6.54372 20
94 1 10.2126 -11.4682 -3.42757 13
95 1 -4.33172 -13.3187 4.70871 19
96 1 -9.33225 -15.9978 -0.541522 12
97 1 -13.3077 -11.0056 6.16532 8
98 1 9.47319 3.06118 8.9813 19
99 1 8.26425 2.97614 -1.12809 21
100 1 -1.85863 7.78387 7.93019 19
101 1 -5.95332 11.0389 -5.15927 12
102 1 -2.5261 -5.39017 -11.4248 21
103 1 13.8683 -4.63067 7.23247 12
104 1 -2.20241 6.46403 -7.67151 20
105 1 14.0056 -0.813626 -7.83204 17
106 1 -1.29232 9.36803 -2.81118 16
107 1 -3.17811 11.41 -1.57645 12
108 1 7.02265 1.01683 -12.6536 21
109 1 7.33933 -14.1637 4.18371 8
110 1 -3.23558 6.96412 -2.19136 21
111 1 6.00174 7.87413 -5.01163 20
112 1 10.1818 4.74607 -3.06715 19
113 1 -4.84263 8.37897 -4.3217 16
114 1 -10.0319 -5.34763 -15.344 11
115 1 0.147852 10.1657 6.25221 11
116 1 -10.8035 1.62669 -5.39448 20
117 1 13.8721 -1.14284 -2.90381 24
118 1 -4.84477 6.00381 8.11861 16
119 1 -3.12915 11.6616 -9.96187 9
120 1 5.10793 -6.20599 8.53107 22
121 1 -8.50754 -10.8456 2.98981 18
122 1 -4.53208 -9.90838 7.69772 21
123 1 4.57333 -13.5801 -8.4208 14
124 1 -5.28761 6.26646 -9.24005 15
125 1 3.77316 8.55633 -7.78312 15
126 1 15.2423 7.25735 -2.40842 11
127 1 -2.20987 -8.01285 7.74897 18
128 1 -6.17812 0.887514 -2.17976 20
129 1 2.828 11.9006 0.996675 14
130 1 2.183 3.36103 15.889 14
131 1 -8.307 8.91264 6.16928 17
132 1 -9.42453 -7.03274 -3.94112 21
133 1 12.5206 -9.83249 -2.69186 12
134 1 -4.39836 -7.46122 4.94969 20
135 1 -13.0799 -5.2707 2.69268 11
136 1 -7.66584 -9.31665 0.957428 21
137 1 -9.31148 -4.9385 -1.50699 20
138 1 -0.789255 -15.1968 2.93132 17
139 1 -4.58326 -4.11658 -3.69276 21
140 1 5.82233 -10.1306 -3.60084 21
141 1 -3.70631 9.51801 9.8893 12
142 1 -6.51081 0.221374 5.74346 21
143 1 -4.26241 3.73162 -7.16782 20
144 1 -11.2129 3.25695 -11.464 13
145 1 -7.89803 -12.2715 -9.0499 11
146 1 -12.4924 0.69785 11.1038 7
147 1 -3.19523 -10.1971 4.68063 22
148 1 2.59177 -15.6914 6.75144 11
149 1 11.37 1.61372 7.14022 20
150 1 7.56973 -1.2396 -9.90755 19
151 1 9.36811 -4.38059 14.0238 9
152 1 6.85049 0.0213277 -15.6565 12
153 1 5.90609 -2.59326 -11.6091 21
154 1 -7.94065 -4.4543 -9.58286 22
155 1 -9.42461 8.41387 -9.50062 7
156 1 -3.52637 11.9041 -4.587 16
157 1 6.87198 0.0996183 10.6498 17
158 1 -4.21885 -7.82949 -11.2374 19
159 1 -10.6599 5.30418 -9.30249 14
160 1 3.25088 -2.72088 -16.532 15
161 1 -3.0736 -1.63523 12.5899 16
162 1 -6.47696 11.1838 7.656 9
163 1 0.874857 -10.9405 -6.42341 20
164 1 -8.13862 -12.0956 -5.50937 18
165 1 11.8691 -8.62852 -5.48744 16
166 1 5.15787 -7.73679 -0.65267 19
167 1 8.64948 4.32551 -6.52976 20
168 1 -2.28964 8.60084 -5.11622 19
169 1 -13.1438 -1.1634 0.880237 11
170 1 1.87729 2.1684 10.3954 18
171 1 13.1123 1.0855 -0.113862 18
172 1 5.31031 4.3062 4.1509 20
173 1 -10.7914 5.22198 7.64293 15
174 1 -11.2893 -11.1917 -8.8495 10
175 1 6.11216 5.68503 -14.7438 10
176 1 6.85556 -3.98817 8.49598 15
177 1 13.9538 8.3725 -6.70911 10
178 1 4.05374 -10.8378 -5.85837 21
179 1 -6.34626 -5.93488 -12.2128 20
180 1 8.81163 -1.44998 -5.52319 22
181 1 -6.41024 -9.34764 10.1404 14
182 1 -2.02223 -15.6242 -4.17955 16
183 1 -11.1359 -6.08267 -8.97458 16
184 1 5.78616 10.7697 -4.94634 13
185 1 1.97472 -7.56389 -15.8576 12
186 1 7.99341 -2.00874 12.8392 15
187 1 15.7195 2.74438 3.60881 15
188 1 -4.06439 -7.93549 -0.881117 22
189 1 10.0671 -5.79583 -9.78905 18
190 1 -2.84232 -6.64728 1.82806 24
191 1 -4.16055 -2.84468 -11.9251 20
192 1 -9.91969 -1.7875 -15.4923 9
193 1 11.6792 2.01521 10.5686 19
194 1 9.80053 -3.20482 10.6849 19
195 1 -5.03976 -14.4313 -11.5638 6
196 1 1.85239 -8.02247 4.69985 21
197 1 -0.721592 1.69833 -18.8688 8
198 1 3.46819 5.15458 1.74885 20
199 1 -8.89587 -7.73797 4.15831 17
200 1 1.54206 13.0616 -3.66981 12
201 1 -10.2777 -2.69286 7.88085 13
202 1 -9.78299 -7.86702 -13.2233 14
203 1 -3.86268 -5.33631 -14.1208 20
204 1 -10.5916 -10.7372 -3.17975 21
205 1 -1.12239 -9.64175 1.88602 21
206 1 10.635 -1.16493 7.44312 17
207 1 -2.47675 -7.03844 -3.46628 21
208 1 -11.672 -8.64983 7.60371 10
209 1 -2.81209 -10.9739 -1.01336 22
210 1 4.61778 -13.6754 5.46865 16
211 1 -1.65207 14.0214 -3.68294 10
212 1 0.921661 -4.64236 -17.1872 15
213 1 -6.71253 -5.15678 -16.993 9
214 1 2.14897 -13.5191 -1.76888 21
215 1 -5.92494 -12.9615 -3.41417 17
216 1 -6.31678 -3.59132 -14.5828 17
217 1 4.91894 1.61498 7.18854 17
218 1 -4.24132 1.02074 -9.29958 20
219 1 4.54651 3.02407 -11.5478 20
220 1 -2.66771 -4.67026 4.46332 24
221 1 0.702202 12.4235 -0.942322 11
222 1 1.23568 7.30746 6.63992 17
223 1 12.6129 -4.47831 -2.43837 19
224 1 -11.0182 -2.60338 3.12453 17
225 1 -1.67395 -5.97417 11.1055 15
226 1 -5.15048 7.83518 0.562441 21
227 1 4.66202 -7.68375 -13.5191 17
228 1 3.39178 -13.0431 0.697856 21
229 1 -2.06222 -1.86891 15.3295 13
230 1 -12.5199 -7.91814 4.71298 14
231 1 14.2189 0.383971 -5.39263 22
232 1 7.03558 -4.5955 -5.64443 20
233 1 9.8516 -6.73507 -6.36412 23
234 1 -5.83489 -6.36081 1.58874 20
235 1 -10.5707 7.56356 2.65672 15
236 1 3.72912 -1.48828 12.0958 17
237 1 9.5419 6.84773 8.52153 18
238 1 -6.35696 -0.675938 1.78675 20
239 1 13.0879 -5.62027 -5.69203 19
240 1 -4.93009 5.67944 3.83703 22
241 1 -3.14261 5.37255 0.866068 20
242 1 2.37303 -11.9421 4.18291 21
243 1 11.0288 -6.86029 6.34366 15
244 1 -3.63236 3.29267 9.73231 19
245 1 -8.12132 -2.62319 -7.06293 20
246 1 -4.07998 -3.64515 10.3691 15
247 1 -4.33892 8.78199 3.15528 19
248 1 -2.58343 4.20551 -9.82057 19
249 1 -10.4625 2.17856 9.38917 15
250 1 -11.6036 1.36215 0.678911 20
251 1 -2.748 -5.07815 -6.2589 23
252 1 -8.05656 3.83952 -1.47313 21
253 1 8.23344 2.36775 11.7462 20
254 1 -11.2153 -13.6679 0.265262 13
255 1 7.40116 -11.3786 8.47748 14
256 1 -8.2364 8.80367 0.70743 14
257 1 -0.0803983 -8.32512 9.60407 20
258 1 1.3916 -13.5686 -9.38912 13
259 1 -6.09604 -4.75037 -6.82438 21
260 1 8.16085 -2.1686 -13.5341 17
261 1 2.64174 8.45439 0.119972 19
262 1 -10.1526 -0.321495 -7.99402 20
263 1 10.029 -2.55615 -10.4088 19
264 1 -10.9958 -15.9858 -2.43175 9
265 1 -12.8896 -6.13962 -6.22193 14
266 1 -1.1013 -8.02262 -0.5479 23
267 1 9.40202 1.59971 -8.07363 20
268 1 -5.98121 0.488211 -12.8502 17
269 1 -8.82422 -1.11565 -10.6072 22
270 1 -8.04023 2.57385 7.06512 18
271 1 -8.31916 6.44998 7.21441 19
272 1 -6.85741 3.57558 9.82353 19
273 1 10.8548 -4.12171 -5.0364 20
274 1 12.2683 2.19274 -9.79465 19
275 1 -3.19352 4.72445 -4.24016 19
276 1 1.96386 -10.1613 -3.40709 24
277 1 -2.59245 7.4933 5.0221 19
278 1 -4.62531 1.78115 -4.09241 19
279 1 11.8155 -11.4072 -0.180498 9
280 1 15.9953 -2.7149 4.98324 11
281 1 -13.0282 -0.238573 -7.52764 17
282 1 -7.44013 -9.94685 -3.40845 20
283 1 2.04896 7.66594 -10.4763 14
284 1 -10.4066 -14.1426 -4.93957 12
285 1 -6.3617 4.93834 -4.36519 20
286 1 -3.16011 6.475 -13.8706 14
287 1 9.96287 5.17958 0.989293 22
288 1 -12.7886 -8.72835 -3.83534 16
289 1 -2.22162 -11.2091 -6.41286 19
290 1 -14.6304 -8.77175 3.18615 8
291 1 -10.4734 7.05808 -7.18186 9
292 1 3.47007 -10.0293 5.73999 19
293 1 -5.89578 -17.1206 -0.325049 12
294 1 6.10949 8.84562 -13.2168 8
295 1 -6.71534 2.2748 -9.12688 16
296 1 -4.30016 -13.9663 -1.00959 20
297 1 13.1531 6.63642 7.37069 13
298 1 -0.448799 -0.361336 6.66448 23
299 1 -13.2501 -0.826475 -4.31803 17
300 1 -8.84374 6.12523 10.6064 11
301 1 -4.01943 -15.8306 2.87989 14
302 1 0.385858 -5.01792 -6.34542 23
303 1 4.25799 -5.53531 -11.1065 22
304 1 -6.80633 -2.94287 13.0344 12
305 1 -10.7561 -3.75226 0.624182 22
306 1 1.75098 -6.77657 6.93473 21
307 1 3.03327 -10.5231 -9.14793 18
308 1 -3.50857 -11.5298 -12.9324 9
309 1 -10.0337 -1.30915 12.3848 8
310 1 3.71311 -10.5534 -0.463382 21
311 1 -4.39826 6.2142 -16.5838 6
312 1 5.8737 -13.0642 1.93595 16
313 1 -0.303704 10.4295 -11.2896 11
314 1 -8.78288 -7.89861 9.27233 14
315 1 -7.38999 -4.93516 9.47585 18
316 1 10.5889 -6.61883 11.7747 13
317 1 10.606 1.64494 -1.79525 16
318 1 -6.54296 2.61059 3.83072 20
319 1 3.24979 0.896264 -17.0519 12
320 1 9.26982 -9.90571 6.71209 12
321 1 15.3014 1.62135 -8.87774 14
322 1 -1.55901 0.680727 16.3697 12
323 1 1.13536 7.80139 -3.6285 18
324 1 6.08042 -8.86314 7.74468 21
325 1 -4.88366 -16.8887 -2.81028 13
326 1 -1.35655 10.2836 3.19975 14
327 1 -7.0121 -15.3056 -6.01727 10
328 1 6.6608 0.611631 14.3196 14
329 1 -3.44937 1.23387 12.1793 19
330 1 -4.40314 -8.37751 -6.33499 22
331 1 -12.7076 -0.113458 7.93532 14
332 1 -7.3137 -9.98755 -8.10151 18
333 1 -6.10066 7.31201 5.97795 22
334 1 -4.58018 -17.757 -5.57244 11
335 1 -3.22147 -8.72005 -13.5899 13
336 1 -6.11013 -11.0308 -0.930825 21
337 1 -5.46468 -5.01004 4.50775 16
338 1 7.9951 0.777395 7.57922 18
339 1 -3.40564 -8.45818 11.0288 14
340 1 -8.68395 5.44206 -12.6729 11
341 1 12.7461 3.55752 2.04548 21
342 1 -8.64672 -14.0716 -2.54609 20
343 1 3.60328 4.50735 -9.07646 20
344 1 1.66447 12.4213 -6.87043 14
345 1 -2.13167 3.71827 -13.7589 16
346 1 2.99138 4.79744 6.69612 21
347 1 -11.2281 -2.76204 -6.72749 18
348 1 6.70162 7.02439 -7.63007 20
349 1 -5.46745 -6.80118 -8.74699 20
350 1 -3.06512 -13.7986 -9.16432 14
351 1 1.13165 -5.28483 -11.33 22
352 1 -13.659 4.94007 6.23546 10
353 1 1.98464 1.30829 13.5014 18
354 1 13.3818 2.70128 -3.5623 21
355 1 0.347431 6.73721 -0.691521 20
356 1 -1.23985 2.5542 -11.7138 22
357 1 4.35069 -1.39351 -8.93977 21
358 1 -1.37256 -7.77694 4.46354 19
359 1 -14.9517 -6.68229 -3.81411 8
360 1 -2.31334 -4.19879 -17.1986 14
361 1 15.5042 4.28704 -2.70523 17
362 1 6.8091 -10.5334 -0.243971 19
363 1 16.0221 2.07584 0.386041 15
364 1 3.03224 -4.52137 -14.0365 21
365 1 0.478232 -10.8098 -0.996872 24
366 1 -2.65894 -16.1787 5.69567 10
367 1 3.06984 -9.24354 8.67708 24
368 1 -12.2767 0.0891916 -10.9122 14
369 1 1.37914 -12.1739 -11.8777 12
370 1 0.979315 0.380398 -11.0883 24
371 1 4.35444 -4.587 11.7434 18
372 1 -12.8498 -5.49526 -1.36857 14
373 1 13.4139 -2.62377 -12.5708 10
374 1 10.6528 -1.20925 -2.69463 24
375 1 -7.22815 8.08436 3.45655 20
376 1 2.24427 -8.13588 -6.64074 20
377 1 10.4547 0.893286 -12.4492 17
378 1 13.2773 -5.51204 -10.3842 14
379 1 -5.96297 0.522211 9.23531 19
380 1 7.29357 8.9412 0.628785 16
381 1 -4.13783 -7.05409 -17.0276 10
382 1 -1.89939 -2.87872 6.85555 19
383 1 -3.63325 13.6634 -6.80377 10
384 1 -8.20573 -1.01386 -13.3542 18
385 1 -9.53763 0.85474 -1.93989 22
386 1 -2.06119 -10.8216 9.45494 14
387 1 0.579993 6.71634 -6.77132 18
388 1 16.2173 1.45522 -2.85748 14
389 1 -12.3651 -11.9271 -2.03007 14
390 1 -1.02612 -13.9233 -1.09299 20
391 1 -6.24398 8.37498 9.11081 16
392 1 2.32861 -4.29899 -8.72495 22
393 1 3.89439 3.98561 -3.76165 21
394 1 15.9128 -3.69656 -1.17582 15
395 1 8.76866 8.67567 -6.97171 13
396 1 1.858 -10.0519 2.03121 21
397 1 -10.3194 -0.493907 5.85401 13
398 1 7.99081 8.19156 11.1643 11
399 1 -1.24801 -1.86249 -18.9342 11
400 1 -7.74057 -7.53406 -7.14091 18
401 1 3.25829 -3.15354 9.08248 19
402 1 9.27592 9.04506 3.71028 14
403 1 3.31721 6.18979 -5.71171 19
404 1 -5.62257 9.99085 -1.41109 13
405 1 -4.58511 10.1219 -7.29491 19
406 1 13.5762 -4.7139 4.22474 17
407 1 11.106 6.97435 -12.8887 7
408 1 -11.7133 -7.43612 1.44023 20
409 1 -2.02331 -0.936312 9.62511 17
410 1 -3.62947 7.98926 -10.2758 15
411 1 8.8909 -14.6024 -5.589 8
412 1 11.2374 -4.65663 -12.6318 13
413 1 -0.994077 12.3021 -7.94652 15
414 1 -7.47296 -7.77893 -16.1793 9
415 1 2.31909 -15.0802 3.09843 16
416 1 -9.89822 -9.16455 -5.89104 21
417 1 -2.76198 0.805168 -6.32338 23
418 1 -9.86711 -11.658 6.44139 14
419 1 3.95134 6.69766 -2.26486 19
420 1 5.82433 -14.5147 -5.48973 17
421 1 8.16631 -9.18176 10.3694 14
422 1 7.06185 -1.05699 -3.06401 23
423 1 -9.53125 1.44022 3.71346 19
424 1 10.3148 -4.53531 -0.200551 21
425 1 5.01542 5.11914 14.9368 12
426 1 -0.91689 -2.7625 -11.3315 22
427 1 5.22216 6.95017 5.10681 15
428 1 11.2706 4.87631 -8.86628 17
429 1 -0.551624 -10.0088 -14.2928 12
430 1 -4.32182 -10.1642 -9.79171 18
431 1 -12.8242 -5.57307 -11.8813 7
432 1 14.0572 5.77251 4.39074 16
433 1 16.8361 -1.13136 -3.77586 12
434 1 7.49773 -8.51556 -13.1078 12
435 1 8.67734 -8.65134 -4.60851 17
436 1 6.58094 1.4619 4.58188 21
437 1 -8.08846 1.80791 0.573355 20
438 1 12.3559 9.3422 -2.05816 9
439 1 12.9355 -6.89971 2.61066 11
440 1 8.76326 2.94096 -14.5385 13
441 1 14.103 -0.779633 11.2391 12
442 1 2.8007 -2.73547 14.463 13
443 1 5.82768 -4.09184 14.0235 9
444 1 14.3378 3.59754 -11.5605 10
445 1 9.88824 5.50361 11.0661 17
446 1 -6.02814 -1.83602 -9.34802 17
447 1 12.2607 3.02612 5.08333 24
448 1 13.956 -5.43372 0.303528 17
449 1 2.11659 -7.85346 -0.746097 19
450 1 12.4111 -3.21722 9.97095 16
451 1 5.17588 6.98991 13.0231 11
452 1 6.39528 4.09431 7.08699 21
453 1 0.171431 9.10929 -7.96386 18
454 1 5.20048 7.82697 -10.2302 18
455 1 13.7996 1.02546 -13.0689 11
456 1 4.54844 12.7229 -1.95127 14
457 1 -2.30823 -16.445 -7.47261 12
458 1 -12.9738 2.36812 4.12213 14
459 1 -2.56674 3.32671 -17.4353 10
460 1 -8.10868 -13.0061 4.55352 14
461 1 -4.26844 -4.295 -9.17929 21
462 1 -13.5032 1.96364 -5.28862 12
463 1 8.72734 -9.10291 1.77124 16
464 1 12.3754 4.11132 8.62521 15
465 1 -0.86958 -11.8854 4.13722 20
466 1 -10.5861 1.02528 -13.3438 13
467 1 8.35382 -6.17943 9.63735 20
468 1 0.969517 -1.19233 16.076 12
469 1 8.42519 7.42773 -10.6097 13
470 1 5.75195 1.90272 -8.91888 21
471 1 0.630004 -17.0557 -5.39958 9
472 1 15.9666 -0.501422 2.80314 14
473 1 12.7868 4.27899 -1.0259 20
474 1 15.1048 -7.02421 -2.63938 11
475 1 -0.874429 2.13521 8.6565 19
476 1 -11.2023 -10.1748 1.13295 16
477 1 -11.793 -2.55184 -9.75759 16
478 1 11.4289 -2.18422 13.19 15
479 1 -0.921748 -5.47777 7.32412 19
480 1 7.94018 5.93729 13.6525 12
481 1 -4.8363 6.71802 -6.43359 16
482 1 9.94778 -1.11131 1.43074 18
483 1 9.66303 0.870479 4.36917 18
484 1 1.18792 -1.75655 -13.8345 21
485 1 -7.06044 -2.22434 7.10302 17
486 1 5.75065 -4.19139 -8.59729 18
487 1 -1.24349 -7.77115 -6.28603 20
488 1 12.2225 -7.71138 -8.1066 16
489 1 7.26339 5.09955 9.53013 19
490 1 4.78953 1.29007 11.8697 16
491 1 12.5517 8.61057 4.17036 12
492 1 -0.19983 -7.14133 12.7163 12
493 1 -2.54597 3.03342 14.1977 13
494 1 4.37707 -6.97969 -8.23905 22
495 1 -4.59388 -0.836868 14.9254 11
496 1 12.6502 1.30843 13.471 10
497 1 15.3388 2.85669 -5.96955 16
498 1 6.27839 -10.7265 -8.52056 18
499 1 -4.53536 -2.24451 -6.43435 20
500 1 7.00147 4.95753 1.22835 18
501 1 4.56515 9.88911 3.17619 14
502 1 -3.0958 -4.82407 13.2298 13
503 1 5.03792 12.6766 -7.64298 9
504 1 10.9322 8.4024 1.25247 15
505 1 -4.19651 -10.1089 -3.95959 20
506 1 -2.795 -2.27352 -14.7032 22
507 1 -7.10954 6.72005 -2.43106 19
508 1 5.46743 -8.66615 -10.4418 20
509 1 8.63727 4.14568 3.92779 21
510 1 13.2996 6.96419 -10.3532 9
511 1 12.4185 2.13371 -7.03276 20
512 1 -1.94406 4.16098 3.78458 21
513 1 -4.5639 4.17617 -1.55374 21
514 1 6.91346 4.8405 -3.62248 23
515 1 -2.65535 -12.9528 7.37958 21
516 1 0.600363 3.6051 -16.0249 13
517 1 5.29146 9.13766 10.4665 10
518 1 2.66026 -0.503852 6.7132 19
519 1 7.92973 9.85311 -2.2266 13
520 1 10.5481 8.03367 6.36195 15
521 1 15.8154 -2.54627 -6.48143 13
522 1 -11.465 -12.0626 3.34694 13
523 1 2.84344 -15.7686 -3.33053 17
524 1 -0.395017 -4.69067 -14.3611 18
525 1 0.846955 5.68911 9.57983 20
526 1 3.80973 -4.77055 -5.93637 20
527 1 5.28708 9.34059 -2.02518 19
528 1 -11.4292 -4.3006 -3.89618 19
529 1 6.26403 -15.8293 -3.12124 13
530 1 12.8067 6.32326 -4.0602 20
531 1 3.35181 -7.00904 1.77474 21
532 1 2.73119 10.1022 -4.81035 18
533 1 4.06538 -5.37474 -16.5391 13
534 1 2.4335 -11.6086 10.5541 11
535 1 5.92662 14.0853 -4.78907 5
536 1 -0.972785 3.87617 16.515 8
537 1 -7.03991 -8.71795 -13.531 14
538 1 5.52793 -1.94317 -5.99687 21
539 1 3.94202 3.82025 9.45531 16
540 1 8.55643 -10.4274 -10.4696 12
541 1 2.4194 -6.2177 9.72897 20
542 1 2.61853 -14.0781 -5.69829 19
543 1 -11.1909 -5.70421 9.46747 11
544 1 0.932113 -1.51959 -8.79583 23
545 1 -7.77 -17.6249 -3.44471 10
546 1 -9.04897 2.57567 11.8972 9
547 1 13.877 5.47494 -7.56784 15
548 1 -5.3456 2.41635 7.00063 20
549 1 -13.6692 7.68499 2.90434 5
550 1 10.3689 -6.61434 3.01864 17
551 1 -1.08055 6.76526 -10.9572 18
552 1 11.7708 -3.98888 -8.03484 22
553 1 8.83199 1.70149 -4.07108 21
554 1 -6.49348 0.361072 -6.93714 18
555 1 -9.10221 -9.97058 -10.8714 14
556 1 4.26699 5.71226 -12.5703 15
557 1 -8.89077 -4.6312 12.1067 10
558 1 -4.57525 -9.71898 1.95425 22
559 1 -0.983744 -11.6261 -9.46766 15
560 1 -9.58287 5.03823 -4.41928 17
561 1 7.20901 6.78925 2.68852 19
562 1 -9.78913 -5.30128 3.37475 19
563 1 8.48252 5.4711 -12.9714 14
564 1 3.8672 -16.087 -6.20752 12
565 1 3.94821 0.731225 -6.36531 24
566 1 -1.28567 -7.11126 -16.6811 13
567 1 0.906553 -0.920476 9.1676 18
568 1 0.381749 -0.673743 -16.5171 17
569 1 -9.06846 -6.6221 1.0062 20
570 1 8.33351 -1.79896 -0.548221 18
571 1 -6.0815 -4.89362 -1.29068 23
572 1 15.9758 6.0392 -5.60655 12
573 1 8.68059 -4.05041 -3.06506 22
574 1 -6.21226 0.443771 12.2291 15
575 1 5.0835 -10.3395 2.78169 20
576 1 15.1294 -3.92112 -4.24348 17
577 1 11.4634 -5.96442 8.94691 15
578 1 1.24325 9.59647 3.09213 17
579 1 -5.63275 3.74314 12.2665 13
580 1 -0.0445214 -14.1135 5.90542 17
581 1 8.40231 1.75118 1.64373 18
582 1 9.84673 0.612789 13.4449 18
583 1 -14.855 -3.40297 -3.27371 9
584 1 8.9694 -11.1511 -1.13702 17
585 1 2.92056 7.58434 3.30889 17
586 1 9.91308 -0.496735 10.0952 21
587 1 -3.23776 9.73494 6.3979 18
588 1 -0.499137 -13.7163 9.94121 7
589 1 -7.72363 -4.05237 -4.27765 21
590 1 3.76689 0.390843 15.6149 15
591 1 5.87064 10.9991 0.590456 11
592 1 -7.313 -14.0091 1.01063 17
593 1 4.83579 -7.6664 5.30491 20
594 1 10.1315 -4.4161 4.71469 18
595 1 7.87571 9.51305 8.29813 10
596 1 -1.10218 3.72066 -6.13566 21
597 1 2.43593 -8.43041 -11.0637 18
598 1 -2.53511 -0.0105038 -11.7228 20
599 1 -0.398364 2.96658 11.7413 18
600 1 0.0369864 9.75739 -0.113272 19
601 1 12.5507 -5.32955e-04 2.95672 20
602 1 0.238561 4.3972 -8.91388 19
603 1 -0.850901 8.40505 11.1294 11
604 1 7.95513 6.75456 5.99254 21
605 1 7.73532 -5.44173 -11.8838 15
606 1 -2.81708 -12.8735 -4.21707 22
607 1 -2.7092 -1.49645 -8.85017 23
608 1 14.7488 0.29263 5.75452 18
609 1 6.08993 -3.58665 -15.1122 13
610 1 -1.04817 -9.85777 -3.53313 23
611 1 15.6285 -0.84721 -0.620341 16
612 1 5.13352 -10.4027 10.8941 14
613 1 -5.07174 -16.6232 -8.78847 9
614 1 10.1383 7.09848 -1.37467 18
615 1 -7.17264 -7.24735 6.74179 18
616 1 -9.73705 4.27182 1.83929 18
617 1 6.98964 4.64257 -9.60879 17
618 1 7.00493 -6.72944 -15.2564 9
619 1 -9.4659 8.49893 8.74859 11
620 1 5.49481 2.13721 -14.5507 17
621 1 8.80121 -7.51827 -1.30073 18
622 1 -7.87917 2.40055 -4.74977 19
623 1 11.1136 5.96463 4.12462 23
624 1 -8.82104 -12.0235 -0.921303 21
625 1 2.91292 4.40672 12.2216 21
626 1 -13.787 -3.38854 -6.20591 13
627 1 -14.6312 1.34169 6.45168 10
628 1 -8.57204 10.2497 -7.27383 8
629 1 11.5093 -8.41709 -10.9292 9
630 1 -12.8691 -8.91698 -7.72961 12
631 1 14.0926 -8.88652 -0.402219 11
632 1 -12.7861 4.66515 1.49932 13
633 1 -9.84091 -5.46531 -6.72753 20
634 1 -6.42524 -10.0261 5.28254 21
635 1 11.6283 -3.54577 2.34191 20
636 1 12.5401 -2.08488 -0.27159 20
637 1 -11.2543 3.23153 -2.73525 17
638 1 2.62006 7.62781 10.8813 14
639 1 8.75771 3.03053 -10.9162 16
640 1 -6.03599 11.0258 4.52071 13
641 1 11.2918 6.60342 -6.45798 15
642 1 5.01214 2.62775 16.8746 11
643 1 7.83594 -6.76559 6.80633 21
644 1 6.75658 10.3049 -9.84537 12
645 1 -3.71142 -0.181521 7.33522 20
646 1 -0.75785 -7.68449 -11.6264 16
647 1 -11.4915 -1.71187 -1.60759 20
648 1 -4.90247 -15.6438 8.10505 7
649 1 11.7906 -1.46722 4.86798 18
650 1 -0.690329 -13.891 -6.61034 17
651 1 -13.1 1.00353 -1.80133 12
652 1 15.6868 -0.0676701 -10.9379 8
653 1 -11.0827 4.58124 4.43454 18
654 1 -8.271 -1.57165 4.21111 19
655 1 -8.80867 -7.20186 -9.97072 19
656 1 0.287022 -12.9317 -3.83772 21
657 1 4.6424 -15.6482 -0.065192 13
658 1 3.04018 3.74738 -14.4591 17
659 1 10.9085 -0.638647 -8.32769 16
660 1 10.001 5.03711 6.95715 20
661 1 12.2491 -1.86437 -6.03069 23
662 1 -4.9019 -2.60131 -18.0359 12
663 1 0.0224283 -10.1289 6.57784 23
664 1 8.88887 7.21358 -4.404 18
665 1 4.72022 -1.18824 -14.2391 22
666 1 -9.78277 2.77829 -8.67153 18
667 1 5.7255 3.7732 -6.66717 21
668 1 -10.265 -5.83537 6.817 16
669 1 5.09327 6.69086 8.16747 19
670 1 1.7295 -15.8323 0.386943 14
671 1 7.18021 6.56483 -1.28471 23
672 1 -0.0525888 -0.162085 12.125 15
673 1 -7.96568 -1.71802 10.1026 14
674 1 11.2388 0.659765 -4.91435 22
675 1 -5.45566 -6.177 11.0465 13
676 1 6.07245 -14.7773 7.5571 8
677 1 -4.57174 -1.90652 4.86704 23
678 1 10.5638 3.52226 13.9481 11
679 1 7.3211 -6.79444 -8.86561 19
680 1 -3.37444 -0.273842 -17.4582 15
681 1 -5.15194 8.47158 -12.2697 10
682 1 -10.798 -2.52474 -13.05 16
683 1 13.5188 7.23277 1.08216 15
684 1 -0.360117 4.93699 6.58346 21
685 1 -11.9938 -11.3493 -5.58937 14
686 1 -1.8386 8.02572 0.929722 16
687 1 15.196 -1.63698 8.13662 11
688 1 -2.89384 -12.6651 1.74788 22
689 1 9.0465 -3.98807 -7.52404 23
690 1 4.37102 -12.8221 -3.3889 22
691 1 2.7726 -2.52581 -11.2496 21
692 1 -4.04623 0.815896 -14.7322 18
693 1 -6.7122 -7.69085 -1.83775 19
694 1 -13.0764 2.70141 -8.52707 13
695 1 -13.1865 2.95861 8.71055 11
696 1 9.3416 -3.87221 7.39095 19
697 1 -6.77112 -12.4831 7.34049 14
698 1 14.0977 -2.92647 1.99822 19
699 1 -1.40073 0.181562 -14.2968 19
700 1 15.3608 5.1111 1.04556 12
701 2 -13.0841 0.765123 -9.30639 14
702 2 -3.24763 12.9417 -2.98644 12
703 2 4.2036 -7.41504 -11.6619 21
704 2 -1.73089 7.14133 12.1972 11
705 2 -6.98747 -8.23422 -8.9984 20
706 2 9.59598 -6.10452 13.3393 11
707 2 -14.4169 -8.74 1.32756 11
708 2 -11.0543 5.82873 -5.98794 11
709 2 1.61828 9.07081 6.75026 13
710 2 -10.9457 -4.01998 -1.4132 15
711 2 10.4044 2.78762 4.76835 17
712 2 -1.18359 -4.01251 -6.87196 23
713 2 -8.1871 -13.8745 -4.8018 15
714 2 -7.80837 1.89383 -1.64247 19
715 2 -1.61282 -10.0489 3.74148 20
716 2 2.41433 -1.56271 8.35781 17
717 2 7.16934 -0.796743 -11.9785 19
718 2 4.34661 -15.0376 7.33197 9
719 2 6.18473 -0.679331 4.02876 19
720 2 -2.0154 13.2697 -5.54763 13
721 2 -10.3496 -0.789358 -13.7424 13
722 2 11.3466 6.54885 7.76086 16
723 2 13.6235 -6.83383 -7.20987 15
724 2 -9.49468 -10.0579 1.50751 19
725 2 -6.02484 -13.953 8.48317 10
726 2 -5.17387 -5.09276 9.28417 14
727 2 8.08482 -3.42631 4.03965 21
728 2 -0.914548 -12.0295 -7.53574 17
729 2 5.62987 -5.94446 12.8943 10
730 2 0.598143 8.86414 -10.4302 11
731 2 -6.25197 -11.2031 -4.27525 20
732 2 0.770021 1.63806 12.1685 16
733 2 -12.0915 8.09353 3.72387 9
734 2 -3.05227 -0.297009 15.7203 13
735 2 -2.38582 10.3515 -4.09299 22
736 2 10.0931 -11.3818 0.671316 13
737 2 -1.57606 3.68583 7.2949 20
738 2 5.18851 11.2145 -9.15865 11
739 2 6.12965 -8.1154 -4.47114 20
740 2 -0.977206 -2.31359 -9.23778 23
741 2 2.09528 -10.5013 -11.4093 18
742 2 8.46642 -3.74472 -0.873199 24
743 2 -0.844572 4.11968 13.5524 15
744 2 4.78875 4.02539 -14.7455 12
745 2 0.636404 6.33748 -11.6602 15
746 2 13.5328 7.95301 -2.68699 10
747 2 -8.69574 -2.44871 11.7589 11
748 2 -13.48 6.05353 2.30211 9
749 2 9.11693 -3.54678 -5.62968 19
750 2 -0.977282 -9.72512 -6.71192 18
751 2 -12.8283 -12.3419 4.85506 7
752 2 13.354 -0.512954 -1.01762 21
753 2 -7.80761 6.53221 4.97589 18
754 2 -4.66177 -14.8141 -9.85322 9
755 2 -5.44515 10.3188 2.98729 14
756 2 6.20963 -13.0309 8.29898 12
757 2 11.7055 -5.98002 4.4814 15
758 2 -13.4541 1.00173 -3.46016 14
759 2 11.3827 -9.88623 -4.10942 13
760 2 9.16668 -13.0279 -4.42477 13
761 2 6.08712 6.09959 6.48875 20
762 2 5.12499 -13.6804 0.267729 17
763 2 6.27099 -6.35724 4.90725 20
764 2 -11.5498 -0.96498 10.8954 10
765 2 16.5697 -2.78593 -4.74326 12
766 2 4.39058 8.16195 11.8914 9
767 2 15.0487 -0.492578 9.58244 11
768 2 -4.15551 2.70322 12.9856 15
769 2 5.64229 9.53744 1.78357 16
770 2 14.6431 -5.98921 -4.44452 14
771 2 0.485787 4.76845 -7.16859 21
772 2 -8.73554 -2.89906 -12.2309 19
773 2 -10.6745 1.82805 11.7297 9
774 2 7.24103 -0.764396 -6.64451 23
775 2 -6.26537 2.95445 -12.4964 15
776 2 -12.5137 -5.76993 0.644758 19
777 2 -10.7745 -14.2531 -3.1834 17
778 2 15.1753 -2.70962 0.39277 16
779 2 1.74488 -7.86694 8.63496 21
780 2 0.651326 2.89442 17.0775 9
781 2 6.69521 -1.75219 -14.8721 14
782 2 8.53185 -1.40995 11.0608 17
783 2 2.43195 4.71085 9.01397 19
784 2 -6.36888 -1.017 4.29181 21
785 2 5.43149 -10.8777 -10.2493 16
786 2 11.3348 -6.93075 -4.99392 20
787 2 -8.03387 9.90094 7.96767 12
788 2 -2.94035 -10.5454 1.28534 21
789 2 11.0383 -8.97771 -7.21409 15
790 2 7.33464 0.664588 -4.10089 21
791 2 3.05804 1.33943 6.27445 21
792 2 7.51678 -5.16058 -7.39763 19
793 2 3.17885 -6.6508 5.24167 20
794 2 -6.09276 -10.5429 1.04307 22
795 2 10.6575 -1.49099 -0.564448 20
796 2 -6.26164 -12.2853 5.3816 20
797 2 7.7839 4.6808 -11.2127 17
798 2 -3.0967 -8.86625 6.38473 19
799 2 14.2435 -1.51433 -6.05573 19
800 2 -1.01929 -16.0152 -6.02627 11
801 2 13.3758 -7.23926 0.46653 13
802 2 -2.76266 9.96034 4.55932 14
803 2 9.21622 -0.92581 -9.28622 16
804 2 -4.07512 -8.2502 -9.28264 19
805 2 -11.5345 -9.93963 -6.84228 16
806 2 -1.34809 -7.86792 1.45805 21
807 2 -2.59417 -6.80381 -1.56524 23
808 2 -3.28052 7.55584 -0.157502 20
809 2 -14.6199 3.22049 7.51406 11
810 2 2.56591 -2.57273 -9.147 21
811 2 13.0862 6.76297 -5.90875 16
812 2 3.43033 8.85947 -9.63857 14
813 2 -7.07789 2.08872 12.1699 14
814 2 -2.70107 -5.96226 -17.5591 11
815 2 -8.12667 4.17378 -4.87589 20
816 2 -4.77567 -0.590904 12.8096 17
817 2 -9.80453 4.73157 -2.44712 17
818 2 -8.99414 4.40474 -8.20897 15
819 2 4.54706 12.1923 0.00496527 15
820 2 12.8505 1.99243 -5.24852 20
821 2 10.646 -6.33653 -1.16158 17
822 2 -12.1252 1.29766 9.04093 11
823 2 12.8669 1.64665 1.61449 18
824 2 -1.51557 10.3679 -1.12295 14
825 2 -10.094 4.90255 -11.4007 12
826 2 -8.948 4.40889 6.71741 17
827 2 10.1978 -2.59318 6.08747 14
828 2 -9.85012 -6.06453 -13.3686 16
829 2 2.44518 -0.9112 -16.6632 13
830 2 11.3432 8.47531 -0.76115 12
831 2 -6.22625 -11.2289 9.88338 12
832 2 0.0829829 8.30861 -1.82231 19
833 2 -4.33892 8.51479 -6.2339 19
834 2 7.62455 7.46675 -5.77775 18
835 2 12.6924 -2.04139 11.7273 13
836 2 4.05524 4.14593 16.0161 12
837 2 14.8662 -4.32596 -6.38026 15
838 2 3.29996 1.79419 17.6814 10
839 2 4.46039 -8.03603 7.39023 19
840 2 -11.2975 -2.28223 -3.40691 22
841 2 -3.85898 -17.4644 -7.30838 9
842 2 3.24899 -8.34158 -9.21201 18
843 2 2.83671 -4.19386 -17.4889 12
844 2 15.0052 3.91736 4.9368 13
845 2 0.0276226 0.211371 17.3417 11
846 2 4.23411 -1.42571 -12.3006 21
847 2 -1.68359 -7.7651 11.5342 14
848 2 -2.28848 -10.4927 -13.797 9
849 2 2.32469 -13.8059 -3.74978 19
850 2 0.377992 -6.85258 -6.99253 20
851 2 0.864704 -16.5464 2.3266 12
852 2 13.8376 4.95489 -10.3647 13
853 2 -2.74829 4.27992 -11.9631 16
854 2 -4.57219 7.39786 4.88535 19
855 2 -5.58319 -6.50954 -0.533092 20
856 2 -8.20749 -1.01119 -15.2332 16
857 2 9.38781 7.12727 -12.2469 11
858 2 -1.88305 10.3571 -10.3586 12
859 2 0.532834 -8.20262 5.93476 20
860 2 15.2797 -2.09079 3.3479 15
861 2 -1.8712 2.38371 15.8528 8
862 2 -9.08675 -16.4692 -2.39526 13
863 2 7.9926 -10.3181 -4.8067 17
864 2 4.28919 -3.17192 13.1879 13
865 2 4.56132 8.44484 8.84563 12
866 2 12.3875 7.29918 -11.8218 7
867 2 2.59258 3.21254 14.0823 19
868 2 15.8492 7.64494 -6.21681 9
869 2 -7.89491 -9.56979 4.17299 18