ITEM: TIMESTEP
53000
ITEM: NUMBER OF ATOMS
2000
ITEM: BOX BOUNDS pp pp pp
-30.0 30.0
-30.0 30.0
-30.0 30.0
ITEM: ATOMS id type x y z Coordination
1 1 -2.39453 1.94871 -11.529 16
2 1 -4.81146 -13.3465 -6.65081 11
3 1 -0.730515 7.8834 22.967 12
4 1 8.38771 -11.4213 11.4497 14
5 1 -5.94344 11.0245 7.19287 23
6 1 12.0059 -10.6261 -4.78921 15
7 1 -9.04055 2.04827 -2.13843 19
8 1 2.30189 -8.86887 16.9672 16
9 1 -5.44328 0.231315 -9.07972 20
10 1 -9.8405 -7.68682 9.0032 19
11 1 12.2593 -0.895043 -9.16178 15
12 1 -1.59346 -11.9043 6.23798 24
13 1 -10.1682 -9.24101 5.88692 13
14 1 3.05576 3.81866 23.7231 12
15 1 7.63739 -4.09782 14.5807 23
16 1 2.65467 2.78843 12.2939 23
17 1 7.97857 -3.2423 9.35941 21
18 1 -0.904235 8.25212 -3.25758 22
19 1 2.48872 4.65505 15.1518 24
20 1 -7.31987 -3.05082 -9.16489 11
21 1 -8.99589 -4.3604 15.0438 19
22 1 12.8668 5.17637 14.9346 21
23 1 2.14205 9.73375 -8.57546 17
24 1 4.37447 6.60136 -8.83108 21
25 1 14.1596 2.21849 15.1103 22
26 1 -5.46989 -0.689354 6.85036 22
27 1 -9.37061 7.62775 -5.45037 16
28 1 -0.527254 -2.50082 -3.71606 22
29 1 -8.25839 9.55803 14.9775 15
30 1 3.93694 -11.2704 16.2764 14
31 1 1.14824 -0.352846 12.0779 21
32 1 8.77823 -16.314 -3.3615 12
33 1 9.90883 -8.45377 5.85293 23
34 1 0.179212 -14.4311 0.572136 20
35 1 -9.87024 -9.55414 11.6672 15
36 1 10.3893 -6.3697 -10.3933 15
37 1 10.134 -11.0684 -7.72248 12
38 1 1.16591 2.89375 -11.5024 16
39 1 5.67336 4.71021 14.7 21
40 1 1.72149 -11.9808 11.6848 23
41 1 4.11581 -5.725 17.4426 16
42 1 -12.7639 4.96568 5.89911 15
43 1 -12.2453 -1.49462 12.3382 14
44 1 -5.57034 1.62084 3.56103 20
45 1 2.2071 17.0145 0.209127 13
46 1 2.27659 -15.2418 -1.77949 22
47 1 4.619 0.368194 -3.65385 24
48 1 8.06203 -3.38584 -7.58864 19
49 1 -2.42649 -6.27511 16.9831 18
50 1 -12.6689 6.52576 -0.233446 12
51 1 3.97346 8.31995 -6.24642 24
52 1 5.99146 10.5068 14.7175 21
53 1 -7.65528 8.14032 -3.14526 23
54 1 -0.88975 16.1024 3.4424 15
55 1 4.91566 -9.76437 8.42528 22
56 1 8.06881 -5.28786 0.818408 22
57 1 7.98022 -6.69485 -12.1643 13
58 1 -8.47481 6.85892 17.2625 13
59 1 -10.7246 -3.21763 -3.07998 15
60 1 7.37238 1.94355 9.41376 22
61 1 -7.65001 7.82775 6.61453 23
62 1 -4.70441 -11.7645 11.4899 22
63 1 5.14805 14.3766 12.4031 18
64 1 -6.34969 11.3605 -3.19996 18
65 1 -0.552646 10.918 15.6681 18
66 1 4.46888 2.2012 -1.15522 24
67 1 -1.15215 -11.7551 11.3477 20
68 1 4.03176 5.52133 12.3044 22
69 1 11.455 -13.5616 0.868687 16
70 1 9.51794 2.02864 22.7622 12
71 1 -8.37286 -0.77534 -3.76634 18
72 1 -7.94454 10.7358 -6.1171 13
73 1 4.41017 7.5423 14.8322 21
74 1 14.2963 -3.16234 -8.19046 12
75 1 7.84681 -15.9241 8.24866 13
76 1 -15.4169 -1.1197 6.5935 11
77 1 -5.32993 -4.29557 4.32069 25
78 1 7.54132 14.1671 9.62632 16
79 1 2.43334 -3.26997 17.1311 22
80 1 -4.91502 -15.5254 3.52396 13
81 1 -7.47024 -1.39916 9.42307 19
82 1 10.9726 2.205 15.0412 22
83 1 7.89977 0.339298 1.55247 24
84 1 2.41477 10.4658 14.4695 19
85 1 4.27272 0.102095 12.0706 23
86 1 -5.44324 -4.62302 9.12026 23
87 1 -1.79788 -5.71926 -4.05286 24
88 1 -10.9979 12.309 11.0827 10
89 1 -2.97012 13.4071 4.13968 19
90 1 -2.38514 5.8738 -3.43973 26
91 1 9.77307 -0.601743 -1.00537 25
92 1 10.4759 12.3387 -3.42021 12
93 1 10.0452 -8.46935 11.099 18
94 1 8.2696 -9.293 13.8048 17
95 1 -1.05939 16.7686 -0.120699 15
96 1 -8.02572 14.0736 7.14266 14
97 1 -4.05603 -3.41286 17.3342 18
98 1 -4.25261 7.85045 12.1686 22
99 1 -5.57561 -4.62522 14.5206 20
100 1 14.8237 -9.15348 -1.44445 11
101 1 -9.00547 -0.723205 6.96926 22
102 1 -6.62349 -14.933 6.02134 11
103 1 11.8023 -8.69513 -2.02695 23
104 1 5.50245 -1.89757 -9.17167 20
105 1 -4.35775 -1.06207 -11.5766 14
106 1 0.637423 11.1759 7.3562 23
107 1 -4.02199 8.51194 -3.43436 22
108 1 6.5443 7.61435 23.492 10
109 1 -1.38042 14.2283 1.16018 19
110 1 -9.61561 11.0928 0.971284 14
111 1 2.45777 8.43052 7.04178 23
112 1 -3.55354 -7.32228 14.3693 23
113 1 14.3941 -3.16086 14.8771 14
114 1 1.5277 -5.62886 -3.93888 22
115 1 1.55033 -11.2917 -4.56369 19
116 1 -0.693957 2.35767 12.2809 24
117 1 7.02202 -4.37915 20.0933 11
118 1 -7.00079 -6.84059 3.82497 21
119 1 8.2119 -5.91033 6.11077 21
120 1 -8.23821 -5.79049 1.04351 23
121 1 10.0933 -6.13084 8.8581 20
122 1 -4.26764 8.02994 6.76922 22
123 1 5.91033 3.72116 -9.02197 20
124 1 5.23662 15.2067 1.64221 19
125 1 -4.46973 -15.3365 15.2937 10
126 1 -5.89541 -14.5036 12.3976 14
127 1 8.99933 -9.50251 -10.5779 10
128 1 5.91482 5.51767 -1.26785 21
129 1 14.924 -11.0878 5.28469 11
130 1 5.11939 -15.9597 8.85473 14
131 1 -5.28019 -12.1132 0.836861 14
132 1 17.6955 2.55393 9.34984 13
133 1 14.4792 -2.70669 -1.34409 17
134 1 -13.4851 -2.11253 9.2652 15
135 1 12.3998 9.0499 12.155 20
136 1 15.533 9.11662 7.05217 16
137 1 0.0191185 2.86116 23.3666 11
138 1 9.025 5.1802 4.33624 24
139 1 -3.70133 12.7639 14.5204 9
140 1 -2.82806 13.5544 -1.45842 20
141 1 8.0461 -9.05166 -7.51282 19
142 1 10.1127 -11.5793 -1.80511 24
143 1 5.21326 11.2835 -6.07782 19
144 1 8.90631 -2.78846 17.5898 21
145 1 2.45399 -5.94845 -12.4379 17
146 1 -2.58018 5.60635 1.95605 24
147 1 9.58627 -0.377956 4.15561 22
148 1 -5.69039 7.44594 -0.764102 21
149 1 -4.72719 14.1831 1.2425 15
150 1 11.1727 1.07061 -3.67751 18
151 1 11.818 -8.80179 8.43117 19
152 1 -4.22489 2.95481 -3.44075 23
153 1 -8.79032 12.1172 13.0242 10
154 1 13.7197 9.83601 1.08021 14
155 1 5.6662 8.49083 2.00073 22
156 1 -4.82523 14.082 6.6956 17
157 1 9.03786 8.82564 6.9819 23
158 1 -0.707764 10.3994 -0.847665 20
159 1 0.507934 13.6533 -5.12314 17
160 1 3.84347 12.4197 -8.43471 10
161 1 -8.78092 -11.9296 5.76622 12
162 1 -6.25734 11.0918 1.71572 20
163 1 -3.81439 -2.86636 -8.96451 19
164 1 6.05087 -7.88867 -10.2351 19
165 1 13.0749 10.6852 14.6078 15
166 1 1.91895 14.3579 11.7038 19
167 1 -10.3923 2.43875 0.769331 23
168 1 -9.52072 13.0133 4.47425 14
169 1 16.6364 -2.66349 1.36372 14
170 1 -8.22252 2.17446 -5.1801 15
171 1 7.54164 1.61982 20.2797 19
172 1 5.55687 16.1355 10.1153 13
173 1 -2.44687 7.01224 15.0197 22
174 1 3.64673 -10.9409 -9.46345 14
175 1 -6.0005 7.28658 14.7092 21
176 1 -2.83281 11.4366 -3.45166 20
177 1 1.23886 -4.15504 19.9748 13
178 1 -10.4859 -3.16201 1.51349 23
179 1 4.76725 -9.35425 -6.97369 22
180 1 -4.35749 8.99493 -8.66116 20
181 1 0.0573522 -13.0873 8.77971 20
182 1 8.9641 -16.5226 0.231964 13
183 1 0.684297 8.03611 -6.11433 24
184 1 -12.8563 7.20785 14.1518 10
185 1 0.958288 7.71992 4.43333 25
186 1 9.04071 9.18365 1.51914 16
187 1 -4.51316 7.52418 17.0969 13
188 1 3.10486 -9.06865 11.7054 21
189 1 -4.24333 4.52844 4.21702 20
190 1 2.56917 16.0045 8.70388 16
191 1 -2.27795 5.18918 12.2464 25
192 1 14.9504 -3.67562 17.9926 7
193 1 -6.30024 12.3829 10.6036 16
194 1 12.5269 -1.79299 -3.58963 19
195 1 0.486053 7.4715 20.3103 22
196 1 -1.9512 0.348317 -3.72758 23
197 1 15.0715 -8.68022 7.96145 12
198 1 -3.33622 -7.31281 8.93029 23
199 1 -12.4793 4.72521 11.6237 16
200 1 -3.34598 -9.06606 11.5664 24
201 1 1.06437 1.40559 20.3006 21
202 1 -7.31141 2.25069 0.790146 23
203 1 3.56405 -12.8864 8.94578 20
204 1 6.61273 -6.18155 -1.89755 20
205 1 -1.20231 10.2504 9.74489 22
206 1 -5.77557 1.62438 9.13285 20
207 1 9.92559 7.32271 22.5179 12
208 1 -5.32348 -0.656838 1.57405 20
209 1 -4.57187 10.4535 -5.67317 22
210 1 -13.3213 -1.34387 -1.25476 13
211 1 -12.1198 0.821374 9.56673 18
212 1 1.37957 -9.92619 14.2633 21
213 1 3.66678 -12.7182 13.6371 18
214 1 -9.20839 10.7717 6.51786 19
215 1 14.2429 2.46711 4.15086 26
216 1 9.18667 3.29906 1.73062 25
217 1 -6.18228 -8.56007 -9.39865 14
218 1 0.887237 -0.365855 17.3807 23
219 1 10.2577 -11.7904 3.15815 21
220 1 -1.04318 5.19134 -6.25102 22
221 1 5.26601 -11.2306 -4.4409 22
222 1 6.51383 -0.629749 -11.9336 13
223 1 5.62375 9.97847 -9.03116 10
224 1 -7.37318 -8.70532 -4.42811 20
225 1 -1.12582 15.7922 -6.33284 8
226 1 -8.29638 -10.252 14.4718 16
227 1 8.27738 15.656 2.01677 12
228 1 -7.32184 -1.89893 20.1594 11
229 1 0.570152 18.2147 2.37512 10
230 1 9.26939 -1.01343 14.6409 23
231 1 1.70722 -9.28899 -6.8106 24
232 1 -2.28705 7.45005 -0.776219 25
233 1 2.594 3.28174 -4.00963 22
234 1 -3.10707 -13.0137 8.76622 23
235 1 -7.34861 3.6921 21.0436 10
236 1 -9.44194 3.76196 17.3198 16
237 1 3.22358 -14.3004 -4.78344 17
238 1 -0.759028 -17.1742 1.52134 15
239 1 11.7787 -11.0601 5.91211 18
240 1 4.94023 -9.1518 3.20059 21
241 1 13.3452 4.57807 20.4868 14
242 1 5.53316 9.18268 -3.52443 22
243 1 2.36138 10.7762 4.33196 24
244 1 -7.41382 2.19653 6.19161 21
245 1 -8.55232 12.5416 -1.32589 10
246 1 4.13975 5.66565 17.7619 20
247 1 9.43421 -16.7308 5.2924 12
248 1 12.7464 -0.486471 4.07499 23
249 1 0.622895 5.60496 12.0867 23
250 1 -5.96398 10.2655 12.8743 18
251 1 -8.40548 -0.459206 1.76214 22
252 1 8.00152 2.70203 -6.73306 20
253 1 4.14162 -0.05517 17.4315 22
254 1 10.7784 6.87008 -3.90081 17
255 1 3.56529 -12.3047 -2.02852 21
256 1 4.51412 -3.36418 -6.70921 21
257 1 3.41842 -14.5077 6.2724 21
258 1 14.2116 0.980899 1.34993 20
259 1 -6.53897 -7.2706 9.45175 24
260 1 6.97748 -14.1598 5.69737 22
261 1 -10.4613 -0.857991 -0.733615 22
262 1 3.87152 12.2633 1.74145 20
263 1 1.18558 -5.47915 -9.24029 23
264 1 5.67894 2.70533 17.5734 21
265 1 16.0094 3.50241 7.10781 20
266 1 -1.8107 -5.94437 1.37822 23
267 1 11.4491 -4.96983 -4.72168 19
268 1 -0.230373 -8.6202 6.41851 24
269 1 -3.45176 -8.70604 -4.02272 22
270 1 -6.96196 4.92583 -5.73247 21
271 1 -1.9911 -15.9361 13.5727 15
272 1 12.2298 -2.53279 12.8776 21
273 1 6.03355 -2.98341 12.1015 23
274 1 -5.10886 -9.6852 -1.51652 20
275 1 3.27365 -6.82272 9.15333 21
276 1 2.52085 5.25849 -6.36908 22
277 1 5.58846 8.59933 6.89903 22
278 1 -4.83066 -10.1842 9.00767 24
279 1 3.85818 11.6289 7.17426 22
280 1 -7.49683 -1.64676 14.6812 23
281 1 -7.33331 -0.651209 -6.54844 16
282 1 -1.80986 -9.66972 -6.80169 21
283 1 2.22165 5.94918 -13.3288 7
284 1 -3.18173 -12.7885 -1.95539 17
285 1 -1.76796 -9.95041 3.78724 23
286 1 9.5479 -1.70226 -9.16121 21
287 1 17.5855 -1.49084 -1.49016 9
288 1 12.5991 3.04536 12.5471 24
289 1 -1.84007 -3.89305 -1.40539 21
290 1 -7.20491 -3.56711 11.9509 20
291 1 3.39694 -12.3699 3.40474 21
292 1 5.78258 2.62512 22.9482 14
293 1 -1.45236 -16.1428 8.02294 20
294 1 5.0584 -11.7172 5.76194 20
295 1 1.85828 16.698 4.99528 16
296 1 5.63679 -5.47079 -13.1495 11
297 1 -3.39164 -9.5925 -9.03342 16
298 1 -6.37504 -9.83513 17.4061 14
299 1 6.22974 4.63695 25.1416 7
300 1 1.94233 -15.2173 3.0708 21
301 1 -2.28358 -15.4641 -7.07873 12
302 1 -6.23095 7.96078 -5.99819 22
303 1 11.0582 6.15894 12.1944 22
304 1 -5.38307 1.76186 -6.23323 22
305 1 0.785725 5.93608 -3.67446 25
306 1 1.55784 -6.14005 11.7599 23
307 1 11.0596 -13.4131 -4.37337 12
308 1 -1.60375 14.2858 6.7624 19
309 1 2.17514 8.57528 12.4354 22
310 1 12.9494 -0.339727 9.62396 21
311 1 -12.12 -0.600868 6.65259 21
312 1 -0.20841 -7.37349 14.4532 23
313 1 -2.77429 11.1574 11.9093 20
314 1 9.70543 -6.0105 -7.11431 16
315 1 12.6179 12.8179 2.71608 8
316 1 8.26773 -9.17917 3.32048 22
317 1 -0.375983 -1.40938 19.5628 17
318 1 -11.8451 -4.24363 13.4735 12
319 1 5.57248 -16.7631 -4.17587 14
320 1 -3.17918 10.8023 17.5775 14
321 1 -11.718 6.04586 16.7105 10
322 1 -10.2543 -7.29375 14.3676 13
323 1 -11.867 -7.05085 11.3117 13
324 1 17.0013 -4.66645 3.90283 12
325 1 -6.6809 -9.30874 11.5512 23
326 1 12.6081 -5.56194 -7.99069 14
327 1 15.089 -11.3741 0.487468 10
328 1 3.90766 14.2963 -0.56795 19
329 1 -2.79866 11.3713 2.08051 21
330 1 9.26649 9.08123 17.7111 19
331 1 -8.64422 -4.58326 9.43849 21
332 1 6.63928 -8.37177 0.656119 22
333 1 -2.82662 11.0553 7.37 22
334 1 -4.37767 4.37823 9.63116 24
335 1 3.19735 -7.06481 14.3364 24
336 1 13.2046 -5.91344 8.9766 19
337 1 -5.81827 4.92039 12.2693 22
338 1 -4.92614 -4.17491 -1.20589 22
339 1 2.39194 2.59507 17.4047 22
340 1 -1.60858 14.1232 12.0299 16
341 1 15.1922 3.52711 17.8476 14
342 1 -6.42597 11.4846 -9.13766 10
343 1 1.39228 -9.01379 -12.0772 16
344 1 -3.88177 -0.770264 -0.997141 24
345 1 8.59758 -10.7845 -4.71921 23
346 1 1.08724 5.69965 17.8196 21
347 1 -11.1948 7.50691 11.757 19
348 1 -3.85129 -2.82474 -3.78187 22
349 1 -7.63591 10.15 3.9283 22
350 1 11.3983 -3.10511 9.47217 24
351 1 -6.74711 -12.8259 3.64147 16
352 1 9.73555 -6.7867 14.0139 20
353 1 -6.41565 -12.9926 15.0293 13
354 1 -10.7061 10.054 3.51833 14
355 1 -0.616605 -7.75209 18.5331 12
356 1 7.81588 -13.6936 -3.96686 18
357 1 -0.219655 -6.58047 -6.3577 23
358 1 7.29571 -4.49725 -10.3175 20
359 1 3.91801 13.3485 9.61637 18
360 1 -7.07789 -1.38933 4.30086 24
361 1 6.73686 -8.34251 -4.64804 20
362 1 10.4771 1.93842 -9.11283 18
363 1 0.189533 -12.5794 -1.65627 22
364 1 -10.1248 -8.82492 -0.231016 12
365 1 1.90876 -11.5588 6.23285 24
366 1 10.2263 3.8574 20.1482 19
367 1 14.6819 0.658339 6.80397 24
368 1 -7.25511 4.54598 -1.8141 24
369 1 1.45712 14.7535 2.30515 24
370 1 -10.8828 4.25384 -1.83136 19
371 1 -10.8697 9.96096 12.9607 13
372 1 -4.51229 10.0343 9.67783 23
373 1 -7.55696 2.31515 11.4896 21
374 1 17.0221 2.32485 15.6526 11
375 1 16.2284 -4.97877 -2.10175 12
376 1 7.5571 -5.98412 17.1216 16
377 1 11.1133 0.758248 1.66995 24
378 1 -1.19081 -15.5934 -1.86752 16
379 1 -2.64133 7.52739 4.4485 23
380 1 2.92405 -8.52467 1.05333 21
381 1 0.95389 7.52415 9.5385 22
382 1 -5.7509 1.7884 -1.695 17
383 1 4.84969 -11.2052 0.804937 21
384 1 11.2235 0.253268 12.2794 23
385 1 -6.87062 -3.39526 1.58672 22
386 1 -3.34533 -9.13792 6.32733 22
387 1 -5.2926 -6.59396 16.9408 16
388 1 0.357571 13.3644 4.59467 22
389 1 -6.79749 -9.03627 1.15975 20
390 1 4.80433 6.15371 20.9257 15
391 1 -9.88809 10.1568 -2.95339 13
392 1 0.709868 11.3675 -3.11584 20
393 1 3.96659 11.4702 12.3556 22
394 1 -8.79396 -10.1519 2.73505 12
395 1 -1.4752 -9.76164 -1.72204 22
396 1 -14.2721 3.69482 8.94015 12
397 1 -11.2164 8.69775 0.588632 14
398 1 4.90391 -9.73442 13.6532 22
399 1 -5.30295 -10.099 3.69756 20
400 1 16.0671 4.79759 14.6248 15
401 1 8.77486 4.25102 -10.5109 11
402 1 -8.63829 6.14995 -8.07106 11
403 1 -1.51596 15.3382 -3.26026 17
404 1 -7.29475 8.64462 1.14165 20
405 1 0.212172 -15.054 11.5779 20
406 1 14.3771 2.3591 9.59902 23
407 1 1.70905 7.93764 -11.5012 11
408 1 -4.07106 -1.44969 14.6578 24
409 1 -12.6028 1.34606 3.78163 16
410 1 -9.17672 4.87948 12.0199 21
411 1 -4.83251 -16.1179 8.33131 14
412 1 4.81462 -3.45671 -1.40256 22
413 1 10.0649 -5.98384 -1.88581 22
414 1 -0.698253 -3.20772 12.0217 25
415 1 -10.7389 2.32522 5.85344 21
416 1 -10.7998 -1.65318 15.1839 14
417 1 -11.5054 9.58802 9.29711 13
418 1 2.90938 -3.07176 11.8842 23
419 1 -7.01338 3.00268 -8.33076 15
420 1 12.1183 -10.4083 0.572749 24
421 1 -0.837239 -8.26492 -9.09571 22
422 1 2.65189 -1.40438 14.863 22
423 1 5.31472 -9.17113 -2.23329 21
424 1 -5.87674 2.01256 -11.3029 13
425 1 8.5197 -11.2543 5.93203 22
426 1 2.43636 10.7612 -0.675343 24
427 1 -10.5867 12.308 7.92763 14
428 1 -0.931763 -3.22207 17.1443 23
429 1 -6.24846 -7.22496 -6.48116 20
430 1 -6.69698 -7.5084 14.3349 23
431 1 10.9907 -8.29507 16.3795 9
432 1 12.7868 5.11029 9.8405 22
433 1 3.00125 -2.32557 -3.9094 23
434 1 11.6251 -9.1172 13.7191 13
435 1 13.721 6.50551 1.30266 20
436 1 -2.47583 1.41396 14.9245 23
437 1 5.02341 10.5611 4.56441 20
438 1 7.93552 -5.6479 11.4671 21
439 1 4.23517 -18.1472 -1.40266 12
440 1 2.80573 0.696974 22.7077 14
441 1 2.55921 16.159 14.0726 10
442 1 -8.04884 -11.2773 -5.6846 10
443 1 10.5554 11.9097 6.55952 14
444 1 -0.470182 12.2534 18.9158 11
445 1 -4.29288 4.0013 20.2388 18
446 1 -4.97664 -5.94257 1.40971 22
447 1 -15.4583 0.605149 8.91569 10
448 1 -6.55542 -7.12932 -1.25697 22
449 1 -8.04317 9.85978 8.95108 18
450 1 -1.6311 -11.553 0.904012 23
451 1 -2.36239 -12.5903 -8.04635 13
452 1 0.217574 -14.7741 5.80719 23
453 1 -5.26513 -6.19355 11.9437 25
454 1 7.50547 -0.138686 11.9952 21
455 1 -8.71462 -0.531779 12.3641 20
456 1 -6.64504 9.46795 -11.8005 6
457 1 10.9463 2.25385 4.40868 25
458 1 0.152425 -12.6291 3.48786 23
459 1 2.57732 5.14916 -1.12273 22
460 1 4.70691 17.4845 6.81461 13
461 1 -0.63471 4.7488 -0.764121 25
462 1 1.6035 9.09135 17.2299 17
463 1 -14.1877 -3.79007 1.44279 9
464 1 1.96045 15.418 -3.16224 12
465 1 8.86617 9.59688 -3.50114 19
466 1 -4.81391 -10.4804 -6.76811 19
467 1 2.85009 -1.39009 19.9416 18
468 1 0.945657 -15.9889 -6.56668 10
469 1 1.5291 -3.4629 -6.42887 25
470 1 12.7976 -14.1424 5.41763 11
471 1 -10.7166 7.32434 5.86489 17
472 1 4.15456 1.8948 20.2606 22
473 1 10.5568 8.07292 4.30468 22
474 1 3.96738 7.4957 4.31414 22
475 1 -5.94496 6.08759 -8.70475 18
476 1 6.40561 -0.557056 -1.13666 24
477 1 6.66223 -8.85231 6.04677 22
478 1 -13.4497 -2.15104 4.05233 15
479 1 0.29437 16.7479 10.9516 15
480 1 -2.19281 2.04255 -6.24973 24
481 1 10.6275 5.88783 7.32825 23
482 1 7.30807 13.8511 -0.117547 17
483 1 7.97586 -3.62304 4.16994 21
484 1 15.7048 3.66667 1.18309 15
485 1 1.24563 0.604549 -9.19099 24
486 1 3.16769 -8.79197 6.2318 22
487 1 1.51006 -15.8453 14.6167 12
488 1 5.87944 -8.68908 16.5757 14
489 1 -3.999 4.75538 -6.15781 23
490 1 -6.45753 -13.1028 9.1374 16
491 1 0.488588 -13.1728 -6.7437 14
492 1 8.90937 10.4837 9.56527 23
493 1 4.51557 2.4817 -6.29753 24
494 1 3.91212 -2.98208 22.1358 8
495 1 -8.64017 -6.73106 11.6613 21
496 1 0.35591 -17.507 4.44321 17
497 1 -13.5422 -3.87447 6.72645 15
498 1 14.4383 -5.47199 -5.43586 12
499 1 13.2713 -2.26058 1.57645 21
500 1 -4.27748 8.51946 1.75187 21
501 1 3.20879 -12.318 -6.93459 16
502 1 6.08681 3.47229 -3.81067 21
503 1 9.72206 -2.2416 -3.90002 22
504 1 -3.67456 -1.59863 20.2481 15
505 1 6.41374 16.3953 4.50188 14
506 1 -5.61259 -5.7003 -9.26732 15
507 1 2.82069 -0.658567 -12.2313 13
508 1 -5.66226 -0.644695 11.6948 20
509 1 0.0434689 17.1954 7.50354 10
510 1 -8.5785 -6.02889 -7.9765 12
511 1 -14.2231 1.87836 6.49607 14
512 1 3.23154 -6.39627 -6.49228 21
513 1 -2.05377 -6.46163 11.8533 22
514 1 1.0387 7.6593 -0.750318 22
515 1 16.5512 -0.394971 8.91138 13
516 1 15.2564 5.12954 4.41743 22
517 1 -3.4559 -12.6979 3.40944 21
518 1 1.44371 -9.56848 3.9368 23
519 1 -3.72224 -7.18441 -11.581 12
520 1 -7.6505 7.69564 12.1376 21
521 1 6.44321 -6.21375 -7.44152 20
522 1 4.33781 5.68242 1.42203 23
523 1 11.4232 0.431193 6.88313 23
524 1 3.59628 12.1226 -3.39284 22
525 1 6.5884 -6.48333 3.40334 20
526 1 12.8738 -0.085185 -1.03278 21
527 1 7.64125 11.7737 16.7473 12
528 1 -6.0855 1.29047 14.5557 20
529 1 7.46661 7.70079 14.8158 23
530 1 10.0646 -5.45727 18.3569 12
531 1 -1.02327 -0.84307 -11.4734 17
532 1 -3.46053 -6.86518 -1.1781 22
533 1 -0.691163 -1.35211 14.7567 23
534 1 7.70323 11.9909 12.3023 20
535 1 12.0456 5.73032 -6.61564 13
536 1 -6.36168 13.256 -6.19086 10
537 1 0.4821 11.6202 1.81504 24
538 1 6.30572 -6.81622 14.1412 20
539 1 13.5564 2.31198 -8.35821 12
540 1 9.87223 -7.91211 0.521941 24
541 1 14.5764 8.1151 15.0999 17
542 1 -11.5448 -6.13764 7.64642 15
543 1 -3.08783 12.1199 -8.37988 14
544 1 0.964457 1.73974 14.8203 23
545 1 -11.2811 1.4232 16.8638 11
546 1 -3.0339 13.4871 -5.26272 19
547 1 6.95934 -11.9663 2.99405 23
548 1 8.05009 0.67572 -3.87438 22
549 1 -3.76267 16.4347 -1.44614 12
550 1 -8.95848 -5.82778 -4.5888 18
551 1 6.55085 -14.2585 11.3578 14
552 1 -11.961 -6.58503 1.19271 15
553 1 1.83796 10.8946 -5.84064 21
554 1 -5.73464 5.66708 -3.28289 22
555 1 1.32311 10.7247 21.5503 12
556 1 -4.97799 -10.0389 14.4266 23
557 1 9.20255 5.4629 -1.12968 23
558 1 5.52175 -15.1678 -1.86614 20
559 1 4.36166 -3.97941 14.6187 25
560 1 7.87946 2.42681 -1.1232 24
561 1 -5.7338 7.56184 4.29426 21
562 1 15.2204 -0.660644 16.0378 14
563 1 5.62602 15.2372 -2.53436 12
564 1 11.5726 -5.22404 1.19616 20
565 1 10.4455 9.54253 20.1636 13
566 1 -0.700098 3.41706 -9.03217 21
567 1 -3.94071 -12.0336 17.2982 14
568 1 1.2376 0.104402 -3.87005 22
569 1 3.6969 -3.00616 -12.1085 16
570 1 8.87109 14.9022 12.4199 10
571 1 12.5457 4.25646 -3.94518 21
572 1 -1.52232 -5.29316 -8.73674 19
573 1 -3.53522 -9.19757 0.958436 21
574 1 -5.11406 -5.96084 -4.03966 22
575 1 12.8075 3.32656 6.83019 23
576 1 9.93274 12.2468 2.45442 19
577 1 7.93973 -5.1297 -4.62061 20
578 1 17.8721 7.51449 14.0254 8
579 1 8.42839 -8.7813 -2.0605 23
580 1 6.66685 6.77917 -10.6282 11
581 1 6.91289 11.7036 6.94984 18
582 1 -7.6371 4.22735 9.10494 23
583 1 11.5071 4.56565 22.6543 12
584 1 10.6857 6.58222 1.88507 22
585 1 14.7775 -3.03201 9.02719 14
586 1 15.856 5.72375 -0.921958 14
587 1 12.1517 3.17019 17.5071 21
588 1 17.7196 5.18724 12.1491 11
589 1 1.20476 -6.0277 16.9495 18
590 1 8.96254 11.2561 -0.521671 24
591 1 5.86153 -3.27435 17.3571 22
592 1 13.9108 3.03598 -1.4337 21
593 1 9.06961 2.7002 12.0856 22
594 1 -5.31467 -0.447832 -3.68493 22
595 1 12.2687 3.63432 1.61723 21
596 1 9.63507 -2.25116 6.87022 24
597 1 -9.7139 6.82559 14.3573 21
598 1 12.2916 8.83036 17.7094 17
599 1 13.4959 0.55512 18.2674 16
600 1 11.2502 11.5407 17.1225 13
601 1 2.15057 12.1885 18.4163 12
602 1 5.80039 2.67038 12.2082 23
603 1 1.7364 -15.4036 8.81361 19
604 1 -4.13475 10.0745 -0.808155 21
605 1 14.1667 6.49902 -3.78487 14
606 1 9.73112 -0.704407 -11.9133 10
607 1 3.6696 13.8296 4.54277 21
608 1 -0.330055 -8.41653 -4.20532 23
609 1 11.9392 -3.93274 -10.7284 10
610 1 -10.8903 4.05092 8.81574 24
611 1 -2.36944 7.7138 -6.26949 22
612 1 -0.793253 -18.9233 7.83128 10
613 1 -3.88906 -1.05599 -6.22578 22
614 1 -5.82394 5.37241 1.69212 21
615 1 11.1749 -5.44137 11.9927 21
616 1 13.4527 11.5001 6.41838 12
617 1 8.19646 -9.71606 8.60605 18
618 1 -7.23383 -1.30138 -1.13547 20
619 1 0.609515 -3.46605 -11.7178 18
620 1 1.10705 5.73567 22.6072 16
621 1 9.03788 6.55674 -8.28463 11
622 1 12.0537 -1.83845 19.4998 13
623 1 10.9075 2.79703 -1.10541 24
624 1 15.3501 11.1963 9.33776 11
625 1 6.96546 -11.6348 -1.74568 20
626 1 -7.23048 -4.30026 17.6497 16
627 1 17.8883 -6.05611 7.48234 6
628 1 -2.42331 6.65866 20.5868 16
629 1 7.1253 12.1878 -3.21161 19
630 1 -6.03025 14.8482 -1.63151 10
631 1 14.2595 8.25511 9.95081 22
632 1 -3.33629 -14.4507 6.27234 22
633 1 14.9979 -5.47001 6.27847 20
634 1 5.17957 14.515 6.97051 23
635 1 -0.751463 4.53151 15.2411 24
636 1 -10.0105 -7.35229 3.57901 18
637 1 -5.1786 -4.24677 -6.2972 21
638 1 12.3232 -0.574274 15.3241 22
639 1 -0.768038 -10.885 16.6283 15
640 1 11.8025 1.52759 20.7316 16
641 1 -3.43939 13.1367 9.37627 20
642 1 11.2258 7.82866 14.7984 21
643 1 9.35015 4.85031 9.95614 25
644 1 3.10978 -0.269449 -6.67036 24
645 1 -10.5941 -1.91462 9.49289 20
646 1 7.64072 0.819661 -9.409 21
647 1 0.0493657 -6.84744 -1.11464 24
648 1 12.9969 -11.9987 -2.05415 14
649 1 8.97607 3.02351 17.3805 22
650 1 5.98269 4.83744 9.57107 23
651 1 -2.09181 -4.56767 19.8659 11
652 1 7.25337 6.04374 16.9432 17
653 1 5.94737 -1.51076 19.9969 16
654 1 -1.10873 8.14264 18.1347 19
655 1 2.65955 -7.99674 -9.46878 21
656 1 -3.96818 2.12415 17.9217 22
657 1 6.73968 4.45092 19.355 17
658 1 -3.36655 -14.4903 11.3683 17
659 1 12.2248 5.15161 4.35321 23
660 1 9.80117 -7.72482 -4.56498 20
661 1 -2.2197 2.00233 -1.24891 23
662 1 10.9062 8.42908 -0.84962 21
663 1 12.4698 10.8741 9.30653 19
664 1 2.57966 -2.23575 -9.2079 21
665 1 -4.09512 2.44198 12.2793 23
666 1 5.69154 11.0136 -0.674974 24
667 1 12.2339 8.727 6.65563 21
668 1 -3.56053 -7.28457 3.84617 22
669 1 -2.50307 -4.13946 -11.6251 15
670 1 -7.73782 13.7941 2.00085 10
671 1 13.0159 -7.53154 -4.56949 17
672 1 7.54267 5.92254 6.97979 23
673 1 15.0799 2.95703 -5.79103 11
674 1 7.11681 13.6961 4.57368 20
675 1 -2.53086 7.32046 9.43727 22
676 1 -5.87997 5.23613 6.65201 21
677 1 7.61533 6.77098 -3.84775 20
678 1 10.2417 0.0114772 17.7797 20
679 1 12.2117 -4.02206 17.2373 17
680 1 2.12339 -14.2183 17.1159 8
681 1 0.854726 6.10124 -8.83418 22
682 1 7.74019 13.6513 14.7982 14
683 1 11.1393 -8.50757 -7.77911 17
684 1 4.17916 1.70379 14.8947 22
685 1 7.40322 8.42414 -0.917072 24
686 1 9.03046 9.01216 12.3407 21
687 1 13.4959 -7.60669 0.621734 18
688 1 7.82135 5.22864 22.3739 18
689 1 -10.354 -3.47197 6.79592 24
690 1 5.16468 -15.2791 3.52069 21
691 1 1.38137 -3.69776 -1.3489 24
692 1 -6.16522 12.9574 4.48917 18
693 1 -2.30776 -0.581416 12.1822 21
694 1 4.57723 -5.69241 1.18834 22
695 1 5.83209 10.5251 9.64112 21
696 1 -12.1316 -0.049584 1.39664 18
697 1 2.33956 4.28662 20.2739 19
698 1 -0.898417 5.43703 -11.9809 14
699 1 -0.766323 9.0887 -8.80331 20
700 1 3.54123 -18.1014 3.61184 14
701 1 12.7671 9.72501 -4.37546 11
702 1 6.62811 -6.85648 8.65076 21
703 1 -2.62677 5.45169 6.93003 22
704 1 -11.1439 3.9753 14.1249 18
705 1 4.60239 -5.06577 -9.20063 23
706 1 6.72714 -12.4924 8.52771 21
707 1 1.7456 13.91 7.50148 22
708 1 -2.13046 1.19925 20.2812 17
709 1 -8.80736 -4.07817 -1.1119 19
710 1 0.49384 -10.8489 -9.16183 16
711 1 -3.50514 -14.9821 -4.30186 11
712 1 0.53756 13.8724 -1.08376 22
713 1 4.42273 -5.14807 -3.89868 20
714 1 0.439108 11.6409 12.6465 19
715 1 11.7724 -8.76778 3.49068 21
716 1 11.16 -15.0777 3.54712 12
717 1 4.56168 -5.86454 11.8653 22
718 1 15.7605 0.40715 -3.99821 13
719 1 3.8648 -14.2674 0.740683 20
720 1 -9.39596 1.36646 14.439 21
721 1 2.35554 -17.8715 6.60355 16
722 1 -5.57855 -12.0951 -4.046 14
723 1 -7.0918 1.37253 16.9995 22
724 1 -1.72147 -15.0361 3.33052 20
725 1 16.0212 1.32617 -1.1179 16
726 1 -0.169954 15.9562 13.998 9
727 1 -9.23457 1.50835 8.60534 20
728 1 -5.93713 7.10653 9.53993 22
729 1 9.627 -0.365288 9.47017 23
730 1 -12.7381 -0.679498 -4.45229 5
731 1 -1.22307 8.7902 2.03662 22
732 1 11.3304 2.54643 -6.34781 20
733 1 12.783 7.47813 20.562 11
734 1 13.7787 8.62934 -1.40675 16
735 1 -9.49011 7.28546 -0.901134 19
736 1 -10.2096 -6.62119 -2.08829 15
737 1 -2.16285 4.86498 23.1607 11
738 1 5.87535 5.47331 -6.3265 20
739 1 15.2564 9.44406 12.1034 16
740 1 -4.14393 4.23298 14.8366 23
741 1 0.514217 -18.1354 -1.53018 15
742 1 -2.48953 -17.1344 10.4694 12
743 1 -0.129276 -8.99322 11.64 23
744 1 15.8754 5.17889 9.86867 20
745 1 3.22399 -6.70723 -1.27621 23
746 1 -4.25061 10.3515 4.53253 21
747 1 7.49143 7.91092 4.32748 22
748 1 -8.68294 -6.47359 6.72535 26
749 1 11.7789 4.96722 -9.06309 12
750 1 2.54243 -17.545 -4.3473 13
751 1 7.27248 -17.7412 3.1103 12
752 1 8.48383 -14.7953 2.68015 21
753 1 9.28258 3.74677 -4.05488 19
754 1 4.03187 17.953 3.11333 12
755 1 -4.03288 3.32268 -8.85047 23
756 1 -2.6953 -0.528912 17.4267 21
757 1 2.75526 3.27225 -8.82114 22
758 1 -9.1079 -3.15731 -6.31418 13
759 1 -12.3963 1.63333 -1.74781 14
760 1 4.70364 14.3408 -5.07697 11
761 1 11.1867 2.38974 9.73497 21
762 1 -3.14282 -6.8722 -6.73058 23
763 1 -5.30846 -6.45376 6.55098 22
764 1 16.0773 3.83593 -3.45823 13
765 1 13.3004 -6.08238 3.62906 20
766 1 -5.91043 5.00729 17.8143 19
767 1 10.2942 -14.2255 6.88756 12
768 1 14.5353 -3.28352 4.35258 24
769 1 12.988 -5.92145 15.1883 15
770 1 2.16621 10.4867 9.86447 24
771 1 -5.677 0.910228 20.2262 16
772 1 -2.50727 4.77685 17.7197 20
773 1 0.11662 -13.1014 14.2926 21
774 1 9.35337 2.98963 6.97338 22
775 1 5.81949 8.74374 17.6243 17
776 1 -10.5034 -1.74858 3.90409 22
777 1 9.86171 -6.22184 3.40529 23
778 1 -4.59357 15.8226 -4.58828 11
779 1 4.24976 7.66877 9.52633 21
780 1 3.2356 -15.4745 11.8889 16
781 1 7.34505 -0.223375 17.1579 23
782 1 -0.0335527 13.1064 9.81067 23
783 1 5.32195 -11.7696 10.91 21
784 1 -8.85921 1.67647 3.46949 24
785 1 7.23986 5.78775 12.1237 21
786 1 -13.0926 -4.476 -1.01311 12
787 1 7.22002 8.44878 20.6409 14
788 1 7.99692 16.3529 7.13726 11
789 1 -8.41995 -10.4092 8.75742 16
790 1 1.00885 -17.8147 10.1403 11
791 1 9.50873 -2.68896 12.0367 22
792 1 13.1214 -8.11882 11.1035 13
793 1 5.76302 8.72806 12.1225 23
794 1 -1.05861 10.1898 4.7 23
795 1 1.67968 -9.5114 -1.59374 23
796 1 -0.308643 -0.770911 -6.64854 22
797 1 -5.88287 -0.950823 18.0491 20
798 1 -2.70203 15.8871 8.83304 15
799 1 14.365 0.148012 12.5644 17
800 1 4.17008 7.97626 -0.978293 23
801 1 -5.49406 4.37941 23.6066 6
802 1 9.1453 4.82068 14.6112 21
803 1 9.30996 -0.158766 -6.72286 23
804 1 -5.10906 -11.9884 6.34927 22
805 1 -1.93518 -3.44517 -6.34228 21
806 1 15.9676 2.70262 12.1255 19
807 1 6.36359 -0.358911 -6.60877 23
808 1 -0.830046 3.98967 20.2913 23
809 1 13.4544 -12.267 3.1607 18
810 1 3.73771 5.16254 -11.3577 14
811 1 -0.0219866 -8.82179 1.2211 24
812 1 13.9692 -0.328213 -6.32859 16
813 1 16.4877 -2.67881 6.27501 17
814 1 0.996511 -4.20528 14.2999 22
815 1 -1.48959 -11.2505 -4.32634 18
816 1 10.5559 14.0912 -0.0233971 12
817 1 -0.133098 -6.80645 9.16546 22
818 1 -12.6953 6.4004 8.62585 16
819 1 17.7148 0.703407 1.85962 11
820 1 14.2568 8.07518 4.12787 17
821 1 4.50159 -8.48224 -12.1342 13
822 1 -3.9035 9.82077 14.8669 19
823 1 17.3091 6.59705 6.04366 11
824 1 11.8617 11.3684 -1.4371 16
825 1 4.51098 0.766854 -9.61124 20
826 1 11.1735 -3.4985 4.18479 21
827 1 -7.37999 4.48932 4.01735 21
828 1 14.1409 6.16247 7.15947 23
829 1 -12.0945 -4.7065 3.92723 18
830 1 -3.06914 7.7928 -11.5324 11
831 1 7.56096 2.01655 14.6046 20
832 1 -6.87921 -3.28914 -3.62796 22
833 1 -7.51096 4.27248 15.1811 22
834 1 -0.746909 3.05926 -3.76611 22
835 1 13.317 -5.76506 -1.98571 22
836 1 -8.35567 -10.4823 -2.22339 14
837 1 15.0772 -9.0951 2.83153 16
838 1 -12.223 6.83932 3.3236 15
839 1 -8.76183 -4.48267 3.98504 22
840 1 14.2721 5.84084 12.5563 23
841 1 -1.71163 -10.1329 14.1321 22
842 1 9.23923 -0.603795 20.4174 14
843 1 14.0905 -4.7323 11.6389 14
844 1 11.3971 -5.35247 6.37374 20
845 1 -9.14207 6.97773 9.24293 23
846 1 9.79038 10.5253 14.9401 21
847 1 4.36662 6.44881 -3.92335 22
848 1 -1.7122 -9.96521 -11.7736 10
849 1 1.10177 13.3589 15.9591 14
850 1 -8.35908 -12.3699 11.7919 14
851 1 6.75023 11.568 2.09479 21
852 1 4.28138 13.68 15.4336 16
853 1 11.3881 -3.29611 -0.880412 23
854 1 6.35058 -8.62758 11.3385 21
855 1 -1.43058 10.9646 -6.10245 22
856 1 2.20365 8.94315 -3.3103 25
857 1 -2.36276 -4.42818 14.3502 22
858 1 18.1146 0.58121 6.21013 12
859 1 3.22436 -8.51409 -4.13809 23
860 1 8.74327 10.5496 4.64397 22
861 1 -8.81188 5.27763 0.989588 19
862 1 -0.983445 -15.124 16.4864 11
863 1 7.14581 8.52303 -6.37385 16
864 1 5.87281 -1.14077 14.8199 24
865 1 2.03064 -17.2933 1.05129 20
866 1 -6.18695 15.5198 9.21373 10
867 1 -12.8158 3.79589 1.35107 15
868 1 11.5626 -2.62955 -6.62478 19
869 1 6.65311 -12.2634 -7.31261 15
870 1 -9.15782 4.73981 6.61956 23
871 1 12.0185 10.667 4.06047 17
872 1 -3.8161 -3.21853 11.782 20
873 1 9.00454 -3.48634 -12.2568 12
874 1 -10.2703 -8.85655 -4.04553 12
875 1 1.56886 -11.6479 1.00759 22
876 1 -1.9854 10.0657 20.7557 12
877 1 8.32298 -10.8635 0.648438 22