ITEM: TIMESTEP
4000
ITEM: NUMBER OF ATOMS
2000
ITEM: BOX BOUNDS pp pp pp
-30.0 30.0
-30.0 30.0
-30.0 30.0
ITEM: ATOMS id type x y z Coordination
1 1 -10.2596 6.1211 -13.2124 13
2 1 -5.38082 -7.35138 -5.7944 20
3 1 2.42492 12.0568 12.0634 19
4 1 8.92195 -11.3158 8.61119 10
5 1 -11.6516 12.392 -3.73447 18
6 1 11.0236 -9.37839 -12.9922 13
7 1 -10.0512 5.7704 -7.97633 19
8 1 1.30607 -11.0381 8.67555 18
9 1 -10.8076 1.37831 -10.8374 19
10 1 -13.293 -9.61899 5.87915 10
11 1 13.0539 3.92534 -12.1686 15
12 1 -6.96886 2.38351 -0.225207 18
13 1 -5.73234 -12.7858 0.508915 20
14 1 -13.204 -6.30626 3.92551 18
15 1 -0.951498 0.864167 17.7675 12
16 1 6.76014 -5.88447 7.44973 19
17 1 -1.58065 2.71491 7.97565 19
18 1 8.72208 -2.96269 0.42316 16
19 1 3.65218 8.83994 -6.30224 18
20 1 1.7486 -3.70224 14.3006 10
21 1 -10.4059 -0.343068 -17.6166 7
22 1 -10.2837 -2.85133 10.1893 17
23 1 12.8733 8.22355 6.75323 18
24 1 5.30249 10.7127 -14.32 12
25 1 5.01661 8.26318 -8.94431 20
26 1 13.1308 3.9797 11.3587 20
27 1 -7.98183 -0.842823 5.84236 19
28 1 -14.3762 6.77679 -9.48903 8
29 1 -3.75004 1.13522 -8.06092 20
30 1 -9.08043 12.0651 8.1327 13
31 1 6.89352 -11.581 5.25743 20
32 1 2.32537 -1.98211 7.713 21
33 1 2.37641 -14.2584 -11.3621 10
34 1 10.3003 -13.5885 0.0240839 14
35 1 -5.40395 -14.6548 -3.74669 13
36 1 -11.4667 -5.82266 11.7436 12
37 1 2.24769 -3.33767 -6.05046 20
38 1 -0.364445 -8.13666 -8.92057 15
39 1 10.3942 -6.48051 -14.8792 16
40 1 -0.996602 5.49706 -18.1708 10
41 1 0.878757 3.49991 13.5803 19
42 1 -5.34621 -13.6981 3.26453 18
43 1 7.38876 -6.19062 13.3608 11
44 1 -11.9326 1.35017 1.73118 20
45 1 -15.3872 -1.66922 9.24742 11
46 1 -9.86513 3.20128 -0.253625 17
47 1 0.683959 15.3484 -2.85621 21
48 1 -0.250749 -14.5575 -8.26835 14
49 1 1.35329 0.0210404 -11.0614 22
50 1 3.88107 -11.7335 -6.39736 20
51 1 -0.956661 -5.64257 12.6393 13
52 1 -14.4388 8.00865 -0.6495 14
53 1 9.95725 11.7581 -12.1558 11
54 1 1.85248 14.167 13.9372 12
55 1 -6.22563 5.58563 -7.41821 19
56 1 -5.42603 15.4094 1.62693 17
57 1 4.85291 -12.7849 3.48377 16
58 1 10.6766 -1.77588 -11.8113 21
59 1 2.02105 -8.5781 -14.1042 14
60 1 -8.92728 10.3371 11.1124 16
61 1 -13.323 -3.93435 -9.82186 15
62 1 6.91755 2.27194 4.44625 20
63 1 -6.38181 9.67522 -5.16907 18
64 1 -5.26969 -10.4738 4.69761 21
65 1 -3.58643 11.0379 16.2657 11
66 1 -13.0691 4.94707 -7.64738 15
67 1 -6.44557 11.2856 14.2909 12
68 1 2.31141 6.94212 -3.78998 23
69 1 2.61886 7.2995 7.51202 23
70 1 -8.35755 -17.4729 -0.0661428 11
71 1 0.473713 10.0533 12.6102 20
72 1 8.33589 -10.7132 -3.89109 18
73 1 5.29521 12.2686 14.4156 10
74 1 -12.6591 3.70962 -13.4276 14
75 1 -11.3627 5.02804 -10.671 21
76 1 4.42668 5.34689 9.72072 18
77 1 7.6515 -2.07012 -11.265 22
78 1 10.6926 -12.1604 2.77502 13
79 1 -15.6886 -0.560284 5.80071 18
80 1 -8.90357 0.0399472 -0.0569301 22
81 1 5.56172 13.174 6.58226 20
82 1 5.05589 -4.91313 13.8009 10
83 1 -7.53855 -10.6833 2.06772 21
84 1 -9.70031 -1.63114 3.15204 24
85 1 16.1316 2.62198 7.49523 16
86 1 10.1319 -0.0748198 -4.33482 21
87 1 -2.66604 15.4289 11.6247 9
88 1 6.03024 0.605743 7.76726 15
89 1 -7.01732 -2.94227 0.906099 23
90 1 -6.05665 -4.06539 -6.15195 19
91 1 -11.6583 10.0694 9.61415 11
92 1 -9.39633 10.4964 -3.95822 18
93 1 1.20092 10.1605 -8.61231 21
94 1 6.50204 0.321915 -4.06896 20
95 1 4.56776 -0.362841 -6.47388 19
96 1 11.4173 12.1452 -9.7232 11
97 1 11.4793 -3.18077 0.561894 15
98 1 6.57417 -8.61763 6.6433 15
99 1 -3.9264 13.9993 -6.40664 17
100 1 -7.50978 12.5895 2.8905 18
101 1 -7.114 -3.122 8.78839 18
102 1 -4.71804 8.60828 3.89133 19
103 1 -3.62852 -4.84619 14.749 10
104 1 9.23608 -2.74191 -8.65336 20
105 1 -7.35976 5.54284 2.28018 17
106 1 -11.0573 -12.2818 2.91075 14
107 1 9.68244 -6.32981 -7.74933 21
108 1 11.3182 -3.63424 -13.6992 15
109 1 -6.97606 -0.662611 -17.1653 10
110 1 5.33791 -0.408719 4.1423 17
111 1 -1.63414 13.2491 0.571727 19
112 1 -5.73684 5.67817 -4.97727 19
113 1 -1.87366 6.61812 16.6603 15
114 1 -0.677489 14.8119 -5.66573 19
115 1 -13.533 13.3193 2.91017 9
116 1 0.271385 8.11967 4.78441 22
117 1 -4.35329 -8.31724 9.59927 19
118 1 13.0788 -0.348086 8.15779 17
119 1 -2.15935 -5.38513 -7.97767 21
120 1 6.00439 -7.5191 -8.06274 23
121 1 -4.24832 2.31083 10.1363 21
122 1 5.64027 0.526743 15.692 7
123 1 -10.162 -4.7243 -4.55841 22
124 1 6.59642 -2.73489 4.21539 19
125 1 -9.37174 -7.31777 -2.42959 19
126 1 13.9894 -4.67665 2.05037 13
127 1 -3.8734 7.71629 0.278257 19
128 1 9.47817 6.93982 -15.6312 12
129 1 6.13562 16.8476 -5.65431 10
130 1 -8.52489 -11.1066 11.2248 14
131 1 -7.96501 -14.4763 6.58526 17
132 1 -5.13875 5.10937 0.0562348 22
133 1 4.43 -9.88614 -13.0169 14
134 1 4.52076 3.22535 -3.77931 19
135 1 9.47079 -8.63402 -1.88244 20
136 1 -4.76112 -16.2483 7.8877 13
137 1 -9.59233 -7.3419 1.55457 18
138 1 14.8748 8.25565 9.08516 14
139 1 11.3167 -2.66901 -5.40662 17
140 1 -17.5563 -0.623121 3.41277 9
141 1 10.4666 8.24341 1.2307 16
142 1 13.7401 8.33373 3.42913 19
143 1 -7.00482 1.60548 14.9291 13
144 1 7.97075 6.72144 -2.39028 19
145 1 -4.2291 9.74961 11.9198 18
146 1 -8.90463 11.2588 -6.77123 14
147 1 -2.47861 -7.20808 -11.1675 17
148 1 13.0628 -11.5388 -5.3197 11
149 1 3.23119 14.9317 -11.0439 14
150 1 11.0027 -2.94455 8.85622 18
151 1 0.237717 -5.48533 -17.1406 10
152 1 -4.06163 11.319 -7.33487 20
153 1 10.8204 5.27936 -3.16922 22
154 1 -10.2609 8.23235 -6.60956 18
155 1 -10.6571 12.5546 -0.573901 19
156 1 7.61465 3.32878 -10.4271 18
157 1 10.6574 -10.5607 5.03369 14
158 1 -3.18604 3.79961 -8.81609 18
159 1 -5.64846 14.9729 9.45072 9
160 1 13.9315 5.34857 -4.68907 20
161 1 8.40673 11.7634 -2.13003 18
162 1 -4.21505 17.6636 -2.31089 11
163 1 16.1656 8.71473 -1.90567 16
164 1 -2.13581 10.4929 -0.686854 21
165 1 -0.469 16.1041 -8.6765 13
166 1 3.94476 12.8298 -13.1731 11
167 1 -17.5792 -6.39371 3.70611 5
168 1 -15.6531 12.0508 1.18896 13
169 1 -1.8746 0.188891 -10.2278 18
170 1 1.84582 -11.7097 -13.1759 11
171 1 8.54658 15.1286 8.03248 13
172 1 2.37559 15.371 7.54483 14
173 1 -12.254 -0.892244 -1.05433 18
174 1 -10.1051 12.1632 2.19611 19
175 1 14.6219 -1.95655 -2.14268 16
176 1 -10.9532 0.803292 -14.305 15
177 1 2.89464 -0.760421 13.739 20
178 1 3.77343 17.8949 3.11867 10
179 1 -1.41705 8.4606 8.18273 23
180 1 1.20379 -5.20407 -9.6692 19
181 1 -6.48058 11.8047 8.50525 17
182 1 -0.964404 9.50447 -2.87376 19
183 1 3.982 -7.37931 11.7361 12
184 1 -15.6085 -4.9023 1.53343 12
185 1 -3.03058 -13.5685 -10.2273 11
186 1 -1.30199 9.41776 -9.26601 21
187 1 0.79965 -8.96332 5.49671 21
188 1 6.20775 -13.8473 -0.511291 17
189 1 -3.75634 10.1203 -10.5539 16
190 1 -14.8958 1.97447 8.81943 15
191 1 4.14692 10.6457 -3.62543 20
192 1 11.5401 9.2543 -4.52072 18
193 1 -7.34264 3.30857 18.1241 7
194 1 -1.33464 -16.4665 7.89403 11
195 1 -8.67962 2.52057 2.37066 21
196 1 1.41322 16.7452 4.80648 13
197 1 -1.5401 5.26715 10.5431 21
198 1 11.6233 6.99009 13.3625 17
199 1 -6.8622 10.1232 2.93508 18
200 1 11.12 -4.67984 -9.61731 19
201 1 -3.04737 11.723 13.4331 17
202 1 -5.36139 -0.259043 -5.21085 23
203 1 12.299 -1.85707 3.35496 14
204 1 -6.19842 0.619949 7.96265 21
205 1 -14.4235 2.08739 6.06272 18
206 1 -8.44012 -8.5321 4.02156 20
207 1 3.81034 2.17278 13.6402 17
208 1 -15.1247 2.09939 -2.26084 14
209 1 -3.08668 -14.91 0.103185 19
210 1 -7.04326 0.0116942 -2.82973 19
211 1 5.69505 -5.29707 -3.9789 21
212 1 -6.71938 8.16546 0.657463 22
213 1 -7.20417 2.79286 9.1417 18
214 1 6.83426 14.3922 10.8362 13
215 1 -10.9431 3.08092 -5.67862 24
216 1 -6.5916 13.7434 -6.83217 14
217 1 -13.2798 -4.99465 -5.22616 15
218 1 -7.33808 -0.567582 10.3238 21
219 1 -0.871085 -11.3963 6.51675 18
220 1 3.86994 -15.8716 4.52871 8
221 1 -9.87163 9.98412 4.62821 19
222 1 15.8518 2.70442 4.60392 16
223 1 2.80726 2.43907 -5.86119 24
224 1 -8.82409 -1.98858 -14.7949 17
225 1 3.05572 1.86594 9.93085 18
226 1 8.76883 -15.883 -0.217831 12
227 1 0.863436 7.331 -16.2745 10
228 1 4.51186 -14.1662 -9.12628 13
229 1 10.9469 -0.919255 -15.3917 15
230 1 4.95643 4.36718 -13.8728 18
231 1 -8.19451 -5.59587 -9.80879 22
232 1 -5.29197 12.7465 -9.57532 12
233 1 -10.5183 -11.1587 8.63656 13
234 1 13.7141 13.277 -3.9243 9
235 1 -8.4551 4.45242 15.0963 16
236 1 -8.47321 13.6994 -2.80388 20
237 1 6.69459 2.85004 9.86312 16
238 1 -6.12209 -6.70724 -14.9461 8
239 1 -6.30873 7.95646 -10.1361 15
240 1 1.52354 4.13685 -9.13512 17
241 1 -8.90915 -13.6247 9.03576 11
242 1 -9.27312 7.98172 6.80823 18
243 1 -3.39793 10.2117 8.03172 22
244 1 -0.15647 -12.4658 -6.06101 23
245 1 -9.15027 -13.7221 -0.0315701 18
246 1 11.9454 -5.47614 -6.07078 17
247 1 3.37978 -5.39848 1.47046 19
248 1 9.50064 8.6829 9.15142 19
249 1 8.47488 8.6581 -9.88476 19
250 1 1.24993 9.90463 -4.93168 19
251 1 -13.5399 7.08751 2.17537 18
252 1 -14.8668 13.2051 -3.59792 7
253 1 1.19673 4.14024 10.2919 22
254 1 6.27901 -17.0293 1.51597 9
255 1 13.1536 3.12793 -3.30361 20
256 1 -0.306057 5.90762 7.37864 20
257 1 -13.028 8.82094 6.39575 15
258 1 -12.2658 -4.50321 -1.96569 20
259 1 9.86001 4.28627 -13.5893 21
260 1 3.36726 -4.78112 9.70113 17
261 1 8.13726 9.27019 -13.8237 14
262 1 4.22264 -8.52989 -4.87748 21
263 1 -4.85883 0.877978 -11.1329 16
264 1 2.90925 -16.9744 2.49877 10
265 1 15.2752 -0.245297 -10.1778 11
266 1 -12.7424 -3.63686 3.02868 24
267 1 3.61994 -13.563 -2.10294 18
268 1 -8.68062 -0.565258 -9.24856 23
269 1 3.4848 13.8038 -1.90789 20
270 1 -2.64515 -1.25843 -12.9751 16
271 1 6.3336 3.43094 15.2422 13
272 1 17.528 2.58032 -1.49988 13
273 1 -3.69831 -5.44462 1.53553 17
274 1 12.5713 -6.467 -12.3536 14
275 1 -1.7994 -8.01097 2.58387 23
276 1 -8.87101 -3.83843 -12.628 15
277 1 -13.9015 3.18935 -10.8109 13
278 1 -5.48871 -13.4465 6.81934 22
279 1 9.79646 -0.337447 8.38381 19
280 1 6.39885 -4.02269 10.3924 20
281 1 -6.11166 -7.65581 -11.7242 17
282 1 1.97704 -4.74516 7.05664 19
283 1 -0.642152 5.10404 -14.6677 19
284 1 7.91579 8.86661 -0.21181 19
285 1 -6.88702 -5.82712 2.77107 15
286 1 -0.0545211 11.4494 2.16373 18
287 1 -9.6258 4.78659 8.24969 21
288 1 -10.1029 -8.25518 -8.69131 18
289 1 -5.45841 -4.40534 -13.1853 19
290 1 -4.06709 4.45511 -16.8104 11
291 1 -6.96065 -8.50603 -8.66189 21
292 1 -6.59055 -9.06791 -0.233328 21
293 1 7.2287 -6.27773 -15.9364 15
294 1 8.96602 -0.0389856 -9.88446 20
295 1 13.7997 0.334579 2.69676 18
296 1 -0.489304 -5.24697 -3.53419 19
297 1 -10.6383 -5.06058 9.01506 17
298 1 -6.29007 -8.39171 -3.52578 18
299 1 10.3499 5.34148 11.1448 20
300 1 -3.77348 -18.573 2.97664 7
301 1 -1.05505 -13.1505 1.73306 18
302 1 -2.89643 15.206 -3.73194 19
303 1 13.5439 1.61358 -16.7218 5
304 1 -13.0922 -1.27655 -15.2481 11
305 1 4.93671 -6.53614 -0.9695 21
306 1 -10.0856 -8.81761 10.5802 15
307 1 1.40727 7.53009 18.2449 8
308 1 4.5556 -8.35207 1.28058 16
309 1 -5.14754 -11.7773 -8.90573 14
310 1 -7.84195 3.89014 -5.7917 20
311 1 11.2569 1.11371 6.43334 20
312 1 -5.33514 4.80585 -10.664 21
313 1 1.50574 10.0778 -13.8386 11
314 1 -4.26208 -2.57998 7.31058 21
315 1 13.7015 -9.6637 -8.21993 9
316 1 -6.31317 15.1705 -4.24459 14
317 1 3.05749 11.7813 1.57906 21
318 1 9.55833 2.75027 3.82238 22
319 1 -12.9439 4.20419 4.10483 21
320 1 0.337879 -8.35265 10.8537 16
321 1 -7.49287 7.44357 4.33687 24
322 1 2.58733 -3.68042 -11.4076 18
323 1 14.8824 10.0014 -4.25735 14
324 1 3.02291 -10.7988 3.07209 16
325 1 -3.1428 -1.77999 13.0897 16
326 1 -15.9775 -4.00447 4.87963 17
327 1 2.10908 -13.8612 -4.36284 18
328 1 -7.65401 7.46503 15.9504 13
329 1 -10.2545 6.48275 13.3457 19
330 1 -13.8298 -2.94762 12.0767 8
331 1 -13.6774 -4.90756 9.8952 12
332 1 12.2233 -2.98448 -3.22398 19
333 1 -11.7864 -7.99419 7.96421 16
334 1 6.15991 -2.1554 -8.86048 21
335 1 14.9463 -6.25246 -7.85755 10
336 1 3.58752 15.9351 -4.16218 17
337 1 -2.8483 -3.72928 5.09546 20
338 1 -11.9405 14.8585 -2.63862 11
339 1 3.0875 1.06125 7.24857 16
340 1 6.72387 10.5043 11.7344 19
341 1 -10.417 -2.78442 5.74371 17
342 1 11.0733 -8.86641 -4.9949 18
343 1 -3.90965 11.0437 4.28262 17
344 1 -11.2788 7.6725 4.26498 16
345 1 4.28439 -13.0671 6.41543 14
346 1 14.5556 -5.6671 4.98121 9
347 1 -4.09452 7.54839 9.56968 21
348 1 -5.98379 -1.07101 -7.65405 19
349 1 -4.70315 1.25969 17.147 12
350 1 -1.45303 15.8779 5.73132 12
351 1 9.48635 8.33932 15.2839 13
352 1 -9.47987 14.1364 -5.54168 13
353 1 -2.57081 -1.96218 -15.5995 17
354 1 -4.21326 2.92154 -5.33848 23
355 1 6.53248 -11.944 -9.51371 15
356 1 -12.4262 7.04715 9.70631 16
357 1 -15.5411 3.88939 3.36 15
358 1 -3.49993 -2.45202 -7.78932 20
359 1 -8.55192 10.7564 0.321724 21
360 1 8.11693 -2.81586 7.941 18
361 1 -11.7904 -9.13571 2.25304 18
362 1 5.4426 -5.87229 4.17559 19
363 1 -7.11839 -8.20707 9.94385 21
364 1 -16.0257 9.26352 1.39089 11
365 1 -0.685972 -5.9079 8.26403 19
366 1 -1.21528 -9.73401 -5.9357 21
367 1 -6.12506 2.06726 -7.68619 20
368 1 6.02246 -3.42059 -16.6938 13
369 1 3.63862 13.6795 4.29565 18
370 1 -15.349 -0.123689 -0.0320888 15
371 1 6.92231 -13.5445 -6.83086 11
372 1 11.0848 2.08052 -15.6393 11
373 1 -8.53823 -8.21853 -6.16875 18
374 1 -13.0393 -7.33522 -9.73371 11
375 1 -2.0761 -6.36326 -0.689858 21
376 1 9.46873 4.76379 14.5604 13
377 1 12.7689 2.7042 2.94606 19
378 1 -7.13806 1.60647 -10.2288 19
379 1 2.09816 17.2397 -1.10586 14
380 1 -12.7414 0.509331 -4.58267 18
381 1 -6.71032 10.3183 6.0989 23
382 1 -4.87334 11.9395 1.25298 16
383 1 -2.7348 8.28648 5.98111 23
384 1 12.0527 8.06897 10.251 22
385 1 8.38602 1.50046 -6.95565 20
386 1 11.5129 -2.95152 12.6784 10
387 1 14.0967 -0.512105 -6.95848 19
388 1 -7.9395 -16.1906 -2.7235 13
389 1 1.70319 3.73431 7.35496 21
390 1 0.793699 4.84054 -5.75537 22
391 1 0.80984 -8.15222 -4.20829 21
392 1 -1.04422 11.0595 5.37002 19
393 1 -13.0237 1.64898 -8.09155 19
394 1 6.74498 -8.8997 -2.61546 19
395 1 8.75534 2.58432 7.40964 21
396 1 -6.09015 -2.90469 -10.2424 17
397 1 -8.54295 -13.6258 3.04324 20
398 1 -2.30276 -6.6639 10.7092 20
399 1 -3.81157 13.0876 -1.23156 15
400 1 -12.0974 -6.94627 -3.34008 15
401 1 6.75079 9.42641 14.7145 14
402 1 -6.34344 7.47672 -2.42841 19
403 1 -0.727682 11.5389 -6.87569 19
404 1 5.10748 9.68742 6.23167 15
405 1 -14.6201 -5.74134 -1.87271 14
406 1 -3.53006 -10.4873 -5.22102 21
407 1 -10.7514 1.07624 4.74402 20
408 1 -12.1462 11.6421 -6.71303 11
409 1 1.72968 -5.68116 3.91205 19
410 1 -0.311502 -14.0992 -1.95861 21
411 1 10.7301 12.1697 6.95123 15
412 1 7.35251 4.65119 -15.7555 11
413 1 -8.855 3.50641 -13.5307 15
414 1 -5.35609 12.1375 -4.32483 21
415 1 -8.37109 2.64895 -3.36852 21
416 1 -2.67116 -12.315 4.59396 17
417 1 12.5258 3.93521 5.67984 17
418 1 6.32514 9.57639 -11.4371 22
419 1 -3.59396 0.213851 7.60743 21
420 1 -13.6285 2.8824 0.681595 20
421 1 -9.66379 4.76334 4.24851 18
422 1 -0.659515 -10.3332 3.24148 20
423 1 0.31796 -6.42259 -6.73696 20
424 1 5.33369 -12.4874 -12.1393 10
425 1 0.320472 -4.54325 10.2329 19
426 1 -14.3431 4.77345 8.86439 13
427 1 -12.64 -0.267219 9.69685 18
428 1 -15.7081 7.10816 7.80688 9
429 1 -5.20181 -8.37095 2.37894 19
430 1 -6.866 1.16668 -15.3255 16
431 1 8.44723 -9.3016 -9.1033 19
432 1 -1.91162 -11.3975 -8.36254 20
433 1 -2.88719 -3.65679 11.116 18
434 1 2.46333 -5.64023 -3.9027 22
435 1 -3.82281 0.898902 -16.454 12
436 1 8.57251 -15.8772 3.22519 8
437 1 2.04596 13.096 -5.06431 20
438 1 -12.3447 11.501 6.51446 11
439 1 -6.18142 -3.07613 11.8481 19
440 1 -11.2358 -5.90442 -11.222 19
441 1 -6.57317 -5.39092 7.0886 15
442 1 8.83263 -8.21546 4.69798 15
443 1 6.53665 2.85424 -1.985 19
444 1 -5.49383 5.10615 4.46803 20
445 1 2.80504 -2.14073 -8.54535 22
446 1 10.0647 -6.03967 1.39272 13
447 1 16.7002 6.6971 -3.96922 15
448 1 -2.38821 1.20547 14.7961 18
449 1 -0.857702 13.0402 -2.45707 18
450 1 6.41714 -5.08036 1.59606 18
451 1 -3.37864 -16.5666 -3.18083 12
452 1 -6.61699 7.01946 19.498 7
453 1 0.683268 15.0527 10.6847 19
454 1 -9.11424 -10.7213 -7.45623 12
455 1 7.8069 15.9821 0.273647 15
456 1 2.09264 6.66657 11.9586 20
457 1 -9.4542 6.97079 10.1969 19
458 1 -8.14816 -2.35145 -4.81001 22
459 1 -15.1048 4.43517 11.6999 9
460 1 -9.6949 -3.23118 -7.23821 21
461 1 -3.6821 12.5495 10.5525 21
462 1 -4.86652 -11.0636 -2.00808 20
463 1 -3.64156 -7.44001 -13.3728 14
464 1 -6.14293 -15.9018 1.35838 16
465 1 -7.05164 -0.0591429 2.291 22
466 1 8.02923 5.13961 6.01616 22
467 1 -2.46432 -9.12056 13.0764 10
468 1 -8.14725 4.59365 -10.7788 19
469 1 9.71129 5.17156 0.0795571 19
470 1 -11.0222 -12.1041 -2.04089 13
471 1 6.01635 3.41554 -6.70484 17
472 1 -1.37325 16.198 2.42743 15
473 1 4.21445 5.77003 -6.51327 16
474 1 -0.695864 13.4726 12.5335 16
475 1 -16.9256 1.80194 0.850881 11
476 1 1.24669 17.6932 -5.86781 11
477 1 4.69806 13.6212 -7.51602 18
478 1 -8.46873 -5.46458 -7.1021 21
479 1 1.61194 1.87618 15.6028 19
480 1 2.29242 -15.3536 -6.8611 14
481 1 -3.17509 -4.06744 -10.6463 15
482 1 9.05375 -13.3271 5.49595 12
483 1 -12.9278 10.4055 1.77166 23
484 1 2.56882 5.42411 14.8077 19
485 1 15.0347 5.08062 -1.73318 21
486 1 4.75901 11.2563 -0.847408 15
487 1 -3.86409 7.10841 -9.71994 22
488 1 4.17635 -1.10162 -11.0168 18
489 1 -1.23827 -6.73591 4.77539 20
490 1 -14.0916 -2.72041 0.17929 17
491 1 4.40444 18.0384 5.81226 8
492 1 -1.8437 5.02882 -11.2592 21
493 1 10.1357 8.37907 -1.88125 21
494 1 6.06592 16.3147 -9.34039 10
495 1 7.02782 -2.04575 -5.81779 18
496 1 16.0071 1.06673 -4.12873 14
497 1 3.76838 2.42031 -11.1841 17
498 1 1.4877 -8.07485 1.66543 17
499 1 6.27026 -12.653 8.58327 10
500 1 3.21241 -12.872 9.83854 10
501 1 -9.50937 2.56556 -8.40587 21
502 1 -7.00792 -10.998 8.34876 22
503 1 -3.11827 -13.6693 -7.19714 17
504 1 8.65543 13.9179 5.24585 18
505 1 3.43779 1.241 -13.439 19
506 1 4.98325 -0.858487 10.6097 16
507 1 -13.1579 2.03597 12.1717 16
508 1 -2.13619 -17.4407 -0.224134 12
509 1 -6.55039 -3.59121 4.50847 21
510 1 12.6136 -1.99264 -9.27886 15
511 1 11.2893 -0.499472 -1.53139 19
512 1 -0.798504 8.22679 -5.52376 23
513 1 2.0997 -10.7547 -4.88658 19
514 1 4.83212 3.97312 -9.29323 18
515 1 12.5389 1.65429 -9.70021 15
516 1 -4.43334 0.947484 13.3327 19
517 1 8.1192 15.6115 -3.33814 10
518 1 -5.2504 -3.76591 -16.6454 12
519 1 2.48971 0.66388 -16.3117 12
520 1 -5.4988 -5.22569 9.98739 20
521 1 -3.6268 14.0757 3.56636 16
522 1 -11.353 -1.89064 -12.4663 20
523 1 -17.1498 2.33992 5.71255 11
524 1 -0.30181 -12.225 -11.4017 15
525 1 -4.91603 -10.8014 10.9276 16
526 1 6.775 5.87158 -9.15914 20
527 1 16.0306 4.56733 10.1513 12
528 1 17.8218 5.32058 -0.628662 11
529 1 -12.2677 -8.61711 -1.08821 15
530 1 -0.26725 -9.10119 -0.205708 18
531 1 -2.93329 2.35064 -13.1649 17
532 1 -7.12074 12.0777 11.6209 13
533 1 6.31883 -7.69679 -11.1371 20
534 1 2.25157 9.0975 -1.56624 17
535 1 9.80675 -0.556385 3.13641 16
536 1 5.98383 13.06 -10.7491 18
537 1 7.75917 -8.07788 0.412387 19
538 1 14.9579 5.77956 -12.5216 9
539 1 -0.347225 6.14076 13.4891 19
540 1 -11.7585 4.7484 10.8026 22
541 1 5.05135 12.1072 9.71821 15
542 1 7.88429 -2.89389 13.9531 9
543 1 5.19046 2.16246 -16.5609 13
544 1 -4.14323 -5.31614 -3.1873 20
545 1 1.26845 -1.30945 10.6264 17
546 1 9.67119 13.4851 11.0399 10
547 1 10.2444 7.01822 -7.97543 18
548 1 -13.1676 8.44022 -7.0401 11
549 1 -2.31143 10.8729 -4.60074 20
550 1 13.0796 0.262182 13.2282 7
551 1 12.5153 5.12619 -15.593 12
552 1 9.69413 -6.0095 -4.15765 17
553 1 11.8468 11.4376 9.95838 16
554 1 -15.2481 -1.52093 2.74589 17
555 1 -6.9576 10.0953 -8.5551 15
556 1 -1.70149 2.1729 11.309 16
557 1 -10.8719 -0.520269 12.1967 15
558 1 -1.46828 12.9285 -9.21588 20
559 1 12.5735 -11.0256 0.367691 11
560 1 5.59112 1.07773 -9.0921 21
561 1 -2.07244 17.2448 -6.53533 11
562 1 -11.1796 -4.56712 -14.5755 10
563 1 7.75051 -11.0524 -0.132884 20
564 1 -10.8284 -2.89228 0.559163 17
565 1 0.0264964 14.3881 -11.2279 13
566 1 -10.4439 0.699811 -2.98123 20
567 1 -1.91213 8.70674 14.876 20
568 1 -8.54844 -5.38465 11.4414 17
569 1 4.96669 8.21265 -1.46993 19
570 1 6.6843 -10.3441 -6.46398 19
571 1 5.01823 -8.03197 9.19995 17
572 1 11.0786 2.42308 -5.28944 17
573 1 -11.7274 6.17353 -1.20706 20
574 1 3.80472 4.34769 17.38 9
575 1 5.20792 16.9771 -2.25319 15
576 1 10.887 -0.198714 -7.30523 21
577 1 3.28995 9.37803 10.5403 16
578 1 -1.38504 2.46534 -16.1518 16
579 1 -5.84564 -13.4847 9.53866 16
580 1 0.302896 0.403339 -8.07591 19
581 1 7.82417 -1.60021 -14.0748 21
582 1 2.24737 12.9244 8.82164 17
583 1 11.3135 9.07314 -10.9903 15
584 1 0.494268 2.39043 -13.1899 17
585 1 -7.24253 -5.67191 -3.68636 22
586 1 -13.49 -3.99317 -12.8481 11
587 1 17.2901 4.32745 1.58935 11
588 1 16.6062 3.67843 -4.01002 18
589 1 11.6214 -10.7633 -10.2763 10
590 1 14.6773 10.2362 11.9937 9
591 1 7.67226 -7.84761 -5.61221 21
592 1 7.89622 -0.26849 -16.5346 13
593 1 4.31226 15.0721 0.8209 17
594 1 -6.94817 1.99811 4.86933 22
595 1 10.9832 10.062 12.3569 18
596 1 14.2444 7.62328 0.369411 18
597 1 14.8438 -2.81625 4.46103 14
598 1 12.8627 4.52838 -8.22054 19
599 1 8.16077 -1.54432 11.2349 18
600 1 14.1251 6.70391 11.9116 16
601 1 -1.13958 -2.16372 7.78524 19
602 1 13.1513 10.4797 -1.77478 22
603 1 7.18566 0.511071 2.18236 18
604 1 1.07876 -1.17823 16.7223 10
605 1 18.2801 -0.74395 -8.82043 5
606 1 9.76198 2.51145 10.2067 19
607 1 -8.65549 0.68547 -6.04706 20
608 1 11.4262 5.24091 2.77713 16
609 1 9.08 -2.34494 -3.12437 21
610 1 1.33577 -6.40169 -0.990645 19
611 1 -12.433 8.12961 13.3314 9
612 1 8.30803 11.3835 9.29808 20
613 1 12.447 2.78024 8.68465 19
614 1 2.01023 10.9362 4.82016 20
615 1 2.87475 10.8418 14.7322 16
616 1 1.97689 5.3499 4.86339 21
617 1 -2.08017 -16.1911 2.81093 14
618 1 -4.93154 9.93282 -2.0265 21
619 1 13.2212 10.483 -6.85347 11
620 1 8.5028 -4.61716 -13.3913 18
621 1 -1.48722 16.0795 -0.803871 19
622 1 -2.83826 -13.3048 -4.18898 20
623 1 8.84829 -11.0574 -11.8407 11
624 1 -11.7056 6.03343 6.74198 16
625 1 -3.95332 8.28514 -7.02334 23
626 1 0.724099 -16.0567 5.31746 11
627 1 -6.06101 -1.68416 -14.572 19
628 1 -14.0483 2.74279 -5.35269 14
629 1 11.6991 -7.51616 5.36404 11
630 1 5.43584 9.12606 1.72546 21
631 1 -0.131405 -14.0355 10.1076 13
632 1 -10.7247 -0.504131 -7.23769 20
633 1 -0.162605 -3.48433 -14.2456 21
634 1 5.25908 -2.95994 7.40182 18
635 1 -3.77875 4.42873 7.7824 21
636 1 6.2177 7.35877 -14.2387 16
637 1 11.8141 -0.271428 10.799 18
638 1 10.5674 10.0459 -7.66304 18
639 1 10.1359 15.1972 2.48363 11
640 1 5.88515 -12.7933 -4.08908 17
641 1 -6.96976 -4.40798 14.3336 9
642 1 10.137 -2.27926 5.89054 19
643 1 -6.6644 9.7931 17.3011 12
644 1 8.61723 14.0558 -10.5726 11
645 1 -11.6642 9.85069 -1.47523 19
646 1 11.1158 11.1578 -0.0791576 16
647 1 -10.0669 -9.84155 0.102273 19
648 1 14.2616 -2.31389 0.455349 14
649 1 7.43841 16.7312 3.31263 15
650 1 -6.2405 5.54426 9.76826 20
651 1 -10.0209 -4.52985 3.22255 18
652 1 -10.3446 -2.9958 -10.0363 22
653 1 7.31625 4.49261 12.0022 20
654 1 -1.34224 -11.4997 10.6871 15
655 1 8.32733 7.75664 12.1045 22
656 1 -7.5437 11.7453 -2.00425 20
657 1 8.846 5.81551 3.19034 17
658 1 6.59186 -3.25503 -1.27075 17
659 1 5.76156 5.10214 3.65169 22
660 1 6.45628 0.898693 -12.1095 21
661 1 -8.64878 4.57182 11.5583 21
662 1 10.5473 4.56117 -10.432 18
663 1 -2.27575 -6.70937 -5.16814 18
664 1 12.4997 -7.4944 -9.17263 15
665 1 7.46638 8.5029 4.84486 21
666 1 3.84966 7.83455 4.69288 24
667 1 -12.0927 1.57301 7.89982 16
668 1 8.06084 10.4355 6.18997 20
669 1 3.65983 -2.68624 11.8487 13
670 1 -4.00937 6.24977 12.4531 19
671 1 -0.21937 -2.61656 -11.7607 17
672 1 -6.27838 4.1737 13.2364 18
673 1 7.79987 5.20885 9.42084 22
674 1 -8.13537 -11.3615 5.41077 18
675 1 13.2666 7.46594 -2.35844 19
676 1 8.40436 -14.0099 -3.07262 13
677 1 -2.39984 5.37807 -5.58418 25
678 1 7.29704 9.56141 -3.50473 20
679 1 6.62211 13.8747 3.00491 22
680 1 5.24646 -1.02494 -14.9929 18
681 1 0.191821 0.27992 7.49853 20
682 1 -0.867707 17.9715 -3.10031 11
683 1 15.9015 10.5013 0.774959 11
684 1 -8.91162 -5.11839 -1.02621 16
685 1 0.228584 -2.05535 -17.4824 10
686 1 -13.556 13.5156 -0.296577 15
687 1 5.1772 -7.21059 -13.7505 16
688 1 3.66376 5.99599 1.81558 22
689 1 15.9054 8.38459 -10.3503 5
690 1 13.9928 13.2166 -0.985323 9
691 1 -1.84289 5.58488 5.24692 21
692 1 -8.31443 5.25465 -1.00392 21
693 1 5.67376 7.54314 -4.32076 17
694 1 12.836 4.13887 14.265 9
695 1 10.604 1.78425 13.1683 14
696 1 -2.82753 -13.8636 9.74294 14
697 1 -2.47742 7.93103 -12.197 18
698 1 3.63303 15.0132 11.5232 12
699 1 7.94735 -8.76817 -14.3492 13
700 1 4.09817 4.75628 6.02107 19
701 1 5.98386 12.8049 -4.34836 18
702 1 7.89996 10.3304 2.85531 17
703 1 14.2217 -4.60153 -4.63679 12
704 1 6.63778 6.14333 15.3274 16
705 1 -13.8273 -2.75514 6.19685 14
706 1 0.539525 -16.0771 0.373851 16
707 1 -0.0275316 -2.27994 -8.72274 21
708 1 -7.70001 15.8825 3.61627 9
709 1 0.754658 8.09089 10.031 19
710 1 4.75838 -4.65737 -9.54934 19
711 1 0.867103 10.2002 7.92081 19
712 1 -12.7903 -0.408898 4.7686 18
713 1 -2.22553 3.60708 13.7061 19
714 1 -3.29972 5.23141 -14.0596 20
715 1 -5.53754 7.22381 -12.8242 16
716 1 4.67944 -12.0988 0.690447 18
717 1 4.79349 6.79336 -11.6584 16
718 1 3.33489 -3.15421 4.60686 22
719 1 -0.0387836 8.12662 -0.128892 22
720 1 -12.7828 4.68501 14.2987 12
721 1 9.29947 0.748835 -12.8884 17
722 1 1.20949 -14.3393 7.54296 14
723 1 1.38154 14.8434 0.893756 19
724 1 -4.72725 4.72303 18.5752 13
725 1 -9.11481 -7.50532 -11.8739 14
726 1 -3.13329 -10.2643 -11.161 15
727 1 -6.55776 -12.8704 -6.05307 9
728 1 -2.68141 16.8474 -10.2035 5
729 1 5.91131 -4.69862 -12.5159 19
730 1 -3.86923 13.0875 7.09456 20
731 1 4.4115 -9.65955 -8.46175 17
732 1 11.5301 -15.5791 -2.63955 7
733 1 3.86338 -7.35344 6.16211 18
734 1 14.9052 3.64279 -9.62077 15
735 1 2.96377 -8.76956 -2.15269 17
736 1 -9.90396 -0.543732 8.0632 21
737 1 2.34568 1.62832 -8.84512 23
738 1 -5.32864 -17.3281 -1.43163 13
739 1 -8.85016 -13.4862 -3.7415 14
740 1 -6.98466 4.30072 6.41764 19
741 1 -10.6477 -17.0681 -2.83025 5
742 1 16.0541 5.20777 -6.9247 13
743 1 -8.4208 14.6107 -0.0804977 16
744 1 -1.66026 8.29532 2.38877 21
745 1 -14.6842 10.1263 4.26534 14
746 1 9.0909 -5.04194 5.51224 19
747 1 -13.2056 -1.02367 -10.235 14
748 1 1.43587 13.2239 -8.10149 20
749 1 7.50447 4.06682 -4.23081 19
750 1 8.56918 11.8327 14.2924 9
751 1 12.5702 4.16985 -0.331508 19
752 1 -12.4297 7.34421 -12.3567 9
753 1 -11.7584 -5.91889 -8.03527 20
754 1 -1.87583 3.494 16.6395 18
755 1 2.49034 9.13106 -11.1511 17
756 1 11.8353 13.4775 4.10303 10
757 1 -1.54188 -0.46767 10.2205 21
758 1 -2.26317 -11.8133 -0.77132 21
759 1 -10.725 -16.6405 5.07372 5
760 1 -3.44862 -5.32096 7.54799 21
761 1 14.1282 10.5378 8.35945 13
762 1 3.47795 -6.36284 -6.65687 20
763 1 -3.67287 7.89077 -4.18423 18
764 1 6.80589 12.2814 0.975515 18
765 1 -4.37075 -6.6382 4.75376 21
766 1 10.8606 6.52728 -13.0673 16
767 1 3.44397 -16.7328 -3.62793 8
768 1 0.0815444 -16.7668 -2.85918 11
769 1 1.3528 -12.0788 -0.683194 18
770 1 7.71883 5.94156 -11.9745 19
771 1 5.76401 18.2981 0.9657 10
772 1 -0.16368 -0.136337 -14.8868 17
773 1 -0.287699 -0.7397 13.9258 17
774 1 1.73685 3.90401 -16.134 15
775 1 -14.9458 1.13524 -13.513 5
776 1 -9.22916 -2.44416 -1.8759 24
777 1 3.62048 15.9736 -7.52103 12
778 1 8.06532 0.146613 -0.92605 20
779 1 -3.05207 -5.20334 -15.6887 16
780 1 -5.76217 -5.81201 -0.721426 22
781 1 9.61173 6.81103 -5.09295 16
782 1 14.391 -7.95702 -5.55692 12
783 1 -9.04084 9.60913 13.9528 12
784 1 10.0946 -9.22047 1.85639 17
785 1 14.9158 -5.13346 -1.39481 10
786 1 14.5825 -2.96958 7.58637 11
787 1 -0.853942 12.7874 7.80158 18
788 1 -10.6341 2.86538 13.0271 17
789 1 -7.125 9.12364 9.10041 18
790 1 -6.59672 -15.6824 4.58096 16
791 1 10.9994 0.812887 1.0246 22
792 1 4.67019 8.06182 12.8594 19
793 1 -14.4317 1.10493 2.89468 20
794 1 7.72673 -5.30752 -10.0334 22
795 1 -14.5052 11.0257 -1.42845 17
796 1 2.00458 8.65792 2.4495 20
797 1 2.14001 -13.6174 1.50919 17
798 1 4.39767 4.87372 12.327 21
799 1 0.907674 13.7936 3.92905 17
800 1 1.06347 -12.763 4.42922 19
801 1 -11.8296 -2.27028 -4.19409 22
802 1 0.982956 1.08395 11.8427 18
803 1 -14.8312 -2.20253 -2.70306 15
804 1 0.632806 8.42561 15.3394 18
805 1 0.947855 11.868 -0.752982 22
806 1 -11.0594 -10.0489 5.0986 16
807 1 -3.9791 -10.7538 1.51146 21
808 1 7.86495 -7.73069 10.3314 14
809 1 10.0086 -8.28042 7.62492 12
810 1 6.1398 8.35807 9.94458 19
811 1 -3.11094 6.11569 -2.40946 22
812 1 1.94594 -9.31865 -7.55152 19
813 1 2.41025 -1.5637 -13.7821 21
814 1 -4.58258 -0.705755 10.5193 19
815 1 -3.88677 17.8364 0.906857 12
816 1 16.3527 1.75065 1.49818 12
817 1 7.96072 11.7788 -8.9349 20
818 1 -4.25843 8.46908 17.9924 12
819 1 10.492 5.63783 7.96582 21
820 1 2.36029 -5.27785 -13.6483 20
821 1 -7.66345 -11.4074 -1.88225 17
822 1 -3.93778 -2.97963 -4.5342 18
823 1 14.6882 0.0414348 5.43508 17
824 1 -0.418178 2.78339 -9.93904 19
825 1 -1.57755 8.14118 11.5943 20
826 1 13.0826 -9.47326 -2.68039 14
827 1 7.81767 2.17059 -15.2649 17
828 1 -3.36098 -8.00389 -2.89698 20
829 1 12.8861 6.65288 -9.92859 19
830 1 17.7059 -0.819205 -0.361587 7
831 1 1.84579 -7.75578 8.51141 22
832 1 -3.92601 -8.60653 -8.53899 21
833 1 10.588 14.216 -5.64961 7
834 1 3.49033 -10.353 6.69543 16
835 1 -16.1734 7.08727 3.84851 11
836 1 13.8871 2.60312 -6.24787 22
837 1 14.5865 5.6194 4.04489 16
838 1 3.60797 -7.22752 -10.6573 18
839 1 -5.78266 13.8381 5.48712 15
840 1 15.7743 8.5023 6.16674 13
841 1 8.84806 11.232 -5.45813 18
842 1 9.07582 -3.48311 -15.9894 16
843 1 7.68702 -5.99357 -2.31526 20
844 1 -12.2062 3.4432 -2.6819 18
845 1 10.6505 7.71885 5.04108 18
846 1 -12.9701 -6.28159 0.720628 16
847 1 -9.69519 8.09541 -10.0357 13
848 1 5.63684 6.8713 7.23633 19
849 1 -14.6162 -0.765671 -6.0717 10
850 1 -17.1331 5.63265 5.92862 8
851 1 -1.10613 5.95883 -8.09312 23
852 1 9.7696 -7.11375 -11.182 20
853 1 -11.6374 -7.76446 -6.34644 17
854 1 12.1253 -7.69604 -0.353056 13
855 1 -14.5773 4.68835 -2.2625 13
856 1 -12.547 -2.92123 -7.32921 17
857 1 11.0633 10.3148 3.66315 17
858 1 -6.16012 -8.86397 7.23004 20
859 1 7.15593 1.02239 13.1531 15
860 1 16.5371 -0.0801115 7.29334 11
861 1 8.08857 -0.523524 6.04654 21
862 1 -11.0764 4.87763 1.85134 19
863 1 -1.0982 11.4119 10.4562 21
864 1 4.65952 11.0411 -9.43239 19
865 1 -0.740352 -9.68956 -13.5309 12
866 1 -4.27434 16.9908 4.15322 11
867 1 -10.7346 -12.7598 5.89582 13
868 1 11.3622 12.3985 -3.2485 17
869 1 -0.616474 12.115 15.4849 14
870 1 15.8039 -3.06297 -9.19947 10
871 1 5.81361 -10.7793 10.7254 11
872 1 -0.96726 11.3496 -11.5548 16
873 1 2.35682 11.907 -11.4255 19