ITEM: TIMESTEP
16000
ITEM: NUMBER OF ATOMS
2000
ITEM: BOX BOUNDS pp pp pp
-30.0 30.0
-30.0 30.0
-30.0 30.0
ITEM: ATOMS id type x y z Coordination
1 1 -3.75921 9.55527 -11.5049 21
2 1 -1.93675 -12.2446 -9.41674 12
3 1 2.70191 8.8518 19.2947 14
4 1 13.3121 -7.70947 7.12885 12
5 1 -6.38959 11.0741 1.18312 21
6 1 15.1997 -4.25529 -8.21488 10
7 1 -12.1417 4.01136 -7.39451 15
8 1 0.187614 -3.73701 13.4696 21
9 1 -6.13305 -0.534066 -13.4648 16
10 1 -12.6872 -6.0206 5.62605 13
11 1 16.3746 4.67708 -8.51135 14
12 1 -2.64416 -9.62362 1.45252 21
13 1 -13.1138 -2.23898 5.98045 14
14 1 7.41709 7.00653 19.9492 12
15 1 9.00917 -0.227213 9.2018 18
16 1 2.89482 4.11369 6.92795 22
17 1 7.84997 -2.74212 4.14289 21
18 1 -3.61302 11.5251 -7.75974 16
19 1 3.02942 5.29541 10.2396 18
20 1 -5.89698 0.311063 -16.7202 11
21 1 -10.1449 -2.9938 13.0348 10
22 1 16.4055 6.75844 8.79451 12
23 1 2.55816 7.87688 -12.9108 20
24 1 2.88055 6.53892 -15.8522 20
25 1 17.2078 1.66512 12.6875 9
26 1 -6.01215 2.0812 1.68985 19
27 1 -11.7623 6.01574 -13.9822 5
28 1 -0.713736 -0.650845 -8.72364 24
29 1 -10.4707 13.2232 9.25208 14
30 1 8.08343 -7.74217 10.2145 13
31 1 1.05047 1.5589 6.68359 21
32 1 8.21708 -11.8889 -7.35855 20
33 1 10.8685 -7.15288 1.16489 16
34 1 1.00088 -9.60829 -4.21381 20
35 1 -8.34291 -2.34634 8.24996 16
36 1 7.75127 -4.10234 -14.0352 12
37 1 12.419 -4.92431 -10.6706 13
38 1 -1.26253 5.75421 -16.295 14
39 1 5.30693 3.8596 13.0241 21
40 1 1.11977 -6.98958 10.3214 18
41 1 3.97368 -3.56263 14.9449 16
42 1 -10.4851 5.42346 1.63937 18
43 1 -9.92142 2.42063 9.27689 17
44 1 -5.74975 4.19957 -0.640705 21
45 1 3.62333 18.6395 -5.09319 14
46 1 0.289338 -13.6701 -7.01478 12
47 1 4.50108 2.54127 -9.068 18
48 1 8.01865 -1.33563 -11.8071 21
49 1 0.537315 -2.58166 16.493 13
50 1 -12.2979 8.45259 -3.96942 12
51 1 7.61114 10.2253 -12.0667 20
52 1 2.83613 14.667 10.6763 22
53 1 -11.2702 11.6397 -5.72628 11
54 1 -0.23509 18.6037 0.470726 13
55 1 2.49977 -7.23286 5.91251 18
56 1 7.68185 -3.73808 -3.84045 23
57 1 6.26008 -2.24315 -16.856 10
58 1 -2.11913 9.69901 13.8389 20
59 1 -9.09157 -5.17233 -6.57329 21
60 1 8.29521 2.9804 4.57155 20
61 1 -6.66646 12.4716 -1.52153 24
62 1 -1.50497 -10.9272 6.55103 18
63 1 0.470014 11.5055 11.3677 20
64 1 -5.74321 14.2667 -6.77803 16
65 1 2.68914 9.95405 13.921 19
66 1 4.84832 4.21994 -6.27222 20
67 1 -6.92432 -10.5336 9.00692 11
68 1 4.72177 6.81055 7.48108 20
69 1 8.74715 -13.8845 -4.89942 13
70 1 3.60897 11.9756 18.8641 13
71 1 -10.8995 0.856056 -6.45825 21
72 1 -4.87204 7.24611 -13.8843 20
73 1 3.24936 11.7928 10.5998 22
74 1 12.8617 -0.094614 -9.68743 17
75 1 9.70309 -10.54 3.55002 16
76 1 -12.7384 0.594097 0.7785 17
77 1 -5.32341 -1.98553 -1.3498 22
78 1 6.83759 16.4428 7.65424 11
79 1 4.1633 -1.47063 11.8211 22
80 1 -7.12315 -12.0932 3.0442 9
81 1 -4.70651 2.17078 7.86523 18
82 1 12.6792 6.11779 10.5247 18
83 1 7.95638 2.04509 -3.33732 22
84 1 2.10647 13.9095 8.66847 23
85 1 2.54653 -3.61082 10.3412 21
86 1 -10.8781 -3.4601 4.00311 21
87 1 -2.50172 -3.55593 -9.26009 23
88 1 -9.37746 12.8097 6.28037 17
89 1 -1.40976 15.8308 -0.167701 16
90 1 -1.29059 10.559 -10.0507 19
91 1 9.55196 1.32689 -6.40121 24
92 1 10.426 15.2483 -7.73293 12
93 1 11.2745 -7.8597 4.61351 19
94 1 9.77422 -7.03085 7.54161 19
95 1 -1.29951 17.6782 -8.53673 9
96 1 -6.64115 16.2204 3.39932 14
97 1 -7.46744 5.07804 17.8463 10
98 1 -5.14424 9.46893 6.34976 17
99 1 -6.81871 2.47643 10.2918 23
100 1 14.5853 -10.1275 -4.05738 10
101 1 -7.42187 1.5985 4.51381 17
102 1 -3.33123 -10.6219 4.44322 25
103 1 14.4187 -7.41287 -5.95378 14
104 1 8.58855 6.96534 -17.7984 11
105 1 -4.43434 -2.23358 -14.9966 20
106 1 1.43409 13.425 2.97317 21
107 1 -2.00911 7.9018 -8.48327 20
108 1 4.36616 14.0427 16.0567 12
109 1 0.289111 16.7228 -2.84022 19
110 1 -10.4294 11.5935 -2.54515 15
111 1 3.35481 10.5141 2.71419 22
112 1 -2.41516 -7.27226 10.1519 15
113 1 14.9451 -1.77086 11.8996 12
114 1 0.838317 -3.54117 -9.07061 23
115 1 4.539 -7.67453 -11.6355 18
116 1 -0.207675 4.29929 6.87961 23
117 1 5.76264 -0.693352 16.7658 13
118 1 -7.08681 -4.83328 -1.62611 21
119 1 8.08368 -4.5936 1.33979 20
120 1 -8.688 -8.25077 -1.8824 18
121 1 12.0323 -4.72451 5.92265 17
122 1 -3.77814 10.4781 2.34456 22
123 1 4.1189 4.09422 -17.8079 13
124 1 6.50373 16.8152 -1.69312 18
125 1 -3.38157 -9.524 13.5393 9
126 1 -9.16507 -9.27651 7.0309 14
127 1 9.36152 -3.86891 -11.8604 17
128 1 6.51831 7.51689 -5.97136 20
129 1 16.0403 -6.90201 0.922189 10
130 1 3.12886 -13.8606 7.69145 11
131 1 -8.55918 -6.61348 0.788397 19
132 1 15.6179 3.90361 7.62827 17
133 1 17.2488 1.67568 -6.41184 12
134 1 -11.4911 -0.468592 7.68288 16
135 1 15.5857 11.9552 11.2956 9
136 1 16.6396 11.6963 5.66888 13
137 1 1.70465 4.16341 17.2478 21
138 1 9.52239 6.58925 -0.060149 24
139 1 -2.33791 14.4386 11.1472 13
140 1 1.96366 15.5517 -5.29919 22
141 1 6.86571 -7.69523 -14.2693 9
142 1 10.1778 -8.63183 -6.28135 20
143 1 9.20239 12.24 -13.4727 14
144 1 10.2739 -0.0312859 12.6325 19
145 1 2.43418 1.1187 -16.3718 14
146 1 -2.15324 7.84037 -3.34196 22
147 1 9.70275 0.514006 -0.82111 23
148 1 -9.7869 6.26527 -8.96186 15
149 1 -2.84683 16.8222 -2.33034 13
150 1 10.9578 2.5839 -8.89495 20
151 1 13.2644 -7.47768 0.376609 18
152 1 -5.27034 4.14616 -6.38543 20
153 1 -7.83316 14.931 10.5476 12
154 1 16.1481 8.90131 -1.70027 12
155 1 6.54873 10.938 -3.4176 20
156 1 -5.07222 15.8269 -0.0926311 15
157 1 9.78075 10.5036 2.97939 23
158 1 -0.23127 13.0873 -5.21525 21
159 1 3.15357 13.4775 -10.9648 17
160 1 1.32283 10.0905 -11.3861 19
161 1 -8.24466 -8.22952 3.74929 16
162 1 -7.12116 10.5107 -3.8731 21
163 1 -2.89175 0.424648 -14.1713 20
164 1 4.92598 -3.56506 -14.3736 20
165 1 11.2278 15.9655 12.0018 11
166 1 3.81412 16.4968 7.40606 19
167 1 -13.5422 5.79681 -3.60713 10
168 1 -7.86322 15.0842 1.10115 13
169 1 17.6076 2.52296 -0.26313 13
170 1 -9.43304 -0.636033 -8.91276 16
171 1 7.6128 3.76779 15.0191 22
172 1 2.71703 18.3874 5.83338 14
173 1 -2.88467 10.1415 8.79774 16
174 1 7.47626 -7.16415 -11.7091 17
175 1 -4.34082 9.30847 12.0767 19
176 1 3.58298 12.9205 -4.80859 22
177 1 3.25293 -2.39541 17.4925 10
178 1 -10.4964 -0.520969 2.06857 21
179 1 9.63572 -6.3845 -9.51625 17
180 1 -2.91045 13.0992 -12.1511 10
181 1 -0.134197 -9.72736 9.43242 19
182 1 7.47492 -9.44109 -4.42797 23
183 1 -0.333325 11.5234 -8.00424 20
184 1 -10.7475 7.67722 11.2214 14
185 1 1.42294 9.40874 -0.461885 23
186 1 10.0835 12.1879 0.412073 21
187 1 0.170541 7.58298 13.6184 22
188 1 1.18594 -4.45383 7.51491 19
189 1 -3.47196 6.53742 -1.2227 21
190 1 -0.579023 17.9908 6.35739 14
191 1 -1.90995 7.40058 8.32584 21
192 1 15.8782 3.76063 14.0995 16
193 1 -6.52997 15.1559 6.28388 21
194 1 12.8111 0.993286 -6.815 20
195 1 -1.52113 12.2421 16.1959 10
196 1 -1.90845 2.16401 -9.00492 21
197 1 13.9649 -6.95366 3.78366 14
198 1 -4.1152 -4.55073 4.55422 24
199 1 -10.9886 5.3048 6.42242 16
200 1 -6.72461 -7.10542 9.01446 19
201 1 -0.471523 5.44707 15.4836 25
202 1 -9.23859 3.87575 -0.719001 20
203 1 -0.518948 -11.1076 3.28669 22
204 1 5.86343 -4.72938 -6.92338 21
205 1 -4.29067 12.1322 5.07699 20
206 1 -5.39972 4.08136 4.72382 23
207 1 7.12957 11.5042 17.9385 14
208 1 -5.46645 2.05078 -3.60744 22
209 1 -7.39561 14.7429 -9.85392 7
210 1 -12.3253 -1.73867 -6.47504 15
211 1 -11.4476 5.17501 9.41169 12
212 1 3.25087 -6.15685 8.72349 17
213 1 7.83167 -10.4716 8.28023 14
214 1 -11.2438 11.2825 3.858 11
215 1 14.5949 2.83566 4.92094 22
216 1 9.75524 4.8991 -2.99673 24
217 1 -5.1016 -8.44075 -16.1156 4
218 1 3.10048 1.60159 12.3326 21
219 1 8.43059 -10.8111 -1.04913 16
220 1 0.896412 9.26755 -15.7379 14
221 1 3.27438 -9.47728 -9.63524 21
222 1 7.59947 3.11831 -18.1658 11
223 1 4.07995 9.01455 -14.9049 19
224 1 -7.96531 -9.39495 -6.99696 14
225 1 1.52225 16.9331 -10.3234 10
226 1 -7.64156 -4.93592 11.4621 15
227 1 6.8766 18.5867 -4.73202 13
228 1 -3.66396 4.34886 18.0687 13
229 1 1.4023 19.4267 -2.56476 11
230 1 7.70395 1.24817 7.25556 21
231 1 1.25168 -7.59312 -11.1135 21
232 1 -2.19967 9.96744 -5.71012 20
233 1 2.78177 5.63025 -8.42598 22
234 1 -6.76854 -6.98773 6.05176 23
235 1 -8.22502 7.21638 14.0762 13
236 1 -9.55566 9.52474 5.13623 17
237 1 8.42996 -12.6463 -10.2178 11
238 1 -0.767409 -10.5914 -0.606719 22
239 1 12.366 -10.5124 1.17182 15
240 1 3.67051 -8.00463 -1.29045 22
241 1 13.6041 5.79829 16.6869 12
242 1 6.64 11.1674 -9.12709 20
243 1 3.10224 12.4029 0.205272 20
244 1 -7.16854 5.16028 1.99916 20
245 1 -8.34301 13.4002 -4.65813 13
246 1 4.37182 7.46543 13.7396 19
247 1 10.7633 -13.2849 2.91454 11
248 1 13.0691 0.180309 -1.57048 20
249 1 1.22517 7.47793 7.65543 22
250 1 -7.77483 11.6652 10.6568 16
251 1 -8.8372 1.98332 -4.02451 18
252 1 6.96861 9.70287 -17.0933 9
253 1 2.48421 0.0979233 9.6015 18
254 1 10.918 8.89686 -7.86228 21
255 1 2.43936 -12.5792 -4.57771 19
256 1 4.63625 -1.51421 -11.6293 20
257 1 4.71874 -9.49624 0.938509 21
258 1 13.9712 3.91705 -5.76647 18
259 1 -5.43778 -3.97484 8.12702 20
260 1 5.78272 -11.1477 -2.00452 17
261 1 -10.5841 -0.480387 -3.69095 22
262 1 5.05595 13.6725 -2.18074 18
263 1 2.25811 -2.76685 -13.8353 16
264 1 4.75063 2.34425 15.8155 21
265 1 17.6719 7.07813 3.12219 14
266 1 -2.26992 -3.67143 -3.61365 22
267 1 14.7295 2.18145 -8.58345 17
268 1 -0.75013 -6.83655 1.49758 22
269 1 -4.31923 -6.28639 -9.0664 22
270 1 -5.70547 2.59861 -9.37165 19
271 1 -1.01152 -12.9408 8.51496 10
272 1 15.7854 -2.0709 8.66251 12
273 1 6.23151 -1.93353 6.6928 18
274 1 -4.51921 -10.5151 -7.42504 14
275 1 2.69089 -4.74556 3.73667 21
276 1 1.97422 7.08369 -10.415 19
277 1 6.78971 10.0267 3.03013 21
278 1 -9.28936 -4.95583 8.32395 19
279 1 4.8852 12.8211 2.48989 19
280 1 -6.48308 0.0751043 12.8268 16
281 1 -8.61771 -3.45693 -9.35368 22
282 1 -3.22092 -7.8113 -11.8799 18
283 1 0.106864 7.43254 -17.8205 14
284 1 -2.48754 -9.73251 -3.5241 22
285 1 -2.69598 -7.73176 -1.07056 23
286 1 12.0774 1.65678 -13.8245 15
287 1 17.6819 3.69659 -3.38109 12
288 1 10.7665 0.818035 7.0668 19
289 1 -2.54628 -1.81396 -6.38987 22
290 1 -6.42236 -0.54753 9.405 18
291 1 0.730472 -14.1786 1.88097 14
292 1 8.82028 4.13747 20.6145 10
293 1 0.521698 -7.99992 3.97309 22
294 1 3.01163 -10.7999 3.35193 21
295 1 2.71255 18.2289 0.277445 16
296 1 7.8657 0.145215 -17.2739 11
297 1 -0.141796 -6.68069 -13.9975 17
298 1 -4.31784 -6.20019 18.4605 6
299 1 5.76098 9.98258 19.8823 13
300 1 2.9473 -12.2507 0.784551 20
301 1 1.5842 -12.9967 -9.70083 15
302 1 -7.6473 7.65346 -11.4311 14
303 1 11.0752 6.52863 7.72455 21
304 1 -9.06557 2.42736 -8.71277 16
305 1 1.26396 8.96731 -8.28021 22
306 1 -2.42881 -1.40203 11.7115 21
307 1 10.6109 -10.7118 -8.80337 13
308 1 -0.116638 16.015 3.34989 20
309 1 3.08944 10.35 7.8685 23
310 1 12.7988 0.158024 4.74791 19
311 1 -12.1822 0.678106 4.21973 18
312 1 9.14975 -9.62597 5.90396 18
313 1 -3.73059 13.5567 7.9857 17
314 1 7.85554 3.09959 -14.2729 20
315 1 12.9784 13.1776 0.888993 10
316 1 7.30676 -8.14886 -1.44736 21
317 1 -2.84626 1.68615 17.3351 13
318 1 -11.2352 -3.08733 10.6871 11
319 1 5.37466 -15.2714 -4.57644 11
320 1 -4.25549 12.2695 13.3947 14
321 1 -8.14821 3.78459 14.7882 19
322 1 -8.76234 -3.05963 15.9947 9
323 1 -7.6594 -3.79443 5.5082 21
324 1 16.321 -3.83401 -1.24232 9
325 1 -11.577 -3.75613 7.84689 17
326 1 10.6856 -3.13512 -9.15739 20
327 1 14.4383 -13.9204 -2.49135 6
328 1 5.067 15.2775 -4.79441 24
329 1 -2.12946 13.9233 -2.34101 22
330 1 11.9104 10.448 13.9458 10
331 1 -9.86771 -1.33654 5.48273 19
332 1 5.77513 -6.66817 -3.99428 22
333 1 -1.78121 12.8298 3.38017 19
334 1 -3.77148 7.30838 4.45127 19
335 1 4.73497 -13.4093 4.07146 24
336 1 14.4844 -4.55974 9.68602 11
337 1 -3.04994 6.50362 10.5772 20
338 1 -5.51876 -1.12443 -6.80785 18
339 1 2.32754 5.03771 13.5558 24
340 1 -0.811336 13.2074 8.77187 19
341 1 9.92924 5.7676 17.5835 21
342 1 -4.15628 15.207 -8.44855 14
343 1 2.35322 -1.93895 -16.6096 15
344 1 -3.66129 1.28443 -6.4592 22
345 1 11.9771 -7.67709 -8.54199 14
346 1 -2.95428 7.00081 16.2676 14
347 1 -11.7107 8.08686 6.9643 12
348 1 -3.85098 -0.413288 -9.00047 21
349 1 -5.72729 13.831 -3.09844 18
350 1 11.3083 -2.38674 4.33865 20
351 1 -9.55811 -9.62519 0.783659 9
352 1 9.35765 -2.29081 7.5173 21
353 1 -4.19356 -6.97064 15.0923 16
354 1 -9.17152 11.9713 1.69374 17
355 1 0.864742 -1.23489 11.5056 22
356 1 5.41454 -10.2553 -7.35367 22
357 1 -1.04045 -4.59435 -11.9492 19
358 1 8.91969 5.24452 -15.4557 16
359 1 4.8198 14.7943 4.91828 22
360 1 -7.30812 1.16321 -1.24627 19
361 1 5.60414 -6.29269 -9.23549 24
362 1 5.60786 5.80605 -13.616 18
363 1 -0.820756 -10.2018 -6.0936 22
364 1 -12.0545 -7.46927 -0.712659 12
365 1 0.999034 -9.77772 1.18912 19
366 1 7.00434 8.82328 14.6728 14
367 1 14.0337 3.229 -0.893649 20
368 1 -7.75498 2.10457 -11.7098 12
369 1 3.4445 17.103 -2.76519 22
370 1 -12.256 1.27567 -9.00763 13
371 1 -9.24657 10.2964 8.16929 16
372 1 -5.71533 13.6788 1.97065 20
373 1 -7.82066 9.51673 12.2924 12
374 1 13.1685 4.65001 13.3743 19
375 1 16.9071 0.320449 -2.27118 13
376 1 5.5313 -4.24481 12.2732 17
377 1 11.286 2.08239 -3.55394 26
378 1 -2.23194 -13.7404 -0.541223 13
379 1 -1.80828 9.92999 -0.57017 21
380 1 2.50562 -6.73579 -3.95249 23
381 1 1.18747 9.36684 5.38049 22
382 1 -8.86678 4.13208 -6.4155 20
383 1 4.41399 -9.49784 -4.2396 21
384 1 13.0332 -1.75761 7.61024 20
385 1 -7.51325 -1.08517 -3.15405 20
386 1 -4.32566 -7.05206 1.74983 21
387 1 -5.16338 -2.72799 10.9904 17
388 1 1.48264 15.6115 0.881037 15
389 1 -3.8709 -6.77754 -3.71741 23
390 1 5.61199 7.99713 17.1562 20
391 1 -9.33303 9.55316 -6.83207 14
392 1 3.55978 11.8742 -7.63529 21
393 1 5.42892 15.833 10.6016 14
394 1 -11.5335 -6.18145 2.36167 15
395 1 0.897306 -7.59649 -6.41286 23
396 1 -13.6475 5.60421 1.66383 12
397 1 -9.12577 8.40688 -3.65307 17
398 1 10.7286 -10.3369 8.22117 12
399 1 -5.63058 -9.81474 1.54056 19
400 1 13.7035 7.43455 14.3127 13
401 1 8.5194 8.74145 -14.7096 17
402 1 -8.48131 7.3901 -14.6159 9
403 1 -1.73457 13.9848 -7.7991 17
404 1 -5.46624 9.84544 -6.75488 14
405 1 2.18931 -10.9803 10.6264 10
406 1 12.2866 3.75824 7.68512 20
407 1 6.49702 13.3012 -12.2228 14
408 1 -3.76103 0.461562 10.7047 19
409 1 -12.3002 3.93123 -0.903203 17
410 1 -11.0016 11.0403 11.9066 8
411 1 -3.91818 -9.15294 7.68549 18
412 1 4.45967 -1.7027 -6.53001 22
413 1 9.21577 -4.71671 -6.55767 23
414 1 -0.412564 -1.64251 7.45708 19
415 1 -10.174 3.6316 4.46909 16
416 1 -6.0001 2.70593 13.4918 20
417 1 -8.4503 8.54592 1.87317 20
418 1 2.64572 -1.84614 6.49367 19
419 1 -7.56215 2.40054 -14.3402 11
420 1 10.0448 -11.1279 -3.94482 19
421 1 3.34046 -6.551 -14.1857 15
422 1 3.04514 -1.00981 14.7968 22
423 1 4.17556 -7.71567 -6.72768 21
424 1 -5.51914 3.04144 -18.1351 7
425 1 6.71254 -10.7456 3.32138 20
426 1 6.84181 13.3004 -5.86535 23
427 1 -6.868 12.2137 4.48567 21
428 1 -5.28059 -4.27181 16.6163 13
429 1 -7.10725 -5.58928 -10.6186 18
430 1 -3.17287 -2.10681 8.3885 18
431 1 8.72042 -5.02991 10.0371 17
432 1 12.6244 5.53793 4.8374 20
433 1 2.52196 -0.372162 -9.05102 19
434 1 14.5047 -3.51522 5.1403 13
435 1 13.6692 10.5897 -2.46516 19
436 1 -3.08383 0.904528 13.8806 19
437 1 7.15066 12.6358 -0.297034 18
438 1 4.19784 -4.02372 6.77052 20
439 1 3.48912 -14.0507 -6.84333 14
440 1 3.61568 2.30113 18.6458 11
441 1 3.56169 15.773 13.7287 11
442 1 -6.61834 -8.50384 -9.52478 13
443 1 13.0046 9.71628 3.11183 21
444 1 0.136897 10.1245 8.59298 23
445 1 -5.53303 9.46888 14.8939 13
446 1 -5.27469 -3.50982 -4.03726 21
447 1 -12.7172 3.50107 3.52552 15
448 1 -5.85856 -7.22248 -6.63716 20
449 1 -9.39368 14.6221 4.4056 12
450 1 -5.03384 -12.2396 -3.47047 12
451 1 -1.80938 -9.37362 -14.571 10
452 1 -3.65168 -12.4157 2.03651 19
453 1 -1.73342 -3.88589 7.0452 19
454 1 4.36851 0.819318 6.81265 19
455 1 -9.00751 1.15398 7.43039 21
456 1 -5.62554 4.75572 -11.9289 20
457 1 11.2142 3.32372 -0.636409 22
458 1 -4.22755 -10.6671 -1.2767 24
459 1 2.72594 7.36785 -5.86896 22
460 1 1.19422 19.4362 3.16892 12
461 1 -0.0986713 7.17988 -6.07707 19
462 1 3.68812 8.32885 9.34875 20
463 1 -13.5865 -0.876076 -3.49772 12
464 1 4.70424 16.382 -10.2973 10
465 1 9.46741 12.2445 -7.97033 22
466 1 -9.57487 -7.16343 -8.89458 14
467 1 1.29452 0.454777 17.0778 17
468 1 4.79731 -12.6762 -10.3161 15
469 1 0.789117 -1.43555 -11.4936 21
470 1 13.6146 -13.1753 0.549086 13
471 1 -11.901 8.81874 1.87602 14
472 1 5.75119 4.22492 20.6373 10
473 1 11.4174 9.31478 0.393529 21
474 1 4.75276 9.69305 -0.261251 23
475 1 -9.04206 5.08483 -12.5442 15
476 1 6.42411 1.46665 -6.18791 21
477 1 5.79659 -7.09485 1.05239 16
478 1 -14.3893 1.65952 -1.7664 12
479 1 0.79667 17.3474 8.84288 12
480 1 -3.34207 4.89224 -8.20661 21
481 1 11.5606 7.30006 2.50421 20
482 1 8.591 15.9945 -4.60328 17
483 1 7.85916 -2.29628 -1.27873 20
484 1 17.4054 6.9946 -3.48487 11
485 1 -1.13129 2.91063 -13.369 16
486 1 2.28768 -6.53652 1.50938 22
487 1 5.9197 -10.4262 10.4665 12
488 1 5.75986 -7.96418 7.31069 17
489 1 -7.08627 5.06018 -9.03912 19
490 1 -9.50149 -7.98495 9.49975 9
491 1 -0.737021 -10.2172 -11.8298 15
492 1 12.3806 14.7686 6.75059 13
493 1 4.27638 4.6951 -11.263 22
494 1 7.99684 1.67496 12.1853 21
495 1 -11.7857 0.314178 11.6092 9
496 1 3.43155 -14.7317 1.68115 16
497 1 -13.0847 -2.46993 2.40349 14
498 1 16.4953 -1.11198 -4.82422 13
499 1 12.1341 -0.516735 -4.32767 21
500 1 -3.98137 11.1299 -3.51814 21
501 1 2.71182 -10.6873 -12.0621 12
502 1 6.22588 5.50449 -8.32212 21
503 1 9.56517 -0.563679 -8.80231 22
504 1 -0.702397 2.16368 15.168 20
505 1 5.17301 18.4934 1.26734 12
506 1 -5.68828 -4.7673 -15.9628 8
507 1 0.809354 3.8942 -18.55 10
508 1 -5.02868 4.5204 9.35089 19
509 1 -2.10415 19.1254 3.39685 8
510 1 -6.97792 -3.70918 -13.2777 14
511 1 -15.0211 2.46126 1.82284 8
512 1 3.01501 -4.53844 -11.5947 21
513 1 -1.00023 -4.04653 10.7155 20
514 1 1.40535 10.4767 -5.35212 21
515 1 13.9796 1.211 7.93635 20
516 1 16.4188 9.86995 -4.35557 12
517 1 -7.45182 -11.3428 -1.26453 13
518 1 0.983898 -7.68255 -1.31136 22
519 1 -2.80383 -3.30903 -17.6484 11
520 1 -7.26361 12.4106 7.71773 22
521 1 5.94586 -4.38231 -12.0025 22
522 1 4.86952 8.1201 -2.95631 24
523 1 11.6896 1.15592 1.55648 20
524 1 7.36879 14.2637 -9.26668 15
525 1 6.05571 -5.28082 -1.17338 23
526 1 12.8611 4.71394 -9.01837 18
527 1 4.91452 13.3445 8.00349 21
528 1 -9.82669 5.14881 12.7832 13
529 1 7.41926 8.75921 10.7143 19
530 1 6.98101 -2.54542 14.3295 15
531 1 -0.626259 1.95924 -16.3088 18
532 1 -3.48517 -4.4934 -6.03322 18
533 1 -0.872014 0.95727 8.70874 21
534 1 8.10022 13.3678 8.22286 18
535 1 10.131 10.0074 -10.3626 16
536 1 -6.63817 11.154 -9.69728 12
537 1 1.68811 13.6693 -2.67672 21
538 1 2.4457 -5.47783 12.836 15
539 1 11.6694 6.80621 -12.4935 14
540 1 9.13344 -6.66408 -3.96323 21
541 1 15.2828 13.6386 7.93365 12
542 1 -9.91024 -6.21673 5.52324 16
543 1 -1.10962 10.6934 -13.3332 19
544 1 1.324 3.04032 9.92323 19
545 1 -6.29169 2.35612 17.2964 16
546 1 -1.50736 15.5997 -10.3932 12
547 1 3.2285 -14.4392 -1.93286 13
548 1 7.73043 2.72755 -8.7231 23
549 1 0.122569 18.7563 -5.67996 11
550 1 -9.87565 -5.31016 -11.5682 10
551 1 4.77712 -10.3163 6.05761 20
552 1 -10.8692 -4.58256 -0.840665 19
553 1 1.57769 14.4652 -8.70513 18
554 1 -7.35932 7.34434 -6.34649 16
555 1 1.61375 12.2977 16.3194 15
556 1 -4.53786 -5.67419 11.4171 20
557 1 9.92264 7.13085 -5.51696 24
558 1 2.12349 -10.9923 -6.91683 21
559 1 5.74706 -3.97657 9.6893 17
560 1 8.12167 4.11342 -5.99693 23
561 1 -4.8322 9.65538 -1.21594 21
562 1 11.9294 3.31297 18.632 12
563 1 7.35135 16.4255 -7.13753 15
564 1 11.2031 -3.96272 -4.25542 21
565 1 4.11096 10.2372 16.5104 19
566 1 -2.18687 4.55371 -10.9171 19
567 1 -2.92856 -4.76236 13.0307 20
568 1 0.881745 2.80511 -8.99424 22
569 1 4.49195 2.56144 -13.9705 15
570 1 5.25329 18.1163 4.62958 13
571 1 10.8824 6.78442 -10.1063 16
572 1 -2.94657 -5.3314 -14.7974 18
573 1 -2.573 -7.61631 -6.75207 22
574 1 -6.32941 -4.3648 -7.03163 20
575 1 12.7115 3.62232 2.28119 18
576 1 14.8877 9.76608 0.567953 15
577 1 7.5302 -3.39481 -9.38217 23
578 1 16.2216 6.253 12.1385 14
579 1 12.6301 -4.89929 -7.06888 20
580 1 5.07315 7.3495 -18.0873 16
581 1 8.43716 13.0874 2.75896 17
582 1 -7.86236 6.14622 5.29699 17
583 1 8.87681 8.97481 18.3772 13
584 1 10.7574 8.13944 -2.77448 22
585 1 17.0513 1.12433 3.38811 14
586 1 17.754 7.55626 -6.33574 9
587 1 12.9937 1.70437 13.1477 22
588 1 14.0964 3.50198 10.7281 22
589 1 -0.735644 4.31307 12.5904 23
590 1 11.758 15.8237 -4.63968 12
591 1 5.92561 0.723419 13.4412 21
592 1 12.7817 5.18862 -3.34528 17
593 1 9.40262 4.38881 7.10198 20
594 1 -8.68387 -1.8785 -6.24012 20
595 1 11.9994 6.35594 -1.35696 18
596 1 9.33867 -1.538 1.813 22
597 1 -12.2797 10.1805 9.80142 10
598 1 10.7237 13.1173 13.6706 16
599 1 14.444 2.96253 16.3543 15
600 1 7.58384 13.4674 15.3328 11
601 1 -1.03434 13.6567 13.7029 15
602 1 6.40703 3.93851 7.00113 21
603 1 -1.87661 -13.6215 4.37773 14
604 1 -8.37643 12.6486 -7.87703 13
605 1 14.7132 10.1748 -6.84832 15
606 1 10.4524 4.35707 -12.8496 18
607 1 5.04998 15.5464 1.46159 19
608 1 -0.912929 -6.47438 -9.55193 21
609 1 10.1504 -0.763252 -14.4656 11
610 1 -8.36298 5.12958 10.5498 17
611 1 -5.99684 9.51023 -15.7567 10
612 1 -5.21757 -13.7972 4.77595 13
613 1 -3.96257 1.80773 -12.1867 21
614 1 -7.41317 5.22112 -3.39775 17
615 1 9.40735 -5.73401 4.02777 19
616 1 14.3665 12.3137 3.34343 14
617 1 4.47048 -7.7655 3.80538 21
618 1 -6.92266 1.18345 -6.20904 20
619 1 2.17085 6.80064 -19.6098 11
620 1 1.77592 4.93882 20.9385 10
621 1 5.97134 11.1314 -14.1522 17
622 1 15.0838 0.501994 14.601 12
623 1 11.3754 4.28944 -6.03641 21
624 1 13.3039 11.3737 6.48984 21
625 1 5.76123 -12.4445 -4.97992 21
626 1 -8.17361 -1.08904 18.7037 9
627 1 15.5819 -0.358763 5.75838 14
628 1 2.41679 7.37525 16.1632 23
629 1 9.71501 14.7548 -12.372 7
630 1 -1.79355 16.4248 -5.5978 18
631 1 12.7672 9.48053 9.16153 20
632 1 -5.4404 -13.2768 0.204193 13
633 1 15.3323 -1.91312 2.97996 15
634 1 6.86872 15.9219 3.52825 17
635 1 -1.43322 3.97794 9.56383 18
636 1 -12.5159 -1.89479 -0.889126 16
637 1 -5.69567 -3.14586 -10.2164 20
638 1 12.0915 0.698463 9.93383 18
639 1 -2.13946 -4.18348 15.991 17
640 1 11.3776 4.40195 15.61 22
641 1 -4.15513 14.9807 4.13226 16
642 1 7.96309 6.8584 8.3446 25
643 1 9.72972 6.40857 4.8364 20
644 1 3.02512 1.42024 -11.6467 18
645 1 -12.3059 2.58448 7.17407 12
646 1 11.2747 7.30361 -15.4557 10
647 1 -0.825019 -4.80811 -6.44383 24
648 1 12.3297 -10.3123 -6.06733 17
649 1 8.75982 0.441257 15.5413 18
650 1 6.32039 6.11335 4.81599 23
651 1 -4.98864 -2.31964 19.3115 7
652 1 9.90121 10.9994 10.768 16
653 1 6.70046 1.88624 18.4201 14
654 1 0.679833 6.53821 10.8613 20
655 1 6.32639 -0.12609 -14.2867 16
656 1 -3.31512 4.14386 14.7993 23
657 1 7.23832 6.40478 12.3008 17
658 1 -6.92474 -13.2579 6.96439 8
659 1 14.3861 6.84771 1.99831 16
660 1 12.2118 -6.66745 -4.57414 20
661 1 -1.43952 3.85752 -6.21646 23
662 1 10.5515 10.7475 -2.42793 19
663 1 10.0882 11.8497 6.00984 18
664 1 1.28197 0.267037 -13.9911 21
665 1 -3.19406 4.80176 6.89842 21
666 1 8.6064 13.5483 -2.90135 21
667 1 14.4634 8.68969 6.11677 23
668 1 -4.14389 -4.885 -1.0551 24
669 1 -1.32221 -0.926737 -16.4297 18
670 1 -4.66531 16.7617 -4.73442 9
671 1 16.1113 -0.697778 -8.20096 13
672 1 8.17959 7.5725 2.62303 21
673 1 15.823 7.10336 -9.42207 13
674 1 8.54492 15.4469 1.04565 14
675 1 -1.95239 9.82268 4.97123 18
676 1 -5.26651 7.64978 1.33806 19
677 1 8.01148 8.79701 -8.74822 20
678 1 12.0099 0.760417 16.0193 17
679 1 12.9142 -1.6788 14.1909 13
680 1 3.54556 -9.6254 8.93704 21
681 1 -2.28221 8.24661 -15.4396 16
682 1 6.51928 12.6475 10.8113 16
683 1 11.348 -1.45828 -11.7405 14
684 1 4.44639 2.74126 9.64708 21
685 1 8.24151 10.4323 -5.83842 20
686 1 9.48033 9.9213 7.99351 20
687 1 14.9853 -4.53872 -4.90777 16
688 1 8.26121 6.19765 15.7459 16
689 1 -8.83717 -3.67967 1.78022 18
690 1 6.61341 -15.7141 5.70035 10
691 1 1.01167 -2.10828 -6.46739 21
692 1 -6.96572 16.7006 -2.0412 9
693 1 -2.22161 1.43892 6.03062 17
694 1 4.43442 -3.78995 -4.17454 19
695 1 6.36466 12.09 5.3379 20
696 1 -10.9544 1.16428 -1.00574 22
697 1 4.65114 5.16711 15.7491 18
698 1 -4.48571 6.34113 -17.0948 11
699 1 -3.60196 10.9486 -14.2806 12
700 1 6.07171 -15.7993 2.69374 11
701 1 11.6867 10.3915 -5.42553 24
702 1 5.99914 -4.92387 3.34516 23
703 1 -1.85183 7.62611 2.22816 23
704 1 -11.1574 2.24892 14.7913 10
705 1 8.14526 4.50491 -11.2357 21
706 1 9.09467 -13.0492 6.00393 14
707 1 3.02423 16.8385 3.18068 23
708 1 -1.10853 -0.750721 14.5169 19
709 1 -7.57474 -6.5531 -4.70427 22
710 1 1.15963 -8.4029 -16.003 7
711 1 -2.98131 -12.7372 -6.21121 13
712 1 3.13381 16.9547 -7.17812 15
713 1 4.23351 -3.09028 -9.12119 21
714 1 -1.71271 15.0187 5.95239 17
715 1 10.5735 -8.75057 -1.74291 20
716 1 11.0447 -13.3877 -2.21484 15
717 1 7.38642 -4.82374 6.75686 19
718 1 15.1714 1.54002 -12.8919 6
719 1 11.1044 -13.2503 -7.33332 9
720 1 -9.32769 1.55949 12.5402 17
721 1 6.16653 -12.7228 7.23473 15
722 1 -5.76271 -9.42337 -4.11108 20
723 1 -10.4053 -0.433345 14.7884 12
724 1 2.54299 -15.7777 4.71207 9
725 1 18.2878 4.43526 -6.07139 9
726 1 -2.58386 16.5475 8.56637 14
727 1 -7.42902 3.93153 7.36838 20
728 1 -6.34322 9.00686 3.94328 18
729 1 9.43949 -0.0211303 4.95059 21
730 1 -6.94113 -0.770076 -10.7497 17
731 1 -0.39294 10.8748 -2.83746 20
732 1 8.7628 7.47794 -11.4959 22
733 1 11.6235 8.33931 16.4187 13
734 1 12.2306 12.4049 -7.7611 13
735 1 -13.712 1.49399 -5.64502 12
736 1 -10.783 -6.46738 -3.60938 15
737 1 0.628648 6.62194 18.4889 14
738 1 5.4552 7.86671 -11.8961 18
739 1 12.7187 11.4127 11.1546 17
740 1 -3.75804 3.93601 12.1498 20
741 1 0.91922 -13.351 -0.930281 13
742 1 -3.67845 -12.2882 7.70975 14
743 1 -3.94775 -6.32982 7.36351 17
744 1 15.7176 10.5241 8.81125 17
745 1 2.73067 -4.59132 -6.64158 22
746 1 -3.64017 12.812 -0.321544 21
747 1 8.19055 9.28178 -0.191631 23
748 1 -5.7937 -1.81937 4.28426 17
749 1 14.2129 10.3996 -9.80636 8
750 1 6.12374 -14.0923 -7.6218 15
751 1 9.26119 -14.9993 -0.591873 10
752 1 12.0919 -15.4858 0.619422 9
753 1 9.41657 5.59924 -8.34605 23
754 1 5.99339 19.7775 -1.88688 9
755 1 -4.07313 4.11814 -14.7215 15
756 1 1.83973 2.5648 14.6673 22
757 1 1.3163 3.37105 -15.0012 16
758 1 -9.74565 -2.60911 -11.6876 9
759 1 -11.6646 2.80441 -3.94311 17
760 1 4.25011 14.802 -7.63582 22
761 1 10.9689 2.94838 4.77318 21
762 1 -3.8016 -4.79738 -12.0107 20
763 1 -5.70744 -4.18355 1.01968 20
764 1 13.6679 7.90734 -11.5651 13
765 1 12.6428 -5.4625 -1.33518 22
766 1 -5.8396 9.56404 9.63872 15
767 1 12.7652 -10.201 5.54415 11
768 1 17.4948 -0.857446 0.375002 11
769 1 11.404 -5.72415 9.97085 13
770 1 3.27502 12.241 5.45473 22
771 1 -9.06655 1.74675 17.2133 14
772 1 -3.3292 6.8422 13.4925 22
773 1 -2.91094 -11.9014 10.9522 9
774 1 9.66463 4.54543 1.99759 19
775 1 10.2249 11.2249 16.4834 12
776 1 -9.33322 -1.86951 -0.879987 21
777 1 9.24 -5.41535 -1.28219 23
778 1 -3.43623 13.445 -5.2222 19
779 1 4.82559 9.05357 5.45884 22
780 1 4.99911 -13.0035 9.90537 9
781 1 10.6261 2.53279 12.8323 17
782 1 1.52138 15.0725 5.59361 21
783 1 1.49653 -9.93709 6.33884 19
784 1 -8.95718 2.19274 1.57142 17
785 1 6.1116 5.53569 9.93402 20
786 1 -11.7274 -3.59448 -4.20815 17
787 1 1.85931 12.9335 13.6069 19
788 1 11.4768 13.2328 4.20297 16
789 1 -6.25399 -10.3217 5.90843 21
790 1 1.59131 -13.0506 4.69652 18
791 1 7.97087 -2.02605 11.6618 23
792 1 10.7775 -2.29444 10.0121 19
793 1 6.26345 9.94798 8.38106 23
794 1 -0.233869 12.7521 -0.0612966 21
795 1 0.327026 -9.72846 -9.08103 21
796 1 -0.87553 1.13932 -11.493 23
797 1 -6.96296 0.453668 15.642 17
798 1 -4.6575 18.0248 6.07126 10
799 1 15.8837 0.880174 9.66236 13
800 1 5.02322 10.1996 -5.58324 21
801 1 -0.148949 8.66093 16.1702 17
802 1 9.33223 5.10591 10.8726 19
803 1 9.51606 1.3753 -11.51 22
804 1 -5.44291 -8.27575 3.94245 18
805 1 -2.78361 -1.58794 -11.6876 22
806 1 17.627 4.02791 10.9892 12
807 1 6.62372 1.58891 -11.7393 20
808 1 -0.297828 3.17831 18.8924 13
809 1 15.3183 -10.2885 -0.369981 12
810 1 2.91028 9.41183 -18.4485 10
811 1 -0.926099 -6.69666 -3.87218 22
812 1 16.3785 4.71554 -11.8566 8
813 1 15.0433 1.19895 1.26277 17
814 1 1.41483 -5.30702 15.9187 11
815 1 -2.87018 -9.28705 -9.1809 17
816 1 10.3276 16.3136 -1.70056 10
817 1 -0.670141 -4.9308 4.30488 24
818 1 -12.6267 7.7607 4.11249 11
819 1 14.5744 1.94128 -3.92803 20
820 1 16.3787 9.82262 3.34332 15
821 1 4.48647 -0.369324 -18.2347 8
822 1 -5.80699 17.134 8.98108 11
823 1 17.6569 8.68108 6.10368 12
824 1 10.3534 13.0125 -5.06115 21
825 1 6.34907 5.05302 -16.5729 16
826 1 11.1933 -2.39879 -1.54913 21
827 1 -10.567 7.03677 -0.431889 20
828 1 15.9492 6.16158 5.35399 19
829 1 -13.9765 -5.00341 0.820273 11
830 1 -6.68723 9.97903 -12.8313 13
831 1 7.52755 2.98971 9.53328 18
832 1 -11.4198 -4.07837 -8.21933 13
833 1 -6.10638 5.52335 12.4929 22
834 1 -0.390667 5.46342 -8.56182 20
835 1 14.0586 -2.01378 -6.69871 20
836 1 -10.0626 -8.64791 -4.82581 10
837 1 14.014 -8.00401 -2.31705 16
838 1 -12.8044 9.0443 -1.45883 9
839 1 -8.70728 -3.68226 -3.88287 20
840 1 14.7197 8.59144 10.9481 15
841 1 -0.80582 -9.80704 11.9601 13
842 1 9.4245 2.74037 17.6621 14
843 1 13.0376 -4.50171 12.4184 10
844 1 11.1671 -4.24829 1.63155 21
845 1 -5.53429 6.71575 7.5635 19
846 1 13.5145 14.6637 12.7768 8
847 1 4.58373 8.61201 -8.41908 20
848 1 2.32944 -5.08804 -16.2284 13
849 1 -2.68252 11.5258 11.014 23
850 1 -12.4497 -8.62855 8.40263 7
851 1 12.2691 13.5762 -2.34312 14
852 1 5.24274 13.1342 13.1108 19
853 1 11.1707 -2.16611 -6.31142 22
854 1 5.38002 -6.81532 11.0421 14
855 1 0.348319 12.8923 -10.7644 18
856 1 4.45327 10.6333 -11.331 23
857 1 -0.565057 1.51434 11.7881 22
858 1 17.7381 4.11556 4.74613 12
859 1 2.17127 -6.16552 -8.69329 22
860 1 9.58752 15.7116 4.68988 10
861 1 -7.24635 6.88425 -0.892075 21
862 1 -0.994812 -7.0366 12.6478 17
863 1 11.1514 9.80709 -12.9148 15
864 1 5.99814 -0.201733 10.3589 20
865 1 5.8441 -16.1477 -0.63692 10
866 1 -5.15446 14.2173 10.3777 15
867 1 -14.4154 7.34167 -6.59187 5
868 1 13.3538 5.02587 -13.8787 13
869 1 5.72465 -10.4058 -11.9791 12
870 1 -11.9471 11.6979 -0.0444986 10
871 1 14.4103 12.4261 -5.00392 12
872 1 -6.09041 -0.102498 6.6821 17
873 1 10.1106 2.28459 -16.1139 11
874 1 -12.1605 -6.15657 -6.15736 10
875 1 2.2306 -10.942 -1.80503 20
876 1 0.558036 10.498 18.6248 12
877 1 7.44115 -7.59994 -7.05347 21