ITEM: TIMESTEP
35000
ITEM: NUMBER OF ATOMS
500
ITEM: BOX BOUNDS pp pp pp
-30.0 30.0
-30.0 30.0
-30.0 30.0
ITEM: ATOMS id type x y z Coordination
1 1 1.39844 -14.7004 -16.0195 16
2 1 14.9876 -16.9409 -7.96202 13
3 1 6.1801 -8.27885 1.66452 12
4 1 11.9581 -16.2253 -2.92487 15
5 1 -0.403547 -11.3237 -9.38402 20
6 1 8.51884 -14.0963 -13.101 19
7 1 4.28807 -15.6983 -0.620988 18
8 1 8.84772 -24.6673 -9.8119 12
9 1 -3.88994 -21.099 -6.42336 14
10 1 9.93894 -9.21959 -14.4465 19
11 1 11.2264 -23.0862 -10.4747 14
12 1 9.33469 -12.5002 -6.08385 25
13 1 8.84401 -6.60517 -13.9381 14
14 1 8.00343 -11.2132 -3.01141 17
15 1 8.30887 -10.308 2.24688 10
16 1 -2.41089 -14.1752 -5.06589 20
17 1 -5.64419 -18.6307 -6.33732 12
18 1 11.7758 -17.243 -9.13338 17
19 1 8.23874 -13.9993 2.97933 9
20 1 -1.31798 -17.5964 -1.46468 17
21 1 1.87877 -21.252 -14.4351 10
22 1 8.28054 -12.1265 -11.0387 22
23 1 12.2726 -17.512 -13.1146 14
24 1 6.84749 -23.3924 -3.09923 14
25 1 -0.367354 -6.42143 -2.64716 11
26 1 9.20094 -16.4039 -1.38033 18
27 1 4.07638 -8.07319 -5.06347 23
28 1 5.93911 -10.3532 -18.5911 8
29 1 3.81793 -10.0137 0.0394027 17
30 1 8.98517 -15.2552 -4.4239 20
31 1 0.968078 -7.06633 -5.00652 18
32 1 2.85834 -6.54355 -7.59994 19
33 1 10.8815 -7.46824 -16.719 7
34 1 10.9318 -5.74802 -10.8812 11
35 1 6.17447 -5.44854 -14.5716 11
36 1 -3.97105 -10.9943 -15.3649 9
37 1 2.87569 -5.12451 -4.80116 16
38 1 9.6044 -8.13783 -11.2708 19
39 1 -3.583 -12.6894 -8.79726 16
40 1 8.19765 -6.28961 1.64453 8
41 1 1.97794 -7.91557 -17.9504 7
42 1 -1.48402 -20.0135 1.81738 11
43 1 -1.63548 -19.2575 -7.41525 19
44 1 10.1108 -23.2113 -6.9884 13
45 1 -5.12346 -15.635 -4.95695 16
46 1 -1.35029 -16.6641 -9.87542 20
47 1 1.22931 -25.3077 -4.29508 8
48 1 6.16853 -8.50293 -15.0501 17
49 1 -1.34347 -22.0741 -12.9193 9
50 1 1.53465 -11.0969 -16.0217 12
51 1 3.99322 -18.9274 -8.68015 23
52 1 2.76979 -4.15553 -9.78402 13
53 1 -5.14468 -12.4178 -6.24988 15
54 1 5.97261 -5.35011 -3.44354 16
55 1 5.94588 -14.5985 1.45043 16
56 1 4.55334 -22.8727 -7.6541 18
57 1 12.1316 -13.9466 -13.3089 16
58 1 1.68361 -24.2066 -7.73399 16
59 1 1.06432 -22.046 -4.20763 19
60 1 7.78134 -17.3183 1.75347 10
61 1 6.88656 -19.2065 -0.640669 15
62 1 8.39148 -5.89557 -9.01046 17
63 1 -4.29432 -22.0305 -3.05421 11
64 1 4.29453 -26.0524 -7.4795 11
65 1 0.697874 -19.1003 -10.0565 18
66 1 6.93632 -11.264 -13.3977 18
67 1 9.29486 -20.2063 -5.96548 22
68 1 1.63058 -16.9057 -2.42106 18
69 1 -5.0755 -16.3455 -1.69811 14
70 1 7.28235 -24.842 -6.47433 16
71 1 1.29029 -19.9553 -1.98611 16
72 1 7.49765 -13.9553 -1.10192 19
73 1 -4.99967 -19.0086 -3.31615 15
74 1 1.74743 -8.35734 -2.50593 20
75 1 -0.787344 -9.65501 -4.21926 21
76 1 0.750795 -8.78885 0.223346 9
77 1 -1.15802 -16.1011 -14.7206 16
78 1 -2.26796 -5.14368 -13.9673 6
79 1 -2.08379 -18.855 -14.7513 10
80 1 11.8255 -19.9908 -3.245 16
81 1 2.79052 -16.5214 1.82682 15
82 1 3.89428 -15.8331 -15.9863 13
83 1 -3.92698 -14.3379 -10.7383 14
84 1 -1.18394 -22.5473 -7.31591 15
85 1 -3.53338 -10.3636 -4.29335 16
86 1 9.80991 -13.0101 0.562121 12
87 1 0.793462 -6.60548 -11.3148 20
88 1 8.60288 -21.8009 -12.0322 15
89 1 7.87364 -4.09323 -6.29197 15
90 1 12.6067 -8.47241 -11.7783 14
91 1 -1.43624 -12.9906 -16.6486 11
92 1 -3.54809 -10.0837 -10.1976 14
93 1 1.60602 -24.102 -13.2031 8
94 1 3.8789 -24.3957 -4.74501 19
95 1 -2.85237 -8.31079 -13.499 14
96 1 0.0792343 -15.222 0.765038 17
97 1 -1.33332 -11.8189 -2.88142 19
98 1 8.80924 -20.4752 -14.157 11
99 1 4.01305 -18.5204 -2.71168 19
100 1 3.1167 -21.9341 0.5881 13
101 1 7.79654 -22.439 -8.56216 21
102 1 5.79409 -6.03994 -6.00645 21
103 1 -2.0485 -11.3277 -6.53017 21
104 1 7.50564 -11.2824 -16.2799 16
105 1 10.5513 -18.8453 -0.216194 10
106 1 0.374191 -22.8736 -10.376 15
107 1 -4.06798 -19.6331 -0.823723 15
108 1 13.4667 -15.8553 -5.57878 16
109 1 14.8358 -9.95335 -6.61775 9
110 1 3.67649 -9.13995 -11.436 17
111 1 6.37631 -8.75831 -12.3732 21
112 1 10.4788 -5.54983 -6.89534 10
113 1 10.0933 -10.3363 -17.6937 10
114 1 3.39313 -20.8424 -5.49805 19
115 1 12.7982 -21.6226 -5.50419 15
116 1 3.92811 -24.0792 -10.4583 11
117 1 -2.38536 -11.392 -12.4693 16
118 1 13.4818 -11.4667 -12.4351 10
119 1 0.346184 -7.66454 -14.9704 15
120 1 12.0451 -20.7207 -12.226 15
121 1 -2.98364 -17.1716 0.751222 13
122 1 6.75273 -27.4346 -9.42022 5
123 1 6.4095 -18.4287 -14.6453 13
124 1 7.2688 -8.48738 -4.24718 20
125 1 6.4594 -19.3186 -7.20057 18
126 1 -2.57151 -19.1009 -11.6586 16
127 1 2.85815 -13.3531 0.861554 17
128 1 -0.111312 -12.0362 -0.00662385 14
129 1 6.47231 -15.2423 -15.4048 14
130 1 -1.60065 -8.10651 -8.57318 17
131 1 11.5009 -10.4928 -4.10188 17
132 1 10.6886 -10.7442 -11.6349 18
133 1 4.22589 -12.939 -16.9853 13
134 1 -4.21167 -9.68234 -7.30727 12
135 1 4.583 -18.9081 1.09182 15
136 1 9.43347 -17.9802 -3.52712 21
137 1 1.35487 -18.1217 -15.9271 14
138 1 9.49824 -21.6512 -0.934731 10
139 1 1.45776 -21.0388 -7.99837 20
140 1 10.1664 -12.9233 -2.36566 20
141 1 4.72423 -21.2537 -2.59815 19
142 1 6.32714 -16.0792 -3.20997 21
143 1 13.508 -12.1915 -4.03906 13
144 1 6.53665 -21.9179 -5.66744 20
145 1 11.8872 -6.92664 -3.55978 10
146 1 5.36948 -21.409 -13.7728 12
147 1 12.1436 -10.6881 -0.713647 11
148 1 0.383386 -9.47838 -12.218 17
149 1 3.59322 -7.32446 -13.7266 16
150 1 1.22141 -14.1759 -2.12918 22
151 1 -2.00283 -20.0822 -3.66218 21
152 1 9.94957 -9.0421 -2.10966 20
153 1 -1.59975 -9.30643 -1.18723 13
154 1 -2.66278 -6.45274 -10.9434 10
155 1 10.2559 -11.9497 -14.3721 16
156 1 5.7222 -11.5554 2.57189 11
157 1 5.33436 -6.83175 -17.6264 8
158 1 6.03288 -5.14586 -0.0440156 11
159 1 13.2125 -21.4462 -9.0134 11
160 1 9.52267 -4.66291 -3.80113 8
161 1 6.60745 -18.9415 -4.02896 19
162 1 5.20388 -2.95558 -5.78799 10
163 1 9.56394 -18.8035 -11.3704 19
164 1 4.01141 -24.9569 -1.57092 9
165 1 5.15727 -11.8549 -11.0039 20
166 1 1.95344 -11.1967 -2.9648 20
167 1 14.5622 -10.1748 -9.40573 12
168 1 4.13816 -5.41564 -11.6947 16
169 1 11.686 -8.36918 -8.46942 16
170 1 -0.123902 -17.4536 3.26131 9
171 1 1.57752 -19.3707 1.65916 13
172 1 1.51303 -3.03333 -6.62533 8
173 1 8.81206 -6.32438 -1.64373 19
174 1 -0.0162981 -21.8508 -0.532077 12
175 1 14.8336 -19.6394 -7.70858 11
176 1 -2.55132 -17.3139 -4.4755 21
177 1 13.4677 -15.2177 -10.6893 15
178 1 10.6948 -20.2964 -8.53173 19
179 1 6.96018 -9.14937 -1.0639 20
180 1 -3.88606 -16.3425 -12.8638 11
181 1 1.43464 -4.92537 -13.8876 9
182 1 7.76926 -8.46679 -18.3116 12
183 1 -4.09283 -13.8436 -14.2044 12
184 1 9.37036 -14.5102 -15.7617 11
185 1 3.17169 -21.3427 -11.2441 18
186 1 5.74877 -22.3627 0.211213 12
187 1 12.0381 -18.2114 -5.83132 21
188 1 -4.22444 -18.8774 -8.81076 13
189 1 3.93233 -10.9358 -14.2242 18
190 1 -3.01635 -21.7015 -9.83695 12
191 1 14.6243 -18.6106 -4.61248 11
192 1 3.42922 -18.8445 -13.2036 15
193 1 -2.5036 -7.44653 -5.44225 13
194 1 -4.46409 -13.3583 -2.76418 13
195 1 10.0136 -9.05725 -6.08434 17
196 1 14.5509 -13.0216 -7.45245 13
197 1 -3.10898 -22.6145 -0.128261 9
198 1 3.96334 -13.9478 -13.4182 17
199 1 8.09072 -4.96754 -11.7931 14
200 1 10.6227 -7.70742 0.95871 9
201 1 6.53282 -3.83708 -8.76346 12
202 1 11.4385 -13.84 -4.83594 19
203 1 -1.7773 -14.8582 -1.66698 18
204 1 14.008 -18.6465 -10.7436 13
205 1 9.52151 -16.9628 -13.788 16
206 1 4.26754 -7.6711 -1.33372 18
207 1 5.23502 -6.80655 -9.30432 17
208 1 -1.49905 -23.5379 -3.87666 10
209 1 9.55772 -22.9424 -4.11953 14
210 1 -5.94704 -15.2992 -8.41337 11
211 1 -0.767803 -9.69493 -15.9616 11
212 2 -5.58816 -18.3347 -1.62159 11
213 2 12.5104 -11.5837 -2.70411 14
214 2 4.55897 -20.7896 0.891134 14
215 2 5.59911 -16.9461 -15.4991 12
216 2 -1.57891 -12.1845 -8.30416 19
217 2 -2.40821 -23.0232 -2.27188 11
218 2 7.65563 -15.5223 2.13172 12
219 2 13.4011 -14.0156 -4.84093 16
220 2 2.55387 -8.51734 -0.255386 14
221 2 3.56392 -8.41376 -3.00374 21
222 2 8.53676 -24.0162 -7.75587 16
223 2 -3.50593 -12.6478 -16.4376 8
224 2 7.35155 -21.4933 -13.5243 12
225 2 -1.54194 -19.1634 -5.31926 20
226 2 4.55273 -7.2066 -7.07898 17
227 2 14.6776 -15.2889 -7.38192 13
228 2 9.55494 -6.38934 -12.1719 17
229 2 8.04927 -8.00991 -1.94323 22
230 2 10.9492 -7.35347 -6.90071 13
231 2 7.49671 -4.6924 -10.0239 14
232 2 2.61508 -14.6873 -14.5241 18
233 2 -2.48846 -14.9129 -13.9359 15
234 2 3.12766 -23.5875 -0.563279 9
235 2 -5.53104 -17.206 -7.85887 11
236 2 10.284 -20.6031 -13.1019 16
237 2 3.84005 -24.3006 -8.5883 13
238 2 6.17265 -10.2423 -8.35267 21
239 2 8.11604 -13.0602 -2.66041 19
240 2 5.95476 -17.9111 1.52046 12
241 2 -1.49299 -21.5776 0.529718 11
242 2 0.298128 -23.7183 -4.16155 13
243 2 -4.19492 -20.7186 -4.4234 16
244 2 -2.28439 -22.7255 -5.64029 13
245 2 0.484209 -22.9447 -8.37429 14
246 2 4.88556 -4.62607 -5.01962 16
247 2 8.12783 -10.2558 -18.0691 10
248 2 13.6729 -9.9466 -11.2109 12
249 2 9.82815 -7.28433 -15.3536 12
250 2 -0.205066 -11.6922 -16.0402 12
251 2 9.4098 -17.0359 -5.13267 24
252 2 6.56692 -2.94653 -7.16553 10
253 2 -1.11441 -7.38669 -3.99674 14
254 2 7.36582 -5.4167 -7.31881 17
255 2 7.50064 -4.97362 -13.43 10
256 2 6.29808 -6.513 1.12988 12
257 2 3.81014 -15.0567 1.33392 16
258 2 8.28386 -13.0849 -16.2683 15
259 2 9.30338 -21.3242 -7.66344 20
260 2 5.4586 -19.5325 -13.1366 16
261 2 -2.28572 -20.8903 -8.20582 17
262 2 12.0697 -21.3882 -10.5369 15
263 2 10.463 -5.83666 -2.62768 10
264 2 -0.514058 -14.4718 -16.0613 12
265 2 5.06121 -14.4083 -16.3322 13
266 2 0.585111 -22.3728 -13.9667 10
267 2 8.34806 -18.3885 -14.0577 14
268 2 13.0909 -15.6236 -12.7354 12
269 2 -4.38769 -21.6255 -1.1584 11
270 2 10.419 -17.3051 -12.0928 19
271 2 9.18849 -9.73461 -10.2226 18
272 2 3.4037 -21.4572 -13.4637 12
273 2 2.22872 -14.1648 -11.7966 17
274 2 3.75183 -10.934 -1.93195 19
275 2 -3.2823 -19.3407 0.902191 12
276 2 -1.75753 -12.4559 -4.81444 21
277 2 2.37339 -8.01804 -5.97379 21
278 2 0.0455449 -19.2309 2.47518 11
279 2 -4.85589 -14.4606 -12.6065 10
280 2 7.79312 -23.3494 -4.76307 16
281 2 10.5195 -18.5948 -9.7086 21
282 2 0.0815242 -15.6896 -13.2034 16
283 2 9.82329 -10.6799 -2.8631 19
284 2 4.97378 -5.79665 -1.29661 14
285 2 3.87491 -11.4003 1.08325 14
286 2 -0.373814 -9.49738 -8.73754 20
287 2 -2.54876 -15.7782 -11.2744 17
288 2 11.2418 -10.1452 -7.53593 19
289 2 -4.86914 -17.7732 -4.90492 17
290 2 5.68359 -6.71299 -15.7941 13
291 2 5.44502 -11.8574 -17.7206 10
292 2 -3.2172 -8.95286 -8.65818 16
293 2 7.77239 -17.5441 -2.89549 18
294 2 11.4931 -22.9896 -8.4645 13
295 2 5.78432 -26.9436 -7.96377 6
296 2 0.849604 -9.70607 -3.3898 24
297 2 -0.328288 -20.8922 -2.23441 17
298 2 8.98216 -22.5483 -2.35884 10
299 2 7.83992 -5.22472 -2.88014 14
300 2 3.49829 -2.57172 -6.40144 8
301 2 -1.35843 -16.5053 1.54246 11
302 2 4.12253 -19.3756 -6.85153 21
303 2 1.03877 -13.0804 1.18889 12
304 2 5.93694 -8.34857 -18.603 9
305 2 7.7694 -18.4011 -11.0072 21
306 2 5.61007 -14.4996 -1.5382 17
307 2 -2.36882 -17.8443 -8.49405 18
308 2 11.0887 -8.51062 -3.8827 16
309 2 11.1714 -9.08337 -0.545916 14
310 2 10.4933 -19.0781 -7.00509 18
311 2 -3.87713 -14.6688 -8.84962 17
312 2 6.42894 -10.0493 2.51056 11
313 2 8.81773 -18.1858 0.118576 14
314 2 3.34817 -6.77631 -17.8406 6
315 2 13.0105 -17.1567 -4.2586 15
316 2 6.4919 -13.1996 2.3988 12
317 2 10.2211 -19.4195 -4.22943 19
318 2 -3.16003 -18.0444 -13.2827 11
319 2 -2.87654 -6.44231 -12.8474 8
320 2 -3.44086 -11.9698 -13.8345 14
321 2 1.46504 -20.7202 -0.109125 14
322 2 9.78231 -4.01801 -5.72954 9
323 2 -1.65289 -20.4045 -13.5299 12
324 2 13.0653 -13.1827 -11.3342 13
325 2 1.62443 -8.18556 -11.2252 19
326 2 13.0346 -19.8664 -4.78291 13
327 2 -1.95433 -15.6858 -3.83208 22
328 2 2.08167 -23.7879 -10.9768 12
329 2 2.06368 -5.05053 -11.7263 14
330 2 -3.60037 -9.05602 -5.6796 15
331 2 6.16167 -7.08609 -4.40855 20
332 2 3.04156 -18.4362 2.0482 12
333 2 -4.30214 -11.4322 -7.68599 14
334 2 4.40071 -5.19268 -9.73288 14
335 2 -0.474151 -10.3049 0.090913 11
336 2 -0.0848877 -9.3912 -14.0072 14
337 2 10.3782 -5.50434 -9.06734 14
338 2 -0.325928 -7.6359 -1.13993 11
339 2 2.98666 -13.8419 -0.982157 21
340 2 1.92143 -19.3402 -14.6798 11
341 2 9.86108 -8.43868 -17.9523 8
342 2 5.02415 -19.2334 -10.3325 19
343 2 0.806376 -8.71856 -16.79 9
344 2 10.9459 -17.21 -1.61745 14
345 2 10.6073 -14.1538 -14.2363 15
346 2 5.24737 -24.7106 -6.09819 16
347 2 6.35286 -10.3031 -15.0665 19
348 2 8.80185 -8.50265 1.57645 14
349 2 -0.834831 -6.98191 -10.3701 16
350 2 0.0443566 -12.722 -2.24009 20
351 2 -3.67233 -19.9579 -10.3352 11
352 2 4.99807 -21.6203 -4.4319 20
353 2 1.2754 -7.02183 -8.37437 19
354 2 -4.63208 -12.0433 -4.44603 16
355 2 -5.62755 -14.1664 -6.60255 12
356 2 7.79564 -26.1004 -9.76519 7
357 2 8.88246 -12.2419 1.91664 12
358 2 3.5148 -11.1132 -10.7429 23
359 2 4.47332 -9.28144 -13.3687 18
360 2 4.58949 -5.72014 -13.5144 14
361 2 9.4956 -23.4455 -11.2485 12
362 2 15.0345 -18.0656 -6.37593 12
363 2 10.9762 -12.3164 -0.531464 12
364 2 1.88073 -6.7196 -14.4098 15
365 2 2.34838 -16.7228 -16.5383 11
366 2 8.48691 -15.5736 -14.4964 14
367 2 1.85691 -6.26979 -3.40352 15
368 2 -0.424392 -4.91618 -13.6886 9
369 2 -2.76142 -9.05923 -11.5702 16
370 2 -2.17975 -9.91957 -2.74401 16
371 2 8.957 -12.0243 -13.127 23
372 2 5.86703 -14.2464 -13.2722 19
373 2 -3.58562 -11.9544 -10.6503 14
374 2 5.01208 -11.9186 -12.9558 19
375 2 11.0492 -20.1643 -1.3612 10
376 2 -2.44426 -13.1861 -2.26837 16
377 2 0.196818 -19.5114 -8.11937 17
378 2 -4.88563 -15.1159 -3.03106 15
379 2 5.31701 -19.0005 -1.55258 17
380 2 -4.58879 -19.8362 -7.37798 13
381 2 0.0163918 -15.825 -1.15339 18
382 2 3.04412 -25.5925 -3.41476 8
383 2 13.7026 -11.0459 -5.41469 14
384 2 7.78479 -21.548 -10.3447 17
385 2 -1.4404 -6.71755 -6.91972 11
386 2 -0.365721 -17.8571 -14.9295 15
387 2 -3.29797 -16.1872 -0.864538 16
388 2 7.39165 -21.1762 -0.719552 12
389 2 10.8619 -9.05947 -12.5433 17
390 2 10.2928 -10.6842 -15.7898 14
391 2 10.8085 -11.6243 -5.30689 21
392 2 1.44482 -4.06637 -8.35182 11
393 2 13.6961 -16.9831 -9.65792 15
394 2 10.3883 -13.9418 -6.53807 20
395 2 1.67223 -21.1465 -10.2145 17
396 2 13.2195 -18.9858 -12.4348 11
397 2 6.35971 -21.3863 -7.6423 22
398 2 11.9473 -16.7073 -7.06899 19
399 2 7.29121 -19.9543 -5.60467 19
400 2 10.6146 -14.7819 -3.34568 22
401 2 11.6318 -11.6327 -13.0108 16
402 2 -0.577293 -18.2646 -11.3324 19
403 2 -2.76835 -18.7286 -2.43733 18
404 2 5.32261 -23.2487 -1.93093 14
405 2 7.79087 -8.12741 -13.7441 17
406 2 15.2155 -11.4197 -7.92142 9
407 2 11.4545 -7.54427 -10.4248 15
408 2 0.446621 -18.397 -2.71921 20
409 2 2.94465 -22.4521 -6.8027 19
410 2 14.667 -20.1339 -9.68388 10
411 2 11.1922 -22.6013 -5.34037 15
412 2 4.44791 -22.3298 -10.3705 15
413 2 9.40359 -6.31761 0.103113 12
414 2 5.45013 -8.71532 -0.0641831 17
415 2 2.00825 -24.9128 -6.01564 12
416 2 1.07501 -16.1174 2.34369 11
417 2 -0.457196 -10.5348 -5.76496 22
418 2 9.03729 -14.783 -0.369317 16
419 2 13.7077 -9.14977 -8.14455 11
420 2 -2.53224 -9.44649 -15.1337 12
421 2 -1.51846 -22.4458 -11.1502 12
422 2 13.656 -21.1788 -7.13019 13
423 1 1.93314 -15.6757 -12.9678 18
424 1 0.361495 -17.8123 -12.9982 18
425 1 6.02101 -18.4447 -11.7384 17
426 1 1.60785 -14.45 -10.0846 19
427 1 1.64581 -16.7551 -7.97783 18
428 1 3.28459 -16.9505 -10.4833 17
429 2 2.36196 -17.4514 -12.1821 19
430 2 -0.122936 -15.4005 -9.05901 19
431 2 2.24991 -18.2318 -9.13783 19
432 2 1.60921 -20.2807 -4.73893 19
433 2 2.89723 -15.4831 -8.96797 16
434 1 -3.60421 -16.2899 -7.73066 20
435 1 0.542106 -18.7561 -5.12646 19
436 1 4.56148 -14.72 -7.82396 20
437 1 0.874946 -15.5726 -5.29309 17
438 1 3.62992 -17.7665 -5.6949 21
439 1 3.66636 -15.2177 -4.67602 22
440 2 0.0462169 -14.173 -6.20354 16
441 2 7.1998 -17.6027 -7.45746 22
442 2 1.49693 -17.5119 -6.20614 21
443 2 4.51903 -15.8639 -6.24792 20
444 2 1.88085 -15.2384 -3.77576 22
445 2 3.01945 -20.0803 -2.53602 19
446 2 3.19819 -16.978 -1.40801 19
447 1 1.72044 -12.0112 -11.4064 16
448 1 -1.16477 -14.6292 -12.3339 20
449 1 1.4207 -8.76781 -9.30116 20
450 1 -0.0293147 -5.75279 -7.70962 15
451 1 2.69358 -11.7704 -8.46676 18
452 2 3.11105 -11.9165 -15.7991 13
453 2 6.90527 -10.4139 -11.5531 21
454 2 -0.0607495 -11.2743 -11.5221 17
455 2 1.17683 -12.605 -9.4428 16
456 2 2.67406 -9.80823 -7.74216 21
457 1 -0.769267 -14.0081 -7.95204 17
458 1 4.59065 -9.38584 -7.40059 20
459 1 1.47614 -9.68979 -6.20528 20
460 1 3.89024 -12.3499 -5.66445 22
461 1 0.202429 -12.4788 -5.0967 19
462 1 4.7424 -10.0841 -3.24107 22
463 1 4.38937 -13.0097 -2.21805 20
464 2 -3.26381 -15.3793 -6.08657 18
465 2 1.46412 -5.302 -6.23956 15
466 2 4.34025 -12.6972 -7.6659 21
467 2 2.23243 -11.7756 -4.86374 21
468 2 5.09687 -9.93906 -5.52135 23
469 2 4.4792 -13.4619 -4.26604 22
470 1 6.28572 -14.8248 -11.3433 19
471 1 7.04572 -17.3417 -9.47878 20
472 1 9.84521 -15.7917 -10.6026 21
473 1 11.3541 -15.0415 -7.84386 23
474 1 5.93339 -21.0501 -9.9406 18
475 2 8.23235 -15.0417 -11.385 19
476 2 5.54571 -16.6724 -10.5611 17
477 2 9.25644 -15.8257 -8.36986 20
478 1 9.37931 -17.3986 -7.18892 23
479 1 11.8094 -13.1586 -9.74743 21
480 1 6.56532 -15.7 -6.55627 20
481 2 6.49963 -14.1988 -7.82812 19
482 2 5.03007 -17.3182 -3.96502 19
483 2 12.7041 -13.072 -8.13573 21
484 2 7.11164 -15.0797 -4.85081 24
485 1 6.37525 -12.2291 -8.48629 22
486 1 7.32153 -9.45942 -9.55027 19
487 1 9.79906 -10.6617 -8.78352 22
488 2 6.73194 -12.9208 -10.3486 21
489 2 4.82483 -7.65966 -11.1305 15
490 2 11.6541 -15.1766 -9.92484 19
491 2 8.81532 -12.0086 -8.01662 22
492 2 8.25091 -8.94767 -5.91332 22
493 1 8.48776 -14.0414 -8.29236 22
494 1 6.89919 -10.3274 -6.0608 20
495 1 12.3033 -11.6076 -6.92733 21
496 1 6.72884 -13.207 -4.24644 21
497 2 7.18266 -7.52422 -9.42695 20
498 2 9.9531 -12.2502 -10.2748 20
499 2 7.25266 -11.8396 -5.22159 23
500 2 6.47382 -10.2226 -2.72865 21
