ITEM: TIMESTEP
13000
ITEM: NUMBER OF ATOMS
2000
ITEM: BOX BOUNDS pp pp pp
-30.0 30.0
-30.0 30.0
-30.0 30.0
ITEM: ATOMS id type x y z Coordination
1 2 -15.2912 -2.71927 -2.70877 18
2 1 -2.81129 -17.9632 -4.63339 12
3 2 -3.01372 -17.3058 -2.78449 14
4 1 -3.22727 -17.283 0.968578 14
5 2 -3.1863 -17.1748 2.83937 15
6 1 0.392314 -17.5128 -4.48363 13
7 1 3.63935 -17.2316 -4.16116 14
8 2 -0.0820596 -16.9672 -2.87066 17
9 2 3.72833 -16.6845 -2.25176 16
10 1 -0.0103289 -16.8711 1.14486 15
11 1 0.246017 -17.0059 5.29295 9
12 1 3.49584 -16.5923 0.87514 16
13 2 0.418477 -17.1346 2.99919 15
14 2 3.82887 -16.5329 2.78079 14
15 2 -5.74123 -5.05743 -14.3366 16
16 2 -6.9739 -1.54411 -15.5077 11
17 2 -2.07388 -5.1581 -15.9656 13
18 2 -3.45949 -2.07966 -15.4184 18
19 2 -4.78143 0.90885 -16.2389 12
20 2 -7.93442 5.27437 -13.8374 13
21 2 -1.8822 1.22395 -16.0716 15
22 2 -3.2221 4.0576 -15.722 13
23 2 -1.38065 6.91948 -15.8509 12
24 2 -0.303392 -7.29102 -15.5629 13
25 2 1.60038 -4.73349 -15.6498 14
26 2 -0.139418 -2.27049 -15.9336 16
27 2 4.92329 -4.97865 -15.6209 12
28 2 3.53795 -2.20426 -15.8813 15
29 2 6.91841 -1.92972 -16.0795 12
30 2 1.33545 0.543616 -15.6684 18
31 2 0.403676 3.72577 -16.5471 13
32 2 1.64208 6.32607 -16.5596 11
33 2 4.77516 0.722149 -16.4786 15
34 2 3.30822 3.44772 -16.4924 15
35 2 6.26255 3.23271 -16.3036 10
36 1 -16.9052 -7.18109 -3.22143 10
37 1 -15.0923 -7.67433 -6.24323 14
38 1 -14.1685 -3.00682 -11.6416 10
39 1 -15.8936 -4.80704 -6.69969 11
40 1 -15.8322 -2.02806 -8.90647 14
41 1 -16.6983 -0.0223528 -5.86445 12
42 1 -14.7728 -2.18931 -4.72021 19
43 1 -15.0404 -4.71243 -2.42371 20
44 1 -17.1149 -1.97245 -2.91805 10
45 1 -13.7556 -11.0382 -5.34327 10
46 1 -14.5843 -5.33082 -9.0892 16
47 1 -11.1681 -9.51451 -10.9608 12
48 1 -11.5026 -10.6473 -8.02574 14
49 1 -12.8115 -8.14948 -8.30423 16
50 1 -13.516 -5.23326 -4.83834 20
51 1 -11.5212 -8.86069 -5.29321 20
52 1 -11.8931 -10.8659 -2.76815 16
53 1 -13.0298 -7.35479 -2.47086 22
54 1 -12.7521 -6.18451 -10.8314 12
55 1 -13.7842 0.147162 -10.7296 15
56 1 -11.6879 -2.12244 -10.1526 17
57 1 -11.3916 -4.93531 -7.66756 23
58 1 -13.5342 -2.33577 -7.94414 21
59 1 -13.4619 0.456527 -5.59287 21
60 1 -11.7571 -2.93457 -5.2868 21
61 1 -11.4659 -4.58891 -2.10613 22
62 1 -13.4479 -1.80281 -2.28936 23
63 1 -8.73787 -11.7719 -9.25004 12
64 1 -10.1447 -11.4946 -5.37352 17
65 1 -7.2807 -15.156 -4.10879 9
66 1 -9.81528 -13.3104 -2.50874 14
67 1 -10.1042 -7.33621 -12.6735 12
68 1 -9.70016 -5.69797 -10.0872 20
69 1 -8.14612 -8.67292 -9.97927 20
70 1 -7.63172 -10.4217 -6.93508 20
71 1 -9.75676 -7.64321 -7.14278 21
72 1 -9.86358 -5.80136 -4.73796 24
73 1 -8.10858 -8.64384 -4.83235 23
74 1 -8.68869 -10.5729 -2.02235 22
75 1 -9.93411 -7.72703 -2.16744 22
76 1 -8.52068 -1.5534 -14.3878 13
77 1 -8.87689 -4.63909 -12.5335 14
78 1 -10.4703 -1.89943 -12.7287 13
79 1 -9.97043 0.313799 -10.0107 22
80 1 -8.18582 -2.54849 -10.0487 23
81 1 -8.15482 -4.7687 -7.56826 22
82 1 -9.60406 -1.9101 -7.62512 22
83 1 -10.0131 0.0719165 -5.29888 21
84 1 -8.32285 -2.81422 -4.77152 22
85 1 -8.20944 -4.61446 -2.10544 23
86 1 -10.2185 -1.66688 -2.51509 21
87 1 -6.06396 -11.9496 -9.91191 12
88 1 -6.14363 -13.3506 -7.22876 17
89 1 -6.54915 -11.8818 -4.37859 19
90 1 -4.55723 -15.3154 -4.9758 14
91 1 -4.91578 -17.0664 -2.02788 10
92 1 -6.50686 -13.2266 -1.87219 20
93 1 -6.6919 -6.70323 -14.4919 12
94 1 -4.76562 -8.85307 -15.2728 10
95 1 -6.91965 -9.26278 -12.1778 13
96 1 -6.40983 -5.73979 -9.99795 20
97 1 -4.82168 -8.79914 -10.1573 18
98 1 -4.20522 -10.6547 -7.77123 21
99 1 -6.46914 -7.72245 -7.49437 21
100 1 -6.70822 -5.83478 -5.26125 20
101 1 -5.05064 -8.83502 -4.63922 25
102 1 -5.03074 -10.4049 -1.99903 21
103 1 -6.62817 -7.40696 -2.31846 21
104 1 -6.41655 0.4631 -15.5217 15
105 1 -5.25636 -2.32769 -15.1549 16
106 1 -4.74742 -4.43328 -12.5025 21
107 1 -6.73666 -1.62539 -12.6701 24
108 1 -6.35962 0.373605 -10.1572 22
109 1 -5.15514 -2.86106 -10.1678 23
110 1 -4.85232 -4.90174 -7.4512 24
111 1 -6.25129 -1.74534 -7.65583 22
112 1 -6.56664 -0.0209269 -4.84986 23
113 1 -5.07587 -2.92095 -4.99431 22
114 1 -4.92685 -4.87267 -2.50017 22
115 1 -6.65237 -1.73889 -2.18131 23
116 1 -2.90573 -11.6483 -10.0961 16
117 1 -1.45184 -14.6061 -9.89435 13
118 1 -1.90523 -16.2512 -6.767 12
119 1 -3.05746 -13.6775 -7.20543 20
120 1 -3.47064 -12.1265 -4.55415 23
121 1 -1.57116 -14.6596 -4.30695 24
122 1 -1.65485 -16.265 -1.77918 20
123 1 -3.09558 -13.0106 -1.31419 21
124 1 -3.84118 -5.6781 -15.28 17
125 1 -1.90077 -7.09611 -16.4964 10
126 1 -1.76111 -9.90444 -12.8681 15
127 1 -3.57316 -7.60557 -12.5791 21
128 1 -3.24884 -5.49642 -10.1039 23
129 1 -1.64093 -8.13417 -9.95656 22
130 1 -0.952699 -10.7888 -7.33558 22
131 1 -3.03128 -7.45154 -7.33548 23
132 1 -3.44578 -5.85817 -4.80113 21
133 1 -1.73414 -9.30265 -4.89833 22
134 1 -1.68139 -10.6571 -2.09834 23
135 1 -3.08996 -7.71811 -2.39228 21
136 1 -3.1101 -0.140751 -15.6817 18
137 1 -2.03395 -3.17591 -15.7449 17
138 1 -1.61965 -4.61054 -12.7554 21
139 1 -3.35492 -1.5777 -12.5214 23
140 1 -3.39521 0.153217 -10.2444 24
141 1 -1.4904 -2.93634 -10.1263 24
142 1 -1.3012 -4.78968 -7.61407 21
143 1 -3.08727 -1.85208 -7.6481 25
144 1 -3.37752 0.134952 -4.64176 24
145 1 -1.79343 -2.77612 -4.98118 23
146 1 -1.19726 -4.80207 -2.36725 21
147 1 -3.33672 -1.85369 -2.12118 24
148 2 -17.0319 -7.3605 0.168925 12
149 2 -16.5371 -5.76368 -2.30388 15
150 2 -14.1509 -9.20478 -5.87131 13
151 2 -14.8689 -4.25444 -5.39694 17
152 2 -16.2485 -0.847887 -7.3745 13
153 2 -14.9308 -3.80663 -8.0199 17
154 2 -15.0773 -4.29288 -0.217884 18
155 2 -17.1324 -0.947012 -1.37793 9
156 2 -16.3767 -0.998632 -4.45748 14
157 2 -13.1612 -5.26551 -2.84101 20
158 2 -13.7402 -10.874 -3.36127 10
159 2 -11.913 -10.7274 -5.73512 14
160 2 -15.2844 -6.37758 -7.6923 11
161 2 -12.4948 -6.25522 -8.40322 17
162 2 -11.3129 -8.89172 -7.28557 17
163 2 -11.3987 -10.4705 -0.78818 18
164 2 -13.3074 -7.33758 -0.492135 19
165 2 -16.1314 -7.5438 -4.68916 12
166 2 -11.5047 -8.50134 -3.14157 22
167 2 -13.8603 -4.69672 -10.7551 15
168 2 -14.7396 -1.6825 -10.3675 13
169 2 -12.3936 -2.28407 -12.013 11
170 2 -11.7371 -5.05138 -5.61531 18
171 2 -13.3255 -2.20315 -6.02715 22
172 2 -13.4422 -0.518404 -8.391 20
173 2 -11.2653 -3.23871 -8.53423 21
174 2 -11.8307 -4.6265 0.0234117 20
175 2 -13.231 -1.50181 -0.159051 21
176 2 -13.6067 -0.086241 -3.68975 23
177 2 -11.7563 -2.77945 -3.11288 24
178 2 -9.63591 -11.405 -7.44768 12
179 2 -10.7858 -10.6663 -9.55483 12
180 2 -9.62051 -13.1974 -0.564953 15
181 2 -9.79296 -11.5263 -3.37073 19
182 2 -7.99906 -13.6919 -2.88884 14
183 2 -7.42468 -10.6251 -10.7366 13
184 2 -12.4079 -8.02085 -10.6464 13
185 2 -10.8243 -5.83062 -11.6073 13
186 2 -9.65523 -8.53145 -11.2949 14
187 2 -7.82414 -10.6658 -5.08303 18
188 2 -9.71091 -7.64768 -5.27356 22
189 2 -9.61863 -5.86908 -8.18568 21
190 2 -8.06563 -8.67861 -7.61182 21
191 2 -8.57622 -10.5769 0.0916507 23
192 2 -10.1448 -7.4945 -0.237869 22
193 2 -9.92888 -5.68091 -2.722 20
194 2 -8.05765 -8.70662 -2.7831 21
195 2 -8.1158 -5.21748 -10.8386 19
196 2 -9.66239 -1.68113 -10.8138 20
197 2 -9.86549 -0.292618 -13.5524 15
198 2 -8.34255 -2.76636 -12.9209 17
199 2 -8.38715 -4.81291 -5.55606 24
200 2 -9.86492 -1.99735 -5.62734 21
201 2 -10.1124 -0.250548 -8.11356 19
202 2 -7.85004 -2.97276 -8.22719 21
203 2 -8.33341 -4.88318 0.290355 21
204 2 -10.0797 -1.78132 -0.267959 25
205 2 -10.0537 0.358742 -3.09887 22
206 2 -8.3347 -2.73946 -2.69957 22
207 2 -3.67538 -16.6243 -5.98251 11
208 2 -6.3672 -14.1913 -5.52105 15
209 2 -7.0366 -11.7823 -8.28545 15
210 2 -4.66633 -13.3801 -8.47897 13
211 2 -4.73709 -16.536 0.0476356 13
212 2 -6.65803 -13.8332 -0.185158 18
213 2 -6.52718 -11.4343 -2.50123 20
214 2 -5.89516 -15.9129 -3.12144 12
215 2 -4.58848 -10.7191 -9.73772 16
216 2 -6.59036 -7.9076 -10.6091 18
217 2 -8.41804 -6.44388 -13.6248 12
218 2 -5.90453 -8.30584 -13.7341 13
219 2 -4.87284 -11.1685 -5.87061 22
220 2 -6.4859 -7.83427 -5.56636 22
221 2 -6.58742 -5.68241 -8.00684 23
222 2 -4.60976 -8.54728 -8.00127 21
223 2 -4.77168 -10.4689 0.0218368 21
224 2 -6.81173 -7.39053 -0.369032 24
225 2 -6.70105 -5.59433 -3.27507 23
226 2 -4.92236 -8.5006 -2.79608 21
227 2 -5.04996 -4.63617 -10.6258 21
228 2 -6.60565 -1.48526 -10.5217 20
229 2 -6.66477 0.479915 -13.4925 20
230 2 -5.11919 -2.30464 -13.26 20
231 2 -4.74487 -4.62004 -5.46434 21
232 2 -6.85958 -2.02731 -5.60644 23
233 2 -6.52012 0.101415 -8.21834 25
234 2 -4.66617 -2.93851 -8.2694 24
235 2 -5.16118 -4.83288 -0.429937 23
236 2 -6.70401 -1.85305 -0.228124 22
237 2 -6.69964 0.440111 -2.97844 21
238 2 -5.10078 -2.87208 -3.01447 23
239 2 -1.33456 -12.8603 -10.7162 16
240 2 -3.32644 -9.17541 -13.9519 12
241 2 -1.19427 -17.2886 -5.36924 13
242 2 -3.14928 -14.0172 -5.18479 21
243 2 -2.49631 -12.0313 -7.75439 21
244 2 -1.37066 -15.1219 -8.20124 16
245 2 -1.65013 -16.5942 0.214495 17
246 2 -3.73037 -13.5761 0.247205 20
247 2 -3.44517 -11.5874 -2.57837 22
248 2 -1.70174 -14.1515 -2.11597 18
249 2 -2.21357 -9.79246 -10.8178 18
250 2 -3.53005 -7.54948 -10.7371 20
251 2 -3.22718 -5.81798 -13.1979 21
252 2 -3.74147 -7.40048 -15.9963 11
253 2 -1.68322 -11.1091 -5.25826 20
254 2 -3.39359 -8.06614 -5.47974 20
255 2 -2.89169 -5.71156 -8.08619 22
256 2 -1.30228 -8.68769 -8.11094 25
257 2 -1.66652 -10.2872 -0.00689906 23
258 2 -3.28038 -7.76609 -0.448506 23
259 2 -3.0579 -5.84786 -3.0564 22
260 2 -1.41965 -8.85166 -3.05734 22
261 2 -1.57134 -4.73008 -10.8377 25
262 2 -3.30343 -1.85733 -10.7259 24
263 2 -3.43732 0.268414 -13.5965 23
264 2 -1.84115 -2.72739 -13.0147 21
265 2 -1.76016 -4.87773 -5.61111 23
266 2 -3.46548 -1.87462 -5.31434 21
267 2 -3.40297 0.112377 -8.25515 23
268 2 -1.69618 -3.06187 -8.18094 23
269 2 -1.69266 -4.8897 -0.158224 24
270 2 -3.68463 -2.13963 0.299159 20
271 2 -3.37448 0.116021 -2.5885 22
272 2 -1.73178 -2.61482 -2.81279 22
273 1 -17.0374 -5.30055 -0.405167 13
274 1 -15.2624 -7.90632 -0.55627 17
275 1 -17.357 -6.77237 2.12433 7
276 1 -16.7996 0.150595 -0.0256176 14
277 1 -14.6789 -2.5243 0.26991 21
278 1 -15.7039 -4.63825 3.05207 16
279 1 -16.5513 -1.29925 2.73392 14
280 1 -16.5034 0.98368 5.19828 14
281 1 -15.3088 -2.24999 5.62939 17
282 1 -14.9374 -4.48408 8.90374 9
283 1 -15.2627 -9.73309 -3.40427 11
284 1 -13.7222 -5.47838 0.497912 22
285 1 -12.0188 -8.87819 0.202337 20
286 1 -12.1953 -10.6663 2.98577 12
287 1 -14.0723 -7.57392 2.84665 16
288 1 -13.7079 -5.43167 5.64608 17
289 1 -11.9582 -8.65171 5.66924 17
290 1 -12.0783 -10.5296 8.46512 9
291 1 -13.3342 -7.40375 7.90155 11
292 1 -12.1921 -4.7027 13.1952 8
293 1 -9.89058 -7.36026 12.339 13
294 1 -13.3507 0.335781 0.15788 23
295 1 -11.5243 -2.70325 0.680043 24
296 1 -11.9005 -4.89399 3.06335 21
297 1 -13.4113 -2.05245 2.97196 22
298 1 -13.1343 0.11042 5.23986 22
299 1 -11.7277 -2.58702 5.51411 21
300 1 -11.7672 -4.75015 8.38544 21
301 1 -13.3626 -1.5618 8.42023 17
302 1 -14.6727 -0.221012 10.6784 9
303 1 -11.6466 -2.47478 11.18 18
304 1 -10.2957 -11.5893 0.272286 17
305 1 -8.50759 -14.378 0.294323 12
306 1 -10.4169 -13.1975 3.10148 15
307 1 -10.2105 -11.518 5.75568 16
308 1 -8.94618 -14.8764 5.41868 8
309 1 -10.1158 -5.54555 0.710109 25
310 1 -8.64664 -8.62641 0.299739 21
311 1 -8.71328 -10.5545 3.08236 20
312 1 -9.95203 -7.47032 3.03072 23
313 1 -9.96332 -5.76087 5.9087 22
314 1 -8.4549 -8.65596 5.79458 24
315 1 -8.92756 -10.5006 8.24928 18
316 1 -10.0906 -7.82595 8.51929 22
317 1 -10.2558 -5.37638 10.4883 18
318 1 -8.44573 -8.8196 10.5167 17
319 1 -9.90587 0.0584248 0.210855 23
320 1 -8.25225 -2.79461 0.384481 22
321 1 -8.1421 -4.9408 3.02182 21
322 1 -9.73463 -1.98043 3.16416 25
323 1 -9.87226 0.0770576 5.58739 22
324 1 -8.39543 -2.66812 5.75702 22
325 1 -8.4463 -4.6662 8.30178 23
326 1 -10.0744 -1.76105 8.38038 20
327 1 -9.91493 0.141817 10.3735 19
328 1 -8.09858 -2.82829 10.8114 23
329 1 -8.61647 -4.70768 13.435 19
330 1 -10.0111 -1.58348 13.7077 14
331 1 -6.79821 -11.2332 0.651174 23
332 1 -5.19834 -14.7422 0.788529 17
333 1 -4.84389 -16.1257 3.47362 15
334 1 -6.74224 -13.5981 2.94642 19
335 1 -6.89087 -11.6271 5.75617 21
336 1 -5.44062 -14.3142 5.99079 18
337 1 -6.09426 -14.3172 9.62428 11
338 1 -7.42414 -11.6053 10.7414 12
339 1 -6.69295 -5.79139 0.585333 23
340 1 -5.16435 -8.52792 0.128983 23
341 1 -5.10777 -10.3651 3.17277 23
342 1 -6.74862 -7.79208 2.94241 22
343 1 -6.68223 -5.71301 5.65503 20
344 1 -5.09951 -8.72558 5.96619 24
345 1 -5.4645 -11.0419 8.70606 22
346 1 -6.74922 -7.77646 8.01863 20
347 1 -6.71394 -5.67222 10.8671 22
348 1 -5.12467 -8.85907 11.2374 21
349 1 -5.72375 -10.5751 13.6308 11
350 1 -6.81974 -7.63953 13.6025 15
351 1 -6.55902 0.0926135 0.611001 24
352 1 -5.40384 -3.09324 0.491439 22
353 1 -4.8992 -5.03486 2.79528 21
354 1 -6.53097 -1.91278 3.13403 25
355 1 -6.77413 0.080772 5.51286 23
356 1 -5.00111 -2.95585 5.76697 24
357 1 -5.20029 -4.98286 8.43806 22
358 1 -6.74545 -1.6817 7.95945 20
359 1 -6.77558 0.284623 10.9333 22
360 1 -5.17325 -2.88991 11.1786 23
361 1 -4.90383 -4.70338 13.8161 18
362 1 -6.60368 -1.5935 13.6296 20
363 1 -3.38237 -11.5881 0.816776 23
364 1 -1.57953 -14.479 1.08177 25
365 1 -1.53757 -16.3206 3.64247 17
366 1 -3.50053 -13.4796 3.55001 22
367 1 -3.32625 -11.5318 5.73372 21
368 1 -2.87322 -15.4137 6.35418 16
369 1 -3.61522 -13.2284 7.9379 19
370 1 -4.00995 -11.8002 11.1762 18
371 1 -2.34428 -14.7352 10.0969 12
372 1 -3.42128 -5.87308 0.0613171 21
373 1 -1.70594 -8.50323 0.427237 23
374 1 -1.63622 -10.5223 3.00343 23
375 1 -3.74237 -7.96297 3.13579 24
376 1 -3.32716 -5.84489 5.59599 22
377 1 -2.05135 -8.62224 5.83835 22
378 1 -1.93612 -10.7019 8.28298 21
379 1 -3.28841 -7.68828 8.50118 21
380 1 -3.35973 -5.79887 11.1191 21
381 1 -1.93475 -8.74074 10.9975 23
382 1 -2.27141 -10.8491 13.4365 13
383 1 -3.33267 -7.6703 13.7063 17
384 1 -3.50934 -0.215268 0.435706 23
385 1 -1.74583 -2.83237 0.828655 25
386 1 -1.95038 -4.85637 3.17854 23
387 1 -3.36891 -1.77482 3.16746 25
388 1 -3.25181 -0.0443348 5.97536 24
389 1 -1.67905 -2.91294 6.04706 25
390 1 -1.54343 -4.93132 8.48539 22
391 1 -3.41536 -2.08726 8.30997 22
392 1 -3.47948 -0.0621352 11.2305 21
393 1 -1.69768 -3.03471 11.1246 21
394 1 -1.75081 -4.82292 13.9747 19
395 1 -3.34219 -1.72482 13.8784 19
396 2 -17.1203 -4.8624 1.62135 11
397 2 -15.8154 -6.88829 3.21809 12
398 2 -14.9351 -4.08703 4.83738 16
399 2 -16.2333 -0.892094 4.63471 13
400 2 -16.5563 0.269424 1.76269 16
401 2 -15.1504 -2.43394 2.19546 19
402 2 -14.7794 -2.77038 8.6953 12
403 2 -14.9391 -8.08768 -2.36195 16
404 2 -11.9732 -10.2561 4.78888 17
405 2 -13.3269 -7.42327 5.67632 14
406 2 -13.3335 -6.06172 2.41942 19
407 2 -12.897 -9.27569 2.00205 14
408 2 -13.6871 -5.614 8.04005 12
409 2 -12.0121 -8.63356 8.33947 14
410 2 -11.8223 -4.59069 4.94345 20
411 2 -13.4504 -1.81773 5.02196 19
412 2 -12.7901 0.296579 2.02757 24
413 2 -11.631 -2.81282 2.62656 20
414 2 -11.785 -4.24019 10.2603 19
415 2 -13.0949 -1.28397 10.3556 18
416 2 -13.4934 0.36162 7.75535 19
417 2 -11.7484 -2.38447 7.4691 21
418 2 -11.4547 -3.01076 12.9405 13
419 2 -9.86584 -13.373 5.0039 12
420 2 -10.4934 -11.4967 2.32578 17
421 2 -9.07849 -14.0466 2.06414 13
422 2 -10.6508 -10.8764 7.43393 14
423 2 -8.59055 -10.5006 5.12178 22
424 2 -10.3101 -7.61969 5.32221 20
425 2 -10.1575 -5.62269 2.62156 18
426 2 -8.44462 -8.66776 2.46166 21
427 2 -8.92096 -10.6387 10.0425 14
428 2 -9.86593 -7.28881 10.2143 18
429 2 -10.1615 -5.30123 7.72197 21
430 2 -8.48619 -8.52103 7.88455 20
431 2 -10.5093 -5.65999 12.9135 12
432 2 -8.25787 -8.20033 12.5553 17
433 2 -8.31358 -4.75331 5.03169 22
434 2 -9.97624 -1.73432 5.15761 22
435 2 -9.87928 -0.329125 2.3695 22
436 2 -8.1075 -3.04609 2.48151 23
437 2 -8.41727 -4.86559 10.3524 23
438 2 -9.84127 -2.08503 10.4936 21
439 2 -9.92959 0.378393 7.625 23
440 2 -8.37065 -2.63135 7.65918 23
441 2 -10.2678 0.0886092 12.3247 19
442 2 -8.45893 -2.72336 12.9234 20
443 2 -4.53359 -16.0686 5.28986 14
444 2 -7.16712 -14.0814 4.81316 16
445 2 -7.00032 -11.2569 2.53442 20
446 2 -5.00553 -14.527 2.76945 18
447 2 -7.18773 -13.3314 10.5014 9
448 2 -7.13675 -11.4538 7.67011 22
449 2 -5.44596 -14.0632 7.91475 16
450 2 -5.25503 -10.5581 5.27714 22
451 2 -6.84606 -7.56745 5.40246 23
452 2 -6.65579 -5.87169 2.44788 22
453 2 -5.05026 -8.80723 2.2605 23
454 2 -5.88743 -10.652 10.671 20
455 2 -6.55884 -7.65568 10.2926 23
456 2 -6.87077 -5.84792 7.77605 22
457 2 -5.34565 -8.96427 8.11784 23
458 2 -7.06059 -5.67165 12.8252 20
459 2 -5.14468 -8.74574 13.2633 16
460 2 -4.90248 -4.76863 4.82021 23
461 2 -6.5749 -1.81996 5.17882 23
462 2 -6.76808 -0.0492438 2.50627 24
463 2 -4.89287 -3.08747 2.43344 24
464 2 -5.12674 -4.50798 10.3168 21
465 2 -6.27725 -1.44523 10.3841 21
466 2 -6.27764 0.370991 7.71164 22
467 2 -5.35967 -2.94832 7.75094 20
468 2 -5.43775 -4.34252 15.652 12
469 2 -6.20817 -1.18832 15.6108 13
470 2 -6.71427 0.332581 12.9041 23
471 2 -5.13894 -2.85651 13.3308 22
472 2 -1.55266 -16.4605 5.50478 12
473 2 -3.63964 -13.4764 5.36251 20
474 2 -3.43811 -11.6216 2.83373 21
475 2 -1.85297 -14.5752 2.94195 24
476 2 -3.70588 -13.3717 9.96014 16
477 2 -3.79056 -11.3014 7.78061 22
478 2 -2.21472 -14.7163 8.02771 14
479 2 -4.02761 -11.1436 12.8466 12
480 2 -1.83416 -10.4649 4.92819 23
481 2 -3.49868 -7.72964 4.92961 26
482 2 -3.39667 -5.79322 2.14819 25
483 2 -1.91258 -8.57718 2.41116 24
484 2 -2.2659 -10.882 10.4887 21
485 2 -3.52596 -7.5972 10.5742 21
486 2 -3.36437 -5.80076 7.90821 24
487 2 -1.9149 -8.79066 7.83437 22
488 2 -6.82541 -7.43413 15.5213 10
489 2 -3.37995 -5.75924 13.2611 18
490 2 -1.94422 -8.78839 12.8821 19
491 2 -1.68937 -4.73985 5.19346 24
492 2 -3.51239 -1.90181 5.6529 22
493 2 -3.50302 0.00538798 2.4877 22
494 2 -1.77655 -2.73256 2.65873 22
495 2 -1.63771 -4.96646 10.6072 21
496 2 -3.27292 -1.88742 10.8378 20
497 2 -3.24813 0.0800791 8.0514 23
498 2 -1.81929 -3.06265 8.13664 22
499 2 -1.06179 -4.68706 15.7854 13
500 2 -3.33806 -1.66033 16.1559 13
501 2 -3.16657 -0.118038 13.0995 20
502 2 -1.58782 -3.02593 13.0482 23
503 1 -14.8498 3.353 -10.4329 12
504 1 -15.2416 0.824859 -8.14271 15
505 1 -17.323 5.48904 -5.03657 9
506 1 -15.1861 2.89193 -5.26803 19
507 1 -15.1674 0.486228 -2.70139 21
508 1 -16.7095 3.32035 -2.65791 15
509 1 -15.8449 5.55118 -7.41074 11
510 1 -15.0732 8.3253 -4.88148 15
511 1 -15.5781 6.61536 -2.61939 18
512 1 -10.8592 1.2952 -13.9932 9
513 1 -13.5747 5.68293 -9.82229 14
514 1 -11.5646 3.08914 -10.4109 21
515 1 -11.8846 0.833323 -7.81815 22
516 1 -13.3967 3.4091 -7.72548 22
517 1 -13.5617 5.69363 -5.1357 24
518 1 -11.7762 3.07048 -4.89404 26
519 1 -11.7142 1.13875 -2.32407 25
520 1 -13.6555 3.86906 -2.33481 25
521 1 -12.0513 8.91029 -9.80918 10
522 1 -11.5348 7.43937 -7.59945 18
523 1 -11.5434 11.3075 -7.80602 12
524 1 -13.3322 11.3778 -5.2675 12
525 1 -11.9238 8.96313 -5.04897 21
526 1 -11.9504 6.15656 -2.43933 23
527 1 -13.4361 9.2335 -2.42052 20
528 1 -12.0634 12.0801 -2.35346 13
529 1 -9.71319 4.29006 -13.8366 11
530 1 -8.37326 1.10168 -12.39 23
531 1 -11.8871 4.70081 -12.5491 12
532 1 -10.0305 6.11613 -10.1924 18
533 1 -8.15577 2.96056 -10.1237 22
534 1 -8.46796 1.28528 -7.6468 21
535 1 -10.0462 4.09815 -7.69325 22
536 1 -10.2196 5.71448 -5.22144 23
537 1 -8.60777 3.02445 -5.24246 22
538 1 -8.31547 0.963037 -2.15817 24
539 1 -10.0552 3.68959 -2.57101 20
540 1 -8.60052 6.88601 -12.6129 16
541 1 -8.71856 9.11621 -10.4903 17
542 1 -8.38828 6.68717 -7.79092 24
543 1 -9.36852 9.43088 -7.35583 20
544 1 -10.2464 11.9382 -4.88856 18
545 1 -8.30428 8.53441 -4.90968 22
546 1 -8.67507 6.64867 -2.35235 22
547 1 -10.3811 9.15774 -2.62297 22
548 1 -7.83718 12.2847 -7.34545 17
549 1 -8.24108 14.7186 -5.54272 11
550 1 -8.64465 12.1045 -2.05812 20
551 1 -7.11626 6.6943 -14.7397 10
552 1 -4.57515 2.70782 -15.4267 14
553 1 -4.99723 1.27374 -13.0708 19
554 1 -7.01674 3.59272 -13.006 18
555 1 -6.42409 5.70057 -10.3876 20
556 1 -4.98075 3.16784 -10.2771 23
557 1 -4.91356 0.94295 -7.34645 24
558 1 -6.47521 3.952 -7.63483 23
559 1 -6.97607 6.00416 -4.64776 23
560 1 -5.35168 3.18947 -4.87317 22
561 1 -5.02048 1.20312 -2.42133 22
562 1 -6.73578 3.82814 -2.20861 24
563 1 -4.44593 6.75713 -12.8817 20
564 1 -6.8535 10.1801 -12.9892 10
565 1 -7.06225 12.1377 -9.99709 16
566 1 -4.89462 8.32298 -10.1464 23
567 1 -4.94004 6.71176 -7.49576 24
568 1 -6.30049 9.59579 -7.60415 21
569 1 -6.67031 11.5403 -4.98173 23
570 1 -5.03475 8.75492 -5.06468 21
571 1 -4.97584 6.83552 -2.25604 24
572 1 -6.89679 9.56256 -2.65463 21
573 1 -4.95993 12.3719 -7.68044 24
574 1 -6.5191 15.1025 -8.68236 11
575 1 -4.87374 14.4558 -5.15479 20
576 1 -5.26933 12.646 -2.39781 22
577 1 -7.15028 14.8533 -2.22308 15
578 1 -3.24893 6.08562 -15.757 12
579 1 -1.42971 3.03843 -15.669 19
580 1 -1.69298 0.996246 -12.887 22
581 1 -2.42907 4.40067 -12.8298 20
582 1 -3.16001 5.76133 -10.0743 25
583 1 -1.85998 2.49922 -10.1267 22
584 1 -1.48801 0.827545 -7.62744 21
585 1 -3.44678 3.56249 -7.67275 22
586 1 -3.43055 5.64034 -5.1023 25
587 1 -1.69271 2.69583 -5.00458 23
588 1 -1.56397 1.11822 -1.99926 24
589 1 -3.21748 4.09757 -2.35425 23
590 1 -0.101212 8.30425 -15.1437 15
591 1 -1.32857 6.94023 -12.8037 21
592 1 -3.18802 9.40815 -13.0544 17
593 1 -3.34878 11.0682 -10.2664 21
594 1 -1.5451 8.45528 -10.3298 23
595 1 -1.5058 6.85273 -7.62445 21
596 1 -3.13435 9.6779 -7.77256 22
597 1 -3.40631 11.4556 -5.22519 22
598 1 -1.80197 8.55605 -4.88643 22
599 1 -1.39824 6.87268 -2.57941 20
600 1 -3.58749 9.5519 -2.22501 25
601 1 -2.0451 13.0467 -11.9752 11
602 1 -4.55842 14.5148 -10.5808 10
603 1 -1.64051 12.7334 -7.84006 18
604 1 -2.92075 15.4455 -7.69196 13
605 1 -1.38694 18.2966 -1.99513 10
606 1 -1.67142 14.5567 -5.15532 19
607 1 -1.98906 12.4113 -2.45511 23
608 1 -3.51567 15.4389 -2.45094 18
609 2 -15.0132 1.47166 -6.37273 17
610 2 -16.1363 4.46917 -5.99242 13
611 2 -15.0695 1.43133 -10.1087 14
612 2 -15.0535 0.947896 -0.833872 20
613 2 -16.5853 3.32322 -0.850216 16
614 2 -16.6188 5.16979 -3.33686 15
615 2 -15.1533 2.44916 -3.34042 20
616 2 -15.8912 6.92327 -6.01264 12
617 2 -15.5187 6.40113 -0.581409 19
618 2 -15.1603 8.43173 -3.10246 15
619 2 -11.7781 1.07388 -10.7873 20
620 2 -13.0919 4.07403 -10.9155 15
621 2 -11.5712 3.16409 -13.8174 10
622 2 -11.6891 1.12028 -6.02511 22
623 2 -13.3896 3.67246 -5.86145 20
624 2 -14.9383 4.65016 -8.99597 13
625 2 -11.6142 2.75856 -8.50844 21
626 2 -11.704 1.24433 -0.331288 22
627 2 -13.5328 3.96019 -0.569994 24
628 2 -13.7415 5.59492 -3.14557 23
629 2 -11.9288 3.02621 -2.76403 19
630 2 -12.5107 7.12808 -9.16569 10
631 2 -11.9739 6.59071 -5.86921 21
632 2 -13.6986 9.4194 -5.52478 15
633 2 -11.3682 9.3432 -7.85259 17
634 2 -12.1041 6.50719 -0.219353 21
635 2 -13.5706 9.52566 -0.483962 19
636 2 -13.3559 11.1005 -3.37798 15
637 2 -11.9208 8.12399 -3.00189 22
638 2 -11.7772 11.9977 -6.03103 13
639 2 -11.9033 11.8485 -0.60414 15
640 2 -8.23815 1.00482 -10.266 23
641 2 -9.80123 3.98566 -10.3564 23
642 2 -10.4047 5.92292 -12.6169 14
643 2 -8.90346 2.5064 -13.32 17
644 2 -8.28221 1.19575 -5.53694 21
645 2 -10.2952 3.84893 -5.3924 21
646 2 -9.95934 5.91269 -8.29961 22
647 2 -8.27322 3.15485 -7.90424 19
648 2 -8.33107 0.885686 -0.120552 21
649 2 -10.1028 3.70419 -0.665774 24
650 2 -10.1946 5.65893 -3.13287 24
651 2 -8.33352 3.06602 -2.94661 24
652 2 -7.75422 7.09505 -10.7268 20
653 2 -10.4429 7.98397 -10.6345 15
654 2 -7.64682 8.40285 -13.7501 11
655 2 -8.52919 6.65754 -5.81613 23
656 2 -9.99835 9.20383 -5.59762 21
657 2 -9.5075 11.3479 -7.56633 16
658 2 -7.87929 9.19506 -8.55961 20
659 2 -8.25445 6.47668 -0.450789 21
660 2 -10.0122 9.41688 -0.243007 23
661 2 -10.1687 10.9954 -3.0222 20
662 2 -8.53381 8.45975 -2.9417 21
663 2 -8.36149 12.8282 -5.12177 15
664 2 -8.62631 12.4437 -0.288313 17
665 2 -8.23291 14.9811 -3.66942 11
666 2 -5.022 1.35282 -11.0687 24
667 2 -6.49547 3.90116 -11.1742 23
668 2 -5.28656 6.69877 -14.6515 13
669 2 -5.68958 2.81044 -13.9349 16
670 2 -4.88426 0.95891 -5.47908 22
671 2 -6.812 4.15912 -5.39828 22
672 2 -6.1446 5.55722 -8.49962 21
673 2 -5.30044 2.73383 -8.28747 24
674 2 -4.9969 1.09001 -0.421704 24
675 2 -6.7317 3.66071 -0.136986 20
676 2 -6.57448 5.77828 -2.67488 22
677 2 -4.99309 3.22668 -2.92388 22
678 2 -4.64152 6.54738 -10.9313 21
679 2 -7.77732 10.7925 -11.2853 11
680 2 -5.18773 9.43949 -12.7268 13
681 2 -5.09207 6.81479 -5.48576 22
682 2 -6.48498 9.83748 -5.64813 25
683 2 -6.44768 11.3984 -8.46749 21
684 2 -5.1291 8.44209 -8.34113 22
685 2 -4.96041 6.68919 -0.160238 22
686 2 -6.68569 9.31183 -0.592259 23
687 2 -6.89458 11.5636 -2.66127 19
688 2 -5.1793 8.58072 -3.03303 22
689 2 -6.49283 13.8948 -10.2437 10
690 2 -5.04451 12.4538 -5.38038 22
691 2 -7.17817 14.2063 -7.20432 14
692 2 -4.5487 14.3749 -8.30979 15
693 2 -4.89907 12.4085 -0.498322 23
694 2 -7.10728 14.9409 -0.379934 15
695 2 -5.12174 14.7604 -3.19873 20
696 2 -1.69089 0.626263 -10.6947 20
697 2 -3.1756 3.83844 -10.9815 23
698 2 -2.81265 6.00397 -13.8796 19
699 2 -1.2827 2.68216 -13.771 22
700 2 -1.7167 0.701343 -5.69066 24
701 2 -3.60452 3.85679 -5.66603 21
702 2 -2.95446 5.75756 -8.12899 25
703 2 -2.08211 2.66833 -8.05088 21
704 2 -1.84875 0.927545 -0.117329 24
705 2 -3.19967 4.00927 -0.385718 24
706 2 -3.23286 5.97794 -2.92007 20
707 2 -1.59291 2.87239 -3.02856 23
708 2 -1.58082 6.52861 -10.861 23
709 2 -3.26123 9.20364 -10.7024 19
710 2 -2.24706 11.0093 -12.3417 13
711 2 -1.36522 8.6383 -13.5748 18
712 2 -1.31285 7.08451 -5.69964 21
713 2 -3.47939 9.32161 -5.91865 24
714 2 -3.30951 11.7053 -8.44526 21
715 2 -1.64265 8.58066 -8.34213 22
716 2 -1.50968 6.85071 -5.08453e-04 22
717 2 -3.26953 9.85634 -0.302339 22
718 2 -3.71051 11.5277 -2.96825 23
719 2 -1.92755 8.64022 -2.88406 23
720 2 -3.64192 12.9658 -10.9389 12
721 2 -1.7327 12.1539 -5.75832 21
722 2 -3.27793 14.9834 -5.93273 15
723 2 -1.27326 14.6495 -7.36497 11
724 2 -1.74225 12.5322 -0.413441 22
725 2 -3.54657 15.223 -0.576923 22
726 2 -2.91782 17.3378 -1.86688 12
727 2 -1.89512 14.3304 -3.0518 21
728 1 -16.8039 5.18415 0.146472 14
729 1 -15.013 2.77414 0.063073 22
730 1 -15.1895 1.03824 2.76105 20
731 1 -16.9672 3.59317 2.76484 13
732 1 -15.0573 3.16877 5.36324 16
733 1 -15.3538 0.706195 7.75584 15
734 1 -15.6021 8.51279 0.230263 14
735 1 -15.3246 6.70894 3.06357 17
736 1 -15.4471 8.57962 5.70031 7
737 1 -13.8253 5.76905 0.33672 23
738 1 -11.821 3.14579 0.0793367 21
739 1 -11.2802 1.14425 2.71627 23
740 1 -13.5688 3.92981 2.80161 24
741 1 -13.5128 5.94823 5.64007 19
742 1 -11.5438 3.14469 5.56714 26
743 1 -11.8166 1.17351 7.85648 19
744 1 -13.6586 3.74543 8.28187 16
745 1 -13.3986 6.41177 10.9279 9
746 1 -11.6904 3.40056 10.7551 19
747 1 -11.9473 0.838327 12.2344 12
748 1 -13.6616 11.4261 0.235321 13
749 1 -11.8628 8.65624 0.0258344 21
750 1 -11.7917 6.82639 2.94939 24
751 1 -13.3442 9.53945 2.88174 17
752 1 -11.8688 8.8257 5.68033 17
753 1 -11.5877 6.23757 7.95159 20
754 1 -11.1044 8.30621 9.53801 14
755 1 -11.6704 12.5315 2.8233 14
756 1 -10.4386 5.49837 0.16755 23
757 1 -8.55733 3.03279 0.375823 22
758 1 -8.35269 1.06648 3.00192 23
759 1 -9.93873 3.64096 3.13888 22
760 1 -9.91825 5.94553 5.46678 24
761 1 -8.45816 2.99086 5.69853 23
762 1 -8.18193 1.10335 8.29846 22
763 1 -10.0944 3.95167 8.25642 21
764 1 -9.76521 6.1297 10.8799 21
765 1 -8.27698 3.19002 10.7925 24
766 1 -8.58752 1.09075 13.1067 19
767 1 -10.0219 3.99199 13.2578 11
768 1 -10.0643 11.2806 0.219567 23
769 1 -8.37427 8.43929 0.25809 24
770 1 -8.28664 6.4899 2.87571 23
771 1 -9.76645 9.29926 2.9214 23
772 1 -10.0304 12.1221 6.06628 13
773 1 -8.27376 8.64637 5.33783 23
774 1 -8.08698 6.94148 8.15302 24
775 1 -9.8391 9.77995 7.41629 16
776 1 -7.9548 9.38961 10.3672 20
777 1 -8.33763 7.29178 13.0312 10
778 1 -8.61316 14.2438 0.621618 14
779 1 -8.57072 12.1321 2.71938 21
780 1 -8.77649 14.2225 4.51388 11
781 1 -9.79467 11.6977 9.6914 9
782 1 -6.57036 5.75214 0.186116 23
783 1 -4.81858 3.05729 0.307489 23
784 1 -5.0682 0.978393 2.96376 23
785 1 -6.63565 3.78969 2.93559 24
786 1 -6.79395 5.67003 5.35825 23
787 1 -4.99265 2.86391 5.65064 23
788 1 -4.93001 1.18432 8.62856 24
789 1 -6.58415 3.96945 8.31719 24
790 1 -6.5256 6.01512 10.9247 23
791 1 -5.0738 2.97002 11.2564 23
792 1 -5.16944 0.99982 13.7059 23
793 1 -6.75543 3.62355 13.5758 19
794 1 -6.9455 11.337 -0.143514 21
795 1 -4.87096 8.56973 0.25367 23
796 1 -5.09534 6.79507 2.73479 22
797 1 -6.59638 9.74747 2.68059 21
798 1 -6.39501 11.4652 5.27242 20
799 1 -5.08379 8.51569 5.17823 21
800 1 -4.86035 6.56041 8.04899 23
801 1 -6.32031 9.20455 8.00387 22
802 1 -6.68496 11.9677 9.10134 16
803 1 -4.93962 8.75832 11.1432 19
804 1 -5.12377 6.68487 13.7171 18
805 1 -6.67311 10.6799 12.6084 10
806 1 -5.19844 14.5147 0.234894 18
807 1 -4.65278 12.7061 3.24432 25
808 1 -6.91127 15.3816 2.87942 13
809 1 -5.38542 15.3784 5.67622 12
810 1 -4.87125 12.8999 7.1863 18
811 1 -3.1026 5.81817 0.249984 21
812 1 -1.83324 3.06236 0.579694 23
813 1 -1.72417 0.935671 3.20717 24
814 1 -3.45039 4.04915 2.94006 22
815 1 -3.25208 5.72903 5.52961 22
816 1 -1.67639 2.98898 6.02412 24
817 1 -1.7251 1.07509 8.56262 22
818 1 -3.30895 3.94403 8.2207 23
819 1 -3.47002 5.63225 11.0768 23
820 1 -1.68017 3.03931 10.6988 21
821 1 -1.47581 0.842315 13.3686 19
822 1 -3.37562 3.46832 13.692 21
823 1 -3.37277 11.8068 0.344572 23
824 1 -1.42682 8.70962 0.310621 23
825 1 -1.78519 6.83815 2.88461 24
826 1 -3.43421 9.93097 2.75295 23
827 1 -3.30779 11.4906 5.51318 22
828 1 -1.84505 8.66484 5.51288 23
829 1 -1.57346 6.51043 8.82581 27
830 1 -3.38264 9.47768 8.25831 25
831 1 -3.74613 11.4303 10.4902 16
832 1 -1.48224 8.61111 11.2046 19
833 1 -1.41477 6.12466 13.4328 21
834 1 -3.45587 9.38003 14.1073 14
835 1 -4.01379 17.2146 -0.405202 12
836 1 -1.76914 14.3154 0.242882 24
837 1 -1.38702 12.5295 2.90064 22
838 1 -3.43991 15.4004 2.88091 20
839 1 -2.48524 14.0266 6.27437 21
840 1 -1.76152 12.4246 8.73491 22
841 1 -4.0308 14.9533 9.1234 12
842 1 -1.67898 12.4232 14.1167 7
843 2 -14.7567 1.21952 4.76433 21
844 2 -16.7453 2.70776 4.39643 12
845 2 -16.6221 5.62045 2.10856 14
846 2 -15.2584 2.8754 2.1352 22
847 2 -15.9145 0.0386736 9.2857 7
848 2 -14.9514 2.59412 7.26382 16
849 2 -15.1186 6.64401 5.02469 14
850 2 -14.954 8.61869 2.10142 16
851 2 -11.3692 1.19516 4.70944 23
852 2 -13.2196 3.90933 4.83615 23
853 2 -13.7416 5.96134 2.35897 21
854 2 -11.835 3.06971 2.19754 24