ITEM: TIMESTEP
28000
ITEM: NUMBER OF ATOMS
500
ITEM: BOX BOUNDS pp pp pp
-30.0 30.0
-30.0 30.0
-30.0 30.0
ITEM: ATOMS id type x y z Coordination
1 1 6.55131 -3.37664 14.03 6
2 1 2.08717 0.41587 11.8169 16
3 1 -3.60497 -5.87084 -4.68964 19
4 1 -8.73791 -0.0903947 0.763569 11
5 1 1.81328 -3.14315 -5.85147 17
6 1 7.36551 -8.90136 -0.579953 15
7 1 5.49146 -4.40713 10.184 20
8 1 5.10989 1.27039 10.4423 16
9 1 -8.9758 -5.20077 5.44946 11
10 1 8.97364 -4.38385 2.20885 19
11 1 8.23333 -0.44324 8.51035 17
12 1 -5.12765 -10.0757 6.3984 19
13 1 1.48106 -6.61234 -6.77004 11
14 1 11.6007 -5.15736 -0.609326 11
15 1 6.90155 -11.4905 5.32937 13
16 1 -3.4567 6.25554 8.30055 11
17 1 -0.770477 6.52823 3.26346 16
18 1 -0.882993 -5.25182 -6.19584 18
19 1 -0.335635 1.54712 10.3023 16
20 1 -2.54383 3.38827 6.47397 20
21 1 2.72882 0.137604 -5.4169 16
22 1 -2.01441 5.82249 -2.42469 13
23 1 -6.36866 2.10049 -4.40238 12
24 1 -2.62454 8.79239 2.06115 9
25 1 -7.74261 2.70934 2.39102 10
26 1 2.47266 3.07506 9.77886 18
27 1 -4.44785 -0.249722 -6.94159 9
28 1 -4.99154 -10.0309 9.49697 13
29 1 2.61207 -10.9211 1.55687 19
30 1 -7.88925 -2.86847 -0.239164 17
31 1 0.769153 -12.9559 5.08257 15
32 1 6.74683 0.894057 -2.3272 15
33 1 -8.30731 -6.05607 -1.07671 13
34 1 2.1283 2.91105 -6.5552 12
35 1 0.51328 6.98536 -0.150985 11
36 1 -8.03479 -5.62566 8.66264 11
37 1 2.56327 5.93022 8.20729 14
38 1 2.59279 -2.83852 13.7611 10
39 1 5.22531 -11.4564 0.111121 14
40 1 9.9103 -4.65499 -3.76094 10
41 1 6.14244 -7.02932 11.8805 10
42 1 2.59744 -8.68556 10.1916 13
43 1 5.20838 4.16017 1.76142 18
44 1 -7.51805 -11.5633 6.77521 8
45 1 -1.88362 -14.0408 3.02233 13
46 1 -2.44754 -5.06573 12.1839 18
47 1 -7.10878 -2.22892 6.72488 17
48 1 6.04323 -9.37741 1.80016 17
49 1 -5.67802 -7.09674 8.8376 20
50 1 -4.79574 5.54038 2.89833 15
51 1 -2.32531 3.04084 3.54867 20
52 1 -3.30114 3.36567 10.0058 13
53 1 -5.73341 -8.01388 -0.95423 20
54 1 -1.83671 -8.15014 -6.92226 10
55 1 7.35062 -0.715434 11.5793 13
56 1 -0.558761 -7.54285 11.9466 13
57 1 -5.927 -3.99512 -5.83459 12
58 1 -7.935 -5.70864 1.8783 14
59 1 -3.51018 -12.013 -1.43815 13
60 1 -5.92496 4.0145 8.33894 11
61 1 2.33631 -13.725 -0.874124 8
62 1 -0.397983 4.54297 9.11672 14
63 1 -7.95082 -3.24528 -3.5149 12
64 1 -6.1434 5.92434 6.15695 10
65 1 -0.540381 -8.01133 -4.42405 16
66 1 8.03361 -9.66799 10.0856 8
67 1 -7.01591 1.79209 -0.843961 12
68 1 -4.15878 -2.58918 12.4427 13
69 1 -4.6892 -1.11878 9.85082 15
70 1 2.21666 6.16513 -5.60726 7
71 1 0.319112 -10.2672 9.80601 14
72 1 2.63085 -10.8141 -1.3358 16
73 1 7.28369 -4.37956 -5.36623 10
74 1 7.93787 -6.28835 8.80476 18
75 1 -5.68208 -11.2933 0.834268 13
76 1 -5.56015 -4.69491 10.7947 17
77 1 8.25429 -3.78286 11.166 11
78 1 8.1401 1.02975 2.13796 18
79 1 0.547387 -0.0568591 -7.80883 11
80 1 -0.188135 4.27642 -4.57102 13
81 1 2.85053 6.05787 1.58046 14
82 1 5.04305 -2.15512 -4.70984 15
83 1 4.27022 -13.715 6.14932 9
84 1 8.12749 -8.75682 4.2844 17
85 1 0.491768 -13.1656 2.06887 17
86 1 -8.17602 -0.175833 -2.80229 11
87 1 12.0248 -4.08775 2.83453 12
88 1 -3.67865 4.62263 -4.21429 10
89 1 5.16732 -9.52879 -3.00037 13
90 1 -4.4019 -7.55042 11.9257 12
91 1 -1.05266 -13.8423 -0.490212 12
92 1 4.48911 -6.53866 -5.19405 13
93 1 6.31463 -9.46715 7.53914 19
94 1 -3.01848 -8.982 -3.51381 16
95 1 0.701767 -5.1051 13.5941 12
96 1 0.245098 -1.82421 12.1686 19
97 1 4.96866 -4.55429 -3.0316 23
98 1 5.07234 3.29196 -1.66662 18
99 1 10.6086 -2.58072 -1.65217 12
100 1 -2.21051 -0.0369932 -9.66823 5
101 1 -7.68946 0.221958 8.62894 10
102 1 3.20593 -5.56624 11.3677 18
103 1 -5.51598 -1.13428 -4.3619 17
104 1 9.03628 -8.71807 6.89743 11
105 1 8.11842 2.07432 9.56093 13
106 1 3.6378 -11.1763 8.24868 15
107 1 8.17845 -0.0525308 5.50398 19
108 1 8.14737 5.15166 9.49138 6
109 1 5.45917 4.06053 8.83179 16
110 1 -2.25951 2.00482 -1.76471 18
111 1 -6.12213 -10.0379 3.39236 12
112 1 -8.0365 2.54564 5.88307 12
113 1 8.16122 2.8996 -0.163788 15
114 1 4.40252 -1.49872 12.2204 15
115 1 -0.695593 -2.5039 -8.10748 12
116 1 5.62242 6.82999 3.54564 11
117 1 7.53529 -7.36638 -3.55982 12
118 1 6.38651 -12.8329 8.8252 8
119 1 -2.43242 0.149235 12.0907 14
120 1 7.43251 -2.79857 7.20952 23
121 1 0.0880897 3.88401 -1.55982 22
122 1 9.751 0.690853 -0.901992 11
123 1 -1.5532 -2.62898 14.3692 9
124 1 -2.57283 -8.43909 10.1758 19
125 1 -3.14493 7.30385 5.1241 12
126 1 6.09812 4.11867 5.29449 18
127 1 -9.25437 -8.60791 5.65736 8
128 1 7.49897 -5.77657 5.71384 21
129 1 -2.15313 -11.5319 5.25002 17
130 1 8.61272 2.83104 6.48353 13
131 1 8.97238 -10.5636 2.36491 9
132 1 2.90213 6.29366 4.82838 16
133 1 -6.01303 -10.5294 -2.21264 10
134 1 2.5239 3.33667 -3.40533 19
135 1 -5.9439 -5.35266 -2.60796 15
136 1 1.47918 -5.65773 -3.87607 20
137 1 -0.656257 -11.3349 -2.63928 12
138 1 10.4024 -7.18013 1.97519 14
139 1 -8.17544 -2.64892 3.32908 15
140 1 -3.3134 1.01081 -4.60395 15
141 1 -5.21272 -12.6366 4.08252 13
142 1 9.55836 -3.99497 7.94951 13
143 1 -3.2845 -4.84497 -7.97981 11
144 1 -3.9878 7.57966 -0.352279 10
145 1 -7.3598 -2.98658 10.32 12
146 1 7.87377 4.38428 3.23451 12
147 1 10.3242 -2.72359 5.29093 17
148 1 -2.4546 -11.3026 8.05091 13
149 1 7.7177 -2.09676 -3.05578 18
150 1 4.90901 1.42024 -4.48979 12
151 1 5.49061 6.9208 6.97671 10
152 1 3.17603 5.7993 -1.99651 11
153 1 9.91565 -1.02322 2.54406 14
154 1 8.82471 -5.84791 -0.831599 17
155 1 -0.223527 6.7731 6.6503 15
156 1 -4.49842 2.84291 1.30305 19
157 1 -7.63698 -9.47245 8.78951 11
158 1 10.2483 -5.93869 4.95731 15
159 1 -8.20981 -9.18222 0.303891 10
160 1 -4.79608 4.20069 -1.80854 16
161 2 -7.21479 -5.02356 10.1362 11
162 2 8.19467 3.72889 4.97733 15
163 2 -5.21884 2.63979 -0.493744 16
164 2 -3.00629 -10.2409 9.5814 15
165 2 5.65106 -0.443546 11.2495 17
166 2 -4.44145 2.76347 8.45722 14
167 2 7.34137 -7.09455 -1.60386 17
168 2 -2.46854 -1.09803 -4.5711 18
169 2 0.876529 -4.86432 -5.65045 18
170 2 -2.55235 4.75027 9.03283 13
171 2 7.79763 -4.74987 7.27334 18
172 2 5.30437 3.19958 3.67819 22
173 2 0.738883 5.74085 8.28174 14
174 2 5.869 6.2323 5.3029 13
175 2 3.30767 2.4504 -5.00558 17
176 2 8.47341 -3.24172 -4.13942 11
177 2 -7.34315 -1.44658 -3.85292 14
178 2 2.36274 -10.387 9.42257 14
179 2 -7.65931 -1.59191 4.82718 15
180 2 5.60759 -7.84105 -4.02611 13
181 2 -1.41765 -13.2508 1.4043 13
182 2 6.33495 2.69205 9.73991 17
183 2 6.98453 -5.20723 11.4849 12
184 2 -6.34986 -10.6576 8.07929 13
185 2 2.66936 -13.4925 4.90468 10
186 2 -8.49182 -9.83859 6.77955 9
187 2 -0.291515 -14.1879 3.8857 13
188 2 -5.32739 -11.7699 -1.08275 10
189 2 -2.02242 7.96665 3.85638 10
190 2 8.46393 1.60018 -1.57685 13
191 2 4.81685 -0.344432 -4.8304 14
192 2 0.282524 6.23498 4.83153 16
193 2 -5.07876 5.71253 7.69806 12
194 2 -1.42188 7.10444 1.47059 14
195 2 2.59142 5.62982 -3.76966 11
196 2 0.654448 2.89295 9.12511 18
197 2 2.4707 -4.69684 13.1818 13
198 2 5.34878 -4.67569 -4.97415 15
199 2 3.45501 -12.2841 -0.352579 13
200 2 -4.78604 -8.6817 3.8523 17
201 2 7.69194 -5.28605 1.07783 21
202 2 6.43467 5.42574 2.37131 13
203 2 -0.617844 -0.917026 -9.17896 7
204 2 0.156653 -1.75792 -6.66605 15
205 2 -0.239324 -7.26917 -6.54649 11
206 2 2.75338 -6.73769 -5.26061 14
207 2 10.2576 -4.52105 -1.98288 12
208 2 -1.86743 -3.6948 -7.48988 14
209 2 0.909267 -11.3218 -1.65683 15
210 2 0.375615 3.2629 -3.21209 20
211 2 -6.29054 -11.1809 5.16688 13
212 2 -7.20048 4.15684 6.6629 10
213 2 -7.56764 -7.53222 8.91507 15
214 2 -7.6064 -1.7107 1.49546 14
215 2 7.31828 -9.37947 5.95167 14
216 2 3.43059 7.01236 6.85579 14
217 2 0.0341334 -3.2351 13.8005 12
218 2 -5.8675 0.334732 8.95793 15
219 2 -7.14546 -3.84589 -1.70436 16
220 2 8.90947 0.100275 3.70228 16
221 2 -6.92686 -9.99506 1.75169 12
222 2 -4.71933 -1.67565 -2.59224 19
223 2 3.20451 -2.46468 -4.74807 17
224 2 -5.80993 3.35135 2.70874 15
225 2 5.76242 -10.1968 -1.29251 15
226 2 0.924846 -14.0778 0.286729 11
227 2 -5.17429 6.33329 4.63149 10
228 2 5.20958 -12.1946 5.27815 12
229 2 6.383 5.79181 8.43713 11
230 2 -3.22765 9.14826 0.07794 5
231 2 -2.43554 -7.87529 11.9623 11
232 2 1.82312 1.08135 -7.14461 9
233 2 2.27797 -1.62201 12.0097 18
234 2 8.50741 3.00584 1.78053 14
235 2 5.03335 3.35783 6.60596 21
236 2 -4.80307 -8.0805 7.23564 20
237 2 3.26641 1.27589 10.6639 17
238 2 4.62826 -2.72483 13.597 12
239 2 1.10697 -0.140904 -4.4632 21
240 2 2.56797 -1.63806 8.6631 22
241 2 8.4716 -8.23503 8.66388 12
242 2 -8.75877 -4.60806 0.682924 12
243 2 -2.76621 3.76127 -2.3629 17
244 2 -5.23295 3.49801 -4.04982 11
245 2 -0.559888 -10.9469 8.23575 16
246 2 3.76455 6.52883 3.05659 14
247 2 -6.65842 -4.74875 -4.32 13
248 2 10.8651 -2.64843 3.38514 14
249 2 -3.8635 5.96288 -1.701 12
250 2 10.6426 -4.45616 6.18907 14
251 2 -4.67624 -8.14986 10.1161 16
252 2 -2.64949 -7.55214 -5.05441 15
253 2 -0.898477 5.63208 -0.84184 17
254 2 -7.83045 1.99105 4.03453 11
255 2 0.441692 -8.70902 10.8579 13
256 2 -8.2557 1.03778 6.95065 11
257 2 0.325741 0.140877 11.191 18
258 2 -7.28713 1.46365 -2.76305 12
259 2 2.24842 6.36792 -0.371872 13
260 2 -2.67987 1.77256 10.9135 14
261 2 -4.43245 -5.13086 -6.35517 12
262 2 -2.92505 -10.7485 0.0661327 18
263 2 8.90208 -2.28318 8.33795 15
264 2 9.22273 -0.117097 0.840789 15
265 2 4.66941 -12.6496 8.04417 11
266 2 -1.31655 -0.78989 13.5271 11
267 2 -6.9518 -9.35918 -1.19123 11
268 2 -7.75987 -1.59524 8.87229 10
269 2 -7.65181 -4.66659 6.98086 17
270 2 -1.76251 -12.8516 -1.91756 12
271 2 -3.32742 0.784061 -2.68179 16
272 2 5.71559 2.30774 -2.9377 14
273 2 3.48235 -10.0616 -2.81688 12
274 2 7.3193 -2.59917 12.4955 11
275 2 8.43394 0.380109 10.422 11
276 2 1.31932 4.46481 -5.67617 9
277 2 -2.39693 -6.56277 -7.67419 10
278 2 -2.32139 6.79008 6.94992 13
279 2 -1.83315 5.15166 -4.21562 11
280 2 -5.12108 0.997453 -5.27606 12
281 2 -3.10624 -1.41014 11.2652 17
282 2 8.1456 -5.81784 -4.204 12
283 2 -7.90807 1.58793 0.908343 12
284 2 -3.29574 0.0236697 -8.19603 10
285 2 7.01715 -8.43376 11.0317 9
286 2 -5.59904 -2.76516 11.0226 14
287 2 -4.70012 -5.38339 8.57993 23
288 2 6.97848 -10.9228 8.751 11
289 2 -7.89179 -4.47381 3.86391 15
290 2 -2.63941 -3.49746 13.1054 15
291 2 -3.22204 -10.4588 6.54003 20
292 2 8.34992 -2.22137 5.42128 21
293 2 4.55066 -10.4273 1.66905 17
294 2 -3.99185 6.53496 1.4399 15
295 2 -4.90574 -2.40756 -6.08033 15
296 2 -4.48656 -5.51782 12.1203 14
297 2 4.15837 -7.26639 10.8616 15
298 2 5.76591 -2.221 -3.05246 19
299 2 8.79546 3.65827 8.36487 9
300 2 9.03994 -4.90793 9.78291 11
301 2 10.3988 -6.34748 0.27706 11
302 2 9.39585 -8.58341 2.75605 14
303 2 8.6387 -2.66311 -1.53831 17
304 2 -8.25982 -7.36312 0.825059 10
305 2 8.98471 -7.25027 5.77451 17
306 2 3.26415 3.91085 -1.60312 19
307 2 11.9374 -3.95517 0.716777 10
308 2 6.14427 3.1542 0.109469 18
309 2 10.7406 -5.6476 2.94842 14
310 2 7.98823 -11.093 3.82935 9
311 2 -1.11925 -9.65383 -3.60845 16
312 2 0.7575 5.7824 1.88058 18
313 2 3.44842 4.28427 8.68798 17
314 2 -3.33887 -13.1374 4.27432 11
315 2 -0.146787 -5.84401 12.0565 15
316 2 8.08927 1.01581 7.17905 17
317 2 10.6481 -0.77796 -1.38662 8
318 2 -8.71371 -1.1429 -1.05092 11
319 2 -5.01183 -11.7736 2.47207 14
320 2 7.81533 -10.242 0.873963 11
321 1 -5.18439 -4.77088 0.85346 23
322 1 -4.93612 -7.35425 2.27139 18
323 1 0.309253 -10.0803 -0.0625554 20
324 1 -2.2034 -11.4662 1.70742 20
325 1 -1.03742 -4.00247 -2.85335 22
326 1 -2.81098 -6.02145 -1.49949 22
327 1 -0.320103 -7.3569 -1.45614 19
328 1 -2.88409 -8.65203 0.0110109 17
329 1 0.298785 -4.74298 0.245286 21
330 1 -2.21914 -6.0114 1.86004 21
331 1 0.614331 -7.44579 1.69493 21
332 2 -6.31387 -6.38607 -1.05612 19
333 2 -3.92346 -10.4764 -2.75337 13
334 2 -6.02419 -5.77984 2.22603 17
335 2 0.711558 -11.2753 1.9991 23
336 2 -2.39328 -4.3312 -4.50529 21
337 2 -4.14091 -5.02382 -2.80821 21
338 2 0.813178 -7.37668 -3.16401 17
339 2 -3.86815 -7.69915 -1.63533 19
340 2 -0.782348 -5.48025 -1.38514 23
341 2 -3.33337 -5.11489 0.501633 21
342 2 -0.857756 -8.85345 -0.25453 20
343 2 -3.05445 -7.88105 1.79815 20
344 2 -0.104609 -5.65306 1.8324 22
345 1 -5.90112 -4.57627 3.94059 21
346 1 -5.47862 -7.55062 5.50134 21
347 1 -5.72142 -4.82179 6.89038 20
348 1 0.21869 -10.2388 3.61847 20
349 1 0.733589 -10.3772 6.8265 20
350 1 -2.73327 -8.90509 3.62073 19
351 1 -0.50411 -4.76676 3.52987 21
352 1 -2.84101 -5.34964 5.61661 21
353 1 -0.340487 -7.52898 5.03006 24
354 1 -2.82167 -8.4886 7.09377 23
355 1 -0.563887 -4.43497 6.90098 26
356 1 -2.84179 -5.333 8.64576 23
357 1 0.153339 -7.39272 8.49761 23
358 1 0.0733648 -4.66385 10.3445 20
359 2 -8.57661 -6.93191 5.2167 12
360 2 -4.91471 -5.90047 5.42573 21
361 2 -2.05401 -10.7088 3.44623 21
362 2 -0.208942 -11.2719 5.41043 20
363 2 -2.30381 -4.87792 3.62992 21
364 2 0.391826 -8.33197 3.41556 25
365 2 -2.31019 -7.44706 5.53849 23
366 2 0.316432 -5.48767 5.36837 22
367 2 -2.73071 -4.20976 7.04139 19
368 2 0.578519 -8.23986 6.46664 21
369 2 -1.69963 -7.86338 8.51731 22
370 2 -0.0099208 -5.4685 8.39483 21
371 2 -2.44128 -4.60491 10.2184 22
372 1 -4.87217 -3.32166 -1.76697 19
373 1 -4.33857 0.659308 -0.585492 16
374 1 -5.5223 -1.84251 1.55363 17
375 1 -0.398425 -1.35233 -4.88906 21
376 1 -2.8474 -2.70343 -5.68898 21
377 1 0.766277 1.19998 -3.09804 19
378 1 -2.79247 -1.16947 -2.57163 19
379 1 0.0559751 -1.63316 -1.44321 20
380 1 -2.54805 -2.96772 0.24981 23
381 1 -0.504282 1.27539 0.592297 21
382 1 -3.22976 -0.0972949 2.18867 19
383 1 -0.353897 -1.69063 1.98075 21
384 1 -2.17757 5.3342 0.806118 20
385 1 0.304995 4.08468 1.72577 21
386 2 -4.617 -2.69789 0.0794448 18
387 2 -4.96051 -0.0169962 1.28617 18
388 2 0.264126 -2.59378 -3.27129 21
389 2 -1.84353 -2.63166 -1.67385 20
390 2 -0.161224 0.326908 -1.21535 21
391 2 -2.63345 1.21693 0.199744 17
392 2 0.206411 -2.6111 0.296171 21
393 2 -2.43431 -1.75993 2.10637 22
394 2 0.53811 -0.079313 1.97782 22
395 2 0.377128 2.91412 0.0948265 23
396 2 -2.96056 3.91632 1.91585 18
397 1 -7.63723 0.330669 5.24204 12
398 1 -5.09158 -1.47456 4.73748 19
399 1 -4.83185 1.03169 7.4657 19
400 1 -2.92305 -3.07548 3.4457 22
401 1 0.327927 1.44313 3.75012 19
402 1 -2.37356 0.479821 5.29212 20
403 1 -0.55087 -1.77622 5.42922 25
404 1 -3.34721 -2.37204 7.00469 20
405 1 0.303619 1.69831 7.19589 21
406 1 -1.97172 0.12431 8.49906 25
407 1 0.41163 -1.57971 8.71091 22
408 1 -1.91339 -2.7508 9.8973 22
409 1 -5.20135 2.16905 4.34352 20
410 1 0.636221 4.26017 5.07829 17
411 2 -5.0497 -2.99275 3.21954 20
412 2 -5.63363 0.668509 5.54115 20
413 2 -5.22879 -2.78326 6.11192 18
414 2 -2.41015 1.16225 3.3904 21
415 2 0.206222 -2.76284 3.70471 23
416 2 -2.76514 -1.80484 5.19222 21
417 2 -0.14087 0.292716 5.31778 21
418 2 -2.52442 1.20377 7.12673 21
419 2 0.225417 -2.59884 6.93957 23
420 2 -3.12383 -1.42345 8.71953 21
421 2 -0.138834 0.350051 8.66985 19
422 2 0.0565192 -2.75002 10.1617 22
423 2 -0.134908 3.40934 3.51266 21
424 2 -3.69496 3.21464 4.9212 18
425 2 -0.669158 3.45863 6.17625 20
426 1 3.63412 -11.3847 4.85533 18
427 1 2.58655 -8.23458 -3.12694 18
428 1 2.91077 -5.47988 -0.950324 21
429 1 5.47547 -6.93404 -1.0601 20
430 1 3.35956 -8.06965 0.44661 23
431 1 6.11275 -4.2785 0.245698 21
432 1 3.01135 -5.44311 1.77422 21
433 1 6.48614 -6.59828 2.06223 23
434 2 2.01837 -9.39924 0.119664 20
435 2 2.78748 -4.58204 -2.72328 25
436 2 3.65876 -7.23795 -1.79102 22
437 2 4.88243 -4.89406 -1.05959 21
438 2 2.11098 -4.52727 0.359973 20
439 2 5.43598 -7.94304 0.579109 21
440 2 2.59687 -7.42978 1.98664 22
441 2 4.95504 -5.0823 1.87157 22
442 2 8.50678 -2.38751 2.14427 19
443 1 2.74973 -8.50188 3.50375 22
444 1 4.80473 -4.67736 3.66231 23
445 1 2.28622 -5.59243 4.96888 22
446 1 5.11956 -7.72493 5.37123 19
447 1 2.58139 -8.52248 6.75459 21
448 1 4.97026 -4.59372 6.9713 20
449 1 1.86305 -5.50527 8.22654 23
450 1 4.45598 -7.12854 8.61216 20
451 2 2.50104 -10.4268 3.4957 20
452 2 2.70623 -10.3912 6.45903 21
453 2 2.89921 -4.67899 3.45564 20
454 2 6.40453 -8.06462 3.47149 21
455 2 3.11123 -7.49158 5.08519 23
456 2 5.49722 -5.74161 5.2782 19
457 2 2.98171 -4.84786 7.01292 22
458 2 4.65509 -8.62261 7.70826 16
459 2 2.31745 -7.56239 8.55729 20
460 2 5.12818 -5.40226 8.71086 20
461 2 2.23636 -4.56745 10.1383 22
462 2 8.05577 -4.88952 4.03517 22
463 1 2.25919 -2.62416 -2.99065 23
464 1 3.0086 0.225694 -1.19745 22
465 1 4.84519 -1.68138 -1.41649 21
466 1 2.43259 -2.41968 0.472007 23
467 1 5.39215 1.21059 0.528017 22
468 1 2.28904 0.441031 1.93035 21
469 1 5.06774 -1.57245 2.10198 21
470 1 2.51118 2.80111 -0.0433612 23
471 1 7.87771 -1.7072 0.257835 22
472 2 2.43884 1.44037 -2.50437 19
473 2 2.98186 -1.58894 -1.34365 24
474 2 5.51739 0.217192 -0.999621 20
475 2 3.45705 1.01528 0.60908 23
476 2 6.02111 -2.2399 0.397645 20
477 2 2.89778 -1.67442 2.16094 23
478 2 6.33783 0.312836 2.18097 21
479 2 3.13775 3.79183 1.52625 19
480 1 2.22677 -2.63 3.67306 22
481 1 5.51275 1.11984 3.80785 21
482 1 2.12103 0.347016 5.33225 21
483 1 4.96057 -1.55706 5.48381 20
484 1 2.32895 -2.69629 7.00787 23
485 1 5.7002 1.50757 6.77397 21
486 1 2.92873 0.508069 8.76321 23
487 1 5.36626 -1.19809 8.93105 22
488 1 2.93102 -2.82389 10.1807 23
489 1 3.22573 3.25885 3.73138 22
490 1 3.14016 3.15103 6.98991 22
491 1 7.46966 -2.68247 3.77973 22
492 2 2.30404 1.61163 4.07737 19
493 2 5.59358 -2.44618 3.73725 22
494 2 2.98473 -1.51809 5.27569 21
495 2 5.97642 0.0296843 5.28102 21
496 2 2.57006 1.30765 7.00624 21
497 2 5.45203 -2.27012 7.30221 21
498 2 4.70757 -2.55406 10.1262 22
499 2 4.9888 0.553754 8.31309 20
500 2 2.46852 4.47221 5.50467 20
