ITEM: TIMESTEP
1000
ITEM: NUMBER OF ATOMS
2000
ITEM: BOX BOUNDS pp pp pp
-30.0 30.0
-30.0 30.0
-30.0 30.0
ITEM: ATOMS id type x y z Coordination
1 1 -11.664 6.06608 -12.9963 13
2 1 -5.62478 -8.78002 -9.05169 16
3 1 2.10182 13.0769 13.6112 12
4 1 5.62182 -11.5752 4.88299 13
5 1 -11.6711 10.4948 -3.70183 18
6 1 11.3925 -11.4471 -11.4892 9
7 1 -11.7207 4.27129 -6.32817 17
8 1 -2.15587 -5.85111 11.2844 15
9 1 -9.04812 -0.420736 -11.412 19
10 1 -13.2283 -8.81304 6.55337 12
11 1 13.915 1.81853 -11.8433 9
12 1 -5.07032 -12.5594 1.33737 18
13 1 -12.2706 -8.77037 3.32871 12
14 1 -0.769154 4.78484 16.837 16
15 1 -2.65093 12.4289 -5.64494 20
16 1 2.64141 -1.25193 13.9409 11
17 1 -7.53858 0.885778 -13.6955 22
18 1 -14.6834 -2.94825 12.96 7
19 1 13.0353 4.53038 8.42384 17
20 1 1.49287 8.69364 -12.0043 15
21 1 3.3653 4.38699 -14.4603 22
22 1 13.5201 1.07676 13.5481 15
23 1 -14.5295 4.42118 -9.26152 9
24 1 -11.608 10.4615 9.1222 13
25 1 3.79236 -14.1958 3.74998 16
26 1 1.44783 -13.6737 -10.2547 9
27 1 10.0838 -12.3676 1.20368 12
28 1 -9.54406 -14.5523 -5.93557 12
29 1 -13.2547 -5.77246 11.438 8
30 1 1.36789 -5.34446 -12.7723 20
31 1 9.96538 -11.1153 -13.727 10
32 1 -4.94439 4.50804 -14.6241 13
33 1 0.874086 6.17979 13.9165 18
34 1 -0.405861 -13.361 7.52292 15
35 1 3.43167 -6.36698 13.0901 9
36 1 -12.8303 1.61407 1.67846 19
37 1 -16.2457 -0.363998 6.53825 13
38 1 -5.75074 13.2139 -1.15292 18
39 1 -0.893929 -14.4648 -10.5905 9
40 1 5.47968 -6.53541 -9.71083 20
41 1 -1.90447 -4.35288 14.2325 10
42 1 -11.4219 8.2793 -1.2684 19
43 1 4.19972 12.2671 -13.8386 8
44 1 2.23115 14.011 7.23097 22
45 1 -8.63903 9.69462 -7.40662 21
46 1 -0.16304 13.2841 -0.843762 17
47 1 -0.758407 -12.3839 3.67325 19
48 1 6.69831 -6.7864 -17.0769 10
49 1 -10.4136 9.5107 12.0849 12
50 1 -12.4201 -4.19473 -9.39264 13
51 1 -9.31865 6.21088 -6.4857 18
52 1 -7.83231 -9.48615 7.53336 21
53 1 -3.24755 13.698 11.8142 13
54 1 -15.2568 6.60533 -6.80305 8
55 1 -7.04888 10.0774 13.2152 11
56 1 -3.6839 -14.4912 8.38302 16
57 1 7.00855 -14.7349 -4.5288 12
58 1 4.83717 12.1733 15.4246 10
59 1 -12.3449 1.97955 -8.84793 17
60 1 -13.8568 7.32776 -10.0667 12
61 1 5.62438 5.25294 10.9058 18
62 1 13.7732 -3.71551 -10.5331 11
63 1 6.93813 -14.1661 3.60544 11
64 1 -16.6274 -0.730475 3.38534 12
65 1 5.21653 16.1841 6.63909 14
66 1 3.85682 -3.65728 12.204 17
67 1 -6.05802 -12.582 6.8697 20
68 1 14.8285 1.74417 6.80317 16
69 1 -0.63038 12.8924 8.85421 19
70 1 -16.3808 7.01792 9.32872 8
71 1 -8.61645 9.11038 -1.42675 17
72 1 -3.92686 6.60386 -9.49626 19
73 1 8.84206 12.3105 -8.93349 16
74 1 4.38255 -10.0107 7.76455 15
75 1 -7.60848 15.9063 -4.70424 9
76 1 -9.57089 11.2936 4.33158 18
77 1 -9.12649 -3.04933 15.4607 17
78 1 -7.68068 -4.55461 13.2728 21
79 1 11.4215 -7.47068 -6.21863 18
80 1 -11.7587 3.81679 3.68916 19
81 1 -10.5951 -13.6049 4.30167 13
82 1 8.86356 -6.53804 -4.49412 20
83 1 8.12212 0.856845 -12.7667 18
84 1 -5.7397 -0.678181 -16.3956 15
85 1 -0.920143 13.2338 2.47608 18
86 1 -7.29356 7.60735 -10.2127 19
87 1 1.6468 9.69371 20.0915 7
88 1 0.349157 13.1052 -7.38031 16
89 1 -14.2523 10.1118 1.78371 19
90 1 -6.14604 -5.39289 10.2822 19
91 1 13.1165 -0.964404 11.1021 13
92 1 4.74011 -9.30018 -8.09843 20
93 1 5.38237 -0.801853 13.9711 19
94 1 -12.296 -9.31764 -2.2143 15
95 1 -8.33392 -6.81193 -4.45988 20
96 1 10.4246 -9.90639 4.37691 12
97 1 8.31573 1.21672 -15.9365 10
98 1 4.51422 15.6553 -2.73681 14
99 1 -7.60891 -12.0247 11.7405 18
100 1 -10.1862 -13.2472 10.1411 14
101 1 5.16536 -8.96571 -15.0686 14
102 1 10.8884 -9.6048 1.18615 16
103 1 -1.82866 -19.7095 5.8927 10
104 1 -9.95848 -10.2704 -1.08756 17
105 1 16.7334 5.82323 9.76479 11
106 1 14.0591 -3.28896 -7.24486 16
107 1 -16.4087 -4.40081 2.46282 12
108 1 10.228 11.127 5.92841 18
109 1 14.5983 8.9266 4.47413 14
110 1 -7.2857 3.6043 17.3247 11
111 1 -5.41704 11.1078 9.38611 18
112 1 -6.76228 13.147 -4.13598 22
113 1 -0.0740055 -6.85336 -9.7812 19
114 1 8.99171 -14.2386 -11.8431 7
115 1 0.119217 14.6669 -12.6009 11
116 1 6.28173 -4.06239 11.4461 19
117 1 -0.411208 -1.94082 -17.9559 12
118 1 13.0464 0.0854425 -7.05177 17
119 1 -10.6803 7.96719 -4.88588 18
120 1 -10.8386 15.7145 -0.441833 9
121 1 7.9077 0.950153 -9.86583 19
122 1 8.06353 -10.7696 3.08685 16
123 1 -7.73536 14.4047 6.89399 9
124 1 14.2466 8.91578 -9.79859 10
125 1 4.95832 10.2058 -3.15687 18
126 1 -3.94833 16.7383 0.683847 9
127 1 7.87978 9.71365 -1.9036 16
128 1 0.90759 15.7397 -9.97173 11
129 1 3.55747 9.65965 -15.0007 11
130 1 -13.4624 -11.416 4.32976 11
131 1 -16.4345 10.0219 -0.12867 7
132 1 -4.4419 -3.95632 -12.83 21
133 1 1.17359 -9.79316 -15.3158 13
134 1 9.9945 12.76 8.20005 14
135 1 -0.238758 16.0453 6.87329 15
136 1 -11.9831 -4.86483 -4.48336 21
137 1 -11.7528 12.9648 3.60281 13
138 1 17.799 -1.58879 -3.47746 8
139 1 -10.3413 0.127518 -14.2071 14
140 1 4.59551 1.88367 18.0365 13
141 1 3.3123 15.4319 4.0301 14
142 1 -2.79783 9.47442 8.75177 17
143 1 2.74095 -7.63769 -14.7766 16
144 1 -5.02534 14.2458 9.21333 13
145 1 -3.27256 12.7009 -2.56335 21
146 1 0.436992 -6.12801 14.8442 6
147 1 -12.1497 -5.7699 4.46035 16
148 1 -3.31604 -11.7637 -12.4338 14
149 1 -9.84433 11.4731 -9.59834 11
150 1 -4.79764 -9.88967 5.19171 22
151 1 4.19537 -12.5786 -4.53077 17
152 1 -3.90045 9.52034 -8.03114 20
153 1 -16.0587 3.6592 9.96622 11
154 1 11.3388 10.5259 -5.46174 17
155 1 -9.65378 5.33664 14.6663 14
156 1 -2.38527 -9.92309 7.67725 16
157 1 0.206173 16.5028 4.03582 11
158 1 13.6529 3.72342 14.3502 12
159 1 -8.39838 18.0238 3.4799 6
160 1 13.5857 -6.20088 -8.5897 11
161 1 -6.73432 12.862 11.8536 10
162 1 13.8371 -8.41201 3.49719 9
163 1 -13.7772 1.52041 7.7283 14
164 1 -7.65101 -10.403 4.93368 17
165 1 5.99601 7.68459 13.3155 17
166 1 -14.9422 2.19345 -1.4891 16
167 1 -3.75249 -15.2527 1.1028 19
168 1 -3.88002 12.1941 4.17042 18
169 1 4.86553 13.046 11.908 17
170 1 -7.56139 13.0951 -7.44978 17
171 1 -14.5835 -5.9896 -6.44803 9
172 1 -10.5537 -2.27662 11.896 17
173 1 2.03601 -16.8405 6.08985 10
174 1 -14.2438 10.9079 5.20131 12
175 1 15.2987 3.50277 3.56638 16
176 1 -6.11545 -6.97625 -13.6865 20
177 1 5.01485 -1.51787 10.3512 18
178 1 5.23316 -16.0238 0.841761 18
179 1 -3.84106 9.63101 -11.6696 16
180 1 3.09305 -11.7975 -14.3767 9
181 1 8.8591 -2.26443 -13.8823 11
182 1 3.20375 6.7041 -16.1357 11
183 1 -4.56306 14.2456 -6.92047 13
184 1 -9.45091 -10.0962 10.3424 20
185 1 7.75453 14.8758 -0.0292699 13
186 1 -10.4821 2.97039 16.3006 11
187 1 -9.33803 12.3447 -2.35277 20
188 1 9.44242 0.914003 9.6225 20
189 1 -2.40197 -6.20236 -13.0037 21
190 1 -5.69236 11.0678 -6.22232 20
191 1 -6.96417 -13.1104 9.60732 22
192 1 -6.57982 7.20564 8.79833 18
193 1 -9.1529 8.95897 9.11874 19
194 1 -1.25026 -11.799 -6.3786 18
195 1 -6.0796 -15.4432 -0.95148 12
196 1 11.2245 -10.2319 -1.92648 15
197 1 11.0882 6.34727 13.8797 15
198 1 6.12176 10.139 -8.9672 17
199 1 -14.0441 10.7674 -1.68556 17
200 1 2.62855 4.47438 12.0007 17
201 1 4.36022 -18.6984 -1.1156 13
202 1 14.4781 -0.579673 -3.51319 15
203 1 -9.74697 6.22854 3.70437 20
204 1 -11.0009 -6.82698 -2.54198 21
205 1 5.85623 3.77861 -12.8056 21
206 1 8.50453 9.80737 -10.7738 15
207 1 -2.58706 -1.88935 -11.937 19
208 1 -0.882888 -19.9433 2.57426 11
209 1 -11.8409 -2.35969 3.83482 16
210 1 4.42825 -16.077 -3.40271 14
211 1 -9.09697 -3.52505 -9.19352 21
212 1 5.00023 12.8321 -0.98109 21
213 1 2.35694 -4.36404 -17.0865 17
214 1 5.24404 4.53892 14.713 24
215 1 15.1027 4.09997 0.0894851 8
216 1 12.0921 -6.77653 -11.1545 13
217 1 -7.12302 -4.66544 -11.612 23
218 1 -9.9066 2.40053 -11.2718 23
219 1 -7.99029 -15.3812 11.6302 11
220 1 9.10566 -2.07209 11.1347 21
221 1 -6.18619 -10.181 -12.0623 17
222 1 1.38717 5.8152 -12.9537 19
223 1 1.75363 11.5454 0.675993 18
224 1 -7.73249 -1.71334 12.9131 20
225 1 -11.0959 -9.08281 -9.01714 10
226 1 -5.21445 -7.27824 -11.1085 21
227 1 -2.39541 6.82898 -14.3746 13
228 1 -8.06544 -9.33353 -6.94779 21
229 1 9.72258 -6.31164 -14.2832 11
230 1 15.7755 -0.645883 -9.34705 13
231 1 11.1103 3.5565 3.98317 14
232 1 -9.04366 -4.27121 10.5714 19
233 1 -6.15423 -12.1678 -3.5726 15
234 1 7.52722 3.6439 16.4565 18
235 1 -5.6608 -15.5066 6.10989 18
236 1 -1.59358 -12.6449 0.622849 24
237 1 -2.85541 14.9036 -1.12568 15
238 1 4.60368 -2.63999 -15.172 17
239 1 -6.84524 -4.30543 -16.5462 10
240 1 -9.87322 -7.24324 11.9202 16
241 1 2.63302 7.50242 18.4697 15
242 1 2.45136 -13.6494 -1.89242 21
243 1 -6.43948 -13.2012 -10.9755 9
244 1 -8.89898 3.41413 -8.2624 19
245 1 9.81759 6.2007 5.73877 12
246 1 -6.58753 1.37962 -10.7035 21
247 1 -1.46239 10.0265 -9.45916 20
248 1 7.3571 -12.1983 -9.62155 15
249 1 -8.30297 14.836 -1.39838 12
250 1 1.71125 11.9697 4.07783 20
251 1 10.1913 0.958289 5.77094 19
252 1 -4.56413 -6.43807 12.7546 17
253 1 -8.59771 9.34085 1.65245 20
254 1 1.80543 -2.76108 -14.4323 21
255 1 15.8829 12.0962 -4.86862 9
256 1 -2.9239 -0.857096 15.8887 10
257 1 -16.4393 -3.32207 5.76397 12
258 1 -0.014377 -16.5413 -5.0667 11
259 1 -11.0423 6.54421 11.8524 17
260 1 -12.68 5.22368 14.4445 11
261 1 -14.8928 -2.665 8.34716 15
262 1 -13.9658 -5.90842 7.32258 16
263 1 18.1559 -4.91183 -3.85105 7
264 1 -11.1173 -7.33772 8.76319 19
265 1 9.78942 -3.90912 -9.25501 17
266 1 10.1976 -12.4535 -4.77073 16
267 1 1.7046 18.0494 -3.31797 9
268 1 -12.0986 13.3307 -2.12195 13
269 1 11.0203 5.8149 11.0448 16
270 1 8.86405 -9.93095 -3.26602 18
271 1 4.87813 -16.1654 6.18123 7
272 1 10.2628 -4.3841 5.92971 18
273 1 -2.31007 2.14207 15.7662 15
274 1 -5.17891 14.3835 2.06671 17
275 1 9.26086 7.38858 16.2284 12
276 1 -10.4849 13.7435 -5.47049 14
277 1 1.29391 -7.58131 -18.0637 12
278 1 6.95475 -10.9184 -13.4618 12
279 1 -11.2457 3.34528 12.1815 19
280 1 -15.9074 2.47672 4.2523 10
281 1 -11.5769 10.764 0.135518 21
282 1 -9.5115 -11.3635 2.15444 17
283 1 7.26848 -9.16723 6.0984 13
284 1 -9.06837 -10.0538 13.6841 9
285 1 -15.5737 7.37506 2.12613 12
286 1 2.26663 -10.2901 -6.59303 20
287 1 7.07485 -4.73972 -14.3693 18
288 1 5.26599 9.99772 3.84818 20
289 1 5.69003 -7.08157 -12.8411 18
290 1 8.88602 4.44599 -14.0613 13
291 1 -6.18928 -16.0838 -7.02629 11
292 1 -13.7076 -8.74413 -4.2439 12
293 1 10.3792 4.33414 16.1401 15
294 1 11.0901 4.36465 -2.74475 15
295 1 -9.32565 5.63278 -11.1609 19
296 1 2.53239 15.325 -1.22263 15
297 1 -14.0487 -2.48518 -4.76842 15
298 1 -8.45965 9.12417 6.27588 17
299 1 -7.74775 13.7608 3.90899 16
300 1 10.5656 3.37141 13.105 23
301 1 12.331 -1.96703 -5.36492 15
302 1 5.84344 -3.33636 14.5328 15
303 1 10.5455 1.77428 -8.43278 18
304 1 -6.24373 -15.5585 -4.28685 15
305 1 9.44942 -12.8869 -1.62353 17
306 1 10.6164 -1.21087 7.66198 20
307 1 -11.6571 -2.36994 -6.46753 24
308 1 -6.16558 -9.61373 2.30477 19
309 1 -8.92606 -6.91557 14.9403 12
310 1 -5.89198 10.3723 -3.26484 18
311 1 -14.0947 -12.5504 -1.10219 9
312 1 6.87771 9.54291 15.5949 14
313 1 1.24417 12.0752 -10.05 20
314 1 5.05069 10.3982 6.73941 18
315 1 -14.8487 -9.3708 -0.495237 11
316 1 -11.4538 -1.33995 8.38569 18
317 1 -12.8865 6.48207 -3.83451 17
318 1 -4.07581 -12.9711 -5.02722 20
319 1 12.1801 10.4409 9.31367 15
320 1 5.81862 7.14303 -14.8347 13
321 1 -11.9153 4.95376 -10.1724 21
322 1 -1.44847 13.6044 -9.72265 15
323 1 -3.40166 -10.3768 3.26383 22
324 1 13.6579 5.20937 5.42482 21
325 1 0.0800033 7.99147 -14.489 15
326 1 -14.8371 4.13199 1.32726 17
327 1 -4.43469 -12.7735 4.04712 21
328 1 7.92997 -9.36631 -9.30153 15
329 1 -9.60416 1.39315 7.22516 17
330 1 -14.4563 0.359063 9.98669 15
331 1 -14.9856 10.0082 8.40775 9
332 1 -8.75563 1.789 -16.4037 12
333 1 7.10085 -11.7213 -3.5589 20
334 1 0.168406 -8.23969 -12.5049 16
335 1 -5.1682 -3.48453 12.5732 16
336 1 -5.54396 1.86674 -16.0756 18
337 1 4.44678 -12.4193 0.247746 20
338 1 2.84185 12.2409 -6.49792 21
339 1 -11.7083 9.25514 6.61909 21
340 1 -6.13286 -2.03666 15.7179 15
341 1 -10.4057 -6.36265 -11.2614 16
342 1 -8.33612 -6.78164 8.82525 20
343 1 9.0064 -5.95733 11.0328 13
344 1 8.84956 -7.17609 5.05159 16
345 1 14.6785 8.7728 -5.31776 15
346 1 -1.95691 1.86323 11.8591 20
347 1 2.30558 12.7107 -3.50607 20
348 1 -3.27881 -16.9739 -5.97564 10
349 1 -5.10001 6.22748 16.8432 12
350 1 -2.94603 15.2657 6.96035 15
351 1 -10.6433 -11.6298 -7.00761 13
352 1 9.69758 13.966 1.87661 16
353 1 4.64328 7.77607 8.49951 21
354 1 -8.80175 4.28998 11.4239 20
355 1 -11.8738 3.55493 9.19675 18
356 1 -9.27705 -4.23959 -6.22395 19
357 1 -5.74397 9.44705 7.0933 19
358 1 -6.55156 -12.6729 -6.59915 16
359 1 -3.12281 -8.65525 -14.27 17
360 1 -7.60747 -13.3968 4.05763 21
361 1 -6.98285 -5.27812 16.6676 9
362 1 -11.6592 7.39597 -8.26951 20
363 1 -8.95487 -14.9134 -2.30374 8
364 1 -0.296791 15.7607 0.905699 13
365 1 -1.02509 8.12039 11.6703 18
366 1 -14.0192 -1.49128 -2.08214 16
367 1 -0.755457 17.4348 -5.06612 8
368 1 5.32801 12.9202 -8.27651 20
369 1 -7.87425 -6.31458 -8.74871 21
370 1 4.5087 4.38801 17.9178 14
371 1 1.36228 -12.9756 -7.45042 14
372 1 -0.973152 -4.08323 -10.9518 20
373 1 9.5878 -16.0161 0.817019 7
374 1 -12.1838 9.31127 3.2263 19
375 1 3.55894 7.93299 14.4714 17
376 1 10.142 7.4038 -1.74348 16
377 1 -10.8549 8.26614 -11.1927 15
378 1 -16.728 -7.10517 1.18662 8
379 1 2.77856 17.4886 6.27932 10
380 1 -7.0009 4.12332 -12.4065 20
381 1 9.89158 7.72532 1.61663 16
382 1 6.90729 14.989 -8.41807 11
383 1 13.9818 1.49105 -1.62461 13
384 1 0.0153896 -1.09836 -12.9869 17
385 1 -1.30118 -16.7087 5.48419 14
386 1 1.16752 -11.2998 9.47408 13
387 1 -9.26879 -12.7761 6.8175 19
388 1 -2.52977 -12.1707 -9.09809 15
389 1 8.24686 14.6563 6.5321 12
390 1 0.684608 2.11529 -14.5215 19
391 1 4.10817 -2.02996 17.617 5
392 1 -14.7448 3.0194 12.6622 14
393 1 -1.63471 -17.8327 -2.08585 10
394 1 -12.1951 -4.30902 1.96163 16
395 1 14.061 -5.2595 -5.15294 14
396 1 2.57736 3.20554 -11.6757 23
397 1 10.7861 -4.55506 -4.05959 17
398 1 -7.47131 1.16179 15.1648 18
399 1 7.78178 11.5492 0.369737 19
400 1 -3.74577 -3.16714 -17.4607 12
401 1 5.45113 1.20548 -18.2231 15
402 1 -3.48013 12.0585 0.568386 21
403 1 -8.10187 -2.64711 -13.5049 19
404 1 -15.7016 0.8831 1.13736 12
405 1 -2.99863 -11.2348 -15.2674 9
406 1 -5.27396 -9.67722 12.8239 12
407 1 -0.248412 9.96233 -6.42425 21
408 1 15.5543 2.79566 9.32855 14
409 1 13.3297 6.69607 -1.46804 13
410 1 -11.2696 -13.0897 0.0385897 12
411 1 -0.827052 -5.31833 -17.7652 15
412 1 -8.74462 12.4405 9.6213 12
413 1 14.1008 -1.63614 -0.549051 15
414 1 3.84419 16.2777 -8.26655 11
415 1 14.0635 5.52722 -10.0136 12
416 1 4.19993 10.1036 11.3993 18
417 1 -9.0198 4.18211 8.70805 19
418 1 4.85956 12.7469 8.76918 19
419 1 6.32418 -0.174632 16.918 15
420 1 -2.06048 2.74359 -15.1975 17
421 1 7.09495 11.6733 7.47172 22
422 1 7.84488 7.06578 -8.7656 20
423 1 -8.87271 11.0851 -4.56156 17
424 1 -0.100017 12.5736 -4.21858 17
425 1 9.41591 -4.07659 14.0238 12
426 1 10.3688 1.77769 -11.5699 18
427 1 11.4573 -7.75795 -3.17685 16
428 1 12.3064 9.03821 11.9451 14
429 1 -15.9266 -10.516 1.9608 8
430 1 -6.40183 10.5286 -9.42317 17
431 1 -15.0676 -0.413467 13.7475 10
432 1 -4.14844 12.3116 -8.92892 16
433 1 5.96494 -14.1917 -2.02164 18
434 1 -4.1745 15.2586 -4.40896 14
435 1 -8.7056 -6.01114 -14.0449 13
436 1 2.73947 -16.5264 2.65648 16
437 1 -15.7851 -4.33146 -0.587816 10
438 1 1.04184 12.2053 -14.784 7
439 1 -2.50532 9.08951 16.1441 11
440 1 -10.2053 -4.81705 6.931 23
441 1 2.50321 -10.5702 -9.76041 15
442 1 0.149505 -8.07002 10.7342 11
443 1 -12.5104 6.775 1.68183 21
444 1 1.39974 3.71312 19.0013 10
445 1 6.11277 16.3984 -5.69208 12
446 1 13.1745 -5.13439 -2.09341 16
447 1 2.86842 7.6656 11.1646 17
448 1 0.0358173 2.33051 -17.6641 12
449 1 -4.70287 -14.5001 11.4327 12
450 1 6.96995 -1.36359 -16.2081 15
451 1 4.75218 13.01 5.04208 19
452 1 8.36752 4.32766 -10.9028 19
453 1 -1.80237 -3.00822 -14.7235 21
454 1 -6.16438 -9.35658 -4.302 20
455 1 -10.2157 -3.58906 -11.8776 17
456 1 10.2643 4.5204 0.380093 17
457 1 14.1614 5.60416 -5.97093 12
458 1 8.88436 -6.43984 -7.53641 19
459 1 13.8652 5.87569 11.7747 17
460 1 8.85939 -9.37025 -6.10529 20
461 1 3.5105 3.12739 -17.1062 18
462 1 7.68372 11.4817 3.86068 21
463 1 9.91942 9.38013 13.797 11
464 1 12.2117 7.75315 -3.64925 15
465 1 15.5735 -0.102107 4.37126 9
466 1 11.2592 4.79098 -9.61583 20
467 1 7.99445 1.77991 14.177 21
468 1 15.6457 3.32475 12.2551 11
469 1 13.9222 13.9428 -5.48197 10
470 1 2.24619 4.03493 15.9496 19
471 1 15.9871 0.0850984 -6.17603 12
472 1 8.57292 4.20735 10.7611 18
473 1 13.4959 6.40177 1.51754 14
474 1 -13.2989 8.44838 10.5368 13
475 1 9.83133 11.476 11.5724 12
476 1 9.94684 0.27817 12.7923 20
477 1 2.34602 10.6054 9.00989 20
478 1 -0.128331 15.0526 12.2563 10
479 1 -0.00661373 -18.0346 0.329286 20
480 1 -9.71913 6.10565 -2.68872 19
481 1 11.3694 10.6228 -8.83359 15
482 1 11.1558 -4.13138 -12.2093 15
483 1 -0.62568 17.1448 -1.3843 11
484 1 -3.78368 -10.5485 -6.52703 16
485 1 11.6606 -8.44782 -13.5816 9
486 1 -13.3415 0.392951 4.49861 15
487 1 -5.94048 4.91644 -9.36197 17
488 1 -3.62037 -17.3175 3.8798 16
489 1 -5.93856 -1.50195 -12.7015 22
490 1 -16.0453 0.0546917 -3.95353 10
491 1 12.1812 -7.07821 5.96319 9
492 1 12.9534 11.3773 4.10104 15
493 1 -14.2161 -1.19711 -8.39227 11
494 1 2.32376 0.355521 -18.4532 11
495 1 -2.86114 5.55906 15.2384 18
496 1 6.93092 9.68433 -13.8072 10
497 1 11.9934 -1.56028 14.0316 14
498 1 8.91767 5.1837 -7.66017 16
499 1 12.9053 13.9394 3.33921 9
500 1 4.62439 -13.412 -8.75927 13
501 1 -12.0507 -1.91935 14.9402 11
502 1 11.0508 -2.08175 4.41421 19
503 1 -1.03693 12.0358 13.8353 13
504 1 5.95898 11.5804 -11.2925 15
505 1 -14.5394 8.3219 -3.40657 13
506 1 10.6734 10.8047 2.1563 19
507 1 -8.57351 -14.216 1.18584 13
508 1 12.7241 -4.80803 3.31839 14
509 1 6.78255 14.7805 3.40322 15
510 1 -6.10008 4.81909 10.2434 19
511 1 -11.6074 -7.36066 0.587835 15
512 1 -7.76347 -0.428622 -8.51509 18
513 1 3.10276 2.04281 12.834 17
514 1 -2.89818 -9.13941 10.8366 15
515 1 8.07906 5.39005 14.1294 22
516 1 -7.55786 12.3319 0.986239 19
517 1 3.09214 -0.454984 -15.8565 18
518 1 -8.94629 -1.26118 8.69323 19
519 1 9.01702 -1.73726 -11.005 19
520 1 11.8372 -10.5334 -5.73486 14
521 1 6.92232 6.23163 7.41277 16
522 1 -10.2882 0.146915 13.5574 20
523 1 9.78541 9.37496 8.71833 16
524 1 0.111504 -2.73682 15.4393 8
525 1 -3.04508 5.15214 11.9883 19
526 1 0.0326444 -5.85348 -15.0308 23
527 1 -5.2262 3.11426 12.6627 17
528 1 6.18783 3.04104 12.4923 21
529 1 -8.85062 -15.4621 8.46438 12
530 1 14.6303 9.98828 -2.46701 13
531 1 6.45896 -11.2955 -7.06713 17
532 1 8.03942 11.4351 -4.87571 17
533 1 10.2555 14.4006 5.09303 12
534 1 4.95804 -1.83837 -19.1251 10
535 1 3.01255 15.7565 -4.93456 16
536 1 13.035 12.3188 0.0277151 11
537 1 -2.45249 0.214229 -16.7524 16
538 1 -12.9801 13.0735 0.964965 13
539 1 9.04323 -6.83566 -10.9823 17
540 1 11.2601 7.60485 -10.8235 14
541 1 10.8008 12.9894 -3.95493 16
542 1 11.2891 1.60221 15.5814 16
543 1 8.47736 -0.973122 15.3215 17
544 1 -1.94958 -12.5293 10.2629 12
545 1 -7.37702 9.7923 -12.5495 10
546 1 1.77346 13.4337 10.4243 18
547 1 8.35388 -8.53169 -15.1615 14
548 1 5.27884 13.2699 -4.32246 20
549 1 7.38313 9.08608 2.28167 20
550 1 15.4696 -4.08621 -2.25555 13
551 1 5.81163 6.70497 16.8907 15
552 1 -13.2929 -3.06431 6.24065 17
553 1 2.14547 -16.5187 -0.121896 19
554 1 -10.5864 15.225 2.45691 11
555 1 -14.4522 -1.88224 1.2495 18
556 1 -2.99869 4.74352 18.6378 9
557 1 -5.54394 7.43487 -13.4067 13
558 1 -9.07124 7.02482 -13.9991 12
559 1 0.94062 -13.6726 0.941792 17
560 1 8.80633 9.29941 -7.24932 16
561 1 -13.6932 5.33583 11.0515 18
562 1 4.61745 -4.10139 -12.2505 19
563 1 2.8465 -13.6469 7.25006 14
564 1 4.47207 11.5964 2.1734 18
565 1 -5.20101 0.702795 16.8137 11
566 1 -8.2381 -8.13578 -10.872 18
567 1 -6.34352 -10.4122 -14.9951 7
568 1 -8.62934 -13.653 -8.63114 12
569 1 -2.20848 15.1671 -7.48934 13
570 1 -3.45087 12.289 7.41938 18
571 1 5.25463 -9.45063 -11.0971 16
572 1 7.50299 -17.3926 -1.70987 9
573 1 14.0666 2.37365 -8.84434 15
574 1 -1.51561 -14.6795 -7.46182 16
575 1 -12.2578 -4.04667 9.18102 17
576 1 -3.28861 -18.6876 1.12927 9
577 1 -8.97532 -10.2137 -4.52788 16
578 1 -10.0652 1.38501 9.93855 19
579 1 -6.05415 -15.7733 2.7024 17
580 1 15.7613 7.67779 -7.98971 9
581 1 -4.93552 17.0707 4.10766 11
582 1 -16.0363 8.48392 5.60687 10
583 1 -11.1336 -0.968348 -9.34876 18
584 1 6.09907 4.07193 -9.51658 20
585 1 7.29922 11.3983 13.5623 13
586 1 -13.427 1.11477 -6.24842 14
587 1 -11.4355 -5.9701 -7.42129 18
588 1 -0.675613 7.39298 18.2532 12
589 1 4.30527 6.00188 -11.7847 18
590 1 13.2851 13.0919 6.92611 11
591 1 -2.69872 -15.2008 -3.75073 21
592 1 -5.6141 -16.7394 9.96406 12
593 1 13.7426 7.94679 9.09859 18
594 1 2.84867 -7.60597 -11.2605 21
595 1 7.9514 6.84293 -12.0873 18
596 1 1.60988 -13.7183 -5.02758 14
597 1 1.4841 -20.8208 -0.525159 7
598 1 -0.624342 -15.1354 -1.33123 23
599 1 5.05734 1.20809 -11.0785 20
600 1 4.92916 15.3712 0.895868 10
601 1 -3.34818 -0.642292 -14.358 20
602 1 0.630003 0.663695 14.0709 12
603 1 0.559815 5.01154 -15.8332 16
604 1 -12.3929 -0.26168 -11.7451 13
605 1 -12.1296 -3.78761 -1.15448 17
606 1 0.444873 16.5763 -7.06699 11
607 1 -3.32717 -5.66728 -16.0221 17
608 1 11.4308 7.58682 -7.07777 18
609 1 11.1844 -6.97543 0.948054 18
610 1 -7.69784 6.95789 12.2704 17
611 1 7.59125 -10.379 0.0736524 23
612 1 13.1414 -4.72379 0.611994 16
613 1 11.73 -4.0123 11.5414 13
614 1 -0.149042 10.3572 7.02246 21
615 1 -12.7911 1.42774 14.3946 15
616 1 -11.0984 6.82011 9.1246 18
617 1 -2.84241 -14.2598 5.35228 18
618 1 6.88204 10.3415 10.3816 20
619 1 -12.1896 1.2896 -1.57544 21
620 1 -11.9569 9.93224 -6.8975 11
621 1 1.15242 -19.0948 4.12408 12
622 1 5.46017 2.03682 15.1496 19
623 1 -0.778692 12.9037 5.4232 22
624 1 2.26181 -8.09598 8.5287 19
625 1 -0.340548 3.80713 13.7093 20
626 1 -15.1265 -6.19072 -3.91752 9
627 1 1.61391 11.5618 15.8953 13
628 1 8.70245 13.2307 -2.71259 17
629 1 -10.6421 -10.236 5.20098 19
630 1 -3.96788 -17.2233 6.99681 14
631 1 6.28117 -6.43297 12.788 11
632 1 10.2264 -4.26235 9.01699 15
633 1 7.57896 8.77129 6.00432 20
634 1 -0.787237 -9.52538 -8.42274 18
635 1 -4.61135 1.77775 -13.2244 18
636 1 -5.0665 -0.120862 13.0806 19
637 1 -2.52504 15.5483 3.67889 16
638 1 13.007 1.43366 4.56256 17
639 1 -3.80226 7.95793 13.4973 16
640 1 7.80418 7.34816 10.7542 18
641 1 7.26715 -3.95979 -10.6641 19
642 1 -6.45515 -9.83503 -0.848756 15
643 1 13.5298 -1.31386 5.7881 16
644 1 0.751257 8.74468 16.2628 14
645 1 10.7272 -12.1088 -8.45954 11
646 1 5.88457 3.41608 -15.6446 17
647 1 11.851 4.90463 -12.7123 12
648 1 14.4542 -2.32389 2.58324 14
649 1 -3.71534 -6.6353 8.91135 17
650 1 -2.53042 -9.20486 -11.1435 19
651 1 11.3064 14.6475 -1.03704 10
652 1 -12.8619 6.4146 5.52526 16
653 1 11.4273 4.52566 -6.36666 17
654 1 16.4089 5.8734 3.83651 10
655 1 4.12535 -5.3815 -15.5087 22
656 1 -5.81345 10.5981 3.46386 20
657 1 15.7396 6.84467 6.79471 16
658 1 11.5999 13.4556 -7.39588 13
659 1 5.16878 1.10602 -14.5284 22
660 1 11.9599 7.49794 3.7049 15
661 1 -13.6483 -13.0582 2.31963 9
662 1 -12.3895 10.6498 -9.74757 8
663 1 6.17885 2.6833 9.05948 17
664 1 -11.3817 -1.49983 -3.32479 21
665 1 -10.2355 6.42132 6.32779 16
666 1 11.0921 -8.89896 -9.06616 17
667 1 -10.9681 -8.05356 -5.59778 19
668 1 13.6058 -8.14945 -0.139853 11
669 1 -14.9747 5.51554 4.04706 14
670 1 12.2594 7.43069 7.31728 15
671 1 -9.16135 -7.24857 5.83217 19
672 1 9.14282 1.49156 18.0212 9
673 1 12.807 -3.02034 8.52845 11
674 1 -11.6025 4.29297 0.585502 20
675 1 -0.63115 10.7763 10.2777 15
676 1 1.68201 9.08248 -8.13173 19
677 1 -1.06032 -8.25696 -16.5469 12
678 1 -6.57059 11.7869 6.00903 19
679 1 -11.5177 -10.6953 8.14223 14
680 1 8.76146 14.2153 -6.03716 16
681 1 1.1264 9.89191 13.2692 17
682 1 16.7329 -2.79214 -6.55193 12
683 1 5.51695 -7.10473 9.56928 14
684 1 -0.657983 11.4539 -12.3699 16
685 1 3.44408 10.2883 -9.63479 18
686 1 -6.15783 -1.20496 9.97888 19
687 1 16.8884 4.09975 6.5957 12
688 1 14.2723 13.0496 -2.11204 10
689 1 -13.8307 4.9103 -1.86936 19
690 1 -4.85126 -10.9262 9.35958 19
691 1 3.58674 13.7899 -10.9352 14
692 1 6.85521 0.197197 11.175 18
693 1 -3.48522 -12.9966 -1.4577 19
694 1 -7.82198 16.1108 1.94056 14
695 1 -14.7783 7.41642 -0.442307 18
696 1 11.9209 -1.5589 -9.01373 18
697 1 -0.156832 -12.4468 -13.2593 10
698 1 14.3764 11.3452 -7.77562 15
699 1 6.51608 -4.04594 -18.0876 11
700 1 -8.74045 -10.7426 -9.71629 14
701 1 -0.212128 -12.3619 -2.61913 23
702 1 -4.14006 10.8564 13.318 14
703 1 7.07262 -13.832 0.953877 17
704 1 -2.48992 10.2901 -14.5954 8
705 1 13.9054 2.31135 -5.09735 15
706 1 1.5122 -17.3849 -3.05637 14
707 1 4.21265 -5.48644 -19.099 10
708 1 -2.99646 3.59856 -11.5865 18
709 1 5.35578 10.4689 -6.54549 20
710 1 -11.5784 3.67168 -2.90779 21
711 1 -14.0514 5.28073 7.52082 14
712 1 0.77319 6.65639 21.1915 7
713 1 -6.61388 -8.75348 10.2057 20
714 1 -0.849549 -15.4924 2.57366 19
715 1 -4.8489 7.79472 10.9844 16
716 1 -7.50583 1.25663 11.6976 19
717 1 -9.79317 12.5455 6.91079 16
718 1 -6.31267 -8.46553 14.6938 9
719 1 1.40242 -10.7844 6.92986 16
720 1 12.2525 3.10114 11.1649 20
721 1 5.27636 -13.2009 -12.2871 11
722 1 -10.1034 3.68249 -14.1493 18
723 1 -3.56996 1.67931 -19.142 5
724 1 7.02627 14.7032 9.45207 11
725 1 -10.725 -4.76755 13.4537 15
726 1 -6.43182 8.00234 -7.35584 18
727 1 -14.7493 2.86385 -4.43661 11
728 1 10.9467 10.4701 -1.5897 20
729 1 -8.43151 -15.9457 5.07464 12
730 1 14.7577 10.6782 7.35047 11
731 1 -11.7059 -11.577 -3.70998 12
732 1 3.61033 15.824 9.37118 13
733 1 -9.21177 -0.287694 16.5828 11
734 1 -4.16614 -14.6958 -8.24683 15
735 1 12.3355 1.16128 8.41478 17
736 1 3.24024 -18.9812 1.38147 14
737 1 4.1396 10.3304 17.7425 9
738 1 12.0508 -1.03954 -11.724 12
739 1 2.42129 0.453706 -13.0114 19
740 1 -12.6546 2.69404 -12.5472 14
741 1 -7.51574 4.82464 -15.9669 12
742 1 -6.22302 5.16237 14.6239 15
743 1 7.64035 -2.31009 8.95672 22
744 1 -9.35717 -7.88985 2.27486 18
745 1 14.6319 0.866731 1.2904 14
746 1 -1.2269 6.90432 -11.4227 19
747 1 13.3324 9.53851 1.15761 16
748 1 -1.75326 15.2953 9.95211 11
749 1 -16.2459 -6.5902 4.97755 8
750 1 8.37949 -13.8929 -7.20886 11
751 2 -9.29496 -1.48732 -9.46234 18
752 2 -8.8815 13.091 -4.29092 19
753 2 2.22855 -1.44652 -12.8941 22
754 2 -4.34851 4.3793 10.6759 20
755 2 4.58253 -13.5989 -10.5881 10
756 2 -7.96679 -4.48179 -7.60973 19
757 2 1.4111 1.12173 12.2855 19
758 2 4.72959 -0.218349 18.1844 9
759 2 -14.6347 -11.488 2.72809 10
760 2 -12.156 4.78734 -4.35299 20
761 2 2.59225 13.2378 5.35884 18
762 2 1.89906 16.7535 -8.66471 9
763 2 -2.95708 14.7422 -5.79879 15
764 2 9.7614 13.0304 -7.4394 18
765 2 -11.191 -1.79369 -12.0809 16
766 2 -11.4328 -7.79326 -7.67073 14
767 2 9.74754 -4.92049 -10.8425 19
768 2 1.98436 -14.8948 2.35859 16
769 2 -9.03833 10.3298 -2.76723 21
770 2 -14.4133 1.17996 -4.70514 14
771 2 7.70959 6.68464 5.7348 19
772 2 11.4165 -12.1357 -6.4289 12
773 2 -10.2618 -11.5108 0.554366 12
774 2 -12.0552 -5.17192 6.60298 18
775 2 -2.53148 -12.4537 4.48913 18
776 2 8.33744 -5.04392 9.26526 17
777 2 -0.533001 -13.4661 -6.25598 18
778 2 4.21387 -2.27104 13.3889 16
779 2 -0.715858 11.8352 -10.0123 17
780 2 2.28853 -18.3947 2.86024 15
781 2 -13.1322 -13.2722 0.490087 9
782 2 1.368 7.84257 14.8407 16
783 2 -13.2376 8.57977 1.95858 17
784 2 -2.52357 3.98945 16.4003 16
785 2 -9.16784 6.41304 -4.48651 19
786 2 10.034 -14.3165 1.51483 9
787 2 -0.992838 11.8284 -6.51686 22
788 2 13.0679 11.6146 8.21779 13
789 2 8.24704 14.1458 4.60429 17
790 2 10.1305 -1.98523 -9.27617 18
791 2 -5.59893 8.47419 12.7522 15
792 2 4.08644 2.6947 -14.9293 20
793 2 -7.03248 9.4094 -10.7003 14
794 2 10.345 14.1051 -2.63651 13
795 2 -7.00859 -3.4807 16.552 10
796 2 -15.3058 9.86261 6.56121 9
797 2 12.0248 0.799685 -11.7335 13
798 2 -9.20573 -8.11811 13.4753 14
799 2 1.82484 -7.29638 -12.8711 20
800 2 -2.65347 -4.51853 -17.3909 12
801 2 -16.8382 -7.06507 3.16888 8
802 2 11.6719 10.5296 0.417963 15
803 2 -5.10527 -11.6858 -5.79245 18
804 2 -6.29756 13.986 7.80443 15
805 2 5.38912 -1.92541 16.1756 12
806 2 1.0808 -9.73289 10.3704 9
807 2 16.209 2.63262 7.44226 10
808 2 4.75939 14.7793 -8.92051 14
809 2 -15.2223 3.57542 -2.6427 13
810 2 16.4088 4.09606 10.5308 11
811 2 12.3268 -8.62042 -1.33492 12
812 2 8.2961 -9.90874 -1.52588 19
813 2 -5.78584 11.4484 12.8571 12
814 2 5.39163 -10.8178 -0.432026 18
815 2 11.3269 -3.85962 7.55914 17
816 2 14.2915 11.429 -1.15852 11
817 2 -4.72675 -0.773157 15.1222 17
818 2 14.1472 -3.6585 -0.717104 14
819 2 12.6326 4.74482 10.3799 19
820 2 6.61067 14.8393 1.45888 14
821 2 -9.60888 7.4867 12.3606 15
822 2 13.0987 -6.57094 3.78137 11
823 2 6.84039 3.36594 14.4433 19
824 2 -8.56411 -3.70367 -10.9236 23
825 2 10.4273 -0.737129 14.5353 16
826 2 2.79718 16.5671 -2.70046 13
827 2 -5.9498 0.996295 10.1838 22
828 2 -12.5304 0.464563 8.89635 15
829 2 -11.6763 -8.10983 -1.09967 17
830 2 14.4321 -1.98036 4.37352 12
831 2 -1.88028 -2.69744 15.4242 7
832 2 9.50764 -4.40891 -13.8308 14
833 2 4.22794 3.62092 12.6983 18
834 2 -1.06999 8.97117 9.7103 15
835 2 13.947 -0.370741 -5.28117 20
836 2 -10.1761 10.7292 6.08423 19
837 2 10.6975 -9.41678 -7.08586 19
838 2 -12.6363 6.77739 -11.6064 13
839 2 9.4081 -8.41125 -4.29802 19
840 2 14.7187 1.37338 3.2353 15
841 2 -10.4046 -9.59914 3.30219 15
842 2 9.38298 7.9345 -11.1511 15
843 2 -7.75119 -0.831985 15.3887 16
844 2 13.0065 -6.39016 -6.83638 13
845 2 1.20427 -15.321 -4.29217 19
846 2 -15.2419 0.151189 8.16835 12
847 2 10.0287 11.317 9.5873 16
848 2 -3.28872 13.8005 8.46338 17
849 2 11.1091 -5.37744 -2.42185 21
850 2 -5.73102 12.5954 3.53667 16
851 2 10.397 3.06355 -10.0032 18
852 2 -13.9207 -4.40597 12.325 8
853 2 -4.17696 -6.81504 -9.3728 19
854 2 -8.63659 7.53586 5.16489 21
855 2 -6.82617 3.67647 11.454 18
856 2 -5.02658 13.8426 11.2974 12
857 2 -11.5018 9.13211 10.5149 14
858 2 -5.70614 -0.137898 -14.0015 20
859 2 -11.3828 6.84019 0.258692 24
860 2 14.6653 7.21189 -9.42757 11
861 2 -5.50223 -12.1197 -12.2015 12
862 2 -16.3405 -2.13721 7.20803 9
863 2 -5.49587 -12.5737 8.66037 17
864 2 -3.8745 1.41737 12.2475 18
865 2 15.0479 4.94817 13.1684 11
866 2 -12.9947 12.2007 -0.81321 14
867 2 -5.72956 12.7455 -7.66863 17
868 2 -11.4154 6.70608 4.12048 18
869 2 6.47857 9.8916 0.629193 22
870 2 11.2139 1.64471 -6.7253 18
871 2 -6.99747 11.9323 10.115 15
872 2 -13.7814 -1.71896 14.0135 11
873 2 12.7401 -8.6704 1.77891 12
874 2 -10.4126 -2.15953 9.85242 18
875 2 -11.4922 11.3278 -8.2485 11