ITEM: TIMESTEP
15000
ITEM: NUMBER OF ATOMS
2000
ITEM: BOX BOUNDS pp pp pp
-30.0 30.0
-30.0 30.0
-30.0 30.0
ITEM: ATOMS id type x y z Coordination
1 1 -12.2595 6.80749 -10.8092 10
2 1 -1.40505 -9.15057 -12.4536 19
3 1 3.11631 16.4193 9.82755 9
4 1 8.5087 -9.61934 2.45131 16
5 1 -10.9472 9.38711 -1.01863 19
6 1 8.14435 -10.6071 -8.0985 14
7 1 -11.5415 3.20863 -12.0628 11
8 1 0.806466 -8.89214 5.47428 16
9 1 -8.36017 -4.75067 -12.1449 20
10 1 -12.2411 -9.63311 1.73218 16
11 1 14.3956 2.41642 -10.5153 20
12 1 -2.3311 -12.5655 -0.234324 20
13 1 -9.63888 -8.09812 -0.217434 21
14 1 0.45648 1.29683 13.7125 18
15 1 0.630445 4.28423 9.08502 23
16 1 -9.05376 8.79298 -10.9557 14
17 1 5.3004 -3.67982 7.78655 19
18 1 -9.77469 -1.52812 -13.74 17
19 1 -15.1061 -8.15463 6.69875 9
20 1 15.618 2.43173 5.84835 13
21 1 1.31487 5.44166 -11.4881 19
22 1 9.21878 2.28058 -15.2848 21
23 1 11.5529 1.83169 5.60388 19
24 1 -10.9055 0.985686 -10.2901 20
25 1 -8.90501 11.7284 4.80819 15
26 1 7.87696 -13.2685 -2.23011 17
27 1 0.953974 -13.1 -15.8198 13
28 1 11.5092 -7.22014 -0.45816 19
29 1 -5.10907 -14.0721 -10.0439 17
30 1 -14.2875 -4.92757 8.29078 14
31 1 4.13318 -6.01747 -19.0454 11
32 1 6.53707 -8.49139 -14.9297 19
33 1 1.39361 4.30166 -19.1842 15
34 1 -1.52692 2.55587 11.7887 19
35 1 -2.83207 -12.9143 5.03631 19
36 1 3.19368 -5.01685 9.74454 18
37 1 -10.7508 -1.38947 -2.75912 16
38 1 -13.9668 -3.16829 5.31397 13
39 1 -1.30102 15.2156 -6.14697 16
40 1 -0.680249 -13.6282 -17.6172 8
41 1 9.65627 -5.75708 -11.0697 16
42 1 -2.34123 -3.75063 13.9751 13
43 1 -13.3961 3.46578 -1.39345 16
44 1 3.18415 12.3136 -16.0961 10
45 1 1.73631 12.8965 9.32281 19
46 1 -7.07846 7.48029 -13.0675 16
47 1 -1.89251 15.0856 -0.0195296 17
48 1 3.20672 -14.7923 -1.56918 21
49 1 2.61297 -10.263 -3.96309 21
50 1 3.37696 -3.49683 -21.1447 10
51 1 -6.56667 7.63785 8.84774 16
52 1 -11.597 -5.19889 -9.87731 22
53 1 -5.73577 7.3966 -6.93831 21
54 1 -10.1035 -7.65428 3.35416 20
55 1 -1.33432 15.5535 6.34858 15
56 1 -11.6024 6.89355 -6.87162 17
57 1 -8.27327 9.26977 7.11572 17
58 1 -2.91856 -15.6224 6.0013 16
59 1 4.49565 -15.3785 -6.29187 16
60 1 4.35794 13.5059 11.9485 15
61 1 -15.5796 -1.80798 -11.4178 5
62 1 -13.4779 10.0899 -6.9805 10
63 1 3.75341 3.80085 10.0504 20
64 1 14.7559 -6.28666 -12.2887 12
65 1 11.0411 -12.4085 3.2132 8
66 1 -13.527 -6.51748 3.67562 16
67 1 3.72252 15.1837 1.3704 18
68 1 3.43608 3.74603 13.187 20
69 1 -9.51769 -8.35864 6.78982 21
70 1 8.17187 1.76632 6.17249 22
71 1 -0.807512 12.0583 6.94221 21
72 1 -0.859377 -6.0286 -10.8577 17
73 1 -13.5537 7.40157 7.07261 12
74 1 -7.88339 14.7719 -0.0400622 12
75 1 0.598217 10.1871 -7.98766 16
76 1 13.9159 10.5172 -9.94248 12
77 1 3.76061 -9.73258 7.3851 12
78 1 4.19714 15.1282 -9.50438 13
79 1 -6.33001 13.6513 4.60078 12
80 1 -6.61091 -5.67088 11.572 20
81 1 -2.21816 8.88869 3.3861 19
82 1 -4.44149 -6.45327 9.00223 18
83 1 13.1145 -9.06203 -10.0814 14
84 1 -7.72585 3.25752 3.2238 20
85 1 -9.33134 -13.2054 2.36359 12
86 1 6.4025 -7.71822 -8.5511 19
87 1 7.195 -3.05351 -14.9755 13
88 1 -4.0909 1.42168 -17.3764 17
89 1 -0.407862 11.103 1.69582 20
90 1 -8.26852 2.22781 -12.0172 16
91 1 2.03566 9.65637 14.7444 10
92 1 2.74095 11.8734 -9.38222 17
93 1 -9.21931 11.5815 -1.06738 18
94 1 -7.30455 -6.9436 4.96722 20
95 1 13.711 -2.30129 4.44148 19
96 1 5.90143 -5.96898 -15.3326 19
97 1 3.41182 2.35452 15.2594 13
98 1 -6.91674 -8.15186 -3.7949 19
99 1 -7.4545 -8.09089 -7.40447 19
100 1 14.5676 -9.02218 -0.744989 9
101 1 9.14175 7.81063 -11.6689 18
102 1 10.4551 15.3446 -4.96105 16
103 1 -7.84647 -7.76809 12.2342 13
104 1 -9.23288 -11.1224 8.53273 14
105 1 7.52242 -10.1773 -19.7908 7
106 1 14.573 -8.53566 -4.67975 14
107 1 -1.01317 -18.4948 4.86463 10
108 1 -7.76174 -10.6332 0.520483 16
109 1 18.2089 6.82151 9.30261 8
110 1 18.0208 -2.85072 -9.27673 10
111 1 -12.3496 -9.20713 5.00683 14
112 1 12.0426 7.28605 4.45405 17
113 1 13.782 13.9827 0.260852 11
114 1 -7.44788 4.31337 13.4874 13
115 1 -3.48383 10.738 5.28281 15
116 1 -3.29696 12.9622 -7.28659 18
117 1 1.79849 -7.21926 -11.639 19
118 1 6.58001 -13.5167 -7.06699 14
119 1 -0.237909 12.1671 -15.177 12
120 1 5.87962 -6.79966 7.51745 16
121 1 1.65659 2.54833 -22.3826 10
122 1 -1.54173 6.08069 -12.0792 20
123 1 9.554 2.72022 -5.38637 19
124 1 -9.35467 11.6739 -4.103 20
125 1 -3.32886 13.5527 -2.30212 18
126 1 9.11084 1.4743 -10.7528 18
127 1 9.62786 -9.7942 4.96429 10
128 1 -0.289912 18.2166 4.70023 11
129 1 12.8955 8.03491 -11.9174 16
130 1 6.4318 13.7158 -3.49221 18
131 1 -6.18544 19.0572 -2.35909 8
132 1 11.0906 10.801 -9.77696 16
133 1 -2.01266 8.43795 -6.37235 18
134 1 1.96437 12.8449 -12.2124 13
135 1 6.20242 7.7125 -16.9566 18
136 1 -10.5065 -10.6552 -0.352164 14
137 1 -11.1767 8.01089 -4.01191 17
138 1 -3.79623 -1.61549 -15.5553 16
139 1 -3.49505 -5.56007 -22.0738 10
140 1 11.9501 13.2128 3.76033 7
141 1 -0.425929 17.7372 -1.85898 12
142 1 -11.9925 -4.55834 -6.69711 17
143 1 -10.6928 13.5252 -2.15251 18
144 1 17.2251 -0.887017 -3.621 9
145 1 -14.265 1.53685 -11.3542 9
146 1 10.1419 5.57587 15.3077 10
147 1 1.8565 16.9029 -0.752239 15
148 1 -0.50478 8.72617 6.38736 24
149 1 -1.26642 -6.01742 -19.9073 14
150 1 1.34281 14.4706 5.81809 21
151 1 -1.81987 15.4735 -10.0398 11
152 1 6.03195 -5.13361 10.3118 16
153 1 -9.60401 -7.05095 -3.06207 15
154 1 4.8128 -12.5296 -18.3508 9
155 1 -5.85327 9.84944 -11.9538 14
156 1 -4.6696 -14.1889 2.97614 21
157 1 3.19392 -13.184 -7.22739 18
158 1 -2.96489 10.9873 -17.0972 14
159 1 -13.4371 1.50139 8.78642 11
160 1 9.37272 7.75136 -9.00435 19
161 1 -4.42511 3.50936 12.8683 18
162 1 -0.976924 -13.9902 12.35 4
163 1 1.80001 13.9406 -5.74259 13
164 1 -0.16765 5.4778 6.24482 21
165 1 15.5557 6.57507 8.91606 14
166 1 -8.50292 12.5571 1.93574 13
167 1 17.7658 -6.31566 -9.99757 9
168 1 -4.58679 10.2698 8.79249 11
169 1 7.01233 -6.87953 4.04256 22
170 1 -14.1976 2.32719 3.82546 13
171 1 -4.78419 -10.5239 -0.703846 18
172 1 4.73749 7.05979 12.8834 20
173 1 -14.2495 2.41475 -5.87851 15
174 1 -2.8389 -13.1009 -2.86025 17
175 1 1.33919 9.19819 1.9076 20
176 1 -1.91611 14.0193 9.52338 8
177 1 -6.63476 13.6169 -11.9301 10
178 1 -14.7533 -6.80491 -6.94484 12
179 1 -7.64636 -7.23213 9.2555 19
180 1 -1.18216 -12.6067 2.38176 21
181 1 6.07017 -12.1209 0.87141 15
182 1 -10.8382 10.0737 2.38186 14
183 1 15.6799 3.00934 2.90983 14
184 1 -5.09408 -4.18346 -14.3041 23
185 1 6.15654 -1.58581 10.104 18
186 1 8.92536 -17.0027 -2.19974 8
187 1 3.4681 3.15391 -16.6497 19
188 1 2.66828 -5.58203 -15.026 18
189 1 10.9705 1.97059 -17.9691 6
190 1 8.89656 7.38767 -17.043 13
191 1 -3.77496 -3.23562 -11.1606 18
192 1 -6.50376 12.5315 -8.58022 15
193 1 -10.1882 -9.01868 10.262 12
194 1 8.12981 16.6988 -2.63456 10
195 1 -10.714 2.83108 12.8755 9
196 1 -9.30191 12.2779 -10.228 13
197 1 11.0722 0.772159 7.83572 18
198 1 1.24872 -5.3407 -20.3592 12
199 1 -3.59396 10.146 -7.5342 18
200 1 4.28288 4.72623 -13.8185 20
201 1 -6.92875 -9.35312 7.44111 17
202 1 -8.31872 3.2269 6.02382 21
203 1 -9.2927 6.29948 7.97278 18
204 1 1.47001 -9.7246 -11.1789 16
205 1 -4.72218 -15.0487 -2.26093 13
206 1 11.4436 -9.39206 -4.13434 15
207 1 11.7478 8.63525 13.3976 12
208 1 8.48351 6.60797 -4.90191 19
209 1 3.77473 14.6085 -3.11756 17
210 1 -11.7293 1.23653 -0.914386 19
211 1 -12.9383 13.2959 -5.01701 10
212 1 2.42836 6.15506 8.09836 23
213 1 5.37583 -16.225 -3.35566 16
214 1 12.9986 -2.15199 -4.46789 15
215 1 -9.85045 5.77049 3.88652 22
216 1 -9.69299 -8.68676 -8.91448 20
217 1 8.22668 4.5829 -10.3695 19
218 1 7.14392 -3.57348 5.19475 18
219 1 6.72788 7.42325 -9.34864 18
220 1 1.05242 -2.37003 -15.3754 15
221 1 1.17513 -16.9972 2.4972 13
222 1 10.3499 -2.12403 -10.5266 18
223 1 -11.7637 -5.48757 5.93945 19
224 1 1.20164 -16.1333 -6.10784 13
225 1 -6.93366 -8.33421 -10.2688 20
226 1 5.04327 17.391 -7.04322 15
227 1 1.11974 -0.772466 -19.0944 17
228 1 0.249545 4.33779 14.3622 18
229 1 16.2393 4.17912 -0.389903 12
230 1 9.57848 -9.12547 -14.9635 12
231 1 -6.66296 0.513133 -16.568 17
232 1 -9.23803 -2.9654 -10.1016 22
233 1 -4.38512 -9.58936 9.21612 17
234 1 13.7847 -4.51297 7.11302 11
235 1 -6.83631 -8.61359 -17.9786 8
236 1 3.40555 6.36792 -16.3641 17
237 1 3.82589 9.01372 -2.74965 19
238 1 -1.6088 -3.5088 11.1503 18
239 1 -13.1242 -7.66129 -10.0727 12
240 1 -4.64104 -9.10447 -13.1986 16
241 1 -0.48432 10.3855 -12.7429 17
242 1 -1.36691 -6.32867 -7.75669 17
243 1 9.12252 -5.83313 -15.7394 13
244 1 16.0821 -3.88566 -10.9517 14
245 1 12.8043 4.6118 0.0854835 16
246 1 -8.071 -5.04132 6.40537 21
247 1 -0.734974 -10.8179 -3.79979 18
248 1 6.40946 10.3804 14.9983 11
249 1 -5.72041 -14.896 5.9254 17
250 1 0.408025 -12.2904 -1.80235 19
251 1 -4.39003 14.5031 -4.90163 15
252 1 6.78649 1.29608 -17.0394 13
253 1 -6.7081 -10.6757 -15.3084 9
254 1 -10.2457 -5.65104 11.348 13
255 1 4.32501 8.07422 15.8243 14
256 1 -1.17629 -13.8304 -5.30285 16
257 1 -8.51934 -7.2168 -13.5006 14
258 1 -3.23173 8.54994 -13.0701 19
259 1 12.9049 2.12207 2.11083 17
260 1 -7.57275 5.84236 -10.1903 15
261 1 0.694831 7.62303 -14.097 18
262 1 1.64592 -13.5274 -19.4918 8
263 1 -9.29392 17.1927 -2.51358 10
264 1 4.60321 10.3018 3.70954 19
265 1 9.18905 2.37225 3.68987 18
266 1 -11.2391 -1.52012 0.797778 15
267 1 -4.90577 -9.01965 12.5535 12
268 1 -4.74902 10.2503 1.62364 21
269 1 5.81097 -2.07037 -23.1345 5
270 1 15.0398 10.7627 -7.49969 8
271 1 9.24911 -9.0897 -1.18168 19
272 1 -2.46159 2.2051 14.818 13
273 1 -11.6479 -12.2261 4.55737 9
274 1 -1.63667 -16.122 -7.47169 16
275 1 -10.6183 8.46594 9.26322 12
276 1 -8.78887 6.41069 11.3769 10
277 1 -13.1192 0.787373 6.1326 15
278 1 -12.681 -10.5563 7.9389 10
279 1 16.3558 -2.46319 -5.88208 13
280 1 -14.9245 -8.15989 9.40621 7
281 1 11.9557 -5.93264 -9.31177 16
282 1 12.0492 -11.0691 -6.04995 10
283 1 1.24786 18.9823 -5.30587 9
284 1 -7.49005 9.54682 -4.12438 20
285 1 13.1324 8.57154 8.08501 12
286 1 9.99466 -6.90003 -3.01449 19
287 1 -2.73901 12.3971 0.0260724 17
288 1 3.1027 -12.4912 1.23083 16
289 1 11.5122 -3.61816 2.77417 19
290 1 -2.96159 4.43065 10.0966 20
291 1 -2.41608 5.43008 16.085 11
292 1 0.108647 14.8565 1.57443 21
293 1 10.0603 10.8509 11.009 12
294 1 -12.6708 12.7969 -9.06757 9
295 1 -3.2124 -1.96752 -21.6099 10
296 1 1.43935 -8.07708 -19.1461 12
297 1 -10.4251 2.8934 8.77543 17
298 1 -15.2058 1.59294 0.538349 14
299 1 -4.39441 10.1112 -1.99638 21
300 1 13.9721 -5.50956 4.11573 13
301 1 -7.7612 -10.9313 -2.66472 19
302 1 6.20902 -9.63442 5.88697 11
303 1 -6.94378 -10.5846 10.6736 14
304 1 -12.4948 11.3443 -2.99002 14
305 1 1.07323 -7.36778 -8.45113 16
306 1 -1.81183 -2.53301 -13.1215 18
307 1 13.8507 -1.29859 -12.1856 14
308 1 2.27073 13.0738 2.9664 20
309 1 -10.8268 -0.788258 -5.59982 19
310 1 7.20159 -4.38541 -17.9346 16
311 1 11.0141 0.299865 -13.9749 18
312 1 -1.46368 -10.8927 -14.737 16
313 1 -13.8327 -8.92814 -4.27967 11
314 1 12.4719 5.63021 13.5255 12
315 1 12.976 4.87673 -6.66445 18
316 1 -7.36082 -0.442146 -10.9105 18
317 1 3.83873 17.2744 -3.69451 12
318 1 -14.0025 -0.440548 -5.16333 16
319 1 -5.94607 6.35518 2.91634 20
320 1 -8.52774 8.85749 3.23932 18
321 1 -3.5067 6.79651 7.95568 21
322 1 9.38598 5.77986 8.9794 18
323 1 13.0046 -4.2475 -6.85224 15
324 1 8.67169 -4.54283 9.25412 14
325 1 17.4956 2.24642 -8.7403 10
326 1 -2.08145 -12.3589 -9.22749 14
327 1 -11.437 1.39178 -7.18328 23
328 1 5.54752 -10.8356 -5.60785 17
329 1 10.2948 -1.17074 5.44198 22
330 1 -8.45726 -5.33047 -8.78351 22
331 1 -4.97481 -11.6916 2.06501 18
332 1 -5.6124 -7.43237 15.0208 8
333 1 -3.73663e-04 11.407 -1.65363 16
334 1 -9.00156 -10.2708 -5.67024 19
335 1 7.33079 11.8844 12.3972 13
336 1 -8.97331 7.26383 -1.95534 19
337 1 -1.74937 11.2497 -9.93905 17
338 1 4.48109 13.9638 4.95689 19
339 1 -12.4371 -7.85898 -1.34695 16
340 1 -2.67037 -8.38131 -10.1866 15
341 1 -10.5358 -1.95207 5.02844 15
342 1 -7.25957 10.867 -6.62943 17
343 1 3.2937 -9.55848 0.372263 17
344 1 -4.70894 -14.9101 -6.28417 15
345 1 7.11484 12.0201 4.28717 20
346 1 8.52646 8.46156 -14.4519 18
347 1 -8.86281 7.87632 -7.96047 19
348 1 -1.51125 13.2769 -12.4918 13
349 1 -10.397 4.18049 -8.79158 20
350 1 -2.28559 -15.7518 0.282975 20
351 1 17.5069 6.39584 1.47927 7
352 1 0.926215 6.92854 -17.993 17
353 1 -14.4244 0.457613 -2.41341 14
354 1 -4.70748 -11.2969 5.48927 18
355 1 4.38037 -7.95405 -13.639 20
356 1 -11.7331 1.24719 2.47477 20
357 1 -10.7956 -0.577544 9.88737 17
358 1 -14.8436 6.19183 0.23976 9
359 1 -8.00536 11.5151 -12.817 11
360 1 2.85309 -9.59454 -8.59396 15
361 1 -0.0391445 -6.26022 -15.9173 15
362 1 -1.79779 -5.48939 6.44466 19
363 1 -7.36434 3.14893 -17.2234 12
364 1 5.09268 -13.2904 -3.92866 19
365 1 2.28509 8.88628 -11.4639 16
366 1 -13.9595 9.46059 4.00123 9
367 1 -4.13141 -0.916125 14.044 13
368 1 -12.5461 -8.87959 -7.28681 13
369 1 -9.60396 -4.22787 3.38051 19
370 1 9.11669 -2.07006 8.0705 19
371 1 11.6477 -7.09755 5.92934 11
372 1 14.5839 7.35208 -9.17169 14
373 1 -4.01704 0.566018 11.3716 14
374 1 5.03679 9.77105 -10.9393 17
375 1 -4.86919 -10.7565 -10.5182 18
376 1 -4.82973 4.54771 15.9147 11
377 1 0.41209 10.875 4.2219 19
378 1 -6.77181 -12.496 -13.0658 9
379 1 5.53148 19.782 -9.13437 7
380 1 2.51355 2.84595 7.64539 20
381 1 -6.17129 1.07559 6.2338 17
382 1 -7.13977 2.33634 10.6731 13
383 1 -5.04021 -6.33677 -8.60043 22
384 1 -5.70451 9.11119 4.62458 17
385 1 -2.44031 -12.8523 -12.4632 17
386 1 -0.210922 -3.78031 -17.8105 14
387 1 -2.42087 -9.88968 2.30265 15
388 1 8.83563 -2.40921 10.8799 14
389 1 -3.52401 -5.95046 12.8143 18
390 1 -10.1069 6.27815 -12.0632 14
391 1 12.104 7.85561 -0.723145 17
392 1 -7.37657 -14.551 -7.80968 10
393 1 -3.22598 16.9997 -3.60391 17
394 1 -0.729291 10.4362 9.05822 18
395 1 -14.8578 -3.72737 -5.81891 12
396 1 0.0730299 16.9697 -7.72107 12
397 1 5.51173 9.5252 -7.59728 18
398 1 -6.47619 -3.59318 -9.64953 24
399 1 6.43144 4.8027 12.3219 17
400 1 -0.839817 -9.68728 -17.6069 14
401 1 3.16605 -4.62497 -11.6359 19
402 1 10.1598 -14.4894 0.036114 11
403 1 -3.57046 13.5142 2.43429 19
404 1 2.05134 6.14884 11.606 17
405 1 7.77645 10.2349 -3.13335 20
406 1 -5.21832 10.0766 -15.6465 13
407 1 -14.4059 -5.10708 -1.00596 14
408 1 2.49997 18.3386 1.52398 10
409 1 -1.7036 2.98528 -16.7885 20
410 1 16.0123 9.49381 -4.28908 10
411 1 4.4483 10.9894 -13.4428 17
412 1 18.1662 1.78465 -2.34942 8
413 1 -3.11342 2.9974 -13.3091 19
414 1 1.61709 -14.0838 3.82788 17
415 1 3.15192 -6.12392 12.3262 11
416 1 -8.26329 6.94031 -5.4496 19
417 1 -7.11337 -12.5772 7.504 14
418 1 -2.6973 -8.20436 -15.5643 18
419 1 10.4201 13.9523 1.19388 14
420 1 5.35498 1.46106 -14.6891 18
421 1 1.84572 -2.32383 10.4918 19
422 1 -14.2877 4.01582 6.7273 11
423 1 -2.9565 -17.9962 -1.90354 14
424 1 -9.89982 -4.02435 -3.76696 18
425 1 15.9497 -8.56567 -7.68358 12
426 1 11.8505 0.184491 -3.38021 18
427 1 7.27982 -7.70538 -12.2283 18
428 1 3.87405 -2.37092 -13.5409 17
429 1 10.1093 -9.17186 -11.9332 15
430 1 -5.45618 -3.89361 14.2191 12
431 1 5.11886 16.6971 -0.724869 12
432 1 -4.97164 -1.52326 -18.6657 12
433 1 7.30973 5.69673 -19.9883 11
434 1 -6.08464 -3.94271 8.71868 18
435 1 -3.62324 18.7325 -1.06415 11
436 1 -7.24476 -2.59011 -16.2254 15
437 1 -14.5352 -1.85982 -0.28772 14
438 1 -6.25343 -5.29861 -17.6254 13
439 1 -1.92581 -10.6114 8.27268 16
440 1 -0.167712 7.85286 -10.0828 16
441 1 14.0623 3.61892 11.2065 14
442 1 17.265 7.79544 -1.86797 8
443 1 -10.1778 -12.8794 -3.85303 8
444 1 -1.55011 -0.380448 -18.5392 19
445 1 -3.51521 13.9963 5.37326 18
446 1 14.5743 -5.66269 0.721636 15
447 1 7.84599 15.3992 -6.46634 15
448 1 15.2673 5.7243 -11.7152 12
449 1 1.73706 8.90578 11.3773 20
450 1 -8.74232 -0.20572 3.99253 18
451 1 7.37847 7.66752 8.30477 19
452 1 6.92665 2.1213 14.7096 10
453 1 0.800571 1.62769 -17.366 21
454 1 -1.12863 -0.812111 14.8172 11
455 1 9.01676 15.063 3.33915 10
456 1 7.67214 10.5776 -9.22998 25
457 1 -10.188 15.3938 -5.1512 13
458 1 2.9605 11.341 -6.44674 17
459 1 11.6691 -2.30079 8.66633 16
460 1 10.2254 5.39329 -14.6584 16
461 1 12.6432 -8.44616 -7.29284 18
462 1 17.139 4.42093 6.95799 8
463 1 -14.7085 -6.94288 1.25842 11
464 1 -4.10723 11.8591 -13.5316 15
465 1 -14.2995 -1.93859 8.36531 8
466 1 -3.87373 13.3525 -10.4366 14
467 1 2.13661 -14.0026 -4.10676 22
468 1 7.19981 -1.98392 -11.7694 16
469 1 -2.35047 17.8807 -6.30288 9
470 1 -8.55413 -4.27537 -14.8612 17
471 1 7.08157 -15.5614 0.260873 10
472 1 -10.0282 -6.97101 -6.2368 19
473 1 3.37636 9.02352 -16.3315 17
474 1 -3.36681 8.34812 10.4007 18
475 1 -9.25928 -2.64286 7.9081 17
476 1 4.50106 -8.54525 -10.4831 14
477 1 4.0261 -9.58794 10.3428 6
478 1 -12.338 7.61197 1.66499 18
479 1 6.94996 7.09451 15.9992 11
480 1 5.10887 14.6388 -5.84322 16
481 1 14.6789 -6.54366 -9.44379 17
482 1 4.24569 8.22975 9.66006 18
483 1 4.00733 4.37913 -20.6449 12
484 1 -0.83512 -14.0985 8.69969 12
485 1 8.24347 -1.02994 -16.65 12
486 1 2.39604 12.6225 0.340644 15
487 1 13.1971 4.67107 -13.0298 15
488 1 0.666586 -4.74392 -13.2711 22
489 1 -4.65074 -9.55224 -7.54388 18
490 1 -11.4117 -4.54946 -12.84 13
491 1 13.2818 6.35191 2.16091 18
492 1 19.253 4.88452 -3.10962 8
493 1 6.94876 -10.6401 -13.5561 14
494 1 13.1989 3.55993 7.88406 19
495 1 4.18512 -14.5356 -9.97418 10
496 1 3.99166 6.57709 -18.8124 14
497 1 8.14798 11.6057 1.27447 17
498 1 10.4574 8.78731 9.77295 23
499 1 11.9408 7.3419 -7.17333 16
500 1 16.4166 -0.585337 2.72469 13
501 1 11.9782 5.48361 -10.2501 22
502 1 9.68607 6.88844 12.1591 18
503 1 17.6296 4.02877 11.1729 7
504 1 13.5204 13.4159 -7.81392 8
505 1 2.40498 -1.32976 13.7286 12
506 1 17.3656 0.165852 -6.97159 13
507 1 10.2596 0.131176 12.0963 11
508 1 -3.27763 0.46864 -12.4708 18
509 1 13.5847 10.1095 -2.48078 14
510 1 -9.54269 11.6267 7.65379 9
511 1 9.05857 10.733 7.0155 18
512 1 14.9923 1.9303 9.27323 12
513 1 4.75156 6.1837 6.33509 18
514 1 2.06277 16.4137 3.95776 17
515 1 -2.27178 -18.481 2.20837 12
516 1 -1.635 11.8625 -4.66941 17
517 1 8.1089 14.0261 -13.359 12
518 1 12.4486 -7.38445 -13.1982 10
519 1 7.93645 17.2093 -9.25592 9
520 1 -0.455808 -14.8754 -12.6975 9
521 1 7.61346 -8.18547 -17.2526 16
522 1 -13.3671 4.16141 2.19549 17
523 1 -6.54044 6.50366 -16.5825 13
524 1 -4.76508 -16.5725 0.82867 13
525 1 -5.79839 1.42379 -13.5994 19
526 1 -10.3624 4.1473 -5.78327 21
527 1 11.5414 -9.54265 1.11464 13
528 1 12.2244 9.45258 1.81931 18
529 1 0.690814 -10.7502 3.22099 17
530 1 -14.381 -4.41034 -9.41908 15
531 1 3.09973 1.5935 -19.7575 15
532 1 -5.86383 4.12891 8.23092 16
533 1 5.94352 10.4714 -15.6632 16
534 1 12.9545 0.475306 10.1512 15
535 1 11.1008 2.95739 -11.8849 21
536 1 10.8758 17.924 -7.47711 6
537 1 4.19955 -11.702 -12.2175 13
538 1 -11.885 -3.69712 10.5076 14
539 1 15.8448 -4.04959 3.77976 11
540 1 1.04378 17.5468 7.12509 10
541 1 7.1087 13.0296 -9.80344 16
542 1 -9.78412 13.3771 -7.41079 16
543 1 11.8756 12.2645 -0.855496 16
544 1 -6.01468 -12.232 -7.04997 17
545 1 14.743 -2.26967 1.43765 14
546 1 6.19278 13.8051 2.14173 14
547 1 -6.67683 6.07344 6.12538 20
548 1 -6.49743 -7.64064 -0.160374 19
549 1 -8.49456 2.10035 -8.88916 18
550 1 7.02762 -0.656626 12.5121 15
551 1 0.0555479 -4.83279 9.00792 22
552 1 9.19074 9.5446 13.4888 15
553 1 -5.74058 13.0093 -0.113369 22
554 1 3.51911 -0.0943292 -17.1748 16
555 1 -6.92769 -1.82562 5.87532 22
556 1 9.78389 -2.28679 -13.3064 16
557 1 11.2161 -10.996 -9.16861 11
558 1 10.9666 3.49158 10.0693 18
559 1 -8.75459 0.740335 12.8756 12
560 1 10.2682 7.7402 6.57887 20
561 1 -3.38893 -3.39892 8.36038 19
562 1 -0.835056 5.57512 11.187 19
563 1 -6.90271 -2.04837 -13.044 20
564 1 -6.70306 -0.824799 11.4909 14
565 1 8.48226 0.76719 9.48371 22
566 1 -7.42838 -10.3418 4.64061 18
567 1 16.5623 5.94771 -4.47189 10
568 1 9.29412 -12.2386 -5.83576 13
569 1 8.41318 13.1347 -1.12676 21
570 1 7.62439 15.9378 0.1899 11
571 1 6.42907 3.02243 -20.0705 11
572 1 5.76377 7.97292 -4.49056 21
573 1 13.663 7.4303 -4.07345 13
574 1 -4.53152 -10.0076 -4.61935 20
575 1 -1.41028 0.308083 -14.8166 19
576 1 -7.2248 9.43919 -0.0575475 18
577 1 3.92687 -7.79204 -16.8694 17
578 1 11.8116 10.3101 -12.9082 12
579 1 9.24408 13.3939 -7.98065 17
580 1 12.4199 6.38312 10.6826 15
581 1 12.0868 2.72929 13.0935 12
582 1 -1.5887 -6.98995 11.3249 15
583 1 -5.10479 8.13459 -18.0959 11
584 1 2.31243 11.7349 6.03123 19
585 1 9.38349 -6.84076 -19.3275 8
586 1 3.63281 19.941 -5.84462 8
587 1 9.38929 9.6728 4.0251 18
588 1 16.4283 -6.83554 -2.21882 9
589 1 4.52903 10.3605 12.686 21
590 1 -14.1797 -0.864186 2.75841 16
591 1 1.13369 -14.3934 0.331948 19
592 1 -5.31105 15.8197 -0.804655 19
593 1 7.28488 8.96373 1.87698 18
594 1 -10.1788 -4.25593 -0.596874 19
595 1 2.16695 5.83798 16.2988 11
596 1 -1.29455 2.92383 -19.3575 15
597 1 -2.20001 8.25795 -19.106 11
598 1 8.85034 -11.7936 0.624929 15
599 1 7.82595 9.26619 -6.25747 23
600 1 -11.8193 5.49546 10.4394 10
601 1 8.14395 0.614716 -13.5814 18
602 1 1.74222 -13.0068 8.25056 10
603 1 0.0537725 14.3194 -1.82743 19
604 1 -5.90025 4.80213 19.5804 2
605 1 -9.3504 -10.4756 -12.0676 14
606 1 -4.06941 -7.37518 -19.2606 13
607 1 -5.29507 -6.88455 -14.8812 19
608 1 0.875949 15.1281 -10.1 16
609 1 -0.945518 13.5711 3.89325 21
610 1 5.55558 -11.0868 -9.11864 15
611 1 7.93137 -15.371 -5.08061 11
612 1 0.995332 -10.0807 9.15283 14
613 1 15.8855 -0.324687 -10.0004 16
614 1 1.61533 -12.4651 -10.1599 16
615 1 -11.9788 -3.95621 2.53424 21
616 1 -3.6322 -17.3363 -5.01259 10
617 1 -7.47947 -11.4509 -9.07546 18
618 1 -13.943 -5.75461 11.8348 7
619 1 -6.47963 -13.6622 0.0390711 16
620 1 18.2291 3.14465 -5.37344 9
621 1 -3.65327 18.6412 2.46096 8
622 1 -14.3276 8.95595 -1.07604 8
623 1 11.4391 -0.151463 2.90848 19
624 1 -12.2067 -2.15288 -11.0429 18
625 1 -0.279861 12.9966 -8.28608 17
626 1 12.9701 -0.115149 -9.67251 16
627 1 7.45274 10.8491 9.26296 18
628 1 -14.0343 0.628549 -8.57655 13
629 1 -11.6991 -10.5899 -10.1256 14
630 1 -3.41786 6.65007 13.2018 17
631 1 7.63727 5.48104 -14.1293 22
632 1 10.98 15.05 -2.27011 16
633 1 -2.36076 -0.173345 8.11826 14
634 1 -4.7074 -16.9296 -8.80901 9
635 1 -2.93764 -11.3 11.3276 12
636 1 12.099 10.1373 5.18399 11
637 1 1.55844 -11.2795 -17.4618 17
638 1 -6.28486 11.6997 -2.74205 18
639 1 10.0202 7.75282 2.21977 18
640 1 -8.09514 -6.07939 1.64446 23
641 1 9.56431 11.0585 -15.0904 13
642 1 -2.27413 -16.048 -10.9304 10
643 1 0.409576 -17.8311 -0.58383 15
644 1 2.35416 -17.5162 -2.96577 14
645 1 6.63254 3.16205 -12.4767 21
646 1 5.14765 12.1269 -0.686707 20
647 1 -4.93515 3.72127 -15.8792 19
648 1 -0.185839 -0.826089 12.2556 17
649 1 1.32669 4.55161 -14.8374 18
650 1 -12.1191 0.14583 -13.634 11
651 1 -9.39437 -3.705 -7.03759 22
652 1 2.69566 18.0276 -8.79755 11
653 1 -3.12762 -3.99546 -19.7437 17
654 1 15.7937 4.8063 -8.4033 12
655 1 13.6675 -6.03614 -2.22214 19
656 1 -11.455 4.84863 6.74907 18
657 1 6.32567 -8.9823 0.975844 19
658 1 16.208 -1.64905 -0.960511 10
659 1 8.60813 -8.04915 6.6935 11
660 1 2.38538 7.80212 4.72037 20
661 1 -12.0971 -0.428736 12.2007 8
662 1 -5.37762 5.97634 11.1288 18
663 1 0.505726 -15.8591 6.34199 13
664 1 7.19295 8.39646 11.6512 21
665 1 -15.2775 -2.74001 -3.20351 11
666 1 9.81526 -5.7154 -6.13416 17
667 1 -6.95127 13.5923 -6.02972 17
668 1 4.44198 -14.8485 1.54701 15
669 1 5.74244 1.99161 10.9527 18
670 1 4.29693 13.8565 8.13677 16
671 1 4.29979 -11.5123 3.59309 16
672 1 1.63335 2.93718 11.4228 20
673 1 -14.1852 -6.01696 -3.89142 12
674 1 2.01118 15.3189 12.7461 8
675 1 6.28198 8.59798 -1.3379 23
676 1 -6.82173 -8.60048 2.54633 19
677 1 -4.75616 -17.9601 4.54949 12
678 1 2.58608 -6.60231 5.10243 11
679 1 12.8316 -3.50623 -0.647014 18
680 1 8.11073 5.0125 5.81481 19
681 1 1.12709 -8.49487 -14.6886 21
682 1 -2.29445 5.42586 -14.78 19
683 1 -4.8539 -2.86583 11.5842 21
684 1 -6.81845 16.6946 -4.42138 13
685 1 15.5416 1.1938 -0.234929 16
686 1 5.22355 6.36387 -11.753 19
687 1 -0.63697 7.27565 9.21851 22
688 1 10.6536 4.7093 6.24491 15
689 1 13.1898 -4.17853 -14.2827 7
690 1 -6.68799 -13.2348 -3.83485 15
691 1 14.6178 0.454075 4.6282 17
692 1 4.80124 -3.97918 -16.8698 15
693 1 -0.430104 7.64997 15.3663 11
694 1 3.64472 -10.8271 -15.3783 17
695 1 9.42974 3.61132 -20.9784 6
696 1 14.2406 1.61248 -13.4497 11
697 1 15.2211 -3.50601 -2.52046 17
698 1 1.23584 -7.64435 10.4551 16
699 1 -5.28321 -6.42157 -12.25 18
700 1 9.1544 12.5054 -4.70486 20
701 1 -10.9019 4.26352 0.805281 23
702 1 14.4564 2.21157 -7.55153 19
703 1 15.8954 10.8906 0.302186 10
704 1 -0.756177 -3.11425 -21.8487 13
705 1 -2.13105 16.3518 3.24957 21
706 1 15.4723 8.90586 2.68109 12
707 1 9.79673 13.3617 -10.8798 14
708 1 11.4333 8.0842 -15.3936 10
709 1 11.6811 -4.4467 -3.1127 23
710 1 -11.7542 1.79136 -3.78049 21
711 1 10.819 9.11224 -3.29083 18
712 1 -10.3569 -9.45271 -3.49327 20
713 1 -11.4444 9.71237 -9.49276 16
714 1 6.52136 4.00055 8.82129 19
715 1 -11.8497 -1.83504 -8.39072 19
716 1 -10.9802 2.91724 4.31136 23
717 1 9.78417 -8.1468 -9.25177 19
718 1 -12.0923 -11.399 -6.49437 11
719 1 14.6981 -5.33183 -5.06465 16
720 1 -12.0246 6.13165 -1.29766 21
721 1 15.9872 5.6889 4.33071 13
722 1 -0.164046 -12.5612 6.14803 20
723 1 9.23361 3.53431 12.86 15
724 1 11.0905 -6.23906 2.85049 15
725 1 -10.0095 3.64392 -2.23824 25
726 1 1.94218 8.889 7.63684 19
727 1 5.5603 7.82599 -14.0455 21
728 1 -3.29585 -5.11283 -16.9163 16
729 1 -0.689981 18.1842 1.35328 17
730 1 -9.002 -13.5681 5.4887 11
731 1 10.5746 10.2613 -6.28582 15
732 1 -0.946287 9.58317 12.6007 14
733 1 17.5888 -5.13323 -7.33974 10
734 1 9.02531 -7.38671 10.2952 5
735 1 -1.51179 7.80983 -15.8852 17
736 1 7.64533 10.8649 -12.2142 19
737 1 -5.17958 -0.790343 8.64984 16
738 1 16.6002 9.50758 9.57073 6
739 1 -2.60453 -5.55036 -13.4938 19
740 1 12.1253 12.2747 -4.41311 17
741 1 -12.8953 5.66673 -4.43786 14
742 1 -3.43688 -13.0547 8.33294 16
743 1 5.06314 13.1612 -11.6584 14
744 1 5.0571 -3.51195 12.9045 10
745 1 -2.63186 -11.0337 -6.41359 14
746 1 -7.68552 14.5395 -3.16901 21
747 1 -10.6956 9.86954 -6.00808 17
748 1 12.5713 -3.35688 -11.583 16
749 1 -4.44587 -10.508 -17.8763 8
750 1 -9.21055 7.07858 1.14057 21
751 1 11.4494 13.7658 -13.8817 7
752 1 7.87734 -4.31888 -21.3545 6
753 1 -10.9755 -7.72735 -11.8874 12
754 1 0.919589 -15.8147 -9.66152 10
755 1 0.0781064 16.9841 10.0083 9
756 1 5.69083 -9.17405 -2.75598 18
757 1 0.375454 9.9379 -16.8896 14
758 1 11.8932 -0.203568 -6.3839 18
759 1 9.76141 10.1142 -0.488241 19
760 1 -0.598817 -17.2843 -4.34071 15
761 1 2.22084 -1.28243 -22.4776 11
762 1 11.1526 5.25108 -4.57469 19
763 1 -1.99022 5.7724 -18.2746 17
764 1 -1.47495 -7.71035 8.53184 18
765 1 7.17688 12.3712 -6.46695 18
766 1 -4.41084 9.35755 -5.23378 18
767 1 -13.2916 6.06904 4.59484 17
768 1 5.35813 4.36418 15.8069 12
769 1 -10.225 -5.75039 8.43096 16
770 1 5.95496 8.95059 6.47814 17
771 1 -0.540304 -15.3049 -2.02433 22
772 1 3.0474 8.38868 -6.92627 19
773 1 -6.15823 11.7593 6.80798 13
774 1 -10.2944 0.980957 6.58949 19
775 1 -5.4816 15.6455 2.33691 14
776 1 0.259537 -4.51535 12.5739 14
777 1 -1.38086 -15.099 3.69742 22
778 1 13.0813 4.23969 4.59804 19
779 1 8.55879 -4.72536 -8.55333 20
780 1 6.18619 -11.2048 -16.8179 11
781 1 -7.6493 4.8527 -14.3741 14
782 1 -0.365093 0.35951 -21.4006 13
783 1 5.99549 12.0045 6.9774 17
784 1 -8.13287 0.308261 8.27379 18
785 1 -2.08602 2.54789 -10.3982 20
786 1 -13.1405 4.44041 -7.38742 12
787 1 13.0919 15.6849 -4.92078 8
788 1 -7.09416 -15.2952 3.18685 13
789 1 14.6627 12.28 2.71555 10
790 1 -9.1342 -13.5885 -10.7356 9
791 1 7.56272 14.2224 6.31412 10
792 1 -8.48698 -2.87504 13.0339 11
793 1 1.03378 -11.8118 -13.2933 16
794 1 14.4662 -1.20607 7.73573 14
795 1 3.97874 -17.5947 -0.356026 10
796 1 2.05017 12.0695 12.4806 15
797 1 11.87 3.45323 -15.2509 13
798 1 10.9163 -12.538 -3.17349 11
799 1 2.11102 0.700582 -14.5578 19
800 1 -8.90859 1.57085 -14.7403 14
801 1 -5.02959 5.31831 -18.8681 11
802 1 -10.7533 8.82115 5.94611 18
803 1 10.2197 -4.14677 5.47543 16
804 1 -11.8432 -6.45369 0.787646 17
805 1 13.4123 3.53351 -2.65623 13
806 1 6.47091 4.46049 -16.7854 23
807 1 14.8101 12.6169 -2.503 10
808 1 3.75116 11.0892 9.56444 21
809 1 -15.0538 -3.80103 2.22499 14
810 1 7.95553 -10.3397 -3.8253 16
811 2 -14.3647 -3.06324 -11.0388 12
812 2 -2.99597 13.4382 -4.24496 16
813 2 -0.177772 -1.24312 -13.9346 19
814 2 -3.87575 5.21146 12.3354 20
815 2 5.1137 -11.5674 -13.9874 14
816 2 -3.68141 -9.48557 -11.5002 16
817 2 -1.057 2.94597 13.5496 19
818 2 6.55589 0.380498 14.0246 10
819 2 -10.9324 -8.07046 -2.33103 16
820 2 -7.44689 6.66869 -7.4265 18
821 2 2.80414 13.2276 4.85867 21
822 2 -10.9784 0.531648 0.842304 20
823 2 4.01973 16.7149 -9.06359 14
824 2 11.4987 3.14862 1.11362 19
825 2 -0.796607 14.9021 -11.6375 13
826 2 12.5894 6.84036 -9.13891 20
827 2 -11.5989 -1.55922 -12.7059 14
828 2 -10.9332 -3.61991 -11.2318 19
829 2 5.36271 0.0832097 10.6816 16
830 2 8.9709 -0.969724 -11.8466 19
831 2 -0.360068 -16.0041 0.142499 19
832 2 -5.4902 9.49234 -3.39962 18
833 2 -14.8473 0.551587 -6.75208 9
834 2 15.9609 4.21346 5.26937 14
835 2 4.09915 -9.61712 -4.93958 20
836 2 -8.3942 -12.6285 -3.61622 10
837 2 -12.4733 -4.79897 4.18152 18
838 2 -2.3218 -14.0307 1.43261 19
839 2 6.80149 -7.74205 6.0716 17
840 2 -2.44984 -14.7813 -12.366 10
841 2 1.90463 2.3442 13.9796 15
842 2 0.086924 7.2942 -12.1061 17
843 2 2.78837 -16.1313 1.82625 16
844 2 -10.3076 -11.4576 -5.19389 11
845 2 -2.36884 8.04674 12.0413 15
846 2 -7.79653 7.3073 -0.156784 20
847 2 -3.11478 3.67021 15.7009 14
848 2 -3.13628 10.6939 -5.668 17
849 2 10.6228 -13.4048 -1.5566 10
850 2 -3.97869 3.94298 8.31782 14
851 2 -1.34779 10.1243 -8.16036 20
852 2 8.32919 10.6729 2.9247 20
853 2 4.91368 12.8149 -2.80064 20
854 2 12.2613 -1.57863 -10.9072 15
855 2 -5.158 7.73853 10.0732 16
856 2 5.36678 5.76806 -19.9232 12
857 2 -3.56135 6.61476 -18.298 14
858 2 12.4956 6.81511 -5.21503 15
859 2 -4.99945 -5.80764 14.1286 14
860 2 -13.4892 7.41059 -0.39202 13
861 2 14.7756 0.471484 -11.3439 13
862 2 -8.47308 -6.32759 7.77756 19
863 2 -3.98857 -7.24977 -13.5902 19
864 2 -5.72653 4.98651 -17.0586 15
865 2 -15.2287 -5.67073 2.79906 12
866 2 10.9401 10.4138 -4.5569 17
867 2 -3.49245 8.68824 1.68062 19
868 2 -0.111545 -7.53093 -6.6442 14
869 2 -1.42734 18.1299 3.25679 12
870 2 5.16956 2.33972 15.6728 9
871 2 1.929 -12.8411 5.42901 13
872 2 15.0489 2.78086 7.49675 16
873 2 2.23063 18.4753 -6.82492 12