ITEM: TIMESTEP
12000
ITEM: NUMBER OF ATOMS
2000
ITEM: BOX BOUNDS pp pp pp
-30.0 30.0
-30.0 30.0
-30.0 30.0
ITEM: ATOMS id type x y z Coordination
1 1 -6.43564 6.08222 -16.4261 10
2 1 -5.42827 -11.1842 -10.916 12
3 1 0.270456 7.45696 13.4083 19
4 1 6.99075 -10.5964 5.88884 17
5 1 -9.85916 5.81231 3.02362 21
6 1 11.8002 -8.85836 -7.70311 16
7 1 -14.7904 6.34362 -7.46081 12
8 1 1.48146 -5.97733 12.3067 15
9 1 -8.81663 0.183751 -11.6443 19
10 1 -13.2663 -5.64036 3.72149 17
11 1 11.5166 -0.167302 -13.8279 10
12 1 -4.39833 -11.7474 0.0280214 22
13 1 -12.9754 -8.77198 3.63949 15
14 1 0.610938 9.44076 17.6245 11
15 1 6.61767 -2.07204 8.36516 20
16 1 1.46963 3.06488 6.55754 22
17 1 6.86411 -3.10568 2.95013 22
18 1 -1.34213 9.24869 -8.41761 20
19 1 0.886869 4.75429 9.26787 23
20 1 -6.74892 -0.436705 -14.7408 17
21 1 -9.57716 -3.97155 12.2493 19
22 1 9.66308 2.96035 11.0757 17
23 1 0.722909 6.86017 -13.389 25
24 1 0.334877 4.45653 -16.1212 18
25 1 7.88826 -2.3774 10.6789 17
26 1 -7.03288 -0.0329759 0.982823 21
27 1 -11.7842 10.2612 -10.7675 8
28 1 -1.55167 -1.63555 -9.54989 24
29 1 -10.9407 11.8345 9.75099 11
30 1 6.91026 -9.74071 8.42978 17
31 1 -0.302797 0.362434 6.52987 21
32 1 6.46276 -13.9212 -9.82384 11
33 1 8.33363 -8.28063 0.792994 19
34 1 -1.42471 -13.7569 -4.76743 21
35 1 -10.6269 -6.47293 8.03812 16
36 1 4.01064 -7.62715 -16.4309 12
37 1 7.49725 -9.9452 -11.9868 16
38 1 -4.44137 4.30972 -15.1536 17
39 1 2.48021 3.53618 11.7975 22
40 1 -0.997166 -12.4205 2.76222 20
41 1 4.23603 -4.75029 13.745 15
42 1 -10.1395 1.88612 4.17081 20
43 1 -14.8532 -0.220402 9.46291 10
44 1 -6.83055 2.39219 -1.0286 24
45 1 -0.590753 17.4202 -5.0788 12
46 1 -1.62518 -13.9105 -7.6277 16
47 1 2.99487 0.946488 -9.39277 22
48 1 6.21973 -6.93651 -13.6321 14
49 1 -3.07351 -6.10251 12.1817 18
50 1 -17.4349 5.70345 -1.99437 7
51 1 5.71094 9.12676 -14.1824 14
52 1 2.4022 15.571 9.48936 12
53 1 -8.7519 13.3127 -6.7691 9
54 1 -5.46316 18.5541 2.48359 12
55 1 4.10572 -9.2579 2.05022 16
56 1 6.6731 -5.29228 -4.88501 25
57 1 3.14549 -4.35859 -16.301 17
58 1 -7.336 9.86354 13.2855 14
59 1 -13.4114 -1.04173 -4.15318 16
60 1 6.64065 2.24273 3.91472 21
61 1 -6.93507 8.57995 2.22964 17
62 1 -7.72099 -8.31576 2.906 19
63 1 -2.7263 13.0663 10.7727 19
64 1 -8.98471 10.2977 -8.78435 17
65 1 -0.68626 10.6933 9.97312 16
66 1 3.03164 2.68646 -6.97752 21
67 1 -3.28228 -11.2783 5.69168 22
68 1 3.15915 5.91363 6.67261 20
69 1 9.1439 -15.8824 -3.70994 11
70 1 6.31931 9.57026 13.2323 20
71 1 -13.5142 0.474149 -9.4964 12
72 1 -9.23512 9.60797 -11.9921 13
73 1 4.96563 11.4504 8.16299 17
74 1 12.5999 -2.49635 -11.811 14
75 1 7.09385 -14.6106 2.08071 20
76 1 -15.3736 0.246058 2.07777 13
77 1 -6.82297 -2.86372 -1.79935 24
78 1 6.55907 14.0747 3.32635 19
79 1 1.41901 -2.27705 12.2724 22
80 1 -7.66668 -16.2313 0.666211 8
81 1 -5.42669 -1.22078 7.26032 23
82 1 10.9203 5.83216 9.3146 22
83 1 6.55376 0.58282 -4.17455 23
84 1 0.185512 13.8121 8.42888 16
85 1 3.13953 0.17774 6.55089 24
86 1 -7.83293 -4.35234 3.50103 21
87 1 -6.7622 -4.43313 -9.94341 20
88 1 -11.3358 10.6306 6.03629 12
89 1 -4.38982 15.2871 1.70975 20
90 1 -4.14267 7.07555 -8.62352 21
91 1 8.66752 -0.199185 -7.53142 18
92 1 9.6721 13.1707 -8.78006 11
93 1 10.1458 -10.3367 7.19312 13
94 1 9.5964 -7.31691 12.7639 11
95 1 -4.80142 12.859 -11.2302 14
96 1 -10.1418 15.4457 2.76807 11
97 1 -6.93372 -1.12744 13.0006 20
98 1 -7.54351 7.32609 4.8607 20
99 1 -6.46689 -4.84152 12.243 22
100 1 14.8699 -9.91758 -6.04966 12
101 1 -8.41683 0.0803708 4.97703 20
102 1 -10.7268 -11.4414 3.71682 13
103 1 11.7456 -5.6045 -7.95172 18
104 1 1.46064 -1.6413 -15.3035 20
105 1 -7.16404 -2.99106 -18.3164 12
106 1 -0.637497 11.7858 1.18519 16
107 1 -6.78753 8.70914 -7.21423 20
108 1 4.15932 12.6028 17.818 8
109 1 -3.92354 14.3432 -1.39925 17
110 1 -10.4974 12.7105 -1.40251 10
111 1 1.16061 9.36546 1.42027 18
112 1 -4.77218 -6.00775 8.89859 19
113 1 11.1217 -5.50803 10.4708 14
114 1 -0.299372 -4.61005 -10.1313 21
115 1 1.13569 -6.89595 -9.54252 17
116 1 -1.41121 3.52327 6.83468 22
117 1 4.48334 -4.97537 16.2078 11
118 1 -10.7987 -11.4252 -3.51725 12
119 1 6.75696 -5.05383 0.439791 21
120 1 -10.5055 -4.88087 -4.9218 18
121 1 10.1555 -9.04231 9.67428 12
122 1 -6.12934 12.5994 2.18392 16
123 1 4.01258 3.30006 -18.4428 12
124 1 5.79586 17.5284 -4.08526 11
125 1 -5.03512 -10.7683 10.9647 14
126 1 -7.17757 -10.8814 5.66378 23
127 1 3.02843 -10.0941 -9.61123 21
128 1 5.10658 5.40763 -6.66606 20
129 1 11.4917 -13.0047 -0.605989 16
130 1 0.139172 -16.9322 4.47136 14
131 1 -6.11486 -11.7279 -2.82635 19
132 1 15.7804 1.36992 7.74214 15
133 1 14.7496 -0.0488392 -6.55254 16
134 1 -16.5707 -4.93104 4.07139 9
135 1 13.2398 9.51389 8.29198 9
136 1 13.3425 7.45584 4.66621 13
137 1 -4.63852 -0.619627 15.5101 12
138 1 8.3009 5.23245 -1.44175 18
139 1 -5.4215 13.8867 9.5726 13
140 1 -3.52338 15.0467 -4.767 14
141 1 6.07588 -10.1116 -14.4717 11
142 1 10.4068 -13.7423 -8.71028 9
143 1 4.44951 14.4982 -12.8325 9
144 1 5.32462 -6.10445 8.02018 18
145 1 -0.0216806 2.4271 -18.3183 12
146 1 -3.67193 6.46319 -4.11509 21
147 1 8.21574 -0.189456 -2.05892 22
148 1 -11.7359 8.9114 -7.51786 17
149 1 -7.38186 10.1189 0.338309 17
150 1 10.8097 3.29128 -9.79303 17
151 1 12.0024 -10.8652 3.49694 14
152 1 -3.37349 1.24136 -9.74876 22
153 1 -8.75337 10.3528 6.72222 17
154 1 12.1829 9.69112 -5.50831 15
155 1 5.13122 9.40931 -3.32622 23
156 1 -7.68445 16.9968 0.489293 9
157 1 11.1743 7.62022 -1.97764 19
158 1 -1.72215 12.0586 -6.44238 19
159 1 5.42563 13.0567 -10.4439 13
160 1 4.03733 11.474 -13.8882 15
161 1 -9.64748 -11.6201 -0.337469 15
162 1 -8.49842 9.31682 -3.09756 20
163 1 -5.4331 -0.0750294 -17.96 16
164 1 1.45381 -6.2641 -18.554 7
165 1 10.6452 10.8526 10.0823 11
166 1 0.84315 16.9771 4.7068 19
167 1 -15.2896 3.19968 -7.55726 13
168 1 -10.9099 10.1274 -0.183544 19
169 1 13.5715 -2.32575 -0.947352 15
170 1 -11.2567 1.99112 -11.3396 18
171 1 6.20497 -0.4441 16.8898 16
172 1 1.90217 15.0741 6.67461 16
173 1 -4.95465 8.11161 7.23026 21
174 1 1.6651 -11.6546 -12.6289 17
175 1 -9.07988 12.2005 11.9261 12
176 1 -2.78881 13.2379 -9.36037 16
177 1 3.96386 -1.8522 14.4864 23
178 1 -13.9473 0.0358172 -0.626284 19
179 1 3.73837 -8.84123 -12.2451 20
180 1 -6.02451 10.8371 -13.1808 14
181 1 2.17906 -11.6505 3.46956 20
182 1 6.25014 -14.3945 -4.18591 14
183 1 3.11619 8.65251 -11.7561 21
184 1 -10.2562 6.17368 10.8953 15
185 1 -0.350169 8.41806 -1.28603 21
186 1 7.52168 11.6107 -5.87232 17
187 1 -4.46505 7.82618 12.7643 16
188 1 -0.362952 -9.24084 8.24733 23
189 1 -4.99011 5.35278 -1.50985 23
190 1 0.0871115 20.2935 4.45979 8
191 1 -2.96201 6.6282 5.86937 20
192 1 12.5496 2.1324 11.7748 18
193 1 -8.29967 14.2247 9.11429 10
194 1 13.0536 2.8645 -7.84676 22
195 1 -1.47237 14.3183 14.5776 9
196 1 -5.41246 -1.4811 -9.90909 22
197 1 11.5106 -8.05054 5.36987 17
198 1 -4.92382 -6.39572 3.34926 25
199 1 -13.1133 2.08494 4.31818 16
200 1 -5.27371 -8.68508 5.11903 21
201 1 -1.01573 4.9266 14.6791 20
202 1 -14.21 2.24069 -3.89706 19
203 1 4.27836 -12.8133 1.69593 16
204 1 4.82878 -5.82682 -7.67386 20
205 1 -2.48997 11.3519 3.08183 18
206 1 -6.21391 2.94356 4.9537 18
207 1 9.30292 11.8194 13.0322 12
208 1 -6.65543 0.730527 -3.54721 25
209 1 -4.75164 10.7992 -8.41954 19
210 1 -17.6797 3.14018 -3.59373 10
211 1 -15.6602 -2.40647 6.90791 11
212 1 1.67333 -8.5662 5.74387 21
213 1 5.504 -12.8271 7.34015 11
214 1 -13.3911 9.41595 1.99619 12
215 1 11.792 3.57675 1.19787 18
216 1 8.41799 4.03501 -4.80695 17
217 1 -5.86004 -8.45815 -13.9899 14
218 1 -0.647825 0.751024 12.1177 19
219 1 7.48972 -10.9788 -5.4063 17
220 1 -2.17002 6.6522 -11.5408 19
221 1 2.23319 -12.1482 -6.9196 19
222 1 5.89803 0.660903 -18.136 13
223 1 3.77898 5.02167 -14.5979 23
224 1 -8.61294 -5.4919 -7.78823 20
225 1 0.129296 14.801 -9.65763 12
226 1 -10.6902 -9.54222 9.01582 14
227 1 4.44973 17.1933 -6.74048 12
228 1 -9.76437 -0.944696 13.9168 12
229 1 -1.73793 18.7476 -1.78929 11
230 1 7.17427 0.339554 11.4739 19
231 1 -2.23446 -7.02923 -9.88779 23
232 1 -3.46171 8.42122 -6.05815 22
233 1 1.46135 3.4688 -9.24379 22
234 1 -5.72114 -11.1094 2.97884 21
235 1 -6.57194 3.81179 13.1833 19
236 1 -5.47295 4.86966 7.78841 22
237 1 0.394302 -14.7242 -11.6509 9
238 1 -1.40016 -14.0728 0.118485 19
239 1 9.17879 -11.1845 1.72097 21
240 1 3.76304 -10.9493 -0.873048 19
241 1 8.05905 5.62014 14.4558 17
242 1 5.71584 9.84521 -11.0362 16
243 1 1.00054 11.395 -1.45339 17
244 1 -8.01411 2.92521 2.45212 18
245 1 -8.3944 12.0192 -3.69088 18
246 1 1.47639 9.63713 11.6364 18
247 1 8.67395 -16.2104 4.28315 7
248 1 13.5384 3.0002 -1.21543 22
249 1 -0.319088 5.93772 5.76798 21
250 1 -6.60316 12.0129 7.18426 15
251 1 -12.9911 1.29785 -6.29495 14
252 1 4.84883 1.69697 -15.3823 24
253 1 1.00182 -1.29377 9.72414 18
254 1 9.9765 5.91212 -9.40172 20
255 1 1.94207 -14.3779 -4.28423 21
256 1 3.3327 -2.58357 -12.8687 20
257 1 0.991552 -15.0957 2.19802 19
258 1 12.5056 1.97111 -4.54663 23
259 1 -10.0237 -7.08985 3.67152 18
260 1 4.4509 -12.9797 -3.29055 16
261 1 -8.90456 0.571235 -6.51987 21
262 1 6.68608 11.8597 -2.786 19
263 1 0.221161 -2.36915 -12.4657 21
264 1 8.03571 1.94159 16.2392 15
265 1 16.728 3.43104 2.80253 12
266 1 -3.38771 -4.92549 -4.8369 24
267 1 13.3404 -3.99532 -9.35552 13
268 1 -1.97722 -8.64029 0.266738 21
269 1 -7.93482 -7.81142 -9.47715 18
270 1 -6.93887 6.39823 -10.0157 17
271 1 -1.68132 -11.1479 10.853 14
272 1 10.3773 -3.61693 8.4001 19
273 1 5.00163 -2.49124 5.66438 21
274 1 -7.29881 -9.04716 -6.85903 15
275 1 1.3161 -6.72301 3.22894 24
276 1 1.87204 5.38214 -11.5848 19
277 1 4.96081 9.53576 1.46814 19
278 1 -8.99661 -8.06484 0.2647 18
279 1 2.80072 12.2178 0.576738 22
280 1 -7.62977 1.19409 11.344 20
281 1 -11.3399 -1.4627 -11.2902 15
282 1 -2.59507 -10.6549 -10.7586 18
283 1 -0.00508944 7.87651 -16.417 14
284 1 -3.39586 -11.4358 -4.19216 18
285 1 -3.31146 -8.98076 -2.68738 19
286 1 4.4901 -2.01808 -17.615 14
287 1 14.6592 0.856078 -3.02381 16
288 1 9.57493 0.135807 6.09742 20
289 1 -3.40816 -2.79724 -7.11924 24
290 1 -8.63111 -7.35634 10.2774 22
291 1 -1.55975 -14.3611 4.89303 22
292 1 2.31358 4.09405 17.9646 13
293 1 -4.03485 -14.7813 7.74849 11
294 1 1.78048 -11.693 -2.91296 19
295 1 0.970958 17.3818 -1.14774 16
296 1 6.24308 -1.54967 -14.72 17
297 1 -2.86632 -7.88179 -15.5308 15
298 1 -7.26705 -9.64706 13.9581 11
299 1 6.41187 10.5466 16.2366 13
300 1 0.347998 -15.5013 -1.92742 20
301 1 -2.85035 -13.4891 -10.1132 16
302 1 -6.71625 9.93246 -10.6831 19
303 1 12.4437 4.93387 5.73693 19
304 1 -8.13124 3.37786 -10.7848 17
305 1 0.195747 6.60094 -9.46514 21
306 1 0.01382 -5.79334 6.10279 20
307 1 8.29708 -11.7378 -8.2695 20
308 1 -2.43188 16.4431 3.26358 20
309 1 1.02208 8.62034 6.04001 19
310 1 11.1717 -0.127063 3.54589 19
311 1 -12.6953 -0.572667 3.10832 20
312 1 1.27035 -6.62813 9.01194 22
313 1 -1.8037 15.7486 6.3189 20
314 1 8.2565 -2.64431 -10.3916 18
315 1 10.4837 13.7091 -1.00517 12
316 1 8.61238 -5.14285 -2.806 20
317 1 -1.17132 -1.70667 16.7885 10
318 1 -15.7643 -4.76486 7.36818 11
319 1 4.20912 -15.4459 -6.75992 13
320 1 -3.94554 12.139 15.4912 10
321 1 -6.72298 4.64427 15.7599 9
322 1 -13.1581 -5.66852 7.7194 14
323 1 -10.3419 -4.3077 5.27561 18
324 1 14.8622 -6.94305 -4.72123 14
325 1 -9.24738 -8.22869 5.97521 19
326 1 9.80594 -4.9314 -10.0849 18
327 1 12.3685 -14.455 -3.92941 11
328 1 3.06591 12.2721 -3.09418 21
329 1 -3.18769 12.5197 -3.53294 19
330 1 9.23353 8.28559 9.40915 18
331 1 -8.4059 -3.00993 6.45515 20
332 1 5.01656 -8.05138 -3.93326 18
333 1 -4.26207 13.7634 4.33965 17
334 1 -5.39882 5.61315 3.999 23
335 1 3.17786 -8.71996 8.22453 21
336 1 13.5825 -7.39305 2.43275 13
337 1 -7.95772 7.28612 8.23492 19
338 1 -6.93319 -2.75195 -7.20298 21
339 1 2.70373 6.05086 11.6938 18
340 1 -2.89721 15.9328 9.30513 12
341 1 5.46102 4.38874 16.2781 18
342 1 -5.39118 14.3417 -7.28437 13
343 1 2.84035 -10.4819 -14.7045 14
344 1 -5.10711 -0.0385365 -6.96693 24
345 1 6.22209 -10.2334 -9.5341 22
346 1 -4.81906 9.0323 15.457 9
347 1 -10.1627 4.96573 8.0497 19
348 1 -8.56143 -1.91544 -9.51542 22
349 1 -8.48926 12.4289 1.09007 20
350 1 10.0213 -3.03777 4.00377 23
351 1 -8.62629 -13.5495 -3.16855 13
352 1 6.19088 -5.41612 5.46818 22
353 1 -8.02224 -10.5384 10.0633 15
354 1 -13.2579 9.60258 -1.65103 11
355 1 -1.12538 -4.34608 12.1168 17
356 1 6.73864 -8.67988 -6.7764 24
357 1 -5.33582 -6.9181 -10.7395 19
358 1 11.7426 -5.32354 -13.7191 8
359 1 2.66172 14.1829 3.64916 17
360 1 -8.59761 -0.567125 -1.69172 22
361 1 9.0057 -8.68661 -9.33877 17
362 1 9.33504 3.51556 -14.8325 13
363 1 -5.35686 -13.9479 -8.93024 13
364 1 -12.1186 -10.0991 -7.30061 7
365 1 0.559395 -11.0248 0.19573 18
366 1 6.0719 7.53927 15.6917 20
367 1 13.2403 -0.04573 0.530497 20
368 1 -10.0103 5.10083 -10.8945 20
369 1 2.06813 15.3379 -3.69108 22
370 1 -17.9452 4.73201 -6.887 7
371 1 -10.6237 8.50756 8.63335 15
372 1 -4.36833 10.9418 6.00754 14
373 1 -7.46235 1.624 7.72749 23
374 1 13.942 4.39899 13.4788 12
375 1 14.009 -3.62776 -5.5353 12
376 1 6.50375 -3.76876 17.0423 11
377 1 9.86549 0.396312 -4.75624 19
378 1 -3.0335 -14.4688 -2.15576 17
379 1 -3.00833 8.51746 -1.90641 17
380 1 1.90267 -7.67819 -4.85742 22
381 1 -0.942587 8.65749 3.84149 21
382 1 -6.82434 2.91983 -6.45396 18
383 1 4.57657 -10.5069 -4.22983 19
384 1 8.73046 -0.154828 8.72659 23
385 1 -8.11683 -1.68282 -4.67377 22
386 1 -5.23655 -8.23138 0.685305 21
387 1 -10.4345 -8.37287 12.7119 10
388 1 -1.41967 15.6964 0.411606 20
389 1 -8.53152 -5.56609 -2.53905 19
390 1 1.20868 10.2313 14.6125 24
391 1 -10.9691 6.72035 -2.044 19
392 1 0.750014 12.5309 -8.52423 20
393 1 3.29829 12.2602 6.23115 15
394 1 -10.8827 -8.53494 -1.82624 17
395 1 -5.27812 -11.4216 -6.56352 19
396 1 -10.305 0.997982 0.563123 18
397 1 -11.5896 10.5986 -4.01552 14
398 1 6.93503 -7.98481 10.7438 14
399 1 -7.52029 -9.86481 -0.477534 19
400 1 13.5398 7.15221 11.2212 11
401 1 6.59606 4.83064 -14.1682 18
402 1 -8.75223 5.17038 -14.076 14
403 1 -1.02375 15.5452 -3.04745 19
404 1 -10.2485 7.56261 -4.63558 24
405 1 -1.82725 -16.586 7.7065 11
406 1 12.4195 0.966411 8.68944 20
407 1 2.82693 8.7043 -15.252 17
408 1 -4.92922 -0.332355 10.1349 22
409 1 -15.8096 2.11663 -0.675188 14
410 1 -9.75985 9.34865 11.7881 14
411 1 -7.10047 -15.8166 3.49303 11
412 1 3.22503 -2.8757 -7.07277 22
413 1 8.11316 -5.75543 -7.49826 18
414 1 -1.82923 -2.85571 5.86968 22
415 1 -9.79501 -1.14233 3.02581 22
416 1 -11.9983 -1.89183 11.5037 11
417 1 -10.3494 9.43997 3.00888 19
418 1 1.40168 -2.30211 6.1008 22
419 1 -11.8911 1.42726 -15.8647 6
420 1 10.1285 -10.1117 -1.09561 20
421 1 -4.93016 -5.4364 -13.5964 22
422 1 -0.558541 -3.43933 8.45659 18
423 1 3.51978 -9.05716 -7.10331 22
424 1 -9.14384 -0.467042 -17.0792 10
425 1 6.69016 -11.0698 -0.544277 18
426 1 1.69709 11.3544 -6.229 22
427 1 -11.5302 12.2494 2.4629 13
428 1 -4.20767 1.02421 13.0156 19
429 1 -9.88439 -5.44409 -10.2997 17
430 1 -6.70693 -5.77662 5.5237 21
431 1 11.6949 -6.81855 7.85714 16
432 1 11.2021 5.89915 3.16334 19
433 1 1.48011 -1.8499 -9.73796 23
434 1 8.1356 -8.14673 7.10193 24
435 1 14.2518 9.58437 -3.88372 11
436 1 -2.1723 2.38911 9.75385 21
437 1 6.19764 12.0639 0.256115 17
438 1 4.91074 -8.24861 5.36757 20
439 1 2.08725 -17.5768 -4.93415 14
440 1 -0.758282 3.26361 17.8694 11
441 1 0.468845 17.7816 7.89032 10
442 1 -7.5465 -11.611 -9.00994 13
443 1 10.3716 13.5494 2.09011 14
444 1 1.79135 11.1678 8.37436 18
445 1 -5.23859 2.23949 16.4156 11
446 1 -6.39833 -4.89672 -4.91382 21
447 1 -13.9522 0.0233263 6.40657 15
448 1 -8.92117 -7.11912 -5.32643 18
449 1 -7.65381 10.8335 3.93948 19
450 1 -5.46264 -8.01874 -5.04722 20
451 1 -3.87669 -10.8118 -14.0371 12
452 1 -6.38247 -13.3214 0.294999 14
453 1 -3.42567 -5.8737 6.12179 22
454 1 6.42333 0.297434 6.52663 22
455 1 -7.39528 -4.74895 8.6496 19
456 1 -10.9142 7.60915 -13.2279 13
457 1 9.9875 2.85184 -2.1861 22
458 1 -1.63448 -11.3759 -2.07763 20
459 1 1.63711 5.61271 -6.64388 23
460 1 -3.14048 19.6722 -0.0465245 8
461 1 -1.93371 6.05554 -6.65414 23
462 1 1.56424 7.55325 8.98537 18
463 1 -12.0979 -6.27279 -2.91584 15
464 1 -2.27622 15.9755 -7.47913 10
465 1 9.71553 11.045 -11.0837 10
466 1 -7.96442 -9.81914 -11.7731 9
467 1 1.23873 -0.50438 15.4183 16
468 1 -3.81183 -15.6526 -6.99953 13
469 1 -2.40095 -3.88983 -12.2124 20
470 1 10.8291 -13.9707 2.13881 15
471 1 -14.8687 6.85515 0.608996 14
472 1 0.47593 1.87097 15.0547 15
473 1 9.08166 10.9625 0.0127734 17
474 1 2.98646 8.20903 -1.13392 21
475 1 -9.2385 6.87899 -7.62274 20
476 1 5.19144 -0.459905 -7.14897 24
477 1 5.42825 -8.21721 -0.34435 19
478 1 -12.4685 3.86523 0.206416 17
479 1 -1.73299 18.9432 6.29898 14
480 1 -3.90886 3.47733 -12.0568 18
481 1 10.1715 6.14626 0.444212 18
482 1 7.56894 15.1563 -6.02581 14
483 1 6.49816 -3.12056 -2.24889 21
484 1 15.5799 4.57259 -2.51482 16
485 1 -2.0273 4.7896 -14.0253 19
486 1 1.66524 -8.42856 0.285835 18
487 1 4.17366 -11.615 9.60642 11
488 1 1.44983 -9.23893 10.7738 15
489 1 -4.95609 3.95207 -9.2303 22
490 1 -8.43019 -13.4481 5.17831 16
491 1 -0.968758 -12.3245 -12.6996 16
492 1 9.73746 13.4826 5.16835 15
493 1 4.2594 3.04294 -12.075 22
494 1 1.02744 -4.09466 15.0853 13
495 1 -8.20173 -1.0204 8.60824 19
496 1 1.09493 -17.2973 -0.161704 19
497 1 -15.7218 -2.41993 4.03074 12
498 1 10.5537 -2.20836 -8.54145 22
499 1 12.1218 -1.77462 -5.70262 18
500 1 -6.0369 12.1074 -1.67519 17
501 1 0.0189032 -9.09559 -12.3475 20
502 1 4.85736 3.72536 -9.38489 21
503 1 5.49499 -0.715447 -11.6403 18
504 1 -4.18809 -3.21076 12.6468 20
505 1 4.55429 16.4422 -1.63729 14
506 1 -5.63917 -5.85435 -16.2736 15
507 1 8.12453 1.1492 -15.5507 13
508 1 -5.28696 3.07845 10.2854 20
509 1 -3.41613 19.7803 3.674 10
510 1 -10.3174 -3.88732 -13.0047 11
511 1 -9.23329 4.06513 -0.308858 19
512 1 -0.144126 -6.25996 -12.2842 17
513 1 -1.55689 -6.02089 9.48376 22
514 1 0.322077 8.05142 -6.62694 20
515 1 15.0966 -1.67346 6.64473 11
516 1 16.7309 8.02622 -1.94063 9
517 1 -8.16299 -9.74443 -3.77209 19
518 1 0.382973 -8.88757 -2.26437 19
519 1 -5.26018 -3.13587 -15.6569 19
520 1 -10.6734 7.27363 5.43649 18
521 1 5.35269 -7.58696 -9.74746 19
522 1 3.13572 6.39922 -4.09235 19
523 1 10.2834 0.476927 0.754055 20
524 1 3.70599 11.8091 -8.71838 16
525 1 5.27337 -5.64336 -2.23418 22
526 1 9.73708 3.03634 -7.15226 20
527 1 4.41219 10.3917 10.3329 18
528 1 -10.4302 1.96915 7.55203 24
529 1 7.38773 5.53488 8.78245 19
530 1 9.05856 -1.43619 16.2276 11
531 1 -4.3849 -2.02269 -20.2922 6
532 1 -4.96878 -5.63457 -7.61727 21
533 1 -2.12519 -0.571077 8.30055 22
534 1 6.89233 12.3502 5.80099 19
535 1 8.4119 7.83975 -12.2752 16
536 1 -8.54296 12.6224 -11.2537 12
537 1 0.0535957 12.2717 -4.14726 21
538 1 7.61059 -5.44701 11.3764 17
539 1 12.413 4.04667 -13.7774 7
540 1 12.1475 -7.71795 -5.03525 21
541 1 11.2809 6.40339 13.3677 14
542 1 -14.3242 -3.07143 1.71506 16
543 1 -4.34297 7.81388 -12.449 21
544 1 0.806853 1.61734 9.40124 23
545 1 -10.5371 2.89391 10.5132 18
546 1 -6.86634 14.155 -9.63741 8
547 1 3.43527 -18.8458 -1.58635 9
548 1 6.28532 1.28903 -9.76257 20
549 1 -4.52215 16.926 -1.07027 14
550 1 -7.89635 -6.04281 -13.2887 16
551 1 1.53982 -13.9705 4.67041 17
552 1 -11.8041 -9.23523 -4.89842 12
553 1 1.90836 11.8357 -11.4178 20
554 1 -12.1887 5.28193 -7.25148 21
555 1 0.899123 12.385 17.1912 12
556 1 -6.54132 -8.13295 8.19513 22
557 1 8.24641 5.85999 -6.97873 20
558 1 -0.151016 -11.5751 -9.29837 20
559 1 3.48736 -2.95879 8.95167 18
560 1 6.49128 2.6355 -6.61336 22
561 1 -8.18591 5.75827 -2.27927 24
562 1 4.80771 2.12044 18.4329 11
563 1 4.98762 14.5023 -4.88619 22
564 1 10.1803 -4.28382 -5.42009 21
565 1 3.59011 8.61379 13.5103 22
566 1 -3.0228 7.25774 -15.4173 15
567 1 -4.16618 -9.0231 14.1298 9
568 1 -0.0283009 1.05455 -8.99042 23
569 1 2.66793 0.369586 -18.4236 16
570 1 3.95844 16.497 4.58346 12
571 1 9.85916 5.25907 -12.4158 17
572 1 -1.9326 -2.47987 -14.6944 17
573 1 -3.14994 -8.49456 -12.5527 21
574 1 -12.4373 -5.0899 -10.174 10
575 1 10.3972 2.65787 3.65936 19
576 1 14.1305 8.83242 -0.541651 14
577 1 6.60063 -4.44195 -10.3365 17
578 1 15.6908 2.13996 11.1789 14
579 1 5.32585 -12.4454 -7.3333 21
580 1 5.2683 6.78983 -16.7483 11
581 1 8.02455 11.1609 3.0904 21
582 1 -8.17376 4.63876 6.10835 23
583 1 9.1851 8.66733 14.8137 12
584 1 11.6194 8.46543 1.14788 18
585 1 13.4441 -2.65205 3.0901 18
586 1 9.91809 8.66103 -7.36678 17
587 1 6.07995 0.486227 13.7431 23
588 1 14.9258 -0.464758 9.87644 13
589 1 -3.98382 -3.23698 8.9326 22
590 1 12.3753 12.9663 -3.64002 9
591 1 2.98165 0.157713 12.2911 23
592 1 12.4687 4.9442 -2.82199 19
593 1 6.9416 2.77239 9.24931 20
594 1 -6.65445 1.25697 -9.26834 23
595 1 13.5485 5.85117 0.346755 22
596 1 8.10572 -2.22882 0.318964 21
597 1 -8.53147 6.92079 13.5274 11
598 1 6.24569 12.4811 13.0744 14
599 1 10.2201 3.61287 13.9678 15
600 1 4.81068 13.5069 10.1045 16
601 1 2.7037 14.0496 12.3339 13
602 1 4.68716 3.00902 6.60724 22
603 1 -3.85488 -13.392 2.86381 17
604 1 -5.23815 10.2073 -4.42458 19
605 1 12.8455 5.53499 -10.6717 16
606 1 5.65801 -4.23895 -15.184 15
607 1 0.440793 13.9666 -0.617567 21
608 1 -1.96199 -10.8799 -7.26705 18
609 1 10.193 -2.99236 -15.7906 6
610 1 -13.1577 2.63831 7.61555 15
611 1 -0.277441 9.20831 -11.3893 21
612 1 -3.48972 -16.523 4.85679 15
613 1 -5.86498 0.848001 -12.1001 18
614 1 -9.53559 4.64167 -5.42063 16
615 1 8.22704 -6.26361 3.29161 21
616 1 14.0037 9.4519 2.66381 15
617 1 8.9878 -9.52878 4.22036 19
618 1 -10.1524 2.7126 -8.17814 15
619 1 -1.66086 -0.573327 -18.946 11
620 1 -0.0168421 6.26302 16.9038 15
621 1 6.14762 12.5159 -15.245 7
622 1 11.8069 -1.68378 14.7972 7
623 1 7.54055 4.49297 -9.98321 18
624 1 11.1514 8.61549 6.83237 17
625 1 3.88277 -16.0672 -2.68871 17
626 1 -11.7885 -5.9431 11.6004 11
627 1 11.6932 -5.39737 3.43562 18
628 1 -0.38364 12.4308 12.7615 20
629 1 4.38866 15.834 -9.9334 8
630 1 -9.01281 9.93515 -5.99292 18
631 1 9.94873 5.84918 6.24996 16
632 1 -2.0539 -17.3904 -1.07113 14
633 1 15.3017 -7.87642 -0.970989 12
634 1 2.59148 15.6015 0.740215 18
635 1 -2.59902 5.2934 8.72925 22
636 1 -11.9444 -1.86097 0.272181 20
637 1 -7.59136 -2.70557 -12.5285 19
638 1 7.14431 -2.55079 13.7971 21
639 1 -3.02 -8.47541 9.78376 19
640 1 7.51372 3.43494 12.9181 20
641 1 -1.048 14.2758 2.81692 18
642 1 6.40336 6.08331 6.02998 19
643 1 8.74585 8.5651 1.89252 19
644 1 1.57272 0.340323 -12.0161 22
645 1 -13.0521 -2.33986 8.41702 17
646 1 6.76007 3.96156 -16.9182 14
647 1 -1.68901 -5.89155 -7.268 23
648 1 12.8214 -12.2086 -6.50922 11
649 1 8.62583 6.18125 11.9367 17
650 1 4.50241 5.06266 4.04477 21
651 1 -5.41683 -6.23355 14.6148 13
652 1 6.44289 8.3917 7.75437 18
653 1 2.89189 0.854398 17.0387 16
654 1 -1.26976 7.77403 7.98548 20
655 1 0.206735 -7.51695 -15.8413 14
656 1 -0.8157 3.55815 12.1471 19
657 1 4.94896 5.91524 13.0287 22
658 1 -6.83983 -12.8154 8.498 14
659 1 14.0119 2.66932 2.57625 21
660 1 10.2598 -10.2756 -4.03949 16
661 1 -3.7348 2.9204 -6.61247 23
662 1 8.36892 9.29856 -2.97441 18
663 1 12.827 12.0035 4.28673 11
664 1 -0.782206 0.624631 -14.6444 20
665 1 -4.18649 2.01907 7.6947 20
666 1 4.7103 11.5173 -5.56929 19
667 1 11.6887 11.4115 1.27178 15
668 1 -5.16316 -6.20277 -2.2776 17
669 1 -3.30189 -1.58145 -16.8052 17
670 1 -7.47028 14.5574 -1.34529 14
671 1 9.48272 -8.16678 -12.902 10
672 1 6.95003 5.91505 1.60299 17
673 1 15.4546 5.07704 -7.71414 14
674 1 4.40042 13.8033 -1.1949 20
675 1 -4.171 8.31363 3.88861 18
676 1 -6.73015 5.54387 0.930123 21
677 1 6.34334 7.29737 -9.15758 22
678 1 9.69044 0.747009 13.6044 19
679 1 9.84562 -3.82524 13.0736 15
680 1 -1.96353 -12.7406 7.87187 17
681 1 -1.91139 9.39936 -13.8489 18
682 1 5.35818 15.9182 7.90478 11
683 1 12.3734 -6.13462 -11.0958 10
684 1 3.67464 2.21547 9.14404 21
685 1 6.68248 8.72908 -6.53382 20
686 1 8.3463 8.80251 5.50767 17
687 1 14.727 -6.34102 -7.43934 12
688 1 3.93139 2.77159 14.081 18
689 1 -10.9677 -3.76189 2.73723 17
690 1 3.99955 -16.4782 0.0531105 19
691 1 -0.518409 -2.91931 -6.66969 24
692 1 -7.037 15.6008 3.28496 17
693 1 -3.68561 0.0734068 5.74577 19
694 1 3.43041 -5.06196 -4.62292 21
695 1 4.54422 12.1684 4.03042 18
696 1 -14.1865 -3.24097 -1.90595 13
697 1 2.68128 6.23537 14.9223 19
698 1 -6.52924 5.12808 -12.519 17
699 1 0.662772 10.3794 -14.0216 15
700 1 3.48705 -17.6374 5.13959 7
701 1 11.9924 10.8749 -8.4789 13
702 1 4.751 -6.39731 2.92882 20
703 1 -3.59876 6.45802 1.14677 22
704 1 -8.15654 4.07042 9.95449 21
705 1 2.69458 -5.91186 -13.8129 19
706 1 5.91266 -11.7252 3.70445 20
707 1 2.36677 18.1061 2.27197 12
708 1 -3.54701 5.2653 16.0884 11
709 1 -9.94189 -2.74609 -7.08954 20
710 1 -0.80827 -10.268 -14.9368 14
711 1 -3.54377 -16.8283 -4.28066 14
712 1 0.826187 14.8067 -6.50691 18
713 1 3.11394 -4.74114 -10.3443 19
714 1 -3.24312 13.5634 7.17882 15
715 1 7.6371 -8.42769 -3.22213 20
716 1 10.9309 -15.9845 -0.857401 10
717 1 2.98414 -5.56681 5.66571 21
718 1 17.3597 2.51774 -7.67177 7
719 1 7.45429 -14.8393 -6.97614 15
720 1 -10.4296 4.17213 13.7158 12
721 1 2.0452 -18.3939 2.20256 11
722 1 -5.65634 -13.9828 -4.97226 18
723 1 -12.136 0.142871 9.26739 14
724 1 -1.5905 -16.988 2.21015 16
725 1 15.0409 3.39121 -4.98725 17
726 1 -5.68934 20.0373 7.2501 3
727 1 -10.1757 -4.1758 9.46704 17
728 1 -11.8446 6.95637 0.540096 21
729 1 8.49021 -0.131496 3.02239 21
730 1 -10.5859 -0.364363 -8.33696 20
731 1 -1.38462 9.3247 -3.93578 19
732 1 7.90585 -0.0602141 -13.0131 17
733 1 11.2346 9.51036 12.6087 11
734 1 12.8927 7.55195 -8.13606 17
735 1 -10.8586 7.61135 -10.0612 17
736 1 -12.2058 -6.41659 -7.29195 16
737 1 -2.21729 7.71012 15.1794 18
738 1 4.833 6.58591 -12.2452 19
739 1 14.149 4.61965 10.7626 17
740 1 -3.66992 4.68549 11.7409 16
741 1 -0.599748 -18.5944 -3.25027 11
742 1 -5.41011 -13.4816 5.48698 19
743 1 -1.79143 -8.4087 4.94088 18
744 1 17.1084 3.84875 9.17273 10
745 1 1.48554 -5.75082 -7.32558 23
746 1 -5.974 8.23807 -1.05907 22
747 1 6.42914 7.78482 -0.926585 18
748 1 -10.2983 -5.05123 -0.619244 19
749 1 10.9811 8.57471 -10.9556 13
750 1 1.50403 -15.4842 -7.77958 12
751 1 5.92753 -17.644 3.05739 10
752 1 8.49533 -13.6111 -0.0641212 18
753 1 7.33486 2.90234 -12.6724 17
754 1 2.37811 18.2503 -4.80211 9
755 1 -6.17879 2.22239 -16.7711 11
756 1 -2.05834 -1.38182 14.0658 18
757 1 -2.1735 5.55005 -17.4025 11
758 1 -10.1962 -0.620257 -14.3351 16
759 1 -16.3229 -0.299889 -2.72891 9
760 1 3.18653 14.2233 -7.29543 20
761 1 8.13663 3.78765 6.45917 20
762 1 -8.07646 -3.50713 -15.7088 15
763 1 -7.00415 -5.5934 0.769972 21
764 1 12.059 4.84999 -6.54726 20
765 1 13.4677 -8.94372 -2.95194 16
766 1 -4.35228 12.0403 12.5818 18
767 1 9.09367 -12.6888 4.02801 16
768 1 15.2387 -5.02353 -2.50513 10
769 1 13.189 -3.68114 8.93634 13
770 1 0.921731 11.0279 3.85841 18
771 1 -11.3745 1.35909 13.3413 9
772 1 -7.2356 9.61573 9.78963 17
773 1 1.02467 -11.7411 9.18565 17
774 1 8.52816 2.9031 0.661537 19
775 1 6.01534 7.68165 10.935 19
776 1 -11.0575 0.229361 -4.77978 20
777 1 9.96398 -5.262 0.652985 20
778 1 -5.9921 13.5554 -4.46328 18
779 1 2.90918 8.18584 3.3436 18
780 1 2.72889 -14.4509 7.68103 11
781 1 5.26004 -2.08031 11.8174 22
782 1 -0.216287 18.1317 1.76519 17
783 1 -0.0853474 -11.1571 5.8864 20
784 1 -11.466 0.983299 -2.45321 17
785 1 4.3517 5.31427 9.43943 20
786 1 -13.4169 -4.13343 -4.37738 14
787 1 1.49742 14.0682 15.2768 12
788 1 4.8232 15.2961 2.04859 18
789 1 -11.6183 -9.57873 0.900345 14
790 1 -0.297931 -14.3153 9.56537 9
791 1 8.19065 -2.54836 5.65857 24
792 1 9.54646 -5.587 5.7396 20
793 1 4.1669 9.13075 5.9247 17
794 1 -2.02193 11.699 -0.959042 18
795 1 0.389786 -8.68653 -7.5349 21
796 1 -0.944795 2.18193 -11.6922 18
797 1 -2.05654 -1.65831 10.9121 18
798 1 -4.45457 16.777 5.08932 20
799 1 11.9631 -2.16348 6.33358 21
800 1 3.92817 8.47258 -6.38944 21
801 1 -1.80253 9.99003 12.7938 19
802 1 10.2104 3.09809 8.22651 21
803 1 10.3348 0.135031 -10.56 15
804 1 -8.30483 -11.3641 2.20039 22
805 1 -3.084 -0.629667 -12.5087 19
806 1 11.2945 -1.31209 11.0667 17
807 1 3.69434 0.0500761 -13.9927 19
808 1 -2.10554 1.58259 15.0672 20
809 1 13.5644 -11.5685 -3.19263 13
810 1 2.3938 5.90778 -17.2503 11
811 1 -1.54243 -7.78589 -4.78119 21
812 1 15.3021 3.2799 -10.1476 11
813 1 13.5947 -5.2104 0.52619 13
814 1 4.22293 -5.82921 10.3945 15
815 1 -4.13728 -9.22898 -8.33404 17
816 1 7.52286 14.9496 -2.70616 15
817 1 -1.84802 -6.39486 2.94038 21
818 1 -13.3382 6.16712 3.3108 13
819 1 16.5798 5.25304 0.0647191 15
820 1 15.9348 8.10732 1.49018 12
821 1 1.54155 -2.65903 -18.272 11
822 1 -6.06835 16.866 8.65912 10
823 1 12.4775 1.68046 5.69337 21
824 1 10.9409 13.5372 -6.31146 13
825 1 2.29254 2.54376 -16.5759 17
826 1 11.7351 -0.193752 -2.02851 19
827 1 -8.97515 2.54415 -3.27658 18
828 1 15.5816 5.87565 3.00227 15
829 1 -12.8869 -6.22716 0.95947 15
830 1 -4.90373 9.20361 -16.0588 9
831 1 5.44083 2.15285 11.4624 22
832 1 -13.359 -2.82184 -7.33367 12
833 1 -10.8999 -0.599033 6.06053 20
834 1 -2.11638 4.12909 -9.09706 24
835 1 10.7472 -10.7076 -10.6634 9
836 1 -9.52581 -11.5361 -6.18113 13
837 1 13.059 -10.3361 0.43455 15
838 1 -14.7088 3.52016 1.78281 11
839 1 -10.0742 -2.823 -3.24476 20
840 1 16.9232 5.24174 12.2923 8
841 1 -1.01039 -8.03687 11.5425 16
842 1 3.82422 -1.67004 18.2871 10
843 1 13.401 -4.81705 5.73611 15
844 1 11.141 -8.33009 1.61997 22
845 1 -11.1876 4.38361 5.31686 17
846 1 7.29468 11.019 10.4514 20
847 1 3.5308 6.43244 -9.12687 21
848 1 -2.38245 -5.05988 -16.2009 15
849 1 -7.07187 12.8814 15.0505 6
850 1 -11.6693 -9.23431 6.24362 14
851 1 10.4205 15.6154 -4.10409 10
852 1 3.92174 12.0306 14.6403 18
853 1 11.6438 0.476 -7.85068 22
854 1 7.54946 -6.19546 14.557 13
855 1 -3.07596 10.0976 -10.8592 20
856 1 1.75779 9.01578 -8.99893 19
857 1 -6.51796 -2.86486 10.3947 21
858 1 14.7244 0.435385 4.51722 15
859 1 -3.6014 -4.27375 -9.93902 21
860 1 8.17832 15.0423 0.486639 12
861 1 -11.8323 4.3328 -3.89543 19
862 1 -4.94366 -10.0865 8.0859 19
863 1 7.32565 10.6413 -8.54709 15
864 1 4.63061 -0.480174 9.20605 20
865 1 7.20053 -16.8345 -0.420106 13
866 1 -7.68184 15.8247 6.44523 10
867 1 -15.0602 4.84477 -4.75298 18
868 1 13.8882 1.00006 -12.3273 8
869 1 4.83117 -12.1619 -12.0864 15
870 1 -9.03306 7.64444 0.609207 21
871 1 10.5671 10.7048 -3.71206 15
872 1 -5.02172 -3.30085 5.31201 21
873 1 8.47888 -3.92664 -13.4826 16