ITEM: TIMESTEP
31000
ITEM: NUMBER OF ATOMS
2000
ITEM: BOX BOUNDS pp pp pp
-30.0 30.0
-30.0 30.0
-30.0 30.0
ITEM: ATOMS id type x y z Coordination
1 1 -8.19857 8.95759 -18.6008 14
2 1 -3.65509 -4.51952 -4.84788 22
3 1 3.06814 13.1224 8.03453 23
4 1 4.77307 -7.76594 3.16366 15
5 1 -8.98583 16.8139 -6.6911 17
6 1 8.79299 -4.39374 -15.6668 10
7 1 -6.09268 10.5973 -10.2143 21
8 1 2.67507 -4.79884 9.5606 12
9 1 -10.7968 7.8764 -18.1293 12
10 1 -13.1971 1.32604 2.16663 18
11 1 13.4567 8.63797 -14.6544 11
12 1 -5.71124 6.54734 -3.71829 21
13 1 1.18579 -7.03106 -5.52634 20
14 1 -14.5474 -1.87896 -4.05558 10
15 1 -3.92581 7.72817 15.7381 13
16 1 8.23781 -3.8346 8.5525 13
17 1 -1.55354 8.14731 5.25507 21
18 1 9.03742 2.51806 1.34254 21
19 1 1.46732 18.1988 -9.59653 21
20 1 6.02466 2.12001 12.1141 13
21 1 -7.37974 3.79456 -17.8693 14
22 1 -12.1916 7.32744 10.3465 18
23 1 14.0149 9.95436 0.720422 20
24 1 6.44632 15.198 -14.2166 9
25 1 1.28064 10.3669 -10.2023 21
26 1 15.6173 6.71011 12.0683 11
27 1 -8.32322 2.71391 4.14415 21
28 1 -10.9345 6.62995 -10.6904 20
29 1 -2.60615 -1.27246 -9.72168 22
30 1 -10.0832 17.5054 5.58938 12
31 1 9.47357 -6.43755 2.92104 13
32 1 1.67951 2.48722 5.6328 19
33 1 2.95168 -9.58393 -10.7358 22
34 1 9.98346 -6.19012 -0.786478 17
35 1 -0.215918 -8.07201 -2.6568 20
36 1 -13.4277 4.92302 10.5093 10
37 1 4.58622 1.18694 -7.33581 24
38 1 1.11863 -5.03547 -10.5472 20
39 1 13.0504 -0.470998 -8.37635 19
40 1 -5.52375 12.8127 -12.6707 17
41 1 0.925122 14.2347 11.7859 20
42 1 -7.64207 -2.30722 -2.84604 21
43 1 5.35425 0.781974 9.10171 18
44 1 -16.0851 5.99729 1.05718 15
45 1 -16.0647 8.67258 6.19911 9
46 1 -8.86038 6.52041 -4.07097 19
47 1 -4.91146 21.0699 0.0376974 18
48 1 6.31437 -8.52602 -10.2783 21
49 1 0.818632 2.85408 -12.7712 21
50 1 3.84109 -6.81446 -10.6733 18
51 1 -0.0174578 0.397293 12.8449 13
52 1 -15.0843 16.529 -6.73188 13
53 1 8.45489 17.5894 -9.00444 11
54 1 -1.52791 16.4702 12.2906 15
55 1 -4.64758 12.8388 -8.59597 20
56 1 -3.77667 19.128 -1.81334 20
57 1 4.54219 -11.1541 -2.07372 14
58 1 7.44796 -0.536365 -9.76217 22
59 1 -0.362834 -9.49466 -10.9511 14
60 1 -6.14316 14.9233 7.32503 19
61 1 -13.559 2.4268 -9.50776 19
62 1 7.09484 7.28267 3.54724 22
63 1 -6.43325 8.72538 -8.53069 20
64 1 -6.8548 -7.03176 4.42743 18
65 1 -0.828755 11.1715 11.0003 22
66 1 -11.9013 10.4765 -9.12662 18
67 1 -2.38524 12.9741 13.15 18
68 1 3.99125 11.1945 -4.90795 24
69 1 3.31493 11.2505 5.21637 22
70 1 -9.74524 -7.2293 3.47871 11
71 1 4.22049 9.54361 8.51815 20
72 1 8.10659 -5.78674 -5.97066 19
73 1 7.27626 12.9981 12.5958 17
74 1 -12.8426 5.73971 -13.1579 16
75 1 -11.6822 8.70099 -13.1936 18
76 1 5.77407 10.5726 11.6493 22
77 1 9.74653 4.01038 -14.6703 18
78 1 6.56505 -6.59007 6.07926 14
79 1 -15.7139 4.80619 4.37087 11
80 1 -7.40074 3.26161 -3.33695 19
81 1 5.64213 15.9139 2.30848 17
82 1 8.55376 4.48486 11.912 19
83 1 -13.2153 -2.54132 -0.139901 13
84 1 -11.7029 9.20974 0.0542795 21
85 1 18.6977 9.57008 2.78375 10
86 1 10.9441 4.88834 -4.96816 17
87 1 -4.23102 17.1676 8.42323 22
88 1 6.98376 5.17441 6.19727 21
89 1 -7.45058 1.93657 -0.1393 19
90 1 -8.53346 -2.31886 -5.83698 18
91 1 -12.9476 13.8311 -1.47299 23
92 1 -10.5694 14.3899 -4.9888 19
93 1 1.10657 15.3986 -7.08008 19
94 1 7.59691 5.31114 -4.63495 23
95 1 6.19126 4.35512 -7.42352 24
96 1 4.70293 18.2894 -9.36477 18
97 1 10.477 -0.459683 0.780176 19
98 1 7.49732 -3.80911 4.54555 19
99 1 -6.15736 17.6844 -5.73583 20
100 1 -7.41514 18.1473 4.28414 16
101 1 -8.24552 -0.419379 10.2902 17
102 1 -4.64975 13.7526 4.62323 18
103 1 -4.27997 0.425118 8.34023 22
104 1 10.7173 0.293081 -6.67352 23
105 1 -6.93484 10.1794 0.526759 21
106 1 -9.88481 -6.79112 -2.03274 9
107 1 9.2963 -1.42552 -7.9511 20
108 1 9.16792 1.73471 -16.5597 10
109 1 -3.35121 4.32398 -17.7741 18
110 1 5.32478 4.34547 3.01331 24
111 1 -4.89571 17.8977 0.658524 17
112 1 -7.48636 6.17862 -10.3159 18
113 1 -0.859611 10.3291 16.3704 10
114 1 -0.405319 19.02 -7.22353 18
115 1 -14.3054 19.7964 -1.0436 10
116 1 0.655999 13.0263 2.98881 20
117 1 0.15798 -3.86388 8.97593 15
118 1 14.8496 4.17453 4.14003 19
119 1 1.22919 -2.00211 -9.52648 22
120 1 5.73894 -1.63404 -6.89192 20
121 1 -0.561602 7.45848 8.34473 20
122 1 0.526262 2.09427 10.8614 20
123 1 -13.5991 4.05138 -3.2323 19
124 1 6.90965 1.22218 3.31597 21
125 1 -12.3916 -2.5609 -6.57571 15
126 1 15.82 -4.2477 -4.06055 9
127 1 -4.36355 14.5571 -0.517908 23
128 1 12.1005 11.6978 -12.3249 12
129 1 6.77052 20.0915 -4.07589 10
130 1 -7.28357 -4.07993 8.478 13
131 1 -8.9096 -5.71276 6.50548 15
132 1 -4.14267 8.05612 -5.47809 20
133 1 5.47371 0.914327 -12.406 19
134 1 5.88455 8.09301 -4.83904 25
135 1 12.1237 0.283099 -3.4075 22
136 1 -4.18467 -6.59111 4.36067 22
137 1 -5.92501 -4.67637 2.59335 22
138 1 16.8493 10.9841 7.26954 10
139 1 14.9796 1.73038 -10.5767 17
140 1 -16.0934 4.46463 -1.59706 15
141 1 13.0969 18.0505 -1.75886 7
142 1 13.4706 15.8024 -0.122462 14
143 1 -6.45537 5.06116 15.53 8
144 1 6.2797 10.1208 -7.29931 23
145 1 -3.866 14.4155 10.6003 17
146 1 -7.6662 13.6836 -7.49259 25
147 1 -6.11708 -3.80837 -13.2595 14
148 1 11.521 -8.65908 -9.28255 13
149 1 -1.41166 16.1374 -12.0095 13
150 1 12.9871 4.49458 7.70175 16
151 1 0.916418 -2.122 -17.544 15
152 1 0.269757 15.3434 -10.1304 19
153 1 8.95735 9.80087 -1.78895 20
154 1 -10.6565 12.9506 -7.83947 18
155 1 -8.70644 19.5165 -4.43358 13
156 1 6.24861 3.99442 -12.1881 19
157 1 10.6019 -2.66685 6.19411 12
158 1 -3.87601 3.75941 -8.42227 17
159 1 -0.440397 21.2223 9.35878 10
160 1 12.8173 9.61476 -2.3884 18
161 1 2.66879 15.6436 -3.12385 22
162 1 -6.72129 23.9737 -0.688507 9
163 1 12.8657 15.0251 -3.30345 16
164 1 0.601209 15.9488 -1.4457 18
165 1 1.14691 12.8794 -8.90554 22
166 1 -0.468351 19.3171 -12.6482 11
167 1 -12.5603 3.6966 5.55663 17
168 1 -14.5145 18.3294 -3.56442 12
169 1 -4.73845 0.228023 -7.9166 21
170 1 7.44881 -7.91075 -15.2319 10
171 1 8.18967 18.833 5.14084 16
172 1 0.0269886 18.3084 10.9732 17
173 1 -9.95972 8.78493 -5.2861 18
174 1 -10.127 15.394 0.580901 19
175 1 16.0748 2.49442 -4.55261 18
176 1 -8.20075 6.0475 -19.5445 12
177 1 6.51356 3.80694 14.3885 17
178 1 2.72496 21.3837 4.83812 13
179 1 -2.81256 13.2175 1.95863 20
180 1 5.89751 -3.53744 -10.669 19
181 1 -5.74928 12.5919 8.77794 21
182 1 -2.80683 12.5389 -3.22742 18
183 1 0.810214 3.88416 14.1763 13
184 1 -15.7338 2.4843 1.02628 13
185 1 -2.32572 -6.90665 -10.5078 20
186 1 -3.49696 10.1864 -12.0589 19
187 1 0.835314 -4.33156 3.11595 18
188 1 9.26708 -8.96955 -5.07481 14
189 1 -3.9405 15.0803 -11.4348 20
190 1 -13.7051 6.69393 -0.985577 18
191 1 6.9722 16.9715 -5.72673 13
192 1 11.074 12.4138 -6.95487 21
193 1 -5.92634 10.042 10.9905 19
194 1 -2.90552 -7.7999 6.98952 11
195 1 -7.14518 7.6162 -1.52334 19
196 1 2.13304 18.4293 4.26668 18
197 1 0.867602 3.94716 8.2342 19
198 1 16.0073 8.75501 15.1097 4
199 1 -12.8849 18.3252 4.98196 10
200 1 14.18 0.00296959 -5.84664 20
201 1 -2.82912 19.7914 11.9741 9
202 1 -9.31235 6.87559 -8.20601 20
203 1 14.7023 0.158752 0.287616 14
204 1 -10.9465 0.180002 9.82525 11
205 1 -14.0441 10.5214 -2.91929 19
206 1 -8.18517 -2.38782 4.75276 19
207 1 3.72669 5.1394 14.6305 17
208 1 -17.6865 9.95284 -2.32281 13
209 1 -3.8111 -10.4651 -3.07996 10
210 1 -5.74641 4.31851 -5.76307 18
211 1 9.71006 -2.92511 -5.23794 20
212 1 -7.4837 13.8759 1.06414 16
213 1 -11.2582 5.99627 7.05981 17
214 1 3.89879 17.6369 9.98753 13
215 1 -12.2135 7.76767 -7.94005 20
216 1 -6.89401 14.1763 -10.5677 19
217 1 -10.3268 0.204268 -6.0979 22
218 1 -7.27026 4.88747 7.37889 17
219 1 2.8761 -6.15055 5.2388 19
220 1 6.99897 -11.3819 0.233296 10
221 1 -12.588 14.6679 1.83782 20
222 1 16.677 11.8066 3.9189 11
223 1 4.67495 6.72483 -7.59256 25
224 1 -4.62 -0.842196 -18.2257 12
225 1 3.24281 2.85473 12.8464 16
226 1 3.8448 -9.24398 -4.64413 18
227 1 -3.14859 13.0285 -18.4247 9
228 1 9.44289 -8.59361 -12.5437 14
229 1 8.45539 1.84848 -12.077 18
230 1 0.956118 12.6126 -12.3958 20
231 1 -8.41356 -1.64229 -12.0943 18
232 1 -4.39104 18.0692 -11.2105 15
233 1 -11.1101 -3.57517 5.26884 14
234 1 4.81223 19.8035 -6.28514 14
235 1 -11.9705 6.66654 13.4773 11
236 1 -11.8077 15.566 -8.03884 17
237 1 13.3859 7.63992 13.6887 17
238 1 -3.72062 3.30238 -13.2404 16
239 1 -7.09543 16.3481 -12.3259 12
240 1 -0.593072 7.20629 -10.1915 18
241 1 -10.7132 -3.18453 8.92978 9
242 1 -7.98746 12.9028 6.35619 20
243 1 -7.15809 14.6248 4.42406 19
244 1 0.654853 -8.67904 -8.43834 16
245 1 -10.464 -2.06574 -2.88333 17
246 1 13.1606 -2.65487 -4.32334 21
247 1 4.28862 -0.721324 1.28369 25
248 1 8.53751 13.4676 6.56421 19
249 1 8.54332 6.56785 -12.6035 18
250 1 -0.636829 14.0079 -4.92775 22
251 1 -8.5144 10.4952 -2.08456 18
252 1 -7.8869 15.8444 -4.38206 19
253 1 2.66366 6.6301 8.47789 18
254 1 7.0917 -10.5246 -3.80192 16
255 1 14.2547 4.68339 -10.5673 20
256 1 -0.0410506 11.2819 5.25911 21
257 1 -10.3861 5.9769 -1.02423 19
258 1 -15.1038 2.974 -7.35532 13
259 1 4.21136 4.38503 -16.942 22
260 1 5.87674 -3.15372 9.94757 13
261 1 8.94992 13.7819 -12.3298 17
262 1 8.15689 -4.2447 -2.51911 21
263 1 -5.08213 5.80785 -15.1969 19
264 1 1.0184 -11.8813 1.91459 11
265 1 14.8928 2.35065 -13.4976 12
266 1 -8.12262 4.81981 1.44085 20
267 1 7.80548 -7.48681 -3.20772 21
268 1 -8.56189 3.14274 -11.8234 18
269 1 -0.435749 19.1337 -2.0224 19
270 1 1.02863 2.6964 -20.7849 7
271 1 6.20153 7.93047 13.88 21
272 1 15.8758 10.2482 -5.97356 12
273 1 -2.49071 -0.873072 0.168425 23
274 1 2.9196 -7.81764 -16.2969 10
275 1 -0.356342 -3.56673 0.18949 19
276 1 -7.56272 -1.90571 -16.3248 11
277 1 -5.15185 0.54138 -14.0217 20
278 1 -5.19234 -6.58893 0.80828 21
279 1 8.07215 7.88185 6.43324 20
280 1 9.82014 3.06395 6.31389 16
281 1 -3.86026 -9.22904 -11.9474 10
282 1 0.632524 -0.699456 6.02144 19
283 1 -4.48732 11.4659 -15.0517 17
284 1 3.98 12.8189 -2.63797 23
285 1 -5.77206 1.16734 2.43664 21
286 1 -1.95516 15.6825 6.39726 19
287 1 -9.60987 9.94278 5.21368 20
288 1 -10.7104 -3.35544 -12.0305 11
289 1 -2.95197 -5.27955 -13.0583 13
290 1 -4.38439 9.97012 -17.8908 18
291 1 -5.23508 -1.48181 -5.25167 20
292 1 -13.7614 0.387315 -6.62022 19
293 1 3.86704 -1.28417 -18.0298 9
294 1 10.9205 1.06388 -14.2329 13
295 1 14.0131 4.35624 0.636968 20
296 1 1.02063 -0.91958 -4.71384 23
297 1 -9.43218 3.34563 9.68978 21
298 1 -6.04645 -5.43896 -1.97827 18
299 1 14.8548 6.06054 5.98151 20
300 1 -1.80186 -7.68523 2.05726 18
301 1 -0.464855 -11.6336 -2.72818 12
302 1 -2.34589 16.7666 0.371943 21
303 1 12.624 3.66139 -15.9866 8
304 1 -10.8807 4.74548 -17.4272 16
305 1 6.27186 -1.45671 -1.77332 22
306 1 -12.7255 0.097602 6.84522 10
307 1 0.895496 6.9748 14.6164 18
308 1 4.4162 -4.55042 -2.45647 22
309 1 -3.45068 -2.87896 -6.95284 22
310 1 -11.7564 3.54652 -11.9071 22
311 1 13.9713 7.77238 3.57933 23
312 1 -6.87479 3.32689 -14.5664 17
313 1 2.50424 9.68133 -13.3599 22
314 1 -4.28072 3.6982 7.93672 19
315 1 8.9586 -4.37139 -8.74877 21
316 1 -6.37626 21.8305 -2.82433 13
317 1 3.16062 20.7678 -0.676207 14
318 1 12.736 7.2379 0.714016 22
319 1 -15.8801 14.456 -4.61612 13
320 1 2.95787 -1.53635 8.47162 19
321 1 -8.97093 8.16428 1.07492 21
322 1 -2.3168 -1.59501 -14.9753 17
323 1 13.3958 14.0922 -6.56052 13
324 1 5.70182 -3.67462 0.598062 21
325 1 -4.53385 4.89626 11.5708 15
326 1 -9.90234 5.85451 4.17414 19
327 1 3.22188 -10.0584 -7.82528 14
328 1 -7.03861 10.3167 13.7717 9
329 1 -7.67522 13.1272 10.9744 14
330 1 -12.722 2.41556 8.6517 12
331 1 -9.0545 2.33099 12.148 14
332 1 12.39 2.72714 -5.41363 21
333 1 -14.7547 2.3594 5.07915 10
334 1 6.21498 2.19364 -9.75432 23
335 1 14.8702 -3.32136 -7.09577 18
336 1 -5.40746 22.4691 2.31224 13
337 1 -2.81151 1.27623 2.84908 23
338 1 -11.4498 19.8865 -2.97531 14
339 1 3.30955 4.96099 5.70468 23
340 1 6.52983 12.6001 9.10204 20
341 1 -9.41823 0.929097 2.09607 22
342 1 11.1028 -3.8575 -2.27558 21
343 1 -10.2497 15.2272 4.19598 16
344 1 -16.5047 12.5844 -1.94404 17
345 1 4.13245 -8.02902 6.76693 9
346 1 16.4062 2.44659 1.57022 13
347 1 -5.98011 10.7213 4.85938 19
348 1 -6.92432 0.919304 -5.55792 20
349 1 -1.30553 9.45628 13.7476 21
350 1 -0.540828 20.2702 6.26609 15
351 1 12.0099 9.47378 14.9016 10
352 1 -6.74611 17.4414 -9.17012 15
353 1 -1.62667 4.92499 -15.1849 20
354 1 -2.58664 6.79424 -8.30814 19
355 1 8.15465 -3.06141 -11.8626 14
356 1 -14.4973 11.9506 7.36621 13
357 1 -15.5579 9.25345 -0.140201 18
358 1 -7.09276 3.33226 -8.86568 20
359 1 -7.89988 16.6733 2.28735 17
360 1 12.7195 2.18669 5.27511 17
361 1 -8.77826 -6.67837 0.474696 17
362 1 5.79155 -1.46808 3.83224 19
363 1 -5.55653 -1.70687 11.2241 15
364 1 -17.0402 13.203 -7.55568 11
365 1 0.660551 -1.1684 10.0847 16
366 1 -2.34719 -9.44331 -8.82479 16
367 1 -6.10999 7.92768 -12.8519 17
368 1 -2.50694 -2.53846 -18.9655 8
369 1 2.33163 16.0047 2.64146 18
370 1 -13.1379 9.73852 -5.75806 20
371 1 5.95604 -5.54598 -8.19515 22
372 1 10.451 10.259 -15.0324 12
373 1 -2.141 -7.35774 -4.72217 21
374 1 -15.1826 -0.275991 -9.25417 11
375 1 -0.539953 -1.47062 -2.23446 23
376 1 11.7493 7.00628 16.4212 10
377 1 15.9912 7.45433 1.04029 18
378 1 -9.51581 9.20412 -10.718 21
379 1 -2.91665 22.7063 5.2746 11
380 1 -14.2455 5.74508 -6.47168 14
381 1 -14.998 16.1248 4.08133 11
382 1 -10.1315 19.3745 2.63484 14
383 1 -2.93194 10.9262 4.64016 20
384 1 13.7873 11.6586 8.56015 13
385 1 11.8042 2.55462 -11.4263 18
386 1 7.51751 7.55479 11.3409 19
387 1 14.6706 7.48385 -7.63798 17
388 1 -8.46877 -6.75113 -7.40482 15
389 1 1.66888 8.30062 5.4646 23
390 1 1.01209 10.6393 -4.79183 20
391 1 2.60192 -3.67966 -5.15714 21
392 1 -3.24583 12.992 7.45523 18
393 1 -13.9429 8.65902 -9.99178 11
394 1 9.36931 -1.47157 -1.6951 23
395 1 10.7145 7.0119 3.24099 22
396 1 -3.72608 1.42641 -10.5411 20
397 1 -8.89826 -0.827729 -0.199894 21
398 1 -6.71502 -0.598763 13.255 10
399 1 -4.81126 16.206 -3.44463 18
400 1 -11.5376 -5.00512 -7.72081 10
401 1 9.17763 11.7565 14.691 13
402 1 -5.9965 12.5861 -2.43277 19
403 1 -5.02463 15.7778 -7.82526 22
404 1 5.16244 13.7566 5.41048 18
405 1 -15.5571 1.31704 -3.94211 12
406 1 -5.43881 -8.80406 -8.95326 12
407 1 -11.9529 8.15255 -2.95225 16
408 1 -10.5453 9.7526 -16.1244 15
409 1 2.5377 -1.63237 3.17034 18
410 1 5.02387 -13.4584 -4.55078 10
411 1 9.58668 16.7546 6.94185 12
412 1 4.57853 7.63337 -17.5545 14
413 1 -6.385 8.8411 -15.6986 17
414 1 -2.39179 11.0638 -5.63658 21
415 1 -6.98368 9.1222 -4.79856 20
416 1 -0.555767 -9.82088 0.384012 20
417 1 12.046 9.93515 3.42738 21
418 1 2.16179 9.72578 -16.7042 15
419 1 -1.66681 3.01556 7.06212 22
420 1 -14.6932 16.5832 -0.624789 15
421 1 -8.61145 12.3115 3.32545 17
422 1 0.235138 -6.43013 -0.258782 19
423 1 2.99157 -1.83558 -7.08936 24
424 1 6.43659 -10.2184 -12.5341 16
425 1 -2.02827 1.949 9.90631 19
426 1 -14.1082 13.543 4.48209 11
427 1 -13.4693 7.47138 5.21419 21
428 1 -16.8406 11.5667 0.959171 10
429 1 -5.66058 -0.933207 0.110398 21
430 1 -5.45188 6.96115 -18.4659 22
431 1 8.85969 -7.24954 -9.02586 20
432 1 4.07653 -10.8051 -15.462 7
433 1 -6.40051 5.15367 4.32262 21
434 1 4.48375 -0.67501 -4.53584 24
435 1 -1.98312 4.99215 -20.7143 10
436 1 5.16306 -8.56833 -1.57026 22
437 1 0.126367 17.1176 -4.59768 20
438 1 -13.2557 18.5968 2.04856 12
439 1 -8.03329 5.78084 11.9255 16
440 1 -12.4695 -0.683111 -11.5284 16
441 1 -10.5627 -2.07725 2.28661 25
442 1 9.44718 -5.94455 5.95092 12
443 1 7.29105 7.18137 -2.19744 21
444 1 -3.96539 10.0206 2.03785 19
445 1 3.16233 1.90527 -10.5619 20
446 1 8.90166 -1.64426 2.94983 18
447 1 16.9153 10.5084 -9.46998 7
448 1 -6.89297 2.42985 14.1699 12
449 1 -1.96347 15.8923 3.01015 15
450 1 7.53764 -0.814058 0.826252 22
451 1 -5.5067 -6.37263 -6.73157 20
452 1 -3.78581 9.61841 12.9457 23
453 1 2.1851 16.5436 12.6405 12
454 1 -11.3442 -1.04564 -8.71771 20
455 1 6.82953 22.1609 0.163484 10
456 1 3.98614 8.16731 12.047 21
457 1 -7.52476 8.30669 3.84674 18
458 1 -10.1787 0.694869 -11.8134 18
459 1 -13.2224 10.122 5.57286 19
460 1 -10.3322 1.60047 -9.38681 23
461 1 -4.7159 9.69493 7.85317 20
462 1 -3.84669 -9.27118 -6.27763 12
463 1 -4.41966 -3.41243 -16.0294 13
464 1 -7.61253 -3.71668 0.502492 19
465 1 -5.91992 4.86423 -0.773252 19
466 1 7.57852 9.67574 8.5305 20
467 1 -0.976811 -0.118702 8.24271 19
468 1 -9.98536 12.6864 -15.6216 11
469 1 10.8652 12.3071 -1.68254 21
470 1 -8.3724 -7.76645 -4.63988 13
471 1 7.82824 7.34094 -7.78205 19
472 1 -2.63844 23.1261 1.70012 12
473 1 4.24741 12.6876 -7.63263 18
474 1 -1.42284 15.484 9.23171 18
475 1 -15.3463 8.14588 -3.96409 17
476 1 -3.22572 21.0 -9.98035 8
477 1 3.28251 21.0762 -8.30236 13
478 1 -8.0439 0.227233 -8.27045 19
479 1 5.99753 6.65928 8.77302 19
480 1 5.34894 -11.5295 -9.38806 16
481 1 -4.40497 -1.08969 -12.1671 19
482 1 9.1126 -9.21443 -1.32284 13
483 1 -10.6519 16.2213 -2.8095 18
484 1 8.99346 12.2316 10.1485 23
485 1 12.6572 7.64157 -5.08331 18
486 1 6.06673 13.9608 -4.86721 18
487 1 -0.171356 9.34648 -7.60702 21
488 1 -0.886374 9.57188 -12.1568 17
489 1 -0.957247 -1.41108 2.62476 19
490 1 -11.3756 5.6659 -5.60425 19
491 1 3.11302 19.9168 7.64341 13
492 1 -0.14799 3.65946 -18.1612 18
493 1 7.39026 10.5497 -4.55259 24
494 1 0.367213 21.8752 -2.64826 13
495 1 9.40474 2.21465 -9.42887 24
496 1 16.8472 5.12753 -6.64841 14
497 1 -3.37655 8.08554 -14.6718 18
498 1 2.65497 -3.4775 0.583278 22
499 1 5.37745 -6.00185 9.21753 10
500 1 5.66166 -1.16646 6.95671 16
501 1 -8.76371 7.15247 -13.1655 17
502 1 -7.3055 -1.46573 2.56016 19
503 1 -4.23934 -4.12362 -10.443 18
504 1 7.65639 21.8928 3.60754 11
505 1 -0.125043 7.71956 -14.9398 20
506 1 5.30503 5.10019 11.7165 22
507 1 -12.4871 10.0001 12.5245 9
508 1 -2.01911 -12.3384 -0.0482785 11
509 1 -4.80109 2.77454 5.22143 24
510 1 7.04936 6.24704 -15.1718 25
511 1 14.5476 3.4965 -7.43718 21
512 1 5.85009 16.0096 -8.13777 19
513 1 1.2503 -5.23792 -7.2772 19
514 1 2.51627 7.7225 -10.5201 23
515 1 13.2063 -1.02817 -12.8276 11
516 1 -9.80163 4.72525 14.5905 11
517 1 2.23089 24.1461 -3.3817 8
518 1 -3.75074 2.0085 -19.3312 11
519 1 1.40159 6.42638 -17.6954 14
520 1 -6.85447 -1.43441 7.89248 16
521 1 -7.66452 19.3396 0.523487 15
522 1 -8.51326 0.873677 -14.1379 21
523 1 -17.9429 6.84734 -2.05907 10
524 1 4.76962 -7.35262 -13.2425 21
525 1 -1.87292 -2.73795 11.6424 12
526 1 8.24589 9.21318 -11.5687 16
527 1 15.4873 8.70941 8.71525 18
528 1 13.2517 12.1433 -4.37519 18
529 1 -10.9659 -7.79575 -6.00121 8
530 1 0.889455 -4.49844 -2.66372 21
531 1 -7.96311 6.05793 -16.1613 21
532 1 -7.29539 16.6311 9.91808 14
533 1 10.4278 -2.25605 -13.7592 11
534 1 1.09575 12.9199 -2.3682 21
535 1 14.2455 2.51841 -1.25157 18
536 1 0.0927802 20.7028 -10.4421 13
537 1 8.83259 -3.95588 0.397426 22
538 1 14.5865 5.88739 -13.1661 16
539 1 3.9113 7.79058 15.2084 14
540 1 -13.9662 11.7738 0.982298 19
541 1 5.33459 15.8085 8.18708 17
542 1 11.735 5.02281 13.6331 14
543 1 -2.25874 7.13515 -17.2024 19
544 1 -2.16862 -0.804227 -4.933 22
545 1 4.457 4.08831 8.99203 18
546 1 5.87068 17.2638 5.1959 16
547 1 7.23519 11.0656 -10.0378 20
548 1 -10.1491 14.6066 -12.436 12
549 1 1.36262 21.4186 -5.34744 15
550 1 15.9871 3.18701 6.52868 9
551 1 10.3371 7.0178 -15.7957 16
552 1 9.45222 2.11807 -4.20034 24
553 1 8.82029 10.1217 12.7064 22
554 1 -15.0989 -0.165822 -1.10873 14
555 1 -4.3482 14.1551 -5.63534 21
556 1 -1.47297 4.98022 16.2597 11
557 1 -11.1929 8.90288 7.9411 19
558 1 -1.9887 16.5054 -6.39324 20
559 1 11.9423 -4.60066 0.844345 15
560 1 7.95596 4.89381 -9.83589 16
561 1 -3.66782 18.956 -7.78198 19
562 1 -10.1079 3.9388 -14.7978 21
563 1 6.24925 -6.12591 -0.811382 19
564 1 -13.6069 3.97273 -0.0846062 19
565 1 -2.01145 18.1567 -9.8067 22
566 1 -9.32612 3.37764 -6.28023 21
567 1 0.243787 12.3285 14.2197 14
568 1 -8.87379 -3.05922 11.54 9
569 1 7.33251 12.6239 -1.83476 25
570 1 6.15233 -3.62035 -4.81319 19
571 1 7.69724 0.862865 6.95462 17
572 1 12.8057 5.64956 -7.3453 21
573 1 -15.6858 11.6348 -5.02445 16
574 1 6.59234 5.99344 16.4703 10
575 1 -0.0760636 21.9062 3.93564 12
576 1 12.1126 2.45252 -8.46158 19
577 1 6.63299 10.9234 6.17942 20
578 1 4.58314 2.32234 -19.6142 10
579 1 -4.84173 -3.81619 5.88026 21
580 1 1.27891 4.72603 -10.1977 21
581 1 6.60689 2.85209 -14.7636 19
582 1 3.36606 16.4391 5.94382 17
583 1 5.24074 9.33864 -15.4524 18
584 1 1.46965 4.12795 -15.7424 19
585 1 -6.70262 -4.97955 -4.4944 20
586 1 -12.2129 0.918556 -14.483 16
587 1 16.373 10.9385 0.891952 14
588 1 13.7828 11.3129 -8.18597 18
589 1 5.89051 -4.34606 -14.2375 15
590 1 12.4365 13.1044 10.4645 13
591 1 11.857 -2.74635 -7.67808 20
592 1 6.05034 5.44421 -19.1718 10
593 1 0.354292 18.4521 1.0718 17
594 1 -6.0761 7.0513 1.4025 22
595 1 9.92275 15.2205 9.37361 16
596 1 14.3151 6.86426 -1.47248 23
597 1 17.3482 2.36738 -1.53431 11
598 1 10.8024 5.30516 -10.3069 20
599 1 9.82014 7.48647 8.5964 20
600 1 13.4388 9.26862 11.1528 16
601 1 -1.3127 2.19253 4.58576 20
602 1 11.4079 16.669 -4.78094 10
603 1 7.42753 5.03701 0.944138 23
604 1 2.55418 5.45516 11.3596 19
605 1 16.8418 4.95862 -11.8284 11
606 1 11.0581 3.63428 10.5562 14
607 1 -5.79855 6.31827 -7.5143 17
608 1 14.1469 12.8441 -1.31334 19
609 1 10.7551 1.60759 -1.53192 21
610 1 2.96316 -1.96526 -2.2353 22
611 1 -9.07512 14.0087 8.66448 15
612 1 7.23577 17.7235 8.62943 12
613 1 17.2031 5.27023 0.0566184 16
614 1 1.58299 14.1824 6.02883 20
615 1 4.67233 14.5748 10.8958 18
616 1 1.84003 9.77208 2.87697 23
617 1 -2.62038 -6.82013 -0.654152 22
618 1 -7.42261 15.6066 -1.50979 21
619 1 10.8522 15.4191 -7.32615 14
620 1 1.34869 -5.94972 -13.3411 18
621 1 -7.03531 22.3256 5.07796 7
622 1 -0.634845 -2.82676 -12.0011 23
623 1 10.5574 -5.95934 -14.5811 9
624 1 -10.174 11.9151 0.530588 20
625 1 -4.48749 7.13285 -10.7621 18
626 1 -1.71269 -10.7637 2.67432 14
627 1 -6.83744 0.523259 -10.8852 20
628 1 -15.7745 12.3755 -10.5704 8
629 1 12.4383 -1.5493 2.78025 18
630 1 7.16892 12.6987 3.31609 20
631 1 0.544891 -7.20039 7.31358 12
632 1 -13.1873 3.72901 -14.9816 13
633 1 1.89074 1.36746 -18.1206 16
634 1 5.20357 2.23764 6.05502 21
635 1 1.10378 8.22129 11.7093 21
636 1 9.44328 12.9707 -14.9639 8
637 1 11.6668 -0.248648 9.04425 6
638 1 10.0287 14.6977 -9.74397 14
639 1 9.14236 20.1151 1.57771 12
640 1 3.60626 -7.2618 -7.60007 19
641 1 -7.68228 1.84802 7.40613 20
642 1 12.2936 4.40702 3.11468 23
643 1 -5.08826 13.3572 13.0101 13
644 1 2.71268 19.6316 -11.815 12
645 1 -9.35148 12.1767 -10.3184 21
646 1 9.21294 13.4086 1.00401 21
647 1 -10.2669 -3.74746 -0.480672 19
648 1 16.7864 -1.18924 -5.4524 11
649 1 3.29566 18.7705 1.44481 16
650 1 -4.81016 7.78418 3.923 19
651 1 -11.0196 2.73033 -0.172242 22
652 1 -5.7908 4.32295 -11.5385 18
653 1 9.55524 4.61197 15.6175 12
654 1 -2.67177 -0.343488 12.1424 14
655 1 11.8684 11.2551 12.4923 14
656 1 -6.54325 18.6786 -2.06743 18
657 1 8.93491 9.86989 3.80587 22
658 1 7.61051 1.23315 -1.89396 22
659 1 5.34482 10.1617 3.31957 21
660 1 7.73241 8.10011 -17.7212 12
661 1 -10.09 11.1219 10.4559 18
662 1 3.80015 7.22352 -14.7649 23
663 1 -2.10787 0.94524 -7.77241 20
664 1 11.2084 -3.61052 -11.4129 19
665 1 11.4734 9.77952 9.15575 20
666 1 3.73472 12.89 2.99531 22
667 1 -12.0329 13.3436 10.0971 9
668 1 9.54133 15.3655 3.88982 18
669 1 3.38986 -0.0834753 11.5815 13
670 1 -1.56466 10.1308 7.93055 22
671 1 -0.614419 1.81107 -10.1965 21
672 1 -3.02251 7.08249 7.84087 18
673 1 10.084 10.9691 6.68794 22
674 1 -12.1826 -4.62357 2.49814 12
675 1 10.846 10.3314 -4.43514 23
676 1 12.1926 -9.22313 -5.83037 8
677 1 -1.31923 12.2529 -7.77791 17
678 1 9.17484 13.2299 -4.50883 20
679 1 4.55117 22.6137 1.825 10
680 1 3.60775 -1.47359 -14.9159 17
681 1 0.0697782 5.30882 5.28135 21
682 1 -2.92659 21.7121 -2.68481 12
683 1 10.2222 15.1791 -1.9079 19
684 1 -9.60177 0.499679 -2.95428 21
685 1 -1.32695 0.0909748 -18.6473 16
686 1 -11.8967 17.9702 -0.110427 18
687 1 6.99679 0.22238 -18.7157 8
688 1 3.60017 10.9909 0.458671 22
689 1 5.13218 8.9795 -9.51877 17
690 1 8.76527 16.902 -3.86237 15
691 1 -1.53742 10.162 2.48694 20
692 1 -4.88553 9.87768 -3.39586 23
693 1 2.92422 9.75537 -7.76352 23
694 1 15.9006 5.33123 8.96011 13
695 1 13.3588 4.69803 11.1918 15
696 1 -2.92756 -5.12178 8.84504 14
697 1 -1.65492 12.36 -10.4673 23
698 1 7.40743 15.4822 11.287 16
699 1 1.91637 -8.99228 -13.6055 16
700 1 5.07728 7.89064 5.65164 20
701 1 4.39539 22.5367 -5.11433 12
702 1 10.5963 16.9459 0.999697 17
703 1 16.3217 -0.891769 -8.75842 10
704 1 8.50448 6.70391 14.2031 21
705 1 -13.6097 6.52082 2.19892 15
706 1 2.16894 -10.5108 -1.32011 17
707 1 -1.84934 0.354854 -13.3314 20
708 1 -8.12613 24.7007 2.74852 6
709 1 1.54348 9.92041 8.30407 22
710 1 0.924804 -2.01741 -14.3125 19
711 1 -1.41219 18.1095 4.23558 14
712 1 -10.7729 3.80771 -3.0352 18
713 1 -2.04475 6.40166 13.2984 19
714 1 -8.73386 10.6057 -13.1606 20
715 1 -3.66047 14.6095 -15.8935 9
716 1 3.63611 -6.45335 0.426381 21
717 1 4.21585 11.6 -10.4351 21
718 1 3.76863 1.22441 3.24233 22
719 1 -1.27463 13.4779 -0.489542 20
720 1 -13.2572 10.8183 9.54874 15
721 1 9.29096 5.73409 -18.1907 12
722 1 1.20099 -8.50421 2.22456 16
723 1 -2.32012 19.7316 1.59485 16
724 1 -5.38014 7.47008 13.1289 15
725 1 -10.1528 -1.46944 -15.2038 11
726 1 2.84923 -2.92119 -12.3221 19
727 1 -9.11309 -3.27876 -8.9969 19
728 1 -3.28187 19.0032 -4.81711 19
729 1 4.1008 4.28509 -14.1013 20
730 1 -5.2155 15.536 2.13103 19
731 1 7.47745 -6.16429 -11.6083 20
732 1 11.4617 -7.71873 -2.67606 14
733 1 5.11242 -3.78966 6.90165 19
734 1 16.2865 8.54202 -12.2592 11
735 1 4.93243 -6.40813 -4.81044 20
736 1 -9.53641 3.60611 6.19753 18
737 1 4.28668 4.61073 -10.5845 19
738 1 -2.60366 -6.39296 -7.03552 19
739 1 -6.50486 -5.44601 -9.34363 15
740 1 -2.77067 5.02516 5.26628 22
741 1 -4.13356 -9.47553 0.924384 18
742 1 13.8642 10.1614 -10.7828 17
743 1 -10.7857 21.2599 0.490687 10
744 1 -4.67548 17.0036 4.74224 20
745 1 -12.5806 15.2957 6.64027 12
746 1 10.2339 1.27195 3.91961 20
747 1 -14.5646 2.15667 -12.1647 13
748 1 3.69134 14.4381 -12.6247 15
749 1 9.5014 3.9282 -7.00838 23
750 1 10.29 14.3149 12.6558 12
751 1 14.4966 5.23169 -4.20726 20
752 1 -11.3614 11.8294 -13.3064 13
753 1 -7.15924 0.698485 -16.8996 12
754 1 -1.40564 7.27079 18.2016 5
755 1 -0.862288 9.4931 -17.6478 15
756 1 10.8698 18.0079 3.82718 11
757 1 -1.67353 5.08849 10.0097 18
758 1 -6.70563 -8.5393 -1.26663 15
759 1 -5.67849 -6.84229 6.79027 16
760 1 -3.09249 -0.260892 6.1576 21
761 1 11.7109 13.6304 7.32594 16
762 1 4.20291 -0.465953 -9.93336 24
763 1 2.36598 13.8315 -5.41688 19
764 1 7.69244 16.0849 -0.119046 18
765 1 -4.02509 -1.35242 3.24746 22
766 1 10.2112 11.8373 -9.99568 19
767 1 4.23901 -13.1718 -6.96141 10
768 1 1.80205 -12.5568 -4.34238 10
769 1 2.65808 -6.79961 -2.71721 21
770 1 1.05162 5.7535 -12.9092 19
771 1 4.14492 23.2905 -1.78784 9
772 1 -2.95395 8.604 -20.2243 10
773 1 -2.03716 3.11168 12.8532 17
774 1 -0.534999 10.5403 -14.6197 20
775 1 -12.8129 7.25292 -15.9329 10
776 1 -12.5613 0.906378 -3.2775 22
777 1 2.57685 19.574 -3.50929 19
778 1 9.24835 4.33744 -2.25587 20
779 1 -2.96157 1.26835 -15.9452 18
780 1 -3.97386 -1.91125 -2.6249 21
781 1 9.50847 9.81888 -7.18479 21
782 1 13.9285 -6.1472 -5.60989 12
783 1 -9.70925 8.15926 12.3799 13
784 1 11.318 -4.07406 3.88649 15
785 1 15.1526 -0.808506 -3.08918 16
786 1 17.2031 5.20852 -3.05452 15
787 1 -1.21735 18.0735 7.90691 17
788 1 -14.0623 5.36157 7.29037 16
789 1 -11.095 11.9976 7.12453 20
790 1 -8.97262 -4.54282 3.18246 24
791 1 10.8347 4.87261 0.107538 22
792 1 5.99817 10.9522 15.1966 13
793 1 -11.537 11.0197 -2.91121 20
794 1 10.5011 -0.399243 -10.8664 20
795 1 -11.5484 17.5453 -5.32932 17
796 1 2.02531 13.7315 0.22098 22
797 1 4.09717 -9.81078 1.32675 15
798 1 8.05832 3.94872 9.09351 20
799 1 -3.51431 20.1161 7.61095 16
800 1 4.20082 -4.43606 3.43246 22
801 1 -12.2628 2.37684 -6.02798 23
802 1 -4.2598 2.46186 16.5051 5
803 1 -16.635 5.21297 -4.57974 11
804 1 3.84831 12.3437 13.1716 15
805 1 4.03232 15.7458 -0.439749 19
806 1 -11.8046 -0.0822937 -0.168933 20
807 1 -3.59632 -3.77567 -0.105816 18
808 1 10.567 5.23397 5.84076 17
809 1 12.9147 -1.40498 5.89987 9
810 1 12.0973 12.8464 1.17744 22
811 1 -6.18869 11.2742 -6.70627 19
812 1 3.7793 -4.01903 -8.55089 22
813 1 3.63874 1.38429 -14.4467 18
814 1 -5.78027 6.77269 9.50191 17
815 1 0.0444099 22.1857 0.963853 11
816 1 15.891 7.89758 -4.45723 17
817 1 7.62353 13.0591 -7.49669 22
818 1 -3.47381 11.4178 15.3893 10
819 1 13.0322 6.67386 8.72295 21
820 1 0.446479 1.03856 -15.482 20
821 1 -4.34557 -7.17373 -2.73492 19
822 1 -3.83432 1.67987 -5.11414 21
823 1 12.4107 1.60157 1.5742 22
824 1 -2.05259 5.19278 -11.5927 18
825 1 -2.25695 8.53927 10.5934 23
826 1 12.9908 -6.04816 -9.01076 14
827 1 7.66954 9.25432 -14.815 19
828 1 -0.673035 -3.97643 -5.07523 22
829 1 5.71667 8.59897 -12.5306 19
830 1 12.4078 4.06153 -2.52943 24
831 1 3.12369 1.35374 8.05241 17
832 1 -1.44403 -4.47462 -9.20784 19
833 1 5.00155 18.3992 -2.30755 14
834 1 1.40562 -3.84752 5.86585 20
835 1 -15.8033 14.5614 0.885534 12
836 1 11.759 8.55897 -8.4004 15
837 1 14.9467 13.3571 1.73507 15
838 1 0.992044 -0.049452 -12.0496 21
839 1 -5.99843 19.6542 9.83095 10
840 1 13.4863 12.8808 4.95935 15
841 1 3.52165 17.075 -5.77203 19
842 1 6.9478 3.1846 -17.6973 15
843 1 7.69861 -0.51571 -4.45925 23
844 1 -14.7431 10.7909 -8.13802 15
845 1 10.8615 9.79903 0.786888 22
846 1 -10.193 -4.64501 -4.3822 16
847 1 -9.15985 15.249 -9.69938 18
848 1 11.5437 8.00385 6.02757 24
849 1 -14.3931 5.10357 -10.3703 15
850 1 -14.9426 9.0342 2.81149 16
851 1 -3.41761 9.90165 -8.71063 22
852 1 6.53647 -2.67164 -17.1411 9
853 1 -13.0743 -3.11955 -9.75336 11
854 1 13.4251 -5.23181 -1.99187 12
855 1 -14.6443 14.8498 -9.53027 11
856 1 -11.216 4.48044 -8.45855 19
857 1 6.81238 18.5245 2.08893 18
858 1 -6.36817 0.0154582 5.00837 21
859 1 11.2071 7.08065 11.4438 20
860 1 17.6313 8.22206 -1.50057 12
861 1 8.53088 4.35097 3.79728 22
862 1 -13.5041 13.126 -6.55713 19
863 1 1.73336 16.2828 8.93953 20
864 1 -2.43369 13.05 -13.5391 19
865 1 2.11513 -12.0213 -9.7479 11
866 1 -4.99444 20.0611 4.72123 13
867 1 -15.7602 -0.763439 1.85957 9
868 1 6.5895 15.4169 -2.75498 22
869 1 0.0789545 12.9061 8.47228 20
870 1 14.4047 -3.24757 -10.4003 11
871 1 7.97136 -0.741203 9.67886 13
872 1 0.00819458 13.624 -15.1121 10
873 1 -2.35998 21.2606 -6.06751 9
874 1 -6.60015 7.54294 7.048 17
875 1 17.1131 8.90877 5.65255 15
876 1 -0.834585 -1.78828 -7.56898 19