ITEM: TIMESTEP
5000
ITEM: NUMBER OF ATOMS
1500
ITEM: BOX BOUNDS pp pp pp
-30.0 30.0
-30.0 30.0
-30.0 30.0
ITEM: ATOMS id type x y z Coordination
1 1 1.57275 -10.27 -7.94528 15
2 1 9.01391 -6.46665 5.97204 21
3 1 -8.76264 7.28445 -3.30327 18
4 1 -10.2406 3.03373 -6.56489 15
5 1 -1.56541 -9.58142 10.5957 13
6 1 -8.47869 0.207382 -11.4002 18
7 1 -3.65856 -15.0684 3.68723 8
8 1 -8.09559 -8.65242 8.73934 21
9 1 -1.45008 3.53154 15.9372 13
10 1 0.298923 5.83034 7.54598 22
11 1 2.64973 11.2849 -10.8387 14
12 1 3.19369 -2.75437 15.7154 8
13 1 13.4824 5.44949 7.82483 16
14 1 5.7009 9.26442 -13.4327 9
15 1 2.83999 2.44108 -16.1959 10
16 1 -1.62947 -1.9696 -7.86632 21
17 1 7.92164 -9.44052 6.73038 18
18 1 10.971 -11.1077 2.36604 11
19 1 -1.59478 -15.0811 -5.57728 14
20 1 0.804246 -6.84153 -13.882 8
21 1 2.36613 3.01274 15.3775 15
22 1 1.04311 -13.8125 8.26593 8
23 1 6.74548 -5.37536 13.4382 12
24 1 -13.0273 -0.204101 3.61633 18
25 1 -8.64733 -0.227523 -0.236135 19
26 1 -6.40666 13.0474 -8.14159 7
27 1 2.83746 1.06301 -10.1507 20
28 1 2.89221 -2.72212 -13.612 13
29 1 -1.35171 -1.83746 13.0457 15
30 1 -9.43603 6.18466 2.50215 19
31 1 3.78244 10.7677 8.1726 16
32 1 -9.49201 10.9801 -7.21162 12
33 1 -2.46021 13.0536 -2.72941 22
34 1 3.28139 -10.5352 2.73256 19
35 1 8.34675 -8.59206 -3.54929 23
36 1 -5.86144 4.50743 10.5017 18
37 1 -11.3537 -2.47979 -8.80861 10
38 1 8.75235 -0.648226 5.31717 20
39 1 -6.19581 12.6295 -3.30809 19
40 1 -4.48874 -9.64369 10.2188 19
41 1 -9.74124 5.61578 -9.73519 13
42 1 3.85094 6.31456 7.34386 21
43 1 5.53843 -12.5491 -0.663537 18
44 1 5.41629 3.47878 14.1533 15
45 1 13.3469 -3.45149 -9.51509 9
46 1 10.791 -9.56796 5.26232 14
47 1 5.40198 -6.18963 10.9611 20
48 1 -6.99419 -8.97202 5.12347 18
49 1 -8.09481 -2.29058 1.53132 23
50 1 15.1525 3.107 10.0758 10
51 1 6.55655 -5.68903 -3.7396 22
52 1 -1.60035 10.3515 9.66499 14
53 1 3.44002 -3.40506 10.2471 21
54 1 1.84714 -8.7687 -10.6021 12
55 1 -8.18368 13.4626 -1.14019 13
56 1 -2.81107 8.52696 -5.56656 16
57 1 6.73121 -3.80494 -6.02881 22
58 1 7.028 -3.47048 5.14837 23
59 1 3.04667 -11.6911 7.63327 15
60 1 -9.16431 11.9147 -3.93677 12
61 1 -7.89063 10.9949 5.00258 15
62 1 -2.78139 7.86788 5.18561 23
63 1 -9.02043 -9.44367 11.4867 11
64 1 13.9686 -5.93039 -3.69508 13
65 1 -9.80287 3.46187 4.6309 20
66 1 12.1787 -8.53441 0.281926 11
67 1 5.95366 0.328448 -16.3805 9
68 1 -7.03786 -0.261007 -8.30324 23
69 1 -1.60916 11.1347 -0.639967 23
70 1 -10.1177 7.8683 -6.85743 19
71 1 1.96398 10.2428 -6.72624 20
72 1 1.87933 9.39619 1.72243 20
73 1 -5.43602 -6.5773 10.2136 19
74 1 -1.74166 -5.82343 -5.16266 21
75 1 4.72327 -8.88222 -8.55323 16
76 1 0.902962 2.66576 10.3986 19
77 1 -12.386 -4.90489 -0.0775705 21
78 1 -10.5646 -10.3401 -1.57475 13
79 1 12.3383 -6.1193 4.88009 18
80 1 -4.46351 9.22749 1.21689 20
81 1 5.93109 2.21916 -14.5371 13
82 1 6.21905 6.54509 -7.51561 22
83 1 8.49265 -7.01309 -1.09427 19
84 1 -1.64775 -14.025 10.0418 6
85 1 -12.0612 -6.65187 7.06404 14
86 1 -13.7505 -3.7835 6.43757 11
87 1 9.48276 10.6722 8.87465 14
88 1 -4.43439 8.44881 13.2356 11
89 1 -2.17205 14.6814 0.146591 16
90 1 -3.04971 -2.14877 -13.4915 17
91 1 11.8397 -4.19798 12.8983 12
92 1 0.40059 7.66635 -7.3398 21
93 1 11.9516 2.57237 -3.80878 19
94 1 -12.2244 10.4636 -5.17738 10
95 1 -6.51979 11.0525 2.08012 20
96 1 8.05454 1.43613 -8.68056 15
97 1 10.4505 -5.67707 0.924367 14
98 1 -4.79315 5.2419 -6.14047 20
99 1 7.70559 13.0831 -3.22159 18
100 1 10.5053 7.94086 -0.778111 19
101 1 1.86328 12.7749 -7.76528 13
102 1 -9.55236 -8.6044 -7.0477 15
103 1 1.4085 14.8129 8.00456 9
104 1 -11.9701 -2.85349 -2.51122 19
105 1 15.0548 -2.92959 -3.55608 11
106 1 -1.39259 8.73516 7.39755 19
107 1 -3.78776 11.9768 -7.92284 14
108 1 3.56258 -5.40248 13.4384 13
109 1 -10.8376 -4.81311 6.08302 17
110 1 -3.43824 -9.06651 4.81736 20
111 1 1.83899 -14.1332 -4.1089 17
112 1 -4.94635 9.53848 -9.8913 11
113 1 10.1635 11.9449 1.14688 16
114 1 1.91456 -10.3909 10.854 10
115 1 -8.29562 5.19574 -0.531208 23
116 1 2.71002 15.2103 1.22255 13
117 1 -0.919985 6.21117 11.0352 17
118 1 -10.419 11.4449 3.32103 10
119 1 -2.16079 1.86523 -11.5705 19
120 1 13.8476 -3.06631 4.65675 18
121 1 -6.95327 -6.32897 6.40808 18
122 1 -11.1433 5.87181 5.51736 14
123 1 -7.66648 -12.0841 4.34131 10
124 1 -15.1188 2.58117 -4.39915 8
125 1 -3.09606 -11.1018 -2.4534 22
126 1 5.33978 -8.75243 -3.12051 21
127 1 -3.00147 12.0659 7.9625 18
128 1 -8.84368 0.434185 -6.07218 20
129 1 -0.364156 14.2022 -5.72783 12
130 1 -13.2245 -4.89931 -4.56171 16
131 1 -8.06729 -1.1124 9.89569 19
132 1 0.0887047 -11.4402 2.1555 21
133 1 4.84908 -11.7533 10.6404 10
134 1 15.4929 0.74116 4.47749 15
135 1 6.89084 5.54513 -4.00528 23
136 1 6.48626 2.94655 11.464 18
137 1 -3.17197 4.69876 -10.7298 20
138 1 11.007 1.44387 -11.9699 9
139 1 -7.29039 -5.43289 -3.28934 21
140 1 -2.01499 14.1236 -7.67468 9
141 1 -5.13145 15.3801 -1.82252 11
142 1 8.43287 2.97748 7.51797 20
143 1 -5.70935 -4.586 -13.8122 14
144 1 -0.537413 12.0492 -9.65961 10
145 1 5.43355 7.47343 -10.6998 19
146 1 -6.34923 6.7613 7.36567 19
147 1 -6.55775 4.43869 13.3065 15
148 1 -0.52714 -3.97952 -12.4584 17
149 1 -8.41719 -11.6615 1.22903 15
150 1 10.29 -9.64026 -1.79941 15
151 1 3.50928 7.71153 -5.81883 24
152 1 -0.518776 10.0395 -4.10629 16
153 1 -13.1294 2.79784 -1.66729 19
154 1 2.36396 5.23957 9.69775 19
155 1 12.3691 4.73638 -0.724289 20
156 1 2.01856 8.86025 6.94384 20
157 1 -10.622 8.64189 4.86649 11
158 1 -8.53789 -8.28877 -3.43758 20
159 1 9.96875 4.3358 -10.9767 11
160 1 4.90811 -0.935946 9.78084 17
161 1 7.16807 9.20422 -9.70454 13
162 1 3.14418 -8.95739 -5.82111 21
163 1 -3.29077 -1.15749 -10.7573 20
164 1 8.71299 -0.708558 -5.91596 20
165 1 -8.76308 -1.93586 6.43378 17
166 1 3.75078 -15.4013 -1.41794 11
167 1 -9.34848 -10.1154 -10.6402 10
168 1 7.00267 16.2944 -2.34558 6
169 1 -3.24626 0.576024 -15.6174 8
170 1 4.59275 0.361226 15.2966 12
171 1 16.6677 2.74888 -1.87285 11
172 1 11.4451 -6.14783 -8.16012 14
173 1 -7.37612 -6.18015 -6.55865 18
174 1 -11.4131 -1.24572 -5.47622 15
175 1 13.836 -2.51578 10.4894 16
176 1 5.31236 -2.8998 7.50163 19
177 1 -6.05605 -10.0824 -11.1161 11
178 1 1.87743 -8.53491 7.44583 20
179 1 2.10518 8.44219 -10.1774 15
180 1 6.85068 5.98568 1.61673 20
181 1 -7.00941 -5.54472 1.49626 20
182 1 2.69902 12.1724 2.55039 18
183 1 -6.50515 -3.84396 10.3334 17
184 1 -9.23501 -10.9473 -7.41063 14
185 1 -3.04768 -6.59453 -10.0556 18
186 1 -6.63108 -10.0353 -5.47866 20
187 1 -1.34455 -8.24679 2.20457 19
188 1 15.6248 3.4653 7.14076 11
189 1 -10.2307 -3.3718 11.5747 14
190 1 -3.93366 -8.69458 0.188894 22
191 1 -1.38547 -14.8704 2.33189 16
192 1 1.27934 17.041 -3.93631 11
193 1 5.94002 1.5294 -11.1122 19
194 1 -8.30751 -2.25039 -13.641 7
195 1 1.88621 -12.4614 -0.712385 21
196 1 -2.98237 -8.81543 -12.2533 12
197 1 -7.21459 7.50054 -6.52324 17
198 1 8.91061 4.69231 10.1928 23
199 1 -3.31813 0.170112 -8.31798 23
200 1 -2.67962 7.0982 -8.18144 24
201 1 0.332282 16.7863 -0.418198 10
202 1 -0.181223 12.0695 1.76289 19
203 1 10.331 -3.16871 5.29461 21
204 1 -7.89918 3.49899 7.83925 22
205 1 -2.50257 -4.78415 14.0359 15
206 1 -4.58011 10.832 4.8354 18
207 1 1.53292 -3.1272 -10.4699 16
208 1 3.74475 -9.64472 -0.342094 22
209 1 -4.94518 -4.97279 12.3159 15
210 1 -11.861 -5.44532 10.4889 10
211 1 11.5048 -2.7242 -4.51693 22
212 1 7.0821 -3.25123 -10.1926 18
213 1 13.5315 -8.90178 -3.06401 10
214 1 -4.88533 14.8809 1.70883 12
215 1 8.77495 4.89105 12.9978 14
216 1 -10.748 -2.64082 3.76192 22
217 1 10.8358 -9.04086 -5.09448 16
218 1 -2.97483 12.2851 2.26105 18
219 1 -5.76964 8.38344 4.13422 16
220 1 8.93663 -10.5225 10.4331 9
221 1 14.5988 -5.35482 10.6907 10
222 1 -3.01512 5.36537 7.53764 17
223 1 -8.93619 -6.3793 -0.839776 24
224 1 0.267045 3.96249 13.1124 20
225 1 -4.21609 14.7387 6.09008 10
226 1 -12.5755 2.06004 12.2077 12
227 1 -11.6583 4.1333 1.59489 14
228 1 -4.05655 -4.69418 -7.74392 22
229 1 -8.06702 10.2762 -0.847218 21
230 1 10.168 0.087731 8.43369 19
231 1 -8.61286 -7.7389 2.71418 18
232 1 10.1166 -7.84907 8.41627 19
233 1 -12.5219 8.48811 -2.01817 12
234 1 -0.0414443 -3.79928 9.93233 16
235 1 3.67597 -11.7463 -6.49605 16
236 1 -5.34519 -2.05439 -8.26565 24
237 1 8.4596 -0.728734 -11.5318 16
238 1 8.6413 13.9482 1.79198 14
239 1 -10.5881 -0.206304 -2.44808 20
240 1 5.80685 -6.04994 -9.80011 13
241 1 -4.30659 -14.9764 -2.65477 13
242 1 -15.0624 -6.51014 -1.73487 12
243 1 -5.42928 -10.1058 2.41767 19
244 1 8.7477 8.21602 -3.79447 15
245 1 -9.63102 3.45079 -12.0488 12
246 1 -9.8381 -5.59553 -4.01456 18
247 1 -6.92524 7.38216 10.3454 14
248 1 -12.021 11.7876 -2.45134 10
249 1 -7.8436 5.98409 5.15033 21
250 1 9.5975 -3.42371 -7.50991 20
251 1 14.7932 2.579 -4.72238 16
252 1 1.94067 -8.04171 -2.91215 22
253 1 -1.27338 10.9768 5.20795 21
254 1 -8.05931 3.31999 -2.95048 20
255 1 3.6541 -11.2445 -3.34349 20
256 1 12.8263 0.780421 10.0569 17
257 1 -6.89263 -3.55354 -5.88619 19
258 1 -2.83504 -11.4734 1.39849 21
259 1 -1.51141 9.1059 2.15896 22
260 1 -12.0736 -7.50821 -3.44258 18
261 1 -11.3193 5.44341 -2.32652 21
262 1 5.31558 12.4598 -11.8792 8
263 1 5.36433 13.6308 2.75866 19
264 1 -12.5252 -8.01791 -1.02943 13
265 1 -3.43499 -9.30954 -5.244 22
266 1 -13.2708 0.041197 7.26749 12
267 1 -6.94191 9.57751 -4.12997 18
268 1 4.71868 -8.01671 7.5413 14
269 1 -5.98829 -12.6311 -3.69547 19
270 1 6.38535 4.38247 -12.1675 15
271 1 -7.6791 5.45218 -7.80345 24
272 1 -2.22817 -12.3305 4.0965 17
273 1 11.8894 9.86534 6.60828 19
274 1 -5.46746 0.0393428 10.2682 17
275 1 -13.6795 -0.481378 -2.64382 16
276 1 -9.07102 6.61399 7.97676 16
277 1 -4.80896 -12.2057 5.19443 14
278 1 7.8666 -8.85001 -8.57622 12
279 1 -14.4088 5.29932 -0.243543 10
280 1 0.0578504 -5.63989 6.97159 22
281 1 8.81403 -11.1336 -5.79814 13
282 1 -0.126931 -6.61029 -10.758 19
283 1 -5.0349 -8.36625 7.4295 21
284 1 1.0844 -6.68927 -5.76289 21
285 1 -5.3848 6.59729 -8.9048 19
286 1 9.95024 -12.8416 -0.0916854 11
287 1 1.05786 12.299 -3.64353 14
288 1 -4.83184 -1.87081 13.6031 12
289 1 -11.0189 -8.40964 9.31052 13
290 1 8.59978 -5.02464 9.45763 21
291 1 4.32373 -1.73322 -10.6681 19
292 1 11.0503 -4.86585 7.36549 19
293 1 13.7692 8.06075 -1.81243 13
294 1 -2.06523 1.1722 14.089 14
295 1 2.10586 11.247 -0.925226 18
296 1 7.00342 -5.67173 7.36855 22
297 1 -0.906002 -13.688 -3.07873 21
298 1 -1.05448 16.5006 5.77967 10
299 1 -7.67097 -13.6776 -6.43458 13
300 1 4.04329 4.70201 12.1344 21
301 1 -7.18334 0.510934 7.3842 23
302 1 -5.32 -8.40898 -2.71284 21
303 1 -11.9711 4.16515 11.2376 12
304 1 -8.82608 -13.5481 -9.26412 6
305 1 -4.23161 10.1859 10.672 13
306 1 -4.47822 -13.4476 -6.60383 16
307 1 -2.6748 -5.56274 -14.2131 12
308 1 -7.55946 -14.5796 0.35049 8
309 1 -6.91591 -3.123 4.77045 22
310 1 7.8985 -0.294932 10.6043 21
311 1 -8.53186 -5.95451 10.9254 14
312 1 -12.4864 7.46992 -7.80542 9
313 1 8.37199 2.62204 2.33672 25
314 1 -4.83436 -15.8843 -5.48952 10
315 1 3.80554 15.9534 4.08035 11
316 1 1.49361 3.00059 -8.29678 23
317 1 -1.45531 7.65043 13.7825 14
318 1 -15.4922 -2.96593 -2.8884 9
319 1 6.42374 13.7209 -5.84361 12
320 1 -5.43288 -7.96579 -8.40677 18
321 1 -1.45424 -11.8925 -7.73364 15
322 1 -0.791887 -0.979931 -11.2367 17
323 1 -10.1823 7.73501 -0.518913 15
324 1 3.20196 1.39775 12.7852 21
325 1 9.81418 5.82021 1.92408 25
326 1 5.06829 11.0976 -1.96216 17
327 1 -12.0183 7.40216 -4.81253 16
328 1 6.87848 4.22837 -9.10318 20
329 1 3.73634 -9.61615 5.26062 19
330 1 -15.9759 -0.508194 1.91732 12
331 1 -1.47035 5.09599 -12.8171 15
332 1 13.2074 5.38891 2.25823 19
333 1 6.77327 -5.63103 2.20527 20
334 1 16.7513 4.7888 -4.18687 8
335 1 0.346912 2.40543 -12.5482 18
336 1 1.79509 -8.37752 2.25464 19
337 1 2.48961 -12.9957 5.0329 16
338 1 3.80987 -8.5683 11.5086 14
339 1 -7.00017 2.55974 -5.7426 22
340 1 -1.11883 -9.68908 -9.9462 14
341 1 2.28311 3.97773 -11.4428 17
342 1 9.09189 -2.55865 12.3979 16
343 1 -12.886 -4.76618 3.73083 18
344 1 13.8707 -4.20585 -6.48944 15
345 1 9.68703 -0.0106236 -3.25532 24
346 1 -4.63447 10.6804 -5.37453 16
347 1 -0.218536 -9.23984 -5.15348 20
348 1 4.10811 3.89484 -9.48413 22
349 1 9.28363 -5.46124 -3.62344 19
350 1 -7.25293 1.0056 14.5479 12
351 1 6.8584 11.7311 0.19399 21
352 1 -7.58896 2.38467 -13.3389 11
353 1 -8.19509 -0.260584 3.9342 18
354 1 0.116482 13.3428 -1.56338 17
355 1 -8.44662 -3.32255 -10.3021 17
356 1 -15.0472 -1.39584 5.16382 9
357 1 -6.21708 -9.56568 12.8103 8
358 1 2.8735 6.26486 -8.39756 21
359 1 13.4693 5.63918 -3.43699 16
360 1 -9.86335 -9.13008 0.807146 15
361 1 0.00279819 -9.04966 -0.40326 20
362 1 -7.3115 9.92253 7.77542 12
363 1 -0.217047 -4.65172 -8.61309 22
364 1 11.7155 -1.12893 -1.24034 21
365 1 4.62379 12.0063 -8.31817 14
366 1 5.21979 -6.1225 4.96965 19
367 1 -10.8674 4.20272 8.35868 15
368 1 9.64875 8.05819 8.17935 18
369 1 -2.36966 4.23233 -15.7709 11
370 1 -5.186 -6.55608 -4.90917 20
371 1 2.10148 -0.239719 10.5165 17
372 1 9.02862 7.6021 11.0425 16
373 1 8.97552 11.4991 -5.99845 17
374 1 -10.6061 12.7005 0.0671629 12
375 1 10.4786 13.8372 -1.58899 12
376 1 11.6291 -5.55883 10.3129 19
377 1 12.298 2.46884 -9.44137 11
378 1 -14.3625 -6.67069 1.61719 11
379 1 -1.94219 1.08658 10.4929 15
380 1 -1.60496 16.4094 -3.0789 14
381 1 6.92674 -9.62265 -0.788515 17
382 1 6.99273 -1.29822 -8.45515 19
383 1 -3.97788 14.0317 -5.14098 13
384 1 -7.60785 -6.98053 -11.6468 12
385 1 7.78224 -13.4206 1.77653 11
386 1 -16.2861 -3.90358 0.0631232 11
387 1 -8.53361 -4.21387 7.63477 18
388 1 7.34087 7.47814 -1.47592 19
389 1 2.60915 -6.14748 -8.96103 19
390 1 7.14329 -9.23108 12.4971 12
391 1 8.52513 2.86114 -3.0759 22
392 1 -12.4419 10.6743 0.520583 10
393 1 8.20372 -2.78311 -3.71964 21
394 1 4.03642 8.36142 12.6191 12
395 1 -0.257098 0.33716 -8.48547 21
396 1 4.27992 13.7568 6.07586 16
397 1 8.73468 2.28509 -13.6517 11
398 1 -5.01626 -7.24727 -12.9203 15
399 1 -2.56946 -11.9996 -5.13617 21
400 1 -10.1812 0.662949 -9.29708 13
401 1 12.1147 4.57357 4.43785 21
402 1 15.2347 5.10695 -0.719974 14
403 1 10.4936 -8.95086 -8.15069 13
404 1 5.9121 -10.6377 -5.82549 19
405 1 7.02772 14.6924 4.83805 14
406 1 -7.87685 3.8141 2.1849 21
407 1 12.277 8.20726 1.47145 17
408 1 14.959 -0.570862 -0.887932 16
409 1 11.3137 4.83517 -7.88229 14
410 1 11.9157 2.74539 11.8539 12
411 1 2.98614 -5.36013 7.5914 18
412 1 4.91535 -1.23008 12.8346 18
413 1 14.4209 -0.827718 -6.88969 12
414 1 5.91389 6.07412 10.1698 21
415 1 -8.38851 2.81054 -9.30312 20
416 1 16.5985 10.0735 4.5774 7
417 1 7.76184 -2.17137 8.84242 21
418 1 10.8658 -2.36889 9.92166 21
419 1 3.87249 8.28482 9.82222 17
420 1 10.3926 5.25674 7.31213 19
421 1 -3.46725 10.5756 -2.75149 17
422 1 14.1937 10.2807 -4.29257 9
423 1 10.3388 -2.78576 -10.5649 12
424 1 3.19278 15.8499 -1.83063 13
425 1 -1.10565 -13.0133 -0.315602 17
426 1 -13.0356 2.80288 6.04098 10
427 1 -8.50054 8.38479 -9.7856 13
428 1 -4.77751 -14.4336 0.936085 13
429 1 -5.60045 1.04122 -10.739 21
430 1 -10.3817 2.66619 -0.498076 22
431 1 9.76689 -5.46565 3.52348 16
432 1 15.2733 11.3021 7.70699 9
433 1 0.0735408 -9.67627 4.85678 22
434 1 -9.03755 -2.64223 -7.68552 20
435 1 -3.26899 6.35064 15.9621 12
436 1 8.55477 6.81191 -9.40466 15
437 1 8.75601 4.83775 -6.51191 20
438 1 5.78506 -13.5671 -3.87951 14
439 1 12.0835 -0.37061 4.32181 19
440 1 9.04988 9.26567 5.59566 18
441 1 12.3974 -2.65352 1.9103 20
442 1 -1.96938 3.29308 10.9603 16
443 1 -12.0154 -2.19441 1.24283 23
444 1 -10.0813 -5.56 -9.59326 11
445 1 6.21801 -3.37342 11.3891 18
446 1 0.198839 -7.08087 12.372 14
447 1 3.97932 6.16593 15.0103 11
448 1 -5.0336 11.9676 -0.547557 20
449 1 9.002 5.00793 4.86152 18
450 1 11.2464 7.23218 4.56524 20
451 1 -0.292197 2.22088 -15.8879 10
452 1 -10.7634 1.17426 9.44429 22
453 1 11.103 -0.320452 -6.56596 19
454 1 11.4916 -5.87307 -5.26018 18
455 1 11.5201 2.91552 7.97386 21
456 1 0.440653 7.91155 4.28445 21
457 1 15.4046 8.26887 6.90217 12
458 1 0.849194 -3.981 13.0141 18
459 1 -3.12699 5.33682 12.9668 22
460 1 0.405609 -0.806977 -13.9189 14
461 1 -7.88441 1.84918 10.6079 20
462 1 9.5909 2.28836 10.692 22
463 1 13.6163 10.081 4.14606 16
464 1 8.49197 -11.8968 -3.11775 16
465 1 7.01264 7.63611 3.76881 20
466 1 12.9681 13.3672 6.02692 8
467 1 3.44605 14.4526 -4.51617 13
468 1 10.8255 10.0321 3.39507 18
469 1 -8.53799 -11.8546 -1.46553 14
470 1 -6.0979 -1.90413 -11.7619 21
471 1 -8.37846 13.6608 2.22198 12
472 1 8.98349 -5.8934 -9.4829 13
473 1 11.9788 10.7522 -6.78042 10
474 1 8.39708 10.6703 -1.54033 20
475 1 -5.96815 6.17781 2.02207 22
476 1 11.9579 10.7774 -1.11567 16
477 1 -4.41619 -12.2697 9.50435 10
478 1 -3.43837 7.27666 -12.0024 13
479 1 7.0402 11.8892 7.1835 17
480 1 4.9003 3.43997 7.41728 22
481 1 11.2777 12.3621 -3.77323 13
482 1 9.48648 13.9361 7.29004 9
483 1 13.5965 -3.98395 -0.991668 15
484 1 -10.5938 0.441668 5.52733 20
485 1 2.38774 -14.1651 1.66617 12
486 1 4.21682 0.411807 -7.75693 25
487 1 1.79362 11.1834 5.01883 22
488 1 -14.9498 -3.56462 2.41461 13
489 1 6.80193 -10.7041 2.22189 15
490 1 6.40622 9.3362 -5.46089 14
491 1 6.00203 -1.82231 -13.2377 16
492 1 5.78908 -12.2268 6.91186 13
493 1 5.75661 14.6767 0.183966 12
494 1 -7.62949 -2.41035 13.1606 13
495 1 -6.44924 -10.9391 -7.9698 16
496 1 4.73156 -6.18741 -7.18219 19
497 1 -1.02123 13.4228 7.27461 18
498 1 6.39109 -8.01845 -5.83747 20
499 1 7.0322 -8.56581 9.88231 19
500 1 0.964287 -15.3271 -0.799966 13
501 1 -11.563 -2.49146 8.24536 16
502 1 -11.226 -9.76366 -4.4317 14
503 1 -12.1075 -1.32072 10.9841 10
504 1 14.2689 4.98712 -6.9218 9
505 1 -4.84392 3.08885 7.42733 21
506 1 -13.2925 6.8073 3.00161 7
507 1 9.00626 -2.86741 2.62703 20
508 1 2.38369 8.98263 -3.55937 19
509 1 9.94603 2.20376 -5.74093 20
510 1 8.94146 5.01241 -0.74453 21
511 1 -10.756 2.57834 -3.9957 19
512 1 -11.9984 -8.53192 -9.14323 9
513 1 4.06192 6.282 -13.0426 12
514 1 0.958127 0.41603 14.0436 13
515 1 -3.32337 -7.51271 12.6728 14
516 1 1.82001 -1.84057 -8.08283 20
517 1 -5.87732 7.99527 -1.41868 22
518 1 3.84252 8.00379 4.63255 21
519 1 -8.51647 -5.65509 4.54382 22
520 1 10.1969 7.90075 -6.39851 17
521 1 -2.3275 -15.2763 -0.682479 13
522 1 4.59957 8.97751 -8.30428 20
523 1 -5.08587 0.919232 -13.6289 13
524 1 -0.211484 -2.11309 15.3707 10
525 1 2.34326 8.97971 -13.7632 8
526 1 -9.79789 -3.63681 -0.923414 21
527 1 -7.02988 -9.23243 0.0607158 19
528 1 12.9468 7.88509 -5.59482 12
529 1 14.7634 -4.82661 2.35775 11
530 1 -9.62822 3.12039 13.6413 12
531 1 5.85941 -8.53668 3.65498 18
532 1 15.6446 -1.99324 2.64414 13
533 1 16.8749 -2.94533 9.70001 8
534 1 1.15645 13.8272 5.12614 19
535 1 -4.72865 2.40252 12.4834 20
536 1 -3.02967 -11.1437 6.87287 18
537 1 10.5259 2.42831 5.00956 23
538 1 6.79835 6.82902 12.611 16
539 1 -15.3355 0.671443 -0.79001 11
540 1 14.3134 -6.72047 0.0534253 12
541 1 5.56024 9.06657 1.00065 19
542 1 7.70474 1.22817 13.5374 15
543 1 0.766558 16.0916 2.67471 10
544 1 5.41216 -12.3249 4.27132 13
545 1 -8.37927 -2.30253 -3.80306 24
546 1 3.72419 2.28649 10.1596 19
547 1 5.01019 11.0747 4.48922 17
548 1 -9.90352 -11.271 8.58446 10
549 1 12.447 -1.33882 6.96123 19
550 1 13.7734 -3.97934 7.79747 19
551 1 12.8414 9.0555 9.12416 10
552 1 -3.66713 -4.30815 -11.5079 21
553 1 -5.16899 3.12786 -8.32132 22
554 1 -3.59243 -5.33251 7.4415 22
555 1 -2.27532 15.6103 3.2053 10
556 1 13.4823 0.0965664 1.36574 19
557 1 3.94954 11.5797 -5.06878 17
558 1 0.185566 6.03193 16.1811 11
559 1 6.8638 9.15569 9.49065 18
560 1 8.38091 -0.5515 -14.6485 10
561 1 -5.23812 -11.6956 -0.679381 23
562 1 14.4675 3.34328 4.51296 16
563 1 4.20681 -3.28557 -8.18172 21
564 1 -1.99945 -8.30202 -2.54764 22
565 1 13.4739 -0.29691 -3.52125 19
566 1 1.99653 -5.96288 10.4172 17
567 1 -1.62528 -7.11045 -7.61204 21
568 1 7.95976 11.1077 3.3335 21
569 1 -14.3457 1.96418 9.40065 9
570 1 10.4637 5.71703 -3.68562 20
571 1 3.70061 -0.694315 -15.3496 15
572 1 -4.34659 9.14514 8.03007 21
573 1 1.12696 4.53285 -14.4582 14
574 1 10.3281 -3.54448 -1.71272 18
575 1 -10.3712 0.514141 2.70161 20
576 1 14.684 2.73081 1.14567 19
577 1 -11.6829 -7.57817 3.69259 15
578 1 6.9922 5.70758 6.9943 21
579 1 -13.7555 -7.57762 -6.4516 11
580 1 -8.52382 4.5928 10.8427 16
581 1 -1.88881 3.24326 -8.5141 23
582 1 13.5481 -8.04227 -6.22082 11
583 1 -10.8483 -5.95544 -6.55394 18
584 1 13.5514 -7.95702 3.28868 9
585 1 -13.8575 2.14893 1.40095 15
586 1 -5.18084 -5.95098 -0.621187 22
587 1 -10.033 -8.49121 6.12834 17
588 1 16.0699 -1.52968 6.35802 12
589 1 13.7571 1.46528 6.95554 18
590 1 -7.97526 8.47284 1.75881 18
591 1 0.648866 8.33702 10.6387 17
592 1 10.4296 9.73444 -8.8544 11
593 1 -5.84794 12.1342 8.19379 13
594 1 9.35573 14.7422 -4.68473 10
595 1 1.31247 7.55091 13.4141 12
596 1 9.51845 -7.09836 12.4087 12
597 1 7.34469 12.0023 -8.55783 11
598 1 -3.23158 -3.25503 10.4882 20
599 1 -6.26572 -5.11607 -9.97968 20
600 1 -12.262 -0.0833807 0.0323515 21
601 1 -0.255725 -10.7969 8.6863 15
602 1 6.50539 0.0959617 7.13297 19
603 1 0.210507 -10.9072 -2.9287 22
604 1 -14.569 5.67314 -3.46758 11
605 1 13.2125 1.63133 -6.9669 19
606 1 -6.68598 13.9094 4.43351 12
607 1 -5.14747 -2.56521 7.55071 22
608 1 -3.56039 -10.319 -8.35849 17
609 1 0.685021 -13.2882 -6.55312 14
610 1 7.16055 -14.4388 -1.39959 11
611 1 -1.83173 9.95779 -8.01793 16
612 1 13.5009 1.71624 -1.33971 24
613 1 8.69847 8.70769 1.23242 21
614 1 10.1486 0.118596 2.05402 20
615 1 -0.90423 8.53876 -10.6269 13
616 1 -1.37958 -8.42389 7.40703 20
617 1 5.55712 8.43461 -3.09295 23
618 1 6.47719 1.94486 -6.41964 22
619 1 -9.2623 5.2279 -5.16428 22
620 1 -7.45132 -11.7578 10.2705 11
621 1 5.8536 8.77782 6.85136 18
622 1 0.0195678 -13.9183 4.963 11
623 1 4.95911 4.49907 -6.33904 23
624 1 -3.91563 7.34441 10.3697 19
625 1 -10.1498 0.413982 12.3264 15
626 1 10.1829 1.92942 -0.825421 21
627 1 -1.75515 -6.09917 10.0024 16
628 1 8.28536 -11.3104 4.25313 16
629 1 11.6823 6.10884 10.1332 15
630 1 8.77227 -6.26276 -6.0665 21
631 1 -6.49241 4.75457 -11.0665 17
632 1 -6.87951 10.0953 -7.58578 18
633 1 -13.2818 4.80027 -5.77535 11
634 1 9.81935 12.7382 4.98945 19
635 1 0.382933 11.2351 7.87305 16
636 1 -9.09549 -12.1865 -4.3142 14
637 1 10.9219 -0.692295 12.2266 16
638 1 -5.0463 -5.77799 4.74429 19
639 1 12.5896 -0.574235 -9.68851 11
640 1 9.5973 -8.4923 2.24769 16
641 1 3.23106 0.805523 -12.9692 20
642 1 -5.06179 4.57129 -13.5637 12
643 1 -9.97003 -4.85909 2.05402 24
644 1 -6.38505 6.0017 -3.30968 20
645 1 -4.64414 3.59646 15.1284 13
646 1 13.3035 -6.82412 7.87144 10
647 1 -6.54268 -11.3308 7.30284 16
648 1 11.7188 2.96189 1.65203 21
649 1 -0.17241 5.61335 -9.95738 18
650 1 14.403 7.03577 4.82957 16
651 2 -9.16001 -6.61832 -5.77855 17
652 2 -2.55312 9.80883 -4.20199 16
653 2 2.35195 -0.99357 -14.184 15
654 2 -1.37268 4.35752 12.336 22
655 2 -10.4556 -6.68477 -8.24493 13
656 2 3.46246 0.427067 9.22242 20
657 2 -13.225 -6.57403 3.16619 13
658 2 -10.6477 6.45997 -4.06126 18
659 2 0.232126 9.75584 9.26552 16
660 2 -13.4445 -1.65209 6.50412 14
661 2 10.3374 5.48149 3.61345 21
662 2 -13.3582 -7.83661 -8.04557 7
663 2 -8.59508 2.99341 -0.930346 21
664 2 -1.61783 -8.29341 4.22305 20
665 2 3.76613 6.07461 10.5855 22
666 2 7.16418 0.308801 -10.1364 19
667 2 1.4843 -13.5409 3.47489 15
668 2 -7.11819 7.60201 -4.65502 19
669 2 -11.6619 3.76298 -5.64265 16
670 2 8.49224 4.72202 7.9879 22
671 2 13.0733 -7.24384 1.35919 13
672 2 -8.70405 -10.3115 -0.150696 20
673 2 -7.93119 -4.86907 9.14576 18
674 2 -3.21087 -14.7998 2.04212 13
675 2 14.444 -5.57288 8.69207 13
676 2 3.73688 -10.1677 -7.4845 16
677 2 6.29275 -1.45581 11.5955 18
678 2 6.34478 8.94217 -11.6161 14
679 2 -9.71738 -11.4762 -2.9389 13
680 2 0.568848 4.16019 15.4863 13
681 2 -11.1376 11.5162 1.6638 11
682 2 -4.59954 5.43804 14.7226 14
683 2 -5.61427 11.4185 -8.90397 12
684 2 9.53851 -12.8988 1.83126 11
685 2 -2.53667 7.15335 6.90166 19
686 2 4.20021 12.5367 -10.4477 11
687 2 4.88632 -6.87991 -3.27511 19
688 2 -0.129328 -5.12881 -6.56567 20
689 2 8.47424 1.11981 -6.62319 19
690 2 -8.99839 1.14667 13.6697 14
691 2 2.55996 5.16257 -12.8948 15
692 2 -3.47322 8.18099 -9.44652 19
693 2 8.59253 8.86834 -1.40538 20
694 2 -3.37427 -5.38901 11.0284 20
695 2 -9.38938 9.83421 4.19227 14
696 2 12.8622 0.286584 -8.03731 12
697 2 1.13907 -5.16978 -9.71773 19
698 2 -15.6366 -5.1566 1.45001 12
699 2 12.9025 11.3655 5.35809 15
700 2 -4.5036 9.10107 5.85792 20
701 2 -1.97795 -11.0921 -9.2884 13
702 2 0.691311 12.9714 8.44409 13
703 2 3.68112 -5.92717 9.40536 20
704 2 8.60985 -2.77682 4.50405 19
705 2 -10.7604 0.873803 -0.736855 19
706 2 10.2467 -11.062 4.10003 13
707 2 12.0461 -9.08507 -1.56255 12
708 2 8.67331 9.17086 3.65643 20
709 2 5.08075 -10.5499 3.13579 17
710 2 14.5743 -2.78358 6.54126 14
711 2 -5.97293 -3.36888 12.6894 13
712 2 11.9553 -3.12568 -0.694669 18
713 2 -0.911382 9.19759 4.43525 21
714 2 9.64345 6.45884 9.41142 18
715 2 -8.42317 4.08582 12.9381 15
716 2 7.62769 9.14501 7.02695 17
717 2 15.7911 -1.10992 4.41836 13
718 2 2.27777 8.35744 -7.24963 18
719 2 -10.0405 -3.7915 -9.43196 12
720 2 -7.02811 0.619533 9.22425 17
721 2 4.67269 2.79964 -5.68225 21
722 2 -7.05825 0.593673 -6.52616 22
723 2 -12.562 0.764677 5.40426 16
724 2 -6.72031 -5.152 4.35229 23
725 2 14.7704 1.52754 2.73572 17
726 2 1.71383 -6.6402 6.81024 20
727 2 -1.24549 -3.64678 14.763 9
728 2 8.59622 -1.91018 -10.1355 13
729 2 4.56313 -1.45217 14.8916 10
730 2 -2.89122 8.95957 9.65302 19
731 2 -9.90061 4.15345 1.66038 17
732 2 4.52184 -8.02005 -6.33365 20
733 2 7.84855 -0.799459 -4.03911 22
734 2 -7.76825 11.423 6.94546 11
735 2 -4.43544 -15.38 -0.517948 11
736 2 12.6112 -8.78183 -4.59255 13
737 2 0.793221 7.50335 6.58642 20
738 2 9.48697 -10.234 -4.11087 15
739 2 9.97457 -4.01908 9.42871 18
740 2 -10.579 -8.29312 2.4334 16
741 2 11.4663 4.85378 1.13529 21
742 2 -6.9293 -8.26832 6.9652 19
743 2 11.4662 9.09286 -7.46936 13
744 2 1.99065 -12.0897 -3.37867 17
745 2 10.4115 -5.49402 -6.80114 20
746 2 2.70749 -13.5449 -6.276 12
747 2 10.6322 -3.95945 2.33116 16
748 2 -5.94336 14.9704 5.69777 8
749 2 13.4043 6.24612 -1.33951 16
750 2 -3.38615 -8.11425 -8.09513 18
751 2 -8.94107 -5.55688 6.38353 21
752 2 -5.04385 -5.73647 1.51889 19
753 2 -5.57622 -8.01022 -0.690468 18
754 2 -6.632 14.381 -1.58597 11
755 2 -11.5702 9.1649 -0.329435 13
756 2 10.2837 7.58993 1.29371 20
757 2 3.58802 5.87593 -6.23833 23
758 2 -5.27225 7.22448 8.98836 19
759 2 -6.54358 0.121268 -12.1127 19
760 2 -14.3347 4.85896 -1.89912 11
761 2 -2.28372 5.10786 9.68901 19
762 2 -13.9679 2.21822 7.60809 9
763 2 7.732 15.3695 3.01568 12
764 2 12.6796 2.82728 0.124873 18
765 2 9.7551 -5.27128 -0.814302 13
766 2 -10.5645 -1.42934 12.0464 13
767 2 1.78431 11.4651 1.13333 18
768 2 -6.62944 11.6304 -1.71241 19
769 2 -7.75302 5.63879 1.38571 20
770 2 16.7971 -1.59416 8.38736 7
771 2 -8.4606 -12.5685 -7.94467 14
772 2 5.32148 5.89061 -11.6724 16
773 2 9.48439 12.4917 3.00819 16
774 2 -12.0995 -6.76676 8.93601 11
775 2 0.708406 8.17294 -3.10368 16
776 2 -4.97263 13.4363 -6.91189 13
777 2 2.29896 9.34371 -1.51427 22
778 2 12.5855 -1.25838 10.7027 15
779 2 0.682176 6.32994 9.61569 20
780 2 14.4085 -4.39075 -2.66268 13
781 2 -5.892 1.30924 11.6247 17
782 2 3.58258 -1.15888 11.3811 14
783 2 -14.0919 1.25856 -3.4295 13
784 2 -6.72126 -6.09526 -13.1222 12
785 2 9.99449 -11.6897 -1.57406 12
786 2 3.04381 -2.27899 -9.45242 17
787 2 15.3074 2.6074 -0.639617 15
788 2 -6.18439 2.60592 14.0783 14
789 2 5.62633 3.47483 -10.5353 17
790 2 -9.27134 -8.06856 10.1638 14
791 2 -5.50904 2.71335 -13.9264 14
792 2 3.67571 -11.2697 -1.3732 19
793 2 8.51231 -13.8879 -0.301072 10
794 2 13.5421 7.68194 -3.60681 13
795 2 -7.82336 6.1443 -9.9719 18
796 2 -2.58703 11.5346 3.9589 16
797 2 -10.9276 -4.78096 4.06371 22
798 2 -8.59288 3.78892 -7.23043 19
799 2 9.19585 8.54979 -9.66747 11
800 2 7.82179 15.0337 -3.67814 10
801 2 -6.99763 -11.2572 2.68919 15
802 2 13.4971 2.68257 10.9294 11
803 2 -3.06161 2.75427 15.0152 14
804 2 -7.39908 -12.4975 -4.89811 18
805 2 6.42366 -9.27478 -4.44077 22
806 2 2.98667 1.3887 14.8177 14
807 2 4.7254 12.1151 7.25478 15
808 2 14.7757 0.87654 -6.06114 12
809 2 5.62673 1.40159 14.2312 15
810 2 12.9714 11.1178 -2.87225 11
811 2 -10.2443 -3.0964 6.86679 21
812 2 5.97899 -5.18878 0.370791 17
813 2 -0.447344 15.5716 4.10182 11
814 2 7.22729 5.70651 4.432 19
815 2 -4.95779 6.20984 -12.1527 14
816 2 5.24806 -4.83256 12.625 16
817 2 -8.57515 12.9083 3.95999 12
818 2 -1.73542 -6.40193 7.02189 19
819 2 8.80651 -6.1925 7.87208 17
820 2 -6.04386 -14.9381 -6.54485 10
821 2 -2.34585 12.6517 -8.95097 10
822 2 -7.99635 -9.62009 -6.79597 17
823 2 -4.38835 -11.92 -4.41195 19
824 2 1.62482 0.0437763 -9.33459 20
825 2 -2.40443 -5.46556 -8.58926 21
826 2 5.68345 7.99953 11.0193 17
827 2 -8.67133 -6.51545 -2.77697 18
828 2 -11.904 7.40544 4.03244 10
829 2 15.2413 -3.63078 10.003 10
830 2 -7.68492 10.2173 0.844591 21
831 2 -3.4163 -12.0028 -0.849708 21
832 2 -1.60123 5.50244 16.043 13
833 2 4.38785 0.0616073 -11.4902 20
834 2 -3.77688 0.811691 -11.6252 18
835 2 8.39289 5.15225 -10.3448 17
836 2 14.5886 -1.39289 -2.46766 14
837 2 -5.28273 -2.39354 -6.15655 24
838 2 -13.4476 0.793687 -0.835306 18
839 2 -7.3966 11.3717 -4.00621 17
840 2 -3.24023 -3.05547 12.823 13
841 2 -3.43158 -2.76548 -8.59974 20
842 2 4.82726 -2.9724 -6.35994 21
843 2 7.72391 -2.28996 -6.90495 20
844 2 8.68918 9.2193 9.83567 12
845 2 5.16242 -12.1846 8.85661 9
846 2 0.0441125 -2.68535 -8.68427 17
847 2 10.1328 4.02682 11.704 16
848 2 9.44455 0.612969 -13.233 10
849 2 -0.153799 -9.1752 -3.18066 21
850 2 4.66833 10.7354 -12.7528 9
851 2 7.92344 13.2393 5.90579 15
852 2 14.9114 4.62762 8.93686 12
853 2 -11.2137 -0.929694 3.72388 19
854 2 -12.4822 3.21125 0.219567 16
855 2 0.350871 -9.58934 7.07935 18
856 2 -0.153796 2.4076 -8.63191 20
857 2 -10.4875 -5.16386 -0.0221042 19
858 2 -10.1349 -5.31941 11.4467 11
859 2 1.39836 -11.7978 8.60801 13
860 2 -12.3123 12.3963 -0.578473 8
861 2 -3.23516 -7.1238 -13.4022 13
862 2 -15.0646 -0.286716 3.64697 12
863 2 7.58171 -7.09604 13.1606 11
864 2 -5.22405 -10.0985 0.538108 17
865 2 -8.42217 -2.24153 4.52677 25
866 2 11.8279 -6.91722 8.87855 13
867 2 5.36472 8.14583 -6.62964 21
868 2 9.91458 10.8794 5.29331 21
869 2 9.74283 6.50594 -1.71377 20
870 2 1.53491 13.5679 -5.15353 17
871 2 -11.6938 -6.0475 -4.62071 16
872 2 10.8872 13.9328 6.09183 9
873 2 -11.6306 -7.75901 5.75822 15