ITEM: TIMESTEP
10000
ITEM: NUMBER OF ATOMS
2000
ITEM: BOX BOUNDS pp pp pp
-30.0 30.0
-30.0 30.0
-30.0 30.0
ITEM: ATOMS id type x y z Coordination
1 2 -14.6925 -3.04592 -3.05685 20
2 1 -3.20314 -17.3219 -4.62881 11
3 2 -3.18402 -16.6602 -2.78841 14
4 1 -3.4777 -17.4883 0.410595 12
5 2 -3.91887 -17.1367 2.2921 12
6 1 0.462072 -17.5287 -4.52752 12
7 1 3.18806 -17.2757 -5.07255 11
8 2 -0.204904 -17.279 -2.73964 15
9 2 3.0538 -17.2666 -2.93574 15
10 1 -0.0387256 -17.4767 0.92734 16
11 1 6.59091e-04 -17.5016 4.59975 12
12 1 3.28322 -17.3594 0.64934 14
13 2 0.395768 -17.9309 2.76359 11
14 2 3.33957 -17.309 2.53468 15
15 2 -5.29348 -4.46965 -15.0045 15
16 2 -6.44027 -1.81674 -15.6789 12
17 2 -1.57264 -4.59584 -15.7332 15
18 2 -3.34631 -1.89756 -16.1334 14
19 2 -6.36477 1.57865 -15.8 13
20 2 -6.72601 4.45797 -16.0216 10
21 2 -1.34898 1.15407 -16.018 14
22 2 -3.45283 4.37363 -15.9848 14
23 2 -1.63108 6.92259 -17.6623 10
24 2 -1.16305 -8.11272 -15.5766 14
25 2 1.77284 -6.68635 -16.1691 13
26 2 0.0639905 -1.76396 -16.3344 13
27 2 4.7126 -4.73773 -15.845 12
28 2 3.45827 -2.02103 -15.7499 14
29 2 6.99499 -3.68337 -15.3442 13
30 2 1.90789 1.14609 -16.0884 13
31 2 -0.258934 4.09141 -16.6431 13
32 2 1.47859 6.64008 -16.1785 12
33 2 5.32441 0.932096 -15.4024 14
34 2 4.51121 4.64485 -15.7946 13
35 2 7.13605 3.74075 -16.1555 11
36 1 -16.9881 -4.85042 -4.59303 10
37 1 -14.9289 -7.71229 -4.40815 13
38 1 -14.9636 -4.72311 -7.42349 15
39 1 -16.9768 -2.42738 -7.56642 12
40 1 -14.8034 -2.87702 -10.4005 10
41 1 -16.5207 0.488757 -5.34405 15
42 1 -15.0789 -2.4479 -4.87257 21
43 1 -14.7346 -5.05019 -2.55327 18
44 1 -16.791 -1.8662 -2.55994 13
45 1 -13.2783 -10.1944 -6.15284 13
46 1 -13.4985 -9.63667 -10.0564 9
47 1 -9.81208 -11.0708 -11.0954 11
48 1 -11.2709 -10.0722 -8.61734 19
49 1 -13.2546 -7.59372 -8.12534 17
50 1 -12.7385 -6.28824 -5.40301 19
51 1 -11.587 -8.77983 -4.90281 22
52 1 -12.1344 -10.5642 -2.5194 19
53 1 -13.4498 -8.08949 -1.78277 21
54 1 -12.8798 -5.957 -10.8766 11
55 1 -12.926 0.255161 -10.3291 18
56 1 -11.7812 -2.76685 -10.4452 16
57 1 -11.3638 -4.3791 -7.21271 21
58 1 -13.2 -1.83054 -7.81116 24
59 1 -13.1114 -0.0422927 -5.35937 22
60 1 -11.7225 -2.75692 -4.98925 22
61 1 -11.4142 -4.9595 -2.26955 24
62 1 -13.2187 -1.91384 -2.3953 24
63 1 -9.33611 -13.1386 -8.89585 12
64 1 -9.96952 -11.6138 -4.62301 18
65 1 -8.40168 -14.3612 -5.58353 12
66 1 -9.93625 -13.5103 -2.75543 12
67 1 -11.3753 -8.42223 -11.1799 14
68 1 -9.86411 -5.41104 -10.2033 21
69 1 -8.23947 -8.68829 -9.93048 24
70 1 -8.68182 -10.6459 -7.52396 20
71 1 -9.56847 -7.47694 -7.32526 20
72 1 -10.0536 -5.75546 -4.82464 23
73 1 -8.14432 -8.54867 -4.88403 22
74 1 -8.21364 -10.5652 -2.06249 25
75 1 -9.94103 -8.02765 -2.48508 22
76 1 -4.91407 -2.95947 -16.3791 11
77 1 -8.20554 -5.04385 -12.4541 15
78 1 -9.63851 -1.92068 -12.9752 13
79 1 -9.85714 0.0398969 -10.2562 21
80 1 -8.04985 -2.89012 -10.0023 23
81 1 -8.02097 -4.82583 -7.24609 24
82 1 -9.92067 -1.67091 -7.4928 25
83 1 -10.0338 0.0107809 -4.9386 23
84 1 -8.59439 -2.90691 -4.81407 24
85 1 -8.39565 -4.76291 -2.27593 23
86 1 -9.95422 -1.76432 -2.29069 22
87 1 -6.59055 -11.7741 -10.3359 17
88 1 -6.66554 -12.9642 -7.70843 16
89 1 -6.74474 -11.4799 -4.99202 24
90 1 -4.87292 -14.4461 -5.08551 16
91 1 -5.15606 -16.2284 -2.4168 13
92 1 -6.91127 -13.4655 -2.40989 19
93 1 -6.17165 -7.47995 -14.5779 12
94 1 -4.92387 -10.3461 -13.1475 14
95 1 -7.74937 -8.31478 -12.5266 14
96 1 -6.52921 -5.77735 -10.1582 24
97 1 -5.26384 -8.76774 -10.4068 20
98 1 -5.21997 -10.1345 -7.35028 22
99 1 -6.4113 -7.22065 -7.3759 22
100 1 -6.56151 -5.31207 -4.86543 22
101 1 -4.89823 -8.4624 -4.45792 21
102 1 -5.02484 -10.7607 -2.10338 24
103 1 -6.86133 -7.40663 -2.06882 23
104 1 -5.84902 -0.12903 -15.2145 16
105 1 -7.59807 -2.87453 -14.8083 13
106 1 -4.70493 -4.11794 -12.9332 23
107 1 -6.35418 -1.34416 -12.2186 21
108 1 -6.35769 0.210958 -9.96633 24
109 1 -4.66296 -2.82216 -10.3098 22
110 1 -4.80731 -4.67616 -7.80273 22
111 1 -6.4575 -1.97277 -7.3851 23
112 1 -6.49154 0.00204565 -4.6164 22
113 1 -4.99451 -2.84208 -4.8441 23
114 1 -5.12905 -4.54182 -2.22102 22
115 1 -6.76009 -1.73156 -2.44379 22
116 1 -3.72222 -11.2234 -9.99817 19
117 1 -1.65341 -14.4061 -9.57139 9
118 1 -4.00261 -16.5465 -7.82631 7
119 1 -4.33594 -14.1561 -9.83763 9
120 1 -3.31383 -11.2705 -4.98745 18
121 1 -1.31332 -14.7279 -5.30347 18
122 1 -1.56047 -16.1178 -1.93452 20
123 1 -3.32962 -13.6131 -2.66043 21
124 1 -3.50941 -5.59878 -15.3621 15
125 1 -2.6702 -8.92233 -15.3405 13
126 1 -1.72312 -9.98823 -12.5722 18
127 1 -3.46763 -7.50355 -12.9892 21
128 1 -3.24683 -5.94006 -10.645 21
129 1 -1.94927 -8.72363 -10.1142 23
130 1 -1.56047 -10.1301 -7.86204 21
131 1 -3.38084 -7.51551 -7.62002 25
132 1 -3.13424 -5.41878 -4.83134 23
133 1 -1.55814 -8.51315 -4.89092 24
134 1 -1.66562 -10.7589 -2.25067 22
135 1 -3.05225 -7.62175 -2.40938 22
136 1 -2.95882 -0.0193357 -15.6539 18
137 1 -1.47292 -2.75425 -16.2479 14
138 1 -1.36218 -4.4395 -13.0421 22
139 1 -3.05525 -1.37278 -13.1537 21
140 1 -3.15327 0.535069 -10.1048 23
141 1 -1.57515 -2.72315 -10.4666 23
142 1 -1.70445 -4.65661 -7.54126 26
143 1 -3.20972 -1.59586 -7.55047 23
144 1 -3.21962 -0.00383199 -4.66053 23
145 1 -1.56827 -2.77532 -4.85135 24
146 1 -1.67751 -4.66459 -2.18113 24
147 1 -3.14347 -1.73991 -1.90423 24
148 2 -15.414 -9.73968 0.197696 11
149 2 -15.0467 -8.99434 -2.87691 12
150 2 -13.3833 -8.3092 -5.42887 16
151 2 -15.8974 -3.62994 -6.15569 12
152 2 -16.5253 -0.592353 -7.13622 13
153 2 -15.4535 -3.29024 -8.67295 12
154 2 -14.6628 -4.70843 -0.649297 17
155 2 -16.8643 -1.92753 -0.74982 14
156 2 -16.5216 -0.0364333 -3.29236 17
157 2 -16.8234 -3.16344 -4.017 11
158 2 -11.6945 -10.8199 -5.17005 14
159 2 -13.1826 -10.1813 -8.23799 12
160 2 -15.7247 -6.04177 -3.74004 14
161 2 -13.3734 -5.72703 -7.17499 16
162 2 -11.347 -8.14961 -8.14045 23
163 2 -11.6103 -10.4954 0.141015 18
164 2 -12.9841 -7.39948 0.172771 19
165 2 -12.9491 -6.5154 -2.94855 21
166 2 -11.5189 -8.87754 -2.98633 25
167 2 -13.4876 -7.77887 -10.3452 11
168 2 -13.5558 -1.51146 -10.28 12
169 2 -13.1554 -4.06914 -10.7934 13
170 2 -11.5972 -4.55272 -5.30784 18
171 2 -13.4884 -1.9058 -5.94893 22
172 2 -13.0458 0.0248721 -8.1971 19
173 2 -11.4268 -2.75754 -8.37554 21
174 2 -11.5932 -4.7865 -0.234734 23
175 2 -13.4159 -2.0344 -0.229673 20
176 2 -13.2424 -0.137996 -3.39623 23
177 2 -11.4527 -2.95086 -2.83651 23
178 2 -8.35106 -13.6717 -7.38135 14
179 2 -10.0758 -11.5693 -8.25359 16
180 2 -8.61601 -14.4679 -1.77769 13
181 2 -10.1919 -11.6212 -2.27294 19
182 2 -9.47871 -13.4523 -4.46219 13
183 2 -8.41109 -11.9447 -10.3073 14
184 2 -11.6222 -10.2624 -10.389 14
185 2 -11.0277 -6.62788 -11.0626 15
186 2 -9.37737 -9.29316 -11.7682 12
187 2 -8.56224 -10.4116 -5.45112 23
188 2 -10.0246 -7.67335 -5.36533 21
189 2 -9.66002 -5.58156 -8.24685 21
190 2 -8.31534 -8.52738 -7.97868 20
191 2 -8.23581 -10.4301 0.0312062 22
192 2 -10.0526 -7.91333 -0.514548 24
193 2 -9.86547 -5.96356 -2.84922 23
194 2 -8.21869 -8.93974 -2.95828 22
195 2 -8.13225 -4.78125 -10.6166 17
196 2 -10.3275 -1.52285 -10.9832 18
197 2 -9.68921 -0.0756212 -13.4493 14
198 2 -8.42104 -3.3222 -13.2622 16
199 2 -8.49487 -4.81815 -5.42889 22
200 2 -10.0598 -1.92403 -5.45898 22
201 2 -9.75348 -0.0266111 -8.25027 23
202 2 -7.96434 -3.03335 -8.00419 20
203 2 -8.39353 -4.89556 -0.155259 21
204 2 -9.79554 -1.90291 -0.245732 22
205 2 -10.2653 0.0562653 -2.91698 24
206 2 -8.38302 -2.88009 -2.93546 25
207 2 -4.34193 -16.3133 -5.7771 11
208 2 -6.3972 -13.5424 -5.64153 16
209 2 -6.71906 -11.0598 -8.47238 20
210 2 -6.01771 -13.6472 -9.74174 11
211 2 -4.88986 -16.3745 -0.314465 14
212 2 -6.87875 -13.5187 0.373831 18
213 2 -6.62985 -11.6362 -2.65824 21
214 2 -5.32123 -14.4399 -2.82374 18
215 2 -5.32022 -10.522 -11.264 21
216 2 -7.03371 -7.48739 -10.8757 18
217 2 -7.56331 -6.57539 -13.4285 14
218 2 -6.24117 -9.13885 -13.6639 13
219 2 -5.06607 -10.1321 -5.27522 21
220 2 -6.59548 -7.55553 -5.27068 23
221 2 -6.46044 -5.49093 -8.23657 23
222 2 -5.14366 -8.4005 -8.1406 24
223 2 -5.19293 -10.5632 -0.224435 21
224 2 -6.69859 -7.77696 -0.247165 23
225 2 -6.58357 -5.43818 -2.83145 22
226 2 -5.15463 -8.37685 -2.67882 20
227 2 -5.08865 -4.57729 -11.0905 22
228 2 -6.43186 -1.6833 -10.3439 20
229 2 -6.51765 0.04519 -13.5335 20
230 2 -4.73077 -2.1728 -12.9313 20
231 2 -4.93379 -4.49209 -5.71113 24
232 2 -6.59454 -1.8638 -5.28022 23
233 2 -6.60258 -0.00512298 -7.61918 20
234 2 -4.86051 -2.72223 -8.38946 24
235 2 -4.95381 -4.77011 -0.318393 24
236 2 -6.62953 -1.78848 -0.441514 22
237 2 -6.73399 0.315901 -2.79841 23
238 2 -4.85465 -2.71219 -2.92714 23
239 2 -2.87069 -12.9728 -10.2032 13
240 2 -3.18333 -10.4696 -13.8093 12
241 2 -1.17686 -16.6957 -5.05372 13
242 2 -3.19173 -13.2918 -4.98453 16
243 2 -3.41235 -10.8168 -7.95098 20
244 2 -3.09601 -15.8466 -9.35098 6
245 2 -1.62976 -16.9226 0.00898507 16
246 2 -3.62831 -13.3948 -0.388186 22
247 2 -3.30877 -11.4785 -2.97095 24
248 2 -1.40888 -14.4632 -2.83032 23
249 2 -1.60811 -10.5705 -10.8793 17
250 2 -3.52793 -8.0356 -10.9715 22
251 2 -3.43057 -5.51654 -13.2909 17
252 2 -4.30759 -7.38598 -14.9368 14
253 2 -1.60404 -10.4093 -5.71367 22
254 2 -3.43125 -7.4114 -5.3492 24
255 2 -3.23659 -5.72372 -8.54839 23
256 2 -1.7089 -8.24192 -8.08544 19
257 2 -1.94324 -10.6943 -0.334699 24
258 2 -3.18495 -7.85146 -0.297285 23
259 2 -3.34291 -5.70287 -2.50371 20
260 2 -1.31267 -8.55398 -2.52272 21
261 2 -1.74073 -4.65462 -10.9727 22
262 2 -3.24607 -1.45961 -10.4428 20
263 2 -3.37369 0.57611 -14.0478 21
264 2 -1.60318 -2.60678 -13.3962 20
265 2 -1.4581 -4.56465 -5.34872 22
266 2 -3.4045 -1.88985 -5.43871 23
267 2 -3.28387 0.54796 -8.03827 22
268 2 -1.87229 -2.62736 -8.53298 23
269 2 -1.50257 -4.90331 -0.283701 23
270 2 -3.16744 -1.91747 0.0977814 21
271 2 -3.55699 0.119961 -2.81652 23
272 2 -1.86055 -2.63998 -2.8719 23
273 1 -15.5652 -9.92665 2.219 8
274 1 -15.548 -10.3692 -1.66644 8
275 1 -15.1839 -8.37385 5.1171 9
276 1 -16.7618 0.100295 0.310258 14
277 1 -15.1343 -3.02106 0.250337 21
278 1 -15.0998 -4.66349 3.15856 17
279 1 -16.5686 -1.74663 2.87177 15
280 1 -17.2222 -0.0502733 5.16243 12
281 1 -15.376 -2.54846 5.4842 15
282 1 -14.968 0.236613 7.54325 15
283 1 -13.5155 -10.7278 0.454132 14
284 1 -13.4659 -5.59079 0.492638 19
285 1 -11.4512 -8.62754 0.415374 21
286 1 -12.093 -10.6936 3.49956 15
287 1 -13.577 -7.59986 2.35628 17
288 1 -13.4432 -5.29803 6.09415 17
289 1 -11.7837 -8.0919 4.88012 20
290 1 -11.2508 -10.6152 7.49738 13
291 1 -12.916 -7.87531 7.73262 12
292 1 -11.8413 -4.715 13.1877 7
293 1 -8.20227 -8.16438 11.4173 16
294 1 -13.2471 -0.166505 0.328313 23
295 1 -11.9091 -2.82408 0.432054 23
296 1 -11.779 -5.15701 3.11425 25
297 1 -13.342 -2.12858 2.75192 24
298 1 -13.4796 -0.0602648 5.35378 21
299 1 -11.9827 -3.1254 5.56986 22
300 1 -11.8585 -5.03392 9.02073 17
301 1 -13.5061 -2.02242 8.43245 17
302 1 -13.7248 -0.16111 11.0116 12
303 1 -11.8367 -2.46118 11.0776 18
304 1 -9.99237 -11.2828 -0.0237233 19
305 1 -8.65 -14.3667 -0.012836 13
306 1 -10.0426 -13.3404 2.58335 12
307 1 -9.93442 -11.6214 5.46017 13
308 1 -8.82648 -16.1943 4.32168 6
309 1 -10.0888 -5.9506 0.35998 24
310 1 -8.17916 -8.48006 0.631097 23
311 1 -8.67275 -10.6784 2.90975 20
312 1 -10.112 -7.95991 3.13016 21
313 1 -10.0448 -5.69155 5.82255 22
314 1 -8.16821 -8.6068 6.04048 27
315 1 -8.42773 -10.5519 8.58414 16
316 1 -9.82519 -7.63836 8.6306 19
317 1 -9.76874 -5.40938 11.2783 18
318 1 -7.58071 -10.1734 14.076 7
319 1 -10.1029 0.131369 0.294414 23
320 1 -8.46329 -3.10103 0.496015 24
321 1 -8.26162 -5.01792 2.97394 23
322 1 -10.1378 -2.22795 2.79281 23
323 1 -9.99254 -0.30276 5.53791 24
324 1 -8.28658 -2.90261 5.40569 22
325 1 -8.13527 -4.82772 8.29012 23
326 1 -10.0458 -2.22666 8.13512 21
327 1 -10.0932 0.0219252 10.9406 21
328 1 -8.33465 -2.7568 10.5904 23
329 1 -8.05891 -4.19596 13.4458 14
330 1 -10.2437 -1.59185 13.7378 14
331 1 -6.66661 -11.5871 0.590569 24
332 1 -5.08458 -14.4845 0.274474 20
333 1 -5.46765 -16.3791 3.01999 13
334 1 -6.86477 -13.5857 3.1957 22
335 1 -6.63389 -11.523 5.70071 22
336 1 -5.13191 -14.6839 5.58862 14
337 1 -7.09532 -13.1733 7.9263 13
338 1 -6.49814 -12.0486 11.2804 12
339 1 -6.5116 -5.9065 0.309273 22
340 1 -5.0669 -8.56546 0.15771 22
341 1 -5.20006 -10.5695 2.89105 24
342 1 -6.69408 -7.89411 3.14986 26
343 1 -6.42877 -6.13716 5.73957 23
344 1 -4.68057 -8.85472 5.95602 23
345 1 -5.03669 -10.639 8.48668 23
346 1 -6.56685 -7.74095 8.6688 24
347 1 -6.54288 -5.53469 11.2334 25
348 1 -4.8119 -8.37605 11.2289 21
349 1 -4.77391 -10.8583 13.1781 12
350 1 -6.36297 -7.19766 13.8802 14
351 1 -6.70405 0.173464 0.0124179 20
352 1 -4.8584 -2.77742 0.403868 23
353 1 -4.96972 -4.86085 3.12733 24
354 1 -6.81992 -2.06843 2.77933 20
355 1 -6.69758 -0.00564911 5.50914 23
356 1 -5.01553 -3.03214 5.48237 24
357 1 -5.04139 -4.84382 8.40058 23
358 1 -6.46898 -1.91061 8.05254 23
359 1 -6.51466 0.278786 11.0935 23
360 1 -5.06335 -2.73755 10.7981 22
361 1 -4.92653 -4.40828 13.8285 19
362 1 -6.52682 -1.58887 13.4163 19
363 1 -3.49386 -11.6965 0.306793 24
364 1 -1.9511 -14.1562 0.535704 24
365 1 -2.30373 -16.2548 3.03343 17
366 1 -3.63333 -13.4051 3.07944 23
367 1 -3.43237 -11.6592 5.90984 25
368 1 -2.0694 -14.8576 5.77296 16
369 1 -3.77906 -13.4682 8.22347 16
370 1 -3.3028 -11.7984 11.0187 18
371 1 -1.48644 -14.7123 9.98731 9
372 1 -3.31627 -5.80836 0.328881 24
373 1 -1.72749 -8.89365 0.538556 25
374 1 -1.82727 -10.7019 3.13852 23
375 1 -3.43829 -7.86628 2.95572 25
376 1 -3.41386 -6.00057 5.52846 22
377 1 -1.48814 -8.44467 5.42375 22
378 1 -1.72971 -10.6461 8.28677 23
379 1 -3.12436 -7.7367 8.36266 20
380 1 -3.32271 -5.62781 11.1697 24
381 1 -1.69415 -8.52009 11.1867 23
382 1 -1.31256 -10.9201 13.7055 12
383 1 -3.06543 -7.61943 14.4847 18
384 1 -3.06911 0.139889 0.430828 22
385 1 -1.77894 -3.01874 0.663572 24
386 1 -1.80965 -4.95812 3.01036 23
387 1 -3.39273 -2.10229 2.94729 22
388 1 -3.2422 0.0650011 5.54974 24
389 1 -1.72162 -2.96518 5.71885 23
390 1 -1.66024 -4.63214 8.5337 25
391 1 -3.28309 -1.75706 8.16554 22
392 1 -3.18175 0.0542879 11.0858 21
393 1 -1.48354 -2.64953 10.8709 23
394 1 -1.73001 -4.37788 13.7937 24
395 1 -3.51616 -1.58903 13.6928 24
396 2 -15.1393 -8.28051 3.26384 12
397 2 -13.8152 -11.1738 -1.59216 10
398 2 -14.9674 -4.51625 5.09343 16
399 2 -17.0031 -1.80495 4.74406 12
400 2 -16.4287 0.07322 2.26699 17
401 2 -15.171 -3.10215 2.10567 18
402 2 -15.019 -1.69828 7.26507 14
403 2 -13.8081 -11.0901 2.33761 12
404 2 -11.6715 -10.0932 5.46554 17
405 2 -13.495 -7.79378 5.89106 15
406 2 -13.4608 -5.63878 2.73257 20
407 2 -11.8771 -8.38579 2.67032 22
408 2 -12.7494 -6.03631 7.82977 14
409 2 -11.3584 -8.91748 8.12641 14
410 2 -11.795 -4.76269 4.97087 21
411 2 -13.4081 -2.08318 4.62531 24
412 2 -13.5819 -0.254054 2.16101 23
413 2 -11.7501 -3.39526 2.34248 23
414 2 -11.6511 -4.78423 11.0058 14
415 2 -13.376 -1.87554 10.3516 15
416 2 -12.9888 0.295756 7.19322 23
417 2 -12.131 -3.08591 7.91033 20
418 2 -11.6595 -2.95996 13.2246 11
419 2 -9.41774 -14.9511 3.20934 8
420 2 -10.2814 -11.6177 3.47234 16
421 2 -9.60994 -12.9319 0.730155 16
422 2 -9.61174 -11.5595 7.49027 12
423 2 -8.18005 -10.6206 5.18413 23
424 2 -10.0464 -7.56583 5.20717 23
425 2 -9.849 -6.08252 2.21911 25
426 2 -8.35823 -8.70138 2.50403 23
427 2 -6.76589 -11.5023 12.9776 10
428 2 -9.42054 -7.11646 10.5232 15
429 2 -9.93253 -5.89682 7.80811 22
430 2 -8.31955 -8.60142 8.17175 20
431 2 -9.84841 -4.84969 13.095 13
432 2 -7.8582 -8.55531 13.3204 12
433 2 -8.16458 -5.26777 4.97898 22
434 2 -10.0997 -2.36072 5.06506 21
435 2 -9.95422 -0.440517 2.18988 23
436 2 -8.49143 -3.13357 2.52931 20
437 2 -7.99392 -4.62867 10.3738 24
438 2 -10.1164 -1.94743 9.9868 23
439 2 -9.82089 -0.183893 7.57053 22
440 2 -8.42783 -3.08881 7.37281 25
441 2 -10.1886 -0.0408464 12.7738 16
442 2 -8.40987 -2.31712 13.0956 19
443 2 -7.14123 -16.684 3.92011 8
444 2 -6.66717 -13.4437 5.071 19
445 2 -6.94719 -11.5485 2.69571 21
446 2 -5.16067 -14.4642 2.27959 21
447 2 -7.46033 -12.8146 9.81156 9
448 2 -6.80327 -11.0481 7.78161 22
449 2 -5.59602 -13.971 7.36703 14
450 2 -5.0479 -10.6019 4.88646 23
451 2 -6.41465 -8.15394 5.04886 22
452 2 -6.60849 -5.86307 2.23524 25
453 2 -5.1015 -8.75157 2.1487 24
454 2 -4.98372 -10.8483 10.6932 17
455 2 -6.35295 -7.70381 10.5953 21
456 2 -6.64973 -5.86393 7.76382 23
457 2 -4.87733 -8.69256 7.91281 24
458 2 -6.67266 -5.21608 12.9197 20
459 2 -5.28064 -8.68942 13.151 16
460 2 -5.08398 -4.90861 5.08073 24
461 2 -6.50433 -1.87538 4.70748 24
462 2 -6.96292 -0.148659 1.90081 23
463 2 -4.7874 -3.08392 2.34442 21
464 2 -4.91698 -4.76404 10.5514 22
465 2 -6.57642 -1.88695 10.087 24
466 2 -6.54225 -0.09119 7.50663 25
467 2 -4.90367 -2.68521 7.64679 23
468 2 -3.47303 -3.90316 16.1813 15
469 2 -6.16631 -1.31851 15.6288 14
470 2 -6.77445 0.156658 13.1251 23
471 2 -4.97767 -2.52605 12.8639 24
472 2 -1.57511 -16.4978 4.92196 12
473 2 -3.61704 -13.7508 4.99934 22
474 2 -3.43397 -11.6963 2.20976 24
475 2 -1.94351 -14.3899 2.51681 22
476 2 -3.01317 -13.5229 10.073 14
477 2 -3.5681 -11.6808 7.81568 20
478 2 -1.93989 -14.5207 7.69354 16
479 2 -2.98483 -11.1383 12.8546 15
480 2 -1.85268 -10.6337 5.05259 23
481 2 -3.3581 -7.88042 4.98414 24
482 2 -3.48783 -5.91967 2.37946 24
483 2 -1.6013 -8.69487 2.56696 21
484 2 -1.81251 -10.3499 10.1462 23
485 2 -3.19863 -7.33176 10.2046 22
486 2 -3.39447 -5.75946 7.66995 23
487 2 -1.44847 -8.53275 7.93712 21
488 2 -4.87236 -6.69399 14.9666 11
489 2 -3.40507 -5.01685 13.2166 21
490 2 -1.87182 -8.19736 13.223 19
491 2 -1.593 -4.99444 5.02984 24
492 2 -3.40091 -2.0621 4.92933 24
493 2 -3.31269 0.0826069 2.4448 22
494 2 -1.70212 -3.00773 2.752 20
495 2 -1.57977 -4.74049 10.6074 19
496 2 -3.32594 -1.73212 10.2413 22
497 2 -3.09988 0.128963 7.56904 24
498 2 -1.51498 -2.67183 7.65017 21
499 2 -0.467145 -3.82591 17.1455 10
500 2 -3.40364 -1.06038 16.1218 16
501 2 -3.38297 0.37979 13.0995 23
502 2 -1.83294 -2.48298 13.0657 23
503 1 -15.0438 3.26642 -10.3708 10
504 1 -15.0424 0.528199 -8.01299 16
505 1 -16.58 5.82641 -4.58141 12
506 1 -14.9787 2.9775 -5.21554 18
507 1 -15.1419 0.631085 -2.33667 22
508 1 -16.7797 3.46236 -2.25812 14
509 1 -16.1216 5.21456 -7.48977 13
510 1 -14.9616 8.34291 -5.5837 10
511 1 -14.7247 6.43642 -2.03769 19
512 1 -11.196 1.02652 -13.0755 13
513 1 -13.4843 5.71334 -10.3949 12
514 1 -11.5828 3.16097 -10.9327 18
515 1 -11.5246 1.25376 -7.63536 22
516 1 -13.5045 3.86305 -7.82189 21
517 1 -13.3796 5.86778 -4.9757 23
518 1 -11.7885 3.03884 -5.07556 24
519 1 -11.856 1.00899 -2.61862 22
520 1 -13.1284 3.78727 -2.28683 24
521 1 -11.7802 8.90007 -10.2875 8
522 1 -11.4396 7.10409 -7.64928 20
523 1 -11.8454 14.306 -5.16681 9
524 1 -13.5142 11.2516 -4.68145 12
525 1 -11.8954 8.56888 -4.96268 21
526 1 -11.487 6.99732 -2.34372 23
527 1 -13.3067 9.93344 -2.31014 19
528 1 -11.8805 12.3059 -2.01064 16
529 1 -8.06417 2.60553 -15.5449 14
530 1 -8.07684 1.19347 -13.0114 20
531 1 -9.57498 4.42027 -12.9465 15
532 1 -10.0097 6.01807 -10.0234 22
533 1 -8.32264 2.84177 -10.1528 25
534 1 -8.19295 1.0562 -7.36662 23
535 1 -9.85882 4.04556 -7.6049 23
536 1 -9.91965 5.87846 -5.10451 22
537 1 -8.33438 3.06663 -5.03018 23
538 1 -8.48422 1.17438 -2.47695 20
539 1 -10.0988 3.82227 -2.32729 23
540 1 -7.94785 7.50229 -12.7138 15
541 1 -8.31042 9.03454 -10.1971 16
542 1 -8.31985 6.75242 -7.48766 25
543 1 -10.0305 9.84885 -7.56578 17
544 1 -10.3742 11.2058 -4.63265 19
545 1 -8.39815 8.78995 -4.63517 24
546 1 -8.48033 6.68628 -2.35601 21
547 1 -9.91669 9.65399 -1.9967 24
548 1 -8.62664 12.8661 -6.85 18
549 1 -8.54744 15.7047 -5.56582 10
550 1 -8.11543 12.0129 -2.15845 20
551 1 -6.94095 6.11768 -15.2028 13
552 1 -5.25505 3.3071 -15.7372 14
553 1 -4.68191 1.46435 -12.9449 23
554 1 -6.6522 4.21022 -12.997 22
555 1 -6.88564 6.0506 -10.2357 22
556 1 -5.10535 3.03902 -10.5761 22
557 1 -4.98928 1.03281 -7.55938 23
558 1 -6.84399 3.93364 -7.79249 20
559 1 -6.60865 5.72074 -4.85516 24
560 1 -5.07074 2.6669 -4.94173 21
561 1 -5.09381 1.20648 -2.06941 23
562 1 -6.64577 4.10681 -2.41425 22
563 1 -4.26806 7.44321 -12.6104 19
564 1 -5.09648 8.66333 -14.8794 11
565 1 -7.25974 11.7707 -9.67387 15
566 1 -5.30695 8.73239 -10.1175 21
567 1 -5.19349 6.81091 -7.42314 24
568 1 -6.85155 9.59333 -7.32747 25
569 1 -6.78906 11.2852 -4.75494 20
570 1 -4.7223 8.67556 -4.84276 24
571 1 -4.82138 6.85689 -2.12174 23
572 1 -6.45182 9.4615 -2.04243 22
573 1 -4.84042 12.7374 -7.67618 21
574 1 -6.37226 15.0436 -8.39289 9
575 1 -5.59687 14.3033 -4.97289 19
576 1 -4.96371 12.4427 -2.07253 24
577 1 -6.64523 15.064 -2.53481 14
578 1 -2.81721 6.25123 -16.0374 15
579 1 -2.02784 2.99224 -16.1466 14
580 1 -1.40498 0.988555 -13.1517 22
581 1 -3.26258 4.21193 -13.9694 15
582 1 -3.41936 6.11094 -9.90722 22
583 1 -1.64392 3.04526 -10.2139 22
584 1 -1.40072 1.15186 -7.30412 23
585 1 -3.64204 3.95255 -7.44611 22
586 1 -3.19861 5.77206 -4.80401 24
587 1 -1.53954 2.82166 -4.89726 23
588 1 -1.52913 1.03566 -2.4255 21
589 1 -3.32066 3.86303 -2.33495 21
590 1 -2.04799 8.66868 -17.3211 8
591 1 -1.52385 6.50351 -12.6512 21
592 1 -2.03245 9.13097 -14.5613 16
593 1 -3.02619 10.0624 -11.9773 17
594 1 -1.93745 8.36806 -9.99815 23
595 1 -1.59182 6.57305 -7.46987 23
596 1 -3.45768 9.55608 -7.71038 22
597 1 -3.47058 11.5509 -5.02029 24
598 1 -1.68606 8.96543 -4.84835 22
599 1 -1.59574 6.68503 -2.27698 24
600 1 -3.03685 9.76969 -1.78111 22
601 1 -1.6921 12.5849 -12.7556 11
602 1 -4.14715 11.8716 -10.3025 14
603 1 -1.95441 12.69 -7.60198 20
604 1 -3.28564 15.5268 -7.10484 13
605 1 -3.49849 17.5243 -4.00639 13
606 1 -1.73624 14.2389 -5.0199 22
607 1 -1.68921 12.464 -1.99982 25
608 1 -3.26791 14.8901 -2.2723 20
609 2 -14.768 1.19012 -6.01306 20
610 2 -16.4237 4.19855 -5.90093 14
611 2 -14.7158 2.11487 -9.09383 16
612 2 -15.0344 0.771186 -0.358256 22
613 2 -16.5321 3.82161 -0.426062 16
614 2 -16.1442 5.1654 -2.71739 15
615 2 -14.9455 2.5494 -2.76449 20
616 2 -16.1036 6.91434 -6.3748 8
617 2 -15.2265 6.6286 -0.120108 16
618 2 -14.7023 6.84842 -4.20907 17
619 2 -11.3993 1.17607 -11.1483 17
620 2 -13.4294 3.64945 -11.0824 13
621 2 -10.6153 2.93995 -13.1751 13
622 2 -11.1304 1.38209 -5.85166 21
623 2 -13.4207 3.87165 -5.86766 22
624 2 -14.7291 5.31835 -8.99017 12
625 2 -11.7192 3.01673 -8.26501 22
626 2 -11.7153 0.956421 -0.434272 26
627 2 -13.4439 3.76068 -0.422028 23
628 2 -12.9917 5.76741 -2.94628 21
629 2 -11.5584 2.91968 -2.91809 20
630 2 -11.8334 6.79494 -10.3435 12
631 2 -11.8334 6.68939 -5.86298 21
632 2 -13.4639 9.52284 -5.36112 15
633 2 -11.3796 8.72111 -8.51684 14
634 2 -11.8534 6.78254 -0.26773 24
635 2 -13.5725 9.44294 -0.500555 16
636 2 -13.4872 11.6729 -2.85283 11
637 2 -11.8881 8.82184 -2.94597 23
638 2 -11.9746 12.4009 -4.85405 13
639 2 -12.0277 11.8703 -0.0561916 14
640 2 -8.04277 1.14653 -11.0784 24
641 2 -9.87204 4.25557 -10.8927 20
642 2 -8.27053 5.86512 -13.831 13
643 2 -7.8501 2.90678 -13.6664 20
644 2 -8.25533 0.887262 -5.34766 22
645 2 -9.99517 4.12448 -5.70989 24
646 2 -9.83775 5.86719 -8.06565 19
647 2 -8.29699 2.85321 -8.28566 24
648 2 -8.60125 0.90323 -0.477454 23
649 2 -10.1907 3.91037 -0.170523 23
650 2 -10.0233 5.72476 -3.05067 25
651 2 -8.34554 3.12897 -2.89 22
652 2 -8.20663 7.07844 -10.9292 19
653 2 -10.0287 9.62166 -10.6604 11
654 2 -3.50755 8.21487 -15.9605 11
655 2 -8.345 6.953 -5.42679 24
656 2 -10.2233 9.36013 -5.54824 22
657 2 -10.5519 15.5289 -5.21706 6
658 2 -8.40142 8.63353 -7.9628 22
659 2 -8.4241 6.53376 -0.0177795 22
660 2 -10.1204 9.7061 -0.148529 22
661 2 -10.0498 11.4436 -2.75131 19
662 2 -8.33852 8.71349 -2.56422 21
663 2 -8.85848 11.7526 -5.3456 18
664 2 -8.36343 12.378 -0.310997 21
665 2 -7.32156 15.2245 -4.28407 12
666 2 -4.7778 1.24014 -10.5677 20
667 2 -6.82682 3.90205 -11.0307 22
668 2 -6.27305 7.55313 -14.106 12
669 2 -4.85478 3.46866 -13.3842 21
670 2 -4.81233 0.807001 -5.50475 24
671 2 -6.64282 3.89983 -5.55049 25
672 2 -6.67028 5.8551 -8.35659 25
673 2 -5.27078 2.96037 -8.14941 22
674 2 -4.70431 1.06779 -0.150541 22
675 2 -6.4886 4.14819 -0.392188 23
676 2 -6.74597 6.09922 -2.8182 21
677 2 -4.97006 3.16325 -2.92042 23
678 2 -4.86726 6.62638 -11.067 23
679 2 -6.77676 10.0768 -10.5808 14
680 2 -3.86549 9.23172 -13.4876 13
681 2 -5.05336 6.73928 -5.29578 21
682 2 -6.51309 9.40342 -5.07556 20
683 2 -7.6974 11.2589 -7.83192 16
684 2 -5.16974 8.84528 -8.05178 25
685 2 -4.80365 6.93181 -0.182473 23
686 2 -6.92213 9.75097 -0.251861 22
687 2 -6.56065 11.4862 -2.72904 22
688 2 -4.69234 8.82522 -2.70443 23
689 2 -5.66279 12.815 -9.33297 13
690 2 -5.21409 12.2311 -5.77942 23
691 2 -7.81651 14.5838 -7.27675 13
692 2 -4.97397 14.774 -6.73976 16
693 2 -5.03294 12.5473 0.303713 22
694 2 -6.96914 15.1431 -0.779704 16
695 2 -4.8689 14.214 -3.22652 21
696 2 -1.62367 1.3115 -11.1875 23
697 2 -3.44138 4.10925 -10.1476 19
698 2 -3.10508 6.00371 -13.6558 16
699 2 -1.30879 2.97649 -13.6875 21
700 2 -1.38269 0.905287 -5.23704 22
701 2 -3.34251 3.7437 -5.34826 23
702 2 -3.34085 6.07009 -7.72873 19
703 2 -1.47171 3.11684 -8.17798 24
704 2 -1.55447 1.06781 -0.478675 24
705 2 -3.48133 4.01226 -0.431242 23
706 2 -3.43585 5.77238 -2.76474 21
707 2 -1.10466 2.94457 -2.91329 23
708 2 -1.83039 6.7114 -10.7643 20
709 2 -3.4944 9.41674 -10.2127 18
710 2 -1.63015 10.6877 -13.3275 13
711 2 -0.68572 8.96494 -16.0552 11
712 2 -1.62601 6.87566 -5.34559 20
713 2 -3.19187 9.76225 -5.72292 24
714 2 -3.37274 11.6792 -8.33902 21
715 2 -1.91809 8.61145 -7.83586 20
716 2 -1.57389 6.82486 -0.279021 22
717 2 -3.36924 9.73043 0.00160281 23
718 2 -3.28669 11.5451 -2.78792 24
719 2 -1.6761 8.8295 -2.72797 24
720 2 -3.00705 12.3512 -11.6736 12
721 2 -1.88568 12.4403 -5.6313 23
722 2 -2.47789 16.2606 -5.13315 15
723 2 -1.76536 14.5165 -7.9699 13
724 2 -1.38303 12.7323 -0.0582127 22
725 2 -3.46201 15.1921 -0.209861 20
726 2 -3.81378 16.8097 -2.25757 13
727 2 -1.60925 14.3114 -3.076 24
728 1 -16.8951 5.70852 0.162667 12
729 1 -15.0801 2.95787 0.266665 23
730 1 -15.1225 1.14122 3.07249 21
731 1 -16.7637 3.69751 2.98576 13
732 1 -15.2918 2.47039 5.64502 16
733 1 -15.2062 2.71723 9.7335 10
734 1 -14.911 8.30921 0.247118 15
735 1 -14.9991 6.30502 2.50728 15
736 1 -14.3341 8.43569 3.86284 13
737 1 -13.182 5.49172 0.393982 25
738 1 -11.7452 2.91128 0.254434 24
739 1 -11.5441 0.793925 2.48146 19
740 1 -13.4623 3.67082 2.77774 24
741 1 -13.5187 5.08128 5.55205 17
742 1 -11.8462 2.82811 5.07315 19
743 1 -11.5049 0.821192 8.49328 26
744 1 -13.466 3.37387 7.82345 19
745 1 -13.8507 5.72258 9.50058 9
746 1 -12.1021 2.82345 10.5017 16
747 1 -10.0078 2.14629 16.6261 6
748 1 -13.2764 11.7645 1.30477 12
749 1 -11.923 8.59754 0.464037 21
750 1 -11.649 6.69148 2.96384 24
751 1 -13.7643 11.0852 4.43687 8
752 1 -11.722 8.95877 5.80033 16
753 1 -11.8858 6.56314 7.64781 17
754 1 -11.6667 8.1984 10.229 9
755 1 -11.3809 13.255 3.27833 13
756 1 -10.0606 5.70835 0.239215 24
757 1 -8.31408 2.8722 -0.0362635 22
758 1 -8.3328 1.10239 2.82667 24
759 1 -9.93294 3.64179 2.99542 24
760 1 -10.1217 5.46464 5.54726 19
761 1 -8.4277 2.93551 5.6959 24
762 1 -8.23429 0.684377 8.23378 21
763 1 -10.0211 3.66078 8.55443 22
764 1 -10.0028 5.69514 11.1223 17
765 1 -8.5069 2.91216 10.9073 21
766 1 -8.6508 1.15789 13.6494 18
767 1 -10.2761 3.68033 13.5185 14
768 1 -10.2687 11.4525 0.683575 21
769 1 -8.445 8.41988 0.389075 24
770 1 -8.48453 6.44388 2.90178 22
771 1 -10.1809 9.4438 3.17906 21
772 1 -9.85528 11.339 6.25709 17
773 1 -8.61846 8.41716 5.50665 22
774 1 -8.38976 6.73447 8.42103 22
775 1 -10.1605 9.47296 8.51804 18
776 1 -8.65755 9.44464 11.5295 16
777 1 -8.60262 7.13824 13.921 11
778 1 -8.32797 14.4922 0.340793 13
779 1 -8.36648 12.2056 3.14545 22
780 1 -8.89864 14.5122 5.59848 10
781 1 -8.28576 12.2124 9.28731 15
782 1 -6.68158 5.93311 0.490923 25
783 1 -4.93283 3.14005 0.421357 22
784 1 -4.92441 0.94221 3.09428 24
785 1 -6.76571 4.01189 3.16567 24
786 1 -6.5706 5.54867 5.78893 23
787 1 -5.07211 2.86299 5.87671 23
788 1 -5.02075 0.712024 8.27756 23
789 1 -6.73444 3.63925 8.24909 24
790 1 -6.73387 5.74744 10.7145 21
791 1 -5.01092 2.81281 11.0639 23
792 1 -5.08158 1.02612 13.6687 22
793 1 -6.89965 3.98685 13.3309 19
794 1 -6.75296 11.4632 0.649237 24
795 1 -5.05492 8.89576 0.619657 22
796 1 -5.09685 6.85905 3.08261 24
797 1 -6.8909 9.30635 3.28266 25
798 1 -6.43657 11.4492 6.10915 24
799 1 -5.34548 8.50351 5.88287 22
800 1 -5.19259 6.85553 8.63691 24
801 1 -6.79896 9.82757 8.54549 22
802 1 -6.35521 11.7968 12.0217 15
803 1 -5.22018 8.94311 11.3047 25
804 1 -5.42115 6.39066 13.9617 19
805 1 -6.78485 9.57127 14.5336 11
806 1 -5.27344 14.5377 0.435022 20
807 1 -5.21716 12.5424 3.08865 23
808 1 -6.92162 15.1841 3.21173 13
809 1 -5.49968 14.4498 6.07634 17
810 1 -5.0005 12.892 9.13172 17
811 1 -3.13468 5.81087 0.265815 23
812 1 -1.8309 2.73153 0.370996 22
813 1 -1.77018 1.10363 3.12381 24
814 1 -3.38409 3.88344 3.28336 25
815 1 -3.22947 5.64963 5.91384 24
816 1 -1.60777 2.99498 5.6304 22
817 1 -1.5977 1.29154 8.22874 22
818 1 -3.39294 3.65034 8.43442 22
819 1 -3.4285 5.80419 10.997 21
820 1 -1.61435 3.0854 11.0269 23
821 1 -1.64757 1.17103 13.6145 23
822 1 -3.39964 3.75389 13.439 22
823 1 -3.23615 11.7444 0.480629 21
824 1 -1.58453 8.55814 0.486979 22
825 1 -1.70577 6.61882 3.02863 21
826 1 -3.55681 9.61277 3.14428 25
827 1 -3.62932 11.5038 5.9609 24
828 1 -1.81317 8.73228 5.84345 23
829 1 -1.72808 6.76163 8.26028 20
830 1 -3.60046 9.81158 8.56817 23
831 1 -3.11481 11.6592 11.3754 18
832 1 -1.93009 8.76589 10.5921 19
833 1 -2.0254 6.46087 13.7129 18
834 1 -3.73393 9.36767 13.6802 16
835 1 -3.2858 17.1879 -0.365999 11
836 1 -1.71988 14.5828 0.574586 22
837 1 -1.78356 12.0753 3.31039 24
838 1 -3.40868 15.2346 3.40241 17
839 1 -1.52496 14.4174 5.65497 19
840 1 -1.63256 12.5545 8.71802 22
841 1 -3.04408 15.4042 7.51992 9
842 1 -1.70649 12.0338 14.3877 8
843 2 -15.1916 0.572792 5.1755 18
844 2 -16.8292 3.12705 4.68596 12
845 2 -16.6802 5.31206 2.06204 14
846 2 -15.0988 2.72936 2.33274 21
847 2 -14.5847 1.04901 10.1946 13
848 2 -15.0998 2.26679 7.60002 17
849 2 -14.4867 6.48634 4.46071 14
850 2 -14.8256 8.45853 2.15686 16
851 2 -11.5181 0.844578 4.5611 23
852 2 -13.7697 3.34746 4.78568 21
853 2 -13.1351 5.52943 2.39064 24
854 2 -11.5932 2.8409 2.17394 25
855 2 -11.8678 0.62007 10.5826 16
856 2 -13.6026 3.86961 9.9135 14