ITEM: TIMESTEP
29000
ITEM: NUMBER OF ATOMS
1000
ITEM: BOX BOUNDS pp pp pp
-30.0 30.0
-30.0 30.0
-30.0 30.0
ITEM: ATOMS id type x y z Coordination
1 1 0.7454 1.1817 -5.97276 18
2 1 14.0492 -1.57702 2.53364 15
3 1 0.0117735 19.4615 0.73281 18
4 1 -3.82639 11.2106 -5.53853 20
5 1 5.68505 3.36459 14.222 12
6 1 0.184363 6.75176 -12.3206 16
7 1 1.88626 6.98664 -5.86497 19
8 1 6.12865 -6.63062 -2.24098 12
9 1 8.05102 3.42935 9.0685 15
10 1 2.87084 6.75577 7.37466 22
11 1 4.71551 3.69048 3.19628 16
12 1 5.93247 12.6336 -10.9204 15
13 1 1.69129 9.4824 9.27199 20
14 1 -10.6973 10.235 3.52558 11
15 1 4.15248 5.71103 -8.00495 23
16 1 -0.205119 10.8551 7.29823 18
17 1 7.2283 5.98273 -6.15859 18
18 1 4.15057 11.7393 11.4332 13
19 1 5.90104 -2.99934 2.60103 15
20 1 -8.58221 12.0875 1.16085 13
21 1 -6.25282 3.02615 -4.93622 13
22 1 -2.18534 20.3801 -7.11696 14
23 1 3.07471 3.24468 -9.75069 18
24 1 8.94282 3.76043 -9.52507 18
25 1 0.323372 3.66353 12.0609 16
26 1 -6.79108 14.972 2.19407 15
27 1 1.59518 17.7779 -1.9578 18
28 1 7.08372 -1.32428 -0.299958 21
29 1 17.4631 0.836285 -0.34953 14
30 1 8.75059 3.40826 2.01949 15
31 1 -6.26963 16.0664 -6.2643 12
32 1 3.0987 18.7422 -5.82586 12
33 1 7.03274 13.535 0.321055 19
34 1 5.74001 11.1829 5.44942 20
35 1 -4.88423 2.76902 1.62623 22
36 1 1.43162 6.26273 13.6843 10
37 1 -10.4435 5.10404 2.85928 15
38 1 12.0518 13.0894 3.47155 14
39 1 9.12526 4.19507 -0.999625 14
40 1 4.78294 8.91847 13.8156 10
41 1 -5.20221 5.63597 5.95913 18
42 1 3.92065 5.17268 -4.42781 19
43 1 -5.84676 19.9512 -2.90774 8
44 1 -0.460604 3.75495 -13.463 9
45 1 5.04393 10.5431 -2.00453 20
46 1 8.64044 8.78734 -5.94894 20
47 1 9.85524 -1.02414 -1.33261 15
48 1 5.97529 -3.97698 6.45383 13
49 1 -3.62454 11.6183 3.99718 19
50 1 -4.10959 3.90702 12.0769 11
51 1 -5.75464 8.70033 2.35707 18
52 1 14.2671 0.151505 -5.54567 17
53 1 12.7286 8.28194 -9.41166 16
54 1 11.7803 4.98629 2.67574 18
55 1 1.68048 12.4204 1.53313 17
56 1 -2.24909 15.9838 -11.4696 6
57 1 1.75422 16.05 -4.17545 20
58 1 3.95317 1.64257 11.7408 17
59 1 9.65377 -0.32707 -5.71802 16
60 1 1.46953 0.732045 -12.7503 13
61 1 -7.02557 7.14419 7.77031 11
62 1 -7.77371 3.44562 6.7309 16
63 1 7.35442 4.26736 5.31808 19
64 1 -1.82131 -5.23007 -6.20105 9
65 1 15.1965 -0.759561 -0.532088 17
66 1 2.65603 20.4743 3.06772 9
67 1 -2.92387 12.4334 -0.680002 22
68 1 1.79094 12.877 -11.6668 14
69 1 13.6973 -3.58828 -0.0877861 11
70 1 -4.87359 -2.39847 1.33049 17
71 1 9.71435 19.862 4.26059 10
72 1 10.7433 20.0011 -2.15796 14
73 1 -8.12562 15.0935 -3.38347 11
74 1 5.04595 1.13822 -13.1499 12
75 1 1.44295 15.797 -10.1375 11
76 1 9.90863 15.1496 -6.60021 16
77 1 15.9485 6.35732 -8.56709 9
78 1 17.0715 3.42994 4.58094 7
79 1 -3.10657 8.84377 -7.44324 18
80 1 5.81749 19.2878 -1.3905 14
81 1 11.5717 19.2589 -7.66044 10
82 1 3.92218 16.6481 -1.1321 16
83 1 -2.87465 5.23042 -11.0762 13
84 1 -6.46174 5.79529 -3.97842 17
85 1 4.19541 15.0663 8.77551 12
86 1 2.35225 15.8623 -7.17882 21
87 1 4.32576 -5.04424 8.51545 9
88 1 -7.15754 0.500864 2.0859 17
89 1 -5.94798 0.433689 -4.49498 13
90 1 4.88374 14.1654 -5.93872 21
91 1 9.49823 20.4088 -5.01683 14
92 1 3.37348 -1.3734 12.3504 11
93 1 -1.30965 17.5441 -2.01006 17
94 1 8.10772 9.96596 7.42091 16
95 1 -5.04305 6.62629 -9.2896 10
96 1 -3.91747 2.4938 7.08817 21
97 1 -5.34969 -0.88207 3.68979 19
98 1 -11.6011 7.26896 -2.7161 9
99 1 18.7509 1.41618 -3.11192 10
100 1 3.00556 11.7787 8.46051 19
101 1 -7.20205 9.5225 -0.606976 17
102 1 -5.67881 3.98883 -1.0845 19
103 1 -2.11471 -4.97674 2.48995 9
104 1 13.841 11.8079 -3.15346 17
105 1 5.28406 0.321113 15.6891 7
106 1 5.06878 7.77937 -13.5056 15
107 1 -1.73493 5.95041 -7.55658 20
108 1 -3.26752 19.6831 -0.343342 13
109 1 7.74769 0.634591 10.4378 10
110 1 -3.2352 17.4571 -8.46096 13
111 1 3.98986 11.2161 -13.1242 10
112 1 -6.09219 14.4042 -0.510452 19
113 1 -5.47765 14.7309 8.15743 11
114 1 0.957111 -1.66606 -10.6697 12
115 1 -4.23113 10.9404 10.0484 11
116 1 6.57554 3.08903 -4.43394 21
117 1 9.11394 17.181 -9.32398 9
118 1 -1.20617 18.1665 -4.49425 21
119 1 -7.17991 11.2821 3.82058 14
120 1 2.52144 10.0187 5.67178 22
121 1 17.8157 5.96021 -0.782289 15
122 1 11.3932 10.3462 5.46168 14
123 1 -4.1834 8.42741 7.88241 16
124 1 -7.99204 12.7743 -1.31887 11
125 1 6.40601 3.68161 11.2214 17
126 1 8.69033 -3.38849 -6.9332 11
127 1 8.07733 1.48618 -12.7797 11
128 1 15.2038 6.4437 -2.19758 19
129 1 -6.73271 1.09531 8.47893 11
130 1 -3.4928 2.16813 -9.83391 10
131 1 -7.04023 -4.00704 3.14586 7
132 1 -2.94455 -2.32778 3.44278 16
133 1 -0.655465 -3.35493 -8.49886 14
134 1 -0.643451 5.73032 -5.16706 16
135 1 9.43721 6.19812 9.84568 13
136 1 5.5009 1.98554 8.50461 15
137 1 1.27366 -0.818377 9.13321 14
138 1 8.6097 15.7343 1.72471 21
139 1 -2.58457 -3.89858 -0.392421 13
140 1 10.9416 18.4121 1.21121 15
141 1 2.18953 3.53655 -6.56218 22
142 1 -1.52522 -0.587165 -8.45936 15
143 1 0.513164 3.01724 4.65025 19
144 1 4.69599 2.59942 5.92674 17
145 1 11.7533 12.7487 -1.33828 17
146 1 6.32374 0.66485 4.93954 22
147 1 -2.13724 2.35445 13.2398 9
148 1 10.5277 -3.79001 -0.190571 14
149 1 6.2737 11.1077 -5.41489 19
150 1 12.2183 -4.50058 -2.76998 10
151 1 6.79943 1.99679 -0.780755 17
152 1 -0.21894 -6.27183 -0.500379 12
153 1 -1.89604 11.748 -3.32286 23
154 1 9.7845 14.1057 4.48992 21
155 1 -5.90988 3.80637 -9.65776 9
156 1 1.73818 7.64591 -9.5191 19
157 1 -8.0084 3.4438 0.953563 23
158 1 7.09038 16.1359 -2.15581 16
159 1 7.02088 13.9403 3.41149 19
160 1 -7.8473 8.95434 5.35532 14
161 1 1.22226 -3.44506 7.38868 14
162 1 4.1874 17.2973 3.81565 19
163 1 10.9792 6.06953 -13.2084 12
164 1 10.277 -3.40371 -4.64256 14
165 1 13.2867 5.39523 -4.64214 19
166 1 -0.432608 -1.85795 2.29746 17
167 1 8.84994 5.62204 12.8014 9
168 1 -10.0282 9.52946 0.0911731 13
169 1 14.5881 -0.302012 5.25698 14
170 1 -3.1202 17.0216 -5.60173 20
171 1 1.74353 18.7963 4.63071 11
172 1 9.91039 1.28675 0.634232 18
173 1 4.37445 14.1551 5.61233 20
174 1 -8.16429 3.54978 -2.03905 20
175 1 5.88149 16.6852 6.67539 16
176 1 -6.33338 9.09169 -6.36409 10
177 1 -6.29906 11.245 7.55045 11
178 1 5.24523 -0.517899 -3.65257 21
179 1 2.20413 17.1539 0.972005 21
180 1 13.1647 2.01405 6.5687 16
181 1 13.4445 -1.79199 -2.7408 20
182 1 1.37567 12.7172 5.78202 18
183 1 -1.54188 1.07201 6.92334 18
184 1 6.19462 3.1902 -7.91174 18
185 1 2.06273 0.758392 -8.87322 20
186 1 -9.1003 6.69629 -1.32199 19
187 1 5.62074 -3.53334 -2.67776 18
188 1 10.5372 17.3977 -2.4231 15
189 1 -1.32901 7.86688 -9.96788 18
190 1 -3.1 16.6489 8.76346 7
191 1 -5.91864 16.6062 5.07791 12
192 1 -2.03839 13.9709 9.88849 10
193 1 19.5423 3.15784 -0.313919 10
194 1 17.3298 9.86074 -6.03331 11
195 1 7.59024 11.0106 3.54249 15
196 1 0.00677425 17.857 -7.68057 16
197 1 2.72388 -3.35339 2.16986 15
198 1 2.66945 20.4423 -0.311058 10
199 1 5.37479 8.31495 -6.20322 20
200 1 -5.35489 12.8489 -7.96185 9
201 1 12.4802 0.198112 -8.41385 11
202 1 14.2319 6.79266 3.54822 17
203 1 -4.14344 3.42486 -6.78162 14
204 1 -7.61613 -1.9656 0.407528 11
205 1 -0.604517 20.4441 -2.32161 13
206 1 -7.77237 17.6587 -1.12949 8
207 1 0.699793 -1.44998 -6.79785 21
208 1 11.86 1.48303 3.15673 17
209 1 2.75437 -5.68877 -1.39839 15
210 1 -5.8051 7.6058 -1.96296 21
211 1 -3.90933 -1.32773 8.22495 12
212 1 0.844426 5.90313 9.55293 18
213 1 -3.41747 18.047 2.98998 13
214 1 2.67866 -2.52094 -4.39004 17
215 1 1.26047 1.22815 1.84429 18
216 1 -8.9912 7.80647 2.58707 20
217 1 -0.358889 0.666638 4.6856 20
218 1 -0.917371 3.47339 8.57932 19
219 1 7.91873 1.03702 -3.19682 18
220 1 11.7495 -3.54196 3.10677 11
221 1 5.62085 11.4381 -8.48515 21
222 1 2.09362 0.88531 13.5839 11
223 1 14.1363 3.26959 4.19041 17
224 1 10.2987 3.62696 -3.57647 19
225 1 -3.92871 14.7304 2.84491 22
226 1 7.36091 6.75217 -11.1582 16
227 1 14.5228 5.51255 1.14944 21
228 1 1.85159 14.6953 -0.413599 22
229 1 -3.48889 8.90377 12.6523 9
230 1 -1.03793 21.9662 -5.17489 9
231 1 6.58659 -0.766992 7.15598 15
232 1 4.03505 -7.05933 -4.8493 10
233 1 12.0415 7.73253 0.919094 18
234 1 -4.84903 7.31792 10.9193 13
235 1 -3.29121 1.32056 3.94996 22
236 1 -2.57642 1.64657 -4.68063 16
237 1 -0.762984 16.8624 5.92721 12
238 1 7.38032 -4.76874 0.075816 13
239 1 -10.6465 1.42227 1.22416 9
240 1 12.0333 -0.546466 7.82906 9
241 1 14.3637 9.91684 -0.985964 17
242 1 5.11273 8.17463 -9.15982 20
243 1 -1.27773 12.1047 -6.32002 22
244 1 6.34309 11.9907 9.1446 17
245 1 -11.1227 4.40728 -3.43788 11
246 1 8.38409 18.3165 -0.687863 18
247 1 -2.49411 -1.97379 -5.39675 15
248 1 8.6133 4.97908 -14.5429 9
249 1 11.2885 16.9415 3.88672 15
250 1 11.7565 10.2911 -4.7567 18
251 1 7.08827 10.2146 0.167221 19
252 1 1.74324 2.11688 9.85048 19
253 1 8.56235 8.05959 -13.7961 11
254 1 13.7094 18.3274 -2.86138 11
255 1 9.22598 0.469524 3.48184 17
256 1 10.4195 9.22071 -11.5269 20
257 1 7.16105 -5.61365 -5.39444 14
258 1 8.5525 -2.06779 4.76384 18
259 1 -2.12212 11.3261 -8.82878 14
260 1 4.28957 14.5627 1.88517 20
261 1 8.88117 11.8276 -10.8047 12
262 1 -11.8103 4.44647 -0.322498 14
263 1 18.2189 4.47548 -3.44479 16
264 1 -0.34562 8.82534 -7.45043 19
265 1 -3.84943 7.45928 -5.14395 18
266 1 10.0456 0.0359972 -11.8154 9
267 1 14.8123 8.69755 -4.74946 18
268 1 9.95844 9.27859 2.45873 19
269 1 4.40541 1.01644 0.556553 19
270 1 -6.40097 2.19796 4.89356 18
271 1 7.54833 19.7151 2.09072 14
272 1 -0.36582 13.5605 -9.81696 16
273 1 15.1607 15.3806 0.708186 10
274 1 6.99872 -1.84224 -5.05695 20
275 1 4.88161 -3.69621 -6.02653 18
276 1 12.6435 14.605 -4.37826 17
277 1 16.8117 9.48682e-04 2.29181 13
278 1 3.98875 1.3537 -5.77749 17
279 1 9.38123 1.15217 6.31122 17
280 1 -3.39466 16.1116 5.85191 15
281 1 -1.01642 1.31272 -1.25515 18
282 1 2.52568 1.93027 -2.66504 20
283 1 8.16393 8.93284 10.5165 12
284 1 8.50301 11.5414 -2.36026 18
285 1 1.27816 13.0492 -5.84362 19
286 1 6.50702 18.8602 -4.6096 16
287 1 1.28039 13.5254 9.70866 11
288 1 6.84101 0.780144 -6.41401 19
289 1 14.4402 3.18164 -6.93822 13
290 1 -9.78359 1.6377 -1.46909 14
291 1 -4.06886 14.0016 -5.34109 22
292 1 -7.84204 4.88289 4.29687 19
293 1 5.87894 13.6243 -3.09398 16
294 1 9.1511 0.491866 -8.77081 16
295 1 4.04049 -2.19374 8.39522 16
296 1 12.5554 16.6374 -9.26131 9
297 1 -0.635443 16.9065 3.01152 16
298 1 9.59589 2.91571 -6.81546 20
299 1 9.74051 16.5487 6.06864 11
300 1 3.56701 6.04488 -11.5774 23
301 1 12.3087 11.3603 -10.8343 11
302 1 -0.389642 2.30722 -10.7623 17
303 1 -5.50836 -2.13835 -2.24458 14
304 1 13.8701 16.9173 -6.2639 13
305 1 19.0008 6.95269 -6.49783 7
306 1 3.80985 -1.36965 -10.6303 12
307 1 6.04029 17.1731 -7.36711 16
308 1 -4.94245 13.1097 -2.86588 19
309 1 7.34182 21.5523 -3.13736 9
310 1 12.8287 6.44677 6.73292 10
311 1 9.49542 12.0911 1.92556 20
312 1 10.4996 4.28633 5.79031 19
313 1 -1.445 8.88673 -4.68179 19
314 1 11.7184 15.1626 1.45899 19
315 1 17.2941 1.47231 -5.73193 8
316 1 -2.04802 3.4673 1.68684 20
317 1 5.93331 16.7474 1.06122 20
318 1 0.0109958 6.00656 6.68896 21
319 1 -5.17497 19.0798 -6.38796 12
320 1 1.00067 -5.85003 -3.98298 16
321 1 5.90549 3.75341 -10.9917 18
322 1 -0.726125 2.91556 -7.41275 18
323 1 -8.17987 -1.01427 -3.16199 11
324 1 14.3711 1.5985 -2.1479 18
325 1 4.43428 -1.73933 5.15873 22
326 1 8.52373 7.07304 0.29271 17
327 1 13.3206 13.6034 -7.4803 14
328 1 12.2655 7.28084 -1.89268 14
329 1 17.8325 9.42421 -0.622857 11
330 1 7.65865 16.9926 3.98007 21
331 1 17.6293 7.43787 -3.42889 17
332 1 -0.257019 5.56134 2.97704 17
333 1 -3.71508 1.6377 9.88175 14
334 1 -7.28154 5.78527 -7.02269 11
335 1 5.30668 6.0157 13.1323 15
336 1 -0.190838 14.202 -2.84674 22
337 1 9.37372 14.3201 -1.30936 16
338 1 8.20132 9.59394 -9.10939 19
339 1 11.1978 7.77691 4.8034 21
340 1 -10.3161 7.05237 5.78692 9
341 1 11.6081 2.3998 -9.89616 13
342 1 6.23604 -0.513329 2.18345 17
343 1 7.08988 0.95657 13.76 12
344 1 4.99402 7.22576 -0.891651 22
345 1 3.30898 4.45603 11.5746 17
346 1 7.38927 14.353 7.18735 16
347 1 -1.85372 5.90873 13.4487 13
348 1 -0.904143 15.047 -6.07442 19
349 1 3.01135 9.95923 -6.9058 22
350 1 7.45849 8.2245 4.72208 20
351 1 -3.83252 5.76062 0.186309 17
352 1 8.25651 19.1009 -7.57374 12
353 1 2.02246 -6.83451 1.92614 6
354 1 2.63498 16.7361 6.51741 15
355 1 1.78191 14.9585 3.63651 20
356 1 -3.75277 8.30238 4.16211 16
357 1 0.841589 10.1078 -4.27026 21
358 1 -0.521931 8.12787 12.1693 15
359 1 9.42565 12.448 6.9951 12
360 1 -2.66491 4.24974 -2.87825 13
361 1 6.70089 9.82358 -11.3298 20
362 1 -1.00973 10.4288 4.8677 16
363 1 10.2689 5.17607 -6.40778 22
364 1 7.96298 8.47521 13.2416 9
365 1 -11.3197 7.4616 0.800149 14
366 1 0.43035 -4.13884 4.03831 16
367 1 11.1053 10.874 -7.97969 21
368 1 16.4291 -1.42232 -4.2646 11
369 1 -2.60774 7.35652 6.08053 16
370 1 11.4634 7.87351 -6.774 20
371 1 9.0174 6.99093 -8.44791 17
372 1 4.84958 9.30691 8.04934 20
373 1 8.84576 -2.42469 1.84227 16
374 1 2.29558 6.07199 -14.3797 11
375 1 -3.87685 0.714739 -1.99959 19
376 1 -1.72887 13.7462 4.82311 17
377 1 13.1557 9.91554 2.94275 15
378 1 1.05955 20.749 -7.7526 7
379 1 16.6468 5.72327 -5.8082 17
380 1 15.4837 14.5521 -2.51229 12
381 1 6.80787 14.0222 -8.1714 17
382 1 -0.877252 7.96586 8.9188 17
383 1 -5.40471 -3.50688 6.11469 9
384 1 6.28441 -2.11574 -8.43312 14
385 1 -5.63018 16.595 -3.44095 18
386 1 10.2382 9.53808 -0.999796 19
387 1 -2.31573 5.71519 9.78901 20
388 1 3.20098 10.4633 -10.3343 21
389 1 -5.23813 4.47422 8.7824 15
390 1 -5.08528 5.32005 2.72974 17
391 1 7.23149 5.37104 -2.76113 18
392 1 1.04502 -3.80405 -1.98815 17
393 1 15.3436 8.81557 1.38279 16
394 1 13.1376 -2.5557 -5.78776 11
395 1 -0.498346 11.3632 10.8529 14
396 1 -3.79916 12.4228 7.73045 15
397 1 17.3064 6.83825 2.53768 12
398 1 11.556 0.834855 -2.79995 18
399 1 8.82707 6.39901 7.02187 20
400 1 6.2162 19.4215 5.103 12
401 1 1.35722 -1.65383 4.90144 19
402 1 -9.35823 1.2995 -4.71632 9
403 1 7.74779 11.8923 11.7342 8
404 1 9.03697 17.445 -4.66121 13
405 1 13.5051 1.45231 9.91746 7
406 1 12.3619 0.185921 0.187155 19
407 1 10.6209 2.78578 11.1851 10
408 1 -3.19418 20.6124 -3.58835 14
409 1 3.03093 -2.85262 -8.07732 15
410 1 12.5628 8.33142 -13.2173 7
411 1 -2.28466 4.0181 5.35662 22
412 1 16.4175 11.1526 -3.03751 16
413 1 10.4398 13.6596 -9.06757 15
414 1 5.43109 4.49534 -14.158 13
415 1 -2.17384 -4.48589 -3.44677 14
416 1 0.884558 5.29525 -9.00689 21
417 1 11.1615 3.21361 -13.1091 11
418 1 1.47132 -4.75486 -6.33036 13
419 1 5.52371 6.15618 5.83345 18
420 1 -1.50935 -2.03249 6.74285 15
421 1 10.0919 13.0037 -4.44073 14
422 1 -5.86487 18.0075 1.64904 12
423 1 13.3263 5.69148 -7.57882 16
424 1 -3.55677 16.3786 0.195679 15
425 1 13.0889 15.7695 -1.34443 16
426 1 5.55845 6.83091 9.22496 18
427 1 -2.8163 14.4829 -8.40757 18
428 1 -0.15434 10.3601 -11.3899 15
429 1 14.4029 2.40524 1.2903 21
430 1 -2.05054 -1.46113 -1.96558 19
431 1 3.19032 -4.66347 5.22756 14
432 1 17.2967 3.36752 2.19315 16
433 1 -1.00238 15.2058 0.0867355 18
434 1 5.19133 15.5858 -9.43723 11
435 1 6.56219 -4.09501 10.9858 4
436 1 1.87101 3.13187 7.04903 20
437 1 2.24561 3.35484 -13.0297 14
438 1 3.35248 0.125945 6.84807 21
439 1 6.57024 -2.39984 14.2965 7
440 1 8.54007 -4.99057 -2.64645 13
441 1 15.1959 13.5468 -5.62809 14
442 1 -5.85813 13.5223 5.42528 16
443 1 -1.5413 12.3649 1.85832 20
444 1 -1.2465 9.58451 -1.57246 18
445 1 0.291152 -0.647237 -3.51501 19
446 1 13.1947 12.413 0.743816 19
447 1 15.9447 4.14205 -0.884914 19
448 1 -0.00851339 0.0789692 11.7527 11
449 1 12.5515 20.0834 -4.66078 12
450 1 14.0926 10.4691 -7.25903 15
451 1 -3.04996 7.10513 -2.56206 20
452 1 2.78934 12.7239 -3.30346 20
453 1 10.9853 7.89729 8.13542 14
454 1 8.93224 12.0494 -6.86175 22
455 1 1.69784 9.96447 13.2543 10
456 1 9.92969 7.02259 -3.80888 19
457 1 11.8639 -1.36202 5.00364 16
458 1 -5.35544 11.9208 1.73839 21
459 1 12.3844 4.6496 9.25157 12
460 1 6.58057 0.604282 -10.1976 16
461 1 0.362392 3.59822 0.0500738 16
462 1 2.53583 9.16899 -12.2912 17
463 1 4.57112 18.5532 8.38267 6
464 1 4.32259 16.8125 -4.02268 19
465 1 -6.20176 0.112653 6.25798 16
466 1 12.269 2.12807 -4.93348 18
467 1 11.4562 5.74992 -10.1847 14
468 1 -9.34327 2.13833 3.59053 14
469 1 -2.88721 14.9781 -2.69783 21
470 1 15.9861 12.0563 0.342465 13
471 1 3.27551 7.41162 10.7624 18
472 1 12.4848 4.06792 -1.32999 15
473 1 3.0257 13.3808 -8.73785 21
474 2 -5.79248 11.0859 -7.05547 10
475 2 -4.70187 19.7561 -4.62232 14
476 2 10.0551 1.59039 -12.955 9
477 2 -3.39138 12.9373 1.89988 21
478 2 -1.92377 5.90628 -3.72565 13
479 2 7.14497 4.61912 13.4018 13
480 2 -7.90512 13.7735 0.728099 15
481 2 5.53233 4.26803 6.36011 22
482 2 4.42125 5.69061 4.06041 20
483 2 5.62631 6.70514 -7.37296 20
484 2 -2.61299 -3.75883 -5.15573 11
485 2 -2.63155 10.6728 -0.280047 19
486 2 0.533745 3.86969 10.0827 17
487 2 6.29421 -0.625346 14.5212 8
488 2 15.3597 6.61091 -4.54357 18
489 2 4.89519 1.63736 4.15671 19
490 2 0.0713731 8.52713 -0.516584 18
491 2 5.91662 10.7243 7.40343 18
492 2 -11.3351 5.63889 1.17299 14
493 2 0.636634 -5.62159 -2.00962 14
494 2 17.5686 3.70262 0.397571 18
495 2 -5.34185 17.7965 3.63232 12
496 2 -0.300015 10.8915 -2.61547 21
497 2 9.34615 16.3141 -1.41931 20
498 2 -1.02159 17.1618 -6.22215 19
499 2 15.5433 -1.8925 -2.37694 15
500 2 -3.15371 6.65133 -9.80606 15
501 2 2.62146 -3.24492 -6.37212 14
502 2 17.977 2.6325 -4.30619 10
503 2 -5.72266 -1.8997 5.0282 14
504 2 12.7233 19.9548 -2.84571 11
505 2 0.769355 20.7179 -0.517472 10
506 2 3.58445 0.958515 -3.90505 20
507 2 3.24462 5.64706 13.2226 13
508 2 17.4835 4.92288 3.35286 11
509 2 -8.26399 8.16063 0.238226 18
510 2 12.3559 17.0641 -2.41853 15
511 2 8.70461 -4.78692 -5.86432 12
512 2 5.42935 14.8006 6.98511 15
513 2 6.03536 12.5677 4.20773 19
514 2 6.98003 11.9225 -3.52121 17
515 2 -2.2795 7.68636 12.9204 12
516 2 10.4576 8.55629 -5.10342 18
517 2 -6.87193 12.8592 -2.53347 14
518 2 -3.32865 11.7791 5.95863 17
519 2 -3.28234 -3.21203 1.77696 15
520 2 -3.34108 -2.78088 6.95072 8
521 2 4.66573 3.49657 12.5366 15
522 2 -4.75033 7.59742 6.21801 17
523 2 -5.71165 12.4013 3.72265 19
524 2 7.17501 -0.426658 -8.77474 15
525 2 16.2614 10.4454 -1.28857 16
526 2 -7.38721 -1.80575 -1.49822 11
527 2 11.0135 3.89758 -11.0458 14
528 2 4.04162 16.7017 8.09369 12
529 2 5.95314 2.38173 -6.05312 20
530 2 6.26384 -3.53353 12.7741 5
531 2 -8.27402 3.2365 4.86296 16
532 2 12.7161 17.851 -7.67622 10
533 2 1.20787 -2.62386 3.05386 16
534 2 18.2729 -0.329207 1.07463 9
535 2 3.17193 5.21723 -6.24462 19
536 2 -3.67729 4.62012 -1.45565 18
537 2 2.5694 1.48424 -6.87504 17
538 2 -0.564282 5.17627 0.664438 15
539 2 -5.97901 -0.77169 0.517289 21
540 2 -0.743091 -1.87973 -9.64238 10
541 2 -4.01182 11.5297 -3.73118 21
542 2 4.30523 11.7933 -11.2463 17
543 2 5.70693 12.4344 -6.90466 19
544 2 2.81787 13.8565 -6.65549 18
545 2 -4.68809 7.12437 2.86224 18
546 2 -7.0136 10.7085 5.83181 13
547 2 5.95479 12.4159 11.4767 8
548 2 -5.20953 15.5693 6.61079 12
549 2 -2.30339 16.9517 -3.67516 19
550 2 13.6917 14.3491 -2.68408 18
551 2 15.5564 0.901445 -0.908449 18
552 2 6.35707 14.8712 1.78604 18
553 2 8.2265 13.8262 -6.63572 16
554 2 -1.73452 12.0564 4.12102 15
555 2 4.09782 16.7601 1.98898 17
556 2 13.7989 18.4784 -4.73709 10
557 2 2.54433 16.9785 -5.35209 17
558 2 7.53861 17.7981 -8.56785 10
559 2 8.82771 8.09612 8.36539 15
560 2 -1.71249 5.84268 5.71133 20
561 2 12.0707 3.94466 7.20426 17
562 2 8.14791 0.370677 -11.2483 13
563 2 -0.0471384 9.99823 12.096 13
564 2 17.3536 8.86666 -4.2473 15
565 2 3.70818 -0.0644215 13.7332 13
566 2 2.76451 -0.511204 5.15335 20
567 2 6.84558 5.10962 -15.1063 8
568 2 5.29276 -1.87653 1.0972 17
569 2 6.24502 20.046 -3.0088 12
570 2 11.828 6.86356 -8.50898 15
571 2 3.46326 19.2506 4.14886 12
572 2 0.065063 7.6641 -5.49675 17
573 2 11.3841 13.014 -7.53606 21
574 2 2.54658 19.6605 -7.24574 9
575 2 10.0315 10.698 6.66475 15
576 2 5.918 -4.64905 -1.28158 15
577 2 4.1891 10.2487 4.62936 19
578 2 13.067 1.22172 1.75148 20
579 2 4.77993 5.92902 10.7204 14
580 2 -0.826686 8.59211 -11.9667 12
581 2 2.6621 -3.88293 8.40406 12
582 2 8.2042 0.168103 5.13305 18
583 2 14.3325 1.60721 4.96534 17
584 2 -5.30569 14.0437 -6.40447 16
585 2 1.95098 -6.79564 0.0530763 9
586 2 1.60189 7.62051 -13.0637 15
587 2 -4.87258 2.68905 -8.36168 10
588 2 10.9774 18.9057 3.03368 10
589 2 -3.80339 -0.752702 2.62362 18
590 2 -5.709 9.42097 -1.61683 15
591 2 12.1037 3.543 3.91555 19
592 2 2.03229 -5.05719 2.38314 11
593 2 7.09479 9.51208 -5.28783 20
594 2 6.98544 8.31258 -12.6939 13
595 2 2.69431 5.8735 -9.47738 19
596 2 2.63648 7.73182 5.59472 18
597 2 -2.4243 1.96266 -2.68123 15
598 2 9.61801 9.04374 -7.65389 18
599 2 12.7719 9.22981 -6.29494 18
600 2 -1.74827 2.13953 5.39681 19
601 2 9.09616 11.9008 -8.60052 20
602 2 6.0279 4.91978 -4.71035 18
603 2 4.79716 -1.81381 -2.04861 17
604 2 4.26466 9.42393 -13.3303 13
605 2 7.42016 6.36373 5.27328 18
606 2 14.9426 13.4119 1.04453 14
607 2 -5.68871 12.8752 7.67049 13
608 2 -6.38507 -4.42555 4.75059 5
609 2 8.67609 9.91082 -11.7187 15
610 2 -5.19161 15.1157 1.03475 19
611 2 -1.35903 -0.749585 3.82923 21
612 2 0.157551 14.1424 4.48323 19
613 2 -1.04272 13.2337 0.290329 20
614 2 -5.36335 2.40358 8.80403 16
615 2 11.9199 -3.55707 1.17858 12
616 2 -10.9433 8.93235 2.03129 13
617 2 -5.70889 0.697998 -2.55237 20
618 2 1.67064 5.1506 7.55753 18
619 2 10.6801 0.489473 7.12922 12
620 2 2.79225 16.6032 -2.71669 19
621 2 12.084 11.8804 -3.93205 17
622 2 15.9234 15.6561 -1.05377 9
623 2 0.1958 18.378 -3.08646 18
624 2 -6.59249 3.94535 -3.15352 20
625 2 -11.7943 5.42853 -2.09181 11
626 2 6.63845 -3.31629 -6.71476 13
627 2 5.18491 -2.38792 6.88882 20
628 2 13.2921 3.72883 -5.3226 18
629 2 -3.06826 15.7185 -6.66793 20
630 2 8.79048 3.21146 6.05362 18
631 2 0.107763 5.3664 12.9746 15
632 2 4.43793 3.78101 -8.56745 19
633 2 0.692755 10.8026 5.67151 19
634 2 11.7016 9.04808 2.18258 17
635 2 -3.82233 5.41907 10.8474 15
636 2 -2.13836 16.9953 4.2438 15
637 2 9.95355 15.6178 -8.48998 14
638 2 -0.195072 -4.39749 -7.01924 14
639 2 -8.6901 4.95535 -0.549492 21
640 2 -8.91402 1.13646 1.8465 14
641 2 9.13712 21.2433 -3.04255 12
642 2 5.3916 6.1161 -11.0118 18
643 2 9.5887 17.8108 4.78529 18
644 2 8.09963 -1.08791 2.81464 18
645 2 -10.5822 8.01559 -0.945306 16
646 2 -1.59782 21.6587 -3.26134 12
647 2 0.216475 6.60246 -10.14 19
648 2 12.4023 9.65476 -11.7467 9
649 2 -2.21848 13.0219 -4.94464 21
650 2 4.83506 7.25504 7.3241 18
651 2 3.32578 15.318 -9.96411 13
652 2 -2.75121 4.2122 13.2283 10
653 2 8.57881 2.68749 0.174824 14
654 2 7.23481 -3.44849 -4.01654 20
655 2 0.953904 19.4187 2.75178 12
656 2 12.3023 -3.12272 -1.35502 16
657 2 -2.54287 4.3301 -7.04296 15
658 2 3.92433 -3.29954 4.03789 16
659 2 7.70572 16.3306 7.03831 14
660 2 3.99036 5.76347 -13.6526 14
661 2 1.60442 13.3755 -9.78168 18
662 2 12.5739 10.2186 -9.07215 17
663 2 -3.60006 19.2334 -7.43575 13
664 2 -0.850693 5.53184 8.59633 18
665 2 -1.26675 -3.62441 3.39358 14
666 2 -5.62677 -0.278832 8.17521 12
667 2 -9.89509 2.98306 -3.22854 13
668 2 -1.47082 4.37885 3.34974 16
669 2 4.73636 15.7859 -7.57038 17
670 2 8.91743 6.37988 -6.7511 19
671 2 2.58938 10.7088 10.4486 19
672 2 -5.74734 6.06244 -0.346101 25
673 2 10.0899 2.47249 -8.6994 17
674 2 11.451 12.1203 1.9359 19
675 2 10.4618 4.56139 12.5098 8
676 2 8.06382 7.22239 -3.91092 17
677 2 -6.4361 10.0785 1.09537 21
678 2 2.51068 18.6478 -0.172335 17
679 2 3.75378 10.5864 13.0079 10
680 2 -1.61368 -3.36756 -1.91552 15
681 2 1.43891 -3.67242 5.56149 16
682 2 -0.687762 10.0396 -5.67286 21
683 2 13.2717 0.856396 8.35701 10
684 2 13.0939 14.9905 -8.52156 12
685 2 5.87995 17.3721 -1.04622 18
686 2 9.65243 -1.82908 0.315561 17
687 2 13.6676 0.922087 -3.89109 18
688 2 10.1122 12.8737 -2.5252 19
689 2 2.60845 3.26071 5.34091 19
690 2 8.44045 5.10525 8.39707 17
691 2 7.80444 5.53769 -0.676051 17
692 2 10.5299 6.3911 5.95866 20
693 2 10.5927 11.9348 -10.3723 13
694 2 16.4129 13.0661 -3.59721 10
695 2 -2.30668 15.9397 -1.25535 18
696 2 4.46031 -2.46992 -9.02236 11
697 2 4.27497 8.56866 9.45361 14
698 2 -7.10731 15.9666 -4.73153 10
699 2 15.5788 -0.939771 3.44032 11
700 2 10.2667 18.7701 -0.479875 14
701 2 13.435 16.2092 1.01594 12
702 2 14.5809 10.5021 1.58727 15
703 2 -10.1974 6.47073 -4.04383 10
704 2 -4.6686 14.9376 -3.49011 21
705 2 -1.13489 13.4067 -7.66645 16
706 2 -5.2536 2.40987 -0.166674 21
707 2 14.5407 12.387 -7.01179 16
708 2 -7.43906 17.3737 0.795942 11
709 2 2.26681 2.38411 11.5973 16
710 2 1.41328 8.13241 13.2078 13
711 2 0.677525 -2.7038 -3.55714 20
712 2 6.27097 2.47168 -12.6625 13
713 2 3.70334 15.2204 0.147605 21
714 2 6.8571 19.674 0.147092 10
715 2 -1.37374 -1.77361 -6.83 15
716 2 -0.113462 -0.410685 0.900043 15
717 2 18.4373 6.30456 -4.77882 12
718 2 -4.53771 20.0893 -1.66951 8
719 2 2.03168 -1.38057 7.50295 15
720 2 5.39535 0.719477 6.64976 17
721 2 -4.65474 1.38463 5.64161 23
722 2 0.186911 0.352127 -7.89176 18
723 2 12.0331 8.57566 6.22556 14
724 2 5.02742 17.9229 -5.58752 16
725 2 1.05238 16.5979 2.24989 20
726 2 6.67861 8.10322 0.11716 17
727 2 -3.53484 2.02973 11.7382 8
728 2 0.481172 22.167 -6.35569 7
729 2 7.38719 -6.29146 -3.44304 13
730 2 -0.426698 1.43158 13.345 10
731 2 12.2931 2.97524 10.3738 8
732 2 -4.5478 13.2547 -0.974187 20
733 2 0.966018 16.3884 -8.45648 16
734 2 -1.18359 7.29437 10.6068 18
735 2 7.97493 3.95613 -7.10067 18
736 2 19.3155 4.56824 -1.64171 13
737 2 12.844 2.26841 -8.46888 14
738 2 1.01866 17.3933 5.81531 14
739 2 -10.9412 8.72248 5.11768 9
740 2 -2.18913 7.30764 -6.33226 17
741 2 13.9051 3.85696 -0.117765 17
742 2 10.4799 7.9549 -2.18237 15
743 2 -2.83483 12.3864 10.2558 10
744 2 0.668259 6.02181 4.75778 18
745 2 1.26002 4.37025 -14.2801 12
746 2 -3.47502 9.53248 -5.51915 19
747 2 -1.00345 1.57056 -5.89783 19
748 2 5.08532 10.8839 -0.129679 17
749 2 4.6142 2.5192 -0.627097 14
750 2 6.79116 8.08327 -9.87034 16
751 2 0.736057 0.923108 -2.29217 17
752 2 0.325794 0.498739 9.93969 15
753 2 -4.92548 8.03975 -7.32698 15
754 2 15.7157 7.75447 2.99111 12
755 2 7.17517 9.9879 5.19085 17
756 2 15.4951 1.80957 -6.20041 13
757 2 -0.349954 -1.02473 5.7919 20
758 2 8.7716 12.6037 3.53593 21
759 2 7.79184 12.5141 7.79213 14
760 2 -7.45476 1.66506 -4.77698 12
761 2 8.98227 13.6292 0.689448 20
762 2 1.63889 -0.643169 12.2092 11
763 2 -3.75129 18.2532 0.988116 16
764 2 4.40046 12.4409 -2.42792 17
765 2 1.88253 11.2649 -0.17109 21
766 2 2.62358 13.726 2.56657 20
767 2 6.98141 11.2167 -10.0131 19
768 2 -2.90782 7.3797 0.678835 20
769 2 7.14047 2.79724 -9.64861 19
770 2 -5.34295 6.68594 9.03821 13
771 2 3.32407 12.4759 5.72493 19
772 2 17.2828 1.78075 3.45475 13
773 2 13.4502 5.9543 -2.53886 17
774 2 -7.96996 2.19244 -0.626197 18
775 2 10.5532 3.5598 -5.26754 16
776 2 15.3986 9.49381 -6.37517 13
777 2 -2.26483 20.383 -5.22807 15
778 2 2.45667 -6.2554 -5.03062 12
779 2 -3.44114 14.6282 8.57322 12
780 2 -9.53746 0.163305 -2.92111 12
781 2 9.20329 -2.04569 -5.71808 17
782 2 3.02961 -0.185805 -0.458398 16
783 2 2.80318 -3.55906 -1.42987 16
784 2 17.4211 8.91343 1.16252 11
785 2 1.54435 10.7115 -11.4802 16
786 2 5.9666 17.406 4.68625 21
787 2 9.10903 -4.5213 -0.924953 16
788 2 9.23462 1.7287 10.398 10
789 2 -0.0248923 10.1865 9.02477 17
790 2 -1.37668 13.222 -2.02555 21
791 2 3.56048 8.3313 -10.3293 21
792 2 8.02326 -0.155135 -1.4029 15
793 2 -4.31031 -2.97532 -0.794546 16
794 2 -5.80326 15.2939 3.66126 16
795 2 10.9606 14.6394 -5.17974 18
796 2 -3.66411 12.7949 -8.8116 14
797 2 7.87411 9.79614 -1.77181 17
798 2 1.92386 -1.46952 -9.13589 14
799 2 5.37646 -6.18007 -5.90043 10
800 2 -7.60005 7.04375 -2.74861 18
801 2 13.7121 6.20596 5.18915 13
802 2 0.103669 2.09611 -12.6504 11
803 2 -7.32832 1.62602 6.84125 12
804 2 11.3274 6.08921 8.85193 13
805 2 7.492 10.2954 12.5145 11
806 2 14.3525 7.26846 -8.89909 13
807 2 -0.357008 15.3663 -11.2282 10
808 2 -1.59531 19.38 -0.874124 17
809 2 16.1286 5.94118 0.0987708 20
810 2 -7.21499 7.48728 -5.62559 12
811 2 10.1084 18.79 -3.73724 18
812 2 2.18718 7.38469 9.15822 20
813 2 -1.16492 5.31159 -12.181 14
814 2 -2.64339 -0.168148 -0.663567 22
815 2 6.88937 0.477526 8.73111 13
816 2 -4.49019 10.2007 2.37943 16
817 2 17.5582 0.103601 -4.42973 9
818 2 10.5468 4.48621 -14.3721 8
819 2 6.26874 7.63816 13.4892 11
820 2 12.8154 -2.02688 3.55175 12
821 2 1.52312 11.8657 -4.59601 16
822 2 7.56256 19.9496 3.93757 10
823 2 -0.734331 11.5997 -10.1309 15
824 2 5.12185 14.8862 -4.24335 18
825 2 -4.22145 2.2895 -5.16267 14
826 2 12.4718 6.54561 -11.7786 14
827 2 -0.39207 13.0881 10.2169 11
828 2 11.9563 2.88136 -2.83188 16
829 2 -0.497744 19.5787 -8.02859 12
830 2 -1.88224 16.3015 1.52512 17
831 2 4.00216 -6.60511 -2.86519 12
832 2 8.40278 15.2057 4.14997 20
833 2 -1.63148 2.66798 -9.29075 17
834 2 -1.8333 9.4061 -8.63208 17
835 2 5.49607 9.42899 -7.76017 18
836 2 8.98953 6.34255 -13.3178 14
837 2 3.11095 15.5699 4.93443 19
838 2 3.35806 13.4596 9.49183 13
839 2 7.86166 19.188 -5.83464 14
840 2 -0.669943 -5.7228 -4.78049 11
841 2 17.3645 6.77772 -7.2156 11
842 2 9.95888 5.05308 2.63371 19
843 2 -6.53449 -3.04942 1.75788 12
844 2 -4.97765 17.3188 -6.31563 14
845 2 -6.81297 0.40236 4.15666 15
846 2 2.64873 12.5599 -13.5076 8
847 2 8.84863 0.886142 -6.8816 18
848 2 7.11873 -4.23174 1.84914 14
849 2 9.93207 1.90507 2.46188 17
850 2 5.95416 1.75018 15.0997 9
851 2 -2.41022 7.99315 7.99077 15
852 2 5.7137 13.9248 -9.47669 14
853 2 7.67664 10.552 9.51384 14
854 2 5.34805 -0.857358 3.84698 19
855 2 -6.25034 -1.51491 -3.94321 10
856 2 -2.89562 -0.116968 7.33434 17
857 2 -8.90284 10.8775 -0.617433 12
858 2 1.36796 2.60047 -9.8635 17
859 2 -6.87302 4.59192 -5.74994 13
860 2 5.58865 18.9064 6.7986 11
861 2 13.1303 -0.850581 6.30425 11
862 2 7.78867 17.5325 1.6176 18
863 2 -1.55575 -5.3764 0.597268 10
864 2 -8.7627 7.4234 6.52959 10
865 2 -9.49807 6.37906 3.98497 16
866 2 8.65276 7.20903 11.4677 14
867 2 6.98669 1.86186 12.0058 15
868 2 10.4766 -5.05256 -3.63346 12
869 2 12.5645 11.2408 4.37284 13
870 2 6.98021 0.194524 -4.53137 17
871 2 0.628297 16.2277 -0.986262 21
872 2 0.47568 4.19812 -7.45025 19
873 2 -7.44742 8.78161 3.54288 20
874 2 9.9384 -2.7596 3.5548 14
875 2 -2.738 2.73408 8.75807 19
876 2 7.57647 4.28017 3.30081 15
877 2 6.26595 3.38878 9.50064 16
878 2 3.56187 8.54505 -5.90828 19
879 2 16.6592 5.02589 -2.46769 15
880 2 10.6877 8.50582 -13.3015 9
881 2 0.416232 14.7979 -4.69254 21
882 2 13.9751 8.16581 -1.33181 18