ITEM: TIMESTEP
21000
ITEM: NUMBER OF ATOMS
1500
ITEM: BOX BOUNDS pp pp pp
-30.0 30.0
-30.0 30.0
-30.0 30.0
ITEM: ATOMS id type x y z Coordination
1 1 -5.96592 -5.6231 -13.9533 17
2 1 2.06927 -4.15628 -0.804102 19
3 1 -13.7305 17.1152 -7.82606 14
4 1 -13.8364 9.74362 -9.80054 23
5 1 -3.73537 -4.82635 7.18754 10
6 1 -9.9464 6.31861 -15.1728 16
7 1 -5.82085 -5.92342 -0.928083 21
8 1 -15.8123 -0.610742 1.68639 9
9 1 2.07139 9.80427 11.1891 12
10 1 2.3952 0.656482 4.30015 24
11 1 -2.53784 9.28288 5.94287 21
12 1 -5.09364 14.7307 -16.0221 11
13 1 0.0375926 5.56438 5.82636 20
14 1 10.1349 12.8605 0.343705 15
15 1 -0.694132 18.1331 -15.2438 13
16 1 -0.797044 8.97631 -15.8364 20
17 1 -11.0213 2.60669 -2.63974 18
18 1 -6.33288 -0.163375 -10.7561 25
19 1 5.2712 -4.69016 -0.48498 21
20 1 -0.525089 0.504547 2.29322 23
21 1 9.546 -7.50243 -3.64738 10
22 1 -9.15837 -9.62883 -8.4555 11
23 1 -0.708859 -2.50288 -15.5991 21
24 1 0.0432318 7.83427 11.3432 14
25 1 -6.31916 -5.41752 1.90727 19
26 1 5.5855 0.812396 5.5717 24
27 1 -12.8929 1.89161 -0.535901 16
28 1 -11.0765 6.01254 -7.09619 20
29 1 -5.06198 14.4629 -8.99697 19
30 1 -0.0904205 6.0568 -13.6598 21
31 1 2.44503 -1.61342 -14.5626 21
32 1 -5.37263 3.90795 7.59083 15
33 1 -13.2796 12.232 -2.26688 20
34 1 -3.17771 18.6405 3.56382 15
35 1 -7.74818 15.6391 -10.2136 18
36 1 -7.81643 19.044 -10.803 11
37 1 -0.0347214 -5.27459 -4.42091 21
38 1 4.68946 -3.01985 -9.53699 21
39 1 -6.22687 11.392 6.48442 21
40 1 -15.6568 5.79106 -13.5099 12
41 1 4.93748 6.24108 -0.694166 22
42 1 -15.324 12.5619 -10.0816 18
43 1 -10.9425 -3.26271 0.117989 21
44 1 -16.0275 14.4675 -7.71646 13
45 1 -2.3439 9.63107 -10.6146 21
46 1 -0.602313 11.3205 2.92988 21
47 1 2.82087 -9.5511 -8.8314 11
48 1 -0.395031 11.2549 5.95517 17
49 1 7.733 3.63787 -15.6389 12
50 1 7.09907 -8.70659 -4.00115 14
51 1 3.31847 3.70037 9.50539 17
52 1 -11.2158 -5.99681 1.43149 17
53 1 -11.3797 5.85674 -3.70969 23
54 1 8.48912 10.1457 -3.65677 21
55 1 7.95962 4.37082 -7.94286 23
56 1 -8.8838 14.7748 3.24545 19
57 1 0.409237 2.70845 4.27433 19
58 1 -8.24246 1.02491 -2.6779 20
59 1 -0.176302 0.48306 -10.9018 22
60 1 -12.8581 14.2218 -7.48164 22
61 1 -2.4713 9.72885 -13.5137 20
62 1 5.1388 3.27974 -9.27413 24
63 1 5.06952 0.250637 -4.3295 24
64 1 3.55278 -6.01235 1.86927 15
65 1 -7.15102 17.0184 -13.4877 15
66 1 -12.0249 13.9301 0.0647619 19
67 1 -8.81246 12.3797 1.34206 21
68 1 -10.8971 3.86157 3.81123 22
69 1 10.9507 -1.82626 -7.56088 15
70 1 -7.89624 12.2668 -1.85039 21
71 1 9.10673 -0.964863 -13.1267 8
72 1 0.469534 2.33059 -18.1122 16
73 1 -4.97778 3.26621 -20.8296 12
74 1 -6.12122 17.4913 -4.10079 18
75 1 -13.7225 15.7585 -10.4207 15
76 1 0.388923 20.8886 -9.90045 11
77 1 -3.44641 15.1227 -0.395326 22
78 1 -15.9294 -1.28554 -1.07148 10
79 1 -2.49548 1.1345 -12.6391 21
80 1 -2.82735 -1.70036 -14.2406 23
81 1 -5.23333 8.54927 4.71376 20
82 1 -11.2774 0.168622 -4.39958 18
83 1 5.36745 0.77599 -0.691103 21
84 1 -11.0729 0.491239 -7.13493 19
85 1 9.24266 -3.92848 0.588077 12
86 1 -4.97694 11.8951 -7.12414 20
87 1 7.98177 8.45264 -16.227 10
88 1 -0.321542 11.962 -10.4373 21
89 1 7.47052 -5.19836 -5.41381 21
90 1 -1.80402 -8.50037 -0.357157 12
91 1 -14.9018 -5.26038 -5.57432 15
92 1 -16.7981 3.74635 -1.65355 14
93 1 7.69002 11.8689 1.79538 19
94 1 5.16605 14.4718 -5.29041 22
95 1 0.749508 17.4109 4.47608 9
96 1 -10.1266 16.1333 -15.175 12
97 1 -3.56408 -4.53014 -15.6525 12
98 1 2.77495 1.78255 11.6723 7
99 1 -7.64616 12.4019 -8.99489 20
100 1 8.26226 7.45497 -8.95247 17
101 1 -13.0252 17.0933 -13.3672 9
102 1 -7.88433 15.4077 -7.13944 19
103 1 7.35104 11.2816 -17.182 11
104 1 8.25866 -4.65237 -2.2231 19
105 1 -7.84247 9.47927 -10.5123 23
106 1 2.89163 18.6559 -7.80486 17
107 1 2.17098 15.3033 0.505656 20
108 1 -10.7424 19.5542 -12.3046 8
109 1 -8.38559 -1.8945 -13.2075 19
110 1 -0.514316 20.193 -0.656322 15
111 1 -18.9431 1.5922 -9.91809 7
112 1 13.1272 7.3303 -1.62551 16
113 1 -3.3014 12.0452 4.64932 22
114 1 -2.43017 15.278 -10.4954 21
115 1 -0.573893 0.894836 8.9257 13
116 1 -18.4995 1.44622 -3.5101 12
117 1 -2.24584 -1.84118 -1.2113 21
118 1 1.0193 -9.96966 -5.90588 12
119 1 -8.10031 14.1754 -14.9358 14
120 1 0.236254 14.6781 -5.31584 22
121 1 8.00895 15.4052 -7.16593 18
122 1 3.15103 -1.77762 6.77992 18
123 1 -10.6279 8.53334 -1.76656 21
124 1 -2.37172 21.5315 -3.09629 15
125 1 4.88019 12.1936 10.1029 9
126 1 -8.2362 17.7384 -1.87311 15
127 1 -8.91707 3.94672 -13.7878 19
128 1 9.83754 -1.38962 -2.01883 19
129 1 -5.90499 -0.138139 2.84869 20
130 1 -14.906 4.96517 0.629898 20
131 1 -11.5791 -5.98819 -1.68473 22
132 1 -19.0531 4.03203 -5.29659 10
133 1 -4.57049 -8.64954 -4.85894 15
134 1 -0.280754 -5.0931 -7.59084 20
135 1 -5.60741 14.4777 -2.32911 20
136 1 -8.5514 6.58816 0.95672 21
137 1 -8.44738 6.90714 -8.75247 21
138 1 -6.1963 13.9994 -12.6672 19
139 1 -17.3155 4.18701 -11.6824 10
140 1 -13.9782 4.63952 5.19965 14
141 1 0.556486 -2.55061 -2.65632 19
142 1 5.71876 -6.3887 -2.84581 19
143 1 14.3217 10.0748 -0.582848 10
144 1 2.93484 9.79311 -10.5945 21
145 1 2.58332 6.44948 4.40734 19
146 1 -1.59517 12.975 -16.0733 16
147 1 1.95998 5.09374 -18.3259 17
148 1 -11.8441 6.72291 -9.89086 21
149 1 -10.8823 16.8159 -11.1317 17
150 1 -10.1265 14.4915 -8.97165 18
151 1 4.98141 1.31395 2.74775 20
152 1 -7.31688 -0.706673 -17.7515 12
153 1 -10.2061 13.9806 -12.8223 19
154 1 2.59218 9.44947 -14.3498 20
155 1 -9.66981 10.4352 3.97359 19
156 1 -8.04241 14.6823 6.57476 11
157 1 -0.049629 -2.59374 -12.4071 20
158 1 -4.89882 -8.30187 -1.46925 17
159 1 8.45239 -7.38181 -6.86769 14
160 1 2.97586 15.5418 -10.2468 22
161 1 -5.97742 17.7547 -7.05975 20
162 1 -13.0846 8.18089 0.0075861 22
163 1 -1.42051 10.7869 11.8414 12
164 1 8.65681 6.56003 -5.67011 20
165 1 -3.20525 15.1823 2.94627 19
166 1 -10.3023 11.1525 -3.31867 22
167 1 -12.0178 -1.79859 -8.5575 18
168 1 5.14447 13.1142 -17.3388 10
169 1 0.684152 2.84266 7.90049 19
170 1 5.79297 16.9937 -9.68056 15
171 1 -0.334129 -2.4933 -9.39058 21
172 1 -6.16134 2.85336 -12.2678 23
173 1 2.12934 4.47458 -10.9729 24
174 1 -13.8842 3.09812 2.44011 20
175 1 3.75046 -8.7234 -4.38868 16
176 1 -16.8096 2.87427 -8.41841 16
177 1 -2.17957 15.7852 -7.15381 22
178 1 -0.389013 3.07847 -15.41 23
179 1 9.93214 11.8528 4.00464 16
180 1 14.0159 12.114 -3.52214 15
181 1 -7.92728 -6.76275 -2.90631 21
182 1 8.77502 2.02335 -13.24 13
183 1 -8.33357 -4.95951 -5.15669 19
184 1 -10.3942 1.09749 -17.2991 13
185 1 -10.7405 9.10847 -15.5497 17
186 1 8.15877 6.66895 3.97285 17
187 1 2.9861 0.936861 7.66055 20
188 1 -9.60805 -5.42892 -14.817 11
189 1 -2.41669 -1.90491 5.46269 21
190 1 -2.50268 15.8458 -16.7714 11
191 1 2.28081 15.3947 -3.02598 19
192 1 -11.3078 -5.59097 -4.8776 19
193 1 -3.47305 15.3186 -3.78046 17
194 1 -11.6925 2.8167 6.84794 13
195 1 -13.5036 -0.474209 -12.527 12
196 1 -10.9844 0.257011 -10.8904 20
197 1 -7.36412 -8.29122 -13.7407 9
198 1 -4.76406 -5.8249 -4.2802 20
199 1 8.82769 9.92737 -0.478202 22
200 1 -12.378 0.666913 4.65289 18
201 1 -5.60487 -10.3806 -7.88021 16
202 1 -2.82602 -4.54631 -2.33015 23
203 1 -7.96113 20.6658 -7.56823 10
204 1 3.90418 6.7475 -19.5881 13
205 1 -7.22115 2.04895 -18.5215 17
206 1 -0.0962025 -2.39393 -5.90318 22
207 1 -3.64097 -7.56048 -14.2973 10
208 1 -14.8741 12.7663 -12.8113 12
209 1 12.3237 9.84774 1.83079 13
210 1 -7.86812 8.09481 -13.629 22
211 1 0.682516 19.7931 -12.5019 10
212 1 -7.90779 3.82239 2.56505 21
213 1 -8.70577 18.2949 -5.44332 16
214 1 -1.77875 17.3438 0.976347 21
215 1 7.89864 6.01529 0.969532 21
216 1 -12.7892 9.3639 3.48514 20
217 1 -3.42318 0.754251 7.45819 19
218 1 -7.79183 12.6579 -5.38628 23
219 1 -3.47916 0.861919 -15.4795 20
220 1 2.45812 -4.62251 -5.9818 23
221 1 -6.61124 6.29379 8.94245 15
222 1 -11.6906 -2.63816 3.42513 18
223 1 11.1368 4.30926 -6.62143 16
224 1 4.76788 6.24334 -10.8725 20
225 1 6.74839 -5.12881 -8.29646 20
226 1 -10.9629 18.694 -7.5665 11
227 1 6.96657 15.9536 3.78992 9
228 1 -10.686 2.78954 0.895692 19
229 1 4.95924 -2.65485 -5.90014 23
230 1 -8.64558 15.2486 -3.58451 22
231 1 -5.36663 11.6011 -0.253785 22
232 1 -1.34492 -7.38379 3.043 12
233 1 8.01293 -0.992479 5.00375 14
234 1 -2.17267 15.5479 5.76445 13
235 1 -8.88392 1.40238 -8.97552 24
236 1 -2.88847 6.69607 10.8705 13
237 1 -0.489475 20.1359 2.36532 11
238 1 -10.325 9.13851 -8.2473 21
239 1 -12.2235 10.6966 6.56361 13
240 1 -16.831 12.921 -2.63965 11
241 1 -5.59999 -2.9315 -12.2473 21
242 1 -12.8714 11.0977 -7.62615 22
243 1 5.97018 4.05975 4.81156 22
244 1 -13.5819 -7.52282 -3.28473 14
245 1 2.95377 -1.81361 1.65872 18
246 1 -11.2635 11.0921 0.521899 21
247 1 -3.31083 0.602425 4.06198 20
248 1 -0.17952 -8.32693 -9.0139 19
249 1 -9.46538 6.68885 -11.7102 20
250 1 4.72377 3.96071 -15.7707 18
251 1 -0.309195 23.7993 -2.97936 7
252 1 -14.0841 3.9275 -3.06723 19
253 1 3.45135 -5.60893 -14.3489 12
254 1 -9.72711 -7.03645 -7.15625 18
255 1 -14.7242 -2.04282 -10.0783 15
256 1 -8.45082 -1.80104 -7.33856 22
257 1 6.17998 8.81516 -5.6779 21
258 1 -10.2269 12.5582 -16.3072 14
259 1 -12.3603 5.91594 -13.7947 18
260 1 -8.69354 15.0258 -0.0567467 20
261 1 -10.7562 15.7032 -5.85017 19
262 1 -6.09361 11.9706 3.4 21
263 1 7.92047 -1.85014 -9.16753 23
264 1 11.1948 12.0293 -3.86507 21
265 1 2.26948 -1.39819 -7.72943 24
266 1 -3.42533 12.4526 1.25294 22
267 1 -19.0508 7.61584 -6.45417 7
268 1 -2.82055 -4.38375 -5.58407 21
269 1 8.37018 2.18379 5.36123 17
270 1 -14.2631 1.04651 -9.70949 19
271 1 -8.44113 -4.81416 0.353695 21
272 1 -3.70108 17.1206 -9.18639 16
273 1 -13.7843 -4.92865 -8.33646 16
274 1 -14.7437 12.1168 -5.39426 18
275 1 -2.1774 18.4111 -12.0752 16
276 1 2.48268 18.4019 2.49206 10
277 1 -16.5982 -3.09962 -7.26554 11
278 1 -2.73255 -4.68952 -9.03101 22
279 1 -15.2002 6.64466 3.13138 15
280 1 -16.6995 10.7615 -8.29465 15
281 1 1.27154 -5.98967 4.79701 12
282 1 -7.36968 -8.31961 -5.2521 18
283 1 2.0607 12.1236 -15.9633 19
284 1 -12.208 11.2958 -12.944 20
285 1 -2.9841 -4.64763 0.743432 22
286 1 8.90607 3.46935 2.05468 17
287 1 -5.97029 6.02964 2.77786 21
288 1 -16.0169 2.91638 -4.94612 22
289 1 -10.8503 8.35583 1.81755 19
290 1 -7.85223 -7.60563 0.30707 16
291 1 2.52519 1.65353 -9.85741 25
292 1 2.3999 -4.5274 -12.257 19
293 1 -15.5313 9.82989 2.80609 9
294 1 -2.46455 -2.5086 8.46559 11
295 1 4.84066 -2.66335 -12.7558 18
296 1 -2.44096 -4.52084 -12.6226 24
297 1 -6.74074 0.319579 5.81155 18
298 1 2.32813 -1.31313 -10.8965 20
299 1 -7.14468 5.01886 -19.4851 10
300 1 7.91112 -7.11505 -0.813835 11
301 1 0.563557 17.5697 -10.1445 21
302 1 -9.67934 0.326378 7.15743 13
303 1 -13.9064 -6.84809 0.246915 11
304 1 6.62141 -4.22498 2.54325 12
305 1 5.96397 8.98437 -2.12759 19
306 1 1.98432 4.20427 -14.0932 19
307 1 7.37518 -1.93486 -0.259217 21
308 1 11.2285 10.6865 -1.33555 22
309 1 -8.0378 8.4141 6.42541 20
310 1 -2.74048 18.4325 -5.27817 18
311 1 2.46781 0.912366 0.759793 21
312 1 -7.2474 -10.4643 -10.9238 11
313 1 -11.0034 17.1953 -0.274976 13
314 1 -11.9257 -5.94149 -12.7062 11
315 1 6.27879 11.171 7.59504 18
316 1 -6.55291 5.5484 5.85259 20
317 1 -7.87463 -1.79026 -4.3843 20
318 1 -12.0345 7.07249 5.71661 18
319 1 -8.24624 -4.84981 -11.7487 20
320 1 -5.89384 14.2581 1.31108 19
321 1 -4.71757 -5.70284 -10.6024 20
322 1 -3.90677 -2.0961 -17.2371 13
323 1 -11.2303 -8.71335 -0.445995 13
324 1 -8.30435 0.895966 0.885476 22
325 1 7.24104 5.29131 7.33663 13
326 1 -8.60671 -2.69607 5.42791 15
327 1 -12.3194 13.7418 -14.7111 15
328 1 5.44541 11.587 -3.76228 21
329 1 -10.3592 -8.33515 -4.10788 18
330 1 0.217976 8.91604 -12.2313 23
331 1 1.70871 22.425 -0.229934 7
332 1 -2.70826 6.69592 -12.2035 24
333 1 -4.78241 15.4183 7.99034 10
334 1 -13.9145 4.46942 -7.50573 23
335 1 3.34727 19.3393 -11.2014 13
336 1 -12.4945 -3.12833 -14.6279 11
337 1 -2.33392 -10.4074 -6.64968 14
338 1 -8.55933 1.00769 -15.2754 20
339 1 -11.6979 15.3001 2.5822 13
340 1 4.41893 8.83422 9.22598 17
341 1 8.02541 13.3707 -2.11624 22
342 1 -0.233483 14.7145 -1.48359 21
343 1 -9.03054 10.8081 -13.4692 19
344 1 3.02445 7.11266 -12.6115 19
345 1 4.53505 -3.68156 -3.06704 21
346 1 -16.5543 -0.681367 -5.01945 15
347 1 -4.7477 8.71338 -15.8291 19
348 1 5.25197 14.3002 -1.72664 20
349 1 7.67736 0.91556 -6.81175 20
350 1 14.3288 9.0108 -4.0726 11
351 1 -8.36359 1.1624 -12.2634 19
352 1 2.66925 -1.6858 -4.51638 18
353 1 -0.312758 -5.55115 -0.80141 23
354 1 -1.64602 -4.4873 4.03025 18
355 1 -13.9186 7.65037 -15.8871 8
356 1 -2.35144 -7.3973 -11.6225 17
357 1 -2.49201 8.24924 -19.8863 10
358 1 0.28214 3.02753 11.042 12
359 1 -15.1184 0.876757 -3.18292 18
360 1 10.2262 1.48745 -7.87252 16
361 1 13.8927 3.80206 -1.71428 11
362 1 -5.10369 11.5108 -10.7896 20
363 1 -3.5803 -7.50488 -8.15294 21
364 1 4.84235 11.639 -14.1736 19
365 1 6.3175 3.83767 -18.9906 9
366 1 -4.39773 10.5448 11.8513 13
367 1 -0.211434 21.4091 -6.45277 16
368 1 -6.9099 6.77196 -16.4634 16
369 1 -11.3886 -0.350679 1.67247 18
370 1 -11.1912 17.3585 -3.54191 14
371 1 -8.91204 4.00085 -16.9414 16
372 1 -18.4485 8.16511 -9.57164 9
373 1 -13.7279 -3.04074 0.798222 18
374 1 -2.96039 13.0207 -12.3219 20
375 1 8.13815 13.0136 -5.17425 20
376 1 -12.8786 -7.13531 -6.72154 14
377 1 -5.42169 -2.78619 -5.98644 20
378 1 -5.24623 14.5632 5.08076 17
379 1 -0.703801 3.30034 -12.2096 23
380 1 11.068 1.92939 -2.20921 19
381 1 1.36491 16.7936 -13.2404 17
382 1 3.53962 -6.63317 -8.70206 19
383 1 -14.1783 12.4235 1.35876 18
384 1 2.27479 11.8645 5.01251 17
385 1 0.912063 7.54711 -19.3217 14
386 1 -5.9579 -2.76965 -9.01828 23
387 1 -2.26164 3.73133 5.71091 20
388 1 9.12566 9.77211 -6.80405 20
389 1 2.37403 12.5999 -12.0238 19
390 1 -12.4792 13.2169 -10.4032 22
391 1 -4.84068 16.7013 -12.0614 18
392 1 6.56815 2.56066 8.02726 17
393 1 10.1376 2.82407 -10.618 15
394 1 -16.0465 -2.87609 -3.52822 12
395 1 -2.74324 6.64155 4.78033 20
396 1 -4.25137 17.9771 -15.0607 11
397 1 0.352041 -8.33047 -2.69541 17
398 1 3.12941 1.38617 -16.0683 23
399 1 -11.5421 13.2059 -4.73284 20
400 1 -9.9451 -1.95135 -15.6503 14
401 1 4.19185 -7.45198 -0.782231 14
402 1 -19.1793 1.28455 -6.50695 11
403 1 -14.623 6.73703 -1.86596 15
404 1 -13.5452 -5.29194 3.02653 10
405 1 2.69583 12.6592 -5.25922 20
406 1 0.016076 -5.76652 -14.1781 15
407 1 3.44863 -4.41511 4.79321 15
408 1 8.72074 7.82808 -12.3827 16
409 1 -15.1645 14.8206 -0.191774 13
410 1 7.8733 1.51088 -9.76963 19
411 1 4.17003 13.2261 6.78371 13
412 1 -6.08234 2.69722 -15.8603 19
413 1 3.45422 19.7756 -1.70336 13
414 1 5.0162 7.80493 -15.0828 18
415 1 -4.40062 1.06568 -18.2793 17
416 1 -8.76062 -4.51273 -8.67025 21
417 1 -11.7835 3.4293 -15.4766 13
418 1 10.6335 8.28347 -3.13732 23
419 1 12.3875 9.93223 -6.13397 15
420 1 5.20044 -0.0287138 -10.8896 19
421 1 7.50238 -3.75587 -11.438 13
422 1 1.71701 21.4524 -3.3304 12
423 1 -7.95068 9.5862 -0.521922 22
424 1 8.25877 12.6226 -8.28477 16
425 1 12.6477 1.25849 0.641143 11
426 1 10.8938 12.1662 -8.29056 14
427 1 5.57022 5.80589 9.96312 12
428 1 -0.13206 -0.0921519 5.97059 20
429 1 -0.609417 6.14372 9.07829 19
430 1 10.4707 5.84358 -9.75148 15
431 1 6.48769 7.55932 6.25145 18
432 1 -9.03287 3.97981 -10.6325 21
433 1 13.3608 12.5099 -0.0939562 10
434 1 8.13284 0.612381 -3.2299 22
435 1 11.7849 8.87081 4.93162 9
436 1 3.4393 15.2014 4.2958 14
437 1 3.10979 3.63798 2.44378 22
438 1 -13.2182 18.8327 -10.3278 11
439 1 7.91315 16.4275 -12.424 6
440 1 6.35703 1.38557 -17.782 10
441 1 -2.26291 22.4604 -8.64635 8
442 1 -3.69192 -10.8012 -9.88551 10
443 1 -17.4161 12.86 0.34565 7
444 1 -3.16743 10.5545 -17.5563 13
445 1 -4.23576 -7.96363 1.51306 16
446 1 -11.059 8.91263 -12.1314 23
447 1 -13.7226 7.62036 -7.18596 21
448 1 11.8493 -1.17938 0.539919 12
449 1 9.35791 14.7903 2.97059 10
450 1 -1.91948 -2.16269 2.07023 21
451 1 -14.7665 4.12922 -10.2897 18
452 1 -9.74568 5.71883 7.0001 20
453 1 3.8598 14.4582 -14.7085 15
454 1 8.8155 10.4153 -10.5827 13
455 1 1.54637 -7.0643 -11.4544 16
456 1 10.2977 0.679909 3.21618 14
457 1 6.72192 19.1577 -2.37783 9
458 1 10.1871 0.602003 -5.30442 20
459 1 -4.81052 9.2227 8.33704 22
460 1 -12.6034 -2.77174 -3.17455 18
461 1 -9.17289 -2.00538 -10.1986 21
462 1 4.69755 -0.149725 9.68946 10
463 1 -5.33849 -2.84804 3.54812 19
464 1 9.84634 7.6151 7.56137 8
465 1 -10.1764 12.1989 -7.40732 20
466 1 6.31939 8.78734 1.41269 22
467 1 8.9867 9.21316 2.67329 22
468 1 1.57972 4.38653 -21.292 10
469 1 -12.4097 6.13913 2.535 19
470 1 2.38782 6.78368 -15.9118 20
471 1 -3.372 -1.61354 -10.608 23
472 1 10.3389 -3.46265 -11.1477 10
473 1 6.57977 9.96688 4.52714 21
474 1 5.18924 5.86467 2.66137 20
475 1 7.49458 9.13686 9.47075 12
476 1 -2.50841 3.68508 9.05674 16
477 1 -2.91205 8.29276 13.4583 8
478 1 -1.26403 0.10051 -17.0613 19
479 1 -3.05696 12.118 7.80202 17
480 1 2.27687 5.71405 11.0694 10
481 1 10.1828 15.1466 -4.88767 16
482 1 6.01662 -8.21684 -9.13562 11
483 1 -5.25594 8.52423 -12.2691 21
484 1 -2.92536 23.535 -5.42408 9
485 1 4.29998 16.9956 -0.751541 17
486 1 -2.81261 19.6016 -8.20548 17
487 1 9.29107 16.4058 -2.12456 10
488 1 -10.8978 -3.70331 -6.65117 21
489 1 -2.16403 1.2083 -20.1362 8
490 1 -14.7588 14.8992 -4.76283 13
491 1 5.9428 0.0930551 -14.2043 17
492 1 3.06947 9.51488 -0.783892 21
493 1 8.3424 18.0669 -8.76675 6
494 1 5.19637 14.4793 -7.90146 18
495 1 -13.1711 9.11555 -3.79729 24
496 1 5.59029 12.0153 -9.99905 17
497 1 -4.32414 -6.23891 4.30315 14
498 1 -5.58485 11.1569 -13.9604 17
499 1 0.874826 17.5747 -0.463076 20
500 1 0.215696 8.36717 4.22183 20
501 1 5.18845 17.5921 -6.33469 15
502 1 5.07581 14.419 1.62555 18
503 1 12.4552 2.08404 -5.03719 12
504 1 -16.2178 1.62517 4.07344 10
505 1 1.56707 -7.61076 -7.02099 20
506 1 -3.29823 3.76518 -14.4111 20
507 1 -2.76635 9.47423 2.77518 20
508 1 5.13484 0.252789 -7.75841 23
509 1 -2.35889 18.0706 -1.76234 22
510 1 -16.1158 2.26798 0.560246 17
511 1 2.13678 -4.28926 -9.28547 24
512 1 5.35209 14.3253 -11.8893 16
513 1 3.82116 -1.63508 -1.27738 22
514 1 -2.5146 12.7539 -1.99409 19
515 1 4.62373 -1.18086 -16.4201 12
516 1 0.0632805 -4.67013 1.90227 20
517 1 -0.449095 17.12 -3.92908 19
518 1 -5.69562 7.72622 11.6313 10
519 1 -10.9883 0.248031 -14.0014 17
520 1 3.01563 1.43419 -13.038 18
521 1 -6.16337 19.1662 2.33094 10
522 1 5.10297 -5.67988 -11.2337 18
523 1 1.13336 -2.25345 3.98115 24
524 1 -7.371 -7.41393 -8.93318 20
525 1 -15.0904 8.06611 5.71513 9
526 1 -9.50499 -8.18081 -11.2925 13
527 1 -7.24753 9.31905 9.75884 14
528 1 12.1473 13.2477 -5.83481 14
529 1 -7.54554 9.2779 3.15541 19
530 1 -13.8216 16.9127 -1.88379 11
531 1 8.64281 4.23276 -1.17744 19
532 1 0.405916 14.6412 -8.83479 22
533 1 8.22408 10.8639 -14.0115 12
534 1 5.17157 9.02001 -9.05772 18
535 1 -14.6399 8.70785 -13.2559 17
536 1 -12.5408 2.9384 -12.0523 15
537 1 2.36784 8.86416 -17.5816 17
538 1 -5.25291 2.81133 4.61383 20
539 1 -9.31816 1.02821 3.83846 20
540 1 -3.42051 3.66905 -17.7836 17
541 1 -10.2601 8.94037 -5.34407 19
542 1 -0.564903 14.3416 1.61111 19
543 1 -7.75982 -1.88838 -1.01366 18
544 1 7.14745 13.8449 -14.3634 13
545 1 2.63461 -6.43634 -3.26428 19
546 1 5.37004 9.62858 -18.9083 9
547 1 -2.19834 5.21133 -21.198 9
548 1 -3.37838 6.15116 7.82051 18
549 1 -0.20263 10.6493 -18.3525 14
550 1 -8.62033 1.12653 -5.85266 21
551 1 8.18001 3.56043 -4.70543 22
552 1 -9.81922 -3.62753 -2.78496 19
553 1 10.9165 15.4081 -8.34523 9
554 1 10.5021 -3.76114 -4.22038 12
555 1 -6.02115 16.5956 3.23519 15
556 1 4.82136 -6.17287 -5.89137 24
557 1 12.5977 -0.576706 -2.92783 9
558 1 6.37228 -3.56564 6.00287 9
559 1 0.825979 14.2031 5.15853 13
560 1 -9.05406 11.8665 7.56919 15
561 1 -6.54311 -5.07933 5.19008 13
562 1 5.90856 3.49385 -2.41043 19
563 1 4.76784 12.2818 3.45834 19
564 1 -16.6749 0.00617242 -8.5262 15
565 1 7.81335 -1.89444 -5.8647 23
566 1 0.133939 11.5054 -0.382712 21
567 1 2.75969 6.57662 7.77258 18
568 1 -5.38803 17.8471 -0.330472 17
569 1 0.3908 -1.83614 0.244492 24
570 1 -11.3357 3.27608 -5.98689 20
571 1 0.475721 8.43101 7.53162 18
572 1 -0.179436 17.7084 -7.12267 17
573 1 -13.396 -2.06061 -5.87313 22
574 1 9.66569 0.972494 0.39919 24
575 1 9.36192 -1.67482 1.96381 15
576 1 2.15202 12.0861 1.59422 19
577 1 -2.20429 12.5791 -8.57245 22
578 1 1.65088 -3.76428 -16.5401 11
579 1 -5.58145 8.18201 -18.6628 14
580 1 -9.28099 3.5394 8.87184 8
581 1 -5.32109 20.3689 -8.805 13
582 1 11.282 5.10845 -3.46493 22
583 1 0.0601247 14.4591 -12.0973 21
584 1 -2.80043 13.1553 10.3896 10
585 1 5.35129 11.4565 0.00999251 22
586 1 4.77912 2.96411 -12.1218 19
587 1 -8.18191 -9.53879 -1.78616 11
588 1 -11.6357 3.41078 -8.94398 21
589 1 10.241 7.23532 -0.190346 22
590 1 3.23314 2.03197 -19.4152 12
591 1 -0.54907 -5.51243 -10.7718 21
592 1 11.3828 4.23453 0.0401026 19
593 1 0.552627 -3.26866 7.10134 12
594 1 -6.79195 -3.06482 -15.571 18
595 1 1.77202 19.3026 -5.19978 14
596 1 -4.93474 -2.85619 0.413648 23
597 1 -11.9327 12.4432 3.23285 18
598 1 6.05865 11.8088 -6.57971 19
599 1 1.61406 -0.701893 -17.7125 14
600 1 -3.40045 20.4521 0.444122 14
601 1 -0.50305 5.80136 -16.9512 18
602 1 5.30767 3.1285 -5.93694 23
603 1 -14.3419 6.28974 -4.98232 17
604 1 7.42781 15.9712 0.320012 12
605 1 -14.6379 -4.74029 -2.01638 15
606 1 3.80893 9.19177 6.05135 18
607 1 -15.4038 6.69891 -9.19653 17
608 1 -11.4551 13.7574 5.84729 10
609 1 -5.30466 5.87852 -14.0239 16
610 1 10.6206 -0.485507 -10.3661 13
611 1 -12.1544 -2.86976 -10.914 17
612 1 9.75683 -4.07301 -7.99569 15
613 1 -15.7987 9.05904 -5.29827 13
614 1 -14.0151 1.14417 -6.64939 19
615 1 -14.5068 -1.72492 4.36867 12
616 1 7.34978 0.490349 2.28546 23
617 1 5.90394 3.7301 0.869471 20
618 1 -15.4749 10.1233 -1.44207 11
619 1 2.52564 10.5984 8.32473 18
620 1 0.727317 15.0921 -15.2773 15
621 1 -8.92619 17.3925 1.66515 12
622 1 7.0568 16.1754 -3.89085 19
623 1 7.37626 13.0299 5.22327 16
624 1 4.4944 -1.62234 4.21662 18
625 1 -1.88899 16.0936 -13.7144 22
626 1 -8.27864 2.7877 6.03384 21
627 1 -5.75234 -0.303704 -13.9917 20
628 1 -11.5506 5.728 -0.535662 24
629 1 -8.26485 -2.12697 2.15383 21
630 1 3.34514 3.48224 6.33011 21
631 1 -5.77022 -5.46749 -7.23504 20
632 1 -17.9263 7.37164 -11.8233 10
633 1 10.1885 5.0937 -13.3638 11
634 1 -11.3239 14.606 -2.40729 19
635 1 -9.08009 6.47061 4.10993 20
636 1 -4.86414 -9.45066 -12.3074 10
637 1 -1.471 -7.56938 -5.67614 23
638 1 5.73568 -9.7648 -6.57618 12
639 1 0.120834 11.5841 -13.856 20
640 1 11.5967 7.29187 -6.93261 13
641 1 2.68222 12.446 -1.70941 21
642 1 7.95927 6.33331 -2.58511 20
643 1 -5.06317 6.55592 -21.7624 8
644 1 -5.67964 -2.00267 7.02873 13
645 1 2.67414 12.6344 -8.76223 20
646 1 5.91416 8.71536 -12.3742 21
647 1 -16.643 5.45837 -6.58684 16
648 1 3.11293 9.73063 -7.08565 21
649 1 -11.7102 -1.0935 6.60149 11
650 1 3.41603 9.36549 2.9879 20
651 1 -2.5206 -7.10087 -2.69022 20
652 1 2.50634 15.661 -6.52504 22
653 1 -5.01128 20.3995 -5.49367 14
654 1 -10.3636 8.95055 8.52093 11
655 1 5.76606 5.99497 -7.3121 21
656 1 -9.42931 -4.70275 3.56052 13
657 1 1.2586 -7.88138 0.768901 13
658 1 9.39529 10.6638 6.95122 13
659 1 7.71049 4.9532 -11.4688 22
660 1 -13.8133 11.26 -15.4969 12
661 1 -10.6626 11.3217 -10.3816 21
662 1 -17.1657 10.0247 -11.7354 12
663 1 3.97712 18.0626 -3.84275 16
664 1 -0.978945 10.0561 8.94817 18
665 1 -11.2307 -6.10793 -9.84948 15
666 1 -5.73046 14.7603 -5.64579 19
667 1 11.4361 6.76276 2.01595 14
668 1 -5.73975 -2.90237 -2.82509 19
669 1 6.78093 6.23159 -13.8609 17
670 1 6.71952 -2.0141 -2.80509 18
671 1 0.294664 0.283827 -13.9728 20
672 1 -7.8774 9.59147 -16.5069 12
673 1 -17.8525 4.07736 1.7687 10
674 1 -7.5449 9.93902 -7.16511 23
675 1 -5.95437 12.6136 9.39653 14
676 1 7.14576 -0.516873 7.52167 12
677 1 -11.4429 -0.47211 -1.58046 18
678 1 13.0893 6.45877 -4.62637 15
679 1 -3.00508 6.8585 -15.8438 17
680 1 11.7358 14.5469 -2.11972 15
681 2 -14.7183 4.23794 -5.06761 19
682 2 -8.26782 14.3564 -8.94891 17
683 2 1.99863 3.29832 -19.7543 13
684 2 0.442559 10.6243 7.82501 17
685 2 -15.6244 4.83137 -8.5978 20
686 2 0.75588 6.16888 7.31113 20
687 2 -17.0317 2.52764 2.43406 13
688 2 -14.419 14.0253 -6.53229 18
689 2 0.708257 18.9339 3.2873 13
690 2 -14.0134 10.897 2.58904 14
691 2 7.92467 9.28725 -1.89802 20
692 2 -14.4636 -0.394945 -10.9295 14
693 2 -10.5158 6.67233 0.932415 19
694 2 -2.96267 -2.69282 0.354347 21
695 2 -0.659126 8.73237 5.96844 19
696 2 1.90688 1.04844 -17.8471 17
697 2 7.76379 -7.69547 -2.59105 14
698 2 6.16782 6.84405 1.33055 20
699 2 -10.9716 10.2564 -6.77138 20
700 2 -14.2791 8.19898 -8.82099 19
701 2 8.50697 5.17102 2.63852 19
702 2 5.48117 -2.09645 -11.0916 19
703 2 -13.8172 -6.91657 -5.00932 15
704 2 -11.7472 3.75124 2.13956 21
705 2 -4.88544 -4.73514 0.759587 22
706 2 8.65997 -5.46583 -0.284116 14
707 2 0.777582 -7.1584 -4.02329 21
708 2 3.65927 5.53841 9.51293 15
709 2 -2.73789 17.815 -13.9851 14
710 2 -12.2951 -6.10382 -8.37776 17
711 2 6.09916 10.5497 9.66902 11
712 2 -12.0092 17.7594 -1.86308 11
713 2 -4.05157 7.2771 12.3122 9
714 2 -11.4143 12.2102 -8.96061 20
715 2 6.01658 -6.43577 -0.839555 14
716 2 -5.14874 12.313 5.08791 18
717 2 -3.70641 17.8616 -10.8865 16
718 2 3.09324 0.307814 -11.0932 21
719 2 -6.28342 7.01461 -12.8168 22
720 2 -2.63828 3.05408 -12.3886 22
721 2 8.49276 6.02377 -12.9176 17
722 2 -6.28966 15.1051 7.13689 11
723 2 1.99887 6.07353 -20.1431 13
724 2 -4.28799 16.6388 -16.4319 9
725 2 8.16459 15.4317 -5.35644 19
726 2 -9.90723 -1.55611 6.45461 13
727 2 -12.6495 12.1216 -5.82069 21
728 2 6.89394 7.83666 -14.8031 15
729 2 -3.1572 -5.67508 -14.0717 17
730 2 -16.0344 -1.70211 -8.81389 14
731 2 5.08818 18.7882 -1.75345 12
732 2 -5.79351 12.5254 -1.93416 22
733 2 -7.87022 -9.11804 -12.0464 12
734 2 -6.15451 18.1154 -2.07121 13
735 2 -0.704215 -7.96463 1.4078 14
736 2 4.91717 4.10014 -0.652371 23
737 2 -10.6591 6.5062 -1.80656 19
738 2 6.74668 -3.48562 -5.94385 20
739 2 8.46443 -5.43318 -7.33559 15
740 2 2.22858 11.3363 -0.201315 19
741 2 3.44839 -5.06239 -1.95844 22
742 2 6.27365 0.278298 3.91818 20
743 2 -7.40296 4.54006 9.4121 12
744 2 11.6188 0.705945 -3.98375 14
745 2 -3.5042 17.246 -0.17053 20
746 2 7.78083 8.32889 4.06161 18
747 2 -9.53976 13.5536 6.65093 12
748 2 -0.0751919 15.8947 0.503435 19
749 2 12.6587 -0.218066 -0.950545 12
750 2 1.78812 11.226 -6.93909 20
751 2 -10.7276 1.63201 -15.5063 15
752 2 -8.22546 6.45983 6.23771 21
753 2 3.51282 5.22164 -16.6923 19
754 2 -7.51237 5.34235 -17.6437 15
755 2 -13.5591 15.1015 -0.823048 16
756 2 -12.2581 -1.47299 -4.39494 18
757 2 13.7419 5.61622 -1.76994 11
758 2 1.14339 -0.627277 1.48191 20
759 2 -3.66636 2.93429 7.76914 16
760 2 9.16692 3.49223 -14.4207 12
761 2 2.6963 8.06952 10.706 15
762 2 0.290801 10.1022 11.3253 12
763 2 -11.8821 12.0193 5.18442 13
764 2 2.97009 -2.29281 -9.39124 22
765 2 10.8709 -2.20058 -9.54068 11
766 2 -12.9398 14.0413 1.97205 15
767 2 -9.42807 -5.31734 -3.50174 19
768 2 8.43778 -0.202443 -10.1687 23
769 2 3.12878 8.23608 4.69668 19
770 2 4.44016 -4.55774 -12.7852 15
771 2 2.94759 -2.63581 3.57081 20
772 2 -6.24972 -2.19172 2.02082 20
773 2 14.1385 9.07745 -2.02862 15
774 2 -13.9999 -5.24378 0.98585 15
775 2 6.8568 16.9569 -7.8233 14
776 2 -5.45571 -1.57435 -4.53145 22
777 2 10.8218 1.3609 -9.84583 12
778 2 2.02865 -5.63187 -7.70923 19
779 2 10.6484 10.4031 -3.24439 21
780 2 -5.05898 14.9768 3.13385 20
781 2 9.38407 10.7701 -8.61367 13
782 2 -8.18157 -3.04088 -11.8831 19
783 2 -16.2155 0.455651 -0.206567 15
784 2 -7.67732 -3.12025 -5.79828 22
785 2 -8.51222 0.0363668 -7.54576 19
786 2 -8.49575 11.6715 -6.91142 22
787 2 -7.87469 14.1638 1.62963 21
788 2 2.22502 8.76525 -12.4011 22
789 2 3.59989 16.7237 -2.42956 19
790 2 1.17666 10.5055 -17.0216 17
791 2 -1.52442 7.47357 12.2946 11
792 2 -4.39748 4.79915 -21.9116 8
793 2 -13.9053 8.42043 -5.27437 19
794 2 -5.51484 6.6568 4.46332 22
795 2 -10.8305 15.2406 -0.7435 21
796 2 -7.62033 8.71768 -8.6671 19
797 2 0.947037 21.0513 -5.09187 12
798 2 5.33921 7.05256 -9.16163 22
799 2 11.2604 -2.02057 -3.3285 11
800 2 -12.3614 3.66052 5.22703 17
801 2 5.93467 6.48569 -2.30362 20
802 2 -2.97873 20.6 -4.66857 17
803 2 -8.96538 12.8757 -13.778 18
804 2 -5.31166 12.3255 1.62668 22
805 2 6.05378 -2.67699 3.77815 17
806 2 -12.2161 1.14358 -12.5552 17
807 2 -0.647459 8.80914 -19.2869 14
808 2 7.84102 17.6696 -2.74295 10
809 2 -15.3801 -0.171171 3.46748 12
810 2 -5.49852 15.6025 -3.85557 20
811 2 -11.4725 17.9447 -12.6501 11
812 2 -0.484076 15.6258 -10.554 23
813 2 10.6679 10.3713 2.72718 17
814 2 -4.28683 13.6819 8.708 14
815 2 10.5296 -3.3813 -6.38547 12
816 2 -10.7247 4.08972 7.75245 13
817 2 1.21436 1.22834 10.6581 13
818 2 -19.3609 8.47451 -8.05295 6
819 2 -8.93646 -3.38509 -14.7831 16
820 2 1.20709 -9.45172 -7.86253 13
821 2 0.511192 4.02975 -17.3929 21
822 2 14.5269 11.6118 -1.49146 10
823 2 -5.88718 9.81851 11.1186 12
824 2 2.13463 11.3939 -14.0813 18
825 2 -12.8434 -1.15277 4.99315 12
826 2 -3.5814 2.33224 -19.5699 13
827 2 3.96532 -4.89026 -4.79431 21
828 2 -2.47382 -0.0343799 -11.1219 24
829 2 5.50104 -9.59642 -4.69048 12
830 2 6.79158 13.6579 -7.4148 16
831 2 -6.47144 8.64364 -17.2458 15
832 2 0.285043 21.3552 0.583289 12
833 2 -12.7814 -0.434875 -7.21282 19
834 2 -14.3138 9.46755 -15.4573 12
835 2 2.73156 11.5973 -10.4578 19
836 2 -5.19467 18.6835 -5.38573 17
837 2 -9.37601 -8.59996 -0.429455 15
838 2 9.50508 7.38489 1.83386 18
839 2 -2.05683 11.4682 9.73227 14
840 2 -11.2837 -7.66339 -5.83234 14
841 2 0.142749 -4.39726 -9.34207 23
842 2 -0.821245 8.08535 9.44394 18
843 2 -0.490057 18.7196 0.610851 17
844 2 8.56734 2.51295 -7.92137 22
845 2 5.05744 15.199 3.51651 14
846 2 7.80021 17.4209 -10.6453 8
847 2 -13.968 6.65701 5.77436 12
848 2 5.87421 0.869214 -5.98434 22
849 2 -2.38703 20.8382 -1.27049 13
850 2 5.02652 9.71525 -0.481939 20
851 2 -4.53317 9.65362 -14.0667 19
852 2 1.51455 -4.51041 5.79422 13
853 2 -7.77867 14.593 -5.16257 19
854 2 2.90787 -6.04411 3.71791 11
855 2 3.31778 -2.82461 0.263115 17
856 2 -9.35303 -7.92125 -9.28345 16
857 2 -9.69658 15.1915 -11.5812 18
858 2 -11.3 -4.54529 -14.121 12
859 2 -8.58277 -8.60488 -6.88902 15
860 2 -11.4509 6.95462 -11.787 18
861 2 -0.645627 -1.5685 -13.9721 21
862 2 3.03601 11.2751 3.31617 18
863 2 -10.3406 -2.05257 -7.7379 20
864 2 -16.5511 11.6391 -1.05518 12
865 2 7.58476 0.769511 6.12848 16
866 2 -11.4658 9.14732 -0.306707 19
867 2 -6.94952 -6.49373 -4.867 19
868 2 -2.86526 10.1085 13.0843 10