ITEM: TIMESTEP
55000
ITEM: NUMBER OF ATOMS
500
ITEM: BOX BOUNDS pp pp pp
-30.0 30.0
-30.0 30.0
-30.0 30.0
ITEM: ATOMS id type x y z Coordination
1 1 -10.473 -16.7229 20.4517 19
2 1 -22.668 -7.88921 25.641 12
3 1 -7.17916 -12.774 17.6029 16
4 1 -26.4592 -11.9172 17.6082 14
5 1 -18.5766 -9.81125 7.71 19
6 1 -13.2504 -12.3568 23.1729 21
7 1 -23.7147 -10.3795 15.2907 25
8 1 -15.4216 -11.1667 5.33132 9
9 1 -10.9083 -17.9751 12.9265 18
10 1 -9.42079 -10.4366 21.53 17
11 1 -19.7499 -3.18959 11.1022 6
12 1 -12.9849 -10.4993 25.9548 10
13 1 -23.5183 -12.3357 18.2278 23
14 1 -24.797 -13.4375 15.2986 18
15 1 -8.1437 -13.039 9.63259 11
16 1 -13.4756 -14.21 26.1055 10
17 1 -22.0915 -18.3923 20.3029 20
18 1 -17.8762 -16.4929 8.04103 13
19 1 -11.5832 -13.0519 10.1174 19
20 1 -10.4215 -18.4529 17.9814 19
21 1 -22.9047 -4.52307 20.0301 14
22 1 -15.6492 -3.51378 17.7612 14
23 1 -16.9687 -15.7024 10.4197 20
24 1 -24.6328 -9.04176 23.3489 13
25 1 -9.17333 -15.3082 18.3647 21
26 1 -19.9198 -4.62868 20.4643 19
27 1 -13.6539 -6.54751 13.3067 19
28 1 -9.71002 -4.53671 16.3533 13
29 1 -16.2436 -5.16975 7.31136 18
30 1 -21.7032 -7.36222 9.92033 15
31 1 -20.5172 -4.71425 14.5525 15
32 1 -14.4072 -3.67536 12.5354 13
33 1 -24.9555 -9.00728 17.68 18
34 1 -16.8716 -6.51355 23.2832 16
35 1 -19.8229 -10.5591 10.1179 23
36 1 -18.7331 -21.1285 23.2184 10
37 1 -8.71628 -14.9581 12.6695 15
38 1 -21.2644 -9.31155 23.3088 21
39 1 -23.836 -12.1038 12.7425 22
40 1 -13.8709 -23.9996 18.3701 11
41 1 -11.6568 -7.12549 9.75125 17
42 1 -22.778 -15.1492 7.84826 17
43 1 -14.1724 -7.32837 5.1907 9
44 1 -18.5807 -20.7109 18.1385 22
45 1 -16.7166 -4.45821 10.6397 17
46 1 -26.4364 -10.1495 20.4397 12
47 1 -13.6145 -6.19958 23.7956 13
48 1 -12.0302 -15.6034 22.8805 17
49 1 -16.8435 -22.0348 15.1099 19
50 1 -9.58639 -10.032 9.90581 17
51 1 -22.0795 -19.236 14.8679 17
52 1 -18.9751 -19.1318 20.6686 21
53 1 -14.0805 -18.4008 23.0768 15
54 1 -12.2662 -21.1883 23.5881 11
55 1 -11.8292 -3.57531 18.0572 13
56 1 -21.7505 -20.5813 17.7299 14
57 1 -17.0336 -21.7865 20.7133 19
58 1 -20.481 -17.6272 13.1703 23
59 1 -18.3361 -15.1484 23.5103 21
60 1 -25.8715 -13.4316 20.574 11
61 1 -13.6308 -21.9673 15.5045 15
62 1 -24.6694 -15.1126 18.3673 17
63 1 -21.374 -3.72552 17.7371 11
64 1 -20.2534 -6.45205 23.8576 19
65 1 -23.37 -4.34631 25.8076 7
66 1 -24.3882 -18.5176 8.23564 9
67 1 -23.9114 -10.1421 10.0163 15
68 1 -20.0497 -15.607 10.076 24
69 1 -8.42304 -13.0526 20.4995 18
70 1 -20.3602 -17.7332 23.5306 17
71 1 -21.129 -17.223 7.76119 13
72 1 -25.8225 -15.4951 9.4172 12
73 1 -19.5505 -24.8497 15.4428 6
74 1 -23.1258 -6.18267 23.1273 17
75 1 -22.39 -7.7458 15.3484 18
76 1 -17.5465 -21.5209 9.49485 11
77 1 -15.077 -3.83457 22.9952 11
78 1 -23.3744 -17.03 10.3473 18
79 1 -25.5179 -7.91343 14.5176 11
80 1 -20.1277 -21.9795 10.4133 11
81 1 -11.3078 -23.1392 20.5366 10
82 1 -25.1886 -9.38132 12.5815 16
83 1 -21.4356 -14.9488 23.5471 18
84 1 -23.5021 -10.11 20.859 22
85 1 -13.0025 -20.0653 10.3695 11
86 1 -16.6409 -12.1895 23.3301 22
87 1 -15.7293 -21.3205 23.8392 12
88 1 -13.9285 -18.3687 12.6013 22
89 1 -7.88838 -7.30819 15.6575 15
90 1 -13.2253 -12.3019 7.62823 13
91 1 -9.0561 -20.3613 20.2192 13
92 1 -22.1062 -21.0634 12.1949 12
93 1 -23.1812 -15.7528 21.4022 19
94 1 -7.2651 -12.1711 23.3278 11
95 1 -8.47651 -5.30628 13.3275 13
96 1 -15.1651 -7.4927 9.97701 22
97 1 -16.9607 -7.84928 5.2652 11
98 1 -13.3276 -4.38648 20.5018 18
99 1 -11.98 -9.03874 7.3309 12
100 1 -15.2519 -21.4267 18.1991 20
101 1 -8.82903 -12.6867 15.3545 19
102 1 -17.6422 -23.7065 17.9042 9
103 1 -24.8182 -12.5557 8.30604 11
104 1 -8.98682 -8.6381 12.8544 21
105 1 -20.0118 -6.35183 12.4683 16
106 1 -12.0563 -21.291 12.8199 10
107 1 -23.3678 -18.9007 22.6121 10
108 1 -18.6503 -20.3567 12.9261 25
109 1 -15.503 -21.1787 12.154 19
110 1 -13.1423 -4.41533 15.7588 18
111 1 -11.5127 -21.4025 18.0085 17
112 1 -22.6538 -21.5582 8.41816 5
113 1 -16.9005 -14.1065 26.0478 12
114 1 -20.0804 -10.3862 25.9356 12
115 1 -15.5844 -18.8205 9.5825 14
116 1 -26.5758 -12.633 11.1263 11
117 1 -13.7443 -5.03814 10.1419 18
118 1 -10.3975 -12.0067 12.6806 21
119 1 -15.0363 -9.76121 7.4822 21
120 1 -21.5966 -7.17311 20.9029 22
121 1 -15.1553 -15.2509 23.7433 20
122 1 -22.2648 -9.13494 7.41273 10
123 1 -7.54 -17.5081 19.3308 11
124 1 -10.1627 -12.9734 22.8656 14
125 1 -14.0677 -22.4013 21.4744 14
126 1 -5.99678 -9.72371 16.2187 14
127 1 -6.24207 -10.831 20.5603 9
128 1 -19.6455 -18.6806 10.3677 19
129 1 -12.1514 -8.65577 22.8936 21
130 1 -18.3122 -7.54601 10.1117 19
131 1 -18.2908 -9.25133 23.6668 20
132 1 -20.0949 -22.0938 14.9276 15
133 1 -11.8228 -6.98117 20.3702 21
134 1 -21.5428 -3.42648 23.0594 12
135 1 -20.0733 -6.83265 17.8818 22
136 1 -11.0986 -5.55543 12.2414 18
137 1 -16.7366 -10.4192 25.9493 10
138 1 -21.4594 -11.8829 7.54223 14
139 1 -15.2324 -9.27527 23.6631 18
140 1 -7.19253 -12.2537 12.3641 14
141 1 -9.96495 -4.60711 19.8829 12
142 1 -12.2365 -19.7149 20.4925 22
143 1 -16.8416 -4.28019 20.6322 17
144 1 -13.4395 -16.267 10.2069 17
145 1 -10.5377 -18.3205 22.9421 13
146 1 -19.9062 -12.4064 23.3185 22
147 1 -4.85769 -13.0864 15.0643 9
148 1 -18.1465 -3.34468 8.07712 9
149 1 -6.01728 -7.72278 12.9267 12
150 1 -20.5503 -14.0338 26.0965 12
151 1 -23.0222 -16.8105 24.9954 9
152 1 -23.751 -6.31793 17.4103 15
153 1 -9.88003 -7.18636 18.1793 18
154 1 -25.4309 -17.2629 20.1665 9
155 1 -4.85102 -10.7928 13.2472 10
156 1 -24.0157 -18.3398 17.1928 12
157 1 -8.37435 -9.95489 18.0707 19
158 1 -10.0378 -16.2603 15.415 18
159 1 -11.1909 -4.84973 22.6735 12
160 1 -25.4467 -15.634 12.2831 13
161 1 -17.1372 -4.62301 14.7742 14
162 1 -12.6976 -5.78545 7.48581 12
163 1 -21.8006 -13.2251 10.418 21
164 1 -16.8087 -12.3965 7.31699 14
165 1 -18.4791 -23.2555 12.3458 14
166 1 -15.3915 -19.2649 20.5706 19
167 1 -6.91779 -15.6257 15.8506 11
168 1 -26.9118 -11.4589 14.1649 12
169 1 -19.2324 -6.68834 7.47953 14
170 1 -23.919 -17.8452 13.3358 14
171 1 -8.40159 -16.0428 22.2117 11
172 1 -19.7792 -14.3511 6.50227 12
173 1 -25.0349 -6.98861 20.6891 13
174 1 -22.439 -11.8719 23.8741 15
175 1 -9.21842 -7.44858 21.7846 13
176 1 -8.34639 -7.0347 10.2684 12
177 1 -16.8118 -17.8248 23.3585 15
178 1 -13.2726 -10.3089 10.213 23
179 1 -11.207 -2.85742 14.3288 11
180 1 -9.81648 -10.0035 24.5722 10
181 1 -14.5787 -2.81102 8.54161 9
182 1 -6.4235 -9.82342 10.4426 11
183 1 -9.96739 -15.9654 10.0398 11
184 1 -18.5148 -3.47935 23.4522 11
185 1 -18.4102 -3.72819 17.5546 15
186 1 -21.0146 -21.3988 20.7483 13
187 1 -11.9086 -19.2334 15.5082 19
188 1 -23.4791 -15.9764 15.1571 19
189 1 -23.0421 -6.32225 13.0726 13
190 2 -25.4271 -13.1745 18.6629 14
191 2 -8.40242 -8.23959 17.244 16
192 2 -23.0728 -11.649 8.48229 15
193 2 -26.3135 -14.4913 10.9591 12
194 2 -22.3483 -20.0846 21.3061 12
195 2 -15.1769 -14.7885 25.668 12
196 2 -9.07062 -13.3612 17.9559 24
197 2 -23.8199 -7.66518 24.2146 14
198 2 -10.3445 -16.2179 12.1061 16
199 2 -20.4834 -9.9023 7.59377 13
200 2 -15.9249 -20.7107 10.1987 14
201 2 -18.297 -3.56906 21.3393 16
202 2 -8.61112 -15.8643 20.268 17
203 2 -10.1499 -5.36687 18.0196 18
204 2 -20.166 -4.41816 23.6072 13
205 2 -9.74808 -7.4569 20.0837 19
206 2 -13.7427 -6.61155 9.05376 20
207 2 -17.0032 -17.5424 9.70687 15
208 2 -24.9314 -14.4662 8.03689 12
209 2 -14.0129 -21.7534 23.4495 10
210 2 -25.2434 -15.3534 20.4506 12
211 2 -12.0427 -19.3764 12.2366 15
212 2 -15.7962 -24.2383 18.0439 11
213 2 -11.4277 -9.82946 25.3221 9
214 2 -13.5935 -16.5957 23.4065 16
215 2 -22.1728 -18.7455 18.1072 18
216 2 -19.3104 -20.944 21.3309 13
217 2 -24.642 -16.9736 18.4134 14
218 2 -17.2478 -22.1003 18.933 17
219 2 -21.3107 -20.9777 15.8266 17
220 2 -19.98 -4.04581 16.3378 13
221 2 -13.3723 -12.1689 9.734 18
222 2 -10.1765 -4.36233 13.6044 11
223 2 -12.6206 -7.20668 6.35499 11
224 2 -23.338 -10.1813 11.9249 19
225 2 -4.62523 -10.9656 15.1842 9
226 2 -17.1275 -4.66964 18.5474 19
227 2 -21.466 -3.66805 21.0428 14
228 2 -13.2328 -3.16251 14.1629 11
229 2 -16.0737 -3.17559 7.34297 9
230 2 -18.7149 -7.16737 23.0427 19
231 2 -18.7209 -14.7607 25.615 13
232 2 -15.0544 -15.2364 10.2482 17
233 2 -17.1215 -21.6834 12.9864 20
234 2 -18.8404 -20.1925 9.83225 15
235 2 -23.973 -17.8926 15.2724 12
236 2 -8.33129 -15.5068 14.7227 14
237 2 -8.04778 -10.278 20.1016 18
238 2 -16.8241 -10.5738 6.93074 17
239 2 -14.8969 -12.7404 6.6588 11
240 2 -18.4872 -14.9997 9.36091 22
241 2 -13.847 -18.1421 10.2216 16
242 2 -9.8239 -12.0206 9.92459 16
243 2 -20.3224 -17.7451 20.0187 25
244 2 -18.1845 -13.474 6.70119 14
245 2 -18.4523 -22.8569 10.547 11
246 2 -18.1434 -9.66182 9.76347 21
247 2 -19.9293 -6.70952 20.0686 23
248 2 -19.9355 -23.974 13.9232 11
249 2 -22.8895 -4.54836 23.9831 12
250 2 -23.8079 -17.6263 21.1586 13
251 2 -26.1941 -12.0593 15.7411 15
252 2 -12.1546 -19.161 23.5089 13
253 2 -9.31354 -8.81016 14.6993 23
254 2 -20.3643 -12.4709 9.75805 20
255 2 -13.5168 -6.1731 19.804 26
256 2 -9.92348 -5.68024 21.7203 13
257 2 -16.8852 -12.136 25.3795 18
258 2 -21.7787 -9.14027 20.4983 22
259 2 -22.1315 -15.1998 9.72761 19
260 2 -6.18954 -8.35885 14.7205 12
261 2 -24.9646 -14.9279 14.0797 17
262 2 -21.7504 -7.1698 11.7708 16
263 2 -13.0999 -10.424 7.53919 13
264 2 -21.9253 -7.52194 17.4338 21
265 2 -10.5626 -18.1011 14.8652 14
266 2 -15.4709 -20.7408 16.1761 20
267 2 -23.163 -4.62819 18.0212 10
268 2 -17.21 -18.2212 20.1387 22
269 2 -12.7405 -22.6923 17.2066 12
270 2 -10.0314 -8.83223 23.104 13
271 2 -16.2343 -4.73019 12.7016 16
272 2 -22.2583 -18.2255 24.071 12
273 2 -18.567 -18.8431 17.4839 23
274 2 -20.0037 -15.8761 22.7273 24
275 2 -15.6213 -6.81331 6.41642 17
276 2 -7.06905 -11.6214 10.4658 12
277 2 -11.9474 -13.7094 22.9417 18
278 2 -8.60442 -5.59403 15.2196 15
279 2 -14.9622 -3.59537 20.9776 13
280 2 -23.8534 -14.8977 16.648 18
281 2 -15.2015 -7.42604 22.8209 20
282 2 -10.2628 -16.4203 22.826 14
283 2 -15.3787 -9.08642 5.18098 10
284 2 -14.7455 -9.8593 25.5133 13
285 2 -10.3007 -21.7188 19.5892 12
286 2 -25.117 -17.1893 9.46388 11
287 2 -24.6109 -7.52072 12.9216 13
288 2 -23.1216 -17.2332 7.56679 12
289 2 -18.7516 -19.0323 22.8547 17
290 2 -11.6379 -3.7926 19.8907 13
291 2 -21.154 -17.8245 9.73606 18
292 2 -6.10605 -13.6785 16.2787 12
293 2 -24.8833 -7.28178 18.8687 16
294 2 -7.45721 -16.4898 17.5548 12
295 2 -23.301 -16.0193 23.3393 12
296 2 -22.2784 -19.2901 12.8672 15
297 2 -14.9587 -3.44766 10.5033 12
298 2 -23.1852 -6.1972 21.045 18
299 2 -15.2431 -19.1968 18.4276 18
300 2 -26.4332 -10.0882 18.4089 13
301 2 -21.472 -6.41014 14.3097 17
302 2 -18.4182 -10.0439 25.419 14
303 2 -25.2777 -11.4576 9.91606 12
304 2 -11.409 -3.41839 16.2325 11
305 2 -22.8778 -6.14626 26.4666 8
306 2 -13.3885 -10.1503 22.8953 21
307 2 -23.7995 -20.1679 8.37278 7
308 2 -16.7194 -6.44791 10.1383 19
309 2 -18.7891 -18.4848 12.3911 20
310 2 -10.1553 -12.4149 20.6947 20
311 2 -7.89604 -7.28823 12.0199 15
312 2 -11.9981 -21.926 21.7081 12
313 2 -10.2987 -10.0286 11.9821 23
314 2 -12.1183 -6.74497 22.654 15
315 2 -19.6211 -10.188 22.8148 22
316 2 -23.5136 -16.3621 12.311 17
317 2 -18.6672 -20.9043 15.1956 19
318 2 -16.8055 -3.53373 16.2761 11
319 2 -24.8524 -8.89214 21.1367 15
320 2 -23.5054 -11.9617 20.16 22
321 2 -18.3851 -23.4905 16.1129 12
322 2 -13.0323 -12.589 25.4564 12
323 2 -18.074 -5.35764 7.70793 12
324 2 -11.8776 -7.28384 12.7031 19
325 2 -13.4567 -21.6166 11.6699 11
326 2 -8.16939 -13.8796 22.4458 12
327 2 -8.97275 -11.3481 23.1758 13
328 2 -18.2997 -3.45649 9.99601 10
329 2 -22.81 -8.71922 9.07902 12
330 2 -19.7025 -16.0151 7.56686 15
331 2 -16.7731 -4.50294 23.4904 12
332 2 -20.4214 -4.44161 12.3273 10
333 2 -26.203 -9.63147 14.3094 13
334 2 -21.5692 -7.39083 22.9148 22
335 2 -14.9993 -9.31418 9.38709 22
336 2 -11.7246 -15.1892 9.80057 14
337 2 -24.1385 -7.96775 15.9603 16
338 2 -18.4431 -7.91807 6.40587 12
339 2 -11.1034 -18.3908 19.9437 21
340 2 -21.623 -13.0802 22.6107 22
341 2 -23.2217 -10.3502 23.2169 17
342 2 -9.45478 -19.3733 21.8817 14
343 2 -25.8641 -11.7441 21.2159 12
344 2 -21.6968 -15.5565 25.6732 10
345 2 -15.134 -21.1925 20.283 17
346 2 -7.26398 -11.1953 16.6418 18
347 2 -15.5114 -19.4352 13.1659 22
348 2 -20.2838 -4.82257 18.5238 17
349 2 -21.4792 -13.8413 7.2737 15
350 2 -21.9786 -14.9165 20.0495 22
351 2 -16.9847 -21.9315 22.7653 11
352 2 -11.2288 -8.91673 9.20665 17
353 2 -5.98695 -11.2982 22.3704 8
354 2 -8.75311 -19.0006 19.1451 14
355 2 -8.48702 -14.803 10.4109 11
356 2 -11.9154 -19.4657 17.6594 20
357 2 -10.4579 -16.4266 17.444 22
358 2 -21.1274 -9.01692 25.3115 14
359 2 -10.0261 -6.40391 10.6907 14
360 2 -25.7176 -12.126 12.8644 16
361 2 -23.5905 -10.3245 17.2183 24
362 2 -13.1109 -23.6291 20.0817 11
363 2 -13.4964 -4.31432 8.21613 12
364 2 -5.75984 -9.41895 12.2388 12
365 2 -12.8414 -4.97485 11.8948 18
366 2 -15.6673 -19.3354 23.4279 17
367 2 -8.90436 -13.1088 13.1721 17
368 2 -12.4754 -20.8718 14.5322 16
369 2 -22.09 -21.7316 10.2871 9
370 2 -13.8522 -4.31014 17.5831 18
371 2 -13.2662 -4.41338 23.2216 11
372 2 -20.2489 -20.7434 18.8362 16
373 2 -20.7445 -12.3332 25.0699 15
374 2 -6.88244 -12.3032 19.5774 14
375 2 -7.94506 -9.03647 9.723 12
376 2 -20.1435 -7.51996 8.89932 15
377 2 -20.1946 -21.3955 12.4117 18
378 2 -5.64689 -12.4794 13.4009 11
379 1 -22.1291 -15.0238 12.7743 19
380 1 -18.1992 -13.1187 9.61155 24
381 1 -16.9954 -18.1201 12.6165 23
382 1 -18.7903 -15.0058 13.0057 26
383 2 -20.5551 -17.9751 14.9838 22
384 2 -21.5563 -15.1321 14.715 23
385 2 -22.1291 -13.2503 12.2072 19
386 2 -20.3483 -15.5928 11.9389 22
387 2 -17.1307 -17.9537 14.7948 23
388 2 -18.764 -14.9605 15.2736 24
389 2 -18.3581 -13.2978 12.2887 24
390 2 -17.1544 -16.1569 12.3195 21
391 1 -21.8012 -13.0739 15.1637 22
392 1 -20.3524 -16.2104 15.6635 22
393 1 -20.3308 -18.0065 17.9116 20
394 1 -21.6496 -14.8577 17.9671 22
395 1 -21.9102 -13.153 20.653 19
396 1 -20.0346 -15.6921 20.493 21
397 1 -18.7042 -18.9238 15.6491 23
398 1 -18.5482 -13.057 15.5609 21
399 1 -16.8706 -16.1462 15.6134 24
400 1 -16.8992 -18.0965 18.1925 23
401 1 -18.0988 -15.1185 18.3421 24
402 1 -18.2773 -13.1394 20.4495 21
403 1 -16.8599 -16.3239 20.901 23
404 2 -21.6703 -12.9511 17.2722 23
405 2 -20.2334 -16.0618 17.7054 22
406 2 -16.5879 -16.1195 22.8097 20
407 2 -18.2647 -15.0707 20.2927 21
408 2 -18.4128 -13.2019 17.5143 22
409 2 -16.6286 -16.3366 17.5237 22
410 2 -18.2751 -13.3877 22.7043 24
411 1 -19.9071 -12.2978 12.9571 25
412 1 -21.81 -9.16134 12.7617 22
413 1 -16.3813 -10.6102 10.1927 21
414 1 -16.6959 -12.2352 12.727 23
415 1 -18.3072 -9.52589 12.5032 20
416 1 -16.5779 -6.7441 12.673 18
417 2 -23.3666 -12.0756 14.6886 24
418 2 -20.2051 -11.9398 14.8875 22
419 2 -21.9502 -9.69771 14.5047 23
420 2 -20.0991 -10.555 12.2017 18
421 2 -18.672 -5.62693 14.1793 14
422 2 -16.5893 -12.3354 9.18891 22
423 2 -16.7549 -12.5085 14.8745 24
424 2 -18.2967 -9.65468 14.9498 20
425 2 -18.4978 -7.74224 12.014 23
426 2 -16.743 -10.3978 12.1549 25
427 2 -16.279 -6.64452 14.6546 17
428 1 -20.4021 -10.2144 15.5582 22
429 1 -20.1209 -12.1407 18.0062 23
430 1 -21.8696 -9.25792 18.2883 23
431 1 -20.1039 -10.524 20.928 25
432 1 -18.1866 -7.30232 15.2434 21
433 1 -16.5706 -10.564 15.6281 24
434 1 -16.856 -12.1445 18.0106 24
435 1 -18.5664 -9.23314 18.1403 23
436 1 -18.4024 -7.38477 21.0162 25
437 1 -16.6287 -10.518 20.8745 24
438 1 -16.7373 -6.66702 18.5739 24
439 2 -20.0166 -12.1855 20.2091 24
440 2 -20.2093 -10.1944 18.0332 20
441 2 -16.695 -12.2396 19.925 25
442 2 -18.4572 -9.58252 20.4005 23
443 2 -18.336 -7.49021 17.2923 23
444 2 -16.7856 -10.0076 17.8035 22
445 2 -16.5782 -10.3324 22.9174 23
446 2 -16.7152 -6.4226 20.719 20
447 1 -14.8701 -13.1383 10.1057 21
448 1 -15.6965 -15.12 12.8827 22
449 1 -11.9528 -15.3471 12.7554 22
450 2 -13.6219 -18.4185 15.2043 20
451 2 -15.2917 -15.248 14.7051 23
452 2 -15.3824 -13.3557 12.1988 22
453 2 -13.6084 -16.6172 12.5976 19
454 2 -12.0253 -15.1137 14.7766 21
455 2 -11.7035 -13.3897 12.1772 23
456 1 -15.6085 -19.2296 15.162 23
457 1 -15.2379 -13.5266 15.6165 24
458 1 -13.496 -16.3504 15.1277 24
459 1 -13.6744 -18.4119 17.7941 21
460 1 -15.1169 -15.1157 18.0606 23
461 1 -15.2802 -13.2985 20.9414 22
462 1 -13.6464 -16.3824 20.8313 22
463 1 -11.9605 -13.3281 15.3587 22
464 1 -11.9563 -15.5407 18.1154 23
465 1 -12.1311 -13.4388 20.4439 19
466 2 -13.6379 -18.2998 20.7582 20
467 2 -15.2416 -15.1829 20.0224 23
468 2 -15.1596 -13.2273 17.5631 25
469 2 -13.6349 -16.3152 17.5553 22
470 2 -15.0263 -13.4998 22.8565 24
471 2 -11.863 -15.3135 20.0504 22
472 2 -12.1496 -13.6076 17.5849 22
473 1 -13.3851 -12.4942 12.7343 22
474 1 -15.098 -9.59315 13.0965 24
475 1 -11.9712 -9.29527 12.7658 21
476 2 -13.6647 -12.5465 14.8868 24
477 2 -15.0515 -9.58048 15.229 22
478 2 -14.8955 -7.72021 12.571 22
479 2 -13.3996 -10.4805 12.1855 21
480 2 -13.2788 -6.34268 15.2267 18
481 2 -10.4208 -11.9669 14.8097 19
482 2 -12.2977 -9.36098 14.8132 23
483 1 -14.9347 -7.46727 15.7343 23
484 1 -13.4174 -10.7168 15.7022 22
485 1 -13.6806 -12.3109 18.2377 22
486 1 -15.0424 -9.52111 18.5311 23
487 1 -14.8036 -7.22584 20.8203 22
488 1 -13.4114 -10.3626 20.817 20
489 1 -13.6347 -6.43033 17.774 22
490 1 -11.8369 -7.60493 15.4018 24
491 1 -10.3169 -10.2658 15.2716 20
492 1 -10.7225 -12.3096 18.2367 21
493 1 -12.031 -9.10801 18.1705 21
494 2 -13.7354 -12.2349 20.0796 22
495 2 -15.0699 -9.21804 20.4924 22
496 2 -15.2648 -7.36033 17.5776 22
497 2 -13.5452 -10.2839 17.6853 23
498 2 -12.3301 -8.9273 20.2539 20
499 2 -11.8119 -7.36188 17.3468 22
500 2 -10.5595 -10.4272 17.5839 23
