ITEM: TIMESTEP
27000
ITEM: NUMBER OF ATOMS
500
ITEM: BOX BOUNDS pp pp pp
-30.0 30.0
-30.0 30.0
-30.0 30.0
ITEM: ATOMS id type x y z Coordination
1 1 1.57544 5.10125 5.54185 18
2 1 -3.65211 14.8421 11.4582 8
3 1 4.64858 7.58007 7.40336 8
4 1 -15.5191 8.81098 4.01515 12
5 1 -7.2999 11.4175 -7.77917 16
6 1 -2.21094 8.79462 7.73297 21
7 1 -12.4071 10.3407 -0.405607 21
8 1 -4.05684 10.4353 -8.81259 14
9 1 1.47872 2.8397 -2.3558 13
10 1 1.6952 10.681 4.80147 20
11 1 -8.26566 16.679 -5.44555 13
12 1 -1.49359 13.4674 9.95213 13
13 1 -12.0927 8.88765 2.5277 22
14 1 -14.4836 7.70114 0.001621 16
15 1 2.76446 8.43995 -4.74661 20
16 1 -1.34912 6.69071 11.5536 8
17 1 -11.645 3.08729 3.06532 17
18 1 -8.89231 3.36769 -7.75187 12
19 1 -0.522132 8.84821 -4.94554 23
20 1 0.926957 2.84433 2.94329 16
21 1 -12.4303 16.6335 4.97686 11
22 1 -5.84368 16.1889 0.326405 19
23 1 -5.22202 4.95552 -4.87499 22
24 1 -6.6309 13.0563 11.4601 10
25 1 2.90489 4.86594 2.55185 12
26 1 -8.94573 15.6081 6.5421 16
27 1 -2.04357 14.0306 -2.57764 20
28 1 0.811774 16.4652 -3.84946 14
29 1 -10.1836 17.0417 -3.85058 12
30 1 -11.162 15.2421 -6.36589 12
31 1 -11.5704 16.1375 -0.757472 14
32 1 -4.27253 18.2989 -1.64884 10
33 1 -13.8999 11.4645 2.45211 15
34 1 -5.61535 14.8403 7.63429 20
35 1 -8.79169 10.4752 -5.28776 22
36 1 -10.5216 1.81824 5.98468 18
37 1 2.689 5.98779 -2.84816 17
38 1 -14.9173 9.5133 7.60109 11
39 1 -12.8536 9.13549 -3.23711 22
40 1 -5.48279 -1.01678 5.7809 11
41 1 3.94128 11.1222 -6.57114 9
42 1 -10.7955 6.18442 -7.91334 14
43 1 -1.4962 12.4276 -8.64264 10
44 1 -7.17111 -0.26582 2.41933 16
45 1 -8.45979 16.4678 0.509773 16
46 1 -16.3477 11.4669 6.16807 9
47 1 0.031917 15.1425 7.57145 12
48 1 -0.22983 5.93148 8.00067 19
49 1 -3.41376 0.257656 -2.85137 14
50 1 1.53692 8.48244 -7.6603 13
51 1 -10.3109 2.23142 -0.0898106 21
52 1 -7.34714 2.07016 6.05042 19
53 1 0.00237541 3.67881 10.6672 12
54 1 -2.13045 2.78397 8.27654 17
55 1 -0.10375 17.7074 -1.58141 8
56 1 -13.7762 -1.2369 2.93348 9
57 1 -10.1533 -2.2473 3.04798 10
58 1 -8.80981 2.95509 -2.4532 20
59 1 -6.42354 9.55628 10.7664 13
60 1 -13.1689 6.94022 5.42268 18
61 1 -2.70496 -1.60739 0.509516 9
62 1 -14.0013 5.93236 2.40433 13
63 1 -10.673 17.4456 2.35179 11
64 1 -10.4921 13.4716 4.90174 19
65 1 -8.09088 14.5434 8.76316 14
66 1 -12.3317 4.47168 -5.46212 13
67 1 -13.1336 12.569 -5.83145 11
68 1 -8.94572 4.68592 -5.13289 20
69 1 3.1557 7.52153 4.62746 16
70 1 -7.08893 6.42898 8.45491 18
71 1 -8.96928 8.90997 -7.51452 18
72 1 -13.5122 7.3564 -5.89941 13
73 1 -8.68036 -1.07945 0.257338 13
74 1 -10.0657 11.9587 7.43849 18
75 1 -10.0005 13.5844 0.444961 21
76 1 -5.89155 -1.33972 -4.58391 9
77 1 -3.05351 15.6327 8.09994 16
78 1 -15.489 10.0784 -4.94953 9
79 1 -13.367 13.0774 -0.039412 14
80 1 -9.21148 -1.34742 -4.35003 9
81 1 -2.12138 -0.712965 6.25281 12
82 1 -14.2061 12.1328 -3.00473 14
83 1 -10.3289 6.12744 7.83813 17
84 1 -13.1896 12.0681 7.83061 13
85 1 -3.93317 1.64853 -4.93766 12
86 1 -5.48486 8.96028 7.99816 21
87 1 -5.54313 3.60878 8.5075 14
88 1 -1.839 2.95172 -2.61827 21
89 1 6.29636 12.1848 2.20544 12
90 1 -1.71603 8.5763 -8.07979 14
91 1 1.25964 2.65534 8.26592 13
92 1 -10.6366 -0.0795267 -2.26141 14
93 1 -14.1836 6.40101 8.1773 8
94 1 3.52372 10.7766 7.20195 12
95 1 3.18646 13.2061 0.0849797 17
96 1 -3.10428 13.2171 -5.52045 18
97 1 -5.86332 15.6407 -7.14371 11
98 1 -3.93923 17.3817 2.35494 14
99 1 1.27279 11.8522 -6.43597 18
100 1 -4.09668 -0.262378 2.84626 16
101 1 3.80184 9.23201 -1.17414 22
102 1 -5.25955 -0.955478 -0.636615 14
103 1 -11.5428 9.59776 -6.63801 14
104 1 6.25167 7.39267 -1.5868 11
105 1 -9.05972 14.8241 -2.28345 19
106 1 0.540145 3.34964 -5.27783 11
107 1 -12.6288 3.69792 6.56953 10
108 1 -7.65584 0.882092 -6.27196 11
109 1 -2.43978 3.59671 -7.15333 13
110 1 -2.67495 16.4245 -0.220805 16
111 1 -0.693232 -0.120833 3.21407 12
112 1 -10.5519 1.84754 -4.78425 15
113 1 -3.39042 8.16823 10.7068 13
114 1 -3.8474 11.5575 10.9773 16
115 1 -0.318217 5.46636 -8.23885 12
116 1 -15.8009 8.85881 -2.38697 10
117 1 -2.10994 18.2533 -3.94795 10
118 1 0.720679 8.50451 -2.2423 20
119 1 -4.90722 13.1158 -8.07822 16
120 1 -14.5908 14.3454 6.32565 11
121 1 -3.28712 6.00075 8.37706 18
122 1 -10.5989 12.3457 -7.52329 13
123 1 3.51135 7.31769 0.844327 19
124 1 1.22099 8.45149 8.22812 15
125 1 -4.27023 0.327586 8.37343 10
126 1 4.98425 14.6114 1.05097 12
127 1 3.99571 12.9966 4.33599 16
128 1 -5.67754 3.54295 -7.70851 14
129 1 -0.145907 11.4106 7.86019 19
130 1 -7.38652 13.376 -5.12128 21
131 1 -6.79668 11.7365 8.61416 24
132 1 -12.2066 -0.987496 0.458059 13
133 1 -0.132035 13.3633 5.20035 20
134 1 -11.2164 14.6948 7.62071 13
135 1 -8.81571 14.6741 3.09346 22
136 1 2.96315 14.2641 -4.97053 10
137 1 -0.776621 10.1217 10.794 12
138 1 -5.76451 8.57716 -7.92177 13
139 1 -3.57668 12.0864 7.5288 21
140 1 5.11111 5.86687 -4.55904 9
141 1 -0.164191 16.9571 2.38353 14
142 1 -0.30281 2.24971 5.69902 20
143 1 -4.65714 16.4264 5.40027 18
144 1 -2.11149 5.23286 -4.88292 22
145 1 -0.569021 0.468436 8.73843 10
146 1 -11.6211 10.2807 5.33658 19
147 1 5.39984 9.8076 5.00642 13
148 1 -5.17832 18.2661 -4.95906 10
149 1 3.20304 11.4425 -3.21253 20
150 1 -8.70793 8.85751 8.43122 18
151 1 -8.83848 3.74189 8.50957 12
152 1 -12.1709 14.3438 2.42214 18
153 1 1.58043 15.7803 -0.08044 13
154 1 -13.6076 1.45618 4.20128 10
155 1 6.30093 9.27917 1.47339 12
156 1 -13.6717 1.67723 0.540098 12
157 1 3.56292 10.434 2.20691 21
158 1 1.117 4.37005 -0.121409 19
159 1 -1.30715 16.3607 5.02942 16
160 1 -13.5145 5.99437 -3.02028 18
161 1 -7.37531 18.0712 -2.31931 11
162 1 -0.373996 13.9758 -5.13216 19
163 1 -10.5758 7.29777 -4.65846 21
164 1 -4.17383 6.23458 -8.29073 17
165 1 -7.27595 0.166199 -2.07944 19
166 1 -3.83041 2.06989 6.00338 21
167 1 3.99137 4.43266 -0.6114 11
168 1 -15.5152 10.3297 0.863883 12
169 1 -8.38812 14.5791 -8.01306 14
170 1 -12.1111 2.90504 -2.54446 16
171 1 2.4774 5.16025 8.95564 9
172 1 -7.48085 5.98831 -8.33865 15
173 1 -15.0796 14.2219 3.77196 9
174 1 -11.8504 9.15561 8.25594 14
175 1 1.70702 14.0122 2.4986 21
176 1 5.51699 11.632 -0.812298 15
177 1 -8.84967 -0.894805 5.68992 12
178 1 -1.97594 10.8998 -6.21126 18
179 1 1.36845 13.9686 -2.34363 16
180 1 1.89095 15.7089 4.97876 10
181 1 -3.41879 15.7995 -5.4362 12
182 1 5.62879 9.71544 -3.78805 11
183 1 1.50217 5.90866 -5.60489 16
184 1 -6.35653 17.5604 7.42059 10
185 1 -7.308 17.0338 3.71155 15
186 1 -11.9619 -1.20368 5.67541 9
187 1 -0.595571 1.52155 0.386254 17
188 1 -12.4926 4.70613 -0.0288944 19
189 1 -12.048 14.0605 -3.31838 15
190 2 -14.2548 7.4085 3.84647 14
191 2 4.91371 13.4705 2.63443 14
192 2 -9.38578 8.58991 -5.4587 18
193 2 -14.525 11.7188 -4.99441 11
194 2 -10.2482 -1.809 4.78545 9
195 2 -2.62575 6.61061 10.1197 12
196 2 3.14566 8.44862 2.36934 21
197 2 -6.34482 11.3049 10.396 13
198 2 0.843667 5.24646 -3.84031 20
199 2 -9.3077 10.825 -6.99316 15
200 2 -5.60637 5.23415 -8.57479 16
201 2 -7.63094 16.2353 7.79661 14
202 2 3.83062 5.95353 8.08907 10
203 2 -0.344677 17.8068 -3.70943 8
204 2 -4.70652 16.7547 7.48027 12
205 2 2.86509 15.0277 1.13994 16
206 2 -4.57557 14.4365 -6.35829 15
207 2 0.0351511 7.63275 -8.00036 12
208 2 -12.0435 11.3735 -6.71279 11
209 2 -4.11724 2.38979 7.85371 16
210 2 -15.9526 9.50278 5.83925 9
211 2 -0.00802572 2.40483 -3.23478 14
212 2 -8.66594 -1.74311 1.98683 11
213 2 -0.636999 13.326 8.32024 15
214 2 -0.447992 5.16121 11.7152 7
215 2 -13.4403 -0.317527 4.71603 10
216 2 -5.89321 -0.869783 3.69495 12
217 2 -13.3562 2.19312 2.50685 13
218 2 -10.645 -0.673031 -0.32598 16
219 2 -14.0064 -0.075503 1.31811 9
220 2 -10.2797 16.9921 0.506621 13
221 2 -2.10016 8.79025 -6.22701 19
222 2 5.35625 13.4104 -0.473765 10
223 2 -0.0539983 10.8171 -5.15681 21
224 2 -11.9363 10.4173 -2.44706 20
225 2 5.58465 10.482 3.16804 12
226 2 -5.7801 16.3315 2.43274 18
227 2 -11.0464 15.6439 5.80068 15
228 2 -4.21809 17.3596 0.150856 11
229 2 -3.45293 17.7783 -5.3137 11
230 2 -6.84669 13.4079 7.76727 21
231 2 -6.76917 8.07174 9.6008 15
232 2 -2.17411 5.27452 -8.10439 14
233 2 -5.71885 -0.771038 -2.54099 15
234 2 -4.07538 3.02626 -6.30546 14
235 2 -12.312 2.58569 -0.418583 18
236 2 2.25364 4.37803 -1.49371 15
237 2 1.43016 10.8309 2.59698 20
238 2 -5.7719 10.6044 -7.84303 16
239 2 -3.81784 8.39207 -8.35892 15
240 2 -6.94282 5.37219 -5.26192 20
241 2 -1.36299 3.45296 -5.6487 15
242 2 0.992457 7.86117 -5.7248 18
243 2 -9.027 2.41071 4.99978 18
244 2 -3.71649 6.1827 -5.39735 19
245 2 -7.51837 -0.857522 -5.13808 11
246 2 -7.26488 11.681 -5.83732 20
247 2 -8.48087 14.124 5.11161 23
248 2 -10.3896 2.17295 1.88532 20
249 2 -9.4336 13.8759 7.72789 17
250 2 -12.2231 2.88982 4.98374 15
251 2 -15.7128 9.09117 -0.476277 11
252 2 -0.795642 2.2627 9.62025 11
253 2 6.5452 10.9541 0.663403 12
254 2 -7.42766 7.68932 -7.63296 17
255 2 -1.92979 14.3506 4.7424 23
256 2 0.402817 16.3109 4.02903 15
257 2 -4.49845 9.82289 10.6283 18
258 2 -12.9562 13.9096 7.56765 12
259 2 -10.4814 5.669 -5.77156 21
260 2 2.94053 13.2148 -3.29413 19
261 2 -13.5943 6.0984 0.469578 16
262 2 -10.2445 13.2361 -2.6305 17
263 2 -1.91859 10.5671 -8.24782 16
264 2 -10.2469 13.4408 2.79904 20
265 2 0.800898 2.34724 -0.563385 13
266 2 -4.32852 -0.648007 1.01992 14
267 2 -11.8005 16.1468 3.28273 13
268 2 -3.97787 -0.144625 6.36063 13
269 2 -2.05637 -0.901445 1.98403 11
270 2 0.284554 9.87773 9.30059 12
271 2 -8.40923 16.778 -3.48098 14
272 2 -10.7126 3.30033 7.45269 13
273 2 -7.04913 1.58788 2.62373 21
274 2 -7.37676 2.95745 7.72145 14
275 2 -3.37154 12.4778 -8.7766 11
276 2 5.89238 7.71615 -3.48607 12
277 2 -0.480756 7.72732 7.55706 20
278 2 1.36275 13.6722 -0.386967 18
279 2 -3.13857 16.6481 4.07797 15
280 2 -12.2889 4.98746 2.52208 16
281 2 -2.44477 15.0247 10.0012 12
282 2 1.20097 4.92061 7.34769 17
283 2 -1.16536 12.9205 -6.71537 16
284 2 -2.07846 11.4724 10.7435 14
285 2 1.07181 3.24586 4.79141 16
286 2 -13.4978 5.77462 -4.78968 13
287 2 -13.3355 13.3156 -1.94146 16
288 2 -12.1722 8.48223 -5.09107 17
289 2 -10.6317 -0.0206403 6.49505 10
290 2 0.487932 17.3327 0.659078 13
291 2 -7.13426 2.25637 -7.5863 11
292 2 5.00029 8.50809 0.0641503 15
293 2 -13.914 13.3832 2.55372 15
294 2 3.87713 5.31613 1.09883 10
295 2 -13.1443 5.56695 6.99212 10
296 2 -10.538 1.79038 -2.06318 17
297 2 -5.55384 18.6638 -2.99648 10
298 2 -14.1449 15.6046 4.75036 9
299 2 -5.74058 5.32865 7.69677 19
300 2 -15.9326 13.1647 5.32428 10
301 2 -12.0328 14.4312 0.494533 16
302 2 -4.72679 13.1404 11.4131 10
303 2 -14.833 8.55071 -5.53276 11
304 2 -2.24346 17.7446 -1.9731 15
305 2 -7.4466 14.4689 10.4852 10
306 2 -2.12714 10.7673 7.72799 22
307 2 -11.5528 3.31883 -4.29746 14
308 2 -6.46097 17.2527 -6.05234 12
309 2 -7.27819 2.01682 -2.54844 19
310 2 1.36197 8.73641 4.74847 22
311 2 0.814473 15.7641 -1.9396 18
312 2 -2.25742 0.0690187 8.09472 11
313 2 1.37956 10.5927 -2.3466 20
314 2 0.96566 14.6184 6.21789 14
315 2 -10.2328 11.6567 5.19254 19
316 2 -12.3353 4.91316 -1.91606 16
317 2 -7.0744 0.112102 -0.100859 16
318 2 -7.14579 17.2703 -0.759923 14
319 2 -14.7877 11.5515 7.16421 11
320 2 -11.9351 8.32429 5.64688 19
321 2 -10.627 0.0482655 -4.21964 13
322 2 -1.55753 8.73121 11.6276 10
323 2 -7.86717 14.8284 -6.14527 17
324 2 -0.372433 13.306 -3.23388 21
325 2 -4.24816 -0.250019 -4.70799 9
326 2 2.91459 8.90014 7.56317 15
327 2 1.75921 11.1869 6.88841 15
328 2 -10.1001 16.8734 -5.8141 10
329 2 -12.4559 14.1517 -5.21896 13
330 2 -9.11463 5.19859 -8.1757 14
331 2 -6.87318 17.2232 5.56875 12
332 2 -11.0574 15.6588 -2.67616 14
333 2 -15.1258 10.4859 -2.906 13
334 2 -11.7776 10.9111 7.31294 17
335 2 -3.43394 11.2762 -4.97591 24
336 2 0.643403 4.49706 -6.89757 11
337 2 -13.8846 11.2599 0.452942 17
338 2 -6.68138 13.5607 -8.30058 11
339 2 1.69955 3.6484 9.72763 9
340 2 -10.3848 8.13779 8.35482 15
341 2 -13.5477 8.36373 8.27643 12
342 2 0.515196 1.26652 7.21716 12
343 2 -15.4702 9.89617 2.60738 13
344 2 -8.9299 5.50466 8.87884 12
345 2 -7.37117 0.0560666 6.07067 14
346 2 4.66178 8.24044 5.67979 12
347 2 -3.87191 2.184 -3.07244 19
348 2 -8.6599 16.6122 2.46074 16
349 2 -10.6363 8.1923 -8.24549 13
350 2 -9.92343 5.7632 5.88888 22
351 2 -1.93699 4.58148 7.78002 19
352 2 2.01851 10.2286 -7.01401 10
353 2 3.81445 11.0606 5.16857 15
354 2 2.80141 5.75447 4.28472 17
355 2 3.15376 6.30449 -4.60248 12
356 2 -0.472534 1.6945 2.51051 17
357 2 1.20095 4.48761 1.77093 19
358 2 -8.42279 10.9783 7.77009 21
359 2 3.10484 12.6418 -5.86463 10
360 2 -14.2018 7.54253 -2.08229 18
361 2 -12.2473 10.5626 3.34469 20
362 2 -0.697148 0.230551 5.03704 14
363 2 -1.98565 14.9349 -4.6139 16
364 2 4.92223 10.3173 -2.1551 15
365 2 1.18811 15.1041 -5.4939 12
366 2 -2.02815 2.833 5.1832 22
367 2 5.15478 5.82648 -1.4104 12
368 2 -2.77823 -0.386628 -1.11431 13
369 2 -9.17486 2.53144 -6.07546 15
370 2 -2.16423 16.5602 1.73588 18
371 2 -1.6314 16.1286 6.84844 14
372 2 -12.139 -1.89047 2.15843 9
373 2 -5.43649 10.8649 7.46467 24
374 2 2.6886 14.3338 3.96983 13
375 2 3.99319 9.79388 -5.0158 16
376 2 -10.1204 14.1832 -7.35535 13
377 2 -8.61586 -1.0733 -2.51845 13
378 2 2.62068 7.9388 -2.68541 25
379 1 -10.3868 5.48179 -2.19702 23
380 1 -6.98984 7.25324 -5.66323 23
381 1 -5.58539 2.9414 -2.39543 23
382 1 -7.23712 5.90666 -2.3181 25
383 2 -8.47761 3.00918 -0.302925 21
384 2 -10.3919 5.94652 0.115309 22
385 2 -10.6542 7.48148 -2.62726 20
386 2 -8.83486 4.72091 -3.20803 25
387 2 -5.02985 2.64635 -0.124284 23
388 2 -7.18012 5.54726 -0.32599 23
389 2 -7.33512 7.72426 -3.0837 23
390 2 -5.75715 4.78464 -2.86581 20
391 1 -11.1249 7.70205 -0.344318 23
392 1 -8.84669 4.74955 0.4897 20
393 1 -8.86549 2.53964 2.93412 18
394 1 -10.5656 5.95615 2.05702 20
395 1 -10.2577 7.4397 4.87469 19
396 1 -9.023 4.45016 4.84849 20
397 1 -6.93076 2.1279 0.261052 22
398 1 -7.28065 7.60873 0.0770371 19
399 1 -5.50295 4.53304 0.0559572 19
400 1 -5.6889 2.63282 3.31546 22
401 1 -6.92153 5.56533 2.77127 22
402 1 -6.86863 7.69573 5.5004 23
403 1 -5.64811 4.58516 5.5887 19
404 2 -10.6973 7.66052 2.7417 22
405 2 -8.77131 4.74117 2.77017 21
406 2 -5.53506 2.69004 5.34366 22
407 2 -6.80802 5.84959 4.68807 22
408 2 -7.31957 7.46397 2.28215 23
409 2 -5.3935 4.41908 2.33528 23
410 2 -7.18811 8.3529 7.17223 21
411 1 -9.04369 8.60035 -2.3428 22
412 1 -10.413 11.5377 -2.30082 18
413 1 -5.29997 10.3682 -5.04743 22
414 1 -5.89706 8.73552 -2.71425 20
415 1 -7.44725 11.6229 -2.67296 20
416 1 -5.45062 13.957 -2.43464 16
417 2 -12.4487 8.73405 0.649701 23
418 2 -8.96931 8.77647 -0.325125 24
419 2 -10.5698 11.4567 -0.134753 21
420 2 -8.87134 10.5428 -3.27951 21
421 2 -8.84763 14.8435 -0.299407 20
422 2 -5.49089 8.52459 -5.61916 22
423 2 -5.59965 8.79977 -0.332776 23
424 2 -7.22744 11.7438 -0.183695 21
425 2 -7.31237 13.4934 -2.87165 16
426 2 -5.89815 10.6816 -3.27444 20
427 2 -5.37427 14.2912 -0.137514 19
428 1 -8.80525 10.5389 0.539615 22
429 1 -8.92074 8.4831 2.80205 23
430 1 -10.531 11.4446 2.87515 21
431 1 -8.45352 10.5322 5.57664 23
432 1 -7.13539 13.568 0.291593 23
433 1 -5.87191 10.594 -0.133539 19
434 1 -5.67336 8.69017 2.83428 22
435 1 -7.28369 11.4093 2.76891 24
436 1 -6.78747 13.3379 5.5976 26
437 1 -5.15317 10.4877 5.66778 25
438 1 -5.54869 14.2563 3.02005 23
439 2 -8.56131 8.48576 4.75693 20
440 2 -8.8773 10.3697 2.5194 21
441 2 -5.50542 8.72843 4.71314 23
442 2 -6.77101 11.5533 4.7918 22
443 2 -7.3291 13.6603 2.33641 24
444 2 -5.65729 10.6042 2.26784 24
445 2 -3.91846 13.8625 7.37077 19
446 2 -5.23888 14.7626 4.8902 22
447 1 -3.55084 8.02176 -5.13074 20
448 1 -3.97958 5.59988 -2.3908 21
449 1 -0.544578 5.76923 -2.4459 24
450 2 -1.9138 2.66297 -0.508951 20
451 2 -3.91039 5.5631 -0.408451 25
452 2 -4.06237 7.8343 -2.63307 21
453 2 -2.21455 4.86403 -2.71117 18
454 2 -0.384073 5.67078 -0.425997 21
455 2 -1.18104 7.91686 -3.13982 22
456 1 -3.43794 1.86564 0.650101 23
457 1 -4.22864 7.67438 0.310428 21
458 1 -2.07846 4.52667 0.377164 24
459 1 -2.38862 2.72545 3.16047 23
460 1 -3.84289 5.40327 2.72288 21
461 1 -3.70241 7.3272 5.38205 21
462 1 -2.25828 4.70083 5.71226 24
463 1 -0.515234 7.37866 0.546027 21
464 1 -0.561072 5.56257 3.13074 23
465 1 -0.279369 7.84415 5.49188 22
466 2 -3.87875 1.64365 2.72446 20
467 2 -3.98256 5.2751 4.77905 23
468 2 -4.01421 7.33797 2.40234 23
469 2 -2.08065 4.64464 2.34051 22
470 2 -3.64441 7.67443 7.56764 24
471 2 -0.772075 5.86375 5.14512 20
472 2 -0.398472 7.6021 2.41896 18
473 1 -2.40507 8.8264 -2.12303 21
474 1 -3.81036 11.3401 -2.64849 18
475 1 -0.303502 11.4289 -3.16973 23
476 2 -2.19851 8.34813 0.0304687 21
477 2 -3.965 11.4301 -0.430598 22
478 2 -3.78724 13.4807 -3.3 18
479 2 -1.91539 10.5863 -2.55036 21
480 2 -2.28374 14.4378 -0.441194 19
481 2 0.672905 8.65473 -0.317019 20
482 2 -0.742488 11.4834 0.302216 19
483 1 -3.84973 13.3123 0.396349 23
484 1 -2.30712 10.5302 0.0902035 21
485 1 -2.20924 8.49183 2.98223 22
486 1 -3.85182 11.3942 2.8193 21
487 1 -3.4452 13.4705 5.16449 22
488 1 -1.85077 10.5328 5.47082 22
489 1 -2.06673 14.5531 2.66839 21
490 1 -0.447273 13.5991 0.18508 21
491 1 1.0061 10.5683 -0.198718 21
492 1 1.13159 8.73251 2.55325 18
493 1 -0.589217 11.5495 2.3801 20
494 2 -2.27834 8.65346 5.13228 20
495 2 -3.83202 11.5835 4.94765 19
496 2 -3.88703 13.432 2.42656 23
497 2 -2.12181 10.3793 2.4119 21
498 2 -0.454275 11.5488 4.69757 22
499 2 -0.207909 13.8722 2.23972 22
500 2 3.17228 11.2091 0.101869 25
