ITEM: TIMESTEP
13000
ITEM: NUMBER OF ATOMS
2000
ITEM: BOX BOUNDS pp pp pp
-30.0 30.0
-30.0 30.0
-30.0 30.0
ITEM: ATOMS id type x y z Coordination
1 1 -4.33652 3.38223 -13.9207 11
2 1 -6.01016 -11.9397 -7.27238 15
3 1 2.03557 6.87452 18.3622 22
4 1 8.03793 -10.3869 10.3182 13
5 1 -7.42821 10.0887 4.41071 20
6 1 11.8204 -8.66136 -7.32872 11
7 1 -9.71669 3.24235 -4.24871 19
8 1 2.46143 -8.52848 14.6195 15
9 1 -7.54664 -0.221457 -9.65965 18
10 1 -10.7476 -7.5772 5.68844 20
11 1 13.2751 0.510542 -13.1212 11
12 1 -2.2999 -11.5 3.4671 21
13 1 -11.7101 -7.31957 2.92736 14
14 1 5.71322 2.58968 19.9978 16
15 1 6.71995 -3.00466 13.1487 18
16 1 2.01921 2.8552 9.45696 23
17 1 7.33792 -3.255 6.45293 23
18 1 -1.61585 9.20941 -5.76064 24
19 1 1.8928 4.6419 12.0178 20
20 1 -7.39418 -2.7998 -13.4064 12
21 1 -9.37409 -3.41869 11.563 19
22 1 13.4029 3.85965 11.1511 22
23 1 0.7906 9.89108 -11.3392 16
24 1 3.73358 5.91682 -11.5545 19
25 1 13.0492 0.856188 11.7616 20
26 1 -5.87171 0.181428 4.09452 24
27 1 -10.7699 6.48658 -8.97884 13
28 1 -1.11507 -2.50055 -7.00652 23
29 1 -11.1466 9.77428 12.1935 14
30 1 3.14974 -11.7967 14.3362 12
31 1 0.59667 -0.131364 9.23786 22
32 1 8.51605 -15.4 -7.82529 11
33 1 8.94218 -7.95548 3.79904 20
34 1 -0.788032 -14.1925 -2.86966 16
35 1 -10.9204 -6.22563 10.706 16
36 1 11.2111 -7.62815 -12.7215 9
37 1 10.3355 -9.88096 -10.0033 12
38 1 -0.980636 3.44659 -14.5658 17
39 1 5.51997 4.60473 11.6568 18
40 1 -1.43234 -10.3898 9.45103 18
41 1 2.99695 -5.71853 14.3885 16
42 1 -14.2196 4.29536 2.49632 14
43 1 -14.3624 -1.30128 9.41397 12
44 1 -6.26365 2.29739 1.35197 22
45 1 1.66443 17.1711 -3.53995 17
46 1 3.21609 -14.7736 -4.12072 20
47 1 3.83343 0.957088 -6.67326 24
48 1 6.87919 -2.8243 -9.8862 21
49 1 -3.74334 -5.16989 14.2222 16
50 1 -14.3842 7.24863 -3.40455 10
51 1 3.31658 8.35384 -9.06813 20
52 1 3.38018 9.85275 12.0972 22
53 1 -7.38339 11.1218 -6.97951 22
54 1 -1.75641 17.0111 1.22461 13
55 1 3.54461 -9.76182 6.30609 19
56 1 7.3777 -5.33513 -1.46466 22
57 1 8.78154 -6.08467 -14.76 11
58 1 -9.32791 7.56134 13.4495 14
59 1 -12.3974 -2.90676 -3.94909 19
60 1 7.29941 2.51935 6.42789 21
61 1 -10.302 9.19669 1.48787 15
62 1 -8.63107 -10.0629 6.45253 21
63 1 2.90426 13.2212 12.4456 19
64 1 -9.2493 13.065 -7.00728 11
65 1 -1.51843 9.81288 13.1672 17
66 1 3.75073 2.76261 -3.95977 22
67 1 -4.02169 -10.7507 9.56166 21
68 1 3.45112 5.88417 9.47932 21
69 1 9.11957 -15.1999 -2.08431 16
70 1 9.24089 5.74597 19.0623 16
71 1 -10.9206 1.82425 -6.96518 18
72 1 -9.82597 8.566 -10.1628 12
73 1 4.26612 7.04394 12.7235 19
74 1 13.6984 -1.702 -10.3336 13
75 1 7.39436 -14.0261 6.30744 15
76 1 -15.6338 -0.161344 3.7473 12
77 1 -6.30304 -3.53844 1.21058 24
78 1 5.84566 14.6418 6.36523 17
79 1 3.5152 -2.83879 14.1957 22
80 1 -6.64593 -14.5648 2.25002 13
81 1 -7.11923 -0.757574 7.45783 24
82 1 10.3081 1.99702 11.5108 22
83 1 7.06415 0.650087 -1.82553 18
84 1 0.753822 11.1318 11.2535 22
85 1 3.99768 -0.0678335 9.16279 22
86 1 -6.13748 -3.25714 6.1119 22
87 1 -2.82912 -5.51487 -6.90153 23
88 1 -11.9243 10.1798 8.90133 17
89 1 -3.58484 13.8482 1.3049 19
90 1 -3.29892 6.38443 -6.18828 23
91 1 8.64612 -0.424563 -4.74828 19
92 1 8.73744 12.0549 -4.45714 15
93 1 9.43499 -8.18717 7.94033 16
94 1 8.25383 -8.60472 13.6526 13
95 1 -2.14319 17.5578 -4.61299 12
96 1 -8.38182 13.0549 5.191 17
97 1 -5.5043 -2.62198 15.1751 19
98 1 -4.87789 9.39567 8.55871 22
99 1 -5.57025 -4.22309 12.2735 23
100 1 13.2832 -11.5632 -2.40541 10
101 1 -8.95142 0.625927 4.73418 20
102 1 -9.07351 -13.1463 4.2642 13
103 1 12.2054 -8.78822 -2.29179 17
104 1 6.51537 -0.920847 -12.1533 21
105 1 -5.11109 -0.982417 -14.1404 9
106 1 -0.0396978 11.7922 4.68322 22
107 1 -5.01722 9.04954 -6.26482 21
108 1 5.54022 8.6236 21.386 9
109 1 -1.95292 15.168 -0.78599 17
110 1 -10.274 10.7892 -1.04683 15
111 1 1.79496 9.15155 4.21184 20
112 1 -4.66313 -7.72048 11.8239 21
113 1 13.5541 -2.52683 12.3346 14
114 1 0.422802 -5.30156 -7.03276 26
115 1 0.23238 -11.1973 -6.94246 23
116 1 -1.14397 2.89171 9.36747 21
117 1 6.98852 -5.08276 18.3277 10
118 1 -7.95593 -5.92115 1.09937 21
119 1 7.24881 -5.15979 3.73798 23
120 1 -9.34297 -5.11498 -1.87792 22
121 1 9.19812 -5.86651 6.14464 19
122 1 -4.54107 8.751 4.30274 21
123 1 4.97079 3.91246 -14.1067 14
124 1 4.61693 15.9358 -1.78376 19
125 1 -5.47831 -12.7124 12.5566 15
126 1 -7.05123 -13.1911 9.33266 17
127 1 8.54377 -7.51341 -11.4672 16
128 1 5.4367 5.70748 -4.17759 21
129 1 13.0797 -10.7366 3.73698 13
130 1 2.21532 -15.4066 7.35877 12
131 1 -6.19948 -10.6475 -1.49283 19
132 1 15.2421 5.03874 9.11161 20
133 1 14.0723 -0.559229 -4.02947 18
134 1 -15.5278 -3.7508 7.05148 11
135 1 12.4375 10.0008 10.1765 20
136 1 15.7118 9.52574 5.84529 13
137 1 0.0352819 0.236845 19.4028 10
138 1 8.31098 5.48959 1.54519 22
139 1 -2.62737 11.4937 10.6429 21
140 1 -4.54027 15.3148 -4.4399 13
141 1 7.17966 -10.0255 -10.5052 14
142 1 7.83828 -12.0032 -4.9284 18
143 1 4.16665 11.8087 -9.60181 17
144 1 9.20942 -2.35096 14.9745 22
145 1 3.39411 -4.86879 -14.7463 16
146 1 -3.16281 6.27225 -1.34839 21
147 1 8.58676 -0.41097 1.11074 22
148 1 -8.12871 7.84599 -7.34135 20
149 1 -5.30788 14.8113 -1.35481 15
150 1 10.3935 1.07667 -8.14469 18
151 1 11.108 -9.03444 5.35722 14
152 1 -4.66666 2.70257 -6.45816 20
153 1 -9.34461 11.5249 10.6767 16
154 1 13.8556 9.66743 -3.62277 15
155 1 5.14181 9.43142 -1.73715 20
156 1 -4.76152 14.7914 3.98413 13
157 1 7.95573 9.60091 3.86943 16
158 1 -1.66629 11.0736 -3.28821 21
159 1 2.84977 14.2595 -11.265 8
160 1 2.97242 11.6466 -12.7221 12
161 1 -9.65529 -9.92505 3.63537 18
162 1 -6.75029 11.4607 -1.88517 20
163 1 -4.74653 -2.21927 -11.329 17
164 1 6.66755 -8.95459 -14.0204 12
165 1 11.705 11.1025 13.0314 13
166 1 2.02481 14.4604 9.85107 20
167 1 -10.9228 2.13556 -2.13756 21
168 1 -10.2374 12.5255 2.40476 12
169 1 16.1373 -1.49703 -0.97274 14
170 1 -9.32594 2.38003 -9.82727 17
171 1 7.85858 0.914652 18.4664 17
172 1 3.15838 16.5684 6.86469 17
173 1 -3.47833 8.07687 11.4887 17
174 1 3.95974 -10.6482 -11.873 14
175 1 -8.27211 10.7585 13.409 11
176 1 -2.85155 12.6242 -5.04274 22
177 1 1.2562 -4.00392 16.5082 12
178 1 -13.0319 -2.29513 1.45561 18
179 1 4.57779 -9.01764 -9.36849 21
180 1 -7.8196 11.0823 -9.85089 16
181 1 -0.80079 -12.143 6.5713 20
182 1 7.16447 -14.9999 -5.02179 16
183 1 0.135484 8.5671 -8.65859 24
184 1 -13.8385 4.96884 11.0937 12
185 1 0.0932828 8.13162 1.27097 20
186 1 9.61755 12.422 -1.1191 14
187 1 -3.46737 8.34699 15.7267 11
188 1 0.866133 -7.94365 8.4331 19
189 1 -4.7218 5.22426 1.10181 21
190 1 0.754465 19.0439 7.41503 10
191 1 -3.04561 5.94125 9.79945 19
192 1 13.6994 0.646166 15.7398 9
193 1 -7.28805 12.2092 8.13932 18
194 1 12.0229 -1.4517 -7.01642 21
195 1 1.8456 9.67026 17.4777 18
196 1 -3.06623 0.318009 -6.65771 21
197 1 13.9047 -7.46116 5.58851 11
198 1 -4.30344 -5.76183 7.04924 22
199 1 -13.7587 2.24638 8.66844 16
200 1 -6.14947 -7.80348 9.05222 21
201 1 1.85842 1.80417 17.074 19
202 1 -9.50609 5.204 -2.18553 19
203 1 2.03306 -12.6937 5.85324 18
204 1 5.58554 -5.98221 -3.89711 23
205 1 -2.42503 10.4793 6.84025 22
206 1 -6.35841 1.90859 6.29275 21
207 1 7.87731 8.85021 19.0368 13
208 1 -6.00871 0.165748 -1.14355 21
209 1 -4.36528 11.1306 -8.27948 26
210 1 -17.1577 -1.37982 -2.63351 9
211 1 -10.8241 0.0320208 7.51337 20
212 1 3.1262 -10.4933 12.0049 18
213 1 3.2359 -12.9968 11.0586 16
214 1 -10.8626 8.66639 4.57017 16
215 1 14.8688 4.31535 3.57583 21
216 1 8.53476 3.71448 -1.32438 20
217 1 -6.24236 -8.08545 -10.9098 14
218 1 0.572214 -0.12732 14.4552 19
219 1 8.92382 -11.4447 0.350604 16
220 1 -1.45186 5.51263 -8.94144 24
221 1 4.15643 -10.6484 -7.1685 23
222 1 7.52905 -0.7894 -16.0319 12
223 1 5.06439 9.65335 -11.6262 17
224 1 -8.37803 -7.92407 -6.3285 19
225 1 -0.730357 15.6515 -9.81696 10
226 1 -9.75992 -9.3551 11.5034 15
227 1 4.25875 17.9611 -4.39105 11
228 1 -6.12676 -0.854829 18.1497 10
229 1 -0.534435 18.8321 -1.893 9
230 1 8.85229 -0.771881 11.8837 22
231 1 1.30213 -9.5968 -9.00327 22
232 1 -3.21673 8.16566 -3.57545 25
233 1 1.7881 3.67215 -6.63312 25
234 1 -4.36221 -11.9589 5.72383 18
235 1 -7.07369 4.69732 13.8032 19
236 1 -8.30005 6.23761 11.2196 21
237 1 3.87223 -15.5476 -9.48991 14
238 1 -2.47262 -16.2294 0.0710657 12
239 1 10.6483 -10.9316 3.02053 20
240 1 3.92342 -9.23918 1.24495 24
241 1 14.0342 7.47652 16.7105 9
242 1 5.08972 9.16138 -6.27039 21
243 1 1.36519 10.9576 1.5434 21
244 1 -7.83168 2.97865 3.48327 23
245 1 -9.05926 11.3305 -4.07306 16
246 1 2.01853 5.67382 15.1572 24
247 1 8.99524 -15.8877 3.41285 15
248 1 11.8937 -0.608987 0.750206 20
249 1 0.260755 5.80292 9.6647 20
250 1 -6.14419 10.6812 10.8519 19
251 1 -8.22549 1.75573 -1.08618 21
252 1 5.93263 3.27725 -11.5692 16
253 1 3.31298 -0.151053 13.9309 21
254 1 10.8499 6.74656 -6.96929 15
255 1 2.44726 -11.8003 -4.35473 22
256 1 3.76118 -3.37789 -9.26981 23
257 1 2.60535 -14.4102 3.59948 20
258 1 13.7005 1.1536 -1.32842 21
259 1 -7.58859 -6.09042 7.14198 20
260 1 7.91458 -13.4208 2.99114 17
261 1 -10.4717 -1.38751 -2.0542 23
262 1 3.66755 12.5543 -1.49976 21
263 1 1.68622 -4.22789 -12.3382 22
264 1 5.85595 1.92876 14.4754 21
265 1 18.3806 5.87914 4.27359 10
266 1 -2.58553 -5.28139 -1.69118 20
267 1 11.9108 -3.36555 -8.75596 15
268 1 -1.05428 -8.39521 3.64398 24
269 1 -5.05938 -7.636 -6.61583 20
270 1 -7.77042 1.57588 -6.41181 22
271 1 -4.13233 -15.5571 10.73 10
272 1 12.1787 -2.87042 8.66937 17
273 1 5.40951 -2.63258 9.32699 20
274 1 -6.01928 -9.45601 -4.74547 22
275 1 2.46404 -6.65725 6.72704 22
276 1 1.95125 5.58686 -9.09155 24
277 1 4.90954 9.7615 4.46039 21
278 1 -6.3367 -8.61339 5.86127 19
279 1 3.58278 12.322 4.08574 21
280 1 -7.16593 -1.49334 12.3407 19
281 1 -9.54199 -1.17427 -7.56517 12
282 1 -3.44211 -8.17333 -9.11755 20
283 1 -0.044359 6.76311 -15.9058 9
284 1 -4.49216 -12.2665 -3.77096 19
285 1 -2.65724 -9.27072 0.987175 22
286 1 9.34406 0.204275 -12.7323 23
287 1 16.3293 0.979635 -2.82841 12
288 1 12.7526 2.18673 8.79606 20
289 1 -2.51925 -3.345 -4.04861 24
290 1 -7.35637 -3.8638 9.43326 19
291 1 2.24447 -13.004 1.25796 21
292 1 8.77173 3.16522 20.7837 14
293 1 -3.59997 -13.5892 7.98479 22
294 1 4.2549 -11.5446 3.77002 20
295 1 2.16577 17.0495 1.79031 16
296 1 6.99191 -4.2161 -16.2054 12
297 1 -2.88372 -8.12171 -12.269 16
298 1 -7.9243 -8.95159 13.9834 12
299 1 5.9941 5.53314 20.057 18
300 1 1.8458 -13.6779 -1.45374 22
301 1 -1.73299 -14.4391 -6.87831 13
302 1 -6.23083 8.44342 -9.636 24
303 1 10.7011 5.17561 8.45853 23
304 1 -6.51456 2.92814 -8.89738 21
305 1 0.0953113 6.40972 -6.38908 22
306 1 0.0846082 -5.58144 9.45362 21
307 1 9.20971 -12.1925 -8.35789 14
308 1 -1.55457 14.8359 3.7948 20
309 1 1.46814 8.80875 9.35305 20
310 1 12.2493 -0.343897 6.73848 21
311 1 -12.3525 0.0924357 5.23983 20
312 1 0.583413 -8.14293 11.3757 20
313 1 -4.3745 12.7767 8.9672 17
314 1 9.2353 -5.34781 -9.3365 18
315 1 11.5614 11.5938 0.787071 16
316 1 7.388 -8.81436 1.20468 23
317 1 -0.688855 -1.50823 16.9159 14
318 1 -13.5704 -4.3356 10.2476 14
319 1 6.15622 -17.1271 -7.18785 11
320 1 -1.12058 10.5613 16.7661 15
321 1 -9.45509 4.31533 15.6214 13
322 1 -11.8777 -4.37316 13.1386 11
323 1 -10.6659 -5.28736 7.32318 16
324 1 15.5029 -6.504 0.813136 11
325 1 -9.71896 -8.24366 8.50223 19
326 1 12.385 -4.53641 -12.3082 11
327 1 11.7784 -14.8041 -0.840083 11
328 1 2.63791 14.628 -3.7375 22
329 1 -3.63507 12.085 -1.38352 21
330 1 10.3633 8.60243 13.1682 23
331 1 -9.77932 -2.41535 6.50058 20
332 1 5.68488 -8.1671 -1.6384 20
333 1 -3.24794 11.7635 3.64598 22
334 1 -5.00275 4.76531 6.15933 21
335 1 3.97113 -7.68673 11.9685 20
336 1 12.5005 -5.19861 6.32553 20
337 1 -5.59325 6.98466 10.0441 20
338 1 -6.10686 -3.18548 -3.84497 24
339 1 3.28114 3.2216 15.0782 19
340 1 -1.24708 14.3215 9.00501 19
341 1 11.754 4.5066 19.9604 11
342 1 -2.98548 13.6115 -10.0667 15
343 1 2.99227 -8.1192 -14.2032 13
344 1 -4.51471 -0.592792 -3.92083 25
345 1 7.71396 -10.0371 -7.57795 16
346 1 -2.07137 5.22156 16.0368 20
347 1 -13.2113 5.67973 8.40261 16
348 1 -4.28926 -2.60334 -6.51845 21
349 1 -7.83597 10.7497 1.11801 20
350 1 10.6407 -2.87751 6.51636 21
351 1 -7.99232 -11.7904 0.908426 13
352 1 8.60128 -5.49007 12.1228 22
353 1 -8.77331 -12.0593 11.7697 10
354 1 -11.927 8.04785 -0.92279 17
355 1 -0.260761 -6.57366 14.7078 16
356 1 6.4286 -13.1158 -7.32741 20
357 1 -0.600106 -6.92381 -9.37853 22
358 1 8.80918 -3.30869 -12.1732 18
359 1 2.22371 13.7128 7.17836 24
360 1 -7.79965 -0.541888 1.62069 26
361 1 5.99202 -7.8785 -6.66672 22
362 1 10.7319 2.89347 -12.8109 14
363 1 -1.3823 -11.8771 -4.80164 20
364 1 -11.262 -8.34912 -2.18179 12
365 1 0.831781 -11.1901 3.36188 22
366 1 8.97982 6.85167 16.1998 19
367 1 13.9979 1.14312 2.4554 20
368 1 -8.87509 4.3633 -7.39358 19
369 1 1.45679 15.1518 -1.09247 20
370 1 -13.2762 1.97041 -5.02789 16
371 1 -13.6368 8.5516 9.82915 11
372 1 -5.4418 11.7292 6.13556 23
373 1 -7.09347 4.77312 8.59888 21
374 1 13.9479 5.51142 14.5653 14
375 1 15.1773 -3.14165 -3.33848 12
376 1 7.56212 -4.74804 15.1959 18
377 1 10.2359 0.223374 -1.46637 19
378 1 -3.50959 -15.836 -2.76204 10
379 1 -3.38248 8.10538 1.67507 21
380 1 2.39406 -8.11605 -1.68533 23
381 1 -0.0363792 7.63677 6.62193 23
382 1 -6.50061 2.41307 -3.8036 23
383 1 3.46402 -10.8778 -1.31289 23
384 1 10.5619 -0.332923 9.38739 20
385 1 -7.72047 -2.32606 -1.19954 25
386 1 -4.42078 -8.44092 3.39691 21
387 1 -6.43165 -6.24764 14.5551 19
388 1 -0.0641578 14.0138 1.70479 22
389 1 -7.80734 -8.06681 -2.10896 18
390 1 5.26127 7.37909 17.8193 18
391 1 -10.3829 9.60733 -6.81214 11
392 1 0.312353 12.4628 -5.70359 22
393 1 3.1123 11.8317 9.05383 22
394 1 -9.72157 -8.69734 0.622877 16
395 1 -2.97979 -9.10205 -4.28774 21
396 1 -14.0598 2.77507 5.58237 16
397 1 -11.7874 9.99052 -3.61871 10
398 1 4.30432 -9.97554 9.56412 19
399 1 -6.0802 -8.87277 0.762107 20
400 1 13.6148 8.74148 13.1526 20
401 1 8.17503 5.20064 -12.92 12
402 1 -9.1016 6.55843 -12.6555 10
403 1 -0.671752 15.2889 -6.60799 18
404 1 -6.69918 8.79743 -3.52301 18
405 1 0.402061 -13.4727 8.70595 19
406 1 14.3257 2.98947 6.00002 19
407 1 2.67785 8.29319 -13.6492 14
408 1 -4.24094 -1.41898 12.5153 21
409 1 -13.1299 2.50412 0.012698 21
410 1 -11.1236 7.23713 10.4713 19
411 1 -6.14985 -14.552 5.56125 20
412 1 3.71225 -3.14361 -4.14038 22
413 1 9.10286 -5.0385 -3.95967 19
414 1 -1.35847 -3.17432 8.75749 20
415 1 -11.4867 2.78797 3.78685 21
416 1 -10.6358 -2.12418 14.733 12
417 1 -13.5226 8.90673 6.08814 11
418 1 2.21287 -3.02624 9.0555 20
419 1 -7.76033 3.45004 -12.4905 14
420 1 10.7252 -12.2956 -2.56927 16
421 1 1.26537 -8.09527 -11.9196 20
422 1 2.1752 -1.11404 11.2671 21
423 1 3.96527 -9.00147 -4.16557 23
424 1 -8.04812 0.284184 -12.7619 13
425 1 7.30773 -10.9308 4.11344 24
426 1 2.32235 11.1282 -3.58021 24
427 1 -11.2658 11.4817 5.54817 14
428 1 -2.51713 -2.4241 15.1317 18
429 1 -8.31196 -6.60021 -9.08091 14
430 1 -7.84829 -6.4841 10.8351 20
431 1 10.563 -5.93875 14.331 15
432 1 12.1955 5.60572 5.55093 22
433 1 2.16378 -2.13641 -6.77524 23
434 1 10.0293 -8.16576 11.4265 16
435 1 13.8004 6.27291 -1.24569 21
436 1 -3.4665 1.30804 11.3076 20
437 1 5.03722 11.4102 1.30072 20
438 1 7.27939 -5.48275 9.02201 21
439 1 4.94927 -17.4162 -4.10835 10
440 1 3.23114 0.243119 19.6017 11
441 1 0.510358 15.2815 13.019 11
442 1 -9.20437 -10.6114 -6.87984 11
443 1 10.3834 11.5296 3.66971 15
444 1 1.50073 10.7609 14.5805 23
445 1 -5.75423 4.57083 16.7986 15
446 1 -6.08629 -5.29939 -1.48646 21
447 1 -15.4437 -0.500362 6.5741 14
448 1 -7.61958 -6.07367 -4.25763 22
449 1 -8.93548 10.2667 6.97977 22
450 1 -2.77262 -11.3417 -1.44537 19
451 1 -4.47938 -11.0246 -10.0889 14
452 1 -0.629684 -14.4511 2.82661 20
453 1 -4.00703 -5.33549 9.86261 22
454 1 7.3759 0.230996 9.1454 21
455 1 -8.91279 -0.707461 9.74007 20
456 1 -6.80889 9.13248 -13.0259 9
457 1 10.2433 2.6582 0.933155 23
458 1 -0.737954 -12.331 0.810276 19
459 1 2.07498 5.57073 -3.95008 24
460 1 1.42375 18.0129 4.73196 14
461 1 -1.26598 5.63729 -3.98452 24
462 1 1.10539 7.71779 12.5051 22
463 1 -15.5137 -2.90347 -3.95454e-04 15
464 1 1.26743 17.6097 -6.51768 12
465 1 8.48023 8.93577 -6.52589 16
466 1 -6.96111 -9.62727 -8.78968 14
467 1 2.87812 -0.955959 16.844 20
468 1 0.647524 -15.437 -8.72943 12
469 1 0.488107 -3.85119 -9.63922 23
470 1 10.2855 -12.9891 5.34688 13
471 1 -13.0733 7.51049 2.27544 13
472 1 5.05028 1.27571 17.1503 23
473 1 10.1652 8.93538 1.18953 19
474 1 3.56683 8.51329 1.20717 20
475 1 -7.85152 5.52845 -10.0138 20
476 1 5.08448 -0.329124 -3.90008 24
477 1 5.61011 -8.09339 3.93219 23
478 1 -15.6483 -0.0794214 0.0583248 14
479 1 0.294682 16.7912 10.0747 10
480 1 -3.24658 2.446 -9.21809 22
481 1 10.1092 6.77221 3.43867 16
482 1 5.68561 14.5506 -4.92525 15
483 1 7.32305 -3.01329 1.15427 22
484 1 16.8999 5.23216 -0.797016 13
485 1 0.183831 1.32537 -12.7537 16
486 1 2.52155 -8.36669 3.613 19
487 1 0.521273 -13.0902 12.5955 13
488 1 5.4424 -9.55427 13.9057 16
489 1 -4.81359 5.5576 -9.18883 21
490 1 -9.08525 -13.8598 7.24671 13
491 1 -1.29024 -12.4574 -9.02656 15
492 1 8.34688 12.06 6.39043 15
493 1 3.68527 3.00134 -9.42919 23
494 1 4.81701 -3.75802 16.8084 17
495 1 -11.8876 -1.17007 11.2711 14
496 1 1.25578 -16.1877 0.964418 19
497 1 -15.6691 -3.16211 3.92485 13
498 1 13.2902 -3.59431 -5.44169 13
499 1 12.4396 -2.17493 -1.74122 19
500 1 -5.05064 8.90465 -0.948912 22
501 1 1.59601 -12.6332 -10.0285 15
502 1 5.25145 3.668 -6.66066 20
503 1 8.65147 -1.7814 -7.40768 20
504 1 -2.88876 0.280994 19.4097 11
505 1 4.9086 16.8211 0.935594 16
506 1 -4.5943 -5.02502 -12.2432 14
507 1 4.61839 -0.0480223 -14.6072 13
508 1 -6.00402 0.605344 10.2028 22
509 1 -1.53933 18.514 4.62786 10
510 1 -7.31221 -4.98218 -11.5149 15
511 1 -13.4902 1.27462 2.40521 20
512 1 2.76071 -6.22765 -9.53814 22
513 1 -1.52067 -6.5833 11.8419 20
514 1 0.267347 8.35343 -3.82301 22
515 1 15.6045 0.660182 7.26238 15
516 1 16.2521 6.62502 1.94268 15
517 1 -4.47379 -11.5885 1.46944 21
518 1 0.885468 -9.45901 0.946695 21
519 1 -2.91402 -6.29468 -14.6095 9
520 1 -8.411 9.02065 9.54749 21
521 1 5.99131 -6.14669 -9.66117 20
522 1 3.78446 6.64875 -1.33039 23
523 1 10.5837 0.53645 3.27128 18
524 1 3.12695 12.4646 -6.34978 24
525 1 5.71858 -6.19429 1.17824 24
526 1 11.6643 0.924758 -4.91996 18
527 1 4.61075 11.1772 14.1202 19
528 1 -6.88235 1.47029 13.1971 21
529 1 6.98532 9.24339 11.9382 23
530 1 10.4822 -4.382 17.3803 11
531 1 -1.71501 -0.844598 -14.6627 11
532 1 -4.57223 -5.96817 -4.33364 23
533 1 -1.18141 -0.937992 11.8941 25
534 1 5.71713 11.7113 11.1874 22
535 1 8.54784 7.30421 -9.04148 13
536 1 -6.21981 13.6869 -9.22243 14
537 1 0.0790151 12.2147 -1.07142 21
538 1 5.48793 -6.84289 15.4334 14
539 1 13.3213 3.51302 -11.0231 14
540 1 9.27726 -7.68844 -2.04018 16
541 1 17.093 8.50276 12.1828 9
542 1 -13.7145 -6.02072 4.92391 11
543 1 -1.73081 10.4003 -10.4771 18
544 1 0.341231 1.80049 11.8422 18
545 1 -10.7318 1.29815 15.7319 12
546 1 -3.43946 15.3572 -7.23926 16
547 1 6.06764 -12.023 1.28142 22
548 1 6.893 0.8379 -7.31813 21
549 1 -3.4932 17.6387 -1.80183 11
550 1 -10.2005 -5.43889 -6.00751 13
551 1 5.24431 -14.7657 8.99188 10
552 1 -12.7948 -3.96474 -1.24862 19
553 1 1.45861 11.2289 -8.84351 23
554 1 -6.35244 6.12808 -6.4534 21
555 1 2.74281 8.75954 20.9773 14
556 1 -6.3947 -10.2088 11.5064 21
557 1 9.00607 5.67442 -3.90253 20
558 1 3.05061 -13.5759 -7.41605 22
559 1 5.73266 -4.9182 11.6488 23
560 1 7.11432 2.52896 -4.34413 19
561 1 -6.61137 8.0788 1.71338 20
562 1 11.517 1.76343 19.0267 10
563 1 3.75375 15.7363 -6.83265 12
564 1 11.1996 -5.0044 -1.69699 22
565 1 6.39142 11.1907 17.3088 13
566 1 -2.25869 3.90587 -11.5141 21
567 1 -4.91201 -10.3494 14.3668 14
568 1 0.352055 0.696751 -7.34409 20
569 1 4.63844 -2.37074 -16.2747 11
570 1 4.88279 14.3153 9.04107 17
571 1 11.525 3.89765 -8.50079 18
572 1 -1.37091 -5.56293 -12.006 23
573 1 -4.09872 -8.14228 -1.72695 21
574 1 -6.8523 -5.0611 -7.00872 19
575 1 12.3896 3.25207 3.67302 19
576 1 12.3188 8.73757 -0.834622 21
577 1 7.47636 -4.73603 -6.98467 23
578 1 16.786 4.90162 12.6227 14
579 1 6.99381 -9.17704 -4.37268 18
580 1 5.59319 6.91418 -13.8783 11
581 1 6.97185 12.4287 3.59327 16
582 1 -8.38945 4.71467 5.87017 19
583 1 11.1996 7.84354 18.9713 11
584 1 10.3558 6.03522 -0.691329 22
585 1 15.9905 0.929962 4.75582 14
586 1 15.2337 6.75808 -3.74621 13
587 1 11.611 2.64406 13.8607 25
588 1 14.7635 2.62669 13.7666 14
589 1 0.939382 -3.05991 12.8985 18
590 1 12.1728 14.258 -0.742212 11
591 1 6.17127 -1.19689 15.4814 21
592 1 11.7492 3.56604 -2.37337 22
593 1 8.72291 3.23009 9.0039 20
594 1 -6.6631 -1.22168 -6.46017 23
595 1 13.3355 3.57826 0.416781 18
596 1 8.92985 -2.14652 3.84283 23
597 1 -11.9039 6.4507 14.0986 11
598 1 8.88537 11.1292 14.5633 15
599 1 13.1072 3.83894 16.6203 15
600 1 6.93272 13.6772 15.1136 12
601 1 1.23218 12.7566 17.654 11
602 1 5.36089 3.03131 9.17088 22
603 1 -2.35369 -14.4412 5.88757 22
604 1 -5.26305 11.3933 -4.46143 23
605 1 13.6597 6.03535 -9.40982 11
606 1 10.7201 0.281848 -15.0911 11
607 1 3.30818 13.8842 1.34826 22
608 1 -0.998285 -8.16501 -6.64441 21
609 1 11.6075 -1.81742 -12.4806 16
610 1 -11.4342 3.32208 6.71412 21
611 1 -3.12888 8.22423 -8.66505 22
612 1 -1.75188 -17.8799 5.72032 10
613 1 -4.73628 -0.0308334 -9.01589 22
614 1 -6.65061 5.9859 -2.26986 20
615 1 10.2311 -5.48459 9.3395 22
616 1 13.6043 11.4988 4.61902 10
617 1 6.2155 -9.16691 7.18572 18
618 1 -8.00589 -0.213242 -3.69311 23
619 1 1.5182 -1.93885 -14.3856 17
620 1 2.58361 3.87822 20.5662 16
621 1 8.17739 8.28053 -12.0674 10
622 1 12.4465 -2.12218 17.4133 9
623 1 9.76032 2.97488 -5.86025 19
624 1 14.3553 11.6005 8.0521 14
625 1 5.22893 -12.2577 -4.07494 20
626 1 -8.22594 -3.87 14.7422 17
627 1 14.4552 -2.2875 5.3966 15
628 1 0.603182 4.51822 17.8949 18
629 1 6.17714 12.8228 -7.03536 15
630 1 -7.41509 13.6805 -3.62838 13
631 1 13.1026 7.94693 7.58691 21
632 1 -3.94588 -14.0756 3.00807 20
633 1 13.7 -4.66133 3.1162 20
634 1 4.06257 15.9142 4.02143 16
635 1 -1.90287 3.27123 12.771 20
636 1 -11.0914 -5.63348 0.295866 14
637 1 -6.87045 -2.95675 -8.96618 21
638 1 11.2928 -0.333157 14.0113 20
639 1 -1.71208 -9.36642 15.3705 11
640 1 10.3821 3.57844 16.8978 18
641 1 -2.71994 13.4363 6.30278 24
642 1 9.68066 8.03561 10.5236 22
643 1 8.57677 5.33641 6.17783 22
644 1 2.11103 -0.252741 -9.32956 23
645 1 -12.931 -2.86255 7.26376 18
646 1 6.80448 1.95032 -13.6498 16
647 1 -0.959377 -6.28205 -4.30425 22
648 1 10.6882 -10.9923 -4.93007 14
649 1 8.42892 3.91019 14.444 23
650 1 4.92298 5.12079 6.85421 22
651 1 -4.58667 -4.92763 16.9338 9
652 1 7.63037 6.59993 13.169 19
653 1 5.7598 -1.69331 18.7483 15
654 1 0.00122994 8.06642 15.4218 21
655 1 4.25759 -7.32339 -12.1838 22
656 1 -4.3729 2.89131 14.806 20
657 1 5.65126 5.3139 15.3154 21
658 1 -6.84973 -16.2819 8.50999 9
659 1 12.2996 6.19074 1.81641 19
660 1 9.11846 -7.4371 -6.17057 20
661 1 -2.69738 2.34115 -4.0369 22
662 1 8.82078 9.21488 -1.37957 18
663 1 11.499 10.8872 6.94966 14
664 1 3.39398 -1.85337 -11.9677 19
665 1 -4.66772 3.06728 8.91239 20
666 1 5.2807 11.3725 -4.39815 20
667 1 13.0928 8.24666 4.36384 20
668 1 -4.32619 -6.25028 1.07946 22
669 1 -0.267984 -3.89321 -15.2312 13
670 1 -8.33877 13.6771 -0.148077 12
671 1 10.9966 -5.39486 -6.84182 17
672 1 6.96114 6.37224 4.19233 21
673 1 15.8231 3.50609 -8.83299 7
674 1 6.46975 14.0269 0.144441 19
675 1 -3.56759 7.14518 7.15889 21
676 1 -6.65146 6.1721 3.74645 18
677 1 7.2554 6.26006 -6.52317 19
678 1 10.3873 -0.362088 17.0006 15
679 1 11.9296 -3.66627 14.6417 16
680 1 0.177871 -10.0761 13.1489 18
681 1 0.456794 6.7366 -11.4756 21
682 1 6.16717 14.2109 12.3874 12
683 1 11.858 -6.67589 -9.74981 14
684 1 3.91084 1.74856 11.8031 21
685 1 7.16829 8.60775 -3.71946 21
686 1 7.49121 9.8256 8.83508 18
687 1 15.5333 -8.55283 -2.232 9
688 1 7.24456 4.09962 17.3105 23
689 1 -10.1802 -1.64065 3.3792 17
690 1 4.52969 -15.0749 1.255 24
691 1 0.503764 -3.21589 -4.3477 21
692 1 -6.67971 13.2905 2.80568 18
693 1 -2.68124 -0.160137 9.29286 21
694 1 3.73601 -5.25873 -1.48427 23
695 1 5.30247 11.9726 6.87604 18
696 1 -13.3107 -0.53261 -1.76845 22
697 1 3.95854 4.52442 17.627 23
698 1 -3.32469 5.69622 -15.3106 10
699 1 -1.18971 7.21313 -13.2384 16
700 1 3.49589 -17.3566 2.7043 13
701 1 10.5683 9.52932 -4.6677 16
702 1 5.67642 -6.22477 6.16917 19
703 1 -3.05369 5.91658 4.22859 22
704 1 -12.1163 3.55133 13.3521 13
705 1 5.44732 -3.94606 -12.279 20
706 1 5.46835 -12.1829 6.8063 16
707 1 1.57267 14.8985 4.14741 20
708 1 -3.37842 2.86327 17.5496 16
709 1 -9.11729 -2.84222 -4.23284 21
710 1 -1.17769 -10.1012 -10.9199 17
711 1 -5.1093 -14.6262 -5.74692 8
712 1 -0.219088 14.0809 -3.19788 18
713 1 4.18963 -5.2644 -6.61526 24
714 1 -0.0388514 11.9424 8.03292 21
715 1 10.7606 -9.01873 0.908565 20
716 1 11.7384 -14.7309 2.89878 11
717 1 3.84882 -6.03889 9.13895 21
718 1 15.0302 2.16222 -5.61279 14
719 1 4.89108 -13.4313 -1.02659 20
720 1 -11.3564 1.70667 10.1611 17
721 1 1.05311 -16.8065 4.62975 12
722 1 -7.73922 -12.2759 -4.53251 11
723 1 -10.0928 0.407354 12.9761 19
724 1 -2.36883 -16.8024 3.14878 13
725 1 15.0302 3.83434 -2.67446 18
726 1 -2.59696 14.6476 12.0325 10
727 1 -8.64056 2.32289 8.42597 20
728 1 -7.19449 7.40949 7.02304 21
729 1 8.99249 -0.237027 6.32783 20
730 1 -14.9103 -1.13359 -4.37668 12
731 1 -1.63508 9.05773 -1.24918 20
732 1 8.22075 1.15777 -10.2128 18
733 1 11.7746 8.78167 15.9015 14
734 1 13.4746 8.09731 -6.36173 13
735 1 -8.2264 6.50241 -4.88171 16
736 1 -12.2701 -5.70753 -3.7097 14
737 1 0.351776 6.10468 21.011 13
738 1 5.29288 5.66278 -8.98735 20
739 1 15.0176 10.8642 11.2272 13
740 1 -5.89623 3.88837 11.3483 21
741 1 0.347656 -16.7119 -2.18489 11
742 1 -4.36699 -16.96 7.7121 14
743 1 -2.71735 -7.63017 8.58996 22
744 1 17.9138 5.73496 10.2341 10
745 1 2.28563 -5.97132 -4.2714 23
746 1 -5.04015 10.9504 1.40751 23
747 1 6.4729 8.48349 0.658021 19
748 1 -9.13075 -4.92922 4.61038 21
749 1 10.2453 5.494 -10.7542 14
750 1 2.99431 -17.166 -6.74935 12
751 1 6.0959 -17.4573 1.59241 13
752 1 9.8109 -17.2285 0.99705 10
753 1 7.86772 3.88787 -8.6928 19
754 1 2.77448 18.5756 -0.991417 10
755 1 -5.16974 2.28634 -11.2598 18
756 1 -2.41512 0.542572 14.612 19
757 1 1.30242 3.73264 -11.8315 21
758 1 -9.38257 -2.42337 -10.7764 11
759 1 -15.4995 1.78666 -2.53484 11
760 1 1.3721 14.2642 -8.20544 20
761 1 10.6515 2.78305 6.34209 21
762 1 -5.04588 -5.16055 -9.55197 22
763 1 -6.07027 -5.22949 3.89639 23
764 1 12.6848 4.33335 -5.09977 17
765 1 12.1057 -6.27411 0.49908 22
766 1 -6.33515 8.26719 13.3588 15
767 1 8.56385 -10.874 6.91618 16
768 1 13.7533 -3.81167 -0.00619885 21
769 1 13.3818 -5.91401 12.2434 9
770 1 2.12749 10.473 6.48339 19
771 1 -5.59078 1.76874 19.3252 9
772 1 -3.79883 6.03941 13.6361 19
773 1 -2.67084 -13.2719 11.1235 17
774 1 8.79177 3.35158 3.73711 22
775 1 6.72387 8.85289 15.4356 18
776 1 -11.0015 -0.0475038 0.66653 20
777 1 8.85957 -6.0766 1.10094 22
778 1 -5.73931 13.8362 -6.83052 17
779 1 3.33233 7.72538 6.85109 24
780 1 2.1146 -15.8608 10.1829 9
781 1 8.96859 1.07582 14.5204 20
782 1 -0.0681561 15.8642 7.07833 23
783 1 1.27122 -10.7922 8.98662 18
784 1 -10.1021 2.46729 1.39542 21
785 1 7.3416 6.60268 8.51809 17
786 1 -15.4853 -4.38524 -3.18315 10
787 1 3.94274 11.1235 19.0569 12
788 1 7.35714 15.6136 3.11335 13
789 1 -11.2639 -11.216 6.18038 11
790 1 -1.58538 -15.6844 8.44633 14
791 1 8.66769 -2.75452 9.36944 23
792 1 12.6133 -7.37189 8.97345 12
793 1 4.63317 8.66693 9.71152 21
794 1 -1.6257 11.0188 1.33669 18
795 1 0.814144 -9.00758 -4.51006 22
796 1 -1.17996 -0.350541 -9.64514 20
797 1 -5.02502 0.302535 15.5434 19
798 1 -2.88876 16.643 6.33184 14
799 1 14.2911 -0.677237 9.71728 15
800 1 3.47267 8.40832 -3.78902 23
801 1 -2.55985 6.14834 18.9589 11
802 1 9.73835 4.81485 11.5417 20
803 1 9.55273 -2.04017 -9.93218 22
804 1 -6.48614 -10.9398 3.9883 21
805 1 -2.42145 -3.60773 -9.53225 19
806 1 15.9806 2.20591 10.1548 12
807 1 4.94925 -0.279772 -9.53639 20
808 1 -1.28866 3.2991 19.8914 12
809 1 12.0991 -12.0988 0.518441 17
810 1 2.08032 5.46452 -14.2179 16
811 1 -0.855267 -8.21857 -1.57195 21
812 1 13.6944 1.00463 -8.06167 16
813 1 14.8194 -1.47763 2.41432 18
814 1 2.09006 -4.9716 11.2855 21
815 1 -3.07658 -10.8217 -7.15317 20
816 1 11.1553 15.7476 2.18102 6
817 1 -0.972923 -6.41625 6.51457 23
818 1 -12.6779 5.72089 5.36854 18
819 1 15.8879 2.06015 0.0330892 19
820 1 14.0409 9.18313 1.32013 15
821 1 5.19984 -6.38523 -15.2581 13
822 1 -5.82641 13.1727 12.8307 6
823 1 17.3476 7.14202 7.40058 14
824 1 11.9097 12.0761 -3.19903 11
825 1 3.79893 1.4083 -12.0479 19
826 1 10.6579 -3.20699 0.979531 25
827 1 -8.06 5.09857 0.795257 20
828 1 15.5569 6.45817 5.50728 18
829 1 -14.2591 -5.26204 1.61057 13
830 1 -4.8342 10.8314 -11.041 14
831 1 7.32088 2.14724 11.804 20
832 1 -11.3029 0.0723144 -4.75392 20
833 1 -9.31963 3.25683 11.779 19
834 1 -1.59097 3.40961 -6.61091 21
835 1 12.4936 -6.54361 -4.54766 14
836 1 -9.50726 -9.72497 -3.94379 14
837 1 14.0741 -9.40719 0.467162 15
838 1 -14.2509 5.82275 -0.0826471 13
839 1 -9.64586 -3.16667 1.26098 20
840 1 15.0865 7.60476 10.4206 21
841 1 -2.63377 -10.0495 12.3594 22
842 1 8.9043 -2.18935 18.7071 14
843 1 14.1479 -4.97305 9.53461 10
844 1 10.4613 -4.8923 3.43026 20
845 1 -10.5715 7.24667 7.18131 21
846 1 9.13717 10.8582 11.2331 22
847 1 3.33434 6.59965 -6.49936 21
848 1 -0.475326 -9.02456 -14.2639 10
849 1 -0.604764 12.6006 14.1872 14
850 1 -10.0197 -11.6763 8.80725 15
851 1 6.37412 12.9717 -2.57521 16
852 1 4.43433 13.8283 17.7972 9
853 1 10.5595 -2.85198 -4.54979 21
854 1 6.74894 -7.88337 10.5951 21
855 1 -1.41275 11.9 -7.72098 20
856 1 1.8631 9.6038 -6.38512 22
857 1 -1.95814 -3.99914 12.2742 20
858 1 17.5125 3.84291 5.80056 14
859 1 2.32906 -8.12789 -6.74909 26
860 1 9.1417 13.8516 1.77178 16
861 1 -11.503 6.73115 -3.73945 15
862 1 -2.13367 -12.6369 14.0625 14
863 1 6.56112 9.83248 -8.85866 14
864 1 5.75232 -0.815756 11.6686 20
865 1 3.48983 -16.908 -0.937338 17
866 1 -6.04569 14.8646 6.60757 15
867 1 -13.1721 4.53496 -2.61343 20
868 1 11.6931 0.925782 -10.5488 22
869 1 4.62568 -12.5586 -10.2751 15
870 1 -10.0784 5.3501 3.11214 20
871 1 14.1206 11.4343 -1.01244 12
872 1 -4.58129 -2.82257 8.96414 21
873 1 9.80498 -2.93148 -15.0092 14
874 1 -11.6586 -8.52065 -5.44968 10
875 1 0.289719 -11.0646 -2.27867 21
876 1 -0.6006 8.97248 19.6958 10