ITEM: TIMESTEP
25000
ITEM: NUMBER OF ATOMS
2000
ITEM: BOX BOUNDS pp pp pp
-30.0 30.0
-30.0 30.0
-30.0 30.0
ITEM: ATOMS id type x y z Coordination
1 1 -4.97843 1.63688 -14.0431 19
2 1 -0.705984 -12.9089 -11.5754 21
3 1 1.49621 11.9246 10.8344 14
4 1 14.3063 -11.8112 2.82263 14
5 1 -9.53425 4.15589 -4.44246 22
6 1 12.1022 -13.219 -14.7625 11
7 1 -9.15005 -0.711087 -10.6841 19
8 1 3.0808 -11.7923 6.66413 19
9 1 -5.03306 -3.50612 -13.2536 22
10 1 -7.65373 -14.3661 4.40243 12
11 1 17.4105 -1.01476 -10.8388 14
12 1 -0.848668 -13.2252 1.26397 16
13 1 -6.83282 -12.6918 1.37057 15
14 1 5.03643 -0.316879 14.8846 14
15 1 2.85497 1.55178 8.05319 20
16 1 -0.209869 7.20889 -13.2832 20
17 1 5.68157 -5.07786 11.3045 12
18 1 -5.79855 -1.4769 -15.2101 15
19 1 -7.51828 -8.19324 3.35785 18
20 1 17.7299 1.61857 6.93852 13
21 1 5.41879 9.2586 -11.8631 17
22 1 9.9037 -1.9831 -15.1105 17
23 1 15.972 3.52621 9.18305 11
24 1 -11.3836 1.53826 -10.6521 13
25 1 -5.83949 10.358 6.51447 12
26 1 9.31179 -13.9629 0.858806 21
27 1 7.10957 -16.4156 -14.6007 12
28 1 13.9398 -12.078 -0.293216 15
29 1 -7.74966 -14.0674 -9.63675 10
30 1 -10.0638 -7.13128 8.31377 11
31 1 2.52167 -9.15765 -15.3948 22
32 1 9.18494 -10.3688 -14.7238 20
33 1 2.43769 2.31233 -18.404 19
34 1 2.86022 1.65675 11.3128 19
35 1 3.59614 -14.5259 4.40325 20
36 1 7.00223 -8.12631 9.61127 15
37 1 -8.45627 -3.16219 -1.45012 22
38 1 -10.1072 -8.97415 4.24116 18
39 1 -0.471636 10.1685 -5.37553 19
40 1 3.61707 -17.2605 -13.8934 10
41 1 8.3945 -9.89708 -11.6504 20
42 1 -0.752921 -6.79653 11.1754 24
43 1 -8.65353 4.54966 -0.966112 23
44 1 6.31907 9.14664 -15.7284 10
45 1 2.50542 6.74912 11.7187 14
46 1 -3.0189 4.64679 -10.569 18
47 1 2.44144 10.4482 -3.62164 19
48 1 5.38883 -11.1192 1.33703 24
49 1 8.54446 -11.3008 -6.80493 23
50 1 5.25217 -4.42333 -20.0765 17
51 1 -4.73481 4.05888 9.47031 19
52 1 -9.22547 -6.16318 -10.3337 20
53 1 -3.73496 4.80955 -7.36337 23
54 1 -5.13791 -9.92234 2.95483 20
55 1 -0.15022 13.741 9.12613 12
56 1 -8.20482 1.98634 -9.12872 19
57 1 -3.76803 8.36289 11.4675 12
58 1 2.05347 -16.826 3.12595 22
59 1 6.44751 -17.9572 -11.5156 12
60 1 4.76582 10.9224 11.0909 12
61 1 -11.9921 -1.37872 -12.4343 10
62 1 -11.6043 5.0287 -9.58399 11
63 1 7.94717 4.8678 9.63172 20
64 1 17.3316 -6.70164 -11.4848 12
65 1 11.5359 -11.9141 1.67972 19
66 1 -11.0679 -8.34729 1.46238 14
67 1 5.93039 12.4549 2.78761 14
68 1 8.88888 -5.66104 10.6665 17
69 1 -0.833193 -17.7788 4.28317 17
70 1 18.9554 3.55727 5.35467 11
71 1 -0.14551 10.4177 8.45562 21
72 1 0.171363 -9.85658 -10.1252 25
73 1 -5.59836 8.054 7.88487 11
74 1 -6.13447 9.36756 -2.64059 21
75 1 2.4175 5.06724 -9.98239 21
76 1 13.6196 3.66727 -3.03431 22
77 1 5.6173 -13.7788 7.03453 11
78 1 0.348091 12.4466 -3.88321 20
79 1 -7.02145 10.2841 3.6831 13
80 1 -2.78549 -9.33887 14.558 7
81 1 0.058496 6.69551 3.29994 18
82 1 -2.67909 -9.80162 8.35933 21
83 1 11.9628 -13.1221 -6.76376 22
84 1 -5.34629 1.80198 2.73691 22
85 1 -3.81442 -18.0131 2.51996 10
86 1 10.4102 -11.7177 -9.08656 19
87 1 13.5883 -7.29134 -15.7891 13
88 1 -2.03809 -0.80089 -16.5075 19
89 1 1.92566 10.2087 -0.406547 21
90 1 -5.22933 2.44325 -10.7006 19
91 1 1.2041 7.53269 17.2292 8
92 1 2.55648 10.0593 -10.0857 20
93 1 -12.2959 9.79192 -3.62061 8
94 1 -2.57047 -9.29329 4.81395 19
95 1 14.7505 -3.82948 11.7793 10
96 1 9.74163 -7.60562 -16.777 18
97 1 8.37967 -1.64193 15.397 12
98 1 -5.81394 -9.12925 -3.40255 18
99 1 -5.94175 -9.25959 -6.85515 20
100 1 13.1067 -14.9478 1.62944 13
101 1 11.2421 1.23084 -12.549 20
102 1 11.5237 7.91614 -5.76128 22
103 1 -4.14149 -15.5858 9.37132 11
104 1 -10.0753 -10.6855 8.80419 12
105 1 4.87077 -7.49375 -20.0768 12
106 1 13.8205 -12.3697 -3.42832 14
107 1 3.21965 -20.9166 4.91933 10
108 1 -6.21017 -11.9205 -1.85407 16
109 1 16.3577 7.46612 7.38732 12
110 1 17.3625 -9.06828 -10.3733 12
111 1 -10.6072 -11.2369 2.23582 12
112 1 13.5377 4.83271 3.55073 20
113 1 16.685 10.0272 -1.0163 12
114 1 -3.72706 2.41873 13.8078 11
115 1 -3.21245 6.49743 8.75745 18
116 1 -2.86882 11.582 -6.1933 15
117 1 2.75377 -9.1239 -12.04 22
118 1 7.45675 -12.6078 -13.8638 17
119 1 6.32164 12.6186 -12.453 11
120 1 11.5189 -5.47244 9.17658 19
121 1 2.43299 -0.866423 -20.5231 16
122 1 0.307639 6.86146 -10.3528 20
123 1 13.7602 -1.86163 -6.73501 17
124 1 -5.59556 6.88989 -7.61068 21
125 1 -3.26689 9.39224 -3.86799 23
126 1 10.9663 -1.31767 -11.0433 21
127 1 11.9112 -8.77108 3.67567 20
128 1 -1.61502 11.9625 3.70987 16
129 1 18.8873 4.87457 -10.884 11
130 1 5.45391 9.78503 -4.99609 20
131 1 -0.682102 15.0219 -2.59817 10
132 1 17.3435 2.60449 -5.92334 19
133 1 0.790633 7.47906 -7.23793 18
134 1 3.82131 13.6272 -11.197 11
135 1 8.52721 6.00286 -15.6041 16
136 1 -5.29326 -15.2972 2.87433 14
137 1 -11.1888 5.6563 -2.70313 15
138 1 -2.78104 -3.89158 -15.0949 21
139 1 2.10338 -6.88552 -20.2932 12
140 1 14.2505 8.19176 4.85558 18
141 1 3.25729 13.1081 0.988679 16
142 1 -9.47414 -5.99307 -7.21334 19
143 1 -9.07076 9.43144 -4.60585 17
144 1 18.6083 -1.97922 -4.20359 13
145 1 -7.96688 0.537784 -15.8307 8
146 1 11.6227 2.85825 14.0062 16
147 1 6.04916 12.6722 -0.539647 17
148 1 -0.602663 6.61394 6.66768 18
149 1 -0.191074 -5.53229 -20.5222 14
150 1 2.23282 9.5366 6.5733 17
151 1 -0.697971 9.99295 -8.23926 17
152 1 5.12143 -6.29863 8.34275 18
153 1 -8.55265 -8.96364 -1.89578 19
154 1 5.64514 -11.2731 -19.3354 9
155 1 -5.35712 6.60442 -10.5948 20
156 1 2.2791 -11.5793 3.48159 20
157 1 5.93645 -15.3992 -6.58335 18
158 1 0.24506 7.07981 -16.8302 14
159 1 -11.8455 0.890227 5.19129 13
160 1 17.0593 3.61254 -8.58994 18
161 1 -1.21204 7.29981 14.3571 10
162 1 3.09702 -15.2124 7.83881 12
163 1 3.16456 12.7427 -2.07713 22
164 1 1.27799 4.4873 6.65585 22
165 1 16.6856 3.91586 12.0808 10
166 1 -6.47984 9.16512 0.695254 20
167 1 15.9776 -12.4881 -9.53261 10
168 1 -1.94237 14.5979 6.25399 9
169 1 14.752 -8.7757 1.95108 19
170 1 -12.5634 -2.6865 4.07427 11
171 1 -4.13656 -14.4574 0.496349 19
172 1 7.38731 4.73491 13.2771 20
173 1 -12.2984 -1.17047 -5.77724 12
174 1 0.423876 -14.7652 -2.783 20
175 1 2.73143 7.52974 1.66338 23
176 1 6.04138 12.9402 8.72422 8
177 1 -4.65771 10.2574 -11.4507 12
178 1 -12.3005 -6.7186 -8.03011 12
179 1 -5.87302 -9.09276 9.63884 19
180 1 3.53959 -14.2489 1.73865 21
181 1 10.436 -14.4678 3.54921 14
182 1 -9.93467 9.1351 -1.13597 15
183 1 18.219 2.65431 2.38365 14
184 1 -4.60971 -8.24692 -18.3479 10
185 1 7.61682 -0.642881 9.90408 22
186 1 11.1693 -17.1193 -3.38552 13
187 1 2.94697 2.73786 -15.0438 19
188 1 5.196 -7.32703 -15.3992 18
189 1 14.5739 -5.22112 -15.0398 11
190 1 7.89443 3.15656 -17.2628 14
191 1 -3.54561 -6.11625 -10.4784 22
192 1 -4.81373 9.63825 -9.08039 17
193 1 -6.0274 -11.613 8.34314 21
194 1 11.4482 11.2542 -5.95184 14
195 1 -2.663 -3.49309 14.2865 12
196 1 -8.88578 11.7011 -6.33171 11
197 1 10.5491 -0.493148 8.55315 20
198 1 -1.8207 -8.82948 -19.9906 9
199 1 -2.83243 7.52108 -9.2093 19
200 1 5.49709 4.11404 -11.7473 22
201 1 -2.2968 -13.1641 8.80128 18
202 1 -8.71767 1.83893 4.47059 24
203 1 -4.01541 4.48413 6.32873 20
204 1 2.63792 -11.6255 -7.10969 21
205 1 -6.47332 -18.1134 -3.79795 7
206 1 13.2738 -16.2926 -8.96474 10
207 1 11.3701 8.40263 13.77 16
208 1 13.5372 4.51011 -9.56159 17
209 1 2.7961 14.1903 -7.53152 16
210 1 -9.52517 -0.831745 -0.140418 18
211 1 -10.8673 7.22926 -4.9672 16
212 1 4.54058 4.37668 8.40199 22
213 1 8.13245 -17.312 -5.44047 13
214 1 13.7463 -6.3779 -3.08666 21
215 1 -6.36094 4.82251 4.49966 18
216 1 -8.06241 -10.1361 -8.96564 17
217 1 13.9357 2.32478 -14.3589 10
218 1 7.85477 -6.272 6.85442 23
219 1 11.9809 7.23611 -9.20422 19
220 1 3.01152 -3.30301 -15.3171 23
221 1 5.92359 -19.1018 0.165298 10
222 1 14.0021 -5.63409 -11.6083 20
223 1 -7.87851 -11.4516 3.71037 18
224 1 4.71546 -18.4798 -7.44201 8
225 1 -5.2273 -9.02416 -9.90713 21
226 1 7.4217 14.2262 -4.54521 14
227 1 2.57997 -4.0064 -18.7096 21
228 1 5.53996 2.0199 12.9965 21
229 1 18.2981 1.94501 -0.0937511 13
230 1 12.4255 -9.09214 -13.3952 17
231 1 -3.46126 -6.30242 -13.7396 22
232 1 -8.41328 -3.6683 -11.9701 22
233 1 -2.40921 -17.8678 7.60611 11
234 1 13.8444 -1.3278 9.98369 18
235 1 -5.32687 -10.4205 -16.227 14
236 1 5.54962 4.2624 -15.0803 20
237 1 4.86942 9.88493 -1.76851 20
238 1 -2.42837 -9.15757 11.5147 18
239 1 -6.38354 -11.3896 -11.7098 18
240 1 -2.95478 -9.1234 -11.9988 20
241 1 2.89261 5.49167 -17.4896 17
242 1 -2.81291 -11.6496 -9.79408 22
243 1 11.792 -13.0821 -17.2116 9
244 1 18.0123 -6.05376 -8.4592 12
245 1 15.111 1.36341 2.11713 19
246 1 -5.32949 -9.21307 6.35116 19
247 1 -0.362647 -11.8378 -1.87028 21
248 1 10.1501 5.53692 15.2277 13
249 1 0.180325 -14.6946 3.48749 18
250 1 2.95279 -13.9109 -1.50319 19
251 1 -2.6696 12.4686 -2.68245 19
252 1 8.98229 -4.63787 -15.3594 19
253 1 -6.3605 -6.24427 -11.9863 22
254 1 -7.59343 -10.9028 11.3059 12
255 1 0.962514 4.71464 16.0755 9
256 1 3.33552 -14.3369 -4.93165 19
257 1 -3.54091 -11.972 -13.5443 22
258 1 -6.78515 4.65899 -12.5056 17
259 1 14.1239 2.14663 5.29587 19
260 1 -2.08778 1.91548 -12.3074 20
261 1 2.46245 5.23816 -13.7758 19
262 1 5.58536 -11.4632 -15.9671 18
263 1 -6.46901 11.9686 -4.10666 15
264 1 5.55072 7.30237 3.51561 24
265 1 14.0107 -0.864902 3.51819 18
266 1 -8.95274 -3.30547 1.34571 19
267 1 -4.22054 -11.7728 10.8068 17
268 1 -2.85673 7.3953 0.900828 18
269 1 5.76148 -4.123 -17.0314 19
270 1 16.0535 5.244 -5.03349 18
271 1 8.1847 -11.6682 -3.51092 20
272 1 2.47914 -5.8437 13.0181 12
273 1 -10.1838 -12.1243 5.94526 11
274 1 4.36209 -16.3952 -10.6388 14
275 1 -4.53276 5.89505 13.1681 8
276 1 -3.34014 0.907379 10.948 20
277 1 -9.43963 -5.59013 6.26335 17
278 1 -8.27682 -9.60975 6.97269 19
279 1 16.7531 -6.04772 -6.00813 16
280 1 -9.76542 -8.43791 11.0353 9
281 1 15.1139 -10.5556 -11.6583 13
282 1 13.9727 -11.4129 -7.53024 16
283 1 4.37498 15.6322 -4.61032 12
284 1 -7.71681 7.08982 -5.73974 20
285 1 11.6598 7.38593 9.69617 18
286 1 12.6777 -14.6667 -4.2733 14
287 1 -0.619068 9.21475 1.37855 22
288 1 8.75779 -13.1891 5.55309 11
289 1 13.5192 -6.11649 3.15341 20
290 1 1.59692 3.80137 10.0496 22
291 1 1.64107 -0.441438 12.6627 17
292 1 0.106743 12.4668 -0.168715 16
293 1 13.8543 8.21615 12.0888 10
294 1 -7.82082 10.5444 -9.62865 10
295 1 0.612838 -1.84497 -17.9887 23
296 1 5.47721 -9.72266 -13.7535 23
297 1 -7.35593 3.80704 7.49577 15
298 1 -11.0171 2.44673 -0.819772 14
299 1 -2.39945 6.96907 -2.23998 21
300 1 11.8051 -3.09079 6.74649 20
301 1 -3.62677 -17.2681 -1.22674 17
302 1 11.5883 -8.8357 7.12037 16
303 1 -6.43734 -13.9009 10.3558 11
304 1 -13.3348 8.8186 2.35927 7
305 1 6.34025 -12.7117 -7.98018 20
306 1 0.305666 -4.23827 -13.305 20
307 1 14.0784 -10.9188 -15.0022 13
308 1 4.86241 10.0438 1.64596 20
309 1 -8.39772 -3.69391 -5.27284 22
310 1 8.73519 -7.51476 -20.1842 6
311 1 11.9158 -3.38394 -13.0831 23
312 1 -2.34045 -15.0351 -13.8246 15
313 1 -10.8614 -9.89444 -6.92564 13
314 1 13.6472 5.54199 13.9447 13
315 1 14.758 1.84222 -5.08967 20
316 1 -6.58656 -0.781047 -11.8464 21
317 1 9.79892 14.1488 -6.74263 10
318 1 -9.36967 -0.69938 -7.32501 20
319 1 -3.82665 4.50731 2.42689 19
320 1 -8.04504 6.84928 -2.70312 23
321 1 -1.26151 3.68004 7.78806 25
322 1 11.1988 1.71041 10.3899 19
323 1 14.5677 -4.96854 -7.81156 22
324 1 10.4326 -8.34296 10.1658 12
325 1 16.8422 -2.2065 -7.59583 16
326 1 -4.59854 -17.2569 -5.63119 13
327 1 -6.29041 -0.956727 -8.4111 20
328 1 5.69889 -12.3552 -5.19997 20
329 1 15.9133 -1.53308 6.10021 14
330 1 -6.38201 -6.92241 -8.50746 17
331 1 -3.48159 -11.8182 6.91398 18
332 1 1.05566 -8.81354 12.7332 10
333 1 -0.525111 9.87253 -2.04139 22
334 1 -11.1339 -12.4796 -4.46896 11
335 1 9.149 10.6181 12.72 11
336 1 -6.42417 4.14504 -2.62348 22
337 1 3.15642 7.69884 -11.8715 18
338 1 7.80309 10.1639 3.25555 21
339 1 -11.2812 -9.87304 -3.50997 15
340 1 0.39286 -12.5136 -8.89878 22
341 1 -8.66399 -3.21954 4.84506 18
342 1 -9.19125 5.142 -7.28192 20
343 1 8.23512 -11.2788 2.97969 22
344 1 -2.77858 -14.4878 -4.96029 18
345 1 10.7486 10.4217 5.00531 18
346 1 10.5603 3.18938 -14.8811 15
347 1 -10.3505 4.5814 -11.9398 10
348 1 3.05493 11.2977 -13.141 11
349 1 -6.52797 4.49525 -9.24246 18
350 1 0.672919 -15.6008 0.209712 21
351 1 19.0679 6.03371 2.90625 13
352 1 6.17887 6.15539 -17.0491 14
353 1 -12.072 3.23453 2.68733 11
354 1 0.192481 -16.0297 6.16395 21
355 1 7.58512 -15.347 -12.0384 20
356 1 -10.394 -0.586383 2.85359 18
357 1 -8.41348 -5.24496 10.7319 15
358 1 -7.61604 8.08376 5.2548 12
359 1 -6.32882 7.54517 -13.3261 10
360 1 9.4821 -14.4571 -8.1167 19
361 1 0.149433 -10.0406 -13.543 20
362 1 -0.662825 -6.96467 8.27147 22
363 1 -3.85104 -1.6166 -19.1974 12
364 1 12.2749 -15.1025 -11.8875 11
365 1 8.41613 10.2268 -9.95856 17
366 1 -9.87876 9.59522 2.81716 10
367 1 -0.546811 -6.15463 14.1315 16
368 1 -8.37847 -8.72202 -11.9092 18
369 1 -6.52342 -6.01125 4.96575 20
370 1 10.9813 -5.88071 5.31545 21
371 1 11.0276 -11.0017 4.29809 18
372 1 22.4649 3.09781 -9.83147 4
373 1 -1.20044 -1.20893 11.575 22
374 1 8.8446 9.22192 -6.61795 18
375 1 -1.82193 -14.1996 -8.30857 20
376 1 2.9923 2.39423 14.651 17
377 1 2.17873 10.323 3.25299 20
378 1 -2.93029 -12.3977 -16.3476 13
379 1 11.9856 11.3701 -9.3002 12
380 1 7.72364 4.76331 6.67062 23
381 1 -3.7199 -0.647084 6.13531 20
382 1 -6.90212 -0.195585 7.10213 20
383 1 -5.27551 -12.2067 -8.52018 22
384 1 -3.33883 7.80053 5.51284 19
385 1 -4.70349 -14.2892 -11.6949 15
386 1 3.33899 -6.61127 -17.0589 22
387 1 -3.5774 -11.6248 0.14452 18
388 1 12.0834 -5.95335 11.9389 12
389 1 -0.808235 -12.5384 11.3477 13
390 1 -5.77072 5.25888 -15.557 8
391 1 13.9328 3.74088 -0.00360795 21
392 1 -4.69874 -15.2053 -8.74694 14
393 1 5.14263 15.9257 -1.29434 8
394 1 -0.400778 6.46271 9.82109 18
395 1 -11.1486 -3.44646 -6.82363 17
396 1 -0.211734 13.0988 -6.97224 17
397 1 9.0896 6.3615 -7.85992 21
398 1 -2.57514 -9.05752 -8.44836 19
399 1 5.87624 3.20241 15.6778 15
400 1 1.8281 -15.0141 -15.0829 12
401 1 4.6306 -5.81366 -12.0415 17
402 1 12.1312 -14.948 -1.49353 16
403 1 -5.70968 7.30838 2.67171 21
404 1 4.44328 4.36848 11.5516 17
405 1 13.8407 9.06049 -1.00396 18
406 1 -3.55149 7.89675 -12.3413 18
407 1 -12.0265 -6.7322 -1.59861 13
408 1 3.15714 12.8277 4.42634 15
409 1 -2.02484 2.10249 -15.3163 22
410 1 20.2064 7.57493 -5.45984 6
411 1 9.92012 7.22805 -10.9531 18
412 1 16.9152 -1.74672 -1.40069 18
413 1 2.54943 -0.867603 -13.5526 22
414 1 6.53735 -19.2625 5.516 7
415 1 2.58881 -12.2227 10.245 12
416 1 -8.16745 2.05514 -12.3095 17
417 1 -8.28334 -13.9189 7.46277 11
418 1 2.88386 -12.6151 -16.763 14
419 1 12.2771 14.1772 -1.53425 9
420 1 6.05508 1.24265 -13.7704 19
421 1 6.90772 -2.88043 12.6791 15
422 1 -9.81133 -1.42461 6.08581 14
423 1 -0.712807 -17.8498 -2.05508 18
424 1 -9.01331 -5.71777 -3.08008 16
425 1 15.4406 -7.54475 -9.01875 18
426 1 14.592 -3.62467 -1.29975 20
427 1 9.42518 -8.81682 -9.33177 18
428 1 7.94705 -0.256214 -12.1685 20
429 1 12.7628 -8.77807 -10.2643 18
430 1 -4.43269 -0.654426 12.9329 14
431 1 12.0796 13.9994 1.87642 10
432 1 -5.06628 -4.55501 -16.7322 14
433 1 7.77304 -0.312703 -17.4157 15
434 1 -3.69993 -6.3459 6.22411 17
435 1 2.50812 16.1492 -1.6084 8
436 1 -6.42315 -6.97524 -15.1218 18
437 1 -11.6711 -2.98806 0.462196 13
438 1 -2.52197 -3.35333 -22.1049 6
439 1 0.495699 -13.3783 8.61452 16
440 1 6.57335 6.97995 -10.0792 21
441 1 13.3847 0.84337 12.64 12
442 1 19.6849 3.61876 -3.75528 13
443 1 -8.33339 -14.3125 -3.84815 12
444 1 -2.2573 -3.84235 -18.841 16
445 1 -2.84032 11.1386 6.48327 19
446 1 17.5198 -9.76244 3.39844 7
447 1 6.5141 14.5166 -9.86974 10
448 1 18.7332 1.62825 -11.9326 8
449 1 5.76367 8.49542 12.4196 17
450 1 -6.69695 -1.01277 4.43361 18
451 1 8.94712 7.60395 8.12321 22
452 1 10.6689 0.21891 15.4732 12
453 1 2.74147 -0.438552 -16.9336 22
454 1 3.21199 -3.64801 11.1283 16
455 1 11.665 13.1351 5.04729 8
456 1 10.7494 4.14224 -11.2761 20
457 1 -5.43569 12.8747 -6.80533 10
458 1 5.91737 9.34822 -8.17976 19
459 1 14.0464 -6.91148 10.1135 12
460 1 12.5647 -0.640664 -14.2769 12
461 1 14.8224 -14.3685 -6.86878 10
462 1 15.41 10.7704 5.95404 11
463 1 -11.7976 -10.117 -0.86889 13
464 1 -2.67721 7.48961 -15.4737 13
465 1 -7.65547 -1.69947 10.7888 11
466 1 -0.967721 9.76707 -11.1294 15
467 1 6.80529 -14.668 -3.81929 19
468 1 8.52648 -3.70302 -11.9986 20
469 1 2.19774 10.67 -6.8761 27
470 1 -7.8278 -9.9773 -15.1746 10
471 1 10.7652 -16.5863 -0.202568 15
472 1 -8.70596 -9.29244 -5.04565 17
473 1 2.81233 8.66441 -15.2052 18
474 1 -0.481425 9.83491 11.9355 17
475 1 -6.53925 -6.37505 8.03577 24
476 1 5.82383 -9.73362 -10.0842 20
477 1 5.44244 -10.8121 8.66845 14
478 1 -8.99664 7.46761 0.748868 19
479 1 7.2425 0.187212 17.1447 10
480 1 6.10943 14.7066 -7.36472 15
481 1 13.6913 -7.9506 -6.16803 15
482 1 5.58575 7.02004 10.1295 21
483 1 3.8285 1.91364 -21.0544 11
484 1 0.995521 -17.3963 8.62004 12
485 1 11.3246 -5.91619 -14.6655 19
486 1 9.31349 12.3087 1.58382 15
487 1 12.137 5.44374 -14.6455 11
488 1 2.4355 -5.89676 -14.046 19
489 1 -3.4876 -11.8785 -6.60719 18
490 1 -9.15245 -6.63344 -13.7907 13
491 1 16.5564 5.2259 1.95902 18
492 1 18.0837 0.953004 -3.15709 18
493 1 8.13759 -12.514 -10.4194 20
494 1 14.455 9.93987 9.06463 11
495 1 6.96031 -15.8847 -9.00814 18
496 1 6.54015 1.35275 -19.9612 14
497 1 10.6117 9.39092 1.4137 17
498 1 11.7421 10.5481 11.0819 11
499 1 16.4921 3.95336 -2.30448 20
500 1 17.9487 -4.22732 -0.247035 12
501 1 15.5131 1.59821 -11.4322 16
502 1 10.5478 5.04699 11.397 19
503 1 17.3577 0.316056 11.8879 9
504 1 20.3915 4.66861 -7.52233 11
505 1 5.08294 -0.940521 11.5915 17
506 1 19.9022 -5.11157 -5.4202 7
507 1 13.4444 -0.326199 6.91223 21
508 1 -2.376 -3.12802 -11.9019 22
509 1 18.4911 5.05929 -0.384598 15
510 1 -7.0768 6.29613 10.5299 7
511 1 9.73581 10.4017 8.50079 15
512 1 14.7128 1.39548 8.59591 17
513 1 5.68445 6.95483 6.80652 23
514 1 3.03802 13.8078 7.83587 10
515 1 3.50731 -17.0591 0.0814462 19
516 1 -2.24667 6.85845 -5.73895 20
517 1 15.5335 6.39144 -10.3941 16
518 1 16.2276 -8.75993 -14.1516 10
519 1 7.61056 12.2256 -6.7224 19
520 1 -2.49277 -16.3997 -11.0445 12
521 1 9.54885 -14.7726 -14.7133 14
522 1 -9.19142 4.3576 2.48371 18
523 1 -2.17144 5.0501 -13.781 19
524 1 -1.94047 -16.435 1.05704 20
525 1 -3.54335 -0.627894 -13.4992 22
526 1 -8.18243 1.37822 -5.489 21
527 1 11.9705 -9.25356 0.494791 23
528 1 16.088 4.37329 5.24843 16
529 1 5.39037 -10.9819 4.76782 20
530 1 -11.2542 -4.54953 -10.1335 14
531 1 7.57524 -1.7707 -20.3482 10
532 1 -0.256481 1.18055 9.93499 23
533 1 10.5654 8.12078 -13.6923 13
534 1 17.0307 -2.42669 11.0787 9
535 1 12.2688 1.37239 -9.59116 20
536 1 14.1779 9.89154 -6.74759 16
537 1 2.49038 -14.6646 -11.6974 19
538 1 -7.10976 -7.25733 11.3833 14
539 1 17.5958 -3.11097 3.30968 14
540 1 2.0793 9.14391 9.92248 16
541 1 11.4404 10.272 -11.8341 13
542 1 -9.01667 8.69105 -7.72495 16
543 1 11.9711 6.46648 -2.91443 23
544 1 -6.78523 -15.1354 -6.4704 14
545 1 13.5635 -6.77301 -0.217831 19
546 1 7.91626 9.98733 -0.154062 19
547 1 -3.1448 1.42019 8.31689 21
548 1 -5.54845 -8.71499 -0.0207423 22
549 1 -5.90071 -3.25574 -10.3331 20
550 1 9.29392 -4.10978 12.953 11
551 1 2.24583 -6.57707 9.5576 19
552 1 13.5755 4.94863 10.0711 14
553 1 -3.35471 10.2833 -0.352606 19
554 1 4.56221 -1.5906 -18.4962 24
555 1 -5.52194 -3.53424 6.31502 21
556 1 10.7939 -6.3384 -11.7596 19
557 1 13.1996 -13.1985 -10.2292 17
558 1 11.5014 1.95749 6.89711 20
559 1 -3.90159 -6.8516 9.7226 20
560 1 11.7396 7.74798 6.58276 19
561 1 0.196554 -3.973 9.63546 22
562 1 -1.83317 3.649 11.0016 21
563 1 0.577719 -7.87402 -18.4701 19
564 1 -5.52992 -4.47282 9.84181 20
565 1 8.34496 2.46032 11.6461 24
566 1 0.979665 -20.9005 2.95826 11
567 1 20.3678 0.721181 -5.65724 11
568 1 10.0238 -16.8932 -10.0066 13
569 1 11.8398 11.2363 -0.431273 18
570 1 10.1224 12.4769 -3.27349 16
571 1 8.76347 -3.54044 -17.9517 12
572 1 9.97833 9.4663 -3.58706 17
573 1 15.3184 6.55697 -1.43455 20
574 1 -3.51958 -12.2012 -3.43625 19
575 1 0.28292 -4.85376 -16.5248 22
576 1 -5.6319 6.74227 -0.767499 22
577 1 9.42205 -10.3651 -18.4528 12
578 1 16.3457 4.14812 -12.2678 12
579 1 14.8038 7.05357 -7.47019 19
580 1 11.2205 -2.79276 9.94741 18
581 1 10.3353 -0.451727 12.1065 17
582 1 -1.01817 -15.9024 10.2425 11
583 1 -0.221455 4.34354 -15.5532 23
584 1 5.0754 10.0468 4.89984 20
585 1 3.46835 -9.47396 -18.1575 17
586 1 9.27291 13.1233 -10.1144 12
587 1 11.3378 7.40975 3.18829 18
588 1 16.1282 -7.75809 -3.6951 12
589 1 7.98239 7.80759 14.7752 13
590 1 -12.6388 -6.04406 5.53247 8
591 1 6.37266 -14.1962 -0.308875 20
592 1 -5.26222 12.1475 -1.21889 13
593 1 8.34962 7.21076 2.03803 22
594 1 -9.54761 -6.01876 0.0126727 22
595 1 3.56705 4.79566 17.3569 8
596 1 -0.250603 3.94803 -18.5075 16
597 1 -3.30363 4.39275 -16.6781 14
598 1 8.87182 -13.8643 -1.93321 20
599 1 10.9444 3.67854 -8.39839 22
600 1 -9.67158 1.12508 8.07188 12
601 1 7.67834 -7.27804 -13.9508 20
602 1 8.27307 -16.1691 5.19008 10
603 1 3.7048 12.3696 -5.41678 20
604 1 -1.77491 -0.420635 14.5747 11
605 1 -5.16688 -8.91781 -13.4099 22
606 1 0.00937495 -10.6441 -17.387 14
607 1 -0.0652641 -13.0315 -14.4973 19
608 1 0.992539 12.5307 -9.81345 14
609 1 -0.19009 9.45472 4.89942 18
610 1 5.44441 -11.8762 -11.6422 16
611 1 11.3216 -16.3683 -6.88713 15
612 1 5.89071 -8.61564 6.30807 22
613 1 20.7619 0.0582812 -9.1734 9
614 1 3.53972 -14.3954 -8.47166 21
615 1 -9.37597 -6.02419 3.31 22
616 1 2.03584 -16.4837 -4.31208 17
617 1 -6.90838 -12.2386 -4.60758 23
618 1 -5.72082 -3.9659 12.7013 13
619 1 -2.87758 -20.1776 -0.802043 7
620 1 16.3841 -0.267817 -4.8837 20
621 1 -2.5166 12.9871 1.2592 15
622 1 -11.1842 6.86012 2.79573 12
623 1 15.1674 -3.41624 1.83687 20
624 1 -11.1483 -3.89148 -13.5813 11
625 1 3.80774 7.36428 -8.43796 21
626 1 12.153 -3.87107 -9.82412 20
627 1 7.28579 10.1711 9.87654 17
628 1 -11.5299 -1.06888 -9.14828 17
629 1 -11.0774 -8.55684 -9.96168 10
630 1 0.379628 4.81995 13.3212 13
631 1 7.95938 5.65341 -12.5377 19
632 1 13.4389 10.9419 -3.07678 17
633 1 -1.34154 -1.53933 8.14689 23
634 1 -2.96144 -18.3976 -4.05267 11
635 1 0.425078 -19.9672 6.36207 13
636 1 12.389 11.3283 7.84965 12
637 1 2.82996 -11.6703 -13.4326 21
638 1 -5.10943 6.86991 -4.30045 25
639 1 10.6899 4.30008 1.68007 23
640 1 -6.87032 -6.26427 1.20968 20
641 1 13.0595 7.49805 -12.3262 15
642 1 0.274041 -15.6711 -10.3322 16
643 1 4.98705 -17.6196 -4.07586 13
644 1 0.989008 -17.9484 -7.9778 9
645 1 8.8309 2.43673 -11.7367 21
646 1 8.20413 13.4626 -1.39435 14
647 1 0.388416 -1.62344 -14.8648 19
648 1 1.90163 -1.13532 9.62979 19
649 1 4.83785 4.70109 -19.6607 9
650 1 -7.91181 -3.74805 -15.3952 14
651 1 -6.70575 -6.63885 -5.39928 21
652 1 4.55642 12.0499 -8.87357 19
653 1 -1.44798 -0.745362 -21.1025 12
654 1 18.1526 0.186253 -7.80486 16
655 1 15.287 -9.7357 -1.63495 16
656 1 -5.62133 2.02207 6.09455 21
657 1 8.55014 -10.9375 -0.212576 22
658 1 16.8492 -6.6343 2.29139 15
659 1 13.3049 -6.55667 6.76859 17
660 1 2.58252 7.33143 5.08257 22
661 1 -4.32882 -1.74721 9.6671 21
662 1 -6.53216 1.14514 9.4186 15
663 1 5.42065 -16.9854 3.55691 16
664 1 8.58276 7.62806 11.1897 21
665 1 -11.144 -4.04032 -3.59508 16
666 1 11.7336 -9.55484 -6.9199 20
667 1 -5.83443 9.91767 -6.02061 20
668 1 3.07125 -18.9316 -2.102 10
669 1 7.88631 0.376186 13.2976 22
670 1 0.32604 12.8789 6.29855 18
671 1 6.36794 -13.8353 2.81311 21
672 1 6.00343 1.73902 9.78138 22
673 1 -11.626 -6.93214 -4.65009 15
674 1 3.51556 11.1543 13.4697 10
675 1 9.01643 6.38979 -1.093 21
676 1 -5.52491 -14.2126 6.63967 16
677 1 1.22011 -18.7175 0.241708 17
678 1 8.99287 -8.448 4.91648 22
679 1 14.6302 -8.90259 5.42467 14
680 1 10.2622 4.82364 5.439 22
681 1 3.01497 -11.6377 -10.358 18
682 1 0.560744 1.34526 -13.751 21
683 1 0.169354 -3.82996 12.7116 16
684 1 1.56522 14.7848 -4.48944 16
685 1 17.0399 -1.16753 1.53406 15
686 1 7.70789 3.54659 -9.51199 21
687 1 0.755313 9.60139 14.6655 9
688 1 11.0431 4.60465 8.23158 20
689 1 11.4923 -10.1167 -16.3921 14
690 1 -2.1203 -14.4038 -1.84118 21
691 1 18.2376 0.0622156 4.88779 12
692 1 5.90964 -3.80242 -13.846 17
693 1 5.0024 5.90427 14.2304 14
694 1 5.04291 -14.4254 -14.6462 17
695 1 9.15126 0.887692 -14.9201 17
696 1 13.9583 -1.46205 -10.5236 19
697 1 16.1475 -6.83136 -0.657311 17
698 1 3.19036 -8.97268 8.60229 18
699 1 -0.350861 -7.22392 -15.0616 19
700 1 7.09586 11.1212 -3.05113 18
701 1 -8.48463 1.98648 1.31202 20
702 1 15.2351 0.64257 -8.37506 19
703 1 17.0351 7.85125 0.949702 17
704 1 2.48426 -4.13249 -21.5579 13
705 1 -4.56838 12.9877 4.54432 12
706 1 15.7041 10.2864 2.60995 14
707 1 16.8384 9.19274 -7.7815 7
708 1 11.9267 -3.8559 -15.9435 14
709 1 11.9514 -8.43547 -2.54038 22
710 1 -9.58448 -1.19139 -3.69153 19
711 1 14.541 7.36737 1.9581 20
712 1 -9.50905 -11.9331 -2.43221 15
713 1 -8.36916 6.98769 -10.5454 17
714 1 8.69561 2.1499 8.2407 22
715 1 -8.53871 -3.07229 -8.66525 22
716 1 -11.6245 4.86668 0.119957 15
717 1 11.1265 -11.752 -12.3984 13
718 1 -8.68113 -12.3136 -7.02397 16
719 1 11.1567 -10.6972 -4.40443 19
720 1 -13.0423 8.31814 -1.09623 9
721 1 17.3828 8.16045 4.23563 17
722 1 -0.772485 -12.6109 5.553 17
723 1 15.464 2.31621 14.2783 9
724 1 15.4125 -4.98599 5.16467 12
725 1 -8.45012 1.4223 -2.28907 23
726 1 2.56044 6.66214 8.41388 20
727 1 5.42338 6.56972 -13.8548 21
728 1 -2.62495 -6.50746 -17.3701 19
729 1 0.396266 13.6878 2.69623 13
730 1 -2.84272 -15.2881 5.64903 19
731 1 12.8756 4.95124 -5.96414 21
732 1 2.83813 10.5401 16.3948 8
733 1 17.4235 -4.55924 -3.24974 17
734 1 8.56821 -9.853 7.63664 15
735 1 0.00325792 9.7908 -14.9936 11
736 1 14.6466 9.63506 -10.4928 14
737 1 -2.79408 -4.36925 8.12772 22
738 1 19.6923 6.83922 5.94193 7
739 1 -0.398031 -7.07074 -11.8676 17
740 1 14.3564 12.0591 0.367282 16
741 1 -11.489 1.63264 -4.25784 14
742 1 2.38473 -17.7046 5.62433 19
743 1 8.31684 9.94173 -12.7728 13
744 1 8.18619 -3.45868 8.72275 19
745 1 -0.707835 -12.3806 -5.39714 21
746 1 -4.14104 14.3777 -3.94634 10
747 1 -12.3063 4.5442 -6.14665 11
748 1 15.8504 -3.8868 -9.89668 21
749 1 -2.61976 -8.98237 -15.3683 23
750 1 -6.35534 4.64149 1.28458 22
751 1 17.7876 5.89348 -7.42144 16
752 1 6.91373 -6.65517 -17.7212 18
753 1 -6.02704 -13.0336 -14.4182 11
754 1 0.781322 -14.9334 -7.03415 18
755 1 -2.36873 11.3277 10.4245 11
756 1 9.30046 -14.5599 -5.02452 19
757 1 3.85996 8.12165 -17.6751 10
758 1 14.5321 -3.29345 -4.45432 19
759 1 11.8706 7.14967 -0.0129061 19
760 1 -1.0013 -16.7088 -5.2249 13
761 1 4.84237 -1.31639 -21.4753 13
762 1 15.3039 1.25227 -1.18854 20
763 1 0.560258 1.24782 -16.7515 22
764 1 0.310045 -9.7829 6.32455 19
765 1 9.30066 6.71065 -4.7081 20
766 1 -6.45953 3.99001 -5.86422 22
767 1 -10.8051 3.79522 6.22169 9
768 1 8.54588 2.48144 14.9822 19
769 1 -3.65406 -12.5749 3.13226 21
770 1 8.3555 7.61875 5.21585 23
771 1 8.29798 -17.177 -1.81688 15
772 1 6.602 6.50526 -6.51769 22
773 1 -2.7823 9.10421 8.60828 19
774 1 -8.4078 -2.89075 8.15278 18
775 1 -3.87921 10.1506 2.73141 17
776 1 0.338742 -9.69642 9.61858 19
777 1 3.85619 -19.3204 2.50909 17
778 1 13.3344 5.01622 6.8145 18
779 1 10.8533 -6.28543 -8.32106 22
780 1 7.4872 -9.62054 -16.5426 20
781 1 -5.00341 0.923007 -17.061 14
782 1 0.456219 1.05179 -20.0092 15
783 1 7.32289 10.3931 6.67928 19
784 1 -2.71591 -4.38243 11.5493 21
785 1 0.0138135 3.76232 -11.5888 20
786 1 -10.9065 2.19182 -7.56584 19
787 1 14.2511 7.81522 -4.45812 16
788 1 -1.13243 -19.3352 1.70463 11
789 1 12.9291 11.0683 2.89023 17
790 1 -5.81378 -14.9711 -3.02751 19
791 1 6.18216 13.5155 5.90874 11
792 1 -3.41531 -6.62717 13.1895 15
793 1 0.192263 -16.7191 -13.4949 12
794 1 16.98 -0.496637 8.54265 16
795 1 7.95154 -16.8397 1.47434 17
796 1 6.26131 10.4886 14.8467 9
797 1 15.6156 -3.72288 -12.6319 13
798 1 11.2751 -11.8098 -1.94514 22
799 1 5.89437 -1.29738 -15.4874 20
800 1 -9.12849 -1.69155 -14.0094 16
801 1 -2.77472 1.58675 -18.9307 15
802 1 -0.108347 1.82642 13.2753 16
803 1 14.6203 -3.88995 8.05152 16
804 1 -8.43259 -9.59054 0.970299 21
805 1 13.6758 -1.34928 0.585292 21
806 1 5.0588 1.42054 -16.9113 20
807 1 17.5285 7.22524 -3.0844 13
808 1 4.97276 9.02182 8.19485 20
809 1 -12.4924 -5.5569 2.20263 12
810 1 9.7525 -17.3151 -12.9381 10
811 2 -9.30573 -4.2147 -10.2782 21
812 2 -2.07674 10.9771 -4.53945 19
813 2 2.43892 -4.16054 -13.471 22
814 2 -0.118692 4.70192 9.27984 21
815 2 7.21917 -14.2356 -10.5598 19
816 2 -3.40674 -9.58141 -10.1534 21
817 2 4.80006 2.40406 11.1865 22
818 2 8.555 4.39639 14.6745 18
819 2 -8.87172 -10.4233 -3.44287 20
820 2 -8.31499 4.33585 -8.94023 21
821 2 5.80163 9.20576 3.2067 22
822 2 -7.93566 -2.12911 0.197575 19
823 2 4.68205 14.319 -8.79775 13
824 2 14.0232 1.20692 3.72532 17
825 2 -0.845371 11.3733 -7.11563 15
826 2 15.5201 4.17772 -9.6117 18
827 2 -11.2118 -1.99454 -13.9967 10
828 2 -8.28719 -6.75632 -12.099 18
829 2 5.84753 -0.381823 9.70738 19
830 2 12.0416 -4.74817 -11.6439 20
831 2 7.29099 -17.7837 -0.332717 13
832 2 -3.19443 7.28556 -4.01457 20
833 2 -11.2423 -1.31538 -7.26927 16
834 2 17.2706 4.20145 3.54529 15
835 2 7.4089 -11.7308 -12.0913 20
836 2 -6.53334 -16.0975 -4.67053 14
837 2 -8.37489 -6.98399 4.61544 20
838 2 -0.704292 -15.2139 1.93058 17
839 2 13.0999 -8.41718 6.53309 15
840 2 -0.780082 -16.241 -11.8729 14
841 2 8.24293 -2.67514 13.8035 13
842 2 4.51932 9.08099 -16.1948 12
843 2 3.1199 -17.847 -3.80191 13
844 2 -9.98636 -13.4899 -3.51396 11
845 2 0.027769 5.86015 14.9112 12
846 2 -5.63496 4.70315 -0.50103 20
847 2 2.37365 4.66975 12.0975 19
848 2 -3.44612 6.68333 -7.51043 17
849 2 9.51217 -11.1369 -1.9534 23
850 2 -1.16949 1.66676 8.06615 22
851 2 3.55084 9.68211 -11.9638 15
852 2 11.188 9.69124 3.33285 23
853 2 12.3017 9.27211 -0.192992 19
854 2 16.94 -4.62194 -8.47503 17
855 2 -1.93762 1.97816 10.2848 22
856 2 4.67291 -0.475572 -17.0234 20
857 2 -3.78677 5.94294 -16.0097 11
858 2 14.6258 6.17428 -5.42532 19
859 2 -2.34987 -11.5118 11.4411 15
860 2 -11.5109 8.85792 2.77718 9
861 2 16.1352 -2.46405 -11.2364 14
862 2 -3.58 -8.63512 13.0251 11
863 2 2.09883 -9.90235 -13.5979 20
864 2 -3.13443 -1.95948 -21.1585 9
865 2 -11.6683 -10.3976 0.996468 11
866 2 16.3001 5.69944 -3.2936 17
867 2 -0.851375 7.11678 1.3554 19
868 2 -3.49516 -12.9306 -8.12571 21
869 2 -0.439794 13.6145 4.44993 14
870 2 9.32426 -0.424038 16.6361 10
871 2 4.3902 -11.4773 10.0743 9
872 2 17.3286 3.44677 6.34717 14