ITEM: TIMESTEP
12000
ITEM: NUMBER OF ATOMS
500
ITEM: BOX BOUNDS pp pp pp
-30.0 30.0
-30.0 30.0
-30.0 30.0
ITEM: ATOMS id type x y z Coordination
1 1 4.98716 -1.36115 3.08348 20
2 1 -1.90297 7.84409 5.16894 21
3 1 9.02417 1.40748 3.66717 11
4 1 -12.1398 2.5495 -0.583449 10
5 1 -3.82249 4.64511 -10.4653 15
6 1 1.57615 1.90901 5.7399 19
7 1 -8.24054 4.11554 -2.76825 23
8 1 -0.584112 4.62719 -10.3695 16
9 1 4.62806 -4.06572 -5.22075 13
10 1 3.97341 3.66447 3.58032 19
11 1 -3.66851 8.79625 -7.00654 20
12 1 0.0531824 6.64682 8.54716 14
13 1 -8.64947 1.97486 0.426607 19
14 1 -10.1382 1.52585 -2.49658 17
15 1 7.055 1.10297 -6.63254 15
16 1 2.30606 0.101542 7.92645 13
17 1 -8.37991 -3.32012 0.849822 20
18 1 -7.0284 -2.61419 -9.29598 11
19 1 3.45602 0.827681 -7.59054 19
20 1 4.56414 -3.90025 0.538822 18
21 1 -8.94521 10.467 2.33282 11
22 1 -1.1982 11.2573 -1.20003 14
23 1 -1.82971 -1.91691 -7.22847 20
24 1 -2.8543 7.35569 8.89132 12
25 1 6.40753 -0.846589 0.177508 19
26 1 -5.95716 9.69858 2.59368 19
27 1 0.970399 7.63925 -5.15777 21
28 1 4.07541 10.7363 -3.24895 16
29 1 -3.62211 11.4801 -5.82543 14
30 1 -6.6576 8.93065 -7.19785 9
31 1 -5.77368 9.51454 -3.32577 17
32 1 -0.402363 12.3481 -4.26488 14
33 1 -10.1133 4.74489 -0.464496 21
34 1 -2.70782 10.2865 7.5757 11
35 1 -5.33963 3.23744 -8.43235 19
36 1 -6.81194 -3.953 3.91462 17
37 1 6.74632 -1.92008 -4.32226 15
38 1 -10.3243 4.90276 5.05639 9
39 1 -8.80115 1.92615 -5.25002 20
40 1 -1.83834 -7.39767 2.85461 16
41 1 5.69828 6.99185 -7.98103 13
42 1 -7.74648 0.355506 -10.6959 14
43 1 0.785573 8.03633 -10.1404 12
44 1 -3.71536 -6.59211 0.245139 18
45 1 -3.98518 11.9505 -2.56101 13
46 1 -11.8774 4.41162 2.17182 10
47 1 0.390959 9.45824 8.43666 10
48 1 4.65438 1.03254 5.9137 17
49 1 -0.367894 -6.85551 -4.80118 18
50 1 4.69064 3.82911 -7.66902 16
51 1 -6.85929 -4.74516 -1.88734 19
52 1 -3.59859 -4.69283 3.09614 21
53 1 3.96068 -2.23191 5.76735 16
54 1 1.41989 -3.99162 5.96028 18
55 1 2.85453 10.7195 -0.0373212 14
56 1 -7.0881 -6.40062 0.911093 19
57 1 -5.29795 -9.43998 0.714671 11
58 1 -5.53265 -4.13574 -4.41484 21
59 1 -3.42953 -1.01615 5.91779 17
60 1 -8.49721 4.3136 2.70311 21
61 1 0.555607 -8.11154 -1.86573 12
62 1 -10.2063 -0.518636 -0.207615 11
63 1 -6.79237 10.2614 -0.698571 15
64 1 -6.52453 6.7444 3.6364 23
65 1 -4.6449 8.30314 5.94174 18
66 1 -9.644 -2.1696 -6.6363 12
67 1 -8.163 5.50724 -8.61224 13
68 1 -4.81932 -2.64124 -7.25807 18
69 1 6.11553 1.50323 2.98963 24
70 1 -2.04642 -3.22939 6.59485 13
71 1 -4.73014 1.71311 -11.5307 12
72 1 -11.4871 0.916611 -6.13654 10
73 1 -5.32132 -10.0571 -2.33763 11
74 1 -7.54827 6.81302 6.48765 12
75 1 -7.12071 7.13454 -2.14286 22
76 1 -1.55496 -7.9367 -6.79489 12
77 1 -0.303448 10.9911 5.07061 13
78 1 -10.2624 -0.702061 -8.96437 10
79 1 -10.2169 7.40114 -2.13806 16
80 1 -4.94437 -7.95924 -8.35107 7
81 1 4.9849 -6.73609 2.67103 12
82 1 -9.30525 5.95599 -5.1777 15
83 1 -7.12001 -0.947323 6.39862 14
84 1 -10.1247 7.28983 3.62665 15
85 1 -0.60367 -5.09762 -7.42827 17
86 1 -1.5178 2.23523 5.39918 21
87 1 -0.700305 -6.49187 5.83977 10
88 1 1.39807 -4.31077 -4.91405 20
89 1 6.85376 6.61407 -2.99245 17
90 1 1.38505 1.4235 -9.95945 14
91 1 6.09148 -4.28577 3.38541 9
92 1 -5.13236 -6.98153 -3.76093 19
93 1 -8.45196 1.6291 4.54631 12
94 1 7.31101 3.02156 6.12988 10
95 1 7.25376 10.0133 -3.92781 11
96 1 0.412419 6.19578 -7.5249 22
97 1 -2.08497 10.619 -9.39147 12
98 1 1.472 10.0503 2.25934 12
99 1 2.94601 5.65863 -8.96458 14
100 1 -0.209054 -6.46826 0.339562 21
101 1 6.69133 0.911061 -2.65652 25
102 1 -2.19079 -9.60609 -0.160783 11
103 1 -9.37829 2.37886 -8.49223 16
104 1 10.1414 1.60217 -3.00576 11
105 1 -5.85945 6.42067 -4.75029 23
106 1 2.01066 -6.2306 -7.02044 11
107 1 -8.38807 -1.32344 3.37826 15
108 1 -2.32047 -7.82641 -2.74019 19
109 1 2.0067 -4.37435 -9.73469 9
110 1 1.05345 9.93495 -2.79493 20
111 1 2.62234 -6.46077 0.892613 17
112 1 -6.76382 -5.14346 -6.83666 13
113 1 -0.57692 1.16326 8.16577 12
114 1 -1.64409 3.981 8.81507 12
115 1 3.37994 -1.53073 -9.69121 12
116 1 -10.9352 4.37713 -6.97544 11
117 1 1.70376 11.1056 -5.86046 12
118 1 4.66699 1.64814 -5.08871 23
119 1 -2.04136 7.22756 -9.32876 18
120 1 -8.69124 7.37106 0.862669 23
121 1 0.270942 -1.01409 5.65029 18
122 1 -7.39768 3.55752 -10.9987 11
123 1 8.67747 -0.950257 1.80679 12
124 1 4.02407 3.00724 7.86903 10
125 1 1.40421 -6.7492 3.64018 15
126 1 5.98094 6.83587 1.21704 14
127 1 6.97251 4.58115 3.34938 12
128 1 -3.77958 -5.67932 -6.61688 19
129 1 3.00519 6.56948 7.62966 11
130 1 -4.64344 5.99962 -7.78874 21
131 1 -3.43938 4.94067 5.32884 21
132 1 -7.54098 -7.81688 -1.5354 13
133 1 2.85792 6.79279 1.92672 20
134 1 -7.21641 9.75162 5.31825 9
135 1 -5.24635 8.10152 0.182214 21
136 1 5.78721 9.89982 -6.72691 10
137 1 1.23239 3.83542 8.32232 15
138 1 -1.93754 1.3049 -10.2606 15
139 1 0.0656718 4.87785 5.74206 20
140 1 8.93907 -0.549615 -5.19737 12
141 1 4.98526 9.40382 1.90618 13
142 1 3.10626 -4.34477 3.13333 23
143 1 -1.23943 9.84005 2.13952 16
144 1 1.53801 -2.36545 -7.25916 23
145 1 4.15028 -5.57506 5.60016 12
146 1 -6.42396 4.09204 5.48158 17
147 1 7.99334 1.61734 0.327933 19
148 1 -1.05464 12.8641 -7.08185 8
149 1 6.40287 4.49968 -5.70115 17
150 1 -4.85738 1.75145 5.97049 15
151 1 -5.33657 -3.9104 6.56343 12
152 1 -9.45008 10.4924 -1.09182 10
153 1 5.92064 10.985 -0.697656 9
154 1 -9.23175 -4.99565 3.06922 11
155 1 8.06841 3.79213 -2.73848 18
156 1 -9.69424 -5.24193 -0.712057 13
157 1 6.95961 4.54161 -0.182314 16
158 1 4.94552 -2.14814 -1.96029 20
159 1 1.58228 7.98946 5.86162 15
160 1 -10.5253 -0.950825 -4.031 14
161 1 -2.50728 9.18695 -3.75183 22
162 1 2.91845 8.09893 -7.18377 17
163 1 -6.56598 0.596829 -7.5154 21
164 1 0.29561 -1.36232 -9.88523 14
165 1 -3.75621 -9.25816 -5.17041 10
166 1 0.0100008 -4.53839 3.19246 22
167 1 8.26073 -1.41041 -1.88568 13
168 1 -11.5115 4.36745 -3.19091 14
169 1 -4.26963 8.39293 -10.4904 9
170 1 -8.73515 -4.15512 -4.30916 14
171 1 7.54012 -0.293365 5.1753 13
172 1 -4.6161 -0.797978 -9.75738 15
173 1 -11.1486 8.25911 0.708337 12
174 1 -4.8218 4.49218 7.89619 11
175 1 5.07665 7.82164 -1.09037 21
176 1 7.60743 7.22148 -5.82265 12
177 1 -4.17541 -6.9531 5.75732 8
178 1 1.12472 3.37718 -7.42618 20
179 1 4.51183 7.65821 -4.87913 24
180 1 4.58696 6.8924 4.36557 12
181 1 -0.685488 9.65064 -6.78317 22
182 1 9.25593 2.98321 -5.42777 9
183 1 5.03079 -0.951842 -6.96233 14
184 1 -3.43439 10.8347 4.13308 12
185 1 -3.71522 11.2459 0.684443 13
186 1 -5.69174 -6.74599 2.96337 15
187 1 3.05401 -5.31417 -2.1028 16
188 1 -8.13875 -2.20117 -2.07805 20
189 1 -8.37841 9.05597 -4.35558 13
190 2 -10.3381 1.29933 -0.355299 14
191 2 6.41025 6.38685 -0.812054 17
192 2 -5.19361 1.3538 -8.22241 21
193 2 -11.0205 2.59153 -7.19333 12
194 2 -3.65592 -6.80623 2.77506 16
195 2 0.433744 -0.537692 7.6498 13
196 2 6.47593 1.02684 -0.601231 24
197 2 -2.93842 5.4661 8.87867 12
198 2 5.01248 -2.18619 -5.35332 17
199 2 -5.27264 3.50652 -10.7159 13
200 2 -3.00845 -3.85015 -7.09569 17
201 2 -2.90091 11.0917 2.35899 13
202 2 8.56227 -0.658267 3.64763 11
203 2 4.10806 11.1305 -1.27221 11
204 2 -3.73356 8.63652 7.87138 10
205 2 5.56726 9.28976 0.123813 13
206 2 1.28783 9.17127 -6.38059 19
207 2 2.57427 -0.00242233 -9.7718 13
208 2 -8.54807 3.58636 -9.64293 14
209 2 -0.443097 -6.8413 3.97689 15
210 2 -8.88849 3.63614 4.5997 16
211 2 3.05528 -5.15678 -5.88598 14
212 2 -3.82648 -10.1012 -0.931213 11
213 2 1.55316 7.78963 8.22426 11
214 2 3.19882 -0.810737 6.88312 14
215 2 -7.33458 -5.60142 2.94731 16
216 2 -2.01875 -7.84916 0.816507 17
217 2 -9.56296 -4.97624 1.16137 10
218 2 -6.58174 -9.24749 -0.963881 10
219 2 -8.48909 -6.64205 -0.367492 13
220 2 -5.5209 11.0459 -2.03134 12
221 2 1.4167 1.61653 -7.99759 18
222 2 6.88196 10.7077 -2.26244 9
223 2 2.02515 7.22595 -8.8158 16
224 2 -7.47862 5.17509 -4.58273 21
225 2 8.20769 3.34729 -0.969718 15
226 2 -0.969692 9.8051 0.151695 19
227 2 -7.44934 10.5593 3.54166 10
228 2 -0.787369 10.6592 -3.06891 18
229 2 -1.54229 11.1247 -7.67379 15
230 2 -0.133211 7.04069 4.97261 21
231 2 -1.71371 -1.65763 5.32741 20
232 2 1.87352 -2.61371 -10.3373 9
233 2 -1.78991 -8.14959 -4.87553 16
234 2 -2.15831 -6.19272 -7.3882 14
235 2 -8.84165 -4.16285 -2.3647 18
236 2 6.42916 -1.1639 -2.32049 17
237 2 5.25494 5.1199 3.95366 15
238 2 -2.01375 3.34233 -10.8455 13
239 2 -0.0688446 0.510152 -10.4135 11
240 2 -3.67694 -1.4213 -8.19571 18
241 2 1.21117 -4.40033 -8.04169 15
242 2 5.39593 0.948681 -7.41984 14
243 2 -5.36759 -3.4789 2.60051 21
244 2 -0.158042 -1.70982 -8.01001 21
245 2 -3.78862 -8.81903 -7.01746 10
246 2 -3.59519 4.3385 -8.18301 20
247 2 -5.27942 7.79057 2.26888 20
248 2 -6.82603 -4.47356 0.0325264 26
249 2 -5.26666 9.83523 4.63674 16
250 2 -8.93352 -3.08474 2.73604 13
251 2 -11.6841 2.75108 -2.46211 12
252 2 3.22115 -3.78938 6.73152 10
253 2 6.74137 4.71097 -3.7291 22
254 2 -3.75553 0.517718 -10.8052 14
255 2 1.42155 8.19981 1.95919 20
256 2 4.59057 7.45716 2.47338 18
257 2 -0.209283 2.65016 9.30272 9
258 2 -8.28007 6.51322 2.41532 19
259 2 -6.98101 0.565295 -5.47809 19
260 2 7.86727 7.86529 -3.96327 11
261 2 -9.71495 -0.581968 -2.17829 16
262 2 -6.98382 8.32149 -5.35551 14
263 2 2.80228 3.89339 -7.98554 16
264 2 -7.09127 7.27759 -0.315183 21
265 2 4.09416 -4.00495 -3.26224 16
266 2 -1.09873 -9.19344 -1.66001 11
267 2 -8.2221 10.7408 0.594055 14
268 2 0.889694 -5.93864 1.95455 17
269 2 1.39233 -7.00478 -0.443276 14
270 2 3.00079 4.7677 8.19449 10
271 2 -3.78946 10.5736 -3.92508 15
272 2 -6.4281 -2.69751 5.35421 14
273 2 -3.48865 -4.61387 0.393759 19
274 2 -3.78558 -2.83236 6.73575 10
275 2 -0.624197 9.47878 -9.7255 11
276 2 9.77465 1.05751 -4.8513 11
277 2 3.37679 1.92899 4.84681 21
278 2 4.84289 7.42229 -2.84015 19
279 2 0.199733 10.2433 3.48565 15
280 2 -8.61233 -1.46143 -0.1029 19
281 2 -1.09066 8.27478 8.7769 12
282 2 5.59602 -0.582309 5.12783 14
283 2 -0.437185 6.47328 -10.5387 12
284 2 -0.212713 4.92163 7.72786 18
285 2 4.85486 -4.78241 1.98734 14
286 2 -10.8737 -0.742912 -7.09856 11
287 2 -9.6054 7.48639 -3.98144 15
288 2 -9.30509 0.755053 -9.8179 12
289 2 -5.21576 -5.47173 5.42028 11
290 2 3.33448 10.27 1.89913 13
291 2 -6.15924 -3.73565 -8.10231 13
292 2 8.50683 0.734766 -2.13529 17
293 2 -10.4784 9.12003 -0.98327 13
294 2 8.27602 -1.5218 0.106337 12
295 2 -8.43316 -0.176052 5.30523 11
296 2 -7.18466 -4.57587 -5.14957 18
297 2 -2.12115 8.97718 -5.57976 17
298 2 -9.8826 8.66678 2.28689 12
299 2 -0.554209 -4.60612 6.10387 14
300 2 -10.3218 6.68753 -0.178775 18
301 2 -7.91755 9.64397 -2.53629 14
302 2 -3.72313 6.89021 5.19064 20
303 2 -9.29937 5.59345 -7.19082 12
304 2 2.47067 10.8044 -4.24172 13
305 2 -6.59489 7.86617 5.23424 17
306 2 0.9027 3.38791 4.87294 19
307 2 -8.98368 -2.02462 -8.49416 10
308 2 -1.15809 7.48558 -7.60795 20
309 2 -4.10437 -5.72837 -4.69189 23
310 2 4.82904 2.55145 2.04312 20
311 2 5.37488 9.80116 -4.82949 15
312 2 2.31805 -5.4989 4.75793 19
313 2 4.61823 3.47764 -5.67781 20
314 2 3.32743 6.92076 5.83704 10
315 2 -5.95063 4.82188 3.63152 21
316 2 -9.10258 -2.26223 -4.84284 14
317 2 -3.63342 -6.69439 -1.94523 19
318 2 -2.95571 11.6673 -0.890811 12
319 2 -10.9551 5.4585 3.23841 14
320 2 -7.98843 1.65708 2.35041 17
321 2 -4.70585 -8.79365 -3.63519 12
322 2 2.28256 2.00074 7.62366 15
323 2 -3.10591 8.99208 -8.90965 16
324 2 2.81082 6.84441 -5.44498 22
325 2 0.26773 -7.00211 -6.7761 10
326 2 8.30933 1.42014 5.65203 10
327 2 5.43165 2.63863 6.60104 13
328 2 -2.12555 12.6086 -5.31449 12
329 2 -6.49694 4.95851 -7.84579 19
330 2 -6.57508 -0.839011 -9.91052 14
331 2 -2.32986 10.0581 5.67312 16
332 2 -4.93901 10.2554 -6.72293 13
333 2 -10.8759 4.72438 -4.99018 12
334 2 -9.33097 6.59854 5.44233 13
335 2 -0.0841889 4.70233 -8.55782 20
336 2 3.22689 -1.59428 -7.84672 17
337 2 -9.89622 5.02307 -2.43422 17
338 2 -3.79733 6.57653 -10.187 14
339 2 4.53893 -3.18154 3.97002 19
340 2 -6.61606 2.02179 5.16593 17
341 2 -6.24923 5.47261 7.10018 13
342 2 5.754 -5.81051 4.44593 9
343 2 -11.6453 3.95917 0.383261 12
344 2 -5.2221 -0.438099 6.1585 15
345 2 -2.40874 -6.98134 5.94061 9
346 2 8.90886 0.975621 1.81664 14
347 2 -0.290301 -4.87275 -5.28195 23
348 2 -5.37654 10.0517 0.498069 15
349 2 -6.70438 1.61958 -11.6248 11
350 2 -6.59141 -0.847577 2.74967 23
351 2 1.29344 -2.64304 4.73975 20
352 2 4.73329 5.53893 -8.54398 12
353 2 7.03283 2.75205 3.83765 18
354 2 6.30272 -0.269328 2.27655 20
355 2 7.23483 -0.507861 -5.96457 12
356 2 3.04644 -4.83214 -0.250281 20
357 2 4.4076 -2.06529 -0.069821 20
358 2 -4.48956 3.51647 6.29843 15
359 2 7.16813 8.45661 -7.13825 9
360 2 -10.4812 0.735968 -4.68285 13
361 2 -8.64924 4.0632 0.768278 20
362 2 3.27865 -7.10702 2.66333 12
363 2 0.499618 12.5647 -5.95639 9
364 2 9.56988 3.27429 -3.59646 10
365 2 4.66843 8.63188 -7.48938 13
366 2 1.82068 -3.26297 1.99679 23
367 2 8.66671 -1.73961 -3.90198 10
368 2 -0.43951 -6.71092 -2.70382 17
369 2 -5.85271 -6.59237 -7.58587 10
370 2 1.63364 9.77439 -0.923627 18
371 2 0.499781 9.95801 6.43301 11
372 2 -5.41296 -7.44111 1.12582 18
373 2 -2.11966 2.09425 7.36621 17
374 2 6.84225 5.2939 1.56398 13
375 2 5.95474 6.26458 -6.23963 19
376 2 -5.30999 7.73036 -7.7266 15
377 2 -6.58769 -6.70499 -2.61816 19
378 2 7.64008 2.96516 -6.21631 14
379 1 -6.58006 -1.09112 -4.8469 21
380 1 -3.5098 0.651322 -7.45856 22
381 1 -1.92263 -3.90667 -4.66455 23
382 1 -3.60598 -1.34855 -4.70159 24
383 2 -5.06388 -3.7694 -2.5017 23
384 2 -6.69989 -1.03321 -2.92497 24
385 2 -7.84251 2.46395 -6.94082 19
386 2 -5.26472 -2.45504 -5.30557 24
387 2 -1.89142 -3.85765 -2.77244 24
388 2 -3.65585 -0.974775 -2.59958 23
389 2 -3.44108 0.484427 -5.44209 24
390 2 -1.86016 -1.99934 -5.3859 22
391 1 -6.81796 0.943035 -2.217 22
392 1 -5.0947 -2.00614 -1.72962 23
393 1 -5.18165 -3.63791 0.776042 24
394 1 -7.09026 -0.723663 0.825817 24
395 1 -6.28429 1.05573 3.10202 23
396 1 -4.998 -1.73595 3.62237 22
397 1 -3.3934 -4.69044 -1.85274 23
398 1 -3.55082 0.981469 -2.22627 24
399 1 -1.77526 -1.84194 -2.14474 23
400 1 -1.78985 -3.49364 0.607873 23
401 1 -3.3858 -0.495053 0.630362 23
402 1 -3.23927 1.15001 3.08491 23
403 1 -1.84486 -1.67204 3.18402 20
404 2 -6.99969 1.04898 -0.086817 23
405 2 -4.86539 -1.68016 0.268259 23
406 2 -1.83004 -3.65502 2.66171 23
407 2 -3.56939 -0.814159 2.70531 23
408 2 -3.58402 1.38829 -0.233604 23
409 2 -1.94187 -1.62766 -0.174233 24
410 2 -3.30916 1.10867 4.97963 19
411 1 -5.32642 1.39312 -4.70862 22
412 1 -6.96746 3.86326 -6.0027 22
413 1 -1.8455 3.54175 -7.68127 22
414 1 -2.07013 1.77746 -5.01374 23
415 1 -3.57554 4.3783 -4.8344 22
416 1 -2.20506 6.90696 -5.80393 22
417 2 -8.27423 2.0885 -3.11911 24
418 2 -5.12458 1.98439 -2.84968 22
419 2 -6.8189 5.15231 -1.83871 20
420 2 -5.24632 3.41696 -5.32103 24
421 2 -5.22277 7.36497 -3.04066 20
422 2 -1.93301 1.68838 -8.2112 23
423 2 -1.92863 1.92076 -2.99267 22
424 2 -3.53658 4.48193 -2.86551 20
425 2 -3.9539 6.10761 -5.51701 22
426 2 -1.72986 3.73167 -5.78807 23
427 2 -1.96534 7.63496 -2.65808 22
428 1 -5.41635 3.83682 -2.50464 22
429 1 -5.2485 2.08939 0.306362 20
430 1 -6.69636 5.09077 0.200619 22
431 1 -4.91662 3.97366 2.3626 21
432 1 -3.53245 6.59057 -2.32114 21
433 1 -1.80921 3.70835 -2.60543 21
434 1 -1.98785 2.24137 0.206845 22
435 1 -3.42442 5.33675 -0.0336631 23
436 1 -3.66849 7.02151 2.85424 21
437 1 -1.72641 4.29708 2.80338 21
438 1 -1.67459 8.1699 -0.636471 20
439 2 -4.8342 2.04082 2.28047 20
440 2 -5.17007 4.08834 0.291428 19
441 2 -1.45562 2.33476 2.2853 24
442 2 -3.38916 5.22124 2.12055 22
443 2 -3.75201 7.18301 -0.405072 19
444 2 -1.73196 4.00288 -0.479933 22
445 2 -1.64317 4.34759 4.82867 21
446 2 -2.05925 8.31225 3.31766 19
447 1 -0.233452 0.648895 -7.62376 21
448 1 -0.182073 -1.08063 -4.85367 23
449 1 3.23124 -1.27737 -4.88812 21
450 2 1.71318 -4.21021 -2.92204 21
451 2 -0.304884 -1.08367 -2.86064 23
452 2 -0.552951 0.67439 -5.31895 23
453 2 1.37555 -2.26489 -5.29321 22
454 2 3.41725 -1.05896 -2.82618 20
455 2 3.36178 0.425898 -5.58088 20
456 1 -0.022696 -4.81537 -2.17919 21
457 1 -0.270092 1.22254 -2.4008 24
458 1 1.68618 -2.15492 -2.34126 23
459 1 1.44159 -3.57862 0.179397 21
460 1 -0.24594 -0.690499 0.542089 25
461 1 -0.0630468 1.04983 3.2367 23
462 1 1.6409 -1.60909 2.99734 20
463 1 3.4304 0.917545 -2.2488 23
464 1 3.07289 -0.734937 0.416855 22
465 1 3.03333 1.44136 2.72601 21
466 2 -0.293238 -4.55422 -0.162798 23
467 2 -0.323829 -0.665803 2.58945 22
468 2 -0.228641 0.925027 -0.531639 23
469 2 1.27716 -1.80238 -0.319885 23
470 2 0.0144363 0.835224 5.15439 24
471 2 3.21123 -0.596333 2.33591 25
472 2 3.13299 1.23513 0.0401702 21
473 1 1.51361 1.58974 -5.17402 22
474 1 -0.0686242 4.36085 -4.85893 23
475 1 3.23788 4.9676 -5.00908 25
476 2 1.7001 1.54971 -3.18042 22
477 2 0.130883 4.65186 -2.96143 21
478 2 -0.294711 6.29719 -5.49505 21
479 2 1.72169 3.49005 -5.42209 21
480 2 1.36463 7.8149 -3.24349 20
481 2 4.97544 1.701 -3.1624 19
482 2 3.38029 4.64126 -2.96081 22
483 1 -0.190959 6.67394 -2.68077 19
484 1 1.86276 3.3817 -2.32115 21
485 1 1.32962 2.20182 0.205201 22
486 1 -0.0747648 5.23168 0.0245931 23
487 1 -0.226741 7.20948 2.80685 22
488 1 1.01812 4.06387 2.98721 21
489 1 1.59966 7.93921 -0.0634636 21
490 1 3.01116 6.71392 -2.327 22
491 1 5.19767 3.91239 -2.65378 21
492 1 5.03366 1.91513 0.132262 19
493 1 3.53505 4.7893 0.0247102 23
494 2 1.23289 2.13725 2.26475 23
495 2 -0.411233 5.56737 2.14809 21
496 2 -0.192572 7.11579 -0.762178 20
497 2 1.52007 4.0633 -0.407691 22
498 2 2.70818 4.60561 2.2676 20
499 2 3.3059 6.96295 -0.217862 22
500 2 4.95772 3.84412 -0.850928 25
