ITEM: TIMESTEP
38000
ITEM: NUMBER OF ATOMS
1500
ITEM: BOX BOUNDS pp pp pp
-30.0 30.0
-30.0 30.0
-30.0 30.0
ITEM: ATOMS id type x y z Coordination
1 1 -13.9932 -0.607899 -8.39639 12
2 1 -13.494 -3.75854 -6.44071 11
3 1 -13.3786 -5.74762 -3.60033 13
4 1 -15.0962 -3.42562 -2.98674 11
5 1 -11.6153 -7.21327 -6.09973 16
6 1 -9.65315 -10.118 -6.48959 17
7 1 -9.83933 -11.2969 -3.61851 19
8 1 -11.6165 -8.62416 -3.05527 18
9 1 -11.9493 -0.238742 -11.3838 11
10 1 -12.1724 -2.79519 -9.21047 15
11 1 -9.85958 -5.41709 -8.7594 18
12 1 -13.3951 1.92709 -5.66455 18
13 1 -12.1289 -0.884595 -5.91968 20
14 1 -9.99478 -4.01304 -6.12356 22
15 1 -10.2815 -6.12985 -3.16505 23
16 1 -11.7024 -3.17962 -3.44107 24
17 1 -8.56807 -13.6038 -4.92608 10
18 1 -8.08312 -6.54431 -11.569 13
19 1 -6.28581 -10.5444 -10.6652 9
20 1 -7.35554 -11.7573 -8.588 10
21 1 -8.12099 -8.30275 -8.83872 18
22 1 -8.36677 -6.82387 -5.79515 25
23 1 -6.68865 -9.57434 -6.10778 20
24 1 -6.81651 -11.3103 -3.0906 22
25 1 -8.40687 -8.4496 -3.2568 22
26 1 -6.20781 -6.67185 -14.4201 8
27 1 -9.98629 -3.49068 -11.7475 14
28 1 -9.24344 -0.56152 -11.1608 20
29 1 -7.21859 -2.95499 -11.1981 19
30 1 -6.63008 -5.57994 -8.884 25
31 1 -8.59385 -3.0205 -8.66547 22
32 1 -8.95246 -0.958105 -6.15019 23
33 1 -6.89888 -3.83525 -6.20875 21
34 1 -6.63218 -5.66034 -3.23666 24
35 1 -8.33632 -2.6953 -3.58066 22
36 1 -5.79789 -12.4008 -5.81435 16
37 1 -5.29845 -14.2973 -4.01818 14
38 1 -4.96535 -7.10999 -11.3357 19
39 1 -2.54645 -8.15713 -13.9781 12
40 1 -3.54672 -11.5809 -8.90249 14
41 1 -4.86886 -8.44107 -8.85791 20
42 1 -5.3094 -6.30748 -5.94694 22
43 1 -3.61367 -9.65858 -5.91671 20
44 1 -3.40081 -11.4119 -3.30021 21
45 1 -4.99954 -8.60925 -3.21911 23
46 1 -3.34881 -5.5826 -14.0183 18
47 1 -5.13416 -2.76804 -14.0342 15
48 1 -5.71147 -0.903067 -11.3308 23
49 1 -3.80855 -3.90844 -11.2578 20
50 1 -3.53642 -5.46591 -8.81528 24
51 1 -5.35558 -2.56118 -8.5978 23
52 1 -5.28551 -0.820532 -5.94446 24
53 1 -3.61221 -3.97038 -6.0209 22
54 1 -3.47639 -5.79074 -3.0658 23
55 1 -5.0619 -2.81658 -3.27882 25
56 1 -2.46944 -13.4214 -6.8264 11
57 1 -0.0958435 -15.8835 -5.5113 11
58 1 -1.9364 -14.5792 -3.78341 18
59 1 0.385834 -7.21926 -13.5371 15
60 1 -1.99909 -6.50646 -11.1679 23
61 1 -0.879573 -9.312 -11.1107 16
62 1 -0.194707 -11.8882 -8.47842 16
63 1 -1.9065 -8.5821 -8.41223 22
64 1 -2.13568 -6.77484 -5.65276 24
65 1 -0.270263 -9.69419 -5.89574 21
66 1 -0.115804 -11.6822 -3.21922 20
67 1 -1.7789 -8.67756 -3.04805 22
68 1 -0.505613 -5.34593 -15.5027 11
69 1 -1.95461 -2.7875 -14.759 13
70 1 -2.34197 -0.927778 -11.429 21
71 1 -0.548371 -3.92198 -11.5083 21
72 1 -0.532731 -5.71257 -8.49929 24
73 1 -1.71509 -2.81519 -8.67775 23
74 1 -1.99321 -0.78196 -5.94817 23
75 1 -0.352168 -3.78054 -5.7912 23
76 1 -0.260924 -5.78836 -3.10878 24
77 1 -2.01088 -3.05832 -3.11278 25
78 2 -11.7125 -2.89327 -6.42116 18
79 2 -14.2157 -4.80317 -2.13027 10
80 2 -14.7678 -1.8174 -2.21211 12
81 2 -13.599 -2.44884 -8.00673 10
82 2 -13.5528 -3.76388 -4.40938 14
83 2 -11.3949 -9.01192 -6.28843 12
84 2 -8.43575 -4.52675 -11.4914 13
85 2 -10.5382 -11.5197 -1.8072 15
86 2 -11.8319 -8.94199 -1.23353 14
87 2 -11.8925 -6.70708 -4.03446 19
88 2 -9.87424 -9.33209 -3.81314 23
89 2 -10.0397 -5.91897 -6.89241 19
90 2 -13.7873 0.938277 -7.22403 12
91 2 -12.3396 -0.962075 -9.87041 16
92 2 -10.2896 -3.54286 -9.48044 18
93 2 -10.3881 -5.66566 -1.1678 20
94 2 -11.993 -3.30651 -1.28873 22
95 2 -12.0567 -1.12485 -3.76327 20
96 2 -10.1687 -4.21622 -4.18518 23
97 2 -8.34346 -12.6653 -3.22018 15
98 2 -7.25997 -11.2635 -6.70608 17
99 2 -8.4753 -8.52533 -6.96472 20
100 2 -8.25878 -6.47541 -9.52921 18
101 2 -7.85215 -10.1209 -9.46264 11
102 2 -7.00995 -11.4592 -1.18348 19
103 2 -8.58499 -8.49252 -1.36179 25
104 2 -8.3586 -6.48504 -3.86645 22
105 2 -6.8333 -9.55031 -3.82641 24
106 2 -6.64454 -7.02702 -12.5638 11
107 2 -10.8511 -1.76798 -11.8743 12
108 2 -6.89394 -5.60899 -6.72976 24
109 2 -8.58079 -2.82697 -6.65124 22
110 2 -8.68807 -1.00358 -9.09137 21
111 2 -6.79495 -3.67131 -9.49904 24
112 2 -6.69951 -5.90023 -1.44154 25
113 2 -8.51223 -3.04306 -1.40658 24
114 2 -8.59767 -0.772458 -3.96041 22
115 2 -6.83495 -3.80341 -4.33497 23
116 2 -5.72473 -11.8381 -9.49059 11
117 2 -3.8109 -15.1892 -3.12583 11
118 2 -6.71191 -14.0928 -5.14365 9
119 2 -5.04064 -12.364 -3.60296 20
120 2 -4.42763 -7.3006 -14.0498 11
121 2 -3.97766 -11.9083 -6.31519 18
122 2 -5.06077 -8.45395 -6.72842 22
123 2 -4.92782 -6.5279 -9.37996 21
124 2 -3.52621 -9.66146 -8.81712 17
125 2 -3.63814 -11.4494 -1.25199 22
126 2 -5.25167 -8.71853 -0.906137 22
127 2 -5.19868 -6.67459 -3.82155 24
128 2 -3.35693 -9.25351 -3.93963 21
129 2 -3.61258 -5.6168 -12.1764 20
130 2 -5.72765 -3.00807 -12.2389 18
131 2 -5.68804 -0.788485 -14.2616 12
132 2 -3.61705 -3.68272 -14.668 15
133 2 -3.38558 -5.72999 -6.75199 23
134 2 -5.17945 -2.72586 -6.51501 21
135 2 -5.59282 -0.776295 -9.23373 22
136 2 -3.73168 -3.53262 -9.24834 24
137 2 -3.64695 -5.75357 -1.1434 26
138 2 -5.32212 -2.94491 -1.40454 25
139 2 -5.23496 -0.954493 -3.7942 21
140 2 -3.51495 -3.87114 -3.89348 22
141 2 -1.94386 -12.7565 -8.58761 11
142 2 -5.63774 -8.87297 -10.7787 15
143 2 -1.21895 -14.9791 -1.99534 17
144 2 -1.89762 -12.5001 -3.66717 22
145 2 -1.4245 -14.5979 -5.7536 14
146 2 -2.26514 -8.23635 -11.9295 17
147 2 -1.45241 -6.7667 -14.7092 12
148 2 0.0491167 -11.579 -6.57511 19
149 2 -1.8662 -8.63163 -6.45887 21
150 2 -2.06067 -6.87818 -9.1252 22
151 2 -0.495572 -10.0134 -9.28847 19
152 2 -0.427821 -11.9825 -0.505532 21
153 2 -1.79677 -8.81699 -1.14887 25
154 2 -1.95438 -6.79996 -3.63952 21
155 2 -0.290544 -9.83515 -3.80702 22
156 2 -0.282149 -5.82597 -11.9861 22
157 2 -2.4939 -2.74105 -11.9 22
158 2 -1.94897 -0.955815 -14.2448 17
159 2 -0.238089 -3.5686 -14.7972 17
160 2 -0.412865 -5.71515 -6.51828 24
161 2 -1.9447 -2.78092 -6.4217 23
162 2 -1.93004 -0.885907 -9.1503 22
163 2 -0.409031 -4.0527 -9.45729 23
164 2 -0.301969 -5.83671 -0.614458 18
165 2 -1.92837 -2.87133 -1.16306 23
166 2 -2.03421 -0.822181 -3.92422 23
167 2 -0.378477 -3.92451 -3.71762 23
168 1 -12.2764 -11.1255 -1.99974 9
169 1 -12.3014 -10.7764 -5.60403 9
170 1 -15.0296 -0.886714 -0.631831 14
171 1 -13.6738 -4.41833 -0.422647 19
172 1 -13.768 -5.80352 2.00156 13
173 1 -15.7458 -2.79332 2.33254 11
174 1 -15.0574 -1.35771 4.69074 15
175 1 -13.8954 -4.04012 4.81033 17
176 1 -13.1144 -5.69744 7.80501 12
177 1 -11.4415 -7.18142 -0.308826 16
178 1 -10.0404 -9.84477 -0.634266 20
179 1 -8.88018 -12.3062 3.06055 13
180 1 -11.3849 -9.5764 2.76532 11
181 1 -12.017 -6.95855 4.78526 18
182 1 -10.1492 -9.92824 4.9874 17
183 1 -11.6566 -9.00153 7.53336 12
184 1 -11.8479 -1.53956 -0.492061 23
185 1 -10.0557 -3.98918 -0.669777 24
186 1 -10.3504 -5.57951 2.19557 22
187 1 -12.339 -2.9579 2.13342 23
188 1 -11.938 -0.920221 4.49117 23
189 1 -10.4852 -3.64798 4.58103 22
190 1 -10.4902 -5.70175 7.0664 19
191 1 -11.7585 -2.90138 7.69266 23
192 1 -12.2377 -1.15043 10.0951 12
193 1 -7.39413 -8.94602 10.7606 14
194 1 -8.77132 -12.3733 -0.870241 14
195 1 -6.88322 -11.7449 8.66025 15
196 1 -8.3856 -6.64661 -0.619426 23
197 1 -6.96958 -9.54446 -0.581497 25
198 1 -6.48543 -11.5383 1.87755 19
199 1 -8.6225 -8.67041 2.15293 23
200 1 -8.77036 -6.67636 4.55663 22
201 1 -7.06886 -10.0612 4.63268 21
202 1 -5.52044 -14.3364 7.31584 11
203 1 -8.50685 -8.42979 7.35704 20
204 1 -9.8816 -10.4301 8.74533 10
205 1 -3.93088 -12.6514 10.3892 11
206 1 -8.46987 -0.938495 -0.779234 22
207 1 -6.73161 -3.7496 -0.630241 24
208 1 -7.12004 -5.61075 1.95619 22
209 1 -8.80284 -2.75891 1.80073 20
210 1 -8.56041 -0.831305 4.71519 25
211 1 -7.08989 -3.90858 4.63535 21
212 1 -7.10233 -5.83901 7.233 21
213 1 -8.64007 -2.84106 7.07812 20
214 1 -10.449 -7.52737 10.4726 13
215 1 -7.17102 -4.34331 9.98673 19
216 1 -8.45618 -6.03439 12.0457 10
217 1 -11.5557 -4.31395 10.4255 12
218 1 -5.22099 -12.5123 -0.915233 19
219 1 -2.99811 -15.4802 -1.45376 11
220 1 -4.92233 -14.3237 1.05646 12
221 1 -5.78962 -12.8631 5.03675 17
222 1 -3.81487 -15.4094 4.41033 11
223 1 -5.25705 -6.77275 -0.366267 25
224 1 -3.74397 -9.6324 -0.522456 24
225 1 -3.78766 -11.295 2.39831 24
226 1 -5.34197 -8.71839 1.93605 23
227 1 -5.42263 -7.02957 4.82831 22
228 1 -3.63519 -9.78519 4.62229 22
229 1 -3.96898 -11.5963 7.59308 20
230 1 -5.53296 -8.95708 7.42615 23
231 1 -5.56359 -6.77492 9.96193 16
232 1 -4.20393 -9.90475 10.4499 18
233 1 -0.692782 -7.96213 13.5858 8
234 1 -5.39758 -0.941718 -0.707986 23
235 1 -3.75945 -3.78822 -0.567088 23
236 1 -3.96789 -5.85746 2.57523 25
237 1 -5.39598 -2.97697 1.96484 24
238 1 -5.24063 -0.758033 4.61021 22
239 1 -3.85052 -3.95662 5.11094 23
240 1 -3.65677 -6.04026 7.60323 23
241 1 -5.71157 -2.92481 7.33353 21
242 1 -5.83054 -1.31642 9.73044 21
243 1 -3.76485 -4.1548 9.84586 19
244 1 -1.88282 -11.2529 13.0968 9
245 1 -5.72664 -3.48831 12.5224 11
246 1 -2.25356 -12.592 -0.495892 24
247 1 -0.0847017 -15.4415 -0.451917 14
248 1 -1.95311 -14.4568 2.36925 18
249 1 -2.30756 -12.548 4.70637 22
250 1 -0.66629 -15.1793 5.56937 16
251 1 -2.10816 -13.7871 8.2013 14
252 1 -1.12587 -10.3364 10.3225 21
253 1 -1.86442 -6.93997 -0.434605 22
254 1 -0.3741 -9.95193 -0.494727 22
255 1 -0.560725 -11.6118 2.18677 23
256 1 -1.94366 -8.74049 1.89849 22
257 1 -2.16971 -6.78698 4.84086 24
258 1 -0.558198 -9.82795 4.93059 22
259 1 -0.432689 -11.7426 7.24821 22
260 1 -2.16801 -8.87022 7.42986 23
261 1 -1.98583 -6.88816 10.1048 17
262 1 -0.613301 -5.31077 12.6984 13
263 1 0.947666 -10.6502 13.1639 10
264 1 -1.91385 -0.933861 -0.556009 24
265 1 -0.374408 -3.83033 -0.37744 23
266 1 -0.442057 -6.099 2.36984 24
267 1 -2.15266 -3.34354 2.34016 24
268 1 -2.02733 -1.06482 4.65637 24
269 1 -0.634176 -3.95785 4.76095 23
270 1 -0.476477 -5.94938 7.43493 22
271 1 -2.30048 -2.82371 7.45053 21
272 1 -2.10177 -1.10829 9.93711 24
273 1 -0.88299 0.35689 12.3607 17
274 1 1.18952 -2.64171 12.6507 17
275 1 -2.30763 -2.84189 12.3661 13
276 2 -12.7084 -6.25077 0.493175 14
277 2 -10.5319 -11.9228 -5.54043 10
278 2 -13.3166 -5.70928 3.86448 15
279 2 -15.2527 -3.16501 3.88916 13
280 2 -14.7409 -1.17136 1.44588 14
281 2 -14.0966 -3.82929 1.61626 16
282 2 -14.9539 -1.2898 6.39939 14
283 2 -14.2493 -4.38879 6.90589 14
284 2 -10.0313 -10.9124 3.35542 13
285 2 -12.1096 -8.83455 4.2771 12
286 2 -12.2623 -10.318 -3.88143 13
287 2 -10.3891 -9.1451 1.23414 19
288 2 -12.177 -7.06775 6.97768 15
289 2 -10.218 -9.79302 6.80557 14
290 2 -10.546 -6.07453 3.94465 20
291 2 -12.1283 -2.79006 4.21739 21
292 2 -12.142 -1.314 1.3287 20
293 2 -10.5124 -3.65276 1.45882 22
294 2 -10.9042 -8.882 9.31483 11
295 2 -13.5332 -1.67267 8.66341 13
296 2 -11.852 -1.09642 6.62028 24
297 2 -10.3542 -3.77904 6.43316 23
298 2 -11.7751 -4.89591 8.61033 13
299 2 -8.79458 -12.527 1.08879 11
300 2 -6.67902 -12.7491 6.91049 13
301 2 -6.96799 -11.7623 3.77733 19
302 2 -8.4581 -8.65764 4.29607 22
303 2 -8.4804 -6.7578 1.24896 23
304 2 -7.11629 -9.71771 1.45672 25
305 2 -4.06747 -13.5952 8.73638 12
306 2 -7.92613 -10.1315 9.11664 14
307 2 -8.93783 -6.57422 6.63108 22
308 2 -7.1347 -9.30225 6.476 19
309 2 -8.46751 -7.68131 11.4652 11
310 2 -7.118 -5.85758 4.11836 22
311 2 -8.876 -2.88784 3.8927 25
312 2 -8.57503 -1.00372 1.14614 25
313 2 -7.12776 -3.8049 1.34586 26
314 2 -6.98009 -5.98233 9.07893 19
315 2 -8.1702 -2.8356 9.1254 20
316 2 -8.56012 -0.839929 6.87147 22
317 2 -7.1811 -3.94153 6.68938 22
318 2 -8.79536 -0.655058 12.0014 13
319 2 -7.1952 -4.57735 12.0857 12
320 2 -4.22346 -15.003 2.61017 13
321 2 -4.80087 -12.1495 1.22345 18
322 2 -3.97231 -14.1531 -0.543884 16
323 2 -5.16466 -14.469 5.38689 12
324 2 -4.09461 -11.7214 4.51627 21
325 2 -5.27877 -8.71856 3.96896 23
326 2 -5.49269 -6.84437 1.55327 23
327 2 -3.56539 -9.60788 1.448 25
328 2 -2.21855 -12.4521 6.50299 23
329 2 -4.7714 -11.134 9.15269 19
330 2 -5.43955 -6.94537 6.917 21
331 2 -3.6932 -9.9259 6.56797 22
332 2 -5.70153 -8.67242 10.3198 12
333 2 -1.08449 -11.7384 9.10121 20
334 2 -3.76847 -5.66486 4.40281 22
335 2 -5.53996 -2.83581 4.06309 24
336 2 -5.1765 -0.986032 1.60333 22
337 2 -3.95329 -4.03897 1.40551 20
338 2 -3.81183 -6.1367 9.63012 20
339 2 -5.37499 -3.21461 9.30039 25
340 2 -5.27726 -1.11685 6.70733 25
341 2 -3.82882 -4.00477 7.05537 21
342 2 -2.82619 -11.4689 11.5134 11
343 2 -10.6067 -5.74921 11.4538 9
344 2 -5.85118 -1.41823 11.937 19
345 2 -1.28166 -7.0358 11.9503 12
346 2 -1.89683 -14.5287 4.26104 16
347 2 -2.14002 -12.6307 1.67906 22
348 2 -0.684542 -15.3498 1.27606 17
349 2 -0.573609 -14.6796 7.65368 13
350 2 -0.60887 -11.6103 4.16034 26
351 2 -2.12534 -8.60122 4.10345 26
352 2 -2.32031 -6.74673 1.58537 23
353 2 -0.408011 -9.67951 1.49571 25
354 2 1.32066 -16.018 6.33414 8
355 2 -2.11484 -9.03599 9.53621 19
356 2 -2.15351 -7.05767 7.20549 21
357 2 -0.435224 -9.74122 6.94743 24
358 2 1.20798 -5.85869 13.3102 10
359 2 2.27855 -9.82178 12.2085 16
360 2 -0.426859 -6.23113 4.19109 22
361 2 -2.27458 -2.96558 4.27944 23
362 2 -1.87969 -1.19115 1.48275 22
363 2 -0.426967 -3.86176 1.67088 22
364 2 -0.314876 -5.82687 9.40869 23
365 2 -1.98431 -3.02198 9.49274 23
366 2 -2.18791 -1.02327 6.90686 24
367 2 -0.83878 -4.12427 6.8498 22
368 2 -0.127637 -11.5686 11.9487 10
369 2 2.03928 -4.04924 11.5453 17
370 2 1.06625 -0.653183 12.0837 19
371 2 -0.520127 -3.48049 12.2657 17
372 1 -13.1755 2.61782 -8.46918 13
373 1 -14.6626 4.90214 -6.12602 13
374 1 -13.3853 -0.0155261 -2.71211 20
375 1 -15.1093 2.70466 -3.20436 14
376 1 -13.1417 7.7159 -6.5244 12
377 1 -13.8208 5.60843 -3.58863 17
378 1 -10.8719 2.88155 -10.507 15
379 1 -10.5397 -0.0185972 -8.71333 23
380 1 -13.6136 5.35469 -9.0252 10
381 1 -11.5896 5.03364 -5.3339 21
382 1 -10.4075 2.0163 -5.92202 24
383 1 -10.4179 0.0198627 -3.3917 19
384 1 -11.7757 2.7324 -3.04149 24
385 1 -10.6388 6.08091 -8.33805 16
386 1 -10.3787 7.69892 -5.61718 19
387 1 -10.2404 5.85472 -2.96019 23
388 1 -11.7338 9.31902 -3.45763 16
389 1 -10.1458 12.0512 -3.53799 10
390 1 -7.36313 -0.095079 -13.5683 14
391 1 -9.58428 2.10721 -12.946 12
392 1 -8.58976 5.0719 -11.1696 15
393 1 -7.37126 2.51433 -11.132 22
394 1 -7.1937 0.0869806 -8.61428 23
395 1 -8.61442 2.96897 -8.50355 19
396 1 -8.55299 4.74815 -5.85043 22
397 1 -6.70304 1.71273 -5.83843 21
398 1 -6.85951 0.220309 -3.19614 22
399 1 -8.72646 3.05169 -3.18748 23
400 1 -6.36895 10.7054 -10.9315 10
401 1 -7.11666 8.06393 -10.6582 13
402 1 -7.17461 5.9048 -8.05605 25
403 1 -8.61333 8.83423 -8.25612 18
404 1 -8.89235 10.7484 -5.39213 19
405 1 -6.86426 7.90717 -5.79693 23
406 1 -7.12867 6.16936 -3.2467 22
407 1 -8.42468 8.84763 -3.03075 23
408 1 -6.99428 11.38 -8.24891 14
409 1 -7.84913 13.4955 -5.66256 10
410 1 -6.88406 11.351 -3.23383 21
411 1 -3.82108 -0.112336 -13.8744 18
412 1 -5.86864 2.6333 -13.6053 13
413 1 -5.3341 5.403 -10.9375 19
414 1 -3.98459 2.12925 -11.3725 21
415 1 -3.64353 0.294944 -8.92803 19
416 1 -5.47053 2.92263 -8.71425 22
417 1 -5.36739 5.03221 -5.69777 24
418 1 -3.44832 2.05039 -5.85572 20
419 1 -3.74948 0.15861 -3.18013 22
420 1 -5.44017 3.08174 -3.29007 22
421 1 -2.52286 6.48543 -13.3786 13
422 1 -3.41472 11.8525 -8.62535 15
423 1 -3.89866 8.17064 -11.1529 16
424 1 -3.81057 5.7828 -8.17464 25
425 1 -5.1702 8.52728 -8.42791 23
426 1 -5.06455 10.8245 -5.89371 22
427 1 -3.58967 7.78871 -5.72067 23
428 1 -3.53626 5.72266 -3.29537 21
429 1 -4.97812 8.61905 -3.17813 24
430 1 1.94208 15.1317 -7.08154 10
431 1 -3.40682 13.4297 -5.68894 17
432 1 -3.54357 11.6015 -2.74837 24
433 1 -4.97924 14.2519 -3.16743 18
434 1 -0.483183 0.237959 -14.1128 17
435 1 -2.57343 3.01707 -13.9309 15
436 1 -2.104 4.72192 -10.9826 22
437 1 -0.514063 2.03866 -11.1531 23
438 1 -0.346261 -0.0349803 -8.74064 21
439 1 -1.83983 2.80881 -8.57577 23
440 1 -1.89917 4.96025 -5.66364 25
441 1 -0.40762 1.88852 -6.07989 21
442 1 -0.233848 -0.1185 -3.36932 22
443 1 -1.7959 2.66489 -3.28967 22
444 1 -0.538512 4.34333 -15.0418 9
445 1 -0.8597 9.83512 -13.68 7
446 1 -0.762064 10.5759 -10.3973 13
447 1 -0.579554 7.73346 -11.1395 17
448 1 -0.192318 5.60959 -8.55788 22
449 1 -2.00829 8.25912 -8.52289 21
450 1 -1.77146 10.7617 -6.19745 22
451 1 -0.281595 7.90794 -5.83619 24
452 1 -0.111901 5.81953 -2.93441 23
453 1 -1.73375 8.55828 -3.08558 26
454 1 0.0905847 12.4846 -8.76703 14
455 1 0.0142059 13.8395 -5.79348 16
456 1 -0.453319 11.3348 -3.07687 23
457 1 -1.7382 14.0876 -2.87856 21
458 2 -14.7155 4.19333 -7.93462 10
459 2 -12.6241 3.70807 -9.8867 10
460 2 -13.7729 0.60048 -0.875868 18
461 2 -15.1516 3.19145 -1.36604 15
462 2 -14.7859 4.0282 -4.55762 14
463 2 -13.4201 1.65099 -3.77167 18
464 2 -13.3504 6.2182 -5.30493 17
465 2 -13.532 5.98402 -1.61362 19
466 2 -12.367 8.7918 -5.20799 13
467 2 -10.8259 1.29369 -11.6893 13
468 2 -10.557 0.118456 -6.56627 21
469 2 -12.1611 3.24323 -6.12299 22
470 2 -12.9568 6.67728 -8.06875 12
471 2 -9.99038 1.8931 -9.04742 20
472 2 -10.409 -0.385708 -1.19045 22
473 2 -11.7869 3.19523 -1.0882 23
474 2 -11.9552 4.62008 -3.489 22
475 2 -10.3544 2.00788 -4.07437 23
476 2 -10.1851 5.95933 -6.13975 22
477 2 -9.83644 7.69163 -8.70534 14
478 2 -7.18598 6.17029 -11.1872 14
479 2 -10.3903 6.06263 -1.07383 20
480 2 -12.2306 9.10622 -1.3348 14
481 2 -8.72817 10.6936 -3.50292 17
482 2 -10.2566 7.69088 -3.61464 20
483 2 -11.5589 11.2506 -2.64561 11
484 2 -7.4687 -0.796389 -11.836 20
485 2 -9.20112 3.48436 -11.6752 14
486 2 -7.69364 1.71635 -13.0031 14
487 2 -7.08199 0.0885665 -6.45204 22
488 2 -8.63894 2.91512 -6.41491 23
489 2 -8.95941 4.94184 -8.8479 18
490 2 -6.96778 2.11816 -9.29723 24
491 2 -6.83017 -0.00394678 -1.23785 22
492 2 -8.55387 2.6083 -1.47347 24
493 2 -8.5367 4.97608 -3.90025 23
494 2 -7.01335 2.15624 -3.85 21
495 2 -3.60412 6.16481 -11.8484 18
496 2 -7.10171 5.87299 -6.14833 21
497 2 -8.76875 8.92186 -6.05083 20
498 2 -7.64607 10.0087 -9.59547 11
499 2 -6.99062 7.98851 -8.57504 20
500 2 -7.12366 5.90408 -1.18078 23
501 2 -8.49798 8.74084 -0.98112 21
502 2 -9.51304 12.6437 -5.3784 9
503 2 -6.71002 8.10205 -3.82065 22
504 2 -7.0147 11.7043 -6.32084 16
505 2 -6.78301 11.4916 -1.31408 21
506 2 -6.55666 13.3338 -4.12576 17
507 2 -4.17943 -0.0586567 -11.9009 21
508 2 -5.60155 3.52995 -11.7598 18
509 2 -2.38634 9.17685 -10.6122 17
510 2 -4.22746 1.83442 -13.9734 13
511 2 -3.52617 0.20852 -6.8682 24
512 2 -5.28582 3.15265 -6.17834 22
513 2 -5.36475 4.85127 -8.74916 21
514 2 -3.5909 2.20699 -9.19477 21
515 2 -3.54173 0.0631125 -1.31881 24
516 2 -5.30141 2.73718 -1.22461 21
517 2 -5.38589 5.14661 -3.74951 23
518 2 -3.75744 2.04677 -3.90551 25
519 2 -1.99857 4.848 -13.8574 11
520 2 -5.56924 8.99816 -11.389 12
521 2 -3.48147 5.86669 -6.0366 22
522 2 -5.2351 8.73704 -6.40453 23
523 2 -3.4291 11.9239 -6.75794 15
524 2 -3.78408 7.5623 -8.89079 21
525 2 -3.71928 5.65445 -1.26399 24
526 2 -5.24227 8.59354 -1.31231 25
527 2 -4.94116 10.6693 -3.86701 24
528 2 -3.39973 7.66365 -3.78586 21
529 2 -3.24454 13.346 -3.78625 21
530 2 -3.41639 11.3575 -0.900975 25
531 2 -5.15084 13.593 -1.24792 17
532 2 0.855962 13.8002 -7.78947 12
533 2 -0.824352 0.0715851 -11.8426 19
534 2 -2.13099 2.94628 -11.9457 23
535 2 -1.548 8.08127 -13.0671 12
536 2 -0.568989 2.22702 -14.6417 13
537 2 0.00583963 -0.0546206 -6.68545 24
538 2 -1.90384 2.99185 -6.48387 21
539 2 -2.04562 4.60355 -8.99761 24
540 2 0.142824 1.7709 -9.33445 23
541 2 -0.167352 -0.103275 -1.34661 24
542 2 -1.79257 2.97468 -1.29763 23
543 2 -1.7374 5.04667 -3.75564 22
544 2 -0.0360857 1.83154 -3.8716 21
545 2 -0.452861 5.87987 -11.2285 18
546 2 -5.02457 10.9918 -8.87164 15
547 2 -0.202222 5.93557 -6.794 22
548 2 -1.97285 8.80692 -6.6284 22
549 2 -1.84635 11.8635 -9.54673 12
550 2 -0.195235 7.93298 -9.31548 20
551 2 -0.0442379 5.94122 -0.828791 22
552 2 -2.00915 8.92569 -1.22094 21
553 2 -2.02059 10.3748 -3.98753 24
554 2 -0.19518 7.67079 -3.8207 23
555 2 -0.151292 11.8157 -6.60283 22
556 2 1.38398 15.0387 -5.18837 12
557 2 0.0920339 10.2399 -12.1837 11
558 2 -0.129778 11.6131 -1.2167 24
559 2 -2.02715 14.5348 -0.999877 16
560 2 -0.418911 13.4075 -3.81504 18
561 1 -15.4047 5.11026 -0.907959 13
562 1 -13.6176 2.59467 -0.547252 21
563 1 -13.7511 0.290372 1.8376 20
564 1 -15.4453 3.20783 2.01879 14
565 1 -15.2802 4.59062 5.22437 12
566 1 -13.8089 1.85327 4.81879 20
567 1 -15.0125 -2.80593 7.67921 11
568 1 -13.4488 7.86484 -0.857304 14
569 1 -13.5964 5.76897 1.85416 20
570 1 -13.5239 7.36151 4.76523 15
571 1 -11.9186 2.87485 6.9822 21
572 1 -12.1005 5.18217 -0.392361 23
573 1 -10.5269 1.78709 -0.725159 22
574 1 -10.47 -0.159671 1.70432 22
575 1 -12.0236 2.71632 1.80936 24
576 1 -11.9296 4.53853 4.28158 21
577 1 -10.5925 1.78875 4.62618 22
578 1 -10.2023 0.171374 7.56573 25
579 1 -13.8303 -0.121735 7.52224 14
580 1 -12.564 4.93549 9.76472 12
581 1 -10.9478 2.13476 9.61717 16
582 1 -10.0241 0.694428 11.6137 13
583 1 -12.3159 11.0199 -0.930584 8
584 1 -9.96837 7.80885 -0.310409 22
585 1 -10.4051 5.83096 2.1124 24
586 1 -11.984 8.62865 1.91316 18
587 1 -11.7346 10.4468 4.80531 13
588 1 -10.0896 7.85974 4.6622 23
589 1 -13.1912 5.91372 7.48157 15
590 1 -11.7858 8.96699 7.13098 13
591 1 -10.5221 6.96784 10.0798 14
592 1 -10.1205 11.5534 1.92374 12
593 1 -8.91765 4.75957 -0.546259 20
594 1 -7.01081 1.94589 -0.556613 22
595 1 -6.89893 -0.0863371 2.13457 24
596 1 -8.88772 2.75426 2.12442 25
597 1 -8.74092 4.79222 4.70436 24
598 1 -7.22371 2.00889 4.75928 24
599 1 -6.99244 0.0993912 7.75709 23
600 1 -8.36233 2.87918 7.40023 23
601 1 -10.3294 6.00325 7.21079 22
602 1 -7.30386 1.74921 10.5763 21
603 1 -9.28066 -1.74167 10.5342 17
604 1 -10.7498 4.19242 12.4203 11
605 1 -8.16288 10.4871 -0.374169 19
606 1 -6.72549 7.72696 -0.363876 23
607 1 -7.13619 5.64758 1.89204 24
608 1 -8.52782 8.87953 2.3297 23
609 1 -8.65943 10.7243 4.72152 19
610 1 -6.93885 7.5758 4.85905 25
611 1 -7.06565 5.61514 7.45081 24
612 1 -8.69486 8.61671 7.87397 21
613 1 -7.17595 7.42659 10.3421 16
614 1 -8.58944 4.36031 10.1881 20
615 1 -6.7803 13.2805 -0.370846 14
616 1 -6.74206 11.374 2.34311 22
617 1 -6.65513 12.9034 5.6934 14
618 1 -9.62489 11.474 7.28388 11
619 1 -5.45534 4.7532 -0.707487 20
620 1 -3.48261 2.13598 -0.733175 21
621 1 -3.46316 -0.029087 1.9723 21
622 1 -5.44653 2.7682 2.00482 23
623 1 -5.36267 4.73952 4.85106 25
624 1 -4.2102 1.90411 4.69869 23
625 1 -3.86233 -0.0105369 7.51795 22
626 1 -5.40831 2.72847 7.69998 25
627 1 -5.62551 4.58161 10.2587 22
628 1 -4.11757 1.60515 10.4605 25
629 1 -4.18549 -0.623736 12.4612 14
630 1 -7.14477 -0.223608 12.8614 12
631 1 -5.00802 10.3426 -0.37244 24
632 1 -3.30225 7.72757 -0.535864 23
633 1 -3.72119 5.76013 2.04702 25
634 1 -5.19992 8.24991 2.18283 23
635 1 -5.21086 10.1622 4.98014 21
636 1 -3.56255 7.5167 4.7279 21
637 1 -3.73385 5.52753 7.21685 21
638 1 -5.30271 8.26887 7.39019 22
639 1 -6.27894 10.3115 8.94593 13
640 1 -4.05081 7.48258 9.9912 21
641 1 -6.99129 3.45267 13.1453 11
642 1 -3.92233 5.72847 12.5277 10
643 1 -3.64319 13.3063 0.056978 21
644 1 -3.57379 11.3933 2.59105 23
645 1 -5.40785 14.0169 2.84916 12
646 1 -3.41673 14.4513 5.67557 12
647 1 -3.64081 11.132 7.3423 19
648 1 -1.75251 4.87906 -0.569529 23
649 1 -0.197872 1.88288 -0.770404 23
650 1 -0.275259 -0.216487 1.98316 23
651 1 -1.80688 2.81455 2.27645 23
652 1 -2.21681 4.67629 4.7503 23
653 1 -0.810252 1.68866 4.52657 22
654 1 -0.668181 -0.0773252 7.51555 23
655 1 -2.01168 2.59405 7.80913 22
656 1 -2.40787 4.81007 9.89937 21
657 1 -0.62001 2.25123 10.1631 23
658 1 0.534691 3.02935 12.8762 14
659 1 -2.81103 2.80534 12.3857 14
660 1 -1.65641 10.4701 -0.373682 22
661 1 -0.172258 7.76534 -0.532605 23
662 1 -0.288096 5.75583 2.1038 24
663 1 -1.91694 8.6574 2.21842 25
664 1 -1.70131 10.1688 5.05366 21
665 1 -0.288118 7.41363 4.86929 23
666 1 -0.768545 5.72982 7.32987 20
667 1 -1.87894 8.46333 7.62354 22
668 1 -2.83513 10.5607 10.273 17
669 1 -0.582205 7.43678 10.386 19
670 1 0.18026 6.57034 12.6691 12
671 1 -2.03807 8.82869 12.6889 11
672 1 -3.44542 16.7124 -4.80088 7
673 1 -0.526765 13.5407 -0.383723 20
674 1 -0.313071 11.4401 2.26879 25
675 1 -1.78807 14.1436 2.72392 16
676 1 -0.632514 13.2384 5.04645 20
677 1 -0.304025 11.3405 7.82532 23
678 1 -2.00603 13.4721 8.38567 13
679 1 -0.95571 12.0633 11.3636 11
680 2 -13.8782 0.0169853 3.88781 20
681 2 -15.0546 3.11054 3.95175 14
682 2 -14.9343 4.74165 0.802712 15
683 2 -14.041 2.2135 1.26921 19
684 2 -11.014 0.124053 9.483 19
685 2 -13.354 1.64821 6.65976 20
686 2 -13.8231 5.65111 4.09834 18
687 2 -13.3199 7.5541 1.22334 16
688 2 -10.3288 0.131758 3.68808 24
689 2 -12.0533 2.67359 3.73243 24
690 2 -11.9615 4.66128 1.46609 23
691 2 -10.2574 1.71485 1.1064 24
692 2 -11.1395 -2.56989 10.2025 13
693 2 -11.8007 6.40815 8.68622 15
694 2 -14.7887 4.89037 6.97272 14
695 2 -10.0706 1.85369 6.55903 23
696 2 -12.1782 3.40631 8.7877 17
697 2 -10.3237 5.8247 4.12638 24
698 2 -12.0871 8.63807 4.35793 15
699 2 -11.4366 10.7497 0.712248 14
700 2 -10.1179 7.85429 1.71184 23
701 2 -9.89035 7.87471 6.64635 23
702 2 -13.2111 7.63388 6.64881 14
703 2 -10.4656 11.1381 3.71761 16
704 2 -7.03669 0.201786 4.09189 21
705 2 -9.06225 3.06138 3.99875 23
706 2 -8.94646 4.65349 1.34837 22
707 2 -7.10239 1.76747 1.544 21
708 2 -7.28596 -0.0106461 9.68026 22
709 2 -8.86324 2.53688 9.33632 22
710 2 -8.82556 4.70284 6.82996 21
711 2 -6.94301 1.75115 6.62314 24
712 2 -11.0742 2.39576 11.7785 11
713 2 -11.5719 4.66373 6.35068 24
714 2 -3.89906 1.16922 12.3448 17
715 2 -7.14778 5.36565 3.9014 24
716 2 -8.34095 8.54295 4.1678 23
717 2 -8.50541 10.8653 1.49975 17
718 2 -7.00713 7.8769 1.51593 22
719 2 -7.42024 5.64434 9.29464 21
720 2 -8.79958 7.84032 9.81721 14
721 2 -11.0581 10.547 6.49571 12
722 2 -6.98214 7.59168 6.8069 24
723 2 -11.3703 5.40699 11.1795 10
724 2 -7.05662 11.3187 4.12494 19
725 2 -6.27148 13.0758 1.54383 14
726 2 -8.14996 10.4768 8.12241 15
727 2 -8.44111 12.3917 5.99174 9
728 2 -3.81013 0.153379 4.01225 22
729 2 -5.56522 2.99233 3.98075 24
730 2 -5.33885 4.6957 1.34682 21
731 2 -3.54445 1.98989 1.3559 24
732 2 -3.93285 -0.376324 9.53293 24
733 2 -6.02141 2.69924 9.5124 22
734 2 -5.53811 4.58532 7.07142 23
735 2 -3.82577 1.90483 6.90891 24
736 2 -3.84375 -3.66066 11.9796 15
737 2 -8.67419 4.49018 12.1964 13
738 2 -6.87333 1.50775 12.6007 14
739 2 -2.28782 -0.904118 11.9543 19
740 2 -3.69195 5.64091 3.96427 25
741 2 -5.24403 8.07251 4.1401 22
742 2 -5.48811 10.1112 1.51312 24
743 2 -3.51419 7.74543 1.53612 24
744 2 -4.12834 5.6318 9.63978 21
745 2 -5.82922 8.40479 9.46829 17
746 2 -5.4065 10.04 6.87074 21
747 2 -3.63344 7.53757 6.80412 28
748 2 -5.54767 4.5501 12.1861 18
749 2 -3.54642 7.68871 12.7254 12
750 2 -3.54368 10.81 4.52629 24
751 2 -5.08941 13.7065 4.83646 15
752 2 -3.58986 13.3822 2.33208 17
753 2 -4.44311 11.0633 9.30093 14
754 2 -3.02935 13.0303 6.99724 15
755 2 -0.520434 -0.100867 3.83635 25
756 2 -2.37146 2.7353 4.15935 22
757 2 -1.83528 4.6012 1.4121 23
758 2 -0.400854 1.72999 1.18872 24
759 2 -0.699047 0.272136 9.51947 22
760 2 -2.72254 2.82068 9.63098 21
761 2 -2.16768 4.3687 6.78384 23
762 2 -0.326586 1.50143 6.3933 21
763 2 4.04281 1.01861 11.6204 14
764 2 7.25455 4.47507 12.4878 14
765 2 -2.44923 4.70606 11.8552 19
766 2 -1.02934 2.1718 12.1205 16
767 2 -0.38495 5.69597 4.23855 23
768 2 -1.95971 8.31437 4.1344 25
769 2 -2.00165 10.7097 1.56552 23
770 2 -0.375702 8.07096 1.36765 23
771 2 -0.717762 6.03477 9.03416 26
772 2 -2.35205 8.49142 9.77075 20
773 2 -1.90964 10.3864 7.1405 22
774 2 -0.313032 7.68001 6.8828 23
775 2 -0.409044 8.27022 12.0836 14
776 2 -2.07365 10.7986 12.1324 10
777 2 2.90975 8.76082 11.9955 12
778 2 -0.174998 11.275 4.36502 26
779 2 -1.87161 14.6612 4.47872 12
780 2 -3.58379 15.2364 -5.98956 9
781 2 -0.478182 13.5423 1.61301 19
782 2 -1.47069 11.9556 9.40175 16
783 2 -0.474591 13.5766 7.08498 15
784 1 1.09992 -12.8121 -5.57285 22
785 1 2.97101 -15.8111 -5.754 11
786 1 1.12775 -15.029 -3.00871 17
787 1 2.35707 -9.40958 -10.9375 16
788 1 1.09904 -6.70933 -11.0125 19
789 1 2.71164 -11.8022 -8.61586 19
790 1 1.34615 -14.9778 -8.70902 8
791 1 0.989072 -8.81783 -8.59573 22
792 1 1.10684 -6.8963 -5.77543 23
793 1 2.70793 -10.2318 -5.81136 20
794 1 2.70879 -12.3989 -2.72569 21
795 1 1.32461 -8.8837 -3.06353 22
796 1 2.27788 -4.78662 -15.6339 8
797 1 1.14029 -2.57534 -14.2606 16
798 1 1.01662 -0.802043 -11.5857 22
799 1 2.53472 -3.77615 -11.381 22
800 1 2.6721 -5.71892 -8.38764 22
801 1 1.09738 -2.78151 -8.99791 22
802 1 1.54015 -1.14403 -6.19709 21
803 1 2.72228 -4.00916 -5.77905 21
804 1 3.04935 -6.02162 -2.88385 24
805 1 1.50383 -2.96526 -3.22731 21
806 1 4.56847 -12.6469 -5.65728 19
807 1 5.01924 -14.6148 -2.93326 15
808 1 4.36253 -7.13833 -10.9576 19
809 1 5.19607 -10.7773 -10.659 11
810 1 6.20911 -11.7672 -8.23445 13
811 1 4.13267 -8.90208 -8.19857 22
812 1 4.5117 -6.5523 -5.60559 23
813 1 6.24096 -10.028 -5.8254 22
814 1 6.32908 -11.7415 -2.82595 19
815 1 4.65902 -8.74305 -3.03356 23
816 1 4.21512 -4.993 -13.4071 12
817 1 4.26617 -2.48879 -13.6318 17
818 1 4.39099 -0.872516 -11.2186 22
819 1 6.12868 -4.03839 -11.1685 23
820 1 6.22075 -5.84986 -8.43441 21
821 1 4.38077 -2.79419 -8.3523 24
822 1 4.60027 -0.939844 -5.78721 23
823 1 5.90132 -3.97555 -5.97402 22
824 1 6.33441 -5.83618 -3.12195 22
825 1 4.54005 -3.0468 -3.16337 24
826 1 8.11996 -12.4146 -5.22627 12
827 1 7.34367 -6.85084 -11.1819 17
828 1 7.69507 -8.65792 -8.51504 19
829 1 7.93387 -6.78205 -5.90915 22
830 1 9.31657 -9.77764 -7.13851 15
831 1 9.82405 -11.82 -2.77155 12
832 1 7.82313 -8.84772 -2.97258 24
833 1 7.72662 -4.09003 -13.6597 10
834 1 8.09562 -1.13601 -11.0247 19
835 1 9.41377 -4.0832 -11.1209 17
836 1 9.54732 -5.9635 -8.63187 21
837 1 7.68724 -2.95112 -8.50163 24
838 1 7.73575 -1.21826 -5.90573 23
839 1 9.45315 -4.11661 -5.78965 23
840 1 9.52362 -5.79124 -3.67872 19
841 1 7.74975 -2.83701 -3.20177 23
842 1 10.6349 -8.69991 -10.4265 8
843 1 11.2673 -7.31647 -5.87242 13
844 1 11.3417 -10.9432 -5.43064 8
845 1 11.6214 -1.65213 -11.0022 10
846 1 12.0975 -5.41975 -9.74968 10
847 1 10.9317 -3.01581 -8.29127 19
848 1 11.3306 -0.891322 -5.74893 23
849 1 12.6246 -4.36284 -6.04814 16
850 1 12.7292 -6.28027 -2.92951 17
851 1 11.4004 -2.96381 -3.26331 21
852 1 14.5366 -1.41265 -5.9165 13
853 1 14.3982 -3.5166 -3.577 12
854 2 1.67019 -15.7484 -7.08799 9
855 2 1.32028 -13.0215 -8.79192 11
856 2 1.60663 -14.8407 -1.25567 17
857 2 1.11707 -13.0781 -3.75321 22
858 2 1.56419 -16.2905 -4.36737 11