ITEM: TIMESTEP
2000
ITEM: NUMBER OF ATOMS
1000
ITEM: BOX BOUNDS pp pp pp
-30.0 30.0
-30.0 30.0
-30.0 30.0
ITEM: ATOMS id type x y z Coordination
1 1 -2.86412 -10.8625 -9.96714 7
2 1 8.57328 -8.16918 9.79381 12
3 1 -11.8129 6.48944 -2.11449 12
4 1 -13.6819 3.52876 -6.90616 8
5 1 -3.4801 -8.2918 11.5637 10
6 1 -9.11019 -0.287506 -11.8646 9
7 1 -4.87553 2.05425 -5.35679 15
8 1 -3.90157 -14.7307 1.95384 11
9 1 4.07617 -3.73029 5.6269 21
10 1 -1.91915 2.81284 11.3972 19
11 1 5.10145 -3.88081 2.55324 16
12 1 -1.2494 11.4852 -9.39317 7
13 1 1.48225 -0.74837 13.4107 16
14 1 -10.2239 2.07207 1.27265 15
15 1 -3.10336 0.0340018 -7.46547 19
16 1 1.76432 -2.01301 5.41007 17
17 1 4.82952 -4.55258 -4.48887 20
18 1 0.371389 1.80996 13.3741 11
19 1 -0.846882 -11.1644 5.59336 20
20 1 -11.9399 -0.502156 2.70659 11
21 1 -9.73705 1.9801 -1.78455 13
22 1 -1.74821 13.1108 -2.39607 14
23 1 -0.323112 2.19448 -10.0394 16
24 1 4.7847 -7.6074 -10.6906 13
25 1 -2.74768 -2.0888 12.094 15
26 1 -12.4885 4.53502 0.615838 7
27 1 0.706373 14.6962 -1.38466 8
28 1 1.15877 -13.4053 4.89185 11
29 1 6.85106 -7.43045 -5.61565 17
30 1 8.13017 0.67136 4.96264 14
31 1 -8.891 9.40437 -5.68584 16
32 1 0.662696 5.1849 -8.7303 18
33 1 0.500281 5.60174 6.2828 21
34 1 3.41218 4.68969 8.34652 22
35 1 -7.24376 -2.97534 1.78791 16
36 1 4.64728 -2.61623 12.1778 15
37 1 -12.3259 0.592206 -0.312615 13
38 1 11.0518 3.43186 6.27409 13
39 1 8.3446 -3.83063 -2.43818 14
40 1 3.00769 2.17754 8.45379 19
41 1 -6.32757 -6.18172 0.712658 18
42 1 -4.04949 -5.92063 -8.79693 19
43 1 -8.85773 10.4263 0.400451 12
44 1 -4.87596 8.44509 -10.5549 11
45 1 3.61352 1.80018 -6.00243 17
46 1 5.09299 -1.80978 -5.47188 14
47 1 7.12759 -7.9708 4.18714 18
48 1 5.63364 -8.28717 10.3725 17
49 1 -4.56173 7.30425 6.88976 22
50 1 -9.00419 -7.28951 10.2089 7
51 1 -9.97243 5.64791 8.52713 11
52 1 8.25226 -7.58691 -10.4613 5
53 1 5.18135 0.310857 -9.96434 15
54 1 3.63018 -0.921052 7.84749 19
55 1 -0.533978 11.0307 3.01998 20
56 1 -7.89948 11.3363 -7.86945 9
57 1 -0.403171 7.67911 -0.479421 15
58 1 -6.42556 -8.40542 10.5565 12
59 1 -0.770823 -4.99967 -9.41042 19
60 1 4.01991 -6.72052 -7.9721 20
61 1 -0.152285 2.89219 8.08661 21
62 1 -8.59895 -8.02424 -0.960882 15
63 1 6.80177 -5.00346 5.61851 17
64 1 -6.65199 -10.6634 -1.34122 13
65 1 9.71941 -9.049 2.94464 16
66 1 -5.16121 8.65104 3.70171 18
67 1 -5.38067 5.58384 0.453228 17
68 1 3.46845 5.13583 -10.5007 15
69 1 11.4169 -9.64356 1.07926 10
70 1 -7.21273 -9.16756 1.44585 14
71 1 7.56755 8.45476 6.25818 11
72 1 5.527 5.22378 -1.14889 17
73 1 -3.32912 12.5467 -5.33787 14
74 1 0.251419 -9.4313 -10.6981 10
75 1 -2.84461 8.70112 -5.41825 17
76 1 11.7277 -1.94692 -5.49651 12
77 1 7.88395 3.27907 -10.5609 12
78 1 9.4594 -9.06408 6.36105 12
79 1 -7.3847 4.48592 -8.54408 20
80 1 3.16886 9.01307 -0.495915 18
81 1 9.59912 8.65653 -0.917361 12
82 1 -4.67678 9.4087 -2.06199 20
83 1 -5.80438 -0.743891 -9.65739 19
84 1 -9.42537 -3.72337 -4.18558 17
85 1 -4.03302 10.1069 8.48028 19
86 1 -0.881296 10.359 -6.32775 17
87 1 2.11655 -3.87145 12.4661 16
88 1 -10.4521 -5.71698 5.07656 13
89 1 -4.55984 -12.5532 4.53328 13
90 1 1.76969 6.43307 -2.44391 17
91 1 11.1082 8.37242 -3.76918 8
92 1 -2.49366 -10.9488 8.77023 12
93 1 -7.96328 5.05797 -1.82466 17
94 1 0.385498 5.8417 9.50008 19
95 1 -5.47169 2.01403 -8.62278 21
96 1 -4.56103 -4.37146 2.95553 19
97 1 -6.72383 -11.134 4.52318 11
98 1 -6.16125 -0.839329 -2.783 19
99 1 5.63183 -8.59019 -0.679826 20
100 1 -2.60095 9.60577 5.09403 23
101 1 -7.68166 0.363721 1.87115 15
102 1 -8.5927 -0.560164 -4.04754 18
103 1 -2.1312 -11.6536 3.16675 18
104 1 8.19684 6.92645 -6.05772 17
105 1 3.7039 1.04359 12.0635 20
106 1 -2.77996 6.01782 -12.1061 12
107 1 -7.92227 -6.05924 -8.95161 14
108 1 -5.11178 13.3137 -2.4677 12
109 1 8.2696 -0.399461 7.74596 18
110 1 -4.22868 10.5251 -7.62052 17
111 1 0.98017 7.11481 -11.0932 13
112 1 -6.95622 2.06197 7.77969 16
113 1 -6.0128 9.95984 11.4272 7
114 1 1.26474 -11.0475 -7.81114 10
115 1 2.39719 -7.95055 -0.12995 20
116 1 7.23407 9.93171 -10.9388 6
117 1 -1.72242 9.86831 -3.30977 17
118 1 -9.67722 2.22199 3.99868 19
119 1 3.62995 5.95827 13.2428 8
120 1 13.8278 0.430432 -3.82387 9
121 1 1.5882 8.85725 8.84971 21
122 1 -9.97369 6.99015 5.34839 13
123 1 -10.5422 -7.10046 -3.49526 11
124 1 1.93454 -0.730808 10.6299 24
125 1 3.02791 -9.9759 -2.35948 19
126 1 -2.80789 -0.574922 -10.9923 15
127 1 7.28992 0.604593 -7.53653 14
128 1 -14.8613 -1.53005 6.11848 5
129 1 -8.96418 -8.14184 -7.07964 8
130 1 -3.86446 -8.22007 1.00368 18
131 1 -1.43809 -7.6549 2.88549 19
132 1 -8.26919 -2.46492 -9.40588 17
133 1 -11.4873 1.58469 -7.82081 15
134 1 9.64299 0.327379 11.8323 10
135 1 3.14559 -3.99515 9.48614 20
136 1 0.373759 -4.76219 6.17784 18
137 1 4.69794 7.6215 2.79418 18
138 1 -6.36641 -7.62151 3.59794 20
139 1 2.85832 11.8366 4.09669 14
140 1 -6.24227 -4.29696 -10.8275 12
141 1 -6.83927 -10.5853 -6.66174 11
142 1 -1.30583 -9.79307 0.315633 19
143 1 9.8229 4.45839 2.27341 19
144 1 -3.82488 -5.10733 0.0970119 21
145 1 -9.08874 -3.4517 10.3408 11
146 1 -1.00003 -12.82 0.379043 19
147 1 1.49122 3.29189 -4.61384 20
148 1 -2.78406 -16.6963 -0.294661 6
149 1 4.55745 -6.33992 1.57719 16
150 1 0.0994001 -12.2456 -2.37445 15
151 1 -9.90227 8.68933 -8.57477 12
152 1 9.5766 6.1983 6.60739 11
153 1 -7.58668 2.99123 -10.971 14
154 1 -1.90911 8.71073 -11.3881 11
155 1 -5.00167 -3.67664 7.87651 19
156 1 2.5954 10.9883 7.17768 16
157 1 10.3375 1.81731 3.56321 19
158 1 -8.41822 -0.138586 5.60106 20
159 1 -4.74894 -5.08156 10.7803 15
160 1 -5.3911 11.5139 5.41273 16
161 1 0.3139 -5.95251 -12.8578 10
162 1 1.34336 -13.9817 1.5706 12
163 1 8.6939 -4.04124 -10.022 12
164 1 -3.01681 -5.96858 5.59487 19
165 1 0.385249 0.177909 7.61392 17
166 1 -10.1809 -2.76565 4.41604 14
167 1 7.63735 -11.9374 -2.10597 11
168 1 -3.73635 11.8718 2.85114 21
169 1 -6.77406 6.56172 3.67978 21
170 1 7.23919 -10.4592 8.53353 10
171 1 -2.34283 5.05886 8.75115 21
172 1 -6.66979 -3.41751 -4.45345 22
173 1 -2.69437 14.5605 3.9238 8
174 1 -7.16293 2.72938 -3.61627 17
175 1 -11.4486 4.73806 6.00803 13
176 1 -3.46931 -3.70105 -6.35232 19
177 1 -5.75341 11.274 0.374671 19
178 1 6.37271 -2.87303 7.99565 17
179 1 6.95347 -7.57688 7.10211 20
180 1 0.949032 -2.82359 8.5835 21
181 1 3.77281 -11.4639 -5.66734 13
182 1 -5.96524 -3.12771 -7.83178 21
183 1 -11.2233 -0.570756 -3.18724 18
184 1 -2.91759 -7.84104 -1.48312 18
185 1 12.6455 5.20087 -4.89925 13
186 1 -7.63891 6.71652 -10.696 13
187 1 -7.37937 7.75148 6.5518 18
188 1 -7.20643 12.4182 2.86382 11
189 1 -7.4849 7.15898 9.71961 11
190 1 12.2507 -5.04473 -5.7983 8
191 1 12.8885 -0.275844 -7.97529 9
192 1 2.07271 3.18272 5.79383 18
193 1 -5.32056 6.67918 -2.5241 18
194 1 0.016217 -8.22151 -6.3097 13
195 1 0.851199 9.02243 5.12213 21
196 1 4.14662 3.74452 -3.44315 18
197 1 -8.36031 1.8163 -6.42785 21
198 1 4.55719 -11.9781 -0.0188389 14
199 1 11.13 1.79027 9.30049 10
200 1 -9.01507 -3.88123 -6.99523 16
201 1 -5.50667 -12.7965 1.50656 11
202 1 -2.58707 10.4355 0.066016 16
203 1 -8.55982 6.83882 -3.88434 22
204 1 -3.43739 -9.32131 -7.43531 16
205 1 4.12386 -9.21862 7.4328 17
206 1 -5.73569 -13.7307 -4.39558 9
207 1 -9.06101 6.46972 -6.64008 18
208 1 -1.15513 -13.9601 3.99938 15
209 1 -4.5221 3.89791 9.66095 20
210 1 -8.12329 4.38691 5.39189 23
211 1 2.03242 -5.33167 -5.8406 19
212 1 -2.73607 -2.88738 5.50335 17
213 1 -12.3375 0.989757 5.9554 11
214 1 -1.60878 -5.48651 8.4681 19
215 1 -2.65517 -2.85478 8.66645 18
216 1 3.69266 -7.47334 -3.47978 19
217 1 3.89297 -12.5399 2.99557 14
218 1 3.01971 11.941 -2.15727 14
219 1 -5.82151 -5.55492 5.61989 16
220 1 9.40918 -4.78945 8.75721 11
221 1 8.06815 0.889346 -1.5531 15
222 1 -5.30682 4.21245 3.98687 19
223 1 2.48119 2.20153 -8.62107 22
224 1 9.96708 -5.93942 6.13633 15
225 1 -3.91419 1.7997 12.7893 13
226 1 1.6801 12.245 0.603767 14
227 1 5.38149 -5.65687 8.41521 19
228 1 -2.55813 -15.2287 -5.68975 7
229 1 3.2125 6.92604 10.779 17
230 1 -7.65036 -0.608531 9.45619 19
231 1 -5.30336 -7.49152 -2.56757 21
232 1 -7.66468 -8.98633 -3.8288 17
233 1 -7.05141 11.3049 8.19407 10
234 1 -3.99724 -12.2206 -6.5814 12
235 1 -5.85232 -1.20508 4.16245 19
236 1 11.1461 0.178782 6.7119 17
237 1 8.70036 4.328 -1.16168 16
238 1 -0.0330108 3.24417 -6.79363 16
239 1 -2.908 7.44834 -8.0122 17
240 1 -1.71393 8.33174 10.3521 16
241 1 -11.9762 -2.33547 -0.338455 12
242 1 5.49299 11.4708 -7.31435 12
243 1 -5.52111 -7.94959 -9.00755 14
244 1 -0.596802 -2.88734 -12.4258 14
245 1 7.95169 6.92807 -2.74166 21
246 1 1.78134 9.80495 1.94129 20
247 1 3.13306 4.96859 -6.92683 16
248 1 2.1523 -10.5048 4.79421 17
249 1 -4.06009 3.29925 -13.5851 9
250 1 11.8232 6.91234 1.28734 11
251 1 9.06438 -6.99171 -0.0406034 20
252 1 1.56105 2.01212 -13.9644 8
253 1 0.587203 -10.366 2.23554 18
254 1 2.1842 -8.66022 10.6384 12
255 1 -11.1462 5.41753 -8.62923 13
256 1 2.78788 2.40741 -11.793 14
257 1 -10.5204 -4.43405 2.00617 17
258 1 12.8351 -2.9676 -2.80077 11
259 1 -4.77778 4.77867 -7.84579 16
260 1 -6.07341 8.43159 -4.90081 22
261 1 3.64337 -8.69764 -6.10701 17
262 1 5.4044 3.21502 -9.33264 16
263 1 9.68833 -5.06263 -7.64727 10
264 1 1.66381 -7.78595 2.66476 20
265 1 -7.3685 -5.24963 9.11532 20
266 1 -1.39763 13.2722 0.954442 14
267 1 0.171527 7.85357 -7.53259 18
268 1 13.8272 4.63386 -1.09395 9
269 1 0.414982 -8.54607 -2.67433 18
270 1 1.40888 -4.32936 -8.29618 18
271 1 2.53011 6.61141 0.601127 17
272 1 13.2269 -3.0551 0.481979 10
273 1 4.12324 -9.33139 2.11406 22
274 1 5.83044 -2.39415 -2.85178 20
275 1 -10.0873 2.06227 7.95478 16
276 1 -6.40473 -6.22848 -6.18958 23
277 1 -0.358347 -2.91236 10.9907 17
278 1 7.20609 8.44032 -8.46919 16
279 1 -6.23691 11.8811 -5.28458 15
280 1 0.655856 12.2956 -3.98157 12
281 1 -1.00312 -0.00213823 10.584 23
282 1 4.85556 -12.7776 -3.24954 13
283 1 2.90043 -1.14538 -8.03456 19
284 1 -12.1241 -5.90791 -0.108386 8
285 1 -9.51796 3.84936 -6.11607 18
286 1 -8.27184 -3.74109 7.11552 17
287 1 4.16635 7.42198 -3.44436 19
288 1 3.15864 -9.83185 -8.97311 14
289 1 4.2715 -6.03026 11.3932 14
290 1 8.46812 -1.0062 -4.14762 15
291 1 -10.0359 7.12914 0.263795 15
292 1 9.72501 -7.55085 -5.54961 11
293 1 3.28653 9.47604 13.3016 7
294 1 -2.17242 4.49531 -9.44674 18
295 1 8.5619 4.7632 -8.12479 14
296 1 -2.64826 -5.44144 -11.6562 14
297 1 -2.3676 -12.3908 -4.04388 19
298 1 11.5767 3.29253 -2.74226 20
299 1 6.86139 -6.41766 -8.20649 17
300 1 5.85703 -9.66062 -3.8604 19
301 1 6.54053 11.8998 -3.54002 9
302 1 -7.82345 4.04932 1.87422 17
303 1 10.904 6.18549 -1.51612 18
304 1 -1.20249 -8.5281 9.47236 16
305 1 8.3765 -0.970427 1.51903 19
306 1 7.05101 2.03177 10.893 18
307 1 -8.54568 0.574634 -8.97001 19
308 1 11.8748 4.76846 4.03628 12
309 1 9.15778 -5.62723 2.81356 17
310 1 -0.734967 -6.68069 0.154516 20
311 1 1.11943 10.8602 10.3469 11
312 1 5.81927 1.93219 8.01114 19
313 1 -7.39862 10.2589 -2.8163 16
314 1 1.43527 -13.7164 -4.81817 12
315 1 -5.30909 4.04761 -11.0573 21
316 1 -5.95352 0.76668 -12.4673 12
317 1 -11.9977 1.98293 -5.20382 12
318 1 11.9094 -7.44023 4.28751 13
319 1 0.92163 -9.28113 7.53677 16
320 1 2.10029 -5.36138 3.52605 17
321 1 10.9834 5.49783 -6.95711 12
322 1 10.523 -1.22508 4.09476 14
323 1 7.50641 9.86621 3.2689 9
324 1 12.6048 -3.78307 3.3799 11
325 1 -2.65547 5.06394 11.4886 13
326 1 -9.40595 -7.31476 2.16119 18
327 1 -10.9499 -1.66264 -9.29974 10
328 1 6.54849 -0.233251 13.2376 12
329 1 -4.12206 14.4268 0.884376 9
330 1 7.09385 2.0593 1.01669 17
331 1 4.5175 -4.27547 -1.00024 19
332 1 7.78076 3.89062 5.3074 22
333 1 -10.3655 -1.5806 7.60237 12
334 1 6.20241 -1.9798 -11.8404 10
335 1 -4.4292 -7.01712 -4.89295 20
336 1 6.57615 5.1577 8.36812 14
337 1 4.63644 3.19895 4.84432 14
338 1 -0.0545704 -3.758 13.9214 10
339 1 -1.94626 -0.0517379 14.7202 10
340 1 -7.4154 1.69429 12.1665 11
341 1 -2.99654 3.96832 -4.64577 16
342 1 -5.97114 7.81156 -7.47772 20
343 1 6.63672 9.83474 -1.36508 13
344 1 -2.8631 2.00047 8.27762 17
345 1 4.08588 10.6369 -4.71347 18
346 1 -3.56436 -11.2314 -1.01137 17
347 1 6.46844 4.81604 2.59149 15
348 1 -2.90963 6.44361 4.41318 22
349 1 -7.39863 8.38609 -0.973647 22
350 1 5.61877 5.34211 -5.25739 15
351 1 1.54142 3.66134 11.0282 17
352 1 4.15605 10.2802 10.4542 10
353 1 -6.80615 2.30141 -0.0935572 17
354 1 0.237456 -1.97822 -9.6975 19
355 1 -3.22341 4.13188 6.07091 20
356 1 6.72473 -6.62105 -2.5509 18
357 1 4.80348 9.67032 4.79553 15
358 1 -13.0432 -3.50196 3.73992 8
359 1 2.36341 -13.8258 -1.38673 13
360 1 9.24487 6.90562 -10.0502 11
361 1 4.1494 -7.73 4.94258 18
362 1 -1.90093 8.89179 2.13683 19
363 1 3.78899 -4.66556 -12.837 11
364 1 4.40711 -3.81501 -7.64363 16
365 1 -2.87908 12.6407 6.4741 15
366 1 2.01629 -6.49001 8.29539 19
367 1 0.933367 -0.0833259 -6.48305 20
368 1 -5.08801 -10.5961 -3.80243 20
369 1 -6.10967 5.04433 7.60682 19
370 1 12.6737 -0.49449 1.77194 14
371 1 1.47958 9.55373 -4.48529 16
372 1 10.1582 1.71392 -8.3842 14
373 1 9.27454 4.3053 -4.5588 16
374 1 4.16428 8.64571 -9.91301 12
375 1 -4.35767 0.548483 10.4635 20
376 1 -3.97394 -6.87597 8.52885 20
377 1 2.01389 -6.69095 -10.3828 18
378 1 -10.5596 8.91485 -2.80791 12
379 1 5.62816 6.44781 5.67438 21
380 1 -7.94658 -4.48414 4.13936 20
381 1 6.21602 6.39591 -10.457 14
382 1 -5.32815 0.0254102 14.7584 7
383 1 -10.5558 -3.96921 -1.96208 16
384 1 7.03508 -4.06269 0.0845909 19
385 1 -3.99303 -4.54343 -2.81565 21
386 1 11.7994 -6.54295 1.57983 15
387 1 6.49123 -10.929 2.48022 12
388 1 -0.501643 10.5078 7.72559 18
389 1 -9.40674 4.37018 11.1077 7
390 1 10.1869 1.21262 0.558738 18
391 1 11.0344 -7.12014 -2.13011 10
392 1 0.384293 6.8068 3.11205 20
393 1 0.229855 12.8543 5.51455 12
394 1 -1.85131 -14.0717 7.27131 6
395 1 -8.66174 -1.41776 -0.920153 19
396 1 5.74073 3.30754 14.3598 7
397 1 4.71156 10.6029 1.19572 14
398 1 7.82661 -1.94555 10.6612 16
399 1 11.1908 -2.73239 6.56336 12
400 1 5.06897 7.53335 8.57735 16
401 1 -2.31989 6.23096 -2.50767 16
402 1 -2.54664 -8.14541 -10.4147 13
403 1 -1.72433 0.601648 -13.4477 11
404 1 -8.15659 -1.87081 13.6446 6
405 1 12.5198 3.03447 1.09972 17
406 1 2.2136 10.3333 -7.37052 16
407 1 5.75737 -4.27856 -10.7158 15
408 1 -3.88233 -13.7666 -1.72129 17
409 1 -6.15709 -0.646867 -6.18781 20
410 1 2.95905 -2.36382 -11.1139 17
411 1 -2.21598 -8.96135 -4.54916 16
412 1 -0.173319 -6.9284 12.3739 8
413 1 0.0943958 -7.53589 5.43167 19
414 1 12.5049 2.36043 -5.98749 13
415 1 -8.4984 10.4459 5.90758 11
416 1 10.1635 -4.05009 -0.143137 18
417 1 -14.2311 -0.191417 -3.06398 6
418 1 8.68379 6.8887 3.49598 19
419 1 4.84074 3.92027 11.0263 17
420 1 -9.82636 -1.08663 -6.59936 17
421 1 -3.54631 1.93363 -10.65 18
422 1 8.66987 -8.94462 -2.8084 17
423 1 -7.76186 -5.91548 -3.7056 20
424 1 -6.59461 -8.43739 7.48382 15
425 1 6.88487 -1.72913 4.96877 15
426 1 -10.0643 5.78678 2.82592 16
427 1 0.993431 10.0275 -10.2641 11
428 1 7.61045 -5.1732 11.302 10
429 1 -6.21411 -2.45743 10.9438 14
430 1 -2.91737 -2.83112 -9.3411 21
431 1 -6.13412 -11.6695 7.73089 8
432 1 5.32747 -0.513253 10.0789 19
433 1 -0.738063 -15.1799 -3.00038 14
434 1 9.73241 -1.43242 -7.58369 14
435 1 -8.21996 8.79155 2.68426 17
436 1 -5.09009 -0.620401 7.26044 16
437 1 0.1857 -10.7029 -4.59949 20
438 1 7.30318 6.87183 0.539965 16
439 1 10.9172 -1.20611 -1.52864 19
440 1 -2.23389 -8.83853 6.7529 19
441 1 6.73643 9.31724 -4.90969 16
442 1 8.39857 0.0432852 -10.5011 13
443 1 -11.9519 5.75941 -4.84576 13
444 1 4.87996 8.24535 -6.6172 21
445 1 2.51178 7.23429 5.9478 16
446 1 2.1289 7.08283 -5.85278 17
447 1 -4.99828 7.18726 9.69825 18
448 1 10.7146 0.925706 -4.11278 16
449 1 5.36004 -10.9748 5.44113 13
450 1 -6.64459 1.67662 5.12473 17
451 1 8.9353 2.93654 7.90343 18
452 1 7.37733 -4.44128 -5.2923 18
453 1 -0.522301 -2.22504 -6.81589 19
454 1 -8.36438 9.39027 -10.7418 7
455 1 -1.67599 7.92324 6.9139 22
456 1 -5.03352 8.19171 0.741761 21
457 1 -4.05332 -9.45883 4.51409 17
458 1 8.30514 -10.5957 0.267834 13
459 1 1.31289 -0.151739 -11.4594 19
460 1 -7.10441 -3.81135 -1.35422 19
461 1 -6.47205 5.03227 -5.18784 21
462 1 11.4615 -1.50163 9.66234 11
463 1 -8.94276 -8.70581 4.76211 10
464 1 13.0451 1.37627 -1.02302 15
465 1 0.0212902 4.65533 -12.1298 16
466 2 -10.4526 0.025529 -8.42982 15
467 2 -6.2858 11.9969 -3.51147 14
468 2 1.15346 -1.98655 -11.8053 14
469 2 -4.04961 5.54976 10.2517 17
470 2 -7.90087 -6.73029 -7.2944 14
471 2 2.3244 1.21171 13.411 12
472 2 -7.58871 0.271538 3.77878 17
473 2 8.28388 5.26666 2.50583 18
474 2 1.87785 -1.61312 7.25561 18
475 2 -6.86226 -1.27189 -7.99688 22
476 2 -8.28885 -9.17223 -5.75402 12
477 2 -7.97523 2.97083 -1.81799 14
478 2 -1.82032 -7.49842 5.1244 18
479 2 3.21012 2.90141 10.5541 19
480 2 7.26307 -3.29778 -11.3006 10
481 2 8.30391 -1.36944 3.61521 14
482 2 -7.02738 10.6747 -0.939383 15
483 2 11.0306 5.12039 5.64665 14
484 2 -9.45395 -4.28096 5.589 15
485 2 -2.33253 -15.706 1.35535 9
486 2 10.1477 -4.21391 6.91968 11
487 2 -8.65964 8.50947 0.581808 16
488 2 -8.94882 9.64627 -3.74488 16
489 2 -3.30347 8.85195 6.98918 22
490 2 -3.33848 7.83848 3.20743 17
491 2 5.30243 -8.09558 -2.54486 18
492 2 -5.01696 0.800731 -6.96336 16
493 2 0.780753 -5.91208 -8.96587 17
494 2 9.0075 0.164808 -8.45979 15
495 2 -2.80659 -6.64005 0.452462 19
496 2 9.88902 7.88445 -2.60721 13
497 2 -4.20333 10.222 4.31152 20
498 2 -3.49428 -11.1573 -8.06918 12
499 2 3.80705 -8.03118 11.474 11
500 2 8.5743 -5.36226 0.801773 16
501 2 -12.48 0.719656 -3.8369 13
502 2 5.67818 6.42355 1.77323 18
503 2 5.31069 -11.5321 3.64393 13
504 2 -1.02215 6.14803 7.53793 23
505 2 3.34729 8.2814 1.51545 16
506 2 3.69552 8.94321 -7.84114 20
507 2 -8.3139 1.14193 8.70163 15
508 2 5.94382 1.55217 -8.7564 16
509 2 -10.3429 2.36819 -6.63959 18
510 2 -13.948 0.093282 5.78756 7
511 2 -8.12395 -7.00135 0.699905 16
512 2 0.86791 -7.36448 7.17428 20
513 2 -1.28658 -2.93589 12.7447 14
514 2 -1.6137 6.39703 10.3659 16
515 2 -8.32757 2.1871 1.11862 15
516 2 5.32646 -7.49089 -6.92119 21
517 2 12.5562 -4.03514 -4.32875 6
518 2 -1.13125 -11.2439 1.41068 16
519 2 4.21476 -2.8975 -3.8614 20
520 2 2.44083 5.89897 7.25688 19
521 2 7.64554 -8.96805 -4.7836 15
522 2 4.74136 -2.14715 9.0911 21
523 2 -7.0831 -6.13906 4.24532 20
524 2 13.4751 1.25873 0.89849 10
525 2 -0.364 -8.5817 1.74226 19
526 2 11.9109 -4.57114 0.732549 16
527 2 -6.0167 -6.01943 -9.81992 16
528 2 -8.1982 -8.9206 3.08907 11
529 2 -3.30911 -9.54531 -0.220708 19
530 2 -3.45816 -7.96905 -3.4814 17
531 2 -5.52601 12.1187 2.26032 15
532 2 2.16768 3.33461 -6.53099 19
533 2 9.90472 4.70898 -2.66596 17
534 2 1.64822 5.13409 -10.7681 17
535 2 -8.35023 3.2593 12.2051 5
536 2 -11.1598 5.77385 1.38759 13
537 2 -5.54639 1.46587 11.8266 14
538 2 -9.44787 5.44734 6.58952 18
539 2 -7.68374 3.41209 -5.42966 20
540 2 14.0087 1.54136 -5.3259 11
541 2 11.1664 -7.97944 -0.121648 16
542 2 8.41528 0.682349 0.691397 18
543 2 0.0260913 12.0314 1.58505 17
544 2 -5.56813 7.49156 5.07618 21
545 2 10.4926 7.39195 -0.0159018 17
546 2 0.127242 8.90254 2.89591 18
547 2 1.25228 8.92054 -6.23898 17
548 2 -3.55873 5.72949 7.10735 22
549 2 1.5074 -3.02385 10.5427 22
550 2 2.50281 -3.467 -9.59156 22
551 2 -3.52721 0.596723 14.3271 10
552 2 6.26601 4.35356 -10.7539 12
553 2 -7.37975 -7.35086 9.05302 13
554 2 -0.402114 -8.57886 -4.25879 13
555 2 0.293558 -4.0163 -5.92329 18
556 2 3.12786 -12.8868 1.31927 14
557 2 11.6842 6.86763 -4.88955 12
558 2 -5.99469 2.67435 -12.4612 13
559 2 -3.80103 13.1024 4.76367 14
560 2 -6.01368 -4.19039 -2.84362 21
561 2 6.03734 8.97179 -9.96452 13
562 2 2.10395 13.4298 -1.01514 11
563 2 -3.86971 3.86381 12.6661 10
564 2 3.7458 -9.68813 -4.32263 19
565 2 5.01462 4.49242 12.9224 11
566 2 9.76442 -5.33888 -1.68987 15
567 2 5.97608 4.66839 4.85989 16
568 2 -4.12647 4.81294 -12.2938 12
569 2 6.04576 -6.07033 10.7147 13
570 2 0.448652 -9.61418 5.55129 19
571 2 8.67761 -8.90172 7.99309 13
572 2 -4.82117 12.1185 -6.61943 11
573 2 -4.08482 -11.7899 -2.75089 18
574 2 -1.75672 1.01175 -10.2846 16
575 2 -1.43061 -9.69586 -10.0291 11
576 2 4.35229 8.48051 9.83441 13
577 2 -11.3587 -6.0677 -1.87129 11
578 2 -11.274 5.66515 4.385 11
579 2 9.74021 -1.63504 11.2635 9
580 2 -1.21558 -15.628 -4.67168 8
581 2 2.60691 0.73506 -7.41438 17
582 2 -7.3658 -0.692496 -12.5935 9
583 2 -7.95586 -4.19844 -8.62045 15
584 2 -1.75861 -1.73154 10.4811 15
585 2 -4.39118 -6.16107 -6.62435 17
586 2 2.96323 -4.83102 -7.26521 17
587 2 6.58023 -0.443169 -5.70866 13
588 2 -6.20922 -2.96898 3.55969 18
589 2 -1.19569 -3.1951 -8.74678 21
590 2 1.34431 5.79317 -7.13201 16
591 2 -2.06455 -8.53962 -6.53151 15
592 2 2.2038 8.64279 -10.3745 13
593 2 2.75542 10.6494 9.13227 13
594 2 10.415 2.8086 1.45394 18
595 2 -14.2219 -2.91094 5.22411 5
596 2 -3.13485 -13.4428 3.30903 16
597 2 -0.469056 3.55063 -8.61268 16
598 2 -1.10581 6.30332 4.02856 20
599 2 -5.63871 -7.9633 1.78664 18
600 2 -4.97325 2.39776 4.28633 16
601 2 -6.03826 4.87761 2.3384 19
602 2 -9.13099 -1.82957 6.10549 14
603 2 -2.70778 -12.565 7.74487 11
604 2 -11.8181 -1.98984 3.75866 14
605 2 -5.73455 -11.6566 -0.0665366 13
606 2 -6.64088 -4.54859 7.07084 18
607 2 8.29245 -3.75192 9.97513 15
608 2 3.77157 11.0687 -6.61828 12
609 2 7.08211 10.1671 -3.09054 13
610 2 12.3919 4.18099 -6.5519 13
611 2 0.0978037 13.7828 -3.10478 10
612 2 -10.2787 -2.85272 -8.06471 11
613 2 -13.2505 -0.548103 -1.48769 9
614 2 1.4458 -14.6712 -2.96827 11
615 2 5.31289 -7.76736 8.25313 20
616 2 10.6753 -7.69981 5.83517 15
617 2 -7.49228 10.7504 -6.18729 15
618 2 9.34763 0.30652 -2.76358 14
619 2 3.86679 -4.24694 11.7648 15
620 2 0.862952 -1.30415 -7.93904 20
621 2 1.08673 6.85333 4.83913 15
622 2 1.84584 9.0218 6.80466 20
623 2 0.313934 -0.52687 11.8212 21
624 2 -6.27187 4.95995 5.49015 21
625 2 7.54116 6.31763 -4.48692 16
626 2 -6.69912 -9.21378 -8.1292 12
627 2 -7.0472 -1.58132 -4.1223 19
628 2 -6.05366 -3.97468 9.77475 19
629 2 4.94293 8.61459 -4.57123 23
630 2 8.22367 2.64172 -0.775912 16
631 2 11.8845 -8.83577 2.96006 10
632 2 -11.7706 -0.766925 0.701938 13
633 2 -2.31846 10.8634 1.94826 18
634 2 -4.64953 8.40678 -5.97893 19
635 2 1.59096 1.57051 -10.3439 19
636 2 -7.55397 4.87725 0.102148 19
637 2 2.07806 -4.02185 5.17265 17
638 2 -0.170123 6.16643 -1.96417 18
639 2 -8.90609 -3.8856 2.55465 17
640 2 4.61402 -10.1761 -1.07099 21
641 2 1.05351 -10.626 -2.77914 19
642 2 -6.34701 8.07486 2.17725 18
643 2 0.298993 -6.60153 3.62141 19
644 2 -12.4475 3.78905 -4.74836 12
645 2 2.38923 -9.71563 2.69765 19
646 2 2.96534 5.12551 11.3964 14
647 2 2.60146 0.703081 -12.7344 10
648 2 -1.01867 10.0936 -10.7382 10
649 2 8.73217 3.06202 -8.80647 15
650 2 -2.54245 11.1092 -1.88543 18
651 2 -7.97039 -2.45508 11.7639 11
652 2 -3.56192 -5.10463 9.03752 16
653 2 -3.1846 -8.55747 3.1155 17
654 2 -11.3957 -2.13383 -2.12603 16
655 2 -3.91749 -2.25416 7.10496 15
656 2 -1.04719 6.96769 -12.14 11
657 2 7.76489 -2.86672 -3.97253 15
658 2 1.77372 0.637525 9.18503 20
659 2 -6.56054 -2.0042 -1.16501 19
660 2 3.42252 -0.643694 -9.95476 18
661 2 7.46801 5.77465 -1.24697 16
662 2 6.7392 7.04149 7.11016 13
663 2 6.3558 -4.08637 -1.94133 18
664 2 -6.28838 -4.26281 0.682288 18
665 2 -2.3436 10.9576 -7.66576 15
666 2 0.73484 4.00714 9.16196 22
667 2 2.57103 -12.4353 4.43304 15
668 2 -5.4138 -11.8824 5.99158 11
669 2 7.11377 -0.60841 9.32659 18
670 2 10.3689 6.04894 -8.67614 10
671 2 2.92903 11.359 1.84861 16
672 2 5.76503 -10.2624 7.26342 14
673 2 6.18189 -11.3197 -3.29367 16
674 2 1.07931 3.13834 -12.4984 12
675 2 5.73879 -3.19725 4.65456 12
676 2 -0.15864 2.92827 11.7577 18
677 2 3.63207 3.22398 6.69922 18
678 2 5.98702 -6.88296 5.39564 17
679 2 -0.28618 1.5077 -14.209 7
680 2 9.18605 -3.18579 -8.48926 11
681 2 -8.11421 11.0626 1.9715 9
682 2 3.15577 -7.92254 -9.45815 16
683 2 -0.504223 1.18342 14.9494 7
684 2 -9.51612 8.17573 -6.84656 17
685 2 10.1329 -7.95205 -3.71118 12
686 2 3.88743 11.1125 5.69579 12
687 2 11.283 5.55917 2.47642 11
688 2 11.4712 2.86733 4.51712 14
689 2 -9.41427 -0.193333 -2.15305 22
690 2 -6.27719 8.70023 -2.9529 19
691 2 -9.31881 4.92984 -7.99312 20
692 2 12.7805 5.90741 -0.269425 10
693 2 -10.7791 7.97739 -1.26649 12
694 2 -2.1563 -7.3449 7.96033 18
695 2 3.42893 -0.935284 11.749 19
696 2 3.29476 -13.0445 -4.66245 13
697 2 -0.902136 -4.87461 -12.0781 15
698 2 2.22881 10.7153 -0.696998 14
699 2 4.91004 9.41422 -0.271692 18
700 2 -5.57403 -3.43098 -6.04783 19
701 2 -5.96758 -9.27004 -2.62275 18
702 2 11.5162 0.0881843 -0.0742311 18
703 2 -8.27018 6.99519 -2.10295 19
704 2 -0.845321 -13.3776 5.85739 13
705 2 8.45951 -5.53459 4.52845 15
706 2 -4.17111 -5.00915 4.59671 17
707 2 -6.22436 -6.92565 -4.39057 19
708 2 3.49171 7.68782 12.9214 9
709 2 2.0996 7.66833 -4.09324 18
710 2 -8.95288 8.55585 5.80391 12
711 2 5.77015 3.28615 2.07709 18
712 2 -7.98642 -8.18566 11.4871 7
713 2 -1.00606 14.09 -0.690767 12
714 2 -2.15574 -15.573 -1.68677 12
715 2 1.43267 -4.72006 7.83212 15
716 2 7.75066 0.708957 11.9913 11
717 2 -8.76732 7.24544 3.64558 20
718 2 -3.31216 7.59266 -3.45224 16
719 2 -0.949149 1.14418 8.75613 18
720 2 -4.15509 -8.76744 -9.84129 11
721 2 12.4111 -2.33536 -1.09008 12
722 2 7.95292 -5.93122 -6.63808 14
723 2 -3.64469 13.2223 -3.52077 12
724 2 -6.93916 -0.646465 14.4135 7
725 2 -8.45313 -0.0292229 -5.87556 19
726 2 10.8578 -6.12947 -6.32093 7
727 2 3.12752 6.96586 -1.18052 18
728 2 -2.63624 3.42256 9.62567 23
729 2 1.27865 1.40013 6.29461 20
730 2 -3.16814 7.2862 -10.7756 14
731 2 -13.0183 1.69833 -6.67748 8
732 2 -3.76041 -0.800299 -9.38968 16
733 2 -0.227863 6.98742 -9.40256 21
734 2 -8.42414 1.23998 -10.8363 14
735 2 5.22043 -5.24033 -8.78531 18
736 2 -0.787789 -8.11025 -1.10088 17
737 2 -2.66795 -9.54798 10.2735 12
738 2 -4.56471 4.20722 -6.05918 17
739 2 9.73118 0.166464 5.49677 18
740 2 0.389807 3.94264 5.37161 21
741 2 3.30997 -1.73864 -6.25212 21
742 2 0.459685 -14.2403 3.0707 15
743 2 6.6151 9.22998 4.9975 12
744 2 -5.1966 11.275 7.36144 14
745 2 -10.8927 -6.25553 1.44324 11
746 2 10.6808 3.045 -4.62911 16
747 2 3.81944 -9.5142 5.36535 19
748 2 -7.14625 11.7283 4.91738 14
749 2 4.8179 3.50914 -5.22077 12
750 2 2.84742 3.35239 3.83244 14
751 2 -11.1023 2.61737 5.21317 14
752 2 0.238537 10.6335 -8.56435 12
753 2 -6.41405 5.18323 -3.24607 18
754 2 4.42024 -3.01976 -12.0941 11
755 2 -5.67918 3.29324 8.26507 17
756 2 -2.55446 1.09034 11.417 20
757 2 11.0411 2.04219 7.51465 13
758 2 6.71131 -0.771196 -10.5373 12
759 2 -7.86857 -4.57455 -5.60167 18
760 2 1.89139 -6.60439 1.06573 20
761 2 11.817 -1.66053 -7.64474 10
762 2 -1.79937 8.80628 0.114926 16
763 2 -2.26895 -6.12372 -9.94504 17
764 2 -8.2153 2.55073 6.27529 19
765 2 -7.75543 -1.28881 0.856851 16
766 2 3.89342 -12.8523 -1.78004 14
767 2 0.630661 -10.1578 -6.39285 17
768 2 -0.309556 -12.5748 -4.4598 14
769 2 12.9499 -1.52214 -4.07889 12
770 2 -6.6626 8.32604 -10.7965 11
771 2 4.39226 7.78237 5.07691 17
772 2 -3.8366 -14.0008 -5.126 13
773 2 4.41025 0.866445 8.6781 19
774 2 -3.58425 8.78774 9.90993 15
775 2 -3.22005 4.68671 -2.75735 17
776 2 -8.62944 10.155 -8.96432 10
777 2 1.72082 -10.2771 -9.90849 9
778 2 -6.58255 -9.98286 8.3788 9
779 2 -12.8704 5.42015 -1.02249 8
780 2 8.51871 8.68904 -10.1558 8
781 2 -3.04799 5.5133 -8.16723 18
782 2 6.88849 8.29154 -6.54084 16
783 2 -6.25494 -2.59743 -10.0602 15
784 2 2.00847 -7.49846 -6.05757 20
785 2 -10.2224 -1.95061 -4.79918 16
786 2 4.90579 5.74077 9.13731 15
787 2 -5.41106 0.97336 -10.4799 20
788 2 -9.77861 -7.28257 4.50853 11
789 2 11.553 -1.32545 7.80417 12
790 2 6.34927 3.39119 9.17138 14
791 2 11.8751 1.20517 -7.63049 13
792 2 -1.50203 8.23534 -6.93798 18
793 2 -0.360924 10.6866 -4.34952 16
794 2 11.6622 -2.59423 4.63623 12
795 2 -5.945 1.14634 -3.48797 19
796 2 6.09232 11.2136 -5.61209 11
797 2 1.38378 -2.4907 13.9784 13
798 2 -3.8924 -3.95565 -8.18844 18
799 2 -3.39064 -1.43708 -6.18846 19
800 2 5.53205 1.7288 13.0882 12
801 2 -0.911306 9.47331 6.00293 21
802 2 9.61453 -10.1863 1.30532 12
803 2 8.84125 -6.01655 -9.6456 11
804 2 -2.39602 11.36 7.71678 15
805 2 8.54825 -6.6624 10.7948 9
806 2 -2.82407 10.6155 -5.13965 17
807 2 -0.242425 9.32859 9.34462 19
808 2 -7.14073 6.82721 -5.61485 22
809 2 2.25757 11.3834 -4.0768 15
810 2 -8.72394 -7.62472 -2.74206 14
811 2 1.94604 -5.1333 -12.9335 11
812 2 -8.72456 6.01353 9.95541 10
813 2 12.5151 -2.35171 2.28419 12
814 2 -4.31781 8.90547 -8.76156 14
815 2 -8.83733 -2.56757 8.63294 16
816 2 -5.81717 -12.0293 -5.61952 13
817 2 1.57406 7.16886 9.72637 22
818 2 -4.22079 -4.50503 -11.6337 10
819 2 -9.28182 7.55423 -9.96131 12
820 2 -0.0100837 1.64845 -6.22466 18
821 2 -3.46658 1.23837 -12.8593 12
822 2 -7.27734 9.76868 7.23532 14
823 2 -6.7498 11.1098 10.0539 7
824 2 4.87252 11.7991 -2.86893 13
825 2 -5.14072 -14.3144 -2.65372 11
826 2 7.99781 1.55035 -11.23 11
827 2 5.68915 -3.91272 -6.21279 19
828 2 -5.91816 -12.549 3.24566 11
829 2 -9.98647 5.51924 -5.13982 17
830 2 -5.91207 -9.2022 4.77298 18
831 2 -1.8439 4.2183 -11.3516 19
832 2 4.48917 -7.91381 0.67939 15
833 2 2.71032 -9.22181 8.94832 13
834 2 9.28737 2.21555 9.76653 13
835 2 5.37957 -4.15589 7.06379 16
836 2 -6.05839 -0.420719 10.2927 15
837 2 7.53698 6.26013 -8.97074 15
838 2 2.65225 10.1342 11.6168 10
839 2 -2.94808 -3.92341 -4.42635 19
840 2 -7.7066 -9.58264 -0.343701 13
841 2 -5.33061 -7.15156 6.88567 19
842 2 -8.77159 4.00423 3.56706 22
843 2 -6.37997 5.97667 -8.14883 21
844 2 -9.74286 -5.62292 -4.0559 14
845 2 -2.57844 14.2862 2.11062 12
846 2 8.4474 -5.96728 7.39268 17
847 2 8.89046 7.4892 5.25739 12
848 2 -4.58996 -14.143 0.16996 14
849 2 -11.4552 -4.61462 3.90689 13
850 2 -10.7372 1.02358 2.78277 14
851 2 -3.92472 0.484071 8.53317 18
852 2 0.811168 -5.25766 12.524 11
853 2 -0.0694324 -11.6329 3.63819 18
854 2 8.52371 2.4375 4.20041 20
855 2 2.28245 -8.18757 -2.23733 16
856 2 -4.42188 9.84191 -0.140736 16
857 2 -7.50213 2.21669 -8.50343 22
858 2 -6.37185 -0.136949 6.02515 16
859 2 3.5908 -5.76297 9.29128 18
860 2 -4.34948 -3.22474 11.7141 12
861 2 4.63521 3.48147 -1.46782 15
862 2 0.475409 -7.96564 10.659 14
863 2 4.24531 6.70355 -10.4221 13
864 2 8.34217 4.81944 7.09805 17
865 2 4.74342 -5.73323 -11.3479 14
866 2 -5.26293 6.99668 -0.75344 18
867 2 7.38172 -1.88217 6.88767 18
868 2 3.09495 -5.45065 -4.07495 17
869 2 -5.14976 -6.1176 -1.0874 20
870 2 12.8933 4.823 -2.8504 12
871 2 6.58235 -5.78724 -4.11884 19
872 2 0.695702 11.7908 7.28363 16