ITEM: TIMESTEP
19000
ITEM: NUMBER OF ATOMS
2000
ITEM: BOX BOUNDS pp pp pp
-30.0 30.0
-30.0 30.0
-30.0 30.0
ITEM: ATOMS id type x y z Coordination
1 1 -10.85 5.46389 -14.5747 15
2 1 -7.84638 -8.99946 -10.0813 19
3 1 -0.76152 14.2506 10.2798 14
4 1 6.44071 -9.00123 2.62886 21
5 1 -11.4839 9.18759 0.351459 19
6 1 8.28891 -8.901 -13.4937 11
7 1 -11.4791 5.80907 -5.65532 22
8 1 -2.29656 -0.88208 8.97793 19
9 1 -8.82819 0.201574 -14.574 18
10 1 -12.3886 -8.12623 4.51345 16
11 1 12.5288 2.92462 -12.0909 15
12 1 -5.16742 1.56629 -7.40519 18
13 1 -3.90035 -11.0061 0.957394 22
14 1 -10.3638 -8.17752 2.25983 22
15 1 -2.55324 1.90057 15.0296 14
16 1 6.18752 -2.14025 7.13254 23
17 1 1.20885 3.92244 7.42091 22
18 1 9.63864 -3.88247 3.07686 20
19 1 -5.68743 10.03 -15.1458 22
20 1 -2.39448 1.02745 11.2872 21
21 1 -9.47418 0.469883 -17.6171 14
22 1 -16.2325 -2.0713 11.8832 13
23 1 11.1734 6.94132 5.54425 22
24 1 -0.501203 10.0155 -14.3402 19
25 1 2.34483 8.18521 -13.9482 23
26 1 14.8844 -0.627093 8.97901 11
27 1 -8.21957 2.30507 -2.69457 21
28 1 -13.101 4.82966 -8.18891 18
29 1 -1.40568 -1.2448 -10.9685 19
30 1 -13.4587 9.94821 5.6849 14
31 1 4.76818 -12.296 2.92954 16
32 1 -1.27722 -3.15763 8.72993 17
33 1 0.680368 -11.2428 -12.6379 10
34 1 7.70849 -12.2663 -1.44712 11
35 1 -8.52988 -11.5047 -8.66868 15
36 1 -15.0538 -5.18707 9.81783 13
37 1 0.590468 -2.58729 -8.66942 17
38 1 -3.61264 -2.88349 -15.6826 19
39 1 6.07589 -7.65581 -16.4127 11
40 1 -3.35169 7.72207 -17.5071 18
41 1 -1.48669 3.94181 9.44027 21
42 1 -0.105122 -11.5789 6.03238 17
43 1 4.17825 -4.87123 12.3878 12
44 1 -16.3032 -1.66545 1.00415 19
45 1 -17.4381 -2.19963 6.4889 18
46 1 -10.135 -0.0669439 -3.0797 20
47 1 -3.61015 15.5883 -5.12569 17
48 1 -1.68304 -11.6207 -14.6952 12
49 1 -0.540533 1.58453 -12.5542 14
50 1 2.76098 -4.28661 -11.8011 21
51 1 -4.40234 -1.15262 11.6357 19
52 1 -15.3774 7.5528 1.49814 16
53 1 1.88535 11.3001 -15.7763 16
54 1 -0.386049 12.5331 6.07166 21
55 1 -15.0283 9.48389 -9.20042 9
56 1 -2.28515 14.0894 -2.29041 18
57 1 1.78354 -10.6838 0.917886 23
58 1 4.50098 -6.92403 -6.706 20
59 1 3.55529 -5.06976 -18.6593 14
60 1 -9.56891 8.61795 9.07524 20
61 1 -15.5457 -1.11125 -10.2058 12
62 1 6.63057 -2.10982 3.52172 20
63 1 -8.28731 6.88341 -5.64699 21
64 1 -6.70877 -7.54284 4.961 18
65 1 -5.68172 15.3726 7.61566 17
66 1 -14.4014 7.66974 -6.9133 16
67 1 -9.68494 11.5574 10.5207 11
68 1 -1.26299 5.29783 -7.51944 20
69 1 -2.09201 8.08861 4.49508 19
70 1 -4.23936 -14.7448 8.29043 10
71 1 1.04497 7.3422 3.04761 22
72 1 5.45803 -13.6351 -6.60318 12
73 1 0.967848 11.5436 10.4837 18
74 1 -11.5456 4.6805 -11.8385 19
75 1 -11.2824 8.33208 -7.21346 17
76 1 0.401461 1.09976 8.9421 21
77 1 13.3395 -2.70167 -13.4478 10
78 1 7.99949 -11.8162 1.86127 10
79 1 -17.328 -3.16427 3.67636 16
80 1 -10.5581 -1.33835 0.234785 21
81 1 3.0597 17.4266 2.89218 13
82 1 1.12133 -3.1455 13.6034 14
83 1 -5.65838 -10.5298 3.18184 22
84 1 -12.9424 -1.59691 -2.06855 21
85 1 8.19156 5.22249 5.90776 21
86 1 6.71308 -2.49588 -4.73522 24
87 1 -2.88609 14.0514 7.40672 21
88 1 3.5419 2.51955 4.17122 22
89 1 -7.78922 -3.52144 0.34374 21
90 1 -4.33258 -5.46621 -10.7163 18
91 1 -9.98478 7.78231 6.12464 21
92 1 -9.73963 13.6476 -2.0824 20
93 1 -5.28885 7.64203 -12.2717 20
94 1 3.46629 2.78513 -9.35275 20
95 1 5.26675 -1.52497 -7.15464 19
96 1 10.7681 12.0067 -8.04538 10
97 1 4.8967 -6.06045 2.32252 22
98 1 5.36879 -9.04798 7.3057 14
99 1 -7.1112 15.1163 -4.42123 18
100 1 -8.93334 15.9416 0.596831 15
101 1 -10.6402 -2.54182 9.46309 16
102 1 -7.63437 7.8883 3.8082 22
103 1 -6.3833 -5.685 8.98588 20
104 1 10.8436 -6.61627 -8.67494 11
105 1 -11.412 3.75869 3.21638 19
106 1 -10.0359 -13.9907 0.494876 16
107 1 6.30003 -6.44686 -9.74454 22
108 1 3.50446 1.60987 -11.847 19
109 1 -6.03458 0.691171 -19.3886 13
110 1 -1.68133 11.6572 -2.67146 20
111 1 -7.4477 6.73511 -9.69924 20
112 1 -2.08154 9.70942 14.1703 14
113 1 -1.49985 13.3736 -5.76237 25
114 1 -13.4397 15.2046 -1.88324 9
115 1 -2.64272 8.39362 0.849198 19
116 1 -3.91865 -8.6074 9.76833 17
117 1 8.74671 -0.799411 6.08098 22
118 1 0.713202 -5.76457 -9.6872 20
119 1 3.25254 -7.2355 -10.7127 20
120 1 0.827821 -2.34105 6.65547 20
121 1 1.66628 -1.22049 16.0397 8
122 1 -10.5863 -4.16005 -1.78282 20
123 1 6.15899 -5.0209 4.90199 21
124 1 -11.9749 -7.10467 -2.7344 19
125 1 9.49198 -9.82847 0.483345 13
126 1 -8.2433 7.50506 0.440401 21
127 1 6.31904 4.52987 -16.4362 15
128 1 5.00089 17.8857 -6.46712 11
129 1 -9.45047 -10.7791 11.6064 8
130 1 -12.0258 -10.2066 6.68289 14
131 1 1.02797 -5.6856 -16.4074 19
132 1 0.906356 7.73874 -6.82129 23
133 1 6.86175 -9.19317 -3.49827 15
134 1 -1.19696 -13.8996 5.21037 19
135 1 -12.1456 -11.9713 -1.35907 13
136 1 12.986 5.5444 7.76545 17
137 1 13.8511 -2.50481 -10.2938 12
138 1 -16.0059 -5.01275 0.865682 13
139 1 9.53387 9.29097 2.88262 19
140 1 13.0055 7.33184 2.4488 17
141 1 -11.8416 1.96818 13.7548 14
142 1 4.55401 9.29342 -1.65925 23
143 1 -5.01791 12.5242 8.77626 19
144 1 -5.06883 13.7423 -6.95161 17
145 1 -1.66539 -4.12967 -11.7465 20
146 1 5.87392 -10.365 -15.0487 9
147 1 0.30428 13.2419 -14.008 17
148 1 5.92502 -2.38725 9.69541 20
149 1 1.23283 0.695186 -20.8271 14
150 1 -4.82996 10.7536 -7.68226 21
151 1 9.74873 -0.752467 -5.19236 22
152 1 -12.5437 9.73869 -11.8085 13
153 1 -11.6371 15.3795 0.424819 13
154 1 7.14295 1.96975 -12.6131 19
155 1 9.71737 -9.06592 3.58556 13
156 1 -8.34422 1.61343 -8.80449 17
157 1 -10.6248 14.0629 7.96691 12
158 1 12.7765 5.72447 -8.90752 16
159 1 4.18891 11.5097 -3.31705 22
160 1 -2.17216 13.9712 3.17582 15
161 1 10.1557 9.78361 -1.06902 19
162 1 -6.29824 9.6626 -5.3008 21
163 1 -0.692881 11.4306 -10.8674 23
164 1 0.86248 9.96158 -19.2307 11
165 1 -10.1807 -10.55 0.672387 19
166 1 -10.8937 10.9163 -2.686 18
167 1 -6.09725 -1.11335 -14.2354 22
168 1 1.05979 -7.6667 -19.1872 10
169 1 8.01316 14.8649 4.8308 12
170 1 -2.60678 17.577 5.67638 14
171 1 -15.3369 -1.83165 -5.20311 20
172 1 -10.1398 12.5804 1.44335 22
173 1 12.4059 0.364205 -6.1954 17
174 1 -8.7748 3.93543 -10.7832 20
175 1 6.31337 3.70133 12.9182 14
176 1 2.49906 17.4823 -0.734116 15
177 1 -3.46337 10.535 6.28319 22
178 1 0.118137 -4.84415 -19.1107 15
179 1 -5.88565 12.5654 5.74536 20
180 1 -1.82466 10.7121 -8.16558 22
181 1 1.69924 -5.15596 11.1906 19
182 1 -14.3623 -3.24068 5.65246 19
183 1 -4.49575 -10.1488 -14.7172 16
184 1 -9.63131 11.8842 -10.8414 15
185 1 -2.68021 -13.1163 2.86537 17
186 1 2.07853 -14.973 -7.01595 14
187 1 -4.5258 12.7339 -14.1985 14
188 1 -19.9944 -0.0137996 6.80493 10
189 1 -2.36114 8.02877 -2.73853 20
190 1 9.33105 6.83329 -6.61825 18
191 1 -13.4306 4.83297 11.914 14
192 1 -0.0970557 -10.106 9.86254 8
193 1 -11.2528 1.34621 -0.90993 21
194 1 0.266043 16.1138 -2.15018 17
195 1 -2.06427 5.50734 5.8489 19
196 1 10.7176 5.90966 11.6256 12
197 1 -7.79828 14.3535 3.09411 19
198 1 11.8529 -4.3046 -10.092 15
199 1 -8.24703 12.9269 8.20956 18
200 1 -5.12739 3.09209 -10.1078 20
201 1 12.5551 -4.43901 4.39929 15
202 1 -11.4073 -3.19795 3.55279 23
203 1 -19.0663 3.1791 2.78543 13
204 1 -7.08917 -9.41022 0.476826 24
205 1 -2.87419 7.03019 13.1592 19
206 1 -18.4035 -1.4084 -4.10943 10
207 1 -2.73602 -14.7003 -3.47025 23
208 1 -7.61821 -4.11669 -6.5721 24
209 1 5.12125 -5.17564 -3.71499 21
210 1 -4.88682 12.9043 2.59166 20
211 1 -7.6272 -0.654372 2.05283 22
212 1 0.331696 9.56999 8.1214 23
213 1 -9.50667 -1.39501 -6.35034 21
214 1 -7.38114 13.4378 -9.33868 14
215 1 -17.1469 -3.4199 -7.33344 9
216 1 -10.0602 -3.15083 6.10958 24
217 1 -1.2228 -8.75733 1.0978 21
218 1 2.48689 -13.006 4.05759 19
219 1 -12.8176 12.2582 -0.720642 21
220 1 14.053 2.78348 4.57387 13
221 1 5.25299 4.04845 -7.42378 21
222 1 -6.59042 -7.32106 -14.7748 16
223 1 2.96677 0.468671 10.5211 19
224 1 3.81036 -15.8498 2.91421 12
225 1 -4.22692 10.5925 -12.5139 21
226 1 0.517854 -8.90395 -15.9434 14
227 1 5.96558 4.84246 -12.4599 19
228 1 -0.892465 4.96953 -17.1314 22
229 1 -7.21203 -5.38919 -8.98989 20
230 1 -2.6167 13.9182 -8.83916 17
231 1 -11.964 -10.1498 10.0655 10
232 1 7.77906 16.8012 -4.2494 12
233 1 -10.0923 2.71195 8.48963 19
234 1 -8.06769 12.4589 -5.88089 19
235 1 3.73149 2.1085 7.53199 20
236 1 -4.93033 -4.76898 -13.8833 20
237 1 -3.73741 8.96109 -10.3219 21
238 1 1.72839 7.10465 -11.0502 23
239 1 -9.40893 -11.2259 8.35793 18
240 1 -10.0542 2.09248 5.65313 22
241 1 -7.27979 6.37042 6.85474 20
242 1 -3.19039 -10.3009 -11.2009 19
243 1 -5.61312 -14.1813 0.017738 17
244 1 7.70467 -12.7062 -4.55892 11
245 1 -1.49775 -6.18247 -4.63909 20
246 1 9.01726 8.863 11.7061 15
247 1 4.14168 10.8066 -10.3324 20
248 1 -4.48235 9.80068 -2.47157 21
249 1 -13.2851 -0.0933684 1.41924 21
250 1 -14.9723 11.4926 -2.61048 12
251 1 -0.982969 4.5885 12.2863 25
252 1 2.73804 -15.963 -0.610914 16
253 1 13.9891 1.13937 -1.67762 12
254 1 0.551457 7.06296 6.21868 21
255 1 -10.5604 4.21333 0.411241 21
256 1 -13.897 -3.44308 -7.35765 21
257 1 2.0416 6.09307 -15.9996 20
258 1 3.47954 -6.25875 8.89229 22
259 1 6.94782 10.9245 -11.8325 16
260 1 -0.607962 -7.9001 -7.59969 18
261 1 -1.52054 2.16448 -15.4235 21
262 1 -2.12899 -17.9716 2.29638 9
263 1 9.53952 -4.52904 -5.69607 21
264 1 -12.3922 -0.531197 5.26454 21
265 1 0.260604 -13.7817 -5.51272 22
266 1 -8.91113 -2.94173 -9.82751 23
267 1 2.11108 18.2954 -4.51487 13
268 1 -1.72055 -0.930549 -17.0118 19
269 1 1.47649 3.76287 10.7584 20
270 1 14.128 2.73393 1.235 14
271 1 -6.88456 -6.29159 -0.604431 21
272 1 11.5743 -4.979 -13.1063 11
273 1 -1.78525 -6.09847 2.17875 23
274 1 -11.0781 -1.74708 -12.8205 19
275 1 -10.8367 1.51634 -10.7665 16
276 1 -6.91145 -13.612 8.42693 14
277 1 5.47752 4.20182 7.22177 22
278 1 6.705 -5.60415 11.1356 16
279 1 -9.94374 -7.71575 -13.3504 13
280 1 1.28184 -7.70994 9.48691 15
281 1 -0.342099 7.46737 -15.8062 21
282 1 6.13569 7.00346 -0.312077 21
283 1 -9.7034 -7.06205 -0.697706 22
284 1 0.0659714 13.0279 -0.448255 21
285 1 -5.79069 -1.17268 9.26351 19
286 1 -12.9059 -6.43785 -8.93741 14
287 1 -6.5047 -2.86954 -10.8847 21
288 1 -3.04404 10.8217 -16.3261 20
289 1 -9.09942 -6.7855 -7.35544 18
290 1 -3.90565 -7.43431 0.0661416 18
291 1 5.31273 -0.163568 -14.2855 17
292 1 14.0385 0.284825 -11.5673 10
293 1 8.57725 2.78936 3.52113 21
294 1 -5.01513 -4.26913 -4.85603 21
295 1 -12.7861 -4.25698 8.43352 18
296 1 -4.00403 -11.4072 -2.28654 18
297 1 8.46832 9.04149 8.6844 18
298 1 -6.94654 -15.8045 5.91562 11
299 1 -1.23656 -10.9759 -0.924202 22
300 1 -3.94068 18.2839 -0.35141 11
301 1 6.48268 0.518594 -17.2807 16
302 1 -8.80068 -5.18437 -15.7898 14
303 1 -9.42631 -5.24475 8.39395 19
304 1 2.07407 7.19869 15.7902 9
305 1 -1.39136 -11.7737 -3.73628 21
306 1 -7.49522 -13.3476 -12.8157 10
307 1 -10.3226 9.1372 -10.1421 20
308 1 9.26207 6.38803 3.08338 20
309 1 -6.17436 4.76153 -12.3225 19
310 1 -1.02128 8.20775 -12.2541 20
311 1 -4.15097 -5.55406 4.3717 20
312 1 4.01185 -11.8636 -12.9128 12
313 1 -5.28199 15.8054 -1.94567 18
314 1 0.636215 9.98545 4.59925 19
315 1 11.5539 1.22347 4.6404 19
316 1 -10.6446 1.11963 2.37385 22
317 1 -4.53134 -5.9898 11.7613 15
318 1 -10.4741 9.8691 3.76156 20
319 1 2.36122 -2.44768 -14.7328 17
320 1 12.3228 10.8763 -5.49178 12
321 1 1.35352 -8.13467 -4.33478 22
322 1 -7.06534 -0.645394 12.8353 14
323 1 -17.2955 -5.3135 6.44358 11
324 1 -0.691905 -16.2239 -7.08412 13
325 1 -11.8682 6.63875 10.9215 15
326 1 -6.77974 6.26435 9.67413 15
327 1 -17.4188 -4.03068 9.23337 13
328 1 -12.6965 -7.60651 8.28731 15
329 1 11.6554 -5.10206 -3.06213 19
330 1 -11.782 -5.66957 5.9184 24
331 1 8.23482 -2.03755 -7.82895 20
332 1 7.77656 -11.9085 -7.86501 11
333 1 1.94981 18.3518 -7.73361 9
334 1 -4.80862 -4.59462 1.64111 25
335 1 -10.2116 14.7555 -5.34564 14
336 1 1.09839 1.15563 5.72898 22
337 1 4.68246 8.22702 9.22215 22
338 1 -9.49769 -1.21834 3.95262 21
339 1 2.75795 -12.3363 -4.83049 18
340 1 -5.55984 10.0248 0.574465 22
341 1 -7.74914 10.7894 2.36601 22
342 1 3.87969 -9.32986 3.98974 20
343 1 12.0134 -2.69085 1.91729 20
344 1 -4.43664 4.57785 7.5745 19
345 1 -6.89167 -1.36086 -8.32984 20
346 1 -4.03496 -1.07722 14.468 10
347 1 -5.21571 15.1434 4.72576 18
348 1 6.36116 9.39008 12.211 13
349 1 -10.3137 13.6313 -8.12946 13
350 1 -0.223533 -1.60813 -19.9021 14
351 1 -11.2587 1.61754 -7.48576 20
352 1 3.57134 -5.52339 -15.0911 19
353 1 -11.8682 5.02773 6.00515 21
354 1 -13.6433 2.8892 0.611244 22
355 1 -8.46037 -0.580366 -11.3754 19
356 1 -8.52708 10.6251 -0.680357 18
357 1 11.0813 -2.15036 4.87951 23
358 1 -8.63793 -11.692 2.91211 22
359 1 8.95156 -9.10853 7.09165 10
360 1 -10.6102 -7.51336 10.705 15
361 1 -15.4401 10.7775 0.809003 10
362 1 -1.59445 -0.540435 5.72397 21
363 1 0.521438 -10.6341 -5.83506 20
364 1 -6.99444 1.73014 -12.7092 22
365 1 7.21159 -2.27929 -15.8425 16
366 1 3.16971 14.0462 0.681764 22
367 1 -12.7954 0.326414 -5.40169 24
368 1 5.45997 -6.19103 -13.0478 21
369 1 8.63612 5.78905 -14.8053 15
370 1 -7.38712 -13.0261 -6.43277 14
371 1 -15.4698 -6.73089 -6.90701 10
372 1 -4.4739 -6.8514 -3.3025 20
373 1 8.49873 6.90818 14.2062 10
374 1 9.11851 2.32759 -3.85209 20
375 1 -8.4065 6.47115 -12.6919 20
376 1 -0.43747 20.0835 -3.21724 6
377 1 -15.8001 1.02038 -4.84652 14
378 1 -8.40943 10.3645 5.99699 17
379 1 -7.50873 13.1194 0.218106 20
380 1 -9.92632 6.77697 2.33702 20
381 1 9.77176 5.65355 8.77286 21
382 1 12.3684 -2.64646 -4.38453 16
383 1 7.87136 -2.26827 11.889 14
384 1 8.99672 0.631867 -8.51542 19
385 1 -5.53619 -15.4445 -4.95357 12
386 1 -7.00476 4.04863 -4.52378 20
387 1 -1.77102 -4.48215 -9.02114 23
388 1 0.368566 10.055 0.980329 21
389 1 -11.7824 3.01528 -4.16557 21
390 1 4.3328 -8.46498 -2.80059 18
391 1 11.2358 0.187747 7.70862 21
392 1 -12.1038 -2.33922 -4.86418 22
393 1 -4.03151 -8.25084 2.77829 21
394 1 -9.75536 -4.4732 11.3475 13
395 1 -7.46174 11.8873 -2.99999 20
396 1 -9.52144 -9.31241 -2.13762 20
397 1 3.83446 11.2143 12.034 12
398 1 -11.4519 11.8643 -5.71046 18
399 1 0.899858 9.29659 -9.26204 21
400 1 5.55206 13.5433 -1.54393 22
401 1 -15.2327 -6.8551 -3.44093 13
402 1 -3.50499 -7.84852 -9.09712 17
403 1 -13.5947 1.83071 4.35205 21
404 1 -15.0579 11.3009 -6.12586 11
405 1 7.02265 -7.64141 5.29206 19
406 1 -7.04732 -11.4082 -2.25843 16
407 1 11.2163 13.285 5.98753 9
408 1 4.56906 6.37687 -18.1402 12
409 1 -13.9537 6.86065 -13.6091 7
410 1 -2.87036 13.0111 -12.1897 16
411 1 -6.68542 4.60585 -7.70922 19
412 1 -2.16342 -10.6463 3.7292 24
413 1 12.575 4.59357 3.57351 20
414 1 -2.57074 10.4041 -19.3402 11
415 1 -4.96554 1.56101 9.561 18
416 1 -16.7189 1.85104 -0.490843 16
417 1 -7.56395 1.80327 3.96935 19
418 1 -2.56265 -13.7665 -0.25614 17
419 1 -0.739494 -10.1468 -9.27264 17
420 1 8.28619 -5.4533 -14.9031 17
421 1 -1.96226 -3.33221 3.78825 21
422 1 -14.8538 4.45186 6.00512 22
423 1 -17.6184 -0.50244 9.15371 17
424 1 -14.6142 4.68589 3.06879 21
425 1 1.11242 -8.32038 6.1405 19
426 1 -7.62651 2.90478 -19.5642 10
427 1 5.5309 -9.13552 -12.0184 23
428 1 -1.78436 -5.88541 -14.7272 20
429 1 -3.88057 -3.8734 9.06205 20
430 1 4.17753 -9.40002 -5.69359 15
431 1 -4.49753 3.76446 -16.9282 21
432 1 1.61305 -10.244 -2.74832 19
433 1 2.26006 13.3486 -5.58164 20
434 1 -13.2773 11.0191 2.6245 18
435 1 -8.61111 2.00312 12.4355 15
436 1 -12.6044 -3.39124 -10.4205 18
437 1 -8.16132 -5.64903 5.9309 19
438 1 9.17289 -2.75593 8.60973 20
439 1 5.85449 2.297 -1.07052 18
440 1 -7.07676 4.77835 2.02541 22
441 1 2.57255 -0.385095 -8.74033 19
442 1 10.964 -7.25818 5.79458 15
443 1 14.2717 8.34351 -4.06893 11
444 1 -4.28732 4.37026 11.3244 21
445 1 0.861222 12.755 -3.4495 22
446 1 6.6772 -5.33106 8.11563 23
447 1 -3.0353 -12.7191 -9.69829 21
448 1 -9.77852 5.17248 13.8165 12
449 1 -8.56675 15.9192 5.9888 13
450 1 -10.9734 -9.05103 -8.65367 13
451 1 7.75361 16.1699 -0.889455 11
452 1 3.58195 8.12538 6.02858 19
453 1 -17.5633 2.88248 5.42523 20
454 1 -6.51107 -10.3656 -5.39031 18
455 1 -17.7616 5.64959 7.75478 15
456 1 -10.6687 -3.87549 -7.89217 21
457 1 -5.11004 9.85203 4.23212 21
458 1 -6.06881 -11.8515 -11.081 22
459 1 -3.4196 -5.1112 -17.8328 14
460 1 -7.28558 -12.4893 0.490676 19
461 1 -7.74638 -3.62701 3.65343 21
462 1 6.58113 0.888449 5.06236 22
463 1 -6.89225 -3.34815 10.7286 18
464 1 -13.0714 6.93613 -10.0091 20
465 1 5.79112 3.12289 -4.41111 19
466 1 -9.79428 -12.0529 -3.96139 14
467 1 -0.277415 4.21939 -10.5583 18
468 1 -0.943182 18.2227 -0.0407739 13
469 1 -3.01287 8.50597 -14.2507 19
470 1 -4.58478 9.53124 12.0893 20
471 1 -16.0626 -0.546793 -2.31764 18
472 1 -1.23616 16.2284 -7.27825 14
473 1 6.13382 10.7858 -8.49524 20
474 1 -7.05606 -6.17524 -12.2226 24
475 1 3.93719 1.81818 13.1595 14
476 1 -1.89518 -13.5642 -12.2481 15
477 1 -2.12721 -0.698842 -14.1974 19
478 1 4.53007 -10.6486 -0.0714064 19
479 1 -13.2488 7.28875 4.07583 19
480 1 -1.36166 8.89548 11.0283 24
481 1 7.80527 7.881 -3.21872 21
482 1 0.876282 9.72613 -2.48422 25
483 1 -9.40891 10.129 -13.2247 16
484 1 1.94634 5.11056 -7.97661 23
485 1 1.83749 -5.44076 0.666528 21
486 1 -18.2194 -3.29083 -1.54922 11
487 1 0.328262 15.4034 1.21164 17
488 1 -5.62109 6.44896 -15.0204 22
489 1 7.5101 4.64466 -1.94848 21
490 1 5.72701 13.5743 -10.645 13
491 1 5.13594 -5.26671 -0.952882 21
492 1 15.4523 4.07045 -1.35818 12
493 1 3.21534 3.57208 -18.3901 21
494 1 1.98018 -6.10179 -2.44351 19
495 1 -0.322979 -12.2883 2.12267 18
496 1 3.672 -10.1662 9.42069 12
497 1 -9.34753 4.2059 -7.39234 19
498 1 -11.4807 -11.2574 3.45389 15
499 1 -4.36718 -13.5405 -14.7234 8
500 1 6.66249 13.5945 1.5927 19
501 1 1.53004 3.30363 -15.5339 18
502 1 0.719087 2.22332 16.0651 11
503 1 -18.4666 2.58757 8.55498 15
504 1 -2.65201 -17.3115 -4.32778 13
505 1 -13.3435 -3.09692 1.01064 19
506 1 12.7014 -5.10059 -6.47505 12
507 1 11.215 0.451568 -2.70051 21
508 1 -8.14286 9.48987 -7.50053 18
509 1 1.00434 -5.05365 -6.98377 19
510 1 2.65037 4.38601 -12.7675 21
511 1 8.61799 -4.7495 -9.35325 18
512 1 -13.6407 2.01599 11.1237 18
513 1 4.95777 14.9347 -4.77139 19
514 1 -6.88591 1.30997 -16.4628 20
515 1 6.19833 3.26985 -19.4373 13
516 1 -7.10046 -3.28305 7.76011 20
517 1 -4.71421 12.9592 -4.15862 23
518 1 -10.2491 -2.82839 -15.8735 14
519 1 -17.9873 -0.0546749 4.14081 16
520 1 -4.66895 -7.65183 -17.3494 11
521 1 -6.77225 -8.32034 10.8476 15
522 1 -1.58215 7.5864 -9.43986 21
523 1 15.4349 4.52305 6.98815 10
524 1 13.4559 5.83629 -2.66806 22
525 1 -10.5229 -14.9451 -1.97857 10
526 1 -1.60193 -8.74333 -3.0279 19
527 1 -2.65025 0.389578 -20.3114 16
528 1 -11.2327 11.4025 7.29298 17
529 1 -0.122053 -3.29572 -14.8651 17
530 1 4.10892 4.9453 -0.48204 21
531 1 9.69229 -1.6793 -0.174757 21
532 1 0.367542 12.5144 -8.1138 21
533 1 8.11049 -5.84094 -3.23283 20
534 1 14.3469 5.55681 -11.099 10
535 1 2.13992 8.85355 10.5321 23
536 1 -8.86693 4.67694 5.0132 19
537 1 2.4889 12.0272 5.91677 20
538 1 9.21531 1.24492 12.6292 14
539 1 2.62834 8.6232 -17.174 15
540 1 -3.42976 -6.27172 -6.88234 21
541 1 2.80656 -2.61744 8.96786 21
542 1 4.94065 13.7269 6.41029 17
543 1 4.14072 5.26133 -10.1277 21
544 1 -9.3122 9.32335 -4.56399 18
545 1 -3.04604 10.567 -5.07215 19
546 1 9.74756 -4.83314 11.8938 10
547 1 10.0421 2.78392 -14.4524 17
548 1 9.02956 -9.83383 -6.01585 14
549 1 9.51518 11.4178 9.08896 11
550 1 -12.9387 -6.12209 2.11442 16
551 1 -6.82322 12.1808 -12.377 16
552 1 0.547241 -1.58793 11.0029 22
553 1 -16.7255 1.45062 11.6967 13
554 1 -4.68733 12.1141 -10.1081 19
555 1 2.82723 -14.9951 -3.42459 15
556 1 4.20934 -1.59349 -10.6674 20
557 1 -5.66195 18.0694 -3.87613 11
558 1 -8.02669 -2.81895 -13.6297 20
559 1 2.96772 -13.4123 1.22875 20
560 1 -15.5184 -3.45367 -1.84452 21
561 1 -0.258781 11.8294 -17.1071 14
562 1 -8.68811 1.76748 -5.33278 18
563 1 -4.60662 11.9691 13.4106 13
564 1 -14.6849 -5.8861 7.00708 16
565 1 0.533053 7.36706 -4.18193 21
566 1 -2.26954 -8.75398 -14.1153 19
567 1 4.20959 -7.93109 11.2532 11
568 1 7.13536 0.621885 -6.03344 20
569 1 -13.6652 9.07356 -1.13551 17
570 1 0.559523 6.9992 12.9885 20
571 1 4.68567 16.7337 -9.5479 10
572 1 11.1118 -1.55989 -10.9074 17
573 1 0.0739774 6.5327 9.61526 21
574 1 -1.16012 6.83675 -19.1656 11
575 1 -6.10155 -11.1715 11.1253 9
576 1 -3.52051 0.884409 -12.1581 18
577 1 8.74629 2.84745 -17.2455 12
578 1 0.984472 12.7782 3.0566 21
579 1 8.46058 7.85739 -12.2063 16
580 1 -3.8199 -2.33664 -19.205 12
581 1 -5.26155 -9.88536 -8.22379 19
582 1 -14.4865 -3.34474 -12.6538 8
583 1 11.098 3.5613 -1.57137 21
584 1 15.6539 5.4231 -4.83456 12
585 1 6.3455 -3.61154 -10.7647 20
586 1 11.3379 8.11084 9.52554 14
587 1 1.99809 -8.40961 -8.0511 21
588 1 3.38534 3.57901 -21.2809 11
589 1 2.92849 8.34338 0.507233 21
590 1 -8.12832 2.12874 0.550632 20
591 1 6.83206 11.1604 9.88693 14
592 1 10.1597 5.1337 -4.34215 19
593 1 14.172 -0.419796 1.092 11
594 1 10.4117 3.44266 -8.97344 15
595 1 7.9068 3.59398 10.7399 21
596 1 14.4588 2.71785 9.26171 11
597 1 1.27485 -5.19376 7.21753 19
598 1 9.68733 14.4755 -5.42824 10
599 1 2.32076 4.62166 13.8984 20
600 1 14.8316 0.417853 -8.56461 11
601 1 4.79675 3.56517 10.1746 24
602 1 -10.3335 5.94304 -9.29673 19
603 1 12.9968 5.59042 0.132269 20
604 1 7.20698 -4.20601 1.41238 22
605 1 -1.11218 -6.32609 -1.51998 21
606 1 -12.9072 8.33281 8.44682 16
607 1 8.05645 13.2358 7.18613 12
608 1 8.54536 2.7277 7.5421 21
609 1 2.26264 14.8181 4.67732 19
610 1 2.38564 13.2856 8.42382 13
611 1 2.96977 4.89317 5.75722 21
612 1 -1.76313 -17.271 -1.30162 15
613 1 -8.38478 7.95259 -2.61708 20
614 1 8.39873 10.1532 -6.86767 17
615 1 10.8007 -2.05944 -15.167 12
616 1 -2.38225 17.4523 -3.07086 14
617 1 -4.7851 -14.5052 -11.8981 13
618 1 8.57342 -2.97362 -12.8989 20
619 1 -16.3398 2.35102 3.03815 17
620 1 -7.05 9.90748 -10.26 22
621 1 -6.64835 -13.8696 3.50625 21
622 1 -10.2607 2.81261 -15.4653 14
623 1 -15.8632 3.3624 -3.2919 12
624 1 11.2757 -6.4254 2.32543 16
625 1 11.4344 10.7706 1.15913 16
626 1 1.09872 -14.23 6.85274 9
627 1 -13.5122 2.08476 -9.75909 16
628 1 0.483135 3.68669 -20.0181 14
629 1 4.10043 -4.06234 7.10457 20
630 1 -7.71396 7.27007 15.2333 10
631 1 4.98915 9.99382 -14.9643 12
632 1 8.86558 0.135386 10.1093 20
633 1 7.59917 5.82586 -9.0132 19
634 1 10.7372 13.9937 0.393695 10
635 1 2.60866 -11.8745 -7.78569 20
636 1 -13.7147 -0.566987 13.2933 10
637 1 9.41702 -0.473594 2.80521 19
638 1 -2.58139 16.8994 8.70025 12
639 1 4.34548 12.1855 -13.3158 14
640 1 -13.1494 14.0967 -6.96027 10
641 1 8.44977 7.91679 0.605866 20
642 1 -7.89175 -14.7084 -2.28061 15
643 1 12.9154 -4.86901 0.370743 12
644 1 5.21944 16.0443 1.24002 14
645 1 -6.04906 6.89254 12.3644 19
646 1 -10.6718 -4.48397 0.944123 20
647 1 -11.4971 -0.832309 -8.34902 22
648 1 6.01781 0.435202 11.6429 20
649 1 -1.46815 -6.70531 10.6479 13
650 1 3.29459 6.02204 11.5531 22
651 1 -4.85211 12.4811 -1.06942 19
652 1 8.70555 1.38754 -0.442341 20
653 1 5.73529 4.65204 4.11219 19
654 1 0.884584 0.886958 -17.5771 21
655 1 -15.5038 0.342367 6.37897 19
656 1 8.71374 0.297254 -14.9669 16
657 1 -4.92828 -4.31458 -7.99672 22
658 1 7.28754 -9.13135 -8.82396 13
659 1 5.90082 7.10886 6.28926 22
660 1 6.25193 7.65029 3.13091 22
661 1 -16.7619 4.44979 10.9919 12
662 1 6.78531 11.3487 3.89851 24
663 1 -1.06946 -1.45446 13.5652 16
664 1 -2.09297 8.11464 7.85776 20
665 1 -7.53347 -2.13163 -17.6678 14
666 1 -10.3772 5.83029 8.63385 21
667 1 5.30208 5.55715 14.5729 13
668 1 -9.21299 -13.1819 5.69921 15
669 1 10.7945 8.75815 -3.99761 19
670 1 4.52873 -9.62524 -8.79072 19
671 1 -2.25113 7.87816 -6.1343 19
672 1 7.22906 11.1545 -1.81385 21
673 1 8.51665 11.5196 1.11735 22
674 1 3.80587 0.631784 -19.8743 14
675 1 -1.89332 2.12745 7.4067 20
676 1 1.06535 15.8784 -5.4522 19
677 1 10.4717 6.64575 -1.58285 19
678 1 -8.17607 -6.04753 -3.89305 21
679 1 -4.35928 0.121894 -16.8937 23
680 1 -12.9552 13.2749 -3.89091 16
681 1 7.89199 -0.619354 -11.6704 20
682 1 6.97612 4.54984 1.38864 20
683 1 11.2949 7.7097 -10.9169 15
684 1 9.71391 11.3771 -4.19891 19
685 1 -5.65414 4.17679 4.44301 22
686 1 -7.19512 4.82802 -1.11309 20
687 1 6.38501 7.42318 -7.05305 21
688 1 10.893 2.83267 9.49176 20
689 1 12.4032 0.52953 10.8789 12
690 1 -4.61248 -11.7498 8.13805 19
691 1 -7.82523 11.7029 -15.4421 11
692 1 -2.23831 11.4553 8.95984 20
693 1 6.3997 -4.67071 -16.735 14
694 1 3.74913 -0.570924 6.08938 19
695 1 5.14678 13.7252 -7.77099 16
696 1 4.11991 12.7322 3.50625 19
697 1 10.4026 -7.20571 -4.60122 16
698 1 3.83678 8.13944 13.7437 18
699 1 -14.9988 -1.99437 8.45959 18
700 1 2.24788 -12.5756 -1.28449 20
701 1 1.41489 -1.16469 -11.8451 16
702 1 -13.8256 14.0894 1.63549 15
703 1 0.142017 3.89204 4.09045 19
704 1 3.63328 -3.90844 -5.51995 19
705 1 2.58563 6.66517 -2.2107 21
706 1 -14.3448 -1.2657 3.60905 18
707 1 -3.80554 4.51543 14.0311 16
708 1 -7.03166 8.96709 -17.7566 14
709 1 -8.48921 8.22633 -15.434 18
710 1 1.14971 -8.33443 -0.849829 24
711 1 6.4002 8.42089 -9.89248 20
712 1 1.22749 -5.32885 4.29673 22
713 1 -4.77143 7.06487 2.58207 21
714 1 -15.0599 6.85376 9.52118 12
715 1 3.50891 0.222871 -16.8297 21
716 1 3.46351 -11.3367 5.98924 14
717 1 2.92995 14.4985 -2.31918 21
718 1 -6.7719 4.12628 13.6497 13
719 1 -10.3431 -4.60193 -12.4443 17
720 1 -7.27833 -9.78888 -13.1674 17
721 1 -9.56544 -10.917 -11.5125 12
722 1 -0.187802 14.5016 -10.4941 14
723 1 3.78494 -3.70801 -8.88735 21
724 1 0.263992 15.1856 7.07303 15
725 1 2.38603 -10.6171 -10.3495 16
726 1 5.5901 -15.2534 -0.271485 9
727 1 3.66763 -7.04256 5.80835 22
728 1 13.3334 2.79134 -9.18421 19
729 1 -0.535084 -13.7885 -9.02305 17
730 1 -9.84381 -0.339511 7.31675 19
731 1 -2.14557 1.83383 -9.43384 16
732 1 -4.94372 -16.2469 -1.91396 16
733 1 -9.12498 -9.52798 -6.0926 16
734 1 -15.5695 2.33855 8.58729 18
735 1 -8.21194 -16.3111 0.509954 12
736 1 15.4277 4.177 -7.89447 10
737 1 -5.60411 15.622 1.47548 13
738 1 -6.92381 2.45511 6.99334 18
739 1 -16.2393 8.51508 3.78696 13
740 1 3.63743 -3.40652 4.51311 19
741 1 -14.3461 -0.304105 -12.8492 11
742 1 2.82697 9.32973 -4.38599 21
743 1 9.31053 4.51897 -11.7756 22
744 1 3.54807 10.6443 8.29013 20
745 1 8.06273 3.97509 -6.80506 19
746 1 -14.379 3.51874 -6.50947 16
747 1 -15.5535 -4.45608 -9.68195 13
748 1 -4.78866 9.05402 15.9383 11
749 1 4.43382 7.86397 -11.9825 21
750 1 10.4044 12.1642 3.52691 17
751 1 -3.90683 -2.45885 6.66891 21
752 1 -3.58058 -14.759 -6.9693 19
753 1 -6.805 -11.6512 6.10343 22
754 1 -1.32105 -5.20747 6.37873 19
755 1 10.8803 10.2347 6.87837 19
756 1 0.408811 -6.5081 -12.8427 18
757 1 -12.3514 8.39931 -4.22645 17
758 1 5.54011 10.2911 1.1498 21
759 1 -7.57108 -6.09561 2.24354 20
760 1 5.4722 6.91953 -14.5985 16
761 1 -2.58795 -15.9171 -9.90321 11
762 1 0.0131241 -15.5447 0.0204643 19
763 1 0.0250206 -14.0392 -2.45583 19
764 1 6.80185 3.13528 -9.93688 21
765 1 5.21794 16.911 -2.59014 13
766 1 -5.72029 5.92366 -18.2074 14
767 1 -1.34976 -0.801737 16.3868 10
768 1 0.0626238 5.51692 -13.5196 20
769 1 -11.9589 0.184994 -14.9835 14
770 1 -13.637 -4.24611 -4.01871 20
771 1 2.40201 15.2763 -8.22542 18
772 1 6.53199 -2.82787 -1.59702 22
773 1 -6.0863 -4.4024 -17.0871 13
774 1 -5.95934 -7.5801 -6.34795 22
775 1 12.8055 7.2381 -5.69281 18
776 1 11.6664 -7.85136 -1.21876 10
777 1 -7.04411 10.5576 10.5834 17
778 1 8.12767 -6.90027 2.14685 20
779 1 9.69787 -4.49283 -0.107846 24
780 1 11.9189 -2.47166 9.89849 13
781 1 -1.80303 10.837 3.07473 19
782 1 -13.2269 4.52476 8.86859 21
783 1 -15.0815 7.26688 6.25051 18
784 1 -1.61085 -12.7446 8.74297 11
785 1 5.94709 1.47955 2.12747 20
786 1 6.02327 6.45779 11.6515 23
787 1 -18.861 -0.472829 -0.0931117 10
788 1 7.9808 -6.86844 -6.6791 19
789 1 -12.7872 11.6974 -9.43229 13
790 1 -0.0189691 7.25838 -0.313949 22
791 1 0.59942 -16.5252 3.84644 12
792 1 3.65611 -1.59126 12.7949 15
793 1 -2.52856 11.4471 0.249342 19
794 1 1.50649 -7.80522 2.87859 21
795 1 -7.64819 -3.53942 -2.84987 21
796 1 0.712513 1.58085 12.6751 17
797 1 -17.0932 -4.604 -4.72091 15
798 1 -1.96908 12.0675 12.8276 15
799 1 2.80196 11.5928 -0.193963 22
800 1 -9.6195 -9.5253 5.00337 19
801 1 -4.09597 -15.8908 4.17097 12
802 1 9.30033 -6.20949 8.92414 16
803 1 11.6719 -4.84013 7.79247 14
804 1 3.78366 8.91831 3.50902 20
805 1 -5.39075 7.20131 -4.43932 19
806 1 -1.67371 -7.40346 -11.4159 23
807 1 -4.45207 2.82109 -14.3219 19
808 1 -5.11443 1.57257 12.8919 20
809 1 -2.6295 16.9406 2.63045 14
810 1 10.999 1.57911 1.55278 18
811 1 3.2278 10.712 -7.14129 21
812 1 -8.88077 8.64893 12.14 15
813 1 6.19923 10.1371 6.59574 18
814 1 5.49597 -3.28967 -13.6597 21
815 1 -6.5061 -8.54824 -2.82882 19
816 1 -4.27667 -0.412944 -9.5865 20
817 1 15.1247 0.783772 6.53035 10
818 1 1.34565 0.541449 -14.7054 20
819 1 -6.76926 10.1101 14.0936 13
820 1 6.97897 -11.5133 -11.3253 14
821 1 1.83236 6.4266 -19.4948 15
822 1 -3.72948 -9.51703 -5.03494 22
823 1 11.5435 5.53541 -13.4009 12
824 1 12.3868 -2.04711 -1.11992 16
825 1 -1.6283 -4.18922 11.8855 13
826 1 -4.9226 -8.32915 -12.1466 19
827 1 7.29183 12.8102 -4.58372 20
828 1 -0.928831 -7.94188 4.81938 20
829 1 -17.7387 6.07157 1.50319 14
830 1 11.5011 3.54471 -6.23708 20
831 1 15.5797 5.29906 1.76687 11
832 1 1.3724 -2.20182 -17.4988 20
833 1 -10.9177 15.3496 3.5274 14
834 1 13.7657 8.07429 6.9771 12
835 1 9.56452 9.91157 -9.95654 16
836 1 4.62537 2.75425 -14.4568 18
837 1 9.43389 -2.75693 -2.76998 25
838 1 -13.711 1.39363 -1.87788 21
839 1 10.0768 4.66354 0.941773 19
840 1 -12.7142 -8.65986 -0.119446 15
841 1 -11.0812 7.46726 -12.6919 17
842 1 3.14154 5.87777 8.60586 24
843 1 -14.2421 -0.336873 -8.20768 17
844 1 -17.7214 5.56916 4.60652 17
845 1 -4.20244 5.79147 -9.02801 19
846 1 9.19757 -5.94868 -11.9544 15
847 1 -12.1148 -7.40847 -6.09985 15
848 1 9.32323 -9.7976 -2.61122 14
849 1 -15.8226 5.20453 -1.02677 15
850 1 -10.6174 -4.79044 -5.08055 20
851 1 8.87188 8.43219 5.6593 18
852 1 -4.29784 -8.73222 5.55375 20
853 1 8.98087 3.94589 14.0247 9
854 1 14.0137 -2.75457 6.86566 12
855 1 14.0911 -1.25799 4.25176 14
856 1 -12.9115 6.12245 0.787618 21
857 1 -3.36299 14.1282 10.6464 14
858 1 3.93071 7.96627 -8.49085 20
859 1 -2.09941 -6.49373 -20.046 10
860 1 -9.62389 12.9605 5.04423 22
861 1 -10.1494 -7.83947 7.25974 20
862 1 7.15604 15.5918 -7.13589 14
863 1 -3.50503 6.53699 10.3353 17
864 1 11.8392 -1.92457 -7.612 19
865 1 6.7651 -8.23476 9.77182 15
866 1 -2.47914 14.2208 -15.5883 11
867 1 1.65959 10.4727 -12.4266 24
868 1 -8.39586 0.392061 9.91169 16
869 1 14.4819 6.6529 4.94479 16
870 1 -4.14507 -2.41738 -12.4305 19