ITEM: TIMESTEP
6000
ITEM: NUMBER OF ATOMS
2000
ITEM: BOX BOUNDS pp pp pp
-30.0 30.0
-30.0 30.0
-30.0 30.0
ITEM: ATOMS id type x y z Coordination
1 1 -11.0387 4.41072 -13.368 14
2 1 -4.39325 -10.9533 -8.56267 19
3 1 0.380575 11.809 12.7122 18
4 1 7.19912 -11.5517 5.88001 10
5 1 -12.1596 10.4701 -0.999034 16
6 1 12.045 -4.92157 -11.1272 12
7 1 -12.0577 -0.213428 -5.40931 19
8 1 -2.08219 -7.63888 9.99529 14
9 1 -9.0508 -1.44378 -10.2836 19
10 1 -13.8311 -9.10124 5.06191 15
11 1 12.7018 2.44312 -7.74082 16
12 1 -5.221 -14.4067 1.10542 21
13 1 -9.17457 -8.11914 0.575576 18
14 1 -0.682912 1.53073 18.4683 11
15 1 -2.45702 11.4832 -9.80024 21
16 1 1.68364 1.11721 12.2166 21
17 1 -8.38779 0.331104 -15.7212 13
18 1 -14.8369 -3.94381 12.1952 11
19 1 11.4379 4.97035 9.36025 19
20 1 0.0706306 10.3917 -11.7828 23
21 1 3.83202 2.84569 -14.1674 18
22 1 15.2922 1.85927 11.776 10
23 1 -12.1154 4.33413 -6.85358 19
24 1 -11.2973 8.39618 9.19404 17
25 1 5.31935 -15.1626 4.78972 10
26 1 1.75599 -13.9722 -11.031 13
27 1 9.03434 -10.1434 -0.564524 19
28 1 -8.37433 -15.2323 -5.20824 13
29 1 -14.7932 -6.67986 10.0486 13
30 1 2.28905 -6.53709 -14.0969 20
31 1 7.22894 -7.81743 -12.6681 17
32 1 -7.40786 2.96265 -17.0369 10
33 1 -0.985509 3.3659 12.3153 19
34 1 -4.12997 -10.1754 9.55059 14
35 1 3.03121 -4.77878 14.9189 13
36 1 -11.7763 -1.07512 -1.68763 20
37 1 -15.3065 -1.08045 10.3889 16
38 1 -4.57251 14.5316 0.759471 23
39 1 -1.19846 -15.6032 -11.0408 8
40 1 3.57702 -7.01315 -8.04877 22
41 1 -6.11237 -5.83396 14.3309 8
42 1 -12.5267 4.73785 -0.878665 22
43 1 0.908045 11.9228 -14.7742 10
44 1 -0.482858 16.085 7.86826 15
45 1 -9.83313 6.85602 -7.65754 17
46 1 -2.08341 16.6821 2.23951 17
47 1 0.426697 -13.4503 3.91442 17
48 1 8.30005 -6.84205 -6.05084 20
49 1 5.69376 -6.42139 -18.8508 7
50 1 -9.41982 9.20652 11.8651 13
51 1 -12.7639 -3.63105 -9.19699 13
52 1 -8.6906 8.51525 -2.90657 17
53 1 -10.9065 -9.99408 6.59876 19
54 1 -4.13896 10.3435 12.532 15
55 1 -12.8778 8.40543 -2.39545 22
56 1 -4.82657 7.28788 14.2916 15
57 1 -8.20305 -14.145 6.41951 17
58 1 8.72007 -13.1995 -5.37976 16
59 1 3.60932 11.6668 13.6607 13
60 1 -13.3745 2.69741 -8.83955 14
61 1 -12.0416 6.95357 -5.35265 16
62 1 6.67215 7.66501 10.0496 22
63 1 13.2144 -0.26983 -11.667 10
64 1 6.52477 -9.43543 4.52559 23
65 1 -17.0073 -1.89507 6.90832 12
66 1 5.44808 19.457 4.09568 9
67 1 5.05285 -2.12676 12.7424 20
68 1 -9.87829 -11.858 4.77846 20
69 1 11.6019 4.42503 4.5359 18
70 1 -1.35957 12.3819 10.5813 18
71 1 -3.13538 -5.74866 -13.7431 19
72 1 -13.9253 8.59591 10.6405 10
73 1 -8.87031 10.8303 -0.58592 20
74 1 -4.12461 9.09123 -9.89472 16
75 1 8.24271 10.4167 -6.16606 20
76 1 4.57974 -4.90231 12.3135 15
77 1 -5.41647 14.069 -5.2747 18
78 1 -8.72328 10.7345 4.00302 17
79 1 -9.05532 -1.83971 13.9801 18
80 1 -6.41105 -5.09768 7.85471 17
81 1 13.5178 -7.71057 -4.38272 12
82 1 -8.92901 4.1855 4.44469 21
83 1 -11.5192 -14.3477 3.89762 15
84 1 10.7186 -8.15026 -4.95382 19
85 1 4.55336 -0.378236 -13.6401 18
86 1 -5.36935 0.357228 -16.1193 15
87 1 -0.496135 11.6904 1.35223 17
88 1 -8.67691 4.30988 -8.49014 17
89 1 -0.713414 7.70787 16.9628 17
90 1 -1.33296 13.1848 -6.69429 21
91 1 -12.6276 12.8371 -2.42414 14
92 1 -5.51 -8.26911 7.52178 19
93 1 13.31 -1.10224 12.5288 12
94 1 4.78329 -9.95661 -7.29566 20
95 1 3.7342 -1.56845 15.8529 15
96 1 -11.7655 -8.02927 -0.517037 17
97 1 -8.92842 -8.14656 -2.93239 21
98 1 8.69146 -11.0222 3.21056 17
99 1 5.87614 3.19125 -19.2463 9
100 1 3.16421 16.7217 -0.590742 18
101 1 -9.52735 -12.6616 10.8897 12
102 1 -13.5592 -15.1619 9.29479 10
103 1 4.73493 -7.68689 -14.6874 15
104 1 7.83155 -8.67213 -3.49508 21
105 1 -2.53068 -16.7105 6.69803 11
106 1 -8.15884 -10.7178 2.00463 19
107 1 14.8294 2.88751 8.92024 16
108 1 13.9931 -0.519432 -7.95337 14
109 1 -15.3322 -3.44465 1.97891 18
110 1 9.96464 10.2343 6.34528 18
111 1 15.9005 11.017 3.24682 11
112 1 -5.99294 2.41577 14.9184 17
113 1 -6.0668 9.35411 10.6268 21
114 1 -7.20663 7.92295 -6.09529 17
115 1 -0.700065 -6.98683 -12.2223 17
116 1 6.93802 -12.0983 -8.25717 17
117 1 -2.40794 14.3568 -10.6037 12
118 1 7.87228 -4.68357 12.167 17
119 1 -1.36004 -0.357069 -18.9471 15
120 1 -1.33234 8.16181 -8.77345 24
121 1 9.90189 5.72551 -4.02845 21
122 1 -11.1886 10.2016 -3.68861 19
123 1 -8.19381 15.7958 -3.53448 12
124 1 8.82003 2.8164 -11.2456 15
125 1 8.34018 -5.42745 6.05939 16
126 1 -8.64873 10.8525 9.43093 17
127 1 12.9826 7.46144 -6.78043 15
128 1 6.12264 11.2177 -3.9768 20
129 1 -4.41329 18.986 -1.27255 11
130 1 9.14712 10.7891 -0.362768 19
131 1 -3.22659 11.3091 -3.96485 17
132 1 -0.205779 15.2136 -8.86739 13
133 1 3.08548 11.2484 -13.347 10
134 1 -14.8537 -9.20751 1.91531 11
135 1 -14.913 11.3833 -2.24614 11
136 1 -3.47706 -4.03631 -11.3462 20
137 1 2.4271 -10.1654 -15.7852 12
138 1 8.81593 12.6212 8.13866 15
139 1 -3.64098 18.0251 7.115 10
140 1 -15.1809 -4.22628 -4.43321 11
141 1 -11.139 12.8945 0.968876 14
142 1 13.2522 -1.37376 -3.05366 19
143 1 -12.8775 1.63056 -13.6912 8
144 1 4.4859 1.64329 17.0653 14
145 1 2.27106 19.3919 5.72379 8
146 1 -3.35984 10.2045 7.36828 17
147 1 3.18497 -7.02376 -16.9892 15
148 1 -4.38896 12.8406 10.5656 16
149 1 -2.53399 10.4691 -6.66702 19
150 1 0.00201242 -5.0553 13.3385 12
151 1 -12.8513 -4.81183 3.65333 21
152 1 -1.28664 -12.7126 -12.6596 11
153 1 -10.2884 11.3429 -9.34584 11
154 1 -5.0942 -11.4594 2.01726 22
155 1 2.80553 -15.7154 -5.65424 13
156 1 -6.03785 10.9948 -13.3908 13
157 1 -14.7649 2.52982 10.6067 16
158 1 10.3506 8.14132 -5.45242 18
159 1 -8.63962 3.96642 12.3266 17
160 1 -2.31542 -8.54094 7.29712 20
161 1 -4.34637 18.955 4.69256 7
162 1 -0.962863 7.65231 8.28223 20
163 1 12.7208 5.40184 13.9639 16
164 1 -7.05418 11.5367 1.45554 19
165 1 13.6126 -4.10831 -7.86283 12
166 1 -7.29758 12.5316 12.051 9
167 1 11.6836 -10.2302 5.28722 6
168 1 -16.1884 1.13185 8.49834 14
169 1 -10.4682 -9.29552 3.82288 19
170 1 3.77758 5.42386 16.195 18
171 1 -16.4712 0.941351 -1.36835 14
172 1 -3.59916 -15.3453 -1.02865 18
173 1 -2.35658 10.9598 4.36338 19
174 1 3.19271 12.5039 11.0385 16
175 1 -7.48195 12.7082 -10.6459 13
176 1 -12.9021 -5.63523 -6.72057 14
177 1 -10.2435 -0.522879 11.5949 19
178 1 -0.570938 -9.80163 4.36663 19
179 1 3.98614 -13.6133 7.36892 13
180 1 -11.8098 11.6123 4.75612 9
181 1 15.9437 5.55549 2.72294 9
182 1 -6.41277 -8.5209 -13.858 11
183 1 4.34726 -0.677756 9.81692 21
184 1 4.92228 -15.4697 1.66088 17
185 1 -2.73813 5.68096 -10.4003 21
186 1 2.6799 -9.41137 -12.8256 15
187 1 8.97797 -0.901446 -14.451 11
188 1 0.941115 6.51189 -16.7926 13
189 1 -8.32196 -6.634 -6.2008 21
190 1 -5.87392 11.0672 -5.49387 20
191 1 -12.8366 -12.5484 10.2886 10
192 1 6.1963 16.9559 -1.16345 9
193 1 -6.8103 2.05591 17.6105 7
194 1 -8.88827 12.4512 -4.46292 16
195 1 6.51428 2.1354 9.68523 21
196 1 -1.07638 -3.23023 -13.8068 19
197 1 -5.93923 10.3706 -8.31196 18
198 1 3.22996 5.52564 -8.69279 22
199 1 -10.1725 -12.9688 8.04338 16
200 1 -8.97778 3.0352 7.12897 20
201 1 -7.56662 5.92696 7.0456 21
202 1 -1.08627 -11.3924 -7.45997 15
203 1 -6.525 -16.9327 0.249631 13
204 1 10.5009 -12.2605 -2.87515 10
205 1 12.8939 9.17834 14.4682 10
206 1 4.96586 10.7085 -6.91876 18
207 1 -14.2159 12.5778 -5.36694 11
208 1 1.12481 4.86971 9.46947 22
209 1 2.14246 -17.4276 2.35205 14
210 1 13.2689 -0.247965 1.20588 20
211 1 -9.96472 6.55823 6.41153 21
212 1 -12.0395 -3.12278 -4.12056 20
213 1 6.54352 4.83228 -15.9532 12
214 1 2.91431 -3.51515 10.148 23
215 1 8.80174 9.23632 -11.469 10
216 1 -2.00106 -0.951499 -11.3518 25
217 1 0.547602 -18.1809 5.40448 10
218 1 10.228 0.160911 -8.54307 19
219 1 -14.0628 -0.511602 7.21258 23
220 1 3.54579 -15.3263 -1.65007 18
221 1 -6.7443 -6.07596 -8.7847 22
222 1 2.55554 12.9865 -1.62868 18
223 1 0.272931 -2.28515 -16.8479 19
224 1 3.00218 3.11036 14.6704 21
225 1 13.6175 5.06525 1.18204 15
226 1 10.5515 -5.86601 -8.13887 20
227 1 -6.29069 -6.27096 -11.904 19
228 1 -13.1338 -0.602186 -8.74162 15
229 1 -10.9507 -17.1446 10.7018 7
230 1 8.29051 -1.11431 9.70205 20
231 1 -6.89856 -9.25089 -10.73 15
232 1 -1.42769 6.32761 -14.008 15
233 1 2.70075 11.4257 1.55686 19
234 1 -6.13641 -3.63347 11.2913 17
235 1 -12.6392 -10.6689 -6.36424 8
236 1 -3.46722 -6.03205 -8.78541 22
237 1 -4.4248 4.00216 -14.5151 14
238 1 -5.36276 -8.48464 -3.30691 23
239 1 7.34292 -3.9615 -15.0802 13
240 1 14.2107 2.01385 -10.4542 9
241 1 10.1648 1.62239 4.5897 21
242 1 -9.36091 -4.43211 9.53516 17
243 1 -1.92918 -13.0195 -0.536424 21
244 1 6.12002 3.7738 16.1281 16
245 1 -8.68196 -15.2114 3.24588 19
246 1 -0.338376 -11.685 1.31094 18
247 1 -0.914079 18.9941 -0.57988 11
248 1 6.38048 1.07946 -11.3697 21
249 1 -7.02061 -4.87858 -14.7259 13
250 1 -12.3718 -9.33807 10.5921 13
251 1 2.67602 7.59913 17.8322 12
252 1 1.79733 -12.1394 -1.67041 24
253 1 -4.12797 -11.6105 -11.2748 12
254 1 -9.58995 3.86122 -5.46051 16
255 1 9.74591 5.64408 6.28437 19
256 1 -7.71079 1.85084 -10.5965 19
257 1 -0.340112 7.41189 -11.899 15
258 1 4.95416 -12.9634 -9.91603 13
259 1 -6.84581 16.6344 -0.80989 14
260 1 1.06075 10.8467 4.04586 17
261 1 10.1049 -1.05705 7.04611 21
262 1 -10.6396 1.20968 5.04399 21
263 1 -4.3762 -8.37354 12.5499 9
264 1 -5.54357 10.6256 4.19209 19
265 1 2.50996 -5.00455 -10.9241 22
266 1 13.4072 9.33575 -1.3559 13
267 1 3.18406 -9.61799 4.61943 20
268 1 -2.414 -3.49451 15.0664 13
269 1 -15.0191 -4.26672 5.32881 18
270 1 -1.53065 -16.9889 -2.39506 14
271 1 -7.12844 6.69252 11.8808 18
272 1 -9.67972 5.6142 14.5301 12
273 1 -15.1904 -3.69307 8.49001 16
274 1 -14.3188 -6.82401 6.90497 16
275 1 12.4126 -3.93768 -1.13058 20
276 1 -14.1465 -9.75754 8.36446 14
277 1 8.50235 -3.06163 -8.83321 20
278 1 10.2536 -12.1261 -7.7557 10
279 1 0.663891 16.8644 -1.95485 16
280 1 -11.3498 14.5873 -4.72669 11
281 1 11.2768 7.22561 11.4918 18
282 1 7.22005 -11.7334 -2.61113 18
283 1 -3.44389 12.0715 0.780127 19
284 1 3.18434 -10.747 8.4013 12
285 1 12.6134 -6.60688 4.56468 11
286 1 -1.4912 -0.601601 15.976 15
287 1 -1.61187 13.8637 2.97247 18
288 1 11.1366 7.29671 15.6574 8
289 1 -8.01421 13.4152 -7.52991 16
290 1 0.998166 -5.12705 -17.2315 18
291 1 6.84807 -8.73058 -8.84656 23
292 1 -9.04428 1.1032 14.0067 22
293 1 -15.7405 4.03211 4.95724 14
294 1 -5.85277 10.3757 -0.707876 18
295 1 7.74071 -2.89772 7.1808 21
296 1 -10.9655 -11.3148 1.68813 16
297 1 7.81701 -8.73709 7.38672 11
298 1 -8.46651 -9.5973 12.2259 9
299 1 -13.5555 7.91168 0.528271 16
300 1 3.13407 -12.9376 -4.68008 17
301 1 -6.69763 -3.38515 -11.4096 20
302 1 7.32046 -2.16149 -12.0695 20
303 1 2.50747 13.4172 4.42822 17
304 1 -10.1143 0.444704 -3.3249 20
305 1 4.7456 -7.25701 -11.4985 23
306 1 7.05073 0.978949 -13.833 18
307 1 -5.35151 -15.5611 -6.14693 13
308 1 -12.5008 -9.34989 -3.58228 16
309 1 9.09654 4.41056 15.0625 13
310 1 11.144 4.68127 -1.2374 20
311 1 -10.9875 3.74432 -10.4236 17
312 1 3.52628 15.924 3.0744 17
313 1 -14.5269 -0.798544 -3.64321 17
314 1 -7.39176 7.64609 4.71218 24
315 1 -8.42995 8.6291 1.84222 20
316 1 13.1932 2.11548 13.8358 14
317 1 10.74 -2.66597 -3.36601 19
318 1 6.23006 -3.74055 14.8394 15
319 1 11.0795 -0.0799832 -5.69036 19
320 1 -6.43201 -17.3246 -2.73361 12
321 1 4.65839 -12.7346 -0.81554 21
322 1 9.76083 1.6135 8.42041 22
323 1 -10.5618 -5.22517 -4.54054 18
324 1 -7.022 -9.89129 4.75988 20
325 1 -10.8917 -7.36256 11.3891 16
326 1 -2.54534 10.1712 -1.08676 21
327 1 -10.5085 -10.948 -1.61409 17
328 1 7.77955 9.62419 16.9106 6
329 1 -10.3695 7.82444 -0.00916586 24
330 1 0.463235 11.3316 -8.6439 18
331 1 6.17043 13.1193 6.15545 21
332 1 -14.5173 -8.49937 -1.34942 13
333 1 -3.74702 -8.94344 -6.25131 22
334 1 -13.7622 1.3683 4.73617 20
335 1 -15.7433 7.75739 -2.58868 12
336 1 4.76536 -8.29745 7.86284 19
337 1 -5.81464 -14.2835 -3.33893 20
338 1 12.1911 12.1657 9.44674 11
339 1 3.704 5.85289 -14.1318 15
340 1 -12.2619 5.99931 -10.4659 11
341 1 -4.69637 13.181 -8.23431 18
342 1 -10.5156 6.18029 -3.08339 20
343 1 -3.03417 -11.6216 6.74686 20
344 1 12.0963 7.80749 6.20687 18
345 1 -1.02059 9.21967 -14.9128 14
346 1 -15.6266 2.48929 1.98803 18
347 1 -5.75159 -13.0362 4.13577 21
348 1 10.0328 -9.11101 -12.3125 11
349 1 -12.3485 2.82233 1.78399 21
350 1 -12.9364 -2.15797 12.6891 15
351 1 -12.6926 10.7027 8.19452 10
352 1 -10.0391 3.80649 -15.8495 10
353 1 9.78446 -9.24224 -9.54909 18
354 1 0.798497 -10.9665 -10.3951 17
355 1 -3.82367 -3.99817 10.0787 17
356 1 -6.38222 1.57399 -13.2299 23
357 1 6.19288 -11.4862 1.96726 22
358 1 -0.0446686 10.795 -2.79219 18
359 1 -12.4359 8.90731 5.33086 17
360 1 -5.7289 -2.95287 13.6793 16
361 1 -11.6201 -6.67407 -11.2374 8
362 1 -8.1245 -7.35062 3.73361 22
363 1 9.34251 -4.51486 9.61585 17
364 1 9.49808 -3.81957 4.36593 21
365 1 12.5169 7.12492 -3.55583 18
366 1 -4.06968 1.36415 12.2061 18
367 1 1.43694 15.1816 1.57407 19
368 1 -2.74563 -13.624 -5.28583 18
369 1 -3.70454 7.00954 17.5351 9
370 1 -6.07244 14.6719 9.42168 9
371 1 -9.92113 -12.6167 -7.79669 11
372 1 8.03282 14.7878 1.7057 18
373 1 1.61486 8.52345 7.04506 22
374 1 -9.3544 1.49687 10.0622 25
375 1 -11.4072 2.67404 11.5273 21
376 1 -9.56521 -10.3743 -5.69628 20
377 1 -6.3295 9.07964 7.19715 21
378 1 -6.24675 -11.8799 -6.06052 19
379 1 -3.75176 -8.22171 -15.4998 12
380 1 -7.75002 -13.3353 0.35993 17
381 1 7.88396 2.97566 7.05835 20
382 1 -8.71477 -4.53475 12.694 14
383 1 -8.95663 6.41214 -11.2549 16
384 1 8.10423 4.68711 -6.17178 21
385 1 -8.67604 -14.5097 -2.11952 15
386 1 -2.82758 19.5327 1.67907 11
387 1 -2.12744 9.26002 10.6188 18
388 1 -12.2292 -3.25377 0.989543 19
389 1 -2.33461 16.8579 -3.25694 14
390 1 4.28193 13.369 -5.51296 14
391 1 -7.24576 -9.45784 -6.90735 17
392 1 1.86848 0.631752 15.8507 16
393 1 1.13453 -16.2064 -8.28986 13
394 1 1.97324 -3.23546 -13.9117 22
395 1 7.87666 -14.2876 2.39839 12
396 1 -10.9724 10.1662 2.02731 18
397 1 2.06365 7.4431 9.88536 20
398 1 7.98054 8.93956 -3.17102 19
399 1 -7.78801 8.0787 -9.48689 18
400 1 -16.7773 -1.98464 -1.09186 11
401 1 -0.676255 18.6034 5.6677 11
402 1 -4.17418 2.08283 -11.4388 21
403 1 10.1065 5.52743 1.51261 21
404 1 2.4111 14.9485 -7.42996 11
405 1 13.0695 1.09099 -1.28451 17
406 1 0.166272 -0.0900928 -14.1943 20
407 1 0.242618 -15.317 6.08894 19
408 1 0.669393 -9.26431 9.80191 14
409 1 -10.2242 1.25502 -8.17927 23
410 1 -13.8035 -15.3912 5.44064 11
411 1 2.86068 -12.6052 -7.47322 20
412 1 7.27771 16.5034 4.82166 13
413 1 0.733126 3.12659 -14.1116 21
414 1 1.45881 -2.13211 13.254 19
415 1 -14.4037 3.69833 13.6627 10
416 1 -0.893902 -15.3825 0.673315 21
417 1 -12.3005 -1.66307 4.28632 18
418 1 14.0311 -4.25547 -4.3216 14
419 1 11.1642 -0.831568 -0.631754 24
420 1 1.47869 -9.16954 -7.6759 22
421 1 3.2005 1.46835 -11.5809 22
422 1 9.83538 -2.87631 -6.72494 18
423 1 -4.77319 -0.979897 15.697 14
424 1 4.79503 17.8338 6.41368 10
425 1 -5.07052 -2.9078 -16.0638 14
426 1 3.85332 1.44914 -19.4338 12
427 1 -8.87516 -2.61859 7.30671 19
428 1 -5.19152 17.6473 1.6596 12
429 1 -7.01131 -1.65272 -14.0199 16
430 1 -17.0458 0.920813 5.06631 14
431 1 -0.877164 -10.8025 -15.5038 11
432 1 -9.25555 -9.90265 9.35678 22
433 1 1.14987 10.2139 -5.96017 22
434 1 15.564 5.16457 7.65801 9
435 1 11.3536 9.74514 1.55264 21
436 1 -10.9988 -13.5203 0.507988 14
437 1 -2.06134 -3.43747 -18.0967 12
438 1 -8.24957 7.57182 8.88097 20
439 1 14.543 -3.16524 1.05826 15
440 1 1.71065 12.7442 -5.42197 21
441 1 14.8053 4.52619 -7.57055 9
442 1 5.31288 6.27366 13.1234 20
443 1 -11.7546 2.59819 7.78742 24
444 1 4.72208 8.10265 7.18764 22
445 1 6.81375 -0.368248 15.2924 15
446 1 1.17506 1.26925 -16.7953 19
447 1 -0.66492 -3.65239 10.1356 18
448 1 6.83911 10.1095 8.05374 20
449 1 4.73141 8.51994 -9.70443 17
450 1 -9.01466 10.1028 -6.6989 19
451 1 -2.50985 14.5315 -4.16557 17
452 1 9.59037 -3.59521 15.1578 9
453 1 7.8171 2.21252 -8.85592 23
454 1 11.8454 -11.0104 -4.91442 13
455 1 12.3034 10.5491 11.9054 14
456 1 -13.8811 -6.14567 0.956223 19
457 1 -8.75707 10.0696 -12.0419 12
458 1 -12.6802 0.384324 13.8576 16
459 1 -4.49193 12.8186 -11.7975 13
460 1 0.251426 -13.445 -5.61109 21
461 1 4.18483 -2.18463 -11.0958 23
462 1 -4.8707 15.6146 -3.05913 15
463 1 -8.73745 -6.82637 -13.1725 11
464 1 1.86862 -14.3552 0.712725 20
465 1 -16.2282 -5.00841 -1.15174 9
466 1 2.39614 8.67834 -15.9615 10
467 1 -0.94361 8.47048 14.0814 20
468 1 -12.0889 -3.52345 6.72242 21
469 1 3.75123 -10.1006 -9.81096 19
470 1 0.55006 -6.26609 10.3483 15
471 1 -10.9097 5.43446 1.65705 19
472 1 2.44332 3.85252 18.1564 12
473 1 2.58882 15.2621 -3.78065 16
474 1 11.1187 -5.30514 -5.34551 16
475 1 4.21495 9.86336 9.73732 20
476 1 -4.14318 2.04409 -18.1168 9
477 1 -8.17512 -15.8767 8.90775 11
478 1 7.52972 1.54902 -16.5602 14
479 1 3.37584 14.5487 7.10201 12
480 1 7.38876 4.12132 -13.5782 15
481 1 -4.10674 -1.51513 -13.5686 20
482 1 -4.34698 -11.4043 -3.72539 19
483 1 -9.61451 -4.21653 -12.1445 15
484 1 15.0751 2.33167 0.830023 14
485 1 14.3439 6.18663 -1.66332 10
486 1 7.03381 -6.1032 -8.62427 20
487 1 13.9445 7.8363 11.6874 15
488 1 2.22276 -10.5113 -4.87017 20
489 1 -1.30697 2.641 -18.3251 10
490 1 5.90154 13.4806 3.51826 19
491 1 10.6419 10.9428 14.9665 12
492 1 10.1341 7.82445 -1.3832 18
493 1 14.7385 -1.04827 3.57186 12
494 1 10.063 3.03346 -6.00053 20
495 1 6.73589 2.66803 13.5745 18
496 1 14.0171 4.87127 11.4708 15
497 1 12.7681 12.2288 -2.57122 12
498 1 -0.485485 2.06585 14.7523 18
499 1 15.2163 -1.51306 -5.55102 11
500 1 9.39302 3.11732 11.5384 17
501 1 -6.78858 -0.647502 -8.41339 21
502 1 12.8066 7.00522 3.47812 17
503 1 -10.9674 6.41166 11.6301 17
504 1 9.59337 11.0363 11.6642 12
505 1 10.3478 0.102355 12.3654 17
506 1 3.50629 11.2583 7.43641 20
507 1 -0.636067 14.706 11.5166 13
508 1 -1.60542 -16.6404 3.49488 15
509 1 -5.29454 8.52985 -3.43411 23
510 1 11.8749 9.95535 -7.32634 12
511 1 10.8877 -2.72365 -12.5942 11
512 1 -1.56432 15.0428 -0.220489 19
513 1 -4.41678 -14.2924 -9.30107 11
514 1 9.68438 -5.70419 -13.5964 11
515 1 -13.1715 5.32471 10.1721 19
516 1 -5.44373 4.62431 -11.6896 20
517 1 -3.00547 -14.4885 5.03895 20
518 1 -5.21585 -0.415308 -11.2701 21
519 1 -13.622 1.84983 -1.81984 18
520 1 9.72046 -7.71619 4.53904 18
521 1 13.8765 13.0424 4.1244 12
522 1 1.12151 -9.13492 6.95601 18
523 1 -14.4218 -2.2493 -6.63592 13
524 1 0.650944 0.435066 -20.7471 8
525 1 -1.84017 4.89853 9.63883 21
526 1 6.23224 9.81361 -12.2472 11
527 1 11.9046 -0.877998 15.7402 9
528 1 6.91775 5.47581 -8.84897 19
529 1 11.032 13.123 3.48686 14
530 1 4.09761 -15.4918 -8.44758 12
531 1 -11.1729 -0.90811 15.879 10
532 1 13.2706 -1.1256 7.16969 15
533 1 -2.62045 12.3557 13.5827 12
534 1 6.63367 11.1174 -9.30644 12
535 1 -14.7245 9.48197 -5.0334 12
536 1 7.39731 10.0543 4.46883 20
537 1 -9.76786 -16.9488 -0.380729 8
538 1 12.9134 -3.54264 4.30942 17
539 1 5.82395 17.4084 1.96014 15
540 1 -3.54719 2.34811 9.35505 20
541 1 -10.9222 -5.90042 1.8672 20
542 1 -8.57793 -3.66806 -8.8373 17
543 1 7.14197 -0.105573 11.9776 19
544 1 -6.4099 -11.2449 11.3921 11
545 1 7.77655 5.27995 12.0686 16
546 1 -5.30855 12.4976 -2.12759 16
547 1 0.397364 -2.92307 -20.1573 13
548 1 -10.1842 -0.446856 7.49969 22
549 1 9.53081 -0.589915 -10.9123 18
550 1 12.8616 -9.64353 -7.29319 12
551 1 8.84189 5.25313 9.00724 21
552 1 -10.0306 2.32587 16.395 13
553 1 10.1553 8.16265 8.57716 18
554 1 0.739021 -2.86359 15.8458 12
555 1 -0.110532 6.9149 11.3135 20
556 1 -0.861401 -5.91099 -14.9453 17
557 1 -6.38847 2.79165 11.272 18
558 1 4.53923 3.45376 11.6322 19
559 1 -12.4465 -18.2384 7.97137 7
560 1 9.14309 11.3966 2.64338 21
561 1 6.14497 -14.092 -3.7063 13
562 1 6.56451 11.5678 1.17599 22
563 1 8.79866 14.1406 5.29444 17
564 1 3.40644 -1.39776 -19.1584 14
565 1 -0.0837443 14.045 -2.67726 19
566 1 12.4623 10.2081 3.49812 21
567 1 -6.66376 -9.73194 -0.701979 20
568 1 -2.38385 -0.42142 -16.2917 18
569 1 -10.3498 15.4061 -1.10289 11
570 1 9.25892 -6.4282 -10.5592 19
571 1 11.1464 7.48803 -9.54087 12
572 1 9.51142 11.7978 -3.56308 16
573 1 11.4111 2.50911 15.7186 10
574 1 8.74719 -2.16344 17.0465 9
575 1 -5.32235 -13.2202 8.9812 13
576 1 -7.93082 9.52302 -15.1647 7
577 1 1.01362 13.6298 8.74516 17
578 1 7.58985 -7.02515 -15.866 10
579 1 5.62068 13.9599 -2.71534 17
580 1 5.99011 7.22879 4.33994 19
581 1 14.398 -6.65447 -1.62941 13
582 1 6.27934 7.20348 16.851 11
583 1 -11.9433 -2.16294 9.2455 22
584 1 4.29934 -18.3414 0.00480697 10
585 1 -7.70588 13.892 -0.125258 15
586 1 4.78302 10.6026 3.41248 18
587 1 -15.325 -1.38929 3.86945 18
588 1 -2.06382 4.41835 17.209 14
589 1 -6.58584 7.45642 -12.569 17
590 1 -8.21466 6.12306 -15.5041 11
591 1 3.0393 -11.7259 1.74044 17
592 1 9.03556 7.99791 -7.88716 17
593 1 -13.3566 6.58742 13.4946 11
594 1 4.67011 -3.94487 -13.644 19
595 1 1.70183 -13.9598 9.5265 12
596 1 0.623971 17.8001 1.17157 16
597 1 -3.41246 1.99071 16.6467 15
598 1 -9.32767 -8.38641 -9.0926 15
599 1 -2.9756 -9.39443 -13.2114 14
600 1 -7.96997 -14.6673 -8.37056 9
601 1 -3.07211 15.4364 -7.19711 13
602 1 -3.29049 12.9269 6.91621 17
603 1 5.69679 -11.5997 -5.05737 18
604 1 6.29147 -15.6652 -0.618734 12
605 1 3.30377 -7.04833 10.5651 13
606 1 13.6346 1.76134 -5.17692 17
607 1 -0.288643 -16.6164 -5.29155 16
608 1 -12.7258 -4.87773 10.3773 20
609 1 -5.63058 -16.0459 4.12166 15
610 1 -7.71907 -11.5497 -3.19339 20
611 1 -12.7333 0.576862 10.0187 22
612 1 -8.27742 -17.7967 2.41745 9
613 1 14.314 5.00355 -5.07166 10
614 1 -5.39074 15.1622 5.91513 13
615 1 -14.2109 6.71377 4.29719 13
616 1 11.0044 -2.74553 1.80233 22
617 1 -12.5127 -1.83427 -11.7909 12
618 1 5.97522 -0.643166 -8.85327 21
619 1 7.1098 10.6503 14.3483 11
620 1 -14.6336 1.28464 -6.46822 12
621 1 -10.4138 -5.73707 -8.28831 17
622 1 -2.55257 5.52002 14.5668 17
623 1 2.95013 8.28313 -12.802 17
624 1 11.9885 12.9734 6.50179 15
625 1 -3.32367 -1.94305 12.5936 20
626 1 -3.74923 -16.9575 1.77664 12
627 1 -11.2074 -15.6685 7.71959 19
628 1 14.6923 10.2689 9.52972 12
629 1 1.77538 -7.68696 -10.4905 22
630 1 -9.64377 -4.76227 4.65627 19
631 1 7.0313 6.81305 -12.7638 12
632 1 -3.81558 -16.8151 -4.54617 11
633 1 1.08348 -17.4446 -0.0768133 16
634 1 0.438793 -15.0062 -2.89096 23
635 1 5.12684 5.38458 -11.1754 17
636 1 3.25405 18.8621 1.08172 10
637 1 -2.62067 1.44523 -13.299 22
638 1 -1.02411 0.135931 12.5379 18
639 1 2.21544 3.84362 -16.754 16
640 1 -10.4033 -1.06826 -13.1063 14
641 1 -10.352 -3.91092 -1.284 18
642 1 0.140386 15.9572 -5.5213 17
643 1 -4.22175 -5.88094 -16.8043 9
644 1 9.18061 5.99215 -10.698 17
645 1 9.49961 -5.92884 2.21878 25
646 1 -6.04814 5.09843 9.34389 18
647 1 7.67553 -8.77172 2.26588 24
648 1 12.6251 -5.70569 1.41327 15
649 1 10.2588 -2.55789 12.0294 15
650 1 -0.118891 11.8093 7.03876 15
651 1 -12.0668 3.66297 15.2248 12
652 1 -9.3304 4.15018 9.92437 20
653 1 -1.98352 -13.7308 8.56444 12
654 1 6.24421 10.7204 11.3666 17
655 1 -17.0654 -0.45938 1.68094 13
656 1 10.9084 -6.9148 -1.13548 17
657 1 -11.4126 12.2313 -6.84966 14
658 1 3.00013 -16.7495 5.0775 10
659 1 4.74486 0.792807 12.9682 19
660 1 1.26274 15.8081 5.57543 14
661 1 0.807612 -12.2196 7.39171 16
662 1 2.76741 6.44026 13.125 17
663 1 -13.0792 -5.82995 -2.40329 16
664 1 1.2751 9.81431 15.8094 13
665 1 4.60638 13.9357 0.643969 23
666 1 -13.5212 -12.36 3.11072 13
667 1 -5.49354 -14.9336 6.83141 15
668 1 5.72597 -5.85483 7.41506 20
669 1 11.3847 -4.13819 6.92673 18
670 1 8.20505 7.97097 7.01548 21
671 1 -1.41015 -8.64992 -8.5588 20
672 1 0.228517 1.63666 -11.4099 21
673 1 -5.34357 -0.541228 10.3955 22
674 1 -2.17487 15.5019 5.74379 17
675 1 13.4058 2.05769 3.7528 16
676 1 3.25554 11.007 -3.80201 20
677 1 -3.56941 7.14596 11.7585 19
678 1 8.53883 8.4892 12.6445 18
679 1 6.62602 -4.57142 -10.9781 16
680 1 -5.27064 -12.3658 -0.930815 19
681 1 14.7605 -0.446664 9.54765 11
682 1 1.40848 -1.12052 -11.6566 22
683 1 0.465043 5.24133 14.925 18
684 1 8.64105 -10.2915 -6.30275 21
685 1 4.0865 5.36758 -18.6918 9
686 1 11.7281 3.85656 -10.5933 14
687 1 15.3672 -0.983471 -0.38846 11
688 1 -3.03765 -5.84434 13.0453 13
689 1 -3.95704 -8.11568 -10.4347 18
690 1 7.53017 13.5888 -0.423243 15
691 1 -14.1517 3.71443 7.52467 17
692 1 10.7032 5.21625 -7.62524 19
693 1 18.1718 8.13435 3.29763 5
694 1 3.94472 -4.17953 -16.6524 17
695 1 -6.73041 12.3671 6.63651 17
696 1 15.9761 8.41432 6.90226 11
697 1 11.0805 12.816 -5.8892 10
698 1 4.90305 0.945382 -17.0158 19
699 1 10.7138 -8.89967 1.29855 15
700 1 -13.9128 -0.717563 0.895152 22
701 1 10.0781 8.26236 3.94833 20
702 1 -13.6806 -11.3697 -0.500053 13
703 1 -13.4051 10.1354 -7.8356 9
704 1 4.4457 5.27154 9.72458 20
705 1 -10.0061 -2.4414 -7.04309 21
706 1 -13.062 6.3444 7.4875 18
707 1 12.4661 -8.00735 -9.96224 10
708 1 -10.8083 -7.77077 -5.6808 17
709 1 12.1367 -9.52596 -1.9598 15
710 1 -14.2158 5.47132 1.96022 14
711 1 13.5241 7.60125 8.42879 16
712 1 -8.53414 -7.76116 6.91558 22
713 1 8.42563 1.52247 17.1882 9
714 1 12.5225 2.24536 10.915 20
715 1 -12.1637 4.53718 4.62727 21
716 1 0.754118 10.1583 10.0575 24
717 1 1.68031 8.53982 -9.01977 21
718 1 -0.275299 -8.53687 -17.8491 8
719 1 -4.29434 13.514 3.93158 21
720 1 -12.6984 -12.5638 6.91219 19
721 1 7.56315 13.1259 -6.05937 12
722 1 2.07037 9.10659 12.9453 21
723 1 15.7266 -3.62206 -2.20907 12
724 1 6.64097 -7.06334 10.5842 13
725 1 -2.5079 11.9223 -13.7128 15
726 1 3.44926 11.6677 -9.34609 12
727 1 -8.27065 -1.4309 10.2025 21
728 1 16.9526 5.76785 10.6236 10
729 1 -0.0958464 -4.3308 -11.6441 21
730 1 13.9385 11.8286 0.725297 14
731 1 -15.8754 4.47012 -0.913932 14
732 1 -7.01183 -11.3209 7.36614 22
733 1 -0.156101 13.0908 -11.6314 12
734 1 6.20813 -3.24692 10.1421 22
735 1 -1.12704 -11.4802 -3.03503 21
736 1 -7.36931 14.8016 3.19566 10
737 1 -14.0272 5.62269 -3.671 18
738 1 11.8783 -2.57431 -9.78249 19
739 1 1.42166 -12.5818 -13.4967 11
740 1 -10.3919 7.47659 3.95372 23
741 1 12.6456 10.2495 -4.54499 14
742 1 6.17789 -1.52571 -16.6157 17
743 1 -7.29179 -11.3299 -9.10016 16
744 1 -0.449998 -9.68081 -5.67715 21
745 1 -3.55119 9.56769 15.9764 9
746 1 7.9394 -12.9444 -0.0119146 15
747 1 -3.38248 9.1533 -12.6849 16
748 1 11.4176 2.53109 -3.03876 17
749 1 8.14008 8.69848 1.48295 22
750 1 1.77948 -17.8298 -2.9488 13
751 1 3.11417 -5.53327 -20.3667 8
752 1 11.6074 2.67453 1.25402 21
753 1 -1.97515 4.24042 -12.7953 18
754 1 -3.92241 -9.94011 4.83579 21
755 1 6.21423 8.0136 -5.88273 21
756 1 -11.8508 3.397 -3.69935 19
757 1 -16.2274 4.87998 8.63609 10
758 1 0.490917 5.2586 18.7702 11
759 1 -11.8281 -7.33979 8.46906 19
760 1 6.10547 5.6353 7.01425 22
761 1 -2.4794 -12.6959 3.13819 21
762 1 4.80065 10.8479 -0.822731 21
763 1 -4.12734 7.65832 8.89339 16
764 1 -6.62932 -0.304772 12.9509 23
765 1 -9.25799 9.6331 6.7506 21
766 1 -7.74235 -7.3797 10.1318 15
767 1 5.15507 -12.4624 4.33033 19
768 1 11.8786 2.87036 7.38035 15
769 1 9.21064 -5.51412 -3.23026 21
770 1 6.70603 -10.3877 -11.5866 13
771 1 -9.77071 1.71856 -13.3034 19
772 1 -1.76608 4.48532 -16.43 12
773 1 5.37563 13.0188 9.12381 17
774 1 -11.4158 -4.32773 13.3615 11
775 1 -5.08009 6.21874 -8.71513 20
776 1 -15.455 2.6621 -3.67424 13
777 1 10.8766 13.306 -0.558759 13
778 1 -10.7638 -17.4055 4.70641 11
779 1 14.4264 11.3679 6.68941 13
780 1 -10.5244 -13.1678 -4.71241 13
781 1 7.33522 15.7989 7.94878 11
782 1 -7.52542 -0.344987 16.1007 15
783 1 -1.48166 -15.3474 -8.10926 11
784 1 15.2777 1.23167 6.05853 12
785 1 3.03612 -16.7429 7.75824 8
786 1 4.81534 8.52809 14.9882 18
787 1 12.2069 2.34922 -13.4764 5
788 1 5.98267 -9.70621 -0.456951 22
789 1 3.09722 -1.64302 -16.2648 17
790 1 -11.8676 0.660746 -11.1197 17
791 1 -7.78781 4.19961 -13.1098 20
792 1 -4.6041 4.38408 12.1791 19
793 1 11.7783 -1.92899 9.50162 16
794 1 -11.2751 -6.99845 5.34803 19
795 1 11.4961 -1.00272 4.5106 21
796 1 1.98716 4.11075 -11.5324 19
797 1 15.0458 8.95307 1.65174 14
798 1 -2.66448 15.6735 9.2913 12
799 1 -15.8919 -6.64254 3.40355 12
800 1 7.38361 -14.8787 -7.16865 8
801 2 -10.4153 -3.69079 -8.46296 17
802 2 -8.91849 8.34242 -7.33249 15
803 2 0.585678 -2.72264 -12.5301 20
804 2 -3.38451 5.93287 9.98953 23
805 2 3.16386 -8.83523 -8.2774 22
806 2 -8.53612 -6.6218 -8.18461 17
807 2 1.58472 1.75271 14.2291 19
808 2 3.68395 0.0847669 16.5226 13
809 2 -14.2463 -9.73974 0.215009 14
810 2 -13.8598 3.74528 -3.55739 16
811 2 0.327745 17.1964 6.38717 13
812 2 -10.6639 -0.619639 4.2241 18
813 2 0.823695 15.868 -7.18389 15
814 2 9.75854 5.15059 4.55605 21
815 2 0.113771 13.8496 -4.85708 21
816 2 9.30402 12.7987 -6.09641 10
817 2 -10.9629 -2.84151 -12.4787 13
818 2 -12.4367 -8.97902 -5.64861 11
819 2 3.45056 1.50067 11.7061 19
820 2 9.46076 -1.52712 -12.7707 14
821 2 -1.24475 -14.5197 3.96758 20
822 2 -6.99377 10.0592 -6.61217 18
823 2 -11.9826 4.96678 -5.19662 17
824 2 11.0664 4.57362 7.22544 20
825 2 13.2835 -9.17383 -9.03574 7
826 2 -11.7597 -11.8171 -0.189715 13
827 2 -12.4126 -6.62791 6.89817 23
828 2 -7.14554 -14.027 2.04246 18
829 2 9.33202 -3.97029 6.67881 18
830 2 -0.439606 -16.3306 -7.06267 13
831 2 5.10159 -0.539857 11.6002 20
832 2 -0.595029 11.6997 -10.1943 18
833 2 1.6444 -16.6486 6.48033 12
834 2 -10.6642 -12.0832 -3.06052 14
835 2 -0.803835 3.98914 14.3701 18
836 2 -9.97185 7.30996 2.08886 21
837 2 -2.15636 2.62142 17.7378 13
838 2 -7.00108 7.81887 -4.16286 22
839 2 7.92263 -12.4128 2.13731 17
840 2 0.491083 12.0423 -6.92609 20
841 2 13.2725 12.2983 7.87709 12
842 2 6.90815 14.3632 4.73826 15
843 2 10.8536 -4.16903 -7.38201 16
844 2 -3.89686 9.02045 11.1746 16
845 2 0.383392 3.05709 -17.112 15
846 2 -7.85523 10.6216 -13.6707 10
847 2 7.9367 10.4927 -4.23372 18
848 2 -5.782 -1.82765 12.0426 20
849 2 -11.4632 12.1198 2.66366 10
850 2 10.622 2.99508 -12.0224 12
851 2 -10.4301 -9.15552 11.1359 15
852 2 2.35222 -9.73477 -11.0622 16
853 2 -3.49333 -3.89706 -17.0184 13
854 2 -14.86 -7.30217 2.08628 14
855 2 11.2177 11.308 2.6625 20
856 2 -4.04842 11.782 4.8657 18
857 2 -2.06064 -8.44654 -5.84976 22
858 2 -3.79103 14.435 9.83015 13
859 2 5.54018 -1.81634 14.7657 18
860 2 1.02169 -7.89741 11.1892 9
861 2 15.5195 3.20098 7.08158 10
862 2 3.07446 13.4023 -8.69784 13
863 2 -11.816 2.97172 -1.7632 22
864 2 17.156 5.63737 8.89237 7
865 2 12.0958 -11.2887 -3.10103 10
866 2 10.158 -12.1263 -4.88676 14
867 2 -8.51091 11.139 11.436 10
868 2 6.03151 -9.64534 1.57099 24
869 2 12.4738 -5.05051 5.69453 11
870 2 13.634 12.9575 2.27898 12
871 2 -6.90034 -4.61254 13.1754 12
872 2 12.4875 -5.92289 -0.917874 16
873 2 -1.26163 8.23187 12.2242 22