ITEM: TIMESTEP
8000
ITEM: NUMBER OF ATOMS
2000
ITEM: BOX BOUNDS pp pp pp
-30.0 30.0
-30.0 30.0
-30.0 30.0
ITEM: ATOMS id type x y z Coordination
1 1 -11.9668 1.24994 -16.7835 12
2 1 -2.44177 -13.2826 -11.6595 17
3 1 1.84022 9.83836 11.7481 15
4 1 6.68163 -11.5547 1.82967 21
5 1 -12.6295 10.8039 -2.9598 20
6 1 7.30375 -12.5826 -12.4609 10
7 1 -10.9377 2.83352 -8.10746 19
8 1 -1.1037 -10.9039 8.04279 16
9 1 -10.5874 0.495642 -10.8351 22
10 1 -14.9285 -8.53468 6.34979 13
11 1 13.4444 4.70316 -10.7227 13
12 1 -6.52693 0.505498 -7.0901 20
13 1 -4.54045 -13.754 -0.4597 19
14 1 -14.1824 -10.4328 3.70028 15
15 1 2.39053 2.76776 18.1648 13
16 1 4.71759 -0.986857 7.16711 22
17 1 -0.378138 0.903136 12.5011 17
18 1 7.7565 -2.9465 2.38706 20
19 1 -4.09321 11.2885 -11.3344 15
20 1 3.02166 -5.21396 13.2702 13
21 1 -9.10601 -1.65764 -16.3268 16
22 1 -10.2034 -3.16498 11.3359 16
23 1 13.7525 4.94539 6.39496 23
24 1 2.21998 7.41067 -12.9079 19
25 1 2.35765 6.55706 -15.4775 17
26 1 16.4461 2.02279 13.1504 8
27 1 -6.2677 2.1432 -0.880276 20
28 1 -14.9633 3.11819 -11.4916 11
29 1 -3.91966 -3.74956 -10.0836 16
30 1 -10.5962 10.5662 4.8768 16
31 1 9.12989 -13.1451 3.00433 8
32 1 -0.917212 -1.19719 7.20202 18
33 1 3.35652 -15.392 -13.9664 10
34 1 11.693 -9.86267 -1.40943 13
35 1 -5.23082 -16.3034 -6.43742 11
36 1 -10.6656 -5.20363 9.50453 15
37 1 4.26109 -4.00486 -8.74232 19
38 1 -2.98922 -9.97849 -12.4381 18
39 1 6.87468 -9.44513 -14.4579 15
40 1 -3.3605 5.87715 -15.4241 20
41 1 -1.17382 4.98396 13.7481 18
42 1 -2.297 -12.4931 4.96964 19
43 1 6.3912 -5.04643 12.4971 12
44 1 -11.8654 -2.07879 0.720578 18
45 1 -16.0636 -5.9256 6.29059 12
46 1 -8.55704 -1.77018 -1.68917 18
47 1 -4.057 13.2892 -5.40196 21
48 1 -0.0177098 -15.8509 -14.8633 6
49 1 2.3156 1.43085 -9.85012 20
50 1 4.48227 -5.36907 -11.1846 19
51 1 -1.80276 -1.58429 11.8604 19
52 1 -13.4986 4.529 -2.10842 17
53 1 2.46921 12.3084 -11.229 19
54 1 -0.282371 10.2909 6.62375 20
55 1 -10.0003 7.74693 -5.89725 23
56 1 -2.39625 17.2938 -2.4429 12
57 1 1.10016 -14.5343 -1.27145 21
58 1 5.66665 -7.61359 -4.23355 17
59 1 6.54989 -6.54464 -16.3404 11
60 1 -8.97315 8.89283 11.089 14
61 1 -12.4694 -7.30713 -9.00548 14
62 1 5.28741 4.98587 3.68342 19
63 1 -6.97149 8.04195 -7.743 21
64 1 -8.10676 -8.91749 5.55695 19
65 1 -1.457 12.4285 9.17673 14
66 1 -15.138 3.22565 -8.26911 12
67 1 -6.42487 10.5576 12.859 13
68 1 2.77417 5.66426 -6.35937 21
69 1 1.98919 6.20981 7.92824 19
70 1 -9.89202 -16.6769 4.73657 13
71 1 3.14974 1.47282 11.4927 19
72 1 4.2892 -15.7432 -6.76778 18
73 1 3.51853 10.0769 14.6361 15
74 1 -14.4067 0.0343644 -11.5817 13
75 1 -11.9529 3.67002 -11.0446 14
76 1 5.0726 4.96943 9.41362 19
77 1 13.1976 -4.19187 -10.9025 10
78 1 10.1365 -10.2977 1.61314 15
79 1 -16.6249 -2.83011 4.74361 12
80 1 -8.66107 -0.318715 2.25614 18
81 1 8.04261 14.6809 4.4484 17
82 1 4.23893 -4.81443 15.799 9
83 1 -8.84105 -13.7888 2.95477 17
84 1 -12.2635 -0.299129 -1.96135 21
85 1 14.0169 2.08824 7.98996 21
86 1 9.08514 -1.79739 -2.62033 18
87 1 -2.87403 11.0526 6.91818 17
88 1 4.34506 -1.32344 10.6263 21
89 1 -6.74634 -5.14461 2.42939 19
90 1 -3.60799 -8.024 -7.39559 20
91 1 -12.4842 8.96751 6.78852 15
92 1 -10.0694 9.93601 -3.81809 20
93 1 -4.37037 6.89116 -9.67425 18
94 1 2.20073 0.859901 -6.23269 20
95 1 7.29547 2.02133 -6.69115 20
96 1 10.0333 11.53 -8.9705 16
97 1 4.0206 -6.49305 0.613962 21
98 1 4.52733 -9.81894 9.04737 8
99 1 -5.46432 15.1106 -7.26142 15
100 1 -10.9305 12.5237 1.54895 16
101 1 -8.44114 -6.4109 10.7814 16
102 1 -5.86538 7.66156 4.64907 18
103 1 -4.78231 -9.00972 11.5474 15
104 1 12.3746 -5.45635 -5.86313 17
105 1 -7.97957 5.67414 5.86352 21
106 1 -14.0115 -13.9323 1.95058 11
107 1 8.16705 -8.08611 -6.16992 18
108 1 6.56148 1.66674 -13.4096 21
109 1 -7.1219 -3.40062 -17.2443 13
110 1 2.66914 3.34757 8.65602 20
111 1 1.87373 11.8318 0.625222 19
112 1 -9.6618 7.80583 -9.45117 15
113 1 3.51389 8.58289 17.5879 12
114 1 1.3744 11.919 -8.61201 22
115 1 -16.8136 11.569 0.569384 8
116 1 -1.41478 10.5303 -0.0424058 20
117 1 -3.79049 -10.3409 3.8287 21
118 1 14.3461 0.374518 10.3309 16
119 1 -1.75272 -5.81019 -8.77213 20
120 1 5.60791 -7.71031 -9.41099 18
121 1 -3.27546 3.33398 9.18012 20
122 1 5.99451 -1.46106 16.8403 13
123 1 -8.81118 -8.2848 -4.16056 16
124 1 4.47973 -1.26028 4.18007 22
125 1 -11.4524 -10.8013 -7.63154 12
126 1 12.3717 -8.45077 4.25293 12
127 1 -9.85121 6.27087 0.238839 17
128 1 7.03218 4.4437 -13.4329 19
129 1 6.45723 16.8334 -3.17062 15
130 1 -7.90909 -12.1288 10.1502 14
131 1 -11.0495 -12.1733 9.00582 14
132 1 -5.82866 7.65121 -1.25504 17
133 1 4.17662 -9.11242 -17.6454 8
134 1 5.05161 7.31351 -4.78849 20
135 1 10.3968 -10.6837 -4.29056 18
136 1 -2.01219 -15.4702 0.584226 15
137 1 -9.48324 -10.9159 0.654579 16
138 1 15.5545 5.64864 8.83415 14
139 1 14.2962 -3.39252 -7.7646 14
140 1 -14.7733 -2.97267 1.19454 18
141 1 10.7034 8.37111 3.86185 18
142 1 15.6054 9.38196 3.30009 9
143 1 -5.81112 2.45053 14.7302 16
144 1 7.10775 9.74908 2.02603 19
145 1 -6.79795 7.158 8.12773 22
146 1 -4.8858 11.9525 -7.8639 20
147 1 -3.99658 -7.44113 -10.4032 16
148 1 5.01761 -11.9949 -14.8501 12
149 1 0.613065 14.0567 -13.6674 12
150 1 5.04714 -2.6834 13.8664 21
151 1 3.08252 0.251238 -13.3129 20
152 1 -3.26809 8.77118 -8.26419 20
153 1 13.7474 -0.612764 -10.1324 12
154 1 -11.6744 10.665 -6.52701 22
155 1 -8.31698 15.8701 -2.67559 13
156 1 6.6491 1.87504 -10.0905 21
157 1 8.54398 -8.62138 3.69544 15
158 1 -6.84093 5.71512 -9.46531 19
159 1 -7.2523 11.1826 6.12612 14
160 1 10.5293 8.39342 -7.06292 21
161 1 5.44478 13.391 -3.53554 17
162 1 -2.96997 15.7928 0.580616 13
163 1 10.2936 13.5007 -1.49757 18
164 1 -4.81456 10.235 -5.89137 16
165 1 2.00666 15.2767 -10.9537 12
166 1 2.63471 10.1904 -13.2997 16
167 1 -12.7654 -11.6341 0.985089 17
168 1 -14.2739 12.9774 -1.47876 14
169 1 -5.19361 -0.171457 -12.8418 20
170 1 3.48 -6.45126 -16.4937 20
171 1 10.0706 13.707 9.4539 9
172 1 -0.385522 14.5585 3.41784 14
173 1 -10.8694 -2.65564 -7.29252 20
174 1 -11.2857 14.2249 -1.55738 14
175 1 14.9868 0.394868 -4.84179 14
176 1 -12.3348 -2.05946 -16.4539 11
177 1 8.314 1.30666 16.8947 12
178 1 5.70624 19.1968 -1.61767 8
179 1 -2.95294 8.05136 5.99613 20
180 1 -0.266167 -6.97569 -15.0721 18
181 1 -5.02015 12.7768 7.67908 14
182 1 -1.21214 13.2596 -6.74353 20
183 1 0.704909 -6.46938 11.2132 14
184 1 -16.2066 -6.36992 0.23065 12
185 1 -1.16803 -10.7689 -16.9919 12
186 1 -10.2663 10.9226 -8.60341 13
187 1 -0.979634 -15.587 5.32405 14
188 1 1.84914 -17.4546 -8.13499 14
189 1 -5.38699 10.9472 -13.729 10
190 1 -13.9962 2.62425 8.42168 16
191 1 2.77297 6.25942 -2.65154 19
192 1 10.5474 8.66316 -3.8626 21
193 1 -6.0447 5.79731 16.1702 12
194 1 0.110644 -12.2599 4.97723 17
195 1 -11.5527 1.36244 0.0734277 21
196 1 4.15643 17.0061 1.32424 15
197 1 -0.515762 5.03649 9.55093 15
198 1 15.8467 5.71806 13.0338 9
199 1 -7.89549 10.5479 0.666832 19
200 1 12.0569 -5.90335 -8.79731 16
201 1 -6.96434 10.7533 9.31967 16
202 1 -5.73533 -2.7722 -7.36861 20
203 1 14.2973 -5.62095 3.95228 11
204 1 -6.84225 -3.68765 5.03301 15
205 1 -15.8159 0.676759 5.86397 15
206 1 -9.74599 -9.95016 3.46436 20
207 1 5.55594 3.27487 12.111 21
208 1 -14.5488 1.59241 -2.67682 14
209 1 -4.78867 -16.2027 -3.27108 14
210 1 -6.29241 -4.89879 -4.647 20
211 1 6.37281 -7.47821 -1.51331 18
212 1 -3.05431 8.92334 2.70698 18
213 1 -7.16526 0.371573 5.34811 19
214 1 7.2045 14.5263 7.83007 17
215 1 -5.57153 -2.21165 -2.7739 19
216 1 -7.03071 12.6101 -9.44643 13
217 1 -13.5118 -2.01885 -5.30226 14
218 1 -8.68035 -0.442691 10.684 23
219 1 -2.15163 -13.4154 2.51107 22
220 1 5.27715 -12.9503 3.84322 13
221 1 -14.4947 12.566 2.27825 11
222 1 14.8203 2.0342 5.15473 17
223 1 4.60839 1.69701 -4.09256 18
224 1 -6.10677 -6.4222 -16.3082 13
225 1 3.12216 -0.970447 15.7607 16
226 1 6.38166 -17.3641 0.388016 12
227 1 -5.44851 7.70791 -14.0901 13
228 1 0.396015 -10.2505 -13.9768 21
229 1 7.90186 2.67652 -16.0186 9
230 1 2.88033 9.07744 -16.4641 10
231 1 -9.42228 -5.36765 -9.24144 18
232 1 -4.15261 14.3333 -9.66244 13
233 1 -9.40965 -8.31899 8.44634 17
234 1 8.40659 14.8056 -4.91594 11
235 1 -8.08355 4.26556 14.5223 16
236 1 -7.51379 13.9198 -5.3052 16
237 1 7.03679 -1.80135 12.1548 18
238 1 -3.3012 -5.31794 -14.6168 16
239 1 -6.04867 9.72755 -10.6082 14
240 1 2.83495 6.60769 -9.48569 19
241 1 -4.27293 -14.6675 5.19258 17
242 1 -8.7978 3.89617 8.92085 21
243 1 -8.70441 5.68438 11.5304 16
244 1 1.47226 -11.3875 -9.23532 23
245 1 -7.4252 -15.7799 -3.72526 13
246 1 10.8439 -13.1978 -2.28269 14
247 1 -0.224874 -6.84537 -2.96512 20
248 1 10.5859 6.03625 10.9339 19
249 1 6.01908 9.78081 -7.75576 19
250 1 -1.99164 11.721 -3.93328 17
251 1 -10.2694 2.10363 3.04066 19
252 1 -12.8663 13.3925 -4.5227 13
253 1 0.0781339 7.26696 12.1043 18
254 1 5.16519 -18.9128 -2.27841 14
255 1 9.66662 0.587767 -5.00941 22
256 1 -0.167603 8.15868 4.60535 23
257 1 -11.9702 4.29522 1.56319 19
258 1 -11.169 -6.61543 -3.45287 17
259 1 4.63437 4.3406 -14.668 16
260 1 2.43447 -2.46633 8.18862 19
261 1 9.64838 9.75414 -11.6123 13
262 1 1.0322 -9.66979 -4.9446 18
263 1 -2.10198 0.617304 -11.7673 21
264 1 -0.0660226 -17.0379 2.78688 17
265 1 7.36079 0.726532 -2.62563 18
266 1 -9.7537 -3.87143 5.8958 17
267 1 3.66897 -18.6449 -5.43012 11
268 1 -10.3368 -7.58809 -6.87322 19
269 1 3.95659 13.9716 -0.309887 17
270 1 0.523139 -1.99931 -18.4195 13
271 1 6.39912 4.99987 14.9721 21
272 1 13.5749 4.33791 0.175675 20
273 1 -6.08196 -9.99298 2.29694 19
274 1 10.0386 -5.65047 -10.456 16
275 1 -1.46206 -10.0305 2.44581 19
276 1 -8.96707 -4.53473 -12.2634 19
277 1 -9.20252 3.73582 -11.1571 19
278 1 -10.7554 -13.9005 6.18382 15
279 1 12.5423 -2.49121 11.0264 9
280 1 2.05403 -2.27268 5.36293 21
281 1 -5.97385 -9.49712 -12.6617 12
282 1 -0.561 -7.32915 7.13606 18
283 1 -1.06103 7.57169 -13.9598 19
284 1 5.01836 7.12845 1.77248 21
285 1 -9.14613 -7.11479 1.67071 20
286 1 1.27974 16.8353 3.27197 11
287 1 -7.49129 -3.21667 13.1527 19
288 1 -10.2982 -8.98416 -9.82468 14
289 1 -5.884 -6.4767 -12.68 17
290 1 -3.06285 8.96444 -16.075 12
291 1 -2.9666 -11.3022 -8.85417 20
292 1 -2.98964 -8.00588 -1.29979 21
293 1 11.7597 -7.45663 -11.111 9
294 1 12.0644 2.33403 -11.5506 12
295 1 9.62863 1.74771 3.9068 20
296 1 -6.62979 -8.17659 -5.97864 22
297 1 -9.31936 -5.45171 13.3029 11
298 1 -1.80684 -12.0567 -0.638424 18
299 1 9.43206 7.24762 16.1659 15
300 1 -8.32167 -16.8134 1.81405 14
301 1 2.6343 3.48005 -4.53014 22
302 1 -0.0973732 -9.73192 -0.994681 17
303 1 0.379746 16.784 -2.62687 15
304 1 5.22947 -1.46832 -13.3179 22
305 1 -9.21479 -4.7793 -14.8747 13
306 1 4.62478 -3.87045 2.34435 19
307 1 -10.4465 -10.7833 11.6481 9
308 1 3.54068 3.44051 14.0711 17
309 1 2.45575 -11.2257 -2.3641 19
310 1 -5.39741 -12.1884 -10.6999 13
311 1 -13.6829 5.85853 -9.55174 12
312 1 8.05474 6.82741 3.70541 23
313 1 -7.74156 2.1195 -9.08038 21
314 1 -1.88217 8.64754 -10.5126 19
315 1 -6.33502 -1.55585 7.31793 17
316 1 3.83946 -13.3651 -8.9681 20
317 1 -5.53612 15.3958 -3.28994 15
318 1 2.30594 12.2153 5.90645 19
319 1 7.81931 -1.19447 5.07396 22
320 1 -8.93869 2.65491 5.37376 20
321 1 -2.76713 -6.7624 12.2663 15
322 1 -7.12669 7.95083 1.34793 16
323 1 2.29607 -6.94252 -13.0487 20
324 1 13.3618 8.75725 -2.12436 18
325 1 4.17985 -9.97215 -4.20611 22
326 1 -4.30232 -1.71787 15.7007 16
327 1 -16.6313 -4.71287 3.20079 13
328 1 0.294847 -18.9798 -5.33616 14
329 1 -4.60519 9.12577 15.4881 13
330 1 -11.3895 4.4657 13.2046 13
331 1 -14.5803 -3.3944 7.14976 13
332 1 -11.9049 -8.29901 3.26064 20
333 1 14.4082 -2.16729 -2.44188 13
334 1 -12.3937 -9.48897 8.52605 14
335 1 11.3614 -3.17043 -7.42253 20
336 1 7.42915 -15.6723 -5.79618 13
337 1 3.49365 17.5953 -4.29059 12
338 1 -2.99487 -4.76722 7.29999 16
339 1 -9.94569 13.0894 -4.11153 22
340 1 1.85168 3.80545 5.68087 20
341 1 11.8226 3.64789 9.96163 18
342 1 -10.0733 -2.38664 3.44034 16
343 1 8.84398 -8.13855 -2.51211 17
344 1 -5.40097 3.40002 3.98373 18
345 1 -5.77722 4.82748 0.89073 16
346 1 5.56964 -9.97703 4.45425 15
347 1 9.98205 -3.60044 4.81446 20
348 1 -4.55964 5.85762 7.47342 23
349 1 -5.64255 -5.94564 -8.53664 20
350 1 -2.76539 1.45711 17.4147 12
351 1 -4.4608 9.81125 -0.132676 20
352 1 8.82979 9.64307 17.8229 9
353 1 -10.5234 13.9955 -7.04259 11
354 1 1.52491 -3.88588 -16.3008 19
355 1 -6.99755 0.422599 -3.77024 19
356 1 3.3473 -9.48613 -14.394 22
357 1 -10.9333 3.30782 16.4001 8
358 1 -15.4198 5.65727 2.76572 14
359 1 -3.71871 -4.74768 -6.10523 20
360 1 -7.63035 9.78793 -1.601 18
361 1 3.83675 -4.93355 6.30703 17
362 1 -10.5523 -13.7207 0.40917 18
363 1 6.55048 -7.2229 6.62575 16
364 1 -8.22302 -9.16948 12.2189 13
365 1 -15.3497 10.4017 -2.45632 16
366 1 -2.59501 -4.54099 10.6415 18
367 1 6.23453 -13.028 -5.12789 21
368 1 -6.66439 -3.64096 -10.6408 20
369 1 7.97914 -0.772274 -15.211 15
370 1 6.07399 14.6422 2.39391 22
371 1 -10.3449 -0.573399 -4.36649 20
372 1 2.07967 -10.0325 -11.8661 18
373 1 6.70131 5.1086 -10.4217 19
374 1 -3.30401 -14.9189 -9.22885 17
375 1 -13.3753 -6.19086 -5.75816 12
376 1 -5.63473 -7.54449 -2.48944 20
377 1 11.0903 9.17092 14.2347 12
378 1 11.7846 3.5615 -2.13578 21
379 1 -7.87887 2.31949 -13.1941 20
380 1 3.14567 17.587 -1.42072 15
381 1 -13.7884 1.70434 -6.232 14
382 1 -10.4549 6.39584 7.48328 19
383 1 -8.80998 7.90607 3.73582 17
384 1 -6.35097 3.51826 7.2171 22
385 1 12.27 6.42682 13.9663 14
386 1 8.87682 -2.69624 -5.76459 19
387 1 8.34532 -1.30516 15.0222 12
388 1 12.1807 -0.313227 -7.03451 23
389 1 0.326018 -15.3324 -4.85127 17
390 1 5.35624 1.50607 8.97701 20
391 1 -4.71739 5.4993 -3.37386 17
392 1 -0.485015 -6.976 -6.29663 20
393 1 -3.11811 12.3826 1.4219 17
394 1 5.50331 4.83658 -2.72747 21
395 1 -11.16 5.15434 -4.9306 19
396 1 5.63917 -10.6209 -6.95852 20
397 1 7.55604 -1.73588 8.69999 20
398 1 -10.2286 -2.25727 -10.5794 21
399 1 -3.88894 -7.58982 1.98279 20
400 1 -6.0859 -6.64565 13.2917 16
401 1 -5.25988 11.5137 -2.05278 18
402 1 -13.7859 -10.495 -1.98163 13
403 1 7.89183 10.4996 15.3368 17
404 1 -10.5612 4.04485 -1.50591 19
405 1 -1.86999 11.8105 -9.01445 16
406 1 7.47107 11.3901 4.18512 21
407 1 -14.8401 -7.34763 -2.50252 14
408 1 -0.559768 -11.0558 -6.71999 23
409 1 -13.0822 -1.75132 4.51585 21
410 1 -12.5242 8.21876 -4.83584 23
411 1 5.14832 -10.0096 -0.679796 20
412 1 -7.15847 -12.6825 -2.10204 17
413 1 11.8806 10.0789 6.25622 13
414 1 5.21989 7.72708 -13.7126 16
415 1 -13.2948 1.7704 -13.703 12
416 1 -1.46556 15.6131 -11.1558 12
417 1 -8.96533 5.04188 -7.83441 19
418 1 0.573322 -11.6509 1.60746 17
419 1 11.304 3.90077 6.73152 19
420 1 0.131986 10.5497 -14.4675 14
421 1 -8.21821 1.48839 8.03952 20
422 1 -15.458 2.35332 3.06705 15
423 1 -8.56906 4.83478 2.87206 22
424 1 -3.16194 -17.9352 4.55508 11
425 1 -0.231439 -8.32559 -8.94608 18
426 1 5.37994 -9.6213 -12.2342 24
427 1 -4.24464 -4.81036 3.68675 20
428 1 -12.8656 0.256687 2.75061 18
429 1 -13.9646 -6.55673 8.53387 11
430 1 -13.4014 10.2841 3.84848 18
431 1 -2.93232 -8.24709 9.22358 21
432 1 -8.27904 1.91214 -16.3243 18
433 1 7.61644 -10.5278 -9.94551 16
434 1 1.03677 -8.1208 -18.0049 13
435 1 -4.97695 -6.3994 9.28561 18
436 1 2.98642 -6.67134 -5.02275 17
437 1 -6.29067 0.0931387 -15.6257 18
438 1 5.36908 -14.5659 1.78329 18
439 1 0.626845 10.842 -5.40622 17
440 1 -12.8743 12.4272 5.72693 8
441 1 -6.02935 -4.03947 15.8105 9
442 1 -10.9733 -7.62285 -12.4539 12
443 1 -11.0511 -9.87388 5.63805 19
444 1 6.342 -7.24758 9.75719 10
445 1 8.69763 4.42325 -1.21716 21
446 1 -6.79131 1.56775 2.06194 20
447 1 1.79109 -1.75372 -8.57293 20
448 1 7.27585 -5.781 3.30969 20
449 1 13.7856 6.0253 -2.96553 17
450 1 -3.27235 3.47008 12.3531 16
451 1 3.42851 11.5408 -2.67401 14
452 1 3.65927 -7.27899 4.02632 19
453 1 2.57169 -17.2135 -3.08306 22
454 1 -3.49288 4.32238 15.6479 15
455 1 -3.1209 13.1535 4.5875 14
456 1 -9.17066 -13.0057 -6.18764 11
457 1 9.52375 15.1197 1.36574 16
458 1 2.51504 4.97034 11.3633 19
459 1 -8.31206 2.61366 11.9673 19
460 1 -7.09465 -11.3502 -4.8886 19
461 1 -11.0795 3.48135 6.93807 20
462 1 -3.65269 -10.9548 -5.86664 19
463 1 -5.74688 8.94377 7.24154 22
464 1 -0.529432 -13.5579 -9.10211 19
465 1 -4.04856 -4.83875 -17.7623 12
466 1 -7.11326 -12.4506 1.00431 20
467 1 -5.94175 -1.71141 3.7371 19
468 1 7.60761 0.99817 6.72934 20
469 1 -4.86271 -4.03478 13.127 17
470 1 -10.9578 3.44723 -14.0657 17
471 1 7.72491 7.37927 0.272965 22
472 1 -10.3385 -13.7265 -2.979 13
473 1 -0.588704 4.81946 -5.95554 18
474 1 -0.032754 17.002 0.483694 12
475 1 -1.71064 5.77536 -8.51104 18
476 1 -3.44346 8.31218 9.23564 21
477 1 -11.9499 -3.04357 -2.68499 19
478 1 0.736202 16.2775 -5.38636 17
479 1 7.50986 12.7523 -7.01088 18
480 1 -5.6656 -9.90964 -8.12025 18
481 1 4.348 0.786655 18.5725 11
482 1 0.711299 -13.6877 -12.4796 20
483 1 -0.625455 -2.37025 -10.3915 20
484 1 10.9398 -12.8915 0.271425 11
485 1 -13.146 10.7168 0.361313 23
486 1 1.27774 5.21408 15.2455 17
487 1 8.71073 12.2404 -3.69982 16
488 1 5.0778 7.40621 -1.18564 20
489 1 -10.9255 6.28109 -11.6974 13
490 1 0.978509 3.33125 -7.90266 20
491 1 -1.58184 -9.39246 5.68985 18
492 1 -15.1695 -2.94039 -1.54641 11
493 1 4.67912 16.7453 4.13298 14
494 1 -2.26301 3.18674 -13.5717 24
495 1 10.9853 10.5701 -0.839128 19
496 1 4.96651 14.5277 -10.197 17
497 1 7.35079 -5.03871 0.321886 17
498 1 12.6447 0.15437 -2.62612 17
499 1 0.736386 2.12069 -12.9936 19
500 1 2.75847 -7.91697 -1.49808 22
501 1 2.35918 -14.7118 4.1221 14
502 1 1.40471 -8.91515 8.75337 14
503 1 -8.87471 2.083 -5.69078 21
504 1 -8.58846 -11.3658 6.89787 23
505 1 -1.125 -12.5422 -14.5253 14
506 1 8.62667 12.5331 6.77642 17
507 1 1.24182 4.75661 -10.67 21
508 1 1.38478 -3.35566 15.0629 14
509 1 -14.1791 -0.0980395 8.95999 13
510 1 -2.13896 -14.3356 -2.37712 19
511 1 -9.82758 -4.26163 -0.214649 17
512 1 9.6923 -4.97724 -4.13548 16
513 1 11.6652 -1.08193 0.0675346 16
514 1 -2.96558 7.30697 -5.82284 16
515 1 1.14607 -3.71528 -6.60611 19
516 1 4.32731 3.20038 -8.53184 23
517 1 9.59248 -5.79727 -7.23968 19
518 1 -8.3819 1.39632 15.5623 16
519 1 10.8339 15.841 -3.12 7
520 1 -2.53715 -0.329202 -18.4258 11
521 1 3.07937 -3.83687 -13.9006 21
522 1 -6.64208 -3.31357 10.3359 20
523 1 -3.77111 13.8846 -1.71081 21
524 1 -7.98507 -1.34453 -12.659 22
525 1 -15.7804 -0.755535 3.02702 15
526 1 -2.07042 -7.68589 -17.9619 11
527 1 -5.77015 -13.2755 7.73252 18
528 1 0.069118 8.51924 -7.86973 18
529 1 16.8742 2.90197 7.65865 12
530 1 14.9607 6.9125 0.251987 14
531 1 -13.2513 -13.7596 -1.70639 9
532 1 -1.51169 -9.83326 -3.58053 16
533 1 -1.57395 -3.00896 -16.0731 21
534 1 -9.35234 9.07461 7.67841 16
535 1 1.62306 -5.15538 -8.97379 20
536 1 2.08167 6.54452 0.283872 19
537 1 13.0759 -2.92551 2.28035 18
538 1 3.32159 13.6526 -13.6206 12
539 1 1.83292 -7.81671 1.68977 21
540 1 6.61645 -0.861988 -5.24861 22
541 1 13.7132 7.7065 -8.54644 15
542 1 6.42157 7.84389 14.0566 18
543 1 -11.2428 5.21061 4.57564 19
544 1 5.59632 10.7438 7.07164 21
545 1 10.6379 0.917346 14.617 14
546 1 0.253581 1.08163 -15.7799 19
547 1 -8.18858 -8.21685 -8.30406 16
548 1 1.66656 -3.33859 11.1077 19
549 1 5.16518 13.1941 5.33055 21
550 1 5.62269 8.48639 -10.6017 19
551 1 -8.05547 10.8425 -6.41999 20
552 1 -0.93458 13.8724 -3.90489 20
553 1 9.0052 -3.58212 10.8684 12
554 1 9.39756 2.01749 -12.9734 16
555 1 9.76916 -13.6769 -5.71296 12
556 1 11.5299 9.08123 11.5466 11
557 1 -14.4332 -8.38519 0.382151 19
558 1 -7.41927 7.65081 -11.7024 15
559 1 -0.45305 1.82181 8.08761 19
560 1 -12.3968 -0.442094 11.3026 16
561 1 -2.51232 16.6174 -8.39523 10
562 1 3.01473 -14.1696 -3.94515 19
563 1 4.75991 -0.693136 -10.6146 22
564 1 -2.3627 15.9383 -5.77406 14
565 1 -8.66211 -7.41686 -14.2972 13
566 1 5.63 -15.9983 -3.05611 16
567 1 -13.2947 -5.48413 -0.667031 21
568 1 0.0145114 10.7988 -11.7509 20
569 1 -9.09396 1.56474 -2.20263 21
570 1 -0.406269 8.22655 14.8234 20
571 1 -9.17218 -2.16834 8.32921 20
572 1 7.64854 10.1408 -1.01811 19
573 1 2.61173 -7.97699 -10.2295 23
574 1 2.32338 -5.79489 8.8602 19
575 1 8.85278 3.59634 -4.2087 22
576 1 -12.6829 8.12935 -1.18579 18
577 1 5.79492 3.67733 17.7465 12
578 1 8.22157 14.6546 -9.00425 10
579 1 12.1555 -7.9236 -3.51566 15
580 1 3.45816 7.87741 10.4387 19
581 1 -1.71253 3.79974 -16.5328 18
582 1 -8.63639 -14.4495 8.47425 13
583 1 -1.06534 3.04797 -10.1791 20
584 1 5.42161 1.29921 -15.9205 17
585 1 2.41171 14.9558 5.6974 15
586 1 8.66418 5.22746 -6.97936 18
587 1 -3.01761 -2.23518 -13.1016 21
588 1 -5.63232 -9.88004 -3.21346 20
589 1 -12.0932 -4.99388 -10.9438 16
590 1 10.6602 3.19799 0.819101 21
591 1 10.9232 6.55104 -1.37349 21
592 1 6.50817 -5.22857 -7.85285 16
593 1 13.6314 6.18538 11.3419 17
594 1 2.26937 -9.20129 -7.27685 19
595 1 1.68769 3.56819 -16.2036 16
596 1 8.43677 11.8046 0.974952 20
597 1 -8.87286 2.99674 0.493297 21
598 1 6.15982 11.901 13.2826 10
599 1 14.024 4.54602 -6.22873 18
600 1 13.9651 -0.702593 4.26702 15
601 1 16.6278 2.47509 -8.59295 7
602 1 7.53495 2.70597 14.1304 17
603 1 15.3444 3.40078 10.8704 18
604 1 -0.411454 -4.21038 8.49403 18
605 1 14.9268 10.0756 -4.25127 9
606 1 7.19271 2.15262 -0.0926197 22
607 1 0.721854 -0.0796461 17.9326 12
608 1 15.895 -0.372585 -7.79496 11
609 1 8.25313 1.15755 10.5209 21
610 1 -7.86806 -0.672748 -9.83934 17
611 1 11.107 4.69619 3.88841 20
612 1 10.023 -7.33259 1.81376 15
613 1 -0.0225077 -6.71835 0.00379772 18
614 1 -11.7172 8.08822 9.79557 11
615 1 7.69195 11.5561 9.95399 17
616 1 11.5669 2.02218 11.8658 19
617 1 2.128 10.6162 9.20318 20
618 1 1.19959 13.7181 8.54845 11
619 1 7.29866 4.06154 5.14698 22
620 1 -1.93917 -18.7928 1.22282 12
621 1 -6.56185 8.61723 -4.13702 21
622 1 12.7136 10.1953 -10.4459 9
623 1 10.9217 -0.975811 -9.63483 15
624 1 2.1482 14.1313 -2.76916 19
625 1 1.35465 -14.3462 -7.12168 23
626 1 9.35932 -9.86973 -12.5133 13
627 1 -14.4994 3.9965 5.45364 18
628 1 -5.5454 5.00738 -12.5228 18
629 1 -5.32068 -18.6549 1.93146 11
630 1 -4.72812 -0.275044 -9.68768 20
631 1 -15.3229 4.15223 -4.98096 13
632 1 12.3578 -5.87213 6.53703 11
633 1 13.3043 12.357 1.75018 12
634 1 1.43413 -9.54034 4.53301 20
635 1 -12.8333 -0.340535 -8.66744 19
636 1 2.7306 1.20373 -18.103 13
637 1 -0.923196 -3.88281 5.23824 19
638 1 -2.7947 7.17227 16.7511 15
639 1 5.05725 10.9314 -12.0249 16
640 1 13.9375 0.464498 12.7688 12
641 1 5.68585 4.40196 -5.89987 19
642 1 12.6403 14.8399 0.163199 11
643 1 2.87611 -16.0952 -11.0437 13
644 1 -10.2186 -1.67655 14.0084 15
645 1 10.2198 -1.00549 6.80781 20
646 1 0.362875 10.8375 13.4195 14
647 1 7.36791 11.8034 -9.98524 20
648 1 -14.5446 10.5332 -5.77879 12
649 1 10.4405 11.6951 3.75008 21
650 1 -7.69933 -15.1431 -0.733311 15
651 1 13.0897 -2.77613 5.75888 19
652 1 11.2988 15.9638 6.43684 8
653 1 -5.81514 4.76624 9.94558 21
654 1 -12.1433 -5.75818 1.89791 20
655 1 -10.9638 -1.98525 -13.5008 19
656 1 5.26114 0.503608 12.7047 20
657 1 -5.39773 -10.219 6.29747 18
658 1 8.82753 6.66566 13.4987 19
659 1 -7.18124 13.3968 -1.43973 19
660 1 7.52313 0.571904 2.85261 22
661 1 4.89359 -3.92765 -1.15954 17
662 1 4.72773 1.67486 5.18891 21
663 1 0.332124 -1.58143 -13.5469 19
664 1 -10.4889 -0.591377 5.6816 22
665 1 7.73754 -0.386343 -11.4017 21
666 1 -3.07295 -7.4609 -4.40955 20
667 1 9.83793 -10.8586 -7.41274 13
668 1 6.91021 6.38405 6.34773 21
669 1 4.71958 4.0769 6.99281 19
670 1 -10.5202 0.898559 13.344 16
671 1 9.11147 8.16623 8.95078 16
672 1 -1.96043 -3.70666 14.0683 12
673 1 -3.17547 6.0179 11.117 19
674 1 -0.811162 -4.3161 -13.1721 20
675 1 -5.78324 0.955031 9.78741 21
676 1 -6.06339 3.02859 -5.30053 19
677 1 8.53488 4.03724 11.878 20
678 1 -13.0715 -15.241 4.98781 12
679 1 11.3135 6.37382 1.60324 19
680 1 7.10231 -10.5773 -4.02659 18
681 1 -3.27929 3.46893 -4.87354 18
682 1 9.7093 9.42441 1.63631 20
683 1 12.3081 14.3137 3.32586 14
684 1 3.52768 -1.17213 -16.7094 17
685 1 -2.65949 0.657031 10.4143 22
686 1 2.23051 13.6161 -5.95962 21
687 1 12.8295 9.39108 1.50441 17
688 1 -4.51415 -10.312 0.0642304 20
689 1 -0.390673 1.52426 -19.0081 9
690 1 -9.71409 11.6178 -1.21162 21
691 1 7.51988 -7.25058 -11.7704 18
692 1 2.45882 6.545 3.80765 17
693 1 11.0541 7.58252 -10.1289 18
694 1 11.8103 11.4493 -4.34844 19
695 1 -2.82057 6.02885 4.07632 19
696 1 -7.40475 4.93846 -2.18745 19
697 1 7.86696 6.79359 -2.98657 21
698 1 13.3033 3.0414 14.2818 14
699 1 10.0806 -0.681357 11.9228 15
700 1 -2.62476 -14.2373 7.89825 12
701 1 -8.5649 5.05811 -13.6255 17
702 1 4.49499 12.8112 9.00267 15
703 1 8.11621 -3.30863 -13.4 13
704 1 0.352128 -0.908646 9.99444 19
705 1 5.60947 14.8621 -6.36745 16
706 1 8.59336 9.05394 6.07697 19
707 1 13.663 -5.28152 -2.88613 12
708 1 6.46485 7.19335 17.2137 14
709 1 -11.5148 -6.90226 6.8744 18
710 1 -0.347187 -17.696 -2.32668 17
711 1 -2.07567 -2.49614 -7.62195 21
712 1 -9.25413 14.6969 0.678012 14
713 1 -1.03967 5.40253 6.25994 21
714 1 4.48183 -4.04002 -5.22666 17
715 1 4.66549 11.1762 2.53068 18
716 1 -12.9732 -4.38417 4.60074 20
717 1 -0.864938 4.20272 17.1258 13
718 1 -6.831 5.08083 -15.9681 13
719 1 -9.71204 4.24255 -16.967 11
720 1 5.02678 -12.4815 -1.36874 21
721 1 8.32567 8.46779 -8.85984 19
722 1 1.70009 -4.55802 3.71369 18
723 1 -3.45865 6.34823 0.107369 18
724 1 -11.5597 5.28253 10.313 16
725 1 6.40898 -3.75887 -11.0543 19
726 1 3.64462 -10.8416 6.1467 13
727 1 1.53379 14.9274 0.56613 20
728 1 -5.68491 -0.143024 17.5841 8
729 1 -8.58165 -10.337 -12.2859 8
730 1 -3.93512 -8.52282 -15.3086 15
731 1 -5.23373 -13.0622 -7.48008 19
732 1 0.365237 15.1014 -8.3787 15
733 1 6.36022 -2.24538 -7.88103 17
734 1 -5.96901 12.8574 2.08595 16
735 1 4.54156 -10.4982 -9.63937 19
736 1 8.06472 -13.8984 -2.68265 17
737 1 3.88042 -7.69978 7.30407 17
738 1 13.4008 2.13103 -8.44865 19
739 1 3.03789 -12.454 -6.1266 22
740 1 -12.1516 -2.14647 8.10152 17
741 1 -0.755127 0.131311 -8.57522 18
742 1 -3.89384 -17.8644 -1.00343 14
743 1 -5.13142 -13.5424 -3.95265 19
744 1 -11.2088 1.01078 8.68577 22
745 1 -7.29303 -18.2175 -1.0793 10
746 1 15.8937 5.07118 -9.06298 10
747 1 -6.21234 15.7704 1.63878 10
748 1 -3.22646 3.3447 5.86022 19
749 1 -15.1648 8.90056 1.80055 13
750 1 10.7995 -1.3714 3.28393 23
751 1 -13.199 -2.32037 -10.8232 17
752 1 0.0206113 8.03048 -4.74706 14
753 1 10.6007 2.69103 -6.85938 19
754 1 9.73303 11.8944 12.834 12
755 1 7.86966 7.89394 -5.69355 18
756 1 -15.5835 0.0901979 -9.12039 10
757 1 -13.3976 -4.33585 -7.65417 12
758 1 0.583164 7.04608 17.4001 12
759 1 3.74097 5.12727 -11.8858 18
760 1 11.5648 13.4024 6.20105 14
761 1 -0.532396 -1.01526 15.2704 17
762 1 -2.8406 -18.0621 -4.7244 11
763 1 -8.57952 -17.2181 6.94886 8
764 1 -3.77404 -1.95226 8.70455 19
765 1 12.3803 6.88532 8.15596 15
766 1 -1.06845 -7.08754 -11.4591 21
767 1 -10.0911 7.36645 -2.54794 18
768 1 5.39416 8.64257 4.83212 20
769 1 -7.32683 -5.68217 7.93344 16
770 1 8.22651 6.99755 -12.4606 12
771 1 -1.17151 -16.6319 -7.38716 15
772 1 1.52935 -18.0742 0.0844528 17
773 1 3.85428 -15.7778 -0.703287 21
774 1 5.63871 6.57328 -8.03285 21
775 1 8.85304 17.5785 -1.42815 10
776 1 -2.89075 0.358965 -15.5457 20
777 1 2.39217 -1.0933 12.7042 19
778 1 -0.0701136 7.05024 -17.1164 13
779 1 -13.7273 -4.23518 -14.125 8
780 1 -9.01545 -4.25176 -3.65578 18
781 1 3.68025 16.4649 -7.45259 10
782 1 8.8726 -0.498426 0.424341 19
783 1 -4.16084 -2.13634 -15.9684 19
784 1 -8.96158 -10.3511 -1.98858 15
785 1 11.6258 5.58645 -8.23588 20
786 1 13.4185 -6.66221 1.33098 11
787 1 -1.84279 10.5859 16.0249 10
788 1 8.27075 -11.2532 -1.44381 21
789 1 14.1249 -4.30354 0.248547 14
790 1 10.8343 -3.7781 8.16921 17
791 1 -0.829188 11.1416 2.95901 21
792 1 -12.9397 2.38371 11.2802 12
793 1 -7.77923 8.05064 13.8763 14
794 1 -5.61812 -15.9774 7.02216 14
795 1 11.9276 1.52091 5.81918 20
796 1 5.3871 9.84432 10.2194 17
797 1 -15.0119 0.276888 0.263573 18
798 1 11.4104 -5.99285 -0.973262 16
799 1 -13.6622 11.826 -8.40423 9
800 1 1.55777 9.13158 2.51761 18
801 1 3.3446 -17.631 2.42149 14
802 1 4.94377 1.45952 15.3679 20
803 1 2.11344 13.6113 2.91327 20
804 1 3.53231 -10.1154 2.14796 21
805 1 -6.97297 -4.20983 -1.03327 20
806 1 0.683752 2.35543 15.6817 18
807 1 -14.4423 -4.65952 -4.1679 14
808 1 1.29614 10.4743 16.8366 11
809 1 4.75357 10.4508 -0.191882 19
810 1 -11.3561 -12.0805 3.62492 20
811 1 -5.92305 -17.1479 4.34661 11
812 1 5.07037 -3.58566 8.60197 17
813 1 9.47605 -6.28932 5.19542 15
814 1 4.931 7.78203 8.0529 20
815 1 -0.22741 7.6814 -1.67149 16
816 1 -0.601617 -10.2767 -10.8625 18
817 1 -4.49251 2.5324 -11.1686 18
818 1 -3.29221 0.858984 13.5547 19
819 1 -0.804699 13.117 -0.820913 18
820 1 13.1796 3.14151 3.16982 19
821 1 2.9199 8.69245 -7.09042 18
822 1 -3.31546 8.97425 12.6111 18
823 1 8.02116 9.30236 11.92 20
824 1 9.02386 -3.12381 -9.73117 21
825 1 -7.13458 -11.9159 4.48334 19
826 1 -8.07377 -1.9406 -5.51599 20
827 1 15.8947 -0.457644 6.8696 10
828 1 2.75252 -2.42179 -11.3561 23
829 1 3.01944 6.99629 13.8688 16
830 1 7.3851 -13.0404 -7.8143 17
831 1 4.37015 4.26941 -17.7129 9
832 1 -3.70456 -4.69514 -2.96791 21
833 1 9.83197 4.85335 -11.0855 15
834 1 14.6741 -1.17409 0.310412 10
835 1 -0.923288 -9.22257 10.8978 12
836 1 -4.09187 -11.5739 -14.5874 11
837 1 7.45208 14.1213 -0.53297 18
838 1 -0.297623 -6.73206 3.73239 16
839 1 -14.1763 7.30047 4.63664 15
840 1 14.9254 3.44658 -3.13601 11
841 1 16.1449 3.90788 2.41185 12
842 1 5.25626 -6.53611 -13.7365 16
843 1 -5.68625 9.97402 3.35948 15
844 1 14.6863 7.98098 6.31194 14
845 1 13.2765 11.0972 -7.24709 13
846 1 4.14778 2.57874 -11.8733 18
847 1 10.1 -3.66765 0.146764 15
848 1 -11.7839 2.29868 -3.65371 19
849 1 8.09134 4.6052 2.08037 21
850 1 -11.7438 -8.67591 -1.28262e-04 20
851 1 -12.5999 8.61369 -8.60369 19
852 1 6.8965 6.39395 10.6727 22
853 1 -10.1627 0.0834775 -7.54102 22
854 1 -13.6242 6.11633 7.6458 16
855 1 -3.99395 2.43946 -7.91798 17
856 1 8.9688 -8.32336 -9.24966 22
857 1 -12.8102 -8.90865 -4.92071 14
858 1 11.1724 -8.42511 -6.72997 14
859 1 -15.1197 7.2261 -0.5035 14
860 1 -8.03549 -4.80364 -7.083 19
861 1 9.95052 6.30872 6.16876 20
862 1 -6.5278 -7.38215 4.03001 21
863 1 10.311 4.13502 15.0402 15
864 1 12.926 -0.825379 7.99618 16
865 1 6.35238 -3.67661 5.38366 21
866 1 -12.7274 7.19938 1.79367 21
867 1 -0.141948 8.03709 8.16498 20
868 1 2.41516 9.35326 -10.1831 21
869 1 -0.902925 -5.34238 -17.9771 13
870 1 -6.184 14.2426 4.85984 10
871 1 -13.4935 -11.7727 6.31887 14