ITEM: TIMESTEP
31000
ITEM: NUMBER OF ATOMS
2000
ITEM: BOX BOUNDS pp pp pp
-30.0 30.0
-30.0 30.0
-30.0 30.0
ITEM: ATOMS id type x y z Coordination
1 1 -14.1973 5.72034 -17.5767 12
2 1 -10.1489 -11.7621 -10.8277 21
3 1 3.65265 6.81772 4.0936 20
4 1 5.63831 -12.2686 0.722107 14
5 1 -13.4145 10.2431 -14.1986 14
6 1 3.27068 -12.7054 -14.2158 21
7 1 -12.3528 3.92812 -10.7496 17
8 1 -0.31824 -8.71542 4.56168 19
9 1 -12.212 -1.5176 -16.5406 18
10 1 -16.8066 -4.0457 -1.6622 19
11 1 10.9132 0.879973 -15.4852 13
12 1 -10.1567 0.508613 -5.2921 20
13 1 -8.20741 -13.5592 -5.50382 21
14 1 -18.3725 -10.1271 -3.11696 13
15 1 -5.27333 0.133643 10.8965 12
16 1 3.49426 -5.92381 2.04768 18
17 1 -6.23626 -1.46429 2.5315 21
18 1 7.32056 -5.22606 -1.99374 18
19 1 -0.321048 6.84188 -11.3304 22
20 1 1.74205 -4.24761 10.9278 11
21 1 -16.9752 -4.39521 -18.6909 11
22 1 -16.233 -4.13776 5.47952 15
23 1 6.36061 7.85028 3.53443 18
24 1 2.65784 7.27651 -16.796 16
25 1 -0.689031 4.57019 -14.3871 22
26 1 9.79334 2.78895 7.77634 17
27 1 -10.8162 -5.18785 2.33317 17
28 1 -15.094 1.84616 -14.3285 15
29 1 -5.35075 -4.00117 -13.9659 23
30 1 -15.7319 11.3314 3.40489 10
31 1 5.34879 -14.4758 -2.08514 14
32 1 0.551572 -0.852002 2.20376 22
33 1 0.904144 -12.6822 -16.044 16
34 1 9.32323 -10.0109 -4.59228 22
35 1 -12.6246 -13.8975 -10.7799 16
36 1 -14.6319 -7.00107 5.89024 13
37 1 -0.243808 -4.89092 -11.6173 24
38 1 -2.42526 -7.44969 -16.9439 19
39 1 4.43798 -7.99971 -17.4011 18
40 1 -4.0675 4.32613 -21.5767 14
41 1 -4.59798 1.86088 8.15036 22
42 1 -11.7341 -9.63915 -3.22749 21
43 1 6.21644 -7.21765 2.44394 17
44 1 -16.26 0.809157 -4.98737 21
45 1 -19.1815 -0.22633 1.36328 12
46 1 -11.8769 3.44067 -5.67903 19
47 1 -1.87944 9.46752 -6.2046 19
48 1 -4.50973 -12.3788 -14.4125 15
49 1 -1.93145 1.92095 -14.0334 23
50 1 1.48494 -9.81455 -14.4484 22
51 1 -1.6668 -6.33666 5.27526 19
52 1 -18.2986 6.37473 -5.71634 15
53 1 6.90437 11.7989 -14.3557 9
54 1 -3.97704 11.2629 7.65866 15
55 1 -12.6498 7.14601 -13.2166 18
56 1 -7.24011 11.9816 -5.46222 18
57 1 7.50636 -12.4883 -3.62123 17
58 1 4.24847 -3.94017 -14.2101 21
59 1 -0.818295 -8.37517 -22.5825 10
60 1 -11.3534 9.44408 5.46289 20
61 1 -17.7148 -9.27077 -15.1298 9
62 1 3.32542 0.602233 -0.556215 20
63 1 -9.31717 9.18973 -10.0967 19
64 1 -10.0358 -10.9274 -1.68052 20
65 1 -9.38425 10.6587 7.71756 13
66 1 -18.7335 2.73532 -9.95625 16
67 1 -9.93493 7.52843 8.33767 16
68 1 -0.15255 4.76804 -8.71822 22
69 1 2.70843 6.35985 8.99298 15
70 1 -9.73769 -13.9749 -2.77057 20
71 1 -1.90744 8.14519 1.17221 22
72 1 3.36765 -10.664 -12.0351 22
73 1 1.15858 12.3922 3.66548 18
74 1 -16.7988 4.29927 -15.459 11
75 1 -17.7131 4.14653 -12.3919 12
76 1 1.24667 0.824703 4.11827 21
77 1 6.83263 -3.11891 -16.2008 14
78 1 12.4934 -9.08281 -4.30262 13
79 1 -19.7851 -1.32753 -1.7433 12
80 1 -11.7707 -2.75948 -5.2551 20
81 1 -3.88031 11.3335 2.04914 20
82 1 5.36831 -7.55191 5.02885 15
83 1 -13.3143 -10.5378 -5.92606 21
84 1 -13.7293 -1.14114 -3.16223 19
85 1 9.17449 1.85574 2.17765 16
86 1 6.61678 -0.984532 -9.85287 20
87 1 -4.80436 9.95222 4.6986 20
88 1 3.84729 -0.843742 2.38271 23
89 1 -11.5925 -4.46813 -2.75853 20
90 1 -9.98309 -7.12007 -8.35327 24
91 1 -19.0974 9.44386 -0.143686 12
92 1 -10.7422 9.97564 -7.63692 20
93 1 -2.45333 7.46228 -13.8966 21
94 1 3.33217 -1.38523 -9.17517 22
95 1 1.45063 -2.14999 -11.8691 21
96 1 5.0282 13.7838 -13.7122 8
97 1 5.38614 -3.56778 -3.54773 22
98 1 0.967406 -10.685 -0.827647 19
99 1 -9.19088 13.0482 -14.6634 11
100 1 -13.3233 14.1657 -3.11615 9
101 1 -11.7467 -7.142 5.20607 17
102 1 -5.48673 6.02855 -0.750633 20
103 1 -3.54876 -6.2028 8.13835 14
104 1 6.6247 -4.78654 -12.0539 22
105 1 -10.0735 4.55137 -2.50935 20
106 1 -16.4378 -12.5748 -3.04012 15
107 1 4.74749 -7.46697 -11.8738 24
108 1 7.44844 -2.41868 -19.3427 14
109 1 -12.6112 -2.02602 -22.2225 12
110 1 2.54823 -2.37763 -0.781706 22
111 1 -9.79786 12.1854 1.6985 16
112 1 -10.5469 0.547353 -11.569 18
113 1 -4.99919 3.56866 10.5785 19
114 1 -5.4668 9.1682 -10.6449 21
115 1 -13.9626 12.6657 -5.42412 11
116 1 -2.62023 6.53171 -1.20984 22
117 1 -5.67015 -10.7537 -0.785883 21
118 1 11.1287 -2.52659 2.58146 13
119 1 -3.91934 -6.94504 -14.282 19
120 1 1.53399 -7.98406 -11.7457 23
121 1 -10.9606 3.83903 0.620063 20
122 1 -0.0262229 -5.85895 7.89746 11
123 1 -13.2145 -7.13214 -8.36526 20
124 1 4.31766 -4.50585 -0.648293 20
125 1 -11.6058 -10.2092 -8.76267 21
126 1 11.6906 -7.27595 -7.21318 17
127 1 -6.70178 6.35015 -5.64937 22
128 1 8.38481 3.85665 -16.9038 14
129 1 0.92717 16.9994 -9.10669 9
130 1 -11.2251 -12.2225 5.3824 12
131 1 -8.2386 -11.8004 4.51542 18
132 1 -8.53994 3.24828 -5.43519 21
133 1 5.61499 -9.14015 -14.5148 19
134 1 1.34257 1.62219 -8.88484 21
135 1 8.7267 -7.64471 -6.85698 22
136 1 -7.94081 -15.5359 3.11988 13
137 1 -14.9977 -9.47935 -2.88636 22
138 1 12.2342 7.34015 5.33567 8
139 1 10.2519 -4.18684 -12.6412 17
140 1 -19.0909 -0.867841 -4.36066 15
141 1 8.86685 7.10066 -1.79872 20
142 1 9.01769 10.4417 -3.19559 17
143 1 -12.1603 -1.82977 9.40438 15
144 1 5.13055 3.872 -6.91813 18
145 1 -7.65106 9.45729 5.95172 21
146 1 -7.12312 6.32221 -10.4764 24
147 1 -5.19003 -6.47753 -18.7343 17
148 1 6.7456 -10.6149 -12.0943 17
149 1 -1.85963 12.2447 -17.9699 9
150 1 8.66546 -3.40546 0.682834 22
151 1 -7.90854 -4.98047 -22.4579 13
152 1 -9.50734 7.6794 -12.8715 18
153 1 8.84508 4.21669 -7.08574 22
154 1 -12.8908 8.8666 -10.5683 24
155 1 -12.3703 11.8383 -9.56674 15
156 1 7.87861 1.72737 -15.2935 19
157 1 10.113 -10.8778 -1.70694 10
158 1 -8.93535 1.75271 -13.7038 20
159 1 -4.25367 14.9099 3.57695 13
160 1 10.1791 4.89585 -10.0218 24
161 1 3.62341 10.7611 -3.90062 18
162 1 -5.71241 16.516 -8.191 11
163 1 11.9548 8.7202 -8.31576 12
164 1 -5.07534 9.24141 -6.09471 16
165 1 -4.3222 12.7822 -15.7978 15
166 1 -2.72261 9.21446 -18.3872 15
167 1 -20.025 -6.97336 -3.54466 12
168 1 -16.0485 8.63759 -9.03712 13
169 1 -8.79966 -4.30855 -13.7308 20
170 1 -1.12102 -6.77074 -20.1838 19
171 1 4.36357 16.3369 1.93392 10
172 1 0.963081 16.618 2.8504 9
173 1 -13.0973 -1.54324 -8.38085 22
174 1 -10.5097 13.5748 -4.68131 16
175 1 11.8004 -2.71263 -9.75731 21
176 1 -13.7008 0.547281 -17.8034 15
177 1 3.849 -1.90484 10.7356 15
178 1 0.647245 12.5903 -0.873973 22
179 1 -4.17894 7.26077 2.26446 20
180 1 -3.60394 -8.49561 -20.1172 17
181 1 -12.2024 10.5038 3.25313 17
182 1 -5.24547 7.20759 -8.23548 21
183 1 2.35098 -7.70725 6.92958 10
184 1 -19.0681 -8.41762 -6.0034 13
185 1 -3.37964 -11.6063 -18.9501 10
186 1 -5.57277 5.25575 -15.3595 23
187 1 -2.78272 -10.4978 -1.00656 21
188 1 1.73528 -13.9861 -6.19727 19
189 1 -7.90534 5.55708 -18.4192 21
190 1 -15.6552 0.447341 2.25226 17
191 1 1.30931 8.11205 -8.81664 20
192 1 7.95184 7.41622 -9.59203 23
193 1 -9.74743 0.50436 10.0424 12
194 1 -4.65243 -14.8525 2.70686 13
195 1 -11.7982 1.2435 -3.08285 18
196 1 0.497986 15.224 -0.764069 16
197 1 -1.24949 5.88502 3.90245 20
198 1 4.75091 5.10361 6.36927 24
199 1 -11.9332 9.14373 -5.06215 18
200 1 6.92771 -6.70601 -17.9331 14
201 1 -6.54068 10.8007 8.44947 16
202 1 -9.86792 -1.23173 -8.02828 23
203 1 12.0252 -4.16746 -4.86588 14
204 1 -11.6745 -1.7878 -0.703248 18
205 1 -18.0562 2.5388 1.50587 16
206 1 -13.39 -6.84477 -3.15238 20
207 1 -2.90073 1.02616 11.769 14
208 1 -18.252 2.62488 -4.15085 18
209 1 -6.2297 -15.6021 -5.30002 17
210 1 -13.2306 0.647939 -6.07418 22
211 1 3.32516 -7.00925 -8.98173 22
212 1 -7.79195 7.34353 -3.11257 19
213 1 -10.6185 1.12146 2.68763 18
214 1 4.38797 12.7001 3.21958 18
215 1 -13.7456 0.729152 -10.6915 16
216 1 -5.94039 7.45152 -13.2583 23
217 1 -19.3407 -7.41455 -9.49939 13
218 1 -12.6306 3.73123 3.80054 19
219 1 -1.7981 -12.8282 1.61676 16
220 1 2.40947 -13.8429 -0.92078 19
221 1 -16.0465 9.25476 -0.534098 18
222 1 11.1812 6.26331 -0.274414 19
223 1 -0.473685 0.907323 -11.5201 21
224 1 -12.8661 -5.11218 -21.4965 16
225 1 2.85078 0.248198 7.0948 19
226 1 0.117611 -16.8365 -6.13261 12
227 1 -5.42749 10.9974 -18.432 11
228 1 -1.67074 -14.0444 -11.1166 21
229 1 4.59565 -1.3359 -17.2247 20
230 1 -1.04632 3.98246 -22.4739 10
231 1 -14.8109 -5.37267 -14.1322 20
232 1 -6.17461 13.1389 -13.3244 19
233 1 -14.313 -9.84892 4.92882 12
234 1 2.9987 11.0139 -9.09707 21
235 1 -12.5747 0.599663 7.94054 19
236 1 -7.70369 12.132 -10.6471 19
237 1 1.22669 -2.09202 8.69457 19
238 1 -12.7352 -8.50007 -21.4745 12
239 1 -9.7945 8.06747 -17.8261 12
240 1 -1.57999 3.80144 -11.2268 24
241 1 -13.1624 -13.6635 3.26868 10
242 1 -14.2485 8.95869 1.82396 21
243 1 -9.74311 9.72703 0.205049 21
244 1 -3.22331 -12.3236 -9.08908 22
245 1 -11.5697 -12.6342 -5.71711 19
246 1 6.4066 -6.40023 -14.7834 20
247 1 0.545927 -6.70676 -3.44783 21
248 1 5.69183 2.23558 7.19942 18
249 1 6.96756 12.69 -11.2712 12
250 1 -1.93074 7.34199 -8.36902 22
251 1 -13.2327 7.09356 -3.61261 18
252 1 -12.4417 7.21343 -7.81613 23
253 1 -3.28189 -0.757996 7.05648 16
254 1 -0.633737 -15.5566 -3.35637 18
255 1 9.47406 1.0004 -6.5519 20
256 1 -3.04012 4.37084 1.74388 21
257 1 -15.9253 12.2591 -2.94028 13
258 1 -18.0236 -10.0479 -8.97068 14
259 1 2.37919 4.91524 -14.3645 19
260 1 -1.239 -9.42029 1.10697 18
261 1 5.66237 6.38177 -17.356 12
262 1 1.76603 -9.88868 -9.16245 19
263 1 -9.17848 -2.29272 -16.5732 24
264 1 -3.13575 -15.9411 -1.08713 11
265 1 11.3157 -1.59543 -13.1847 18
266 1 -16.7517 -3.63559 -5.3306 21
267 1 0.0280946 -12.7543 -8.43531 18
268 1 -13.0749 -3.07335 -18.7303 18
269 1 -0.371719 10.9964 -8.75907 21
270 1 -2.33155 -1.61208 -16.8968 24
271 1 -0.423633 -1.78332 11.6221 15
272 1 11.4934 1.75474 -3.85587 17
273 1 -6.37759 -6.67376 -3.24952 24
274 1 9.70026 -4.65762 -18.3314 11
275 1 -4.88354 -9.73573 -3.99 22
276 1 -11.7115 -6.59596 -19.2607 20
277 1 -16.9423 0.817432 -16.9879 8
278 1 -7.74792 -12.6627 0.658137 18
279 1 10.1732 -2.87749 5.91987 10
280 1 4.18198 -4.54709 4.77517 18
281 1 -10.558 -9.86316 -19.609 12
282 1 -2.20894 -6.27541 2.22595 21
283 1 -0.303959 4.55892 -18.3645 18
284 1 5.44149 8.31113 -4.2744 19
285 1 -9.81931 -7.287 -2.9362 23
286 1 -4.75144 12.2927 -1.62194 13
287 1 -10.4947 5.25674 6.00587 22
288 1 -14.8848 -11.2789 -16.4247 14
289 1 -7.72393 -5.17185 -16.4715 20
290 1 -5.75498 6.25149 -20.8462 11
291 1 -11.5454 -6.25204 -13.2617 18
292 1 -11.4568 -7.61525 -5.64674 23
293 1 4.64977 -5.64346 -22.6912 12
294 1 9.45782 -1.83839 -16.1585 16
295 1 10.3888 -4.90501 -1.72032 17
296 1 -3.00154 -6.89554 -8.85878 21
297 1 -15.596 -5.01521 1.68718 21
298 1 -6.5622 -12.8538 -8.86034 20
299 1 7.93822 5.63038 8.55564 18
300 1 -15.0415 -15.4274 -2.5574 9
301 1 -4.5255 -13.3435 -6.22289 21
302 1 -3.63675 10.6608 -8.49452 20
303 1 2.72476 -1.00194 -19.7612 21
304 1 -15.6577 -3.77652 -20.9387 10
305 1 1.99663 -7.85005 -6.06932 22
306 1 -17.8067 -6.17259 4.48965 11
307 1 -2.81298 4.79705 12.2336 11
308 1 3.91502 -10.7623 -6.97146 22
309 1 -9.23543 -7.5353 -14.0974 20
310 1 -12.153 0.592725 -14.574 16
311 1 12.198 -2.15691 -0.562611 17
312 1 -7.20805 0.474924 -16.1729 20
313 1 -6.6419 10.7779 -15.6684 17
314 1 -7.43017 -4.41179 2.49131 20
315 1 8.11627 -12.4503 -9.915 14
316 1 -6.96407 14.9674 -10.1927 14
317 1 -6.54668 11.075 0.47981 18
318 1 7.17188 1.08164 -1.74114 20
319 1 -14.901 1.36973 -1.54489 21
320 1 -3.25111 -9.32525 6.59495 13
321 1 -8.977 5.9895 0.414019 21
322 1 1.93209 -6.84341 -19.4031 16
323 1 12.409 9.38193 -11.2513 10
324 1 2.54153 -9.59468 -3.65303 20
325 1 -7.08651 -5.69109 8.6502 13
326 1 -20.4737 -4.80617 -0.783288 13
327 1 -3.08683 -17.1106 -11.4254 11
328 1 -12.0269 5.40878 9.63319 12
329 1 -14.8223 2.87458 9.0802 12
330 1 -18.2622 -2.94664 3.77998 13
331 1 -19.271 -6.4622 2.07597 11
332 1 8.163 -7.11701 -12.5144 23
333 1 -18.4761 -7.21201 -0.660731 15
334 1 2.41472 -4.5005 -17.0303 17
335 1 11.0454 -7.39609 -13.0462 13
336 1 -1.90649 17.178 -7.12861 13
337 1 -6.0937 -5.0454 -0.716129 22
338 1 -13.0631 12.9159 -12.5411 10
339 1 -1.16186 1.71335 2.02185 21
340 1 9.17623 9.064 4.30309 13
341 1 -14.926 -2.44669 -0.141764 21
342 1 7.44614 -10.7185 -6.99055 24
343 1 -7.03966 10.399 -2.53656 16
344 1 -16.2019 6.49967 2.01007 18
345 1 2.9008 -11.495 1.18703 19
346 1 10.4624 -6.5581 -4.49251 19
347 1 -6.90242 7.7403 2.03881 18
348 1 -8.34542 -2.18608 -10.9707 23
349 1 -12.2635 -5.05829 7.6222 15
350 1 -4.32604 15.577 -2.23843 13
351 1 2.96937 2.35899 9.87082 17
352 1 -10.9802 10.7278 -12.1358 21
353 1 -8.45083 -7.43548 -19.094 19
354 1 -7.10881 0.845234 -11.7068 19
355 1 4.82928 -15.2298 -13.7873 11
356 1 -17.0567 7.85165 4.97574 9
357 1 -19.013 4.21661 -1.64443 15
358 1 -6.84607 -4.83051 -11.3737 20
359 1 -8.73352 9.1833 -6.04422 20
360 1 5.59825 -3.63781 2.21277 20
361 1 -16.6731 -10.4603 -5.85169 19
362 1 2.50185 -7.77567 -0.862531 18
363 1 -9.61942 -9.73911 5.49416 16
364 1 -16.7969 9.33789 -5.94555 13
365 1 -5.78052 -5.71672 6.2866 16
366 1 -6.49425 -10.9588 -10.5735 24
367 1 -10.2266 -1.23973 -13.7594 21
368 1 2.67327 -3.20919 -23.022 14
369 1 -1.11306 10.8178 1.2677 18
370 1 -15.3844 -1.61316 -6.87481 18
371 1 1.25631 -15.2084 -14.7349 13
372 1 6.05754 3.09055 -18.1299 16
373 1 -13.631 -10.9758 -10.8973 21
374 1 -18.4925 -12.3742 -11.2361 9
375 1 -4.69153 -7.73039 -6.01888 22
376 1 8.15583 0.00844513 6.23728 19
377 1 8.94776 -1.78541 -1.65188 19
378 1 -14.6057 4.67242 -12.7986 17
379 1 -3.82612 17.5765 -5.1345 9
380 1 -15.9911 -1.53322 -10.2001 17
381 1 -12.5642 9.61783 -1.44909 18
382 1 -10.6727 10.9253 -3.10908 17
383 1 -7.37313 1.94216 2.98419 24
384 1 7.98627 7.63524 10.5945 7
385 1 4.75913 -1.9474 -11.8756 20
386 1 8.00442 -3.01159 7.63225 10
387 1 13.4471 -0.191819 -11.0041 15
388 1 -15.2337 -15.4259 -8.33416 12
389 1 0.152053 4.81716 1.32435 21
390 1 -3.49964 4.60623 -8.63454 21
391 1 -1.75043 -9.61351 -9.12741 20
392 1 -4.46749 9.24533 -0.34563 20
393 1 -19.2386 -0.564843 -10.1856 12
394 1 5.24454 -9.85168 -9.50718 22
395 1 5.80926 2.37738 0.954742 16
396 1 -13.4974 -5.31464 -16.3856 20
397 1 -14.8737 -10.7054 2.4466 15
398 1 -6.61799 -8.84625 8.35872 10
399 1 -2.59213 13.8964 -9.06836 15
400 1 -17.6032 -13.0932 -7.58668 12
401 1 5.1105 4.19082 9.3085 19
402 1 -10.1485 6.24438 -5.16613 21
403 1 -8.00455 10.2783 -13.2804 20
404 1 0.975167 8.30018 1.02501 18
405 1 -14.7033 -7.76507 -11.0846 18
406 1 -10.9923 -11.9143 -13.1509 15
407 1 -16.6644 -1.22543 -2.96353 21
408 1 -10.2801 10.8369 -15.7917 11
409 1 -0.864114 -7.45382 -1.19121 19
410 1 -7.99048 -15.7206 -8.06533 13
411 1 11.6533 10.8588 2.11902 10
412 1 1.95608 4.6344 -20.6349 13
413 1 -10.5262 -3.48674 -19.1869 18
414 1 -7.17334 10.2435 -7.98718 20
415 1 -11.5234 1.80535 -8.69515 20
416 1 -4.52597 -13.099 -0.536242 20
417 1 9.26957 4.17118 -1.09147 21
418 1 0.445687 7.48478 -19.4529 12
419 1 -9.19568 -1.40038 2.16012 20
420 1 -16.2001 6.71818 -3.67744 17
421 1 -13.1885 4.37713 -1.91663 15
422 1 -3.41666 -12.2464 -3.09565 17
423 1 -1.60418 -7.89417 -11.6 22
424 1 -1.01416 -9.48369 -18.6322 17
425 1 -3.38681 -4.08713 4.82085 22
426 1 -17.9457 4.52445 4.07204 12
427 1 -16.0756 -1.402 5.84645 15
428 1 -18.5035 6.88249 -1.60015 15
429 1 -7.88409 -9.47088 -3.4425 21
430 1 -12.7337 3.25262 -19.2618 11
431 1 6.17083 -12.1243 -14.5981 14
432 1 -4.09338 -14.1207 -16.5727 7
433 1 -8.56631 -6.2536 4.9553 19
434 1 0.265504 -6.91297 -9.06633 21
435 1 -9.31264 -2.25393 -21.4586 16
436 1 3.47872 -12.7237 -8.84559 20
437 1 0.983388 13.5006 -8.95788 20
438 1 -16.8417 11.9405 0.378926 11
439 1 -13.1112 0.565602 4.84626 20
440 1 -14.8602 -9.80804 -13.5521 15
441 1 -13.1874 -5.24979 0.0249792 19
442 1 8.63577 -7.27142 0.0109769 16
443 1 3.23944 0.829922 -6.30105 22
444 1 -7.74252 3.34644 -0.319725 22
445 1 -0.707007 -0.838576 -14.074 23
446 1 5.76784 -7.85535 -1.36113 18
447 1 13.1405 6.59576 -9.86992 12
448 1 -9.8529 -4.85856 10.0376 11
449 1 -3.61294 12.6567 -6.31408 19
450 1 4.14388 -6.53647 -3.83791 24
451 1 -10.2764 -14.9947 -10.7599 12
452 1 -7.33261 6.45175 7.47042 20
453 1 -1.94311 12.1445 3.93234 16
454 1 -12.1722 -9.34619 -14.8726 18
455 1 5.22152 14.7343 -4.43801 10
456 1 -1.79566 0.120205 9.46142 21
457 1 -10.8066 8.59347 2.25487 21
458 1 -9.91012 -5.1508 -10.9961 23
459 1 -16.4358 -0.270632 0.284505 18
460 1 -15.4648 -2.82373 -15.8808 20
461 1 -14.067 11.9002 0.00733593 16
462 1 -5.49615 -14.347 -11.3736 17
463 1 -9.1567 -9.44379 -16.7485 17
464 1 -11.5296 -15.5226 -2.75556 16
465 1 -9.61899 -1.38829 -3.21234 19
466 1 6.44719 5.94075 0.571297 18
467 1 -9.53271 -7.46022 7.84078 13
468 1 -10.4179 1.01995 -17.5041 18
469 1 7.13453 4.9513 -4.73449 19
470 1 -15.4905 -12.9351 -9.93099 17
471 1 4.48581 4.03538 -12.4496 21
472 1 -2.14059 14.9406 -4.46215 19
473 1 1.39755 3.62385 -11.7556 21
474 1 -6.72538 12.6269 5.53272 15
475 1 -19.265 -2.38541 -7.19428 14
476 1 -4.1278 12.3132 -11.078 18
477 1 -1.21107 13.6576 -14.7651 12
478 1 -7.9139 -9.76535 -8.516 23
479 1 0.419188 1.13417 11.8032 14
480 1 -0.220477 -16.6701 -11.7759 12
481 1 -7.46565 -4.39457 -18.9055 20
482 1 8.35072 -13.2841 -0.832081 9
483 1 -14.6561 6.75775 -6.21558 23
484 1 -0.308794 -1.07344 6.56357 19
485 1 8.38555 2.38649 -3.68644 20
486 1 1.85256 7.6221 -3.66597 21
487 1 -8.4951 3.3712 -16.0182 20
488 1 0.813858 -1.63879 -16.8079 24
489 1 -4.23864 -7.92738 -1.74435 19
490 1 -18.4211 -5.2887 -7.03012 14
491 1 3.1112 14.2721 0.294325 18
492 1 -5.88702 3.22567 -17.8827 19
493 1 7.0083 6.81786 -7.03651 21
494 1 -3.67003 15.6071 -13.7195 11
495 1 5.18247 -4.121 -9.13128 23
496 1 11.7427 -0.499047 -7.74744 16
497 1 -0.392893 1.24698 -16.8896 23
498 1 -1.1713 -9.73391 -3.58625 19
499 1 4.1213 -12.5923 3.84163 8
500 1 2.55004 -9.99792 5.61701 12
501 1 -14.6817 -1.52411 -12.9564 16
502 1 -7.96985 -12.2031 7.4715 9
503 1 -7.32021 -12.5609 -12.7578 16
504 1 3.76685 13.3479 -2.41523 18
505 1 -0.871146 -0.621994 -19.7625 19
506 1 2.61614 -1.94974 5.04032 21
507 1 -15.0607 2.23597 4.66409 17
508 1 -10.0027 -16.4951 -5.39182 15
509 1 -9.33036 -5.29163 -0.16939 19
510 1 11.9382 -4.36185 -15.0654 10
511 1 8.36307 -1.88141 -7.10609 21
512 1 -7.45905 4.59299 -13.3649 23
513 1 0.0179292 -10.6753 -12.0707 21
514 1 1.22659 1.82718 -14.3101 21
515 1 8.01799 -2.16093 -12.8321 20
516 1 -8.40853 -0.630479 4.98619 19
517 1 0.84705 15.3661 -6.29672 15
518 1 -10.4645 -3.98234 -24.0571 9
519 1 -2.09935 1.11275 -22.0089 16
520 1 -10.6253 -8.16484 0.26115 18
521 1 -6.43483 16.4652 0.740435 11
522 1 -14.9595 -7.96005 -16.1116 17
523 1 -18.2709 1.26824 -1.61981 18
524 1 -0.991017 -13.1579 -18.9388 9
525 1 -6.48732 -8.9357 3.89386 16
526 1 4.29415 9.59379 -11.2936 19
527 1 10.2859 3.38359 4.29559 19
528 1 12.709 4.98693 -4.6843 11
529 1 -13.2866 -12.8441 -7.75807 20
530 1 -2.95989 -10.4702 -6.05522 23
531 1 -7.54444 -0.816773 -19.4376 18
532 1 -9.85111 12.2986 4.69717 13
533 1 7.25981 -5.49085 -20.8015 11
534 1 0.277483 6.88848 -6.34113 22
535 1 8.56825 -3.68518 -4.4548 22
536 1 -1.06888 10.6384 -14.0283 16
537 1 5.76865 -9.7556 -3.91135 22
538 1 11.756 4.2136 -15.7884 11
539 1 -4.01248 4.35307 4.65884 19
540 1 -14.871 9.48465 5.18698 13
541 1 0.41867 8.58492 4.15068 18
542 1 4.37576 -2.85801 7.96105 13
543 1 0.836601 1.26709 -22.0824 16
544 1 -6.52426 -6.95293 -8.51919 23
545 1 -0.695427 -3.02823 4.83662 16
546 1 6.5573 10.6266 2.09448 17
547 1 6.17763 7.03453 -11.7408 23
548 1 -12.5345 8.56673 -16.9156 11
549 1 -3.70509 6.57701 -11.0047 21
550 1 8.60775 1.51499 10.4123 13
551 1 5.94915 0.0556119 -20.4255 14
552 1 6.68264 -6.812 -9.32555 23
553 1 5.31812 6.99298 9.49813 14
554 1 -19.1749 -3.97026 -4.05304 19
555 1 -10.8131 4.6616 -13.3688 20
556 1 -5.11303 -0.912373 5.34469 19
557 1 -13.2927 -2.42657 6.53626 18
558 1 -8.90411 6.15847 -15.3237 18
559 1 9.07682 -12.8944 -6.63602 13
560 1 3.0651 0.884758 -11.9146 21
561 1 -3.87327 16.3622 -10.3733 10
562 1 -14.7517 -6.97786 -19.2949 14
563 1 5.87841 -14.8136 -5.12165 12
564 1 -16.2573 -7.06955 -9.15104 20
565 1 -6.30179 14.0333 -16.0686 12
566 1 -11.8495 -2.19776 -11.0662 21
567 1 -6.24 6.16311 11.5862 11
568 1 -13.4175 -7.34124 2.5412 20
569 1 3.4351 6.88495 -6.26329 22
570 1 3.69601 -11.3746 -16.4716 17
571 1 5.29593 -10.0456 3.61041 15
572 1 7.57631 2.0555 -10.0387 20
573 1 -20.7295 5.28412 -3.87241 9
574 1 -1.84871 4.65048 7.05142 20
575 1 -0.311934 16.7249 -3.60972 13
576 1 8.41016 -3.74066 -10.1395 21
577 1 0.0628756 5.52974 9.80701 13
578 1 0.667157 2.18785 -19.3752 22
579 1 -5.77012 -14.7773 5.90293 9
580 1 -3.85065 -1.16608 -14.1646 23
581 1 0.183863 -1.91704 -21.853 16
582 1 -1.0013 14.5789 4.81989 11
583 1 4.12297 7.57686 -14.155 21
584 1 -7.25591 -1.39527 -13.7635 21
585 1 -7.90242 -7.85733 -11.1497 23
586 1 -17.1632 -5.69638 -15.7361 15
587 1 12.5918 3.57313 -1.60062 16
588 1 11.8046 3.52249 -7.4917 16
589 1 1.04667 -13.4923 -11.9338 20
590 1 6.30496 7.97519 6.70642 14
591 1 10.4631 -9.52825 -10.9142 14
592 1 3.4995 -0.434672 -22.5211 13
593 1 0.146025 10.3014 -3.75923 22
594 1 -12.5806 0.410706 0.494816 19
595 1 5.01545 5.46073 11.9043 9
596 1 8.54141 8.19534 -4.7343 19
597 1 13.5672 0.186655 0.95608 13
598 1 9.50952 1.02388 -12.3355 23
599 1 5.86514 -1.79806 5.58559 19
600 1 11.7007 4.86933 8.04359 11
601 1 -4.67655 -3.92189 1.77392 19
602 1 9.40268 10.1312 -9.92166 14
603 1 3.74484 -1.16617 -3.6825 21
604 1 1.61825 -1.85262 13.1566 10
605 1 14.7077 -1.71558 -8.55882 10
606 1 5.96894 0.670035 3.715 17
607 1 -13.0254 -3.27062 -13.5373 16
608 1 10.259 5.10175 -4.31532 21
609 1 6.46868 -5.11497 -6.32325 23
610 1 -1.06662 -7.6075 -6.06599 22
611 1 -17.3905 8.99573 2.22877 18
612 1 2.66518 7.83415 6.50626 19
613 1 11.2133 0.0269161 4.31886 16
614 1 -1.68339 9.69307 -1.9238 20
615 1 -3.10833 6.37712 9.64327 18
616 1 -0.910338 3.76589 -0.985937 21
617 1 -8.3376 -17.0532 -2.56302 13
618 1 -8.66047 6.95768 -7.75805 21
619 1 9.80625 6.38045 -15.7544 13
620 1 5.06307 -7.96371 -20.7277 11
621 1 -5.71811 15.3534 -5.21709 14
622 1 -3.2922 -15.2639 -8.20684 19
623 1 5.08874 -14.0092 -17.146 9
624 1 -14.7669 5.54374 5.18015 17
625 1 -8.75273 3.56242 -10.9738 21
626 1 -1.23251 -13.4125 -1.44019 20
627 1 -5.70368 -1.975 -16.6137 23
628 1 -19.1067 0.791647 -7.17335 17
629 1 7.31611 -7.40807 -4.05922 22
630 1 5.12344 3.2744 -1.97903 20
631 1 -3.44583 -12.8454 4.82546 13
632 1 -16.635 0.906058 -11.5201 17
633 1 -4.39942 -5.09379 -21.3873 13
634 1 2.31244 -3.3472 2.34872 22
635 1 -4.6056 1.52004 2.08635 20
636 1 2.64092 3.87858 -17.5803 19
637 1 10.3894 0.0509148 7.60315 14
638 1 7.87907 9.77974 -12.204 16
639 1 6.78774 12.8675 -2.11079 15
640 1 4.01347 -16.3209 -10.4382 10
641 1 -7.75862 -2.20409 9.71697 14
642 1 7.25201 -0.709845 1.00594 19
643 1 -7.51722 8.5576 10.0112 15
644 1 3.89199 10.5884 -15.6593 10
645 1 -14.0794 6.17373 -9.8486 19
646 1 6.71401 11.6506 -4.93253 18
647 1 -15.0752 -13.7008 -5.73917 19
648 1 9.759 -4.23579 -7.28133 19
649 1 2.97442 16.2702 -1.60174 12
650 1 -9.63376 3.99032 3.1266 20
651 1 -13.7256 -4.74611 -5.92893 22
652 1 -17.295 -9.25019 -11.8046 15
653 1 3.71164 0.718463 12.6636 12
654 1 0.366858 -11.2988 2.71564 15
655 1 -0.103074 1.68445 7.99582 16
656 1 -9.80811 13.4756 -11.5055 13
657 1 1.90245 3.82125 -1.01321 22
658 1 3.47226 -4.85756 -6.34207 24
659 1 0.417047 6.81076 -0.911467 22
660 1 2.43316 1.06557 -17.0204 20
661 1 -9.87772 2.514 5.88759 24
662 1 5.87325 -0.958371 -14.2646 17
663 1 -4.76236 -7.9504 -11.0516 20
664 1 8.46207 -8.90845 -15.0925 14
665 1 3.45477 6.5126 -1.39709 21
666 1 2.14833 9.75342 -1.28354 19
667 1 -17.6745 0.853791 8.08748 7
668 1 3.43673 9.75972 4.09045 19
669 1 1.24644 -5.73371 4.77134 20
670 1 -4.77614 8.22029 7.93506 20
671 1 -3.92437 -4.48968 -16.8134 22
672 1 -10.584 -0.922045 6.89492 17
673 1 3.98193 2.62552 4.91424 16
674 1 -11.3607 -12.9795 -0.0562529 17
675 1 10.5444 6.65562 -7.14725 18
676 1 1.30199 -15.487 -8.91395 18
677 1 -5.43544 3.78043 -11.9602 21
678 1 4.65974 7.76996 -9.09744 20
679 1 1.09431 13.8192 -3.40769 23
680 1 -0.778014 -4.85252 -22.7597 14
681 1 -3.08519 -0.9094 2.64226 23
682 1 -1.23154 16.3289 -12.2861 11
683 1 8.73977 10.2278 -6.97706 14
684 1 -14.6727 -4.25037 -8.34479 18
685 1 -5.88566 -2.48107 -20.764 14
686 1 -14.0282 10.2287 -7.61399 17
687 1 2.24722 -8.4559 -22.1661 13
688 1 0.619506 4.85147 -3.66558 24
689 1 7.42773 8.19655 -14.8494 14
690 1 6.66811 11.0552 -8.95548 15
691 1 -4.4251 3.41572 -0.722511 22
692 1 -10.3992 4.32114 -7.86656 23
693 1 3.36546 4.9037 -8.79972 23
694 1 9.41036 4.48533 10.859 10
695 1 6.79717 -0.656627 11.9444 9
696 1 -8.35545 -9.69184 2.22269 18
697 1 -2.59942 1.89947 -19.1398 21
698 1 2.78955 11.7271 6.09388 13
699 1 2.46275 -12.7962 -19.0602 10
700 1 2.19075 2.04629 1.64499 23
701 1 1.8609 9.89959 -6.10209 21
702 1 6.69399 8.96452 -0.787752 18
703 1 13.6939 -5.07661 -7.99613 12
704 1 -2.2563 3.47025 9.99846 19
705 1 -19.4068 -3.65227 1.34879 12
706 1 -5.12507 -17.4909 -3.42701 8
707 1 -2.15588 -3.99597 -14.2953 25
708 1 -7.95411 15.0002 -6.5366 15
709 1 -5.59066 6.83718 5.13629 20
710 1 1.00616 -3.65192 -14.5899 21
711 1 -2.56715 8.56958 5.16391 18
712 1 -14.4202 -3.90973 -2.95348 21
713 1 -6.97061 3.76092 5.95539 18
714 1 -8.14664 2.06633 -19.355 18
715 1 -12.8212 3.91293 -15.7336 17
716 1 0.992082 -12.5683 -3.3571 21
717 1 3.01914 6.81622 -11.4608 22
718 1 0.661592 -4.75274 -0.760755 22
719 1 -4.63318 7.35893 -3.32809 20
720 1 -16.6797 3.94051 6.76267 10
721 1 4.46152 2.07857 -15.3009 21
722 1 1.6571 -14.272 1.96502 12
723 1 -0.441624 12.5425 -6.25289 21
724 1 -7.73848 2.98172 8.95747 17
725 1 -13.8211 -9.82539 -18.6693 14
726 1 -7.0642 -8.34243 -15.867 17
727 1 -8.97789 -10.0294 -12.9192 21
728 1 -5.95156 13.2054 -8.05911 24
729 1 2.50446 -9.58831 -19.416 16
730 1 -6.91822 13.7505 2.34858 16
731 1 -0.11926 -11.1375 -21.2254 12
732 1 3.3253 -16.7261 -6.58795 11
733 1 -1.13414 -3.4101 2.03899 19
734 1 12.8152 1.51889 -13.4718 11
735 1 0.308884 -10.6676 -6.17834 22
736 1 -12.5896 -2.6039 1.89576 17
737 1 2.57033 -1.07896 -14.8291 21
738 1 -13.6335 -16.3244 -5.18306 11
739 1 -15.4999 -13.0113 -13.0326 11
740 1 -9.77053 0.737606 -0.485836 21
741 1 -13.2109 -12.475 -3.15766 22
742 1 12.2219 6.02836 -12.6673 13
743 1 -8.73178 13.5459 -2.93987 16
744 1 -6.24482 4.82134 1.98671 22
745 1 -14.6106 9.81279 -4.31523 21
746 1 9.14958 -5.33256 2.36791 14
747 1 -18.4294 -2.48406 -16.2768 12
748 1 -2.08528 9.67882 -11.1739 21
749 1 4.59766 1.98938 -9.46178 18
750 1 -0.535901 7.451 7.25627 19
751 1 10.3416 -1.04609 -4.71692 19
752 1 -14.2969 6.87707 -15.0215 17
753 1 -17.2926 -6.2884 -12.2814 15
754 1 -7.60861 -0.177665 7.57343 20
755 1 -0.782101 6.92573 -16.7044 17
756 1 6.34164 13.2031 1.06948 14
757 1 -6.868 -2.89949 5.63463 20
758 1 -12.353 -15.3331 -7.54345 14
759 1 -9.82797 -13.1541 2.43612 17
760 1 -4.8746 -6.60634 3.86913 21
761 1 14.0912 8.74872 2.0584 6
762 1 -0.302948 -6.81884 -14.3822 23
763 1 -10.5259 6.21222 -10.0327 21
764 1 4.35712 11.1054 -0.335766 20
765 1 -7.56552 -8.01837 -0.343063 20
766 1 6.35625 4.8976 -14.841 21
767 1 -1.29539 -12.276 -13.9695 21
768 1 -4.96319 -17.4424 -7.32529 12
769 1 -1.96504 -13.4838 -5.25953 19
770 1 8.0749 4.25919 -12.4421 20
771 1 3.08029 12.9262 -5.94712 22
772 1 -3.93519 -0.78734 -19.2333 18
773 1 -4.65539 -3.35296 7.59108 17
774 1 -4.21676 6.13235 -18.381 19
775 1 -17.3393 -1.17596 -19.1123 8
776 1 -11.345 -4.26869 -8.31537 22
777 1 -0.949948 12.9763 -12.154 17
778 1 5.4184 -2.07102 -6.39757 21
779 1 -10.3866 -6.28161 -21.6381 13
780 1 -8.22277 -8.09815 -5.88311 22
781 1 6.75751 4.79511 -9.60934 21
782 1 13.0286 -8.10447 -10.0038 10
783 1 -12.8662 7.5681 6.9687 16
784 1 7.62203 -10.3184 -1.18124 18
785 1 10.4784 -5.99898 -9.54655 22
786 1 10.5728 -0.651409 0.935974 22
787 1 -7.47197 10.6178 3.04167 21
788 1 -15.3467 -0.583203 8.94954 11
789 1 -12.4612 6.94056 0.0807361 19
790 1 -9.76147 -15.9208 0.170272 14
791 1 7.10054 -0.726758 -4.27201 20
792 1 1.95642 4.22073 4.09136 19
793 1 -16.3879 4.27992 -0.864716 18
794 1 3.09895 -6.97799 -14.718 25
795 1 -14.8476 10.3654 -11.6142 13
796 1 -1.28172 7.6007 -3.4271 23
797 1 -2.94036 -16.5643 -5.09035 14
798 1 5.62138 0.103574 9.20025 16
799 1 -4.89394 14.2516 0.63613 16
800 1 0.338932 -16.4579 -0.565767 11
801 1 -13.1027 -5.60215 -11.1515 18
802 1 -1.06167 -3.23167 8.87843 18
803 1 -19.3257 -4.01097 -9.89214 11
804 1 1.20979 9.50301 8.59792 10
805 1 -2.37098 11.4053 -3.92747 16
806 1 -16.272 -10.1835 -0.319521 13
807 1 -9.79445 -10.2861 -5.54288 24
808 1 8.47325 -8.31751 4.39991 8
809 1 10.2222 -8.22228 -2.36635 15
810 1 3.72638 4.87225 1.11497 21
811 1 -6.85804 4.24406 -8.29998 19
812 1 -3.26162 -10.8123 -11.9931 19
813 1 -1.03732 -4.86282 -16.9862 20
814 1 -9.73731 -3.49809 4.20626 18
815 1 -1.9774 13.5224 -1.7192 20
816 1 13.4108 0.339835 -2.04291 12
817 1 0.46332 9.97065 -16.7309 13
818 1 -11.0389 3.21653 8.69721 16
819 1 5.9865 4.74828 3.29418 18
820 1 -2.15162 -3.41047 -19.862 19
821 1 -9.45734 -12.563 -8.14017 21
822 1 -8.23086 -4.10447 -8.34289 24
823 1 11.5029 2.88011 1.01668 18
824 1 -3.94548 0.926468 -16.196 21
825 1 -0.581587 2.88012 4.81735 15
826 1 10.6232 -9.93084 -7.72515 18
827 1 3.80954 1.94674 -20.2459 16
828 1 -4.80535 -9.63753 -8.06317 20
829 1 10.4162 3.51672 -13.6516 21
830 1 13.6134 -1.06061 -5.17 11
831 1 -3.23962 -9.35841 3.49089 19
832 1 -7.06209 -11.808 -15.8838 13
833 1 4.222 14.3607 -10.0069 12
834 1 0.673749 -6.87734 1.79844 19
835 1 -18.1429 9.54151 -3.4869 13
836 1 11.2572 1.51761 -9.23109 17
837 1 8.90464 5.41731 1.6716 19
838 1 1.19279 -8.99857 -16.9379 20
839 1 -11.4584 12.8122 -1.19966 16
840 1 11.9336 9.74958 -0.471002 13
841 1 1.8274 15.2053 -11.5814 11
842 1 4.61047 -3.09655 -21.1027 15
843 1 5.45738 -8.11605 -6.70552 21
844 1 -15.3758 1.33811 -8.45498 21
845 1 4.50917 8.55486 0.963348 22
846 1 -14.7628 -7.70951 -5.7905 18
847 1 -11.0133 5.38488 -17.7873 17
848 1 1.6726 3.92446 7.04337 20
849 1 -19.5276 -0.954849 -13.4928 6
850 1 -19.2513 6.33719 1.67777 13
851 1 -5.47575 2.00104 -14.1322 23
852 1 9.77451 -6.56237 -15.7178 14
853 1 -10.986 -8.69484 -11.6563 24
854 1 11.7777 -12.402 -5.61415 7
855 1 -19.6962 4.21192 -7.38562 13
856 1 -17.6967 -3.50998 -12.9365 16
857 1 11.4251 7.90465 2.5812 16
858 1 -11.8966 -9.95633 2.92177 21
859 1 6.45853 2.6398 12.1986 11
860 1 13.5525 3.0606 3.15235 6
861 1 5.60986 -1.77152 -0.637367 23
862 1 -15.3446 4.34291 -4.44862 20
863 1 -1.94206 9.96741 8.76015 15
864 1 0.724684 7.69345 -13.9826 21