ITEM: TIMESTEP
25000
ITEM: NUMBER OF ATOMS
2000
ITEM: BOX BOUNDS pp pp pp
-30.0 30.0
-30.0 30.0
-30.0 30.0
ITEM: ATOMS id type x y z Coordination
1 1 -11.4864 2.14913 -7.92849 14
2 1 -4.57835 -9.55249 -2.66045 18
3 1 0.864337 13.8083 13.9068 16
4 1 4.23719 -9.86128 18.3114 14
5 1 -13.9069 9.74302 -1.67882 16
6 1 2.8548 -6.85526 -2.99981 21
7 1 -15.0296 1.63225 -2.5851 12
8 1 0.708604 -4.62641 20.279 15
9 1 -12.1308 4.10505 -9.89297 12
10 1 -13.364 -5.25563 14.1887 13
11 1 9.29353 4.39303 -6.06905 19
12 1 -0.307979 -18.0891 7.62397 7
13 1 -12.1017 -10.0243 6.58879 10
14 1 -5.72976 9.37203 20.0005 19
15 1 3.93893 -3.62389 12.2314 20
16 1 -4.58238 3.19842 21.0323 17
17 1 -5.60394 9.22323 -12.88 12
18 1 -3.50238 -6.54986 16.762 17
19 1 -6.83447 -4.05158 -5.1181 19
20 1 -15.3214 -2.0127 18.9436 12
21 1 11.492 9.3793 7.75385 14
22 1 -4.77275 7.63048 -8.14148 19
23 1 -1.63697 8.63487 -9.35452 20
24 1 10.5534 -3.93684 16.1019 15
25 1 -8.5748 1.42303 6.46796 19
26 1 -15.4377 6.90475 -2.31916 10
27 1 -5.4053 10.6732 -6.55713 16
28 1 -1.27069 5.54374 8.65474 18
29 1 4.94883 -11.7497 11.677 8
30 1 2.23051 -4.30957 17.3204 23
31 1 1.15478 -8.97104 -8.88827 17
32 1 7.72545 0.199536 12.0401 20
33 1 -11.7487 -8.05284 0.838729 15
34 1 -15.2215 -6.5004 8.52171 8
35 1 -4.12671 -3.47349 -7.89627 19
36 1 13.3784 -4.71269 -3.45452 16
37 1 -8.15894 4.47855 -13.5762 15
38 1 -1.33238 9.72453 22.4357 13
39 1 0.810148 -10.3706 19.0519 10
40 1 5.47477 -2.52213 17.118 19
41 1 -9.4795 0.43876 10.9381 19
42 1 -17.9979 -1.2314 13.4964 11
43 1 -7.9568 7.10386 -0.631002 21
44 1 -1.46101 14.1657 2.48486 18
45 1 3.88742 -10.4609 -4.56532 17
46 1 5.16193 6.57884 -6.48502 20
47 1 0.445201 -3.67593 -2.71888 21
48 1 3.94446 -0.673141 21.6041 15
49 1 -11.5987 11.5924 2.56604 17
50 1 -2.3509 7.98334 -2.87002 14
51 1 -5.28834 6.9382 16.8474 18
52 1 -9.5986 13.3273 1.23089 16
53 1 -9.72687 14.4558 8.92395 16
54 1 -0.784861 -7.89143 11.0113 22
55 1 14.7821 -7.57229 -2.49731 11
56 1 0.937478 -4.32689 -11.4028 16
57 1 -10.2483 17.3958 14.532 10
58 1 -6.05905 -1.83867 -0.339002 21
59 1 3.27269 2.66526 11.9004 16
60 1 -4.74044 7.58195 5.37525 19
61 1 -6.54116 -9.26869 9.81248 18
62 1 -0.915934 12.6424 16.2265 17
63 1 -9.48786 6.63936 -5.34436 16
64 1 -13.8197 11.8106 17.4352 12
65 1 2.30207 4.67017 -2.3421 20
66 1 -2.96751 -15.2571 12.8635 8
67 1 3.88048 7.1006 15.3634 18
68 1 5.05064 -11.4045 0.00575139 21
69 1 4.38164 10.6199 18.6424 13
70 1 -11.4447 5.40271 -6.55093 15
71 1 -10.9359 9.12169 -6.04544 19
72 1 9.68371 4.8731 17.6486 16
73 1 16.4955 -4.56673 -2.8123 13
74 1 6.03445 -5.31575 8.57701 18
75 1 -17.2072 1.46523 12.6546 16
76 1 0.0745649 16.9724 15.6923 11
77 1 -3.60012 -2.23577 23.5419 9
78 1 -1.22634 -11.0087 15.6038 12
79 1 -12.5929 1.45876 10.6935 17
80 1 13.7214 0.431832 17.8851 8
81 1 8.21743 0.809698 -2.33917 21
82 1 -6.65236 15.1565 10.2918 16
83 1 1.05819 3.54984 16.2114 18
84 1 -4.49183 -4.64235 8.11199 18
85 1 -10.9937 6.42471 -11.6485 14
86 1 -11.8733 9.41855 12.8114 18
87 1 -14.3075 7.69591 7.69644 20
88 1 0.150889 6.25812 -4.74552 18
89 1 11.3097 0.835783 -8.15794 10
90 1 5.78519 11.4036 -2.9519 22
91 1 13.7096 -8.41734 5.6194 10
92 1 -0.259974 -0.766785 20.0615 18
93 1 -3.2768 15.1166 4.51333 20
94 1 -6.40028 16.5216 15.8876 13
95 1 -8.94459 -3.50682 20.6927 13
96 1 -5.72316 15.1795 13.4019 23
97 1 -3.46747 -0.733352 16.8431 19
98 1 5.71039 -1.11055 1.73168 22
99 1 -9.36372 7.20363 11.0945 18
100 1 -6.84093 -5.68055 3.62654 20
101 1 10.9226 -4.89192 -0.74468 17
102 1 4.86442 6.88421 -10.0689 14
103 1 -8.33101 0.809775 -12.5614 12
104 1 -2.71995 11.4555 8.55177 20
105 1 -10.2753 6.31935 -1.71179 21
106 1 3.71042 6.56504 23.0624 10
107 1 -7.82334 12.855 -0.955139 20
108 1 -15.8472 8.65994 0.58596 10
109 1 3.04267 13.1382 3.47823 17
110 1 -2.93592 -10.1544 12.6814 19
111 1 16.6604 2.50551 16.3538 6
112 1 3.29985 -9.16525 -1.09938 20
113 1 4.48749 -4.92501 -3.21358 17
114 1 -1.77487 9.93398 14.6186 19
115 1 7.13936 -6.60232 17.8138 15
116 1 -13.6126 -3.87596 4.35238 15
117 1 6.94165 -4.04381 11.2185 18
118 1 -5.26418 -11.226 0.239554 16
119 1 11.2444 -2.51635 8.26752 18
120 1 -4.2676 14.0631 8.70232 18
121 1 -9.52108 6.05678 -8.91193 18
122 1 0.762037 11.4968 2.21585 21
123 1 -9.00912 -8.43361 16.5225 12
124 1 -8.16285 -11.0412 10.5432 12
125 1 4.44412 -4.65571 -7.29606 19
126 1 5.43105 8.23199 1.6097 17
127 1 3.42064 -0.307148 0.343632 24
128 1 1.838 -9.87253 16.0544 16
129 1 -0.908936 -9.91457 2.10887 17
130 1 7.5339 5.74875 10.835 21
131 1 11.7018 -7.78341 -0.991754 20
132 1 -18.2141 2.13451 15.0248 9
133 1 4.74157 16.5994 11.2931 13
134 1 9.7478 11.6163 5.73719 13
135 1 -12.0345 4.48189 21.0728 15
136 1 12.5131 7.44859 1.62675 14
137 1 -8.72274 14.9717 15.1039 17
138 1 -8.54066 16.0498 -0.920042 13
139 1 0.0950405 2.85885 -3.35959 15
140 1 11.9864 -8.51439 -4.4314 11
141 1 -8.36778 10.7433 -4.73501 21
142 1 6.76162 -3.87085 19.5228 18
143 1 -5.57695 -0.447738 -13.2681 12
144 1 -6.00878 11.8727 -3.19212 24
145 1 15.4534 0.808647 -1.06281 12
146 1 -15.2767 12.3872 -3.15531 7
147 1 -5.44528 17.7678 0.161476 12
148 1 7.36301 5.85545 -8.49633 16
149 1 7.53123 -8.74424 12.8716 18
150 1 -5.39135 -1.67196 -11.0149 17
151 1 -15.1241 12.7985 13.4047 11
152 1 8.08683 9.42674 -0.84943 15
153 1 7.39417 14.092 -2.26057 10
154 1 -6.00831 15.2054 6.48677 17
155 1 10.8786 -2.52167 4.91799 14
156 1 -3.11717 10.5101 -1.43962 21
157 1 -1.13445 14.7793 -3.25927 14
158 1 1.19846 6.15517 -10.4868 19
159 1 -14.5342 -3.78186 11.6251 15
160 1 -13.1842 6.30166 -0.31341 21
161 1 -3.52007 2.59997 -3.29803 18
162 1 4.305 -6.99281 -9.16874 15
163 1 -1.6333 14.5093 20.5596 11
164 1 -0.0549429 16.1183 18.553 10
165 1 -11.6895 -8.3606 4.16594 19
166 1 -13.6209 8.43359 10.0064 20
167 1 13.8672 -6.58691 0.588525 19
168 1 -11.4097 -0.595542 -3.80878 22
169 1 8.95385 -0.462837 20.566 12
170 1 3.54079 15.0527 14.1605 14
171 1 -5.21062 9.72373 14.4224 23
172 1 2.08895 -7.28922 -11.1517 13
173 1 -3.63688 16.0265 17.8201 13
174 1 -1.49567 12.3363 4.49525 19
175 1 2.51978 -6.66125 18.8833 16
176 1 -16.1626 -3.67455 15.8008 13
177 1 -6.6119 -7.32443 -5.28407 20
178 1 -12.8035 11.6106 -5.68425 12
179 1 -0.712781 -10.4178 5.01432 19
180 1 6.05429 -6.49671 2.18941 20
181 1 -5.01286 9.8135 -10.049 17
182 1 -15.3991 5.83179 9.83462 21
183 1 4.20587 6.3994 3.84811 21
184 1 3.77793 10.0087 4.15524 18
185 1 -15.7843 3.34273 15.3322 19
186 1 -4.25802 -7.338 19.8808 13
187 1 -1.85067 7.86427 2.6443 21
188 1 -0.0633307 18.3556 3.37941 12
189 1 5.12283 9.30223 12.4991 19
190 1 16.2223 4.31178 13.9722 10
191 1 -8.44175 12.5283 6.76866 19
192 1 15.1852 -1.52301 -3.22698 19
193 1 -6.52904 11.3855 17.77 18
194 1 -6.53053 8.63965 -5.46037 20
195 1 16.1189 -3.48798 5.90847 13
196 1 -6.59355 -5.94608 11.2926 18
197 1 -17.8095 4.49516 12.5244 13
198 1 -10.7745 -11.2609 2.31519 10
199 1 2.5751 12.0432 12.5116 18
200 1 -15.2966 1.63204 6.85744 11
201 1 -2.94293 -9.46815 6.59811 21
202 1 15.3275 -7.77793 2.95926 12
203 1 -2.85877 10.1042 5.48516 17
204 1 -8.6888 2.12742 12.2619 21
205 1 7.84044 9.12715 18.0746 13
206 1 -12.3495 6.06591 5.2838 23
207 1 -6.93952 7.85289 2.04458 16
208 1 -13.1078 -1.25524 -0.860671 20
209 1 -11.7579 6.12544 15.2259 18
210 1 -4.03048 -7.43291 12.4019 20
211 1 10.507 -7.89506 5.2722 13
212 1 -17.2776 10.9886 12.1332 6
213 1 15.3345 -1.4201 8.96243 15
214 1 5.53417 0.723468 -1.56716 19
215 1 -3.52687 -3.25903 -13.0989 12
216 1 1.75869 0.983722 21.6156 15
217 1 7.73075 -10.1159 9.89515 16
218 1 -7.78342 9.08093 -8.18311 21
219 1 -0.294748 -10.387 -10.967 11
220 1 6.96351 -4.5543 -9.09915 16
221 1 0.763965 11.4275 -12.7142 9
222 1 -3.27416 -4.58163 -4.31785 20
223 1 -5.40901 14.9234 1.48633 19
224 1 -11.3978 -5.27614 11.9032 16
225 1 6.78301 13.021 7.92267 16
226 1 -10.0369 2.97813 15.416 20
227 1 -8.24953 10.8037 2.22008 17
228 1 5.26499 4.68473 16.2048 17
229 1 -0.624526 -3.40875 -14.5959 11
230 1 -4.75923 7.7639 -0.131297 18
231 1 -9.35351 7.41887 -13.7869 7
232 1 -4.67908 -14.9579 10.3289 12
233 1 -15.4994 9.39106 18.9023 10
234 1 -4.66971 4.62105 15.0514 20
235 1 1.32627 -5.63758 -8.38685 21
236 1 -3.05733 -11.9672 7.16411 19
237 1 8.18751 -9.03958 3.68659 20
238 1 11.784 7.00278 17.1122 9
239 1 2.61032 12.9488 -7.31099 18
240 1 -2.51963 17.3223 1.71294 16
241 1 -18.6691 9.48453 6.52918 4
242 1 -10.8979 9.40887 -0.473748 20
243 1 2.11774 4.29883 21.1707 17
244 1 4.90581 -13.8752 4.78948 14
245 1 13.8514 -5.57691 4.78538 17
246 1 1.77745 5.74196 9.73111 15
247 1 -2.9354 7.17482 13.4342 20
248 1 -7.95376 -12.5697 0.933286 11
249 1 4.77902 3.90771 -10.349 14
250 1 2.37358 -1.09895 17.7375 18
251 1 12.266 8.43109 -1.81638 9
252 1 -1.78669 -9.07507 -1.5928 18
253 1 -7.01846 5.22559 -6.56243 18
254 1 5.53866 -11.8298 8.6001 13
255 1 11.6552 5.6464 -3.12605 16
256 1 -11.1741 -3.38543 6.13193 19
257 1 4.39484 -13.5079 -2.66724 11
258 1 -8.10805 -4.70689 -2.00983 22
259 1 1.98332 7.89462 -1.58618 18
260 1 -2.47034 10.175 -11.4654 18
261 1 9.47093 6.74641 20.1641 10
262 1 15.1045 4.25384 7.89424 14
263 1 -9.75638 -5.81635 8.69065 19
264 1 16.2002 -2.53638 -5.77632 8
265 1 1.28968 -3.34333 11.3288 21
266 1 -8.2996 -0.945611 1.67492 21
267 1 -11.0883 5.57079 1.13012 19
268 1 -5.408 -10.867 12.9414 17
269 1 4.53526 2.552 22.5203 10
270 1 -1.06355 -5.28976 16.0106 19
271 1 -1.34878 -3.1569 -9.40009 22
272 1 5.17319 -7.25925 10.8054 21
273 1 -0.428086 8.56881 -11.9275 17
274 1 4.20343 11.9293 6.3613 16
275 1 -8.26772 -1.03311 8.01222 17
276 1 -1.98118 14.956 10.1969 20
277 1 -7.27872 -0.796383 20.3413 21
278 1 -10.4663 -6.78785 -1.8643 17
279 1 -9.36617 -2.57233 -4.58856 18
280 1 -5.66373 12.189 -11.4107 9
281 1 -4.10513 -12.2017 -5.44099 9
282 1 2.70177 -10.595 7.33836 20
283 1 10.5662 -1.89481 -7.19277 18
284 1 16.8106 -5.9793 -0.255201 11
285 1 16.4793 -4.12526 10.2822 7
286 1 -5.52958 6.79265 12.5053 18
287 1 -2.30622 -13.0719 2.92296 19
288 1 2.07185 10.8861 21.1232 13
289 1 -0.981215 -16.2587 10.061 12
290 1 -5.0601 -11.7868 10.2724 19
291 1 -3.26761 13.7367 -1.82352 19
292 1 2.98639 4.70367 -12.1654 15
293 1 -1.60016 1.69106 -6.17089 19
294 1 -11.7331 -3.54922 19.4524 15
295 1 -3.47018 12.4766 18.9545 20
296 1 2.10886 -14.2296 7.31934 13
297 1 -5.45197 -5.83845 -2.45582 19
298 1 -7.20929 6.16018 -3.47126 19
299 1 15.8522 2.95473 5.52364 12
300 1 -12.0668 7.43391 -8.58698 12
301 1 -8.94398 8.71435 -3.22326 21
302 1 -4.45976 -5.12269 14.1565 22
303 1 9.62469 -4.63925 -3.43099 17
304 1 -11.3426 15.2152 3.03164 10
305 1 -1.23482 7.4816 6.31478 20
306 1 2.53959 8.13529 13.005 20
307 1 -15.1887 6.04904 13.9988 16
308 1 -2.98451 1.04795 23.5165 10
309 1 -11.2141 14.9684 6.49806 12
310 1 5.28726 0.806581 -7.42489 19
311 1 7.36829 14.3389 5.39781 11
312 1 8.75399 -6.28005 10.143 19
313 1 -1.51182 -3.49017 21.6573 15
314 1 -11.0157 0.523945 13.3967 18
315 1 2.49763 -12.5936 -0.614642 16
316 1 -12.2288 9.86466 20.1478 12
317 1 -12.3714 8.0478 17.7295 18
318 1 -14.382 2.53843 19.134 17
319 1 -15.5899 -2.74097 9.20867 12
320 1 12.2363 -2.2433 -2.13227 20
321 1 -8.98811 -7.68695 11.1456 18
322 1 8.04459 -0.768215 -5.78075 20
323 1 7.20148 -9.6267 0.666097 22
324 1 2.03774 11.5508 -1.04242 21
325 1 -13.3771 12.5873 -0.404506 12
326 1 11.0854 4.27363 14.7463 21
327 1 -11.2126 0.123649 7.75053 21
328 1 7.68878 -2.6405 -3.0582 18
329 1 -9.784 11.5481 13.9902 19
330 1 -0.278663 9.24162 9.10543 21
331 1 -2.28495 -9.33128 18.0368 15
332 1 6.28213 0.25471 15.6376 21
333 1 -3.39137 9.30343 11.5867 21
334 1 -10.706 -5.58792 3.57124 24
335 1 -7.33949 4.66425 17.6305 17
336 1 -8.65662 14.2301 11.9735 21
337 1 -0.835085 11.4223 19.9571 18
338 1 -8.10551 16.4788 2.26297 13
339 1 -2.67894 1.44306 -14.9862 13
340 1 -2.30324 5.79757 0.995237 17
341 1 -1.99717 -10.3286 -8.01647 16
342 1 -9.9123 8.30638 15.1806 18
343 1 -13.1838 3.37619 13.4485 19
344 1 -2.94184 -0.776435 -8.67956 20
345 1 -6.60162 6.4649 8.03543 20
346 1 1.14865 4.80359 12.5037 18
347 1 -12.0599 -6.84507 9.18553 13
348 1 5.45708 -6.00124 13.1809 17
349 1 -5.82168 0.936747 18.6136 18
350 1 -14.4325 5.43665 2.64382 19
351 1 -2.92571 1.43209 14.3022 19
352 1 0.658426 -8.98701 -3.73853 20
353 1 -9.15934 3.70423 -0.241193 21
354 1 8.68718 -9.85718 -7.22963 8
355 1 -0.698229 9.94975 17.1809 18
356 1 -14.4236 -1.45466 2.46092 10
357 1 11.2223 -3.80766 -5.59497 19
358 1 9.99908 5.45142 -0.0769161 16
359 1 0.347001 -12.9006 1.62869 20
360 1 -9.29001 1.79793 -2.68523 17
361 1 -7.96131 -9.58035 4.51624 21
362 1 2.69319 15.3552 17.2888 11
363 1 12.2554 -4.23763 2.35853 13
364 1 -6.45185 3.14683 -2.04032 15
365 1 -0.42469 11.7079 -2.94879 20
366 1 -15.2714 -0.390725 10.9169 15
367 1 -6.31514 8.95931 10.0342 17
368 1 -7.64755 11.7027 9.46216 19
369 1 -4.2345 5.95609 10.0038 21
370 1 7.58183 12.3224 10.7037 14
371 1 12.8921 -6.67516 -9.05465 7
372 1 7.917 -4.8102 16.0511 17
373 1 5.35267 1.3683 -10.4203 18
374 1 -7.10171 -10.5467 -6.0094 7
375 1 -0.0984443 -6.34837 -3.71673 22
376 1 -4.62962 16.6577 8.35644 16
377 1 -7.14534 0.995188 -0.836763 19
378 1 8.72327 -8.30789 -1.73632 18
379 1 8.94383 -0.863983 14.7035 16
380 1 -16.2298 4.7212 5.51978 15
381 1 -2.71287 -13.8078 0.0433194 13
382 1 -6.72919 -2.44694 22.9476 12
383 1 -5.47688 10.0852 7.25781 20
384 1 -8.60344 -6.6598 5.71707 19
385 1 -3.83047 9.82154 17.4907 20
386 1 -13.9741 4.35936 7.62816 20
387 1 -8.642 12.7134 -9.58819 8
388 1 5.30921 7.63221 9.04756 19
389 1 -11.3346 -2.50722 1.79314 18
390 1 -3.45475 -7.43373 -4.09277 20
391 1 -13.2483 1.27787 16.3738 21
392 1 -10.2118 4.12534 -3.47151 18
393 1 1.79716 -6.58825 11.9118 21
394 1 -9.82967 -2.61373 -1.02824 19
395 1 7.20543 11.5351 14.5128 14
396 1 5.82271 2.1021 -13.2648 10
397 1 -13.2172 7.96671 -4.88869 15
398 1 -0.983437 13.237 -0.294347 19
399 1 -13.6389 10.7072 8.26863 16
400 1 -2.11268 -10.5661 9.74635 17
401 1 12.9863 1.77423 11.3737 17
402 1 -0.967636 7.69965 -6.35003 18
403 1 -5.47339 0.212044 12.0708 19
404 1 -17.2598 6.51515 7.57449 15
405 1 -3.21595 8.38902 8.39213 21
406 1 -5.67444 -10.6127 7.66566 20
407 1 1.80631 3.92494 3.70308 19
408 1 6.69176 -7.34016 -7.18612 18
409 1 -10.7062 2.12527 2.48276 15
410 1 -8.20886 1.67207 17.2454 18
411 1 -10.8664 9.46759 9.78339 22
412 1 -6.79819 -7.41033 14.0737 20
413 1 -8.19347 -0.11182 -9.67156 19
414 1 7.67782 -5.67246 -4.99423 15
415 1 -2.31139 -8.76937 -13.5413 9
416 1 -2.82263 1.63792 18.8728 18
417 1 2.18846 -8.88494 4.8483 21
418 1 -11.2379 0.722914 -10.6597 12
419 1 4.26656 -7.31974 16.3101 18
420 1 4.86686 13.4861 -0.113975 19
421 1 -12.2822 11.8886 11.4282 17
422 1 -3.85113 -1.20343 19.4826 18
423 1 -13.4279 -1.55372 6.85026 13
424 1 -10.8765 -5.04252 17.271 19
425 1 9.94555 -7.02564 16.0944 12
426 1 10.1579 -3.45246 21.3321 10
427 1 8.39085 0.47864 -9.14443 17
428 1 6.58589 -2.13703 13.4007 21
429 1 13.671 4.62728 3.25814 14
430 1 -7.65083 4.40506 9.64706 19
431 1 0.984109 17.3924 0.721567 13
432 1 9.34853 -4.95076 7.61185 19
433 1 -2.97342 -12.2214 -2.1568 13
434 1 -13.5508 6.89888 20.494 12
435 1 -8.65878 9.81876 19.6696 16
436 1 -10.2318 -5.31521 0.836408 17
437 1 0.348616 15.3304 4.13749 18
438 1 2.26583 9.16365 7.1237 17
439 1 -10.2387 -3.60035 14.703 16
440 1 -10.7531 -11.8351 5.36612 13
441 1 -9.60897 1.47973 19.8002 16
442 1 -2.30349 -5.47666 -1.44242 18
443 1 -6.19743 11.7766 12.0231 16
444 1 -6.40392 -8.30286 2.30353 17
445 1 -4.35948 -4.66957 -10.6907 14
446 1 0.476494 -8.81515 7.51692 24
447 1 -0.681801 -1.66517 11.6645 19
448 1 12.4255 5.66735 11.8239 21
449 1 -8.54468 -5.59837 18.5605 14
450 1 -10.6483 13.7566 -2.792 11
451 1 8.62615 7.7798 2.0234 16
452 1 -5.40262 -14.0659 2.2422 12
453 1 3.40701 5.92506 0.490085 19
454 1 0.434935 18.569 9.80682 14
455 1 -3.65375 6.56603 -10.6013 19
456 1 -4.92831 6.71474 21.7365 15
457 1 -14.9747 3.23008 11.0838 19
458 1 -2.8038 17.8992 5.30007 14
459 1 8.80673 11.357 -3.11665 13
460 1 -3.09744 -6.909 -7.06944 21
461 1 3.65337 8.09438 20.1658 18
462 1 5.69285 -8.23342 -3.87823 21
463 1 -2.52079 -0.569125 -12.0724 21
464 1 8.26555 -7.93957 7.00334 18
465 1 -14.5484 10.9815 2.46464 10
466 1 -4.50955 10.0044 23.4747 10
467 1 5.86572 16.9837 4.80907 9
468 1 2.48256 9.04408 1.64326 23
469 1 -10.4802 10.7454 -8.59247 12
470 1 3.99924 3.85933 -4.74618 18
471 1 0.0955236 -5.79479 9.13372 22
472 1 -7.25412 -4.2253 6.42288 14
473 1 4.90393 13.1205 17.0457 12
474 1 -8.87741 8.96096 -10.7358 15
475 1 11.934 4.03349 9.00994 22
476 1 4.72707 14.0608 -5.31022 15
477 1 14.6323 -5.54872 7.6383 12
478 1 11.7062 -0.379898 0.984117 19
479 1 -1.1909 5.0598 -8.12617 17
480 1 2.51106 -8.53374 9.81858 19
481 1 0.975118 -10.382 12.6944 17
482 1 1.77373 -8.18635 20.914 11
483 1 -2.97903 2.17427 -10.3959 15
484 1 -9.22822 -9.15287 7.55255 21
485 1 -8.23052 -7.80552 -0.804419 20
486 1 4.99537 11.4172 10.0691 21
487 1 4.819 0.863506 -4.42599 22
488 1 -0.29257 5.99365 23.1499 9
489 1 -16.4852 -0.427035 16.2809 16
490 1 -0.0366093 -14.725 -1.24016 11
491 1 -12.3651 -4.1253 9.0389 18
492 1 11.8221 -8.40646 2.83339 17
493 1 14.0309 -3.83668 -0.295293 21
494 1 -2.44969 2.31572 1.74039 21
495 1 2.28636 -3.58093 -0.698566 20
496 1 -7.36483 5.85433 -10.357 23
497 1 2.05642 -4.37501 -5.34296 18
498 1 -7.80991 5.86902 22.8069 11
499 1 -4.48692 12.7903 6.19416 23
500 1 -5.57181 2.41745 -14.4525 11
501 1 1.41736 1.82272 -6.09234 19
502 1 -9.64988 -6.44419 14.346 18
503 1 -4.64449 12.6398 3.20872 21
504 1 -4.98027 -2.28317 -3.5026 18
505 1 -13.9519 0.995184 13.9297 22
506 1 2.71465 -3.77682 -14.2358 11
507 1 -6.33468 -3.72773 19.2725 20
508 1 4.22615 10.1118 -0.982181 17
509 1 11.4807 1.18082 13.9779 15
510 1 17.1917 -1.28567 3.47522 12
511 1 -7.70166 -13.8726 5.27635 11
512 1 0.0738921 -7.22082 -0.227477 20
513 1 2.97483 -0.391811 -10.2869 16
514 1 -11.6783 14.2979 13.4738 20
515 1 3.08424 3.04957 0.533956 20
516 1 8.57395 0.625585 0.926239 21
517 1 -4.5168 14.4647 -4.43474 11
518 1 3.82903 -5.14343 4.57801 19
519 1 14.0669 3.90311 -3.4227 10
520 1 -4.94621 4.34828 18.9404 18
521 1 -11.938 4.94428 10.0615 22
522 1 1.57299 15.2871 11.3022 24
523 1 5.19505 5.05707 20.1887 18
524 1 -7.45865 2.30402 -7.55675 15
525 1 -2.31532 -2.22424 -1.98746 23
526 1 -0.225859 -2.43123 17.2675 21
527 1 7.18031 8.35883 15.2564 17
528 1 2.45951 8.4004 -11.7652 14
529 1 -12.2298 1.8467 -1.73407 20
530 1 -2.61044 17.0385 -1.7751 11
531 1 8.64705 -5.48115 20.1835 12
532 1 9.63372 2.44802 -4.1915 17
533 1 6.63539 -4.7949 5.63548 17
534 1 8.0104 5.23314 15.1252 19
535 1 -15.5702 -4.5328 6.44541 11
536 1 -0.239986 11.9434 -9.47274 17
537 1 0.00687075 2.43496 13.6143 19
538 1 -11.6219 3.11998 6.64969 20
539 1 -8.13288 14.4249 -3.58942 15
540 1 4.6115 -9.04843 2.46966 20
541 1 5.46538 3.52425 -7.50368 14
542 1 -5.33136 16.9336 3.66142 15
543 1 -7.33703 -0.844992 -6.0633 19
544 1 5.2447 -15.9299 7.30249 7
545 1 -2.52751 -7.42531 1.26933 18
546 1 -0.256816 11.202 -6.39812 20
547 1 -5.56614 3.76714 1.16248 17
548 1 -8.82353 12.5563 17.329 15
549 1 -5.07451 -1.77162 14.0958 23
550 1 7.18346 2.51901 5.86955 17
551 1 3.52839 -3.47755 2.20099 22
552 1 -0.717597 -7.62282 20.4415 12
553 1 5.5833 -2.87874 -0.906616 19
554 1 -8.44851 9.33215 7.64315 17
555 1 6.94167 -2.70093 21.8686 13
556 1 3.14397 13.7579 -2.63288 16
557 1 9.44169 -1.59659 -1.04509 18
558 1 -0.523983 7.15989 11.5426 22
559 1 -0.992768 5.2807 -11.1448 17
560 1 -9.41448 -9.539 13.7492 11
561 1 -4.20488 5.35564 -3.10658 12
562 1 4.36731 -1.13136 -13.1782 12
563 1 -3.95337 12.6663 15.2259 21
564 1 6.57242 5.29463 -4.92364 21
565 1 -10.0486 0.872696 -5.79501 17
566 1 -6.31402 -6.10203 -7.68046 13
567 1 -10.4566 -1.64451 -8.26376 15
568 1 8.52112 0.462964 3.75173 19
569 1 15.7733 2.20704 2.46194 11
570 1 1.25869 -1.89072 1.75598 22
571 1 13.7433 5.49598 14.8521 12
572 1 5.88167 -6.83965 -0.941426 17
573 1 0.579464 5.91829 -13.9351 15
574 1 6.01223 13.6806 12.1629 15
575 1 -10.7728 6.93243 8.28563 18
576 1 10.0127 9.85888 15.6432 11
577 1 5.13159 3.92778 3.36732 22
578 1 9.51521 -5.50252 12.9263 14
579 1 10.3016 3.65206 -9.01561 10
580 1 6.89849 6.97219 21.248 11
581 1 13.7784 2.15243 15.3442 15
582 1 -4.0237 -3.6156 16.9758 22
583 1 9.39821 6.9748 -3.4655 15
584 1 -0.952513 2.85456 21.498 17
585 1 13.3581 -3.79502 -7.60406 13
586 1 9.89492 3.84283 11.627 22
587 1 -4.5485 3.10109 -6.44003 15
588 1 13.7881 7.14764 9.01656 17
589 1 8.82476 -0.217414 8.38592 15
590 1 -7.56729 9.09278 16.9998 23
591 1 1.91631 12.0989 17.8532 18
592 1 8.0522 3.61506 21.392 11
593 1 15.6671 1.78988 9.5564 15
594 1 -2.91328 19.291 10.2686 9
595 1 8.11311 2.63915 13.9819 22
596 1 -3.61877 -16.8659 7.4331 8
597 1 -6.83304 10.5074 4.74997 20
598 1 7.83291 12.1046 -5.43909 13
599 1 13.8806 -6.01069 -5.87784 10
600 1 -1.14575 17.164 12.6777 16
601 1 2.56882 -6.98095 -5.95795 25
602 1 13.7356 -0.904605 -6.63663 14
603 1 -16.295 7.30134 16.3374 11
604 1 -7.47433 13.4264 -6.36452 13
605 1 -5.66573 -14.3493 7.7361 14
606 1 -6.15405 2.45471 -11.2358 21
607 1 -13.6551 1.09251 4.87749 17
608 1 5.25447 -11.0647 15.0048 11
609 1 9.41099 3.25041 8.60052 20
610 1 5.42479 -9.01415 7.97873 20
611 1 -11.6873 4.00496 4.01978 18
612 1 -4.60906 4.77734 -15.3111 11
613 1 -9.97226 -0.61501 21.7725 14
614 1 1.82784 5.19562 -7.04435 15
615 1 8.51465 -1.08777 17.6466 21
616 1 5.38115 3.21062 -2.06164 23
617 1 12.9683 -2.97081 13.2871 10
618 1 4.42811 -9.293 -6.97892 14
619 1 -12.3331 -0.210249 19.0373 18
620 1 17.0837 -0.908 11.6658 9
621 1 -5.68917 13.5737 21.6073 8
622 1 1.8689 15.9009 -5.41815 10
623 1 -13.0563 8.08859 2.33838 21
624 1 5.87217 -1.69251 8.56731 16
625 1 -3.7712 -9.74627 2.99603 19
626 1 10.331 -8.52047 12.115 8
627 1 2.82788 17.3127 9.3288 14
628 1 -4.42415 16.6961 11.2362 17
629 1 -8.21585 -0.44876 13.7643 19
630 1 -10.4556 0.336553 -0.276114 20
631 1 6.8037 1.02027 21.3189 14
632 1 -5.7918 -10.2251 19.0228 7
633 1 5.27743 -0.419933 18.7866 17
634 1 -7.67106 13.7513 3.99331 20
635 1 13.1899 -1.51361 10.6262 18
636 1 2.70819 5.38342 7.09784 19
637 1 -0.384202 -0.0298079 -15.0779 10
638 1 -9.84257 2.94775 9.13851 18
639 1 6.92341 -0.962556 -12.0458 13
640 1 0.442936 -0.900392 -7.29761 21
641 1 8.34082 -12.2824 -0.172952 15
642 1 7.40651 3.10874 17.7805 18
643 1 8.37332 7.50734 7.44773 19
644 1 -11.2086 3.49157 18.0037 21
645 1 10.5206 2.03679 6.45841 18
646 1 1.37146 -2.37838 22.6691 11
647 1 -2.05591 6.85474 17.3089 17
648 1 -0.606988 -7.64846 -11.8131 15
649 1 -7.1118 6.80226 19.6764 20
650 1 5.49225 -7.436 19.8805 15
651 1 -5.60321 -11.566 4.50872 19
652 1 13.4563 8.88938 4.27635 7
653 1 2.13195 -7.12574 2.15727 19
654 1 -5.85369 9.04208 -2.92767 19
655 1 1.727 14.6514 0.285047 20
656 1 1.57125 10.495 14.9915 17
657 1 -0.463556 2.35501 -12.9726 20
658 1 5.39016 16.0373 7.70592 12
659 1 14.0703 5.67728 -1.03566 10
660 1 -8.68675 -12.1276 7.34 13
661 1 0.752699 -6.50062 -13.9444 11
662 1 -13.2845 12.3658 5.58013 12
663 1 10.1468 -4.66335 -9.06709 18
664 1 6.16912 9.42337 5.35961 19
665 1 12.7725 0.791137 -1.86896 18
666 1 0.478295 18.1042 6.28011 14
667 1 -8.29851 9.38514 12.3691 16
668 1 8.3777 4.13969 -2.25773 20
669 1 10.4597 1.91902 16.5035 17
670 1 10.9912 -1.43821 18.7588 16
671 1 -6.8394 -10.4577 15.7156 12
672 1 -5.72775 6.37032 -12.885 14
673 1 -0.873262 12.7167 10.4776 18
674 1 9.35089 -7.28446 -6.62864 16
675 1 -2.18263 3.85117 16.7462 20
676 1 3.46971 16.7066 -0.846436 10
677 1 10.054 11.4792 9.0509 11
678 1 16.5829 -2.42115 -0.191998 15
679 1 2.0417 14.0638 20.5483 10
680 1 -16.8335 1.27757 18.4102 10
681 1 -2.0845 -16.0592 1.74223 12
682 1 0.267629 -1.35513 -12.5333 22
683 1 -8.74022 15.8612 5.6647 13
684 1 -1.90896 4.70862 14.3324 21
685 1 10.4315 -10.4249 1.53077 16
686 1 1.66691 12.652 9.60249 17
687 1 -7.42943 -3.53161 13.6514 21
688 1 -2.17615 5.52979 20.3458 19
689 1 -9.03684 3.08612 -10.6495 20
690 1 -3.06469 11.8308 -8.47911 15
691 1 3.65631 -12.2409 2.80868 21
692 1 6.92591 8.76095 -7.50873 15
693 1 5.78923 -7.34529 4.75363 18
694 1 0.809214 12.194 6.84944 15
695 1 -16.2881 5.16388 19.5111 8
696 1 2.24668 1.67244 -12.0212 19
697 1 -1.24147 -8.22035 14.7303 19
698 1 0.853088 15.4116 7.94045 19
699 1 -9.57577 6.72708 17.4034 21
700 1 -4.47873 0.078206 -5.9496 17
701 1 -9.60507 -5.617 -5.00707 13
702 1 -7.67074 -11.1547 -2.03202 12
703 1 -5.74243 15.2232 -1.77035 19
704 1 2.84914 1.40101 -2.4407 20
705 1 -0.604285 10.3105 12.18 18
706 1 -2.69013 -8.88394 -10.3175 13
707 1 1.64197 -12.062 5.03527 18
708 1 -2.13027 -2.61555 14.6598 23
709 1 12.3374 2.98078 -6.3384 13
710 1 5.24464 -14.3844 0.990412 13
711 1 -12.4138 -1.74723 11.9242 22
712 1 1.05611 -12.1492 -3.66307 13
713 1 -5.87212 -5.71629 0.708539 19
714 1 -13.9168 5.02133 17.8297 18
715 1 -2.24895 -13.022 10.8905 18
716 1 18.5206 1.02677 6.11866 5
717 1 -8.04438 17.3674 12.6772 15
718 1 -10.3191 0.40093 16.3849 20
719 1 -17.058 7.63411 11.6074 13
720 1 7.40164 2.17335 10.2497 18
721 1 -11.8041 -3.82191 -3.08495 18
722 1 -2.19122 11.0852 1.44792 20
723 1 5.83698 5.97886 -1.71146 17
724 1 12.3769 7.70153 14.0828 13
725 1 10.7586 5.96425 3.30022 19
726 1 -4.01295 -4.07563 0.760209 20
727 1 -8.1941 -3.61737 1.53353 21
728 1 4.65421 10.4253 15.3112 19
729 1 6.25323 12.2023 -8.1497 11
730 1 7.03716 10.2466 7.9591 18
731 1 -4.8735 3.2126 12.4277 24
732 1 -0.336608 -12.2197 7.85524 19
733 1 -4.11329 -8.29623 8.78113 20
734 1 1.75758 -7.08742 15.8317 17
735 1 9.58967 6.73301 13.3403 17
736 1 6.00742 -1.7037 -9.07385 20
737 1 -4.91809 9.53478 2.00948 22
738 1 9.68531 -2.28599 11.4292 18
739 1 -12.6323 -2.11671 16.592 19
740 1 4.80289 10.4829 -5.48973 21
741 1 -1.79838 -10.4788 -4.87131 19
742 1 -0.761054 -13.7719 5.07201 16
743 1 4.94241 -11.1539 5.43995 22
744 1 6.75916 8.64187 -4.0968 19
745 1 -1.44501 14.4633 6.73184 20
746 1 -2.03959 4.56066 -15.4051 11
747 1 0.0603464 3.25422 19.0302 17
748 1 1.32909 3.30858 -15.0925 10
749 1 -13.3015 4.7994 -2.86723 15
750 1 -9.07905 -2.86272 3.82316 19
751 1 0.849914 16.4652 -2.76863 13
752 1 7.2035 -2.69585 3.09623 18
753 1 -6.70633 -2.84102 -8.42314 16
754 1 -4.29978 -1.96684 6.51037 14
755 1 9.92433 -2.41007 -10.463 10
756 1 10.2148 -2.38335 1.64731 19
757 1 -10.8315 10.5815 17.5031 17
758 1 4.47517 -4.49756 14.9277 19
759 1 11.2807 -4.36221 10.6127 15
760 1 11.6141 -5.11868 18.5855 9
761 1 -6.8645 12.4251 14.8078 21
762 1 -9.71628 2.74832 22.9103 11
763 1 -9.19232 5.48096 20.7228 14
764 1 -4.86555 -12.9467 15.3596 7
765 1 8.20183 -1.79121 5.84875 17
766 1 6.40595 6.63615 17.9935 20
767 1 -12.7724 6.60453 12.5761 19
768 1 3.95235 -3.857 9.22483 18
769 1 -11.6019 10.9156 -3.08392 20
770 1 9.50893 8.56357 5.25218 21
771 1 7.23792 -13.5287 6.15226 9
772 1 0.664111 7.86819 21.3126 17
773 1 -2.33759 15.225 14.9494 18
774 1 2.34017 -16.6258 9.54796 8
775 1 -7.05557 2.24278 3.14887 18
776 1 -2.64441 -4.81744 19.1154 19
777 1 -13.4189 -5.90852 2.17898 14
778 1 -3.29316 17.8179 14.1929 10
779 1 2.91962 16.3369 4.86246 15
780 1 -15.314 -1.71738 13.9119 16
781 1 0.421969 -14.2738 11.62 10
782 1 4.42435 6.25628 11.6647 18
783 1 13.1269 -2.44961 16.7832 8
784 1 7.48439 8.89758 10.8031 20
785 1 -5.10852 11.9168 0.523692 20
786 1 -0.861522 -4.55928 -6.82947 21
787 1 0.0998877 0.0973304 -3.87841 21
788 1 -0.416156 -0.608956 23.5271 10
789 1 1.72421 18.3198 12.7011 10
790 1 13.6579 -2.12233 6.56346 17
791 1 5.44661 11.1068 1.78458 19
792 1 -10.6124 7.5367 22.2857 12
793 1 2.05159 8.3097 16.7727 18
794 1 9.51689 -7.47041 -9.93402 10
795 1 -4.11693 -14.6338 4.80987 14
796 1 -3.96218 0.361982 -0.92065 22
797 1 9.15355 -9.83166 15.4221 7
798 1 3.37684 -1.8289 -3.13499 23
799 1 -2.90761 12.5692 22.3303 9
800 1 8.47405 -9.60401 -4.46259 15
801 1 3.21793 11.909 -10.002 11
802 1 -1.10355 -7.21433 4.2851 21
803 1 10.1782 6.67001 -7.22743 10
804 1 13.4561 0.793192 7.43614 24
805 1 3.85398 -3.80437 20.2279 16
806 1 -1.52306 -5.84673 -9.37362 18
807 1 7.75123 11.0699 3.79998 16
808 1 -1.83195 -6.87994 8.04546 20
809 1 -7.3418 7.3714 14.4808 18
810 1 10.8011 2.64543 2.53701 20
811 1 15.0646 4.86433 10.7975 16
812 1 8.49465 -3.77647 -6.98167 21
813 1 -11.5771 14.5867 16.3716 11
814 1 14.4822 7.92274 12.3425 11
815 1 6.06711 13.3237 3.3123 17
816 1 1.36519 3.28141 -9.29819 15
817 1 5.99877 1.93865 1.45898 23
818 1 -14.9116 7.45445 4.87203 16
819 1 10.4557 9.77769 2.588 12
820 1 -11.7009 -6.63073 5.93632 20
821 1 -10.2636 13.0104 -5.63465 15
822 1 3.99414 1.84559 16.9834 15
823 1 -5.86213 0.198558 -3.26944 18
824 1 -7.46087 4.18615 14.647 20
825 1 -5.07804 4.55183 -9.06869 18
826 1 10.8318 -10.4061 -1.59336 13
827 1 -13.814 -4.88647 -1.21081 8
828 1 15.3603 -4.08272 2.74872 18
829 1 -16.6185 8.89083 9.17312 12
830 1 -14.1632 -1.91284 -3.40299 10
831 1 11.6261 9.57136 11.2022 12
832 1 -4.30432 -9.16948 15.1428 17
833 1 10.1327 1.81017 19.4919 14
834 1 4.53568 0.14788 13.2446 19
835 1 4.41076 -1.1019 10.7457 21
836 1 -12.5246 9.54072 5.01459 17
837 1 -2.60631 8.46661 19.7643 19
838 1 3.57171 8.09418 -4.07545 18
839 1 -3.73838 -5.72231 -14.014 9
840 1 -2.05009 17.3553 8.40281 21
841 1 -12.1902 -7.52857 15.6003 11
842 1 3.88624 15.6346 2.17912 15
843 1 0.334218 6.43632 15.0797 19
844 1 13.2172 -9.76393 0.841052 11
845 1 11.8857 -6.24663 7.69991 16
846 1 -0.185831 14.0322 -7.12252 10
847 1 4.69104 9.545 -9.07104 15
848 1 -6.19452 1.28217 14.751 23
849 1 10.7937 7.12258 9.80689 20
850 1 2.8791 -1.33027 -6.14948 20
851 1 12.2108 6.93992 6.60446 19
852 1 -13.7564 1.30595 0.729443 16
853 1 -6.29449 -8.31655 22.262 5
854 1 2.41066 11.619 -4.21263 22
855 1 3.93512 -9.06384 13.1975 18
856 1 6.98793 -11.2282 -2.75512 13
857 1 -10.7381 16.455 11.1618 12
858 1 -15.3961 2.31028 2.82193 12
859 1 5.65785 -1.97243 -6.11853 17
860 1 1.47832 -10.5393 -6.53181 16
861 1 -10.8286 11.8847 7.55499 16
862 1 7.91666 12.3598 0.197777 16
863 1 -6.67553 -1.49375 16.7003 23
864 1 -0.105177 0.763557 -9.32075 22
865 1 -9.53284 -8.96263 -3.84038 10
866 1 -8.91285 -7.25605 1.67059 21
867 1 -5.12704 13.9653 17.1236 21
868 1 7.67146 -10.3971 6.43282 17
869 1 1.29231 9.21189 -8.89172 17
870 1 14.7192 -0.424849 1.58358 17
871 1 16.2696 -0.383795 6.50495 15
872 1 1.74004 -15.3321 1.88007 13
873 1 4.89721 -3.96175 -10.9213 12
874 1 10.6515 -0.616676 -4.37 17
875 1 -2.68642 7.21936 -13.4123 15
876 1 -1.51223 -4.59835 12.3609 21