ITEM: TIMESTEP
21000
ITEM: NUMBER OF ATOMS
2000
ITEM: BOX BOUNDS pp pp pp
-30.0 30.0
-30.0 30.0
-30.0 30.0
ITEM: ATOMS id type x y z Coordination
1 1 -10.3187 3.55461 -13.5567 15
2 1 0.36552 -3.24653 -12.2514 20
3 1 0.426785 5.9431 10.2465 21
4 1 5.13537 -9.88889 10.3933 6
5 1 -7.27214 11.9553 -4.72687 19
6 1 12.877 -6.08967 -10.6352 9
7 1 -11.1002 8.7907 -12.6712 16
8 1 1.73389 -4.91934 11.0492 16
9 1 -9.86411 7.86951 -16.4882 11
10 1 -15.0146 -4.20952 -3.30097 12
11 1 7.40403 2.49649 -12.8659 18
12 1 -4.0901 -13.1766 -3.06502 13
13 1 -16.9304 1.48283 -2.05517 12
14 1 8.22327 1.36977 14.4601 12
15 1 -1.99844 2.23949 7.56037 20
16 1 -2.72313 15.2795 -12.6337 18
17 1 11.0007 -3.64894 7.12699 19
18 1 -9.04575 2.47816 -11.063 21
19 1 -17.3826 0.194489 3.75327 8
20 1 14.2913 7.37935 8.36992 18
21 1 -0.241638 12.1879 -13.8808 22
22 1 5.48748 7.38218 -14.532 17
23 1 12.1556 1.68399 6.64082 19
24 1 -11.0262 12.1466 -12.1186 13
25 1 -12.2713 9.963 7.20974 11
26 1 11.322 -7.11631 7.27932 9
27 1 -1.43591 -14.5371 -9.26596 10
28 1 6.48659 -11.346 -3.53561 17
29 1 -6.38756 -8.78476 -8.53462 17
30 1 -9.04995 1.77985 3.9882 22
31 1 3.25786 -6.55389 -14.676 20
32 1 9.75726 -8.54882 -13.6323 13
33 1 0.434039 14.197 -18.9474 8
34 1 -3.03029 7.85981 13.0009 19
35 1 -0.314403 -9.5329 8.80748 15
36 1 10.7321 -4.6384 9.81099 14
37 1 -4.30169 4.2272 -2.63601 16
38 1 -16.9673 0.459053 0.870756 14
39 1 -11.1597 2.86616 -8.55543 16
40 1 -3.8706 15.617 -5.24548 17
41 1 0.432243 -12.1019 -9.37152 17
42 1 4.32392 4.64069 -13.621 21
43 1 -1.09761 -0.922407 -11.4506 21
44 1 -0.689917 -2.24033 9.39263 18
45 1 -7.88257 11.9519 -1.39481 18
46 1 -0.973156 12.3865 -17.0803 19
47 1 5.51952 22.3815 3.67212 8
48 1 -11.4458 13.4616 -6.03507 11
49 1 -1.82572 17.3096 -3.36719 18
50 1 -5.70524 -10.487 2.70866 19
51 1 5.55858 -9.99818 -6.51205 19
52 1 6.6034 -7.68997 -15.021 17
53 1 -3.82858 15.2526 9.17542 13
54 1 -16.6273 3.03982 -8.5514 11
55 1 -10.8813 10.4004 -3.99316 17
56 1 -11.0239 -7.9844 9.70396 6
57 1 0.654667 20.2716 8.36481 10
58 1 -8.20777 6.49041 -5.63006 18
59 1 -7.32037 7.02415 12.2586 14
60 1 -7.57324 -12.7131 3.2527 10
61 1 4.91463 6.7471 8.20393 16
62 1 7.46312 -8.90459 -1.69763 19
63 1 2.39577 15.365 12.7138 17
64 1 -13.1783 7.50899 -10.2983 15
65 1 -11.4522 8.80152 1.40625 17
66 1 6.38615 12.7203 13.9712 9
67 1 8.37816 -4.47261 -5.6672 24
68 1 12.4912 -11.534 0.839909 9
69 1 -14.0534 4.10415 -0.710516 15
70 1 6.31064 20.7462 6.12558 15
71 1 9.28842 1.07824 16.7874 5
72 1 -5.08866 -4.95216 3.98778 16
73 1 -5.83381 1.98587 -1.68877 16
74 1 6.4386 3.86181 6.70446 18
75 1 6.70722 15.3614 10.7215 15
76 1 4.85296 0.81784 7.4039 17
77 1 1.24395 -4.04028 -7.40733 18
78 1 -8.18334 10.0213 2.98753 20
79 1 -10.0602 16.6984 -5.57342 12
80 1 -4.60528 9.69606 -10.7687 19
81 1 9.21159 1.73477 -4.99143 19
82 1 10.2213 12.7162 -13.7844 14
83 1 5.95713 -2.64226 3.56593 17
84 1 2.74184 -8.41481 10.1236 12
85 1 -8.90657 14.4343 -11.7886 12
86 1 -10.6032 14.2609 -0.620619 14
87 1 -12.0949 -0.174167 13.349 10
88 1 -0.0135139 11.4574 6.10377 22
89 1 -8.01823 -3.62629 2.86312 16
90 1 11.9191 -5.52107 -14.007 7
91 1 -5.83001 10.1104 8.51278 18
92 1 -2.05752 -11.7937 -2.06874 20
93 1 7.63889 -3.70746 -11.4795 19
94 1 4.17802 -2.84076 -15.432 12
95 1 -10.3103 -3.06998 -11.8469 16
96 1 -0.609733 16.538 1.40389 19
97 1 -6.26689 11.969 -7.1658 17
98 1 2.731 11.8648 14.3065 15
99 1 -0.736084 18.0467 -6.7185 16
100 1 -13.9064 10.8395 -5.48668 12
101 1 0.650454 16.0594 -1.39537 23
102 1 1.89831 -11.4468 10.3632 8
103 1 13.3258 -4.56512 5.80384 15
104 1 -2.76687 -3.53109 -10.6698 18
105 1 8.28568 -5.28979 -8.89176 18
106 1 -1.07194 4.6528 12.8015 22
107 1 5.70089 -3.24726 8.60438 18
108 1 -10.6211 -3.86036 0.788035 20
109 1 -7.50784 -1.95083 -9.17563 21
110 1 12.0636 -8.36623 1.16327 14
111 1 -8.2729 12.8853 1.91381 15
112 1 6.31847 2.46827 -18.5345 12
113 1 7.52282 19.2563 -8.86963 7
114 1 -8.8763 -11.1319 6.22119 11
115 1 -13.785 -4.56204 5.36339 12
116 1 1.21754 -9.17248 -16.6223 10
117 1 6.17499 9.2834 -9.00808 17
118 1 9.85319 -10.0691 0.259471 19
119 1 -2.01249 -7.40199 2.26203 23
120 1 -11.7796 -5.18594 -2.38881 22
121 1 15.2577 11.5697 5.64484 17
122 1 15.9694 3.77775 -7.98336 7
123 1 -18.5584 3.48081 0.136848 7
124 1 7.41418 8.58655 4.59722 18
125 1 10.4663 16.4713 5.0114 17
126 1 -7.82707 4.06179 13.9859 12
127 1 -3.38745 8.51026 8.59967 19
128 1 -3.66961 12.6091 -12.4343 19
129 1 -2.56538 -5.43199 -13.4235 16
130 1 8.65315 -5.19524 -13.5508 15
131 1 -4.64804 17.9851 -12.3295 10
132 1 13.8798 -2.93362 8.6734 14
133 1 -3.48884 3.05712 -13.1049 20
134 1 -1.47193 9.74201 -10.4732 21
135 1 11.4274 4.30994 -5.67339 16
136 1 -9.31227 10.2563 -9.75865 18
137 1 -7.18055 17.6503 -7.21746 17
138 1 8.02292 6.25175 -12.072 18
139 1 8.13412 -1.94048 1.3106 20
140 1 -3.45087 12.5929 -5.77963 22
141 1 -10.6582 11.2952 4.93695 13
142 1 14.1306 9.1139 -2.85205 10
143 1 5.68352 16.4004 -3.40253 23
144 1 -2.60838 20.6566 -3.66859 9
145 1 8.28091 4.92759 0.274929 17
146 1 -0.7978 14.2922 -3.72113 21
147 1 1.74413 15.1632 -12.1365 16
148 1 2.16006 10.6356 -16.0966 20
149 1 -13.4717 -7.47763 3.69506 10
150 1 -7.43907 8.68557 -0.940041 19
151 1 -7.05325 -3.04326 -17.0517 10
152 1 6.49044 -10.2264 -13.3651 14
153 1 12.5947 13.2308 9.63214 9
154 1 -0.129601 20.3016 2.2679 16
155 1 -16.2271 6.37222 -8.43328 13
156 1 -9.1937 16.8376 -1.85442 11
157 1 13.4681 5.53989 2.9704 19
158 1 -10.9782 6.20829 -14.3269 12
159 1 3.70655 -2.26088 13.7518 11
160 1 5.64609 19.0493 -0.626312 16
161 1 -1.36721 13.9861 7.62228 20
162 1 2.07663 -0.973004 -17.7658 13
163 1 -1.59333 21.066 4.05132 11
164 1 2.73048 14.2053 -9.63875 19
165 1 1.18183 -0.0924333 15.3196 8
166 1 -7.96186 -0.399686 -1.43969 20
167 1 -2.46275 -12.748 -11.6688 12
168 1 -6.6507 12.4819 -10.726 19
169 1 0.362681 -5.41269 4.16569 19
170 1 3.46184 -17.2659 -6.81444 9
171 1 -1.718 9.25639 -18.6543 14
172 1 -12.3139 1.50668 5.81317 16
173 1 10.3819 17.3184 -10.778 8
174 1 -8.99087 9.16971 9.60748 15
175 1 5.09824 -8.19046 7.45854 16
176 1 -5.05922 6.31453 -0.195557 21
177 1 3.54366 20.8845 0.863264 14
178 1 2.21463 5.93284 7.42231 20
179 1 20.5453 7.23327 5.33805 10
180 1 -8.52584 15.5395 1.07882 14
181 1 9.39676 -6.9393 -6.42985 17
182 1 -8.86728 12.0723 8.51742 11
183 1 -5.47008 3.62077 -11.1197 21
184 1 14.3585 -1.89519 2.00315 18
185 1 -3.25214 -2.21723 4.85963 18
186 1 -13.4257 7.14603 0.0746889 18
187 1 -7.70687 -5.16564 0.47649 18
188 1 9.45624 13.2248 10.744 16
189 1 -13.476 5.18222 2.43391 22
190 1 1.94994 -14.7554 -7.70194 16
191 1 5.99439 -3.95152 -3.51789 22
192 1 -3.19772 12.1694 1.41859 16
193 1 1.81336 16.9475 8.69852 21
194 1 -6.45192 3.64191 -5.30003 17
195 1 -6.0245 15.0602 -13.1611 14
196 1 -12.3508 1.60964 -4.55253 16
197 1 -7.43045 -4.41614 6.83101 19
198 1 -2.51001 -4.7539 2.29741 18
199 1 6.52617 -10.5379 6.37413 11
200 1 -11.1515 13.7195 2.59107 14
201 1 17.4038 12.6874 7.1698 7
202 1 10.4563 8.82111 -1.19228 15
203 1 -8.34628 -4.89357 -14.4239 12
204 1 10.478 1.67517 9.01032 19
205 1 8.91898 -13.0275 0.758007 10
206 1 3.59634 12.1778 -18.7067 10
207 1 7.2039 -7.47155 -12.1275 19
208 1 11.2668 -3.03278 -5.65704 20
209 1 -1.12311 7.42906 -20.6872 9
210 1 -7.55562 -4.12821 -10.9941 21
211 1 -2.60004 15.4214 -8.78072 19
212 1 -0.248101 -6.10399 7.82857 19
213 1 12.5891 18.7489 3.97438 7
214 1 -7.29022 0.771238 13.331 14
215 1 -5.23266 14.8067 -7.49251 19
216 1 10.0294 6.57243 11.2601 22
217 1 -5.23603 -4.00247 -13.5723 18
218 1 -1.07347 12.2791 -8.1891 20
219 1 1.43676 8.96315 -13.0077 20
220 1 -2.63603 -10.487 4.1489 24
221 1 2.12113 17.4978 14.1905 7
222 1 -6.80282 14.2925 6.88708 13
223 1 -0.123149 -6.7987 -11.0045 13
224 1 -7.12072 -7.87401 -6.23469 20
225 1 9.60305 -10.0598 -3.5519 16
226 1 14.8041 5.21772 11.3234 16
227 1 12.2395 13.3683 -11.3251 8
228 1 1.93068 13.4807 -6.19068 20
229 1 -5.80089 2.09121 3.92315 22
230 1 -13.9328 9.20946 -2.53276 15
231 1 2.28999 10.2484 11.9232 20
232 1 -2.22903 -10.5745 7.03587 13
233 1 11.281 4.00364 -0.0374681 17
234 1 0.841683 12.324 9.47057 18
235 1 -11.3664 7.24984 7.87052 17
236 1 -13.6245 -3.87975 -5.49022 14
237 1 7.73313 4.76736 -14.4537 19
238 1 4.22851 3.57915 8.94539 18
239 1 7.07041 8.56897 -17.322 11
240 1 2.13284 -8.15393 -5.04739 18
241 1 -6.23095 1.42248 -13.3981 25
242 1 -3.00342 -13.5606 6.10319 11
243 1 8.84666 4.4226 -7.04258 20
244 1 -8.89629 -1.18936 1.84562 21
245 1 5.13544 -13.0061 -5.95631 21
246 1 -11.3537 0.0638054 -7.18386 13
247 1 3.23753 18.5646 -2.36568 18
248 1 4.39221 0.930877 -17.2716 15
249 1 11.2043 5.48294 13.5325 12
250 1 11.1957 3.38512 3.41475 21
251 1 13.6796 -1.30624 -10.8129 10
252 1 -3.49318 -1.43404 -13.6459 18
253 1 -15.1715 4.21154 -10.6106 14
254 1 -9.41108 -12.1421 0.319243 8
255 1 5.12429 9.92493 13.1627 16
256 1 2.07205 -0.350858 7.18009 14
257 1 -9.68928 -1.3686 -14.8903 15
258 1 1.86207 14.5305 -16.2269 14
259 1 4.00838 14.6778 -1.67645 21
260 1 -6.01431 -8.09878 -0.76673 19
261 1 8.38827 19.1813 -6.00417 12
262 1 -6.85771 0.762765 9.98938 20
263 1 -12.5756 -9.39967 -6.59345 8
264 1 -5.55884 -6.97312 -11.8644 14
265 1 -3.36984 16.6749 -15.1809 10
266 1 -9.02064 -9.52755 -7.77504 14
267 1 -3.13733 -7.63353 -0.497758 22
268 1 9.55097 -2.28173 -14.2743 10
269 1 14.5603 0.749351 -8.73777 16
270 1 13.8447 -6.29107 -2.75448 14
271 1 -4.09842 -6.51807 11.8631 10
272 1 -9.39129 -7.17242 -3.80512 21
273 1 10.8599 0.466405 11.911 15
274 1 -4.69039 -13.1399 -0.0359839 14
275 1 2.27828 -7.78811 -1.37699 23
276 1 -1.26671 15.2046 -6.44546 18
277 1 4.87792 -0.0374152 -14.6438 18
278 1 -6.58886 -1.34823 -14.6492 19
279 1 -11.3258 -8.95145 6.25404 11
280 1 2.69193 8.39884 14.7389 15
281 1 0.75153 -9.94865 -2.89407 20
282 1 -10.385 -6.21275 -12.4713 12
283 1 -7.63528 8.44166 -8.6162 20
284 1 11.4838 12.8932 12.7218 9
285 1 -6.56011 7.76809 -14.7232 19
286 1 -2.41625 9.19912 -12.8114 20
287 1 11.4674 -9.77245 -10.8855 10
288 1 -5.61736 19.6664 -6.09622 12
289 1 8.44034 13.908 5.00863 21
290 1 16.7435 4.13353 2.72925 13
291 1 -12.4182 5.05906 10.7248 11
292 1 1.21481 -1.88433 12.5641 18
293 1 -2.06755 11.9868 4.5552 19
294 1 0.960471 -3.13423 -15.6361 16
295 1 8.30919 15.4548 -13.3434 9
296 1 -0.438598 -9.63479 -0.0587056 21
297 1 -1.15012 2.86065 14.5246 12
298 1 -10.7464 2.73731 -1.60432 17
299 1 7.43363 -14.543 -6.69937 10
300 1 -5.55128 9.17739 11.2233 15
301 1 -10.3883 2.45462 13.8903 14
302 1 -8.1538 -1.25278 5.27529 19
303 1 -13.0248 -3.27213 -0.402472 17
304 1 14.7827 -3.51878 -0.509524 11
305 1 -12.5912 -9.95165 0.481412 11
306 1 7.7691 -0.698339 -12.8094 13
307 1 7.61406 -7.45507 1.10588 18
308 1 4.13286 15.1512 -6.43444 18
309 1 -3.74812 12.515 -8.87996 22
310 1 20.4676 4.90485 7.71737 10
311 1 -8.11333 4.90532 -0.433835 18
312 1 5.82033 -6.38747 -6.4594 18
313 1 -5.4561 14.4442 1.24667 15
314 1 -6.85531 15.0517 3.98731 16
315 1 2.84601 -6.09258 5.81744 18
316 1 16.8675 -1.37889 3.13348 10
317 1 -0.359125 8.61115 7.90002 19
318 1 -2.68563 -3.84574 -6.96107 18
319 1 -4.77583 5.71105 13.6641 16
320 1 -0.300584 14.9296 4.85862 21
321 1 11.0532 2.55757 13.5825 15
322 1 -9.34672 16.2899 -8.91716 10
323 1 -4.01593 -1.66326 -17.8317 12
324 1 9.37835 -11.652 -8.40641 12
325 1 -11.3426 -1.91519 10.3362 16
326 1 -9.2018 5.92337 -2.57009 18
327 1 -3.22668 -0.863677 -9.43603 21
328 1 -2.8963 12.4253 -2.79816 18
329 1 8.95435 0.270116 3.32228 20
330 1 -6.95726 -12.501 -2.87878 14
331 1 7.01759 -3.99323 11.5362 15
332 1 -6.11758 -6.62977 9.70503 14
333 1 -15.2875 12.2185 -2.31936 8
334 1 0.775292 -3.28363 6.63898 18
335 1 2.21522 -11.3329 -7.08133 19
336 1 -4.31169 1.84983 -8.0391 22
337 1 11.0483 0.810196 -15.7535 6
338 1 3.23341 19.2276 3.5485 22
339 1 -11.5157 8.08168 -7.2566 19
340 1 -2.02508 -7.92195 -15.9074 11
341 1 7.70612 10.2729 -14.5147 17
342 1 -10.2557 -3.67214 -8.68545 16
343 1 -15.8635 -1.24978 -4.28299 14
344 1 -5.0943 -5.98224 -2.38256 23
345 1 15.8976 2.49883 10.3528 13
346 1 14.0129 1.18914 -3.34723 13
347 1 -12.5371 10.1344 -10.0371 15
348 1 8.2639 20.21 -2.60704 9
349 1 -16.6072 6.17256 0.79361 14
350 1 -14.0012 13.18 0.500211 10
351 1 -6.22238 10.4538 0.672182 17
352 1 -6.09932 11.4681 4.22783 18
353 1 19.1815 4.16731 5.18802 13
354 1 9.13044 -2.25928 -8.07177 19
355 1 13.7253 0.762522 10.037 18
356 1 10.4294 4.58115 -12.0825 17
357 1 -3.90576 -13.4763 -6.38462 11
358 1 3.15425 -5.11255 -5.83627 17
359 1 1.56037 13.192 0.583823 21
360 1 -7.00439 5.23152 -13.0495 20
361 1 5.74384 -6.02676 -1.08287 20
362 1 8.28279 3.65089 3.43141 21
363 1 -8.54082 -1.80291 -6.46249 21
364 1 -8.17386 -8.42902 1.84788 16
365 1 -9.38241 -4.40315 9.38512 17
366 1 -0.961443 13.8746 -0.183643 21
367 1 -9.80407 -10.9165 -4.89122 15
368 1 2.25095 5.23485 13.8326 11
369 1 -5.82196 8.89258 -5.87666 18
370 1 -0.727604 13.2098 -10.687 20
371 1 9.72968 12.0276 7.58127 19
372 1 -12.9947 -1.95232 -3.40361 19
373 1 -5.1085 -7.76962 -4.21563 20
374 1 -8.75823 7.28518 1.41609 16
375 1 -11.2426 8.40039 -1.60645 15
376 1 6.13475 -5.14798 5.71743 18
377 1 3.95164 -8.06837 -11.8172 20
378 1 6.65083 16.7532 5.50502 22
379 1 4.3166 8.62498 -17.7194 14
380 1 -10.2908 10.8804 -6.82625 18
381 1 -3.33237 11.9064 -15.1222 19
382 1 -3.51331 9.56991 -7.56054 22
383 1 -3.1465 -11.0005 1.29102 24
384 1 10.4909 8.77155 6.42341 20
385 1 -0.507774 9.51883 -15.9965 22
386 1 -1.67393 3.02268 10.672 19
387 1 -15.2415 3.27869 -3.40269 17
388 1 -3.68755 9.28294 5.59477 17
389 1 -1.68898 -8.30068 -5.29382 21
390 1 5.29134 -12.541 -11.662 10
391 1 -16.3037 6.70667 3.82556 14
392 1 -9.58107 0.747673 11.5238 19
393 1 -13.3568 6.70962 5.43668 20
394 1 3.02672 -4.57737 8.21993 15
395 1 -11.7456 1.93197 -11.2282 20
396 1 3.75736 -9.6047 -14.395 14
397 1 -3.13146 -9.66869 -13.3821 14
398 1 -2.8294 -3.66537 7.83543 19
399 1 -5.26236 6.07853 -17.4201 17
400 1 2.26479 -13.3446 4.23971 10
401 1 4.50775 11.6403 -10.597 19
402 1 -10.8263 8.0458 4.5483 20
403 1 -3.90234 -3.43329 11.4025 16
404 1 -14.6706 0.492124 -9.5436 12
405 1 -10.8535 -3.60984 4.09958 20
406 1 14.0206 3.31966 4.97164 17
407 1 -0.907691 4.64742 -11.2821 17
408 1 14.6497 1.93377 2.25284 15
409 1 10.2248 10.8039 -5.1984 17
410 1 -12.5031 4.12087 7.7584 14
411 1 2.37413 16.132 -4.05532 21
412 1 11.7113 -6.32755 4.41131 16
413 1 1.2089 -15.9584 -4.28357 12
414 1 -13.405 2.66478 13.7211 8
415 1 -3.15655 15.3575 3.33919 17
416 1 -13.539 -5.59914 -8.13609 13
417 1 4.21759 17.1862 0.942929 21
418 1 2.85548 13.2717 3.67829 19
419 1 -1.19476 5.88738 7.99824 20
420 1 -7.12189 -4.79254 -3.44466 18
421 1 -4.6382 12.3856 6.12353 16
422 1 -12.5641 -1.10316 -11.4355 12
423 1 -4.00992 16.185 6.37749 15
424 1 0.402459 -8.97658 -7.46385 20
425 1 -4.86306 -7.14217 -14.3505 10
426 1 -4.93836 -5.33394 1.07883 21
427 1 8.19323 0.206905 7.94448 15
428 1 0.225082 -7.82158 11.2625 11
429 1 -11.5541 9.88432 -15.316 8
430 1 8.02072 7.7226 -3.4337 18
431 1 -6.8122 -10.9843 -5.66873 15
432 1 -3.58997 20.317 -7.0913 9
433 1 0.442366 7.68411 -10.8142 19
434 1 -0.928067 15.4954 10.5906 17
435 1 -13.9271 6.16679 -4.86703 15
436 1 2.52465 16.9858 -8.32035 10
437 1 9.88003 9.34377 -12.8654 18
438 1 -4.13226 -9.25159 -10.9876 11
439 1 2.51292 3.71869 11.3856 15
440 1 8.60186 -11.1327 -11.8857 14
441 1 -0.599193 -0.921938 -14.9603 18
442 1 10.1549 -9.10422 3.7247 10
443 1 -14.0188 11.4328 3.50595 10
444 1 -0.713109 10.0965 14.0475 21
445 1 10.9258 6.44871 -2.21803 15
446 1 1.84265 13.1743 -2.72098 18
447 1 -8.6118 13.34 -14.8921 12
448 1 3.62411 8.71771 -9.3534 17
449 1 4.09575 -5.81183 3.1307 20
450 1 -15.1744 6.44982 -2.49843 13
451 1 8.96714 18.8712 7.33797 11
452 1 -2.93911 8.26739 -15.6747 17
453 1 8.84978 10.9012 -2.60134 15
454 1 11.9982 15.2204 -8.47561 11
455 1 3.89111 -11.0776 -3.90285 19
456 1 16.8458 10.737 2.42981 12
457 1 1.48242 0.706125 -19.7664 11
458 1 0.134979 -6.62542 -0.21044 18
459 1 3.4088 -9.19463 4.35375 17
460 1 4.8869 -6.3564 10.4435 15
461 1 -10.1181 7.58479 -10.3451 18
462 1 -13.6479 -4.13292 2.70005 15
463 1 0.0916152 -12.7359 -12.3974 11
464 1 8.92033 18.021 -0.20841 12
465 1 -1.31034 5.89864 -14.1441 20
466 1 8.64195 -2.81358 8.83994 19
467 1 -12.7117 -3.7849 7.95972 10
468 1 6.15336 -14.9282 -0.368622 10
469 1 -8.1947 1.35889 -7.47019 23
470 1 14.6035 -1.30953 -6.07292 13
471 1 16.1697 0.926702 -5.6578 9
472 1 -2.70136 7.40128 -9.65038 17
473 1 2.56132 -4.82312 -12.0525 20
474 1 4.0043 3.67467 -10.3738 19
475 1 10.8145 4.923 -9.36488 19
476 1 -7.26284 -2.24107 11.6393 13
477 1 6.88571 15.9689 -0.706524 21
478 1 -12.448 1.0873 -15.0665 8
479 1 1.43172 6.46153 -19.1831 13
480 1 -5.83222 -3.65763 9.70397 20
481 1 -0.617355 19.3975 -0.905279 17
482 1 -5.33886 -1.84176 -11.2307 18
483 1 -12.0959 4.02384 -3.89757 17
484 1 -1.07147 -11.145 -15.1065 10
485 1 -9.60293 -5.92587 5.45176 15
486 1 4.38543 10.3853 -13.2732 21
487 1 16.2195 6.29175 4.78465 17
488 1 10.2503 13.4312 -2.96252 15
489 1 -9.83521 -10.2054 -1.60152 18
490 1 -1.48411 -7.74986 -2.14496 20
491 1 -7.54739 2.50897 -18.2288 11
492 1 -8.87004 13.0819 5.45228 17
493 1 4.828 -2.43702 -11.4836 17
494 1 13.1559 -1.74549 5.42527 21
495 1 7.95448 11.964 -11.0602 16
496 1 8.44173 -6.00966 3.56041 17
497 1 12.8502 6.66014 -8.9694 13
498 1 0.283327 11.9809 16.5728 9
499 1 -4.92948 2.96882 8.84616 21
500 1 2.02102 14.4984 10.1141 18
501 1 11.6955 -1.44737 9.75795 17
502 1 -4.25549 2.05248 -18.7761 14
503 1 -5.1319 -3.62037 -8.50674 20
504 1 3.92985 -2.56072 11.0502 16
505 1 4.44178 12.6606 11.5879 21
506 1 2.96199 12.8308 -13.9276 17
507 1 -7.5503 8.85301 -12.1042 19
508 1 5.12452 13.0674 -8.24182 20
509 1 15.6932 -2.69214 5.49217 13
510 1 13.3038 4.81686 -12.1562 14
511 1 12.1679 -5.08184 -0.972134 19
512 1 11.3654 7.02143 8.28644 20
513 1 -13.0974 -6.6937 -5.44579 14
514 1 -5.78628 13.2548 -15.8542 13
515 1 0.912925 0.523755 10.0464 17
516 1 -8.59726 -1.41832 8.43329 20
517 1 -5.24979 15.3853 -10.5603 16
518 1 3.51256 -8.70452 -8.3933 16
519 1 5.84368 -1.34659 -9.27253 17
520 1 -6.43739 19.1694 -9.62661 9
521 1 -6.35542 0.163123 -17.3284 17
522 1 6.05149 -8.26165 4.19569 18
523 1 -16.6921 1.68753 -5.40768 12
524 1 -0.14676 17.5707 -13.6984 9
525 1 -1.62543 14.7911 15.9368 11
526 1 -13.9976 -0.908182 1.79068 15
527 1 8.2172 10.7324 -7.98663 20
528 1 2.31392 -9.73244 -10.7661 18
529 1 -1.84107 -1.35145 12.1148 16
530 1 -5.78629 7.9925 2.12939 20
531 1 0.803357 1.75241 12.4572 16
532 1 8.81236 14.0909 -9.51116 19
533 1 11.8379 0.261629 3.65828 21
534 1 -0.805635 9.88422 11.0179 19
535 1 -1.86791 0.816466 -18.8461 15
536 1 -5.70004 -8.99248 6.4067 20
537 1 -3.47943 6.06411 -12.3108 17
538 1 2.44905 3.27044 -18.5845 16
539 1 9.01703 16.5176 8.63241 12
540 1 10.4917 9.8514 -16.0197 11
541 1 2.39901 2.00247 -14.7051 19
542 1 0.292884 -5.95732 -4.41865 19
543 1 -6.68682 0.843696 -9.92523 22
544 1 11.2742 9.07756 2.88092 19
545 1 14.5881 3.90256 -5.42902 12
546 1 14.0273 -3.87858 -8.08674 14
547 1 17.7945 5.18947 9.93146 14
548 1 4.80426 -7.98678 -3.24924 20
549 1 1.34817 9.15407 -18.4991 14
550 1 3.04126 21.4266 6.04504 11
551 1 -7.83473 4.86293 3.32596 20
552 1 16.008 8.04659 10.4879 11
553 1 11.595 8.81988 -7.73233 15
554 1 11.259 -2.02981 1.37936 22
555 1 11.6171 6.73265 -14.5044 13
556 1 11.8786 3.33217 11.0552 20
557 1 17.8103 2.1446 7.82983 12
558 1 7.17466 -1.8777 6.37457 18
559 1 11.0555 16.8648 1.39405 14
560 1 0.73646 3.42134 8.36873 19
561 1 13.8437 -4.65537 -4.73267 12
562 1 7.55115 4.78852 12.9562 14
563 1 -7.16005 3.81928 -8.68831 19
564 1 11.5392 11.15 4.99058 18
565 1 14.9037 4.72134 0.222385 13
566 1 -14.111 -1.24506 5.16529 16
567 1 6.20113 18.6026 9.87546 12
568 1 13.1452 4.19187 8.27085 21
569 1 4.02822 12.5246 8.0253 21
570 1 -2.46829 19.6539 6.92337 11
571 1 4.13901 8.05698 5.36138 12
572 1 1.20643 -13.3935 0.932212 13
573 1 -3.56052 16.2909 -0.493283 17
574 1 11.5267 7.46224 -11.5384 15
575 1 11.8755 -1.06982 -8.3785 20
576 1 5.47469 20.2257 -3.89967 12
577 1 4.85424 -15.1614 -9.18519 12
578 1 8.30543 0.139526 -10.0967 12
579 1 -10.5217 4.18083 2.11989 18
580 1 -4.67279 5.75659 -14.7062 21
581 1 0.64596 -12.8155 -1.99658 20
582 1 -3.70536 0.814312 -11.2709 19
583 1 -15.8668 7.85735 -5.82413 10
584 1 8.12263 -6.54829 -3.50591 21
585 1 7.73456 16.2969 2.57281 22
586 1 1.63462 -7.21723 2.44385 21
587 1 -15.0396 9.38644 -8.34199 10
588 1 0.0836513 1.57398 -16.2292 21
589 1 -1.97647 11.5793 8.8145 19
590 1 2.2387 17.5578 -16.2723 7
591 1 14.8279 -0.00287877 7.42888 16
592 1 8.677 8.36296 -6.3232 18
593 1 13.8022 16.0174 1.84687 10
594 1 5.67343 -4.77009 -12.9562 21
595 1 -10.5914 -2.82848 6.70907 21
596 1 9.56713 1.52084 0.857753 21
597 1 -1.24567 16.6061 13.43 11
598 1 7.49888 13.7422 -15.1003 10
599 1 -8.70649 9.18823 -4.12196 21
600 1 8.44225 10.9785 3.54983 18
601 1 -9.66353 -7.07905 -1.30511 22
602 1 15.4483 7.54556 2.38359 17
603 1 10.7507 16.1582 -5.33791 13
604 1 -3.25019 5.78595 10.5476 18
605 1 -9.55219 -6.60102 -7.13527 19
606 1 -6.91926 0.80961 -4.64548 18
607 1 8.1172 2.52551 11.0764 16
608 1 -1.1929 -4.22947 12.2123 12
609 1 7.83034 8.40673 12.7021 15
610 1 -5.42609 14.5258 -2.70881 13
611 1 8.06718 8.01525 1.3425 14
612 1 8.47677 5.45688 5.72109 17
613 1 -5.71116 3.07421 -15.9286 20
614 1 -5.80984 -1.61108 7.42623 19
615 1 7.71264 3.13894 -10.0864 19
616 1 8.96412 -12.3888 -5.27233 12
617 1 6.65776 7.82149 10.5891 19
618 1 -3.23002 1.73702 12.7352 16
619 1 10.5168 14.5358 2.7773 21
620 1 6.42602 -1.04628 12.6155 11
621 1 -5.59694 3.66156 11.7334 18
622 1 -3.78517 0.660388 -16.0126 22
623 1 -12.8666 1.59304 10.2899 14
624 1 8.77237 11.1152 13.5356 14
625 1 -12.3208 -8.61284 -2.89688 15
626 1 12.15 13.4294 0.572694 16
627 1 6.28691 -4.59149 1.35777 19
628 1 7.36104 13.8593 -3.45041 22
629 1 12.0987 14.253 6.24069 16
630 1 8.91404 3.59102 -16.5947 14
631 1 3.06703 18.3074 -5.77814 15
632 1 7.89954 12.9586 1.55436 18
633 1 -7.66636 -9.74363 -3.25449 19
634 1 -2.72991 3.54351 -16.0758 21
635 1 -9.26584 13.7602 -3.06729 16
636 1 0.316368 -5.95311 -15.0304 17
637 1 5.34331 11.653 -16.477 15
638 1 9.19956 17.0435 -3.51699 18
639 1 -5.89408 10.9629 -2.90884 19
640 1 4.51035 10.9062 -6.50764 19
641 1 11.1222 8.92404 12.6468 13
642 1 12.655 7.22843 11.0402 18
643 1 -4.01544 -9.31661 9.60436 11
644 1 -7.09725 8.31747 -17.9046 12
645 1 0.823879 18.5253 5.29856 20
646 1 11.2015 -4.81801 -8.44461 21
647 1 8.02226 7.601 8.04937 19
648 1 10.9066 15.4617 -1.53352 14
649 1 10.4461 11.3871 1.10362 16
650 1 11.5604 -7.28481 -4.54537 20
651 1 3.23131 6.1798 10.4232 22
652 1 -13.7535 1.79128 3.00832 14
653 1 6.50145 -14.2424 -3.22982 15
654 1 1.60908 1.42353 -11.8176 16
655 1 -8.09511 19.1299 -3.64317 10
656 1 4.70478 13.845 5.6746 22
657 1 -11.1422 1.07184 1.27901 15
658 1 -2.16101 6.18421 15.7415 13
659 1 -0.530404 3.33321 -19.4573 15
660 1 -8.28454 10.9133 -16.7401 12
661 1 3.69445 -12.9765 -1.86987 20
662 1 7.16572 9.38773 -11.7659 18
663 1 -16.3401 -2.87814 4.33106 11
664 1 4.13892 1.95075 -12.3103 19
665 1 3.13989 -12.196 7.30353 10
666 1 -3.68195 17.6808 -7.17182 19
667 1 -4.92911 1.97925 15.1067 9
668 1 -9.57889 -0.599986 -17.6709 9
669 1 -3.76524 -8.02313 -8.35229 15
670 1 -2.06205 -10.6298 -8.10853 17
671 1 -0.0247749 16.5247 -10.2081 14
672 1 8.11756 -1.46253 -4.91422 19
673 1 1.67267 13.9843 6.75839 18
674 1 7.04593 -12.4391 -8.86749 14
675 1 4.80952 -8.15251 1.19297 20
676 1 10.4818 -0.83338 6.07537 20
677 1 12.361 1.9525 -10.5983 16
678 1 3.76887 -12.4967 -8.77354 17
679 1 -6.56793 4.31872 6.29156 20
680 1 -1.36401 -13.8626 -4.7157 18
681 1 -7.4675 -6.08429 -8.82369 23
682 1 -8.30587 3.94291 9.86317 17
683 1 -3.59062 -10.5668 -5.07346 19
684 1 14.4214 7.25183 -5.8924 9
685 1 -6.52237 18.0548 -0.585879 11
686 1 -15.3069 8.91099 6.18443 8
687 1 9.29111 2.53147 5.82595 21
688 1 -9.75578 -0.443862 -9.71125 20
689 1 1.44062 10.4976 -8.2358 21
690 1 4.22884 7.139 -11.9414 18
691 1 4.26314 16.5463 10.9242 17
692 1 11.8624 11.5429 -1.63483 16
693 1 -15.8561 -0.49225 -7.58372 11
694 1 -13.4511 5.27686 -8.24321 18
695 1 -3.79089 11.3995 11.6526 18
696 1 6.7265 5.43152 -18.3332 11
697 1 6.64385 11.1947 6.59428 19
698 1 -0.994036 -0.721573 7.04102 19
699 1 4.1822 -15.865 -3.78448 12
700 1 -8.09218 -8.83857 4.74754 17
701 1 -3.12014 -0.649222 9.89965 18
702 1 18.1034 9.48431 5.11857 16
703 1 0.99676 -9.52251 -13.3734 18
704 1 -5.80057 17.8755 -3.93837 13
705 1 5.10364 14.4684 1.3749 20
706 1 -10.8371 -9.71001 3.37871 14
707 1 9.51804 6.9672 -16.7792 12
708 1 -0.646882 -11.1411 -4.97783 19
709 1 0.159232 -12.1863 6.8847 14
710 1 -1.82568 -14.0857 0.116872 11
711 1 2.19904 7.46273 -15.403 18
712 1 6.3713 18.9465 2.77987 17
713 1 -8.99262 1.30175 -15.4793 18
714 1 6.95971 5.37063 9.92603 17
715 1 -5.00822 11.0747 -18.2825 11
716 1 -9.29365 -0.119324 -12.2334 17
717 1 -10.268 -4.56523 -4.33566 19
718 1 4.67453 16.1449 -13.8134 9
719 1 -1.80852 -3.54495 -16.4142 13
720 1 -7.90046 1.87841 1.14338 21
721 1 9.10481 7.71349 -9.23404 19
722 1 12.9496 -9.61926 -2.22086 13
723 1 -5.3313 9.41073 14.087 12
724 1 6.61612 -10.4263 2.39527 17
725 1 8.26428 -5.30479 -0.764804 22
726 1 15.8091 4.68561 7.71801 19
727 1 2.07113 15.7765 1.9339 19
728 1 -11.1141 -0.753611 3.86237 17
729 1 -8.83929 9.53792 6.41214 18
730 1 -0.00280216 -10.1629 2.6555 17
731 1 15.7451 9.96172 8.11134 15
732 1 4.92487 16.0025 7.92084 22
733 1 -17.0116 3.50149 3.05845 14
734 1 6.3574 -11.8657 -0.442278 18
735 1 -8.53535 14.1931 -6.60586 17
736 1 5.57931 -12.4824 4.73243 10
737 1 5.72707 0.082511 15.5976 7
738 1 4.21799 18.5976 7.25446 20
739 1 -2.78596 -6.92399 5.08318 18
740 1 -11.1856 -0.829591 -1.68038 17
741 1 0.245911 7.44545 12.9718 22
742 1 -15.9367 -1.82446 -0.978863 15
743 1 -3.92713 12.1427 15.3283 8
744 1 1.55586 18.6822 0.196038 17
745 1 -9.2818 -3.15035 -1.88973 21
746 1 -4.23831 -13.3759 3.21775 16
747 1 7.92366 -6.04124 8.85298 15
748 1 18.0422 1.40632 5.21971 10
749 1 4.41125 9.75385 9.11964 15
750 1 4.80064 -4.40355 -9.22038 23
751 1 -13.1911 3.89412 -13.4582 13
752 1 -4.99439 -0.297634 11.8888 15
753 1 -2.77783 19.5896 1.16188 14
754 1 18.7206 7.76704 2.74084 10
755 1 7.21071 15.3458 -6.36095 20
756 1 -5.83 12.5786 9.88399 14
757 1 13.0008 9.98414 10.783 14
758 1 7.72602 0.821493 -15.9215 16
759 1 -6.42489 -11.0817 -0.351668 17
760 1 11.191 6.01894 5.33851 22
761 1 2.49242 -1.56941 -13.0139 20
762 1 -3.39526 8.63974 16.1938 10
763 1 10.6339 -7.54233 -1.82699 19
764 1 3.96985 5.53015 -17.4207 18
765 1 -4.90258 -6.2035 -6.23851 20
766 1 10.9821 3.98599 -14.8798 13
767 1 18.1385 7.18872 7.8198 17
768 1 3.51303 0.456837 10.8648 15
769 1 -0.952712 -6.52268 -7.92957 15
770 1 3.702 16.4716 4.47157 19
771 1 -9.70189 6.70695 10.9142 14
772 1 11.8434 7.61937 -4.79916 14
773 1 14.9829 14.9667 5.23076 10
774 1 -0.29635 -2.10445 -18.9393 10
775 1 -4.84351 17.402 2.01589 13
776 1 12.6155 11.2181 7.39328 16
777 1 12.0258 10.6051 -13.5764 10
778 1 5.34757 3.08998 -15.3124 21
779 1 9.20956 -2.16133 -1.68814 16
780 1 -14.3077 8.2356 3.18224 17
781 1 13.6558 10.8683 0.695734 16
782 1 -12.8784 -6.988 -0.032271 16
783 1 -10.7446 13.2468 -9.07745 15
784 1 5.03492 6.57527 12.9034 12
785 1 -9.981 5.56046 -7.99543 22
786 1 -11.2323 4.99406 13.6241 9
787 1 -1.28053 1.99987 -9.37956 20
788 1 9.53068 -8.25575 -9.80729 16
789 1 -13.0681 -4.72335 -11.1694 12
790 1 11.8568 -1.57255 -2.30212 16
791 1 -14.8643 3.82085 5.52832 14
792 1 -7.51247 -4.28761 -6.44372 22
793 1 9.75031 9.63937 9.82245 22
794 1 -6.27024 -0.414718 3.81939 20
795 1 13.761 2.8871 13.4094 10
796 1 13.6574 -5.34479 2.10459 14
797 1 10.0344 -4.63048 1.85005 17
798 1 -9.35661 3.60099 -5.05877 18
799 1 1.78704 8.47753 9.41333 17
800 1 5.8681 13.6713 -11.8538 17
801 1 -0.580005 -9.92257 -10.7481 19
802 1 -2.14388 18.3212 4.20146 21
803 1 -10.5539 1.68891 8.80044 17
804 1 9.4053 16.8214 -8.29724 15
805 1 -0.610087 12.4889 12.0602 14
806 1 10.7582 -4.69705 -3.29682 23
807 1 10.2652 -2.92154 4.19808 19
808 1 -3.07904 14.0654 -17.8219 12
809 1 9.83809 13.8056 -6.50092 22
810 1 -4.52524 6.06198 7.05879 23
811 1 14.2622 9.87366 3.35819 19
812 1 -0.873956 2.06897 -13.1186 23
813 1 14.0122 12.9595 3.4705 17
814 1 -11.3084 5.39442 -0.298916 19
815 1 -0.170597 -8.77214 5.2611 17
816 1 1.20857 11.329 -11.116 20
817 1 9.4439 -2.89227 12.0537 10
818 1 1.98895 -13.2385 -5.03602 19
819 1 0.812911 19.3978 -3.59018 16
820 1 -14.323 10.2691 0.619291 17
821 1 8.32298 1.18334 -7.48311 19
822 1 5.76776 -9.065 -17.4062 6
823 1 -3.90696 9.83421 3.12184 20
824 1 10.5491 11.766 -9.06903 11
825 1 -4.51818 0.884786 6.24055 19
826 1 10.9209 -3.48809 -11.5741 14
827 1 -11.5165 -6.78237 -9.91647 14
828 1 2.32752 -6.40998 -9.29286 19
829 1 -1.19563 16.7077 7.51586 15
830 1 2.64371 -10.8778 -0.317607 17
831 1 -1.06754 15.2094 -15.5823 16
832 1 11.9924 0.146484 -5.1684 16
833 1 6.06081 11.9783 3.28642 19
834 1 3.82342 -12.8106 1.80188 13
835 1 5.90582 -5.35532 -16.238 9
836 1 12.1723 0.499823 0.467265 17
837 1 0.653285 4.90013 -16.2974 20
838 1 -5.97267 -11.8738 5.79512 13
839 1 5.51058 18.2263 -6.0687 15
840 1 5.99043 5.89 -9.2752 19
841 1 -8.17831 5.34789 -10.3416 21
842 1 -11.0433 4.71514 4.85136 20
843 1 0.132294 8.57442 16.3654 10
844 1 -2.20517 -7.05179 9.26371 16
845 1 3.46846 10.9755 4.90263 20
846 1 -3.99405 -9.782 -2.25219 22
847 1 4.75006 13.3571 -4.42963 24
848 1 -6.64041 6.51314 9.30051 21
849 1 -12.2864 -0.710189 7.83737 16
850 1 -11.2868 11.3401 -0.893577 16
851 1 8.58993 4.31531 -3.39969 21
852 1 -4.19078 -6.20672 7.14246 19
853 1 8.28035 -7.58463 6.36879 13
854 1 13.2002 8.43701 5.52254 20
855 1 5.45106 -3.18945 -6.33154 16
856 1 11.4937 -10.0075 -7.12429 11
857 1 -8.0464 5.3494 -16.0665 17
858 1 -1.84144 6.02108 -17.3763 20
859 1 7.07018 14.2996 7.36885 20
860 1 -8.54961 -7.16584 7.80743 15
861 1 -6.00036 11.0291 -13.7912 15
862 1 -10.524 6.90028 -4.6988 15
863 1 8.70581 19.0128 4.32066 13
864 1 -10.8427 -6.91651 2.21407 20
865 1 -0.157813 12.619 2.61173 20
866 1 6.84529 11.854 10.1509 21
867 1 -7.98197 -7.96203 -10.6869 14
868 1 3.07536 19.9515 9.60646 12
869 1 -7.85052 1.11197 6.97319 19
870 1 -0.241971 -16.6699 -6.80846 8
871 1 18.2121 -1.57213 6.33469 7
872 1 -0.794164 -13.2133 3.63345 16
873 1 1.40832 14.6101 15.9607 9
874 1 -4.94202 -8.07797 2.78495 20