ITEM: TIMESTEP
28000
ITEM: NUMBER OF ATOMS
2000
ITEM: BOX BOUNDS pp pp pp
-30.0 30.0
-30.0 30.0
-30.0 30.0
ITEM: ATOMS id type x y z Coordination
1 1 -10.6607 11.177 -5.27573 14
2 1 -0.630722 -6.07113 -10.0204 15
3 1 7.00271 18.5165 12.927 13
4 1 8.10598 -2.58934 11.8521 25
5 1 -10.1958 9.68657 -1.58607 20
6 1 9.96133 -0.171427 -8.30503 18
7 1 -14.7231 10.0382 -4.56182 8
8 1 2.66573 3.6904 20.8305 12
9 1 -9.42948 5.62276 -3.90834 18
10 1 -9.8646 -3.09958 5.12011 15
11 1 12.0711 4.29288 -10.783 14
12 1 -2.76025 -6.61833 5.16773 17
13 1 -11.005 -0.547305 5.954 17
14 1 3.90278 8.07574 12.9796 21
15 1 -3.03963 7.96096 12.5524 19
16 1 1.92795 18.4918 -7.82205 15
17 1 5.70577 3.65757 15.1563 21
18 1 -7.83798 10.6769 -8.10511 12
19 1 -10.7986 3.83584 15.5819 11
20 1 17.6466 11.6461 8.38637 11
21 1 4.82921 15.3887 -6.23791 18
22 1 7.67046 8.78454 -16.9706 8
23 1 17.1942 3.15943 6.26078 9
24 1 -14.0063 16.1719 3.57852 9
25 1 -8.5372 16.0888 12.8566 15
26 1 2.34563 -8.11826 10.2503 15
27 1 10.0035 -9.29452 -8.95003 9
28 1 9.77631 -7.73483 1.95249 12
29 1 -5.71394 -8.74633 -3.49134 15
30 1 -7.69262 2.12578 14.4848 17
31 1 1.60216 -2.53278 -16.2338 8
32 1 14.4229 -6.55009 -9.03557 12
33 1 2.0011 14.4562 -12.1315 10
34 1 -2.23604 9.18547 14.8032 21
35 1 5.2206 -8.90621 7.91162 15
36 1 5.56863 -3.88203 13.0368 15
37 1 -11.7994 8.12991 3.49877 20
38 1 -10.8606 9.31677 11.4661 18
39 1 -2.81915 16.761 -2.60854 20
40 1 1.75088 -4.6368 -7.52238 13
41 1 -0.22535 4.83013 -7.98969 17
42 1 11.4974 -4.03291 -8.46285 16
43 1 -1.98598 -0.344046 9.37271 18
44 1 -13.0551 10.9732 3.294 18
45 1 10.1432 15.4322 -4.60739 14
46 1 1.62133 20.1756 10.4127 13
47 1 -8.21918 14.0008 -3.05999 18
48 1 3.15663 21.166 -5.33779 9
49 1 4.57405 -7.57426 4.29012 18
50 1 8.27767 -1.30777 -6.03464 21
51 1 4.80109 -3.24409 -15.1953 14
52 1 -9.37299 10.6458 14.7681 16
53 1 -11.9542 -3.10467 -5.82825 11
54 1 -7.45075 12.2217 -0.974616 18
55 1 -0.0261576 -3.34417 10.1566 23
56 1 -4.67663 19.2326 11.3482 13
57 1 -15.6345 15.197 -0.641115 10
58 1 -7.73584 14.9031 15.4778 12
59 1 -2.34007 -2.76316 16.2456 13
60 1 4.9437 -8.85839 1.21752 21
61 1 -1.32339 14.6731 14.4152 20
62 1 -7.92166 7.07939 -9.87176 14
63 1 -9.24897 17.3356 -3.5282 17
64 1 7.67663 11.3531 9.26321 20
65 1 14.0726 -1.68752 -9.29548 14
66 1 11.2547 -5.44897 7.10897 10
67 1 -11.9744 4.70467 7.30226 16
68 1 8.22309 16.5475 10.2572 17
69 1 5.1241 -1.6209 16.0077 11
70 1 -3.97189 -9.68229 4.94207 15
71 1 12.4943 2.80039 12.4406 18
72 1 5.39082 17.6267 9.32466 15
73 1 -2.20956 -1.98047 -6.14573 20
74 1 -12.0954 14.0976 3.62331 18
75 1 -10.5556 15.4011 -1.51634 19
76 1 0.106062 12.0974 -4.66034 19
77 1 13.8779 18.4367 -0.67659 13
78 1 9.71677 -0.520681 6.69692 18
79 1 9.25496 -1.82928 9.47287 21
80 1 -4.48949 19.5105 0.0486355 16
81 1 -8.77614 12.3103 3.84703 21
82 1 -4.02885 -0.671238 18.2361 13
83 1 -4.42454 14.1161 9.25331 23
84 1 5.34494 6.35876 15.1069 19
85 1 14.9927 -1.50127 0.153294 12
86 1 -7.87267 8.66258 9.91749 23
87 1 -13.4763 -5.26014 5.39699 10
88 1 10.7536 0.402196 -4.06391 19
89 1 4.38577 0.640154 -10.5585 19
90 1 -3.59422 -0.220442 -9.72017 18
91 1 0.0679775 16.7522 3.18813 18
92 1 -10.9843 4.1291 -6.67707 14
93 1 -3.90855 18.7291 17.1291 6
94 1 0.49236 16.3356 -3.12146 18
95 1 -14.5871 11.0916 0.626396 15
96 1 -3.42482 -2.91755 10.4378 20
97 1 14.8703 5.60836 8.11328 16
98 1 10.334 -4.43184 -12.9568 11
99 1 9.01382 7.12545 17.9197 20
100 1 -6.69988 -2.73165 1.52526 20
101 1 -7.76025 -3.78789 -1.2636 19
102 1 9.96444 -2.7671 4.56139 21
103 1 9.13478 0.896119 -12.7879 18
104 1 8.89435 18.1622 1.98216 17
105 1 -7.00083 -9.0643 11.4119 11
106 1 -10.2631 -8.21892 11.534 14
107 1 7.94458 -6.64954 -12.991 10
108 1 11.0461 -6.0129 -0.862353 13
109 1 -0.674562 -0.755909 17.738 11
110 1 -8.20558 -5.8735 3.16098 18
111 1 13.1978 15.0819 5.93959 21
112 1 15.6527 -0.0865944 -7.19951 17
113 1 -12.9292 -2.44052 6.61389 15
114 1 10.248 13.3368 5.74015 20
115 1 14.3292 16.199 8.70383 16
116 1 -1.02244 5.34063 18.6905 16
117 1 2.19179 13.7993 15.824 19
118 1 -6.6924 18.2548 -6.81272 9
119 1 -1.67759 -5.65601 -2.63428 19
120 1 9.43845 -6.04125 -9.9035 18
121 1 7.8711 16.9911 -7.64516 13
122 1 9.24142 4.66881 16.4261 22
123 1 0.944606 4.55625 -12.7064 19
124 1 -1.64235 15.3238 -5.46337 18
125 1 16.6236 6.02626 0.643824 15
126 1 -10.6932 18.4591 -0.607331 12
127 1 -5.84176 19.5234 2.69338 18
128 1 8.41124 5.5459 -6.34657 24
129 1 11.3596 -4.32601 1.66521 18
130 1 -4.14926 6.66903 -5.89555 19
131 1 -7.9552 18.4958 10.6848 13
132 1 14.2066 6.59619 -8.98749 13
133 1 9.58786 12.7588 -4.8095 16
134 1 -0.14944 17.6004 8.46713 20
135 1 13.3155 15.9399 -2.55952 15
136 1 -1.92872 19.6023 2.28774 13
137 1 6.6275 18.2939 -6.25528 12
138 1 13.59 13.8632 -4.39376 15
139 1 -11.0824 -11.4605 10.5303 6
140 1 -10.8522 16.4971 6.08026 14
141 1 -7.15846 1.60088 -8.70995 21
142 1 7.59092 -3.54847 -12.6879 19
143 1 10.8335 16.6157 7.85326 18
144 1 -1.17795 19.619 11.1822 18
145 1 -10.6926 -1.80199 -1.13808 18
146 1 -7.20007 14.2349 7.28021 19
147 1 14.2548 -0.0545736 3.41627 14
148 1 -13.8787 13.6034 -2.42651 16
149 1 10.4478 4.9522 19.8964 11
150 1 5.76698 19.6048 2.06439 20
151 1 -1.48948 16.3938 6.1842 21
152 1 1.69699 2.16348 -15.0722 14
153 1 0.808194 18.9171 13.4904 18
154 1 -5.48137 13.4054 -11.9588 13
155 1 3.69657 1.49322 12.6566 19
156 1 -10.1984 -3.20996 8.43495 22
157 1 -0.797201 -0.328813 -15.184 11
158 1 -0.35916 20.0036 -7.36433 8
159 1 -2.13541 -4.50375 7.71124 22
160 1 7.9414 -5.54838 -0.300649 19
161 1 -0.259428 17.4174 -9.92776 10
162 1 -8.53716 7.86831 13.5953 17
163 1 11.862 11.8611 -3.11492 19
164 1 -5.91658 1.85132 17.4225 16
165 1 -2.25178 2.21827 12.9904 18
166 1 3.43267 19.2161 5.27175 19
167 1 4.21031 12.3754 14.2702 18
168 1 10.2517 15.3945 14.5777 13
169 1 -3.68022 18.024 4.32158 15
170 1 12.0077 4.24556 -3.98254 18
171 1 -5.57759 17.6887 14.4466 12
172 1 12.7016 -3.12998 5.03248 14
173 1 -11.5194 3.39601 9.58032 13
174 1 -6.90227 -2.05309 6.94876 22
175 1 4.15143 8.81407 16.105 17
176 1 -12.307 7.51283 0.450884 23
177 1 -0.932186 -7.45632 3.04595 20
178 1 -2.33355 19.4342 6.66856 14
179 1 7.25975 13.7233 12.5654 20
180 1 5.15948 17.7146 -9.67975 9
181 1 -10.3663 1.42412 -7.86305 14
182 1 -9.04403 1.78753 11.3845 18
183 1 1.68666 -4.37802 7.89225 21
184 1 0.290327 -3.68628 13.4109 16
185 1 -11.4356 18.429 3.00984 11
186 1 16.4841 7.82184 9.88967 12
187 1 -5.19745 -3.25389 -10.3613 19
188 1 5.55346 5.61946 12.2231 20
189 1 9.60774 -5.8441 4.90546 14
190 1 7.70377 12.2282 -10.77 16
191 1 9.06982 -2.47854 -10.7148 22
192 1 11.9699 -0.723845 -11.348 15
193 1 6.20047 7.49097 -11.9949 19
194 1 -6.16629 0.933025 -3.99275 16
195 1 -2.66176 17.7255 -8.01146 13
196 1 -7.82235 -6.39988 12.3007 22
197 1 4.98278 22.4303 5.79303 10
198 1 -8.93422 1.36963 19.5988 6
199 1 -12.898 16.444 -2.81717 12
200 1 8.19806 5.32005 13.1548 17
201 1 1.82395 -6.91643 -12.3154 7
202 1 -6.24027 17.7605 -4.04293 17
203 1 3.25676 12.6888 -15.117 7
204 1 -8.98101 -4.07538 15.0696 15
205 1 -11.3196 12.8326 6.04976 23
206 1 -9.69066 13.1791 11.7155 19
207 1 0.0219367 -8.57653 -2.64109 14
208 1 -6.70739 -9.82019 -0.418772 13
209 1 14.6515 -3.13397 -5.82387 16
210 1 9.71599 12.6476 14.6209 17
211 1 6.21984 12.8079 -5.239 16
212 1 -1.75398 15.1822 0.856427 17
213 1 -9.54747 7.32106 6.78781 21
214 1 -9.17302 19.4907 1.44187 13
215 1 1.50809 15.6288 13.8183 20
216 1 1.19694 -12.3396 3.83832 11
217 1 14.9981 3.24896 1.81544 17
218 1 -7.93459 10.4662 6.61776 21
219 1 -11.0298 -1.4185 -8.88949 12
220 1 6.43216 3.95945 -8.42701 17
221 1 2.64342 4.83497 12.0513 20
222 1 9.63894 11.641 -8.05517 18
223 1 9.05824 -2.19212 -3.3263 18
224 1 3.57024 2.84581 -5.75176 19
225 1 -2.94507 -7.17469 8.4622 20
226 1 14.0172 -0.208975 -3.65423 22
227 1 -8.44139 -1.44963 9.89998 17
228 1 8.21134 -9.87808 -2.91248 10
229 1 -6.37723 -4.29833 -5.95047 20
230 1 8.44888 20.819 3.60237 12
231 1 2.26345 0.715473 -8.56591 18
232 1 9.08114 7.77905 14.7613 20
233 1 15.5192 8.95649 3.39979 18
234 1 9.39442 6.31629 -12.5814 17
235 1 -9.39542 3.91803 -10.0737 14
236 1 -16.144 -0.228591 -1.48156 10
237 1 -2.68349 -12.496 4.97175 8
238 1 11.1643 -1.46192 11.371 18
239 1 -2.89054 -4.49698 -12.4584 13
240 1 1.55023 10.4952 -8.12443 16
241 1 -3.91442 -3.57099 4.88411 22
242 1 1.91886 15.8625 0.126988 20
243 1 -11.2476 2.26124 12.9308 15
244 1 -7.44704 -6.01311 -3.29365 20
245 1 -7.73263 -0.759886 -6.54442 21
246 1 5.45126 10.5802 -11.6795 16
247 1 -2.78169 -8.14405 -8.38887 11
248 1 9.13163 3.35055 -11.4224 17
249 1 9.69681 8.71748 -7.84392 18
250 1 10.6703 7.97903 6.88648 19
251 1 -12.0681 -2.93661 11.2166 15
252 1 -2.09445 -4.82298 2.93037 24
253 1 11.6566 12.5706 16.6416 9
254 1 -9.23071 -8.72297 -3.03336 11
255 1 1.24284 -6.17305 5.71398 20
256 1 3.2803 22.1678 0.493492 9
257 1 4.11256 5.62337 -10.4684 20
258 1 1.07562 -1.80183 -6.96094 18
259 1 -5.95158 -0.129372 15.6531 18
260 1 1.78033 11.0767 17.2686 14
261 1 4.40887 -4.25186 3.07618 21
262 1 -5.42288 -9.02123 -7.97407 10
263 1 -12.8445 13.3777 -5.34306 11
264 1 13.3514 8.29466 8.74996 15
265 1 -7.64778 5.36516 -6.63363 17
266 1 5.52345 10.1699 -5.01397 17
267 1 6.71512 -6.27974 -4.79114 14
268 1 2.79012 18.2309 -4.53247 16
269 1 -0.135646 16.1718 11.4743 22
270 1 10.8718 4.97673 8.1342 16
271 1 -9.23059 5.252 9.09553 21
272 1 -0.052857 2.71246 19.3322 17
273 1 -12.8017 11.9104 12.1972 11
274 1 10.2953 -1.32935 -14.1745 11
275 1 16.3325 16.013 -2.20425 9
276 1 8.00839 -4.36023 2.30915 22
277 1 -1.33825 4.16395 21.1672 10
278 1 -10.4944 -0.203972 10.543 20
279 1 3.81443 -11.2874 1.29816 14
280 1 -6.21875 9.26467 15.0872 22
281 1 -13.5849 12.8513 8.85829 14
282 1 -13.4316 -0.668782 8.76475 12
283 1 -13.5821 -4.5885 8.69408 13
284 1 12.4278 1.68079 -1.84277 19
285 1 -11.0649 -5.75884 10.4312 20
286 1 5.99913 -2.96225 -6.07103 14
287 1 15.7981 -3.04437 -2.48587 11
288 1 6.74438 20.0069 -0.888013 18
289 1 -10.5484 14.4343 -4.65281 17
290 1 -1.03904 9.10228 17.9428 19
291 1 -15.5886 8.75201 2.04898 13
292 1 5.80663 -3.66092 -1.18272 21
293 1 -4.17412 15.4619 6.47443 19
294 1 7.47684 -5.59797 10.8094 17
295 1 15.6994 0.640844 8.12708 11
296 1 -0.99872 10.7527 12.0698 21
297 1 2.90446 7.10998 21.4704 13
298 1 -8.93888 19.1724 7.89496 11
299 1 12.9989 16.5055 12.211 10
300 1 -7.0808 18.8715 -1.04052 15
301 1 1.88282 1.14554 -11.7442 17
302 1 7.13568 3.8093 -14.0233 16
303 1 -6.172 7.50124 17.8056 14
304 1 -16.436 2.59144 0.224271 10
305 1 -6.38161 13.249 1.62657 23
306 1 6.50995 2.22424 12.9717 17
307 1 -11.8105 -8.12059 4.59517 12
308 1 7.51371 0.239992 10.3533 21
309 1 -7.30374 -3.75114 9.84292 21
310 1 -13.817 15.6268 7.10409 10
311 1 -0.409217 5.08002 12.4748 22
312 1 3.90728 -8.81178 -3.72297 15
313 1 -0.483419 -0.328632 -10.3671 18
314 1 9.76679 6.03161 -9.59898 17
315 1 3.77281 16.533 3.39043 17
316 1 -9.48174 4.20546 -0.6644 21
317 1 3.38465 -3.713 -11.9278 15
318 1 9.28988 6.03039 -15.611 10
319 1 -3.87734 -5.10372 -8.25698 21
320 1 -12.4031 -0.502104 -3.42451 13
321 1 6.85853 11.3033 14.6263 21
322 1 16.2707 8.55519 6.47355 12
323 1 -3.05164 8.87864 -10.9825 18
324 1 6.56649 22.4744 1.62942 10
325 1 -12.3195 -4.40441 0.147365 15
326 1 -6.35331 11.5621 9.28723 22
327 1 -6.63585 16.8895 2.11334 19
328 1 -3.33991 11.8568 14.3204 20
329 1 9.07989 10.4467 17.1294 17
330 1 12.693 1.61005 -8.43131 18
331 1 6.32784 1.71978 20.2604 10
332 1 15.2438 0.363577 -10.7638 8
333 1 -2.84264 -8.88334 -3.47307 15
334 1 1.64986 15.9108 5.55546 22
335 1 -11.3232 5.48735 -1.75012 17
336 1 9.02898 -8.51954 -5.65498 14
337 1 16.6491 8.37269 13.4785 9
338 1 -7.76142 3.34392 -3.3484 22
339 1 -6.82732 -3.66783 4.52748 20
340 1 -11.5647 -2.6462 14.2865 13
341 1 -3.83435 15.1872 3.50672 21
342 1 -15.7119 -3.27735 0.463043 10
343 1 6.60351 12.3369 19.3168 14
344 1 -9.78141 13.429 0.942026 20
345 1 -2.72044 14.8362 -10.0553 13
346 1 4.97452 15.9963 5.91873 23
347 1 -12.9235 0.552512 3.83551 16
348 1 -0.435017 -7.1417 -5.36354 16
349 1 -14.5773 9.15017 5.44378 8
350 1 -11.478 8.46366 -4.21056 18
351 1 4.82542 -3.75791 6.93161 18
352 1 -3.51351 -9.3453 -0.592972 16
353 1 6.40441 17.6409 17.5828 10
354 1 11.0228 10.2727 -12.4626 10
355 1 -7.02221 13.2673 -6.21589 15
356 1 -0.152323 18.0491 -5.23986 18
357 1 -5.72517 7.90235 -8.13992 18
358 1 -0.345795 -7.76047 7.23995 20
359 1 15.6575 16.7457 6.01184 13
360 1 12.3561 12.1152 -10.8537 10
361 1 -12.8604 7.33596 6.36532 13
362 1 -1.49484 -10.4292 2.48642 20
363 1 7.81231 0.803292 -9.48934 20
364 1 -14.188 13.3157 5.56376 12
365 1 -13.0933 -0.509469 12.3101 11
366 1 -9.43378 11.4943 9.08713 21
367 1 -9.0355 7.63971 -6.84716 13
368 1 11.3473 -7.14605 -7.85611 16
369 1 -1.32289 -4.97061 -7.61014 18
370 1 1.83246 5.70948 19.0226 14
371 1 -0.0522453 11.9064 -12.1812 13
372 1 10.464 -5.1691 10.8384 16
373 1 -1.39296 19.6219 -3.22006 15
374 1 -10.6223 15.1441 8.61297 18
375 1 8.03991 6.87847 21.5318 11
376 1 -10.6784 -4.39848 -2.58142 17
377 1 -9.18039 -0.609086 14.0656 24
378 1 11.8837 -3.0689 8.82894 16
379 1 11.6926 0.718884 8.90386 16
380 1 16.0154 14.127 3.69048 17
381 1 -7.8843 10.5284 12.4814 23
382 1 3.60626 16.3997 -2.60404 20
383 1 -0.65657 -9.52459 -0.245461 16
384 1 -2.13065 10.211 20.535 9
385 1 4.64724 20.0136 10.2459 15
386 1 -9.11139 -3.07458 -3.96406 21
387 1 8.92627 18.7653 5.95192 19
388 1 8.97202 10.7175 12.0538 18
389 1 -5.50698 1.69008 12.4779 16
390 1 -4.58279 -3.73863 -1.1053 21
391 1 -6.84629 6.03037 15.7721 16
392 1 -10.3034 0.00981668 -5.22536 16
393 1 -2.71766 16.7528 9.69704 20
394 1 -3.9005 -4.22559 -4.48603 20
395 1 1.32242 -1.63494 -12.7032 17
396 1 -7.32753 -9.42578 2.58046 14
397 1 8.82465 8.60979 9.49534 19
398 1 2.15812 -1.04017 16.7532 13
399 1 -10.7121 2.51507 -3.55862 21
400 1 10.4082 13.245 1.72511 21
401 1 -8.4938 -7.24266 -0.348795 16
402 1 3.35489 20.93 13.23 13
403 1 3.3622 14.0216 11.5428 18
404 1 -10.4339 4.97714 2.24575 21
405 1 1.38593 22.0959 5.11789 12
406 1 14.8477 10.6023 -1.40168 23
407 1 -4.9419 -2.01229 -7.4154 21
408 1 5.5386 8.10607 21.819 10
409 1 3.75249 -7.69374 -8.35103 8
410 1 -5.97319 4.19695 -11.0528 17
411 1 7.57888 -10.1701 0.180849 12
412 1 -6.14677 16.1687 4.37803 18
413 1 2.16459 6.18401 14.7745 17
414 1 15.136 11.6849 1.81534 21
415 1 5.00347 15.5808 1.18848 22
416 1 -8.47688 16.0043 -5.99161 17
417 1 -9.8607 1.64676 1.75726 23
418 1 0.908939 20.1145 2.77819 13
419 1 -6.32278 10.1231 -10.5213 16
420 1 12.3441 18.7093 1.8525 15
421 1 8.42155 15.4899 -10.5832 10
422 1 13.4504 6.39037 2.63806 22
423 1 -5.44704 7.53926 -11.6579 15
424 1 3.27433 -7.03699 7.4822 21
425 1 4.20783 1.08262 15.6497 20
426 1 -4.9701 12.7248 -7.95937 21
427 1 -2.42064 -5.10177 11.4737 21
428 1 6.66655 -8.37377 -10.7772 12
429 1 9.76608 22.6969 9.70619 6
430 1 2.53458 9.74986 -13.2007 14
431 1 7.49004 4.31861 20.0037 16
432 1 -8.34553 4.68653 18.0535 14
433 1 -2.83269 -11.0 8.57138 10
434 1 -9.66513 2.41955 4.99891 25
435 1 11.4554 -0.788297 -1.0469 19
436 1 12.5073 4.73246 0.544008 19
437 1 4.6938 -4.56309 -4.56754 14
438 1 1.38913 8.02057 -6.5986 19
439 1 14.4211 4.60672 -1.30138 21
440 1 1.61015 1.48474 17.6345 18
441 1 9.09812 22.165 -2.30865 9
442 1 -0.86675 3.40575 -10.6421 20
443 1 8.67799 9.18926 -10.7845 20
444 1 -5.6713 -0.453661 9.43721 22
445 1 -1.11285 17.7277 0.454217 15
446 1 -7.75543 -1.60649 -9.48902 17
447 1 -12.5191 3.89778 3.84581 15
448 1 -0.889693 1.72248 -12.9855 18
449 1 -6.74885 -1.27919 12.6566 19
450 1 12.172 8.41798 -10.3552 13
451 1 16.0472 2.24474 12.4382 10
452 1 17.3553 8.75845 0.626486 15
453 1 -10.7129 -6.6415 2.56849 12
454 1 -0.44412 6.5442 -14.5389 11
455 1 -5.96788 20.0228 8.37696 13
456 1 10.5954 1.43533 1.04354 21
457 1 -4.20347 16.1166 -0.308577 18
458 1 17.3787 4.12378 -6.87458 10
459 1 -0.744202 15.3724 17.8928 8
460 1 -7.71495 4.5867 11.8802 17
461 1 -0.364335 12.083 14.641 20
462 1 6.82686 1.22125 17.2434 14
463 1 -3.2623 8.188 -13.9403 11
464 1 -6.14059 -2.15086 -3.79884 21
465 1 0.795259 7.93115 12.2873 22
466 1 10.847 11.6503 8.82853 17
467 1 10.4909 7.59169 -4.5987 22
468 1 -5.18133 14.7301 -4.17492 17
469 1 9.11839 17.9452 -3.85143 13
470 1 12.089 0.286231 13.9982 13
471 1 12.4779 1.76306 -5.55839 16
472 1 10.0922 -3.71425 -6.1383 18
473 1 6.7027 9.06412 17.2449 21
474 1 -14.9995 -2.32083 4.07525 8
475 1 2.92229 15.7103 -9.09381 16
476 1 -10.7372 5.79269 12.479 15
477 1 3.94228 12.9809 -7.69178 16
478 1 6.4159 -7.63565 -1.70852 18
479 1 5.29331 0.841357 -7.52513 18
480 1 0.300952 18.9088 5.07718 18
481 1 -8.65582 -3.60955 -11.4802 5
482 1 8.44087 -8.26925 9.94302 7
483 1 -12.9554 1.01375 0.845739 18
484 1 13.714 13.8316 -8.11299 8
485 1 -6.40168 12.1602 15.0297 18
486 1 -9.33631 -3.61254 12.113 21
487 1 -1.85907 -2.82539 -15.1791 9
488 1 2.31826 -0.747577 13.5113 19
489 1 -11.1196 10.563 1.06123 21
490 1 -2.28292 12.2956 17.2529 15
491 1 10.1254 18.9294 -0.859176 17
492 1 11.0627 -5.56489 -4.78596 14
493 1 5.35137 10.8608 11.7582 17
494 1 0.0771786 6.52234 -10.531 20
495 1 -5.37988 -5.9635 10.8411 21
496 1 2.73316 5.34822 -15.8207 13
497 1 2.34192 17.9887 7.87158 21
498 1 12.777 10.2925 -8.90715 15
499 1 -7.33194 1.75531 -11.7026 11
500 1 -2.00434 -6.52455 0.349038 20
501 1 -9.90599 0.805633 -11.0285 12
502 1 11.9497 9.20081 2.58689 17
503 1 17.6751 12.0336 0.126864 13
504 1 0.591037 -3.2026 -9.95566 20
505 1 15.0795 11.6148 13.7253 7
506 1 14.1684 -6.44114 -6.0243 12
507 1 3.01612 8.3628 -10.6045 20
508 1 12.3592 20.3953 4.44716 11
509 1 7.44762 16.3832 14.6137 14
510 1 18.0382 11.3304 3.00124 12
511 1 13.2379 3.36474 9.58693 19
512 1 15.7711 5.49278 -4.26531 14
513 1 8.56432 1.49013 15.3844 14
514 1 15.0241 5.39556 14.7916 10
515 1 1.95104 2.83734 14.8705 20
516 1 16.6137 14.8985 1.25525 12
517 1 4.65967 11.5815 17.0757 20
518 1 10.0127 2.61343 -1.58882 22
519 1 9.84815 6.7067 11.0899 19
520 1 -5.50944 4.31375 -8.03027 17
521 1 13.3197 13.4167 -0.805821 22
522 1 -12.5816 14.5104 11.4813 10
523 1 4.6197 14.9353 14.4412 20
524 1 11.5168 6.04932 14.0424 18
525 1 5.76152 14.2892 9.28975 22
526 1 2.35722 16.6024 17.5739 10
527 1 -4.20732 -8.80843 10.899 13
528 1 -4.85333 13.136 -1.7752 18
529 1 11.3692 10.1155 -5.68466 16
530 1 7.30162 -0.213072 -15.5188 10
531 1 -1.98167 20.9832 -0.541874 11
532 1 1.57551 -5.59928 -3.0159 20
533 1 11.4388 5.47989 -6.76479 17
534 1 -11.8696 8.83346 14.0798 10
535 1 -6.59628 14.952 -8.76403 15
536 1 -5.61815 -9.11435 8.02612 14
537 1 -4.45264 1.0678 -6.13069 18
538 1 -14.8119 5.09084 -1.45772 16
539 1 11.3679 0.198454 4.50955 22
540 1 8.71657 13.9158 9.27861 20
541 1 2.96236 -2.25404 10.7941 18
542 1 -10.7086 0.928049 -0.865178 21
543 1 8.0813 8.97834 -13.7496 17
544 1 2.0535 9.56161 20.0581 12
545 1 2.69784 11.9913 -10.7887 18
546 1 12.1721 3.32959 15.5027 12
547 1 13.4116 7.021 -4.90192 15
548 1 11.1 21.1663 7.68572 12
549 1 2.20103 -9.61605 -6.01156 6
550 1 -8.89477 1.29856 16.649 16
551 1 14.4915 2.14411 5.19981 20
552 1 5.12561 15.0383 17.945 15
553 1 6.77392 10.3023 -8.71313 18
554 1 -12.7425 13.246 0.369641 22
555 1 5.76193 19.2099 6.95181 20
556 1 -15.4804 -0.723128 1.90342 13
557 1 12.8179 5.24442 6.02221 20
558 1 5.98419 20.5035 15.2473 12
559 1 -5.71393 6.16364 9.99012 20
560 1 -12.6051 2.25074 6.65976 14
561 1 -13.5388 2.11674 -1.90817 20
562 1 16.9974 3.41665 9.10127 11
563 1 -7.18055 -6.34054 15.3197 10
564 1 11.6032 9.68321 18.4418 13
565 1 -7.36047 15.4794 -0.740361 17
566 1 6.24071 12.1477 -17.289 5
567 1 -6.9325 2.56882 9.24744 19
568 1 5.08591 -6.36618 -13.5166 11
569 1 16.7684 -5.02592 -7.24517 7
570 1 4.20291 16.8947 11.7561 16
571 1 -9.11748 -1.49308 16.5087 13
572 1 16.1922 11.5227 5.59276 19
573 1 -0.424466 0.331433 14.6802 18
574 1 -2.63978 13.7385 11.7242 24
575 1 3.4304 -0.00414687 -14.439 19
576 1 -9.39767 7.38286 16.4893 12
577 1 5.97641 6.29366 17.9316 17
578 1 -7.77603 -5.47099 6.5268 19
579 1 17.8126 10.1684 -2.45668 10
580 1 13.7057 -5.87305 -2.98031 11
581 1 14.0984 21.2621 1.26503 6
582 1 13.3558 19.4764 7.09971 12
583 1 5.09603 10.2333 -15.3642 13
584 1 6.76776 17.0525 -0.840447 23
585 1 13.0762 11.6393 4.81244 19
586 1 -5.30973 -4.96973 1.93404 19
587 1 -5.80963 10.4568 -13.4169 9
588 1 -8.71926 18.0768 4.35078 16
589 1 6.05857 1.50978 -13.1602 20
590 1 12.1241 8.8368 -2.2578 20
591 1 13.0014 14.0796 3.17343 17
592 1 14.9487 8.99574 -4.53856 16
593 1 12.0471 9.59071 15.4989 16
594 1 9.95715 2.047 18.2461 12
595 1 -1.77352 -5.46234 14.4559 12
596 1 5.19514 13.9397 -11.021 14
597 1 6.70884 21.6078 12.1386 9
598 1 13.7207 -4.5045 -11.5242 9
599 1 12.1762 21.1682 -1.56847 9
600 1 6.56631 17.3936 3.74383 21
601 1 16.1736 2.5566 -3.64177 15
602 1 8.57793 9.6919 20.0474 14
603 1 -13.1422 5.93887 2.78758 15
604 1 0.201551 -6.9127 12.7627 11
605 1 -6.12116 16.7454 8.15737 16
606 1 5.58597 13.6212 4.19491 21
607 1 -9.3084 1.49527 8.0191 18
608 1 0.797565 8.99128 14.9973 20
609 1 -1.29892 12.5537 -7.69772 17
610 1 -4.46004 15.9182 -6.9796 17
611 1 6.58814 -10.302 2.86721 10
612 1 7.32733 8.19563 -6.48975 19
613 1 -5.86356 7.74865 12.5144 19
614 1 3.84057 3.63811 -13.4494 23
615 1 4.75858 -5.9248 9.7361 18
616 1 3.45376 18.131 -0.367692 14
617 1 -3.60739 7.11348 16.1761 18
618 1 -4.80959 -6.83556 -10.8059 11
619 1 -2.52325 -3.16019 -9.67794 19
620 1 -10.0862 -6.09318 -5.23904 12
621 1 1.09905 22.2644 -2.46655 8
622 1 3.77678 -0.640048 -5.48773 18
623 1 -2.58151 17.7698 13.1375 17
624 1 8.30444 -3.90802 -8.39292 17
625 1 1.0137 -12.8038 0.805795 9
626 1 5.51179 -1.17019 12.7368 23
627 1 15.0605 11.6391 -5.8142 13
628 1 7.43998 -7.21237 -7.99695 17
629 1 -11.5686 0.616877 15.2158 15
630 1 -5.80608 -7.14541 5.09868 19
631 1 -5.67837 -6.66772 -0.416334 19
632 1 -4.32607 15.1525 14.0168 17
633 1 4.97319 -11.3677 -1.40845 12
634 1 19.7187 6.34292 -0.578191 5
635 1 -3.54949 21.6385 8.82709 10
636 1 -9.72967 7.88255 1.58767 21
637 1 12.86 8.84179 4.97663 18
638 1 -9.04683 -3.68905 -7.47053 16
639 1 -3.33907 18.863 -5.76272 15
640 1 9.19178 4.18754 -4.44404 21
641 1 7.57737 15.932 20.1456 5
642 1 13.8863 8.13508 0.489531 23
643 1 -16.9544 11.8236 -0.817499 9
644 1 -7.5699 -7.16444 -5.87872 15
645 1 -4.4053 10.2229 17.3116 15
646 1 7.17724 13.9177 -8.10488 18
647 1 14.6633 13.2516 10.7848 12
648 1 -1.03568 3.14429 16.0311 14
649 1 1.982 -10.4357 7.81692 14
650 1 -4.86818 -4.15362 13.4219 21
651 1 3.33878 0.998611 19.6994 13
652 1 14.6633 9.1202 15.5411 11
653 1 2.72215 -2.30981 -3.24367 19
654 1 -9.16581 14.921 4.214 18
655 1 7.50048 13.3479 6.13163 20
656 1 -8.51158 -0.59515 3.78138 22
657 1 15.3744 9.05308 -7.93731 9
658 1 2.66509 -9.57435 -0.319265 18
659 1 6.85345 -6.79538 7.43322 16
660 1 -12.0354 -9.74111 13.5078 5
661 1 5.82659 3.27727 -10.9934 19
662 1 3.72459 21.5796 3.43526 13
663 1 -2.65579 5.42342 -12.4869 19
664 1 -1.02911 6.22092 15.2 19
665 1 0.375536 13.7504 -9.57195 17
666 1 -8.60345 2.5765 -5.95893 22
667 1 -10.8471 -1.62276 2.04631 15
668 1 3.72918 20.5568 -2.59733 13
669 1 -3.47861 -1.28287 -12.8016 15
670 1 12.6543 15.726 0.613019 18
671 1 13.3163 -0.224867 6.37461 15
672 1 -8.25847 14.5882 9.73603 16
673 1 5.21657 -5.91531 0.815174 18
674 1 12.208 3.14387 3.5881 21
675 1 10.6946 -3.12063 13.3194 13
676 1 2.0 14.5913 8.60498 18
677 1 -11.0932 14.0099 14.5937 9
678 1 -3.66525 7.25001 20.5468 10
679 1 -8.76262 -6.66749 8.93168 20
680 1 4.08145 18.0963 14.6248 22
681 1 -15.9998 5.51171 0.721176 11
682 1 12.2835 -1.38135 -7.09091 19
683 1 -12.9421 16.4854 0.89745 14
684 1 -4.9461 -7.17409 13.5656 14
685 1 -0.620231 7.60979 20.4916 14
686 1 -1.22553 20.2274 14.8832 11
687 1 2.73683 -9.27215 5.66315 17
688 1 2.10516 10.819 12.3236 21
689 1 -13.4391 4.43216 -4.16835 13
690 1 4.71756 9.19434 19.2929 17
691 1 10.3721 15.8452 -1.87824 17
692 1 -11.0065 -8.67037 8.20289 13
693 1 -4.31234 -11.3652 1.89102 11
694 1 9.54876 0.582083 12.3102 19
695 1 9.54553 2.9217 10.1167 16
696 1 11.3442 9.36467 10.2779 15
697 1 -6.80196 -5.86787 -8.48586 14
698 1 -3.31928 5.77424 -9.55034 21
699 1 4.6166 3.74815 17.7039 20
700 1 -0.12564 20.8698 7.94047 13
701 1 15.8513 5.28099 3.85958 13
702 1 4.18434 8.39488 -7.87503 16
703 1 -1.32808 14.2071 8.72707 22
704 1 10.2024 17.8514 12.2277 12
705 1 5.49904 -1.67429 -12.6746 18
706 1 -3.75344 -8.23669 2.22155 21
707 1 18.3708 13.9788 5.56919 11
708 1 -0.155314 -3.0746 -4.33027 16
709 1 0.270053 13.5033 11.4721 22
710 1 17.3584 0.291905 -2.57862 12
711 1 12.4461 1.46257 -12.7632 10
712 1 12.4179 4.73293 -14.6171 8
713 1 13.1515 -3.87355 -0.826381 17
714 1 2.51361 -5.42311 11.305 17
715 1 -0.0304255 -4.43887 -12.5783 14
716 1 11.1626 16.9948 4.46284 19
717 1 -12.2121 9.92275 8.07736 13
718 1 16.5259 13.1393 -3.0027 13
719 1 15.5054 13.4949 7.55858 19
720 1 14.4796 4.0007 -6.76207 15
721 1 -8.66962 20.7674 4.68331 10
722 1 15.0322 4.88357 11.3257 14
723 1 8.84576 10.0665 -4.32973 19
724 1 -3.64945 2.25587 -10.4197 19
725 1 9.22679 -1.17003 2.13764 24
726 1 -8.22284 6.99067 -0.789278 20
727 1 10.2186 10.9254 4.53028 17
728 1 -11.5794 -6.95168 -0.481818 11
729 1 -10.2339 13.8817 -7.4331 10
730 1 7.21496 8.15339 12.904 19
731 1 -13.2005 3.91842 0.459918 19
732 1 -4.76386 10.7584 12.2784 21
733 1 -2.94096 9.83145 -7.16985 19
734 1 18.1594 -1.83156 -7.32663 7
735 1 -13.9089 -5.91584 2.29946 10
736 1 12.357 -2.58259 -3.671 20
737 1 -15.7575 8.61295 -0.792254 14
738 1 -8.3985 -1.02536 0.129892 21
739 1 12.9323 7.41071 12.0431 13
740 1 0.0527489 -6.38913 9.57044 21
741 1 11.9417 6.79024 16.7617 20
742 1 14.2105 -0.0795431 10.6468 10
743 1 11.4572 2.62145 6.68551 22
744 1 -9.83907 9.81989 4.3385 19
745 1 11.398 18.6796 9.77783 13
746 1 10.5136 13.7985 -13.0329 6
747 1 2.7582 6.65395 -13.2045 18
748 1 -11.0382 17.4123 10.6631 9
749 1 -10.7856 -6.10947 13.8252 12
750 1 8.96806 15.7443 0.940918 19
751 1 -6.20305 13.6387 12.2648 23
752 1 18.5011 1.13588 -5.84476 9
753 1 8.40516 -4.55637 8.44313 19
754 1 1.66799 14.805 -5.66099 20
755 1 6.53768 16.044 -3.83741 15
756 1 -3.99484 4.74044 11.8685 15
757 1 16.5581 10.4687 11.4118 9
758 1 3.78935 -2.02929 -8.86183 19
759 1 14.3015 16.8982 2.94625 16
760 1 -8.37306 10.3456 -3.46369 14
761 1 -5.73238 -3.22825 16.3553 15
762 1 6.74105 20.3882 -4.17392 11
763 1 7.8714 -1.48631 14.449 17
764 1 0.818847 -6.97704 0.36738 21
765 1 -4.75509 20.2386 -3.24202 11
766 1 -14.0456 7.59864 -3.51138 15
767 1 10.9711 5.72402 -1.70069 20
768 1 12.2098 -7.99732 -11.4535 8
769 1 -5.56194 12.8288 4.66517 19
770 1 15.1052 7.56658 -2.09746 18
771 1 5.38988 2.85841 -16.0459 13
772 1 -4.04172 -6.75327 -5.51173 21
773 1 1.65313 -8.95499 3.08155 19
774 1 -0.35714 18.3101 16.6727 11
775 1 8.63377 -4.79014 -3.28378 16
776 1 -2.69899 12.2334 -10.7403 18
777 1 17.4947 3.74436 -1.61011 15
778 1 8.57667 14.9904 3.82307 19
779 1 -0.299111 -9.95497 5.17374 18
780 1 6.16392 6.67314 -15.1198 14
781 1 11.8643 11.2593 -0.236977 20
782 1 -1.33487 9.17257 -9.10452 19
783 1 0.978693 2.09233 12.2207 21
784 1 5.22964 13.8458 -1.53322 21
785 1 10.2306 3.04874 -8.06057 21
786 1 -10.8019 12.4895 -2.02828 21
787 1 -11.1333 7.22582 9.36787 14
788 1 5.1371 4.62009 21.6691 12
789 1 -5.22759 -4.98433 7.88235 20
790 1 7.91386 16.1701 7.07869 21
791 1 -0.731242 -9.70505 9.88196 13
792 1 10.1589 15.2389 -7.4491 13
793 1 -5.33589 16.3563 11.9042 18
794 1 -3.96558 4.37266 17.1325 15
795 1 -5.12542 21.1763 5.29088 11
796 1 -3.758 -1.20044 13.8739 19
797 1 6.202 -2.97498 9.63094 20
798 1 10.3289 13.9893 11.6367 17
799 1 5.90324 -4.82489 -10.2784 20
800 1 6.74576 -1.73828 -9.27689 22
801 1 -4.0626 1.80599 -12.8684 13
802 1 -3.45192 11.6573 -13.8754 9
803 1 8.4932 22.0088 6.47351 12
804 1 -1.98783 0.691442 20.6865 9
805 1 -3.20087 12.5605 -5.02818 17
806 1 -13.4519 10.2309 -1.3824 22
807 1 7.5947 20.4949 9.02797 16
808 1 -7.08902 -11.0781 5.13345 8
809 1 12.6616 14.2352 9.7705 18
810 1 -14.0739 -1.44115 -1.19133 16
811 1 9.29255 21.0609 0.508526 13
812 1 -4.07869 2.08625 19.689 11
813 1 6.26801 -9.35594 -5.51629 10
814 1 12.1231 -1.86383 1.91349 19
815 1 7.10644 -6.91657 3.28783 17
816 1 6.68047 13.757 16.1709 20
817 1 18.1219 7.23976 -8.96529 5
818 1 9.70622 -3.10239 -0.331435 22
819 1 6.23068 6.56839 -8.88549 19
820 1 -12.4671 6.73026 -6.62892 11
821 1 -8.19515 13.1898 -10.1073 10
822 1 -7.15447 12.1974 17.9597 6
823 1 8.30911 -4.66245 14.5198 9
824 1 -8.96716 -8.27542 5.38574 15
825 1 15.0483 1.5733 -0.890113 15
826 1 -0.165924 8.74746 -12.4583 17
827 1 13.6834 11.194 8.06962 18
828 1 2.34917 19.7122 16.0534 12
829 1 -11.3913 -6.27807 7.60803 15
830 1 3.79876 -6.47499 -1.4399 18
831 2 -9.55824 -2.39888 -10.0857 10
832 2 -2.21513 16.7543 -9.73622 11
833 2 1.0956 3.19627 -7.67542 17
834 2 -6.41641 11.8468 11.4255 21
835 2 12.3854 -0.175174 -9.45296 19
836 2 -6.32804 -0.714027 -2.79502 21
837 2 2.55544 4.55313 14.1742 20
838 2 5.01379 0.225321 20.6227 7
839 2 -14.5032 -0.411494 3.63498 10
840 2 -9.61152 6.23574 0.120713 20
841 2 1.70114 16.4456 8.29276 17
842 2 -8.86995 5.75597 3.1686 22
843 2 7.83381 18.9594 -4.95086 12
844 2 10.3481 11.6577 6.86795 20
845 2 8.45772 16.1329 -4.22239 18
846 2 12.8982 21.1456 2.6659 7
847 2 -7.66433 11.3694 -10.1358 13
848 2 -11.3945 -5.29292 -1.26444 14
849 2 8.94118 9.32615 13.4768 19
850 2 3.63826 1.27823 -6.83899 21
851 2 7.2194 -5.60455 -1.9992 20
852 2 -6.49286 10.7117 0.213704 19
853 2 -13.7646 5.79476 -2.97568 16
854 2 10.3817 7.66082 9.16187 20
855 2 13.9207 1.985 -6.95482 16
856 2 -4.91862 -4.99514 0.168818 18
857 2 -3.82789 -0.914382 9.6517 17
858 2 -3.97389 -7.91155 4.24637 18
859 2 10.4034 2.20055 11.6494 17
860 2 6.96958 -7.72146 -6.2493 14
861 2 9.23036 5.85209 14.8016 18
862 2 3.00357 14.6755 -7.33979 17
863 2 -3.0041 -11.389 6.4278 9
864 2 -8.84926 -7.18094 -4.21124 15
865 2 4.02496 7.59568 14.912 19
866 2 -10.9195 14.7573 5.30837 19
867 2 1.49364 7.4484 20.2988 15
868 2 -6.51941 13.9581 -2.18991 16
869 2 6.72056 -5.75092 9.02496 18
870 2 -2.83073 12.9809 8.47069 22
871 2 -1.39284 13.2535 -5.35701 17
872 2 8.4986 14.6538 11.134 19
873 2 2.74586 -0.360905 -3.76234 21
874 2 7.86046 21.3977 -0.631541 15
875 2 7.4191 -5.61652 -9.37898 20
876 2 -3.87815 16.8202 14.1413 16
877 2 4.93539 7.23505 -10.3583 20
878 2 -4.00659 9.78425 -13.5649 12
879 2 13.4477 17.2408 1.25501 15
880 2 -4.89386 3.04241 18.0968 11