ITEM: TIMESTEP
50000
ITEM: NUMBER OF ATOMS
2000
ITEM: BOX BOUNDS pp pp pp
-30.0 30.0
-30.0 30.0
-30.0 30.0
ITEM: ATOMS id type x y z Coordination
1 1 -13.8049 7.45282 -11.7054 13
2 1 -3.72213 -1.31391 -9.07899 22
3 1 -1.55813 20.57 11.6438 11
4 1 0.276636 -3.70101 12.0818 17
5 1 -10.0716 17.3943 -3.19423 22
6 1 7.97943 -2.98116 -11.3151 10
7 1 -14.5541 3.49047 -1.84804 21
8 1 -5.8565 -2.37307 12.257 23
9 1 -18.1102 3.70466 -7.02128 9
10 1 -16.2022 0.652037 2.79072 18
11 1 6.89192 1.58306 -11.3894 18
12 1 -9.93659 -5.11863 5.44219 20
13 1 -12.7456 0.00582798 10.7656 20
14 1 -3.13591 10.9519 16.2516 14
15 1 2.84143 3.54095 7.20962 22
16 1 -3.38405 8.56556 7.78992 23
17 1 5.35067 3.2602 -0.95323 21
18 1 -4.67119 15.5801 -14.6856 13
19 1 -2.22816 2.55944 13.7931 19
20 1 -7.57326 6.72396 -12.0827 22
21 1 -17.5684 -0.677257 12.0082 8
22 1 8.44445 3.07698 6.78093 20
23 1 1.19907 11.5871 -14.709 17
24 1 3.3506 9.10445 -14.84 23
25 1 11.5259 10.0034 11.3969 13
26 1 -12.6415 6.58025 1.51075 22
27 1 -15.0943 8.79155 -5.28171 14
28 1 -7.20231 6.80974 -8.66507 22
29 1 -13.8565 17.8561 11.181 9
30 1 1.99719 -7.59943 6.22425 20
31 1 -1.20482 6.11809 7.77158 20
32 1 -2.47634 -4.16825 -9.11605 23
33 1 6.89904 -5.37321 -1.37888 16
34 1 -8.86092 -9.00613 -6.01608 14
35 1 -13.8124 2.62063 15.0053 13
36 1 -3.7281 -4.4762 -16.7843 10
37 1 5.37822 -3.68207 -13.1339 15
38 1 -5.84221 12.2686 -14.7558 18
39 1 -3.00443 7.58958 14.9099 17
40 1 -4.26752 -4.92627 5.19174 25
41 1 -0.631459 -2.64219 15.6151 12
42 1 -18.0498 3.74351 6.57223 17
43 1 -14.9696 -2.17804 4.35009 22
44 1 -11.9103 4.02022 -3.47444 22
45 1 -7.52161 18.2282 -4.08603 22
46 1 -2.09407 -4.90851 -6.14084 23
47 1 -1.27213 11.0266 -12.226 17
48 1 2.0991 -1.57423 -12.6082 24
49 1 -3.85303 0.111032 9.089 21
50 1 -15.5602 11.3506 3.67991 17
51 1 3.36747 14.9651 -10.638 19
52 1 -4.7897 13.7005 7.94252 20
53 1 -7.46752 12.0323 -5.28416 22
54 1 -4.25115 19.8556 -2.28657 21
55 1 -3.96751 -10.1215 5.44336 17
56 1 1.91186 -2.1581 -6.26288 22
57 1 -0.751504 -2.02468 -13.7461 20
58 1 -11.5408 13.3798 14.2713 16
59 1 -14.8638 4.63088 -12.6486 11
60 1 4.83844 9.34343 2.39123 21
61 1 -8.23588 14.5338 -3.32606 24
62 1 -14.633 -1.71428 7.47286 21
63 1 -7.16081 13.8747 9.68556 21
64 1 -16.2915 10.9295 -3.30977 13
65 1 -9.18599 16.1155 13.3927 17
66 1 -3.85472 8.99806 -5.50443 20
67 1 -8.93272 -7.9621 10.2785 14
68 1 2.5066 8.75941 7.82924 22
69 1 5.14352 -7.97104 -1.93736 14
70 1 1.04275 18.8403 11.8742 14
71 1 -13.1377 12.041 -4.87872 20
72 1 -11.085 16.4584 -10.0713 11
73 1 2.62862 9.79534 13.4392 16
74 1 9.38204 6.14341 -8.87101 20
75 1 4.01047 -5.31131 4.35783 18
76 1 -18.0674 -1.32758 5.65334 19
77 1 -11.9412 3.47938 2.8651 21
78 1 -0.0289879 17.0249 9.60646 18
79 1 -1.02348 0.770279 17.0075 12
80 1 -11.1557 -8.24164 4.4166 15
81 1 -11.9988 4.01963 -0.19553 22
82 1 11.1236 4.02575 5.53618 10
83 1 5.2415 3.71394 -7.66627 20
84 1 -5.9306 16.5171 11.3405 20
85 1 1.57574 6.3617 6.04058 24
86 1 -10.2115 0.776002 2.83397 21
87 1 -6.40695 -0.691286 -10.6669 21
88 1 -12.3653 11.671 11.3864 19
89 1 -7.86486 20.5529 1.19381 16
90 1 -4.42144 12.11 -6.92557 24
91 1 4.03331 0.632128 -6.19659 23
92 1 5.71183 16.083 -8.32955 12
93 1 4.10027 -4.46654 0.0158951 19
94 1 2.64974 -1.86662 6.71689 22
95 1 -6.16739 22.8488 1.56733 11
96 1 -14.5078 17.722 4.26522 10
97 1 -9.70217 -0.132789 11.9909 21
98 1 -6.80828 16.6276 8.08643 19
99 1 -7.11466 -5.03875 13.8165 16
100 1 9.01487 -4.38596 -5.78368 16
101 1 -8.92246 8.02444 11.3543 22
102 1 -12.8456 -11.3491 0.133366 12
103 1 4.13804 -5.06378 -3.06889 20
104 1 2.48001 5.22948 -18.0238 11
105 1 -9.65811 5.03106 -15.4919 15
106 1 -7.10433 16.2047 -1.50775 24
107 1 -13.7855 11.7189 -8.26253 10
108 1 -1.15486 15.4474 15.9263 11
109 1 -1.81031 17.8807 -8.93055 15
110 1 -16.6667 13.8591 1.70784 14
111 1 -4.51752 11.9758 3.21382 24
112 1 -6.85189 -5.3247 10.3893 22
113 1 10.2953 7.15894 10.375 16
114 1 -0.781719 -1.20011 -10.699 24
115 1 -1.75694 1.17605 -12.5827 19
116 1 -5.95035 8.03204 9.57661 21
117 1 -0.84206 5.02652 14.0772 19
118 1 -13.0218 0.92938 -2.11984 21
119 1 8.17915 -1.61382 3.08374 16
120 1 -13.2615 -3.75846 -2.68316 21
121 1 6.70446 -4.65286 2.27537 15
122 1 -9.9738 11.6628 3.05442 25
123 1 7.24624 5.19632 -16.3393 14
124 1 3.69555 20.0133 -1.25006 19
125 1 -9.95257 -4.93125 8.80713 22
126 1 -12.2259 -6.22746 6.86489 15
127 1 1.10017 -2.08648 -15.8754 17
128 1 1.56961 7.21587 -10.688 19
129 1 8.18294 -2.85331 -0.04911 15
130 1 -7.84169 -10.0407 7.58311 14
131 1 -14.0272 -5.81799 -4.4007 12
132 1 11.4367 11.4315 8.20626 11
133 1 10.9218 3.77473 -7.14344 15
134 1 -20.6469 -2.03386 4.21595 10
135 1 6.74713 11.6851 2.69971 22
136 1 10.7239 9.83341 2.46506 17
137 1 -6.02669 6.6063 16.1004 9
138 1 1.29758 11.8592 -0.526138 23
139 1 -6.82618 10.6996 8.36383 20
140 1 -12.4482 18.7712 -4.2361 11
141 1 -6.74149 -1.53665 -13.9764 22
142 1 6.63107 -6.10282 -10.5639 13
143 1 3.32435 13.9062 -7.67084 21
144 1 4.89927 6.66894 12.8593 19
145 1 -2.00485 1.42798 -15.6211 21
146 1 -7.5603 11.8555 -2.01491 23
147 1 6.87238 6.96191 -10.8725 21
148 1 -15.6694 11.4647 0.299164 20
149 1 -10.9473 20.6428 0.599296 12
150 1 4.38459 11.6893 -9.4503 21
151 1 4.04636 -4.6293 7.37329 15
152 1 -7.30076 12.4263 -11.6326 22
153 1 -11.6798 17.7292 8.94886 18
154 1 9.8395 12.3103 -5.08368 18
155 1 6.6099 18.7735 -3.08944 16
156 1 -7.23334 17.065 5.04309 23
157 1 9.46688 13.2197 -2.00648 19
158 1 -4.63399 17.3927 -3.47024 20
159 1 1.71682 15.0959 -14.0557 16
160 1 4.57337 15.0657 -13.2978 14
161 1 -13.0918 -4.25907 0.413354 20
162 1 -18.3724 11.9937 0.196283 12
163 1 -1.30511 7.85072 -18.5609 11
164 1 -2.57866 -6.86467 -14.5591 13
165 1 4.58649 19.6263 9.11776 10
166 1 -8.46013 19.1105 6.93663 20
167 1 -17.7703 4.21816 -3.7081 13
168 1 -13.0891 15.2181 3.2471 21
169 1 10.77 3.5908 1.71612 15
170 1 -12.5007 9.09951 -10.047 19
171 1 3.25457 10.6817 18.7834 9
172 1 3.61695 21.9818 3.8775 15
173 1 -4.35523 10.9565 6.29706 20
174 1 -3.61913 -1.33434 -12.4404 20
175 1 -9.18076 16.4483 10.5237 24
176 1 -5.97587 20.3792 -6.30158 14
177 1 -3.61049 0.143585 12.0119 21
178 1 -15.5622 0.853552 6.45784 21
179 1 -5.27876 -7.02989 -12.21 17
180 1 -10.9797 17.4 -6.94098 15
181 1 -1.32843 -5.09427 6.86973 25
182 1 -6.24634 -8.292 -4.04261 18
183 1 -9.22374 14.5683 -9.70293 20
184 1 -18.6487 10.2607 9.25017 10
185 1 -5.52752 14.467 -2.14476 22
186 1 4.71798 14.3285 -4.70073 14
187 1 -11.188 8.18121 16.4442 9
188 1 -4.08609 -5.32668 12.3296 24
189 1 -15.0599 8.50281 1.71933 22
190 1 0.989026 19.6681 1.29775 19
191 1 -2.95263 7.6559 11.3808 21
192 1 6.54977 11.9042 9.03775 22
193 1 -10.1075 16.0506 7.30742 20
194 1 5.39304 -1.35595 -10.9991 18
195 1 -10.6713 18.8502 12.224 11
196 1 -6.59263 9.45879 -7.416 23
197 1 6.97952 1.16194 2.48654 22
198 1 -9.00266 -2.12469 3.85964 21
199 1 -19.0003 0.720906 7.61364 13
200 1 -12.9252 -4.50059 4.15073 19
201 1 1.0374 12.0366 12.6867 20
202 1 -18.6083 6.05801 2.07261 18
203 1 -6.28781 -6.9154 -1.30254 20
204 1 -0.581274 -1.86358 -1.02686 22
205 1 -7.33884 17.0224 1.55348 20
206 1 -11.9485 3.55541 6.15456 23
207 1 -1.0304 21.9472 8.53927 10
208 1 -9.20363 4.12141 -5.61564 23
209 1 -6.51634 15.7723 -5.22765 21
210 1 -16.4545 1.66542 -3.99357 18
211 1 -14.8761 5.2805 13.2305 19
212 1 -0.0722497 -10.0366 6.98456 12
213 1 -0.404237 -7.71338 8.5336 19
214 1 -18.7696 12.7288 6.75713 11
215 1 10.3911 5.99157 7.30684 14
216 1 2.15637 8.77283 -5.5005 25
217 1 -7.16279 -2.55958 -16.4187 14
218 1 1.83068 5.35833 8.97037 21
219 1 1.86346 -10.1481 4.6313 14
220 1 -3.68874 13.1164 -13.2259 17
221 1 -1.35393 -1.75535 -16.812 14
222 1 6.46578 7.37864 -13.9305 22
223 1 2.62132 11.3226 -17.4034 15
224 1 -10.5212 1.9542 -7.23456 22
225 1 -1.68185 19.3247 -4.20406 18
226 1 -12.095 -6.24893 10.3364 10
227 1 0.727801 19.5593 -1.75186 19
228 1 -7.59476 10.9436 14.3423 19
229 1 -11.1738 14.8199 -1.42108 22
230 1 5.12899 8.91828 6.17278 20
231 1 -7.40128 2.01971 -12.5923 19
232 1 -6.02394 14.9265 -8.07753 22
233 1 1.40996 12.5678 -10.3879 24
234 1 -10.4343 -4.62777 2.31147 21
235 1 -9.04314 8.25303 7.94137 20
236 1 -10.2132 13.7502 8.63075 21
237 1 -0.915232 -1.74627 -7.85433 23
238 1 -8.54651 -9.18636 1.17661 16
239 1 7.88677 -7.02648 -3.89958 13
240 1 -0.379913 -2.04682 2.04938 21
241 1 5.14893 14.6163 10.6773 17
242 1 0.956714 11.3772 -3.74485 22
243 1 -4.06225 16.8311 2.85484 19
244 1 -15.8716 5.93262 -0.104252 20
245 1 -16.0986 13.7794 -1.84356 15
246 1 -2.56838 12.5417 12.6747 21
247 1 -1.11116 -10.4583 -6.34234 11
248 1 4.93895 8.93725 -3.97137 23
249 1 1.07593 13.6224 8.10132 22
250 1 -12.8256 11.7988 8.07096 19
251 1 -19.0849 1.60766 -1.74202 11
252 1 10.7248 9.59272 -13.8219 13
253 1 -0.165348 2.49641 9.18704 20
254 1 9.54941 12.6982 -13.3955 10
255 1 -0.671917 -2.1919 -4.32158 23
256 1 -6.22818 4.65502 -13.475 19
257 1 -3.90819 -12.3662 3.2544 12
258 1 4.20922 0.943078 -9.27414 23
259 1 -12.3464 0.655451 7.84137 22
260 1 -3.72266 -9.58447 -5.41982 19
261 1 -13.2301 1.90096 -9.04715 19
262 1 -1.51745 22.0126 -2.70699 16
263 1 1.84583 3.59477 -15.816 20
264 1 1.25345 10.9393 9.62271 20
265 1 7.51546 8.47845 4.07717 20
266 1 -6.37873 -1.92001 2.32437 21
267 1 7.50985 2.45026 -14.1947 14
268 1 -4.43918 -4.40898 1.86556 24
269 1 -9.44628 4.09807 -12.2715 20
270 1 -14.8005 4.50589 -4.89922 19
271 1 -9.32251 -7.42854 7.09526 17
272 1 5.83864 3.46041 8.53405 19
273 1 -0.48837 -0.774617 10.4884 20
274 1 -9.16375 -2.20016 -11.3351 19
275 1 -0.563977 -2.13228 5.7267 21
276 1 6.88047 13.9473 -15.26 11
277 1 -2.68587 14.5767 -0.26478 23
278 1 -7.40927 -4.5312 0.520944 22
279 1 -1.10051 17.0009 1.27076 22
280 1 -11.5804 2.87001 9.06044 23
281 1 -15.212 -0.503848 -9.05459 12
282 1 -10.1303 1.02092 -14.2277 17
283 1 -1.06042 8.94869 -14.838 19
284 1 -7.58725 1.80065 -9.05121 24
285 1 -7.21521 -4.66954 3.75363 23
286 1 10.0938 1.31132 -9.77564 10
287 1 12.7502 6.97473 -4.5807 11
288 1 10.18 6.947 3.8749 18
289 1 -7.76728 -3.47944 -5.73811 22
290 1 -9.63615 0.515724 9.02705 24
291 1 -10.4737 -3.75917 -4.62948 23
292 1 0.202521 7.19453 15.9952 12
293 1 -7.84696 -9.17427 4.17825 19
294 1 -9.35069 -6.69055 -0.571644 19
295 1 -0.090177 23.5741 -0.370532 11
296 1 6.34781 8.96112 -16.5085 17
297 1 -8.82697 -0.255266 -16.5718 10
298 1 -11.9515 -3.07268 12.0403 15
299 1 3.80945 11.6038 16.0561 16
300 1 -1.62132 -4.49674 0.230401 20
301 1 -13.0655 -2.80681 -9.38941 14
302 1 -15.3476 8.7411 -8.79543 14
303 1 4.06534 11.5051 4.38391 22
304 1 -9.71979 8.57066 -14.7308 16
305 1 -4.70334 12.478 -10.1905 22
306 1 -6.71319 0.295541 7.52723 24
307 1 1.00555 -7.51603 -10.1256 15
308 1 -3.64561 23.4251 -0.903169 11
309 1 1.08648 16.6141 3.0734 20
310 1 9.5681 1.38304 4.28978 14
311 1 -14.7027 2.86815 11.1628 25
312 1 -2.78367 -2.32933 13.8385 21
313 1 -10.5327 14.5511 1.54699 22
314 1 -2.51982 -4.82783 -12.3001 22
315 1 8.34708 12.1136 -10.199 17
316 1 -1.37017 -4.87318 3.70351 22
317 1 -6.8259 5.66905 11.3012 22
318 1 -17.5842 5.5083 11.8407 13
319 1 -3.29549 -7.18876 0.278957 22
320 1 -12.5558 11.5397 16.1215 9
321 1 -10.4497 10.2415 12.618 22
322 1 -14.8625 -2.30159 11.1058 15
323 1 -17.2515 -2.53946 8.94045 14
324 1 10.1353 7.01586 -2.30778 18
325 1 -13.8876 -4.34361 8.40911 15
326 1 8.47957 3.24778 -8.81117 21
327 1 4.81216 -7.715 -5.15222 15
328 1 -0.0250975 21.876 -5.23044 13
329 1 -9.76533 20.6654 -2.76492 14
330 1 6.47751 17.7276 10.3294 10
331 1 -14.97 3.07448 4.7437 19
332 1 5.1329 -2.11538 -1.69391 21
333 1 -7.79933 14.2031 3.08613 23
334 1 -12.2709 8.84692 6.56711 21
335 1 0.21533 -2.85599 8.80902 22
336 1 5.39967 -1.90899 1.79432 20
337 1 -7.82483 14.0864 6.38297 23
338 1 -7.26451 1.65219 -5.74544 24
339 1 -4.20951 10.4819 13.5579 21
340 1 -12.5516 17.935 -1.13701 15
341 1 4.86765 15.4903 15.797 10
342 1 -9.2878 19.8489 -5.60485 12
343 1 -5.64115 -1.23819 -18.298 7
344 1 -10.3243 6.95046 -7.01294 22
345 1 2.7025 -4.36656 -14.1327 16
346 1 -14.742 13.8283 11.247 11
347 1 -20.7068 4.44676 4.57278 13
348 1 -3.56302 3.59504 -12.29 24
349 1 -8.40048 14.4782 -0.050316 27
350 1 5.67845 2.79493 5.3503 21
351 1 -15.464 -9.29475 0.381172 9
352 1 4.75812 0.8003 7.58046 23
353 1 -10.4394 -6.03332 12.3913 10
354 1 -18.5928 12.8905 3.69339 13
355 1 -1.15676 0.511134 7.37733 22
356 1 0.688358 -4.88066 -8.04933 24
357 1 -9.43409 4.13824 -8.8928 23
358 1 2.16619 4.16561 -12.4353 20
359 1 1.03591 19.4682 4.56897 24
360 1 -17.7176 3.25424 3.48318 19
361 1 0.944908 0.905032 -14.2841 23
362 1 5.62944 4.65121 -13.5912 21
363 1 -6.14626 -10.7861 -6.26748 15
364 1 -16.0254 -0.739838 -2.24118 16
365 1 -6.1698 -1.67744 -0.950554 21
366 1 5.90319 12.9683 17.6388 9
367 1 13.6533 8.70938 -1.53732 11
368 1 -9.65656 9.61442 -12.0001 21
369 1 0.442796 22.8588 2.80112 14
370 1 -20.0598 2.52865 1.67299 14
371 1 -16.6006 14.8978 5.09724 13
372 1 -5.02193 19.1676 1.00093 17
373 1 -10.4262 14.2287 5.04419 24
374 1 7.78181 5.79249 11.9995 16
375 1 10.4018 -2.05484 -8.44058 10
376 1 0.880189 2.80332 15.5026 14
377 1 6.84309 6.53355 -7.57463 23
378 1 -13.6297 -8.84809 -2.44252 11
379 1 -9.00131 9.1414 1.41025 22
380 1 -3.62195 -1.34383 -5.87676 23
381 1 -5.33844 14.1592 1.41639 24
382 1 -13.194 6.91691 -1.84648 23
383 1 -1.66637 -4.49084 -3.02109 22
384 1 9.41434 3.80336 9.20428 14
385 1 -10.3007 1.06456 -3.9539 20
386 1 -12.2392 -1.67095 -0.757394 19
387 1 -15.2414 -0.12595 13.6674 12
388 1 -10.1077 17.2804 0.102672 19
389 1 -12.3001 -1.05384 -4.11092 20
390 1 1.90038 17.0747 14.7394 13
391 1 -9.28831 9.14508 -1.98142 22
392 1 -5.24004 14.8034 -11.5288 18
393 1 0.37755 13.9571 4.64995 24
394 1 -16.6572 -3.46634 -3.13815 12
395 1 -5.0852 -3.60558 -7.62544 23
396 1 -12.7603 5.22512 11.394 20
397 1 -12.094 9.45081 -0.0746994 22
398 1 3.08984 -2.97524 10.0325 16
399 1 -9.57607 -6.48496 -6.37535 15
400 1 9.00332 18.6372 4.52292 15
401 1 8.49696 11.3572 -15.8259 13
402 1 -13.1231 6.2394 -8.84364 17
403 1 -7.46607 16.8747 -10.9019 13
404 1 -9.07168 9.53397 -5.23607 22
405 1 -6.56416 -7.23615 2.01785 20
406 1 7.71878 9.48796 0.630954 21
407 1 0.618376 13.9821 -16.8971 14
408 1 -7.11881 5.81137 7.61188 22
409 1 -20.8274 7.87258 3.24827 11
410 1 -12.7803 6.26012 4.60252 22
411 1 -6.22126 -7.27719 5.67456 18
412 1 -1.44055 0.759941 -5.7865 22
413 1 0.329693 -6.53699 -12.9881 16
414 1 -4.08436 5.57236 9.33295 21
415 1 -18.8267 6.75572 5.30288 18
416 1 -15.1303 6.06539 10.0858 20
417 1 -17.6501 9.15236 7.00967 18
418 1 -3.00719 -2.31389 6.96605 24
419 1 -11.9002 5.99806 -13.8255 15
420 1 4.91398 -2.04291 -7.80926 18
421 1 -5.13481 -3.50423 -10.9881 23
422 1 -3.27793 -0.248559 15.6965 13
423 1 1.47179 0.436328 -4.44619 23
424 1 -6.94583 9.73801 -16.5561 14
425 1 1.5627 -6.83283 3.32768 21
426 1 1.80651 17.8224 -9.09808 12
427 1 -16.2899 14.6279 8.20517 13
428 1 -6.40157 -0.0444121 14.2367 18
429 1 -16.5124 2.5113 -10.275 12
430 1 -11.6451 -2.5054 9.00741 25
431 1 3.20286 2.95872 13.4435 16
432 1 4.35115 6.57921 0.727216 20
433 1 -0.754019 3.50936 -7.3017 21
434 1 5.74693 -2.14668 8.04663 16
435 1 7.94527 9.0689 -2.56666 19
436 1 -8.62923 8.1716 14.2579 17
437 1 -4.25693 17.1075 -0.166325 22
438 1 4.4708 0.444062 3.84711 20
439 1 -4.23932 -6.77059 -6.34172 21
440 1 -9.07693 13.4844 16.0927 16
441 1 -2.41746 19.3597 7.1531 20
442 1 -6.64634 -1.02012 -7.58654 22
443 1 7.08508 21.4148 4.12886 10
444 1 2.47032 7.8748 11.2703 21
445 1 -9.40233 5.05384 12.8941 19
446 1 -6.51717 -0.991664 -4.18675 25
447 1 -11.8372 8.49578 10.3682 21
448 1 -9.68269 -0.821997 -5.959 23
449 1 -11.3328 18.0343 5.60388 18
450 1 -6.70079 -8.1221 -8.68332 13
451 1 -10.5827 -4.48963 -11.2325 16
452 1 -11.5906 -8.60768 -0.49092 19
453 1 -10.1042 0.648496 5.98701 23
454 1 7.25625 6.17569 5.67683 21
455 1 -8.71858 -2.35801 13.5751 16
456 1 -9.19233 11.391 -14.5099 15
457 1 6.65656 12.0997 -0.599189 21
458 1 -13.0994 -6.17539 -7.80247 9
459 1 -4.54784 6.74569 -7.13545 23
460 1 -7.40522 19.3693 -1.46996 24
461 1 -0.589303 8.89154 -6.92846 20
462 1 7.11202 11.3931 5.56623 22
463 1 -15.0594 3.48483 1.52717 21
464 1 -3.35048 21.8987 -5.36893 12
465 1 1.46951 14.3811 -5.15499 20
466 1 -12.1145 3.80394 -10.7619 23
467 1 -1.48253 10.3634 11.6152 18
468 1 -1.01103 -7.68246 -5.12504 22
469 1 -0.679214 3.66036 -13.6758 22
470 1 5.42519 -7.42027 1.43801 13
471 1 -9.77444 16.7618 3.83563 18
472 1 -0.229542 10.307 17.7591 9
473 1 6.99801 15.1497 -2.50658 21
474 1 -4.60265 11.6586 -0.00535093 23
475 1 -10.4253 12.0958 -6.52454 22
476 1 1.46077 5.98843 -7.35853 21
477 1 2.24106 -1.93022 3.69433 23
478 1 -19.0842 -0.106458 1.64084 17
479 1 -4.41703 20.8981 3.38765 14
480 1 -4.2231 6.80862 -13.7918 23
481 1 9.84221 12.2822 1.75838 23
482 1 2.87325 20.2478 -6.89816 11
483 1 4.39657 1.10504 0.494091 20
484 1 12.7255 7.81323 1.81171 14
485 1 -6.50864 4.13067 -10.3729 20
486 1 2.35661 -7.19882 -0.301317 21
487 1 -1.41714 -5.25578 10.1495 21
488 1 -0.58968 -0.152089 13.7046 23
489 1 -10.0374 11.5945 -10.0706 22
490 1 -14.3063 -9.34512 2.94485 10
491 1 -1.51576 -7.64156 -8.30155 20
492 1 5.51109 15.8299 1.42257 17
493 1 -4.58751 6.94251 -10.2537 21
494 1 -4.1797 4.02941 15.685 14
495 1 -16.8934 8.34305 10.9375 14
496 1 -3.95739 -12.4555 -0.281298 12
497 1 -13.1346 0.688845 4.52402 22
498 1 10.8029 -1.68544 -4.91508 13
499 1 7.13263 6.23526 -1.29089 23
500 1 -10.4183 12.3775 -3.50417 23
501 1 1.05738 0.532368 -7.66319 22
502 1 5.08444 11.295 -14.8393 20
503 1 7.28806 0.795847 -4.60071 21
504 1 -7.26355 3.80008 14.7231 14
505 1 2.92316 22.689 0.588155 14
506 1 -4.64894 1.23518 -13.9213 22
507 1 4.02636 8.50668 -18.4761 13
508 1 -6.60353 0.0860042 10.9304 22
509 1 -8.7871 22.6187 -0.880873 10
510 1 -10.3797 6.75566 -10.4394 21
511 1 -18.2898 6.50206 8.63378 14
512 1 -7.64183 -5.87316 -10.8741 17
513 1 -4.34774 -5.16603 15.4495 13
514 1 -1.12222 13.9232 -6.7998 21
515 1 8.08357 9.7741 10.7665 19
516 1 11.1777 14.7576 -5.77412 12
517 1 -7.84716 -11.0401 -3.48139 14
518 1 -7.41912 -3.91605 -2.37948 23
519 1 -6.91117 2.72449 -15.8719 16
520 1 -11.7381 15.621 12.0987 17
521 1 -7.76228 -4.44798 -13.2439 17
522 1 9.92801 0.738578 -6.90073 17
523 1 3.32301 17.2041 -5.73384 21
524 1 1.48368 -4.43696 1.72675 21
525 1 8.70108 4.79841 -11.8892 14
526 1 -0.382998 15.5617 12.6196 22
527 1 -10.0029 5.80615 9.68028 23
528 1 3.04492 14.4183 6.11819 22
529 1 -0.217048 7.57625 13.1322 18
530 1 -4.08624 7.4534 -17.3407 15
531 1 -4.56299 1.6465 -10.509 21
532 1 -0.82936 5.22454 10.5345 21
533 1 6.16937 14.3047 7.50862 19
534 1 2.21308 9.22956 -8.49848 21
535 1 -8.93032 14.9634 -6.55011 23
536 1 -3.10715 17.1858 -11.6507 13
537 1 6.30057 3.27771 14.3883 9
538 1 4.89541 4.10535 -10.8673 19
539 1 7.51683 -7.16999 -7.35616 12
540 1 8.17535 15.2841 9.83055 16
541 1 -16.5865 -4.66914 -0.0139939 13
542 1 -7.82915 14.4765 -13.5606 13
543 1 -3.86021 5.38013 12.8234 20
544 1 -16.872 2.51846 13.2301 13
545 1 -7.56128 18.2383 -7.73809 17
546 1 2.18943 -7.06845 -3.33923 22
547 1 1.92545 3.62929 -9.10696 21
548 1 -6.16923 21.6116 -3.26359 14
549 1 -12.6367 -0.0379925 -14.7616 8
550 1 -1.148 -7.87583 5.07556 22
551 1 -17.9017 -2.99728 2.65388 16
552 1 -0.386255 13.4302 -13.2981 20
553 1 -10.3431 6.66439 -3.8547 23
554 1 -7.78083 19.0643 12.1978 13
555 1 -15.884 0.587358 9.1857 22
556 1 0.942891 17.2941 -3.97824 21
557 1 -0.509395 -4.51905 -15.177 16
558 1 3.09859 2.5501 10.2054 21
559 1 9.6358 6.10792 -14.2723 13
560 1 -12.4918 11.9634 4.7934 22
561 1 -0.0733169 12.7411 17.1477 10
562 1 2.03008 22.7351 -2.43885 12
563 1 8.24951 4.11747 -5.8604 22
564 1 -3.61634 14.8966 10.9811 19
565 1 -3.78176 10.5258 -18.4551 12
566 1 -2.99491 -7.7898 10.3776 20
567 1 -1.42011 6.80178 -8.69788 21
568 1 9.40963 7.77585 -16.4673 11
569 1 -1.78025 19.0082 3.53208 19
570 1 8.11735 8.92175 -8.38738 21
571 1 -1.67471 6.26838 -15.8342 19
572 1 -8.49091 -6.06158 -3.95237 20
573 1 -13.8721 1.4808 -11.7142 16
574 1 4.97648 8.83306 -0.891894 21
575 1 11.5494 10.4278 -3.25202 18
576 1 6.16547 -4.58069 -6.62958 18
577 1 -2.41644 17.8654 10.662 24
578 1 1.21414 -4.35331 -1.47421 21
579 1 3.86687 14.5412 -16.6866 13
580 1 5.95245 18.3253 -0.261792 18
581 1 -15.021 8.37004 5.10248 18
582 1 1.61973 14.2963 14.6373 16
583 1 6.93732 11.6651 -3.91509 19
584 1 9.54253 0.467359 1.22008 15
585 1 6.69718 12.0498 -7.46813 20
586 1 8.38271 15.0191 12.6012 11
587 1 9.83368 11.8583 13.8996 14
588 1 -2.89815 -2.64827 10.3728 24
589 1 12.9667 13.7368 -3.25419 12
590 1 -0.986926 10.1005 14.6765 19
591 1 11.059 9.78829 -10.0286 13
592 1 6.57232 12.0647 11.9432 20
593 1 -12.4049 4.31482 -7.02853 20
594 1 13.3902 11.2784 2.63461 13
595 1 8.08095 3.26414 -2.40576 21
596 1 -15.7201 11.0911 6.7944 20
597 1 3.90578 17.0325 12.1481 13
598 1 5.58562 9.39628 13.3588 21
599 1 -1.39439 16.6738 4.76359 20
600 1 -3.76108 21.2925 10.5957 12
601 1 3.96229 11.7443 7.54429 21
602 1 -6.82052 -12.129 2.23888 15
603 1 -13.3521 11.8356 -1.6281 22
604 1 9.07079 15.2445 -8.25803 10
605 1 3.9669 1.58041 -12.5077 18
606 1 4.45465 20.108 5.72476 18
607 1 -4.80566 -4.02567 -4.43881 23
608 1 7.95766 -1.66572 -6.08494 19
609 1 -15.9466 5.6785 6.38311 20
610 1 -6.84043 9.26886 -13.6915 22
611 1 -5.25879 -9.82999 1.83356 20
612 1 -9.43716 9.6685 -8.37013 22
613 1 -17.9669 4.25891 -0.217322 14
614 1 4.8914 -0.377201 10.7277 17
615 1 11.0052 17.0312 2.40583 13
616 1 -4.06963 -5.17803 8.35448 23
617 1 -16.6042 6.62752 -6.46184 14
618 1 1.03209 8.00449 -16.9408 19
619 1 -9.88787 10.6393 16.3712 12
620 1 6.7996 12.7989 -12.2541 18
621 1 9.24586 8.63222 13.2917 14
622 1 4.9578 9.29994 -7.34816 21
623 1 8.35539 19.588 1.4675 10
624 1 1.27247 -7.80206 -6.5963 17
625 1 -15.9191 7.82884 14.1567 10
626 1 7.36218 0.729378 8.8647 16
627 1 -5.15941 18.4253 9.31185 20
628 1 0.922128 11.7935 -6.99906 22
629 1 -15.4399 14.1917 -4.54008 8
630 1 8.52812 15.8393 3.19561 20
631 1 -10.3257 -11.4916 -1.5847 11
632 1 11.7828 2.29044 -0.989241 9
633 1 1.14812 22.1143 6.22151 14
634 1 -9.56123 10.9072 9.93529 21
635 1 -15.2199 -1.72003 0.842506 21
636 1 -15.28 -1.08263 -5.4828 15
637 1 7.22667 7.17794 15.0687 12
638 1 -5.74069 -2.53715 8.76487 22
639 1 5.30094 8.70884 9.76389 22
640 1 -11.8026 18.3393 2.06906 15
641 1 7.08063 6.26298 -4.1737 24
642 1 9.68876 6.33905 0.557097 22
643 1 4.08623 6.46326 -16.0003 21
644 1 -12.9374 6.06961 8.16376 23
645 1 4.11443 7.06478 -12.4111 21
646 1 -4.39767 1.40519 -7.51869 21
647 1 8.98942 -4.56609 -8.97821 12
648 1 9.18388 13.1336 7.54857 19
649 1 2.46087 8.79278 4.25176 20
650 1 -13.5122 5.51389 15.8361 10
651 1 1.78069 14.6294 10.8231 22
652 1 2.01442 -1.0021 12.7597 14
653 1 -5.83838 13.5762 13.1932 20
654 1 -4.12514 -1.37594 -16.0621 18
655 1 -10.0665 11.142 6.60964 21
656 1 4.62844 8.78657 16.0246 16
657 1 -11.2952 -9.98917 2.60039 14
658 1 12.9424 12.1006 -0.313459 15
659 1 0.839962 -4.76485 -4.7938 21
660 1 -3.8476 14.8563 -5.17397 18
661 1 0.42418 14.1959 1.1808 25
662 1 3.64795 18.1339 2.87097 18
663 1 6.39619 0.179323 -16.561 10
664 1 -0.426806 8.74348 5.99113 22
665 1 -1.19039 16.3913 -6.14557 20
666 1 8.12253 16.2957 6.64432 18
667 1 -9.39908 -1.51316 -2.5628 22
668 1 -0.974189 3.99611 -17.4592 15
669 1 -14.8571 16.8973 -2.37073 10
670 1 4.45926 -2.41804 -15.8783 12
671 1 3.56963 14.1914 -0.88085 23
672 1 3.66259 11.724 -5.5706 22
673 1 8.65207 17.1202 -0.330602 17
674 1 -9.29902 8.94135 4.80132 23
675 1 -12.0351 9.16904 3.30294 23
676 1 -1.72892 17.2274 -1.85357 22
677 1 7.3266 10.3969 15.8684 14
678 1 3.49249 5.54215 15.5277 12
679 1 -2.95016 -7.8687 13.3613 11
680 1 -10.531 13.4383 -12.4924 15
681 1 2.82663 16.4505 8.91239 19
682 1 1.88616 -2.01785 -9.5269 22
683 1 -0.321663 8.44888 9.3988 21
684 1 -4.07712 18.1382 -6.36334 21
685 1 6.00121 14.2581 4.41551 21
686 1 10.0141 1.55869 -3.69311 14
687 1 7.33045 13.7147 15.2148 12
688 1 -17.9729 2.98632 10.0446 16
689 1 -1.81601 -9.94092 0.47473 20
690 1 -3.42228 4.27395 -9.1724 19
691 1 -15.0453 17.0148 1.29541 12
692 1 3.48585 17.7022 6.22341 20
693 1 2.4148 -2.06125 -3.01259 22
694 1 1.28069 11.7162 2.69757 24
695 1 -14.6305 3.37759 8.10606 22
696 1 -6.64269 12.1341 17.3636 10
697 1 -2.61747 13.0858 -16.4409 15
698 1 -12.2533 10.5115 -13.06 12
699 1 -4.48215 -4.59166 -1.41211 23
700 1 1.20251 15.4729 -1.6174 18
701 1 5.46615 -2.55829 4.92263 19
702 1 -5.03319 14.2163 4.83326 23
703 1 -14.3093 11.1901 13.544 12
704 1 -0.574 4.56777 -10.5845 22
705 1 0.0679999 -7.78499 11.8921 10
706 1 -1.91249 19.8092 -0.0476984 18
707 1 -5.92569 8.07222 13.0413 23
708 1 -16.416 1.49672 -7.0837 12
709 1 -9.92733 -2.40659 -14.2564 16
710 1 -10.4442 -8.50599 -3.53237 16
711 1 -4.90371 18.7264 -9.2409 10
712 1 -1.68392 1.55367 -9.43496 21
713 1 -2.33527 14.4937 2.9614 27
714 1 3.34325 -5.4222 -6.61085 22
715 1 1.11744 -9.88995 -1.37213 15
716 1 1.63995 0.739597 5.63769 22
717 1 11.4893 9.51404 -6.59373 20
718 1 -4.91305 -9.80101 -1.35911 18
719 1 -11.4441 2.34974 12.3629 21
720 1 -6.76898 -12.5038 -1.0364 12
721 1 -10.2671 1.14334 -10.8058 22
722 1 -14.7564 8.97053 8.71793 21
723 1 -9.27616 -12.8993 0.912755 13
724 1 10.7282 12.5074 -8.29903 13
725 1 -2.64757 22.6863 1.88093 13
726 1 -10.1277 6.09153 6.34383 23
727 1 -20.5297 10.6257 1.51205 9
728 1 8.59139 4.51855 3.31591 21
729 1 -16.433 5.49206 -9.7433 13
730 1 -3.05825 15.2017 -8.31954 22
731 1 5.60987 9.80739 -12.4539 18
732 1 4.23326 13.6078 13.6476 19
733 1 3.84864 11.6394 -2.37056 20
734 1 -12.9014 6.85194 -5.38996 20
735 1 -9.59737 -0.751587 -9.10469 22
736 1 -11.6335 7.05862 13.6468 19
737 1 2.25739 10.0028 -11.7486 21
738 1 6.0899 17.1712 4.80252 20
739 1 -5.87346 2.91974 9.23868 22
740 1 -4.61188 -12.1638 -3.64544 13
741 1 -6.27747 -12.0528 5.67216 14
742 1 -8.73297 -2.10656 7.16568 23
743 1 9.15127 13.3326 4.31167 22
744 1 0.553535 -4.18797 -11.3351 23
745 1 -12.9273 12.0214 1.78496 22
746 1 3.165 14.3766 3.01968 24
747 1 -8.57235 -2.47381 10.2407 21
748 1 3.55773 12.8244 -12.4298 21
749 1 -4.08713 -9.16231 -8.63937 14
750 1 -0.689876 -7.13589 -1.53927 23
751 1 4.57305 -8.69198 4.20166 11
752 1 -0.664746 9.06973 -10.5335 19
753 1 0.446784 16.4211 6.78829 23
754 1 -7.06171 6.60689 -15.6892 17
755 1 -3.11551 3.07886 10.7492 22
756 1 -0.679375 10.6546 -17.3731 16
757 1 -12.4135 3.5004 -14.2499 15
758 1 -13.4106 1.27504 1.32472 24
759 1 0.385802 19.1442 -7.00376 15
760 1 4.14294 6.1363 -2.50821 21
761 1 -4.21584 1.85602 -17.5335 14
762 1 -9.24941 -1.86257 0.877679 23
763 1 8.61002 9.65712 -11.6564 17
764 1 8.09356 -2.34566 -2.89557 19
765 1 -13.4077 14.8422 6.28249 18
766 1 1.5158 -5.94473 9.04789 18
767 1 7.14623 0.522924 -1.31779 21
768 1 4.58736 0.489556 13.706 10
769 1 1.1664 11.3304 5.8183 22
770 1 -13.9907 9.04621 11.9634 20
771 1 -9.04966 13.1669 12.0043 22
772 1 -2.99573 -7.61153 7.05908 22
773 1 4.74467 5.68579 4.29121 21
774 1 3.85553 11.8751 10.8891 19
775 1 -20.0861 1.12012 4.30737 12
776 1 4.33262 0.694882 -3.22632 22
777 1 -11.5057 15.1231 -4.64609 19
778 1 -1.63384 11.5306 4.69749 24
779 1 -4.53874 -10.6653 8.51698 10
780 1 2.16135 5.20623 12.0407 21
781 1 -4.40904 18.1015 5.61635 20
782 1 -0.494886 -8.09198 1.73578 21
783 1 -10.252 1.21177 -0.718847 22
784 1 -4.25516 10.9827 9.99058 18
785 1 -18.1339 -1.95307 -0.674299 14
786 1 -4.12909 18.3525 12.7388 15
787 1 2.68805 17.3227 0.362788 23
788 1 -13.6178 -6.63477 2.1511 18
789 1 -3.63345 -7.58775 3.63051 20
790 1 2.19181 -0.205507 8.95083 20
791 1 7.3001 -0.254795 5.85375 15
792 1 8.00387 8.71613 7.6565 20
793 1 -4.44489 11.9439 -3.62231 20
794 1 -7.82445 -3.46301 -8.96307 22
795 1 -6.84885 9.8472 -10.4418 26
796 1 -5.80007 2.59149 12.3752 21
797 1 -1.5037 21.8266 4.90275 16
798 1 6.94264 6.48098 2.17096 22
799 1 -1.97301 11.0766 -5.12624 21
800 1 -9.75099 20.1377 9.28994 13
801 1 9.77853 12.5172 11.0955 16
802 1 1.45023 1.15855 -10.8511 20
803 1 -11.6401 -5.92514 -2.66812 19
804 1 -6.18364 4.2214 -6.99222 21
805 1 7.83126 3.39317 0.71881 21
806 1 3.95227 6.45726 -9.0081 20
807 1 -3.8977 15.5942 14.1634 18
808 1 3.83403 -4.60172 -9.65316 20
809 1 5.39728 11.6796 -17.723 15
810 1 -3.32762 -1.49964 -2.65798 22
811 1 11.464 7.44996 -11.7999 11
812 1 11.1042 4.42458 -3.66665 14
813 1 -1.31323 -5.32218 13.6796 15
814 1 -10.5893 -3.52271 -7.81693 24
815 1 5.73933 21.3861 1.26546 11
816 1 -3.05143 -2.17301 3.76326 21
817 1 -20.111 10.2331 4.86216 13
818 1 8.14472 9.69572 -5.72274 21
819 1 13.4628 9.54501 5.14067 9
820 1 0.187787 1.21004 -17.2872 15
821 1 -9.3746 20.1043 3.89753 14
822 1 12.1844 12.6506 5.76777 14
823 1 8.69657 17.217 -4.93528 12
824 1 1.24261 6.41458 -13.8924 20
825 1 5.2222 3.52567 -4.20379 24
826 1 -15.0674 9.2059 -1.63369 18
827 1 8.25047 14.1266 0.592214 18
828 1 -14.9352 -6.44939 -1.60236 16
829 1 -11.943 14.1305 -8.04547 17
830 1 4.94638 5.56908 10.0981 20
831 1 -12.3397 -0.574453 -7.20489 22
832 1 -12.6858 15.0244 9.24129 20
833 1 -3.99701 9.68231 -8.88953 21
834 1 6.50788 -0.802955 -13.7341 15
835 1 -13.1691 -3.46411 -6.14312 19
836 1 10.0014 -4.4523 -2.80614 9
837 1 -17.6341 8.49436 3.74727 19
838 1 -13.3256 1.60346 -5.38549 21
839 1 6.70638 19.5884 7.04043 13
840 1 -5.87246 -7.94034 8.88148 20
841 1 2.2109 8.15194 17.7788 11
842 1 6.49669 2.82986 11.4608 18
843 1 5.18259 3.58057 2.17489 22
844 1 -15.6991 5.95753 3.24433 20
845 1 -3.02266 16.4081 7.97802 22
846 1 0.480059 15.8331 -11.6947 15
847 1 -4.93781 -4.73389 -14.3007 18
848 1 -8.10598 22.2155 6.75515 10
849 1 -15.4937 -5.78541 5.54162 11
850 1 3.26976 19.5903 -3.86407 17
851 1 -7.24235 15.5099 16.089 9
852 1 9.92772 6.91094 -5.81899 20
853 1 1.82832 -0.392388 15.7244 11
854 1 -1.77484 15.5997 -14.9927 13
855 1 5.76237 14.1167 -9.72708 17
856 1 -8.72322 2.89213 11.0089 22
857 1 12.587 8.41156 8.52098 9
858 1 -4.05176 3.83468 -15.3882 21
859 1 11.4625 14.9084 -0.216435 17
860 1 -16.2963 1.61864 -0.383835 21
861 1 -6.06935 -7.55721 12.3845 12
862 1 5.83323 18.9512 -6.05534 11
863 1 4.64187 6.1295 7.1656 22
864 1 -10.1226 -4.04208 -1.25498 23
865 1 -6.517 20.4453 4.4549 17
866 1 -17.9131 8.49758 0.444474 16
867 1 12.4053 6.84702 -8.30695 12
868 1 -2.15479 -7.04843 -11.1969 18
869 1 -13.8086 14.7631 0.220603 23
870 1 12.8301 12.0202 -5.8748 11
871 1 -8.80043 3.26944 7.73029 24
872 1 5.25108 3.19684 -16.4902 15
873 1 -11.8668 -1.53191 -12.1268 17
874 1 -3.69975 -6.94709 -3.15015 24