ITEM: TIMESTEP
1000
ITEM: NUMBER OF ATOMS
1000
ITEM: BOX BOUNDS pp pp pp
-30.0 30.0
-30.0 30.0
-30.0 30.0
ITEM: ATOMS id type x y z Coordination
1 1 -2.90767 -9.77737 -9.02996 10
2 1 7.07119 -10.2003 8.10646 11
3 1 -9.6217 7.36525 -2.41691 15
4 1 -10.3363 2.91561 -6.03247 15
5 1 -1.08907 -6.86104 9.55008 17
6 1 -8.46048 -1.08204 -12.2021 11
7 1 -4.1189 -13.7857 2.01046 13
8 1 6.42021 -3.51726 4.39005 18
9 1 0.232001 4.10774 9.91549 20
10 1 -2.57746 9.53964 -8.93443 12
11 1 2.88947 1.03477 14.2858 10
12 1 -3.55283 -1.6557 -8.22511 16
13 1 0.544153 3.05317 12.7072 15
14 1 -0.923495 -12.0148 6.61498 12
15 1 -14.0146 0.0530031 0.949769 10
16 1 -8.8762 0.0540458 -1.1571 20
17 1 -3.06725 12.0309 -3.33133 15
18 1 0.226153 1.70441 -11.1812 20
19 1 4.79677 -6.21642 -10.4532 14
20 1 -1.15435 -5.65481 12.0764 14
21 1 -11.9823 5.25153 -1.2827 11
22 1 -0.670188 13.188 -1.20257 12
23 1 1.83658 -14.5216 2.84823 11
24 1 5.46697 -7.19258 -5.4621 16
25 1 5.96987 1.80651 4.91578 19
26 1 -7.87529 7.51486 -5.6074 14
27 1 2.59435 5.26239 8.70955 17
28 1 6.92973 -1.73277 12.4441 11
29 1 -9.23515 -2.67505 1.30231 14
30 1 11.1524 1.89894 6.33392 12
31 1 8.52925 -2.9616 -3.38237 18
32 1 5.58132 -0.695057 8.72471 20
33 1 -8.11975 -4.83161 2.65371 19
34 1 -2.99435 -6.53565 -8.23396 12
35 1 -6.76133 8.33676 -0.968797 18
36 1 -3.06109 7.78693 -11.3849 11
37 1 7.78172 -0.939808 -5.48792 17
38 1 7.0075 -7.53065 3.72321 18
39 1 5.05694 -9.60475 10.5115 10
40 1 -5.61813 8.23031 7.706 18
41 1 -5.81407 -5.42743 8.4351 17
42 1 -9.87788 2.9255 4.77832 17
43 1 8.78781 -7.36224 -5.3457 14
44 1 5.96884 -0.295564 -12.8329 15
45 1 -0.884478 12.1539 1.69754 13
46 1 -9.04258 8.03484 -8.66659 8
47 1 0.869245 8.59502 2.4093 22
48 1 -5.31715 -7.83602 7.478 15
49 1 -0.425368 -5.30481 -9.79711 14
50 1 8.40402 -9.19049 -8.95489 5
51 1 -1.94025 1.88429 7.70336 20
52 1 -11.2463 -8.2849 -1.39979 10
53 1 -7.96409 -8.25723 -2.4352 18
54 1 8.97524 -9.89496 1.78862 16
55 1 -3.16206 7.27467 5.22979 20
56 1 3.5311 5.03092 -8.54967 20
57 1 8.85161 -10.7552 -1.14282 12
58 1 -7.44888 -8.52691 0.449095 16
59 1 11.656 7.56782 5.50787 8
60 1 7.79722 5.42698 -0.254576 15
61 1 -5.89816 12.4776 -4.7557 10
62 1 -0.0778203 -7.16579 -13.5019 9
63 1 -1.83422 7.55488 -5.53332 18
64 1 13.1589 -0.424687 -4.99426 13
65 1 7.19067 2.56579 -10.8368 15
66 1 9.19322 -9.46449 5.26455 10
67 1 -6.44791 3.46213 -8.88098 15
68 1 4.84375 11.163 -2.03181 13
69 1 12.3431 10.1346 -1.34251 5
70 1 -1.49007 9.04681 -3.4072 19
71 1 -2.449 -3.30011 -12.5357 16
72 1 -11.2902 -2.96911 -4.38165 15
73 1 -2.29666 8.16765 7.85402 21
74 1 -2.49345 10.9116 -5.77412 16
75 1 4.02065 -3.78955 11.5741 14
76 1 -12.5448 -5.34299 3.08053 11
77 1 -3.67487 -12.1643 4.61235 15
78 1 10.5687 9.01522 -3.70967 10
79 1 -1.42751 -10.1362 9.60122 8
80 1 -8.89352 4.41042 -0.972412 21
81 1 0.967428 7.83914 9.96521 19
82 1 -3.05049 1.16162 -11.2392 17
83 1 -6.30292 -5.3951 5.47449 22
84 1 -8.44049 -9.63507 3.05529 14
85 1 4.6961 -7.71621 -2.933 18
86 1 -1.48424 10.0595 4.4834 17
87 1 -8.62269 -0.952197 -5.54146 24
88 1 -1.16026 -10.362 3.96981 14
89 1 5.86691 3.74117 -6.61792 20
90 1 4.3477 -0.860048 12.2514 14
91 1 -6.26183 8.07722 -12.7513 6
92 1 -8.64879 -4.39811 -8.74347 16
93 1 -7.87203 10.69 -2.37594 11
94 1 6.15883 4.44532 10.8093 12
95 1 -4.4897 12.1048 -7.29693 7
96 1 1.67421 5.11812 -11.041 17
97 1 -7.65045 2.95044 7.91472 16
98 1 -7.51233 8.99698 9.76178 8
99 1 0.449291 -9.39996 -7.6999 14
100 1 6.4188 8.92147 -6.93872 18
101 1 0.507035 10.2782 -1.63993 16
102 1 -11.0396 0.768178 3.42183 14
103 1 1.33612 6.00746 12.0477 19
104 1 11.018 1.07105 -3.66337 18
105 1 2.45828 7.93666 7.26009 17
106 1 -10.7132 5.75222 5.89896 9
107 1 -10.587 -7.35764 -4.06946 14
108 1 1.52263 -2.14521 13.3372 16
109 1 2.5754 -9.82561 -3.33803 20
110 1 -0.941434 -1.47277 -10.2376 21
111 1 10.3868 -0.0412445 -7.03354 19
112 1 -13.0175 -3.81493 6.05995 9
113 1 -10.4049 -7.72487 -8.84395 6
114 1 -7.79016 -3.59382 -11.2298 13
115 1 -12.2655 0.932103 -8.35579 7
116 1 10.6663 0.732518 9.27313 12
117 1 4.37308 -2.96505 7.40332 18
118 1 1.39775 -6.75254 4.42463 17
119 1 3.82958 9.16406 1.65201 20
120 1 -5.98931 -7.37817 2.99477 18
121 1 1.40231 11.1854 1.37317 20
122 1 -4.35939 -3.93319 -9.50226 18
123 1 -8.73071 -10.4118 -7.45117 9
124 1 -2.82467 -10.9896 1.18971 18
125 1 12.2364 2.54722 2.99728 20
126 1 -5.79218 -3.51209 10.7888 16
127 1 -3.99429 -13.0487 -1.32282 18
128 1 -1.06803 -13.6834 0.425864 15
129 1 1.2239 -12.2216 -1.55941 17
130 1 -10.1543 4.88 -8.53899 10
131 1 10.4345 4.74046 5.61605 15
132 1 -6.34966 1.68255 -11.7901 15
133 1 -0.0954919 8.07666 -11.0954 12
134 1 -4.92805 -2.58038 7.53631 22
135 1 3.43372 12.2205 7.06393 11
136 1 11.6031 -0.837247 3.78927 14
137 1 -8.6264 -0.270707 5.65177 20
138 1 -4.40444 -6.6603 10.7726 12
139 1 -6.18845 9.3068 4.4786 16
140 1 2.47238 -5.8548 -12.2095 14
141 1 3.27662 -10.6158 0.838983 16
142 1 8.97768 -2.32987 -8.79593 18
143 1 -10.4803 -2.71807 4.10931 18
144 1 7.20774 -9.33956 -3.82811 17
145 1 -5.39075 6.22549 4.91368 19
146 1 -7.25276 4.20265 4.82657 21
147 1 3.9923 -9.94988 7.06613 16
148 1 -2.0762 4.88318 7.59834 17
149 1 -7.55417 -3.13806 -5.34946 20
150 1 -4.08089 11.3297 2.8201 18
151 1 -6.92873 1.68131 -6.11855 19
152 1 -12.5078 5.70731 3.36093 7
153 1 -6.81314 -2.50162 -8.04042 18
154 1 -4.98983 8.9508 1.40861 20
155 1 7.84356 -2.5581 7.53883 22
156 1 5.52265 -7.27887 8.8906 17
157 1 -2.48852 -4.09487 9.91353 23
158 1 2.6285 -11.7061 -6.41345 12
159 1 -5.01842 -2.46235 -12.1974 14
160 1 -11.3361 -0.933123 -0.628555 14
161 1 -3.6713 -9.38246 -1.43242 18
162 1 13.1149 2.83311 -2.08671 17
163 1 -6.8134 4.32634 -12.6984 10
164 1 -8.54014 8.6047 6.27217 10
165 1 -8.38928 9.41581 1.59848 15
166 1 -5.84497 5.16589 8.28321 18
167 1 13.1153 -3.71611 -4.74797 8
168 1 12.6987 1.57548 -7.08677 10
169 1 0.980405 -7.99089 -5.22219 16
170 1 1.79685 9.64888 5.25585 18
171 1 -8.65345 2.57057 -3.66795 24
172 1 5.25262 -10.8753 -1.58881 19
173 1 10.2537 -0.888469 6.58108 16
174 1 -9.57059 -4.75878 -5.07183 21
175 1 -4.93296 -9.80864 2.18664 17
176 1 -3.08355 10.021 -0.78951 22
177 1 -10.7421 5.41026 -4.73192 16
178 1 -2.58708 -9.33709 -6.2815 18
179 1 4.39467 -6.83544 4.89962 20
180 1 -6.12406 -13.5789 -2.94104 12
181 1 -7.773 4.46393 -6.35295 18
182 1 -1.09843 -13.6897 3.84337 15
183 1 -3.21989 -0.648383 9.43152 22
184 1 -6.96639 1.79692 4.56925 22
185 1 2.17996 -6.43291 -8.26425 18
186 1 -11.2177 -0.351281 6.4546 14
187 1 -0.0728643 -5.70845 7.33227 16
188 1 -3.33446 -3.74712 12.6067 17
189 1 3.27159 -9.06718 -6.23382 18
190 1 6.17165 -11.0107 1.22177 16
191 1 1.40085 11.0263 -5.91209 14
192 1 -7.98757 -8.12823 6.1302 14
193 1 8.75785 -5.54771 8.53035 12
194 1 2.31878 -0.040968 -8.50084 21
195 1 10.6257 -6.04679 5.75545 8
196 1 -3.07203 2.48039 13.4994 14
197 1 2.3961 13.099 -1.2712 12
198 1 6.14501 -5.41018 6.57452 17
199 1 -3.43507 -14.23 -4.90301 10
200 1 5.45287 7.44456 8.84459 15
201 1 -4.90132 1.99802 9.67681 20
202 1 -5.09017 -8.20732 -4.21705 20
203 1 -8.27599 -8.06254 -5.52043 17
204 1 -4.2164 9.80483 10.1626 11
205 1 -5.77203 -12.0112 -6.25475 14
206 1 -7.07506 -3.00211 4.75324 20
207 1 8.0737 0.977844 7.24799 23
208 1 11.2019 4.36569 -0.0867052 21
209 1 1.3992 2.85955 -8.69935 22
210 1 0.344684 6.1988 -8.25852 21
211 1 -1.90261 7.64931 10.8827 13
212 1 -13.411 -2.63396 -2.19015 10
213 1 4.83034 10.7703 -5.81716 16
214 1 -5.63298 -8.91745 -7.45628 17
215 1 0.691568 -2.16959 -12.0585 16
216 1 9.24787 7.01512 -1.7024 17
217 1 2.91659 7.61386 -0.565388 22
218 1 4.80705 2.29729 -9.06636 19
219 1 2.12941 -10.0886 4.58163 18
220 1 -4.55324 2.47912 -14.6835 10
221 1 13.4789 6.41098 -0.675451 14
222 1 8.73232 -6.85116 0.57639 17
223 1 -0.757026 -0.00146603 -13.5546 14
224 1 0.855926 -11.522 2.14229 17
225 1 1.32048 -8.38418 10.9729 14
226 1 -8.60895 0.758153 -8.60563 16
227 1 0.920178 3.12533 -14.01 10
228 1 -13.7713 -3.06076 1.39484 11
229 1 11.2108 -2.58611 -2.60849 18
230 1 -5.11998 6.75289 -5.84679 16
231 1 4.84825 -8.69251 -8.7702 12
232 1 3.95238 1.80276 -11.7177 15
233 1 10.4851 -2.69146 -5.58916 21
234 1 -8.09644 -2.20578 8.26933 15
235 1 -3.78945 13.1817 0.405404 10
236 1 0.441181 10.4787 -9.33391 11
237 1 15.5575 4.60133 -1.31549 7
238 1 -0.428726 -9.88972 -1.38216 15
239 1 3.51101 -3.44858 -9.18575 19
240 1 10.0044 -3.52498 -0.0338485 17
241 1 3.98261 -9.06881 2.87835 19
242 1 -10.8491 2.70067 8.0296 11
243 1 -6.05881 -5.72079 -7.32334 16
244 1 -0.932033 -1.88623 10.7108 20
245 1 6.47808 7.82796 -9.96448 11
246 1 -6.82951 9.94967 -6.01862 13
247 1 -0.0135161 13.6645 -3.8564 9
248 1 -1.66354 1.56573 11.2584 19
249 1 2.69272 -14.2976 -3.67822 7
250 1 5.75491 -0.654111 -8.96007 22
251 1 -13.9128 -6.34068 -2.94767 8
252 1 -11.523 -7.2434 6.95696 8
253 1 5.90651 7.82693 -3.13662 22
254 1 6.02215 -10.5978 -7.14092 11
255 1 4.31241 -7.30651 11.7202 9
256 1 8.04643 1.97749 -4.77543 18
257 1 -11.0718 7.13375 0.598981 13
258 1 10.1276 -5.39282 -4.51791 16
259 1 1.49532 8.7093 12.6523 11
260 1 -1.12922 1.09783 -8.51677 18
261 1 8.01112 5.24525 -9.18874 14
262 1 -0.241393 -4.40854 -14.0326 9
263 1 -4.07188 -11.1613 -4.0694 22
264 1 13.8544 2.0121 0.39045 15
265 1 8.96763 -5.60376 -8.14517 10
266 1 5.07896 -11.7803 -4.75162 14
267 1 6.67338 9.58721 3.27624 14
268 1 -8.10011 3.32425 1.89052 20
269 1 12.4853 6.51004 -3.80293 11
270 1 2.34637 -1.30544 10.0698 16
271 1 9.12742 3.41742 9.47007 15
272 1 -10.3243 -1.75052 -10.0885 13
273 1 14.3864 4.98901 1.88874 10
274 1 6.30351 -5.21063 2.56847 18
275 1 1.12878 11.3075 9.97454 9
276 1 5.80055 3.28496 8.21135 18
277 1 -4.62817 8.94252 -3.71039 24
278 1 -2.19284 -12.5035 -6.79396 11
279 1 -5.3206 6.10498 -10.1219 13
280 1 -6.08077 -0.625598 -14.1682 11
281 1 -10.4988 -0.114544 -3.69427 18
282 1 10.6388 -7.07027 3.23178 13
283 1 0.513456 -9.42367 7.75539 17
284 1 9.11041 4.37643 -6.32742 18
285 1 12.3916 -3.05327 1.29836 13
286 1 11.6826 9.40333 2.44116 7
287 1 9.61133 -4.25221 3.15476 16
288 1 -3.19742 4.05995 9.84656 22
289 1 -10.4599 -6.63106 1.30373 12
290 1 -11.4931 -4.66494 -8.11875 11
291 1 8.03488 0.136555 10.788 16
292 1 -6.92127 11.6593 1.09232 12
293 1 8.67766 3.88721 2.6299 17
294 1 7.28321 3.83081 5.82907 15
295 1 -10.3197 -0.390025 9.07188 10
296 1 8.67916 -0.130972 -10.4104 15
297 1 7.7358 5.91084 7.80667 15
298 1 4.60856 4.60406 4.88442 20
299 1 -0.782772 -3.38689 13.6749 11
300 1 -1.92571 4.82077 12.1843 14
301 1 -5.83233 2.93284 12.1484 9
302 1 -3.1454 6.37205 -8.38989 15
303 1 6.53329 8.81686 -0.0433636 17
304 1 3.02991 13.3833 -4.34506 10
305 1 -5.72185 -10.5411 -0.942391 19
306 1 -6.93299 5.79916 1.83995 20
307 1 8.19374 7.41828 -5.16205 19
308 1 3.40908 2.00828 9.95782 17
309 1 5.40527 9.1966 6.21578 15
310 1 0.886867 -2.76659 -8.59045 18
311 1 3.91254 11.2096 4.24518 16
312 1 -13.1047 -1.73043 4.17738 11
313 1 3.75019 -13.566 -0.00227952 12
314 1 9.41723 7.55055 -8.00594 10
315 1 4.47996 -3.24609 -12.5533 13
316 1 5.88978 -3.30733 -8.12814 16
317 1 -4.00031 9.87501 6.35196 15
318 1 2.76091 -7.08688 7.71841 16
319 1 -7.40935 -10.7956 -4.19684 16
320 1 -4.85352 3.24122 6.40031 20
321 1 9.57518 -1.02317 1.80693 19
322 1 0.46065 8.56057 -6.46949 17
323 1 9.92477 2.74354 -8.80072 15
324 1 7.43651 4.91651 -3.75617 19
325 1 2.70613 7.78843 -10.0919 17
326 1 -2.01248 -0.865567 13.1989 16
327 1 -3.19081 -5.48989 7.15271 23
328 1 1.60018 -8.288 -10.651 13
329 1 -3.50532 7.7855 -1.45602 20
330 1 6.31707 7.0086 3.35648 15
331 1 -8.70494 -5.41579 7.24682 13
332 1 5.21084 5.0299 -11.5122 12
333 1 -0.236361 0.535861 14.4596 12
334 1 -11.6292 -5.21258 -2.0189 17
335 1 8.81799 -0.740677 -1.37414 16
336 1 -5.3115 -6.57472 -0.783297 22
337 1 10.9948 -8.81461 0.119388 12
338 1 6.51534 -10.1805 4.83744 16
339 1 -0.399991 9.71056 7.52118 15
340 1 -8.33641 3.40194 10.8144 8
341 1 9.63437 1.66044 3.6513 21
342 1 7.39437 -6.48739 -2.69291 20
343 1 3.33681 7.82468 4.17808 22
344 1 1.14171 13.3379 4.45202 8
345 1 2.57888 -12.922 6.2985 9
346 1 -9.54598 -2.44462 -2.12294 24
347 1 3.64231 4.03819 13.5839 12
348 1 4.82921 11.9767 0.956788 12
349 1 6.70785 -4.017 10.0611 15
350 1 10.8365 -3.56306 8.25701 8
351 1 8.71866 8.37271 7.66518 9
352 1 -0.323333 -9.97531 -11.1824 8
353 1 -3.18892 -0.453293 -14.0701 11
354 1 -4.88101 -0.610942 12.9614 13
355 1 13.6683 -0.379756 2.08386 11
356 1 3.17933 8.07087 -6.38825 23
357 1 6.65565 -3.1982 -10.8719 16
358 1 -7.18146 -13.166 0.495894 9
359 1 -6.07679 -0.374529 -9.987 18
360 1 3.64804 -1.34585 -11.094 19
361 1 -1.9828 -8.50734 -3.73064 20
362 1 1.6971 -5.57872 12.7245 12
363 1 12.0935 3.45471 -5.3555 11
364 1 -8.57809 11.628 4.27836 7
365 1 10.1175 -6.06809 -1.78263 16
366 1 -10.5573 1.6234 0.171754 16
367 1 11.7026 6.34324 2.89188 16
368 1 4.4973 6.56632 11.5823 13
369 1 -11.0247 -1.76494 -7.14285 16
370 1 -2.56842 3.70818 -9.13622 14
371 1 10.4902 -8.76792 -3.22402 12
372 1 -7.58769 -5.42387 -3.12229 20
373 1 -5.66951 -10.081 5.05036 16
374 1 8.06892 -0.917299 4.40564 20
375 1 -10.7233 4.21926 1.47484 17
376 1 4.11796 9.85404 -8.95868 12
377 1 8.045 -8.08723 10.3349 9
378 1 -6.84949 -0.558384 10.3228 13
379 1 -2.70243 -5.94741 -11.7016 11
380 1 -6.93417 -12.8441 3.72468 10
381 1 5.71921 1.80806 12.4687 11
382 1 -1.38794 -12.4435 -2.90857 15
383 1 12.6258 -2.13779 -7.97829 9
384 1 -9.01175 6.33074 3.47658 21
385 1 -5.70955 0.491153 7.45483 20
386 1 -0.210823 -10.7855 -4.70591 18
387 1 8.99869 7.48594 1.28231 14
388 1 10.9597 1.5116 0.843579 19
389 1 -1.89755 -8.55349 6.93562 15
390 1 7.40341 10.6422 -4.61378 10
391 1 7.79178 1.1385 -7.80218 20
392 1 -11.4742 2.6747 -2.35402 15
393 1 5.07391 6.40519 -5.34516 16
394 1 3.10871 9.73996 10.0468 12
395 1 2.68786 8.73519 -3.34284 18
396 1 -4.45101 6.66477 10.6195 15
397 1 10.3731 4.69716 -3.30471 18
398 1 3.93748 -12.3106 4.0148 15
399 1 10.4723 5.8979 9.36417 9
400 1 7.72871 -4.31312 -6.27988 16
401 1 -8.44078 5.76142 -11.0237 10
402 1 -0.36655 7.17985 5.11673 23
403 1 -2.1247 8.61563 1.8571 21
404 1 -3.39728 -7.54509 4.76694 18
405 1 6.26205 -8.187 0.233807 18
406 1 2.04091 -0.020542 -13.4527 13
407 1 -8.89965 -5.8199 -0.476594 19
408 1 -7.16569 5.61199 -3.11192 21
409 1 9.87488 -2.83057 10.4915 10
410 1 -9.82809 -6.91182 4.16171 16
411 1 12.3597 -0.70846 -1.00861 19
412 1 -1.29059 5.40896 -12.9248 8
413 2 -11.2714 -0.863748 -8.57081 11
414 2 -7.16993 11.2417 -4.23386 9
415 2 0.516512 -0.186393 -12.1184 20
416 2 -2.67878 5.62603 10.8421 16
417 2 -10.056 -5.80193 -8.50266 9
418 2 4.324 2.0932 13.7773 11
419 2 -11.3746 -1.13949 3.61257 16
420 2 7.93022 3.14402 4.16849 18
421 2 -9.35311 -9.27579 -8.58506 8
422 2 -8.7483 2.32011 -0.370522 20
423 2 -1.66982 -8.72239 4.78497 16
424 2 5.31147 2.57798 10.4105 17
425 2 7.53103 -1.52754 -9.9274 15
426 2 -8.27823 8.88182 -2.11249 15
427 2 10.967 3.07667 4.61369 16
428 2 -12.4663 -5.6668 6.57749 9
429 2 -2.80964 -14.2331 3.3737 11
430 2 9.96112 -4.6925 6.9335 15
431 2 -9.83438 8.35697 1.39196 14
432 2 -6.04943 8.38476 -4.96798 16
433 2 -1.97695 6.47509 6.70994 18
434 2 5.0664 -6.04903 -3.82997 16
435 2 -2.08127 2.15498 -9.93605 14
436 2 1.69431 -4.63868 -8.4003 14
437 2 10.3733 -1.91321 -7.48869 15
438 2 11.5408 10.2157 -2.939 6
439 2 -2.18151 8.27836 3.62451 21
440 2 -6.70346 -10.5833 -7.47125 13
441 2 3.2102 -8.87739 10.87 12
442 2 8.1289 -3.29523 3.69818 17
443 2 -10.6797 1.79972 -4.21999 15
444 2 7.30192 8.36475 1.92274 14
445 2 6.20779 -10.6227 3.14142 17
446 2 0.840419 8.80386 6.76765 18
447 2 4.58963 7.51538 2.64661 18
448 2 3.56806 6.23136 -7.09825 21
449 2 -6.60853 2.34918 10.2314 16
450 2 6.62213 1.35778 -9.36376 18
451 2 -8.43819 -0.56585 -9.8545 20
452 2 -12.6861 -1.97377 6.39085 10
453 2 -9.02103 -8.31201 1.61131 17
454 2 1.50694 -6.13342 6.32822 16
455 2 -2.04873 -4.92705 13.7446 12
456 2 -0.843742 8.25259 9.31568 18
457 2 -11.1226 2.19388 2.25087 16
458 2 4.67264 -7.98357 -6.8968 15
459 2 13.0388 -2.14651 -3.74858 11
460 2 -3.07739 -13.6064 0.282892 15
461 2 1.97882 6.1176 7.26022 16
462 2 7.27048 -7.29947 -4.39686 18
463 2 5.96366 -2.59971 8.9443 19
464 2 -4.8364 -8.58277 4.0658 19
465 2 13.4757 -0.241205 0.282182 14
466 2 -1.05226 -10.9236 1.62031 15
467 2 9.71786 -5.36692 0.0823403 18
468 2 -4.19684 -5.20342 -7.69114 17
469 2 -7.09867 -6.09829 3.76598 22
470 2 -4.23673 -9.90149 0.262014 17
471 2 -4.51391 -7.99275 -2.47126 20
472 2 -5.26218 8.52261 -1.92459 20
473 2 7.61438 6.8397 -3.23851 19
474 2 3.53059 5.73694 -10.407 15
475 2 -7.60111 3.58384 12.4674 6
476 2 -11.2856 3.61901 -0.587383 15
477 2 -3.99522 3.20856 11.328 16
478 2 -10.8289 5.31078 4.07991 14
479 2 12.5145 1.34772 -5.11421 14
480 2 10.656 -7.99648 -1.44189 13
481 2 10.0558 2.70021 2.00991 17
482 2 0.25624 11.6466 -0.110671 14
483 2 -5.23873 7.85106 5.8012 20
484 2 13.1005 8.38554 -0.940649 11
485 2 1.47516 8.59847 -1.3894 20
486 2 0.791883 10.3186 -7.46406 15
487 2 -0.537144 4.22838 8.0864 16
488 2 0.543014 -1.52878 9.63523 18
489 2 4.87926 -2.3974 -9.84642 20
490 2 -1.33748 3.63278 13.401 13
491 2 5.06338 3.22799 -10.8064 16
492 2 -7.00081 -6.45053 6.83436 17
493 2 1.00489 -10.2625 -2.46825 18
494 2 4.98154 -11.9035 0.11027 14
495 2 10.5792 6.85794 -3.15991 16
496 2 -5.63918 3.09965 -13.2956 10
497 2 -4.41472 10.4306 4.46469 14
498 2 -7.24655 -6.40181 -1.71124 18
499 2 4.68305 8.14005 -9.82452 13
500 2 0.967424 13.6414 -2.25993 11
501 2 -0.342086 2.80338 10.984 20
502 2 2.29565 -12.8789 -4.98294 11
503 2 4.85115 4.62424 12.3117 11
504 2 8.65018 -5.18908 -3.08734 21
505 2 5.66032 4.58055 6.60573 16
506 2 -4.96606 7.39175 -11.7411 11
507 2 5.98408 -7.84076 10.9521 12
508 2 -1.31456 -10.4324 7.51549 13
509 2 7.96594 -10.0587 6.53584 10
510 2 -6.00327 11.4407 -6.58815 9
511 2 -6.2342 -12.2508 -4.40635 15
512 2 -2.19028 -0.708527 -9.06666 17
513 2 -1.9818 -10.6337 -10.7257 6
514 2 10.3321 8.29591 6.68995 10
515 2 -12.0984 -7.01148 -2.96799 9
516 2 -11.7838 5.97796 1.66036 11
517 2 8.91355 -3.59738 8.91234 14
518 2 -4.18726 -13.686 -3.19191 12
519 2 2.30662 -1.76316 -9.3501 20
520 2 -3.62749 -2.07814 -13.3965 12
521 2 -7.03637 -3.84888 -9.63519 18
522 2 -3.59618 -1.99623 13.1324 16
523 2 -4.83204 -2.49368 -6.89576 21
524 2 4.70391 -2.94815 -6.59017 20
525 2 8.9012 0.424319 -5.96024 20
526 2 -0.187168 -3.19177 -10.1763 18
527 2 -0.747521 -8.98339 -5.34881 16
528 2 0.865754 6.77557 -10.0573 16
529 2 3.26868 11.1871 8.62884 13
530 2 12.0145 0.578868 2.56519 18
531 2 -12.3169 -3.75108 4.17541 12
532 2 -1.9132 -12.2243 4.9853 13
533 2 0.785415 0.933467 -9.16645 18
534 2 -5.83109 -6.70861 1.07204 20
535 2 -6.9182 5.82425 3.8192 19
536 2 -6.43339 -3.57235 8.6003 19
537 2 0.890104 -12.6978 6.87395 10
538 2 -13.6666 -1.19075 2.35368 11
539 2 -7.54124 -9.84718 -1.21714 16
540 2 -8.04924 -3.93537 6.05948 19
541 2 9.23922 -7.08982 9.35979 9
542 2 4.29496 9.31234 -7.20463 19
543 2 5.41589 10.4907 -0.236247 14
544 2 11.8147 5.25193 -4.82153 12
545 2 -1.36744 12.6995 -3.04891 14
546 2 -10.4601 -3.50489 -9.16521 13
547 2 -10.7304 0.795451 -1.93962 14
548 2 -2.01737 -12.7968 -4.80405 13
549 2 4.66103 -6.55519 7.16408 14
550 2 10.0981 -7.8161 4.93688 10
551 2 -8.17803 8.73613 -7.07408 10
552 2 5.53303 -2.73886 11.8545 13
553 2 3.49041 7.88941 9.30786 18
554 2 -0.330811 -1.46943 13.9339 14
555 2 -8.29769 3.16541 3.74999 22
556 2 8.88744 9.38646 -4.64906 13
557 2 -6.76284 -7.52925 -6.5799 14
558 2 -6.83961 -1.37833 -6.49223 20
559 2 -9.44374 -1.10914 7.16383 13
560 2 5.852 10.9943 -3.67785 14
561 2 12.0289 2.56147 -0.433185 19
562 2 10.1089 -7.91514 1.56835 15
563 2 -13.5533 -1.85793 -0.562768 9
564 2 -2.27992 10.9891 2.15238 18
565 2 -3.35109 6.55976 -6.444 19
566 2 3.49447 0.846132 -9.7652 19
567 2 -7.06602 4.76598 -1.38472 21
568 2 -9.73128 -6.78845 6.10676 11
569 2 5.84074 -9.02242 -2.14388 20
570 2 1.84649 -11.3863 0.0838034 17
571 2 -6.31445 8.76435 2.68106 19
572 2 -8.6219 2.43709 -5.69527 18
573 2 3.3251 -11.0463 2.7197 19
574 2 5.68988 6.16884 10.2434 14
575 2 0.448086 1.27135 -14.1813 8
576 2 -0.857363 9.19197 -9.97337 14
577 2 8.43985 3.39887 -9.58585 16
578 2 -1.5254 8.89211 -1.40933 19
579 2 -5.86694 -1.60608 11.5513 12
580 2 -2.97141 -2.33829 8.78207 20
581 2 -11.4555 -2.15625 -2.53892 16
582 2 1.77366 4.87578 -8.11897 16
583 2 3.82847 -0.020131 9.39552 17
584 2 4.12888 0.0884482 -12.7723 13
585 2 8.59707 5.40065 1.41816 15
586 2 6.75489 8.12342 7.57514 13
587 2 -9.3857 -4.77807 1.15363 18
588 2 -4.04523 12.4726 -5.26849 11
589 2 1.50667 5.67823 10.1652 17
590 2 2.74235 -14.0446 1.4179 13
591 2 -5.65661 -12.1415 5.17099 12
592 2 7.35547 -0.0964831 8.8226 21
593 2 9.04781 5.72617 -7.60637 14
594 2 2.99048 11.9008 0.381804 13
595 2 3.5902 -11.2494 5.7998 15
596 2 6.44439 -10.4199 -5.21304 16
597 2 0.0251777 4.38499 -13.1048 9
598 2 1.82925 4.4499 12.9552 16
599 2 1.97227 3.28251 9.25093 17
600 2 5.82163 -5.88046 4.16749 17
601 2 -2.15289 0.326011 -12.5346 16
602 2 13.075 -2.37698 -6.15056 10
603 2 -6.43238 9.96929 0.349332 16
604 2 3.50961 -7.61694 -9.97296 14
605 2 1.05748 1.53936 13.9655 14
606 2 -10.0157 4.80857 -6.51712 16
607 2 10.3542 -7.11978 -4.0953 12
608 2 2.58996 10.0238 2.83407 17
609 2 12.387 5.4792 1.20866 17
610 2 13.6598 3.17423 1.97764 15
611 2 -8.49979 -0.22134 -3.69638 20
612 2 -5.42575 5.73767 -4.1124 21
613 2 -6.41544 3.22144 -7.02061 15
614 2 13.579 5.38774 -2.0974 14
615 2 -9.29847 7.03683 -4.27646 13
616 2 -3.5494 -7.52136 6.82393 20
617 2 2.93035 -2.32668 11.474 14
618 2 1.5273 -10.3773 -5.80005 15
619 2 1.20617 -5.46682 -13.6763 10
620 2 3.63812 12.6128 -2.61849 12
621 2 5.03117 10.7669 2.42922 14
622 2 -7.68875 -4.33955 -7.09781 18
623 2 -6.91074 -8.83717 -3.8876 20
624 2 9.79347 -0.041088 0.231019 17
625 2 -6.61099 7.12474 0.677696 20
626 2 2.69437 -13.8762 4.56492 12
627 2 7.35067 -6.88475 2.00723 16
628 2 -4.21164 -4.19068 6.40125 23
629 2 -6.71689 -3.97319 -4.00714 21
630 2 3.00365 7.29258 12.2201 13
631 2 1.80686 9.10315 -5.08254 18
632 2 -9.3207 6.81391 5.66192 10
633 2 -5.87912 -7.18678 9.54601 12
634 2 -1.8416 13.2008 0.218477 14
635 2 -0.527977 -12.9173 -1.28383 15
636 2 -1.52595 -5.12908 8.45273 18
637 2 9.1291 1.55175 10.1897 12
638 2 -8.86557 5.0033 1.50029 20
639 2 -2.49214 1.51107 9.43528 22
640 2 -3.8288 -8.49673 -7.9687 13
641 2 9.24049 -2.40074 -1.60278 18
642 2 9.25023 -5.71983 -6.28513 12
643 2 -3.05975 10.1827 -3.97152 17
644 2 -4.73945 1.46494 13.2846 13
645 2 -6.60764 2.10981 -4.12514 21
646 2 11.3559 -3.82192 -4.21698 17
647 2 5.07083 8.03227 -1.22304 19
648 2 -3.93605 4.32622 8.02141 19
649 2 -1.51101 7.07069 -12.1329 9
650 2 -10.5727 -1.08693 -5.48864 16
651 2 -5.11088 -2.01693 -9.53873 17
652 2 -7.21338 0.257143 -12.8735 13
653 2 5.02195 -4.62757 -9.29424 15
654 2 -1.69137 -8.4935 -1.57311 18
655 2 -0.617013 -7.64362 8.11127 17
656 2 4.88142 -0.634792 6.62875 22
657 2 7.85838 -3.98655 -8.20828 15
658 2 0.0234145 -13.7228 2.13431 13
659 2 11.9945 8.51307 4.00461 6
660 2 -3.96782 9.08563 8.24694 17
661 2 -10.7855 -6.47504 -0.670042 15
662 2 9.58269 5.0315 -1.09089 16
663 2 2.55679 -8.28871 4.034 17
664 2 -8.21142 11.3762 2.42607 9
665 2 -10.1144 0.944775 5.01988 15
666 2 2.2046 9.68124 -9.73737 11
667 2 5.96162 -2.14125 -12.3094 12
668 2 -5.87458 2.29647 7.66383 20
669 2 -1.83937 0.977208 13.321 16
670 2 11.5903 0.158809 5.46534 14
671 2 7.40117 0.58344 -11.8007 13
672 2 -9.1955 -2.94645 -4.29707 19
673 2 12.492 -0.087562 -7.82246 11
674 2 0.459905 -8.4613 -12.1197 10
675 2 -10.5492 3.86659 6.46732 12
676 2 -8.64894 -2.82881 3.40867 15
677 2 4.18619 -11.2705 -3.18766 19
678 2 -2.21216 -10.8524 -7.63011 14
679 2 -1.53815 -10.4791 -3.17911 17
680 2 11.0718 -0.262356 -2.46409 18
681 2 -3.3569 7.89653 -9.42742 12
682 2 4.80506 11.1256 5.91759 12
683 2 -4.12286 -12.9357 -6.25586 12
684 2 -3.51972 8.37127 11.1474 10
685 2 -9.27926 6.31543 -9.38538 9
686 2 0.608789 -9.55743 -9.55676 12
687 2 -7.73033 -11.3334 3.00622 12
688 2 -10.4646 6.50166 -1.01203 15
689 2 7.73007 7.97659 -8.30874 12
690 2 -1.62565 5.32096 -8.44777 16
691 2 4.1738 2.71982 -7.3639 20
692 2 -3.75094 -4.11655 -11.2258 17
693 2 1.51712 -7.7339 -7.22941 15
694 2 -11.3951 -3.59603 -6.54064 13
695 2 9.0465 6.84662 8.71014 12
696 2 -4.96512 0.509599 -11.3664 19
697 2 -11.3657 -6.68439 3.05249 13
698 2 9.87551 0.789015 7.54289 15
699 2 7.29654 4.05131 9.01773 16
700 2 11.2533 2.95435 -7.45512 15
701 2 -0.231914 6.76816 -6.41693 20
702 2 -1.29381 9.363 -5.46358 15
703 2 10.1805 -2.92028 1.73741 15
704 2 6.5738 10.8196 -6.42608 11
705 2 2.98596 -0.885949 13.6227 13
706 2 -2.16863 -5.84715 -9.73011 11
707 2 6.38686 -0.0160506 12.3689 13
708 2 0.276459 8.88049 4.30273 20
709 2 10.09 -10.6179 0.254964 8
710 2 8.64224 -7.31553 -8.76359 6
711 2 -2.14339 9.45897 6.17327 16
712 2 6.94551 -10.0948 10.1277 9
713 2 -2.4612 7.32959 -3.464 21
714 2 0.0171371 11.0268 8.70635 11
715 2 -6.81246 6.04702 -6.58063 16
716 2 1.16336 12.5382 -4.73682 11
717 2 -8.47371 -6.3457 -4.60164 17
718 2 2.68263 -2.42119 -12.2497 17
719 2 -6.57568 4.7518 6.50821 17
720 2 11.8529 -2.64471 -0.567406 16
721 2 -3.19606 10.7124 -7.69318 10
722 2 -8.685 -0.843534 9.77061 10
723 2 -8.46926 -10.4151 -5.51444 13
724 2 1.48963 9.87086 11.1188 11
725 2 -1.18889 -5.79444 -12.7848 13
726 2 -7.46961 6.35514 -12.7007 8
727 2 -4.29949 0.747007 -14.8408 11
728 2 -8.03453 9.86619 5.01834 12
729 2 -6.0728 9.91138 10.3969 8
730 2 3.23716 11.7462 -5.91399 13
731 2 -5.95077 -12.9685 -1.01557 12
732 2 9.69858 0.765351 -8.81874 16
733 2 6.39745 -0.537415 -6.97066 22
734 2 -6.7214 -9.18985 2.06437 15
735 2 -8.70439 4.48897 -2.97918 22
736 2 -9.08605 -8.72597 4.54388 14
737 2 0.916856 3.36682 -10.5002 21
738 2 2.3432 -8.91041 7.41125 17
739 2 10.8508 4.04325 9.95269 6
740 2 5.68671 -3.43139 6.14209 18
741 2 -5.20932 -0.125491 9.20162 18
742 2 6.65374 6.04505 -10.3123 12
743 2 -0.155648 7.65425 11.796 12
744 2 -9.79367 -8.16044 -2.51125 17
745 2 -6.20517 -8.89111 6.22041 14
746 2 -7.80308 1.52811 6.18051 21
747 2 -6.67907 4.61787 -10.3587 13
748 2 -11.346 -5.07595 -4.42549 16
749 2 -5.33005 12.5378 1.77808 10
750 2 6.94198 -5.97074 8.29787 14
751 2 11.2509 5.89811 4.59412 11
752 2 -5.94368 -13.7567 1.88232 11
753 2 -14.012 -4.88718 1.58659 7
754 2 -12.1219 0.447504 0.4754 15
755 2 -2.19623 -0.482341 11.2474 21
756 2 0.96798 -3.94986 13.1519 13
757 2 0.538844 -10.9867 4.09114 19
758 2 9.48979 -0.135001 3.53909 19
759 2 3.82883 -8.59299 -4.31607 21
760 2 -3.43232 8.7287 0.538015 18
761 2 -6.76179 -2.0979 -12.1805 14
762 2 -5.65689 -1.0143 6.41105 22
763 2 2.94644 -2.45473 8.37743 14
764 2 -2.4943 -6.41143 10.849 14
765 2 3.60738 -5.52056 12.3581 10
766 2 7.67993 2.91721 -6.8161 19
767 2 8.71829 4.8647 6.57862 18
768 2 4.22348 -5.06957 -12.0045 13
769 2 8.31033 -1.19711 6.19544 20
770 2 14.7937 2.84757 -0.876781 11
771 2 8.4023 -2.96652 -5.29883 20
772 2 2.29468 12.1917 5.35966 10
773 2 13.1447 -2.09503 2.61884 10
774 2 -3.99563 -5.07181 8.99124 20
775 2 0.541 -6.63204 11.5487 13
776 2 -4.72208 -4.93663 11.4697 14
777 2 2.82679 -13.4808 -1.82178 13
778 2 7.67039 -10.0519 0.554742 17
779 2 10.8935 -5.31078 3.91717 9
780 2 0.256737 -9.34643 9.73199 11
781 2 -7.41025 8.70311 7.86069 12
782 2 7.01792 5.50174 -5.61424 19
783 2 0.976135 -6.31827 -10.6004 18
784 2 6.63312 -9.57769 -8.70829 8
785 2 2.40293 2.43545 -12.8686 12
786 2 -7.0614 1.72542 -9.27768 12
787 2 5.88044 8.36727 4.54318 14
788 2 -8.53564 -4.0859 -1.55493 17
789 2 15.1976 5.62688 0.296757 9
790 2 -9.48396 -1.50714 -0.327988 17
791 2 5.3575 -8.54995 4.38073 20
792 2 3.89885 7.49955 -3.8342 17
793 2 11.5257 2.95177 -3.40249 14
794 2 6.22467 8.0615 -5.08482 19
795 2 5.41591 -9.17136 8.2397 16
796 2 -13.4453 -4.58001 -2.42149 9
797 2 10.6388 -1.74696 8.61991 15
798 2 8.05039 -9.19383 3.77165 13
799 2 10.7816 7.87954 1.76721 14
800 2 -9.105 3.42022 9.06492 12
801 2 -11.4139 4.60849 -3.12742 13
802 2 7.83217 -1.33909 -3.55987 18
803 2 4.58807 -9.12605 0.832456 16
804 2 -4.07358 -9.58676 -5.11121 22
805 2 2.37017 7.73628 1.36887 19
806 2 8.75197 -9.73355 -2.69733 15
807 2 3.4227 8.57164 5.87171 19
808 2 -3.95676 -11.4336 2.91469 18
809 2 -1.43066 -3.68149 11.5722 21
810 2 -5.62529 6.86405 8.95187 15
811 2 -0.65165 -2.94255 -13.1267 16
812 2 -10.3126 1.36412 -7.86098 15
813 2 -11.1489 1.02003 8.17661 11
814 2 8.62515 -1.87909 11.6769 11
815 2 -9.54036 -2.36517 -11.7876 10
816 2 6.65263 2.10079 6.82359 19
817 2 8.93968 3.95082 -4.44925 19
818 2 -4.05656 4.89009 -9.29421 14
819 2 8.02634 7.70139 -0.497597 13
820 2 -4.36813 -11.0881 -2.21894 22
821 2 -3.73452 11.786 -1.04899 18
822 2 0.84756 12.2618 2.85478 14
823 2 7.20763 -6.70697 -0.657578 19
824 2 4.27227 -10.6421 -6.61983 14
825 1 -5.16 -0.934401 -6.02641 22
826 1 -3.52 -3.77954 -6.02642 20
827 1 -3.52 -5.67683 -3.37638 19
828 1 -5.16 -2.83171 -3.37645 22
829 1 -1.88 -0.934401 -6.02641 25
830 1 -0.24 -3.77954 -6.02642 19
831 1 -0.24 -5.67683 -3.37638 22
832 1 -1.88 -2.83171 -3.37645 26
833 2 -3.52 -5.67644 -1.36761 23
834 2 -5.16 -2.83137 -1.36755 23
835 2 -5.16 -0.93461 -4.0176 25
836 2 -3.52 -3.7797 -4.01759 21
837 2 -1.88 -6.62461 -4.0176 20
838 2 -1.88 -2.83137 -6.66755 20
839 2 -0.24 -5.67644 -1.36761 22
840 2 -1.88 -2.83137 -1.36755 26
841 2 -1.88 -0.93461 -4.0176 26
842 2 -0.24 -3.7797 -4.01759 23
843 1 -6.8 -3.77954 -0.726424 22
844 1 -5.16 -0.934401 -0.726407 24
845 1 -3.52 -3.77954 -0.726424 24
846 1 -3.52 -5.67683 1.92362 20
847 1 -5.16 -2.83171 1.92355 22
848 1 -5.16 -0.934401 4.57359 22
849 1 -3.52 -3.77954 4.57358 22
850 1 -1.88 -6.6244 -0.726407 21
851 1 -1.88 -0.934401 -0.726407 26
852 1 -0.24 -3.77954 -0.726424 26
853 1 -0.24 -5.67683 1.92362 20
854 1 -1.88 -2.83171 1.92355 26
855 1 -1.88 -0.934401 4.57359 23
856 1 -0.24 -3.77954 4.57358 22
857 1 -1.88 -2.83171 7.22355 20
858 2 -6.8 -3.7797 1.28241 21
859 2 -3.52 -5.67644 3.93239 21
860 2 -5.16 -2.83137 3.93245 24
861 2 -5.16 -0.93461 1.2824 23
862 2 -3.52 -3.7797 1.28241 25
863 2 -1.88 -6.62461 1.2824 17
864 2 -0.24 -5.67644 3.93239 22
865 2 -1.88 -2.83137 3.93245 25
866 2 -1.88 -0.93461 1.2824 26
867 2 -0.24 -3.7797 1.28241 26
868 2 -1.88 -0.93461 6.5824 24
869 2 -0.24 -3.7797 6.58241 21
870 1 -6.8 0.0131684 -3.37638 24
871 1 -3.52 1.91046 -6.02642 20
872 1 -3.52 0.0131684 -3.37638 26
873 1 -5.16 2.85829 -3.37645 24
874 1 -3.52 5.70317 -3.37638 22