ITEM: TIMESTEP
29000
ITEM: NUMBER OF ATOMS
2000
ITEM: BOX BOUNDS pp pp pp
-30.0 30.0
-30.0 30.0
-30.0 30.0
ITEM: ATOMS id type x y z Coordination
1 1 -10.5751 2.81018 -20.3436 13
2 1 -7.28527 -10.1016 -9.65052 18
3 1 2.78865 10.725 7.34575 20
4 1 6.89098 -14.1382 2.9559 7
5 1 -14.3656 10.6979 -11.1544 11
6 1 4.7674 -8.89221 -15.6854 18
7 1 -12.5046 2.17009 -11.1165 21
8 1 -2.12649 -11.4071 6.34849 16
9 1 -15.4971 -1.93498 -14.6773 21
10 1 -16.7658 -10.4851 0.620968 14
11 1 10.066 0.655425 -16.3038 14
12 1 -10.2416 0.0810542 -5.21558 21
13 1 -7.70717 -13.9157 -5.57461 20
14 1 -18.0026 -11.7392 -1.98482 11
15 1 -0.510028 -0.216645 10.8087 16
16 1 3.30018 -7.65373 2.52518 21
17 1 -5.56154 -0.619843 3.0245 24
18 1 4.89728 -4.62562 -2.15278 19
19 1 -3.57995 8.5554 -10.7241 23
20 1 2.19042 -5.04867 8.33298 19
21 1 -12.5786 -1.52356 -21.3429 9
22 1 -13.5075 -4.6898 7.64663 14
23 1 8.66887 5.42878 2.28993 18
24 1 -0.243418 7.58227 -16.7878 19
25 1 0.693114 5.01252 -12.4263 19
26 1 9.55616 0.190875 7.38729 14
27 1 -14.4187 -3.07969 -2.15422 21
28 1 -16.1393 3.29341 -13.8679 13
29 1 -6.24665 -4.40595 -12.873 20
30 1 -14.9496 7.22368 1.70729 20
31 1 4.20147 -15.8537 1.20946 10
32 1 -1.3567 -4.3541 2.8931 21
33 1 -1.61804 -17.1945 -14.1482 11
34 1 7.13483 -17.0429 -3.74664 11
35 1 -10.6929 -17.2265 -9.33124 11
36 1 -14.6563 -7.43711 5.17753 15
37 1 -0.394084 -5.67934 -10.5864 20
38 1 -4.93837 -10.507 -14.9251 20
39 1 6.98537 -8.37028 -17.8062 12
40 1 -3.39247 4.83314 -19.0553 20
41 1 -1.6358 1.95468 6.41273 20
42 1 -9.79281 -11.3486 -4.48998 23
43 1 3.87092 -9.46986 4.88439 13
44 1 -15.0033 0.263551 -3.32188 24
45 1 -19.5045 -3.59165 3.66682 9
46 1 -15.2969 -2.73275 -5.18727 19
47 1 -4.57404 10.0809 -8.02625 20
48 1 -4.68039 -16.1958 -14.8156 12
49 1 -1.94687 -2.96937 -16.0734 25
50 1 -0.754482 -13.8622 -11.743 21
51 1 -2.65488 -6.22267 8.81547 17
52 1 -16.6504 6.63966 -6.67805 21
53 1 5.82423 10.4908 -16.2148 10
54 1 -2.36813 10.2098 6.4577 19
55 1 -9.82211 3.76412 -14.6476 21
56 1 -9.93838 13.4963 -0.0848481 14
57 1 1.99255 -14.5915 -0.589334 18
58 1 3.29969 -6.47034 -14.2273 20
59 1 -1.80053 -11.0466 -19.1857 13
60 1 -13.6756 6.57057 8.30643 12
61 1 -17.0706 -8.50609 -13.1512 13
62 1 3.11 0.0484086 0.204415 25
63 1 -11.0907 7.38325 -9.27329 18
64 1 -9.31095 -12.4537 -0.458812 18
65 1 -6.11682 7.02627 9.4541 18
66 1 -17.334 2.82217 -10.7108 13
67 1 -10.7682 6.28571 8.00031 16
68 1 0.0111286 3.73012 -7.92078 21
69 1 -2.08216 5.00624 2.93226 24
70 1 -12.7276 -17.4003 -0.740651 15
71 1 -2.6293 4.15062 8.70138 23
72 1 3.65426 -12.6102 -9.0044 19
73 1 2.42951 9.73846 10.7739 13
74 1 -10.1655 1.83653 -17.1279 21
75 1 -12.5509 2.89822 -15.074 20
76 1 1.42673 2.66098 5.68605 21
77 1 2.79972 -4.23332 -11.8717 18
78 1 7.3506 -15.4053 -0.226701 11
79 1 -19.448 -2.62215 0.175715 12
80 1 -11.7399 -3.0796 -5.06095 21
81 1 1.39847 8.60302 -0.417821 19
82 1 1.27484 -8.21837 6.14519 17
83 1 -13.3003 -11.4023 -4.58994 22
84 1 -15.491 -6.02399 -3.53183 21
85 1 11.7453 2.15429 1.87889 19
86 1 4.77528 -2.19788 -11.196 19
87 1 -5.05161 8.78413 7.20846 15
88 1 3.83743 -1.90504 3.11234 24
89 1 -11.786 -5.04945 -3.00287 23
90 1 -9.1417 -7.85703 -10.8738 21
91 1 -16.3306 7.8463 4.27424 12
92 1 -12.9547 10.4329 -8.61938 19
93 1 -4.99644 7.3022 -13.9897 21
94 1 3.17304 -2.12926 -7.60074 22
95 1 0.871314 -2.57735 -10.2815 20
96 1 6.99015 10.9982 -13.0259 11
97 1 6.64395 -7.61294 -3.08028 22
98 1 0.0988732 -11.5565 0.576888 23
99 1 -8.61686 10.8187 -13.0186 18
100 1 -12.3901 11.346 -0.340993 16
101 1 -10.3282 -3.1932 3.5922 23
102 1 -8.76107 6.67759 -2.52169 19
103 1 -5.78919 -7.39328 8.70527 16
104 1 6.92837 -7.2966 -14.2824 21
105 1 -10.1717 3.54291 -2.43666 20
106 1 -15.1565 -15.4423 -2.19446 13
107 1 4.68896 -8.00819 -12.089 18
108 1 7.77852 -5.40716 -19.0572 14
109 1 -6.80484 1.04259 -22.4548 15
110 1 1.6312 -2.73095 0.317248 22
111 1 -3.54865 11.9472 -2.18141 18
112 1 -8.19242 5.61187 -9.91338 19
113 1 -4.49559 3.74353 12.5081 14
114 1 -4.90659 11.7424 -10.9131 19
115 1 -17.1015 12.3443 -4.15338 10
116 1 -3.67257 5.31599 0.264008 22
117 1 -7.36892 -9.9375 4.86268 21
118 1 10.5069 -3.21756 2.07821 16
119 1 -3.45443 -7.82925 -13.2844 20
120 1 0.557175 -8.69482 -10.3641 20
121 1 -6.51807 0.20057 5.81729 21
122 1 3.04586 -3.56461 10.8098 13
123 1 -15.0508 -8.43898 -10.5029 20
124 1 3.51257 -5.49742 0.345516 21
125 1 -12.6017 -7.455 -8.37547 20
126 1 8.65153 -8.86084 -5.30655 16
127 1 -7.27364 5.74375 -5.31939 20
128 1 8.11578 2.7187 -17.9673 10
129 1 0.54775 13.7679 -9.3278 14
130 1 -12.2764 -12.8076 6.85066 12
131 1 -13.9816 -16.0292 5.71625 5
132 1 -8.63491 2.81595 -5.35058 20
133 1 0.959956 -11.7634 -17.4391 14
134 1 1.44537 0.636724 -7.77339 24
135 1 6.78913 -11.6177 -5.0711 19
136 1 -8.39128 -16.623 3.08583 16
137 1 -15.6874 -9.43805 -2.44659 23
138 1 9.48294 6.24252 5.35681 14
139 1 9.01805 -5.23172 -12.6196 20
140 1 -18.2629 -3.04759 -6.31186 14
141 1 7.55179 7.28048 -2.8645 20
142 1 10.7499 7.76599 -2.97766 11
143 1 -9.29295 -1.59528 9.3143 16
144 1 4.24142 2.56872 -6.75994 23
145 1 -11.1003 9.13072 8.07136 10
146 1 -10.0847 8.50732 -12.1638 17
147 1 -5.97882 -7.35445 -15.6423 19
148 1 8.14755 -15.0516 -9.90864 12
149 1 -1.66272 14.6337 -14.3602 12
150 1 6.62302 -5.42102 5.50835 16
151 1 -4.71091 -6.02464 -20.95 16
152 1 -8.04341 6.74236 -14.0327 20
153 1 7.88985 2.66751 -6.80808 23
154 1 -13.3284 7.48719 -11.0861 21
155 1 -11.7933 10.9497 -5.68027 18
156 1 2.56364 -1.32352 -13.3485 19
157 1 6.66727 -11.7659 0.571964 15
158 1 -6.81133 -1.59595 -13.4767 21
159 1 -8.4636 12.4299 3.8313 12
160 1 6.39919 4.00399 -12.2897 17
161 1 3.28952 10.4676 -6.51904 20
162 1 -7.55363 15.7589 -7.65744 11
163 1 11.0603 6.88865 -6.55102 13
164 1 -4.51843 8.437 -4.72152 18
165 1 -4.45735 13.8246 -13.6399 15
166 1 -0.374972 11.8023 -15.2022 16
167 1 -19.0322 -8.37863 -0.64293 13
168 1 -19.5955 7.73373 -6.65948 11
169 1 -7.70404 -4.4181 -15.6521 22
170 1 -3.8515 -12.4414 -17.0564 15
171 1 4.87514 12.8153 2.88694 15
172 1 -1.65133 13.4979 1.92735 19
173 1 -13.2426 -5.67164 -5.99101 21
174 1 -14.057 11.7736 -3.05333 15
175 1 11.2698 -4.31121 -9.44565 19
176 1 -12.986 0.798129 -17.821 14
177 1 6.42342 -3.09425 9.61263 10
178 1 -2.20161 14.6266 -0.563815 16
179 1 -5.57649 4.90283 2.77326 21
180 1 -3.88665 -8.85925 -17.5643 20
181 1 -9.88936 9.39143 4.67787 18
182 1 -5.26449 6.87457 -8.2605 21
183 1 0.243906 -7.61138 8.72243 13
184 1 -18.5768 -8.5823 -3.91106 12
185 1 -5.54053 -13.4835 -13.3774 21
186 1 -5.9898 4.18814 -14.8066 22
187 1 -3.20884 -11.514 0.760993 22
188 1 0.0616748 -16.4763 -7.90991 16
189 1 -7.31667 8.43771 -19.1233 13
190 1 -17.2006 1.96143 3.9006 22
191 1 1.26172 2.75285 -10.4802 22
192 1 6.63223 7.40699 -11.083 22
193 1 -10.3836 1.06601 11.3065 12
194 1 -5.21885 -16.6498 3.33577 16
195 1 -12.2206 -0.162341 -2.71076 22
196 1 -4.57558 14.9471 0.788191 12
197 1 -3.47713 3.82572 5.24212 22
198 1 8.12769 2.51009 9.08886 14
199 1 -11.9049 9.60645 -2.77437 20
200 1 11.798 -4.55525 -15.7743 13
201 1 -7.14521 9.18854 4.33502 20
202 1 -8.24683 -1.95456 -10.9798 22
203 1 8.13005 -4.72027 -3.16905 23
204 1 -11.7037 -3.3683 0.374798 23
205 1 -16.2857 -0.629183 1.85333 19
206 1 -11.7447 -10.6728 -2.11677 23
207 1 2.86285 -0.388506 11.9032 10
208 1 -15.9135 2.88346 -5.01125 20
209 1 -6.69061 -16.9065 -4.63432 21
210 1 -10.3953 -2.27993 -7.89716 19
211 1 2.98212 -7.9006 -7.68133 22
212 1 -10.3397 5.4866 -4.82664 20
213 1 -11.9723 -0.673807 2.75562 21
214 1 2.77123 13.5202 5.61743 12
215 1 -14.494 1.02658 -9.38409 20
216 1 -7.58048 9.19384 -15.5751 19
217 1 -19.139 -5.89194 -11.9649 12
218 1 -13.0973 -3.31439 4.45351 19
219 1 -3.32997 -13.2961 2.9725 20
220 1 0.159344 -17.6053 0.355484 12
221 1 -16.0967 11.7951 -0.655104 9
222 1 13.017 0.730826 -0.661312 12
223 1 -0.732717 -0.0280119 -10.495 23
224 1 -10.6646 -3.76484 -21.3225 14
225 1 1.07889 -1.06932 3.3833 21
226 1 1.38782 -14.7074 -4.8255 22
227 1 -3.53943 7.89681 -18.6344 19
228 1 0.807387 -15.7671 -13.4672 17
229 1 4.05247 -3.37154 -15.3778 18
230 1 1.42163 1.58928 -18.024 21
231 1 -11.8262 -6.87333 -13.9286 17
232 1 -6.55066 12.0357 -15.4339 14
233 1 -15.0079 -12.1773 2.49158 15
234 1 8.07573 10.3774 -9.69856 14
235 1 -13.5284 0.0197873 9.71607 11
236 1 -10.7645 11.5874 -11.2773 13
237 1 3.626 0.179797 5.59702 20
238 1 -9.76981 -6.70458 -19.9958 15
239 1 -10.1934 7.92488 -17.3116 16
240 1 -1.99369 1.49425 -12.7718 22
241 1 -12.8741 -13.7684 3.96417 17
242 1 -13.5762 4.15424 1.19297 23
243 1 -8.33733 7.08723 2.64266 19
244 1 -3.00071 -15.9661 -12.1089 21
245 1 -11.0751 -14.0524 -4.85937 22
246 1 8.34443 -7.11572 -10.6397 19
247 1 0.139524 -7.84874 -2.2955 23
248 1 4.91578 5.29997 7.0763 20
249 1 2.12201 6.42107 -15.1104 21
250 1 0.654121 7.18107 -7.37426 18
251 1 -15.014 9.247 -1.54463 20
252 1 -17.6882 9.96532 -6.03769 16
253 1 -3.4699 0.266125 5.24029 20
254 1 0.0490833 -17.2779 -4.96488 14
255 1 7.95024 0.122944 -8.97477 20
256 1 -3.7051 2.19727 2.96844 21
257 1 -15.2927 5.83349 -1.1473 19
258 1 -19.164 -5.8222 -8.16688 12
259 1 3.54254 1.02486 -15.5996 20
260 1 -0.0271474 -5.38674 5.99808 21
261 1 4.74993 6.96661 -15.9946 15
262 1 0.126527 -13.3944 -8.0992 24
263 1 -8.75904 -0.995163 -16.5495 19
264 1 -1.63682 -18.9145 -2.02714 12
265 1 9.22424 -2.64082 -15.2929 18
266 1 -16.5717 -4.98769 -6.39754 20
267 1 -2.33405 -15.8484 -9.31142 22
268 1 -15.4614 0.926704 -12.9693 17
269 1 -2.51881 13.2274 -6.84888 18
270 1 -4.12587 -3.43578 -19.323 20
271 1 2.47774 4.18805 8.67041 20
272 1 12.7288 0.0254148 -6.55455 13
273 1 -6.57969 -7.65062 -2.2806 23
274 1 10.3505 -7.0108 -17.5082 11
275 1 -4.59564 -10.4481 -2.17331 23
276 1 -12.3755 -5.39922 -19.2207 19
277 1 -15.615 0.945577 -15.9112 17
278 1 -7.49235 -15.0553 -0.180395 23
279 1 6.78399 -1.79501 2.81534 17
280 1 3.2074 -5.69871 5.12704 20
281 1 -10.7706 -9.02567 -18.3622 10
282 1 -3.27016 -7.62283 3.02971 23
283 1 -2.72749 2.24944 -16.8365 21
284 1 5.74842 7.82899 -5.27239 20
285 1 -10.1478 -8.00571 -2.44294 20
286 1 -4.02038 9.06486 -1.021 19
287 1 -10.9808 2.38337 2.44715 23
288 1 -13.9861 -9.01877 -13.628 20
289 1 -9.3392 -7.31036 -16.4131 23
290 1 -2.76061 5.92569 -21.8196 14
291 1 -10.545 -9.69545 -13.4506 19
292 1 -13.1528 -10.1075 -8.28667 23
293 1 4.39031 -6.16356 -19.695 14
294 1 9.62967 -3.46916 -18.5407 10
295 1 9.79388 -1.49073 -3.03176 22
296 1 -3.77118 -7.63528 -7.51008 20
297 1 -12.0403 -5.8433 3.07056 18
298 1 -8.5295 -11.4775 -7.28737 24
299 1 8.15869 3.93984 5.53863 21
300 1 -7.60483 -17.5314 -2.29624 19
301 1 -4.72188 -16.0789 -2.07892 22
302 1 -7.42934 10.1487 -9.78542 18
303 1 3.78382 -0.0354047 -21.4456 13
304 1 -14.1714 -4.16301 -21.7899 8
305 1 1.55698 -8.44257 -4.8809 23
306 1 -14.1475 -10.6718 5.32506 13
307 1 1.4352 4.69012 13.2223 9
308 1 0.36346 -11.3466 -5.02782 24
309 1 -7.91986 -9.89399 -14.6151 18
310 1 -9.7507 0.824433 -12.0149 19
311 1 9.32616 -0.229053 2.01245 24
312 1 -6.05016 1.37493 -16.3433 18
313 1 -1.56635 10.1718 -18.2926 11
314 1 -8.89571 -5.64289 2.33747 22
315 1 9.11426 -12.2832 -12.3884 12
316 1 -8.72332 12.6958 -6.06564 17
317 1 -1.67464 9.22508 -2.80369 20
318 1 10.1776 0.601411 -1.00944 21
319 1 -17.3188 2.08758 -2.38026 19
320 1 -3.62733 -9.52716 8.57669 11
321 1 -9.82459 8.23081 -0.0869018 20
322 1 -0.668721 -4.11019 -18.5693 22
323 1 9.82319 8.17549 -8.88647 17
324 1 1.87739 -10.6591 -2.40006 22
325 1 -5.4794 -4.47829 10.4032 13
326 1 -19.2061 -5.50198 1.40486 12
327 1 -0.704638 -17.7755 -10.8681 13
328 1 -11.5416 4.5198 10.6517 10
329 1 -15.1815 1.0862 6.88355 19
330 1 -16.0106 -5.76899 7.57301 7
331 1 -15.3271 -5.46662 2.45588 20
332 1 8.13351 -4.6723 -9.13108 19
333 1 -15.7708 -9.02278 2.82342 15
334 1 2.40184 -6.52628 -10.4853 19
335 1 9.92505 -8.79914 -13.1215 15
336 1 -3.94969 15.7041 -8.29515 10
337 1 -6.49985 -5.35378 0.36825 23
338 1 -16.4631 9.36574 -8.39315 21
339 1 -2.0712 -0.749473 2.65931 21
340 1 3.77134 8.54775 5.11578 20
341 1 -13.6611 -5.73009 -0.293714 22
342 1 6.89039 -12.8887 -7.9114 22
343 1 -9.36289 10.5994 -0.838958 21
344 1 -13.8834 3.24823 -2.26814 20
345 1 1.02516 -16.1483 3.20192 12
346 1 9.99161 -7.37354 -2.46741 12
347 1 -8.86691 4.3976 3.39464 21
348 1 -9.44654 -4.41773 -12.4122 20
349 1 -7.59141 0.713601 11.4187 17
350 1 -5.77107 12.8465 2.52135 18
351 1 5.96929 4.885 9.94835 17
352 1 -10.983 9.50982 -14.656 13
353 1 -5.47365 -4.06183 -23.3346 12
354 1 -6.65664 0.292821 -10.4079 21
355 1 2.64959 -14.5304 -15.9665 14
356 1 -17.6538 5.09933 5.01051 16
357 1 -18.0746 4.32513 -0.0610857 16
358 1 -6.84491 -5.82465 -10.7029 18
359 1 -11.8218 8.12932 -6.26118 22
360 1 4.97874 -4.68846 3.01835 21
361 1 -16.8965 -13.9444 -4.20436 10
362 1 1.67826 -9.03949 0.250268 22
363 1 -10.1396 -11.9253 3.7331 21
364 1 -17.0626 8.22785 -3.99613 17
365 1 -7.48024 -6.30211 5.40622 23
366 1 -4.92186 -14.6192 -10.3555 20
367 1 -10.3228 -1.74329 -13.8062 20
368 1 0.641204 -3.85255 -21.9977 17
369 1 -0.662257 12.0822 -0.735816 20
370 1 -18.0339 -0.548076 -4.25422 13
371 1 3.89724 -15.288 -12.9039 12
372 1 6.86406 0.234692 -16.8836 16
373 1 -10.4152 -11.239 -10.2233 23
374 1 -17.9078 -8.16061 -10.1362 14
375 1 -4.56707 -8.76831 -5.09046 23
376 1 5.59507 1.80332 10.6168 12
377 1 9.16762 4.2746 -3.41576 23
378 1 -7.90323 1.27746 -14.5085 18
379 1 -2.7542 15.7202 -4.98992 10
380 1 -15.7089 -2.22666 -8.58317 18
381 1 -12.6381 7.86729 0.150822 20
382 1 -9.73227 8.73863 -3.86568 20
383 1 -7.57551 2.08727 2.86992 21
384 1 7.01848 6.99548 5.03351 21
385 1 4.38036 -5.17897 -7.76999 19
386 1 7.96492 -5.9863 8.15457 8
387 1 12.9841 -1.18688 -9.49268 13
388 1 -11.8694 -17.1677 -6.40404 13
389 1 -0.707171 2.19173 3.11759 22
390 1 -3.70603 3.47079 -7.71046 22
391 1 -1.63838 -10.5241 -7.57407 24
392 1 -4.91664 7.8535 1.87282 19
393 1 -17.1065 -0.686607 -10.7655 10
394 1 1.5982 -10.3111 -7.49409 24
395 1 6.70941 0.28332 -0.66784 20
396 1 -11.2855 -4.90412 -16.0739 19
397 1 -12.119 -13.7718 -1.8362 21
398 1 -11.1213 -10.1399 6.14447 16
399 1 -7.25263 9.9699 -5.95286 19
400 1 -16.1743 -10.3878 -8.2197 17
401 1 5.3969 7.55652 10.4386 14
402 1 -12.9068 4.64141 -9.44664 24
403 1 -5.40618 10.536 -13.4541 21
404 1 1.38197 7.64871 2.844 22
405 1 -17.6242 -7.97034 -6.94069 15
406 1 -9.55411 -14.5047 -8.36085 22
407 1 -16.5493 -3.99985 0.233183 23
408 1 -13.9732 8.08546 -13.6062 12
409 1 -1.70802 -8.65805 0.219368 23
410 1 -5.95791 -15.8709 -7.98174 21
411 1 7.69424 10.8579 3.12974 14
412 1 3.04753 3.27346 -20.4898 14
413 1 -8.00856 1.20523 -18.6969 16
414 1 -6.91285 8.30867 -11.1928 20
415 1 -11.7659 -0.120119 -9.20746 20
416 1 -4.2178 -14.5995 0.964593 23
417 1 8.31511 2.79711 -0.0954374 23
418 1 1.74543 5.79149 -18.764 14
419 1 -6.67898 -3.77354 2.96247 24
420 1 -16.3745 0.362128 -6.95989 17
421 1 -12.0425 2.18829 -0.853516 21
422 1 -3.40762 -13.2718 -1.90151 24
423 1 -3.56499 -9.06515 -10.0978 19
424 1 -0.849607 -14.3214 -16.3703 13
425 1 -2.59904 -4.50028 6.29014 19
426 1 -19.2129 3.53946 2.39481 13
427 1 -16.663 -2.88935 3.71876 18
428 1 -18.7042 6.64979 2.36615 13
429 1 -8.26983 -10.0388 -1.8873 22
430 1 -10.1534 0.411363 -22.2666 11
431 1 2.59242 -12.7407 -12.0922 21
432 1 -4.81961 -11.3909 -11.8048 18
433 1 -5.50358 -4.76649 7.51339 21
434 1 -0.50528 -7.65633 -7.83516 22
435 1 -5.08233 -1.20556 -21.4004 20
436 1 5.26309 -14.5258 -5.13657 20
437 1 -0.548026 8.38098 -10.6037 21
438 1 -17.5861 9.59839 1.42104 12
439 1 -8.47483 -5.0663 8.42882 18
440 1 -15.7402 -7.55812 -16.1091 10
441 1 -11.8964 -8.2555 0.724139 19
442 1 5.01405 -10.9426 2.59762 14
443 1 3.1749 -0.0424042 -5.1476 22
444 1 -8.66884 2.49402 -0.095043 21
445 1 -1.96883 -4.79535 -13.3304 22
446 1 4.94972 -8.57762 0.00628383 19
447 1 11.2245 4.55016 -8.37615 13
448 1 -4.45071 -1.23883 11.2943 12
449 1 -4.91202 11.7872 -5.16069 18
450 1 3.33282 -7.50179 -1.88359 23
451 1 -7.55517 -16.8879 -9.78952 19
452 1 -8.83061 3.77996 10.9162 17
453 1 -2.70455 12.9083 5.36452 13
454 1 -12.4826 -11.7659 -12.5227 16
455 1 3.34513 15.9701 -3.96844 9
456 1 -0.523683 5.04094 5.48656 21
457 1 -14.5885 5.83427 5.48797 19
458 1 -10.751 -5.46674 -9.82063 21
459 1 -19.0569 2.74449 5.88074 9
460 1 -13.0116 -3.33043 -13.7157 21
461 1 -7.55915 9.92342 1.48001 21
462 1 -6.56219 -13.2942 -8.55101 19
463 1 -7.02184 -7.03668 -21.9914 10
464 1 -9.07218 -14.6902 -3.12708 18
465 1 -10.3055 -2.31562 -2.17362 23
466 1 5.52236 0.927517 1.93928 23
467 1 -10.4983 -5.05921 5.6973 19
468 1 -11.2535 4.80681 -17.5242 18
469 1 5.84825 4.2455 -4.55175 24
470 1 -13.222 -15.748 -9.31227 10
471 1 1.53129 1.61879 -12.8027 19
472 1 -4.75448 14.4467 -2.58531 17
473 1 -1.76598 2.9783 -10.1377 24
474 1 -8.53283 6.18438 5.31957 17
475 1 -18.7957 2.32277 -4.99807 11
476 1 -5.71323 15.2472 -10.5144 13
477 1 -1.6162 11.0672 -9.46539 20
478 1 -12.047 -8.5597 -11.0692 21
479 1 -0.203398 2.64224 9.03097 22
480 1 -6.8349 -19.6485 -11.5781 8
481 1 -6.47261 -5.61833 -18.1757 20
482 1 5.10387 -15.8442 -2.00719 16
483 1 -14.476 9.65412 -5.52024 25
484 1 0.0937566 6.07662 8.29403 21
485 1 10.0573 1.94242 -9.04958 17
486 1 1.09707 9.76701 -8.60173 20
487 1 -5.88802 6.83128 -17.108 22
488 1 0.724588 -4.8081 -15.0901 21
489 1 -4.77181 -8.35405 0.355117 21
490 1 -19.3213 -5.79048 -4.84467 13
491 1 0.929752 15.1211 0.355483 11
492 1 -4.79822 1.77966 -19.5381 20
493 1 5.38417 4.94751 -7.79454 22
494 1 0.831809 13.8082 -12.4737 13
495 1 6.07647 -2.20904 -8.09378 18
496 1 9.91911 -1.74972 -8.96125 20
497 1 -3.29196 -0.119179 -15.2833 20
498 1 -1.54984 -10.6374 -2.33431 22
499 1 1.82546 -13.3267 2.30519 15
500 1 -0.939314 -13.2781 4.48945 16
501 1 -13.102 -0.764825 -12.3845 21
502 1 -6.88173 -13.1923 2.5725 25
503 1 -8.4014 -15.6618 -13.9414 11
504 1 3.21246 12.1863 -0.360141 18
505 1 -1.61766 1.88901 -19.9513 20
506 1 2.04428 -2.69378 5.89983 20
507 1 -18.0217 -0.847849 5.68869 12
508 1 -8.75592 -19.1502 -4.76605 12
509 1 -9.94785 -5.77057 -0.518924 19
510 1 12.408 -7.57499 -14.9276 10
511 1 8.14448 -2.97008 -5.48356 17
512 1 -5.47988 5.68518 -11.6335 19
513 1 -2.52689 -12.3849 -10.008 21
514 1 -0.0376159 0.79825 -15.0191 19
515 1 6.7389 -3.83358 -14.0465 19
516 1 -6.15258 -1.7463 8.99421 21
517 1 2.54973 15.5745 -7.13563 10
518 1 -8.00676 -1.77587 -22.9361 11
519 1 -2.69008 -2.33135 -23.4882 12
520 1 -9.88961 -8.23737 3.62072 21
521 1 -7.1904 9.30926 -2.40283 19
522 1 -12.1255 -2.32531 -17.0127 21
523 1 -18.9963 0.986719 0.852286 13
524 1 -6.87362 -12.8197 -16.239 13
525 1 -8.68307 -12.214 5.94179 17
526 1 4.1342 6.4408 -10.8219 23
527 1 13.2256 2.93384 4.31227 8
528 1 10.7996 3.19539 -6.02584 18
529 1 -15.1351 -13.2448 -7.15621 15
530 1 -2.51499 -12.0426 -4.97383 23
531 1 -9.97676 -0.848816 -19.1823 20
532 1 -12.8445 7.89558 5.69341 16
533 1 1.55974 -8.90868 -15.6747 20
534 1 -0.30026 5.67692 -5.21664 21
535 1 7.00333 -5.96934 -6.09471 21
536 1 0.412599 9.33037 -14.2127 18
537 1 5.10688 -10.5224 -2.81687 20
538 1 9.34994 3.03412 -13.4589 18
539 1 -0.826227 5.21367 11.0788 20
540 1 -16.15 4.3646 2.11877 24
541 1 -0.13431 11.4859 4.73022 21
542 1 5.56561 -5.68666 10.1334 9
543 1 0.61805 1.5943 -21.4318 14
544 1 -6.50325 -7.50638 -8.0069 23
545 1 -1.04311 -2.23471 5.62072 20
546 1 2.96658 10.3325 2.7656 20
547 1 5.34286 6.22917 -13.481 18
548 1 -16.3324 5.74352 -12.2617 12
549 1 -2.70001 6.51555 -8.29372 19
550 1 8.50444 -2.58485 6.12 15
551 1 6.56199 -2.70343 -17.1302 18
552 1 3.34626 -11.5927 -5.46839 23
553 1 8.47498 9.4032 6.23222 11
554 1 -19.4375 -5.25865 -1.75148 12
555 1 -11.0991 6.36001 -14.5573 21
556 1 -4.80462 1.81364 7.78117 23
557 1 -15.7953 -2.44415 7.78446 13
558 1 -4.98682 9.84605 -16.7394 19
559 1 8.18834 -14.9924 -6.34813 11
560 1 2.58231 -0.356826 -10.693 23
561 1 -8.72351 13.4252 -9.59558 15
562 1 -15.4512 -5.59615 -18.7265 12
563 1 3.44704 -13.4431 -2.98287 19
564 1 -14.7123 -8.57275 -5.47936 19
565 1 -3.23545 12.3119 -16.6158 14
566 1 -13.3246 -0.550565 -6.28872 22
567 1 -3.77002 5.93027 10.8866 16
568 1 -12.4984 -9.56936 3.19887 19
569 1 2.94899 6.07135 -5.36837 24
570 1 0.749803 -11.3531 -9.9463 22
571 1 0.81466 -10.761 6.65279 12
572 1 7.99195 3.08896 -10.1654 21
573 1 -14.4037 7.16323 -4.00349 18
574 1 1.45531 2.36504 11.6162 17
575 1 0.0809449 11.6902 -6.82315 20
576 1 5.86961 -5.21582 -11.6376 19
577 1 0.611811 8.54768 5.94181 20
578 1 0.635578 5.01688 -22.036 9
579 1 -10.1598 -14.6322 5.13606 15
580 1 -3.90671 -2.19815 -13.1366 23
581 1 3.86648 -2.96271 -21.5465 13
582 1 0.0596581 10.4327 1.55551 20
583 1 3.31559 3.97802 -16.8212 18
584 1 -7.05377 -2.24887 -18.7168 19
585 1 -9.60337 -8.15428 -8.14283 21
586 1 -14.4917 -4.59644 -16.382 20
587 1 11.5954 1.65664 -3.54256 19
588 1 13.4314 1.74648 -9.45997 11
589 1 3.86488 -12.0799 -14.4008 18
590 1 7.96934 5.90904 7.98895 18
591 1 6.53555 -11.4157 -10.8673 19
592 1 1.39715 -0.746577 -19.852 21
593 1 2.24745 12.5145 -4.35242 18
594 1 -10.123 -0.271685 0.118503 21
595 1 5.54721 8.01218 7.54458 19
596 1 7.9306 5.47464 -6.02515 21
597 1 11.3504 -4.29082 -3.29979 17
598 1 10.8201 -2.62588 -12.133 18
599 1 5.108 -2.74362 5.79053 19
600 1 10.6371 3.4826 7.17419 13
601 1 -4.82813 -5.85982 4.52633 19
602 1 6.40419 8.10241 -8.05359 22
603 1 3.31109 -1.71638 -2.45076 23
604 1 0.626718 -2.64661 9.19996 17
605 1 12.235 -1.56324 -15.0916 14
606 1 7.17657 0.642308 5.182 22
607 1 -11.5466 -2.93183 -11.2775 20
608 1 6.18409 4.13 -1.94045 22
609 1 6.28019 -7.72391 -8.84054 20
610 1 -1.45775 -8.65674 -4.90988 23
611 1 -16.5304 4.33994 7.83328 11
612 1 5.62346 11.5634 5.5552 13
613 1 11.2475 -1.54802 4.8422 14
614 1 -1.77897 7.91995 0.753424 20
615 1 -0.0675303 9.55657 9.07473 16
616 1 -1.95305 2.65727 0.131238 22
617 1 -5.1663 -19.3039 -2.10768 13
618 1 -8.52029 7.25806 -7.04182 19
619 1 9.59158 8.97664 -11.9676 11
620 1 5.53148 -5.99974 -16.5991 19
621 1 -6.1705 15.6917 -4.70863 13
622 1 -5.95361 -16.7668 -12.3375 20
623 1 4.04847 -11.6472 -17.4789 10
624 1 -15.6212 1.83761 0.290902 23
625 1 -8.02658 3.75204 -12.4528 17
626 1 -3.30908 -17.8368 0.747271 16
627 1 -9.38916 -4.0064 -18.2299 20
628 1 -15.4188 3.48605 -7.9984 19
629 1 8.0742 -10.2885 -2.04303 15
630 1 4.54096 7.03043 -2.4844 20
631 1 -3.62699 -14.7495 5.72545 13
632 1 -18.0824 0.422947 -14.9515 10
633 1 -1.22975 -1.9671 -20.9025 23
634 1 1.46906 -4.69553 2.96742 20
635 1 -6.62828 3.53787 5.51381 21
636 1 4.84749 2.08777 -18.6267 16
637 1 10.0717 -4.76911 5.45399 9
638 1 7.64212 8.13363 -14.4827 16
639 1 5.47182 12.508 -2.70016 12
640 1 1.87171 -15.1361 -10.2296 20
641 1 -9.05254 -8.4485 7.68695 13
642 1 8.14005 -2.55213 -0.0947026 22
643 1 -8.82481 7.2994 10.3936 14
644 1 2.87504 12.2841 -14.7198 13
645 1 -14.4204 7.10145 -8.11211 19
646 1 8.32142 12.5063 -4.88196 10
647 1 -13.5325 -14.9416 -4.9313 19
648 1 9.87217 -5.67355 -6.35866 18
649 1 0.446449 14.272 -2.72982 16
650 1 -9.2099 2.02125 5.77208 23
651 1 -13.3906 -7.48394 -2.73639 20
652 1 -16.5807 -5.21967 -13.9185 16
653 1 3.20746 1.29626 9.12115 19
654 1 -5.25114 -11.7382 6.42521 16
655 1 2.46828 5.95935 5.54196 22
656 1 -9.92541 10.3658 -7.92614 18
657 1 4.35664 2.62442 0.216031 20
658 1 3.44278 -5.69978 -4.73244 21
659 1 1.33383 2.88935 0.207602 22
660 1 1.21955 -1.98365 -16.3258 23
661 1 -12.2646 1.48863 5.40707 20
662 1 5.99155 2.54434 -15.279 17
663 1 -5.84335 -8.43619 -12.1754 20
664 1 6.51219 -10.0969 -13.4073 18
665 1 2.94819 5.77498 0.142527 22
666 1 -0.181061 5.73042 0.432789 22
667 1 -14.115 1.11228 2.69611 21
668 1 4.21036 9.40411 -0.200546 18
669 1 -0.179033 -4.97785 11.0267 9
670 1 -8.31715 4.52071 8.03985 19
671 1 -3.16518 -5.91666 -18.2959 21
672 1 -11.5395 0.713516 8.21094 19
673 1 4.56829 3.20472 4.51928 19
674 1 -10.0049 -14.5081 1.91997 21
675 1 8.41346 5.77978 -9.2255 15
676 1 3.11008 -14.9662 -6.82743 19
677 1 -5.18295 3.1172 -10.1591 23
678 1 3.56267 7.50903 -7.94447 21
679 1 0.721985 10.6396 -2.76576 17
680 1 0.941892 -1.49407 -23.197 12
681 1 -3.77886 -3.68612 2.9644 23
682 1 -5.99645 12.9885 -7.97659 21
683 1 8.64086 9.48175 -5.40448 18
684 1 -11.5614 -8.78036 -5.26604 21
685 1 -3.41903 0.960341 -22.246 15
686 1 -15.1451 12.0965 -6.55005 12
687 1 -0.937643 -8.6306 -17.768 18
688 1 -0.104554 3.9608 -2.42565 20
689 1 10.2327 6.19649 -13.4594 10
690 1 10.4551 10.7686 -7.17998 9
691 1 -5.45623 2.37209 0.46727 23
692 1 -9.99368 4.46945 -7.80035 20
693 1 2.77421 4.1227 -8.15444 23
694 1 5.53186 2.54361 7.31828 19
695 1 6.41797 -0.419114 7.92003 19
696 1 -7.07159 -14.8095 5.46939 15
697 1 -6.67933 4.12987 -18.9876 17
698 1 0.301629 12.9498 7.41133 11
699 1 3.37798 -8.94966 -18.3259 14
700 1 2.95544 1.61745 2.7863 21
701 1 3.38762 12.5614 -8.41354 17
702 1 3.78667 10.0799 -3.37615 17
703 1 11.8839 -6.94988 -11.3243 13
704 1 5.29991 4.52509 12.697 8
705 1 -17.3401 -6.06998 4.27929 12
706 1 -3.43765 -17.8668 -4.59466 17
707 1 -4.46178 -4.81327 -15.3743 21
708 1 -8.80427 15.0804 -4.2416 10
709 1 -4.34564 6.96269 4.70113 18
710 1 -1.84288 -6.43407 -15.909 18
711 1 -1.53772 8.08531 3.88795 19
712 1 -17.6135 -3.65313 -3.13337 18
713 1 -3.58014 1.36252 10.32 19
714 1 -8.74784 5.35692 -16.353 20
715 1 -8.67217 5.77429 -19.2828 16
716 1 -0.18048 -13.6289 -2.92508 22
717 1 0.146583 3.46856 -14.9776 22
718 1 0.146032 -5.8696 0.0668223 22
719 1 -5.39028 6.75114 -2.58496 20
720 1 -14.6453 3.1431 4.88005 21
721 1 4.03514 -0.894904 -17.8447 20
722 1 -1.77327 -15.905 2.94205 17
723 1 -1.35174 12.7563 -3.71503 21
724 1 -7.88625 2.63633 13.7011 12
725 1 -12.6497 -7.55921 -17.0465 18
726 1 -7.06239 -8.68982 -18.476 17
727 1 -9.36905 -12.8479 -13.834 15
728 1 -7.6576 13.8736 -12.5268 10
729 1 2.0557 -6.36538 -17.4418 18
730 1 -6.23353 12.1953 -0.431549 21
731 1 0.613042 -11.7859 -14.5549 22
732 1 3.73635 -17.0606 -4.40058 17
733 1 -0.163858 -7.42872 2.85778 20
734 1 12.9255 1.91895 -15.1329 12
735 1 -1.56728 -14.6814 -5.97316 21
736 1 -13.9756 -2.78631 1.64704 20
737 1 -0.811173 -1.95269 -13.3661 21
738 1 -11.1371 -16.9348 -3.47714 19
739 1 -10.7672 -14.1128 -11.2568 15
740 1 -8.77255 -0.428677 3.20004 21
741 1 -13.8075 -18.0744 -3.58932 12
742 1 15.0114 2.9681 -12.2906 8
743 1 -10.9626 12.9052 -3.18609 14
744 1 -7.19486 5.75724 -0.0055585 21
745 1 -18.0129 10.0493 -2.0087 12
746 1 6.48814 -5.57769 -0.27633 24
747 1 -16.9144 -2.44526 -16.9537 12
748 1 -2.06922 11.1893 -12.8847 20
749 1 4.72709 0.628484 -9.00459 17
750 1 5.14033 10.6868 9.17259 10
751 1 9.94641 0.140897 -6.08996 20
752 1 -14.6261 3.8117 -17.4368 9
753 1 -13.9706 -5.73337 -11.81 19
754 1 -4.95215 1.03423 13.0957 10
755 1 -1.70257 7.32351 -13.3217 22
756 1 6.1214 11.0906 0.52601 17
757 1 -4.76984 -2.5398 5.97516 25
758 1 -8.9416 -16.9111 -6.60197 20
759 1 -12.016 -16.9955 2.54028 13
760 1 -6.66597 -7.49822 2.78583 25
761 1 9.78942 8.27809 3.23507 12
762 1 -0.246971 -7.67848 -13.3761 21
763 1 -10.8306 5.17553 -11.7512 23
764 1 1.19972 9.12059 -5.3185 21
765 1 -8.36499 -8.21193 0.36125 21
766 1 10.6189 3.90312 -16.2005 12
767 1 -4.28495 -18.1978 -10.1581 20
768 1 -5.78332 -18.5475 -6.94905 12
769 1 -4.69263 -14.4385 -4.65279 21
770 1 2.9823 4.32838 -13.2765 18
771 1 0.129128 16.3624 -4.69707 8
772 1 -4.01648 -0.586214 -18.1746 20
773 1 -2.90352 -3.13475 9.4253 18
774 1 -0.587488 4.33862 -17.3235 18
775 1 -14.7087 -2.3286 -18.9595 15
776 1 -12.8563 -3.62277 -8.56584 19
777 1 -2.2105 14.9655 -11.0754 12
778 1 4.8669 -3.10056 -5.08812 21
779 1 -7.16904 -3.83642 -21.209 20
780 1 -8.23704 -8.6508 -5.10582 21
781 1 4.33098 3.05206 -10.4005 21
782 1 10.6432 -10.0047 -10.2618 13
783 1 -13.5887 3.24236 7.72051 18
784 1 7.00724 -13.2924 -2.30923 15
785 1 10.0649 -7.45926 -8.50711 16
786 1 11.5382 -2.25966 -0.685307 16
787 1 -3.79114 10.1541 3.61729 20
788 1 -12.7552 -1.58322 7.18174 23
789 1 -11.7177 5.99928 3.08527 21
790 1 -9.77798 -17.654 0.312022 14
791 1 6.53541 -1.68145 -2.76905 19
792 1 2.93975 7.97405 8.45121 25
793 1 -17.1288 -0.998452 -1.23151 21
794 1 1.88843 -9.82099 -12.8083 22
795 1 -19.3923 10.2769 -9.51599 6
796 1 -2.25058 6.6119 -2.57359 22
797 1 -1.95439 -16.0684 -2.79414 19
798 1 0.891756 0.0313798 7.23034 18
799 1 -3.30913 10.9427 0.894475 20
800 1 -0.988339 -14.494 0.196258 23
801 1 -15.1545 -5.59385 -8.63671 18
802 1 -2.40524 -0.681093 8.18815 22
803 1 -18.2041 -3.75415 -11.039 12
804 1 -0.0893301 7.69901 11.5845 13
805 1 -2.12288 10.038 -6.14495 17
806 1 -14.804 -12.4454 -1.94486 19
807 1 -6.559 -12.9727 -2.64833 20
808 1 6.43398 -7.68226 2.72501 16
809 1 8.92953 -8.63625 0.476144 13
810 1 4.30614 6.07219 3.10563 21
811 1 -6.86636 4.1106 -7.55635 20
812 1 -1.47299 -10.3882 -12.194 21
813 1 -0.812242 -0.396671 -17.9601 21
814 1 -7.59068 -3.13601 5.96902 22
815 1 -7.24251 15.2404 -1.11639 14
816 1 12.7086 -1.30004 -3.32922 17
817 1 3.98277 12.9372 -11.6442 10
818 1 -7.1011 5.97757 12.6052 13
819 1 6.25538 4.04489 1.65694 16
820 1 -1.83435 -7.75525 -20.815 14
821 1 -11.3868 -12.4623 -7.09536 20
822 1 -8.32121 -4.52252 -8.69699 22
823 1 9.83115 -5.50187 -0.330345 15
824 1 -5.34225 -2.02765 -15.616 20
825 1 -5.01119 5.20356 7.39333 21
826 1 9.96743 -12.5518 -8.95946 12
827 1 2.43806 -3.27875 -18.8533 19
828 1 -5.02302 -10.7397 -7.76041 23
829 1 7.74651 5.02612 -15.2797 16
830 1 11.5404 -2.62526 -6.38102 18
831 1 -1.87054 -7.87052 6.28067 21
832 1 -8.00082 -13.8315 -11.0957 21
833 1 6.49059 10.9717 -7.22783 16
834 1 -1.50711 -10.3569 3.22778 19
835 1 -18.1888 7.16269 -0.655979 15
836 1 9.38618 0.157646 -12.0012 19
837 1 11.3619 3.74738 -1.31139 16
838 1 -1.82352 -10.2869 -15.1784 23
839 1 -10.2488 11.2791 1.92494 16
840 1 9.27115 5.79943 -0.443338 17
841 1 1.79389 10.8085 -11.2637 20
842 1 6.68234 -2.09595 -19.9948 12
843 1 5.15613 -8.33812 -5.61097 22
844 1 -12.9022 2.39095 -7.409 21
845 1 5.81301 6.7963 0.227264 19
846 1 -16.5863 -10.771 -4.91177 16
847 1 -13.4161 4.76205 -13.0065 16
848 1 1.46487 4.46696 3.22643 22
849 1 -18.807 -3.02693 -14.6905 10
850 1 -17.3286 5.19376 -3.63216 17
851 1 -4.90407 1.35176 -13.2947 21
852 1 9.17198 -9.41809 -15.7156 11
853 1 -15.8536 -10.8932 -11.6759 13
854 1 8.29889 -9.88189 -7.82774 19
855 1 -18.8807 4.36281 -7.92316 10
856 1 -14.9748 -3.31494 -11.2473 19
857 1 5.75232 8.89522 3.00982 20
858 1 -8.30352 -10.6205 1.91555 18
859 1 3.43694 -1.72008 8.33307 21
860 1 12.4598 -0.693079 2.0815 11
861 1 5.1303 -2.68966 0.337383 23
862 1 -11.9908 2.43501 -4.85696 20