ITEM: TIMESTEP
11000
ITEM: NUMBER OF ATOMS
2000
ITEM: BOX BOUNDS pp pp pp
-30.0 30.0
-30.0 30.0
-30.0 30.0
ITEM: ATOMS id type x y z Coordination
1 1 -10.5657 6.40536 -16.4274 11
2 1 -5.93202 -8.91348 -6.23505 24
3 1 3.41262 11.1859 11.6665 17
4 1 7.76826 -13.1526 5.78687 9
5 1 -12.0656 11.5227 -7.97046 12
6 1 7.10445 -7.34709 -11.9708 20
7 1 -12.5017 4.44074 -8.96318 22
8 1 0.339107 -10.038 9.93159 10
9 1 -12.2608 0.0615491 -12.7795 16
10 1 -14.6975 -9.68394 3.49109 13
11 1 11.5765 2.02494 -13.1929 17
12 1 -8.13765 1.15347 -2.68229 19
13 1 -6.28513 -13.1679 -3.09717 18
14 1 -15.7802 -9.89761 0.816692 14
15 1 0.293164 2.58135 14.2816 19
16 1 6.02747 -6.20191 5.20896 18
17 1 -2.11101 2.45949 6.91582 22
18 1 7.28722 -3.01331 0.918854 23
19 1 -0.575807 9.98628 -8.06112 20
20 1 2.76626 -2.38418 10.7272 19
21 1 -9.21658 -0.0984612 -17.2932 18
22 1 -10.7622 -3.73204 10.0331 14
23 1 11.1786 6.76946 5.50519 24
24 1 3.36922 9.57754 -14.4957 17
25 1 2.67821 5.60312 -9.2461 18
26 1 12.23 2.92714 9.51891 17
27 1 -10.8471 -1.4162 1.4776 20
28 1 -14.4737 4.84887 -11.6968 13
29 1 -4.32286 -1.41563 -10.1995 19
30 1 -12.9253 8.07623 5.64052 20
31 1 6.16897 -13.9197 3.51263 14
32 1 1.43673 -2.66475 6.20948 20
33 1 -0.0608534 -14.9623 -12.6091 11
34 1 10.0003 -14.6498 -0.60773 11
35 1 -8.28702 -14.771 -4.92032 15
36 1 -12.5814 -6.17933 8.56981 14
37 1 1.38455 -4.72497 -7.19387 21
38 1 -1.65148 -9.02393 -12.1056 18
39 1 8.59288 -7.60588 -15.8326 12
40 1 -1.59441 5.73077 -16.7179 20
41 1 0.399393 4.18166 11.123 22
42 1 -7.8356 -11.5054 -0.801264 23
43 1 5.84777 -7.45404 9.15754 12
44 1 -12.5246 1.51486 0.615414 20
45 1 -17.005 -0.955098 6.7924 11
46 1 -13.2939 1.34053 -3.55065 13
47 1 -2.04501 10.9492 -5.13825 21
48 1 -2.65353 -14.6331 -11.9214 11
49 1 0.813355 -0.533741 -11.6043 21
50 1 2.56245 -11.6048 -9.55833 23
51 1 -1.59061 -4.57515 10.981 15
52 1 -14.7925 8.87555 -3.36444 20
53 1 7.47815 11.4367 -12.9835 12
54 1 -0.107784 13.8682 10.7437 10
55 1 -9.83112 4.52447 -9.88682 19
56 1 -6.34813 14.2577 1.77692 16
57 1 3.9961 -12.8528 2.17799 18
58 1 4.98322 -5.52562 -10.7919 19
59 1 0.250079 -8.86668 -17.6583 10
60 1 -11.2497 7.90727 8.66323 18
61 1 -15.1532 -4.87392 -10.6234 12
62 1 5.72721 1.27181 3.0979 22
63 1 -8.89669 6.92765 -6.01236 17
64 1 -7.48726 -10.6989 2.05416 21
65 1 -5.29983 10.3397 12.7103 12
66 1 -14.9308 4.23538 -7.62809 15
67 1 -9.2202 8.3007 10.8517 17
68 1 1.43661 5.60544 -3.59432 22
69 1 0.840736 6.65146 6.29007 26
70 1 -9.71587 -15.5855 3.05003 16
71 1 0.105925 8.36302 11.8546 20
72 1 7.56786 -11.847 -5.51917 21
73 1 4.03744 10.9724 14.3139 13
74 1 -9.55071 4.61851 -14.3632 20
75 1 -11.6099 2.86786 -12.0814 18
76 1 3.6059 3.16942 9.0521 22
77 1 6.28473 -2.26756 -10.7253 21
78 1 9.55234 -13.5277 2.86517 10
79 1 -17.8859 -2.07681 3.39039 9
80 1 -10.9881 -0.339856 -1.5025 20
81 1 3.23303 10.5281 3.92247 23
82 1 6.36776 -6.29458 11.9326 12
83 1 -11.4024 -11.3341 -0.92117 19
84 1 -11.3555 -3.73152 -0.850536 21
85 1 14.3964 3.11052 4.97214 16
86 1 8.20476 0.0116365 -5.17684 21
87 1 -4.54546 12.0028 9.29561 16
88 1 5.71232 -0.205161 6.76353 20
89 1 -8.26678 -3.00648 -1.01914 21
90 1 -6.49435 -5.83569 -7.38395 19
91 1 -14.746 10.1759 6.78928 8
92 1 -9.58076 10.2343 -6.66035 18
93 1 -2.35662 8.52279 -11.57 18
94 1 5.14594 -0.572633 -4.42476 22
95 1 2.98987 -1.71003 -6.87531 21
96 1 9.60172 11.7718 -10.4675 12
97 1 9.30893 -6.10174 0.725585 22
98 1 3.75235 -10.531 4.00545 19
99 1 -5.82988 12.8681 -10.2554 15
100 1 -9.03578 12.3705 2.73201 14
101 1 -7.8623 -0.985978 6.98903 22
102 1 -4.99005 9.29113 1.3985 17
103 1 -4.48837 -4.82844 11.2332 15
104 1 9.00069 -4.77184 -10.5811 17
105 1 -7.34184 5.24059 0.788675 18
106 1 -12.608 -15.2567 1.07154 12
107 1 6.50168 -6.85878 -8.48858 18
108 1 8.79194 -3.05564 -15.951 16
109 1 -6.36161 2.07964 -18.9691 12
110 1 3.76848 -1.49104 3.95848 25
111 1 -1.4625 14.1376 1.59747 18
112 1 -6.23068 5.62832 -6.31656 18
113 1 -2.28552 6.51526 16.1131 14
114 1 -1.52235 12.8525 -7.40191 20
115 1 -14.5149 13.1472 0.0265175 9
116 1 -1.16357 6.83168 3.79799 20
117 1 -5.30444 -9.13494 7.65479 24
118 1 12.3978 -1.91123 5.43457 18
119 1 -1.33517 -6.48757 -10.0126 20
120 1 2.44655 -9.0292 -7.44733 21
121 1 -5.04813 2.08915 8.01433 20
122 1 4.59181 -4.08032 13.3641 12
123 1 -13.3899 -6.27061 -5.81624 18
124 1 5.63006 -4.53594 3.12134 24
125 1 -11.4772 -8.21346 -4.82413 15
126 1 10.7574 -6.6791 -1.87809 20
127 1 -4.04891 7.39022 -1.56492 21
128 1 8.46382 6.09311 -14.4731 13
129 1 3.69898 16.1811 -6.82158 11
130 1 -9.59733 -12.0272 9.83861 12
131 1 -10.8298 -14.8385 9.28906 7
132 1 -5.91513 4.68671 -1.71607 20
133 1 3.3705 -10.0514 -15.3759 14
134 1 3.44273 2.60278 -4.48627 22
135 1 9.75528 -9.44407 -1.96485 20
136 1 -6.02337 -14.7126 6.1622 16
137 1 -12.5546 -9.04118 0.161603 20
138 1 12.6832 7.32351 8.86162 14
139 1 11.4979 -3.42248 -9.15082 22
140 1 -16.7379 -1.63301 -2.63305 11
141 1 9.84333 9.37796 1.04724 19
142 1 12.6072 8.66132 0.243856 17
143 1 -7.96559 1.08913 12.2799 17
144 1 6.88038 4.3745 -2.66067 21
145 1 -7.07141 9.87601 9.61859 19
146 1 -6.89986 10.2225 -8.55961 15
147 1 -4.11051 -7.80925 -12.9277 18
148 1 10.4969 -12.958 -7.3446 11
149 1 1.6239 15.7909 -11.2235 9
150 1 10.0365 -4.76081 6.67986 17
151 1 -3.21202 -3.83438 -19.3599 12
152 1 -5.33182 9.0407 -10.3999 20
153 1 10.0814 4.57362 -2.61196 20
154 1 -10.9953 7.13959 -7.98214 22
155 1 -10.4226 12.109 -4.65681 18
156 1 5.73604 1.09529 -10.4676 21
157 1 9.70377 -10.2224 3.70859 14
158 1 -4.06306 1.1284 -8.86314 20
159 1 -5.29443 14.701 7.72613 13
160 1 9.63758 5.13827 -7.9164 19
161 1 6.7982 12.0247 -2.59318 22
162 1 -4.36043 16.083 -3.66568 13
163 1 13.6598 7.5001 -3.6585 16
164 1 -2.4915 9.82915 -2.1419 17
165 1 -0.50542 13.4984 -10.5465 21
166 1 1.61854 13.1448 -12.3445 16
167 1 -17.5218 -7.66503 2.41348 8
168 1 -17.2717 9.55203 -5.05396 10
169 1 -3.78047 -4.76666 -11.7924 18
170 1 0.483409 -9.58128 -14.5831 17
171 1 8.03556 13.527 5.93559 13
172 1 0.53112 15.2623 5.39485 15
173 1 -13.1574 -1.90399 -3.21957 16
174 1 -11.3577 12.7127 -1.54579 11
175 1 14.3541 -2.87691 -7.01216 14
176 1 -11.8529 1.14361 -16.4209 12
177 1 6.36456 -2.6223 11.7712 17
178 1 1.54561 18.4324 1.06503 11
179 1 -2.83054 7.57495 6.76077 22
180 1 -1.67731 -7.44778 -15.1833 18
181 1 -7.26206 11.3188 7.46917 20
182 1 -3.06216 8.28517 -4.78798 18
183 1 3.03189 -6.04149 11.0629 14
184 1 -16.5446 -7.1947 -0.884098 14
185 1 -4.92764 -12.424 -10.8035 16
186 1 -4.04496 5.96145 -10.0257 20
187 1 -1.33085 -9.66736 3.65473 23
188 1 3.40077 -14.9429 -4.36739 16
189 1 -5.06521 9.96711 -15.9203 11
190 1 -15.4551 2.13342 5.99468 16
191 1 2.93949 6.46941 -6.26288 18
192 1 8.81002 7.91903 -6.60176 23
193 1 -8.31463 3.11275 14.5792 12
194 1 -2.42375 -14.5232 6.42401 16
195 1 -9.57834 2.6286 0.486485 19
196 1 -0.204449 16.3505 3.30126 16
197 1 -1.13034 4.81001 8.24724 23
198 1 11.3047 4.13409 12.9565 10
199 1 -9.75994 10.1483 0.0645099 20
200 1 9.51949 -5.41301 -13.7162 18
201 1 -7.27317 12.8673 10.038 9
202 1 -6.52964 -0.326805 -7.3423 20
203 1 11.8603 -3.93643 -0.93528 20
204 1 -8.89215 -1.29044 4.25676 21
205 1 -16.0758 -0.388695 4.39962 19
206 1 -9.61827 -9.06738 0.672644 20
207 1 3.97477 2.33806 14.5922 15
208 1 -17.9928 3.9243 -2.7852 11
209 1 -5.11188 -14.2052 -0.929528 20
210 1 -7.77592 -1.58155 -4.66287 24
211 1 5.22292 -5.92734 -4.39551 17
212 1 -7.91197 7.5682 -0.923818 20
213 1 -9.58486 1.16578 6.45405 24
214 1 6.37488 13.1341 8.90325 14
215 1 -11.8498 2.14281 -6.84643 22
216 1 -4.21383 10.8606 -12.942 18
217 1 -14.6577 -3.62666 -7.61291 19
218 1 -10.5842 -1.42264 7.79351 22
219 1 -1.11541 -11.4863 6.79426 22
220 1 2.11759 -15.2565 3.44047 13
221 1 -12.6846 10.2145 0.635176 21
222 1 14.173 2.02676 1.89504 16
223 1 1.33466 1.18742 -6.52093 22
224 1 -8.83813 -2.99028 -16.7791 15
225 1 3.18085 -0.0641746 8.08419 21
226 1 4.09638 -13.4075 -1.76228 19
227 1 -2.50556 8.77432 -15.3858 15
228 1 2.34867 -13.9902 -11.2714 15
229 1 6.83864 -1.41821 -14.2697 19
230 1 3.3952 3.13613 -14.6779 21
231 1 -8.73913 -6.18924 -10.0852 19
232 1 -3.79871 13.9797 -12.5493 13
233 1 -13.3061 -11.3216 5.86116 13
234 1 10.1208 10.8816 -6.9528 14
235 1 -10.4639 3.1975 12.0527 14
236 1 -7.63751 13.1065 -7.39349 13
237 1 5.95714 1.45542 9.45671 21
238 1 -7.69918 -6.49057 -16.2247 13
239 1 -6.18993 8.21126 -13.6001 19
240 1 -0.117494 2.61711 -9.43679 20
241 1 -11.1971 -12.5649 7.12889 17
242 1 -11.9591 5.65371 3.57999 21
243 1 -6.40627 9.68709 4.65182 22
244 1 0.454071 -14.1896 -8.61541 15
245 1 -8.20384 -14.241 -1.84164 19
246 1 10.0446 -6.42913 -7.99051 21
247 1 2.34582 -6.16665 0.870216 20
248 1 7.64645 6.44558 10.7093 20
249 1 5.36526 9.231 -12.3701 19
250 1 1.93272 9.22605 -3.84356 19
251 1 -14.5526 7.60566 -0.894655 19
252 1 -16.4241 11.7826 -3.44192 12
253 1 0.595461 2.08671 9.18296 27
254 1 2.50559 -15.8474 -1.60283 13
255 1 11.9335 1.09617 -4.33017 23
256 1 -1.16933 4.58534 5.68399 20
257 1 -13.109 7.92308 2.23694 20
258 1 -15.5562 -4.14148 -4.74654 15
259 1 5.68606 3.11388 -12.6524 15
260 1 1.31088 -4.70441 8.90266 18
261 1 6.40593 8.38221 -14.8117 14
262 1 4.35848 -12.2049 -4.15242 20
263 1 -7.37565 -0.385294 -12.8063 14
264 1 0.736934 -16.9974 1.16095 12
265 1 11.6898 -0.573297 -11.227 16
266 1 -14.0798 -5.99292 -0.27803 19
267 1 1.82768 -12.1344 -6.16309 19
268 1 -14.0201 1.49112 -9.98533 23
269 1 0.368789 14.0661 -3.09842 19
270 1 -1.68299 -2.35041 -14.1121 20
271 1 5.56981 5.4492 13.4487 20
272 1 15.0218 1.82411 -3.2347 16
273 1 -4.39113 -6.2621 0.774871 22
274 1 11.2271 -5.74755 -15.9531 8
275 1 -2.55173 -9.14746 0.725976 21
276 1 -8.93202 -5.01149 -14.0604 14
277 1 -14.866 1.84264 -13.1268 13
278 1 -5.92132 -12.7136 3.92722 22
279 1 9.10166 -0.704401 6.09474 18
280 1 7.38781 -4.32867 8.6315 18
281 1 -7.85926 -9.06935 -14.2634 13
282 1 -0.994001 -6.23576 6.01834 21
283 1 0.658793 4.66338 -14.2006 19
284 1 8.47629 9.47753 -1.40642 17
285 1 -7.7632 -6.15756 0.755931 21
286 1 -1.77462 11.0439 2.21769 21
287 1 -9.55186 3.81922 4.81536 22
288 1 -12.6631 -8.89629 -11.4954 10
289 1 -6.81488 -6.53809 -12.7525 21
290 1 -2.4892 5.83864 -19.2542 11
291 1 -7.47123 -8.83821 -8.91793 21
292 1 -9.73222 -9.41989 -2.25453 18
293 1 5.97874 -5.1328 -16.9199 12
294 1 9.20642 -2.51 -12.3764 21
295 1 11.6921 -1.10627 0.128799 19
296 1 -1.03852 -6.37939 -4.44601 20
297 1 -9.94086 -4.13166 6.10785 20
298 1 -6.8124 -10.3154 -3.13487 18
299 1 9.94668 5.21331 8.0154 18
300 1 -4.81903 -16.5678 1.08752 16
301 1 -3.06421 -14.0836 1.46306 20
302 1 -4.30209 14.1526 -6.03343 17
303 1 6.82251 2.76376 -18.4127 10
304 1 -12.1835 -2.0184 -17.4407 11
305 1 4.15278 -7.06398 -1.87913 25
306 1 -11.4741 -9.66657 8.34674 17
307 1 1.40042 6.87362 16.8477 11
308 1 3.13474 -9.80136 -1.99308 23
309 1 -6.77366 -10.127 -11.3817 21
310 1 -8.29423 1.45631 -8.97881 18
311 1 11.9111 0.858348 4.60809 20
312 1 -5.29777 1.69862 -12.1083 19
313 1 1.06585 11.7 -14.9237 11
314 1 -6.9161 -4.18769 5.58887 23
315 1 10.7735 -9.57147 -8.28551 16
316 1 -7.23103 14.2617 -4.74319 12
317 1 1.56491 11.0251 1.61672 19
318 1 11.7597 1.34016 1.66887 22
319 1 -15.0744 3.07794 -0.103254 19
320 1 -2.34156 -8.03606 11.0121 14
321 1 -7.56506 7.70274 2.69802 21
322 1 1.94111 -2.18728 -14.8023 20
323 1 12.2735 8.67938 -6.39536 18
324 1 3.7851 -8.6852 1.00804 21
325 1 -3.01865 -1.50276 11.453 18
326 1 -15.2243 -3.97198 3.90716 17
327 1 3.13451 -16.2463 -7.73811 7
328 1 -9.22883 5.84139 13.2286 15
329 1 -13.2838 3.00412 9.66482 16
330 1 -13.8868 -4.6713 10.522 7
331 1 -12.9854 -5.21715 5.50187 19
332 1 11.3178 -2.02558 -5.65319 22
333 1 -12.899 -8.3233 5.98725 15
334 1 4.49422 -3.8825 -8.71394 21
335 1 12.2404 -7.54424 -10.6221 13
336 1 0.438902 15.9603 -5.04259 14
337 1 -4.53608 -4.0985 3.2206 22
338 1 -13.2461 11.4057 -5.30452 16
339 1 0.726024 0.210937 6.37557 22
340 1 5.99254 9.89554 9.63459 25
341 1 -12.0462 -4.68298 2.7997 20
342 1 9.95998 -10.8646 -5.01365 20
343 1 -7.0537 11.0171 1.39957 20
344 1 -12.8447 4.97253 0.507047 20
345 1 3.87561 -14.1749 6.20044 10
346 1 12.2682 -5.95668 1.52772 14
347 1 -5.83607 7.71451 6.39095 21
348 1 -6.88409 -3.11845 -9.02467 21
349 1 -5.1003 1.77221 14.5813 15
350 1 -2.75572 16.1794 5.8274 11
351 1 9.18679 6.44392 13.6233 14
352 1 -9.31058 11.2473 -9.76991 13
353 1 -4.1664 -2.23136 -16.1521 21
354 1 -5.42826 2.38932 -6.35534 22
355 1 4.60138 -12.5151 -13.2626 13
356 1 -15.9446 7.97275 7.896 13
357 1 -17.2429 4.56781 0.458664 13
358 1 -3.64002 -4.4204 -9.03926 18
359 1 -9.24668 8.93392 -3.38623 21
360 1 6.71267 -3.34573 5.89336 18
361 1 -14.3583 -12.6858 -0.381796 14
362 1 4.07199 -7.36038 3.36661 19
363 1 -8.02509 -9.38174 8.27029 21
364 1 -15.4192 10.4658 -1.19407 17
365 1 -3.39673 -6.11401 8.58829 24
366 1 -3.08286 -10.6755 -7.37421 18
367 1 -9.26121 -1.20096 -9.99829 19
368 1 4.09005 -3.45931 -19.4628 11
369 1 1.20301 13.4487 3.27328 21
370 1 -17.5086 1.23806 -1.09718 13
371 1 5.25407 -13.031 -10.0738 15
372 1 9.38215 2.9388 -15.7038 14
373 1 -8.70937 -10.1999 -6.33167 19
374 1 -15.6986 -6.3981 -7.35803 13
375 1 -2.61074 -7.29107 -2.02244 21
376 1 8.00808 3.60188 13.2288 13
377 1 12.4125 4.73079 0.524402 23
378 1 -7.97301 3.01429 -11.9292 20
379 1 0.460416 17.4677 -1.82398 13
380 1 -13.6463 -0.141257 -6.93061 19
381 1 -10.2851 9.42277 2.96298 19
382 1 -6.65373 9.86645 -1.70685 19
383 1 -4.70111 4.76896 6.50588 22
384 1 9.54285 7.81707 8.69111 20
385 1 6.255 -2.8254 -6.17417 18
386 1 10.5821 -3.68934 10.6811 14
387 1 13.829 0.109207 -8.76076 20
388 1 -9.80671 -16.895 -3.10794 13
389 1 1.5313 3.45812 6.63901 23
390 1 -1.53499 5.50745 -4.46424 19
391 1 1.25415 -9.54429 -4.54861 21
392 1 -3.09206 9.77861 4.90894 22
393 1 -16.2562 1.5422 -7.81231 13
394 1 6.58351 -9.67899 -2.99654 22
395 1 8.99755 1.56687 4.02158 25
396 1 -7.71325 -3.42173 -11.5963 20
397 1 -10.4373 -12.8364 1.10886 19
398 1 -6.6317 -6.02956 8.7659 21
399 1 -4.60248 11.8301 -3.63728 20
400 1 -14.625 -9.35442 -5.29612 14
401 1 7.36931 9.23678 14.4489 13
402 1 -13.0232 5.47795 -5.44613 22
403 1 -3.19823 11.5169 -9.86255 20
404 1 4.59976 8.91104 6.45494 19
405 1 -15.046 -6.93512 -3.55367 17
406 1 -5.75289 -11.3979 -8.18359 19
407 1 -13.6879 -0.605563 2.86437 18
408 1 -11.4612 9.7255 -10.4524 13
409 1 0.499863 -6.99203 3.33981 21
410 1 -3.29101 -15.5078 -3.13055 21
411 1 11.042 11.9386 5.93208 15
412 1 3.76281 4.76335 -18.0006 11
413 1 -7.51221 2.15677 -16.0288 21
414 1 -3.80896 10.6132 -7.36186 19
415 1 -8.85148 1.43242 -6.19285 20
416 1 -2.5313 -12.6835 3.81938 22
417 1 11.1033 4.17122 3.50449 20
418 1 3.27654 6.59657 -15.3941 19
419 1 -4.67282 -1.08665 6.45266 25
420 1 -12.3555 3.82721 -2.14129 16
421 1 -9.60635 4.7166 2.50349 21
422 1 -1.27827 -11.9413 1.24007 23
423 1 0.225594 -7.24589 -7.02652 20
424 1 1.49212 -12.531 -14.347 15
425 1 -1.37402 -3.54549 7.69764 22
426 1 -17.0642 4.3429 4.15378 14
427 1 -14.0693 -1.63941 6.56321 20
428 1 -16.0761 7.81713 4.44253 17
429 1 -5.88099 -8.92445 0.0223319 20
430 1 -9.57527 3.05371 -17.4519 13
431 1 5.36475 -10.2706 -8.04895 19
432 1 -2.02899 -11.6362 -9.9356 20
433 1 -4.5995 -3.10606 8.74401 23
434 1 2.01515 -6.29818 -4.43884 23
435 1 -4.47021 1.64513 -14.9735 19
436 1 8.13991 -12.1293 -2.44319 23
437 1 1.53334 10.6847 -6.24032 19
438 1 -13.0272 10.9659 4.06104 14
439 1 -6.37536 -1.91648 12.5482 13
440 1 -12.8749 -5.98199 -12.6785 13
441 1 -9.15761 -5.96899 3.72341 19
442 1 7.10044 -9.64332 5.38049 15
443 1 4.90301 1.54437 -2.49725 20
444 1 -6.38162 4.50045 3.75215 22
445 1 1.57326 -2.76501 -9.46788 19
446 1 7.42373 -7.61276 2.74808 20
447 1 13.3924 5.52351 -6.47294 20
448 1 -2.0112 0.67302 14.4736 12
449 1 -2.23514 12.3145 -1.49154 18
450 1 5.78712 -5.98876 0.279595 21
451 1 -5.09146 -15.7239 -5.87937 15
452 1 -7.50917 6.14897 15.9801 11
453 1 0.575992 15.5593 8.64396 8
454 1 -10.752 -10.1643 -8.88122 16
455 1 6.32709 15.5708 -1.21723 16
456 1 1.76888 5.89433 9.09701 25
457 1 -11.1724 6.17923 6.14838 22
458 1 -8.83635 -4.45143 -6.12614 22
459 1 -16.066 4.33396 8.19673 13
460 1 -10.1508 -3.65672 -9.14176 22
461 1 -4.55323 11.3804 6.6108 22
462 1 -4.0894 -12.2551 -4.92789 21
463 1 -4.89309 -8.0666 -15.6721 18
464 1 -7.38545 -13.9884 1.06051 18
465 1 -8.13467 -0.303861 0.383753 23
466 1 6.63809 2.67581 5.89219 21
467 1 -7.97431 -3.8031 8.74279 20
468 1 -9.8723 8.06536 -13.9963 15
469 1 8.66099 6.02933 -0.160199 21
470 1 -11.8659 -14.8134 -5.15899 13
471 1 4.10537 2.70996 -7.87085 21
472 1 -1.4619 17.6119 0.752827 10
473 1 1.10281 4.03256 -6.66886 18
474 1 -3.95496 9.17613 8.43711 18
475 1 -17.3568 1.25961 -4.23276 13
476 1 -2.21976 16.6067 -6.64429 13
477 1 1.52639 13.5752 -6.31329 18
478 1 -9.79356 -7.07676 -7.30233 18
479 1 2.70536 3.53583 12.1541 22
480 1 -0.697134 -16.6031 -8.37085 11
481 1 -3.28411 -4.93915 -14.8497 19
482 1 7.56444 -15.3657 1.3591 9
483 1 -12.1036 10.1547 -2.51528 20
484 1 2.97489 6.6199 12.1421 20
485 1 12.474 3.72753 -4.03469 22
486 1 3.66921 11.8642 -4.04798 18
487 1 -7.35676 5.97723 -12.0201 20
488 1 3.76075 -2.53562 -12.105 18
489 1 -2.74395 -6.98569 3.46164 24
490 1 -15.1171 -3.98131 -1.86009 14
491 1 3.04472 16.3278 3.74035 12
492 1 -2.36441 3.07927 -14.206 23
493 1 8.00752 7.07565 -3.31416 21
494 1 3.65645 14.2725 -9.66344 14
495 1 8.34211 -2.75719 -4.43537 20
496 1 14.146 -0.383764 -5.62489 15
497 1 0.303194 2.08646 -12.5531 18
498 1 0.698852 -9.41978 1.14808 21
499 1 5.3828 -12.0279 6.28917 12
500 1 1.90977 -11.5373 7.04758 18
501 1 -11.045 1.74575 -9.55109 20
502 1 -7.75347 -11.9853 7.03851 24
503 1 -5.17166 -14.7033 -9.13852 11
504 1 6.82199 13.2966 3.06519 13
505 1 -0.714419 2.51427 -16.7985 22
506 1 5.53132 -1.89764 9.18392 17
507 1 -15.3405 0.934622 8.72983 12
508 1 -4.15522 -18.2907 -1.17691 13
509 1 -8.1912 -3.75403 2.4067 19
510 1 12.0043 -4.45322 -12.3863 13
511 1 10.2703 -1.34742 -2.57635 21
512 1 -2.87089 7.58631 -8.21184 19
513 1 -0.24123 -11.0686 -7.34165 21
514 1 3.03035 2.92097 -11.1264 19
515 1 8.64212 -0.449876 -10.1861 17
516 1 -4.93836 1.23988 11.4019 18
517 1 5.6305 17.0227 -4.24932 12
518 1 -6.32421 -1.721 -18.6057 14
519 1 -0.780451 0.616987 -19.2314 13
520 1 -7.542 -7.29405 6.38859 21
521 1 -4.59369 12.0051 0.00929923 17
522 1 -10.4611 -2.41126 -12.3203 15
523 1 -17.1543 1.51579 2.38364 14
524 1 -1.64827 -12.2743 -14.2815 14
525 1 -6.61339 -11.4558 10.188 15
526 1 5.61142 7.6924 -6.54485 18
527 1 14.4722 4.33227 7.98256 14
528 1 15.6367 4.68803 -4.17734 13
529 1 -13.3657 -12.3049 -3.69926 14
530 1 -0.105763 -10.6381 -1.67031 20
531 1 -6.6252 -0.816687 -15.4686 20
532 1 -10.0404 11.1876 8.78316 11
533 1 4.07725 -7.78512 -12.8302 19
534 1 2.2352 7.03631 -1.71524 19
535 1 8.88863 -3.76258 -1.40406 20
536 1 4.05402 11.09 -10.9365 21
537 1 6.91943 -8.66378 -0.236866 22
538 1 11.6818 4.38844 -11.3042 19
539 1 -0.0417129 5.57565 13.8505 23
540 1 -14.3034 5.50251 5.31629 22
541 1 3.58575 11.3899 7.99695 22
542 1 8.40804 -4.66703 12.9935 11
543 1 2.14153 1.9533 -18.6036 15
544 1 -4.17621 -6.07578 -4.53759 21
545 1 -0.14324 -1.24243 8.91667 22
546 1 6.28102 11.1997 6.33249 22
547 1 7.61162 7.01243 -8.96329 22
548 1 -13.8019 7.29018 -9.43093 13
549 1 -0.110863 8.2678 -5.94031 22
550 1 11.2362 -0.309466 10.7123 15
551 1 9.90498 -0.0791595 -15.2905 14
552 1 7.88757 -5.66761 -5.84825 19
553 1 11.5947 10.283 8.7214 13
554 1 -16.6746 -4.57923 1.04984 13
555 1 -7.94439 9.17349 -11.5034 17
556 1 -2.70754 2.87403 10.2981 24
557 1 -13.0516 -1.32917 10.0351 13
558 1 -2.18676 12.157 -14.7443 11
559 1 11.7447 -12.1569 -2.65406 12
560 1 5.87522 -0.546969 -8.13757 16
561 1 -5.5655 15.6886 -7.83372 10
562 1 -14.2695 -4.08192 -15.722 8
563 1 5.53905 -11.2021 -0.514823 22
564 1 -11.7225 -6.5592 -2.4172 20
565 1 -1.31077 15.2423 -12.9986 9
566 1 -11.3725 -0.574158 -5.15765 18
567 1 -1.94845 8.96425 14.0925 17
568 1 -10.4318 -7.3596 6.59505 19
569 1 5.69365 7.14616 -1.34519 21
570 1 4.4541 -8.95098 -5.07019 19
571 1 2.35462 -8.22848 8.52763 16
572 1 9.88579 2.92981 -5.55102 20
573 1 -15.018 4.88407 -2.72193 18
574 1 4.3222 4.7387 17.0728 11
575 1 2.9756 15.5578 -3.54953 20
576 1 8.899 -3.27482 -8.01721 18
577 1 2.80653 8.60252 9.65441 22
578 1 -0.180754 3.81075 -19.7568 12
579 1 -7.33979 -14.5141 8.66757 12
580 1 -1.11144 -0.417029 -9.34024 22
581 1 4.99981 -2.42777 -16.2926 20
582 1 1.33148 12.0747 6.31664 21
583 1 6.32369 6.17873 -12.1785 22
584 1 -4.84529 -1.61823 -13.318 24
585 1 -7.39005 -7.23751 -4.81516 19
586 1 -11.8844 -3.8563 -14.8953 15
587 1 15.8643 3.21469 -0.634176 13
588 1 14.8802 2.6789 -6.50782 16
589 1 6.29933 -10.0731 -11.2947 16
590 1 11.0249 7.7544 12.1025 12
591 1 7.54238 -8.72699 -6.11316 22
592 1 4.92576 -0.00140252 -19.5323 10
593 1 3.73413 13.4246 -1.43248 22
594 1 -7.95977 1.67782 2.98785 22
595 1 8.84115 9.26081 11.4111 16
596 1 11.3709 6.92532 -1.5191 21
597 1 14.4426 -3.27729 0.109038 11
598 1 10.6709 1.96234 -10.0781 22
599 1 8.27714 -1.04832 9.40256 20
600 1 13.3649 5.52708 10.9694 10
601 1 -3.27855 -3.93463 5.7839 23
602 1 10.3038 9.54458 -3.76323 19
603 1 5.46629 -0.470322 0.839958 22
604 1 2.6467 -0.188807 13.5813 12
605 1 14.7896 0.742612 -11.9034 10
606 1 8.90184 2.06953 7.86976 19
607 1 -9.42803 -1.65796 -6.97966 23
608 1 10.4908 6.56662 2.08319 22
609 1 10.5864 -4.63061 -4.0836 21
610 1 0.857886 -7.18986 -1.87981 21
611 1 -13.8687 9.06011 10.3779 9
612 1 8.60542 10.6799 8.18745 17
613 1 12.9167 0.999734 7.60344 17
614 1 0.342064 9.71762 4.50255 23
615 1 0.552608 11.3523 13.0869 12
616 1 1.221 4.18888 3.54723 20
617 1 -2.08198 -18.2943 1.986 12
618 1 -6.16806 8.21774 -4.0575 23
619 1 9.98357 9.09407 -9.18163 18
620 1 6.68488 -4.82357 -13.6469 23
621 1 -2.40128 15.347 -1.27427 17
622 1 -2.67166 -13.7362 -7.96862 20
623 1 7.3529 -10.0777 -13.8178 11
624 1 -14.2582 2.82766 3.14925 24
625 1 -6.25706 3.72141 -8.99665 20
626 1 -0.864851 -15.9327 3.82346 15
627 1 -6.47511 -3.85301 -14.7781 19
628 1 -15.6566 3.58055 -4.9387 16
629 1 11.1773 -8.80347 1.19759 13
630 1 7.0532 8.25414 1.25772 21
631 1 -0.773118 -13.085 9.09965 12
632 1 -16.2841 2.51613 -10.2749 11
633 1 -0.747426 -2.1097 -17.2134 21
634 1 4.20582 -3.47966 6.56261 21
635 1 -4.73847 5.57391 9.30273 20
636 1 6.11039 4.65458 -15.6059 18
637 1 11.2352 -1.94472 7.98108 17
638 1 8.48479 8.96596 -12.0635 18
639 1 8.86499 13.5546 0.185177 16
640 1 4.84394 -13.7727 -7.20671 17
641 1 -7.93688 -4.53105 11.6917 12
642 1 10.2309 -1.52575 3.1705 22
643 1 -8.36103 8.64337 14.014 11
644 1 6.67146 14.0235 -11.4318 11
645 1 -11.7633 8.50945 -5.1976 20
646 1 11.4657 13.3184 -2.25837 11
647 1 -12.4528 -14.8034 -1.90145 14
648 1 13.5168 -4.33482 -3.50736 14
649 1 3.6084 16.2378 0.827805 13
650 1 -7.68648 3.69882 7.32829 23
651 1 -11.1783 -6.6565 0.910334 20
652 1 -12.7135 -3.02107 -10.6432 19
653 1 5.70206 3.42341 11.5013 19
654 1 -3.01031 -10.4937 9.18386 19
655 1 5.06373 6.36205 9.6656 22
656 1 -7.48746 11.2161 -5.12236 16
657 1 7.64835 4.96068 2.91936 23
658 1 5.70198 -4.15897 -1.97759 23
659 1 4.34828 3.92615 3.77854 23
660 1 3.58683 -0.0831307 -12.3782 22
661 1 -10.6853 4.54674 8.78589 21
662 1 8.48061 3.72437 -10.833 20
663 1 -3.55951 -7.17821 -7.15338 17
664 1 9.37524 -9.20161 -11.204 14
665 1 5.78814 6.77693 4.44808 21
666 1 2.58527 7.14847 3.92692 21
667 1 -12.3251 3.10425 5.96792 19
668 1 6.24386 9.75843 3.78775 20
669 1 1.23591 -4.47213 12.7489 12
670 1 -6.28393 6.99988 11.3468 18
671 1 0.0635319 -4.68096 -15.2264 18
672 1 -8.24751 4.08078 10.2628 20
673 1 7.17923 4.34205 8.93419 21
674 1 -8.8793 -13.0232 4.38181 19
675 1 11.1324 6.23649 -5.05248 20
676 1 6.631 -14.8778 -4.58659 14
677 1 -3.2823 4.27552 -6.96371 20
678 1 5.58554 9.15638 -3.44784 18
679 1 3.7253 12.414 1.33795 18
680 1 2.09912 -1.29973 -18.1182 20
681 1 -1.73068 -1.07083 5.67941 21
682 1 -2.21484 14.1829 -4.28386 19
683 1 13.5841 10.7721 -2.30988 10
684 1 -9.16797 -6.15699 -1.89738 21
685 1 -4.35424 0.412509 -17.8026 18
686 1 -13.6691 13.2113 -3.05714 13
687 1 2.43697 -7.45271 -15.472 16
688 1 2.37237 5.34486 0.965721 20
689 1 12.1956 7.90354 -11.7437 11
690 1 12.9069 10.8312 -4.84683 10
691 1 -3.27676 3.90626 3.56838 19
692 1 -7.82232 5.5044 -3.86758 22
693 1 5.0611 5.79295 -4.12842 20
694 1 8.70777 1.80644 11.3949 18
695 1 9.04283 -1.42127 12.6801 13
696 1 -4.09609 -13.4134 8.85277 15
697 1 -3.50255 6.05352 -13.0538 17
698 1 3.2638 13.883 10.0909 14
699 1 5.97837 -7.7588 -15.3351 17
700 1 4.04177 2.08799 6.07368 18
701 1 5.54343 14.1096 -4.5612 19
702 1 6.17564 11.3444 0.575835 17
703 1 13.9359 -5.10352 -9.2929 14
704 1 7.3702 6.0401 16.1245 9
705 1 -15.6454 -4.28585 7.40473 10
706 1 -1.75939 -16.7205 -0.46247 17
707 1 -0.778917 -3.48065 -10.6765 20
708 1 -5.71687 16.5135 -0.337078 10
709 1 -0.673702 8.05279 8.74228 20
710 1 1.41153 -4.10635 -12.4909 20
711 1 1.54342 9.39633 7.17029 21
712 1 -13.6112 -2.932 0.356972 16
713 1 -2.63992 3.46385 13.1734 22
714 1 -6.16386 4.5402 -14.3939 20
715 1 -7.59341 7.60531 -16.3539 14
716 1 2.19742 -11.9714 0.259032 20
717 1 3.35387 6.39056 -12.5627 19
718 1 2.45678 -4.53494 3.72035 22
719 1 -2.27135 8.34044 0.746339 17
720 1 -13.6156 6.08152 8.47161 20
721 1 6.65508 1.33544 -15.3854 18
722 1 0.568076 -14.1181 5.60585 19
723 1 1.554 14.1678 0.0720936 17
724 1 -4.83729 4.68298 15.4064 16
725 1 -10.0797 -7.85124 -12.7847 13
726 1 -4.93399 -10.6641 -13.8275 12
727 1 -8.01364 -12.268 -9.86743 15
728 1 -3.3393 14.8324 -9.56548 13
729 1 3.97655 -4.9882 -14.4292 21
730 1 -4.25847 12.9966 3.23214 21
731 1 2.98854 -10.0991 -12.4546 21
732 1 6.77158 -14.592 -1.88567 14
733 1 2.06178 -6.19656 6.28993 19
734 1 14.497 4.14345 -12.733 10
735 1 1.25959 -12.7511 -3.10335 22
736 1 -11.2564 -1.78895 4.91197 21
737 1 2.49487 0.168895 -9.33807 22
738 1 -7.73242 -17.1713 -0.721867 16
739 1 -9.90334 -12.9466 -7.48314 13
740 1 -6.86374 1.29303 5.55808 22
741 1 -10.618 -17.4945 -0.248363 11
742 1 14.747 6.37214 -9.63068 8
743 1 -8.62701 14.209 -0.366784 10
744 1 -4.41535 7.09712 3.81107 22
745 1 -15.5783 10.6337 2.03014 11
746 1 9.11055 -4.51661 2.91423 19
747 1 -14.5955 -2.11775 -12.8797 14
748 1 1.47129 11.4605 -9.40601 20
749 1 6.57293 2.51645 -5.32355 19
750 1 6.76424 11.7006 12.0457 12
751 1 12.0013 1.90975 -1.71407 22
752 1 -12.3617 5.99321 -13.4366 9
753 1 -12.3717 -6.3582 -9.59693 18
754 1 -1.9402 2.94821 16.2498 12
755 1 0.709261 7.88174 -10.0264 17
756 1 9.35109 11.7104 3.31875 17
757 1 -2.63026 -0.207148 8.85896 24
758 1 -6.30976 -16.3818 -3.06118 17
759 1 -9.06212 -15.2941 6.21314 15
760 1 -5.03931 -6.32517 5.39981 19
761 1 13.3024 9.41473 5.84143 13
762 1 1.84942 -6.28945 -10.0757 25
763 1 -7.41101 6.53502 -9.58063 20
764 1 3.84471 10.3382 -1.24318 20
765 1 -5.99781 -7.22642 2.79042 19
766 1 11.6393 5.12603 -14.1975 12
767 1 -1.77234 -15.3136 -5.58443 15
768 1 -2.17966 -17.871 -4.26256 10
769 1 -2.02148 -13.1385 -1.69874 22
770 1 5.73004 4.47261 -9.78657 22
771 1 3.62716 17.612 -1.64689 13
772 1 -2.12664 0.309084 -15.4575 19
773 1 -0.328443 -1.6285 12.2241 14
774 1 1.02381 5.54715 -17.4025 17
775 1 -14.2884 -0.707782 -15.1681 13
776 1 -10.1125 -3.35248 -3.40405 20
777 1 0.992278 16.0869 -7.89278 12
778 1 7.01839 -1.10577 -1.88711 23
779 1 -4.89789 -4.94151 -17.4513 16
780 1 -6.09977 -7.21945 -2.01415 20
781 1 7.10688 4.62744 -6.48283 19
782 1 12.9599 -7.69774 -6.90067 14
783 1 -11.7788 6.15211 10.8697 15
784 1 8.6653 -10.909 0.857376 19
785 1 12.5623 -4.90772 -6.53025 18
786 1 14.7549 -3.70884 4.61648 8
787 1 -1.19759 10.8631 7.47465 21
788 1 -10.5441 1.05176 10.1229 19
789 1 -9.17122 8.79169 6.14685 20
790 1 -6.85221 -17.1271 4.04679 10
791 1 8.84251 0.244435 1.12072 19
792 1 5.31337 8.44582 12.1197 21
793 1 -16.0943 -0.475271 0.535456 15
794 1 4.00752 -8.37596 -9.90658 21
795 1 -15.7394 12.5073 -6.20491 8
796 1 0.766695 8.24963 1.76483 18
797 1 0.362609 -14.4683 -0.184256 18
798 1 2.73734 0.576817 11.099 19
799 1 -1.76984 12.6474 4.90668 19
800 1 1.13486 -11.6051 3.5642 21
801 1 -11.868 -3.34864 -6.38571 17
802 1 -0.840503 0.913571 11.706 22
803 1 -16.57 -1.21069 -5.83075 11
804 1 1.78829 8.91394 14.1841 17
805 1 1.09505 11.3236 -1.60812 15
806 1 -13.3118 -12.2021 2.23815 16
807 1 -4.9861 -11.8147 0.486455 21
808 1 8.29923 -7.03895 7.00271 13
809 1 10.7162 -7.05572 4.21795 16
810 1 7.37551 7.01737 7.46214 23
811 1 -4.4197 5.25276 -4.13282 23
812 1 0.438594 -9.39481 -9.73047 20
813 1 1.57081 1.00061 -14.9384 20
814 1 -5.704 -0.789145 9.63148 21
815 1 -3.85422 16.0993 2.60616 14
816 1 14.7564 -0.0660175 -0.434272 16
817 1 7.08358 13.0716 -8.82101 12
818 1 -4.85716 8.06454 14.9611 14
819 1 8.58955 4.63403 5.51346 23
820 1 -1.37463 -5.65547 -17.8828 16
821 1 -9.81473 -12.0865 -3.94864 21
822 1 -5.45776 -3.10354 -6.25207 21
823 1 13.1495 -1.29479 2.50293 17
824 1 -2.76072 0.436356 -12.0819 20
825 1 -1.87292 6.10337 10.7094 21
826 1 12.9779 -10.8532 -6.03199 10
827 1 4.17743 0.111547 -16.8836 17
828 1 -2.90575 -9.13106 -4.85716 19
829 1 9.59675 6.23031 -11.4861 20
830 1 13.349 -1.22206 -2.63915 20
831 1 -0.255817 -6.93688 9.0724 18
832 1 -4.06517 -9.00618 -9.66333 21
833 1 9.05598 12.4595 -4.27935 15
834 1 1.02122 -9.11382 5.81418 19
835 1 -16.8236 8.12207 1.38557 14
836 1 12.0655 3.00783 -7.62132 21
837 1 15.1968 4.62067 2.00254 13
838 1 0.724128 -7.44331 -12.7294 18
839 1 -6.97188 13.2053 4.83456 17
840 1 13.2094 6.87586 3.01744 16
841 1 4.29399 11.9052 -7.68353 19
842 1 7.35175 -0.588046 -17.7573 15
843 1 7.79647 -6.83711 -2.82751 22
844 1 -10.1674 3.56569 -4.18279 18
845 1 8.34395 7.2057 3.86097 21
846 1 -15.5507 -10.0229 -2.21294 12
847 1 -10.5036 7.40601 -11.1485 17
848 1 4.20487 5.52515 6.76524 24
849 1 -15.5434 -1.20463 -9.95454 15
850 1 -15.1747 5.77411 2.05347 22
851 1 -3.2236 3.43734 -10.9113 19
852 1 11.4927 -7.73992 -13.7506 11
853 1 -13.6132 -9.12855 -8.25571 13
854 1 12.6295 -9.10863 -3.62794 12
855 1 -16.7174 6.32038 -5.15718 13
856 1 -12.1442 -1.08981 -8.87661 21
857 1 9.02213 9.63894 5.5662 21
858 1 -6.39392 -9.75799 4.84253 20
859 1 6.12503 0.285433 12.9555 16
860 1 14.3837 -1.49682 7.62461 11
861 1 7.05145 -1.48686 3.66331 22
862 1 -9.60743 4.92702 -1.44245 20
863 1 1.01048 11.03 9.97165 22
864 1 4.57736 7.64307 -9.65461 22
865 1 -3.01709 -10.6349 -16.5505 11
866 1 -5.77404 15.9965 4.63937 11
867 1 -12.0779 -14.055 4.29363 14
868 1 6.83695 10.8369 -6.11551 19
869 1 -2.9389 9.19749 11.1152 15