ITEM: TIMESTEP
172000
ITEM: NUMBER OF ATOMS
500
ITEM: BOX BOUNDS pp pp pp
-30.0 30.0
-30.0 30.0
-30.0 30.0
ITEM: ATOMS id type x y z Coordination
1 1 -9.24017 -0.672967 -5.61871 14
2 1 -6.39514 -4.36089 -5.57718 14
3 1 -7.63325 -7.58847 -4.79928 8
4 1 -8.42694 -3.08358 -3.18669 17
5 1 -5.04514 -7.40459 -5.93285 13
6 1 -6.29612 -9.11988 -2.107 11
7 1 -3.82866 -5.61324 -8.62223 11
8 1 -5.1208 -2.82456 -8.5762 13
9 1 -5.77364 -1.56502 -5.65986 22
10 1 -3.50553 -3.98914 -5.86071 25
11 1 -3.63944 -5.78815 -3.28781 20
12 1 -5.06532 -2.72335 -2.98572 23
13 1 -2.39125 -7.39295 -6.87023 12
14 1 -1.48513 -8.18211 -4.51033 16
15 1 -4.64264 -9.94105 -4.79748 9
16 1 -0.462515 -5.63024 -9.13659 14
17 1 -1.83615 -2.93269 -8.55189 18
18 1 -2.26287 -1.14449 -5.93871 24
19 1 0.0814507 -3.87441 -5.71354 18
20 1 -0.145952 -5.60444 -3.34974 19
21 1 -1.98056 -2.83667 -3.26496 23
22 2 -6.58799 -6.20457 -5.37305 13
23 2 -6.78384 -3.30697 -4.07025 19
24 2 -7.58011 -7.76643 -2.89669 11
25 2 -9.47539 -4.66071 -2.54835 9
26 2 -8.79633 -0.825396 -3.62361 16
27 2 -8.45658 -2.67235 -1.23296 20
28 2 -5.23868 -8.67456 -0.5212 13
29 2 -6.22256 -8.84325 -4.96702 8
30 2 -4.54385 -10.1574 -2.86059 9
31 2 -4.07418 -5.87618 -6.65102 15
32 2 -4.92399 -3.03884 -6.76523 20
33 2 -5.89667 -1.172 -8.61618 12
34 2 -3.53646 -3.73548 -8.73068 13
35 2 -3.61833 -5.87767 -1.26741 20
36 2 -4.88003 -2.81582 -0.947398 22
37 2 -5.30132 -0.803545 -3.38167 21
38 2 -3.93814 -3.90856 -3.88684 20
39 2 -0.585249 -7.51277 -6.38884 15
40 2 -2.0609 -9.0022 -0.834518 16
41 2 -1.85354 -6.56458 -3.39017 18
42 2 -3.45715 -8.48688 -5.5669 13
43 2 -0.0879446 -9.07098 -3.56532 16
44 2 -2.12345 -6.40912 -8.65413 12
45 2 -1.67876 -3.16648 -6.33523 21
46 2 -2.3905 -1.18508 -8.26562 19
47 2 -0.0286023 -3.83723 -8.69787 14
48 2 -0.467493 -5.75544 -1.42141 23
49 2 -1.95478 -3.00695 -1.1286 21
50 2 -2.06452 -1.05245 -3.65515 21
51 2 -0.186555 -3.55461 -3.75307 21
52 1 -9.76789 -4.04961 -0.60875 11
53 1 -8.18246 -6.1268 -2.22307 13
54 1 -8.49509 -0.823104 -0.783042 19
55 1 -6.73189 -3.72174 -0.469503 22
56 1 -6.94087 -5.60255 1.80068 16
57 1 -8.55928 -2.7044 1.87501 18
58 1 -8.86203 -0.5175 4.19054 16
59 1 -6.75772 -3.5905 3.80311 19
60 1 -7.35574 -5.71532 5.69243 10
61 1 -8.81779 -2.57532 5.84428 10
62 1 -5.30708 -6.62647 -0.828041 16
63 1 -3.78665 -9.90613 -1.07643 11
64 1 -5.28022 -8.75073 1.50429 13
65 1 -5.45896 -7.19915 4.23859 16
66 1 -3.55697 -9.95629 3.42222 9
67 1 -5.23195 -0.936576 -0.744371 23
68 1 -3.43204 -3.98261 -0.542671 24
69 1 -3.61562 -5.80039 1.79519 23
70 1 -4.91795 -2.56017 1.81498 21
71 1 -5.39487 -0.933639 4.23133 22
72 1 -3.34377 -3.96916 4.3384 21
73 1 -4.09923 -5.77229 6.74566 16
74 1 -5.68551 -2.88504 6.84415 18
75 1 -5.02698 -1.18248 9.28923 11
76 1 -3.55838 -4.20559 9.54669 12
77 1 -2.06421 -7.03578 -1.38948 19
78 1 -0.274734 -9.59872 -1.7684 16
79 1 -1.77539 -8.79117 1.16738 18
80 1 -2.02309 -6.96175 4.28516 19
81 1 -0.00129341 -9.22824 3.73672 12
82 1 -1.97602 -7.21198 8.35796 8
83 1 -1.79515 -0.935226 -0.759284 23
84 1 -0.272035 -4.06624 -0.697216 23
85 1 0.0359912 -6.04415 2.10436 24
86 1 -1.74007 -2.88697 1.83205 22
87 1 -1.93195 -0.737847 4.44717 19
88 1 -0.0119494 -3.90816 4.41042 21
89 1 -0.252323 -5.90764 6.17729 20
90 1 -2.20573 -2.66086 7.00462 23
91 1 -1.77532 -1.11963 9.82876 15
92 1 -0.414251 -4.22148 9.40106 15
93 2 -8.77994 -4.82389 0.716201 13
94 2 -6.73454 -5.48578 -1.04652 20
95 2 -6.76412 -5.60804 3.66645 16
96 2 -8.48206 -2.49848 3.91399 15
97 2 -8.56253 -0.909052 1.17656 21
98 2 -6.64503 -3.34483 1.52583 23
99 2 -8.65864 -0.593728 6.14044 12
100 2 -7.22269 -3.68651 5.95405 16
101 2 -5.21798 -9.01047 3.54051 11
102 2 -5.26691 -6.88133 1.52893 17
103 2 -3.43762 -9.78268 1.51162 12
104 2 -5.76843 -6.5307 6.11964 13
105 2 -3.72703 -5.92256 3.88003 19
106 2 -4.9295 -2.62421 3.79196 21
107 2 -5.04693 -0.761249 1.15803 25
108 2 -3.32021 -3.96113 1.56337 21
109 2 -3.09721 -5.96254 8.91212 12
110 2 -4.74534 -2.99584 8.62447 13
111 2 -5.50643 -0.893792 6.80546 20
112 2 -3.35666 -4.00587 6.28142 21
113 2 -2.04886 -8.90757 3.8593 14
114 2 -1.799 -6.58576 1.43028 21
115 2 0.355744 -9.51454 1.82953 13
116 2 -2.23032 -6.69287 6.38822 15
117 2 -0.0107735 -6.03242 4.11606 19
118 2 -1.72984 -3.01799 3.95848 24
119 2 -1.94216 -0.901701 1.38833 24
120 2 0.0588667 -4.14808 1.34904 21
121 2 -0.255128 -6.06901 8.71159 12
122 2 -2.017 -2.92299 9.17133 16
123 2 -1.89384 -0.544928 6.47985 21
124 2 0.155953 -3.92859 6.48869 23
125 1 -10.4364 -0.0232186 -2.81364 12
126 1 -7.1504 -0.0656848 -7.99926 13
127 1 -8.75688 5.57471 -5.20927 7
128 1 -7.39807 1.84889 -5.85637 17
129 1 -6.97888 0.235303 -3.31161 20
130 1 -10.2631 2.89824 -4.54319 11
131 1 -5.95888 6.48 -3.71615 17
132 1 -4.1254 -0.0918098 -8.41647 17
133 1 -5.62212 2.58846 -8.65495 13
134 1 -5.69407 5.00786 -5.88754 16
135 1 -3.67426 1.43571 -5.85565 23
136 1 -3.61219 0.236077 -3.104 24
137 1 -5.03724 2.97352 -3.32479 22
138 1 -4.00493 5.28888 -8.56541 11
139 1 -3.18214 7.5058 -5.83427 17
140 1 -3.28618 5.86732 -3.27103 23
141 1 -4.54456 9.16832 -3.04603 14
142 1 -0.542139 -0.098912 -8.23823 21
143 1 -2.1409 2.46953 -8.52021 18
144 1 -2.48094 4.57907 -5.87166 21
145 1 -0.657907 1.83266 -6.06982 20
146 1 -0.200606 -0.0207876 -3.26935 23
147 1 -1.77285 2.8018 -3.22358 25
148 1 -0.723946 5.57825 -8.29248 16
149 1 -0.144074 7.98922 -6.40606 14
150 1 -0.169694 6.03703 -3.91048 19
151 1 -1.88481 10.223 -4.71452 10
152 2 -10.1823 0.255284 -0.770452 14
153 2 -10.6148 1.93243 -2.95593 10
154 2 -7.47543 -0.658115 -6.08445 16
155 2 -9.42647 1.25745 -5.56116 12
156 2 -6.66196 0.360887 -1.27877 22
157 2 -8.37438 3.34461 -1.08116 16
158 2 -9.16179 4.23497 -3.83029 12
159 2 -6.71567 2.01202 -4.13296 21
160 2 -7.08605 6.04082 -5.33004 10
161 2 -6.76037 6.01978 -2.02155 18
162 2 -5.53045 8.45556 -1.57082 14
163 2 -4.21154 -0.438167 -6.37653 21
164 2 -6.64349 1.60559 -7.44857 15
165 2 -4.03626 1.76614 -8.74953 15
166 2 -3.5048 0.267615 -1.16455 23
167 2 -5.04134 3.0934 -1.40933 23
168 2 -4.86945 4.81228 -4.11884 19
169 2 -3.39005 2.00776 -4.05865 21
170 2 -5.2779 4.16236 -7.43664 14
171 2 -3.48834 5.99823 -1.19788 23
172 2 -3.13586 10.2767 -3.04889 10
173 2 -3.63859 6.02094 -6.87924 16
174 2 -0.450126 -0.246483 -6.30509 22
175 2 -2.27526 2.675 -6.49343 24
176 2 -2.30561 4.31118 -8.8187 14
177 2 -0.30454 1.9137 -9.17309 15
178 2 -0.190223 0.00220997 -1.18008 22
179 2 -1.9535 3.03981 -0.92698 22
180 2 -1.77117 4.59964 -4.0059 21
181 2 -0.0781768 1.77166 -3.70454 21
182 2 -0.658735 5.93234 -6.2346 20
183 2 -1.75756 8.7478 -5.81376 13
184 2 -0.0523801 6.11296 -1.87427 23
185 2 -0.34306 10.1047 -3.68512 12
186 2 -4.27099 7.46771 -4.0415 17
187 2 1.04904 7.81638 -4.66932 17
188 1 -10.0065 2.13396 -0.938078 14
189 1 -10.3148 0.181164 1.1575 12
190 1 -10.0132 2.06213 3.24881 13
191 1 -8.46017 4.89097 -2.30448 15
192 1 -6.7158 2.16835 -0.725879 22
193 1 -6.82943 0.373353 1.66983 24
194 1 -8.42687 3.23871 1.10985 17
195 1 -8.33036 4.71598 4.02009 10
196 1 -6.97629 1.92355 4.58367 21
197 1 -7.1654 -0.0121243 7.077 13
198 1 -6.9609 7.63918 -0.907991 13
199 1 -6.87613 6.02558 2.08716 18
200 1 -6.31797 7.52192 5.18971 11
201 1 -5.13041 4.83247 9.02963 8
202 1 -5.32072 5.29361 -0.695367 23
203 1 -3.66322 2.10618 -0.534485 24
204 1 -3.52353 0.205111 1.8533 22
205 1 -5.22659 3.06654 2.04065 25
206 1 -5.3335 4.74402 4.81212 23
207 1 -3.39891 1.96358 4.59631 21
208 1 -3.60884 -0.0759175 6.87972 21
209 1 -5.06927 2.68378 7.21578 17
210 1 -3.27149 1.66412 9.80592 13
211 1 -3.43509 7.91177 -0.581905 20
212 1 -3.79333 5.70565 1.9971 23
213 1 -5.56306 8.73521 1.77605 13
214 1 -3.91618 7.76098 4.00814 17
215 1 -3.5935 6.07389 7.14952 17
216 1 -1.75503 5.09727 -0.652932 23
217 1 -0.275567 1.84212 -0.580421 24
218 1 -0.304172 0.150747 1.70338 22
219 1 -1.85768 3.04452 1.92849 22
220 1 -1.80646 5.15243 4.44216 23
221 1 -0.117214 2.35007 4.55667 24
222 1 -0.164391 0.291625 6.81904 20
223 1 -1.8583 3.07082 7.02909 23
224 1 -1.82075 4.8185 9.8369 13
225 1 -0.030774 1.83824 9.23287 16
226 1 -1.51805 10.3472 -2.00353 10
227 1 -0.205838 7.9572 -0.598873 21
228 1 -0.325653 6.07532 2.10864 25
229 1 -1.97107 8.65509 2.15871 17
230 1 -0.285927 8.08352 4.69592 16
231 1 -0.206834 6.08283 7.20943 17
232 1 -2.62271 8.77436 6.08028 10
233 2 -10.1954 0.206387 3.15725 13
234 2 -9.78096 2.02087 1.21083 14
235 2 -6.88608 0.161404 3.62002 23
236 2 -8.39552 2.82319 3.99404 16
237 2 -8.55784 4.90539 2.02912 12
238 2 -6.64359 2.15054 1.23117 23
239 2 -6.85528 1.83533 6.8246 13
240 2 -6.88457 5.78075 4.24711 17
241 2 -6.57922 7.26243 0.813746 14
242 2 -3.91839 0.0816512 3.89746 21
243 2 -5.13408 3.00725 4.23531 21
244 2 -5.28533 4.89285 1.22018 24
245 2 -3.63341 2.17149 1.52988 22
246 2 -3.51868 -0.175462 9.55414 13
247 2 -4.62016 3.00817 9.25442 12
248 2 -5.04148 4.64701 6.95143 16
249 2 -3.40093 1.82796 6.7424 21
250 2 -3.68572 5.98483 3.75244 25
251 2 -5.83126 8.27132 3.61448 12
252 2 -3.75171 7.94701 1.405 19
253 2 -3.38946 5.71658 9.12202 12
254 2 -4.13276 7.4959 6.02827 14
255 2 -0.210997 0.241562 4.47037 19
256 2 -1.85803 3.25209 3.80763 24
257 2 -1.91137 5.22596 1.30032 23
258 2 -0.340314 2.02217 1.30344 23
259 2 -0.256803 -0.106435 9.30886 17
260 2 -1.84846 2.88105 9.05158 16
261 2 -1.83553 4.99997 6.34653 23
262 2 0.00667502 2.26441 6.71667 22
263 2 -0.195016 6.22143 4.07746 22
264 2 -2.21082 8.931 4.03715 14
265 2 -1.80572 8.77803 -0.811736 15
266 2 -0.323361 7.93994 1.40162 20
267 2 0.112154 5.72491 9.17628 14
268 2 -1.0959 7.71037 6.47963 13
269 1 1.05145 -7.6248 -7.28904 11
270 1 1.69716 -8.35697 -4.16403 16
271 1 1.13474 1.29616 -10.45 9
272 1 2.58235 -5.48649 -8.68511 12
273 1 1.29228 -2.45818 -8.7653 20
274 1 1.40599 -0.779545 -6.02638 24
275 1 3.01806 -3.85015 -5.99372 21
276 1 3.39351 -5.9209 -3.43723 21
277 1 1.71807 -2.95577 -3.10203 23
278 1 4.06572 -6.8381 -6.22605 15
279 1 4.96869 -8.8444 -3.84276 12
280 1 4.33313 -2.90125 -8.43229 14
281 1 4.74138 -0.703238 -6.10986 22
282 1 6.51401 -3.4404 -6.03811 14
283 1 6.41167 -5.96526 -3.90278 16
284 1 4.9308 -2.90773 -3.58554 22
285 1 8.10576 -0.489124 -6.20392 13
286 1 8.50704 -3.11765 -3.91884 17
287 2 2.2706 -7.64337 -5.89665 14
288 2 1.37503 -8.93205 -0.834305 15
289 2 1.5763 -6.592 -3.16932 21
290 2 3.12937 -9.17947 -3.29755 14
291 2 1.09115 -6.58861 -8.79821 10
292 2 1.31655 -2.71479 -6.59455 22
293 2 1.10463 -0.37945 -9.31528 16
294 2 2.71447 -3.63116 -8.97008 13
295 2 3.49059 -5.53862 -1.50967 20
296 2 1.42845 -2.98707 -1.01005 21
297 2 1.50762 -0.99538 -3.94569 21
298 2 3.1222 -3.67213 -4.02385 24
299 2 5.76218 -7.67984 -2.42601 13
300 2 5.01445 -6.90362 -4.69805 16
301 2 3.73998 -5.23088 -7.26141 16
302 2 4.521 -2.70796 -6.52489 18
303 2 4.91033 -1.14108 -9.07363 12
304 2 6.76009 -5.57469 -0.857729 18
305 2 4.84175 -2.86585 -1.66805 23
306 2 4.92201 -0.885153 -4.08036 23
307 2 6.19309 -4.14615 -4.30279 18
308 2 8.17971 -6.54896 -3.74133 11
309 2 7.77508 -2.19885 -5.33428 14
310 2 9.47621 -6.39288 -1.20808 11
311 2 10.0739 -4.1735 -3.15106 10
312 2 8.54117 0.0701061 -4.49002 15
313 2 7.94978 -2.28863 -2.03957 21
314 1 1.47096 -6.77772 -1.16209 22
315 1 3.09877 -9.93254 -1.45427 12
316 1 1.95819 -8.55382 1.09245 16
317 1 1.79043 -6.69315 4.49762 21
318 1 3.47678 -9.57853 4.73814 8
319 1 1.47849 -6.96144 8.40413 10
320 1 1.52933 -0.981026 -0.689618 21
321 1 3.20014 -3.75205 -0.740107 24
322 1 3.39625 -5.60555 1.70628 21
323 1 1.4284 -2.8363 1.79853 23
324 1 1.52217 -0.827449 4.73412 24
325 1 3.25782 -3.54669 4.23194 21
326 1 3.4678 -5.67964 6.76725 16
327 1 1.65477 -2.80007 7.0995 23
328 1 1.46579 -1.06674 9.27085 16
329 1 3.10104 -3.96547 9.73154 11
330 1 5.05376 -6.50722 -0.973878 20
331 1 7.64358 -7.19573 -1.65642 12
332 1 4.70744 -8.83611 1.61585 12
333 1 5.26255 -6.36531 4.06651 17
334 1 4.6669 -0.991144 -0.898743 22
335 1 6.81932 -3.71968 -0.995976 25
336 1 6.8439 -5.8401 1.2617 17
337 1 4.97548 -2.63157 1.57396 23
338 1 4.76912 -0.740096 4.18545 23
339 1 6.4901 -3.41932 4.7731 21
340 1 6.66186 -5.68401 6.43833 9
341 1 4.47201 -2.36133 7.25628 22
342 1 4.90409 -0.741458 9.78692 12
343 1 9.91607 -6.03621 -3.02164 10
344 1 8.56591 -4.64224 3.61538 12
345 1 8.2684 -0.720325 -1.03357 21
346 1 9.90406 -2.92645 -1.45091 14
347 1 9.51925 -5.61189 0.545073 12
348 1 8.55231 -2.62117 1.55312 20
349 1 8.16666 -1.03969 4.50603 18
350 1 11.7916 0.179552 3.61608 8
351 1 7.58725 -2.31187 8.07879 11
352 1 9.39892 0.463436 1.68184 19
353 2 1.66541 -8.71527 4.4904 12
354 2 1.79251 -6.66237 0.747075 22
355 2 3.7523 -9.68353 0.229561 12
356 2 1.67804 -6.6131 6.49793 16
357 2 3.5305 -5.59371 3.63474 23
358 2 1.51324 -2.76466 3.69149 23
359 2 1.35412 -0.969114 1.3744 23
360 2 3.22597 -3.45749 1.30208 20
361 2 2.76542 -5.6139 8.61418 14
362 2 1.42833 -2.96716 9.06726 15
363 2 1.52983 -0.731167 6.75774 20
364 2 3.39819 -3.61473 6.33133 23
365 2 4.36782 -8.61855 3.43584 11
366 2 5.07975 -6.44685 0.947635 20
367 2 4.97651 -6.4221 5.99485 14
368 2 6.98989 -5.34133 4.61273 12
369 2 5.00936 -2.66778 4.00656 20
370 2 4.75935 -0.868348 1.07707 22
371 2 6.57766 -3.63658 1.12839 24
372 2 4.34076 -2.60381 9.19148 14
373 2 4.66169 -0.552149 6.25251 26
374 2 6.44607 -3.63663 7.13482 15
375 2 8.45877 -5.95057 2.11092 12
376 2 8.09302 -2.86078 3.64284 16
377 2 8.17553 -0.757675 0.957704 23
378 2 9.27469 -3.72135 0.128698 17
379 2 7.84656 -1.02761 6.49141 14
380 2 11.3555 0.0071164 1.60821 12
381 1 3.11454 -0.175142 -8.74038 19
382 1 1.13711 3.01772 -8.56259 18
383 1 0.912401 4.77603 -6.17775 24
384 1 2.97655 2.06122 -6.07755 20
385 1 2.99959 -7.61935e-04 -3.37905 23
386 1 1.49185 3.09369 -3.37253 23
387 1 2.03231 6.58869 -8.67288 10
388 1 2.83773 7.64846 -5.41386 17
389 1 2.7722 5.79979 -3.49411 23
390 1 1.12655 9.1045 -3.22791 18
391 1 6.57993 -0.16427 -9.07954 9
392 1 4.27723 2.68072 -9.01236 14
393 1 4.55429 5.16142 -6.56413 17
394 1 6.26494 2.22552 -7.03366 16
395 1 6.53959 0.0169708 -3.37859 20
396 1 4.69134 2.92833 -3.66694 22
397 1 5.8131 6.39407 -4.16592 16
398 1 4.49441 9.22815 -3.0527 11
399 1 8.0192 4.86415 -5.90378 8
400 1 10.0369 0.178724 -3.37707 14
401 1 8.11976 2.13819 -4.23865 17
402 2 3.04373 0.110538 -6.76922 24
403 2 1.05227 2.75705 -6.66436 21
404 2 1.27427 4.87518 -8.70913 15
405 2 2.6015 2.18596 -9.74739 12
406 2 2.96148 0.0651611 -1.44841 22
407 2 1.0897 2.98615 -1.38403 21
408 2 1.30908 4.73726 -4.21526 22
409 2 2.90842 2.11045 -3.97711 22
410 2 2.95507 6.43188 -6.76336 16
411 2 0.293029 7.25889 -8.31305 11
412 2 2.99936 5.85691 -1.42293 21
413 2 1.20772 8.99311 -1.25413 17
414 2 3.14818 10.2544 -2.56773 11
415 2 4.13301 7.50997 -4.02056 16
416 2 6.42401 -0.0771911 -7.02638 17
417 2 4.27375 3.36209 -7.24817 17
418 2 5.84054 1.72709 -8.97373 11
419 2 6.19425 0.110761 -1.4719 22
420 2 4.66702 3.24661 -1.59664 21
421 2 4.33914 4.83178 -4.50515 20
422 2 6.39286 2.00779 -3.38221 16
423 2 6.37941 5.61365 -5.97569 11
424 2 6.42744 6.01454 -0.809132 16
425 2 5.85377 7.86727 1.59124 16
426 2 4.65905 8.36765 -1.31684 16
427 2 7.70938 2.9659 -6.18331 14
428 2 10.1273 -0.702853 -1.59377 15
429 2 8.39649 3.51437 -0.879451 15
430 2 7.79954 5.55445 -3.83591 10
431 2 9.42108 1.81147 -2.8237 15
432 2 11.2097 1.79543 -0.321382 12
433 1 1.25407 4.98062 -0.738199 25
434 1 3.05238 2.0511 -0.899797 23
435 1 3.00523 0.0791241 1.71952 22
436 1 1.26845 2.93703 1.65179 23
437 1 1.54593 4.99236 4.35873 24
438 1 2.96668 2.05147 4.1193 21
439 1 3.21001 0.477839 7.16129 23
440 1 1.73729 3.22859 7.05646 22
441 1 1.83302 5.0413 9.93195 12
442 1 3.10236 1.8183 10.1282 14
443 1 2.24067 10.4877 -0.855103 13
444 1 2.93228 7.66746 -0.754974 24
445 1 2.9708 5.92892 1.88914 25
446 1 1.46141 9.01803 1.99124 17
447 1 3.00612 8.04813 4.99939 17
448 1 5.1557 4.58696 9.26626 12
449 1 2.9768 5.93094 7.27799 17
450 1 4.6271 5.04978 -0.941282 22
451 1 6.45273 2.16218 -1.32692 19
452 1 6.44157 0.0509991 1.44625 20
453 1 4.83428 2.99098 1.72373 20
454 1 4.71541 5.01468 4.41442 26
455 1 6.43226 2.00939 4.4716 22
456 1 6.44948 0.233202 6.88815 18
457 1 4.83814 2.89141 7.09541 21
458 1 6.30489 7.92906 -0.211998 12
459 1 6.41213 5.77802 1.23188 16
460 1 4.1 9.34853 1.97114 14
461 1 5.83836 7.72163 3.5559 15
462 1 5.96405 6.42539 6.46104 15
463 1 8.01744 5.37543 -1.89878 13
464 1 9.85872 2.65824 -1.35209 14
465 1 11.4677 -0.00476593 -0.416549 12
466 1 8.10056 3.22239 1.1383 20
467 1 7.82159 4.94528 4.12126 15
468 1 9.7467 2.20736 4.3276 16
469 1 7.77919 3.68399 7.02184 13
470 1 11.5037 2.52532 1.6455 11
471 2 2.73177 0.133041 3.73793 22
472 2 1.28837 3.13691 3.65647 23
473 2 1.13176 5.07113 1.27021 22
474 2 2.89428 2.19909 0.978449 23
475 2 1.58959 2.97335 9.57535 17
476 2 4.54913 2.70002 9.14965 17
477 2 1.50618 5.05063 6.40678 23
478 2 3.18614 2.02205 6.25088 25
479 2 3.24592 6.14177 3.76142 23
480 2 1.55586 8.63169 4.02582 17
481 2 2.82862 10.3827 0.905785 11
482 2 2.78572 7.66704 1.21521 23
483 2 3.51293 5.55463 9.22358 14
484 2 4.14368 7.40044 6.54261 13
485 2 6.50706 0.00955423 3.73815 23
486 2 4.62303 2.8455 3.77085 23
487 2 4.59786 4.8254 1.07924 22
488 2 6.39627 2.03992 1.14745 21
489 2 6.30985 -0.657921 8.58015 12
490 2 3.09067 0.132372 9.21513 17
491 2 4.31554 4.69042 6.35519 21
492 2 6.43203 2.18332 6.5165 19
493 2 6.58205 6.28253 4.65408 14
494 2 4.60307 8.88313 4.10436 13
495 2 7.71524 4.66279 2.2603 17
496 2 9.82667 -0.0804547 3.85105 13
497 2 8.16895 3.36976 5.11374 16
498 2 9.56908 2.43795 1.99996 18
499 2 11.5977 1.97872 3.66782 8
500 2 6.68181 5.03627 7.81359 14
