ITEM: TIMESTEP
237000
ITEM: NUMBER OF ATOMS
500
ITEM: BOX BOUNDS pp pp pp
-30.0 30.0
-30.0 30.0
-30.0 30.0
ITEM: ATOMS id type x y z Coordination
1 1 -9.06198 -0.225065 -5.60079 12
2 1 -7.28382 -3.61462 -6.18571 15
3 1 -7.09266 -5.84776 -4.43784 15
4 1 -8.39346 -2.88063 -3.32145 16
5 1 -6.14585 -6.18067 -7.69278 12
6 1 -6.96085 -8.69907 -2.95538 10
7 1 -3.85205 -5.30956 -9.79412 10
8 1 -5.53583 -2.90623 -8.62354 13
9 1 -5.57801 -0.961621 -6.14711 21
10 1 -3.57974 -3.19763 -5.80615 17
11 1 -3.81983 -6.0507 -3.58703 19
12 1 -5.28816 -3.09925 -3.49085 20
13 1 -2.74073 -7.51991 -7.63298 11
14 1 -1.52745 -8.53715 -4.39896 15
15 1 -4.96474 -8.15438 -5.58553 14
16 1 -0.563449 -5.39025 -9.40042 13
17 1 -2.0958 -2.32198 -9.44152 14
18 1 -2.22396 -0.58719 -6.1146 21
19 1 -0.168821 -3.09692 -6.20299 20
20 1 -0.362925 -5.6515 -3.38761 18
21 1 -1.87239 -2.81425 -3.38227 23
22 2 -7.44987 -5.58173 -6.41972 11
23 2 -7.0526 -3.71886 -4.22752 19
24 2 -7.85427 -6.87687 -2.9009 10
25 2 -8.95045 -3.96719 -1.93539 14
26 2 -8.90142 -0.971137 -3.96612 17
27 2 -6.79241 -1.55519 -1.50469 19
28 2 -5.58612 -8.81801 -1.79215 13
29 2 -5.53446 -6.91321 -4.22479 17
30 2 -3.65048 -8.87938 -4.41466 13
31 2 -5.6751 -4.74133 -8.97506 10
32 2 -5.52972 -2.98917 -6.40683 18
33 2 -5.89922 -1.01633 -8.89421 13
34 2 -3.79904 -3.17855 -9.57957 13
35 2 -3.93724 -6.01796 -1.53295 20
36 2 -4.98484 -3.28929 -1.10167 20
37 2 -5.13175 -1.19049 -4.04549 23
38 2 -3.62265 -3.84825 -3.94545 18
39 2 -1.32695 -8.01411 -6.63815 13
40 2 -1.97784 -9.04462 -1.20365 17
41 2 -2.02576 -6.83226 -3.46292 18
42 2 -4.5274 -7.27392 -6.95721 12
43 2 -0.0630846 -9.44883 -3.51653 17
44 2 -2.4006 -6.25538 -9.04737 12
45 2 -1.85518 -2.52022 -6.71219 17
46 2 -2.13348 -0.498705 -8.98232 14
47 2 -0.642817 -3.42375 -9.81761 15
48 2 -0.267128 -5.79769 -1.47067 21
49 2 -1.97037 -2.86076 -1.12777 22
50 2 -1.81952 -0.963578 -4.15705 23
51 2 -0.412769 -3.81817 -4.31822 19
52 1 -10.6748 -3.34035 -0.993177 11
53 1 -8.63311 -5.82269 -1.39829 13
54 1 -8.49223 -0.707249 -0.996195 20
55 1 -6.94822 -3.61126 -0.627651 21
56 1 -6.78374 -6.02276 1.61595 15
57 1 -8.72852 -3.36405 2.02819 14
58 1 -8.73866 -0.888235 4.40563 16
59 1 -6.75235 -3.93554 4.45365 20
60 1 -6.84536 -5.77845 7.40806 8
61 1 -8.85313 -2.98763 6.13029 8
62 1 -5.43746 -7.39174 -0.593037 17
63 1 -3.49801 -9.41821 -2.3157 15
64 1 -5.33788 -9.08531 2.21741 12
65 1 -5.22363 -6.92703 4.57849 16
66 1 -3.50716 -10.2199 3.90311 8
67 1 -5.00507 -1.45949 -0.478665 21
68 1 -3.56223 -4.37459 -1.00917 21
69 1 -3.45909 -6.02885 1.65115 21
70 1 -5.06668 -3.37661 1.95418 20
71 1 -5.29328 -1.04577 4.11613 22
72 1 -3.54949 -4.02022 4.47636 20
73 1 -3.09877 -6.30674 6.95799 15
74 1 -5.14679 -3.20062 7.47122 19
75 1 -4.37183 -1.34686 9.53496 13
76 1 -2.73046 -4.09958 10.0683 12
77 1 -2.06235 -7.13711 -1.15478 22
78 1 -0.233179 -9.86836 -1.64527 14
79 1 -1.91848 -9.24345 1.02768 17
80 1 -1.85647 -7.19557 4.35613 19
81 1 0.206151 -9.36059 3.67136 14
82 1 -0.409006 -5.62642 8.10971 18
83 1 -1.97764 -1.0414 -0.656545 25
84 1 -0.358283 -4.02058 -0.636725 23
85 1 -0.535122 -6.21874 1.78457 20
86 1 -2.13186 -3.16903 2.01953 21
87 1 -1.61008 -1.16369 3.94344 22
88 1 0.0205298 -4.28746 4.9755 21
89 1 0.442296 -8.05924 6.5186 13
90 1 -1.89489 -2.60349 7.38545 23
91 1 -1.44043 -0.82602 9.91798 16
92 1 0.445424 -3.43285 10.4244 15
93 2 -10.2134 -3.03623 0.977621 12
94 2 -7.06317 -6.22269 -0.294442 13
95 2 -6.34342 -5.57859 3.43989 18
96 2 -8.54261 -3.1058 4.06045 15
97 2 -8.86527 -0.754188 0.923795 21
98 2 -7.11106 -4.00068 1.44565 19
99 2 -8.09213 -1.30758 6.34241 13
100 2 -7.32214 -4.19978 6.3378 11
101 2 -4.8104 -8.77443 4.18179 11
102 2 -5.22047 -7.33576 1.35024 16
103 2 -3.54066 -9.81758 2.02366 11
104 2 -5.13003 -6.33549 6.65013 13
105 2 -3.53413 -5.99711 3.81516 23
106 2 -5.13883 -3.02347 3.82454 20
107 2 -5.08853 -1.30891 1.57572 21
108 2 -3.4649 -4.20381 1.12119 25
109 2 -2.45067 -5.23224 8.61453 13
110 2 -4.46481 -3.27187 9.34958 11
111 2 -5.11601 -0.923814 7.86558 15
112 2 -3.46307 -3.34732 6.42225 21
113 2 -1.79413 -9.28805 4.08487 13
114 2 -2.14584 -7.2121 0.867777 22
115 2 -0.0916748 -9.71442 1.75604 12
116 2 -1.20472 -7.02018 6.31 15
117 2 -0.19984 -6.16465 4.17131 20
118 2 -1.70418 -2.90155 4.00583 20
119 2 -1.91762 -1.27468 1.45097 22
120 2 -0.467866 -4.41319 1.478 21
121 2 0.690274 -5.25467 10.1701 13
122 2 -1.33072 -2.78789 9.78586 16
123 2 -1.7195 -0.49449 7.73705 19
124 2 -0.251466 -3.55766 6.70938 21
125 1 -10.5364 -0.260832 -3.03479 12
126 1 -7.35316 -0.0743216 -8.29657 12
127 1 -6.87968 5.42478 -3.6841 14
128 1 -7.18872 2.11435 -6.15001 17
129 1 -6.66459 -0.447291 -3.31501 22
130 1 -8.73284 2.33138 -3.12102 17
131 1 -5.47876 8.50256 -3.59211 11
132 1 -4.08713 0.331097 -8.70917 15
133 1 -5.70892 2.92455 -8.78191 13
134 1 -4.77857 5.07657 -6.09017 17
135 1 -3.43544 1.93965 -5.97521 23
136 1 -3.58371 -0.0106787 -3.27809 25
137 1 -4.75913 2.988 -3.54024 20
138 1 -3.47331 5.47765 -8.52295 12
139 1 -3.31272 8.04528 -6.02606 13
140 1 -3.56451 5.89214 -3.39586 21
141 1 -2.07715 8.74257 -3.13362 17
142 1 -0.380333 -0.0676383 -8.41868 21
143 1 -2.03629 2.74006 -8.58165 18
144 1 -1.87476 5.12362 -6.12162 21
145 1 -0.394085 2.08766 -5.65014 23
146 1 0.00419397 -0.179237 -3.33114 23
147 1 -1.72895 2.93438 -3.06395 23
148 1 -0.721276 5.34981 -10.358 7
149 1 0.141606 8.20478 -6.66771 13
150 1 -0.497783 5.83844 -3.1097 21
151 1 -0.79663 10.6284 -5.22246 9
152 2 -10.3195 -1.63412 -1.78721 11
153 2 -10.6471 1.49817 -2.12987 11
154 2 -7.2792 -0.164892 -6.28104 14
155 2 -8.5852 1.75063 -5.00246 13
156 2 -7.39221 1.08331 -2.12524 20
157 2 -9.00598 3.67186 -0.199422 14
158 2 -8.36498 4.17868 -3.1028 16
159 2 -5.49393 2.48469 -5.19052 21
160 2 -6.59502 7.16466 -3.96085 12
161 2 -6.96891 6.01585 -1.07418 18
162 2 -5.18623 8.5977 -1.55049 14
163 2 -3.94789 0.21508 -6.63441 24
164 2 -6.86981 1.66778 -8.20911 13
165 2 -3.80069 2.16146 -8.85853 13
166 2 -3.66707 -0.135469 -1.09475 20
167 2 -5.29102 2.9219 -1.48452 23
168 2 -5.07787 4.88487 -4.28498 20
169 2 -3.27292 1.75677 -3.97206 19
170 2 -5.15925 4.54541 -7.77913 14
171 2 -3.53191 5.82643 -1.15547 22
172 2 -1.44376 10.8186 -3.45594 10
173 2 -3.27879 6.33047 -6.78571 14
174 2 -0.283988 0.11515 -6.35376 20
175 2 -1.69039 3.15415 -6.6094 23
176 2 -1.95567 4.71932 -9.31001 12
177 2 -0.257976 1.7672 -9.12227 15
178 2 -0.421602 -0.0557795 -1.02888 23
179 2 -2.17215 2.89605 -1.04438 24
180 2 -1.93571 4.82248 -4.00379 22
181 2 -0.483409 1.63145 -3.70918 22
182 2 -0.313695 6.12768 -6.34198 18
183 2 -1.4122 8.98624 -6.2013 12
184 2 -0.159253 5.55481 -1.14319 21
185 2 0.328471 11.7828 -0.759022 6
186 2 -3.64535 7.92539 -4.09809 18
187 2 0.869238 9.4764 -5.20734 12
188 1 -10.4342 2.09836 -0.321337 14
189 1 -10.4601 -1.01342 1.30176 13
190 1 -10.5634 1.5259 3.35066 11
191 1 -8.74427 4.99789 -1.38549 12
192 1 -6.9803 2.43088 -0.809156 19
193 1 -7.20738 0.0459767 1.79195 21
194 1 -8.45781 2.80583 1.83789 18
195 1 -8.68111 4.85622 4.18971 10
196 1 -6.90406 1.74053 4.38367 20
197 1 -7.00201 -0.0724502 7.36922 12
198 1 -6.97129 8.10332 -0.831101 11
199 1 -6.71373 5.78142 1.31131 19
200 1 -7.07317 7.51517 5.22197 7
201 1 -4.95019 4.82953 9.01032 10
202 1 -5.24104 4.69005 -0.767286 23
203 1 -3.8236 1.83481 -0.542483 22
204 1 -3.56065 -0.00338064 1.797 21
205 1 -5.05537 2.76363 2.10428 23
206 1 -5.25311 4.69931 4.94781 21
207 1 -3.65684 2.09411 4.63071 22
208 1 -3.52171 0.0113996 6.99641 20
209 1 -5.17647 2.50341 7.31682 15
210 1 -3.54698 1.95075 10.0635 15
211 1 -3.97883 7.72065 -0.35915 19
212 1 -3.55509 5.74883 2.12309 23
213 1 -5.29726 8.44236 2.3637 14
214 1 -3.68527 7.81342 4.68715 16
215 1 -3.23484 5.9713 7.29799 17
216 1 -1.95165 4.74526 -0.51864 24
217 1 -0.462679 1.98911 -0.776198 23
218 1 -0.299162 -0.0792541 1.71492 23
219 1 -1.92684 2.80258 2.15161 24
220 1 -1.92847 5.14821 4.7294 24
221 1 -0.2132 1.91124 4.47079 23
222 1 0.122684 0.415567 7.61222 21
223 1 -1.85848 3.10205 7.32545 25
224 1 -1.49805 4.9469 9.98297 12
225 1 0.00976002 2.25833 10.2247 15
226 1 -1.28141 10.9162 -1.5503 10
227 1 -0.477898 7.72528 -0.88396 22
228 1 -0.366215 5.99812 1.95098 23
229 1 -1.81957 8.5321 1.81704 15
230 1 -0.247911 7.66818 4.60985 19
231 1 -0.17831 6.11257 7.47797 20
232 1 -2.09216 9.0843 7.36225 7
233 2 -10.2421 -0.431315 3.19363 13
234 2 -10.7616 1.82068 1.45657 11
235 2 -6.92489 -0.158966 3.69313 20
236 2 -8.89413 2.38023 3.84265 14
237 2 -7.71163 4.65977 2.47838 14
238 2 -6.82987 1.85859 1.17344 23
239 2 -6.39462 1.54699 6.30927 16
240 2 -7.16623 5.63648 4.99401 11
241 2 -6.46992 7.67774 1.10104 12
242 2 -3.41245 0.304052 3.82018 20
243 2 -5.46228 2.79414 3.99216 24
244 2 -4.85671 4.74318 1.05524 23
245 2 -3.2438 1.78021 1.29561 21
246 2 -2.99636 0.052203 10.0748 14
247 2 -5.03962 2.8897 9.3419 10
248 2 -4.92699 4.65456 7.07031 16
249 2 -3.53916 2.20048 6.65662 21
250 2 -3.69578 5.61792 4.04459 22
251 2 -5.66171 8.07867 4.16147 12
252 2 -3.57161 7.95136 1.45919 18
253 2 -3.06081 5.66326 9.22033 12
254 2 -3.28956 7.78892 6.41396 15
255 2 -0.0938159 0.0363333 3.93388 21
256 2 -2.23245 3.09893 4.02755 20
257 2 -1.85427 4.82477 1.41825 23
258 2 -0.0961475 1.83903 1.22598 24
259 2 0.183977 0.355609 9.90863 16
260 2 -1.82257 3.10872 9.43916 19
261 2 -1.54409 4.84025 6.55297 22
262 2 -0.161555 1.94163 6.55324 22
263 2 -0.233542 5.88926 4.08529 24
264 2 -2.04895 8.32711 3.78521 17
265 2 -2.01527 8.90563 -1.16634 15
266 2 -0.0487854 7.71516 1.25663 19
267 2 0.180352 5.60821 9.45283 13
268 2 -0.823078 7.867 6.72786 14
269 1 0.483055 -7.51477 -6.92052 14
270 1 1.61208 -8.84153 -4.36951 16
271 1 1.91164 0.714973 -10.6535 9
272 1 2.44906 -5.57326 -8.79291 14
273 1 1.23076 -2.77448 -9.25133 15
274 1 1.55227 -0.534519 -6.11304 24
275 1 2.99348 -3.65984 -6.5319 20
276 1 2.78692 -5.85431 -4.89021 21
277 1 1.57121 -2.79941 -3.44919 22
278 1 4.04496 -7.17389 -6.76739 11
279 1 4.82844 -8.50697 -3.84808 13
280 1 4.6034 -2.97987 -9.09236 13
281 1 5.11132 -1.20858 -6.12597 23
282 1 6.37087 -3.78881 -6.45241 16
283 1 5.8577 -5.8861 -3.70996 18
284 1 4.45525 -2.8722 -3.89249 20
285 1 8.45022 -0.687028 -5.93398 12
286 1 7.76611 -2.5615 -3.88168 20
287 2 2.2907 -8.00075 -6.1044 13
288 2 1.20869 -8.58545 -1.03065 16
289 2 1.27755 -6.62247 -3.79614 18
290 2 3.02727 -9.04457 -3.27554 15
291 2 0.708046 -6.06654 -8.23716 15
292 2 1.43414 -2.23693 -6.94908 21
293 2 1.39662 -0.970688 -9.64438 16
294 2 2.80388 -3.76029 -9.33102 13
295 2 3.26424 -6.17108 -0.689032 21
296 2 1.38621 -2.98697 -1.4144 24
297 2 1.61601 -0.778392 -4.05627 22
298 2 2.93662 -3.71279 -4.58904 21
299 2 5.6107 -7.60713 -2.52724 11
300 2 4.73053 -7.06586 -5.06733 14
301 2 3.0971 -5.60882 -7.07571 15
302 2 4.80375 -3.04552 -6.89603 18
303 2 4.89065 -1.03947 -8.82607 15
304 2 6.58808 -5.63684 -0.861786 17
305 2 4.49694 -2.93783 -1.95838 23
306 2 4.79221 -0.865682 -4.10499 23
307 2 6.00966 -4.13522 -4.51679 18
308 2 7.88499 -6.13671 -3.84873 12
309 2 7.82882 -2.53889 -6.34219 9
310 2 9.66152 -6.07539 -1.43659 9
311 2 9.44686 -3.74 -3.38605 13
312 2 8.50649 -0.677832 -4.09423 17
313 2 7.25031 -2.20623 -1.9431 20
314 1 1.65829 -6.67227 -1.77949 19
315 1 2.93739 -9.5306 -1.3842 13
316 1 0.946194 -8.5885 0.942785 18
317 1 1.63174 -6.59103 3.84919 22
318 1 3.43477 -8.6786 5.22657 11
319 1 2.15195 -6.59501 9.77279 9
320 1 1.29643 -1.11569 -0.761199 25
321 1 3.24869 -3.98428 -0.919868 20
322 1 3.06297 -5.9664 1.4091 20
323 1 1.10501 -3.09681 2.01581 25
324 1 1.34737 -0.877972 4.66306 24
325 1 3.02095 -3.67944 4.46475 21
326 1 3.11168 -6.20935 7.22698 19
327 1 1.3671 -2.72582 7.46908 21
328 1 1.95379 -0.628943 9.38859 17
329 1 3.46884 -3.62019 9.52703 15
330 1 4.99564 -7.158 -0.79582 16
331 1 7.86253 -6.90857 -1.89673 13
332 1 5.27355 -9.12603 1.47636 8
333 1 4.432 -6.7781 3.57662 16
334 1 4.29717 -0.951531 -0.625451 24
335 1 6.20504 -3.80394 -1.0043 20
336 1 6.62881 -5.61163 1.16706 17
337 1 4.83719 -3.01824 1.79785 21
338 1 4.82858 -0.632456 4.60945 21
339 1 6.59594 -2.42748 4.33771 21
340 1 5.69646 -5.65368 6.03726 16
341 1 4.62035 -3.02091 7.27392 22
342 1 5.34306 -0.564378 9.48554 13
343 1 9.64492 -5.53256 -3.46381 8
344 1 8.1459 -5.52532 3.59437 11
345 1 7.72187 -0.944548 -0.523492 20
346 1 9.7281 -2.93067 -1.53725 15
347 1 9.87605 -5.27652 0.38644 11
348 1 8.43855 -2.81204 1.79428 22
349 1 9.56702 -2.66649 5.14095 10
350 1 11.4757 0.0302472 4.00538 9
351 1 7.0406 -2.85014 8.33857 10
352 1 8.55294 -0.0140286 3.504 21
353 2 1.52799 -8.37297 4.87497 17
354 2 1.38413 -7.01093 1.79651 20
355 2 4.59026 -9.18552 -0.343835 12
356 2 1.23969 -7.0942 7.90981 11
357 2 3.05118 -5.45518 3.91572 21
358 2 1.13873 -2.67647 4.12303 22
359 2 1.34167 -1.1991 1.29221 23
360 2 2.95066 -4.04588 0.975653 22
361 2 3.40345 -5.32167 8.92306 15
362 2 1.9677 -2.64502 9.42915 18
363 2 1.5781 -0.696127 7.02509 21
364 2 2.73278 -3.76829 6.52328 22
365 2 4.3884 -8.80338 3.19724 12
366 2 4.86743 -6.69125 1.57092 17
367 2 4.37841 -7.16927 6.14544 13
368 2 6.42793 -6.1605 4.1827 13
369 2 4.71351 -2.64189 3.76296 22
370 2 4.79522 -0.926735 1.08897 24
371 2 6.61313 -3.56823 0.998847 22
372 2 5.08679 -2.49124 9.10346 15
373 2 5.07393 -1.22086 6.50342 21
374 2 6.16412 -4.09504 6.9263 17
375 2 8.7347 -5.69073 1.7232 12
376 2 8.48013 -3.63158 3.85227 16
377 2 8.26804 -0.763688 1.39661 22
378 2 9.89432 -3.18665 0.545635 14
379 2 7.80215 -2.2705 6.23914 17
380 2 10.9814 -0.217282 2.10879 12
381 1 3.25795 -0.165896 -8.54915 19
382 1 1.40317 2.92312 -8.65405 19
383 1 1.32217 4.99185 -6.10928 21
384 1 3.20132 2.10443 -6.14091 20
385 1 3.15473 0.168773 -3.59104 23
386 1 1.59134 3.04192 -3.29484 23
387 1 2.51016 5.69888 -9.18815 12
388 1 3.17252 7.31222 -6.18051 15
389 1 2.95158 5.81586 -3.40989 21
390 1 1.38679 8.84635 -3.5522 19
391 1 6.34439 0.152879 -8.97934 11
392 1 4.55458 2.89055 -9.80789 12
393 1 5.66698 5.53801 -8.41475 10
394 1 6.70392 1.86455 -6.8261 16
395 1 6.45827 0.0504742 -3.24917 20
396 1 4.72553 2.85673 -3.32819 21
397 1 5.39366 4.80326 -5.51934 18
398 1 3.9041 8.79627 -2.88249 11
399 1 8.28275 4.83702 -5.82708 8
400 1 9.68945 0.173176 -2.72524 16
401 1 8.21275 2.42256 -4.06974 15
402 2 3.50546 0.149476 -6.69305 21
403 2 1.61658 3.08859 -6.7376 18
404 2 0.98081 4.55976 -9.64388 13
405 2 3.04412 1.82743 -9.18606 16
406 2 2.72709 0.00109486 -1.48298 23
407 2 1.23001 2.58113 -1.46632 24
408 2 0.974755 4.94404 -3.93034 22
409 2 3.14874 2.19153 -4.24423 21
410 2 4.73472 6.43965 -7.02352 10
411 2 -0.202302 7.86898 -2.86003 22
412 2 2.85988 5.88367 -1.42022 24
413 2 2.12259 9.47082 -1.86166 15
414 2 4.79597 8.5804 -1.35496 14
415 2 2.15854 6.16797 -7.37286 14
416 2 6.66104 0.0417745 -7.04488 16
417 2 4.15225 4.91223 -9.59322 10
418 2 5.88077 1.98492 -8.76142 13
419 2 6.24096 0.210887 -1.3401 21
420 2 4.21277 2.80051 -0.928484 23
421 2 4.40491 4.72978 -3.85164 18
422 2 6.34561 1.95258 -3.65228 21
423 2 6.85939 5.0596 -7.13211 9
424 2 6.02175 5.86522 -0.854831 16
425 2 5.99258 7.62479 1.63025 14
426 2 3.21069 7.79222 -4.3541 17
427 2 7.91612 2.87196 -5.8683 11
428 2 9.96137 -0.886709 -1.14561 16
429 2 7.29209 3.29097 -1.35633 18
430 2 7.20002 4.78723 -4.15406 13
431 2 9.60473 2.05457 -2.80696 11
432 2 9.79901 2.25508 0.409707 16
433 1 1.30621 4.55533 -0.611171 25
434 1 2.72047 1.67201 -0.481911 24
435 1 3.08275 -0.233161 1.7725 24
436 1 1.27594 3.02636 1.80929 22
437 1 1.4478 4.71495 4.88193 21
438 1 2.96252 1.82666 4.42268 23
439 1 3.63232 -0.0319416 7.2695 23
440 1 1.5749 2.82071 7.20573 24
441 1 1.85571 5.20998 8.90171 12
442 1 3.42918 2.13565 9.54599 13
443 1 1.97009 10.7707 -0.525885 12
444 1 3.0335 7.75018 -0.958395 22
445 1 2.81715 6.01358 1.92795 23
446 1 1.44646 8.75477 2.05952 17
447 1 3.13271 9.10388 4.61618 12
448 1 4.9989 5.25324 8.5156 13
449 1 2.81998 6.7526 6.57053 15
450 1 4.24665 4.72335 -0.746374 22
451 1 5.9515 2.08814 -0.585284 23
452 1 6.32082 0.0433806 1.71145 21
453 1 4.3657 2.85036 1.86241 22
454 1 4.6392 4.78268 4.66668 24
455 1 6.27266 2.23599 4.6877 21
456 1 6.91853 -0.476232 6.65586 19
457 1 4.76984 2.70741 7.01709 19
458 1 6.06409 7.74081 -0.228948 13
459 1 6.2058 5.38049 1.08868 18
460 1 4.03482 9.49196 1.37994 14
461 1 5.94238 7.92561 3.49522 15
462 1 5.83413 7.69496 6.56185 13
463 1 6.60454 4.67606 -2.42994 16
464 1 9.3097 2.98689 -1.19541 11
465 1 10.4047 -1.26745 0.718803 13
466 1 7.76118 2.93522 1.7449 20
467 1 8.09993 6.07712 3.57107 11
468 1 9.57371 2.88264 4.77658 12
469 1 7.43966 4.98939 6.42308 11
470 1 10.7484 1.7756 1.82969 12
471 2 3.03903 0.0460327 3.84013 23
472 2 1.35878 3.05613 3.9475 24
473 2 1.24881 4.86776 1.46752 21
474 2 2.65341 1.70093 1.43852 23
475 2 1.46155 2.96794 9.27515 18
476 2 4.32938 3.52561 8.84521 13
477 2 1.21475 5.00438 6.78585 18
478 2 3.1219 1.81384 6.52533 25
479 2 3.09751 5.67166 5.06831 23
480 2 1.42599 8.58975 4.0107 18
481 2 2.25798 10.1857 1.12519 12
482 2 2.89168 7.86638 0.969087 22
483 2 3.45068 6.13346 8.23276 15
484 2 4.03642 8.10808 6.07461 12
485 2 6.58388 -0.505121 3.67697 22
486 2 4.5894 2.92858 3.88651 21
487 2 4.22132 4.75831 1.53092 22
488 2 6.0447 1.9807 1.47352 23
489 2 7.01198 -0.805062 8.87789 11
490 2 3.68393 0.2144 9.21772 19
491 2 5.82394 3.91754 5.77989 17
492 2 5.89687 1.17074 6.50519 17
493 2 6.78838 6.71197 4.73149 14
494 2 4.5395 9.07744 3.30645 12
495 2 7.53508 4.82511 2.21673 18
496 2 9.9726 -1.04497 4.21578 16
497 2 8.61869 4.49484 5.07773 11
498 2 8.11972 1.97986 3.76649 20
499 2 10.9532 2.19935 3.61155 10
500 2 6.28045 5.90644 7.30381 13
