ITEM: TIMESTEP
260000
ITEM: NUMBER OF ATOMS
500
ITEM: BOX BOUNDS pp pp pp
-30.0 30.0
-30.0 30.0
-30.0 30.0
ITEM: ATOMS id type x y z Coordination
1 1 -8.83164 -0.462984 -5.9214 13
2 1 -7.16636 -3.80754 -5.91439 16
3 1 -8.01101 -7.52573 -5.30132 9
4 1 -8.62306 -2.6474 -3.3106 15
5 1 -6.37253 -6.40707 -7.73451 12
6 1 -6.91552 -8.60717 -2.9861 10
7 1 -4.12396 -5.59756 -10.0838 9
8 1 -5.52049 -3.48642 -8.98567 12
9 1 -5.4594 -1.27408 -5.95878 21
10 1 -3.58135 -4.39295 -5.88436 19
11 1 -3.71061 -5.83671 -3.32058 18
12 1 -4.99159 -2.89604 -3.19636 23
13 1 -2.85696 -7.46303 -7.65209 12
14 1 -1.76055 -7.87422 -4.86836 14
15 1 -4.73498 -7.70684 -5.63498 15
16 1 -0.875978 -5.47026 -9.24076 13
17 1 -2.28099 -2.71844 -8.75634 18
18 1 -2.28049 -1.26273 -6.06347 21
19 1 -0.240701 -3.69508 -5.8105 20
20 1 -0.287593 -5.38568 -3.17887 21
21 1 -1.99616 -2.75474 -3.44812 23
22 2 -7.59587 -5.90667 -6.41493 11
23 2 -7.70865 -4.20499 -4.01295 14
24 2 -8.40774 -7.02566 -3.33048 8
25 2 -8.00314 -2.25607 -1.42169 19
26 2 -9.40545 -1.26335 -4.35739 13
27 2 -6.9241 0.0125885 -0.876434 20
28 2 -5.3597 -8.61781 -1.83028 12
29 2 -6.46463 -8.36086 -4.82664 11
30 2 -3.57472 -7.90788 -4.12637 17
31 2 -5.97749 -5.44387 -9.583 9
32 2 -5.29439 -3.53158 -6.27161 20
33 2 -5.69155 -1.51606 -9.01413 12
34 2 -3.57418 -3.91679 -9.2812 15
35 2 -3.3939 -5.74798 -1.21115 24
36 2 -4.83343 -2.96943 -1.15319 21
37 2 -5.8211 -1.16767 -3.78279 21
38 2 -3.81617 -3.92961 -3.93171 21
39 2 -1.16175 -7.76548 -6.64025 13
40 2 -2.19844 -8.76139 -1.11519 16
41 2 -1.86551 -5.91005 -3.95306 19
42 2 -4.66831 -7.12325 -7.54112 13
43 2 -0.230164 -8.63677 -3.86796 16
44 2 -2.41255 -6.47394 -9.26348 11
45 2 -2.23103 -3.05701 -6.6886 20
46 2 -2.12528 -0.804645 -8.69501 16
47 2 -0.519971 -3.70494 -8.91556 14
48 2 -0.144328 -5.71298 -1.14148 21
49 2 -1.78295 -3.01875 -1.20854 24
50 2 -2.23408 -0.927016 -4.04453 24
51 2 -0.207017 -3.14728 -3.86856 21
52 1 -11.5058 -2.0092 -0.447901 6
53 1 -7.90161 -5.54528 -2.55114 13
54 1 -8.46412 -1.21024 0.101707 18
55 1 -6.56706 -3.67368 -0.715486 19
56 1 -6.79762 -6.07608 1.86918 14
57 1 -8.40824 -3.28214 2.32591 17
58 1 -8.16033 -1.19084 4.38091 17
59 1 -6.35753 -4.42505 4.7776 20
60 1 -5.9885 -5.22675 7.84856 10
61 1 -8.61568 -3.56409 6.13033 10
62 1 -5.24353 -6.72897 -0.564093 18
63 1 -3.67193 -8.73525 -2.40931 15
64 1 -4.79302 -8.93561 2.12359 12
65 1 -5.63366 -7.40171 4.83133 12
66 1 -2.85841 -9.5619 4.19925 11
67 1 -5.22237 -1.01789 -0.539114 22
68 1 -3.34888 -3.94866 -0.521301 23
69 1 -3.70589 -6.10253 2.09503 22
70 1 -5.13678 -2.96826 1.89732 21
71 1 -4.9598 -1.23867 4.40453 24
72 1 -3.05517 -3.93751 4.25076 21
73 1 -3.28957 -6.03301 6.37597 18
74 1 -4.81692 -3.29726 7.0423 18
75 1 -4.59201 0.405882 10.326 12
76 1 -3.49313 -3.01187 9.64021 13
77 1 -1.80673 -6.781 -0.658973 21
78 1 -0.331418 -9.44631 -2.45044 16
79 1 -1.99194 -8.82078 0.779997 18
80 1 -1.46915 -6.93153 3.38653 21
81 1 0.433933 -9.58697 3.01464 13
82 1 -0.429127 -5.47306 7.26095 18
83 1 -2.01752 -1.08342 -0.700494 23
84 1 -0.31129 -3.90898 -0.388797 24
85 1 0.134474 -5.91878 1.39382 21
86 1 -1.73475 -2.92649 2.08451 25
87 1 -1.65427 -0.691773 4.78344 23
88 1 0.174913 -3.89825 4.37249 23
89 1 -0.316918 -8.25091 5.85952 12
90 1 -1.74983 -2.67313 7.07354 22
91 1 -1.69587 -0.426468 10.7035 14
92 1 -0.282672 -4.00941 9.92442 14
93 2 -10.406 -1.03628 0.546675 11
94 2 -6.6778 -5.5766 -1.08395 16
95 2 -7.00605 -6.29611 3.82322 15
96 2 -8.30786 -3.17998 4.33332 13
97 2 -7.82164 -1.59217 1.9789 19
98 2 -6.51098 -4.07627 1.24356 20
99 2 -8.22262 -0.551455 6.43646 13
100 2 -6.61548 -3.86597 6.53716 16
101 2 -4.59499 -8.76619 4.2058 12
102 2 -5.20418 -7.18883 1.54325 16
103 2 -2.85494 -9.63285 2.14563 12
104 2 -5.31544 -6.40664 6.29182 14
105 2 -3.51921 -5.97206 3.86049 23
106 2 -4.92169 -3.33148 4.00402 25
107 2 -4.86795 -1.09962 1.47626 23
108 2 -3.20894 -4.16226 1.41428 23
109 2 -4.81337 -4.13271 8.87583 11
110 2 -3.38379 -1.06935 10.1807 12
111 2 -5.28528 -1.33912 6.88908 21
112 2 -3.2155 -4.05201 6.1933 22
113 2 -1.06161 -8.95077 4.12026 14
114 2 -1.77897 -6.61706 1.49928 21
115 2 0.0816713 -9.24377 1.23006 16
116 2 -1.5791 -6.86023 6.58805 15
117 2 0.0747176 -5.85404 3.86574 23
118 2 -1.60567 -2.57261 3.97252 22
119 2 -1.6352 -0.960262 1.30194 23
120 2 -0.0101146 -3.84689 1.71672 23
121 2 -0.0980348 -5.82258 9.05062 12
122 2 -1.78469 -3.33381 8.99232 15
123 2 -1.93193 -0.73088 7.22787 22
124 2 -0.294681 -3.71725 6.24404 22
125 1 -10.936 1.72103e-04 -3.50692 10
126 1 -7.013 -0.588971 -8.28824 12
127 1 -7.14569 5.21931 -4.33259 14
128 1 -7.32748 2.68201 -6.8709 14
129 1 -7.1068 -0.111444 -3.02109 21
130 1 -8.95224 2.25822 -3.96535 16
131 1 -5.54294 7.69783 -3.77177 14
132 1 -4.10719 -0.16801 -8.83817 15
133 1 -5.2882 2.60863 -8.85566 12
134 1 -5.45076 5.29316 -6.66025 15
135 1 -3.50175 1.59433 -6.30673 21
136 1 -3.97206 -0.229384 -3.62105 20
137 1 -5.44525 2.82232 -4.13989 20
138 1 -3.72566 5.34296 -8.748 11
139 1 -3.34254 7.71184 -6.24207 14
140 1 -3.60475 5.72145 -3.53383 24
141 1 -2.26194 8.5841 -3.42388 20
142 1 -0.288065 -0.0864799 -8.56841 19
143 1 -1.87645 2.78457 -8.48311 19
144 1 -1.95119 4.94213 -5.79239 22
145 1 -0.508858 1.78797 -5.89947 24
146 1 -0.642602 -0.0840009 -3.44142 22
147 1 -2.22985 2.80481 -3.39779 22
148 1 -0.327144 5.66643 -8.20762 14
149 1 -0.251653 8.04369 -5.64066 16
150 1 -0.344155 5.87841 -3.22404 24
151 1 -0.962261 10.5479 -5.31679 9
152 2 -11.7257 -0.954436 -2.04703 9
153 2 -10.3634 1.57907 -2.52194 13
154 2 -7.22524 -0.931049 -6.4062 14
155 2 -8.6322 1.40103 -5.81392 14
156 2 -6.80733 1.74685 -3.2181 21
157 2 -8.2456 3.07485 -0.615688 17
158 2 -8.86567 4.20329 -3.75996 14
159 2 -5.98547 3.61456 -5.79462 18
160 2 -6.19 6.68306 -5.32151 12
161 2 -7.31716 5.83477 -1.36997 16
162 2 -5.61858 8.31439 -1.93461 14
163 2 -4.07552 -0.220433 -6.61967 20
164 2 -6.78914 1.40586 -8.07195 14
165 2 -3.5981 1.95165 -8.41177 15
166 2 -3.80991 -0.0472634 -1.50293 25
167 2 -5.23397 2.9012 -0.817458 22
168 2 -5.53293 4.75717 -3.24127 20
169 2 -3.90616 1.70301 -4.04695 22
170 2 -5.22043 4.39143 -8.44987 13
171 2 -3.60155 5.8416 -1.38366 23
172 2 -1.48944 10.5595 -3.38413 11
173 2 -3.59609 5.75111 -6.82964 16
174 2 -0.506169 -0.205978 -6.30313 24
175 2 -1.97245 3.07552 -6.65136 21
176 2 -1.8663 4.84452 -8.67687 12
177 2 -0.044476 1.80991 -9.28855 15
178 2 -0.343252 -0.0798299 -1.34457 24
179 2 -2.12821 2.73419 -1.53502 23
180 2 -1.99543 4.60842 -3.80182 20
181 2 -0.491055 1.72489 -3.93406 22
182 2 -0.2226 6.12996 -6.27595 18
183 2 -1.81616 9.07811 -6.08858 10
184 2 -0.484638 5.91577 -1.07006 21
185 2 0.060447 9.68676 -1.16277 15
186 2 -3.56026 7.48133 -4.37559 19
187 2 0.884834 9.65106 -5.21453 12
188 1 -10.4674 1.94286 -0.655227 12
189 1 -10.1765 0.22695 2.07439 13
190 1 -9.19835 1.11452 5.49179 9
191 1 -8.36818 4.41976 -1.89238 14
192 1 -6.92636 1.86297 -1.17894 23
193 1 -6.73377 -0.0200418 1.9723 20
194 1 -8.29913 2.6884 1.33444 18
195 1 -8.81314 4.66098 4.39933 9
196 1 -6.48594 2.18861 4.21683 21
197 1 -6.83042 -0.477317 7.7458 13
198 1 -7.11059 7.69769 -0.992323 11
199 1 -7.12612 5.76378 1.8632 16
200 1 -6.08275 6.93006 5.8507 9
201 1 -4.60541 4.32353 10.1766 9
202 1 -5.46467 4.90078 -1.22544 23
203 1 -3.65554 1.68151 -0.815685 23
204 1 -3.34083 0.00206678 2.06985 23
205 1 -5.21999 2.97682 1.27884 20
206 1 -5.03959 4.80196 4.00999 21
207 1 -3.21532 1.78455 4.46081 22
208 1 -3.70169 -0.0753523 7.34295 18
209 1 -5.23976 2.11768 7.39341 14
210 1 -2.32358 2.61056 12.0618 8
211 1 -4.05459 7.82429 -0.992461 18
212 1 -3.70758 6.23543 1.66911 23
213 1 -5.58132 8.34451 2.31853 15
214 1 -3.72198 7.60583 4.801 18
215 1 -3.76567 5.10013 7.4978 19
216 1 -2.07819 4.79197 -0.704793 22
217 1 -0.436511 1.75134 -0.693374 22
218 1 -0.172382 0.0581761 1.89579 23
219 1 -1.97294 3.13534 2.22118 24
220 1 -2.04711 4.81285 4.63044 24
221 1 0.0950813 1.91723 4.74716 22
222 1 -0.203756 0.13458 7.6061 22
223 1 -1.86129 2.72057 6.90138 18
224 1 -1.74965 5.62203 10.2162 12
225 1 0.728254 1.54379 10.2376 14
226 1 -1.60763 10.6227 -1.50022 11
227 1 -1.07599 7.6349 -0.398657 21
228 1 -0.26958 5.8533 1.90974 24
229 1 -2.22637 8.77729 1.89533 18
230 1 -0.584728 7.81263 5.01527 18
231 1 -0.576822 5.67103 7.0876 20
232 1 -2.84217 7.97544 8.02619 9
233 2 -9.82125 0.115968 3.87338 14
234 2 -9.99133 1.88712 1.24944 12
235 2 -6.31598 0.0737821 4.20635 22
236 2 -8.40268 2.81143 4.99436 11
237 2 -8.43619 4.4768 2.49799 13
238 2 -6.74157 2.01347 2.13151 21
239 2 -5.42946 0.539335 8.58294 11
240 2 -6.91857 5.63714 4.6583 14
241 2 -6.7234 7.48109 0.951374 12
242 2 -3.40223 -0.242174 4.24385 21
243 2 -4.68042 2.9631 4.30584 21
244 2 -5.38527 4.91554 1.88649 22
245 2 -3.39856 1.79991 1.2912 23
246 2 -2.99362 1.15347 11.1031 10
247 2 -2.88359 4.10017 10.6955 9
248 2 -4.72382 3.71713 8.32142 11
249 2 -3.44199 1.60482 6.5081 21
250 2 -3.56951 6.10909 3.69153 22
251 2 -5.86685 8.03065 4.14429 13
252 2 -3.67793 8.08822 0.901809 17
253 2 -3.09036 6.35552 9.02347 11
254 2 -4.23844 6.84632 6.40703 15
255 2 -0.0651025 0.00954587 4.0667 24
256 2 -1.57519 3.10855 4.2014 23
257 2 -2.15112 4.85751 1.23013 22
258 2 -0.440109 1.96419 1.54629 22
259 2 0.182034 -0.23725 9.55761 18
260 2 -0.441321 2.22636 11.5043 10
261 2 -2.0642 4.7234 6.68857 23
262 2 -0.0209174 2.05752 6.59246 22
263 2 -0.615603 5.77583 3.76338 23
264 2 -2.0172 8.52239 3.91079 16
265 2 -2.34838 8.69345 -1.33259 18
266 2 -0.611886 7.75304 1.55233 17
267 2 0.0363776 5.17568 9.209 15
268 2 -1.33373 7.46411 6.72355 15
269 1 0.643004 -7.53479 -7.36648 12
270 1 1.54146 -8.33579 -4.19116 15
271 1 1.31143 1.05669 -10.5141 7
272 1 2.63255 -5.29869 -8.95812 12
273 1 1.10948 -2.76804 -8.58996 19
274 1 1.15416 -1.1284 -5.97968 23
275 1 3.37542 -3.9503 -6.10894 20
276 1 3.31504 -5.66593 -3.37648 22
277 1 1.5927 -2.69468 -3.32249 25
278 1 3.81124 -6.92524 -6.19172 14
279 1 5.07649 -8.06112 -4.06624 12
280 1 4.37362 -2.76299 -8.99612 15
281 1 3.947 -1.18223 -5.50352 21
282 1 6.72322 -2.66568 -6.85979 14
283 1 6.42461 -5.07269 -4.62854 19
284 1 4.93635 -2.64634 -3.75483 19
285 1 8.75576 -0.307707 -6.03438 14
286 1 8.34225 -2.76971 -4.03573 16
287 2 2.15428 -8.11521 -6.23113 13
288 2 1.22969 -9.2921 -1.16173 15
289 2 1.45622 -6.36865 -3.28657 20
290 2 3.2399 -8.81418 -3.40246 16
291 2 0.775639 -6.04185 -8.59902 13
292 2 1.43114 -3.02304 -6.55132 22
293 2 1.25961 -0.714234 -9.39988 16
294 2 2.67083 -3.42344 -9.07846 12
295 2 3.23639 -5.59746 -1.46997 22
296 2 1.32301 -2.84651 -0.945517 21
297 2 1.35428 -0.739574 -3.89359 23
298 2 3.08671 -3.63746 -4.04783 23
299 2 5.63166 -8.12856 -2.22821 13
300 2 4.89476 -6.07437 -4.75413 16
301 2 3.80689 -5.35877 -7.30777 16
302 2 4.71271 -2.54211 -6.58088 20
303 2 4.70817 -0.902897 -9.22957 13
304 2 6.30904 -5.67354 -0.959912 19
305 2 4.27706 -2.77754 -1.7779 21
306 2 4.83614 -0.706225 -3.86993 21
307 2 7.06873 -3.64443 -5.4883 14
308 2 7.39654 -5.80011 -3.29253 14
309 2 9.11557 -1.27235 -4.50767 16
310 2 9.15791 -6.40289 -1.02529 10
311 2 9.7874 -3.64505 -2.6419 12
312 2 6.52566 1.30796 -3.44958 17
313 2 6.76294 -2.62773 -2.76355 18
314 1 1.53857 -6.71919 -1.1637 22
315 1 3.19276 -9.48192 -1.69762 13
316 1 1.84823 -8.74718 0.592841 15
317 1 1.58456 -6.65544 4.56951 22
318 1 3.543 -9.02676 4.78681 10
319 1 1.40965 -7.12464 8.9532 9
320 1 1.25483 -1.00295 -0.743216 22
321 1 2.91772 -3.89578 -0.568561 25
322 1 3.34269 -5.8157 1.92464 23
323 1 1.65869 -3.03922 1.96756 25
324 1 1.41841 -1.11546 4.47058 21
325 1 3.7069 -3.88383 4.23909 20
326 1 3.17148 -6.38247 6.88596 18
327 1 1.46322 -3.14663 7.17311 24
328 1 1.82374 -1.38977 9.91665 14
329 1 3.55123 -4.45737 9.60866 13
330 1 4.5962 -6.80899 -0.798744 20
331 1 7.46821 -7.09131 -1.8501 11
332 1 4.95662 -8.63506 1.48214 12
333 1 5.1646 -6.78586 3.7981 17
334 1 4.23971 -0.894742 -0.727017 23
335 1 6.0247 -3.80881 -1.20994 21
336 1 6.63265 -5.44658 1.28578 21
337 1 4.73318 -2.71989 1.80587 25
338 1 4.45379 -0.943525 4.40316 20
339 1 6.89195 -3.17272 4.54697 22
340 1 5.80259 -5.99792 6.1742 14
341 1 4.78988 -2.93833 6.95802 20
342 1 5.13489 -0.944179 9.14763 12
343 1 9.41927 -5.44135 -2.6064 11
344 1 8.53508 -5.43346 3.97162 10
345 1 6.41504 -0.599971 -2.52151 20
346 1 10.0551 -2.52481 -1.13754 13
347 1 9.69665 -5.45734 0.517685 13
348 1 8.26963 -2.65979 1.73815 18
349 1 9.36313 -1.78993 5.90059 10
350 1 11.2541 0.0558117 3.41171 10
351 1 7.53995 -3.2541 8.01447 10
352 1 8.20756 -0.444427 3.48516 20
353 2 1.74716 -8.72653 4.42516 15
354 2 1.78664 -6.67144 0.990341 23
355 2 3.68951 -8.58225 -0.109386 14
356 2 1.28273 -6.71815 6.55305 17
357 2 3.39274 -5.82206 3.92988 22
358 2 1.95886 -2.93957 4.0504 22
359 2 1.46079 -0.862531 1.34435 25
360 2 3.37171 -3.81701 1.19502 22
361 2 2.86309 -6.00494 8.7976 14
362 2 1.40928 -3.08502 9.21108 17
363 2 1.1323 -1.01996 6.64692 21
364 2 3.24128 -3.89279 6.22222 23
365 2 4.78129 -8.86275 3.35977 10
366 2 5.12502 -6.6626 1.51862 17
367 2 4.5044 -7.44767 5.87382 13
368 2 6.87325 -5.77953 4.66316 15
369 2 5.01696 -2.79417 3.73741 24
370 2 4.69643 -0.749809 1.46048 20
371 2 6.39361 -3.2375 0.785093 21
372 2 4.32043 -2.81002 8.88984 14
373 2 4.29189 -1.08359 6.27917 23
374 2 6.2602 -4.6238 7.69001 13
375 2 8.39934 -5.86752 1.95221 12
376 2 8.11683 -3.65258 3.403 17
377 2 8.22912 -0.386998 1.39648 19
378 2 9.41479 -3.59611 0.436428 15
379 2 7.89466 -2.78032 6.06446 16
380 2 11.4807 0.314269 1.54219 10
381 1 3.00068 -0.225079 -8.49863 19
382 1 1.30632 3.16116 -8.5587 19
383 1 1.49368 4.69174 -5.84112 21
384 1 2.71657 1.81849 -6.04605 23
385 1 2.91927 0.158246 -3.26182 27
386 1 1.0337 2.78897 -3.23361 23
387 1 3.16447 5.26621 -8.88417 11
388 1 3.61955 6.85756 -5.8551 14
389 1 2.75741 5.89567 -3.3708 22
390 1 0.89097 9.33395 -3.11656 17
391 1 6.40586 -0.284665 -8.70878 12
392 1 4.71183 2.12003 -9.7067 11
393 1 4.97362 4.12474 -6.89901 18
394 1 7.67021 2.61114 -7.77759 13
395 1 5.88451 0.972451 -5.19356 22
396 1 4.43014 3.11335 -3.27741 22
397 1 5.54899 6.79661 -3.49709 15
398 1 3.99171 9.0213 -3.03958 14
399 1 7.43226 5.87366 -5.86132 10
400 1 10.2409 -0.165143 -3.09587 12
401 1 7.98751 2.43975 -4.25793 18
402 2 2.56455 -0.126226 -6.65801 22
403 2 1.20595 2.87495 -6.75995 25
404 2 1.28205 5.07531 -8.74336 12
405 2 2.92302 1.83351 -10.0124 13
406 2 2.86774 0.0742593 -1.32284 22
407 2 1.09507 2.92378 -1.0469 21
408 2 1.21537 4.79913 -3.88233 22
409 2 2.67796 2.2798 -3.88546 21
410 2 5.44967 7.22998 -5.68032 12
411 2 -0.506022 7.67525 -3.65783 22
412 2 2.84821 5.76679 -1.40886 23
413 2 2.70703 9.54815 -1.66927 12
414 2 5.3477 8.11439 -1.99171 16
415 2 3.02924 5.45268 -6.9757 16
416 2 7.01639 -0.774291 -6.87924 15
417 2 4.50988 3.64419 -8.62046 13
418 2 6.83477 1.47398 -8.9189 12
419 2 5.88164 -0.00482373 -0.797817 20
420 2 4.58743 3.15004 -1.35684 22
421 2 4.69368 5.12641 -3.27174 20
422 2 4.87473 2.62935 -5.6609 20
423 2 6.87509 4.32998 -6.95915 11
424 2 6.7603 5.70393 -0.966149 15
425 2 6.00952 7.44054 1.32237 15
426 2 3.12159 7.64626 -4.00886 18
427 2 7.74004 1.67165 -6.15208 13
428 2 10.0067 -0.716655 -1.41803 14
429 2 7.82392 3.19422 -2.13521 17
430 2 7.52661 6.00017 -3.93917 11
431 2 9.45039 1.55441 -3.54221 13
432 2 9.80115 2.05322 0.166832 15
433 1 1.14255 4.88178 -0.662151 22
434 1 3.14979 2.07588 -0.659977 24
435 1 3.16779 0.170917 1.77195 22
436 1 1.2735 2.98951 1.81991 25
437 1 1.11499 4.91989 4.42866 22
438 1 3.20662 2.14618 4.16425 22
439 1 2.85301 -0.0782216 7.10038 24
440 1 1.53617 3.15187 7.2633 22
441 1 1.84443 4.81872 9.75183 13
442 1 3.67165 2.01595 9.51316 14
443 1 1.79198 10.5339 -0.309807 10
444 1 2.87386 7.6763 -0.588792 22
445 1 3.10477 6.0066 1.8652 24
446 1 0.974903 8.82239 2.46035 18
447 1 2.82604 7.82231 4.27741 17
448 1 4.80421 5.19811 8.54181 12
449 1 2.49225 6.21155 6.86217 18
450 1 4.72677 5.00025 -0.989583 22
451 1 6.40965 1.98646 -1.28113 20
452 1 6.38857 -0.0351522 1.13234 20
453 1 4.96693 3.20695 1.81978 23
454 1 4.45956 4.98431 4.35523 22
455 1 6.07043 1.83499 4.37033 21
456 1 6.43266 -0.345879 6.54313 16
457 1 4.52338 2.8673 6.37122 20
458 1 6.51427 7.64834 -0.463369 13
459 1 6.58266 5.28242 0.901872 18
460 1 3.58919 9.67869 1.96548 12
461 1 5.71678 7.77152 3.08003 15
462 1 5.59979 7.28093 6.12211 14
463 1 7.68975 5.05755 -2.29423 15
464 1 9.46244 2.16976 -1.66542 12
465 1 9.91014 -0.106673 0.305228 15
466 1 8.22788 2.50318 1.4211 20
467 1 7.54173 5.16907 3.52282 18
468 1 9.36547 2.51105 4.39519 12
469 1 6.99803 4.64077 6.16426 14
470 1 11.3321 2.17834 1.4053 9
471 2 2.97758 0.18226 3.92509 25
472 2 1.5203 3.05495 3.86275 24
473 2 1.4562 4.76596 1.23602 22
474 2 3.1148 2.21817 1.42178 22
475 2 1.85111 2.89203 9.44776 16
476 2 4.67132 3.28857 8.40015 14
477 2 1.40605 4.76387 6.32099 25
478 2 2.91205 1.89802 6.89568 19
479 2 2.95999 5.80454 3.76454 24
480 2 0.919913 8.29023 4.05198 18
481 2 1.70354 9.8853 1.34302 12
482 2 3.30925 7.94917 1.38205 19
483 2 3.06339 5.7256 8.64218 15
484 2 3.64969 7.45558 6.08787 15
485 2 6.4802 -0.443244 4.47814 21
486 2 4.77239 3.11559 3.71139 24
487 2 4.62547 5.06031 1.09953 23
488 2 6.30627 2.10899 0.822606 21
489 2 6.95816 -1.47049 8.13465 12
490 2 3.24874 -0.0699617 9.16161 15
491 2 4.81765 4.67708 6.1543 21
492 2 5.77218 1.59992 6.18642 19
493 2 6.33449 6.34451 4.35095 17
494 2 4.35045 9.01919 3.65801 13
495 2 7.85287 4.37168 1.83483 15
496 2 9.9579 -0.766009 4.52331 13
497 2 8.19682 3.89229 4.98915 14
498 2 7.95048 1.61081 3.37719 19
499 2 10.8945 2.21502 3.15649 12
500 2 6.70576 6.24089 7.22274 11
