ITEM: TIMESTEP
68000
ITEM: NUMBER OF ATOMS
2000
ITEM: BOX BOUNDS pp pp pp
-30.0 30.0
-30.0 30.0
-30.0 30.0
ITEM: ATOMS id type x y z Coordination
1 1 -15.4412 -1.46768 -4.50007 15
2 1 -15.3169 -4.41973 -3.13954 14
3 1 -14.1781 -4.01338 6.6706 16
4 2 -15.8965 -3.42731 -4.60432 13
5 2 -14.8907 -1.10866 0.583831 16
6 2 -14.8195 -2.07125 7.25902 10
7 1 -1.39204 -18.4012 0.448096 11
8 1 1.65718 -19.1924 -1.4075 10
9 1 -1.5768 -15.2793 2.37359 20
10 2 1.23383 -15.3153 -1.26499 21
11 2 0.708257 -18.5496 0.194231 12
12 2 -2.65816 -19.1562 1.55946 7
13 2 -3.307 -3.85763 -15.2586 19
14 1 -2.14985 -0.741668 -17.5931 10
15 1 -0.352317 -4.05538 -19.1871 9
16 2 1.61498 -0.0267085 -16.2808 13
17 1 -9.96015 -13.2741 -1.7049 16
18 1 -15.0624 -4.87405 -8.64045 10
19 1 -5.01594 -8.50444 -14.649 17
20 1 -12.2438 -4.95074 -8.37237 19
21 1 -12.7934 -8.60703 -8.17899 12
22 1 -12.276 -9.11729 -5.11513 14
23 1 -12.327 -6.31899 -3.28178 20
24 1 -11.9948 -11.8874 -3.27474 11
25 1 -13.1082 -9.40495 -1.92129 15
26 1 -14.4495 -1.37563 -11.6241 10
27 1 -9.15486 -3.77567 -10.4196 20
28 1 -12.0453 0.745145 -8.68428 20
29 1 -15.426 -1.3658 -8.08533 12
30 1 -10.4757 -1.41784 -11.4113 20
31 1 -16.0702 -4.1761 -6.43995 10
32 1 -13.1448 -0.431665 -5.98833 19
33 1 -15.4808 1.02065 -5.48353 13
34 1 -12.0348 -3.54416 -5.3464 16
35 1 -14.8014 -7.33477 -1.92335 14
36 1 -12.4613 -0.885134 -3.04639 22
37 1 -15.4064 -1.9272 -1.00218 14
38 1 -12.4218 -3.69462 -1.73948 21
39 1 -6.49381 -12.7709 -6.63104 16
40 1 -1.64045 -13.0871 -9.92773 17
41 1 -8.7783 -13.2192 -4.47549 16
42 1 -13.7811 -6.95961 -10.8199 9
43 1 -6.10249 -15.2338 -5.48391 12
44 1 -6.04561 -12.3081 -3.25187 21
45 1 -7.21937 -15.3468 -2.2132 15
46 1 -6.85817 -18.1451 3.9953 10
47 1 -8.33223 -7.29269 -12.2741 14
48 1 -11.1303 -7.19483 -13.2909 8
49 1 -6.23651 -11.421 -12.1415 10
50 1 -9.66654 -8.14562 -9.2904 14
51 1 -7.08634 -6.67817 -9.66324 22
52 1 -10.9025 -6.96556 -6.61494 18
53 1 -6.716 -10.0043 -9.01324 18
54 1 -8.55552 -10.7647 -6.95243 15
55 1 -7.18719 -6.80203 -6.6912 25
56 1 -9.57192 -7.7832 -4.88517 19
57 1 -6.75563 -9.5366 -5.26187 22
58 1 -9.09877 -10.3946 -3.80081 19
59 1 -6.43242 -6.72539 -3.21429 22
60 1 -9.05152 -7.72308 -1.72139 21
61 1 -6.35091 -9.39001 -1.55731 22
62 1 -2.78468 -4.47417 -19.2261 9
63 1 -6.86785 -3.16863 -15.6717 16
64 1 -8.14429 -7.0076 -15.602 10
65 1 -8.98187 -4.4722 -13.4092 18
66 1 -6.62149 -0.756398 -13.1966 19
67 1 -9.61758 -1.50873 -13.8431 11
68 1 -6.38675 -3.5635 -11.7316 22
69 1 -12.0309 -4.16661 -11.5365 13
70 1 -6.9442 -0.796522 -9.92903 21
71 1 -9.29716 -1.96538 -8.14357 20
72 1 -6.73487 -3.81621 -8.46302 21
73 1 -9.17366 -4.90221 -7.18837 20
74 1 -6.97818 -0.661843 -6.73927 20
75 1 -9.79988 -1.75405 -5.01275 22
76 1 -7.13841 -3.81505 -5.12844 22
77 1 -9.69351 -4.80311 -3.47146 23
78 1 -6.92733 -0.99406 -3.39291 20
79 1 -9.46436 -1.68546 -1.74373 19
80 1 -6.77639 -3.92064 -1.89173 19
81 1 -0.732824 -12.2591 -14.6675 12
82 1 -3.41822 -13.5687 -11.9512 12
83 1 0.258079 -13.8595 -12.066 11
84 1 -4.85781 -14.3885 -9.05785 10
85 1 0.687092 -16.8756 -6.49058 13
86 1 -1.7988 -15.6654 -8.31242 12
87 1 -1.67562 -12.6915 -6.92303 21
88 1 -3.94991 -13.119 -5.17849 20
89 1 -1.89516 -15.7161 -5.06035 15
90 1 -4.31056 -16.017 -3.32552 15
91 1 -1.77395 -12.8315 -3.40539 19
92 1 -4.28604 -13.6696 -1.51135 23
93 1 -2.24999 -15.845 -1.44889 18
94 1 -1.28454 -7.49666 -17.6676 14
95 1 -1.66 -9.50272 -14.9073 22
96 1 -2.81253 -7.00637 -12.7244 19
97 1 -4.14119 -11.344 -14.1136 11
98 1 -4.32176 -3.30721 -13.7705 21
99 1 -5.27119 -8.69906 -11.282 20
100 1 -1.61002 -9.93475 -12.1298 19
101 1 -4.24203 -11.2846 -9.32729 20
102 1 -1.56048 -7.06952 -10.4651 19
103 1 -4.20924 -7.69745 -8.5553 20
104 1 -1.76687 -9.73154 -8.45668 21
105 1 -4.68564 -10.7377 -6.73433 24
106 1 -1.80049 -6.90129 -6.91419 24
107 1 -4.0311 -7.78449 -5.00739 21
108 1 -1.94873 -10.1521 -5.11826 22
109 1 -3.85585 -10.4345 -3.00414 20
110 1 -1.26607 -7.02027 -3.38184 22
111 1 -3.83008 -7.46792 -1.71204 23
112 1 -1.10417 -9.63084 -1.90111 20
113 1 -4.01488 -9.26121 -17.2369 9
114 1 -2.41834 -5.89687 -15.1008 18
115 1 -4.74371 -4.96867 -16.0259 16
116 1 -1.87657 -3.07008 -16.2292 21
117 1 -5.98577 -5.83551 -12.8608 24
118 1 -1.07901 -0.873059 -13.3536 20
119 1 -3.89286 -1.0347 -11.5962 19
120 1 -2.27949 -3.80391 -11.854 23
121 1 -4.04131 -5.02995 -10.2724 21
122 1 -1.38546 -0.893055 -10.0572 22
123 1 -4.24887 -2.12494 -8.38228 23
124 1 -1.8091 -4.35106 -8.52547 22
125 1 -4.53364 -4.84658 -6.87072 23
126 1 -1.97548 -1.34512 -6.56973 23
127 1 -4.24931 -1.99608 -4.71113 21
128 1 -1.728 -4.19897 -5.21274 22
129 1 -4.01891 -4.81374 -3.61556 22
130 1 -1.61436 -0.903976 -3.75044 18
131 1 -3.93072 -1.87041 -1.57261 19
132 1 -1.27139 -3.72346 -1.90565 20
133 2 -11.3036 -3.77176 -9.6476 17
134 2 -13.792 -5.7071 -9.49632 14
135 2 -13.8003 -8.35355 -6.44228 10
136 2 -11.0908 -7.09123 -8.39435 17
137 2 -15.5188 -5.93363 -7.02314 10
138 2 -12.8926 -10.0748 -3.65212 12
139 2 -15.3876 -6.37376 -3.63785 12
140 2 -12.7138 -7.4826 -1.79077 17
141 2 -13.0092 -2.51001 -11.1137 15
142 2 -10.0287 -3.0419 -12.4846 16
143 2 -14.6037 -3.04581 -7.80423 17
144 2 -13.3826 -0.474247 -7.94505 17
145 2 -15.3499 -0.871972 -9.82686 11
146 2 -11.3335 -4.98145 -6.64146 20
147 2 -11.648 -7.48208 -4.62083 19
148 2 -12.2696 -1.64468 -4.85711 18
149 2 -15.2521 -0.726467 -6.26922 15
150 2 -12.2513 -4.47951 -3.70141 20
151 2 -15.2277 -3.76862 -1.39181 14
152 2 -11.6393 -1.97568 -1.58558 20
153 2 -5.75491 -10.7696 -10.3866 16
154 2 -10.2465 -12.2634 -3.72628 14
155 2 -3.6477 -12.9683 -10.1851 15
156 2 -8.28442 -12.5982 -6.20718 14
157 2 -8.71381 -14.2428 -2.56356 12
158 2 -4.78634 -18.2753 3.52434 11
159 2 -6.37948 -16.2365 -3.68345 13
160 2 -6.3597 -13.4191 -1.55893 21
161 2 -3.9759 -6.79035 -14.2346 20
162 2 -12.1431 -6.16281 -11.9227 14
163 2 -5.83541 -14.041 -7.49976 12
164 2 -8.68947 -9.48968 -8.60254 15
165 2 -5.05325 -9.61829 -13.1041 16
166 2 -8.76287 -7.18748 -10.551 18
167 2 -6.27627 -8.10203 -8.79581 22
168 2 -13.1026 -8.41927 -9.96662 8
169 2 -6.47092 -7.70301 -11.9274 19
170 2 -8.9694 -6.80313 -6.32771 20
171 2 -6.41589 -10.9967 -7.17924 18
172 2 -9.00731 -9.53901 -5.47036 18
173 2 -6.14848 -7.70397 -4.91852 21
174 2 -9.07564 -6.69837 -3.32455 22
175 2 -7.1001 -10.6455 -3.56961 24
176 2 -9.25817 -9.71546 -1.72547 21
177 2 -6.78418 -7.57962 -1.60278 20
178 2 -7.85401 -5.06218 -11.6418 18
179 2 -5.57688 -3.42982 -17.0759 13
180 2 -7.28236 0.939198 -13.3106 20
181 2 -7.83551 -2.22511 -14.0513 17
182 2 -8.00391 -4.82808 -15.2865 14
183 2 -9.45259 -6.52076 -13.7581 12
184 2 -6.08171 -1.66073 -11.4743 21
185 2 -8.78168 -0.906535 -10.6127 22
186 2 -6.16351 -4.73106 -9.91122 21
187 2 -8.69833 -3.84059 -8.62523 22
188 2 -6.43474 -1.80591 -8.29002 23
189 2 -9.08068 -0.709428 -6.47836 20
190 2 -6.61232 -4.99392 -6.66888 19
191 2 -9.02074 -3.72303 -5.66968 22
192 2 -6.06752 -1.7949 -5.21079 22
193 2 -9.32383 -0.819825 -3.42586 18
194 2 -6.52006 -4.74758 -3.52207 22
195 2 -9.73062 -3.51473 -1.79588 21
196 2 -6.4819 -1.78742 -1.62733 21
197 2 -1.72058 -14.1175 -11.7254 12
198 2 -2.32254 -11.1073 -13.676 16
199 2 -1.19541 -16.3352 -6.68386 13
200 2 -0.854403 -13.9105 -8.3357 19
201 2 -3.58706 -12.2582 -7.15112 21
202 2 -1.51307 -13.8142 -5.15987 21
203 2 -5.99718 -13.3063 -4.82026 21
204 2 -1.41929 -13.7013 -1.61654 19
205 2 -3.8121 -12.3935 -3.29426 22
206 2 -1.75645 -16.0428 -3.20942 17
207 2 -4.19215 -15.537 -1.57747 15
208 2 0.939283 -12.4337 -0.0606353 20
209 2 -2.44647 -8.69066 -18.0102 8
210 2 -3.53113 -9.89499 -15.5113 14
211 2 0.358766 -8.59342 -18.0925 12
212 2 -6.65505 -8.07123 -15.3485 13
213 2 -1.31209 -7.39666 -15.6315 18
214 2 -4.95322 -12.7023 -12.7726 9
215 2 -1.60512 -8.3263 -12.2244 21
216 2 -3.66427 -6.99985 -10.3392 23
217 2 -1.68422 -10.8173 -10.1457 20
218 2 -3.73324 -9.67073 -7.95011 22
219 2 -1.30263 -7.76832 -8.50247 21
220 2 -3.78838 -6.78364 -6.84905 22
221 2 -1.03484 -10.8093 -6.89251 23
222 2 -4.03078 -9.95018 -5.12494 20
223 2 -1.39662 -8.09543 -5.22931 22
224 2 -4.01482 -6.79689 -3.32071 21
225 2 -1.52859 -10.6213 -3.41585 19
226 2 -4.32636 -9.75326 -1.45632 21
227 2 -1.97293 -7.9507 -1.62507 22
228 2 -3.9394 -3.27658 -19.5234 10
229 2 -1.53647 -5.58029 -18.3851 14
230 2 -5.73332 -4.60993 -14.431 18
231 2 -1.52451 -2.46973 -18.1112 13
232 2 -4.23994 -1.23867 -13.852 22
233 2 -1.53194 -5.40689 -13.1745 22
234 2 -4.17254 -3.76194 -11.8626 21
235 2 -1.34511 -1.94791 -11.8444 21
236 2 -3.74399 -1.03806 -9.82553 19
237 2 -1.33365 -4.81414 -10.1819 22
238 2 -3.79277 -4.15985 -8.65892 21
239 2 -1.19391 -2.28406 -8.56678 24
240 2 -3.90822 -1.35639 -6.52208 20
241 2 -0.791656 -5.0946 -6.81435 25
242 2 -3.77952 -3.83735 -5.48229 22
243 2 -1.11696 -2.52233 -5.04934 24
244 2 -3.74799 -0.622317 -3.69796 20
245 2 -1.8094 -5.22648 -3.59537 22
246 2 -4.11238 -3.89303 -1.96349 20
247 2 -1.66177 -1.69934 -1.94448 19
248 1 -9.50309 -13.6434 4.51769 15
249 1 -12.0284 -9.4692 4.86859 15
250 1 -11.8847 -6.65761 -0.160901 20
251 1 -14.9795 -7.15611 -5.50605 12
252 1 -11.8182 -9.33664 0.961933 18
253 1 -11.4835 -6.62024 3.08887 24
254 1 -14.3926 -7.1575 1.86322 15
255 1 -9.28955 -10.4761 3.25009 21
256 1 -14.1873 -6.82084 5.3698 14
257 1 -12.3437 -9.121 8.36262 11
258 1 -11.411 -6.28454 6.15133 22
259 1 -14.92 -4.7286 0.243858 16
260 1 -11.0909 -0.737612 0.566658 22
261 1 -14.5939 -2.05616 2.30669 14
262 1 -11.9499 -3.55221 1.31226 20
263 1 -13.9276 -4.56325 3.58055 20
264 1 -12.1433 -0.791512 3.69934 22
265 1 -15.3023 -1.58207 5.55275 12
266 1 -11.2984 -3.69373 5.21087 21
267 1 -11.4751 -4.16724 8.62686 22
268 1 -11.5541 -0.828698 7.00434 20
269 1 -14.2676 -5.76897 9.098 10
270 1 -11.1252 -6.98547 11.1035 14
271 1 -11.5393 -0.880534 10.4684 18
272 1 -12.6652 -3.87718 11.7386 9
273 1 -10.8932 -1.48435 13.7506 11
274 1 -7.26076 -12.5782 0.0607661 22
275 1 -12.8212 -12.2199 0.105325 11
276 1 -7.74026 -15.5468 1.23623 15
277 1 -6.54827 -12.6084 3.50043 19
278 1 -10.4735 -13.2807 1.9911 17
279 1 -9.30749 -16.5988 3.03701 10
280 1 -6.92228 -12.4141 6.78893 19
281 1 -7.45262 -15.461 5.81979 15
282 1 -6.23378 -14.5025 9.07625 12
283 1 -8.99691 -10.3811 0.172092 19
284 1 -6.71146 -6.44471 -0.051172 21
285 1 -8.85723 -7.521 1.39339 23
286 1 -6.01928 -9.73999 1.7699 23
287 1 -12.3998 -11.9718 3.68161 11
288 1 -6.59159 -6.65619 3.60418 21
289 1 -9.1098 -7.66737 5.06183 22
290 1 -6.64713 -9.49314 4.91351 21
291 1 -9.9732 -10.5001 6.75341 16
292 1 -6.13976 -6.70673 6.78745 23
293 1 -9.94225 -7.49465 8.43065 18
294 1 -7.06827 -9.2253 8.46534 21
295 1 -8.84388 -13.7876 8.56423 9
296 1 -5.68187 -6.59582 10.1927 23
297 1 -8.49996 -8.5143 11.4378 16
298 1 -6.6994 -11.7463 10.8455 11
299 1 -6.57515 -6.65711 13.1648 19
300 1 -9.66159 -4.74071 -0.133615 19
301 1 -6.7142 -0.979775 0.0111308 20
302 1 -9.00397 -1.94041 1.98455 22
303 1 -6.61635 -3.89422 1.28441 21
304 1 -9.14109 -4.96116 3.31532 23
305 1 -6.5985 -0.853427 3.30615 20
306 1 -8.87372 -1.58053 5.35921 21
307 1 -6.72399 -3.44361 4.73251 21
308 1 -8.66428 -4.47054 6.85049 21
309 1 -6.15097 -0.626263 6.72604 22
310 1 -9.08643 -2.0587 8.46662 20
311 1 -6.30683 -3.59318 8.40739 23
312 1 -8.27552 -4.99365 10.1775 21
313 1 -6.32306 -0.686304 9.87666 22
314 1 -8.82573 -2.24842 11.6957 20
315 1 -6.20954 -3.76781 11.6965 19
316 1 -9.23095 -5.60255 12.7993 13
317 1 -7.04912 -0.787922 13.5841 19
318 1 -9.39286 0.970187 13.8528 16
319 1 -6.3221 -3.89099 14.8606 14
320 1 -5.37006 -16.5832 -0.0446853 14
321 1 -1.87569 -12.635 0.188945 21
322 1 -4.60679 -13.8282 1.88023 17
323 1 -3.6353 -19.6248 2.85818 5
324 1 -3.94502 -16.5623 3.74039 14
325 1 -0.81241 -12.1973 3.60878 20
326 1 -3.43066 -13.1855 4.73971 20
327 1 -1.53187 -15.4228 5.59672 19
328 1 -4.89646 -16.0259 6.66829 14
329 1 -1.01849 -12.6631 6.69508 19
330 1 -3.81204 -12.9238 8.29991 17
331 1 -2.34927 -15.2087 8.4916 13
332 1 -0.857129 -12.5791 9.89318 15
333 1 -3.56509 -12.8696 11.5707 12
334 1 -0.332349 -12.5735 13.1277 10
335 1 -3.77641 -10.7284 0.253682 22
336 1 -1.11631 -6.86586 -0.213756 21
337 1 -3.74579 -7.29407 1.55238 24
338 1 -1.26108 -9.68704 1.52012 21
339 1 -3.60326 -10.3814 3.39832 23
340 1 -0.90417 -6.91583 3.19553 21
341 1 -3.43391 -7.4396 5.07938 22
342 1 -0.741061 -9.69731 4.86228 23
343 1 -4.01815 -10.3925 6.56535 20
344 1 -0.643951 -6.98195 6.58432 22
345 1 -3.65618 -7.4266 8.21489 21
346 1 -1.39413 -9.60153 8.31248 19
347 1 -4.7476 -9.79934 10.6319 16
348 1 -1.07104 -6.59103 9.48027 19
349 1 -3.4458 -7.68739 11.7252 21
350 1 -1.51394 -9.7188 11.5568 21
351 1 -5.71279 -9.50878 13.2112 14
352 1 -1.29308 -6.73487 13.2512 19
353 1 -3.62496 -7.04984 15.3604 15
354 1 -2.62297 -9.97609 15.3655 10
355 1 -3.88659 -4.73238 -0.216939 19
356 1 -1.03376 -0.937167 -0.201739 21
357 1 -4.23643 -1.67145 1.42063 21
358 1 -0.916823 -4.28408 1.40038 21
359 1 -3.56126 -4.60609 3.20255 22
360 1 -1.16893 -0.937217 3.3784 22
361 1 -3.39345 -1.56592 4.90459 20
362 1 -1.18957 -3.90675 5.0663 20
363 1 -4.44004 -4.3935 6.24978 18
364 1 -0.932992 -0.785156 6.791 20
365 1 -3.56069 -1.70978 8.35121 20
366 1 -0.680813 -3.67597 8.0949 23
367 1 -3.45283 -4.53366 9.60812 20
368 1 -1.00808 -0.775901 9.88033 20
369 1 -3.62921 -1.79212 11.5666 20
370 1 -1.04194 -3.81638 11.5766 22
371 1 -3.77883 -4.70318 13.3794 21
372 1 -0.991552 -0.69961 13.2115 20
373 1 -4.09944 -1.92835 14.9407 21
374 1 -1.19875 -3.64842 14.8175 19
375 2 -14.782 -6.60009 0.068235 13
376 2 -12.4077 -10.4604 -0.340937 16
377 2 -12.3049 -10.2747 2.90205 16
378 2 -12.6462 -7.50183 1.36134 21
379 2 -12.1916 -13.1767 -1.40623 11
380 2 -10.3317 -12.0615 3.64309 17
381 2 -12.3596 -7.6669 4.97836 18
382 2 -14.8604 -6.44594 3.6607 13
383 2 -11.9467 -9.71775 6.74709 15
384 2 -11.6219 -7.85167 9.46487 13
385 2 -14.3377 -1.18319 -2.93872 18
386 2 -12.3537 -4.67352 -0.227904 21
387 2 -13.9007 -3.8555 1.67449 19
388 2 -11.8352 -1.56371 1.87201 20
389 2 -14.7071 -0.890455 3.97746 16
390 2 -11.7115 -4.82687 3.60542 20
391 2 -14.6729 -3.23839 4.78596 15
392 2 -11.8848 -1.80583 5.30005 22
393 2 -12.9608 -4.8516 9.92679 12
394 2 -12.0135 -4.58776 6.96632 21
395 2 -14.4907 -6.0527 7.00984 12
396 2 -12.2604 -1.23061 8.7517 19
397 2 -11.1474 -5.18588 12.2761 13
398 2 -11.416 -2.30321 12.0427 13
399 2 -9.38526 -12.4733 0.132337 19
400 2 -7.14918 -16.2548 -0.594277 13
401 2 -9.30536 -14.9014 1.8794 15
402 2 -6.46261 -13.7206 1.58485 17
403 2 -12.3774 -12.8306 1.94655 11
404 2 -7.37699 -16.6141 2.73013 13
405 2 -8.83897 -12.1484 7.25735 15
406 2 -9.63675 -15.5348 4.55896 12
407 2 -6.24441 -16.9008 5.46381 12
408 2 -7.67867 -13.5445 4.83835 19
409 2 -9.77619 -6.74881 -0.189623 22
410 2 -6.87492 -10.4473 0.064877 21
411 2 -9.82382 -9.22618 1.46318 21
412 2 -6.99872 -7.40847 1.8161 23
413 2 -9.53264 -6.84983 3.325 20
414 2 -6.82923 -10.5938 3.27621 21
415 2 -9.42662 -9.56426 4.83975 19
416 2 -7.04258 -7.76133 5.20717 20
417 2 -9.73659 -6.4599 6.88628 21
418 2 -6.37863 -10.3179 6.59852 18
419 2 -8.81777 -9.01975 8.09329 18
420 2 -6.11128 -7.45773 8.45581 20
421 2 -9.45387 -7.0806 10.5949 18
422 2 -7.38704 -14.5529 7.49224 12
423 2 -7.26936 -9.83368 10.8215 13
424 2 -6.56638 -1.97032 15.0363 14
425 2 -8.33233 -7.48132 13.2064 12
426 2 -7.37511 -12.8649 9.71789 12
427 2 -3.32677 -6.7796 13.4198 19
428 2 -9.02593 -0.638939 0.0918359 20
429 2 -7.50414 -4.44318 -0.170836 25
430 2 -9.75557 -3.67357 1.88077 21
431 2 -6.67768 -1.96808 1.79119 19
432 2 -8.72221 -0.767578 3.68102 22
433 2 -7.25844 -4.72812 3.10747 22
434 2 -9.21708 -3.61579 5.26393 20
435 2 -6.61157 -1.62342 5.0977 22
436 2 -9.47238 -0.768543 7.22148 21
437 2 -6.52567 -4.66601 6.52924 18
438 2 -9.42179 -3.97593 8.52896 21
439 2 -6.89888 -1.78441 8.18307 22
440 2 -9.42714 -1.12449 10.2057 21
441 2 -6.29447 -4.74415 9.95984 21
442 2 -8.43438 -4.16522 11.7127 20
443 2 -6.27225 -1.67096 11.6895 23
444 2 -9.38286 2.16825 15.2976 12
445 2 -5.95731 -4.84006 13.3108 18
446 2 -8.98817 -1.0719 13.3409 17
447 2 -6.68815 0.955668 16.4723 15
448 2 -3.80874 -12.6846 0.321786 21
449 2 -3.98772 -15.6676 -5.33341 14
450 2 -3.5004 -15.2316 2.44002 16
451 2 -0.599265 -13.5072 1.9029 21
452 2 -4.53499 -12.0688 3.6637 21
453 2 -1.31456 -16.5501 3.9697 16
454 2 -3.46825 -15.6916 5.40084 14
455 2 -1.34438 -13.3002 4.81377 22
456 2 -3.938 -12.2504 6.44379 19
457 2 2.0833 -15.3599 8.88831 11
458 2 -4.41168 -14.8004 8.26081 17
459 2 -1.67164 -13.0205 8.33418 18
460 2 -5.07782 -11.2656 12.3946 13
461 2 -1.68187 -12.4437 11.587 12
462 2 -4.59507 -6.72221 -0.0161291 22
463 2 -1.4906 -10.7995 -0.171632 21
464 2 -4.11425 -9.40958 1.71791 20
465 2 -1.55802 -7.7691 1.5543 23
466 2 -4.64561 -6.63678 3.26814 24
467 2 -1.65324 -10.4072 3.21629 21
468 2 -4.22001 -9.28119 4.92874 23
469 2 -1.58675 -7.91815 4.71796 22
470 2 -3.92891 -6.30042 6.44895 20
471 2 -1.17939 -10.7049 6.67214 22
472 2 -3.80337 -9.69066 8.67545 20
473 2 -1.5657 -7.81393 8.17428 20
474 2 -3.81526 -6.54556 10.0156 20
475 2 -0.499501 -10.5451 10.2381 17
476 2 -3.24289 -9.75252 11.5294 19
477 2 -1.32556 -7.76065 11.423 20
478 2 -5.69514 -7.94245 11.9136 17
479 2 -0.551565 -10.5425 14.0247 12
480 2 -4.32373 -9.38533 14.7202 10
481 2 -1.43843 -8.43125 15.8785 13
482 2 -4.30817 -0.467564 -0.0441008 20
483 2 -1.80763 -4.93588 -0.312007 23
484 2 -4.36659 -3.78559 1.31173 21
485 2 -0.702017 -2.23589 1.35392 19
486 2 -3.55857 -1.03006 3.004 19
487 2 -1.36158 -4.90165 3.40537 21
488 2 -4.15644 -3.57547 4.57628 19
489 2 -1.54186 -1.72663 5.02326 22
490 2 -4.00973 -0.882696 6.75621 21
491 2 -0.664518 -4.96362 6.5633 19
492 2 -4.44888 -3.63642 8.42492 23
493 2 -1.52379 -1.93408 8.22893 22
494 2 -4.07675 -0.672765 9.94922 22
495 2 -1.56362 -4.51671 9.58607 22
496 2 -3.77955 -3.96781 11.6903 19
497 2 -0.948619 -1.9306 11.4075 20
498 2 -3.12782 -1.11311 13.3347 22
499 2 -1.52253 -4.82439 13.337 18
500 2 -2.91803 -3.03592 15.8714 13
501 2 -0.86227 -1.63161 15.294 18
502 1 -12.2649 1.58799 -12.0402 12
503 1 -11.7063 5.43566 -9.59697 18
504 1 -13.7596 3.30898 -7.66537 13
505 1 -14.9217 0.913933 -10.1711 10
506 1 -12.6736 -2.11432 -8.86079 20
507 1 -12.0039 5.03105 -6.33909 17
508 1 -14.6479 3.50035 -4.44674 14
509 1 -12.1115 2.24462 -4.79554 24
510 1 -14.4472 0.703706 -2.30349 17
511 1 -11.6745 8.13967 -4.41122 18
512 1 -12.19 5.02016 -3.02402 22
513 1 -12.1133 2.20895 -1.59474 23
514 1 -11.2529 8.49132 -10.4411 16
515 1 -13.0973 7.77501 -7.91701 14
516 1 -9.59636 6.70361 -6.53579 22
517 1 -12.572 10.6724 -6.08891 12
518 1 -14.518 3.82312 -1.04693 18
519 1 -11.9924 10.5518 -2.66795 15
520 1 -14.3491 6.5889 -2.14574 14
521 1 -11.7147 7.98028 -1.23382 23
522 1 -7.01963 1.75453 -14.8965 12
523 1 -9.73841 4.5154 -15.1503 11
524 1 -4.19666 -0.265587 -15.6377 18
525 1 -9.35542 1.72355 -13.1918 16
526 1 -8.48297 7.96342 -15.6142 9
527 1 -9.41151 4.08842 -11.7014 19
528 1 -6.52828 1.93709 -11.3194 24
529 1 -9.38216 0.899857 -10.1298 18
530 1 -6.41294 5.03701 -10.2894 23
531 1 -9.61291 3.79959 -8.62001 20
532 1 -6.74467 2.12473 -8.05032 23
533 1 -9.80627 1.24653 -6.62779 20
534 1 -6.75148 4.85815 -7.03033 21
535 1 -9.25527 4.20132 -5.12726 20
536 1 -6.8333 2.4356 -4.94799 20
537 1 -9.79957 1.23271 -3.30202 22
538 1 -6.59766 4.8925 -3.52074 24
539 1 -9.10338 3.79901 -1.62525 20
540 1 -6.61502 2.04649 -1.52421 23
541 1 -9.5054 9.51289 -12.4626 14
542 1 -10.5938 6.93591 -13.5021 10
543 1 -10.9135 12.1792 -10.6341 13
544 1 -6.49886 8.15133 -11.8032 19
545 1 -6.325 4.69433 -13.3298 22
546 1 -8.88112 6.86 -10.2899 21
547 1 -8.12297 11.9037 -11.978 11
548 1 -10.0071 9.54809 -8.28463 24
549 1 -7.40097 7.57951 -8.24088 21
550 1 -12.7358 10.8451 -9.1098 10
551 1 -7.20471 10.4018 -6.91596 20
552 1 -9.1643 10.3777 -4.90816 19
553 1 -6.80507 8.15634 -4.81538 22
554 1 -9.17315 6.75135 -3.31929 22
555 1 -6.11077 10.6268 -3.51968 21
556 1 -8.98562 9.87308 -1.88771 20
557 1 -6.27688 7.73104 -1.68362 23
558 1 -8.16889 12.9781 -8.44773 18
559 1 -11.3139 14.072 -7.78825 7
560 1 -4.48116 12.854 -12.3306 12
561 1 -4.94132 12.7294 -9.04771 17
562 1 -11.4401 11.2233 0.062598 14
563 1 -6.71304 14.2876 -3.18453 19
564 1 -8.66508 14.6056 -6.22521 11
565 1 -5.31646 12.604 -5.91639 19
566 1 -4.96825 -2.32213 -18.5025 11
567 1 -1.56938 2.78255 -17.3162 10
568 1 -3.70101 4.22323 -15.0331 12
569 1 -0.442454 0.708643 -16.0154 15
570 1 -3.69336 1.2544 -13.3596 17
571 1 -2.17197 5.96089 -16.8894 9
572 1 -3.69745 3.76584 -11.41 20
573 1 -1.04489 2.06234 -11.7543 19
574 1 -3.89931 0.951067 -9.73358 21
575 1 -0.844734 4.76951 -10.1251 21
576 1 -3.76807 4.07413 -8.23929 21
577 1 -1.53431 1.58377 -7.9725 20
578 1 -4.54439 0.797989 -6.35399 20
579 1 -0.935631 4.82747 -6.74457 20
580 1 -3.61318 4.01476 -5.06954 22
581 1 -0.841835 2.22981 -5.0963 20
582 1 -4.28101 1.37074 -3.19858 19
583 1 -1.35048 4.85638 -3.37306 17
584 1 -3.68055 4.341 -1.81988 22
585 1 -0.787787 1.89358 -1.6732 21
586 1 -6.86147 5.66716 -16.4944 10
587 1 -5.39227 8.68975 -16.5503 7
588 1 -3.00068 8.65673 -14.9108 15
589 1 -4.25132 6.94811 -12.8514 19
590 1 1.69064 12.0758 -13.2875 12
591 1 -3.65988 9.61462 -11.7522 19
592 1 -1.14023 7.8717 -11.7204 19
593 1 -3.81547 6.94595 -9.80257 21
594 1 -0.673339 10.6196 -9.96827 18
595 1 -6.64196 10.3901 -10.2749 22
596 1 -1.53317 7.57926 -8.3817 20
597 1 -4.59719 6.6515 -6.38309 20
598 1 -1.90834 10.7404 -7.09105 20
599 1 -3.52187 9.73784 -5.18914 21
600 1 -0.87486 7.74323 -5.18149 19
601 1 -3.64351 6.78734 -3.59716 21
602 1 -0.959235 10.4773 -3.41823 22
603 1 -3.85411 9.48624 -1.8584 19
604 1 -1.00427 7.63077 -1.52526 23
605 1 -1.63212 10.6743 -13.4605 16
606 1 -5.60798 11.0056 -13.9147 11
607 1 -3.79018 15.2279 -9.52078 8
608 1 -0.649244 13.7957 -8.41893 14
609 1 -4.57636 9.41818 -8.54719 19
610 1 -2.8556 13.4765 -6.97978 16
611 1 -5.32288 15.4855 -5.91823 12
612 1 -0.951142 13.2038 -4.88485 17
613 1 -3.78781 12.498 -3.4302 22
614 1 -4.33469 15.2698 -1.24823 16
615 1 -9.73901 13.2747 -3.42095 13
616 1 -1.50085 13.5508 -2.09823 22
617 2 -10.6641 0.182219 -12.9653 12
618 2 -11.0606 -0.856752 -9.50854 20
619 2 -14.0348 0.59408 -11.8877 8
620 2 -13.495 2.0185 -9.26025 13
621 2 -12.419 4.49049 -8.02295 17
622 2 -12.336 6.96666 -6.45902 17
623 2 -11.8591 0.998987 -6.20855 22
624 2 -14.6429 1.67835 -3.8915 17
625 2 -10.0211 4.9203 -6.71651 21
626 2 -14.8848 2.66039 -6.368 13
627 2 -11.9045 1.25352 -3.16007 20
628 2 -14.4313 2.03848 -0.977446 15
629 2 -11.7298 4.08998 -1.42847 19
630 2 -7.71726 11.9924 -9.78589 16
631 2 -11.2109 10.1981 -10.3734 15
632 2 -12.401 7.2296 -9.64704 14
633 2 -12.4896 4.1603 -4.67615 20
634 2 -12.1217 9.88353 -7.74448 14
635 2 -12.5761 7.09173 -2.77178 19
636 2 -14.3773 4.55831 -2.84379 14
637 2 -12.3953 9.8354 -4.30972 12
638 2 -10.0639 12.9863 0.457412 13
639 2 -4.29237 -0.896623 -17.3012 12
640 2 -8.38916 3.23955 -14.3755 14
641 2 -8.47232 5.89038 -15.4759 11
642 2 -10.2024 4.98717 -13.133 14
643 2 -5.12083 1.39197 -14.8346 15
644 2 -10.0113 2.33517 -11.3589 19
645 2 -6.70324 3.77811 -11.6371 20
646 2 -9.8634 4.91194 -10.1178 17
647 2 -6.98272 1.08957 -9.67439 20
648 2 -10.0253 1.92881 -8.50811 20
649 2 -7.24727 4.08028 -8.76492 20
650 2 -6.96884 6.68056 -6.36714 22
651 2 -6.66306 1.28731 -6.52426 19
652 2 -10.0725 2.51255 -4.86496 21
653 2 -7.00768 4.29354 -5.11116 22
654 2 -9.52719 5.07195 -2.99327 21
655 2 -6.59533 1.01225 -3.35604 20
656 2 -9.94572 2.09732 -1.60332 22
657 2 -6.8804 3.80708 -1.59 24
658 2 -10.0339 7.6403 -11.692 17
659 2 -7.88836 9.58882 -11.6514 20
660 2 -9.90334 11.3394 -12.0915 12
661 2 -9.43547 14.1611 -7.8558 9
662 2 -7.08086 7.04263 -10.2077 21
663 2 -9.35845 7.76893 -8.06706 20
664 2 -9.23035 9.84668 -6.71833 17
665 2 -11.7346 12.4987 -8.87035 10
666 2 -6.79323 9.34486 -8.40554 22
667 2 -9.92936 8.01978 -4.6248 22
668 2 -7.47595 9.89397 -4.87582 19
669 2 -12.2591 9.61521 1.55496 17
670 2 -7.07203 6.79505 -3.46891 23
671 2 -9.44027 7.82502 -1.53564 21
672 2 -7.06093 10.0089 -1.61979 22
673 2 -6.4915 12.1047 -12.6016 14
674 2 -4.76763 10.9817 -9.81272 18
675 2 -6.90806 12.4949 -7.20789 20
676 2 -10.0833 11.1567 -2.83866 18
677 2 -9.95192 13.5397 -5.21759 13
678 2 -6.36609 12.6285 -4.02628 20
679 2 -12.3298 9.85342 -0.822951 15
680 2 -6.10176 15.2748 -1.55261 14
681 2 -5.33393 4.86471 -15.3564 14
682 2 -0.789708 -1.69131 -15.3758 16
683 2 -1.85942 0.969889 -17.1797 12
684 2 -2.81284 7.97269 -13.0829 17
685 2 -4.30396 5.00122 -13.0418 16
686 2 -1.4311 0.882262 -13.4842 21
687 2 -4.51352 1.76423 -11.4482 23
688 2 -1.76054 3.63924 -11.4088 17
689 2 -4.29904 4.99082 -10.0553 21
690 2 -1.39898 0.984311 -10.0393 22
691 2 -3.68277 1.64633 -7.89431 18
692 2 -1.6979 3.70283 -8.20175 23
693 2 -4.6551 4.84735 -6.73249 22
694 2 -1.44648 0.630209 -6.33044 20
695 2 -4.83067 2.33217 -4.86449 20
696 2 -1.62702 4.09151 -5.1009 21
697 2 -4.07638 4.90571 -3.51025 20
698 2 -0.817584 0.867234 -3.44667 18
699 2 -4.24184 2.31301 -1.72806 20
700 2 -1.3453 3.78753 -1.6302 21
701 2 -2.47174 3.97642 -16.3468 12
702 2 -6.51608 7.48154 -16.3108 10
703 2 -3.13469 7.53622 -16.4974 12
704 2 -9.69882 8.38851 -14.4828 10
705 2 -0.1988 6.05221 -16.7064 12
706 2 -4.66439 8.21578 -10.9775 21
707 2 -1.35286 9.79991 -11.5609 19
708 2 -6.22978 6.53067 -12.7076 19
709 2 -1.44406 6.81031 -10.1825 23
710 2 -3.50757 7.39039 -8.22647 19
711 2 -0.828593 9.68192 -8.24551 20
712 2 -3.76606 10.7184 -7.2329 18
713 2 -0.710777 6.702 -6.91619 17
714 2 -4.35531 7.94182 -4.99972 21
715 2 -1.57103 9.84807 -5.20224 20
716 2 -4.10267 10.5041 -3.54226 22
717 2 -1.72719 6.66841 -3.87753 23
718 2 -4.34156 7.54768 -1.69893 22
719 2 -1.90218 9.5178 -1.57948 23
720 2 -0.231183 12.5188 -12.9936 12
721 2 -4.83594 9.75304 -15.1636 12
722 2 -0.304567 12.6284 -9.91594 16
723 2 -4.42833 13.8399 -10.5188 11
724 2 -2.21204 14.6963 -8.43032 11
725 2 -3.90739 11.1552 -12.7172 16
726 2 -1.05083 12.5588 -6.80769 18
727 2 -3.7947 13.3393 -5.16236 23
728 2 -4.65789 14.1631 -7.57834 14
729 2 -6.98226 14.9137 -5.17696 15
730 2 -0.721354 15.0125 -3.86092 18
731 2 -1.2641 12.2894 -3.2648 21
732 2 -2.27432 15.7685 -1.67585 16
733 1 -14.4347 0.834442 0.540689 15
734 1 -11.3325 4.97817 0.338889 24
735 1 -14.3318 4.14418 2.3209 19
736 1 -11.7894 2.10667 2.14038 20
737 1 -14.9069 0.817933 3.61178 14
738 1 -11.6073 4.80837 3.61992 22
739 1 -15.3236 5.686 5.35188 8
740 1 -12.2825 2.03027 5.21974 22
741 1 -14.0195 -0.647147 8.36941 13
742 1 -12.2701 4.94567 6.93329 19
743 1 -14.899 2.74711 6.47605 11
744 1 -12.6576 1.8569 8.56818 18
745 1 -10.9705 5.08595 10.5309 13
746 1 -11.919 2.02424 12.0732 10
747 1 -15.731 6.85726 0.740766 10
748 1 -12.2238 10.0704 3.44898 18
749 1 -13.8877 9.22688 0.234554 14
750 1 -11.6034 7.70777 1.87337 22
751 1 -13.8209 7.47242 3.16403 17
752 1 -12.7804 11.1708 6.12096 11
753 1 -11.7316 7.69529 5.53725 19
754 1 -14.4728 8.874 6.39831 11
755 1 -12.3942 10.6814 8.8252 11
756 1 -12.3566 7.65494 9.04421 14
757 1 -9.17151 1.21484 0.0871675 19
758 1 -6.20041 4.96301 -0.00234317 21
759 1 -8.76123 4.23321 1.81949 22
760 1 -5.98806 1.85362 1.58366 24
761 1 -9.1721 1.0958 3.45119 22
762 1 -6.33823 4.78071 3.58257 21
763 1 -9.44488 3.93143 5.10731 21
764 1 -6.8331 1.79697 5.11675 22
765 1 -9.87944 0.986181 6.79312 22
766 1 -6.67021 4.62255 6.88899 21
767 1 -9.90915 3.56849 8.33485 21
768 1 -7.03548 2.09263 8.41013 23
769 1 -9.04634 0.772048 10.215 21
770 1 -7.1723 4.80301 9.96494 23
771 1 -9.36837 3.72499 12.1756 16
772 1 -7.0641 2.0067 12.0871 22
773 1 -8.69219 4.00894 15.5536 9
774 1 -6.72182 5.36201 13.0794 19
775 1 -5.59501 4.50329 17.497 11
776 1 -4.52424 1.2656 16.4871 16
777 1 -8.78264 6.56104 -0.0537748 21
778 1 -6.48509 10.6385 0.135253 21
779 1 -9.07073 9.4477 1.63858 21
780 1 -6.47264 7.82261 1.90912 21
781 1 -9.02297 6.58662 3.56603 22
782 1 -6.65885 10.841 3.76269 15
783 1 -9.39792 9.68085 4.96243 22
784 1 -6.52482 7.71086 5.26227 21
785 1 -9.39516 6.75076 7.03876 21
786 1 -6.87666 10.9299 6.85556 13
787 1 -9.48438 9.55131 9.22787 18
788 1 -6.61165 7.92347 8.4964 22
789 1 -3.26554 13.5429 10.8948 16
790 1 -6.64114 10.9023 9.91142 17
791 1 -7.12302 8.1835 12.2952 17
792 1 -10.8383 8.54344 11.2018 11
793 1 -8.74961 7.17844 10.1853 16
794 1 -6.79466 11.5317 12.6248 9
795 1 -6.51295 8.04975 15.3846 9
796 1 -9.46003 14.3908 1.70638 13
797 1 -7.83195 15.4087 -0.7955 11
798 1 -10.4283 12.8327 4.42708 12
799 1 -8.68296 12.4518 -0.510866 17
800 1 -9.79082 12.3911 7.35384 11
801 1 -6.1786 13.9854 1.32101 18
802 1 -7.96665 13.6109 4.0138 13
803 1 -6.73236 14.1794 9.76954 9
804 1 -6.85154 16.5214 2.96821 12
805 1 -6.76333 15.6038 6.30144 10
806 1 -3.20193 1.25217 -0.0401049 22
807 1 -1.43268 4.64464 0.018005 21
808 1 -3.59231 4.01022 1.87039 20
809 1 -0.473135 2.09143 1.63989 21
810 1 -3.91321 1.18083 3.41349 23
811 1 -1.11521 4.45761 3.57071 20
812 1 -3.78174 3.70128 5.27451 21
813 1 -1.39031 1.8751 4.8811 22
814 1 -4.15063 1.06505 7.03545 22
815 1 -1.11208 5.07774 6.65324 23
816 1 -4.13997 4.0901 8.58984 23
817 1 -1.22404 2.42246 8.30784 21
818 1 -3.90092 1.31017 10.1051 21
819 1 -1.52538 5.05212 9.95951 24
820 1 -4.30497 3.71628 12.0006 21
821 1 -1.33619 2.42547 11.4109 22
822 1 -4.15459 0.897658 13.2846 20
823 1 -0.951444 5.09366 13.1152 20
824 1 -4.55914 3.80225 15.0137 22
825 1 -1.58062 2.05264 14.9144 23
826 1 -3.45725 6.69574 0.214601 22
827 1 -1.0531 10.5891 -0.10644 22
828 1 -3.42789 9.5883 1.30832 21
829 1 -0.875314 7.63309 1.8557 23
830 1 -3.42015 6.34907 3.52725 23
831 1 -0.896463 10.8906 3.29168 22
832 1 -3.73149 9.348 4.39012 20
833 1 -0.6971 7.34057 4.82281 21
834 1 -4.13843 6.50229 6.56547 20
835 1 -1.35674 10.9475 6.48944 17
836 1 -4.07988 9.27167 7.95975 18
837 1 -1.87578 7.96933 8.27393 21
838 1 -4.3561 6.97163 10.2186 24
839 1 -1.76424 10.8116 9.62471 19
840 1 -4.38275 9.79743 11.6838 23
841 1 -1.96801 8.03279 11.8795 20
842 1 -4.15548 6.8754 13.5311 21
843 1 -1.28556 11.329 13.0073 17
844 1 -3.98003 10.732 14.9141 9
845 1 -1.10902 7.9277 15.2822 15
846 1 -4.54603 12.3029 -0.680929 23
847 1 -1.00856 16.27 -0.266052 15
848 1 -3.487 15.6844 1.84114 16
849 1 -1.53164 13.5805 1.45436 22
850 1 -4.34094 12.6812 2.92215 19
851 1 -0.959081 16.2525 3.00877 16
852 1 -4.05013 16.2024 4.59568 14
853 1 0.73713 13.0922 6.83697 20
854 1 -2.19004 13.8761 7.91463 17
855 1 -2.0239 13.5691 4.59858 20