ITEM: TIMESTEP
9000
ITEM: NUMBER OF ATOMS
2000
ITEM: BOX BOUNDS pp pp pp
-30.0 30.0
-30.0 30.0
-30.0 30.0
ITEM: ATOMS id type x y z Coordination
1 1 -18.3237 -1.42989 -3.14828 9
2 1 -18.7103 -4.00812 -1.13813 11
3 1 -17.5337 -1.16322 4.95368 9
4 2 -18.206 -3.18641 -2.74162 10
5 2 -15.9344 -0.772383 0.235152 16
6 2 -17.0493 0.681887 4.60838 10
7 1 0.473143 -19.0239 -2.22291 7
8 1 4.05884 -17.9511 -2.01771 13
9 1 -2.20554 -15.1405 1.37325 16
10 2 2.61393 -15.5945 -1.25827 18
11 2 2.07514 -18.1086 -2.37787 12
12 2 -1.24754 -17.9574 -2.17828 10
13 2 -3.00634 -2.62488 -17.2006 14
14 1 -2.31364 -0.895854 -16.383 20
15 1 0.435083 -1.23359 -18.158 11
16 2 0.884397 -0.46687 -16.3793 15
17 1 -11.4383 -12.5783 -2.24358 9
18 1 -12.2902 -6.5083 -9.98535 14
19 1 -12.5935 -9.47884 -8.34606 11
20 1 -13.3725 -6.87463 -6.4023 18
21 1 -15.2989 -7.37848 -3.79768 13
22 1 -12.9889 -9.68187 -5.00201 15
23 1 -12.682 -6.89644 -3.20244 19
24 1 -17.7081 -7.239 -1.43069 9
25 1 -13.0933 -9.59331 -1.96038 16
26 1 -13.0259 -0.121837 -12.4469 11
27 1 -12.019 -3.32201 -11.0235 15
28 1 -12.4954 -1.01789 -9.87841 18
29 1 -15.2051 -1.86551 -8.11578 11
30 1 -13.046 -4.14497 -8.09427 16
31 1 -15.5178 -4.79986 -6.15947 13
32 1 -12.3881 -1.04712 -6.53839 19
33 1 -15.2409 -1.5211 -4.66125 20
34 1 -13.1764 -3.76282 -5.0753 21
35 1 -16.3628 -4.32657 -3.12944 18
36 1 -12.5911 -1.06808 -3.1519 19
37 1 -15.489 -1.73519 -1.4748 20
38 1 -13.506 -4.34504 -1.60878 19
39 1 -6.48277 -12.8151 -9.94256 14
40 1 -9.10441 -13.6125 -8.42685 9
41 1 -6.33406 -12.4459 -6.70804 20
42 1 -8.98516 -12.2572 -5.1266 18
43 1 -7.32642 -15.4073 -4.63703 13
44 1 -6.51563 -12.3939 -3.45561 20
45 1 -7.7795 -14.7766 -1.35484 11
46 1 -6.80467 -17.6831 -1.67063 9
47 1 -7.42734 -6.77211 -13.1113 17
48 1 -9.68002 -7.91926 -11.8883 15
49 1 -7.13926 -9.96432 -11.3262 16
50 1 -9.46623 -10.9254 -10.174 13
51 1 -6.80298 -7.05985 -10.0004 20
52 1 -10.0877 -7.70274 -8.54326 20
53 1 -7.09246 -9.50045 -8.14021 23
54 1 -10.2936 -10.5608 -7.04263 19
55 1 -7.85652 -6.85916 -6.43345 21
56 1 -10.2247 -8.097 -4.93299 22
57 1 -7.42281 -9.82324 -4.93951 19
58 1 -10.2664 -10.2633 -3.48988 20
59 1 -6.94827 -6.77092 -3.50539 22
60 1 -9.75449 -7.56309 -1.43673 22
61 1 -7.23613 -9.17422 -1.84833 22
62 1 -5.02373 -2.06115 -17.2007 11
63 1 -9.8736 -1.79966 -15.2408 10
64 1 -7.12803 -3.56958 -14.8208 17
65 1 -10.1562 -4.80012 -13.4811 14
66 1 -7.85654 -1.06958 -13.3482 18
67 1 -9.82326 -2.0523 -11.6558 19
68 1 -6.98805 -3.72884 -11.9035 21
69 1 -9.24051 -4.90199 -10.2114 22
70 1 -6.82964 -1.20366 -9.78091 21
71 1 -9.61693 -2.02086 -8.4249 23
72 1 -7.71001 -4.23774 -8.12856 21
73 1 -10.5062 -5.14619 -6.60905 21
74 1 -6.61653 -1.65782 -6.66672 22
75 1 -9.82384 -1.93311 -5.05802 20
76 1 -7.68422 -3.68773 -5.02774 22
77 1 -10.5378 -5.08111 -3.5804 22
78 1 -7.02786 -0.899734 -3.39744 23
79 1 -9.78728 -2.08463 -1.85111 19
80 1 -7.36969 -3.68655 -1.87646 20
81 1 -0.926693 -12.0777 -12.751 13
82 1 -3.66335 -13.1606 -11.3669 11
83 1 -0.716452 -12.2287 -9.777 17
84 1 -3.47889 -13.1 -8.27524 19
85 1 -1.93199 -15.6312 -7.88404 10
86 1 -5.63744 -15.6241 -7.34205 14
87 1 -0.855661 -12.5848 -6.55479 19
88 1 -3.58672 -13.4408 -4.872 21
89 1 -1.12071 -15.9313 -4.79983 16
90 1 -4.7419 -16.9648 -4.23028 11
91 1 -0.707466 -13.051 -3.45309 19
92 1 -3.6181 -13.1226 -1.42425 19
93 1 -0.952288 -15.3953 -1.3989 17
94 1 -2.00194 -6.8634 -16.8428 13
95 1 -4.91125 -7.47303 -15.2877 14
96 1 -1.6866 -9.42647 -15.5692 12
97 1 -4.4878 -10.3939 -13.5561 13
98 1 -1.68975 -6.78725 -13.8272 22
99 1 -4.5701 -7.79925 -11.6117 21
100 1 -1.81955 -9.20709 -12.02 21
101 1 -4.61911 -10.5074 -10.135 20
102 1 -0.911717 -6.91212 -10.0085 20
103 1 -3.69347 -7.45186 -8.43944 19
104 1 -1.38725 -9.71639 -8.22811 20
105 1 -4.14 -10.4094 -6.70068 20
106 1 -0.663515 -7.12318 -6.61217 22
107 1 -4.10824 -7.26399 -4.87724 19
108 1 -1.62858 -9.33546 -5.04399 19
109 1 -4.35693 -10.3074 -3.40296 20
110 1 -0.90982 -6.74219 -2.90364 20
111 1 -3.93681 -7.65452 -1.70885 21
112 1 -1.81051 -10.0989 -1.63989 22
113 1 -4.19773 -4.49393 -16.4959 15
114 1 -1.51879 -3.70205 -18.1095 12
115 1 -4.33687 -1.5319 -14.6411 22
116 1 -1.81532 -3.78029 -14.6564 21
117 1 -4.64364 -4.97597 -13.2778 21
118 1 -1.80022 -0.776023 -13.1061 20
119 1 -4.2161 -2.03776 -11.7167 20
120 1 -1.54737 -4.1968 -11.3484 21
121 1 -5.13289 -4.84361 -10.0667 21
122 1 -1.32882 -0.866231 -10.1003 22
123 1 -3.84652 -2.01712 -8.32006 18
124 1 -1.86438 -3.86825 -8.32145 20
125 1 -4.90446 -5.00663 -6.78502 23
126 1 -1.51715 -1.76033 -6.31045 20
127 1 -4.14828 -2.29996 -4.60166 22
128 1 -1.98873 -4.91473 -5.03801 21
129 1 -4.90665 -4.64825 -3.06186 21
130 1 -0.857938 -2.20888 -3.13343 20
131 1 -3.81846 -1.6648 -1.77768 19
132 1 -2.13648 -4.39564 -1.49091 20
133 2 -12.8799 -7.37963 -8.46182 13
134 2 -15.5151 -6.6516 -5.49106 14
135 2 -11.9382 -10.0144 -6.4084 15
136 2 -12.4983 -7.85747 -4.88695 19
137 2 -16.5861 -6.38534 -2.68983 14
138 2 -12.1493 -10.7191 -3.59024 17
139 2 -13.9441 -7.91745 -2.11483 15
140 2 -12.43 -8.65553 -0.0614568 18
141 2 -12.7519 -1.80958 -11.7694 11
142 2 -12.499 -4.57808 -9.82554 15
143 2 -15.026 -3.67657 -7.54526 14
144 2 -13.2751 -1.80969 -8.08355 19
145 2 -16.0521 -0.775449 -6.65238 12
146 2 -12.3905 -5.15981 -6.53697 22
147 2 -15.4252 -3.62884 -4.66766 20
148 2 -13.0851 -1.89069 -4.93896 21
149 2 -16.494 -0.934551 -3.20054 17
150 2 -12.6574 -4.96951 -3.3331 22
151 2 -15.3769 -4.01591 -1.47399 18
152 2 -13.5021 -1.87123 -1.74888 20
153 2 -8.75788 -12.6121 -10.0019 11
154 2 -9.68509 -12.5102 -6.98845 13
155 2 -7.21648 -13.7954 -8.14479 16
156 2 -7.25454 -13.3166 -5.24974 19
157 2 -10.2607 -12.4657 -3.58478 13
158 2 -5.05545 -17.5436 -2.22789 12
159 2 -7.42383 -16.1678 -2.91786 10
160 2 -7.28218 -13.012 -1.9539 15
161 2 -6.73606 -5.16196 -13.4453 19
162 2 -9.3697 -6.44621 -13.0967 11
163 2 -4.7208 -12.3106 -12.5671 10
164 2 -9.01767 -9.65042 -11.3996 14
165 2 -6.6285 -8.17739 -11.6296 19
166 2 -10.1691 -6.87336 -10.4105 18
167 2 -6.56057 -10.5824 -9.71587 19
168 2 -10.6991 -9.56908 -8.78985 16
169 2 -7.71611 -7.75023 -8.42982 19
170 2 -9.99271 -7.15072 -6.65108 22
171 2 -6.71332 -10.4804 -6.601 20
172 2 -9.28587 -10.249 -5.28997 21
173 2 -7.83878 -7.72198 -4.75926 22
174 2 -10.9232 -7.15884 -2.95299 21
175 2 -6.50894 -10.3943 -3.23966 22
176 2 -9.50202 -9.4844 -1.91094 20
177 2 -7.86893 -7.21915 -1.76091 21
178 2 -6.19366 -3.50105 -16.5983 13
179 2 -9.36653 -3.41148 -14.4087 14
180 2 -8.18712 -0.591018 -15.1096 15
181 2 -10.2011 -1.04912 -13.1394 19
182 2 -6.05371 -2.14458 -13.8638 19
183 2 -10.2266 -4.09569 -11.62 18
184 2 -7.76682 -2.15068 -11.3863 24
185 2 -10.4477 -1.24362 -10.0632 23
186 2 -7.15615 -5.00538 -9.76138 21
187 2 -9.74672 -4.20498 -8.41546 22
188 2 -7.19729 -2.43551 -8.24346 22
189 2 -10.5419 -1.11938 -7.04264 20
190 2 -7.11698 -5.00728 -6.38699 19
191 2 -9.64613 -4.34413 -5.07751 23
192 2 -7.82096 -1.92213 -5.01675 24
193 2 -10.495 -1.03614 -3.29539 19
194 2 -6.85406 -4.77398 -3.45807 21
195 2 -9.64134 -4.12137 -2.22872 22
196 2 -7.7764 -1.7064 -1.71442 21
197 2 -1.89085 -12.5264 -11.2355 14
198 2 -4.6334 -12.7272 -9.78274 17
199 2 -3.73392 -15.3623 -7.75159 14
200 2 -1.4838 -13.2875 -8.10773 17
201 2 -4.25082 -12.3518 -6.28239 18
202 2 -0.599892 -16.4527 -6.72364 11
203 2 -5.96878 -16.2222 -5.66604 11
204 2 -1.67008 -13.5139 -4.89649 18
205 2 -4.20877 -12.3522 -3.14435 17
206 2 -0.28491 -15.4549 -3.09244 19
207 2 -2.55089 -15.8251 -0.503089 15
208 2 -1.73119 -12.9504 -1.73047 19
209 2 -3.88266 -6.56703 -16.6386 14
210 2 -3.61897 -9.29076 -15.0774 12
211 2 -0.963947 -7.67052 -15.3942 18
212 2 -3.81646 -6.87923 -13.1329 21
213 2 -1.341 -10.401 -13.7981 16
214 2 -4.22477 -9.79576 -11.796 18
215 2 -1.3546 -7.42313 -11.9489 20
216 2 -4.76316 -6.77687 -9.76579 19
217 2 -0.688386 -10.0947 -10.4655 22
218 2 -3.54374 -9.6138 -8.26627 19
219 2 -1.51968 -7.64132 -8.22064 18
220 2 -4.02679 -6.72807 -6.60067 19
221 2 -0.714451 -10.3312 -6.61945 20
222 2 -3.8952 -9.5177 -5.143 20
223 2 -1.38324 -6.975 -4.86532 20
224 2 -4.9661 -6.80763 -3.26908 21
225 2 -0.766804 -9.80331 -3.35547 20
226 2 -3.67097 -9.59036 -1.55383 20
227 2 -1.98905 -7.44117 -1.56094 21
228 2 -4.59536 -0.58105 -16.5075 18
229 2 -1.62348 -4.81083 -16.4404 17
230 2 -3.8852 -3.64461 -14.8023 23
231 2 -1.39653 -1.96376 -14.9874 23
232 2 -3.85933 -0.520018 -12.9856 21
233 2 -1.19557 -4.89599 -13.2828 20
234 2 -4.75372 -3.93801 -11.822 21
235 2 -1.75374 -2.13144 -11.5532 21
236 2 -4.79489 -0.875924 -9.93598 22
237 2 -0.984082 -5.01014 -9.74313 19
238 2 -4.16721 -4.03919 -8.62797 21
239 2 -1.70717 -1.9218 -8.59926 21
240 2 -4.56144 -1.65172 -6.33214 19
241 2 -1.28434 -4.97757 -6.78563 22
242 2 -4.04047 -4.49054 -4.94832 20
243 2 -2.18725 -2.26995 -4.6618 17
244 2 -5.09655 -0.897829 -3.4511 22
245 2 -1.23304 -4.40247 -3.15798 20
246 2 -4.07282 -3.78953 -1.27095 22
247 2 -1.98576 -2.42997 -1.54886 20
248 1 -13.1333 -11.818 3.59285 9
249 1 -11.0725 -12.5271 5.92292 12
250 1 -12.1854 -6.91916 0.801313 21
251 1 -16.3806 -7.25479 1.8807 9
252 1 -13.3134 -8.99375 1.88808 14
253 1 -12.4938 -6.95887 4.18415 18
254 1 -15.8991 -7.37017 4.72219 9
255 1 -11.2386 -9.67887 6.00092 16
256 1 -12.8535 -7.043 7.03348 18
257 1 -11.5912 -9.67366 9.27086 12
258 1 -11.8134 -6.22847 10.5039 15
259 1 -15.3091 -5.26355 0.0711112 19
260 1 -12.4553 -0.92965 0.273425 18
261 1 -16.1703 -2.38117 1.36485 13
262 1 -13.2668 -3.90105 2.03819 20
263 1 -15.8297 -4.09606 3.51714 15
264 1 -12.3559 -1.10821 3.2294 19
265 1 -14.8919 -1.69448 4.90542 21
266 1 -12.1632 -3.7318 5.12937 20
267 1 -14.6599 -5.215 6.46256 14
268 1 -11.8893 -0.879276 6.63031 20
269 1 -15.4078 -2.12643 8.01315 11
270 1 -12.8761 -3.77457 8.1713 17
271 1 -12.3375 -1.12827 9.90239 21
272 1 -12.16 -3.52375 11.381 15
273 1 -12.5823 -0.878999 13.5386 11
274 1 -6.67751 -11.973 -0.266016 15
275 1 -11.9326 -12.2949 0.97003 13
276 1 -8.37193 -16.5898 1.56697 8
277 1 -7.04147 -12.136 3.0887 18
278 1 -10.0603 -14.1415 3.72919 13
279 1 -7.06739 -16.1945 4.15659 12
280 1 -6.25659 -11.9341 6.40431 18
281 1 -8.56123 -14.586 7.00367 11
282 1 -7.18905 -12.927 9.46007 13
283 1 -10.1883 -10.3679 -0.231012 19
284 1 -6.95862 -6.65405 0.119539 22
285 1 -9.60226 -7.66682 1.69173 22
286 1 -7.65793 -9.82322 1.94215 19
287 1 -10.0903 -10.8525 3.29385 20
288 1 -7.23571 -6.78389 3.4344 20
289 1 -9.73955 -7.45704 5.14592 21
290 1 -7.3651 -9.49692 5.55143 19
291 1 -8.85877 -11.5332 8.08619 17
292 1 -6.98329 -6.52593 6.90256 20
293 1 -9.32206 -7.62527 8.65041 23
294 1 -6.45592 -9.56116 8.53725 21
295 1 -9.34005 -10.6339 11.1141 9
296 1 -6.43876 -6.71044 10.2962 19
297 1 -9.63907 -7.89549 11.9869 14
298 1 -6.68634 -10.0852 13.5595 10
299 1 -7.40709 -6.66741 14.0268 14
300 1 -10.4275 -4.81285 -0.416166 21
301 1 -6.72546 -1.09463 -0.370214 20
302 1 -9.61438 -1.92392 1.32956 19
303 1 -7.51802 -3.95598 1.70497 20
304 1 -10.2001 -4.78094 3.18005 22
305 1 -6.72155 -1.05525 3.30529 21
306 1 -9.43484 -1.7475 4.73641 19
307 1 -7.86209 -4.12527 5.09874 19
308 1 -10.4373 -4.9129 6.99788 22
309 1 -6.59447 -0.864263 6.39176 21
310 1 -9.29765 -1.69816 8.49475 20
311 1 -7.34752 -3.55345 8.20743 21
312 1 -9.50597 -4.39364 10.2263 21
313 1 -6.79709 -1.19801 10.0628 23
314 1 -9.60737 -1.59337 11.8164 20
315 1 -6.81235 -3.85816 11.5086 19
316 1 -9.97359 -4.89962 13.8039 14
317 1 -6.88272 -0.91004 13.8073 19
318 1 -9.33566 -2.08406 14.9607 14
319 1 -7.70968 -4.59393 16.3283 12
320 1 -5.40615 -16.1398 0.916366 14
321 1 -0.71263 -12.7288 0.112656 21
322 1 -4.38983 -13.2121 1.68793 19
323 1 -3.05858 -17.2554 -1.98275 11
324 1 -3.98189 -16.0732 3.31729 14
325 1 -1.14086 -12.2411 3.14581 19
326 1 -4.06644 -13.3497 4.98304 21
327 1 -1.81824 -15.1735 5.16061 14
328 1 -5.21193 -15.9053 6.74797 12
329 1 -1.17164 -12.5188 6.90866 21
330 1 -4.44368 -13.3852 8.63454 18
331 1 -2.01663 -15.4054 8.60874 10
332 1 -1.57149 -12.298 10.2825 19
333 1 -4.48745 -12.8558 11.9188 12
334 1 -1.32769 -12.7084 13.3563 10
335 1 -4.73798 -9.9868 -0.0541794 21
336 1 -0.802052 -7.52857 0.104456 19
337 1 -3.92679 -7.32352 1.77187 19
338 1 -2.20178 -9.77221 1.57061 20
339 1 -5.12387 -10.4249 3.3445 22
340 1 -1.6079 -6.74809 3.54064 22
341 1 -4.68765 -7.8492 5.07235 20
342 1 -2.07126 -9.57228 4.87996 18
343 1 -3.64241 -10.5398 7.07924 21
344 1 -0.936417 -6.9379 6.89969 21
345 1 -3.86444 -7.64112 8.30302 24
346 1 -1.29779 -9.42067 8.41316 22
347 1 -3.66575 -9.89697 10.1603 20
348 1 -1.11812 -6.59023 10.0849 23
349 1 -3.5804 -7.16231 11.7382 19
350 1 -1.58433 -9.89347 12.0138 21
351 1 -3.99222 -9.95471 13.8937 14
352 1 -1.20565 -6.52522 13.6128 22
353 1 -4.70875 -7.76132 15.8932 12
354 1 -1.3977 -9.15201 15.0336 15
355 1 -4.70827 -4.77236 0.359826 19
356 1 -1.0824 -1.99969 0.106384 21
357 1 -3.99346 -1.73958 1.47045 23
358 1 -1.96738 -3.87325 1.95957 21
359 1 -4.7764 -4.32984 3.57918 21
360 1 -1.19601 -0.842423 3.34663 20
361 1 -3.97034 -1.66899 4.958 22
362 1 -1.74141 -3.86787 5.30056 20
363 1 -4.26113 -4.76311 6.72049 21
364 1 -1.33994 -1.24049 6.85934 19
365 1 -4.11996 -1.59944 8.35358 21
366 1 -1.59379 -3.91913 8.45848 24
367 1 -4.40321 -4.66681 9.99185 24
368 1 -1.39465 -1.41006 10.2106 20
369 1 -4.25485 -1.73162 11.7664 21
370 1 -1.69207 -4.15783 11.9125 20
371 1 -4.83064 -4.8744 13.4646 19
372 1 -1.18925 -1.15412 13.3098 21
373 1 -4.18859 -1.6979 15.1751 19
374 1 -2.02796 -3.95405 15.4649 19
375 2 -16.9721 -6.59527 0.319838 10
376 2 -13.3014 -11.0604 1.8369 12
377 2 -14.9813 -8.18674 2.64836 12
378 2 -12.0805 -7.82183 2.51453 17
379 2 -16.7023 -5.9262 3.37531 11
380 2 -11.7491 -11.1643 4.67572 16
381 2 -11.6113 -7.75088 5.68054 16
382 2 -14.2862 -6.92568 5.65747 15
383 2 -11.0119 -11.1742 7.48259 12
384 2 -12.1758 -8.0665 8.66238 14
385 2 -17.6958 -3.39634 0.272276 13
386 2 -12.512 -4.7296 -0.028675 19
387 2 -15.0472 -4.24163 1.53548 18
388 2 -12.69 -1.99274 1.60067 18
389 2 -16.735 -2.18384 3.63057 12
390 2 -12.2004 -4.90437 3.33988 22
391 2 -14.8407 -3.60229 5.19717 18
392 2 -12.933 -1.63391 4.89404 20
393 2 -15.8977 -1.30217 6.43821 11
394 2 -12.5539 -4.90582 6.7917 18
395 2 -14.9064 -3.91887 8.01907 12
396 2 -13.3878 -1.78207 8.46448 17
397 2 -12.308 -4.51772 9.94316 16
398 2 -12.9065 -1.73271 11.6685 13
399 2 -11.3497 -11.6893 -0.64978 12
400 2 -7.33836 -16.6688 -0.0670577 9
401 2 -8.97769 -15.5544 3.14619 12
402 2 -7.06854 -12.7704 1.22974 16
403 2 -11.6483 -13.1132 2.61383 11
404 2 -5.72872 -16.4448 2.68784 11
405 2 -9.07995 -12.5049 3.43356 14
406 2 -9.96391 -14.1361 5.79435 12
407 2 -6.81212 -15.3853 6.18574 13
408 2 -7.44352 -13.1183 7.69852 14
409 2 -10.1924 -6.7742 0.12917 18
410 2 -6.9192 -9.829 0.156226 22
411 2 -9.76395 -9.68758 1.68094 22
412 2 -7.54464 -7.73374 1.47328 21
413 2 -9.18376 -6.31393 3.57827 22
414 2 -7.08163 -10.2604 3.82361 19
415 2 -9.40531 -9.58972 5.05913 20
416 2 -6.66471 -7.57554 5.32612 21
417 2 -9.15568 -6.87187 6.95366 21
418 2 -7.25294 -10.5926 7.1891 17
419 2 -10.0958 -9.30893 9.97311 14
420 2 -6.72968 -7.60343 8.74472 17
421 2 -9.91558 -6.37776 10.4445 18
422 2 -8.15167 -11.1939 9.87689 12
423 2 -8.15676 -9.70168 12.5161 9
424 2 -6.47638 -5.70942 12.8131 17
425 2 -9.15996 -6.59268 13.3337 12
426 2 -5.18413 -11.4694 13.1158 10
427 2 -5.65222 -8.6611 14.5272 12
428 2 -10.6734 -1.24526 -0.26771 23
429 2 -6.63468 -4.22005 -0.0547418 20
430 2 -9.75318 -4.17196 1.40454 21
431 2 -7.50063 -1.68015 1.59736 20
432 2 -10.2716 -1.49689 3.08491 22
433 2 -6.82767 -4.7571 3.29381 20
434 2 -10.1141 -3.62826 4.84962 21
435 2 -7.39429 -2.06948 4.91923 18
436 2 -9.91077 -0.844207 6.76407 21
437 2 -7.66289 -4.71627 6.82209 22
438 2 -9.54185 -3.53468 8.63332 23
439 2 -7.46491 -1.41255 8.13902 24
440 2 -10.2071 -1.20277 10.0245 21
441 2 -7.3161 -4.84076 9.89075 20
442 2 -10.2846 -3.68278 11.9784 19
443 2 -7.44166 -1.8018 12.0899 19
444 2 -10.8419 -1.22511 14.0795 16
445 2 -6.52837 -5.67804 15.548 13
446 2 -9.08917 -3.94669 15.4962 11
447 2 -8.0532 -0.941352 15.9728 14
448 2 -4.72129 -12.0746 -0.167121 21
449 2 -3.06798 -16.1261 -4.57713 14
450 2 -4.23342 -15.1282 1.63286 16
451 2 -2.32103 -13.2395 1.59424 21
452 2 -4.93824 -12.3828 3.43428 17
453 2 -1.64371 -15.6532 3.23937 16
454 2 -4.00023 -15.4076 5.2003 15
455 2 -2.08576 -13.0685 5.09454 21
456 2 -4.57041 -12.3662 6.71169 21
457 2 -1.04503 -15.9188 6.88889 12
458 2 -4.5444 -15.2214 8.22329 12
459 2 -2.1072 -13.266 8.78053 19
460 2 -5.48796 -13.0163 10.2734 13
461 2 -2.62547 -12.5499 11.9112 15
462 2 -5.04751 -7.04292 -0.0224004 20
463 2 -0.91218 -9.84791 0.0207503 21
464 2 -4.12397 -9.46105 2.28023 21
465 2 -1.94319 -7.71116 1.71262 20
466 2 -4.65117 -6.62313 3.36048 21
467 2 -1.44036 -10.3231 3.16817 18
468 2 -4.07648 -9.75937 5.12787 21
469 2 -1.70487 -7.67199 5.27941 22
470 2 -4.3988 -6.75278 6.68407 20
471 2 -1.57509 -10.4442 6.97689 22
472 2 -4.41867 -9.45683 8.48273 19
473 2 -1.70751 -7.54653 8.54186 20
474 2 -4.4724 -6.71828 10.1046 21
475 2 -1.56406 -10.253 10.1317 21
476 2 -3.50971 -9.07325 11.8702 20
477 2 -0.581986 -8.07716 12.5343 19
478 2 -3.02248 -5.74034 12.7964 17
479 2 -1.25843 -10.6372 13.7371 16
480 2 -3.25419 -9.15578 15.4407 12
481 2 -0.937085 -7.20785 15.4544 17
482 2 -4.80767 -0.828554 -0.221995 21
483 2 -1.01654 -4.07779 0.370803 22
484 2 -4.39716 -3.64948 1.871 20
485 2 -2.01616 -1.92053 1.78741 18
486 2 -4.56189 -1.11752 3.26469 20
487 2 -1.24685 -4.72432 3.53541 18
488 2 -3.78305 -4.01355 5.12592 18
489 2 -2.07228 -1.56955 4.9735 21
490 2 -4.75482 -0.847168 6.7221 23
491 2 -0.71444 -4.77776 6.67373 22
492 2 -4.52327 -3.81723 8.2986 20
493 2 -2.24422 -1.94864 8.38544 23
494 2 -4.60893 -0.989377 10.123 20
495 2 -1.81299 -4.89193 10.126 21
496 2 -5.08263 -3.58476 11.327 21
497 2 -2.13973 -2.3456 11.8761 22
498 2 -4.84517 -0.636822 13.4577 19
499 2 -0.81565 -4.63599 14.0012 18
500 2 -3.9897 -3.88141 15.0985 20
501 2 -2.19872 -1.82994 15.3828 18
502 1 -12.7583 2.78376 -12.033 13
503 1 -12.5862 4.8492 -10.178 14
504 1 -15.0463 4.17637 -8.37444 12
505 1 -13.4803 1.78349 -8.91873 14
506 1 -15.7907 1.0625 -6.37862 13
507 1 -12.3955 5.53535 -6.45013 18
508 1 -15.3588 4.03827 -5.13046 16
509 1 -13.1588 1.66832 -4.72469 21
510 1 -16.122 1.03464 -3.2321 15
511 1 -12.6522 4.60948 -3.22685 21
512 1 -15.1419 3.97219 -1.60731 18
513 1 -12.562 1.73271 -1.6345 24
514 1 -12.8259 7.62889 -8.38411 12
515 1 -15.5404 7.16303 -6.69923 10
516 1 -13.5361 10.6722 -6.64493 12
517 1 -13.2144 8.0442 -4.99884 16
518 1 -16.4522 6.71779 -3.23516 11
519 1 -12.6762 11.1339 -3.49631 11
520 1 -14.5827 9.51548 -0.273532 11
521 1 -13.1405 7.60978 -1.68616 18
522 1 -6.42497 3.88535 -16.5367 11
523 1 -9.29584 3.47772 -14.7177 13
524 1 -8.07118 0.75765 -16.2232 11
525 1 -10.1788 0.852469 -13.3876 18
526 1 -6.3115 6.66086 -15.1746 12
527 1 -9.51022 3.99324 -10.9952 20
528 1 -7.50547 1.68571 -11.4904 18
529 1 -10.0501 0.742195 -10.139 22
530 1 -6.78843 4.35656 -9.71711 21
531 1 -9.72039 3.91531 -7.81593 20
532 1 -7.97672 1.53814 -8.12556 20
533 1 -10.4672 0.918099 -6.73012 20
534 1 -6.9829 4.85455 -6.3341 20
535 1 -9.86278 3.60629 -5.01665 20
536 1 -7.58349 1.4298 -5.0494 18
537 1 -10.0479 0.715514 -3.109 21
538 1 -6.47941 4.9577 -3.15529 19
539 1 -9.43363 4.0139 -1.79584 22
540 1 -7.52897 2.06398 -1.70835 21
541 1 -6.70315 9.84411 -13.294 13
542 1 -11.144 5.84101 -12.693 10
543 1 -8.74849 11.1063 -10.902 10
544 1 -7.88162 7.46904 -11.5097 20
545 1 -7.23609 4.83155 -12.8444 19
546 1 -10.2078 6.43964 -9.72476 16
547 1 -6.51521 9.99393 -9.82836 21
548 1 -11.9804 11.6574 -9.56652 8
549 1 -8.40119 7.27238 -8.19939 19
550 1 -10.4991 9.64911 -7.68455 17
551 1 -7.50237 10.38 -6.6795 22
552 1 -10.3513 9.84052 -4.70319 18
553 1 -7.70216 7.76431 -4.89958 20
554 1 -10.7647 6.77781 -3.64442 17
555 1 -6.66606 10.8924 -3.36434 20
556 1 -9.44747 9.63251 -1.62279 18
557 1 -7.80093 7.51226 -1.66668 22
558 1 -7.38135 13.073 -8.60112 15
559 1 -10.5077 12.3861 -6.82305 15
560 1 -6.9027 16.5477 -6.42698 8
561 1 -8.3595 13.5331 -4.9466 17
562 1 -10.53 12.9487 -2.94473 16
563 1 -6.6306 16.0005 -3.19986 14
564 1 -9.4724 15.5522 -1.24298 11
565 1 -7.30016 13.5389 -1.72528 19
566 1 -5.35854 0.965871 -16.3016 15
567 1 -0.818896 4.94547 -16.1416 15
568 1 -4.11689 4.01757 -14.5479 19
569 1 -2.15516 1.9225 -15.0225 18
570 1 -4.91427 1.17683 -13.0203 21
571 1 -1.0925 4.85492 -13.1896 22
572 1 -3.85804 4.25869 -11.2727 19
573 1 -1.59118 2.04504 -11.6362 21
574 1 -4.70943 1.15733 -9.92691 24
575 1 -1.10729 4.86982 -9.81069 21
576 1 -4.26497 3.80266 -8.03567 19
577 1 -2.11976 2.00981 -8.32338 20
578 1 -4.96639 0.651962 -6.70273 21
579 1 -1.62063 4.84003 -6.62574 19
580 1 -4.32776 3.81566 -5.02661 15
581 1 -2.00011 1.78996 -4.90043 17
582 1 -4.82262 1.11525 -3.1497 20
583 1 -1.37478 4.63569 -3.40163 20
584 1 -3.98013 3.9226 -1.81087 18
585 1 -1.90932 1.53746 -2.05724 17
586 1 -3.58987 6.46354 -15.7668 15
587 1 -4.04197 9.64117 -14.9705 13
588 1 -0.891558 7.93208 -14.9257 18
589 1 -4.61368 7.08941 -13.0323 18
590 1 -1.4296 11.2046 -13.6766 13
591 1 -4.04342 10.0021 -11.4963 20
592 1 -1.95996 7.9396 -11.6502 20
593 1 -4.98915 6.76381 -9.58462 21
594 1 -0.756332 10.5657 -9.9976 21
595 1 -3.70108 10.172 -8.25728 21
596 1 -2.09909 7.95508 -8.30161 20
597 1 -5.47533 8.12345 -6.87827 19
598 1 -0.398254 10.7601 -6.7366 21
599 1 -3.83914 10.1431 -5.04799 19
600 1 -2.19453 7.88197 -5.15423 20
601 1 -4.70301 6.96482 -3.64522 20
602 1 -0.59081 10.3097 -3.5417 19
603 1 -4.08241 9.48349 -1.7392 18
604 1 -1.99644 7.46431 -1.81955 21
605 1 -1.73537 13.2548 -11.582 12
606 1 -4.86865 12.7513 -10.1415 13
607 1 -4.03856 15.1775 -8.53552 12
608 1 -1.90209 13.2362 -8.69553 18
609 1 -5.48399 12.803 -6.8008 19
610 1 -0.684299 14.7899 -6.48214 16
611 1 -4.13301 15.3622 -5.19081 17
612 1 -2.11917 12.8846 -4.97691 21
613 1 -4.92436 12.739 -3.67381 21
614 1 -0.897714 15.958 -3.17227 15
615 1 -3.65728 15.7312 -1.6402 17
616 1 -1.14085 13.297 -1.806 20
617 2 -11.8932 1.31663 -13.0211 12
618 2 -11.6021 4.1909 -11.7277 15
619 2 -13.0144 0.695047 -10.5314 14
620 2 -15.4359 2.17611 -7.82989 12
621 2 -13.9012 3.41782 -9.96743 9
622 2 -15.4306 5.17867 -6.80783 13
623 2 -12.4209 1.12908 -6.77757 18
624 2 -15.0674 1.96622 -4.52309 18
625 2 -13.4055 3.76978 -4.87821 20
626 2 -15.8663 4.77328 -3.28653 14
627 2 -11.9749 1.05456 -3.20854 22
628 2 -15.3519 1.82742 -1.62231 16
629 2 -13.21 3.54917 -1.4753 23
630 2 -12.3087 5.83912 -8.66421 15
631 2 -12.93 9.68011 -8.25413 14
632 2 -13.455 7.1621 -6.63179 16
633 2 -15.7998 7.3596 -4.80152 10
634 2 -12.707 9.85551 -4.88222 18
635 2 -12.6029 6.96602 -3.42774 18
636 2 -15.2763 7.92054 -1.09446 14
637 2 -13.1197 10.4861 -1.42299 14
638 2 -11.4583 13.4421 -1.31092 12
639 2 -6.7648 2.19141 -16.3886 13
640 2 -9.5911 1.57848 -15.2431 12
641 2 -7.57615 4.67883 -14.9395 12
642 2 -9.55587 4.62568 -13.1554 16
643 2 -6.67814 0.544841 -12.8053 23
644 2 -9.25405 1.92464 -11.2595 21
645 2 -6.9286 3.79662 -11.4735 19
646 2 -9.42613 4.73279 -9.30773 21
647 2 -7.39796 0.404638 -9.42525 19
648 2 -10.0693 2.03884 -8.27516 18
649 2 -7.31673 3.33563 -8.06231 23
650 2 -10.675 4.68052 -6.35078 20
651 2 -6.98263 0.435189 -6.68922 21
652 2 -9.50063 1.48478 -5.02833 22
653 2 -7.43226 3.84446 -4.68009 20
654 2 -10.7432 4.35092 -3.47133 20
655 2 -6.80121 1.09995 -3.24043 20
656 2 -9.5959 1.92932 -1.58899 20
657 2 -7.10818 3.8922 -1.55384 21
658 2 -6.49613 7.79464 -13.3421 13
659 2 -10.007 7.0163 -11.5356 14
660 2 -7.52237 9.5813 -11.3709 14
661 2 -9.9412 11.1485 -9.36868 15
662 2 -7.37536 6.38124 -9.55063 21
663 2 -10.4494 7.75922 -8.30403 18
664 2 -7.32197 9.357 -8.20771 23
665 2 -12.4497 12.0659 -7.75633 9
666 2 -7.20044 6.8781 -6.66546 19
667 2 -9.7189 7.9972 -4.73121 20
668 2 -7.06267 9.67387 -4.84744 20
669 2 -10.5701 10.8234 -3.01658 17
670 2 -6.57756 6.98236 -2.95649 19
671 2 -9.99136 7.67404 -1.8751 19
672 2 -7.23555 9.70594 -1.83769 20
673 2 -7.10279 11.965 -10.2828 14
674 2 -7.35066 12.5367 -6.83473 18
675 2 -9.8089 10.6384 -6.42869 19
676 2 -10.2129 12.8212 -5.04745 15
677 2 -7.44733 15.6404 -5.0004 14
678 2 -6.9348 12.8089 -3.67375 20
679 2 -9.08666 14.0352 -2.294 15
680 2 -7.63747 15.9418 -1.69045 14
681 2 -5.0489 5.10557 -16.0028 13
682 2 -1.55344 0.810435 -16.5463 15
683 2 -4.21716 1.99392 -14.91 17
684 2 -2.0847 3.89568 -14.8701 18
685 2 -4.31075 5.27549 -13.1056 21
686 2 -1.51476 1.0783 -13.2591 21
687 2 -4.11002 2.54175 -11.2594 21
688 2 -0.95953 3.78632 -11.5692 20
689 2 -4.79418 4.90638 -9.58576 17
690 2 -1.49083 1.0416 -9.91736 20
691 2 -3.9622 1.57312 -8.40237 19
692 2 -2.20068 3.97543 -8.62375 21
693 2 -5.10327 4.68346 -6.47274 19
694 2 -1.18332 1.72709 -6.62473 21
695 2 -3.86667 1.44342 -5.31119 19
696 2 -2.37693 3.92303 -5.22976 20
697 2 -4.4765 4.9148 -3.31493 20
698 2 -0.846667 1.04149 -3.48184 20
699 2 -3.72303 1.84639 -1.43576 22
700 2 -1.76297 4.04827 -1.64666 20
701 2 -1.87188 6.64119 -16.284 14
702 2 -4.81675 7.91597 -15.1568 12
703 2 -1.93163 9.6599 -15.0248 13
704 2 -4.77376 10.1841 -13.2362 14
705 2 -1.07006 6.82739 -13.2906 18
706 2 -4.30614 7.98489 -11.1117 20
707 2 -1.94296 10.0781 -11.9259 19
708 2 -4.55822 10.7689 -9.95406 19
709 2 -1.20859 7.16832 -9.9122 18
710 2 -3.97542 8.1992 -8.05257 18
711 2 -1.36318 9.75589 -8.31358 21
712 2 -4.60117 11.1164 -6.68881 24
713 2 -1.57315 6.81696 -6.57881 18
714 2 -4.12422 8.10658 -5.21317 20
715 2 -1.70611 10.1389 -5.38696 18
716 2 -4.75029 10.6713 -3.25916 19
717 2 -1.20245 6.91311 -3.57533 20
718 2 -4.0462 7.59793 -1.74164 23
719 2 -1.83946 9.44447 -2.12976 18
720 2 -0.683722 13.0027 -13.0868 10
721 2 -3.14773 13.3517 -10.484 13
722 2 -0.501781 12.5954 -9.78441 17
723 2 -5.26214 13.6937 -8.53837 16
724 2 -2.22649 15.1527 -8.14677 14
725 2 -4.93481 16.1994 -6.82176 9
726 2 -1.07302 12.8009 -6.76566 17
727 2 -4.04802 13.5479 -5.19925 20
728 2 -1.75511 14.7408 -4.68067 18
729 2 -4.69313 15.8925 -3.31727 17
730 2 -0.821486 12.25 -3.27887 20
731 2 -3.94383 13.6962 -1.99479 23
732 2 -1.78042 15.0789 -1.72001 17
733 1 -15.6808 1.0445 -0.0504223 15
734 1 -12.4063 4.68813 -0.118263 20
735 1 -15.6119 4.07649 1.44789 18
736 1 -13.1728 2.20476 2.13054 22
737 1 -16.3467 1.5422 3.10118 13
738 1 -12.2931 4.83735 3.3263 22
739 1 -14.84 3.56884 4.80833 18
740 1 -12.6117 1.48815 4.64867 17
741 1 -16.0907 0.73437 6.53479 11
742 1 -12.5071 4.99054 6.57733 22
743 1 -15.187 3.97503 7.87287 11
744 1 -12.7992 2.03432 8.06664 20
745 1 -12.7944 4.85074 10.2046 12
746 1 -12.4447 1.70108 11.3806 14
747 1 -16.252 6.95613 0.27821 14
748 1 -11.7094 11.5162 -0.457432 13
749 1 -15.0868 9.15344 3.1892 12
750 1 -13.6283 7.50789 1.56601 22
751 1 -16.0193 6.58242 3.51425 12
752 1 -12.3317 10.4258 2.59079 17
753 1 -12.5158 7.90369 4.92708 20
754 1 -15.3304 6.84181 6.26228 11
755 1 -12.4821 10.9541 5.92707 12
756 1 -12.5052 7.81869 8.03832 14
757 1 -10.5252 1.25837 0.0981435 21
758 1 -7.00531 4.79046 0.147655 22
759 1 -9.73815 3.95976 1.60122 22
760 1 -7.45983 1.64818 1.59623 20
761 1 -9.98257 0.959167 3.1981 21
762 1 -6.76403 4.82761 3.10031 21
763 1 -9.60313 4.0432 5.18354 23
764 1 -7.20031 2.11541 4.74444 21
765 1 -9.86849 1.34608 6.80938 21
766 1 -6.80457 4.79468 6.24558 22
767 1 -9.39181 3.90491 8.2189 21
768 1 -7.15102 2.24119 8.31805 21
769 1 -10.3338 0.783963 9.84597 23
770 1 -7.36195 5.38981 9.48891 19
771 1 -9.87856 4.09442 11.3718 19
772 1 -7.77136 1.39481 11.2931 18
773 1 -10.453 0.826103 13.7074 17
774 1 -6.84821 3.14752 13.4293 21
775 1 -9.65474 4.01761 14.7576 10
776 1 -8.26685 1.09832 15.8381 14
777 1 -10.2571 6.81457 -0.119132 19
778 1 -6.94143 10.6936 -0.261704 19
779 1 -9.35218 9.78119 1.63033 17
780 1 -7.44842 7.93079 1.38193 18
781 1 -10.1567 6.94312 2.87135 20
782 1 -6.87146 10.6244 2.91545 21
783 1 -9.48156 9.56383 4.7354 24
784 1 -6.5548 7.78306 4.55115 21
785 1 -9.46473 6.67556 6.19409 22
786 1 -7.35704 10.5997 6.09549 19
787 1 -10.1087 10.1437 8.37214 17
788 1 -7.66981 7.89099 7.57286 21
789 1 -10.358 6.67132 9.75781 18
790 1 -6.35105 10.6132 9.23115 19
791 1 -9.14989 10.055 11.0525 11
792 1 -7.51923 7.82774 10.7964 19
793 1 -7.9023 5.6589 12.9572 15
794 1 -7.01607 10.3748 13.2375 11
795 1 -6.26145 5.61713 15.4321 14
796 1 -10.8253 13.7031 0.549073 12
797 1 -6.3891 16.045 0.0430447 17
798 1 -8.65325 15.5624 2.58375 12
799 1 -7.45035 13.7276 1.06969 23
800 1 -10.7631 12.5376 3.75651 14
801 1 -6.20057 16.1358 3.53887 14
802 1 -7.50357 13.3201 4.31071 19
803 1 -9.60121 12.7088 6.65052 16
804 1 -6.91747 14.5655 6.61533 14
805 1 -8.71552 13.1793 9.16027 9
806 1 -4.8929 1.23624 -0.0949891 21
807 1 -1.13705 4.09306 0.0567011 21
808 1 -3.9288 4.13699 1.73347 21
809 1 -2.19042 1.59742 1.28766 19
810 1 -4.55712 0.898796 3.57936 22
811 1 -0.910373 4.8298 3.39754 20
812 1 -3.76478 4.02482 4.89415 21
813 1 -1.99247 1.69366 5.02168 21
814 1 -4.9313 1.13873 6.52241 21
815 1 -1.0411 4.29392 6.63898 20
816 1 -3.96749 4.06246 8.05041 22
817 1 -1.93565 1.85871 8.1729 20
818 1 -4.50109 0.794945 9.50708 22
819 1 -1.21234 4.76795 10.0595 19
820 1 -4.11089 3.77276 11.2984 19
821 1 -1.70511 1.65801 11.5649 18
822 1 -4.89015 1.22864 13.1486 19
823 1 -1.27121 4.6027 13.1906 20
824 1 -3.85867 3.84993 15.0904 24
825 1 -2.05596 1.73157 15.0518 21
826 1 -4.77651 6.64747 -0.38331 21
827 1 -1.2456 9.95892 -0.258951 20
828 1 -3.81679 9.86147 1.4889 21
829 1 -1.67383 7.14142 1.17343 21
830 1 -4.333 6.86327 2.87884 22
831 1 -1.45023 10.4429 3.01098 20
832 1 -3.99439 9.78075 5.02345 21
833 1 -1.65541 7.50635 4.90671 19
834 1 -4.61396 7.14991 6.45929 21
835 1 -1.05497 10.268 6.80126 20
836 1 -3.83255 9.64147 8.33898 17
837 1 -1.78633 7.85278 8.35102 21
838 1 -4.92008 6.92419 9.83986 19
839 1 -0.748141 10.3178 10.3203 21
840 1 -3.66977 9.42306 11.4907 22
841 1 -1.77674 6.96042 11.7805 20
842 1 -5.10865 6.29742 12.6818 20
843 1 -4.38455 11.6191 13.973 10
844 1 -5.10018 8.33826 15.0501 12
845 1 -1.71525 7.44353 14.7119 17
846 1 -4.48973 12.7267 -0.324319 21
847 1 -1.21723 15.2068 0.184101 19
848 1 -3.94587 15.4861 1.84455 18
849 1 -2.01888 13.1196 1.55306 24
850 1 -4.39932 12.7815 3.11349 23
851 1 -1.2462 16.2246 3.45411 15
852 1 -3.95859 14.9547 5.41005 16
853 1 -1.66744 12.9269 4.78517 24
854 1 -4.6243 12.5926 6.56935 19
855 1 -1.20887 16.1052 6.48909 11
856 1 -3.89232 15.0369 8.86315 11
857 1 -1.10347 13.2675 8.17383 17