ITEM: TIMESTEP
71000
ITEM: NUMBER OF ATOMS
2000
ITEM: BOX BOUNDS pp pp pp
-30.0 30.0
-30.0 30.0
-30.0 30.0
ITEM: ATOMS id type x y z Coordination
1 1 -4.10627 2.52791 -17.8828 17
2 1 4.39341 -14.1006 -11.5712 17
3 1 6.30072 13.1932 9.42943 12
4 1 11.7502 -7.22624 2.5081 18
5 1 -3.00279 9.48922 -4.23464 20
6 1 17.3031 -8.82459 -17.0304 13
7 1 -8.34786 7.25092 -13.269 10
8 1 6.9357 -5.03102 8.4183 16
9 1 -1.37223 3.44583 -16.3901 22
10 1 -3.75807 -10.355 0.849279 16
11 1 14.2166 3.25593 -13.9006 21
12 1 1.92582 4.5647 -10.245 20
13 1 1.62336 -12.6691 -1.31069 24
14 1 -3.60207 -6.45094 -4.27055 22
15 1 5.50525 3.72114 12.0474 13
16 1 12.3182 -4.21793 -1.70287 20
17 1 4.9417 7.23015 3.92697 21
18 1 16.5653 -2.75526 -4.94229 23
19 1 3.17747 14.1178 -16.87 13
20 1 7.22715 0.54041 4.64137 19
21 1 -3.48898 0.508405 -19.8655 14
22 1 -7.55697 -4.12998 5.86338 10
23 1 19.4327 -1.06389 2.83672 15
24 1 5.81281 8.89354 -15.8435 21
25 1 7.41595 4.67248 -20.9927 18
26 1 16.8659 2.25266 2.5852 20
27 1 -4.18204 2.20518 -2.12974 24
28 1 -5.43437 4.46517 -12.5934 19
29 1 1.9719 -0.563239 -13.5542 22
30 1 -9.13238 9.86738 3.35379 10
31 1 10.7074 -15.7543 4.14592 10
32 1 5.02342 -1.229 1.37336 21
33 1 8.26037 -14.1941 -15.942 16
34 1 13.1509 -7.15617 -6.89362 23
35 1 -4.50386 -11.552 -8.15886 12
36 1 -3.21319 -6.41323 8.85566 11
37 1 10.0222 0.302289 -14.8705 23
38 1 10.5804 -5.78851 -18.2917 17
39 1 14.2849 -9.14831 -17.8926 17
40 1 2.7273 1.83969 -22.9711 14
41 1 7.71174 6.36826 5.23111 23
42 1 6.85294 -10.4545 4.32175 20
43 1 9.00389 -7.36444 7.91853 16
44 1 -6.90265 2.3365 -7.0561 23
45 1 -4.55397 -3.05787 4.44939 22
46 1 -1.47298 2.79479 -6.83979 21
47 1 4.27012 13.7892 -10.7899 18
48 1 2.00237 -11.757 -14.2933 24
49 1 10.0954 -5.88973 -15.3616 22
50 1 10.4761 -2.55541 -19.6397 21
51 1 7.28558 -2.21829 10.1964 17
52 1 -4.63565 7.9569 -7.27333 22
53 1 13.5578 8.72878 -17.9102 16
54 1 6.14522 16.1533 -1.05067 14
55 1 -5.57608 9.57903 -14.6249 14
56 1 0.135676 14.7503 -8.81621 16
57 1 7.63063 -9.42615 -5.52931 22
58 1 13.084 -6.41303 -10.6087 20
59 1 12.0496 -5.00496 -21.6016 16
60 1 -6.76844 10.047 5.89269 11
61 1 -6.89601 -4.46665 -14.0355 13
62 1 10.6941 -2.10918 -1.68404 23
63 1 -1.99312 8.52039 -9.23747 22
64 1 -3.68599 -5.59823 -0.824212 18
65 1 1.86534 14.7805 3.62498 16
66 1 -8.10384 3.71933 -13.3124 13
67 1 -3.95847 12.4679 2.38062 14
68 1 2.62477 8.1532 -13.958 21
69 1 8.41857 3.55445 0.35072 20
70 1 3.63646 -15.3868 2.56654 12
71 1 7.46258 6.54077 2.13114 24
72 1 10.6211 -15.418 -10.0377 14
73 1 8.44292 11.3962 9.49549 16
74 1 -8.80819 0.599667 -10.6243 15
75 1 -9.74215 8.71093 -10.0466 14
76 1 11.9859 6.32121 6.86885 19
77 1 19.8361 -3.10376 -15.6804 18
78 1 13.4758 -9.53786 0.490429 12
79 1 -7.55255 -3.27075 2.4409 13
80 1 -6.23047 -0.265795 -2.22432 23
81 1 10.0236 16.0425 -0.755808 14
82 1 13.6745 -2.43999 6.41169 19
83 1 -0.618916 -14.5112 -1.02911 14
84 1 -4.12876 2.16102 -5.36206 23
85 1 21.4325 -0.774886 -0.0565075 13
86 1 13.8173 -1.63833 -6.6973 20
87 1 4.83711 15.6685 2.43112 15
88 1 10.7994 -1.4074 1.87821 21
89 1 -2.683 -7.62485 0.863129 19
90 1 1.0728 -6.24753 -13.9467 22
91 1 -9.85883 7.51411 2.14205 13
92 1 -3.6383 15.5998 -8.8139 9
93 1 0.135036 6.74247 -14.0287 21
94 1 13.193 0.981069 -7.95297 20
95 1 10.3439 1.93956 -9.81273 20
96 1 12.4499 13.5792 -11.6971 21
97 1 15.7453 -8.18542 -5.35943 22
98 1 12.1693 -8.70181 7.72075 10
99 1 -1.60868 14.9658 -10.9364 14
100 1 -3.6128 13.3689 -0.949611 15
101 1 0.0677745 -1.51506 9.66524 13
102 1 3.22934 9.5713 0.758273 21
103 1 3.61038 -6.54797 1.51328 21
104 1 20.6389 -9.04243 -12.2886 12
105 1 -5.75364 5.04316 -1.79615 21
106 1 -3.67472 -13.853 -2.5437 11
107 1 18.2344 -9.43142 -9.9787 16
108 1 12.8288 1.70706 -16.0426 20
109 1 -0.720758 -4.70371 -22.1078 8
110 1 7.28574 1.01381 1.58318 21
111 1 6.28644 10.3493 -4.36403 23
112 1 0.0946799 10.0058 -15.4611 20
113 1 1.96726 7.38242 11.8943 12
114 1 8.15999 12.9342 -13.8084 22
115 1 -10.4093 10.7033 -7.00543 11
116 1 5.02963 7.1134 -3.12715 19
117 1 4.19702 -4.17715 6.24942 18
118 1 18.2558 -1.68555 5.99101 13
119 1 7.10781 -3.75109 -12.1158 23
120 1 10.173 -6.11908 -12.5085 21
121 1 2.28136 6.80305 5.16377 20
122 1 12.1641 -4.1099 11.6946 10
123 1 -3.28061 -6.02403 -10.9541 19
124 1 9.50209 -4.52372 -3.62446 23
125 1 -0.715513 -8.13036 -7.61015 21
126 1 11.987 -13.078 -4.44322 18
127 1 3.22794 9.37325 -2.68057 22
128 1 10.1074 3.16925 -16.2675 20
129 1 13.6551 14.7235 -5.97993 14
130 1 -0.853834 -11.2644 5.92472 14
131 1 -1.82692 -14.9977 2.1418 10
132 1 -0.17871 5.86013 -8.15012 21
133 1 11.529 -10.9697 -18.988 15
134 1 10.7303 7.66341 -12.3534 22
135 1 18.2503 -8.326 -3.64217 10
136 1 8.63392 -15.8773 -1.65288 15
137 1 -3.40362 -6.05292 -7.49246 21
138 1 21.482 1.64003 2.52362 13
139 1 22.3432 -3.9164 -14.0519 12
140 1 -7.81768 -2.69461 -0.728451 15
141 1 14.9019 6.87688 1.72486 20
142 1 22.1618 7.44094 -4.82122 13
143 1 -0.963233 1.58722 9.7745 17
144 1 10.8306 6.56793 -6.18313 23
145 1 -1.0718 13.6095 4.70333 12
146 1 -0.794202 12.4004 -13.1455 18
147 1 7.097 -6.71665 -13.9163 19
148 1 16.504 -11.7905 -15.1742 14
149 1 7.08479 16.9036 -13.9646 14
150 1 10.7835 -2.25411 8.37399 20
151 1 7.70625 -1.45721 -25.0563 12
152 1 2.03649 7.96106 -11.1951 22
153 1 17.7194 3.52581 -9.7793 22
154 1 -6.69195 8.68595 -10.8834 18
155 1 -5.76799 12.9129 -6.8494 18
156 1 12.5538 5.82408 -16.8738 16
157 1 15.6505 -10.7292 -3.5972 13
158 1 -0.585753 3.35368 -13.2727 21
159 1 -2.53144 10.4883 3.84599 20
160 1 17.2821 3.77251 -15.3593 18
161 1 14.5259 12.0841 -9.66834 19
162 1 1.60042 14.2308 -5.79768 15
163 1 22.552 6.72132 -8.44397 11
164 1 1.30102 12.4842 -10.927 22
165 1 7.87096 17.6341 -11.1565 16
166 1 6.55121 9.09433 -19.9043 16
167 1 -4.93777 -11.291 -1.74233 11
168 1 -8.00202 6.16337 -3.9683 18
169 1 -0.22054 0.871266 -18.4477 21
170 1 7.7302 -10.0782 -18.0791 15
171 1 14.1813 11.5352 5.34621 11
172 1 8.4669 18.2427 -3.63129 11
173 1 -6.9921 -2.60422 -6.91174 21
174 1 -6.43433 12.3238 0.74226 12
175 1 22.9024 -4.58019 -9.42379 11
176 1 -6.4111 -0.0479277 -17.9436 13
177 1 10.5001 -1.62072 12.6559 8
178 1 9.14037 14.8789 -3.14597 19
179 1 3.23863 9.6214 4.1129 21
180 1 7.63972 -6.95008 -23.5056 10
181 1 2.44272 15.3166 0.16369 15
182 1 2.64893 13.8312 -13.772 20
183 1 7.6596 -2.18011 6.62428 24
184 1 -6.52137 -5.66524 -2.51764 16
185 1 3.48341 -11.7096 -19.3653 11
186 1 -2.88457 11.1274 -15.0587 16
187 1 4.40315 -12.4458 0.438186 22
188 1 7.20239 -15.5374 -10.0358 15
189 1 1.18113 12.0727 -18.7234 9
190 1 -9.35408 -0.560554 2.683 15
191 1 8.91407 6.35812 -8.49129 22
192 1 12.1056 10.4544 -10.3382 22
193 1 -5.48305 4.60716 8.25619 15
194 1 6.86445 -7.93358 6.12635 19
195 1 -1.20605 1.73039 -3.6145 21
196 1 10.099 14.2934 -6.30626 22
197 1 7.37523 13.0414 6.67107 18
198 1 14.594 5.01719 6.96724 24
199 1 -0.560552 15.4363 -1.45093 12
200 1 20.1336 -6.52833 -13.8052 17
201 1 -1.02711 14.1057 1.75275 13
202 1 2.82799 5.92603 -16.0646 17
203 1 17.778 -5.83788 -5.13652 18
204 1 1.04074 -4.27542 -2.30586 23
205 1 -9.04494 -0.372496 -0.522929 13
206 1 -0.922348 -6.90093 -2.4578 22
207 1 12.653 0.248231 5.13295 23
208 1 -8.9363 0.331668 -7.01111 18
209 1 1.88276 -12.1409 -10.9795 20
210 1 -0.660248 0.0804079 -8.89232 18
211 1 10.8775 -8.83113 -10.9346 22
212 1 3.49769 12.2681 -1.08098 23
213 1 -0.575541 -0.777487 -2.23908 22
214 1 9.98695 15.3076 5.78755 11
215 1 -3.50501 -0.280672 -10.1945 20
216 1 2.38422 10.8509 -13.1803 22
217 1 -6.01539 -5.39267 -9.03107 16
218 1 -3.74858 -0.569434 5.8465 23
219 1 1.91417 -9.42954 -2.30652 24
220 1 11.8331 -12.0291 0.461751 18
221 1 -3.75424 8.36461 1.88885 19
222 1 19.0002 1.13328 0.721111 20
223 1 10.3252 4.44682 -11.0605 22
224 1 -0.97005 -7.57189 -17.1984 14
225 1 9.85564 0.65353 6.7547 21
226 1 14.5836 -11.8564 2.84819 9
227 1 6.7587 6.14145 -17.8147 21
228 1 9.28414 -12.4904 -18.9051 11
229 1 12.0851 3.42788 -19.0372 18
230 1 10.5041 9.91057 -19.616 9
231 1 -1.04498 -2.35218 -13.781 21
232 1 4.60262 17.5385 -11.5988 13
233 1 -0.83445 -13.005 -3.66452 17
234 1 13.9491 15.3126 -8.92569 13
235 1 -9.54926 6.58199 5.3835 13
236 1 -1.81295 12.0112 -9.47907 24
237 1 13.3919 -1.75129 3.17875 20
238 1 1.46877 -9.18255 -18.7185 14
239 1 -0.769648 9.19472 -18.5622 13
240 1 8.24422 -0.101519 -19.9257 21
241 1 1.37135 -10.8925 3.90075 22
242 1 -0.913753 7.68578 3.49468 21
243 1 0.200072 9.08002 5.3444 21
244 1 12.0705 -9.09558 -15.8424 19
245 1 -0.774031 -9.63981 -0.759023 18
246 1 16.0052 -10.094 -7.20475 17
247 1 5.01794 -8.25983 -7.37009 23
248 1 12.4089 7.42772 10.3976 13
249 1 11.4286 11.5623 -13.5848 19
250 1 8.53602 8.90115 -6.12947 21
251 1 -2.7724 4.56076 -3.19249 24
252 1 -5.49939 9.9933 -5.11305 22
253 1 6.34994 10.0078 5.40462 22
254 1 11.3942 -15.5393 -3.83235 11
255 1 20.7467 3.13215 -7.48106 20
256 1 8.84507 9.03446 0.600813 23
257 1 -3.12096 5.12132 0.0852936 19
258 1 -5.31408 -8.42621 -14.2875 11
259 1 9.82226 5.61839 -18.3679 17
260 1 7.46346 -1.96335 3.17454 21
261 1 13.664 11.0395 -15.8134 16
262 1 7.42861 -9.35223 -12.1055 19
263 1 1.78289 -0.352255 -16.7816 21
264 1 10.162 -16.429 1.49969 10
265 1 17.031 -3.49455 -16.0189 21
266 1 -4.83257 -8.29875 3.56616 12
267 1 12.6967 -11.994 -7.92615 21
268 1 -4.02095 -5.95772 -13.8003 22
269 1 11.6662 12.4563 -8.28163 23
270 1 8.89475 -4.86363 -21.1435 22
271 1 13.6609 4.98577 9.95887 19
272 1 21.4856 -0.417914 -5.92327 21
273 1 -0.625528 -5.4065 -9.24713 23
274 1 17.7888 -8.73231 -14.0887 20
275 1 4.6914 -5.80806 -5.43197 23
276 1 1.74954 -2.96165 -18.6268 22
277 1 -6.07763 1.17064 -12.1385 19
278 1 2.15513 -11.3057 6.90316 16
279 1 15.3953 -0.230169 4.95064 23
280 1 9.30458 -6.85654 4.78002 21
281 1 2.35144 -5.77667 -17.4314 18
282 1 7.10058 -7.30192 -0.351488 22
283 1 4.5987 6.40206 -20.1977 20
284 1 10.3961 6.21086 -3.12062 25
285 1 -1.78503 -3.76469 -3.88041 22
286 1 6.34422 13.1976 -2.56599 23
287 1 1.32356 1.04401 7.77174 19
288 1 -1.35116 -8.34602 -14.2567 19
289 1 -1.76079 -5.06948 -15.4879 22
290 1 2.94897 7.18063 -22.2986 13
291 1 -0.57346 -8.15984 -10.8589 25
292 1 1.41267 -12.1921 -7.80486 21
293 1 19.2018 -0.67654 -17.184 15
294 1 22.0186 -0.745806 -14.8768 11
295 1 13.9842 3.41346 -2.77849 22
296 1 1.33654 -3.6929 -8.43847 21
297 1 -3.16885 -0.280108 3.24006 21
298 1 1.68449 -11.9576 -4.64978 22
299 1 16.6989 2.77232 5.6614 21
300 1 -2.72018 -14.6897 -5.814 12
301 1 4.10701 -11.648 -2.83407 20
302 1 9.15532 18.5307 -8.4558 15
303 1 6.93715 -2.9475 -18.9622 21
304 1 2.77088 -5.22963 -21.0857 17
305 1 15.6155 -4.07295 -10.2578 22
306 1 -1.02051 -9.37945 2.95834 19
307 1 4.87982 1.43982 10.2355 19
308 1 7.52034 -12.8712 -10.794 19
309 1 1.72967 -13.2684 -17.1463 16
310 1 -5.16041 6.59923 -14.9192 18
311 1 14.0365 3.60302 0.568063 19
312 1 1.74224 4.60436 -21.0007 18
313 1 3.00105 11.2527 -16.231 18
314 1 0.964406 -4.3707 1.21063 19
315 1 14.434 -14.2909 -15.3573 10
316 1 -4.34148 12.8018 -4.31295 18
317 1 11.6274 13.0865 3.69247 18
318 1 15.6541 0.412137 -3.53407 21
319 1 -4.13143 2.53635 1.05846 23
320 1 5.0132 -1.50912 4.83333 24
321 1 3.17316 12.2677 2.36548 22
322 1 7.935 -5.62172 -17.3214 20
323 1 19.8269 6.20465 -7.91979 21
324 1 10.2936 -6.70581 -8.86784 22
325 1 7.1303 0.362719 8.25062 21
326 1 -4.93465 -5.64349 2.31222 17
327 1 5.75179 -16.4769 -6.08962 11
328 1 -3.73271 11.6934 5.81534 14
329 1 -3.69393 7.81532 5.49167 23
330 1 -4.57174 -6.72514 5.9024 15
331 1 -3.07493 -9.01641 6.72657 11
332 1 23.8097 -5.13748 -6.37698 7
333 1 -4.3744 -13.3585 0.794977 10
334 1 9.572 -2.64922 -16.8518 22
335 1 15.5538 -11.7963 -9.60427 14
336 1 11.7448 17.06 -7.03896 15
337 1 4.35434 -9.12009 -0.621558 20
338 1 -5.03 13.1194 -9.91871 17
339 1 4.3843 1.3345 3.31122 23
340 1 11.216 3.64394 8.41306 24
341 1 -6.86939 2.39869 -3.78321 22
342 1 13.2821 -9.52165 -9.24331 22
343 1 3.44748 10.4446 -10.3294 21
344 1 -0.917962 7.36875 -3.12697 21
345 1 11.5842 -12.5904 3.58599 17
346 1 17.4844 -5.04717 -2.15139 15
347 1 2.14334 6.67432 2.0833 21
348 1 -0.699815 0.449902 -12.183 21
349 1 4.38075 -1.22581 11.4355 11
350 1 6.76141 18.7779 -6.09318 13
351 1 16.2292 4.00166 8.85756 15
352 1 -3.72587 13.9542 -12.651 13
353 1 9.85364 -4.38442 -24.3072 14
354 1 -0.966768 3.29775 -10.1542 22
355 1 12.2582 -7.58299 -19.9735 14
356 1 -6.34036 1.90991 6.17187 20
357 1 -9.07506 3.8196 -5.69767 14
358 1 4.32232 -2.93189 -13.6109 22
359 1 0.419895 9.98364 -1.17867 19
360 1 9.32643 -4.09313 3.23304 23
361 1 -3.30107 -9.1347 -5.67711 21
362 1 12.9272 -10.0713 -2.2712 21
363 1 2.32428 -7.59391 7.67636 18
364 1 -6.81669 8.09527 -2.38384 21
365 1 3.83837 -3.75556 3.18041 22
366 1 12.4896 -10.148 -12.6545 17
367 1 1.54672 -3.49675 -15.3179 23
368 1 16.3858 -1.53807 -19.1045 13
369 1 14.1955 10.0369 0.00841689 23
370 1 -6.29585 0.103304 -8.85116 24
371 1 13.5241 -6.53529 -16.978 20
372 1 14.4813 6.29019 -19.5061 14
373 1 1.86692 -14.9349 -9.79071 12
374 1 -8.99199 -4.34461 -11.2361 12
375 1 2.18915 -6.44401 -7.44547 23
376 1 15.6528 1.83322 10.5825 13
377 1 22.0069 4.85087 -2.64744 16
378 1 -3.99989 5.10863 -17.174 18
379 1 12.3352 14.0809 -3.00784 17
380 1 -7.52856 3.30486 -10.0156 20
381 1 0.148027 10.6075 2.15014 21
382 1 -9.72919 11.0936 -3.24155 11
383 1 2.04695 6.95358 -1.54479 22
384 1 17.6142 0.721312 7.9074 14
385 1 17.5276 -1.90541 -11.2808 20
386 1 11.4741 -5.63859 8.52429 14
387 1 21.9877 -1.85394 -11.4924 14
388 1 -3.04593 -14.6808 -9.27866 8
389 1 -0.215355 11.4909 -6.18785 19
390 1 4.8792 -11.0242 -12.6534 22
391 1 5.93981 9.88103 -1.14742 22
392 1 -4.46327 2.47079 -8.6564 21
393 1 7.90104 -8.84785 -8.92296 19
394 1 15.1744 -4.5625 0.237524 18
395 1 -4.3152 -2.88915 -12.3098 21
396 1 1.41039 -10.0363 0.775963 20
397 1 4.99854 -7.08275 8.30685 14
398 1 1.70078 12.0689 -3.23133 17
399 1 -0.707132 -5.72456 -5.84444 21
400 1 9.18406 8.74899 11.5122 12
401 1 -0.250641 8.67187 -6.53057 20
402 1 7.01465 14.5695 -11.1046 23
403 1 17.428 12.1488 0.618409 13
404 1 -6.31532 -9.1519 -10.9605 12
405 1 4.88047 -8.55906 -14.0138 20
406 1 -3.36533 -0.441218 -0.215471 22
407 1 -7.95383 12.0705 -9.43342 14
408 1 10.3592 -9.12041 0.0680007 21
409 1 2.10997 -14.9857 -14.1011 11
410 1 17.7595 5.51714 1.28256 21
411 1 8.20734 9.78302 -17.4946 20
412 1 -8.29525 1.08632 -14.9124 10
413 1 3.21884 16.6869 -14.2844 13
414 1 -0.649651 9.71597 -11.8031 23
415 1 6.65803 -13.2329 -1.23267 20
416 1 16.091 4.64979 -0.966014 20
417 1 3.94751 8.48292 -18.1992 17
418 1 1.67108 1.09045 4.89995 19
419 1 -7.13648 2.44447 -0.210204 19
420 1 -0.178854 4.60613 1.41797 20
421 1 4.17643 -9.43907 2.61114 21
422 1 4.85861 -5.61594 -15.7101 18
423 1 11.5427 -13.8388 -17.3237 12
424 1 3.71862 -3.7615 -0.128784 22
425 1 -7.12005 1.95021 2.88973 25
426 1 -6.68312 -1.00002 4.4125 20
427 1 -8.57737 8.59158 -5.56225 17
428 1 6.23953 -4.61359 1.25993 26
429 1 -1.34977 4.21064 -19.2096 18
430 1 14.7425 -9.26414 -14.7084 21
431 1 3.72849 -10.8824 -16.238 21
432 1 2.286 -1.56922 3.14838 21
433 1 9.55513 -3.06862 -13.7292 22
434 1 -0.527733 0.407755 -21.6482 11
435 1 13.1361 -10.273 -5.87809 22
436 1 6.49624 11.0144 -11.0217 22
437 1 -9.21248 9.98693 0.0691988 11
438 1 0.0201409 4.26685 11.8715 12
439 1 -3.8306 -2.90093 -15.3658 21
440 1 0.796104 -6.75898 10.1715 11
441 1 14.755 -5.56372 3.32804 12
442 1 11.3254 3.54334 -4.83962 24
443 1 -0.198051 5.36485 -5.19968 18
444 1 14.9658 3.48906 -8.54599 19
445 1 12.9496 -6.82155 -0.413008 17
446 1 19.5787 3.68965 -12.8604 19
447 1 -2.79175 4.7964 6.72627 24
448 1 11.6809 9.1194 -4.28597 24
449 1 7.56846 -6.52578 -7.09416 23
450 1 4.83213 -14.6662 -8.23956 17
451 1 -0.674551 7.08847 7.06872 22
452 1 3.65978 14.917 -2.97637 16
453 1 -0.25023 -14.685 -12.1833 11
454 1 17.3885 10.1907 -9.33416 19
455 1 8.8206 8.99957 3.419 22
456 1 -1.47123 2.2015 6.21572 22
457 1 2.00103 -6.50269 -10.5292 21
458 1 -5.70846 4.95381 4.92197 22
459 1 -1.36947 -5.00213 -12.5665 19
460 1 1.52138 16.5229 -3.36919 9
461 1 -0.955055 -13.6804 -15.1736 11
462 1 5.57319 -5.39299 -21.9916 18
463 1 -3.22526 -8.45335 -2.18415 22
464 1 -4.7752 -3.41507 -2.25883 22
465 1 10.194 1.14514 3.52427 21
466 1 -2.06187 -3.90813 9.22608 14
467 1 -6.83294 3.89855 -15.8708 12
468 1 14.5727 4.38453 -5.79346 19
469 1 -5.89267 -7.99606 -7.37265 17
470 1 7.59485 6.98616 -11.9718 19
471 1 10.2113 19.7461 -5.51954 9
472 1 4.81179 5.48844 -11.2351 21
473 1 1.9146 12.205 5.21389 18
474 1 -9.9205 3.29039 -8.49174 16
475 1 6.18418 13.9907 -8.06104 20
476 1 12.3637 14.1709 -14.6576 13
477 1 1.98036 -9.11313 -12.2856 22
478 1 2.64867 3.68238 6.58638 20
479 1 9.2022 -15.521 -12.9346 14
480 1 4.15775 -2.47065 -16.9722 23
481 1 10.4011 -9.79191 -3.93657 21
482 1 -6.94012 7.77638 3.35705 20
483 1 7.64118 0.558263 11.617 12
484 1 13.8973 6.70805 -7.80126 21
485 1 8.87691 9.14177 -2.81932 23
486 1 -3.55624 8.66012 -17.2498 13
487 1 11.5316 5.85486 -13.9109 22
488 1 7.20751 -6.77825 -3.88348 22
489 1 -9.94748 -5.35176 -4.48611 9
490 1 11.8428 13.9949 0.0872317 13
491 1 -0.989726 -4.63275 -18.7406 16
492 1 16.8604 4.84122 -7.01664 19
493 1 9.82326 15.3738 -12.9435 18
494 1 12.7093 -4.1183 -8.70683 19
495 1 23.6338 1.66299 -7.78442 12
496 1 7.36246 1.95913 -15.1507 21
497 1 9.12368 -12.2273 -2.48952 20
498 1 7.10672 -10.4042 0.911787 20
499 1 9.69981 -10.0001 5.87154 16
500 1 -2.59886 5.32247 -14.3408 24
501 1 -2.16467 -12.3114 3.53634 16
502 1 9.47754 -11.5329 -16.1033 23
503 1 14.938 12.6417 -1.09429 17
504 1 4.49488 4.48671 -23.1135 16
505 1 9.48173 -4.15736 10.5456 11
506 1 -9.06758 0.699836 6.12265 11
507 1 8.00961 -15.1622 -4.18848 17
508 1 -7.65892 -3.40766 -4.06286 19
509 1 22.6957 -6.23865 -11.7918 13
510 1 19.2219 1.08028 -11.097 21
511 1 0.578092 9.63048 -8.68275 22
512 1 5.32096 -8.20296 -17.1421 20
513 1 8.74701 4.7453 -13.6994 20
514 1 19.1938 -5.98184 -16.4551 15
515 1 1.8296 1.28874 11.2219 11
516 1 12.0416 12.05 -5.42186 18
517 1 2.35508 -4.29516 -23.7647 9
518 1 11.2999 0.542499 -21.4043 16
519 1 -1.48961 -3.26076 3.02733 18
520 1 2.82402 9.91855 -6.1421 21
521 1 -1.45717 -2.31413 -20.2267 16
522 1 -8.90921 -0.690349 -3.7536 15
523 1 4.56095 -8.31071 -19.8344 11
524 1 3.77162 -6.70179 4.70473 25
525 1 5.25017 11.4873 -18.1416 15
526 1 19.5213 1.10959 5.34729 13
527 1 20.7019 9.44729 -9.11902 10
528 1 -4.73543 -12.2278 -4.99989 10
529 1 7.75912 -6.15034 -10.4818 21
530 1 6.04126 -4.2782 -24.9681 13
531 1 -3.1462 5.57058 3.23635 22
532 1 9.84306 -3.62516 -10.4977 22
533 1 7.8715 6.27989 -4.72938 22
534 1 16.8751 -1.42153 -8.17059 22
535 1 9.5544 14.7912 -9.66465 23
536 1 9.68299 -4.17083 -7.12994 22
537 1 16.6604 1.82593 -12.7455 20
538 1 3.55936 8.91484 10.1912 19
539 1 -5.63554 5.75854 1.58242 21
540 1 11.6434 12.1946 7.23309 14
541 1 13.9341 -3.5264 9.00716 16
542 1 4.67102 -1.57163 -23.3162 17
543 1 1.54074 -3.51117 -11.9599 24
544 1 5.61764 4.16989 5.28116 21
545 1 17.0162 11.8362 4.03232 13
546 1 11.396 8.90535 -15.5033 20
547 1 -3.66054 7.22271 -11.6514 22
548 1 7.89315 16.2863 -7.32742 21
549 1 16.8098 -3.16785 3.28132 16
550 1 16.1095 0.817121 -15.7015 20
551 1 21.0872 -7.48986 -9.35272 14
552 1 17.8472 9.51095 6.39968 11
553 1 -7.7219 -6.64038 -5.73464 13
554 1 0.283476 12.8317 -15.8084 17
555 1 1.73078 1.17581 1.61752 20
556 1 -6.31517 -1.01749 7.57476 15
557 1 -0.270545 15.3532 -13.6278 13
558 1 9.45485 -12.2602 -5.89879 23
559 1 12.8281 -2.77197 -11.9331 20
560 1 1.90542 15.6887 -11.3777 18
561 1 -3.90867 -5.59131 -17.2535 12
562 1 7.53885 -16.2649 3.41479 8
563 1 -4.28532 -3.3129 -5.52067 20
564 1 3.58568 10.6913 -21.1132 9
565 1 -3.23929 5.26602 -9.59823 19
566 1 2.81877 12.0847 8.68314 15
567 1 1.07731 -8.07032 5.31889 22
568 1 13.1824 6.31222 -4.25522 21
569 1 10.3163 -8.62871 -18.1186 16
570 1 9.45108 -4.33621 6.82154 21
571 1 14.9978 6.14758 -14.3499 20
572 1 -4.46045 6.96527 -4.22038 18
573 1 11.2071 4.09407 11.7929 13
574 1 5.86025 17.3495 -8.9203 18
575 1 15.5386 -7.69754 -11.6954 20
576 1 8.60969 5.65502 7.66613 19
577 1 9.68148 2.86871 -20.8152 19
578 1 5.89492 -11.1517 7.031 10
579 1 2.26616 2.56919 -14.881 19
580 1 14.0447 0.500499 -18.5815 16
581 1 6.40604 15.8847 -4.63328 19
582 1 13.2577 2.00452 -11.1102 20
583 1 5.08649 0.899909 -18.2934 17
584 1 2.25635 -9.32163 -9.17934 25
585 1 -0.933022 -2.00362 -16.6963 18
586 1 20.4051 2.48757 -4.43723 22
587 1 21.3221 3.701 -10.1795 18
588 1 12.505 -4.08016 -14.8967 20
589 1 17.7015 8.37196 3.71389 18
590 1 12.9393 -6.92337 -13.462 22
591 1 9.02434 8.48772 -21.4172 10
592 1 14.3249 10.5238 -3.2109 21
593 1 -1.25375 2.42162 -0.325431 23
594 1 17.3483 5.88148 6.15682 16
595 1 19.202 10.0221 -12.2327 12
596 1 21.6086 -3.36937 -4.78576 14
597 1 17.1941 6.27081 -16.6004 12
598 1 13.9684 2.92619 4.06562 21
599 1 19.2412 4.03469 3.50368 16
600 1 9.42849 -4.44195 -0.102396 22
601 1 19.0244 8.55714 -6.65592 16
602 1 11.0221 3.3728 -1.54793 23
603 1 8.11611 3.19958 10.0971 22
604 1 19.0189 1.06758 -8.23045 17
605 1 13.1778 1.08812 1.51474 22
606 1 -3.03503 2.32761 -11.8053 19
607 1 17.0315 3.14905 -4.22886 21
608 1 15.3406 -4.43431 -7.00147 21
609 1 5.0195 -5.76343 -8.98627 21
610 1 -7.26237 7.10882 8.08577 9
611 1 9.25085 11.5185 4.67907 19
612 1 15.9729 1.15568 -0.615421 20
613 1 8.87438 11.7195 1.65271 19
614 1 7.63056 14.6119 4.11903 14
615 1 10.077 1.07317 0.103723 21
616 1 5.70441 -16.529 -2.75885 13
617 1 -2.97009 10.4628 -6.7978 21
618 1 14.7241 12.3474 -13.1401 16
619 1 14.4424 -1.63512 -15.3183 19
620 1 9.22712 12.0357 -3.86774 21
621 1 4.35393 -11.2284 -9.41517 21
622 1 16.8778 -6.98542 -19.3052 10
623 1 -9.91921 2.48804 1.13786 14
624 1 1.5989 3.67201 -17.8698 18
625 1 2.14454 -15.435 -3.31475 13
626 1 -0.717638 0.863855 -15.0227 23
627 1 -9.30506 3.97097 -1.97319 14
628 1 15.3541 -7.6281 -2.20371 17
629 1 19.5071 8.58558 -3.31437 18
630 1 9.88923 -9.53826 3.0031 20
631 1 -7.35297 -1.7126 -12.053 16
632 1 8.49184 0.893237 -23.2828 16
633 1 12.914 -9.94733 5.18922 12
634 1 0.182835 9.8096 9.28728 17
635 1 12.3435 8.24845 -21.481 8
636 1 15.9928 -2.0143 8.24675 14
637 1 18.1795 6.53263 -13.5287 18
638 1 18.3385 11.0508 -5.432 13
639 1 11.3874 -12.0869 -11.1941 22
640 1 0.971159 -4.94023 7.38802 20
641 1 18.0945 -2.5561 0.106172 17
642 1 5.35169 10.8251 8.00047 20
643 1 10.6801 12.1549 -16.6576 16
644 1 -4.15481 10.526 -11.8991 21
645 1 17.0645 8.92342 1.05564 22
646 1 -1.56098 -11.0007 -6.22655 18
647 1 19.1728 -2.90916 -6.46349 21
648 1 15.7194 13.3514 -4.14681 13
649 1 2.59676 6.39428 8.71318 21
650 1 -3.60754 -0.608574 -3.71889 21
651 1 -3.40304 -0.21347 -13.3298 20
652 1 15.951 -4.74337 6.04903 11
653 1 3.21393 -3.96745 9.42182 15
654 1 16.0163 7.08902 8.8277 12
655 1 -2.49187 13.6186 -7.14876 16
656 1 11.8049 8.67811 -1.19133 23
657 1 12.2007 -4.35169 -5.13332 24
658 1 11.3625 4.04828 1.88964 21
659 1 2.46397 0.600543 -19.9142 19
660 1 -1.35656 2.04915 2.9652 21
661 1 11.8006 -1.54569 -16.2475 17
662 1 4.1124 -5.48648 -12.3757 23
663 1 17.639 -10.8148 -12.4654 15
664 1 10.415 6.53186 3.83737 22
665 1 10.3129 6.16516 0.0571744 21
666 1 -3.97912 1.4361 7.92355 17
667 1 19.4507 10.7951 3.53371 10
668 1 5.83197 4.44769 8.30652 21
669 1 5.11262 7.29533 7.00488 22
670 1 4.2271 -1.97719 -19.8082 20
671 1 -0.27773 5.02073 4.78336 22
672 1 14.0153 2.0147 7.1384 22
673 1 -0.77182 -11.8387 0.979911 21
674 1 22.7981 4.47372 -5.76676 16
675 1 13.9157 -14.7577 -9.7984 12
676 1 2.48562 5.36064 -13.1431 21
677 1 16.3707 8.17953 -11.8713 20
678 1 17.5153 11.0858 -2.21588 18
679 1 5.47845 0.531405 -21.7558 17
680 1 4.79869 -1.28578 8.24919 20
681 1 8.78228 11.5295 -8.10407 21
682 1 18.7431 6.79724 -1.51403 22
683 1 -2.53287 -12.7833 -10.8292 12
684 1 5.61023 1.44604 -24.6218 12
685 1 -8.02154 11.7532 -5.45601 17
686 1 14.4799 -3.48564 -17.7241 17
687 1 13.3809 5.92515 -0.958878 22
688 1 16.7597 9.48746 -14.5642 15
689 1 16.0619 8.07109 -6.79465 18
690 1 2.57587 4.17345 -0.127369 22
691 1 -2.32271 15.2729 -3.90862 8
692 1 11.984 7.24187 -9.59871 19
693 1 14.0087 -1.03291 11.5103 11
694 1 13.4387 -0.423325 8.45019 18
695 1 3.94998 -9.46656 5.76249 23
696 1 1.26245 9.708 -21.1331 12
697 1 7.95496 14.9327 0.96104 15
698 1 14.9232 -4.87354 -20.3215 12
699 1 8.64865 3.78341 3.51567 22
700 1 11.2413 16.7417 -10.3703 14
701 1 11.8842 8.13859 1.91684 22
702 1 19.867 -1.91067 -8.9684 21
703 1 9.93142 6.11439 10.388 18
704 1 -1.64993 -3.29276 6.20317 21
705 1 10.9017 -14.3908 -1.01287 16
706 1 4.61848 0.227554 -15.3532 20
707 1 -1.47774 12.3116 -2.55476 19
708 1 5.51517 4.48792 1.68912 20
709 1 13.9744 -1.33663 -9.87579 20
710 1 11.4071 11.064 1.53033 22
711 1 -6.55079 -0.27749 1.08646 20
712 1 -2.4264 4.36957 9.71672 17
713 1 -1.03528 7.04619 -20.3662 11
714 1 -1.24668 6.85653 -16.9474 22
715 1 9.56443 -12.7365 -8.84744 18
716 1 13.9394 9.4489 -13.2865 17
717 1 9.98785 -7.25964 -1.99192 22
718 1 2.06347 7.5796 -4.5937 21
719 1 -9.66203 2.86261 4.32584 15
720 1 13.7904 -1.78467 -21.0748 11
721 1 8.92275 -13.134 4.12682 15
722 1 7.16541 13.0846 -5.60411 21
723 1 -0.595387 7.04356 10.4302 17
724 1 -0.0424826 -10.7353 -16.1899 19
725 1 -0.278753 -12.2959 -18.8074 9
726 1 4.48833 -13.4908 -15.335 15
727 1 5.63266 10.5951 -7.64197 23
728 1 15.2826 -4.54067 -13.2206 19
729 1 0.968673 12.8881 -0.185675 20
730 1 13.9381 -11.9697 -17.1092 11
731 1 13.8049 -13.3507 -1.77698 12
732 1 8.94141 -6.35786 1.6582 21
733 1 19.7245 1.86592 -15.3934 14
734 1 9.13488 -11.7356 -12.7589 21
735 1 -4.94633 -3.81514 7.52552 15
736 1 7.01051 -0.982143 -13.7335 23
737 1 4.16332 -11.4639 -6.27375 19
738 1 -0.440196 -10.8865 -9.4167 20
739 1 -3.81417 2.75914 4.37034 22
740 1 -0.484717 -14.0171 -7.33552 16
741 1 21.7902 1.37451 -12.6011 14
742 1 3.82663 16.6975 -5.87718 12
743 1 -0.0266548 4.35005 -1.83726 23
744 1 -3.88658 7.63231 -1.19921 20
745 1 16.0325 1.17812 -6.34652 20
746 1 -6.53765 -3.3218 -17.2029 11
747 1 6.05947 8.18991 -9.36548 20
748 1 14.5404 -0.250457 -12.9364 20
749 1 9.97441 13.5082 8.74265 9
750 1 13.5603 5.62263 -11.3322 23
751 1 -9.19082 5.74753 -10.624 16
752 1 -7.74841 -7.03319 -12.8818 11
753 1 5.3292 6.65247 10.6639 16
754 1 5.39331 11.8999 -13.9538 20
755 1 19.8235 9.57975 -0.435495 13
756 1 2.43299 3.71501 3.25768 20
757 1 4.43995 -14.2779 -4.28006 19
758 1 1.43863 -13.7789 1.55781 20
759 1 -2.37133 -5.77357 3.43761 19
760 1 20.3175 7.42422 1.98218 15
761 1 8.7821 -9.0713 -14.4415 18
762 1 -4.60465 10.8715 -1.64499 20
763 1 15.5362 7.93069 -1.79272 21
764 1 0.711772 -7.4143 2.49443 19
765 1 16.2807 9.19894 -17.7824 8
766 1 2.42074 -15.1492 -6.63188 16
767 1 9.18855 -12.5016 0.874778 18
768 1 6.49872 -12.5592 -4.4176 22
769 1 8.83264 7.36463 -15.7846 19
770 1 16.0957 12.782 -7.33614 14
771 1 1.85091 -1.68294 -22.009 18
772 1 0.156548 4.32358 8.28321 21
773 1 6.30882 6.90889 -23.2046 12
774 1 -4.36976 -2.32165 -18.9816 13
775 1 -4.40078 -3.26511 -8.91821 19
776 1 3.17576 15.6546 -8.77251 16
777 1 12.7452 0.576654 -4.73915 22
778 1 7.42902 -2.43511 -22.0989 23
779 1 -1.49766 -2.72757 -7.34851 21
780 1 14.5435 8.93571 -9.89745 20
781 1 18.415 -4.91768 -8.25011 23
782 1 -2.84522 9.40302 10.9804 7
783 1 12.6929 -7.03781 -3.59087 21
784 1 20.6649 -6.15623 -6.13643 14
785 1 16.2551 -0.954253 1.65007 22
786 1 5.88035 10.06 2.29892 23
787 1 -8.26869 4.23491 6.54065 14
788 1 -2.48572 9.65568 7.61042 15
789 1 0.691887 -13.7729 4.50747 14
790 1 12.8464 0.519979 -1.73057 21
791 1 10.3903 9.59024 8.84303 15
792 1 -10.2797 -2.09272 -5.84792 13
793 1 15.7117 -7.26905 -8.67189 21
794 1 -6.67306 12.4876 -12.6771 10
795 1 7.72279 6.44759 -1.37127 21
796 1 6.40541 -14.046 2.18157 16
797 1 10.0751 0.791065 9.7164 16
798 1 4.12987 12.0829 -4.90118 20
799 1 7.63995 -9.72344 -2.24466 23
800 1 -3.62663 -0.473978 -6.77493 22
801 1 8.11761 3.07502 6.69116 20
802 1 -9.05684 -4.63993 -8.00678 15
803 1 6.76052 8.27864 9.02079 21
804 1 11.6321 11.3929 -1.66618 22
805 1 -5.80486 -9.19583 -4.08298 14
806 1 5.72493 -16.8365 0.421484 11
807 1 13.9293 -1.89904 0.0385618 21
808 1 12.2483 -4.34022 1.442 22
809 1 14.2894 9.43327 3.25719 23
810 1 3.02998 7.27309 -8.17664 23
811 1 6.65163 -11.0594 -14.5091 21
812 1 4.91544 3.74002 -16.5361 19
813 1 4.53864 1.44085 6.62559 20
814 1 11.4748 16.8827 -3.93112 13
815 1 18.9284 0.136713 -1.8487 23
816 1 5.14507 8.8819 -12.4953 20
817 1 -0.525422 11.5039 7.26725 16
818 1 11.8525 8.85996 5.33465 22
819 1 18.1614 -3.6991 -19.1332 13
820 1 -0.609419 -9.47706 -4.12442 18
821 1 1.97414 1.90266 -11.6603 22
822 1 19.2811 -2.3879 -3.02436 17
823 1 6.924 -3.58813 -15.532 25
824 1 5.20304 12.9236 4.40779 19
825 1 14.8184 -12.8036 -12.6181 16
826 1 11.2075 5.52633 -21.37 15
827 1 4.94563 -8.23681 -10.6603 23
828 1 15.1968 3.55961 -17.7099 15
829 1 22.6962 -2.21628 -7.87536 15
830 1 6.6816 -4.82311 4.86466 24
831 1 1.77811 -8.20915 -15.8111 21
832 1 13.7917 10.1896 -6.90788 18
833 1 4.25771 -6.3036 -2.09245 21
834 1 -9.84061 8.00111 -2.11114 11
835 1 16.6008 4.82116 -12.0425 20
836 1 19.2808 3.97675 -1.44274 22
837 1 10.1065 -7.71213 -22.4476 11
838 1 -6.7773 13.3477 -2.8392 10
839 1 21.5003 4.8816 0.966008 14
840 1 17.1487 12.9194 -10.6223 8
841 1 7.09455 -0.559989 -16.9017 22
842 1 13.671 -1.95235 -3.46561 23
843 1 -8.1621 6.14133 -7.74787 20
844 1 16.4721 5.92804 -4.00492 21
845 1 -8.55907 -7.09305 -9.61155 12
846 1 -4.55716 10.2037 -9.29391 20
847 1 11.4165 3.54389 5.26211 23
848 1 -9.50388 -1.91256 -9.14345 14
849 1 -8.38825 4.89849 3.03519 18
850 1 5.34885 3.07289 -13.2774 19
851 1 16.0112 -6.78 -15.0263 20
852 1 -3.29217 -9.24312 -12.1174 17
853 1 18.5235 -8.0588 -7.41771 19
854 1 -5.81079 4.72406 -5.77977 23
855 1 -1.702 -2.83891 -10.5348 22
856 1 13.3777 6.11554 4.30112 21
857 1 1.70107 -6.88975 -0.666167 19
858 1 12.7269 1.73038 10.316 14
859 1 21.7119 2.3053 -0.842075 17
860 1 14.8305 -4.82303 -3.60223 23
861 1 -2.99219 5.02867 -6.62621 20
862 1 8.90645 9.0868 6.65098 17
863 1 7.50604 2.80819 -18.336 21
864 1 7.516 -7.11344 -19.6015 19
865 1 -2.27895 11.1599 0.312723 20
866 1 1.23172 -4.95196 4.41472 22
867 1 9.57584 12.5085 -11.0969 19
868 1 6.3412 10.3874 11.4306 12
869 1 20.4176 -4.23117 -10.9663 21
870 1 11.8629 -4.39285 5.16119 22
871 1 5.61752 14.6723 -15.7134 15
872 1 7.27271 12.9717 -16.7916 13
873 1 -0.589753 -0.709676 4.64492 18
874 1 16.384 5.01101 3.45132 21