ITEM: TIMESTEP
27000
ITEM: NUMBER OF ATOMS
2000
ITEM: BOX BOUNDS pp pp pp
-30.0 30.0
-30.0 30.0
-30.0 30.0
ITEM: ATOMS id type x y z Coordination
1 1 -17.8778 -1.75407 -4.33859 9
2 1 -18.8458 -3.49571 -1.3381 5
3 1 -17.2647 -4.67444 1.47171 11
4 2 -15.5698 -0.675304 -3.82122 14
5 2 -14.437 -0.469163 -0.452738 16
6 2 -17.1623 -4.01333 3.41314 8
7 1 -7.43655 -16.9415 7.12989 7
8 1 -1.46452 -17.671 3.19258 13
9 1 -5.1631 -17.8761 4.3775 10
10 2 -6.39456 -16.5985 3.41176 14
11 2 -3.26667 -17.8241 3.8279 13
12 2 0.311552 -17.7537 4.25301 11
13 2 3.77572 -2.02355 -18.3006 14
14 1 -0.518054 -1.38824 -17.2783 15
15 1 1.93258 -1.83271 -18.73 10
16 2 0.608746 -3.1572 -18.1592 14
17 1 -11.9255 -12.8846 -2.06196 13
18 1 -11.6459 -6.69171 -8.87533 15
19 1 -13.2407 -8.89268 -6.4545 12
20 1 -13.2838 -6.27926 -6.19667 16
21 1 -15.6212 -7.13193 -4.45323 9
22 1 -13.411 -10.5686 -4.44954 9
23 1 -11.5401 -6.6766 -3.40572 19
24 1 -17.0466 -6.15575 -1.52973 11
25 1 -12.2004 -9.62085 -1.36218 16
26 1 -11.9562 -0.981108 -13.1063 11
27 1 -12.0112 -4.27895 -11.6478 11
28 1 -11.9887 -1.25515 -10.1374 18
29 1 -14.8443 -1.62569 -8.57644 10
30 1 -13.2921 -4.48014 -8.62491 15
31 1 -15.9842 -4.27987 -6.47464 11
32 1 -12.1811 -0.600777 -6.65257 17
33 1 -15.0253 -1.96912 -5.30181 16
34 1 -11.9678 -3.76127 -5.20556 20
35 1 -14.6762 -4.85464 -3.31178 17
36 1 -11.4672 -0.756709 -3.55008 19
37 1 -14.8108 -1.71631 -2.12172 18
38 1 -12.356 -4.04328 -1.74826 19
39 1 -6.79435 -13.8543 -8.71747 13
40 1 -9.56331 -13.8904 -7.52679 12
41 1 -7.21333 -12.3592 -6.18876 20
42 1 -9.63793 -14.0504 -4.59799 11
43 1 -7.28619 -15.302 -5.45112 15
44 1 -7.21885 -12.5583 -3.00167 20
45 1 -9.96974 -14.3481 0.0471795 13
46 1 -7.00217 -15.4944 -1.93891 15
47 1 -6.92081 -6.71792 -13.2925 16
48 1 -8.93654 -7.78587 -11.1501 15
49 1 -6.61816 -9.54309 -12.1016 13
50 1 -9.00031 -11.0526 -9.6234 12
51 1 -6.43433 -6.90022 -9.92762 22
52 1 -9.16621 -8.21368 -8.028 18
53 1 -6.01957 -9.77122 -8.1626 20
54 1 -10.1755 -10.8677 -6.51742 15
55 1 -6.61926 -6.71367 -6.57871 20
56 1 -9.58002 -7.89368 -5.47092 21
57 1 -6.90222 -9.49704 -5.15094 22
58 1 -10.6543 -10.1881 -3.75706 18
59 1 -6.5973 -6.82946 -3.45383 22
60 1 -9.3274 -7.48085 -1.70355 23
61 1 -7.15512 -10.052 -1.59321 18
62 1 -6.35674 -1.41534 -16.7758 12
63 1 -8.86118 -1.59361 -14.8047 16
64 1 -6.7994 -3.96912 -15.2448 15
65 1 -9.44867 -5.00154 -13.6929 13
66 1 -5.69727 -1.32865 -13.1683 22
67 1 -9.28599 -2.28783 -12.009 21
68 1 -6.42576 -4.06863 -11.6531 21
69 1 -9.46619 -5.04134 -10.1118 19
70 1 -7.57314 -0.822587 -10.3111 18
71 1 -9.20653 -1.8189 -8.49819 17
72 1 -7.06862 -3.79872 -8.26166 19
73 1 -10.0747 -5.09792 -6.97529 22
74 1 -6.32901 -1.26463 -6.4464 21
75 1 -9.33733 -2.2314 -5.17855 20
76 1 -6.41519 -3.95173 -5.17665 22
77 1 -9.13319 -5.02345 -3.74981 21
78 1 -6.79671 -1.09979 -3.38419 22
79 1 -9.59385 -2.01861 -1.8711 22
80 1 -6.50085 -3.65881 -1.48459 22
81 1 -1.22065 -12.4672 -14.2962 11
82 1 -3.3311 -13.0825 -11.9751 10
83 1 -1.32815 -12.1123 -10.2665 17
84 1 -3.94925 -12.8403 -8.62017 17
85 1 -1.3373 -15.0033 -7.8665 14
86 1 -4.57625 -15.7004 -6.83144 12
87 1 -1.00531 -12.3116 -6.45358 19
88 1 -3.92994 -13.5756 -5.11685 20
89 1 -1.74304 -15.4108 -4.56319 20
90 1 -4.5475 -16.5301 -3.56791 13
91 1 -1.16273 -12.72 -3.20093 21
92 1 -3.66283 -13.7146 -1.95915 24
93 1 -1.55128 -15.5418 -1.40032 17
94 1 0.364164 -6.72755 -17.358 11
95 1 -4.3359 -7.62293 -15.106 12
96 1 -1.65613 -9.35177 -16.0673 16
97 1 -3.93946 -10.3371 -13.612 17
98 1 -1.51239 -6.41477 -13.8851 21
99 1 -4.10582 -7.40567 -11.8203 22
100 1 -0.955529 -9.41354 -12.2037 26
101 1 -3.95517 -10.1119 -10.1571 20
102 1 -0.743074 -6.44428 -10.6018 22
103 1 -3.38281 -7.50832 -8.61262 22
104 1 -0.982352 -9.62489 -8.46018 21
105 1 -4.12708 -10.314 -6.47262 21
106 1 -1.4634 -7.02271 -7.03331 20
107 1 -4.0342 -7.47436 -5.00317 21
108 1 -1.33252 -9.31126 -4.87521 20
109 1 -4.39444 -10.5427 -3.27573 23
110 1 -1.08806 -6.73326 -3.64756 24
111 1 -3.68066 -7.6632 -1.61826 21
112 1 -1.49928 -9.78245 -1.72118 21
113 1 -3.93791 -3.34452 -16.3839 12
114 1 -1.04617 -4.00525 -18.4848 12
115 1 -2.89636 -0.943288 -18.0289 11
116 1 -1.42748 -3.66486 -15.1058 19
117 1 -4.2926 -4.70799 -13.4766 20
118 1 -1.61278 -1.21104 -13.626 20
119 1 -3.22914 -2.22584 -11.5571 21
120 1 -0.601702 -3.98576 -11.8339 22
121 1 -3.6801 -4.73296 -10.2439 19
122 1 -0.930906 -1.11621 -10.1798 19
123 1 -3.93087 -1.89376 -8.21347 20
124 1 -1.0747 -4.0277 -8.58849 22
125 1 -4.1949 -4.59489 -6.72224 22
126 1 -0.841405 -1.28545 -6.43452 20
127 1 -3.63628 -2.14099 -4.86913 20
128 1 -1.2716 -4.23276 -4.77896 23
129 1 -3.80471 -4.90829 -3.06885 23
130 1 -1.28682 -1.14578 -3.27425 22
131 1 -3.61382 -2.15336 -1.69559 24
132 1 -0.819008 -3.64946 -1.60228 24
133 2 -13.0869 -7.54193 -7.88905 13
134 2 -15.0333 -5.60767 -5.4541 16
135 2 -12.0282 -10.4276 -5.70296 12
136 2 -12.1897 -7.48767 -5.10212 20
137 2 -15.7073 -6.3446 -2.85933 11
138 2 -12.3864 -11.0512 -2.79862 12
139 2 -14.4271 -8.88559 -5.0001 12
140 2 -12.5123 -7.58411 -1.85556 18
141 2 -12.6248 -2.51895 -11.8401 11
142 2 -12.2577 -5.11519 -10.0852 13
143 2 -14.8015 -3.38049 -7.84872 13
144 2 -12.8696 -1.5048 -8.46145 17
145 2 -15.123 -0.736291 -6.68784 15
146 2 -12.0375 -4.97116 -7.07547 18
147 2 -17.0103 -2.97668 -5.45746 9
148 2 -12.7314 -1.92564 -5.16469 20
149 2 -18.5107 -2.79327 -2.92902 7
150 2 -12.4298 -4.7841 -3.61918 18
151 2 -14.4884 -3.90217 -1.52124 15
152 2 -11.8756 -1.89187 -1.81096 21
153 2 -8.40005 -12.8153 -8.66066 13
154 2 -9.44625 -12.5283 -6.1245 18
155 2 -8.75552 -15.0779 -6.38995 10
156 2 -7.44462 -13.6502 -4.57001 16
157 2 -10.4324 -13.5731 -2.92359 11
158 2 -6.47197 -16.2106 -3.82753 14
159 2 -8.8153 -14.7442 1.53229 14
160 2 -6.91641 -13.6604 -1.63285 18
161 2 -5.97048 -6.74329 -14.8988 11
162 2 -8.98713 -6.64263 -12.9668 15
163 2 -4.851 -10.2614 -12.0046 13
164 2 -8.09136 -9.71517 -10.8102 13
165 2 -5.95394 -7.70959 -11.9351 20
166 2 -9.81059 -6.9103 -9.60539 18
167 2 -5.72647 -12.2598 -8.63261 13
168 2 -9.28328 -10.0423 -7.84172 17
169 2 -6.88601 -7.82265 -8.39538 20
170 2 -8.86286 -6.64999 -6.81845 22
171 2 -6.06493 -10.637 -6.26938 23
172 2 -8.91947 -9.70993 -4.93568 20
173 2 -6.04248 -7.88292 -5.14538 21
174 2 -9.59588 -7.08357 -3.78314 20
175 2 -6.58944 -10.6798 -3.17738 18
176 2 -9.74115 -9.61697 -1.92107 17
177 2 -6.98107 -8.00331 -1.80436 19
178 2 -5.61013 -3.06454 -16.2452 14
179 2 -8.64496 -3.53507 -14.3944 15
180 2 -7.86968 -0.405775 -15.997 14
181 2 -9.94695 -1.06828 -13.3935 17
182 2 -6.55372 -4.57543 -13.4244 17
183 2 -9.99035 -4.05415 -11.924 20
184 2 -7.07423 -2.2 -11.921 20
185 2 -9.82481 -1.03776 -10.2116 20
186 2 -7.37671 -4.99536 -10.1665 21
187 2 -9.22035 -3.68983 -8.43517 19
188 2 -7.15706 -1.57026 -8.59811 20
189 2 -9.85629 -0.767986 -6.7206 20
190 2 -6.3412 -4.75563 -6.83422 22
191 2 -9.87484 -4.1433 -5.21875 20
192 2 -6.90601 -2.24691 -4.98453 21
193 2 -9.48704 -0.937638 -3.70041 19
194 2 -7.07001 -4.77857 -3.52749 21
195 2 -9.69613 -4.31044 -1.68583 21
196 2 -7.57379 -2.0762 -1.94916 23
197 2 -3.11399 -12.0955 -13.791 12
198 2 -3.60799 -12.1274 -10.387 15
199 2 -3.5511 -13.9859 -7.22584 15
200 2 -1.02248 -13.1792 -8.46919 16
201 2 -6.00938 -14.2236 -6.88805 16
202 2 -0.637868 -16.1381 -6.41308 14
203 2 -3.71383 -15.8799 -5.07226 15
204 2 -1.27637 -13.4857 -5.02019 19
205 2 -4.01258 -12.3128 -3.50287 20
206 2 -0.666248 -16.2005 -2.89674 14
207 2 -3.44267 -15.6535 -1.89176 18
208 2 -1.75064 -13.3244 -1.50075 20
209 2 -2.24252 -2.74136 -17.3701 12
210 2 -3.40761 -9.4173 -15.1499 14
211 2 -0.38796 -8.00761 -16.1574 13
212 2 -3.17668 -6.82785 -13.4109 21
213 2 -0.958392 -10.9659 -15.4697 12
214 2 -2.80998 -8.77241 -11.7525 22
215 2 -0.211217 -7.77244 -12.7298 18
216 2 -4.58518 -6.59179 -9.9214 22
217 2 -0.938053 -10.2592 -10.2469 19
218 2 -4.14672 -9.46365 -8.45493 22
219 2 -1.25058 -7.68348 -8.8533 19
220 2 -3.53459 -6.78507 -6.84949 21
221 2 -1.25583 -10.2473 -6.70139 18
222 2 -3.56402 -9.43226 -4.87425 21
223 2 -0.996557 -7.2727 -5.45365 21
224 2 -4.61822 -6.79573 -3.10573 20
225 2 -0.962349 -10.7037 -3.44051 22
226 2 -3.77888 -9.86794 -1.5919 19
227 2 -1.76431 -7.73889 -2.01792 20
228 2 -4.84877 -0.617625 -17.5748 10
229 2 -1.15665 -5.61527 -17.3912 13
230 2 -3.12818 -3.90114 -14.6814 20
231 2 -0.50564 -1.91898 -15.2265 22
232 2 -3.74035 -1.11146 -13.0519 18
233 2 -0.378971 -4.83164 -13.7891 20
234 2 -4.39486 -3.75687 -11.8676 18
235 2 -1.09539 -2.13028 -11.9731 21
236 2 -3.19773 -0.922818 -9.84111 19
237 2 -1.66754 -4.84415 -10.4583 22
238 2 -3.98488 -3.87296 -8.46325 19
239 2 -0.964324 -2.07669 -8.47842 21
240 2 -4.40467 -0.860048 -6.43103 23
241 2 -1.02474 -4.64943 -6.87374 19
242 2 -4.0987 -4.10533 -4.84565 21
243 2 -1.65142 -2.26539 -5.04114 23
244 2 -4.44784 -1.20283 -3.35687 25
245 2 -1.64436 -4.81647 -3.06125 23
246 2 -4.5479 -3.82744 -1.15415 21
247 2 -1.69715 -1.85929 -1.62297 25
248 1 -12.5441 -12.2245 1.18326 12
249 1 -12.2483 -12.6507 5.39823 12
250 1 -12.0807 -6.79991 -0.154057 18
251 1 -16.1311 -8.08432 1.74867 7
252 1 -12.7672 -9.42699 1.79076 17
253 1 -11.8731 -6.75144 3.347 21
254 1 -14.5005 -8.34393 4.38044 12
255 1 -11.5919 -9.51759 5.25974 18
256 1 -12.2531 -6.46778 6.20521 15
257 1 -12.927 -10.0865 8.26265 11
258 1 -12.7151 -6.77402 10.0279 13
259 1 -14.5274 -4.67369 0.30611 17
260 1 -12.2945 -0.820093 -0.190182 20
261 1 -14.6325 -1.63871 1.00453 16
262 1 -11.7535 -3.68693 1.67542 21
263 1 -15.9647 -4.98139 4.48993 10
264 1 -12.7958 -0.735074 3.14823 23
265 1 -15.8386 -2.82345 3.14398 13
266 1 -12.7847 -3.71717 4.5992 19
267 1 -15.3678 -4.67981 9.88218 7
268 1 -12.7991 -1.08659 6.77969 21
269 1 -15.9886 -2.82449 6.93771 10
270 1 -13.1116 -3.60622 8.01611 18
271 1 -12.3523 -1.04352 9.7789 16
272 1 -12.5865 -4.17136 11.8269 12
273 1 -12.1123 -1.69552 13.0069 12
274 1 -6.39861 -12.8548 -0.0200256 18
275 1 -9.8354 -13.4 2.77271 18
276 1 -7.01026 -15.5692 1.85736 16
277 1 -8.81792 -11.004 5.50539 20
278 1 -6.73329 -12.5596 3.14205 20
279 1 -6.93537 -15.2312 4.84382 17
280 1 -6.48569 -12.457 6.70665 20
281 1 -9.7772 -14.2321 5.91768 12
282 1 -6.10558 -12.4574 10.2558 10
283 1 -9.88443 -10.8706 -0.188797 22
284 1 -7.0275 -6.95585 -0.154199 20
285 1 -9.8861 -7.85426 1.8964 22
286 1 -7.19148 -9.54999 1.64992 21
287 1 -9.97913 -10.6463 2.96742 21
288 1 -6.50746 -6.45071 3.47646 20
289 1 -9.13884 -7.45596 5.20604 23
290 1 -6.71693 -9.41691 4.68405 22
291 1 -9.9864 -11.4051 8.42185 15
292 1 -6.03509 -7.15335 6.63906 19
293 1 -10.5565 -8.06053 8.27755 21
294 1 -7.29432 -9.40906 7.94957 20
295 1 -11.8971 -10.0708 11.0987 10
296 1 -6.79109 -6.489 9.81399 19
297 1 -9.81928 -7.68081 12.1716 13
298 1 -8.26085 -9.67596 10.6241 16
299 1 -6.58843 -6.99288 12.5679 17
300 1 -9.51862 -4.74572 0.104756 22
301 1 -6.53374 -0.980782 -0.165452 23
302 1 -9.30873 -1.58439 1.6797 20
303 1 -6.96238 -3.89444 1.52815 19
304 1 -9.29484 -4.39639 3.50574 20
305 1 -7.48041 -0.883744 3.0405 21
306 1 -10.134 -1.90902 4.9333 24
307 1 -6.95571 -3.54039 5.42683 22
308 1 -10.1859 -4.7681 6.91433 19
309 1 -7.14547 -0.994269 6.42539 22
310 1 -9.97446 -2.34094 8.48181 20
311 1 -7.27964 -3.70033 8.35054 20
312 1 -9.25616 -5.06964 10.5091 19
313 1 -6.0456 -1.19945 9.99033 19
314 1 -9.02129 -1.78762 11.3371 21
315 1 -6.30331 -4.02948 11.5423 19
316 1 -10.5251 -4.8897 14.304 9
317 1 -6.37982 -1.40746 13.3527 20
318 1 -9.19361 -2.04449 14.9006 14
319 1 -7.16845 -4.32315 14.7879 15
320 1 -4.5249 -16.0294 -0.16852 16
321 1 -1.2619 -12.4904 0.0981752 20
322 1 -4.32046 -13.5205 1.6389 21
323 1 -1.68892 -15.0719 1.51969 20
324 1 -4.2501 -15.9881 3.14368 19
325 1 -1.78451 -12.4221 3.23531 19
326 1 -3.9733 -13.4754 5.07137 21
327 1 -1.4427 -15.1812 4.93464 18
328 1 -3.84809 -16.2362 6.75091 14
329 1 -0.975192 -12.0064 6.8621 20
330 1 -3.75118 -13.4145 8.34867 17
331 1 -1.22007 -15.6034 8.09001 13
332 1 -1.79291 -12.5593 9.90703 18
333 1 -3.39027 -12.5514 12.1807 11
334 1 0.132159 -12.1917 13.0099 13
335 1 -4.14618 -10.7309 0.213855 23
336 1 -1.27295 -6.70562 -0.208008 22
337 1 -4.50183 -7.51547 1.63543 20
338 1 -1.80509 -9.62739 1.73686 22
339 1 -4.27981 -10.4669 3.63377 22
340 1 -1.14073 -6.84298 3.44474 20
341 1 -3.83607 -7.57939 4.89663 21
342 1 -1.11103 -9.35091 4.93855 20
343 1 -3.71836 -10.3343 6.91324 24
344 1 -1.10526 -6.62753 6.93651 21
345 1 -3.59269 -7.86487 8.23485 21
346 1 -0.697322 -9.31021 8.33654 22
347 1 -4.61923 -10.602 10.2328 17
348 1 -1.01632 -6.86655 10.2064 20
349 1 -3.66486 -7.20515 11.5939 21
350 1 -1.05442 -9.60566 11.7759 19
351 1 -4.7363 -10.1987 13.8026 11
352 1 -1.40478 -6.73618 13.1249 23
353 1 -4.03935 -7.41187 15.056 16
354 1 -1.82173 -9.50745 14.9736 15
355 1 -3.87651 -5.04595 0.206519 22
356 1 -0.713537 -0.771888 0.0248792 22
357 1 -3.42653 -1.78676 1.66944 22
358 1 -1.00192 -4.05071 1.59791 25
359 1 -4.08161 -4.70137 3.38162 19
360 1 -1.55334 -1.01869 3.30353 20
361 1 -4.59617 -1.72326 4.6861 23
362 1 -1.40527 -3.85031 5.08279 21
363 1 -4.37259 -4.52842 6.75587 20
364 1 -1.73581 -1.13924 6.38597 23
365 1 -4.32223 -2.27713 8.0478 21
366 1 -1.36184 -4.19679 8.30092 20
367 1 -3.66607 -5.01487 9.87184 20
368 1 -1.77873 -0.549606 9.57244 20
369 1 -3.80195 -1.91905 11.5926 21
370 1 -1.46612 -3.67927 11.5704 21
371 1 -4.26296 -4.69131 13.2508 22
372 1 -0.823336 -0.827073 13.559 21
373 1 -3.69053 -1.85867 15.1983 21
374 1 -1.69982 -4.14317 14.931 19
375 2 -16.0024 -6.52917 0.415369 11
376 2 -12.241 -10.5398 0.249655 17
377 2 -14.5616 -8.79538 2.33137 10
378 2 -11.6825 -7.77349 1.50422 19
379 2 -15.732 -7.00817 4.19686 10
380 2 -11.6636 -10.7932 3.86366 20
381 2 -12.7219 -7.73194 4.66644 17
382 2 -12.0985 -8.64808 7.31713 15
383 2 -13.2609 -11.3055 6.55087 9
384 2 -11.6342 -10.7832 9.40717 11
385 2 -18.0944 -4.86704 -0.433921 9
386 2 -12.1659 -4.82655 0.149183 16
387 2 -15.7878 -3.41144 1.31068 14
388 2 -12.6811 -1.99081 1.48629 22
389 2 -14.7574 -0.873093 2.99692 17
390 2 -11.9827 -4.85494 3.30369 19
391 2 -14.7404 -3.41305 4.94453 16
392 2 -12.1167 -1.65111 4.66118 20
393 2 -15.1263 -1.04411 6.84963 13
394 2 -12.2364 -4.59963 6.33804 17
395 2 -15.2059 -3.98958 8.2158 9
396 2 -11.9509 -2.17566 8.0848 18
397 2 -13.6888 -5.08743 10.55 8
398 2 -12.5889 -2.42823 11.0808 14
399 2 -12.1073 -13.4222 -0.349333 10
400 2 -6.45146 -15.6027 -0.179431 16
401 2 -8.89066 -12.0262 3.74475 22
402 2 -6.1065 -13.7125 1.70098 22
403 2 -10.5082 -12.3824 1.06807 14
404 2 -10.9703 -13.9186 4.33084 12
405 2 -6.51051 -13.1241 4.99991 19
406 2 -9.56512 -12.6852 6.68558 16
407 2 -8.10768 -15.4707 6.19228 9
408 2 -5.79508 -13.2681 8.63937 11
409 2 -9.61704 -6.98883 0.0629528 22
410 2 -6.32374 -10.5819 0.216838 22
411 2 -9.23187 -9.86831 1.46636 20
412 2 -6.55214 -7.51176 1.75381 20
413 2 -9.96819 -6.41018 3.50381 21
414 2 -6.16944 -10.668 3.34273 23
415 2 -9.28159 -9.33922 4.88646 21
416 2 -6.8435 -7.45359 5.0935 19
417 2 -10.1892 -6.8452 6.79714 16
418 2 -7.37395 -10.5346 6.42639 20
419 2 -9.16416 -9.4576 8.94299 19
420 2 -7.15894 -7.42965 8.14543 21
421 2 -12.0346 -8.44151 10.2745 12
422 2 -6.76519 -10.6315 10.4572 15
423 2 -9.78671 -9.69912 12.2204 9
424 2 -8.0361 -7.43412 11.2153 18
425 2 -11.6796 -3.44969 13.686 11
426 2 -5.10013 -8.18205 12.9432 16
427 2 -10.0307 -6.39676 13.3766 12
428 2 -10.0035 -1.08479 -0.150252 21
429 2 -7.5917 -4.97926 -0.439743 19
430 2 -9.85972 -3.59604 1.80745 19
431 2 -7.10659 -2.05652 1.54707 21
432 2 -9.59907 -1.05028 3.39311 23
433 2 -7.03602 -4.54878 3.49421 20
434 2 -9.17301 -3.98763 5.42219 21
435 2 -6.48435 -1.35846 4.64816 20
436 2 -9.34597 -1.15827 6.82554 22
437 2 -6.40673 -4.41172 6.81222 21
438 2 -9.31128 -4.20079 8.53602 19
439 2 -6.56015 -1.73401 8.08988 23
440 2 -9.94968 -0.914652 9.83885 19
441 2 -7.40453 -4.65441 10.0911 18
442 2 -11.1696 -5.91998 10.6659 13
443 2 -6.95632 -2.06233 11.5216 19
444 2 -9.20101 -0.931859 13.1935 16
445 2 -6.5288 -5.22342 13.3729 19
446 2 -8.8702 -3.92807 14.597 13
447 2 -7.13053 -0.919354 15.5667 16
448 2 -4.35433 -13.2089 -0.310855 21
449 2 -0.695834 -15.9902 0.247455 17
450 2 -3.4235 -15.5879 1.46281 19
451 2 -2.38579 -12.9808 1.50854 23
452 2 -4.06007 -12.242 3.64633 20
453 2 -0.921551 -15.3057 3.11652 18
454 2 -3.97954 -15.4839 5.00864 20
455 2 -1.27875 -13.0829 5.14442 19
456 2 -4.13809 -12.4288 6.62258 18
457 2 -5.76366 -17.083 6.2832 10
458 2 -3.18832 -15.502 8.34284 14
459 2 -1.07828 -13.8796 8.91465 13
460 2 -3.82312 -12.4652 10.0317 15
461 2 -1.47509 -12.4424 12.0206 13
462 2 -3.40588 -6.90743 0.204026 23
463 2 -1.17251 -10.4038 0.0446591 22
464 2 -3.91198 -9.45722 1.85019 21
465 2 -1.03765 -7.9861 1.88637 21
466 2 -4.36468 -6.69218 3.28777 21
467 2 -1.11677 -10.6113 3.50215 19
468 2 -4.47346 -9.41764 5.72265 20
469 2 -1.73224 -7.57397 5.05897 22
470 2 -4.0348 -6.45668 6.61785 22
471 2 -1.49803 -10.1241 6.78079 19
472 2 -3.9474 -9.61312 8.73598 21
473 2 -1.81338 -7.28098 8.53252 21
474 2 -4.61154 -6.76773 9.83614 22
475 2 -0.650233 -10.9291 9.73808 15
476 2 -4.11852 -10.5325 12.1574 16
477 2 -1.91719 -7.99069 11.8524 23
478 2 -3.3708 -6.32301 13.516 20
479 2 -0.967566 -10.6989 13.7247 14
480 2 -3.68591 -9.34134 15.1139 11
481 2 -0.837204 -7.56371 14.8589 19
482 2 -4.52681 -0.958127 -0.00547954 21
483 2 -1.44822 -4.83741 -0.198439 22
484 2 -4.10084 -3.72726 1.62621 20
485 2 -1.20239 -2.00132 1.72728 20
486 2 -3.3884 -0.666347 3.24657 20
487 2 -1.8076 -4.97826 3.27047 22
488 2 -4.14765 -3.79401 5.0227 22
489 2 -0.871245 -2.09343 4.94573 22
490 2 -3.85633 -0.983623 6.46713 23
491 2 -0.931955 -4.82424 6.51339 22
492 2 -3.33493 -3.78721 8.45154 23
493 2 -0.931746 -2.06489 8.4117 22
494 2 -4.06625 -0.867615 9.73846 19
495 2 -1.59844 -4.98677 9.95744 21
496 2 -4.3922 -3.72226 11.4805 21
497 2 -1.89565 -1.60938 11.6604 20
498 2 -4.41849 -1.20981 13.3424 21
499 2 -0.962318 -4.62236 13.2352 20
500 2 -3.56067 -3.84531 14.9455 21
501 2 -1.65263 -1.87541 15.269 22
502 1 -12.7687 2.35725 -11.5327 14
503 1 -11.3427 4.47457 -9.70591 18
504 1 -14.3966 4.13684 -8.38713 14
505 1 -12.5782 2.28336 -8.53611 16
506 1 -14.7365 1.11339 -6.89796 14
507 1 -11.4615 4.63776 -6.59454 19
508 1 -14.5574 4.37577 -5.23844 16
509 1 -12.7337 2.02352 -5.00163 19
510 1 -15.9905 1.51246 -3.85466 14
511 1 -11.5497 5.07418 -3.19576 22
512 1 -15.1318 4.04441 -1.72545 14
513 1 -11.8447 2.02097 -1.97471 22
514 1 -10.5225 12.1764 -8.5551 7
515 1 -12.464 7.79399 -10.2 10
516 1 -12.2994 9.45836 -7.19869 12
517 1 -14.2761 7.41597 -7.00656 11
518 1 -14.525 6.87487 -2.80326 12
519 1 -11.2857 11.1107 -2.76038 13
520 1 -12.0838 7.77149 -4.73742 16
521 1 -11.6077 8.05601 -1.20326 18
522 1 -6.31016 4.14461 -17.0882 11
523 1 -9.03918 4.07726 -14.7523 12
524 1 -8.14325 1.72919 -16.2653 11
525 1 -9.84484 1.03352 -13.0802 18
526 1 -6.40177 4.96363 -13.5234 20
527 1 -8.86788 3.7322 -11.5854 19
528 1 -6.99249 1.71277 -12.0558 18
529 1 -9.86792 1.03108 -9.92167 24
530 1 -6.39958 4.35773 -10.0487 20
531 1 -8.60432 3.68902 -8.07104 22
532 1 -6.53651 1.54005 -8.27401 19
533 1 -9.20487 0.89691 -6.4926 20
534 1 -6.16074 4.75166 -6.48903 20
535 1 -8.99848 3.80133 -4.63669 22
536 1 -6.88521 1.77104 -4.75457 22
537 1 -9.00245 0.605824 -2.96048 20
538 1 -6.39468 4.76851 -3.18416 23
539 1 -8.9026 3.56824 -1.33639 24
540 1 -6.31306 1.86027 -1.64841 22
541 1 -6.32392 7.49764 -15.1096 13
542 1 -11.3143 5.46811 -12.3514 10
543 1 -7.36673 9.67129 -13.0256 10
544 1 -6.6051 10.158 -9.79506 19
545 1 -6.46315 7.57667 -11.446 19
546 1 -9.0686 6.44223 -9.64118 17
547 1 -5.13411 12.149 -12.1441 11
548 1 -9.36494 9.3984 -7.74141 14
549 1 -6.76501 7.15902 -8.13946 22
550 1 -8.66104 6.68908 -6.20093 21
551 1 -6.55229 10.4135 -6.60518 18
552 1 -9.35724 9.41706 -4.79388 21
553 1 -6.00583 7.51028 -4.72025 24
554 1 -9.04582 6.7276 -3.32785 21
555 1 -6.75059 10.5228 -3.62667 20
556 1 -9.39083 9.64781 -1.2639 21
557 1 -6.64586 7.78778 -1.4666 20
558 1 -6.96274 13.6634 -8.40129 13
559 1 -9.37909 14.4732 -6.66921 9
560 1 -5.84001 15.6666 -6.82774 12
561 1 -7.11911 13.199 -5.336 20
562 1 -8.94562 12.6474 -3.25344 13
563 1 -5.84087 16.5653 -3.46817 8
564 1 -9.2247 15.0561 2.15216 12
565 1 -6.22381 13.5938 -1.93621 16
566 1 -4.99738 1.39468 -17.1023 13
567 1 -0.848413 4.49043 -17.0728 12
568 1 -3.41936 4.40319 -15.369 19
569 1 -2.00072 1.36021 -15.4645 16
570 1 -4.13256 0.846075 -13.6663 17
571 1 -0.937782 4.17234 -13.6194 19
572 1 -3.98459 3.524 -11.9613 20
573 1 -1.83763 1.3147 -11.8103 22
574 1 -4.26953 0.742534 -10.2894 21
575 1 -1.08093 4.28035 -10.1408 19
576 1 -4.04209 3.91966 -8.32515 20
577 1 -1.79732 1.43831 -8.21963 21
578 1 -4.14899 1.01204 -6.49256 22
579 1 -1.42873 4.61412 -6.78148 22
580 1 -3.83535 3.69566 -4.60445 21
581 1 -1.23491 1.60074 -4.96021 19
582 1 -3.90863 0.575592 -3.24826 21
583 1 -0.986926 4.69245 -3.27222 22
584 1 -3.49865 3.67704 -1.38859 23
585 1 -1.06519 1.56432 -1.79248 22
586 1 -3.70498 6.7662 -16.8689 12
587 1 -3.98737 9.62802 -14.893 15
588 1 -1.17414 7.57526 -15.8653 16
589 1 -4.14505 6.90574 -13.5962 20
590 1 -0.714277 10.5163 -14.028 16
591 1 -3.54345 9.70873 -11.6854 20
592 1 -1.3546 7.45994 -12.1817 19
593 1 -3.58614 6.19024 -10.2571 21
594 1 -1.21143 10.7836 -10.2085 20
595 1 -3.84472 9.45358 -8.24584 21
596 1 -1.70033 7.38137 -8.4963 20
597 1 -3.62681 6.86008 -6.46858 24
598 1 -1.34723 11.0448 -6.79732 20
599 1 -3.60303 9.64221 -4.71202 21
600 1 -1.12601 7.62025 -4.80689 21
601 1 -3.4718 6.57102 -3.40659 21
602 1 -1.33647 10.4946 -3.25513 22
603 1 -3.8971 9.6453 -1.48749 21
604 1 -0.894078 7.73628 -1.43687 21
605 1 -1.5785 13.2018 -12.0973 13
606 1 -3.98063 12.3974 -9.82749 20
607 1 -3.2792 15.5442 -8.91559 11
608 1 -0.711738 13.5334 -8.57232 18
609 1 -4.22203 12.6676 -6.93273 19
610 1 -0.301082 16.4411 -6.9912 14
611 1 -3.53196 15.2941 -5.12079 17
612 1 -0.773434 13.6654 -5.13449 20
613 1 -4.22113 12.4423 -3.52963 23
614 1 -1.78408 16.5487 -3.14272 11
615 1 -3.77952 15.31 -1.34403 19
616 1 -1.11051 13.6983 -1.79593 23
617 2 -11.9508 1.05666 -12.6021 12
618 2 -12.0751 4.04782 -11.3058 15
619 2 -11.6376 1.70083 -10.1551 17
620 2 -14.6134 2.25779 -8.40468 13
621 2 -12.3548 4.13603 -8.08953 18
622 2 -14.8928 5.61151 -7.2757 11
623 2 -12.2252 1.23771 -7.01041 20
624 2 -15.0305 2.35456 -5.24938 15
625 2 -12.3529 3.96683 -5.00382 21
626 2 -14.8342 5.08001 -3.44496 14
627 2 -12.3252 1.03793 -3.58382 20
628 2 -15.8273 2.16625 -2.07728 12
629 2 -12.6218 4.01579 -1.62222 20
630 2 -10.922 6.63438 -10.3986 12
631 2 -10.7834 10.4833 -8.25402 10
632 2 -13.1448 8.12116 -8.42106 10
633 2 -13.8774 7.52361 -5.29019 14
634 2 -11.601 9.74631 -5.33778 13
635 2 -12.4526 6.85566 -2.74934 17
636 2 -15.4565 7.38028 -0.814279 11
637 2 -11.5912 10.2221 -1.24082 14
638 2 -10.19 12.8531 -1.88404 10
639 2 -6.54904 2.24736 -17.2293 11
640 2 -9.17591 2.23737 -14.5636 15
641 2 -7.09528 4.25191 -15.1655 14
642 2 -9.91259 4.68859 -13.2219 13
643 2 -6.24363 0.386008 -13.0894 18
644 2 -9.09593 1.88007 -11.5433 22
645 2 -6.94079 3.87951 -11.7976 21
646 2 -9.37453 4.5926 -9.75394 20
647 2 -6.35551 0.796452 -10.2403 19
648 2 -8.61439 1.31948 -8.30686 20
649 2 -6.56145 3.73909 -8.279 19
650 2 -9.58534 4.68286 -6.4548 21
651 2 -6.39395 0.750184 -6.46799 18
652 2 -9.08356 1.87051 -4.68699 22
653 2 -6.88657 3.73473 -4.89935 22
654 2 -9.41268 4.66548 -3.12463 20
655 2 -7.16461 0.77338 -2.9207 22
656 2 -9.95996 1.90417 -1.60148 23
657 2 -6.92569 3.6876 -1.37133 21
658 2 -5.85641 6.75401 -13.1365 17
659 2 -6.61778 9.54179 -11.5475 13
660 2 -4.0372 10.7157 -13.2333 16
661 2 -8.94762 13.4299 -8.68396 9
662 2 -7.01643 6.34 -9.89588 21
663 2 -9.20824 7.73271 -8.37697 18
664 2 -6.28385 9.12524 -8.21606 20
665 2 -8.43652 10.2409 -6.32127 20
666 2 -6.94811 6.46849 -6.18313 23
667 2 -9.9816 7.41909 -4.87157 21
668 2 -6.18953 9.36797 -5.0416 23
669 2 -9.28463 10.8496 -3.40555 18
670 2 -7.2102 6.77364 -2.95114 24
671 2 -9.82607 7.58825 -1.41308 21
672 2 -6.59522 9.55432 -2.13713 22
673 2 -5.90288 12.7399 -9.8137 14
674 2 -6.1159 12.2131 -6.66071 23
675 2 -7.54733 15.0781 -6.87111 9
676 2 -9.17287 13.4718 -4.89454 11
677 2 -5.55986 16.3308 -5.26947 9
678 2 -6.33084 12.479 -3.46934 17
679 2 -8.94952 13.4472 1.32381 14
680 2 -6.30676 15.64 -1.88155 11
681 2 -4.976 5.26483 -16.964 13
682 2 -1.62216 0.0860751 -16.8886 13
683 2 -3.98631 1.91335 -15.3261 17
684 2 -1.73617 3.39349 -15.1583 18
685 2 -4.10378 4.64564 -13.4671 20
686 2 -1.28341 0.8409 -13.693 17
687 2 -3.91268 1.45724 -11.9209 20
688 2 -1.7695 3.47543 -11.8917 20
689 2 -4.3528 4.37283 -10.2867 19
690 2 -0.729657 0.968749 -10.3084 19
691 2 -3.9596 1.39796 -8.48513 18
692 2 -1.97527 3.46911 -8.43345 18
693 2 -4.2528 4.95651 -6.38437 21
694 2 -0.839533 0.679808 -6.58431 20
695 2 -4.24025 1.83997 -4.5726 20
696 2 -1.71331 3.63446 -5.14857 23
697 2 -4.57726 4.96964 -3.47943 23
698 2 -1.83329 0.861608 -3.3699 25
699 2 -4.39214 1.84912 -1.65536 21
700 2 -1.49823 3.66117 -1.46781 20
701 2 -1.97277 6.0757 -16.9575 13
702 2 -4.51297 7.77846 -15.4544 16
703 2 -1.79883 9.49204 -15.2013 15
704 2 -7.55015 8.19111 -14.1151 9
705 2 -1.01719 6.47324 -14.1069 22
706 2 -3.54841 7.5565 -11.8997 18
707 2 -1.50183 9.48459 -12.0364 18
708 2 -4.55678 10.7519 -10.4744 18
709 2 -1.49825 6.0639 -9.75489 18
710 2 -3.95912 7.60056 -8.50506 21
711 2 -1.6029 9.62625 -8.55516 20
712 2 -3.15809 10.436 -6.54995 22
713 2 -1.3511 6.73725 -6.68953 20
714 2 -3.84952 7.83299 -4.80121 20
715 2 -0.564239 9.89849 -4.91517 20
716 2 -3.33691 10.7353 -2.98297 20
717 2 -1.58634 6.52356 -3.2899 25
718 2 -3.94754 7.6242 -1.89711 20
719 2 -0.956772 9.90547 -1.53258 22
720 2 -0.786347 12.2528 -13.4521 13
721 2 -3.44365 12.9108 -11.5451 13
722 2 -0.559896 12.8121 -10.2826 18
723 2 -2.72746 12.9752 -8.46856 20
724 2 -1.61365 15.8054 -8.2069 13
725 2 -4.55366 14.7784 -7.72637 14
726 2 -0.363422 12.675 -6.67008 21
727 2 -3.85358 13.3196 -5.18666 20
728 2 -0.671419 15.5822 -4.99171 16
729 2 -3.62733 16.0232 -3.39303 15
730 2 -0.730931 12.5443 -3.43351 20
731 2 -4.11632 13.344 -1.8091 21
732 2 -1.7964 15.4874 -1.56637 18
733 1 -15.2494 1.25633 -0.403748 15
734 1 -12.1381 4.87852 0.0353223 19
735 1 -14.8725 4.05952 1.57146 16
736 1 -12.7914 2.11189 1.589 20
737 1 -15.1143 1.04455 3.22913 15
738 1 -11.9596 4.75841 3.50807 20
739 1 -15.0054 3.60128 5.24914 15
740 1 -12.7957 1.6063 5.07701 22
741 1 -15.6343 0.68798 6.64826 12
742 1 -12.2954 4.83942 6.92882 21
743 1 -15.4898 3.139 8.5671 11
744 1 -12.9911 1.99733 8.36921 20
745 1 -12.7881 5.06116 10.2731 12
746 1 -12.6811 1.67253 11.5966 12
747 1 -16.2652 6.53548 0.623695 10
748 1 -12.3992 10.8305 0.758513 15
749 1 -15.5058 8.60385 0.919657 8
750 1 -12.9472 7.62604 2.00168 20
751 1 -15.4662 6.65155 3.95027 14
752 1 -12.9428 11.3154 4.02313 10
753 1 -12.4485 7.8282 5.16731 18
754 1 -15.4436 6.70146 6.92988 12
755 1 -14.8634 9.16797 6.31935 9
756 1 -12.6802 7.42765 8.28837 14
757 1 -9.59492 1.07204 0.176546 21
758 1 -6.33374 4.95694 0.0633248 23
759 1 -9.25711 3.81253 1.6172 22
760 1 -7.1983 1.91543 1.37489 19
761 1 -10.3099 0.957831 3.32545 20
762 1 -7.40046 5.10001 3.26273 19
763 1 -9.80695 3.90206 5.20833 23
764 1 -7.36437 1.95703 4.78157 22
765 1 -10.0187 0.727786 6.62479 23
766 1 -7.02831 4.84072 6.58366 21
767 1 -9.37482 3.95486 8.30805 21
768 1 -7.1909 1.70081 7.97826 21
769 1 -10.1635 1.05119 9.6607 21
770 1 -6.93621 4.26969 9.92398 22
771 1 -9.99657 3.73421 11.353 21
772 1 -7.15651 1.88555 11.6748 23
773 1 -10.1502 0.958545 13.0585 18
774 1 -6.33859 4.91183 13.3613 20
775 1 -9.04332 3.74147 14.6007 14
776 1 -7.48367 0.989298 15.2403 16
777 1 -9.54229 6.33469 0.453447 21
778 1 -6.70954 10.6455 -0.336539 19
779 1 -10.3664 9.15518 1.52641 18
780 1 -6.8433 7.69274 1.86508 20
781 1 -10.1597 6.86149 3.33804 20
782 1 -7.40943 10.3341 3.7118 21
783 1 -10.4401 9.99793 5.0551 20
784 1 -7.26696 7.75571 5.46542 23
785 1 -10.0391 6.49155 6.6469 23
786 1 -7.58866 10.8859 6.72587 18
787 1 -9.72995 9.7245 8.74621 17
788 1 -7.32045 7.89024 8.39127 22
789 1 -9.92594 6.78624 9.83834 18
790 1 -6.4773 10.1748 10.2341 17
791 1 -9.37284 9.37043 11.5007 12
792 1 -6.56335 7.35442 11.5198 20
793 1 -9.57035 6.50223 12.9885 14
794 1 -5.90203 11.6201 12.6075 11
795 1 -7.57331 6.97611 15.1036 13
796 1 -9.83445 12.4575 -0.058944 16
797 1 -6.55774 15.6064 0.0466359 14
798 1 -9.47376 15.9192 5.16309 10
799 1 -7.20984 12.6678 1.54806 18
800 1 -10.3768 12.7797 3.52683 16
801 1 -6.73522 16.3245 3.35637 12
802 1 -7.50343 13.164 4.70479 20
803 1 -10.0397 12.5997 6.57547 13
804 1 -6.84848 14.9913 6.83781 13
805 1 -8.96543 12.2842 10.6384 7
806 1 -3.78779 0.845256 3.66305e-04 22
807 1 -0.960924 4.86501 0.127979 21
808 1 -3.54287 3.86634 1.75661 17
809 1 -1.42262 1.31712 1.52069 23
810 1 -4.75327 0.702161 2.77873 20
811 1 -1.27478 4.80882 3.31088 19
812 1 -3.60898 4.01733 5.0386 16
813 1 -1.59987 1.93837 5.10589 22
814 1 -4.55864 0.850164 6.35022 21
815 1 -0.780073 4.95978 6.57967 20
816 1 -3.55883 3.87682 8.25085 20
817 1 -1.68643 1.95745 7.97573 21
818 1 -4.46155 0.983505 9.696 21
819 1 -1.53583 5.02826 9.75411 18
820 1 -3.9852 3.74715 11.6029 20
821 1 -1.75356 1.92595 11.7686 20
822 1 -4.50188 0.904835 13.1733 21
823 1 -1.46324 4.78994 13.3746 21
824 1 -3.87918 4.2877 15.3501 19
825 1 -2.2583 1.81397 15.0393 20
826 1 -3.76913 6.79288 -0.0338426 21
827 1 -1.61458 10.8958 -0.00141704 24
828 1 -4.30193 9.59436 1.8796 20
829 1 -0.654854 7.56162 1.80109 20
830 1 -4.76427 6.70066 3.23203 21
831 1 -1.54316 10.0799 3.25291 20
832 1 -4.39474 9.71051 4.90437 22
833 1 -1.60302 7.77323 4.89154 21
834 1 -4.62793 6.94311 6.45983 20
835 1 -1.81676 10.3002 6.62365 23
836 1 -4.50342 9.71124 8.22268 18
837 1 -1.8983 7.96378 8.10794 21
838 1 -4.39642 6.90955 9.73577 22
839 1 -1.1107 10.3321 10.1723 18
840 1 -3.78203 9.4887 12.1577 18
841 1 -1.1641 7.7704 11.5147 22
842 1 -3.49499 7.04714 13.2891 23
843 1 -1.17739 9.99552 13.518 17
844 1 -4.78049 9.08487 15.3372 11
845 1 -1.93321 7.49765 15.5622 20
846 1 -4.03196 12.6597 -0.0656519 21
847 1 -1.60401 16.4191 0.139871 16
848 1 -4.10965 15.3322 2.17536 17
849 1 -1.76787 13.3435 1.73896 24
850 1 -4.28117 12.613 3.51514 21
851 1 -0.941931 15.7707 3.57344 15
852 1 -3.93371 14.9846 5.38334 20
853 1 -1.60577 13.001 4.95458 22
854 1 -4.56447 12.5757 6.81178 21
855 1 -1.38751 16.3253 6.77409 12
856 1 -3.89055 15.1132 8.75991 10