ITEM: TIMESTEP
38000
ITEM: NUMBER OF ATOMS
2000
ITEM: BOX BOUNDS pp pp pp
-30.0 30.0
-30.0 30.0
-30.0 30.0
ITEM: ATOMS id type x y z Coordination
1 1 -17.9934 -6.88866 -4.09718 8
2 1 -17.9513 -5.51777 -0.817936 9
3 1 -17.0381 -4.34707 2.19881 9
4 2 -15.0157 -0.387519 -2.54135 16
5 2 -14.2874 -1.11569 -0.446822 16
6 2 -16.0373 -2.8971 2.16234 12
7 1 -6.02907 -18.4693 7.46878 8
8 1 -0.827867 -18.5606 3.51513 10
9 1 -2.92479 -17.8398 6.5178 12
10 2 -5.85464 -16.9116 3.52095 12
11 2 -2.62333 -18.3186 4.69192 11
12 2 0.911183 -18.0111 4.456 11
13 2 0.352936 -1.46533 -17.0272 15
14 1 -1.27903 -2.37312 -17.2366 13
15 1 3.84372 -3.44552 -19.099 6
16 2 2.08828 -4.37115 -18.6736 7
17 1 -11.0061 -12.4661 -3.07847 14
18 1 -11.9437 -5.54622 -10.8915 10
19 1 -10.8767 -9.60827 -5.92368 15
20 1 -12.4348 -7.10583 -7.07587 15
21 1 -14.8758 -7.62508 -5.4068 12
22 1 -13.356 -10.0817 -3.6552 13
23 1 -11.5263 -6.85271 -3.19123 22
24 1 -14.7389 -7.99934 -1.88962 14
25 1 -11.8492 -9.43288 -0.975091 19
26 1 -11.8493 -0.295656 -12.8094 13
27 1 -12.8007 -2.04841 -10.2238 14
28 1 -14.3398 0.302952 -10.0702 14
29 1 -15.6696 -1.76699 -7.58187 12
30 1 -12.9835 -3.74388 -8.14698 17
31 1 -15.6614 -5.04325 -6.31177 13
32 1 -13.0367 -0.796608 -6.97801 17
33 1 -14.3952 -2.0226 -4.79368 15
34 1 -12.8367 -4.40893 -5.14033 18
35 1 -15.0199 -4.79989 -2.96596 18
36 1 -11.7244 -0.898449 -3.48988 20
37 1 -13.8335 -2.12378 -2.14959 17
38 1 -11.5356 -3.81827 -2.11774 24
39 1 -7.60112 -15.4434 -7.71036 9
40 1 -10.3144 -14.622 -4.83002 7
41 1 -6.4334 -12.5749 -6.84908 18
42 1 -7.15399 -12.4434 -3.42973 19
43 1 -7.0689 -15.5758 -4.76676 13
44 1 -4.58962 -10.6471 -3.81763 18
45 1 -9.31394 -13.2932 1.5081 19
46 1 -6.22991 -15.4524 -1.69882 13
47 1 -7.07778 -7.10067 -13.537 12
48 1 -10.2591 -7.62008 -11.7926 10
49 1 -7.91746 -9.5284 -11.672 10
50 1 -6.85754 -12.2048 -9.91086 13
51 1 -6.65642 -6.38463 -9.93606 22
52 1 -9.40989 -7.59087 -8.80661 19
53 1 -6.54865 -9.52564 -8.45637 19
54 1 -12.8043 -12.4276 -5.87663 7
55 1 -6.62069 -6.31152 -6.86526 22
56 1 -8.70302 -7.37539 -5.14038 21
57 1 -7.37833 -9.90296 -5.36976 19
58 1 -9.88581 -9.90569 -3.01628 20
59 1 -5.97704 -6.2173 -3.72488 21
60 1 -9.27706 -7.39984 -1.87594 20
61 1 -6.56036 -9.42778 -2.03247 17
62 1 -7.62272 -1.12149 -16.7099 12
63 1 -9.27268 -1.15015 -14.6962 12
64 1 -7.69463 -4.1525 -14.9887 15
65 1 -11.2017 -4.52705 -13.2212 10
66 1 -6.84023 -1.08941 -13.1102 22
67 1 -9.46779 -2.01025 -11.6646 19
68 1 -6.58662 -3.76647 -11.8437 21
69 1 -9.21824 -4.69383 -10.2776 20
70 1 -7.24679 -0.395224 -9.64032 19
71 1 -10.1352 -1.52302 -8.33921 19
72 1 -7.18847 -3.48474 -8.42336 21
73 1 -9.63925 -4.60897 -6.99159 21
74 1 -6.48888 -0.251728 -6.82385 21
75 1 -9.01661 -1.41691 -5.74276 21
76 1 -6.56559 -3.42882 -5.47365 22
77 1 -8.88732 -4.64793 -3.65908 20
78 1 -6.04252 -0.939963 -3.66219 23
79 1 -8.81086 -1.81017 -2.15933 23
80 1 -6.12758 -3.8442 -1.81525 24
81 1 -0.264306 -12.6989 -16.3871 7
82 1 -1.0529 -12.4547 -13.3682 14
83 1 -1.40774 -12.7766 -9.96951 17
84 1 -4.69537 -14.0088 -8.60889 16
85 1 -1.00694 -15.413 -8.06118 13
86 1 -4.03446 -16.5015 -6.83345 11
87 1 -0.71612 -12.2847 -6.65776 21
88 1 -4.21976 -13.7584 -5.1613 20
89 1 -1.58008 -15.5282 -4.99315 19
90 1 -4.01148 -16.3444 -3.29943 15
91 1 -1.61164 -12.3788 -3.40104 24
92 1 -3.71712 -13.187 -1.61458 21
93 1 -1.48624 -15.4176 -1.47984 16
94 1 -1.36584 -6.95874 -16.5355 15
95 1 -4.50615 -7.40812 -15.363 16
96 1 -2.05563 -9.65279 -15.9434 14
97 1 -3.88553 -10.7229 -13.8864 9
98 1 -1.60285 -6.92259 -13.5208 22
99 1 -3.79707 -7.98004 -11.8175 19
100 1 -1.26766 -9.81471 -11.7885 19
101 1 -3.93609 -10.9861 -10.1303 18
102 1 -0.833281 -6.78722 -10.2223 23
103 1 -3.51361 -7.74764 -8.58289 21
104 1 -0.926769 -9.5286 -8.56584 21
105 1 -3.93091 -10.6513 -6.77556 22
106 1 -1.28434 -6.73384 -6.761 22
107 1 -4.60973 -7.9602 -5.62971 20
108 1 -1.41695 -9.58706 -5.25143 23
109 1 -2.97774 -8.66155 -2.87832 21
110 1 -1.2355 -6.40528 -3.81012 21
111 1 -3.18494 -6.09312 -1.47173 19
112 1 -0.6765 -9.03784 -1.53184 21
113 1 -4.7052 -1.99297 -15.4606 20
114 1 -3.94759 -4.50897 -16.9925 13
115 1 -4.90183 -1.76792 -18.2768 10
116 1 -2.25374 -4.66505 -15.3511 18
117 1 -4.94389 -4.8257 -13.5078 21
118 1 -1.87919 -1.03686 -13.7907 20
119 1 -4.08065 -2.15439 -11.7757 19
120 1 -1.07332 -4.07704 -12.0915 20
121 1 -3.72355 -5.2444 -10.2131 22
122 1 -1.93998 -0.742192 -10.3234 18
123 1 -4.31653 -2.20369 -8.4978 22
124 1 -1.22674 -4.04674 -8.56849 20
125 1 -4.03152 -4.84383 -6.82479 20
126 1 -1.27719 -0.894048 -6.88791 21
127 1 -3.88731 -1.74909 -4.97152 21
128 1 -1.1757 -3.44092 -5.02178 21
129 1 -3.66767 -4.32251 -3.41039 20
130 1 -1.55133 -0.556384 -3.36713 20
131 1 -3.79278 -1.70857 -1.6992 23
132 1 -1.19412 -3.10364 -1.45228 22
133 2 -11.7608 -5.19588 -6.79014 18
134 2 -16.3336 -6.28162 -4.93601 12
135 2 -12.6584 -10.5102 -5.51148 12
136 2 -14.2159 -6.24428 -6.48053 12
137 2 -15.5177 -6.28081 -1.61092 16
138 2 -11.538 -10.5759 -2.83596 18
139 2 -14.2517 -8.16061 -3.55895 15
140 2 -11.2739 -7.77498 -1.60812 20
141 2 -13.1816 -0.956302 -11.6501 12
142 2 -12.5677 -3.82162 -10.072 15
143 2 -14.8573 -3.43503 -7.00226 15
144 2 -14.4176 -1.14803 -8.93725 13
145 2 -14.8565 -0.620068 -6.04496 16
146 2 -12.0105 -2.06774 -7.93278 20
147 2 -14.7861 -3.66447 -4.34721 16
148 2 -12.3553 -1.97658 -4.67252 20
149 2 -18.4671 -6.17438 -2.36539 6
150 2 -12.3969 -5.29277 -3.63744 22
151 2 -14.852 -3.46903 -1.07145 16
152 2 -11.7474 -2.00673 -1.63411 19
153 2 -6.93789 -13.6941 -8.56029 11
154 2 -11.2014 -13.1863 -5.41185 9
155 2 -8.7899 -15.2988 -5.69771 11
156 2 -6.33628 -13.5576 -5.05452 20
157 2 -9.08538 -12.4387 -3.21892 16
158 2 -5.82563 -16.5886 -3.35783 13
159 2 -8.97097 -16.0953 3.61922 11
160 2 -6.56657 -13.6352 -1.23298 15
161 2 -6.42392 -7.25799 -15.3947 10
162 2 -11.4495 -6.45209 -13.1347 7
163 2 -4.07968 -10.2662 -12.0247 16
164 2 -7.31763 -10.5813 -10.2041 12
165 2 -8.23056 -7.86707 -12.1277 12
166 2 -10.2222 -6.37931 -10.1634 18
167 2 -4.43735 -12.5175 -6.89412 19
168 2 -11.0832 -8.58652 -7.76545 10
169 2 -7.37649 -7.78206 -8.1654 19
170 2 -9.01669 -6.43707 -6.76339 20
171 2 -7.09636 -10.7781 -7.09279 15
172 2 -9.31824 -9.58917 -4.79351 19
173 2 -6.60121 -7.71803 -5.05051 19
174 2 -9.64772 -6.61919 -3.68241 20
175 2 -6.43613 -10.1675 -3.82699 21
176 2 -8.52839 -9.0943 -1.55626 19
177 2 -6.52627 -7.16061 -2.27641 21
178 2 -7.35455 -2.30684 -15.3429 18
179 2 -9.60029 -3.48772 -14.0031 13
180 2 -8.46314 0.14503 -15.6763 12
181 2 -9.94489 -0.509638 -13.099 18
182 2 -6.88412 -4.98459 -13.3732 17
183 2 -10.3997 -3.74633 -11.6153 19
184 2 -7.10704 -2.09438 -11.4241 21
185 2 -9.50699 -0.654756 -10.206 19
186 2 -7.0313 -4.62256 -9.98871 21
187 2 -9.1314 -3.45589 -8.50718 22
188 2 -6.09323 -1.65415 -8.57481 21
189 2 -9.33019 -0.231817 -7.26566 20
190 2 -5.83319 -4.31001 -7.30368 20
191 2 -8.69932 -3.43712 -5.43657 19
192 2 -6.93236 -1.38518 -5.37911 22
193 2 -9.81726 -0.654663 -3.61848 21
194 2 -7.07805 -4.65684 -3.5068 24
195 2 -9.65451 -3.55803 -2.16654 20
196 2 -6.71864 -2.04391 -2.12088 21
197 2 -2.22679 -11.2429 -14.2516 11
198 2 -4.89148 -12.4293 -9.7945 14
199 2 -2.86184 -15.4477 -7.92122 12
200 2 -0.363354 -13.8128 -8.56637 14
201 2 -6.21491 -16.1339 -6.50248 13
202 2 0.0842131 -16.1311 -6.63492 13
203 2 -3.59958 -15.5853 -5.12044 16
204 2 -0.620269 -13.816 -5.52136 20
205 2 -3.67009 -12.4891 -3.73499 22
206 2 -0.742618 -16.1584 -3.32891 16
207 2 -3.46614 -15.3663 -1.62453 18
208 2 -1.48859 -13.5617 -1.63146 21
209 2 -5.46661 -3.59491 -17.8131 10
210 2 -3.68222 -9.06292 -14.9262 14
211 2 -0.820458 -10.9333 -16.9616 9
212 2 -5.11316 -6.75841 -13.4206 19
213 2 3.30681 -10.783 -14.9333 9
214 2 -1.77043 -7.93659 -11.8726 21
215 2 -0.876625 -8.24433 -15.1567 18
216 2 -4.65864 -7.1023 -10.2506 19
217 2 -1.74737 -10.9712 -9.84642 19
218 2 -4.47534 -9.52008 -8.48141 21
219 2 -1.62942 -7.70425 -8.49273 23
220 2 -3.85508 -6.70283 -6.53149 22
221 2 -1.50252 -10.6242 -6.98684 21
222 2 -3.46316 -9.45077 -4.93091 21
223 2 -1.26198 -7.68739 -4.92996 18
224 2 -3.97877 -6.48232 -3.61658 20
225 2 -1.25435 -10.3735 -2.79149 20
226 2 -4.36091 -10.0135 -1.98558 18
227 2 -1.65405 -7.35548 -2.25348 19
228 2 -5.01306 -0.627286 -16.5627 17
229 2 -3.09406 -6.40834 -16.466 16
230 2 -4.60415 -3.93255 -15.1457 21
231 2 -2.07867 -2.39218 -15.3249 19
232 2 -4.90983 -1.41096 -13.5033 18
233 2 -1.3164 -5.15467 -13.5369 20
234 2 -4.49483 -4.08222 -11.5489 20
235 2 -1.90206 -2.13942 -11.6803 19
236 2 -3.80994 -0.867375 -9.95195 20
237 2 -0.980029 -4.9124 -10.2422 21
238 2 -3.4658 -4.47399 -8.5844 23
239 2 -0.890809 -1.94561 -8.52889 21
240 2 -4.18812 -0.927521 -6.88941 21
241 2 -1.3103 -4.71737 -6.43731 20
242 2 -4.51766 -3.66408 -5.03155 23
243 2 -1.9232 -1.83312 -4.95444 21
244 2 -3.72847 -0.469097 -3.53449 19
245 2 -1.99637 -4.10021 -3.10844 20
246 2 -4.18583 -3.62848 -1.03632 20
247 2 -1.67737 -1.09305 -1.46994 19
248 1 -11.2619 -15.011 -0.495348 6
249 1 -11.9544 -13.0071 4.64205 13
250 1 -11.9637 -7.00951 0.0609293 20
251 1 -14.3455 -9.25473 1.45144 13
252 1 -12.4707 -11.964 1.47093 13
253 1 -12.5493 -6.71729 2.66091 20
254 1 -12.0481 -9.74762 3.43124 17
255 1 -9.79189 -11.2291 5.61906 20
256 1 -12.789 -7.29147 6.38018 19
257 1 -11.8566 -10.0652 7.76684 12
258 1 -10.9836 -8.04951 13.3604 7
259 1 -14.4175 -5.37493 -0.269673 20
260 1 -11.8687 -1.03142 0.0246259 20
261 1 -15.3658 -2.26119 0.646434 15
262 1 -11.7403 -3.81038 1.42314 16
263 1 -15.3909 -6.07172 3.19015 12
264 1 -12.6299 -1.11643 3.74011 19
265 1 -15.3849 -2.59112 4.04386 14
266 1 -12.4905 -3.89391 4.32162 20
267 1 -14.2091 -7.07041 8.85722 10
268 1 -12.8854 -1.20608 6.69563 20
269 1 -14.7398 -4.97388 6.29407 14
270 1 -12.4827 -4.0668 8.65179 19
271 1 -12.666 -1.22909 10.5208 17
272 1 -11.7422 -6.48003 10.7241 14
273 1 -13.2863 -1.09584 13.6565 7
274 1 -6.34965 -12.6402 0.546748 18
275 1 -10.672 -15.5236 2.88529 9
276 1 -5.55921 -15.7314 1.96392 16
277 1 -6.8781 -13.1071 7.27474 18
278 1 -6.47074 -12.9061 3.8019 19
279 1 -7.68068 -17.2662 4.05818 10
280 1 -6.02431 -15.905 5.72911 17
281 1 -8.97499 -14.0823 4.76416 17
282 1 -4.27905 -13.122 8.86463 19
283 1 -8.97584 -10.3693 0.170032 17
284 1 -6.87134 -6.81594 -0.255191 19
285 1 -9.31794 -7.79465 1.44636 23
286 1 -6.39572 -9.40702 1.99819 20
287 1 -9.16711 -10.7984 3.13201 23
288 1 -7.21206 -6.96083 3.60995 22
289 1 -9.78929 -8.00043 4.80058 23
290 1 -6.65692 -10.0579 5.304 21
291 1 -10.6797 -12.8642 7.95951 10
292 1 -7.53521 -6.76733 6.75614 24
293 1 -10.3951 -7.73402 8.14075 21
294 1 -7.91491 -9.72903 8.15816 23
295 1 -10.0887 -10.6318 10.6322 12
296 1 -6.52191 -7.01036 10.2262 19
297 1 -8.70483 -8.35291 11.2614 16
298 1 -6.44185 -11.0696 10.6594 12
299 1 -6.44619 -7.39808 13.8045 11
300 1 -8.94156 -4.40266 -0.0896133 22
301 1 -6.76938 -0.693743 -0.276016 20
302 1 -8.76725 -2.01114 1.56535 19
303 1 -6.14785 -4.2111 1.66553 20
304 1 -9.32433 -4.8444 3.23645 18
305 1 -6.63686 -0.611909 3.61508 19
306 1 -9.41984 -2.21398 4.69102 20
307 1 -7.01208 -3.848 5.0695 19
308 1 -10.39 -5.24578 6.21023 19
309 1 -7.45072 -1.31291 7.08187 20
310 1 -10.3932 -2.35966 8.17217 21
311 1 -6.48359 -4.03417 8.48554 22
312 1 -9.36887 -5.08235 9.8738 22
313 1 -6.88511 -1.19227 10.1745 19
314 1 -9.46197 -2.22698 11.739 20
315 1 -6.61659 -3.95878 11.5591 19
316 1 -11.8679 -4.31735 12.6096 11
317 1 -7.48971 -1.76868 13.4682 23
318 1 -9.76421 -1.93648 15.4361 10
319 1 -8.35024 -4.92844 14.7795 8
320 1 -3.74254 -16.3524 -0.0729274 13
321 1 -0.804656 -12.3905 -0.186187 19
322 1 -4.06374 -13.36 2.21567 21
323 1 -1.22652 -15.3962 1.73806 18
324 1 -3.78242 -16.7941 3.93057 18
325 1 -1.73762 -12.2203 3.33286 19
326 1 -4.00478 -13.6859 5.64472 19
327 1 -0.847988 -15.5453 4.99586 20
328 1 -1.74414 -15.5517 8.32276 16
329 1 -1.67578 -12.2513 7.45743 20
330 1 -4.58457 -15.9556 8.37418 15
331 1 2.34199 -16.8425 9.00089 7
332 1 -1.29451 -13.4371 10.5769 16
333 1 -3.44885 -13.2399 12.6516 12
334 1 0.128208 -13.4946 13.1193 10
335 1 -3.57895 -10.4367 0.0733441 17
336 1 -0.584815 -6.0077 0.0497427 22
337 1 -4.28186 -7.59488 1.65843 19
338 1 -1.47013 -9.05152 1.82916 19
339 1 -4.25544 -10.4106 3.73197 20
340 1 -1.65394 -6.56818 3.58774 20
341 1 -4.66017 -7.74285 5.13614 22
342 1 -1.58599 -9.64354 5.33091 22
343 1 -4.47535 -10.7169 6.93609 24
344 1 -2.08225 -6.67014 7.19116 19
345 1 -4.79606 -7.65432 8.4953 22
346 1 -1.602 -9.65188 8.53622 20
347 1 -3.71002 -10.4137 10.0868 20
348 1 -0.940678 -6.84568 10.3685 20
349 1 -3.94239 -7.83676 12.1765 17
350 1 -1.30863 -9.54889 11.3148 20
351 1 -4.09276 -10.6814 14.036 11
352 1 -0.745569 -7.21845 13.5466 20
353 1 -3.49792 -8.07434 15.7039 10
354 1 -1.33092 -10.9474 15.7836 8
355 1 -3.4224 -4.64852 0.654168 22
356 1 -1.73313 -0.529228 0.233237 20
357 1 -4.15156 -1.8094 1.96668 19
358 1 -1.01752 -3.60053 1.89161 20
359 1 -4.19341 -5.09416 3.69738 22
360 1 -1.34959 -0.83349 3.47215 20
361 1 -4.61176 -1.61168 5.40513 21
362 1 -1.59938 -3.5231 5.09282 20
363 1 -4.49848 -4.81482 6.97217 18
364 1 -1.56058 -1.00349 6.93455 20
365 1 -3.76936 -2.13027 8.80976 21
366 1 -1.01525 -3.48084 8.60905 20
367 1 -3.8104 -4.94966 10.4347 21
368 1 -1.18171 -0.890579 10.3122 20
369 1 -4.03628 -2.24887 12.1683 21
370 1 -0.972207 -4.15815 11.7494 22
371 1 -5.28028 -4.02864 14.3385 16
372 1 -1.39466 -1.07187 13.4403 21
373 1 -4.05417 -1.3123 15.4613 19
374 1 -2.02062 -4.93359 14.9463 14
375 2 -13.8359 -9.0821 -0.385991 15
376 2 -10.9955 -10.8334 0.557217 20
377 2 -13.4589 -10.7931 2.15673 10
378 2 -11.31 -8.00849 1.64559 21
379 2 -14.1846 -7.60242 2.67313 15
380 2 -10.7237 -11.2098 3.86616 18
381 2 -11.6762 -8.06693 4.96767 18
382 2 -12.7652 -8.2462 8.02657 13
383 2 -11.596 -12.3828 6.3661 11
384 2 -11.0113 -11.2888 9.11446 12
385 2 -17.9501 -5.02776 0.830318 10
386 2 -12.4116 -5.18566 0.20074 20
387 2 -15.4006 -5.53897 1.56696 15
388 2 -11.9911 -1.79559 1.98506 20
389 2 -14.5005 -1.1295 3.23416 15
390 2 -11.4379 -5.06785 3.14999 20
391 2 -14.3688 -4.53783 4.17514 18
392 2 -12.2588 -2.24963 5.2102 23
393 2 -15.2223 -2.64638 6.13579 14
394 2 -12.3599 -5.18333 6.2309 21
395 2 -14.8144 -6.54154 7.14663 8
396 2 -12.8316 -2.36697 8.24588 16
397 2 -13.0792 -5.74933 9.40628 16
398 2 -10.6509 -3.83166 11.4142 17
399 2 -11.243 -14.0151 -1.91638 8
400 2 -5.44318 -15.7858 0.0313403 14
401 2 -8.60411 -13.2326 3.09016 18
402 2 -5.8548 -13.4895 2.06271 16
403 2 -10.9252 -15.3789 1.15215 8
404 2 -11.1372 -13.8888 3.37605 13
405 2 -5.88326 -14.0271 5.35145 23
406 2 -8.7914 -12.9355 6.25321 19
407 2 -6.94281 -17.565 5.65537 11
408 2 -5.87988 -14.8134 7.65792 15
409 2 -8.7992 -6.16662 -0.456658 24
410 2 -8.33586 -12.1531 0.234254 16
411 2 -8.42189 -9.46441 1.71458 20
412 2 -6.05924 -7.45046 1.50869 19
413 2 -9.05565 -6.99439 3.33783 21
414 2 -6.27538 -10.9956 3.45888 19
415 2 -8.65384 -9.73244 4.5639 22
416 2 -6.5797 -7.86102 5.12561 23
417 2 -9.46675 -6.94206 6.75715 20
418 2 -6.69461 -11.0413 7.37576 20
419 2 -9.87126 -9.71914 7.60647 21
420 2 -6.52244 -8.56156 8.77621 20
421 2 -10.3259 -8.69202 11.7566 10
422 2 -5.11704 -11.8266 9.84181 16
423 2 -8.00858 -10.3125 10.7379 14
424 2 -7.07617 -7.93311 12.1419 14
425 2 -12.7786 -2.8133 12.9229 9
426 2 -4.28632 -9.92445 12.0626 17
427 2 -11.6645 -6.22356 12.5772 10
428 2 -8.88 -0.757865 -0.251994 21
429 2 -6.58608 -4.81438 0.0441181 20
430 2 -9.79776 -3.68235 1.4545 21
431 2 -6.77892 -2.17487 1.24189 20
432 2 -9.09148 -0.768973 3.1043 19
433 2 -7.09688 -4.94883 3.58952 20
434 2 -8.96683 -4.15011 5.1194 22
435 2 -6.6427 -1.72739 5.17767 19
436 2 -9.37843 -1.26593 6.32883 20
437 2 -6.30255 -5.01555 6.54933 20
438 2 -10.4291 -4.34063 8.29392 18
439 2 -7.2336 -2.37953 8.62964 20
440 2 -10.7966 -1.3889 9.79868 21
441 2 -7.41322 -5.25495 10.2501 21
442 2 -10.1331 -7.09783 9.99316 19
443 2 -7.55911 -2.28765 11.575 21
444 2 -9.21721 -0.984662 13.5618 16
445 2 -6.70334 -5.4289 13.8588 14
446 2 -9.5275 -3.56262 14.7149 12
447 2 -8.23094 -1.07235 15.9218 11
448 2 -4.42248 -12.303 -0.173247 18
449 2 -0.859896 -16.6645 -0.165281 12
450 2 -3.44853 -15.1761 1.87988 18
451 2 -1.10076 -13.1756 1.81479 18
452 2 -3.89733 -12.299 3.96896 19
453 2 -1.06438 -16.6466 3.11864 17
454 2 -1.32317 -16.879 6.80922 18
455 2 -0.933777 -13.7387 4.42347 21
456 2 -3.61271 -12.4883 7.12334 22
457 2 -3.90154 -15.7746 5.45535 21
458 2 -4.19669 -17.5798 7.69805 12
459 2 -0.801759 -13.7933 8.54356 19
460 2 -3.19968 -14.9161 9.49124 14
461 2 -1.71874 -13.3427 12.245 12
462 2 -3.54232 -6.66694 0.223233 22
463 2 -1.5125 -10.6311 0.122492 21
464 2 -4.45277 -9.56693 1.92016 19
465 2 -0.832863 -7.11586 1.71078 21
466 2 -3.62312 -6.80185 3.62929 23
467 2 -1.30136 -10.1523 3.51408 19
468 2 -4.27434 -9.65919 5.52361 17
469 2 -0.837766 -7.58224 5.56731 20
470 2 -4.08091 -6.81796 6.92986 21
471 2 -1.149 -10.4899 6.8698 19
472 2 -3.55194 -9.39429 8.37923 22
473 2 -1.35095 -7.74812 8.677 21
474 2 -4.61302 -6.662 10.4777 22
475 2 -1.8555 -11.2469 10.1506 21
476 2 -4.53617 -12.4833 14.0715 6
477 2 -2.06124 -7.81039 11.7199 21
478 2 -4.59252 -7.82451 14.0087 14
479 2 -0.295588 -11.8378 14.1767 13
480 2 -2.94955 -9.83234 15.3374 11
481 2 0.654694 -9.04921 14.3906 15
482 2 -4.38901 -0.87338 -0.0532258 21
483 2 -1.39846 -4.26082 0.288333 18
484 2 -4.1145 -3.70464 2.12763 20
485 2 -2.25789 -1.52579 1.8178 21
486 2 -4.71462 -0.540904 3.5173 20
487 2 -0.873943 -4.78671 3.54453 23
488 2 -4.16342 -3.65411 5.39288 20
489 2 -1.20659 -1.66013 5.21563 20
490 2 -3.83657 -0.783557 6.97049 18
491 2 -1.3522 -4.77608 6.60669 19
492 2 -4.6594 -3.83127 8.84599 21
493 2 -1.83491 -1.88238 8.71346 20
494 2 -4.84247 -1.34051 10.5274 19
495 2 -1.64633 -5.02669 10.0281 19
496 2 -4.76982 -4.00804 12.0064 23
497 2 -2.24086 -1.61147 11.8484 22
498 2 -4.38212 -0.910621 13.5185 22
499 2 -1.34569 -5.01912 13.3407 18
500 2 -3.77371 -3.64563 15.2507 18
501 2 -2.13768 -0.958769 15.4727 18
502 1 -12.7769 2.91192 -12.0013 13
503 1 -12.217 5.63713 -9.77027 14
504 1 -14.6366 3.489 -9.34114 11
505 1 -12.0422 2.25845 -8.50918 19
506 1 -15.024 1.42415 -6.4368 15
507 1 -12.7544 4.99907 -6.71048 20
508 1 -15.5427 3.79824 -5.77782 12
509 1 -11.7876 1.84509 -5.50214 22
510 1 -14.7049 1.18203 -3.56293 15
511 1 -11.9335 4.88812 -3.65841 22
512 1 -14.5056 4.13121 -2.17398 18
513 1 -12.2334 1.94032 -2.1201 22
514 1 -8.11813 12.721 -12.4456 8
515 1 -10.2225 10.205 -11.0789 10
516 1 -11.3374 11.1071 -7.28929 10
517 1 -11.1201 8.7632 -8.34695 16
518 1 -14.383 6.42735 -4.17482 11
519 1 -11.3641 10.0429 -4.58323 15
520 1 -11.8068 7.32121 -5.69106 18
521 1 -11.9589 7.60664 -1.82986 21
522 1 -6.56625 4.27184 -16.7791 13
523 1 -9.65019 4.70252 -14.9919 10
524 1 -7.71701 1.72179 -15.0204 18
525 1 -9.98234 1.61642 -13.518 14
526 1 -6.54262 4.73583 -13.9141 21
527 1 -10.1223 5.02727 -11.753 17
528 1 -7.15607 2.23512 -11.9274 18
529 1 -9.38764 1.26151 -10.1558 18
530 1 -6.46914 5.09169 -10.4902 20
531 1 -9.46379 4.17092 -8.57507 23
532 1 -6.50722 2.30344 -8.69095 21
533 1 -9.01828 1.52955 -7.03804 23
534 1 -7.22695 5.10255 -6.78712 21
535 1 -9.79693 3.80559 -5.24075 21
536 1 -6.72897 2.20472 -5.06611 22
537 1 -9.18683 1.16964 -3.37824 22
538 1 -6.36643 5.08998 -3.25511 22
539 1 -9.43515 3.91834 -1.73088 21
540 1 -6.79606 2.06606 -1.65876 19
541 1 -6.34731 7.4498 -15.5245 16
542 1 -9.63114 7.69079 -13.4866 12
543 1 -6.61514 9.99941 -14.2329 13
544 1 -6.71602 11.1397 -10.0857 20
545 1 -6.55096 8.1411 -12.3427 17
546 1 -8.79192 7.45873 -10.0912 17
547 1 -4.69778 12.2922 -14.5005 11
548 1 -9.83016 11.9883 -9.3732 13
549 1 -6.56359 8.41212 -8.47075 19
550 1 -9.31967 6.8927 -6.66948 21
551 1 -7.07915 11.3442 -6.44322 20
552 1 -8.83784 9.48468 -5.55655 22
553 1 -6.11597 8.04792 -4.84561 23
554 1 -9.43403 6.87644 -3.29257 21
555 1 -7.49335 10.5338 -3.09128 19
556 1 -10.2969 10.3523 -2.14702 16
557 1 -7.37162 7.78856 -1.36297 20
558 1 -7.19029 14.1229 -8.67026 16
559 1 -9.11406 14.8964 -7.5157 10
560 1 -6.51237 17.1634 -8.14475 6
561 1 -7.14306 14.1932 -5.39104 16
562 1 -9.65248 12.6517 -4.86544 16
563 1 -5.41493 16.9842 -3.49075 7
564 1 -9.15651 15.4998 2.37317 12
565 1 -6.93246 12.9746 -1.63033 16
566 1 -4.9408 1.19598 -16.3507 15
567 1 -1.19883 4.89713 -16.9449 13
568 1 -3.68535 3.4657 -15.2525 18
569 1 -1.26785 1.45742 -15.1837 16
570 1 -4.4505 1.01589 -13.2676 23
571 1 -1.52949 4.56898 -13.7268 21
572 1 -4.00593 4.21763 -11.9505 19
573 1 -1.65308 2.17986 -11.774 17
574 1 -4.58899 1.15607 -9.92611 25
575 1 -1.89167 5.01473 -9.78049 18
576 1 -4.31099 4.31015 -8.29877 21
577 1 -1.89791 2.06818 -8.3464 21
578 1 -3.46253 1.28164 -6.44493 22
579 1 -1.68005 5.12313 -6.79206 19
580 1 -4.12067 4.22616 -5.13485 20
581 1 -1.40681 2.52719 -5.02931 20
582 1 -4.00927 1.3673 -3.32181 20
583 1 -1.15375 5.12294 -3.52102 21
584 1 -3.70126 3.88414 -1.74576 22
585 1 -1.55669 2.1097 -1.7258 20
586 1 -4.2775 6.41986 -16.886 15
587 1 -3.38909 9.48429 -15.8017 14
588 1 -1.00668 7.31966 -15.3882 21
589 1 -4.04325 6.62521 -14.0182 21
590 1 -1.45301 10.8851 -13.7023 16
591 1 -3.95737 10.5707 -11.8867 21
592 1 -1.47529 8.28556 -12.1591 18
593 1 -3.86828 7.35637 -10.1252 21
594 1 -0.703563 11.1703 -10.6776 20
595 1 -4.60359 10.5337 -8.47028 17
596 1 -1.05466 8.06647 -8.9274 18
597 1 -3.85655 7.36498 -6.70469 20
598 1 -1.5045 11.3489 -7.55711 18
599 1 -3.56514 10.3353 -5.44092 19
600 1 -1.41826 8.13983 -5.22562 19
601 1 -4.02595 6.62011 -3.52041 19
602 1 -1.74827 10.6077 -3.32352 20
603 1 -4.37354 9.6058 -1.88803 23
604 1 -1.08597 7.95947 -2.04594 20
605 1 -2.35565 13.4959 -12.3498 13
606 1 -4.77685 13.348 -11.2116 14
607 1 -3.53372 15.3872 -8.99276 11
608 1 -1.08791 14.6496 -10.1478 13
609 1 -4.26703 13.2418 -6.90917 20
610 1 -0.859049 15.1721 -7.03761 17
611 1 -3.43373 15.7787 -5.13088 14
612 1 -1.56905 13.1595 -4.8452 20
613 1 -4.13286 12.8049 -3.46873 18
614 1 -1.65644 16.855 -2.98973 14
615 1 -3.76028 15.2964 -1.46415 18
616 1 -0.809861 13.8569 -1.90102 22
617 2 -11.7592 1.7484 -12.7817 11
618 2 -12.0949 4.60559 -11.3285 14
619 2 -13.4233 2.32368 -10.3153 14
620 2 -15.0509 2.99707 -7.4757 13
621 2 -12.9887 4.41846 -8.51591 15
622 2 -9.85129 7.25228 -5.13967 22
623 2 -12.4197 1.0274 -7.01337 21
624 2 -15.3276 2.37566 -4.72105 12
625 2 -11.7274 4.07289 -5.46562 21
626 2 -14.4301 5.32625 -5.65861 12
627 2 -12.7946 1.86767 -3.94407 22
628 2 -14.2157 2.53381 -1.29323 17
629 2 -11.7013 3.82533 -1.89477 22
630 2 -9.69581 8.49626 -11.6485 14
631 2 -9.37167 11.686 -11.3359 9
632 2 -11.0743 7.18648 -9.21075 17
633 2 -10.6644 10.3904 -9.0774 13
634 2 -11.7983 9.2388 -6.30163 14
635 2 -12.4181 6.67947 -3.62496 18
636 2 -14.9211 5.86706 -2.28429 13
637 2 -11.9939 9.4736 -2.04441 15
638 2 -8.70243 11.5857 -1.5184 16
639 2 -6.28177 2.32124 -16.2933 15
640 2 -9.56943 2.83078 -15.0249 15
641 2 -7.54645 5.51734 -15.6864 15
642 2 -9.70619 5.72252 -13.4435 13
643 2 -6.5256 0.903254 -13.3778 22
644 2 -9.19261 2.89945 -11.7941 21
645 2 -6.19513 4.07854 -12.0065 18
646 2 -8.99136 5.42092 -10.1781 18
647 2 -6.66146 1.35858 -10.3386 21
648 2 -10.1181 2.4891 -8.96794 22
649 2 -6.75765 4.18808 -8.63126 20
650 2 -9.31876 4.72128 -6.78185 20
651 2 -7.27959 1.62702 -7.23289 24
652 2 -9.93392 1.86005 -5.09542 22
653 2 -6.71415 4.14436 -5.26539 21
654 2 -9.71511 4.77281 -3.4787 21
655 2 -7.12231 0.848907 -3.84819 21
656 2 -8.70729 1.7525 -1.80138 20
657 2 -7.29549 4.13659 -2.00162 21
658 2 -5.99651 6.56904 -13.5955 19
659 2 -6.57853 12.0164 -13.6337 13
660 2 -5.18252 10.9367 -15.7262 10
661 2 -9.04782 13.2251 -8.18 16
662 2 -6.23123 7.67993 -10.4288 20
663 2 -8.68377 7.94942 -8.10962 19
664 2 -6.85615 10.3615 -8.08096 19
665 2 -9.36896 11.2075 -6.04865 20
666 2 -6.33234 6.78151 -6.43156 22
667 2 -9.13039 9.65524 -3.62944 20
668 2 -6.60982 9.77473 -5.02435 18
669 2 -11.0248 11.8038 -3.93605 12
670 2 -7.39726 6.95023 -3.88173 22
671 2 -9.15131 7.65092 -1.29735 23
672 2 -6.41396 9.54825 -1.18323 21
673 2 -6.98269 12.9952 -10.6339 13
674 2 -6.28349 13.2534 -6.83638 20
675 2 -7.86872 16.0285 -8.32066 9
676 2 -9.05471 14.1649 -5.5027 11
677 2 -6.36204 15.6628 -4.57511 12
678 2 -6.15473 12.5585 -3.20256 18
679 2 -9.91651 13.8156 1.89723 14
680 2 -5.76992 16.6015 -1.33439 9
681 2 -4.58762 4.55577 -16.9472 15
682 2 -2.9314 -3.19017 -17.7993 12
683 2 -3.31806 1.50969 -15.3505 16
684 2 -1.78554 3.97628 -15.5678 16
685 2 -4.2497 4.769 -13.8805 22
686 2 -1.43453 0.744254 -13.5136 18
687 2 -3.78721 2.11273 -11.8534 20
688 2 -1.21493 4.12419 -11.7504 17
689 2 -4.01879 5.0169 -10.1851 18
690 2 -1.58936 0.993122 -9.9809 17
691 2 -3.81435 2.30415 -8.26899 21
692 2 -1.21755 3.86305 -8.06935 20
693 2 -3.733 5.23184 -6.89911 22
694 2 -1.36532 1.08528 -6.47183 18
695 2 -4.49051 2.14393 -5.12555 23
696 2 -2.00856 4.39143 -5.09744 23
697 2 -4.44749 4.85319 -3.49466 22
698 2 -2.11854 1.43043 -3.48651 22
699 2 -4.5292 2.0943 -1.63349 21
700 2 -1.27443 4.07427 -1.83012 20
701 2 -2.32584 6.45449 -16.3772 15
702 2 -4.56974 8.05887 -15.6011 17
703 2 -1.69476 10.0475 -15.5864 15
704 2 -7.60727 8.29935 -13.9604 15
705 2 -2.16094 7.49454 -13.6992 21
706 2 -5.16521 9.37083 -13.122 20
707 2 -2.07233 10.3018 -11.9701 19
708 2 -4.74336 11.3482 -10.226 17
709 2 -1.91947 6.94924 -10.6062 17
710 2 -4.17032 8.52511 -8.57918 19
711 2 -0.725829 10.1746 -8.76738 19
712 2 -3.54917 11.3108 -7.06964 20
713 2 -1.98401 7.36277 -6.90267 19
714 2 -4.02697 8.24328 -5.12118 19
715 2 -1.40268 10.1571 -5.23612 20
716 2 -3.59337 10.9587 -3.28688 20
717 2 -1.75155 7.02822 -3.38093 22
718 2 -4.33659 7.55211 -1.98474 21
719 2 -0.714601 9.84588 -1.7762 20
720 2 -0.923207 12.7274 -13.235 14
721 2 -3.80139 12.5441 -12.9528 13
722 2 -0.377423 13.0675 -10.5261 17
723 2 -3.01067 14.0747 -10.2386 14
724 2 -3.09311 15.2254 -6.95588 15
725 2 -4.97996 16.4798 -8.83025 8
726 2 -0.911734 13.0843 -6.8614 20
727 2 -3.46271 13.1476 -5.22069 20
728 2 -1.21957 15.1593 -4.9138 18
729 2 -3.60279 17.0364 -3.6583 11
730 2 -0.561261 12.4479 -3.33474 21
731 2 -3.00432 13.6816 -2.25238 19
732 2 -1.7172 15.7809 -1.34573 15
733 1 -14.5999 0.924511 -0.67075 16
734 1 -12.1065 4.78451 -0.299634 22
735 1 -14.9768 3.64909 1.33074 16
736 1 -12.2 1.99996 1.49378 22
737 1 -14.9837 0.801097 2.81646 16
738 1 -12.0245 4.85979 3.00613 23
739 1 -15.8226 3.44381 4.70851 13
740 1 -12.2878 1.77801 4.98743 20
741 1 -14.9065 -1.69226 7.9772 12
742 1 -12.9609 3.68401 6.54647 22
743 1 -14.9705 1.14225 6.5759 14
744 1 -12.7554 1.47778 8.38595 19
745 1 -11.915 4.31004 9.77829 16
746 1 -12.7809 1.58006 11.9162 12
747 1 -15.2371 6.17938 -0.283722 13
748 1 -11.8867 10.1565 -0.0523352 14
749 1 -15.0288 6.43615 3.16358 12
750 1 -13.1359 7.68597 1.3433 18
751 1 -10.9237 8.11963 3.46628 17
752 1 -12.7933 10.8424 3.57179 11
753 1 -13.0195 7.49707 4.76329 15
754 1 -15.5083 4.49553 7.96024 9
755 1 -15.8862 6.46902 6.36808 10
756 1 -13.0198 6.76613 7.91491 13
757 1 -9.7451 1.05889 -0.348951 22
758 1 -7.33524 4.59207 -0.011583 21
759 1 -9.59294 3.55461 1.82731 21
760 1 -7.31765 1.86601 1.74156 23
761 1 -9.73339 1.08522 3.36075 23
762 1 -7.29 4.39317 3.84625 23
763 1 -9.88432 4.08294 5.2134 21
764 1 -7.43643 1.9118 5.42843 24
765 1 -10.2534 0.838101 6.69926 20
766 1 -7.23271 4.6055 7.16825 20
767 1 -10.5093 4.92027 8.22368 17
768 1 -7.80976 1.86339 8.47751 19
769 1 -10.5254 0.679012 10.397 19
770 1 -7.44067 4.44827 10.218 21
771 1 -10.1956 3.58215 12.5569 15
772 1 -7.46558 1.62416 12.2938 21
773 1 -10.1916 0.665965 13.9514 16
774 1 -6.56716 4.84808 14.1379 14
775 1 -9.54636 4.10809 15.5226 9
776 1 -7.56668 0.846077 15.9826 17
777 1 -10.1388 7.11363 0.142561 24
778 1 -6.7147 10.6602 0.169908 19
779 1 -9.20067 9.77348 1.67945 19
780 1 -6.80044 7.39519 1.63987 23
781 1 -9.03328 6.04053 2.83285 19
782 1 -6.17819 10.3766 3.15342 19
783 1 -8.47073 9.46366 4.84168 20
784 1 -6.83919 7.30592 5.09877 21
785 1 -9.95524 7.08305 6.6348 20
786 1 -6.61361 10.3706 7.07047 20
787 1 -9.61921 9.75767 7.95345 12
788 1 -7.16774 7.39375 8.7461 21
789 1 -10.4541 7.50686 9.82919 14
790 1 -6.52874 10.3166 14.3371 8
791 1 -9.14819 9.4007 11.7901 10
792 1 -6.60854 7.5742 11.7791 18
793 1 -8.95874 6.14967 12.4045 14
794 1 -6.08963 13.7067 8.26534 12
795 1 -4.10773 6.37283 16.2658 12
796 1 -9.23859 12.5123 0.150909 15
797 1 -6.16717 15.7649 0.429845 13
798 1 -9.41342 16.9772 5.38375 6
799 1 -6.69831 13.4076 2.18752 21
800 1 -11.7601 14.4321 2.58937 9
801 1 -6.63473 16.6453 3.20698 9
802 1 -10.1773 12.1954 3.27905 17
803 1 -10.6098 14.0136 5.75186 11
804 1 -7.64832 12.2908 5.5352 14
805 1 -6.86086 11.2619 10.9208 13
806 1 -4.41686 1.42181 0.127887 20
807 1 -1.86615 5.18321 -0.0171428 21
808 1 -4.55462 4.33392 1.82534 22
809 1 -2.06798 1.98334 1.94661 21
810 1 -4.75621 1.26239 3.48037 22
811 1 -1.90455 5.14791 3.38384 22
812 1 -4.47058 3.73292 5.4199 23
813 1 -1.55847 2.03723 5.21308 22
814 1 -4.36499 1.08889 6.97248 22
815 1 -1.55828 4.69021 7.19302 23
816 1 -4.496 3.55976 8.67603 23
817 1 -1.74329 2.07411 8.62698 22
818 1 -4.48463 0.593591 10.4263 19
819 1 -2.02424 4.85906 10.4415 21
820 1 -4.6761 3.61182 11.4863 19
821 1 -2.31099 2.08857 12.1068 23
822 1 -5.16371 1.07303 13.7872 19
823 1 -1.37728 5.0371 13.3658 14
824 1 -3.82986 3.6962 15.4208 17
825 1 -2.22635 1.21876 15.3226 19
826 1 -4.59404 6.47349 -0.36117 20
827 1 -1.03649 10.9173 -0.29754 22
828 1 -3.48769 9.35501 1.31274 21
829 1 -1.18915 7.72624 1.34758 19
830 1 -4.40311 7.08896 3.24759 21
831 1 -1.05759 10.6735 3.46545 21
832 1 -4.27549 9.4131 5.44286 21
833 1 -1.99357 7.50361 5.06291 21
834 1 -4.5396 6.44199 7.03754 24
835 1 -1.38322 10.4786 6.98899 19
836 1 -4.24625 9.54756 8.48048 21
837 1 -1.70507 7.5738 8.52411 22
838 1 -4.60206 6.78592 10.1963 20
839 1 -1.93554 10.9067 9.42744 22
840 1 -4.06471 9.85365 12.0242 20
841 1 -1.12604 8.20276 11.8398 19
842 1 -3.96336 6.95156 13.6176 18
843 1 -0.190346 10.547 15.2521 15
844 1 -3.77481 9.84286 15.4821 12
845 1 -1.36372 7.92003 14.9193 16
846 1 -4.05104 12.736 0.0134681 23
847 1 -0.760156 16.2864 0.175978 17
848 1 -3.61899 15.2676 2.24672 18
849 1 -1.37725 13.4333 1.72658 21
850 1 -3.43074 12.205 3.26359 20
851 1 -1.135 16.382 3.22938 14
852 1 -4.09976 15.1046 5.29917 15
853 1 -1.43577 13.7957 5.38132 22
854 1 -4.0041 12.6592 6.84128 21
855 1 -1.29776 16.6808 6.75762 12
856 1 -3.95147 15.7635 8.56533 10