ITEM: TIMESTEP
22000
ITEM: NUMBER OF ATOMS
2000
ITEM: BOX BOUNDS pp pp pp
-30.0 30.0
-30.0 30.0
-30.0 30.0
ITEM: ATOMS id type x y z Coordination
1 1 -17.6761 -1.81712 -3.805 10
2 1 -18.7347 -2.15885 -0.503498 8
3 1 -17.9515 -3.45335 2.60455 9
4 2 -16.0624 -0.610132 -3.37452 16
5 2 -15.2757 -0.733024 -0.273681 18
6 2 -16.6459 -2.78278 3.64532 12
7 1 -5.38214 -18.9181 4.75378 10
8 1 -1.39336 -18.5717 3.46125 11
9 1 -3.04098 -18.3913 6.52208 12
10 2 -5.84552 -17.4256 3.798 13
11 2 -3.50347 -18.9064 4.13375 11
12 2 0.480542 -18.5165 4.47568 9
13 2 -0.0875363 -3.01028 -18.1661 10
14 1 -1.46881 -0.995282 -16.7165 15
15 1 1.22942 -1.56346 -17.8569 10
16 2 0.245433 -0.28821 -17.0426 12
17 1 -11.7549 -12.2766 -2.15787 12
18 1 -12.1294 -6.76545 -9.36915 12
19 1 -13.4203 -9.06164 -7.1837 10
20 1 -12.5411 -6.42606 -6.36299 20
21 1 -15.4101 -7.67203 -4.69045 11
22 1 -12.3417 -9.83163 -4.85713 15
23 1 -11.9678 -6.72549 -3.50701 22
24 1 -14.9967 -6.70221 -1.80159 14
25 1 -12.2706 -9.18579 -1.80031 17
26 1 -12.3916 -0.75304 -13.4981 11
27 1 -12.2736 -3.56545 -11.2204 11
28 1 -13.0019 -0.795692 -10.4762 14
29 1 -14.6324 -2.46152 -8.10633 12
30 1 -11.5364 -3.70683 -8.07578 20
31 1 -15.6925 -4.73627 -5.57967 12
32 1 -11.9696 -1.08172 -6.937 23
33 1 -14.9954 -1.78708 -5.48791 17
34 1 -12.9006 -3.64082 -5.15924 20
35 1 -16.8382 -4.71295 -2.92902 12
36 1 -12.1106 -0.92895 -3.64587 20
37 1 -14.9979 -1.65393 -2.01308 18
38 1 -12.6221 -3.54986 -2.35032 19
39 1 -6.90537 -13.1903 -9.92327 14
40 1 -9.70141 -13.7262 -8.77131 9
41 1 -7.66848 -12.7478 -6.55578 19
42 1 -9.83849 -13.5905 -5.13435 12
43 1 -7.55461 -15.4815 -4.6547 13
44 1 -6.86524 -12.7701 -3.35895 20
45 1 -9.67662 -13.3663 -1.23535 17
46 1 -7.62018 -15.858 -1.26019 13
47 1 -7.28964 -6.63189 -12.9998 17
48 1 -9.59034 -7.96057 -11.2265 14
49 1 -7.0666 -9.65781 -11.7499 18
50 1 -8.63482 -10.8735 -10.0745 15
51 1 -6.78201 -6.9271 -9.87231 23
52 1 -9.36506 -8.06129 -8.12326 19
53 1 -6.35738 -9.73596 -8.18904 19
54 1 -10.4406 -10.874 -6.56404 18
55 1 -6.9494 -6.93775 -6.56934 22
56 1 -9.4693 -7.92678 -5.25708 19
57 1 -7.10398 -9.72334 -4.93924 22
58 1 -9.82455 -10.3865 -3.29874 22
59 1 -6.1575 -7.12387 -3.06476 22
60 1 -9.1536 -7.67522 -1.76209 22
61 1 -7.03573 -9.92309 -1.61938 21
62 1 -6.83422 -1.55046 -16.6737 13
63 1 -9.394 -1.76714 -14.869 14
64 1 -7.32217 -4.41718 -14.8148 15
65 1 -9.67013 -4.66415 -12.9055 16
66 1 -6.77657 -1.28367 -13.3845 21
67 1 -9.43009 -1.45731 -11.8196 21
68 1 -6.50562 -3.57699 -11.35 22
69 1 -9.44736 -5.05113 -9.79585 20
70 1 -6.74109 -1.09682 -9.89938 22
71 1 -9.53114 -1.81163 -8.40952 22
72 1 -6.76329 -3.86927 -8.34571 20
73 1 -9.70388 -4.89756 -6.33499 21
74 1 -6.58425 -1.25563 -6.60799 22
75 1 -9.00079 -1.70919 -5.314 22
76 1 -7.20247 -4.16806 -5.18979 23
77 1 -9.7448 -4.88828 -3.40463 22
78 1 -6.43641 -1.31817 -3.3215 24
79 1 -9.04566 -1.87185 -1.79324 23
80 1 -7.03581 -3.71982 -1.56754 22
81 1 -2.13274 -12.3991 -13.0979 14
82 1 -5.42395 -13.0603 -12.7962 10
83 1 -1.07225 -12.3497 -9.79441 19
84 1 -4.09579 -14.098 -9.33363 12
85 1 -2.01939 -15.4656 -7.89051 13
86 1 -5.43419 -14.757 -6.95434 12
87 1 -0.995254 -12.5542 -6.51125 20
88 1 -3.68821 -13.5653 -4.83393 16
89 1 -1.37613 -15.5877 -4.72825 15
90 1 -4.84859 -16.4786 -3.38106 10
91 1 -1.08928 -12.6859 -3.1534 19
92 1 -3.35153 -13.7628 -1.65142 18
93 1 -1.49887 -15.735 -1.48465 16
94 1 -1.70294 -6.74108 -16.6272 14
95 1 -4.50791 -7.3769 -15.1508 14
96 1 -2.51999 -8.934 -13.8907 16
97 1 -5.29768 -10.7037 -14.5955 11
98 1 -0.925732 -6.42791 -13.2131 17
99 1 -4.50454 -7.89866 -12.0261 20
100 1 -1.78943 -9.42091 -11.0819 21
101 1 -4.49147 -11.024 -10.4322 21
102 1 -1.1199 -6.56014 -9.69503 21
103 1 -3.97843 -7.64579 -8.51636 24
104 1 -2.3083 -9.73342 -7.777 22
105 1 -4.60033 -10.8454 -6.49086 20
106 1 -0.837064 -7.07183 -6.98859 21
107 1 -4.40472 -7.63648 -5.04874 20
108 1 -1.93959 -9.95126 -4.52992 21
109 1 -4.23726 -10.6187 -3.0521 22
110 1 -0.818785 -6.64095 -3.57157 18
111 1 -3.57268 -7.64535 -1.60982 18
112 1 -1.58419 -9.47617 -1.37922 22
113 1 -5.01194 -4.954 -16.4137 11
114 1 -1.10624 -4.44871 -18.5547 7
115 1 -3.81565 -1.86665 -15.1351 19
116 1 -2.05563 -3.84765 -14.5255 20
117 1 -4.42721 -4.62055 -13.2583 22
118 1 -0.711035 -1.16937 -13.806 20
119 1 -3.66377 -1.77491 -12.0247 22
120 1 -0.675627 -3.43068 -11.5204 21
121 1 -4.25209 -4.64909 -10.0054 19
122 1 -0.977583 -1.22832 -10.036 20
123 1 -3.6555 -2.01496 -8.41699 22
124 1 -0.988707 -4.05707 -8.4353 22
125 1 -4.01932 -5.00123 -6.51456 20
126 1 -1.05893 -0.728596 -6.83903 22
127 1 -3.66477 -2.16766 -5.37236 21
128 1 -1.63493 -3.78219 -5.40162 19
129 1 -4.65353 -4.9438 -3.54291 21
130 1 -1.20048 -1.04233 -3.62296 20
131 1 -3.8628 -2.22956 -1.9475 20
132 1 -1.86065 -4.17451 -1.66209 22
133 2 -12.9086 -7.53782 -7.94481 13
134 2 -14.2404 -6.19279 -5.52259 16
135 2 -12.3254 -10.6907 -6.74732 10
136 2 -11.2574 -8.28742 -4.69275 22
137 2 -16.1637 -6.42176 -3.31505 10
138 2 -11.9174 -10.6768 -3.04666 17
139 2 -13.8706 -8.78037 -5.40226 12
140 2 -13.1043 -7.42145 -1.59313 18
141 2 -12.8638 -1.80227 -12.0212 10
142 2 -11.9748 -4.81211 -9.76038 14
143 2 -14.864 -3.49906 -6.65258 13
144 2 -12.9056 -2.15076 -8.79206 20
145 2 -15.4009 -0.665613 -7.10319 13
146 2 -11.6149 -4.34287 -6.38536 22
147 2 -16.5694 -3.37539 -4.44798 13
148 2 -12.9765 -1.64979 -5.15197 21
149 2 -18.3221 -2.74563 -2.11837 9
150 2 -11.8418 -4.81648 -3.72398 17
151 2 -15.6546 -3.51636 -1.89146 18
152 2 -12.8627 -1.48919 -1.92923 20
153 2 -8.89899 -12.9637 -10.3395 10
154 2 -9.58243 -12.9938 -6.93868 14
155 2 -6.87204 -13.8665 -8.10769 16
156 2 -7.86339 -13.5385 -4.75611 17
157 2 -10.0265 -12.8493 -3.27017 16
158 2 -6.63596 -16.0628 -2.8958 11
159 2 -9.22489 -15.01 -0.348984 12
160 2 -7.6473 -13.599 -1.65212 17
161 2 -5.81572 -6.01245 -14.7499 13
162 2 -9.23425 -6.48692 -12.3412 14
163 2 -6.33023 -11.3158 -13.2056 13
164 2 -8.97909 -9.58654 -11.5573 13
165 2 -6.37728 -8.11161 -11.9523 20
166 2 -10.0699 -6.8703 -9.69975 17
167 2 -6.44273 -10.6747 -9.9256 20
168 2 -9.34204 -10.2232 -8.27105 18
169 2 -7.15651 -7.94189 -8.25262 23
170 2 -9.47632 -6.74849 -6.59071 23
171 2 -6.53852 -10.8986 -6.2273 20
172 2 -9.10541 -10.2724 -4.94129 23
173 2 -6.65415 -7.84679 -4.78294 22
174 2 -9.31086 -6.9006 -3.47595 22
175 2 -6.12209 -10.6801 -3.1266 21
176 2 -9.25242 -9.73221 -1.70641 22
177 2 -7.12254 -7.92606 -1.64116 20
178 2 -6.42541 -3.52351 -16.152 14
179 2 -8.82879 -3.32776 -14.1414 15
180 2 -7.87081 -0.827729 -15.2772 16
181 2 -10.3009 -0.692447 -13.5186 15
182 2 -6.86579 -4.78587 -12.745 20
183 2 -10.2607 -3.2685 -11.4953 21
184 2 -7.44596 -1.81561 -11.5294 23
185 2 -9.12675 -0.522618 -9.54539 19
186 2 -7.1935 -4.99798 -9.90218 22
187 2 -9.62169 -3.7161 -7.95515 20
188 2 -7.16226 -1.96879 -8.32947 21
189 2 -9.98647 -0.981215 -6.721 24
190 2 -6.62227 -5.11906 -6.96022 23
191 2 -9.15974 -3.64777 -4.91487 22
192 2 -7.04099 -2.23306 -4.95395 21
193 2 -9.91321 -1.09631 -3.60172 21
194 2 -6.60826 -4.84213 -3.25734 22
195 2 -9.09345 -3.99353 -1.91787 18
196 2 -7.25789 -1.7328 -1.51482 21
197 2 -4.04586 -12.0809 -13.3318 11
198 2 -4.9663 -13.2858 -10.8118 13
199 2 -3.90434 -15.4041 -8.01165 10
200 2 -2.07962 -13.6119 -8.65899 17
201 2 -4.31515 -12.8493 -6.48925 18
202 2 -0.584148 -15.7912 -6.67488 13
203 2 -5.51595 -15.2996 -5.07834 13
204 2 -1.80151 -13.5874 -4.99542 18
205 2 -3.64351 -12.5541 -3.25049 18
206 2 -0.594956 -16.1382 -3.15211 15
207 2 -3.58569 -16.2618 -1.75641 15
208 2 -1.30699 -13.7506 -1.19561 20
209 2 -3.38851 -6.4637 -16.5731 13
210 2 -4.36571 -9.1107 -14.8676 14
211 2 -0.761574 -7.64965 -14.9025 18
212 2 -3.15338 -7.0712 -13.2351 20
213 2 -1.21648 -10.551 -13.2753 21
214 2 -3.70375 -9.53261 -11.3977 21
215 2 -1.02142 -7.6699 -11.6935 19
216 2 -4.68699 -6.97443 -10.1039 21
217 2 -1.41603 -10.273 -9.47309 20
218 2 -4.22668 -9.42925 -7.82718 18
219 2 -1.82366 -7.71198 -8.37599 21
220 2 -4.4824 -6.85828 -6.64791 23
221 2 -1.31706 -10.7049 -6.46368 21
222 2 -3.83195 -9.89537 -4.94367 19
223 2 -1.39869 -8.05841 -4.98383 20
224 2 -3.96818 -6.90726 -3.20746 23
225 2 -1.14465 -10.8599 -2.84068 21
226 2 -3.73137 -9.45492 -1.42142 22
227 2 -1.25385 -7.51511 -1.87649 19
228 2 -5.2067 -0.502028 -16.1692 16
229 2 -0.371569 -5.7708 -17.3344 10
230 2 -4.01799 -3.78395 -14.8526 17
231 2 -1.73988 -2.18088 -15.1183 19
232 2 -4.77526 -1.32477 -13.5255 23
233 2 -0.78142 -4.57736 -12.9517 21
234 2 -4.36509 -3.72886 -11.7005 22
235 2 -1.53786 -1.76545 -12.0584 20
236 2 -4.04949 -1.17257 -9.99407 20
237 2 -1.98514 -4.67295 -10.222 23
238 2 -4.66348 -3.95068 -8.07932 23
239 2 -1.67607 -2.08534 -8.18453 20
240 2 -4.55753 -1.11407 -6.81672 22
241 2 -1.71166 -5.08752 -6.85475 23
242 2 -3.56423 -4.04862 -4.79809 22
243 2 -1.84698 -1.75929 -5.29686 22
244 2 -4.25723 -1.03394 -3.33643 22
245 2 -1.13108 -4.33895 -3.49489 19
246 2 -3.96439 -3.93026 -1.76055 21
247 2 -1.70748 -1.93836 -2.13604 23
248 1 -11.6687 -13.0693 1.46322 12
249 1 -12.0264 -12.7029 7.04507 9
250 1 -12.0743 -6.45525 -0.061036 18
251 1 -14.6542 -7.36907 1.45231 15
252 1 -12.833 -9.95995 1.45664 16
253 1 -11.8915 -6.85974 3.43822 21
254 1 -14.9346 -8.07555 4.03996 10
255 1 -12.0684 -10.5059 4.53356 16
256 1 -12.2367 -7.25143 6.32101 18
257 1 -13.2094 -10.2742 8.17056 8
258 1 -11.9017 -7.09204 9.72125 13
259 1 -16.1416 -4.32504 0.209939 17
260 1 -12.2745 -0.99043 -0.0712856 22
261 1 -15.4082 -1.71766 1.54118 19
262 1 -12.8877 -3.72887 1.31628 22
263 1 -15.3307 -4.67755 3.23308 17
264 1 -12.7897 -0.976794 3.29249 23
265 1 -15.3609 -2.07521 4.68914 17
266 1 -12.6623 -3.90543 4.31673 22
267 1 -14.4357 -4.6813 6.72157 12
268 1 -12.3265 -0.871219 6.07824 22
269 1 -15.2865 -1.85343 8.22956 10
270 1 -12.4132 -3.57864 8.16481 18
271 1 -12.1396 -1.18591 9.6802 18
272 1 -11.4469 -4.28255 11.2638 15
273 1 -12.0621 -1.2454 12.893 11
274 1 -6.45216 -12.5874 -0.122292 19
275 1 -8.42595 -14.4836 1.26708 16
276 1 -6.65234 -16.7953 2.14197 13
277 1 -6.84969 -13.0981 3.57981 21
278 1 -9.53505 -14.175 4.71379 13
279 1 -6.52405 -15.8433 5.04961 17
280 1 -7.28956 -12.9425 6.72364 20
281 1 -8.02437 -15.5105 8.31283 10
282 1 -6.72407 -12.8135 9.88059 14
283 1 -10.1996 -10.6726 -0.172616 19
284 1 -6.42317 -7.07145 0.0559482 21
285 1 -8.93735 -7.5041 1.58078 23
286 1 -6.94279 -9.97419 1.70577 20
287 1 -9.51929 -11.0111 3.10632 18
288 1 -6.17531 -7.38898 3.33529 23
289 1 -9.15004 -8.166 4.75421 20
290 1 -6.58215 -10.2449 4.77959 21
291 1 -9.49387 -11.292 6.05267 18
292 1 -6.1513 -6.75487 6.35762 21
293 1 -9.22456 -8.00966 7.74096 21
294 1 -7.14539 -9.78483 7.93059 21
295 1 -10.1763 -10.9099 9.64254 13
296 1 -6.51407 -6.76006 9.65227 20
297 1 -9.48303 -7.99799 11.1791 15
298 1 -7.1445 -9.70693 11.1916 15
299 1 -6.44731 -7.14358 12.8645 16
300 1 -9.76987 -4.72008 -0.171964 19
301 1 -6.21531 -1.07727 0.0960891 20
302 1 -10.054 -2.07284 1.58964 21
303 1 -7.17798 -4.13284 1.78312 23
304 1 -9.51282 -4.88224 3.05404 20
305 1 -7.09236 -1.05446 3.27998 20
306 1 -9.9405 -2.22159 4.62325 22
307 1 -7.2082 -3.78031 4.69233 21
308 1 -10.0551 -4.83635 6.37214 23
309 1 -7.42438 -0.824475 6.33116 23
310 1 -9.46697 -1.83884 8.07844 20
311 1 -7.3091 -4.02628 7.76953 20
312 1 -9.62339 -5.21515 9.55114 21
313 1 -6.70617 -1.09554 9.76314 20
314 1 -9.31313 -1.99964 11.1768 20
315 1 -7.27451 -3.97203 11.0411 19
316 1 -9.8641 -5.77183 12.7671 14
317 1 -6.88461 -1.29346 13.0036 16
318 1 -9.53076 -2.24928 15.067 9
319 1 -7.97188 -5.16255 15.0671 10
320 1 -4.47604 -16.7772 -0.0830881 15
321 1 -0.646972 -12.4326 0.0987767 21
322 1 -4.44153 -14.0167 1.39482 18
323 1 -1.52927 -15.3487 1.75065 20
324 1 -3.73413 -17.122 3.38907 16
325 1 -1.02653 -12.2624 3.51661 21
326 1 -4.19253 -13.8158 4.99351 21
327 1 -1.69787 -15.6098 4.9249 23
328 1 -5.32791 -17.0576 7.53031 14
329 1 -1.84897 -12.5662 6.74384 20
330 1 -4.73665 -13.8224 8.28329 20
331 1 -2.49156 -15.1344 7.49632 13
332 1 -0.767871 -12.7298 10.2697 19
333 1 -3.68158 -13.6312 11.9268 9
334 1 -0.363862 -12.7843 13.2977 13
335 1 -4.26575 -10.9422 0.207608 22
336 1 -0.992662 -6.75538 0.009565 19
337 1 -3.46483 -7.79764 1.7364 19
338 1 -1.61229 -9.63792 1.84084 21
339 1 -4.17972 -10.9514 3.62578 21
340 1 -1.15106 -6.76887 3.43687 22
341 1 -3.45292 -8.02862 5.11405 23
342 1 -1.04041 -9.52816 5.24532 18
343 1 -4.75319 -10.9483 6.9148 19
344 1 -0.445681 -6.58091 6.90649 22
345 1 -3.65918 -7.9295 8.37737 19
346 1 -0.473315 -9.78665 8.58194 21
347 1 -4.3169 -11.0123 9.90049 17
348 1 -0.911427 -6.8598 10.1 20
349 1 -3.62188 -7.94168 11.4339 22
350 1 -1.60072 -10.0239 11.9247 18
351 1 -4.82662 -10.3106 13.0406 13
352 1 -1.02828 -6.68791 13.3794 24
353 1 -4.22552 -7.95612 14.6857 16
354 1 -1.53419 -9.55544 15.0162 14
355 1 -4.4716 -4.9841 -0.166468 22
356 1 -1.3049 -0.974915 -0.267118 21
357 1 -4.47782 -2.17215 1.76137 22
358 1 -2.20698 -3.64205 1.8073 22
359 1 -4.4421 -5.38705 3.33327 23
360 1 -1.65401 -0.973595 3.27742 21
361 1 -4.59582 -2.24228 4.79262 24
362 1 -1.50194 -3.69358 4.9495 23
363 1 -3.6561 -5.18953 6.24536 18
364 1 -2.06553 -0.986696 6.57691 25
365 1 -4.7822 -1.89263 7.96166 24
366 1 -1.68868 -3.90782 8.02933 21
367 1 -4.37684 -4.76815 9.53461 20
368 1 -1.78835 -1.17304 9.61451 24
369 1 -3.3253 -2.10572 11.3626 18
370 1 -1.27364 -3.95242 11.4097 19
371 1 -4.21617 -5.01107 12.7233 20
372 1 -1.14996 -1.32958 13.1248 21
373 1 -3.82617 -2.16469 14.6964 18
374 1 -1.98289 -3.8242 14.7586 20
375 2 -15.3493 -5.91234 -0.0989307 15
376 2 -11.9099 -9.76102 -0.0994853 18
377 2 -14.3102 -9.082 2.19918 10
378 2 -12.6476 -7.14947 1.72152 18
379 2 -15.4336 -6.43087 3.24552 15
380 2 -11.7727 -11.22 2.69816 13
381 2 -13.1272 -7.83668 4.50129 17
382 2 -12.6781 -8.2153 8.00086 11
383 2 -12.5653 -11.0375 6.31442 12
384 2 -11.7385 -11.4933 8.50225 9
385 2 -18.0308 -3.15543 0.830243 11
386 2 -11.9598 -4.58945 -0.449829 20
387 2 -14.9213 -3.4805 1.7453 20
388 2 -12.6863 -2.06569 1.49656 19
389 2 -14.733 -0.607252 3.05495 20
390 2 -11.7668 -4.89729 3.07348 22
391 2 -14.4644 -4.01914 4.87098 17
392 2 -11.946 -2.07711 4.42468 22
393 2 -14.8981 -1.14743 6.19279 19
394 2 -12.308 -4.72455 6.35886 19
395 2 -14.2617 -3.57416 8.31588 9
396 2 -11.5897 -2.02242 7.57669 22
397 2 -11.4588 -5.06465 9.13923 20
398 2 -11.6639 -2.36456 11.3923 14
399 2 -11.1889 -12.6365 -0.304027 17
400 2 -6.46552 -16.5625 0.306833 14
401 2 -8.62879 -12.2492 4.42207 19
402 2 -6.64877 -13.7605 1.37664 22
403 2 -9.86154 -13.458 2.81549 14
404 2 -7.70131 -15.6427 3.51004 12
405 2 -6.06578 -13.8885 5.26538 22
406 2 -10.3723 -13.2543 6.15065 13
407 2 -7.17126 -16.0947 6.79198 13
408 2 -6.86144 -13.9938 8.19493 14
409 2 -9.95663 -6.88577 -0.137464 22
410 2 -6.1439 -10.572 -0.0102333 17
411 2 -8.78982 -10.5788 1.46009 21
412 2 -7.08883 -7.86227 1.50613 20
413 2 -9.41395 -6.81023 3.2431 17
414 2 -6.23086 -11.0689 3.20909 22
415 2 -9.95436 -9.83382 4.78325 19
416 2 -7.0147 -8.19982 4.85218 21
417 2 -10.2616 -6.96196 6.20378 20
418 2 -6.81769 -11.0412 6.58807 21
419 2 -9.15669 -10.3364 7.9478 19
420 2 -7.26337 -7.86935 7.56982 20
421 2 -9.88255 -7.19011 9.35922 20
422 2 -6.9306 -10.8632 9.65867 18
423 2 -9.25626 -9.97815 10.9832 13
424 2 -7.44548 -7.76289 10.8254 22
425 2 -9.26485 -4.26253 11.263 19
426 2 -6.24881 -9.18193 12.9103 13
427 2 -8.16777 -6.46088 13.7808 13
428 2 -10.2654 -0.92752 0.0300054 20
429 2 -6.49049 -5.11249 0.309597 22
430 2 -9.07028 -3.61394 1.23284 25
431 2 -6.35818 -2.16589 1.77496 20
432 2 -9.2904 -1.25397 3.19444 23
433 2 -6.5625 -5.18115 3.40294 21
434 2 -9.26732 -4.16331 4.7476 21
435 2 -6.58722 -1.78961 4.91497 23
436 2 -9.45754 -1.09343 6.23594 23
437 2 -6.74012 -4.97777 6.26403 20
438 2 -9.46318 -3.73468 8.08255 22
439 2 -7.00489 -2.24148 7.89189 21
440 2 -9.84541 -0.961367 9.80879 21
441 2 -6.61208 -4.88369 9.41996 19
442 2 -10.863 -6.7313 11.5246 11
443 2 -7.34778 -1.97343 11.3784 17
444 2 -10.2495 -1.28705 13.6228 14
445 2 -6.38937 -4.96403 12.4334 19
446 2 -9.56274 -4.12339 14.9436 9
447 2 -7.6588 -2.06576 14.7065 14
448 2 -4.12305 -12.8467 -0.121761 18
449 2 -0.691564 -16.206 0.131655 15
450 2 -3.73174 -15.8233 1.60167 20
451 2 -1.24344 -13.46 1.91295 21
452 2 -4.15317 -12.9417 3.1578 20
453 2 -1.08158 -16.5497 3.36967 18
454 2 -3.46594 -15.9867 5.09924 21
455 2 -1.27665 -13.7317 4.9819 20
456 2 -3.73041 -12.8387 6.85655 21
457 2 -4.94528 -19.0986 6.65013 10
458 2 -4.05214 -15.8045 8.14377 16
459 2 -1.06634 -13.8552 8.35881 17
460 2 -4.61967 -13.1859 10.3478 13
461 2 -1.72273 -13.2199 12.0464 11
462 2 -4.11349 -6.89284 0.246458 21
463 2 -0.514998 -10.1482 0.200611 22
464 2 -3.59005 -9.80376 1.92225 20
465 2 -1.60665 -7.56002 1.88494 23
466 2 -4.14083 -7.23448 3.56946 20
467 2 -1.36495 -10.2986 3.57385 21
468 2 -4.44282 -9.88696 5.23744 20
469 2 -1.13265 -7.38791 5.24778 18
470 2 -4.17337 -7.07916 6.53079 22
471 2 -0.721939 -10.7923 6.9621 21
472 2 -3.98665 -9.9417 8.33622 21
473 2 -1.32779 -7.98622 8.30855 20
474 2 -4.41111 -6.61371 10.0207 18
475 2 -1.01006 -10.8185 10.1986 21
476 2 -3.57852 -10.3611 11.6218 18
477 2 -1.73141 -7.76869 11.7803 23
478 2 -4.26335 -6.83913 13.0269 19
479 2 -0.884204 -10.8224 13.5548 16
480 2 -3.52075 -9.77181 14.604 12
481 2 -1.07242 -7.59032 15.0787 17
482 2 -4.26191 -1.5126 -0.00910413 23
483 2 -1.33312 -4.56815 0.25141 20
484 2 -3.96982 -4.38734 1.61782 22
485 2 -1.2946 -1.69851 1.58861 22
486 2 -3.71419 -0.95712 3.26397 24
487 2 -0.965824 -4.20336 3.16202 20
488 2 -4.08041 -4.02672 4.76772 21
489 2 -1.02014 -1.76973 5.02712 23
490 2 -4.06661 -1.3119 6.45316 22
491 2 -1.61227 -4.9288 6.42846 18
492 2 -3.71139 -3.86508 7.78912 21
493 2 -0.997207 -1.99214 8.13864 25
494 2 -3.90586 -1.18671 9.63747 23
495 2 -0.747229 -4.99803 9.5059 20
496 2 -3.76339 -4.00241 11.0089 20
497 2 -1.55242 -1.95643 11.3251 20
498 2 -4.02315 -1.13639 12.8847 22
499 2 -0.794864 -4.73882 13.3299 23
500 2 -3.80221 -4.19315 14.6599 19
501 2 -1.95342 -1.41345 14.7082 22
502 1 -13.0333 2.24084 -11.5682 14
503 1 -12.0525 5.24479 -10.1158 15
504 1 -14.7621 4.12556 -8.22894 12
505 1 -13.2084 1.56663 -8.36428 16
506 1 -15.9271 1.13311 -6.86075 11
507 1 -12.1404 4.10683 -6.78142 19
508 1 -15.148 3.88363 -5.37076 14
509 1 -12.6864 1.8403 -5.07088 21
510 1 -15.629 1.17753 -3.36105 15
511 1 -12.8612 4.86458 -3.3958 21
512 1 -15.0729 4.12167 -1.35171 15
513 1 -12.4626 1.81368 -1.71611 19
514 1 -10.8586 10.7299 -10.2564 9
515 1 -12.318 8.41781 -8.84269 12
516 1 -11.1079 9.57901 -6.63628 15
517 1 -14.8001 7.12372 -6.43809 10
518 1 -15.3467 6.73598 -3.048 13
519 1 -11.5391 10.7754 -3.59222 17
520 1 -13.469 8.81895 -4.22762 12
521 1 -12.7707 7.74338 -1.69597 21
522 1 -6.59384 4.00887 -16.6503 11
523 1 -9.16043 4.28093 -14.6895 11
524 1 -7.46313 1.15912 -15.065 18
525 1 -10.4173 1.38111 -13.4583 17
526 1 -6.45269 5.32033 -13.3505 18
527 1 -9.60866 3.98985 -11.5457 18
528 1 -7.40684 1.9583 -11.3806 21
529 1 -10.3721 1.16155 -9.99664 21
530 1 -6.52032 4.51808 -9.79832 20
531 1 -9.35274 3.69951 -8.01274 22
532 1 -7.57911 1.23131 -8.17188 21
533 1 -10.0117 0.863802 -6.32706 22
534 1 -6.67095 4.61291 -6.70855 22
535 1 -9.48418 4.07161 -4.818 20
536 1 -7.12137 2.12547 -5.13135 20
537 1 -9.38552 0.903573 -3.25515 23
538 1 -6.5711 4.62876 -3.14254 20
539 1 -8.93534 3.72461 -1.73403 22
540 1 -6.08775 1.61571 -1.73295 22
541 1 -6.21705 8.18435 -14.6894 12
542 1 -11.8471 5.71988 -12.7649 9
543 1 -6.53298 11.7714 -14.0658 6
544 1 -7.62914 10.1588 -10.576 17
545 1 -6.28771 7.65062 -11.2854 16
546 1 -9.55607 6.9109 -10.1251 18
547 1 -7.95671 12.7819 -11.0649 8
548 1 -8.83321 9.35579 -8.06576 22
549 1 -6.96107 7.5122 -8.2214 20
550 1 -9.47484 6.44355 -6.40355 18
551 1 -6.49594 10.5091 -6.46284 22
552 1 -9.03811 9.38658 -4.67613 19
553 1 -7.1846 7.44079 -4.67302 22
554 1 -10.0606 6.75773 -3.51835 18
555 1 -6.60314 10.648 -3.0259 20
556 1 -9.41639 9.30862 -1.52112 23
557 1 -6.95685 7.56492 -1.71648 19
558 1 -6.54045 13.5028 -7.99905 13
559 1 -9.14462 12.3381 -6.49034 14
560 1 -6.68268 16.399 -6.0021 9
561 1 -7.50783 13.8519 -4.76564 20
562 1 -10.391 13.353 -3.19318 11
563 1 -6.97721 16.6516 -2.94462 14
564 1 -9.14726 15.514 -0.744136 13
565 1 -7.41127 13.5298 -1.94657 21
566 1 -4.40973 1.16134 -16.4029 14
567 1 -1.18454 5.00892 -16.6373 13
568 1 -4.03874 3.78977 -15.0133 18
569 1 -1.89526 1.71895 -14.9437 20
570 1 -4.69869 1.14899 -13.133 22
571 1 -1.25496 4.70966 -13.3186 23
572 1 -4.37813 3.86564 -11.5225 21
573 1 -1.59981 1.77327 -11.7778 20
574 1 -4.53692 1.0477 -9.96045 19
575 1 -1.31284 5.26933 -9.71873 19
576 1 -3.82184 3.55749 -8.1883 19
577 1 -1.6876 2.11118 -8.52372 22
578 1 -4.6247 0.743975 -6.49634 19
579 1 -0.849211 5.1355 -6.79472 22
580 1 -3.90685 3.95624 -5.09556 22
581 1 -1.68819 1.9371 -5.07492 21
582 1 -3.93852 0.920691 -3.54369 22
583 1 -1.37797 4.73417 -3.53069 22
584 1 -3.66869 3.51586 -1.40125 23
585 1 -0.871778 1.52533 -1.86426 22
586 1 -4.05813 6.60841 -16.5142 11
587 1 -3.66801 9.53927 -14.8003 15
588 1 -1.01703 7.87071 -15.142 18
589 1 -3.70588 6.5797 -12.9836 21
590 1 -0.918408 11.0092 -13.4302 15
591 1 -3.84486 9.66692 -11.2647 19
592 1 -1.08781 8.14647 -12.0343 19
593 1 -4.21144 6.55994 -9.98869 20
594 1 -1.17654 11.0266 -9.60942 22
595 1 -4.46926 9.70569 -7.85446 21
596 1 -1.52411 8.09085 -8.3197 20
597 1 -3.87519 6.80018 -6.62548 22
598 1 -1.67335 10.5215 -6.77357 19
599 1 -3.86357 9.40735 -4.67527 22
600 1 -0.732642 7.78631 -5.05943 20
601 1 -4.22374 6.45613 -3.45635 17
602 1 -0.834929 10.5878 -3.18747 20
603 1 -3.74594 10.0525 -1.34519 18
604 1 -1.62217 7.75567 -1.93178 18
605 1 -1.57319 13.5304 -11.876 10
606 1 -4.66916 12.6123 -9.7337 16
607 1 -4.36642 15.4126 -7.89594 14
608 1 -1.90077 13.4262 -9.0699 19
609 1 -4.1574 12.3805 -6.29702 21
610 1 -1.60246 16.0822 -6.95258 13
611 1 -3.99608 15.6319 -4.49542 19
612 1 -1.56761 13.3891 -5.18398 19
613 1 -4.41039 12.4489 -3.38414 20
614 1 -1.36971 16.121 -3.37378 17
615 1 -3.81413 15.6146 -1.74286 17
616 1 -1.49503 13.5758 -1.6395 22
617 2 -12.5814 1.10426 -13.0488 10
618 2 -12.0939 4.08291 -11.8702 13
619 2 -12.2472 1.02366 -9.98054 17
620 2 -14.8666 2.25468 -8.12955 13
621 2 -12.913 4.029 -8.68735 16
622 2 -14.3943 5.07999 -6.7672 13
623 2 -12.5274 0.641874 -6.48212 19
624 2 -15.5249 2.12923 -5.09613 14
625 2 -12.7296 3.52341 -4.88463 17
626 2 -15.4881 4.73929 -3.31484 14
627 2 -11.9635 1.00924 -3.39584 18
628 2 -15.2814 2.32401 -1.65914 15
629 2 -12.7337 3.76563 -1.54705 20
630 2 -11.4492 7.20336 -10.0763 15
631 2 -10.8364 9.79284 -8.62818 15
632 2 -13.6506 7.70786 -7.69867 13
633 2 -14.9217 7.78096 -4.63816 13
634 2 -12.458 9.85256 -5.38759 14
635 2 -11.9579 6.94859 -3.07484 19
636 2 -14.8075 7.41786 -1.48527 15
637 2 -12.8586 9.65455 -2.42986 15
638 2 -11.2034 12.1059 -2.08206 11
639 2 -6.09169 2.21509 -16.408 14
640 2 -9.1056 2.29919 -14.7086 13
641 2 -7.39231 4.61206 -14.8489 13
642 2 -10.0985 5.35133 -13.0771 13
643 2 -6.58776 0.848308 -12.8136 20
644 2 -9.58343 1.95668 -11.5745 20
645 2 -6.93896 4.04399 -11.5725 20
646 2 -9.96868 4.93623 -9.61329 20
647 2 -6.50513 0.776836 -9.89616 20
648 2 -10.1491 1.8837 -7.93956 21
649 2 -7.20985 3.358 -8.32937 19
650 2 -10.4506 4.7824 -6.53535 22
651 2 -6.61177 0.921364 -6.45666 22
652 2 -9.43114 2.05907 -4.89139 22
653 2 -7.39999 3.93745 -4.87979 21
654 2 -9.29845 5.05114 -3.16474 19
655 2 -7.13039 0.799358 -3.32905 22
656 2 -9.4304 1.76086 -1.40121 19
657 2 -7.02917 3.41568 -1.60379 21
658 2 -6.3429 7.3546 -13.0571 16
659 2 -8.10931 8.22925 -10.7002 15
660 2 -7.40221 12.1485 -12.676 6
661 2 -9.19313 11.3683 -10.4097 9
662 2 -6.11919 6.5247 -9.74885 20
663 2 -9.05372 7.29643 -8.24072 19
664 2 -6.82545 9.41943 -8.35366 18
665 2 -9.35096 10.4736 -6.32553 15
666 2 -7.45861 6.62881 -6.49121 22
667 2 -10.4312 7.90563 -5.38417 22
668 2 -7.02206 9.32733 -4.70648 22
669 2 -9.64063 10.2147 -3.2246 21
670 2 -6.18533 6.54319 -3.24587 22
671 2 -9.15822 7.54449 -1.99398 21
672 2 -7.21563 9.74918 -1.45483 22
673 2 -6.85504 12.3325 -9.4465 16
674 2 -7.06152 12.3599 -6.57182 20
675 2 -6.72149 15.3385 -7.37377 11
676 2 -9.29788 13.1952 -4.68951 13
677 2 -7.39576 15.6815 -4.36875 14
678 2 -6.29522 12.8723 -3.49994 21
679 2 -9.30133 14.1015 -1.83657 15
680 2 -7.41636 16.3629 -1.13314 12
681 2 -4.97944 4.82075 -16.1678 14
682 2 -2.691 0.182053 -16.1742 14
683 2 -3.8986 1.99791 -14.6497 19
684 2 -1.20152 3.61298 -14.9353 17
685 2 -4.36766 4.84719 -13.145 22
686 2 -0.626232 0.919863 -13.3283 21
687 2 -3.59798 1.9715 -11.7847 23
688 2 -0.787158 3.67654 -11.9698 22
689 2 -3.31665 4.87649 -10.4322 21
690 2 -0.93223 0.742875 -10.0248 17
691 2 -3.69263 1.76544 -8.19344 22
692 2 -1.92423 4.37006 -8.23553 20
693 2 -4.5681 4.93779 -6.82071 21
694 2 -0.589034 1.21022 -6.77314 21
695 2 -3.83914 2.03695 -5.07549 19
696 2 -1.25332 3.85335 -5.4084 20
697 2 -4.09699 4.61689 -3.29812 22
698 2 -1.75614 1.12188 -3.40875 21
699 2 -4.15243 1.75496 -1.7317 20
700 2 -0.976051 3.73128 -1.90457 20
701 2 -2.15063 6.69777 -16.6015 15
702 2 -4.45873 8.0262 -15.4008 14
703 2 -1.85772 9.78424 -14.5594 14
704 2 -5.32651 10.2839 -14.1994 9
705 2 -1.70003 6.71161 -13.2115 21
706 2 -4.30189 8.00571 -11.5044 20
707 2 -1.724 9.98526 -11.897 19
708 2 -3.66305 10.7495 -9.38586 18
709 2 -1.0931 7.21727 -10.1651 22
710 2 -3.60518 8.01253 -8.29258 21
711 2 -0.631575 9.80224 -8.29699 22
712 2 -4.35966 10.6686 -6.08259 20
713 2 -0.985074 7.07799 -6.76467 19
714 2 -4.59223 7.47922 -4.99699 20
715 2 -1.84834 9.32998 -4.96618 21
716 2 -4.34288 10.4571 -3.10862 19
717 2 -0.571479 6.46433 -3.30695 21
718 2 -3.46168 7.08457 -1.81359 20
719 2 -1.79417 10.0101 -1.69514 20
720 2 -0.287013 12.6582 -12.6857 13
721 2 -3.24049 13.4248 -10.6536 13
722 2 -0.647339 12.7629 -10.3169 15
723 2 -4.53065 13.4743 -8.01825 17
724 2 -2.37587 15.0522 -8.21361 15
725 2 -4.83759 16.3733 -6.1482 14
726 2 -1.01396 12.2595 -6.7435 22
727 2 -3.76969 13.7956 -5.09986 21
728 2 -2.03441 15.7823 -5.00122 15
729 2 -5.1398 16.1206 -3.10207 18
730 2 -1.0129 12.7618 -3.42479 18
731 2 -3.54842 13.4821 -1.52645 23
732 2 -1.67612 15.8177 -1.56634 16
733 1 -14.9749 1.05828 0.0781189 17
734 1 -12.2379 4.65327 0.0519345 21
735 1 -14.4562 3.6579 1.77512 21
736 1 -12.1222 1.76285 1.60786 22
737 1 -15.8303 0.888669 3.33043 16
738 1 -12.1576 5.01294 3.25698 20
739 1 -15.9325 3.67586 5.03503 14
740 1 -12.9152 1.89119 4.88403 25
741 1 -15.6495 0.60475 6.26328 14
742 1 -12.1715 4.77674 6.56808 21
743 1 -15.1018 3.25129 8.04781 12
744 1 -12.8512 1.58949 8.16131 19
745 1 -12.5676 4.53552 10.07 14
746 1 -12.7387 2.10891 11.634 12
747 1 -14.4788 7.10875 0.265093 14
748 1 -12.3194 10.3764 -0.61381 16
749 1 -14.864 9.39814 2.04289 11
750 1 -12.0485 7.98066 1.99758 20
751 1 -14.8704 6.23654 3.3961 18
752 1 -12.6063 10.2978 3.24347 15
753 1 -13.0659 7.06919 5.09786 18
754 1 -16.2601 6.24424 6.54807 10
755 1 -15.7744 8.78292 5.30152 8
756 1 -13.1845 7.37854 8.07671 11
757 1 -9.22744 0.847433 0.271392 22
758 1 -6.38525 4.48897 -0.115588 23
759 1 -9.48244 3.78894 1.58574 20
760 1 -6.6082 1.87704 1.53353 20
761 1 -9.78885 0.678085 3.39802 21
762 1 -6.77492 4.53639 3.25541 20
763 1 -10.1095 3.55711 5.11175 24
764 1 -7.26182 1.65742 4.70284 21
765 1 -10.072 0.868307 6.67413 22
766 1 -6.93365 4.91964 6.64682 22
767 1 -9.6714 3.74232 8.21847 21
768 1 -7.10045 1.85284 8.27946 22
769 1 -9.9147 0.859986 10.0862 21
770 1 -6.51294 4.90082 9.98862 21
771 1 -9.44728 3.77749 11.4032 19
772 1 -6.99871 1.80486 11.2926 20
773 1 -10.5375 0.603913 13.8846 13
774 1 -6.56424 4.57808 12.9004 22
775 1 -9.21191 3.70678 14.6513 13
776 1 -7.33231 1.56884 14.575 17
777 1 -9.53713 6.67608 -0.319862 21
778 1 -6.59005 10.6106 0.279737 18
779 1 -9.6186 9.88086 1.70262 22
780 1 -7.30742 7.76814 1.4013 22
781 1 -9.37709 6.67323 3.11051 20
782 1 -6.9069 10.6433 3.6387 19
783 1 -9.49944 9.33736 4.83171 19
784 1 -6.94449 7.66199 5.13691 22
785 1 -10.047 6.61218 6.39446 23
786 1 -6.73134 10.5964 6.80063 20
787 1 -9.57527 9.44325 8.02841 16
788 1 -7.43783 7.7317 8.53054 22
789 1 -10.4688 6.60341 9.76715 16
790 1 -6.80106 10.3467 10.1089 15
791 1 -9.45954 9.62984 11.6407 9
792 1 -6.36288 7.7947 12.0311 17
793 1 -8.8337 6.53336 12.7591 15
794 1 -3.30564 12.2336 13.778 9
795 1 -5.75644 6.56575 15.0562 14
796 1 -10.3984 12.4153 -0.30823 16
797 1 -6.42888 16.7126 0.251067 14
798 1 -7.95953 15.4888 2.98671 15
799 1 -7.80751 13.265 1.39713 20
800 1 -10.6484 13.2714 2.93337 14
801 1 -6.03597 17.1309 3.6616 10
802 1 -7.73564 12.8506 4.76597 19
803 1 -10.7678 11.5989 5.48221 11
804 1 -6.54712 16.0307 6.18002 11
805 1 -8.62322 12.5671 10.0016 9
806 1 -3.83609 0.701175 0.0282534 22
807 1 -1.01645 4.82886 0.117702 22
808 1 -3.72281 3.94962 1.51081 21
809 1 -0.954103 1.72204 1.84956 20
810 1 -4.08634 0.985376 3.10711 22
811 1 -1.0711 4.92736 3.43934 20
812 1 -4.14384 3.80589 4.85989 20
813 1 -1.89027 1.93864 4.7394 21
814 1 -4.57621 0.668116 6.21251 23
815 1 -1.33482 4.53255 6.74422 22
816 1 -4.02674 3.48775 8.18788 24
817 1 -1.7153 1.72237 8.02567 24
818 1 -4.21055 0.746674 9.72971 23
819 1 -1.37231 4.32683 9.66593 21
820 1 -3.89919 3.53093 11.6652 20
821 1 -1.60644 1.61472 11.723 19
822 1 -4.52737 0.720832 12.9239 22
823 1 -1.13722 4.6548 13.0496 22
824 1 -4.1542 3.56644 14.773 21
825 1 -2.03208 1.73593 14.7083 21
826 1 -4.5795 6.71847 -0.252891 19
827 1 -1.31427 10.7846 0.165202 19
828 1 -4.09834 9.67871 1.55964 18
829 1 -1.90891 7.74212 1.67059 19
830 1 -4.56105 6.7248 3.18977 19
831 1 -1.16632 10.3017 3.60471 19
832 1 -4.36095 9.60435 5.04878 20
833 1 -1.92477 7.72573 5.18622 21
834 1 -4.50996 6.38193 6.61157 23
835 1 -0.963406 10.5145 6.91439 19
836 1 -4.02822 9.60353 8.51226 21
837 1 -1.65441 7.5448 8.29913 20
838 1 -4.25602 6.63749 9.87293 22
839 1 -1.16118 10.2462 10.2532 20
840 1 -3.75815 9.51277 11.9233 18
841 1 -0.79245 7.52026 11.5929 21
842 1 -3.66762 6.49467 13.0416 24
843 1 -1.12605 10.1356 13.6728 17
844 1 -3.49583 9.14062 15.1311 13
845 1 -0.813134 6.98002 15.0307 21
846 1 -4.8439 12.8207 -0.129633 20
847 1 -0.937654 16.1856 0.418039 17
848 1 -4.16341 15.3382 1.66706 17
849 1 -1.88566 13.4079 1.71757 20
850 1 -4.85238 13.0024 3.13571 20
851 1 -0.931176 15.3566 3.76453 18
852 1 -3.8659 15.9622 4.94596 16
853 1 -1.86021 13.303 5.29345 22
854 1 -4.96851 12.6568 6.62613 20
855 1 -1.20128 16.2682 6.81778 14
856 1 -4.11854 15.04 8.18913 12