ITEM: TIMESTEP
23000
ITEM: NUMBER OF ATOMS
2000
ITEM: BOX BOUNDS pp pp pp
-30.0 30.0
-30.0 30.0
-30.0 30.0
ITEM: ATOMS id type x y z Coordination
1 1 -17.3842 0.859533 -0.650312 20
2 1 -9.46974 -12.4801 -3.5045 16
3 1 -2.09059 8.29513 17.6344 21
4 1 2.76674 -11.2829 13.4893 16
5 1 -8.60032 8.97837 3.18754 16
6 1 4.08438 -7.08962 -0.152884 18
7 1 -18.2445 3.86015 3.7982 20
8 1 -2.26787 -8.86414 16.6801 23
9 1 -14.3837 4.22215 -1.73178 16
10 1 -18.7912 -11.7559 6.63305 8
11 1 6.66318 0.256083 -8.28965 9
12 1 -5.00667 -16.7692 7.25282 19
13 1 -18.5261 -3.74969 8.79259 17
14 1 -0.581786 1.01542 22.9996 12
15 1 -3.93565 -0.130476 14.394 22
16 1 -3.91493 8.40215 -4.19244 19
17 1 2.37215 -8.03257 16.8752 17
18 1 -12.515 -1.44036 -3.36777 19
19 1 -11.6379 -6.91847 13.1047 22
20 1 9.13225 2.30672 15.5855 17
21 1 -2.95739 8.84815 -8.09703 16
22 1 -1.79348 1.65662 -8.77527 19
23 1 9.87045 -0.983813 14.8888 18
24 1 -14.9282 2.06867 3.12826 21
25 1 -14.0996 10.8055 12.1621 11
26 1 1.67767 -12.4907 10.6188 21
27 1 -1.8104 -14.9721 -2.98333 14
28 1 4.79713 -13.1699 5.64384 19
29 1 -6.67043 -16.2055 -0.856355 18
30 1 -16.4439 -5.31843 10.7376 22
31 1 1.3338 -8.22521 -10.9138 14
32 1 3.57961 -10.3725 -5.85673 17
33 1 -10.5073 5.8671 -6.68087 15
34 1 -4.216 3.50336 19.6969 17
35 1 -2.44192 -11.873 17.8304 14
36 1 2.65606 -5.47152 20.3567 18
37 1 -11.3511 -1.66444 6.48028 20
38 1 -17.4487 -3.94693 13.8163 16
39 1 -11.1902 -2.08728 3.18343 22
40 1 -5.77197 10.2351 3.29405 20
41 1 -7.58847 -14.9517 -4.08602 14
42 1 0.969522 -0.195141 -5.52774 25
43 1 -0.675573 -10.6853 -5.95284 19
44 1 -3.24365 -6.53269 21.4483 14
45 1 -10.5729 7.86955 5.78486 21
46 1 -5.11928 7.78885 -10.4552 17
47 1 -2.312 17.6164 14.8763 3
48 1 -15.9079 8.25074 0.544648 11
49 1 -4.07156 12.3565 5.34687 20
50 1 -8.61614 -21.232 10.634 7
51 1 3.45243 -10.2677 0.74924 20
52 1 4.28097 -6.86874 -10.0056 14
53 1 -9.14018 9.10353 13.6199 17
54 1 -12.2603 0.615609 2.10791 18
55 1 -8.60614 10.7378 -3.09025 17
56 1 -8.13091 -14.2297 15.2743 17
57 1 -5.63532 13.4268 15.2612 16
58 1 -15.0174 5.54282 4.28825 21
59 1 -14.5145 2.60019 16.3152 12
60 1 -6.73537 -15.8974 10.2109 21
61 1 -1.73077 2.4657 14.6841 22
62 1 -0.46964 -15.823 5.42859 16
63 1 1.89119 6.51262 22.3473 14
64 1 -18.3325 -3.83572 -1.02206 11
65 1 -20.8686 3.52606 2.70041 13
66 1 0.0382387 6.08302 17.5143 20
67 1 8.76786 -6.74233 -6.86132 11
68 1 4.30748 -10.2604 10.784 18
69 1 -18.9523 -0.745731 7.53285 12
70 1 4.28913 13.3683 10.8305 16
71 1 3.33898 -1.38358 19.2823 18
72 1 -8.42551 -14.792 19.8482 11
73 1 -15.994 2.18183 -3.95162 17
74 1 6.195 2.96322 13.1792 22
75 1 0.605477 13.858 17.7104 12
76 1 1.93711 -2.79367 13.0773 22
77 1 -3.87513 -9.20586 -0.856115 21
78 1 -16.4105 4.59993 14.2807 10
79 1 -14.7758 12.0019 8.62215 5
80 1 -6.7953 4.73386 -4.16087 18
81 1 3.80114 -4.16175 1.13445 22
82 1 5.98298 8.77837 -3.54594 13
83 1 10.5204 -8.56208 11.1366 12
84 1 -0.171768 -6.83326 16.3652 21
85 1 -12.096 12.8382 6.62863 11
86 1 -12.4896 9.91665 7.72297 17
87 1 -16.0762 -9.03988 14.5307 13
88 1 -4.40575 6.20956 11.1361 19
89 1 -7.11124 -9.87058 11.802 20
90 1 7.28563 -14.3153 0.820221 11
91 1 -12.2068 1.11923 10.9588 18
92 1 -10.1939 -17.9787 6.95391 13
93 1 8.47096 -9.49261 -5.4678 10
94 1 0.669568 -0.136279 -8.81535 19
95 1 -12.0083 -7.8276 -7.13916 15
96 1 -5.03286 12.7508 8.57611 18
97 1 -18.087 4.35167 -4.95918 9
98 1 -6.05028 7.13883 22.8091 12
99 1 -3.74618 13.981 -4.27496 10
100 1 -14.5363 9.03423 3.1563 12
101 1 -0.991807 10.5618 6.07104 20
102 1 -5.09386 -15.4645 15.3342 14
103 1 8.70439 -4.55004 14.6832 20
104 1 -3.84134 -9.3286 -4.18877 19
105 1 1.30928 -8.8136 -4.31724 20
106 1 -3.51693 0.176178 17.7499 15
107 1 -1.58411 -3.80733 23.0942 12
108 1 -11.9235 -7.75954 6.80937 22
109 1 -14.4836 -7.2792 -2.48884 18
110 1 8.36068 -7.34643 8.86169 20
111 1 -10.1007 5.17429 8.11353 22
112 1 1.66451 1.65846 -11.3044 12
113 1 3.15626 7.42872 -2.69914 18
114 1 -8.69448 -19.0641 16.0416 11
115 1 -13.5678 -12.0602 15.8852 8
116 1 1.20126 -11.607 -10.0504 10
117 1 0.394495 5.70203 -1.87898 20
118 1 8.86328 -10.1948 8.67088 17
119 1 -5.25625 -14.187 12.6274 17
120 1 -13.8068 -12.4756 7.64559 20
121 1 7.05878 8.22932 19.5592 13
122 1 9.51217 -2.99172 0.951969 15
123 1 -14.4819 -3.66579 6.54904 18
124 1 4.14115 5.37306 12.9341 22
125 1 9.88583 12.8102 12.5771 10
126 1 -4.79427 -3.6644 23.2903 13
127 1 -11.3657 11.1787 13.9854 10
128 1 -1.90525 15.67 -1.66649 7
129 1 -2.98794 -9.41518 -7.24965 20
130 1 7.07362 -10.6836 -3.50313 13
131 1 -4.91644 11.1603 -5.16193 16
132 1 6.36364 -5.6669 19.778 17
133 1 -6.09847 -3.92052 -8.75796 22
134 1 -5.04099 5.26345 -2.05123 21
135 1 7.7645 -0.115652 1.35441 21
136 1 -18.8921 5.52725 0.927245 13
137 1 -12.9298 10.3476 1.25091 11
138 1 3.76358 -0.873027 -4.01011 18
139 1 7.93552 -12.6991 10.4526 9
140 1 -7.55051 6.58503 0.686234 19
141 1 -11.4399 9.36103 10.6499 16
142 1 11.2754 -0.628296 6.85924 10
143 1 0.0643648 10.4951 2.17151 19
144 1 -9.8224 13.7676 4.39038 13
145 1 10.2834 8.96494 8.86104 15
146 1 -4.74182 7.51836 3.00925 18
147 1 1.31819 14.928 -0.420529 15
148 1 -2.60934 6.36466 -10.1969 16
149 1 -16.5416 -13.805 7.6119 10
150 1 -14.0487 5.44915 7.77121 20
151 1 -7.4213 -6.8376 -7.91434 20
152 1 3.67536 -9.9907 -9.20707 15
153 1 3.46076 8.30487 14.4793 19
154 1 -3.42323 13.8078 13.9052 16
155 1 -19.8885 -3.36704 2.98502 10
156 1 -11.5703 10.1557 4.36763 15
157 1 10.6619 3.28479 10.6114 11
158 1 -17.9074 -2.29724 -3.72466 10
159 1 4.20706 -3.51164 21.4321 22
160 1 -0.867354 19.496 1.32954 3
161 1 -4.56338 8.90039 12.7673 20
162 1 -5.37078 -9.00905 -10.1198 15
163 1 -2.87938 11.0445 15.2008 21
164 1 -4.38432 8.76107 0.0975262 20
165 1 -4.27034 -5.7892 18.2149 17
166 1 -13.8185 -6.60649 11.1935 21
167 1 -9.46702 -12.8727 -6.52667 10
168 1 -11.2927 10.9751 -1.42073 13
169 1 -5.6841 -9.37378 15.021 22
170 1 -0.289543 -18.9446 1.10231 11
171 1 -5.34867 7.45117 -7.29112 21
172 1 -16.8529 -2.18008 11.7025 18
173 1 6.5274 5.65007 4.51625 23
174 1 -12.372 -0.330281 16.083 18
175 1 -1.66549 -12.051 21.2222 7
176 1 -12.0491 0.964373 4.31856 22
177 1 -4.00424 14.8919 6.54733 16
178 1 -4.24832 2.58274 16.5348 23
179 1 6.99969 5.50726 21.5981 12
180 1 -7.90865 13.9735 10.0423 15
181 1 10.3567 -6.8748 0.342259 11
182 1 -8.74716 13.0509 15.2041 10
183 1 -10.3455 4.00396 -9.08087 18
184 1 9.68396 -5.2138 9.80967 17
185 1 -11.2313 -7.19795 9.73159 23
186 1 -18.4571 3.26179 11.9015 10
187 1 -9.82041 -16.4338 17.8405 12
188 1 2.62133 5.77242 19.1161 21
189 1 -18.554 3.87931 8.68492 12
190 1 -8.06209 -15.3931 6.60642 21
191 1 2.0668 -8.74853 2.80818 22
192 1 -6.84074 7.20627 8.1565 21
193 1 -4.01244 10.5583 18.9022 15
194 1 -11.2829 -4.75847 1.72765 21
195 1 -7.36061 13.0226 3.388 17
196 1 -20.1679 -6.93159 3.16683 6
197 1 -9.60911 -5.01911 16.2282 19
198 1 -5.58357 -13.2308 7.16495 23
199 1 0.305402 -13.3373 13.3901 15
200 1 -16.9504 5.85658 6.57995 14
201 1 8.434 0.111472 17.6907 17
202 1 4.18167 5.25734 3.10833 20
203 1 -11.9711 -10.3895 -6.07257 17
204 1 4.01022 -0.533366 16.6515 20
205 1 4.89479 -13.6553 11.6144 12
206 1 -11.0038 7.59061 -10.3519 15
207 1 0.325735 -16.1417 -0.882186 15
208 1 7.60485 -3.17572 -6.66585 13
209 1 -8.03272 9.52026 -11.1388 11
210 1 -10.2645 -6.02857 -2.46514 15
211 1 -5.11576 11.9644 0.67324 18
212 1 -8.60411 -8.63043 13.3904 20
213 1 6.36573 16.0069 1.9622 7
214 1 -8.28245 -6.48535 18.6321 19
215 1 -5.08884 10.8185 -2.43389 19
216 1 6.67963 0.160363 14.9583 20
217 1 -9.67418 -10.3368 -4.84884 19
218 1 -8.6215 6.54972 -1.86163 16
219 1 -2.0486 4.20533 -3.49791 22
220 1 -3.27925 -16.8378 16.8695 12
221 1 -6.33399 10.481 14.4447 20
222 1 -11.2013 7.78597 15.8936 16
223 1 -3.19333 -14.9436 -0.429 21
224 1 -11.947 -13.5751 1.61549 19
225 1 2.41858 -14.8402 6.47436 19
226 1 0.965202 3.97463 22.5765 18
227 1 6.44543 5.3967 -5.40671 12
228 1 -1.61159 7.32011 1.65737 23
229 1 -11.9299 -1.67135 9.42169 22
230 1 -16.3059 3.96488 1.39084 17
231 1 -1.65927 5.17472 15.7186 21
232 1 -2.0263 -20.3179 11.1645 12
233 1 6.98361 0.196436 4.74963 20
234 1 -1.66576 8.03535 10.9517 22
235 1 -11.4181 5.22066 13.0913 17
236 1 -13.0193 -13.0001 4.287 19
237 1 3.66771 2.31304 -8.96641 15
238 1 -1.17146 -0.782226 16.4266 17
239 1 -0.184659 10.8473 -7.94202 10
240 1 -6.14336 -15.6505 4.61905 18
241 1 -6.12054 -1.86828 -6.56863 18
242 1 -4.8802 -20.769 12.1428 9
243 1 3.64294 -1.11176 -0.672302 21
244 1 -11.0661 -4.16925 11.6159 20
245 1 6.41898 -15.2841 3.2812 13
246 1 -13.026 -4.81028 -4.84045 21
247 1 1.75866 11.5407 4.61185 17
248 1 0.948447 -6.02192 -9.17436 18
249 1 1.79494 0.900367 21.4688 21
250 1 10.2067 -3.01282 11.8199 18
251 1 9.37266 -7.41888 -3.26581 10
252 1 -10.1549 -3.2749 -3.88559 21
253 1 -14.1002 -5.2402 0.141299 18
254 1 -12.5551 -16.665 8.72587 11
255 1 6.20368 3.27704 16.6415 20
256 1 -0.497199 -3.9989 14.7404 19
257 1 -9.31977 -8.72503 -2.06803 20
258 1 -2.12668 3.96848 -6.81005 20
259 1 1.54736 8.56989 6.14983 21
260 1 -8.75327 -8.83505 9.56812 19
261 1 -0.385546 16.368 6.632 12
262 1 -7.02772 -3.529 17.8793 19
263 1 -11.3542 -10.5114 1.65848 16
264 1 -17.2376 -8.14867 -3.90533 11
265 1 -13.9467 6.84377 -8.87983 10
266 1 -10.1846 -11.1469 -0.442293 19
267 1 -7.9258 -12.2739 5.27822 20
268 1 0.939343 -1.2621 -12.1283 11
269 1 6.42158 -2.63596 -0.22734 18
270 1 6.34734 2.82652 6.08556 22
271 1 -5.47976 -12.4764 16.9639 16
272 1 -11.5166 -13.3135 10.3111 20
273 1 2.16817 -1.28146 23.6065 12
274 1 -7.03788 -18.7542 7.82047 16
275 1 -2.49294 -14.451 7.56992 20
276 1 -1.91363 10.4309 -0.111549 18
277 1 1.26522 2.64427 -7.31818 21
278 1 -9.25821 -3.05657 -7.34589 21
279 1 -11.935 -13.4815 18.484 10
280 1 -0.30872 6.15592 20.8257 20
281 1 -0.0371528 -13.3064 7.5896 22
282 1 -13.7962 -15.2538 -0.391473 10
283 1 -12.0572 5.55168 -3.43147 18
284 1 10.2131 4.08992 12.8875 19
285 1 -5.15135 4.82176 -8.86978 18
286 1 -4.16444 5.29123 -5.43191 18
287 1 4.12254 -4.77081 -6.103 17
288 1 -0.898387 15.9882 0.924562 14
289 1 3.03137 13.0307 14.8568 11
290 1 11.3557 -2.77371 8.20777 13
291 1 -15.0293 0.152758 11.2209 20
292 1 -5.46506 -9.62962 22.2957 12
293 1 -7.36869 8.70234 11.3821 19
294 1 -1.1589 -7.31651 -7.35944 19
295 1 8.97136 5.87536 2.09043 14
296 1 -1.22896 -13.5032 11.058 20
297 1 -0.731664 -7.49464 19.5982 13
298 1 -19.5869 -6.87397 9.67484 12
299 1 -2.62707 -17.7243 0.0262761 18
300 1 -12.9101 2.60932 13.6312 17
301 1 -9.21393 2.02739 16.8352 16
302 1 -15.8824 -7.96874 8.80428 22
303 1 -15.3341 -11.2939 10.1797 16
304 1 10.2659 -5.66479 6.07054 20
305 1 -12.8766 -12.1153 12.8215 18
306 1 5.71065 -8.18774 -7.19384 17
307 1 12.0683 -10.5289 3.62337 9
308 1 4.25367 10.0866 -0.806007 16
309 1 -7.25226 10.1862 0.0523851 20
310 1 6.06551 2.29826 23.4775 10
311 1 -11.7693 -4.29876 8.22387 19
312 1 4.40849 -16.2099 1.10774 11
313 1 -10.4049 12.2422 9.22762 14
314 1 -9.29519 5.76066 11.0824 21
315 1 0.192104 -12.0947 16.1807 14
316 1 8.21124 -5.98892 17.3534 14
317 1 -4.71886 6.01654 14.4572 18
318 1 -9.0964 -7.14417 1.03467 19
319 1 -5.60505 -1.39778 19.7977 14
320 1 -4.66449 11.915 11.5863 18
321 1 3.60778 5.42429 24.5658 8
322 1 -9.94919 12.4835 1.06686 13
323 1 -10.1486 -6.41449 -9.05774 16
324 1 4.21483 -13.882 -5.2096 11
325 1 -11.0128 -7.48996 17.8524 16
326 1 -18.2043 0.969904 10.5034 14
327 1 -6.53336 -6.70991 -3.93252 20
328 1 -7.37117 7.58237 5.56358 19
329 1 4.5725 -3.52061 11.4353 21
330 1 -7.65339 -17.9203 4.55355 17
331 1 3.72209 -10.4088 16.7406 13
332 1 -11.1463 -13.7735 15.4753 13
333 1 -14.6041 2.67239 5.9183 19
334 1 -3.04957 -5.86259 14.8218 21
335 1 -0.787392 -13.2473 4.41633 20
336 1 -7.18556 -1.31803 -3.56343 21
337 1 3.47069 -0.111436 -8.03385 16
338 1 -0.675429 15.7133 9.72632 10
339 1 -12.7716 -1.9755 0.571262 21
340 1 -1.70446 -10.0503 -9.82855 15
341 1 3.85052 4.42107 -4.34984 20
342 1 -14.3998 -10.2284 -3.60946 15
343 1 -16.0204 -1.18189 1.08953 22
344 1 -12.0128 -7.5989 3.44388 19
345 1 8.78773 1.33797 21.8927 12
346 1 10.8599 -0.666274 2.65798 11
347 1 -14.2404 7.55918 -2.5378 14
348 1 4.72199 13.0854 7.04673 18
349 1 -19.2237 -1.63062 0.898099 17
350 1 -9.9047 8.49177 8.46188 19
351 1 -9.44958 11.4188 5.4538 19
352 1 -6.5283 4.57374 12.7054 18
353 1 5.7944 0.725359 19.5944 18
354 1 4.73764 -6.44689 3.2138 21
355 1 4.73447 -5.76685 23.0715 10
356 1 10.6854 2.50113 -2.72273 9
357 1 -9.4184 -14.7584 3.61056 16
358 1 -0.391631 -10.0294 0.851918 22
359 1 -0.58595 7.76436 7.98124 21
360 1 -10.0925 -0.449397 -5.19811 22
361 1 2.47747 -11.7394 4.906 21
362 1 6.8069 0.648022 11.4087 20
363 1 -15.7744 -6.69565 2.74534 17
364 1 -6.72659 -12.4283 13.5304 20
365 1 -10.9961 -11.0391 19.1241 9
366 1 -4.05658 9.01777 5.78553 19
367 1 -15.2135 -14.5354 2.60695 11
368 1 -1.58098 4.5496 23.6247 11
369 1 -9.96375 4.53322 1.14218 16
370 1 3.53955 13.2439 0.836672 15
371 1 10.8588 6.8716 11.1109 16
372 1 -17.8647 -8.99378 1.45151 13
373 1 -4.78334 -12.9067 0.355026 18
374 1 -14.3415 -3.40447 12.8533 20
375 1 -17.824 6.94873 3.31355 12
376 1 2.68567 -8.70027 13.7147 19
377 1 -7.34603 -13.75 -1.17789 18
378 1 8.5402 12.409 3.51881 10
379 1 0.575304 5.00447 -9.27935 16
380 1 -14.9386 1.75893 -0.0297664 16
381 1 -7.85037 13.0641 -5.02257 8
382 1 -10.8544 8.51525 -3.59057 18
383 1 -5.77805 -17.5662 13.2242 20
384 1 12.6973 5.44396 13.2248 10
385 1 -4.58857 5.55236 -12.4007 7
386 1 -6.20168 -0.752416 16.3546 22
387 1 -19.1335 -0.738443 4.63366 18
388 1 -9.35368 2.65962 13.2706 21
389 1 -9.45763 -15.8943 9.54255 20
390 1 4.04524 -10.5469 -2.74015 16
391 1 -13.7875 5.90933 15.8653 12
392 1 -14.9087 -6.49748 13.6435 22
393 1 -17.8155 0.371244 13.959 12
394 1 -2.82826 -8.53495 13.247 21
395 1 -15.5358 -0.703996 -5.10285 13
396 1 6.15661 -11.0007 -7.15346 13
397 1 -7.10732 -10.1482 -3.57471 18
398 1 -8.42674 -6.1355 11.1919 23
399 1 -13.0917 2.04378 -9.52935 12
400 1 2.59461 -11.4817 7.72541 19
401 1 -2.17318 7.32081 -2.00129 20
402 1 -14.7974 8.10269 14.7348 9
403 1 -5.2939 -6.49935 23.7549 10
404 1 -15.6119 -4.60474 -2.93964 17
405 1 -10.9773 -9.86524 11.2176 23
406 1 5.78874 -9.55087 14.7471 13
407 1 -1.43268 -1.60682 -3.87977 21
408 1 7.58795 -5.13742 11.6533 23
409 1 9.15359 2.76268 2.47624 16
410 1 -9.22277 -0.503662 18.065 17
411 1 -2.71642 10.1321 3.14967 21
412 1 8.53824 -10.5949 12.868 9
413 1 -5.62805 -16.1489 1.40775 17
414 1 -7.81016 0.700199 20.4086 15
415 1 -7.91726 10.6367 9.19519 18
416 1 -17.3763 -10.0416 -1.35457 10
417 1 5.91336 7.65954 2.39586 16
418 1 -1.99293 5.03042 12.7715 24
419 1 -6.68706 2.26672 14.7359 23
420 1 -9.07144 -9.52557 3.0681 19
421 1 -9.55048 0.0242965 14.7842 20
422 1 -12.1453 -10.3959 -2.09228 21
423 1 -8.41386 12.0999 12.5275 16
424 1 -10.3593 -14.8789 -1.71618 14
425 1 -8.92916 -8.81378 -7.96662 14
426 1 -8.88573 -9.2464 6.38584 21
427 1 3.97241 -0.542309 13.1504 21
428 1 -9.51525 -12.6604 20.82 8
429 1 -18.1882 7.15642 -2.19991 8
430 1 3.78733 4.92366 6.49363 22
431 1 -15.1763 -12.3147 -1.68033 10
432 1 -7.10407 15.8121 5.10304 12
433 1 -4.69967 2.3857 -3.54551 21
434 1 -7.55978 8.03698 16.9638 17
435 1 -21.2666 0.702397 2.66809 11
436 1 4.71692 15.7654 -1.03085 7
437 1 3.17588 10.3598 -4.80807 11
438 1 -7.34292 -10.5595 -0.454531 16
439 1 -6.65838 -0.28974 23.1695 11
440 1 3.30638 -15.2909 -2.11713 12
441 1 -4.05627 -6.71299 -8.75292 21
442 1 4.71925 -15.7964 8.90011 12
443 1 -13.6212 7.45467 5.59956 17
444 1 -7.00872 -4.49189 20.9871 16
445 1 6.50214 2.78405 2.85299 21
446 1 -1.18459 7.77278 5.01479 19
447 1 -12.8602 11.0363 -4.1216 7
448 1 -1.99854 1.30572 -2.04285 23
449 1 -0.958357 -9.92363 11.4861 17
450 1 -16.9949 -5.9918 6.4697 14
451 1 0.143971 12.4447 14.076 18
452 1 -12.9806 3.75626 -6.86772 19
453 1 9.11103 1.97679 8.20386 17
454 1 7.47682 8.30464 -0.411571 11
455 1 4.86149 -16.4943 5.91402 15
456 1 9.79749 -1.04777 10.164 14
457 1 -0.454951 -2.6592 -9.15447 17
458 1 -3.03227 -11.7932 8.59275 23
459 1 -0.735381 -15.5591 15.5211 9
460 1 -0.196972 -10.0565 14.4897 22
461 1 -11.9141 1.21804 -1.01055 16
462 1 -14.5509 -14.1865 10.7139 12
463 1 -6.70552 -12.4053 -5.82713 16
464 1 7.05092 13.9769 8.73695 11
465 1 -4.56329 2.15928 -7.1032 17
466 1 0.438842 -6.84142 22.213 9
467 1 -14.5482 -3.60095 17.0181 12
468 1 -5.04503 -19.1894 5.86698 14
469 1 -17.851 0.932046 2.73744 22
470 1 13.2346 -7.08591 4.82225 10
471 1 7.81294 -5.55285 -1.02474 14
472 1 -7.82792 3.72339 -1.08412 17
473 1 -1.33351 -9.79625 -2.47746 21
474 1 -1.09182 1.90768 -5.40243 21
475 1 1.52615 -2.9185 -7.32365 17
476 1 -8.90809 -9.34633 19.6641 15
477 1 -1.98459 13.5367 7.88438 15
478 1 -15.021 -3.04293 -7.181 12
479 1 -0.353804 3.73778 -11.469 12
480 1 -8.30815 -8.65462 16.3767 21
481 1 -4.85142 14.0339 2.9736 16
482 1 -10.6553 -0.580874 -8.62735 16
483 1 -15.2922 -2.92406 9.56895 16
484 1 -1.30152 -13.4052 -7.65865 11
485 1 -10.7344 -16.9388 15.035 12
486 1 0.246588 8.37417 -3.79312 18
487 1 11.2571 4.42526 16.3113 11
488 1 9.23176 4.50956 5.11057 18
489 1 -10.8628 -18.039 3.36 12
490 1 -2.8345 -11.5256 5.81232 21
491 1 -11.9408 -4.04187 -8.70669 14
492 1 -12.3229 6.70336 10.0381 15
493 1 -1.62232 -7.19292 -4.05968 25
494 1 7.27648 -4.83188 7.9935 20
495 1 -3.06968 12.1021 -7.63715 12
496 1 1.80276 -8.81265 10.0356 19
497 1 6.11672 5.49747 0.463833 20
498 1 -7.63866 4.12523 21.8824 12
499 1 -14.4292 0.268203 13.9578 19
500 1 -1.35091 9.40354 20.5323 15
501 1 1.73723 -4.58934 23.2543 12
502 1 -3.9309 -3.59823 -10.7149 21
503 1 -11.9619 -7.87181 -4.0929 19
504 1 5.30399 -7.8728 18.6736 10
505 1 3.9395 8.36842 17.4725 20
506 1 -1.77951 7.45607 -5.67052 18
507 1 -6.36533 8.11926 -2.78908 19
508 1 1.13732 14.1012 2.61283 19
509 1 4.39477 -3.86488 17.9236 20
510 1 6.46979 -0.76589 -5.61761 14
511 1 6.74613 -11.3081 -0.514167 16
512 1 8.01769 4.63566 14.9501 17
513 1 -16.1471 -11.9996 4.9299 15
514 1 -7.63445 9.32665 -5.16774 17
515 1 -4.01949 -2.80105 16.2533 18
516 1 -12.2714 -1.78281 19.1291 10
517 1 -7.53544 13.0656 -1.58905 14
518 1 -0.7068 -13.0044 -0.584211 17
519 1 1.10817 -5.76103 -2.21183 21
520 1 0.610498 17.0382 3.50783 12
521 1 -15.2855 -9.27146 -6.61722 10
522 1 0.607738 -15.5842 9.19356 22
523 1 -19.7498 -3.58001 6.1918 11
524 1 -6.06685 10.2774 -8.50165 13
525 1 -3.75002 7.39829 20.2165 18
526 1 -12.8803 -9.29458 8.83695 19
527 1 6.00327 2.30925 -0.321946 19
528 1 1.41962 -12.1804 -2.26875 15
529 1 -4.57686 -12.9126 23.2441 5
530 1 -11.7279 4.29663 5.61094 20
531 1 1.056 -2.4709 20.474 20
532 1 3.82362 16.2339 3.63018 11
533 1 7.67517 -5.75294 1.73962 19
534 1 0.926086 9.14464 16.2672 18
535 1 -8.25158 0.725588 -7.74319 18
536 1 -3.6676 -15.6702 10.1537 19
537 1 -3.96807 -0.512386 -4.79758 20
538 1 -1.39337 0.358969 -11.7515 15
539 1 6.2781 9.3254 11.6982 15
540 1 6.72531 3.25519 -3.23951 16
541 1 -6.07668 -3.47921 -12.8203 10
542 1 -8.40102 -12.4664 8.69611 20
543 1 -13.9438 -6.11233 -8.5927 10
544 1 6.20912 0.468865 8.34574 20
545 1 9.76308 1.25333 4.85067 15
546 1 6.58361 -5.44004 -3.91798 17
547 1 5.78242 6.31472 14.8369 18
548 1 1.02434 -12.3141 2.00351 22
549 1 -8.09044 6.68679 -9.92721 17
550 1 1.70333 15.0984 12.4833 10
551 1 -12.1379 1.01306 8.09629 19
552 1 4.27422 7.82889 21.7698 12
553 1 9.62432 4.70037 -4.28505 8
554 1 5.52986 -6.28674 16.1166 23
555 1 3.83554 1.74555 -2.12669 23
556 1 -1.54316 2.91438 20.9884 22
557 1 10.18 2.74269 19.1952 13
558 1 2.51425 -5.3564 14.7029 23
559 1 7.55469 9.44429 4.89841 18
560 1 -1.41459 -0.0935177 20.0094 17
561 1 10.0688 -7.06468 3.29349 18
562 1 4.08985 2.5768 17.9206 22
563 1 -9.5983 -0.569146 -2.12485 20
564 1 6.76279 5.58101 7.55085 20
565 1 11.7026 -7.28257 8.35641 11
566 1 -15.5699 -0.248032 16.3362 11
567 1 4.59341 10.2132 19.6843 12
568 1 5.18333 0.0442806 22.6009 14
569 1 0.815495 9.69895 13.0593 20
570 1 -2.23478 13.3993 16.3428 13
571 1 1.07236 3.06204 12.9848 24
572 1 -5.17112 -18.8195 9.94518 20
573 1 -6.47305 10.3937 6.05917 21
574 1 3.85021 7.39928 -5.51607 14
575 1 6.10291 -5.08168 -8.48394 12
576 1 2.19943 14.3897 5.53931 18
577 1 -4.50453 -17.2545 -3.1055 10
578 1 1.92686 -12.8621 -7.16882 13
579 1 -13.1351 -5.84257 15.8505 17
580 1 -10.1793 2.69319 -6.18743 20
581 1 -5.409 -20.0886 2.87223 12
582 1 -7.44968 -4.50953 -5.38385 20
583 1 -17.1158 -2.53689 4.10376 19
584 1 5.75124 -12.3133 8.68275 17
585 1 4.27861 10.4608 6.26388 19
586 1 -3.23162 -11.9011 12.156 17
587 1 -19.0749 1.51043 -3.01344 10
588 1 -3.82514 -0.950704 -12.6752 10
589 1 -6.39318 5.6034 19.4772 23
590 1 -2.62981 8.99291 -11.5799 8
591 1 9.7546 -0.476498 19.8303 13
592 1 0.692861 2.74111 -0.086038 24
593 1 9.6034 11.9339 8.91161 13
594 1 2.50184 -18.1954 3.62166 11
595 1 -14.0298 -8.70962 17.1623 12
596 1 7.06552 -2.39514 13.228 20
597 1 -0.334768 11.1437 18.0865 22
598 1 -1.15593 14.3933 -6.74766 5
599 1 -12.411 6.71695 2.60748 21
600 1 5.54945 7.15415 9.65159 18
601 1 -9.26355 -15.5451 12.6927 17
602 1 13.3692 -2.99146 5.41651 6
603 1 6.12298 14.8987 5.15652 12
604 1 -6.32285 1.84 18.3321 25
605 1 -13.9323 -15.5356 6.26161 15
606 1 -12.5443 -3.92669 -1.67976 20
607 1 3.84955 3.2838 21.3224 20
608 1 -6.5677 -11.7004 20.4594 14
609 1 6.92677 3.02075 20.2681 19
610 1 -9.38731 14.9124 7.17995 12
611 1 3.52737 2.13456 7.89923 23
612 1 3.73284 1.86179 11.386 23
613 1 -9.22056 -3.30326 -10.4895 13
614 1 -5.68148 -6.84537 16.208 23
615 1 1.2582 -3.03753 -4.00362 20
616 1 8.77387 -13.3477 3.57842 11
617 1 3.65986 1.96055 14.5366 21
618 1 -6.29912 -7.68912 20.9366 14
619 1 7.99304 6.90757 12.7683 17
620 1 1.24345 -5.02353 18.4306 18
621 1 -7.33055 9.29227 20.1293 13
622 1 -4.26699 -6.4763 -6.07018 21
623 1 -10.3117 4.02635 15.6734 16
624 1 1.48349 3.15654 19.7806 21
625 1 -12.0476 -15.6468 11.8062 15
626 1 6.84719 9.4518 8.0806 22
627 1 1.16098 -18.6744 10.2265 12
628 1 5.06452 7.62388 5.65626 19
629 1 8.9114 10.225 10.9697 19
630 1 -1.36078 -2.96305 -12.7947 13
631 1 -1.94461 13.0501 1.85956 16
632 1 3.25858 7.78839 8.19594 21
633 1 -11.7488 -10.7113 4.99078 22
634 1 -6.75647 -1.03262 -10.3707 13
635 1 -10.0437 8.59537 0.178628 18
636 1 4.17066 -7.35377 -3.72608 20
637 1 3.20686 4.56337 -7.47241 16
638 1 3.75944 10.3875 2.75323 15
639 1 -9.8324 5.4685 4.12838 17
640 1 1.22783 5.35611 1.19884 19
641 1 7.80701 -4.51799 22.6414 12
642 1 5.55829 -2.0847 23.9912 11
643 1 -6.67705 -17.3705 17.9893 10
644 1 -12.1041 9.40727 -7.48911 13
645 1 1.29678 11.9435 20.8869 12
646 1 1.26999 -8.8451 -7.69354 19
647 1 1.40275 0.378832 15.1657 20
648 1 1.97363 11.9107 7.77384 20
649 1 6.25129 3.13528 9.53428 20
650 1 11.3577 -8.92341 6.06156 17
651 1 -3.20449 -0.847862 23.1291 11
652 1 -18.478 -10.1918 9.7296 10
653 1 -0.60054 -18.5411 4.23911 15
654 1 -4.19939 -3.57452 -4.10689 24
655 1 -6.64708 13.2608 5.97185 19
656 1 4.28891 10.8539 12.8698 17
657 1 -20.0328 -4.62375 11.4237 12
658 1 -4.79988 1.09 21.507 17
659 1 -9.87039 11.0331 -9.66516 8
660 1 -15.9584 2.30086 -6.91196 12
661 1 -0.0222178 -16.017 2.39324 19
662 1 5.70753 6.05156 -2.46357 19
663 1 -18.4186 -6.15941 13.4883 15
664 1 1.04217 -6.67692 -5.84144 16
665 1 -2.5959 -15.5283 13.4338 18
666 1 -1.47181 14.5693 4.39173 18
667 1 -7.53553 -3.20214 23.7999 8
668 1 -9.86574 -6.23678 -5.55819 19
669 1 -6.37898 -8.92336 -6.54768 19
670 1 -9.86168 -16.4266 0.717901 14
671 1 -1.88931 10.5274 -4.04676 16
672 1 7.1232 -11.41 6.29605 19
673 1 -1.94218 11.0696 12.3103 20
674 1 3.16159 -14.8184 3.49803 20
675 1 0.0366231 -19.9567 7.10576 11
676 1 6.98261 -7.9377 11.007 20
677 1 10.2536 0.908869 0.510804 11
678 1 -0.752575 -13.1525 -4.72494 15
679 1 -12.3288 -8.9847 14.8998 20
680 1 -7.81348 -18.689 1.40268 12
681 1 -12.0918 -7.76494 -0.0877824 17
682 1 -11.9234 -1.20524 12.9433 20
683 1 -12.4261 -15.7494 3.17311 17
684 1 6.70632 0.241927 -2.22622 18
685 1 -6.22352 16.7545 8.07354 8
686 1 -16.1255 5.43373 9.98141 16
687 1 6.65503 -2.13078 9.81545 20
688 1 -15.7278 -6.42499 -6.28614 12
689 1 -1.95136 4.64948 -0.337357 21
690 1 1.14882 2.56944 -3.35123 22
691 1 2.82652 11.6073 18.0985 15
692 1 9.65372 -2.42279 4.60671 19
693 1 -20.0032 -0.698158 -1.81401 11
694 1 -17.9119 -6.88105 -1.34834 13
695 1 -9.07454 6.71838 21.021 13
696 1 0.382586 8.12778 -9.55053 12
697 1 3.16674 8.01488 11.6089 21
698 1 -5.90391 -4.36483 14.716 23
699 1 -2.97674 -20.3975 1.36778 9
700 1 -10.1458 -18.9581 12.9384 13
701 1 -5.70352 -6.98671 12.9295 21
702 1 8.75897 7.86937 16.2134 15
703 1 -3.85366 -12.1276 -5.60675 17
704 1 -4.47815 15.209 11.2 14
705 1 0.750513 9.58835 9.68342 21
706 1 -12.0628 -3.27928 14.7432 19
707 1 2.87592 5.17102 -11.1094 8
708 1 -5.17916 -18.7169 -0.148627 14
709 1 -2.25759 -18.5744 14.5739 13
710 1 -2.46414 -20.6704 4.24575 11
711 1 0.256464 5.37004 -5.55367 19
712 1 2.06662 15.258 9.40271 12
713 1 -12.4415 -2.05139 -6.08831 18
714 1 0.91383 0.434243 18.2116 20
715 1 -12.0423 5.266 -11.4267 7
716 1 -12.6624 2.27006 -3.69704 17
717 1 -14.4972 -9.487 3.3683 20
718 1 3.1244 13.135 -2.43123 12
719 1 -7.64041 -5.89983 -11.0163 12
720 1 -14.042 -6.11484 8.15883 21
721 1 3.39167 4.43946 -0.560246 23
722 1 10.3884 -12.1538 6.27361 9
723 1 -8.40835 6.35811 13.9811 20
724 1 5.32836 -9.52515 7.83706 21
725 1 7.59659 -8.15174 5.51382 18
726 1 7.27846 -3.20893 16.8061 22
727 1 -2.53387 10.4812 9.04244 17
728 1 -16.7126 -6.2494 16.5558 11
729 1 -8.60642 3.30363 19.5519 15
730 1 -5.32617 -19.4217 16.0012 12
731 1 7.72877 4.67234 11.2104 17
732 1 1.65237 9.08111 19.9764 17
733 1 -20.4997 -1.8005 9.79567 10
734 1 7.46105 -14.7898 6.66147 13
735 1 -11.9317 6.22313 -0.696463 14
736 1 -0.70248 -17.3276 11.9108 16
737 1 1.68169 -2.65258 16.7922 21
738 1 3.89238 10.7444 9.69692 24
739 1 -5.4172 -12.6064 10.3484 20
740 1 -11.7423 -4.57592 5.00024 20
741 1 -1.40408 2.49122 18.4426 21
742 1 -17.627 -8.78073 4.30702 18
743 1 -9.25697 5.65448 18.3287 17
744 1 1.59857 12.1467 11.234 21
745 1 -9.27073 -12.4736 11.2394 20
746 1 -7.50153 -20.3438 13.5823 13
747 1 5.08313 -6.79695 13.1712 20
748 1 9.73401 -4.0836 20.2445 12
749 1 0.654848 6.56549 14.4738 22
750 1 3.1555 -13.1719 0.242059 15
751 1 -7.86003 6.43239 -6.80108 16
752 1 -6.08141 -9.93914 18.2654 17
753 1 -1.42513 13.7714 11.5547 16
754 1 12.1299 -2.79561 14.3644 9
755 1 0.409241 8.23403 -0.296259 20
756 1 -10.1934 9.08807 18.6158 10
757 1 2.94275 5.01051 16.037 23
758 1 3.22964 -3.80325 -9.53969 15
759 1 -10.6061 -13.453 6.85481 18
760 1 8.29346 -7.49671 13.8122 17
761 1 -1.58661 -4.41263 -5.49011 21
762 1 -4.52375 8.58651 16.0425 18
763 1 9.2224 -9.34409 1.54744 11
764 1 -7.72867 3.79576 -7.99199 20
765 1 -5.1405 -10.0509 1.58441 18
766 1 3.8698 1.84995 -5.24967 20
767 1 9.93924 0.581587 12.6545 14
768 1 -1.40099 -3.6874 17.9877 14
769 1 -2.8809 -12.1107 -2.7076 19
770 1 7.78377 12.3722 6.33605 17
771 1 -15.1935 2.15131 9.07297 20
772 1 3.37611 1.92538 1.38708 22
773 1 11.3053 9.46036 12.6191 11
774 1 -5.12157 -6.76694 -12.2587 12
775 1 -7.16574 15.4325 12.9825 10
776 1 10.1855 10.6132 15.4105 9
777 1 9.3881 3.75573 -0.590663 15
778 1 -3.69599 2.23733 -10.7306 14
779 1 4.6883 -6.5283 6.70531 19
780 1 -14.9153 -0.688787 4.4057 21
781 1 9.88506 5.52759 8.42579 15
782 1 -13.1091 -18.254 5.38819 9
783 1 -17.905 4.01844 -1.53707 18
784 1 0.901818 3.19921 16.3254 22
785 1 -15.0987 -1.18958 -2.06719 18
786 1 -15.6909 3.35671 11.8926 16
787 1 -6.90974 1.57156 -2.19707 21
788 1 5.42955 -12.1926 2.83526 21
789 1 -16.6084 -11.6953 1.81065 12
790 1 7.62588 -5.00349 4.93342 20
791 1 -20.228 2.28233 5.98729 13
792 1 -14.1075 -3.69578 3.20453 19
793 1 6.84249 11.8407 14.3624 13
794 1 -17.2304 -8.44259 11.7449 18
795 1 9.22069 -1.74742 22.9702 10
796 1 10.9896 -5.74271 12.7281 12
797 1 4.61297 -6.58402 10.0821 20
798 1 -14.4875 -0.283163 7.49166 19
799 1 -2.21319 8.1943 14.279 22
800 1 1.34844 8.25503 -6.7562 15
801 1 -4.38612 -11.9934 -8.73914 11
802 1 -5.01659 16.7278 14.7096 9
803 1 -9.52913 -11.4506 13.7866 18
804 1 3.41841 7.60529 0.774689 20
805 1 -3.16309 5.16745 18.1292 19
806 1 6.53177 -8.99641 1.62569 16
807 1 0.356688 -10.1107 18.4022 16
808 1 -8.81721 8.94256 -8.11836 18
809 1 1.01187 12.0924 -3.88269 9
810 1 -9.04263 -2.31577 15.6477 20
811 1 8.57441 5.51208 18.5896 16
812 1 -3.25328 -3.60597 -7.64065 18
813 1 9.95015 7.36701 5.33738 14
814 1 -16.9616 1.37709 5.68514 16
815 1 -3.20196 -11.232 15.1407 18
816 1 1.32665 11.8127 -0.328276 17
817 1 6.67936 -1.8896 20.0335 20
818 1 -3.03768 -15.9432 3.27939 18
819 1 -4.60481 14.7097 -0.363605 9
820 1 -19.9108 5.11918 5.90597 10
821 1 3.85407 -4.06077 -2.09104 18
822 1 1.41496 -15.83 -3.97467 10
823 1 -12.8494 4.00257 10.4394 19
824 1 9.47459 1.45012 -6.03572 6
825 1 -8.87071 -2.95508 12.7587 22
826 1 1.79453 -4.83234 -11.8578 12
827 1 -8.75432 -12.1124 1.91073 16
828 1 -2.23828 -13.1793 1.87301 19
829 1 6.27442 9.88684 16.6811 14
830 1 1.86806 -17.5978 7.08441 15
831 1 -10.3232 13.6663 -2.35137 9
832 1 6.46444 -2.94881 2.75012 20
833 1 3.35556 4.83452 9.9805 22
834 1 -3.4623 -20.2325 7.70918 13
835 1 -1.70801 -6.12012 -11.0737 15
836 1 7.35887 -2.28536 6.23404 16
837 1 -4.22097 -0.456996 -8.6811 21
838 1 -3.42449 -9.28492 19.7472 16
839 1 5.05699 12.7338 3.90511 21
840 1 0.955594 -0.394605 -2.10496 23
841 1 -12.6999 3.89284 2.74893 20
842 1 -19.7905 -2.51663 13.3239 9
843 1 -4.69172 4.26625 22.8373 15
844 1 -8.24804 -5.83684 14.0116 21
845 1 0.863187 6.18811 11.5052 21
846 1 -4.57928 -12.9317 3.70536 18
847 1 1.32296 7.90043 2.92673 19
848 1 -6.84086 4.87198 16.4152 21
849 1 -9.5461 -2.48515 21.0181 12
850 1 -16.5818 8.3642 11.792 6
851 1 3.89798 2.07948 4.67348 21
852 1 -8.01396 -11.4012 16.4272 17
853 1 2.39531 -15.406 11.9805 11
854 1 5.58023 5.69039 17.9994 22
855 1 1.77303 -8.51736 -1.75079 21
856 1 7.02148 -13.9483 -5.63494 8
857 1 -13.0538 0.79224 -6.29737 18
858 1 -9.24694 1.49784 -10.4048 10
859 1 6.57813 12.5954 11.805 16
860 1 -14.0599 -9.46378 11.8545 20
861 1 -12.8287 7.72704 -5.17955 15
862 1 -20.389 2.63331 -0.151279 12
863 1 6.34538 11.4713 0.814706 12
864 1 -7.99898 -18.2867 10.5146 18
865 1 -4.86991 8.75228 9.47533 18
866 1 11.5954 7.20381 14.5679 14
867 1 -12.3242 -13.3206 -2.40812 14
868 1 -1.5331 13.1945 19.6146 10
869 1 -11.2061 -4.03602 18.6945 13
870 1 -4.66246 -14.2608 -3.52869 16
871 1 10.3127 -2.82485 17.4149 13
872 1 -1.97881 -17.6739 8.9183 20
873 1 -2.80501 7.39397 22.8529 10