ITEM: TIMESTEP
21000
ITEM: NUMBER OF ATOMS
2000
ITEM: BOX BOUNDS pp pp pp
-30.0 30.0
-30.0 30.0
-30.0 30.0
ITEM: ATOMS id type x y z Coordination
1 1 -14.0404 5.95719 -10.4118 10
2 1 -9.03936 -9.62705 -5.52401 13
3 1 0.675465 13.1757 16.3104 15
4 1 8.22057 -9.97981 6.97228 16
5 1 -10.9941 9.82997 -5.30127 17
6 1 10.3604 -4.80952 -4.24248 16
7 1 -7.95192 8.8668 -3.93789 20
8 1 -3.64636 -3.27732 19.8921 9
9 1 -6.03406 2.01479 -7.99573 20
10 1 -11.7494 -8.25718 8.95856 19
11 1 10.5841 4.98397 -6.20247 21
12 1 -6.51107 -10.7313 1.29496 23
13 1 -14.9981 -6.97183 7.74699 13
14 1 -1.92261 4.33807 21.4812 9
15 1 1.81677 6.01167 11.1309 22
16 1 -4.06838 8.35375 -11.184 17
17 1 1.62769 0.714272 15.1359 18
18 1 -7.31593 1.60201 -11.6268 21
19 1 -15.1869 0.725369 12.9104 12
20 1 11.3076 4.76605 9.87648 22
21 1 1.55639 12.0935 -10.327 18
22 1 -2.71113 7.8181 -16.1167 13
23 1 13.3401 4.30647 15.1139 11
24 1 -12.7154 4.58622 -4.59996 23
25 1 -10.708 8.89418 12.1151 16
26 1 5.57752 -12.078 6.44448 12
27 1 2.1236 -12.404 -4.29661 16
28 1 6.92336 -13.44 3.84009 12
29 1 -6.38692 -9.75063 -4.10339 21
30 1 -15.1748 -5.32469 13.2523 9
31 1 1.76575 -7.04071 -4.27265 17
32 1 10.0936 -5.89132 -7.34438 14
33 1 -5.49121 6.13008 -16.0401 14
34 1 0.768836 3.55623 16.0164 21
35 1 -3.74782 -10.6486 8.20122 22
36 1 3.47309 -9.58112 13.8838 7
37 1 -15.9212 -1.86066 2.0524 14
38 1 -14.0328 2.51235 8.03066 19
39 1 -9.87986 -0.255675 0.857866 19
40 1 -2.63777 13.5003 -1.13371 18
41 1 0.176309 -11.2014 -9.03723 9
42 1 0.824957 0.866039 -9.00866 21
43 1 5.11217 -2.92431 -7.7037 19
44 1 -4.83835 -1.33586 15.7299 19
45 1 -11.6124 7.39329 1.12618 17
46 1 4.24616 11.1922 -12.184 15
47 1 -3.93434 13.5966 9.58713 19
48 1 -9.02563 15.0288 -3.53563 13
49 1 -1.20662 15.1995 1.24322 19
50 1 -0.892073 -11.0737 1.12175 20
51 1 4.30578 -4.84246 -4.28255 18
52 1 2.00833 -1.51249 -13.6551 14
53 1 -9.44243 10.5938 15.0302 10
54 1 -9.29657 -3.43579 -7.79591 16
55 1 -3.27066 11.1042 -2.90381 19
56 1 -7.08358 -9.64371 7.88953 19
57 1 -4.78997 14.0536 16.3873 10
58 1 -11.8324 10.9509 -8.13672 14
59 1 -5.19622 9.79052 13.3827 14
60 1 -4.238 -15.1268 11.0821 11
61 1 6.54307 7.55449 9.35276 20
62 1 5.0534 -12.2299 2.42351 12
63 1 5.15743 15.6265 13.1517 16
64 1 -12.7533 3.15696 -11.8747 14
65 1 -14.0045 9.62122 -5.60129 11
66 1 3.1113 12.2536 8.06271 19
67 1 12.0687 -0.260308 -8.6094 15
68 1 9.23606 -11.9953 5.07395 11
69 1 -15.6449 0.832712 5.20477 20
70 1 4.50873 20.2895 6.26214 12
71 1 3.04542 -3.01184 17.8151 9
72 1 -5.07876 -7.66888 9.37627 19
73 1 -15.0685 3.66821 -0.306847 15
74 1 8.70751 1.3817 13.7314 17
75 1 -2.62363 16.4405 11.1864 15
76 1 4.61977 -0.536939 9.85413 18
77 1 -1.69335 -4.82972 -3.94161 21
78 1 -13.6744 7.43246 10.9441 13
79 1 -5.81237 12.4585 -1.06319 19
80 1 -2.83936 8.35486 -7.85539 18
81 1 7.32366 0.184284 -1.93834 19
82 1 6.11734 11.62 -6.61621 16
83 1 6.25048 -3.51582 6.7714 19
84 1 6.21339 -7.27132 10.499 17
85 1 -2.4792 13.8878 -4.69929 18
86 1 -9.63102 16.0448 8.93264 9
87 1 -8.84509 -3.46868 16.829 12
88 1 -1.3651 8.17581 10.9812 16
89 1 -6.05557 -3.60262 18.0424 17
90 1 13.4387 -5.39102 -1.40794 10
91 1 -11.3434 4.54571 3.71982 21
92 1 -11.7868 -12.2544 3.95422 15
93 1 10.2239 -6.51388 -1.70078 15
94 1 0.7417 1.11944 -12.1756 21
95 1 -5.78796 -0.214148 -13.6322 19
96 1 1.12345 11.2105 5.20262 21
97 1 -6.37041 12.9799 -9.13806 21
98 1 2.90303 11.3763 19.9288 10
99 1 -1.0625 16.0872 -3.18443 19
100 1 -12.6012 10.7355 3.41387 12
101 1 4.18171 11.8316 2.94502 22
102 1 -3.97737 -4.08175 13.4669 21
103 1 6.22239 -0.0309895 16.3353 14
104 1 1.24892 -4.97515 -6.27451 22
105 1 3.19172 -4.54543 -9.84106 15
106 1 -4.22258 6.23848 10.9939 18
107 1 3.57263 0.209779 19.4922 12
108 1 -12.4051 -4.71333 0.956727 17
109 1 -11.9848 -4.54281 -1.88437 18
110 1 11.473 -9.52776 6.82139 9
111 1 -6.86184 9.7645 4.15895 18
112 1 5.35164 6.3803 -13.7706 14
113 1 2.5546 19.0605 3.34837 16
114 1 -7.85217 -8.36271 14.2927 11
115 1 -5.86171 -12.7446 9.58251 18
116 1 2.94331 -6.67311 -11.7938 11
117 1 7.15912 7.8334 -2.5594 20
118 1 13.5632 -5.09322 2.05996 9
119 1 -1.67896 -15.7689 9.45551 8
120 1 -10.3197 -2.78424 -0.328262 17
121 1 14.5513 10.6382 10.365 11
122 1 11.4971 2.60657 -4.83165 19
123 1 -15.4418 -4.71584 5.61368 18
124 1 12.3173 8.01193 10.247 20
125 1 11.9688 9.97441 6.86365 22
126 1 -7.48555 6.54966 19.9346 10
127 1 1.41561 6.35118 14.1378 18
128 1 -2.67571 11.3318 -6.21323 20
129 1 -3.86985 -6.877 -5.26788 18
130 1 7.50841 -10.5578 -6.36949 11
131 1 -0.704115 15.9037 -6.37969 17
132 1 6.08365 -4.00988 15.2364 16
133 1 1.02213 4.57187 -17.4355 12
134 1 -0.824097 8.71972 -5.28166 20
135 1 9.59803 2.74301 -0.929431 17
136 1 -12.7586 11.1006 -2.95741 12
137 1 -7.80074 15.4048 2.89569 16
138 1 5.75617 6.10393 -6.34669 18
139 1 5.79517 -9.09347 7.36284 14
140 1 -5.83958 11.4002 -5.85774 21
141 1 -7.13551 13.9685 10.7109 15
142 1 9.16983 10.6553 -2.1098 19
143 1 2.48666 13.2778 0.733898 20
144 1 -4.90897 15.5012 3.93404 17
145 1 6.43009 10.8121 -2.55483 21
146 1 -0.374704 11.8653 -3.83892 21
147 1 -1.65168 17.3878 -8.78553 13
148 1 0.897664 7.56299 -15.4335 15
149 1 -12.9038 -9.68164 6.56775 15
150 1 -12.8198 10.3416 0.492202 14
151 1 -9.07204 -0.743284 -9.41205 18
152 1 1.92205 -10.2648 -6.6756 16
153 1 10.8625 14.8782 11.3236 11
154 1 -3.13724 17.7182 5.26739 20
155 1 -12.3846 1.142 -5.028 21
156 1 -11.5257 12.8257 7.76525 12
157 1 13.7689 4.45383 -2.45814 15
158 1 -9.39088 6.537 -12.0869 12
159 1 3.80952 3.61577 20.4061 14
160 1 1.17898 21.2129 4.95236 11
161 1 3.25623 12.1931 13.5963 23
162 1 -0.230318 -6.44175 -12.4382 10
163 1 -4.59147 13.4637 12.6374 17
164 1 0.858419 13.4592 -6.98696 16
165 1 2.9422 -4.28754 14.5771 17
166 1 -13.9604 -3.35969 8.15329 16
167 1 -5.34276 -8.50503 -10.0325 12
168 1 -6.5067 14.4573 -5.47379 15
169 1 -4.34084 -4.58215 8.15757 20
170 1 2.03304 -15.6259 -3.50817 10
171 1 -6.15067 11.9634 -13.99 9
172 1 -17.272 3.20421 8.51069 12
173 1 10.2739 16.4543 0.117969 12
174 1 -8.16239 4.05057 14.1208 20
175 1 -4.20146 -6.85796 12.4563 21
176 1 -9.14787 5.59286 1.29298 24
177 1 -2.52485 20.551 0.635977 14
178 1 3.09052 9.35718 12.4079 19
179 1 9.42803 6.86415 15.8765 17
180 1 -8.37981 13.9166 8.17632 18
181 1 11.1986 -2.88869 -7.42258 18
182 1 -7.46288 13.5502 14.9513 9
183 1 -4.91282 4.26351 -6.79355 20
184 1 13.6995 -2.1366 4.11094 15
185 1 -8.13139 -2.58346 8.49246 18
186 1 -18.4441 -1.0159 3.55413 12
187 1 -9.99841 -5.32486 8.32135 18
188 1 6.09134 10.9452 15.66 21
189 1 -15.4664 3.17637 -4.15422 13
190 1 -7.87492 -16.3914 -0.713892 6
191 1 5.68442 -5.85659 0.0105298 17
192 1 -4.57649 11.2102 4.2875 20
193 1 2.92296 15.431 14.4746 13
194 1 -10.1416 2.50252 -3.26827 22
195 1 -6.67671 16.0299 -7.63786 15
196 1 -14.262 2.80238 -6.68633 19
197 1 -9.74761 0.140868 11.3583 18
198 1 -3.14088 -7.84396 7.34294 18
199 1 -0.528672 -12.034 6.88984 18
200 1 -10.6173 9.86768 5.7712 17
201 1 13.2342 7.05131 7.09523 20
202 1 5.22494 5.05029 -3.22369 22
203 1 -4.0238 -2.47543 -15.3947 11
204 1 3.59095 3.88422 14.4321 22
205 1 2.32926 -12.3419 7.5968 12
206 1 -1.77738 8.60801 -12.8344 23
207 1 4.98959 -7.21266 -10.2334 16
208 1 8.09841 3.41217 -6.82262 18
209 1 0.380436 4.44959 -13.7038 21
210 1 -10.5162 -4.53778 -5.2705 20
211 1 -5.50146 18.9031 -2.91718 10
212 1 -12.1754 -6.79676 12.3214 11
213 1 3.44862 16.2029 -1.34812 19
214 1 -7.8518 3.56337 17.9893 16
215 1 -3.60274 14.5532 -7.54142 18
216 1 3.52494 3.35481 11.8451 18
217 1 -5.84027 -5.16716 -9.67741 16
218 1 -3.28224 19.7898 -5.52483 8
219 1 -0.922761 6.61843 -10.7474 19
220 1 -8.70757 -11.3408 9.99478 14
221 1 -9.48353 6.07138 10.8952 18
222 1 -7.14523 6.78029 15.8235 19
223 1 -0.398276 -7.58198 -1.746 23
224 1 -7.45569 -13.5875 0.53882 16
225 1 12.234 -7.98684 3.82106 9
226 1 9.61035 12.1017 14.8103 15
227 1 4.08308 11.5953 -8.48473 19
228 1 -0.250935 11.8173 -0.0181269 20
229 1 -12.8066 1.51746 1.42364 21
230 1 -10.0571 12.3935 1.50759 15
231 1 4.88977 5.42488 10.2935 18
232 1 2.06058 -17.0334 4.31722 11
233 1 11.8975 3.71111 2.93774 17
234 1 1.62566 11.5176 10.7508 21
235 1 -9.8781 6.79808 7.59128 17
236 1 -12.1881 -7.66792 -1.52101 17
237 1 8.29832 6.69276 -7.63743 22
238 1 2.32388 0.8998 11.1143 19
239 1 9.07934 12.4528 -10.1509 10
240 1 3.9271 -8.61659 -2.03228 19
241 1 -3.39606 4.03304 -10.2919 18
242 1 -1.95389 -16.4245 6.46181 14
243 1 4.31602 0.0808381 -3.45271 20
244 1 -9.90842 0.518658 4.74836 20
245 1 0.872636 -15.7049 1.81012 15
246 1 -4.81734 -3.46215 -7.42127 16
247 1 5.16436 18.1597 1.32295 14
248 1 0.109612 -2.34397 -11.4051 19
249 1 2.00914 6.17556 20.4926 13
250 1 15.2989 1.83171 8.80144 10
251 1 10.1442 1.53976 -10.5409 15
252 1 -6.64778 3.82879 -9.98672 19
253 1 -8.94152 -3.86991 -11.0398 17
254 1 -6.60081 -12.5175 12.7866 12
255 1 7.37905 -0.161854 10.8383 18
256 1 3.44584 -2.9755 11.702 18
257 1 -6.12297 -3.80928 -12.4266 16
258 1 3.15135 5.39243 -15.5508 14
259 1 8.01862 7.70301 3.99045 19
260 1 -10.6955 -5.36658 4.56593 19
261 1 -4.34703 13.9432 6.37617 18
262 1 -8.38271 -1.5255 13.9882 21
263 1 -12.4149 -4.90823 -7.64304 11
264 1 -6.41316 -1.61827 -10.4419 23
265 1 -3.90623 4.66476 -18.2595 8
266 1 -8.95865 -8.28341 -2.43524 20
267 1 -3.22612 -10.1762 5.51883 21
268 1 5.65568 -1.90221 -12.4516 14
269 1 12.2121 3.19112 -8.17688 14
270 1 10.1362 3.7973 6.38304 21
271 1 -10.7501 -3.25032 13.7149 14
272 1 -4.68817 -8.22377 3.62925 22
273 1 5.60585 9.11265 19.933 13
274 1 -6.29796 -11.8493 6.60907 20
275 1 -3.5359 -10.1473 2.27908 18
276 1 -0.591719 18.5586 2.75969 22
277 1 5.97268 2.77507 -14.1134 12
278 1 -8.23812 -1.63843 -12.6649 18
279 1 -13.3275 -2.70415 11.6606 21
280 1 3.4362 8.14282 15.89 19
281 1 1.05744 -9.18949 3.59878 19
282 1 -4.23367 -10.1255 -5.51777 18
283 1 -9.10276 13.5038 -6.52719 14
284 1 7.88049 9.14679 6.6592 23
285 1 -6.71651 7.51631 -6.23158 24
286 1 -5.28599 14.7025 -12.9568 10
287 1 6.29618 -10.5716 -3.66414 15
288 1 -5.89617 19.3228 0.664211 10
289 1 0.384853 16.9955 12.0162 9
290 1 8.86761 2.1574 8.90972 19
291 1 -10.2942 2.90053 6.10077 20
292 1 -3.13497 -4.25749 16.8346 18
293 1 -9.61617 9.14493 2.25841 19
294 1 1.6999 -2.11535 -7.77534 22
295 1 11.1037 11.7141 0.314449 15
296 1 4.71372 -8.4488 0.644419 15
297 1 -4.26989 1.09183 14.2934 23
298 1 -16.2805 -2.22512 4.88235 17
299 1 2.53713 -16.6982 -0.651977 8
300 1 -7.3442 11.6631 17.603 14
301 1 -8.95761 8.95617 17.7977 11
302 1 -16.9881 -2.84288 12.7211 10
303 1 -16.7086 -2.045 7.64731 15
304 1 12.3498 0.216066 2.28927 17
305 1 -13.6852 -5.4811 10.2455 18
306 1 6.90908 0.75862 -5.83419 20
307 1 4.74777 -8.72205 -7.8877 18
308 1 2.64479 19.3793 -1.45199 8
309 1 -4.83837 14.76 0.793461 19
310 1 7.55936 13.5862 10.4087 18
311 1 -10.8012 -1.98636 6.09341 17
312 1 6.96782 -7.49337 -2.5475 19
313 1 -5.8606 16.2389 6.72326 19
314 1 -6.82582 6.03212 9.17046 18
315 1 4.02831 -5.41553 10.2609 20
316 1 12.4791 -3.29052 10.2994 11
317 1 -1.49624 6.06104 13.0274 19
318 1 -7.6903 -0.981931 -1.87448 22
319 1 0.484089 6.70653 17.7905 18
320 1 -3.95518 10.8245 7.86164 18
321 1 10.9636 9.33795 17.1394 11
322 1 -4.13519 16.8163 -5.10556 21
323 1 -0.293765 0.0619299 -14.5266 15
324 1 9.29462 -4.46243 -10.2339 14
325 1 -9.62851 7.41292 14.4753 15
326 1 -16.1025 1.27571 2.15543 13
327 1 -5.12362 -3.04714 -3.17207 19
328 1 -6.56624 9.50449 1.0425 21
329 1 7.10839 -3.3942 10.3195 20
330 1 -14.0202 -8.76035 0.667616 14
331 1 9.03501 -8.13964 9.9082 13
332 1 -5.15089 -6.46273 15.5479 20
333 1 -14.9197 7.05016 4.33236 16
334 1 -2.20222 -1.69276 11.3932 21
335 1 4.97077 -11.2624 -0.606394 12
336 1 -4.31637 -0.133033 -8.08535 23
337 1 7.09812 0.733223 -12.1522 14
338 1 4.69561 10.0591 6.23669 22
339 1 -8.86373 -2.27309 -4.26222 17
340 1 6.86954 -2.92837 -10.0531 19
341 1 9.25587 4.1018 -9.49573 18
342 1 -6.67175 -10.3699 -7.28452 13
343 1 -10.2181 -6.89842 1.03016 19
344 1 -6.40393 -7.98294 5.91179 21
345 1 11.3606 5.51668 17.8494 10
346 1 14.5467 6.15882 0.983362 12
347 1 -13.2339 4.22554 -8.4666 18
348 1 0.702872 16.9254 5.21156 19
349 1 -15.5184 -3.00795 -3.0062 11
350 1 -11.1601 9.332 8.83235 18
351 1 -6.84614 12.7036 2.0942 19
352 1 0.517431 9.33147 13.1986 20
353 1 13.8458 5.67199 12.6092 14
354 1 10.1756 0.679175 -2.81008 18
355 1 7.23977 -2.81708 17.7215 9
356 1 10.8529 5.418 -2.85522 20
357 1 -5.80326 -14.4334 -2.88612 13
358 1 0.727768 -4.0518 -2.79977 20
359 1 0.348816 11.2087 7.93407 20
360 1 -14.7239 6.04672 -6.54659 14
361 1 10.9965 -4.76931 4.35916 18
362 1 10.2262 -1.19394 9.57543 24
363 1 -9.53467 0.548903 -5.91312 17
364 1 -6.98775 -5.05639 6.67545 20
365 1 -6.59533 -3.70729 14.6286 20
366 1 -1.62353 12.0797 2.85999 21
367 1 -7.77685 -7.71493 2.39552 19
368 1 8.46738 10.7017 17.4069 15
369 1 -10.5856 2.62744 -0.478988 20
370 1 0.939151 10.4724 -7.02847 23
371 1 6.3627 17.9984 7.64676 17
372 1 -13.5807 -6.57533 3.44209 19
373 1 -2.57622 -8.816 -3.08971 20
374 1 -18.47 0.542917 9.54549 12
375 1 -14.698 8.96788 -1.32594 12
376 1 7.03743 -6.45801 8.25365 19
377 1 -4.1975 -12.7156 0.784516 22
378 1 11.9636 11.8457 9.55678 23
379 1 6.52244 9.05967 -12.792 9
380 1 -14.1742 8.33124 -8.45853 11
381 1 -4.5915 18.6301 -8.38736 11
382 1 -9.59782 6.36915 -4.47383 22
383 1 -0.228873 -9.72791 7.74823 15
384 1 10.2033 7.01673 8.30276 21
385 1 -2.31265 11.1914 -11.5502 17
386 1 -3.86195 1.29793 10.9712 21
387 1 -15.0002 3.65141 3.17809 18
388 1 -10.5565 4.09602 9.19593 16
389 1 -4.12478 -11.7726 11.6348 15
390 1 7.54948 -6.33983 -5.51578 18
391 1 -16.4673 6.53958 7.39465 15
392 1 -17.8693 -0.330667 12.3545 8
393 1 -16.8266 9.36026 5.85387 7
394 1 -1.25947 -5.83828 11.2337 16
395 1 -9.10117 3.4121 -12.3232 17
396 1 9.24093 -9.03265 -3.95253 11
397 1 -0.718244 -8.3522 -9.68467 18
398 1 -5.05916 -1.37433 12.6155 24
399 1 -6.91305 5.16903 -13.2289 14
400 1 3.89888 -7.82626 4.30366 20
401 1 2.12144 14.0861 -3.38506 19
402 1 -12.8389 10.7432 10.3968 10
403 1 -5.66161 -0.532924 21.3245 5
404 1 -12.2883 -3.51638 -10.4916 13
405 1 -9.08074 -8.03072 10.7839 21
406 1 8.97746 -6.92122 12.7752 12
407 1 1.20735 3.05084 -7.41261 23
408 1 11.8289 -6.66321 9.30354 10
409 1 11.7386 11.5001 -4.88535 12
410 1 -5.21497 3.68187 12.9071 23
411 1 1.25592 13.9872 3.56341 21
412 1 9.11998 -3.44778 7.66517 20
413 1 -1.41087 -14.3443 1.32521 19
414 1 -4.18179 6.78278 21.0007 11
415 1 -5.53212 16.5804 9.09607 14
416 1 -7.02614 -4.11108 -5.35701 17
417 1 7.37258 15.6623 4.76027 17
418 1 -0.603072 13.7969 9.78249 17
419 1 -8.10282 2.90981 11.0282 22
420 1 -7.09929 -5.23486 -0.253312 17
421 1 -10.7119 2.91626 12.5866 20
422 1 -6.29447 -7.41294 -6.89263 21
423 1 -7.66336 9.005 10.4734 19
424 1 -4.75386 -11.3511 -1.99972 20
425 1 -2.59414 -5.73763 -10.5372 19
426 1 -8.20204 -9.88247 4.43413 21
427 1 6.10715 2.42671 10.4619 22
428 1 -7.75461 -6.4394 16.9159 13
429 1 -9.51357 10.9605 -9.97007 12
430 1 10.0496 8.08446 1.88852 18
431 1 -7.80025 -11.7169 -1.66634 18
432 1 -2.10345 21.292 3.50973 13
433 1 -0.0779662 6.65092 -6.93104 19
434 1 -2.29005 9.49167 15.697 19
435 1 -15.4201 -6.51721 -1.87824 12
436 1 -2.49041 18.8259 -2.56845 14
437 1 5.90021 11.7528 0.418923 19
438 1 -7.22138 -6.60239 -3.63325 20
439 1 5.23518 6.26398 19.6139 15
440 1 -3.23085 -8.46868 -8.19472 21
441 1 1.72518 4.29932 -10.7946 20
442 1 3.05387 -14.2413 5.19458 17
443 1 -6.65969 11.044 7.38047 18
444 1 4.33777 13.5501 11.1012 18
445 1 8.23326 14.1337 1.54707 21
446 1 1.076 10.4686 2.08081 20
447 1 -7.92818 13.7938 -11.3097 8
448 1 2.63736 5.51927 -4.94293 19
449 1 0.965129 -5.80769 8.52137 17
450 1 -18.1039 -4.3984 2.40571 10
451 1 -0.325977 19.3252 6.2261 14
452 1 -8.5886 5.38013 -7.72075 21
453 1 11.2361 5.58035 -0.119735 19
454 1 1.86019 16.5394 -8.23727 13
455 1 8.20213 -3.93105 3.3702 18
456 1 15.5658 10.5434 -2.03698 6
457 1 -5.43628 6.45765 -8.40187 16
458 1 -1.16542 -8.23291 4.84483 22
459 1 -2.4831 -12.4664 10.0103 15
460 1 -0.514029 -2.81498 17.1736 12
461 1 -8.83942 2.10846 -9.42178 22
462 1 -10.0126 -10.5507 6.66788 21
463 1 -0.962788 -7.66759 -6.0198 20
464 1 7.41397 18.7165 5.2737 13
465 1 1.30023 7.31586 -12.4795 22
466 1 0.965133 0.655739 18.1896 15
467 1 -16.6438 2.69444 11.2452 10
468 1 -4.29371 -15.2467 2.67767 15
469 1 -13.2901 -0.159858 3.91016 20
470 1 13.0509 1.18947 -2.60481 16
471 1 14.6023 1.61381 2.911 13
472 1 -4.35509 8.82442 -4.09906 21
473 1 4.34327 -5.62012 -7.02916 21
474 1 1.75445 6.1717 -9.01405 17
475 1 12.0112 -0.550065 -0.555243 13
476 1 -7.75827 -0.446076 18.866 11
477 1 4.31275 17.0707 4.52759 18
478 1 -4.67189 3.64323 -15.816 17
479 1 -4.27704 5.97757 -13.0807 22
480 1 -8.14917 -2.91394 11.1906 23
481 1 -7.52467 18.7462 4.03779 11
482 1 -10.2841 0.756529 -11.8147 15
483 1 -18.8456 0.0893372 6.68853 10
484 1 1.65039 -7.35146 -8.17598 22
485 1 -6.60165 -6.18199 12.2824 23
486 1 2.62847 8.30129 -6.85639 19
487 1 14.3659 5.09214 9.6547 15
488 1 12.1708 9.30955 0.537437 16
489 1 -9.11394 -9.94974 1.22035 19
490 1 -1.62658 -8.18549 1.94035 20
491 1 -1.73021 -0.15841 -10.8082 17
492 1 -7.85038 11.4853 12.6161 16
493 1 3.34339 -1.57639 -10.5376 17
494 1 11.2697 -2.89148 1.92117 16
495 1 -0.425508 14.6444 -10.9748 12
496 1 4.05677 -6.0267 6.62827 20
497 1 12.3387 8.13217 -6.78478 13
498 1 5.69366 11.5977 18.532 15
499 1 -6.93791 1.02119 12.9926 23
500 1 8.19567 17.4309 12.0703 9
501 1 6.4869 2.00707 21.3671 6
502 1 -1.76231 5.96245 -13.6266 17
503 1 -9.26687 -5.49662 -2.33652 18
504 1 -2.03549 -0.568569 18.5729 11
505 1 6.65628 13.804 7.66139 19
506 1 5.56356 13.4491 -10.5596 11
507 1 -8.51293 14.4709 -0.193862 16
508 1 0.678501 15.0104 -0.919231 18
509 1 9.08144 -5.68053 15.3973 10
510 1 6.97882 7.02636 -10.5781 20
511 1 8.57202 -5.06049 0.120143 21
512 1 11.7057 14.2891 8.21901 15
513 1 -18.1473 -4.69383 7.01173 11
514 1 -4.04415 11.3436 -9.19694 19
515 1 -2.03598 3.26745 11.4558 21
516 1 -13.152 0.950791 15.9191 10
517 1 -5.83946 16.5401 -10.59 13
518 1 2.8663 -5.95342 -1.3722 20
519 1 3.32339 0.601296 -7.64687 19
520 1 -3.6608 17.2128 1.45279 20
521 1 -11.4824 -2.86162 -13.2599 7
522 1 3.54795 -11.3928 4.53545 19
523 1 -11.4078 -0.0672923 -1.91071 20
524 1 -3.41548 14.3257 -10.7219 18
525 1 -1.89337 12.5372 16.4979 16
526 1 -10.1892 -5.52294 10.8979 20
527 1 4.54278 12.9832 -1.61111 19
528 1 0.812215 -9.99167 -2.70084 16
529 1 0.2039 -7.74302 13.5577 13
530 1 -16.1449 3.96929 5.71067 14
531 1 5.01418 6.99564 13.121 17
532 1 0.0902651 18.8937 -6.30548 8
533 1 9.22152 -2.65569 -2.22853 16
534 1 6.20952 16.4331 10.0063 18
535 1 -1.40905 3.09457 -16.3999 14
536 1 -4.54965 -9.422 14.0157 14
537 1 -2.36151 2.09877 -8.36111 21
538 1 -2.05796 2.42924 -13.5383 21
539 1 3.29803 17.3238 10.9902 18
540 1 8.28229 10.4984 -5.05511 20
541 1 -7.53591 -2.53828 -15.5704 10
542 1 -3.58816 -8.35804 -0.409016 18
543 1 -13.1023 -0.422254 -11.6244 12
544 1 14.1714 4.96996 4.10094 15
545 1 13.4642 7.48342 -1.81052 12
546 1 9.50313 -9.62029 2.22709 15
547 1 10.2453 9.28778 13.8351 16
548 1 4.89995 -8.14943 -5.16604 18
549 1 3.45304 8.73695 -14.0717 12
550 1 4.37721 14.9925 2.13057 21
551 1 -9.46748 6.63109 4.10871 21
552 1 9.46847 11.8274 12.2417 17
553 1 13.1535 10.7574 3.70353 19
554 1 13.4783 4.23038 6.70956 19
555 1 10.1059 7.89312 -0.670316 19
556 1 5.68079 2.55349 18.5533 16
557 1 11.988 7.46065 15.0141 14
558 1 0.79645 -1.90216 13.3005 19
559 1 8.04447 13.3997 -1.11685 19
560 1 -2.01414 6.24709 16.235 17
561 1 10.229 1.13317 -6.48518 20
562 1 4.99295 0.919949 13.181 19
563 1 -7.73569 4.54294 -5.35773 17
564 1 14.5489 11.6156 1.36081 12
565 1 12.325 -3.4805 7.20019 14
566 1 -11.9631 5.77939 13.4935 14
567 1 6.24311 12.8244 13.7098 18
568 1 8.37807 2.78533 16.6014 17
569 1 0.811394 8.29236 9.57897 24
570 1 3.38339 18.4828 13.627 8
571 1 5.25541 4.69782 7.46008 17
572 1 -5.17319 -11.7163 4.23916 20
573 1 -6.06004 15.546 -2.11727 15
574 1 9.15181 13.1071 -6.72704 18
575 1 8.14421 4.31937 -12.5306 14
576 1 0.616865 21.1508 0.996769 11
577 1 -3.54737 -11.3415 -8.62858 11
578 1 8.86794 -1.00109 -10.2249 17
579 1 -14.2403 8.35476 7.95935 14
580 1 -8.38462 10.7752 -6.68245 18
581 1 -6.3753 -15.0167 5.65873 13
582 1 -11.3418 6.49276 -6.57998 21
583 1 -13.2771 2.8451 -2.26367 22
584 1 10.5222 -2.13345 4.63861 18
585 1 16.1994 3.41029 5.21559 10
586 1 0.63046 -8.10794 10.7745 14
587 1 -14.2513 -1.56481 -9.02049 9
588 1 0.68279 1.18199 -17.8382 7
589 1 -5.03772 0.872543 17.9702 19
590 1 9.67305 15.5995 -8.66523 6
591 1 12.7227 2.61981 11.9405 16
592 1 4.92821 8.97314 -4.72508 16
593 1 10.1874 15.9788 3.17468 15
594 1 5.32616 -13.6908 -3.13675 9
595 1 -10.1398 1.17694 14.8549 19
596 1 13.5585 -0.740799 10.7283 12
597 1 -1.49248 14.3925 13.5013 13
598 1 6.95806 15.0845 -6.92633 14
599 1 -8.72517 7.61126 -1.33193 21
600 1 6.96038 12.6672 4.26848 20
601 1 -12.8895 -11.4969 0.928939 10
602 1 12.3054 1.57309 8.5319 22
603 1 4.30023 13.929 5.5064 21
604 1 -2.40338 11.0282 13.3999 15
605 1 -13.4689 -3.39695 3.96559 18
606 1 -7.20747 -1.20806 -7.30647 20
607 1 6.76744 3.74956 13.7819 16
608 1 -5.57195 -3.91263 10.8349 21
609 1 3.20559 5.4087 17.5196 20
610 1 -4.04099 11.2885 0.898774 20
611 1 10.4618 7.4307 5.36886 20
612 1 8.13911 4.31765 4.06454 16
613 1 -0.985588 3.14547 -10.7797 21
614 1 -12.1051 -0.435596 12.7637 16
615 1 6.78349 1.29011 -9.24229 18
616 1 11.7312 -0.737581 -4.85641 21
617 1 3.43436 9.11662 9.30642 20
618 1 -10.5903 2.29347 17.638 10
619 1 9.15018 9.51554 10.1011 19
620 1 -1.60877 0.77458 16.3315 21
621 1 -4.99341 6.25102 17.9124 20
622 1 -1.59166 -2.78681 -8.44707 22
623 1 -6.71403 6.51091 12.8821 17
624 1 6.3241 6.0172 16.0215 17
625 1 -11.2872 -11.8778 8.88376 9
626 1 13.306 14.3588 3.12559 12
627 1 7.61708 -11.5595 1.34784 12
628 1 10.5296 12.6717 3.39214 21
629 1 9.97984 17.1223 6.62636 11
630 1 3.84697 2.75371 -17.2023 9
631 1 1.75093 16.8095 -3.84849 16
632 1 8.45522 11.1368 1.64212 20
633 1 -11.2397 -8.60283 3.62361 21
634 1 -3.60204 0.672461 -15.6537 13
635 1 -10.1821 12.8155 4.3852 15
636 1 8.38175 -1.14762 -7.61557 19
637 1 9.52703 9.50453 -7.72181 18
638 1 6.97444 16.3421 -0.468957 14
639 1 -8.98191 10.66 -0.772419 19
640 1 4.19474 8.76897 -1.55144 19
641 1 11.3109 2.61406 17.3889 13
642 1 9.55089 0.158076 17.0661 13
643 1 -2.32383 -7.32101 15.4233 12
644 1 -6.458 9.22415 -8.8767 18
645 1 8.95427 16.1976 9.36075 17
646 1 8.40191 -2.74396 -12.9777 10
647 1 0.834627 3.46827 12.8303 19
648 1 5.13002 16.0494 -3.57021 16
649 1 9.53296 11.9136 7.8683 22
650 1 12.5989 2.70741 -0.11717 18
651 1 6.36581 8.55581 17.3013 19
652 1 -11.2847 -2.38657 9.0763 20
653 1 1.45931 -9.48076 0.254686 18
654 1 -0.731691 0.115265 -6.74647 21
655 1 -7.29792 13.2607 5.0005 20
656 1 1.4932 14.3287 7.18103 20
657 1 -18.8287 -2.57358 9.78043 11
658 1 -0.8062 7.33707 21.207 11
659 1 -1.1027 10.4776 -14.9806 12
660 1 -7.04365 8.55051 -12.999 10
661 1 6.6166 -9.95593 4.10673 21
662 1 8.47699 16.5299 -5.29028 10
663 1 -13.9889 4.16591 13.2252 12
664 1 4.28517 6.41289 -10.7904 18
665 1 1.67695 -4.85745 12.3559 20
666 1 2.70877 18.4699 7.5355 14
667 1 -4.53026 3.82906 19.1805 16
668 1 -11.206 -6.67534 -10.3908 10
669 1 -8.22754 -6.90778 -10.0298 12
670 1 -10.7708 -7.50628 -4.00996 19
671 1 -3.43258 16.5824 -1.95525 18
672 1 7.43344 -3.74538 -6.77938 21
673 1 -1.59797 12.3028 6.14105 22
674 1 7.20531 -6.13476 -8.89226 20
675 1 4.27614 -14.921 2.43383 11
676 1 3.53306 -6.92636 12.7107 17
677 1 13.3367 5.3873 -5.81727 13
678 1 -0.998142 -13.3941 -3.95597 14
679 1 -14.1351 -0.621289 9.91704 16
680 1 -9.72302 -13.0493 1.14642 13
681 1 -6.51979 -8.44716 -1.16518 22
682 1 -12.0223 1.43735 9.97319 17
683 1 -4.47149 -16.9955 5.34021 12
684 1 13.3917 8.68231 -4.17436 12
685 1 -4.8845 19.2898 3.08736 15
686 1 -12.1273 7.72194 5.33123 18
687 1 9.8868 0.175289 6.94249 20
688 1 -15.2411 1.2374 -8.88169 10
689 1 1.57177 8.62585 -3.71762 24
690 1 9.25287 -1.59906 -5.17938 21
691 1 5.25259 10.5976 11.5153 22
692 1 6.78032 9.3211 0.192464 21
693 1 -15.3348 -0.578589 -5.81112 11
694 1 -13.576 -5.61605 -4.18762 14
695 1 -2.59528 8.22195 18.5849 18
696 1 7.06403 10.6878 -10.0476 17
697 1 9.25851 14.5442 6.55755 19
698 1 -0.944136 0.760462 12.7737 22
699 1 -4.47217 -15.8839 -0.463305 14
700 1 -9.47726 -13.2834 6.16925 11
701 1 -0.826184 -4.89553 14.2741 19
702 1 13.6223 13.8305 11.2606 10
703 1 0.543758 -4.51322 -10.0681 17
704 1 -6.50427 9.89811 -1.87523 23
705 1 8.02153 6.11118 6.79092 19
706 1 -12.5903 -0.0781278 7.19313 21
707 1 9.14264 9.1997 -10.8025 11
708 1 -2.63632 -14.1926 -1.55243 18
709 1 0.387503 -14.6088 5.49022 21
710 1 -0.646789 -16.3541 -1.36579 12
711 1 8.19806 6.16091 -4.83523 22
712 1 8.47822 18.3989 1.67369 9
713 1 -8.52055 0.926293 -14.6049 12
714 1 0.790145 2.8785 19.6721 12
715 1 -3.59732 13.0277 -15.6044 5
716 1 -11.5919 8.58569 -10.422 13
717 1 -12.4408 -2.17811 -3.94216 17
718 1 -0.712884 17.8994 0.286261 19
719 1 -3.68178 -2.34704 -10.6857 20
720 1 -7.621 -5.15447 3.80554 18
721 1 10.2779 8.20472 -5.04643 18
722 1 10.0021 -6.96188 7.00439 19
723 1 -6.30742 8.93743 18.9746 18
724 1 7.01769 -5.86766 4.97683 18
725 1 13.1562 -0.727175 7.11683 17
726 1 11.153 -4.30753 13.685 9
727 1 -2.00862 15.2202 7.66958 19
728 1 -11.2437 3.90255 15.5663 13
729 1 -10.0734 6.38863 17.184 13
730 1 -2.68932 -9.16885 11.0947 16
731 1 9.72719 1.89757 2.43076 19
732 1 3.77798 13.7232 16.7824 15
733 1 -16.5212 -3.69797 -0.533282 10
734 1 8.5588 -8.36895 0.0339357 16
735 1 -11.175 13.1858 -1.64302 13
736 1 1.40403 -15.8206 7.98043 9
737 1 3.72201 1.84307 16.6949 20
738 1 0.359702 16.9514 8.61277 17
739 1 2.10616 -9.21616 6.59981 20
740 1 -13.541 -1.68719 0.27727 15
741 1 -2.04014 3.84286 15.067 20
742 1 -16.5689 -6.6359 1.38733 11
743 1 3.35935 10.645 16.3804 22
744 1 -1.68703 15.3823 4.66165 20
745 1 -9.05814 -7.59848 5.68058 22
746 1 -4.82599 -15.7946 8.33848 12
747 1 9.7804 -4.85689 10.0971 20
748 1 8.41578 -2.33535 12.9388 15
749 1 5.82096 19.4685 10.9651 10
750 1 -2.3146 -5.81319 -7.5103 17
751 1 -4.89813 2.98839 -12.846 17
752 1 -5.46361 3.45433 16.0234 19
753 1 -7.74558 18.855 7.45823 12
754 1 16.1407 6.18734 7.1593 13
755 1 3.49775 11.3387 -5.09292 21
756 1 -3.90195 11.645 18.7083 12
757 1 7.15456 9.04243 13.1817 16
758 1 4.07483 0.592455 -11.2566 19
759 1 -14.2866 -10.0722 3.80483 12
760 1 10.418 1.48352 10.787 19
761 1 3.8368 2.88326 -9.34667 19
762 1 -0.727213 10.6657 19.1981 13
763 1 11.9712 -6.83858 -4.76354 11
764 1 0.867048 10.0756 -12.5072 18
765 1 -3.99393 -5.83524 -2.3436 19
766 1 10.6736 6.81413 -9.41944 14
767 1 15.2122 0.148129 5.07768 11
768 1 -2.06178 -2.00295 14.5298 20
769 1 -1.01566 -10.5105 -5.69936 18
770 1 2.14938 16.9464 1.4723 20
771 1 -13.2395 2.39811 4.84055 21
772 1 8.19502 5.31901 -1.48665 19
773 1 15.6134 8.43498 9.06802 12
774 1 -0.972397 -3.53667 -13.8706 11
775 1 -5.55937 11.2003 10.144 15
776 1 15.0417 9.60806 6.19535 15
777 1 6.36604 13.529 -4.28278 23
778 1 4.08494 4.05622 -12.4333 20
779 1 6.28139 -2.65095 -0.054767 19
780 1 -12.5411 4.42738 1.33862 21
781 1 12.6209 12.6152 6.0331 20
782 1 -16.2758 -7.36435 4.5234 10
783 1 -11.5215 12.8465 -4.99297 13
784 1 10.0067 3.64677 13.0593 18
785 1 -10.5707 3.4793 -6.82404 23
786 1 -13.0178 5.19059 6.30535 21
787 1 -3.22835 6.37064 -5.26822 20
788 1 8.17229 -8.55186 -9.09 8
789 1 -11.0765 -8.24157 -7.89138 11
790 1 14.5666 -1.99119 -2.4476 9
791 1 -15.0656 6.7283 0.973805 16
792 1 -14.514 0.203828 -3.26726 12
793 1 12.9174 11.0169 13.0671 11
794 1 -7.21558 -6.44898 9.015 23
795 1 9.22969 3.03317 19.8083 9
796 1 9.35692 -2.87137 16.0136 13
797 1 7.30012 -0.468081 8.04088 24
798 1 -9.67348 2.46319 2.5418 21
799 1 -1.32436 10.8332 10.2921 19
800 1 2.44985 9.02968 -10.1379 19
801 1 -3.25852 -4.85526 -13.315 11
802 1 -5.06905 20.1432 5.82309 11
803 1 -11.0725 -10.1828 12.0203 10
804 1 3.53507 14.387 -6.60118 18
805 1 0.309226 9.90265 16.563 20
806 1 14.2828 -1.8117 -6.37458 10
807 1 6.08621 -7.1574 14.6693 12
808 1 -1.33248 12.2236 -9.05329 18
809 1 2.83137 15.3437 -10.6656 10
810 1 -6.72325 0.309298 9.67844 22
811 1 10.4096 6.9143 11.8402 17
812 1 -4.47511 1.37189 -10.5652 22
813 1 15.4233 12.5369 4.54689 12
814 1 -14.1824 5.54519 -1.89183 17
815 1 -1.97408 -13.2735 3.8825 20
816 1 5.08459 16.6734 -8.88257 9
817 1 3.99319 -1.53522 15.3749 15
818 1 -1.65553 -11.1059 -1.21781 20
819 1 -9.29124 15.9711 5.66856 16
820 1 -15.7316 9.49107 2.36412 9
821 1 7.25469 2.6113 -3.56927 22
822 1 2.60988 -9.71124 -10.1486 12
823 1 -7.95625 8.7891 7.22433 17
824 1 10.0126 13.9879 -3.45663 12
825 1 -9.53733 0.303822 7.90762 20
826 1 3.26604 1.97412 -14.0361 17
827 1 -8.77467 -6.68681 -6.30309 21
828 1 0.910058 -12.8964 -1.04437 18
829 1 0.21431 11.6456 14.0678 18
830 1 6.72097 -7.47214 2.33766 18
831 1 -2.78812 17.1705 -11.2389 11
832 1 13.5536 -3.9309 -4.40632 13
833 1 9.64263 10.3233 4.64023 22
834 1 -1.38401 -16.8507 3.5497 14
835 1 6.25116 -5.20712 -12.1906 13
836 1 9.58557 -1.56106 0.446395 20
837 1 -4.58753 9.20333 -13.9732 17
838 1 -6.6931 -9.58053 11.2873 21
839 1 5.50876 8.35989 -8.34472 19
840 1 4.61789 2.94555 -5.83148 20
841 1 -10.8627 5.64979 -1.6251 22
842 1 -14.3189 4.76763 9.39261 16
843 1 1.69343 8.89377 19.285 17
844 1 -8.81475 -5.23495 13.6845 19
845 1 6.61049 10.8166 9.09519 17
846 1 -3.45629 -13.3541 6.34561 21
847 1 2.35779 11.3669 -1.70036 18
848 1 -5.25359 9.02196 15.8655 15
849 1 -4.77122 6.58296 14.3786 21
850 1 -9.6498 11.5888 9.91098 17
851 1 8.41591 5.23735 1.15868 20
852 1 -4.77956 -6.64102 18.865 9
853 1 3.32162 -7.82482 9.12461 14
854 1 8.34579 4.77037 11.0481 19
855 1 6.12931 -2.14734 -4.25543 17
856 1 4.88202 -11.8231 -6.32033 13
857 1 -10.4763 5.20454 -9.76629 20
858 1 -7.21169 2.9999 -17.1345 7
859 1 3.85113 15.6198 8.11144 20
860 1 -14.3155 -1.82428 14.3192 12
861 1 -8.72758 11.805 -3.57207 24
862 1 -12.8431 7.65382 -3.94143 17
863 1 13.4489 14.7771 -0.0858949 7
864 1 -8.11433 -12.9205 3.90946 16
865 1 -1.61424 8.88818 7.59559 21
866 1 15.1041 12.1168 8.01643 13
867 1 -10.8466 -10.1707 -1.2706 13
868 1 6.97034 14.0243 16.3872 11
869 1 -7.46891 1.19912 16.3748 19
870 1 -3.77922 -12.4558 -4.16425 17
871 1 11.8569 1.0873 14.2382 14
872 1 0.954022 -12.504 3.25331 16
873 1 8.10236 8.57767 19.5418 10
874 1 -4.92069 -1.68558 9.3922 20
875 1 13.8454 1.57128 -6.14882 14
876 1 9.35926 -7.42694 3.95356 17