ITEM: TIMESTEP
69000
ITEM: NUMBER OF ATOMS
2000
ITEM: BOX BOUNDS pp pp pp
-30.0 30.0
-30.0 30.0
-30.0 30.0
ITEM: ATOMS id type x y z Coordination
1 2 -15.9068 -0.31283 -3.2893 16
2 1 -3.10932 -17.1436 -5.20379 15
3 2 -3.22333 -17.2378 -3.21047 15
4 1 -4.81982 -16.4103 1.2635 13
5 2 -3.56075 -17.3185 2.31432 12
6 1 -0.161262 -17.5543 -4.83694 15
7 1 3.28637 -17.5554 -5.15518 12
8 2 -0.0354104 -16.9996 -2.97618 16
9 2 3.49291 -17.0936 -2.94989 15
10 1 0.103058 -17.5299 -1.08803 13
11 1 -0.853828 -17.2872 4.72667 12
12 1 3.20945 -17.1995 0.159295 14
13 2 -0.283526 -16.6574 2.84363 18
14 2 3.14008 -16.6399 2.02258 14
15 2 -7.88282 -5.04846 -15.5096 7
16 2 -6.43514 -1.96972 -16.1484 10
17 2 -0.249592 -3.97036 -15.9703 15
18 2 -2.97621 -1.57579 -15.5681 14
19 2 -4.91413 1.13894 -16.1889 14
20 2 -6.7905 4.05096 -16.4992 10
21 2 -1.86533 1.60109 -15.9586 16
22 2 -4.02552 4.54108 -15.711 15
23 2 -3.05719 6.94092 -16.0193 10
24 2 -7.24474 -8.18193 -13.8984 12
25 2 2.19299 -5.28881 -16.5854 11
26 2 -0.0131692 -1.3376 -16.9885 16
27 2 5.37848 -4.20563 -16.3831 11
28 2 2.74563 -2.12343 -16.693 16
29 2 9.94342 -0.387914 -13.0995 14
30 2 2.62433 0.527628 -17.427 12
31 2 -1.93577 3.78501 -17.4884 10
32 2 0.695524 2.31002 -16.8988 13
33 2 5.60824 -1.02306 -16.2604 14
34 2 3.15225 3.64128 -16.6769 10
35 2 9.08946 4.25184 -14.0723 16
36 1 -17.5305 -6.8798 -3.25279 7
37 1 -15.0579 -7.94266 -5.30304 17
38 1 -13.3476 -0.131483 -10.0837 15
39 1 -14.9823 -4.98995 -7.63335 16
40 1 -16.5053 -2.13777 -7.61543 11
41 1 -16.2572 0.210032 -5.01932 14
42 1 -14.9218 -2.56272 -5.12685 20
43 1 -15.2138 -4.9861 -2.42008 20
44 1 -16.4766 -2.11447 -2.94868 15
45 1 -13.4364 -10.7403 -6.12568 11
46 1 -14.9509 -2.27416 -9.84369 11
47 1 -7.52046 -11.801 -10.3307 14
48 1 -11.8573 -9.81847 -9.04894 11
49 1 -13.225 -7.76665 -7.60397 15
50 1 -13.4336 -5.40812 -4.97401 18
51 1 -11.6775 -7.69967 -4.50965 21
52 1 -11.8997 -10.3599 -2.32083 18
53 1 -13.214 -7.91629 -2.27074 22
54 1 -12.7969 -6.41351 -9.90852 13
55 1 -14.2372 2.95628 -10.5067 14
56 1 -11.5397 -3.00221 -10.3066 16
57 1 -11.5073 -4.83369 -7.38736 25
58 1 -13.2478 -1.9305 -7.77671 23
59 1 -12.8947 0.0683025 -5.15705 24
60 1 -11.6803 -2.79785 -4.60304 24
61 1 -12.0447 -4.87482 -2.36424 24
62 1 -13.4242 -1.81536 -2.12091 23
63 1 -10.2206 -12.8942 -8.06553 11
64 1 -10.184 -10.9093 -4.87718 20
65 1 -8.65731 -13.7627 -5.08172 14
66 1 -10.2738 -13.5109 -2.41724 12
67 1 -8.14164 -8.5721 -10.1511 19
68 1 -9.78226 -5.43021 -10.1575 19
69 1 -5.32277 -12.7362 -12.4854 9
70 1 -8.5538 -10.2812 -7.66188 20
71 1 -10.0607 -7.35782 -7.41978 25
72 1 -9.84684 -5.41715 -4.8291 24
73 1 -8.24496 -8.2407 -4.78374 24
74 1 -8.7641 -10.4099 -2.14731 22
75 1 -9.70944 -7.30099 -2.10081 24
76 1 -7.89626 -3.12978 -15.3741 12
77 1 -7.71302 -4.75934 -12.8781 18
78 1 -9.54042 -1.60077 -12.7374 15
79 1 -9.69855 -0.165067 -10.0184 23
80 1 -8.24587 -2.98667 -9.98564 23
81 1 -8.30085 -4.67257 -7.26209 25
82 1 -10.1204 -2.09635 -7.57708 22
83 1 -9.91122 -0.159267 -4.65553 24
84 1 -8.31825 -2.63868 -4.92574 21
85 1 -8.18106 -4.5513 -2.44231 22
86 1 -9.85932 -1.79469 -2.16998 25
87 1 -3.68409 -11.2637 -10.3996 18
88 1 -6.76017 -13.3388 -7.72724 16
89 1 -7.00316 -11.2108 -4.74098 23
90 1 -5.09574 -14.2148 -4.63509 22
91 1 -4.99078 -16.7375 -2.25873 10
92 1 -7.06935 -13.2225 -2.21446 20
93 1 -7.47914 -6.78297 -15.4677 6
94 1 -7.41327 -10.2482 -13.0584 10
95 1 -6.2626 -7.54505 -12.2491 18
96 1 -6.40041 -5.25364 -10.0623 23
97 1 -4.87785 -8.55324 -10.3599 19
98 1 -5.0651 -10.4648 -7.51987 23
99 1 -6.23195 -7.49081 -7.41805 23
100 1 -6.48681 -5.18998 -4.73506 22
101 1 -5.00872 -8.39801 -4.89276 23
102 1 -5.02082 -10.5853 -2.18228 24
103 1 -6.58594 -7.84919 -2.05941 24
104 1 -6.6224 0.0835496 -15.7146 12
105 1 -4.6799 -2.33621 -15.5778 14
106 1 -4.54805 -4.6878 -12.9152 20
107 1 -6.52946 -1.91118 -12.6532 23
108 1 -6.47269 0.260633 -9.93502 25
109 1 -4.89662 -2.69276 -10.4549 21
110 1 -4.87541 -4.46748 -7.57306 22
111 1 -6.3345 -1.7794 -7.64492 24
112 1 -6.26629 0.0378559 -4.82354 23
113 1 -4.82331 -2.61036 -4.87388 22
114 1 -5.07322 -4.47212 -2.23473 23
115 1 -6.71073 -1.59715 -2.28112 25
116 1 -3.30811 -13.5672 -7.47203 22
117 1 -1.42277 -16.303 -7.42531 15
118 1 1.39481 -17.7517 -7.58335 10
119 1 -5.24968 -16.2341 -7.20547 10
120 1 -3.53394 -11.4939 -4.8193 23
121 1 -1.59221 -14.2856 -5.13162 24
122 1 -1.91384 -16.1454 -2.52061 19
123 1 -3.29082 -13.247 -2.27341 22
124 1 -2.91575 -6.53991 -15.0951 12
125 1 -4.79551 -9.99994 -14.224 12
126 1 -1.99563 -11.0301 -13.0877 14
127 1 -2.97306 -7.48157 -12.4444 23
128 1 -3.30256 -5.59291 -10.0637 25
129 1 -1.51894 -8.53381 -10.0836 22
130 1 -1.62089 -10.7474 -7.53142 23
131 1 -3.19405 -7.79975 -7.43779 24
132 1 -3.14429 -5.61856 -4.74667 24
133 1 -1.43956 -8.69613 -4.87071 24
134 1 -1.69817 -10.3599 -2.51305 23
135 1 -3.24748 -7.47222 -2.13939 24
136 1 -3.27011 0.408587 -15.5397 19
137 1 -1.35111 -2.51011 -15.9766 14
138 1 -1.36907 -4.67151 -13.2375 22
139 1 -3.07382 -1.83032 -12.7894 23
140 1 -3.22331 0.295695 -10.2107 22
141 1 -1.59735 -2.54785 -10.2345 23
142 1 -1.67206 -5.05333 -7.55831 24
143 1 -3.12309 -1.73738 -8.01485 22
144 1 -3.13213 -0.193396 -5.00897 21
145 1 -1.40868 -3.11896 -5.00099 22
146 1 -1.65747 -4.54188 -2.25336 23
147 1 -3.18176 -1.99632 -2.22398 23
148 2 -17.2372 -7.18592 -1.23339 10
149 2 -17.1286 -5.12548 -2.40684 11
150 2 -16.3021 -8.13164 -3.95322 11
151 2 -13.2239 -7.33202 -5.64153 21
152 2 -14.5846 -4.32688 -5.9169 17
153 2 -15.5715 -3.57434 -8.60504 10
154 2 -15.0721 -4.86814 -0.438029 20
155 2 -16.831 -1.76146 -1.00676 16
156 2 -16.3631 -1.46376 -5.86741 14
157 2 -14.7532 -3.06379 -3.18677 19
158 2 -11.7329 -10.0381 -5.2705 21
159 2 -10.4805 -11.015 -8.41966 17
160 2 -14.6138 -9.93856 -4.78066 12
161 2 -13.6723 -6.17358 -8.25353 16
162 2 -13.3019 -9.80665 -7.87314 11
163 2 -13.9524 -9.52518 -2.09774 15
164 2 -13.0709 -7.4716 -0.214555 21
165 2 -13.3019 -6.08791 -3.06669 22
166 2 -11.2 -8.33418 -2.82359 22
167 2 -11.5908 -7.6001 -8.82839 15
168 2 -15.1673 -1.07287 -8.39555 15
169 2 -13.3535 -2.10888 -10.5662 11
170 2 -11.8007 -4.50566 -5.49952 25
171 2 -13.2137 -1.65288 -5.74538 26
172 2 -12.9156 0.224551 -8.19548 20
173 2 -11.4635 -3.17015 -8.17905 23
174 2 -11.844 -4.62007 -0.172983 22
175 2 -13.5412 -2.26112 -0.243014 23
176 2 -13.2461 0.0638015 -2.88462 25
177 2 -11.6646 -2.62353 -2.50494 21
178 2 -9.78561 -12.9481 -6.21815 15
179 2 -8.46602 -13.299 -9.02652 12
180 2 -9.82503 -13.1215 -0.428957 16
181 2 -10.3324 -11.4201 -2.9074 18
182 2 -8.59579 -13.9978 -3.16719 15
183 2 -5.56835 -12.0188 -10.8816 15
184 2 -7.80689 -10.1651 -11.189 15
185 2 -11.5702 -5.0252 -10.3012 12
186 2 -6.39323 -7.22103 -10.3577 18
187 2 -8.58181 -10.0824 -5.77669 22
188 2 -9.75793 -7.2348 -5.56576 23
189 2 -9.7751 -5.6236 -8.2833 22
190 2 -8.30228 -8.40774 -8.27912 20
191 2 -8.36733 -10.3148 -0.193895 23
192 2 -9.98666 -7.27658 -0.0497716 23
193 2 -9.98814 -5.32553 -2.70159 22
194 2 -8.17359 -8.52445 -2.69594 22
195 2 -8.1332 -4.63784 -10.9803 20
196 2 -9.81488 -2.05823 -10.9616 19
197 2 -10.3107 0.0624449 -12.6662 12
198 2 -8.24599 -2.75259 -13.3972 15
199 2 -8.41656 -4.54862 -5.50928 22
200 2 -10.1184 -2.02601 -5.34815 22
201 2 -9.67347 -0.0734937 -8.07873 21
202 2 -8.24713 -2.67536 -8.05544 24
203 2 -8.17946 -4.65302 -0.298344 24
204 2 -9.79895 -1.74051 -0.255044 24
205 2 -10.0251 0.392649 -2.74166 22
206 2 -8.30984 -2.4176 -2.9381 26
207 2 -4.79897 -16.0904 -5.06081 14
208 2 -6.74112 -13.2073 -5.61777 20
209 2 -6.60515 -11.4885 -8.11575 21
210 2 -5.15662 -14.4125 -8.0445 14
211 2 -4.93323 -16.0763 -0.50624 15
212 2 -6.95839 -13.3555 -0.0818215 18
213 2 -7.14816 -11.3483 -2.76255 24
214 2 -5.1284 -13.9495 -2.61478 20
215 2 -3.59098 -12.0142 -12.6916 10
216 2 -4.51262 -8.48643 -12.8387 18
217 2 -6.08371 -5.71659 -13.2555 18
218 2 -5.97977 -11.3229 -13.6999 10
219 2 -5.23746 -10.2896 -5.15959 21
220 2 -6.58484 -7.1732 -5.59439 23
221 2 -6.69376 -5.5097 -8.08676 23
222 2 -4.825 -8.74733 -8.2652 21
223 2 -5.04446 -10.7351 -0.202423 22
224 2 -6.52102 -7.72208 -0.0588728 22
225 2 -6.59454 -5.53153 -2.72985 24
226 2 -4.78467 -8.63043 -2.77557 22
227 2 -4.53926 -4.47507 -11.0329 24
228 2 -6.85262 -1.66304 -10.4817 22
229 2 -6.84348 -0.114252 -13.4802 19
230 2 -4.87584 -2.62826 -13.5651 21
231 2 -4.7313 -4.52094 -5.27463 22
232 2 -6.50201 -1.83684 -5.4502 23
233 2 -6.2106 0.0394449 -8.13878 23
234 2 -5.04192 -2.80733 -8.29721 23
235 2 -4.80669 -4.66056 -0.0902725 22
236 2 -6.41073 -2.01124 -0.227553 23
237 2 -6.70869 0.269691 -2.56499 21
238 2 -5.27463 -2.8123 -2.82873 23
239 2 -3.35525 -16.81 -7.16936 12
240 2 -3.03619 -9.67696 -14.654 11
241 2 -1.47595 -16.2336 -5.55589 19
242 2 -3.48961 -13.2845 -5.38089 24
243 2 -3.40939 -11.2677 -8.03714 21
244 2 0.217719 -16.5774 -8.21609 11
245 2 -1.32273 -16.2624 -0.423651 18
246 2 -3.23867 -13.2385 -0.407219 22
247 2 -3.35447 -11.3311 -2.6672 22
248 2 -1.7242 -14.2257 -2.91288 23
249 2 -1.92456 -10.2325 -10.9443 18
250 2 -3.25671 -7.44236 -10.4581 20
251 2 -2.95352 -5.71617 -13.4628 17
252 2 -1.26379 -7.2034 -15.7558 11
253 2 -1.87145 -10.5312 -5.56179 24
254 2 -3.22169 -7.44453 -5.44244 20
255 2 -3.41445 -5.86274 -7.86023 22
256 2 -1.52897 -8.35984 -7.91396 20
257 2 -1.32711 -10.51 -0.346767 23
258 2 -3.49629 -7.75781 -0.217353 22
259 2 -3.51789 -5.48801 -2.67971 23
260 2 -1.73588 -8.39611 -2.85813 23
261 2 -1.59801 -4.36855 -10.7126 22
262 2 -3.34068 -1.74638 -10.6467 23
263 2 -3.30566 0.0119642 -13.3042 19
264 2 -1.23775 -2.74103 -13.8219 21
265 2 -1.2635 -5.06311 -5.49621 22
266 2 -2.95737 -2.04285 -5.56736 24
267 2 -2.94845 -2.65145e-04 -8.2883 23
268 2 -1.57021 -2.89637 -7.96518 21
269 2 -1.88168 -4.51242 -0.120721 22
270 2 -3.04294 -1.92649 -0.237708 23
271 2 -3.191 -0.0050845 -2.79487 22
272 2 -1.59983 -2.6946 -2.88311 24
273 1 -17.0286 -5.29152 -0.409722 11
274 1 -13.8517 -9.6371 -0.131382 13
275 1 -16.4876 -7.54005 0.680243 12
276 1 -16.55 0.0649268 0.0781462 14
277 1 -15.4124 -2.89895 0.203526 21
278 1 -15.5429 -5.29571 3.01355 18
279 1 -16.9808 -1.97488 2.98217 13
280 1 -16.9836 0.700143 5.4257 12
281 1 -15.4837 -2.58402 5.2947 14
282 1 -14.729 -4.65312 6.76039 13
283 1 -15.3627 -9.84329 -3.15592 10
284 1 -13.4002 -5.6135 0.496413 24
285 1 -11.4524 -8.35498 0.499042 24
286 1 -11.3032 -10.0532 3.35097 17
287 1 -13.7927 -8.10202 2.62011 16
288 1 -13.5675 -6.07788 5.14447 16
289 1 -11.8101 -8.59705 5.71284 17
290 1 -10.691 -12.2398 5.98452 14
291 1 -13.311 -7.91922 7.85541 9
292 1 -12.7266 -5.99534 13.6583 7
293 1 -10.0134 -7.6384 15.3531 4
294 1 -13.2601 -0.127584 0.423537 23
295 1 -11.6581 -2.70069 0.272551 18
296 1 -12.1646 -4.7802 2.93423 21
297 1 -13.5278 -2.08476 2.94517 22
298 1 -13.2738 -0.152506 5.60022 23
299 1 -11.5445 -3.48696 5.4933 22
300 1 -11.697 -4.50436 8.09553 22
301 1 -13.395 -2.11762 8.14271 16
302 1 -12.483 -0.638539 10.5187 16
303 1 -13.5983 -4.07254 10.74 11
304 1 -10.5185 -11.4984 0.332846 18
305 1 -8.75104 -14.415 0.286658 11
306 1 -10.7243 -13.2542 2.87118 12
307 1 -8.92306 -14.5552 5.8761 13
308 1 -6.27976 -15.9861 7.48062 9
309 1 -9.84774 -5.48833 0.487211 23
310 1 -8.30686 -8.39982 0.357713 20
311 1 -8.17065 -10.3566 2.97363 21
312 1 -10.0126 -7.59877 3.09108 24
313 1 -9.99395 -6.0192 5.70149 23
314 1 -8.46305 -9.04068 5.72872 23
315 1 -8.91186 -10.4431 8.63314 19
316 1 -10.1371 -7.22297 8.43639 18
317 1 -10.4053 -5.37085 11.0809 16
318 1 -8.64047 -8.35007 10.5924 12
319 1 -9.99285 -0.0211267 0.502182 22
320 1 -8.09298 -2.78106 -0.0859093 20
321 1 -8.01908 -4.71536 3.06541 21
322 1 -9.83873 -1.85386 2.94128 22
323 1 -9.87728 0.0143851 5.55069 22
324 1 -8.10361 -3.04368 5.43442 20
325 1 -8.02634 -4.91155 8.08745 21
326 1 -9.85764 -1.90492 7.78957 20
327 1 -9.85441 -0.0118228 11.0288 20
328 1 -8.2728 -2.94835 10.39 19
329 1 -8.23989 -4.07748 13.0222 16
330 1 -11.4162 -2.80028 12.4937 14
331 1 -7.03053 -11.6321 0.607138 22
332 1 -5.07101 -14.1976 0.0762079 19
333 1 -3.87638 -16.6793 4.2335 13
334 1 -7.08228 -13.9013 2.97617 18
335 1 -7.18147 -12.103 6.07379 20
336 1 -5.43718 -14.202 4.96497 19
337 1 -8.44143 -13.3929 8.68488 15
338 1 -7.21862 -11.7739 11.0097 13
339 1 -6.47738 -5.7587 0.0466279 22
340 1 -4.97835 -8.76641 0.662901 24
341 1 -5.16747 -10.741 3.03311 24
342 1 -6.73732 -7.86278 3.12434 24
343 1 -6.65529 -6.19893 5.74121 24
344 1 -5.21805 -9.05839 5.77893 23
345 1 -5.3461 -10.9432 8.76265 22
346 1 -6.86796 -8.09935 8.33305 22
347 1 -6.61649 -5.99324 10.856 21
348 1 -5.3839 -8.81743 11.4948 21
349 1 -1.28073 -8.84596 16.5424 11
350 1 -6.8204 -6.86441 13.9581 14
351 1 -6.51367 0.0943851 0.323912 23
352 1 -4.69764 -2.84421 0.310193 22
353 1 -4.99406 -4.88133 2.9813 22
354 1 -6.52718 -1.73873 2.95058 22
355 1 -6.62921 -0.186057 5.81727 24
356 1 -4.945 -3.29436 5.61705 24
357 1 -5.11486 -4.97092 8.30006 21
358 1 -6.64102 -1.76533 8.32066 24
359 1 -6.55193 0.288367 11.4681 24
360 1 -5.17899 -3.21045 11.0475 22
361 1 -4.95577 -4.82726 13.6125 19
362 1 -6.27395 -1.99991 12.8164 21
363 1 -3.17124 -11.4008 0.391765 22
364 1 -1.37425 -14.4172 -0.113506 22
365 1 -1.68039 -16.4808 1.56835 17
366 1 -3.38957 -13.7489 2.83499 24
367 1 -3.74178 -11.964 5.90689 21
368 1 -1.89633 -14.4498 5.59798 19
369 1 -3.78781 -14.0996 8.50483 14
370 1 -6.21177 -15.1227 10.7174 7
371 1 -3.45987 -11.6032 11.1395 13
372 1 -3.29249 -5.69636 0.47885 24
373 1 -1.8302 -8.56161 0.390351 22
374 1 -1.67726 -10.6963 3.05051 23
375 1 -3.38344 -7.87425 3.14816 23
376 1 -3.41309 -6.27261 5.75204 22
377 1 -1.60059 -9.07618 5.90686 20
378 1 -2.23819 -10.8311 8.50581 22
379 1 -3.6525 -7.99084 8.58965 21
380 1 -3.18485 -5.91161 11.0378 24
381 1 -1.57432 -8.90967 10.674 21
382 1 -1.94015 -10.5012 13.7602 13
383 1 -3.37995 -7.75971 13.9621 17
384 1 -3.633 -0.0518939 0.398082 21
385 1 -1.51682 -2.8034 0.436701 25
386 1 -1.6982 -4.92041 3.10196 24
387 1 -3.02592 -1.75969 3.11278 21
388 1 -3.28198 -0.180735 5.56372 24
389 1 -1.78796 -3.06308 5.61075 21
390 1 -1.77805 -4.81636 8.02097 22
391 1 -3.55213 -1.74873 8.53182 25
392 1 -3.31261 -0.131765 11.1482 24
393 1 -1.80942 -2.93128 10.9981 23
394 1 -1.59387 -4.88067 13.4268 20
395 1 -3.27339 -1.92715 13.7052 22
396 2 -16.7131 -5.81257 1.55245 12
397 2 -14.9891 -8.62034 1.11407 14
398 2 -15.3065 -4.68627 4.8261 16
399 2 -16.6075 -1.01213 4.7217 13
400 2 -16.2466 -0.316543 1.88963 16
401 2 -15.209 -2.56661 2.20565 21
402 2 -14.8128 -2.83301 7.21741 16
403 2 -11.8738 -10.2585 -0.286936 17
404 2 -11.1446 -10.4663 5.26497 16
405 2 -13.2223 -7.95352 4.64926 17
406 2 -13.7024 -6.02081 2.57221 19
407 2 -11.8561 -8.64002 2.38086 20
408 2 -13.4661 -6.34969 7.10318 15
409 2 -11.3621 -8.08732 7.55261 16
410 2 -11.6607 -5.10123 4.76076 21
411 2 -13.5556 -2.06276 4.8763 20
412 2 -13.1409 0.41271 2.40926 22
413 2 -11.7672 -2.99844 2.41777 21
414 2 -12.1742 -5.12702 9.93806 16
415 2 -13.3742 -2.36494 10.1069 13
416 2 -13.2537 -0.0975657 7.67738 19
417 2 -11.6112 -2.65217 7.4971 20
418 2 -12.5666 -4.36868 12.5752 9
419 2 -10.8557 -13.7871 4.82698 8
420 2 -10.2925 -11.2919 2.28202 18
421 2 -8.87583 -13.9468 2.21994 14
422 2 -9.15126 -12.1099 7.20281 14
423 2 -7.99768 -10.9356 4.99112 21
424 2 -9.7892 -7.74233 5.03154 21
425 2 -9.61264 -5.65511 2.46208 21
426 2 -8.55575 -8.52505 2.42769 23
427 2 -8.30662 -10.3417 10.425 14
428 2 -9.91992 -7.17443 10.2871 16
429 2 -10.067 -5.30754 7.51154 21
430 2 -8.63665 -8.71708 7.7309 23
431 2 -11.4605 -6.67887 14.8002 4
432 2 -8.48707 -7.21353 14.8378 7
433 2 -8.23035 -4.777 5.09812 23
434 2 -10.0882 -1.98335 5.03458 21
435 2 -9.89261 0.281989 2.5457 21
436 2 -8.05348 -2.70185 2.15205 23
437 2 -7.41034 -4.58157 9.8969 20
438 2 -9.51897 -1.58495 9.61495 22
439 2 -9.58047 0.178648 7.37975 21
440 2 -8.12946 -3.09128 7.42246 23
441 2 -8.98435 0.0838128 14.5184 14
442 2 -9.79333 -3.62255 11.8153 15
443 2 -4.99865 -15.8476 5.61431 14
444 2 -7.27867 -13.7688 4.95428 17
445 2 -6.52493 -11.8837 2.62835 21
446 2 -5.37036 -14.95 2.55312 16
447 2 -7.50205 -13.6197 10.6038 10
448 2 -7.4521 -11.7066 8.93496 16
449 2 -7.87217 -14.8232 7.53816 12
450 2 -5.26655 -10.838 5.98785 21
451 2 -6.76569 -7.82273 5.18975 24
452 2 -6.64812 -5.90511 2.36932 23
453 2 -4.93298 -8.9186 2.77793 21
454 2 -5.32099 -10.7466 10.9412 15
455 2 -6.80984 -7.99333 10.6631 20
456 2 -6.45396 -6.1485 7.91199 22
457 2 -5.38554 -9.2352 7.75321 23
458 2 -6.62549 -5.34559 12.7853 20
459 2 -5.31069 -7.95131 13.3312 16
460 2 -4.89583 -5.24596 5.24246 24
461 2 -6.58006 -2.01106 4.95392 24
462 2 -6.48593 0.265266 2.46014 22
463 2 -4.6518 -2.64818 2.34232 23
464 2 -4.71626 -5.05925 10.3932 22
465 2 -6.56472 -1.77829 10.9229 22
466 2 -6.43578 0.179441 7.97273 23
467 2 -5.1313 -2.81094 7.52593 25
468 2 -5.40079 -5.63836 15.4439 12
469 2 -7.51184 -2.82017 14.3079 14
470 2 -6.10493 0.0223548 13.3328 22
471 2 -4.67368 -3.11169 12.9164 22
472 2 -2.33055 -16.4259 5.34842 15
473 2 -3.59649 -13.7208 4.94324 18
474 2 -3.4838 -11.6227 2.66971 22
475 2 -1.84825 -14.6522 1.9474 24
476 2 -5.25828 -15.2219 9.03171 9
477 2 -3.77076 -12.0261 9.04957 16
478 2 -1.991 -14.0098 7.56085 16
479 2 -1.04737 -10.702 15.718 9
480 2 -2.00344 -11.161 5.15657 23
481 2 -3.43898 -8.36447 5.02333 23
482 2 -3.47436 -5.99675 2.63874 22
483 2 -1.93022 -9.03142 2.23431 22
484 2 -1.71398 -11.0233 10.4143 19
485 2 -3.50256 -8.03019 10.5483 22
486 2 -3.40649 -5.94656 7.88977 20
487 2 -2.07776 -8.74552 8.00542 21
488 2 -2.69768 -7.86771 15.8289 14
489 2 -3.36907 -5.87421 13.1142 24
490 2 -1.83216 -9.01003 12.7471 21
491 2 -1.40968 -4.94724 5.04543 22
492 2 -3.39693 -2.2281 5.14831 21
493 2 -3.18262 0.108929 2.24712 25
494 2 -1.70636 -2.96449 2.46135 21
495 2 -1.4331 -4.70614 10.1446 22
496 2 -3.5761 -2.09757 10.5174 23
497 2 -3.12196 -0.0191397 7.66691 24
498 2 -2.10829 -2.83711 7.43936 21
499 2 -1.40461 -4.70333 15.613 18
500 2 -3.148 -2.00205 15.706 18
501 2 -3.36878 -0.110152 13.1702 20
502 2 -1.49935 -2.72862 12.8965 22
503 1 -13.8365 6.24047 -9.92775 9
504 1 -14.8722 0.858219 -7.83862 18
505 1 -16.6075 5.56704 -4.91052 14
506 1 -14.3145 2.77673 -5.18723 21
507 1 -14.8237 1.11979 -2.52967 20
508 1 -16.1305 3.99976 -2.55463 14
509 1 -16.1459 3.9605 -7.79958 15
510 1 -14.7315 8.70843 -4.73114 16
511 1 -15.059 6.93621 -2.12805 18
512 1 -11.9341 1.17162 -12.8327 10
513 1 -14.8225 6.62088 -7.22835 15
514 1 -11.4938 3.6861 -10.754 14
515 1 -11.2604 1.12967 -7.66648 21
516 1 -12.7385 4.09658 -7.53659 24
517 1 -12.9284 5.96663 -4.56421 25
518 1 -11.2961 3.0321 -4.97157 22
519 1 -11.7699 1.02804 -2.1618 23
520 1 -13.1069 3.71168 -2.39284 24
521 1 -11.2678 7.1427 -7.59443 18
522 1 -13.3149 10.402 -7.43969 11
523 1 -11.6769 12.6491 -7.18459 11
524 1 -13.2137 11.4261 -4.33869 15
525 1 -11.5868 8.90347 -4.7786 22
526 1 -11.7613 6.72509 -2.15331 22
527 1 -13.0846 9.42737 -1.81545 20
528 1 -11.8225 12.5391 -1.81893 13
529 1 -8.13667 5.20504 -15.5858 9
530 1 -8.25264 1.03878 -12.6893 21
531 1 -9.5271 4.19588 -12.7143 15
532 1 -9.42881 6.29407 -9.88806 15
533 1 -8.3001 2.8485 -10.271 22
534 1 -8.01792 0.763556 -7.57951 23
535 1 -9.91201 3.8611 -7.63497 23
536 1 -9.79134 6.05307 -4.87802 22
537 1 -8.29138 2.67377 -4.9005 22
538 1 -8.34947 1.27145 -2.16112 25
539 1 -9.88893 4.07896 -2.21183 23
540 1 -8.21792 6.94017 -12.8978 14
541 1 -7.72815 9.08138 -10.9963 14
542 1 -8.25174 7.06328 -7.35847 20
543 1 -10.0646 9.95404 -7.17666 18
544 1 -9.94104 11.4795 -4.52925 22
545 1 -8.06789 8.71401 -4.69496 23
546 1 -8.25923 6.89622 -2.19577 24
547 1 -9.70152 9.84291 -1.89996 25
548 1 -8.08086 12.5943 -7.21345 18
549 1 -8.08988 14.4003 -4.7486 16
550 1 -8.0305 12.902 -1.8311 20
551 1 -4.83664 6.01867 -14.8037 17
552 1 -5.24846 3.04652 -15.7586 17
553 1 -4.79761 1.05259 -12.641 24
554 1 -6.46914 3.95319 -12.9142 23
555 1 -6.69489 5.76269 -9.99043 24
556 1 -4.92101 3.22097 -9.92235 23
557 1 -4.76553 1.22192 -7.5243 22
558 1 -6.69469 3.91839 -7.42496 23
559 1 -6.28205 5.70956 -4.69997 22
560 1 -4.85613 2.81829 -5.14655 20
561 1 -4.93703 1.12355 -2.43827 21
562 1 -6.58677 3.91778 -2.22899 24
563 1 -5.22942 7.18998 -12.362 22
564 1 -5.93792 9.9507 -13.698 11
565 1 -7.09754 12.1098 -10.1225 10
566 1 -4.45453 8.74528 -9.75946 21
567 1 -4.9549 6.85154 -7.61038 24
568 1 -6.51083 9.82842 -7.58902 20
569 1 -6.61064 11.6857 -4.72652 23
570 1 -4.84076 8.93669 -4.65161 25
571 1 -4.90413 6.97736 -1.95189 23
572 1 -6.34252 9.95814 -1.97657 23
573 1 -4.83377 12.826 -7.25132 21
574 1 -6.0511 16.0208 -7.43026 12
575 1 -4.98537 14.355 -4.79557 23
576 1 -4.87408 12.8983 -1.97525 22
577 1 -6.93514 15.8907 -1.63626 16
578 1 -2.76788 5.42875 -17.0839 8
579 1 -2.42322 3.31154 -15.3934 19
580 1 -1.51297 1.19599 -13.0734 21
581 1 -3.44751 4.01471 -12.7915 23
582 1 -3.19492 5.97751 -10.2332 21
583 1 -1.60605 3.18078 -10.3875 22
584 1 -1.38257 1.00281 -7.83231 23
585 1 -2.94206 4.11448 -7.58168 21
586 1 -3.4918 5.87972 -4.90183 23
587 1 -1.73796 2.83716 -5.11871 23
588 1 -1.39488 0.744604 -2.29388 22
589 1 -3.12183 4.18556 -2.2341 23
590 1 -2.91884 8.57644 -14.9793 11
591 1 -1.75818 6.7262 -12.9024 20
592 1 -3.14177 10.1902 -12.4751 17
593 1 -3.03303 11.4841 -9.6729 22
594 1 -1.41162 8.65811 -10.1025 22
595 1 -1.62373 6.7686 -7.31324 24
596 1 -3.19663 9.68633 -7.30125 24
597 1 -3.06949 11.5339 -4.69897 24
598 1 -1.74571 8.63733 -4.66321 22
599 1 -1.72049 7.16162 -2.05771 22
600 1 -3.18515 9.79186 -2.16793 22
601 1 -4.82595 13.1084 -12.0217 11
602 1 -4.71144 14.9112 -9.90257 13
603 1 -1.62837 12.5299 -7.80656 22
604 1 -3.09187 15.259 -7.41941 17
605 1 -6.90619 16.8405 -4.65365 13
606 1 -1.59559 14.5768 -5.01812 19
607 1 -1.5427 12.6391 -2.25694 23
608 1 -2.93211 15.3245 -2.19774 22
609 2 -14.6637 0.981412 -5.88876 20
610 2 -15.645 4.27719 -5.87144 15
611 2 -15.3 2.57279 -8.80146 14
612 2 -14.8562 0.877798 -0.506846 22
613 2 -16.27 4.0534 -0.901332 16
614 2 -16.0711 5.85365 -3.17451 14
615 2 -14.7005 2.99098 -3.16559 22
616 2 -15.1238 6.76106 -5.28735 15
617 2 -15.0112 6.93877 0.0433391 18
618 2 -14.3001 8.58518 -2.82217 16
619 2 -13.1442 1.50944 -11.1297 14
620 2 -13.2827 4.65013 -10.4014 12
621 2 -11.1315 2.94214 -12.8241 13
622 2 -11.3029 1.12831 -5.45948 22
623 2 -12.9297 4.11662 -5.51874 21
624 2 -15.3921 5.43021 -8.65513 11
625 2 -11.3542 2.89761 -8.49257 22
626 2 -11.4708 0.847887 -0.212754 23
627 2 -13.2482 3.71233 -0.451128 24
628 2 -13.294 5.66486 -2.7652 25
629 2 -11.3931 2.8446 -3.08912 24
630 2 -11.8699 9.18677 -7.77816 14
631 2 -11.5517 6.99686 -5.53923 23
632 2 -13.3282 9.73009 -5.54001 20
633 2 -12.8747 11.9022 -8.1806 8
634 2 -11.5302 6.58035 -0.00931943 22
635 2 -13.0428 9.52613 0.0886808 21
636 2 -12.9934 11.2394 -2.46456 15
637 2 -11.5388 8.58455 -2.78321 25
638 2 -11.8193 12.1797 -5.16398 15
639 2 -11.425 12.0541 0.304454 14
640 2 -8.51871 1.02315 -10.4809 19
641 2 -10.0374 4.70627 -11.0041 16
642 2 -9.06274 5.48115 -14.1047 10
643 2 -7.87293 2.7522 -13.4005 18
644 2 -8.04415 0.694303 -5.2726 22
645 2 -9.72649 3.78679 -5.57482 20
646 2 -12.9883 6.28656 -8.00195 16
647 2 -8.27487 2.82525 -8.16737 23
648 2 -8.28748 1.02879 0.0674128 22
649 2 -9.98945 3.88056 -0.188134 25
650 2 -10.0148 6.00109 -2.91429 23
651 2 -8.16121 3.14564 -2.87814 22
652 2 -8.0226 6.97003 -11.0422 17
653 2 -9.6391 5.87541 -8.07331 20
654 2 -6.65841 8.74941 -12.3897 14
655 2 -7.97415 6.76123 -5.28716 20
656 2 -9.93116 9.65277 -5.09367 22
657 2 -9.95958 11.9109 -7.25142 13
658 2 -8.238 8.96005 -7.57396 19
659 2 -8.13979 6.89875 -0.0957103 23
660 2 -9.78756 9.65658 -0.0660907 24
661 2 -9.87071 11.8386 -2.31922 18
662 2 -8.31255 8.74793 -2.91427 23
663 2 -8.34253 12.4917 -5.20787 19
664 2 -8.17885 12.7726 0.109747 21
665 2 -7.875 14.7931 -2.8488 16
666 2 -4.86286 1.42229 -10.7197 22
667 2 -6.62634 3.79843 -10.4339 23
668 2 -6.43903 6.05158 -13.3846 20
669 2 -4.90389 2.87267 -13.3367 22
670 2 -4.78973 0.843846 -5.63184 22
671 2 -6.64256 3.58216 -5.48921 22
672 2 -6.58784 5.96156 -7.8839 22
673 2 -4.68879 3.12853 -8.00227 24
674 2 -5.07139 1.23523 -0.36239 22
675 2 -6.79049 3.86877 0.0583283 21
676 2 -6.26875 5.8138 -2.50984 19
677 2 -4.93287 3.00409 -3.05795 23
678 2 -5.0762 7.03605 -10.3376 19
679 2 -6.90864 10.2526 -9.88021 15
680 2 -4.52574 9.02561 -14.2201 12
681 2 -5.07938 6.9526 -5.73911 24
682 2 -6.54038 9.8081 -4.95475 20
683 2 -6.36497 11.9864 -7.77601 19
684 2 -4.94559 8.88076 -8.00334 20
685 2 -5.00028 6.64055 -0.0565262 24
686 2 -6.75536 9.73535 0.0651151 23
687 2 -6.457 11.8609 -2.70299 24
688 2 -4.97758 8.91366 -2.78609 25
689 2 -5.78205 13.2057 -10.4292 12
690 2 -4.46679 12.6266 -5.22128 22
691 2 -6.75649 15.1564 -5.49063 18
692 2 -4.84489 14.6505 -7.98648 17
693 2 -4.94859 12.905 0.058336 24
694 2 -6.3843 15.5411 -0.0807465 16
695 2 -4.67335 14.7851 -2.8924 23
696 2 -1.50461 1.23311 -10.9804 24
697 2 -3.3333 4.08491 -10.9049 24
698 2 -3.8315 6.18345 -13.2464 20
699 2 -1.87198 3.08624 -13.6665 23
700 2 -1.68028 0.990236 -5.76846 23
701 2 -3.4256 3.79091 -5.6968 23
702 2 -3.11858 6.07862 -8.27275 23
703 2 -1.39175 2.99592 -8.2724 26
704 2 -1.88702 1.07216 -0.343399 24
705 2 -3.29898 3.99816 -0.0870628 21
706 2 -3.32767 6.0837 -2.81631 24
707 2 -1.46591 2.64657 -3.12251 24
708 2 -1.60885 6.84186 -10.9315 23
709 2 -3.03777 9.87861 -10.543 20
710 2 -4.80135 11.2143 -12.4868 14
711 2 -1.78813 8.97144 -13.057 16
712 2 -1.86379 6.76729 -5.22459 22
713 2 -3.15975 9.54307 -5.30021 22
714 2 -3.28109 11.5436 -7.89498 21
715 2 -1.63752 8.57241 -8.02472 23
716 2 -1.39151 6.94144 0.00103855 21
717 2 -3.49569 9.44813 -0.164447 22
718 2 -3.46012 11.7333 -2.46455 22
719 2 -1.64392 9.06156 -2.70756 23
720 2 -1.64933 12.5034 -10.1809 16
721 2 -1.52628 12.4626 -5.83528 23
722 2 -5.56413 17.3303 -6.0532 11
723 2 -1.51327 14.4396 -7.93184 18
724 2 -1.84233 12.5817 -0.312758 23
725 2 -3.20644 15.5901 -0.272709 21
726 2 -6.61001 17.3605 -2.78365 13
727 2 -1.43082 14.8076 -3.01961 21
728 1 -16.675 5.64129 0.228632 13
729 1 -14.9649 2.96436 0.111728 20
730 1 -15.2397 1.03759 2.50633 20
731 1 -16.9382 3.5449 2.77504 11
732 1 -15.0002 2.81074 5.36698 16
733 1 -14.6796 1.03986 8.07067 12
734 1 -14.3354 8.26705 0.925932 19
735 1 -15.1067 6.41155 3.05399 16
736 1 -14.8144 8.64793 4.68849 12
737 1 -13.0639 5.64168 0.585315 26
738 1 -11.5119 2.91162 0.291158 23
739 1 -11.5588 1.23369 3.38805 22
740 1 -13.2531 3.98775 2.90992 21
741 1 -13.2933 5.64645 5.6266 19
742 1 -11.637 3.04382 5.88568 23
743 1 -11.4249 1.05553 8.27909 22
744 1 -13.0809 3.719 8.55011 18
745 1 -13.7093 5.734 10.9958 8
746 1 -11.462 2.76083 11.0424 19
747 1 -10.8232 0.161819 13.8267 12
748 1 -13.0133 11.3298 0.856354 15
749 1 -11.1677 8.44588 0.649998 23
750 1 -11.6435 6.7488 3.33621 25
751 1 -12.9695 9.43553 3.28461 18
752 1 -11.478 8.94263 6.13475 18
753 1 -11.6377 6.48395 8.43156 19
754 1 -12.1455 8.59063 10.3826 7
755 1 -11.5242 12.5103 3.20992 12
756 1 -9.71218 5.78024 0.548355 23
757 1 -8.60198 2.88572 0.472342 24
758 1 -8.09263 1.06281 3.00171 22
759 1 -9.74195 4.07301 3.2594 23
760 1 -9.91246 6.17874 6.07394 23
761 1 -8.21865 2.92667 5.95928 24
762 1 -8.12865 0.915525 8.39519 23
763 1 -9.47859 4.0455 8.43624 23
764 1 -9.80761 5.29478 11.3804 22
765 1 -7.73784 3.01594 11.2669 24
766 1 -7.38489 1.30981 14.3811 18
767 1 -9.66891 3.31794 13.9672 14
768 1 -9.69509 11.6339 0.591266 22
769 1 -8.12837 8.63781 0.931344 23
770 1 -8.34015 6.67962 3.22797 22
771 1 -9.71006 9.80563 3.26017 21
772 1 -9.73639 11.4746 5.82059 13
773 1 -8.14775 8.70615 6.12455 24
774 1 -8.31803 6.58623 8.57118 24
775 1 -9.75116 9.45051 8.76489 19
776 1 -8.02038 8.193 11.6335 20
777 1 -8.63862 6.25428 14.193 12
778 1 -7.97553 14.5799 0.602139 14
779 1 -7.87478 12.4607 3.41048 19
780 1 -7.02351 15.1583 7.3954 10
781 1 -8.43509 12.5125 8.46004 13
782 1 -6.72258 5.74077 0.379855 22
783 1 -4.98131 3.14463 0.391381 25
784 1 -4.77611 1.02315 3.07821 24
785 1 -6.44984 3.86882 3.41734 25
786 1 -6.40541 5.62072 6.10776 23
787 1 -4.55116 2.87485 5.91685 24
788 1 -4.75106 0.707446 8.50121 23
789 1 -6.20308 3.66028 8.3923 23
790 1 -6.60583 5.76181 11.0703 22
791 1 -4.84439 2.67468 11.038 22
792 1 -4.69769 0.663219 14.4438 23
793 1 -6.32371 3.82937 13.8586 19
794 1 -6.55652 11.6361 0.638856 24
795 1 -5.19935 8.37604 0.830883 22
796 1 -5.16015 6.59781 3.28917 23
797 1 -6.36107 9.63123 3.31668 23
798 1 -6.39773 11.7004 6.09158 22
799 1 -4.78137 8.54464 5.78641 22
800 1 -4.82282 6.75168 8.49736 21
801 1 -6.58261 9.61595 8.74053 21
802 1 -9.40012 10.7032 11.6389 12
803 1 -4.92668 8.72568 11.4479 19
804 1 -5.00494 6.5704 13.8234 18
805 1 -6.85864 9.41273 14.1445 12
806 1 -4.92315 14.7264 0.716165 22
807 1 -4.81257 12.8358 3.0833 23
808 1 -6.19428 15.7382 3.58683 13
809 1 -4.65776 14.5821 5.56894 17
810 1 -4.93101 12.5161 8.79568 18
811 1 -3.10132 5.83002 0.441232 23
812 1 -1.63607 2.751 0.375567 23
813 1 -1.74162 1.11991 2.89079 22
814 1 -3.06381 4.12983 3.19928 23
815 1 -3.19872 5.84273 5.84724 23
816 1 -1.70516 2.97718 5.56353 20
817 1 -1.73089 1.15443 8.3571 22
818 1 -3.07779 4.00582 8.54222 24
819 1 -3.00127 5.88793 11.1497 23
820 1 -1.44099 2.71236 10.8143 22
821 1 -1.53139 0.734862 13.4172 19
822 1 -3.17246 3.86289 13.7487 22
823 1 -3.57707 11.4101 0.243898 21
824 1 -1.86137 8.8603 0.569748 23
825 1 -1.59803 6.8665 3.26194 25
826 1 -3.23768 9.55287 3.278 25
827 1 -3.28969 11.7542 5.79553 22
828 1 -1.53588 8.50494 5.84593 25
829 1 -1.61578 6.87161 8.65547 23
830 1 -3.00749 9.70756 8.26648 24
831 1 -3.19042 11.6018 10.7006 13
832 1 -1.57211 8.74282 10.9971 23
833 1 -1.25613 6.57412 13.903 22
834 1 -3.21725 9.63876 13.633 11
835 1 -5.06324 18.5084 -2.55113 11
836 1 -1.71914 14.4547 0.543936 24
837 1 -1.57851 12.7574 3.13014 24
838 1 -3.19505 15.933 3.18584 21
839 1 -1.35435 14.6178 5.84557 23
840 1 -1.41933 12.6611 8.67019 20
841 1 -3.13482 15.4437 8.18488 12
842 1 -6.53029 11.3656 11.2622 15
843 2 -15.0564 0.889803 5.87821 15
844 2 -16.8465 2.44165 4.2746 10
845 2 -16.2241 5.29777 2.06928 14
846 2 -15.2354 2.8315 1.98372 20
847 2 -11.4078 0.957175 10.0772 20
848 2 -14.6951 2.85714 7.77005 14
849 2 -14.7233 6.77118 4.87504 13
850 2 -14.6275 8.43887 2.86136 15
851 2 -11.5761 1.16794 5.24181 20
852 2 -13.4288 3.23813 4.71672 21
853 2 -13.2878 5.86031 2.51507 21
854 2 -11.4397 3.12848 2.2651 22
855 2 -11.5105 -0.701659 12.4213 12