ITEM: TIMESTEP
50000
ITEM: NUMBER OF ATOMS
2000
ITEM: BOX BOUNDS pp pp pp
-30.0 30.0
-30.0 30.0
-30.0 30.0
ITEM: ATOMS id type x y z Coordination
1 2 -16.0969 -0.712219 -3.08447 13
2 1 -3.58753 -17.2278 -5.18543 13
3 2 -3.5575 -16.7192 -3.25163 15
4 1 -3.21248 -17.5097 0.495285 13
5 2 -3.53146 -16.8696 2.3445 13
6 1 -0.280483 -17.2078 -4.96388 17
7 1 3.09986 -17.2574 -5.25247 13
8 2 -0.392316 -16.735 -3.14982 16
9 2 2.93722 -16.9235 -3.34129 15
10 1 0.0798349 -16.9924 0.399764 15
11 1 0.176676 -17.3843 4.7721 8
12 1 3.30761 -17.1413 0.103565 15
13 2 0.125899 -17.082 2.24637 16
14 2 3.74614 -16.932 1.99834 12
15 2 -6.55982 -4.1275 -15.9383 12
16 2 -6.78911 -1.35656 -15.9285 12
17 2 -1.87626 -4.68378 -15.3879 13
18 2 -3.34241 -2.0306 -15.2539 16
19 2 -4.87428 1.13851 -16.1177 15
20 2 -7.81624 2.02015 -16.2463 9
21 2 -1.81918 1.0137 -15.533 16
22 2 -4.02324 3.84603 -16.4513 15
23 2 -2.13467 6.28932 -16.4255 12
24 2 -6.34767 -7.9695 -14.9864 13
25 2 1.34946 -4.80331 -15.8916 14
26 2 -0.0129842 -1.56032 -16.3492 15
27 2 4.53775 -4.11797 -15.8419 13
28 2 2.53535 -2.18968 -16.9335 12
29 2 10.0119 -0.632626 -12.8189 15
30 2 1.55123 0.864514 -16.6136 15
31 2 -0.853331 3.46655 -17.0233 11
32 2 1.25214 4.50526 -16.0334 14
33 2 4.74634 -0.464127 -16.2779 13
34 2 3.84739 2.85021 -15.8521 14
35 2 9.35184 4.59697 -14.5931 10
36 1 -16.9468 -7.65805 -1.67397 10
37 1 -16.4428 -8.04292 -5.04529 11
38 1 -14.3085 -1.02492 -9.97064 14
39 1 -16.0003 -5.34566 -6.75434 12
40 1 -16.2045 -2.19035 -7.84843 13
41 1 -16.1197 -0.434022 -4.7594 15
42 1 -14.6143 -2.72112 -4.52047 20
43 1 -15.1836 -4.74473 -2.99981 15
44 1 -16.7799 -1.98196 -1.88059 13
45 1 -13.7285 -10.0892 -5.79557 11
46 1 -14.0044 -4.23103 -9.24979 14
47 1 -7.94266 -12.1878 -10.2251 14
48 1 -11.9699 -10.0145 -8.52186 12
49 1 -14.6126 -7.5587 -8.0331 13
50 1 -12.9259 -5.24201 -4.96101 18
51 1 -11.3887 -8.5159 -4.84923 19
52 1 -11.6154 -10.4224 -2.28735 16
53 1 -13.5027 -7.67712 -2.17058 19
54 1 -11.9744 -6.79957 -10.0716 13
55 1 -14.4016 1.87371 -10.2461 16
56 1 -11.4414 -2.88392 -10.5766 17
57 1 -11.0371 -4.62556 -8.05519 23
58 1 -12.7981 -1.8286 -7.53289 23
59 1 -13.0791 -0.145591 -4.90712 23
60 1 -11.3405 -2.83261 -5.10198 23
61 1 -11.615 -4.7403 -2.32156 23
62 1 -13.3842 -1.80148 -2.15344 24
63 1 -10.1597 -13.3572 -7.94279 11
64 1 -10.365 -11.3757 -5.08994 18
65 1 -8.51577 -13.9689 -5.26221 15
66 1 -9.47209 -13.6381 -2.10183 13
67 1 -8.96055 -8.83219 -9.81102 17
68 1 -9.4232 -5.91993 -10.2334 17
69 1 -7.07385 -9.5785 -11.8925 16
70 1 -8.55395 -10.7469 -7.56035 23
71 1 -9.80968 -7.51393 -7.60154 22
72 1 -10.0192 -5.51602 -5.05514 24
73 1 -8.42713 -8.39748 -5.00941 23
74 1 -8.55672 -10.6276 -2.94294 21
75 1 -10.0345 -7.58726 -2.28064 25
76 1 -7.87401 -2.85352 -15.9077 11
77 1 -8.36164 -4.64893 -13.0438 16
78 1 -9.75719 -1.35698 -13.0135 13
79 1 -9.83336 0.0617809 -10.2191 22
80 1 -8.22176 -2.56285 -10.2993 23
81 1 -8.02985 -4.6697 -7.59872 25
82 1 -9.84637 -1.61463 -7.83086 22
83 1 -10.0865 0.189391 -4.91024 23
84 1 -8.32847 -2.78866 -4.74417 24
85 1 -8.42188 -4.97613 -2.25225 23
86 1 -10.2294 -2.08836 -2.47564 22
87 1 -5.08407 -13.3733 -10.2564 13
88 1 -6.94666 -13.612 -7.87332 19
89 1 -6.88124 -11.2866 -5.13155 26
90 1 -5.18977 -14.2547 -5.17575 21
91 1 -5.09317 -16.3159 -2.33091 13
92 1 -6.57036 -13.2373 -2.33379 22
93 1 -6.85331 -6.03675 -15.6635 11
94 1 -5.15865 -12.2686 -12.6597 11
95 1 -7.25498 -7.46575 -13.3293 14
96 1 -6.76036 -6.27122 -10.5346 21
97 1 -3.92577 -9.80733 -10.1256 18
98 1 -5.15749 -10.7692 -7.85612 22
99 1 -6.46613 -7.77702 -7.7258 22
100 1 -6.6859 -5.74778 -5.2241 24
101 1 -5.12522 -8.83416 -5.19778 22
102 1 -5.2917 -10.3524 -2.16968 24
103 1 -6.46993 -7.53924 -2.12944 25
104 1 -6.60073 0.470374 -15.4543 14
105 1 -5.23842 -2.54344 -15.3001 17
106 1 -5.15486 -4.77544 -13.0064 22
107 1 -6.58391 -1.82058 -12.7841 23
108 1 -6.33292 0.305988 -9.8667 24
109 1 -5.08633 -2.7282 -10.4549 21
110 1 -4.83861 -4.85916 -7.7892 20
111 1 -6.52869 -1.74748 -7.4623 23
112 1 -6.97694 0.0759536 -4.90981 21
113 1 -4.91823 -2.75404 -5.06364 21
114 1 -5.24297 -4.84762 -2.2702 22
115 1 -6.96804 -1.66252 -2.4325 20
116 1 -3.47533 -13.6276 -7.42177 20
117 1 -1.51781 -16.5319 -7.74305 15
118 1 1.6997 -18.5544 -7.86395 8
119 1 -4.96105 -16.3365 -8.12462 11
120 1 -3.35072 -11.4006 -4.95915 23
121 1 -1.66329 -14.478 -5.10195 22
122 1 -1.86201 -15.9023 -2.26451 21
123 1 -3.36766 -13.3371 -2.64647 20
124 1 -3.06643 -6.30817 -15.2571 14
125 1 -5.25097 -9.43728 -14.318 14
126 1 -2.24038 -10.7464 -12.6882 14
127 1 -3.74711 -7.85645 -12.6403 19
128 1 -3.51595 -5.74538 -10.4213 19
129 1 -1.52591 -8.3034 -10.0234 20
130 1 -1.82621 -10.7333 -7.99386 23
131 1 -3.23769 -7.84247 -7.49687 25
132 1 -3.46871 -5.91234 -5.09016 21
133 1 -1.35186 -8.75638 -5.07723 23
134 1 -1.79789 -10.738 -2.43985 22
135 1 -3.412 -7.78101 -2.33219 23
136 1 -3.34874 0.113514 -15.2966 20
137 1 -1.46521 -2.77194 -15.4919 17
138 1 -1.85405 -4.75618 -12.8234 23
139 1 -3.1808 -1.76641 -12.9386 20
140 1 -3.36068 0.0538016 -10.2165 23
141 1 -1.64201 -2.70385 -10.0932 23
142 1 -1.44331 -4.85305 -7.61546 23
143 1 -3.48641 -1.51172 -7.29984 24
144 1 -3.44403 0.130031 -4.79138 23
145 1 -1.56093 -3.01003 -4.81916 24
146 1 -1.75922 -4.86544 -2.121 22
147 1 -3.47286 -1.79077 -2.06701 25
148 2 -16.6991 -7.23488 0.365732 12
149 2 -16.3025 -5.82561 -1.99858 15
150 2 -16.8432 -8.39886 -3.25347 9
151 2 -15.7149 -7.2765 -6.62195 11
152 2 -14.7605 -4.78285 -5.29797 16
153 2 -15.3835 -3.87196 -7.99875 14
154 2 -14.8145 -4.38038 0.199162 19
155 2 -16.2972 -1.54323 -0.0436325 15
156 2 -15.876 -1.75583 -6.07257 15
157 2 -15.1534 -2.88568 -2.73617 18
158 2 -12.0332 -10.3266 -5.30923 13
159 2 -10.467 -11.3145 -8.30228 16
160 2 -15.0847 -9.42424 -4.76529 11
161 2 -13.9841 -6.10112 -9.27569 11
162 2 -13.6677 -9.14911 -7.48235 12
163 2 -14.9012 -8.84645 -1.31837 15
164 2 -13.2186 -7.26587 -0.0888363 20
165 2 -12.7086 -6.20581 -3.22523 17
166 2 -11.5784 -8.49203 -2.90085 21
167 2 -10.9778 -8.41308 -9.0967 17
168 2 -15.5298 -0.66984 -8.5126 14
169 2 -13.2963 -2.55337 -9.9825 15
170 2 -11.3823 -4.58726 -5.95682 21
171 2 -12.922 -2.10086 -5.43493 22
172 2 -12.9309 -0.0564274 -7.91274 22
173 2 -11.2904 -2.82381 -8.46802 20
174 2 -11.5857 -4.68307 -0.179183 24
175 2 -13.1773 -1.56329 -0.187856 23
176 2 -13.3058 0.177869 -2.73145 23
177 2 -11.8334 -2.76052 -3.04576 25
178 2 -10.0766 -12.9634 -6.10556 13
179 2 -8.62451 -13.8304 -8.72737 13
180 2 -9.3491 -13.2521 -0.133341 14
181 2 -10.1112 -11.6164 -3.0075 19
182 2 -8.38334 -14.2014 -3.35869 14
183 2 -6.39556 -12.6783 -11.2876 12
184 2 -8.27183 -10.3645 -10.5784 13
185 2 -11.1711 -4.88412 -10.146 14
186 2 -7.95512 -7.71322 -11.2341 16
187 2 -8.49006 -10.2768 -5.60182 22
188 2 -10.1231 -7.29972 -5.66242 21
189 2 -9.59198 -5.94659 -8.32787 20
190 2 -8.28716 -8.88225 -7.96502 21
191 2 -8.71585 -10.3716 -0.577528 24
192 2 -9.79005 -7.39377 -0.283376 21
193 2 -9.94261 -5.65075 -3.05604 24
194 2 -8.3447 -8.53043 -2.96023 24
195 2 -8.44264 -4.62043 -11.0617 21
196 2 -9.79329 -1.66813 -10.8527 21
197 2 -11.5724 -0.784289 -13.3359 9
198 2 -8.2458 -2.70858 -13.443 17
199 2 -8.31726 -4.49006 -5.77134 24
200 2 -9.89403 -1.75005 -5.75122 26
201 2 -10.0452 0.368565 -8.12823 21
202 2 -7.93212 -2.75899 -8.43659 24
203 2 -8.36315 -4.70784 -0.120511 25
204 2 -10.1932 -2.00046 -0.174889 22
205 2 -10.1208 -0.197804 -2.96312 23
206 2 -8.40007 -3.04569 -2.78813 21
207 2 -4.91016 -15.8598 -6.08441 16
208 2 -6.86589 -13.066 -6.02715 21
209 2 -7.108 -11.7271 -8.52072 20
210 2 -5.15907 -14.3863 -8.58905 16
211 2 -4.68129 -16.3626 -0.363053 13
212 2 -6.83095 -13.2677 -0.504096 21
213 2 -6.66997 -11.3651 -3.07774 25
214 2 -5.00749 -14.0961 -3.06226 21
215 2 -3.73494 -11.5901 -11.3345 16
216 2 -5.53739 -8.33457 -12.3564 19
217 2 -7.01531 -5.57951 -13.8493 17
218 2 -6.12808 -11.0986 -13.7258 10
219 2 -5.17104 -10.7382 -5.92663 24
220 2 -6.77846 -7.72631 -5.73634 24
221 2 -6.52122 -6.08813 -8.40114 22
222 2 -4.85533 -8.81316 -8.41392 19
223 2 -5.17127 -10.5787 -0.214693 23
224 2 -6.74412 -7.70209 -0.104879 23
225 2 -6.7725 -5.85256 -3.09168 23
226 2 -5.21874 -8.6787 -3.04856 24
227 2 -5.18001 -4.85133 -11.0702 23
228 2 -6.38816 -1.3091 -10.7499 23
229 2 -7.26644 -0.190684 -13.3718 19
230 2 -4.7756 -2.82868 -13.0835 19
231 2 -4.92624 -4.84519 -5.65706 24
232 2 -6.55031 -1.79734 -5.33407 22
233 2 -6.49608 0.276416 -7.91284 22
234 2 -5.03973 -2.81171 -8.12827 22
235 2 -5.02214 -4.73669 -0.196544 23
236 2 -6.39999 -1.82805 -0.396066 21
237 2 -6.66107 0.243287 -2.82297 22
238 2 -5.16327 -2.73543 -2.82992 22
239 2 -3.2602 -17.0983 -8.75948 9
240 2 -3.26085 -9.45678 -13.8003 16
241 2 -1.92708 -16.584 -5.83045 16
242 2 -3.36257 -13.291 -5.56679 22
243 2 -3.6284 -11.7181 -8.0746 19
244 2 0.0915959 -17.4818 -8.23956 10
245 2 -1.66766 -16.5001 -0.173196 17
246 2 -3.22602 -13.2682 -0.697276 23
247 2 -3.62161 -11.2934 -3.07436 23
248 2 -1.5143 -14.2283 -3.18622 23
249 2 -1.55499 -10.4458 -10.4798 15
250 2 -3.09315 -7.88305 -10.8889 19
251 2 -3.65589 -6.00259 -13.4481 20
252 2 -1.58602 -7.47366 -16.0408 10
253 2 -1.7861 -10.5277 -5.99823 24
254 2 -3.46361 -7.9837 -5.34656 21
255 2 -3.29134 -5.99055 -7.98473 20
256 2 -1.40239 -8.64906 -7.93112 21
257 2 -1.61942 -10.6764 -0.399865 23
258 2 -3.20419 -8.05567 -0.280027 24
259 2 -3.5633 -5.77931 -2.81342 20
260 2 -1.56943 -8.94741 -3.16029 22
261 2 -1.73816 -4.72039 -10.565 20
262 2 -3.14918 -1.76877 -10.744 23
263 2 -2.99036 0.363156 -13.0639 20
264 2 -1.47108 -2.74629 -13.4891 22
265 2 -1.83366 -4.91479 -5.6186 22
266 2 -3.25386 -1.81023 -5.29563 21
267 2 -3.55998 0.181756 -8.4042 25
268 2 -1.5869 -2.61276 -7.99435 23
269 2 -1.74876 -4.45242 -0.210394 21
270 2 -3.47112 -1.65203 -0.0675131 20
271 2 -3.28739 0.324267 -2.86331 21
272 2 -1.74773 -2.9306 -2.80471 21
273 1 -16.6971 -5.29656 0.162682 13
274 1 -14.766 -7.94331 0.5649 16
275 1 -17.005 -7.4144 2.47143 7
276 1 -16.3775 0.0815704 0.866503 14
277 1 -14.5311 -2.62466 0.902281 22
278 1 -15.0932 -4.6965 3.30465 18
279 1 -16.6831 -1.59055 3.14297 13
280 1 -16.7901 0.999508 4.96204 12
281 1 -15.3129 -2.24363 5.99764 18
282 1 -15.3416 -4.66414 7.40593 8
283 1 -15.3322 -9.89489 -2.96743 8
284 1 -13.3213 -5.38301 0.683429 22
285 1 -11.6058 -8.33462 0.426561 23
286 1 -11.5903 -10.354 3.05164 17
287 1 -13.2938 -7.41758 3.21746 18
288 1 -13.3388 -5.50941 5.35289 19
289 1 -12.1766 -9.02094 5.72717 15
290 1 -10.1502 -11.9457 5.88953 16
291 1 -13.985 -7.70474 7.37474 8
292 1 -12.4446 -4.83316 12.496 7
293 1 -10.3113 -7.40597 12.6499 10
294 1 -12.9693 0.353568 0.205216 24
295 1 -11.6646 -2.61734 0.496503 24
296 1 -11.5396 -4.70889 3.06389 22
297 1 -13.0052 -1.26591 3.47345 23
298 1 -13.197 0.562385 5.98716 22
299 1 -11.4369 -2.72974 5.93365 25
300 1 -12.0894 -5.02055 8.44241 19
301 1 -13.0493 -1.6536 8.28885 18
302 1 -13.4376 -0.141606 11.4049 14
303 1 -11.4563 -3.0177 10.7551 17
304 1 -10.3425 -11.3423 0.0833358 16
305 1 -7.86882 -14.0336 0.951242 15
306 1 -10.3133 -13.4733 2.75815 12
307 1 -7.35427 -13.0655 8.0738 16
308 1 -8.52331 -14.7218 4.66305 12
309 1 -10.1972 -5.67258 0.554059 24
310 1 -8.43936 -8.52874 0.463505 25
311 1 -8.51892 -10.4834 2.8179 24
312 1 -9.98014 -7.67555 2.93664 23
313 1 -10.2623 -5.83786 5.43632 22
314 1 -8.72186 -8.85147 5.63353 21
315 1 -8.95646 -10.4226 8.09296 16
316 1 -10.5463 -7.76561 8.57784 18
317 1 -10.1403 -5.53409 10.2189 19
318 1 -8.6065 -8.71953 10.5783 16
319 1 -9.9257 0.0561341 0.142843 21
320 1 -8.31022 -2.72273 0.203093 23
321 1 -8.31908 -4.69015 2.98223 23
322 1 -10.172 -1.64922 2.97487 24
323 1 -10.083 0.130068 5.77004 25
324 1 -8.38918 -2.97402 5.4738 20
325 1 -8.5597 -4.89861 7.9699 19
326 1 -9.83087 -1.8942 8.42234 22
327 1 -10.3303 0.152979 11.0752 22
328 1 -8.07744 -3.09516 11.0675 23
329 1 -8.47597 -4.97765 13.5209 14
330 1 -10.0177 -1.92045 13.2172 14
331 1 -7.04588 -11.1924 0.25295 23
332 1 -4.84989 -14.4596 0.281764 21
333 1 -5.21454 -16.188 2.77181 14
334 1 -6.59389 -13.3271 3.1307 22
335 1 -6.57831 -11.6306 5.4027 20
336 1 -5.81275 -15.0757 5.913 13
337 1 -5.09201 -14.8222 9.63059 9
338 1 -6.74047 -11.4695 10.5053 14
339 1 -6.55702 -5.76187 0.417388 22
340 1 -5.04388 -8.58135 0.529224 23
341 1 -5.0906 -10.7518 3.15411 24
342 1 -6.79562 -7.81573 3.06589 25
343 1 -6.86872 -5.80361 5.8686 23
344 1 -5.22072 -8.42897 5.79333 21
345 1 -4.90578 -10.5636 8.06153 22
346 1 -6.92078 -8.09428 7.96936 20
347 1 -6.91284 -6.08511 10.7891 22
348 1 -5.0457 -8.95612 10.4472 20
349 1 -1.52082 -9.06455 15.6126 11
350 1 -7.03098 -8.33141 13.3055 11
351 1 -6.44745 0.126389 0.239126 21
352 1 -4.94518 -2.89857 0.496083 25
353 1 -5.26038 -4.67494 2.82543 22
354 1 -6.84199 -1.76608 2.93562 21
355 1 -6.85717 -0.117114 5.32952 23
356 1 -5.14513 -2.95218 5.50701 23
357 1 -5.14862 -5.15051 8.36484 24
358 1 -6.36197 -2.01335 8.24686 22
359 1 -6.91995 -0.184488 11.0666 21
360 1 -4.83422 -3.17791 11.0806 24
361 1 -5.3486 -5.18692 13.7373 20
362 1 -6.57408 -2.45988 13.6612 18
363 1 -3.40172 -11.4442 0.0104314 23
364 1 -1.7387 -14.4429 0.184304 26
365 1 -1.73915 -16.2283 2.88265 19
366 1 -3.49734 -13.5951 3.28359 23
367 1 -3.31972 -11.4046 5.55992 20
368 1 -1.82143 -14.6998 5.51173 18
369 1 -3.43469 -13.601 7.5132 17
370 1 -3.62332 -12.2215 10.4507 15
371 1 -1.44811 -14.8943 9.60956 10
372 1 -3.20745 -5.96592 0.122132 21
373 1 -1.69022 -8.87347 0.486433 24
374 1 -1.81385 -10.9034 3.06206 22
375 1 -3.28753 -7.53161 3.02338 23
376 1 -3.29043 -5.82239 5.60087 23
377 1 -1.75026 -8.56376 5.50427 23
378 1 -1.39175 -10.8029 7.78579 22
379 1 -3.21966 -7.75327 8.06514 23
380 1 -3.37214 -5.98446 10.934 25
381 1 -2.02984 -8.89587 10.6572 23
382 1 -1.64899 -10.9533 12.9829 11
383 1 -3.66736 -7.91618 13.6821 18
384 1 -3.39118 0.222902 0.494878 23
385 1 -1.51086 -2.55183 0.50673 22
386 1 -1.76525 -4.91077 2.88241 23
387 1 -3.41038 -1.86821 3.19452 22
388 1 -3.36808 -0.0464539 5.41319 20
389 1 -1.90261 -2.95801 5.52294 22
390 1 -1.62469 -5.2204 8.62813 25
391 1 -3.41612 -1.91869 8.16132 22
392 1 -3.59363 -0.265117 10.8756 21
393 1 -1.67295 -3.17526 10.9212 24
394 1 -2.07223 -5.20923 13.4679 21
395 1 -3.62297 -2.02496 13.7891 22
396 2 -16.9275 -5.1636 2.46324 11
397 2 -15.2086 -8.19541 2.5748 12
398 2 -15.004 -4.35108 5.34899 15
399 2 -16.5204 -0.970213 5.0146 14
400 2 -16.4377 0.31343 2.74543 15
401 2 -15.117 -2.57089 2.66699 19
402 2 -14.5709 -2.92064 7.60145 13
403 2 -11.875 -10.105 -0.449779 16
404 2 -11.4823 -10.755 4.91927 15
405 2 -13.3763 -7.64882 5.2418 16
406 2 -13.2178 -5.58097 2.59398 23
407 2 -11.8441 -8.43659 2.31118 23
408 2 -13.7242 -5.5462 7.46471 14
409 2 -12.2371 -8.27803 7.65339 14
410 2 -11.5827 -4.50723 5.18185 23
411 2 -12.572 -1.34018 5.32214 21
412 2 -12.9276 0.3412 2.26596 23
413 2 -11.8738 -2.69093 2.47586 22
414 2 -11.9102 -4.95715 10.4881 15
415 2 -13.0571 -1.4449 10.1969 15
416 2 -13.2123 0.0663995 7.90557 21
417 2 -11.4067 -3.03354 8.30681 19
418 2 -11.5621 -3.03619 12.8272 15
419 2 -10.0508 -13.6875 4.60569 12
420 2 -10.2146 -11.5935 2.14216 19
421 2 -8.33404 -14.4451 2.74582 14
422 2 -8.82047 -12.1652 7.43561 15
423 2 -8.45059 -10.5975 4.86187 22
424 2 -10.2214 -7.71719 4.82545 24
425 2 -9.96542 -5.50871 2.53429 25
426 2 -8.39584 -8.59038 2.42545 24
427 2 -8.17899 -10.4325 9.80955 16
428 2 -10.0704 -7.58409 10.6537 16
429 2 -10.427 -5.86024 7.99672 19
430 2 -9.1307 -8.61703 7.67073 20
431 2 -10.5328 -5.61621 12.9263 14
432 2 -8.654 -8.13117 12.6102 12
433 2 -8.44047 -5.08462 5.133 24
434 2 -9.9271 -1.92617 4.91222 24
435 2 -10.1912 0.188806 2.24768 23
436 2 -8.47959 -2.67066 2.28167 24
437 2 -8.29099 -4.82391 10.0744 24
438 2 -9.93604 -1.76902 10.6445 22
439 2 -9.92749 0.0805878 7.74636 23
440 2 -8.16905 -2.60747 7.48294 23
441 2 -9.90139 0.164368 12.968 17
442 2 -8.37439 -3.03598 13.0555 18
443 2 -5.33177 -16.0604 4.54062 14
444 2 -6.98502 -13.6283 5.14602 20
445 2 -6.85212 -11.3419 2.16714 22
446 2 -5.05902 -14.0736 2.15284 21
447 2 -6.34651 -13.4541 9.68206 12
448 2 -6.4634 -11.31 7.46414 20
449 2 -5.01121 -15.1895 7.76689 11
450 2 -4.87414 -10.4189 5.07155 23
451 2 -6.90228 -7.86691 5.17722 22
452 2 -6.66992 -5.76323 2.54723 22
453 2 -5.08426 -8.69028 2.57119 23
454 2 -4.81987 -10.7754 9.94228 19
455 2 -6.60461 -8.05711 9.8711 23
456 2 -6.81255 -5.96675 7.8124 18
457 2 -4.87574 -8.55957 7.68961 21
458 2 -6.85156 -5.71053 12.713 20
459 2 -5.19012 -8.8036 12.48 18
460 2 -5.14689 -5.06371 4.87268 24
461 2 -7.00969 -2.05505 4.84739 24
462 2 -6.61783 0.130321 2.2167 25
463 2 -5.1364 -2.7276 2.43595 23
464 2 -5.0481 -4.97431 10.3344 22
465 2 -6.53876 -2.07327 10.2365 23
466 2 -6.73391 -0.062836 7.62614 24
467 2 -4.90335 -3.16293 7.46289 20
468 2 -4.60855 -4.99628 15.5521 15
469 2 -6.43733 -2.11099 15.6256 15
470 2 -6.53656 -0.341371 12.9892 21
471 2 -4.81621 -3.19738 13.0511 22
472 2 -1.40628 -16.4266 4.65395 14
473 2 -3.29793 -13.4461 5.16522 23
474 2 -3.43853 -11.7586 2.43346 23
475 2 -1.80877 -14.2962 2.33132 23
476 2 -3.08361 -13.9311 9.57024 14
477 2 -3.05143 -11.4286 7.40736 20
478 2 -1.28272 -14.4801 7.64971 15
479 2 -1.05703 -10.6262 14.7728 12
480 2 -1.38665 -10.5432 5.6437 18
481 2 -3.49785 -7.74813 4.87717 22
482 2 -3.30261 -5.91581 2.06925 23
483 2 -1.91765 -8.73721 2.44221 25
484 2 -2.35078 -10.9931 11.0485 17
485 2 -3.32859 -7.63227 9.93104 22
486 2 -3.52207 -5.94769 7.49061 22
487 2 -1.53069 -8.57698 7.65949 21
488 2 -2.85195 -7.76087 15.4512 15
489 2 -3.66927 -6.00212 12.7851 21
490 2 -2.129 -8.71931 12.9351 20
491 2 -1.58643 -5.13455 4.88431 22
492 2 -3.46249 -2.10027 5.09938 23
493 2 -3.26801 0.0798672 2.525 24
494 2 -1.7414 -2.87886 2.44371 22
495 2 -1.59962 -5.22683 10.5068 23
496 2 -3.33701 -2.15233 10.2618 24
497 2 -3.24668 -0.015742 7.37697 24
498 2 -1.85735 -3.22987 8.0073 21
499 2 -1.64121 -4.98887 16.2896 14
500 2 -3.10887 -2.10326 15.981 18
501 2 -3.23811 -0.131647 13.0864 23
502 2 -1.76504 -3.25789 12.9834 21
503 1 -13.6996 5.47898 -10.2673 14
504 1 -14.7977 0.571062 -7.35622 18
505 1 -16.3714 5.50202 -5.1332 14
506 1 -14.7279 2.93203 -4.90759 22
507 1 -15.2047 0.888618 -1.99091 20
508 1 -16.1352 3.85613 -2.29074 14
509 1 -16.0902 3.90331 -8.17164 13
510 1 -14.5616 8.43437 -4.97327 17
511 1 -15.0066 6.46524 -1.85861 18
512 1 -12.4203 0.513764 -12.3542 12
513 1 -14.8578 6.79347 -7.99146 13
514 1 -11.4754 3.23427 -10.4715 20
515 1 -11.6016 1.24821 -7.72529 22
516 1 -13.0798 3.79327 -7.53454 25
517 1 -12.9569 5.68016 -4.98808 24
518 1 -11.4485 3.11868 -4.97263 22
519 1 -11.5578 1.2008 -2.56759 22
520 1 -13.2346 3.96066 -2.2487 21
521 1 -11.4769 6.9104 -7.76514 20
522 1 -13.2524 9.73261 -7.43938 12
523 1 -11.3438 12.9373 -7.36677 9
524 1 -13.2178 11.5147 -4.50245 14
525 1 -11.1653 8.43666 -5.18331 24
526 1 -11.825 7.04723 -2.24439 23
527 1 -13.2929 9.46278 -2.34631 19
528 1 -11.3144 12.9384 -2.28591 13
529 1 -8.65088 3.28362 -14.9884 10
530 1 -8.44231 1.00765 -12.4751 21
531 1 -9.79886 4.35719 -12.8052 13
532 1 -9.80462 6.33764 -10.1379 14
533 1 -8.25831 3.22892 -10.1549 24
534 1 -8.29223 1.12815 -7.59588 23
535 1 -9.83844 4.14325 -7.49431 24
536 1 -9.6288 6.18341 -5.09192 26
537 1 -8.23857 3.2531 -4.82392 23
538 1 -8.49254 1.18364 -2.44996 21
539 1 -10.0456 4.24574 -2.17183 23
540 1 -7.56137 6.53244 -14.6364 12
541 1 -7.58361 8.58472 -11.6643 12
542 1 -8.22843 7.21939 -7.60426 23
543 1 -9.71065 10.1685 -8.08769 18
544 1 -10.0191 11.7948 -4.88654 22
545 1 -8.13451 9.14775 -4.83255 23
546 1 -8.32638 6.95572 -2.34393 21
547 1 -10.0874 9.99289 -2.37188 24
548 1 -8.29494 12.8091 -7.57014 17
549 1 -8.64105 14.5687 -5.37709 16
550 1 -8.06557 12.7624 -2.48372 21
551 1 -4.36062 4.86944 -14.9472 16
552 1 -5.60472 2.5221 -17.0118 9
553 1 -4.6679 1.42103 -12.8055 22
554 1 -6.66025 3.97639 -12.9473 19
555 1 -6.61989 5.86077 -10.3092 22
556 1 -4.9035 2.98362 -10.2532 24
557 1 -4.96223 1.16405 -7.27125 23
558 1 -6.68627 4.14886 -7.43631 24
559 1 -6.49622 6.56998 -4.79205 22
560 1 -4.84622 3.44015 -4.84864 21
561 1 -4.85872 1.1258 -2.16001 25
562 1 -6.52347 4.17815 -2.2353 24
563 1 -4.72927 6.86048 -12.8995 24
564 1 -5.92023 9.32651 -14.4783 10
565 1 -7.11907 11.5016 -10.1272 14
566 1 -4.94459 9.02799 -10.1557 21
567 1 -5.05057 6.89223 -7.63472 25
568 1 -6.42523 10.0071 -7.36055 22
569 1 -6.25346 11.9031 -5.15281 23
570 1 -4.54498 8.93199 -4.862 23
571 1 -4.72232 7.2979 -2.10405 22
572 1 -6.52948 10.0016 -2.39312 22
573 1 -4.9962 13.1891 -7.6787 23
574 1 -6.45855 15.7785 -7.48711 13
575 1 -4.79926 14.9017 -5.06394 22
576 1 -4.93337 12.7289 -2.46119 23
577 1 -6.68343 15.6318 -2.47141 18
578 1 -2.37897 4.57131 -17.3577 10
579 1 -1.75077 2.83594 -15.2589 21
580 1 -1.11755 1.08032 -12.6744 23
581 1 -3.0609 4.0152 -12.6893 24
582 1 -3.50867 6.07832 -10.1502 21
583 1 -1.62393 3.09162 -10.0085 25
584 1 -1.8374 1.02684 -7.58506 23
585 1 -3.28159 4.03033 -7.40288 23
586 1 -3.24358 6.25114 -4.96409 22
587 1 -1.73012 2.94213 -4.7418 24
588 1 -1.61853 0.988046 -2.01065 24
589 1 -3.36777 3.90732 -1.99546 25
590 1 -2.80304 7.40517 -15.3122 14
591 1 -1.44757 7.02635 -12.765 23
592 1 -3.07097 10.1266 -12.952 17
593 1 -3.08364 12.0254 -10.1453 21
594 1 -1.7701 9.02861 -10.4209 21
595 1 -1.58871 7.01101 -7.66629 25
596 1 -3.4932 9.75356 -7.82662 22
597 1 -3.22043 11.7271 -4.85247 25
598 1 -1.74536 8.9097 -4.85441 22
599 1 -1.3922 6.88642 -2.00133 23
600 1 -3.09942 10.0903 -2.05715 21
601 1 -5.05325 12.5538 -12.6148 10
602 1 -5.37522 14.4586 -10.6439 12
603 1 -1.70662 12.6361 -7.42707 23
604 1 -3.17964 15.2196 -7.64449 16
605 1 -5.80595 17.8009 -4.36673 11
606 1 -1.44156 14.2185 -4.96888 21
607 1 -1.39098 12.5852 -2.25969 23
608 1 -3.25546 15.7856 -2.39507 24
609 2 -14.8291 0.805515 -5.33609 18
610 2 -15.8639 3.9987 -6.11657 15
611 2 -14.5762 2.57309 -8.25035 18
612 2 -14.7875 1.05752 0.0978367 20
613 2 -15.9525 4.43457 -0.450291 15
614 2 -16.2579 5.57421 -3.23652 15
615 2 -14.7875 2.62785 -2.9301 22
616 2 -14.6447 6.66863 -6.04651 20
617 2 -14.7238 7.0233 0.132159 19
618 2 -14.4452 8.06432 -3.02734 15
619 2 -14.2554 0.263542 -11.502 9
620 2 -13.4498 3.55126 -10.8102 13
621 2 -11.1712 1.25557 -11.099 19
622 2 -11.6026 1.07777 -5.30761 22
623 2 -12.9233 3.78133 -5.66215 20
624 2 -15.5263 5.23807 -9.35556 11
625 2 -11.3422 2.94301 -8.37309 22
626 2 -11.2978 1.35541 -0.522499 23
627 2 -13.0041 4.03463 -0.313669 25
628 2 -13.0507 5.80328 -3.08965 26
629 2 -11.566 3.22266 -2.90544 23
630 2 -14.4852 8.50919 -8.18516 10
631 2 -11.5291 6.49442 -5.77066 22
632 2 -13.4882 9.95698 -5.43007 15
633 2 -11.3715 8.8391 -7.35102 16
634 2 -11.5861 7.18773 -0.31697 24
635 2 -13.3231 9.84456 -0.2641 17
636 2 -12.866 11.7839 -2.66437 12
637 2 -11.5086 8.93565 -3.31 24
638 2 -11.5408 12.5707 -5.51134 14
639 2 -11.1868 12.7368 -0.0810859 15
640 2 -8.06808 1.39224 -10.5434 20
641 2 -10.083 4.70768 -10.9224 18
642 2 -8.68687 5.0999 -14.1794 10
643 2 -8.62881 2.8301 -13.1926 16
644 2 -8.31761 1.25678 -5.29999 20
645 2 -9.90573 4.08596 -5.56751 24
646 2 -12.7636 5.70259 -8.66346 20
647 2 -8.18189 2.9703 -8.07942 23
648 2 -8.13708 0.978405 -0.287271 22
649 2 -9.6236 4.24811 -0.299624 22
650 2 -10.1217 6.44573 -3.05547 21
651 2 -8.59997 3.02108 -2.88331 24
652 2 -8.15092 7.0478 -10.8604 17
653 2 -9.89317 5.91977 -8.14513 21
654 2 -7.30355 8.4306 -13.4747 11
655 2 -8.17581 7.10151 -5.73397 25
656 2 -9.96087 9.89998 -5.13165 19
657 2 -9.91469 12.2373 -8.28679 13
658 2 -8.27864 9.18577 -7.18169 24
659 2 -7.9344 6.91693 -0.203503 22
660 2 -10.0353 9.97653 -0.334416 22
661 2 -9.78136 12.0275 -2.8017 20
662 2 -7.73853 8.59442 -2.81071 21
663 2 -8.18465 12.3294 -5.50475 21
664 2 -8.18722 13.0768 -0.606432 21
665 2 -7.94667 14.7191 -3.60965 17
666 2 -4.92179 1.34075 -10.9444 22
667 2 -6.48832 4.04626 -10.8054 24
668 2 -6.07387 5.48132 -14.0954 18
669 2 -4.72967 3.20831 -13.3341 20
670 2 -5.06893 0.878865 -5.37914 24
671 2 -6.2131 4.67635 -5.59599 21
672 2 -6.78386 5.93007 -8.24416 21
673 2 -4.81479 2.98569 -7.97392 23
674 2 -4.899 1.4117 -0.361643 23
675 2 -6.50242 3.94351 -0.0575747 21
676 2 -6.62043 6.04774 -2.76928 23
677 2 -5.18656 3.09725 -2.92047 21
678 2 -5.09549 7.15146 -10.7414 20
679 2 -6.78264 9.71706 -10.3437 16
680 2 -4.49202 7.98718 -14.5054 14
681 2 -4.86269 7.1408 -5.83724 26
682 2 -6.27825 9.8588 -5.26477 21
683 2 -6.6935 11.8862 -8.20911 21
684 2 -4.93619 8.73578 -8.35392 23
685 2 -4.93874 6.84851 -0.110444 19
686 2 -6.76672 10.4634 -0.244837 20
687 2 -6.5653 11.8317 -3.03853 22
688 2 -4.6173 9.04066 -2.60587 23
689 2 -6.25424 12.8039 -10.9644 12
690 2 -4.92045 13.2362 -5.82205 25
691 2 -7.72612 14.6461 -7.05093 13
692 2 -4.82641 14.9112 -8.90973 15
693 2 -4.75625 12.8943 -0.386821 24
694 2 -7.62724 16.0141 -0.716179 10
695 2 -4.66165 14.7218 -3.09979 23
696 2 -1.51657 1.13694 -10.7083 23
697 2 -3.34612 4.17988 -10.7588 24
698 2 -3.10874 5.83074 -13.4799 20
699 2 -1.48611 3.30467 -13.4392 22
700 2 -1.80794 0.861744 -5.36425 22
701 2 -3.22645 4.26363 -5.32691 21
702 2 -3.19805 5.78266 -8.20997 22
703 2 -1.62895 3.1238 -7.96753 23
704 2 -1.6588 0.985404 -0.00324591 24
705 2 -3.42215 3.92758 -0.0798966 22
706 2 -3.33148 5.91835 -2.60255 24
707 2 -1.70732 2.86804 -2.60667 22
708 2 -1.86491 7.16588 -10.7714 22
709 2 -3.26529 10.263 -10.9226 20
710 2 -4.9932 10.7923 -13.5808 13
711 2 -1.56706 8.92652 -13.1536 14
712 2 -1.6162 6.96518 -5.76132 25
713 2 -3.18228 9.96681 -5.77085 24
714 2 -3.33913 12.038 -8.27957 21
715 2 -1.7646 8.94561 -8.39884 25
716 2 -1.48169 7.01686 -0.0508437 22
717 2 -2.90591 9.68361 -0.123061 23
718 2 -3.16875 11.8547 -3.03024 24
719 2 -1.53291 8.92002 -2.99352 25
720 2 -1.30794 12.7147 -10.6572 16
721 2 -1.58933 12.3947 -5.34254 21
722 2 -6.02636 16.4001 -5.68767 14
723 2 -1.33374 14.5345 -7.854 19
724 2 -1.20541 12.7656 -0.235102 23
725 2 -3.05426 15.3705 -0.510925 22
726 2 -6.07254 17.4791 -2.6098 11
727 2 -1.54449 14.4311 -2.90704 22
728 1 -16.1461 5.96743 0.712385 15
729 1 -14.5349 3.15556 0.51084 21
730 1 -14.4704 1.16638 2.79596 20
731 1 -16.4437 3.64337 2.82662 13
732 1 -15.4787 3.44866 6.01507 13
733 1 -14.9391 1.07006 8.06474 15
734 1 -14.4078 8.88921 0.951987 16
735 1 -14.6307 6.65175 3.43609 16
736 1 -14.9085 8.85147 4.84586 9
737 1 -12.9009 5.9066 0.431804 23
738 1 -11.2998 2.91015 0.210923 22
739 1 -11.5197 1.37001 3.20809 22
740 1 -13.2403 4.27206 3.20154 23
741 1 -13.2446 5.71864 6.42254 20
742 1 -11.8376 3.14034 5.82526 22
743 1 -11.5591 1.17116 8.37489 22
744 1 -13.2281 3.71954 8.80365 17
745 1 -12.8337 5.96823 10.3746 13
746 1 -11.4871 2.87954 11.4051 19
747 1 -11.4377 0.875107 13.878 10
748 1 -12.7344 11.7652 -0.0812515 14
749 1 -11.6063 9.1443 0.475167 24
750 1 -11.5801 7.19773 3.30098 23
751 1 -13.4329 10.6338 3.37567 13
752 1 -11.6086 8.80062 5.74919 18
753 1 -11.4768 6.98203 8.39089 18
754 1 -10.6082 8.18652 11.8119 13
755 1 -11.2823 13.1444 1.75682 12
756 1 -9.98154 6.01438 0.591762 24
757 1 -8.17912 3.09539 0.611186 25
758 1 -8.59695 0.976954 3.07687 24
759 1 -9.91369 4.20607 2.99172 22
760 1 -9.89164 5.9413 5.63974 22
761 1 -8.56677 2.97013 5.74767 22
762 1 -8.28993 0.753038 8.43076 24
763 1 -10.0288 4.13749 8.55531 25
764 1 -9.69954 5.75058 11.4117 21
765 1 -8.22168 2.96874 10.6026 23
766 1 -8.11215 0.711615 13.7351 19
767 1 -9.46806 3.79523 14.2289 13
768 1 -9.50489 11.7912 0.341006 21
769 1 -8.16579 9.11182 0.294155 23
770 1 -8.08755 7.13852 3.06635 23
771 1 -10.025 9.82018 3.11151 23
772 1 -9.41468 11.7054 6.11404 17
773 1 -8.21644 9.1839 5.64384 23
774 1 -8.17263 6.73818 8.41046 24
775 1 -10.0493 9.69061 8.64044 17
776 1 -7.72658 8.58838 10.7691 23
777 1 -8.1424 6.78747 13.5706 12
778 1 -8.26219 14.6225 0.396325 15
779 1 -7.92979 12.6451 3.08155 19
780 1 -7.65576 14.4327 6.27174 13
781 1 -9.29396 13.0755 9.13091 9
782 1 -6.44903 5.95005 0.446637 22
783 1 -4.87093 2.92916 0.810952 25
784 1 -4.97758 0.908558 2.97198 21
785 1 -6.52329 3.86923 2.9016 23
786 1 -6.70769 6.04976 5.90256 22
787 1 -5.2347 2.85764 5.51134 22
788 1 -4.92181 0.861762 8.139 22
789 1 -6.68059 3.3985 8.20754 20
790 1 -6.49377 5.53425 10.999 23
791 1 -4.98274 2.81454 10.7976 20
792 1 -5.00744 0.762742 13.829 22
793 1 -6.27985 3.87378 13.6472 20
794 1 -6.39505 12.1557 0.458715 21
795 1 -4.55246 8.84716 0.450641 22
796 1 -4.88747 6.85382 3.11036 23
797 1 -6.64279 9.71985 2.75055 22
798 1 -6.29959 11.7169 5.48007 20
799 1 -5.1529 8.89476 5.63507 22
800 1 -5.10625 7.01979 8.71981 24
801 1 -6.55685 9.62242 8.19342 23
802 1 -9.39191 11.7331 12.2182 8
803 1 -4.91864 8.87212 11.1862 23
804 1 -5.21259 6.79003 13.0974 20
805 1 -6.33552 10.2178 13.2617 15
806 1 -4.58486 14.8601 0.456859 19
807 1 -4.55966 12.5006 3.07187 22
808 1 -6.07452 15.1997 3.22413 15
809 1 -4.4625 14.4695 5.97988 16
810 1 -4.57371 12.4924 8.56268 18
811 1 -3.46933 5.82167 0.418591 23
812 1 -1.75472 2.94896 0.61205 23
813 1 -1.67631 1.05138 3.15849 24
814 1 -3.23112 4.05315 3.23681 23
815 1 -3.49229 5.86815 5.92137 23
816 1 -1.73651 3.11348 5.70607 23
817 1 -1.61001 0.690145 8.53983 25
818 1 -3.26872 3.72041 8.0458 21
819 1 -3.32302 5.74595 10.9953 23
820 1 -1.8905 2.45927 11.3155 25
821 1 -1.6821 0.313666 13.7525 22
822 1 -3.48039 3.43178 13.8456 23
823 1 -2.8404 11.7641 0.212636 23
824 1 -1.24873 8.834 0.442428 22
825 1 -1.55648 6.69476 3.278 23
826 1 -3.18799 9.72677 2.97513 22
827 1 -3.15116 11.4858 6.00989 22
828 1 -1.50317 8.64599 5.58643 22
829 1 -1.67702 6.98002 8.31003 22
830 1 -3.12178 9.43277 8.50143 25
831 1 -3.43266 11.1234 11.3285 17
832 1 -1.76442 8.62306 11.3208 23
833 1 -1.67439 6.33627 13.8581 20
834 1 -3.41887 9.21103 13.844 13
835 1 -6.40041 17.8118 -0.753425 8
836 1 -1.47343 14.5322 0.446429 24
837 1 -1.41163 12.4982 3.10976 22
838 1 -2.81383 15.5442 3.09232 21
839 1 -0.45104 13.8813 5.40026 18
840 1 -1.38356 11.6363 8.86403 21
841 1 -2.34356 15.0152 8.4211 12
842 1 -6.7943 11.6835 10.5295 16
843 2 -15.2327 1.22523 6.09927 16
844 2 -17.0046 2.82267 4.54 11
845 2 -15.7739 5.46402 2.54337 14
846 2 -14.7469 2.9378 2.52406 22
847 2 -11.7721 1.19958 10.2589 22
848 2 -14.7698 3.10896 7.82365 14
849 2 -14.0908 7.14996 5.36391 14
850 2 -14.4902 8.76813 2.8691 15
851 2 -11.5329 1.25328 5.14085 24
852 2 -13.4937 4.1809 5.33773 21
853 2 -12.8298 6.29604 2.35788 21
854 2 -11.5059 3.2939 2.34322 24
855 2 -13.2732 0.452063 13.2531 9
856 2 -13.0371 3.83259 10.7907 13