ITEM: TIMESTEP
452000
ITEM: NUMBER OF ATOMS
2000
ITEM: BOX BOUNDS pp pp pp
-30.0 30.0
-30.0 30.0
-30.0 30.0
ITEM: ATOMS id type x y z Coordination
1 2 -4.31103 8.62181 -11.1067 18
2 1 5.43895 7.295 -9.52052 15
3 2 -1.72562 3.12152 16.6466 12
4 1 -11.1433 -6.13697 -1.17788 21
5 2 3.91398 -13.0556 4.00294 18
6 1 -9.972 -2.85936 -1.97321 17
7 1 -4.65468 -5.40137 -10.2408 23
8 2 -4.11545 -4.64068 7.38035 18
9 2 18.4722 -10.5787 0.029265 6
10 1 12.8756 -5.97569 2.51179 19
11 1 -10.2857 -8.55136 -6.63811 16
12 1 -12.0629 -4.75901 -3.63065 21
13 2 4.64664 -8.02481 3.75445 20
14 2 10.6395 -13.7686 -2.17646 15
15 2 -8.51646 1.08265 -4.0921 19
16 2 10.5438 -9.17499 3.02691 17
17 2 -6.25554 10.8771 -9.82113 18
18 2 15.5534 -3.73693 -1.95598 15
19 2 3.85176 14.5211 -8.83986 11
20 2 0.851352 11.7164 3.81183 12
21 2 -3.30005 0.00844033 -6.19079 18
22 2 -13.907 -7.22145 13.4769 11
23 2 8.59412 2.75797 -6.52667 20
24 2 10.1986 -5.54224 -2.35038 18
25 2 14.1912 -9.32327 -1.62238 15
26 2 2.73065 -1.82743 -16.2303 11
27 2 10.0236 -11.6455 -10.729 11
28 2 5.37607 7.24259 -11.6446 15
29 2 0.830852 8.40539 -7.62324 18
30 2 15.2522 4.60734 -5.39374 13
31 2 -10.6446 1.40219 -0.563042 17
32 2 -9.29644 3.65242 -1.42572 19
33 2 -3.44993 1.38886 6.16814 16
34 2 2.53403 -16.8778 -1.58973 14
35 2 -8.69483 -2.29224 -15.3728 13
36 1 -8.66339 -2.39102 11.8546 20
37 1 -8.86575 -2.02135 3.19316 20
38 1 13.9664 -11.1085 -1.14068 15
39 1 8.28437 2.96903 -4.09736 17
40 1 17.5205 1.61974 -3.61601 16
41 1 -4.51005 15.6453 2.84491 19
42 1 -3.56033 4.71 -11.4698 17
43 1 -10.096 -2.33614 -11.3827 14
44 1 1.23459 10.0294 11.9446 13
45 1 0.49457 8.09501 -2.88188 16
46 1 -6.08866 0.704317 -0.31871 19
47 1 1.2806 -12.7906 -12.4976 9
48 1 -17.3835 -3.62992 -0.0425188 17
49 1 17.0122 -9.1311 6.24635 14
50 1 -1.53785 10.7928 7.28569 16
51 1 -9.80155 8.57554 6.6032 17
52 1 -12.4064 3.67839 -13.679 16
53 1 -5.1782 3.94786 -6.9991 14
54 1 -2.09649 -10.2282 3.69138 20
55 1 8.90282 0.635125 -14.2913 11
56 1 -11.0942 -8.89911 1.17499 16
57 1 -13.8052 2.87063 -10.9665 8
58 1 -3.64419 2.37221 7.76682 16
59 1 2.6345 12.6657 9.56199 11
60 1 -0.594731 -6.49303 8.25008 19
61 1 -15.3117 -2.09281 4.57944 13
62 1 -4.55012 7.37994 -5.55946 16
63 1 -13.5996 3.84744 2.72673 15
64 1 8.46053 -10.7426 -7.9873 17
65 1 6.32077 -12.2092 2.45339 16
66 1 -12.2598 3.05223 -16.2814 12
67 1 -12.3786 -0.412456 5.2617 16
68 1 -7.52786 -3.99974 -14.3572 14
69 1 -5.65196 -5.92743 1.04953 20
70 1 -16.6735 -3.00678 -2.73603 16
71 1 -2.13124 -9.45991 -1.9847 15
72 1 -2.7994 9.65427 -3.4719 17
73 1 -3.76743 -17.2374 4.76595 11
74 1 -0.273829 -11.5874 0.639204 18
75 1 -7.5031 3.13549 1.93028 16
76 1 -1.42908 -9.31499 -15.8069 11
77 1 -13.7782 4.57515 -7.3577 15
78 1 -7.27152 -4.37938 -8.60757 18
79 1 -0.429872 18.4939 -12.7825 10
80 1 -1.85844 -4.9973 -12.1742 21
81 1 2.57428 7.96341 -15.7425 12
82 1 -1.54683 8.00776 -16.9173 12
83 1 2.98422 7.69866 -7.79918 16
84 1 -7.99149 -8.31128 3.18986 15
85 1 -16.9286 3.36669 3.52393 10
86 1 -8.07624 -3.62498 5.83894 17
87 1 3.53837 -14.0235 -1.34733 15
88 1 17.2583 -2.70964 3.89488 13
89 1 -15.3319 -8.12214 3.26072 14
90 1 4.36365 -11.6062 -10.4269 13
91 1 2.61753 10.0975 -5.81144 14
92 1 -2.65266 -11.8004 6.45097 18
93 1 6.98821 -1.15531 14.564 15
94 1 -7.37444 -14.7342 -2.18405 11
95 1 -6.35538 -9.03866 -6.69991 16
96 1 8.32036 7.45498 -8.77529 17
97 1 14.1218 -12.1677 -4.9388 10
98 1 -0.337534 4.16523 6.00735 14
99 1 -6.20686 -12.3652 -6.75692 15
100 1 5.14191 9.07401 15.0638 9
101 1 -8.4883 -7.65121 -9.09351 13
102 1 5.22828 -2.42719 1.30022 18
103 1 -3.53735 11.5474 9.2589 15
104 1 -9.87734 -0.545843 -7.81726 17
105 1 11.7873 4.29077 -3.72677 18
106 1 -8.0489 -11.011 -0.326605 14
107 1 17.5849 -2.99611 -7.61849 14
108 1 -7.50681 5.86526 -15.6544 17
109 1 0.924034 -5.70924 -10.7953 20
110 1 -7.18945 -1.55287 -14.1656 20
111 1 2.31838 12.113 -12.7949 13
112 1 -14.7411 0.894135 2.07545 21
113 1 9.78321 -10.5381 -4.33918 18
114 1 12.1269 -3.60489 0.797479 14
115 1 8.85922 -1.76918 2.63989 15
116 1 -1.5476 6.61661 -5.01457 17
117 1 6.00222 -3.00685 -4.57653 21
118 1 14.8849 -5.87495 -9.93201 11
119 1 1.41261 -10.1435 -8.68575 19
120 1 -15.2583 2.51683 -0.149952 16
121 1 0.97001 -9.36917 -1.417 15
122 1 -10.2931 -9.46685 -2.16936 18
123 1 9.07909 -12.7195 -2.30165 17
124 1 -9.98755 4.70559 -10.6928 17
125 1 -5.01303 -11.8915 -10.8465 8
126 1 -0.456609 -15.0449 -4.05434 14
127 1 -5.56626 -1.56378 -10.0746 18
128 1 6.88868 -5.86899 1.63549 16
129 1 -5.91424 4.87696 -18.5505 12
130 1 -12.7164 0.149494 -0.16872 18
131 1 -3.92286 -14.5489 4.31024 16
132 1 10.9002 -7.12706 -2.89754 19
133 1 -7.83499 -14.9898 -4.903 8
134 1 -10.4566 -3.79469 0.698642 17
135 1 -13.4158 -7.3077 -1.05875 16
136 1 -12.6492 5.97883 -16.0371 10
137 1 -11.8133 0.206754 -10.5016 10
138 1 -13.0771 1.37886 -5.31954 15
139 1 -18.316 0.905686 -6.45567 6
140 1 -10.5953 11.1597 6.39111 13
141 1 -9.63029 16.3723 -4.81525 10
142 1 18.678 -8.62036 -0.864733 12
143 1 -4.83754 10.6361 -14.4134 13
144 1 -12.5483 -0.182407 -15.6624 9
145 1 5.3477 0.356411 0.598034 17
146 1 -11.6061 3.04601 -8.7636 15
147 1 3.19579 -13.4167 -4.77616 16
148 2 -9.09656 -0.15414 2.15718 21
149 2 0.502267 8.03188 8.9713 20
150 2 -2.2633 -14.7417 3.28607 16
151 2 -7.26444 -10.8245 14.7521 13
152 2 -7.24946 -7.43582 1.35654 19
153 2 -7.70687 7.75966 13.5607 17
154 2 2.59698 -10.9839 14.5375 13
155 2 -4.42479 18.4799 -7.26528 7
156 2 11.0097 5.7597 -5.76329 16
157 2 -14.2013 2.65011 1.52838 17
158 2 -2.2086 -3.29061 5.43931 15
159 2 -4.00981 9.01698 1.50536 17
160 2 -5.14825 -12.1451 -9.08679 15
161 2 -3.8403 -10.321 -2.71071 14
162 2 2.4718 -15.0576 4.85027 16
163 2 -1.6778 8.24434 11.5771 14
164 2 -6.49038 2.07652 10.0223 20
165 2 -18.4452 1.92272 -4.9235 8
166 2 -3.83446 1.10266 9.08775 15
167 2 5.8804 -2.76159 -7.86978 21
168 2 7.43128 2.19363 -14.852 16
169 2 5.07613 -4.9767 -10.8339 17
170 2 -8.64924 -2.53658 -0.692261 19
171 2 -13.0849 7.14143 -9.81755 13
172 2 -10.6542 11.8435 2.70185 14
173 2 -14.3539 -10.4171 7.38343 9
174 2 0.151735 -16.1073 -2.16136 13
175 2 -13.0539 1.73715 -1.1371 19
176 2 -8.87601 3.1409 3.09029 16
177 2 -14.4705 -1.35827 -7.84832 8
178 2 -15.4192 6.66415 1.19261 14
179 2 1.79354 -13.9066 -0.998487 18
180 2 -6.32232 -9.42425 3.59402 14
181 2 -12.5405 -1.32117 7.15805 14
182 2 -6.84776 -9.53502 -5.05215 16
183 2 -5.62561 -3.50228 -9.89654 17
184 2 -2.4187 -11.4426 -6.85479 17
185 2 -9.16924 1.95511 -16.9417 18
186 2 -4.16954 14.6087 -12.9555 13
187 2 -13.4377 -1.35064 -1.36943 18
188 2 -0.584207 5.90081 -17.3708 13
189 2 -12.9726 -5.44563 5.76339 16
190 2 -13.2111 -6.82485 -7.99284 12
191 2 -15.9582 4.36179 -0.722554 13
192 2 4.47265 -14.4579 0.613796 17
193 2 -14.935 5.01902 -6.02509 11
194 2 -14.7692 4.97587 8.14808 8
195 2 -2.67734 -15.4905 -4.45111 8
196 2 -13.9438 -7.92004 -2.78559 19
197 2 -8.30035 14.5336 -8.85666 15
198 2 -6.36442 10.0082 5.9519 21
199 2 -2.69672 -9.76644 -0.130734 19
200 2 -8.21053 8.63881 -12.2815 18
201 2 -3.34143 -13.3381 7.95405 16
202 2 -4.06722 -8.47077 18.9247 7
203 2 -18.2575 -6.68485 -1.49198 11
204 2 -4.47596 -1.28732 4.82367 15
205 2 -6.15695 -3.63504 4.8926 19
206 2 -3.92854 5.52818 3.41199 16
207 2 1.66199 -15.0693 -5.22044 12
208 2 12.5261 -12.9439 -4.80874 13
209 2 -9.79936 -3.11231 13.7049 21
210 2 -0.796991 -15.555 7.14946 12
211 2 1.61045 -4.49018 -15.513 11
212 2 3.75777 -5.29018 2.78455 18
213 2 -1.76704 1.2463 2.56588 17
214 2 -9.02112 -13.7522 -4.10135 9
215 2 -12.0215 1.2772 -16.3032 13
216 2 1.03216 -10.767 -6.76853 17
217 2 -9.24137 -9.62144 0.721322 15
218 2 -4.16151 -13.3227 -4.03523 17
219 2 -8.49817 -6.56377 -10.4947 14
220 2 2.56326 6.38234 -16.9392 12
221 2 -15.5587 0.343099 0.544799 17
222 2 -11.1565 3.2101 -18.1493 11
223 2 -2.72571 -4.34466 -0.641667 18
224 2 -1.89901 -5.84583 3.65938 15
225 2 -17.0368 -8.62502 -5.46764 9
226 2 -13.7941 -11.7872 -8.09755 7
227 2 -7.51524 -11.9911 1.11809 13
228 2 1.70357 5.69501 14.7638 16
229 2 -0.421956 -1.82016 -15.5429 11
230 2 -1.50832 -1.55621 -2.88297 17
231 2 5.38358 -13.9697 10.1197 12
232 2 -7.88531 0.737148 4.55253 18
233 2 -7.77071 15.4439 -5.64346 14
234 2 0.370663 3.35121 -0.479789 15
235 2 15.2175 -6.84539 -0.421499 17
236 2 -6.46981 4.00423 5.13416 18
237 2 2.6634 -9.18057 -0.625308 17
238 2 -15.3512 -6.49193 -0.915651 16
239 2 2.73197 -4.81767 -7.16655 18
240 2 -9.47449 3.86745 -5.40144 15
241 2 -12.42 6.14689 -6.96394 19
242 2 -8.43541 0.869283 -8.02627 18
243 2 5.43916 -7.63635 -11.6661 17
244 2 0.469119 -5.32273 -2.42741 15
245 2 -11.9936 -9.60292 8.65265 14
246 2 -14.628 -11.2793 -1.37454 10
247 2 4.20955 -9.77615 5.7269 21
248 2 -1.50518 7.90508 -9.58519 15
249 2 14.0405 6.53368 4.34595 9
250 2 -6.3607 -3.98523 0.768427 18
251 2 6.45753 -7.81933 -14.5069 11
252 2 -16.9848 -10.0569 -0.659628 12
253 2 1.18386 -13.9922 -8.2091 14
254 2 -3.8309 -5.14328 -15.3386 13
255 2 -15.8105 -3.4673 -1.06436 19
256 2 -9.41779 -5.75621 -0.204025 20
257 2 -2.96366 2.75216 -3.16003 15
258 2 -0.814797 -2.02482 2.40305 10
259 2 13.6466 -4.7307 11.627 13
260 2 14.2775 -3.69478 -5.41482 20
261 2 10.876 -3.27926 -5.588 19
262 2 -6.17476 7.45902 0.59926 17
263 2 -3.13737 -3.54985 -7.33639 18
264 2 -10.6853 -2.62402 2.89383 15
265 2 -11.3569 -7.77212 -2.1953 18
266 2 -10.3099 -0.5687 -11.6557 14
267 2 4.55711 1.32748 -15.6514 12
268 2 13.0909 -7.86176 1.21811 19
269 2 5.75418 -9.79159 -6.38546 16
270 2 -8.81393 5.80317 10.9112 16
271 2 0.604303 4.12854 -9.21525 14
272 2 15.0663 -2.44505 3.93927 16
273 1 -10.3332 -3.29143 -8.7006 15
274 1 -7.21432 -6.43264 -2.60486 16
275 1 7.17609 -5.77736 -4.03046 21
276 1 -20.4769 1.08443 -1.3881 7
277 1 -3.85904 -10.5827 -8.15718 19
278 1 -3.66439 -6.54072 3.26314 19
279 1 -7.28753 -10.917 7.32852 10
280 1 -11.9683 10.3928 2.27808 13
281 1 -3.24701 16.361 -12.9897 12
282 1 -0.205574 -6.48925 2.63884 17
283 1 -3.90851 -13.5582 -8.44727 14
284 1 0.644512 -2.55886 13.1821 18
285 1 14.0327 -0.612196 12.5773 11
286 1 -2.73813 -5.6829 0.638635 16
287 1 -3.10572 4.21705 11.8407 15
288 1 -5.15481 -8.53135 4.9137 18
289 1 -7.36713 0.119205 2.75138 18
290 1 -14.5004 -3.93444 -4.73648 15
291 1 2.32521 12.5199 0.836014 17
292 1 -0.410212 -6.387 -5.29884 15
293 1 -7.77575 -12.3626 13.5884 7
294 1 -12.9275 11.8311 5.26232 7
295 1 -9.63393 12.8869 -8.7126 13
296 1 -6.02668 9.83515 11.3705 17
297 1 0.707694 -11.4364 14.2021 12
298 1 -11.7655 -3.06954 13.3081 19
299 1 -13.0836 -3.04957 15.6708 15
300 1 14.9071 -14.1568 -1.54206 9
301 1 2.79159 -6.76162 -7.07533 18
302 1 -7.6041 2.24783 -5.2406 20
303 1 11.2456 1.58581 13.6141 10
304 1 -13.6681 8.44859 -8.08551 14
305 1 7.33256 -11.9469 12.3269 10
306 1 -11.5018 -6.82414 4.74702 14
307 1 -15.5413 -1.96345 10.1042 7
308 1 -11.1658 -9.39054 10.4886 13
309 1 -0.909572 7.59559 -14.0287 17
310 1 6.37635 -15.064 6.83823 11
311 1 -12.3341 -8.31981 13.8461 14
312 1 -14.1018 1.15805 7.96459 15
313 1 -12.2186 -5.75957 18.2285 7
314 1 -2.26646 -10.5107 14.4709 13
315 1 -5.88406 -13.2939 0.129758 14
316 1 -7.57424 -9.21494 15.8677 14
317 1 -3.92251 -14.8627 10.3135 11
318 1 -7.78575 -10.3127 10.3374 12
319 1 -15.8127 -9.85633 8.37273 6
320 1 -10.91 1.11019 2.09675 22
321 1 -11.9645 -7.91957 -4.06452 19
322 1 6.13634 -15.4985 10.335 5
323 1 -13.1094 0.092411 11.9943 13
324 1 -2.51851 -14.9392 7.31148 17
325 1 -4.34817 6.61457 -2.58997 15
326 1 -11.4043 -3.08663 -18.7027 5
327 1 -1.7049 2.14604 14.6728 17
328 1 8.94892 -5.55487 12.7765 16
329 1 -0.107646 -4.55257 10.8703 16
330 1 12.4786 3.89463 10.3441 10
331 1 -4.60678 11.0663 5.54901 19
332 1 -2.64752 16.861 8.64274 10
333 1 -5.53733 -8.75931 -9.98052 18
334 1 -12.5809 -13.1614 -7.65483 9
335 1 -15.3379 -0.807153 17.3656 2
336 1 9.60958 2.79108 11.6418 15
337 1 13.4578 -9.28677 9.63595 9
338 1 -14.5807 -5.62805 4.75542 12
339 1 11.3405 -1.3286 -4.92781 20
340 1 -7.17327 -3.08031 -11.3112 20
341 1 6.94662 2.06239 14.5288 15
342 1 -4.94795 -6.26438 -13.8816 13
343 1 -13.624 -10.5797 -3.67874 13
344 1 16.4032 -6.39868 -1.75556 15
345 1 5.46376 -12.0764 10.2689 15
346 1 -3.41001 1.26085 10.7664 18
347 1 -12.7741 -10.0361 -7.30117 15
348 1 8.78267 -7.92239 -5.0119 16
349 1 -6.45679 -1.55365 4.33456 15
350 1 -7.13663 1.08276 8.72681 16
351 1 -19.9981 -2.13345 0.457966 8
352 1 -4.14212 3.32205 -15.5235 13
353 1 -15.701 -8.41376 -3.94032 19
354 1 -18.5252 -9.54294 -4.72491 5
355 1 -5.11415 -8.59955 -1.19833 17
356 1 11.9851 10.5676 4.395 12
357 1 0.179016 -11.649 -3.46618 14
358 1 9.8364 3.1084 -17.0108 9
359 1 -0.182996 -17.1933 -0.29211 12
360 1 -4.19465 10.3862 14.0661 10
361 1 10.0196 0.154125 8.28393 17
362 1 -1.35558 8.69936 15.9613 11
363 1 -8.88667 -4.79833 13.027 21
364 1 -9.27037 -12.8045 -6.2092 9
365 1 -4.70694 -3.3271 -12.0828 21
366 1 -1.17304 -15.7919 4.49867 21
367 1 10.5778 -12.8886 -9.28584 9
368 1 9.60284 -8.69499 -1.47922 17
369 1 2.28726 -8.30038 12.6505 17
370 1 -11.8894 2.32896 6.37484 18
371 1 5.31036 -10.8385 6.89708 17
372 1 -13.5817 -9.68945 5.89687 11
373 1 -17.3503 -0.54098 1.97233 14
374 1 2.13636 -16.9814 5.13606 14
375 1 -0.374586 -14.6515 -8.92047 9
376 1 -6.41888 -7.45031 7.30487 19
377 1 -2.68292 -4.23522 -4.92403 17
378 1 3.4145 -13.1922 12.2973 12
379 1 -15.2962 -3.17705 13.4263 11
380 1 -6.8326 -1.06208 13.5424 17
381 1 -6.10291 -3.15012 -3.02679 17
382 1 -8.18504 -1.37995 8.67539 19
383 1 -5.64787 -4.06101 13.7613 21
384 1 -18.1746 -0.713738 -0.790941 16
385 1 10.5875 -4.6626 4.87405 15
386 1 4.57771 -8.52054 11.5698 20
387 1 -10.7155 -5.80401 15.4526 19
388 1 -1.94953 -6.54543 13.6411 15
389 1 8.79004 -9.66443 3.59652 18
390 1 5.41146 3.46218 -4.71664 14
391 1 -6.51098 -7.2396 13.2811 20
392 1 -3.81766 -0.510484 13.4103 17
393 1 -4.05173 -0.1391 -1.41498 18
394 1 0.877861 17.7892 3.40097 15
395 1 -5.04948 -10.3119 15.3829 16
396 2 -9.61338 -4.72045 5.12171 18
397 2 -1.48887 -10.1985 7.04116 20
398 2 4.13165 -8.94235 13.1894 14
399 2 -11.6951 -3.44103 -7.2923 19
400 2 0.560286 11.2948 -14.0733 14
401 2 -2.40941 4.78503 -9.96054 15
402 2 3.05373 -6.79888 -4.93481 15
403 2 -0.74273 -5.56576 -6.96219 20
404 2 -13.9558 2.46767 6.52707 14
405 2 -6.75186 -2.46167 12.3098 18
406 2 5.5848 -16.354 -1.20534 11
407 2 -3.537 -9.7052 4.78109 18
408 2 0.455874 -4.0342 2.6998 17
409 2 -5.1952 2.85228 18.2533 8
410 2 5.17239 -9.72147 8.65777 22
411 2 0.309165 -10.9352 -10.1543 17
412 2 -1.14507 5.60404 -7.32141 16
413 2 0.32471 -14.0244 3.00596 15
414 2 -1.88034 4.50338 10.5558 16
415 2 4.26628 9.45895 17.0866 6
416 2 -17.9063 0.77296 0.262534 15
417 2 -5.71374 6.27191 16.2929 14
418 2 -3.79001 -14.1317 0.817069 13
419 2 11.3945 -9.98717 10.1313 8
420 2 1.68977 11.3362 10.6045 12
421 2 -6.64595 -15.099 -3.62336 9
422 2 5.34735 8.19219 -15.2613 11
423 2 -10.2524 -8.84493 -4.82557 17
424 2 -7.86234 9.34096 11.0224 14
425 2 7.77103 -14.4552 5.30377 12
426 2 -1.85925 0.359407 -1.31686 20
427 2 -12.173 -4.8853 12.1915 20
428 2 7.85744 -7.04323 -1.57199 18
429 2 -12.4698 1.60321 11.0845 15
430 2 6.55032 -15.5683 8.5708 6
431 2 -1.75542 -12.1851 4.96071 21
432 2 5.71429 1.65442 4.62534 16
433 2 -4.03634 2.49267 3.5789 17
434 2 -1.63554 11.3012 -6.92816 14
435 2 -17.755 11.6162 -2.01767 4
436 2 8.56376 2.5506 7.19455 13
437 2 -1.78803 -16.5539 1.45217 14
438 2 1.02368 -12.8697 6.36288 18
439 2 -17.094 4.21207 -3.91532 10
440 2 -8.61416 9.59295 -0.0310838 16
441 2 0.910144 -2.52324 6.77832 14
442 2 -8.33734 -2.10721 18.4718 7
443 2 -11.9487 -10.8695 -2.58351 11
444 2 -14.7813 -2.15892 16.5254 6
445 2 4.30065 -12.0934 -1.38507 13
446 2 1.91217 4.24025 -3.6542 11
447 2 -11.0432 -12.5945 -6.73272 9
448 2 9.04018 7.25216 4.57459 19
449 2 5.07003 -12.1255 12.512 13
450 2 2.03033 -14.7041 9.1597 10
451 2 -6.55156 -9.79997 0.13573 18
452 2 -20.2952 -0.566996 -0.231888 9
453 2 -5.04466 -10.0996 -11.3549 13
454 2 4.82666 -9.34821 -3.31192 15
455 2 13.3798 0.463452 2.15298 18
456 2 5.06183 -6.10113 15.6614 14
457 2 17.1998 -6.92073 5.85684 18
458 2 -0.56465 -13.4014 -5.38614 19
459 2 3.66012 3.78894 -14.3635 16
460 2 1.39902 3.28078 12.8068 14
461 2 -11.9745 -7.2606 0.24813 19
462 2 3.85917 -1.24541 4.87413 17
463 2 6.08245 -4.12022 1.21225 17
464 2 3.61846 -17.8477 0.856017 11
465 2 -4.76062 -6.86843 -0.302116 17
466 2 -14.6209 -0.758161 8.93657 10
467 2 -8.89878 -9.29868 17.2269 9
468 2 -6.82185 -6.0154 9.19858 18
469 2 -9.17406 0.712317 10.2716 19
470 2 4.62972 -5.9511 8.66424 20
471 2 2.01936 -2.08497 -7.66205 18
472 2 2.77089 1.04142 7.22971 16
473 2 6.54179 -7.61584 -4.28267 17
474 2 -4.517 -11.018 2.34905 16
475 2 15.8536 -2.63904 -7.11045 14
476 2 0.837563 -17.6754 1.14436 10
477 2 -11.9116 2.77612 2.94921 16
478 2 -16.013 -4.92264 13.5692 8
479 2 -17.223 3.65789 1.71247 12
480 2 -12.7989 2.83442 -6.92124 15
481 2 -14.5752 2.20377 -4.02091 15
482 2 5.39429 0.418431 7.39372 19
483 2 -4.25995 -12.8751 10.6266 15
484 2 3.50353 -0.286669 12.4935 18
485 2 -16.4844 -8.5015 1.62934 11
486 2 -7.26127 -2.15452 -4.18775 18
487 2 -16.8601 0.157782 -5.6916 10
488 2 -7.13723 -12.0067 10.9313 12
489 2 -16.3817 -6.24595 4.7 10
490 2 -2.79966 -0.868787 11.1328 17
491 2 -7.87081 -1.68788 15.1597 17
492 2 -3.28579 -10.7027 16.2195 10
493 2 -3.19129 -10.1439 9.82383 21
494 2 -1.88291 -5.90202 -4.19141 14
495 2 4.02582 -3.07945 7.91355 17
496 2 1.69801 5.44308 9.77052 17
497 2 -2.08627 10.1484 14.6102 10
498 2 -2.70621 18.9575 -8.93145 9
499 2 -9.41957 10.2963 7.50155 15
500 2 -10.6022 -7.29713 14.3498 18
501 2 12.2983 -5.31919 -3.95125 14
502 2 2.06508 -3.80308 13.4129 18
503 1 10.8647 -12.6468 -5.61675 16
504 1 -3.75562 17.8121 0.412977 11
505 1 -11.2744 6.22738 -8.89131 17
506 1 -7.69234 1.2005 15.3651 12
507 1 1.2047 1.45931 3.13936 17
508 1 -3.7073 7.29152 2.73099 20
509 1 -10.2749 -4.21374 3.4779 16
510 1 3.97503 0.86292 8.74273 14
511 1 -15.551 7.3136 -5.32743 13
512 1 2.05067 -6.17097 6.09372 19
513 1 -6.93901 5.03629 -3.21847 16
514 1 -5.18781 8.41167 -9.33896 17
515 1 -14.13 -5.11144 10.0759 12
516 1 2.1273 15.7522 -13.3183 11
517 1 -14.2021 -10.9089 2.3575 8
518 1 -13.1471 -10.623 -0.735085 14
519 1 -10.0155 -12.4269 -2.86348 9
520 1 -10.3033 -8.4 16.5292 10
521 1 -10.2795 6.45376 -13.9298 18
522 1 -9.82771 9.56222 -1.32755 16
523 1 -2.88672 -0.693537 -4.1829 20
524 1 -2.09383 -5.08523 -8.25742 21
525 1 -11.183 11.5139 -3.74455 16
526 1 -18.3915 2.06046 1.24279 13
527 1 -5.52396 9.2399 0.300313 15
528 1 -4.82843 13.442 -0.99128 8
529 1 -10.8169 2.37804 -6.15045 18
530 1 -8.28615 -6.59184 5.67347 20
531 1 7.63343 9.48865 -5.58716 16
532 1 1.11523 -5.35109 -13.8876 17
533 1 -8.31689 -8.64085 -4.09305 16
534 1 -10.9537 -2.1089 -5.32797 20
535 1 9.45317 -5.89867 -6.87272 18
536 1 -12.9432 1.81856 -2.92297 17
537 1 -2.19323 9.68227 2.09577 18
538 1 -5.33199 -13.57 7.37548 14
539 1 -10.5096 -0.192696 11.3754 17
540 1 5.99304 -6.48628 -10.0535 17
541 1 1.42759 2.22219 -9.2621 16
542 1 -16.3171 7.47713 -0.165503 11
543 1 -6.98629 5.34867 -12.5406 19
544 1 10.488 -15.1413 -0.958912 12
545 1 -0.755703 15.1576 -13.0128 15
546 1 2.27326 16.6456 -4.43995 12
547 1 -6.65389 9.11934 14.6241 11
548 1 -1.00817 4.84405 -0.233289 14
549 1 -7.97063 11.0486 -3.2267 16
550 1 -0.257248 8.03213 3.51288 19
551 1 0.368154 -2.75569 -10.5666 20
552 1 3.32008 3.70383 -12.2988 18
553 1 -8.60839 0.453044 -15.8395 20
554 1 -2.01627 -1.98643 -7.31845 16
555 1 -12.3649 -1.80962 2.54559 17
556 1 -0.323181 -0.0135422 -10.0397 19
557 1 8.31439 -1.17648 -9.27672 14
558 1 -15.7942 5.00439 -2.6893 15
559 1 11.3116 12.6362 -8.82004 7
560 1 3.90519 14.2427 -0.885075 15
561 1 -7.42358 -6.79015 -12.1666 12
562 1 -6.44667 5.71877 -0.198605 13
563 1 -4.84402 1.44496 -6.73074 17
564 1 -0.0980358 19.158 -5.48569 12
565 1 -15.8808 3.20447 -5.17901 13
566 1 9.1001 -2.916 -6.29 21
567 1 -2.11731 -5.68661 -15.4389 12
568 1 8.09101 7.34327 -2.01158 15
569 1 -3.44941 -9.61431 17.5414 11
570 1 -4.05243 18.8996 3.84759 11
571 1 14.0295 8.13392 0.21944 15
572 1 -7.97693 10.0982 9.16773 17
573 1 12.3793 -4.71469 -5.82619 18
574 1 -9.12988 0.389283 0.0652555 20
575 1 -5.66371 11.4677 -4.80847 14
576 1 -4.95185 -0.426027 -16.1953 18
577 1 -8.77129 7.59099 -3.81464 17
578 1 2.11491 -5.66832 -2.98931 16
579 1 -10.4984 0.732739 -3.15908 23
580 1 6.35611 2.31066 -16.4348 13
581 1 -13.4895 -1.49227 -3.52125 23
582 1 -8.33376 7.62358 -10.5472 18
583 1 0.167864 10.0401 -0.66992 18
584 1 -3.44016 -10.096 -12.5394 11
585 1 1.00664 -12.8912 -6.3 17
586 1 -6.43138 6.96842 9.86861 18
587 1 -8.39178 9.70117 -15.418 14
588 1 3.8237 -13.1421 1.81027 17
589 1 -0.479883 17.9866 0.77916 13
590 1 -15.8909 -0.573823 -7.62289 5
591 1 -1.07668 16.7843 -2.65326 15
592 1 -7.46719 11.8125 -12.7787 16
593 1 6.66948 7.37953 9.98358 9
594 1 13.0257 0.681412 -7.57583 17
595 1 -0.124101 1.56153 -16.8326 10
596 1 -10.6762 -2.68204 -15.3761 13
597 1 5.56193 10.0887 -3.5197 16
598 1 4.48598 6.84166 11.859 17
599 1 6.04902 -12.0919 -0.306308 13
600 1 -8.47429 5.10009 9.34317 19
601 1 -2.54551 4.45557 -8.21534 14
602 1 -16.1949 -0.374571 -4.21454 15
603 1 15.2105 5.2831 -7.08703 17
604 1 12.1535 -0.729033 -10.6045 10
605 1 5.32538 13.4148 -9.60103 13
606 1 10.1995 8.60028 -6.11378 16
607 1 -5.01448 10.5097 -11.3551 17
608 1 -1.20161 19.9138 -2.36953 8
609 2 -11.8059 -7.93913 11.8281 13
610 2 -10.7224 3.69081 5.92634 16
611 2 -10.2492 8.3194 -9.3767 21
612 2 -8.74702 -2.08676 4.96426 19
613 2 -10.9054 -4.41796 18.214 10
614 2 -3.5792 15.0325 6.29585 14
615 2 -6.76263 -0.00486637 -16.3122 16
616 2 -6.47914 4.72541 1.60173 16
617 2 -11.5428 -7.23207 17.4422 8
618 2 3.29992 -0.545738 -3.56889 14
619 2 -6.09345 -2.65346 -16.595 11
620 2 -7.44005 1.09369 1.02752 17
621 2 -16.2535 6.4343 -1.83546 13
622 2 -12.738 10.5766 0.452529 11
623 2 10.4791 7.27011 -14.1436 12
624 2 -3.742 -7.15923 9.68206 18
625 2 18.5852 2.44981 -7.82076 9
626 2 -2.13496 4.29194 4.93667 16
627 2 -6.47356 -1.38543 2.36699 19
628 2 -4.85255 8.62998 -14.9701 16
629 2 -9.0867 -0.560406 12.7168 18
630 2 6.45539 2.08824 -3.87643 13
631 2 -10.594 0.256197 -19.5362 7
632 2 -9.31208 -12.2417 -8.06413 7
633 2 -6.86663 -5.46655 13.6805 18
634 2 -17.069 -1.09265 3.8104 11
635 2 1.28841 9.57218 -4.39774 15
636 2 -8.56539 0.173602 7.6152 18
637 2 -4.51492 -8.05403 14.9103 20
638 2 -8.87545 10.6103 -13.7669 11
639 2 8.55995 4.76989 -4.4416 16
640 2 3.72457 9.54202 -7.24737 19
641 2 4.01261 12.1993 -12.8899 10
642 2 -3.28036 6.75534 -4.20664 16
643 2 -7.05173 -8.76691 -8.49332 17
644 2 -14.0878 7.4814 -4.31194 15
645 2 -8.49144 -3.84321 2.1445 23
646 2 -16.5287 -4.85624 1.29537 17
647 2 1.06977 0.797526 -7.97006 13
648 2 1.98605 3.22091 2.39679 15
649 2 3.24466 2.21759 10.3139 12
650 2 -12.3635 10.1711 -8.95595 12
651 2 -9.11051 -2.2545 -7.45497 19
652 2 -12.5285 9.92664 -5.8425 13
653 2 -5.27722 1.30782 -9.26209 19
654 2 -3.04867 -0.23962 -16.9934 11
655 2 3.1044 7.22706 -9.55058 18
656 2 -0.990489 9.24965 -2.44463 18
657 2 -2.23635 19.3896 4.35613 10
658 2 -0.838877 -5.40325 -13.7498 15
659 2 -7.67613 -7.71523 14.5947 20
660 2 9.21703 13.2919 -4.66705 9
661 2 -3.70234 16.1987 -11.0649 13
662 2 -5.74415 9.33568 -4.88624 20
663 2 4.21836 0.278561 -7.43564 16
664 2 -2.62088 8.18815 -5.9351 18
665 2 -3.49275 3.10966 -7.10914 13
666 2 -12.4269 4.47831 -15.1005 13
667 2 1.15715 3.07085 -15.8806 11
668 2 -13.459 4.55122 -12.1153 11
669 2 8.8758 -13.768 -9.28581 8
670 2 -1.76715 7.38908 6.07054 21
671 2 -2.08219 9.1183 8.26252 17
672 2 4.75185 0.724676 -10.684 15
673 2 17.1062 -5.55862 -6.80143 15
674 2 14.1545 8.91454 -7.11188 11
675 2 -13.6224 -2.7226 13.8454 14
676 2 17.5331 -10.5525 5.03569 10
677 2 -11.7704 -6.12481 -11.1811 6
678 2 3.29826 -14.6559 -3.29596 13
679 2 -12.4288 1.79854 -10.1888 11
680 2 -9.02978 7.46748 -5.93717 14
681 2 -7.21431 -0.64185 -10.0583 20
682 2 9.1997 0.316755 -8.89202 15
683 2 6.13948 14.0464 -4.136 11
684 2 9.87717 0.134029 -1.33119 19
685 2 -11.0353 -2.90516 -16.9535 7
686 2 -12.0342 10.2089 5.39508 12
687 2 -13.8678 -1.29353 3.97309 13
688 2 -16.8652 2.33321 5.70627 7
689 2 10.9603 4.81478 -1.04047 15
690 2 -5.24206 -10.6548 -6.70351 17
691 2 -2.06682 7.41398 3.47449 19
692 2 -2.19024 2.99401 -14.6276 16
693 2 1.39667 13.9062 9.54689 10
694 2 -12.4348 8.25346 3.30003 14
695 2 0.374571 15.8307 -3.11721 15
696 2 6.26158 -4.10305 -3.09967 19
697 2 16.7162 -5.96184 -9.36178 8
698 2 -9.64959 3.88448 -8.54103 14
699 2 -13.9538 -5.08228 -2.95194 19
700 2 -3.94952 -5.1506 -12.0874 21
701 2 -12.2183 4.74869 -9.29668 14
702 2 0.12078 1.75971 -10.983 15
703 2 -5.0395 -6.96566 -5.91297 17
704 2 -2.18791 -10.1146 -14.0977 14
705 2 -6.42498 -4.53409 -6.87282 17
706 2 -12.9647 -3.8665 1.47401 17
707 2 5.61698 -10.5166 -11.3075 13
708 2 0.459654 -12.9615 -14.0586 7
709 2 -9.39172 -9.6815 10.9909 9
710 2 7.29066 8.88398 -7.63964 18
711 2 5.92205 11.5679 -8.41246 16
712 2 -7.91855 7.8312 -16.2268 14
713 2 -7.7359 15.5732 -2.79214 11
714 2 -6.41406 7.91981 -18.1951 12
715 2 10.107 -3.5408 -13.7262 14
716 2 -15.5512 -6.38382 10.9497 12
717 2 -11.4321 -2.03973 15.5561 14
718 2 7.77797 4.68188 -12.9658 18
719 2 -6.29769 6.49118 -13.9599 14
720 2 -1.00586 -3.73595 -9.18682 17
721 2 0.71342 -10.5863 -13.2806 14
722 2 4.0147 4.00233 4.14333 15
723 2 11.9642 9.04329 -5.62295 15
724 2 6.0677 8.23376 -4.38156 19
725 2 -15.743 10.402 -3.3345 9
726 2 -6.75566 2.5478 -11.4998 19
727 2 -4.11771 16.9244 4.10565 15
728 1 -6.99898 3.78576 7.22608 18
729 1 -12.2707 7.52315 -5.06885 16
730 1 -4.47666 -15.118 -3.96748 12
731 1 -6.96897 16.7832 -1.64044 9
732 1 -6.16058 5.40347 3.42981 18
733 1 -5.94074 -8.48186 18.2471 11
734 1 -6.78888 2.18242 -17.0602 13
735 1 -11.7321 13.8178 -6.40582 12
736 1 -6.2157 -10.216 1.82104 14
737 1 -7.20828 13.5988 -10.2278 18
738 1 -11.9383 14.5965 -2.91284 10
739 1 -11.1724 -8.68853 7.06676 13
740 1 5.71513 -4.63201 -7.52067 22
741 1 -3.59487 15.6712 -4.2883 10
742 1 -5.83207 -5.45776 4.34036 24
743 1 -6.95251 8.49018 -13.6612 19
744 1 -5.93193 3.6088 11.1503 17
745 1 -13.4599 -11.2452 9.11021 8
746 1 -3.3359 4.03564 2.37231 19
747 1 6.32863 0.00478214 3.62227 18
748 1 -7.38012 14.2198 0.979612 17
749 1 3.18376 19.8142 -3.35407 5
750 1 -18.6073 3.24537 -3.58861 7
751 1 -17.9101 -9.84563 1.22403 5
752 1 9.7958 5.04661 10.4169 13
753 1 -9.03925 14.0098 -2.08793 16
754 1 -14.5346 4.18024 10.0767 10
755 1 -8.01243 2.73201 4.78062 18
756 1 0.541377 -12.0957 -15.9055 8
757 1 -6.38883 8.79765 4.52548 21
758 1 1.70143 2.62357 0.68774 16
759 1 -11.2094 5.8233 10.661 11
760 1 -5.99124 14.475 -13.0535 11
761 1 -16.2673 5.00387 0.879666 14
762 1 -4.41452 -8.69711 13.0554 21
763 1 -16.9728 0.492089 4.8353 9
764 1 10.3036 -4.32854 10.3503 20
765 1 -7.10526 6.74453 6.54671 16
766 1 -4.76784 -11.8888 -2.89565 13
767 1 0.149542 2.80053 17.5169 11
768 1 0.555468 3.104 -4.50506 14
769 1 -4.46829 -12.3114 12.4876 18
770 1 -11.3391 6.60235 2.26877 17
771 1 3.31132 -1.30638 3.11576 18
772 1 0.0825713 7.98268 6.59473 21
773 1 18.713 -6.78492 7.70947 10
774 1 -8.26322 -8.19426 -0.185513 20
775 1 0.579811 -3.08947 1.22181 19
776 1 -5.38526 -15.8028 13.4579 4
777 1 -0.593445 3.06775 12.136 17
778 1 2.09506 -10.0389 -11.6923 17
779 1 15.1583 -3.11291 6.8827 18
780 1 -8.63552 -5.88413 1.85097 20
781 1 -10.997 -4.94076 6.44281 17
782 1 -4.57001 -5.27162 -1.94069 18
783 1 -11.5845 8.43755 4.82138 17
784 1 -0.887366 -12.3984 11.5414 16
785 1 -11.7628 9.0228 -10.2513 14
786 1 -7.77417 11.3725 6.3024 18
787 1 6.49269 12.9963 4.83012 16
788 1 -6.33792 -2.15135 0.154329 21
789 1 -14.2786 9.86931 -4.72096 13
790 1 -6.23126 6.28885 14.1625 15
791 1 -6.2775 16.4126 9.79701 10
792 1 -12.2982 2.96354 9.68559 18
793 1 -2.67615 2.62039 -5.13934 15
794 1 -2.71058 17.3307 -9.86418 15
795 1 -3.80055 0.830987 2.25869 16
796 1 11.4714 -7.94938 4.80041 16
797 1 5.16276 -11.516 -7.78396 15
798 1 -8.49139 -6.49347 10.0516 17
799 1 -9.20743 -0.0408436 5.68838 19
800 1 10.0632 9.03909 -2.78015 14
801 1 0.858168 6.84758 10.8106 16
802 1 13.2552 3.19808 -6.34191 20
803 1 -14.6506 7.82213 -2.35534 15
804 1 -8.35587 7.88677 0.838563 14
805 1 11.5615 8.55182 -9.68111 13
806 1 -1.27231 7.94341 9.63524 20
807 1 -8.23573 16.0701 3.34857 13
808 1 11.2267 0.969009 -4.82662 19
809 1 5.1244 6.77634 -3.47564 15
810 1 -8.33105 2.01065 -2.00626 18
811 1 13.7213 -0.829547 3.94599 17
812 1 8.86025 3.8372 -11.0387 12
813 1 -13.1605 -3.01557 -0.875324 19
814 1 11.3922 -0.192061 1.99058 15
815 1 -6.28048 12.6123 10.6552 14
816 1 -1.33669 -1.73303 7.58384 12
817 1 -10.6382 -0.868228 14.3235 14
818 1 -1.22287 9.47545 13.0645 13
819 1 7.15129 -9.72994 9.13939 14
820 1 -0.169456 14.6818 10.1719 10
821 1 5.53189 -0.841509 16.7836 13
822 1 -3.54381 14.6723 10.2982 12
823 1 5.11484 15.2715 7.91059 7
824 1 -12.8819 -6.16205 1.84172 17
825 1 -2.23352 12.868 -3.25062 15
826 1 2.39646 8.73354 16.259 11
827 1 -7.6882 16.3887 -9.99441 10
828 1 -6.76475 12.6722 3.55827 19
829 1 -5.04938 2.18938 5.37364 16
830 1 -10.5545 3.7437 3.76855 14
831 1 7.47876 -3.36871 4.72696 18
832 1 -0.640197 12.2037 10.9743 12
833 1 -13.4905 9.10688 -0.334867 15
834 1 -7.9411 10.226 -9.56469 18
835 1 5.66678 13.2785 -13.1196 9
836 1 -0.176807 12.4056 -11.5762 15
837 1 -19.2065 -5.29956 -2.18627 8
838 1 3.70742 12.0115 3.45262 17
839 1 -13.0206 5.52589 7.90122 13
840 1 2.55772 3.74754 11.1736 14
841 1 0.448882 7.67244 0.432178 19
842 1 -1.29039 10.7063 -14.4345 13
843 2 -13.7418 -6.50958 3.30569 16
844 2 -17.6463 1.49954 3.17745 11
845 2 -5.38842 4.8797 -11.0326 15
846 2 -1.87698 -2.58085 -5.3722 17
847 2 -5.50559 -14.6958 9.00387 10
848 2 -6.8353 -4.63898 -2.18869 17
849 2 -12.238 -4.77391 15.0349 19
850 2 -14.8621 8.36197 -6.72939 11
851 2 2.00126 -9.98804 7.66446 20
852 2 2.2067 -1.84768 17.9471 14
853 2 -7.8601 -6.6267 -4.57397 16
854 2 -15.3088 9.03353 -0.829294 11
855 2 -15.7249 -1.9304 12.0251 7
856 2 -11.5804 10.6801 -2.07006 14
857 2 3.72816 11.2501 -10.3542 13
858 2 8.5575 -9.93033 -5.97701 18
859 2 -5.68227 -2.72742 -13.7444 20
860 2 -8.5479 0.853758 -13.645 16
861 2 -4.41832 9.02581 3.6203 20
862 2 -9.38139 -7.04862 -7.2887 18
863 2 -1.08022 12.898 -13.2971 15
864 2 -0.841232 13.7927 4.22633 11
865 2 -9.11026 15.0178 7.20159 12
866 2 -5.01164 -2.41636 -1.11265 18
867 2 -19.1192 -3.79839 -1.03941 11