ITEM: TIMESTEP
360000
ITEM: NUMBER OF ATOMS
2000
ITEM: BOX BOUNDS pp pp pp
-30.0 30.0
-30.0 30.0
-30.0 30.0
ITEM: ATOMS id type x y z Coordination
1 2 -12.0932 -1.82426 -7.68742 15
2 1 0.459735 -4.87348 -15.3833 11
3 2 5.16229 -5.93946 3.70917 21
4 1 0.295828 -13.6195 -5.78451 16
5 2 4.72923 -10.3517 -7.60214 17
6 1 0.438999 -11.5776 -7.93036 12
7 1 4.40191 -9.60384 2.38602 19
8 2 -4.19421 -7.40932 -6.42874 14
9 2 3.49388 -7.93189 1.42796 21
10 1 7.41548 -12.4423 12.1087 11
11 1 3.95512 -10.7482 -3.31676 17
12 1 -8.31564 -8.94532 -0.886388 16
13 2 -5.89231 -10.706 12.1366 13
14 2 -0.746543 -17.4279 4.29047 13
15 2 -9.33829 -0.697516 -9.24131 16
16 2 12.75 -10.9483 0.617452 15
17 2 -4.00923 -4.0648 -13.6681 15
18 2 5.73095 2.89771 -16.939 10
19 2 4.27315 8.67732 -5.90661 18
20 2 -8.45883 11.0705 -5.05972 13
21 2 -8.59474 0.418827 -17.6071 9
22 2 -5.70945 5.36372 0.236994 16
23 2 -2.02 13.1758 -0.706081 21
24 2 6.40006 -12.2936 -9.97544 13
25 2 4.70351 -7.09115 -5.13086 14
26 2 2.45612 -1.93435 -20.382 8
27 2 -2.51678 -2.58996 -18.2606 9
28 2 -2.53512 10.8503 -17.0938 11
29 2 3.41889 0.709593 -12.3821 18
30 2 9.79112 0.985024 -13.2131 11
31 2 -8.65678 9.1853 -16.9561 6
32 2 7.06052 11.1839 -6.9141 17
33 2 -3.81259 6.03439 -7.93047 15
34 2 11.762 -9.73017 -5.3159 19
35 2 -3.03208 2.67313 -11.9931 14
36 1 -13.1142 -5.87923 -1.49267 14
37 1 -6.32919 -11.3202 -3.9765 20
38 1 -5.15889 -5.55002 -6.33031 19
39 1 3.42854 -8.69036 -1.09437 16
40 1 -2.93675 -6.3423 3.43608 20
41 1 -12.9403 2.2313 -6.0749 17
42 1 -11.6984 -6.40838 -8.69397 13
43 1 -10.3997 -7.56343 -2.49632 21
44 1 -5.08664 3.62059 -1.20073 18
45 1 -11.0745 -2.48784 -9.4858 13
46 1 -7.50894 5.16027 1.45649 20
47 1 1.54668 -10.4325 -5.22241 15
48 1 -9.1549 -4.23163 -1.65093 18
49 1 7.0456 -10.0455 -11.4341 16
50 1 -12.1622 -6.66695 4.4011 12
51 1 -16.0246 8.92673 -9.61956 11
52 1 -6.21765 -9.83283 -9.58718 15
53 1 -8.12557 -1.15009 -13.2552 14
54 1 -5.78884 -6.03089 -9.40824 15
55 1 5.00639 0.0486053 -8.75435 18
56 1 -12.1495 -7.33468 -5.56951 15
57 1 -18.0643 3.18519 -7.46391 6
58 1 -12.4354 -9.23996 -0.401893 17
59 1 -12.8291 8.96054 -8.04089 14
60 1 -15.5115 -10.2782 1.42726 13
61 1 -16.0946 -8.83658 4.26611 7
62 1 -12.1877 1.42084 -2.96593 20
63 1 -9.92456 -0.937112 -7.36791 18
64 1 8.28964 -6.6603 -4.96111 21
65 1 -3.31305 -19.217 0.483947 9
66 1 -2.44879 -12.2665 -7.95092 12
67 1 -1.09837 -10.0809 -10.5887 16
68 1 5.52252 -14.6703 -7.55335 17
69 1 5.36828 -15.5863 1.70052 16
70 1 -1.93298 -11.9576 -5.27798 19
71 1 -14.875 -13.3292 -4.78728 6
72 1 -1.4499 -3.17284 -8.76144 17
73 1 -2.03607 -14.8803 -3.20826 12
74 1 -4.08581 -7.91843 0.562704 16
75 1 -15.4688 4.70875 -13.4619 12
76 1 -4.35381 -1.91835 -17.8928 9
77 1 -12.2395 -13.4576 4.07988 10
78 1 -7.56011 0.686371 -7.78769 16
79 1 -4.95757 2.70854 -16.4776 16
80 1 -4.01883 1.40541 -8.21766 20
81 1 -16.54 3.37927 -10.9649 11
82 1 -2.7215 6.82086 -17.9892 13
83 1 -14.5893 5.99789 -5.15155 16
84 1 -5.45027 -3.10087 0.00177222 17
85 1 -8.45197 -8.4011 -7.62532 16
86 1 -11.1619 -13.0451 -6.03976 13
87 1 -7.24137 -16.8045 3.29157 14
88 1 -7.62594 -14.3511 -2.17056 19
89 1 -3.06009 -4.98321 0.086142 19
90 1 -7.99597 -19.4398 -1.42047 8
91 1 -5.64963 -10.0897 -1.13882 19
92 1 -7.44567 -14.3597 6.0417 15
93 1 8.01154 -15.8645 -6.89029 12
94 1 -12.4964 -16.3323 2.44596 9
95 1 -2.8575 -0.609626 -10.4527 20
96 1 -4.52952 13.1845 -9.58719 17
97 1 1.16722 -13.6159 0.336807 20
98 1 -7.74082 -13.7728 -4.87762 11
99 1 -12.5362 -10.1498 -3.29049 17
100 1 -4.45882 -0.895657 3.84612 18
101 1 -5.3609 -11.6762 -7.36032 13
102 1 -1.77376 -4.05213 3.4076 17
103 1 -8.5477 -0.835472 8.07436 17
104 1 -4.48666 -8.99601 -12.7974 12
105 1 9.83664 8.81866 -11.8104 15
106 1 -13.9201 -8.52849 -8.77763 10
107 1 1.19303 -1.64844 -18.9472 10
108 1 -9.90587 9.38283 -15.5621 9
109 1 -8.54116 -7.89598 -10.4814 14
110 1 -11.5065 -3.8328 -15.3726 8
111 1 -10.2111 -0.424827 -16.5967 8
112 1 -15.3818 8.10845 0.275047 14
113 1 2.02385 -11.5829 -12.1122 10
114 1 -7.08741 -17.1504 6.05055 8
115 1 5.01838 -4.63824 -1.54659 17
116 1 5.14216 -3.05011 -9.97727 19
117 1 6.7343 -8.57307 -8.77086 18
118 1 8.40285 -14.7164 -3.4315 17
119 1 -3.29049 -6.14825 -13.8617 15
120 1 -9.85298 -14.2545 -0.503439 17
121 1 -12.0703 -12.6828 -0.788576 14
122 1 -9.70143 -14.809 3.77209 13
123 1 -1.52272 -13.6116 1.58181 15
124 1 -1.16136 -7.83519 -15.4479 7
125 1 -4.49031 -11.8103 -10.5906 12
126 1 1.75435 -3.05272 -9.09184 18
127 1 -5.74675 -16.7377 -2.80072 13
128 1 -9.59262 -9.58628 -5.00539 21
129 1 -9.84503 -6.35531 -12.9612 11
130 1 -14.8317 -8.76813 -5.98559 8
131 1 -8.28733 -12.2826 0.470186 16
132 1 5.06373 -6.73519 0.811224 19
133 1 7.98765 -12.6358 -6.24424 19
134 1 3.48354 -15.2967 -0.820149 20
135 1 -5.69446 -0.744079 -9.80369 21
136 1 -14.4744 11.8124 -7.60828 11
137 1 -1.95133 -7.32127 -7.03761 10
138 1 -11.4464 -8.76683 -10.7805 9
139 1 -3.6376 -4.42549 -11.967 17
140 1 -11.1016 -5.29341 -3.5574 19
141 1 1.17185 13.8259 -13.0988 13
142 1 7.83202 -4.349 -8.69382 17
143 1 -0.831406 -0.0783982 -13.5483 16
144 1 1.67421 5.67993 -8.46771 21
145 1 -4.28269 -3.72561 -9.3462 21
146 1 5.29645 -12.6816 -11.4902 11
147 1 -2.12975 -7.34134 -2.13432 17
148 2 -13.7454 -2.50884 -4.75269 13
149 2 -16.3681 1.87175 3.86044 11
150 2 -6.47278 -13.111 4.78403 16
151 2 -6.59159 -13.2334 -3.24464 15
152 2 -10.9533 -8.49579 -4.29412 19
153 2 -7.89172 0.823901 2.21773 14
154 2 -2.17235 16.1971 -2.47616 16
155 2 -15.4312 11.2542 -5.85395 10
156 2 -10.4946 10.5941 -11.5652 14
157 2 -12.8838 1.33644 -9.63202 14
158 2 -0.0594363 -3.54247 -14.2232 16
159 2 -14.8885 -12.7885 -3.04096 10
160 2 -10.5602 -13.0152 -2.09374 18
161 2 -13.7765 -6.73097 3.4622 13
162 2 -11.5174 -15.207 3.7611 9
163 2 -8.46316 6.71794 10.5533 15
164 2 -7.4979 -7.29444 5.01252 21
165 2 -12.43 -2.98629 -13.5728 8
166 2 -13.0126 -13.0682 -5.94072 11
167 2 -0.781742 -6.93372 -9.0318 16
168 2 -17.4716 4.79465 2.33352 7
169 2 -5.91189 3.96217 -12.3298 17
170 2 2.32303 -1.99371 -7.53824 20
171 2 -12.959 -5.68381 0.413873 16
172 2 -15.197 8.00374 -4.43558 14
173 2 -12.5262 -9.07365 3.94656 15
174 2 -6.1814 -1.25465 -8.09419 21
175 2 -12.8489 7.05282 -8.60502 20
176 2 -14.5902 6.32345 -13.846 15
177 2 -16.8667 4.81384 -12.272 10
178 2 -13.7232 2.45217 -3.83965 16
179 2 -13.6946 -9.48572 -4.63204 13
180 2 -13.8198 -9.06128 0.823405 16
181 2 -6.60658 -8.39118 -1.60878 18
182 2 -4.63109 -3.46833 -1.80145 16
183 2 2.30194 -6.30226 -9.55633 17
184 2 -10.7823 -6.96333 -6.83643 16
185 2 -6.71281 2.56087 -17.3562 12
186 2 0.173016 -10.7194 -11.93 12
187 2 -7.54112 -6.13257 -13.1802 11
188 2 -5.45634 -9.58862 -11.3552 13
189 2 -9.64519 -5.8805 -2.32222 21
190 2 -2.62187 -8.68923 -3.13626 20
191 2 -4.85507 -5.78426 0.441544 18
192 2 -12.8772 -10.9304 -1.36602 16
193 2 -4.74679 -11.1188 -2.57572 14
194 2 -7.96737 -10.5719 0.172487 15
195 2 3.31164 -12.7 -11.4066 9
196 2 -2.96687 -5.05477 -5.86875 13
197 2 -7.13212 6.273 -17.2507 11
198 2 -15.2928 5.05456 -6.77149 15
199 2 -13.3377 -13.9605 -0.137506 12
200 2 -10.4408 -1.58562 2.34111 14
201 2 -10.0035 -0.559442 -2.98157 17
202 2 -13.7679 7.87195 -0.928236 18
203 2 -12.0087 2.10641 -0.821548 17
204 2 -11.6806 0.662566 -5.86458 18
205 2 -4.451 7.18447 -4.51444 18
206 2 1.00189 -0.885427 -4.16827 17
207 2 -8.68122 -10.7104 6.08132 17
208 2 -2.66203 -3.03067 -10.7062 18
209 2 -10.8677 -2.22849 -16.1785 7
210 2 -1.87237 -16.4075 6.96787 17
211 2 -5.6371 -9.55919 -4.56702 17
212 2 1.83164 -16.2137 3.21237 18
213 2 -10.7131 -16.1863 -3.23744 10
214 2 -9.3704 -8.58569 -9.10339 15
215 2 1.8801 -1.09546 -10.173 23
216 2 1.01279 -18.6359 -1.12552 12
217 2 -7.87669 -1.31501 -11.4183 17
218 2 6.71331 2.17275 -12.6494 18
219 2 -7.84213 -15.9094 -3.33224 15
220 2 -3.0143 -10.8917 -11.5418 12
221 2 -8.63273 -2.64683 -7.9528 18
222 2 -14.8576 5.13798 -10.4291 20
223 2 -7.54651 -13.1937 7.71515 12
224 2 -13.6034 -13.5588 2.94642 8
225 2 -9.92522 -9.42637 -1.95211 17
226 2 -2.75641 -15.0682 0.986641 16
227 2 -11.5432 -11.1734 -7.91469 13
228 2 -15.2051 2.84196 -13.5523 12
229 2 -2.97006 6.34691 -16.019 17
230 2 -0.633511 -2.12655 -7.38353 16
231 2 1.9183 -6.4209 -5.7803 12
232 2 -5.61036 -2.64372 -10.409 20
233 2 -14.4914 10.7805 -3.5191 15
234 2 -2.21597 -0.731521 -2.16118 19
235 2 -7.717 -13.8655 -0.431663 17
236 2 -5.37553 4.20912 -5.92299 18
237 2 6.98818 -3.64558 -10.1861 17
238 2 -8.9198 2.94121 6.33564 17
239 2 -1.82191 -12.7732 -0.192225 16
240 2 -9.12097 -10.4559 -6.59565 19
241 2 -1.81882 -8.884 -14.0116 12
242 2 4.62281 -7.13693 -11.3696 18
243 2 12.6054 -11.3021 3.59187 11
244 2 0.604137 -7.46463 2.05653 18
245 2 -15.8487 -12.165 1.61724 11
246 2 -5.78033 -12.7454 1.28471 19
247 2 -5.05153 -7.95213 2.0958 17
248 2 0.337396 -8.29726 -3.296 17
249 2 9.38936 5.62601 -9.59979 23
250 2 -10.1448 -7.60297 -11.6177 10
251 2 8.51985 -1.11929 -11.6184 17
252 2 2.3695 -5.06594 -15.6829 14
253 2 2.79091 -9.45455 -12.7375 11
254 2 -11.1319 3.07718 -11.0876 14
255 2 1.5718 -10.2887 -7.16788 12
256 2 -0.405122 -11.5578 5.02164 18
257 2 -1.45238 -5.78773 4.61429 19
258 2 -4.31908 -5.39554 -10.545 15
259 2 -0.371247 -0.845719 9.51593 19
260 2 3.31743 -10.9994 -5.15406 17
261 2 -4.60742 -7.37241 -13.6163 14
262 2 -12.3902 6.15511 -11.652 20
263 2 -4.329 1.00707 -15.4783 16
264 2 -6.95467 -6.89304 -10.8543 16
265 2 -1.05565 -13.8217 3.36617 19
266 2 -6.36727 -0.490791 -13.631 14
267 2 7.86712 -2.69306 -7.60145 17
268 2 5.88911 -8.8085 3.37523 22
269 2 -0.169864 3.94029 -0.414451 19
270 2 -8.32422 -6.70663 -0.259131 18
271 2 -9.31109 3.30402 0.32896 16
272 2 4.15015 -16.0544 -7.5838 11
273 1 -13.6444 -8.26812 2.64476 14
274 1 -10.3739 -9.80229 -7.89697 20
275 1 1.00648 -9.93535 -0.944394 17
276 1 -12.1606 3.1198 -9.38306 17
277 1 -6.52775 -7.99686 -3.64983 21
278 1 -5.64568 -6.07553 2.34113 22
279 1 -11.1324 -4.24494 6.23388 17
280 1 -11.8643 8.84447 7.55278 11
281 1 -12.1757 14.2638 -3.20994 12
282 1 -11.094 -5.66342 0.67166 16
283 1 -3.00116 -6.85792 -10.5813 19
284 1 0.780617 -10.0707 4.68729 16
285 1 -4.84276 -5.79802 6.04804 22
286 1 -6.66843 -0.691353 1.54311 18
287 1 -6.07943 -3.64087 3.89379 16
288 1 -7.40464 -9.50843 2.28215 19
289 1 3.39033 -6.84617 4.52279 20
290 1 -5.93647 -14.4279 0.313939 15
291 1 -5.76583 2.05368 2.87372 21
292 1 -4.28264 -16.7824 5.00291 16
293 1 -10.6941 -9.10891 2.7811 16
294 1 -17.8071 -1.55217 -2.04977 6
295 1 -6.02277 -6.47954 -12.4264 17
296 1 -7.2052 1.48347 16.2677 12
297 1 -13.293 -1.99072 8.03824 9
298 1 -11.7771 -2.48197 3.29797 15
299 1 -8.21833 -3.65596 1.92334 17
300 1 -6.80057 -13.4849 2.88752 18
301 1 7.77878 -3.58988 13.7547 16
302 1 -15.1698 0.982005 -13.0029 9
303 1 9.04373 -5.81983 15.4609 8
304 1 -12.4448 5.46223 -7.61216 18
305 1 -9.79935 -6.98118 -5.23391 17
306 1 -17.3286 -11.7937 0.452014 6
307 1 -8.47793 -11.1576 8.18173 17
308 1 -6.02299 -9.97232 10.2216 17
309 1 -7.01318 0.708333 -18.2211 9
310 1 0.130914 -6.93833 4.14154 19
311 1 -14.8037 -11.1344 -1.71264 13
312 1 -6.71199 0.599832 -4.93047 17
313 1 -11.2891 -5.43917 9.01614 15
314 1 -2.65636 -10.3501 9.71905 16
315 1 -7.11903 -13.1136 9.60074 14
316 1 -10.5454 -4.75951 13.4907 7
317 1 7.43174 9.26482 15.6635 15
318 1 -1.86818 -9.70651 14.6894 12
319 1 -3.12664 -2.29209 -1.95212 17
320 1 -8.39985 -1.80253 14.3447 12
321 1 -7.43354 -4.4418 -3.79882 17
322 1 -1.84674 -5.78363 6.8092 17
323 1 -14.0924 -4.94704 2.06232 11
324 1 -9.15962 -0.668226 11.2303 17
325 1 -9.96757 -8.54375 9.04124 15
326 1 -8.87543 -4.76518 11.3977 14
327 1 -3.88344 4.72535 4.50013 19
328 1 3.38521 -7.6592 15.6595 9
329 1 4.94565 -11.7815 14.1231 11
330 1 6.23511 1.73311 14.1625 18
331 1 -9.02558 -17.4941 -3.61692 9
332 1 -12.1274 5.80464 -3.77161 20
333 1 -9.10024 -16.9967 1.05113 14
334 1 -4.10149 0.804975 0.649679 20
335 1 -5.4874 -7.84389 5.02945 21
336 1 1.60382 -3.59339 11.7993 15
337 1 6.75736 -15.7386 10.1789 12
338 1 -10.5516 -11.1116 -2.5218 17
339 1 0.62594 -7.33498 -4.83569 15
340 1 -0.218792 -5.56014 -10.5107 17
341 1 0.647192 -5.613 8.97948 19
342 1 2.26902 -6.27615 1.98213 16
343 1 -6.49905 0.842727 -1.62017 16
344 1 0.871614 -4.61198 5.41414 20
345 1 -6.47201 -8.11095 8.20375 19
346 1 -1.90613 3.51218 2.35361 16
347 1 -15.6449 -3.83069 -1.02474 10
348 1 5.58582 -4.5147 2.45896 21
349 1 -6.14319 -17.3758 0.119589 14
350 1 8.44564 -2.21945 10.9521 23
351 1 -9.20077 -3.2964 -5.79897 15
352 1 3.56712 -5.26457 -14.2757 14
353 1 -4.73921 4.10726 1.62588 19
354 1 6.88299 -11.8868 -3.85317 18
355 1 -3.57061 -0.670405 11.9042 24
356 1 -0.837649 6.56326 3.76163 16
357 1 -4.4801 -9.43587 13.1945 11
358 1 13.0281 1.27885 9.21325 11
359 1 -8.23872 -5.89903 4.28231 20
360 1 -11.0521 1.74696 6.83468 18
361 1 5.5235 -5.11123 14.3428 13
362 1 -5.93185e-04 1.17956 9.2766 20
363 1 -9.38261 -10.7342 10.9629 10
364 1 0.317178 -19.1605 0.567442 12
365 1 -5.67372 -2.16463 -3.44684 17
366 1 -10.814 -14.2533 -3.51847 15
367 1 0.198155 -16.7583 -1.44648 15
368 1 2.89649 -16.0921 -5.45984 13
369 1 2.81123 -9.23551 7.46106 17
370 1 -13.6502 -11.0086 3.88043 15
371 1 -5.5254 -5.07318 9.5266 22
372 1 -0.336503 -11.4073 12.0097 21
373 1 -2.33705 -16.8561 8.80046 13
374 1 1.80077 -11.4465 9.17864 18
375 1 -2.36107 -8.73522 5.43133 21
376 1 2.19124 -14.4327 9.63782 17
377 1 -5.49252 -6.53109 11.6813 17
378 1 5.17555 -8.87609 12.8577 17
379 1 -3.76841 1.47947 13.9753 20
380 1 -2.62866 -6.87993 10.8616 21
381 1 -3.81448 -14.5484 10.6364 12
382 1 -6.21124 -12.4984 12.2467 11
383 1 -6.75178 -11.23 5.38537 16
384 1 -8.25749 -0.965681 -3.39173 17
385 1 6.48149 1.88683 2.99209 24
386 1 0.240959 -1.58554 8.03069 20
387 1 -8.37898 1.11462 5.8095 18
388 1 -2.6642 0.0024849 9.39499 20
389 1 5.71597 2.52267 6.30781 21
390 1 -1.0019 -1.48414 4.43741 18
391 1 -5.46707 0.68708 6.45516 19
392 1 -10.9455 3.31177 12.383 10
393 1 7.25545 -2.98879 5.25358 23
394 1 1.40132 -0.392532 13.9762 19
395 1 -1.99652 -0.649756 14.4653 19
396 2 -15.1778 4.20195 -1.14131 13
397 2 -12.7396 -7.56297 -9.80592 9
398 2 -0.111068 -10.2776 14.8018 13
399 2 -11.8612 -0.95231 -0.255894 15
400 2 -12.4867 10.9494 4.16629 15
401 2 -12.1171 6.55762 -5.75362 20
402 2 -4.32002 -12.3198 -8.80269 12
403 2 -11.5987 -11.5884 3.99169 14
404 2 -5.4265 -13.7149 10.6015 14
405 2 -5.58043 -9.3018 6.55221 23
406 2 -9.1308 -9.97874 2.87551 19
407 2 -9.27387 -16.418 2.79261 14
408 2 2.25184 -13.034 8.12417 18
409 2 3.65194 6.92343 18.2439 13
410 2 -2.67087 -2.19573 3.37441 20
411 2 -7.73612 -2.39822 7.32354 20
412 2 -11.4167 -4.51903 -9.93705 10
413 2 -8.09399 -2.85483 -2.81268 20
414 2 -3.43342 0.194975 5.19048 20
415 2 6.44146 1.5863 11.879 23
416 2 -15.0299 -0.989594 3.52386 11
417 2 -11.8075 -3.7237 8.20504 15
418 2 -12.9958 -3.49256 2.50174 14
419 2 -5.24469 -4.04349 13.3002 18
420 2 -11.0827 3.35866 -5.4232 17
421 2 -4.21738 -17.6304 0.638776 15
422 2 -2.28366 -8.5167 -11.0002 20
423 2 0.915833 -4.76248 13.2856 14
424 2 -10.2694 -12.3522 0.185273 15
425 2 -10.262 -15.9451 -0.056046 16
426 2 -6.95555 -4.08223 10.616 18
427 2 -9.74751 0.183587 6.49671 16
428 2 -5.98708 -15.5367 2.09423 20
429 2 -2.71067 -5.65419 8.86772 18
430 2 -8.09248 -15.7881 4.90754 14
431 2 -3.54625 -7.11741 6.54985 17
432 2 -5.99117 -3.03344 2.04318 15
433 2 -7.5574 0.354419 10.9077 18
434 2 -16.031 13.2169 -2.35359 7
435 2 -17.3909 -0.695246 2.23499 10
436 2 -3.39972 3.66546 9.30567 19
437 2 -11.4146 -7.29785 9.07796 12
438 2 0.232627 -14.4054 10.0893 20
439 2 -9.70816 8.44998 11.5843 13
440 2 -8.69119 -7.93298 7.72024 17
441 2 1.80769 1.02379 15.7304 18
442 2 -5.31898 1.82755 12.5024 21
443 2 -1.81495 -16.4857 -1.89673 11
444 2 -5.97371 -6.34225 7.32102 20
445 2 -3.58458 -11.6995 5.09821 18
446 2 -0.592872 -10.9038 -1.84326 19
447 2 -7.77801 -18.3473 0.256113 12
448 2 -3.56692 -5.39967 15.0162 11
449 2 -2.22331 -12.6348 14.6301 11
450 2 -1.06 -6.09547 -0.913306 16
451 2 -6.26397 -10.1392 3.81137 18
452 2 -6.5594 -6.1891 -2.95878 17
453 2 -6.6653 -12.4248 -5.99619 13
454 2 -4.12051 -7.30403 12.5269 16
455 2 0.612022 -10.4278 0.977664 19
456 2 -7.00344 -5.95524 12.7368 11
457 2 -3.49481 -8.17514 4.06739 20
458 2 -1.52836 -19.4352 0.788213 9
459 2 -1.69299 2.78774 6.23773 22
460 2 0.00639225 2.03238 2.20599 17
461 2 -5.2316 -5.45124 4.16719 19
462 2 -7.91628 -8.25558 -5.087 16
463 2 1.96181 -4.28556 1.47515 17
464 2 -2.40086 -14.619 12.0509 15
465 2 -0.296087 0.221235 13.8254 18
466 2 -9.30824 2.91746 13.3107 15
467 2 5.65855 5.66348 15.3798 17
468 2 3.7351 -5.97504 14.7699 12
469 2 -4.75082 5.83761 14.961 13
470 2 -5.38227 -1.96091 5.10184 19
471 2 -0.0374287 -5.20926 7.23106 19
472 2 5.91654 -18.1912 -3.33046 11
473 2 -2.14218 -10.1901 7.56041 17
474 2 -6.74484 -8.61085 -8.15245 17
475 2 -1.25274 -7.1488 -5.41953 13
476 2 1.23245 -17.5227 6.92678 12
477 2 -8.80969 -4.79881 5.96626 20
478 2 -4.67271 -10.3784 8.83322 15
479 2 -5.21765 12.5716 12.0022 10
480 2 -2.46205 2.53252 12.8912 18
481 2 -7.9952 -3.69122 3.89682 18
482 2 0.33853 -2.82569 -1.47505 18
483 2 -8.66509 -3.60397 13.5807 12
484 2 2.3379 -16.2373 10.1314 13
485 2 -10.725 -8.47194 5.71842 17
486 2 -10.9553 -5.60441 11.9073 8
487 2 -5.21709 0.429997 2.17237 19
488 2 7.53495 -5.34853 14.6993 11
489 2 0.873228 -3.18587 16.4488 12
490 2 6.34917 -8.94518 9.7954 17
491 2 -5.12659 -1.17537 10.8499 18
492 2 -5.4799 0.544835 15.9527 14
493 2 3.46384 -1.66903 2.07797 18
494 2 -9.63976 -4.54852 1.1895 16
495 2 5.08883 -10.9688 6.39219 17
496 2 -2.06152 5.93864 16.8123 11
497 2 -9.10848 -5.18799 9.31107 18
498 2 3.3135 0.549834 9.2158 17
499 2 -1.76997 -2.66782 14.0199 20
500 2 -2.03182 -8.615 9.94487 15
501 2 0.902057 -7.1793 11.6804 16
502 2 7.72154 -1.83488 13.1732 20
503 1 2.95253 -0.692924 -3.96596 19
504 1 -15.0147 6.83307 -7.50023 17
505 1 -12.7276 2.00587 -14.6407 10
506 1 -3.38781 1.07224 16.8254 11
507 1 -14.524 -1.54329 -3.38029 13
508 1 -13.7754 5.87674 -1.19417 17
509 1 -12.237 4.25646 -12.3111 17
510 1 -8.60811 7.26247 -9.10449 13
511 1 -5.72523 10.5852 -12.3646 17
512 1 -10.0177 0.310405 -1.16989 17
513 1 -10.5511 3.72975 -1.04846 15
514 1 -16.5954 6.19939 -10.6905 13
515 1 -8.52366 -8.67548 5.61335 20
516 1 -13.1282 12.0333 -1.01508 19
517 1 -6.85396 4.60414 -4.70316 14
518 1 -10.1783 1.87561 -6.36383 18
519 1 -12.6113 0.0453223 -7.51665 19
520 1 -10.9587 -0.430477 -4.65805 20
521 1 -11.361 7.37983 -13.1533 18
522 1 -14.9864 8.07422 -13.4155 10
523 1 -3.63698 11.1423 -6.93945 15
524 1 -2.58605 4.66887 -3.95351 21
525 1 -13.2862 5.52515 -14.9952 12
526 1 -16.0027 9.31461 -6.01467 12
527 1 -16.8972 6.40316 2.99717 10
528 1 -8.20576 13.8566 2.49153 19
529 1 -7.22216 4.48497 -16.3252 13
530 1 -6.00531 10.1456 -8.80654 16
531 1 3.93376 2.869 -9.06393 19
532 1 -4.76 6.41299 -16.4222 20
533 1 -6.01587 -9.02627 -6.37144 17
534 1 -6.63224 -3.09945 -6.99123 20
535 1 -7.27411 6.63181 -1.29483 14
536 1 -14.2705 8.99562 -2.87274 19
537 1 -15.1935 4.098 -8.32147 20
538 1 -5.88506 -2.42531 7.04963 19
539 1 0.734314 4.05914 -10.2415 19
540 1 0.201014 6.42121 -18.7846 9
541 1 1.62837 -2.76892 -13.6885 19
542 1 -10.3911 5.12383 -10.6468 18
543 1 -8.71555 11.6696 -9.31066 15
544 1 -3.20095 1.50942 -2.65761 18
545 1 -8.97494 14.2583 -7.78096 14
546 1 -10.6116 11.5702 -2.01705 16
547 1 -13.6844 10.7603 6.30892 9
548 1 -8.49613 9.75351 -11.9954 18
549 1 -10.0256 15.4679 -5.6007 12
550 1 -3.45953 14.2941 2.05643 18
551 1 -2.91767 -3.18829 -5.90336 14
552 1 -2.2941 14.173 -13.777 14
553 1 -8.51827 -4.92547 -14.2122 9
554 1 -4.90734 15.083 -12.8016 9
555 1 -3.01958 7.25522 -11.4469 14
556 1 -9.28174 3.4096 -3.9872 15
557 1 10.7495 -9.25872 -14.0609 7
558 1 -8.13459 7.05395 -13.2317 18
559 1 -2.45987 15.4996 -10.2604 11
560 1 3.49164 14.2964 -9.17717 16
561 1 -2.97031 -6.74141 -4.70173 16
562 1 -16.0209 0.73972 -6.06135 9
563 1 -0.359372 18.5618 -8.2031 5
564 1 -0.733722 11.7035 -5.4971 20
565 1 -13.6066 6.76426 -10.2451 19
566 1 -8.77559 15.4675 -2.43147 11
567 1 -9.94848 -0.108919 -11.153 16
568 1 -0.231324 15.0658 -5.28586 14
569 1 -1.42282 0.387935 -0.654967 22
570 1 -14.9509 12.4539 -4.16092 14
571 1 3.8484 6.69571 -1.00395 15
572 1 -5.61174 11.1748 0.68647 15
573 1 2.64815 9.91311 -13.327 13
574 1 -12.5537 -3.40244 -11.5765 7
575 1 -2.86051 17.5613 -6.62139 7
576 1 -5.0622 8.83376 -14.19 18
577 1 -1.46737 10.0068 -2.90239 19
578 1 -4.50898 7.71743 -8.39161 17
579 1 -9.63237 4.95536 -14.352 16
580 1 5.87929 11.5409 -8.28306 19
581 1 -5.32246 -0.453815 -15.4806 14
582 1 -4.50438 4.83767 -9.13829 16
583 1 4.00525 6.40517 -14.4182 11
584 1 -4.95554 2.48067 -11.2064 15
585 1 -9.42897 4.48218 -7.0499 14
586 1 -7.65003 12.8262 -4.98988 15
587 1 -2.90431 9.7798 -12.5516 16
588 1 -0.599239 -1.64755 -3.05415 14
589 1 -12.3063 8.97284 -0.402713 19
590 1 -3.06725 3.41462 -13.7224 17
591 1 -10.1379 14.6261 -11.3589 11
592 1 -2.28599 7.80633 -5.44491 20
593 1 -4.18009 13.5354 -0.757011 18
594 1 -8.66215 2.1248 -16.7477 9
595 1 -3.91037 9.55904 -17.5822 12
596 1 -5.18311 5.14407 -13.4341 20
597 1 -0.291576 13.4384 0.1868 18
598 1 -7.74403 13.2939 -10.94 18
599 1 -4.71227 -1.1718 -6.78267 19
600 1 -1.42061 11.9353 3.35928 21
601 1 0.505593 16.3982 -2.37451 12
602 1 -9.49179 16.3994 2.86839 12
603 1 8.11912 17.267 -2.69159 11
604 1 7.70006 8.34541 3.06183 19
605 1 10.0625 16.2107 -0.487536 10
606 1 7.13131 13.5295 5.07094 16
607 1 -8.69473 9.55451 -0.0626248 17
608 1 -7.73195 13.0868 -0.424217 16
609 2 -15.0245 -10.1971 4.75952 9
610 2 -12.2059 12.038 0.473161 13
611 2 -5.57865 -4.73713 -8.02779 16
612 2 -13.2944 -8.04347 -7.06949 13
613 2 -10.5339 -7.34766 1.95639 19
614 2 -12.566 9.15428 -3.92537 17
615 2 -11.543 14.6347 -10.214 9
616 2 -7.76417 15.3551 -0.530946 13
617 2 -12.8398 3.75724 -7.33928 19
618 2 -9.18101 10.1866 -1.69823 15
619 2 -9.57031 0.30504 -12.8677 15
620 2 -11.7127 -1.34701 -10.9254 14
621 2 -12.1607 -7.38932 -1.33102 16
622 2 -10.0343 5.59241 -8.80524 15
623 2 -4.42628 6.07195 -18.5269 14
624 2 -7.26266 -5.45237 2.43647 18
625 2 -1.59361 2.50766 -14.6643 15
626 2 -9.19897 12.5596 0.790875 18
627 2 -11.3577 6.05855 -14.7167 14
628 2 -6.48936 14.7279 -13.4972 5
629 2 -11.1927 5.85302 0.964812 17
630 2 -1.62652 10.997 -8.08726 20
631 2 -12.5328 3.71161 -14.2782 14
632 2 -7.22502 6.06332 -3.39888 17
633 2 -5.89123 12.8708 0.127167 13
634 2 -13.0609 -5.85808 -4.26856 18
635 2 -4.98694 13.9259 -11.3875 16
636 2 -16.3298 7.09038 -8.9474 12
637 2 -6.56932 3.22087 1.51744 22
638 2 -13.0504 8.40892 -12.8496 11
639 2 -7.52589 15.7061 -4.01796 10
640 2 -16.8401 3.16421 -8.8786 13
641 2 -4.73989 10.8051 -13.8288 14
642 2 -14.7339 -10.2684 -7.62819 7
643 2 -10.1472 -5.25782 -14.6372 8
644 2 -14.5347 0.733745 -7.49354 13
645 2 -8.93746 3.46188 -15.5658 14
646 2 -14.7901 -4.92282 -2.21498 12
647 2 -15.5258 8.09886 -11.2584 13
648 2 -15.5722 -3.36072 0.771073 9
649 2 -13.8507 9.56619 1.57547 13
650 2 -13.3899 13.4161 -7.43647 11
651 2 -7.46721 10.1795 1.491 19
652 2 -11.1388 5.22151 6.07036 18
653 2 1.77795 -0.119334 -22.6583 4
654 2 -5.5501 -0.435067 -18.0243 9
655 2 -0.415076 5.40776 -3.16078 19
656 2 -9.62802 11.2113 -15.01 8
657 2 -3.59091 9.11514 -6.33856 18
658 2 -6.30927 7.9215 -8.62928 12
659 2 -13.3175 0.297394 -13.2254 14
660 2 -12.1457 10.4143 -1.38779 17
661 2 -1.59102 10.6946 -13.963 18
662 2 -1.37247 9.85992 -1.0893 19
663 2 -2.2173 18.7603 -7.93465 4
664 2 -1.9898 8.4838 -17.6789 12
665 2 -9.12648 5.09848 -12.2118 18
666 2 -0.432931 -1.08405 -12.1311 13
667 2 -0.286485 13.9721 -14.4205 12
668 2 -7.19774 -3.66287 -13.7514 13
669 2 -7.09506 -11.3867 -8.88486 13
670 2 -8.08832 2.37468 -12.5217 15
671 2 -9.83873 8.00687 -4.61524 13
672 2 -5.97312 13.1801 -4.36809 11
673 2 1.8483 6.33767 -5.4118 19
674 2 0.703507 0.728426 -6.9878 18
675 2 -10.2779 9.22116 1.5788 19
676 2 -6.22218 1.58873 4.82909 19
677 2 -6.99949 -3.4894 -5.28085 17
678 2 -11.5098 -11.469 -4.27502 18
679 2 -11.3761 0.667727 -15.2127 11
680 2 -0.0507008 17.2896 -9.36975 9
681 2 -10.8728 9.28189 -6.79072 17
682 2 12.9939 9.2244 3.73868 10
683 2 -2.81999 12.1975 -5.45129 18
684 2 0.792138 9.6714 -6.40377 20
685 2 1.80095 -5.4346 -2.92784 15
686 2 -9.04902 5.6819 2.91199 18
687 2 -2.31455 5.0278 3.51137 18
688 2 -14.9297 8.79877 -7.53942 15
689 2 5.02394 10.1425 -8.76958 19
690 2 -3.81535 10.5051 0.0414517 17
691 2 -7.92587 13.4094 -9.06697 15
692 2 -0.442756 14.2934 -9.42215 15
693 2 -10.8495 14.9652 -7.11786 11
694 2 -10.9899 5.70356 -2.24095 20
695 2 0.251951 10.915 3.82264 19
696 2 8.82389 -8.70898 -9.18425 16
697 2 -1.31736 0.454785 -10.1831 22
698 2 5.94164 14.0941 -11.5574 10
699 2 -5.4765 4.58814 -15.4327 17
700 2 -1.54058 -1.19656 -15.0313 16
701 2 1.43307 4.95998 -18.4625 9
702 2 -4.38135 -2.19278 -5.11429 16
703 2 -0.36289 6.20934 5.6067 16
704 2 3.22827 -3.75012 -9.86595 17
705 2 -6.86269 2.69629 -4.54474 17
706 2 -9.796 -4.97079 -5.05969 18
707 2 10.3049 -6.82892 -4.88391 21
708 2 -5.25495 8.49658 -15.949 18
709 2 -5.42851 1.08364 -6.32965 16
710 2 0.982194 10.6873 -13.4815 13
711 2 -2.77723 13.8426 -8.99237 13
712 2 0.882481 13.6761 1.89663 20
713 2 -9.19072 13.3996 -12.6285 12
714 2 1.02804 2.29608 -20.3648 7
715 2 -1.74011 8.39619 -11.0765 15
716 2 -2.96181 2.23378 -4.46371 15
717 2 -6.95907 0.251339 7.49595 18
718 2 -11.4 12.2837 -4.34188 22
719 2 -5.56055 9.70064 -10.7865 19
720 2 -8.69218 4.94336 -5.40532 15
721 2 3.94072 3.13704 4.92103 19
722 2 8.36526 7.39816 7.75404 19
723 2 11.307 11.082 -6.62187 11
724 2 10.7154 9.80093 5.55652 18
725 2 -3.64532 10.1634 7.10495 15
726 2 -4.90406 11.7337 -8.62348 17
727 2 0.195784 17.0541 2.76783 10
728 1 -15.388 14.7965 -2.25052 6
729 1 -11.6318 11.5429 -9.34593 15
730 1 -12.6358 -2.74979 -6.24942 14
731 1 -10.5257 6.74736 7.00486 15
732 1 -14.045 -0.0579881 4.96898 12
733 1 -11.5606 -7.37498 7.06069 15
734 1 -11.0504 8.68697 -11.0578 16
735 1 -7.82439 13.7543 -14.1589 9
736 1 -4.41802 11.9603 -3.97274 15
737 1 -9.94537 2.36836 -12.8903 18
738 1 -6.44041 16.4842 0.632088 13
739 1 -9.96121 -11.7468 2.60884 17
740 1 -12.0253 -0.825101 -13.8444 15
741 1 -16.4428 11.3421 -1.72852 8
742 1 -14.0634 -4.25936 -3.70481 11
743 1 -4.34725 7.72186 4.46899 23
744 1 1.40504 3.45653 10.3189 18
745 1 -6.09757 -2.53197 12.0361 24
746 1 -8.18045 -6.01709 7.57066 21
747 1 2.13224 3.1654 7.10539 20
748 1 -10.9204 12.1075 4.89947 15
749 1 -5.43632 14.8637 -3.81065 13
750 1 -2.73555 11.262 8.50158 18
751 1 -6.13145 -0.0224103 9.5281 22
752 1 -8.95534 4.9523 11.1333 15
753 1 -6.54105 14.9992 5.75659 15
754 1 -17.2509 3.00678 2.64057 10
755 1 -15.2465 2.43004 5.34895 10
756 1 -12.7596 0.22489 -11.2148 17
757 1 -13.2328 5.64919 2.37923 16
758 1 -14.7474 4.92701 6.99287 8
759 1 -9.47403 4.65156 7.02442 18
760 1 -14.8328 3.58593 -2.99261 12
761 1 -15.0256 0.587077 -9.52339 12
762 1 2.64425 -2.4909 17.11 11
763 1 -10.3839 4.12732 2.13867 19
764 1 -8.83985 -6.39247 1.55991 17
765 1 -10.9376 -2.40221 0.63906 14
766 1 -3.54902 -7.15879 14.4228 14
767 1 -7.77813 4.19989 14.0068 15
768 1 -6.62983 16.8435 3.70787 10
769 1 -9.30171 10.9694 2.02814 19
770 1 -8.96418 9.83944 -3.65416 14
771 1 4.49466 2.10116 9.1779 19
772 1 -4.81968 4.10329 15.7365 15
773 1 -1.38479 -7.35417 17.0132 10
774 1 -11.6371 0.775628 9.9694 13
775 1 -3.30208 9.5812 2.48935 16
776 1 -2.87867 4.41426 12.3441 22
777 1 -8.62779 -2.65826 5.43049 18
778 1 -12.4869 10.6042 2.42474 12
779 1 -6.71199 8.86254 2.65264 22
780 1 -7.88132 12.3865 5.48134 19
781 1 -16.5598 4.92224 0.388178 12
782 1 -7.92106 2.11389 0.60011 19
783 1 -11.632 -1.99619 -2.17573 17
784 1 -11.7532 2.4895 3.68014 14
785 1 -11.5297 8.30091 -5.50086 16
786 1 -11.0869 11.7818 8.36154 10
787 1 -16.3717 1.47116 -0.571145 12
788 1 -12.1968 14.6738 -8.44251 11
789 1 -12.4315 11.0211 -3.76283 18
790 1 -1.44282 7.05173 10.0129 18
791 1 -6.07 12.3738 10.1719 16
792 1 -2.81707 -4.60128 16.4995 10
793 1 -7.51023 9.1708 6.28003 21
794 1 -1.2704 6.77245 -2.35608 20
795 1 -18.3558 -0.00316317 0.951018 9
796 1 -2.32255 -4.24778 10.1375 15
797 1 0.946341 -1.55074 -0.300949 23
798 1 -8.01661 10.6627 9.03342 17
799 1 -4.98925 -5.26513 -2.69136 20
800 1 1.37052 5.73145 4.33072 14
801 1 -0.150684 11.8963 12.6539 12
802 1 -4.76318 10.9066 4.74249 15
803 1 -12.7497 4.84387 5.08448 15
804 1 -12.0889 4.25184 9.57467 13
805 1 2.28446 5.3886 18.372 13
806 1 -5.21315 7.35176 0.772298 18
807 1 -4.97715 8.94827 -4.69762 13
808 1 -1.76514 7.95141 0.906988 17
809 1 -0.425237 0.731131 6.42838 21
810 1 -8.97038 10.1784 11.3801 11
811 1 7.28175 -0.67194 -3.74564 14
812 1 -0.965302 10.0924 -18.0465 8
813 1 -6.53798 3.18441 5.69612 19
814 1 7.92178 -1.68647 2.7752 19
815 1 -13.5502 3.10287 0.0123698 17
816 1 -4.25158 -2.22902 9.37896 15
817 1 -15.7659 -2.18297 2.21211 9
818 1 -10.8812 -2.91603 9.60919 15
819 1 2.33444 -1.78037 5.84721 21
820 1 -1.33873 8.38306 12.8965 16
821 1 6.79403 -7.22282 10.3868 15
822 1 -5.95044 5.62597 10.9281 17
823 1 5.66926 10.1564 9.62504 19
824 1 -9.22429 3.39823 4.36677 21
825 1 4.10848 11.2016 4.35062 19
826 1 -2.21642 9.75815 5.5229 20
827 1 -1.84906 13.6446 -3.15081 20
828 1 -9.84616 0.168233 2.6549 16
829 1 -15.9371 8.06768 5.90387 7
830 1 -7.56381 6.25435 4.09692 17
831 1 10.6814 9.1312 3.63123 14
832 1 1.38566 8.71075 14.1043 9
833 1 -9.78775 14.8753 5.40005 14
834 1 -5.32361 11.5037 7.32562 19
835 1 -10.9124 13.91 0.650391 13
836 1 -1.30994 13.6947 5.97361 16
837 1 -7.83078 -2.47879 -9.69094 15
838 1 4.42173 15.6431 8.91494 8
839 1 1.3177 6.49173 9.44507 12
840 1 -11.9568 14.31 3.44983 11
841 1 1.18512 10.6177 6.11752 14
842 1 2.23407 1.06999 -1.37566 19
843 2 -8.32709 0.109768 15.3298 10
844 2 -12.0014 -5.75544 6.21099 10
845 2 -11.4882 13.1981 -1.69148 14
846 2 -15.4634 1.29804 -11.1358 12
847 2 -1.62474 -5.66831 17.5427 8
848 2 -11.989 -1.1464 9.66465 11
849 2 2.70427 -7.89444 17.3504 6
850 2 -14.0713 14.6116 -3.47757 10
851 2 -17.8308 -0.233347 -0.8052 7
852 2 -4.01346 -10.1958 -0.146343 17
853 2 -14.0744 5.58039 -3.55084 13
854 2 -17.4088 1.48928 -6.8845 6
855 2 -16.0757 -2.44239 -2.44365 9
856 2 9.63546 11.0848 15.2503 11
857 2 -13.7674 5.26331 0.610223 14
858 2 -0.08566 -7.39411 8.62892 17
859 2 -5.94677 -0.221365 -3.39969 19
860 2 -5.54883 17.2191 1.93979 11
861 2 -5.67164 5.2299 8.49606 19
862 2 -13.1271 10.8733 -8.33895 12