ITEM: TIMESTEP
4000
ITEM: NUMBER OF ATOMS
2000
ITEM: BOX BOUNDS pp pp pp
-30.0 30.0
-30.0 30.0
-30.0 30.0
ITEM: ATOMS id type x y z Coordination
1 1 -7.81788 5.40394 -10.9409 20
2 1 -2.10842 -11.7736 -8.96476 14
3 1 4.46942 11.5777 11.5673 15
4 1 10.4185 -8.58905 10.1432 12
5 1 -11.4226 9.20834 -4.14159 19
6 1 13.1926 -7.33926 -9.6783 16
7 1 -13.1905 3.44519 -7.20958 13
8 1 1.34405 -4.77579 12.7434 15
9 1 -9.84057 0.157934 -8.64098 22
10 1 -13.0476 -10.5659 4.91356 12
11 1 8.6272 1.69952 -16.2699 13
12 1 -1.82357 -11.1719 2.25117 22
13 1 -14.4814 -8.59242 2.82209 12
14 1 1.96922 1.70362 12.8487 21
15 1 -2.94122 2.35341 9.86011 20
16 1 -1.16966 8.54695 -8.44364 23
17 1 3.56576 -0.712954 13.0702 18
18 1 -11.2717 2.76711 -8.89111 17
19 1 -12.5721 -1.63767 13.3359 15
20 1 18.2866 4.53782 4.33967 9
21 1 1.56932 9.48131 -8.48637 22
22 1 6.65265 7.86705 -14.5725 11
23 1 17.0052 0.0196129 8.44706 14
24 1 -10.9637 4.78916 -5.9803 19
25 1 -9.62652 11.2533 14.237 9
26 1 6.32713 -12.8701 7.98259 14
27 1 7.32887 -13.9019 -9.20655 15
28 1 10.0495 -11.5589 2.21341 15
29 1 -7.4363 -14.1826 -3.82592 17
30 1 -9.43319 -7.1422 12.6634 12
31 1 3.85082 -7.41767 -11.5362 21
32 1 13.1002 -11.194 -7.47032 11
33 1 -2.07698 5.53311 -13.4051 20
34 1 0.419812 4.47905 12.9225 23
35 1 -1.95474 -10.7982 7.71583 17
36 1 11.0304 -4.93316 13.2214 8
37 1 -9.66149 -0.236887 1.92213 21
38 1 -15.4322 0.577211 9.8226 6
39 1 -3.01646 11.9197 -3.2879 20
40 1 -0.0316375 -13.2733 -8.29896 14
41 1 1.10835 1.31933 -10.7664 23
42 1 6.56591 -7.16782 -10.0654 20
43 1 -2.77748 -3.54097 10.0409 21
44 1 -10.934 9.20764 1.98393 15
45 1 6.76863 12.8012 -8.60921 13
46 1 5.61185 13.5194 7.89425 16
47 1 -5.69949 7.71001 -6.0565 22
48 1 4.0309 12.0192 -3.43519 22
49 1 3.85663 -11.3936 2.14146 16
50 1 5.36618 -6.43248 -5.49612 21
51 1 8.68173 -7.73747 -13.6755 14
52 1 -10.2084 8.18074 15.253 9
53 1 -14.0231 -5.54518 -9.57588 8
54 1 -8.14215 8.95123 -3.35883 21
55 1 -4.02825 -8.43185 7.28574 20
56 1 -3.32526 15.5329 12.1008 6
57 1 -13.6129 10.1558 -6.33696 10
58 1 -6.30342 11.5845 13.4853 12
59 1 -2.85136 -13.8052 7.19887 20
60 1 5.69466 -14.9357 1.22558 14
61 1 2.4483 10.3819 14.093 16
62 1 -16.4944 -1.18667 -7.87364 5
63 1 -12.5107 10.4354 -9.35537 7
64 1 4.81642 5.67089 10.5027 20
65 1 15.3038 -4.97536 -10.8992 12
66 1 9.21649 -10.523 7.79878 16
67 1 -14.6032 -1.1659 3.50583 11
68 1 7.05555 15.0565 3.97742 16
69 1 4.47339 -4.57759 12.9884 16
70 1 -6.86887 -16.4079 2.10602 12
71 1 11.9226 0.159817 10.3415 21
72 1 1.89139 7.73604 12.2434 21
73 1 -3.32679 -5.86132 -8.89114 21
74 1 -12.7317 11.9116 8.91736 10
75 1 -7.64148 11.1849 -0.976422 20
76 1 0.911915 6.03821 -8.502 21
77 1 11.892 10.9713 -5.83137 13
78 1 9.01545 -6.52587 5.29583 18
79 1 8.40178 -6.32226 10.1944 16
80 1 -4.71259 13.9002 -4.84067 16
81 1 -9.66558 8.23788 4.78428 21
82 1 -7.94014 -3.99785 12.7658 19
83 1 -4.91509 9.4944 7.19379 21
84 1 -0.923439 -6.27469 9.77601 21
85 1 15.3201 -5.4605 -1.47315 12
86 1 -7.81939 3.35014 6.94311 20
87 1 -11.6756 -13.4589 3.20069 11
88 1 8.95884 -7.93807 -2.7427 22
89 1 6.05947 -0.64374 -10.7794 20
90 1 -5.63827 -6.38933 -13.9103 11
91 1 0.27779 12.2054 2.1944 22
92 1 -5.96637 5.57921 -8.56065 23
93 1 -0.0216373 11.4329 15.6255 11
94 1 0.98559 12.0887 -3.16865 23
95 1 -11.9578 10.8851 4.84597 13
96 1 -3.23853 -9.15281 11.2945 14
97 1 17.1442 -2.93062 8.46599 11
98 1 11.5939 -9.46994 -9.70676 14
99 1 6.93196 -1.4569 13.1994 16
100 1 -7.63356 -6.53192 -0.630448 22
101 1 -7.28512 -8.85004 -3.22461 21
102 1 10.278 -9.26451 4.61816 19
103 1 9.64296 -1.14504 -10.5035 19
104 1 3.819 18.8116 -2.29815 13
105 1 -7.57946 -14.7894 11.372 9
106 1 -7.94726 -12.4565 5.28066 20
107 1 8.89557 -10.6114 -13.8746 11
108 1 10.4042 -9.44198 0.251863 19
109 1 -1.29665 -14.2341 10.4923 14
110 1 -8.01471 -8.16304 1.97604 25
111 1 13.6817 8.51623 9.56627 18
112 1 13.9564 -2.38527 -10.0722 16
113 1 -15.5811 -5.16754 3.2766 11
114 1 10.3239 8.31788 4.20102 18
115 1 17.5788 11.2816 6.99567 8
116 1 -5.25843 0.163068 16.403 12
117 1 -1.73493 11.2132 10.1887 23
118 1 -4.05131 12.788 -7.95136 13
119 1 0.132701 -5.58083 -8.26782 20
120 1 10.1827 -12.4394 -8.39069 15
121 1 1.58755 13.9229 -9.78668 12
122 1 12.8437 -2.72472 11.818 18
123 1 -1.32017 -1.67188 -15.8651 15
124 1 -1.0611 10.0003 -5.84426 20
125 1 12.1285 -0.651931 -5.14165 24
126 1 -8.59488 13.0432 -4.31137 14
127 1 -6.58754 14.0216 -1.02716 14
128 1 7.78265 2.2464 -10.819 22
129 1 11.8465 -10.1273 6.52221 12
130 1 -4.18312 2.58465 -8.30165 22
131 1 -6.53561 13.8714 10.724 10
132 1 13.9734 2.68674 -11.7663 9
133 1 6.39788 12.2478 -4.60525 18
134 1 -3.07573 14.1546 -0.796576 22
135 1 12.4768 10.9642 -0.867918 17
136 1 -1.14507 14.6473 -3.17506 24
137 1 3.3182 16.9294 -5.13589 15
138 1 3.93187 9.95047 -14.1981 12
139 1 -9.98899 -12.6615 -0.183047 17
140 1 -10.648 10.889 -1.74384 17
141 1 -2.96091 -3.61981 -11.1038 20
142 1 6.50386 -8.65372 -15.7207 11
143 1 10.1082 13.2834 8.04664 12
144 1 -0.00636086 12.0449 7.71149 23
145 1 -10.7103 -2.68762 -3.68745 21
146 1 -9.98105 13.869 3.82973 14
147 1 14.2349 -0.688501 -2.59284 15
148 1 -10.9551 5.48319 -10.5863 12
149 1 7.78808 -1.05454 16.6577 10
150 1 7.20658 15.1745 1.19945 18
151 1 -1.66669 9.29944 7.24672 20
152 1 5.55632 -6.29547 -16.2764 12
153 1 -3.47664 14.2672 9.78616 15
154 1 -4.66814 11.3816 -10.7236 13
155 1 3.61556 -3.22755 10.1768 21
156 1 -11.0602 -6.94035 4.44403 18
157 1 0.159794 -9.49887 -13.8606 13
158 1 -7.01316 10.162 -8.03789 15
159 1 -2.70309 -9.52359 4.47303 21
160 1 8.69908 -12.024 -0.381882 19
161 1 -0.840987 10.8104 -11.3497 22
162 1 -14.5645 0.629607 12.9624 8
163 1 11.9786 9.28047 -3.22237 18
164 1 -6.89816 2.75399 16.0905 14
165 1 0.492012 -9.51377 10.0127 19
166 1 3.6585 14.4774 5.10195 19
167 1 -0.228117 8.36259 10.2214 23
168 1 15.1253 8.24537 11.6723 12
169 1 -4.52948 14.9811 1.6863 15
170 1 16.1358 -2.06877 -8.40898 13
171 1 -3.15775 10.9954 15.3477 11
172 1 12.0379 -8.40501 2.39512 16
173 1 -13.5213 -0.899504 7.047 15
174 1 -7.80686 -6.57978 4.56192 21
175 1 11.6242 9.12395 12.1997 14
176 1 -14.5529 -0.74812 -0.64867 11
177 1 -1.60752 -13.1215 -0.108058 21
178 1 -1.51687 11.1904 4.84235 22
179 1 6.7529 14.4015 10.6703 11
180 1 -2.72617 12.2138 -13.75 14
181 1 -14.4067 -1.94972 -10.6034 12
182 1 -9.399 -3.80589 9.98287 20
183 1 0.467978 -9.4078 3.76911 19
184 1 4.23421 -12.1531 10.6314 13
185 1 -13.0731 13.9415 5.67699 8
186 1 16.192 6.51606 3.61752 10
187 1 -4.71284 -7.83836 -10.6467 15
188 1 5.42194 -0.262855 10.1904 18
189 1 5.48738 -15.383 5.25947 11
190 1 -0.150483 12.9109 -14.2265 10
191 1 9.56949 -12.3043 -11.6672 13
192 1 13.408 -3.44072 -13.228 11
193 1 4.78449 5.51688 -17.2462 12
194 1 -4.74378 -2.9245 -8.65688 20
195 1 -1.36013 12.8837 -5.94316 21
196 1 -9.93091 -12.3042 9.96387 11
197 1 5.12149 18.1582 0.69991 18
198 1 -8.46107 0.145801 15.5944 16
199 1 -10.1777 12.1824 -7.67084 11
200 1 8.45655 0.0479344 10.4579 20
201 1 1.91594 -8.27643 -8.7887 18
202 1 -3.606 10.643 -5.89304 21
203 1 3.98086 6.88809 -13.0858 19
204 1 -6.75416 -11.8867 10.9888 15
205 1 -10.2245 6.22471 7.22575 18
206 1 -8.24752 5.58816 9.81384 22
207 1 2.45319 -12.6029 -5.20878 19
208 1 -6.11145 -17.4255 -2.97886 8
209 1 13.3101 -5.93824 -5.05757 20
210 1 10.6097 8.35384 15.3278 12
211 1 7.03629 6.73206 -8.68191 23
212 1 -0.693004 11.0953 -0.778821 20
213 1 -9.7849 2.21136 4.7587 22
214 1 -11.6332 12.3342 -5.36006 10
215 1 1.83347 6.16817 9.97855 19
216 1 3.6847 -17.7213 0.689834 11
217 1 12.1378 -0.657202 -0.167855 21
218 1 -8.32368 5.62671 4.99247 22
219 1 -11.3138 -6.7227 -6.19702 17
220 1 6.33635 0.759192 -13.6529 20
221 1 2.01347 -0.131645 9.85147 20
222 1 10.2704 7.17994 -7.80927 21
223 1 5.5249 -8.3013 -3.57874 22
224 1 -0.661037 -0.754983 -11.1576 23
225 1 -3.13964 -15.479 4.53003 14
226 1 8.83056 -0.487547 -5.40251 24
227 1 -11.4215 -2.79923 7.33094 19
228 1 6.18314 -14.3752 -2.34016 16
229 1 -9.43112 -8.19948 -8.94309 15
230 1 7.11064 13.7723 -1.83879 22
231 1 -0.240738 -3.45933 -12.45 18
232 1 8.29903 5.40853 9.95838 18
233 1 15.4337 2.769 1.7102 14
234 1 9.88404 -3.64017 -12.9457 18
235 1 -8.0453 -0.803271 -11.0938 22
236 1 -14.7898 1.18912 -6.29063 11
237 1 -6.65027 -16.7847 5.6694 13
238 1 10.7419 -4.75342 7.57765 18
239 1 -2.10655 -9.3573 -11.2967 15
240 1 0.955396 7.89754 -11.2026 21
241 1 -4.24752 -8.48727 1.88251 19
242 1 2.19472 10.8886 -0.532993 22
243 1 -9.19292 -1.38464 13.0654 22
244 1 -8.08834 -6.74899 -6.36363 19
245 1 -6.2255 -4.08266 -11.2099 18
246 1 -0.926869 7.35237 -16.1539 14
247 1 -7.73056 -11.9914 -6.08363 20
248 1 11.5122 -5.91144 -13.826 14
249 1 11.1553 2.03351 -11.2107 16
250 1 10.7616 2.53084 4.87137 19
251 1 -11.2 -6.48895 9.87442 17
252 1 -2.42706 -9.49591 -0.799056 21
253 1 8.7923 2.32513 16.8372 11
254 1 -11.5939 -14.0438 -2.41128 7
255 1 0.935336 -12.2261 2.6679 20
256 1 -2.92893 17.6755 0.0345482 14
257 1 3.88685 -1.89824 -13.3701 19
258 1 -2.88048 -6.23485 -12.4902 17
259 1 -8.6985 -9.62699 10.6897 16
260 1 1.13005 5.32912 15.8958 16
261 1 3.87682 -9.27613 -0.325634 22
262 1 -6.25097 -15.2879 -6.15482 10
263 1 -9.7301 7.48524 -5.68281 19
264 1 11.9977 3.61874 7.34668 17
265 1 -6.15243 2.13097 -10.9737 24
266 1 4.10649 5.52438 -8.68942 19
267 1 7.81722 -13.0278 -6.30164 15
268 1 -2.48919 15.7661 -4.96242 15
269 1 3.11857 12.2137 7.43663 24
270 1 10.3018 0.444245 7.68918 20
271 1 -10.1796 0.246338 7.26407 21
272 1 -1.28789 -5.06563 12.3384 13
273 1 -8.41849 9.48526 6.89842 21
274 1 6.31918 -6.05988 -13.396 24
275 1 16.5245 9.66963 -3.86204 9
276 1 7.06388 -11.1037 2.50239 23
277 1 -2.0996 0.0744047 15.2321 13
278 1 -14.6348 -4.19353 6.92844 11
279 1 4.04748 -15.2478 -1.5315 16
280 1 -6.6555 6.91827 12.4561 19
281 1 -12.5048 9.64313 14.1504 9
282 1 -13.7989 -7.04156 8.91401 11
283 1 -11.9541 -8.62718 7.28895 15
284 1 12.2753 -2.65801 -2.70209 21
285 1 -11.8509 -9.39301 10.4428 9
286 1 7.92584 -5.13587 -7.50042 22
287 1 13.1428 -11.2356 -4.80707 11
288 1 2.30108 16.4576 -0.0660834 20
289 1 -8.65903 10.1879 -5.88892 21
290 1 4.80652 8.66097 14.087 17
291 1 -11.3803 -0.992953 4.766 22
292 1 7.24298 -9.4119 -0.693931 22
293 1 -5.22641 10.9867 4.75552 23
294 1 6.74929 -9.75411 9.67278 15
295 1 13.9386 -5.92306 2.59239 15
296 1 -1.94836 5.38156 9.85933 19
297 1 -0.991748 3.64807 18.554 9
298 1 -3.06885 13.5186 4.21563 18
299 1 9.50539 6.70317 12.8489 17
300 1 -6.11301 11.7596 -3.44892 21
301 1 1.66181 -1.08258 -17.7821 11
302 1 6.73526 -9.29504 -12.1899 19
303 1 -7.27304 5.80392 15.1687 15
304 1 -12.9718 1.88227 4.4114 15
305 1 -4.49853 8.98657 1.859 21
306 1 8.54482 -2.42245 7.77578 21
307 1 -9.55489 -10.9083 2.24314 20
308 1 7.14247 -5.2747 7.37122 19
309 1 -5.83173 -8.91976 9.17494 23
310 1 -12.4194 12.6195 2.24236 11
311 1 -1.29701 -0.303756 10.0056 22
312 1 4.8284 -11.4568 -7.3785 19
313 1 -4.82322 -0.308297 -11.458 21
314 1 8.12949 -5.06129 -15.2185 15
315 1 3.40007 12.4793 2.0154 20
316 1 -9.19111 0.441252 -3.04664 19
317 1 3.26418 -10.3744 -12.537 15
318 1 9.51126 5.56359 -10.55 22
319 1 -4.73646 -12.4097 -5.96635 19
320 1 -11.8025 -2.71711 -9.0004 21
321 1 12.3226 5.13668 16.0465 12
322 1 13.9787 6.4882 -3.39633 18
323 1 -4.52063 4.24925 -11.0546 23
324 1 4.49884 16.9047 3.26164 14
325 1 -13.0132 -6.37268 -3.71628 11
326 1 -6.33189 6.52504 7.34061 22
327 1 -6.44 12.008 1.88862 23
328 1 -5.18633 5.51094 9.82945 19
329 1 12.6468 3.13499 10.7855 18
330 1 10.8453 -3.56818 -5.38814 23
331 1 4.74814 -1.84625 17.8234 10
332 1 13.7261 2.37334 -6.14719 15
333 1 -2.51634 -14.9586 -7.3323 12
334 1 2.22714 11.2746 4.53167 23
335 1 -9.09456 1.76841 -6.19843 22
336 1 9.36038 -12.9407 -3.39668 15
337 1 13.952 1.0537 6.97833 18
338 1 -7.9966 -0.9912 -5.7632 22
339 1 -6.07783 -9.53988 4.73903 22
340 1 -7.9696 -6.62963 9.54253 19
341 1 -2.8979 11.6785 2.03885 23
342 1 -11.9224 -9.22727 -3.57915 13
343 1 6.64372 6.38856 13.5218 15
344 1 -9.16502 8.11477 -0.307008 22
345 1 -0.683842 11.908 -8.05856 21
346 1 5.49274 12.2714 4.53303 20
347 1 -13.1151 -10.1904 -0.546066 13
348 1 0.572578 -9.49713 -5.8568 19
349 1 -11.1519 -1.22387 10.4042 18
350 1 -13.6054 9.7958 -2.38503 11
351 1 3.96426 -9.48138 4.11805 22
352 1 -3.55185 -14.387 -4.58789 16
353 1 9.67864 14.38 11.2512 12
354 1 9.41711 6.77838 -13.7152 11
355 1 -12.0582 7.4328 -7.73346 14
356 1 1.62795 13.8727 -5.86892 25
357 1 -7.74762 5.37261 -5.84154 24
358 1 -1.04037 -12.0474 5.01705 22
359 1 13.139 9.17036 6.28193 16
360 1 2.97142 7.20032 -15.8323 16
361 1 -11.3578 2.99758 1.59417 18
362 1 -4.33272 -14.4575 1.58825 16
363 1 10.9606 -4.3535 -9.81544 19
364 1 -13.2453 2.21176 8.00942 13
365 1 -12.692 -3.8933 10.4363 13
366 1 -9.74606 8.51934 8.88023 17
367 1 -9.68772 2.23278 -11.6163 16
368 1 7.77365 -10.4219 -9.20024 22
369 1 -0.989706 -8.59953 -8.69891 20
370 1 -6.01342 -3.69447 9.87102 19
371 1 -4.24714 1.45902 -13.8676 18
372 1 8.97603 -12.1033 5.48093 15
373 1 3.14884 15.91 -8.30476 11
374 1 -10.5007 12.5906 7.02866 15
375 1 -0.790712 -0.147035 18.0019 9
376 1 -11.6152 -8.09281 -10.9259 9
377 1 -7.73207 -8.54738 7.10961 19
378 1 13.8221 -7.52757 8.36164 14
379 1 14.1977 -8.21759 5.6081 11
380 1 16.8354 7.53212 -1.11195 14
381 1 -4.77262 1.85324 12.5784 20
382 1 4.89478 10.6451 -7.28107 22
383 1 0.546666 -13.9512 -2.34156 18
384 1 -3.95358 6.65207 14.4072 19
385 1 1.68746 14.7314 7.597 15
386 1 -10.1596 -10.6939 -8.63082 10
387 1 9.78869 13.9556 3.17298 19
388 1 6.99848 6.98218 7.50278 22
389 1 -8.25281 -0.375729 10.3113 22
390 1 -4.24899 -8.93937 -3.02392 20
391 1 -12.057 2.59603 13.7795 15
392 1 -9.86566 -3.91087 -6.13631 21
393 1 -6.58998 12.7305 7.458 18
394 1 -2.19053 -10.0019 -6.13051 21
395 1 0.348383 -6.45741 -15.4859 11
396 1 -6.56287 -11.0785 2.08154 18
397 1 8.62761 3.64089 7.34069 20
398 1 -4.58185 -4.50345 13.1213 14
399 1 -9.79446 4.83634 -8.47699 21
400 1 10.5108 6.30844 1.76761 21
401 1 -7.20957 -12.3641 -0.875568 17
402 1 2.94021 19.9272 1.01538 12
403 1 1.87852 10.8775 10.6093 22
404 1 -11.3419 -1.26922 -0.957435 21
405 1 0.0443179 18.3596 1.88998 13
406 1 8.3124 10.0928 -9.10832 16
407 1 -6.53936 -5.6902 -8.61426 22
408 1 3.07853 3.04236 15.5672 16
409 1 2.34548 -15.5244 -9.73269 8
410 1 0.801773 -0.664091 -13.5825 23
411 1 7.90078 -13.7783 2.57604 14
412 1 -8.3934 11.4218 4.81291 21
413 1 5.21475 3.25596 13.0947 17
414 1 10.3677 8.15287 -0.93093 20
415 1 5.70728 11.3553 -1.15325 18
416 1 -8.02858 7.14498 -8.42105 17
417 1 -9.56821 -3.96919 -0.69178 20
418 1 1.89292 14.895 2.35316 20
419 1 -6.8552 3.8971 -13.3807 14
420 1 12.4018 8.8261 2.71546 20
421 1 8.08146 14.9334 -5.39948 13
422 1 14.0401 2.58641 -0.531326 17
423 1 -0.31867 2.13521 -13.1203 17
424 1 1.27554 -11.12 7.97516 21
425 1 1.18616 -12.2449 11.099 13
426 1 -7.67551 2.87766 -8.39435 25
427 1 -4.30452 -12.3851 3.63506 18
428 1 4.09932 -13.2721 -9.91384 18
429 1 8.77398 11.036 4.0664 20
430 1 0.708569 6.08715 -13.6239 21
431 1 2.3894 -0.608978 19.1788 7
432 1 -10.789 1.16385 12.2188 21
433 1 -1.35109 -14.2671 2.74411 22
434 1 -11.3841 -3.2381 1.97543 21
435 1 16.3087 -6.13241 -4.43003 10
436 1 10.3448 0.325689 -2.75268 22
437 1 3.92931 -9.57734 -5.00022 19
438 1 4.33457 2.36433 -11.0158 23
439 1 14.6763 -5.00085 -8.08288 17
440 1 -3.69046 -2.34939 15.7549 11
441 1 5.13949 15.7694 -2.14618 20
442 1 -2.1814 -0.787268 -13.5135 21
443 1 6.68745 4.75316 -15.9227 14
444 1 -6.22264 -5.61631 7.37698 23
445 1 0.541979 13.9983 -0.663763 20
446 1 -7.35896 -2.17118 -13.8219 11
447 1 -12.9608 0.145968 1.32106 17
448 1 1.13443 -7.9819 -11.7262 19
449 1 -3.93043 -12.1874 9.91118 19
450 1 7.37152 8.14873 -6.19291 19
451 1 14.3298 -1.25581 9.15653 21
452 1 15.6315 4.9016 -1.42714 15
453 1 -9.72669 -9.51407 -0.911642 21
454 1 -1.66523 -4.36798 -14.7955 17
455 1 -9.13722 12.1139 9.71866 15
456 1 10.4978 -3.5054 -0.159284 23
457 1 -0.455332 15.3642 -8.03364 10
458 1 15.3623 4.94381 -9.18913 12
459 1 1.63242 8.11393 15.0363 18
460 1 -9.87466 2.76437 9.67523 19
461 1 7.10987 9.33168 11.8588 12
462 1 10.8965 -0.481066 13.1034 15
463 1 1.03782 5.13668 -17.0274 12
464 1 -4.50355 -6.55104 -6.42602 18
465 1 0.167197 3.1978 10.2384 21
466 1 10.7533 10.0649 8.27975 18
467 1 9.14581 3.75129 -8.36443 20
468 1 -4.69426 8.96741 -3.25216 22
469 1 2.16405 15.2422 -3.25043 20
470 1 14.0035 -5.73341 11.3103 10
471 1 12.4855 -0.753812 -11.5588 14
472 1 11.6175 -8.59534 -4.48107 19
473 1 12.8629 6.26553 12.9869 20
474 1 -14.4028 -13.4727 -0.815066 5
475 1 -5.1289 9.95815 -13.8367 11
476 1 -11.7935 0.285754 16.0262 11
477 1 -1.96875 13.5358 -10.8467 13
478 1 5.85856 -12.3101 -0.211549 19
479 1 5.7124 -2.72748 -8.15379 20
480 1 -2.28111 18.537 -3.06321 12
481 1 -8.16121 -6.7089 -11.2568 12
482 1 5.80624 -12.5827 4.68757 19
483 1 -12.8767 -6.3085 2.14693 19
484 1 0.910397 9.81638 -14.1716 18
485 1 -3.75185 9.38526 12.9729 20
486 1 -9.59793 -5.78127 7.08583 19
487 1 3.18005 -13.7207 -12.7565 9
488 1 2.3747 -6.19931 10.1546 19
489 1 -10.3091 6.17956 2.39322 20
490 1 5.75446 0.761692 18.616 10
491 1 6.86907 17.6263 -3.83687 12
492 1 14.1151 -8.18229 -2.57774 13
493 1 3.23816 5.18889 13.1285 23
494 1 -1.83254 4.1413 -16.6119 14
495 1 -8.65274 -14.5422 7.76661 15
496 1 5.75566 0.380365 -18.3998 9
497 1 1.36 16.5673 4.34478 12
498 1 13.7454 7.53593 -9.39479 14
499 1 -4.22093 -3.62183 -13.4889 18
500 1 -2.574 -11.7727 -3.06882 24
501 1 -9.40449 -3.59004 -11.6914 16
502 1 12.0956 3.51642 2.23086 21
503 1 18.437 4.86759 -3.33726 9
504 1 6.5325 -8.42253 -7.17092 18
505 1 11.2248 12.7975 14.0565 8
506 1 8.66822 -10.0569 -5.24304 20
507 1 4.08996 4.2545 -14.0349 19
508 1 10.0039 15.3787 0.0971144 16
509 1 8.86431 11.3798 15.9592 7
510 1 13.664 7.96976 -0.342835 18
511 1 11.8038 -2.13188 8.23467 20
512 1 15.8934 8.15719 -7.00559 13
513 1 9.33621 -2.85309 11.564 17
514 1 14.9241 4.97674 13.7402 13
515 1 0.23121 -3.14781 10.1028 23
516 1 14.1394 11.8697 -3.59403 12
517 1 1.36525 -0.00348665 15.9645 13
518 1 15.817 -0.277743 -5.72877 13
519 1 9.95072 3.00415 10.2461 21
520 1 -6.37375 0.101899 -8.28601 25
521 1 14.0373 5.71325 1.62533 21
522 1 -14.7749 10.4267 11.4998 6
523 1 7.75942 13.3671 14.0877 8
524 1 15.1006 1.70577 10.558 19
525 1 4.91744 9.67056 6.57186 20
526 1 3.6671 14.9129 9.60454 10
527 1 -1.26542 -17.2008 1.08526 10
528 1 -6.13528 8.13166 -0.897429 18
529 1 8.63938 9.61876 -2.8612 18
530 1 9.74404 -1.97826 -16.0063 9
531 1 -0.32806 16.8504 -0.725319 21
532 1 -0.603693 -12.8022 -5.20251 21
533 1 14.4734 -6.92037 -13.0764 9
534 1 -12.2168 3.86582 10.7494 14
535 1 -2.22845 7.21923 -11.1009 20
536 1 -9.99716 -15.6224 1.19665 9
537 1 -4.716 -1.40793 -15.4771 12
538 1 -11.1255 3.10329 -3.56046 21
539 1 10.5642 -5.49064 2.29355 20
540 1 14.1973 12.5411 7.55791 9
541 1 2.26202 -8.27347 7.23912 21
542 1 -11.5236 -0.662953 -6.3657 18
543 1 5.09974 2.17202 -16.0264 17
544 1 -4.5713 4.53042 16.9171 11
545 1 4.05153 8.40805 -10.1995 20
546 1 15.705 -2.43245 11.3079 11
547 1 10.4457 2.36578 -5.49518 19
548 1 13.9357 11.4249 4.07779 15
549 1 4.76467 -14.986 -6.79747 15
550 1 -9.23956 -5.17782 15.5409 9
551 1 15.7656 0.018071 3.90053 13
552 1 1.10995 12.7142 12.3852 13
553 1 7.97532 8.4221 -11.1951 16
554 1 -14.4814 12.6867 -0.920668 4
555 1 11.5048 11.7009 2.05942 18
556 1 -9.5567 -11.821 -3.25437 18
557 1 12.4621 -0.0890617 5.21985 20
558 1 6.54574 19.9708 -0.574859 9
559 1 -6.39367 2.59568 10.0599 22
560 1 -11.014 -8.76281 1.77739 19
561 1 -8.21105 -2.57676 -8.68749 22
562 1 13.6937 -4.55743 8.30051 18
563 1 -4.80208 -14.9658 9.93523 15
564 1 11.2543 3.63493 13.6347 19
565 1 -4.32317 11.1938 -0.632635 22
566 1 3.83875 -0.800656 -15.8386 22
567 1 -8.15233 -2.66339 7.59756 24
568 1 8.93799 -2.25842 -7.86392 21
569 1 14.447 -7.95817 -6.30489 17
570 1 8.95465 8.07598 9.94034 19
571 1 -11.1842 -2.31603 16.0958 10
572 1 13.6007 6.26249 7.72189 18
573 1 0.873059 -1.32272 12.2633 19
574 1 -3.41719 8.16498 10.3297 23
575 1 2.88189 -5.26299 -13.3987 18
576 1 -7.56523 1.69169 13.2718 19
577 1 8.57395 1.75948 12.9278 15
578 1 -5.90148 -14.5209 7.20041 19
579 1 15.3375 9.07844 1.71527 15
580 1 7.04569 -10.963 -3.09296 24
581 1 12.0743 13.8353 -0.843659 16
582 1 10.2954 15.9014 5.55058 8
583 1 2.49331 2.32353 -17.2883 15
584 1 9.34702 11.2033 -6.71865 14
585 1 12.233 6.05808 4.8813 20
586 1 -5.82907 -9.55898 -0.584547 23
587 1 0.39069 1.52429 -16.2493 15
588 1 -9.7148 11.9414 0.716387 15
589 1 9.08139 -6.53379 -11.1365 17
590 1 11.9804 4.04 -9.03594 18
591 1 15.4533 10.4774 -1.02465 14
592 1 10.3297 6.87843 -4.24203 21
593 1 17.4485 2.48006 13.0372 6
594 1 14.2906 0.474669 13.0727 13
595 1 0.186158 -14.3778 7.21112 17
596 1 -2.25903 10.4079 -16.2126 9
597 1 7.93854 12.2403 6.48092 21
598 1 11.8564 -8.70029 -12.9693 12
599 1 9.97211 15.7276 -3.32692 13
600 1 6.73831 12.2632 1.54235 19
601 1 16.2242 -3.04195 -2.48402 10
602 1 9.23863 5.41806 15.7388 12
603 1 -13.0515 -3.8385 4.62391 21
604 1 3.62275 -13.1797 7.30244 19
605 1 -8.12085 14.9867 1.76817 10
606 1 5.45627 9.76303 2.35008 23
607 1 -14.4885 -3.07126 1.21194 14
608 1 -1.54508 5.1486 15.7703 18
609 1 -5.00297 6.69045 -12.4227 16
610 1 -4.27403 8.78248 -8.31031 21
611 1 2.01758 -12.3191 -0.00258024 18
612 1 8.65235 5.39562 -5.89684 19
613 1 -11.8821 10.5756 11.1959 14
614 1 7.16967 -1.95205 -13.5571 19
615 1 4.75841 -10.5159 7.36871 23
616 1 3.54623 13.6444 -0.869726 20
617 1 -3.23918 2.361 16.066 18
618 1 -9.74911 -5.36737 -8.90563 21
619 1 0.264989 -11.7608 -11.5945 15
620 1 -6.29612 -9.29639 -5.72328 18
621 1 0.0286742 18.1416 -3.84899 14
622 1 3.6928 -5.99313 -8.15529 21
623 1 -3.35511 11.8136 7.63932 21
624 1 9.42342 -8.15503 -8.09845 17
625 1 3.93841 -16.9474 3.46288 13
626 1 5.4322 -6.80309 10.6503 15
627 1 13.9112 0.581435 -8.68367 17
628 1 4.25475 -16.5056 -4.59364 8
629 1 -10.8897 -4.1546 13.078 16
630 1 -6.98349 -15.6395 -0.659092 15
631 1 -5.91412 -11.6768 -3.54233 20
632 1 -9.92764 3.17588 15.4039 15
633 1 -3.3431 -15.2465 -1.35299 18
634 1 17.9689 7.41577 -4.34105 9
635 1 0.64689 13.1639 5.08894 20
636 1 -12.1146 7.63818 -0.568607 18
637 1 14.115 3.54894 5.14933 17
638 1 -12.1035 -4.42854 -11.2398 13
639 1 2.31653 10.5481 -5.97135 21
640 1 10.4342 0.81175 -8.38358 19
641 1 5.20401 11.9443 15.7273 7
642 1 12.049 3.40328 -3.05431 18
643 1 -14.2807 3.39438 -3.81857 12
644 1 -13.1009 -4.12564 -6.37993 12
645 1 -1.38484 8.36135 15.7972 16
646 1 6.23428 5.32431 -11.2686 20
647 1 15.2765 11.1975 9.75981 12
648 1 -1.8868 -2.42221 13.0649 16
649 1 1.28517 -16.443 -1.30611 11
650 1 -7.07053 -16.7739 8.45395 10
651 1 -0.305991 -8.14417 12.766 10
652 1 16.1875 8.82792 8.36444 15
653 1 4.34406 -9.3935 -9.44118 18
654 1 -7.94735 9.46886 2.53956 20
655 1 7.00847 8.58581 4.3808 24
656 1 -9.41297 -3.65952 4.88075 21
657 1 11.1239 8.29939 -11.4523 13
658 1 -1.05466 -15.5572 -4.13203 10
659 1 0.938447 -17.2623 2.311 14
660 1 -0.464351 -17.0846 5.18236 10
661 1 5.69307 3.11551 -8.67664 23
662 1 7.81238 17.1634 -1.01416 16
663 1 -2.96642 1.19644 -16.9515 10
664 1 -1.5154 1.12466 12.5428 20
665 1 -3.86005 6.65245 -15.8032 12
666 1 -11.3516 -0.923288 -11.5459 13
667 1 -9.64988 -5.75553 2.06378 20
668 1 0.151274 19.5312 -0.686067 11
669 1 -2.37751 -7.11663 -15.3581 10
670 1 12.3491 4.92003 -5.95573 19
671 1 14.1638 -2.90315 0.241624 17
672 1 -6.65495 8.72415 9.68816 18
673 1 7.23117 -9.75878 5.5313 20
674 1 11.9912 -2.15822 2.6037 19
675 1 15.4775 -5.19227 5.42145 12
676 1 1.60922 9.39609 7.04022 23
677 1 -12.3142 5.93165 13.3832 10
678 1 -6.18771 4.31027 13.0638 18
679 1 -3.95445 -16.9056 7.14001 11
680 1 3.51073 8.95536 9.47294 18
681 1 -12.4892 2.08703 -1.14376 17
682 1 10.7096 -5.51544 -2.66582 19
683 1 -7.00212 13.3622 -6.71245 12
684 1 2.09575 -14.9262 9.6792 11
685 1 6.31767 1.15525 15.4032 15
686 1 -1.47531 14.9384 6.94802 15
687 1 2.5106 -11.9292 5.27325 21
688 1 3.6633 2.80606 10.1905 22
689 1 -12.7063 -3.88648 -0.997951 16
690 1 6.22042 3.63552 16.8459 12
691 1 10.3736 12.363 -3.33189 20
692 1 -12.8961 -11.4583 1.64415 12
693 1 -4.46072 -17.463 0.190667 10
694 1 6.56174 -3.46093 10.1231 21
695 1 12.4129 -6.55224 5.3676 22
696 1 10.0867 6.57769 7.25432 21
697 1 -4.06474 -9.74488 -8.05676 17
698 1 -2.2492 2.31054 -11.6788 21
699 1 2.88656 -3.15986 15.0766 10
700 1 -1.3791 15.3004 2.04817 19
701 1 17.9938 1.58808 3.28111 9
702 1 3.88315 7.61332 -6.25346 20
703 1 -6.93023 8.76473 14.747 15
704 1 9.63904 11.1148 10.1857 17
705 1 7.46071 -3.66223 -10.7468 20
706 1 -4.35762 -11.9543 -0.141848 19
707 1 18.6233 2.88261 6.70256 11
708 1 4.30804 -4.38231 -10.9405 21
709 1 -1.41595 6.76829 12.8188 21
710 1 11.5745 -13.3826 -5.26769 9
711 1 8.17274 3.53854 -13.5401 16
712 1 12.412 5.53514 -11.6363 13
713 1 14.2432 0.235539 1.4109 15
714 1 3.51564 -9.16228 10.1918 18
715 1 1.47599 -10.9285 -8.82583 18
716 1 11.4173 13.6243 -5.72965 10
717 1 -11.1045 3.29576 7.03747 18
718 1 15.6486 5.42779 -5.78865 16
719 1 17.9806 7.74362 5.79728 10
720 1 3.47763 -7.75193 -14.7978 15
721 1 -6.32898 14.2632 4.61234 16
722 1 17.5446 5.93945 8.4283 11
723 1 13.2123 8.03221 -6.33563 18
724 1 2.8447 1.12734 -13.6783 22
725 1 8.82405 -6.27529 -0.362748 20
726 1 -9.52522 2.10341 -0.769894 21
727 1 8.71785 5.53789 4.93976 22
728 1 -11.9 -7.25812 -0.899815 17
729 1 -9.66324 8.39799 -11.0152 11
730 1 6.63644 2.87492 10.1488 21
731 1 -12.7261 0.194348 -3.36351 14
732 1 -9.6972 4.36855 12.5331 20
733 1 -2.54343 5.59745 -8.62579 23
734 1 11.6834 -6.18049 -7.61208 21
735 1 -9.65419 -9.29005 -5.4725 17
736 1 12.4316 -6.59556 -0.222008 15
737 1 -13.3941 5.87505 1.64358 10
738 1 -10.1015 -6.09731 -3.07175 21
739 1 14.9329 5.40474 10.7963 17
740 1 -4.68991 -11.0635 6.76282 23
741 1 11.9529 1.26442 15.8837 8
742 1 14.8585 -1.89871 5.94954 20
743 1 10.7002 -3.27096 5.0324 18
744 1 -11.9113 5.23269 4.64542 15
745 1 6.28613 10.5223 9.53298 16
746 1 5.45365 11.0322 -10.8207 13
747 1 1.6879 -3.11678 -15.1669 16
748 1 -4.76999 15.812 7.59833 7
749 1 -10.4061 -11.7968 7.06546 14
750 1 9.29395 11.3932 -0.118385 19
751 1 -0.740294 10.1743 13.1616 23
752 1 14.4987 -3.27073 -5.17872 18
753 1 10.4515 -7.43676 7.53454 22
754 1 2.2855 11.3767 -12.1608 14
755 1 4.20584 13.649 -6.45827 17
756 1 -4.61769 -0.511241 10.0289 18
757 1 15.8922 3.20231 8.24528 14
758 1 1.53976 -5.0798 -10.4376 18
759 1 14.7138 12.3246 1.61809 13
760 1 -11.5891 4.85199 -0.484733 21
761 1 -1.54233 -11.359 12.1061 12
762 1 5.83541 15.7372 -6.48816 14
763 1 7.497 -5.06968 12.7024 11
764 1 0.492027 -11.3357 -2.8988 20
765 1 -4.42979 16.4796 -2.58496 14
766 1 -14.6018 6.17654 -1.80729 9
767 1 12.2622 -2.71983 -7.70449 20
768 1 6.70208 -12.4507 -11.8517 13
769 1 -6.57999 8.28722 4.75879 25
770 1 11.3408 9.54995 -8.98138 13
771 1 5.28267 -3.05004 -18.3326 8
772 1 -6.76507 -10.5501 -8.91317 12
773 1 3.74359 -11.5893 -2.14724 22
774 1 -1.42155 13.5813 14.4492 10
775 1 11.0496 -10.4414 -2.71747 16
776 1 -2.31279 8.92365 -13.8594 21
777 1 15.7247 2.26416 -4.02289 14
778 1 8.86066 9.32858 1.719 21
779 1 1.83679 -14.7494 1.11465 23
780 1 5.3375 -3.26336 -15.2438 20
781 1 11.6912 5.25568 -0.957023 22
782 1 -0.77668 4.76989 -11.2037 21
783 1 -1.04677 -8.41366 6.93501 20
784 1 5.42944 9.11907 -3.86198 18
785 1 7.38738 0.607036 -8.16001 22
786 1 -9.51272 6.00273 -3.02121 23
787 1 -11.8623 6.99039 10.2647 10
788 1 0.215992 2.49438 15.3667 22
789 1 -7.68094 -11.4067 8.03388 21
790 1 8.47628 9.58077 6.9407 21
791 1 1.30539 -14.8667 4.43925 19
792 1 3.37813 11.8232 -8.75614 18
793 1 -4.58217 11.2867 10.9974 16
794 1 -6.23125 -0.726559 13.224 19
795 1 -8.4227 10.2927 11.774 16
796 1 -4.35442 -6.34879 9.32336 19
797 1 5.49815 -7.86013 7.60378 18
798 1 11.6478 6.15017 10.7454 22
799 1 9.14798 -6.74115 -5.52085 21
800 1 12.5783 -12.798 -10.4655 7
801 1 -7.60924 1.22395 -13.4224 13
802 1 -5.0439 3.82569 -16.2129 10
803 1 7.90851 15.0869 7.06846 13
804 1 -6.24121 -6.66654 11.7685 15
805 1 -2.7258 7.59553 -5.50388 23
806 1 -12.8983 6.3084 -4.49869 16
807 1 12.5128 15.2143 2.4108 10
808 1 -8.77295 -15.0424 4.17173 12
809 1 12.1452 12.2316 10.8969 14
810 1 -9.6869 -13.5181 -5.99132 10
811 1 8.13286 17.8928 2.36685 12
812 1 -6.55569 -2.87065 15.4534 13
813 1 1.93167 -15.0583 -7.09183 11
814 1 18.532 -0.65363 5.89628 10
815 1 2.90874 -16.0099 6.69262 12
816 1 4.28422 6.39252 16.2761 11
817 1 9.58599 0.214368 -13.6436 17
818 1 8.86105 -8.01515 1.86793 20
819 1 3.12417 -0.437453 -10.9196 21
820 1 -13.4464 0.298996 -9.00192 15
821 1 -6.22822 8.54026 -10.702 17
822 1 -2.76506 3.62897 13.4722 19
823 1 11.3618 -5.32696 10.3577 21
824 1 -9.35391 -9.56669 4.94624 20
825 1 15.2195 -2.83794 3.05607 13
826 1 2.80713 4.76023 -11.302 21
827 1 16.5159 9.9972 4.15649 10
828 1 -0.00490504 14.0617 9.9762 16
829 1 -14.2834 -6.89547 5.4756 15
830 1 5.69062 -12.6135 -4.7026 19
831 2 -13.2647 2.12543 -8.46421 15
832 2 -0.944329 10.4695 -9.43749 19
833 2 -1.83493 -2.31453 -11.8957 21
834 2 -3.34371 6.53337 9.4176 22
835 2 12.562 -8.633 -11.3497 10
836 2 -6.34052 -5.81163 -6.66166 19
837 2 0.287636 2.55848 12.1022 23
838 2 6.66792 -1.20367 18.0629 8
839 2 -11.0495 -11.5769 1.01052 17
840 2 -12.2226 11.4789 -6.88862 11
841 2 1.64958 11.034 8.7009 22
842 2 -9.73436 0.387838 3.94732 21
843 2 3.88603 16.6294 -6.87637 12
844 2 10.3036 6.89112 5.33743 19
845 2 3.28573 14.418 -5.03652 21
846 2 10.4522 14.5027 -1.64029 14
847 2 -12.8773 -0.472217 -10.6107 11
848 2 -11.6602 -2.79688 -5.80235 16
849 2 6.76806 0.878977 10.3291 21
850 2 7.38414 -3.56698 -8.5601 22
851 2 4.75922 -16.5127 1.53754 13
852 2 -7.66756 9.23947 -1.45186 21
853 2 -14.0796 3.09042 -5.76965 12
854 2 10.1844 2.42881 6.87772 22
855 2 14.5518 -4.85242 -6.14372 19
856 2 -7.16291 -8.31342 -1.34613 19
857 2 -10.8488 -7.11576 6.48388 20
858 2 -2.58336 -11.3798 4.09287 21
859 2 14.3276 -6.60284 4.25295 13
860 2 3.24216 -15.6338 -5.80933 9
861 2 4.22736 -2.84317 16.4876 10
862 2 3.65748 9.81471 -8.49309 15
863 2 -0.960068 -16.0712 2.7119 16
864 2 -9.65551 -11.8544 -6.98298 14
865 2 3.57101 3.14155 12.2639 21
866 2 -7.86519 9.58918 4.53078 20
867 2 -2.75697 4.22226 17.1296 16
868 2 -6.30168 7.8889 -4.02493 24
869 2 2.73046 -11.0077 10.2091 16
870 2 -3.29785 8.51536 6.62462 24
871 2 -1.23098 8.19588 -6.57007 23
872 2 13.6116 12.0596 9.54385 12
873 2 3.73358 -3.81354 -9.19267 19
874 2 8.64963 16.5884 0.639259 14