ITEM: TIMESTEP
6000
ITEM: NUMBER OF ATOMS
2000
ITEM: BOX BOUNDS pp pp pp
-30.0 30.0
-30.0 30.0
-30.0 30.0
ITEM: ATOMS id type x y z Coordination
1 1 -10.6643 4.52417 -15.0183 9
2 1 -3.11659 -10.0046 -9.43527 18
3 1 3.62292 11.3584 12.999 19
4 1 7.07662 -12.2255 6.41474 13
5 1 -11.236 8.91794 -2.29614 20
6 1 11.4143 -8.89122 -10.6471 14
7 1 -11.5456 3.1042 -6.33844 23
8 1 -0.537578 -7.44786 10.3761 15
9 1 -8.52338 0.649292 -11.7601 18
10 1 -13.4329 -8.77964 6.56267 15
11 1 12.1549 1.74637 -7.9221 20
12 1 -3.93254 2.78529 -5.81779 18
13 1 -4.36468 -13.3646 2.57027 21
14 1 -13.0564 -8.78927 3.18997 14
15 1 1.41718 3.20404 17.3192 14
16 1 5.79395 -2.32197 4.02785 16
17 1 0.462631 3.78944 9.81549 18
18 1 7.17331 -3.87553 1.41531 15
19 1 -1.77762 9.60731 -9.18794 18
20 1 3.23629 -1.48504 14.1309 17
21 1 -9.11856 -0.793319 -16.3618 13
22 1 -13.3546 -2.80002 12.5752 18
23 1 13.1039 4.49132 6.65157 21
24 1 2.40361 10.6744 -11.9121 17
25 1 3.05482 5.40579 -14.891 19
26 1 15.7838 1.19735 13.3103 10
27 1 -7.99894 0.979348 0.99497 19
28 1 -13.9555 4.44436 -9.07302 14
29 1 -3.13598 -0.0390137 -7.57842 20
30 1 -9.22501 7.83986 9.11341 19
31 1 6.81637 -14.375 4.47292 16
32 1 1.61444 -0.370628 8.44803 16
33 1 2.83699 -14.1759 -11.6455 11
34 1 9.04042 -12.203 0.229597 19
35 1 -7.2985 -14.2006 -5.91028 11
36 1 -13.4752 -5.92603 10.738 14
37 1 4.58109 -3.64913 -4.34035 19
38 1 2.18424 -7.01039 -12.3307 21
39 1 10.7797 -10.3869 -13.5744 10
40 1 -2.42621 5.68118 -18.3497 10
41 1 0.754167 3.2137 13.9197 18
42 1 -0.994081 -12.178 7.256 19
43 1 6.97728 -5.56288 11.5946 9
44 1 -11.1249 -1.46759 4.15792 19
45 1 -16.4251 -1.4618 7.9044 13
46 1 -8.41965 -1.48185 -1.41254 19
47 1 -4.02631 13.6276 -2.43889 19
48 1 -0.616049 -15.1667 -11.6887 8
49 1 1.16475 1.4182 -10.674 22
50 1 5.52068 -6.73544 -12.8309 19
51 1 -2.29891 -4.43767 13.1641 14
52 1 -11.5155 5.83923 -0.649245 20
53 1 4.50115 12.2643 -12.7859 15
54 1 1.83401 12.52 8.34146 19
55 1 -11.7362 9.69892 -8.00315 15
56 1 -1.12164 13.3553 -0.855112 20
57 1 1.35185 -12.5747 2.62559 22
58 1 6.84148 -8.14348 -4.58903 22
59 1 6.24452 -6.1486 -15.7912 17
60 1 -9.64204 8.70681 12.919 11
61 1 -12.4637 -4.734 -9.86114 13
62 1 6.13046 3.22813 4.09648 19
63 1 -6.37702 5.92161 -5.3603 19
64 1 -8.57221 -10.0129 6.09372 22
65 1 -2.63617 12.6212 12.3216 13
66 1 -12.7192 6.73497 -7.11484 15
67 1 -6.27776 9.16906 13.4438 17
68 1 0.383908 6.59334 -5.31586 25
69 1 2.38069 6.53966 3.01526 18
70 1 -7.37097 -14.24 8.33625 23
71 1 2.54836 5.53671 8.33397 17
72 1 5.83131 -16.4416 -3.61505 13
73 1 5.18155 11.943 15.6024 12
74 1 -13.8926 1.62118 -10.6363 11
75 1 -11.8541 6.82734 -10.1122 15
76 1 5.4314 5.19344 13.0053 23
77 1 13.5742 -3.85626 -10.6779 11
78 1 9.2404 -12.229 3.90016 13
79 1 -16.5871 -1.31029 5.12489 11
80 1 -8.43177 -1.68946 2.32491 19
81 1 6.18895 16.083 6.63679 16
82 1 6.28847 -2.61024 13.2224 16
83 1 -6.23699 -12.7854 6.45746 18
84 1 -10.9741 -0.687741 0.330752 19
85 1 11.3479 3.83466 4.26891 21
86 1 8.31659 -1.87131 -4.41953 16
87 1 -1.2214 11.632 9.85315 20
88 1 4.5779 -0.508479 8.7901 20
89 1 -7.1413 -4.6534 2.09103 18
90 1 -2.60022 -6.6664 -8.88403 24
91 1 -11.0822 6.17709 7.10031 19
92 1 -6.90618 12.9821 -1.47009 22
93 1 -3.76183 8.03981 -10.1514 20
94 1 3.67022 2.26298 -6.20089 16
95 1 5.26718 -0.683081 -6.12468 20
96 1 8.62222 12.0443 -7.35513 18
97 1 8.20682 -9.40393 2.64041 19
98 1 5.33986 -8.41291 10.1534 11
99 1 -6.0994 15.3071 -3.95333 13
100 1 -11.1444 12.3221 5.27552 10
101 1 -8.2336 -3.56533 14.4305 20
102 1 -4.8574 8.08683 6.38066 19
103 1 -6.32763 -5.6042 9.55126 18
104 1 12.8279 -7.67704 -5.69614 16
105 1 -8.75092 2.53494 4.31979 17
106 1 -10.0168 -15.6838 3.43244 14
107 1 10.1054 -8.8819 -4.54913 23
108 1 5.31889 1.76693 -11.5609 24
109 1 -5.86571 -0.104888 -17.2583 14
110 1 6.71841 -0.553919 6.41316 17
111 1 -1.37931 10.3648 1.52195 24
112 1 -9.63508 7.54327 -7.80704 19
113 1 2.05633 8.84583 19.189 10
114 1 -0.254456 14.0962 -6.22678 20
115 1 -12.7088 11.2685 0.452976 14
116 1 0.675319 7.89145 -0.284595 20
117 1 -6.30404 -9.01703 8.84599 18
118 1 13.9517 0.282767 10.8158 20
119 1 1.74025 -7.11763 -8.38932 23
120 1 4.54803 -5.95036 -6.93853 20
121 1 -0.971386 4.24184 7.1749 19
122 1 8.00156 -1.83405 15.246 17
123 1 -9.31783 -6.98023 -0.952383 22
124 1 4.49029 -4.77772 2.25837 17
125 1 -8.19156 -8.89389 -4.09598 21
126 1 10.7363 -9.18446 0.885674 14
127 1 -4.75166 6.11417 0.226992 19
128 1 7.77892 1.58529 -14.3241 15
129 1 6.15696 18.0595 -2.3196 10
130 1 -7.97276 -13.1475 11.2886 15
131 1 -10.3623 -14.0427 8.89496 18
132 1 -5.6129 2.77884 0.210473 18
133 1 4.96852 -9.23196 -15.0175 16
134 1 3.18113 5.89741 -6.29756 20
135 1 11.0362 -10.6142 -1.51735 17
136 1 -1.72824 -16.5341 6.10304 16
137 1 -7.47292 -9.4528 0.963495 16
138 1 16.4015 6.24996 9.38238 12
139 1 13.8377 -3.36114 -7.54508 18
140 1 -15.5074 -3.71356 3.28191 15
141 1 11.487 9.4013 4.49197 22
142 1 14.3531 9.0867 3.03198 13
143 1 -6.15642 2.7079 17.4051 11
144 1 6.11884 4.51372 -2.21917 18
145 1 -4.47624 9.99 10.4853 22
146 1 -5.55558 12.5405 -7.01851 18
147 1 -0.294603 -5.97482 -10.758 20
148 1 9.13425 -11.8768 -11.6706 13
149 1 1.54154 13.9269 -11.0663 16
150 1 9.02344 -3.40234 12.0324 20
151 1 1.70955 -2.55023 -17.5316 13
152 1 -1.78164 8.10553 -6.39373 22
153 1 10.9987 1.34065 -4.94075 17
154 1 -10.0218 9.00182 -5.1625 20
155 1 -7.84164 14.4349 1.0011 17
156 1 9.01009 0.537954 -10.4699 17
157 1 9.52617 -9.484 5.7365 12
158 1 -6.65725 4.78426 -8.33934 20
159 1 -7.54884 12.8087 9.00621 12
160 1 13.8214 8.29447 -7.94263 13
161 1 5.22008 11.3586 -2.16133 22
162 1 -3.41015 16.7542 1.55042 12
163 1 10.9212 10.4309 -1.73715 21
164 1 -2.69368 11.4286 -4.74444 19
165 1 1.63517 16.3428 -9.01577 13
166 1 4.35592 10.4425 -15.6129 10
167 1 -9.94604 -9.53214 2.82392 17
168 1 -14.0486 9.76132 -2.13665 11
169 1 -4.665 -2.64757 -12.18 19
170 1 2.23053 -10.9546 -15.9844 12
171 1 10.2986 12.9133 8.76741 13
172 1 0.601082 15.1709 7.45226 15
173 1 -13.3936 -4.0142 -4.14783 14
174 1 -9.96112 11.7675 2.56215 20
175 1 14.3841 -1.0843 -2.62391 15
176 1 -11.4225 1.21258 -15.1664 9
177 1 7.71556 1.06037 17.504 17
178 1 4.71267 17.7584 3.73047 14
179 1 -1.89166 8.58627 8.44666 18
180 1 3.22325 -8.01083 -17.1226 12
181 1 -4.00289 13.0429 9.60707 18
182 1 -1.72665 11.7721 -7.07582 20
183 1 4.12415 -4.23599 12.9717 11
184 1 -9.32506 -4.52745 4.3948 24
185 1 -2.0871 -12.9624 -13.7144 10
186 1 -8.87864 11.1303 -8.11583 17
187 1 -3.61725 -11.1495 5.86242 20
188 1 2.43402 -16.5983 -3.06337 14
189 1 -3.51868 10.6855 -12.1333 14
190 1 -14.0636 1.79896 9.18846 15
191 1 1.55725 7.3134 -3.13693 24
192 1 10.9007 9.60487 -4.63525 22
193 1 -8.85306 3.92104 15.5189 16
194 1 -0.294783 -10.1352 9.98722 13
195 1 -9.45343 3.84069 -0.54897 19
196 1 1.76917 16.8154 4.78868 13
197 1 0.586154 7.26992 10.2369 21
198 1 14.365 4.34646 14.3305 14
199 1 -5.99752 14.0108 3.36848 20
200 1 13.3289 -6.59409 -8.65748 13
201 1 -6.05847 12.4012 12.2125 11
202 1 -4.87205 2.06829 -8.73972 22
203 1 13.4896 -5.22104 3.38845 11
204 1 -6.47333 -4.7314 5.92079 21
205 1 -15.1688 1.44965 6.00837 14
206 1 -8.96963 -13.261 5.7198 21
207 1 6.46331 6.00227 16.0667 17
208 1 -15.2232 0.535958 -2.56911 11
209 1 -2.92729 -15.4882 0.313809 19
210 1 -5.80664 -0.853606 -3.0638 18
211 1 5.21277 -8.86709 -1.72404 21
212 1 -2.77611 8.99567 4.50658 22
213 1 -6.94975 0.536272 3.92479 19
214 1 5.96719 13.1538 11.959 14
215 1 -8.07568 -0.312177 -4.68046 19
216 1 -6.23549 10.3066 -9.7319 18
217 1 -13.0925 -4.13638 -6.92373 15
218 1 -10.5275 -1.37651 12.2801 21
219 1 -0.886951 -10.3231 4.23598 25
220 1 4.1219 -14.1007 7.30832 13
221 1 -12.449 9.93733 3.74802 14
222 1 14.6494 3.38462 3.69692 21
223 1 5.75973 4.52984 -7.15691 18
224 1 -5.45912 -5.41638 -13.7591 15
225 1 4.97583 0.0657016 11.6644 21
226 1 6.24953 -16.9915 2.88669 15
227 1 -2.26224 6.04615 -13.1169 20
228 1 4.36636 -12.4495 -13.9197 13
229 1 9.90027 -0.546754 -13.6375 14
230 1 4.01442 8.02238 -17.0426 9
231 1 -7.36799 -3.54729 -7.96569 18
232 1 -3.95968 15.1201 -6.94945 12
233 1 -10.9346 -10.8597 10.8314 15
234 1 8.28105 16.1784 -2.32727 11
235 1 -9.37256 1.4537 17.0384 11
236 1 -5.82331 11.441 -3.81195 18
237 1 7.21926 1.37317 9.26236 23
238 1 -2.9768 -4.79579 -12.8441 22
239 1 -4.32196 9.90217 -7.2517 19
240 1 1.87578 4.81929 -11.0061 18
241 1 -8.52106 -11.4066 8.77461 22
242 1 -5.84914 2.95207 9.51401 22
243 1 -7.93474 5.06141 10.8245 19
244 1 3.00183 -10.9305 -8.6743 17
245 1 -5.78088 -15.5757 -0.165902 17
246 1 10.0877 -13.4697 -2.513 12
247 1 3.0606 -7.85417 0.0118277 15
248 1 12.0569 6.93139 14.1441 15
249 1 5.50703 9.78115 -8.05941 19
250 1 0.251514 10.5721 -1.61346 23
251 1 -10.4925 1.10967 2.63669 16
252 1 -12.0575 12.1728 -2.73222 13
253 1 2.58241 5.23116 11.8441 23
254 1 4.70444 -18.8933 1.34678 11
255 1 10.7528 -0.781248 -2.484 21
256 1 3.26866 7.64357 5.54961 22
257 1 -8.89476 5.97947 4.79326 19
258 1 -9.39392 -6.55571 -4.18469 18
259 1 7.23151 4.43546 -13.1151 17
260 1 3.4743 -2.27222 10.6756 21
261 1 9.1277 10.3996 -9.94833 14
262 1 2.38727 -11.394 -3.91586 20
263 1 -2.11379 -0.587103 -11.0688 21
264 1 0.335122 -19.3132 5.01023 8
265 1 8.70119 0.337997 -6.46331 19
266 1 -12.368 -4.63827 4.69579 20
267 1 4.54131 -16.2816 -0.595269 20
268 1 -8.98192 -5.50576 -9.91935 22
269 1 4.53085 14.2116 -1.08901 23
270 1 1.97344 -2.85316 -14.0933 21
271 1 6.49447 3.52788 15.6593 20
272 1 12.7151 2.33491 1.74782 23
273 1 -3.96375 -7.97991 -0.305491 17
274 1 10.9603 -5.69733 -10.2273 16
275 1 -2.50623 -7.50443 2.34286 19
276 1 -7.77209 -2.71826 -10.8942 18
277 1 -10.4595 0.711194 -8.74142 18
278 1 -8.27844 -16.3352 10.4253 11
279 1 11.2957 0.620524 12.175 20
280 1 5.26085 -2.89081 7.51259 20
281 1 -4.69504 -7.57999 -11.5699 18
282 1 1.53519 -5.86939 6.94693 23
283 1 0.735029 7.62453 -13.5181 14
284 1 5.40306 10.2891 0.808055 18
285 1 -7.89274 -7.21014 3.85206 21
286 1 0.628336 12.516 2.17811 16
287 1 -8.00364 -3.20752 11.4784 21
288 1 -8.97945 -8.64615 -9.99819 11
289 1 -5.06231 -4.80784 -9.88536 24
290 1 -1.83029 8.12413 -15.5599 13
291 1 -5.21919 -8.86224 -5.94785 18
292 1 -3.72647 -10.2396 2.81448 19
293 1 10.0333 -5.59699 -15.5902 9
294 1 14.2219 -0.504849 -9.40244 12
295 1 11.3187 7.20477 6.44162 19
296 1 -3.51645 -4.61467 -2.89621 20
297 1 -11.1028 -3.45787 10.1832 19
298 1 -4.05748 -10.6364 0.240986 19
299 1 9.46126 4.53522 16.8382 20
300 1 -7.45077 -15.9495 5.69601 20
301 1 1.39331 3.16241 -4.7649 19
302 1 -1.58166 -12.2673 1.50047 21
303 1 -1.96882 16.1321 -1.81801 15
304 1 5.62899 -0.677642 -13.9774 18
305 1 -6.68823 -3.29939 -16.2713 11
306 1 3.14049 -7.28355 3.02792 20
307 1 -10.5045 -7.69148 11.3796 12
308 1 4.99331 7.27233 20.3731 9
309 1 2.32741 -12.1547 -0.797585 20
310 1 -2.96673 -13.1759 -10.8118 14
311 1 -10.4045 4.44369 -8.40206 22
312 1 9.30039 8.96705 6.59377 19
313 1 -6.59071 2.86051 -10.8406 19
314 1 -0.745773 8.76395 -11.5613 18
315 1 -3.23627 -4.23554 7.51242 19
316 1 6.4704 -16.5405 -9.61458 6
317 1 -5.27312 15.439 -0.606387 17
318 1 3.20189 11.0585 5.89285 20
319 1 8.91919 2.4353 2.93839 19
320 1 -9.13888 0.6632 7.06533 17
321 1 -4.29884 -7.31044 13.6262 8
322 1 -5.81163 11.0471 4.72339 22
323 1 3.65436 -4.51371 -11.6264 20
324 1 14.9533 10.3664 -2.29418 9
325 1 3.6734 -10.6001 1.18328 22
326 1 -3.0974 -1.21132 15.1116 14
327 1 -16.9614 -4.40366 6.72742 11
328 1 0.813314 -14.2176 -3.82854 19
329 1 -9.28296 7.61147 15.4451 9
330 1 -11.5103 5.6988 14.4982 13
331 1 -14.8993 -3.33119 9.8908 16
332 1 -15.2901 -6.70518 8.36981 12
333 1 12.721 -3.46589 -2.09131 19
334 1 -13.3039 -9.20076 9.78425 13
335 1 8.77704 -2.89876 -9.28976 18
336 1 9.50999 -12.5958 -5.86941 16
337 1 3.48343 17.1626 -3.01082 14
338 1 -2.6314 -1.35361 5.79098 18
339 1 -9.23761 13.5678 -3.50731 13
340 1 -0.451709 1.46694 8.77022 19
341 1 11.0491 6.25801 11.7253 22
342 1 -8.4215 -1.85979 5.86152 21
343 1 8.18483 -10.7891 -2.88235 23
344 1 -4.70378 9.54284 2.11656 20
345 1 -4.69225 6.79904 2.90989 19
346 1 4.30765 -11.3021 8.45486 13
347 1 13.6487 -2.42628 4.74005 16
348 1 -3.00971 6.26156 9.29816 18
349 1 -5.86479 -3.42359 -4.78572 18
350 1 -0.960452 1.20964 16.5696 11
351 1 -3.08007 12.319 3.75696 19
352 1 10.5843 7.85279 16.8523 11
353 1 -8.22288 13.2878 -5.94133 12
354 1 0.3143 -5.69725 -16.9891 13
355 1 -6.888 2.58785 -4.89432 17
356 1 7.2996 -11.2097 -13.6261 14
357 1 -10.1519 1.56132 13.7022 20
358 1 -15.0012 3.23631 2.89492 13
359 1 -2.85999 -3.28204 -7.08575 22
360 1 -6.12294 9.71652 -0.693543 22
361 1 9.80513 -0.317904 7.35693 15
362 1 -10.302 -12.5008 1.62549 13
363 1 6.65309 -9.3284 7.71234 14
364 1 -8.26553 -9.82683 11.8682 13
365 1 -13.3919 8.25267 0.881641 15
366 1 -0.26235 -4.19016 9.87472 20
367 1 4.85927 -12.4148 -6.16505 18
368 1 -4.85322 -1.75811 -8.95063 23
369 1 8.822 -3.42849 -14.5559 17
370 1 4.98776 14.899 4.16649 18
371 1 -10.4915 -1.60522 -2.9654 18
372 1 4.783 -9.92091 -12.019 18
373 1 11.1635 2.2768 -12.9222 12
374 1 -3.55485 -15.0663 -7.70467 12
375 1 -12.6079 -7.15192 -5.17926 12
376 1 -1.44219 -9.90796 -1.30244 20
377 1 12.4236 5.11807 17.2239 11
378 1 11.7236 2.87171 -2.55686 22
379 1 -9.70149 2.95388 -10.1516 20
380 1 3.97914 17.3926 0.401407 16
381 1 -14.1803 -1.07767 -5.89165 12
382 1 -7.50022 8.65267 6.4125 20
383 1 -7.20291 11.4964 1.97161 20
384 1 -6.19515 7.71589 9.14596 21
385 1 10.8454 3.73137 13.6253 22
386 1 11.4371 -2.94131 -5.1891 16
387 1 9.90845 -4.24548 14.9703 7
388 1 14.298 1.94 -4.72371 17
389 1 -5.19435 -15.9961 -3.72256 13
390 1 2.79123 4.22352 5.35799 18
391 1 -5.56581 7.47835 -2.38428 18
392 1 0.874168 -8.22703 -4.9641 20
393 1 0.559917 9.66904 3.90886 19
394 1 -10.2762 1.67667 -3.90179 20
395 1 5.50681 -11.8255 -1.47963 22
396 1 12.5682 1.69606 9.04023 21
397 1 -9.79814 -3.34203 -5.30334 23
398 1 -6.92242 -11.0877 3.75957 22
399 1 -8.33006 -7.00877 13.6416 10
400 1 -2.70948 11.0909 -1.6938 23
401 1 -9.66986 -9.81425 -1.6427 16
402 1 7.35641 9.32185 15.9649 17
403 1 -9.12103 6.55323 -3.12829 20
404 1 0.792811 12.1411 -9.08588 16
405 1 5.74268 12.2332 6.35959 21
406 1 -11.5284 -7.85726 -2.47168 18
407 1 -0.40419 -9.19086 -7.78485 23
408 1 -11.7697 0.995166 7.26937 19
409 1 -12.3908 6.81746 -3.8761 19
410 1 3.74398 -8.57674 6.10264 21
411 1 -4.22834 -13.1218 -1.88898 21
412 1 11.7672 10.5325 8.16232 18
413 1 5.91324 7.44355 -14.077 16
414 1 -12.0073 4.54053 -11.6813 15
415 1 -1.14181 15.3541 -10.0356 13
416 1 -8.96765 4.77581 -5.33892 20
417 1 -1.87387 -13.7152 4.43943 19
418 1 13.5607 6.28244 4.06868 20
419 1 1.17 9.75587 -16.3274 12
420 1 -3.42109 0.573847 7.98692 19
421 1 -15.9224 2.45189 0.0794231 12
422 1 -7.47445 5.61049 7.53297 20
423 1 -4.85455 -15.1398 5.00443 21
424 1 1.91917 -5.51618 -5.68252 21
425 1 7.09802 -7.91153 -7.63604 18
426 1 0.442888 -3.07593 6.55997 20
427 1 -12.7417 1.67891 4.47156 19
428 1 -15.5397 -0.785798 11.6133 14
429 1 -13.6807 7.68813 5.78547 11
430 1 -1.07241 -6.04639 7.64124 18
431 1 -8.58161 2.07825 -16.8678 13
432 1 7.67168 -10.4902 -6.07784 20
433 1 1.90125 -10.3446 -13.0328 20
434 1 -4.97709 -3.27648 10.5959 21
435 1 3.71399 -7.03617 -3.57422 18
436 1 -4.63932 3.14855 -16.6554 17
437 1 6.45646 -11.8373 1.71684 21
438 1 1.88507 12.222 -5.96125 19
439 1 -10.3154 8.88584 5.61393 17
440 1 -5.852 -3.40982 16.2345 11
441 1 -10.5829 -6.31365 -12.6902 11
442 1 -8.41554 -7.10393 6.92551 19
443 1 9.97038 -3.96396 9.2702 16
444 1 8.83133 3.66689 -4.89754 17
445 1 -5.27107 3.44454 4.45528 16
446 1 3.28387 -0.0278536 -8.84584 18
447 1 10.3262 -6.06545 6.82308 10
448 1 14.2171 8.47569 -4.51522 14
449 1 -2.59981 3.73463 13.2697 14
450 1 2.28612 12.5307 -0.388798 23
451 1 6.03102 -7.16954 4.5389 17
452 1 -4.44527 -13.6486 -4.9729 19
453 1 -3.59627 5.09027 17.9332 11
454 1 -2.5069 15.5897 7.91801 10
455 1 -7.45905 -10.5283 -7.42012 19
456 1 9.00597 15.4351 0.955086 15
457 1 5.05232 6.06126 10.1872 20
458 1 -7.98237 1.77732 10.6544 20
459 1 -2.87092 -8.00437 -4.85207 17
460 1 -10.3338 3.84399 12.3264 19
461 1 -7.54395 -6.51029 -6.73644 22
462 1 -6.12835 10.8635 7.97465 24
463 1 -2.74566 -11.4454 -6.48557 20
464 1 -1.96591 -7.24344 -13.5083 16
465 1 -7.16404 -14.3393 2.77252 22
466 1 -5.20274 -2.38968 4.39603 20
467 1 8.78499 2.05756 6.13946 20
468 1 -6.03597 -5.13387 13.0059 18
469 1 -9.1532 4.42987 -12.7827 19
470 1 8.54775 4.08015 -0.916628 19
471 1 -7.68046 -15.3417 -2.55224 11
472 1 0.617956 4.3564 -8.35005 20
473 1 -0.13049 16.4158 2.09069 14
474 1 -1.2413 6.26904 -10.0056 19
475 1 -1.74524 8.23069 11.3328 22
476 1 -13.2938 -2.37941 -1.22033 17
477 1 0.0357696 17.6148 -3.7333 12
478 1 4.84008 11.6829 -6.23314 19
479 1 -6.37225 -7.29575 -8.95327 20
480 1 4.80162 2.00697 17.9352 10
481 1 1.37823 -13.9587 -9.03512 14
482 1 1.04128 -3.05549 -11.4069 19
483 1 8.7188 -14.8361 1.81084 13
484 1 -9.87775 9.05515 0.982588 19
485 1 3.25686 5.15715 15.1681 16
486 1 8.40243 8.46482 -3.11832 18
487 1 3.41084 8.85531 -1.31074 21
488 1 -8.87813 6.32867 -10.8443 19
489 1 3.54996 3.2064 -9.11246 23
490 1 -0.327213 -6.95367 4.51019 20
491 1 -15.3727 -4.42844 -0.321677 13
492 1 3.2026 17.5258 7.12516 10
493 1 -4.40157 3.4089 -13.7949 20
494 1 9.9938 7.71194 -0.335212 24
495 1 6.32549 14.409 -7.4216 15
496 1 7.59211 -9.37838 -0.62541 19
497 1 14.6166 1.95267 -1.95193 15
498 1 0.257497 1.00433 -13.6628 17
499 1 0.0927785 -9.74742 1.28369 20
500 1 1.46242 -13.888 5.58871 19
501 1 2.74932 -8.70965 8.95054 17
502 1 -8.84881 2.37011 -6.82086 20
503 1 -11.6814 -14.6904 6.07664 12
504 1 -0.29113 -11.3547 -10.0362 20
505 1 8.92574 14.2326 6.26546 18
506 1 2.22034 2.63132 -12.9032 18
507 1 4.92031 -1.19611 16.9973 11
508 1 -13.3765 1.73728 12.161 18
509 1 -0.632222 -17.3957 0.257573 15
510 1 -12.6567 -3.1832 1.4792 20
511 1 15.3873 -5.75014 -6.00249 12
512 1 8.07031 -0.975075 -1.0944 19
513 1 -3.22786 5.93064 -4.77448 19
514 1 4.12719 -8.98901 -5.9715 20
515 1 4.63278 5.01901 -12.4444 20
516 1 10.9317 -4.80316 -7.28769 19
517 1 -5.81559 -0.631418 17.059 12
518 1 6.22517 14.9954 1.28314 21
519 1 -3.69762 -1.99247 -15.5347 14
520 1 6.30135 1.75122 -17.3454 14
521 1 -8.76208 -3.70054 8.23367 20
522 1 -2.59092 14.1899 1.42771 18
523 1 -7.50088 -1.61603 -13.7313 16
524 1 -15.629 0.0694854 2.87258 13
525 1 -1.20474 -10.5632 -14.6771 10
526 1 -5.14531 -11.898 9.24759 19
527 1 0.715442 7.76253 -8.25374 18
528 1 15.2383 3.24297 9.38651 14
529 1 12.8375 5.27897 -0.894448 22
530 1 -9.5556 -12.8041 -1.2133 13
531 1 1.36375 -8.94175 -1.96301 20
532 1 -0.638549 -3.0772 -16.4554 16
533 1 -7.95584 10.2106 10.3052 16
534 1 2.84873 -3.48632 -8.56992 19
535 1 2.90293 6.24204 0.299202 21
536 1 12.4699 -0.63458 -0.200355 19
537 1 3.45282 14.3764 -7.11413 21
538 1 1.52469 -9.33473 3.90066 20
539 1 15.0478 4.99271 -9.6307 11
540 1 4.42161 9.15763 14.9825 21
541 1 -9.36801 3.78259 8.46722 18
542 1 6.60467 9.82573 9.86571 18
543 1 10.3778 -0.884424 17.0886 11
544 1 1.76297 2.8129 -15.9908 21
545 1 -4.6399 -5.8532 -6.0649 20
546 1 0.412444 -1.45203 10.9386 21
547 1 8.09521 11.5773 8.13046 22
548 1 6.36783 7.27755 -8.40539 19
549 1 -6.80263 10.0804 -5.97041 16
550 1 -0.869557 13.3892 -3.61323 22
551 1 12.3567 -4.22357 12.2486 12
552 1 13.0447 2.43949 -10.7823 15
553 1 12.4147 -11.4996 -3.94951 11
554 1 11.7748 9.05536 11.6775 16
555 1 -14.3872 -6.29885 1.99812 18
556 1 -6.36198 11.2069 -12.3096 8
557 1 -1.71133 1.03617 11.3188 20
558 1 -13.8679 -0.464259 14.5456 11
559 1 -4.36656 13.3487 -10.0104 13
560 1 4.01813 -13.9556 -2.85774 27
561 1 7.14654 -1.18929 -8.28966 18
562 1 -2.82641 16.0725 -4.64187 14
563 1 -8.59697 -3.97105 -14.7446 12
564 1 4.18284 -15.7243 4.40807 16
565 1 -12.404 -5.48414 -0.237241 20
566 1 2.01815 12.6587 -14.633 12
567 1 -7.91241 1.77847 -1.98123 20
568 1 -0.947465 8.82271 15.1467 15
569 1 -11.3784 -5.60969 8.07084 20
570 1 5.23939 7.69154 -2.28847 18
571 1 5.94497 -10.701 -9.14927 18
572 1 2.40075 -5.90191 10.4368 18
573 1 6.48092 1.73236 -4.38863 18
574 1 -10.1158 5.89731 1.89245 18
575 1 5.71077 4.8634 18.6875 11
576 1 5.73059 16.5246 -5.13834 10
577 1 11.6075 -5.52203 -3.80917 19
578 1 4.08299 8.24939 11.7201 21
579 1 0.934961 4.12343 -18.7121 13
580 1 -4.71472 -15.102 10.4999 12
581 1 -1.6486 1.98469 -8.99994 20
582 1 7.28641 -1.21275 -16.0052 18
583 1 2.94222 14.5544 6.38648 18
584 1 9.50495 4.45651 -11.0973 16
585 1 -1.42121 -1.80584 -13.3721 19
586 1 -3.4203 -10.7151 -3.45127 19
587 1 -10.5811 -3.39881 -11.9214 17
588 1 11.5338 4.70162 1.21546 20
589 1 13.6944 5.12139 -3.91546 18
590 1 7.19061 -3.62563 -6.42039 16
591 1 14.1274 6.53925 11.6803 15
592 1 5.13099 -10.6878 -3.99335 19
593 1 4.39277 4.94397 -18.0776 11
594 1 6.6001 11.8605 2.8437 19
595 1 -7.15563 4.84597 2.28021 20
596 1 9.65986 9.15988 13.8367 18
597 1 12.0564 7.68517 -3.08342 19
598 1 16.2792 -2.71899 2.85988 11
599 1 12.1332 4.71516 -8.89999 23
600 1 8.94355 1.54357 14.7521 25
601 1 16.3954 4.45773 12.072 11
602 1 2.34555 -3.32361 8.47527 23
603 1 12.7217 12.4943 -3.01204 15
604 1 5.47113 4.12503 0.421878 21
605 1 2.54337 0.726824 15.8209 17
606 1 15.845 -2.08493 -6.63126 9
607 1 9.48763 3.2407 10.3979 21
608 1 -7.37657 -0.0381518 -8.92873 20
609 1 15.035 3.17626 0.744787 13
610 1 9.96866 -3.66282 3.32504 15
611 1 -0.771884 -6.94655 0.0707064 20
612 1 -11.8926 6.78566 10.6733 12
613 1 9.14586 11.4031 11.0095 18
614 1 13.1686 0.900169 14.0675 17
615 1 3.00008 8.92738 8.56344 22
616 1 2.27618 13.6562 11.2289 15
617 1 4.79037 2.19099 7.19478 17
618 1 -1.53139 -18.4232 2.56053 13
619 1 -3.94124 8.7259 -4.1085 19
620 1 11.6775 10.5164 -7.94245 13
621 1 11.6131 -3.70958 -12.9145 13
622 1 1.44851 15.7049 -1.10414 17
623 1 0.983977 -11.9873 -6.78581 18
624 1 10.5669 -7.09269 -12.9722 15
625 1 -14.0044 4.03495 6.85983 14
626 1 -6.19309 5.85557 -11.8682 19
627 1 -4.54372 -18.0401 4.80392 12
628 1 -5.32173 0.0891601 -11.822 21
629 1 -13.1387 1.70701 -4.64887 17
630 1 10.3891 -7.05832 3.61049 13
631 1 13.5007 11.9505 3.09933 13
632 1 -0.100968 -9.08764 7.13118 22
633 1 -13.0987 -1.16815 -9.06332 17
634 1 3.51456 2.03136 -18.8607 12
635 1 3.98431 -4.77589 5.54189 22
636 1 -0.444814 5.15311 15.7939 18
637 1 6.1208 10.2146 -11.7008 16
638 1 14.0249 -2.06687 13.7516 10
639 1 8.77092 5.14945 -7.77801 22
640 1 12.2697 14.1749 2.57151 12
641 1 4.92372 -14.0283 -8.70433 15
642 1 -11.539 -3.45461 15.2813 12
643 1 11.9698 0.875614 5.20192 19
644 1 0.113684 11.0178 13.1444 18
645 1 6.76642 12.7125 -10.1124 13
646 1 -12.8591 9.65412 -5.0448 16
647 1 8.61258 11.1254 5.0009 22
648 1 -8.89319 -15.3061 0.479988 15
649 1 14.0432 -3.42627 1.19287 18
650 1 8.07482 16.4634 3.79711 12
651 1 -2.93994 3.48299 10.3365 21
652 1 -10.5214 -6.30314 2.29764 23
653 1 -10.2134 -2.63244 -8.51368 21
654 1 8.44942 -0.00317328 11.8063 22
655 1 -3.10804 -9.52208 11.2622 14
656 1 8.66344 5.31838 13.5235 23
657 1 -4.83097 12.5291 0.673515 23
658 1 8.36022 5.20329 2.11693 23
659 1 7.0844 -6.07143 -0.624065 14
660 1 8.61889 5.18508 5.47603 21
661 1 3.45255 0.311266 -16.3296 18
662 1 -7.46833 -0.697057 9.37614 19
663 1 7.8164 -1.88809 -12.0608 18
664 1 -0.912895 -6.54968 -6.09782 19
665 1 11.118 -10.4115 -7.32793 13
666 1 7.30839 4.0165 8.3333 21
667 1 5.56188 5.70659 6.50579 22
668 1 -10.3277 -0.954727 15.6479 15
669 1 9.89583 8.77828 9.22814 21
670 1 0.117943 -2.71869 14.027 14
671 1 -1.01376 5.82008 12.4365 18
672 1 0.0814698 -4.93195 -13.8353 25
673 1 -5.08877 2.13801 12.6033 17
674 1 -1.49522 4.56856 -6.05675 19
675 1 7.1739 2.79862 12.3663 25
676 1 -11.0615 -17.1799 8.23666 9
677 1 13.3761 8.92882 -0.580951 15
678 1 7.15227 -13.7522 -4.13284 19
679 1 -4.00126 5.61585 -8.01383 20
680 1 8.39406 10.1898 -0.612673 19
681 1 9.67389 13.4289 3.40958 16
682 1 4.96611 -0.949425 -18.209 14
683 1 -1.9509 -1.24385 9.30279 23
684 1 2.35466 13.4002 -3.49478 20
685 1 11.0221 9.95831 1.46608 17
686 1 -5.61183 -9.54963 -1.86262 19
687 1 0.281363 0.528253 -17.1922 14
688 1 -9.72297 12.2865 -0.195134 17
689 1 7.92598 -8.25493 -10.7732 19
690 1 5.33613 5.95657 3.10185 21
691 1 10.5373 7.13365 -9.28277 18
692 1 11.6802 15.0721 -2.44362 8
693 1 -2.75532 5.64497 4.96039 20
694 1 -7.97431 6.73308 -0.0894975 21
695 1 6.25074 6.47509 -5.04109 18
696 1 11.9782 2.15925 16.1858 17
697 1 10.7071 -1.2803 13.9418 20
698 1 -1.89687 -12.74 9.95654 14
699 1 -4.92851 8.37001 -13.535 15
700 1 4.28912 11.5218 9.44057 22
701 1 8.26817 -8.60003 -14.9679 12
702 1 2.25331 1.47401 10.5832 19
703 1 5.51589 13.3399 -4.30488 17
704 1 7.54619 7.48197 4.80588 21
705 1 14.9467 -7.20213 -3.48763 10
706 1 8.00577 7.44246 18.6289 12
707 1 -13.8412 -3.67461 7.04915 20
708 1 2.24247 -16.1747 1.49445 21
709 1 -0.254462 -1.27866 -9.06968 19
710 1 -9.4219 14.5744 3.35049 11
711 1 0.279533 6.67984 7.42802 20
712 1 7.41081 -4.87813 -3.14433 17
713 1 4.78635 9.50406 3.8166 21
714 1 -13.6671 -1.94419 4.2109 18
715 1 -0.663711 3.91376 18.8741 11
716 1 -4.53222 6.31969 -15.5635 15
717 1 -7.92698 6.85793 -14.1827 12
718 1 4.28208 -14.0104 1.16944 21
719 1 8.87878 8.50272 -6.6313 21
720 1 1.47616 -4.96751 3.80334 20
721 1 -1.74485 7.25836 2.09437 23
722 1 -13.4143 5.01051 12.5468 12
723 1 5.59906 -3.29289 -13.6657 22
724 1 1.16479 -12.7939 8.81898 13
725 1 2.78439 15.1322 1.9179 18
726 1 -3.6253 1.80804 15.7517 15
727 1 -7.81759 -5.99383 -12.5562 17
728 1 -3.07212 -10.2595 -12.3388 15
729 1 -5.037 -12.7586 -8.25716 15
730 1 -0.976384 16.9467 -7.04195 12
731 1 6.24271 -4.72767 -9.26712 18
732 1 -2.91254 11.2724 7.04304 21
733 1 8.89342 -10.6098 -9.36562 15
734 1 7.41747 -17.5239 -0.34667 10
735 1 4.39016 -6.11221 8.14382 19
736 1 15.2063 1.93188 -8.08102 13
737 1 2.66457 -14.7649 -6.04185 15
738 1 -13.2039 -0.953047 9.54632 20
739 1 0.957106 1.1467 -7.67742 18
740 1 -3.62034 -16.3809 2.6164 19
741 1 -6.48482 -11.3466 -4.36708 18
742 1 -10.7358 1.08577 10.4241 20
743 1 -7.23056 -17.2468 2.59413 14
744 1 14.4015 5.29242 -6.82346 16
745 1 -4.15913 16.7666 4.88361 10
746 1 -4.12151 3.82203 7.32826 16
747 1 -15.0897 7.65195 3.2727 8
748 1 11.9461 -0.80635 2.64107 20
749 1 -13.5448 -1.92451 -11.7527 11
750 1 -0.246109 9.86994 -5.00805 23
751 1 9.25326 2.53304 -8.44456 18
752 1 6.7354 10.8083 12.8751 19
753 1 10.3817 5.28047 -2.62641 17
754 1 -14.2721 1.71974 -7.49205 14
755 1 -10.2804 -5.73239 -7.26373 18
756 1 -0.593299 7.00163 18.1984 13
757 1 4.16803 8.22568 -11.4684 13
758 1 11.577 12.1635 5.86909 20
759 1 -2.11287 -1.72841 12.2927 20
760 1 -2.20901 -15.6445 -2.46107 16
761 1 -8.13422 -18.2844 7.91332 9
762 1 -3.86633 -6.6238 9.26364 19
763 1 14.0519 9.0766 9.42638 14
764 1 5.10702 -7.23248 -10.2442 21
765 1 -8.39791 9.63354 -2.01362 15
766 1 8.28606 9.02035 2.50932 20
767 1 -11.014 -2.58702 6.76854 21
768 1 8.01358 7.3415 -11.4499 17
769 1 -1.77806 -15.0388 -5.33762 13
770 1 1.58016 -19.5964 2.2235 13
771 1 1.20612 -15.0771 -0.748968 23
772 1 6.61763 4.02222 -9.84364 18
773 1 6.91565 18.2842 0.783901 12
774 1 -3.06807 0.752196 -16.8307 15
775 1 0.408768 0.385547 13.5509 17
776 1 -0.0726557 5.8798 -15.8431 18
777 1 -11.7272 -1.57133 -14.2543 12
778 1 -10.8181 -4.75711 -2.40416 18
779 1 2.2168 17.1893 -5.67886 12
780 1 9.15455 -0.866311 1.17225 20
781 1 -2.36188 -5.52656 -15.8221 13
782 1 -6.73005 -6.49961 -0.0587674 19
783 1 11.6449 7.12684 -6.52097 20
784 1 11.5276 -5.49471 1.07709 16
785 1 -7.02676 6.45194 13.7696 16
786 1 5.2056 -9.84559 3.73752 18
787 1 14.0128 -6.95422 0.1136 9
788 1 14.4755 -2.74473 10.3369 13
789 1 0.67376 10.3154 7.15433 19
790 1 -12.5499 2.41557 15.3744 12
791 1 -7.15885 3.93068 13.0202 17
792 1 -3.71761 -14.2331 8.095 18
793 1 7.21691 1.78006 0.929256 21
794 1 6.52821 7.78162 13.384 20
795 1 -13.8087 0.0818254 0.292734 15
796 1 8.90839 -7.31584 -2.24326 18
797 1 -11.205 12.14 -5.90575 11
798 1 2.513 9.58155 1.47066 22
799 1 1.3989 -16.5567 4.91832 15
800 1 5.82751 0.281185 14.6557 22
801 1 0.0241085 12.4433 5.61201 15
802 1 2.30218 -10.9234 5.7324 21
803 1 -6.61141 -4.07875 -1.83339 19
804 1 3.37973 2.23935 13.1875 21
805 1 -15.1047 -7.33774 -2.74949 8
806 1 1.78949 10.4465 15.8419 14
807 1 3.83183 12.4719 2.09724 19
808 1 -11.8257 -11.3314 4.61706 16
809 1 -5.00366 -16.5487 7.41378 14
810 1 7.29888 -4.4883 6.97515 17
811 1 12.6623 -3.7429 7.77364 12
812 1 7.13209 7.40778 8.08551 20
813 1 -1.55815 7.84414 -3.33603 20
814 1 2.30066 -9.0492 -10.4842 17
815 1 -3.20899 0.877988 -13.8632 20
816 1 -5.49615 -1.5405 13.3825 19
817 1 -1.46672 15.0926 4.44476 17
818 1 14.9297 0.33369 3.85526 16
819 1 2.67386 8.88376 -6.2631 19
820 1 -4.36946 7.84066 15.5081 13
821 1 8.1419 6.26779 10.8469 20
822 1 8.20218 -4.86202 -11.8274 19
823 1 -6.89355 -12.2576 0.311689 21
824 1 -5.47223 -0.30377 -6.21876 21
825 1 14.0197 2.14315 6.67997 19
826 1 5.27617 -1.78953 -10.1875 17
827 1 1.92568 7.45816 16.3356 17
828 1 8.5377 -14.2123 -8.9417 12
829 1 6.34194 4.66591 -15.6807 14
830 1 -0.374352 -6.77156 -2.93706 19
831 1 12.3503 5.33637 -11.8164 10
832 1 16.3147 -3.30326 -0.652142 8
833 1 1.12967 -5.4488 12.5435 10
834 1 -0.605485 -8.87689 -11.0912 20
835 1 7.39874 12.8413 -0.976375 18
836 1 -2.62466 -4.48301 4.14324 19
837 1 -12.4742 5.17611 4.29899 19
838 1 11.3365 4.11069 -6.15469 20
839 1 16.3705 5.81261 3.11006 10
840 1 3.35345 -5.63676 -14.7913 23
841 1 -7.91164 12.8722 5.70771 18
842 1 15.0583 7.68978 6.72045 16
843 1 10.9038 12.7812 -5.07631 14
844 1 5.12706 2.41593 -14.3564 20
845 1 9.81724 -3.72264 -0.269712 15
846 1 -11.4888 1.55499 -1.54587 20
847 1 10.473 6.89018 2.93283 20
848 1 -12.1647 -8.61212 0.54472 14
849 1 -9.31088 9.43871 -10.7791 14
850 1 4.61831 3.2925 10.1027 19
851 1 -10.67 -0.505761 -6.30917 20
852 1 -10.3996 3.51327 6.00858 18
853 1 -3.79864 4.41424 -10.4115 18
854 1 10.2973 -7.744 -8.04243 20
855 1 -9.87719 -8.78738 -6.67629 14
856 1 12.5955 -7.93798 -2.21206 15
857 1 -14.6006 5.3846 0.893981 13
858 1 -6.10561 -6.54106 -3.2623 22
859 1 12.6158 6.40065 9.22893 23
860 1 -5.64512 -8.89751 5.47211 18
861 1 10.9206 2.00296 18.7041 9
862 1 13.8068 -1.0734 7.48494 14
863 1 8.93267 -0.579028 4.14245 17
864 1 -12.2196 3.17681 1.18151 21
865 1 1.51324 10.2502 10.7791 22
866 1 3.47516 6.66761 -9.25169 19
867 1 0.872633 -7.75901 -14.9694 18
868 1 -4.77027 13.526 6.40428 20
869 1 -11.681 -11.6921 7.42802 18
870 1 8.37971 11.2272 -4.00375 20
871 1 1.69249 8.36622 13.3007 23
872 1 14.7708 -3.87978 -4.02859 16