ITEM: TIMESTEP
33000
ITEM: NUMBER OF ATOMS
2000
ITEM: BOX BOUNDS pp pp pp
-30.0 30.0
-30.0 30.0
-30.0 30.0
ITEM: ATOMS id type x y z Coordination
1 1 -12.5889 4.18753 -13.1884 10
2 1 -7.92225 -15.4903 -2.95504 10
3 1 8.50083 11.9325 17.587 20
4 1 2.79259 -7.44673 10.3143 17
5 1 -13.0842 4.45784 1.51289 18
6 1 9.19697 -4.91591 -4.5953 11
7 1 -15.8784 9.23855 -1.16568 12
8 1 -3.88771 -2.82966 20.6913 7
9 1 -10.9674 4.33039 -5.44918 15
10 1 -15.9218 -8.91631 4.24735 8
11 1 6.02549 9.016 -5.85506 17
12 1 -9.72187 -8.84788 4.81421 19
13 1 -15.3725 -7.45297 10.3664 20
14 1 -4.45716 3.47435 19.9472 19
15 1 -0.574326 6.9556 13.5951 21
16 1 -9.5148 9.03064 -10.8025 15
17 1 -4.03021 1.38125 18.0323 20
18 1 -10.9453 1.30785 -13.4396 10
19 1 -18.8274 -0.330112 13.5673 11
20 1 4.71497 8.66813 8.37065 21
21 1 -1.70191 13.7531 -3.8979 19
22 1 -3.39044 5.46569 -14.4453 11
23 1 11.1094 6.66233 16.0393 15
24 1 -12.9138 7.1155 -6.64681 20
25 1 -11.1897 10.6033 15.5721 18
26 1 1.55503 -10.1101 9.9747 16
27 1 1.43891 -9.92425 -4.16073 17
28 1 5.68656 -9.18334 4.6259 13
29 1 -10.8343 -9.83491 2.30282 19
30 1 -14.5431 -3.94354 15.1512 15
31 1 -6.56966 -2.96618 -8.52784 18
32 1 10.3383 -4.88034 0.0503499 14
33 1 -2.97491 4.10483 -12.0761 19
34 1 -2.81965 5.2612 18.5205 15
35 1 -6.29571 -10.5782 11.657 14
36 1 -0.562011 -3.28548 15.4549 17
37 1 -16.6395 0.158897 3.28128 18
38 1 -19.8276 1.52611 11.3617 13
39 1 -12.5564 2.05681 3.66472 19
40 1 -7.17933 15.1872 2.50937 18
41 1 -1.04507 -9.75517 -6.26305 14
42 1 3.46268 -0.411802 -12.7934 13
43 1 0.930705 -7.11001 -9.88805 14
44 1 -1.8442 -1.06187 18.3284 15
45 1 -14.5054 6.09407 2.89374 21
46 1 1.98889 10.0466 -13.0648 8
47 1 -5.37606 11.96 8.36439 17
48 1 -13.8503 14.31 0.28579 11
49 1 -2.50717 18.5673 4.36617 24
50 1 -1.27792 -8.61839 5.32834 21
51 1 1.02526 -3.26907 -3.69645 19
52 1 1.05199 -6.42766 -13.3846 8
53 1 -10.7861 8.48313 20.5786 11
54 1 -14.0106 -4.85451 -5.5464 17
55 1 -6.20118 12.9201 -0.245454 21
56 1 -12.8037 -6.65008 8.66084 23
57 1 -7.95825 14.507 16.6727 15
58 1 -10.903 8.57416 -8.42258 16
59 1 -11.5693 11.89 12.7514 11
60 1 -7.01391 -12.174 9.59796 12
61 1 1.76857 6.48972 11.774 20
62 1 5.91359 -8.16848 1.95753 12
63 1 5.91264 11.7894 16.5187 18
64 1 -15.9814 7.59978 -5.00725 14
65 1 -15.6502 10.9364 -9.56796 10
66 1 2.92562 11.7806 14.9246 18
67 1 9.52279 -1.16833 -5.22586 15
68 1 6.27858 -7.01121 10.7886 14
69 1 -19.1634 -1.81141 11.4377 12
70 1 4.33338 14.5745 5.97956 17
71 1 1.02155 -0.0488658 20.1705 15
72 1 -11.7685 -2.54012 10.4174 20
73 1 -16.0079 3.62385 0.66638 21
74 1 7.60805 2.38534 13.679 19
75 1 -2.17603 15.8125 16.159 14
76 1 1.81781 0.629405 11.2995 20
77 1 -4.28909 -3.58424 -3.00579 18
78 1 -15.4062 13.6664 8.17855 11
79 1 -9.69303 11.5383 0.0156801 20
80 1 -5.74987 9.75118 -4.74407 19
81 1 5.06127 1.95373 -0.861537 19
82 1 -0.307448 18.5326 -2.61584 12
83 1 3.79242 -1.87935 7.53999 19
84 1 3.62346 -8.45731 12.4648 14
85 1 -9.27451 17.8129 -0.73875 15
86 1 -5.54404 17.656 16.0906 8
87 1 -9.42986 1.01771 17.983 17
88 1 -7.04699 10.0567 12.4875 12
89 1 -6.987 1.14242 20.2271 11
90 1 10.7651 6.26754 -3.84711 16
91 1 -16.8093 6.11278 0.522544 14
92 1 -13.3873 -13.2445 7.20813 10
93 1 9.47732 -1.91488 -2.54895 19
94 1 2.87944 -5.08559 -9.35867 15
95 1 -10.4904 1.9254 -8.82002 17
96 1 -5.08407 12.7812 1.90763 20
97 1 -6.77269 15.5024 -2.62807 20
98 1 2.14794 7.2534 21.9024 12
99 1 -4.53399 15.9087 -3.62167 17
100 1 -13.7238 9.35348 4.31776 21
101 1 -1.51729 12.9469 7.30387 17
102 1 -6.37273 -3.35019 13.4514 20
103 1 8.91786 0.971438 15.8394 14
104 1 4.03241 -2.14664 -5.16395 18
105 1 1.25846 -2.54423 -7.38473 17
106 1 -6.37182 6.98292 13.608 17
107 1 2.48449 1.86298 18.3679 18
108 1 -15.3259 -7.02074 -0.155301 16
109 1 -11.6677 -5.65175 -3.83047 20
110 1 5.34779 -9.80897 9.87647 12
111 1 -7.56556 12.0151 2.87026 22
112 1 3.47996 9.20886 -10.045 18
113 1 1.8776 19.8217 6.93327 15
114 1 -11.7884 -8.69748 10.6356 18
115 1 -13.2925 -7.98471 12.6579 14
116 1 -0.0704473 -4.55154 -8.13514 19
117 1 4.10658 11.344 -6.97585 20
118 1 8.1718 -4.1223 3.44214 17
119 1 -6.94895 -5.33459 11.0178 16
120 1 -11.9716 -3.95605 3.13763 18
121 1 11.5673 11.0486 12.9686 21
122 1 5.86114 -5.28862 -9.65487 13
123 1 -18.2741 -3.32119 3.46803 16
124 1 10.0875 17.1123 6.98887 11
125 1 11.0691 11.9724 5.92417 13
126 1 -4.29777 5.65894 22.6251 11
127 1 1.79478 8.53893 13.6267 18
128 1 -5.96126 17.7314 -0.423251 18
129 1 -4.87306 -6.57888 -0.875659 19
130 1 6.53653 -7.64959 -3.35754 15
131 1 -3.39582 11.8255 -10.604 14
132 1 5.33084 -2.5558 14.1898 17
133 1 -2.28228 0.365583 -10.5503 18
134 1 -3.25543 10.9589 -2.86121 22
135 1 8.51077 6.71907 -1.40319 19
136 1 -12.603 12.9311 -9.8153 9
137 1 -10.7241 16.1829 1.97215 17
138 1 2.17201 7.91808 -4.7037 15
139 1 0.713099 -6.02721 5.88743 19
140 1 -8.01039 13.0827 -3.05832 19
141 1 -6.54875 18.5788 12.3783 10
142 1 8.39855 14.5831 -1.98773 17
143 1 -0.321218 16.8532 3.29336 22
144 1 -11.0988 17.7512 4.82776 13
145 1 5.75785 12.1928 4.34052 18
146 1 -2.6255 13.6376 -0.851892 19
147 1 -2.7547 16.5994 -6.17115 15
148 1 -0.766682 8.35469 -10.1794 16
149 1 -17.4879 -4.56177 5.86173 17
150 1 -14.0251 10.3276 2.14807 17
151 1 -12.7013 -0.138358 -6.33066 15
152 1 -4.8149 -11.0437 -9.25845 8
153 1 4.71779 13.8775 12.744 18
154 1 -4.86676 19.9956 9.31898 13
155 1 -15.07 2.84498 -2.18939 21
156 1 -11.3658 7.4701 5.56145 17
157 1 13.0339 2.53521 -1.84647 11
158 1 -9.7555 3.93428 -11.4642 19
159 1 1.12109 3.51848 20.2868 18
160 1 0.321152 19.4874 9.91606 14
161 1 0.181128 7.56764 16.0147 17
162 1 -8.35786 -7.40387 -7.98949 16
163 1 -4.72756 14.8726 17.1226 17
164 1 -4.65693 13.2989 -4.855 18
165 1 -3.62261 -3.84253 14.2143 19
166 1 -17.0918 1.46644 6.31316 20
167 1 -5.86533 -10.7591 -5.79173 16
168 1 -8.05368 19.1082 -3.53935 11
169 1 -6.70467 -3.71243 8.74722 21
170 1 3.41819 -10.41 0.80266 15
171 1 -4.88823 11.0114 -13.1077 10
172 1 -17.6196 9.5489 10.9461 9
173 1 7.50403 16.9595 1.43173 11
174 1 -9.5206 9.856 22.6019 13
175 1 -3.48417 -8.42765 13.2997 13
176 1 -13.2473 8.65686 -3.465 17
177 1 -6.28629 22.2753 7.1027 8
178 1 2.61159 5.92836 15.0151 18
179 1 12.8864 9.01713 18.8416 9
180 1 -4.94977 16.6678 7.52676 22
181 1 6.64532 -3.71456 -6.41406 15
182 1 -7.70235 16.5868 14.884 11
183 1 -10.1669 5.46653 -8.78191 18
184 1 10.1151 0.0217362 6.13264 17
185 1 -10.0954 -0.273201 12.4867 20
186 1 -18.3904 -7.70415e-05 8.6091 17
187 1 -14.7566 -2.4242 10.7171 19
188 1 5.24807 9.5671 17.873 17
189 1 -19.6087 4.69441 5.68318 10
190 1 -4.25475 -13.6831 4.47726 17
191 1 1.87803 -3.53552 0.577527 18
192 1 -7.33166 13.9637 8.0522 20
193 1 3.33889 13.27 17.5629 18
194 1 -12.2969 2.35485 -3.83737 19
195 1 -10.1359 11.9717 -7.66387 19
196 1 -16.8119 0.400697 -0.602704 17
197 1 -12.0997 2.50667 13.0916 21
198 1 -5.48145 -6.36031 8.46135 19
199 1 -2.15715 -10.604 10.9317 14
200 1 -13.0948 15.003 3.78731 18
201 1 9.7055 7.79329 10.1614 20
202 1 2.10955 7.73607 -1.76001 20
203 1 -9.8206 -5.00232 -9.32711 13
204 1 0.200064 2.31474 15.5313 20
205 1 3.17157 -12.7957 9.46487 8
206 1 -6.92048 4.59437 -7.25411 19
207 1 -1.05636 -10.4319 -2.24178 19
208 1 5.73187 7.04499 -10.255 17
209 1 0.372918 4.2802 -13.7837 13
210 1 -12.4369 -2.51465 -2.40294 19
211 1 -3.26408 19.2714 -4.46772 12
212 1 -13.6465 -7.20422 15.5929 11
213 1 6.49857 15.2052 3.67632 19
214 1 -7.90998 6.57395 22.3526 13
215 1 -7.37075 14.8167 -5.64404 17
216 1 1.37685 4.03261 13.2788 18
217 1 -11.2098 -3.09112 -5.46319 22
218 1 -8.07989 20.817 -0.31462 10
219 1 -0.63891 3.01841 -11.1083 19
220 1 -14.0039 -5.29889 11.8117 20
221 1 -12.1187 7.67558 13.6305 18
222 1 -8.30786 7.66895 19.7052 18
223 1 -2.20698 -7.82537 -2.82308 20
224 1 -8.14343 -9.10322 1.96954 22
225 1 7.92101 -2.10967 0.226565 17
226 1 13.5167 12.873 17.3826 9
227 1 2.82073 13.5115 -4.87531 17
228 1 -1.86859 15.4445 1.32365 19
229 1 -18.5122 2.27318 2.48614 14
230 1 -10.4719 13.9001 7.3511 19
231 1 5.50867 5.6762 13.2294 21
232 1 6.18395 -7.86263 7.45751 15
233 1 7.76597 1.87488 4.27587 18
234 1 1.90072 9.13347 9.94123 19
235 1 -12.1636 7.98563 9.54988 18
236 1 -14.5568 -7.51053 -3.43992 11
237 1 2.76392 3.23205 -12.2891 21
238 1 -0.555835 1.57373 12.7222 21
239 1 7.10966 12.2049 -7.24237 12
240 1 0.438893 -5.56883 -1.5696 19
241 1 -6.08936 0.755658 -7.53655 20
242 1 -4.1789 -11.8171 9.06645 15
243 1 2.0034 2.23183 -2.26661 20
244 1 -11.8983 1.27029 6.77378 20
245 1 3.84974 -11.1164 3.95673 14
246 1 -12.12 -3.08093 -8.01013 13
247 1 2.75297 17.9961 11.0018 17
248 1 0.387393 -2.05358 -10.5612 14
249 1 -1.94542 8.33584 22.2174 10
250 1 11.0321 7.11992 7.05203 15
251 1 10.666 -2.86679 -6.96052 9
252 1 -14.7527 0.650861 -7.54657 14
253 1 -13.1327 1.42899 -11.2145 11
254 1 -9.2054 -10.3555 8.67155 21
255 1 5.1571 0.42592 12.8207 20
256 1 1.22316 -2.28162 12.8199 17
257 1 -6.95069 -7.73659 -5.46516 24
258 1 -2.91628 10.8917 -6.08386 19
259 1 4.38261 12.4688 1.39409 17
260 1 -12.4505 -2.45541 6.42713 21
261 1 -3.28385 13.8363 9.18968 19
262 1 -7.57572 -0.961389 18.0293 15
263 1 -14.7182 -4.50944 -2.48182 22
264 1 -9.52568 -7.77493 -4.33403 20
265 1 -6.00863 2.08089 -11.344 17
266 1 -11.9511 -5.00698 -1.10323 16
267 1 -8.17953 -6.76456 7.08062 21
268 1 7.07652 0.373098 -9.96261 13
269 1 6.80901 5.9446 -7.15344 21
270 1 7.9969 7.34583 7.49174 22
271 1 -12.2707 -3.9172 16.7295 14
272 1 -7.67816 -6.22761 4.02458 22
273 1 4.38638 5.11442 20.9187 15
274 1 -10.9259 -13.8636 4.34083 14
275 1 -4.55708 -8.3437 3.09311 21
276 1 -3.35065 21.8637 5.11328 10
277 1 2.15991 1.83501 -14.6619 12
278 1 -10.8092 -1.35477 -10.5555 12
279 1 -10.9448 -2.14061 18.5553 8
280 1 -0.544081 9.97605 19.411 14
281 1 -1.98611 -6.23655 3.64714 19
282 1 -9.19041 -13.0257 -8.68381 8
283 1 -10.7026 13.1658 -3.96366 18
284 1 4.64116 11.4476 10.1121 17
285 1 -5.93441 8.03525 -7.52804 19
286 1 1.39935 13.0429 -7.08032 16
287 1 3.10883 -6.79856 -2.90783 20
288 1 -9.41051 19.3225 2.38636 9
289 1 -0.165621 15.7758 8.88809 19
290 1 6.7795 3.23581 9.92293 18
291 1 -13.6443 5.52526 8.75207 20
292 1 -5.32008 -5.67342 19.2084 9
293 1 -10.3776 14.185 10.6373 14
294 1 -2.91669 -2.75361 -8.55197 18
295 1 10.1684 14.9643 0.396605 12
296 1 0.650574 -5.85752 1.85479 18
297 1 -6.0572 0.970843 16.3016 19
298 1 -18.3279 -3.49976 8.73306 14
299 1 1.73391 -13.0195 2.17682 9
300 1 -8.34273 12.6255 19.0098 17
301 1 -13.5437 9.97798 17.6654 9
302 1 -17.205 -3.36997 13.7407 12
303 1 -15.7836 -1.85796 7.26811 20
304 1 14.1327 0.29775 -0.583543 8
305 1 -14.995 -7.22559 6.68115 20
306 1 6.73012 3.5218 -4.3353 18
307 1 9.45588 -6.71731 -2.45003 10
308 1 -3.79456 17.9668 2.05051 20
309 1 -5.91671 20.7404 -2.37312 12
310 1 9.01851 12.5696 14.4644 18
311 1 -13.1619 -0.340078 8.80543 18
312 1 4.37187 -3.54625 -1.43768 19
313 1 -5.47997 15.0974 10.9527 20
314 1 -9.0975 7.67567 11.8025 18
315 1 0.235455 -7.82712 8.50383 17
316 1 11.0676 1.31156 9.42664 11
317 1 -3.33206 6.59442 15.6419 19
318 1 -10.2216 -0.108655 -1.05745 21
319 1 -1.58667 4.94478 21.736 12
320 1 -7.48323 9.6294 8.83 18
321 1 10.2994 9.78447 20.825 11
322 1 -6.82057 18.017 -7.94173 8
323 1 -2.08878 -3.32798 -12.3491 17
324 1 4.33395 -8.11721 -8.82745 9
325 1 -10.2926 5.10252 16.5407 17
326 1 -17.6765 6.72764 8.86067 14
327 1 -4.80363 -4.15491 -5.69192 20
328 1 -10.6372 10.5836 3.39708 21
329 1 3.94041 -1.91882 10.7986 19
330 1 -12.9586 -11.2493 3.88719 15
331 1 4.35809 -6.06313 14.4379 12
332 1 -9.84625 -3.04207 14.4664 19
333 1 -16.5197 8.58024 2.93585 14
334 1 -4.72571 -0.597025 12.887 24
335 1 0.0503446 -12.7464 -4.27524 9
336 1 -7.57707 -2.40241 -4.37377 20
337 1 3.75867 5.45973 -8.52198 18
338 1 1.03264 15.6093 6.10796 20
339 1 -11.658 3.31472 -0.950962 17
340 1 -1.81527 -8.44273 -9.36732 15
341 1 9.67948 4.08718 -2.63449 18
342 1 -6.81415 -14.463 0.174929 17
343 1 -10.9566 -12.4016 1.39803 17
344 1 -10.7393 -5.03524 6.0228 22
345 1 7.78872 7.03357 15.3065 20
346 1 6.52826 4.11543 3.29358 19
347 1 -12.9593 3.64206 -7.20388 18
348 1 2.27364 18.6064 4.36828 15
349 1 -18.9015 -2.34124 0.0404499 10
350 1 -12.593 12.6559 5.46196 19
351 1 -7.85229 17.5321 6.96262 18
352 1 -3.87121 9.71892 13.8462 17
353 1 7.50036 8.70403 12.5003 18
354 1 10.1358 1.3913 -3.08426 18
355 1 4.75855 -3.8197 17.1422 8
356 1 7.33506 9.01745 -3.24362 19
357 1 -5.48817 -11.9549 2.33555 18
358 1 -1.0573 -2.66545 -1.16412 24
359 1 -4.31943 12.7426 5.81138 22
360 1 -18.0241 5.33188 2.94892 15
361 1 3.04917 -7.47026 0.259189 18
362 1 7.73981 0.94336 11.019 19
363 1 -12.8741 0.179602 -1.34954 19
364 1 -9.27695 -2.65547 8.08456 22
365 1 -11.941 2.29051 16.4817 16
366 1 -7.2978 14.3545 5.54627 18
367 1 -12.7284 -7.17998 1.50018 19
368 1 8.2001 12.9333 20.7492 11
369 1 -14.1074 5.32943 -4.56343 21
370 1 -9.61586 16.4902 -3.79088 14
371 1 -0.00698779 10.7032 14.2852 17
372 1 -14.1433 -4.57043 5.55754 19
373 1 -2.41359 -5.09237 -0.854251 21
374 1 -16.1893 0.966429 11.5587 19
375 1 -12.4567 12.7818 -6.12132 13
376 1 7.73401 -4.07774 6.58347 17
377 1 -2.02703 -8.2127 1.15127 20
378 1 8.97435 12.1393 8.8578 20
379 1 6.08573 14.5794 -6.43297 14
380 1 -14.8448 7.53881 -11.0021 9
381 1 -6.13448 17.3548 -5.38769 15
382 1 -9.72149 6.96211 -5.88682 19
383 1 -4.00958 -8.73469 6.73133 21
384 1 10.0876 8.898 14.1598 19
385 1 -3.17027 8.97325 -14.9621 8
386 1 -6.17409 2.14384 13.2076 22
387 1 -18.2058 2.83765 -1.29236 10
388 1 -13.1607 5.72649 11.8487 23
389 1 -8.4557 -8.05272 10.9999 20
390 1 4.6789 -0.584146 -2.72418 20
391 1 -18.1917 7.89072 5.24806 11
392 1 -18.9996 3.36822 8.82951 17
393 1 -15.9113 13.9368 5.63053 12
394 1 -3.96493 -3.42571 10.6562 24
395 1 -7.95611 2.94904 -13.7725 12
396 1 8.00601 -6.01367 1.17521 16
397 1 -7.22161 -10.1787 -8.47264 14
398 1 -7.61371 -0.239786 14.5002 21
399 1 -13.1513 5.31706 -10.1143 17
400 1 -2.28192 -5.94441 7.26885 19
401 1 -2.77225 17.1359 -1.57551 22
402 1 -10.5245 18.3851 7.89337 9
403 1 -6.91935 3.46421 18.3521 19
404 1 -11.5416 -5.78996 -7.1707 13
405 1 -9.71581 -5.2033 9.54 20
406 1 6.92218 -0.962749 17.7786 10
407 1 -2.08782 5.57858 -4.71542 19
408 1 12.7354 -1.62986 4.94153 8
409 1 9.02932 11.2923 -2.56091 22
410 1 -7.62033 4.71597 14.8575 20
411 1 -1.54839 18.4206 7.79672 18
412 1 9.21603 -1.55824 8.3821 18
413 1 -5.47324 -9.53603 0.218833 19
414 1 -5.04472 14.0022 20.1069 11
415 1 -8.79688 15.9604 12.1793 14
416 1 -10.2599 -7.62428 -0.415324 18
417 1 4.89307 17.9373 5.98281 18
418 1 -0.0911099 12.9245 9.676 16
419 1 -10.2928 4.96733 13.1002 21
420 1 -9.82528 -2.82484 0.339667 16
421 1 -13.4338 4.72818 14.8455 18
422 1 -6.89999 -5.3666 -3.17404 20
423 1 -7.29826 12.3107 10.9522 17
424 1 -7.40817 -8.63507 -2.11727 21
425 1 -2.39862 -6.09118 -7.15881 19
426 1 -14.4682 -9.56005 8.46744 10
427 1 3.47554 3.22504 11.648 17
428 1 -6.65484 -3.11882 16.1677 15
429 1 -12.787 10.2423 -10.8839 14
430 1 4.76462 9.24306 5.14977 21
431 1 -9.52272 -15.0888 1.1295 12
432 1 -4.70815 21.748 1.03267 10
433 1 -3.57617 8.09095 -4.27547 20
434 1 -6.07656 12.1482 16.9355 19
435 1 -16.7502 -4.1369 0.8072 19
436 1 -3.63344 20.2661 -1.08212 16
437 1 7.83402 18.0579 4.72301 11
438 1 -7.9716 -11.8715 0.936976 21
439 1 5.68577 6.61777 23.1083 9
440 1 -3.59681 -11.7837 -1.48135 20
441 1 -4.87204 7.48376 -11.9398 17
442 1 1.72188 -13.245 6.27055 10
443 1 -15.0605 8.07053 7.46066 17
444 1 1.75732 9.76675 17.7896 20
445 1 5.97464 14.5387 0.241833 18
446 1 -1.0064 13.6543 3.80666 20
447 1 -8.29491 9.02325 -7.50329 20
448 1 -0.925341 8.34856 -3.39936 21
449 1 -1.12945 -3.678 9.00264 22
450 1 -15.8147 -6.19489 3.12436 18
451 1 -0.898751 16.9528 11.23 19
452 1 -7.43301 3.03028 -9.42963 18
453 1 8.71865 5.16317 1.44562 17
454 1 -0.176646 15.4741 -1.23181 20
455 1 5.28372 -3.64597 1.961 18
456 1 11.4008 8.47685 -1.59871 19
457 1 -1.64025 5.83146 -9.70785 19
458 1 -4.81387 -5.80806 5.31515 23
459 1 -3.79396 -8.01892 10.5029 16
460 1 -1.74284 -6.49649 13.9119 16
461 1 -16.5529 5.03041 -10.7745 10
462 1 -12.477 -7.14765 5.3038 19
463 1 -5.37256 -13.426 -4.5006 14
464 1 9.86008 17.0929 10.9724 11
465 1 -3.15733 9.06005 -9.14926 20
466 1 0.149727 1.70929 22.1646 7
467 1 -16.0457 9.16685 13.5664 12
468 1 -4.23444 -11.2191 6.15278 18
469 1 -15.6841 3.18543 3.61092 22
470 1 12.4821 -0.865763 -3.75643 13
471 1 11.3356 6.00932 -0.155473 19
472 1 -6.73876 10.1438 -1.9692 19
473 1 -1.54773 -4.6359 -4.06747 19
474 1 -1.85488 8.1926 -6.91975 17
475 1 7.39287 0.905319 -4.47699 17
476 1 -9.66605 4.27166 20.0978 10
477 1 0.998886 19.1326 13.4082 12
478 1 -2.70771 0.278512 -7.14026 14
479 1 1.5495 0.67378 -10.6176 16
480 1 -9.43778 -2.51371 11.4073 21
481 1 -3.58563 15.128 3.78212 20
482 1 -16.0569 -0.695627 -10.0276 8
483 1 -19.9406 1.97785 5.79102 12
484 1 -2.67263 -11.868 -4.35094 14
485 1 -10.524 -6.54004 16.9113 13
486 1 0.0876134 11.3477 -5.25993 15
487 1 13.7691 4.54255 12.7342 6
488 1 7.42647 10.1237 3.00155 19
489 1 -12.9273 -8.83 -1.00148 16
490 1 -4.71303 -5.52292 1.78977 21
491 1 -1.4053 -6.75436 -11.9547 13
492 1 -9.11976 13.2426 13.5819 16
493 1 0.41594 1.27725 -7.55748 18
494 1 9.25088 -1.2605 3.37129 18
495 1 0.374493 15.6285 -4.01463 14
496 1 1.69909 -3.53971 7.40767 18
497 1 13.4004 8.86365 0.794707 9
498 1 4.38827 12.029 20.2731 14
499 1 -5.96018 6.57912 17.7545 17
500 1 5.53811 15.2146 15.2382 17
501 1 4.75958 0.273439 19.4038 12
502 1 -1.70088 2.25534 -14.3071 13
503 1 -9.47027 -3.51397 -2.82963 21
504 1 0.22023 -0.414042 16.7423 20
505 1 8.51944 15.3466 14.7667 10
506 1 1.37304 9.44458 -7.53771 17
507 1 -9.76332 13.8874 3.99055 21
508 1 -4.73975 15.4775 0.143496 19
509 1 2.85041 -1.14656 17.8621 15
510 1 6.5778 5.93286 -12.5514 9
511 1 7.0624 -4.56827 -1.73335 19
512 1 10.2649 14.6942 18.0644 10
513 1 -17.5158 -6.77372 8.55601 11
514 1 -7.6527 15.0998 -8.39781 11
515 1 -4.29019 4.45774 13.198 22
516 1 -13.8994 -0.642941 15.9166 13
517 1 -6.18461 13.6245 -10.721 12
518 1 1.7153 -11.4063 -1.12867 17
519 1 4.25948 1.82265 -4.26789 17
520 1 -2.15941 21.5876 2.47307 13
521 1 -16.2339 1.93495 -11.498 8
522 1 4.37139 -11.392 7.02192 11
523 1 -19.8635 -0.899233 2.91127 8
524 1 -1.05106 11.0163 -8.38154 17
525 1 -2.09429 9.86887 16.7272 18
526 1 -12.454 -2.56598 13.4409 23
527 1 2.86699 14.7393 0.188499 20
528 1 -5.86045 -5.7315 -7.58949 17
529 1 1.52459 -6.19891 14.409 12
530 1 -15.3734 12.3677 2.94649 15
531 1 3.75021 3.80558 17.482 18
532 1 -4.18338 13.9814 -8.13548 17
533 1 2.05139 -0.45945 -4.78885 20
534 1 -0.552526 13.7924 12.9536 19
535 1 -0.267927 -0.420978 -12.7985 17
536 1 -10.5282 -8.28199 14.5266 15
537 1 -3.76125 5.98514 -7.47919 19
538 1 0.367395 6.99488 -12.5741 12
539 1 0.69094 16.7791 14.4943 21
540 1 3.84744 8.09603 -7.56933 20
541 1 -7.99786 -2.86489 -11.1562 11
542 1 -7.36388 -6.9049 0.494515 17
543 1 -15.8317 0.910981 -3.98018 13
544 1 8.50301 7.1567 3.67368 19
545 1 11.4656 11.4345 -0.133728 16
546 1 11.58 -0.0439232 1.84213 14
547 1 13.7403 10.8971 15.5923 11
548 1 -0.115732 -6.88722 -5.17555 22
549 1 -0.865945 3.75239 -7.18631 18
550 1 2.39144 17.3563 7.90324 22
551 1 -13.7511 6.04072 5.55248 18
552 1 11.0366 11.9584 19.4924 14
553 1 8.358 12.1076 0.671784 18
554 1 9.491 4.53564 8.90275 19
555 1 5.60549 11.7162 -1.58284 21
556 1 5.87163 5.89795 18.2041 16
557 1 13.1807 8.07759 13.5696 13
558 1 -1.32389 -0.718554 14.0064 22
559 1 11.4501 13.7381 -1.95004 12
560 1 0.618961 4.76763 17.424 18
561 1 10.4841 9.26594 -9.06075 7
562 1 5.75556 1.51569 16.4759 18
563 1 -7.58093 1.684 -5.37154 16
564 1 10.2358 12.728 2.83172 15
565 1 6.36908 -2.25611 8.4618 20
566 1 -13.1448 9.65162 12.2851 17
567 1 4.24851 17.1309 12.9512 16
568 1 9.25575 4.60607 16.9455 17
569 1 -1.07324 9.53236 11.5103 18
570 1 3.22212 18.1439 15.4785 9
571 1 6.61407 6.81087 9.89557 19
572 1 -2.65085 -10.4971 2.46912 20
573 1 -5.8804 17.2319 4.40125 19
574 1 6.70327 9.69308 -0.263617 20
575 1 5.2315 2.35833 -6.99035 21
576 1 -0.664051 20.7641 6.31449 10
577 1 -9.41843 -10.6529 -6.3674 16
578 1 8.93559 6.54819 -9.57835 11
579 1 -15.2863 11.539 10.6091 15
580 1 -12.0192 7.61878 -12.9256 11
581 1 -8.18315 -13.9964 4.03317 15
582 1 -7.25799 6.52382 -9.51118 17
583 1 -16.5281 5.74311 -2.23898 15
584 1 7.19285 -1.37676 5.38021 18
585 1 11.8854 14.4351 7.85654 11
586 1 -1.1264 -6.30778 10.6654 17
587 1 -17.2444 4.05793 -5.07356 12
588 1 0.63288 -3.80214 -13.5744 10
589 1 -3.70004 11.756 18.857 15
590 1 3.72038 16.2186 -5.21607 12
591 1 10.8222 3.63936 13.9541 17
592 1 5.2924 6.72008 -0.498375 19
593 1 7.39406 18.8084 7.77135 10
594 1 4.38017 -9.65324 -2.21078 17
595 1 -11.2652 -0.240277 15.4913 21
596 1 11.7636 3.71116 6.86798 9
597 1 0.352488 12.5002 16.5428 21
598 1 1.58891 17.8059 1.2457 17
599 1 -10.3897 9.99845 -2.06399 18
600 1 4.31507 11.714 7.37743 21
601 1 -6.3633 -15.0862 2.73407 13
602 1 10.6683 2.27422 3.62025 16
603 1 6.542 18.4871 11.1273 14
604 1 -8.57765 11.7401 16.095 17
605 1 -14.8704 -2.73343 4.1049 16
606 1 -9.9879 -0.260475 -4.35453 21
607 1 3.83848 2.67666 14.1864 21
608 1 -7.23385 -7.47087 17.2853 10
609 1 3.02068 6.85483 18.0811 20
610 1 -8.83668 14.27 0.405397 20
611 1 7.17403 10.1806 6.78386 18
612 1 5.66156 6.24357 6.58526 18
613 1 3.20797 6.54367 -12.9081 15
614 1 -13.0368 -0.00952415 11.9372 20
615 1 8.26254 2.95777 -9.25912 15
616 1 12.178 -4.25134 -2.79554 11
617 1 4.84221 8.8217 14.6517 18
618 1 -12.0115 7.18755 16.8154 16
619 1 6.36036 13.3445 9.24418 18
620 1 -2.71739 0.615007 20.9229 13
621 1 -6.7015 9.82484 18.9835 18
622 1 -4.03288 -4.67288 -13.4112 11
623 1 -8.79444 7.74215 15.1679 19
624 1 6.5913 3.97408 15.5744 23
625 1 -9.77526 -13.3346 7.67287 14
626 1 9.50221 8.57772 1.02439 24
627 1 0.384852 -8.29781 -0.941713 20
628 1 1.87364 12.4098 5.07265 19
629 1 4.89964 16.0972 10.1923 20
630 1 5.58908 2.28669 -13.1149 12
631 1 -1.40128 18.8083 0.584338 23
632 1 10.6928 9.43272 4.17638 14
633 1 -10.1693 -6.54637 2.57064 19
634 1 -8.55351 0.429881 -9.9999 17
635 1 -11.889 12.6407 1.60204 22
636 1 7.78803 -3.01654 -8.9766 12
637 1 6.43582 12.5341 -4.11618 21
638 1 4.67941 17.6771 1.45495 17
639 1 -13.6837 5.76015 -0.995039 20
640 1 2.08688 10.8845 0.291301 21
641 1 10.8542 6.22213 18.5598 12
642 1 9.39793 4.21492 20.1954 9
643 1 -4.94924 -7.55917 16.098 9
644 1 -8.45638 10.401 -4.86335 20
645 1 1.58561 15.2409 11.1735 24
646 1 5.55814 -6.76312 -6.59387 13
647 1 -1.53649 4.28544 15.0334 23
648 1 0.47201 20.6455 3.35598 15
649 1 8.18492 15.5627 9.16876 17
650 1 7.45262 -0.203805 -1.25028 16
651 1 8.20496 7.77746 21.086 10
652 1 -15.1926 1.59334 8.54635 20
653 1 1.20882 -10.0617 4.89783 17
654 1 -4.04778 2.95198 -5.53944 22
655 1 -8.12271 16.7544 9.59358 15
656 1 2.88644 14.1899 8.39484 18
657 1 -17.278 -4.72604 11.0756 16
658 1 1.29087 13.1024 20.1202 10
659 1 -5.05181 3.17238 -14.1566 10
660 1 -9.03632 12.0142 -10.112 12
661 1 3.25065 -7.62351 3.10563 17
662 1 5.21929 16.8568 -1.72501 15
663 1 -18.0118 2.9057 13.2957 12
664 1 5.89526 4.12336 -10.5249 16
665 1 -1.12185 -3.64507 12.3693 22
666 1 -4.78913 19.2496 6.11022 21
667 1 -6.74894 5.0877 21.0353 16
668 1 -8.808 -11.2688 -3.59499 18
669 1 -4.3028 -8.78165 -6.8495 19
670 1 -8.68349 -13.896 -4.904 10
671 1 -1.03485 21.2662 -3.43989 8
672 1 5.64327 -2.36063 -10.8582 11
673 1 -7.94174 11.7539 6.08189 18
674 1 4.93139 -4.50453 -3.96475 17
675 1 3.1515 -8.03687 6.31792 16
676 1 1.51669 -4.82838 10.5058 17
677 1 12.4728 8.86171 -6.19358 9
678 1 -4.18618 -6.89339 -4.83292 18
679 1 -15.5171 -1.16329 13.8422 18
680 1 -10.1335 -11.5772 5.65773 20
681 1 -10.0861 -10.3 -0.534028 18
682 1 -15.8691 5.51975 13.3401 16
683 1 -2.47602 -16.7374 -0.0862282 7
684 1 12.0648 11.392 -3.32495 13
685 1 -5.6241 20.4935 3.41909 16
686 1 -16.8092 11.3026 8.20213 12
687 1 7.8236 1.11673 7.88939 20
688 1 -17.0261 -3.19289 -4.66803 11
689 1 -1.25577 10.7904 -0.550753 19
690 1 4.71199 5.96628 -5.08444 21
691 1 7.15294 14.1678 17.6472 13
692 1 4.69128 9.77568 1.31717 18
693 1 -15.5479 5.91422 -7.77087 18
694 1 -17.8013 -5.5551 -1.9443 11
695 1 -5.40565 8.35564 21.8229 14
696 1 1.81884 5.82224 -9.94238 22
697 1 10.3759 13.6792 11.5579 15
698 1 -3.24568 1.8843 14.649 22
699 1 -1.63023 -14.1919 -1.6322 15
700 1 -11.9205 -11.7447 9.28706 13
701 1 -4.56013 -6.19464 12.3112 20
702 1 13.6267 13.8903 13.9466 5
703 1 -2.70436 -5.08944 -10.1548 18
704 1 -12.5961 9.11441 -0.538704 18
705 1 7.11002 9.74985 9.40795 23
706 1 -15.9637 4.20993 10.6996 19
707 1 5.23232 11.4943 -9.93018 12
708 1 -4.74652 -14.7291 -1.6557 18
709 1 -1.8364 -14.223 6.13147 9
710 1 -3.30301 -13.6165 1.61314 20
711 1 4.78926 8.48097 -3.23653 18
712 1 4.536 19.9723 8.91302 12
713 1 -4.63648 -2.66798 -11.4659 17
714 1 -0.881075 2.13345 18.0901 22
715 1 -6.69713 5.35471 -12.837 16
716 1 -16.8131 2.85882 -8.44227 12
717 1 -16.0474 -1.98253 -1.54716 20
718 1 -0.967581 21.8958 0.148155 11
719 1 -8.86607 -0.908435 -6.94785 18
720 1 -9.34675 -3.51819 4.251 21
721 1 9.79456 9.29901 -4.6157 18
722 1 10.6315 -3.36133 6.52339 11
723 1 -9.48987 9.79792 17.566 18
724 1 4.60605 -5.4548 8.19481 20
725 1 13.1435 3.09188 1.71324 11
726 1 9.09795 -2.11336 14.4808 9
727 1 -3.58308 17.6178 10.5371 14
728 1 -14.9242 7.37313 15.8646 10
729 1 -12.8361 10.8502 21.2166 9
730 1 -7.06797 -8.45073 13.6562 15
731 1 7.3441 3.52312 6.57062 20
732 1 0.753719 15.6281 16.779 13
733 1 -19.136 -1.37567 6.18207 14
734 1 7.97164 0.98056 1.14985 18
735 1 -13.7392 11.4655 -0.498413 15
736 1 -0.321954 -12.4396 10.5901 9
737 1 7.39845 2.29272 18.7548 16
738 1 -3.97867 12.8585 12.334 18
739 1 -1.43457 -10.91 7.85738 17
740 1 -14.1302 1.02116 1.64427 16
741 1 -4.51699 3.83051 16.3086 23
742 1 -13.9819 -4.40802 0.634376 19
743 1 5.35112 9.12753 22.1333 11
744 1 -1.96212 15.9734 6.20716 19
745 1 -14.1866 -10.6052 1.66955 10
746 1 -7.31129 -12.1492 6.4942 17
747 1 4.99499 -4.72045 11.6997 18
748 1 8.16206 -4.2799 9.66724 11
749 1 6.25545 11.3952 12.7241 20
750 1 -9.12298 -5.02994 -5.97622 19
751 1 -4.94673 -0.360867 -10.0264 18
752 1 -9.33922 2.35475 14.8804 22
753 1 -3.20627 15.4405 12.853 17
754 1 10.8842 3.21305 11.1774 14
755 1 2.69219 11.0779 -3.20683 17
756 1 -9.82524 13.1166 21.5645 8
757 1 8.46442 8.31631 17.5966 20
758 1 3.92059 -4.30169 -12.2761 9
759 1 -12.3736 -10.0058 6.75415 20
760 1 10.2428 0.0832751 12.812 13
761 1 2.14448 4.0757 -6.42536 18
762 1 -4.29337 11.0229 22.7127 8
763 1 5.34405 -6.49782 -0.999671 17
764 1 -1.42461 10.2639 -12.3046 14
765 1 -6.76182 -3.02787 -0.927144 19
766 1 10.3027 6.91085 -7.21102 15
767 1 10.8567 2.93868 0.358277 15
768 1 -3.90535 -1.36532 15.8937 17
769 1 -4.76867 -9.37816 -2.98399 21
770 1 3.06754 15.967 3.97989 17
771 1 -15.0316 7.67073 10.6688 20
772 1 4.35159 4.82986 -2.06979 21
773 1 12.3239 9.07891 10.0732 14
774 1 -4.46438 -7.35568 -9.51749 18
775 1 -12.2353 11.534 9.58218 15
776 1 11.7084 11.9986 9.66497 16
777 1 9.12725 12.5535 -4.8529 15
778 1 -4.69792 5.21441 -10.0755 19
779 1 4.01445 -0.941112 0.487912 18
780 1 -10.1072 5.17325 -2.84375 15
781 1 10.2841 9.82938 7.27572 17
782 1 -18.8868 -6.97136 3.4221 6
783 1 -13.5017 14.2273 -3.09896 11
784 1 4.61746 8.46148 11.6907 19
785 1 -15.114 -3.40707 -7.6628 10
786 1 -13.914 11.164 7.50029 21
787 1 -5.99119 6.50108 -4.81214 17
788 1 2.84723 -5.3256 -5.87134 19
789 1 -6.35933 -12.2695 -2.0819 21
790 1 10.9389 -4.07142 3.05663 12
791 1 -16.3211 10.6957 5.50726 15
792 1 -14.6929 -1.57785 1.12498 15
793 1 8.84612 11.0053 11.6733 20
794 1 -9.89257 0.110337 9.3764 24
795 1 6.54541 3.11289 22.1235 7
796 1 7.53943 -2.19143 11.6456 18
797 1 4.82701 0.688121 9.63447 20
798 1 -14.4863 3.58249 5.75413 19
799 1 -2.81835 12.4545 15.0133 18
800 1 4.56481 13.8099 -9.17336 9
801 1 -6.72397 -5.61384 -11.3628 11
802 1 -7.69083 20.1014 8.38102 14
803 1 -10.0301 -10.3963 12.0789 12
804 1 0.118224 12.1163 -2.50911 19
805 1 -9.66937e-04 7.16628 19.518 21
806 1 9.87659 0.636283 -7.69321 11
807 1 2.26345 -3.44784 15.4828 15
808 1 -1.44617 14.5628 -8.29715 10
809 1 1.59393 11.7061 -10.3927 14
810 1 -9.38686 2.77434 11.3419 23
811 1 11.6445 6.53773 12.6032 15
812 1 -4.04945 2.57637 -8.49674 21
813 1 12.1882 15.3366 5.16448 8
814 1 -13.6816 11.2435 -3.43858 18
815 1 -8.09565 -6.03329 14.3604 17
816 1 2.44865 16.9441 -1.66073 16
817 1 2.28887 0.100022 14.4419 20
818 1 0.777566 -9.68329 2.03124 23
819 1 -8.12101 20.1609 5.18528 14
820 1 -16.7455 5.12529 6.28291 19
821 1 7.81445 6.38323 -4.30114 24
822 1 1.31937 -7.56842 -7.13587 18
823 1 -10.5954 10.2682 7.43323 17
824 1 7.19803 15.8569 -4.42149 13
825 1 -12.3376 2.59876 9.64303 18
826 1 4.69349 1.22828 -9.72415 21
827 1 -10.4223 -9.98149 -9.21963 9
828 1 -1.03808 -11.7005 0.497016 17
829 1 -6.09914 13.7426 14.1048 20
830 1 4.75738 -5.04227 4.79421 20
831 1 -3.97635 16.5131 -9.28427 10
832 1 13.9785 9.21082 -3.09175 8
833 1 7.4643 13.5011 6.27956 15
834 1 -3.0557 -16.381 3.3678 9
835 1 1.80103 3.23938 -9.30542 19
836 1 7.31997 3.46489 -0.743606 17
837 1 -9.70007 6.12376 -12.7876 12
838 1 -10.6554 -7.64142 7.98438 22
839 1 4.40833 14.292 -2.67265 20
840 1 1.17339 5.34469 -3.66671 19
841 1 -14.1732 9.73986 -6.64288 15
842 1 -19.2084 4.66664 11.1831 9
843 1 2.45931 9.57203 20.6713 16
844 1 -10.8846 -5.18271 12.7495 19
845 1 1.61781 11.389 12.0368 18
846 1 -6.67401 -9.15853 4.90263 17
847 1 0.895922 13.2987 1.39242 18
848 1 -11.0816 12.4314 18.2401 14
849 1 -5.35861 8.55875 15.8715 17
850 1 -12.9257 15.9192 6.74302 12
851 1 5.56319 7.23264 2.64437 21
852 1 -8.69444 -4.67941 18.2651 14
853 1 0.431084 -9.17632 12.5165 15
854 1 11.0807 10.3161 16.5865 19
855 1 6.52635 -0.521807 -6.83063 18
856 1 4.07823 -8.65373 -5.34428 15
857 1 -14.5582 -2.03364 -5.08302 20
858 1 -3.11371 -0.956758 -13.633 12
859 1 2.44127 14.0428 14.2007 23
860 1 -14.6982 2.40871 14.8807 14
861 1 -11.183 15.0194 -1.13954 19
862 1 -11.3971 10.4638 -5.40224 20
863 1 9.48398 15.8484 3.43924 12
864 1 -6.3314 -9.27312 8.5965 23
865 1 -3.35246 10.2739 10.2633 19
866 1 7.74348 15.4492 12.1562 17
867 1 -11.6096 -10.2599 -3.55107 11
868 1 -1.73602 14.0405 19.0033 12
869 1 -6.49344 -2.84367 19.9512 8
870 1 -10.3761 -13.4139 -1.61556 13
871 1 7.79489 4.94058 12.0341 21
872 1 -1.25135 -11.9437 4.66066 17
873 1 7.17939 10.648 19.7245 17
874 1 -6.98702 -1.04748 10.8918 21
875 1 9.06314 3.81209 -5.6432 18
876 1 7.61207 -6.54832 4.4133 12
877 1 3.30386 0.135396 -7.66619 17