ITEM: TIMESTEP
4000
ITEM: NUMBER OF ATOMS
500
ITEM: BOX BOUNDS pp pp pp
-30.0 30.0
-30.0 30.0
-30.0 30.0
ITEM: ATOMS id type x y z Coordination
1 1 6.18428 0.164425 8.55127 13
2 1 1.41548 4.77671 8.03938 13
3 1 -3.17803 -0.200217 -8.64189 20
4 1 -9.40588 1.7764 -3.7352 14
5 1 1.15509 3.39069 -10.2179 14
6 1 7.15066 -6.79766 -5.25488 7
7 1 4.39426 0.188743 6.10356 22
8 1 4.35619 6.22525 8.05769 13
9 1 -9.40542 -1.09773 1.15839 16
10 1 7.72999 -0.306503 -2.19793 22
11 1 5.91867 4.08076 5.63992 21
12 1 -6.86174 -5.8466 2.93841 15
13 1 -2.21065 -2.88994 -7.53496 18
14 1 8.49745 -1.53621 -4.61632 16
15 1 5.68415 -7.69482 1.26305 11
16 1 -4.44535 10.1601 5.24052 12
17 1 -0.549287 10.9749 0.403833 14
18 1 -0.549272 -1.02523 -9.88595 14
19 1 -1.26457 5.49115 6.58783 14
20 1 -4.4658 7.51446 3.3743 21
21 1 2.39964 5.14464 -8.64148 14
22 1 -2.78589 10.0752 -5.10789 16
23 1 -6.31691 5.9531 -6.87179 13
24 1 -3.70753 10.5364 -1.46951 16
25 1 -9.01847 4.6796 -1.82315 15
26 1 1.37557 7.63153 6.64047 14
27 1 -10.1387 3.39211 -10.2112 5
28 1 -5.59052 -6.41039 5.81594 14
29 1 4.91446 -7.5386 -3.0142 10
30 1 -8.8485 -0.409821 -5.52543 17
31 1 -1.48312 -8.18871 2.36344 15
32 1 5.58516 3.76873 -5.67756 14
33 1 -8.06866 -3.96103 -7.62269 10
34 1 1.19644 7.64269 -10.0315 14
35 1 -1.19797 11.5617 -2.94406 13
36 1 -9.42146 -0.786471 4.25489 14
37 1 1.21179 9.98284 4.92285 13
38 1 2.38366 -0.81536 8.1249 17
39 1 0.90144 -8.33789 -3.70526 12
40 1 8.4947 -0.624548 -7.50211 10
41 1 4.62299 -2.99109 8.0555 12
42 1 1.54882 -3.19125 6.64897 19
43 1 4.30229 8.80488 -1.45067 18
44 1 -8.7501 -5.19546 5.69875 10
45 1 -3.41358 -9.41892 -0.0690588 11
46 1 -4.03334 -0.838002 7.72925 15
47 1 -10.1814 2.66545 2.88522 10
48 1 4.80923 -5.50205 -0.146327 21
49 1 -7.43478 -3.1354 4.70403 18
50 1 -6.85297 10.7578 0.377269 11
51 1 -7.04256 9.19988 3.84145 14
52 1 -3.55287 7.36514 6.59482 14
53 1 -6.38949 -3.10773 -5.44563 20
54 1 -4.81566 -3.06839 -9.14779 14
55 1 6.55708 3.77143 8.47965 10
56 1 -1.97321 -2.42585 9.13144 14
57 1 -6.21465 0.0443861 -10.6599 12
58 1 -9.4963 -1.11191 -2.05653 15
59 1 -6.22876 -8.31463 -2.94289 11
60 1 -6.42589 7.48915 6.39027 13
61 1 -0.820969 -8.09706 -6.04477 12
62 1 -1.39615 8.33464 4.92235 20
63 1 -8.62026 -0.481483 -8.87705 13
64 1 -10.0702 7.53083 -2.66261 10
65 1 -1.79527 -5.77031 -7.75135 11
66 1 5.38166 -5.00829 6.06236 11
67 1 -9.96605 2.28654 -7.04126 10
68 1 -7.41669 2.80496 7.47461 8
69 1 -8.74032 4.86383 5.03698 10
70 1 -1.22619 8.94231 -7.98273 15
71 1 -0.695338 -5.11033 7.73473 11
72 1 2.57011 -6.44376 -5.552 12
73 1 5.7495 0.276157 -9.72026 10
74 1 7.40476 -2.03563 6.24012 14
75 1 -7.11814 -5.96396 -5.24741 13
76 1 -6.5955 -0.687731 6.3175 14
77 1 7.15162 1.24446 5.88716 16
78 1 8.4047 5.78956 -2.05088 12
79 1 -1.13041 5.07065 -10.4783 13
80 1 -2.26389 8.48202 -10.6649 7
81 1 1.80645 10.5954 -1.96712 13
82 1 4.01777 2.02146 -8.50597 19
83 1 1.85009 -7.07497 1.22095 16
84 1 7.59795 -4.66048 0.464212 19
85 1 -0.143045 -8.79282 -0.345762 14
86 1 -9.60825 0.322925 -12.1122 5
87 1 10.8707 -0.278721 -2.15269 13
88 1 -7.56956 8.17283 -5.01199 12
89 1 3.81078 -3.68383 -7.71936 12
90 1 -6.47198 -3.56309 7.7146 10
91 1 -2.37825 -8.9631 -2.79317 14
92 1 2.32125 -0.925982 -8.48453 18
93 1 4.65159 -5.97208 3.24829 18
94 1 -4.56526 -4.63109 -6.77509 17
95 1 0.0110486 0.102485 10.286 8
96 1 -1.19618 2.40523 7.63984 15
97 1 4.89921 -1.29731 -7.05185 19
98 1 4.09195 8.38753 -4.78083 12
99 1 10.1195 1.35542 -5.01114 13
100 1 -4.00574 2.12494 -10.4217 12
101 1 -8.76518 4.99878 1.67301 15
102 1 1.22591 -3.23454 9.67895 10
103 1 -7.4791 2.31844 -8.05702 17
104 1 7.13671 -3.10032 2.99382 17
105 1 7.21732 6.92352 6.71457 10
106 1 1.87787 -5.82624 5.24403 12
107 1 8.92292 4.2677 0.830176 13
108 1 6.80613 8.44967 3.80188 15
109 1 4.19321 8.11319 5.22665 17
110 1 -4.55491 8.30674 -6.99327 12
111 1 -8.51211 -7.08974 -2.3102 8
112 1 -9.90943 7.4129 -0.0982738 10
113 1 6.83261 8.3007 -2.16796 12
114 1 4.14032 2.69953 7.7184 20
115 1 -0.419576 1.27808 -11.9783 9
116 1 6.14885 10.4689 0.5921 12
117 1 6.974 -3.54253 -6.71428 10
118 1 7.77152 -6.22229 3.73634 9
119 1 -4.53801 4.96759 8.04556 10
120 1 6.95419 2.48946 2.72502 18
121 1 -1.32633 7.38082 -5.24169 23
122 1 8.53533 4.34587 -4.79265 13
123 1 -2.60734 1.07568 9.5775 10
124 1 -3.35806 -3.86051 6.63259 16
125 1 -7.29572 7.8742 1.3527 17
126 1 4.24176 7.91979 1.54452 22
127 1 -9.92726 -3.85672 2.58283 11
128 1 6.96346 -1.31458 0.804349 22
129 1 -3.5143 -6.43159 0.947614 19
130 1 7.90571 5.62318 3.55738 15
131 1 7.67049 -6.98519 -1.8852 11
132 1 2.36353 10.2828 1.55606 15
133 1 -9.07422 -4.27325 -3.77496 12
134 1 1.75173 7.75205 -6.75237 19
135 1 -5.9824 -0.144994 -6.95161 20
136 1 2.85157 0.607149 -11.0437 11
137 1 -3.5763 -7.02081 -5.1319 17
138 1 9.27501 -3.3858 -1.54582 13
139 1 -9.57359 1.95338 -0.444192 14
140 1 -3.07316 6.30411 -8.62061 17
141 1 -6.08985 -6.34847 -0.109913 17
142 1 8.64157 -0.400973 3.5024 14
143 1 -3.25429 -0.886461 -11.5694 10
144 1 -9.15359 10.2207 -2.34274 9
145 1 -7.69644 1.82185 4.53461 17
146 1 7.9407 7.64887 0.823451 15
147 1 9.70748 1.578 1.06304 15
148 1 -2.77044 -6.41463 5.02241 13
149 1 7.57999 2.06536 -7.43669 11
150 1 4.3696 8.10384 -8.37781 7
151 1 4.40488 10.8911 3.34225 13
152 1 0.770706 10.1151 -5.14129 14
153 1 9.33002 2.63058 -2.07294 16
154 1 6.5877 -3.80208 -2.11692 20
155 1 -1.78643 11.453 3.78625 10
156 1 -3.92972 10.2393 1.78992 17
157 1 -4.68091 -8.40965 2.74018 11
158 1 9.82058 -1.63094 0.681712 14
159 1 -9.07426 -3.93542 -0.593828 13
160 1 -6.47092 8.50687 -1.78086 21
161 2 -9.50633 1.1622 3.99994 14
162 2 8.111 5.75115 1.73109 15
163 2 -6.93045 4.9968 -5.53537 16
164 2 -4.45842 -7.26564 4.38 13
165 2 5.01513 4.6491 8.91351 11
166 2 -4.97597 6.7989 7.59195 9
167 2 6.83125 -5.33605 -6.16529 9
168 2 -3.03704 2.08488 -8.86655 17
169 2 1.46475 -0.501243 -10.0812 16
170 2 -3.33143 8.49959 5.02939 21
171 2 5.85577 -1.68113 2.23963 19
172 2 4.99976 7.42464 -0.270967 19
173 2 -0.59886 10.3011 4.68476 14
174 2 4.40421 10.2776 1.30795 14
175 2 2.59487 7.34848 -8.63834 11
176 2 7.26113 0.195642 -8.61949 10
177 2 -7.94948 -0.142013 -11.1576 8
178 2 0.82986 -5.17004 6.65133 11
179 2 -9.64293 3.04379 1.04228 12
180 2 5.10168 -3.19637 -6.61496 13
181 2 -4.29444 -8.21009 -2.6776 14
182 2 5.24038 7.16505 6.69253 14
183 2 4.4169 -0.982074 7.6509 18
184 2 -7.25507 -5.9887 4.75593 11
185 2 0.326526 -8.4451 1.49855 12
186 2 -9.10776 -4.21277 4.16225 12
187 2 -1.64331 -9.62273 -0.9826 12
188 2 -7.30059 -6.99136 -3.73564 12
189 2 -7.26071 9.84101 1.99757 11
190 2 7.44542 5.57821 -3.71842 15
191 2 2.2755 3.05613 -8.57268 21
192 2 -1.72957 10.4299 1.75305 15
193 2 -6.21436 9.26497 5.53339 11
194 2 -1.43887 10.3226 -1.2582 17
195 2 -0.948489 10.091 -6.10664 13
196 2 -0.506242 7.48954 6.40133 16
197 2 1.26332 -1.32208 9.79474 12
198 2 4.1215 -0.0168469 -8.255 18
199 2 1.25312 -7.90773 -5.75441 9
200 2 -9.37295 -5.36088 -2.03236 12
201 2 8.12484 -2.5356 0.690627 18
202 2 7.17451 9.07792 1.90883 14
203 2 -0.771961 3.07929 -10.7256 12
204 2 1.45418 1.89435 -11.6351 9
205 2 -3.35278 -4.49604 -8.37265 11
206 2 2.21846 -2.72876 -8.00931 15
207 2 8.8353 0.983906 -6.45139 12
208 2 -1.66551 -0.0115899 -11.2818 12
209 2 -2.38447 -6.94058 -6.45837 11
210 2 -1.20538 4.8116 -8.68106 22
211 2 -5.33833 -6.68627 1.85519 15
212 2 -6.36546 7.60754 3.17981 17
213 2 -7.77927 -3.75436 6.51193 11
214 2 -9.02226 2.73787 -2.12716 14
215 2 6.23703 -7.2975 3.10615 12
216 2 2.42377 10.6932 3.37557 12
217 2 -0.591118 1.12307 8.87367 15
218 2 -9.2782 4.45717 3.40886 12
219 2 -8.81963 -2.32813 -8.25556 11
220 2 9.08872 4.26156 -0.95572 14
221 2 -8.9352 -3.18211 1.09118 16
222 2 -4.38698 5.9635 -6.95144 17
223 2 4.39549 1.5014 -10.4375 11
224 2 -6.17379 7.60508 -0.254016 19
225 2 4.72682 -6.34744 -4.77123 12
226 2 0.979932 -8.15872 -1.7587 14
227 2 -7.24885 10.2921 -1.68534 13
228 2 3.966 -6.67501 1.25278 14
229 2 5.30742 9.77979 4.59628 11
230 2 -3.01854 11.2086 -3.21859 11
231 2 -2.38287 -1.92436 7.08068 19
232 2 -0.509356 8.35619 -9.82847 12
233 2 2.80177 1.16715 7.57794 18
234 2 8.28361 7.49677 -0.967991 14
235 2 5.08029 7.32144 3.31319 20
236 2 -6.2607 -3.93826 3.09003 20
237 2 2.44548 6.33857 7.83151 11
238 2 5.93683 2.02498 8.3581 13
239 2 0.97642 5.58559 -10.066 13
240 2 2.73825 3.74738 6.71157 18
241 2 7.87985 -2.06897 4.35685 15
242 2 -9.47503 -0.108352 -3.92318 13
243 2 -6.4233 7.59592 -3.50589 17
244 2 -9.24668 2.86747 -8.67112 9
245 2 -2.0567 -5.29636 6.5217 13
246 2 6.37562 9.84899 -1.15529 10
247 2 -6.69492 0.426394 -8.69636 18
248 2 10.5402 1.20968 -0.746417 15
249 2 -9.08283 8.6424 -3.90622 9
250 2 9.79031 -0.217201 1.96167 12
251 2 -5.00376 -4.79017 7.03312 13
252 2 -6.02232 -3.54388 -7.57973 16
253 2 -3.5182 8.29465 -5.22792 19
254 2 -9.88523 8.84239 -1.19046 10
255 2 -0.627594 -3.76188 9.24326 11
256 2 -8.79307 6.8267 1.17509 15
257 2 -0.281027 4.05392 7.45532 13
258 2 -9.34252 0.452529 -7.17893 13
259 2 0.512006 10.6335 -3.36572 14
260 2 -3.14962 5.28705 6.72032 18
261 2 -4.52777 0.557484 -11.2893 9
262 2 -2.69627 -5.74126 -3.89205 21
263 2 5.3383 2.04511 5.71085 23
264 2 7.74321 1.5362 -1.90921 18
265 2 3.7228 -5.56891 5.12921 13
266 2 -5.78869 3.65989 7.53582 11
267 2 -8.24306 -4.01614 -5.47485 15
268 2 -8.5148 3.20484 5.93898 10
269 2 -10.0957 -1.86898 2.91505 11
270 2 -1.38086 -8.38089 -4.26805 14
271 2 -3.0409 8.28275 -8.34754 14
272 2 4.89364 8.59813 -6.79747 7
273 2 2.52868 -5.19974 -6.94767 12
274 2 6.81453 -0.29321 6.7104 13
275 2 6.99904 5.14917 7.19521 13
276 2 -0.334892 7.67345 -6.8967 19
277 2 -3.83517 -1.51375 -9.63682 16
278 2 -3.67308 10.8584 3.63583 13
279 2 -6.4043 7.8115 -6.63251 11
280 2 -8.821 2.4261 -5.43431 15
281 2 -7.31078 6.25398 5.19698 12
282 2 8.0103 -2.26312 -6.39916 13
283 2 -10.0957 6.12153 -1.61079 9
284 2 -2.49952 6.48982 -10.7617 10
285 2 5.73403 -3.14343 6.37921 15
286 2 -6.9912 1.2518 6.3861 16
287 2 -7.5122 -0.993564 4.27101 17
288 2 6.9251 -5.70642 5.34071 11
289 2 -9.73693 0.0463453 -0.371087 14
290 2 -3.49104 1.62984 8.12319 15
291 2 -1.42487 -7.05125 3.85085 13
292 2 8.02032 2.55402 1.12444 17
293 2 3.96942 -6.40374 -1.707 18
294 2 -4.86684 10.8632 0.154402 14
295 2 -9.86827 1.81409 -11.1098 6
296 2 -5.59503 -1.86746 8.04771 10
297 2 2.6731 -2.97562 8.41665 11
298 2 5.01969 2.35649 -6.99057 18
299 2 7.68221 6.9882 4.8306 13
300 2 7.90762 1.17324 4.18958 15
301 2 8.0226 -2.40144 -2.68583 18
302 2 8.21759 -5.18369 -1.45916 12
303 2 7.59483 3.34596 -6.08478 11
304 2 -8.7761 -3.00383 -2.25125 14
305 2 7.69487 -4.93725 2.33248 16
306 2 2.10846 8.62068 -4.98687 17
307 2 9.9525 -0.207306 -3.84047 16
308 2 5.18386 8.03303 -3.1576 15
309 2 10.4042 -1.77016 -1.13565 11
310 2 6.56025 -6.84161 -0.112432 14
311 2 -5.25189 -6.07863 -5.85509 17
312 2 1.3709 10.9278 -0.0566657 13
313 2 2.10418 8.11546 4.90607 20
314 2 -3.10345 -8.4195 1.52084 14
315 2 -1.98987 -0.682177 9.82344 11
316 2 6.80996 4.11659 3.86629 16
317 2 9.5145 2.76999 -3.95434 14
318 2 -5.71892 2.60798 -7.40625 16
319 2 -7.07374 -7.6032 -1.13002 9
320 2 6.8663 -7.47202 -3.50075 10
321 1 -6.22219 0.244067 -3.94921 19
322 1 -6.54609 -2.78883 -2.20692 20
323 1 -0.859218 -5.96294 -3.33317 20
324 1 -3.50041 -6.51219 -2.05488 21
325 1 -0.682303 0.183564 -7.00886 21
326 1 -3.38029 -0.978544 -5.43455 19
327 1 -1.11129 -2.90433 -4.95207 20
328 1 -3.59158 -3.98075 -3.82535 18
329 1 -1.07349 0.402217 -3.49951 22
330 1 -3.72046 -0.824138 -2.07047 19
331 1 -1.23405 -2.57614 -1.80449 21
332 2 -6.7477 -0.92604 -5.32445 18
333 2 -5.74402 -4.01664 -3.74019 21
334 2 -6.35912 -0.885612 -2.29112 21
335 2 -1.70776 -6.66116 -1.52988 21
336 2 -1.45155 -1.27567 -8.22141 22
337 2 -4.16726 -0.636738 -7.07995 19
338 2 -0.745429 -4.28574 -6.86485 17
339 2 -3.24317 -3.10663 -5.60073 21
340 2 -1.14689 -0.678968 -5.13715 21
341 2 -3.38812 0.388402 -3.86286 21
342 2 -0.688594 -3.89479 -3.093 21
343 2 -3.25089 -2.95832 -1.932 21
344 2 -1.72191 -0.550762 -2.04566 22
345 1 -6.42571 -0.198701 -0.371588 21
346 1 -6.94428 -2.82382 1.41776 21
347 1 -6.26594 -0.287559 2.91529 22
348 1 -0.564057 -5.52023 -0.365543 21
349 1 -0.388199 -5.65757 2.79089 17
350 1 -4.55143 -3.57705 -0.621673 20
351 1 -0.803543 -0.181697 -0.316043 21
352 1 -3.79766 -0.936127 1.0944 22
353 1 -1.78991 -3.28086 1.39867 19
354 1 -4.35831 -3.46519 3.13049 18
355 1 -0.622799 -0.0941362 2.92755 20
356 1 -3.52177 -0.883024 4.65862 18
357 1 -1.29903 -2.81879 4.65856 20
358 1 -0.940376 -0.50054 6.41395 21
359 2 -6.6066 -3.3796 -0.275394 18
360 2 -7.29155 -0.879346 1.18127 22
361 2 -4.39235 -5.61245 -0.863014 19
362 2 -1.55292 -6.00944 1.06037 19
363 2 -4.49944 0.235876 -0.36778 22
364 2 -0.640826 -3.32244 -0.193013 19
365 2 -3.80929 -3.08516 1.26144 18
366 2 -1.8065 -0.668143 1.16965 22
367 2 -4.3838 -0.678364 2.96734 21
368 2 -0.695874 -3.49097 2.96074 19
369 2 -3.33337 -3.09064 4.7186 17
370 2 -1.4653 -0.61978 4.45754 17
371 2 -4.70466 -0.192947 6.06751 18
372 1 -7.12963 3.12411 -5.20893 20
373 1 -6.48118 5.55629 -3.63181 18
374 1 -7.0278 2.90526 -2.16199 20
375 1 -1.1898 2.95898 -8.59691 17
376 1 -3.81563 2.45802 -6.97687 21
377 1 -0.24619 5.45015 -7.06818 22
378 1 -3.44791 5.31389 -5.45532 19
379 1 -1.63564 3.10271 -5.40879 21
380 1 -4.33393 2.06842 -3.4861 21
381 1 -0.485595 5.54553 -3.37704 19
382 1 -3.3275 4.88233 -2.08517 21
383 1 -1.41327 2.79183 -2.06055 20
384 1 -4.4885 7.75465 -3.69649 20
385 1 -1.43499 8.47461 -1.97745 22
386 2 -6.17548 2.00566 -3.92677 21
387 2 -7.14887 4.98403 -2.02939 18
388 2 -0.961976 2.16232 -6.82716 19
389 2 -3.45323 3.13218 -5.18206 19
390 2 -1.29858 5.29129 -5.23862 20
391 2 -4.46774 5.68093 -3.74605 20
392 2 -0.857718 2.50177 -3.7284 21
393 2 -3.64914 3.04756 -1.81092 20
394 2 -0.938075 4.71917 -1.83648 21
395 2 -0.45949 7.70306 -3.55098 21
396 2 -3.72608 8.71863 -1.97741 20
397 1 -6.04667 5.54089 -0.337334 21
398 1 -7.04386 2.88459 1.40882 20
399 1 -6.41367 5.68355 3.6195 17
400 1 -3.81299 1.89985 -0.248937 23
401 1 -0.991733 5.59514 0.0878132 19
402 1 -3.72894 4.78756 1.4126 21
403 1 -1.49873 2.69165 1.23961 20
404 1 -4.41055 1.98259 3.06799 19
405 1 -0.625867 5.16397 3.246 20
406 1 -3.46817 4.57599 4.68218 19
407 1 -1.2854 2.62544 4.62605 21
408 1 -4.5093 1.75785 6.4898 17
409 1 -4.00586 7.96625 -0.0858378 21
410 1 -1.64723 8.36883 1.50868 22
411 2 -7.05864 1.80463 -0.299272 20
412 2 -6.96545 4.84591 1.2638 18
413 2 -6.20998 1.67417 2.57915 17
414 2 -4.04979 5.87379 -0.27937 21
415 2 -0.704982 1.88368 -0.638185 20
416 2 -3.5935 2.55615 1.50469 20
417 2 -1.65457 4.59002 1.65951 20
418 2 -4.27869 5.58842 3.09427 20
419 2 -0.633676 1.97153 2.89374 21
420 2 -3.96625 2.5996 4.71135 19
421 2 -1.54711 4.6673 4.75868 19
422 2 -0.461809 1.62281 5.90099 19
423 2 -1.29805 7.50051 -0.352887 19
424 2 -3.55136 8.28327 1.78258 19
425 2 -0.538791 7.40558 2.93984 21
426 1 1.96477 -6.28809 -1.7675 19
427 1 1.07482 -3.86908 -6.99044 14
428 1 1.49184 -0.833547 -5.4585 21
429 1 5.10005 -4.51167 -5.02187 17
430 1 1.34699 -3.90862 -3.74389 17
431 1 5.07189 -1.2807 -3.9473 20
432 1 1.74803 -0.997873 -2.42489 21
433 1 3.91286 -3.05605 -2.02608 17
434 2 1.20098 -6.14859 -3.69229 19
435 2 1.23692 0.0439689 -7.09479 21
436 2 0.805111 -2.65458 -5.05993 18
437 2 4.12475 -0.358444 -5.6571 20
438 2 0.916307 0.300183 -3.78506 23
439 2 5.18794 -3.36021 -3.31288 19
440 2 1.88985 -2.83923 -2.13124 19
441 2 4.18882 -0.879159 -2.33645 19
442 2 6.81341 -0.37708 -3.84106 19
443 1 1.24265 -3.2772 -0.196951 19
444 1 4.73585 0.156899 -0.750511 24
445 1 2.12713 -0.76508 1.29602 20
446 1 4.43928 -2.88518 1.31868 21
447 1 2.0351 -3.83037 2.92781 21
448 1 4.62508 -0.204318 2.88418 23
449 1 1.74604 -0.990674 4.63292 22
450 1 4.23123 -2.78593 4.62153 21
451 2 1.31122 -5.61245 0.0154505 19
452 2 1.37977 -5.79104 3.16615 16
453 2 1.1507 -0.340121 -0.333818 22
454 2 5.12335 -3.67254 -0.568387 22
455 2 2.39244 -2.89168 1.29249 21
456 2 4.05326 -0.378545 0.821873 20
457 2 1.52269 -0.146979 2.98882 21
458 2 5.02626 -4.0197 3.20504 22
459 2 1.97333 -3.14961 4.71876 17
460 2 3.71606 -0.902223 4.54279 24
461 2 1.03835 -0.846181 6.38696 20
462 2 6.7942 -0.081968 -0.444196 21
463 1 1.39074 1.92515 -7.25423 22
464 1 2.41503 4.66752 -5.20238 23
465 1 4.0812 1.58841 -5.26631 21
466 1 1.2398 2.18729 -3.84106 22
467 1 5.5468 6.06088 -3.45097 16
468 1 2.12875 4.63883 -1.8079 19
469 1 4.14231 3.08231 -2.45187 21
470 1 1.60571 7.52209 -3.5054 20
471 1 6.70072 1.70987 -3.67917 25
472 2 1.84804 5.63335 -6.76793 19
473 2 2.19361 2.54078 -5.45307 21
474 2 4.63677 5.3091 -5.04387 16
475 2 1.47688 5.44226 -3.62002 21
476 2 5.21704 2.68907 -4.15665 19
477 2 2.06914 2.6512 -2.04103 22
478 2 4.37534 4.92894 -1.98988 17
479 2 2.22664 8.68415 -1.8141 19
480 1 1.36534 1.79796 -0.532674 23
481 1 5.123 5.51979 -0.261989 20
482 1 1.96861 4.58391 1.65923 23
483 1 3.9415 2.58823 1.02492 21
484 1 1.27959 1.85057 2.93147 22
485 1 4.39287 5.58117 3.10676 22
486 1 2.30731 4.42499 4.93327 21
487 1 4.18462 2.48958 4.13505 24
488 1 1.46343 1.54203 6.18138 22
489 1 1.41102 7.79062 -0.132492 21
490 1 1.3776 7.45695 3.14467 21
491 1 6.73166 2.03213 -0.397902 19
492 2 1.17597 5.59451 -0.108808 22
493 2 4.83836 2.02393 -0.935331 20
494 2 2.03155 2.63126 1.12097 20
495 2 3.78207 4.76955 1.31638 18
496 2 1.41301 5.43514 3.38852 18
497 2 4.94503 1.8617 2.52066 24
498 2 2.22289 2.36523 4.46668 23
499 2 4.38471 4.49929 4.56309 20
500 2 2.30173 8.25072 1.51227 21
