ITEM: TIMESTEP
33000
ITEM: NUMBER OF ATOMS
1000
ITEM: BOX BOUNDS pp pp pp
-30.0 30.0
-30.0 30.0
-30.0 30.0
ITEM: ATOMS id type x y z Coordination
1 1 5.77557 -6.33673 -7.53324 15
2 1 10.5647 -6.41214 0.523715 10
3 1 -2.5051 6.18594 -10.3845 17
4 1 -10.4918 9.81667 -12.3578 6
5 1 -0.264017 -7.83526 1.58648 9
6 1 -6.71401 6.41726 -12.6762 12
7 1 7.03937 -0.236301 1.61407 20
8 1 2.96677 7.11516 3.56619 20
9 1 3.69105 14.7523 6.04595 13
10 1 -1.4211 13.7493 -5.10978 20
11 1 0.383707 7.97501 2.48729 17
12 1 -5.74324 3.25572 -7.06583 19
13 1 -2.88739 3.51222 -12.077 21
14 1 3.75306 14.6082 3.12138 18
15 1 4.639 -4.48664 -1.70477 17
16 1 -10.1269 10.5339 -6.95254 11
17 1 0.226037 0.112977 -4.85751 20
18 1 4.15939 13.2705 -5.47348 24
19 1 0.59076 9.75987 -15.6024 17
20 1 6.58076 2.1046 -5.88739 22
21 1 0.221891 -1.66543 4.40191 24
22 1 -11.1476 4.96224 -8.30654 11
23 1 4.80133 18.0899 -2.94015 12
24 1 7.57674 -2.51197 -0.111979 21
25 1 7.81025 0.435865 -4.25288 19
26 1 1.92527 10.4692 4.65995 16
27 1 -3.03927 17.1182 -8.94469 23
28 1 3.7988 12.7182 0.90151 20
29 1 1.01107 -1.10222 7.06815 14
30 1 -2.78047 0.671731 -6.71574 21
31 1 12.3282 10.2861 -0.308687 18
32 1 5.74732 4.10441 -3.77156 19
33 1 2.95724 4.89262 5.67183 21
34 1 -2.19548 1.27057 -3.42593 20
35 1 -1.54795 0.488729 -13.5156 14
36 1 -6.69511 11.8838 -8.03161 14
37 1 -2.42583 16.8589 -12.402 15
38 1 4.43482 0.90779 -11.6534 17
39 1 12.148 4.21796 -2.62585 18
40 1 9.21523 2.67285 -2.77591 19
41 1 -8.32569 16.8279 -1.10734 14
42 1 -1.98518 -3.67261 5.2651 15
43 1 -10.3787 14.0924 -1.91439 12
44 1 14.9422 0.0560757 -9.48137 11
45 1 5.83155 -0.101289 -17.0391 13
46 1 0.105132 18.0778 2.28987 13
47 1 2.48028 13.8903 -13.6282 12
48 1 3.2435 15.8541 0.12662 17
49 1 -5.25766 -3.1357 -1.85046 14
50 1 10.9715 -4.64033 -8.02829 8
51 1 8.07066 -4.39748 -12.6831 9
52 1 -4.13544 10.3758 3.50612 18
53 1 -5.65628 2.35513 -10.5041 15
54 1 12.8246 2.01181 2.09871 14
55 1 -3.0834 8.52517 -11.4718 18
56 1 8.91296 0.657209 -0.904721 21
57 1 -3.01185 18.192 1.32317 12
58 1 1.7928 4.12214 -15.6917 15
59 1 12.8535 -1.75756 -2.45713 15
60 1 -8.04548 0.0719464 -6.27759 15
61 1 16.0107 12.9461 -10.9417 11
62 1 11.5039 11.5646 -9.892 17
63 1 -0.480532 16.4665 -3.43249 24
64 1 1.01707 -1.41975 -13.9444 12
65 1 -1.33093 19.5876 -3.93989 11
66 1 12.8619 6.56308 -7.70845 19
67 1 7.18616 5.64836 -15.7083 18
68 1 12.1224 1.6188 -1.02306 18
69 1 -6.44688 17.0037 -7.24959 12
70 1 7.66376 16.7176 -7.08059 13
71 1 13.1619 14.2511 -4.78011 14
72 1 -1.53542 11.7538 -2.03426 25
73 1 4.11223 -1.16236 -14.4206 14
74 1 -5.16538 9.22476 -13.5539 16
75 1 -5.62234 19.3319 -0.577946 5
76 1 -1.04517 18.8363 -7.2977 18
77 1 -1.53203 0.645298 4.51775 22
78 1 -8.10453 3.88575 -7.65279 14
79 1 8.2615 -2.59087 -4.24277 14
80 1 6.99778 15.5682 -1.88993 15
81 1 14.1346 8.4535 -13.9898 13
82 1 -1.54455 -6.46099 4.94729 9
83 1 -11.4858 5.02309 -4.93255 11
84 1 0.229426 6.91034 6.02347 19
85 1 1.00991 13.0692 -10.4665 23
86 1 -3.30614 1.84356 -0.372203 17
87 1 -1.16158 -4.18276 -3.08419 18
88 1 5.15054 5.09923 -6.83541 21
89 1 -6.37675 15.1276 0.841791 19
90 1 1.50039 2.90597 0.366705 19
91 1 -6.22244 5.05868 -4.7718 19
92 1 0.245557 -5.88765 -3.99888 19
93 1 9.49867 11.0446 -13.8996 19
94 1 5.62934 6.02091 3.84035 20
95 1 3.63819 9.85067 -14.3869 18
96 1 2.99483 1.53703 -18.2176 8
97 1 1.12946 12.8749 -4.75757 24
98 1 14.8229 9.75322 -2.3552 15
99 1 -0.133992 16.1623 -9.91037 23
100 1 11.2472 8.18435 -15.2113 12
101 1 -6.9737 10.2786 4.24192 16
102 1 -7.05369 13.0487 4.03172 17
103 1 1.7984 -5.11726 -10.4563 11
104 1 8.80214 12.61 -11.2948 21
105 1 2.98742 15.6501 -10.5266 16
106 1 -11.1293 6.94095 -0.988562 15
107 1 5.09244 11.563 7.19979 15
108 1 13.758 5.68187 -12.249 10
109 1 0.465322 15.4661 5.37907 11
110 1 -9.16248 -0.59145 -3.16086 13
111 1 -2.71809 5.22388 -6.24426 16
112 1 3.79393 -1.25696 3.56046 18
113 1 7.67368 -5.25387 -1.3674 16
114 1 -5.28055 9.3186 -17.0886 6
115 1 4.98365 7.35303 -12.8673 20
116 1 -11.532 7.70779 1.71053 10
117 1 0.08033 1.3134 -16.0791 14
118 1 -3.7449 6.05507 -14.0935 13
119 1 -9.68494 10.2663 -9.5838 12
120 1 10.493 6.23001 -1.16396 18
121 1 4.08897 1.86517 5.88299 19
122 1 4.28935 2.04936 0.707192 22
123 1 8.46314 18.0413 -4.23537 10
124 1 -0.698394 -4.59637 2.6722 20
125 1 11.7175 14.6205 3.0622 10
126 1 2.45989 4.39109 -12.0658 15
127 1 -0.140692 0.551523 -8.28996 18
128 1 -3.42205 -7.66108 -0.199834 10
129 1 2.70637 9.59923 1.25247 20
130 1 -3.50137 1.71793 6.94095 10
131 1 0.508033 -8.72674 -5.50937 11
132 1 5.72774 -5.26772 1.30984 15
133 1 12.138 -5.09553 -1.96313 11
134 1 -5.19719 16.9201 -11.2117 10
135 1 10.4307 11.7065 -3.7218 16
136 1 -7.61766 7.8435 -3.85505 16
137 1 6.20465 11.4475 -15.1535 15
138 1 0.983102 1.92391 5.83664 20
139 1 8.94561 16.9522 4.04864 7
140 1 12.821 1.5604 -11.0549 16
141 1 -4.39951 4.5594 4.7875 17
142 1 -4.45019 -0.256277 4.74394 13
143 1 -8.67081 10.9373 -3.86774 15
144 1 7.03888 -3.17687 -15.3275 12
145 1 5.5111 -3.0743 -6.58642 17
146 1 3.16361 -2.64794 -11.6743 15
147 1 -6.4818 0.681197 -1.58036 19
148 1 9.76152 -2.60227 -10.6292 11
149 1 8.06289 12.1759 -1.80565 18
150 1 -2.70846 10.481 0.568784 17
151 1 10.0729 1.57027 2.02921 20
152 1 -1.99393 15.7428 3.9154 12
153 1 -8.26573 4.37085 -10.7531 11
154 1 2.12219 17.5714 -2.04811 16
155 1 -1.76445 11.4073 -10.9053 19
156 1 -5.20055 7.46994 4.25004 17
157 1 2.48061 2.10947 -9.95737 19
158 1 -1.68954 13.0881 0.679455 21
159 1 13.5862 -3.82821 0.400601 9
160 1 1.23994 -2.15309 2.1121 19
161 1 4.94954 5.83135 7.26501 20
162 1 5.09038 -8.04817 -2.83552 8
163 1 0.411802 2.42749 -12.7359 21
164 1 -10.2627 7.38868 -7.12826 16
165 1 -0.400899 -0.327651 -1.64117 17
166 1 14.9115 1.02613 -12.9798 8
167 1 0.935736 10.0148 -18.6334 9
168 1 -4.64482 16.3929 3.27067 9
169 1 -2.97029 17.3174 -1.97707 16
170 1 -5.91917 7.05123 -1.64452 21
171 1 14.8261 7.63377 0.30216 16
172 1 7.03496 2.9926 -16.4503 13
173 1 3.78191 -4.75433 -4.88844 18
174 1 -2.57304 14.4892 -2.21548 19
175 1 -12.3683 8.22442 -9.40521 7
176 1 11.4798 -5.09883 -5.49762 10
177 1 13.9666 5.52353 3.40056 11
178 1 -5.73886 3.51876 -13.9846 8
179 1 -3.93871 -4.94073 2.89885 14
180 1 -6.63539 6.91503 -6.9534 14
181 1 -3.53856 16.5611 -5.16675 19
182 1 3.05082 -8.23128 -8.28981 9
183 1 6.21279 6.07901 0.423438 17
184 1 -2.04109 -4.60568 -5.69998 16
185 1 -5.31358 15.1451 -2.90416 17
186 1 2.5953 -5.97998 1.36998 14
187 1 -3.45364 7.75053 0.495838 17
188 1 -7.36532 10.4742 -12.2038 12
189 1 -0.901796 6.12271 -3.83247 21
190 1 -5.21107 2.82813 2.75047 16
191 1 0.510634 4.60528 3.46188 21
192 1 -4.88915 4.7824 0.739575 19
193 1 1.81779 -2.9617 -3.03183 18
194 1 7.99103 -4.49547 2.35271 14
195 1 11.1735 13.7496 -12.7121 10
196 1 -7.76798 0.475602 1.40798 13
197 1 11.3614 0.625359 -3.68746 20
198 1 16.322 8.28175 -7.26757 15
199 1 6.23742 8.04751 -9.93087 19
200 1 9.9074 2.04645 -6.02912 19
201 1 -0.348766 1.63497 9.00442 10
202 1 6.28552 15.886 1.61973 15
203 1 11.3146 5.9577 4.91372 15
204 1 -1.27156 -3.60864 -8.46853 14
205 1 8.51143 7.0345 6.03395 19
206 1 -10.5752 4.50925 1.43584 14
207 1 -0.23019 -2.98915 -5.39783 19
208 1 -5.68664 -0.139384 -8.93264 17
209 1 -9.51183 15.5453 4.87562 6
210 1 5.48434 -0.284608 -6.37672 16
211 1 -7.55727 5.10306 3.27938 13
212 1 14.3319 7.85519 3.28032 10
213 1 16.4845 12.384 -7.59464 13
214 1 0.882437 9.15431 -12.1098 19
215 1 3.56458 10.6629 -17.5817 10
216 1 2.27653 7.04693 8.72117 10
217 1 -11.6216 1.46718 -3.49893 12
218 1 6.48626 14.9792 -10.3185 16
219 1 -0.422557 -2.87977 -10.9485 15
220 1 -1.35241 3.46402 -14.8103 13
221 1 15.908 13.3253 -4.42878 9
222 1 9.46936 14.4495 -8.91054 14
223 1 2.39513 7.49385 -16.5087 16
224 1 4.73457 -1.85363 -3.22919 18
225 1 0.766314 14.5786 -16.6512 6
226 1 7.13672 12.4658 2.04863 18
227 1 7.68299 5.9015 -2.47129 23
228 1 -1.68635 9.18781 -17.3999 11
229 1 6.72589 3.07156 -0.811054 22
230 1 5.72201 2.7418 8.19937 15
231 1 -4.85908 12.6271 -11.5326 16
232 1 4.27519 5.08784 -17.4478 13
233 1 -10.8161 8.59457 -4.39826 13
234 1 8.54316 3.48015 -11.17 17
235 1 3.80394 13.2484 -9.14698 20
236 1 9.48774 -2.03675 -1.96754 18
237 1 8.33617 7.40155 -12.7292 21
238 1 10.0783 0.508602 -9.753 17
239 1 -6.00593 -2.66486 2.63905 13
240 1 -0.766882 19.2517 -0.83075 15
241 1 3.21305 10.5597 -4.68963 20
242 1 13.7347 5.52156 -15.3919 8
243 1 4.27265 4.76925 -1.50113 20
244 1 7.55135 -1.37063 -12.0449 18
245 1 11.464 7.95888 1.44714 21
246 1 5.99158 -0.015878 -1.53195 19
247 1 -5.65969 10.9564 -5.35421 16
248 1 -3.05048 -2.37173 -12.9105 11
249 1 6.64229 -0.758143 6.38263 11
250 1 3.53379 10.6813 -11.2978 22
251 1 -2.96438 19.6878 -10.4313 10
252 1 1.85028 18.5791 -8.67353 13
253 1 -0.541593 5.04819 8.3603 12
254 1 7.03874 -5.00301 -9.47966 11
255 1 10.0186 6.29492 -7.45962 20
256 1 -6.2286 -5.41654 0.49489 12
257 1 -5.15729 9.38441 -9.55816 18
258 1 -8.11495 3.16227 0.94266 17
259 1 14.3243 9.90888 -8.24016 20
260 1 8.91221 -6.97165 -6.63748 11
261 1 9.44802 2.64619 7.31745 9
262 1 11.2611 8.10282 -9.27274 19
263 1 -5.18093 5.95251 -10.1094 18
264 1 11.8257 0.744931 -15.2457 10
265 1 6.56394 13.3692 4.60682 16
266 1 0.971198 10.0121 -9.37904 21
267 1 6.75405 4.7839 -13.0962 14
268 1 -0.0845248 6.03944 -6.52284 19
269 1 -6.15487 -3.43336 -11.0898 6
270 1 16.5336 10.5634 -12.6825 8
271 1 8.55528 3.75475 -8.12375 21
272 1 11.4321 -1.22238 0.141308 18
273 1 14.0095 12.9485 -1.77172 11
274 1 -9.61437 14.6542 1.64923 15
275 1 11.723 4.26572 -9.95748 19
276 1 -2.60997 -2.3491 2.90244 23
277 1 7.89577 5.4466 8.69835 11
278 1 -4.16797 0.990081 -12.3606 12
279 1 16.9389 9.40569 -9.83899 11
280 1 13.4211 4.3751 0.786821 14
281 1 11.3663 13.3462 -7.04895 16
282 1 -0.423107 9.8744 7.47903 9
283 1 2.15153 15.9822 -4.44882 22
284 1 4.39893 -8.69292 -5.70765 10
285 1 5.19344 13.3166 -12.237 16
286 1 -3.50087 14.7151 -10.8178 18
287 1 -7.84139 7.96115 -9.65348 15
288 1 16.0671 2.29339 -7.08795 12
289 1 4.37993 -1.56795 0.610062 20
290 1 10.3042 3.16175 -15.7182 15
291 1 14.1956 3.75261 -8.59163 17
292 1 10.2485 14.846 -3.09872 12
293 1 14.0836 7.78677 -10.309 13
294 1 -2.0013 9.29756 4.74755 15
295 1 1.09316 -5.37469 -7.43328 18
296 1 -3.08346 2.3367 -8.678 17
297 1 3.0976 9.80217 6.90879 14
298 1 -3.74473 13.0027 -4.28853 22
299 1 13.2656 11.3307 -4.70532 18
300 1 11.8871 8.82671 5.20096 12
301 1 -12.0531 3.80383 -1.80566 11
302 1 9.63505 -1.86929 -14.5006 13
303 1 3.85434 -3.38005 -8.70653 15
304 1 12.1966 13.1745 0.947728 11
305 1 10.3036 9.27039 -2.18741 20
306 1 -1.08335 12.5765 3.77147 16
307 1 -2.89113 6.88928 6.66698 14
308 1 -2.35432 6.67577 3.25509 18
309 1 0.319197 14.9684 -12.8289 18
310 1 10.7832 16.1323 -5.74529 13
311 1 14.3857 11.8197 -13.3986 10
312 1 -5.30758 -6.44244 -2.25609 11
313 1 9.62488 11.0791 0.690054 18
314 1 -6.66442 14.2257 -9.62655 11
315 1 14.0596 13.7483 -8.54512 10
316 1 2.24435 3.64499 8.23874 15
317 1 4.91893 10.764 3.42265 18
318 1 5.19885 8.35623 -16.1863 15
319 1 8.91086 -0.598607 -7.05902 17
320 1 3.79792 14.2047 -2.36445 20
321 1 -3.43733 4.17487 -1.67313 18
322 1 11.251 -1.87707 -5.12134 18
323 1 11.0431 8.37714 -12.404 19
324 1 4.52586 -4.60837 -13.7724 8
325 1 7.45812 0.731317 -10.3764 17
326 1 2.45546 17.3953 3.80922 13
327 1 9.13204 -1.94033 4.00311 13
328 1 -7.96304 -2.4075 -8.09789 12
329 1 1.6633 12.3807 6.72009 12
330 1 13.9288 8.24741 -5.0855 22
331 1 0.0250899 11.4528 -7.07422 21
332 1 8.20956 8.42291 -15.4819 16
333 1 7.98715 8.31655 -7.27473 19
334 1 6.37324 9.95101 -12.6442 23
335 1 2.15749 6.25986 0.18154 17
336 1 5.08297 -5.23534 4.03007 10
337 1 2.62228 -1.30992 -17.3469 10
338 1 -7.3349 13.0722 -1.84629 19
339 1 12.7778 11.0948 2.56788 15
340 1 -4.95403 -0.173197 -4.4442 18
341 1 9.96179 5.65424 -17.1279 9
342 1 -1.65462 4.24191 5.20412 18
343 1 -9.95156 2.00817 -0.990669 16
344 1 10.3448 6.73711 -4.34361 22
345 1 -10.7393 -0.605708 -6.41889 11
346 1 14.4966 0.843531 -0.768501 12
347 1 10.44 -3.52792 1.24715 17
348 1 -10.3162 11.9245 4.41597 10
349 1 -7.60575 9.64368 -1.0616 18
350 1 16.3472 10.4853 -5.26898 15
351 1 14.3404 2.75664 -4.16365 17
352 1 9.57012 8.80814 3.75242 20
353 1 8.00083 10.4318 5.62554 17
354 1 7.38243 2.95011 2.7974 19
355 1 -8.57006 1.37625 -8.73315 15
356 1 5.73922 8.38454 7.90805 16
357 1 7.49617 13.1855 -4.22793 21
358 1 11.0341 4.56919 2.22678 19
359 1 8.82086 4.34198 0.35115 21
360 1 8.79736 14.64 0.82327 13
361 1 0.963411 -0.437071 -10.9542 18
362 1 -2.15877 14.6691 -14.6113 13
363 1 3.63942 -2.37067 6.4007 14
364 1 17.7043 5.14736 -7.38631 7
365 1 8.74912 9.4599 -10.3098 21
366 1 12.6985 -2.23507 -8.39244 10
367 1 -3.06412 -1.74453 -3.8629 20
368 1 1.78456 8.54218 -6.49964 24
369 1 5.60301 2.78292 -9.14644 18
370 1 2.44386 -1.4333 -6.71575 15
371 1 4.09348 0.279401 8.53935 10
372 1 0.296033 -3.81324 6.74923 14
373 1 8.83245 0.0236441 -16.7733 12
374 1 -8.66946 15.8017 -4.23045 9
375 1 13.5873 0.0338261 -5.61475 15
376 1 -12.7001 9.58256 -1.02068 8
377 1 11.4026 9.09418 -6.14349 21
378 1 8.16293 13.3906 7.12655 8
379 1 -5.50996 12.0689 -14.5719 8
380 1 -1.65562 12.0366 -16.5403 13
381 1 15.2419 4.37749 -1.74127 13
382 1 -6.10307 -4.20747 -5.21287 9
383 1 -3.2193 -1.30447 -1.0626 17
384 1 8.18269 6.13394 2.941 22
385 1 -10.1287 10.4155 -1.60942 17
386 1 7.85534 13.8106 -13.6069 13
387 1 12.0662 -1.04298 2.87587 11
388 1 -8.66225 7.99627 3.56494 13
389 1 -0.0544187 3.90952 -9.85466 19
390 1 1.57718 -8.98001 -3.08067 11
391 1 8.20693 1.27717 4.85397 16
392 1 -2.52798 -7.89903 -3.9592 12
393 1 9.91871 1.41153 -12.661 19
394 1 -11.2779 12.3674 0.771581 11
395 1 -6.64379 11.8468 1.07077 19
396 1 6.87838 -6.17616 -4.89824 17
397 1 11.822 11.0782 -12.4365 15
398 1 13.0646 7.50426 -2.14254 21
399 1 1.97566 -4.05273 4.65641 17
400 1 6.35287 13.645 -7.57215 21
401 1 5.46553 11.6549 -2.80112 22
402 1 -1.74858 13.6018 -8.26416 21
403 1 1.85251 18.492 -5.42345 15
404 1 8.48572 10.0592 -4.16325 21
405 1 5.63578 15.5199 -4.76907 20
406 1 -8.19604 17.0964 1.85199 9
407 1 12.5715 3.42546 -13.4461 15
408 1 2.41028 -7.15721 -1.25328 12
409 1 16.3933 7.20924 -3.16002 12
410 1 3.47975 8.94877 -1.97757 20
411 1 0.117476 18.5565 -11.9445 11
412 1 -4.32798 13.1201 2.7935 18
413 1 2.66226 19.1548 0.243309 10
414 1 -0.723101 -6.6425 -1.18345 15
415 1 9.58359 -6.66835 -3.01264 12
416 1 -0.1768 6.61902 -14.9776 16
417 1 -10.4724 2.13083 -6.60839 16
418 1 4.30737 16.228 -7.28521 21
419 1 11.7195 2.38851 4.55899 11
420 1 -7.37286 -2.22277 -0.304486 13
421 1 12.3184 1.17062 -7.59176 20
422 1 1.08597 11.5506 -13.0104 20
423 2 -9.41984 4.29934 -9.04064 13
424 2 -2.27478 18.844 -5.64595 14
425 2 5.04127 8.83601 -13.8393 19
426 2 -1.83366 5.43938 6.84912 14
427 2 -1.67397 4.33108 -10.8805 17
428 2 4.9451 6.8631 5.56187 21
429 2 -6.87501 7.92451 -0.113134 20
430 2 6.33403 13.7382 -5.53471 20
431 2 -5.53099 2.42762 -12.4791 11
432 2 -4.08536 7.87933 -2.25286 20
433 2 3.70202 -3.48119 -3.44955 16
434 2 1.16996 10.4721 6.42404 12
435 2 8.69741 -2.74203 -13.1848 12
436 2 -7.78106 6.47667 -2.69313 18
437 2 16.4507 11.0738 -10.7285 12
438 2 -3.482 -3.29677 -1.12804 17
439 2 7.34437 -4.33263 0.587667 17
440 2 10.455 3.12928 3.01457 18
441 2 -1.90629 9.42674 -3.68488 20
442 2 -1.92503 9.80958 -6.81033 19
443 2 2.2461 13.7905 2.59354 22
444 2 9.34349 -1.7613 -5.64434 18
445 2 -3.32073 17.809 -10.8405 16
446 2 -0.362699 -0.298577 -15.107 13
447 2 8.65672 4.19885 -16.5725 12
448 2 11.9322 9.58689 -13.8369 12
449 2 -9.50204 12.3958 -2.29251 15
450 2 1.31313 3.11793 -10.9737 19
451 2 5.23415 -1.55996 5.35815 16
452 2 8.27424 6.4186 -0.488528 22
453 2 -11.4824 6.69795 -8.7244 10
454 2 11.6805 15.2865 -4.4064 12
455 2 9.80011 -2.27287 -0.201453 21
456 2 3.33799 11.6544 7.60095 11
457 2 8.91857 17.2635 -5.93205 11
458 2 7.10011 10.8765 -2.8074 20
459 2 -11.7102 10.9281 -0.243221 13
460 2 10.9768 -2.89911 -9.05663 11
461 2 -6.84488 8.39928 -12.5108 16
462 2 -8.03495 4.00129 -0.990545 21
463 2 2.15181 -9.43187 -5.17972 9
464 2 -1.34286 -1.78186 -0.740447 20
465 2 5.49956 -1.28969 1.95987 19
466 2 1.7838 14.1815 6.37575 12
467 2 -11.8179 3.42904 -3.63303 12
468 2 10.4383 -6.07067 -6.64698 9
469 2 13.3006 8.83893 -3.41966 20
470 2 6.0611 -5.68109 -2.21699 16
471 2 10.5385 8.31061 -0.522569 15
472 2 14.5608 1.71851 -6.07294 17
473 2 8.01197 -2.55315 2.08852 17
474 2 2.20881 -2.2268 3.9328 23
475 2 11.9448 1.17749 -5.64475 19
476 2 -1.13078 -8.85314 -4.6566 9
477 2 16.1531 5.52703 -2.74899 11
478 2 -0.720065 2.19534 -9.19649 20
479 2 -7.23571 -1.80762 1.71319 11
480 2 2.85554 -4.48729 -6.88593 20
481 2 1.20681 -1.92668 -5.67652 17
482 2 1.25118 15.881 -2.62474 20
483 2 4.79869 0.855132 -13.6189 16
484 2 8.03969 7.85625 -3.16774 24
485 2 7.72645 10.3452 -14.4252 17
486 2 -10.6678 11.8823 2.53183 11
487 2 -11.5106 9.33617 -10.8655 6
488 2 2.02756 8.86132 3.22697 17
489 2 -8.42648 11.7067 4.3469 13
490 2 3.68136 9.60553 -6.7756 16
491 2 13.4617 -3.33511 -1.59611 10
492 2 13.0791 8.37757 -0.109863 19
493 2 -0.47647 14.1802 4.19608 14
494 2 -6.19922 13.5914 2.17823 16
495 2 14.347 13.3208 -3.524 13
496 2 -1.24784 18.5641 0.935285 13
497 2 1.1325 18.114 -10.3491 13
498 2 0.353342 16.778 3.88843 14
499 2 3.10558 -0.943444 7.58185 13
500 2 10.7014 2.68325 -13.7342 15
501 2 -3.60665 6.26403 5.03363 14
502 2 9.48714 7.33295 -16.7891 9
503 2 -4.95341 1.33588 3.95452 15
504 2 -1.62437 -6.05117 -3.99234 16
505 2 5.4979 0.808129 -10.0769 17
506 2 3.49641 -5.35732 -0.264865 15
507 2 7.35731 0.974304 -15.9392 17
508 2 0.0676675 7.38911 -13.2765 16
509 2 0.874424 18.5653 -0.713585 16
510 2 -10.8751 3.92206 -6.71865 13
511 2 7.1175 14.4442 -12.0447 12
512 2 7.2372 15.4248 -0.0147941 12
513 2 -1.14776 8.18071 3.46839 19
514 2 7.86314 -0.172206 -2.32339 21
515 2 15.353 11.284 -3.93073 17
516 2 11.4837 6.64788 -5.95336 20
517 2 14.8837 10.1048 -13.1262 13
518 2 1.76392 14.3397 -15.1707 9
519 2 10.8619 2.12387 6.09441 7
520 2 3.84492 0.273624 0.172671 19
521 2 8.96772 4.62441 7.50262 12
522 2 2.94526 17.9526 -3.9543 16
523 2 -0.608705 -4.29087 -6.85503 16
524 2 -2.44115 4.7319 -13.8941 15
525 2 2.20437 -1.60406 -15.3732 12
526 2 5.26296 12.1009 1.93848 19
527 2 -9.78765 0.430967 -7.4613 11
528 2 -3.76032 8.85865 4.51243 15
529 2 8.21433 4.35308 2.06988 20
530 2 0.69686 -4.06166 -3.97268 18
531 2 2.30344 9.16941 -10.6339 17
532 2 -3.33256 12.728 -14.9137 14
533 2 -5.87544 11.5335 -12.8114 12
534 2 -0.0218031 -0.290615 8.38418 11
535 2 -7.20379 -2.79491 -9.77836 6
536 2 6.86894 3.32994 -14.3869 17
537 2 9.69518 7.40989 -11.2 17
538 2 -4.67406 -1.58011 -2.66796 19
539 2 1.6153 5.92429 -10.8386 19
540 2 0.552764 5.40547 -8.5244 21
541 2 -0.280933 13.0569 -12.9443 18
542 2 6.271 12.8937 7.1078 10
543 2 14.0191 6.47358 1.68449 13
544 2 -10.8536 6.96786 -5.29677 13
545 2 9.56772 -6.53726 -1.04106 12
546 2 1.82373 9.53059 -13.8867 18
547 2 -7.558 -0.774683 -1.57098 16
548 2 -3.83237 16.1808 -3.041 14
549 2 3.89404 -5.56307 2.70189 10
550 2 1.35556 -6.96841 0.437062 14
551 2 -9.93324 10.1049 -5.01575 13
552 2 -5.87053 -5.32697 -3.65426 8
553 2 -4.31762 -2.37544 3.5543 14
554 2 8.13342 -0.71305 5.20537 11
555 2 9.52478 12.9902 -13.2332 11
556 2 3.84886 14.7393 -4.30297 22
557 2 16.2303 12.632 -12.9813 6
558 2 0.842553 19.0197 -6.92209 12
559 2 -2.99617 -0.419496 -12.9362 12
560 2 -7.38721 -0.33295 -8.01573 13
561 2 3.29604 -8.36709 -2.43438 10
562 2 10.6879 5.56927 0.598642 19
563 2 12.7107 -2.37368 1.34111 12
564 2 5.89604 12.8639 -14.0792 14
565 2 11.3677 6.28405 -8.9768 21
566 2 7.76134 8.51887 4.81922 20
567 2 5.31651 12.0727 -8.01479 20
568 2 3.29453 5.48864 8.50648 14
569 2 -6.34808 11.4878 -0.885699 19
570 2 1.38485 15.9626 -6.34423 23
571 2 -7.18289 2.99348 -9.46407 16
572 2 -4.40882 -3.33548 -11.9053 8
573 2 -2.83728 3.01179 5.61334 16
574 2 10.5784 15.2509 -7.63171 13
575 2 16.1552 10.423 -7.49402 15
576 2 15.3736 1.75406 -8.66198 11
577 2 -11.3735 8.72443 -2.41454 11
578 2 3.50481 14.0022 -0.53591 20
579 2 -0.217927 11.2824 -5.10773 20
580 2 8.54734 10.8399 -11.9908 24
581 2 -8.45351 10.7859 -8.13443 15
582 2 -8.62637 1.33787 0.00700123 16
583 2 12.878 -0.480978 -0.898807 18
584 2 8.67902 -0.867135 -10.2576 14
585 2 -1.69226 18.8835 -2.32543 13
586 2 -6.03873 7.5203 -9.11886 14
587 2 5.52704 -2.7847 -0.985976 21
588 2 0.857293 8.92603 0.881332 19
589 2 7.1326 8.43897 -11.7573 22
590 2 -2.1801 10.0004 -12.5347 17
591 2 1.95685 9.37294 -16.9748 15
592 2 -4.1049 18.1658 -0.343083 13
593 2 -10.2672 5.97708 0.380926 16
594 2 3.73334 2.24422 8.1023 13
595 2 -11.7136 0.810684 -5.55597 11
596 2 2.4274 11.7145 -9.31139 21
597 2 6.34762 5.75107 -4.38843 20
598 2 9.02001 9.25723 1.79409 16
599 2 4.13977 -0.0307494 -17.9325 9
600 2 17.2519 6.68897 -7.67778 9
601 2 13.2101 14.0905 -6.8461 14
602 2 -7.09037 0.110496 -4.40558 16
603 2 -0.0632746 13.7762 -6.80789 21
604 2 -1.47537 4.89503 3.2103 17
605 2 0.976793 -7.02663 -2.48168 17
606 2 0.46526 -0.250287 2.34897 21
607 2 6.22065 3.6615 4.44457 20
608 2 13.0836 7.27524 -15.0762 12
609 2 -1.11506 17.1198 -8.70167 23
610 2 11.7422 0.887942 3.11006 16
611 2 11.0683 -1.30747 -3.15309 21
612 2 -0.469513 17.2503 -13.2271 11
613 2 0.694482 6.35879 7.89573 13
614 2 -4.6501 13.8761 -1.72995 20
615 2 6.27212 4.84689 -1.25336 21
616 2 -3.50921 9.04347 -17.4342 9
617 2 14.2448 4.6334 -13.7445 10
618 2 -4.19561 11.1765 -4.56926 18
619 2 4.63757 7.36636 -10.8488 17
620 2 3.89196 7.96725 8.21949 13
621 2 -7.52706 15.8604 -5.60593 10
622 2 9.88015 3.74539 -6.6351 21
623 2 7.07595 17.0506 4.06312 9
624 2 10.338 9.63153 -4.5793 21
625 2 13.2849 13.5953 -0.305451 9
626 2 -3.52768 8.14532 -13.8822 18
627 2 -6.14662 13.8288 -7.69356 16
628 2 -3.13793 14.9332 -8.83919 23
629 2 12.7808 4.04305 -11.5244 15
630 2 -3.49179 1.43484 -4.72171 20
631 2 13.0601 6.86828 4.49354 11
632 2 2.59449 2.97928 5.81762 20
633 2 5.75402 -7.61958 -4.6418 11
634 2 6.73708 7.61249 -16.0194 17
635 2 3.64944 17.4358 -1.13718 15
636 2 8.94715 16.5254 -3.03594 11
637 2 0.415973 3.13537 -15.0354 15
638 2 -4.26111 -4.46834 -6.38529 12
639 2 16.9931 12.457 -5.89292 7
640 2 4.50207 14.1916 -10.6598 20
641 2 10.9038 0.523729 0.583421 19
642 2 13.3113 4.53804 -4.26499 18
643 2 -5.47895 -4.43579 1.97093 13
644 2 -0.74971 -1.08275 -10.1097 17
645 2 6.48465 9.91264 6.92781 17
646 2 6.21202 13.524 -2.30428 17
647 2 -9.26122 15.6463 -2.2551 10
648 2 -3.1273 -5.35843 4.61553 11
649 2 4.31042 15.7803 1.71931 18
650 2 3.29807 -3.95448 -10.3437 15
651 2 5.86099 2.3835 1.74643 20
652 2 7.08198 6.97237 7.69439 13
653 2 -7.21721 11.9173 -4.81539 16
654 2 -2.03052 8.84556 -0.254185 18
655 2 2.92067 0.0882871 -10.7203 16
656 2 14.5341 2.02651 -2.46167 15
657 2 13.5239 -0.542251 -7.82429 16
658 2 2.24935 12.0486 -6.05907 21
659 2 -5.95707 4.81424 3.96337 14
660 2 -7.15345 6.00902 -10.9322 12
661 2 13.197 4.83534 -7.30361 17
662 2 13.4204 9.8269 -6.43109 20
663 2 -1.24759 8.45186 6.39216 13
664 2 4.81903 10.3514 -15.9583 15
665 2 -0.988084 7.84503 -11.0972 21
666 2 -5.49616 9.76936 -15.3155 10
667 2 2.48368 10.641 -19.1271 5
668 2 -1.62451 2.3734 -13.1312 16
669 2 10.4832 -0.265815 -13.9048 14
670 2 -2.8019 -2.39068 -8.52435 19
671 2 3.95301 -4.12506 5.25003 11
672 2 8.41513 4.48338 -3.52991 24
673 2 5.87749 -1.66494 -5.18735 17
674 2 -0.691765 -6.64867 3.17622 13
675 2 15.7024 13.3456 -8.90662 9
676 2 -4.22279 9.50932 1.18147 21
677 2 -4.26852 0.935259 -7.86587 18
678 2 6.34897 7.71631 -6.48587 21
679 2 1.24823 -1.74028 -1.58198 19
680 2 -6.8863 14.2402 -3.50034 18
681 2 5.74644 4.34703 -16.4689 13
682 2 4.43353 5.30097 0.402535 20
683 2 -12.1269 8.16224 0.0329359 9
684 2 3.08038 17.4628 -7.63282 14
685 2 3.06026 3.43278 -17.192 12
686 2 -2.43438 -0.426966 2.86601 17
687 2 0.296399 3.36637 8.57315 12
688 2 6.64202 9.12681 -0.0363141 20
689 2 4.07158 6.88533 -17.0163 14
690 2 0.214594 0.586914 -12.5739 17
691 2 5.72914 -1.53103 -15.3621 16
692 2 5.57336 -4.18668 -8.44796 11
693 2 -8.37389 15.612 0.63818 12
694 2 -8.68062 11.0029 0.143401 16
695 2 8.94232 -7.022 -4.74641 10
696 2 7.77837 -6.31597 -8.05712 11
697 2 8.60361 -3.4058 -2.69052 17
698 2 10.9395 1.49474 -10.9404 17
699 2 2.28156 14.811 -12.2026 16
700 2 9.89889 10.99 -2.00879 18
701 2 4.47704 -1.67163 -7.50728 18
702 2 4.20741 9.85991 5.29826 18
703 2 -6.85149 17.8853 -0.940887 9
704 2 -6.25026 16.8867 -9.32289 11
705 2 1.33266 -2.13976 -12.0348 15
706 2 -1.57199 -7.7962 -0.195076 11
707 2 -6.43131 3.13335 -4.00143 20
708 2 11.7193 4.70087 -15.9392 12
709 2 -2.88117 12.814 -11.5246 19
710 2 7.60911 10.4513 -5.93782 19
711 2 3.74429 3.14975 -10.825 19
712 2 -3.80183 -1.41421 -5.60647 18
713 2 -4.78374 0.363732 -10.5773 15
714 2 11.2885 11.2242 1.33729 19
715 2 -3.17095 19.7575 -8.47645 9
716 2 -9.66075 1.32116 -2.88897 17
717 2 16.2262 4.00602 -7.34409 10
718 2 9.11585 12.3534 5.72189 9
719 2 14.4189 0.74385 -11.315 10
720 2 1.40628 14.6867 -9.48008 20
721 2 5.97184 16.6591 -6.38227 14
722 2 14.0195 7.53898 -12.1311 13
723 2 12.8597 12.8865 -12.9635 12
724 2 -0.0459133 3.03821 4.58355 15
725 2 1.90173 0.503591 -8.24738 18
726 2 10.438 7.47911 5.51515 12
727 2 -9.37057 15.8811 3.05306 9
728 2 7.24637 0.460267 -0.110703 22
729 2 7.93022 0.653972 -12.2741 18
730 2 -5.5848 11.5958 4.03412 15
731 2 6.16897 -4.28569 3.03497 14
732 2 -4.40371 17.5544 -6.87837 14
733 2 5.1128 14.7545 4.70352 15
734 2 -1.46562 15.8581 -1.59795 20
735 2 7.44537 15.604 -8.8122 12
736 2 -5.35089 5.30108 -13.743 12
737 2 1.4218 1.23966 -17.281 9
738 2 -7.39889 7.01965 2.44218 17
739 2 13.5235 4.63654 -1.16294 20
740 2 -1.42451 19.4205 -11.5007 10
741 2 -10.7685 14.202 0.00915073 11
742 2 -0.973192 0.339547 -6.45914 20
743 2 10.4293 16.009 3.44215 7
744 2 0.206848 -4.14988 -9.76027 16
745 2 -0.856447 13.9314 -16.3168 10
746 2 3.11029 4.21583 -14.0824 16
747 2 -0.674129 10.6867 -17.8466 10
748 2 1.88656 18.5142 1.98091 14
749 2 -2.42509 11.3521 3.65984 16
750 2 10.728 12.8292 -11.1579 15
751 2 -3.84933 -7.61765 -2.42094 10
752 2 13.5941 1.71134 -14.1227 12
753 2 0.56118 5.07299 -3.49803 18
754 2 -7.37361 -3.86912 -6.77292 7
755 2 -5.46025 14.8858 -10.9266 15
756 2 -2.09464 2.4502 -1.81576 18
757 2 2.89392 11.9049 -12.6924 20
758 2 9.74351 -5.18308 1.64968 12
759 2 7.77941 5.78056 4.81156 21
760 2 3.83412 4.71118 3.86816 17
761 2 -8.7484 4.53541 2.10884 13
762 2 6.67955 6.66712 -13.7409 16
763 2 12.3846 12.8794 3.80704 10
764 2 -5.94046 0.62879 1.3817 18
765 2 -2.64345 -4.10519 1.73604 18
766 2 -3.51891 2.98465 1.48019 18
767 2 -1.08673 10.7639 -15.1998 17
768 2 -6.61933 4.93887 -7.01321 16
769 2 -1.94623 13.1023 -3.45107 26
770 2 2.93896 0.311049 3.71225 20
771 2 13.7741 10.9663 -1.38858 16
772 2 4.37728 -7.44773 -7.16232 13
773 2 -10.8865 5.2996 -1.87998 15
774 2 -4.0481 6.56349 -11.5056 19
775 2 -7.03059 8.37185 4.28748 14
776 2 6.15168 4.4931 8.1885 16
777 2 4.62499 -0.0779643 -3.09408 14
778 2 9.30652 1.4182 -4.20814 20
779 2 10.1478 1.11058 -16.4351 12
780 2 -0.557924 13.8139 1.70784 19
781 2 -1.05108 4.39504 -5.9858 16
782 2 1.9468 -3.4554 6.36932 12
783 2 8.19917 1.18458 2.75008 19
784 2 -2.91169 0.0998305 5.71579 15
785 2 5.75087 1.0825 6.97659 14
786 2 7.97387 13.2468 -8.88383 17
787 2 15.521 8.45153 -9.39512 12
788 2 7.44155 2.71343 -9.39696 20
789 2 6.61992 7.0956 2.17899 19
790 2 10.0628 12.1813 -8.09175 17
791 2 14.5017 6.94011 -6.40395 20
792 2 8.35817 12.2247 0.289272 14
793 2 15.3955 8.08298 -1.59629 15
794 2 -0.930516 -4.96537 5.76702 11
795 2 -0.760521 -2.21935 6.55602 14
796 2 -6.30341 3.75898 1.43093 19
797 2 5.85598 -4.96672 -5.86773 18
798 2 4.771 2.724 -1.47473 17
799 2 13.5395 2.26608 0.323208 15
800 2 2.48911 -2.19511 0.650773 18
801 2 -10.2241 13.7768 5.14104 7
802 2 9.74594 7.86439 -14.0494 16
803 2 6.29733 -4.66443 -14.0709 7
804 2 11.7388 -3.42216 -6.4802 11
805 2 -0.530159 8.07125 -16.1212 14
806 2 -1.19222 15.1829 -11.5967 21
807 2 9.24431 13.3557 -3.66332 16
808 2 -8.78337 10.5164 -11.1011 10
809 2 10.7537 10.2123 4.456 13
810 2 -11.318 9.16732 -7.88173 11
811 2 11.4422 2.41549 -2.59077 21
812 2 3.84907 14.1474 -7.29794 22
813 2 16.0941 8.42341 -4.50433 15
814 2 7.08487 4.71475 -11.3288 19
815 2 10.6731 -2.22326 3.17002 12
816 2 -11.2406 3.39565 -0.0936767 14
817 2 11.4629 6.11381 -2.77259 20
818 2 11.8882 -4.92167 0.0722468 11
819 2 13.0888 12.3821 -9.33182 16
820 2 -3.13926 17.7416 3.23809 9
821 2 -3.21036 9.44561 -9.54644 15
822 2 11.7689 12.72 -4.96893 18
823 2 13.6334 -1.23483 -4.36796 12
824 2 -9.93369 -1.15416 -4.95885 11
825 2 6.97069 14.2731 2.74072 17
826 2 11.3424 -5.487 -3.45292 11
827 2 6.14204 16.727 -3.26958 15
828 2 -4.62162 -6.32247 -0.165187 13
829 2 2.22661 9.18817 -3.66961 19
830 2 -3.58351 14.8545 3.55859 15
831 2 1.48354 5.84441 -15.9566 12
832 2 -6.07666 12.4093 -9.74631 16
833 2 -6.42782 -3.90189 -0.549528 13
834 2 7.96122 2.57705 6.31269 16
835 2 -8.36695 7.57325 -7.87695 16
836 2 12.949 4.12273 2.6509 15
837 2 12.4406 2.7469 -8.84678 20
838 2 -3.4353 15.867 -13.3832 12
839 2 10.5504 10.014 -10.5734 17
840 2 0.606677 -6.82016 -5.68396 17
841 2 0.102186 18.4129 -4.19618 18
842 2 10.5536 14.0025 1.58041 14
843 2 7.36145 0.489832 -6.63614 18
844 2 7.95868 -4.01379 -10.9088 10
845 1 3.1212 1.71273 -6.66922 18
846 1 -2.68741 -0.702075 -9.37335 19
847 1 0.236164 7.1601 -9.21582 18
848 1 2.75949 7.33389 -10.115 19
849 1 -0.15815 6.14294 -11.8923 18
850 1 2.61038 5.37002 -8.18564 20
851 1 -3.11097 -5.16278 -11.3352 8
852 1 5.40512 5.04105 -10.266 18
853 1 -4.14921 -2.71441 -7.18468 16
854 1 -1.14208 -0.244801 1.48681 19
855 2 -8.35937 2.47242 -6.71628 17
856 2 2.18487 3.24198 -5.77299 18
857 2 -3.96036 3.29591 -10.1319 16
858 2 3.63214 5.92511 -5.68305 21
859 2 -1.92618 -3.94561 -11.4522 11
860 2 -1.03098 7.46407 -7.27963 18
861 2 -4.18885 4.04547 -6.083 16
862 2 8.60945 -1.81688 -16.0986 9
863 2 1.06942 9.88955 -7.50847 20
864 2 -2.4888 6.64909 -5.03432 19
865 1 -8.21573 2.29053 -3.94979 19
866 1 -4.0749 0.0538127 1.86213 16
867 1 -0.847444 -3.36295 -0.0255768 18
868 1 1.84571 -3.61925 -0.383673 18
869 1 -3.12396 -4.70545 0.0766765 21
870 1 -2.11233 8.09731 -1.96426 19
871 1 -3.24972 10.9283 -8.01794 17
872 1 7.17782 4.3779 5.97411 20
873 1 -1.66687 3.33637 2.5499 17
874 1 -5.93533 8.66522 1.40413 22
875 1 3.26739 4.88315 2.02137 17