ITEM: TIMESTEP
254000
ITEM: NUMBER OF ATOMS
500
ITEM: BOX BOUNDS pp pp pp
-30.0 30.0
-30.0 30.0
-30.0 30.0
ITEM: ATOMS id type x y z Coordination
1 1 -6.21067 -5.18241 -7.50256 10
2 1 -6.32689 -6.09445 -2.90849 14
3 1 -9.6849 -6.03703 2.01764 10
4 1 -7.8468 -2.98039 -8.57739 8
5 1 -5.52443 -1.05729 -6.54695 23
6 1 -6.59282 -3.26619 -4.63904 19
7 1 -10.5477 -2.9519 -3.41684 10
8 1 -8.73315 -4.63842 -5.47106 13
9 1 -9.05185 -5.82484 -2.36103 11
10 1 -5.98519 -0.864211 -2.81393 22
11 1 -9.1396 -1.07718 -0.96483 18
12 1 -6.64042 -3.34388 -0.995192 21
13 1 -4.30264 -3.51881 -9.28902 11
14 1 1.37443 -6.84021 -7.44615 11
15 1 -3.78101 -5.84973 -4.55332 16
16 1 -0.955751 -7.75607 -4.91004 12
17 1 -3.66365 -8.65267 -3.19642 11
18 1 -0.526503 -6.22647 -2.36337 24
19 1 -3.58986 -6.21204 -1.00111 21
20 1 -1.35519 -9.02992 -1.31561 17
21 1 0.125323 -1.19024 -9.67859 12
22 1 -3.71762 0.308269 -9.74073 15
23 1 -2.70582 -1.04912 -7.55752 19
24 1 -0.945395 -4.94913 -7.61454 12
25 1 -3.65792 -3.62156 -6.06269 22
26 1 -0.0698722 -1.92583 -6.15286 20
27 1 -2.91092 -0.97588 -4.31105 21
28 1 -0.771048 -3.6461 -4.20413 18
29 1 -3.95567 -3.53343 -2.60915 22
30 1 -0.313551 -0.711675 -2.50691 23
31 1 -3.17205 -0.970827 -0.87059 21
32 1 -1.28848 -3.54558 -0.786163 23
33 2 -5.21675 -4.90179 -6.02914 18
34 2 -7.4423 -5.35471 -1.10186 14
35 2 -7.31339 -1.16475 -7.97571 10
36 2 -9.06514 -2.92466 -4.71353 12
37 2 -7.90223 -4.24384 -6.96118 11
38 2 -8.10255 -5.5446 -3.97793 12
39 2 -6.50212 -1.31978 -4.77184 17
40 2 -10.172 -1.1609 -2.55604 11
41 2 -5.83904 -3.96259 -2.84406 23
42 2 -10.3642 -4.27418 -1.9365 12
43 2 -7.1068 -1.39097 -0.867232 22
44 2 0.877504 -5.06864 -8.44709 10
45 2 -6.20243 -3.85799 -8.931 10
46 2 -2.86061 -7.51897 -5.02066 10
47 2 0.647499 -7.47488 -5.83451 14
48 2 -4.34964 -6.87974 -2.9214 16
49 2 -0.49906 -8.50912 -3.2428 13
50 2 -3.224 -8.7478 -1.30841 13
51 2 -1.66631 -6.78949 -1.01195 20
52 2 -0.0592154 0.531368 -10.029 15
53 2 -3.6861 -1.62547 -9.39962 15
54 2 1.72453 -1.94473 -9.27152 14
55 2 -2.70707 -4.49162 -7.92556 14
56 2 -0.65622 -1.26735 -7.88779 18
57 2 -3.78529 -1.64447 -6.06962 20
58 2 -0.131413 -3.99403 -6.16048 19
59 2 -2.9638 -4.07912 -3.97498 20
60 2 -1.04483 -1.48267 -4.41995 22
61 2 -3.97053 -1.66817 -2.75334 23
62 2 -0.288432 -4.30958 -2.58765 21
63 2 -3.21441 -4.17306 -0.753694 21
64 2 -1.18934 -1.63291 -0.980527 25
65 1 -10.9034 -3.49692 -0.256285 11
66 1 -6.6237 -5.88517 0.514859 14
67 1 -6.55715 -6.47687 3.70883 18
68 1 -5.96771 -6.22823 6.81396 14
69 1 -11.3628 -3.88232 2.95902 10
70 1 -6.10177 -0.687902 0.790379 19
71 1 -9.44543 -1.34136 2.06155 15
72 1 -6.89343 -3.44412 2.39024 21
73 1 -8.90205 -5.02713 5.30753 14
74 1 -5.53191 -0.924149 4.15002 19
75 1 -10.3155 -1.8344 5.39151 11
76 1 -7.1096 -2.92138 6.16799 15
77 1 -5.21714 -0.405547 7.34466 18
78 1 -3.91122 -3.3425 7.3531 19
79 1 -4.27422 -9.14538 0.278481 12
80 1 -0.653146 -6.29955 0.579859 20
81 1 -3.47849 -6.88031 2.31673 20
82 1 -1.55622 -10.2815 1.47011 11
83 1 -0.441701 -7.01928 3.94134 21
84 1 -3.24131 -6.60832 5.25155 22
85 1 -2.84127 -9.59637 3.66488 13
86 1 -3.55575 -8.8737 7.10379 8
87 1 -4.13676 -3.51626 0.638327 23
88 1 -0.411843 -0.930013 0.503464 21
89 1 -3.07891 -1.37682 2.50569 22
90 1 -1.48308 -4.32843 2.61111 21
91 1 -4.39701 -4.45943 4.23606 23
92 1 -0.0361415 -1.58182 4.06072 22
93 1 -2.55682 -1.48348 5.58878 22
94 1 -1.12484 -4.16491 5.47169 21
95 1 -2.77959 -6.35899 8.38058 12
96 1 0.286543 -1.55114 7.3702 22
97 1 -2.78217 -0.668381 9.21681 14
98 1 -0.974834 -3.65394 8.675 14
99 1 2.03416 -4.33704 10.4329 10
100 2 -7.54203 -6.04773 2.12429 12
101 2 -7.4629 -6.01662 5.76185 12
102 2 -11.1211 -4.8807 1.11102 8
103 2 -5.98367 -4.0312 0.823406 18
104 2 -9.87914 -5.13422 3.68866 11
105 2 -7.48222 -1.55676 2.0751 16
106 2 -10.625 -2.09133 3.47163 13
107 2 -5.77413 -2.95784 4.2237 21
108 2 -8.94347 -3.18787 5.82157 12
109 2 -6.44471 -1.15054 5.91886 17
110 2 -5.69732 -4.14878 6.76456 17
111 2 -3.62377 -1.40455 7.44799 18
112 2 -4.45307 -6.97174 0.649697 18
113 2 -0.389933 -9.79596 0.0930586 15
114 2 -3.44528 -9.47461 1.99745 12
115 2 -1.44899 -6.38289 2.38807 21
116 2 -4.72289 -6.3176 4.0349 19
117 2 -0.993272 -9.96844 3.10195 11
118 2 -3.44732 -8.56327 5.19831 14
119 2 0.678276 -8.36627 4.77896 14
120 2 -4.33951 -6.90728 6.84565 14
121 2 -1.85134 -7.8576 7.47201 11
122 2 -4.33375 -1.34678 0.735544 21
123 2 -0.398082 -4.34414 0.790905 21
124 2 -3.51537 -4.21333 2.47996 19
125 2 -1.4122 -0.816413 2.10391 20
126 2 -3.32692 -0.369174 4.05501 21
127 2 -0.103798 -3.52501 3.67362 22
128 2 -2.89385 -3.55928 5.09603 20
129 2 -0.642966 -0.766941 5.68449 21
130 2 -2.39507 1.128 9.16398 15
131 2 -0.119102 -3.3306 6.872 21
132 2 -2.70332 -4.54211 8.22107 15
133 2 -0.934456 -1.33363 9.08194 18
134 2 0.244037 -4.56009 9.72612 12
135 2 3.12949 -5.14286 9.07589 11
136 1 -6.49111 0.544806 -8.61292 11
137 1 -8.71469 -1.04439 -4.66236 15
138 1 -5.39272 4.60397 -7.49551 13
139 1 -9.33943 2.90575 -5.23632 7
140 1 -6.92483 1.6234 -4.90099 19
141 1 -9.63145 0.960452 -2.64134 15
142 1 -6.26698 3.94315 -2.82241 19
143 1 -9.46801 3.68229 -1.5465 13
144 1 -7.1407 1.1882 -0.948642 19
145 1 -7.29837 5.53031 -5.41379 12
146 1 -7.54293 6.79857 -2.26693 11
147 1 -0.935774 1.78272 -11.2058 12
148 1 -4.69944 2.74121 -10.8291 9
149 1 0.111714 4.26143 -9.65643 16
150 1 -2.8507 4.16705 -8.26672 17
151 1 -1.05283 1.316 -8.17726 20
152 1 -4.03926 1.44694 -6.30216 20
153 1 -0.160686 3.68156 -6.45155 21
154 1 -3.4239 4.22724 -4.70391 21
155 1 -1.19162 1.7743 -4.4508 23
156 1 -4.22488 1.68633 -2.90726 20
157 1 -0.238512 4.37316 -3.13443 21
158 1 -3.26651 4.48128 -1.40879 23
159 1 -1.15547 1.76386 -1.04519 21
160 1 -1.23736 6.53508 -7.71567 12
161 1 -4.05358 7.04169 -6.37388 13
162 1 -2.78664 9.93603 -2.88979 11
163 1 -1.5643 6.67572 -4.37363 18
164 1 -4.6404 6.75049 -3.11893 19
165 1 -0.0961479 9.60819 -3.78184 11
166 1 -4.17683 8.04863 -0.61853 15
167 1 -1.16275 7.14353 -1.38997 20
168 2 -5.31868 1.06363 -9.89017 11
169 2 -4.71823 4.06393 -9.45789 10
170 2 -5.88318 0.915202 -6.37388 19
171 2 -9.04271 0.807759 -4.44374 15
172 2 -7.42965 3.66354 -5.24442 12
173 2 -9.65608 3.21387 -3.35877 13
174 2 -6.24512 1.18237 -2.94791 20
175 2 -9.0728 0.879414 -0.774144 17
176 2 -7.03111 3.14956 -1.031 21
177 2 -5.80867 6.14801 -6.28919 11
178 2 -6.43955 5.78647 -3.44618 14
179 2 -8.88881 5.56686 -1.46416 12
180 2 -5.71142 7.57372 -1.73917 14
181 2 -2.88938 1.61305 -11.0214 12
182 2 0.526863 3.01794 -11.0726 11
183 2 -2.90535 0.775119 -7.92341 21
184 2 -0.996037 3.42685 -8.25208 20
185 2 -3.93491 3.57201 -6.51492 19
186 2 -0.0894397 1.63254 -6.46662 20
187 2 -3.21721 1.15144 -4.51526 22
188 2 -1.35023 3.71754 -4.82281 22
189 2 -4.11674 3.74325 -2.95014 18
190 2 -0.354457 1.36689 -2.61683 22
191 2 -3.0734 0.936408 -1.37495 22
192 2 -1.23914 4.0093 -1.39028 21
193 2 0.0941198 6.09853 -9.1705 15
194 2 -2.95321 5.99658 -7.5087 15
195 2 -0.114793 6.27649 -6.08454 18
196 2 -3.47906 6.13925 -4.55375 21
197 2 -1.81502 8.36905 -3.6463 15
198 2 -3.38956 9.73666 -1.25739 12
199 2 -0.305344 6.29906 -2.97027 20
200 2 -3.21157 6.31857 -0.827017 20
201 2 -1.03592 10.7536 -2.4789 11
202 1 -10.3731 1.66047 0.569226 13
203 1 -6.48761 3.96928 0.623158 20
204 1 -9.16196 3.7165 2.58787 15
205 1 -6.3789 1.58482 2.69137 21
206 1 -10.2951 1.1363 4.0697 11
207 1 -5.86097 2.20033 5.75272 22
208 1 -8.59762 3.5239 5.64182 13
209 1 -7.03389 2.36863 8.57765 10
210 1 -6.36707 5.6912 7.23437 10
211 1 -7.99465 0.126286 5.81725 16
212 1 -9.7408 5.67528 0.363522 10
213 1 -4.01813 7.97506 2.94352 14
214 1 -7.5039 6.98318 2.39142 11
215 1 -5.34921 7.99783 5.11821 10
216 1 -4.01293 1.94857 0.659373 22
217 1 -0.116162 4.33887 0.222111 21
218 1 -2.98706 4.069 2.47729 20
219 1 -1.12719 1.28956 2.16597 19
220 1 -3.25674 1.67804 4.13875 23
221 1 -0.153703 3.52742 3.74506 24
222 1 -2.55192 3.77953 5.81737 18
223 1 -0.951968 1.0778 5.78551 20
224 1 -3.42934 1.93448 7.86237 16
225 1 0.148847 3.84131 7.24379 21
226 1 -2.50375 4.99571 9.08894 13
227 1 -0.642612 2.16571 9.41128 17
228 1 0.393375 -0.840027 10.3922 15
229 1 0.625727 4.78581 9.99142 14
230 1 -4.41625 5.68612 0.682573 18
231 1 -0.0336757 11.4018 -0.86896 11
232 1 -2.8003 10.3574 0.495267 9
233 1 -1.58641 6.3601 1.926 19
234 1 -5.59539 4.62615 3.71787 22
235 1 0.183111 10.1367 2.42404 11
236 1 -1.56393 8.29533 4.88329 16
237 1 0.441401 6.00483 5.22173 20
238 1 -3.76085 7.89403 7.89745 10
239 1 -0.690239 7.39518 8.27035 14
240 2 -9.81578 -2.14907 0.389029 16
241 2 -10.0304 3.54158 0.33142 15
242 2 -5.9521 1.38936 0.718704 17
243 2 -10.1601 0.791765 2.31769 13
244 2 -6.80605 3.45284 2.68035 20
245 2 -9.7519 3.02382 4.09985 13
246 2 -5.68747 0.93536 4.31781 21
247 2 -9.64271 0.0609544 5.35707 12
248 2 -6.7182 4.22094 8.54292 9
249 2 -5.36901 1.45161 7.46966 16
250 2 -7.7994 1.96757 6.7866 13
251 2 -6.2607 5.765 1.33755 20
252 2 -9.08789 5.64074 2.19875 11
253 2 -6.03166 7.3603 3.52126 12
254 2 -6.60338 4.07317 5.35214 16
255 2 -5.36472 7.44694 7.01516 8
256 2 -4.20829 3.90741 0.621054 20
257 2 -0.156802 1.12439 0.484831 23
258 2 -2.84881 2.15072 2.17774 19
259 2 -1.04419 3.92152 2.02805 22
260 2 -3.80184 3.83977 4.23401 17
261 2 -0.194981 1.31234 3.83615 22
262 2 -2.718 1.66372 6.167 22
263 2 -0.818768 4.63194 5.54371 22
264 2 -3.30033 4.00019 7.68455 16
265 2 0.0752523 1.84845 7.42228 21
266 2 -0.86419 4.10326 8.90362 16
267 2 -2.29255 6.85888 8.46274 11
268 2 0.681824 0.977946 10.3125 16
269 2 -4.06153 8.90642 1.38964 13
270 2 -0.1326 6.32379 0.384912 16
271 2 -3.46208 6.23441 2.32358 18
272 2 -1.0373 10.5557 0.933068 10
273 2 -3.43664 8.31966 4.84021 12
274 2 -0.610451 6.93302 3.79602 20
275 2 -0.202217 7.77803 6.60093 15
276 2 -0.154285 9.83725 4.27529 11
277 2 1.13357 6.14897 8.97116 13
278 1 2.03833 -3.8131 -9.30441 13
279 1 4.57482 -6.22691 -6.16815 12
280 1 2.20572 -6.52444 -4.42543 19
281 1 5.26637 -6.6124 -2.80693 18
282 1 1.16287 -9.41298 -2.81296 12
283 1 7.44325 -8.21785 -1.17088 9
284 1 2.13743 -6.33379 -0.772273 22
285 1 4.14315 -9.17192 -1.25233 13
286 1 2.06388 1.29367 -9.81131 19
287 1 2.7159 -1.28201 -7.78413 20
288 1 5.47638 -1.26606 -9.53775 11
289 1 5.40262 2.46568 -10.0364 11
290 1 5.25512 -3.59531 -7.87446 16
291 1 2.239 -3.87656 -6.21357 23
292 1 5.57543 -1.14906 -6.0846 21
293 1 2.79812 -0.789291 -4.12523 22
294 1 4.82355 -3.88376 -4.35339 21
295 1 1.60773 -3.41317 -2.71126 24
296 1 5.54886 -1.38227 -2.74033 20
297 1 2.43079 -0.893122 -1.16521 22
298 1 4.18369 -3.65426 -1.06977 23
299 1 8.75536 -6.65279 0.760355 13
300 1 7.94887 -2.13192 -7.41268 13
301 1 7.75988 -4.77202 -5.7353 12
302 1 10.2217 -3.55499 -5.22367 11
303 1 7.54181 -3.74542 -2.60146 21
304 1 11.2364 -2.52514 -2.6578 11
305 1 8.64239 -1.28594 -1.02286 22
306 1 9.60636 -5.77843 -2.24486 10
307 2 2.81113 -6.08926 -6.67467 14
308 2 4.07422 -7.19723 -0.992475 19
309 2 4.23077 -6.95985 -4.36388 13
310 2 1.37153 -6.68543 -2.69633 20
311 2 2.25771 -9.5543 -1.25863 13
312 2 5.82302 -8.51612 -1.88128 9
313 2 4.53554 -1.13839 -7.76214 18
314 2 3.43495 -3.83745 -8.12651 16
315 2 6.6324 -2.56588 -8.63299 11
316 2 1.97233 -1.25699 -6.02059 20
317 2 5.8667 -4.42992 -5.96783 20
318 2 2.7134 -4.25642 -4.22218 21
319 2 4.51045 -1.8693 -4.49493 22
320 2 1.38896 -1.43556 -2.74242 22
321 2 5.58667 -4.03998 -2.73279 17
322 2 2.21762 -4.06991 -1.09189 20
323 2 4.42496 -1.62883 -1.15474 22
324 2 8.73349 -4.37442 -0.60038 18
325 2 8.85249 -3.48203 -6.5328 10
326 2 8.20436 -5.11012 -4.02021 14
327 2 10.3905 -1.97636 -4.30663 13
328 2 7.62243 -1.66028 -2.74424 21
329 2 8.53787 -4.80263 2.05173 14
330 2 10.7459 -4.59576 -2.84749 10
331 1 1.39575 -9.17048 0.696522 16
332 1 5.41202 -6.6364 0.30897 18
333 1 2.41742 -6.49853 2.10562 19
334 1 3.82648 -8.92404 2.73979 15
335 1 0.662951 -10.0316 3.89347 12
336 1 5.82711 -7.81695 5.57135 10
337 1 2.49395 -7.33396 5.35801 17
338 1 3.31949 -6.69589 7.97813 11
339 1 1.40325 -3.52349 0.789617 22
340 1 5.54318 -1.05072 0.519522 22
341 1 2.66138 -0.86983 2.09861 22
342 1 4.61052 -3.72488 1.97126 19
343 1 2.1527 -4.09723 3.99695 21
344 1 5.39063 -1.58749 3.79134 22
345 1 2.9579 -1.93882 5.70826 23
346 1 5.07958 -3.70552 5.58872 19
347 1 1.35986 -4.67712 6.72348 20
348 1 5.69795 -1.20183 7.45464 16
349 1 3.07953 -1.08233 9.18153 15
350 1 4.53298 -4.00195 8.38715 16
351 1 -0.268724 -7.54718 6.5646 15
352 1 6.80127 -8.25632 2.83218 10
353 1 7.3578 -3.67447 0.85203 17
354 1 11.2729 -0.942481 0.696722 12
355 1 8.49133 -1.2127 2.10759 18
356 1 10.1574 -4.24527 0.924434 13
357 1 7.2811 -5.03302 3.60474 16
358 1 8.0278 -2.22546 5.07886 14
359 1 7.52396 -5.30423 6.77714 10
360 2 1.24468 -7.17469 0.811018 21
361 2 3.94599 -7.49954 1.5721 17
362 2 5.27312 -8.85988 3.68319 9
363 2 1.63472 -6.1746 3.96586 21
364 2 2.24545 -9.75015 2.58165 14
365 2 4.25497 -7.34626 6.34531 15
366 2 -1.27738 -6.01661 5.38328 22
367 2 1.44501 -1.44506 0.723022 23
368 2 5.64807 -4.54581 0.191273 21
369 2 2.77946 -4.32357 2.23039 20
370 2 4.48481 -1.86772 2.14733 22
371 2 1.88993 -1.40091 4.0316 21
372 2 5.65642 -3.84189 3.55709 19
373 2 3.03677 -3.81144 5.84397 22
374 2 5.03804 -1.83701 5.66154 19
375 2 2.22553 -0.993369 7.27455 23
376 2 5.81412 -4.73552 7.21935 16
377 2 1.61479 -6.6617 6.98255 15
378 2 4.56069 -2.2093 8.78578 16
379 2 1.66892 -2.13936 10.2199 14
380 2 7.19794 -7.74283 0.802928 15
381 2 6.87046 -6.87454 4.23551 14
382 2 7.46475 -1.77886 0.543643 23
383 2 9.04406 -7.05806 -1.22027 11
384 2 10.0637 -2.34328 1.3638 12
385 2 7.45232 -0.834624 3.78119 18
386 2 7.87528 -4.14236 5.24068 12
387 2 7.73736 -1.18556 6.62501 13
388 1 2.16805 3.81171 -11.542 10
389 1 3.43806 4.3689 -8.11869 22
390 1 4.34855 1.12328 -7.6921 19
391 1 1.68444 1.57215 -6.01213 23
392 1 6.30665 3.96374 -6.92678 13
393 1 2.8621 4.16015 -4.94835 20
394 1 4.77354 1.54709 -4.27327 21
395 1 1.58997 2.00254 -2.62762 22
396 1 6.04484 4.54671 -3.45312 18
397 1 2.66717 4.40646 -1.43496 22
398 1 4.22677 1.68016 -1.24745 20
399 1 1.8705 6.4872 -9.3171 11
400 1 4.51196 7.71181 -7.56342 8
401 1 1.68765 6.26816 -6.55814 17
402 1 5.30211 8.6339 -3.7265 12
403 1 4.77952 6.36804 -5.03467 17
404 1 1.75215 6.96013 -3.196 21
405 1 2.67467 10.1176 -2.25165 13
406 1 4.56356 6.90221 -1.41634 22
407 1 7.28515 1.28131 -5.78707 16
408 1 9.26308 3.11695 -4.29781 10
409 1 8.75901 -0.824622 -4.23545 17
410 1 7.27459 1.54982 -2.54251 23
411 1 8.54924 3.7995 -1.30444 16
412 1 10.5514 1.52594 -1.28965 13
413 1 7.39517 7.3486 -2.517 13
414 2 3.41999 2.60979 -10.866 11
415 2 2.31151 4.83277 -9.80043 14
416 2 5.12388 0.519176 -9.79655 11
417 2 2.51663 1.18224 -7.95045 20
418 2 5.08271 3.19911 -8.26884 15
419 2 1.88606 4.20955 -6.72911 22
420 2 5.43953 0.971285 -6.02642 20
421 2 2.70076 1.30101 -4.44711 21
422 2 4.8714 3.62131 -4.73383 22
423 2 1.59101 3.77941 -3.29732 22
424 2 5.1941 0.680083 -2.54979 23
425 2 2.32034 1.10182 -1.03784 22
426 2 4.64719 3.62952 -1.03997 24
427 2 2.77268 7.20815 -7.75345 12
428 2 5.45335 5.97631 -6.91694 15
429 2 2.67878 6.08039 -4.75669 22
430 2 4.83471 8.18799 -5.65449 9
431 2 1.74745 9.07431 -3.25091 13
432 2 5.60909 6.52119 -3.34411 18
433 2 2.65617 6.5771 -1.42626 20
434 2 4.30336 9.3957 -2.24867 15
435 2 7.56015 -0.933498 -5.93215 16
436 2 7.79855 3.10568 -6.14435 12
437 2 8.43417 1.16952 -4.13139 17
438 2 7.5345 3.51133 -3.08478 17
439 2 10.6487 -1.37004 -1.2549 15
440 2 8.20995 0.696252 -0.942487 22
441 2 10.0546 2.9633 -2.47376 10
442 2 7.81274 5.74903 -1.39722 15
443 1 1.6511 1.76608 0.870244 23
444 1 5.37101 4.3309 0.530777 20
445 1 2.89269 4.30632 2.42962 23
446 1 4.74383 1.51788 2.36232 21
447 1 1.62081 1.321 4.28225 21
448 1 5.71252 3.79099 4.06918 20
449 1 2.88225 3.5533 5.79028 20
450 1 4.86199 0.786193 5.71792 21
451 1 1.79291 0.999226 7.53193 20
452 1 5.33691 4.3481 7.34006 14
453 1 4.22839 4.74394 10.0963 10
454 1 5.01295 1.49339 9.07606 14
455 1 2.39327 1.95043 10.6879 11
456 1 1.79378 6.85253 0.353997 18
457 1 5.88185 9.43463 -0.421657 11
458 1 2.66634 9.97713 0.6632 13
459 1 4.71876 7.40665 2.08238 18
460 1 1.57623 7.19202 3.25659 19
461 1 1.00853 9.18741 5.53932 12
462 1 4.07286 6.68984 5.16416 17
463 1 2.41494 6.28938 7.88989 17
464 1 7.25836 1.5666 0.61613 24
465 1 8.24939 4.18359 2.23436 16
466 1 10.0537 1.75767 2.04961 12
467 1 7.55466 1.35116 3.89874 20
468 1 8.94924 3.56441 5.14281 8
469 1 7.72915 0.506573 7.5479 8
470 1 7.40865 6.91766 0.384044 15
471 1 7.35292 6.44883 3.98714 11
472 2 1.70073 3.69595 0.67703 22
473 2 5.42184 1.06953 0.711482 21
474 2 2.65137 1.07621 2.49798 20
475 2 5.35812 6.3971 0.145021 21
476 2 1.59436 3.69612 4.19288 20
477 2 5.52383 1.61173 4.12885 20
478 2 3.0074 1.65384 5.92579 22
479 2 4.44453 4.81874 5.37891 18
480 2 1.77644 4.76798 6.94659 23
481 2 5.96002 0.696742 7.50607 15
482 2 3.35829 0.666383 9.6273 14
483 2 4.85259 3.30949 8.92066 13
484 2 2.39708 3.81399 10.3556 14
485 2 1.68878 10.8784 -0.617369 11
486 2 4.22087 8.8153 0.392021 15
487 2 2.95366 6.26481 2.16526 20
488 2 7.40117 8.3014 -0.899082 11
489 2 1.51267 8.74867 1.86977 15
490 2 5.45659 7.03195 3.66531 15
491 2 2.41348 7.59008 4.97132 14
492 2 4.22378 5.61882 8.24286 10
493 2 7.6124 3.44934 0.428528 20
494 2 10.9397 0.919379 0.454948 12
495 2 8.46782 0.674224 2.08855 18
496 2 9.02252 2.90113 3.28312 14
497 2 4.65405 3.71527 2.11775 22
498 2 8.4284 1.81943 6.09399 11
499 2 7.45311 4.6501 4.70142 14
500 2 7.45268 5.896 2.16508 14
