ITEM: TIMESTEP
363000
ITEM: NUMBER OF ATOMS
500
ITEM: BOX BOUNDS pp pp pp
-30.0 30.0
-30.0 30.0
-30.0 30.0
ITEM: ATOMS id type x y z Coordination
1 1 -6.11378 -5.71438 -6.43576 13
2 1 -6.17389 -6.4301 -3.27769 16
3 1 -9.33984 -7.49351 1.53873 10
4 1 -7.92307 -2.71678 -7.48892 8
5 1 -6.51206 -0.130693 -5.63584 17
6 1 -9.27071 -1.62765 -4.28952 16
7 1 -10.7117 -3.29113 -1.80633 13
8 1 -8.46651 -4.34498 -4.30997 14
9 1 -9.13774 -6.45505 -1.65133 11
10 1 -6.09885 -1.418 -3.34204 22
11 1 -11.5596 -1.51054 0.48583 11
12 1 -7.4481 -3.33687 -1.32079 20
13 1 -4.90505 -2.81471 -8.28393 14
14 1 -0.923904 -5.54688 -6.99752 18
15 1 -3.42665 -5.62304 -8.12592 13
16 1 -0.948988 -8.1381 -4.82125 10
17 1 -3.318 -6.2949 -4.74442 17
18 1 -0.260862 -6.1792 -2.4551 20
19 1 -3.34842 -7.03894 -1.2681 19
20 1 -1.50849 -9.21642 -1.53337 13
21 1 2.10563 -3.64586 -10.2619 11
22 1 -2.67177 -1.13041 -10.293 12
23 1 -1.41852 -2.90506 -7.77294 21
24 1 -0.953075 -4.50296 -10.572 10
25 1 -3.57347 -2.45416 -5.25071 18
26 1 -0.286869 -0.539549 -5.69379 21
27 1 -3.23289 -0.209063 -4.23312 19
28 1 -1.33294 -3.57409 -4.53689 19
29 1 -4.72267 -4.42964 -2.80651 20
30 1 -0.360142 -1.68429 -2.82966 20
31 1 -3.39577 -1.63886 -0.743745 20
32 1 -1.61372 -4.32142 -0.76239 19
33 2 -4.46575 -6.16205 -6.66446 13
34 2 -7.01152 -7.01235 -1.70912 16
35 2 -6.54532 -1.33215 -7.15026 14
36 2 -9.78013 -4.96879 -2.72836 14
37 2 -8.61497 -2.99573 -5.70359 13
38 2 -6.88366 -5.61422 -4.80749 14
39 2 -8.05589 -0.0857714 -4.40741 15
40 2 -10.0026 -1.73687 -2.53229 14
41 2 -6.28385 -3.40258 -2.88791 19
42 2 -9.45995 -3.6803 2.48288 17
43 2 -7.68044 -1.36067 -1.01934 20
44 2 -1.72926 -5.75412 -8.78511 12
45 2 -6.49442 -3.76952 -7.8803 10
46 2 -1.54942 -6.4579 -5.32969 16
47 2 0.980368 -7.70305 -4.9037 12
48 2 -4.38094 -6.46895 -3.06118 16
49 2 -0.595659 -8.41339 -3.00724 13
50 2 -3.18204 -8.87964 -0.619694 12
51 2 -1.60776 -6.33644 -1.08623 19
52 2 -2.18454 0.785496 -10.553 11
53 2 -4.22158 -1.29614 -9.28658 13
54 2 0.811318 -5.00231 -10.1806 12
55 2 -3.13269 -3.16221 -6.98869 21
56 2 -1.57787 -2.75154 -10.1539 14
57 2 -4.74069 -0.862107 -5.09704 16
58 2 -0.346527 -3.66891 -6.25775 20
59 2 -3.61935 -4.27423 -4.62103 20
60 2 -1.66243 -1.62515 -4.53827 19
61 2 -4.25783 -0.595214 -2.28195 18
62 2 -0.759822 -3.98414 -2.5431 19
63 2 -3.57034 -3.6458 -1.13707 18
64 2 -1.35124 -1.30888 -1.13982 20
65 1 -10.3537 -3.59959 4.26347 14
66 1 -6.35318 -6.78809 0.0501751 17
67 1 -6.4522 -7.33715 3.61 16
68 1 -6.30028 -5.68876 6.39557 13
69 1 -10.4936 -4.7008 1.19174 13
70 1 -6.15742 -0.753093 0.341889 19
71 1 -9.12519 -1.65759 2.34885 24
72 1 -7.49535 -4.57011 2.16316 22
73 1 -9.25022 -6.5551 4.86784 11
74 1 -6.06487 -1.33532 3.50028 21
75 1 -8.72787 -0.0778716 5.07053 18
76 1 -7.66958 -3.1246 5.60322 18
77 1 -5.75605 -0.75155 6.30511 17
78 1 -5.14257 -3.31986 8.41363 12
79 1 -4.54949 -8.86289 0.65987 13
80 1 -0.480706 -6.29053 0.909568 19
81 1 -3.44935 -6.56022 2.01485 21
82 1 -1.78541 -10.1362 1.36102 11
83 1 -0.561864 -7.23908 4.03296 20
84 1 -3.85266 -7.12766 5.40093 16
85 1 -2.81296 -10.1826 4.07086 10
86 1 -1.59967 -8.43935 6.80689 14
87 1 -4.61217 -3.81968 0.523526 19
88 1 -0.545734 -1.72588 0.708137 20
89 1 -3.2284 -1.03839 2.59253 20
90 1 -1.67787 -3.90393 2.7799 21
91 1 -4.64631 -4.57261 3.5409 23
92 1 -0.300125 -1.08699 4.06764 22
93 1 -3.19045 -2.12801 5.57142 22
94 1 -1.80168 -4.61169 5.69028 20
95 1 -3.5631 -6.35674 8.68323 12
96 1 -0.199929 -1.6436 6.95227 20
97 1 -3.22286 -0.543152 8.52711 16
98 1 -1.25516 -3.50751 9.21734 14
99 1 1.36922 -3.86072 10.7494 9
100 2 -7.10953 -7.46278 1.79039 14
101 2 -7.36705 -6.94797 5.10164 14
102 2 -9.58031 -6.19368 0.21291 14
103 2 -6.76444 -4.01995 0.487116 21
104 2 -9.89576 -6.95453 3.18679 11
105 2 -7.40929 -0.691065 2.12525 21
106 2 -11.623 -0.961048 2.253 10
107 2 -6.4474 -3.42538 3.49545 23
108 2 -9.07558 -4.67539 5.20722 12
109 2 -7.497 -1.24833 5.76861 17
110 2 -6.44205 -3.90542 6.95732 13
111 2 -4.64818 -1.47641 7.67562 13
112 2 -4.4615 -6.42238 0.263207 20
113 2 -0.943539 -10.326 3.00114 11
114 2 -3.59573 -9.6582 2.18806 12
115 2 -1.57379 -6.96966 2.52713 25
116 2 -4.69749 -6.60156 3.72097 18
117 2 -0.143248 -8.68032 5.34974 11
118 2 -2.9714 -8.85603 5.62697 14
119 2 5.70518 -8.6151 -2.45635 11
120 2 -4.72856 -6.46504 6.99152 15
121 2 -2.11666 -7.46658 8.99592 9
122 2 -4.40286 -1.6996 0.924501 21
123 2 -0.499409 -4.29261 1.11547 21
124 2 -3.46993 -4.45921 1.77869 20
125 2 -1.4054 -1.76071 2.42254 22
126 2 -4.77721 -1.06064 4.63511 19
127 2 -0.21292 -4.16458 4.58786 19
128 2 -3.25769 -3.62352 4.36532 18
129 2 -1.60279 -0.945254 5.57458 22
130 2 -2.78935 1.29124 8.37618 15
131 2 -0.523218 -3.40213 6.94338 19
132 2 -3.32512 -4.35696 8.85158 15
133 2 -1.61275 -1.66891 8.68578 16
134 2 -0.00999776 -4.86038 9.77371 11
135 2 3.19275 -4.3157 11.0113 7
136 1 -4.97769 0.212573 -8.24097 12
137 1 -9.3457 -0.393586 -1.30832 19
138 1 -6.66575 5.8587 -6.78466 10
139 1 -8.35361 5.71867 -1.01887 14
140 1 -7.72575 1.68603 -3.65412 16
141 1 -8.42406 5.02331 -3.91342 11
142 1 -5.11415 3.06461 -4.00594 17
143 1 -10.3201 2.94978 -1.84262 10
144 1 -7.37879 1.93693 -0.307003 20
145 1 -7.18917 2.89515 -6.26121 12
146 1 -6.97875 7.74185 -3.7112 11
147 1 -0.430996 5.41196 -9.1185 11
148 1 -4.50781 2.9058 -7.23009 15
149 1 0.677171 2.62108 -8.95549 16
150 1 -2.70935 2.64607 -10.1751 11
151 1 -3.08371 6.08846 -6.97043 13
152 1 -1.07229 2.80672 -6.59061 20
153 1 0.0306999 7.56736 -7.48224 11
154 1 -2.83443 4.56766 -4.68617 17
155 1 -0.449077 2.0296 -3.81941 20
156 1 -5.05196 1.18212 -1.80599 19
157 1 -0.103877 5.10754 -2.61594 19
158 1 -2.63217 3.3507 -1.98497 16
159 1 -1.26208 0.604924 -0.750439 19
160 1 -1.20239 7.55879 -4.54915 18
161 1 -3.94775 7.87346 -4.92677 13
162 1 -4.86238 6.04895 -2.30752 18
163 1 -3.7955 9.4891 -2.50584 12
164 1 -2.0263 10.6219 0.163853 13
165 1 -1.75872 10.9676 -4.44511 8
166 1 -6.48293 7.8021 -0.0586735 15
167 1 0.849681 8.04207 -1.62831 16
168 2 -3.38475 1.73632 -8.44938 15
169 2 -7.65562 6.2874 -5.11179 11
170 2 -5.90418 1.29424 -6.93898 14
171 2 -8.92342 1.46035 -1.81418 17
172 2 -5.95898 4.14036 -7.39925 11
173 2 -9.23946 4.4681 -2.38523 12
174 2 -5.8105 1.49327 -3.35541 18
175 2 -10.4008 -0.0225818 0.183224 15
176 2 -7.24363 3.83885 -0.0854723 19
177 2 -4.8003 7.11148 -6.45779 12
178 2 -7.23378 3.48648 -4.48378 16
179 2 -7.0216 6.52318 -2.2998 14
180 2 -5.41994 8.66191 1.28507 12
181 2 0.445204 1.07723 -8.25927 19
182 2 3.55394 0.185981 -9.26895 16
183 2 -0.864364 3.65224 -9.67864 13
184 2 -1.49353 6.47858 -7.98954 13
185 2 -2.8307 4.03822 -6.64829 17
186 2 -1.0042 -1.06091 -7.42057 21
187 2 -1.00556 1.09374 -5.46476 19
188 2 -1.21294 3.96335 -3.86002 18
189 2 -4.16979 4.5543 -3.04732 17
190 2 -0.101802 0.473534 -2.70515 19
191 2 -3.20792 1.47233 -1.71794 18
192 2 -1.14889 4.28872 -1.18005 19
193 2 -2.6148 6.33574 -5.21934 15
194 2 -2.9912 9.20773 -0.777538 16
195 2 -2.56414 9.27617 -4.04331 12
196 2 -4.91022 7.81353 -3.07793 15
197 2 -1.32741 10.8065 -1.38829 12
198 2 -3.10234 10.5207 2.43187 13
199 2 0.102287 6.88575 -3.36747 16
200 2 -0.313782 9.8642 2.08425 14
201 2 0.114183 11.2091 -4.02185 10
202 1 -10.3782 1.1768 1.8577 16
203 1 -5.58025 4.73326 0.493648 19
204 1 -8.21275 4.64489 1.43924 16
205 1 -7.26838 1.25605 2.87513 23
206 1 -11.7899 -0.313026 4.06506 9
207 1 -6.00771 4.95512 7.85089 9
208 1 -9.52841 5.73709 4.40383 9
209 1 -9.07511 2.95921 7.02805 8
210 1 -6.73992 7.24956 5.3915 11
211 1 -6.59429 2.57545 5.55165 16
212 1 -7.31506 7.1562 2.59884 15
213 1 -3.79597 7.22857 3.57834 19
214 1 -4.94008 9.72055 2.52548 12
215 1 -10.3525 2.89407 4.17548 12
216 1 -4.19052 1.74663 1.34712 20
217 1 -0.246413 3.52562 0.548608 18
218 1 -2.65223 5.16345 1.82144 20
219 1 -1.29583 1.70136 2.37504 21
220 1 -4.30805 0.859869 4.31535 18
221 1 0.13923 4.69037 3.46841 23
222 1 -2.63169 3.94917 4.82679 22
223 1 -1.19109 0.897404 5.62066 19
224 1 -3.9158 2.26991 7.0644 17
225 1 -0.0127811 3.94128 6.34893 21
226 1 -2.60097 5.01329 8.23886 17
227 1 -1.01146 2.26815 8.78285 17
228 1 -0.45192 -0.823768 10.2822 12
229 1 0.444459 4.79306 9.29861 13
230 1 -3.71169 7.80614 0.384365 16
231 1 1.22771 9.57279 0.739931 17
232 1 0.462938 10.2172 6.36788 6
233 1 0.953487 5.98864 0.341536 23
234 1 -5.23441 4.07052 3.41191 17
235 1 -1.25465 10.422 3.34793 11
236 1 -0.920946 7.87175 1.94772 22
237 1 -1.24717 7.12737 5.15571 20
238 1 -3.93486 7.81843 7.03522 12
239 1 -0.661131 7.56222 8.51597 10
240 2 -11.2863 -3.35543 0.204876 11
241 2 -10.9951 1.24059 3.84965 13
242 2 -5.63546 1.16278 0.223258 19
243 2 -8.5327 1.49475 1.37588 19
244 2 -8.16145 6.72138 4.30102 10
245 2 -10.0402 4.25433 5.84372 9
246 2 -5.84587 2.2241 3.74371 22
247 2 -9.76085 -1.62067 4.3987 15
248 2 -8.26544 1.76977 5.22688 15
249 2 -5.31507 1.26709 6.17042 18
250 2 -7.19902 3.51949 7.21889 10
251 2 -4.98786 6.58265 -0.354842 18
252 2 -6.38891 5.23501 2.24734 20
253 2 -5.73422 8.36903 3.92453 12
254 2 -9.4305 4.53636 2.98712 14
255 2 -5.91236 6.84318 7.07058 10
256 2 -4.0424 3.65237 1.33261 19
257 2 -0.684906 1.54819 0.686136 18
258 2 -3.0021 0.912048 2.84001 20
259 2 -1.1944 3.92764 2.39766 22
260 2 -3.74627 5.27918 4.04177 17
261 2 -0.12497 1.07438 3.86715 22
262 2 -2.85021 2.1558 5.48136 23
263 2 -0.993126 5.07178 5.10327 18
264 2 -4.17772 4.18185 7.8778 14
265 2 0.104734 1.6501 6.77707 21
266 2 -0.916766 4.18896 7.97373 19
267 2 -2.50347 7.17831 8.23714 11
268 2 -0.291885 1.1374 10.259 12
269 2 -7.7963 6.42898 0.658901 13
270 2 2.66961 7.55512 -2.16213 21
271 2 0.222925 7.65708 0.0625077 19
272 2 -0.202824 10.6418 4.65657 9
273 2 -2.97007 7.87319 5.20734 18
274 2 -0.0167257 6.95509 3.51471 21
275 2 0.172785 8.28036 6.66836 13
276 2 -2.58836 6.92593 1.7 20
277 2 0.862432 6.44435 8.54294 12
278 1 1.36377 -6.65407 -9.22724 10
279 1 4.73037 -7.0695 -8.03216 10
280 1 2.1487 -7.14138 -6.36558 14
281 1 5.43342 -6.63174 -1.82845 21
282 1 1.16362 -8.52274 -3.19216 14
283 1 9.06184 -6.38735 -5.47356 11
284 1 2.21722 -6.5568 -0.596577 22
285 1 4.15017 -9.27299 -1.32873 11
286 1 -2.07369 0.396566 -8.32599 18
287 1 1.08832 -0.808869 -7.8698 19
288 1 5.44549 -4.23735 -9.88337 10
289 1 2.55879 0.65216 -10.8074 9
290 1 7.76275 -5.61697 -9.00692 9
291 1 1.48971 -3.85354 -7.21211 18
292 1 4.66232 -4.12525 -6.63202 20
293 1 2.76003 -2.13679 -4.69795 21
294 1 3.37614 -6.20451 -3.71689 20
295 1 1.31656 -3.88062 -2.38733 18
296 1 5.77332 -1.48012 -2.2755 20
297 1 2.89314 -1.35837 -0.915965 21
298 1 4.40225 -4.03225 -0.945435 21
299 1 10.0284 -6.30994 -2.30258 10
300 1 3.61654 -1.72431 -8.52429 17
301 1 5.86134 -6.60727 -5.39591 17
302 1 8.01213 -3.66755 -6.5768 15
303 1 6.03679 -3.68452 -4.00357 19
304 1 11.383 -3.3932 -0.665706 9
305 1 8.33041 -1.75608 -1.01901 16
306 1 13.5067 -3.76472 1.94421 5
307 2 0.964317 -5.89557 -7.34595 16
308 2 3.89692 -7.37983 -0.535383 18
309 2 3.9455 -6.56988 -5.50478 16
310 2 1.69032 -5.84579 -2.57784 17
311 2 -0.377378 -9.9066 0.122829 14
312 2 7.19135 -3.67749 -9.35122 11
313 2 3.86387 -3.44547 -9.86344 13
314 2 3.09652 -7.45021 -8.72346 7
315 2 5.19116 -2.07068 -7.76919 19
316 2 1.7662 -0.526302 -5.86146 23
317 2 7.75995 -1.52967 0.929488 19
318 2 2.96686 -3.21137 -6.11034 19
319 2 4.86677 -1.84254 -4.12258 18
320 2 1.8695 -1.7877 -2.7636 20
321 2 4.64062 -4.71703 -3.30162 19
322 2 2.49164 -4.5318 -0.510557 22
323 2 4.60771 -2.10408 -0.914391 22
324 2 11.8513 -4.33898 1.24799 11
325 2 7.45526 -7.48896 -4.75751 11
326 2 9.20731 -5.41989 -3.81969 13
327 2 8.54842 -5.39851 -7.1104 11
328 2 7.3245 -2.78497 -2.56636 17
329 2 6.37118 -7.25837 -0.277939 13
330 2 6.44467 -4.41485 -5.74315 21
331 1 1.35495 -9.26496 0.476508 14
332 1 4.94855 -6.5919 0.936616 16
333 1 2.29886 -6.93675 2.46488 19
334 1 7.45693 -8.31251 -3.10202 11
335 1 0.439188 -9.89331 3.98265 13
336 1 4.93045 -6.97941 4.38604 13
337 1 1.83062 -7.61004 5.86683 14
338 1 4.18918 -5.18812 6.32695 17
339 1 1.58596 -3.69321 0.95185 20
340 1 5.6868 -1.55365 0.921607 20
341 1 2.75436 -0.950865 2.41153 23
342 1 4.21439 -4.56973 3.26301 20
343 1 1.47892 -3.83426 3.84006 19
344 1 5.93636 -1.32737 4.23192 20
345 1 2.94771 -1.74761 5.77723 20
346 1 6.76518 -4.99819 6.91869 9
347 1 0.79167 -4.75932 6.56802 17
348 1 5.60225 -1.49068 7.5082 13
349 1 2.509 -1.44726 8.87579 16
350 1 4.45519 -3.67772 9.58364 9
351 1 -0.0910199 -6.68777 9.09141 12
352 1 8.2674 -7.48232 -0.255418 12
353 1 7.41624 -4.73671 0.889129 19
354 1 10.1478 -5.06077 2.08001 11
355 1 8.89349 -2.31892 2.58351 20
356 1 11.8872 -1.3006 3.71346 9
357 1 9.09719 1.95601 7.37658 8
358 1 9.0025 -1.51145 5.32727 12
359 1 7.20036 -4.31869 4.29068 16
360 2 1.33113 -7.21968 0.819973 19
361 2 9.27628 -5.9823 0.691681 11
362 2 4.47183 -6.50717 2.64115 17
363 2 1.75305 -8.39142 3.58829 13
364 2 2.31712 -9.11893 -1.94198 15
365 2 3.44382 -6.92867 5.73792 13
366 2 -1.78124 -6.55376 5.9435 19
367 2 1.57582 -1.6975 0.705782 21
368 2 5.60187 -4.73708 0.341891 20
369 2 2.45277 -4.98474 2.65086 20
370 2 4.74621 -0.902202 2.78692 19
371 2 1.45677 -1.75534 3.69691 22
372 2 7.47448 -3.27798 6.03568 15
373 2 2.6697 -3.94089 5.85895 20
374 2 4.78264 -0.893721 5.72732 21
375 2 1.55044 -0.937986 6.96557 21
376 2 5.03231 -4.62423 8.03638 10
377 2 1.24055 -6.27313 7.54817 14
378 2 4.29698 -2.02069 8.77445 14
379 2 1.045 -2.1143 10.0731 14
380 2 5.89404 -5.7077 5.44229 12
381 2 8.85046 -7.66348 -2.05704 11
382 2 8.2561 -4.30477 2.59669 14
383 2 13.1716 -2.26534 2.91743 5
384 2 11.0119 0.305871 2.60321 13
385 2 5.71632 -3.42092 3.42187 21
386 2 10.3712 -2.23431 4.17728 13
387 2 8.47106 0.506003 6.05899 16
388 1 3.81747 2.99262 -8.77528 14
389 1 5.19093 0.438168 -8.11622 15
390 1 8.40537 -0.11317 -6.14188 12
391 1 2.49368 1.26793 -5.9385 22
392 1 7.40758 2.0898 -8.15844 8
393 1 2.63261 3.65386 -4.16903 17
394 1 5.13909 -0.299134 -5.30261 21
395 1 1.80367 0.288453 -2.92794 18
396 1 5.74225 4.12378 -3.06031 18
397 1 2.79555 4.35098 -1.17146 22
398 1 4.94672 1.48568 -1.26698 18
399 1 1.88003 4.95618 -7.11229 19
400 1 4.73961 5.85376 -5.12637 15
401 1 3.00183 7.63868 -7.04379 11
402 1 1.48675 10.317 -5.12779 13
403 1 4.83367 8.92986 -4.4232 14
404 1 1.92167 7.05895 -3.85654 20
405 1 0.222589 11.2862 -2.20188 11
406 1 7.28154 7.40805 -3.31316 12
407 1 5.01242 2.56411 -6.35019 16
408 1 10.7398 0.541624 0.767655 11
409 1 6.95041 -1.99669 -8.20727 16
410 1 7.33195 1.42883 -2.74815 15
411 1 8.20759 4.5355 -1.50664 12
412 1 8.82058 -3.70145 -2.9388 12
413 1 9.04632 2.73237 -4.55431 7
414 2 2.15716 2.52108 -10.5015 8
415 2 0.346385 3.918 -7.32253 18
416 2 5.92622 -5.69718 -8.6826 14
417 2 4.28878 0.806567 -6.49742 19
418 2 5.57693 2.4484 -8.31069 10
419 2 1.74024 6.42259 -8.12818 10
420 2 1.66889 -2.34436 -8.81192 18
421 2 2.00315 1.85744 -4.13062 19
422 2 4.62711 3.58592 -4.75904 16
423 2 1.66595 4.42722 -2.65518 17
424 2 5.93516 0.414129 -3.48553 16
425 2 3.03289 0.585059 -0.709572 18
426 2 5.40515 3.39834 -1.28312 17
427 2 3.02914 3.64143 -7.21628 17
428 2 8.46061 0.791861 -4.50823 10
429 2 4.24682 7.69194 -5.74639 14
430 2 6.06849 8.82747 -3.15657 14
431 2 1.17741 8.25314 -6.04558 13
432 2 7.78324 9.84998 -0.71934 9
433 2 2.57054 5.67478 -4.9107 20
434 2 3.05694 9.57483 -3.95617 15
435 2 8.31694 -1.97519 -6.30114 13
436 2 7.1743 0.224157 -7.89272 13
437 2 10.8209 -0.932529 -0.453 11
438 2 8.6669 2.1946 -6.54452 8
439 2 10.1214 -4.50093 -1.60747 13
440 2 7.68783 4.32905 0.430195 13
441 2 7.55373 -0.107356 -1.24355 16
442 2 8.40095 3.08246 -3.03576 12
443 1 1.60584 1.5105 0.401174 19
444 1 5.68231 4.14205 0.448952 18
445 1 3.02926 3.88747 1.8228 19
446 1 4.82619 1.41591 2.23851 20
447 1 1.48852 1.79043 4.06123 21
448 1 3.9326 6.85592 1.89079 17
449 1 3.26071 4.85504 5.24377 22
450 1 4.74093 1.21104 5.83907 21
451 1 1.90147 1.10864 6.7075 19
452 1 6.66795 4.14614 7.09334 13
453 1 3.1287 3.51731 7.98197 17
454 1 5.17556 1.67525 8.64824 11
455 1 1.44118 1.68411 9.97678 14
456 1 4.35785 7.65114 -0.989077 20
457 1 6.20056 10.2402 -1.56094 11
458 1 3.15877 9.91208 -2.06899 15
459 1 7.43759 10.09 1.12839 7
460 1 1.96246 7.46833 3.40516 19
461 1 4.10781 10.0412 1.32041 11
462 1 4.81168 6.98165 5.19507 10
463 1 1.61326 6.73044 6.83521 17
464 1 7.8429 0.55872 0.499475 16
465 1 8.84966 3.48076 1.82102 15
466 1 10.3797 1.14261 3.91066 14
467 1 7.53777 1.21641 4.44894 18
468 1 9.03351 4.05846 4.85019 13
469 1 5.65072 4.13172 3.93632 19
470 1 8.21966 7.97183 -0.205596 11
471 1 7.2857 6.31851 2.64214 13
472 2 1.67097 3.64561 0.0953438 18
473 2 5.73564 0.812995 0.509966 19
474 2 2.5817 1.07318 2.03244 18
475 2 5.7989 10.8749 1.57959 7
476 2 2.02959 3.82374 3.69407 21
477 2 5.93658 2.13747 4.66475 20
478 2 3.08955 1.50836 5.19329 21
479 2 5.30751 4.94258 5.62261 17
480 2 1.74662 4.64428 6.36843 18
481 2 5.69545 0.252719 7.86905 14
482 2 2.98912 1.5402 8.6166 14
483 2 5.27107 3.42325 8.08421 11
484 2 1.78775 3.72195 9.40123 14
485 2 1.29045 9.81753 -1.30006 18
486 2 4.54252 9.76711 -0.45079 15
487 2 4.01296 5.85507 -0.134981 17
488 2 5.95796 6.00081 -3.44255 15
489 2 2.9284 8.54862 1.84655 17
490 2 2.14628 6.03933 1.86343 21
491 2 2.98384 6.82317 5.27682 15
492 2 5.28964 6.49948 3.34036 16
493 2 8.03207 6.58654 -1.48476 12
494 2 9.24017 1.72265 1.50987 14
495 2 7.74623 -1.03989 3.48802 19
496 2 9.54374 2.41422 4.59412 11
497 2 4.94193 3.3872 2.02259 22
498 2 8.55111 3.66547 6.75081 10
499 2 7.89081 4.71686 3.37893 16
500 2 7.76996 8.13287 1.58995 9
