ITEM: TIMESTEP
223000
ITEM: NUMBER OF ATOMS
500
ITEM: BOX BOUNDS pp pp pp
-30.0 30.0
-30.0 30.0
-30.0 30.0
ITEM: ATOMS id type x y z Coordination
1 1 -6.30807 -4.50666 -7.3248 14
2 1 -5.64687 -5.9429 -1.73176 16
3 1 -9.22477 -6.50858 2.48295 9
4 1 -5.82771 -1.62653 -9.39075 11
5 1 -6.34988 -1.52056 -6.09688 20
6 1 -6.45349 -4.04565 -4.36887 21
7 1 -10.8195 -2.19802 -2.99091 11
8 1 -9.14337 -3.69285 -5.38076 12
9 1 -9.06975 -4.99951 -2.26476 12
10 1 -6.08146 -0.921077 -2.64382 21
11 1 -8.70097 -1.12977 -1.27947 17
12 1 -6.62547 -3.53465 -1.03021 22
13 1 -3.74989 -3.49463 -9.34661 11
14 1 0.536718 -5.93263 -6.74405 13
15 1 -3.74533 -6.06199 -4.8082 15
16 1 -0.74588 -8.51994 -4.65148 13
17 1 -3.80212 -8.69004 -3.31435 11
18 1 -0.00951698 -6.05144 -2.71379 21
19 1 -2.92983 -5.96793 -1.42173 21
20 1 -0.870506 -8.9927 -1.39431 18
21 1 -0.129255 -1.3196 -9.7738 16
22 1 -3.50518 0.448993 -9.81189 16
23 1 -3.12657 -1.2331 -7.46039 20
24 1 -0.663634 -3.35952 -7.47445 17
25 1 -3.45609 -3.67078 -6.07352 19
26 1 -0.554889 -0.747009 -6.12501 25
27 1 -3.0854 -1.04217 -4.36225 21
28 1 -1.20719 -3.59899 -4.54349 21
29 1 -3.89793 -3.31044 -2.51084 26
30 1 -0.245826 -1.10735 -3.17095 24
31 1 -3.06824 -0.887316 -1.13517 23
32 1 -1.19849 -3.60189 -1.17614 24
33 2 -5.10531 -4.94688 -5.72081 15
34 2 -7.67364 -5.33486 -1.07615 15
35 2 -6.48645 -0.636107 -7.70774 17
36 2 -10.1811 -2.36198 -4.87556 10
37 2 -7.34304 -3.30592 -6.07787 13
38 2 -8.29969 -4.70066 -3.96172 13
39 2 -7.0973 -0.875325 -4.30895 18
40 2 -9.74318 -0.644362 -3.08974 15
41 2 -5.5129 -4.08773 -2.42988 20
42 2 -10.3077 -3.67829 -1.84131 13
43 2 -6.88424 -1.71284 -1.2083 22
44 2 0.442938 -4.83149 -8.3043 12
45 2 -5.31959 -3.41521 -8.49657 12
46 2 -2.52617 -7.77109 -4.64027 13
47 2 0.448583 -7.40736 -5.67415 12
48 2 -4.40456 -6.89433 -2.52651 16
49 2 -0.200078 -9.74231 -2.95722 15
50 2 -3.0515 -9.08158 -1.52808 12
51 2 -1.11082 -6.66276 -1.38117 20
52 2 -0.134151 0.48416 -10.5505 13
53 2 -3.84094 -1.50674 -9.65214 13
54 2 1.32385 -2.40957 -9.0435 16
55 2 -2.55366 -3.70521 -7.79615 19
56 2 -1.07667 -1.35359 -8.07331 20
57 2 -4.26477 -1.70673 -6.00871 28
58 2 0.116489 -3.96529 -5.76841 23
59 2 -2.89693 -4.33431 -4.21705 20
60 2 -1.34525 -1.82587 -4.67413 24
61 2 -4.1828 -1.4893 -2.77553 23
62 2 -0.0454681 -3.9961 -2.60174 21
63 2 -2.97448 -4.07509 -0.835705 22
64 2 -1.21394 -1.30432 -1.36177 21
65 1 -10.2104 -3.75011 0.0253556 12
66 1 -6.50344 -5.87794 0.735453 15
67 1 -6.49338 -6.36083 4.12541 14
68 1 -6.25645 -6.93204 7.61175 10
69 1 -10.7761 -4.22688 3.22549 11
70 1 -5.86163 -1.07091 0.946986 22
71 1 -8.8854 -1.31283 2.15137 20
72 1 -6.75675 -3.76134 2.69441 19
73 1 -9.02874 -5.63176 5.72829 12
74 1 -6.00163 -1.17646 4.30249 23
75 1 -9.10726 -2.28065 5.16258 14
76 1 -6.77327 -3.67718 6.77208 16
77 1 -5.57288 -1.22511 8.02256 13
78 1 -4.99743 -4.30472 9.65599 10
79 1 -4.12332 -9.19794 0.266101 11
80 1 -0.292501 -6.50499 0.437442 24
81 1 -3.86718 -6.83264 1.97817 19
82 1 -1.26028 -9.29522 2.21696 16
83 1 -0.909573 -6.70085 4.18483 23
84 1 -3.58424 -7.36412 5.3485 16
85 1 -0.732438 -9.74181 5.53343 10
86 1 -2.5551 -8.22913 7.60211 10
87 1 -3.93688 -3.9216 0.711607 22
88 1 -0.245688 -1.05243 0.595139 22
89 1 -3.12917 -1.53713 2.25673 22
90 1 -1.23325 -3.9551 2.11781 20
91 1 -3.82819 -4.48255 4.33443 22
92 1 -0.355488 -1.62831 3.6679 21
93 1 -3.30309 -1.49303 5.63238 20
94 1 -1.43128 -4.20592 5.60912 20
95 1 -3.8218 -4.95651 7.3214 19
96 1 -0.465489 -1.89231 7.00515 23
97 1 -2.88607 -2.0843 8.6208 18
98 1 -1.76009 -5.54056 10.0055 11
99 1 1.63461 -4.0366 10.5187 10
100 2 -7.43621 -6.17092 2.46711 15
101 2 -7.35423 -6.41707 6.02804 12
102 2 -10.051 -4.92495 1.55384 13
103 2 -5.97138 -3.56669 0.880888 20
104 2 -9.95067 -5.80588 4.12006 10
105 2 -7.09746 -1.66559 2.62992 19
106 2 -9.61974 -2.53813 3.42616 15
107 2 -5.70441 -4.64074 3.96741 22
108 2 -8.61061 -3.84915 6.46426 11
109 2 -6.21459 -1.99443 6.08023 19
110 2 -5.72421 -5.00887 7.9387 13
111 2 -4.88771 -2.32054 9.40318 11
112 2 -4.54031 -6.28202 -0.0593184 19
113 2 -0.319003 -9.05498 0.462824 17
114 2 -3.09966 -8.57311 1.73796 13
115 2 -1.00499 -6.33724 2.25859 20
116 2 -4.7628 -7.36482 3.74375 16
117 2 -0.398657 -9.79715 3.65897 12
118 2 -2.27874 -8.66321 5.80104 11
119 2 1.03493 -9.12143 5.40031 11
120 2 -4.19108 -7.18476 7.39155 13
121 2 -1.36199 -6.89644 8.64352 11
122 2 -4.13348 -1.59993 0.556588 22
123 2 -0.25356 -4.21665 0.418804 22
124 2 -3.05385 -4.092 2.50811 22
125 2 -1.19818 -1.81839 1.89411 22
126 2 -3.92635 -0.816852 3.90494 20
127 2 -0.362056 -3.49514 4.1408 23
128 2 -3.31466 -3.40987 5.98139 21
129 2 -1.20659 -0.819267 5.41124 25
130 2 -3.59594 -0.649351 7.42795 18
131 2 0.00816882 -3.92652 7.17922 22
132 2 -2.9793 -4.12132 9.4427 13
133 2 -1.0252 -1.26308 8.9127 17
134 2 -0.0475729 -4.46251 9.96412 14
135 2 3.05152 -4.5352 9.30349 13
136 1 -6.28048 1.22089 -7.85672 11
137 1 -9.3625 -0.530076 -5.08487 13
138 1 -5.86772 3.989 -5.9893 16
139 1 -8.75132 3.19618 -4.92336 11
140 1 -6.66303 0.998017 -4.34789 22
141 1 -9.55773 1.32442 -2.66425 16
142 1 -6.00288 4.36666 -2.38719 24
143 1 -8.9952 3.75533 -1.51014 15
144 1 -7.03944 1.52152 -1.02473 21
145 1 -7.22444 6.18137 -4.51538 10
146 1 -7.0434 6.87261 -0.801893 18
147 1 -1.08415 1.86355 -11.4271 11
148 1 -4.13331 3.06831 -10.3293 8
149 1 -0.484028 4.60153 -9.69452 15
150 1 -2.81318 4.65333 -7.4693 18
151 1 -1.25534 1.94373 -7.64928 24
152 1 -4.11521 1.17361 -6.05107 21
153 1 0.137255 4.58302 -6.23881 22
154 1 -3.00155 4.35007 -4.18777 22
155 1 -1.20488 1.74591 -4.57601 24
156 1 -3.90793 1.64123 -2.77924 21
157 1 -0.153935 4.30741 -2.92365 22
158 1 -2.91496 4.28415 -0.907999 20
159 1 -1.16536 1.44493 -1.35559 23
160 1 -0.914193 7.58027 -7.51931 14
161 1 -4.13234 6.87441 -5.82521 12
162 1 -2.34416 9.47564 -2.39116 14
163 1 -1.30496 7.00599 -4.45967 19
164 1 -4.29366 6.99626 -2.71986 20
165 1 0.226814 9.07435 -4.87435 11
166 1 -5.35831 9.75984 -0.925495 8
167 1 -1.34929 6.72615 -1.27858 22
168 2 -5.10324 1.81731 -9.22241 12
169 2 -3.57571 4.464 -9.2307 11
170 2 -5.87178 1.89925 -5.91443 17
171 2 -8.85103 1.29338 -4.73882 11
172 2 -7.01778 4.27731 -4.2492 16
173 2 -9.60734 3.2007 -3.18009 13
174 2 -5.74931 1.07233 -2.57344 23
175 2 -8.89932 0.829764 -0.644503 18
176 2 -7.1384 3.39458 -0.986696 21
177 2 -5.795 6.10895 -6.1483 11
178 2 -6.25773 6.3345 -2.8712 18
179 2 -8.60223 5.71661 -1.00195 15
180 2 -6.74695 8.82758 -0.42003 12
181 2 -2.8491 1.87299 -11.0507 11
182 2 0.401558 3.08116 -10.823 11
183 2 -2.91628 0.919973 -7.76788 23
184 2 -0.832201 3.70927 -8.01985 19
185 2 -3.96066 4.11246 -5.96525 18
186 2 -0.0556113 1.16755 -6.07631 19
187 2 -2.97841 0.865158 -4.49373 24
188 2 -1.31625 3.58581 -4.67377 23
189 2 -3.97221 3.50486 -2.44683 23
190 2 -0.0701072 0.725826 -2.96632 25
191 2 -3.25575 1.02873 -0.803425 23
192 2 -1.22488 3.50957 -1.45812 22
193 2 0.270218 6.47231 -8.83025 14
194 2 -2.25013 6.3827 -6.82131 15
195 2 0.496664 8.25381 -6.45268 14
196 2 -3.25285 6.5559 -4.21785 18
197 2 -1.36071 9.11472 -3.94742 14
198 2 -4.18613 8.90852 -2.36907 13
199 2 -0.262708 6.32176 -3.14962 23
200 2 -3.24197 6.12911 -1.14819 22
201 2 -1.48595 8.58972 -0.720862 17
202 1 -10.1129 1.67703 0.604993 14
203 1 -6.35146 4.14298 0.787413 21
204 1 -8.83051 3.76402 2.94034 16
205 1 -7.21526 1.5437 2.60099 21
206 1 -9.47846 1.19505 4.41552 15
207 1 -5.63106 4.68006 3.54838 22
208 1 -8.58326 4.02561 5.99487 10
209 1 -6.20199 2.1386 5.88546 19
210 1 -5.79142 5.64812 6.43031 13
211 1 -7.95955 0.255969 6.90199 12
212 1 -10.0107 5.45365 0.818462 12
213 1 -6.34987 9.78525 1.35161 9
214 1 -7.34663 6.87169 2.401 16
215 1 -5.87331 8.43575 4.49093 10
216 1 -4.42396 1.46126 0.764056 24
217 1 -0.0119058 4.0935 0.534338 21
218 1 -3.11689 3.79598 2.15985 19
219 1 -0.957898 1.58919 2.13285 20
220 1 -3.90649 1.1192 4.21572 19
221 1 -0.336544 3.94397 3.83259 19
222 1 -3.09963 3.83993 5.43448 20
223 1 -1.22614 1.27457 5.3145 23
224 1 -3.87317 1.22716 7.49431 15
225 1 -0.155277 3.72279 7.23261 22
226 1 -3.25536 3.89506 8.5035 12
227 1 -0.856846 0.930309 8.74865 21
228 1 -0.0171721 -1.10005 10.504 12
229 1 -0.997265 3.62023 10.604 11
230 1 -4.30582 6.07176 0.515448 23
231 1 0.150358 9.20015 0.500812 14
232 1 -2.87456 8.97574 0.989255 16
233 1 -1.08349 7.03276 1.975 25
234 1 -3.90128 6.75783 3.32637 22
235 1 -1.79717 9.37786 3.86487 14
236 1 -0.279863 8.70826 6.76924 11
237 1 -1.37628 6.37646 5.28901 19
238 1 -3.64806 7.91804 6.38238 12
239 1 -0.518438 6.4753 8.61412 13
240 2 -9.38217 -2.0767 0.510158 18
241 2 -10.2449 3.58897 0.386863 13
242 2 -6.13086 1.14207 0.87662 18
243 2 -9.16721 1.25763 2.60355 15
244 2 -7.02315 3.56936 2.35047 24
245 2 -9.28098 3.05013 4.50977 13
246 2 -5.92912 1.29979 4.03093 23
247 2 -8.93636 -0.498368 5.51642 16
248 2 -6.61259 4.16958 5.44132 14
249 2 -5.9205 0.663273 7.23851 14
250 2 -8.23099 2.13058 6.84223 9
251 2 -6.39191 5.97697 0.886305 21
252 2 -8.72688 5.54997 2.28189 13
253 2 -6.73545 8.67309 2.80596 10
254 2 -5.8036 6.58951 3.97452 17
255 2 -5.35631 7.93999 6.19515 8
256 2 -4.22783 4.16862 0.537699 20
257 2 -0.0673371 1.02336 0.436376 22
258 2 -2.91399 1.65667 2.50867 20
259 2 -1.21691 3.46548 1.90053 20
260 2 -3.66744 4.74176 3.92085 22
261 2 0.0633725 1.82845 3.94888 20
262 2 -3.08219 1.76656 5.93655 21
263 2 -1.18428 4.39133 5.65181 20
264 2 -4.2081 4.72076 6.91322 17
265 2 0.351046 1.76739 7.42823 23
266 2 -2.32416 2.11326 8.43213 16
267 2 -1.32423 4.60567 8.89835 15
268 2 0.0563339 0.925354 10.6141 12
269 2 -4.55068 10.0171 0.877128 11
270 2 -0.163994 6.03034 0.27436 22
271 2 -3.15431 7.0168 1.6711 20
272 2 -1.01714 9.15641 2.11844 15
273 2 -2.86818 7.88452 4.66326 16
274 2 -0.309326 6.06677 3.58325 21
275 2 -1.49226 7.25793 7.09096 15
276 2 -0.255041 9.19274 4.99888 14
277 2 0.870038 7.68095 7.91372 10
278 1 1.9492 -4.14321 -9.19179 14
279 1 4.06624 -5.87362 -6.89925 14
280 1 2.14394 -7.29505 -4.8546 15
281 1 4.23916 -9.41528 -5.1364 6
282 1 1.61035 -9.82815 -2.66967 12
283 1 5.22968 -6.35257 -3.50014 18
284 1 2.6899 -6.42275 -1.33713 21
285 1 4.86365 -8.97404 -1.10925 11
286 1 1.43877 1.28666 -9.79223 16
287 1 2.43908 -1.15433 -8.18067 20
288 1 6.11646 -0.90002 -8.56258 12
289 1 4.59094 2.13432 -9.58116 12
290 1 4.98169 -3.47424 -7.94065 14
291 1 2.07594 -3.57689 -5.91229 23
292 1 7.23209 0.00445035 -5.43271 20
293 1 2.57474 -1.03767 -4.77044 23
294 1 5.4649 -3.32669 -4.83002 19
295 1 1.81079 -3.61306 -2.79221 20
296 1 5.31367 -1.15706 -2.86486 21
297 1 2.44575 -0.958347 -1.38911 23
298 1 4.36723 -3.87494 -1.39553 21
299 1 8.54435 -6.31879 0.486241 12
300 1 8.18271 -2.34265 -7.34794 11
301 1 7.59205 -5.32525 -5.77262 12
302 1 8.48818 -2.63708 -3.84566 17
303 1 7.15284 -4.689 -2.31312 17
304 1 11.7554 -1.4412 -2.20944 11
305 1 8.82363 -1.48641 -0.812 21
306 1 9.97259 -4.00725 -0.834273 16
307 2 2.26613 -5.55546 -5.81006 16
308 2 2.92157 -10.1121 -4.10669 9
309 2 4.36427 -7.55149 -5.61398 12
310 2 1.84189 -6.80188 -2.96578 20
311 2 2.97778 -9.57762 -1.15152 14
312 2 4.66037 -7.09118 -1.50514 16
313 2 4.31427 -1.74851 -8.49112 15
314 2 3.51573 -4.71182 -8.25741 13
315 2 6.95592 -2.77521 -8.79312 9
316 2 1.48598 -1.49471 -6.2655 21
317 2 5.6043 -4.68616 -6.31258 17
318 2 3.48305 -2.72015 -4.65425 20
319 2 6.52017 -1.71364 -4.30888 19
320 2 1.6625 -1.59038 -3.05281 23
321 2 5.2808 -4.33523 -3.0359 20
322 2 2.54785 -4.38897 -1.22905 22
323 2 4.64243 -1.72746 -1.28545 21
324 2 7.15245 -5.28969 -0.351465 17
325 2 8.59657 -3.64599 -5.91607 12
326 2 7.04459 -5.95152 -3.97125 12
327 2 10.0373 -1.65884 -3.64041 13
328 2 8.65197 -3.30071 -2.02179 16
329 2 10.2853 -5.35924 0.512749 11
330 2 10.915 -2.40258 -0.597411 13
331 1 1.83986 -8.8952 0.265801 17
332 1 5.32001 -6.11314 0.00437026 18
333 1 1.89379 -6.5392 2.38113 17
334 1 4.10821 -9.32035 2.26224 11
335 1 1.60757 -9.20026 3.66707 14
336 1 5.79899 -7.80032 5.23829 12
337 1 2.22557 -7.6111 5.57811 15
338 1 3.91128 -6.49747 7.59187 13
339 1 1.735 -3.7873 0.522029 22
340 1 5.43815 -1.25218 0.444196 23
341 1 2.68713 -1.05214 2.19693 20
342 1 4.11732 -4.0589 2.2867 17
343 1 1.29787 -4.758 4.0873 20
344 1 5.25915 -1.71704 3.97 23
345 1 2.58286 -1.50644 5.22308 22
346 1 4.16929 -4.52011 5.57806 22
347 1 1.89021 -3.19357 7.42123 23
348 1 5.61623 -1.19168 7.08554 18
349 1 2.86253 -1.03433 8.99725 18
350 1 4.811 -3.86539 8.8916 11
351 1 0.145389 -5.80152 7.79734 16
352 1 6.81949 -8.89333 2.02378 8
353 1 6.71447 -3.88964 0.91805 22
354 1 11.4629 -1.71406 1.05673 12
355 1 8.44491 -1.61894 2.34719 18
356 1 9.86614 -4.5662 2.14435 13
357 1 6.96437 -4.90213 3.78043 17
358 1 8.26836 -2.3149 5.49822 13
359 1 6.96946 -5.3111 6.81323 11
360 2 1.72162 -6.74418 0.405913 20
361 2 5.39537 -9.19375 0.754893 10
362 2 5.50405 -8.88634 3.48312 9
363 2 1.02779 -6.70473 4.06291 21
364 2 2.34891 -8.87684 2.16405 15
365 2 4.12235 -7.62846 6.0343 12
366 2 -2.40544 -5.78785 5.34638 20
367 2 1.79434 -1.26085 0.475369 19
368 2 4.79671 -4.14116 0.414992 18
369 2 2.08133 -4.71111 2.35422 20
370 2 4.37301 -1.90917 2.08668 21
371 2 1.49487 -1.05392 3.65933 24
372 2 5.19838 -4.09699 4.09486 20
373 2 2.68323 -3.45683 5.43368 19
374 2 4.53561 -0.902364 5.55505 24
375 2 1.82008 -1.31218 7.12951 20
376 2 5.09117 -4.92577 7.21704 16
377 2 1.9846 -6.37154 7.23667 15
378 2 4.56567 -1.84788 8.76123 13
379 2 1.47522 -2.1701 10.1407 15
380 2 7.90382 -7.7514 1.39826 10
381 2 6.53943 -6.12758 5.09095 11
382 2 7.37532 -2.0664 0.734699 20
383 2 8.03659 -5.00416 2.1501 15
384 2 10.0692 -2.79359 2.03105 15
385 2 7.19984 -1.45265 3.95599 20
386 2 7.89467 -3.91158 6.01255 11
387 2 7.61813 -1.30013 7.02967 11
388 1 2.28987 3.80209 -10.9683 11
389 1 3.15721 4.66101 -7.97912 20
390 1 4.2958 1.05773 -7.33738 23
391 1 1.86323 1.68031 -6.3864 22
392 1 5.48617 4.1922 -6.5269 19
393 1 2.74321 4.24343 -4.66309 22
394 1 4.49916 1.42015 -4.52149 21
395 1 1.50904 1.77135 -2.98079 25
396 1 5.4678 4.24603 -2.88465 23
397 1 2.68131 3.9736 -1.43259 22
398 1 4.54778 1.606 -1.45037 23
399 1 1.90139 6.91029 -9.46832 10
400 1 4.6777 7.78373 -7.33376 10
401 1 2.12675 7.71412 -6.08859 18
402 1 4.98102 9.40372 -3.76443 13
403 1 4.68864 6.52032 -4.60966 17
404 1 1.69657 6.93961 -3.07032 21
405 1 2.06027 9.79036 -2.14757 13
406 1 4.61629 6.65052 -1.32014 21
407 1 7.38709 1.57702 -7.52345 12
408 1 8.3825 3.07067 -4.83835 12
409 1 10.3109 0.308354 -3.92297 11
410 1 7.49095 1.58556 -2.62608 22
411 1 8.5013 4.40967 -1.58195 18
412 1 10.9441 1.65947 -0.863503 16
413 1 7.27744 7.35752 -3.14462 13
414 2 2.90652 2.05133 -10.7164 11
415 2 2.33657 4.97328 -9.61128 13
416 2 5.777 0.950465 -8.64192 15
417 2 2.58591 1.02163 -8.04666 20
418 2 4.54268 3.469 -8.19006 16
419 2 1.8691 3.79398 -6.30876 22
420 2 5.44753 0.674327 -5.8682 22
421 2 2.71517 0.967868 -4.72986 24
422 2 4.56084 3.39023 -4.54263 25
423 2 1.6942 3.76614 -3.11532 23
424 2 5.77442 0.760508 -2.72843 20
425 2 2.4468 0.923548 -1.5724 23
426 2 4.67989 3.43952 -1.28836 26
427 2 2.9446 7.74625 -7.88902 12
428 2 4.89412 5.99296 -6.51124 14
429 2 2.67039 6.28961 -4.72936 24
430 2 4.68272 8.34837 -5.38105 12
431 2 1.54512 8.84811 -3.57163 14
432 2 5.52332 6.21475 -2.94111 21
433 2 2.59716 6.06237 -1.58754 23
434 2 3.89642 10.2149 -2.3123 10
435 2 7.70005 -0.444958 -7.27698 13
436 2 7.16409 3.16927 -6.3157 15
437 2 8.58404 1.16695 -4.13789 15
438 2 7.4947 3.94101 -3.30649 16
439 2 11.3808 0.393158 -2.35642 10
440 2 8.28968 0.595425 -1.02342 21
441 2 10.0255 3.39667 -1.01985 13
442 2 8.6675 6.64299 -2.07898 10
443 1 1.921 1.16224 0.371406 21
444 1 5.82854 4.16168 0.270772 23
445 1 2.71807 3.83168 1.99714 21
446 1 4.76168 1.5802 2.08653 19
447 1 1.68022 1.07942 3.89683 22
448 1 5.63859 3.46267 3.91105 19
449 1 2.46064 3.68193 5.51957 20
450 1 4.45343 0.992001 5.46966 22
451 1 1.7086 0.715105 7.13282 24
452 1 5.28407 4.65101 7.01311 11
453 1 2.4532 4.30089 9.11097 16
454 1 4.73215 1.91811 8.52284 14
455 1 1.71833 1.72995 10.391 13
456 1 1.66525 6.81734 -0.109987 21
457 1 5.52589 9.95169 -1.11045 8
458 1 3.12874 9.20413 0.864701 13
459 1 4.62883 6.60851 1.7773 18
460 1 1.76262 6.11919 3.5238 20
461 1 1.30204 9.19699 3.91882 12
462 1 4.46729 7.48929 4.83252 11
463 1 2.38191 6.63741 7.24168 15
464 1 7.51089 1.46724 0.551066 24
465 1 9.39358 3.79182 0.874949 15
466 1 10.2836 1.06817 2.27309 13
467 1 7.25014 0.778934 3.72862 20
468 1 9.1515 3.63755 4.43495 10
469 1 7.78825 0.81611 6.84281 12
470 1 8.69737 6.89338 -0.101772 11
471 1 7.04187 5.86861 2.70857 13
472 2 1.81583 3.29022 0.460395 22
473 2 5.58534 0.74382 0.483005 22
474 2 3.01777 1.07546 2.35798 22
475 2 5.77237 6.10767 0.168724 18
476 2 1.85803 4.11015 3.7855 19
477 2 5.44995 1.36708 3.89104 20
478 2 2.51611 1.59167 5.53792 22
479 2 4.46974 4.00967 5.43049 19
480 2 1.55895 4.68376 7.29039 19
481 2 5.90904 0.910055 7.12746 15
482 2 2.77915 0.838223 8.92298 18
483 2 4.16765 3.63912 8.26041 15
484 2 0.951371 3.51684 10.2267 13
485 2 1.47388 8.88364 -0.697608 17
486 2 4.42173 8.45709 -0.317356 15
487 2 2.7777 6.33256 1.4491 23
488 2 6.60154 9.10199 -2.54774 11
489 2 1.83468 9.30906 2.09863 13
490 2 5.40095 6.72298 3.42481 13
491 2 2.67436 7.59305 4.3249 14
492 2 4.25443 6.35888 6.5226 12
493 2 7.63312 3.48822 -0.204448 22
494 2 11.2649 0.24918 0.959834 14
495 2 8.57961 0.344465 1.88013 19
496 2 9.68713 2.86771 2.52626 13
497 2 4.82609 3.6849 1.96119 19
498 2 8.20995 1.84759 5.05953 13
499 2 7.52612 4.13731 3.54572 14
500 2 8.49477 6.18643 1.71638 13
