ITEM: TIMESTEP
465000
ITEM: NUMBER OF ATOMS
500
ITEM: BOX BOUNDS pp pp pp
-30.0 30.0
-30.0 30.0
-30.0 30.0
ITEM: ATOMS id type x y z Coordination
1 1 1.05185 0.866698 -2.70249 25
2 1 -2.16242 -7.95636 1.35793 13
3 1 -5.12658 -1.81184 2.1761 18
4 1 -5.43845 -0.905822 -4.32964 15
5 1 -7.45685 3.79391 1.8512 22
6 1 -2.38291 0.0231104 -2.90294 21
7 1 -7.33547 0.294687 -2.47672 20
8 1 -5.25199 -1.60087 -0.526017 22
9 1 -5.57325 -3.92434 -7.60875 10
10 1 -6.73352 -5.54678 -4.51943 9
11 1 -2.91791 -3.11085 -1.99462 19
12 1 0.0648608 -1.83437 -2.20798 20
13 1 -3.91888 1.46136 -9.10599 13
14 1 2.81034 -0.90119 -6.62784 20
15 1 -1.45557 -0.440553 -10.279 12
16 1 1.65143 -7.64692 -4.28205 13
17 1 -2.2685 -6.05621 -1.40851 17
18 1 2.74747 -3.92733 -0.544614 22
19 1 -3.68765 -6.35242 4.02368 17
20 1 2.36214 -4.5979 4.85525 20
21 1 -1.7309 -3.24904 -8.12365 17
22 1 0.748783 5.51668 4.24437 19
23 1 -6.33499 -0.771903 -9.11395 6
24 1 3.67735 -5.0061 -3.03597 17
25 1 -1.29716 -6.08795 -6.51057 10
26 1 5.65755 -6.74705 -1.56024 20
27 1 -0.630475 -3.91269 0.26247 21
28 1 5.45805 -1.85345 -5.26414 14
29 1 -1.53249 -0.486383 0.014004 22
30 1 -3.98017 1.17151 -1.52328 22
31 1 -1.79512 2.4938 0.944837 19
32 1 5.77976 3.29403 1.74076 19
33 2 -3.05512 0.522311 -10.3939 11
34 2 -6.06377 -4.92716 -6.08349 10
35 2 -10.5153 0.407633 -0.923712 14
36 2 -5.16512 -2.40567 5.76051 17
37 2 -0.634268 1.26255 -0.57252 23
38 2 -0.0826543 -1.87449 0.47084 22
39 2 2.58755 7.69262 -8.99663 10
40 2 -6.76393 -5.68212 2.23651 16
41 2 -6.55249 -4.7194 -2.93705 13
42 2 -5.45753 -9.31443 -1.4166 7
43 2 -2.88116 2.18251 -3.12644 21
44 2 10.2164 1.64464 -1.35941 20
45 2 -5.49071 0.756291 -8.59124 8
46 2 -0.971081 -1.65958 -9.02247 14
47 2 3.61686 -6.09128 -1.26503 21
48 2 3.53052 -1.14661 -4.74955 19
49 2 0.38924 -6.46025 3.14114 15
50 2 -7.41501 -2.67148 3.68355 19
51 2 -4.86098 -3.7161 2.9247 19
52 2 -0.775535 -0.396882 -3.5124 21
53 2 -6.56136 1.3855 -4.29729 16
54 2 -4.50884 0.0923945 -5.51304 16
55 2 -2.73638 -5.23581 -8.55004 8
56 2 -2.5549 -2.69895 -6.23764 18
57 2 4.39751 0.698077 -2.21219 22
58 2 -3.01882 -7.50831 -2.5815 13
59 2 -4.06522 -1.16513 3.69171 21
60 2 -2.3837 3.98797 -0.331342 17
61 2 -12.8929 -0.836605 -0.262602 12
62 2 0.205387 -2.86185 -3.80728 20
63 2 -5.75985 0.174788 6.01272 17
64 2 0.994185 -4.81261 0.176387 23
65 1 -10.4103 -5.21198 4.6205 12
66 1 -4.49086 -10.1723 -0.159125 6
67 1 -2.52512 -4.04959 8.87473 9
68 1 -10.7732 0.264852 4.31477 13
69 1 -6.018 -7.85966 -2.21802 10
70 1 -6.21188 1.15108 0.809899 20
71 1 -3.55074 -4.2316 1.47605 22
72 1 -5.57538 -6.52221 1.32186 14
73 1 -7.24303 -5.96576 4.0506 14
74 1 -6.33003 3.07042 11.4353 9
75 1 -7.55488 -3.90967 1.95233 16
76 1 -14.4107 -3.34667 1.93918 6
77 1 -11.3643 0.329744 8.04656 10
78 1 -8.77804 -2.12839 9.00772 12
79 1 1.86009 -4.17705 1.89422 19
80 1 -0.465542 0.0269861 6.92373 16
81 1 -8.51228 -1.62046 0.177783 20
82 1 1.29852 -6.67009 -1.32491 19
83 1 -5.26727 -6.23271 6.87389 13
84 1 -5.66211 -1.76453 10.254 12
85 1 -2.1576 -4.79012 6.15356 16
86 1 -5.92624 -4.45054 8.75244 12
87 1 -9.39668 -2.56868 4.07478 16
88 1 1.78902 -1.59698 0.719501 21
89 1 -11.0903 -2.98188 7.30744 11
90 1 -1.68209 0.953223 3.8267 19
91 1 -7.98707 0.628508 6.34747 18
92 1 -5.22444 -3.92694 4.73463 19
93 1 -11.0576 -3.71777 1.79162 16
94 1 0.927166 4.28062 12.3307 9
95 1 -8.85492 -5.39592 7.31053 11
96 1 -7.88287 4.07576 5.70297 21
97 1 -1.40274 1.55394 11.884 11
98 1 -0.749401 -0.769221 10.1333 14
99 1 0.07863 -2.82721 4.97811 18
100 2 -5.34839 -6.04299 4.91346 14
101 2 -6.94778 -6.1366 7.73763 9
102 2 -6.57077 -1.47061 -2.81009 16
103 2 8.40766 -4.23601 -1.98201 20
104 2 -4.17175 -4.06163 -0.3909 17
105 2 -10.9134 -1.62453 4.21347 15
106 2 -11.6111 -3.34535 -1.51536 10
107 2 -5.85621 -6.60225 -0.504829 14
108 2 -11.6858 -3.93014 5.64672 12
109 2 -12.6979 -3.45967 2.69419 11
110 2 -10.0687 -4.12948 3.09137 14
111 2 -7.25534 2.71776 9.49627 11
112 2 1.27307 -5.95066 -3.26378 18
113 2 -3.2684 -6.48293 1.99058 16
114 2 3.9345 -3.62829 4.88698 21
115 2 1.91993 -7.8403 -0.111479 14
116 2 -2.95121 -9.72426 0.797451 6
117 2 4.83129 -7.09847 6.19756 9
118 2 -2.0391 -6.47195 5.00089 13
119 2 8.378 -5.72424 -4.29263 16
120 2 -1.04234 -5.04395 8.20521 11
121 2 0.0931232 -0.944629 8.29265 13
122 2 -7.89422 0.331895 -0.378059 17
123 2 2.90216 -3.26352 -2.21093 19
124 2 -1.58009 -3.82829 1.98932 20
125 2 -8.72789 -5.77933 5.01951 14
126 2 -11.0748 1.1475 6.26286 13
127 2 2.91918 -5.69119 2.49019 17
128 2 -14.5377 -3.42346 0.141802 6
129 2 -9.23088 0.0656577 8.1273 12
130 2 -7.00465 7.79188 10.5299 6
131 2 -5.28374 -0.330585 9.01789 19
132 2 -9.40631 -3.40251 7.64008 12
133 2 -4.61882 -1.9199 12.0267 9
134 2 6.33782 -1.8618 5.96283 15
135 2 5.54455 -2.16999 2.90498 14
136 1 -3.84647 -6.43008 -7.7634 8
137 1 -7.39847 -3.15085 -2.87658 14
138 1 2.02433 4.1645 -8.47382 23
139 1 -5.55294 1.50109 -6.3996 13
140 1 -3.77902 8.6861 -0.480557 11
141 1 -1.42735 2.55362 -1.68512 21
142 1 -5.08008 2.38635 -3.5427 20
143 1 -6.25279 4.785 -5.06943 13
144 1 -10.2991 -1.25812 -1.96696 16
145 1 0.917411 7.76089 -9.753 11
146 1 -9.33436 5.69243 0.707305 13
147 1 -3.97835 -6.38792 -3.7788 16
148 1 -5.22666 2.61034 3.79689 21
149 1 4.79724 4.56743 -6.54113 14
150 1 -2.01535 5.9082 -0.935832 19
151 1 2.56174 6.31607 -1.00765 14
152 1 -0.17412 -0.115331 -7.56767 19
153 1 2.41175 5.18047 -5.38847 18
154 1 -3.25214 -3.71942 -5.15439 17
155 1 -0.925955 1.83623 -4.77177 21
156 1 -10.0154 6.20663 6.85301 12
157 1 -0.792915 2.68391 -8.28091 21
158 1 1.63856 2.26982 -6.07903 23
159 1 6.0608 -3.54792 -2.70053 20
160 1 7.32667 5.40008 -4.30794 11
161 1 -3.16997 6.4265 -5.7071 13
162 1 -1.3236 6.13557 7.36457 18
163 1 -4.52488 6.47662 -2.55804 15
164 1 3.66136 2.20665 -1.25834 20
165 1 -3.33758 4.13527 -3.35574 20
166 1 -6.30298 6.48765 0.370087 13
167 1 -0.735928 5.17651 -6.11084 22
168 2 0.0697666 4.38239 -8.50969 17
169 2 -7.89248 4.23935 -4.6212 8
170 2 -3.5095 1.94844 -7.19596 16
171 2 -4.28632 -0.464266 -2.6203 16
172 2 -2.40022 4.75277 -5.57607 18
173 2 0.872492 -1.67702 -6.6801 18
174 2 0.414882 -8.64416 -2.97512 11
175 2 -4.35289 0.234549 0.142886 20
176 2 -2.15148 8.2948 -1.32899 11
177 2 -2.8807 -4.44272 -3.48256 15
178 2 1.25549 7.8542 -6.28928 12
179 2 -4.08981 6.49652 10.2753 11
180 2 -8.74162 2.28831 1.44473 19
181 2 -1.28015 -4.60576 -1.28743 17
182 2 3.50687 -8.14695 -4.42297 13
183 2 4.29431 5.46336 -0.84272 15
184 2 -0.556284 7.35326 -8.95074 10
185 2 5.18318 3.42763 -2.68593 17
186 2 -4.7603 3.44706 -5.11009 16
187 2 2.47583 0.91415 -7.2439 21
188 2 -8.76933 2.15282 -2.28533 13
189 2 -6.2142 5.89346 2.08989 14
190 2 7.33283 0.0633441 -2.17135 16
191 2 0.942199 7.33836 2.82621 14
192 2 -2.18396 4.44041 6.50153 17
193 2 -1.82243 7.91009 -5.48088 13
194 2 -0.310514 3.11504 -6.1054 21
195 2 -4.95009 6.3311 -4.40849 13
196 2 0.76337 5.74477 -5.07338 20
197 2 -2.16093 6.23557 -2.83867 22
198 2 1.82387 8.01703 -0.442381 9
199 2 -2.29466 3.01603 -9.56344 12
200 2 -7.59584 4.98749 -0.215478 15
201 2 -1.21246 6.30335 0.560257 13
202 1 -9.88706 -4.14516 -0.864222 13
203 1 -2.42906 3.96809 4.46257 18
204 1 -7.34291 3.3849 -1.18829 18
205 1 -12.6303 0.57202 -1.5342 8
206 1 -6.17278 -4.81347 -0.952323 19
207 1 -7.30455 4.24079 8.26013 15
208 1 -13.3723 -2.49147 -0.882052 10
209 1 -12.5989 -2.47291 4.55568 11
210 1 -12.6445 3.59323 0.677383 8
211 1 -7.9772 1.11893 3.05596 19
212 1 -10.95 5.79778 3.6155 11
213 1 0.924905 6.45518 9.3878 11
214 1 -5.89175 5.43853 3.80974 14
215 1 -11.9668 0.224737 0.932614 14
216 1 -11.0502 3.01058 5.81634 15
217 1 9.13931 -3.90257 -3.7556 18
218 1 -8.64694 6.89337 3.88804 14
219 1 -4.52514 3.99834 -0.0272821 20
220 1 -7.58012 8.13142 8.85246 9
221 1 -8.3391 2.41518 -4.34826 10
222 1 -0.454666 5.37425 -3.269 22
223 1 -5.33626 1.59686 8.73403 19
224 1 -6.64011 6.69142 6.67491 14
225 1 -4.16119 4.40885 6.76354 17
226 1 -3.98501 7.5554 8.51327 13
227 1 -8.95545 1.83968 8.68367 13
228 1 -3.1296 -2.46412 10.9632 9
229 1 -5.73373 6.52895 11.1817 9
230 1 -6.18919 -0.907772 4.37058 18
231 1 1.814 3.22328 -3.00653 22
232 1 -0.175959 3.26622 6.32709 20
233 1 -0.720301 3.51874 9.52716 17
234 1 -10.5794 2.74715 2.5383 17
235 1 -2.53346 8.93037 6.22783 8
236 1 4.34825 6.36777 3.41098 12
237 1 0.263843 8.38814 4.54064 11
238 1 5.43667 6.09762 0.538484 15
239 1 2.87668 4.33796 9.27777 12
240 2 -1.91205 -0.165533 1.93253 19
241 2 -10.4842 3.73035 4.13308 18
242 2 -9.73265 6.50583 2.21557 12
243 2 -8.87788 -2.46837 -1.88182 14
244 2 -13.1959 1.85082 -0.343864 9
245 2 -4.61414 4.25757 -2.02639 18
246 2 -4.94323 7.37468 -0.934705 12
247 2 -6.67837 -2.62465 0.544568 19
248 2 -9.08677 -3.48699 0.656598 14
249 2 -8.462 6.86326 7.73892 12
250 2 -5.70618 7.94128 7.81508 12
251 2 1.79243 2.23629 -1.17002 18
252 2 -7.23746 3.50734 3.82839 18
253 2 -0.957599 5.05268 3.69987 17
254 2 -11.422 0.883713 2.65759 16
255 2 -11.0212 4.49684 1.103 12
256 2 -11.8422 -1.46803 7.91922 9
257 2 -5.98148 1.77548 -1.49984 20
258 2 -10.6793 4.07291 7.20752 12
259 2 5.1438 1.54065 2.46213 17
260 2 -7.36377 6.19414 4.95473 16
261 2 -5.86482 5.13567 7.27605 18
262 2 -3.15247 9.42501 1.12395 8
263 2 -2.24447 -0.223518 11.1237 14
264 2 -2.63555 7.46845 7.34409 12
265 2 -1.25608 -2.74405 10.0587 10
266 2 -0.952202 4.74604 11.7214 11
267 2 -1.56368 9.18103 4.40838 8
268 2 -7.77987 2.65946 6.98686 15
269 2 -0.536174 3.48315 -3.0933 22
270 2 1.4123 5.48621 -2.63056 15
271 2 -6.34138 0.0385523 2.7025 19
272 2 2.19976 0.215079 7.39457 15
273 2 -0.669337 5.5904 9.00025 19
274 2 -1.59671 2.60293 2.75261 19
275 2 0.341904 6.90139 5.92333 17
276 2 -5.14677 4.71246 12.335 7
277 2 0.249651 2.43884 11.6688 11
278 1 6.7071 -3.45994 -10.1072 12
279 1 4.75917 -5.88614 2.12227 20
280 1 -1.322 -8.70435 -2.19873 12
281 1 -5.16944 -1.09612 7.28035 16
282 1 1.59972 -4.30063 -6.58244 15
283 1 11.2276 -1.12626 -3.95803 17
284 1 1.11451 1.41095 0.395788 22
285 1 6.52654 -5.5069 -4.82643 17
286 1 -9.44242 1.90476 -0.227897 21
287 1 3.58272 1.44849 -8.76723 17
288 1 4.11868 -4.06844 -8.14467 15
289 1 8.97319 -1.75416 -10.9065 6
290 1 4.12739 -9.28586 -3.22343 11
291 1 -3.09225 3.27583 -6.11841 20
292 1 0.373001 -4.38712 -2.82408 20
293 1 10.4403 1.02187 -9.61384 11
294 1 6.67256 -6.44681 -7.94027 8
295 1 6.4759 -8.2078 1.40349 13
296 1 11.1171 -2.75472 -1.67409 16
297 1 9.45694 -7.8781 0.0670222 9
298 1 1.00536 -2.0972 -9.14708 15
299 1 12.577 -5.51379 -2.3262 7
300 1 -0.745096 5.71494 -9.61177 11
301 1 1.33526 -9.40765 -1.09383 10
302 1 1.40942 -7.33698 1.79133 15
303 1 -0.424711 -1.49752 -4.9911 22
304 1 4.13579 0.725336 -4.23306 22
305 1 9.17202 0.100009 -2.15061 18
306 1 8.36571 -1.8779 -5.33903 16
307 2 -6.31148 -2.37851 -8.38362 4
308 2 5.3938 -7.02327 0.397436 16
309 2 0.644637 -3.66758 3.35756 20
310 2 1.78828 0.742401 2.4124 21
311 2 -3.83397 -4.98298 7.3607 14
312 2 7.33301 -4.91853 -8.82513 11
313 2 -0.984362 0.363662 -6.05284 20
314 2 -5.58977 -7.03018 -3.92237 11
315 2 6.85896 -2.91907 -4.42984 18
316 2 1.53116 1.65806 -4.40158 21
317 2 10.7009 -3.07917 -3.60947 18
318 2 -1.88539 -1.28984 -1.68008 22
319 2 3.03894 -5.52737 -6.39214 12
320 2 5.3611 -8.47346 -2.1687 13
321 2 3.19084 3.41613 -5.24737 18
322 2 9.14783 -0.66067 -4.0565 21
323 2 7.58423 -1.35418 -9.63087 16
324 2 4.6879 -2.41619 -7.43911 18
325 2 8.64726 -7.78543 -1.48947 14
326 2 9.38018 -2.53666 -6.85967 15
327 2 -0.161691 -4.64056 -6.67194 16
328 2 10.5907 2.75085 -10.3051 6
329 2 6.52014 -7.04915 2.9012 11
330 2 4.72392 -3.50431 -9.83675 10
331 1 0.996859 -5.14686 7.87734 13
332 1 10.9186 -4.21051 0.835611 11
333 1 -3.55386 0.264873 2.37845 19
334 1 9.25963 -6.54166 -2.78259 15
335 1 -0.0770898 -7.02284 5.064 14
336 1 7.86201 -5.45331 2.70838 12
337 1 -0.941992 -5.1004 3.43182 20
338 1 3.66829 -1.88923 3.10886 19
339 1 3.39211 -1.14596 -1.32563 21
340 1 8.41567 6.31236 -0.796386 11
341 1 3.76557 -8.17073 -0.323819 14
342 1 5.95947 -3.20803 4.63813 16
343 1 6.14793 -0.2635 2.4465 18
344 1 9.35214 -1.51545 1.1885 16
345 1 7.12179 0.0557468 5.97881 11
346 1 11.6964 -1.11753 2.46268 10
347 1 3.02809 -7.22866 6.74099 9
348 1 8.67844 1.40557 2.97478 13
349 1 5.70266 -1.54531 7.83995 10
350 1 -2.92072 -1.99702 5.02269 22
351 1 1.36103 0.196933 4.1227 16
352 1 8.84291 -4.34216 -7.66775 13
353 1 9.77454 -0.937812 -7.58362 14
354 1 7.23094 -9.24249 -1.51205 10
355 1 8.06216 -4.84205 -0.331807 18
356 1 12.5615 0.0994372 -0.891527 16
357 1 13.4615 2.05455 1.16329 8
358 1 10.273 -6.14441 -5.11782 9
359 1 14.2595 -0.352614 -4.71177 6
360 2 7.73208 -9.16843 0.397816 8
361 2 9.96235 -0.83829 -9.57198 8
362 2 -2.20022 0.576564 6.86648 18
363 2 1.64299 -6.44314 5.60289 17
364 2 2.90874 -5.63792 7.85311 9
365 2 3.14911 -2.84202 1.43381 22
366 2 1.16787 -3.81781 6.31828 18
367 2 -4.12939 2.58317 7.60797 19
368 2 3.01147 -10.0532 -1.66349 9
369 2 5.67406 -2.4518 -1.06405 18
370 2 7.40152 1.15938 4.28752 12
371 2 -8.82288 0.298717 4.58059 18
372 2 11.1293 -2.55954 1.48413 10
373 2 0.235117 1.7028 4.85487 20
374 2 -3.46226 1.16961 4.30297 19
375 2 -1.31979 -7.5522 -0.314172 14
376 2 -2.38883 2.66262 10.4384 16
377 2 12.1724 -4.38697 -0.916875 9
378 2 3.75112 -2.17344 7.64434 14
379 2 -7.07671 -2.85882 9.33459 11
380 2 6.97028 -4.64866 4.1868 11
381 2 5.84282 -6.66259 -6.42471 11
382 2 9.41956 -5.62805 -6.59805 11
383 2 9.79529 2.11061 -4.85695 15
384 2 9.81339 -0.304454 2.64131 11
385 2 10.9207 -6.1596 -3.16897 12
386 2 9.99611 5.82759 -0.269616 9
387 2 12.215 -1.32179 -2.35354 13
388 1 -3.06625 -0.704728 -6.46326 17
389 1 6.86515 3.15324 -8.90164 14
390 1 4.14351 -1.48891 -9.82482 15
391 1 1.31478 1.25505 -13.5145 5
392 1 1.09035 0.985527 -10.4365 17
393 1 6.65304 4.19202 -11.2009 7
394 1 -0.691645 8.15096 -6.93932 12
395 1 6.26282 1.76648 -1.71175 16
396 1 3.24885 6.45189 -10.2109 8
397 1 11.449 4.70934 -0.333562 11
398 1 6.12583 -1.38941 -7.77229 19
399 1 6.08139 4.62604 -1.27049 16
400 1 2.96 3.54365 -11.3534 11
401 1 3.07959 4.50614 1.49562 19
402 1 1.20673 7.75437 -4.42888 14
403 1 -0.847941 6.38192 2.23428 15
404 1 -1.15897 2.11608 -10.9877 13
405 1 -2.76418 9.94878 2.89215 5
406 1 2.98026 7.68292 -7.18095 12
407 1 9.60898 3.4558 -6.39153 11
408 1 11.1887 1.01485 -5.82596 12
409 1 3.9906 -7.1718 -5.98017 11
410 1 3.54903 -0.451609 6.26797 17
411 1 0.386662 2.84938 3.25172 17
412 1 6.79252 0.190114 -10.3395 11
413 1 9.8955 4.29509 -10.9562 6
414 2 5.27915 3.65661 -7.92497 16
415 2 -5.22369 2.8756 1.69074 22
416 2 -2.9519 -6.20965 -5.75052 13
417 2 2.03146 2.83173 -12.8443 8
418 2 0.0529178 1.19726 -12.1471 11
419 2 6.14648 4.28477 -5.16223 15
420 2 2.3185 2.43608 -9.81033 17
421 2 14.0755 1.19177 -0.634706 9
422 2 7.03351 2.07864 -10.578 14
423 2 10.9526 4.27115 -2.32233 12
424 2 1.12868 6.00923 -10.7301 12
425 2 2.87775 5.67053 -7.36546 16
426 2 10.4131 0.954323 -7.60479 10
427 2 8.28459 4.71137 -10.3742 7
428 2 6.79289 -0.793193 -6.06803 15
429 2 7.99703 3.00717 -7.18218 16
430 2 2.96228 -0.127154 0.24668 21
431 2 4.60512 4.36612 -11.0426 12
432 2 7.86632 6.11001 -2.57526 12
433 2 0.134963 8.38827 -3.03005 13
434 2 3.98117 2.98784 0.658087 20
435 2 2.63527 -0.206075 -9.77492 16
436 2 1.94781 -3.45782 -8.40395 13
437 2 5.78372 -5.46365 -2.99838 20
438 2 1.67173 -0.81816 -2.24971 23
439 2 5.17884 -0.0103784 -9.08575 17
440 2 7.11976 5.3374 0.277714 13
441 2 7.18741 -0.963828 1.10494 15
442 2 12.3875 -0.375875 -5.05736 11
443 1 10.7729 2.48253 -3.04725 16
444 1 6.46947 1.85315 -6.67994 17
445 1 -0.636854 -2.20307 2.4772 21
446 1 5.32257 -2.69687 0.967686 17
447 1 -3.87047 0.81961 6.1432 19
448 1 -2.35469 2.18871 8.11688 18
449 1 1.94359 -1.49209 8.16171 14
450 1 1.57028 1.73494 8.38789 17
451 1 -4.27094 0.236596 11.9045 11
452 1 7.12189 -1.21185 -0.799834 17
453 1 2.38146 6.30274 6.47794 12
454 1 3.09851 3.90067 5.02996 16
455 1 -3.55828 3.33432 11.9005 13
456 1 -0.0573188 8.58719 -1.26279 14
457 1 10.0075 5.44727 -3.46009 10
458 1 -1.87136 8.40151 -3.40524 13
459 1 8.25769 3.60556 0.381997 15
460 1 3.99758 -3.87886 6.94848 14
461 1 2.38115 -1.85185 -3.50715 18
462 1 2.22759 7.8924 1.61048 13
463 1 -2.19925 5.65127 10.5347 14
464 1 4.96133 3.09074 -4.47954 18
465 1 15.2622 1.58188 -1.96623 5
466 1 4.34107 1.86292 7.14056 12
467 1 5.43335 1.65826 4.33212 15
468 1 6.18005 -6.76343 5.02671 9
469 1 7.57981 0.655641 -4.16358 20
470 1 3.53761 1.11001 1.63938 21
471 1 10.8431 1.95293 0.431443 17
472 2 -0.552047 1.05482 -9.23585 18
473 2 9.68256 -1.16112 -0.727216 19
474 2 4.54609 2.8322 5.65817 14
475 2 3.92594 6.94718 1.71732 12
476 2 -0.0652789 2.43144 8.03224 19
477 2 -1.72899 -3.44261 4.72495 19
478 2 5.26787 0.175301 7.02137 13
479 2 12.3128 3.24734 0.546568 11
480 2 2.61086 5.81979 8.19445 10
481 2 6.47554 -4.62048 0.736307 19
482 2 -4.3604 -3.7431 9.7623 12
483 2 3.32741 2.72529 8.59475 12
484 2 -4.79968 1.8952 11.344 13
485 2 -10.2905 6.6907 5.18751 11
486 2 1.6285 4.2782 2.79546 19
487 2 6.6572 2.88542 -0.328124 16
488 2 4.77522 4.65935 2.83613 15
489 2 1.43834 4.80611 10.3795 12
490 2 3.39402 -0.48698 4.27363 20
491 2 -4.57206 4.18414 4.5791 18
492 2 1.39583 4.26803 5.86242 19
493 2 9.04984 4.8468 -5.04181 9
494 2 9.33926 -5.35769 1.10627 12
495 2 9.33386 2.38018 1.46843 15
496 2 14.8237 0.941256 -3.40949 6
497 2 5.78986 1.31903 -4.63617 16
498 2 3.81016 6.21935 5.21245 12
499 2 -0.358487 -0.991698 4.17397 19
500 2 12.2939 0.359342 1.37358 12
