ITEM: TIMESTEP
288000
ITEM: NUMBER OF ATOMS
500
ITEM: BOX BOUNDS pp pp pp
-30.0 30.0
-30.0 30.0
-30.0 30.0
ITEM: ATOMS id type x y z Coordination
1 1 -5.89955 -6.5078 -6.28073 13
2 1 -6.41367 -5.84444 -3.0293 18
3 1 -9.43726 -5.73235 2.34283 13
4 1 -7.2156 -3.23979 -7.53056 13
5 1 -6.51955 -0.597958 -6.04177 17
6 1 -7.44775 -2.9162 -4.30167 21
7 1 -10.3616 -3.30976 -2.94447 12
8 1 -8.79514 -5.28726 -5.13661 11
9 1 -8.96653 -5.46965 -1.48486 15
10 1 -6.33684 -0.556092 -2.55058 23
11 1 -8.8416 -0.565208 -1.38168 20
12 1 -7.01581 -3.32842 -0.982929 24
13 1 -4.80606 -4.37143 -9.12414 10
14 1 0.380088 -6.28977 -7.13085 14
15 1 -2.77095 -6.48174 -7.56937 13
16 1 -0.948057 -8.23618 -5.23591 13
17 1 -3.31469 -6.53412 -4.11509 19
18 1 -0.412539 -6.19064 -2.41395 20
19 1 -3.38407 -5.95324 -0.869201 23
20 1 -1.71717 -8.6441 -1.91114 16
21 1 0.153709 -1.53729 -10.4821 12
22 1 -3.63303 0.625934 -10.0783 13
23 1 -3.09817 -1.90309 -8.2435 18
24 1 -0.961159 -3.81299 -8.20004 20
25 1 -4.30738 -3.96033 -6.22061 22
26 1 -0.347067 -1.60107 -6.16313 20
27 1 -3.26194 -0.990949 -4.66404 23
28 1 -1.58638 -4.12607 -4.51263 22
29 1 -4.56691 -3.38919 -2.52832 23
30 1 -0.56476 -0.796148 -3.13122 20
31 1 -3.44288 -0.812136 -1.33179 23
32 1 -1.5343 -3.44254 -1.1971 22
33 2 -3.79616 -6.46309 -5.83007 14
34 2 -7.16406 -5.47588 -1.04626 16
35 2 -7.34131 -1.19793 -7.61839 11
36 2 -9.28958 -4.89558 -3.33302 12
37 2 -8.05907 -3.75225 -5.91062 14
38 2 -6.94751 -6.35563 -4.72118 15
39 2 -7.25355 -0.920781 -4.28653 16
40 2 -9.6848 -1.48567 -2.85507 15
41 2 -6.38565 -3.70555 -2.88807 21
42 2 -10.0108 -3.80926 -1.0432 12
43 2 -7.16317 -1.33974 -0.94013 25
44 2 0.412525 -4.93769 -8.67277 16
45 2 -5.95606 -4.98895 -7.42536 13
46 2 -1.68146 -7.38639 -3.49626 17
47 2 -1.17864 -7.26574 -6.84553 13
48 2 -4.43224 -6.51789 -2.45571 17
49 2 0.85676 -7.99951 -4.44351 12
50 2 -2.84365 -9.57987 -0.686443 12
51 2 -1.54215 -6.90518 -1.06121 21
52 2 0.158939 0.488927 -9.92743 15
53 2 -4.72832 -2.37561 -9.38306 13
54 2 1.80101 -2.45067 -9.69757 14
55 2 -3.13394 -4.68116 -8.07884 17
56 2 -1.07428 -1.88168 -8.962 17
57 2 -3.75405 -1.95532 -6.11174 22
58 2 -0.455113 -3.77032 -6.18517 20
59 2 -3.69193 -4.10519 -4.28357 23
60 2 -1.57832 -1.96358 -4.56341 21
61 2 -4.55747 -1.46535 -2.76132 23
62 2 -0.55058 -4.24577 -2.85762 22
63 2 -3.48326 -3.96702 -1.09548 24
64 2 -1.31268 -0.968167 -1.20417 21
65 1 -10.2144 -2.58491 0.62589 14
66 1 -6.20907 -6.17508 0.535743 20
67 1 -6.45585 -6.08172 3.65893 18
68 1 -5.76605 -6.37066 6.9081 14
69 1 -9.72192 -3.06749 4.18185 13
70 1 -6.22824 -1.02781 0.711516 22
71 1 -8.71048 -0.435392 2.60583 20
72 1 -7.25538 -3.58053 2.38197 19
73 1 -8.95469 -5.40124 6.02853 10
74 1 -5.83587 -0.584146 4.10332 20
75 1 -8.54158 -1.24309 6.15919 13
76 1 -6.68965 -3.53907 5.90708 19
77 1 -5.58312 -0.387615 7.58192 15
78 1 -3.9026 -3.71565 7.55888 15
79 1 -4.24358 -8.78854 0.448351 12
80 1 -0.510668 -7.24276 0.692861 22
81 1 -3.51091 -6.28246 2.2342 19
82 1 -1.43722 -10.6183 0.517119 11
83 1 -0.537335 -6.96303 3.8218 20
84 1 -3.46396 -7.34785 5.18797 19
85 1 -3.00779 -10.0308 3.65897 10
86 1 -1.22358 -8.34845 6.27354 13
87 1 -4.1854 -3.41514 0.692102 23
88 1 -0.450473 -1.39007 0.473773 21
89 1 -3.15907 -0.892273 2.14952 21
90 1 -1.25903 -4.04139 2.10684 20
91 1 -4.2641 -4.34715 4.11937 21
92 1 -0.369033 -1.53493 4.0409 21
93 1 -3.25238 -1.39738 5.58484 19
94 1 -1.67504 -4.30692 5.66828 22
95 1 -2.80618 -6.59665 8.33017 12
96 1 -0.161519 -1.70253 7.05521 22
97 1 -2.69778 -0.4321 8.80551 16
98 1 -0.906726 -3.91475 8.72482 16
99 1 2.13284 -3.7199 9.80113 13
100 2 -7.69268 -6.2275 1.84906 12
101 2 -7.27659 -6.241 6.00477 10
102 2 -9.24146 -3.67943 1.97213 15
103 2 -6.08926 -4.15651 0.858313 23
104 2 -9.84693 -4.92455 4.22508 12
105 2 -7.18835 -1.4509 2.24643 21
106 2 -9.59893 -0.93479 4.34463 14
107 2 -6.33943 -4.11677 3.95883 24
108 2 -8.57161 -3.38402 6.50354 11
109 2 -6.52157 -1.06608 5.94772 18
110 2 -5.76117 -4.58958 7.57278 15
111 2 -3.87318 -1.51488 7.58604 17
112 2 -4.45249 -6.82238 0.452247 18
113 2 -0.17289 -9.15172 -0.363352 15
114 2 -3.69941 -8.5873 2.43577 15
115 2 -1.36709 -6.38244 2.21649 20
116 2 -4.72565 -6.36881 4.22972 20
117 2 -1.40646 -10.5922 2.48156 12
118 2 -2.6368 -9.18052 5.25948 12
119 2 0.0869103 -8.65385 4.76584 16
120 2 -4.03808 -6.85836 7.05214 15
121 2 -1.16341 -7.59546 8.02552 13
122 2 -4.16747 -1.422 0.431434 22
123 2 -0.249496 -3.63114 0.268094 22
124 2 -3.24532 -4.22628 2.22174 22
125 2 -1.24448 -1.79828 2.26082 23
126 2 -3.91732 -0.821003 3.90209 19
127 2 -0.336 -3.8102 4.14532 21
128 2 -3.44612 -3.44876 5.573 20
129 2 -1.16037 -0.822116 5.73534 21
130 2 -2.79528 1.53169 8.48633 15
131 2 0.374426 -3.26538 7.27331 20
132 2 -2.2539 -4.74885 7.6819 18
133 2 -1.32802 -1.88195 8.69868 16
134 2 0.916528 -5.13707 9.59164 12
135 2 3.31793 -4.71101 8.55914 15
136 1 -6.25276 -1.08806 -9.18102 11
137 1 -9.0831 -0.0678286 -3.93856 13
138 1 -5.0257 4.4993 -7.20936 13
139 1 -8.22519 5.91187 -2.98632 14
140 1 -6.83875 1.89157 -4.90079 19
141 1 -9.27728 2.96864 -2.60665 15
142 1 -6.05656 4.20819 -3.07365 19
143 1 -9.58495 4.903 -0.0885269 15
144 1 -6.93666 2.0543 -1.02655 22
145 1 -6.62015 5.61099 -5.33556 13
146 1 -6.45416 7.96429 -1.64548 16
147 1 -1.13023 2.06079 -11.5949 10
148 1 -6.01394 2.12118 -8.71583 14
149 1 0.648228 4.56218 -10.2847 8
150 1 -2.41733 3.45367 -8.52129 14
151 1 -0.882447 0.0497584 -8.35963 21
152 1 -3.59959 1.45272 -6.55821 21
153 1 -0.0549705 4.16344 -6.68374 17
154 1 -3.05026 4.17858 -4.84323 22
155 1 -0.945369 1.28376 -5.05625 21
156 1 -4.11121 1.70124 -2.99484 24
157 1 -0.363345 3.70936 -3.29258 20
158 1 -3.01175 4.17644 -1.22681 21
159 1 -1.39541 1.22515 -1.29994 19
160 1 -1.22329 6.89372 -4.57322 17
161 1 -3.79409 7.46285 -5.8907 12
162 1 -4.40367 6.52359 -2.94664 22
163 1 -3.35866 9.47573 -3.3309 12
164 1 -4.57085 10.324 -0.681316 14
165 1 0.0226269 9.10211 -3.65548 14
166 1 -7.56309 11.1499 1.16406 6
167 1 -1.06035 6.40684 -1.6293 18
168 2 -5.55415 0.609703 -9.76917 11
169 2 -6.40616 3.82509 -8.23735 9
170 2 -5.6598 1.20302 -6.42289 19
171 2 -8.83044 1.82516 -4.20655 15
172 2 -6.78404 3.88345 -4.69261 19
173 2 -9.1651 4.72789 -1.95343 15
174 2 -6.01844 1.28634 -3.00828 23
175 2 -8.89938 1.48871 -1.51314 17
176 2 -6.7784 3.98391 -1.41425 22
177 2 -5.09782 6.13191 -6.18927 11
178 2 -6.39172 6.36763 -3.34912 17
179 2 -8.26549 7.31344 -1.80257 12
180 2 -5.92908 11.0045 0.333161 9
181 2 -2.61768 2.24501 -10.2516 12
182 2 0.47619 2.94355 -11.2876 8
183 2 -3.10856 0.127926 -8.23663 19
184 2 -0.581878 3.74263 -8.60948 15
185 2 -3.49978 3.38952 -6.69426 18
186 2 -0.0403952 0.395177 -6.38452 22
187 2 -2.91806 0.903272 -4.80574 21
188 2 -1.15838 3.39317 -5.2785 20
189 2 -3.9169 3.81603 -3.13642 20
190 2 -0.438572 1.14082 -3.11773 20
191 2 -3.35294 1.1223 -1.07906 22
192 2 -1.24218 3.42429 -1.36811 23
193 2 -0.00106765 6.22341 -6.06222 17
194 2 -3.00532 6.13593 -4.80999 19
195 2 -1.83176 8.90018 -4.12322 14
196 2 -4.58848 8.45221 -2.39734 15
197 2 -2.96665 10.6048 -1.65522 12
198 2 -4.32733 9.20956 0.839404 17
199 2 0.110109 6.30735 -3.25336 19
200 2 -3.00523 6.22937 -1.38391 22
201 2 0.601425 10.5728 -2.41717 11
202 1 -9.51538 1.45065 0.54846 14
203 1 -6.14477 5.0116 0.0497276 26
204 1 -9.88991 3.01152 3.11184 13
205 1 -6.6545 2.08975 2.15408 23
206 1 -10.0359 0.900334 5.23383 10
207 1 -6.45279 4.76596 7.63216 14
208 1 -8.16888 4.21542 5.57923 16
209 1 -7.89417 1.82345 8.09439 13
210 1 -7.08035 7.22174 5.01728 12
211 1 -6.59077 1.9606 5.4984 23
212 1 -8.58439 7.78342 -0.0845033 12
213 1 -3.83126 7.50758 3.45918 17
214 1 -6.04812 8.435 1.63727 18
215 1 -7.67503 5.69776 2.34662 16
216 1 -4.16065 1.92139 0.547816 24
217 1 -0.189227 4.12599 0.202094 19
218 1 -3.10198 4.45942 1.76676 22
219 1 -1.17961 1.64595 2.03835 21
220 1 -3.98419 1.78614 3.7661 21
221 1 -0.328454 3.65468 3.7224 20
222 1 -3.10373 4.00224 5.34422 19
223 1 -1.44819 1.17292 5.84041 20
224 1 -4.33789 2.33646 7.34233 18
225 1 0.223222 3.4985 6.16524 22
226 1 -2.58935 4.81287 8.33749 17
227 1 -0.952157 1.9127 8.78918 17
228 1 0.109065 -1.36557 10.2738 13
229 1 0.755141 4.77486 8.99917 13
230 1 -3.58208 7.25087 0.268937 22
231 1 -0.969684 10.7026 -1.25902 11
232 1 -2.78351 9.86083 1.66812 15
233 1 -1.05966 6.36713 1.9308 21
234 1 -5.46598 4.84595 3.78253 23
235 1 0.164167 9.90281 1.80732 12
236 1 -1.64228 10.0182 4.91451 10
237 1 -1.48255 6.26084 5.37396 21
238 1 -4.2477 6.36648 6.95421 14
239 1 -0.819803 7.68371 7.5407 13
240 2 -9.93158 -0.430541 0.707123 14
241 2 -9.93933 3.39269 1.10386 13
242 2 -5.9295 1.21351 0.508495 25
243 2 -8.69743 1.51635 2.5308 16
244 2 -6.90128 3.99195 2.11146 25
245 2 -9.15846 2.64397 5.02621 16
246 2 -5.86394 1.23927 3.78335 21
247 2 -8.77122 0.596004 6.71132 12
248 2 -7.8575 3.77083 7.73926 12
249 2 -6.10782 1.48227 7.30984 18
250 2 -5.96218 3.76071 5.41328 22
251 2 -6.17243 6.84764 0.025229 22
252 2 -8.98168 6.20824 0.941504 14
253 2 -5.94916 7.40123 3.44534 15
254 2 -7.94337 5.75175 4.28156 13
255 2 -6.17466 6.46511 6.67674 12
256 2 -4.28665 3.91454 0.158966 22
257 2 -0.322585 0.889422 0.560713 21
258 2 -3.07411 1.12371 2.11086 22
259 2 -1.08156 3.79625 1.96559 22
260 2 -3.95452 3.89699 3.5245 21
261 2 -0.30524 1.77149 3.64402 20
262 2 -3.1282 2.00951 5.8006 24
263 2 -1.22099 4.32573 5.44043 22
264 2 -4.25361 4.35987 7.54523 17
265 2 0.041931 1.66379 7.04437 22
266 2 -1.14916 3.88272 9.10118 15
267 2 -2.38982 6.68802 7.54163 13
268 2 0.176761 0.774333 9.92195 15
269 2 -7.74727 9.22775 0.828101 12
270 2 -0.44189 6.01796 0.161809 18
271 2 -2.99487 6.42635 1.89851 21
272 2 -1.32428 10.3153 0.530496 11
273 2 -3.40618 6.30089 5.02658 21
274 2 0.0601523 6.87742 3.53813 21
275 2 -0.686198 8.76775 5.88722 11
276 2 -2.63762 9.28885 3.41544 17
277 2 0.502516 6.40676 7.98442 14
278 1 2.10908 -4.40513 -9.62717 12
279 1 3.87243 -5.99814 -6.99116 14
280 1 2.38082 -6.67208 -4.21472 18
281 1 5.15902 -6.52062 -3.33532 17
282 1 1.56263 -8.63436 -2.74617 14
283 1 7.15792 -8.35155 -1.60258 10
284 1 2.57313 -6.05159 -1.18574 23
285 1 4.469 -9.15473 -1.23402 13
286 1 1.58834 1.50315 -10.2389 13
287 1 2.36684 -1.83185 -7.93639 22
288 1 5.5288 -1.40288 -9.62458 14
289 1 7.17689 1.95214 -9.66665 9
290 1 5.66299 -4.73948 -8.78825 10
291 1 1.60372 -4.13161 -5.78574 20
292 1 5.63884 -1.50945 -6.33974 15
293 1 2.73008 -1.24619 -4.2443 20
294 1 4.64032 -3.95408 -4.38819 19
295 1 1.54713 -3.61068 -2.58961 20
296 1 5.91037 -1.62973 -3.12422 19
297 1 3.11285 -1.28542 -0.971042 19
298 1 4.69477 -3.99971 -1.49984 19
299 1 9.16295 -7.62649 1.2639 11
300 1 7.86017 -3.0348 -7.68916 10
301 1 7.53513 -6.21926 -6.4697 9
302 1 9.80324 -4.10395 -4.8712 10
303 1 7.82617 -3.87127 -2.72331 17
304 1 11.8029 -2.761 -2.5112 10
305 1 8.76234 -1.59414 -0.833248 21
306 1 9.60869 -5.7597 -1.37644 11
307 2 1.93387 -6.03943 -6.11972 16
308 2 4.74016 -5.98698 -1.50809 22
309 2 4.45053 -6.07451 -5.05505 14
310 2 1.4237 -6.7725 -2.45898 21
311 2 2.68705 -9.12898 -1.55525 13
312 2 5.68143 -8.27071 -2.75035 10
313 2 4.17813 -1.33237 -8.28157 16
314 2 3.72403 -4.73115 -8.68712 13
315 2 6.5786 -3.16788 -9.04348 10
316 2 1.46672 -2.17936 -6.32644 19
317 2 5.89628 -5.88129 -7.21439 10
318 2 2.46996 -4.43925 -3.9918 22
319 2 4.51243 -2.09196 -4.73901 21
320 2 1.79859 -1.38395 -2.50218 20
321 2 6.02716 -4.14196 -3.04667 16
322 2 2.7594 -4.04302 -1.16824 20
323 2 5.18583 -1.96841 -1.23177 24
324 2 10.1425 -5.9164 0.719592 9
325 2 8.51139 -4.54639 -6.31469 10
326 2 9.55352 -5.06116 -3.30236 11
327 2 10.4871 -2.31242 -4.03253 11
328 2 7.84626 -1.4987 -2.81279 18
329 2 8.56943 -4.28978 2.47148 14
330 2 8.75531 -3.65525 -0.687182 19
331 1 1.66702 -9.01729 0.0484146 15
332 1 5.09038 -6.54826 0.423219 21
333 1 2.45341 -6.53434 2.23152 19
334 1 2.98409 -9.79689 3.30235 11
335 1 0.219284 -10.1423 3.65083 12
336 1 4.73666 -6.95878 4.03784 17
337 1 1.70128 -7.62242 5.3852 18
338 1 3.65716 -6.10895 7.54656 15
339 1 1.70924 -3.55305 0.315487 20
340 1 5.68061 -1.25468 0.792627 21
341 1 2.45901 -1.07215 2.23491 20
342 1 4.41793 -3.68418 2.13211 22
343 1 1.37582 -4.37065 3.70172 22
344 1 5.62654 -1.07445 4.07673 20
345 1 2.72444 -1.76878 5.70311 23
346 1 4.69061 -4.05655 5.328 20
347 1 1.51064 -4.60123 6.46696 21
348 1 5.82382 -1.22212 7.40633 15
349 1 3.20553 -0.513419 9.19668 15
350 1 5.0989 -3.61103 9.03448 14
351 1 0.387987 -6.77213 8.7495 14
352 1 5.98482 -8.49681 2.05941 13
353 1 7.5437 -4.14599 0.644808 23
354 1 12.1103 -1.18867 0.718389 9
355 1 8.91698 -2.13704 2.51006 16
356 1 10.6152 -4.32215 1.84857 11
357 1 7.30797 -5.22384 3.61318 18
358 1 7.99816 -3.34523 7.0112 11
359 1 6.43337 -5.81673 6.68344 11
360 2 1.79392 -7.02577 0.46632 21
361 2 5.78697 -8.57055 0.112604 12
362 2 3.61664 -8.44578 4.51839 14
363 2 1.43249 -6.37781 3.90772 22
364 2 1.66417 -9.6455 2.05971 16
365 2 4.64769 -5.88122 5.98937 16
366 2 -1.60111 -6.38968 5.49103 21
367 2 1.66058 -1.54397 0.460582 19
368 2 5.69036 -4.74673 0.620867 21
369 2 2.42784 -4.32655 1.9079 20
370 2 4.5112 -1.6038 2.31259 22
371 2 1.39322 -1.00404 3.78081 19
372 2 5.25663 -4.92293 3.67074 21
373 2 2.65888 -3.66588 5.14496 21
374 2 4.71519 -1.54018 5.81235 19
375 2 2.0884 -0.758418 7.38161 24
376 2 6.54815 -4.29403 8.16409 11
377 2 1.83236 -6.88504 7.21275 15
378 2 4.85748 -1.67117 9.02324 14
379 2 1.81806 -1.78228 10.0005 15
380 2 7.44579 -7.38635 2.78267 14
381 2 4.44751 -7.18392 2.08257 20
382 2 7.47965 -2.15362 1.02448 19
383 2 8.3733 -7.31305 -0.520143 14
384 2 10.7767 -2.3261 1.54324 12
385 2 7.56199 -1.35032 3.79802 17
386 2 7.71509 -4.7275 5.44805 12
387 2 7.75373 -1.53716 6.95037 12
388 1 4.97547 4.34346 -9.69166 9
389 1 4.56272 0.686109 -8.17347 21
390 1 7.83618 0.536525 -6.41642 14
391 1 1.74728 1.21553 -6.54345 21
392 1 5.82822 2.77821 -6.28043 20
393 1 2.80587 3.8713 -4.80831 21
394 1 4.4343 1.13604 -4.23048 19
395 1 1.59566 1.0124 -2.95306 20
396 1 5.30144 4.60813 -3.58394 23
397 1 2.28305 4.23336 -1.61421 21
398 1 4.93306 1.50673 -1.42301 22
399 1 2.9536 3.86702 -7.94972 17
400 1 4.65925 6.71053 -7.33622 13
401 1 1.83634 6.98472 -6.05342 16
402 1 3.10394 9.33398 -5.08767 13
403 1 5.0638 7.20506 -4.51497 18
404 1 2.07923 6.63855 -3.07044 21
405 1 2.58136 10.4784 -2.39074 11
406 1 4.76602 6.72237 -0.722064 20
407 1 7.73616 5.65441 -5.61692 10
408 1 9.06466 2.97581 -4.96325 8
409 1 9.17445 -0.977761 -4.08759 15
410 1 7.93009 1.09422 -2.77278 18
411 1 8.35679 4.10875 -1.50194 16
412 1 10.6157 0.718853 -1.04593 14
413 1 7.66125 7.17729 -2.43141 11
414 2 6.29227 3.18331 -10.5647 6
415 2 2.82984 4.52893 -9.73444 12
416 2 6.08607 0.467952 -9.42785 13
417 2 2.58019 0.908968 -8.64823 19
418 2 5.15381 3.32421 -8.03888 16
419 2 1.88661 3.20147 -6.62258 19
420 2 5.84021 0.44922 -6.40035 19
421 2 2.59063 0.685898 -4.82057 21
422 2 4.51896 2.89823 -4.85007 19
423 2 1.71489 3.178 -2.99109 23
424 2 6.02423 0.724346 -3.01746 21
425 2 2.88581 1.01266 -1.48008 20
426 2 4.96869 3.47728 -1.79344 22
427 2 2.88548 5.91871 -7.1505 16
428 2 6.4305 6.4233 -6.57606 11
429 2 3.74802 5.95221 -3.93231 21
430 2 3.98268 8.02946 -6.13011 11
431 2 1.63484 8.22767 -4.2024 16
432 2 6.01301 5.75288 0.432021 19
433 2 2.90909 6.11669 -1.5298 20
434 2 3.9933 9.74366 -3.46653 11
435 2 7.41448 -1.31506 -6.51446 15
436 2 7.49013 3.53635 -5.97632 12
437 2 8.8078 0.894524 -4.83576 13
438 2 6.58784 6.08963 -4.2649 16
439 2 11.5643 -1.32242 -1.33162 10
440 2 8.83442 0.363275 -1.03469 17
441 2 8.4636 3.08134 -3.09885 14
442 2 8.32578 5.95271 -1.23115 12
443 1 1.7804 1.11157 0.118142 21
444 1 6.02409 3.85547 0.171774 18
445 1 3.06298 3.97107 1.79169 19
446 1 4.76044 1.11479 2.03533 18
447 1 1.4855 1.10745 4.01181 22
448 1 5.66758 3.54679 3.9801 18
449 1 3.0211 3.48718 5.47904 22
450 1 5.02186 1.12081 5.64077 22
451 1 1.9944 1.17826 7.30065 22
452 1 5.63925 4.5138 7.04469 14
453 1 3.21461 3.51847 8.7293 16
454 1 5.00557 1.57254 9.03011 13
455 1 1.61655 1.84326 10.3727 15
456 1 1.79734 7.01156 0.547971 18
457 1 5.3637 9.80936 -2.03006 10
458 1 3.53355 9.52734 0.706227 10
459 1 4.88974 6.44665 2.06003 16
460 1 1.73329 5.89632 3.55832 18
461 1 0.806612 8.35529 4.62325 15
462 1 4.24098 7.18577 5.27289 12
463 1 2.38767 6.03054 6.91228 16
464 1 7.8435 1.17535 0.391779 20
465 1 9.36502 3.93553 1.52729 15
466 1 10.9155 1.53218 2.39085 11
467 1 7.69389 1.13847 3.36862 19
468 1 9.1911 3.16096 5.04561 11
469 1 7.84326 -0.434661 5.34444 14
470 1 7.80803 6.41479 0.535829 14
471 1 7.59602 5.7278 3.70498 11
472 2 1.65355 3.54531 0.187195 17
473 2 5.82933 0.68752 0.165295 21
474 2 2.80322 1.24134 1.75928 20
475 2 4.19574 7.83743 0.573206 13
476 2 1.64045 3.95495 4.31232 19
477 2 5.62547 1.12225 3.65628 21
478 2 2.6228 1.24211 5.56772 18
479 2 4.77587 3.37158 5.59189 19
480 2 1.8994 4.09169 7.24046 21
481 2 5.41591 0.60711 7.3717 19
482 2 3.29647 1.64572 9.74878 13
483 2 5.17324 3.28326 8.45712 12
484 2 1.94695 3.63903 10.0727 13
485 2 1.60237 8.98319 0.99891 15
486 2 3.80811 10.3911 -0.988549 9
487 2 2.86758 6.05737 1.95418 19
488 2 6.15434 8.01848 -1.9942 14
489 2 -0.0924414 9.88059 3.61205 10
490 2 5.80753 6.54189 3.84647 15
491 2 2.11733 7.10856 5.2605 16
492 2 4.27126 5.82444 6.50966 13
493 2 8.01323 3.26056 0.217824 19
494 2 11.2685 0.43153 0.871331 11
495 2 8.88447 1.36775 1.95908 18
496 2 10.1451 3.35111 3.17548 11
497 2 4.84297 3.2283 2.02406 20
498 2 8.71019 1.23671 5.11423 13
499 2 7.51406 4.02667 4.61024 15
500 2 8.33354 5.45892 2.01013 14
