ITEM: TIMESTEP
25000
ITEM: NUMBER OF ATOMS
2000
ITEM: BOX BOUNDS pp pp pp
-30.0 30.0
-30.0 30.0
-30.0 30.0
ITEM: ATOMS id type x y z Coordination
1 1 -0.0936066 6.27102 -14.159 19
2 1 -1.62825 -6.7878 -3.37672 19
3 1 5.12726 10.9208 14.2662 16
4 1 9.40776 -11.668 0.645548 13
5 1 -9.6135 10.5736 0.795928 18
6 1 10.0002 -3.54023 -7.35466 19
7 1 -10.8532 3.40515 -6.89797 24
8 1 -0.528097 1.27542 10.1173 15
9 1 -4.09813 3.94072 -12.7666 17
10 1 -14.6189 -2.64228 7.2994 10
11 1 10.4367 -5.3078 -15.1992 5
12 1 -3.13526 -8.77766 2.33848 17
13 1 -8.27077 -7.03094 6.92548 20
14 1 8.8766 1.28099 16.0333 13
15 1 3.5967 12.2164 6.33294 21
16 1 -2.80575 10.2252 -9.3579 21
17 1 0.862096 -3.66173 13.2038 14
18 1 -8.1773 4.38277 -14.1408 15
19 1 -10.8551 1.28546 11.7614 18
20 1 7.59113 9.06813 8.79676 18
21 1 -3.77334 15.0966 -8.02431 17
22 1 1.77524 3.89748 -14.9334 14
23 1 12.3846 8.43231 1.02549 21
24 1 -13.187 11.7563 -7.32191 11
25 1 -1.99785 -1.0345 -8.98059 21
26 1 -9.16411 14.4534 6.6304 15
27 1 7.80967 -11.5964 2.88522 11
28 1 1.5736 -10.9401 -5.8689 13
29 1 4.10612 -8.12903 -5.45523 19
30 1 -1.54532 -12.0743 -7.69399 14
31 1 -11.8721 -3.26171 9.56592 17
32 1 1.36376 -2.4618 -15.8772 15
33 1 6.07356 -6.32052 -14.3288 14
34 1 -4.57666 9.47238 -17.6168 16
35 1 -0.695541 8.15992 12.9232 21
36 1 -3.33666 -6.96153 4.80183 20
37 1 1.60227 -1.16675 10.5073 16
38 1 -13.0664 9.9481 -4.56014 15
39 1 -14.5491 0.00983513 5.14794 15
40 1 -10.3161 2.23111 1.28337 19
41 1 -4.58003 13.3371 -3.96009 21
42 1 -4.86388 -8.76829 -8.51458 17
43 1 4.72201 -5.78622 -9.93667 19
44 1 0.228337 -7.35389 -11.8585 23
45 1 -1.42741 -2.03865 14.9739 7
46 1 -10.9046 7.49414 1.69624 20
47 1 7.06619 14.303 -12.0654 11
48 1 2.21364 15.0894 5.58965 20
49 1 -9.17226 4.25534 -9.32792 21
50 1 -3.24247 15.4145 -2.93953 18
51 1 7.79874 -8.97635 2.2933 18
52 1 5.78837 -3.28387 -2.75494 18
53 1 4.55159 -2.08157 -15.9845 17
54 1 -5.25311 13.083 11.0207 19
55 1 -11.5071 -1.44258 -9.40948 16
56 1 8.20401 0.128079 1.57475 18
57 1 -9.62187 12.3503 -1.76355 19
58 1 -11.4936 -4.98912 5.7546 17
59 1 -0.841044 14.1226 6.89588 18
60 1 -10.675 6.72032 -8.81905 19
61 1 -2.48358 11.4407 12.1015 16
62 1 -7.73643 -12.9667 3.63744 12
63 1 2.55899 8.9914 6.14756 21
64 1 4.62772 -16.3834 -4.26214 11
65 1 0.195772 15.1465 10.7853 15
66 1 -9.71849 5.46865 -12.1761 17
67 1 -2.64019 7.74666 -16.0615 17
68 1 0.482612 11.7079 11.9124 21
69 1 12.2652 -4.94488 -9.06148 15
70 1 11.6789 -5.29329 4.07838 13
71 1 -14.0237 4.30102 4.1276 17
72 1 4.708 19.1887 2.38771 15
73 1 11.3332 0.931115 13.6706 11
74 1 -13.0333 -10.0322 3.3794 13
75 1 -17.543 1.10166 -4.14495 6
76 1 5.58608 3.42809 7.80604 20
77 1 7.72091 -0.369659 -3.99182 20
78 1 -2.63281 13.9717 13.2012 19
79 1 4.53955 2.78381 10.3887 23
80 1 -3.66555 -3.85562 -9.38862 22
81 1 -12.6381 10.9255 8.32798 13
82 1 -12.3333 13.0323 -4.72578 15
83 1 -7.57123 7.75026 -9.10022 21
84 1 8.1753 1.59952 -6.59463 18
85 1 4.87864 13.8266 -6.18871 19
86 1 7.08367 -2.62185 1.04563 18
87 1 5.99219 -4.39261 8.50388 18
88 1 -7.50934 13.5182 -3.614 22
89 1 -10.4323 17.8855 -1.03054 7
90 1 -9.56638 -2.20801 10.1959 18
91 1 -4.3503 10.5347 4.65884 22
92 1 -7.97139 -6.57245 13.6849 12
93 1 12.9899 -5.93427 -2.19848 13
94 1 -10.3389 2.27269 7.3381 19
95 1 -12.2189 -7.0147 -2.83118 20
96 1 7.89869 -6.15665 -7.98153 23
97 1 4.27513 2.72242 -12.5883 18
98 1 -5.48707 -6.94296 -14.8228 7
99 1 1.49032 18.6052 1.8888 19
100 1 -5.46737 9.54875 -14.4462 18
101 1 6.16012 7.88715 19.4708 8
102 1 -1.33719 13.3596 -4.02457 22
103 1 -13.1674 12.9042 2.83131 14
104 1 -1.35498 14.3405 1.43789 18
105 1 -4.89266 -5.60975 13.14 18
106 1 15.2152 5.63366 7.33979 18
107 1 -1.6335 -4.94129 -6.46327 19
108 1 6.81656 -3.27403 -8.71624 22
109 1 2.64314 3.38976 12.8674 21
110 1 4.94908 4.97287 13.3818 22
111 1 -10.2279 -1.80494 -1.19833 22
112 1 -8.45086 -7.48648 -2.57649 18
113 1 12.0139 -5.63879 1.15755 13
114 1 -2.68528 11.0258 1.71671 22
115 1 1.91867 1.09975 -11.6417 19
116 1 1.13565 16.7946 -7.21357 14
117 1 -4.26607 -13.0388 5.05371 12
118 1 -1.08875 -17.3716 2.6787 10
119 1 5.77629 0.852643 -16.3088 17
120 1 4.31706 5.46216 -9.40094 22
121 1 4.01545 -9.30251 -2.50825 20
122 1 -1.52169 -14.0273 6.16681 12
123 1 -8.3049 -6.23461 2.81544 20
124 1 12.4235 10.4333 11.3975 14
125 1 10.0696 -6.83931 -6.929 18
126 1 -15.3281 -1.01399 2.48371 15
127 1 8.87049 10.5998 3.95899 15
128 1 17.6104 7.997 -0.158863 6
129 1 -6.12537 4.97393 15.8974 16
130 1 -2.40542 13.1297 9.64957 20
131 1 -9.41027 13.7331 -11.8577 15
132 1 -0.10824 -3.71771 -8.6397 23
133 1 3.64382 -6.6926 -12.6671 19
134 1 5.524 9.32194 -9.1929 15
135 1 9.19875 -2.69309 12.2768 11
136 1 4.16236 -0.802263 -13.2663 18
137 1 -4.29683 9.85405 -6.54203 21
138 1 7.96877 4.76111 -9.3909 17
139 1 -9.27794 11.8692 -5.88287 18
140 1 -14.4431 14.3229 -2.88186 10
141 1 5.8759 2.43184 -9.29022 19
142 1 8.08181 -7.19141 7.78088 10
143 1 -15.1994 7.3782 -5.49107 14
144 1 -8.9862 11.0252 6.58547 17
145 1 11.5811 1.65935 -6.15837 19
146 1 5.30452 14.8872 0.162957 20
147 1 -2.70285 18.1794 2.48305 13
148 1 7.225 14.2727 -2.96416 18
149 1 -2.97236 10.8336 -4.0623 22
150 1 0.610071 12.2521 -17.9441 13
151 1 4.91427 15.5039 -14.7786 11
152 1 -12.4324 -4.3848 -1.44256 21
153 1 -17.2732 10.481 -0.922273 7
154 1 -6.8916 -0.865487 -17.1349 8
155 1 5.30901 -8.41673 -9.01119 18
156 1 10.4228 13.6453 11.2951 10
157 1 -2.4008 16.1937 15.5938 5
158 1 -13.4233 2.17817 -4.97815 17
159 1 -11.6937 13.173 0.788433 21
160 1 15.5942 4.58477 -3.51212 14
161 1 -8.58902 8.85988 -12.2046 13
162 1 5.92809 5.62845 10.581 22
163 1 7.95596 17.0263 -4.58992 8
164 1 -0.532665 10.4284 9.54208 19
165 1 5.43879 -9.39222 -12.2514 13
166 1 -6.4345 16.3441 7.28082 16
167 1 5.99343 13.9503 -8.89847 16
168 1 1.11075 0.832756 19.4097 10
169 1 -6.38892 -9.47375 8.91116 18
170 1 -0.719203 -10.0265 -12.7717 12
171 1 -5.96124 10.8064 -9.09102 21
172 1 -5.45952 -5.88266 2.29176 21
173 1 -0.493945 -10.6559 0.99225 19
174 1 2.97742 13.407 -13.5819 21
175 1 -11.9002 7.1496 10.0451 20
176 1 11.0805 13.4557 -0.577005 13
177 1 -4.92769 8.70123 16.0379 11
178 1 -5.91207 -8.67084 12.557 12
179 1 -7.86217 7.66381 -4.05752 19
180 1 3.09915 21.6417 2.66123 9
181 1 -0.622541 8.64241 6.94441 19
182 1 8.03148 3.76663 13.1225 24
183 1 -9.61167 18.4876 2.68882 9
184 1 15.8494 -4.17179 -4.53591 12
185 1 -4.97693 16.4451 13.3808 9
186 1 -8.99189 6.43368 -6.65282 20
187 1 14.3799 -3.072 0.17491 10
188 1 -10.8237 -7.63777 6.73245 17
189 1 -13.35 2.79081 6.86302 17
190 1 -15.6082 -7.94435 2.77196 7
191 1 9.25996 4.30233 17.7692 13
192 1 -12.8132 6.28568 -0.887367 16
193 1 -0.691845 -9.18971 4.65155 19
194 1 5.02354 -6.71037 -3.22083 21
195 1 -2.42028 12.8031 4.35933 20
196 1 4.44573 17.3188 7.30627 15
197 1 -8.9247 0.925372 -6.75145 20
198 1 -6.35717 12.573 -11.7775 17
199 1 -14.0171 4.28142 -7.66183 18
200 1 -8.02568 -0.639182 11.9862 18
201 1 0.454138 -11.5851 8.86869 11
202 1 1.99339 -8.57151 6.00082 19
203 1 -10.9317 17.3048 5.84112 7
204 1 15.4272 6.11014 4.49921 13
205 1 7.9764 5.36667 -4.28796 20
206 1 -5.09214 -1.31958 -14.5187 17
207 1 3.4465 0.262119 11.4851 17
208 1 3.84172 -16.5861 3.51994 7
209 1 1.52895 10.5016 -15.406 17
210 1 7.08115 -11.11 -7.35728 16
211 1 12.3767 -4.79856 -12.4179 13
212 1 2.52305 7.36332 -14.6411 20
213 1 -6.83459 -2.5256 -5.88345 18
214 1 -2.81124 17.5682 -5.6567 13
215 1 -10.6667 -11.0333 4.51073 9
216 1 8.43588 16.1494 -0.629294 11
217 1 -3.70593 6.40391 14.238 20
218 1 -6.47252 12.6475 -6.55547 23
219 1 10.2396 3.67003 8.08596 21
220 1 -3.52168 -7.46913 -11.4481 18
221 1 -3.66794 12.2804 -12.3765 18
222 1 2.44739 5.09199 -12.1812 19
223 1 -7.47774 -4.69284 5.54124 20
224 1 -13.7667 8.11085 8.07125 14
225 1 -6.01845 10.8079 7.74828 18
226 1 1.77607 -4.36654 -11.4213 24
227 1 -13.6039 -5.374 -3.91375 15
228 1 4.13456 -12.5224 -1.7625 22
229 1 15.1834 6.33467 12.4171 14
230 1 3.79511 11.1284 -10.9703 19
231 1 -2.75368 12.8284 -0.99785 24
232 1 -16.0874 2.27887 4.19689 11
233 1 -15.0961 12.796 -0.0862761 14
234 1 7.37271 11.6671 6.23566 16
235 1 -2.50945 -12.5259 -0.14737 18
236 1 14.4865 3.65799 4.88788 21
237 1 5.655 14.8013 5.35707 21
238 1 -9.17595 7.19672 9.29174 20
239 1 -15.2703 0.774694 -0.812212 16
240 1 4.64331 7.72322 -16.6782 10
241 1 9.73785 7.76343 17.5345 9
242 1 10.1501 7.48909 -8.20982 15
243 1 -1.55332 -10.5214 -5.32387 18
244 1 -1.51793 7.16189 -19.1722 11
245 1 1.06544 -12.4669 5.61934 17
246 1 16.6168 4.25799 -0.159085 11
247 1 -8.55778 -0.520555 7.24092 22
248 1 5.35283 -17.0154 0.416953 8
249 1 -9.40807 -2.25232 -7.34939 19
250 1 1.20827 17.23 -4.00564 14
251 1 3.02142 -0.0503812 -18.2638 13
252 1 0.299185 6.31727 16.147 17
253 1 12.4784 7.52152 -6.5389 16
254 1 14.9777 1.33628 -6.99285 21
255 1 -8.66221 -0.841699 -10.7351 22
256 1 -11.7442 4.49947 -9.5204 18
257 1 -2.25597 -16.5147 -3.10202 10
258 1 15.4457 1.25905 11.1335 8
259 1 4.57889 0.490254 7.26009 18
260 1 -4.68438 -5.03898 -13.2886 17
261 1 2.26618 -5.5366 7.8533 20
262 1 1.67717 8.43224 -12.1738 21
263 1 1.20264 14.9453 0.674172 17
264 1 -6.50035 -3.10287 2.13294 21
265 1 -0.476993 17.5883 6.41152 19
266 1 -9.74429 -3.54089 13.3057 13
267 1 -10.2284 -6.62412 -8.897 12
268 1 -7.2508 -3.74659 -8.90315 18
269 1 -3.34453 12.6548 -18.0286 13
270 1 -4.77052 -9.98698 -1.01452 20
271 1 0.976986 -15.7299 4.60365 11
272 1 10.2358 -2.19022 -14.5591 19
273 1 13.1857 0.54946 -10.4074 20
274 1 12.2556 4.69944 -0.323651 15
275 1 -10.6858 -5.96065 11.945 13
276 1 -1.7851 -5.90465 2.0997 17
277 1 10.317 7.98077 14.3707 19
278 1 -3.91967 -12.3639 -3.19194 19
279 1 -0.827503 -15.8947 -0.0969309 17
280 1 -5.70944 15.3608 -1.46773 19
281 1 7.89342 1.3844 -11.4465 20
282 1 -3.43422 -1.85975 -12.0822 18
283 1 -12.5388 -5.95224 8.30954 12
284 1 6.20587 2.1967 18.2513 13
285 1 2.1201 -10.5168 3.30484 22
286 1 1.82331 -13.4632 -9.54513 7
287 1 -10.9307 11.4554 -12.1849 16
288 1 8.64851 5.13507 5.27699 20
289 1 -12.0684 6.83797 -6.4065 21
290 1 -0.934076 9.8086 -12.674 19
291 1 7.2085 -13.9092 -4.15481 12
292 1 -12.8223 15.4013 -0.293691 14
293 1 -2.23151 16.3584 11.2404 13
294 1 12.9734 5.78605 9.99162 20
295 1 -7.25078 2.79582 6.61237 20
296 1 -1.089 -6.22714 12.8297 13
297 1 -7.64139 7.55359 1.23262 21
298 1 2.09711 -6.49812 -8.84502 21
299 1 10.579 10.1589 -10.5062 14
300 1 1.65573 -5.94163 2.22758 20
301 1 2.65011 -0.800043 17.6488 8
302 1 -15.3721 4.19911 0.72107 19
303 1 2.27959 -10.7424 -0.601257 22
304 1 -8.34748 12.2772 11.8968 13
305 1 -8.42929 15.2011 10.0729 12
306 1 -13.5698 4.49677 10.2811 12
307 1 -9.88974 -3.23304 7.0043 18
308 1 12.3593 -4.81903 -5.75545 14
309 1 -13.5201 -9.16106 6.40903 11
310 1 7.21874 -1.82864 -11.5991 22
311 1 7.90823 -7.77087 -11.8215 12
312 1 -1.56149 17.968 -3.01755 13
313 1 -12.3081 12.8173 -1.67747 19
314 1 6.60837 5.35623 17.6904 16
315 1 -11.5294 -6.91276 3.09469 17
316 1 9.80335 -7.01826 -0.733923 16
317 1 -6.36061 10.9283 1.29573 20
318 1 -6.51994 12.773 4.8388 21
319 1 -2.0069 -5.42219 8.19221 18
320 1 14.729 1.01911 8.22624 19
321 1 -4.27774 8.40724 6.66767 18
322 1 -7.02311 -4.12669 -3.00826 18
323 1 -4.35692 -3.0024 15.6856 15
324 1 -4.19444 15.8578 3.88214 18
325 1 3.36583 5.87927 19.4148 14
326 1 -11.7855 15.6155 -11.4575 8
327 1 0.191948 5.65967 -16.9901 17
328 1 -0.600966 -1.3842 -11.1521 22
329 1 -4.35001 3.04556 18.0116 10
330 1 -10.663 4.25038 4.34925 21
331 1 -5.32099 -1.41546 -9.02897 19
332 1 -5.48374 12.2648 -0.826634 22
333 1 8.24526 0.994605 7.52667 18
334 1 -13.8644 -6.57724 4.34941 16
335 1 8.72691 -6.68601 4.58778 16
336 1 -8.64939 -8.51345 11.1645 15
337 1 -14.954 11.2415 -2.75615 14
338 1 -4.06657 -1.39235 12.7223 20
339 1 6.49114 -10.9055 -3.70002 17
340 1 -5.37713 4.52583 -9.33628 22
341 1 12.2389 0.539667 -15.5755 15
342 1 -0.188291 19.7952 -5.72945 7
343 1 -10.8425 1.67799 -3.69419 21
344 1 7.79633 -4.79072 -11.9674 22
345 1 6.42537 4.65433 -11.7261 18
346 1 3.4895 -15.3857 -7.2218 13
347 1 -11.4833 -2.94236 -3.97994 18
348 1 -13.2093 -6.97532 0.814059 19
349 1 12.8482 6.45146 14.9876 10
350 1 13.6293 8.81927 -9.2605 8
351 1 -12.9509 2.49402 -11.639 13
352 1 2.50797 17.1051 -1.21852 18
353 1 -14.0803 5.74576 -10.3689 10
354 1 -7.50054 15.8231 3.97439 18
355 1 -7.49424 13.5686 1.20363 19
356 1 -7.08717 4.59522 9.52185 19
357 1 10.4826 5.7722 12.8192 24
358 1 13.6297 1.39867 -3.9281 18
359 1 9.79592 -1.89954 8.33101 13
360 1 15.1496 -0.743642 -8.84845 11
361 1 -10.0674 -5.19236 -2.50767 18
362 1 2.02816 -6.40021 -3.38392 18
363 1 0.632993 13.0717 3.72775 20
364 1 -7.20812 3.57044 -6.89088 20
365 1 6.7489 -7.27773 -0.465978 21
366 1 11.6311 0.058276 7.08762 20
367 1 -8.59909 -0.888227 -3.69019 19
368 1 -3.204 -7.49516 -0.286712 17
369 1 -9.0616 -10.1931 8.30695 13
370 1 -4.43391 13.7051 2.0611 20
371 1 -15.4162 -5.84862 -0.659371 9
372 1 7.86288 9.57105 15.0105 16
373 1 -9.08934 6.76188 -1.30148 21
374 1 -5.12522 15.2632 -11.474 12
375 1 2.43985 18.3732 4.63515 18
376 1 -12.1504 -6.84211 -6.10629 15
377 1 1.72236 -4.77688 -6.1432 20
378 1 -10.0391 -2.45267 4.05027 16
379 1 -11.3016 9.24262 -0.665811 19
380 1 6.7408 -9.27664 6.06156 10
381 1 -2.89687 -13.9148 -5.74749 17
382 1 7.95411 14.1943 10.9307 11
383 1 10.2358 8.84347 -13.2866 12
384 1 -11.4947 8.30252 -11.7218 12
385 1 4.07177 14.6644 -11.3061 15
386 1 -11.3517 7.40795 -3.368 20
387 1 -3.42234 -8.65985 7.47645 20
388 1 13.2446 -0.586481 -1.72897 20
389 1 -0.789561 13.8594 -15.9085 18
390 1 -3.74756 4.15971 9.53669 19
391 1 -13.7502 1.5112 2.24834 21
392 1 -9.02243 5.5357 6.86752 22
393 1 -7.09701 -9.0755 2.51228 18
394 1 10.7697 -9.35161 -1.47004 11
395 1 -8.54373 1.4092 4.47847 22
396 1 -10.489 -0.400679 14.41 13
397 1 -14.3132 7.17327 1.32362 19
398 1 0.548307 -2.8789 7.59606 17
399 1 -1.21676 10.3811 -17.1281 16
400 1 8.54291 -11.9168 -2.05738 14
401 1 -2.40719 -7.25411 -14.293 13
402 1 -4.18771 0.836432 9.75428 22
403 1 -5.29849 4.19344 -16.3279 10
404 1 5.23451 -10.0726 4.09629 16
405 1 0.812396 10.8453 -9.64985 21
406 1 -12.2572 13.8916 6.53261 11
407 1 -8.04852 -4.20168 16.0036 9
408 1 -13.4385 -0.221474 -2.97038 17
409 1 -6.87893 -3.49711 8.00145 20
410 1 6.34556 -4.58271 11.9641 14
411 1 2.64543 2.28079 -9.08577 21
412 1 14.3369 0.529556 5.34322 18
413 1 12.1132 11.8665 -8.40421 8
414 1 -1.80526 2.47536 17.2888 11
415 1 -1.43839 15.0362 -6.12048 20
416 1 10.1312 -2.96671 1.49244 20
417 1 -5.7581 -12.6473 -1.50362 19
418 1 -3.71949 3.14641 14.8694 18
419 1 -5.54388 19.6555 7.67228 8
420 1 -9.30301 -1.85302 -13.0926 12
421 1 11.3628 11.53 5.78524 18
422 1 3.75655 4.74168 16.3427 19
423 1 -10.365 4.01943 9.80265 21
424 1 -4.82414 -6.75602 -2.64969 19
425 1 -14.9033 5.5175 8.39331 10
426 1 -7.06397 -7.33044 -0.451845 20
427 1 -5.46427 16.5557 9.92328 14
428 1 -4.32072 -11.0075 -6.09832 22
429 1 -1.97863 -5.00643 -11.7678 23
430 1 -10.1201 -9.2624 1.78471 18
431 1 -4.78532 -3.71702 4.84211 20
432 1 8.13106 2.47658 3.96836 18
433 1 -1.85583 -1.48115 10.2595 20
434 1 -8.85735 12.2245 -8.97743 21
435 1 7.75933 5.50276 1.29598 21
436 1 -9.45843 -12.5623 -5.77817 9
437 1 -3.98607 18.1443 -0.538607 10
438 1 -0.647659 7.83787 -10.6885 18
439 1 1.65824 8.7256 14.4247 18
440 1 -12.2479 4.73119 2.13184 19
441 1 -6.13696 16.0235 -6.44915 13
442 1 2.83154 19.5138 -0.596449 10
443 1 -6.61511 -2.70627 -11.9417 22
444 1 6.40985 -0.152752 10.0616 20
445 1 4.28234 -11.0176 -5.41661 13
446 1 1.58402 -1.96455 -13.1922 16
447 1 4.49271 -12.0973 1.75199 20
448 1 -7.26685 8.09647 7.28684 19
449 1 1.87956 2.56137 9.83048 21
450 1 9.62951 10.979 -6.88189 17
451 1 0.987324 12.7881 -1.58714 17
452 1 -5.87701 6.54112 -11.5035 15
453 1 1.26175 5.14619 -9.17124 18
454 1 3.8917 -6.63799 4.42792 17
455 1 -16.8455 6.87038 -0.0171622 10
456 1 4.7697 20.0646 5.56128 11
457 1 -1.65639 3.85159 -18.5997 13
458 1 7.60708 7.21034 -1.4983 20
459 1 -1.76939 13.386 -9.65618 16
460 1 8.32735 -4.06102 -1.53159 20
461 1 17.5141 4.29258 -6.3668 13
462 1 -4.50434 1.5474 -15.0189 16
463 1 0.183184 -6.35389 5.56977 21
464 1 2.83101 -9.27107 10.1237 10
465 1 -2.32626 -3.92612 12.5235 17
466 1 -6.99032 3.51638 -11.1729 18
467 1 -11.4685 -9.71047 -1.05455 15
468 1 -8.12341 -8.24535 -7.82518 12
469 1 7.3502 17.4118 5.24361 12
470 1 -1.35405 1.02975 -19.927 8
471 1 5.60739 2.9754 15.3914 19
472 1 -11.5722 1.06138 5.16942 20
473 1 0.292996 -14.7398 -7.05858 14
474 1 -11.6619 0.412909 -0.714965 20
475 1 7.77707 -8.27376 -2.74365 18
476 1 15.6596 3.05492 -8.997 13
477 1 -7.63907 9.62443 -6.49781 22
478 1 4.68327 -4.77085 -6.59248 20
479 1 4.97957 7.76453 -11.831 21
480 1 14.5567 -1.64446 -4.61829 16
481 1 -9.21622 4.98673 14.8 11
482 1 3.51559 15.9051 2.59667 16
483 1 -7.78155 0.802362 -13.6314 16
484 1 11.3311 1.98078 -12.8424 22
485 1 -6.47631 -0.844375 10.0121 21
486 1 -6.28108 18.3731 4.02695 13
487 1 -13.722 1.132 -8.92482 14
488 1 -13.7146 2.79051 -1.42792 22
489 1 2.99549 -5.59407 -15.9188 11
490 1 -5.88184 -7.5893 5.23937 20
491 1 2.35963 8.19841 -8.85949 21
492 1 11.9786 8.59672 8.73106 17
493 1 9.93987 8.4163 -4.81316 21
494 1 -10.9558 -9.83012 -7.29 11
495 1 3.16901 -6.8411 -0.540699 20
496 1 0.343056 -5.35653 -14.6248 18
497 1 -10.0304 12.5846 9.20982 16
498 1 4.71144 -0.213099 -9.43168 21
499 1 11.5811 -0.240177 0.881468 17
500 1 2.86286 15.0794 -8.63198 19
501 1 5.39837 -3.85601 4.99915 18
502 1 8.15967 7.93268 -10.5664 19
503 1 10.4232 11.0426 13.5201 11
504 1 -9.2576 5.77446 11.692 17
505 1 9.58965 8.88682 11.1237 22
506 1 5.92233 -1.66944 13.1597 19
507 1 -1.91325 3.14857 -14.9794 17
508 1 -4.65616 -5.45476 -6.99124 19
509 1 2.88131 5.37118 9.79394 22
510 1 12.0021 10.2347 3.25814 19
511 1 7.69932 7.74375 -6.81084 19
512 1 -9.78112 10.2862 -3.69045 20
513 1 1.82689 13.6596 -5.7028 19
514 1 14.2317 -2.38725 6.13365 8
515 1 14.7439 2.24543 -12.8896 7
516 1 11.038 -8.42672 2.02442 13
517 1 7.01594 13.2774 2.91665 20
518 1 -13.6736 -4.20225 1.71869 19
519 1 -8.36796 15.8023 -10.3446 12
520 1 -0.432239 4.58839 10.5001 23
521 1 -12.8701 10.5624 10.6609 9
522 1 -4.02803 14.66 -15.0342 12
523 1 6.23804 -10.713 -0.38097 24
524 1 12.3388 4.14845 -14.1924 13
525 1 -9.33047 14.8627 -6.72327 17
526 1 -7.13479 -3.74738 -14.6761 13
527 1 7.22191 -14.039 0.0968536 12
528 1 -17.5309 3.20445 -1.52478 11
529 1 3.55158 12.6148 -16.1296 12
530 1 -4.54606 13.4727 16.6571 10
531 1 -11.7507 -8.74916 9.60532 11
532 1 6.17108 10.1405 -1.55148 18
533 1 6.8162 -7.47994 -6.00026 19
534 1 12.2468 0.822625 10.5214 17
535 1 9.81391 2.6338 -4.02914 22
536 1 -9.38132 12.442 3.61497 16
537 1 0.2522 7.25083 18.7686 11
538 1 0.0918833 12.339 -7.36937 18
539 1 11.427 -3.48916 -0.877258 19
540 1 7.01338 15.4054 7.81035 14
541 1 -4.36526 6.22395 -18.5781 10
542 1 -3.55063 -10.1855 10.5947 11
543 1 -0.47754 2.14653 -9.81444 23
544 1 10.0106 -1.08455 -11.1128 20
545 1 -0.97102 10.8846 14.6475 16
546 1 9.76616 4.52278 -6.48371 20
547 1 1.26077 2.94804 -19.4513 11
548 1 -1.70298 -9.98197 -2.13161 20
549 1 -8.03474 -5.35639 -11.8749 16
550 1 12.815 1.49056 3.44656 18
551 1 12.5572 10.4947 -4.81236 13
552 1 9.78881 -3.99615 -10.0857 19
553 1 15.8905 9.30322 11.0211 12
554 1 9.08418 -9.81484 -5.40579 18
555 1 1.25823 8.64932 -18.3066 11
556 1 3.04538 13.6436 11.3214 15
557 1 -9.03653 4.79569 1.42469 22
558 1 2.28984 16.1601 9.08189 14
559 1 7.95075 12.668 -0.390423 17
560 1 17.8251 3.00618 9.17865 10
561 1 10.1843 2.10342 -8.98385 18
562 1 16.6367 6.22378 9.8028 13
563 1 9.81815 7.24028 8.06229 18
564 1 3.99004 -3.38021 10.515 19
565 1 13.956 11.9709 1.67453 13
566 1 0.751517 1.21017 13.0074 16
567 1 16.112 1.74106 -1.80622 12
568 1 6.89953 6.11017 7.56528 19
569 1 -7.23975 1.40885 -8.93273 21
570 1 10.7328 7.00817 -1.35169 20
571 1 8.48831 -3.56143 3.7064 23
572 1 -7.12766 9.08094 11.0292 19
573 1 3.24563 8.55417 17.6123 15
574 1 13.5829 11.0653 8.32479 14
575 1 0.932502 11.9247 6.38147 22
576 1 -0.262464 18.5225 9.84324 11
577 1 10.8022 2.5184 5.19281 20
578 1 0.127526 -18.1002 -0.794399 8
579 1 -3.42873 12.4761 -6.59959 22
580 1 8.13062 14.6085 -6.6909 14
581 1 14.8375 -3.24177 -7.32317 12
582 1 -6.31373 14.0316 -9.10188 17
583 1 -6.0274 -13.8948 -6.88348 10
584 1 10.2344 -6.90312 -10.7195 15
585 1 -11.9597 4.11287 12.7915 13
586 1 -3.79293 7.56602 -9.30853 23
587 1 -2.86272 -11.3817 7.75526 13
588 1 -8.41095 11.5643 -14.2904 12
589 1 -9.15613 4.73321 -4.31386 19
590 1 12.2876 -2.44329 3.9391 14
591 1 11.9101 13.1421 2.95166 13
592 1 -0.506778 -4.19736 9.93957 15
593 1 -12.5516 4.443 -4.2488 19
594 1 7.34461 2.23311 -17.7524 11
595 1 0.788094 3.44256 18.7352 13
596 1 6.72623 12.8617 -14.6965 12
597 1 15.1034 3.84356 10.0542 17
598 1 4.29329 7.43396 -6.7562 22
599 1 5.56008 10.4573 4.0294 21
600 1 0.194663 -12.378 -2.31238 18
601 1 -7.02123 -0.957197 15.3797 18
602 1 14.7439 5.37787 1.9118 18
603 1 -3.94264 11.1879 14.755 15
604 1 8.5244 12.6031 -9.44017 11
605 1 -12.0088 13.6323 -9.08148 17
606 1 3.15888 10.9116 9.49422 21
607 1 -13.112 -9.27126 -4.42422 10
608 1 9.8407 -0.551484 4.56625 20
609 1 14.5827 11.5565 4.97408 12
610 1 -4.51122 8.66013 12.539 16
611 1 -10.9993 -3.64203 1.22334 19
612 1 -9.31305 2.215 -11.9141 21
613 1 2.86967 -1.31705 14.3517 14
614 1 -3.19889 -6.69142 10.5665 23
615 1 10.3652 2.71938 11.3368 21
616 1 -8.89286 15.4879 -0.949263 17
617 1 9.05258 8.6324 0.897698 16
618 1 7.74828 7.38369 4.36642 21
619 1 7.23048 -1.63299 -14.2559 19
620 1 -8.14032 1.42166 9.59452 19
621 1 7.32819 -4.02945 -15.2918 14
622 1 10.8811 -7.34095 -4.00568 12
623 1 4.46059 7.88821 12.1286 21
624 1 0.426558 11.1227 0.756562 18
625 1 -7.24606 2.36446 16.4612 16
626 1 10.5066 7.88348 5.19614 15
627 1 1.70473 2.8377 15.8854 17
628 1 -0.14274 6.92763 9.84136 18
629 1 -3.76814 0.935698 -18.008 10
630 1 -5.44035 4.37717 12.4286 18
631 1 4.15496 8.08287 9.02275 19
632 1 -4.03203 -15.3609 -0.339159 11
633 1 12.797 11.4013 -0.693157 14
634 1 2.24739 -17.2925 -5.34595 10
635 1 5.26029 12.47 -1.56983 16
636 1 10.0084 11.097 8.75747 17
637 1 9.89987 2.87217 -16.0295 17
638 1 -1.45255 17.6304 -8.71738 11
639 1 3.56632 14.7964 -3.17856 17
640 1 -7.32868 -10.3453 -2.55332 19
641 1 4.25655 2.5106 -18.418 10
642 1 -10.3591 15.3283 -3.36217 16
643 1 5.56742 -14.6957 -1.84748 13
644 1 9.88037 4.53202 -11.6808 16
645 1 3.85559 13.388 3.24409 20
646 1 -9.01265 7.40764 3.97335 22
647 1 5.74465 8.29494 -4.1192 21
648 1 7.95806 5.77689 15.3638 23
649 1 10.5263 3.54269 14.915 15
650 1 0.488235 -8.67647 11.0774 11
651 1 -5.69182 11.8704 -16.2537 14
652 1 2.02877 19.1786 7.69277 13
653 1 4.64254 -2.89168 -10.5548 16
654 1 1.95406 6.22747 12.6097 21
655 1 4.54114 17.7477 -3.5213 11
656 1 4.95243 9.36216 6.68267 19
657 1 16.7086 -1.07846 -5.81536 14
658 1 10.0239 6.33933 2.74149 16
659 1 -14.0391 1.54878 12.4333 7
660 1 3.79472 -18.4579 -2.49633 6
661 1 1.3213 -0.826937 -8.71378 22
662 1 -7.89686 16.6239 -3.90543 11
663 1 6.48118 16.0714 2.63491 18
664 1 -16.5428 5.8688 3.88541 11
665 1 -4.7742 0.419594 16.7692 13
666 1 2.13151 15.2847 -16.5629 12
667 1 -6.72975 6.70425 -15.961 12
668 1 3.39303 -13.3005 3.96165 14
669 1 5.48881 10.2342 -6.72282 20
670 1 -6.29272 13.3916 14.021 9
671 1 3.33668 5.78087 -18.3719 12
672 1 3.32738 -11.1382 7.0436 12
673 1 -0.600689 17.6211 0.238603 14
674 1 -6.45558 -2.89332 12.9992 21
675 1 -5.45271 0.607187 -11.7617 21
676 1 -5.67878 -5.8945 -10.4154 19
677 1 -4.07194 -9.37471 -4.00067 20
678 1 -0.879315 16.0611 -14.4123 10
679 1 6.11063 -1.31941 -6.05418 21
680 1 -4.00528 10.3188 9.8451 17
681 1 7.69395 -4.70065 -5.32191 20
682 1 1.84907 -14.4588 -1.72149 17
683 1 3.75366 -2.46711 6.64557 19
684 1 13.8089 4.16944 -5.89422 20
685 1 0.776499 -9.09584 -3.79506 17
686 1 -13.388 -2.78335 4.45615 17
687 1 -0.201692 -14.7409 -4.22369 14
688 1 -6.68593 -8.66359 -5.29227 19
689 1 -8.74842 2.86575 13.3553 15
690 1 -1.44209 -14.5999 2.40326 15
691 1 15.606 6.29567 -7.82535 12
692 1 -3.67017 18.7556 5.33442 17
693 1 -5.34594 5.18273 6.64867 22
694 1 -13.4034 11.1055 5.21832 16
695 1 11.3765 1.76645 -1.96378 17
696 1 -10.7981 1.2336 -9.24967 20
697 1 -0.93012 9.51371 -6.782 19
698 1 9.48667 0.283133 -13.3192 20
699 1 5.3719 16.0485 10.7995 10
700 1 10.0265 11.9524 -3.88388 12
701 1 -16.5485 7.29592 -8.91931 6
702 1 -8.61305 -4.80282 -0.180354 20
703 1 4.24137 0.0640875 20.3715 7
704 1 7.82073 6.553 -13.0516 17
705 1 7.8247 12.737 13.9726 11
706 1 -2.71443 2.17583 12.5178 19
707 1 -7.24262 -11.1392 -7.5027 12
708 1 -5.34692 -12.4048 2.01343 14
709 1 -4.50372 -1.97887 7.76514 19
710 1 5.80213 12.3226 8.27517 16
711 1 4.63115 -3.55315 -13.1921 22
712 1 -7.76503 9.53523 -1.18158 19
713 1 4.45341 10.9497 1.18007 17
714 1 -6.73763 -1.66661 4.7126 22
715 1 6.8795 9.8318 -12.4742 18
716 1 -2.81937 -10.0585 -9.10784 15
717 1 2.83422 -13.7728 -4.3132 19
718 1 4.18627 -8.70332 1.20452 20
719 1 7.77302 3.38692 -14.2129 21
720 1 -0.677103 19.8935 3.68206 12
721 1 -10.3213 -3.87203 -9.77392 13
722 1 3.52261 2.98378 19.5775 12
723 1 4.93016 5.14116 -14.1485 17
724 1 -10.1442 7.38555 -14.9382 11
725 1 -12.0089 -0.345961 -6.49283 18
726 1 0.135152 12.4139 -13.1851 20
727 1 0.20185 -1.96836 -18.5298 7
728 1 -12.08 -3.92466 -7.35044 12
729 1 10.4729 5.72929 -14.6644 13
730 1 15.527 -4.80962 -1.38424 9
731 1 -5.49008 7.00658 9.49978 21
732 1 6.12732 -5.60027 2.41299 20
733 1 11.3075 -0.659502 -4.7239 19
734 1 12.8535 3.77344 12.6858 18
735 1 -2.28633 11.2013 7.35309 20
736 1 -6.72425 6.69817 13.6842 15
737 1 -15.8112 9.58292 3.33312 12
738 1 -6.46249 -12.1987 6.84444 14
739 1 11.5653 5.60955 -3.7816 22
740 1 5.9035 10.5775 10.9872 13
741 1 -15.3301 7.9078 -2.27243 14
742 1 10.1534 -3.16316 -4.15897 14
743 1 -13.9165 8.8105 -7.37205 13
744 1 -0.314208 15.2375 -1.69168 18
745 1 3.79331 -6.51026 10.7145 11
746 1 3.76155 -4.51989 13.5851 10
747 1 -4.66407 14.0486 6.40993 19
748 1 -0.346038 -8.41357 8.27014 19
749 1 -8.62566 0.69352 -1.10175 19
750 1 5.51329 1.45152 12.717 21
751 1 -16.4043 3.83718 -4.40776 15
752 1 1.37433 13.909 14.6131 9
753 1 4.11872 10.6643 -4.31139 20
754 1 -13.8038 -1.6458 -0.328427 18
755 1 -4.48676 -15.3108 -3.66906 12
756 1 8.19182 0.275681 12.9396 19
757 1 12.9631 3.18539 7.99157 21
758 1 6.996 7.45465 12.6507 21
759 1 0.439771 -8.30163 -15.7234 10
760 1 -3.8335 1.58688 -9.4351 20
761 1 -5.91976 0.944974 12.9678 19
762 1 -0.685329 16.2269 4.03323 20
763 1 17.9671 3.39246 5.57941 11
764 1 2.29352 9.62864 -6.5781 21
765 1 -1.74453 8.45427 15.9213 17
766 1 4.80074 7.84228 15.1134 20
767 1 7.71719 8.37739e-04 -8.84455 19
768 1 -10.5269 -6.37219 0.191553 21
769 1 16.3827 2.14028 3.06312 14
770 1 0.361781 -7.67246 -6.31564 21
771 1 -2.55585 6.02495 17.3584 12
772 1 4.84894 -11.6124 -9.62107 11
773 1 -2.71974 11.3061 -14.8329 21
774 1 -1.69321 -6.6957 -9.26272 23
775 1 14.7177 7.18077 -4.89228 14
776 1 17.7947 1.02217 6.30769 10
777 1 9.47165 -0.223413 10.4968 19
778 1 -8.39007 -11.2345 0.185378 14
779 1 5.75367 17.8702 -0.393594 12
780 1 -12.4229 5.276 6.91314 22
781 1 9.68929 11.9454 -12.9514 10
782 1 15.2369 9.02659 2.55306 14
783 1 6.66359 4.84515 -16.7297 12
784 1 -11.2717 16.0464 2.58318 11
785 1 13.7097 8.84556 6.00957 17
786 1 5.50881 16.3932 -6.27416 14
787 1 -1.75781 1.42151 -12.6749 18
788 1 9.6694 -0.755543 -1.4118 22
789 1 -10.6975 3.68046 -1.22753 21
790 1 15.4557 10.3615 -1.53108 9
791 1 -9.58402 -12.375 -2.25747 11
792 1 -13.6893 12.9674 -11.4379 9
793 1 4.14186 6.14811 7.12968 23
794 1 -16.4327 2.73521 -7.39818 8
795 1 -11.1315 8.6604 7.01455 21
796 1 -2.21396 4.97232 -9.28464 21
797 1 18.5457 1.73771 -6.86686 8
798 1 -8.49187 -5.78668 -5.45751 15
799 1 16.1938 -1.42965 -2.20057 15
800 1 -12.7565 7.54937 4.16195 24
801 1 -12.1605 -0.796736 2.47375 23
802 1 15.8669 8.84035 8.05577 12
803 1 -5.13226 -10.2504 4.51673 18
804 1 7.66198 2.87666 10.2264 19
805 1 13.1283 -1.53373 9.12863 9
806 1 6.68908 -0.617879 4.14795 19
807 1 -10.7719 10.171 3.25576 18
808 1 1.24419 13.0342 9.11141 16
809 1 4.40911 10.3451 -14.1939 18
810 1 2.37484 -9.98911 -13.9233 10
811 1 -6.93335 13.2713 8.55165 19
812 1 -9.37374 -5.5907 8.75186 21
813 1 6.99959 11.7676 -4.50657 18
814 1 1.74155 9.2303 11.4732 19
815 1 12.9784 -2.61574 -10.3021 15
816 1 7.08807 -2.1837 6.93206 21
817 1 1.54 15.7658 -13.3517 16
818 1 1.25468 13.6484 -10.5659 20
819 1 -12.5736 -2.65152 12.5978 10
820 1 12.0833 5.09519 5.48541 16
821 1 -1.10142 -2.28503 -14.0565 13
822 1 9.6213 14.8758 4.90448 15
823 1 -13.0803 10.3358 1.37099 18
824 1 -2.49318 -8.68233 13.0585 10
825 1 0.378338 16.9604 -10.9112 11
826 1 8.12592 -3.89679 9.67155 15
827 1 0.894911 -8.52044 2.24956 18
828 1 -6.38311 16.8587 1.07408 15
829 1 -15.3379 4.99565 -2.41633 16
830 1 12.4249 8.74591 -2.89594 21
831 1 0.491374 -9.5616 -9.8346 14
832 1 -7.3269 9.70461 4.42835 19
833 1 13.0537 3.64338 -8.52697 15
834 1 -5.52283 0.260512 6.51838 21
835 1 9.32975 -0.304862 -16.8151 14
836 1 -10.194 -9.29451 -4.29617 19
837 1 -2.58615 -8.08474 -6.23833 17
838 1 2.48503 11.8437 16.2533 12
839 1 9.40967 -12.7242 -5.62151 10
840 1 -7.84376 9.52406 -16.548 12
841 1 14.4351 6.89667 -1.23036 17
842 1 5.87138 8.12038 1.34076 22
843 1 1.86974 -16.7401 0.788767 16
844 1 2.97676 0.568202 -15.1121 17
845 1 10.6302 3.49969 1.98279 18
846 1 -2.98092 6.93332 -12.6392 17
847 1 -4.55318 -3.88591 10.3586 19
848 1 3.43061 11.954 -7.78083 21
849 1 5.9433 4.23042 -6.78992 20
850 1 -12.8055 10.2804 -9.71716 13
851 1 -15.1475 7.79433 5.5517 13
852 1 5.44347 -0.21136 16.1741 11
853 1 -7.93079 -10.0186 5.78665 18
854 1 2.24884 10.5965 3.84727 21
855 1 -1.80908 -11.7843 3.57761 16
856 1 0.673642 10.6975 -4.37343 21
857 1 -3.0945 6.34053 11.1544 18
858 1 -9.83347 8.57621 12.1974 11
859 1 -2.99488 16.5741 7.93434 18
860 1 9.45455 4.26074 -0.848991 21
861 1 -6.71206 -6.4949 10.6684 18
862 1 4.41396 -8.48056 7.28889 14
863 1 12.6487 7.95081 12.263 18
864 1 11.1326 -0.751775 -8.05679 16
865 1 7.06947 -14.074 -7.68249 10
866 1 -10.8094 3.56429 -14.0791 12
867 1 -1.56726 -0.644749 -16.517 10
868 1 4.51557 13.995 13.6613 10
869 1 -12.6925 -0.186212 9.76536 13
870 1 -5.41243 6.49779 -7.30126 21
871 1 -10.5868 9.58311 -7.84821 18
872 1 9.37642 15.4753 2.17153 11
873 1 -6.48679 -12.4799 -4.15941 20
874 1 -1.02098 9.97732 3.79696 21
875 1 10.0206 10.283 -1.60813 19
876 1 -6.9756 -8.50741 -10.8555 9