ITEM: TIMESTEP
21000
ITEM: NUMBER OF ATOMS
2000
ITEM: BOX BOUNDS pp pp pp
-30.0 30.0
-30.0 30.0
-30.0 30.0
ITEM: ATOMS id type x y z Coordination
1 1 -9.9424 0.951158 -18.146 16
2 1 -7.80295 -17.8372 -10.6515 17
3 1 1.26767 7.09602 5.19953 19
4 1 5.09562 -15.2862 2.61446 18
5 1 -13.8189 1.18832 -6.49809 20
6 1 10.8681 -14.2463 -14.1076 12
7 1 -14.3136 -4.03482 -13.0805 22
8 1 -2.94562 -11.9585 5.56952 22
9 1 -7.64203 -0.839351 -17.4252 21
10 1 -13.406 -16.0101 0.0307179 24
11 1 12.5908 -2.21793 -12.5011 16
12 1 -7.66921 -20.4098 -2.53394 17
13 1 -16.3665 -15.5873 -1.75984 14
14 1 0.292264 -0.805229 14.2136 11
15 1 -3.82583 10.0176 -14.104 12
16 1 2.69467 -5.92039 9.29727 21
17 1 -10.153 -7.67037 -15.9261 22
18 1 -12.6558 -8.71965 3.99666 22
19 1 10.5626 -3.74903 6.42306 18
20 1 0.184723 7.867 -14.6322 18
21 1 6.20337 -1.62155 -18.9787 12
22 1 11.4913 -1.56515 4.39844 15
23 1 -16.8912 -3.31268 -14.7663 12
24 1 -13.4256 2.35553 0.197319 17
25 1 7.07103 -15.7945 5.47582 8
26 1 -2.65224 -17.8229 -17.1875 13
27 1 5.91585 -18.6651 -2.67049 16
28 1 -13.3428 -18.1556 -10.9873 12
29 1 -15.6097 -9.85806 5.24454 13
30 1 -2.14395 -15.0592 -15.7902 21
31 1 2.72033 -17.8977 -18.7451 10
32 1 -4.89472 1.14924 -21.0732 12
33 1 -4.86643 -7.06444 11.0457 18
34 1 -5.25871 -15.5395 2.48412 22
35 1 2.93207 -8.96138 7.75134 21
36 1 -12.8332 -6.24097 -4.27413 21
37 1 -12.8255 -5.54406 5.63182 22
38 1 -4.78109 7.10829 -4.68508 19
39 1 -4.54263 -19.3961 -15.1727 13
40 1 3.37825 -9.21707 -15.8132 22
41 1 -2.26699 -8.8653 7.41383 22
42 1 -13.146 -0.832507 -4.80038 21
43 1 6.03074 7.49223 -16.2918 12
44 1 1.27998 7.1674 1.93145 25
45 1 -10.93 1.1485 -10.8901 20
46 1 -2.47506 8.19255 -6.39051 20
47 1 0.0932218 -18.7656 -2.52359 23
48 1 8.39814 -16.3284 -12.4964 15
49 1 4.618 -13.1685 -20.3992 12
50 1 -9.95373 2.15213 5.3923 16
51 1 -16.2815 -11.7614 -15.3129 9
52 1 -8.23404 2.53954 -9.38814 21
53 1 -10.7525 -13.0596 0.592316 24
54 1 -6.9209 8.47231 2.81755 18
55 1 -15.6948 -0.692058 -13.2227 15
56 1 -10.5952 4.81418 3.63888 15
57 1 -7.7831 -17.2718 2.42484 21
58 1 7.79684 -20.6642 -8.28429 10
59 1 3.25775 9.17789 5.7231 13
60 1 -17.1834 -5.60358 -12.1271 14
61 1 -13.1891 1.46471 -13.5242 18
62 1 3.45292 2.18628 7.2349 23
63 1 10.1615 -10.5337 -15.6995 15
64 1 2.41785 -17.6853 2.30487 19
65 1 -19.3494 -8.72464 -4.93889 11
66 1 2.84497 10.7683 -1.03748 20
67 1 6.1919 -7.54633 10.9105 16
68 1 -8.03936 -14.7739 0.532704 24
69 1 10.8237 -4.52596 2.8305 18
70 1 -1.39408 5.23866 5.5458 18
71 1 -7.51654 -11.9875 -11.0072 22
72 1 -11.0169 2.06783 2.26334 18
73 1 -7.70054 7.93483 -6.52947 19
74 1 -1.93818 4.63595 -14.4277 21
75 1 5.8094 12.1711 -8.50113 12
76 1 6.27924 -12.6244 3.8569 16
77 1 -5.4757 10.9951 -8.85546 13
78 1 -13.2478 5.16206 -4.52346 16
79 1 -13.1519 -8.90932 10.6085 10
80 1 -4.26067 4.05435 0.341503 21
81 1 -7.66777 -8.60499 7.08152 21
82 1 11.9995 -13.7397 -11.3667 9
83 1 -10.1429 -1.07964 0.718542 22
84 1 -10.679 -18.6877 -2.60316 21
85 1 9.33655 -12.6828 -11.0476 21
86 1 3.91236 -6.35688 -21.3088 14
87 1 -8.4179 -3.73292 -19.1008 17
88 1 -2.37377 7.81834 -2.6088 17
89 1 -8.40723 2.27557 -12.6818 19
90 1 2.40783 2.25197 10.9013 17
91 1 -2.2552 7.93352 -9.56422 19
92 1 -15.7633 4.70259 -6.38765 13
93 1 -7.79972 -11.8111 5.93795 22
94 1 9.90924 -8.6756 7.22694 12
95 1 3.37256 -11.8135 -14.2373 19
96 1 4.77829 -8.10534 13.2287 10
97 1 -10.4798 -13.0667 -5.78645 21
98 1 -11.0472 -16.084 -7.28112 20
99 1 5.4496 -16.0194 -0.93361 16
100 1 5.65962 -4.73881 -18.1717 18
101 1 -0.048222 14.4719 -5.37221 11
102 1 -10.4934 -15.8289 2.42413 24
103 1 -12.9336 -17.7821 3.05287 15
104 1 4.84301 -16.5088 -20.308 9
105 1 9.48775 -12.8145 -7.66956 17
106 1 -5.3083 -18.5903 0.66311 16
107 1 -10.6125 -15.8145 -4.22579 23
108 1 12.4828 -0.196043 2.18516 14
109 1 10.8427 -5.05646 -14.3329 16
110 1 -12.6161 -9.16386 0.756754 21
111 1 8.12334 2.10756 0.649111 22
112 1 11.9671 6.02666 2.31203 10
113 1 -7.48001 -2.98101 7.35963 24
114 1 -9.25469 5.1472 6.99156 13
115 1 -5.40762 6.95731 -11.0653 18
116 1 -2.38762 -9.09533 -16.2636 19
117 1 6.2665 -14.8301 -17.8431 17
118 1 -2.60039 7.52979 -15.9212 15
119 1 5.15749 -7.07593 7.82895 20
120 1 -4.35803 -4.52977 -21.2454 10
121 1 -4.89913 4.55867 -12.7886 19
122 1 9.4178 -7.59768 -11.1544 23
123 1 -13.2014 4.23417 -7.52833 21
124 1 -5.43599 10.002 -6.00408 19
125 1 6.57258 -2.10529 -12.6827 25
126 1 5.46908 -12.9049 -2.47743 21
127 1 -6.73767 6.32118 7.61618 17
128 1 13.0784 2.16412 -9.09775 14
129 1 5.93461 6.69127 -10.8749 19
130 1 -7.72734 8.08921 -0.0971144 17
131 1 8.94921 4.87233 -4.30956 19
132 1 -4.63968 4.30267 -9.37666 20
133 1 -0.70758 10.707 -12.7861 12
134 1 3.68376 2.39496 -18.9684 12
135 1 -13.1459 -12.136 -0.6853 21
136 1 -13.0111 3.81464 -11.5831 16
137 1 -8.14932 -9.80757 -16.2235 19
138 1 -2.42227 -15.2023 -19.2739 14
139 1 3.85738 10.7027 2.28931 15
140 1 -1.32264 8.35714 3.40821 20
141 1 -14.4706 -9.55319 -9.30825 23
142 1 -15.5478 5.03688 -2.68723 11
143 1 12.3043 -6.3534 -5.5599 14
144 1 -13.9901 -3.55447 -16.6073 16
145 1 0.43427 -3.95802 12.5507 20
146 1 2.31318 14.184 -0.846192 13
147 1 -4.66391 4.2232 3.60614 22
148 1 1.91778 -12.1761 -21.8737 12
149 1 -3.64643 9.90201 2.61935 16
150 1 -2.49788 7.39301 -12.7082 19
151 1 0.545811 -9.83916 9.34647 17
152 1 -10.6199 -10.0914 -1.11739 21
153 1 -5.00437 -15.9044 -17.3379 19
154 1 -9.88722 6.54843 -14.7971 9
155 1 -5.42768 -15.7541 -1.00314 25
156 1 -0.224508 -21.4006 -7.3793 16
157 1 -7.8146 2.55726 -19.3603 16
158 1 -16.1143 -3.84844 2.12574 15
159 1 6.36717 6.82384 -4.26198 21
160 1 -9.99209 -0.905719 7.10751 20
161 1 -2.59387 -14.8158 7.3393 15
162 1 -1.83787 8.29463 0.052021 17
163 1 -2.04923 2.19393 3.83874 21
164 1 8.50699 2.07169 7.03593 19
165 1 -10.6652 8.01811 -1.32919 13
166 1 8.27017 -10.2304 -12.4547 23
167 1 -6.72369 9.24639 6.16403 11
168 1 6.61065 -12.8809 -5.71043 18
169 1 -18.9202 -5.81552 -6.1156 14
170 1 -7.93694 -17.7034 -4.34513 24
171 1 5.73225 1.57951 9.43058 22
172 1 -17.1525 -9.31138 -6.80727 15
173 1 -5.21748 -18.3416 -5.73165 21
174 1 -1.92736 5.12362 -0.901865 22
175 1 0.382153 9.49667 7.40227 9
176 1 -6.89756 10.4271 -13.0208 11
177 1 -16.8244 -13.737 -8.53097 13
178 1 -7.62637 -5.90972 8.96799 24
179 1 0.00602766 -15.8503 -0.91807 25
180 1 5.12003 -17.3474 7.02701 8
181 1 -12.3711 5.7866 -1.65988 12
182 1 12.0392 -6.00491 5.15527 12
183 1 -6.85835 -12.3582 -17.5941 15
184 1 3.35337 -3.1704 7.58184 23
185 1 5.37689 -18.7677 4.38996 12
186 1 -4.80904 -1.44212 -16.1982 21
187 1 0.493953 -15.8224 -17.8189 16
188 1 9.99893 -6.58134 -20.9024 6
189 1 3.48743 -0.527343 -18.0627 22
190 1 -13.1799 -7.35372 -13.8721 17
191 1 -9.02531 10.9928 -10.1796 10
192 1 -10.6867 -16.126 5.27656 14
193 1 3.62201 13.4714 -5.92869 16
194 1 -9.72452 -0.876234 10.7058 13
195 1 -9.04901 7.68226 -9.64367 22
196 1 6.25391 -4.47683 6.20359 22
197 1 -5.10699 -13.1362 -15.603 22
198 1 -4.97712 4.55873 -16.41 18
199 1 0.169498 1.1763 -14.4306 22
200 1 -13.1574 -14.6237 2.34748 19
201 1 -7.71304 2.90376 3.3443 20
202 1 -7.4728 6.03671 4.60544 19
203 1 -1.86417 -14.5034 -12.5067 22
204 1 -10.1542 -21.0451 -4.31665 11
205 1 5.97501 -18.2793 -6.07703 19
206 1 9.80266 4.37228 7.68854 15
207 1 3.43463 1.98831 -12.6598 23
208 1 -15.3632 4.42225 -9.57346 12
209 1 -2.04943 -0.585548 5.67818 22
210 1 6.88297 -21.2394 -1.39771 14
211 1 10.9852 -4.95199 -11.1631 23
212 1 -12.9083 -0.782583 -1.442 22
213 1 -12.8251 -13.0776 -7.37455 18
214 1 5.78919 -1.80155 -16.0075 21
215 1 0.476818 -6.9886 7.63711 23
216 1 5.86203 9.57395 -6.12771 20
217 1 -4.66394 -6.94578 -16.0062 21
218 1 0.76248 -21.9206 -1.34932 13
219 1 5.54955 -4.67017 -14.4409 21
220 1 -13.1479 -6.11495 -1.08392 22
221 1 0.549475 -21.5934 -11.008 14
222 1 -11.3438 -10.0151 -10.7042 19
223 1 3.27743 10.5997 -7.8598 20
224 1 -1.65632 -6.15129 -17.9706 24
225 1 5.27452 -3.76314 13.4424 13
226 1 14.121 -0.99128 -4.0522 14
227 1 6.06826 -10.9505 -18.4907 17
228 1 -7.66212 -6.74948 -14.1433 19
229 1 -10.1863 -1.76429 -16.1314 19
230 1 -9.82018 -19.0434 3.81426 14
231 1 6.73678 -9.65345 8.36099 12
232 1 -11.1632 -11.1872 -14.937 16
233 1 0.58825 4.01363 -15.9966 19
234 1 0.753867 7.14447 -4.42363 21
235 1 -10.6241 -6.58484 11.0884 16
236 1 -12.4959 -13.5543 -12.3768 20
237 1 -7.74568 -12.1313 -14.3701 20
238 1 -4.81998 4.09252 -19.5177 12
239 1 -7.35333 -14.5306 -9.36075 21
240 1 5.99987 -12.5382 -15.5331 22
241 1 8.33198 -3.8785 -15.9069 15
242 1 9.19541 -1.85953 -4.30457 22
243 1 -9.8386 -9.89818 5.92557 21
244 1 -5.32998 -15.8094 -4.34928 23
245 1 8.48947 -3.4939 8.33989 22
246 1 -10.916 -18.2742 0.431074 26
247 1 -2.57768 -17.7646 -4.07135 22
248 1 -4.54152 12.3967 -4.7792 8
249 1 0.674118 -7.04828 -19.5252 22
250 1 -7.23921 -6.65844 -17.5699 19
251 1 -13.5779 -12.5964 5.25387 12
252 1 -1.87795 2.42791 7.31298 23
253 1 0.3459 -18.495 -5.8868 23
254 1 -7.55703 -18.1585 -14.1312 16
255 1 -12.7201 -1.33098 -14.3741 21
256 1 9.11566 -0.964023 -0.757673 23
257 1 -7.39031 -1.18514 -14.2434 24
258 1 3.04868 2.39874 -15.9625 22
259 1 3.49657 -20.4621 -11.9235 13
260 1 -10.893 9.22641 -7.59465 12
261 1 0.396001 4.16125 0.673682 22
262 1 8.40718 -3.56742 0.841923 23
263 1 -10.7427 -4.04298 2.19168 20
264 1 -4.69158 -9.75038 8.98466 19
265 1 -10.3614 4.12541 -3.08714 20
266 1 0.850731 -9.75298 -17.8102 20
267 1 9.10771 5.33024 -7.84927 20
268 1 3.20826 -17.6322 -4.17299 23
269 1 -2.20474 -8.83169 10.8749 16
270 1 -15.7581 -7.81406 -1.4923 15
271 1 3.16458 -20.4351 -5.96023 19
272 1 -7.60585 0.0769622 8.80966 16
273 1 -12.7524 -2.85286 7.65874 16
274 1 -12.7719 -5.90282 2.28543 19
275 1 -15.6436 -13.2731 0.751189 15
276 1 11.0939 -9.80273 -6.84663 19
277 1 -13.7225 -11.7431 2.58603 21
278 1 6.09777 -7.18426 -12.6022 21
279 1 6.93251 -17.7773 -9.07254 16
280 1 1.33936 10.3514 -9.60716 13
281 1 -13.9465 7.05688 -7.44074 12
282 1 7.59462 5.21052 5.66083 19
283 1 2.81749 -17.7569 -7.43505 22
284 1 -7.26751 4.90161 -1.57938 21
285 1 2.39193 -15.178 4.3387 19
286 1 8.13028 -12.0532 -0.418064 14
287 1 0.281822 -6.53138 10.8578 19
288 1 -4.0865 6.96542 1.58379 20
289 1 5.2083 4.22365 11.5388 12
290 1 -8.50591 8.32902 -12.5533 14
291 1 -2.0604 -11.9217 -20.6934 13
292 1 4.74406 -17.4518 -16.6067 13
293 1 -14.9457 -0.605782 7.14674 10
294 1 -16.8857 -3.58317 -4.91998 15
295 1 -7.28899 5.07137 -4.73224 20
296 1 6.01389 -7.43783 4.4633 23
297 1 -15.5689 -17.8613 -5.91666 11
298 1 2.81873 -12.2237 2.49651 22
299 1 -12.7203 -12.1325 8.7306 9
300 1 -16.7729 2.11385 -7.93511 13
301 1 0.912503 -15.8011 -10.7801 24
302 1 -8.02267 -9.30707 -13.0885 18
303 1 6.25382 -7.89889 -19.6317 14
304 1 3.86817 7.98685 0.297898 23
305 1 -13.2605 -7.10901 -7.29317 22
306 1 3.09782 -17.7068 -13.9786 19
307 1 8.87043 -3.67213 -19.3351 9
308 1 -4.62527 -21.9303 -7.57578 10
309 1 -12.5651 -15.271 -9.69759 20
310 1 7.77969 -6.01109 13.1894 10
311 1 8.52283 -4.66314 -9.24529 21
312 1 -7.5468 2.4422 -16.5685 23
313 1 -0.880658 14.3008 -1.90161 11
314 1 -16.7562 -7.167 -8.46775 14
315 1 -13.9377 1.75509 -2.89569 22
316 1 -10.375 4.02018 -6.00185 20
317 1 -10.1787 4.57409 0.442211 19
318 1 11.588 -1.46453 7.81243 13
319 1 11.4897 -9.91325 -10.6277 19
320 1 8.53752 -2.95101 12.0932 14
321 1 8.00712 -4.80153 -12.4635 24
322 1 -4.96821 -21.3717 -4.55344 16
323 1 2.71996 -14.7389 -5.89598 24
324 1 7.82881 -6.20347 2.9852 21
325 1 -10.1779 -13.0204 -9.2955 23
326 1 -7.93284 -14.7919 -2.68407 25
327 1 -13.0308 -8.86276 7.58336 16
328 1 -6.39924 10.7157 0.423728 12
329 1 -14.1425 -15.1411 -5.79585 20
330 1 4.5792 7.97616 8.72917 10
331 1 -11.1461 1.55633 -7.94375 21
332 1 0.77747 6.97966 -11.2462 20
333 1 3.11266 4.99167 2.33262 19
334 1 -15.3649 -14.9321 -10.961 15
335 1 -4.82478 -12.7941 -12.0608 22
336 1 -18.7601 -5.65846 -2.80649 11
337 1 -13.848 1.49143 -9.84579 20
338 1 2.61411 -15.0061 0.728359 25
339 1 -7.94976 -17.6268 -7.78395 21
340 1 8.16111 8.40677 3.14602 12
341 1 6.34111 1.35301 -17.5528 13
342 1 -14.8779 -0.686639 -16.3071 14
343 1 -3.81948 10.0564 -11.3761 16
344 1 -13.3297 -1.02675 -11.1969 20
345 1 -2.61496 -17.7554 -1.04668 22
346 1 8.99604 -0.608225 2.27917 22
347 1 3.1552 5.72506 -16.6516 12
348 1 -18.8757 -5.51013 -9.7862 11
349 1 -7.81381 -17.8493 -0.975984 21
350 1 3.46547 -14.9021 -15.866 19
351 1 -15.3269 -6.77308 1.12382 16
352 1 -17.089 -2.8795 -0.804149 11
353 1 -16.7645 1.75556 -1.17917 10
354 1 -10.9792 -4.25139 -17.5148 18
355 1 5.60162 -15.3972 -7.36662 20
356 1 -1.34777 -17.5735 -14.0998 19
357 1 -4.87145 -9.8523 5.78489 21
358 1 -8.01278 -0.565312 -20.4715 11
359 1 2.86709 -17.8113 -0.881653 20
360 1 4.01995 4.72659 -10.9251 22
361 1 -14.9138 1.5934 2.4358 11
362 1 -7.39947 -8.42489 10.5528 16
363 1 -15.63 -14.3698 -14.2166 9
364 1 -10.7338 -12.9197 7.097 16
365 1 4.89317 -10.3412 6.10998 18
366 1 5.40952 -13.1089 0.648605 20
367 1 10.3046 2.87694 -6.62971 19
368 1 -4.95629 -1.16546 7.06767 22
369 1 0.53822 6.95233 -7.89247 19
370 1 -4.83446 -18.7515 -8.97995 21
371 1 -5.22983 -1.08534 10.4443 16
372 1 -3.01186 12.36 0.325309 11
373 1 -9.81292 -15.6551 -10.7692 21
374 1 6.54532 12.1437 -5.2189 16
375 1 3.18772 2.03577 3.93655 18
376 1 -8.02258 -3.19349 3.83907 20
377 1 -12.7737 -3.14042 3.9596 23
378 1 -9.64785 -12.7206 -12.5874 19
379 1 -8.0259 2.23703 0.341311 19
380 1 -4.27684 -15.8824 -10.373 23
381 1 -2.78105 -12.3036 -17.44 21
382 1 -13.5284 -19.8787 -4.64737 11
383 1 8.68579 -3.46137 4.32122 18
384 1 -10.6216 -9.69254 9.10223 17
385 1 -12.5307 -1.2707 -18.8078 9
386 1 8.55326 0.83382 -5.72125 20
387 1 -13.1221 -19.5765 -7.70583 10
388 1 -0.449878 12.2868 0.098791 16
389 1 -7.00134 3.44938 9.43006 14
390 1 -15.4046 -12.0482 -6.48154 20
391 1 -1.22669 11.2393 -5.08946 16
392 1 7.19272 8.50591 -13.0168 13
393 1 -7.06126 -15.0519 -12.5614 19
394 1 3.683 -5.81739 11.8291 20
395 1 -2.43062 -20.4611 -12.5847 13
396 1 0.102195 -9.97779 -14.3522 20
397 1 5.20692 -18.6754 0.701683 18
398 1 -16.3311 2.35174 -4.28955 14
399 1 0.51772 -1.1927 10.8494 26
400 1 6.6976 3.8119 -6.16337 23
401 1 -10.153 1.15512 -15.0337 20
402 1 -18.5464 -12.0943 -5.65077 12
403 1 -1.25145 11.743 3.2176 11
404 1 -5.07411 -4.30236 -17.659 22
405 1 8.51986 1.94709 -2.62549 19
406 1 4.69138 10.0631 -11.1211 16
407 1 14.5465 -3.19708 -7.12836 15
408 1 0.21942 -4.2259 -17.8562 20
409 1 -2.86302 -17.7487 2.14796 20
410 1 0.236403 -12.6463 7.58938 12
411 1 -10.3079 -1.30377 -12.6929 22
412 1 -13.6184 -17.5872 -2.86482 18
413 1 -6.5983 -18.2231 -17.2481 10
414 1 5.40633 12.3526 -0.170919 14
415 1 1.21466 -1.50379 -16.0119 21
416 1 2.89191 -8.80182 11.293 14
417 1 -15.169 -9.5842 2.20901 17
418 1 -1.83899 -20.9406 0.739795 9
419 1 -13.1677 -9.34368 -2.67335 20
420 1 12.7859 -7.91324 -8.27379 15
421 1 8.90181 -7.49534 -7.73922 21
422 1 0.954656 -12.6519 -12.5021 22
423 1 2.81621 -3.75533 -16.045 21
424 1 8.84767 -9.76733 -19.2472 12
425 1 -4.8945 -3.89363 9.11759 24
426 1 5.80986 9.74258 -2.46231 18
427 1 -4.55044 -7.35278 -19.2068 19
428 1 1.63197 -2.07445 -22.349 14
429 1 -7.31439 -8.99097 3.90523 22
430 1 -10.3803 9.22615 -4.68834 9
431 1 -11.3273 -9.67097 -17.7364 14
432 1 -17.796 -9.04517 -10.2996 13
433 1 -8.36603 -15.0438 -17.923 10
434 1 -8.17151 -14.5778 6.94339 16
435 1 -1.67704 4.98515 -11.203 22
436 1 14.0234 2.72582 0.182497 12
437 1 14.5088 -0.810432 -0.611057 13
438 1 -7.35224 -20.3118 -6.60227 14
439 1 -7.66095 -9.30675 -19.1717 12
440 1 -4.01223 7.44526 4.52592 20
441 1 8.73728 -7.20589 -4.21868 21
442 1 4.5889 9.78646 -14.7845 12
443 1 11.6673 0.490843 -11.1238 20
444 1 3.80175 4.70515 9.07275 19
445 1 -10.1445 -0.903457 3.93441 23
446 1 3.87391 5.17733 5.65236 21
447 1 5.73008 -1.34117 10.96 18
448 1 0.252477 -1.46731 -19.2487 21
449 1 -2.29882 -6.3479 9.19263 22
450 1 5.43363 3.91191 0.280672 19
451 1 6.73768 3.82827 -9.49751 22
452 1 -10.3884 4.24143 -9.37796 22
453 1 -5.41396 7.47565 -7.87396 19
454 1 8.5599 -6.80867 9.64335 18
455 1 8.53662 -7.18313 -14.4923 21
456 1 8.14584 -15.9057 -6.61878 13
457 1 9.70332 7.23047 6.18542 10
458 1 -17.465 -13.0673 -2.37595 10
459 1 -5.61998 1.50751 -14.7242 21
460 1 -16.0506 -4.80696 -2.22397 18
461 1 -5.45872 7.3626 -14.0502 18
462 1 2.86489 -20.821 -8.89969 15
463 1 3.40042 -6.36952 -14.1117 21
464 1 -2.94827 10.7249 -7.69786 16
465 1 -13.524 -12.1651 -16.7634 10
466 1 2.3492 -20.8202 0.987753 14
467 1 -14.0027 -9.40398 -6.09329 19
468 1 0.15511 7.36523 -17.5618 11
469 1 -2.86671 2.83415 10.3041 17
470 1 -10.1708 -9.98861 2.28285 19
471 1 1.13879 -15.4648 -14.0409 21
472 1 2.80237 -12.0291 5.83137 15
473 1 -11.0185 1.29686 -4.52978 21
474 1 2.47985 -2.84203 14.4209 12
475 1 1.30749 12.8088 -6.89288 13
476 1 8.51269 -10.258 -9.24499 23
477 1 0.770698 1.33175 5.65995 22
478 1 1.47741 1.14268 -20.8139 14
479 1 -6.84482 -17.6505 5.73392 9
480 1 3.27042 -8.68744 -22.3405 8
481 1 0.817954 9.70211 1.25254 21
482 1 8.21736 -0.220643 -14.9372 17
483 1 -5.08268 -9.9522 -17.5308 22
484 1 -5.3751 -15.6478 -7.41076 20
485 1 -14.3872 -9.34599 -15.8931 14
486 1 11.9827 -2.53574 -5.90483 19
487 1 14.432 -1.08158 -10.2584 12
488 1 8.3824 -12.4719 -14.1893 22
489 1 11.9706 1.87824 7.6779 8
490 1 2.98074 -14.7511 -9.19161 21
491 1 4.09232 -0.0430482 -21.7464 10
492 1 6.57735 6.88439 -1.10695 19
493 1 7.33881 6.35149 8.77718 16
494 1 12.7598 5.00612 -2.80761 11
495 1 10.9941 -4.84906 -4.10695 18
496 1 9.18514 -1.91128 -10.9576 22
497 1 8.07014 -0.432837 9.35301 14
498 1 13.4915 0.871908 5.73356 9
499 1 6.36645 6.60978 -7.55919 19
500 1 -2.27389 -2.98054 10.5024 21
501 1 12.4313 -11.2511 -13.0274 11
502 1 2.99536 -2.94829 11.253 22
503 1 -10.7298 -7.45651 -12.0856 20
504 1 11.9068 -2.43807 0.812084 20
505 1 -12.4023 -0.149124 5.49365 17
506 1 5.889 4.02908 3.86444 21
507 1 5.98448 -1.61124 7.90361 21
508 1 0.901479 3.91993 3.95307 21
509 1 -3.09758 10.3413 5.84538 12
510 1 -0.027622 -18.7946 0.364864 21
511 1 -7.73581 4.97209 -7.83967 21
512 1 12.5218 3.59722 -12.2594 13
513 1 7.57617 -9.90249 -16.1365 19
514 1 -2.35185 11.1503 -2.59194 14
515 1 -1.92733 -17.592 -11.0504 23
516 1 8.84406 -12.7057 -17.3722 14
517 1 -12.8691 -0.658695 2.12778 21
518 1 -4.91364 0.994541 -17.8456 21
519 1 -5.33357 -18.6466 -2.65246 20
520 1 -7.86772 -3.93004 -15.8928 21
521 1 -14.773 -3.52784 -9.73553 19
522 1 7.98797 -9.69089 -2.47515 23
523 1 10.7462 -0.088591 -2.97224 17
524 1 -2.5966 -14.9168 0.85501 22
525 1 -13.0662 -10.2534 -12.8064 16
526 1 -0.648662 -3.91947 -20.9771 17
527 1 -2.15032 -0.433553 8.90802 24
528 1 5.81948 3.89846 -16.1654 17
529 1 11.4226 -5.93702 8.57125 15
530 1 8.83695 0.723116 -12.3253 25
531 1 9.93787 7.29603 -2.7747 14
532 1 0.601637 -18.6492 -12.0846 20
533 1 -13.0968 -5.82258 9.16901 15
534 1 10.6643 -8.78819 -0.505698 14
535 1 -1.74199 5.88337 8.50153 17
536 1 3.41353 8.72137 -17.9747 9
537 1 -12.4567 6.30673 -10.2056 14
538 1 8.27446 4.72482 -1.31267 23
539 1 -17.1367 -14.732 -5.3337 13
540 1 11.2014 -11.9557 -1.80495 10
541 1 5.12214 14.1012 -3.0504 14
542 1 -4.51027 1.43047 5.62871 19
543 1 -13.0776 -12.2593 -4.16912 17
544 1 -11.2486 -4.63219 -14.3851 22
545 1 6.12997 -4.43763 9.47289 23
546 1 -5.30282 -12.8082 7.54039 17
547 1 8.09969 3.17003 10.3175 14
548 1 -8.40332 7.46302 -3.2764 18
549 1 -2.25987 -6.48464 -21.1563 15
550 1 -9.97372 -6.64784 4.26254 22
551 1 5.99273 -7.437 -16.2287 19
552 1 6.31102 -12.851 -12.1759 22
553 1 6.23818 -1.6846 4.15293 22
554 1 -9.95238 -3.65348 12.6647 9
555 1 8.29791 1.81566 3.95399 19
556 1 -2.24832 -11.9632 8.87274 14
557 1 -4.92089 1.75049 8.62909 20
558 1 -1.9236 -9.32216 -19.1617 22
559 1 -10.2464 -3.829 5.73912 23
560 1 0.550706 -4.12463 9.20648 24
561 1 -14.1934 -19.1911 1.19685 14
562 1 13.5807 -0.407962 -7.44137 13
563 1 3.51449 -17.7339 -10.7306 24
564 1 3.98899 4.87271 -7.91807 23
565 1 7.78123 12.5203 -1.65853 10
566 1 1.10333 -5.75702 -22.5795 12
567 1 0.537822 9.53527 -6.93057 19
568 1 10.9872 2.65886 -3.30674 20
569 1 -8.00104 -14.7399 -5.93175 22
570 1 -2.78748 -2.99392 -18.9923 19
571 1 -10.5412 6.35211 -7.53786 22
572 1 6.19824 -15.4407 -13.9739 22
573 1 9.26853 5.67485 -11.5883 18
574 1 8.55434 10.6714 -7.39801 13
575 1 10.5438 -5.66492 12.1147 9
576 1 11.4044 -3.29274 10.5309 9
577 1 -2.53602 -14.8125 4.11047 22
578 1 -7.5202 5.34884 -17.8529 12
579 1 -1.72283 9.08729 9.12903 9
580 1 1.36931 -18.3326 -15.7189 13
581 1 7.09519 9.13316 -9.6419 16
582 1 6.19239 6.60599 1.88085 18
583 1 12.3242 -11.7762 -8.76961 12
584 1 6.24495 1.64702 13.1198 7
585 1 -16.6825 -10.1557 -4.14586 18
586 1 5.5398 -22.0577 -6.98617 13
587 1 -8.22245 10.7114 -7.46376 13
588 1 3.97843 4.88598 -4.72097 20
589 1 -15.7043 -10.5128 -0.496291 15
590 1 -2.36348 -0.0895377 11.9444 15
591 1 -10.0194 3.96449 -16.5036 15
592 1 -7.49777 4.26941 -14.6268 21
593 1 4.75755 -22.6459 -3.99487 12
594 1 8.53755 0.798566 -9.14988 21
595 1 -17.2282 -2.23418 5.40255 7
596 1 3.49668 -9.85703 -19.7288 20
597 1 -0.15334 -16.4372 5.64242 15
598 1 3.0961 7.44525 -6.42831 20
599 1 -4.91267 -4.30864 12.2179 14
600 1 -10.6986 -14.0683 -15.5565 16
601 1 -7.77488 -15.3254 -15.4628 22
602 1 -10.2394 -18.916 -12.827 12
603 1 3.37274 7.69652 -12.8883 17
604 1 -5.34623 6.8033 -1.35402 19
605 1 3.61063 -14.7646 -12.3315 23
606 1 7.34234 -20.3581 -4.94339 12
607 1 -0.0463222 -12.874 4.31695 20
608 1 13.8145 -4.14377 -10.1708 16
609 1 -2.12695 -22.9179 -4.86481 12
610 1 -10.217 -6.53573 7.34456 22
611 1 -4.17387 -22.1476 -2.05766 9
612 1 -10.5863 -18.6449 -9.41353 16
613 1 -15.1843 -6.68085 4.3102 14
614 1 -10.0557 -21.2348 -0.874596 13
615 1 13.3452 2.19561 -5.48578 14
616 1 -6.22502 9.81851 -2.91201 13
617 1 -15.7751 -1.0373 -2.85797 19
618 1 8.4023 -6.5423 -0.68991 21
619 1 -15.8234 -8.87347 -12.7371 18
620 1 9.90255 -2.2228 -13.7336 18
621 1 6.18835 7.69988 5.76998 14
622 1 -13.5249 -6.80563 -10.9406 20
623 1 -14.0699 -12.1543 -10.2232 21
624 1 -0.0634846 1.76036 12.135 14
625 1 6.00288 1.09034 -14.3616 22
626 1 6.76453 9.69219 0.379173 15
627 1 -4.6229 -4.14496 5.73262 22
628 1 -2.39793 -20.1784 -6.29378 24
629 1 -11.4544 -20.7002 1.70199 13
630 1 9.20035 4.69245 2.51596 21
631 1 0.149256 -13.0203 -15.963 21
632 1 2.87391 4.94182 -1.55165 21
633 1 -10.7029 -13.0163 3.9643 22
634 1 6.77567 3.43789 -12.5565 23
635 1 -2.42984 -20.4451 -9.45745 19
636 1 4.37262 -22.9244 -0.601304 10
637 1 0.878484 -21.4554 -4.53382 15
638 1 3.59074 -0.775895 -14.4993 21
639 1 2.21666 15.4536 -3.95886 11
640 1 -5.92995 -1.99363 -19.4643 15
641 1 -2.1909 -3.38767 7.35986 23
642 1 0.505827 1.41837 -17.5733 21
643 1 -12.7355 -6.83188 -16.7061 16
644 1 -11.4039 -10.0318 -7.47523 23
645 1 1.95428 10.4161 -12.8283 14
646 1 -4.43668 -10.234 -20.9887 13
647 1 9.40674 -1.82713 -7.5447 20
648 1 9.22037 -15.4996 -9.51156 14
649 1 -7.60347 -3.04832 10.7491 18
650 1 2.7811 -14.9298 -2.3055 21
651 1 11.6396 -11.9439 -5.40792 12
652 1 8.08074 -9.52794 5.0959 16
653 1 -1.73293 5.00091 2.34273 22
654 1 -15.2307 -4.46045 7.16655 12
655 1 -7.29412 -0.282083 5.35625 22
656 1 -3.22881 -17.5986 5.49718 15
657 1 6.03018 3.83599 7.669 20
658 1 -16.2039 -6.64512 -5.16026 21
659 1 6.53815 -12.7352 -8.94734 21
660 1 -10.0735 5.25948 -12.2114 18
661 1 -0.365145 -18.6405 4.03839 15
662 1 -2.52208 -5.61266 12.3208 13
663 1 1.30136 12.7166 -3.53976 20
664 1 -0.112608 -16.026 2.25706 23
665 1 0.637225 -1.27004 7.61927 24
666 1 -16.6208 -11.9329 -11.6848 15
667 1 -0.280282 4.47677 10.695 13
668 1 3.68294 7.64151 -2.69551 20
669 1 -10.5869 -16.0099 -1.16334 21
670 1 -8.15939 -20.2431 1.27057 14
671 1 5.57559 -10.1907 2.74558 19
672 1 8.95647 -11.0889 2.81394 10
673 1 5.78955 1.14369 2.23309 21
674 1 -2.59814 -11.8733 -14.5454 20
675 1 -2.62781 -3.55037 -16.0831 18
676 1 -4.97387 -6.78936 7.51457 22
677 1 0.127275 9.80504 -1.90892 19
678 1 11.273 -5.46987 -0.817247 15
679 1 1.0405 4.12236 -12.8619 18
680 1 -9.83628 1.7985 8.49419 13
681 1 5.87275 0.930459 5.68858 21
682 1 5.27965 -9.69441 -13.9526 21
683 1 -10.247 -18.9544 -5.93614 18
684 1 12.3527 -6.28946 1.43042 10
685 1 0.765175 -7.14737 -16.1289 22
686 1 3.11054 -0.270515 9.32566 23
687 1 8.68615 -15.1426 -15.7941 13
688 1 4.52113 -2.78518 -21.7256 10
689 1 11.5599 0.750775 -14.4805 11
690 1 10.9954 -8.90332 -3.49759 17
691 1 0.296753 -9.92897 6.02295 21
692 1 -4.4211 -16.0907 -13.8002 22
693 1 3.60029 10.5782 -4.30834 16
694 1 -13.4598 -3.21486 0.511505 21
695 1 10.1144 3.24644 -9.97385 21
696 1 11.1942 0.730735 -0.205608 23
697 1 -0.534241 -9.77009 -21.3622 14
698 1 -7.07413 5.27331 1.57097 19
699 1 11.5113 3.9898 5.10889 12
700 1 9.97436 7.89855 -8.97897 13
701 1 2.48553 -4.53794 -19.332 20
702 1 8.37844 -9.85889 -5.97252 21
703 1 -13.9016 -3.79351 -5.98794 19
704 1 12.0447 -2.34374 -1.98001 21
705 1 -13.6729 -14.931 -2.95757 19
706 1 -12.4755 3.94162 -14.9672 11
707 1 3.35881 -0.750795 5.8892 21
708 1 -11.6329 -4.35457 -10.9379 21
709 1 -15.5326 -0.591833 0.394729 18
710 1 6.08326 -15.6246 -10.5729 19
711 1 -14.7989 -16.802 -8.71302 14
712 1 9.12723 -11.9033 -3.93204 15
713 1 -16.3006 -0.561578 -6.60435 15
714 1 11.3569 3.05988 1.98521 17
715 1 -8.04373 -12.0286 2.52246 20
716 1 2.37881 -5.5963 14.588 11
717 1 10.1959 -7.72142 3.8413 17
718 1 -13.4376 -3.08125 -2.89531 19
719 1 1.15654 4.42265 7.44104 22
720 1 8.09486 5.6989 -14.7271 12
721 1 -5.05282 -13.3196 -19.4057 14
722 1 -9.68201 7.94269 4.02163 12
723 1 -16.0664 -16.2794 1.60089 13
724 1 9.67338 3.16861 -13.8396 15
725 1 0.339063 1.52801 8.94029 22
726 1 13.0772 -7.19365 -11.3591 13
727 1 4.92858 -13.6914 7.18316 9
728 1 -1.87436 4.8338 -17.899 14
729 1 4.29761 4.46618 -13.9457 16
730 1 -7.4718 -5.74454 5.66096 23
731 1 13.8324 1.70184 -2.53061 14
732 1 -5.2211 -10.1022 -14.3648 21
733 1 8.76514 7.96242 -5.76069 16
734 1 -17.5276 -3.50562 -7.75418 15
735 1 -5.26213 -15.4174 5.74544 18
736 1 1.39546 10.4662 -15.716 11
737 1 3.29841 -6.31884 5.90224 22
738 1 -2.34242 -17.4055 -7.58642 25
739 1 -9.85252 9.99583 1.26584 11
740 1 -16.562 -0.75644 -9.8324 14
741 1 9.09866 -6.68745 -17.5033 18
742 1 2.13214 -15.1846 -20.8725 10
743 1 -11.0074 1.6634 -1.35578 19
744 1 11.86 5.21733 -9.21048 13
745 1 3.33214 -11.7931 -17.382 17
746 1 -10.6348 -17.0671 -16.1429 10
747 1 0.183053 -15.5206 -7.42396 21
748 1 -4.22372 5.27713 9.92295 14
749 1 0.546866 -18.7777 -8.91026 21
750 1 -1.7659 2.90386 -19.9739 12
751 1 15.0944 -6.47231 -8.09888 8
752 1 5.75322 3.70198 -2.76054 22
753 1 -1.95078 -20.7767 -2.45924 20
754 1 0.323884 -12.951 -19.2253 17
755 1 11.9064 -1.99223 -9.41032 21
756 1 -1.86692 -0.540427 -17.6075 21
757 1 -5.39227 -12.998 3.99017 23
758 1 5.82442 0.713644 -10.8855 23
759 1 -13.1794 -1.42693 -8.09685 23
760 1 -15.0343 -1.47322 3.98096 17
761 1 3.38023 -0.114667 12.5961 15
762 1 -8.00807 -14.7539 4.12857 22
763 1 0.909204 7.16919 -1.01453 24
764 1 3.50335 -20.799 -2.70884 20
765 1 3.25169 7.79626 -9.78486 19
766 1 -4.15474 4.63276 6.78547 21
767 1 -8.05769 -5.82241 12.3726 13
768 1 -11.4421 7.2401 1.46361 11
769 1 -8.32933 -11.5956 8.91488 13
770 1 2.25847 -17.8785 6.34632 10
771 1 8.50762 -0.92469 5.78625 21
772 1 5.50629 -9.99248 -10.7091 19
773 1 6.21403 -18.5669 -11.8908 15
774 1 -10.0842 -6.87354 -19.0498 12
775 1 -1.24638 0.112205 -20.7954 14
776 1 4.2654 7.66602 3.6603 23
777 1 -15.0606 -7.65413 7.69007 13
778 1 -7.55954 5.30064 -11.1393 23
779 1 -17.5453 -2.842 -11.5097 13
780 1 9.40807 11.1587 -4.32627 8
781 1 -13.0156 -20.4178 -1.36665 15
782 1 9.08709 7.46003 0.78701 17
783 1 -12.279 -16.0256 -12.9936 16
784 1 1.34348 9.97334 4.10097 16
785 1 -10.1377 -3.87676 9.39459 20
786 1 -4.98466 -18.7846 -11.8038 17
787 1 8.96482 -6.37953 6.33732 22
788 1 5.87022 -21.3854 1.87932 9
789 1 1.54471 7.01657 9.43267 12
790 1 11.6304 -8.31637 -13.3509 15
791 1 5.72759 -15.6794 -3.89962 20
792 1 3.54531 -7.2525 -17.8742 20
793 1 -15.8093 -6.09913 -14.6757 14
794 1 -12.8144 1.77007 -16.9188 13
795 1 -7.03187 3.19406 6.64924 23
796 1 8.43914 -9.02394 1.0177 18
797 1 -10.8553 -13.0394 -2.60665 24
798 1 11.3103 -4.86233 -7.87571 21
799 1 -2.3165 2.39096 -16.1238 23
800 1 11.5601 5.07994 -0.247397 18
801 1 -4.44122 7.88429 7.91009 14
802 1 -16.0462 -18.5805 -0.938013 11
803 1 5.84283 -21.6421 -10.0106 10
804 2 -12.9649 -3.25685 -14.342 24
805 2 -7.64391 6.94928 -4.92721 22
806 2 0.203555 -6.41573 -17.7106 20
807 2 -7.74934 2.00537 8.55082 19
808 2 1.48218 -20.3367 -11.9465 16
809 2 -13.394 -13.8322 -10.4604 21
810 2 -0.498167 -5.65858 12.4386 16
811 2 3.25062 -7.07404 13.5849 10
812 2 -12.6801 -15.7326 -4.62943 20
813 2 -14.3321 -0.544334 -9.59498 21
814 2 0.230007 7.91592 -2.70293 19
815 2 -12.8127 -4.2202 -4.43701 20
816 2 0.473911 10.365 -14.1682 11
817 2 8.31438 -1.54385 -2.4878 21
818 2 -1.26359 7.18123 -11.135 20
819 2 4.12548 12.43 -7.58376 15
820 2 -14.3925 -7.44517 -15.6616 14
821 2 -14.3932 -16.5544 -10.3897 13
822 2 0.107277 -0.489038 5.69607 23
823 2 6.45089 -9.60042 -12.4777 24
824 2 2.64047 -21.8875 -1.18828 13
825 2 -8.34435 4.27573 -5.97951 22
826 2 -16.7445 -1.11923 -11.7658 13
827 2 8.0948 -1.63929 0.786443 21
828 2 9.38626 -15.6729 -13.9132 12
829 2 -12.8389 -15.2519 -7.49395 20
830 2 -10.6595 -9.07525 0.697437 20
831 2 -7.30651 -18.5242 -2.77225 21
832 2 8.32328 -10.9569 1.13568 17
833 2 -4.12207 -19.6696 -13.2998 14
834 2 4.84211 -8.64167 11.3328 13
835 2 -0.0794646 4.50629 -14.3156 19
836 2 0.39135 -17.8035 2.25246 21
837 2 -15.9858 -15.2937 -9.09228 15
838 2 -0.245219 -0.474905 9.29142 23
839 2 -10.0745 2.09998 -2.97811 22
840 2 -3.12116 -3.84559 11.8895 16
841 2 -12.0454 7.59109 -7.28907 15
842 2 5.89141 -17.8147 -0.961346 15
843 2 1.48627 7.55988 -13.0991 19
844 2 8.4203 9.3664 1.44797 12
845 2 6.10336 13.4685 -1.54699 13
846 2 5.50609 -11.667 -13.7435 24
847 2 -9.7637 3.1895 7.03983 14
848 2 5.34885 -1.29325 -20.7948 9
849 2 -5.60608 2.35526 -16.5549 22
850 2 10.6589 4.19911 -7.95874 13
851 2 -8.4983 -6.66883 10.5062 20
852 2 -15.3315 1.88847 0.368119 13
853 2 10.3545 -7.04727 -14.0337 18
854 2 -12.6558 -12.8052 6.87839 11
855 2 1.45839 -17.4426 -17.4438 15
856 2 -2.37126 -7.39922 -19.3832 20
857 2 -14.9607 -17.1083 -1.67671 17
858 2 8.77346 4.35412 -6.11674 21
859 2 -5.09451 4.86118 -1.06978 21
860 2 -9.66317 -17.9928 -14.331 13
861 2 -6.42341 7.04699 1.03615 19
862 2 6.32023 -6.99638 13.1807 10
863 2 0.795721 -11.9975 5.84537 18