ITEM: TIMESTEP
92000
ITEM: NUMBER OF ATOMS
5760
ITEM: BOX BOUNDS pp pp pp
-0.2079564159 33.0079564159
-0.1413454642 34.2813454642
0.4457025148 63.1542974853
ITEM: ATOMS id type x y z Coordination
1 1 32.8099 5.60283 0.886949 24
2 1 1.4175 2.58175 1.23477 25
3 1 1.5054 0.657075 3.55242 22
4 1 0.183952 9.2462 3.28293 24
5 1 3.3899 11.3108 5.89231 24
6 1 3.64712 9.1917 8.83778 23
7 1 11.5117 0.920357 8.72049 22
8 1 32.8222 34.1731 6.18706 24
9 1 4.94616 6.41827 13.5158 22
10 1 3.50692 3.26344 8.63586 24
11 1 6.53561 5.30356 10.9841 23
12 1 31.403 8.27169 16.6046 27
13 1 -0.360099 11.161 1.17792 25
14 1 1.41258 8.04722 0.588738 23
15 1 3.21554 3.4114 3.21896 19
16 1 30.0275 9.26118 2.95458 25
17 1 28.3099 0.180435 14.1578 22
18 1 1.61522 8.44777 16.4305 24
19 1 -0.0250117 5.63921 6.29669 24
20 1 26.3078 3.57248 8.38542 23
21 1 31.6227 14.2605 5.78567 21
22 1 1.57858 19.6066 16.2668 21
23 1 3.37355 9.25376 24.2459 21
24 1 33.0406 11.2115 16.2477 23
25 1 32.7128 16.8608 0.705352 22
26 1 1.44738 14.1534 1.02016 23
27 1 29.721 20.946 8.63807 23
28 1 28.2534 12.102 8.7124 24
29 1 30.0911 16.8635 11.3587 24
30 1 5.99419 15.6121 8.6953 22
31 1 30.0065 9.44166 8.60897 22
32 1 32.9088 15.3847 8.60966 23
33 1 28.0258 19.9365 10.8873 21
34 1 22.9612 11.3723 6.29632 23
35 1 6.76321 11.1892 10.9962 23
36 1 21.5459 25.8522 5.94657 22
37 1 3.03563 5.41315 0.711783 23
38 1 4.87777 2.70269 0.855044 25
39 1 6.62545 32.2082 3.337 21
40 1 1.40007 2.63447 5.98998 21
41 1 3.45751 5.15821 5.84339 23
42 1 6.85044 34.014 6.1352 25
43 1 5.18356 0.620261 14.0052 24
44 1 4.69321 29.4096 8.70044 22
45 1 1.36438 6.42725 3.79193 25
46 1 6.48679 -0.333099 16.3942 21
47 1 9.74932 5.45165 10.9416 22
48 1 1.8025 0.753018 14.2144 22
49 1 2.97543 11.0453 0.411377 23
50 1 4.72497 8.17236 1.09904 23
51 1 6.57224 3.49919 8.72207 25
52 1 28.4121 6.57496 3.42106 23
53 1 -0.215293 9.43719 8.37349 20
54 1 8.01211 12.1175 3.16791 23
55 1 3.04968 5.84768 16.5335 23
56 1 31.2378 2.58633 6.02899 21
57 1 29.9224 14.9304 13.8041 24
58 1 31.4653 2.62732 21.5799 21
59 1 8.6235 29.3091 18.612 21
60 1 4.92278 14.0844 16.7561 23
61 1 3.32738 17.0487 0.665567 21
62 1 4.58727 14.1053 0.329742 23
63 1 3.31884 15.3483 3.28808 23
64 1 10.0904 5.71422 5.92609 23
65 1 24.7037 19.832 5.91846 24
66 1 1.75641 14.0432 5.95277 23
67 1 1.53823 12.1067 8.51139 23
68 1 0.109771 20.7063 3.75755 23
69 1 1.27676 17.6489 3.28258 23
70 1 9.58372 11.0123 5.8343 19
71 1 1.74177 29.1812 18.9493 22
72 1 26.685 15.0461 19.0643 23
73 1 6.45836 9.22741 3.42534 22
74 1 8.33596 2.54734 0.558769 21
75 1 11.6127 0.573577 3.25512 22
76 1 29.9891 11.3784 11.1341 21
77 1 27.1498 33.4486 16.8111 21
78 1 5.07109 2.71274 11.5288 24
79 1 9.79314 34.0319 5.9771 23
80 1 3.46766 8.63964 3.19336 21
81 1 5.03653 2.94805 16.4389 23
82 1 1.89628 0.684312 19.6035 24
83 1 13.2325 3.63836 8.6366 22
84 1 33.4409 9.33749 18.9906 23
85 1 6.44568 10.8724 0.789055 24
86 1 7.91801 8.18079 63.2108 23
87 1 33.0105 11.0673 10.8625 21
88 1 9.70466 9.35586 3.42891 22
89 1 3.18448 14.8174 19.1736 24
90 1 9.573 3.41988 3.43297 23
91 1 4.79515 8.26742 5.89944 21
92 1 18.162 8.15954 11.2884 22
93 1 4.67002 17.7783 13.59 22
94 1 4.86076 0.456403 9.06369 25
95 1 8.30287 6.13333 19.0446 21
96 1 14.6191 14.1386 16.7542 24
97 1 6.7303 17.0893 1.05224 25
98 1 7.7757 13.9549 0.843031 22
99 1 12.9662 11.0733 6.27175 24
100 1 9.43744 14.9198 2.94397 21
101 1 5.12074 17.7496 3.34066 23
102 1 8.41848 8.66016 6.22106 21
103 1 8.07772 14.3398 5.74607 22
104 1 9.99026 11.2799 21.8779 23
105 1 14.8616 18.0019 8.80123 22
106 1 4.78563 11.9945 3.03662 20
107 1 26.5733 10.9658 11.5607 24
108 1 28.3511 17.4228 13.4609 22
109 1 9.60531 5.57223 0.917318 23
110 1 11.4176 2.48981 0.98257 25
111 1 13.0238 3.67843 3.55391 25
112 1 7.92379 6.6307 3.41738 21
113 1 4.90993 5.89638 3.09698 21
114 1 11.7153 2.33553 11.4241 23
115 1 16.5482 -0.063912 6.01745 25
116 1 7.97306 18.0144 14.004 23
117 1 9.90024 11.4124 11.3493 24
118 1 15.0818 2.42184 11.2281 23
119 1 18.4322 0.406036 14.3694 23
120 1 6.4337 34.1977 21.8011 24
121 1 9.85365 11.1815 0.716997 22
122 1 11.3273 8.51802 1.03667 23
123 1 13.3279 5.47332 6.24892 24
124 1 6.90161 11.2336 5.72761 21
125 1 16.8427 5.54517 6.12755 23
126 1 9.51991 9.4669 8.78626 24
127 1 16.4216 11.4172 16.2784 23
128 1 4.8724 6.35635 18.8682 22
129 1 8.11438 29.8844 8.94194 22
130 1 14.7676 6.29641 8.46169 22
131 1 9.92847 17.0083 10.9817 22
132 1 8.31078 18.3084 9.01926 25
133 1 9.85742 16.7395 0.971167 23
134 1 11.283 13.8558 1.12697 22
135 1 15.0385 12.3469 3.32544 23
136 1 11.2346 18.0423 3.60591 23
137 1 9.82467 23.0334 11.4682 22
138 1 21.7098 7.79776 11.3708 23
139 1 26.3836 15.0105 8.70756 22
140 1 11.4572 8.58665 11.182 25
141 1 9.82806 11.6159 16.4104 24
142 1 11.797 20.379 16.5816 22
143 1 14.7296 19.7661 20.8134 17
144 1 14.9459 17.6253 14.1607 23
145 1 13.3923 5.484 0.904788 24
146 1 14.6117 2.66651 0.88834 24
147 1 23.3997 5.91808 6.46656 23
148 1 11.4585 6.52681 3.11925 22
149 1 14.8377 6.43838 3.55405 26
150 1 13.1847 11.5165 16.7337 25
151 1 23.4694 33.8254 11.1461 24
152 1 11.5599 2.68295 6.04882 24
153 1 9.69988 26.7831 19.0087 23
154 1 19.3551 27.1151 13.6658 23
155 1 14.9194 23.5038 19.0241 24
156 1 10.0717 3.52459 13.3387 23
157 1 12.9023 11.1158 1.00088 25
158 1 15.136 8.21144 0.587863 22
159 1 11.7073 8.31693 5.32879 17
160 1 8.02229 6.50177 8.66314 22
161 1 14.3616 6.50383 13.5503 21
162 1 14.6403 13.907 10.959 19
163 1 6.40975 11.3816 16.4603 23
164 1 15.3627 0.972884 8.39294 21
165 1 9.83305 16.8914 6.24156 20
166 1 20.4249 9.14062 8.08818 23
167 1 18.366 2.70296 11.4755 24
168 1 16.2561 11.0249 11.5257 20
169 1 13.1451 17.1061 0.982851 22
170 1 14.9293 14.0919 0.537111 23
171 1 18.5532 17.4437 13.2965 20
172 1 13.0491 15.0905 3.27754 25
173 1 28.2884 8.3075 21.4506 21
174 1 20.1481 9.15436 14.1559 23
175 1 15.0143 2.92525 6.15288 25
176 1 4.59433 6.59452 24.4066 22
177 1 14.9388 12.129 8.48344 20
178 1 16.8497 14.9804 14.1609 23
179 1 16.4947 3.67026 8.87332 23
180 1 24.8335 29.2051 13.8385 23
181 2 8.31223 2.11232 2.65828 23
182 2 8.33802 29.3222 5.61105 23
183 2 1.20513 0.718712 5.49663 21
184 2 2.065 0.802857 10.4471 25
185 2 28.6236 6.41233 15.6411 23
186 2 26.4588 32.4615 11.0335 20
187 2 1.51043 12.32 62.7972 25
188 2 6.43417 0.125597 7.98039 23
189 2 3.31184 14.7375 10.4142 22
190 2 11.4501 12.4016 10.4649 24
191 2 -0.117278 14.6713 15.9776 24
192 2 0.0593198 5.79325 8.41856 21
193 2 5.03829 0.0445768 62.6123 22
194 2 6.59565 9.32067 10.6042 23
195 2 29.6253 11.2552 2.69938 22
196 2 28.4547 6.71905 5.35438 24
197 2 9.6203 9.62985 10.7989 22
198 2 29.749 5.41677 13.1802 24
199 2 9.74948 3.99385 15.4166 22
200 2 31.5577 12.3896 10.6982 24
201 2 14.9183 11.7521 10.5282 23
202 2 29.8236 17.0896 24.1993 23
203 2 6.50928 11.1116 18.4583 23
204 2 33.1002 31.7813 15.6499 21
205 2 3.29093 5.5701 23.2337 25
206 2 31.7332 12.4982 5.91105 20
207 2 26.7304 11.1904 3.0824 23
208 2 31.2732 14.2036 3.38119 20
209 2 24.8818 23.6284 10.3258 24
210 2 29.3467 20.7343 5.17899 23
211 2 8.17108 29.3758 15.9012 23
212 2 29.4868 9.24539 10.5364 23
213 2 26.4836 9.14825 10.5312 22
214 2 23.4049 15.1274 26.2117 24
215 2 28.1323 0.797927 21.3797 21
216 2 31.5385 0.585297 10.7997 20
217 2 18.6584 23.2548 10.7779 22
218 2 6.24409 4.58722 2.51051 23
219 2 3.21181 34.2323 2.83479 23
220 2 2.97119 3.92734 15.9704 23
221 2 3.0029 16.7922 18.9318 23
222 2 27.879 2.09575 8.24121 22
223 2 6.3083 5.81179 8.27629 21
224 2 13.3932 32.6468 5.65138 21
225 2 16.585 34.0619 7.90323 21
226 2 11.4172 6.72591 20.9468 25
227 2 8.06428 29.3163 10.676 21
228 2 6.80351 3.61888 15.7375 21
229 2 1.78043 8.12434 2.506 25
230 2 23.6594 5.38675 8.40869 23
231 2 5.37108 7.84707 2.95225 22
232 2 7.66463 14.1452 2.96657 21
233 2 -0.0583106 -0.0140679 7.96432 22
234 2 8.2984 2.48757 13.0571 24
235 2 24.7209 11.8283 5.50543 25
236 2 0.281175 15.3931 5.63782 22
237 2 32.8329 15.2207 26.8344 23
238 2 2.9587 10.8055 2.69409 24
239 2 30.0308 22.6632 7.6734 23
240 2 29.4455 10.9816 18.1997 23
241 2 0.241064 9.38424 10.3949 22
242 2 1.45808 14.2899 2.79898 23
243 2 6.85247 16.674 2.8947 24
244 2 5.33594 11.8405 5.38251 22
245 2 3.13724 16.411 12.731 23
246 2 8.35155 12.5339 5.53803 24
247 2 23.011 20.8261 10.7585 24
248 2 1.70764 6.66306 5.56996 21
249 2 4.72339 8.42878 7.68695 24
250 2 3.25537 9.37458 10.7789 23
251 2 11.2888 19.8399 18.2679 22
252 2 4.97574 11.9881 10.8093 21
253 2 11.6904 0.859774 5.33158 24
254 2 28.7753 1.94065 13.8788 23
255 2 2.90574 5.34361 2.71081 24
256 2 9.95529 28.8821 8.01085 22
257 2 19.9274 32.3538 10.292 25
258 2 8.2138 13.984 13.3231 22
259 2 13.2499 3.65664 5.58372 21
260 2 12.5281 5.32782 13.0851 22
261 2 2.70083 26.2581 10.243 20
262 2 17.6258 8.56788 18.5421 22
263 2 6.74103 33.7961 13.5202 22
264 2 32.8029 9.09668 26.4132 24
265 2 14.959 3.02653 8.06807 23
266 2 21.9001 29.39 15.7034 23
267 2 9.99664 9.29013 5.47971 23
268 2 3.32368 17.1523 2.58933 24
269 2 14.6324 8.9567 18.7666 19
270 2 11.5417 17.7162 5.58113 23
271 2 4.61347 13.8724 2.70002 25
272 2 3.05689 10.9126 18.4275 24
273 2 3.78086 9.1269 15.9309 24
274 2 10.1877 3.33127 11.2217 23
275 2 11.4189 18.1025 15.7466 24
276 2 6.26465 11.0445 13.4019 21
277 2 6.3822 17.5114 8.58999 21
278 2 8.29102 17.9494 5.82482 21
279 2 1.58281 20.0158 2.8117 22
280 2 14.5496 14.0824 2.6663 21
281 2 13.0634 11.0398 8.37149 20
282 2 26.2073 14.9713 5.32165 24
283 2 29.6084 17.273 3.20932 22
284 2 3.32094 11.6267 7.87639 21
285 2 4.62307 8.18882 18.2892 23
286 2 9.82525 10.8232 18.2425 24
287 2 18.1347 12.1546 5.29397 22
288 2 4.92765 1.16704 15.8832 23
289 2 9.90386 3.69274 5.8426 21
290 2 18.097 6.12069 10.5098 21
291 2 3.46672 3.52183 5.12591 25
292 2 11.3798 3.07906 3.11238 23
293 2 16.3222 5.80031 18.4535 23
294 2 3.62615 33.7399 18.8239 22
295 2 8.46482 8.63321 2.24286 23
296 2 11.7559 29.2577 5.43433 23
297 2 23.1998 5.11609 18.2487 23
298 2 5.04625 17.8379 21.3891 22
299 2 16.7301 3.70603 5.03942 24
300 2 8.15596 6.33222 20.9583 25
301 2 23.4671 4.02729 5.83997 22
302 2 11.5359 6.32771 5.14461 22
303 2 9.64365 10.9975 2.73567 25
304 2 13.4453 5.43519 2.97945 20
305 2 13.469 34.0879 13.2916 22
306 2 29.8038 16.9305 7.99294 24
307 2 16.4815 32.273 10.9525 21
308 2 9.79328 5.47104 8.70556 20
309 2 1.36056 8.38966 8.00779 23
310 2 16.1149 32.7036 21.3585 21
311 2 2.86456 20.5449 10.581 23
312 2 1.56894 8.25004 13.1748 25
313 2 6.13598 15.0496 5.72727 21
314 2 17.9735 11.9933 15.7521 24
315 2 8.08176 23.5612 15.9429 24
316 2 13.4366 26.7797 10.7498 22
317 2 1.24678 12.1766 10.7485 22
318 2 11.6314 8.56792 3.02951 21
319 2 11.5993 14.2707 7.35885 24
320 2 4.84683 17.9334 5.20428 22
321 2 18.3139 6.48163 15.5294 24
322 2 8.08558 6.71151 26.499 21
323 2 7.91389 20.1727 13.5272 20
324 2 13.2703 11.3526 23.8005 26
325 2 16.7504 5.16899 2.48001 23
326 2 14.588 6.40356 20.9521 26
327 2 16.5162 11.3175 2.50868 26
328 2 19.8673 11.1768 2.81666 23
329 2 14.6606 6.25878 10.6639 24
330 2 14.9332 1.16805 5.49741 23
331 2 7.88575 14.2957 7.96793 22
332 2 16.717 9.44266 5.2127 24
333 2 26.3098 33.5718 13.5427 23
334 2 18.5435 25.5773 8.19924 23
335 2 20.224 28.392 18.6658 22
336 2 6.76986 34.1409 24.0554 20
337 2 23.0715 5.19799 13.5052 22
338 2 8.16861 6.29162 5.82554 19
339 2 18.4407 17.8868 10.6723 21
340 2 25.0484 8.65167 3.14893 23
341 2 12.9036 5.59333 8.24183 23
342 2 19.9113 10.8084 13.8427 21
343 2 19.8246 5.48221 2.82615 24
344 2 13.2788 0.146349 8.10878 23
345 2 11.5741 7.82488 8.03949 22
346 2 19.6196 15.1178 16.157 21
347 2 16.5266 16.6818 8.55988 21
348 2 8.67317 8.45917 23.2429 27
349 2 14.6836 14.2158 18.9977 21
350 2 11.405 13.934 2.92837 22
351 2 13.455 15.2905 5.19776 22
352 2 10.058 16.7997 3.00499 22
353 2 13.0859 8.80215 10.3201 23
354 2 6.0711 22.5187 13.4486 22
355 2 19.1199 16.541 3.11975 20
356 2 29.4767 14.6691 15.8144 25
357 2 11.5602 25.4551 23.5859 24
358 2 5.11445 6.34521 10.5604 26
359 2 6.41534 9.35077 21.0448 23
360 2 4.8044 5.83927 15.3951 22
361 1 29.7298 5.40943 11.2343 23
362 1 -0.04831 14.9743 19.1738 21
363 1 4.82043 0.772856 24.3052 23
364 1 21.1645 2.6786 26.909 23
365 1 29.7578 3.60275 24.005 23
366 1 31.495 8.56318 21.5788 23
367 1 6.50513 32.1496 29.3108 21
368 1 24.7011 12.1231 23.6326 20
369 1 26.1768 9.02028 24.2682 23
370 1 0.0323998 17.1464 27.0763 23
371 1 29.6729 3.55502 29.4831 21
372 1 31.4035 8.42378 31.9715 21
373 1 16.4115 20.8489 13.662 21
374 1 6.17941 8.83115 18.766 22
375 1 0.176138 23.0384 22.0284 24
376 1 6.40062 11.3446 27.2684 25
377 1 -0.0721731 9.27936 29.3709 23
378 1 28.475 31.3987 22.0786 23
379 1 4.9131 8.4492 27.0299 26
380 1 30.0432 3.57563 18.3432 20
381 1 31.135 6.15309 29.7332 25
382 1 0.0217312 16.4642 16.5679 22
383 1 3.5666 14.9401 29.7089 24
384 1 30.0891 16.9662 21.0425 20
385 1 12.7511 16.8724 16.4961 21
386 1 4.5029 23.7202 13.828 22
387 1 -0.175393 11.0675 27.2054 25
388 1 20.0056 26.6156 19.0885 22
389 1 2.02783 29.1141 24.5814 23
390 1 16.6327 8.89441 13.8313 24
391 1 4.78309 11.8859 29.727 24
392 1 9.71398 14.9708 19.0707 19
393 1 23.5397 34.0949 21.6412 20
394 1 33.0993 2.9767 29.2142 22
395 1 7.88674 6.76296 29.6963 24
396 1 4.34996 8.18917 32.8194 24
397 1 10.0048 11.0189 27.3639 24
398 1 8.28214 0.745158 8.56877 23
399 1 3.6844 5.33907 21.2715 21
400 1 -0.258396 11.215 21.5373 23
401 1 1.68771 31.348 21.6681 24
402 1 3.09507 34.0966 16.9935 23
403 1 1.11589 8.24592 27.2193 22
404 1 3.33483 9.12393 29.9 25
405 1 9.84406 5.72356 21.7473 22
406 1 31.5237 6.38489 23.8665 21
407 1 1.73591 0.756243 29.5587 20
408 1 29.7752 5.5894 32.9355 21
409 1 0.228902 15.2384 14.1608 23
410 1 4.66003 12.1995 13.905 24
411 1 -0.138632 5.35419 26.9911 24
412 1 1.5495 14.1378 21.5619 24
413 1 8.52489 14.5794 26.9334 23
414 1 6.26619 28.6226 16.4246 22
415 1 1.60075 0.179294 24.4758 20
416 1 3.04069 5.5365 32.3448 23
417 1 8.405 19.6383 26.8561 21
418 1 9.95925 9.19381 29.4477 23
419 1 15.0044 8.2532 27.0162 21
420 1 3.24454 3.75071 29.6846 25
421 1 1.36261 14.1105 11.1338 23
422 1 6.4105 15.3521 13.9712 24
423 1 4.61438 13.8673 21.8725 22
424 1 6.81312 25.9815 13.9597 22
425 1 7.0577 9.17611 24.605 23
426 1 11.6527 14.1194 27.2321 25
427 1 0.0697829 33.9793 21.8919 24
428 1 6.35222 9.02171 29.9194 26
429 1 13.2169 22.8249 22.0588 21
430 1 0.19064 14.6007 29.6521 24
431 1 20.1019 16.8729 27.1022 24
432 1 1.66213 17.9642 24.0473 23
433 1 11.3728 17.7039 24.5329 21
434 1 6.69618 5.4747 26.8027 24
435 1 24.9268 17.482 13.9882 22
436 1 2.99628 16.8327 26.8633 22
437 1 9.75878 9.31988 19.0582 24
438 1 31.1531 11.4248 19.0509 23
439 1 3.19843 5.52994 26.7426 24
440 1 9.57355 34.0737 27.2147 24
441 1 8.42617 2.52121 27.0803 22
442 1 31.2317 0.715525 24.2131 20
443 1 33.0133 9.46197 24.5205 23
444 1 6.45192 3.5031 29.9105 26
445 1 6.01621 14.8453 19.3908 22
446 1 21.5943 13.9913 21.3394 21
447 1 6.71917 32.2326 24.2528 25
448 1 14.9041 14.0361 27.0621 22
449 1 4.92469 23.5063 19.2705 24
450 1 1.31064 12.2262 24.1513 23
451 1 7.97099 8.70881 27.0776 25
452 1 1.54739 8.42166 11.315 25
453 1 14.9198 17.684 18.9297 21
454 1 7.99285 17.4778 29.3717 23
455 1 11.2224 6.40573 29.6858 24
456 1 4.79981 6.37065 29.5547 24
457 1 8.34337 12.0806 24.5753 24
458 1 6.47917 11.3556 21.7039 25
459 1 11.4649 6.50122 24.4618 25
460 1 13.2217 15.1653 24.5102 23
461 1 31.4638 23.9608 13.5524 22
462 1 17.4937 24.6994 19.8598 18
463 1 9.94265 9.74686 24.3785 24
464 1 16.7305 20.7301 29.6182 22
465 1 6.47135 20.4971 29.531 23
466 1 19.9979 14.7497 24.2306 22
467 1 9.82289 14.9061 24.4725 22
468 1 6.57787 16.9977 32.4528 23
469 1 24.9854 0.416867 8.5261 23
470 1 11.2615 0.513202 24.3621 23
471 1 9.50655 5.47167 26.8733 23
472 1 3.30593 32.0621 14.097 24
473 1 31.925 6.79169 18.7999 22
474 1 15.9738 28.3316 26.4568 20
475 1 6.47643 -0.377558 26.7335 24
476 1 8.2272 0.765648 29.4034 21
477 1 11.0537 31.3399 27.0194 23
478 1 1.44614 14.3101 27.0407 23
479 1 4.88072 0.841399 29.6145 23
480 1 9.99995 3.69315 24.2517 21
481 1 10.1251 9.48737 13.9278 21
482 1 22.9593 10.8451 21.4205 21
483 1 13.1634 11.1897 27.6291 26
484 1 8.14427 0.361976 2.94027 21
485 1 13.4605 22.5783 27.3131 22
486 1 3.03314 3.96886 24.309 21
487 1 14.9509 14.2485 21.5246 20
488 1 21.3614 12.2075 24.0212 20
489 1 1.85782 6.566 13.682 22
490 1 6.81977 3.64542 13.7921 23
491 1 16.5538 11.2456 26.8655 22
492 1 11.3695 12.1297 29.9624 24
493 1 6.56511 22.7583 11.4007 24
494 1 12.6555 15.1425 19.1403 23
495 1 0.207301 3.41678 24.3043 21
496 1 14.8789 23.2475 24.2327 20
497 1 11.2255 17.8515 13.8176 24
498 1 14.5991 12.2248 29.836 24
499 1 28.0395 13.7619 16.4876 23
500 1 11.218 19.8994 27.3023 23
501 1 13.4273 25.8382 23.9975 24
502 1 9.65299 20.8546 29.363 24
503 1 10.0229 15.4626 29.9218 22
504 1 11.5695 8.22741 22.0196 22
505 1 16.8449 28.9934 16.2163 21
506 1 18.1153 8.10564 21.5723 22
507 1 21.1813 23.7704 13.8227 22
508 1 19.7128 3.40982 14.2354 24
509 1 11.6011 8.43698 26.9808 24
510 1 16.0773 9.12148 24.1814 22
511 1 12.9127 -0.500991 27.0005 23
512 1 13.0985 8.79108 29.6026 23
513 1 10.1172 3.48154 29.6618 24
514 1 11.6065 0.494257 29.7124 22
515 1 14.7458 31.2756 21.8183 21
516 1 11.4685 2.2296 27.0886 23
517 1 11.4798 2.37268 21.7049 22
518 1 14.7196 8.51751 11.1763 23
519 1 9.77144 3.27764 18.9896 22
520 1 4.19041 14.0209 27.2298 22
521 1 26.7354 9.20496 18.6331 21
522 1 11.3295 8.11286 16.6019 21
523 1 12.9304 3.43981 19.2805 25
524 1 18.5573 6.27038 30.1946 25
525 1 13.0498 9.49043 19.5968 25
526 1 8.15332 12.0285 29.6336 23
527 1 14.5095 2.9856 27.1846 20
528 1 14.7759 6.1747 29.7551 23
529 1 13.2334 17.0509 6.3364 22
530 1 13.3234 17.1559 22.2245 24
531 1 18.5095 0.942758 24.9711 23
532 1 19.9976 11.1682 26.8285 23
533 1 22.9569 20.7451 19.298 24
534 1 13.031 20.5814 24.5384 23
535 1 11.4329 23.7047 24.5852 22
536 1 21.0273 13.5515 11.7377 25
537 1 6.55053 16.6982 27.1184 24
538 1 25.2427 23.6109 24.1101 21
539 1 14.8511 18.0117 24.8895 23
540 1 19.7555 20.6483 29.4739 22
541 2 11.0165 6.51026 26.3066 21
542 2 -0.0455429 9.23002 16.0236 21
543 2 31.7321 2.32185 18.3662 21
544 2 24.7993 6.19477 21.3463 21
545 2 3.37147 32.1373 21.116 22
546 2 22.9895 8.88258 25.9338 23
547 2 0.224002 32.1668 20.799 24
548 2 26.5316 28.1457 8.24237 20
549 2 3.50268 32.3346 31.7929 21
550 2 -0.165204 3.05931 31.2207 22
551 2 -0.19011 9.31369 20.9663 24
552 2 3.1984 3.82286 31.6887 21
553 2 3.23484 11.1816 28.9292 24
554 2 13.4403 17.1031 13.146 20
555 2 1.59153 17.8173 26.1315 24
556 2 31.0838 23.6636 15.617 21
557 2 1.69649 31.3254 23.5163 26
558 2 31.3521 0.67191 21.3359 24
559 2 11.3914 12.1355 26.9365 24
560 2 32.8605 3.21243 26.3043 19
561 2 1.72928 2.84552 29.0563 23
562 2 4.84513 12.3363 26.6286 22
563 2 28.6552 2.30095 18.0051 23
564 2 2.89894 9.18974 31.805 23
565 2 26.2911 15.2843 26.5954 22
566 2 1.66218 19.5957 29.4214 22
567 2 31.2971 25.9104 13.2002 23
568 2 30.0328 16.8457 18.3181 25
569 2 6.40599 11.086 29.1856 20
570 2 31.6974 19.511 29.0758 23
571 2 26.5272 16.3812 13.7481 23
572 2 31.6318 12.083 26.2706 22
573 2 4.71288 11.9724 31.8163 24
574 2 0.00475461 14.9084 31.7342 24
575 2 4.86166 19.8068 29.1022 23
576 2 31.3039 25.6971 28.7454 23
577 2 3.47635 3.56386 10.5217 24
578 2 6.52131 28.651 24.3198 19
579 2 1.49053 0.407296 31.7138 22
580 2 29.7084 32.0039 10.4553 24
581 2 -0.00587915 34.0761 28.7111 25
582 2 29.9871 34.2712 18.6154 21
583 2 1.84472 2.39254 23.851 21
584 2 1.70747 8.28601 29.078 23
585 2 4.64095 0.893022 31.5638 23
586 2 3.31452 5.5445 28.6982 24
587 2 26.3629 8.99648 26.4078 21
588 2 1.49523 6.19603 31.3553 23
589 2 4.96524 31.4318 23.6616 23
590 2 3.65836 28.332 23.8387 22
591 2 7.75308 6.64733 15.476 22
592 2 11.5872 12.097 15.9431 22
593 2 9.99539 9.45313 26.2423 24
594 2 1.38931 12.3998 26.5592 24
595 2 -0.132198 14.8832 21.2738 22
596 2 31.4664 6.77651 20.5688 24
597 2 4.54207 6.64594 31.6999 23
598 2 1.75931 8.25134 34.357 22
599 2 3.02897 14.8175 31.6624 24
600 2 5.13333 8.30379 28.8675 22
601 2 25.2417 17.9916 20.843 24
602 2 31.642 18.2696 21.2241 23
603 2 1.4229 14.0405 13.0996 25
604 2 9.82387 14.9785 10.5564 23
605 2 16.6269 15.2682 21.4113 22
606 2 30.1013 9.39203 31.1759 24
607 2 6.71647 9.4195 16.3297 20
608 2 3.44124 20.794 26.2044 24
609 2 11.5875 14.125 29.1774 24
610 2 4.99513 17.7333 31.4214 25
611 2 11.1717 17.9892 31.7885 22
612 2 12.869 15.115 31.9119 22
613 2 3.00644 3.59105 21.3671 21
614 2 29.3912 26.4215 10.1362 22
615 2 29.9983 21.1684 26.3752 22
616 2 12.9746 14.91 26.307 24
617 2 12.3561 3.73439 26.2759 22
618 2 18.0125 31.4735 23.484 21
619 2 11.4299 8.14273 29.0356 23
620 2 6.2409 5.74907 23.8033 21
621 2 8.11848 0.983992 31.3996 24
622 2 6.50603 3.60859 31.7028 23
623 2 1.99395 13.7898 28.9607 24
624 2 13.0665 9.31193 21.6348 23
625 2 21.7217 31.5093 13.4466 22
626 2 17.8797 2.64656 18.9545 21
627 2 0.128989 21.3459 20.8949 24
628 2 6.41947 34.131 29.2637 22
629 2 14.8417 20.0272 24.9381 17
630 2 7.69358 8.51423 28.7882 23
631 2 3.33313 9.49506 26.2605 24
632 2 12.929 5.24609 28.8288 24
633 2 8.32479 6.43179 31.4355 25
634 2 0.262085 16.4328 29.3516 22
635 2 9.77444 22.8246 18.4139 22
636 2 6.51026 5.75574 28.9338 23
637 2 6.51044 5.70358 18.1167 22
638 2 9.48316 5.38613 23.9277 20
639 2 31.6099 14.2549 23.9485 20
640 2 6.54795 5.35487 13.0526 26
641 2 16.3231 11.3649 18.456 24
642 2 26.2602 21.5113 16.9731 17
643 2 3.31338 16.9331 28.8233 24
644 2 6.15267 15.0157 26.3714 21
645 2 8.68273 11.642 31.5227 22
646 2 6.25563 14.5582 31.7811 22
647 2 14.6285 12.3868 31.8782 22
648 2 8.29621 13.873 28.6718 24
649 2 11.798 8.79498 13.0721 22
650 2 14.5996 6.93169 16.1311 22
651 2 11.2056 12.1606 20.8759 23
652 2 11.4767 2.53174 23.5971 23
653 2 1.59838 6.74835 26.4144 21
654 2 1.35634 6.36558 20.6884 24
655 2 23.2495 10.7074 18.8527 21
656 2 9.69174 5.40828 29.1227 22
657 2 11.6853 0.672387 31.6929 21
658 2 9.64462 3.53889 31.5538 22
659 2 14.49 8.05577 24.1178 22
660 2 16.6556 9.07639 10.8918 21
661 2 18.1598 7.93849 28.549 21
662 2 12.8313 34.2509 23.7415 23
663 2 10.2533 15.0505 26.2547 22
664 2 31.4282 19.7552 18.426 23
665 2 13.3335 17.124 24.1547 20
666 2 17.7098 8.16411 23.9008 21
667 2 11.4111 17.9931 26.5067 23
668 2 18.3382 11.9624 26.3068 22
669 2 8.12541 2.49737 28.9656 23
670 2 9.90828 9.38528 31.4547 26
671 2 7.81938 17.9248 21.3462 22
672 2 12.9959 10.9777 29.5005 21
673 2 1.56382 8.1643 18.2814 23
674 2 17.6137 5.96891 26.5132 23
675 2 32.7945 21.2408 10.3405 22
676 2 4.60614 13.6517 18.7207 24
677 2 6.59206 3.57479 21.5701 20
678 2 14.3997 12.5358 21.089 23
679 2 9.69374 21.1124 26.281 22
680 2 4.77944 19.7156 18.1814 25
681 2 9.64567 14.654 31.4641 24
682 2 13.1735 20.1382 31.115 22
683 2 18.0986 13.897 28.8718 23
684 2 16.2942 11.2481 24.0801 20
685 2 16.3627 5.10461 23.7707 22
686 2 6.77223 9.67366 26.3194 22
687 2 16.3405 15.0308 26.4563 22
688 2 21.5264 6.56732 15.6366 24
689 2 13.2735 26.1735 31.914 19
690 2 21.4789 13.9153 28.3119 21
691 2 7.83602 2.544 23.5836 21
692 2 6.73671 -0.0715415 18.4175 20
693 2 15.0171 0.426253 31.8673 21
694 2 11.3455 6.40883 31.5497 25
695 2 14.8533 2.51045 29.586 20
696 2 6.62756 9.25802 31.8451 23
697 2 3.20058 32.1087 10.5401 25
698 2 8.44764 8.54812 13.6764 21
699 2 6.78564 3.09444 5.67816 22
700 2 1.56024 18.3757 21.2879 24
701 2 21.6063 2.54012 13.667 22
702 2 21.1866 8.10606 18.7951 24
703 2 24.6395 12.2294 21.1548 22
704 2 5.09499 14.1965 29.4729 23
705 2 14.7708 6.22783 31.4641 24
706 2 13.1456 8.79207 31.6621 22
707 2 8.24468 31.2879 23.1291 25
708 2 9.87837 11.2593 29.1951 22
709 2 24.8417 26.1034 13.1584 19
710 2 8.10311 23.5194 21.5771 22
711 2 6.76739 20.4328 26.5354 20
712 2 13.0523 22.5164 29.3339 21
713 2 14.4096 6.23024 26.9977 22
714 2 31.0673 23.7673 26.5348 23
715 2 11.2828 19.7781 29.225 20
716 2 17.8651 13.9636 18.6229 22
717 2 14.6405 14.0749 29.141 23
718 2 11.4838 12.2518 32.0962 25
719 2 9.47954 22.7175 28.8941 23
720 2 9.87116 22.6223 23.5808 24
721 1 -0.21285 22.4755 0.51867 21
722 1 1.17036 19.9411 0.885666 23
723 1 3.19692 17.0581 6.09738 24
724 1 31.2134 17.96 3.81873 23
725 1 23.3932 31.8099 18.954 21
726 1 31.5806 23.7741 3.4615 20
727 1 3.2078 14.9467 13.9387 25
728 1 24.6016 19.7754 11.3594 23
729 1 26.4302 11.1815 21.5704 23
730 1 6.37022 17.153 10.9995 21
731 1 19.9632 16.7485 16.5189 24
732 1 1.78923 23.6979 8.80374 21
733 1 33.0399 28.7282 0.664917 23
734 1 1.57573 25.4808 0.443563 23
735 1 31.2758 17.9547 8.06443 21
736 1 15.1092 29.4856 13.6235 21
737 1 -0.0596557 26.885 8.74725 23
738 1 29.8517 -0.0865232 16.5823 25
739 1 11.4365 26.4486 11.1779 21
740 1 33.0455 28.5326 5.90577 25
741 1 14.8396 29.5479 19.1708 24
742 1 26.2169 20.6812 8.55024 21
743 1 23.0687 15.1232 18.8158 18
744 1 28.352 23.7095 13.3884 20
745 1 -0.30901 -0.0501132 0.909769 24
746 1 1.67399 30.9971 0.687695 21
747 1 1.62007 29.2401 3.54301 24
748 1 29.9751 32.296 3.46194 23
749 1 3.36312 34.0017 6.42066 24
750 1 31.2111 25.445 6.09236 22
751 1 32.7046 22.6996 11.1177 21
752 1 25.2843 2.8346 5.89095 23
753 1 29.4571 26.683 8.23682 23
754 1 1.16875 19.9132 10.8013 23
755 1 26.7206 5.89927 6.04499 23
756 1 9.78199 28.7903 11.3152 23
757 1 3.17869 22.416 0.99823 23
758 1 4.8087 19.5902 1.15085 24
759 1 32.9767 15.1806 3.22975 22
760 1 3.30081 20.6961 3.67114 21
761 1 4.56735 18.1471 8.61352 22
762 1 6.03992 14.886 3.73811 23
763 1 29.8606 16.8403 16.4502 24
764 1 -0.123927 17.3272 5.8642 22
765 1 1.6333 13.8061 16.1376 22
766 1 16.5965 17.061 22.2566 23
767 1 4.70788 19.848 16.2202 22
768 1 3.31273 22.7297 5.94114 21
769 1 2.99917 28.3022 0.932801 20
770 1 5.307 25.6184 0.766908 21
771 1 4.98778 23.6992 3.42644 21
772 1 1.79454 23.4386 3.58988 22
773 1 9.57275 34.1679 16.3713 22
774 1 -0.0125099 22.3303 6.14019 24
775 1 5.12975 25.4415 6.51754 21
776 1 4.89672 31.2798 5.90491 22
777 1 1.41502 25.5267 5.86752 21
778 1 32.9788 17.0458 11.2441 24
779 1 4.75825 17.9439 19.3016 24
780 1 30.1869 32.3085 13.8648 22
781 1 3.19612 34.3059 1.02507 24
782 1 4.59235 31.6341 0.645928 23
783 1 5.04316 29.5805 3.0393 22
784 1 3.16394 32.2968 3.53284 24
785 1 1.58446 31.1643 5.99436 24
786 1 9.88404 31.9874 3.2647 24
787 1 25.0482 31.0458 11.0232 22
788 1 6.74525 3.13607 3.50706 24
789 1 6.6373 34.3163 11.6348 23
790 1 30.9366 0.937868 13.8723 21
791 1 29.8011 20.7415 19.0067 23
792 1 6.3469 32.2797 8.35789 22
793 1 6.5885 22.7973 0.675599 20
794 1 8.16839 20.01 0.740569 21
795 1 10.0995 20.9155 3.51812 20
796 1 8.37259 18.1595 3.84819 22
797 1 11.6989 14.3417 5.48033 23
798 1 11.2698 11.9269 3.54077 23
799 1 8.36204 23.5983 14.0193 25
800 1 4.73918 12.5003 8.95308 23
801 1 1.54859 17.9322 8.37226 22
802 1 9.61634 14.9125 8.37986 22
803 1 4.70663 20.161 11.2144 24
804 1 6.87145 20.939 8.97244 21
805 1 6.96422 28.8484 0.579814 20
806 1 8.26199 25.8994 1.2572 23
807 1 8.56981 23.8862 3.60597 21
808 1 3.42689 26.6123 3.55111 22
809 1 13.0013 32.4065 8.9579 23
810 1 2.97015 28.2632 5.99209 23
811 1 3.05296 26.7206 8.33713 19
812 1 6.43697 5.16993 0.730621 21
813 1 8.12693 25.719 11.3398 23
814 1 27.8754 19.871 6.37401 26
815 1 4.89297 19.7294 5.95057 25
816 1 9.89868 26.8495 8.69367 23
817 1 6.32527 34.0117 0.777053 25
818 1 8.42316 31.4991 0.321584 21
819 1 8.1574 31.0607 6.3493 21
820 1 8.45475 2.4962 5.88045 22
821 1 4.87155 2.67299 5.93353 21
822 1 1.70977 0.51386 8.56497 22
823 1 7.02472 22.4869 6.0323 21
824 1 6.50566 5.4034 6.41382 25
825 1 1.76384 6.33246 8.39941 24
826 1 6.42868 28.4988 11.3505 24
827 1 8.3359 0.661827 13.3666 21
828 1 3.371 32.0888 8.69098 24
829 1 9.839 23.0343 0.89038 22
830 1 11.368 19.996 0.955334 23
831 1 14.9165 23.731 3.60521 24
832 1 6.50295 21.1169 3.35581 20
833 1 14.7547 19.8804 11.2833 22
834 1 13.5373 20.78 3.74833 21
835 1 3.27244 16.7526 16.6133 23
836 1 31.288 23.7652 9.04302 23
837 1 6.20346 17.2833 16.6392 23
838 1 4.90262 14.2522 11.1985 23
839 1 16.4806 20.8112 18.5442 21
840 1 13.2488 9.4158 13.9594 25
841 1 9.99426 28.7191 1.11587 24
842 1 11.4679 25.7102 0.880975 22
843 1 12.0698 25.8063 6.10079 23
844 1 11.9225 23.6872 3.57141 24
845 1 10.1639 28.4728 5.83075 22
846 1 6.84582 26.7937 3.64973 23
847 1 6.82226 27.056 8.60519 20
848 1 8.24632 23.9436 8.6783 20
849 1 13.5442 -0.0859069 16.529 23
850 1 13.2911 22.9425 11.3349 23
851 1 14.7122 25.842 15.9346 20
852 1 13.2288 3.71316 14.0016 21
853 1 9.72256 34.4105 0.739667 20
854 1 11.4521 31.7408 0.801759 21
855 1 8.34057 29.3394 3.55502 24
856 1 13.4551 32.4273 3.62525 24
857 1 16.6598 32.2965 3.32512 22
858 1 18.4243 31.4474 5.872 23
859 1 4.99851 23.1288 8.57533 20
860 1 9.63769 31.925 13.8965 22
861 1 20.0348 16.5655 10.6693 19
862 1 21.7238 19.6724 16.4669 24
863 1 13.6237 26.5529 18.9155 25
864 1 8.15281 14.4639 11.1619 22
865 1 12.8105 22.9556 0.976638 23
866 1 14.7386 20.0893 0.72264 22
867 1 14.4488 18.1623 3.66858 23
868 1 16.6786 22.9759 6.27186 25
869 1 8.48836 20.002 5.97894 22
870 1 16.0705 16.6692 11.3337 22
871 1 13.0273 11.124 10.8147 20
872 1 9.89462 21.2125 8.97851 23
873 1 2.87189 15.0788 8.47586 22
874 1 13.0549 20.759 13.798 21
875 1 9.65572 20.6004 13.9869 22
876 1 13.236 23.0165 16.1267 20
877 1 13.6913 28.2765 0.987697 22
878 1 14.9667 25.673 0.923074 24
879 1 18.0351 23.5526 3.66121 23
880 1 13.163 26.7719 3.48364 24
881 1 13.3061 -0.143595 6.15446 24
882 1 13.5513 28.5096 6.21429 21
883 1 10.3616 26.4995 3.65253 24
884 1 6.37361 28.6989 6.0506 22
885 1 9.95286 32.6617 8.70056 21
886 1 11.6998 29.9087 8.09089 24
887 1 15.0086 29.4377 24.3857 21
888 1 6.34874 20.7629 24.7007 23
889 1 13.3183 33.9611 1.07245 23
890 1 15.0063 31.1666 1.04358 23
891 1 11.7704 29.5169 3.29666 19
892 1 15.0244 31.6257 6.2957 23
893 1 21.5018 2.49716 11.2654 25
894 1 14.7416 1.25979 3.45943 23
895 1 18.2661 29.509 13.4096 20
896 1 11.3374 23.8231 13.9956 22
897 1 15.0766 24.0104 8.83656 21
898 1 13.3602 5.66355 16.7293 23
899 1 13.6777 22.896 6.34215 22
900 1 16.3693 32.7151 13.8063 22
901 2 8.1938 19.8371 2.9225 22
902 2 4.62083 18.1421 10.5011 24
903 2 6.69985 23.34 2.61411 22
904 2 1.27858 25.4222 3.85603 22
905 2 11.9818 8.25058 18.5299 21
906 2 26.347 20.8929 10.6308 25
907 2 28.0753 19.9913 2.44439 25
908 2 1.45239 19.7797 7.81138 24
909 2 6.51279 22.7011 24.0721 23
910 2 0.076048 16.7475 13.2742 24