ITEM: TIMESTEP
84000
ITEM: NUMBER OF ATOMS
5760
ITEM: BOX BOUNDS pp pp pp
-0.1728618526 32.9728618526
-0.1709459266 34.3109459266
0.3488166939 63.2511833061
ITEM: ATOMS id type x y z Coordination
1 1 0.140318 5.36122 0.974191 23
2 1 1.41554 2.83624 62.9855 19
3 1 2.02331 0.632657 3.17909 22
4 1 0.0692836 9.37819 3.05445 20
5 1 3.33305 11.1695 5.90856 23
6 1 2.88796 9.28064 8.72915 24
7 1 11.4911 0.683238 8.7267 24
8 1 32.3838 33.916 6.52402 21
9 1 4.94343 6.49327 13.6117 21
10 1 3.10638 3.4309 8.30778 23
11 1 6.85711 5.67319 10.8895 20
12 1 31.1961 8.20015 16.4721 24
13 1 32.5981 11.5642 0.693673 22
14 1 1.5365 8.4127 0.539051 21
15 1 2.99161 4.1098 3.03672 24
16 1 30.1257 9.43508 3.57058 21
17 1 27.9616 0.617815 14.1597 24
18 1 1.40383 8.24565 16.1464 21
19 1 32.6459 5.43905 5.28693 21
20 1 26.6707 3.56946 8.84459 23
21 1 31.2772 14.1994 5.984 24
22 1 1.43056 19.759 16.5729 23
23 1 3.37764 9.3647 24.2663 23
24 1 -0.13778 11.0901 16.22 25
25 1 0.111961 17.267 0.877919 23
26 1 1.71421 14.2467 0.512265 22
27 1 29.5577 20.4228 8.61028 21
28 1 27.9485 12.133 8.59803 23
29 1 29.6518 16.6776 11.0412 21
30 1 6.75653 14.5248 8.84491 24
31 1 29.7421 9.22318 8.65035 22
32 1 -0.0692235 15.126 8.65862 25
33 1 28.355 19.8815 11.3333 21
34 1 22.8541 11.299 6.153 24
35 1 7.03728 11.381 11.0064 22
36 1 21.176 25.4543 6.10608 24
37 1 3.18675 5.33884 0.555497 24
38 1 4.86488 2.67176 0.817841 26
39 1 6.79345 31.8522 3.37893 22
40 1 1.52758 2.5833 5.78459 22
41 1 3.21415 5.24363 6.21014 24
42 1 6.62379 0.0249353 5.66897 20
43 1 4.78794 0.939238 13.7258 24
44 1 5.03109 29.3938 8.32407 22
45 1 1.22736 6.09044 3.42181 24
46 1 6.64128 0.0795815 16.1535 23
47 1 9.89962 5.93107 11.2753 25
48 1 1.6229 0.961985 13.7216 24
49 1 3.26847 11.15 0.460517 22
50 1 4.64474 8.32823 0.804794 23
51 1 6.72884 3.8553 8.42623 22
52 1 27.641 6.09306 3.16224 20
53 1 -0.0325781 9.32127 8.30961 20
54 1 8.17259 11.8946 3.30105 23
55 1 3.37667 5.49381 16.5045 23
56 1 31.4588 2.51659 6.3232 22
57 1 30.1542 15.0396 13.6914 21
58 1 31.6297 2.45354 21.6423 21
59 1 8.73598 29.5915 18.979 22
60 1 5.01432 14.0288 16.1487 22
61 1 3.68483 16.9502 1.03647 22
62 1 4.90293 14.3096 0.506267 25
63 1 3.39568 14.8554 3.04091 22
64 1 9.57284 5.22994 6.01553 23
65 1 24.8538 19.8314 5.96231 22
66 1 0.883204 13.8083 5.89336 21
67 1 1.44173 12.3866 8.35874 21
68 1 0.416473 20.8043 3.88335 24
69 1 1.94982 18.1701 3.30553 21
70 1 9.87147 11.3867 6.04192 25
71 1 1.94773 29.9375 18.9587 21
72 1 26.3241 15.2754 18.4107 23
73 1 6.38941 9.31665 3.36274 26
74 1 8.2731 2.60842 0.886003 21
75 1 11.5775 0.265245 3.60612 23
76 1 29.7093 11.1114 11.6553 24
77 1 26.6248 33.9991 16.5157 25
78 1 5.39043 2.73575 11.0303 24
79 1 10.3007 33.8889 6.15248 21
80 1 3.479 8.84743 3.64716 23
81 1 5.07388 2.57929 16.5829 23
82 1 1.8315 0.853528 19.4078 24
83 1 13.4327 3.5349 8.29724 22
84 1 0.0228443 9.11313 18.9555 21
85 1 6.31659 11.3191 0.506338 22
86 1 8.56639 8.0513 0.800138 21
87 1 0.191264 10.8703 11.0169 22
88 1 9.56636 9.28997 3.71993 24
89 1 3.45154 15.2428 18.8786 21
90 1 9.86791 3.09281 2.93399 21
91 1 4.98061 8.74559 6.46196 25
92 1 18.074 8.17048 11.5145 24
93 1 4.95744 18.1279 13.7608 21
94 1 5.01295 0.618718 8.45311 23
95 1 8.17054 6.34312 18.9211 23
96 1 14.885 13.8065 16.6447 23
97 1 6.67056 16.4276 0.542689 21
98 1 8.51652 13.7917 0.792253 22
99 1 13.4311 11.44 5.79781 20
100 1 9.69355 14.6881 3.27665 23
101 1 4.96378 18.0494 3.45685 23
102 1 8.03461 8.34296 5.85368 24
103 1 8.12432 14.0784 6.18449 25
104 1 9.9894 10.9194 21.6917 23
105 1 14.4399 15.6748 6.55449 19
106 1 4.83434 12.286 3.41269 24
107 1 26.3787 11.1633 10.9974 21
108 1 28.2631 17.9872 13.8621 22
109 1 9.60184 5.32781 0.751209 23
110 1 11.5729 2.0417 0.668656 22
111 1 12.9576 3.47033 3.44691 21
112 1 8.1177 6.08997 3.34737 23
113 1 4.8195 6.29895 3.46449 23
114 1 11.9325 2.65504 11.2052 21
115 1 16.5512 34.2368 5.99949 21
116 1 8.23807 18.2678 13.5708 22
117 1 9.92115 11.548 11.7965 24
118 1 14.9166 2.4761 11.0757 23
119 1 18.1384 0.206178 13.5263 21
120 1 6.65883 0.344263 21.6545 22
121 1 9.83062 10.8616 0.995143 24
122 1 11.5799 8.03168 0.466445 20
123 1 12.7725 5.57628 5.97987 22
124 1 6.62469 10.8904 5.72691 23
125 1 16.5838 5.17584 5.81533 23
126 1 9.71072 9.12698 8.53561 22
127 1 16.7147 11.2509 16.7245 24
128 1 4.79821 6.22794 18.9893 23
129 1 8.08847 29.3996 8.86977 25
130 1 15.3049 6.80547 8.31048 22
131 1 9.81784 17.0443 11.241 24
132 1 8.12986 17.9564 8.20301 23
133 1 9.79542 16.6112 1.18871 23
134 1 11.9789 13.9542 0.617382 22
135 1 15.1413 12.4021 3.02866 21
136 1 11.3988 18.0257 3.06227 24
137 1 10.0168 23.207 11.153 22
138 1 21.3207 7.97201 11.4132 24
139 1 26.4067 14.8313 8.69926 22
140 1 11.606 8.38142 11.2301 21
141 1 9.8098 11.1641 15.8674 18
142 1 11.7218 19.5804 16.5686 23
143 1 14.818 19.8125 21.8828 22
144 1 14.9809 18.1666 13.8298 23
145 1 13.3574 4.70566 0.817214 23
146 1 15.1442 2.29637 1.03117 23
147 1 23.1122 5.39671 6.2657 23
148 1 11.4012 6.52573 3.19231 20
149 1 15.2778 6.21012 3.45234 23
150 1 13.2567 10.9514 16.7204 24
151 1 23.1477 34.0241 10.9768 23
152 1 11.7173 2.41057 6.11934 22
153 1 9.95465 26.3403 18.9839 22
154 1 20.1581 26.4285 13.8078 22
155 1 14.9322 23.7668 18.8682 23
156 1 9.84876 3.76528 13.6594 26
157 1 13.3325 11.6405 0.680615 19
158 1 14.7166 7.95237 0.45726 19
159 1 11.1477 8.28748 5.92997 21
160 1 8.05257 6.52875 8.27146 22
161 1 14.6828 6.28562 14.2096 24
162 1 14.855 14.2455 11.498 24
163 1 6.5496 11.0276 16.6064 20
164 1 14.8607 0.696451 8.3967 24
165 1 10.0042 16.7522 5.82555 23
166 1 19.6268 9.18719 8.67474 21
167 1 17.9172 2.3103 11.3768 23
168 1 16.4889 11.0875 11.1008 20
169 1 13.2745 16.9912 0.769931 22
170 1 15.0236 14.1315 0.706662 21
171 1 18.4008 17.8943 13.2828 22
172 1 12.917 15.2232 3.22286 27
173 1 28.0004 8.14354 21.6071 21
174 1 19.9314 9.21062 13.8597 23
175 1 14.843 2.46777 5.69906 22
176 1 4.6166 6.52668 24.0586 21
177 1 14.521 12.499 8.9433 23
178 1 16.3178 15.2167 13.914 22
179 1 16.3902 3.21028 8.28355 22
180 1 25.0312 29.2825 14.0275 24
181 2 7.85729 2.63038 2.81487 23
182 2 8.05384 29.3574 5.11402 24
183 2 2.38401 1.27602 4.85385 19
184 2 1.70881 0.854246 10.2179 23
185 2 27.9423 6.40189 15.674 25
186 2 26.8512 32.0963 10.1311 26
187 2 1.37507 12.4882 63.0219 22
188 2 6.66363 -0.0809123 7.6788 22
189 2 3.01663 14.9555 10.6152 23
190 2 11.6704 12.3692 10.1918 22
191 2 0.494292 14.9126 16.2585 23
192 2 32.8381 4.77627 7.4943 23
193 2 5.09317 0.862655 63.2527 21
194 2 6.56629 9.28378 10.8628 22
195 2 30.0208 10.9742 2.62143 23
196 2 27.9729 6.35837 5.30542 23
197 2 10.0641 9.76998 10.8777 23
198 2 29.8013 5.17034 13.4992 20
199 2 10.1568 3.68193 16.1168 20
200 2 31.3153 12.244 11.3912 23
201 2 14.9524 12.2232 10.8346 21
202 2 29.5 16.7593 23.605 23
203 2 6.62899 11.6445 18.2895 21
204 2 0.246324 32.7295 15.5422 23
205 2 2.81646 6.10975 23.6452 22
206 2 31.1981 12.5067 5.25556 21
207 2 26.6795 10.6653 2.83971 23
208 2 30.9108 14.3805 2.68663 22
209 2 24.8365 23.2665 10.3677 25
210 2 29.955 20.6806 5.82259 23
211 2 8.51242 29.4052 17.0054 21
212 2 29.6511 9.29349 10.6656 23
213 2 26.5547 9.2844 10.8753 22
214 2 23.1683 14.8497 26.0627 22
215 2 27.9851 0.691086 21.0978 25
216 2 31.1395 0.445369 10.4958 22
217 2 18.2181 23.5691 10.5407 24
218 2 6.34442 5.41724 3.00119 24
219 2 3.51331 34.0123 2.64857 20
220 2 3.24726 3.50131 15.9721 22
221 2 3.33443 17.4204 18.1316 21
222 2 27.7282 2.51289 7.95202 21
223 2 6.40582 5.62544 7.93224 24
224 2 12.8525 32.2982 6.2418 20
225 2 16.4035 33.7694 7.94182 22
226 2 11.6214 6.16584 21.4491 24
227 2 8.13913 29.6665 11.0009 21
228 2 6.48507 3.57115 15.6855 24
229 2 1.79146 8.06894 2.60393 23
230 2 22.662 5.0403 8.1013 19
231 2 4.95829 8.1723 2.63756 20
232 2 8.08398 13.6942 2.69509 24
233 2 32.9362 33.9588 8.18128 22
234 2 8.1863 2.83729 12.9707 24
235 2 24.8111 12.0069 5.60635 20
236 2 32.8753 15.1559 4.95723 22
237 2 32.9612 15.1626 26.1049 24
238 2 3.68777 11.5961 2.09327 21
239 2 29.7244 22.3434 8.46251 23
240 2 29.9094 11.5028 18.2086 25
241 2 -0.0802529 9.19792 10.3178 23
242 2 1.52102 14.0014 2.50256 25
243 2 6.31912 16.6726 2.93174 24
244 2 4.83993 12.0974 5.28875 24
245 2 3.45852 16.698 13.1671 24
246 2 8.08932 12.1975 5.2129 24
247 2 23.057 20.522 10.7812 20
248 2 1.234 5.83407 5.35428 22
249 2 4.80418 8.68699 8.37775 23
250 2 3.31044 9.08146 10.5812 22
251 2 11.4908 20.1005 18.3143 21
252 2 5.19468 11.8609 10.5798 23
253 2 11.3457 0.771539 5.61785 23
254 2 28.6085 2.36056 13.3911 25
255 2 3.35675 5.71824 2.36432 24
256 2 9.84496 28.6554 7.98874 23
257 2 20.192 32.1979 10.8382 22
258 2 8.23978 14.4327 13.3921 25
259 2 13.2201 3.60182 5.54589 21
260 2 13.4265 5.27363 13.0364 25
261 2 3.48103 26.8833 10.541 22
262 2 18.0627 7.89192 18.5352 21
263 2 6.13914 33.9255 12.9847 22
264 2 32.8575 8.8655 26.3166 23
265 2 14.8476 2.42976 7.40214 21
266 2 23.2441 32.0828 16.2764 22
267 2 9.73598 9.56939 5.52291 21
268 2 3.38654 17.0226 2.90424 24
269 2 14.7091 8.14144 18.9674 19
270 2 11.2256 17.8935 5.23763 22
271 2 5.02842 13.9918 2.49412 24
272 2 3.50628 11.0109 18.7954 22
273 2 3.17161 9.35116 15.9532 22
274 2 10.2971 3.63685 10.7138 22
275 2 11.7855 17.6898 15.8085 22
276 2 6.78007 11.2547 13.1614 23
277 2 6.84278 16.5828 8.00058 23
278 2 8.40114 17.8395 5.33456 23
279 2 1.71512 19.9238 2.92848 23
280 2 14.555 14.5889 2.65385 21
281 2 12.9943 11.5506 7.87992 20
282 2 26.3521 15.3027 5.77957 22
283 2 29.7215 17.2588 2.87677 22
284 2 3.16183 11.0241 7.8703 24
285 2 5.23435 8.45688 18.1211 23
286 2 10.0698 11.7833 18.6534 22
287 2 18.3075 12.0499 5.3108 25
288 2 4.99426 1.0116 15.6128 23
289 2 10.1406 3.45491 5.07722 21
290 2 18.2201 6.49709 10.8884 23
291 2 3.29338 3.85486 5.04821 24
292 2 11.688 2.14797 2.79994 24
293 2 16.327 5.36123 18.8267 21
294 2 3.30619 -0.0108999 18.4626 22
295 2 8.76054 7.70501 2.54353 23
296 2 11.3414 29.3581 5.62036 21
297 2 23.2208 5.18466 18.6825 22
298 2 4.4257 17.9285 21.1929 22
299 2 16.7992 3.40011 4.92632 25
300 2 8.31905 6.3763 20.9235 24
301 2 23.4898 3.76279 5.59661 22
302 2 11.4107 6.57394 5.23388 23
303 2 9.59527 10.8444 2.89411 22
304 2 13.483 5.08836 2.987 20
305 2 12.9778 -0.0770321 13.9609 20
306 2 29.9254 16.9435 8.03034 25
307 2 16.4104 31.9416 10.6789 22
308 2 9.87293 5.70356 7.85633 23
309 2 1.39428 8.01453 7.85877 23
310 2 16.6813 32.2357 20.7541 23
311 2 3.77442 20.8468 10.8295 21
312 2 1.45166 8.12696 12.9615 24
313 2 6.4727 14.9102 5.50012 24
314 2 18.4294 12.0068 15.7172 23
315 2 8.29805 23.6002 16.2053 22
316 2 13.2331 26.5261 10.8692 22
317 2 1.47514 12.4754 10.3833 23
318 2 11.4388 8.19885 2.53097 22
319 2 11.4724 14.3566 7.81281 24
320 2 5.32049 17.9687 5.73985 22
321 2 17.9399 6.10189 15.895 21
322 2 8.09642 6.18457 26.1619 22
323 2 8.60271 19.9947 12.7865 24
324 2 12.8583 10.8016 23.8739 20
325 2 16.8728 5.4926 2.94728 21
326 2 14.7143 5.9762 21.2523 22
327 2 16.7137 10.8399 2.7258 21
328 2 19.8666 10.9032 2.68239 22
329 2 15.1733 6.34716 10.3799 23
330 2 14.7437 -0.0222991 5.10093 22
331 2 8.38996 13.8929 8.10407 22
332 2 16.4445 8.87809 5.03646 20
333 2 26.3307 34.0364 13.3329 25
334 2 18.2991 25.4855 7.84746 24
335 2 22.1866 29.929 15.5749 20
336 2 6.82636 0.246282 23.635 24
337 2 23.2036 5.58981 13.0933 24
338 2 7.60327 6.67099 5.30704 21
339 2 18.1334 17.7316 10.8936 23
340 2 25.1026 7.89025 2.50596 23
341 2 13.3797 5.75913 7.92142 22
342 2 19.9933 11.1612 13.3271 25
343 2 20.1052 5.36531 2.70332 22
344 2 13.0304 0.304988 7.86596 21
345 2 11.0845 8.09238 7.88189 22
346 2 20.1018 14.7901 16.1211 22
347 2 16.5423 17.2077 7.9806 23
348 2 8.20987 8.44649 24.0964 22
349 2 14.2809 13.7935 18.6136 22
350 2 11.3193 13.9536 2.57854 22
351 2 13.379 15.1093 4.92691 24
352 2 9.95569 16.6985 3.19638 19
353 2 12.807 9.32927 10.3779 23
354 2 6.67901 22.7689 13.9263 19
355 2 19.7094 16.8311 2.43122 21
356 2 30.4218 15.4039 15.6876 22
357 2 11.8736 25.7188 23.7509 22
358 2 4.97994 6.14522 10.6783 23
359 2 6.4332 9.22097 20.8914 24
360 2 5.11735 6.63379 15.5846 22
361 1 29.541 5.55643 11.4032 25
362 1 -0.0361899 14.9048 18.759 20
363 1 5.14641 0.843354 24.3271 25
364 1 21.831 2.1701 27.2512 23
365 1 29.7937 3.25685 24.5785 23
366 1 31.3791 8.12446 21.9607 27
367 1 6.5727 32.0903 29.4474 22
368 1 24.609 12.295 24.7257 22
369 1 26.141 9.36707 24.3432 21
370 1 32.9047 17.0522 26.7626 22
371 1 30.2743 4.04914 29.5046 26
372 1 31.5757 8.47243 31.9623 24
373 1 16.3306 21.2988 13.6963 21
374 1 6.81597 9.42471 18.962 23
375 1 0.0354568 22.8077 21.5525 22
376 1 6.25635 11.1641 26.9615 22
377 1 0.327768 9.36103 29.5082 24
378 1 28.6379 31.3636 21.3525 20
379 1 4.90205 8.29064 26.9581 23
380 1 29.9713 3.86219 19.0967 23
381 1 31.35 6.55916 29.1487 23
382 1 0.227849 16.9358 16.0962 21
383 1 2.68866 15.3883 29.7999 25
384 1 29.5592 16.6938 21.7408 23
385 1 13.3935 16.779 16.5835 21
386 1 4.93687 23.4936 14.0813 23
387 1 32.8531 10.9813 26.9641 20
388 1 19.9493 26.666 18.7813 22
389 1 1.85412 29.4901 24.066 25
390 1 16.3097 9.22172 13.9466 24
391 1 4.24546 12.5363 29.4406 22
392 1 9.76182 15.3766 19.5383 21
393 1 23.1868 33.7876 21.475 23
394 1 0.0968129 3.41608 29.3413 22
395 1 7.99381 6.50217 29.3324 23
396 1 4.65279 8.13813 32.2064 22
397 1 9.72958 11.3829 26.9453 22
398 1 8.04285 0.700545 8.54871 23
399 1 3.2496 5.71674 21.6933 24
400 1 -0.0664948 11.1806 21.3673 22
401 1 1.81029 31.4336 21.7735 24
402 1 3.3108 34.3582 16.3198 23
403 1 1.53254 8.24399 27.0542 24
404 1 3.2019 9.09906 29.5805 24
405 1 9.86296 5.24552 21.4671 20
406 1 31.5307 6.57637 24.6302 21
407 1 1.85407 0.645386 29.5736 23
408 1 29.9692 5.73482 32.0388 24
409 1 0.229835 15.1607 13.7353 25
410 1 5.37163 12.1752 13.916 23
411 1 32.9733 5.24067 26.8153 25
412 1 1.50691 13.9837 21.6802 22
413 1 8.52462 14.1583 27.1455 23
414 1 6.81612 28.3254 16.7497 23
415 1 1.7196 0.558981 24.5934 23
416 1 2.90808 5.36235 31.8087 21
417 1 8.35426 19.7984 27.0142 23
418 1 9.6182 9.40739 29.5997 24
419 1 15.0472 8.17501 27.1371 22
420 1 3.34808 3.57191 29.5481 24
421 1 1.27592 14.2727 11.1674 24
422 1 6.41521 15.1161 13.8269 24
423 1 4.90658 13.88 21.8147 25
424 1 6.77954 26.7901 13.458 20
425 1 6.56651 9.37934 24.1588 20
426 1 11.7189 14.2788 26.5149 22
427 1 0.0936278 34.2194 22.1138 25
428 1 6.28469 9.16135 29.7373 24
429 1 13.6195 22.6652 22.0219 23
430 1 32.9406 14.7772 29.4258 23
431 1 19.6706 16.874 26.8749 24
432 1 1.2881 17.7081 24.3222 21
433 1 11.2751 17.6155 24.5627 24
434 1 6.26378 5.59327 26.7379 23
435 1 24.6612 17.7078 14.1689 24
436 1 3.28585 16.757 27.0718 22
437 1 10.1902 9.09077 18.9489 21
438 1 31.7671 12.1374 18.3054 21
439 1 3.04539 5.35291 26.7068 25
440 1 10.0423 -0.00722508 27.0904 23
441 1 8.08957 2.53165 26.792 24
442 1 31.5393 0.534082 24.6599 24
443 1 0.0602396 9.35344 24.5331 23
444 1 6.48323 3.95147 29.6617 22
445 1 6.99405 15.3654 19.3117 21
446 1 20.9528 13.5669 21.6209 21
447 1 6.50162 32.7136 24.2027 23
448 1 14.7344 13.9759 26.8452 24
449 1 5.12047 23.8697 19.0799 23
450 1 1.47548 12.0823 24.0642 20
451 1 8.33028 8.15528 26.718 20
452 1 1.72697 8.11064 11.0142 23
453 1 15.1416 18.0498 19.4934 20
454 1 8.23182 18.1395 29.434 21
455 1 11.5486 6.57869 29.2599 22
456 1 4.45674 6.19953 29.3472 22
457 1 8.09116 12.0291 24.4798 24
458 1 6.67256 10.8907 21.9917 22
459 1 11.7309 6.64233 24.6223 23
460 1 12.8291 15.0637 24.1533 23
461 1 31.2008 23.5987 13.8647 24
462 1 16.7492 26.3205 18.7529 22
463 1 9.91129 9.06952 24.4545 24
464 1 16.6509 21.0235 29.2876 22
465 1 6.62414 21.0539 28.9367 21
466 1 19.743 14.8991 24.3519 22
467 1 9.63483 14.8084 24.2509 22
468 1 6.16316 16.7758 32.0744 24
469 1 25.0629 0.571728 8.57799 24
470 1 11.4371 0.367188 24.0389 22
471 1 9.81013 5.62257 26.8031 21
472 1 3.3455 32.1179 13.9014 23
473 1 31.0819 6.71906 19.0336 24
474 1 16.488 28.5275 27.1693 25
475 1 6.92671 33.9907 26.9104 21
476 1 8.21287 1.03461 29.4808 22
477 1 11.4374 31.8317 26.9121 23
478 1 0.969287 13.6697 27.1132 24
479 1 5.0043 0.826492 29.481 24
480 1 10.2308 3.5674 24.0141 20
481 1 10.1942 9.51439 13.9524 25
482 1 23.3755 11.149 21.7948 24
483 1 13.2261 11.468 27.2965 22
484 1 8.43165 0.240965 3.3976 22
485 1 12.9286 23.0573 27.0112 24
486 1 3.13449 3.50178 24.1627 23
487 1 14.4907 14.0975 21.6543 23
488 1 21.1961 11.8554 24.0529 21
489 1 1.31218 6.6443 14.1405 22
490 1 6.59822 3.95667 13.3779 23
491 1 16.4085 11.477 26.3996 19
492 1 11.4889 12.0511 29.8305 25
493 1 7.00741 22.8896 10.6863 23
494 1 13.2291 15.3619 19.1508 19
495 1 32.8318 3.88884 24.3814 22
496 1 15.1844 24.0341 24.614 23
497 1 12.1478 18.0961 13.736 24
498 1 14.8456 11.9592 29.7907 23
499 1 28.3407 14.0247 16.0031 20
500 1 11.4221 20.0926 26.5163 20
501 1 13.4604 26.5822 24.554 25
502 1 10.0438 20.7893 29.3701 21
503 1 10.0771 14.9604 29.4042 22
504 1 11.6478 7.94727 21.6371 22
505 1 18.1504 28.0921 16.6576 19
506 1 18.1358 7.95936 22.1011 24
507 1 21.495 23.2787 13.8126 23
508 1 19.9718 3.35068 13.384 20
509 1 11.7098 8.50783 27.3861 23
510 1 16.5976 9.2111 24.5343 24
511 1 13.5589 0.161379 26.7016 23
512 1 13.5695 9.43999 29.9197 23
513 1 9.81554 3.82905 29.5517 22
514 1 11.4438 0.806517 29.7421 24
515 1 15.0258 31.1202 21.0341 21
516 1 11.1917 2.3856 27.0572 20
517 1 11.6826 2.52659 21.8872 24
518 1 14.8578 8.0734 11.4588 25
519 1 9.44234 3.30964 18.9479 23
520 1 4.77627 14.3248 26.7169 20
521 1 26.1764 9.22869 18.8209 21
522 1 11.6917 8.09876 16.1586 22
523 1 13.0059 3.63718 19.3841 23
524 1 18.3293 6.2295 29.6803 23
525 1 12.9469 9.15983 19.2802 23
526 1 7.90998 11.7882 29.3186 22
527 1 15.2248 2.39382 26.9068 20
528 1 15.0869 6.35983 29.3089 19
529 1 12.9322 17.5234 5.86159 22
530 1 12.9077 17.1377 21.5925 20
531 1 18.5752 0.572669 24.0696 23
532 1 19.6438 11.0758 26.9067 25
533 1 23.3847 20.4909 19.0079 23
534 1 13.5642 20.7783 24.6954 22
535 1 11.482 23.5518 24.1506 24
536 1 21.6904 13.3416 11.6863 21
537 1 6.40537 16.9374 27.0621 23
538 1 25.0295 23.3202 24.1917 25
539 1 14.5915 18.0055 24.3681 23
540 1 19.7211 20.577 29.2734 24
541 2 11.6054 6.72373 26.777 20
542 2 32.9439 9.29412 15.3541 24
543 2 31.5232 2.94272 18.7516 21
544 2 24.7455 6.28117 21.753 21
545 2 3.42822 32.5858 20.9591 24
546 2 22.9802 8.99585 26.5079 23
547 2 0.202319 32.2385 20.9907 24
548 2 27.1382 28.7609 7.99738 23
549 2 3.09643 32.2214 31.9257 21
550 2 0.16063 3.5529 31.116 22
551 2 -0.164893 9.24691 20.8036 24
552 2 3.4563 3.64153 31.3237 25
553 2 3.0354 11.0869 28.7931 24
554 2 13.6984 17.1781 13.0405 22
555 2 1.54531 17.8591 26.2833 24
556 2 31.4184 23.6441 16.2132 27
557 2 1.50924 31.4646 23.6498 23
558 2 31.1971 0.58848 20.8651 22
559 2 11.5064 12.1437 26.2687 26
560 2 32.8144 3.54356 26.4858 24
561 2 1.75045 2.68581 28.8777 22
562 2 4.39353 12.3377 26.6821 21
563 2 28.0126 2.67851 19.0519 22
564 2 2.82661 9.00153 31.3701 23
565 2 26.507 14.8442 25.9403 22
566 2 0.90654 20.1155 28.466 23
567 2 31.3423 25.3508 13.3556 23
568 2 29.5995 17.0687 18.4498 19
569 2 6.07183 11.2498 29.63 19
570 2 31.5231 19.92 29.25 21
571 2 26.3922 16.9379 13.4612 22
572 2 31.6706 12.4874 27.0094 21
573 2 4.274 12.4709 31.3581 22
574 2 32.9479 15.2488 31.9334 22
575 2 4.43682 20.0654 29.2472 22
576 2 31.6428 26.0281 28.1751 23
577 2 3.60334 3.63519 10.4694 23
578 2 6.45176 28.7401 23.7241 21
579 2 1.71411 0.654174 31.6835 25
580 2 29.9778 31.6389 10.6915 24
581 2 -0.0347729 33.8734 28.8096 22
582 2 29.9563 0.027842 18.2305 24
583 2 1.71999 2.39212 24.0016 21
584 2 1.69118 8.02684 28.9304 23
585 2 4.93778 0.565549 31.3324 25
586 2 2.68594 5.52368 28.4551 24
587 2 26.47 9.06071 26.1787 21
588 2 1.25719 6.35886 31.4049 26
589 2 4.84098 31.592 23.6707 23
590 2 3.51688 28.4365 24.0694 21
591 2 8.46116 6.37352 15.6988 24
592 2 11.6489 12.2259 15.701 23
593 2 9.85607 8.9882 26.4363 21
594 2 1.09886 11.9674 26.0918 24
595 2 32.992 14.9089 20.6589 22
596 2 31.1519 6.48806 21.013 23
597 2 4.56642 6.23309 31.5411 24
598 2 1.45349 7.9825 34.532 22
599 2 2.91441 15.2838 31.7114 24
600 2 4.91101 7.93371 29.1884 19
601 2 24.9144 17.769 21.263 25
602 2 31.3987 17.184 21.3803 19
603 2 1.93462 14.2458 13.1264 21
604 2 9.86878 15.1624 10.6465 23
605 2 16.5258 14.6206 21.5036 21
606 2 29.4959 9.33974 31.7284 20
607 2 6.42277 9.29019 15.5834 22
608 2 2.96152 21.2649 26.0809 23
609 2 11.4591 13.8078 28.771 23
610 2 4.71274 17.9069 31.4188 21
611 2 11.1862 18.0599 31.0171 24
612 2 12.8769 15.1372 31.2724 25
613 2 3.12685 3.50199 21.4302 21
614 2 29.7472 26.6555 10.9476 21
615 2 29.3613 20.7749 26.4004 22
616 2 13.2259 15.4059 26.0603 23
617 2 13.5484 3.0888 26.3886 21
618 2 18.0231 31.5129 23.9193 22
619 2 11.4463 8.52768 29.3625 18
620 2 6.20977 5.6835 23.2899 24
621 2 8.05111 0.745361 31.607 22
622 2 6.55763 3.52304 31.4989 24
623 2 1.45393 14.1652 28.9913 23
624 2 13.1145 9.16198 21.1295 24
625 2 21.8009 31.1736 13.4712 20
626 2 18.3815 2.14914 18.1107 24
627 2 -0.0968726 20.9067 21.05 22
628 2 6.49942 34.1834 29.0059 23
629 2 14.9002 19.7448 23.836 23
630 2 7.91645 8.53378 29.2163 21
631 2 3.31072 9.17106 26.7385 21
632 2 13.2978 5.69443 28.8506 22
633 2 8.2701 6.43686 31.3589 23
634 2 32.8387 16.6059 29.2355 22
635 2 10.1092 22.6402 18.886 20
636 2 6.23526 5.53719 28.6528 24
637 2 6.55239 5.72417 17.9445 25
638 2 9.78868 5.59866 23.6049 25
639 2 30.9508 14.0357 23.7358 23
640 2 6.6666 5.67882 12.8958 25
641 2 16.2333 11.2606 18.5848 22
642 2 26.2717 20.2601 15.836 23
643 2 2.85736 17.4786 28.867 21
644 2 6.68886 14.8558 26.5034 25
645 2 7.95417 11.8581 31.3288 24
646 2 6.22798 15.0552 31.5001 22
647 2 14.5417 12.0037 31.6008 20
648 2 8.26142 14.1179 29.0678 21
649 2 11.3991 8.55326 13.1212 24
650 2 14.597 6.69143 16.0682 24
651 2 11.7523 12.0579 21.3986 21
652 2 11.5538 2.34084 24.1306 22
653 2 1.23247 6.13475 25.9215 23
654 2 1.4314 6.56126 20.8397 24
655 2 22.904 10.9926 18.1249 22
656 2 9.85281 5.77375 28.8288 22
657 2 11.4981 0.805895 32.1927 20
658 2 9.82099 3.46857 31.6331 23
659 2 14.4045 8.07046 23.5718 23
660 2 16.3098 9.16533 11.2998 20
661 2 18.1346 8.09136 28.8655 24
662 2 13.3336 0.0802419 23.7401 22
663 2 9.95595 14.8674 26.1354 22
664 2 31.016 19.5073 18.3717 22
665 2 12.9971 16.9294 23.6551 23
666 2 18.2982 8.29644 24.0895 23
667 2 11.6393 18.0082 26.5627 24
668 2 17.9752 12.4889 25.784 25
669 2 7.97252 3.13713 28.8526 23
670 2 9.23265 9.28012 31.6014 22
671 2 7.97214 17.9849 21.236 23
672 2 13.1066 11.1727 29.1153 22
673 2 1.92001 8.3012 17.9681 24
674 2 18.1182 6.23552 26.3503 25
675 2 0.106137 20.6153 10.8519 21
676 2 5.0733 14.2156 18.5534 22
677 2 6.83335 4.30108 20.7512 22
678 2 14.6167 12.306 21.373 21
679 2 9.71006 20.6705 26.2151 23
680 2 5.16447 19.8586 18.5375 22
681 2 9.63829 15.056 31.4009 24
682 2 13.1543 20.6436 31.2227 21
683 2 18.3222 13.925 28.8636 23
684 2 16.0642 10.7643 23.4027 20
685 2 16.4148 5.75531 23.9748 21
686 2 6.68959 9.11335 26.6261 23
687 2 16.2339 15.0539 26.6509 21
688 2 21.7317 6.34008 15.6666 23
689 2 13.1028 26.3585 31.3033 23
690 2 21.5535 14.2127 28.3074 23
691 2 8.19098 2.88273 23.3529 23
692 2 6.65052 34.2397 18.0411 24
693 2 14.8088 0.648733 31.3331 23
694 2 11.3415 6.47324 31.4323 21
695 2 14.6219 2.53728 29.1573 21
696 2 5.77073 9.42381 31.5343 21
697 2 3.07588 32.5105 10.4006 23
698 2 8.42919 8.569 13.6675 21
699 2 6.53073 3.54092 5.44247 22
700 2 1.41653 17.9704 21.0342 22
701 2 21.9486 2.16957 13.3927 21
702 2 21.448 8.50601 18.2746 22
703 2 24.8284 11.8096 21.008 24
704 2 4.77282 14.2617 28.821 22
705 2 14.753 6.88204 31.3514 21
706 2 12.9661 9.27482 31.8874 20
707 2 7.92671 31.5201 23.6126 21
708 2 10.0557 11.2314 28.9661 20
709 2 24.6157 25.1718 13.1813 21
710 2 8.40243 23.888 21.1618 23
711 2 6.69907 20.7435 26.6669 21
712 2 12.6595 22.9463 29.2585 20
713 2 15.0443 6.31181 26.3788 25
714 2 31.6427 23.4125 26.2116 22
715 2 11.4628 19.6941 28.662 24
716 2 17.8828 13.7468 18.7829 21
717 2 14.6296 13.9606 29.285 20
718 2 11.0543 12.1178 31.7054 24
719 2 9.53835 22.6363 28.7616 24
720 2 9.81921 22.8269 23.5618 22
721 1 0.186299 22.3414 0.757009 22
722 1 1.93784 19.5357 0.881036 23
723 1 3.1833 16.6303 5.53403 23
724 1 31.4964 17.826 3.70871 25
725 1 23.275 32.0138 18.7912 21
726 1 31.9435 23.8186 3.89672 24
727 1 3.44359 14.9373 13.8093 24
728 1 24.9019 19.4668 11.2574 25
729 1 26.5202 10.9076 21.5226 23
730 1 6.83023 16.9858 11.2037 23
731 1 19.6275 17.1498 16.4717 21
732 1 1.7257 23.5073 8.84362 23
733 1 0.0796125 28.5455 0.783757 23
734 1 1.94426 25.4794 0.516077 22
735 1 31.8798 17.4878 8.64985 21
736 1 15.0159 29.1327 13.9254 23
737 1 -0.0224144 26.3594 8.60119 22
738 1 29.9248 0.175177 16.2181 22
739 1 11.5462 25.5321 10.5045 18
740 1 -0.047604 27.9701 5.55181 23
741 1 14.762 29.0353 17.982 20
742 1 26.6834 20.4453 8.7113 23
743 1 23.442 14.9084 19.4244 23
744 1 28.3034 23.2433 14.3538 25
745 1 32.8428 33.9762 1.04217 21
746 1 1.53594 31.0975 0.437577 20
747 1 1.74179 29.1481 3.68306 23
748 1 30.0494 32.1131 3.38504 24
749 1 3.05528 34.0062 5.50683 21
750 1 31.8284 25.278 6.18556 23
751 1 32.913 22.5334 11.402 24
752 1 24.8487 2.20628 6.4319 24
753 1 29.8959 26.6563 8.74834 23
754 1 2.24038 19.8439 11.0999 21
755 1 26.4308 5.54063 6.1289 23
756 1 9.85278 28.5463 11.5768 23
757 1 3.55597 22.9246 1.02187 22
758 1 5.10992 19.508 0.949601 23
759 1 -0.0142196 15.2658 2.96219 22
760 1 3.45124 20.7405 3.55827 23
761 1 5.01016 17.2244 8.31844 21
762 1 6.48481 14.6533 3.61385 22
763 1 30.0015 17.1482 16.5093 21
764 1 0.0173444 16.71 5.93078 24
765 1 2.14334 13.914 16.513 20
766 1 16.5386 16.4985 22.0282 24
767 1 4.63909 19.7569 16.8296 24
768 1 3.16881 22.5407 5.61629 22
769 1 3.23864 28.1994 0.629823 24
770 1 5.511 25.7895 0.725517 22
771 1 5.23542 23.7843 3.41795 24
772 1 1.52599 23.2175 3.3642 22
773 1 9.41324 34.2041 16.3103 22
774 1 32.9006 22.4036 6.39918 25
775 1 4.83768 25.3751 6.12772 24
776 1 4.86195 31.3312 5.67306 22
777 1 1.42611 25.2386 6.15414 24
778 1 0.664791 16.8025 11.1451 21
779 1 4.73701 18.2125 19.2592 23
780 1 29.8543 32.2359 13.8271 24
781 1 3.36038 34.0442 0.819103 24
782 1 4.80072 31.2635 0.634615 23
783 1 4.45763 29.414 3.20106 20
784 1 3.44376 32.0003 3.30904 24
785 1 1.42997 31.2095 5.9798 24
786 1 9.79265 32.133 3.34452 23
787 1 24.9333 31.3301 10.9876 22
788 1 6.28806 3.3436 3.51194 23
789 1 6.79273 34.093 11.0374 20
790 1 31.7218 0.926898 13.8205 23
791 1 29.5752 20.3475 19.1591 22
792 1 6.32491 32.3161 8.4041 22
793 1 6.8021 22.4263 0.96139 24
794 1 8.19215 19.49 1.08758 22
795 1 10.0769 20.8776 3.0376 21
796 1 8.26196 17.7074 3.39325 21
797 1 11.8713 14.0908 6.06177 22
798 1 11.7101 12.099 3.21081 24
799 1 8.3808 23.9613 13.9218 22
800 1 4.91586 11.7317 8.4203 21
801 1 1.95761 18.0079 8.34885 23
802 1 9.64413 14.9831 8.57409 22
803 1 5.27487 19.6594 10.7695 21
804 1 6.51434 20.8866 8.72304 23
805 1 6.30036 28.816 0.38925 22
806 1 8.32469 25.7144 63.2164 23
807 1 8.60235 23.8156 3.3641 21
808 1 3.06648 26.2564 3.466 25
809 1 13.0498 32.2244 8.58538 24
810 1 3.57303 28.575 5.95412 22
811 1 3.24927 26.6815 8.4531 22
812 1 6.32163 5.65889 0.73791 24
813 1 8.27248 25.341 11.1339 21
814 1 28.1291 19.6894 6.03204 24
815 1 5.25651 19.6737 6.15893 24
816 1 9.65825 26.6365 8.7888 21
817 1 6.64746 34.206 0.711877 22
818 1 8.11527 31.1985 0.566119 23
819 1 8.13768 31.1836 6.07024 23
820 1 8.01186 2.74051 6.08564 22
821 1 4.86003 2.45171 5.13605 22
822 1 1.82674 0.845454 8.39616 22
823 1 6.71825 22.8432 5.7845 21
824 1 6.148 5.55393 6.04541 22
825 1 1.29098 6.11148 8.19705 22
826 1 6.38839 28.451 11.1901 24
827 1 7.78561 1.05281 13.5285 24
828 1 3.48841 32.2051 8.44644 23
829 1 9.96362 22.7256 0.311934 20
830 1 11.4353 19.4372 0.480023 21
831 1 15.0122 23.3969 3.03267 21
832 1 6.50096 20.9612 3.49551 24
833 1 14.6709 19.9078 11.4849 25
834 1 13.3146 20.7292 3.15846 20
835 1 3.07103 16.7565 16.1905 20
836 1 31.2702 23.6953 8.87053 23
837 1 6.74423 16.9384 16.8001 24
838 1 4.71554 13.6593 10.9711 24
839 1 16.8183 20.2847 19.2844 23
840 1 13.2397 9.15395 13.8722 23
841 1 9.49027 28.4425 0.560951 23
842 1 11.3759 25.1819 0.551624 22
843 1 11.8581 25.5102 6.17948 23
844 1 11.7131 23.7223 3.32061 24
845 1 9.60276 28.3278 5.98905 24
846 1 6.8022 26.6373 2.87933 23
847 1 6.64526 26.6984 8.12946 21
848 1 8.32126 23.782 8.27182 23
849 1 12.5515 34.1995 15.9324 21
850 1 13.4463 22.8152 11.3545 25
851 1 14.8817 26.2537 16.3511 21
852 1 13.2894 3.357 13.5578 22
853 1 10.054 33.9781 0.838005 23
854 1 11.3599 31.197 0.909322 24
855 1 7.96777 29.3698 2.97069 22
856 1 12.9651 32.2012 3.44514 22
857 1 16.5677 32.795 3.54705 23
858 1 18.0848 31.194 5.58011 22
859 1 4.90307 23.6521 8.3592 22
860 1 9.80632 32.3294 13.9026 24
861 1 19.9881 17.0168 11.3006 20
862 1 21.9486 19.436 16.3734 24
863 1 13.2461 26.6519 19.0356 22
864 1 8.43678 14.3466 11.5368 23
865 1 13.4749 22.4868 0.755139 24
866 1 15.329 19.6862 0.425701 19
867 1 15.0682 18.068 3.24798 23
868 1 16.6346 22.8867 5.82983 23
869 1 8.29188 19.5799 6.05427 24
870 1 14.9964 17.8318 8.76511 24
871 1 13.149 11.0405 11.2693 23
872 1 9.98618 21.0393 8.50911 24
873 1 3.09548 14.9104 8.66198 24
874 1 13.1264 21.2045 13.9623 22
875 1 9.61722 20.9854 13.873 23
876 1 12.8237 22.7755 16.3631 19
877 1 13.2452 27.9064 0.59906 22
878 1 14.8464 25.3351 63.2282 23
879 1 18.5307 23.4515 3.14563 22
880 1 13.268 26.5868 3.19602 23
881 1 12.9406 34.2731 6.06068 23
882 1 13.1953 28.2561 6.05816 22
883 1 9.86849 26.342 3.25829 21
884 1 6.40565 28.2403 5.84615 23
885 1 9.57067 32.3181 8.63412 22
886 1 11.1142 29.6647 9.01352 21
887 1 14.9987 29.385 23.9367 22
888 1 6.6154 21.0583 24.6782 23
889 1 13.4553 34.0453 0.749588 24
890 1 15.0259 30.8755 0.926813 22
891 1 11.549 29.0539 3.56214 23
892 1 15.1163 31.3026 6.32487 22
893 1 21.434 2.14389 11.5417 22
894 1 14.5822 0.905011 3.25982 22
895 1 18.6245 29.5043 13.5519 20
896 1 11.5523 23.9564 13.6222 21
897 1 14.9501 23.914 8.39449 23
898 1 13.0958 5.0525 16.5361 24
899 1 13.4121 22.4026 5.9281 23
900 1 16.7966 32.2281 13.4206 22
901 2 7.92982 19.6416 3.28838 23
902 2 5.31808 17.4517 10.1187 22
903 2 6.92094 22.8618 2.8878 22
904 2 1.78139 25.2656 2.53016 23
905 2 11.6953 7.93741 18.2075 24
906 2 26.3938 20.6077 10.7326 24
907 2 28.1386 19.8768 3.10466 24
908 2 1.79789 19.9409 8.36995 21
909 2 6.51746 23.0797 24.1908 21
910 2 0.191595 16.9156 13.086 21