ITEM: TIMESTEP
8000
ITEM: NUMBER OF ATOMS
1500
ITEM: BOX BOUNDS pp pp pp
-30.0 30.0
-30.0 30.0
-30.0 30.0
ITEM: ATOMS id type x y z Coordination
1 1 -7.11229 -9.96746 -9.79654 17
2 1 4.19005 -17.5084 2.9992 10
3 1 -13.9211 4.17841 -3.851 13
4 1 -13.5712 -0.837013 -7.36344 17
5 1 2.65977 -8.53765 7.1391 22
6 1 -11.4786 1.42931 -8.8424 19
7 1 -5.85826 -3.96503 -7.37015 22
8 1 -7.25707 -14.7812 2.97796 15
9 1 -14.1845 -8.18296 7.47046 8
10 1 -0.0613275 -0.877265 14.2349 15
11 1 4.48527 -1.8599 7.09228 14
12 1 -2.13975 1.15878 9.26815 19
13 1 4.42488 -2.80328 3.55195 20
14 1 -2.88271 5.00406 -8.05952 20
15 1 -1.0247 -2.15072 11.1246 14
16 1 10.5721 4.7344 9.36917 14
17 1 -0.264347 9.05917 -11.4637 12
18 1 -0.516931 2.53422 -13.6493 14
19 1 -9.96724 1.50895 5.63652 20
20 1 -5.09764 -4.71883 -10.901 18
21 1 5.7576 -14.1391 5.55636 17
22 1 2.13055 -3.02715 8.027 18
23 1 8.20564 -17.8543 1.71259 7
24 1 -8.78657 -13.9369 -2.55129 16
25 1 2.29252 -4.12811 -5.6551 19
26 1 -1.82741 -10.5506 -12.7134 10
27 1 0.753954 6.96004 9.35342 22
28 1 -4.53505 -14.9117 7.4624 13
29 1 3.68391 -7.51248 10.7495 15
30 1 -13.703 -2.15132 3.68394 19
31 1 -9.30287 -0.875308 -10.2317 18
32 1 -8.80798 8.12655 -3.59894 19
33 1 0.608101 1.64302 -7.93388 20
34 1 -0.987114 -7.6402 -9.42431 18
35 1 -4.74925 -4.10486 11.3195 17
36 1 -12.4403 3.1568 1.08477 20
37 1 0.272311 11.9327 7.03593 14
38 1 -15.0373 4.42287 -8.33854 12
39 1 -6.17456 12.9833 -1.86129 10
40 1 2.05121 -9.20543 1.19622 19
41 1 4.8489 -6.46974 -9.04935 19
42 1 -11.0532 5.65507 8.95792 15
43 1 -15.1256 -5.63453 -9.64005 11
44 1 6.4594 3.16322 5.41206 21
45 1 -11.3284 10.2739 -4.19664 11
46 1 -10.5779 -9.17576 8.58559 9
47 1 -16.3091 2.2974 -5.7412 12
48 1 0.394383 4.3452 -6.20455 19
49 1 3.68114 2.1008 3.30122 22
50 1 0.955404 2.70197 8.3825 24
51 1 5.21013 -18.1588 -0.130424 10
52 1 5.04707 5.86162 12.7858 15
53 1 11.8689 -1.57052 -10.8415 10
54 1 5.51377 -13.8569 2.24448 18
55 1 -8.51225 -3.40349 3.05983 21
56 1 3.93164 -4.34368 9.82128 15
57 1 -7.42398 -13.9506 9.00719 9
58 1 -11.2324 -2.32871 1.10154 18
59 1 13.8311 0.828056 6.38328 9
60 1 9.90174 -5.75096 -5.74862 19
61 1 3.25733 7.41309 7.546 19
62 1 1.57364 0.427912 10.7215 22
63 1 -10.4281 -5.70389 0.216804 20
64 1 -7.05633 -12.5002 -8.58668 13
65 1 -10.7801 9.00813 -1.23756 13
66 1 -2.83286 1.9373 -9.17149 21
67 1 4.95611 -2.06998 -5.07799 22
68 1 6.13455 -1.16391 -8.05649 20
69 1 7.65119 -9.05593 2.34749 22
70 1 5.05115 -13.1998 8.40752 15
71 1 -4.51554 10.6891 -6.85349 18
72 1 -8.14674 4.41789 5.77603 19
73 1 -7.52146 8.38211 -0.177321 17
74 1 -5.79931 -6.22027 6.4623 18
75 1 11.5247 -11.2042 -6.86863 10
76 1 -15.5053 3.71576 4.77035 13
77 1 8.54059 -6.64257 -8.70139 20
78 1 -1.57457 -2.82557 -14.1079 19
79 1 -7.28398 -3.61224 -13.1278 15
80 1 -0.778244 8.49926 3.14138 20
81 1 -12.055 4.26145 -9.56057 15
82 1 -2.60278 10.6931 -9.79296 9
83 1 -2.5192 5.76346 1.61939 18
84 1 -2.31102 -10.42 9.42763 18
85 1 -3.42311 -5.90675 -8.35544 21
86 1 3.37391 -5.53403 -11.7116 16
87 1 -0.551609 3.97057 10.0443 20
88 1 -13.4671 -11.3323 -2.67021 18
89 1 12.2701 -9.2049 1.66723 10
90 1 -10.6226 -11.5626 -2.10134 22
91 1 10.4521 -15.0462 0.579479 8
92 1 -7.65168 3.53116 0.325668 18
93 1 2.69689 2.59241 -14.2229 14
94 1 2.87704 3.23552 -5.89262 19
95 1 9.10539 -12.9993 -1.06747 15
96 1 8.1938 -15.1177 3.92522 12
97 1 -15.5421 -10.0536 1.73591 12
98 1 -14.6669 -5.49718 3.38601 15
99 1 8.56839 7.05566 9.02376 19
100 1 9.72002 3.10898 1.6214 17
101 1 -2.40273 7.52554 10.8866 14
102 1 -8.58811 9.03859 -9.78067 12
103 1 -3.65298 -9.52746 -9.92399 16
104 1 7.08652 -2.14681 13.023 11
105 1 -3.72088 7.61768 -6.54343 18
106 1 7.92995 -0.176068 -5.27839 18
107 1 -13.7462 7.63103 -7.61163 6
108 1 -6.33168 13.5472 1.49292 12
109 1 8.96107 3.62945 -12.1262 10
110 1 7.65911 -6.71148 0.312669 19
111 1 -7.88537 0.406356 -8.54188 19
112 1 3.5736 11.9181 -3.11867 15
113 1 10.6261 8.03869 1.16362 13
114 1 -5.25133 7.92792 2.00215 18
115 1 -13.3883 -4.51552 -14.8761 8
116 1 -1.08099 14.1087 6.17815 10
117 1 -11.0453 -2.97007 -4.96678 19
118 1 14.1591 -1.51931 -2.559 13
119 1 -3.53219 8.4206 4.1494 22
120 1 -4.25976 10.8525 -3.73445 17
121 1 2.9536 -5.71683 13.8262 11
122 1 -11.5877 -7.05961 4.20493 18
123 1 -3.33946 -11.5341 6.8086 17
124 1 3.57027 -13.9911 -3.67352 18
125 1 -10.3531 6.72285 -10.4683 12
126 1 0.985517 4.8432 -3.63448 23
127 1 9.86176 9.11845 -2.02114 11
128 1 -2.46333 -8.35333 11.5492 18
129 1 -7.91766 0.472356 -1.56139 25
130 1 1.61184 12.8845 1.52533 20
131 1 3.19909 5.18578 9.27516 22
132 1 -6.6678 6.94407 4.68603 19
133 1 -5.63433 -1.34679 -9.4887 21
134 1 13.4003 -9.83313 -1.10346 12
135 1 -9.14824 -6.62642 6.28668 16
136 1 -17.3992 2.22028 7.23752 11
137 1 -12.2124 -10.5878 3.46656 14
138 1 -18.4166 -3.29912 -1.36688 7
139 1 -1.81971 -14.3177 3.55677 19
140 1 -10.9936 -5.31476 -3.13904 21
141 1 6.21943 -10.5606 -5.30156 18
142 1 -0.558657 11.5171 1.5089 18
143 1 -10.0524 -3.72351 6.30053 19
144 1 -10.3339 -0.195349 -6.58145 21
145 1 -10.7668 9.28634 -7.6997 11
146 1 -18.0507 -3.29851 -4.48397 10
147 1 -15.6793 -2.45265 10.9369 11
148 1 -4.85481 -13.5574 3.40846 18
149 1 2.72588 -14.4498 7.68504 12
150 1 13.0354 -2.05571 4.16284 12
151 1 4.08924 2.52374 -3.18323 22
152 1 4.18232 2.4568 10.7294 19
153 1 -4.53172 5.75532 -12.8445 14
154 1 5.52361 2.94962 -12.7635 16
155 1 -7.75031 -6.86206 -11.26 19
156 1 -6.19717 11.4355 -8.874 12
157 1 -7.10673 8.10986 -7.22511 20
158 1 3.04854 0.453718 8.14575 18
159 1 -4.92916 -7.42539 -17.4889 10
160 1 -5.21136 6.19822 -9.75859 20
161 1 3.85982 5.78911 -13.7883 13
162 1 -9.0617 2.54925 14.3555 7
163 1 -8.27142 4.61265 9.19029 16
164 1 4.64567 -10.9153 -11.2833 11
165 1 -10.3047 -13.741 0.862696 14
166 1 7.14692 -15.4511 -0.717043 18
167 1 5.34356 -8.2469 1.45575 18
168 1 10.1323 6.18757 -4.07083 15
169 1 -4.8204 7.88641 -1.66309 20
170 1 -11.5445 0.543603 3.11778 22
171 1 -0.0070854 6.63387 12.2346 16
172 1 12.968 -1.1205 0.831468 14
173 1 4.5952 8.44201 9.9461 17
174 1 -5.52565 -0.583459 6.79624 21
175 1 -11.3478 -6.31349 -6.37038 18
176 1 3.02463 4.04346 -11.4248 17
177 1 0.954509 -5.53872 10.1822 17
178 1 8.24569 7.61283 -9.05863 12
179 1 2.4943 -12.6554 -1.19619 20
180 1 -4.00896 1.8495 -15.3308 12
181 1 5.00841 0.493692 -5.89055 23
182 1 -18.2372 -4.15656 2.01286 8
183 1 4.44369 -16.4891 -3.04777 11
184 1 -14.006 -8.23838 -8.88464 10
185 1 1.01227 12.0775 -1.60349 20
186 1 0.99569 -4.51607 -13.9649 19
187 1 2.26167 0.993388 13.4317 17
188 1 15.2536 1.09002 -0.593599 10
189 1 -3.27434 -8.83527 0.798744 20
190 1 7.75945 -2.59828 -10.2171 15
191 1 -6.58824 -13.6816 5.9267 14
192 1 -9.76206 -4.36505 -10.5713 13
193 1 -15.351 1.59341 -8.47383 14
194 1 9.55964 0.638874 4.43815 18
195 1 1.41955 -5.95295 7.14957 19
196 1 -6.03664 -9.83845 -15.1601 10
197 1 -0.950052 -8.77178 5.49731 18
198 1 -2.65969 7.77123 -11.4079 16
199 1 3.19965 4.54072 -1.21113 22
200 1 -8.90462 -6.63126 2.79861 17
201 1 -1.87759 8.53668 0.234511 21
202 1 -4.66644 -6.40225 13.1752 16
203 1 -11.5344 -8.77038 -7.61088 16
204 1 -7.96809 -9.0766 -12.6814 10
205 1 -10.0024 -11.6401 -7.44903 14
206 1 -1.42451 -16.4587 -0.224847 12
207 1 9.59706 3.64912 4.65311 22
208 1 -8.00383 -11.688 -0.442545 20
209 1 -8.18371 -8.17891 11.7281 12
210 1 0.474804 -14.3668 0.999729 20
211 1 -0.663763 -8.84824 2.26632 18
212 1 -1.26309 14.7 0.396017 14
213 1 4.26241 -0.0779867 -13.2648 18
214 1 -7.03475 -6.40407 -14.6963 16
215 1 -2.82211 -12.7166 1.38075 19
216 1 0.890236 -10.1277 -7.05663 22
217 1 -13.2852 2.74336 -6.56675 20
218 1 8.43991 1.4945 7.57831 20
219 1 -8.66106 -0.895768 -13.2166 15
220 1 -5.71549 9.17095 -10.3506 15
221 1 -8.61556 -1.23228 7.88817 20
222 1 -6.59633 12.4773 -5.40091 12
223 1 2.3969 7.59419 4.44514 23
224 1 7.30817 -1.82965 2.97484 22
225 1 -12.3567 -1.89813 7.44046 19
226 1 -2.02054 -13.8003 9.96972 8
227 1 -7.86592 5.88663 2.01672 18
228 1 1.77003 -10.7124 -13.1721 12
229 1 3.18407 -9.14369 -1.21407 20
230 1 -5.2684 -1.99442 13.6231 10
231 1 -15.3117 -9.69269 4.4608 9
232 1 15.5697 -3.39059 -5.86024 7
233 1 3.88095 -3.75876 -8.41742 20
234 1 8.45844 -13.477 -7.02062 10
235 1 -6.20582 -6.39819 3.46559 15
236 1 -8.86802 10.1916 -6.17744 17
237 1 0.745072 2.1917 5.12608 21
238 1 6.72816 3.42707 12.2451 16
239 1 -10.7649 -2.19943 4.05972 16
240 1 8.17913 -10.8195 -3.43903 16
241 1 -2.50021 11.3317 3.60258 18
242 1 -9.82325 3.01939 2.836 20
243 1 8.58029 -14.054 7.08827 11
244 1 9.61612 -6.2289 -1.66978 19
245 1 -7.98356 7.11034 7.56401 19
246 1 -5.18574 -6.23764 -2.6763 20
247 1 -2.56475 -3.56794 13.4615 15
248 1 -8.59299 11.6336 3.59565 9
249 1 -7.2424 3.15132 -6.60508 21
250 1 -14.7003 0.811974 8.97859 17
251 1 -9.78292 6.10877 3.99975 22
252 1 -4.99866 -6.92579 -5.66718 20
253 1 -8.43819 11.2039 0.12841 15
254 1 10.0426 -7.59547 5.11598 14
255 1 -13.1492 -11.8155 0.328272 20
256 1 10.2638 -10.1817 3.3869 14
257 1 -17.0092 4.26168 0.19073 10
258 1 -2.25761 -5.58784 10.9115 19
259 1 2.43974 -12.2113 -9.12363 14
260 1 -8.36792 -5.40377 -8.08371 20
261 1 6.32064 -1.91432 -12.6059 14
262 1 1.10664 10.4573 4.11464 20
263 1 -10.4445 -2.38794 -2.15977 20
264 1 1.07519 -10.282 -10.8592 20
265 1 -5.89452 -14.6075 -3.46878 13
266 1 -14.8776 -9.12399 -0.639513 18
267 1 -5.2713 -12.7201 -1.28579 19
268 1 10.4071 -0.39677 -6.53333 19
269 1 -14.0277 -0.378115 -9.79325 14
270 1 -16.9677 -1.27469 2.13011 13
271 1 -12.0385 6.79336 6.31487 15
272 1 -8.98159 8.84667 2.35216 20
273 1 -4.23206 8.63923 7.21561 18
274 1 11.2445 -1.97526 -4.42784 19
275 1 13.0115 -2.38599 -7.55593 15
276 1 -4.77932 5.00742 -3.34496 21
277 1 -0.472405 -9.35523 -4.66494 21
278 1 -1.67467 5.69539 4.78865 18
279 1 -10.5504 0.30824 -3.82664 24
280 1 5.65586 -7.93128 -2.83457 24
281 1 11.9456 -0.799566 7.16378 11
282 1 -8.33204 -2.14395 -7.55459 20
283 1 -8.12808 -11.8557 2.31839 21
284 1 -4.01209 10.4109 0.846391 18
285 1 -11.2528 -12.763 -4.74975 14
286 1 -9.64615 2.76867 -4.99911 19
287 1 0.591866 12.9442 -5.32401 13
288 1 3.1727 9.96342 6.78036 15
289 1 -14.0363 -6.42578 0.0740874 18
290 1 -8.65919 -8.68693 -6.65442 19
291 1 -16.5527 -0.303371 5.35181 16
292 1 -16.2754 2.42764 -2.55937 15
293 1 7.66579 -11.9613 4.27909 21
294 1 -7.1368 -14.3793 -0.0467869 16
295 1 5.69211 5.59582 -11.0822 15
296 1 -7.7167 5.97447 -9.11947 20
297 1 -2.02506 -16.7346 5.72825 11
298 1 11.6038 2.83242 7.10423 15
299 1 -6.89881 3.33945 11.3499 19
300 1 -15.1935 0.611411 0.477468 16
301 1 -2.21566 6.61166 8.23851 19
302 1 -9.33091 -9.47045 4.14161 18
303 1 -0.307877 -6.29866 -6.35098 21
304 1 7.22153 -8.9353 -9.93965 13
305 1 -1.42541 -3.27011 7.04741 19
306 1 -13.1979 0.635458 5.92635 18
307 1 -3.87174 -8.00829 4.97151 16
308 1 8.70422 -11.7333 -8.89013 12
309 1 -1.52344 -11.042 -8.94998 18
310 1 -7.27829 -4.08165 8.75243 19
311 1 2.43288 -8.42738 -3.93509 24
312 1 -6.09859 -0.645516 -14.7728 12
313 1 2.32103 -15.2888 3.59432 16
314 1 -2.34632 8.65261 -2.64922 19
315 1 -7.31912 -6.01944 14.8532 11
316 1 -7.50934 -7.23034 8.74794 15
317 1 7.94474 -8.80058 6.22845 17
318 1 7.99529 2.00603 -1.49337 19
319 1 -7.36839 2.15381 3.64661 20
320 1 1.22905 -0.366488 -13.2431 17
321 1 10.1729 -11.1089 6.10231 10
322 1 15.245 2.53244 -3.6264 12
323 1 -3.81099 -0.327263 11.066 20
324 1 4.24541 10.5798 2.78018 22
325 1 3.65219 -5.05659 5.56358 20
326 1 -1.3032 -14.9225 -6.53512 11
327 1 -5.5586 12.2405 4.11986 12
328 1 -8.4086 -10.2423 -2.89464 18
329 1 2.07627 4.20168 11.6513 21
330 1 -11.4482 0.823091 8.0167 14
331 1 -2.61192 -13.7864 -0.998971 16
332 1 -17.0258 -0.316167 9.65598 7
333 1 -11.8067 -8.65202 -1.53881 21
334 1 -3.52088 11.3117 6.91277 13
335 1 -5.39284 -9.42682 -7.41144 22
336 1 -1.52988 -7.4265 -18.107 8
337 1 -9.70572 -12.9618 4.39526 14
338 1 -8.35195 -0.712723 4.95168 22
339 1 8.62481 -1.6342 6.65194 15
340 1 -7.82629 -5.39071 11.5797 17
341 1 -10.828 3.84158 -12.4386 10
342 1 10.4442 3.1476 -3.11374 18
343 1 -12.4931 -14.1774 -2.04594 13
344 1 -2.54535 2.47763 -6.05023 22
345 1 -2.30663 11.9026 -1.37435 18
346 1 -5.12591 4.84621 -6.53726 25
347 1 -5.51424 6.5601 9.70157 15
348 1 -14.4199 -2.53452 -4.7348 17
349 1 4.81358 7.82993 -8.24748 17
350 1 -7.1072 -8.14382 -4.21955 22
351 1 -3.64159 -12.2986 -7.46056 19
352 1 0.796689 -6.6166 -11.877 17
353 1 -12.795 7.20434 -2.6669 12
354 1 -3.28033 0.650962 14.6025 14
355 1 6.20476 7.29896 -1.40318 14
356 1 0.407704 4.81945 0.112814 18
357 1 -13.8456 2.69888 -11.4013 12
358 1 2.95595 -0.464739 -7.94821 21
359 1 5.15958 -8.2403 4.31486 19
360 1 -15.5601 -4.35804 -2.65247 12
361 1 -8.32254 1.69212 -12.57 14
362 1 13.4976 5.77461 -4.01036 9
363 1 7.75672 -9.64064 -0.726807 20
364 1 12.8341 0.846069 -2.54644 20
365 1 0.0748964 -1.22943 -9.27623 18
366 1 1.98096 -9.40872 4.51944 19
367 1 -5.03181 -16.8017 4.92578 11
368 1 2.66287 -13.4306 11.2337 7
369 1 -7.70043 3.16683 -9.76999 19
370 1 -0.112194 -13.4277 -9.13872 11
371 1 -2.8461 2.62111 -12.1408 17
372 1 -2.11722 -7.10124 14.3357 13
373 1 -12.8737 -4.34129 6.14926 17
374 1 14.7432 -6.29618 -3.47216 11
375 1 10.3133 -1.81794 2.014 18
376 1 -5.78679 8.16143 -4.67674 20
377 1 2.93651 -10.824 -5.63766 16
378 1 0.484579 3.22235 -10.7418 18
379 1 6.90854 -6.47435 -6.07061 17
380 1 -10.9925 -1.22782 13.2052 13
381 1 5.31172 11.5122 5.32691 12
382 1 -4.56327 -4.7804 -17.5347 8
383 1 -10.4769 -4.20753 9.67052 19
384 1 -4.07569 14.6887 -0.403701 10
385 1 -9.83396 -3.98391 -14.5217 10
386 1 -17.3327 1.8681 3.31053 14
387 1 -8.06546 -11.7767 10.687 7
388 1 2.25964 6.68677 -6.22264 20
389 1 9.15043 -0.216711 -2.9074 21
390 1 -10.1543 -9.95057 0.615595 22
391 1 0.0998004 -9.51035 -1.28888 20
392 1 -11.4711 9.39229 8.70117 5
393 1 3.29796 -8.3698 -10.9017 14
394 1 -2.50209 5.49224 -1.35585 20
395 1 7.70773 -2.54979 -3.81567 16
396 1 4.2457 11.5533 -5.66569 14
397 1 4.91977 -11.1656 3.99228 21
398 1 -11.2231 3.95126 6.70709 19
399 1 1.69481 9.948 9.54015 14
400 1 -1.83029 6.36447 -14.3809 12
401 1 -8.69119 -7.59121 -1.16083 19
402 1 -4.4259 -4.54653 8.18672 19
403 1 5.496 6.01388 6.80765 20
404 1 4.05264 10.389 -8.6725 11
405 1 -10.1636 4.5354 -7.59918 19
406 1 -0.901086 14.385 -2.61096 12
407 1 8.36817 -3.73076 10.2107 8
408 1 8.65733 4.73279 -9.19663 14
409 1 -12.508 -8.16917 1.67919 23
410 1 0.15062 -0.541558 7.58245 21
411 1 3.35888 8.55703 -11.9354 12
412 1 1.37364 -11.2898 -3.53369 20
413 1 3.84926 -1.9817 -10.686 20
414 1 -2.32377 13.1292 -5.14376 15
415 1 -12.302 -2.75861 -10.8979 16
416 1 0.755289 -17.683 4.46545 10
417 1 -16.562 -7.39771 2.05819 11
418 1 -7.66734 0.0960089 -4.90004 19
419 1 -11.575 -6.77899 8.1356 16
420 1 2.35189 9.25902 -3.69503 20
421 1 -6.05393 -7.13061 -8.9632 24
422 1 1.53214 -12.0305 8.99711 16
423 1 6.31395 4.76327 -2.9058 16
424 1 -13.7122 4.91513 -0.768992 16
425 1 13.1589 -5.04202 -6.07562 17
426 1 2.62245 8.20162 12.0539 14
427 1 -2.69589 -0.528004 -11.1175 16
428 1 -0.382137 14.8386 3.45967 13
429 1 7.54811 1.78415 -7.63104 22
430 1 0.934897 -4.83417 -17.259 7
431 1 -3.12705 -12.8287 -3.73204 20
432 1 -12.1641 -6.04079 -9.40631 14
433 1 10.8145 1.52376 -0.207557 18
434 1 13.2138 3.48816 -1.35076 15
435 1 11.9071 -8.23445 -6.24438 17
436 1 4.70671 -10.9104 -2.82785 22
437 1 8.37352 7.83226 6.00461 16
438 1 -8.41044 0.459389 1.68584 22
439 1 9.04464 4.5232 -1.04006 18
440 1 13.1939 3.24776 1.21604 13
441 1 10.9242 2.95126 -9.27965 15
442 1 5.58841 -4.94978 12.8417 13
443 1 -1.91836 -7.02651 8.22303 18
444 1 4.40215 2.01167 0.333615 20
445 1 0.0366172 -4.52901 14.3903 11
446 1 13.5846 -0.0844965 -5.71101 15
447 1 8.71923 -0.645091 10.0526 14
448 1 -8.41203 -5.04465 -5.4644 21
449 1 11.5504 6.1383 -1.05947 17
450 1 10.9399 -4.56545 0.82214 18
451 1 -5.64985 -9.30637 -1.43243 22
452 1 9.27978 0.762091 12.4203 10
453 1 7.19316 9.93023 7.50856 9
454 1 8.71728 4.57643 7.00901 24
455 1 -11.2487 4.69181 -4.16103 15
456 1 5.60265 3.18465 -5.8791 20
457 1 10.4691 0.720361 -11.725 13
458 1 1.91365 14.8902 -0.71432 11
459 1 -5.0495 -14.5998 -6.44631 11
460 1 -14.4875 4.34168 7.7662 13
461 1 -11.5084 0.53245 -12.0152 20
462 1 -4.27792 -15.9475 1.62084 15
463 1 -4.74688 -1.94647 -12.9001 19
464 1 -16.6833 -3.98644 -7.2325 10
465 1 11.5461 -12.166 0.875004 12
466 1 10.8005 6.08655 3.97094 18
467 1 0.594148 -8.61007 9.36364 19
468 1 -15.6983 -3.28502 -10.571 11
469 1 6.72348 -3.72967 5.46496 18
470 1 -3.44981 4.02393 15.6756 10
471 1 8.82287 8.52436 -5.15589 13
472 1 4.05995 2.23159 -8.73736 18
473 1 6.05702 -15.3651 -5.85594 10
474 1 13.3279 -6.49703 -0.122376 11
475 1 6.57284 4.73515 0.832447 21
476 1 12.3413 -7.6546 -3.09093 17
477 1 -5.36159 2.02449 8.25149 17
478 1 -13.9287 -6.99038 -3.27747 15
479 1 -14.4495 -1.16193 -13.1242 10
480 1 5.64158 0.867066 13.2242 15
481 1 -4.33107 -12.587 9.40456 14
482 1 1.80809 6.00068 14.5174 10
483 1 -8.44524 11.3845 -3.21851 14
484 1 6.31939 0.0184896 4.81147 20
485 1 7.11671 2.02279 2.70256 22
486 1 0.495746 -1.94857 -15.7688 14
487 1 -10.8359 -4.36457 14.4167 9
488 1 7.59802 0.722689 -13.4171 13
489 1 -1.31948 -12.0625 -6.15903 21
490 1 10.6432 -9.67916 -9.22508 14
491 1 6.13703 2.0878 9.02905 15
492 1 2.49621 -0.324122 5.21198 22
493 1 8.34157 5.78905 11.7262 14
494 1 -4.81908 -7.8813 16.2999 5
495 1 -5.51663 2.53688 13.6399 14
496 1 -0.58504 -9.08863 -15.2495 12
497 1 -10.3427 0.926403 11.4292 16
498 1 3.50778 3.2746 15.1679 8
499 1 13.0173 6.24684 1.95135 11
500 1 3.93346 -15.4869 -0.134356 22
501 1 -8.1371 5.79519 -5.03918 21
502 1 3.67731 8.56464 -1.01229 18
503 1 2.25962 13.0109 4.72538 16
504 1 -6.00516 -1.63267 9.57353 21
505 1 -2.17137 10.2509 -5.95945 18
506 1 7.68037 9.43402 2.83782 18
507 1 -7.71638 -11.1028 -6.10138 16
508 1 -4.13984 -5.0069 -14.3178 18
509 1 -10.9049 7.68649 -5.52451 18
510 1 6.53759 -5.03502 -11.0681 11
511 1 4.09621 4.9014 2.4351 21
512 1 6.59475 6.07299 -5.32968 17
513 1 8.7936 10.5978 0.195486 12
514 1 -4.55534 2.40593 5.05123 20
515 1 -10.2127 2.67939 -1.61676 18
516 1 3.38724 5.98804 -3.5257 19
517 1 -0.216678 -11.2073 11.4918 12
518 1 -7.34723 4.48075 -12.1823 15
519 1 0.877319 11.1536 13.6661 4
520 1 -0.933802 0.902105 12.3515 20
521 1 6.9394 10.7234 -2.80588 14
522 1 3.87101 2.4921 6.79359 21
523 1 10.9078 -2.9354 -1.4016 19
524 1 -16.0498 -3.15588 7.70267 11
525 1 1.49965 -15.4894 -1.39584 15
526 1 -1.98843 -3.3119 -9.12604 19
527 1 2.66474 4.57825 5.67718 20
528 1 4.04989 -5.98801 -4.6252 18
529 1 1.92276 7.29869 1.41326 18
530 1 -16.5323 -3.34041 4.64936 12
531 1 1.91862 -16.9756 1.08472 15
532 1 2.68948 5.14653 -8.91009 21
533 1 7.73823 -11.4144 8.44624 11
534 1 -5.05019 4.7395 3.2696 21
535 1 3.2454 -3.02061 -13.8495 14
536 1 2.86979 -12.4342 6.37229 21
537 1 2.94494 15.5359 2.74188 8
538 1 -5.0129 5.18945 12.5383 13
539 1 -14.3166 -6.37696 -12.1938 9
540 1 2.38779 -6.96631 -7.21914 18
541 1 -1.51327 9.89325 8.71253 15
542 1 5.55305 -13.3125 -8.82605 10
543 1 5.34369 -10.3763 6.44926 21
544 1 3.17564 -14.4858 -7.65005 9
545 1 -13.7505 -4.55993 9.31302 14
546 1 -2.51059 -0.502175 -7.91148 22
547 1 -8.46299 -14.3882 -5.70315 12
548 1 -13.6458 -0.00499416 11.8031 12
549 1 8.88514 4.12369 -5.94867 19
550 1 -2.38338 3.13242 6.79151 22
551 1 -13.6025 6.05355 2.34781 13
552 1 6.08556 -0.943684 0.729067 20
553 1 -0.530214 7.82082 -4.87826 16
554 1 9.21337 -0.566197 -8.98075 21
555 1 5.94186 0.522401 -10.7023 19
556 1 -17.2818 -0.757553 -6.70831 12
557 1 -15.1078 -6.01734 -6.19508 12
558 1 0.472601 6.48984 -11.531 20
559 1 -7.13853 -0.113038 12.6211 17
560 1 -0.834703 -5.71218 5.0688 20
561 1 -1.71967 -4.72109 -11.1742 19
562 1 -7.23447 6.12308 -1.96437 17
563 1 5.27289 7.49834 2.05859 20
564 1 -12.2524 -4.68607 2.3407 19
565 1 5.87092 5.00687 -8.20829 20
566 1 -2.4566 -18.0325 2.91515 11
567 1 0.00994218 6.17939 -8.75625 17
568 1 -1.34232 -5.94182 -15.401 17
569 1 -2.65001 -1.41862 8.53475 19
570 1 1.20989 5.2702 -15.4408 9
571 1 -12.8995 -3.82089 -1.21805 16
572 1 5.3456 -4.94871 -0.550144 18
573 1 -3.85417 -10.1559 -4.6277 19
574 1 11.0295 6.04851 -6.993 14
575 1 11.0809 -10.3738 -2.24761 14
576 1 -10.6127 4.39269 11.744 13
577 1 8.41639 -12.6595 1.42836 23
578 1 14.0691 -9.68769 -4.46774 9
579 1 9.1223 -5.11812 7.44862 10
580 1 0.643496 5.51955 6.75638 23
581 1 -13.0905 2.9862 10.5951 12
582 1 0.262729 -14.25 5.88709 16
583 1 8.11704 -1.23987 -0.827643 18
584 1 6.26467 5.58109 9.76849 23
585 1 -13.4017 -1.03498 -1.92533 18
586 1 8.5714 -7.9603 -3.57145 18
587 1 1.10001 4.51355 3.29721 19
588 1 2.05178 -2.33457 12.285 16
589 1 -0.75417 8.79197 6.3337 22
590 1 0.49474 -12.2318 3.26338 20
591 1 -7.97638 -4.99956 -2.23001 21
592 1 -0.543275 3.52234 13.4964 17
593 1 1.9334 10.0259 0.641295 19
594 1 -9.62765 -11.9808 7.40465 11
595 1 4.13764 -10.48 9.25925 14
596 1 9.76666 -6.62866 2.10539 19
597 1 5.55103 8.62196 4.8852 20
598 1 -2.28622 5.42423 -4.82452 19
599 1 -2.62246 -8.92394 -6.78721 22
600 1 -5.31882 4.84756 -15.3875 9
601 1 -8.32771 -2.97254 14.8334 8
602 1 -3.29444 14.3245 3.08218 12
603 1 12.0888 0.843779 3.09282 16
604 1 -0.396209 10.579 -3.43768 22
605 1 -2.78594 7.17313 14.2941 8
606 1 6.89926 8.5368 11.3283 11
607 1 9.90805 -1.98401 -13.6403 9
608 1 -4.79305 -11.2619 1.09799 21
609 1 -5.10397 -1.18867 -6.43448 22
610 1 10.0002 -3.54328 4.5084 18
611 1 0.410265 -4.69088 -8.38303 18
612 1 -2.74736 -8.35003 -2.05639 19
613 1 12.3056 -4.82087 -3.25955 16
614 1 0.646327 -7.67841 12.4454 16
615 1 -3.49333 -8.28507 -15.2358 15
616 1 4.59954 12.9977 -0.913821 12
617 1 -2.39645 -10.9423 3.79438 21
618 1 -14.8532 3.94325 1.86589 18
619 1 7.52181 2.25015 -4.0725 22
620 1 2.10887 -7.79314 -13.9505 12
621 1 -9.688 9.2992 5.3281 15
622 1 -2.17703 -0.102177 -14.2875 16
623 1 6.80027 -5.1177 -3.65171 20
624 1 -11.0656 0.0734823 -0.412226 20
625 1 9.19012 6.35436 1.77657 18
626 1 -15.4634 -12.8947 -0.706944 9
627 1 3.93434 -2.19909 14.4811 13
628 1 -11.4431 -3.04088 -8.12773 19
629 1 -11.604 8.68638 3.63537 11
630 1 -5.04349 1.75393 -7.77371 22
631 1 11.2263 -6.2174 -8.65898 12
632 1 -15.0664 -9.14806 -4.19355 10
633 1 8.77835 -8.98729 -6.71343 20
634 1 -14.4818 1.01293 3.33009 19
635 1 -10.4879 -8.16639 -3.90347 20
636 1 -5.01258 -9.33563 7.31092 18
637 1 12.4941 -5.19027 3.35708 10
638 1 6.38246 -5.42246 3.02582 21
639 1 -12.3294 3.69748 4.26514 22
640 1 -2.41739 10.2939 12.2501 7
641 1 2.05947 8.55671 -8.85374 17
642 1 -6.67397 9.61704 5.54413 16
643 1 5.52568 8.86465 -3.86035 17
644 1 -0.421496 1.92024 15.5302 11
645 1 5.11581 -6.39438 7.4058 17
646 1 1.22154 10.1528 -6.25915 17
647 1 -9.37931 -2.24515 10.5915 16
648 1 -9.65563 -8.56139 -9.54397 16
649 1 -12.9688 0.152173 -4.90708 16
650 1 -5.13091 -7.35339 10.0375 21
651 1 4.74467 -1.47322 11.2422 15
652 1 -0.419519 -13.7738 -2.97726 16
653 1 -17.7227 0.774442 -0.810735 10
654 1 9.90381 -3.50194 -8.12644 17
655 1 -11.0111 6.50042 0.652971 15
656 1 -8.15995 1.30448 8.51863 15
657 1 -5.41011 -7.57413 -12.795 18
658 1 -2.72501 -10.9729 -1.87021 21
659 1 6.73782 -13.5645 -3.74478 19
660 1 1.08239 7.82867 -14.2794 10
661 1 12.053 2.85843 -5.95518 15
662 1 11.4077 6.47284 6.48428 13
663 1 7.44401 -4.20526 -7.02582 19
664 1 -1.79459 4.83632 -11.1888 21
665 1 0.155741 -10.9627 6.43711 19
666 1 5.77616 10.6923 -0.270283 19
667 1 2.25416 0.547677 -10.736 19
668 1 -13.2856 1.75382 -1.84283 19
669 1 0.96562 7.31768 -1.87302 22
670 1 -11.5648 -6.19049 11.71 12
671 1 7.00532 5.7605 3.86812 22
672 1 2.76955 -12.5956 2.07181 17
673 1 7.08482 10.292 -6.93981 10
674 1 -8.21191 6.75767 11.1769 11
675 1 -13.1467 -3.28586 12.6676 11
676 1 5.97217 0.45857 -2.22184 23
677 1 -5.69158 -10.36 11.6357 9
678 1 5.16052 -10.7342 1.14518 20
679 1 -3.87085 -3.28988 5.59586 21
680 1 8.79425 2.74736 10.7083 17
681 1 4.44319 -9.48879 -7.97836 17
682 1 -11.6258 -1.71345 -14.5148 11
683 1 -5.61055 0.750958 -11.8684 19
684 1 -18.5999 0.43593 -4.27158 9
685 1 6.68871 12.378 1.86109 11
686 1 -5.09603 5.09456 7.22875 17
687 1 -12.7084 -10.1951 -5.90599 14
688 1 -5.3476 5.00583 0.0390651 20
689 1 11.567 1.46132 9.55544 15
690 1 -5.86189 -10.9517 4.24324 17
691 1 12.3383 0.513263 -8.4598 16
692 1 5.81271 -12.9629 -0.925818 20
693 1 1.12795 -3.07207 -11.1688 19
694 1 -2.98387 -1.53267 -16.3171 12
695 1 -6.78355 -8.76054 1.19803 20
696 1 -7.33827 3.06779 -2.93158 22
697 1 -3.31316 2.84369 11.51 20
698 1 6.74098 -6.20576 10.1212 10
699 1 -12.1074 -9.97245 6.23324 15
700 1 8.48532 -3.86016 1.16029 21
701 1 -5.23813 3.37198 -10.8443 21
702 1 13.5085 4.081 4.55389 11
703 2 -12.6203 -0.673105 -13.057 14
704 2 -8.72374 9.4664 -7.90203 18
705 2 -0.208085 -3.47753 -9.99075 15
706 2 -3.86907 1.84148 9.569 18
707 2 -7.1431 -6.74551 -5.68806 21
708 2 0.599257 -0.895406 11.7784 15
709 2 -16.1323 -8.86825 3.04956 12
710 2 -17.5086 0.858593 -5.89863 11
711 2 -1.73049 12.3568 6.83573 12
712 2 -14.2384 -3.61055 7.52407 16
713 2 8.7531 2.0641 3.64403 18
714 2 -4.34536 -3.13499 -6.55477 23
715 2 -11.9801 -6.96455 -3.30521 19
716 2 -9.35511 0.851684 -5.19389 22
717 2 -4.89809 -9.91545 5.5526 15
718 2 1.54604 4.14242 9.56653 20
719 2 4.63928 -5.24504 -10.6389 15
720 2 -1.36618 -13.8825 0.613797 17
721 2 3.84773 -0.760299 3.71951 21
722 2 -9.89303 9.77354 -2.83301 18
723 2 -17.7902 1.05635 -2.72652 9
724 2 8.52124 -3.3522 5.80388 16
725 2 10.1428 -12.5257 -7.44289 11
726 2 -7.99243 -10.012 2.50646 20
727 2 -11.8237 -2.78575 5.4817 17
728 2 -5.94883 -15.0857 1.13737 15
729 2 9.46363 -9.46195 5.22807 15
730 2 1.60852 -13.99 -8.66982 9
731 2 3.52113 -2.9733 10.8854 18
732 2 -1.99873 9.46717 -10.9087 12
733 2 -13.9704 -13.207 -1.77897 10
734 2 -1.46349 0.352219 15.2889 12
735 2 -9.72124 6.95393 1.98033 17
736 2 -2.90491 1.30078 12.7984 20
737 2 -10.1068 6.28073 -4.45827 20
738 2 2.14917 -17.0612 3.1018 11
739 2 1.97728 6.03506 7.99893 20
740 2 -2.19934 10.2044 -7.84838 12
741 2 11.4774 -5.37432 -4.87436 21
742 2 -5.60123 -3.51194 -9.37653 20
743 2 0.492696 -6.76636 -7.96907 19
744 2 6.51279 -1.26213 -5.48945 20
745 2 -1.11985 5.79942 9.99133 20
746 2 -2.66941 2.24138 -14.1552 12
747 2 -11.522 5.33728 -11.1821 11
748 2 9.99289 9.07902 -0.357728 12
749 2 -6.38537 -7.18966 16.0407 6
750 2 -11.974 8.43094 -3.9422 12
751 2 7.12376 -0.855276 -9.89141 17
752 2 -2.67911 -10.8488 -10.7853 15
753 2 -16.2927 -2.15016 6.13681 11
754 2 4.8679 7.61922 0.0874616 19
755 2 -4.8612 13.3343 2.751 13
756 2 -9.90716 -9.75689 -7.85288 16
757 2 -7.10005 11.0727 4.5474 13
758 2 3.30274 -13.5564 9.31262 12
759 2 7.90742 -6.51724 3.12258 23
760 2 -13.0379 -0.242243 4.15698 19
761 2 9.22973 -11.2459 -1.86271 18
762 2 7.50278 -14.3109 -5.65081 11
763 2 6.35507 5.76427 2.31044 19
764 2 4.43807 -15.5438 3.06598 15
765 2 10.6133 -8.56328 2.16212 17
766 2 -9.00554 -5.01209 14.9291 10
767 2 11.9574 -6.62006 -7.08729 16
768 2 1.41364 3.55106 6.40273 21
769 2 9.27384 4.50695 10.6265 17
770 2 -11.2545 7.59418 8.27492 12
771 2 2.06277 11.7154 3.08337 20
772 2 12.6907 -9.55403 -2.88583 13
773 2 4.01457 4.40211 -3.09329 19
774 2 -13.6828 -2.42851 -14.2331 9
775 2 -10.0971 -0.873071 11.5467 14
776 2 1.43312 -1.11961 -10.8171 18
777 2 -10.3931 -2.17294 -6.9301 22
778 2 -17.1046 1.35671 5.39048 11
779 2 -15.0512 -8.69679 -2.46567 14
780 2 13.3356 -1.08307 5.7744 10
781 2 -5.95 -7.91827 8.03829 17
782 2 -4.55216 -0.598036 14.4076 12
783 2 8.03905 -1.17665 -13.4717 13
784 2 1.8252 -0.819911 13.6879 17
785 2 -1.64378 3.38938 15.5133 10
786 2 -11.6302 2.42941 2.90632 21
787 2 3.25571 -11.9313 -4.16604 17
788 2 11.1656 -2.61083 -6.73359 21
789 2 -10.7035 7.35654 5.14384 18
790 2 -1.71942 -9.43991 -0.772342 18
791 2 8.0149 -10.1799 -5.43896 18
792 2 3.98959 -3.84099 -4.73241 20
793 2 8.18746 8.37215 7.72718 17
794 2 6.34507 -11.6945 -3.86583 18
795 2 2.27508 -5.09665 8.74576 20
796 2 -5.56784 -7.25031 4.91438 15
797 2 13.3718 -0.59584 2.65708 10
798 2 -9.00845 -12.8541 9.1898 8
799 2 9.85622 8.01086 -3.61042 10
800 2 -2.56189 -9.54043 2.46831 18
801 2 12.6438 -10.0609 -5.84961 11
802 2 5.05433 -14.7395 -7.5062 10
803 2 13.8949 -7.89348 -4.07202 14
804 2 -11.6266 7.2743 -0.921258 12
805 2 10.7494 3.66119 -7.43802 15
806 2 -8.38385 -8.80086 -10.7932 15
807 2 -10.9124 -5.37592 6.85109 19
808 2 -3.53864 -12.1413 -0.405541 18
809 2 -4.65033 -11.2969 -2.97503 21
810 2 -9.83618 10.0605 3.55506 16
811 2 -15.4486 5.21055 0.0868913 12
812 2 3.69845 -0.779576 -5.96095 18
813 2 9.97844 6.10683 0.0540932 16
814 2 -4.05847 3.48822 -9.08299 22
815 2 -10.2064 2.45996 12.6652 12
816 2 -1.19791 -1.49579 -15.5679 13
817 2 -14.3014 0.274612 -0.904589 15
818 2 -6.76789 1.21028 7.42845 19
819 2 -12.7374 5.1626 7.20505 15
820 2 -7.35847 2.1903 -4.85313 21
821 2 5.44377 9.16997 3.03613 19
822 2 7.20492 -0.773665 -3.0186 22
823 2 10.3351 -7.93294 -2.49651 20
824 2 -16.5963 -2.42639 9.39438 10
825 2 9.3311 2.80204 -0.111235 19
826 2 -4.71763 6.19617 1.5478 24
827 2 -14.055 3.97286 -9.89062 12
828 2 -7.61927 2.69785 9.88917 18
829 2 8.44263 -2.39943 8.81816 12
830 2 -14.4428 -7.19066 -10.4047 11
831 2 1.17583 3.66274 -14.5854 13
832 2 12.8284 5.23347 0.167627 13
833 2 -14.5068 -9.32993 6.11048 8
834 2 1.28548 5.18631 -1.56244 19
835 2 -4.44344 10.5507 -9.51224 12
836 2 -0.312841 8.56435 -3.08191 19
837 2 8.4893 -1.03916 12.0196 13
838 2 -1.26079 2.56815 11.1724 21
839 2 7.81116 -4.00578 -5.19106 22
840 2 -7.18035 -1.81219 13.7613 12
841 2 -0.00701221 -6.81639 7.8566 20
842 2 -12.4748 0.904665 -3.32005 20
843 2 -6.28832 -9.41729 -13.4508 14
844 2 7.04582 -11.7108 0.18629 22
845 2 2.80301 -3.54005 -10.269 17
846 2 14.5917 2.57212 0.142097 13
847 2 -3.8326 5.06711 14.0088 12
848 2 -0.391123 2.28407 -9.33802 23
849 2 -7.69849 -6.99831 10.4856 13
850 2 -7.34398 -7.22407 -13.0916 14
851 2 -1.54853 -12.3631 -2.47222 20
852 2 -0.914609 -7.7281 -5.35061 21
853 2 5.43419 -14.1667 0.326894 19
854 2 12.0873 6.09626 -5.32834 12
855 2 -9.43476 0.0582863 -11.8688 18
856 2 -3.85901 11.7705 5.01973 16
857 2 -8.39257 -11.9268 -2.27727 21
858 2 -9.79387 -2.14317 -14.2106 12
859 2 7.24001 5.81629 -9.9679 14
860 2 -2.53755 10.5936 -2.78434 20
861 2 -9.02329 -13.7047 2.65007 14
862 2 11.7707 -3.40378 3.9493 13
863 2 0.212455 1.85372 13.6406 18
864 2 -11.9582 -12.786 -2.90313 14
865 2 4.21711 -12.6404 -2.02256 24
866 2 -0.911148 -2.56547 13.7731 13
867 2 0.0118845 10.801 8.81398 13
868 2 12.0026 0.870991 -6.65384 18