ITEM: TIMESTEP
36000
ITEM: NUMBER OF ATOMS
500
ITEM: BOX BOUNDS pp pp pp
-30.0 30.0
-30.0 30.0
-30.0 30.0
ITEM: ATOMS id type x y z Coordination
1 1 4.9906 -6.84979 5.997 15
2 1 -0.740865 4.76138 8.84832 17
3 1 8.10398 2.4124 2.77353 20
4 1 -10.2534 -1.68597 1.59841 13
5 1 -2.08365 2.1325 -7.72914 17
6 1 2.76994 -0.395049 8.55941 21
7 1 -7.65458 1.18444 0.848606 23
8 1 1.65097 -0.0531442 -6.96311 21
9 1 7.15666 -6.10951 -1.96793 13
10 1 5.87612 1.63316 5.78995 19
11 1 -2.2431 7.13776 -6.61579 12
12 1 1.23036 8.00144 8.12302 11
13 1 -7.23142 -1.02607 3.46377 23
14 1 -7.29487 -0.746733 -2.20991 19
15 1 6.61555 -1.61333 -5.71192 16
16 1 4.06327 -1.48669 11.1151 13
17 1 -9.39225 -4.21716 4.01182 13
18 1 -4.93175 -3.46742 -7.03298 15
19 1 3.53364 -1.73863 -4.53246 19
20 1 6.10159 -5.57302 3.49583 16
21 1 -7.17846 5.5741 3.35714 16
22 1 1.08785 8.2093 2.46497 16
23 1 -0.0406202 -4.54542 -4.66554 20
24 1 -2.90944 3.72946 11.2027 12
25 1 7.72719 -2.49509 2.77371 18
26 1 -4.20561 6.45869 5.2884 15
27 1 2.56151 5.26903 -2.31978 19
28 1 9.37317 7.58818 0.425661 11
29 1 -3.77776 7.35304 -4.12029 15
30 1 -5.39849 4.60146 -5.47179 21
31 1 -5.37662 7.80788 -0.784831 16
32 1 -2.11439 8.51058 -1.79433 16
33 1 -10.745 1.4185 0.179237 11
34 1 3.68998 7.87737 5.98128 16
35 1 -3.77018 1.70256 -4.58833 20
36 1 -4.90951 -6.6668 7.59546 15
37 1 7.68118 -2.61734 -3.07197 17
38 1 -8.30013 3.00238 8.65748 12
39 1 -5.48655 -1.27799 -4.92702 21
40 1 -0.427956 -10.7128 7.72991 11
41 1 3.45304 4.82948 -6.22479 14
42 1 -4.67858 3.39817 -9.15679 11
43 1 3.20314 1.36787 -9.71607 8
44 1 -0.350565 -9.73417 4.15441 17
45 1 -3.10554 9.62992 1.08039 12
46 1 -9.36538 1.15096 3.56283 17
47 1 4.94573 6.78746 8.16821 11
48 1 5.76026 0.0574186 8.80688 16
49 1 5.3008 -8.98059 -2.9642 11
50 1 6.11889 2.73053 -5.02097 16
51 1 -4.8887 -7.9579 1.08457 21
52 1 -1.71148 -6.85835 5.89396 21
53 1 4.76543 -3.13272 8.57728 17
54 1 2.95149 -6.06589 8.77694 14
55 1 6.16038 7.16976 -0.973119 12
56 1 -5.154 -7.92153 4.51152 14
57 1 -2.60289 -8.94769 2.76095 18
58 1 -3.86416 -6.27565 -1.7222 20
59 1 -1.57315 -2.93466 10.4042 14
60 1 -9.1833 -1.21191 5.64717 14
61 1 4.4365 -9.90782 0.320111 11
62 1 -9.36688 -1.66675 -1.02125 17
63 1 -5.80265 8.34019 2.60028 13
64 1 -5.62587 3.6523 6.09272 20
65 1 -4.26494 4.43001 8.3635 18
66 1 -6.98383 -4.28444 -5.44551 17
67 1 -7.17982 2.4097 -4.26818 20
68 1 -3.75115 -4.34765 -4.74131 22
69 1 7.45833 -0.984459 6.28227 18
70 1 -0.181013 -5.82019 9.08033 15
71 1 -3.99791 -0.772416 -8.10735 14
72 1 -9.14521 -1.98699 -4.67417 15
73 1 -3.46507 -11.0323 0.0635707 12
74 1 -6.39912 3.79668 11.2397 7
75 1 -5.86879 3.99573 -0.109305 21
76 1 -1.78081 -8.66762 -5.23429 9
77 1 -0.856704 10.8944 3.2935 8
78 1 -7.3803 -1.62842 -7.18243 13
79 1 -9.19148 4.20642 -1.4583 17
80 1 -4.12234 -6.41207 -6.04084 14
81 1 4.98287 -10.4488 5.65829 11
82 1 -9.24853 4.3787 -4.87247 12
83 1 -6.30925 -3.52465 8.10902 16
84 1 -8.8249 4.07688 5.29792 13
85 1 1.87967 -7.63235 -4.12407 16
86 1 -0.373548 -0.482248 8.17383 22
87 1 1.02414 -8.85765 9.62535 11
88 1 3.72917 -6.07251 -1.71567 22
89 1 10.9606 3.37909 3.2783 13
90 1 2.21394 -1.5515 -9.4227 12
91 1 3.82317 -9.12067 8.41785 11
92 1 -3.49311 -9.032 -2.07189 16
93 1 -7.53232 -0.288701 8.10984 13
94 1 9.30964 1.54798 5.17222 12
95 1 9.31099 5.82909 -1.90007 14
96 1 0.683419 4.48617 -4.79672 23
97 1 0.646148 6.83929 -7.42802 12
98 1 4.00348 8.5851 3.07712 14
99 1 4.96157 -1.07984 -7.60189 11
100 1 1.73791 -9.13743 2.09564 16
101 1 7.58453 -1.04589 -0.160513 19
102 1 -0.279434 -10.1456 0.449502 17
103 1 -7.53901 3.80261 -7.64503 12
104 1 8.27943 0.637328 -4.22561 18
105 1 -4.30053 5.70795 -1.94068 18
106 1 5.23226 -5.95517 -4.38767 17
107 1 -9.23143 -3.38847 7.553 10
108 1 2.31511 -9.37815 -1.58535 14
109 1 2.8423 -6.59075 -7.05379 12
110 1 1.07356 8.45539 -1.60842 13
111 1 2.87905 -11.4433 3.04843 11
112 1 -6.35503 -7.06467 -3.64812 14
113 1 0.562295 -0.692472 10.5339 16
114 1 0.111279 2.63806 11.6256 12
115 1 4.48465 -3.97337 -6.89758 14
116 1 -9.54481 0.989108 -6.26101 11
117 1 5.50022 5.55953 -3.80493 14
118 1 5.61877 -0.00676699 -2.42035 21
119 1 0.0833703 1.40669 -9.63457 12
120 1 -7.22631 1.37101 5.82697 21
121 1 1.33556 -3.1621 9.25764 20
122 1 -4.55408 5.84393 -7.96573 11
123 1 6.66448 -3.79652 5.80732 16
124 1 5.21156 3.32542 8.97175 12
125 1 1.78087 -11.8501 5.61991 10
126 1 9.25764 5.95745 3.33221 15
127 1 7.94982 4.14358 5.14653 13
128 1 -0.869816 -6.7142 -7.21928 11
129 1 2.48054 4.72198 9.43645 15
130 1 -2.58717 4.68303 -4.96388 21
131 1 -2.4571 0.484765 11.0197 15
132 1 -6.31251 -9.46468 -1.62858 9
133 1 3.9199 4.42387 6.34369 19
134 1 -7.30132 5.84409 7.00657 10
135 1 -4.31673 5.30657 2.30229 19
136 1 8.79003 3.91204 -5.03334 13
137 1 2.67212 1.49839 10.2247 17
138 1 -0.801459 -1.18069 -7.67733 18
139 1 0.783912 2.50459 7.72545 21
140 1 9.8152 -1.85575 -5.2965 11
141 1 7.27442 8.52243 2.20671 11
142 1 4.88473 -8.42567 2.90662 14
143 1 1.66061 10.0345 5.09407 11
144 1 2.29736 -4.87451 -4.35539 21
145 1 2.8399 -11.6765 8.60777 9
146 1 -4.04623 1.29451 5.51852 21
147 1 9.82863 -2.08158 4.63492 9
148 1 -0.314379 7.2964 -4.48636 18
149 1 7.91819 2.77995 -2.42768 22
150 1 -4.00344 -1.19301 8.9104 18
151 1 -3.12524 -4.58139 9.16443 12
152 1 -8.27128 6.71075 0.621631 13
153 1 11.2691 4.67506 0.585368 12
154 1 -6.80783 -4.81986 5.55788 17
155 1 9.47124 1.88518 0.387989 19
156 1 -7.1222 -6.30317 2.67548 15
157 1 9.76447 -0.0858769 1.69538 15
158 1 6.40588 -3.87996 0.155168 18
159 1 2.75587 5.58745 3.40377 21
160 1 -8.8992 -4.74784 -2.63532 12
161 1 -0.903516 7.28503 0.669179 19
162 1 1.11316 3.29271 -7.53338 18
163 1 -5.96333 1.4076 -6.9787 17
164 1 1.14395 -3.7076 -7.35054 16
165 1 -0.988832 -9.64339 -2.27176 14
166 1 1.1009 -6.8265 5.97476 16
167 1 10.1691 -0.237175 -1.92932 13
168 1 -9.45208 1.18352 -3.06035 16
169 1 -1.47815 4.97893 -9.25021 12
170 1 -6.75698 -6.09795 -0.588423 18
171 1 7.52872 -2.31642 9.4496 8
172 1 -1.92565 -3.82175 -7.22642 16
173 1 -9.34271 3.86895 1.78384 16
174 1 -5.39829 1.88992 9.19332 18
175 1 5.93384 5.746 2.30364 20
176 1 10.7721 2.86002 -2.5101 13
177 1 -2.34557 -8.33141 8.82176 12
178 1 2.8275 1.84731 -4.81669 20
179 1 7.27877 4.43878 0.0178961 21
180 1 6.8339 7.4689 4.9457 13
181 1 2.73978 7.7959 -4.61878 11
182 1 8.09134 0.865564 -7.1224 10
183 1 7.95375 -5.00979 -5.28932 10
184 1 -0.722412 7.58336 6.12741 13
185 1 -2.65133 7.96901 3.32708 16
186 1 -3.04204 -9.79422 6.17188 12
187 1 5.17463 -6.16963 0.7529 17
188 1 -9.30818 -4.559 0.667464 11
189 1 -6.99968 6.03304 -2.61778 17
190 2 -9.62279 -3.09343 5.6031 11
191 2 10.5394 4.82233 2.2741 15
192 2 -3.83422 -0.236305 -4.57751 20
193 2 -8.77427 -0.792295 -6.16138 13
194 2 -0.831418 -10.5208 5.99155 13
195 2 2.16882 -1.67155 10.2748 17
196 2 7.69645 -0.738132 1.69105 20
197 2 -4.6915 3.17156 10.945 12
198 2 7.54531 -4.78522 -3.44027 14
199 2 -3.36289 4.63177 -8.92666 10
200 2 -0.339859 -4.86821 -6.74654 17
201 2 0.792898 8.89133 6.13214 14
202 2 9.21839 -0.289057 5.48755 15
203 2 7.10306 8.28948 0.163801 11
204 2 -2.20601 6.99818 5.21913 14
205 2 8.82206 7.43471 2.12606 13
206 2 1.57973 5.08833 -6.86012 15
207 2 4.72681 -2.20891 -5.9861 17
208 2 -5.96359 4.75486 -7.99976 11
209 2 1.12353 -11.7772 7.59438 11
210 2 -7.47986 1.59322 7.72021 16
211 2 3.26698 -7.97207 -2.45034 18
212 2 -0.663083 -9.63078 2.23685 17
213 2 3.07622 7.62539 7.89196 14
214 2 4.45664 -1.36109 8.10973 22
215 2 -5.80593 -6.57866 5.88147 15
216 2 -0.299051 -7.34988 4.77979 21
217 2 -7.41749 -4.46428 3.72778 16
218 2 -3.42776 -9.51676 1.2264 15
219 2 -6.63669 -8.37668 -0.0820714 14
220 2 -4.84193 8.82932 0.735643 12
221 2 2.39797 -0.304129 -5.28689 18
222 2 10.1344 5.95616 -0.338606 13
223 2 1.57025 1.62091 -8.1857 18
224 2 -7.24345 1.0681 -2.7228 19
225 2 10.0487 1.8102 2.30876 17
226 2 -0.866006 7.42695 2.83678 19
227 2 -6.30553 5.40623 5.22899 18
228 2 1.11024 8.12518 0.340595 14
229 2 1.3933 7.36331 -5.843 12
230 2 -1.07301 2.97697 7.49484 21
231 2 -0.358916 -4.01741 9.93307 15
232 2 2.88733 -4.63409 -7.13588 15
233 2 0.800892 -8.60584 -2.75016 14
234 2 1.07745 -7.21968 -7.08162 12
235 2 -7.72803 -5.60474 0.972328 15
236 2 7.12412 -2.71793 -1.14716 18
237 2 8.07776 5.9486 4.7196 12
238 2 -0.789015 0.538116 -7.90287 17
239 2 1.02427 -1.81624 -7.75541 17
240 2 -2.06709 -3.46218 -5.09936 20
241 2 3.32817 -6.54709 -5.07942 16
242 2 6.47261 -0.156041 -6.93147 11
243 2 -3.10765 -5.90428 4.91027 23
244 2 1.71221 -2.96734 -4.97012 22
245 2 -2.43506 -7.29004 -6.31128 11
246 2 -2.10519 2.72175 -5.64127 20
247 2 -3.97006 4.91242 6.25695 18
248 2 -5.1243 -7.10241 2.74408 19
249 2 -5.9863 5.26077 8.26652 15
250 2 -7.77811 -4.35531 7.15668 15
251 2 -9.35311 -1.04876 3.44945 15
252 2 2.39637 -9.91668 9.38246 10
253 2 9.671 1.21641 -2.80557 16
254 2 -2.74629 -2.1614 -7.72108 16
255 2 3.18039 5.93196 5.36418 21
256 2 5.7107 7.59397 3.00875 18
257 2 1.09562 1.01536 11.4419 14
258 2 -5.76882 2.20593 4.68569 22
259 2 -5.53141 -0.731002 -6.9747 15
260 2 10.8001 3.01979 -0.545174 16
261 2 -9.0422 -3.6888 -1.08926 15
262 2 -6.6023 4.31001 -1.89855 21
263 2 3.7503 -0.526166 -8.87053 10
264 2 -6.0844 4.4099 1.9724 20
265 2 5.68153 -5.28721 -0.947517 17
266 2 1.52098 -9.32509 0.155733 18
267 2 -7.25151 7.29247 2.03137 12
268 2 1.22815 -10.6816 3.86189 13
269 2 3.51158 -9.7743 2.29906 13
270 2 3.51677 3.23087 10.151 12
271 2 -1.93633 8.83479 -0.0401219 14
272 2 -4.56518 -4.79591 8.0805 16
273 2 -2.35415 -7.09656 2.24599 22
274 2 -2.29711 -6.33217 9.22692 13
275 2 -1.24338 6.66702 -8.0617 13
276 2 9.2815 -0.150243 -6.07411 10
277 2 5.77442 1.9115 7.77545 18
278 2 7.67706 4.37807 2.17158 23
279 2 2.75036 7.29548 2.426 19
280 2 -9.96398 -3.61722 2.25176 12
281 2 0.124897 6.37998 7.54308 16
282 2 6.70871 -3.5871 7.75056 13
283 2 1.59738 0.347634 -10.2164 9
284 2 0.649353 4.08386 10.145 15
285 2 4.62775 -6.515 2.91543 17
286 2 -8.54621 -3.6885 -4.19126 16
287 2 -8.70038 4.98479 -3.06808 13
288 2 -7.95432 2.02216 -7.01176 14
289 2 -3.20384 -7.98326 7.01165 16
290 2 5.70939 5.58112 0.373703 17
291 2 -5.39176 -3.27595 -5.09353 20
292 2 9.53433 -0.033214 -0.147987 15
293 2 -9.0278 4.99788 0.392273 15
294 2 8.08393 -2.87837 4.59835 15
295 2 -8.86134 -1.63771 7.77245 11
296 2 -5.07505 -7.77692 -2.46968 16
297 2 -0.614288 7.35682 -2.20122 16
298 2 -9.29353 4.80537 3.49757 12
299 2 1.60494 -7.04369 9.67164 13
300 2 -9.509 1.98895 1.48778 16
301 2 -7.1393 7.1628 -0.99637 14
302 2 -1.66633 2.19434 11.3643 13
303 2 -7.34846 4.48073 -5.6114 15
304 2 2.31729 7.37656 -2.83381 15
305 2 -2.62188 4.78159 9.41904 13
306 2 2.4624 3.86831 7.75979 20
307 2 -6.76863 -3.33874 -7.2502 12
308 2 -0.921714 5.57757 -5.16789 18
309 2 -2.25555 -7.70419 -1.28738 19
310 2 5.92022 -0.290392 4.95888 24
311 2 7.00034 4.51511 -4.54421 14
312 2 3.75109 -11.8005 4.95719 9
313 2 7.47234 2.68375 -0.480708 22
314 2 4.77105 4.9721 8.04008 13
315 2 -4.39188 2.26347 7.34976 20
316 2 -7.22037 -5.65115 -2.51442 17
317 2 -1.67646 -10.4687 -0.610782 13
318 2 -2.64544 9.98524 2.74317 11
319 2 -8.63407 2.20291 5.00502 18
320 2 -7.20487 -0.675033 5.722 22
321 2 -2.10047 -9.06563 -3.58312 11
322 2 4.08716 0.37079 10.0769 15
323 2 -3.74308 5.88734 -6.12311 16
324 2 4.35841 4.47476 -2.9209 20
325 2 4.64278 -10.143 -1.64727 7
326 2 5.64002 -2.32734 10.3642 11
327 2 7.39256 -0.832595 8.31888 14
328 2 -1.96558 7.93567 -5.07728 14
329 2 -5.54764 2.44081 -5.48836 21
330 2 -3.57554 -4.88967 -6.84841 13
331 2 3.47878 9.37038 4.89147 12
332 2 -3.87945 8.0284 -2.15677 15
333 2 -9.23348 2.38124 -4.52602 14
334 2 -8.53029 4.47948 7.16011 11
335 2 0.94344 2.56181 -5.44935 21
336 2 6.10767 -4.85864 -5.78946 13
337 2 -9.88315 2.36854 -1.43106 14
338 2 -0.785037 3.26812 -8.62835 13
339 2 3.9049 -7.2568 7.49814 14
340 2 -5.75945 -1.61779 7.98371 18
341 2 -6.99431 2.73157 9.87212 11
342 2 4.33381 -10.656 7.449 9
343 2 -10.2209 -0.402945 0.266713 14
344 2 -3.41455 -2.73996 9.4993 14
345 2 -0.881746 -9.40672 8.87775 11
346 2 9.77335 -1.6624 2.72905 10
347 2 0.950857 -5.95569 -3.78525 17
348 2 -4.42479 7.00181 3.27673 17
349 2 -4.22016 1.44199 -8.17179 15
350 2 -5.32512 -3.55887 5.46918 20
351 2 3.04275 -4.10973 8.71936 17
352 2 4.0521 3.04834 -5.73013 16
353 2 7.49313 2.32459 4.78064 17
354 2 6.36696 -5.79866 5.27098 12
355 2 8.22924 -3.01242 -5.68648 12
356 2 5.60159 -8.28948 0.904337 13
357 2 6.37311 -4.06216 2.1772 18
358 2 -3.79919 0.757668 9.55613 15
359 2 7.97831 2.24008 -5.53178 12
360 2 -9.35251 -1.00867 -2.8305 15
361 2 -7.30894 0.827893 2.73413 18
362 2 4.92553 -8.62912 4.95773 12
363 2 4.03079 6.4039 -5.08269 11
364 2 9.7611 4.38583 -3.3 10
365 2 7.42928 5.66439 -1.81076 14
366 2 2.10831 -5.49599 5.10764 18
367 2 9.64487 -1.61426 -3.2854 13
368 2 6.05419 -7.26735 -2.88726 14
369 2 -6.05663 -6.04718 -5.23876 14
370 2 0.91356 9.97677 3.34693 10
371 2 5.55141 7.3323 6.45572 11
372 2 -3.54495 -9.0778 4.4948 16
373 2 -1.21815 -0.92219 10.0069 16
374 2 9.53018 3.35987 4.41822 11
375 2 6.31523 1.69056 -3.03344 19
376 2 -5.03634 5.76912 -3.80741 17
377 2 -4.76556 -10.5569 -1.38476 11
378 2 6.8979 -0.878651 -3.83786 23
379 1 -5.70617 -3.84845 -2.36226 22
380 1 -2.34822 -1.57502 -4.77618 23
381 1 -0.173633 -6.39671 -2.2565 22
382 1 -2.17948 -3.50016 -2.08016 22
383 2 -4.81047 -6.20283 0.0722078 22
384 2 -4.86511 -3.5154 -0.475051 20
385 2 -5.84467 -1.8659 -2.75865 19
386 2 -3.92348 -4.74281 -2.84236 21
387 2 -0.0478598 -6.2298 -0.243173 20
388 2 -2.10415 -3.647 -0.095384 22
389 2 -2.30844 -1.5956 -2.41696 21
390 2 -0.723226 -4.37269 -2.65302 20
391 1 -5.79615 -1.68954 0.586101 20
392 1 -3.87657 -4.47425 0.617924 22
393 1 -3.28358 -5.87722 3.16603 22
394 1 -5.53271 -3.58476 3.15493 20
395 1 -5.61708 -1.57165 5.98077 22
396 1 -3.69458 -4.34611 5.88846 21
397 1 -1.80388 -7.68468 0.538086 22
398 1 -2.27924 -1.71482 0.710059 24
399 1 -0.422306 -4.4702 0.626465 22
400 1 -0.174424 -6.34991 3.11732 20
401 1 -1.902 -3.25212 3.28901 22
402 1 -2.57723 -1.3836 5.91208 22
403 1 -0.352127 -3.75267 6.37154 21
404 2 -5.7417 -1.75689 2.60525 20
405 2 -3.70379 -3.79649 2.56257 22
406 2 -0.222965 -5.82629 7.1649 19
407 2 -2.13332 -3.32232 5.49569 20
408 2 -2.26853 -1.54398 2.65677 21
409 2 -0.290301 -4.25568 2.76694 25
410 2 0.848789 -1.95839 7.74789 21
411 1 -4.24262 -0.96253 -2.03554 21
412 1 -5.77768 2.43865 -2.15126 22
413 1 -0.623732 1.35608 -4.99185 24
414 1 -0.973448 -0.168684 -2.05872 22
415 1 -2.25264 2.66257 -1.87841 20
416 1 -0.933751 5.36063 -1.91839 24
417 2 -7.25153 -0.560359 -0.183254 20
418 2 -4.12281 -0.686649 -0.098809 21
419 2 -6.03065 2.13852 -0.0610141 18
420 2 -3.79412 2.02967 -2.71171 23
421 2 -4.02374 4.98725 -0.103999 22
422 2 -0.743086 -0.515314 -5.45487 21
423 2 -0.706936 -0.477238 0.251936 20
424 2 -2.31729 2.19096 -0.0195151 21
425 2 -2.57177 5.10551 -2.78525 22
426 2 -0.91281 1.63816 -2.94307 24
427 2 -0.674606 5.3333 0.145432 23
428 1 -4.12217 1.21793 0.313376 20
429 1 -4.2207 -0.425059 3.14029 22
430 1 -5.78765 2.37128 2.83101 23
431 1 -2.55872 1.79911 8.16424 23
432 1 -2.33672 4.31459 0.45366 19
433 1 -0.576078 1.61093 0.773337 23
434 1 -0.447126 -0.324128 3.04447 23
435 1 -2.32453 2.57432 3.01251 19
436 1 -2.04866 4.15959 5.67348 23
437 1 -0.96641 1.38 5.47288 21
438 1 -0.809484 5.41321 3.24457 21
439 2 -4.10099 -0.685862 4.97122 24
440 2 -4.03925 1.38511 2.22287 24
441 2 -0.71515 -0.452801 5.14098 21
442 2 -2.50968 2.3777 5.01352 23
443 2 -2.46104 4.51945 2.37892 23
444 2 -0.734741 1.68032 2.93113 22
445 2 -2.13487 -0.31636 7.50786 21
446 2 -0.341532 5.15739 5.10849 20
447 1 0.616153 -1.23173 -4.44926 23
448 1 0.658108 -3.04562 -2.14813 24
449 1 4.42949 -2.9267 -2.22698 23
450 2 2.7053 -5.83723 -0.14984 21
451 2 1.30445 -3.33415 -0.300209 24
452 2 0.87231 -1.07588 -2.67075 21
453 2 3.70991 -4.5317 -3.09799 23
454 2 4.3915 -3.1981 -0.239032 20
455 2 3.90561 -1.03774 -2.68409 21
456 1 1.40075 -7.24716 0.365289 20
457 1 0.990777 -1.49396 0.517869 23
458 1 2.78744 -4.12727 0.629454 24
459 1 2.55771 -5.79006 3.21067 21
460 1 1.2226 -3.07751 3.31355 23
461 1 0.956654 -1.09369 5.88846 21
462 1 2.89335 -3.93873 5.78062 23
463 1 4.20923 -1.10124 0.45379 24
464 1 4.49337 -2.79008 3.02667 21
465 1 4.25414 -1.2485 5.88067 23
466 2 1.19781 -7.20729 2.26296 23
467 2 1.23476 -3.01138 5.37346 22
468 2 1.0552 -1.30378 2.37561 26
469 2 2.93164 -3.76548 2.71933 22
470 2 1.26097 0.773151 8.4817 23
471 2 4.5341 -3.07242 5.11158 23
472 2 4.39582 -0.910683 2.42854 23
473 1 2.44735 -0.0367867 -2.05479 23
474 1 0.869592 2.56391 -2.02758 23
475 1 4.38675 2.58395 -2.36159 21
476 2 2.59305 -0.100555 -0.0273838 22
477 2 0.774666 2.68817 0.0790719 24
478 2 0.703104 4.41612 -2.67198 19
479 2 2.57323 1.85817 -2.98779 22
480 2 2.50513 5.46152 -0.251918 21
481 2 5.85392 -0.167198 -0.246273 22
482 2 4.3258 2.49769 -0.330644 23
483 1 0.886299 4.52864 0.702573 22
484 1 2.84276 1.71204 0.597713 24
485 1 2.66358 -0.114069 3.15672 23
486 1 1.29064 2.51428 3.33813 21
487 1 1.28289 5.08541 6.43037 23
488 1 2.74668 1.6059 6.01467 19
489 1 2.79375 7.18841 0.4998 19
490 1 4.1058 4.3984 0.391661 23
491 1 5.89516 1.66164 0.464803 24
492 1 6.28699 -0.336606 2.99899 24
493 1 4.48399 2.78126 3.27264 22
494 2 2.61223 -0.163637 5.45907 24
495 2 0.958449 2.3073 5.45841 21
496 2 1.33224 4.42737 2.72343 23
497 2 2.95953 1.70845 2.65393 23
498 2 4.26345 2.71076 5.60931 21
499 2 4.1904 4.57125 2.52118 22
500 2 6.26359 1.79234 2.37157 22
