ITEM: TIMESTEP
26000
ITEM: NUMBER OF ATOMS
2000
ITEM: BOX BOUNDS pp pp pp
-30.0 30.0
-30.0 30.0
-30.0 30.0
ITEM: ATOMS id type x y z Coordination
1 1 -10.4368 4.48735 -11.8281 22
2 1 -5.45071 -11.6353 -8.97011 16
3 1 0.307981 12.4914 11.4007 16
4 1 5.8194 -7.94237 7.37252 19
5 1 -16.7787 10.1395 -6.05758 11
6 1 11.3311 -8.50764 -10.1595 12
7 1 -15.5572 1.95439 -7.0315 15
8 1 -2.27624 -6.2973 12.7282 14
9 1 -11.7549 0.333835 -9.26166 22
10 1 -15.4698 -9.53758 3.84779 16
11 1 5.56624 1.6871 -15.9801 16
12 1 -5.2974 -11.2764 1.9178 23
13 1 -16.7931 -8.09317 1.46123 15
14 1 0.814027 0.333244 12.4869 20
15 1 -5.6761 2.64738 9.11064 19
16 1 -3.80478 8.78423 -9.75424 22
17 1 -1.84055 -0.406779 17.6073 11
18 1 -12.3253 1.98544 -11.9495 20
19 1 -15.847 -0.263483 12.305 12
20 1 12.5642 5.66458 4.59294 18
21 1 -0.436521 8.36829 -9.41722 23
22 1 3.19742 6.64228 -14.3577 18
23 1 12.608 0.19675 9.56564 18
24 1 -16.359 4.22925 -5.05925 14
25 1 -14.4335 11.2508 8.63928 11
26 1 5.17247 -13.5278 7.29732 10
27 1 3.71895 -13.3135 -9.58939 10
28 1 8.50893 -13.6272 -0.602115 8
29 1 -10.9882 -14.24 -2.74032 16
30 1 -12.4364 -6.5125 11.8836 16
31 1 1.51269 -5.82544 -14.364 19
32 1 9.21154 -10.7359 -8.28207 13
33 1 -3.7979 6.39296 -14.7335 17
34 1 -0.891818 3.70505 12.2609 24
35 1 -2.12417 -10.9632 7.18732 23
36 1 7.18273 -4.52401 12.4183 10
37 1 -12.495 0.549821 1.71989 23
38 1 -15.513 2.41047 9.62089 19
39 1 -6.01866 12.0208 -4.97498 18
40 1 -3.69713 -12.5189 -11.0334 12
41 1 -2.36264 1.80058 -11.6679 22
42 1 3.07835 -6.45544 -11.2483 23
43 1 -5.9804 -3.25103 9.71305 24
44 1 -13.6898 9.01225 1.17057 20
45 1 3.92394 12.4942 -8.77287 14
46 1 2.3639 15.2357 6.68243 12
47 1 -9.21228 7.83425 -6.8807 22
48 1 3.76013 11.709 -4.94608 21
49 1 1.3344 -10.9621 1.86166 22
50 1 2.93733 -6.28438 -6.10335 23
51 1 4.02676 -7.10252 -16.5249 14
52 1 -9.4086 7.20317 11.8994 19
53 1 -15.7377 -6.06592 -9.19051 11
54 1 -10.7197 8.96587 -4.34739 21
55 1 -7.37229 -8.1049 6.87917 22
56 1 -5.81113 13.5315 9.54585 14
57 1 -15.9487 7.21573 -7.11306 12
58 1 -7.16301 9.78401 11.3098 19
59 1 -6.40947 -15.4034 7.94523 14
60 1 3.11926 -13.7173 1.55551 18
61 1 0.128666 11.0371 14.9063 13
62 1 -13.8814 2.73103 -9.34523 17
63 1 -13.8759 8.54378 -9.80139 11
64 1 2.43514 5.56781 9.53623 24
65 1 12.149 -5.52975 -11.907 12
66 1 7.30351 -10.7203 6.88832 14
67 1 -17.1375 -0.365217 4.15312 14
68 1 3.91577 14.0081 3.03394 22
69 1 0.439576 -5.40954 12.6224 10
70 1 -9.8196 -16.367 1.74372 12
71 1 9.42428 -0.224525 9.88266 21
72 1 2.5296 11.6104 8.37867 23
73 1 -5.58981 -5.74663 -8.90831 25
74 1 -16.2828 10.0507 5.63119 10
75 1 -10.5564 10.8642 -1.47498 20
76 1 -2.23235 5.68285 -9.50432 23
77 1 8.69903 10.5055 -7.71284 16
78 1 5.97781 -6.12354 4.81613 24
79 1 5.52792 -6.17435 10.1272 17
80 1 -7.12476 15.1644 -3.37269 15
81 1 -12.2954 8.06452 3.94753 19
82 1 -10.7029 -3.99968 11.6828 22
83 1 -7.50697 9.14657 6.23687 23
84 1 -3.8182 -6.09052 9.5628 21
85 1 11.0268 -6.14051 -2.4948 16
86 1 -10.5906 3.43761 6.67599 23
87 1 -13.7705 -12.4123 3.28983 14
88 1 6.04487 -8.14293 -3.21503 24
89 1 2.8937 -1.03441 -11.6257 25
90 1 -5.28162 -5.4752 -14.3562 18
91 1 -2.51015 12.0788 0.444349 24
92 1 -8.55293 5.79179 -9.43143 23
93 1 -4.16491 9.64454 12.1276 20
94 1 -2.7053 11.8656 -5.23187 20
95 1 -14.4309 11.0638 3.20929 18
96 1 -5.78009 -8.38622 9.29912 21
97 1 13.0356 -1.05111 12.1458 10
98 1 8.05972 -8.9801 -10.6913 17
99 1 2.72351 -1.80084 13.5408 16
100 1 -10.7719 -6.43867 -1.05762 22
101 1 -10.3755 -8.40087 -3.50785 24
102 1 8.08934 -10.9048 3.00915 16
103 1 6.50452 -0.739261 -11.2797 22
104 1 3.23491 19.5649 -2.49851 12
105 1 -11.8354 -15.0515 8.88758 11
106 1 -9.77183 -14.3075 3.94743 21
107 1 5.94362 -9.10452 -13.4857 14
108 1 6.97249 -9.82003 -0.509064 19
109 1 -5.42653 -13.6489 10.9397 12
110 1 -10.4926 -8.33984 1.83898 25
111 1 11.4374 8.95774 13.1777 10
112 1 12.2776 -2.64373 -10.2858 13
113 1 -17.4234 -0.593257 9.67071 12
114 1 7.34773 8.44669 4.18417 22
115 1 12.6858 9.59654 6.93549 15
116 1 -7.28459 -0.410801 14.3445 15
117 1 -4.11993 11.2232 8.41374 19
118 1 -5.68956 11.0001 -10.5255 20
119 1 -2.32662 -5.69944 -8.72836 23
120 1 5.77991 -10.6867 -8.48784 17
121 1 -2.55625 13.171 -8.31184 20
122 1 9.29231 -1.95034 12.6857 17
123 1 -4.49625 2.26207 -18.249 11
124 1 -4.28209 10.6678 -7.30541 21
125 1 9.49327 -0.477164 -6.17809 22
126 1 -13.8431 11.8054 -6.42573 12
127 1 -9.62777 13.8524 -1.14611 15
128 1 4.77183 1.73407 -11.6972 21
129 1 7.6709 -8.59996 4.85548 19
130 1 -7.26679 2.75371 -9.31 24
131 1 -8.41903 13.2854 9.88952 11
132 1 8.72034 2.38463 -10.9334 15
133 1 7.37543 11.9663 -4.74538 19
134 1 -4.26151 15.1804 1.16498 22
135 1 9.04692 11.0756 -1.98397 20
136 1 -5.08261 13.8313 -1.22677 20
137 1 0.569699 17.2892 -5.22475 13
138 1 3.02189 10.206 -13.0395 12
139 1 -15.6691 -11.8015 -3.24552 8
140 1 -13.7342 10.6687 -1.49918 20
141 1 -5.25498 -3.70501 -11.6967 24
142 1 1.53988 -9.20052 -16.9429 10
143 1 5.35685 11.3769 9.27493 16
144 1 -2.35158 11.9886 5.93879 23
145 1 -13.6832 -2.24953 -4.10957 22
146 1 -12.4067 13.8152 3.22099 12
147 1 11.0561 -0.0783907 -3.24138 17
148 1 -13.7768 4.62558 -12.4479 11
149 1 1.69722 -0.93874 17.3461 11
150 1 2.34831 14.6987 0.316258 22
151 1 -4.15185 9.12056 6.2364 24
152 1 1.46504 -6.77617 -18.5954 13
153 1 -2.97341 14.2203 8.26454 15
154 1 -10.3491 10.7099 -12.3158 12
155 1 0.821263 -2.99549 9.22364 19
156 1 -14.0452 -6.57344 4.17429 22
157 1 -3.18473 -8.74149 -14.2197 15
158 1 -8.74355 11.395 -9.8822 15
159 1 -5.65273 -9.15785 4.35244 21
160 1 5.37359 -14.3799 -1.08059 15
161 1 -2.06135 10.8902 -10.3456 21
162 1 -16.8157 5.43486 9.20851 11
163 1 9.45838 9.28994 -4.44659 18
164 1 -10.3995 3.9257 14.9909 14
165 1 -2.39502 -8.7774 10.0011 19
166 1 0.404609 13.9127 3.18429 21
167 1 -2.67241 8.19177 9.24358 24
168 1 12.3202 11.1945 10.6746 8
169 1 -7.39221 15.1326 0.735693 15
170 1 11.3778 -2.41306 -6.75279 16
171 1 -6.09696 12.2463 12.6173 13
172 1 9.67403 -10.345 0.337193 12
173 1 -16.5535 0.832737 6.98682 16
174 1 -10.6541 -6.39954 4.34589 24
175 1 8.75523 4.26294 12.146 18
176 1 -17.3077 -0.291512 -1.43256 13
177 1 -3.55553 -12.3717 -0.733926 20
178 1 -4.33118 11.0673 3.25024 22
179 1 3.71143 14.6233 9.6799 9
180 1 -7.31303 12.9177 -11.6351 12
181 1 -15.9247 -3.19691 -11.1536 11
182 1 -12.5453 -3.23147 9.09035 18
183 1 -2.27885 -9.28522 4.55079 26
184 1 2.80411 -12.0075 9.74817 11
185 1 -17.5877 11.6897 2.89661 5
186 1 13.9125 6.61632 1.79359 13
187 1 -7.03946 -6.55441 -11.4974 22
188 1 2.30829 -0.277555 9.81579 20
189 1 3.96788 -14.9935 4.41079 13
190 1 -4.86386 13.9839 -13.6723 9
191 1 10.4991 -8.38649 -13.4671 10
192 1 10.616 -2.76215 -13.0368 13
193 1 1.15882 4.75468 -16.3436 14
194 1 -7.24965 -2.81544 -8.96771 23
195 1 -5.76093 13.5844 -8.32482 14
196 1 -13.318 -12.266 9.42958 11
197 1 1.23727 20.3321 0.114909 13
198 1 -10.4642 0.729867 15.2149 13
199 1 -12.088 12.6808 -3.87919 13
200 1 5.88157 -0.0799131 9.98868 21
201 1 -0.386564 -6.65592 -11.5905 23
202 1 -7.36443 10.6847 -7.02488 19
203 1 -0.308655 6.07887 -14.626 17
204 1 -10.3536 -12.1744 10.3922 12
205 1 -12.0353 6.38331 6.58443 23
206 1 -10.4369 5.43746 9.4018 22
207 1 -0.0260746 -11.96 -5.74163 22
208 1 -8.25098 -14.9933 -0.905138 15
209 1 9.86299 -5.85374 -5.85918 18
210 1 7.8558 9.08777 14.1273 12
211 1 4.64927 5.88717 -9.38914 25
212 1 -4.15949 11.0521 -2.29181 21
213 1 -11.9888 2.41086 4.27692 23
214 1 -15.5924 12.1704 -3.62354 12
215 1 -0.913353 5.62283 9.32158 24
216 1 -2.39608 -16.6996 1.05867 12
217 1 9.02504 -0.382186 -0.728016 23
218 1 -10.4116 5.42035 3.85841 22
219 1 -13.8486 -6.88524 -6.45152 18
220 1 4.70237 -0.202586 -14.1343 22
221 1 -0.804555 -0.340599 9.70116 21
222 1 6.26448 8.70935 -9.24392 22
223 1 2.90839 -8.50401 -3.45645 23
224 1 -3.71964 -1.00978 -11.7498 24
225 1 -4.73774 -15.2585 5.11348 18
226 1 6.09361 -0.625379 -6.11216 22
227 1 -14.1154 -2.33502 6.67132 19
228 1 3.2975 -14.0776 -3.64629 16
229 1 -13.6088 -8.80336 -9.18232 14
230 1 4.11299 14.01 -2.61016 21
231 1 -3.58986 -2.67493 -14.5455 22
232 1 5.34184 3.95631 12.4733 21
233 1 12.1006 3.79031 1.95169 18
234 1 6.91246 -2.81381 -13.9985 22
235 1 -10.4384 -1.04835 -11.9952 22
236 1 -16.7922 -1.1561 -8.17673 13
237 1 -12.7958 -17.0926 6.52409 9
238 1 14.4222 -1.85971 4.73519 10
239 1 -5.2829 -9.4557 -11.6093 20
240 1 -1.84094 7.2936 -12.1122 21
241 1 -7.13784 -8.35889 1.86172 25
242 1 -0.911159 10.8145 -2.43305 23
243 1 -12.2885 -1.02439 12.4613 18
244 1 -10.4313 -6.63306 -6.38061 26
245 1 -8.81226 -3.81247 -11.7764 21
246 1 -2.01504 9.0543 -15.2354 13
247 1 -10.6377 -8.71791 -9.30672 20
248 1 8.92261 -4.06293 -16.0146 9
249 1 6.15097 3.55083 -13.9072 18
250 1 7.85277 2.58498 4.56117 23
251 1 -14.7278 -5.52119 9.10986 15
252 1 -5.39345 -9.48971 -0.781902 24
253 1 3.27194 2.31636 17.5514 14
254 1 -13.1539 -13.2701 -5.18708 9
255 1 -1.92325 -11.1969 1.95692 23
256 1 -5.0851 17.5717 1.06799 11
257 1 -0.130977 -3.33619 -14.6748 20
258 1 -3.72742 -6.69053 -11.6354 23
259 1 -11.8783 -9.19486 10.0274 13
260 1 -0.677225 7.94686 14.2124 22
261 1 1.43003 -9.15463 -0.72217 21
262 1 -8.8593 -11.2507 -8.59371 12
263 1 -12.5017 7.80829 -7.13665 20
264 1 9.24321 3.59876 7.15952 21
265 1 -9.02456 1.69504 -12.0517 23
266 1 1.19126 5.56447 -9.39251 23
267 1 5.5322 -12.7211 -6.45636 15
268 1 -5.60541 18.1315 -5.07973 10
269 1 0.87528 12.3041 5.9784 21
270 1 7.56183 0.698265 7.45576 22
271 1 -12.0113 0.652924 6.89247 22
272 1 -3.93473 -4.00702 12.2549 22
273 1 -10.5942 9.40055 6.52231 22
274 1 1.84598 -2.80512 -16.4839 21
275 1 12.5516 9.51613 -9.66366 6
276 1 4.77058 -10.8819 2.13523 22
277 1 -3.68846 -0.819143 15.015 20
278 1 -17.3438 -2.3285 6.71744 13
279 1 2.12113 -15.1957 -0.791132 13
280 1 -12.245 8.60706 9.39236 21
281 1 -13.1688 9.00944 12.1821 9
282 1 -16.1 -5.29722 6.33605 13
283 1 -15.3465 -7.71573 6.9556 14
284 1 9.05419 -2.00771 -3.04722 22
285 1 -14.6155 -8.6696 9.97794 9
286 1 4.24164 -5.36697 -8.58436 21
287 1 10.6397 -10.3608 -5.38514 14
288 1 0.611331 17.2744 0.874792 21
289 1 -12.3301 11.3464 -9.48902 12
290 1 2.09108 7.61569 14.5463 20
291 1 -13.9795 -0.654196 4.33057 23
292 1 4.36756 -8.82383 -0.232312 21
293 1 -7.73946 11.096 2.92961 19
294 1 3.90064 -8.8676 9.35185 13
295 1 10.9935 -5.08855 1.29902 14
296 1 -3.99741 5.51848 9.33934 25
297 1 -1.9348 6.32099 16.6713 14
298 1 -6.07798 13.7546 3.20284 20
299 1 6.94979 5.79474 15.4733 15
300 1 -9.01265 11.6472 -3.59874 21
301 1 -3.28664 -3.79406 -19.1325 7
302 1 5.05644 -5.77633 -14.1477 19
303 1 -7.94366 5.83581 14.3368 14
304 1 -15.4464 2.52161 4.20318 17
305 1 -7.32383 8.86988 1.10887 20
306 1 5.77447 -2.32857 7.36787 23
307 1 -11.9996 -11.0532 1.80779 24
308 1 4.42018 -5.17364 7.55914 23
309 1 -9.24223 -9.26882 8.7477 15
310 1 -15.9746 10.4925 -1.87951e-04 13
311 1 -4.14985 -0.171155 9.3849 23
312 1 1.39106 -11.302 -8.68789 20
313 1 -6.97139 -1.18575 -12.0253 22
314 1 5.44746 -3.96227 -16.2654 18
315 1 1.10375 11.8623 0.44285 22
316 1 -12.1287 0.233268 -4.0868 22
317 1 1.50372 -9.50028 -11.2072 23
318 1 6.48471 5.2151 -11.4418 22
319 1 -7.24389 -12.3379 -6.34162 15
320 1 -12.4413 -6.04747 -9.31307 22
321 1 6.20672 3.70609 17.3774 10
322 1 12.4291 5.46564 -0.990892 20
323 1 -7.58008 4.83551 -12.401 20
324 1 2.30533 16.6283 4.05086 17
325 1 -15.2539 -5.1006 -3.61487 16
326 1 -9.06283 6.35206 6.39255 24
327 1 -9.84537 12.767 1.69455 20
328 1 -7.29289 5.60855 9.45531 26
329 1 8.98517 5.83699 9.75693 23
330 1 7.78478 -3.59466 -6.01477 22
331 1 -0.00500227 -1.0118 15.0384 17
332 1 11.0439 3.9147 -8.94134 14
333 1 -3.36019 -14.6228 -7.89957 10
334 1 -0.839354 11.2092 2.98767 21
335 1 -12.0428 1.9875 -6.67506 22
336 1 6.84713 -13.6622 -3.37484 11
337 1 11.1039 0.774973 6.71215 21
338 1 -10.6369 -1.22119 -6.32901 24
339 1 -8.93393 -9.64513 4.22919 20
340 1 -10.676 -6.04968 9.30163 21
341 1 -5.7239 11.7924 0.560178 22
342 1 -13.9838 -8.57703 -3.63265 18
343 1 3.76205 6.66605 17.0293 12
344 1 -12.0099 8.07987 -1.56396 22
345 1 -1.20408 10.501 -7.48334 23
346 1 2.51586 11.1307 3.19887 23
347 1 -17.8941 -5.28787 -0.88532 10
348 1 -2.06943 -9.16262 -6.27293 22
349 1 -13.9594 -0.0255518 8.90946 19
350 1 -17.0354 7.01014 -4.50161 14
351 1 1.30939 -9.12599 4.76767 25
352 1 -7.44654 -14.3432 -3.5123 12
353 1 8.72275 11.2867 9.49153 16
354 1 6.2972 6.51933 -14.3971 17
355 1 -13.5947 4.9101 -6.47819 19
356 1 -4.69967 15.2291 -4.54995 17
357 1 -10.6429 4.88677 -6.66737 22
358 1 -3.96165 -11.9866 4.71245 22
359 1 10.6469 8.64844 4.45225 22
360 1 1.33974 8.36604 -15.6637 12
361 1 -13.6206 3.29542 1.5681 21
362 1 -7.173 -14.2883 1.69662 18
363 1 8.05844 -3.34634 -11.3046 18
364 1 -16.7338 4.18515 6.12529 11
365 1 -15.6267 -2.74081 9.8278 15
366 1 -13.6833 9.17555 6.35453 22
367 1 -11.3968 3.07901 -14.4663 15
368 1 4.42215 -9.30534 -10.9141 21
369 1 -3.85792 -8.39747 -8.68684 23
370 1 -9.12982 -3.13856 9.34302 22
371 1 -7.00792 2.90828 -14.5312 19
372 1 6.17214 -12.1695 4.65784 17
373 1 -0.336044 15.7813 -7.78727 13
374 1 -13.2293 12.1104 5.8542 14
375 1 -0.399129 2.9804 16.8806 13
376 1 -14.3485 -6.24467 -11.7787 11
377 1 -10.8263 -8.17652 6.76899 17
378 1 9.03017 -7.57057 7.04041 14
379 1 9.70851 -8.08534 2.62716 17
380 1 12.7482 9.45679 -3.82008 12
381 1 -6.82803 1.43937 11.843 21
382 1 2.33586 10.518 -7.5708 20
383 1 -0.0356545 -14.4866 -3.19542 17
384 1 -5.26068 5.47909 15.1996 16
385 1 -1.01903 15.2467 5.7752 18
386 1 -11.8756 -10.2055 -11.9203 7
387 1 7.22175 14.1019 3.233 16
388 1 4.1668 6.67826 6.4088 21
389 1 -10.8389 -0.261679 9.52762 22
390 1 -7.04754 -8.48708 -3.47004 25
391 1 -16.0484 3.47684 12.4205 11
392 1 -12.3362 -4.14352 -6.63549 22
393 1 -8.78623 12.4156 5.54007 17
394 1 -5.61627 -9.24339 -5.93752 23
395 1 -4.21043 -7.62019 -16.2492 11
396 1 -8.6742 -11.2858 1.73212 22
397 1 5.96532 3.60259 6.9183 21
398 1 -7.33539 -4.16725 12.0564 23
399 1 -12.4018 5.47042 -9.64148 19
400 1 7.64046 6.37956 1.58166 24
401 1 -10.3856 -11.8511 -0.957216 20
402 1 -0.546186 19.6116 2.65959 11
403 1 -0.911424 11.3879 8.81213 24
404 1 -13.961 -0.294668 -1.19229 22
405 1 -1.94155 18.1703 0.212155 16
406 1 6.44294 11.5325 -10.2979 10
407 1 -8.71741 -5.88931 -9.17708 21
408 1 0.816206 4.88348 14.9918 22
409 1 0.175899 -14.0727 -8.83627 14
410 1 -1.97885 0.153749 -14.406 23
411 1 6.35756 -13.9042 2.03247 14
412 1 -11.0352 11.153 4.1529 21
413 1 2.26782 3.99197 12.4289 23
414 1 7.44844 8.27845 -1.16327 24
415 1 2.20506 11.1171 -2.26271 23
416 1 -10.2938 8.82628 -9.56167 23
417 1 -12.2622 -3.5516 -1.35102 21
418 1 -0.855372 14.654 0.202327 22
419 1 -9.77928 2.24211 -16.3779 10
420 1 8.69178 9.61975 0.817022 22
421 1 5.13297 15.2694 -5.2499 16
422 1 10.9467 2.49389 -1.15355 18
423 1 -3.82816 2.61341 -14.6869 23
424 1 0.926503 -10.9413 7.21275 22
425 1 -2.29796 -11.9698 10.6209 11
426 1 -10.3754 2.91011 -9.346 24
427 1 -7.24467 -12.1669 4.81566 22
428 1 3.24449 -11.59 -12.6158 11
429 1 5.57502 11.0393 2.78483 21
430 1 -0.386112 2.53743 -14.1327 22
431 1 1.89962 1.9133 14.6755 25
432 1 -13.5432 1.94317 12.5834 20
433 1 -2.84068 -13.6691 2.55976 18
434 1 -13.8375 -2.43149 1.39401 22
435 1 12.5965 -5.48067 -5.37784 13
436 1 7.3181 0.307672 -3.62242 23
437 1 1.10655 -9.10189 -6.07827 23
438 1 1.03382 1.82276 -11.7853 23
439 1 11.5283 -5.30516 -8.72325 17
440 1 -5.60482 -3.46042 14.4662 11
441 1 2.34619 16.6117 -1.97172 19
442 1 -5.29961 -0.0497899 -14.752 21
443 1 4.44607 4.75433 -16.7006 13
444 1 -8.88551 -5.31433 6.61391 24
445 1 -2.08758 13.4891 -2.7764 18
446 1 -10.2643 -3.23369 -14.298 14
447 1 -15.68 0.640314 1.31991 18
448 1 -0.841622 -7.55488 -16.0247 16
449 1 -7.38852 -11.3573 10.3146 16
450 1 4.33197 7.9154 -6.77142 22
451 1 10.764 2.84051 9.77086 20
452 1 14.2087 8.36646 -1.09038 13
453 1 -12.1658 -9.34057 -0.722675 25
454 1 -4.09986 -0.907297 -17.4125 13
455 1 -10.8451 11.4958 8.10405 16
456 1 7.69094 -3.71948 -0.747342 22
457 1 -3.6927 15.8385 -7.27263 12
458 1 12.6817 5.08824 -6.38176 16
459 1 -1.51761 10.036 16.9996 11
460 1 -12.3369 2.90668 9.43691 21
461 1 2.09559 9.56843 12.4776 20
462 1 5.72554 -1.57588 13.1481 20
463 1 -0.884922 1.8545 -18.2554 11
464 1 -7.18925 -6.66902 -6.2484 25
465 1 -2.51623 2.58084 9.34128 25
466 1 6.92537 8.43517 9.46282 21
467 1 6.06345 2.92368 -8.81187 23
468 1 -7.20909 8.97018 -4.11188 22
469 1 2.43112 14.2305 -6.03085 18
470 1 11.6207 -4.90941 7.56824 13
471 1 10.1879 -0.33247 -11.0649 15
472 1 8.09649 -8.73922 -5.83551 21
473 1 9.90181 6.23996 13.5959 14
474 1 -15.3267 -9.67479 -1.23607 16
475 1 -6.78368 10.9419 -13.3401 16
476 1 -13.5841 0.146252 14.8254 11
477 1 -4.12866 13.5425 -10.7268 16
478 1 3.12873 -12.0594 -0.439382 21
479 1 2.80795 -2.62426 -8.81792 24
480 1 -3.30199 18.5101 -2.38757 12
481 1 -8.28428 -5.62874 -13.9281 14
482 1 2.93069 -11.8438 4.21083 20
483 1 -15.5295 -5.59577 1.51341 20
484 1 -0.405414 10.6319 -13.4304 14
485 1 -6.24477 8.82385 14.286 14
486 1 -12.5269 -5.19708 6.61374 20
487 1 0.182011 -9.47521 -13.6927 16
488 1 -0.623185 -6.1274 9.60222 21
489 1 -12.3606 6.19239 1.36002 23
490 1 3.94555 -0.173912 15.65 14
491 1 4.95184 17.9315 -5.26803 9
492 1 13.0887 -8.48667 -4.15418 8
493 1 0.437959 6.5534 11.7604 23
494 1 -2.08604 3.57012 -16.35 18
495 1 -14.093 -13.9516 6.63882 12
496 1 3.85716 -0.784049 -17.1293 14
497 1 0.22571 18.3329 5.10584 9
498 1 10.6171 6.43762 -10.6858 12
499 1 -6.70769 -8.3474 -14.0577 14
500 1 -5.45288 -11.4438 -3.36949 21
501 1 -12.3134 -3.85133 -11.6457 18
502 1 9.19588 3.41242 1.67451 24
503 1 14.2898 6.14534 -3.73642 13
504 1 2.95601 -8.56575 -8.53682 23
505 1 6.20996 10.3323 12.0182 18
506 1 4.71939 -8.77702 -6.04651 21
507 1 2.95219 2.60865 -14.3659 23
508 1 5.63218 14.9593 0.335177 21
509 1 4.80996 9.02585 14.7795 13
510 1 11.1094 8.45675 -1.26311 22
511 1 9.21384 -2.39007 7.51585 24
512 1 13.4341 6.70886 -9.13246 11
513 1 7.67419 -2.76002 10.2309 20
514 1 13.6396 3.2603 10.4822 16
515 1 -2.57119 -3.27194 9.34496 21
516 1 10.1024 13.2298 -3.58664 9
517 1 -1.59356 1.81559 14.7981 23
518 1 11.2892 1.75648 -6.19988 14
519 1 7.15938 2.77026 9.73751 23
520 1 -8.89226 -0.385492 -9.47961 21
521 1 10.5545 6.54007 1.45026 22
522 1 -14.8574 8.29937 9.78237 15
523 1 3.58499 11.8938 11.2705 13
524 1 10.2953 1.13603 12.7676 20
525 1 2.18958 9.3642 6.64768 22
526 1 0.324173 14.3695 8.57186 16
527 1 -5.35376 -16.9875 2.15997 13
528 1 -8.83784 8.13074 -1.73707 22
529 1 5.72127 9.09305 -4.13454 22
530 1 6.98202 -1.12924 -16.5934 12
531 1 -1.09248 16.4272 -2.64972 18
532 1 -3.72509 -12.1259 -5.8862 23
533 1 9.09864 -5.63381 -13.7064 17
534 1 -13.7464 5.09757 9.20308 18
535 1 -5.205 7.7758 -11.9451 23
536 1 -13.3122 -12.5874 -0.798411 15
537 1 -8.70636 -0.38315 -14.4551 20
538 1 -13.7347 2.93745 -4.31752 21
539 1 7.75599 -5.48868 2.09899 23
540 1 8.64066 9.50971 7.21497 24
541 1 -0.635368 -8.10543 7.05699 22
542 1 -13.6293 -0.784692 -7.00012 24
543 1 1.75563 1.82553 -17.1503 15
544 1 -4.53979 2.20829 14.8681 21
545 1 1.47488 7.49914 -12.0301 23
546 1 12.7764 2.0562 12.7937 12
547 1 7.90151 2.19198 -6.19721 19
548 1 11.8421 11.3832 4.56587 15
549 1 2.12222 -14.5441 -6.72059 14
550 1 -11.2517 -5.17188 14.6478 11
551 1 12.8442 0.360348 3.57724 14
552 1 -3.03412 12.592 11.5402 17
553 1 5.0707 8.37996 -11.8902 17
554 1 -17.2726 10.0134 -2.82856 14
555 1 7.3924 12.4777 0.492649 18
556 1 -12.4782 -11.3186 -3.32347 22
557 1 9.61897 -0.31413 4.47183 20
558 1 2.84255 19.6024 3.16441 12
559 1 -8.79523 2.73351 9.18974 23
560 1 -14.0157 -8.33308 1.43485 24
561 1 -10.6841 -2.77476 -8.91388 23
562 1 11.2344 -2.90414 9.86878 16
563 1 -8.71451 -14.8107 9.88533 12
564 1 8.50301 3.09024 15.0672 15
565 1 -7.48936 11.1272 -1.37556 22
566 1 -1.26229 -1.18234 -17.3077 20
567 1 -10.6195 -2.3253 6.61768 24
568 1 6.02244 -2.79517 -8.5918 25
569 1 11.6572 -8.17056 -7.36049 14
570 1 3.96253 6.83309 11.9177 19
571 1 -10.492 -2.26629 15.1506 14
572 1 10.6377 6.65706 6.96767 23
573 1 -1.52776 -2.08303 12.337 17
574 1 -5.75775 8.28528 9.17563 24
575 1 -2.13046 -5.64391 -14.1144 22
576 1 -10.4243 1.7277 12.0813 21
577 1 7.43703 1.35912 12.3919 22
578 1 -9.01047 -12.8854 6.73659 16
579 1 12.4198 9.49244 1.71063 17
580 1 4.68454 -11.0906 -2.99334 25
581 1 7.22836 14.316 -2.10969 15
582 1 7.33974 12.5388 6.17138 16
583 1 1.25344 -0.730432 -19.2179 11
584 1 5.91077 10.9077 -6.97626 18
585 1 9.06921 5.53716 4.37346 23
586 1 -8.62599 -9.2588 -0.58076 25
587 1 -5.47595 4.96852 -16.5188 12
588 1 -12.4747 12.2251 0.446301 16
589 1 6.21547 -6.52884 -11.1432 23
590 1 7.90906 5.75805 -8.79487 20
591 1 12.2131 11.2631 -0.898158 13
592 1 7.78581 6.35679 -3.79094 23
593 1 13.24 5.81737 12.5577 12
594 1 11.3466 -0.862599 14.7797 9
595 1 -3.71219 -13.3343 7.8747 19
596 1 -5.17787 9.15547 -15.7706 11
597 1 3.86465 12.5414 5.977 21
598 1 7.39491 -7.47997 -15.805 10
599 1 7.83581 15.9206 -4.89549 11
600 1 4.16958 11.9166 0.171159 24
601 1 11.1369 -3.03788 -0.9752 17
602 1 5.61742 1.76234 15.0087 21
603 1 -15.7337 -3.59126 3.98065 16
604 1 2.01886 -13.8889 6.83235 17
605 1 -10.8906 15.6055 1.40391 10
606 1 2.63697 9.02629 0.840437 21
607 1 -17.2239 -2.47915 1.33814 14
608 1 -7.55195 2.82717 14.8005 14
609 1 -9.21874 9.19511 -14.5914 11
610 1 -7.03068 8.48299 -9.27187 23
611 1 -0.403769 -12.092 -0.608096 21
612 1 5.94029 5.00069 -6.49903 22
613 1 -14.8094 6.44624 12.8457 12
614 1 3.33834 -2.90745 -14.0653 23
615 1 4.0273 -10.864 6.76093 22
616 1 0.910066 13.614 -2.69478 20
617 1 -4.94113 1.03662 17.5952 7
618 1 -10.619 -6.86775 -11.8691 17
619 1 -2.13647 -9.69705 -11.3665 22
620 1 -8.90147 -9.72162 -6.28865 24
621 1 -2.65223 17.5024 -5.53751 12
622 1 1.0346 -5.55142 -8.66231 24
623 1 -5.61392 12.203 5.7661 21
624 1 6.47554 -8.06701 -8.5163 20
625 1 1.46694 -16.3367 2.4542 11
626 1 2.41805 -5.69562 9.88157 20
627 1 11.6824 0.329197 -8.73241 12
628 1 -1.53168 -14.7916 -5.76534 14
629 1 -14.0288 -3.90199 12.2086 13
630 1 -11.5202 -13.7634 0.981135 17
631 1 -8.69591 -11.104 -3.2505 24
632 1 -13.3945 3.95044 14.6077 14
633 1 -5.16404 -15.0129 -0.803984 17
634 1 14.0514 8.12492 -6.49734 10
635 1 -2.67784 13.8261 2.80491 23
636 1 -15.222 7.82272 -1.79223 19
637 1 10.9553 2.76631 4.44199 17
638 1 -13.9213 -2.6673 -9.48995 21
639 1 0.871866 11.5857 -5.10782 19
640 1 7.5629 0.0317556 -8.71853 21
641 1 1.79352 8.81024 17.2463 12
642 1 9.57213 3.26188 -3.92745 19
643 1 -15.8113 0.510597 -3.90843 19
644 1 -15.399 -3.47857 -6.67559 17
645 1 -3.42947 7.87375 15.2021 15
646 1 3.31014 4.34515 -11.7396 21
647 1 10.5344 11.8062 7.55524 14
648 1 -5.52103 -1.40162 12.0124 23
649 1 -2.2532 -15.3125 -1.72153 12
650 1 -9.22767 -16.3341 7.30593 15
651 1 -5.59243 -6.67361 12.0787 15
652 1 13.8435 8.7092 10.689 11
653 1 -0.375005 -8.63689 -8.71924 22
654 1 -10.5975 9.42133 1.3719 24
655 1 4.17956 8.47129 3.81927 20
656 1 -12.3291 -3.65249 4.26379 22
657 1 8.11434 7.78608 -11.7645 14
658 1 -3.68245 -14.1246 -3.79418 16
659 1 -1.90034 -17.0825 3.9123 13
660 1 -3.06269 -16.1846 7.37576 9
661 1 2.72254 3.04983 -9.10633 22
662 1 3.80696 18.2028 0.257669 15
663 1 -6.66716 1.66171 -16.9068 14
664 1 -2.85397 0.849177 12.3574 21
665 1 -7.02405 6.99388 -14.6725 15
666 1 -13.5165 -1.04764 -12.1356 14
667 1 -12.2008 -5.51507 1.49225 22
668 1 0.0888053 19.0452 -2.88917 12
669 1 -7.03869 -3.04965 -14.698 16
670 1 9.20241 5.23496 -6.17333 20
671 1 8.77734 -6.98085 -0.449431 18
672 1 -8.96669 8.23459 8.87703 23
673 1 4.55263 -9.05024 4.6116 23
674 1 9.38902 -2.25785 2.07534 23
675 1 9.80363 -5.84104 4.72673 17
676 1 -0.894117 9.18619 6.54654 23
677 1 -11.4651 6.88967 14.2072 11
678 1 -8.7836 4.49306 11.9398 22
679 1 -10.8715 -17.8407 4.4855 10
680 1 0.84752 8.79631 9.26292 21
681 1 -15.2459 2.38668 -1.28673 19
682 1 7.87942 -5.37385 -3.42013 19
683 1 -10.813 10.7055 -6.5841 18
684 1 -0.359532 -13.451 8.75358 13
685 1 3.68429 1.08326 12.2341 22
686 1 -4.06574 14.9897 5.34744 14
687 1 -0.483217 -11.7911 4.59915 20
688 1 0.612672 2.88784 9.6554 23
689 1 -15.5397 -3.56748 -1.11154 22
690 1 3.81894 4.3724 15.4372 19
691 1 5.76309 16.9265 -2.42396 15
692 1 -15.0688 -11.1744 1.24852 16
693 1 -7.65788 -16.1411 4.32857 15
694 1 4.05056 -2.89024 10.0205 22
695 1 11.1029 -3.14043 5.05524 17
696 1 7.50571 6.38954 6.91462 21
697 1 -7.17108 -8.65013 -8.80614 23
698 1 -5.58658 1.8541 -11.8834 23
699 1 -2.03945 -3.69953 14.927 12
700 1 -1.79671 16.5706 2.83024 18
701 1 12.4399 3.49802 7.35553 22
702 1 1.17919 7.66413 -6.96802 24
703 1 -5.82798 6.74567 11.9292 23
704 1 7.2335 6.75157 12.2776 20
705 1 4.63462 -3.65412 -11.3629 26
706 1 -6.90366 -12.4888 -0.607991 22
707 1 15.7416 3.36676 8.06807 9
708 1 1.262 -3.82946 -11.673 24
709 1 -2.57436 6.66792 11.8046 22
710 1 7.63256 -11.0346 -4.92786 19
711 1 7.72331 3.72573 -16.2809 11
712 1 8.85381 4.85958 -13.131 13
713 1 11.2527 0.394832 0.902788 16
714 1 0.992705 -8.84017 9.93167 14
715 1 -1.89039 -11.4505 -8.47232 24
716 1 7.31242 13.5156 -7.70325 11
717 1 -14.071 3.39002 6.42349 20
718 1 11.0174 6.39638 -3.74403 21
719 1 14.2805 6.54089 6.61003 13
720 1 -1.65628 -7.08534 -18.9115 11
721 1 -8.95749 15.1487 3.99642 12
722 1 15.2857 5.80059 9.93606 11
723 1 7.56222 8.08475 -6.4433 22
724 1 1.4037 -0.22146 -14.5442 21
725 1 5.86857 -6.36118 -0.599576 23
726 1 -12.1228 2.14811 -1.2358 25
727 1 5.98369 5.32816 4.26444 23
728 1 -14.2292 -6.51934 -1.07401 22
729 1 -11.8975 7.6841 -12.3545 17
730 1 3.76584 2.68422 9.54532 22
731 1 -17.2467 -2.12026 -4.81829 10
732 1 -12.1 4.73587 12.1149 24
733 1 -5.47128 5.6031 -9.38258 22
734 1 7.94878 -5.54498 -8.87846 19
735 1 -12.1213 -9.81617 -6.29222 16
736 1 9.25461 -8.97658 -2.6637 18
737 1 -15.4487 6.38214 0.622665 12
738 1 -12.1907 -5.61499 -3.72853 24
739 1 9.23209 8.45916 11.2524 20
740 1 -5.7527 -10.8283 7.15598 19
741 1 7.91143 -0.378666 14.8756 13
742 1 12.9779 -1.86413 7.83472 16
743 1 7.7553 -3.46158 4.85946 21
744 1 -14.063 5.07874 3.60792 18
745 1 3.84794 8.85636 9.43664 22
746 1 2.89066 8.31661 -9.6826 22
747 1 -1.24008 -4.46156 -16.9795 20
748 1 -7.12445 14.979 7.11408 10
749 1 -14.0077 -10.5664 6.99519 14
750 1 5.54306 11.1874 -1.94277 20
751 1 -0.901681 9.62815 11.6184 21
752 1 12.3967 -3.05021 -3.52236 10
753 1 7.23394 -5.03925 7.46297 23
754 1 -1.40658 13.4698 -11.9856 10
755 1 0.885873 12.9011 -8.29421 19
756 1 -7.1879 -0.481715 9.41949 20
757 1 12.1377 5.85282 9.73698 21
758 1 -2.03944 -3.73028 -11.3849 25
759 1 10.5818 12.3848 1.75076 11
760 1 -13.8568 4.86338 -2.02449 21
761 1 -4.80633 -10.3218 11.6375 12
762 1 2.94282 16.1242 -7.89396 10
763 1 3.96144 -4.62545 12.2893 12
764 1 -1.96317 -11.3497 -3.50559 20
765 1 -5.47813 17.1274 -1.78725 14
766 1 -17.1666 5.14313 -1.60151 11
767 1 9.47394 -2.36056 -8.55995 21
768 1 3.00095 -8.58903 -13.7654 21
769 1 -9.10567 8.43055 3.71375 23
770 1 10.8718 7.69593 -7.69273 20
771 1 3.46309 -4.25157 -18.5868 13
772 1 -8.80011 -9.3709 -11.7635 15
773 1 1.30449 -11.3612 -3.28038 23
774 1 -3.48856 10.9362 14.6014 12
775 1 10.2059 -12.1462 -2.60421 10
776 1 -3.59117 10.3314 -12.7908 22
777 1 12.6929 3.12834 -3.72404 14
778 1 5.75971 9.14398 1.05965 21
779 1 -0.165623 -14.2838 1.07451 15
780 1 0.0856969 -3.74285 -19.2094 14
781 1 9.27298 5.38958 -1.07121 24
782 1 -3.8068 4.69968 -11.9476 22
783 1 -3.81036 -8.42886 6.95314 21
784 1 2.61178 8.50887 -3.99892 22
785 1 4.15284 0.20096 -8.92421 22
786 1 -12.3735 6.26924 -4.07698 23
787 1 -15.7533 6.60815 6.57397 13
788 1 -2.56619 5.02335 13.9598 20
789 1 -11.657 -12.0053 5.52508 16
790 1 5.13387 9.79041 6.66404 19
791 1 -1.07505 -14.3603 5.89674 22
792 1 1.37462 10.4557 -10.5498 17
793 1 -7.54185 11.0769 8.16429 24
794 1 -9.0802 -1.49871 12.0476 22
795 1 -10.2935 10.7282 10.8941 14
796 1 -7.53461 -6.18669 9.5104 22
797 1 2.47084 -7.94457 7.27784 23
798 1 5.6733 5.61237 9.49676 22
799 1 6.25574 -6.24639 -5.92287 23
800 1 9.25373 -6.26836 -11.118 20
801 1 -12.1403 -0.17626 -14.852 11
802 1 -9.66677 5.6407 -14.9204 16
803 1 5.55699 15.5059 5.47366 11
804 1 -9.21297 -6.9421 12.1477 15
805 1 -5.86714 7.54886 -6.58275 21
806 1 -14.075 8.9973 -4.55287 22
807 1 8.81935 11.221 3.72151 18
808 1 -12.7759 -15.1954 3.77979 17
809 1 10.9447 8.85633 8.91284 20
810 1 -10.4976 -12.7501 -5.55972 15
811 1 5.09316 17.0949 2.67688 15
812 1 -8.41082 -5.45068 14.9645 10
813 1 -0.204605 -11.8728 -11.6501 15
814 1 14.5169 0.773679 6.66346 12
815 1 0.844782 -16.8714 5.24701 9
816 1 1.19175 5.40831 18.0046 11
817 1 7.78059 0.934088 -13.662 18
818 1 6.37364 -8.1327 2.10955 23
819 1 -0.548375 -1.00221 -11.5405 26
820 1 -15.1168 0.195149 -9.87243 15
821 1 -8.90745 7.71887 -11.9824 24
822 1 -4.47439 3.90938 12.0005 19
823 1 9.32871 -5.60752 9.69015 13
824 1 -12.374 -9.29046 4.35155 20
825 1 12.9404 -2.1985 1.98505 11
826 1 -0.181227 4.70587 -11.9136 20
827 1 14.0111 8.53331 4.24675 13
828 1 -2.04981 15.2576 10.8985 8
829 1 -17.8367 -7.26568 4.44226 9
830 1 3.08639 -11.8259 -5.8017 21
831 2 -16.2072 -1.77828 -9.87944 14
832 2 -3.87905 10.8489 -9.38448 22
833 2 -3.56351 -2.84337 -11.8144 20
834 2 -5.77622 6.36193 8.55152 25
835 2 6.15894 -8.65779 -11.4721 19
836 2 -8.79768 -5.58969 -7.00885 23
837 2 -2.4886 2.77293 11.8144 22
838 2 2.30871 -1.23884 15.2657 13
839 2 -14.7939 -11.5665 -0.655451 15
840 2 -17.3965 8.32347 -5.99492 11
841 2 -0.555447 10.9765 6.1849 19
842 2 -12.331 0.540145 3.67589 19
843 2 1.37477 16.0265 -6.54608 12
844 2 7.59252 6.53035 3.52989 23
845 2 1.30041 13.4459 -4.65096 19
846 2 8.29675 14.3935 -3.85797 14
847 2 -13.7864 4.24211 -10.5274 13
848 2 -12.1921 -5.92682 -7.14906 21
849 2 4.04301 0.714001 9.54649 19
850 2 4.27604 -3.67494 -9.36242 23
851 2 1.64122 -14.9331 1.15161 15
852 2 -10.334 9.10703 -2.38166 23
853 2 -15.2978 0.0354594 -7.74005 19
854 2 7.50084 2.47946 6.49841 23
855 2 11.7676 -3.57731 -5.23837 16
856 2 -10.4404 -8.35484 -1.50284 23
857 2 -14.3591 -6.06367 6.70568 18
858 2 -5.61863 -11.1628 4.0471 21
859 2 10.809 -5.98517 2.94238 11
860 2 0.371382 -13.7442 -6.14994 20
861 2 -0.243754 -1.31777 16.9031 11
862 2 -0.460237 10.3284 -9.24333 23
863 2 -2.18175 -16.0557 5.5386 14
864 2 -12.1525 -11.7401 -5.59486 13
865 2 0.6757 2.78124 11.7435 25
866 2 -10.9664 9.39101 3.25948 22
867 2 -5.83272 2.23252 16.3744 11
868 2 -8.88203 8.08682 -4.66169 23
869 2 2.15002 -10.3959 9.62506 14
870 2 -6.03948 8.15771 5.63264 22