ITEM: TIMESTEP
25000
ITEM: NUMBER OF ATOMS
2000
ITEM: BOX BOUNDS pp pp pp
-30.0 30.0
-30.0 30.0
-30.0 30.0
ITEM: ATOMS id type x y z Coordination
1 1 -3.81501 4.95285 -15.3138 16
2 1 -5.58378 -13.7686 -8.46915 15
3 1 4.69878 6.23331 15.2873 19
4 1 0.232844 -18.7237 6.84703 15
5 1 -11.5061 5.88725 4.01929 19
6 1 9.11804 -11.2894 -1.07265 19
7 1 -9.33441 0.858722 -4.02147 22
8 1 0.743057 -12.9996 12.8059 13
9 1 -8.55514 -2.52462 -12.3686 21
10 1 -9.65094 -8.57037 4.16069 19
11 1 11.5541 -0.972513 -12.4319 12
12 1 -4.49084 -13.4617 0.933839 18
13 1 -13.8823 -11.1254 5.17341 10
14 1 5.57423 0.678688 15.7086 16
15 1 6.57711 -7.80249 12.7877 10
16 1 0.54189 0.609739 6.91757 21
17 1 5.24611 -5.54603 4.44903 22
18 1 -2.51859 7.46158 -8.37373 22
19 1 2.05996 2.2226 12.4751 22
20 1 -7.01903 -6.41862 -16.2697 10
21 1 -11.0661 -3.03175 6.19294 18
22 1 11.1647 -0.989899 7.93266 19
23 1 0.578779 6.9001 -16.123 13
24 1 2.94699 2.63093 -14.831 19
25 1 8.63874 -2.85177 13.942 19
26 1 -7.80675 -2.02227 1.24388 23
27 1 -9.06181 9.11476 -11.8157 9
28 1 -2.17918 -4.00879 -8.98633 24
29 1 -11.6936 10.1908 7.14607 14
30 1 1.07152 -16.0081 6.08745 21
31 1 -1.23552 -2.07471 6.9204 22
32 1 4.86986 -16.6412 -8.27635 17
33 1 10.5583 -11.0408 1.24304 16
34 1 -2.78822 -13.7481 -7.39056 20
35 1 -4.51763 -11.8788 9.21627 24
36 1 5.52937 -7.62534 -14.2378 20
37 1 9.90645 -9.57444 -10.378 14
38 1 -1.76187 2.5702 -17.3768 18
39 1 5.94702 0.0782468 9.62208 18
40 1 0.432773 -14.3062 8.87941 21
41 1 8.32907 -5.60373 15.0902 10
42 1 -14.0357 4.21106 1.9157 17
43 1 -11.5455 -1.05369 8.35684 16
44 1 -7.91374 -0.146514 -1.27299 20
45 1 5.3594 14.4988 -5.06776 11
46 1 1.78495 -18.1341 -8.19948 13
47 1 2.73517 -1.65103 -9.19217 23
48 1 5.95308 -5.93316 -11.8227 21
49 1 -0.00887953 -8.14826 12.9964 14
50 1 -14.644 5.85246 -0.917879 13
51 1 0.943129 6.09739 -11.2166 19
52 1 3.80529 11.9294 8.61241 17
53 1 -5.03025 12.0851 -5.87783 18
54 1 0.834397 15.466 0.565676 16
55 1 -0.999279 -13.6772 6.42073 22
56 1 5.74704 -7.2824 -3.87314 20
57 1 4.40974 -7.45437 -17.0173 14
58 1 -4.05122 12.5619 12.1992 16
59 1 -14.5299 -4.11413 -6.85021 11
60 1 5.68095 0.330337 4.67149 23
61 1 -9.11971 7.16774 1.04479 19
62 1 -12.5483 -8.79534 3.87451 17
63 1 -6.76432 14.008 11.4321 7
64 1 -6.2105 13.9204 -8.92964 14
65 1 -2.86863 6.77419 12.234 17
66 1 2.57084 0.0691267 -6.46342 21
67 1 -5.4744 -12.931 6.34227 20
68 1 1.84182 3.61105 6.97828 22
69 1 7.21407 -14.3979 -0.878772 15
70 1 -0.337597 6.08434 19.3399 10
71 1 -8.87948 1.51608 -9.20881 22
72 1 -7.805 12.9215 -6.39766 18
73 1 5.50564 10.6352 11.4001 20
74 1 13.9394 -1.86291 -7.82374 17
75 1 10.5546 -13.2337 3.78142 7
76 1 -14.6369 0.418931 7.42377 14
77 1 -7.7559 -5.60374 -1.07257 22
78 1 7.21742 11.4976 3.37031 15
79 1 1.97576 -1.62983 11.8609 18
80 1 -6.31904 -14.5887 2.82584 18
81 1 -7.873 -2.09526 6.57286 24
82 1 7.31334 3.32796 9.67529 19
83 1 5.98681 -1.61397 -3.62484 24
84 1 1.94229 9.17807 7.76225 24
85 1 2.36066 -1.72768 7.2711 22
86 1 -7.59928 -6.10318 2.97706 22
87 1 -3.94135 -6.93065 -9.70304 21
88 1 -11.8414 2.64778 4.89141 18
89 1 1.75574 11.8359 -0.82436 19
90 1 -4.28105 4.4395 -8.95415 21
91 1 7.8455 -2.40189 -6.47499 20
92 1 11.3257 6.81218 -8.82373 16
93 1 9.08846 -10.0073 4.04392 16
94 1 4.12308 -9.37003 9.42824 18
95 1 -2.93944 15.622 -5.52994 17
96 1 -7.85204 9.95869 2.18737 19
97 1 -6.23553 0.871983 12.2331 20
98 1 -9.60098 8.92215 4.42945 20
99 1 -4.79435 -4.09944 15.3678 10
100 1 12.0486 -12.0921 -5.80532 13
101 1 -9.13699 -3.07695 3.67589 23
102 1 -9.15772 -14.7916 3.52553 17
103 1 10.4076 -15.1291 -6.06735 13
104 1 -1.13195 -0.743393 -17.4515 16
105 1 -6.43793 -2.97248 -17.2772 11
106 1 0.859423 14.4384 3.88089 14
107 1 -10.825 3.25417 -3.7809 20
108 1 -3.25627 7.93313 16.9955 8
109 1 -1.69255 11.7291 -1.18043 21
110 1 -15.7124 9.65748 -0.524602 10
111 1 0.353188 6.77681 1.55046 21
112 1 -4.43495 -6.05427 9.78259 18
113 1 12.7391 -6.11434 8.38728 10
114 1 -0.365602 -6.90709 -9.31154 24
115 1 0.852717 -9.98818 -9.70538 22
116 1 -2.9393 1.00501 6.98586 21
117 1 5.95387 -2.861 11.8064 18
118 1 -11.2629 -7.76435 1.2924 20
119 1 5.55663 -7.44232 1.55379 21
120 1 -11.3195 -6.83412 -4.06133 23
121 1 9.21206 -7.86426 1.28447 19
122 1 -6.35398 6.92468 1.72498 21
123 1 6.03932 4.64001 -14.2461 17
124 1 4.51858 13.4742 -2.475 19
125 1 -2.04369 -13.8101 10.8714 19
126 1 -6.47265 -14.0006 9.30793 14
127 1 3.13253 -11.0549 -12.2631 18
128 1 3.9485 3.22165 -6.3904 24
129 1 12.4888 -7.67737 2.01038 16
130 1 -2.23526 -16.3323 5.21023 21
131 1 -11.0838 -11.7383 -1.5552 17
132 1 17.1135 5.48837 8.45167 11
133 1 15.9289 -1.19374 -2.2711 12
134 1 -15.1073 -6.40587 7.10471 11
135 1 8.8586 5.97373 9.79727 21
136 1 13.4051 9.6093 4.76297 9
137 1 1.52177 0.487554 20.6068 9
138 1 6.98556 3.05366 -1.09165 21
139 1 -6.31666 8.91086 10.3483 18
140 1 -3.55922 12.9968 -3.79589 19
141 1 8.71107 -8.64003 -13.5623 13
142 1 8.31384 -15.3054 -8.62647 17
143 1 1.91721 10.3547 -10.0482 14
144 1 9.7269 -2.21801 10.8396 18
145 1 -4.50238 0.0593189 -17.8461 13
146 1 -4.38478 3.97789 -3.7243 23
147 1 7.28895 -2.46381 -0.650014 22
148 1 -11.9117 7.06321 -6.59482 12
149 1 -6.62299 12.8835 -2.9068 23
150 1 9.35703 -1.37166 -9.58163 20
151 1 10.9776 -8.00688 -0.951349 22
152 1 -5.46945 1.59823 -9.26281 21
153 1 -8.69015 12.0498 8.95704 10
154 1 8.98404 6.2084 -6.40686 17
155 1 3.69957 6.99702 -3.44808 20
156 1 -4.65669 11.7001 -0.269417 20
157 1 6.89939 7.36026 1.95065 22
158 1 -3.40601 9.60413 -5.91519 22
159 1 3.56854 11.7753 -6.19353 17
160 1 2.18055 8.34062 -12.7923 15
161 1 -10.7586 -13.5285 0.916916 15
162 1 -9.79517 12.7378 -3.91094 12
163 1 -7.41475 -0.248877 -15.285 15
164 1 7.60877 -8.19629 -16.5778 10
165 1 9.80996 9.84572 10.053 16
166 1 2.08869 10.7224 10.7825 21
167 1 -12.9899 1.10707 -5.05652 15
168 1 -13.8613 11.2851 0.773212 13
169 1 16.7411 0.692738 -5.15937 12
170 1 -11.9011 -2.79173 -11.9729 15
171 1 7.87703 -0.0915246 16.1092 16
172 1 -4.42735 15.3874 9.29469 9
173 1 -6.26816 6.64763 7.50927 22
174 1 6.45073 -11.6587 -14.1519 11
175 1 -7.48945 11.2146 11.5908 13
176 1 -0.435413 15.8534 -7.5044 12
177 1 -1.61393 -0.50643 19.2197 11
178 1 -13.0641 -2.46822 3.79762 19
179 1 4.75549 -12.5874 -11.2692 15
180 1 -4.03043 14.0118 -11.3682 13
181 1 -3.39181 -14.383 7.9884 19
182 1 5.81696 -13.2746 -4.46699 21
183 1 -1.18317 8.69753 -11.2177 20
184 1 -15.1585 5.56248 9.39427 14
185 1 -1.26262 5.96881 -0.815509 25
186 1 10.5635 13.5225 -1.73181 10
187 1 -4.6045 3.91124 12.1003 20
188 1 -2.53501 -10.8654 6.64998 25
189 1 -6.02898 2.77399 -1.12373 23
190 1 -4.67871 14.4331 6.17041 14
191 1 -4.39619 4.03704 7.23851 21
192 1 15.732 0.592859 12.1283 17
193 1 -6.27536 8.84389 4.86945 19
194 1 9.03593 -4.78318 -6.22544 17
195 1 -0.219259 8.90047 16.4871 11
196 1 -4.29872 -1.74646 -9.11002 25
197 1 8.67711 -7.91788 6.53897 16
198 1 -5.98401 -8.67069 3.41114 19
199 1 -15.898 2.15075 9.62988 11
200 1 -5.90192 -10.2488 5.83748 20
201 1 1.67988 3.8215 19.0163 15
202 1 -14.8945 1.97051 1.28099 12
203 1 4.19891 -16.1884 6.96803 17
204 1 4.50901 -8.14633 -6.47576 22
205 1 -2.69427 8.43462 4.10157 17
206 1 -7.76438 -0.0214476 4.04376 22
207 1 5.33602 11.034 14.1993 16
208 1 -7.62503 -1.81002 -3.66765 23
209 1 -7.33289 5.69544 -6.20434 18
210 1 -12.7385 -4.36142 -4.04294 22
211 1 -12.7906 2.36961 8.48408 19
212 1 0.832606 -10.6772 6.13167 19
213 1 5.76177 -13.5722 9.48653 9
214 1 -15.5719 7.298 2.1807 14
215 1 15.8105 6.13277 3.68514 10
216 1 7.21151 1.48575 -3.57029 21
217 1 -7.49029 -7.29739 -10.0492 19
218 1 0.170163 -1.6101 17.6796 15
219 1 5.40162 -13.3743 1.50958 23
220 1 -2.51148 3.6682 -12.033 19
221 1 2.81106 -12.889 -9.42043 22
222 1 7.80687 0.0796459 -17.0598 10
223 1 4.14428 3.80288 -11.7197 22
224 1 -9.24227 -9.91076 -5.43795 20
225 1 2.48187 14.7681 -6.98869 12
226 1 -10.6614 -11.6895 8.72274 13
227 1 4.96287 10.386 -2.79922 19
228 1 -1.22691 2.96766 19.4792 15
229 1 -2.18936 16.1016 -2.18753 15
230 1 6.52629 -2.82082 15.6464 15
231 1 -0.0268442 -10.7115 -12.0846 19
232 1 -4.12307 6.23136 -6.26311 22
233 1 0.970349 1.42483 -9.22354 21
234 1 -8.55251 -13.1103 5.72599 20
235 1 -8.20217 5.96674 10.2539 20
236 1 -2.67433 9.8783 12.2546 17
237 1 1.61951 -15.9453 -9.60699 14
238 1 -7.8142 -17.3878 -2.43759 10
239 1 8.57131 -12.6232 -6.1892 20
240 1 2.59064 -11.4025 -1.78367 22
241 1 11.1972 4.30094 15.35 11
242 1 4.08421 7.50322 -8.53908 21
243 1 0.165974 9.21875 -1.15783 20
244 1 -9.274 1.12466 1.30846 20
245 1 -10.0398 8.74255 -1.58414 20
246 1 0.293047 4.77308 13.274 18
247 1 6.14093 -16.763 1.61058 16
248 1 8.97348 -1.7241 -3.59711 22
249 1 -1.17499 3.63238 7.28015 23
250 1 -4.29565 9.01047 8.12158 21
251 1 -11.0928 -1.78584 -4.32423 21
252 1 10.0832 10.0806 -8.95024 11
253 1 -1.07513 -1.65295 12.262 20
254 1 11.2362 1.51185 -8.1897 22
255 1 0.499553 -15.7599 -4.72027 19
256 1 2.81802 -4.86551 -11.649 22
257 1 3.73224 -18.7402 6.44729 13
258 1 13.58 0.134503 -9.89701 15
259 1 -7.79203 -7.80567 5.85033 20
260 1 3.97142 -14.383 -1.6053 19
261 1 -10.8141 -5.44694 -7.25919 19
262 1 2.12274 9.76887 -3.67662 20
263 1 1.35865 -3.60489 -14.2769 22
264 1 4.52782 0.810924 11.9652 21
265 1 16.1704 3.49845 1.9266 10
266 1 -3.94757 -7.50616 -4.15759 20
267 1 15.9017 -3.17895 -5.3311 13
268 1 -2.64731 -10.6456 1.23002 23
269 1 -9.36915 -8.91157 -8.88332 11
270 1 -7.49613 -1.23975 -9.27653 24
271 1 -5.01474 -17.782 9.24648 11
272 1 12.6622 -3.38873 6.31862 19
273 1 3.44868 -4.80753 6.96933 23
274 1 -5.68379 -9.22052 -11.3655 17
275 1 0.537042 -8.73113 4.0255 22
276 1 0.869091 3.68203 -12.4617 17
277 1 3.64745 6.84458 1.59231 22
278 1 -8.19225 -11.1961 3.44183 18
279 1 1.56511 9.92935 2.17991 21
280 1 -8.55872 0.429541 14.7715 15
281 1 -12.652 -4.45121 -9.76593 16
282 1 -4.51042 -10.7716 -13.8035 11
283 1 -1.218 9.65584 -14.106 13
284 1 -7.85262 -12.6138 -4.17108 22
285 1 -4.21795 -11.4559 -1.43476 21
286 1 5.54736 -1.45906 -18.002 14
287 1 14.6954 1.6192 -2.65107 14
288 1 11.3603 1.37754 5.25143 16
289 1 -3.80364 -5.28885 -6.75708 23
290 1 -6.2892 -8.54804 8.59594 18
291 1 -1.13395 -13.3369 1.05 22
292 1 5.38396 4.57952 17.7443 12
293 1 -3.29611 -16.4647 11.5548 9
294 1 4.02533 -10.6479 1.27358 21
295 1 3.23481 14.5225 0.194649 18
296 1 6.07387 -3.83211 -20.0 7
297 1 -4.871 -7.51448 -13.6967 18
298 1 -13.2821 -10.4795 10.7284 6
299 1 1.1671 7.02727 14.2892 22
300 1 -2.82584 -16.2347 0.0343551 20
301 1 -3.83202 -15.2219 -10.9909 12
302 1 -6.53358 10.5399 -8.02754 21
303 1 9.05721 3.54864 6.67447 21
304 1 -7.30439 4.92017 -8.94793 17
305 1 -1.13516 4.33585 -8.71343 19
306 1 -1.02593 -7.79398 6.64834 20
307 1 7.59316 -18.4562 -9.55318 7
308 1 -3.07294 12.494 1.94137 15
309 1 0.622041 6.61324 7.73018 23
310 1 13.2294 2.44564 2.30824 16
311 1 -14.1217 -3.83241 9.50177 11
312 1 -1.68418 -10.6817 11.8536 18
313 1 -4.22903 11.1903 5.66885 19
314 1 6.05115 -7.51674 -9.01593 20
315 1 8.93481 6.40617 -0.662625 22
316 1 5.7616 -11.4028 -1.04325 22
317 1 0.272517 -5.00165 12.2952 17
318 1 -15.5703 -1.51893 10.1102 9
319 1 5.46547 -19.1866 -7.06109 13
320 1 -2.84386 10.6011 15.4229 13
321 1 -13.0015 5.62307 14.1723 9
322 1 -4.37749 -4.03606 11.8898 16
323 1 -13.3826 -7.10392 9.56355 11
324 1 13.6932 -8.00147 -1.94393 13
325 1 -13.509 -9.41388 7.40285 14
326 1 12.1158 -4.13988 -9.6325 8
327 1 6.89466 -15.5479 -5.62392 19
328 1 -0.959629 12.407 -4.88999 18
329 1 -4.95403 10.0986 -3.2829 22
330 1 5.37836 5.57281 9.92852 21
331 1 -9.40147 -5.37046 5.22931 17
332 1 4.13192 -10.3939 -3.88373 23
333 1 -4.55476 9.34287 1.52371 18
334 1 -5.91429 2.94651 4.38328 20
335 1 2.38941 -7.90426 7.13309 23
336 1 10.4268 -3.23535 4.04499 18
337 1 -8.09297 5.87337 4.69839 21
338 1 -7.55627 -5.28511 -6.61264 22
339 1 0.48565 -1.15216 14.6705 23
340 1 -1.36143 8.43581 9.66372 22
341 1 8.33111 3.03253 15.3861 18
342 1 -5.97094 16.1191 -6.72398 11
343 1 4.40237 -9.81769 -15.4604 11
344 1 -5.92038 -2.5813 -6.32212 24
345 1 6.5116 -9.81911 -11.6105 21
346 1 -5.37524 2.12703 15.4402 16
347 1 -12.7042 6.03203 6.95654 19
348 1 -5.89757 -4.15066 -8.99635 24
349 1 -7.744 11.4229 -0.661575 18
350 1 9.02469 -2.35389 7.34077 20
351 1 -11.3626 -11.6738 3.78622 20
352 1 5.19064 -7.81771 7.25954 22
353 1 -6.87631 -11.4015 11.0518 12
354 1 -12.3577 12.0905 -1.59774 9
355 1 4.77835 -4.80871 16.0898 11
356 1 7.84438 -13.2073 -11.3031 12
357 1 -1.945 -8.28179 -12.0237 21
358 1 8.33458 -3.16426 -17.1266 11
359 1 -1.18281 11.1992 4.3588 20
360 1 -8.97696 -2.95866 -1.26569 21
361 1 3.93244 -7.93451 -11.3899 22
362 1 7.65924 3.21727 -11.7669 23
363 1 0.187251 -14.0325 -7.26328 22
364 1 -13.235 -8.68734 -1.82716 18
365 1 0.750901 -14.164 -1.90865 23
366 1 8.98167 7.23253 12.1298 18
367 1 12.4311 1.36781 -0.385364 20
368 1 -10.0533 2.47361 -11.5778 10
369 1 0.325306 13.9476 -2.27786 20
370 1 -11.1157 0.66118 -6.81957 18
371 1 -11.6115 9.10408 10.878 12
372 1 -6.66978 13.63 0.532657 16
373 1 -7.61366 4.01493 7.51054 21
374 1 9.76075 3.47358 10.8639 16
375 1 13.2939 -2.13299 -1.61558 19
376 1 7.27333 -7.74595 9.34106 19
377 1 12.3516 -1.42318 -4.22029 17
378 1 -4.12172 -16.6799 -3.25844 14
379 1 -4.55572 6.10881 -0.840341 23
380 1 0.641464 -10.2114 -4.2981 23
381 1 -1.30757 5.48256 4.43138 22
382 1 -7.57781 0.35138 -6.63465 23
383 1 2.66055 -13.1231 -4.53451 22
384 1 12.2042 -3.18866 9.53827 20
385 1 -9.41355 -4.60142 -4.01618 23
386 1 -5.95876 -10.6408 0.849672 23
387 1 -9.29966 -8.26705 8.12021 15
388 1 -1.41861 9.74045 1.43473 21
389 1 -9.45367 -8.41839 -2.12916 24
390 1 2.4948 3.91418 15.3598 24
391 1 -12.1099 8.69698 -4.23069 11
392 1 -1.021 10.6619 -8.14406 17
393 1 1.47178 11.705 5.7871 21
394 1 -12.4936 -10.61 1.01406 16
395 1 -4.16925 -10.9428 -6.84537 20
396 1 -14.6835 3.9574 6.72591 16
397 1 -13.3518 8.9298 -0.935944 17
398 1 4.21905 -10.7539 6.00202 21
399 1 -7.84533 -10.8914 -2.25033 23
400 1 13.9884 7.63856 12.2069 9
401 1 8.59855 1.81278 -14.7126 14
402 1 -7.94571 2.50218 -13.9115 11
403 1 -5.56631 9.26161 -11.2241 19
404 1 -9.46684 9.79918 -5.9891 16
405 1 1.75823 -13.4421 5.49613 19
406 1 12.0642 2.09605 7.82997 20
407 1 3.33055 4.77937 -16.7995 11
408 1 -8.49464 -5.64323 10.1289 15
409 1 -13.0279 2.97224 -1.15983 20
410 1 -9.69786 7.26895 6.71611 18
411 1 -5.12781 -18.5942 5.86952 12
412 1 2.50196 -5.29894 -6.35209 23
413 1 7.95359 -7.64026 -5.97966 18
414 1 -2.73809 -5.07826 7.10454 23
415 1 -12.3408 1.06567 2.04356 22
416 1 -10.1211 0.245435 11.1209 16
417 1 -15.5655 6.51292 5.11755 11
418 1 0.596713 -4.84293 6.83976 20
419 1 -6.04085 2.47342 -16.4343 10
420 1 8.7675 -17.8817 -6.97598 11
421 1 -0.89881 -7.95937 -14.2637 16
422 1 0.865607 -3.13505 9.74365 21
423 1 2.15578 -11.2611 -6.79974 23
424 1 -4.40317 3.16887 -18.6153 9
425 1 2.44618 -11.9267 3.41329 20
426 1 0.248564 9.36875 -5.82343 16
427 1 -15.6479 9.91006 2.99418 8
428 1 -1.38865 -3.97047 14.0971 15
429 1 -12.2989 -7.69536 -9.64469 13
430 1 -4.82066 -10.1233 12.3817 16
431 1 3.10952 -6.3523 13.0213 15
432 1 10.552 3.81044 4.17198 20
433 1 1.18745 -3.91555 -9.40234 21
434 1 7.00194 -10.0953 7.2823 17
435 1 12.1278 9.016 1.76733 16
436 1 -4.28924 0.149925 9.68227 19
437 1 3.54795 8.50058 -0.592538 23
438 1 5.87994 -13.2591 6.1312 16
439 1 1.96349 -17.335 -2.11675 17
440 1 1.13098 1.2254 17.8339 20
441 1 -1.38777 11.6191 10.8398 19
442 1 -6.12855 -15.4625 -5.86414 18
443 1 9.68734 9.14334 4.47015 23
444 1 0.789425 7.62391 11.1013 25
445 1 -8.76154 5.92822 14.8142 11
446 1 -8.01654 -7.10392 -4.6597 19
447 1 -10.7636 -0.275355 4.70567 22
448 1 -6.01391 -9.95436 -4.9542 19
449 1 -10.6442 10.3044 0.994787 19
450 1 -9.29596 -14.485 -1.83801 18
451 1 -4.10263 -12.3583 -11.486 13
452 1 -6.23122 -14.1862 -2.67225 22
453 1 -4.46488 -7.75435 6.64783 20
454 1 5.53451 -1.81025 7.01135 20
455 1 -9.44372 -2.32972 9.34436 20
456 1 -9.04551 11.2317 -9.70881 10
457 1 9.0648 0.37456 -0.914177 22
458 1 -2.81347 -13.8218 -2.01277 20
459 1 0.844394 3.22344 -6.27905 22
460 1 -2.26275 14.4377 4.04416 15
461 1 -2.67236 3.19048 -6.26865 23
462 1 2.16651 5.36515 10.3447 23
463 1 -14.7973 -5.49728 -1.31867 13
464 1 6.48528 11.3993 -4.93532 19
465 1 9.69832 10.6349 -5.92526 12
466 1 -8.46205 -13.4434 -6.94765 13
467 1 3.32043 -1.65775 16.3841 18
468 1 -0.973318 -18.517 -6.13326 12
469 1 -0.186661 -5.06869 -11.7313 25
470 1 7.01576 -14.6167 3.95043 14
471 1 -12.3215 7.24156 1.3638 19
472 1 10.7169 0.760019 15.7324 19
473 1 8.99415 4.22103 -3.47841 22
474 1 1.64236 5.66312 -0.999792 22
475 1 -9.2831 8.308 -8.53614 15
476 1 4.2761 -2.5346 -6.8291 22
477 1 5.77252 -11.6153 3.93167 20
478 1 -14.2087 -1.00786 0.778643 14
479 1 -6.13011 12.1284 7.22938 16
480 1 -4.05521 0.510264 -11.8056 20
481 1 8.57777 4.49821 1.86214 21
482 1 6.70873 9.66677 -7.48546 15
483 1 5.67698 -5.38599 -1.04994 23
484 1 14.3562 4.73112 -1.00662 12
485 1 5.48844 7.89008 -13.2958 12
486 1 0.822508 -10.6081 0.734972 20
487 1 2.432 -14.4311 10.9538 14
488 1 4.04997 -12.0285 11.776 12
489 1 -5.94552 7.67403 -8.55763 20
490 1 -10.1654 -15.1069 6.85409 9
491 1 -1.90835 -13.3729 -13.3472 13
492 1 5.20518 9.40073 7.58032 25
493 1 3.10428 1.06003 -11.7371 21
494 1 10.6558 -2.8271 15.6736 14
495 1 -13.2785 0.0280222 10.8034 17
496 1 -1.22629 -19.3083 0.0218046 13
497 1 -15.28 -1.83824 6.00875 7
498 1 14.7268 -6.1228 -3.82083 13
499 1 11.0954 -1.64907 -7.50862 18
500 1 -6.25891 6.99639 -3.34397 23
501 1 -1.46273 -17.1728 -8.95104 15
502 1 4.37488 1.08404 -8.87789 22
503 1 7.78368 -4.72097 -9.21291 20
504 1 -3.20376 1.16571 17.1493 16
505 1 5.63394 13.5677 2.475 14
506 1 -4.8316 -4.82164 -14.6693 18
507 1 5.57903 1.56083 -13.9759 21
508 1 -7.84631 0.0267392 9.44402 17
509 1 -2.43602 15.11 0.354404 16
510 1 -7.84583 -3.42878 -14.9529 17
511 1 -14.3759 0.661747 4.17285 15
512 1 2.44118 -6.5392 -14.3305 22
513 1 -2.90837 -2.87704 9.60534 21
514 1 -0.806778 6.12109 -6.15575 19
515 1 12.4782 -0.290981 10.4009 19
516 1 10.4611 7.29187 -3.54379 16
517 1 -8.71318 -16.5615 0.902356 14
518 1 -0.974368 -11.1443 -1.68323 22
519 1 -2.36635 -7.19583 -16.3498 11
520 1 -13.4671 8.428 5.18824 18
521 1 4.65959 -3.72628 -13.9647 20
522 1 2.29885 4.13078 -4.02774 20
523 1 9.28645 -1.6717 1.86474 21
524 1 3.92247 13.2019 -10.2182 7
525 1 4.35088 -8.25505 -1.44243 22
526 1 12.8394 9.13766 -7.04428 7
527 1 7.67197 5.91164 15.1347 16
528 1 -11.086 8.47016 14.0896 11
529 1 7.05299 6.61022 7.00088 19
530 1 13.2104 -1.44995 15.7749 13
531 1 1.2101 1.93958 -17.9598 12
532 1 -5.5822 -7.96847 -7.38746 22
533 1 -0.624567 -0.0837854 9.60748 23
534 1 3.9666 12.539 5.45405 17
535 1 10.1899 8.58783 -11.2705 10
536 1 -3.58158 16.3039 -8.89012 11
537 1 -1.51219 9.8032 -3.40642 20
538 1 7.4527 -3.83532 9.66765 17
539 1 10.4992 1.69534 -11.3441 22
540 1 10.6502 -6.61715 -4.34868 17
541 1 15.1026 7.80703 9.85712 11
542 1 -14.8925 -7.99725 4.61705 13
543 1 -4.05564 7.98256 -14.0533 17
544 1 0.752004 2.6366 9.75687 21
545 1 -7.44809 2.96633 13.6203 15
546 1 -1.59194 14.2819 -11.2557 12
547 1 3.09771 -14.6285 -6.85246 21
548 1 6.2714 -1.62726 -9.34893 22
549 1 0.339708 16.2309 -4.378 12
550 1 -13.4339 -5.38382 -12.6236 10
551 1 1.98985 -18.8318 1.18732 14
552 1 -13.9103 -7.36274 1.15491 17
553 1 -3.8015 10.671 -9.52807 22
554 1 -9.08878 3.03651 -6.45522 23
555 1 2.96019 0.303473 14.5262 23
556 1 -1.04291 -11.8291 9.28722 21
557 1 7.71015 6.3375 -8.65898 22
558 1 -0.738149 -12.8596 -10.1827 23
559 1 3.92773 -3.05046 9.79196 19
560 1 5.8366 0.537946 -6.77202 23
561 1 -7.9573 5.58629 -0.821436 23
562 1 13.5276 0.38501 13.5768 20
563 1 2.30034 13.6525 -4.38657 17
564 1 8.86518 -5.32748 -0.766941 22
565 1 3.23791 9.60043 16.4087 14
566 1 -2.03077 7.34327 -16.4033 14
567 1 -3.24004 -9.7282 14.6919 9
568 1 -0.855388 -1.24859 -8.98898 25
569 1 3.24475 -2.69092 -18.9226 9
570 1 0.138597 11.6783 8.42955 18
571 1 9.08966 0.556379 -5.9994 20
572 1 -4.17624 -1.69491 -14.8562 19
573 1 -4.51018 -12.76 -4.5856 22
574 1 -11.1497 -3.20849 -14.3753 10
575 1 10.4462 1.49282 2.0588 19
576 1 14.5967 7.84455 0.84062 13
577 1 4.65865 -10.017 -9.2418 20
578 1 15.0812 1.30785 8.93604 20
579 1 5.21873 -11.7085 -6.50571 23
580 1 4.602 9.94011 -10.2977 14
581 1 4.76544 9.87213 1.91759 20
582 1 -9.3693 2.95235 4.01919 21
583 1 8.23112 9.43381 14.7672 11
584 1 10.9245 3.02275 -5.67767 20
585 1 16.836 0.297684 6.03038 11
586 1 14.4576 5.09995 -7.77602 11
587 1 12.5508 -3.91388 12.6641 12
588 1 12.932 2.63086 10.9163 20
589 1 -1.0793 -6.13157 9.64285 21
590 1 7.41874 12.1626 -1.76833 21
591 1 3.79796 -3.16636 13.8543 19
592 1 14.5414 3.43154 -5.00673 14
593 1 7.38695 0.856131 7.3767 20
594 1 -9.02215 -4.47182 -9.57093 20
595 1 10.2891 3.51283 -0.600386 20
596 1 7.29721 -4.52589 1.96984 25
597 1 -8.14165 9.34603 8.24281 18
598 1 4.14367 13.0384 11.8023 12
599 1 13.8901 3.25811 13.9805 15
600 1 0.336887 13.9241 12.6774 10
601 1 -0.0983222 9.82236 13.17 19
602 1 3.79773 0.708134 7.25569 21
603 1 1.40418 -19.9507 4.27977 11
604 1 -6.50879 8.64642 -5.532 20
605 1 13.2211 0.240034 -5.93057 20
606 1 11.1607 0.445985 -14.7803 10
607 1 4.79764 11.6164 0.00971668 21
608 1 -2.4809 -9.98 -9.95131 21
609 1 10.1536 -2.95912 -14.3237 11
610 1 -10.4389 4.24889 7.18308 22
611 1 -3.7849 6.46148 -10.9968 20
612 1 -2.41254 -19.6714 5.18232 14
613 1 -5.90854 -2.28153 -12.198 22
614 1 -9.30031 2.92121 -1.09374 24
615 1 6.78227 -8.22476 4.06004 23
616 1 11.7052 7.63653 9.93709 19
617 1 4.09382 -15.1274 3.91499 22
618 1 -9.14761 -2.49156 -6.55182 23
619 1 -3.48236 -3.17433 -17.1801 15
620 1 4.28962 1.00931 17.9364 12
621 1 8.68962 9.80867 -3.20295 17
622 1 10.6425 -1.26495 13.4611 21
623 1 6.10536 3.70884 -8.92302 25
624 1 11.7537 9.46003 7.38513 14
625 1 4.2913 -16.1159 -4.00706 20
626 1 -8.03703 -5.67866 13.6282 11
627 1 13.9587 -0.0757488 6.11188 16
628 1 -0.216608 4.49059 16.5149 20
629 1 8.47149 13.3067 -4.76728 10
630 1 -8.30297 15.4177 -2.10262 11
631 1 15.6298 4.63832 11.1956 13
632 1 -6.9171 -17.4283 3.69399 12
633 1 15.4876 -4.00412 -2.28625 13
634 1 2.55352 12.6389 2.60315 20
635 1 -2.62371 2.7873 10.0801 21
636 1 -13.2402 -4.24441 1.59871 17
637 1 -6.57755 -5.41414 -11.9585 21
638 1 14.9264 -4.39848 10.5295 11
639 1 -7.58215 -8.37458 10.9325 14
640 1 10.7922 -0.486004 18.0739 10
641 1 -3.77503 12.3819 8.65115 19
642 1 5.18555 3.8026 6.84326 22
643 1 7.07633 3.23446 4.52942 24
644 1 0.924914 -1.83056 -11.7 22
645 1 -10.3182 -3.79169 12.1902 16
646 1 6.06622 0.774169 -11.3816 23
647 1 -2.2998 -7.90332 -7.18905 21
648 1 12.215 -11.2377 -1.39314 10
649 1 7.3144 5.08804 12.3434 21
650 1 3.77497 3.05329 4.54748 22
651 1 -2.85972 -7.77067 12.3725 15
652 1 5.8142 7.88621 13.2387 22
653 1 13.5901 1.81699 16.8508 11
654 1 -1.13599 5.2149 10.0128 22
655 1 6.30594 -5.11392 -17.3554 15
656 1 -10.7887 6.12314 12.443 21
657 1 5.29825 3.08163 14.3478 21
658 1 -6.95522 -16.1665 6.90627 13
659 1 13.1991 4.3619 5.44924 17
660 1 7.7591 -10.6497 -8.35605 20
661 1 -4.36437 0.286229 -6.50383 23
662 1 7.44985 6.69257 -3.46774 19
663 1 8.86464 10.466 0.89274 16
664 1 1.82608 -1.39262 -17.1379 16
665 1 -6.248 0.78982 6.09255 16
666 1 4.13412 9.02106 -5.7446 18
667 1 10.0526 7.58908 1.93202 20
668 1 -6.06043 -8.43839 -2.41054 21
669 1 -2.02523 -4.42886 -14.2666 22
670 1 -5.34765 17.2882 -3.48208 10
671 1 10.2162 -7.26417 -8.3458 13
672 1 5.33009 4.26207 1.73157 21
673 1 16.5693 -0.885967 -8.18579 9
674 1 6.99278 8.77025 -0.66642 22
675 1 -4.79849 5.8936 4.6663 21
676 1 -7.94918 3.77339 1.68557 23
677 1 3.06254 5.53201 -13.991 16
678 1 15.501 -2.43724 13.2752 12
679 1 8.6489 -5.73836 11.8297 17
680 1 -4.02821 -13.01 12.9696 11
681 1 -1.47465 6.53148 -13.1662 20
682 1 -1.14589 14.6363 9.4712 12
683 1 9.16951 -6.19529 -11.5042 14
684 1 2.31312 0.0483302 9.62406 22
685 1 5.77059 5.77694 -6.75573 21
686 1 6.39134 9.21332 4.68108 21
687 1 10.4777 -12.6296 -8.79283 15
688 1 6.36666 7.77471 17.135 10
689 1 -14.674 -4.88618 4.38152 13
690 1 -2.8888 -18.7458 7.76799 11
691 1 -0.713587 -5.33766 -6.54431 23
692 1 -5.61093 15.5771 -1.33593 15
693 1 -4.62239 -1.93362 6.87035 20
694 1 2.49832 -7.478 -4.08767 20
695 1 3.02924 8.99081 4.63984 20
696 1 -14.2965 0.576194 -2.24878 12
697 1 -0.241632 1.50099 12.9976 19
698 1 -1.10781 4.91476 -18.5711 10
699 1 -5.73617 6.58684 -16.3807 7
700 1 3.60746 -16.3445 0.585071 19
701 1 9.51705 4.23332 -8.44117 22
702 1 3.70135 -8.64421 3.96961 23
703 1 -4.52525 3.75882 1.78975 24
704 1 -10.7917 2.77872 13.6124 15
705 1 4.55565 -2.00374 -11.7823 22
706 1 -0.621273 -17.9772 3.48797 20
707 1 -0.363363 12.9825 1.36792 21
708 1 -2.60061 -1.02722 15.5665 19
709 1 -10.5377 -6.43331 -11.4492 17
710 1 -1.74889 -10.5523 -14.8808 10
711 1 -9.16667 -15.5733 -4.84679 13
712 1 -2.33113 13.5094 -7.49416 18
713 1 2.64613 -6.90172 -8.96498 22
714 1 -1.23669 9.52837 7.00685 25
715 1 7.18563 -10.6463 1.79404 22
716 1 10.6311 -10.3683 -4.03454 16
717 1 2.2018 -6.00029 9.47434 19
718 1 12.4261 4.42984 -2.67946 21
719 1 6.28694 -13.7473 -8.20903 18
720 1 -13.2107 3.47421 11.332 18
721 1 0.419446 -15.298 3.14621 19
722 1 -10.91 -12.4107 -4.60105 13
723 1 -11.2236 -1.03381 13.3693 13
724 1 -4.15491 -19.1812 -0.60167 10
725 1 13.6213 2.44362 -11.4869 9
726 1 -6.70744 12.8901 4.0037 16
727 1 -9.65254 0.763971 6.99085 20
728 1 -13.9691 8.92715 8.85557 11
729 1 7.17191 -2.7632 4.52367 22
730 1 -10.4294 -1.36064 -9.44568 21
731 1 -3.12618 7.12412 -3.59493 22
732 1 7.66426 -2.831 -12.0205 22
733 1 9.72821 10.8244 13.1419 9
734 1 12.0635 3.88656 -9.75763 13
735 1 -10.1666 4.81429 -9.22014 11
736 1 -11.821 -8.41539 -6.47599 13
737 1 -3.28603 4.55118 17.887 12
738 1 8.16968 6.35497 -12.5802 14
739 1 12.7677 10.6273 10.868 10
740 1 -7.49406 -2.13275 12.3827 22
741 1 -1.29763 -17.0392 -2.69081 16
742 1 -3.77238 -17.7515 2.46786 16
743 1 -2.92145 -8.91002 8.91383 19
744 1 17.3449 2.74988 10.3765 10
745 1 0.958066 -8.4199 -7.19604 22
746 1 -6.64519 8.82463 -1.09315 23
747 1 5.46704 5.99286 -0.808938 24
748 1 -11.6754 -6.7597 6.55659 20
749 1 10.7317 5.02134 -12.6185 9
750 1 2.60402 -18.1279 -5.32145 15
751 1 5.15111 -17.9561 -1.5089 13
752 1 6.87672 -18.5879 -4.33624 11
753 1 5.56804 6.07915 -10.6092 22
754 1 3.035 16.3193 -2.46666 11
755 1 -7.26387 0.723569 -11.9622 23
756 1 1.81505 -4.27897 15.4069 14
757 1 4.3004 1.14468 -16.7047 15
758 1 -10.2091 -6.03675 -14.4219 12
759 1 -14.8898 -1.4517 -5.31651 10
760 1 0.937262 13.0387 -8.90401 16
761 1 8.57327 -0.069672 4.88442 21
762 1 -7.79736 -8.35242 -13.5043 12
763 1 -7.64752 -8.16928 0.403407 20
764 1 10.9356 1.44688 -3.25258 21
765 1 11.151 -4.161 -3.50551 19
766 1 -5.05646 5.27837 15.3766 13
767 1 8.58223 -13.7163 1.4924 16
768 1 15.3546 -2.65175 0.567372 15
769 1 10.0011 -8.08148 9.42617 9
770 1 0.235765 8.31918 4.87811 22
771 1 -5.43469 -0.967496 15.4906 17
772 1 -6.40966 3.12239 10.0188 18
773 1 3.36535 -12.8692 8.36679 21
774 1 7.25101 1.32572 1.66209 23
775 1 7.12847 12.3739 12.5905 11
776 1 -12.6875 -2.45676 -2.00922 14
777 1 7.24237 -8.34921 -0.590359 21
778 1 -7.94809 15.4696 -4.57017 12
779 1 2.06399 5.74495 4.61622 24
780 1 2.34281 -17.4569 9.11313 13
781 1 7.82908 2.23693 12.8893 21
782 1 -1.58366 13.3754 6.57776 16
783 1 0.431329 -9.00936 9.46038 22
784 1 -10.9584 -1.9329 1.47959 21
785 1 3.62076 8.11182 10.3698 25
786 1 -14.3043 -6.75864 -4.55907 13
787 1 2.14407 12.2598 14.2779 14
788 1 9.08607 13.6214 1.47262 9
789 1 -11.9264 -14.5744 3.8197 9
790 1 -1.52957 -16.5155 9.12665 20
791 1 7.2345 -5.02572 7.02178 20
792 1 8.68598 -5.86663 4.46105 20
793 1 3.65024 6.66037 7.29996 23
794 1 -3.33412 8.75095 -0.840216 22
795 1 -1.4975 -10.9152 -6.91335 22
796 1 -2.47462 -1.92654 -11.7308 25
797 1 -4.10661 -1.79645 12.8529 22
798 1 -4.50988 15.5752 2.44737 12
799 1 14.7294 -2.52894 7.85443 15
800 1 2.38418 6.37203 -5.99096 22
801 1 -2.49563 4.02499 13.7553 18
802 1 3.24378 5.63107 12.7564 23
803 1 6.28631 -0.971403 -14.9472 21
804 1 -7.69803 -13.4648 0.13897 22
805 1 -3.5325 -4.57067 -11.4715 23
806 1 16.7569 -1.37807 10.2106 9
807 1 8.10006 1.05092 -9.22148 20
808 1 -0.255587 1.41163 15.651 19
809 1 13.599 -9.56318 0.655522 11
810 1 -0.624409 4.0624 -15.1847 18
811 1 -2.54373 -10.0344 -4.21624 23
812 1 13.0677 -4.10734 -6.13012 14
813 1 14.6303 -1.91045 3.98632 13
814 1 5.27186 -6.1633 10.0396 21
815 1 -4.07493 -16.9502 -7.4579 12
816 1 10.6394 9.53635 -1.09109 17
817 1 -2.68667 -8.68768 3.9413 20
818 1 -16.5653 4.11232 3.68123 8
819 1 14.684 0.243659 0.743831 17
820 1 12.519 6.9105 3.73321 19
821 1 -0.567011 -4.10813 -16.947 17
822 1 -9.11438 11.4798 5.47471 17
823 1 15.0546 3.81853 7.71682 17
824 1 11.7834 10.5678 -3.24765 15
825 1 3.06255 -1.00968 -14.1682 19
826 1 10.4064 -2.63211 -1.5502 19
827 1 -11.0776 0.288286 -1.69047 21
828 1 10.6913 6.84305 6.29905 20
829 1 -11.4548 -5.53995 3.7078 22
830 1 -6.52866 12.0221 -11.9985 11
831 1 4.01259 3.08122 9.68358 20
832 1 -12.203 -2.23656 -7.60017 15
833 1 -9.81233 3.36124 10.456 19
834 1 -2.22593 1.58366 -9.02915 21
835 1 12.9524 -8.4031 -5.47202 11
836 1 -12.4296 -9.66801 -4.35876 16
837 1 14.9678 -6.24107 -0.0220911 15
838 1 -10.9786 5.66889 -1.28314 21
839 1 -11.427 -5.92919 -1.28588 22
840 1 11.5814 4.78293 8.6038 20
841 1 0.196455 -16.3615 11.9648 10
842 1 10.9635 2.02381 13.3086 22
843 1 12.1259 -5.82847 4.99905 15
844 1 10.4 -5.07304 2.03958 23
845 1 -11.3869 5.95797 9.77153 20
846 1 7.08406 8.30435 10.0047 22
847 1 2.21122 4.2552 -8.86745 22
848 1 0.596345 -7.06877 -16.9825 14
849 1 -8.74906 8.79607 12.6424 16
850 1 -12.4445 -13.3047 6.59027 11
851 1 7.01561 14.6882 -0.245056 11
852 1 -2.98648 15.4429 12.1954 9
853 1 11.6435 -9.88606 -7.37971 12
854 1 2.48945 -9.5807 12.4636 13
855 1 -3.23542 11.1615 -12.8398 17
856 1 1.34471 7.76643 -8.30087 21
857 1 -5.97026 -2.60112 9.58431 22
858 1 17.4766 3.45853 5.06195 11
859 1 1.11323 -7.7221 -12.021 20
860 1 12.9293 10.6955 -0.83555 10
861 1 -9.61175 7.06403 -4.03617 21
862 1 1.47839 -11.2347 10.5998 19
863 1 7.03685 8.7576 -10.2677 16
864 1 8.85857 0.303009 10.4914 18
865 1 0.404977 -16.3553 0.113815 21
866 1 -9.04354 12.463 2.44895 14
867 1 -12.6098 3.8408 -7.1109 11
868 1 8.76554 0.0411185 -12.6941 20
869 1 -0.529366 -16.1941 -12.1862 11
870 1 -11.1478 3.63194 1.35101 21
871 1 13.6353 7.71413 -2.35404 15
872 1 -6.29859 -4.88237 6.84294 21
873 1 7.67332 -5.6053 -14.436 17