ITEM: TIMESTEP
18000
ITEM: NUMBER OF ATOMS
2000
ITEM: BOX BOUNDS pp pp pp
-30.0 30.0
-30.0 30.0
-30.0 30.0
ITEM: ATOMS id type x y z Coordination
1 1 -5.30665 1.28849 -14.6331 19
2 1 -5.98168 -15.3673 -7.46945 9
3 1 2.39337 7.24264 16.7556 22
4 1 0.441113 -17.9893 8.31268 10
5 1 -10.5766 6.32224 4.45781 21
6 1 9.45734 -10.9633 -6.33149 20
7 1 -8.97622 1.83508 -3.7293 22
8 1 -0.573854 -8.8801 14.7456 13
9 1 -9.26799 -1.48785 -11.253 17
10 1 -8.97024 -8.07035 4.01078 20
11 1 11.6997 -0.189815 -11.2508 13
12 1 -3.97736 -13.151 0.254693 22
13 1 -13.9536 -10.6119 5.31266 10
14 1 3.63486 3.10025 20.734 13
15 1 5.88002 -3.26928 12.9874 16
16 1 0.794632 1.21217 7.03546 22
17 1 5.98831 -5.43988 3.81274 22
18 1 -2.19695 7.49221 -8.48169 21
19 1 1.79449 4.78288 12.2803 19
20 1 -8.60011 -5.11169 -15.7497 11
21 1 -11.1118 -4.25703 8.88218 23
22 1 10.305 1.1494 9.79263 22
23 1 0.874781 6.96503 -15.458 13
24 1 1.75686 2.8231 -14.2187 19
25 1 10.9901 -1.60199 12.2592 18
26 1 -7.31747 -1.26768 1.43729 21
27 1 -9.83644 8.37895 -10.7708 11
28 1 -1.9522 -3.91331 -9.32462 21
29 1 -12.031 11.2868 7.50238 13
30 1 1.61958 -15.5198 6.92792 21
31 1 -0.417638 -1.61958 6.97881 22
32 1 4.65687 -15.7102 -9.93627 14
33 1 11.4214 -10.2901 1.2461 13
34 1 -2.65462 -13.6931 -6.78556 18
35 1 -3.909 -11.033 9.94462 18
36 1 8.21202 -7.08686 -15.9306 12
37 1 11.1042 -8.90741 -11.2974 9
38 1 -2.68963 2.82008 -18.1914 9
39 1 3.00514 1.38737 12.5936 18
40 1 0.305718 -12.9976 9.93394 20
41 1 7.24648 -5.61049 14.7589 12
42 1 -14.7024 4.45694 2.53432 16
43 1 -9.71809 -1.23343 7.9612 22
44 1 -7.04625 1.12021 -0.826672 22
45 1 4.01395 15.6466 -4.62415 13
46 1 2.06771 -17.1526 -8.18135 13
47 1 2.88442 -1.10393 -9.02172 22
48 1 7.55501 -5.48938 -13.188 18
49 1 0.286403 -5.62998 13.8141 14
50 1 -15.7232 6.14191 -0.496466 11
51 1 2.32941 7.38745 -12.0361 19
52 1 2.66028 10.6561 12.7437 18
53 1 -4.85606 11.8704 -7.40467 20
54 1 0.160228 15.2161 0.292962 16
55 1 0.972808 -13.5554 4.1861 21
56 1 6.31824 -6.99681 -4.42583 17
57 1 5.32009 -6.49954 -17.8361 12
58 1 -5.4903 12.0697 12.1737 12
59 1 -13.9512 -5.72809 -6.25578 10
60 1 6.07166 0.28082 4.60955 22
61 1 -9.57201 7.38465 1.58561 23
62 1 -12.1727 -8.41471 4.37459 17
63 1 -5.85706 14.5625 9.80628 12
64 1 -9.11301 13.1318 -7.84514 9
65 1 -2.95551 7.96184 12.2913 20
66 1 2.97896 0.773298 -6.14988 22
67 1 -4.1339 -12.6394 6.97026 19
68 1 2.91385 3.88724 7.14349 20
69 1 8.07998 -13.6276 -1.20305 18
70 1 2.49754 6.35121 21.4787 12
71 1 -8.96087 2.04971 -9.00162 19
72 1 -11.0125 10.6836 -5.84534 10
73 1 6.24523 10.9654 11.6718 15
74 1 14.1146 -1.7024 -10.9672 11
75 1 8.77945 -11.5141 4.44589 12
76 1 -14.516 1.67155 7.4977 18
77 1 -7.29082 -4.7508 -0.773257 22
78 1 6.21812 11.4939 6.3528 15
79 1 2.53731 -1.80139 13.0515 15
80 1 -5.26708 -13.4935 2.7306 20
81 1 -7.20293 -1.44764 7.05056 23
82 1 7.54444 2.5509 10.3655 20
83 1 6.18946 -1.16174 -3.41892 25
84 1 1.6526 10.8823 9.1566 16
85 1 2.74772 -1.53789 6.99601 22
86 1 -6.9461 -4.95709 4.41432 21
87 1 -3.90713 -6.74678 -9.25017 21
88 1 -12.3075 3.04504 4.92539 20
89 1 1.50462 12.6568 -0.933412 20
90 1 -3.34057 4.79718 -8.80375 23
91 1 7.38694 -2.31203 -6.49519 19
92 1 10.9915 8.87451 -8.12551 17
93 1 7.56166 -8.36536 2.86439 22
94 1 5.08889 -8.26746 9.44007 18
95 1 -1.95204 17.5424 -5.38051 8
96 1 -9.66029 11.0608 2.48392 19
97 1 -7.39413 2.71352 12.5353 20
98 1 -8.89196 8.99565 4.81673 21
99 1 -4.95565 -1.86976 13.8427 17
100 1 13.0601 -10.1393 -6.56525 16
101 1 -9.11827 -2.41813 4.28872 21
102 1 -9.37544 -13.9849 3.11595 17
103 1 11.516 -12.7736 -7.12867 13
104 1 -1.88164 -0.184682 -16.8069 13
105 1 -6.34564 -2.36109 -16.5269 12
106 1 1.95386 15.6847 4.9874 10
107 1 -10.4757 4.85285 -3.22863 21
108 1 -1.64663 7.19444 19.9843 13
109 1 -1.46117 12.926 -1.87202 22
110 1 -15.501 9.66794 0.17851 8
111 1 1.20974 7.61487 2.00158 19
112 1 -3.99868 -5.06204 10.0872 21
113 1 13.3399 -4.93128 8.29569 11
114 1 -0.544954 -6.69015 -9.34218 20
115 1 0.906484 -9.63376 -9.36421 19
116 1 -2.20643 1.46012 7.40232 25
117 1 6.41051 0.605381 15.1454 15
118 1 -10.9058 -7.12844 0.79384 20
119 1 6.20971 -7.36755 0.682366 20
120 1 -10.0991 -6.75151 -4.64254 21
121 1 9.75676 -7.36715 0.589682 18
122 1 -5.37438 7.25798 1.93736 21
123 1 6.42651 4.48672 -13.8503 20
124 1 4.39315 13.2524 -2.58778 17
125 1 -2.21144 -11.7151 13.3444 13
126 1 -6.02448 -14.1084 8.51456 15
127 1 1.91986 -10.8215 -12.0737 18
128 1 4.50979 3.65887 -6.10999 22
129 1 12.1005 -7.31829 2.51688 17
130 1 -0.818296 -15.5571 4.36285 21
131 1 -10.3582 -11.3319 -1.07522 19
132 1 15.7467 2.27936 8.60968 13
133 1 15.6915 -4.79713 -7.48255 13
134 1 -13.9423 -5.66693 5.83198 16
135 1 10.6751 5.61393 10.3311 18
136 1 14.5199 9.08959 5.66984 13
137 1 -1.21491 1.06677 18.4452 19
138 1 8.09094 3.59716 -0.834163 21
139 1 -5.04744 9.78094 9.56045 20
140 1 -2.66602 12.3055 -4.91307 22
141 1 10.7773 -6.23596 -14.0676 10
142 1 8.00669 -13.3774 -7.14004 20
143 1 4.32443 10.4941 -7.58629 17
144 1 7.614 -1.04675 10.6176 20
145 1 -4.38721 -0.165522 -17.9192 13
146 1 -3.71813 4.53927 -3.38499 22
147 1 7.85713 -2.60158 -1.00847 19
148 1 -12.0404 7.42262 -4.83701 15
149 1 -4.85049 12.8557 -2.32487 21
150 1 9.7481 -2.58243 -8.50284 18
151 1 10.8375 -8.3848 -1.92079 23
152 1 -5.20773 1.88225 -9.01012 23
153 1 -8.87066 13.6167 6.39342 13
154 1 8.98942 6.9593 -6.67291 17
155 1 4.86467 6.82293 -3.03631 21
156 1 -3.83665 11.8728 0.180586 20
157 1 7.97016 6.92849 1.91984 23
158 1 -1.76625 9.88721 -7.1331 20
159 1 3.40225 12.6377 -10.0896 14
160 1 1.51169 9.23515 -14.0558 12
161 1 -10.9585 -12.7659 1.18083 13
162 1 -9.85441 12.4186 -0.250368 14
163 1 -7.77935 -1.83275 -14.5809 17
164 1 6.18822 -9.77422 -16.6933 10
165 1 11.3795 8.90765 10.5094 17
166 1 0.455094 8.45585 11.1858 20
167 1 -12.6372 2.07516 -4.22274 18
168 1 -13.0558 12.1684 0.838946 10
169 1 15.0314 -2.31318 -5.96557 13
170 1 -11.3427 -0.936887 -13.5706 9
171 1 7.65474 -0.811862 18.4219 11
172 1 -2.77163 15.2567 8.83122 13
173 1 -5.92794 7.83318 7.17031 22
174 1 8.16746 -10.0297 -14.3098 7
175 1 -7.29441 12.4217 9.04228 14
176 1 -0.975267 16.6607 -8.19857 11
177 1 1.01269 -1.22727 17.4701 10
178 1 -11.6782 -2.60251 5.29028 19
179 1 4.91013 -10.9789 -13.8011 12
180 1 -4.71783 13.6956 -9.89783 14
181 1 -0.950676 -13.2045 6.67744 20
182 1 6.22814 -13.1257 -4.10216 19
183 1 -0.414739 6.4141 -10.9789 21
184 1 -13.5763 3.79101 10.436 19
185 1 0.0498207 6.3115 -0.611359 21
186 1 11.5679 11.6322 -3.2479 12
187 1 -4.41107 4.55283 12.3679 20
188 1 -2.21437 -9.6723 6.653 22
189 1 -5.34439 3.68389 -1.093 21
190 1 -3.84726 15.7554 5.30972 14
191 1 -4.18702 4.49277 6.83686 20
192 1 14.5618 1.44339 13.5774 16
193 1 -5.22785 8.99169 4.01634 20
194 1 9.46571 -5.44628 -8.0123 18
195 1 -1.68287 10.5228 19.8245 8
196 1 -3.65087 -0.792448 -8.9991 23
197 1 9.96906 -7.59025 5.5737 16
198 1 -5.63676 -8.1114 4.51267 21
199 1 -15.1306 1.06938 10.1436 16
200 1 -5.63414 -9.85762 7.33413 15
201 1 -0.903163 3.46128 20.0849 16
202 1 -14.7148 1.50787 4.11581 13
203 1 5.16484 -15.4371 6.25896 15
204 1 4.13394 -8.08461 -6.27396 21
205 1 -2.02281 9.00885 4.8909 20
206 1 -7.76438 0.527538 4.3948 21
207 1 5.53061 8.95766 16.5609 18
208 1 -7.00066 -0.793305 -3.74308 21
209 1 -6.81055 6.55751 -6.21104 20
210 1 -12.5097 -3.58087 -3.70932 17
211 1 -11.2063 2.70179 7.85097 15
212 1 1.25611 -9.95465 6.20289 18
213 1 5.57099 -11.848 9.8865 11
214 1 -15.0816 7.31495 2.11019 16
215 1 16.2493 6.29651 4.95607 8
216 1 8.02905 1.41113 -3.42243 21
217 1 -6.99396 -6.49076 -9.13214 20
218 1 0.826164 0.683407 15.1913 17
219 1 6.02374 -12.4426 1.39796 22
220 1 -2.18512 3.924 -11.3019 24
221 1 2.61444 -12.7905 -9.25866 18
222 1 6.72885 3.47444 -16.6793 14
223 1 4.85351 4.47583 -11.3494 23
224 1 -9.49036 -9.54437 -4.25428 19
225 1 3.03012 16.2277 -8.28742 8
226 1 -10.2799 -10.1391 7.51288 11
227 1 7.08227 11.5359 -1.41059 15
228 1 -3.28448 0.822334 21.184 5
229 1 -0.714233 15.0311 -3.24164 20
230 1 8.9597 -3.82679 12.3681 16
231 1 -0.17154 -9.7181 -13.5829 14
232 1 -3.45217 6.89321 -5.83263 22
233 1 1.54906 2.16724 -8.98418 23
234 1 -6.94349 -14.1211 5.19586 18
235 1 -6.97599 6.34227 9.6363 18
236 1 -8.24201 9.71304 10.5272 15
237 1 1.09566 -15.1317 -11.1452 14
238 1 -4.47806 -16.0697 -2.17564 19
239 1 11.2149 -9.92421 -4.29731 19
240 1 2.65605 -11.112 -1.04732 23
241 1 10.5405 5.31359 16.1852 15
242 1 5.02648 7.87723 -9.44883 20
243 1 1.7432 9.26718 -0.646808 22
244 1 -9.17161 1.52887 1.2409 21
245 1 -8.50046 9.60225 -0.449231 21
246 1 -0.283175 6.66872 13.9733 17
247 1 7.16218 -15.5627 0.960306 14
248 1 9.46666 -1.03705 -3.47852 21
249 1 -0.975609 4.28697 7.41777 23
250 1 -3.89615 10.4641 6.78667 21
251 1 -10.5624 -0.912274 -3.86386 24
252 1 9.5227 11.3207 -10.1615 10
253 1 -0.0752106 2.49534 12.5768 18
254 1 10.7167 2.22619 -10.4293 16
255 1 0.499905 -15.5571 -4.08335 20
256 1 3.36034 -4.83907 -12.0919 18
257 1 3.91191 -17.1349 8.15102 11
258 1 14.306 1.57334 -10.1917 12
259 1 -7.16197 -7.0381 7.08892 19
260 1 4.50185 -13.9057 -1.2052 24
261 1 -10.7319 -4.06824 -6.28327 20
262 1 3.45033 10.5042 -2.91952 22
263 1 1.75741 -3.41054 -14.1864 19
264 1 4.32267 3.27035 16.3519 19
265 1 15.9933 4.19932 2.10135 13
266 1 -3.87663 -6.75025 -3.6334 24
267 1 13.2783 -5.59915 -6.55689 16
268 1 -2.58653 -10.1758 0.846822 18
269 1 -9.12095 -7.41737 -7.30478 12
270 1 -7.14332 -0.712631 -8.97287 21
271 1 -4.04238 -16.8391 8.49143 11
272 1 12.3277 -1.85303 6.92109 22
273 1 4.45471 -4.67166 6.64349 18
274 1 -5.34077 -9.54673 -9.29678 16
275 1 1.24223 -7.76464 3.98926 21
276 1 1.62136 4.35165 -11.4062 20
277 1 4.57487 7.34087 1.99148 23
278 1 -7.30328 -10.7793 3.70426 17
279 1 3.29361 10.4975 2.49402 18
280 1 -7.53899 -0.569265 13.3941 17
281 1 -12.4758 -3.96333 -8.69317 10
282 1 -5.18795 -7.81662 -11.6504 17
283 1 -1.53266 8.97047 -16.2245 8
284 1 -8.29791 -12.1976 -3.77323 20
285 1 -4.34131 -10.7532 -1.71275 21
286 1 7.6632 0.864082 -18.5689 10
287 1 16.1837 2.65026 -3.36246 12
288 1 10.8526 1.17028 7.16213 20
289 1 -4.06416 -4.84791 -6.37023 25
290 1 -5.63136 -7.88564 9.79654 17
291 1 -0.923353 -12.6079 1.31751 20
292 1 5.29556 5.61809 18.7415 18
293 1 -2.59505 -13.8459 9.76594 15
294 1 4.6237 -10.0066 0.824733 23
295 1 3.37905 15.2215 1.5903 12
296 1 6.57771 -2.2137 -19.2754 7
297 1 -3.94431 -6.13571 -15.3263 16
298 1 -12.8974 -7.06971 10.1663 13
299 1 0.727493 9.18752 20.1398 13
300 1 -1.8215 -15.9846 -0.388067 21
301 1 -3.3645 -13.1944 -9.68633 14
302 1 -6.92488 11.3417 -9.3942 14
303 1 9.67869 4.1324 7.57841 19
304 1 -6.92612 4.16173 -8.65074 21
305 1 -0.00327683 4.83894 -8.55649 22
306 1 -0.350088 -7.09972 7.21094 22
307 1 7.44237 -16.3744 -8.54242 11
308 1 -2.03169 13.0929 1.86951 17
309 1 0.745538 6.99934 7.84112 19
310 1 14.5773 0.779128 1.68736 17
311 1 -14.0932 -3.23379 7.89681 15
312 1 0.435157 -8.44399 10.8193 17
313 1 -3.87821 12.5301 4.0476 24
314 1 7.94613 -6.81245 -10.0938 18
315 1 11.7999 9.25865 0.605405 21
316 1 5.9933 -11.0301 -1.74247 18
317 1 -0.321891 -2.25877 12.3666 18
318 1 -16.0807 -2.1813 9.93419 12
319 1 4.84824 -17.3881 -7.07491 14
320 1 -3.56138 8.82942 15.341 12
321 1 -11.0379 4.36602 12.3023 16
322 1 -6.50288 -4.33489 12.3248 16
323 1 -15.3652 -5.4159 9.08364 12
324 1 13.6958 -8.01828 -3.52009 19
325 1 -13.8472 -7.94535 7.37589 12
326 1 12.0785 -3.46823 -9.22342 15
327 1 10.0189 -14.4454 -4.27267 16
328 1 -0.0220692 12.4313 -6.12753 20
329 1 -3.3825 10.2771 -2.84547 21
330 1 8.06819 5.29822 11.2585 18
331 1 -8.76778 -4.05224 6.66857 20
332 1 4.2887 -10.1404 -3.88274 23
333 1 -3.14839 10.055 2.08796 20
334 1 -5.96939 2.90312 4.54652 21
335 1 2.89034 -7.16911 6.36449 20
336 1 11.4844 -3.50367 3.57514 20
337 1 -7.20865 6.19627 4.49599 21
338 1 -7.43325 -4.97049 -6.20739 22
339 1 2.13887 1.85217 17.9034 18
340 1 -1.96181 9.51358 9.67437 19
341 1 8.37986 4.76864 18.449 12
342 1 -6.40329 14.8171 -7.82008 11
343 1 3.46425 -9.06896 -16.2447 10
344 1 -5.61676 -1.92835 -6.14118 23
345 1 6.9206 -10.8276 -11.5031 11
346 1 -6.2893 3.25792 18.4397 8
347 1 -14.3739 6.59016 10.6327 12
348 1 -5.24052 -3.60659 -9.09371 23
349 1 -6.96985 11.9791 -0.332342 17
350 1 8.87872 -1.78235 7.10873 19
351 1 -10.4481 -10.9075 4.39704 20
352 1 7.72675 -6.97857 8.86125 17
353 1 -8.12576 -12.6734 11.0923 5
354 1 -11.561 9.81133 -0.0683097 18
355 1 5.98746 -2.50116 16.1251 12
356 1 5.82861 -13.2601 -9.50803 17
357 1 -2.05575 -7.10994 -13.0898 18
358 1 9.28749 -1.65746 -17.5972 11
359 1 -0.81862 12.0144 4.74531 21
360 1 -9.07921 -1.64525 -1.04491 22
361 1 5.11917 -7.85888 -11.8388 14
362 1 8.74892 4.24078 -11.1422 23
363 1 0.953025 -13.4059 -7.05849 18
364 1 -14.7083 -8.8992 -0.95349 9
365 1 0.931946 -13.8764 -1.31688 21
366 1 10.0295 7.4613 12.9718 21
367 1 12.7638 0.736231 -0.935161 19
368 1 -10.2712 4.32036 -8.77457 18
369 1 2.03087 14.8255 -2.15803 18
370 1 -10.7944 1.78088 -6.71114 19
371 1 -11.8607 8.82148 9.38735 15
372 1 -6.49959 10.524 2.59805 21
373 1 -6.88525 4.36586 7.48019 21
374 1 10.4391 3.47557 12.2456 19
375 1 15.5864 0.110519 -0.99569 14
376 1 8.70484 -6.74845 12.0838 12
377 1 14.3514 0.716501 -4.28042 16
378 1 -5.68851 -17.8093 -5.02537 10
379 1 -3.62862 6.37713 -0.51622 22
380 1 1.00232 -9.93801 -4.54503 18
381 1 -0.435583 6.15797 4.71325 20
382 1 -7.00739 1.09928 -6.37013 21
383 1 2.22893 -12.9574 -4.0714 19
384 1 10.3452 -2.52187 9.46611 19
385 1 -8.71865 -3.57951 -3.6275 21
386 1 -5.76844 -10.0933 0.971965 21
387 1 -8.76478 -8.15428 10.027 12
388 1 -0.152557 10.7655 1.76268 20
389 1 -8.98373 -7.26908 -1.47675 21
390 1 1.8194 4.9563 15.6598 18
391 1 -10.2505 9.7629 -3.06465 15
392 1 0.400483 10.9905 -9.01884 17
393 1 3.26396 11.0068 6.36857 17
394 1 -12.685 -9.81712 1.0339 15
395 1 -4.36521 -10.608 -6.75549 16
396 1 -16.1918 3.86806 8.37312 10
397 1 -13.5893 7.83165 -1.80728 13
398 1 4.55207 -10.2198 6.87988 20
399 1 -7.93911 -10.2129 -1.66012 23
400 1 11.4813 8.71469 14.8089 11
401 1 8.81258 5.83994 -15.8898 9
402 1 -8.91183 3.66503 -11.5485 16
403 1 -3.82611 10.2713 -10.047 22
404 1 -7.54824 9.60061 -5.99212 20
405 1 2.39975 -12.8209 6.87097 20
406 1 12.4907 3.35251 8.79334 21
407 1 3.97974 4.8107 -16.4599 15
408 1 -7.8648 -4.86385 9.31209 22
409 1 -12.5741 4.34241 -0.48285 19
410 1 -8.96948 6.98472 7.20811 15
411 1 -3.55181 -14.9331 6.1891 20
412 1 2.92825 -4.98451 -7.18576 18
413 1 7.37519 -8.04281 -7.28888 16
414 1 -2.09197 -4.45505 7.48307 26
415 1 -12.2856 1.44389 1.35948 18
416 1 -9.69444 0.256005 10.8273 18
417 1 -14.5836 8.63809 7.53524 12
418 1 1.01756 -4.39208 7.08917 22
419 1 -7.11487 3.79345 -14.5326 15
420 1 10.2176 -15.8619 -6.69282 11
421 1 0.691312 -7.46177 -14.3924 17
422 1 1.13799 -2.3012 9.65732 19
423 1 2.81713 -10.838 -6.94933 18
424 1 -6.95053 1.58873 -17.2592 5
425 1 2.72707 -10.8109 3.46093 23
426 1 1.74526 9.86631 -6.07081 21
427 1 -14.9752 10.1636 4.27757 10
428 1 -2.45029 -3.9107 12.8075 17
429 1 -13.2572 -8.86882 -8.27578 7
430 1 -6.66561 -9.91312 13.0705 10
431 1 5.89728 -7.35566 12.3771 12
432 1 11.2134 3.06571 4.49963 17
433 1 1.52934 -3.76536 -9.18716 21
434 1 8.17382 -9.67675 7.57681 14
435 1 15.1177 10.1665 0.533356 10
436 1 -3.98786 0.337056 9.37462 18
437 1 4.85866 9.04666 -0.898182 21
438 1 6.79346 -12.366 6.66171 14
439 1 2.38096 -19.6784 -2.03143 9
440 1 1.07532 0.871467 20.4793 13
441 1 -3.96576 12.4103 9.31969 21
442 1 -6.96804 -15.1351 -3.7203 16
443 1 12.8619 10.6543 3.12266 13
444 1 0.388031 9.63173 14.6171 18
445 1 -9.57305 7.36005 11.8318 17
446 1 -7.16296 -6.55795 -3.72888 20
447 1 -11.1575 0.252479 3.82105 21
448 1 -5.96355 -9.60187 -3.70506 22
449 1 -12.1679 9.26759 3.4756 21
450 1 -10.237 -14.8279 -2.40491 12
451 1 -3.61103 -10.8825 -12.2785 10
452 1 -6.17736 -13.1334 -1.45722 18
453 1 -3.96372 -6.95241 6.57883 22
454 1 5.95739 -1.93076 7.07707 21
455 1 -8.39877 -2.32557 10.1215 21
456 1 -10.4188 10.2778 -8.42794 11
457 1 9.4105 0.591848 -0.49539 21
458 1 -2.54407 -13.3318 -2.45621 18
459 1 1.47599 3.9248 -5.94453 22
460 1 -1.16543 15.3358 3.33437 17
461 1 -1.78887 3.78539 -6.18143 20
462 1 2.46159 5.99672 9.70017 17
463 1 -13.8495 -5.39854 -0.750157 16
464 1 3.50184 13.1906 -6.9628 18
465 1 10.5193 11.5476 -6.4618 11
466 1 -8.91416 -14.5515 -5.65077 9
467 1 4.58482 0.358639 18.9166 14
468 1 -0.702545 -17.842 -6.0419 11
469 1 -0.0606353 -4.87569 -11.9044 21
470 1 7.46843 -14.2253 3.69269 14
471 1 -12.1013 6.42634 1.16296 22
472 1 7.12703 2.29112 18.9432 12
473 1 9.73473 6.33723 -0.79236 21
474 1 2.8263 6.26619 -0.599778 23
475 1 -8.27831 6.08679 -10.3422 17
476 1 4.46933 -2.08628 -6.67219 24
477 1 5.99671 -10.8247 4.19795 19
478 1 -14.1237 -1.43674 2.08698 13
479 1 -5.57396 13.5459 6.38949 17
480 1 -3.75356 0.886616 -11.3889 20
481 1 9.62392 4.34349 1.99927 22
482 1 5.90557 12.063 -5.22087 12
483 1 6.88156 -5.12265 -2.00402 19
484 1 14.6526 5.70009 -2.39608 15
485 1 -0.954261 3.76186 -13.4822 18
486 1 1.41019 -9.88023 0.84406 21
487 1 2.85622 -13.2099 11.6765 16
488 1 3.73745 -10.1607 11.9079 15
489 1 -5.48156 7.38929 -8.39351 20
490 1 -9.88789 -15.4859 5.97025 10
491 1 -1.18787 -12.4449 -12.3996 14
492 1 6.11133 9.43233 8.2451 14
493 1 3.17272 1.19447 -11.3767 21
494 1 8.68619 -2.85759 16.4973 13
495 1 -12.9879 -1.05454 10.2474 24
496 1 -0.538594 -19.2017 0.0325857 10
497 1 -14.9803 -1.06229 6.84267 15
498 1 14.584 -4.93814 -3.99437 10
499 1 12.0614 -1.26146 -5.50442 16
500 1 -5.0684 7.5263 -3.29126 21
501 1 -0.635785 -15.4904 -8.55657 16
502 1 4.88836 1.95935 -9.20714 22
503 1 7.75664 -3.60742 -10.2481 21
504 1 -4.38047 0.226136 18.2978 11
505 1 6.10987 16.4919 1.49424 6
506 1 -5.65917 -4.29857 -14.7653 19
507 1 4.57448 2.75309 -14.1768 22
508 1 -7.07115 0.600268 10.1199 24
509 1 -2.81735 15.4134 -0.175013 18
510 1 -11.1052 -3.15824 -15.3032 9
511 1 -12.4929 -0.334593 7.12544 19
512 1 3.72376 -6.49908 -14.5537 17
513 1 -2.41635 -2.30927 9.75661 20
514 1 -0.0695327 7.04537 -6.00574 21
515 1 12.942 -0.236632 9.57032 22
516 1 11.683 4.93147 -2.43727 20
517 1 -9.03592 -15.7024 0.818542 14
518 1 -0.806741 -10.8113 -2.23064 23
519 1 -1.71234 -6.37427 -17.0573 13
520 1 -13.6238 7.09448 4.84742 18
521 1 5.16549 -3.65957 -14.8006 17
522 1 2.88309 4.47263 -2.98224 23
523 1 10.0292 -1.48079 2.01737 21
524 1 3.85706 10.1157 -12.0458 15
525 1 4.68837 -7.94987 -1.93261 20
526 1 13.5219 8.69848 -7.84911 8
527 1 8.20898 7.33244 16.026 20
528 1 -8.94748 5.63964 14.3093 14
529 1 8.15876 6.9753 7.74405 19
530 1 11.0782 -5.38827 15.5947 7
531 1 1.38567 0.673072 -18.3271 8
532 1 -5.75125 -7.69451 -6.61307 21
533 1 -0.687962 0.457876 9.9326 22
534 1 3.41977 13.3298 9.64318 12
535 1 12.0569 9.02576 -11.5636 10
536 1 -3.62251 14.9059 -6.29682 17
537 1 0.0684634 9.75698 -3.80806 21
538 1 6.80543 -3.30783 9.7696 16
539 1 10.7041 4.30719 -14.3674 14
540 1 10.4769 -6.61993 -5.12644 17
541 1 14.4489 8.28636 12.8299 12
542 1 -15.7114 -8.23564 4.72163 9
543 1 -3.91065 9.47821 -13.7043 13
544 1 1.2585 3.20112 9.59767 22
545 1 -9.52552 2.7346 14.6867 13
546 1 -1.47745 14.6472 -10.9526 12
547 1 7.06305 -16.1276 -5.46375 20
548 1 6.39757 -0.993425 -8.87151 22
549 1 1.02016 15.2673 -5.72518 19
550 1 -12.1383 -6.51453 -10.8921 9
551 1 3.34465 -18.23 2.43754 11
552 1 -16.408 -10.2377 1.7466 5
553 1 -1.41689 9.05436 -11.093 16
554 1 -8.68437 4.02096 -5.8589 23
555 1 1.89186 4.82575 18.6934 22
556 1 -1.15028 -10.8306 9.64707 21
557 1 8.69698 6.70856 -9.61035 17
558 1 -0.457711 -12.7354 -9.32634 20
559 1 4.22071 -2.07058 10.4505 17
560 1 6.12183 0.992924 -6.21525 23
561 1 -7.08057 6.68154 -0.984861 20
562 1 13.0895 0.282642 16.5174 11
563 1 2.14573 12.9008 -4.45113 23
564 1 10.2154 -5.06667 -2.06476 19
565 1 3.54265 8.19126 19.3877 13
566 1 -3.53747 3.92638 -15.3788 17
567 1 -3.88341 -9.41447 14.8519 10
568 1 -0.506439 -0.69801 -9.31827 21
569 1 4.66517 -1.08631 -16.856 16
570 1 1.2904 12.9893 6.99313 19
571 1 9.21722 0.564375 -6.47205 20
572 1 -3.89664 -1.88919 -14.9 21
573 1 -4.62408 -12.651 -4.2415 20
574 1 -10.6803 -4.11309 -12.1392 16
575 1 11.5409 1.03961 2.16992 22
576 1 16.6694 7.21168 -0.332341 10
577 1 4.60929 -9.71893 -9.15573 19
578 1 13.5289 3.13538 11.4055 20
579 1 5.94302 -11.0399 -6.47537 21
580 1 6.22012 10.8543 -10.0305 14
581 1 6.68297 9.83309 1.90695 22
582 1 -8.9154 3.30424 4.57503 21
583 1 8.96033 10.2927 15.6674 12
584 1 9.5728 4.25287 -4.44218 18
585 1 14.7474 0.392578 6.90795 16
586 1 13.2206 5.31701 -7.6952 14
587 1 11.8761 -2.67864 15.439 14
588 1 12.2902 0.650323 11.9039 17
589 1 -0.593128 -5.48529 10.1093 23
590 1 11.1307 7.60976 -2.70976 20
591 1 3.74338 0.464697 15.5378 15
592 1 14.6585 2.84507 -6.69065 11
593 1 7.66847 0.533444 7.6282 21
594 1 -8.56068 -3.67119 -8.92582 21
595 1 11.3526 3.4478 0.31917 20
596 1 7.76676 -4.38507 1.4719 21
597 1 -9.1879 11.1776 7.34143 17
598 1 3.00514 11.4487 15.5886 11
599 1 12.6517 2.72418 14.9988 14
600 1 0.158275 13.2581 13.1091 12
601 1 -2.68745 12.2333 15.2366 6
602 1 4.35303 1.43622 7.34627 23
603 1 0.906403 -18.2099 5.53976 13
604 1 -4.63846 9.64924 -5.89937 19
605 1 11.7989 1.83782 -7.26679 18
606 1 9.81734 2.03714 -16.9203 11
607 1 4.6726 12.144 0.549448 22
608 1 -2.39721 -9.57105 -9.68122 22
609 1 9.82789 -1.06323 -14.4004 17
610 1 -13.4347 5.22012 7.73491 18
611 1 -3.83732 6.7968 -11.326 22
612 1 -1.81569 -18.1835 2.2954 14
613 1 -5.75862 -2.03169 -12.3279 20
614 1 -9.02523 3.77977 -0.925481 23
615 1 5.96025 -7.67329 6.16319 19
616 1 11.5654 8.60388 5.70655 17
617 1 4.54419 -13.1883 4.3736 18
618 1 -8.82701 -1.81741 -6.12769 19
619 1 -3.26088 -3.68375 -17.3217 14
620 1 1.12565 3.91288 22.5679 8
621 1 7.85206 9.58158 -7.7316 19
622 1 14.3002 -1.35922 13.7743 17
623 1 6.65057 4.83785 -8.73657 20
624 1 13.6112 10.6729 7.23126 7
625 1 4.27569 -15.6511 -3.89346 22
626 1 -8.88151 -3.38852 14.4913 10
627 1 12.476 -0.393005 4.26137 20
628 1 -0.345796 7.37126 16.9127 19
629 1 8.66023 9.56167 -4.72163 18
630 1 -7.39404 13.8739 -2.67329 12
631 1 15.5563 4.89375 13.5499 10
632 1 -7.5751 -16.5943 3.27056 14
633 1 15.0626 -3.18585 -1.55278 11
634 1 5.27548 12.9871 3.52336 16
635 1 -2.27298 3.40501 10.3411 20
636 1 -12.217 -4.19937 1.74633 19
637 1 -7.39678 -4.57222 -11.9677 21
638 1 14.0176 -2.98278 11.0339 15
639 1 -7.868 -6.76924 12.4266 13
640 1 10.0551 -0.511601 15.5186 15
641 1 -2.07983 13.1642 6.87205 21
642 1 6.07269 4.03756 8.08159 19
643 1 7.94662 3.1443 4.78837 22
644 1 1.50656 -1.69687 -11.8001 23
645 1 -11.0732 -2.80604 11.8126 15
646 1 6.30487 1.55189 -11.7215 22
647 1 -2.31605 -7.77756 -6.65683 22
648 1 15.2954 -11.3042 -3.99289 9
649 1 8.15648 5.01488 14.6164 17
650 1 4.72138 3.2999 4.6634 21
651 1 -1.99394 -7.28114 12.6275 19
652 1 6.75711 9.08549 13.3462 21
653 1 10.6104 1.91398 18.2289 12
654 1 -1.07973 6.24952 10.4174 20
655 1 6.95439 -4.05659 -16.8053 17
656 1 -6.42569 4.21642 14.81 16
657 1 5.5002 6.05081 15.4551 18
658 1 -5.51278 -17.1128 6.32799 13
659 1 12.8737 4.54706 2.58144 20
660 1 9.1404 -11.223 -9.34773 12
661 1 -3.53795 0.982649 -6.01904 21
662 1 8.35662 6.81616 -3.55827 19
663 1 9.82853 10.2313 2.57047 16
664 1 1.45488 -1.60992 -17.3357 15
665 1 -5.5877 1.26347 6.89764 23
666 1 5.33456 9.27103 -4.48451 18
667 1 11.1565 7.28841 3.22335 20
668 1 -5.61096 -7.7455 -0.901711 21
669 1 -1.82925 -4.18745 -14.1828 21
670 1 -4.02011 15.442 -3.12784 16
671 1 11.4976 -6.25162 -11.1184 17
672 1 6.17922 4.38218 2.3148 19
673 1 16.5044 -2.08168 -8.80846 9
674 1 8.5098 9.20153 -0.51238 19
675 1 -4.01009 5.93596 4.49198 22
676 1 -7.62383 4.47101 1.96112 21
677 1 3.67219 6.10881 -13.6225 16
678 1 14.1313 -4.81729 14.1024 7
679 1 11.3519 -5.38495 10.5715 13
680 1 -3.72105 -9.29429 12.0375 18
681 1 -2.42576 6.73137 -13.9023 20
682 1 0.175811 14.209 10.0463 12
683 1 10.124 -3.50213 -11.7757 18
684 1 2.71533 0.466421 9.45841 21
685 1 6.62904 6.57445 -5.62253 21
686 1 7.94124 8.80786 4.66056 20
687 1 10.2966 -8.65341 -8.04839 17
688 1 7.14397 8.31653 18.6496 9
689 1 -13.7211 -6.59791 2.31119 15
690 1 -2.10129 -17.6836 5.69582 14
691 1 -0.820951 -4.97072 -6.61016 21
692 1 -6.06447 14.8433 0.164904 13
693 1 -3.88093 -1.83042 6.88855 21
694 1 2.61719 -6.94627 -4.00399 21
695 1 4.42369 9.12525 4.52902 20
696 1 -14.0899 1.33549 -1.0855 12
697 1 -0.478711 3.22937 16.2059 20
698 1 -1.79597 5.41744 -17.5132 10
699 1 -5.4364 6.79887 -14.284 14
700 1 4.34385 -15.5468 1.39831 21
701 1 9.86691 4.32473 -8.04032 20
702 1 4.49794 -7.974 3.24448 19
703 1 -4.20044 4.08634 1.94414 22
704 1 -12.5198 1.71161 14.9437 7
705 1 5.00287 -1.47126 -11.3483 21
706 1 0.858134 -16.9723 2.60204 16
707 1 1.57325 13.1695 2.10811 19
708 1 -3.44612 1.1443 15.4519 16
709 1 -8.71576 -7.47739 -11.3768 13
710 1 -2.22759 -8.9887 -15.9857 10
711 1 -7.73159 -16.9266 -1.7781 12
712 1 -2.07358 13.1291 -8.63558 24
713 1 2.44611 -6.92808 -9.14845 20
714 1 -0.513124 10.1852 7.20007 20
715 1 8.23163 -10.2854 0.255456 21
716 1 10.0063 -11.8092 -2.50266 17
717 1 2.39245 -6.08767 9.92205 13
718 1 13.0227 3.41281 -4.69655 17
719 1 4.31911 -13.8308 -6.43737 21
720 1 -12.5008 1.44643 12.0763 15
721 1 0.41456 -15.3767 0.933939 20
722 1 -11.6165 -11.8697 -3.65079 13
723 1 -14.2368 -0.859315 13.1685 12
724 1 -4.34907 -18.6841 0.396982 9
725 1 12.5023 4.02301 -12.2772 12
726 1 -6.42685 13.6976 3.46873 17
727 1 -9.07987 1.27097 7.02026 19
728 1 -11.2708 8.31932 6.53485 22
729 1 7.81558 -2.87912 4.21118 21
730 1 -10.5334 -1.16924 -8.4246 18
731 1 -1.82551 7.42212 -3.21058 20
732 1 8.77959 -0.707169 -11.5124 21
733 1 9.68933 10.7936 12.62 14
734 1 11.14 6.20609 -10.1344 16
735 1 -10.178 7.057 -7.45743 19
736 1 -12.0134 -8.67477 -5.48739 15
737 1 -3.82779 5.16215 20.3151 9
738 1 9.25466 6.84239 -12.9297 18
739 1 13.2273 10.9126 12.7149 9
740 1 -4.94785 1.32539 12.6682 21
741 1 0.268111 -17.4552 -2.41142 17
742 1 -4.17803 -16.3527 3.1724 21
743 1 -2.16922 -7.89286 9.44331 21
744 1 16.4427 3.39263 11.2427 11
745 1 1.1565 -7.89372 -6.72385 19
746 1 -5.22717 9.22432 -0.175526 21
747 1 6.11568 6.38916 0.0133396 21
748 1 -10.5742 -7.01683 7.48991 18
749 1 12.8162 6.95236 -14.3694 7
750 1 2.3379 -18.3257 -5.30694 15
751 1 5.20981 -17.3851 -1.3647 13
752 1 8.29245 -16.6926 -2.98591 9
753 1 6.11668 7.98746 -12.6367 14
754 1 5.0108 16.4755 -1.19949 10
755 1 -7.01997 1.16428 -11.6365 17
756 1 -1.37947 -2.63793 15.2452 11
757 1 3.60872 1.60566 -16.721 18
758 1 -10.3273 -6.45244 -14.0693 10
759 1 -14.1697 -0.744542 -3.31283 12
760 1 0.958969 14.2448 -8.70796 19
761 1 9.54088 -0.00435387 4.44089 17
762 1 -6.79859 -7.38172 -14.1374 13
763 1 -7.23021 -6.78902 1.72705 23
764 1 10.9635 1.44774 -3.22248 20
765 1 10.7582 -3.46107 -5.41621 19
766 1 -5.57428 7.44339 14.8483 15
767 1 9.80889 -13.0648 1.45332 10
768 1 16.0108 -2.41502 1.73946 12
769 1 10.5575 -7.03964 8.56079 13
770 1 1.3005 9.33675 4.49514 17
771 1 -6.43752 1.19808 15.6876 15
772 1 -5.52184 3.26893 10.023 23
773 1 3.68773 -14.1638 8.83595 16
774 1 8.01537 1.39414 2.21856 22
775 1 5.83081 11.5963 14.8128 12
776 1 -12.4216 -1.84525 -1.08347 20
777 1 7.84798 -8.10983 -1.6276 17
778 1 -6.49196 12.8996 -5.3275 17
779 1 3.05236 6.07994 4.3754 19
780 1 1.85944 -16.3212 11.325 12
781 1 5.97728 3.17182 13.505 19
782 1 -0.806183 15.5041 6.66214 14
783 1 2.28575 -10.6098 9.26818 19
784 1 -10.7283 -1.66298 1.83505 21
785 1 3.76128 9.05478 10.3207 17
786 1 -13.7877 -6.81254 -3.61451 13
787 1 0.636271 9.89365 17.401 12
788 1 7.54844 12.7511 1.84177 15
789 1 -12.4582 -13.4567 4.22353 11
790 1 -0.980378 -16.0298 9.84027 14
791 1 7.20473 -4.85529 7.32322 16
792 1 9.63426 -5.99027 3.25623 19
793 1 4.34776 7.06957 7.19032 16
794 1 -1.59196 9.53274 -0.68522 21
795 1 -1.19129 -10.9151 -6.96796 18
796 1 -2.17535 -1.75323 -11.7407 22
797 1 -2.3754 -0.151414 12.5545 19
798 1 -4.79762 15.9481 2.40835 13
799 1 15.3662 -2.21439 8.38349 13
800 1 3.44692 6.8097 -6.2858 20
801 1 -3.6002 5.52936 15.7343 18
802 1 4.91112 6.47995 11.9846 20
803 1 6.61012 -0.356673 -13.937 19
804 1 -7.4812 -12.4046 1.21642 21
805 1 -3.90168 -4.74196 -11.8091 23
806 1 16.0329 -0.0485306 10.7357 15
807 1 8.43552 1.45745 -9.09571 21
808 1 -2.913 3.40451 17.8595 18
809 1 12.9592 -10.6215 -1.44994 14
810 1 0.624073 3.61496 -16.8834 14
811 1 -2.60791 -9.76565 -4.39294 20
812 1 14.6483 -4.76406 -10.4787 11
813 1 14.5011 -2.47988 5.22389 14
814 1 3.79768 -4.93176 13.9795 13
815 1 -3.31562 -16.5074 -7.65592 12
816 1 10.0951 11.9117 -0.0618679 14
817 1 -2.22278 -7.7219 4.05188 20
818 1 -15.5643 4.86171 5.00697 12
819 1 14.5132 3.56316 -0.48425 19
820 1 14.2923 7.29704 2.65101 20
821 1 0.0321277 -4.26995 -16.2535 17
822 1 -6.65658 10.8116 5.71948 21
823 1 14.8521 5.48337 8.28004 16
824 1 11.6648 9.20046 -5.00121 17
825 1 3.37826 -0.555487 -14.0455 20
826 1 11.4977 -2.43668 -2.02806 21
827 1 -10.8856 1.14164 -1.38431 20
828 1 12.4801 4.98182 5.87214 18
829 1 -10.7631 -5.33953 3.8822 23
830 1 -6.39047 8.32557 -11.2077 15
831 1 4.31985 3.61926 10.3416 20
832 1 -12.7603 -0.856897 -6.24096 14
833 1 -8.75299 3.48764 9.98516 17
834 1 -1.76381 1.96337 -8.809 21
835 1 15.0958 -8.24688 -5.82248 12
836 1 -11.4399 -8.43484 -2.12618 20
837 1 13.6106 -8.44063 0.308217 11
838 1 -10.5754 6.94928 -1.50106 21
839 1 -10.7738 -4.74979 -1.63474 23
840 1 12.2719 7.14757 7.80571 20
841 1 -0.111801 -13.9694 12.655 11
842 1 9.53634 2.06032 15.3884 16
843 1 12.0634 -5.79164 5.14801 14
844 1 11.1846 -4.31005 0.938329 21
845 1 -10.9669 5.70438 9.37971 19
846 1 7.72393 8.56362 10.4512 18
847 1 3.30265 5.34048 -8.769 21
848 1 1.92933 -6.57842 -17.1753 13
849 1 -10.9248 10.839 11.0315 8
850 1 -11.9123 -12.7767 7.1185 11
851 1 7.24562 14.2515 -0.961766 13
852 1 -2.70806 14.1119 11.3083 13
853 1 13.8455 -7.57563 -9.41965 12
854 1 2.18181 -7.59284 13.2318 14
855 1 -2.36918 11.9514 -12.0635 13
856 1 1.66551 7.9619 -8.4844 19
857 1 -5.33599 -2.40617 9.97394 22
858 1 14.8383 3.37907 4.98998 15
859 1 1.70941 -7.68527 -11.7164 18
860 1 13.2126 11.9216 -0.606163 10
861 1 -8.76414 7.48846 -4.73183 20
862 1 0.845301 -10.7828 12.5875 19
863 1 8.83413 9.80531 -12.281 9
864 1 5.11741 0.734675 10.7268 17
865 1 2.4459 -15.9547 -0.621435 23
866 1 -9.73679 14.5508 3.27575 7
867 1 -12.3497 4.687 -6.20559 13
868 1 8.60558 1.99873 -13.7535 19
869 1 1.70053 -12.9729 -14.1893 9
870 1 -10.8253 4.11789 2.33209 20
871 1 14.2315 9.09304 -2.31674 15
872 1 -5.70356 -4.20172 7.24913 23