ITEM: TIMESTEP
77000
ITEM: NUMBER OF ATOMS
500
ITEM: BOX BOUNDS pp pp pp
-30.0 30.0
-30.0 30.0
-30.0 30.0
ITEM: ATOMS id type x y z Coordination
1 1 -10.1452 18.6001 -10.1742 15
2 1 -14.64 28.2095 -8.21191 15
3 1 -19.7261 23.8769 -24.5264 18
4 1 -25.2741 24.6892 -18.8237 18
5 1 -14.7808 26.4482 -26.1791 14
6 1 -8.45318 17.4612 -21.2842 11
7 1 -11.7296 26.483 -11.2617 17
8 1 -13.6233 -29.0283 -9.69337 13
9 1 -27.5455 23.8721 -16.286 11
10 1 -7.69738 22.9439 -17.6667 16
11 1 -10.6211 23.4876 -9.91647 14
12 1 -24.5019 18.0184 -16.5985 12
13 1 -17.9644 21.6374 -24.2909 17
14 1 -10.593 21.1814 -24.5372 11
15 1 -10.3377 14.7496 -14.9623 10
16 1 -24.5434 -28.8874 -12.9608 10
17 1 -10.1532 -24.0137 -18.81 9
18 1 -21.5625 22.0868 -25.8815 12
19 1 -16.6461 29.1079 -9.9903 20
20 1 -19.7801 -26.6518 -11.4794 10
21 1 -11.5309 -28.7966 -21.4215 21
22 1 -8.63159 -29.097 -16.4453 20
23 1 -16.7381 -27.8976 -21.615 18
24 1 -21.869 29.99 -23.0602 18
25 1 -18.9389 -26.876 -19.5143 14
26 1 -26.4959 27.1262 -16.7852 15
27 1 -16.4296 -25.1525 -13.3003 11
28 1 -22.3101 29.6938 -26.8224 7
29 1 -22.8324 18.6102 -13.0133 13
30 1 -11.528 15.7181 -21.4486 12
31 1 -23.9564 21.6129 -21.0183 18
32 1 -17.663 15.341 -11.5155 13
33 1 -10.5004 29.003 -23.4185 16
34 1 -20.3918 21.3444 -22.5008 21
35 1 -16.6315 29.1701 -26.4127 13
36 1 -13.539 -24.729 -17.6667 11
37 1 -26.0885 25.7105 -13.7968 13
38 1 -13.4242 -26.3157 -11.5913 13
39 1 -14.6577 23.107 -7.82039 16
40 1 -11.8543 15.3007 -18.2739 13
41 1 -10.7611 23.352 -22.8679 17
42 1 -11.9942 20.759 -8.40776 14
43 1 -14.4015 14.9163 -10.6769 11
44 1 -7.67381 -26.5727 -17.4333 11
45 1 -22.1355 18.6659 -17.5171 20
46 1 -20.2807 16.1806 -12.9622 13
47 1 -22.5101 23.4924 -9.85481 12
48 1 -22.7872 25.5602 -11.9301 18
49 1 -13.2048 14.0096 -13.8897 10
50 1 -24.8077 23.102 -15.0321 18
51 1 -22.0464 -29.9356 -10.9992 12
52 1 -21.8596 28.1484 -13.3943 20
53 1 -18.9688 -28.8931 -8.98579 9
54 1 -22.0978 19.3676 -24.2701 11
55 1 -24.7336 -29.6421 -21.1701 14
56 1 -24.4925 21.6058 -24.06 11
57 1 -8.39635 21.42 -9.54738 12
58 1 -17.1053 20.5184 -8.23606 15
59 1 -24.7973 24.9926 -25.4347 9
60 1 -26.9479 22.1324 -19.3543 15
61 1 -19.8828 18.6163 -15.043 24
62 1 -21.225 -28.5709 -14.034 18
63 1 -14.7237 15.6756 -22.9698 10
64 1 -16.6046 -25.5582 -16.7678 15
65 1 -25.5962 24.5096 -21.8145 18
66 1 -26.3724 -29.1417 -16.6012 9
67 1 -19.1488 18.2908 -21.808 18
68 1 -10.1654 17.4399 -13.6895 19
69 1 -24.7564 29.4172 -18.3406 19
70 1 -17.2428 25.9425 -8.07119 23
71 1 -24.5352 27.6597 -11.2411 12
72 1 -21.451 16.7805 -22.6697 11
73 1 -19.6168 19.0408 -8.16762 9
74 1 -14.8572 15.2993 -19.7892 15
75 1 -13.5138 23.4047 -24.7905 16
76 1 -7.90698 17.4628 -15.3866 13
77 1 -20.7669 15.9421 -16.3922 13
78 1 -23.416 21.5426 -11.8784 16
79 1 -7.86266 24.0382 -11.4225 15
80 1 -8.37036 -29.01 -19.9615 16
81 1 -13.3219 29.2267 -25.1763 16
82 1 -17.1225 -27.822 -24.7467 13
83 1 -12.3978 -24.248 -20.2195 10
84 1 -11.4835 -27.8836 -24.7863 12
85 1 -13.4492 17.4468 -15.0039 22
86 1 -10.4883 17.9736 -19.5743 19
87 1 -17.783 15.771 -18.2486 15
88 1 -26.045 27.3815 -20.2106 15
89 1 -5.87128 21.9149 -12.4022 12
90 1 -19.6725 -27.6183 -22.7681 13
91 1 -8.13819 20.8431 -22.3018 12
92 1 -23.1955 19.5192 -9.64485 8
93 1 -14.7951 14.9876 -16.8035 15
94 1 -16.2878 18.6004 -23.0639 16
95 1 -10.7337 17.3912 -16.6379 20
96 1 -21.9847 19.201 -20.6939 24
97 1 -16.8607 23.1678 -5.86354 12
98 1 -17.7716 28.4416 -6.84658 10
99 1 -10.5728 18.1144 -22.9317 14
100 1 -11.4143 -28.9576 -18.3815 18
101 1 -6.90876 23.5752 -20.7841 10
102 1 -21.0704 25.6805 -26.3239 13
103 1 -25.0756 28.885 -15.1285 16
104 1 -14.9898 20.8148 -9.82813 17
105 1 -23.1675 27.4874 -24.7214 15
106 1 -9.00597 20.6048 -12.9431 21
107 1 -10.85 29.478 -9.79054 12
108 1 -16.5384 17.9223 -10.0808 18
109 1 -7.44352 28.2718 -15.0864 12
110 1 -8.7352 27.2607 -12.1139 13
111 1 -10.671 -28.1071 -11.5444 14
112 1 -19.5793 28.6019 -25.0014 17
113 1 -19.3506 18.8043 -18.4069 23
114 1 -19.7854 -28.5762 -16.7831 19
115 1 -9.3228 -26.6203 -20.0678 17
116 1 -14.8725 26.1223 -6.12511 12
117 1 -15.3122 20.8604 -26.0828 10
118 1 -10.8871 -26.053 -16.4926 18
119 1 -13.5971 17.868 -21.2859 22
120 1 -13.2508 17.9736 -9.65618 14
121 1 -19.8667 25.3355 -6.49701 11
122 1 -7.16194 18.7646 -11.7839 13
123 1 -14.5468 -29.1675 -23.3126 18
124 1 -8.65387 26.0172 -22.9098 11
125 1 -19.3761 23.1043 -8.04732 18
126 1 -20.6381 21.1079 -9.84141 21
127 1 -21.4051 -26.105 -17.7765 11
128 1 -11.4214 -28.7576 -15.0362 22
129 1 -26.7862 20.5666 -16.3891 11
130 1 -7.72513 23.0276 -14.5417 19
131 1 -15.2026 15.95 -13.4229 17
132 1 -6.41317 25.7592 -13.3824 10
133 1 -7.36513 18.5469 -17.9432 11
134 1 -13.7293 -26.0847 -14.7413 18
135 1 -25.9121 19.0217 -22.048 7
136 1 -13.884 -26.4642 -22.2205 15
137 1 -22.2922 24.2764 -23.3226 23
138 1 -13.2249 18.5714 -24.7697 11
139 1 -17.9895 15.4689 -21.3959 13
140 1 -8.63247 20.1794 -15.9396 22
141 1 -25.1968 18.986 -19.1457 15
142 1 -19.2922 -28.753 -26.4208 9
143 1 -20.6937 16.3461 -19.9132 17
144 1 -6.06895 19.9038 -14.5002 13
145 1 -16.601 23.6783 -26.0303 13
146 1 -23.4532 -27.8535 -15.7972 16
147 1 -22.5625 26.7193 -8.98875 9
148 1 -8.50654 -27.2575 -13.8428 13
149 1 -7.60547 28.1099 -18.0718 16
150 1 -19.7972 18.4824 -11.0842 18
151 1 -11.5327 26.1865 -24.6502 14
152 1 -8.73001 -28.2465 -22.8101 13
153 1 -10.9625 -25.0024 -13.0481 10
154 1 -10.5271 -25.0167 -22.4312 9
155 1 -7.70034 28.4879 -21.5301 13
156 1 -8.68967 20.4616 -19.6081 19
157 1 -16.488 -27.8639 -11.6811 19
158 1 -19.1133 -26.0775 -15.0108 13
159 1 -17.9005 15.4851 -15.0318 17
160 1 -11.697 15.7815 -11.2804 10
161 1 -24.0392 16.5988 -20.0578 11
162 1 -24.2801 -27.2135 -18.8455 12
163 2 -26.7402 25.0731 -17.4551 13
164 2 -8.46527 28.3822 -13.5458 15
165 2 -26.2835 23.4995 -20.3642 14
166 2 -20.8742 18.6235 -12.9093 18
167 2 -18.2609 24.4698 -8.88089 21
168 2 -20.2545 -26.8911 -13.4834 12
169 2 -10.0082 16.3201 -22.3053 10
170 2 -19.7714 25.9151 -24.6251 18
171 2 -17.0852 21.7086 -26.005 11
172 2 -17.8571 -26.321 -11.9934 11
173 2 -7.52721 21.002 -14.3625 20
174 2 -8.19744 -27.3683 -15.7763 11
175 2 -14.6391 -25.3791 -12.8349 14
176 2 -11.7294 -25.6641 -14.8792 14
177 2 -12.4917 -25.2298 -21.996 12
178 2 -11.8074 22.6205 -24.2914 16
179 2 -25.2312 26.4434 -21.6438 14
180 2 -18.1067 18.2902 -8.90652 13
181 2 -22.8626 29.0512 -18.1165 22
182 2 -8.48821 18.4234 -19.5566 17
183 2 -19.8568 15.6409 -14.7522 13
184 2 -14.4306 -27.9823 -11.251 17
185 2 -16.7778 21.1482 -10.0592 23
186 2 -22.6898 21.0973 -13.6413 19
187 2 -16.1377 16.1121 -10.3738 13
188 2 -23.7199 17.4832 -18.3647 15
189 2 -14.0129 15.4303 -15.0575 17
190 2 -16.6836 15.6199 -19.8344 15
191 2 -22.6647 -28.855 -12.6584 15
192 2 -8.00906 -28.6887 -18.2765 14
193 2 -13.3008 -28.9407 -24.9654 13
194 2 -6.86465 26.3114 -15.1778 13
195 2 -14.2457 -24.6538 -19.3461 10
196 2 -20.2384 -29.5699 -10.2203 11
197 2 -10.3675 -24.2693 -20.7714 8
198 2 -16.3458 -28.9095 -23.3543 20
199 2 -17.6038 -28.9659 -10.599 13
200 2 -15.7613 24.5238 -6.62621 15
201 2 -11.3125 19.3289 -24.3035 12
202 2 -13.7099 15.7905 -21.2154 15
203 2 -19.7639 15.7917 -18.1377 15
204 2 -8.11994 20.8748 -17.7066 18
205 2 -13.5226 -28.7665 -18.3815 20
206 2 -16.58 25.567 -26.2521 15
207 2 -14.0938 20.158 -24.5395 14
208 2 -20.0191 21.7591 -24.5085 15
209 2 -14.6244 17.5815 -23.4338 13
210 2 -7.44158 21.6735 -20.8528 12
211 2 -14.9204 22.9063 -25.9155 15
212 2 -16.5836 15.6479 -22.5718 12
213 2 -17.5843 28.2477 -25.1073 18
214 2 -14.181 14.7906 -12.4972 12
215 2 -18.9204 -29.0162 -18.4004 21
216 2 -23.5565 18.6128 -14.8717 14
217 2 -25.0752 20.9695 -19.4074 19
218 2 -10.6828 17.1891 -11.3374 14
219 2 -11.6559 -26.504 -12.1375 14
220 2 -20.56 23.2928 -9.81376 20
221 2 -25.8876 26.978 -15.1505 11
222 2 -25.0326 20.6416 -22.4276 15
223 2 -7.78179 28.8267 -19.7388 13
224 2 -22.9989 23.9119 -15.4688 21
225 2 -20.4207 28.8934 -23.2877 20
226 2 -13.576 25.7146 -24.7423 17
227 2 -25.5955 -28.5059 -18.2332 11
228 2 -11.2277 15.382 -16.4766 16
229 2 -13.7056 15.8489 -18.2895 18
230 2 -23.136 -26.7851 -17.4223 11
231 2 -11.3882 14.8474 -13.0896 14
232 2 -11.9988 -29.3082 -10.4144 14
233 2 -16.6023 -26.2698 -18.5702 17
234 2 -19.0827 21.0171 -8.30934 17
235 2 -17.3697 -29.1119 -26.3212 10
236 2 -13.654 21.7154 -8.40751 18
237 2 -8.5862 28.9138 -16.4855 18
238 2 -9.68525 -28.7814 -13.0729 15
239 2 -25.774 19.1251 -17.2886 14
240 2 -14.6979 29.3147 -9.75322 18
241 2 -8.84072 19.7805 -10.9706 16
242 2 -14.8448 28.4332 -26.3354 13
243 2 -13.8406 26.1592 -7.84874 14
244 2 -11.0685 19.9911 -13.1562 21
245 2 -23.7059 23.4909 -21.7438 19
246 2 -23.7065 -28.1705 -20.6319 13
247 2 -26.0022 29.0252 -16.7885 14
248 2 -21.1869 19.1255 -9.49438 13
249 2 -8.9381 -25.5539 -13.3999 8
250 2 -23.9532 23.5391 -24.4365 13
251 2 -5.76156 19.8874 -12.6213 9
252 2 -21.806 -28.7 -16.1777 20
253 2 -9.14874 16.1464 -14.7407 11
254 2 -23.0467 21.5245 -9.89789 12
255 2 -22.5096 16.2531 -20.976 11
256 2 -13.3506 -28.4617 -22.0295 19
257 2 -24.5895 29.4228 -11.9956 10
258 2 -14.8386 18.865 -9.77377 15
259 2 -25.1258 -28.9828 -14.8402 13
260 2 -15.8072 27.7581 -6.64503 11
261 2 -22.4134 26.3023 -23.1829 23
262 2 -8.70473 -25.5385 -18.8038 11
263 2 -18.2495 29.6031 -8.15503 13
264 2 -21.1904 23.8733 -26.0472 13
265 2 -17.3792 18.721 -21.2893 18
266 2 -11.0796 25.2815 -9.75781 16
267 2 -9.0594 27.8579 -22.7246 16
268 2 -13.022 16.1517 -10.0871 12
269 2 -18.5294 26.5989 -6.67711 14
270 2 -22.5008 17.6296 -24.1606 6
271 2 -24.5144 25.9865 -12.7692 17
272 2 -25.1569 21.5206 -15.9312 16
273 2 -21.1272 18.3983 -19.2953 20
274 2 -18.9319 -27.8587 -24.5905 12
275 2 -10.3057 -29.0145 -23.7156 13
276 2 -11.6482 18.2892 -21.3353 21
277 2 -6.76928 22.3475 -10.7855 12
278 2 -10.4317 28.3029 -11.2927 16
279 2 -15.6923 -26.0311 -21.9398 13
280 2 -22.8571 20.9476 -24.9789 11
281 2 -17.1431 -25.8682 -14.8727 15
282 2 -18.601 -27.5061 -21.3087 16
283 2 -25.6074 29.2318 -20.06 16
284 2 -22.5153 28.0586 -11.4402 17
285 2 -9.90721 21.4283 -22.6419 16
286 2 -21.388 -28.0899 -22.5125 13
287 2 -20.2572 29.5395 -26.5653 11
288 2 -10.4985 21.6794 -9.28184 11
289 2 -18.8262 23.6222 -6.25019 12
290 2 -26.2827 24.2346 -14.9769 12
291 2 -8.13562 18.1827 -13.3726 16
292 2 -25.0896 26.9223 -18.7579 17
293 2 -20.8663 25.9338 -8.06551 12
294 2 -19.0179 16.7055 -11.6235 13
295 2 -8.84684 22.8169 -12.9247 20
296 2 -16.7987 15.0593 -16.6922 15
297 2 -20.0764 -26.6342 -16.6057 16
298 2 -23.1048 26.253 -26.0878 10
299 2 -23.4594 19.2482 -11.5043 12
300 2 -11.8412 19.2701 -9.47366 14
301 2 -11.8026 28.0265 -24.4801 16
302 2 -7.63733 25.7927 -11.6411 12
303 2 -6.39203 18.5489 -15.9204 10
304 2 -8.9961 19.0599 -22.2866 14
305 2 -8.90555 18.211 -16.7295 19
306 2 -7.90866 -29.6543 -21.8152 13
307 2 -25.3107 17.8492 -20.9018 9
308 2 -27.4897 22.1279 -17.4464 11
309 2 -11.5848 17.8676 -15.0058 22
310 2 -10.2131 -28.4161 -19.8658 19
311 2 -8.01199 26.237 -18.096 17
312 2 -9.65695 -26.6806 -22.1666 12
313 2 -8.42665 23.5122 -19.2745 16
314 2 -10.8085 15.9061 -19.5628 14
315 2 -20.9447 19.0773 -22.2925 16
316 2 -11.5054 -24.785 -17.9163 11
317 2 -14.6153 -25.1638 -16.1761 15
318 2 -17.1128 15.9089 -13.3034 15
319 2 -16.3207 22.085 -7.31923 13
320 2 -6.49009 23.8193 -13.1484 10
321 2 -10.3519 25.1477 -23.2839 16
322 2 -22.5087 29.281 -25.071 12
323 2 -19.7151 16.3035 -21.5134 13
324 2 -11.7573 18.4707 -18.3256 24
325 1 -22.2025 24.0735 -20.2252 21
326 1 -23.4576 21.8523 -18.1981 23
327 1 -16.4668 18.1295 -19.655 21
328 1 -16.3373 23.9075 -22.7817 23
329 1 -19.2059 24.2067 -21.4771 24
330 1 -17.3105 20.8107 -21.1883 21
331 1 -20.3785 21.637 -19.668 22
332 1 -16.225 23.5568 -19.3593 20
333 1 -19.1973 24.0982 -17.9916 23
334 1 -17.1516 21.4541 -18.014 24
335 2 -22.2235 21.0952 -20.3558 19
336 2 -23.5991 23.6503 -18.5673 23
337 2 -17.6984 18.0928 -18.3435 21
338 2 -17.7942 23.7247 -24.1117 18
339 2 -20.6429 23.5067 -22.4002 22
340 2 -16.5065 20.9659 -23.0529 21
341 2 -19.2332 21.1107 -21.0202 20
342 2 -17.3988 23.9592 -21.0985 22
343 2 -20.2312 23.5665 -19.7843 21
344 2 -16.1672 21.0511 -19.65 21
345 2 -19.2294 20.8994 -18.0121 22
346 2 -17.4382 23.3171 -17.9155 21
347 1 -22.0917 24.2325 -17.1362 21
348 1 -23.4329 20.5183 -15.2427 20
349 1 -21.8668 23.267 -13.8487 19
350 1 -16.8786 18.2889 -16.5684 22
351 1 -16.9543 17.9885 -13.3752 23
352 1 -20.3967 21.5122 -16.4284 25
353 1 -16.2502 23.8038 -16.2018 20
354 1 -19.2061 23.516 -14.8616 22
355 1 -17.8128 20.8917 -14.856 23
356 1 -20.7487 20.5208 -13.1415 22
357 1 -16.6552 23.7131 -13.0456 22
358 1 -19.7442 22.9832 -11.5611 23
359 1 -17.7267 20.9754 -11.7285 22
360 1 -16.8705 23.2248 -9.89128 25
361 2 -22.2254 20.7806 -17.0483 24
362 2 -22.6951 23.4864 -11.8947 17
363 2 -20.8029 17.7733 -16.4855 22
364 2 -18.0315 17.783 -14.9698 22
365 2 -20.2825 23.3889 -16.5273 22
366 2 -16.6804 20.5162 -16.352 22
367 2 -19.7195 20.5024 -14.7748 21
368 2 -17.3822 23.3088 -14.7218 23
369 2 -20.2363 23.5579 -13.1815 23
370 2 -16.9002 20.019 -13.4718 19
371 2 -19.5207 21.001 -11.4944 20
372 2 -17.721 23.1459 -11.646 22
373 2 -23.2201 25.2229 -9.90104 11
374 1 -23.3442 27.1866 -21.7739 20
375 1 -21.7675 29.5724 -19.7557 22
376 1 -23.1525 26.9997 -18.5231 23
377 1 -17.5476 26.2851 -24.6501 19
378 1 -20.4138 26.5761 -23.007 23
379 1 -16.5519 28.6438 -23.2443 22
380 1 -19.4453 28.7272 -21.4886 18
381 1 -17.3648 26.6066 -21.149 21
382 1 -20.4534 26.6585 -19.8221 22
383 1 -16.3385 29.137 -19.9631 22
384 1 -18.9055 29.0164 -18.2197 20
385 1 -17.2644 26.4539 -18.0827 22
386 1 -22.1959 -27.1187 -20.9529 13
387 1 -15.8508 -25.4026 -20.0762 14
388 2 -22.3799 26.044 -20.1026 25
389 2 -22.7096 29.1785 -21.3309 22
390 2 -16.203 26.3201 -22.8937 21
391 2 -19.2676 26.5137 -21.5171 20
392 2 -17.4403 28.663 -21.5535 20
393 2 -20.0377 28.4753 -19.6281 21
394 2 -16.3077 25.7935 -19.5746 22
395 2 -19.097 26.2432 -18.199 21
396 2 -16.9266 28.4347 -18.1296 24
397 2 -16.1094 -28.6396 -19.9951 20
398 2 -20.8293 -26.8739 -19.6 13
399 1 -22.2197 29.3561 -16.213 20
400 1 -22.9763 26.0076 -15.0555 19
401 1 -20.2128 26.9123 -16.5843 25
402 1 -16.1124 29.0274 -16.5171 22
403 1 -18.8144 29.2911 -15.1661 22
404 1 -17.2194 26.5858 -14.795 21
405 1 -19.8177 25.7136 -13.2349 21
406 1 -16.342 29.4433 -13.4032 21
407 1 -19.0789 29.6394 -11.7657 20
408 1 -17.1481 26.4416 -11.2681 20
409 1 -19.918 25.3533 -9.597 18
410 1 -17.0554 -28.6561 -18.135 20
411 1 -16.871 -27.9172 -14.9851 23
412 2 -21.989 26.2502 -17.0395 20
413 2 -23.1769 28.163 -14.9682 25
414 2 -21.7209 26.1502 -13.5901 18
415 2 -20.195 29.0542 -16.4742 20
416 2 -16.2618 25.8828 -16.4347 21
417 2 -19.3119 26.1402 -15.0851 22
418 2 -17.1552 28.516 -14.9376 23
419 2 -20.2426 29.2188 -13.3894 21
420 2 -16.5514 25.833 -13.1413 20
421 2 -19.1453 25.9458 -11.3231 20
422 2 -17.1222 28.5494 -11.8197 20
423 2 -15.9824 27.0027 -9.6494 21
424 2 -16.0123 -28.7575 -16.3964 22
425 2 -18.321 -28.8235 -15.5106 20
426 2 -16.168 -28.6507 -13.4012 21
427 1 -13.6271 17.9032 -18.0334 23
428 1 -14.3679 21.3958 -22.8957 20
429 1 -13.4234 23.1889 -21.1512 21
430 1 -11.3815 20.3797 -21.2889 23
431 1 -14.361 20.6041 -19.8047 22
432 1 -10.5913 23.1691 -19.4801 24
433 1 -13.3704 23.0549 -17.9811 23
434 1 -11.4884 20.4606 -17.8623 22
435 2 -14.5352 18.3725 -19.6933 21
436 2 -14.4097 23.7462 -22.9679 21
437 2 -13.2501 21.2094 -21.1858 21
438 2 -11.5577 23.6567 -20.9901 19
439 2 -14.3728 23.8012 -19.6602 23
440 2 -10.4246 20.8511 -19.3904 24
441 2 -13.3714 21.0537 -18.1966 24
442 2 -11.5146 23.7639 -17.8442 23
443 2 -7.67961 25.0098 -21.7083 12
444 1 -14.6202 20.2421 -16.5482 22
445 1 -10.4517 23.0935 -16.3708 21
446 1 -13.2751 22.8855 -14.795 22
447 1 -12.0877 19.7517 -14.7617 19
448 1 -14.8435 19.9713 -13.1808 20
449 1 -10.6105 23.5594 -13.0168 20
450 1 -13.7509 22.9246 -11.0332 21
451 1 -12.0116 20.6985 -11.6918 20
452 2 -14.9257 18.3028 -16.518 22
453 2 -14.8478 17.9383 -13.5835 19
454 2 -14.4149 23.3851 -16.2959 21
455 2 -10.6209 20.9563 -15.7922 22
456 2 -13.6021 20.8899 -14.8291 20
457 2 -11.5212 23.9839 -14.7943 20
458 2 -14.5062 23.7888 -12.5935 20
459 2 -14.1238 20.6939 -11.6393 21
460 2 -11.4637 22.7977 -11.4681 19
461 2 -15.0425 23.9368 -9.89972 21
462 2 -8.68735 23.7861 -16.1879 20
463 1 -14.2909 25.8383 -23.0378 19
464 1 -13.4866 28.2185 -21.4511 22
465 1 -11.2545 25.5685 -21.4234 22
466 1 -14.2578 25.9152 -19.6885 25
467 1 -10.781 28.2866 -19.7457 24
468 1 -13.2371 28.6099 -18.4541 21
469 1 -11.2657 25.9223 -17.6872 22
470 1 -14.1791 -28.9829 -20.0719 21
471 1 -8.61169 25.7254 -19.7357 20
472 2 -14.4996 28.9097 -22.9761 19
473 2 -13.0591 26.1382 -21.3981 22
474 2 -11.565 29.378 -21.2963 24
475 2 -14.3256 28.8571 -19.9359 24
476 2 -10.4638 26.4392 -19.715 25
477 2 -13.059 26.6538 -18.247 20
478 2 -11.3471 29.2311 -17.9318 23
479 2 -10.8275 -28.2791 -16.6554 19
480 1 -14.2724 26.4261 -16.3818 19
481 1 -10.6177 28.466 -16.1622 22
482 1 -13.3712 28.51 -14.6626 21
483 1 -11.6133 25.868 -14.4295 19
484 1 -14.3913 25.6937 -13.0792 21
485 1 -10.0815 29.2398 -13.2041 20
486 1 -13.4633 28.3707 -11.3891 23
487 1 -12.1344 26.3367 -8.574 13
488 1 -14.5014 25.8202 -9.90432 22
489 1 -14.1013 -28.7741 -16.6207 20
490 1 -14.0627 -28.7591 -13.2106 20
491 1 -8.51937 25.6772 -16.3679 20
492 2 -14.008 28.5204 -16.5537 19
493 2 -10.2212 26.6206 -16.1903 24
494 2 -13.4384 26.479 -14.6328 22
495 2 -11.5749 29.2653 -14.5541 20
496 2 -14.1531 29.4375 -13.0291 20
497 2 -10.8295 25.4581 -12.6803 18
498 2 -13.6996 26.6104 -11.5851 23
499 2 -11.7562 28.0825 -8.65128 13
500 2 -13.2576 -28.0266 -14.8071 20
