ITEM: TIMESTEP
2000
ITEM: NUMBER OF ATOMS
2000
ITEM: BOX BOUNDS pp pp pp
-30.0 30.0
-30.0 30.0
-30.0 30.0
ITEM: ATOMS id type x y z Coordination
1 1 -7.00164 4.68832 -15.9336 10
2 1 -0.779383 -11.041 -4.91679 19
3 1 7.96207 5.60652 13.0729 19
4 1 8.73165 -12.5363 5.03765 10
5 1 -8.55551 8.96876 1.66963 22
6 1 11.1431 -9.50909 -8.3846 16
7 1 -9.87075 2.096 -6.63013 20
8 1 3.19188 -7.47382 8.8692 19
9 1 -6.55065 1.86916 -11.904 16
10 1 -13.3416 -6.20897 7.99768 15
11 1 12.6483 4.56158 -9.02602 17
12 1 -1.44134 -12.0226 2.60152 22
13 1 -10.9367 -5.85539 4.1348 17
14 1 4.17027 1.98046 17.7719 18
15 1 -0.0943344 3.59737 11.3073 20
16 1 -2.85737 9.47821 -8.55139 18
17 1 1.91353 -1.57799 15.9666 18
18 1 -7.94093 -3.70946 -14.8353 10
19 1 -13.4437 -1.4312 12.6836 18
20 1 12.7204 5.55323 10.2202 16
21 1 1.4516 11.8545 -10.7307 20
22 1 1.96411 -0.52169 -16.0659 18
23 1 14.7261 -0.385312 3.9294 18
24 1 -10.9425 4.58148 -9.71552 14
25 1 -1.81228 -2.87148 -8.84672 21
26 1 -12.1469 11.262 8.79462 12
27 1 5.9752 -14.1859 5.16719 16
28 1 3.8751 -12.4286 -7.52298 22
29 1 5.02973 -12.0708 -2.31001 24
30 1 -5.74258 -11.0096 -9.39889 22
31 1 -13.5626 -5.24442 12.3425 9
32 1 2.37453 -7.98633 -15.8119 14
33 1 8.20186 -7.94765 -9.43032 20
34 1 -0.322115 6.09187 -16.2001 12
35 1 3.0971 3.58263 12.402 23
36 1 0.9878 -9.89756 9.32604 17
37 1 4.44319 -4.94033 12.2748 16
38 1 -16.0497 3.62887 3.57523 7
39 1 -15.2755 -2.21162 9.21935 18
40 1 -10.1674 0.298512 1.95262 21
41 1 -4.2471 12.1551 -3.72996 17
42 1 0.438471 -15.8581 -9.79434 14
43 1 3.52606 -3.5668 -11.7461 21
44 1 3.0838 -6.61114 -12.6275 19
45 1 -1.00657 -1.83611 15.7497 12
46 1 -10.7804 5.90726 1.71137 21
47 1 4.41865 12.1996 -14.0957 9
48 1 0.0717343 11.802 6.60995 21
49 1 -5.78689 5.67385 -9.92115 23
50 1 -3.67939 13.2469 -0.503862 17
51 1 6.6299 -11.0327 0.918693 22
52 1 6.16417 -5.40135 -3.66249 22
53 1 4.79934 -5.75 -16.6436 17
54 1 -10.011 10.8541 11.4021 12
55 1 -12.6148 -4.47754 -7.08774 18
56 1 8.17236 -2.82204 1.88696 23
57 1 -8.77122 10.9287 -0.982795 20
58 1 -10.6499 -11.0117 6.35972 14
59 1 -1.07293 10.4774 9.72034 20
60 1 -12.6242 7.12852 -9.01464 9
61 1 -6.98369 10.6869 13.0394 14
62 1 -7.16815 -14.535 5.80066 18
63 1 3.36048 6.12041 7.07562 24
64 1 2.88941 -15.4086 -7.42808 13
65 1 4.23383 11.4655 12.9686 15
66 1 -13.4748 1.00714 -7.21092 12
67 1 -10.0627 6.64208 -11.8338 12
68 1 7.88622 7.97679 14.777 19
69 1 12.7897 -0.784104 -12.6825 14
70 1 10.674 -10.2762 3.22651 14
71 1 -15.9872 -3.11892 0.618465 10
72 1 7.65989 15.7659 5.94284 12
73 1 7.1059 0.562112 17.3353 14
74 1 -10.3587 -14.3813 6.13783 16
75 1 -13.7332 -0.138586 -3.86505 18
76 1 12.0859 0.165511 8.61227 19
77 1 7.53689 -2.65091 -3.52718 20
78 1 -4.37901 11.0661 10.6889 19
79 1 6.33086 0.274368 7.20031 22
80 1 -4.22965 -5.62441 -8.72271 21
81 1 -14.4797 8.85187 8.91522 11
82 1 -12.6122 14.1511 -2.7122 10
83 1 -2.94078 6.21744 -8.66362 23
84 1 8.26134 -0.827414 -5.9277 18
85 1 8.19708 13.6209 -5.46654 13
86 1 6.5996 -5.68927 1.60379 23
87 1 6.18827 -7.90454 6.43845 19
88 1 -6.88079 12.3008 -3.47351 19
89 1 -8.3957 15.142 2.0451 17
90 1 -11.71 -3.15953 8.89285 20
91 1 -3.25528 7.88315 4.91632 23
92 1 -4.24235 -7.02801 9.64462 21
93 1 14.3811 -9.74198 -3.95777 13
94 1 -10.8222 0.410873 6.90586 19
95 1 -11.8163 -11.922 3.47618 13
96 1 8.5526 -9.62568 -6.45951 21
97 1 4.71066 1.33389 -11.2283 21
98 1 -6.80969 -4.12813 -18.309 4
99 1 0.22554 13.8174 3.72581 19
100 1 -6.84725 6.97491 -12.8715 14
101 1 6.3569 6.49478 16.8281 14
102 1 0.0343765 11.9203 -4.26022 21
103 1 -12.6338 11.4696 0.325131 15
104 1 -0.211069 11.9196 1.53938 20
105 1 -2.87137 -6.82133 12.1113 14
106 1 15.5916 3.43923 5.80543 14
107 1 -2.00743 -6.2348 -6.17732 23
108 1 7.07062 -5.41605 -8.42638 16
109 1 -1.88299 4.86513 10.1379 20
110 1 9.47683 1.8426 16.398 16
111 1 -8.37169 -6.34178 -0.737987 20
112 1 -7.97462 -7.17386 -6.13025 18
113 1 11.7877 -9.06217 0.886142 17
114 1 -1.94086 9.04592 2.03362 21
115 1 2.28221 2.01337 -12.9791 16
116 1 1.2789 16.5187 -1.5246 14
117 1 -8.29189 -16.8638 7.47399 10
118 1 -11.0635 -17.4332 5.83572 7
119 1 5.60325 -8.92519 -16.0939 9
120 1 3.53332 6.22321 -8.72295 22
121 1 9.40252 -11.1678 -0.15656 14
122 1 -2.448 -17.5751 4.67977 14
123 1 -7.79612 -8.39146 1.51533 21
124 1 16.3922 8.23276 8.76241 6
125 1 13.9767 -4.49313 -8.30046 9
126 1 -13.4929 -4.82366 0.304902 16
127 1 6.58042 7.40982 5.24074 21
128 1 13.9538 6.36443 1.56457 15
129 1 -7.45328 5.74056 17.0784 11
130 1 -3.73417 9.4642 13.1578 14
131 1 -3.04711 14.868 -8.46695 12
132 1 -0.964223 -5.79633 -8.9755 21
133 1 7.91022 -9.30045 -12.7077 13
134 1 3.98371 13.3271 -11.8447 14
135 1 7.79985 -6.12369 12.0633 9
136 1 -1.93874 -2.26408 -17.8244 14
137 1 -3.9849 8.0586 -6.09328 21
138 1 7.99109 4.9263 -5.7892 22
139 1 -8.96128 11.1958 -6.17948 18
140 1 -9.1545 15.656 -2.56705 13
141 1 6.6759 0.503042 -8.80904 19
142 1 9.31278 -9.11029 5.81356 13
143 1 -10.5447 5.82963 -4.09358 20
144 1 -8.57406 14.5568 7.22384 11
145 1 14.3559 7.35151 -6.88234 9
146 1 7.43305 10.5716 -2.76331 19
147 1 -4.21224 16.4699 0.147255 19
148 1 8.39694 11.0881 -0.328368 19
149 1 -2.18766 8.56834 -4.31991 16
150 1 1.73696 17.2273 -8.61093 10
151 1 3.2411 8.77683 -11.1842 17
152 1 -10.3418 -9.07572 3.98525 18
153 1 -11.2838 10.409 -2.16023 19
154 1 -4.80199 -3.77093 -13.5062 21
155 1 5.55711 -11.1291 -11.4162 16
156 1 12.0064 13.5918 9.95614 8
157 1 1.23738 12.1047 11.8706 16
158 1 -14.7889 2.68018 -4.674 10
159 1 -10.0963 12.0899 1.4165 17
160 1 15.913 -0.851052 -3.29642 17
161 1 -8.39256 1.85062 -14.9238 13
162 1 6.73972 2.00378 14.5147 20
163 1 12.6874 13.6491 -1.46182 7
164 1 -3.16653 7.71321 10.2488 17
165 1 3.29585 -12.5792 -13.0252 12
166 1 -6.15802 16.1224 5.49503 13
167 1 0.091502 11.9298 -7.70702 21
168 1 3.28463 -2.21326 12.3392 20
169 1 -10.1191 -5.81553 7.76173 19
170 1 0.0729529 -13.8024 -12.7978 11
171 1 -5.70426 8.77558 -8.56977 23
172 1 -3.18893 -9.03255 4.94104 21
173 1 1.75008 -13.6995 -4.83579 19
174 1 -1.26699 13.4938 -12.6461 15
175 1 -16.8332 2.89565 11.4958 10
176 1 11.6476 8.72925 -4.14626 18
177 1 -9.02974 8.30673 15.1364 11
178 1 0.278553 -7.17325 10.5982 14
179 1 -7.18038 5.8833 -3.67316 22
180 1 3.24945 15.9821 4.20181 12
181 1 -0.0598278 5.72055 7.40207 23
182 1 16.3236 2.48185 12.0883 9
183 1 -7.91083 17.8124 2.99595 10
184 1 10.2409 -6.56822 -7.58384 19
185 1 -7.6518 12.5971 10.339 13
186 1 -8.24443 5.1703 -6.70709 19
187 1 14.1661 -8.80902 2.65834 9
188 1 -7.86988 -8.85111 6.92846 20
189 1 -16.3806 -1.40339 5.88797 14
190 1 -11.836 -8.80484 1.82692 16
191 1 12.1005 4.50397 16.1338 17
192 1 -13.2733 1.83822 -1.19205 19
193 1 -1.03295 -14.0496 -0.252798 19
194 1 4.24264 -7.97372 -3.97801 23
195 1 -1.5141 11.0181 4.14907 19
196 1 5.57009 9.80382 10.012 22
197 1 -8.14472 -0.629049 -5.67836 22
198 1 -1.75267 12.0426 -10.0758 16
199 1 -11.9341 -2.64934 -4.2038 19
200 1 -9.10143 -3.45464 10.9661 21
201 1 0.210689 -13.8819 5.30865 19
202 1 3.48378 -12.8446 5.55671 18
203 1 -12.5211 13.3635 2.87181 9
204 1 17.3672 2.85912 -0.528991 11
205 1 8.0026 3.27021 -3.14072 22
206 1 -5.11972 -8.79553 -13.9993 11
207 1 3.0533 -1.32038 9.73776 21
208 1 8.38567 -15.7844 4.13655 10
209 1 -0.80834 7.70143 -10.869 18
210 1 6.01029 -10.475 -8.40327 22
211 1 12.6801 1.6987 -14.7492 8
212 1 2.80528 4.85093 -16.9316 11
213 1 -6.9096 -3.61125 -5.97246 24
214 1 -2.18616 13.8043 -5.84408 20
215 1 -8.32702 -12.0323 7.77238 14
216 1 7.62238 16.1817 -0.886707 13
217 1 -9.08026 5.59567 14.4583 16
218 1 -5.6552 10.7453 -6.23006 21
219 1 10.0386 -0.781454 6.36606 20
220 1 -3.32168 -6.8235 -11.9956 17
221 1 -4.80821 12.1741 -9.00955 19
222 1 3.62777 4.21317 -10.8093 17
223 1 -6.34743 -9.39495 3.83362 18
224 1 -13.4767 6.36817 7.26694 19
225 1 -8.22834 8.90302 7.02271 16
226 1 2.7123 -10.308 -9.72173 19
227 1 -4.74677 -10.6869 1.22649 19
228 1 8.10192 -11.619 -2.69915 18
229 1 13.5943 6.87089 15.4718 10
230 1 5.30675 8.89351 -8.18713 21
231 1 -2.1314 11.0133 -1.81526 18
232 1 -13.3713 -4.52808 4.79318 16
233 1 -14.4551 11.3767 -1.63133 10
234 1 1.68498 5.06928 9.79673 20
235 1 4.47568 -16.9743 0.657401 12
236 1 11.6981 -0.199662 -0.928404 21
237 1 3.43297 8.2343 4.46286 23
238 1 -8.36516 4.57402 9.56784 18
239 1 -13.3909 -5.78864 -3.81938 12
240 1 5.72736 3.01238 -16.6359 12
241 1 5.74161 -0.296678 12.7831 17
242 1 9.136 9.1995 -8.41596 15
243 1 2.74268 -10.8589 -4.81542 23
244 1 -3.47408 -0.974862 -13.5747 20
245 1 1.87189 -17.2363 5.84473 8
246 1 15.3728 0.724636 -5.65655 18
247 1 -8.00824 -3.3552 8.06277 20
248 1 5.69174 -17.5473 -2.10528 11
249 1 -9.85913 -3.30796 -6.59582 19
250 1 3.2631 12.9857 -0.302872 21
251 1 3.57389 -2.97112 -16.1432 18
252 1 6.02109 3.35492 12.1309 17
253 1 11.5685 2.94666 -2.5718 19
254 1 11.3098 -0.991462 -7.58801 14
255 1 -8.60616 -2.28666 -8.6706 23
256 1 -10.5073 1.08955 -9.49631 17
257 1 -7.61723 -19.1393 5.8108 10
258 1 9.7247 -1.11755 9.99012 20
259 1 5.01981 -2.69031 7.21182 22
260 1 -1.54455 -8.17487 -10.2382 23
261 1 1.55753 -8.30387 6.12922 18
262 1 2.29126 6.40912 -13.8595 18
263 1 3.31792 10.2519 1.79367 23
264 1 -7.00794 -5.43494 2.17835 20
265 1 -1.31834 14.602 6.31595 18
266 1 -7.77618 -2.51808 13.4232 14
267 1 -12.4759 -6.51478 -9.77851 12
268 1 -7.16405 -8.97409 -11.5093 13
269 1 -1.8087 12.9921 -15.2338 10
270 1 -3.51146 -9.1025 -7.04616 21
271 1 -4.18103 -12.2166 3.65687 19
272 1 7.33874 -7.00862 -14.6825 18
273 1 14.7601 0.39722 -11.0946 11
274 1 13.6747 2.7507 3.24063 21
275 1 -8.48113 -6.95653 9.91451 17
276 1 -1.76289 -7.99847 1.52265 21
277 1 12.0523 1.19661 15.6193 13
278 1 -4.39269 -16.5593 0.963974 16
279 1 1.65679 -15.7082 -0.270482 17
280 1 -6.14485 15.3643 -3.34258 17
281 1 7.95022 1.48176 -12.7824 16
282 1 -3.49884 -6.70133 -15.2175 13
283 1 -9.49333 -5.67308 12.6851 10
284 1 6.72993 3.60303 17.9804 15
285 1 1.58874 -12.2346 3.01681 21
286 1 -2.02402 -10.8295 -9.04734 22
287 1 -9.05805 7.15132 -9.04009 19
288 1 11.7397 3.64271 8.10707 16
289 1 -7.54131 3.61676 -9.00701 21
290 1 0.771962 4.82828 -11.6301 20
291 1 5.7838 -16.5587 -5.53917 11
292 1 -8.6641 14.9066 -5.81672 11
293 1 0.297529 13.5856 9.14944 19
294 1 12.5923 1.39483 5.72525 20
295 1 -8.70664 -0.68348 5.54277 24
296 1 0.947579 -2.16429 13.3619 15
297 1 -7.08707 6.00735 1.63333 23
298 1 5.01466 -8.12704 -9.86579 21
299 1 12.3768 9.39607 -6.68086 14
300 1 1.37463 -8.30149 1.18817 21
301 1 -0.267682 0.928298 15.4943 19
302 1 -16.5301 -0.415309 2.35667 12
303 1 0.170251 -15.552 -2.6808 21
304 1 -8.99038 7.54776 10.0367 19
305 1 -10.8711 7.57092 12.3992 15
306 1 -15.7439 -2.81309 12.1291 11
307 1 -15.5964 -5.50752 9.67081 12
308 1 14.7627 -3.84235 -3.64263 18
309 1 -11.0538 -8.81797 8.35881 12
310 1 6.26416 -1.43727 -11.7396 13
311 1 9.0341 -11.1063 -10.7934 13
312 1 -1.20693 17.4594 -0.00129302 13
313 1 -10.1996 12.6836 -3.95666 18
314 1 7.17674 6.83094 10.4446 19
315 1 -10.2016 -3.34531 5.91396 20
316 1 10.557 -7.29926 -2.00901 19
317 1 -5.29676 9.05064 2.21047 22
318 1 -5.08332 10.7463 5.15268 23
319 1 4.01121 -9.85002 7.64655 18
320 1 13.9197 -5.6075 7.04036 14
321 1 -3.43613 5.92841 7.42712 22
322 1 -6.99681 -5.58678 -3.42826 22
323 1 -3.49822 0.727739 15.524 16
324 1 -3.34134 13.505 4.88128 20
325 1 10.049 7.00171 17.0431 11
326 1 -7.53577 13.0747 -8.04058 13
327 1 1.00123 -3.10804 -17.2419 15
328 1 4.7266 -9.05924 -13.3835 18
329 1 -7.48691 7.83765 13.0237 20
330 1 -10.0183 2.13027 4.55568 21
331 1 -5.24125 -2.93405 -9.24399 19
332 1 -5.29014 10.9405 -0.427276 22
333 1 8.14478 -2.50554 7.68582 21
334 1 -9.64057 -11.1222 1.3131 17
335 1 8.44027 -6.24212 4.00656 20
336 1 -6.23041 -12.6049 10.6692 9
337 1 -13.2859 8.45922 -0.34227 16
338 1 -1.45052 -4.51141 10.0853 20
339 1 7.42518 -13.1612 -6.72697 16
340 1 -4.53242 3.02051 -10.1345 20
341 1 10.334 -1.02438 -14.5392 14
342 1 5.44666 15.1122 1.44187 19
343 1 -10.3336 0.407577 -3.66872 21
344 1 6.77904 -3.32573 -16.9951 15
345 1 6.62844 4.53191 -10.8339 18
346 1 -4.78236 -15.2322 -7.5489 15
347 1 -11.93 -8.95355 -3.97597 14
348 1 -7.3597 -9.54951 -1.03571 19
349 1 14.8672 3.14183 15.1144 11
350 1 9.90649 2.46452 -5.3205 19
351 1 -8.42123 4.4662 -12.5779 16
352 1 1.32699 17.794 4.60621 9
353 1 -16.7086 -1.68124 -3.7752 10
354 1 -8.51252 10.6519 4.86377 16
355 1 -7.10955 11.8291 2.42947 19
356 1 -6.85999 6.31868 7.22172 20
357 1 10.6832 3.30211 13.6253 19
358 1 14.0338 -2.14245 -5.94143 16
359 1 6.83941 -2.89415 13.8429 18
360 1 17.0183 -0.10772 -8.69273 9
361 1 -7.32929 -12.9263 -7.7007 14
362 1 0.899027 -8.14967 -4.473 21
363 1 1.85036 10.8238 4.5706 22
364 1 -6.87385 2.24885 -5.72545 23
365 1 6.00946 -8.77944 -1.45229 22
366 1 12.3108 -2.44552 6.20367 19
367 1 -8.62423 -2.92603 -3.19625 23
368 1 -4.74887 -7.79478 2.16833 21
369 1 -6.5981 -7.00174 11.5066 13
370 1 -3.88923 11.6774 2.26029 22
371 1 -11.458 -6.93584 -1.62084 20
372 1 10.9419 6.3634 13.9323 21
373 1 -8.85968 5.31763 -1.16124 23
374 1 3.54332 14.7801 -9.52875 15
375 1 1.88748 14.2512 6.31719 17
376 1 -10.6877 -10.0066 -1.09714 19
377 1 1.21821 -5.94562 -6.41908 24
378 1 -13.1629 -2.30878 6.56642 20
379 1 -10.4537 8.19089 -0.136593 22
380 1 7.19963 -9.49183 3.68412 21
381 1 -3.03422 -15.5862 -1.765 17
382 1 8.20847 11.696 10.0549 19
383 1 3.28814 9.25663 -14.6278 14
384 1 -10.5836 2.38504 -12.7876 10
385 1 0.273723 14.5102 -9.91482 17
386 1 -12.5127 7.54315 -3.18292 14
387 1 -2.34084 -11.6882 5.88655 20
388 1 13.3893 0.244607 1.60723 19
389 1 -3.99102 7.56321 -11.8605 22
390 1 -4.55168 1.00847 10.3387 19
391 1 -13.273 -0.55974 1.39018 17
392 1 -8.92415 3.18885 6.98805 24
393 1 -8.99166 -13.5323 3.58104 19
394 1 11.4108 -8.30954 -5.18349 22
395 1 -12.2652 -0.0781319 4.13519 17
396 1 -16.1907 0.284278 14.1671 9
397 1 -15.2172 3.92628 6.53076 15
398 1 0.0597381 -5.274 6.62989 19
399 1 -5.29212 2.62593 -16.3257 9
400 1 10.5409 -13.2673 -3.23945 8
401 1 0.289772 -11.2926 -10.9712 22
402 1 -2.89431 -1.44446 10.2895 21
403 1 -5.11763 -1.0482 -16.006 12
404 1 4.87903 -12.314 3.01145 23
405 1 2.29973 10.3607 -5.8685 19
406 1 -12.6402 9.70455 5.9388 11
407 1 -4.7199 -1.11224 12.8564 17
408 1 -10.0743 -6.0366 -8.46737 19
409 1 -6.36837 -5.61585 7.44368 21
410 1 8.92296 -7.1636 8.75726 11
411 1 3.20121 0.561891 -8.63521 21
412 1 10.5512 -5.94755 6.06649 19
413 1 13.6175 6.38897 -4.50758 16
414 1 0.65317 3.98127 14.5807 21
415 1 -0.485181 13.5654 -1.57319 21
416 1 9.78909 -5.74772 1.46673 21
417 1 -2.04089 -12.0639 -1.95842 20
418 1 -5.65379 5.65958 15.1128 16
419 1 -2.11205 16.0076 8.96333 8
420 1 -4.80078 -8.58141 -9.24176 21
421 1 8.66339 16.3721 2.49217 11
422 1 6.31763 6.33108 7.72252 21
423 1 -7.13155 1.95192 9.24311 19
424 1 -5.74844 -8.23721 -3.45426 22
425 1 -10.9609 2.16772 9.73945 21
426 1 -10.3713 -5.49685 -4.23538 20
427 1 -6.3768 11.6545 7.72526 18
428 1 -4.05326 -11.3444 -4.21138 19
429 1 -2.22604 -10.0532 -12.6343 17
430 1 -6.69246 -13.1789 0.513956 13
431 1 -4.86822 -6.25705 4.89581 23
432 1 8.30611 -0.342015 4.29309 21
433 1 -2.43131 -3.35809 13.2476 13
434 1 -7.24745 9.1019 -11.2361 16
435 1 8.23295 3.43448 1.83289 21
436 1 -9.23111 -13.4149 -4.70533 9
437 1 -4.32127 18.1241 -2.17766 10
438 1 0.350856 5.87499 -8.89446 20
439 1 0.188394 7.78467 10.21 20
440 1 -11.8577 3.0718 1.84844 18
441 1 -3.41204 16.3492 -5.36009 11
442 1 6.06141 15.3885 -3.77302 15
443 1 -7.27627 -5.83743 -8.40793 19
444 1 5.35132 -0.960702 16.2162 22
445 1 4.25033 -15.5618 -10.8231 11
446 1 0.286466 -5.06083 -11.3938 23
447 1 6.65814 -13.6961 -0.768657 18
448 1 -10.4757 6.32549 7.18362 22
449 1 5.60257 4.21717 15.18 19
450 1 10.1794 7.90324 -1.72495 22
451 1 1.22567 10.5784 -0.749522 20
452 1 -5.29149 4.49504 -12.8312 20
453 1 1.63145 3.06484 -8.6483 23
454 1 3.35631 -9.47062 3.75466 20
455 1 -18.4684 -1.24729 -1.40459 6
456 1 5.29147 14.1505 7.58305 14
457 1 -2.81947 0.807721 -16.1923 15
458 1 8.63807 5.03408 -1.07992 22
459 1 5.52973 14.2975 -6.56645 12
460 1 7.77635 -6.08984 -1.5618 21
461 1 18.68 -0.102385 -1.63128 9
462 1 -1.18888 -1.20724 -11.7456 21
463 1 -0.0129901 -9.42351 3.80164 21
464 1 -0.778506 -12.6183 8.52196 14
465 1 3.6233 -9.25121 10.8499 10
466 1 -7.68088 0.907215 -8.48191 20
467 1 -11.3214 -14.92 3.16013 13
468 1 -3.019 -16.1301 -9.85303 11
469 1 10.8174 15.2797 7.28912 10
470 1 -0.635923 0.425 -14.12 20
471 1 3.8102 -0.913369 18.7922 10
472 1 -14.1086 3.82724 9.34029 19
473 1 -1.7554 -17.0938 -4.45455 13
474 1 -11.822 -0.842019 -1.50376 18
475 1 14.1104 -7.77664 -6.45481 13
476 1 17.4964 -2.33492 -0.791328 10
477 1 -7.46987 8.03547 -6.16057 22
478 1 4.40634 -6.24321 -6.15832 21
479 1 4.04439 4.28237 -13.8377 19
480 1 9.69296 -3.34914 -6.1905 15
481 1 -7.66896 3.0684 15.2773 17
482 1 3.22084 13.4114 3.00419 21
483 1 -3.02162 -4.78411 -19.6822 5
484 1 8.74592 1.49711 -16.0041 10
485 1 -4.54655 -4.22922 10.7177 19
486 1 -4.87925 18.2937 3.42877 11
487 1 -9.35011 -6.62042 -11.3503 15
488 1 -16.1346 2.44769 1.03461 9
489 1 0.790915 -11.0088 -14.7238 13
490 1 -5.25261 -13.721 7.75792 18
491 1 1.91866 8.71809 -8.74349 19
492 1 15.7788 4.83353 10.1364 12
493 1 10.0035 5.70683 -3.99952 20
494 1 -8.98692 -11.064 -3.53316 17
495 1 2.6999 -9.18164 -2.00325 22
496 1 1.94286 -6.03131 -18.734 6
497 1 -11.7026 13.0847 6.16675 9
498 1 4.90364 -2.03994 -9.19501 21
499 1 11.7224 -2.74781 1.18754 22
500 1 2.39852 13.903 -6.95526 21
501 1 5.10878 -6.71645 4.02928 22
502 1 9.76076 4.2798 -7.92044 17
503 1 5.57157 7.75183 12.3482 21
504 1 -10.5864 -0.157766 11.8202 16
505 1 11.3847 8.91258 9.92464 12
506 1 7.88313 -2.98956 16.9545 9
507 1 0.771313 -2.52067 -13.8961 19
508 1 -5.21567 -6.46599 -6.10566 22
509 1 1.82133 1.56292 9.95961 24
510 1 12.517 8.29647 12.4318 13
511 1 6.91284 6.35005 -8.69007 19
512 1 -9.20747 8.77719 -3.36342 18
513 1 3.48069 11.5727 -3.10663 20
514 1 9.68254 -3.92814 13.7685 11
515 1 12.5053 2.64681 -11.6062 16
516 1 11.2824 -10.4016 -3.01926 14
517 1 14.1538 10.8692 8.50109 8
518 1 -13.7728 -8.33874 -0.177263 11
519 1 -7.575 12.5813 -11.836 9
520 1 -1.1779 1.28508 10.3554 21
521 1 -13.6301 1.43344 12.8609 16
522 1 0.819022 9.71183 -12.6834 18
523 1 3.39275 -10.788 0.481929 20
524 1 10.2601 3.5633 -13.5806 13
525 1 -5.36822 14.2156 -5.98993 19
526 1 -7.04771 -6.36015 -13.4919 13
527 1 4.0301 -13.7357 0.82794 21
528 1 -15.4483 -6.20524 -1.48881 9
529 1 1.57034 12.0262 -15.0183 12
530 1 -0.194405 9.51559 13.1308 20
531 1 -11.9169 -6.10837 10.275 18
532 1 6.98585 8.08419 -0.991839 21
533 1 3.05502 -8.86294 -7.04668 24
534 1 4.92167 -4.67102 9.58106 20
535 1 9.54788 -0.608498 -3.21787 19
536 1 -10.0465 7.89475 4.1806 18
537 1 8.96022 4.56464 15.3108 21
538 1 2.95622 16.2607 -4.73996 15
539 1 13.4542 -6.70313 -3.13588 20
540 1 9.35997 13.1377 12.2108 14
541 1 0.276614 2.36869 -16.5004 16
542 1 -4.90478 -17.0906 6.24287 16
543 1 -0.109005 -0.352208 -8.44405 21
544 1 8.42029 -4.47331 -14.6949 15
545 1 3.13796 14.0876 9.68479 14
546 1 8.49448 2.29226 -10.289 18
547 1 -1.85931 -4.22475 -13.8679 18
548 1 -3.93114 -9.02868 -1.17144 21
549 1 -10.862 -3.45145 -10.9387 15
550 1 14.4157 -1.73353 -0.587445 21
551 1 15.0227 4.71931 -2.2507 14
552 1 8.38881 -2.12297 -8.61675 14
553 1 13.6682 4.3269 12.9216 18
554 1 5.48734 -10.1469 -5.10579 22
555 1 3.30715 1.61176 -18.1724 12
556 1 8.32125 11.1804 3.34356 21
557 1 -8.71191 3.40073 1.75426 20
558 1 11.9282 11.4398 12.9798 9
559 1 8.88917 8.5152 1.53062 19
560 1 15.6375 -6.22999 3.94982 11
561 1 12.289 5.8366 -12.0973 11
562 1 14.1572 -0.726922 10.6934 15
563 1 16.585 1.2163 9.67252 9
564 1 2.01345 -4.21148 9.72357 20
565 1 10.7682 10.7471 -1.86042 20
566 1 0.754864 0.415911 18.3224 11
567 1 14.0813 1.72708 -3.06957 18
568 1 7.12296 3.6782 9.41388 20
569 1 -5.38782 0.721383 -8.52719 20
570 1 11.7084 2.85566 0.409884 20
571 1 9.39574 -3.32447 4.94458 23
572 1 -11.4835 8.45147 9.33448 20
573 1 9.60274 10.4118 15.3839 9
574 1 14.0788 2.54347 8.7355 18
575 1 1.7552 8.73439 7.31106 23
576 1 2.44624 10.3131 10.0006 20
577 1 8.6402 3.13455 6.82307 23
578 1 -1.0988 -17.2755 1.30468 14
579 1 -1.77247 10.876 -6.02257 17
580 1 9.38889 10.4073 -5.8335 20
581 1 12.639 -2.34681 -10.2912 15
582 1 -2.51172 15.7423 -2.55585 16
583 1 -2.29534 -13.7986 -4.82717 20
584 1 12.1822 -6.00579 -9.86498 10
585 1 -16.1672 0.00722215 11.3392 15
586 1 -2.43334 4.95659 -11.553 25
587 1 -2.46966 -14.6899 2.97003 21
588 1 -5.80201 -1.21088 -11.0428 20
589 1 -8.67645 3.12035 -3.7928 21
590 1 12.0826 -7.45037 3.97817 15
591 1 11.8961 11.6698 1.26949 14
592 1 -1.59085 -8.25305 7.26305 22
593 1 -14.959 -1.86016 -6.84262 12
594 1 4.03838 -1.45856 -19.279 9
595 1 -0.92442 5.5748 16.5715 11
596 1 5.44114 10.6315 -10.9317 13
597 1 16.0966 -2.89436 8.40418 12
598 1 4.73502 4.72707 -6.08821 23
599 1 11.1432 9.84311 4.08138 17
600 1 0.390417 -15.7374 -6.29186 16
601 1 -10.1214 -0.853371 14.2486 13
602 1 14.5926 0.0665052 6.82226 17
603 1 -1.24845 12.1298 13.9893 8
604 1 7.00481 11.5751 -8.11479 15
605 1 -11.8615 10.1819 -7.8963 9
606 1 6.77024 11.4646 7.53928 18
607 1 -9.97713 -13.3165 -1.10121 12
608 1 12.2097 -4.24149 3.94542 19
609 1 11.8679 14.6314 2.13232 10
610 1 -5.15257 4.78001 9.51356 15
611 1 -10.0379 -5.77376 1.40199 18
612 1 -13.4439 -3.24109 -9.58908 10
613 1 8.4021 1.18683 12.5885 18
614 1 -3.78551 -10.7537 8.79682 21
615 1 11.2777 0.844079 11.703 20
616 1 -7.05664 13.7308 -0.40055 21
617 1 10.7351 5.74309 1.56512 20
618 1 8.63563 5.31427 4.06897 18
619 1 6.37612 0.106436 -18.0776 12
620 1 -6.49329 0.0433781 7.17138 22
621 1 10.7677 -3.76945 -11.974 11
622 1 12.0899 -11.2493 -6.13119 13
623 1 3.5459 7.51923 10.2506 21
624 1 1.29268 8.83146 2.25736 23
625 1 -10.7231 2.48047 14.8712 9
626 1 11.2431 4.40013 4.97844 16
627 1 -1.83533 0.0809079 12.9752 23
628 1 0.550586 5.97584 12.4587 20
629 1 0.867375 -8.51237 -12.399 19
630 1 -7.0607 4.54736 12.3681 16
631 1 4.44556 1.26992 10.65 17
632 1 -8.14018 -16.9071 2.9925 13
633 1 13.5854 8.04995 -1.68502 14
634 1 4.63328 -13.2252 -4.56297 21
635 1 5.09685 10.5311 -0.842392 22
636 1 12.1981 12.8787 5.04167 11
637 1 9.00558 -1.46425 -17.2427 10
638 1 2.34682 14.3299 -2.78905 21
639 1 6.14478 12.1456 1.48444 22
640 1 -6.27689 -9.86301 -6.3753 19
641 1 1.526 -5.32567 -14.4039 19
642 1 -10.7442 14.2485 -0.406474 16
643 1 8.21516 -8.51198 -3.90398 17
644 1 10.5677 9.01117 -11.9059 8
645 1 8.78523 13.6991 -2.59938 16
646 1 -8.5117 5.16782 4.41772 21
647 1 6.52202 5.8897 -2.92111 24
648 1 13.8436 0.560028 13.5269 15
649 1 11.9163 -1.60276 14.4969 12
650 1 -1.32896 -16.2262 7.65936 11
651 1 -4.39591 13.6375 -12.4996 11
652 1 3.18056 11.6152 7.5214 22
653 1 8.91157 -6.05733 -12.0762 14
654 1 3.6409 1.83395 14.967 18
655 1 4.16785 16.8626 -1.71204 14
656 1 9.19011 8.48116 5.41595 21
657 1 16.3524 -7.00266 -3.5786 10
658 1 9.43455 3.63102 10.3888 21
659 1 -12.7952 -0.586906 9.69702 19
660 1 4.07513 -15.0902 -2.14079 23
661 1 1.56651 -2.93063 -9.07461 21
662 1 -7.18605 16.7312 -0.371028 14
663 1 6.32597 13.9346 4.31187 19
664 1 -14.6913 -2.45122 3.51655 16
665 1 -3.17941 3.92039 15.8915 14
666 1 -0.388318 9.70603 -15.803 12
667 1 -3.56638 5.06638 -14.9143 14
668 1 7.7707 -13.5838 1.9263 16
669 1 6.74932 7.81552 -5.78567 23
670 1 -13.9965 6.43997 10.9542 16
671 1 3.73738 -1.10817 -13.0576 17
672 1 2.91171 -12.3037 8.81083 11
673 1 -1.8783 14.6512 2.12949 21
674 1 -5.6932 2.48371 17.0348 11
675 1 -7.30933 -4.3782 -11.2191 18
676 1 -2.85858 -12.9339 -11.0117 17
677 1 -5.80788 -14.3036 -10.2346 11
678 1 0.17748 15.4832 -7.04991 17
679 1 6.06165 -3.72663 -6.26941 21
680 1 -4.61201 8.94418 7.71757 21
681 1 6.63009 -7.53906 -7.08074 21
682 1 7.92818 -16.7159 0.750538 9
683 1 3.59768 -5.34013 6.50358 22
684 1 15.2169 2.30051 -8.19698 12
685 1 0.907132 -11.4636 -7.68262 22
686 1 -14.1118 0.853242 6.50473 17
687 1 -2.84674 -18.7269 -1.30745 9
688 1 -8.01992 -9.14471 -8.15507 17
689 1 -8.18196 1.47471 12.4683 18
690 1 -5.67071 -15.2176 3.12737 21
691 1 15.3885 4.17614 -5.65129 15
692 1 -2.22476 17.9216 6.07404 9
693 1 -5.05465 3.04578 7.47739 20
694 1 -11.711 9.55813 2.57092 15
695 1 9.53657 -0.124777 1.14369 23
696 1 -12.1256 -0.560984 -11.4852 12
697 1 -0.374095 7.88407 -6.50372 21
698 1 11.5637 2.03497 -8.71126 18
699 1 6.76415 10.9608 13.002 18
700 1 11.9151 8.62447 0.984546 18
701 1 -12.5337 4.40787 -6.82096 11
702 1 -12.0364 -7.96815 -7.12717 14
703 1 1.01239 3.37187 17.7847 12
704 1 7.40212 3.94505 -13.5482 15
705 1 9.51898 11.8926 6.6647 19
706 1 0.157006 -1.74447 10.0031 22
707 1 -5.83333 -13.8657 -4.8852 12
708 1 -5.72809 -18.5927 3.22176 9
709 1 -2.77249 -5.55001 7.26183 19
710 1 9.30672 5.70619 7.15497 20
711 1 6.05442 -6.32454 -11.7268 20
712 1 -7.14789 7.84049 -1.17346 20
713 1 5.69512 8.88447 2.19977 23
714 1 -7.03127 -3.30399 4.9277 21
715 1 7.21641 7.62215 -12.0625 13
716 1 -2.38917 -17.7164 -7.74302 10
717 1 -0.14474 -18.2211 -1.78695 14
718 1 1.79411 -12.709 -1.91911 21
719 1 5.36169 3.29412 -8.57948 25
720 1 2.28838 17.6484 1.24069 10
721 1 -3.88461 -3.73867 -16.6736 14
722 1 1.27969 1.14964 13.1474 20
723 1 -0.734005 4.01382 -13.8239 20
724 1 -8.8663 -0.948361 -11.0893 19
725 1 -10.4326 -3.82719 -1.14805 19
726 1 0.189953 15.4796 -4.22531 19
727 1 -0.966715 -5.28378 -16.9408 16
728 1 -8.89042 -8.31403 -3.47084 18
729 1 9.77643 5.48883 -10.5925 20
730 1 11.6822 -4.98531 -0.614407 17
731 1 -6.37445 9.32844 9.87412 18
732 1 5.23382 -8.33766 1.53052 20
733 1 15.1285 -4.77219 -0.75626 15
734 1 12.0094 -2.27326 11.5374 15
735 1 -1.69195 8.74707 7.49861 21
736 1 -13.2684 4.5906 13.105 10
737 1 -11.6804 5.39393 10.2896 19
738 1 -3.59734 -14.6423 5.71316 20
739 1 10.0519 1.98322 3.48026 22
740 1 9.10517 8.98234 12.1678 23
741 1 -15.3369 -0.247413 -1.15547 15
742 1 9.24562 -5.44967 -4.50357 19
743 1 -12.8481 11.5183 -4.8551 10
744 1 1.19419 14.8328 0.619338 19
745 1 5.34752 -17.3802 4.30395 10
746 1 4.14045 -3.39563 15.7131 12
747 1 -3.04452 11.8128 7.85112 20
748 1 0.705331 -11.2723 6.31275 22
749 1 -8.6809 -0.763048 -0.423945 21
750 1 4.17375 4.07708 9.06241 22
751 1 -15.4223 -4.24977 -4.67807 10
752 1 1.78173 10.7835 15.1051 11
753 1 4.67303 8.73885 -3.42755 24
754 1 -13.4547 -6.71628 3.12639 13
755 1 -3.56849 -13.6964 0.509285 19
756 1 6.51976 -1.16848 9.96872 22
757 1 13.5332 -3.73775 9.72519 10
758 1 8.345 8.57541 8.42586 22
759 1 -0.289741 -8.61507 -7.36989 20
760 1 -3.14741 -0.0738907 -9.76261 23
761 1 -5.15581 2.19655 13.1653 19
762 1 -1.78927 17.2918 3.40701 13
763 1 16.705 0.294563 1.38799 17
764 1 3.39841 8.03614 -5.95993 23
765 1 -6.07722 8.92627 15.7655 13
766 1 4.83894 9.36299 7.32081 22
767 1 10.9444 0.0776253 -10.9723 17
768 1 -5.69681 -11.7598 -1.97817 18
769 1 16.3533 -2.91383 5.27715 12
770 1 1.68125 -7.86236 -9.6746 24
771 1 1.10564 7.17471 15.5275 15
772 1 7.4853 -13.9708 -10.1538 12
773 1 -1.26017 7.19237 -14.0864 20
774 1 -2.32855 -8.38683 -3.52651 20
775 1 12.6828 3.13296 -6.42705 21
776 1 13.0375 -5.96582 1.88159 20
777 1 6.24416 -7.122 9.74245 16
778 1 -4.00489 -12.2468 -7.36741 22
779 1 5.51593 13.6526 -1.57107 21
780 1 -16.2436 1.52941 8.38029 13
781 1 10.8804 6.99219 -6.44612 20
782 1 15.2653 3.4186 1.23178 16
783 1 5.32714 -4.07222 -13.8376 17
784 1 -9.79687 14.8866 4.61708 12
785 1 15.6796 5.54745 3.93636 10
786 1 11.4516 12.2138 -4.48312 12
787 1 2.01695 -0.443591 -11.0559 21
788 1 9.53101 -3.21916 -0.681671 22
789 1 -10.2755 2.43651 -1.11287 20
790 1 11.5429 7.23575 3.82762 16
791 1 -12.2621 -13.1013 0.312582 11
792 1 -8.54661 10.5134 -9.001 16
793 1 5.16894 3.45433 6.40958 19
794 1 -11.6953 -0.786729 -6.83133 21
795 1 -12.2632 3.31282 7.15679 20
796 1 -1.91711 2.52079 -8.58367 22
797 1 12.1759 -5.02947 -5.7522 16
798 1 -10.9871 -9.34178 -9.65298 12
799 1 14.0759 -8.87311 -1.13774 13
800 1 -16.622 1.24872 4.73003 11
801 1 -11.7996 -3.23162 2.0809 19
802 1 14.8749 5.95237 7.60601 12
803 1 -5.61547 -11.5217 6.07936 21
804 1 8.93007 -0.81183 15.355 17
805 1 17.1913 -5.60839 6.47565 8
806 1 6.407 -3.32359 4.57956 24
807 1 -11.9537 5.12885 4.3752 15
808 1 2.48745 8.70778 12.7039 21
809 1 4.69153 6.85708 -12.3793 16
810 1 -0.822111 -8.45663 -14.9542 12
811 1 -6.69563 13.5544 4.59105 18
812 1 -12.7784 -8.28523 5.74628 13
813 1 8.59332 8.2469 -3.95717 24
814 1 3.5839 5.96208 14.1023 19
815 1 16.5442 -2.69179 -6.78435 10
816 1 7.17384 -5.29627 6.61075 20
817 1 1.38263 14.4994 -13.5748 11
818 1 3.84248 11.8643 -8.67282 21
819 1 -6.32516 -1.56721 10.2748 21
820 1 17.5159 2.35804 3.11388 12
821 1 -3.23963 -3.75642 -11.2622 24
822 1 9.57866 14.1678 4.4669 18
823 1 -14.0762 5.43859 1.5856 11
824 1 -3.06797 -13.8662 9.75448 10
825 1 3.72209 17.159 -11.6255 5
826 1 7.42722 -3.61683 11.0723 16
827 1 0.335537 -10.8589 0.485291 19
828 1 -5.14439 14.8196 2.07841 21
829 1 -12.2444 5.43175 -0.991548 18
830 1 12.2157 0.105109 -4.8954 16
831 1 2.33142 -13.8002 -10.0886 18
832 1 -6.67229 7.80215 4.4809 21
833 1 12.005 7.74807 -9.50947 14
834 1 -4.82704 -2.87324 7.5112 21
835 1 8.2143 -5.73757 -17.7066 10
836 1 -5.15521 -11.3967 -12.4522 12
837 1 -0.450289 -8.68086 -1.55922 19
838 1 -2.47372 8.41651 15.5483 11
839 1 7.15741 -14.6396 -3.44382 15
840 1 -1.96815 10.3747 -13.018 17
841 1 17.0521 2.22486 -3.51338 13
842 1 6.75506 6.12755 1.62976 20
843 1 2.39776 -16.9903 -3.63635 13
844 1 6.8631 -3.29474 -20.1208 7
845 1 11.668 -0.754944 3.5913 19
846 1 -3.25039 1.59494 -12.7376 17
847 1 -1.79392 -9.25424 10.4806 16
848 1 6.11415 10.7299 -5.43906 21
849 1 6.60941 2.13224 -5.97727 21
850 1 -10.4098 8.03458 -6.16176 17
851 1 -16.429 5.88515 9.13928 11
852 1 3.64678 5.07488 17.8501 11
853 1 -7.0343 -10.0671 9.30611 16
854 1 5.21189 10.9919 4.54705 20
855 1 0.17522 -15.6344 2.92081 15
856 1 1.30771 8.66597 -3.55491 21
857 1 -3.03881 5.93374 13.1265 15
858 1 -9.29647 -0.388869 9.23997 21
859 1 -9.62582 11.8948 7.93662 14
860 1 9.20988 1.74616 -0.7199 21
861 1 -5.06875 -9.36033 11.353 12
862 1 5.81184 -11.5498 6.52924 13
863 1 10.0427 6.37273 10.3521 19
864 1 12.3572 -2.75146 -2.75655 20
865 1 5.54483 -15.2639 -8.41169 13
866 1 -7.00767 -1.3979 -13.5206 19
867 1 -0.00219672 0.12057 -18.2582 11
868 1 5.98597 14.0045 11.2062 11
869 1 -11.5002 -3.40194 12.3947 15
870 1 -5.25771 5.41197 -6.70445 23
871 1 -12.1052 3.45173 -3.56745 16
872 1 8.78045 13.9882 1.11079 20
873 1 -9.51562 -15.4931 0.709799 11
874 1 -0.324124 8.02646 5.01003 25