ITEM: TIMESTEP
296000
ITEM: NUMBER OF ATOMS
5760
ITEM: BOX BOUNDS pp pp pp
-0.6817563315 33.4817563315
-2.0066964984 36.1466964984
3.9296559091 59.6703440911
ITEM: ATOMS id type x y z Coordination
1 1 13.1547 12.5556 19.5843 20
2 1 7.55149 25.6265 54.4032 21
3 1 4.97114 30.9589 6.03594 22
4 1 3.99807 28.3907 23.3556 23
5 1 27.5035 19.0659 14.2878 21
6 1 17.8682 7.99784 46.0069 21
7 1 5.22232 4.95274 58.6736 18
8 1 1.80054 16.2238 52.3863 18
9 1 1.40817 4.4568 55.8463 19
10 1 27.3639 1.39402 14.2797 19
11 1 4.14508 24.3886 10.2716 20
12 1 19.431 6.85675 31.8998 20
13 1 2.71138 16.5174 25.0487 24
14 1 9.9857 35.3462 31.6162 20
15 1 4.48355 10.4999 16.9806 22
16 1 23.5826 11.8108 38.0696 20
17 1 3.37796 5.82479 16.3455 23
18 1 27.8789 26.0479 28.2748 22
19 1 1.69273 14.8288 22.8774 23
20 1 16.5643 32.8237 4.52932 21
21 1 16.9855 0.268366 18.3397 21
22 1 16.7427 15.9224 27.8004 23
23 1 27.9222 6.61599 51.501 19
24 1 7.37928 25.3618 20.3642 21
25 1 29.1021 21.2522 56.6147 23
26 1 30.6026 35.2452 55.8891 18
27 1 24.4011 24.9974 23.8316 25
28 1 30.5388 10.0683 54.2567 20
29 1 6.56261 1.30873 53.6962 19
30 1 15.4755 34.1796 7.33531 19
31 1 6.52843 15.1849 35.0644 18
32 1 11.9149 10.3794 49.4613 18
33 1 4.50653 9.53926 13.5833 23
34 1 11.6441 20.8016 11.8304 21
35 1 9.35706 5.93154 46.3406 17
36 1 29.667 19.1415 58.9072 21
37 1 4.09982 30.2624 38.5641 21
38 1 9.20286 -1.50177 57.7342 20
39 1 2.72609 3.53055 19.0846 22
40 1 6.85767 35.7595 22.2949 22
41 1 3.37292 33.5763 4.45766 23
42 1 19.9075 7.96196 37.5088 18
43 1 25.8352 -0.45115 50.243 21
44 1 14.0382 5.41669 22.2784 22
45 1 29.3141 16.2073 58.4416 21
46 1 26.8321 19.5091 37.2085 21
47 1 22.6201 11.3505 54.7331 18
48 1 16.9435 14.2886 34.2057 20
49 1 -0.267301 14.4941 43.7995 19
50 1 19.6209 12.7614 48.6823 22
51 1 10.6048 4.46403 40.445 20
52 1 31.6654 21.843 5.028 22
53 1 0.537355 9.37398 20.1341 21
54 1 3.10653 20.9269 40.7013 20
55 1 21.4023 17.8985 27.1982 22
56 1 23.1539 20.3635 20.2713 21
57 1 11.3356 32.539 48.9642 20
58 1 20.1892 17.9872 49.2773 18
59 1 6.24694 0.904865 15.519 19
60 1 20.0484 26.4177 33.6008 21
61 1 1.50385 24.3628 19.4317 21
62 1 21.2276 12.4983 51.2174 20
63 1 30.0863 34.4618 21.3275 22
64 1 25.4418 23.517 44.9022 22
65 1 14.3344 10.9248 11.3713 22
66 1 16.1702 32.1965 21.2795 21
67 1 32.9558 34.4072 4.75942 19
68 1 18.0421 35.5748 8.98386 23
69 1 22.2965 5.79717 26.3241 22
70 1 12.0801 11.5989 7.0683 20
71 1 13.8255 9.54365 9.03557 20
72 1 30.4061 11.1953 31.5739 22
73 1 1.19201 34.6981 53.5244 21
74 1 7.52032 21.903 31.6659 24
75 1 16.3435 29.5103 45.5881 18
76 1 14.6901 14.1347 39.8685 17
77 1 7.19491 8.79568 19.6984 23
78 1 1.78687 13.2366 5.86885 17
79 1 7.31935 31.5357 4.53074 21
80 1 29.6429 31.4246 7.96862 21
81 1 24.9349 35.7253 19.4753 21
82 1 2.20293 29.2299 32.9394 20
83 1 31.3522 34.167 37.0097 23
84 1 12.9277 14.2907 22.2423 20
85 1 10.739 16.6009 53.1128 20
86 1 27.5496 2.4177 27.7176 21
87 1 28.4142 24.0418 8.9674 23
88 1 14.6073 23.8018 3.86414 20
89 1 5.44834 21.2531 18.5704 20
90 1 24.6404 5.34198 56.0986 20
91 1 -0.600562 8.9413 48.9721 23
92 1 26.3713 18.019 53.3858 22
93 1 28.2101 20.1433 34.3723 23
94 1 29.0563 20.3607 11.7322 21
95 1 29.6285 18.9493 54.3623 25
96 1 29.929 25.5455 43.0796 21
97 1 2.60111 16.6973 55.6441 23
98 1 23.7367 9.12178 7.39615 20
99 1 17.2786 10.5298 46.7736 22
100 1 19.6131 -0.566101 10.0696 22
101 1 15.2638 14.7154 25.26 24
102 1 7.97571 28.5366 3.99102 19
103 1 7.68057 31.5795 54.9584 20
104 1 17.7082 19.0964 51.5406 20
105 1 27.5262 28.1858 48.0279 18
106 1 25.6822 3.81228 58.4501 19
107 1 9.21192 17.7982 4.1324 21
108 1 0.516996 25.877 23.1482 22
109 1 23.1305 35.3124 48.9264 23
110 1 4.93665 1.22084 24.4804 22
111 1 21.547 18.1906 20.2993 20
112 1 32.3116 26.3297 12.1526 22
113 1 12.621 10.1706 21.7072 18
114 1 6.1988 -1.14136 52.2931 20
115 1 -0.673361 33.7048 14.906 22
116 1 20.4767 1.5096 13.585 20
117 1 20.0459 34.7704 41.6073 21
118 1 20.3464 13.8123 23.8536 21
119 1 26.8969 0.784312 20.2931 20
120 1 20.4759 24.3864 16.4804 20
121 1 2.05813 19.4407 57.6812 19
122 1 10.2552 -0.903339 41.1411 21
123 1 16.7803 14.1658 37.8753 21
124 1 0.657799 25.5337 5.81484 24
125 1 30.1649 10.0033 9.80792 23
126 1 14.5497 20.3375 50.7011 19
127 1 22.0887 13.2929 8.59694 21
128 1 11.0266 2.3461 28.9898 20
129 1 29.6676 25.7991 6.13341 22
130 1 28.0361 1.9256 51.8687 20
131 1 24.201 3.63093 34.0705 20
132 1 18.7823 16.3079 50.8606 19
133 1 18.1081 25.6003 21.5576 17
134 1 10.4658 9.30175 7.63473 24
135 1 23.5113 28.8664 40.5305 22
136 1 29.8137 0.18447 15.2458 21
137 1 27.3446 6.37821 6.93134 24
138 1 12.9804 15.2984 52.1637 20
139 1 6.54533 -1.7351 55.5891 17
140 1 26.1642 29.9487 50.8172 22
141 1 0.12728 20.4632 30.1542 20
142 1 0.994476 3.32482 33.7173 18
143 1 25.6422 17.3728 26.9053 19
144 1 33.0303 4.30328 10.9418 18
145 1 33.3757 18.2561 42.9565 20
146 1 6.40177 21.5518 12.4157 20
147 1 2.62827 19.3315 11.5767 20
148 1 27.0338 1.5369 6.91281 21
149 1 -0.970743 0.378322 34.4671 19
150 1 16.1726 5.05995 6.54496 22
151 1 -0.137566 0.775104 49.6442 22
152 1 31.5922 4.64642 4.4633 20
153 1 27.0448 6.48399 36.5057 23
154 1 1.44891 12.5705 34.6955 22
155 1 13.9404 26.6692 14.3267 21
156 1 24.8442 0.212911 13.5219 21
157 1 16.8352 23.9312 10.7505 21
158 1 13.8281 8.22969 13.7021 22
159 1 10.9146 1.1508 9.52698 23
160 1 7.44891 22.9468 41.8654 21
161 1 0.0802332 15.4822 40.7432 18
162 1 11.418 -1.24339 17.3396 20
163 1 10.7803 34.7149 51.5074 21
164 1 0.870399 28.2359 21.7912 25
165 1 27.4284 4.53161 45.3714 22
166 1 0.478145 -0.331685 13.6167 19
167 1 31.5382 6.63109 52.097 19
168 1 32.7836 12.5195 36.1239 26
169 1 16.001 31.381 26.7474 20
170 1 29.5113 0.0445598 46.2966 22
171 1 21.61 26.0141 5.90889 20
172 1 -0.546745 28.7813 39.6538 22
173 1 28.3588 9.98104 18.2766 21
174 1 26.0661 31.6973 25.2276 20
175 1 15.1001 18.0614 5.72532 21
176 1 20.1652 6.84948 53.9012 21
177 1 14.2698 28.1435 12.0762 21
178 1 12.8388 26.5721 19.2444 20
179 1 6.10058 33.3119 23.2708 22
180 1 24.5275 7.05353 19.6787 24
181 2 29.6301 17.7691 18.5292 18
182 2 10.7977 3.39781 22.0852 20
183 2 9.10278 2.83157 40.0621 23
184 2 28.5959 12.242 56.4172 21
185 2 7.05628 31.7735 18.5813 17
186 2 19.929 30.848 20.6891 23
187 2 31.8553 35.0963 6.0502 19
188 2 22.2359 9.72083 53.5385 21
189 2 5.18923 31.7585 39.1033 20
190 2 13.585 -0.227639 46.1962 20
191 2 26.162 15.7705 43.2407 20
192 2 31.7896 14.291 14.3326 22
193 2 17.976 25.6794 53.3336 20
194 2 25.6502 26.3721 8.94753 21
195 2 18.8199 30.3104 42.5605 20
196 2 29.2609 20.7838 54.7404 22
197 2 18.8269 23.6822 10.6229 21
198 2 31.6532 0.140273 25.7885 19
199 2 18.5325 -1.81357 10.7911 18
200 2 26.561 23.5895 43.2494 20
201 2 4.90412 21.9759 51.0519 20
202 2 18.3748 12.0892 40.9283 19
203 2 22.6723 2.71369 10.6328 24
204 2 30.7327 16.4948 15.2501 19
205 2 24.0058 22.5869 48.1254 21
206 2 21.2571 10.7218 19.3368 19
207 2 28.1968 24.3227 6.06114 22
208 2 -0.17514 12.5938 51.2777 20
209 2 19.8111 -1.03825 59.3764 23
210 2 19.9976 29.2129 58.1329 19
211 2 5.9463 26.372 40.1626 21
212 2 15.9748 -0.506455 48.9572 20
213 2 11.7256 18.9782 37.6702 21
214 2 12.2566 7.84686 18.3943 19
215 2 2.6488 21.0452 24.6398 23
216 2 23.5651 5.37204 19.2121 19
217 2 9.29923 5.73577 4.69852 21
218 2 26.691 25.1681 52.9394 20
219 2 29.3336 5.03895 4.34489 17
220 2 0.576558 28.535 52.3962 19
221 2 26.7593 4.89443 30.278 21
222 2 31.1486 1.59917 54.8199 20
223 2 10.8976 11.7542 12.2435 19
224 2 25.8228 20.0549 4.50389 21
225 2 16.8795 9.10517 19.3899 21
226 2 25.2963 34.9401 40.0706 25
227 2 7.16593 4.76106 31.6523 23
228 2 19.803 7.18799 15.5321 19
229 2 25.2916 34.7024 37.1377 23
230 2 16.5044 -0.146625 13.8332 18
231 2 27.8566 0.75485 28.3524 21
232 2 30.1466 4.09185 57.6243 19
233 2 8.79607 4.74456 50.6017 18
234 2 1.24499 19.9126 28.633 18
235 2 24.9393 31.6135 52.0441 22
236 2 8.0173 5.29746 39.4836 18
237 2 11.5597 35.7096 41.8552 16
238 2 20.8423 19.3419 47.55 20
239 2 17.8632 17.0676 17.8796 22
240 2 6.04752 2.65038 51.8832 22
241 2 19.779 12.7837 11.9013 17
242 2 26.8864 -2.03239 23.8997 21
243 2 21.4504 -2.0162 50.1676 22
244 2 21.9272 1.80889 58.1276 21
245 2 2.13749 30.5987 53.8412 21
246 2 6.33923 22.9688 32.8592 21
247 2 28.1818 7.53725 21.3647 22
248 2 15.008 1.00265 55.7624 21
249 2 12.5735 -1.68666 48.3318 22
250 2 7.39569 1.32785 46.8052 21
251 2 1.8572 2.33257 17.7494 18
252 2 26.3659 34.2675 9.19091 20
253 2 26.4411 29.3588 34.6557 21
254 2 26.1259 9.14545 18.5088 22
255 2 10.038 12.6021 27.3477 19
256 2 23.972 3.20524 32.2874 17
257 2 20.9959 33.0836 29.9199 21
258 2 4.57942 6.97806 6.16847 22
259 2 32.3137 0.37456 17.0604 21
260 2 6.1558 24.6399 57.9663 21
261 2 4.70641 28.9512 37.4947 19
262 2 3.49915 15.6295 7.97661 24
263 2 12.5187 27.3444 11.18 19
264 2 28.5614 35.7719 39.9507 22
265 2 6.02513 32.4936 33.0155 19
266 2 3.46627 29.3573 46.4782 18
267 2 20.7599 8.12257 20.3665 21
268 2 11.0231 5.80588 46.7554 16
269 2 6.21899 -1.74287 42.5334 23
270 2 22.2013 29.9663 39.8096 22
271 2 1.54706 0.293174 43.7207 22
272 2 0.875071 22.0052 52.7977 20
273 2 26.7552 21.4785 49.7153 23
274 2 21.2256 10.7164 16.5076 19
275 2 32.732 6.63527 10.4058 16
276 2 21.3507 26.2718 16.0899 15
277 2 11.422 22.2451 13.8001 19
278 2 1.7285 2.73192 9.81597 21
279 2 10.5217 -0.570059 35.1418 21
280 2 0.965849 28.0403 15.0771 22
281 2 30.6796 16.2226 47.0371 16
282 2 32.6631 18.0717 44.815 21
283 2 32.0243 29.6382 43.7636 22
284 2 26.6547 7.67777 37.7312 20
285 2 30.9364 10.1235 58.26 21
286 2 3.25477 16.9467 35.4619 21
287 2 23.8437 5.36252 42.518 23
288 2 28.0009 20.1155 19.1372 21
289 2 7.30067 22.3794 17.2217 20
290 2 27.2226 9.98425 22.5298 20
291 2 1.56059 9.81279 58.6257 19
292 2 31.949 30.8564 33.6376 19
293 2 14.372 19.6785 27.7987 19
294 2 15.9912 -2.0559 18.5492 20
295 2 5.61456 20.042 34.326 21
296 2 30.9302 22.0683 12.2961 17
297 2 8.18863 11.9964 30.611 20
298 2 16.1696 6.45069 26.4093 19
299 2 11.4006 3.08375 36.0602 20
300 2 0.998298 27.2503 4.72819 23
301 2 6.78564 16.3434 23.145 21
302 2 17.5756 3.11507 39.7646 20
303 2 17.2362 19.0171 39.1591 19
304 2 28.108 21.614 27.162 24
305 2 12.3933 31.3908 51.5293 17
306 2 19.3232 1.36512 32.4204 18
307 2 13.7397 27.9895 33.1402 22
308 2 16.5037 28.7584 51.1693 19
309 2 25.5708 13.9186 16.322 23
310 2 14.8498 5.95455 50.4791 19
311 2 15.461 5.70323 37.4061 19
312 2 15.3299 29.0598 16.6863 22
313 2 12.72 -1.86016 37.189 20
314 2 15.2794 36.3868 7.49895 18
315 2 29.2796 21.8742 38.5685 20
316 2 0.673184 35.8737 4.86644 19
317 2 4.64391 9.93274 40.1659 21
318 2 5.98851 27.2787 32.7731 21
319 2 32.9934 11.1185 9.82624 23
320 2 1.9536 13.84 36.2231 23
321 2 2.37716 27.7527 7.25884 20
322 2 16.4485 1.46174 31.5642 19
323 2 19.6281 4.92796 54.3898 22
324 2 11.2024 13.2991 23.1847 20
325 2 23.6666 20.4549 11.167 18
326 2 19.1931 36.0382 6.07292 20
327 2 -0.3218 5.56532 38.6769 20
328 2 15.9099 25.8675 11.6851 20
329 2 20.0932 19.6437 45.1873 23
330 2 16.8613 3.7627 53.9365 23
331 2 4.56657 19.3256 49.672 21
332 2 17.4047 14.2747 10.8753 24
333 2 27.1233 4.04966 38.5991 18
334 2 2.2501 -0.380637 55.7697 22
335 2 20.6553 21.6812 35.4624 20
336 2 6.43178 7.45265 21.5392 22
337 2 4.8762 11.1625 33.6438 22
338 2 11.3917 9.86045 5.83401 18
339 2 23.0486 16.4909 15.7202 22
340 2 32.2723 3.9431 49.1509 17
341 2 24.0028 36.1393 56.9721 21
342 2 21.5576 23.0883 20.8665 22
343 2 0.564605 14.2057 9.09618 21
344 2 20.8687 5.73182 40.8813 21
345 2 8.03642 34.9597 40.8991 22
346 2 21.9119 16.5071 48.904 21
347 2 2.14429 27.3283 41.3261 19
348 2 30.5837 7.80664 26.3353 15
349 2 11.8363 32.5387 59.0463 21
350 2 16.9903 32.7232 19.5342 25
351 2 9.7313 28.5268 10.2838 22
352 2 29.1772 31.1679 15.2049 20
353 2 18.5182 9.42128 14.8587 18
354 2 0.411309 26.3732 54.2706 18
355 2 6.86784 10.6889 57.6533 21
356 2 16.7468 5.79487 39.9175 23
357 2 19.2768 3.80536 11.9723 20
358 2 23.0511 31.1034 19.1553 21
359 2 5.72388 19.3678 19.6208 21
360 2 9.32444 33.8609 30.65 23
361 1 7.13791 28.4304 33.7678 20
362 1 8.28535 27.8821 9.07244 20
363 1 4.75891 26.3721 53.0676 20
364 1 0.313845 10.9896 7.23873 23
365 1 4.71092 30.1854 32.4369 22
366 1 29.7351 5.99217 28.4932 19
367 1 15.1542 12.403 22.5153 21
368 1 30.3076 18.1995 40.5902 20
369 1 32.9768 19.9421 46.3219 21
370 1 2.31451 19.5686 23.0783 22
371 1 21.2596 29.9535 48.7216 21
372 1 25.0039 11.0819 42.4837 22
373 1 27.0545 24.4548 25.0004 21
374 1 26.3575 0.464625 59.3955 21
375 1 7.23738 27.4005 12.3313 18
376 1 12.4979 33.9407 32.4394 23
377 1 14.6769 16.5155 32.7681 21
378 1 18.557 8.26105 23.9316 20
379 1 22.5015 32.4549 25.7923 21
380 1 17.6416 10.9878 9.44266 23
381 1 32.7515 1.0165 15.2718 25
382 1 17.9701 1.68412 30.4561 20
383 1 1.13536 23.5582 35.1325 18
384 1 12.0027 30.2678 11.124 22
385 1 19.6919 25.5087 52.0915 18
386 1 27.0586 8.24876 19.9952 20
387 1 23.1036 14.4728 22.7315 21
388 1 19.8896 14.5835 15.3796 18
389 1 9.70623 23.8444 37.5178 21
390 1 8.93785 28.8568 39.5132 21
391 1 31.7607 11.8054 44.2684 23
392 1 17.9538 7.51878 58.0265 22
393 1 5.30159 14.4372 30.1651 23
394 1 16.1359 16.2539 18.5925 22
395 1 19.1308 20.4388 32.593 24
396 1 24.8743 6.35865 38.6037 20
397 1 8.30045 4.28807 43.1278 19
398 1 18.416 7.5576 29.1294 19
399 1 1.83901 12.8269 20.5323 21
400 1 27.1945 35.2706 33.3064 18
401 1 23.2433 4.56106 20.9998 20
402 1 0.244295 6.05247 13.5815 20
403 1 32.004 5.46749 33.5173 22
404 1 16.6545 26.696 45.0314 19
405 1 26.3806 35.9963 55.9185 22
406 1 26.0629 22.4962 32.8165 23
407 1 7.46035 28.9406 36.947 19
408 1 23.8603 35.6134 54.8634 23
409 1 8.62974 28.2208 15.5066 23
410 1 17.4838 34.1886 25.9421 18
411 1 18.3157 32.1088 38.0375 21
412 1 22.8621 17.8741 16.8476 21
413 1 3.46447 20.2761 26.1806 21
414 1 25.291 18.4708 19.4023 20
415 1 23.0181 18.8257 14.0061 21
416 1 28.5342 29.5702 15.8563 19
417 1 12.6666 30.3239 53.3623 22
418 1 3.76686 14.0825 18.0388 19
419 1 15.4855 31.2275 6.4511 22
420 1 18.188 18.3341 27.3127 21
421 1 25.1922 20.7473 29.6823 21
422 1 27.4723 5.47129 20.5298 20
423 1 0.48375 -1.51896 56.5292 18
424 1 1.01241 20.8692 14.6311 20
425 1 16.8621 18.767 35.0187 21
426 1 5.89645 4.1669 33.3487 20
427 1 30.8041 -0.902432 17.7035 24
428 1 18.9212 23.6197 6.15361 21
429 1 31.8559 -0.927653 54.6606 20
430 1 9.47954 26.41 13.8261 20
431 1 32.0778 12.2694 55.107 21
432 1 17.3971 1.06045 33.4272 20
433 1 13.0822 23.4637 48.3682 17
434 1 3.47674 17.8283 50.3208 21
435 1 30.842 13.2415 26.1921 20
436 1 -0.403091 27.3137 27.5286 20
437 1 25.6894 33.5565 38.838 21
438 1 30.4319 -1.71747 6.26832 20
439 1 22.2583 14.9306 50.2534 21
440 1 32.1373 11.0783 23.3917 20
441 1 27.619 17.1077 8.19324 22
442 1 25.9436 3.61924 35.91 19
443 1 31.4466 28.8932 21.4481 22
444 1 4.28317 26.8223 20.7306 25
445 1 24.4334 -1.65277 15.9841 19
446 1 10.1199 8.3019 19.0041 23
447 1 1.88471 6.02303 19.5062 22
448 1 30.5041 26.6235 22.3653 21
449 1 31.0952 33.0186 13.364 22
450 1 12.4932 0.448549 44.8926 22
451 1 32.8389 27.6542 32.5319 18
452 1 5.94597 26.4249 15.0183 23
453 1 2.14194 16.1543 9.46611 18
454 1 29.9554 5.86997 58.2993 16
455 1 6.38948 18.8219 49.8757 22
456 1 30.4939 32.1499 34.12 21
457 1 21.0317 31.3877 18.9158 19
458 1 16.9699 22.2238 21.0878 21
459 1 13.6301 22.7199 6.68928 22
460 1 7.93312 20.0359 58.498 21
461 1 24.0545 17.2031 29.1905 23
462 1 31.735 31.0339 48.8614 20
463 1 18.3218 32.6952 28.7175 22
464 1 12.6105 -0.856205 57.564 20
465 1 27.629 21.3978 17.6604 19
466 1 12.7865 26.3306 49.6838 19
467 1 33.1733 25.8453 43.4605 22
468 1 23.553 -0.476735 46.0951 20
469 1 14.4114 34.0892 51.9723 17
470 1 12.9639 23.6979 41.6704 24
471 1 4.59648 26.4064 45.1291 20
472 1 4.7016 1.14307 8.21427 24
473 1 8.08708 7.88258 32.7767 21
474 1 16.5686 15.9692 11.2457 25
475 1 11.752 24.1287 8.57126 20
476 1 4.18843 6.24166 39.7109 21
477 1 29.613 20.4694 7.04037 16
478 1 10.5108 34.8507 29.4015 20
479 1 0.518577 23.5398 16.7064 20
480 1 20.0459 34.3474 25.8121 20
481 1 2.38971 8.64722 17.8341 19
482 1 29.345 4.28187 6.33364 22
483 1 9.79995 32.5983 13.0689 19
484 1 2.18102 3.2882 22.6877 23
485 1 15.692 33.9643 34.549 20
486 1 29.4981 -1.30675 10.082 25
487 1 13.4175 2.71982 25.6919 18
488 1 22.7707 4.66064 31.5692 16
489 1 14.2448 25.7507 10.3429 19
490 1 15.6326 3.90447 14.934 23
491 1 21.523 0.80726 7.34483 21
492 1 19.2844 30.7367 6.59072 23
493 1 6.73005 21.7474 55.6753 19
494 1 11.792 8.00382 29.9803 20
495 1 31.1354 10.7176 13.3451 21
496 1 0.619476 36.2426 31.9765 20
497 1 2.81127 21.7099 17.2934 23
498 1 21.6714 11.7881 5.71196 22
499 1 4.8192 19.43 58.9465 22
500 1 7.51 6.50567 55.146 22
501 1 15.3497 7.85498 24.1851 20
502 1 22.3459 31.0817 11.8246 21
503 1 28.3966 17.1296 11.411 23
504 1 32.1973 24.9611 5.2761 21
505 1 20.1203 26.8776 24.1527 18
506 1 19.3279 29.6808 28.4248 20
507 1 1.721 19.4089 52.8887 22
508 1 29.0282 33.7518 51.6614 23
509 1 16.3229 22.6223 55.9391 23
510 1 10.1264 8.91701 22.3306 15
511 1 6.12385 29.508 19.3415 20
512 1 33.1171 23.6628 11.2462 20
513 1 12.1407 15.7611 35.4317 20
514 1 31.2211 25.1543 37.2688 18
515 1 24.8491 20.0111 34.3459 19
516 1 19.7326 9.84167 45.7945 22
517 1 16.4288 30.3925 17.6126 20
518 1 9.05651 3.05816 54.5448 21
519 1 23.6121 0.554303 23.0401 18
520 1 18.391 6.12613 14.8827 21
521 1 7.6856 13.1147 15.0534 20
522 1 22.094 26.3994 9.24025 22
523 1 22.6424 11.8207 48.5659 22
524 1 32.5925 -1.35227 15.6706 21
525 1 17.6389 11.7779 43.6434 20
526 1 2.54271 8.21325 34.2599 22
527 1 22.5544 24.6533 14.5438 19
528 1 27.621 16.8872 44.2943 18
529 1 18.5806 9.32545 6.84184 20
530 1 30.1651 8.44298 12.5411 19
531 1 16.6638 30.6104 30.4279 22
532 1 11.1877 12.8797 16.0554 24
533 1 26.2256 15.2424 28.5364 18
534 1 19.3927 20.6366 57.274 24
535 1 31.9429 2.60203 32.737 21
536 1 12.4538 17.2951 46.3926 23
537 1 3.45867 4.26197 34.2376 21
538 1 17.3354 28.4051 22.1914 20
539 1 21.2536 23.0433 33.986 22
540 1 19.5502 8.28821 13.3176 19
541 2 8.14878 25.0404 52.5843 24
542 2 5.20187 35.3345 23.2487 20
543 2 5.87658 8.42282 43.0978 21
544 2 23.4833 29.6072 12.5886 20
545 2 25.2412 17.7396 8.55779 18
546 2 21.7677 3.35097 51.5117 21
547 2 24.0663 -0.0284618 32.6745 22
548 2 12.5384 21.8936 40.9037 21
549 2 -0.24102 28.0337 48.6304 17
550 2 3.32219 19.7913 15.1956 20
551 2 3.53172 27.7655 52.942 19
552 2 25.6445 3.06085 10.0143 24
553 2 30.8445 22.015 41.5341 21
554 2 10.8581 7.27438 44.5385 16
555 2 13.4633 26.3469 17.369 22
556 2 11.4032 11.7145 30.3372 19
557 2 8.73961 14.3327 13.1007 18
558 2 29.6652 11.5197 48.9469 22
559 2 29.181 30.958 23.5787 20
560 2 13.8232 2.53382 32.526 18
561 2 9.52005 -0.515365 18.6134 22
562 2 27.9278 5.46523 43.9864 17
563 2 1.71164 7.02937 50.8049 18
564 2 21.9042 30.4727 37.1271 19
565 2 27.4951 17.3558 15.6485 21
566 2 9.42388 30.0024 36.3173 22
567 2 0.357013 5.20844 22.6583 19
568 2 3.3094 -0.58202 33.8649 19
569 2 5.31863 14.2937 47.0795 22
570 2 16.6448 6.82915 5.5622 22
571 2 0.301359 -0.3034 46.6931 19
572 2 18.5484 9.58658 47.7654 20
573 2 1.37468 -0.206687 30.6373 19
574 2 5.57972 -0.0308811 23.1105 22
575 2 33.362 -0.946557 10.1542 21
576 2 8.62687 10.0418 32.6248 18
577 2 21.5202 11.5037 41.07 17
578 2 23.7637 18.5798 38.1247 21
579 2 33.0973 33.6765 58.3648 23
580 2 10.5339 33.8135 8.99501 19
581 2 4.02939 6.34452 30.0375 20
582 2 27.7953 12.0566 34.8379 21
583 2 18.6403 25.9939 48.1707 20
584 2 9.51788 31.9127 20.5635 19
585 2 13.8801 13.1713 11.4324 21
586 2 8.08342 14.4179 16.5601 19
587 2 5.60762 35.4914 17.8322 20
588 2 6.01119 23.4138 55.3987 20
589 2 22.9578 10.2751 38.7236 20
590 2 0.0780304 28.9077 10.6814 20
591 2 7.3193 -0.869141 25.5852 19
592 2 22.5725 29.358 42.4123 21
593 2 8.42228 16.9798 56.624 21
594 2 24.324 15.751 50.4967 20
595 2 32.8025 28.2628 5.51609 20
596 2 10.468 29.8472 40.777 22
597 2 10.5744 24.7706 14.4693 20
598 2 29.0411 8.02964 17.8665 22
599 2 14.466 34.7689 29.1657 21
600 2 32.5848 16.6621 41.6555 20
601 2 10.8294 31.0809 14.2802 21
602 2 7.46167 18.6068 48.0022 25
603 2 5.1837 1.20064 42.9804 23
604 2 23.5099 20.1793 45.1587 20
605 2 20.6114 20.2647 23.9617 19
606 2 24.1441 32.1619 24.5166 22
607 2 6.47348 6.93065 17.1897 24
608 2 14.9948 2.21557 27.1305 17
609 2 15.261 26.645 56.0655 23
610 2 21.1086 -1.5598 22.9811 20
611 2 10.7276 16.4355 8.51916 19
612 2 23.8743 9.63703 31.2308 20
613 2 1.60974 16.3504 27.8361 20
614 2 10.4243 13.9072 31.9685 24
615 2 19.7084 2.27917 53.8051 21
616 2 32.571 30.8684 28.2037 22
617 2 21.2831 24.8749 18.7093 17
618 2 11.2782 10.7801 39.587 21
619 2 11.6503 15.4682 21.062 22
620 2 30.446 21.4171 34.629 19
621 2 27.6584 28.7989 22.7507 21
622 2 21.0588 8.18436 32.5078 18
623 2 21.0473 26.3666 28.2819 20
624 2 20.3587 13.8487 35.6497 21
625 2 14.0746 12.7052 41.4106 19
626 2 23.9403 -0.740962 50.3726 22
627 2 10.6983 11.2821 34.1877 23
628 2 27.9023 11.1411 46.7443 21
629 2 12.1963 29.2581 37.7677 23
630 2 19.2719 30.3561 37.9861 18
631 2 0.483145 3.6902 26.1024 20
632 2 18.2938 12.7227 35.3913 19
633 2 31.6409 19.5387 54.6143 23
634 2 6.35166 22.4701 43.6387 21
635 2 2.63838 9.69008 52.2184 20
636 2 17.9294 11.7701 16.1578 19
637 2 13.9077 4.79627 59.0282 24
638 2 2.09906 31.5683 31.7861 18
639 2 5.94465 26.4104 54.7991 20
640 2 31.3253 13.2947 50.7381 17
641 2 3.72539 21.7539 9.01986 21
642 2 22.2214 23.6355 31.0498 20
643 2 3.41524 34.7909 14.3574 17
644 2 9.12634 0.291421 5.41529 21
645 2 17.8186 34.5243 49.8409 22
646 2 10.4916 31.2991 54.377 16
647 2 18.1215 25.9856 32.768 18
648 2 16.8682 23.1797 16.0004 20
649 2 14.7907 35.145 15.8825 19
650 2 15.2 24.1909 6.05297 21
651 2 26.887 -1.14298 34.1841 22
652 2 1.50231 20.2353 10.4179 16
653 2 17.9132 15.4971 38.8839 20
654 2 8.09638 9.61147 40.5484 19
655 2 16.3822 1.68178 22.137 23
656 2 12.6729 24.0314 25.9477 18
657 2 32.4236 15.6831 26.5519 23
658 2 13.0047 7.17635 36.0756 24
659 2 13.4616 32.9684 15.6907 21
660 2 1.35853 12.1738 28.1597 22
661 2 31.5547 34.8367 12.0098 21
662 2 8.71607 31.1684 43.8381 21
663 2 13.8017 15.9902 25.8173 22
664 2 15.1067 30.3154 32.2112 20
665 2 17.959 6.58839 20.3783 19
666 2 5.52484 25.5853 16.8968 21
667 2 14.8045 31.8978 42.506 20
668 2 21.4939 16.0953 6.37744 20
669 2 3.40779 18.9973 56.0462 19
670 2 2.188 4.13548 32.5389 18
671 2 6.96424 11.1249 4.80962 22
672 2 32.5959 -1.38635 23.6163 22
673 2 10.1573 16.9668 16.5444 23
674 2 2.99569 3.09179 15.1859 21
675 2 -0.172668 2.04939 36.0758 21
676 2 28.4074 35.564 35.0652 21
677 2 1.78993 17.658 23.3059 26
678 2 25.5943 27.2907 43.9696 21
679 2 18.369 34.502 29.7594 18
680 2 28.15 3.8826 18.8063 21
681 2 30.1312 2.78257 46.0463 21
682 2 4.98967 -1.83651 20.4608 20
683 2 29.1765 14.1283 9.09367 21
684 2 31.8046 27.0182 36.3959 18
685 2 0.920305 7.32808 24.4903 20
686 2 26.6691 20.0243 30.8837 21
687 2 22.884 32.1714 27.5718 25
688 2 16.5873 14.1157 4.41516 18
689 2 -0.640239 14.1451 39.097 23
690 2 13.2265 34.7042 26.5112 24
691 2 14.8234 29.4632 53.8592 21
692 2 24.465 16.754 4.60526 20
693 2 7.81124 13.2488 34.2108 22
694 2 8.63211 35.3169 6.64768 21
695 2 7.31249 10.9329 19.161 21
696 2 19.5043 21.4349 26.9873 21
697 2 13.5611 34.094 7.70754 23
698 2 31.6373 5.65368 28.2161 18
699 2 2.74 6.72858 46.7817 19
700 2 5.72911 8.02504 27.7305 23
701 2 18.2133 17.633 23.3755 21
702 2 25.0456 28.1627 17.8973 22
703 2 26.1566 25.7901 29.2171 23
704 2 23.6421 -0.914662 38.5307 19
705 2 19.9476 34.5584 34.3054 20
706 2 32.8384 2.80177 16.1507 23
707 2 26.9463 22.8743 20.4311 23
708 2 1.20817 35.0572 42.4683 24
709 2 27.7221 26.4306 47.0448 23
710 2 33.1089 10.3693 13.1467 19
711 2 3.67479 7.43502 35.4134 25
712 2 23.513 15.8901 42.5759 18
713 2 23.5444 29.4895 34.9127 20
714 2 9.34766 24.5014 56.0167 22
715 2 26.7785 35.1461 57.7963 21
716 2 32.7222 23.0623 25.7137 20
717 2 16.8748 13.2296 52.6116 21
718 2 27.9952 31.9537 29.8676 23
719 2 32.009 8.96977 32.9736 25
720 2 0.732928 10.1795 44.5483 23
721 1 3.22639 24.0519 44.4528 22
722 1 11.9283 19.2627 4.93891 22
723 1 16.8673 13.5183 48.6858 22
724 1 27.9284 28.6903 26.4482 21
725 1 17.8714 34.8422 23.3097 22
726 1 6.24056 21.2847 40.1667 23
727 1 21.3713 -1.65554 27.9706 22
728 1 26.0262 25.7476 33.4823 21
729 1 28.1875 14.9289 50.7107 21
730 1 5.89971 31.2721 12.7255 18
731 1 8.5551 25.9044 6.53383 21
732 1 11.9018 18.0799 14.8782 19
733 1 16.4803 4.3037 41.3784 22
734 1 27.3489 34.8162 26.65 21
735 1 17.7873 15.7303 16.3652 22
736 1 23.5004 16.2488 18.9966 20
737 1 5.22108 1.63748 41.2065 24
738 1 19.1342 32.1552 17.0174 24
739 1 26.568 24.3205 30.4043 20
740 1 16.843 14.9382 8.60774 20
741 1 21.1244 8.48361 26.8363 19
742 1 10.6936 10.3449 4.31429 19
743 1 2.97608 13.0201 28.6845 22
744 1 26.3675 24.8995 21.4767 21
745 1 11.5081 24.2067 5.33334 24
746 1 4.15571 -1.77911 7.06985 24
747 1 25.7311 4.56268 15.3874 23
748 1 12.0315 13.9216 48.1902 20
749 1 2.3218 16.7105 33.5506 20
750 1 20.6924 5.31733 58.5607 20
751 1 3.64379 -1.30618 21.9194 22
752 1 24.6324 21.7005 49.752 19
753 1 23.3615 16.9331 54.4149 19
754 1 22.2264 31.9064 15.6833 21
755 1 5.54182 11.9189 57.1654 21
756 1 15.716 1.33432 13.2286 20
757 1 21.5163 6.98515 18.5063 21
758 1 19.8567 32.3309 58.8364 23
759 1 27.6945 6.24109 39.2257 17
760 1 4.31753 -1.01435 17.0194 18
761 1 33.1497 35.134 42.7047 20
762 1 1.49908 15.4677 19.6421 23
763 1 27.8858 17.8673 19.656 23
764 1 1.00117 23.4062 40.5264 17
765 1 0.0108646 21.2355 54.5228 19
766 1 16.5846 22.7825 41.9045 23
767 1 4.33421 18.5734 34.8244 22
768 1 30.6485 24.5474 49.6829 20
769 1 14.2277 16.1094 48.6607 21
770 1 11.7254 -0.396755 50.2837 18
771 1 14.1736 14.3763 55.6382 22
772 1 3.35014 11.6233 54.6512 21
773 1 6.4045 5.51232 11.2898 20
774 1 0.851192 -1.60466 47.9767 21
775 1 14.4292 35.7189 33.5278 20
776 1 3.21247 32.1728 24.8991 20
777 1 2.8195 22.9046 38.225 23
778 1 14.2681 3.45328 28.4523 21
779 1 -0.448553 20.9632 40.2896 18
780 1 4.93718 7.06719 22.9999 22
781 1 8.94475 8.03464 10.0811 23
782 1 30.7863 -1.80545 13.0702 23
783 1 0.166831 23.8095 29.9789 17
784 1 31.3679 12.6847 39.2599 19
785 1 4.10656 8.84131 6.97169 23
786 1 0.968517 26.704 55.9534 20
787 1 25.1977 28.4644 25.6102 21
788 1 4.08836 23.82 20.1463 25
789 1 21.0464 26.6999 18.1803 19
790 1 18.011 28.6444 25.4606 19
791 1 10.6772 20.7531 30.38 20
792 1 4.01093 9.05484 47.6001 20
793 1 12.5154 19.5711 48.6534 24
794 1 8.63529 14.0524 41.2797 22
795 1 8.4173 11.3538 20.7779 21
796 1 0.908583 30.4321 24.5633 23
797 1 13.7854 24.5874 16.9662 24
798 1 25.0184 11.6565 13.7429 18
799 1 20.7829 0.806792 56.7999 21
800 1 27.9892 29.4108 10.0321 22
801 1 17.6482 11.9004 25.8653 19
802 1 3.56434 29.9867 35.9203 23
803 1 29.7201 22.2758 59.185 18
804 1 17.6751 18.9604 17.6606 22
805 1 31.5064 35.6241 49.5718 20
806 1 9.52996 15.6391 14.9566 24
807 1 32.2163 9.44949 38.1356 21
808 1 10.3987 3.81987 8.50047 20
809 1 32.0169 35.9484 10.2518 18
810 1 12.8627 3.56915 11.1131 20
811 1 22.6313 29.6757 29.7976 23
812 1 16.2323 3.24408 8.51332 20
813 1 22.3143 9.4493 20.5067 23
814 1 17.7696 10.8486 23.1056 20
815 1 1.94458 -0.167802 26.4941 20
816 1 19.7305 34.175 11.297 22
817 1 7.35998 13.5929 50.2841 22
818 1 15.4408 23.5552 50.4207 20
819 1 9.18653 6.38053 58.3064 22
820 1 14.2042 26.1657 29.0076 18
821 1 31.0835 18.1354 56.3862 25
822 1 23.0882 12.4907 19.9892 23
823 1 6.61017 6.62057 14.8254 21
824 1 15.138 18.1871 26.6736 23
825 1 -0.0589557 26.4743 59.1321 21
826 1 24.8197 24.7519 8.81298 21
827 1 0.576995 19.1905 25.0674 22
828 1 3.97122 32.5993 40.1844 20
829 1 15.2845 21.6003 15.7299 22
830 1 4.3641 24.2456 55.6094 18
831 1 5.65015 11.3128 9.66586 22
832 1 15.5808 33.528 15.1214 21
833 1 11.5477 13.5957 5.19427 22
834 1 32.0074 21.4092 57.2472 22
835 1 10.3259 2.15052 34.9031 20
836 1 31.161 6.94858 9.56472 20
837 1 23.3852 34.2051 29.5661 22
838 1 6.07709 6.45556 7.18022 19
839 1 13.0237 35.645 35.6214 22
840 1 23.0235 17.4188 21.7559 22
841 1 4.27624 1.82431 57.4784 18
842 1 3.34706 30.5134 16.7141 21
843 1 13.4735 23.5721 52.4616 21
844 1 18.5184 27.3761 31.2252 20
845 1 1.34211 3.28397 15.9421 24
846 1 4.90525 26.1136 48.6718 20
847 1 32.2236 20.383 15.9479 22
848 1 19.254 21.2899 6.79175 23
849 1 13.2872 -0.229143 28.4215 20
850 1 9.96174 17.8138 7.11404 21
851 1 3.50293 28.0978 15.171 20
852 1 0.404081 6.57028 16.7417 20
853 1 24.8774 30.0326 11.3126 19
854 1 16.2457 34.406 30.0069 20
855 1 24.9325 9.51696 52.3048 21
856 1 27.2151 12.8682 15.6165 23
857 1 4.36451 3.28882 16.6094 18
858 1 13.3995 -0.434563 7.43057 22
859 1 10.1703 35.9814 48.7635 18
860 1 26.9295 20.163 27.4887 20
861 1 23.9792 15.038 59.1318 20
862 1 3.57392 31.6479 8.83928 21
863 1 27.2037 30.6259 23.4501 20
864 1 2.21244 6.57517 23.0736 20
865 1 14.3226 30.3899 4.16022 20
866 1 0.0198017 24.5757 45.8347 18
867 1 24.0695 0.612739 5.44348 22
868 1 -0.471612 25.4594 51.9348 24
869 1 14.1435 31.9354 19.024 20
870 1 32.9958 14.2868 24.0009 22
871 1 17.0397 27.8926 55.4106 20
872 1 7.06188 14.9968 12.5836 22
873 1 3.19981 22.9606 7.74069 18
874 1 26.6863 32.1846 8.77868 20
875 1 5.65595 9.38497 33.1592 22
876 1 11.2313 8.19619 51.1967 21
877 1 29.3096 33.8304 5.88208 20
878 1 11.4752 12.0047 43.8613 17
879 1 4.96607 32.5323 44.3812 20
880 1 1.44258 22.7927 56.4246 19
881 1 18.7005 20.0703 12.0779 22
882 1 27.752 7.57987 56.128 19
883 1 4.15703 3.92029 13.6682 21
884 1 19.0271 14.7886 57.6871 25
885 1 18.3484 25.5596 41.4703 22
886 1 3.51218 14.2363 52.979 20
887 1 15.4458 6.38579 15.9832 22
888 1 14.8979 30.0475 39.1432 23
889 1 17.6165 28.425 41.4344 19
890 1 24.7778 22.2451 25.1745 21
891 1 19.7485 1.86878 38.6451 19
892 1 11.0628 26.6801 6.53773 21
893 1 27.8859 16.0466 14.1255 23
894 1 8.79898 34.5007 56.8039 19
895 1 28.8272 32.7753 24.1699 22
896 1 28.9303 13.5657 24.1207 21
897 1 19.0395 21.808 10.0653 19
898 1 14.2429 7.33734 7.44036 22
899 1 1.69324 25.1592 10.892 20
900 1 1.09976 24.1916 13.6777 21
901 2 29.4925 26.3125 16.0185 24
902 2 23.9089 12.9141 14.7617 19
903 2 14.4112 14.8194 9.05373 23
904 2 25.8506 10.2319 36.849 18
905 2 11.5304 5.27376 7.80452 22
906 2 11.0358 -0.578062 22.7846 21
907 2 18.7839 29.8551 51.9625 19
908 2 -0.0206921 1.72257 23.4817 20
909 2 13.2599 32.6353 24.7414 20