ITEM: TIMESTEP
79000
ITEM: NUMBER OF ATOMS
5760
ITEM: BOX BOUNDS pp pp pp
0.2142773093 32.5857226907
-0.1995381621 34.3395381621
-0.7099712577 64.3099712578
ITEM: ATOMS id type x y z Coordination
1 1 29.3634 21.1578 9.55315 22
2 1 30.0012 1.65378 -0.368723 17
3 1 29.3577 9.18145 2.10985 21
4 1 2.89739 8.50199 59.1737 20
5 1 12.4807 24.983 3.77476 21
6 1 29.1115 6.85524 61.9767 22
7 1 9.89723 28.0637 13.32 19
8 1 32.1065 28.9738 63.3883 21
9 1 21.3728 4.83842 4.79896 21
10 1 4.84785 5.21633 2.69832 23
11 1 3.55529 13.5343 14.484 17
12 1 20.5417 23.1686 13.3596 19
13 1 28.7693 33.8106 59.7931 17
14 1 31.8307 15.7768 55.5208 22
15 1 15.9215 6.94647 4.54804 21
16 1 5.60322 13.9885 7.22417 21
17 1 17.6014 9.08269 3.36526 19
18 1 19.8165 10.2668 10.4897 20
19 1 13.0958 3.56338 15.9231 19
20 1 0.719797 18.5753 4.00583 22
21 1 20.128 11.6101 13.447 19
22 1 10.0164 18.6205 27.7635 22
23 1 28.1318 17.1148 42.7596 22
24 1 1.81979 1.90439 32.2865 18
25 1 31.5706 23.3193 63.7422 18
26 1 25.1877 15.5844 62.4628 20
27 1 2.43962 7.78087 3.05561 23
28 1 20.6194 23.138 51.7884 21
29 1 13.119 15.5241 8.42633 20
30 1 16.9661 0.596913 0.584887 21
31 1 23.8138 12.6567 4.86095 24
32 1 1.74509 29.0804 8.04479 23
33 1 6.01451 30.9923 6.10003 19
34 1 25.502 17.0957 17.2221 21
35 1 15.6311 18.1992 17.7463 24
36 1 32.011 26.2803 -0.232753 23
37 1 23.0676 14.1497 2.26892 22
38 1 27.5314 3.73497 62.8936 22
39 1 3.90004 9.05805 23.2613 20
40 1 15.3139 22.2222 13.121 24
41 1 5.5581 1.44681 64.2264 21
42 1 25.3638 27.4563 22.7101 21
43 1 4.85535 5.21027 13.0388 18
44 1 1.43944 10.9959 8.5583 21
45 1 15.7878 24.209 7.67703 23
46 1 28.8646 14.7312 15.2709 21
47 1 10.2331 25.6941 24.9668 19
48 1 27.8369 3.15572 7.75319 22
49 1 11.1981 3.4444 13.2629 22
50 1 2.83759 2.89107 12.0689 17
51 1 22.1315 28.0504 4.96151 21
52 1 2.83282 11.8323 19.0376 22
53 1 12.9388 27.8438 13.2756 21
54 1 10.6911 6.21433 3.60187 22
55 1 23.2707 25.384 62.1939 18
56 1 22.5435 0.521843 6.85542 22
57 1 31.6382 9.07539 47.8719 24
58 1 7.90742 16.4524 50.1154 19
59 1 0.538156 3.49668 16.5466 20
60 1 3.31164 0.774269 36.488 20
61 1 28.8132 19.1204 63.576 21
62 1 19.4865 21.3776 48.7189 22
63 1 7.14237 19.9946 23.7612 20
64 1 7.1643 26.2419 57.785 20
65 1 25.5285 26.5726 3.17012 16
66 1 12.2731 18.9407 52.3825 23
67 1 12.6643 12.0236 28.704 21
68 1 5.39468 19.4258 63.0861 19
69 1 6.71582 27.2127 3.74053 22
70 1 21.9664 33.8597 54.4617 20
71 1 28.2957 25.9251 13.2985 23
72 1 28.1455 9.05689 20.5701 21
73 1 3.39734 8.35045 53.488 22
74 1 16.6273 14.9567 17.9299 19
75 1 25.3391 33.0059 62.8023 22
76 1 5.82567 3.16538 4.62254 15
77 1 29.8738 25.3528 18.8531 20
78 1 24.8132 5.35838 6.32019 22
79 1 25.2852 2.72893 57.9527 23
80 1 4.72349 12.3834 64.2745 21
81 1 9.41292 30.753 18.0207 23
82 1 27.485 32.9834 26.2247 20
83 1 4.41786 33.5771 16.8512 23
84 1 17.1885 16.0755 15.5002 22
85 1 12.5364 16.0591 53.6247 23
86 1 14.0528 13.3587 54.9542 21
87 1 8.44004 5.24746 21.3497 16
88 1 12.095 13.3227 63.4148 21
89 1 18.4082 14.6561 7.11868 20
90 1 10.3452 23.3212 6.35188 19
91 1 7.76031 8.75834 62.4499 19
92 1 9.26325 24.4579 13.0552 22
93 1 18.4763 31.8282 19.013 23
94 1 10.6363 11.4584 31.2612 23
95 1 5.91763 34.2634 7.93569 18
96 1 14.8421 25.8387 1.23184 21
97 1 7.21478 13.8342 4.2726 21
98 1 10.5641 14.4668 34.1425 21
99 1 11.2762 5.11807 10.4728 20
100 1 5.84111 9.18482 48.956 20
101 1 30.5343 16.6205 63.4617 23
102 1 28.5428 16.4616 7.22296 19
103 1 2.42571 19.9604 0.77046 21
104 1 25.954 15.2748 59.9095 19
105 1 31.83 6.39412 26.1364 19
106 1 25.0311 8.08832 15.9244 24
107 1 1.45373 18.5226 7.14138 19
108 1 31.293 15.8301 13.5996 21
109 1 3.60725 11.8904 59.4163 20
110 1 8.23761 28.7184 10.283 22
111 1 3.99531 30.1077 52.4253 20
112 1 3.19689 -0.0941591 -0.0687072 20
113 1 16.6797 3.68302 0.46021 22
114 1 7.94453 23.9634 3.20216 22
115 1 4.57832 32.0686 11.5871 19
116 1 23.5357 32.7837 17.1037 23
117 1 9.86868 11.0232 57.5607 19
118 1 29.5006 18.9367 32.2051 18
119 1 12.8987 7.43091 11.0033 20
120 1 11.8509 29.9328 30.4017 22
121 1 7.15045 10.747 39.8146 22
122 1 0.866154 8.30883 42.9714 21
123 1 1.17011 9.93457 61.0834 21
124 1 5.80761 25.7177 14.1896 22
125 1 11.534 1.96431 9.72943 18
126 1 19.8317 10.4853 0.316653 18
127 1 11.6204 12.1892 6.02501 22
128 1 17.5542 20.301 10.0648 22
129 1 13.2144 10.0658 61.5003 21
130 1 8.21198 2.63773 13.2073 18
131 1 19.8106 33.083 17.1308 23
132 1 8.60765 16.1601 24.0779 20
133 1 24.1834 19.6268 15.6124 19
134 1 6.54205 26.2839 8.60427 21
135 1 12.3839 15.6362 1.07897 21
136 1 25.8157 12.285 62.7408 24
137 1 18.4625 20.1173 0.472643 26
138 1 15.1085 25.5137 63.7138 22
139 1 19.0226 14.7123 51.0432 23
140 1 9.84291 19.3049 14.8128 18
141 1 9.1394 14.644 13.1005 20
142 1 4.26054 8.75646 4.54067 22
143 1 1.87153 12.9838 -0.254466 22
144 1 4.63032 0.583426 14.148 20
145 1 13.6062 8.47779 39.0669 17
146 1 32.3875 26.5854 3.14822 26
147 1 30.2199 15.2836 10.6389 22
148 1 25.6085 1.70022 6.35183 23
149 1 23.2737 8.5108 57.065 23
150 1 16.214 22.1499 57.1962 20
151 1 11.7104 5.03149 62.6745 24
152 1 20.2433 2.3556 12.8357 21
153 1 14.2864 33.4397 5.57547 23
154 1 31.6067 21.4573 4.86119 21
155 1 8.48799 7.63653 29.1621 18
156 1 24.7993 5.49125 13.9455 19
157 1 12.3824 1.67023 6.73437 19
158 1 1.26719 7.83111 55.6836 19
159 1 7.61011 15.5585 2.34933 21
160 1 25.822 29.476 55.6173 19
161 1 28.9405 20.3501 48.1235 23
162 1 22.1941 11.7494 9.74329 20
163 1 22.0889 2.63243 9.31154 22
164 1 24.9081 1.42715 15.7069 23
165 1 31.7993 34.1616 58.6525 19
166 1 26.0831 1.02502 3.10548 18
167 1 20.7132 0.362893 9.56794 20
168 1 10.7513 11.7742 22.3822 22
169 1 14.2849 12.415 11.8321 25
170 1 11.4156 17.3234 55.8532 23
171 1 27.1193 8.52942 6.86214 22
172 1 10.0587 26.9591 49.8156 19
173 1 5.11222 10.4818 12.8437 22
174 1 21.4932 12.7393 6.58654 23
175 1 21.0488 0.126033 57.503 20
176 1 23.8315 15.8556 54.0814 19
177 1 10.6673 9.6112 20.5997 23
178 1 2.10408 18.3761 16.8576 21
179 1 16.2956 31.7081 13.4544 21
180 1 24.4244 14.2273 19.348 23
181 2 5.04332 2.46625 16.0823 20
182 2 2.23736 30.6148 19.1982 24
183 2 25.3395 3.63281 6.72633 21
184 2 0.521974 2.63089 5.47827 25
185 2 12.5821 16.9771 12.73 19
186 2 12.7437 1.09774 16.7802 20
187 2 21.3869 32.835 -0.358597 20
188 2 31.9371 27.6484 61.633 22
189 2 19.1301 2.5177 40.1805 18
190 2 0.739734 15.0861 40.075 16
191 2 15.3347 9.76385 27.1094 18
192 2 8.37173 27.3108 2.69116 19
193 2 13.361 14.46 63.868 22
194 2 30.3603 2.65254 3.79281 20
195 2 21.9407 1.37024 55.407 22
196 2 17.2466 19.9135 7.63706 19
197 2 27.4025 11.0105 10.6534 19
198 2 23.7266 3.4722 9.88198 19
199 2 10.4301 33.8771 16.6931 21
200 2 26.9651 33.8321 14.7459 20
201 2 9.9099 14.3778 26.0547 18
202 2 18.1414 3.44001 64.0504 18
203 2 23.5398 10.8409 5.87251 21
204 2 6.68974 3.46389 10.1524 22
205 2 25.9927 11.2076 2.54565 20
206 2 2.21009 24.2813 5.30676 21
207 2 18.9279 23.2711 58.5327 21
208 2 2.20073 27.5616 53.0366 21
209 2 27.6011 15.279 23.4305 21
210 2 26.0037 20.0148 13.2738 22
211 2 8.49886 33.0803 58.0651 25
212 2 20.8621 26.2036 2.12076 20
213 2 1.78109 19.718 19.0022 21
214 2 26.8489 8.17635 15.6896 25
215 2 22.3437 13.2462 8.29706 23
216 2 25.0145 28.7372 11.9494 19
217 2 5.22243 8.94432 14.2418 23
218 2 26.2516 14.5644 21.1405 18
219 2 6.77133 1.05167 12.8234 19
220 2 11.6195 28.2157 11.8464 22
221 2 11.6238 0.709304 20.2808 20
222 2 24.4749 7.64012 13.5343 23
223 2 31.9317 32.4805 -0.564756 20
224 2 4.21226 3.80221 5.63697 21
225 2 3.08237 2.17879 18.7797 20
226 2 27.2577 1.14061 5.76497 21
227 2 27.2643 8.6942 21.9832 20
228 2 16.8995 4.27221 4.79224 22
229 2 18.888 3.05696 5.03729 20
230 2 31.4894 11.0335 29.0259 26
231 2 26.4671 13.1188 8.65285 19
232 2 26.3686 5.45885 48.5973 20
233 2 8.27028 11.1442 8.25387 20
234 2 13.7791 32.4472 17.5846 20
235 2 27.8186 11.0255 16.9493 20
236 2 26.6441 12.2283 -0.132728 22
237 2 22.738 3.80349 27.9903 21
238 2 13.0236 3.13737 2.79618 21
239 2 0.51708 17.9027 15.6116 20
240 2 18.1218 30.4168 13.0226 19
241 2 30.5345 33.8014 14.9165 21
242 2 1.1907 32.9608 18.1935 20
243 2 26.1367 13.2333 58.9024 19
244 2 15.0605 16.4568 61.6367 17
245 2 26.1408 5.6205 14.993 23
246 2 8.95633 6.57787 4.29391 20
247 2 3.78365 23.3477 12.7607 24
248 2 3.73527 30.5458 13.0072 19
249 2 28.5999 -0.0473391 12.2905 24
250 2 29.8912 5.9622 26.573 23
251 2 31.055 29.6182 30.3634 20
252 2 6.57099 25.3186 2.8656 21
253 2 26.227 19.8831 60.7799 19
254 2 31.3597 3.67115 -0.457566 18
255 2 16.4582 21.1848 3.59312 22
256 2 3.08457 26.5264 59.2943 19
257 2 30.7723 4.49064 21.2235 20
258 2 12.5466 23.8316 15.2655 20
259 2 16.6533 0.559154 20.1352 21
260 2 20.4522 16.752 3.61395 23
261 2 11.4295 31.7197 24.9721 21
262 2 2.91456 14.4393 8.70287 21
263 2 8.00918 29.7362 19.2028 22
264 2 32.3472 13.6457 26.8084 22
265 2 13.6821 11.3532 3.18093 20
266 2 20.0337 6.23209 4.93634 20
267 2 3.98779 17.6623 50.7971 18
268 2 8.12482 12.9521 -0.572854 21
269 2 16.3143 31.1438 50.2378 19
270 2 10.7243 9.18072 7.91102 19
271 2 22.526 17.4231 52.7651 20
272 2 21.1485 0.368569 62.9967 21
273 2 31.1566 6.131 58.093 19
274 2 18.6046 8.3946 26.8406 18
275 2 15.8323 4.46334 12.6335 20
276 2 7.06394 30.0755 -0.577188 21
277 2 3.30482 26.1963 12.3576 19
278 2 6.26734 5.21441 4.09082 20
279 2 3.05895 11.3643 15.2894 20
280 2 15.3102 12.3503 13.627 18
281 2 3.16776 15.1681 3.00945 22
282 2 30.0984 26.7578 2.64828 22
283 2 9.95432 20.2831 0.690254 21
284 2 31.4914 27.6006 10.267 23
285 2 32.2776 2.1295 8.94469 25
286 2 13.9467 29.7713 9.40434 21
287 2 24.6445 4.61315 63.2629 19
288 2 22.5729 13.9823 4.11668 22
289 2 26.2952 27.7442 60.2594 22
290 2 17.9024 10.449 7.04608 20
291 2 7.86938 15.8254 22.2337 17
292 2 9.92829 2.16005 8.74341 18
293 2 12.1099 33.8095 22.6183 20
294 2 31.3824 4.18834 34.4496 18
295 2 13.1658 13.1835 47.8506 20
296 2 26.2365 30.516 10.0888 18
297 2 20.6395 12.3391 20.3099 20
298 2 10.8519 5.11647 20.8991 19
299 2 15.6149 10.2027 22.8972 22
300 2 13.7829 21.7589 1.05838 19
301 2 13.7388 16.3419 52.0438 21
302 2 2.91112 27.093 5.29156 23
303 2 10.3536 3.73168 62.3094 21
304 2 17.0851 25.9733 58.185 22
305 2 15.4397 34.3521 16.333 20
306 2 24.1454 6.15715 9.89036 18
307 2 1.04671 33.4922 59.0224 20
308 2 19.1656 30.0567 4.89328 20
309 2 15.7254 11.74 28.881 21
310 2 9.90665 8.87694 19.1693 20
311 2 20.1493 7.79736 1.54864 21
312 2 14.2306 7.89163 33.9739 21
313 2 7.72806 24.4253 56.819 18
314 2 21.388 14.3466 1.35025 18
315 2 11.2545 4.19838 15.6695 22
316 2 8.1297 15.7309 11.8801 21
317 2 8.1228 24.1509 20.9721 18
318 2 18.3905 14.6031 28.6909 23
319 2 7.66061 20.0161 21.7075 21
320 2 3.29345 14.4809 57.1422 19
321 2 11.979 16.9187 4.5321 21
322 2 21.1302 12.2158 11.0747 22
323 2 16.9576 14.3596 14.7927 16
324 2 25.1625 12.7029 17.0206 18
325 2 13.0209 5.59947 60.8566 22
326 2 27.6223 33.5764 3.72488 22
327 2 11.008 19.9151 62.9881 21
328 2 4.23657 31.5586 6.56867 21
329 2 15.6778 26.6858 2.51982 21
330 2 18.2414 17.2651 63.0121 21
331 2 26.04 23.9311 14.2127 18
332 2 32.4115 29.892 7.64427 20
333 2 31.0478 1.5742 41.5164 20
334 2 20.7563 31.4165 7.4872 19
335 2 18.3169 6.22322 11.5931 20
336 2 12.4504 15.1818 23.1194 20
337 2 10.0408 30.5688 13.3605 21
338 2 31.4587 15.2766 59.4125 24
339 2 18.5709 23.9142 3.91849 19
340 2 28.7816 5.58776 12.1709 18
341 2 31.4982 1.01622 11.2404 24
342 2 15.1661 28.8842 18.2096 20
343 2 16.3148 4.67797 59.3064 17
344 2 22.883 4.70507 13.2102 22
345 2 7.5549 13.4053 59.5238 22
346 2 6.74137 8.30552 26.4202 22
347 2 26.8683 28.759 64.3 18
348 2 30.0605 30.4847 23.4517 18
349 2 13.6891 13.9751 51.0016 21
350 2 30.8632 3.14502 16.2754 19
351 2 6.25427 33.9666 16.0747 22
352 2 22.7474 18.8511 -0.467574 19
353 2 15.7064 6.17812 20.0511 21
354 2 11.2678 8.1221 60.6254 20
355 2 10.9264 16.8834 7.18201 25
356 2 27.7735 9.04738 12.6097 21
357 2 22.4015 30.9187 23.9749 22
358 2 11.4835 17.2348 18.5945 20
359 2 29.6327 25.1691 57.8094 21
360 2 4.59664 21.1733 14.1429 23
361 1 27.6349 31.976 40.7421 19
362 1 15.8446 16.7039 2.73726 23
363 1 27.5106 33.2903 29.1304 21
364 1 6.17158 18.3566 33.7526 20
365 1 23.9742 17.7386 33.2961 21
366 1 29.2153 5.99242 20.6288 22
367 1 13.9958 4.73619 19.8469 20
368 1 2.70707 0.814764 17.2515 22
369 1 7.52679 10.268 30.3833 20
370 1 17.3588 22.5547 21.124 23
371 1 24.7389 33.407 21.2406 19
372 1 32.1772 11.4002 39.0083 20
373 1 27.9744 28.6339 15.0234 21
374 1 3.86207 7.60427 14.5094 19
375 1 11.0277 9.93716 16.4406 23
376 1 24.2789 18.3594 22.2271 20
377 1 28.6758 10.809 26.9297 22
378 1 5.5856 13.2488 40.8797 19
379 1 2.45139 20.3364 23.2396 21
380 1 8.08106 12.2 20.8839 19
381 1 20.558 32.5735 36.0626 20
382 1 24.0503 30.459 31.5228 22
383 1 31.2756 10.2433 36.1733 23
384 1 1.59764 23.1467 14.5404 24
385 1 30.4903 9.63081 62.0194 19
386 1 10.6911 21.7762 18.6506 17
387 1 1.52132 1.60099 14.345 23
388 1 23.8705 30.9111 22.6462 20
389 1 32.52 10.2455 27.7094 20
390 1 15.7304 12.9996 15.718 22
391 1 21.9441 3.18031 22.3916 19
392 1 27.103 20.3386 27.3108 19
393 1 19.3069 20.4186 38.4278 23
394 1 13.8129 16.6362 16.927 25
395 1 16.8982 23.1425 29.8388 25
396 1 20.0294 15.4051 17.2734 19
397 1 18.7388 1.95776 15.7305 22
398 1 22.5626 2.60599 0.970156 22
399 1 26.7569 4.99147 1.82354 21
400 1 17.1237 11.3499 24.51 19
401 1 29.6239 4.20051 25.7901 20
402 1 18.7969 23.4738 18.9085 22
403 1 31.1929 9.17581 25.352 20
404 1 27.034 0.939469 47.7737 19
405 1 28.6956 27.0455 41.6752 18
406 1 21.7684 -0.100876 33.8269 19
407 1 29.9638 16.8355 35.734 23
408 1 10.062 13.8059 9.08154 21
409 1 3.9618 31.5427 8.33754 22
410 1 19.6299 1.8426 27.3321 21
411 1 19.4955 14.6519 33.4541 22
412 1 1.71805 10.4099 23.7547 21
413 1 4.74921 6.16453 23.5578 21
414 1 16.1621 15.286 31.823 18
415 1 31.7805 17.3924 20.5946 18
416 1 14.4019 4.44883 31.498 17
417 1 22.3235 19.2134 31.5246 22
418 1 11.9611 9.82894 34.8208 21
419 1 4.09654 23.7556 15.0232 23
420 1 17.0375 1.30764 26.9597 19
421 1 14.4154 21.0983 21.3649 21
422 1 22.7685 0.958157 11.6995 20
423 1 12.2707 20.9584 4.07347 19
424 1 6.27692 32.0917 3.42082 22
425 1 0.815537 28.5175 39.8878 18
426 1 20.0701 29.3092 12.2491 18
427 1 27.0048 10.8525 23.7172 21
428 1 12.7901 7.71733 15.6796 23
429 1 9.61822 20.4135 21.4101 18
430 1 25.7065 14.7143 16.0026 20
431 1 9.83208 28.2758 32.6159 17
432 1 30.5614 11.9286 60.1661 19
433 1 14.8117 29.0795 0.432756 20
434 1 23.522 3.24519 6.11108 18
435 1 3.81703 8.5286 20.5155 22
436 1 32.5107 27.5997 24.6895 21
437 1 27.7695 17.6355 29.2541 24
438 1 11.1069 14.156 24.4875 19
439 1 20.0072 31.2458 38.6191 23
440 1 12.0621 14.1435 42.3935 20
441 1 21.4399 6.30075 23.1965 17
442 1 30.2386 5.96274 29.4576 21
443 1 6.02876 28.6328 39.378 19
444 1 5.1219 12.8127 35.6019 22
445 1 24.3045 1.7413 18.3586 21
446 1 16.4161 16.9001 5.81669 20
447 1 9.79339 33.7192 18.7262 20
448 1 16.196 3.20385 14.1427 19
449 1 31.5771 2.71487 11.9149 22
450 1 6.86518 21.3773 28.7502 22
451 1 5.85767 9.3858 27.6594 22
452 1 2.23321 5.72701 63.6113 22
453 1 24.3241 19.6354 45.831 18
454 1 9.96647 12.4181 37.1231 22
455 1 12.6611 13.147 33.0468 21
456 1 20.4117 10.4591 23.9124 23
457 1 0.84404 7.88737 9.46415 20
458 1 11.0337 16.1309 26.5758 22
459 1 5.2957 10.6902 34.4954 21
460 1 17.4568 26.3418 1.78877 21
461 1 13.6078 22.0583 15.5242 17
462 1 6.80138 27.2495 35.3885 18
463 1 12.6133 19.9165 13.5362 21
464 1 10.9692 28.2621 17.2403 22
465 1 13.1022 29.1027 27.7854 18
466 1 31.9321 5.77333 20.0876 17
467 1 13.3565 29.5203 18.3601 21
468 1 23.1384 28.4156 11.8219 23
469 1 24.468 29.3172 19.0022 20
470 1 16.4879 5.47577 25.208 20
471 1 7.90203 2.89961 18.2655 21
472 1 21.6916 3.10223 33.4909 23
473 1 29.1225 10.9004 18.495 20
474 1 7.89164 26.3771 29.6177 22
475 1 2.04112 32.3088 23.079 18
476 1 12.3262 33.2596 20.0761 23
477 1 12.3076 12.7726 20.7304 23
478 1 30.1908 14.1754 41.9987 19
479 1 28.3678 4.74648 27.8589 22
480 1 14.2197 12.2628 30.9238 20
481 1 15.4481 7.54894 10.6421 21
482 1 3.00127 16.6972 19.0508 21
483 1 6.04457 4.12949 15.5221 17
484 1 13.7567 17.0203 14.4501 23
485 1 13.6531 9.19931 13.1438 23
486 1 8.22661 7.4001 25.643 19
487 1 26.4176 6.94564 19.0389 23
488 1 19.0186 8.26747 12.3486 20
489 1 29.4761 11.4914 15.6357 22
490 1 1.77486 2.50907 9.14281 21
491 1 10.4208 28.1767 28.9681 19
492 1 10.6674 8.23953 32.3906 20
493 1 7.10068 12.0399 0.760491 21
494 1 10.4284 11.3933 18.2486 24
495 1 18.4691 6.42508 1.83163 23
496 1 13.4342 9.64472 32.5143 22
497 1 17.2728 7.38859 21.2527 23
498 1 2.91307 6.29127 36.2623 21
499 1 19.2452 31.7707 12.8734 20
500 1 4.2529 15.1927 27.8125 21
501 1 16.2451 6.41878 34.0831 20
502 1 18.5317 26.3714 27.7833 18
503 1 1.77533 17.1841 27.2971 20
504 1 16.0599 19.4195 26.364 22
505 1 2.28148 3.95035 19.084 20
506 1 5.45265 4.44095 6.98587 21
507 1 25.1339 22.1331 31.8592 19
508 1 8.97352 18.6024 9.27285 19
509 1 26.0516 15.8195 5.7463 18
510 1 20.2408 8.63018 15.2324 20
511 1 3.55969 3.96683 29.6458 23
512 1 28.7524 10.601 12.0021 23
513 1 19.7935 19.4353 41.1823 22
514 1 7.89895 10.5895 23.6884 20
515 1 9.84185 11.6844 34.1982 22
516 1 21.799 27.2481 36.9231 21
517 1 14.1177 23.0454 5.46387 18
518 1 13.727 5.00958 3.34887 23
519 1 11.9427 10.5834 11.0426 23
520 1 6.27268 19.9779 11.0838 21
521 1 7.24778 31.6954 63.0851 23
522 1 9.1549 8.44647 14.6904 23
523 1 17.2884 3.71906 7.41835 21
524 1 14.7215 10.8204 4.74716 19
525 1 29.0022 27.2092 22.883 23
526 1 9.33188 18.0789 33.1881 22
527 1 10.164 33.3536 25.4503 20
528 1 14.7124 15.9481 42.9711 23
529 1 32.5011 13.4637 6.0698 23
530 1 19.0752 3.25157 1.02205 18
531 1 30.5872 10.6296 32.4888 24
532 1 13.5919 34.3017 9.25902 21
533 1 15.8917 6.68223 8.13829 21
534 1 14.0969 28.0273 10.5305 23
535 1 15.602 15.0899 12.7296 21
536 1 17.3168 1.53011 12.3821 22
537 1 11.7063 11.3237 25.3654 19
538 1 11.1842 16.4814 13.9895 20
539 1 13.6648 3.47997 34.1713 21
540 1 9.17394 13.2285 16.3144 19
541 2 6.17886 25.5929 36.552 20
542 2 27.1304 16.1112 16.0587 24
543 2 2.07243 21.2723 27.3938 18
544 2 22.5303 23.9862 28.9595 19
545 2 8.13955 26.6132 18.607 22
546 2 5.87274 8.73787 37.9937 20
547 2 26.1664 19.6845 29.0829 20
548 2 7.83161 7.89734 45.1177 21
549 2 29.6352 4.84121 37.9315 22
550 2 8.29206 28.2299 16.0264 23
551 2 16.8117 12.4292 37.2482 21
552 2 5.78778 21.6236 32.4339 21
553 2 6.53189 26.4597 28.3741 20
554 2 32.2599 7.86561 7.84425 23
555 2 3.17981 21.4349 35.8693 18
556 2 29.3073 25.4133 22.7935 18
557 2 10.9774 14.6541 13.2974 21
558 2 27.3611 4.17785 24.5275 20
559 2 12.4191 12.5598 31.1922 19
560 2 8.05975 9.82784 28.6439 20
561 2 23.2387 5.1664 32.9607 24
562 2 8.54493 12.2697 38.8546 18
563 2 9.46868 26.9121 26.1698 21
564 2 28.3092 31.4322 25.2141 18
565 2 32.0366 21.7866 18.9802 21
566 2 4.60524 20.4687 38.088 23
567 2 20.1555 16.3018 20.9492 21
568 2 22.358 22.5349 13.078 21
569 2 7.87856 9.03068 15.8468 17
570 2 24.9545 28.3052 26.5032 20
571 2 32.3502 13.6198 24.6021 23
572 2 22.6088 8.34052 7.29101 21
573 2 2.21624 14.9497 42.6465 20
574 2 30.7422 33.9455 32.6991 20
575 2 31.9045 28.4809 28.333 21
576 2 0.330902 17.4406 22.5021 20
577 2 25.5969 17.4975 31.9091 21
578 2 12.5093 18.2304 42.2684 23
579 2 6.10464 26.314 30.6915 21
580 2 19.015 4.29558 8.08914 23
581 2 4.66862 7.22495 35.6083 24
582 2 29.9271 20.7528 16.0377 21
583 2 13.8665 18.8212 17.1998 24
584 2 17.278 19.1778 17.0317 22
585 2 10.4404 1.93874 35.9856 19
586 2 2.46784 9.91508 12.5826 20
587 2 20.3738 7.74565 33.2693 20
588 2 22.6973 31.316 30.9153 20
589 2 9.63979 10.1006 22.3888 19
590 2 15.3474 16.7056 12.0836 19
591 2 9.25551 22.7673 26.116 22
592 2 17.3435 17.0244 26.022 22
593 2 19.6139 8.28392 39.2056 22
594 2 25.501 4.91266 29.8989 25
595 2 3.43233 9.50039 2.8324 20
596 2 17.771 22.2519 10.3225 24
597 2 7.39974 5.88187 29.3586 21
598 2 29.1317 20.8008 44.8957 21
599 2 20.1826 13.779 26.4395 21
600 2 22.4358 14.6225 26.036 22
601 2 31.2808 7.05263 35.1597 22
602 2 19.2925 30.6783 30.869 20
603 2 1.75569 15.5765 31.5227 23
604 2 11.8032 10.3669 5.41255 19
605 2 29.5657 14.6884 36.4046 19
606 2 1.98646 28.2893 38.3313 20
607 2 25.5111 31.8615 31.3255 20
608 2 6.67401 22.4315 23.3773 17
609 2 28.3054 17.8692 31.1759 20
610 2 18.4711 19.5686 12.3231 18
611 2 19.0321 21.6204 51.198 16
612 2 7.18534 24.5754 26.3165 22
613 2 31.0287 24.3259 20.0288 21
614 2 16.197 14.9524 27.0069 23
615 2 1.05337 32.0118 52.1407 19
616 2 18.9433 31.206 17.3467 20
617 2 10.1087 12.0991 29.498 21
618 2 0.676111 22.3608 30.7277 23
619 2 16.3108 8.74947 20.1054 21
620 2 2.047 12.3148 22.8721 25
621 2 0.513314 27.0903 20.7961 24
622 2 29.6559 16.0171 54.3536 21
623 2 2.71204 24.1663 32.7479 18
624 2 2.27863 27.119 24.4964 20
625 2 13.5693 33.1737 29.0852 21
626 2 20.68 14.2287 6.43608 21
627 2 30.3644 1.36304 30.0714 22
628 2 31.4432 6.72346 24.3368 20
629 2 20.0172 26.7807 20.4099 22
630 2 15.0854 10.9272 32.3617 23
631 2 0.740732 1.12294 16.2443 21
632 2 8.37452 1.48895 34.6633 23
633 2 27.3579 30.2583 30.4182 21
634 2 31.6955 14.3459 29.5491 22
635 2 12.5426 22.0803 21.0567 20
636 2 17.9165 28.4433 19.414 21
637 2 12.8737 10.1022 29.3367 22
638 2 3.51001 6.82399 20.3031 21
639 2 20.5872 16.275 41.0866 22
640 2 10.5859 6.68697 17.9074 19
641 2 21.7143 6.23113 30.483 24
642 2 0.970529 25.0508 2.55793 22
643 2 22.134 27.6335 55.5934 20
644 2 3.41583 4.52424 11.5226 18
645 2 24.9225 29.3236 51.1913 19
646 2 23.6981 13.5755 28.5633 20
647 2 17.0945 19.6961 22.4259 22
648 2 5.74229 25.9467 21.0953 18
649 2 14.9095 33.3329 23.1188 23
650 2 19.741 6.76906 16.29 21
651 2 17.112 16.0416 8.73246 19
652 2 12.2833 14.2608 5.63378 21
653 2 11.6799 26.5501 28.7877 21
654 2 18.6049 26.2143 55.7361 24
655 2 29.4034 19.6807 12.6751 20
656 2 9.23843 17.4516 26.3003 18
657 2 11.2678 4.0635 34.2911 19
658 2 22.1397 11.7993 24.1287 21
659 2 7.9467 21.774 30.3817 19
660 2 15.2563 2.16991 22.6462 18
661 2 23.6778 3.28763 23.451 20
662 2 15.7538 7.24286 25.2519 22
663 2 31.8143 12.2307 31.6189 22
664 2 11.9475 25.0409 35.1794 19
665 2 8.44063 12.9839 27.609 22
666 2 31.9271 25.7423 16.5935 20
667 2 18.2032 16.1355 17.2775 20
668 2 24.2475 29.6247 29.8445 22
669 2 21.1357 15.4016 35.1263 21
670 2 15.2144 21.0688 32.6436 23
671 2 4.98919 11.3479 27.7781 23
672 2 1.89204 8.37135 16.2887 19
673 2 8.5618 7.33439 12.9962 19
674 2 4.25463 1.85681 12.8259 22
675 2 2.17979 16.7575 35.9474 20
676 2 32.4793 7.94678 27.1761 23
677 2 7.60983 20.4913 5.3347 20
678 2 0.979765 24.3577 28.0154 20
679 2 26.8541 5.6344 17.8827 26
680 2 12.1136 12.1218 18.7931 23
681 2 2.3735 31.6409 46.7339 18
682 2 18.1999 27.9533 22.4969 20
683 2 19.618 18.0555 19.206 19
684 2 7.70447 3.02021 4.71765 24
685 2 8.44455 2.70191 25.6824 18
686 2 17.4519 10.749 50.4032 17
687 2 11.8569 25.5853 26.1789 19
688 2 2.56385 9.03853 22.075 21
689 2 25.9807 24.1854 32.2996 19
690 2 28.4315 0.392672 27.4952 24
691 2 1.74225 3.36284 14.7354 23
692 2 24.4671 23.1605 25.6166 20
693 2 11.0337 21.4178 25.4219 20
694 2 17.1872 16.2887 22.422 22
695 2 9.2209 22.4807 15.9494 21
696 2 24.8877 2.517 56.1424 20
697 2 4.10323 33.9779 19.0791 22
698 2 13.4879 6.05 16.1577 20
699 2 16.6107 5.48179 15.9316 21
700 2 8.65999 13.9904 8.00916 24
701 2 19.9443 29.2401 8.01182 20
702 2 10.2358 9.67771 34.0866 22
703 2 29.1596 7.27236 14.1273 21
704 2 7.45728 14.4255 33.398 22
705 2 21.2068 7.67387 27.1986 19
706 2 24.6509 14.1902 23.7636 21
707 2 7.89827 27.3674 22.3481 20
708 2 16.8821 29.2896 29.9074 21
709 2 27.6612 30.2382 62.4204 22
710 2 15.6107 23.5823 14.9087 20
711 2 20.7697 9.82452 13.3121 19
712 2 14.1583 21.0486 27.3943 20
713 2 7.3507 14.0814 24.6207 21
714 2 10.972 27.6812 23.5744 21
715 2 4.62014 26.0048 24.5752 16
716 2 24.6661 16.1668 36.4448 22
717 2 20.9294 10.3377 22.149 20
718 2 14.9496 26.7273 24.7665 23
719 2 20.5365 1.68755 29.334 20
720 2 11.7364 3.09981 19.3291 19
721 1 14.4847 28.9109 56.159 18
722 1 1.15948 17.8979 62.6583 22
723 1 9.15211 14.7836 53.9629 20
724 1 20.3727 16.1544 7.03429 20
725 1 10.9152 29.9436 6.40519 20
726 1 12.9951 11.2498 57.1269 20
727 1 4.81381 17.9698 25.1327 18
728 1 15.3426 9.10869 16.2274 23
729 1 3.65974 29.5697 19.8899 21
730 1 20.1226 9.1461 19.4403 24
731 1 8.0525 25.4323 10.7174 19
732 1 5.50978 22.8074 8.9735 21
733 1 23.3388 0.530455 3.93703 22
734 1 21.8116 18.0406 4.5458 20
735 1 12.2341 27.4211 5.74629 20
736 1 3.49363 5.13712 25.8568 19
737 1 31.0149 17.1054 2.33485 20
738 1 12.8112 27.3195 1.99313 22
739 1 10.1187 26.4579 2.11087 23
740 1 2.21465 23.3425 0.42709 23
741 1 27.3655 33.6778 8.57951 24
742 1 30.5805 6.75052 12.7827 20
743 1 9.76901 26.1935 22.1824 18
744 1 24.7788 21.9478 27.0801 20
745 1 27.3959 4.49122 5.38437 24
746 1 26.2483 24.0873 18.6741 17
747 1 7.13089 31.2314 10.1854 19
748 1 24.9172 3.72325 3.40114 23
749 1 2.17621 21.1919 6.74055 24
750 1 2.06735 1.26666 52.9954 19
751 1 4.98414 29.845 3.08938 21
752 1 20.4283 5.45596 8.08022 20
753 1 21.9393 31.036 3.20365 20
754 1 22.832 28.9066 1.21422 18
755 1 8.43083 5.39149 14.684 20
756 1 1.11012 32.0336 63.2078 21
757 1 26.6379 24.2458 4.84187 25
758 1 31.0683 3.43013 5.98249 22
759 1 14.2401 15.6494 40.4671 23
760 1 24.4317 10.3424 10.4759 22
761 1 25.4294 30.6901 11.9212 19
762 1 13.3053 12.6412 0.823123 19
763 1 8.66157 21.0813 17.022 19
764 1 2.97109 7.13782 0.852216 21
765 1 10.9536 30.0783 11.4335 21
766 1 18.2654 18.5673 8.11647 23
767 1 14.4815 9.86951 9.64692 20
768 1 0.719854 23.7229 6.89348 22
769 1 19.0411 25.9483 46.149 22
770 1 13.5594 23.3483 2.1662 20
771 1 32.238 16.8456 11.3267 23
772 1 31.7965 8.59369 19.3565 22
773 1 2.13184 28.4344 3.3548 22
774 1 25.6154 17.011 10.8033 17
775 1 30.3539 26.9154 26.7575 18
776 1 11.5254 1.06637 23.719 18
777 1 26.5735 30.3087 32.4347 21
778 1 15.3286 31.2162 2.9082 20
779 1 18.9773 20.043 15.2736 23
780 1 4.20497 33.3965 2.1598 20
781 1 18.6543 28.9406 63.9989 21
782 1 6.33431 15.6209 64.2416 22
783 1 31.0427 12.4619 10.1553 19
784 1 21.5782 10.6127 4.80342 20
785 1 15.4389 16.8274 59.8988 18
786 1 5.61607 14.089 61.1835 23
787 1 30.9584 24.7884 12.7115 23
788 1 0.318716 0.269149 18.5561 21
789 1 19.8499 28.0256 1.83541 23
790 1 31.5087 29.8379 60.597 18
791 1 9.02476 26.7108 15.4613 20
792 1 4.26409 5.45086 20.7922 21
793 1 7.83809 22.3264 5.62137 21
794 1 7.01771 5.72016 18.6612 20
795 1 18.9161 7.51871 9.29321 21
796 1 17.0202 21.1249 5.83112 20
797 1 32.5454 15.4553 23.2386 22
798 1 6.62994 8.89155 9.75546 22
799 1 11.9532 1.07858 14.9133 22
800 1 1.07511 29.0048 19.9931 19
801 1 3.49839 25.8736 8.9468 21
802 1 12.4952 17.2043 58.33 22
803 1 26.7513 13.5058 6.3668 20
804 1 19.173 17.0174 4.97198 21
805 1 31.9783 20.1546 58.8093 21
806 1 4.98687 27.0895 11.8029 19
807 1 14.0743 22.6908 -0.723825 25
808 1 11.0205 28.2253 61.2216 20
809 1 7.7523 8.88239 0.932074 20
810 1 5.86492 2.65623 20.7611 20
811 1 11.6413 3.36192 4.32168 21
812 1 1.64883 23.2966 3.82379 22
813 1 0.298076 0.0448083 64.1143 17
814 1 31.6425 16.5931 17.2958 25
815 1 7.52042 11.0758 15.0104 20
816 1 27.7716 23.5724 14.9178 20
817 1 4.13282 4.53527 59.4883 21
818 1 9.05703 25.7618 5.26222 22
819 1 1.59887 17.1259 14.2346 25
820 1 24.4561 2.42699 50.5596 20
821 1 30.3734 31.2537 3.79265 24
822 1 18.7075 28.0334 24.7208 21
823 1 28.9645 23.197 12.2103 21
824 1 15.1207 26.1097 4.39782 23
825 1 2.55257 10.243 1.31429 21
826 1 15.4279 1.52671 15.7319 21
827 1 20.5015 23.1098 21.352 22
828 1 31.1974 19.3792 12.1908 21
829 1 6.03037 16.0759 22.8661 20
830 1 22.9901 10.4166 14.6573 19
831 1 11.7056 14.6338 45.731 23
832 1 10.7873 7.88665 62.9853 20
833 1 9.14902 1.82804 4.50843 17
834 1 3.9275 11.8412 54.232 20
835 1 8.14323 23.2441 22.5828 20
836 1 2.55275 13.7258 24.0578 21
837 1 18.5556 21.412 13.0626 21
838 1 3.96251 19.4652 8.91151 21
839 1 20.2051 1.64048 31.2406 23
840 1 8.6875 6.05077 7.86092 24
841 1 17.3765 7.8577 57.8694 21
842 1 1.79823 4.00516 6.02029 21
843 1 18.9913 23.9591 55.6716 19
844 1 26.2121 12.2224 54.6244 20
845 1 6.80206 28.8289 21.5148 21
846 1 13.4895 33.8337 1.68723 24
847 1 1.05409 16.1666 5.57725 22
848 1 7.35881 22.1858 0.524352 18
849 1 11.9334 22.7146 24.034 20
850 1 6.90977 33.716 13.4009 22
851 1 10.3251 22.324 14.0706 18
852 1 10.8318 13.114 54.8584 18
853 1 8.3417 32.3517 6.24831 18
854 1 13.2649 33.6073 57.6175 18
855 1 11.8952 21.0928 8.24802 22
856 1 20.6341 33.1512 5.20822 20
857 1 15.2998 -0.148803 11.7823 21
858 1 16.0799 28.5388 3.11758 20
859 1 3.71863 15.5578 21.7293 23
860 1 7.93256 21.0838 8.72593 19
861 1 16.0693 25.3611 21.5533 21
862 1 18.6872 30.4755 15.5371 23
863 1 13.9036 23.8215 20.7951 22
864 1 10.6156 29.5352 1.03346 21
865 1 3.86793 32.8781 62.4766 24
866 1 17.6944 17.989 53.5053 19
867 1 31.4277 26.3135 58.1456 22
868 1 13.6764 20.0185 63.7534 24
869 1 25.6652 21.4291 -0.317932 20
870 1 18.32 26.6896 19.2404 26
871 1 3.46893 23.4752 6.55163 24
872 1 27.1139 18.8613 1.07137 18
873 1 27.1887 17.9384 61.3426 19
874 1 24.4846 23.1709 9.30802 22
875 1 10.8731 11.9974 14.07 22
876 1 15.8446 6.6187 1.91109 21
877 1 9.72951 24.1264 61.819 22
878 1 4.72627 21.6186 18.4369 21
879 1 20.2728 24.5691 62.3443 18
880 1 3.50388 25.719 4.28417 21
881 1 13.7177 31.3958 16.0285 20
882 1 24.1794 14.3012 11.0893 21
883 1 17.7947 0.883274 9.38065 20
884 1 2.23603 4.51395 2.71489 21
885 1 16.7683 27.7228 56.9734 18
886 1 32.3973 2.81674 3.4705 19
887 1 25.8705 19.8706 9.30991 21
888 1 11.6968 32.4426 17.2728 20
889 1 12.8257 10.0991 7.1469 21
890 1 13.3112 23.3933 9.24775 20
891 1 9.39761 12.7113 60.0801 20
892 1 16.4772 23.5102 10.6149 23
893 1 21.562 8.35543 9.65998 22
894 1 16.4211 27.4575 7.5893 19
895 1 22.0362 16.7431 11.7192 21
896 1 28.7429 20.9596 20.9511 18
897 1 14.9171 4.37585 5.577 22
898 1 6.23205 2.39955 8.88015 16
899 1 14.2791 0.0212341 17.8416 19
900 1 12.3788 19.5222 16.4379 20
901 2 29.5392 23.5292 13.8631 22
902 2 28.885 13.3954 62.9466 19
903 2 5.57124 23.2552 58.2518 20
904 2 8.5427 23.3685 60.4625 22
905 2 22.9792 25.3282 25.9964 17
906 2 11.5586 22.8514 9.53599 21
907 2 29.869 22.5251 62.6644 20
908 2 17.2248 7.93529 13.8758 20
909 2 32.0494 25.3509 30.7924 22
910 2 4.59472 14.6599 11.6143 18
911 2 3.28654 34.2406 15.5528 21
912 2 21.2239 15.289 15.4069 19