ITEM: TIMESTEP
123000
ITEM: NUMBER OF ATOMS
5760
ITEM: BOX BOUNDS pp pp pp
0.0095543438 32.7904456562
-0.6916333111 34.8316333111
0.5201482758 63.0798517243
ITEM: ATOMS id type x y z Coordination
1 1 11.7059 19.2961 17.8754 17
2 1 7.10855 28.3853 5.61876 22
3 1 29.7605 3.99731 61.1235 21
4 1 2.86668 3.30056 52.0966 22
5 1 14.6081 29.6108 6.67768 17
6 1 29.0771 11.667 50.4413 19
7 1 0.101353 20.4036 18.9585 21
8 1 14.7899 -0.352518 44.9525 19
9 1 32.4638 27.5035 4.35869 22
10 1 1.64569 19.7587 9.45786 20
11 1 28.84 12.1665 3.39742 22
12 1 12.0504 15.3068 26.2335 22
13 1 31.4528 30.3294 2.45561 23
14 1 6.17897 2.20344 39.7936 18
15 1 7.55966 17.5314 9.3027 17
16 1 21.3801 10.2383 9.61633 23
17 1 30.8546 9.33163 62.7693 23
18 1 16.9087 13.9521 2.66509 19
19 1 16.9371 28.3482 12.2772 19
20 1 2.25522 11.3349 6.22991 22
21 1 24.7019 34.4876 19.1816 19
22 1 11.4633 25.08 36.0369 22
23 1 29.6352 8.2381 46.9042 21
24 1 4.84965 -0.789448 24.3522 21
25 1 8.86202 20.1151 0.652097 20
26 1 26.1175 25.0653 45.4201 22
27 1 29.2544 30.5524 59.5852 22
28 1 17.8194 4.40004 47.4384 21
29 1 32.6596 25.2984 12.3075 23
30 1 17.7737 5.4106 0.770046 21
31 1 7.01514 22.5006 22.2355 20
32 1 2.20142 3.96191 7.61218 19
33 1 14.9754 21.8866 8.03968 22
34 1 23.4791 0.528445 28.0115 22
35 1 14.8973 1.02906 23.8415 20
36 1 22.793 25.0632 59.159 20
37 1 5.58113 14.2269 45.6663 23
38 1 7.44064 13.008 7.61931 19
39 1 30.1213 33.2172 13.0603 20
40 1 6.90202 21.5651 12.3836 17
41 1 17.7659 11.2545 5.97468 23
42 1 24.3707 34.2096 31.1621 20
43 1 30.8176 2.8595 10.7005 21
44 1 29.5868 5.16871 10.3197 22
45 1 17.384 23.9066 8.30084 20
46 1 4.57109 14.8922 26.6081 20
47 1 8.88679 2.55382 28.0648 18
48 1 23.0042 4.68129 62.8827 22
49 1 4.86922 11.6852 1.15423 19
50 1 30.8561 9.7114 18.2516 18
51 1 11.2725 2.01817 61.3536 20
52 1 5.52982 20.5506 24.1174 23
53 1 18.7147 34.2931 17.354 20
54 1 3.70626 7.94571 13.0201 21
55 1 27.7139 20.9855 10.8209 20
56 1 12.6867 8.2946 53.745 19
57 1 7.19682 13.6546 48.0052 20
58 1 19.0004 22.6522 48.7157 18
59 1 17.8696 31.4013 25.778 19
60 1 31.315 11.1166 39.8572 23
61 1 23.2053 25.7088 7.0557 19
62 1 19.72 28.0115 51.0913 22
63 1 6.46369 21.4736 27.8778 20
64 1 6.12761 23.4926 8.52588 20
65 1 22.973 23.7445 15.825 19
66 1 14.5524 29.8476 46.3107 23
67 1 20.3061 10.2577 21.0213 21
68 1 10.8731 11.7693 6.77149 23
69 1 0.5681 17.6425 14.4186 25
70 1 15.5548 24.4948 56.8654 22
71 1 29.476 23.1418 8.64316 19
72 1 21.9549 8.22246 29.5049 18
73 1 32.2188 0.841842 52.7531 18
74 1 8.22009 15.7315 30.4479 17
75 1 18.8784 31.3097 52.6541 23
76 1 30.7789 32.7899 4.71102 19
77 1 11.119 32.4187 29.591 24
78 1 23.1064 12.6903 9.77764 23
79 1 29.7745 -0.0256557 61.7197 18
80 1 13.4086 13.6866 58.2994 20
81 1 28.8265 0.895156 6.55744 19
82 1 2.96688 27.9172 39.5289 20
83 1 15.3498 33.2717 16.3635 21
84 1 6.31418 11.7714 21.426 21
85 1 13.0282 15.0752 46.6451 22
86 1 4.75835 19.6059 38.9495 21
87 1 18.1644 0.389815 14.0273 22
88 1 16.5814 0.481645 50.3235 19
89 1 11.8259 25.2657 9.43545 19
90 1 19.8772 33.2599 1.63583 21
91 1 5.37366 2.3082 53.7152 19
92 1 4.99302 31.8989 12.035 24
93 1 21.5995 4.89622 13.0318 22
94 1 11.0083 5.07012 30.8438 20
95 1 2.60028 33.8942 13.5168 22
96 1 19.5269 18.4416 10.3113 23
97 1 9.68383 6.82815 9.46263 21
98 1 10.7727 19.9556 20.0016 17
99 1 20.6514 28.957 8.12362 26
100 1 12.6195 20.3772 43.4725 20
101 1 31.878 13.4876 10.465 21
102 1 25.7293 5.20662 7.80106 20
103 1 1.29045 21.3458 1.58268 20
104 1 21.3596 16.203 56.9 18
105 1 31.8839 4.08474 35.7672 19
106 1 28.3608 9.76942 23.3386 22
107 1 1.48706 18.3694 3.2897 21
108 1 28.0169 23.1339 18.6765 18
109 1 1.42444 4.33773 43.5381 20
110 1 10.5752 31.8225 12.818 21
111 1 30.8945 17.5634 61.0414 18
112 1 22.6868 28.581 4.47102 21
113 1 25.483 31.8374 11.9667 22
114 1 5.79188 18.264 16.2525 22
115 1 14.8542 20.5481 18.461 21
116 1 14.7819 5.65308 22.662 19
117 1 6.49966 20.0539 59.795 19
118 1 26.9595 13.5576 25.0623 18
119 1 13.0426 34.698 17.9807 20
120 1 6.12181 31.2396 24.1763 21
121 1 7.63184 4.08099 46.7035 14
122 1 27.5397 3.60193 42.609 22
123 1 1.76271 32.4281 6.87722 18
124 1 6.83425 20.0277 9.81527 24
125 1 15.5332 26.9759 15.2057 22
126 1 15.1134 9.85901 62.0612 22
127 1 27.752 21.8132 15.664 19
128 1 19.0563 17.5283 6.6492 24
129 1 8.93049 18.4475 59.2761 18
130 1 9.59007 33.2784 3.59561 19
131 1 17.8583 10.2387 16.24 16
132 1 32.7197 13.4315 34.7642 21
133 1 29.4373 18.0705 26.2678 20
134 1 10.8853 22.968 12.0466 15
135 1 18.3307 17.0497 19.8155 23
136 1 25.3117 16.9355 1.2158 21
137 1 23.793 19.2744 51.1719 21
138 1 9.2154 26.334 7.27351 21
139 1 3.28583 10.0522 45.5332 23
140 1 32.634 11.9283 30.8311 22
141 1 2.57959 21.1701 7.26192 18
142 1 2.92098 26.7452 5.13231 22
143 1 25.5635 14.4586 60.6018 19
144 1 5.52639 30.2664 13.8225 22
145 1 25.5269 8.66306 42.5589 19
146 1 29.6436 29.1348 4.46364 22
147 1 19.8296 11.3977 11.7626 17
148 1 23.3737 4.16932 5.90168 20
149 1 1.01488 11.1768 52.2365 18
150 1 13.0733 12.5483 61.6096 20
151 1 13.4451 2.39065 58.1807 27
152 1 7.62067 32.172 11.5878 25
153 1 22.3778 30.1468 10.5029 23
154 1 23.1089 26.7616 10.1464 22
155 1 1.32471 2.07871 28.9242 21
156 1 24.7597 9.89355 13.3339 21
157 1 24.0226 0.587039 3.7441 20
158 1 32.291 15.7222 59.1113 19
159 1 4.90948 3.08975 45.7567 20
160 1 0.620807 28.2839 52.014 22
161 1 23.6362 26.1918 44.2123 21
162 1 3.08103 8.5415 1.80108 21
163 1 19.0844 8.60932 4.29188 22
164 1 24.6101 1.29399 22.4752 20
165 1 9.53884 34.292 60.5396 21
166 1 7.02823 27.6754 12.4382 19
167 1 22.5154 7.32249 13.9308 22
168 1 19.1575 24.5641 21.9503 19
169 1 12.0819 14.0032 14.4497 21
170 1 15.7174 21.8944 56.4529 24
171 1 2.85853 12.7547 3.24418 21
172 1 8.72357 24.7942 48.9465 23
173 1 12.6101 -0.00856671 6.93125 18
174 1 27.3635 22.6025 4.29489 18
175 1 20.1768 20.7495 61.1321 19
176 1 0.990902 25.8137 57.8756 21
177 1 8.98971 8.01194 19.4421 19
178 1 11.933 22.2532 10.1573 22
179 1 19.4625 31.1659 20.018 21
180 1 0.887547 12.1254 27.2001 20
181 2 9.42819 31.5921 19.9863 20
182 2 11.8694 26.3811 31.1719 22
183 2 25.1701 31.4031 2.55287 18
184 2 5.8541 28.4208 62.4255 17
185 2 11.1459 7.32727 12.8848 18
186 2 4.12834 3.20226 25.5328 22
187 2 21.5631 6.48947 0.814954 24
188 2 25.674 15.9332 2.91925 18
189 2 26.8021 26.8621 39.267 24
190 2 7.29103 14.6386 45.0392 20
191 2 9.56148 22.072 30.5293 22
192 2 8.40894 30.8704 10.1157 23
193 2 9.61686 18.1086 1.61276 16
194 2 30.6337 27.6504 9.9995 22
195 2 14.6254 0.399013 46.7858 22
196 2 8.58487 19.1596 4.62313 20
197 2 24.704 22.0639 11.7256 18
198 2 25.5971 14.8167 6.14293 19
199 2 25.8807 3.2101 24.844 19
200 2 5.10982 32.6227 24.8796 20
201 2 8.0659 23.5886 23.4375 21
202 2 21.7153 1.32094 0.600171 18
203 2 20.3672 13.6258 5.63961 22
204 2 16.7225 1.15482 61.7625 21
205 2 2.10704 12.6681 46.3527 21
206 2 0.374127 13.6157 9.16854 21
207 2 29.3999 27.5575 57.3332 22
208 2 20.976 26.8314 49.3956 19
209 2 30.2165 15.3636 22.5484 20
210 2 3.0114 13.2863 9.48936 18
211 2 32.1075 9.09024 61.5148 22
212 2 22.299 21.1913 61.3306 20
213 2 5.02549 13.6348 11.4147 20
214 2 30.8593 8.9521 27.3214 19
215 2 18.4447 15.3297 24.4161 20
216 2 29.1547 4.41093 62.8628 20
217 2 18.1254 13.8265 11.9626 20
218 2 20.0145 27.1431 27.5684 23
219 2 3.68628 29.6806 7.67096 21
220 2 6.75503 11.3413 16.5095 19
221 2 9.69596 28.1957 17.6636 18
222 2 25.2558 1.11424 27.4603 21
223 2 6.97341 28.9965 8.53661 24
224 2 32.0583 32.152 3.5148 22
225 2 25.8827 9.37158 8.90281 18
226 2 22.7718 1.61234 9.0834 20
227 2 22.5791 12.1643 32.9082 20
228 2 13.5569 11.4506 16.7408 19
229 2 27.9812 29.5286 58.8529 20
230 2 31.872 31.6962 23.7397 25
231 2 27.8385 16.672 23.3364 25
232 2 30.491 12.872 43.2886 22
233 2 16.5813 33.7919 60.8923 22
234 2 8.16873 33.2626 18.7338 21
235 2 3.92384 8.30712 6.70087 16
236 2 17.7588 13.2365 7.45928 20
237 2 20.4572 14.398 42.508 22
238 2 16.0964 5.98652 53.006 21
239 2 0.798965 21.2768 7.48786 20
240 2 11.4583 30.3091 12.768 20
241 2 3.2434 29.5817 16.0706 20
242 2 18.4161 24.8972 23.8788 18
243 2 15.7048 11.1313 49.8006 22
244 2 14.2823 9.26203 7.94636 20
245 2 2.41121 13.212 20.2216 19
246 2 17.0605 20.7871 57.232 23
247 2 31.4812 17.8318 18.3662 20
248 2 3.21764 18.7957 7.7183 18
249 2 2.54223 12.1918 12.6408 21
250 2 0.652715 17.5581 36.8693 20
251 2 1.05608 24.5497 28.2031 17
252 2 26.5432 24.3512 11.7977 19
253 2 20.2537 18.4931 52.4111 20
254 2 3.75362 2.17713 2.26589 22
255 2 15.9886 1.04309 56.7931 19
256 2 1.74356 34.3771 52.9716 21
257 2 15.1346 6.56135 30.2038 21
258 2 25.6921 22.9633 8.72594 19
259 2 19.5488 1.32687 4.14487 22
260 2 6.86116 17.1503 14.9616 18
261 2 17.3795 34.6822 21.9136 22
262 2 31.4364 34.8137 8.71783 19
263 2 6.21147 32.1001 13.5401 20
264 2 31.0762 11.7516 24.8543 18
265 2 15.6827 13.7377 16.5769 21
266 2 13.837 30.5354 15.3696 20
267 2 16.443 20.6218 60.891 21
268 2 7.89233 21.0358 57.2594 21
269 2 9.66237 29.2577 44.5166 21
270 2 16.2226 11.1685 17.9277 18
271 2 21.0168 19.7525 59.4157 16
272 2 30.058 10.9237 61.1441 21
273 2 24.2451 7.11885 58.3993 20
274 2 10.5684 0.106375 15.0004 20
275 2 10.8224 21.193 13.362 18
276 2 20.989 26.4288 10.9738 21
277 2 27.6126 -0.240418 1.92247 19
278 2 11.1433 7.32803 57.9397 19
279 2 30.9242 4.88405 19.0761 25
280 2 21.0618 11.0808 60.4192 22
281 2 15.8136 12.6435 3.78886 25
282 2 3.36856 5.02863 8.46977 18
283 2 18.2884 6.0564 60.5704 19
284 2 26.3224 26.1889 16.323 17
285 2 17.0406 1.11015 7.53173 20
286 2 17.5804 26.4675 5.37759 21
287 2 21.1553 13.7405 54.1465 23
288 2 26.242 11.0052 6.09321 24
289 2 21.6978 26.3585 60.3188 20
290 2 19.975 3.62183 9.58588 15
291 2 13.0585 10.1633 18.5946 19
292 2 1.57672 18.3911 12.8377 25
293 2 15.9424 30.8622 2.75703 19
294 2 22.3538 3.03838 33.8478 21
295 2 28.9276 10.0602 48.4108 22
296 2 30.1691 23.7796 21.0263 18
297 2 14.6506 13.2056 24.5031 21
298 2 3.8396 15.1353 21.5764 19
299 2 22.1279 17.0418 22.5176 19
300 2 13.6736 6.12267 57.8012 22
301 2 7.84733 16.7876 7.46623 22
302 2 8.65771 27.5942 11.0473 19
303 2 32.2211 32.6877 6.59512 19
304 2 0.0742267 5.57087 48.9055 22
305 2 16.3042 13.3375 13.9959 17
306 2 2.75592 33.5584 5.571 21
307 2 5.30715 34.8066 41.9691 20
308 2 21.2438 -0.208788 60.0765 21
309 2 11.4872 3.76543 24.4888 17
310 2 31.7371 29.812 63.0467 22
311 2 28.2386 8.36655 7.6412 20
312 2 29.8762 13.6885 19.6202 20
313 2 6.34053 27.4069 57.7405 18
314 2 13.2047 2.43121 62.7736 18
315 2 6.00971 32.5123 19.8701 20
316 2 17.168 8.79551 17.053 22
317 2 6.26884 22.2103 20.7238 22
318 2 25.4001 7.22779 34.088 18
319 2 5.06779 22.6726 23.9585 23
320 2 1.47176 7.14314 61.0795 21
321 2 14.7373 6.9701 16.4414 19
322 2 23.1457 13.7828 14.4255 22
323 2 10.6224 9.52764 15.5062 18
324 2 24.6674 14.4075 12.5413 20
325 2 8.20381 32.2096 2.99684 21
326 2 18.5705 32.9696 52.9282 20
327 2 15.4671 14.6461 8.58222 22
328 2 8.76087 31.2447 12.7923 25
329 2 16.8263 9.23622 9.05341 21
330 2 10.9452 18.9841 12.4938 18
331 2 15.3741 22.2784 4.31026 20
332 2 26.3831 6.35515 13.0683 23
333 2 25.1956 23.6009 56.0274 18
334 2 0.827531 11.8368 25.3112 19
335 2 15.1656 12.7224 19.7006 24
336 2 15.5382 4.90886 24.3283 18
337 2 10.2171 31.7009 27.7427 25
338 2 5.84334 9.41721 55.8726 18
339 2 10.3745 22.8216 9.42152 19
340 2 28.3781 1.42522 3.78506 19
341 2 22.118 10.848 7.65901 17
342 2 18.9013 20.4551 19.6366 20
343 2 11.6365 27.4212 4.06278 19
344 2 12.2771 5.84039 22.3196 21
345 2 3.80247 11.8699 58.0944 18
346 2 2.66397 8.70675 24.4204 18
347 2 23.2257 28.0045 1.27254 19
348 2 32.7541 -0.098498 24.7503 21
349 2 2.25381 10.7901 53.6392 19
350 2 5.73258 33.8443 16.1029 20
351 2 24.0559 4.45117 2.55529 20
352 2 13.1352 30.5422 60.4542 18
353 2 7.26614 31.5591 22.5873 22
354 2 25.2295 10.6109 62.1688 20
355 2 15.6303 23.5073 7.59611 19
356 2 18.103 29.5714 20.1964 19
357 2 20.3214 2.43063 20.1766 22
358 2 14.0901 30.5973 24.4523 20
359 2 6.73463 25.6806 60.771 23
360 2 7.42482 22.441 7.55316 21
361 1 2.74571 0.13407 31.1903 19
362 1 6.95511 13.1402 62.1134 19
363 1 23.6548 21.7026 33.5627 21
364 1 13.9224 24.5762 24.3414 20
365 1 27.8689 26.0801 30.8779 22
366 1 31.5407 5.58899 33.3356 22
367 1 3.6241 7.73999 15.6528 25
368 1 30.5908 25.8213 9.53407 22
369 1 9.50245 16.6391 37.2958 21
370 1 23.3203 24.561 13.4398 22
371 1 26.7442 -0.325101 8.27711 23
372 1 2.63933 14.2665 38.7753 20
373 1 22.5404 21.8926 13.8419 22
374 1 1.11248 8.37451 23.0925 18
375 1 10.1536 18.9903 9.62929 22
376 1 32.2594 23.9054 27.9535 18
377 1 23.6092 7.29843 31.7386 22
378 1 6.59477 1.46976 36.1085 21
379 1 30.0684 18.4095 29.1568 23
380 1 11.6583 17.9667 25.3732 22
381 1 18.0814 24.4643 34.2447 19
382 1 26.4092 18.996 35.7508 21
383 1 26.8749 14.4555 46.1413 20
384 1 20.6637 24.6495 11.6811 20
385 1 18.6103 16.3468 59.1186 21
386 1 6.38013 10.1613 14.8796 21
387 1 6.95133 5.19315 18.7163 18
388 1 8.95535 25.2151 20.4745 22
389 1 11.1823 2.02032 23.3263 23
390 1 17.2099 14.0581 23.7372 18
391 1 13.9846 2.46522 31.4448 18
392 1 3.34988 21.8422 32.1645 20
393 1 14.8719 25.5965 37.6094 21
394 1 12.6062 16.2381 15.5877 21
395 1 19.9453 13.5691 28.6576 20
396 1 20.3856 16.0642 21.6728 20
397 1 28.1266 4.4588 15.7605 22
398 1 12.4257 5.1895 56.4165 22
399 1 27.3224 2.93097 9.05301 25
400 1 25.5923 4.85932 23.4069 19
401 1 0.805133 32.7793 17.2647 22
402 1 17.4257 22.0768 12.1372 19
403 1 27.3959 14.6254 33.159 21
404 1 32.3827 28.2738 49.152 21
405 1 25.1503 26.7908 32.4602 21
406 1 25.9723 7.07195 20.1897 17
407 1 10.4663 21.6581 36.0395 17
408 1 17.5967 10.8552 62.2369 22
409 1 3.03559 28.0827 8.55161 23
410 1 10.9042 8.47891 34.8206 21
411 1 10.6789 18.8084 50.1316 19
412 1 30.3174 10.63 12.2524 19
413 1 32.4631 0.107926 30.8459 20
414 1 19.3293 23.1945 25.0744 20
415 1 2.84773 3.84418 24.4764 22
416 1 17.1321 8.52328 28.813 18
417 1 19.5026 8.34097 24.0397 21
418 1 12.9573 16.4745 29.3165 24
419 1 11.2616 21.1727 25.4965 21
420 1 16.347 0.88871 21.2837 17
421 1 13.2772 28.9803 19.6819 17
422 1 19.2532 4.28774 16.0498 22
423 1 17.3202 12.0392 12.6894 18
424 1 6.89721 32.7645 61.1009 21
425 1 5.83757 25.947 39.7406 24
426 1 30.2038 17.3986 22.2954 21
427 1 30.7508 9.96858 21.0421 20
428 1 5.24772 14.6445 16.6397 21
429 1 23.6205 28.678 7.315 21
430 1 10.8374 22.137 16.5038 21
431 1 10.6342 29.954 28.0271 23
432 1 27.8617 11.43 57.0327 22
433 1 11.6843 18.0019 60.7366 17
434 1 23.2139 15.4692 11.614 23
435 1 23.3401 5.14328 19.7009 19
436 1 27.6251 12.5931 28.3456 19
437 1 30.4479 21.9942 26.3603 22
438 1 14.3372 6.76255 18.3519 19
439 1 19.0473 1.84356 41.8807 22
440 1 25.3994 24.9738 47.8991 21
441 1 22.5842 0.113449 9.99759 21
442 1 24.1711 2.6903 47.0599 23
443 1 17.017 -0.54026 38.0269 20
444 1 7.42381 15.338 33.4672 20
445 1 24.045 1.66421 19.3357 23
446 1 18.7121 17.1466 16.1042 21
447 1 5.45487 4.95682 16.1016 22
448 1 13.4279 14.431 18.6701 20
449 1 28.8789 33.5047 7.11632 21
450 1 5.04817 8.04768 30.3892 21
451 1 30.1821 27.3853 32.9951 21
452 1 1.24794 1.4481 57.5823 17
453 1 21.9107 24.7173 53.0945 20
454 1 9.72652 25.8587 28.1059 19
455 1 27.5348 8.81111 29.8132 20
456 1 17.3556 9.66913 22.945 18
457 1 27.199 10.1818 7.48464 25
458 1 10.6358 31.6833 32.8231 20
459 1 25.3631 2.93578 16.4565 19
460 1 21.6728 23.2545 61.614 21
461 1 20.1354 24.0308 28.5413 21
462 1 1.25348 3.75517 40.3132 20
463 1 16.1717 18.5128 7.37221 23
464 1 11.0204 19.5604 14.4158 20
465 1 1.02828 27.6236 22.6778 20
466 1 15.2457 6.1729 28.1672 22
467 1 19.769 30.952 10.7979 21
468 1 23.1021 30.6532 1.51954 21
469 1 4.82944 9.8045 7.14212 19
470 1 5.09905 1.42005 25.6231 19
471 1 7.00098 7.36534 25.7392 23
472 1 21.3531 5.67334 31.7857 23
473 1 22.6024 17.2908 17.2069 18
474 1 16.697 27.5123 32.134 20
475 1 4.79281 32.8041 21.8776 22
476 1 13.104 31.4895 17.2581 21
477 1 22.085 18.0375 20.5671 20
478 1 6.13618 -0.019643 43.6546 19
479 1 26.562 8.29037 35.2982 20
480 1 18.2332 21.5096 36.0493 22
481 1 17.064 25.8424 20.6426 20
482 1 1.77225 5.35218 12.9191 20
483 1 0.712081 10.5275 2.1164 21
484 1 6.78871 12.8046 18.0711 20
485 1 0.25841 26.4935 19.605 18
486 1 30.9356 6.58393 29.7566 21
487 1 30.2913 6.69273 19.0586 20
488 1 17.8099 9.25173 58.0424 22
489 1 17.4158 34.5763 3.48577 21
490 1 7.1223 8.27825 59.0236 23
491 1 8.75436 3.16778 23.0169 18
492 1 21.834 13.9359 33.1869 23
493 1 15.6977 9.64479 59.7312 20
494 1 16.9575 8.80457 13.8091 20
495 1 17.2251 11.1495 56.0922 21
496 1 11.0389 5.5165 34.0162 19
497 1 29.2092 1.54655 26.5599 18
498 1 31.0891 8.29397 41.8584 18
499 1 22.4304 3.88688 16.5773 24
500 1 31.9123 26.2445 29.9917 21
501 1 9.83567 16.6115 27.3961 20
502 1 4.44291 19.6101 11.7702 22
503 1 25.8952 15.2785 30.5258 19
504 1 19.4133 7.90378 19.3673 21
505 1 6.74434 27.1791 26.6304 19
506 1 13.481 10.5264 14.9359 19
507 1 20.4724 14.4589 40.2285 23
508 1 22.1931 21.6663 11.037 21
509 1 22.5282 23.2055 8.15774 20
510 1 18.1666 33.8715 20.4355 20
511 1 29.2342 7.90977 26.5548 22
512 1 4.20239 6.26871 10.1714 21
513 1 10.6129 32.1909 48.7489 20
514 1 5.21272 9.15378 25.5317 21
515 1 10.3555 19.2859 37.7164 22
516 1 15.8346 27.5074 26.4706 18
517 1 6.31097 14.7842 10.3569 21
518 1 27.958 4.65229 1.71214 24
519 1 6.16758 7.44358 17.8783 23
520 1 29.9853 22.831 29.8571 21
521 1 9.39165 20.0116 12.7262 19
522 1 30.5565 7.58403 13.2452 19
523 1 7.12458 -0.184088 16.3896 21
524 1 31.7212 5.26955 7.9286 20
525 1 28.4371 0.876019 30.7294 20
526 1 1.80934 28.6879 36.3893 20
527 1 8.91551 10.7349 25.3955 20
528 1 0.390457 34.524 46.5652 22
529 1 31.8211 7.3439 2.7719 22
530 1 10.8843 6.43824 2.45298 21
531 1 25.8778 -0.132092 37.0583 21
532 1 18.9041 2.96098 0.695493 21
533 1 13.5156 15.0682 10.2861 23
534 1 26.1876 30.3155 16.873 22
535 1 4.5788 20.0534 17.4424 21
536 1 5.0738 15.4118 1.46767 19
537 1 11.862 8.03044 32.2213 19
538 1 1.66919 14.6456 13.8819 19
539 1 4.50026 8.35293 34.0707 20
540 1 3.91031 22.1884 25.9754 19
541 2 2.72198 30.2981 48.2138 21
542 2 16.8268 15.5558 19.5821 22
543 2 25.1236 21.5141 46.372 25
544 2 28.9613 11.4142 21.9457 23
545 2 18.9644 17.8164 8.85921 20
546 2 13.9579 28.9849 42.8763 16
547 2 19.4017 20.2556 35.5507 21
548 2 10.8625 33.6547 44.0164 20
549 2 31.691 26.3688 41.3944 21
550 2 15.263 21.2913 11.512 19
551 2 25.5987 15.9824 49.1355 19
552 2 23.4759 33.2822 40.4537 20
553 2 5.68182 34.7813 22.8351 21
554 2 10.3696 1.82231 0.574342 20
555 2 24.4134 21.874 39.1546 20
556 2 32.077 10.8672 17.4251 19
557 2 20.6295 15.4227 19.8285 22
558 2 22.7849 33.4567 19.1888 19
559 2 7.81976 17.222 29.3086 16
560 2 17.5126 31.6355 34.0132 19
561 2 22.5085 15.536 40.6254 23
562 2 21.7682 15.1111 34.6235 20
563 2 32.4832 3.34735 23.8476 20
564 2 0.871244 27.3565 35.5609 19
565 2 20.8623 11.7255 26.9991 20
566 2 10.6305 30.4126 37.8518 20
567 2 16.8763 2.50383 19.8304 21
568 2 18.6699 23.9921 26.8246 22
569 2 7.37618 1.39702 1.41562 23
570 2 27.9663 32.2115 20.4683 18
571 2 30.3548 8.36858 30.3634 19
572 2 17.5418 12.0946 60.4257 23
573 2 7.46949 17.3183 44.1682 22
574 2 1.87383 30.0925 34.7461 18
575 2 1.66391 26.2652 23.904 20
576 2 4.8672 17.9241 30.3359 21
577 2 20.9185 26.7053 23.7085 20
578 2 20.8448 20.7182 38.0411 21
579 2 28.1298 28.9299 36.1544 21
580 2 8.73366 13.6055 63.1682 18
581 2 10.7734 24.8506 29.1711 21
582 2 7.84405 4.6466 21.5443 17
583 2 5.75834 23.0366 16.7037 21
584 2 2.86532 14.8042 26.4042 21
585 2 9.16538 30.8636 35.1652 20
586 2 3.57537 18.0994 10.5097 18
587 2 9.51242 21.0108 40.5387 21
588 2 14.2255 32.79 21.7976 19
589 2 19.1999 32.5788 24.5595 23
590 2 12.386 30.3496 8.95932 17
591 2 8.30154 27.0663 20.6753 22
592 2 17.9787 18.463 26.4746 18
593 2 22.2663 25.4127 35.5859 20
594 2 15.98 3.23179 40.4223 22
595 2 26.5411 11.8607 3.51744 19
596 2 10.6625 18.7764 59.4693 19
597 2 7.07786 0.973735 30.6441 24
598 2 22.3695 3.47586 51.2786 22
599 2 16.928 8.29491 21.1034 18
600 2 7.58207 3.71926 35.838 18
601 2 13.6576 6.32408 49.9376 22
602 2 15.5005 14.2518 52.6366 24
603 2 12.2429 27.5284 33.3889 21
604 2 7.58853 11.0116 3.9738 21
605 2 16.6575 17.5245 36.4057 19
606 2 6.63976 23.2637 45.9995 19
607 2 23.1825 10.64 19.7628 21
608 2 28.7863 18.0568 13.6151 20
609 2 26.8415 20.825 36.0193 19
610 2 24.3444 23.4015 29.2912 19
611 2 12.561 8.90812 48.2857 20
612 2 30.2808 -0.0145077 31.4028 17
613 2 25.9861 3.49222 18.3653 19
614 2 0.742372 19.7578 28.6238 21
615 2 23.7219 25.8006 49.2053 23
616 2 26.9712 -0.514933 14.5278 18
617 2 7.81136 10.6533 10.9282 17
618 2 0.510293 8.25617 29.6792 22
619 2 15.7886 5.14744 18.9563 21
620 2 5.61426 7.03776 31.9572 15
621 2 2.52979 28.8514 22.7909 19
622 2 8.21509 32.7645 59.6519 19
623 2 9.32561 11.7031 30.7911 22
624 2 5.13585 28.8778 18.6167 22
625 2 9.22627 16.9144 32.1564 20
626 2 31.2839 14.8131 3.63099 20
627 2 18.6639 31.5645 31.5833 18
628 2 27.4399 9.05377 32.7732 22
629 2 20.5497 0.25666 25.7976 20
630 2 19.3966 7.11136 22.6055 20
631 2 4.00392 2.86791 29.2139 22
632 2 9.30252 15.2623 19.5415 21
633 2 31.7617 29.987 26.5347 15
634 2 29.4334 18.0714 31.9943 20
635 2 17.7958 -0.477657 25.2012 20
636 2 23.7585 32.3463 11.142 25
637 2 10.4019 12.0038 11.8005 20
638 2 2.43864 10.0033 19.8594 21
639 2 22.4349 18.9349 39.9914 21
640 2 9.91422 34.4553 1.90859 23
641 2 19.8329 34.673 20.3141 20
642 2 21.406 28.1879 14.321 19
643 2 11.0869 21.3633 57.5105 17
644 2 26.7028 1.20677 9.92218 24
645 2 22.1958 34.8095 37.8562 24
646 2 25.6143 4.40804 59.6112 19
647 2 26.632 25.5769 22.5724 16
648 2 0.485513 17.8263 4.69061 22
649 2 16.6264 21.2093 8.32859 21
650 2 22.8217 9.31558 13.738 23
651 2 26.0319 11.3759 14.0931 20
652 2 8.45286 6.33696 8.30725 16
653 2 3.24649 27.2591 26.4441 25
654 2 26.4348 28.1642 52.9686 21
655 2 17.3053 10.3625 29.2983 20
656 2 18.4411 23.8772 32.4848 20
657 2 13.5613 17.8319 28.3618 18
658 2 21.1676 10.5034 34.5786 20
659 2 26.2491 24.1573 27.6453 21
660 2 18.4386 5.8163 19.6385 20
661 2 30.567 33.6773 25.0517 18
662 2 22.8298 7.98321 27.6286 18
663 2 1.97536 2.64182 15.7062 22
664 2 30.9634 27.728 30.8163 21
665 2 10.6648 18.7269 29.8794 20
666 2 3.97307 29.1449 13.4538 23
667 2 12.4759 2.57788 20.0786 20
668 2 30.146 29.8939 19.5246 19
669 2 11.8117 17.5958 37.2567 20
670 2 12.3907 14.8632 21.5537 22
671 2 1.59958 0.238573 21.7687 20
672 2 27.5417 20.3013 31.9123 21
673 2 18.5988 30.5804 8.93946 21
674 2 7.86875 1.34995 17.843 18
675 2 12.6939 14.966 42.3129 22
676 2 24.8319 1.11144 33.5293 23
677 2 4.26794 22.0077 8.04592 20
678 2 3.38744 32.7892 39.7365 22
679 2 26.2485 33.8435 25.3865 21
680 2 10.7602 24.4339 17.2595 21
681 2 10.5963 9.17335 36.6006 24
682 2 9.50158 2.49541 30.2932 19
683 2 22.3847 20.276 34.2325 21
684 2 5.51908 2.65657 12.9264 21
685 2 29.1891 6.85209 14.4356 17
686 2 18.4592 11.5179 48.1424 21
687 2 20.5219 29.7087 19.6134 18
688 2 26.4249 5.59267 15.8401 20
689 2 22.1452 27.0275 32.9171 21
690 2 26.2371 31.6137 37.7162 25
691 2 30.7547 1.85623 1.99678 21
692 2 29.4597 26.8369 27.8415 18
693 2 5.75828 16.1359 23.6042 19
694 2 8.91865 28.9576 5.63054 19
695 2 1.67312 18.629 15.8654 23
696 2 27.754 13.1988 39.9357 21
697 2 8.60199 23.2822 21.3725 19
698 2 18.4828 13.2766 19.1703 20
699 2 16.6414 2.49871 1.96805 20
700 2 5.66162 19.448 2.76177 21
701 2 11.0333 27.07 14.7856 20
702 2 24.1013 18.8973 21.5266 20
703 2 1.55854 4.6847 17.2422 21
704 2 1.35342 9.65715 44.6986 20
705 2 17.436 7.46467 27.1384 23
706 2 22.6936 10.4032 30.0402 25
707 2 5.76597 24.5098 25.9242 23
708 2 18.4768 2.19695 26.4016 17
709 2 21.9026 11.8383 57.2832 21
710 2 17.1284 29.2902 62.8472 19
711 2 22.1235 16.9752 12.8315 22
712 2 27.4286 34.1652 27.7776 21
713 2 20.0863 30.5398 28.8742 22
714 2 19.6428 2.41854 37.6665 20
715 2 3.97982 26.5178 15.26 17
716 2 23.5076 26.5752 30.1827 20
717 2 18.3548 3.91735 30.5951 18
718 2 19.6481 6.62153 17.7621 19
719 2 9.90193 14.8703 30.9846 21
720 2 10.2635 8.76213 20.8656 18
721 1 19.4523 26.1801 53.6948 22
722 1 3.75309 5.99137 50.1429 20
723 1 3.79103 2.95302 48.8198 22
724 1 25.2765 20.294 12.8825 18
725 1 10.6788 15.6133 17.8441 21
726 1 17.95 22.6832 58.6102 24
727 1 31.7554 20.4627 29.3161 19
728 1 9.71977 7.43168 28.7134 20
729 1 7.8725 6.02837 22.9434 19
730 1 28.0219 16.1916 14.8876 19
731 1 10.2084 23.997 4.0784 19
732 1 8.48656 29.4225 7.64781 24
733 1 19.5024 4.73052 61.0056 22
734 1 4.17979 9.08435 9.74617 20
735 1 10.2721 28.0088 10.0962 21
736 1 31.115 4.63298 20.9589 22
737 1 0.791451 18.8082 55.7486 18
738 1 22.5895 0.83898 58.8179 22
739 1 13.6494 23.5088 4.33084 19
740 1 29.1077 15.7614 9.27691 22
741 1 11.5618 3.38607 9.61335 20
742 1 7.83848 4.40264 13.9097 22
743 1 30.8861 18.8475 20.0011 20
744 1 18.0802 24.7759 37.666 21
745 1 13.4006 2.99661 6.82837 20
746 1 27.8408 2.57478 18.6013 21
747 1 18.1799 1.70758 8.93234 21
748 1 31.1669 10.5902 56.9806 21
749 1 14.5127 14.1905 4.56787 22
750 1 31.5447 3.22853 46.4646 19
751 1 19.4517 0.0462795 58.8954 21
752 1 25.3824 6.61429 62.7283 24
753 1 7.78096 -0.665504 8.63872 21
754 1 15.7674 27.006 5.26484 18
755 1 23.4942 31.1802 7.81699 21
756 1 2.5108 25.3956 10.9352 21
757 1 3.94643 30.4608 57.882 21
758 1 4.82729 34.6593 11.1672 22
759 1 8.47934 22.5959 45.9923 24
760 1 16.8745 6.88947 19.4169 18
761 1 13.3442 13.4257 6.59828 21
762 1 11.1613 9.26215 4.81679 22
763 1 5.58261 17.5847 18.9664 19
764 1 8.59825 2.49566 0.684837 22
765 1 22.8297 1.22057 12.7392 23
766 1 17.7019 22.2002 20.1302 20
767 1 15.2187 12.4545 1.89278 21
768 1 10.5331 -0.230522 62.8707 20
769 1 23.4373 19.5315 54.8518 20
770 1 20.8276 29.5862 2.72861 20
771 1 2.02029 20.404 16.9202 24
772 1 32.7803 32.8675 19.4616 21
773 1 31.2451 -0.0705109 11.3267 22
774 1 28.4502 19.9692 56.6499 19
775 1 31.1588 18.0315 32.5061 24
776 1 26.9886 0.596595 20.9962 18
777 1 32.4903 23.7203 47.8622 19
778 1 11.6612 2.73481 1.84119 22
779 1 17.1036 13.6193 27.7626 22
780 1 12.7162 32.5726 8.4717 17
781 1 3.7874 5.22667 47.551 21
782 1 7.56508 13.1332 2.55587 22
783 1 27.9216 4.12871 21.261 19
784 1 18.4708 11.0332 2.88318 22
785 1 14.7732 31.6433 60.1068 20
786 1 23.778 16.599 54.9776 20
787 1 27.663 24.3686 10.204 18
788 1 19.6147 34.7398 24.7614 18
789 1 0.767337 33.3554 4.23631 18
790 1 25.0117 31.1303 55.9271 21
791 1 2.27882 31.9562 25.7816 21
792 1 10.2483 17.6423 3.40041 20
793 1 29.8741 17.6193 7.34603 20
794 1 0.178761 16.2206 19.1099 20
795 1 15.4791 12.0807 16.15 21
796 1 24.8007 21.6581 15.7996 19
797 1 29.1302 10.9866 15.8154 19
798 1 8.41648 3.45299 16.2005 20
799 1 17.3141 3.66895 6.13753 21
800 1 24.4787 34.5239 24.6397 19
801 1 5.11942 33.5848 18.3415 24
802 1 7.65082 18.7156 51.3997 20
803 1 5.07681 16.8939 11.2374 20
804 1 9.74886 15.0522 7.1317 20
805 1 7.61934 27.7247 50.3558 17
806 1 32.1273 20.7171 15.0898 22
807 1 4.07716 25.7799 62.0942 17
808 1 8.57755 23.1775 10.4217 21
809 1 5.44205 34.1231 62.7775 17
810 1 10.2139 33.7992 19.4096 21
811 1 15.5956 6.11401 12.4346 20
812 1 4.77704 18.562 8.9217 21
813 1 1.03126 21.8152 11.8817 19
814 1 26.505 5.27543 10.8449 20
815 1 23.1755 9.18524 16.0596 20
816 1 27.0183 4.18083 61.8158 17
817 1 4.33093 4.01965 4.06147 17
818 1 14.9372 27.4825 63.05 18
819 1 25.5217 1.96014 5.91563 21
820 1 28.5006 14.4472 50.2166 22
821 1 28.3069 25.336 58.9871 19
822 1 15.9097 0.0420176 18.056 22
823 1 7.33584 32.7616 15.1266 20
824 1 14.2655 8.91885 2.91561 21
825 1 1.37678 2.90021 5.02416 21
826 1 13.1075 34.614 22.2181 18
827 1 19.907 19.6146 18.0761 22
828 1 21.4596 13.2706 13.2882 21
829 1 1.83362 30.4972 13.447 21
830 1 14.45 1.95005 1.88567 16
831 1 16.2242 9.42896 45.6235 25
832 1 10.1921 12.3586 0.819919 20
833 1 15.2516 2.74275 9.49873 21
834 1 0.736952 15.6718 0.685865 23
835 1 8.83456 21.2739 8.36387 20
836 1 5.84865 10.4245 28.7996 24
837 1 23.3656 16.4371 28.8705 19
838 1 27.8013 26.6796 21.0328 19
839 1 25.0643 33.0879 34.0456 22
840 1 19.6651 12.9161 8.23866 24
841 1 11.0896 16.2719 47.8771 20
842 1 15.7393 0.705823 6.29192 21
843 1 6.16548 25.7791 59.028 21
844 1 5.83832 16.9022 58.8138 21
845 1 11.5537 24.321 26.4116 21
846 1 16.0829 30.8027 51.7416 22
847 1 29.4852 15.6717 60.119 20
848 1 4.5449 13.8185 53.9203 22
849 1 1.69209 14.2156 24.8158 23
850 1 10.9465 -0.272805 16.7528 22
851 1 7.69926 16.0396 18.2664 21
852 1 29.7999 31.4644 52.3774 20
853 1 18.1741 26.7388 7.37309 20
854 1 10.286 26.1742 42.9626 24
855 1 20.8835 25.5636 9.05274 21
856 1 23.1771 33.1363 3.2167 20
857 1 18.582 1.76933 19.4084 24
858 1 14.264 29.4844 13.7032 19
859 1 10.5789 5.70105 15.1091 20
860 1 30.9318 23.8118 18.4555 20
861 1 26.1852 15.376 22.5203 22
862 1 18.6432 1.2869 5.92371 22
863 1 13.799 30.5434 22.0776 22
864 1 15.0612 7.77292 9.09195 22
865 1 14.7985 5.52283 6.78618 24
866 1 17.5271 6.35327 51.6193 21
867 1 2.3339 28.5077 60.1937 20
868 1 16.5366 16.6649 61.3054 21
869 1 19.9166 20.4329 12.0641 19
870 1 21.2213 28.275 18.2306 25
871 1 31.1554 27.644 6.73844 19
872 1 7.14244 15.9222 13.0331 22
873 1 3.63733 10.2806 49.325 20
874 1 23.9635 33.7791 12.9801 22
875 1 8.2807 21.9304 14.7026 21
876 1 28.9248 8.51256 58.5047 24
877 1 8.93768 29.5672 11.5028 22
878 1 4.82797 6.57969 23.2309 22
879 1 13.7573 25.4153 53.2476 20
880 1 6.62195 30.0869 0.648424 19
881 1 15.0529 32.2534 12.9356 21
882 1 17.1571 19.9535 20.2191 22
883 1 22.3603 27.0694 22.4846 20
884 1 16.0947 6.93902 4.39092 24
885 1 20.7495 20.201 52.8553 18
886 1 6.18073 5.90825 56.8674 18
887 1 15.4876 28.9981 3.00085 15
888 1 12.2055 33.9501 11.354 20
889 1 10.528 1.36846 8.39742 19
890 1 30.3371 15.094 20.6672 22
891 1 30.6801 3.99737 41.7336 23
892 1 27.6249 18.9479 24.2118 23
893 1 24.3798 2.80691 8.85037 23
894 1 0.140026 28.6941 62.6648 22
895 1 14.884 12.0929 21.877 19
896 1 32.4011 11.4909 23.7233 22
897 1 7.32699 7.48243 7.51419 20
898 1 1.60737 31.3607 0.70004 20
899 1 2.77952 5.40718 21.5934 20
900 1 14.3263 11.6568 18.6036 19
901 2 24.9538 24.087 14.3669 21
902 2 3.67282 13.0878 1.45825 18
903 2 7.83306 6.16501 55.772 21
904 2 14.5937 26.3184 56.5335 21
905 2 13.1001 4.80369 33.5342 22
906 2 6.08695 27.7612 10.8035 22
907 2 24.8556 16.6054 11.0719 18
908 2 8.7799 12.7109 14.5018 20
909 2 32.5327 15.2005 35.3276 19
910 2 6.48928 11.7755 13.1347 22
911 2 27.0369 30.9043 22.3734 18
912 2 15.7721 20.4095 22.4562 18