ITEM: TIMESTEP
23000
ITEM: NUMBER OF ATOMS
2000
ITEM: BOX BOUNDS pp pp pp
-30.0 30.0
-30.0 30.0
-30.0 30.0
ITEM: ATOMS id type x y z Coordination
1 1 -8.30859 2.61558 -12.745 20
2 1 -2.58207 -13.6404 -13.2634 11
3 1 7.87737 11.9885 9.72042 17
4 1 11.3598 -11.312 3.57667 16
5 1 -10.2066 5.45737 -3.62419 21
6 1 12.0538 -11.4136 -11.8956 14
7 1 -9.1411 1.67478 -6.94815 19
8 1 -0.548408 -11.2645 11.0101 12
9 1 -6.36589 -2.49997 -12.2915 21
10 1 -11.0147 -9.7801 2.94904 18
11 1 13.1294 -0.308072 -14.2288 15
12 1 -1.13874 1.53593 -7.53547 25
13 1 2.06792 -14.4526 -0.291999 15
14 1 -10.5279 -7.15342 -0.485938 20
15 1 4.3964 2.58444 15.985 20
16 1 8.96134 -3.77656 2.2021 21
17 1 2.64709 1.80555 8.27455 22
18 1 10.5062 -3.20357 -0.397585 19
19 1 1.62128 5.56017 -10.0828 21
20 1 5.17249 -1.67589 15.9632 12
21 1 -7.44725 -3.10096 -15.2016 18
22 1 -9.6418 -7.60706 10.8591 10
23 1 15.7421 1.23348 10.0799 21
24 1 8.28872 8.10057 -10.8239 18
25 1 3.30757 0.578231 -16.3244 21
26 1 17.5903 -0.726642 10.5663 13
27 1 -6.35757 -2.19883 -3.08797 20
28 1 -11.4184 1.90221 -9.73723 18
29 1 -1.06554 -0.975841 -10.0423 21
30 1 -7.35485 9.04961 8.24772 11
31 1 12.4181 -14.5849 2.2629 13
32 1 3.24495 -4.68211 8.1865 20
33 1 4.94152 -15.8533 -11.3275 14
34 1 13.5913 -12.3635 -2.01919 16
35 1 -5.70104 -15.2675 -8.14813 13
36 1 -9.62345 -9.25686 8.69141 14
37 1 7.42164 -3.56661 -5.92892 19
38 1 2.05741 -10.5556 -16.296 18
39 1 10.9543 -11.5429 -14.7243 12
40 1 -1.50028 2.69044 -17.4363 13
41 1 2.38676 1.97612 13.7339 25
42 1 3.62031 -12.1056 4.08355 20
43 1 6.9026 -4.43908 12.6705 12
44 1 -11.334 -3.42578 -0.93151 18
45 1 -12.3885 -4.15619 7.0458 16
46 1 -9.04499 -2.28377 -2.9392 21
47 1 -0.398298 12.0898 -4.40953 17
48 1 2.13 -16.958 -11.5331 11
49 1 4.2266 -0.125613 -13.3327 18
50 1 7.23837 -7.67254 -13.9325 21
51 1 -1.5634 -5.80604 15.5569 10
52 1 -11.0575 2.64859 -1.79888 19
53 1 8.50737 10.9929 -12.6873 13
54 1 3.69803 8.53947 8.9398 13
55 1 -5.62788 6.54665 -7.56279 21
56 1 0.070792 10.6828 0.183231 18
57 1 5.4789 -10.6252 2.36643 19
58 1 8.65412 -4.41478 -9.2121 18
59 1 7.81378 -6.88322 -17.3627 16
60 1 -7.57838 6.39395 8.18766 17
61 1 -13.9345 -2.96158 -8.58739 14
62 1 6.38858 0.378854 5.55942 21
63 1 -8.52468 6.02208 -8.57774 23
64 1 -4.96694 -9.33617 1.80357 18
65 1 -0.098953 9.29826 10.2837 17
66 1 -12.0005 5.2955 -9.241 13
67 1 -2.61595 8.3463 11.8267 13
68 1 1.95872 5.16792 -5.13142 21
69 1 4.13075 3.2637 5.91014 18
70 1 -5.11301 -13.2809 3.81844 22
71 1 4.00704 4.92878 8.69213 21
72 1 7.24644 -17.5351 -5.82813 12
73 1 3.69979 10.6302 13.0522 12
74 1 -10.9653 -1.13975 -9.76692 18
75 1 -11.2642 1.08166 -12.6098 12
76 1 8.26701 5.89963 12.7127 21
77 1 15.5424 -4.59444 -13.8511 11
78 1 14.045 -12.2386 1.24431 14
79 1 -14.2816 -4.21692 1.01997 12
80 1 -6.12167 -4.48341 0.424831 21
81 1 10.2815 12.9729 2.24403 17
82 1 5.35566 -4.28765 10.0397 18
83 1 -1.54912 -15.8805 7.55285 11
84 1 -10.6599 -1.46978 -6.0717 20
85 1 14.7343 -0.226298 8.27677 19
86 1 10.1769 -1.54918 -2.70352 21
87 1 2.03152 13.5541 11.0326 14
88 1 3.39793 0.141151 5.60874 24
89 1 -5.72559 -7.47209 -2.61036 22
90 1 -1.13856 -8.6172 -11.5613 22
91 1 -10.9819 6.5336 7.09844 13
92 1 -6.00946 12.4824 -5.05023 11
93 1 -1.25111 6.88774 -8.5293 22
94 1 5.852 1.58513 -7.19601 23
95 1 6.98634 -1.42305 -8.28999 22
96 1 11.5247 13.6031 -7.96603 13
97 1 13.8362 -9.68074 3.08823 12
98 1 7.09626 -7.16754 10.1493 14
99 1 -2.92337 14.3054 -4.38649 11
100 1 -8.53127 11.2952 2.67403 12
101 1 -3.68939 -6.06413 14.2156 11
102 1 -0.214518 9.23922 4.76275 21
103 1 -2.40142 -5.73305 5.61336 19
104 1 12.2914 -7.34825 -5.3101 22
105 1 -6.36811 3.5121 3.39095 19
106 1 -8.92667 -13.7108 -0.0207154 19
107 1 10.8115 -6.25832 -8.03883 20
108 1 8.27789 -2.72849 -11.6692 22
109 1 -6.30536 -1.18279 -16.4053 14
110 1 6.95833 -1.2177 2.95035 20
111 1 1.54438 11.9223 5.12211 21
112 1 -6.20019 4.07579 -8.49799 17
113 1 3.35852 8.27846 15.4477 10
114 1 2.23139 11.4512 -5.83158 20
115 1 -11.3779 9.91178 -2.33121 12
116 1 3.68972 8.1442 -0.0317812 20
117 1 -3.75959 -8.84811 5.93871 19
118 1 16.6977 -2.38657 8.72087 13
119 1 -0.165005 -6.62305 -9.53056 20
120 1 9.18769 -8.73582 -9.80133 16
121 1 0.404368 4.3737 2.67301 20
122 1 7.63906 -1.96987 13.5088 17
123 1 -8.99241 -8.87752 -2.6085 22
124 1 8.77879 -6.49285 0.651971 18
125 1 -4.91646 -9.28727 -6.80339 18
126 1 13.9834 -9.56507 -0.430813 18
127 1 -1.83254 7.00695 2.66785 24
128 1 11.2521 2.66942 -16.298 12
129 1 10.685 13.5465 -4.18133 14
130 1 -6.32965 -13.1825 9.80471 11
131 1 -8.57782 -14.874 7.53814 9
132 1 -1.2756 5.10339 0.0259676 21
133 1 5.0598 -9.69939 -17.9632 17
134 1 6.78297 6.03498 -9.13965 20
135 1 14.6949 -9.96044 -3.75412 15
136 1 1.98461 -16.5355 7.44693 12
137 1 -6.48649 -10.0565 -4.66253 18
138 1 18.05 4.91113 8.90471 17
139 1 17.6072 -4.19629 -10.1452 11
140 1 -13.7146 -7.00423 -1.10085 15
141 1 15.3226 11.2482 4.77941 13
142 1 17.8425 7.32022 3.74772 17
143 1 -3.75185 0.227317 14.9541 12
144 1 11.5537 4.0138 -2.5505 19
145 1 -2.01312 10.1654 6.91434 20
146 1 -3.15236 12.7189 -7.19571 16
147 1 -0.109005 -8.27362 -14.7085 20
148 1 9.47593 -13.1848 -12.3183 15
149 1 5.16906 11.4907 -14.1539 8
150 1 9.25794 -5.22655 10.386 14
151 1 1.93799 -5.58702 -18.179 19
152 1 -2.52128 7.63284 -6.08582 22
153 1 15.0367 -2.80916 -9.64378 20
154 1 -10.6161 8.80941 -8.35711 16
155 1 -6.59439 9.40887 -3.74591 18
156 1 12.847 2.28379 -8.53153 22
157 1 8.70124 -11.5685 1.57567 19
158 1 -3.6049 1.34339 -8.93597 20
159 1 -0.814031 14.9364 10.1087 11
160 1 14.178 7.76942 -8.76634 16
161 1 6.99099 9.02105 -4.14705 21
162 1 -1.08109 15.4542 0.690615 9
163 1 13.3013 6.36301 -3.8942 20
164 1 -3.32981 10.3684 -5.16461 20
165 1 2.86644 13.2801 -12.0138 9
166 1 4.12408 7.23425 -13.6426 17
167 1 -11.7273 -12.5555 0.825722 13
168 1 -13.2326 7.58361 -3.8865 10
169 1 -2.83433 -6.46944 -15.0506 21
170 1 7.23052 -11.3455 -17.8512 10
171 1 10.6926 13.3913 8.13462 14
172 1 5.33229 16.4745 7.14112 11
173 1 -9.56836 -6.08998 -7.72676 18
174 1 -9.12533 10.7822 -4.29541 14
175 1 15.7865 -1.79535 -4.86546 16
176 1 -8.87043 1.36924 -15.4847 11
177 1 10.4513 1.46665 16.5687 9
178 1 7.13992 16.4787 0.98828 11
179 1 -3.64133 9.1375 4.67763 25
180 1 5.8669 -9.74415 -20.9706 7
181 1 -1.06346 12.1059 11.3486 11
182 1 -0.893307 10.7106 -7.29948 18
183 1 3.44877 -7.24267 10.5514 17
184 1 -7.22569 -7.63647 0.957559 17
185 1 0.237044 -15.4337 -13.9409 10
186 1 -6.29205 7.97091 -10.4581 21
187 1 0.0046829 -12.2826 0.734586 17
188 1 9.80268 -16.2701 -4.39458 14
189 1 -5.27038 6.7804 -13.4755 11
190 1 -13.6497 -1.42604 9.1733 9
191 1 2.09502 7.31876 -2.62412 21
192 1 12.2751 8.43756 -6.29718 20
193 1 -5.17074 3.29197 14.2735 12
194 1 0.687399 -11.6067 5.26834 21
195 1 -8.22656 0.526546 -2.05542 21
196 1 5.12233 12.4068 4.79689 19
197 1 0.69873 4.87679 7.87692 20
198 1 15.9267 3.82318 12.1302 13
199 1 -1.55099 12.3237 4.69581 19
200 1 14.9792 -5.55181 -10.8273 16
201 1 -3.60936 10.345 10.0574 12
202 1 -6.08962 -1.62451 -9.41625 20
203 1 15.1269 -7.08399 1.11583 15
204 1 -2.58666 -7.34278 3.13795 21
205 1 -10.732 -2.00185 4.75048 19
206 1 -6.28927 -11.9119 0.527659 20
207 1 9.46863 9.32784 15.4457 10
208 1 -13.9377 -1.24421 -6.11337 14
209 1 -0.120392 -17.845 -3.87962 11
210 1 -4.43593 -4.756 -2.33065 26
211 1 6.93099 -9.2467 -5.72417 21
212 1 -2.30899 9.97196 2.33874 21
213 1 -4.73863 -1.15868 0.0864371 21
214 1 6.82283 13.2907 7.2922 20
215 1 -2.49716 -3.43839 -4.89362 22
216 1 -5.17566 11.0985 -9.9383 12
217 1 -14.6899 -5.92463 -7.10415 10
218 1 -6.17083 -3.32135 8.8273 20
219 1 2.02153 -10.3865 2.36776 22
220 1 7.68141 -15.3702 5.80584 12
221 1 -10.2951 9.4578 0.985502 13
222 1 16.1086 2.97311 4.37148 18
223 1 10.2787 2.87832 -5.58601 22
224 1 -4.36073 -9.03494 -15.2956 11
225 1 10.9326 1.10473 5.1158 22
226 1 10.5307 -15.5754 4.28195 10
227 1 -1.38348 6.68721 -11.6058 19
228 1 4.98638 -12.4671 -16.0268 15
229 1 12.2367 -0.7408 -17.7419 11
230 1 7.33032 3.74103 -15.9895 16
231 1 -4.92915 -4.58862 -10.1414 20
232 1 0.409219 14.789 -6.09366 10
233 1 -7.9171 -11.4592 7.33558 22
234 1 8.28903 12.2624 -3.4528 20
235 1 -5.85573 1.30911 12.0428 18
236 1 -1.79268 12.9885 -1.29789 18
237 1 9.27995 -1.63103 4.79743 19
238 1 -3.69121 -7.63256 -18.1898 12
239 1 -3.55448 9.32258 -8.6829 22
240 1 4.50695 5.24297 -11.174 21
241 1 -6.27595 -10.2647 5.03977 18
242 1 -5.99312 4.17336 6.83139 19
243 1 -4.33176 5.90229 4.40818 21
244 1 3.05638 -13.3089 -7.73924 17
245 1 -3.08619 -17.4096 -1.79099 12
246 1 12.9583 -15.1584 -3.50719 9
247 1 7.06512 -7.72677 -2.28713 21
248 1 14.7385 7.00107 12.3504 11
249 1 9.81923 7.67283 -13.4476 15
250 1 1.39928 9.9041 -2.89064 19
251 1 -8.16562 0.760674 2.93276 22
252 1 -8.76423 7.66459 -5.61257 20
253 1 4.64235 2.02362 10.7113 21
254 1 7.42985 -18.354 0.567263 12
255 1 14.4566 -0.452803 -7.0454 21
256 1 6.46999 5.72027 7.05044 15
257 1 -10.1255 6.4137 4.05608 16
258 1 -11.6812 -10.3068 -5.85548 13
259 1 9.26837 1.6975 -13.3899 21
260 1 5.73895 -2.60398 5.80951 18
261 1 11.4445 10.4227 -11.6995 12
262 1 4.66224 -11.6095 -5.1272 21
263 1 3.21569 -4.20363 -10.1067 19
264 1 2.48964 -17.9238 4.42597 13
265 1 9.92917 -1.55721 -8.82766 22
266 1 -8.06657 -4.48896 3.67847 20
267 1 4.1393 -18.0283 -5.38649 13
268 1 -7.34733 -5.56934 -11.293 18
269 1 6.35618 11.4393 -0.388246 19
270 1 3.49652 -4.49983 -15.887 21
271 1 7.16109 2.21594 15.741 19
272 1 16.7332 3.30337 -1.33966 18
273 1 -1.15486 -6.44115 -0.157332 21
274 1 13.5466 -2.84466 -12.3725 19
275 1 0.352642 -9.20994 0.0450333 21
276 1 -4.24172 -7.57493 -11.3328 16
277 1 -8.33631 -0.157805 -10.3854 23
278 1 -5.33967 -14.5613 6.59321 15
279 1 12.32 -0.695967 10.1781 20
280 1 7.4634 -2.37841 8.39444 18
281 1 -2.06224 -10.8082 -14.0993 17
282 1 3.83344 -7.31592 2.72074 21
283 1 2.09849 8.12714 -11.3778 18
284 1 11.4956 6.16848 -0.921734 18
285 1 -8.15243 -9.258 -7.4135 19
286 1 5.39875 10.2679 2.31149 19
287 1 -2.9599 -3.59146 8.25363 16
288 1 -7.11258 -10.3713 -10.8409 11
289 1 -1.86795 -5.42995 -12.4119 22
290 1 -0.472599 5.07202 -15.8946 17
291 1 -1.92262 -11.0717 -6.89743 21
292 1 -5.78889 -9.8828 -1.30782 22
293 1 10.0128 -5.87292 -15.2275 20
294 1 16.3309 -1.18421 -13.0712 11
295 1 14.0734 0.436942 5.38399 22
296 1 2.01259 -6.47803 -5.22712 22
297 1 -7.54245 -6.37942 9.58888 18
298 1 -0.80428 -11.1866 -2.32181 21
299 1 10.2752 4.33719 15.6272 15
300 1 -3.70319 -16.2902 3.21247 14
301 1 4.0119 3.5706 -8.52421 21
302 1 2.36209 -11.6347 -0.866933 21
303 1 5.29459 17.5076 -1.2959 7
304 1 8.16261 -1.61743 -14.6277 16
305 1 -8.20722 -4.47731 -17.7629 8
306 1 5.65663 -6.59983 0.354519 20
307 1 -3.72418 -10.9151 10.7293 18
308 1 5.77015 5.94164 15.7572 19
309 1 7.23215 -13.1791 -4.44318 21
310 1 -0.709286 -17.0598 -9.85322 14
311 1 -10.8119 4.0786 -12.2049 13
312 1 14.2839 8.35066 4.55262 19
313 1 -3.89268 0.0563888 -11.7761 21
314 1 1.60424 5.13916 -13.1691 21
315 1 -3.00288 -1.46479 3.27433 22
316 1 7.29522 -13.7929 -9.98465 19
317 1 -4.12 14.5905 -1.37587 8
318 1 6.54825 9.04308 4.94437 18
319 1 8.84031 1.90747 2.51059 19
320 1 -7.49237 -1.88639 5.27441 20
321 1 -2.34372 -8.76103 13.2621 11
322 1 -4.80744 7.70526 2.36381 19
323 1 4.21229 -7.25892 -13.0335 17
324 1 17.7672 9.13065 -4.11078 11
325 1 5.70227 -12.2296 0.129754 21
326 1 0.240495 -2.35973 15.6649 13
327 1 -11.8993 -4.52368 3.37067 20
328 1 4.64624 -14.7225 -5.19535 22
329 1 -7.31297 4.38843 11.471 15
330 1 -6.8299 2.28106 9.04005 20
331 1 -12.3148 -7.74202 7.91648 12
332 1 -12.871 -10.4097 5.86015 9
333 1 14.126 -6.88615 -2.6611 22
334 1 -9.49666 -9.51962 5.93552 18
335 1 11.3225 -3.7079 -10.6499 23
336 1 13.1389 -11.8586 -8.56455 14
337 1 6.115 15.1417 -4.15751 14
338 1 -0.99005 -4.61752 2.81605 21
339 1 -9.00018 11.69 -7.09125 11
340 1 0.271152 -0.272095 5.70106 23
341 1 15.2196 6.16588 9.82601 20
342 1 -10.9334 -1.61732 1.47114 18
343 1 12.8326 -11.4873 -5.48264 19
344 1 -2.97858 7.80747 -0.286816 22
345 1 -6.44952 5.67528 1.46749 18
346 1 6.09154 -12.4208 6.03251 15
347 1 15.7415 -4.34844 2.85899 16
348 1 -1.76653 3.14242 10.4881 21
349 1 -0.948465 -6.0634 -6.38813 20
350 1 -0.219228 0.535012 14.1333 19
351 1 0.500819 15.0565 3.85096 13
352 1 11.6717 7.27107 14.8154 11
353 1 -7.57587 9.23718 -8.3407 18
354 1 2.79019 -7.76968 -20.5397 9
355 1 -4.58194 -1.1353 -5.95429 20
356 1 7.56518 -10.861 -14.624 21
357 1 -8.51348 3.7825 5.84209 24
358 1 -13.8264 0.682438 0.156938 15
359 1 -1.41211 -4.259 -9.24028 18
360 1 -1.24034 6.93318 -3.00359 20
361 1 8.85774 -4.73366 7.5369 15
362 1 -8.24616 -11.5704 -2.28017 19
363 1 9.31921 -11.1136 6.59222 12
364 1 -5.51119 -8.94983 8.35342 20
365 1 -12.0901 7.14329 -0.923405 13
366 1 1.52191 -10.4471 8.69701 18
367 1 7.26713 -7.14414 -7.79361 18
368 1 -2.99233 -2.39714 -11.3879 24
369 1 10.2331 -3.31377 -17.299 16
370 1 8.56798 10.2314 1.44989 22
371 1 -9.07114 -4.09588 -5.33887 26
372 1 4.27288 -9.54133 -14.9307 18
373 1 11.9167 2.55452 -12.9978 17
374 1 -3.44891 -18.02 -8.39862 10
375 1 -12.4199 -8.2572 -8.41021 12
376 1 0.430235 -7.51916 -2.46885 19
377 1 11.7694 2.08742 13.6752 15
378 1 12.1158 1.29509 -2.98895 20
379 1 -6.00518 1.95828 -10.668 21
380 1 8.0664 15.7204 -2.46908 12
381 1 -11.8701 -4.37012 -6.3181 23
382 1 -7.01296 7.07231 5.16891 21
383 1 -8.19837 10.5624 -0.925475 14
384 1 -2.94592 4.96805 7.42338 17
385 1 11.4726 5.02965 12.9053 17
386 1 14.1271 -4.3694 -4.86217 22
387 1 10.3173 -3.95862 13.3067 13
388 1 16.3932 -0.44924 -9.98406 16
389 1 -3.25674 -17.9564 -5.02425 12
390 1 1.34178 3.17491 5.29347 22
391 1 -2.95647 4.07631 -2.35793 23
392 1 3.88334 -8.96225 -5.42068 19
393 1 2.13567 9.72123 2.31716 20
394 1 -7.612 -1.43161 -6.45544 23
395 1 8.50688 -10.5585 -3.17456 21
396 1 16.7494 -2.04285 5.13892 14
397 1 -7.14073 -4.29391 -7.55813 21
398 1 -3.45173 -12.214 0.868005 21
399 1 -4.85029 -7.88715 11.4247 16
400 1 -1.70313 9.76495 -2.56578 18
401 1 -9.49843 -11.4609 -4.71003 20
402 1 7.32355 9.73471 12.4322 18
403 1 -6.62629 3.83794 -2.74306 18
404 1 4.05693 9.87366 -6.97292 22
405 1 12.0735 11.6791 4.58206 16
406 1 -11.8052 -9.09861 -2.81443 18
407 1 -1.9305 -12.6833 -10.8393 17
408 1 -13.4333 -1.36266 2.85885 17
409 1 -12.0778 6.60557 -6.36897 15
410 1 9.25581 -9.39541 4.22391 18
411 1 -3.64287 -15.1523 -3.3879 18
412 1 14.1066 13.1198 6.91444 12
413 1 9.56347 5.19075 -15.8101 12
414 1 -9.1981 3.49189 -9.73078 22
415 1 0.534743 12.5106 -9.05032 13
416 1 -6.88694 1.42115 -4.71688 17
417 1 1.49198 -14.7201 5.1479 20
418 1 15.0915 6.15745 2.821 20
419 1 2.7162 5.01099 -16.0426 13
420 1 -1.00001 -2.98251 5.66631 22
421 1 -13.2923 0.889456 -3.26947 17
422 1 -2.74951 0.349641 5.63889 20
423 1 -1.5867 -14.2157 2.77134 19
424 1 3.2818 -7.3734 -8.26415 21
425 1 9.75508 -9.70661 -12.528 19
426 1 3.81382 -6.1135 5.378 20
427 1 -11.3126 1.6668 4.11687 19
428 1 -10.7148 -1.70694 8.64658 20
429 1 -12.5946 4.79401 4.11644 12
430 1 4.40795 -7.94547 8.14037 19
431 1 -5.89198 1.0095 -13.9874 21
432 1 10.5009 -9.80286 -4.78067 18
433 1 3.87022 -11.976 -13.622 18
434 1 -1.03749 -5.66366 10.9494 16
435 1 5.57543 -6.31372 -5.25595 23
436 1 -4.65539 1.63718 -16.7705 15
437 1 8.35137 -13.8486 -1.55086 21
438 1 3.75153 8.08892 -4.36353 23
439 1 -10.5405 9.24476 4.71322 10
440 1 -3.00463 -4.17888 12.0485 17
441 1 -8.33643 -7.91926 -13.2179 11
442 1 -5.56384 -6.49932 3.7345 21
443 1 13.5055 -6.62257 7.86593 11
444 1 7.33254 2.2381 -4.79523 23
445 1 -3.45542 4.09341 1.72335 21
446 1 5.25963 -2.23035 -10.7155 21
447 1 11.55 -8.23642 5.7751 17
448 1 17.9712 4.10933 -7.71721 9
449 1 -0.111997 -2.23349 11.5448 21
450 1 3.47515 11.3967 0.441724 22
451 1 9.12066 -6.17694 4.8576 20
452 1 -0.834411 -17.2814 -6.98068 16
453 1 -2.24349 5.53823 14.3338 12
454 1 2.58779 16.3627 5.43259 11
455 1 -7.04468 -12.2917 -8.61001 13
456 1 12.2263 12.5691 -2.02371 17
457 1 8.62244 5.00584 8.47811 16
458 1 -3.91638 1.63686 8.0877 19
459 1 -0.713776 -8.64609 -4.81453 19
460 1 -9.49086 0.843809 6.02699 20
461 1 -6.44524 -6.9537 -8.48844 21
462 1 -2.94351 13.1915 7.50814 12
463 1 -2.27447 -14.5018 -7.60861 20
464 1 -0.0459469 -12.1669 -19.1729 8
465 1 -1.10067 -14.6096 -1.26972 17
466 1 -4.43744 -3.99795 3.56621 21
467 1 11.8301 -1.54968 6.70491 18
468 1 -4.47102 -6.4073 8.27769 17
469 1 -6.63988 3.96018 -14.6157 15
470 1 10.4818 2.68413 -0.285073 20
471 1 -6.1696 -15.8271 -5.06206 14
472 1 3.32013 2.91374 -11.4 19
473 1 1.62122 13.9557 -0.122716 15
474 1 -1.42687 3.74712 -9.70153 22
475 1 1.35754 8.05809 6.84713 20
476 1 -14.8037 -5.23918 -3.75751 10
477 1 3.73921 14.3675 -6.48973 14
478 1 7.71489 11.3215 -6.37885 21
479 1 -2.91818 -8.53005 -8.93645 17
480 1 4.75283 0.97885 18.3332 12
481 1 4.29311 -12.8355 -10.415 17
482 1 -0.00274335 -5.08703 -15.3671 21
483 1 13.4364 -15.4862 -0.210381 12
484 1 -8.1929 8.30983 2.39573 20
485 1 5.77112 4.06507 13.2126 19
486 1 10.0879 6.6481 -5.98166 18
487 1 5.80193 6.88197 -1.79199 24
488 1 -7.31809 5.00709 -11.4334 19
489 1 4.47452 0.819793 -10.0191 23
490 1 4.09275 -9.54697 0.145427 21
491 1 -10.5745 -5.54817 -3.04888 21
492 1 7.37225 15.0617 4.28335 16
493 1 -3.07106 3.04188 -12.0001 17
494 1 13.1033 4.21692 1.28406 20
495 1 8.72712 15.4654 -8.98913 12
496 1 10.5867 -9.56268 0.937225 20
497 1 16.3288 0.851332 -3.58139 17
498 1 0.216539 -3.30409 -12.0662 22
499 1 5.13116 -10.4596 -2.47103 26
500 1 4.63561 -15.3015 5.51717 17
501 1 5.42119 -10.7089 8.5944 12
502 1 -5.91045 0.635721 -7.59874 18
503 1 -9.37426 -14.5269 2.60726 14
504 1 1.6313 -13.7807 -11.5447 17
505 1 15.531 13.5416 3.349 8
506 1 -2.72942 -0.822949 -17.1064 16
507 1 2.30225 0.358924 16.4197 17
508 1 -11.5872 1.3004 8.82671 15
509 1 1.85378 -17.9613 -0.615946 14
510 1 -12.0943 -3.219 -3.72332 19
511 1 16.7098 -7.07778 -8.51644 12
512 1 13.4409 -1.76985 -3.38053 19
513 1 -4.67062 5.01679 -4.66374 21
514 1 5.07254 -10.4774 -8.29252 18
515 1 6.15137 2.63137 -12.8522 17
516 1 12.4494 -3.40725 -7.83722 21
517 1 -2.21997 -2.94434 14.165 15
518 1 9.70568 11.8857 -1.08696 20
519 1 -1.35546 -6.04723 -17.9594 16
520 1 6.81403 1.52332 -18.973 11
521 1 -6.34297 -1.9292 2.45758 19
522 1 0.297526 12.4552 2.19022 20
523 1 -5.35128 -5.34029 -16.6602 16
524 1 -14.2299 -2.20668 -1.62108 12
525 1 1.662 -13.6644 -16.4667 12
526 1 -1.77386 -13.1421 5.3217 20
527 1 2.86996 6.71335 -7.338 21
528 1 19.0147 1.19968 8.6005 12
529 1 13.7982 2.49928 -0.841345 19
530 1 -9.04113 -14.3788 -3.26912 11
531 1 2.19129 -10.0193 -3.42932 21
532 1 0.314034 -2.76809 -18.5699 14
533 1 -4.72757 11.0764 7.02582 15
534 1 2.56782 -8.86737 -10.4975 17
535 1 5.3916 4.97326 0.581663 22
536 1 13.9744 -0.995907 1.75853 20
537 1 5.74515 13.02 -8.00197 23
538 1 7.58479 -9.59979 -0.429242 21
539 1 17.3127 3.10403 -10.8527 8
540 1 5.50252 7.50232 13.0241 18
541 1 -6.3987 1.08879 5.94053 21
542 1 11.8908 6.31052 4.55438 20
543 1 10.6288 -1.40819 15.9138 10
544 1 1.45457 -2.03068 -15.0646 21
545 1 -3.88253 -5.58687 -7.56523 20
546 1 3.96253 -3.51578 13.1712 13
547 1 12.219 9.32084 6.42862 16
548 1 9.55839 5.01696 -11.3801 19
549 1 -5.25611 8.82557 -6.4194 17
550 1 4.5796 13.2329 -1.76627 15
551 1 12.4986 -5.25876 11.0739 12
552 1 10.4724 -0.698035 -15.6194 19
553 1 14.3607 -9.16805 -6.91706 17
554 1 14.9413 9.71304 9.65153 13
555 1 -12.6091 -9.80844 0.254235 15
556 1 -2.27168 11.2041 -10.4279 10
557 1 2.12265 -3.67973 10.8874 21
558 1 -10.9678 -0.896961 11.579 10
559 1 1.31246 9.21686 -8.82853 19
560 1 10.3045 -12.9747 -3.5514 23
561 1 10.8225 -0.888337 -12.209 21
562 1 2.04466 13.5941 -3.50464 15
563 1 -7.36302 -7.69816 -16.7806 10
564 1 5.88588 -15.6222 0.234163 21
565 1 -7.66681 -4.95877 -2.1054 24
566 1 2.81861 10.1167 -13.6697 10
567 1 -4.78642 0.937682 -2.71588 19
568 1 -1.13602 6.12301 11.264 17
569 1 -7.36731 -7.1937 6.3023 19
570 1 7.02884 4.10032 -2.855 18
571 1 6.98095 -10.6573 -10.9096 20
572 1 2.76042 -10.1752 11.2413 12
573 1 11.873 -0.510272 -6.17235 21
574 1 -7.95585 3.53693 -0.172465 21
575 1 6.37681 4.37588 18.2799 10
576 1 8.53976 14.4545 -6.2333 19
577 1 14.145 -5.79214 -7.67593 23
578 1 5.87923 6.56949 10.2535 16
579 1 0.629841 -0.164399 -17.4625 15
580 1 -2.92053 -13.7493 8.62801 15
581 1 0.680296 1.54589 -9.88054 20
582 1 8.8743 -0.958228 -19.3172 13
583 1 8.56202 12.1058 4.62095 21
584 1 10.7096 1.6155 -10.6289 20
585 1 -1.8142 -3.19049 -14.2158 20
586 1 -1.64299 -13.1277 -4.50629 17
587 1 -9.90748 -6.42559 -15.6857 10
588 1 12.2403 1.93653 2.37594 20
589 1 17.2771 3.32798 -5.13809 13
590 1 11.5488 -7.83762 -11.2584 17
591 1 17.8817 5.97636 11.4082 9
592 1 9.52957 -11.6826 -6.33746 20
593 1 4.56078 3.36699 -17.4403 15
594 1 11.6649 10.2725 1.45062 19
595 1 -6.36646 1.36708 0.484084 23
596 1 12.7397 11.118 8.61031 15
597 1 14.8302 3.99154 -3.57594 22
598 1 17.6701 -2.34646 1.5994 12
599 1 12.7596 4.97641 -10.664 21
600 1 8.08225 2.00221 13.2426 19
601 1 18.602 2.25083 11.2706 11
602 1 1.12372 -7.46222 8.95887 19
603 1 15.6721 11.8887 -3.57663 15
604 1 8.70807 1.2094 -2.35615 20
605 1 2.08982 -1.12264 13.7369 21
606 1 17.9553 -1.95294 -7.42175 12
607 1 10.3382 2.39657 10.7688 19
608 1 -4.70996 -4.59034 -13.2585 20
609 1 16.2133 3.43611 1.66671 18
610 1 12.2156 -7.31495 -0.238827 19
611 1 3.85985 -7.56878 -2.31064 23
612 1 -9.42738 3.95199 8.74248 16
613 1 10.6905 7.38936 7.56901 21
614 1 15.0665 0.297503 12.5285 14
615 1 8.5908 8.46418 9.9733 17
616 1 5.39209 14.6986 9.57078 13
617 1 5.89319 1.82991 7.92212 20
618 1 2.59917 -16.624 2.11677 18
619 1 -4.1883 7.77673 -2.96241 23
620 1 12.8552 10.5629 -8.32541 15
621 1 12.9502 -5.82372 -12.7721 19
622 1 4.40215 15.0307 0.873428 14
623 1 0.363484 -14.3501 -8.48149 19
624 1 12.4395 -8.77137 -14.0276 13
625 1 -14.5476 -3.33672 4.73313 12
626 1 -3.94889 5.7759 -10.4993 21
627 1 -0.69369 -16.3642 4.05396 16
628 1 -0.381857 -0.336922 -12.7155 20
629 1 -9.56105 -3.11586 -8.65759 17
630 1 13.399 -6.46891 4.14319 18
631 1 15.1933 8.96301 1.41115 20
632 1 5.36335 -9.2779 5.13137 20
633 1 -9.32822 -2.85895 -12.4522 19
634 1 3.77577 0.681534 -19.5797 12
635 1 5.54726 -4.45009 2.97059 22
636 1 0.692111 4.75746 13.1306 19
637 1 6.42637 9.02786 -13.5067 16
638 1 15.3625 -3.24064 11.7736 11
639 1 10.1738 4.14339 -8.44039 20
640 1 17.2599 10.3033 -1.24676 12
641 1 6.6369 -13.1916 -7.44117 20
642 1 -8.9322 -3.83231 10.7504 15
643 1 13.9827 -2.77606 4.31683 20
644 1 2.23293 10.6635 9.95781 16
645 1 8.86791 12.9365 -10.2914 16
646 1 -11.8948 10.1577 -5.71622 11
647 1 12.9294 7.37362 1.43365 17
648 1 -6.54653 -15.5227 -1.81783 16
649 1 16.5381 -5.29383 0.0271612 15
650 1 12.8678 13.4049 1.22209 14
651 1 -0.317987 1.77881 7.62528 23
652 1 -9.44632 -9.86947 0.596296 20
653 1 -10.9104 -5.70231 -12.5362 14
654 1 7.83252 0.42842 10.5243 18
655 1 -1.90966 -8.42633 9.07352 19
656 1 12.4129 7.94598 10.5334 19
657 1 -4.25409 10.6653 -0.823316 20
658 1 7.5028 4.50923 2.58409 17
659 1 8.55588 -4.60952 -3.33739 21
660 1 11.1639 4.17142 7.09942 19
661 1 6.55825 -3.90365 -17.0645 18
662 1 -6.52014 -4.30988 6.25995 18
663 1 12.7458 -5.56311 -15.8008 12
664 1 1.62493 -4.8162 -7.50867 21
665 1 11.306 -9.42245 -7.58585 21
666 1 11.9264 1.67482 7.92214 23
667 1 8.67648 2.55341 6.06748 19
668 1 -7.57954 -1.05588 11.3166 15
669 1 16.3787 11.0732 7.99677 9
670 1 0.532381 -4.52661 13.4266 18
671 1 1.50562 3.10684 10.5011 22
672 1 1.87385 -7.40152 -16.0888 18
673 1 -2.59865 -0.273645 11.4694 22
674 1 -3.27712 2.08604 -4.63943 21
675 1 7.47764 -1.00517 16.9424 9
676 1 -7.53226 -13.5568 4.88845 19
677 1 17.517 5.71908 -2.8074 14
678 1 11.7654 -14.0596 -6.25822 14
679 1 0.890912 3.84521 -7.86488 22
680 1 9.51206 6.54791 -2.96238 18
681 1 15.6912 12.5539 0.179924 14
682 1 6.12704 -1.50645 -20.3905 12
683 1 2.39932 -2.74505 5.42851 23
684 1 5.25268 12.0404 -5.15464 19
685 1 15.0829 6.30306 -0.81256 23
686 1 -3.42579 -9.95181 -4.26538 23
687 1 4.03565 -4.46747 -20.5541 12
688 1 -8.82506 6.97991 -0.686806 20
689 1 9.25124 -5.82958 -12.24 20
690 1 8.85537 5.36645 -0.175213 20
691 1 12.9404 7.38718 -11.8585 14
692 1 13.2534 9.6635 -3.54644 19
693 1 3.76508 4.06036 2.85235 20
694 1 -4.77805 5.34434 -0.912285 19
695 1 7.53965 4.33655 -6.68969 20
696 1 10.41 -0.408971 12.8976 18
697 1 12.6276 -2.34411 13.1073 15
698 1 -1.40533 -11.2254 7.85695 19
699 1 -3.22375 8.26909 -11.4914 14
700 1 9.1572 10.5396 7.2595 19
701 1 9.59923 -9.11529 -16.2784 12
702 1 1.27339 -1.51903 8.33643 22
703 1 10.2327 11.4315 -6.21364 19
704 1 9.90279 9.38802 4.54097 21
705 1 15.7135 -7.0619 -5.30708 18
706 1 8.62196 6.88932 16.918 12
707 1 -12.896 -6.52264 5.5007 11
708 1 7.0183 -16.5403 -2.85645 18
709 1 5.46112 -4.36979 -7.97855 23
710 1 -5.5563 10.8344 2.12626 17
711 1 3.19306 5.92727 5.78511 21
712 1 9.01351 -6.42911 -5.42983 18
713 1 6.41439 7.49763 1.34103 20
714 1 -9.2334 -4.8319 0.663192 17
715 1 -2.52688 2.36036 13.1565 20
716 1 -3.67131 4.3787 -15.4365 15
717 1 -2.71039 7.23423 -14.7653 11
718 1 8.85911 -14.7156 1.69374 20
719 1 10.9248 7.24741 -9.0748 23
720 1 6.45718 -5.34059 6.51858 19
721 1 1.53941 6.88695 3.21211 22
722 1 -11.5516 3.32913 6.58029 14
723 1 6.98353 -4.66053 -14.4438 24
724 1 3.03995 -12.692 7.5024 15
725 1 6.65254 13.2877 1.74102 20
726 1 -5.26697 7.3621 10.4346 14
727 1 -3.98899 -10.4487 -11.9354 14
728 1 -1.41804 -13.1825 -16.4343 10
729 1 -3.21952 -15.3027 -9.92845 14
730 1 5.58495 15.1631 -9.99458 11
731 1 6.29123 -5.25513 -10.9858 22
732 1 4.86428 10.4805 7.23917 14
733 1 8.83719 -11.5608 -9.22904 20
734 1 10.6601 -17.5367 1.77661 10
735 1 7.50516 -8.19855 6.69174 19
736 1 14.2335 1.47683 -11.3513 17
737 1 5.81096 -16.3111 -8.18875 16
738 1 -11.0952 -5.26723 9.27902 13
739 1 2.26855 -1.08775 -10.9504 21
740 1 -1.0604 -17.1908 0.902397 12
741 1 -4.80487 -12.7448 -5.72714 20
742 1 -8.86522 -4.1066 7.5012 23
743 1 -4.18118 -15.2876 0.1633 19
744 1 16.2365 6.72436 -5.99708 19
745 1 -0.0919958 15.0132 7.46234 15
746 1 -1.87766 3.14124 5.05881 21
747 1 -11.0712 4.78873 0.774577 17
748 1 12.5408 -4.5518 1.86688 20
749 1 -12.2432 -3.24916 -11.4831 11
750 1 0.574523 8.33318 -5.76804 20
751 1 9.10826 1.46674 -7.75335 22
752 1 10.46 10.8568 11.01 15
753 1 13.6459 2.3674 -5.57476 16
754 1 -14.0148 -0.325615 -9.40579 9
755 1 -9.42143 -8.15505 -10.2208 16
756 1 0.113473 3.37054 15.834 14
757 1 7.15432 5.7237 -13.317 20
758 1 17.3086 10.8115 2.23134 13
759 1 0.341149 -3.97629 8.19508 22
760 1 2.76749 -16.3169 -3.05484 17
761 1 -6.67666 -16.3762 4.39061 13
762 1 0.801542 -6.15745 5.29747 20
763 1 17.1943 7.76853 7.85814 15
764 1 5.64495 -7.93125 -10.2936 16
765 1 -7.25267 6.74737 -2.88914 20
766 1 9.90946 7.46154 2.16247 19
767 1 -4.65474 -6.83418 0.174293 21
768 1 12.2622 5.21182 -14.2136 14
769 1 1.67629 -16.2469 -6.0269 18
770 1 3.93625 -19.0791 1.15069 13
771 1 4.72087 -13.8192 -2.37233 21
772 1 7.0714 3.14454 -9.50332 21
773 1 10.1914 15.0242 -0.123944 10
774 1 -2.84513 -3.7497 -17.4167 16
775 1 2.62555 -0.274069 11.1811 20
776 1 1.69245 2.6188 -17.6878 16
777 1 -10.522 -3.5518 -15.0931 9
778 1 -10.8863 -7.36438 -5.10687 20
779 1 5.82671 16.4057 -7.28218 11
780 1 13.9113 -4.02813 -1.27724 17
781 1 -1.45733 -9.64073 -17.032 18
782 1 -2.90726 -7.44076 -2.51105 21
783 1 12.7324 5.22472 -7.25175 21
784 1 11.0175 -10.6868 -1.40448 20
785 1 -4.69118 3.96704 9.81052 17
786 1 9.37891 -12.6756 4.52349 16
787 1 16.8887 -4.88306 -3.48844 16
788 1 13.4546 -3.4526 8.64214 16
789 1 3.29695 9.24839 4.9017 19
790 1 -9.19036 1.80592 11.3941 14
791 1 -4.71452 7.49453 6.95818 21
792 1 0.482682 -13.7879 7.87674 15
793 1 8.54979 -0.430142 0.478528 24
794 1 9.79941 8.36019 12.7876 17
795 1 -11.6535 -0.448004 -1.64712 19
796 1 10.1657 -7.59843 -2.70839 20
797 1 -8.45342 10.5112 -10.7217 11
798 1 5.05506 6.78862 3.95231 20
799 1 5.19648 -17.7804 6.01014 10
800 1 5.05531 0.494563 13.7129 20
801 1 3.29856 13.4672 6.94348 21
802 1 7.16702 -7.21384 3.38938 18
803 1 -5.77813 -4.12121 -5.03037 21
804 1 5.31492 -1.60308 11.0402 19
805 1 -14.2957 -7.80877 -4.43864 12
806 1 1.32257 8.07473 13.4805 12
807 1 8.05504 9.3676 -1.49427 19
808 1 -7.86393 -11.2838 3.11563 20
809 1 -3.52099 -16.8637 6.13166 9
810 1 10.7978 -7.00548 2.5093 20
811 1 11.3415 -4.09252 4.70769 18
812 1 13.7201 7.18068 7.83 21
813 1 -1.27362 4.73001 -5.48567 21
814 1 0.732488 -11.4617 -9.46347 19
815 1 0.648413 1.41816 -15.0728 20
816 1 -1.6478 -1.01037 8.54886 23
817 1 3.17358 13.4776 2.96279 21
818 1 16.3831 0.180967 3.3192 15
819 1 5.91661 7.79225 -7.07466 17
820 1 -4.0569 5.46544 12.2104 17
821 1 12.0981 4.90082 9.54642 18
822 1 11.0162 -3.23414 -14.3714 22
823 1 -4.58104 -12.6849 -2.42283 20
824 1 -2.71647 -1.79073 -7.70101 20
825 1 16.9399 0.728053 6.75997 19
826 1 3.51174 -3.55475 -12.9311 19
827 1 2.67201 4.97386 14.7824 19
828 1 11.3185 -13.743 -9.54599 12
829 1 9.33534 1.39996 -17.0323 17
830 1 0.355004 -8.74115 -7.48117 20
831 1 14.7672 4.81496 -12.7266 11
832 1 17.2379 -2.26887 -1.88556 12
833 1 0.304611 -8.05671 12.0337 14
834 1 1.40809 -10.1705 -12.7849 17
835 1 10.8566 9.17477 -0.929892 21
836 1 0.369101 -7.4892 2.48465 22
837 1 -14.1283 2.06101 2.37602 8
838 1 15.1273 4.84316 -8.63544 15
839 1 19.1418 4.69763 2.79575 9
840 1 4.92673 -7.07949 -16.3423 18
841 1 -5.09432 12.6662 4.22158 12
842 1 19.5508 6.43861 5.96598 11
843 1 13.2629 11.9836 -5.5508 18
844 1 6.82174 0.941786 -15.2924 18
845 1 11.5106 -4.79381 -2.4762 22
846 1 -8.32503 -2.07369 0.336931 21
847 1 13.359 3.80147 4.63874 20
848 1 -11.084 -11.9173 -1.89163 18
849 1 -9.77663 6.96909 -11.0459 15
850 1 7.41907 3.35908 10.4725 16
851 1 -12.5367 -5.70942 -9.51423 13
852 1 -9.16553 4.00924 2.95134 18
853 1 0.00179678 3.16472 -12.6998 21
854 1 13.2863 -8.09673 -9.26062 16
855 1 -9.75714 -11.459 -8.43768 11
856 1 16.5577 -8.06206 -1.99395 13
857 1 -13.6089 3.55473 -1.01335 13
858 1 -4.02808 -6.79046 -5.35718 23
859 1 16.2791 5.79902 5.90734 19
860 1 -0.669132 -8.84066 5.78932 22
861 1 9.70564 -2.31997 10.3822 19
862 1 15.4537 -4.8479 6.39554 13
863 1 10.6104 -1.18977 2.15405 18
864 1 -10.0212 1.33751 0.807445 20
865 1 5.02422 11.5536 10.8046 15
866 1 4.54755 8.18258 -9.98183 19
867 1 -0.445897 -8.63777 -19.4746 10
868 1 -0.0162976 12.4206 8.36745 20
869 1 -10.1629 -12.2436 5.02737 15
870 1 9.93233 9.41932 -4.13035 19
871 1 3.73238 4.8091 11.7154 20
872 1 15.906 -4.15599 -6.86992 21