ITEM: TIMESTEP
7000
ITEM: NUMBER OF ATOMS
2000
ITEM: BOX BOUNDS pp pp pp
-30.0 30.0
-30.0 30.0
-30.0 30.0
ITEM: ATOMS id type x y z Coordination
1 1 -10.1114 4.92144 -14.6922 12
2 1 -4.59874 -10.7113 -8.27221 19
3 1 3.94518 13.6325 11.8959 13
4 1 7.85608 -11.9702 6.53604 10
5 1 -10.8463 6.42501 -3.56326 21
6 1 12.1724 -9.51938 -10.4488 11
7 1 -10.8451 4.40087 -6.57226 21
8 1 -0.0810686 -7.20737 11.1028 17
9 1 -6.76698 0.52012 -11.6828 21
10 1 -12.0365 -8.49976 6.13322 18
11 1 13.7592 0.182305 -9.16337 13
12 1 -3.65181 -16.2276 2.57672 19
13 1 -11.7592 -7.52169 3.49892 17
14 1 0.604327 3.14923 16.3701 16
15 1 -0.286423 2.07771 11.7006 21
16 1 -3.29829 13.6414 -9.51482 16
17 1 0.78834 -0.87967 12.7798 16
18 1 -7.73635 -0.57284 -14.81 14
19 1 -13.0002 -3.1844 12.8321 13
20 1 14.323 1.07851 7.41742 15
21 1 2.51137 10.6603 -11.1661 18
22 1 5.41568 6.66018 -12.1648 16
23 1 15.2603 1.31088 12.631 11
24 1 -11.9571 2.91296 -9.16204 18
25 1 -9.87014 9.15217 9.16581 17
26 1 6.59874 -14.8126 5.27553 13
27 1 3.76846 -11.3945 -10.0995 15
28 1 11.0522 -14.5171 1.02435 7
29 1 -6.15253 -15.6664 -6.22126 7
30 1 -12.0929 -5.21955 10.9783 20
31 1 -1.19353 -7.10584 -15.3576 15
32 1 10.983 -7.14613 -13.0089 13
33 1 -1.71671 4.66214 -15.5865 17
34 1 -0.401401 4.7484 13.3576 19
35 1 -1.91489 -10.9362 6.69454 19
36 1 7.82633 -4.93068 12.2397 14
37 1 -11.8026 1.4211 1.62901 14
38 1 -15.2995 -1.22044 7.72499 18
39 1 -2.41441 11.771 -1.74913 21
40 1 -0.811989 -14.4177 -11.1057 9
41 1 -0.128673 4.53177 -9.28146 22
42 1 5.75148 -4.52536 -10.7053 22
43 1 -2.51933 -3.47798 14.7589 15
44 1 -12.8378 6.43265 -1.6109 16
45 1 4.18142 13.8694 -13.4587 8
46 1 2.09326 12.0288 6.70628 20
47 1 -9.2561 8.96558 -7.95721 18
48 1 -0.440917 13.3839 -1.43751 18
49 1 0.429006 -12.2467 1.89732 20
50 1 4.88993 -9.43961 -4.3744 22
51 1 5.65809 -6.11549 -16.4584 11
52 1 -8.82125 9.30243 12.0251 14
53 1 -9.68564 -2.58079 -9.57732 21
54 1 -9.81554 10.471 -5.11906 17
55 1 -6.91253 -9.1797 6.85553 22
56 1 -2.5663 14.6566 12.4127 9
57 1 -12.2154 7.7393 -6.1573 18
58 1 -6.74988 10.4912 13.9074 14
59 1 -5.53336 -17.6562 8.72299 12
60 1 2.71058 6.53611 7.42325 22
61 1 7.2131 -16.6772 -3.07218 10
62 1 4.67916 11.8447 16.0288 11
63 1 -14.1103 1.55774 -10.9903 8
64 1 -12.6904 8.4828 -10.1285 9
65 1 3.90652 6.87198 12.6121 20
66 1 11.0532 -1.62741 -9.2507 15
67 1 9.75201 -12.0127 3.2916 10
68 1 -16.4286 -1.97583 4.93287 12
69 1 7.53372 15.2144 5.50841 12
70 1 5.39683 0.261552 14.6768 20
71 1 -7.02627 -15.2374 7.93355 19
72 1 -11.6787 -1.32647 -0.774382 19
73 1 12.3516 2.60432 7.30734 22
74 1 -1.0421 12.3471 9.17943 19
75 1 -2.92857 -7.49513 -7.98369 19
76 1 -12.6825 7.98789 9.89617 10
77 1 -8.1299 11.0936 -2.42378 19
78 1 -3.22109 9.53727 -8.74942 19
79 1 9.60173 14.1109 -8.65046 13
80 1 4.91358 -6.46237 4.01488 23
81 1 5.44605 -8.97901 9.2773 12
82 1 -6.07503 15.6507 -4.90075 12
83 1 -9.50929 11.2319 4.56897 20
84 1 -7.91673 -3.8519 15.7162 13
85 1 -6.20748 10.3671 6.39984 16
86 1 -7.25708 -6.2272 11.2674 19
87 1 12.046 -9.34384 -4.30852 14
88 1 -10.8736 5.40803 6.79513 18
89 1 -7.8481 -15.2456 5.12767 18
90 1 9.04366 -6.37488 -5.62918 19
91 1 7.21748 0.961793 -9.54039 20
92 1 -4.79694 0.74854 -15.4196 14
93 1 -1.74885 12.732 1.56825 21
94 1 -7.34024 6.02348 -9.41649 16
95 1 3.89703 8.46379 15.8768 23
96 1 -3.37984 14.8367 -3.36048 20
97 1 -13.4033 10.7883 0.949337 12
98 1 -0.41262 9.96861 0.301728 19
99 1 -5.73729 -9.47712 10.5136 19
100 1 14.8474 -1.23022 9.75101 9
101 1 -1.1217 -4.0423 -10.9279 18
102 1 4.61321 -7.43816 -8.73915 17
103 1 -0.55142 4.72023 10.363 20
104 1 5.68067 -1.51806 17.3215 9
105 1 -8.99709 -5.50314 -2.90375 21
106 1 -8.23236 -8.52023 -0.774176 17
107 1 11.1888 -8.87744 3.12477 9
108 1 -6.5451 7.9287 -0.661723 20
109 1 7.21314 5.28222 -14.6608 13
110 1 5.78971 14.9025 -2.08022 16
111 1 -7.59759 -13.4473 12.1616 12
112 1 -10.0699 -13.6411 10.363 11
113 1 5.87331 -9.09931 -14.3712 12
114 1 5.75949 8.18004 -7.01714 21
115 1 13.4852 -10.3951 -1.97452 10
116 1 -2.01525 -16.3612 6.06399 14
117 1 -7.26986 -11.0632 0.28936 18
118 1 16.748 6.10233 9.33913 13
119 1 14.0141 -2.08655 -6.52831 15
120 1 -14.5319 -2.01654 2.0393 11
121 1 10.9254 7.90726 7.63296 19
122 1 15.5286 9.05823 4.12018 12
123 1 -5.45433 3.70729 17.104 13
124 1 -3.45532 12.2018 10.6955 19
125 1 -6.89162 14.3484 -8.17009 14
126 1 -1.82506 -6.73866 -12.455 19
127 1 9.76212 -11.8503 -10.0894 11
128 1 1.88598 14.8478 -11.0928 17
129 1 6.53785 -2.31718 12.6893 19
130 1 2.4464 -1.43076 -17.0713 14
131 1 -3.14064 9.19673 -4.97875 21
132 1 10.3297 1.37228 -4.72349 20
133 1 -12.5039 10.9809 -8.04346 14
134 1 -7.76293 13.4344 0.103981 19
135 1 8.56137 2.96477 -9.00843 17
136 1 7.02424 -7.94093 5.1651 21
137 1 -5.72022 4.15581 -6.64193 20
138 1 -7.92038 14.7044 10.0269 9
139 1 13.511 8.65287 -8.01529 13
140 1 4.32585 13.2796 -3.58851 19
141 1 -3.67328 15.7116 2.62383 16
142 1 11.193 10.5993 -1.50969 14
143 1 -4.68905 11.8018 -4.38813 19
144 1 2.49031 17.8442 -9.68061 9
145 1 4.07621 9.87584 -13.7132 16
146 1 -10.218 -9.86109 2.97798 15
147 1 -11.923 9.83067 -2.24427 20
148 1 -6.94485 -2.26885 -12.8313 16
149 1 -0.0493699 -10.0119 -15.0965 14
150 1 9.81115 12.5656 9.1681 14
151 1 0.319543 14.6684 6.73927 15
152 1 -12.7893 -2.54786 -5.9254 18
153 1 -12.2202 12.7879 3.99621 10
154 1 13.6094 -3.57092 -2.78556 18
155 1 -10.1779 1.35916 -15.5702 11
156 1 6.17376 1.74087 16.5956 18
157 1 3.64155 17.4418 0.721377 12
158 1 -1.99099 8.87022 9.7971 19
159 1 3.175 -8.87603 -15.9432 11
160 1 -4.85147 14.7704 9.56628 18
161 1 -1.04818 14.6093 -6.59066 20
162 1 3.0583 -1.52191 12.8283 20
163 1 -9.40873 -3.85527 4.09 19
164 1 -3.14271 -12.755 -13.4305 12
165 1 -9.97129 13.4167 -7.53703 13
166 1 -1.77751 -10.2894 4.04649 18
167 1 4.44228 -15.2915 -4.42193 14
168 1 -3.43574 12.9416 -12.9158 11
169 1 -14.7649 1.72196 8.2935 17
170 1 9.43136 11.3352 -4.20575 20
171 1 -7.69772 5.49127 15.3646 16
172 1 -0.35466 -9.8776 9.42597 14
173 1 -8.65326 3.72208 -1.4242 20
174 1 1.81563 15.6485 4.17907 17
175 1 -0.214662 7.03389 8.65732 19
176 1 14.5447 4.61026 14.3222 12
177 1 -7.12849 11.5689 2.98501 20
178 1 13.2772 -4.35638 -8.27807 15
179 1 -5.66637 13.2071 12.2148 12
180 1 -2.95987 0.907443 -9.62715 19
181 1 14.4363 -7.6662 3.85674 5
182 1 -6.28386 -3.97558 5.49768 17
183 1 -15.9979 1.31728 5.50616 10
184 1 -7.77258 -12.0726 5.84963 16
185 1 7.00957 6.76445 14.2618 21
186 1 -14.6578 1.73321 -2.87252 17
187 1 -2.3707 -14.0171 0.795232 18
188 1 5.25559 -9.38935 -0.690681 20
189 1 -3.69615 11.3319 4.41992 20
190 1 7.67282 14.401 12.066 8
191 1 -10.1987 -1.14047 -6.30413 13
192 1 -7.10807 11.1759 -8.54534 17
193 1 -14.7346 -4.38106 -3.70745 13
194 1 -8.99632 -1.11005 12.063 16
195 1 1.98554 -10.532 3.79493 19
196 1 4.23726 -16.4151 4.97837 15
197 1 -13.4334 9.993 4.14175 13
198 1 16.076 2.56692 4.06485 9
199 1 5.51302 4.54077 -6.09196 25
200 1 -5.25211 -7.82253 -13.9281 14
201 1 4.72437 0.970452 11.8042 21
202 1 6.54665 -18.1304 3.42965 12
203 1 -2.02264 10.2041 -11.9338 19
204 1 2.58791 -11.0078 -13.5567 12
205 1 8.05126 2.75825 -12.2327 15
206 1 3.81025 8.8923 -16.8512 10
207 1 -6.78396 -3.65231 -7.57518 20
208 1 -4.43908 16.5335 -8.05251 12
209 1 -7.97355 -11.4304 9.82916 20
210 1 8.55551 17.1217 -2.85233 12
211 1 -8.40631 2.65281 15.9968 15
212 1 -5.83148 13.0345 -2.26222 22
213 1 7.69683 3.45985 9.28586 19
214 1 -3.5116 -3.84577 -12.7722 18
215 1 -4.58932 11.7761 -7.24958 20
216 1 1.53123 6.84081 -9.56499 19
217 1 -5.38292 -11.603 8.06884 21
218 1 -7.84985 6.17075 8.16449 20
219 1 -7.33798 9.22703 8.92386 17
220 1 1.50935 -8.40268 -7.92112 17
221 1 -5.22787 -16.3927 0.164111 18
222 1 10.441 -14.6431 -2.60788 11
223 1 12.345 7.25282 13.524 15
224 1 5.60884 12.3752 -10.739 18
225 1 -0.42618 9.92023 -2.49453 22
226 1 -9.47503 0.971995 3.58689 21
227 1 -13.3853 12.5233 -2.04979 10
228 1 2.11587 3.89322 8.92601 20
229 1 4.66859 -18.4836 0.731805 15
230 1 13.7569 0.776298 -1.2498 18
231 1 1.49433 9.04064 5.10423 21
232 1 -10.3899 5.76397 3.64277 20
233 1 -12.0751 -4.98315 -4.82206 19
234 1 7.98678 6.40545 -9.81855 21
235 1 1.74626 0.309893 9.82253 21
236 1 8.56823 11.3478 -10.1066 17
237 1 -0.0942539 -12.923 -3.69868 18
238 1 -3.88445 -1.15813 -11.3125 15
239 1 0.00371396 -19.0344 3.00257 14
240 1 11.428 0.725626 -7.61251 18
241 1 -12.8852 -5.41213 5.52329 17
242 1 4.02556 -16.0674 -1.27464 18
243 1 -11.2157 -4.82281 -8.36632 18
244 1 3.42637 14.4336 -0.652943 19
245 1 3.25105 -0.937424 -13.7587 17
246 1 4.76619 5.15258 15.5705 21
247 1 15.2814 0.744759 1.27004 9
248 1 11.0176 -4.68412 -10.3464 19
249 1 -8.39932 -0.563397 -8.25237 17
250 1 -11.1461 0.438928 -9.62296 24
251 1 -8.16098 -16.3607 10.486 12
252 1 9.85801 1.53674 8.84649 24
253 1 4.12936 -4.7625 11.8962 13
254 1 -5.21784 -7.00647 -11.0512 18
255 1 1.0526 8.36477 -12.3668 18
256 1 9.02425 8.5891 -2.63898 17
257 1 -6.00929 -6.81916 3.59083 18
258 1 1.67234 8.96511 2.1342 21
259 1 -6.70677 -3.13468 12.3799 18
260 1 -10.3644 -8.72275 -8.78532 13
261 1 -7.67115 -4.97776 -10.1821 19
262 1 -1.65102 7.75037 -14.2914 21
263 1 -5.39901 -9.67959 -5.63032 23
264 1 -4.20344 -11.0122 2.30507 20
265 1 9.90104 -3.69515 -14.5427 15
266 1 15.6561 0.0871947 -6.7272 12
267 1 10.9536 3.12289 4.43402 19
268 1 -9.40143 -4.40645 10.8895 17
269 1 -2.28019 -11.1959 -0.351202 21
270 1 8.38909 4.61801 16.0276 15
271 1 -5.86264 -18.7931 5.79751 10
272 1 -0.939895 -9.4002 1.73759 18
273 1 -2.50088 17.2295 -1.91156 14
274 1 4.56576 1.77868 -11.4939 16
275 1 -6.47158 -5.11217 -12.8723 14
276 1 -10.069 -7.4601 11.9929 15
277 1 4.38672 7.55412 19.4296 9
278 1 3.10919 -10.9447 -2.34303 16
279 1 -4.82323 -11.4499 -10.9938 14
280 1 -10.6028 6.60582 -9.13705 21
281 1 10.8096 5.62986 2.17879 20
282 1 -5.45399 3.15407 -9.76696 20
283 1 -0.171329 9.74146 -9.51237 20
284 1 6.59552 -13.363 -9.66451 13
285 1 -5.44052 15.5495 -1.34993 14
286 1 1.3913 12.3743 3.37289 23
287 1 10.3123 0.673219 5.41118 21
288 1 -9.63823 1.12467 6.66678 22
289 1 -2.59596 -6.53283 13.8485 12
290 1 -7.31224 8.25656 3.91667 15
291 1 2.80324 -3.96044 -13.1945 18
292 1 15.2242 10.6782 -2.32151 9
293 1 2.37056 -10.3985 0.718617 23
294 1 -1.8475 -0.61441 16.4011 14
295 1 -16.1635 -4.33194 7.22768 12
296 1 1.38238 -15.8335 -2.42573 18
297 1 -9.22749 7.86272 14.5414 14
298 1 -12.5341 7.39085 14.7941 8
299 1 -15.1164 -3.41557 10.2277 14
300 1 -13.9082 -6.51698 8.46613 17
301 1 15.6671 -4.98704 -0.794304 8
302 1 -12.066 -8.61641 9.74396 11
303 1 8.32432 -1.2351 -7.78593 21
304 1 10.1011 -11.2877 -2.80538 18
305 1 3.12847 16.8852 -2.21137 14
306 1 -10.3166 12.7638 -1.7663 16
307 1 9.64686 7.5491 10.9935 21
308 1 -10.9533 -1.37208 4.63116 16
309 1 8.17952 -8.49603 -4.33 21
310 1 -4.49842 9.05571 2.34172 22
311 1 -5.36367 7.16678 5.94197 19
312 1 5.13373 -12.424 7.72092 11
313 1 13.1323 -4.62304 4.37933 11
314 1 -2.74796 6.55117 7.0205 20
315 1 -9.07855 -5.77732 -6.46062 22
316 1 -2.67743 2.67827 16.908 17
317 1 -5.27378 13.9379 4.82983 21
318 1 9.81564 7.16271 15.6817 14
319 1 -7.98118 12.9941 -5.60399 19
320 1 5.34802 -2.4254 -15.8287 15
321 1 8.88238 -9.56213 -12.7346 14
322 1 -8.74256 2.55368 12.6155 20
323 1 -14.0794 4.02127 4.12131 9
324 1 -5.77477 10.8361 -0.528654 19
325 1 6.7901 -0.110559 9.57763 20
326 1 -8.6652 -12.5327 2.71416 14
327 1 8.49081 -8.65071 7.73318 10
328 1 -7.78961 -10.1153 12.7467 13
329 1 -15.4951 7.76681 -0.240793 10
330 1 -1.11481 -3.90295 8.73652 18
331 1 3.24536 -12.0651 -5.64814 15
332 1 -5.97102 -1.62605 -9.29207 19
333 1 8.76098 -1.06457 -13.5797 16
334 1 4.16875 14.2529 2.60547 21
335 1 -9.22998 0.725804 -2.71595 20
336 1 6.19768 -7.57831 -11.3938 16
337 1 11.2346 5.67942 -10.6916 10
338 1 -2.58249 -14.8674 -5.77751 17
339 1 -13.9104 -8.05306 -4.77279 14
340 1 -4.02771 -10.0206 -3.05401 20
341 1 11.3399 4.17857 14.5027 17
342 1 12.0161 3.87461 -2.7219 22
343 1 -7.38599 4.34364 -12.418 18
344 1 0.805538 14.7951 1.45494 23
345 1 -13.4075 2.23349 -6.1748 19
346 1 -9.92471 7.83666 6.15217 19
347 1 -7.85262 10.0448 1.3126 20
348 1 -5.98315 4.68472 6.97633 21
349 1 12.9215 5.49041 11.5806 18
350 1 8.24075 -1.38181 -4.58173 23
351 1 8.33336 -3.42017 15.1759 13
352 1 13.1647 0.645761 -4.61692 21
353 1 -4.97782 -15.8804 -3.46686 17
354 1 -2.87452 -7.58936 -4.54285 20
355 1 -1.32944 10.2469 3.58315 22
356 1 -8.3984 4.34549 -4.73177 17
357 1 7.12559 -10.6482 -2.4363 18
358 1 9.22278 -1.3156 7.69108 19
359 1 -14.5353 -5.3847 -7.03845 11
360 1 -6.86053 -9.81482 3.34914 22
361 1 -8.06094 -7.35156 14.8328 13
362 1 -3.35166 9.04205 -0.590007 19
363 1 -12.8207 -10.4987 -1.96106 10
364 1 7.24338 9.62654 15.5594 15
365 1 -8.25148 6.57314 -2.61736 18
366 1 -0.122547 13.1784 -9.06859 13
367 1 5.68864 11.1891 6.26735 19
368 1 -13.857 -7.27757 -2.00328 13
369 1 -1.28203 -9.65515 -7.65982 20
370 1 -11.9177 -0.40286 7.41024 20
371 1 -14.1825 7.28772 -3.48817 15
372 1 4.69436 -9.92365 5.41343 18
373 1 -3.09173 -13.1505 -3.16954 20
374 1 12.8344 11.3564 9.9661 10
375 1 6.91939 8.79348 -15.2458 11
376 1 -12.0831 5.0624 -11.4944 12
377 1 -1.23055 16.3753 -9.18328 13
378 1 -9.45254 6.94844 -6.11032 17
379 1 -2.74505 -13.6031 4.2788 19
380 1 12.119 5.51107 5.61884 19
381 1 1.0878 9.55091 -15.0462 14
382 1 -3.20348 3.61556 8.77654 19
383 1 -17.2882 2.83557 -0.201302 8
384 1 -8.65129 4.02548 5.23971 19
385 1 -4.77726 -15.6997 5.62242 18
386 1 10.1445 -7.51955 -10.0573 17
387 1 -12.3501 1.68074 4.21781 14
388 1 -13.526 -0.298315 10.5117 18
389 1 -13.6812 7.93849 7.21111 11
390 1 -7.79938 2.8117 -16.3178 14
391 1 7.1169 -8.95144 -7.36438 17
392 1 -0.158693 -8.90693 -12.2796 20
393 1 -3.30265 -2.33118 11.656 20
394 1 -4.408 3.51065 -17.0203 12
395 1 6.28016 -13.1861 0.913481 16
396 1 3.20578 15.2376 -8.10041 16
397 1 -11.679 10.7209 6.87994 12
398 1 -4.99482 -1.8891 14.917 18
399 1 -11.4184 -7.27009 -11.0646 10
400 1 -4.94304 -7.25432 8.83421 16
401 1 9.30096 -4.12682 8.803 19
402 1 2.42992 0.655424 -9.53899 18
403 1 7.13455 -4.74467 6.35769 21
404 1 15.2612 7.22681 -2.77027 10
405 1 -2.88463 3.66559 12.0321 18
406 1 1.81368 11.8028 -2.77436 19
407 1 5.01047 -7.01202 7.82447 21
408 1 -1.76955 -15.5178 -2.38305 20
409 1 -3.33861 6.58747 16.7208 13
410 1 -3.21118 15.5022 6.56009 19
411 1 -8.74612 -11.1956 -4.95781 15
412 1 10.5743 15.3991 2.68685 9
413 1 5.68378 4.53213 7.01276 24
414 1 -6.06723 3.43728 10.4245 18
415 1 -5.71969 -6.79262 -2.4483 22
416 1 -12.0809 2.04633 10.859 20
417 1 -8.37338 -8.37959 -6.69727 20
418 1 -7.31078 14.7329 7.59962 15
419 1 -2.70848 -11.6251 -5.88334 19
420 1 -2.96696 -9.36173 -13.0895 20
421 1 -5.23118 -13.6344 3.16069 17
422 1 7.38126 1.10007 7.05613 22
423 1 -5.18005 -5.46437 15.1529 13
424 1 -10.1932 7.02346 -12.1092 13
425 1 10.3249 5.70851 -1.30443 22
426 1 -7.54976 -14.1288 -3.05877 15
427 1 -1.0212 17.4137 1.10351 11
428 1 -1.25883 7.36772 -7.62048 21
429 1 -1.37505 10.7022 12.2236 21
430 1 -14.4071 -1.29798 -2.49514 14
431 1 -0.252436 17.1908 -3.92112 16
432 1 5.63464 12.3428 -7.65441 18
433 1 -6.41774 -7.33535 -8.42057 22
434 1 3.5077 2.44516 16.7048 16
435 1 1.67929 -14.4028 -9.16687 11
436 1 -0.226293 -1.28309 -9.48598 20
437 1 8.54417 -14.9538 2.54591 14
438 1 -10.2244 8.91591 2.78753 20
439 1 2.30755 5.54132 14.5715 21
440 1 7.26046 6.35216 -3.25977 17
441 1 2.62578 9.43888 -1.06882 19
442 1 -8.2576 9.43976 -10.795 15
443 1 4.44243 6.35857 -8.59513 21
444 1 -14.3129 -4.4025 -0.552202 14
445 1 4.98237 16.8335 3.82509 12
446 1 -3.80629 6.13725 -13.3721 19
447 1 11.0364 8.401 0.818777 17
448 1 7.29791 15.9755 -8.34372 11
449 1 7.95335 -7.78822 -0.907174 21
450 1 14.6551 3.74892 -0.6206 15
451 1 -0.321336 1.56654 -10.9194 19
452 1 -0.0181506 -13.5424 4.8282 18
453 1 2.98283 -10.2085 9.09134 14
454 1 -9.07485 3.25813 -9.51802 19
455 1 -9.71521 -13.0588 7.74113 14
456 1 1.42783 -11.4706 -9.47732 14
457 1 7.75782 12.5309 6.93688 18
458 1 2.73125 4.76977 -10.9241 18
459 1 2.21906 -0.254491 15.8101 15
460 1 -15.1982 2.46903 11.8282 9
461 1 -2.22085 -20.0623 0.967393 13
462 1 -12.4338 -4.58519 2.40426 18
463 1 10.365 -4.0779 -4.38362 17
464 1 11.3962 -1.30829 -2.88293 22
465 1 -3.19979 6.36339 -6.25863 22
466 1 1.65408 -6.02924 -12.221 19
467 1 5.96129 4.08179 -9.9665 22
468 1 7.23551 -3.96992 -5.71587 19
469 1 -5.25969 0.567689 16.3404 16
470 1 7.40047 12.3225 3.58597 15
471 1 -2.83119 -1.45299 -14.985 16
472 1 6.51925 3.38354 -17.0055 12
473 1 -7.99374 -4.72027 7.68058 19
474 1 -2.80482 14.3933 -0.435318 20
475 1 -9.62557 -4.10161 -12.224 13
476 1 -16.7153 0.462308 2.52643 11
477 1 -3.55009 -10.0353 -15.8567 13
478 1 -4.10671 -12.3586 11.7199 13
479 1 -0.173088 9.82976 -6.12418 18
480 1 16.4748 2.79198 9.55509 9
481 1 13.1587 5.74147 -0.337261 19
482 1 -10.0917 -11.793 -0.183467 14
483 1 0.180905 -9.35761 -1.67058 18
484 1 1.54362 -4.15277 -15.9238 11
485 1 -7.0075 11.614 10.0932 18
486 1 2.65366 -5.21333 -9.322 18
487 1 11.4413 -1.27503 0.364248 20
488 1 5.10449 18.2569 -7.61441 9
489 1 4.93492 -9.51617 2.33173 20
490 1 15.5986 2.91799 -8.15376 12
491 1 4.3895 10.5132 12.8478 19
492 1 -8.55377 3.39458 8.21907 22
493 1 6.83336 12.2086 10.554 18
494 1 8.26603 -0.844299 17.1508 12
495 1 0.86511 3.58215 -15.4491 16
496 1 -5.86167 -6.75046 -5.83836 22
497 1 -0.86116 -3.95154 12.3382 19
498 1 7.64184 10.0099 8.47051 20
499 1 8.23821 8.93905 -8.39465 22
500 1 -6.68024 10.176 -5.3592 19
501 1 -1.30463 12.6649 -4.26351 17
502 1 10.4797 -3.85803 13.1276 12
503 1 10.6934 3.38164 -6.34057 16
504 1 12.0155 -12.1572 -4.83647 9
505 1 12.2314 8.71463 10.5081 18
506 1 -15.0554 -6.76071 1.40819 11
507 1 -4.93819 11.9083 -10.8874 15
508 1 -3.03767 -2.15922 8.82405 20
509 1 -13.0085 0.552202 13.4678 10
510 1 -4.62643 15.4165 -10.7832 10
511 1 5.17876 -12.9535 -2.7059 19
512 1 5.40475 -0.998164 -9.31076 24
513 1 -2.54411 16.8676 -5.62509 13
514 1 -8.00389 -7.97321 -12.3238 14
515 1 4.54046 -15.6298 2.00046 21
516 1 -11.2073 -8.12804 -2.44725 19
517 1 1.95178 12.2713 -14.3666 10
518 1 -1.31247 10.5924 15.3543 11
519 1 -10.5745 -5.04732 8.34793 18
520 1 4.54314 7.47731 -4.09314 20
521 1 2.63604 -8.83012 -10.8136 20
522 1 2.79833 -8.79687 11.916 11
523 1 -11.2132 3.94809 1.05791 19
524 1 5.42756 4.32838 18.4589 12
525 1 6.66488 16.5898 -4.91551 11
526 1 12.6488 -6.16462 -4.95907 16
527 1 4.13332 9.27083 9.85992 20
528 1 0.649889 4.58856 -18.3258 8
529 1 -5.33647 -14.4666 10.2754 14
530 1 8.99582 2.15152 -15.1171 10
531 1 4.28096 13.7908 5.6402 22
532 1 13.1396 5.53904 -8.74405 14
533 1 0.381281 -1.63952 -13.0947 21
534 1 -1.0222 -10.011 -4.3521 19
535 1 -12.3512 -4.48787 -12.2774 9
536 1 11.5423 2.99793 0.407475 23
537 1 15.1746 4.42699 -3.17541 16
538 1 8.1423 -5.43173 -8.80468 21
539 1 15.2758 7.27721 12.2512 13
540 1 6.53332 -11.5858 -5.48812 21
541 1 3.95712 5.75941 -17.2578 13
542 1 8.26787 10.539 -0.0213006 15
543 1 -9.52491 0.827652 0.377039 22
544 1 9.16913 8.88726 13.0993 15
545 1 11.7554 7.41404 -3.72556 15
546 1 12.7738 -2.19957 2.80797 16
547 1 10.5959 6.51425 -7.28668 18
548 1 7.0741 2.98584 14.2684 18
549 1 16.8069 4.21418 12.181 9
550 1 1.63772 -4.70189 10.5931 15
551 1 12.7731 12.819 -3.0131 14
552 1 -0.188619 0.682359 14.7079 18
553 1 15.2371 -1.32547 -3.41889 15
554 1 9.50251 3.93404 11.6962 18
555 1 -6.87124 1.34916 -7.64954 18
556 1 13.9015 4.99873 2.94239 16
557 1 8.24742 -7.98595 2.76764 20
558 1 -10.7063 6.79798 12.1087 19
559 1 9.59895 10.877 11.4631 17
560 1 10.6118 1.21542 12.353 16
561 1 1.75535 9.7045 8.30271 20
562 1 2.61023 14.8759 8.58795 13
563 1 -0.865508 -16.3685 2.66934 20
564 1 -5.19362 9.28009 -2.75559 21
565 1 11.4466 11.6438 -8.33355 15
566 1 11.6899 -1.66546 -12.2519 13
567 1 0.63154 15.9781 -1.10293 18
568 1 -2.83573 -13.5015 -8.49372 15
569 1 13.6971 -6.94021 -10.6979 9
570 1 -11.8326 2.37139 8.02933 18
571 1 -5.23713 8.63418 -11.0987 18
572 1 -5.10132 -18.9831 2.70174 12
573 1 -5.23054 2.94269 -13.2552 20
574 1 -11.7477 0.526966 -3.97578 18
575 1 9.72305 -6.29749 5.97326 16
576 1 12.7747 9.95958 4.49949 15
577 1 1.45817 -10.7669 6.64188 18
578 1 -13.7526 0.28068 -7.77792 12
579 1 1.14438 1.46679 -17.9604 10
580 1 -2.11345 7.6304 13.7669 20
581 1 6.99349 10.555 -12.7719 16
582 1 12.7622 -1.05843 12.1492 14
583 1 8.9078 8.06473 -5.65658 19
584 1 12.5314 12.5687 2.0008 13
585 1 4.19963 -13.6827 -7.44021 17
586 1 -11.0808 -2.36744 15.335 9
587 1 10.5621 -3.68106 5.34205 17
588 1 1.6341 12.6406 11.099 15
589 1 7.77139 14.1481 -11.4397 12
590 1 -13.495 10.2883 -5.04798 12
591 1 8.048 9.34355 2.52967 16
592 1 -7.69296 -14.5967 0.237469 15
593 1 7.36004 -4.7525 3.382 19
594 1 7.467 15.4849 2.28552 16
595 1 -4.94523 6.94455 9.34252 17
596 1 -8.86452 -6.58225 2.14871 19
597 1 -13.4965 -2.7289 -9.13386 15
598 1 8.21575 -0.17078 13.0746 17
599 1 -2.7649 -9.05708 11.5671 17
600 1 6.98879 5.83821 11.533 19
601 1 -4.71289 12.7674 1.58003 21
602 1 8.30152 3.66332 2.41079 20
603 1 8.29525 3.50635 5.28798 18
604 1 3.52167 1.7175 -16.3451 15
605 1 -8.74167 -1.79049 8.65478 21
606 1 10.4165 1.45488 -11.2473 16
607 1 10.1665 -9.88482 -7.26396 16
608 1 9.42384 4.69655 7.20868 20
609 1 -10.375 0.975628 15.0711 13
610 1 8.28477 7.35258 8.28476 18
611 1 0.411188 -3.09522 15.1226 13
612 1 -2.53837 7.03995 11.3254 16
613 1 -0.887396 -4.05267 -14.3026 19
614 1 -6.01937 3.26481 13.6326 21
615 1 4.56629 4.14353 10.7266 21
616 1 -10.7217 -16.2671 7.99653 10
617 1 13.9208 9.34076 0.0695053 15
618 1 8.23647 -13.5778 -4.12883 16
619 1 8.05543 13.3417 -2.28908 18
620 1 10.153 12.0377 4.32028 15
621 1 4.99261 0.250855 -18.1489 9
622 1 2.22338 15.5751 -4.67486 17
623 1 13.9323 12.8104 -0.383432 14
624 1 -5.11706 -9.54909 -0.0840602 21
625 1 -0.238799 -0.277098 -15.084 17
626 1 -10.9645 11.214 0.575328 20
627 1 8.69793 -5.36144 -11.8197 20
628 1 11.1023 8.53636 -10.1932 15
629 1 11.2123 14.7045 -2.24495 15
630 1 6.61035 10.4258 -4.63708 19
631 1 12.4543 1.95624 14.1077 16
632 1 10.8668 -1.01623 14.7382 15
633 1 -2.96626 -11.8344 9.47899 17
634 1 -4.27912 9.2528 -13.9266 14
635 1 4.07526 12.1443 8.91964 20
636 1 8.28945 -6.80448 -14.4683 17
637 1 4.52593 1.80028 8.56567 22
638 1 6.8943 13.73 -5.03655 16
639 1 8.66619 9.74361 4.94893 18
640 1 13.8636 -7.20028 -2.19404 15
641 1 6.78913 7.27997 17.5524 17
642 1 -13.565 -3.58701 8.02872 19
643 1 1.85808 -16.3526 0.822948 19
644 1 -9.40747 13.8304 2.06652 14
645 1 4.71685 10.2492 1.09761 18
646 1 -13.4238 -2.88597 5.10439 15
647 1 -1.11053 5.41926 18.1103 10
648 1 -4.56341 7.16428 -16.1456 10
649 1 -7.47487 7.64534 -13.3785 12
650 1 3.69763 -13.515 0.720765 18
651 1 8.0268 11.2248 -6.87752 19
652 1 -13.4711 5.2826 12.5198 14
653 1 5.73393 -1.20543 -12.1883 18
654 1 2.20181 -14.445 6.94024 12
655 1 2.26145 11.9601 0.322223 19
656 1 -3.45418 1.63354 14.1846 17
657 1 -7.45511 -9.67199 -10.2263 16
658 1 -6.11132 -10.7143 -13.5595 12
659 1 -5.63234 -12.9649 -5.38199 20
660 1 0.206021 18.2129 -7.44299 10
661 1 4.79498 -4.00213 -7.82818 22
662 1 -3.9364 12.2533 7.42372 17
663 1 4.36411 -10.1338 -7.56826 20
664 1 6.56709 -16.3927 0.236162 14
665 1 2.16518 -7.46084 8.66918 18
666 1 16.691 3.16097 -5.72678 11
667 1 1.4784 -14.8783 -5.75231 17
668 1 -11.5678 -1.88467 10.0977 20
669 1 -3.91151 -18.4288 -1.68374 10
670 1 -6.44591 -11.4488 -3.03406 20
671 1 -9.89801 0.607381 9.69252 21
672 1 -7.79951 -17.2475 2.81683 12
673 1 15.2138 5.96812 -6.29859 12
674 1 -5.86213 16.637 5.20335 14
675 1 -12.489 7.72401 1.29235 20
676 1 10.5849 -3.68526 1.91124 16
677 1 -12.5847 -1.47269 -12.0327 14
678 1 1.87538 12.8376 -6.10232 18
679 1 7.54532 1.77089 -6.10579 21
680 1 7.23423 11.4299 13.4715 15
681 1 8.61391 4.3298 -4.12363 18
682 1 -16.6395 2.15399 -6.41955 6
683 1 -12.3504 -7.3168 -7.37403 15
684 1 0.244686 7.54458 16.5804 14
685 1 5.60651 8.97114 -10.5195 22
686 1 10.6876 10.7441 7.19222 19
687 1 -5.17236 -4.24945 9.34637 18
688 1 -0.777418 -19.2249 -2.20004 13
689 1 -8.58794 -18.0338 7.36992 12
690 1 -3.06147 -5.55583 10.6078 18
691 1 15.9523 9.41143 9.75393 11
692 1 5.16283 -5.90278 -13.6201 18
693 1 -9.81349 9.02911 -1.04933 18
694 1 7.00519 6.4757 4.12609 15
695 1 -8.39325 -1.40529 5.60876 20
696 1 8.60552 8.04788 -12.024 14
697 1 -0.684762 -17.5252 -4.56713 13
698 1 1.27953 -19.3108 0.403828 13
699 1 -1.61326 -17.1827 -0.182667 22
700 1 7.77161 5.36347 -7.12171 22
701 1 6.91076 17.9977 -0.578324 10
702 1 -2.2529 1.37404 -13.4283 16
703 1 -0.985548 -1.0935 10.5547 19
704 1 0.684839 7.16558 -16.9944 12
705 1 -9.63205 -0.573207 -12.2672 20
706 1 -10.4514 -2.48975 -3.2965 17
707 1 2.89534 18.3878 -5.65079 11
708 1 -4.21494 -4.30695 -15.6786 9
709 1 11.3999 9.62582 -6.13196 15
710 1 10.3303 -6.66475 0.869488 15
711 1 -6.49659 7.65023 13.1251 16
712 1 7.2096 -10.9157 3.45763 16
713 1 13.6252 -8.18713 0.763591 11
714 1 12.8565 -3.73423 10.7343 12
715 1 -0.603861 10.752 6.55001 18
716 1 -10.6753 4.74107 14.1793 15
717 1 -7.90355 5.46083 11.3878 18
718 1 -3.50682 -13.858 8.24437 14
719 1 6.60636 8.80672 11.421 21
720 1 -15.7382 0.41989 -0.220252 12
721 1 7.28378 -4.54195 -2.91683 21
722 1 -11.4662 12.5781 -4.77845 15
723 1 1.29213 -17.7028 5.93522 13
724 1 2.63891 1.86306 13.6099 23
725 1 -1.57941 13.7888 4.49733 22
726 1 2.90737 -7.83101 5.75298 19
727 1 2.10769 4.22248 11.8869 18
728 1 -11.9166 -4.88542 -1.8428 21
729 1 1.81393 10.9091 13.9924 13
730 1 6.15527 12.7569 0.50135 17
731 1 -9.62327 -10.0982 5.22902 19
732 1 -2.918 -19.0039 4.56745 14
733 1 5.5023 -3.86276 9.04559 16
734 1 11.0529 -5.89936 10.8381 10
735 1 4.53545 7.71475 5.53021 18
736 1 -0.267289 -6.84419 -9.20848 19
737 1 -2.68792 3.97271 -11.4417 20
738 1 -3.47077 0.948506 10.4313 18
739 1 -1.15341 16.6474 4.13392 13
740 1 13.1929 0.659017 4.11416 14
741 1 3.83999 10.8405 -5.62257 20
742 1 -4.51297 9.33711 15.4158 14
743 1 10.8255 5.0039 9.56385 21
744 1 8.22728 -2.47999 -10.815 18
745 1 -5.19886 -13.3821 -0.487558 21
746 1 12.6052 -1.6543 6.31606 17
747 1 3.23316 -2.49582 -10.6149 21
748 1 1.06191 7.9151 13.5092 20
749 1 8.5092 -12.8608 -7.63996 12
750 1 6.59907 6.71646 -17.5121 9
751 1 13.4834 2.64284 -11.1417 10
752 1 12.9202 -4.61135 -0.259807 17
753 1 1.45394 -6.06589 13.3343 12
754 1 -1.90043 -10.6725 -9.99368 19
755 1 10.0438 17.3207 0.413308 10
756 1 -12.8013 7.04761 4.12587 17
757 1 13.615 3.23511 -5.93629 21
758 1 16.4376 5.92219 4.39947 10
759 1 2.0908 -6.73912 -15.0417 16
760 1 -8.34197 14.0969 5.00279 15
761 1 15.2056 7.8137 6.65981 19
762 1 12.4598 13.9371 -6.12524 9
763 1 3.83314 4.25992 -13.8846 15
764 1 10.2273 -3.7366 -1.19766 20
765 1 -12.4768 1.66 -1.49315 22
766 1 10.6811 8.03026 4.36947 18
767 1 -11.6683 -7.33398 0.813206 17
768 1 -10.6127 11.2564 -9.91452 10
769 1 5.25867 6.4719 8.73333 19
770 1 -10.0344 1.8354 -6.60689 18
771 1 -10.4108 4.27322 10.6891 21
772 1 -4.14694 6.19737 -9.55756 21
773 1 11.7069 -7.2524 -7.92321 14
774 1 -10.678 -9.01449 -4.94268 18
775 1 10.4199 -7.86903 -2.40714 17
776 1 -15.4459 5.61582 2.10502 11
777 1 -7.77557 -8.51441 -3.7394 20
778 1 13.4421 5.92889 8.74747 19
779 1 -4.12221 -7.93754 5.28861 17
780 1 9.49653 2.03711 16.4486 13
781 1 12.543 -4.64072 7.47147 10
782 1 8.3879 -2.03047 5.25429 18
783 1 -8.43579 3.45686 1.81887 20
784 1 1.2687 9.86909 11.2008 20
785 1 2.83441 9.52842 -7.70605 22
786 1 -3.17199 -7.11057 -17.5949 5
787 1 -5.06438 17.2762 8.46788 10
788 1 -10.4041 -10.3262 8.40953 14
789 1 9.90812 14.4446 -5.14283 17
790 1 2.04345 7.18448 10.3143 22
791 1 15.1047 -4.5495 -4.75475 10
792 1 7.4063 -6.18516 9.78269 14
793 1 0.129728 12.4518 -11.8739 16
794 1 2.74979 12.3273 -8.95405 20
795 1 -6.00881 -1.00448 10.2797 18
796 1 15.1519 4.5828 7.12803 16
797 1 -4.23046 -4.72435 -9.05607 20
798 1 15.6496 11.3636 1.65542 7
799 1 -13.976 4.13021 -0.259559 17
800 1 -4.53002 -10.8929 5.27872 19
801 1 4.99818 15.6171 -10.1161 14
802 1 3.69083 -1.57056 10.0438 18
803 1 0.943914 -13.1777 -0.730723 19
804 1 -6.52688 15.3415 1.92041 16
805 1 -13.7669 4.28666 -3.73263 17
806 1 11.1647 -2.03091 -6.01422 20
807 1 -0.863563 -11.6932 -13.4078 14
808 1 -9.50983 6.15558 0.720957 17
809 1 13.8401 11.0875 -5.62806 12
810 1 -6.70388 1.27758 8.90375 19
811 1 8.03571 -0.881 -16.3085 11
812 1 -7.48042 -11.1225 -8.01129 15
813 1 -0.161039 -12.3048 -7.0482 21
814 1 -3.83857 12.0059 14.2343 15
815 1 8.40651 -13.5346 -0.811386 19
816 1 -1.6814 11.5522 -14.6359 12
817 1 16.845 1.70953 -2.43663 8
818 1 8.18298 6.34801 4.85055e-04 19
819 1 2.56754 -18.2798 -2.31623 11
820 1 7.29052 -3.63127 -14.25 18
821 1 10.1796 0.80428 2.02707 19
822 1 0.0628492 5.12585 -12.3072 19
823 1 -2.66269 -8.45509 8.14141 16
824 1 5.71395 10.8758 -1.74551 16
825 1 4.74257 1.57961 -7.85003 20
826 1 -11.2212 3.41649 -3.58294 23
827 1 -13.4269 5.07043 8.75928 15
828 1 2.57106 5.85149 17.4635 17
829 1 -8.82267 -7.84688 8.86944 18
830 1 3.62101 10.8719 4.57373 16
831 1 2.0027 -14.9588 3.95001 17
832 1 2.00283 8.89179 -4.49284 20
833 1 -4.55824 9.34953 11.9278 21
834 1 -6.9286 0.108224 13.8324 21
835 1 -8.7584 12.1055 7.95553 15
836 1 10.142 0.779445 -1.3146 24
837 1 -4.96506 -8.03418 13.6136 15
838 1 4.57169 -12.987 4.26108 22
839 1 12.302 2.56221 10.3475 21
840 1 5.83065 -6.61386 -5.98845 23
841 1 7.21102 -11.4414 -11.6279 9
842 1 -8.39443 2.002 -13.3217 20
843 1 -2.07231 1.52849 -16.9111 14
844 1 5.6082 14.1108 8.4788 15
845 1 -10.5216 -5.00536 14.1506 12
846 1 -5.69956 8.11444 -7.90646 19
847 1 -14.38 5.09271 -6.68343 13
848 1 12.6556 15.4471 0.0316422 11
849 1 -10.7617 -16.4589 4.67324 6
850 1 -3.00225 9.26021 6.65162 19
851 1 14.1047 10.1449 7.42455 14
852 1 -10.2648 -11.5361 -2.55262 13
853 1 3.69007 16.6362 6.55287 10
854 1 -8.35013 -0.998765 16.3668 13
855 1 -0.862811 -15.55 -7.83979 12
856 1 11.9623 -0.326154 8.88928 21
857 1 3.4095 -19.3773 3.80693 11
858 1 5.50969 9.87392 18.422 10
859 1 -4.11106 -5.17418 7.17183 21
860 1 11.3098 1.56087 -13.7191 10
861 1 8.59021 -10.658 0.602893 15
862 1 2.32728 1.56848 -13.0564 15
863 1 -11.668 2.21637 -12.362 18
864 1 -6.59909 4.96866 -14.9868 17
865 1 -9.7309 -4.11448 0.158551 21
866 1 -6.07743 6.92034 -4.88482 21
867 1 -4.39845 5.11664 14.515 17
868 1 9.87915 -1.44177 10.9178 21
869 1 -9.10514 -6.35604 5.71957 19
870 1 14.0487 -1.8608 -0.339516 16
871 1 -1.6135 7.26231 -11.0252 22
872 1 13.816 7.74404 2.14843 16
873 1 -1.78239 16.2208 9.51412 11
874 1 -15.0097 -6.97077 4.80271 10