ITEM: TIMESTEP
3000
ITEM: NUMBER OF ATOMS
2000
ITEM: BOX BOUNDS pp pp pp
-30.0 30.0
-30.0 30.0
-30.0 30.0
ITEM: ATOMS id type x y z Coordination
1 1 -9.60271 4.35949 -14.7467 16
2 1 -4.14315 -10.264 -9.26053 21
3 1 2.73716 12.3209 12.4694 14
4 1 8.13114 -11.5913 6.55187 9
5 1 -10.8583 6.4584 -4.11404 18
6 1 10.9855 -10.0971 -10.7883 15
7 1 -11.2143 3.92535 -6.57326 16
8 1 0.183704 -6.42502 10.9837 17
9 1 -8.87143 -0.148952 -11.7494 21
10 1 -14.0661 -9.75159 8.07714 7
11 1 12.6315 2.43373 -8.99607 17
12 1 -4.66471 -16.0683 2.49832 18
13 1 -11.9212 -7.50337 4.88383 17
14 1 1.22531 4.48377 16.5057 15
15 1 -0.184829 2.99531 10.9835 17
16 1 -1.4453 10.8472 -9.27351 17
17 1 1.63014 0.135932 12.5723 18
18 1 -7.85346 -0.680399 -16.7343 11
19 1 -12.9352 -3.71208 13.3427 12
20 1 14.2228 4.30432 9.11577 18
21 1 1.73123 10.4523 -11.9502 17
22 1 4.38418 5.30099 -13.0352 17
23 1 14.7978 2.25864 12.5265 16
24 1 -13.7317 4.87286 -9.07719 16
25 1 -10.8985 10.5464 10.0667 10
26 1 6.50567 -14.2529 4.68081 12
27 1 3.46647 -13.6745 -12.1087 11
28 1 11.0506 -13.2257 0.520271 12
29 1 -7.69285 -13.8369 -5.31995 13
30 1 -11.8512 -5.39649 11.1937 18
31 1 0.514576 -6.56624 -14.9168 19
32 1 9.88635 -11.0459 -13.5435 10
33 1 -2.39362 5.25783 -17.1109 12
34 1 0.535189 4.39696 13.9397 17
35 1 -1.89202 -11.7698 7.65909 16
36 1 8.02508 -5.60201 13.9337 8
37 1 -13.0319 0.251517 2.08296 17
38 1 -16.135 -1.43534 8.80112 15
39 1 -4.88963 13.497 -1.79196 22
40 1 -2.57872 -13.5894 -11.1075 14
41 1 0.733433 3.50391 -10.0867 19
42 1 5.83796 -5.01435 -10.4274 18
43 1 -2.29296 -3.63387 15.5348 11
44 1 -12.7631 6.60044 -1.45371 20
45 1 4.45192 11.8392 -11.9021 17
46 1 1.03834 11.3486 8.375 20
47 1 -10.3614 9.00196 -8.68207 15
48 1 -1.59775 12.8345 -1.91381 21
49 1 1.64139 -11.0071 2.22488 15
50 1 5.58805 -8.42358 -5.50264 18
51 1 5.93944 -6.26401 -16.1695 9
52 1 -9.17657 8.81127 12.1499 15
53 1 -11.3425 -3.71721 -9.89737 18
54 1 -9.07388 9.48348 -3.77045 22
55 1 -6.29752 -9.90258 8.41723 18
56 1 -3.23467 13.9594 12.2732 13
57 1 -12.5934 7.27724 -6.77064 18
58 1 -6.72017 10.3492 13.5479 17
59 1 -5.0121 -16.8733 8.3918 13
60 1 3.84187 5.5803 6.50629 17
61 1 6.20304 -17.2487 -4.59258 10
62 1 4.81286 10.7659 15.5478 13
63 1 -14.3094 2.79279 -11.8439 11
64 1 -13.6138 7.925 -9.47974 11
65 1 4.95172 6.25443 12.738 19
66 1 12.2806 -2.501 -10.5487 12
67 1 8.32744 -12.8813 3.22605 15
68 1 -17.4519 -1.66437 6.15095 9
69 1 5.46353 15.0307 5.98354 18
70 1 5.91197 -2.18816 13.9926 17
71 1 -8.36276 -14.1259 7.39542 20
72 1 -11.5304 -1.96426 0.615417 19
73 1 12.0719 2.86339 7.64098 18
74 1 -1.75488 11.1744 9.87196 20
75 1 -3.50144 -7.53315 -7.677 19
76 1 -13.4415 8.39477 9.37874 11
77 1 -8.01399 11.126 -1.67197 19
78 1 -2.84677 8.28483 -9.20079 20
79 1 9.46854 13.3977 -9.32936 13
80 1 5.39702 -6.71192 3.52962 19
81 1 5.59664 -8.27098 9.89362 13
82 1 -5.93689 15.7403 -4.32555 12
83 1 -10.4424 11.52 4.64969 18
84 1 -8.86905 -4.36654 16.9426 10
85 1 -7.28109 9.99736 6.28208 18
86 1 -5.97803 -5.58837 11.9187 21
87 1 13.228 -8.31864 -6.16822 12
88 1 -11.3055 3.731 5.85363 19
89 1 -8.99214 -14.5155 4.5645 19
90 1 9.53782 -7.45721 -5.71106 20
91 1 5.6511 0.537029 -10.9892 16
92 1 -4.8321 0.234176 -16.0153 15
93 1 -4.00001 11.4648 0.268378 19
94 1 -7.5592 5.98094 -10.0081 20
95 1 2.41091 10.025 18.2947 10
96 1 -0.278876 13.7707 -5.30681 21
97 1 -14.02 11.1738 0.632481 10
98 1 0.0336643 10.2803 0.0512446 19
99 1 -5.00351 -8.23049 10.351 19
100 1 15.1396 -0.666998 10.3308 10
101 1 -0.204 -5.46227 -10.6707 16
102 1 4.44693 -7.1059 -8.80858 18
103 1 -1.07828 5.44214 8.92595 21
104 1 6.20858 -1.07624 17.0301 10
105 1 -8.49791 -6.69595 -1.47971 22
106 1 -7.96567 -9.25966 -2.62593 21
107 1 9.98003 -9.35796 2.83105 11
108 1 -6.4652 7.61324 -1.3504 20
109 1 7.92921 4.31959 -14.8352 14
110 1 5.40214 15.877 -0.559793 15
111 1 -8.24254 -13.189 12.3845 12
112 1 -10.281 -14.0656 10.1222 14
113 1 5.44647 -8.59456 -14.3597 16
114 1 5.20236 7.37405 -8.38207 21
115 1 12.1178 -10.4572 -0.474828 11
116 1 -2.24544 -16.8194 5.60936 11
117 1 -8.97536 -9.8091 0.180878 19
118 1 17.7288 6.79448 10.1095 9
119 1 14.5563 -2.08635 -8.24575 13
120 1 -14.8822 -4.82731 3.78751 12
121 1 11.4489 8.36325 7.57825 19
122 1 15.5098 10.2002 4.38972 11
123 1 -5.72372 3.42584 16.4057 14
124 1 -4.60625 11.3804 9.90716 22
125 1 -6.58366 13.2755 -8.27709 15
126 1 -0.869052 -7.01719 -12.478 17
127 1 9.14882 -12.9737 -11.8982 10
128 1 0.732276 14.9128 -12.2408 10
129 1 8.14793 -2.75585 11.9414 18
130 1 2.08729 -1.40543 -17.9206 10
131 1 -2.96893 9.07265 -5.2276 21
132 1 11.465 -0.164361 -4.55339 14
133 1 -10.1987 10.707 -6.26503 18
134 1 -8.26091 13.4355 0.57987 19
135 1 7.25978 2.48971 -10.1143 22
136 1 8.15864 -8.36407 5.09157 16
137 1 -5.8369 4.51881 -6.38427 19
138 1 -7.58653 13.2549 8.75322 15
139 1 14.1209 8.94059 -8.45221 12
140 1 4.68137 12.8845 -3.00494 15
141 1 -4.71735 17.3696 1.37582 9
142 1 9.88189 9.48132 -1.18591 22
143 1 -5.30061 13.2058 -5.13836 23
144 1 1.86092 16.4736 -8.97994 14
145 1 3.73909 9.99773 -14.0068 16
146 1 -11.4472 -10.1734 2.73491 13
147 1 -14.6218 9.77251 -1.69756 11
148 1 -3.98849 -1.736 -13.6191 17
149 1 -0.390501 -9.91544 -15.3087 14
150 1 9.16471 13.0112 9.8194 12
151 1 0.922172 15.4705 7.8764 17
152 1 -12.8524 -1.32411 -4.84199 18
153 1 -13.3389 12.4317 4.04364 10
154 1 15.2264 -1.21937 -3.01397 14
155 1 -10.5139 2.14003 -16.6872 12
156 1 7.15909 2.54545 17.5777 16
157 1 4.49525 16.5131 2.64983 15
158 1 -2.58269 8.39029 8.76534 24
159 1 2.74696 -8.55018 -15.7568 14
160 1 -4.75009 13.9244 9.55398 15
161 1 -2.32324 12.7084 -7.38757 20
162 1 2.84386 -3.0473 13.4934 16
163 1 -9.80242 -4.41198 4.05367 18
164 1 -4.10705 -12.9632 -14.2551 9
165 1 -10.2769 13.1215 -7.69087 11
166 1 -2.51059 -10.7093 4.25257 16
167 1 3.58404 -16.3252 -5.64357 14
168 1 -3.43957 12.7125 -13.484 9
169 1 -14.4868 1.26653 8.93649 15
170 1 9.65792 9.50129 -4.4422 21
171 1 -7.8541 5.70697 15.7922 12
172 1 -0.745291 -9.54472 9.89203 17
173 1 -8.5562 3.643 -1.10709 19
174 1 1.92494 14.263 4.38767 20
175 1 0.376035 8.08271 8.74959 19
176 1 14.8995 4.15657 14.5718 11
177 1 -7.21515 11.7628 3.46854 22
178 1 12.2905 -5.16639 -7.97068 13
179 1 -6.33296 13.3856 12.1601 12
180 1 -4.61435 1.016 -8.65716 18
181 1 11.1851 -5.97188 2.26184 13
182 1 -5.98271 -3.91358 5.45532 21
183 1 -16.1428 1.05343 5.82374 12
184 1 -7.87503 -10.9608 5.66833 13
185 1 6.28914 7.96987 15.2618 18
186 1 -14.4218 1.23186 -2.78646 15
187 1 -4.59279 -14.1747 0.127046 15
188 1 4.98189 -9.45166 -2.15606 19
189 1 -4.14945 11.6995 3.69204 22
190 1 6.26325 13.6433 11.7999 10
191 1 -10.0958 -2.06216 -6.83258 18
192 1 -7.64052 10.6906 -9.22557 16
193 1 -14.8484 -3.573 -5.01473 11
194 1 -8.40367 -1.18491 12.3222 19
195 1 0.58644 -10.5093 4.55289 14
196 1 2.51659 -13.5112 5.0461 15
197 1 -13.6434 9.06166 4.78419 12
198 1 14.672 3.58115 5.35188 17
199 1 5.10505 4.5683 -6.18235 20
200 1 -6.12638 -7.43684 -14.7277 13
201 1 4.77799 0.989469 11.6687 19
202 1 6.28483 -17.3223 2.37564 11
203 1 -2.2539 9.07915 -11.986 19
204 1 3.32739 -10.2053 -12.6459 15
205 1 8.08931 1.08665 -13.1848 19
206 1 4.00033 8.41519 -16.8263 11
207 1 -5.4645 -3.70813 -8.05089 21
208 1 -3.75673 14.7946 -7.06859 15
209 1 -9.08361 -10.6443 10.951 18
210 1 7.6774 17.1739 -2.69271 10
211 1 -8.95862 2.86376 16.889 10
212 1 -7.37453 13.726 -2.86634 13
213 1 7.30316 2.3548 10.2484 17
214 1 -3.27503 -4.86599 -13.347 15
215 1 -4.64032 10.8357 -7.20278 19
216 1 2.31444 6.16973 -10.3609 21
217 1 -7.4867 -12.5477 9.85942 18
218 1 -8.91094 5.92354 7.96303 11
219 1 -5.75386 8.84518 8.7212 19
220 1 2.28008 -9.41846 -6.67521 18
221 1 -7.00076 -18.0204 -0.418081 9
222 1 11.2934 -14.0846 -3.25559 8
223 1 13.1292 7.93902 15.0666 12
224 1 6.33469 10.3246 -9.37654 22
225 1 0.0416631 9.73785 -3.01754 22
226 1 -9.51629 1.93291 4.12896 19
227 1 -11.6725 10.9337 -1.81854 17
228 1 2.13955 3.27483 8.32119 19
229 1 3.98115 -18.2151 0.434171 14
230 1 13.6456 0.863697 -1.43257 19
231 1 2.38509 8.61868 5.57181 19
232 1 -10.234 5.42436 3.7862 16
233 1 -11.0441 -4.7201 -5.28015 18
234 1 6.72553 6.27139 -11.18 20
235 1 2.07998 0.0260363 9.63902 20
236 1 9.46091 9.78537 -10.331 15
237 1 1.30825 -13.5081 -3.93364 17
238 1 -3.03805 -0.355789 -11.0801 18
239 1 0.467742 -19.174 4.87626 9
240 1 7.98876 0.00927673 -8.72913 20
241 1 -12.1967 -4.69801 5.81352 20
242 1 3.41278 -16.2432 -2.39773 20
243 1 -9.63442 -5.62834 -11.3088 18
244 1 3.17692 14.5679 -0.535582 17
245 1 2.38839 -1.55274 -14.5864 20
246 1 6.37342 4.59113 15.6302 21
247 1 15.2947 2.79213 2.05646 11
248 1 11.1831 -5.16752 -10.5952 11
249 1 -7.82166 -2.57522 -9.23951 18
250 1 -10.1988 2.1285 -9.65669 17
251 1 -7.54475 -15.6544 9.92426 17
252 1 9.90586 1.17125 9.20301 20
253 1 5.30585 -5.09705 12.5494 14
254 1 -4.33168 -7.54434 -11.411 21
255 1 2.15893 6.93387 -13.5571 18
256 1 7.12925 9.49068 -1.75467 18
257 1 -7.15386 -6.18895 4.00334 16
258 1 2.03331 9.23096 2.11591 23
259 1 -6.79573 -2.50097 13.8429 19
260 1 -10.7568 -8.51138 -10.2465 12
261 1 -6.29288 -5.03872 -11.4553 20
262 1 -1.54356 7.10948 -14.4718 18
263 1 -6.43033 -9.72101 -6.71639 18
264 1 -4.06328 -11.3627 2.10226 19
265 1 9.52668 -4.29376 -14.9876 7
266 1 15.6313 1.03232 -8.0991 12
267 1 11.2535 4.09771 4.59574 21
268 1 -8.77048 -4.34989 11.7187 21
269 1 -2.6097 -10.8412 -0.950298 16
270 1 8.62918 5.05879 17.3522 16
271 1 -7.58576 -17.1572 6.22571 17
272 1 -1.23926 -9.38334 1.51517 16
273 1 -2.97491 17.0621 -1.1395 13
274 1 5.02355 -0.0666188 -14.5743 22
275 1 -5.56716 -3.9674 -15.5313 11
276 1 -8.97026 -7.55026 12.2191 17
277 1 4.27495 7.79031 20.3084 9
278 1 3.39549 -12.8605 -2.63314 19
279 1 -5.32511 -12.2948 -10.8726 15
280 1 -10.657 6.43895 -9.51672 18
281 1 11.0546 4.85797 1.11081 21
282 1 -6.12439 3.17259 -9.6935 15
283 1 0.106006 8.76555 -10.2269 17
284 1 6.0973 -13.0886 -10.5099 14
285 1 -6.43934 16.4294 -0.917354 13
286 1 1.41026 11.0805 4.88976 20
287 1 10.1384 1.09217 6.00559 22
288 1 -10.0397 0.596848 6.45092 19
289 1 -2.35337 -6.34421 13.3662 14
290 1 -6.31489 8.50031 3.58006 21
291 1 1.70661 -4.12835 -13.0279 19
292 1 15.5511 10.3336 -2.71506 8
293 1 3.66125 -10.7438 0.0743327 21
294 1 -2.92204 -0.713496 14.8619 12
295 1 -16.0694 -4.69341 7.6345 12
296 1 0.605005 -16.8708 -4.29323 17
297 1 -9.804 8.59491 14.9641 10
298 1 -11.2963 5.99914 14.0589 14
299 1 -14.6763 -4.52908 10.5795 12
300 1 -13.0022 -6.4534 8.07457 18
301 1 14.9138 -4.24605 -1.66427 10
302 1 -11.0676 -8.56699 9.69886 14
303 1 7.82108 -2.75745 -7.42829 18
304 1 9.69802 -11.3385 -2.94189 19
305 1 2.89384 17.6555 -2.15608 11
306 1 -10.9473 13.5801 -0.939295 11
307 1 10.6672 7.23268 11.6064 25
308 1 -11.7649 -1.7892 4.98639 19
309 1 8.2446 -8.91787 -3.53673 18
310 1 -3.73166 9.07035 2.02567 18
311 1 -6.33447 6.95688 6.05905 19
312 1 3.80124 -12.2646 7.93274 10
313 1 13.1437 -4.93185 5.30535 11
314 1 -3.27287 6.519 6.99503 20
315 1 -9.16205 -4.93975 -7.90128 20
316 1 -1.55574 2.06172 16.4668 10
317 1 -2.72915 14.6757 4.27513 16
318 1 9.8367 7.63777 16.5405 14
319 1 -8.15438 12.9561 -5.79639 16
320 1 2.9214 -4.23877 -16.9301 14
321 1 7.53875 -10.2324 -12.3447 19
322 1 -9.36074 2.72187 12.2872 15
323 1 -14.7213 2.99784 3.39937 15
324 1 -6.6063 9.73209 1.34568 17
325 1 7.43861 -0.173926 8.87147 21
326 1 -9.24987 -12.5085 2.08714 17
327 1 7.41534 -7.88481 7.67344 15
328 1 -7.55833 -10.2986 13.924 12
329 1 -15.6663 7.42513 -0.71392 10
330 1 -0.732125 -4.19439 8.8458 16
331 1 2.53858 -13.3793 -6.64557 17
332 1 -4.81295 -2.4041 -10.5132 19
333 1 7.57521 -1.57042 -14.4676 18
334 1 4.04463 12.3119 3.21466 21
335 1 -8.99516 0.817227 -2.7599 16
336 1 5.522 -8.47693 -10.9784 18
337 1 9.27222 3.83755 -12.365 18
338 1 -4.21118 -14.6763 -6.36813 18
339 1 -14.2149 -7.22712 -5.22688 11
340 1 -4.60776 -10.1484 -3.08285 20
341 1 11.8502 4.91615 16.4416 13
342 1 11.7889 3.92711 -1.85554 20
343 1 -8.69532 3.1496 -11.6835 17
344 1 1.01149 13.2902 1.45512 19
345 1 -14.3346 -0.334137 -6.90376 11
346 1 -9.28213 8.59642 4.61869 16
347 1 -9.48263 9.23844 1.90522 18
348 1 -5.38424 3.85972 7.63541 21
349 1 11.8345 4.89834 13.7825 19
350 1 8.25317 -0.858111 -4.64231 15
351 1 8.68475 -2.76602 15.1767 13
352 1 12.6464 1.97565 -6.49869 17
353 1 -5.30097 -15.3725 -3.30037 13
354 1 -3.0976 -7.49961 -4.58541 19
355 1 -0.954579 10.2089 2.83484 18
356 1 -8.45022 4.68874 -4.58999 19
357 1 6.7117 -11.8342 -2.23891 21
358 1 11.0319 -0.958304 8.03784 23
359 1 -13.0516 -2.8958 -7.79444 16
360 1 -7.67171 -9.41211 2.67277 17
361 1 -8.13018 -7.9215 15.7797 10
362 1 -3.01531 9.58655 -1.52749 20
363 1 -11.2057 -10.2206 -1.43733 16
364 1 7.96739 9.86701 16.7147 14
365 1 -8.87997 6.39525 -2.4164 22
366 1 0.584561 13.6207 -8.84083 19
367 1 6.05464 12.2024 5.56273 20
368 1 -13.9831 -7.76556 -1.47812 11
369 1 -0.931043 -9.7028 -6.93987 18
370 1 -12.1536 -0.420997 8.10149 21
371 1 -14.4226 7.61928 -4.3162 14
372 1 5.61538 -9.57877 6.4229 14
373 1 -3.08096 -13.2082 -2.52247 17
374 1 11.7572 10.1061 9.68187 16
375 1 6.47803 7.67555 -14.3506 17
376 1 -12.2458 5.38352 -11.9388 13
377 1 -1.65119 14.9359 -10.0754 15
378 1 -8.53525 7.34546 -6.58679 22
379 1 -3.32537 -13.8769 4.53263 15
380 1 12.9883 5.79105 6.47519 16
381 1 1.13677 8.87798 -16.338 12
382 1 -3.80634 2.2112 10.4143 18
383 1 -15.6823 1.94768 0.538539 12
384 1 -8.38653 4.07914 5.794 18
385 1 -5.84016 -14.5169 5.77387 18
386 1 7.98829 -9.15771 -9.24516 17
387 1 -12.9246 0.753574 5.32996 22
388 1 -14.2493 -1.38682 11.3268 14
389 1 -12.4258 7.70419 6.83186 12
390 1 -7.72565 2.72217 -17.4124 11
391 1 7.66957 -11.4565 -5.78986 16
392 1 0.418325 -9.69789 -12.3537 20
393 1 -3.95931 -3.57882 13.0619 18
394 1 -4.49094 2.81097 -15.1429 18
395 1 6.41907 -13.5728 0.399139 21
396 1 2.9439 12.8594 -6.09793 18
397 1 -12.6525 11.3448 7.31494 10
398 1 -5.6289 -2.37361 16.3626 12
399 1 -12.3153 -5.47813 -11.4831 10
400 1 -5.68976 -6.76238 7.39912 20
401 1 8.60348 -2.86867 8.66943 21
402 1 1.98763 0.662307 -9.27354 17
403 1 7.69667 -4.98213 7.07406 18
404 1 13.9321 8.38496 -4.85029 13
405 1 -2.19953 3.39611 13.5458 16
406 1 1.69251 11.7397 -3.19858 18
407 1 4.57109 -6.1408 7.28188 20
408 1 -2.14214 -14.6546 -4.82688 18
409 1 -3.31187 5.79967 16.9512 13
410 1 -2.8325 15.3904 6.87362 16
411 1 -9.33419 -10.8887 -6.58537 12
412 1 9.70086 14.9127 1.71179 17
413 1 6.66131 5.37382 7.42924 14
414 1 -6.66711 3.57871 10.3451 15
415 1 -5.72551 -6.76089 -3.18786 21
416 1 -11.8624 3.70308 11.5007 18
417 1 -8.75429 -7.80927 -7.90126 18
418 1 -5.65203 13.1034 6.42383 22
419 1 -3.70885 -11.364 -5.73431 22
420 1 -2.97445 -6.93335 -15.1876 18
421 1 -6.19969 -12.7808 3.27842 19
422 1 7.34411 2.25938 6.95885 17
423 1 -6.68917 -5.50245 15.1684 15
424 1 -9.46705 6.34181 -12.8747 14
425 1 10.0758 6.17162 -1.00695 20
426 1 -7.2423 -14.6752 -1.73461 14
427 1 -0.992584 15.8728 1.68009 11
428 1 -0.921051 5.40477 -8.86277 21
429 1 -1.7931 9.45722 11.8758 21
430 1 -12.7928 -1.91895 -2.25951 19
431 1 -0.35322 17.0881 -3.74786 15
432 1 6.54933 12.7882 -7.36272 22
433 1 -6.19736 -7.05644 -8.90639 22
434 1 4.06419 2.33924 16.8564 15
435 1 0.692744 -14.2251 -10.0932 14
436 1 -0.419853 -3.00667 -10.5366 16
437 1 8.67932 -15.3711 1.58273 13
438 1 -11.7033 7.84866 2.35856 17
439 1 3.66644 5.15956 14.9442 17
440 1 7.71247 6.78913 -2.7631 21
441 1 3.16736 9.15609 -1.52428 19
442 1 -8.61295 8.64639 -11.3533 14
443 1 4.65654 3.84418 -9.92007 22
444 1 -13.4316 -4.19264 0.115173 15
445 1 3.07236 16.6122 5.22353 10
446 1 -3.79903 5.18566 -13.1384 18
447 1 11.6738 7.84515 1.60684 21
448 1 8.04915 15.6618 -7.26805 11
449 1 8.11926 -8.73298 -0.78084 19
450 1 15.4913 3.43565 -1.26916 14
451 1 -0.334404 0.382515 -10.9253 18
452 1 -0.427438 -13.514 5.33388 17
453 1 2.87935 -10.3013 10.532 12
454 1 -8.73164 4.26195 -7.66403 17
455 1 -11.4668 -14.3817 7.1554 13
456 1 -0.069357 -11.3847 -9.73554 20
457 1 8.65147 14.4857 6.89442 12
458 1 1.86105 4.26797 -13.3859 20
459 1 3.28279 -0.904446 15.4415 13
460 1 -13.8956 1.73491 12.3599 15
461 1 -1.46706 -19.2101 0.0967951 15
462 1 -11.8692 -4.94144 2.63676 19
463 1 12.7993 -3.06556 -5.45013 14
464 1 11.798 -1.44705 -1.7642 14
465 1 -3.41636 6.44865 -6.35552 24
466 1 1.15998 -7.97219 -9.51081 21
467 1 5.95369 2.83685 -12.7652 18
468 1 9.75796 -4.33612 -5.11698 15
469 1 -6.97951 0.456169 15.07 17
470 1 6.97138 11.5068 2.93858 18
471 1 -2.49588 -1.30561 -16.616 16
472 1 6.07515 2.50357 -17.233 13
473 1 -7.31909 -4.63096 7.95577 19
474 1 -2.62872 13.9088 0.783904 21
475 1 -7.31233 -2.05814 -13.7521 16
476 1 -14.851 -0.85106 3.45948 15
477 1 -3.55274 -9.87235 -16.4124 10
478 1 -5.83776 -11.0636 11.7944 16
479 1 -0.304378 8.42887 -7.02597 20
480 1 17.22 3.44971 10.0584 8
481 1 13.76 6.25252 -0.211481 20
482 1 -9.9029 -12.8483 -0.591542 12
483 1 1.10984 -10.8498 -1.54171 15
484 1 -0.786042 -3.35083 -18.5941 7
485 1 -7.52678 10.541 9.97676 16
486 1 2.69586 -4.59328 -9.67576 22
487 1 11.3456 -0.422288 0.928343 20
488 1 4.84125 15.9197 -7.83829 16
489 1 4.65665 -9.30363 3.10604 16
490 1 14.9493 5.37569 -9.29813 12
491 1 4.1828 9.47716 12.769 21
492 1 -9.81703 3.47125 8.89391 19
493 1 5.69979 10.6633 10.1373 18
494 1 9.0947 -0.538088 17.5964 10
495 1 1.2226 3.20446 -16.9569 18
496 1 -6.39334 -6.4343 -6.48498 19
497 1 0.0791579 -3.10082 11.4653 17
498 1 7.99483 10.2909 7.98428 16
499 1 8.32904 7.51797 -9.23599 20
500 1 -7.1782 9.89437 -6.28895 21
501 1 -2.24774 11.9374 -3.95499 22
502 1 10.7935 -3.64374 13.6185 11
503 1 9.98403 2.57959 -8.6464 26
504 1 12.16 -10.8327 -4.07749 13
505 1 13.1359 9.59979 12.2938 15
506 1 -13.58 -7.89243 2.52363 13
507 1 -5.26824 10.6858 -11.7777 14
508 1 -2.86132 -1.8051 8.807 19
509 1 -12.4347 -0.501411 14.3059 12
510 1 -4.08059 13.9617 -10.2411 12
511 1 5.98779 -14.584 -3.01388 20
512 1 5.42618 -2.07864 -9.70599 18
513 1 -2.52571 15.185 -4.18006 20
514 1 -8.32992 -5.35726 -13.9175 12
515 1 3.87599 -15.2076 2.53477 18
516 1 -11.4093 -7.67646 -3.262 20
517 1 1.77867 12.325 -14.6547 11
518 1 -1.31262 9.83008 14.862 15
519 1 -10.0702 -4.54204 8.27713 20
520 1 4.57321 7.35565 -4.51695 22
521 1 2.60962 -11.1141 -9.72382 18
522 1 3.01447 -7.33241 11.9331 13
523 1 -10.5298 5.97947 0.167926 19
524 1 5.33445 5.31699 18.7454 12
525 1 5.132 16.2321 -4.56337 16
526 1 11.8073 -6.27576 -4.59335 13
527 1 4.76336 7.54012 9.49721 21
528 1 0.395998 4.83354 -19.1824 10
529 1 -5.08791 -14.1559 10.9536 13
530 1 8.90967 1.12057 -16.2104 12
531 1 2.71688 13.4184 6.73984 22
532 1 9.98481 5.22953 -10.2227 21
533 1 -0.797317 -1.52237 -13.5891 19
534 1 -1.30582 -10.195 -3.81583 16
535 1 -10.6401 -3.03676 -13.2362 14
536 1 13.0109 2.76501 0.542144 20
537 1 14.8491 4.94347 -3.58601 15
538 1 7.65973 -5.74322 -8.0071 19
539 1 15.7191 7.34627 12.8983 13
540 1 5.07317 -12.056 -4.50693 19
541 1 4.07667 5.2669 -18.273 14
542 1 8.53989 11.6427 0.463701 21
543 1 -9.58882 0.437943 0.57885 18
544 1 10.0598 9.1677 13.9298 16
545 1 11.5854 6.56908 -3.23154 19
546 1 14.3494 -1.25678 3.64589 10
547 1 12.2026 5.14767 -8.12775 20
548 1 9.12953 2.67919 14.8972 25
549 1 17.2011 4.72639 12.512 10
550 1 2.79411 -4.48864 9.94834 17
551 1 13.3384 11.478 -2.29496 13
552 1 1.71964 1.97654 15.1695 17
553 1 16.6312 -0.493365 -5.54051 11
554 1 9.44208 3.91463 11.6245 22
555 1 -7.49836 -0.071817 -8.79386 17
556 1 13.8014 5.53404 2.47512 17
557 1 8.08864 -7.76075 1.97631 17
558 1 -12.3464 8.35285 12.4619 9
559 1 9.86747 10.2683 11.4941 17
560 1 10.9442 1.63758 12.1297 19
561 1 3.25843 10.1325 8.48886 18
562 1 -0.128688 14.0212 10.7307 17
563 1 -1.59756 -18.0808 2.88303 20
564 1 -5.38054 10.292 -3.40805 19
565 1 11.077 10.8289 -8.08228 16
566 1 10.3691 -1.52683 -12.9331 12
567 1 0.334889 15.621 -1.21587 17
568 1 -2.83457 -12.9191 -8.24593 19
569 1 11.1453 -7.72461 -13.3946 9
570 1 -13.8962 2.83859 6.80205 15
571 1 -5.34487 7.94259 -11.4731 18
572 1 -4.48136 -19.3382 1.87778 14
573 1 -5.19274 0.911824 -12.4846 20
574 1 -12.2596 1.48302 -4.35285 13
575 1 9.66422 -5.55677 5.09934 13
576 1 12.0638 10.1079 4.32128 19
577 1 0.94273 -10.4278 7.2347 18
578 1 -13.5432 1.11131 -9.68746 15
579 1 1.87071 1.55711 -19.7205 10
580 1 -1.49384 6.49714 14.5707 21
581 1 7.23027 10.3515 -12.7864 13
582 1 12.8941 -0.716558 12.6843 17
583 1 9.86553 5.78526 -6.77728 20
584 1 12.4499 12.9299 2.40114 13
585 1 4.06287 -14.7317 -8.9601 13
586 1 -10.1442 -2.61964 14.5403 18
587 1 12.1328 -1.85167 5.38115 17
588 1 -0.167224 12.437 13.2265 15
589 1 6.52909 13.8362 -10.0441 14
590 1 -12.4115 9.50013 -4.60643 17
591 1 9.92097 10.0653 2.55135 20
592 1 -8.55562 -15.5318 1.0572 9
593 1 7.18984 -4.02644 3.6634 18
594 1 7.58942 15.3874 4.07336 13
595 1 -3.84796 5.58574 9.99151 17
596 1 -10.0182 -6.98269 1.86492 18
597 1 -10.6126 -0.873295 -9.96482 18
598 1 7.83159 0.0838553 12.3145 21
599 1 -2.81681 -9.75835 12.905 10
600 1 8.70147 5.8283 13.7259 23
601 1 -5.83648 13.8204 1.76608 18
602 1 8.58794 5.22342 1.87187 18
603 1 8.38685 3.90674 4.55716 17
604 1 3.61478 0.972041 -16.8634 15
605 1 -9.25132 -1.36689 8.48023 20
606 1 9.90618 -0.03248 -10.6439 17
607 1 11.1478 -10.4153 -7.25555 12
608 1 9.55853 4.92359 8.02223 19
609 1 -10.0545 1.21857 14.6244 15
610 1 9.1828 7.90269 9.3098 16
611 1 0.292886 -1.62914 14.2541 13
612 1 -1.31331 6.37058 11.575 21
613 1 0.0766381 -4.04035 -15.594 17
614 1 -6.44361 3.50586 13.7497 18
615 1 6.29754 3.35951 13.1415 22
616 1 -10.9915 -17.0657 9.26847 9
617 1 13.4639 8.98795 -0.873353 17
618 1 8.22585 -14.893 -5.17989 12
619 1 7.78791 11.9705 -2.70224 20
620 1 9.76735 12.5491 4.15072 19
621 1 6.66398 -0.547888 -18.0109 12
622 1 2.22483 15.0499 -3.55359 20
623 1 11.6156 11.0655 0.797771 21
624 1 -5.67273 -9.14995 -0.407896 21
625 1 0.779932 0.546471 -16.0104 22
626 1 -11.3293 11.9693 1.73393 14
627 1 8.4986 -7.03259 -10.869 20
628 1 11.8243 7.63318 -9.76617 17
629 1 10.5498 13.227 -3.29512 16
630 1 7.23338 7.57899 -6.34761 23
631 1 13.0635 1.43101 15.3094 15
632 1 10.3149 -0.182898 14.6096 17
633 1 -3.25484 -11.0382 10.1669 14
634 1 -4.00782 9.03354 -14.3569 15
635 1 3.27932 13.1611 9.84069 16
636 1 8.66653 -7.53533 -14.673 12
637 1 4.61395 2.16953 8.51703 22
638 1 6.98425 13.8785 -4.45778 16
639 1 9.03166 9.92059 5.80914 21
640 1 14.9323 -6.87428 -3.27535 9
641 1 7.95078 7.1117 19.2377 10
642 1 -13.1292 -3.12349 8.58163 19
643 1 0.917076 -16.7333 0.100025 20
644 1 -10.1066 14.3079 3.08458 12
645 1 5.35208 9.87125 0.669507 22
646 1 -14.7513 -2.13841 5.96577 19
647 1 -0.965268 5.19383 18.3015 10
648 1 -4.58701 6.2253 -15.9878 13
649 1 -6.51875 6.91214 -13.9493 12
650 1 2.49455 -13.7128 0.288356 18
651 1 8.55119 9.8509 -7.12378 19
652 1 -13.7761 5.1996 13.2668 12
653 1 4.96202 -2.71214 -12.4612 16
654 1 1.55048 -13.1612 8.70225 10
655 1 3.82601 11.9946 0.28817 15
656 1 -4.10487 1.78747 14.3154 16
657 1 -7.5741 -8.39376 -11.992 16
658 1 -4.86934 -9.95372 -13.9989 14
659 1 -6.1659 -12.5183 -7.81041 17
660 1 -1.19324 16.3599 -7.3333 14
661 1 4.94355 -4.27244 -7.50317 20
662 1 -2.85942 12.1437 7.03441 18
663 1 4.86596 -10.2564 -7.56983 13
664 1 6.51545 -16.509 -0.975475 15
665 1 1.74192 -7.84207 8.33885 18
666 1 16.3081 3.24249 -6.37423 12
667 1 1.60148 -16.0841 -7.63364 11
668 1 -11.2867 -2.17429 11.2343 20
669 1 -4.29952 -17.684 -0.665292 14
670 1 -6.5629 -12.0377 -3.42177 17
671 1 -9.96904 0.805655 10.0848 16
672 1 -7.64525 -17.6921 3.30928 14
673 1 15.1007 6.4495 -6.7335 12
674 1 -5.76354 16.1843 4.42724 13
675 1 -14.956 8.61654 1.9485 12
676 1 11.438 -3.56278 2.69284 15
677 1 -12.7765 -0.844005 -12.2146 14
678 1 -0.0202572 11.0309 -5.66142 19
679 1 7.69676 2.51135 -6.26696 21
680 1 7.04222 10.8118 13.6655 17
681 1 8.21425 4.51945 -4.82611 18
682 1 -15.0742 2.87054 -8.3716 9
683 1 -12.4425 -5.68919 -7.75752 14
684 1 -0.301228 8.26212 17.2368 13
685 1 4.41622 8.36646 -11.707 24
686 1 10.7241 12.149 7.00602 16
687 1 -4.68152 -4.54188 9.68466 17
688 1 -1.31653 -17.0255 -2.35464 16
689 1 -8.51971 -18.403 8.50333 9
690 1 -2.88621 -6.70128 9.64981 18
691 1 15.4989 9.33748 9.98891 12
692 1 2.94817 -7.10619 -11.6925 22
693 1 -10.03 8.61691 -1.00444 18
694 1 7.24144 8.14357 3.4148 16
695 1 -8.54316 -2.53477 5.64982 20
696 1 9.5245 7.54308 -12.9665 13
697 1 -1.97826 -17.4216 -6.31721 9
698 1 1.00179 -20.0825 1.66973 13
699 1 -1.95721 -15.9851 0.683222 17
700 1 7.64254 4.948 -8.59962 23
701 1 7.59213 17.0076 1.14846 11
702 1 -2.37428 0.843627 -14.1163 22
703 1 -0.822711 -0.802316 10.2557 16
704 1 1.69455 5.85001 -16.0708 19
705 1 -11.1395 -0.552577 -15.1739 10
706 1 -10.5045 -2.51963 -3.37909 13
707 1 2.28914 16.9164 -5.99453 13
708 1 -2.61951 -4.84803 -16.6562 12
709 1 11.3173 8.30842 -6.55151 19
710 1 13.5763 -7.2537 -0.219201 11
711 1 -7.01793 7.12148 13.456 17
712 1 7.19633 -10.3962 2.1881 20
713 1 14.7316 -5.69062 2.11819 9
714 1 13.7316 -3.61575 11.5432 9
715 1 -0.576443 9.72803 6.31214 20
716 1 -12.164 3.01878 15.4431 11
717 1 -8.8988 5.37051 11.5963 18
718 1 -4.60996 -13.0454 8.36865 17
719 1 7.31274 8.34546 12.4415 20
720 1 -15.041 -1.17033 -0.154377 14
721 1 8.42335 -5.8156 -2.47616 16
722 1 -11.3461 12.8787 -4.4389 14
723 1 0.596148 -16.3382 5.52064 13
724 1 6.00954 1.00627 15.1231 20
725 1 -0.494625 13.2341 6.73946 23
726 1 2.72982 -8.13815 4.93733 17
727 1 3.12429 2.72813 12.1835 18
728 1 -13.4931 -5.1865 -3.00434 16
729 1 1.86886 11.5523 15.2402 11
730 1 6.42221 13.621 1.38912 23
731 1 -11.1405 -11.3741 5.17162 13
732 1 -4.97077 -17.5837 4.98902 14
733 1 6.21851 -3.6052 8.42687 19
734 1 11.5146 -4.74652 8.52935 11
735 1 5.82387 8.74244 7.0251 19
736 1 -1.48852 -8.93635 -10.0137 21
737 1 -1.12266 3.21305 -12.3483 16
738 1 -4.54451 -0.85114 11.4125 17
739 1 -0.692189 13.0815 3.66132 16
740 1 12.9759 1.10516 4.02316 20
741 1 4.94257 10.3299 -6.45603 19
742 1 -3.96853 8.22948 14.1824 16
743 1 7.66882 5.78385 10.6508 19
744 1 8.66687 -3.38553 -10.6316 17
745 1 -6.29053 -11.8321 -0.326433 20
746 1 13.7764 0.438961 7.00601 16
747 1 2.79107 -1.24437 -11.4007 20
748 1 1.17103 7.64272 14.3538 17
749 1 8.60014 -12.7794 -8.49138 12
750 1 6.70179 6.45328 -17.138 9
751 1 13.0802 4.47965 -11.3649 11
752 1 15.6696 -2.61004 0.495458 9
753 1 0.768381 -5.45667 14.1475 11
754 1 -3.20897 -10.8918 -11.9945 18
755 1 8.51452 14.6959 -1.39884 17
756 1 -13.2525 6.11653 3.75404 15
757 1 11.4025 3.54292 -5.31217 18
758 1 16.0534 6.58905 4.47101 13
759 1 3.33382 -5.95102 -14.8196 17
760 1 -8.50726 14.318 5.49403 15
761 1 16.3897 8.91463 6.9245 9
762 1 12.0653 13.8922 -6.8168 8
763 1 4.16057 3.99945 -15.5907 19
764 1 9.97706 -3.72244 0.0453338 14
765 1 -12.3477 1.41829 -0.676862 21
766 1 11.3095 7.00542 4.60597 15
767 1 -12.0298 -6.89057 -0.0971131 19
768 1 -12.5677 11.3173 -9.34125 8
769 1 4.37342 4.4314 9.95995 20
770 1 -10.4303 0.950108 -6.79654 16
771 1 -12.1088 5.12043 8.59119 15
772 1 -4.02263 5.60593 -10.0537 19
773 1 10.5404 -7.90476 -8.25009 17
774 1 -11.3565 -8.64213 -6.48204 15
775 1 10.8164 -7.92219 -2.03389 15
776 1 -15.7192 4.82116 1.4214 12
777 1 -9.16935 -7.04649 -5.06315 18
778 1 13.0965 7.32007 10.0046 17
779 1 -4.80689 -8.23307 4.31815 16
780 1 10.7011 2.3425 17.5948 12
781 1 13.6796 -3.03306 8.23346 14
782 1 8.25096 -1.79652 5.71952 20
783 1 -8.50853 3.69643 2.10522 16
784 1 0.932442 9.92558 11.091 21
785 1 2.87965 9.23396 -9.50116 16
786 1 -0.779709 -8.0557 -17.4262 11
787 1 -5.80451 16.2137 7.70476 10
788 1 -10.5052 -11.1065 8.01979 15
789 1 9.43124 12.7675 -6.14687 20
790 1 2.24703 7.15392 11.165 15
791 1 15.4587 -3.81064 -4.7912 13
792 1 7.64448 -5.55365 10.4148 16
793 1 -0.492695 12.2336 -11.9392 17
794 1 3.97202 12.3819 -9.20275 18
795 1 -6.48847 -2.38176 10.2071 22
796 1 16.3841 5.64596 7.26509 13
797 1 -3.61877 -4.83187 -9.6655 21
798 1 15.1134 11.2522 0.963875 11
799 1 -13.5116 3.91059 0.310531 18
800 1 -4.15691 -11.144 6.23966 17
801 1 3.96259 15.1785 -11.5782 10
802 1 5.34582 -1.61744 10.5506 18
803 1 -0.156901 -14.0971 -1.81175 18
804 1 -7.87957 16.475 1.67727 10
805 1 -15.1874 4.63729 -3.03557 12
806 1 11.5181 -1.01998 -7.85202 17
807 1 -0.795074 -12.4187 -12.8494 12
808 1 -7.71101 6.87086 1.02864 19
809 1 13.7075 10.9611 -5.81622 14
810 1 -6.52678 0.914259 9.04563 19
811 1 8.65017 -2.52088 -17.8159 8
812 1 -8.32577 -10.8346 -9.4819 12
813 1 -0.922404 -12.6066 -6.22653 17
814 1 -3.96362 11.7342 13.779 14
815 1 8.72636 -14.2236 -1.68739 20
816 1 -1.22113 10.6314 -15.0435 12
817 1 14.9004 1.67491 -4.36155 17
818 1 8.51037 7.85677 0.808542 22
819 1 1.57293 -19.1923 -1.50387 12
820 1 5.48763 -3.26309 -15.6634 16
821 1 9.95079 2.22515 2.52459 17
822 1 -1.21824 4.39034 -14.4317 22
823 1 -2.5817 -8.41543 6.88582 15
824 1 6.28712 9.90842 -4.38996 19
825 1 4.68558 1.7302 -7.92542 18
826 1 -11.5419 3.91419 -2.69462 20
827 1 -14.9119 4.19929 10.3291 11
828 1 2.21835 7.0311 18.5702 12
829 1 -8.01348 -6.9391 9.9032 21
830 1 4.86143 9.60021 4.58287 21
831 1 0.531829 -15.6111 2.88807 17
832 1 2.46263 9.77129 -4.83191 20
833 1 -4.91868 8.46228 11.5672 18
834 1 -6.23819 1.00596 12.2943 20
835 1 -9.18991 11.3723 7.23429 15
836 1 10.239 1.72823 -1.79777 17
837 1 -4.95539 -8.24987 14.3901 13
838 1 4.45038 -12.5156 2.47743 17
839 1 12.1992 4.22144 10.598 17
840 1 7.10087 -5.55448 -4.78888 19
841 1 6.09916 -12.2096 -13.7612 11
842 1 -8.2454 1.35067 -14.5225 22
843 1 -1.91677 1.99649 -17.1474 17
844 1 5.95594 14.1908 8.83167 16
845 1 -10.4666 -5.74309 14.197 15
846 1 -5.6165 7.89787 -7.80011 22
847 1 -15.5728 5.79663 -6.47414 8
848 1 11.4277 13.9896 -0.359794 12
849 1 -10.3542 -17.559 5.84864 11
850 1 -3.87489 9.22311 6.3049 20
851 1 13.9636 10.8689 7.24828 12
852 1 -9.94299 -11.3038 -3.91882 13
853 1 3.73203 16.3994 8.69554 11
854 1 -9.36534 -0.932296 16.5833 11
855 1 -1.66489 -15.8102 -8.58857 12
856 1 13.1085 1.03985 9.96905 17
857 1 3.02501 -18.2735 3.19565 12
858 1 5.65986 9.83176 19.0126 10
859 1 -3.53224 -4.76419 7.22327 19
860 1 11.4366 1.872 -12.0314 14
861 1 8.91227 -11.2629 0.277779 20
862 1 1.94939 1.05666 -13.1709 18
863 1 -11.8383 2.09353 -13.1368 20
864 1 -6.84994 4.07138 -14.4545 18
865 1 -10.3212 -4.77398 -1.2919 19
866 1 -6.16946 7.50724 -4.37195 21
867 1 -4.33128 5.45596 13.52 22
868 1 11.3578 -2.32721 10.9327 17
869 1 -8.97849 -6.28757 6.62589 17
870 1 14.6135 0.336549 1.02609 15
871 1 -0.796883 6.1493 -11.854 24
872 1 15.0343 8.30493 1.8757 14
873 1 -1.99707 15.36 9.42693 12
874 1 -14.7205 -7.2295 5.85656 13