ITEM: TIMESTEP
307000
ITEM: NUMBER OF ATOMS
1000
ITEM: BOX BOUNDS pp pp pp
-30.0 30.0
-30.0 30.0
-30.0 30.0
ITEM: ATOMS id type x y z Coordination
1 1 -11.8587 -0.828232 -7.08412 14
2 1 -10.4734 -3.62097 -7.01247 15
3 1 -10.7856 -6.11493 -4.30763 14
4 1 -11.6085 -2.984 -4.29315 16
5 1 -8.78705 -6.52533 -6.24251 16
6 1 -7.14041 -9.37014 -6.28836 16
7 1 -7.81123 -11.1768 -3.59146 12
8 1 -9.92438 -9.05969 -4.67175 12
9 1 -8.32878 -0.131425 -11.7701 12
10 1 -6.81925 -3.44868 -11.9422 13
11 1 -6.95991 -5.5206 -9.1091 16
12 1 -8.3159 -2.07452 -9.27118 17
13 1 -8.62321 -0.693637 -6.54655 22
14 1 -6.7702 -3.69204 -6.81912 20
15 1 -6.91801 -5.69932 -4.04654 20
16 1 -8.51872 -2.73502 -4.00201 23
17 1 -5.43587 -6.33957 -11.551 12
18 1 -5.49269 -8.47429 -9.07243 13
19 1 -5.41212 -6.48178 -6.83768 19
20 1 -4.13241 -9.84065 -6.9468 16
21 1 -4.76212 -11.3065 -4.10456 16
22 1 -5.23946 -8.45641 -3.78827 21
23 1 -4.94321 -0.615385 -12.3471 14
24 1 -3.6085 -3.67045 -11.8157 17
25 1 -3.67366 -5.50728 -9.02686 22
26 1 -5.03928 -2.69066 -9.0424 24
27 1 -5.29364 -0.612612 -6.09775 23
28 1 -3.54605 -3.44652 -6.31734 23
29 1 -4.04306 -5.78721 -4.00612 21
30 1 -5.63188 -2.69668 -3.49691 24
31 1 -2.42732 -12.6301 -5.71501 12
32 1 -2.11123 -6.22976 -11.5922 15
33 1 1.24784 -12.6889 -6.4829 11
34 1 -2.20307 -8.51234 -9.09379 16
35 1 -2.19653 -6.65468 -6.43708 20
36 1 -0.839869 -10.0492 -6.77315 18
37 1 -0.24992 -11.7055 -3.99327 17
38 1 -1.90239 -9.0017 -4.33241 22
39 1 -1.68808 1.49718 -13.401 8
40 1 -1.79558 -0.669657 -11.6899 21
41 1 -0.187247 -5.66132 -9.05453 22
42 1 -1.78188 -2.5215 -9.27632 19
43 1 -1.95645 -0.69825 -6.46482 20
44 1 -0.404284 -3.82088 -6.42833 22
45 1 -0.624976 -5.86987 -3.76647 19
46 1 -2.30221 -2.73627 -3.93714 19
47 2 -11.7616 -0.980916 -3.59212 18
48 2 -10.5134 -7.74922 -3.12484 15
49 2 -9.36248 -10.3677 -3.42892 11
50 2 -10.5757 -5.29702 -6.09234 12
51 2 -11.7045 -2.53429 -6.02836 13
52 2 -8.02634 -2.06466 -11.316 13
53 2 -10.4588 -5.94491 -0.574449 19
54 2 -11.1721 -2.67961 -0.443563 18
55 2 -13.1389 0.0452638 -5.95994 11
56 2 -11.1901 -4.63436 -3.53192 15
57 2 -8.80987 -8.60302 -6.20093 12
58 2 -5.25402 -6.62837 -9.62278 17
59 2 -6.79686 -11.5317 -2.00126 14
60 2 -8.51207 -8.62561 -1.05399 19
61 2 -8.60179 -6.23465 -4.31485 18
62 2 -6.35218 -10.3249 -4.84289 15
63 2 -7.20562 -5.57357 -7.14407 18
64 2 -9.30431 -2.15599 -7.55442 16
65 2 -8.41316 -0.171011 -9.52829 16
66 2 -6.82029 -3.4667 -8.68433 18
67 2 -7.1812 -5.75526 -1.61311 23
68 2 -8.8975 -3.07293 -2.00907 23
69 2 -8.84264 -1.0759 -4.58764 24
70 2 -6.91124 -3.69832 -4.26062 20
71 2 -3.85897 -11.3937 -5.77542 14
72 2 -0.744652 -11.9276 -6.50165 13
73 2 -5.81724 -8.51744 -7.351 16
74 2 -6.85967 -5.05244 -11.156 13
75 2 -3.8237 -9.65387 -8.99266 10
76 2 -3.57562 -11.8353 -1.12256 16
77 2 -5.35494 -8.44915 -1.57966 20
78 2 -5.44556 -6.67176 -4.61983 21
79 2 -3.69546 -9.58337 -3.52538 20
80 2 -3.79542 -5.67289 -12.0065 12
81 2 -5.37174 -2.63557 -12.3903 14
82 2 -3.59831 -5.51932 -7.0825 23
83 2 -5.17106 -2.40481 -6.81081 20
84 2 -5.3071 -0.567897 -9.62947 24
85 2 -3.49202 -3.6455 -9.70534 25
86 2 -3.80478 -5.77227 -1.93218 23
87 2 -5.78225 -2.85747 -1.55725 22
88 2 -5.10505 -0.766797 -4.32927 24
89 2 -4.04788 -3.64371 -4.33353 20
90 2 -1.75535 -12.1477 1.87757 16
91 2 -1.93814 -12.6731 -3.88394 12
92 2 2.81484 -11.8474 -6.76702 13
93 2 -2.34663 -8.95279 -6.74038 21
94 2 -2.05861 -6.54897 -9.76432 20
95 2 -0.394212 -8.90301 -9.35222 14
96 2 -0.142122 -11.6956 -0.759163 16
97 2 -2.16388 -8.63729 -1.14717 21
98 2 -2.22286 -6.79024 -4.43686 19
99 2 -0.183692 -9.79024 -3.87834 22
100 2 -0.577468 -5.26623 -11.9757 12
101 2 -2.08793 -2.49146 -11.9233 16
102 2 -0.522087 -5.82693 -7.07956 21
103 2 -1.76301 -2.6385 -7.11721 24
104 2 -1.8741 -0.443988 -9.65982 22
105 2 -0.22473 -3.63654 -9.73012 24
106 2 -0.415818 -6.02959 -1.81545 20
107 2 -2.38495 -2.55522 -1.75369 20
108 2 -1.59292 -0.903054 -4.08837 22
109 2 -0.363525 -3.79971 -4.19624 19
110 1 -11.6261 -7.40213 -1.43415 12
111 1 -11.4872 -9.43485 1.49319 12
112 1 -10.3932 -9.66977 -1.86273 12
113 1 -11.0777 -7.74541 3.98313 14
114 1 -11.664 -1.14861 -1.59788 19
115 1 -10.4501 -4.23767 -1.51888 19
116 1 -10.3463 -6.10253 1.45239 19
117 1 -11.6504 -3.08609 1.26144 14
118 1 -11.7448 -1.11451 3.91513 19
119 1 -10.0407 -4.19669 3.90426 17
120 1 -10.0767 -5.91816 6.77927 13
121 1 -11.3963 -2.93224 6.56548 12
122 1 -9.0004 -6.95226 -1.79267 22
123 1 -6.91276 -9.63253 -1.11509 20
124 1 -9.05154 -9.88261 3.74234 14
125 1 -8.51746 -8.65381 1.00555 18
126 1 -8.12452 -6.80425 4.56712 21
127 1 -5.92274 -10.0608 5.11557 15
128 1 -8.68506 -8.7327 6.72115 12
129 1 -8.46523 -0.894498 -0.928341 22
130 1 -7.42365 -4.08368 -1.27701 19
131 1 -6.88419 -5.90079 1.67144 20
132 1 -8.45976 -3.11665 1.56719 23
133 1 -8.5376 -1.36554 4.62673 25
134 1 -6.71229 -4.01826 4.19247 22
135 1 -6.74078 -5.90776 7.25561 19
136 1 -8.3276 -3.1727 7.49884 20
137 1 -8.60522 -0.782588 10.2017 12
138 1 -6.9019 -4.06303 9.88729 11
139 1 -5.38004 -12.3967 -0.760365 11
140 1 -6.56863 -11.2306 2.03709 13
141 1 -5.49422 -6.63181 -1.00192 25
142 1 -3.76375 -9.54745 -1.5884 19
143 1 -3.51155 -11.5502 1.18359 17
144 1 -5.38857 -8.66837 2.00387 21
145 1 -4.90528 -6.88061 4.66801 22
146 1 -3.20008 -9.64031 3.79707 20
147 1 -3.1002 -11.5355 6.83798 12
148 1 -5.15602 -8.69459 7.20286 17
149 1 -5.05905 -7.12276 9.5519 16
150 1 -3.42185 -9.49712 10.5168 11
151 1 -5.4373 -0.575317 -1.07816 21
152 1 -3.97989 -3.78327 -1.12293 22
153 1 -3.78207 -5.79595 1.59705 23
154 1 -5.11033 -2.93607 1.52211 23
155 1 -5.30206 -1.16073 4.41897 23
156 1 -3.68829 -3.77099 4.67498 24
157 1 -3.47511 -5.63918 7.07666 23
158 1 -4.91886 -2.96799 7.16717 22
159 1 -5.39311 -1.31412 9.99377 17
160 1 -3.60531 -4.40174 10.1048 22
161 1 -3.36751 -6.57422 12.4186 13
162 1 -3.77949 -2.82348 12.8635 12
163 1 -1.78601 -12.3844 -1.80638 16
164 1 -1.74474 -12.7925 3.71193 13
165 1 -2.21508 -6.798 -0.925066 21
166 1 -0.365374 -9.82848 -1.33392 22
167 1 -0.075333 -11.5008 1.16241 19
168 1 -2.00018 -8.55013 1.31264 21
169 1 -1.73631 -6.42366 4.01512 23
170 1 -0.060797 -10.0536 3.71725 23
171 1 -0.651861 -11.5485 5.9982 18
172 1 -1.94236 -8.85183 6.63329 22
173 1 -1.51569 -7.20111 9.56344 21
174 1 -0.48187 -9.94135 9.0588 17
175 1 -2.22712 -0.846022 -1.05371 22
176 1 -0.457302 -3.58489 -1.17422 21
177 1 -0.389675 -5.63337 1.53555 21
178 1 -1.90539 -3.22099 1.77759 25
179 1 -2.07377 -1.23049 4.53169 24
180 1 -0.288122 -3.83206 4.59697 24
181 1 -0.246643 -5.97524 7.01854 22
182 1 -1.43907 -2.91312 7.36442 21
183 1 -2.04545 -0.995166 9.80347 21
184 1 0.111258 -3.73389 10.045 21
185 1 -0.853531 -5.09128 12.0569 14
186 1 -1.43847 -1.36516 14.9526 7
187 2 -11.69 -9.14119 -0.369269 11
188 2 -11.555 -7.63423 2.09535 13
189 2 -9.82601 -9.61226 2.19858 13
190 2 -10.0939 -5.95889 4.70385 17
191 2 -11.2714 -2.90789 4.51542 16
192 2 -12.0349 -1.1572 1.69149 16
193 2 -11.0933 -4.48358 2.15957 15
194 2 -11.7912 -1.08652 7.06834 14
195 2 -10.0898 -4.16851 7.43126 13
196 2 -7.2007 -10.6121 3.7153 13
197 2 -9.80203 -8.78715 5.01336 12
198 2 -8.49715 -6.78448 1.60041 23
199 2 -6.62624 -9.73685 0.98357 20
200 2 -8.30878 -6.69724 6.56399 17
201 2 -7.00094 -9.25413 7.03614 15
202 2 -6.58313 -6.01982 3.84639 20
203 2 -8.3711 -3.12993 3.65207 23
204 2 -8.5712 -1.29231 0.970578 22
205 2 -6.82269 -3.92155 1.13511 20
206 2 -6.4667 -5.95709 9.49158 15
207 2 -8.22582 -2.60925 9.44594 13
208 2 -8.76097 -1.42056 6.71951 19
209 2 -6.66644 -4.09803 6.47571 25
210 2 -3.41221 -4.62094 12.0614 14
211 2 -5.19222 -12.2509 1.18365 11
212 2 -4.34318 -10.2353 6.09329 16
213 2 -4.89666 -8.54984 3.97858 22
214 2 -5.40597 -7.06779 1.22367 21
215 2 -3.47967 -9.74042 1.98986 21
216 2 -4.23778 -7.72019 11.2053 11
217 2 -5.11824 -6.78801 6.6198 22
218 2 -3.87245 -8.62239 8.91642 18
219 2 -3.60504 -5.60184 3.70331 23
220 2 -5.0843 -2.89769 3.52031 25
221 2 -5.2536 -0.897345 0.908098 23
222 2 -3.54003 -3.8554 0.688135 23
223 2 -3.01143 -5.68574 8.81171 23
224 2 -5.06923 -3.31215 9.23587 21
225 2 -5.09075 -1.24924 6.43449 25
226 2 -3.09243 -3.73564 6.57399 22
227 2 -4.75046 -1.30296 11.9031 13
228 2 -3.2005 -1.61165 14.143 8
229 2 -2.21489 -12.6697 5.55726 13
230 2 -1.575 -10.6902 7.53651 15
231 2 -0.111987 -11.8844 3.77209 16
232 2 -1.51719 -9.50654 4.76782 19
233 2 -2.03979 -6.72744 0.987182 20
234 2 -0.481541 -9.35689 1.91577 22
235 2 -1.39652 -9.29514 10.6863 15
236 2 -2.19918 -7.00273 6.14382 22
237 2 -0.19438 -7.78196 8.22302 18
238 2 -1.35241 -6.82771 12.215 14
239 2 0.0901383 -5.36746 3.57525 21
240 2 -1.81412 -3.14209 3.81721 22
241 2 -1.92624 -1.13557 0.854938 24
242 2 -0.161474 -3.84288 0.871119 22
243 2 -0.263768 -5.69999 10.0856 19
244 2 -1.6362 -2.80544 9.11631 23
245 2 -2.24061 -1.20857 6.50142 23
246 2 0.0877034 -4.02856 6.62189 23
247 2 -1.76429 0.0773823 11.3764 19
248 2 0.0305472 -1.51212 13.7263 10
249 1 -13.6346 -0.849475 -4.49051 11
250 1 -9.78334 1.1052 -8.77442 14
251 1 -12.2394 5.12869 -5.55657 10
252 1 -10.5022 2.02396 -6.1988 17
253 1 -10.1662 0.364669 -3.73537 24
254 1 -13.3855 1.91787 -5.33559 13
255 1 -10.3667 7.93429 -5.49198 12
256 1 -10.1686 6.12652 -2.9778 18
257 1 -6.86764 2.38435 -11.7807 12
258 1 -6.60606 0.494537 -8.68568 24
259 1 -8.65235 3.63051 -9.15282 14
260 1 -8.79659 5.70323 -6.06226 21
261 1 -7.06193 2.01911 -6.00603 22
262 1 -6.93498 0.0984325 -3.73619 23
263 1 -8.85744 3.2286 -3.418 23
264 1 -8.88159 7.28882 -8.51851 11
265 1 -6.83965 8.00604 -5.74655 21
266 1 -6.91369 6.00264 -3.23446 23
267 1 -8.44764 8.76115 -2.60832 18
268 1 -6.91859 11.5001 -3.32497 12
269 1 -6.35732 6.01649 -7.98084 19
270 1 -3.71949 2.00653 -11.3317 19
271 1 -3.53829 0.155998 -9.23373 21
272 1 -5.33946 3.02059 -8.92905 22
273 1 -5.31043 4.80028 -5.69696 22
274 1 -3.70297 2.06664 -6.03643 22
275 1 -3.43672 0.334527 -3.75513 21
276 1 -5.43185 3.03764 -3.30659 24
277 1 -3.411 7.80101 -11.0831 13
278 1 -3.4435 6.00226 -8.48233 23
279 1 -5.63081 8.88199 -8.74032 13
280 1 -5.41857 10.7608 -6.4838 10
281 1 -3.87271 8.23989 -5.76363 21
282 1 -3.59078 5.98536 -3.44266 21
283 1 -5.44074 8.76408 -3.24873 20
284 1 -4.2748 12.729 -4.70922 12
285 1 -1.95073 4.8626 -11.4954 18
286 1 -5.09494 5.28409 -11.21 13
287 1 0.225486 1.82909 -11.3937 20
288 1 -0.133757 0.0824501 -8.83073 23
289 1 -1.64109 2.78726 -8.87464 22
290 1 -1.78013 4.64988 -5.92955 23
291 1 -0.217884 1.96601 -6.09235 24
292 1 -0.0688942 0.281834 -3.39748 21
293 1 -1.88951 3.13811 -3.37066 22
294 1 -0.233137 7.64129 -11.218 16
295 1 -0.446836 5.80597 -8.5775 22
296 1 -0.712316 10.4087 -10.6383 9
297 1 -2.18511 10.2481 -5.56549 18
298 1 -0.285846 7.7749 -5.8403 23
299 1 -0.184115 5.80693 -3.51193 23
300 1 -2.19421 8.45075 -2.91835 20
301 1 -2.0017 8.52359 -8.21191 22
302 1 -0.959097 13.5828 -5.82035 10
303 2 -13.4848 -0.372223 -1.27545 14
304 2 -14.0097 1.20466 -3.64051 12
305 2 -10.6198 0.333088 -7.42589 17
306 2 -11.9013 3.24408 -5.88666 14
307 2 -6.97647 2.51987 -9.64881 20
308 2 -9.96104 0.086378 -1.80336 20
309 2 -12.1986 2.53262 -1.2989 16
310 2 -11.7412 5.38923 -3.75034 13
311 2 -10.1873 2.18063 -4.21246 21
312 2 -11.0744 6.41583 -6.27311 11
313 2 -10.1864 6.09017 -0.746289 17
314 2 -10.1174 8.04197 -3.52677 14
315 2 -6.44314 0.550096 -12.0394 12
316 2 -7.0134 0.327065 -6.70014 22
317 2 -9.12781 2.77549 -7.55228 15
318 2 -8.35592 5.4309 -8.70211 12
319 2 -5.13653 3.30743 -11.4515 12
320 2 -6.98605 0.406274 -1.85814 23
321 2 -9.04119 3.16244 -1.6073 23
322 2 -8.42775 5.22746 -3.97664 23
323 2 -7.0929 2.10606 -4.186 23
324 2 -6.77335 5.92751 -6.08825 19
325 2 -8.5494 7.98156 -6.56583 14
326 2 -3.37347 6.01391 -11.7297 12
327 2 -7.09607 5.93819 -1.31876 24
328 2 -10.3782 7.01223 1.70558 15
329 2 -9.09405 8.48785 -0.869634 16
330 2 -7.22183 8.1204 -3.87151 22
331 2 -7.51813 10.7754 -1.58592 13
332 2 -3.33072 0.478563 -12.7583 14
333 2 -1.6936 2.96643 -11.7272 17
334 2 -3.52594 0.238657 -6.87084 24
335 2 -5.24081 3.04611 -6.61152 21
336 2 -1.81797 8.95965 -10.7341 11
337 2 -3.47053 1.96351 -9.34728 21
338 2 -3.84781 0.137984 -1.54767 21
339 2 -5.56195 3.06739 -1.433 21
340 2 -5.49983 5.01878 -3.82548 20
341 2 -3.72333 2.38448 -4.02264 23
342 2 0.0176984 5.78828 -11.8038 15
343 2 -3.58173 5.72466 -6.36282 22
344 2 -5.0301 8.83921 -7.04439 19
345 2 -7.08719 7.78887 -8.75879 11
346 2 -3.57027 5.86995 -1.47834 25
347 2 -5.29463 8.63299 -1.15184 24
348 2 -5.85589 10.4126 -4.62917 15
349 2 -3.97439 7.70851 -3.95566 21
350 2 -3.76738 11.304 -5.88572 12
351 2 -3.71186 11.6055 -0.613119 14
352 2 -5.36882 12.7901 -2.98657 10
353 2 -0.169465 0.504709 -12.8074 15
354 2 1.74785 2.94244 -11.5199 16
355 2 -0.292918 0.0796895 -6.95394 23
356 2 -1.78601 2.99135 -6.84289 23
357 2 -5.25162 5.18401 -9.27088 20
358 2 -0.00747087 2.09619 -9.53181 23
359 2 -0.638735 0.245382 -1.528 21
360 2 -1.90625 2.98636 -1.35181 22
361 2 -1.90103 5.01195 -3.95453 21
362 2 -0.430374 2.27973 -4.0455 21
363 2 1.16624 8.74629 -10.9749 11
364 2 -0.283022 5.9269 -6.34939 20
365 2 -1.99322 8.53458 -6.31913 20
366 2 -3.97868 7.96509 -9.19387 16
367 2 -2.0879 4.95326 -9.32343 23
368 2 -0.403502 5.85692 -1.44415 24
369 2 -1.90122 8.83431 -0.63612 19
370 2 -1.65018 10.1965 -3.73292 18
371 2 -0.462037 7.63806 -3.72058 23
372 2 -0.797266 11.7016 -6.22026 15
373 2 -0.0557246 11.4524 -1.10508 23
374 2 -2.5415 13.9987 -1.43948 15
375 2 -2.71324 13.9788 -5.15245 11
376 1 -13.7566 1.48574 -1.90469 12
377 1 -13.6707 -0.72003 0.718994 13
378 1 -13.4843 1.54342 3.50119 15
379 1 -11.6646 3.92728 -2.43836 17
380 1 -10.3842 1.86484 -0.916099 21
381 1 -10.2784 -0.315365 1.57344 23
382 1 -12.5974 2.22839 0.658634 16
383 1 -11.6019 4.15669 3.65006 16
384 1 -10.4053 1.51321 4.47795 22
385 1 -10.0549 -0.368521 7.5975 19
386 1 -13.4526 -0.497906 6.28851 10
387 1 -10.6134 1.87561 8.82083 12
388 1 -10.65 7.66348 -0.0434011 13
389 1 -10.4686 5.11713 1.17235 18
390 1 -10.384 7.35857 3.58617 11
391 1 -12.2614 2.52732 6.3835 14
392 1 -8.70291 4.85047 -0.577715 24
393 1 -7.33938 2.18228 -0.888185 22
394 1 -7.00537 -0.0678382 1.53814 24
395 1 -9.29809 2.44659 1.97344 23
396 1 -8.40003 4.36009 4.09831 19
397 1 -6.8169 1.63525 4.29947 25
398 1 -6.91411 -0.38111 7.04501 22
399 1 -8.41283 2.63139 7.03961 23
400 1 -10.2099 5.37511 6.20559 13
401 1 -7.01851 1.84864 9.95974 19
402 1 -5.3446 3.06641 12.3947 12
403 1 -8.80592 10.5704 -0.349738 11
404 1 -7.20799 7.85702 -0.664981 21
405 1 -6.93058 5.56845 2.03265 21
406 1 -8.43996 8.48124 1.93322 15
407 1 -6.77128 11.4809 2.29699 11
408 1 -6.75245 7.35339 4.98164 20
409 1 -6.90917 5.44174 7.05121 20
410 1 -6.47573 7.32928 8.90995 13
411 1 -3.37077 7.6252 9.97255 17
412 1 -4.18202 13.627 3.48251 10
413 1 -5.40503 4.84932 -0.810711 20
414 1 -3.83642 2.1591 -0.840864 23
415 1 -3.63088 -0.0121242 1.6492 23
416 1 -5.53249 2.71978 1.82201 23
417 1 -5.10154 4.71908 4.77536 25
418 1 -3.67505 1.71163 4.34288 25
419 1 -3.60735 -0.148957 7.22502 25
420 1 -5.35915 2.52111 7.0885 21
421 1 -4.95614 4.53099 9.84391 21
422 1 -3.67473 1.68979 9.92573 22
423 1 -3.45887 0.0811004 12.293 14
424 1 -8.03829 4.3699 10.2918 12
425 1 -5.3029 10.2866 -0.439026 19
426 1 -3.56291 7.56105 -0.51924 23
427 1 -3.72472 5.46128 1.92157 23
428 1 -5.03451 8.20953 2.06316 24
429 1 -5.42187 10.7252 4.85219 13
430 1 -3.74955 7.70852 4.70555 21
431 1 -3.99428 5.68239 7.37489 24
432 1 -4.93561 8.85443 7.32921 17
433 1 -2.08637 8.22009 13.3963 7
434 1 -3.39413 5.85682 12.6474 13
435 1 -4.26256 13.2779 -1.54162 12
436 1 -3.51727 11.737 1.40786 19
437 1 -3.10357 11.8323 6.87736 10
438 1 -1.91838 4.79876 -0.706966 23
439 1 -0.225764 2.05386 -0.812846 23
440 1 -0.505215 -0.237576 1.60571 21
441 1 -2.04979 2.71827 1.86848 24
442 1 -1.88312 4.67669 4.65275 25
443 1 -0.180103 1.66129 4.40562 22
444 1 -0.440644 -0.125955 6.98713 23
445 1 -2.06726 2.95511 7.19501 23
446 1 -1.73645 4.48387 9.41306 20
447 1 -0.538545 1.79849 9.95374 24
448 1 -0.175529 0.126656 12.3746 17
449 1 -1.95926 2.89504 12.623 16
450 1 -1.94006 10.7882 -1.00836 18
451 1 -0.358349 7.58338 -0.553152 25
452 1 -0.311892 5.38144 2.20587 23
453 1 -1.73172 8.39145 2.19454 22
454 1 -1.894 10.4277 3.99006 20
455 1 -0.260946 7.6995 4.92479 25
456 1 -0.642535 6.01752 7.26575 21
457 1 -1.95331 8.62033 7.39022 22
458 1 -0.0885235 7.37749 9.77221 18
459 1 -0.357947 5.76637 12.9491 15
460 1 -0.983344 14.4078 -2.5607 12
461 1 -0.212611 11.8368 1.94113 16
462 1 -1.86399 14.4921 0.368899 13
463 1 0.152588 11.5732 6.13661 11
464 2 -13.3158 -0.208588 4.34511 13
465 2 -13.7337 0.934236 1.64015 13
466 2 -9.9991 -0.135871 3.5335 20
467 2 -12.0419 2.44243 4.42782 18
468 2 -11.6682 3.52096 1.67504 17
469 2 -10.7125 1.33699 0.74006 23
470 2 -9.7897 0.364629 9.4689 12
471 2 -13.461 1.22162 7.07857 10
472 2 -9.78165 1.27989 6.40837 20
473 2 -10.4691 5.58891 4.34996 14
474 2 -8.41955 7.79186 4.01683 14
475 2 -11.4261 4.15494 6.80387 12
476 2 -6.97875 -0.238812 3.66148 26
477 2 -8.72315 2.43516 3.82992 23
478 2 -8.68936 4.46843 1.64321 21
479 2 -7.44763 1.63694 0.914458 22
480 2 -6.91983 -0.0278329 9.25543 21
481 2 -7.0073 5.47156 9.27306 16
482 2 -8.38105 4.37305 6.17606 19
483 2 -6.73064 1.46704 6.33758 22
484 2 -6.74399 3.08936 11.3382 11
485 2 -6.77219 5.38923 3.99811 22
486 2 -6.91699 7.36293 7.1335 15
487 2 -8.15913 10.3122 1.48336 14
488 2 -6.74622 7.55495 1.43046 22
489 2 -9.04449 2.93945 8.85316 17
490 2 -5.00181 8.47693 9.19209 13
491 2 -5.66515 12.4373 3.53478 10
492 2 -3.69082 -0.345941 3.58474 25
493 2 -5.24095 2.70039 3.79595 25
494 2 -5.37463 4.64669 1.27289 24
495 2 -3.46731 1.83561 1.04627 23
496 2 -3.71391 -0.274952 9.56621 20
497 2 -5.35368 2.95172 9.03822 24
498 2 -5.25503 4.42493 6.66919 24
499 2 -3.59901 1.72668 6.32085 25
500 2 -5.07005 4.91509 12.0252 13
501 2 -3.75301 2.13556 11.9651 17
502 2 -3.51317 5.5684 4.07406 25
503 2 -5.29649 8.58333 4.4342 19
504 2 -5.56199 10.1269 1.51882 18
505 2 -3.34507 7.47943 1.3355 22
506 2 -3.77469 5.80353 9.29109 23
507 2 -2.97926 7.50356 11.8638 12
508 2 -4.50316 10.5318 6.38731 13
509 2 -3.7698 7.37545 6.81174 24
510 2 -3.02607 12.241 4.76896 13
511 2 -3.16904 13.7103 1.84121 11
512 2 -0.532818 -0.0268825 3.5026 25
513 2 -1.87757 2.73319 4.08193 23
514 2 -2.04993 4.82356 1.47977 23
515 2 -0.210739 1.65964 1.26506 23
516 2 -0.372865 -0.308441 8.93988 23
517 2 -2.11528 2.74487 9.20099 26
518 2 -2.22384 5.03456 6.82359 22
519 2 -0.681391 1.74762 6.51904 22
520 2 -1.8535 4.65792 12.0914 22
521 2 -0.358834 2.09344 12.6132 16
522 2 -0.278746 5.7856 4.20315 22
523 2 -1.92321 8.59633 4.09832 22
524 2 -2.03948 10.6914 1.91983 21
525 2 -0.296477 7.30933 1.7769 22
526 2 -0.247539 5.58877 9.03203 24
527 2 -1.71941 8.00705 8.92977 18
528 2 -1.36794 10.5736 6.79099 15
529 2 -0.167709 7.91241 6.75879 21
530 2 -1.27917 6.72349 14.2126 7
531 2 -0.193424 11.3389 4.29651 16
532 2 -0.100685 13.7294 0.935541 14
533 1 3.49343 -11.2327 -8.29367 11
534 1 1.13607 -6.15225 -11.706 15
535 1 1.33423 -8.42398 -8.75312 17
536 1 1.04503 -6.94453 -6.39476 24
537 1 2.47197 -9.74176 -6.08586 24
538 1 4.92661 -12.4153 -6.06902 11
539 1 1.70952 -8.81888 -3.53043 22
540 1 -0.155454 -3.34734 -11.8786 17
541 1 1.39805 -0.614014 -12.477 15
542 1 3.17661 -3.63632 -11.9083 14
543 1 3.14863 -5.50969 -9.15983 22
544 1 1.62004 -2.61494 -9.19256 23
545 1 1.46265 -0.576504 -6.34922 23
546 1 2.97319 -3.819 -6.6291 18
547 1 2.698 -5.58783 -3.86702 21
548 1 1.38267 -2.70803 -3.69471 22
549 1 4.94479 -6.12963 -11.3296 14
550 1 4.29207 -8.48081 -8.61692 17
551 1 4.08749 -6.61126 -6.15051 20
552 1 6.22255 -9.57628 -6.38096 19
553 1 6.59461 -11.7589 -3.07083 13
554 1 4.77824 -8.66286 -3.15622 22
555 1 4.67126 -0.813088 -11.8308 17
556 1 6.4223 -3.79505 -11.5129 16
557 1 6.15474 -5.84009 -8.45479 21
558 1 4.99067 -2.67698 -9.01786 22
559 1 4.26264 -0.638663 -6.46508 22
560 1 6.15925 -3.70579 -6.38631 21
561 1 6.26255 -5.89638 -4.32428 21
562 1 4.75424 -2.68012 -3.88544 23
563 1 8.28497 -7.4323 -6.69546 14
564 1 7.9342 -8.72292 -4.1296 18
565 1 8.18891 -1.05991 -12.2263 10
566 1 8.11693 -6.85033 -10.533 8
567 1 7.84388 -2.85982 -9.31208 16
568 1 7.61935 -1.08128 -6.47439 24
569 1 9.52233 -4.06762 -6.99221 14
570 1 9.67073 -5.8462 -4.05135 18
571 1 7.99204 -2.99592 -3.55937 24
572 1 11.2306 -8.88837 -4.33196 10
573 1 11.0527 -1.04001 -6.06978 16
574 1 11.5574 -3.57771 -4.38759 14
575 2 2.73533 -12.0267 -1.91393 16
576 2 5.44542 -10.8834 -7.34033 11
577 2 2.92368 -9.49975 -8.53036 14
578 2 0.881995 -9.11308 -6.66976 25
579 2 1.46766 -6.78499 -9.7488 18
580 2 4.56018 -6.70147 -9.47564 17
581 2 1.38685 -11.6638 -4.78186 15
582 2 1.1989 -8.75563 -1.26794 20
583 2 1.14003 -6.8959 -4.3302 21
584 2 3.31827 -9.72249 -4.26733 21
585 2 3.10495 -5.5029 -11.7979 13
586 2 1.64832 -2.46284 -12.2 16
587 2 2.71097 -5.70471 -7.19602 23
588 2 1.79199 -2.39295 -7.21742 21
589 2 1.38962 -0.787183 -9.59433 23
590 2 3.25502 -3.67688 -9.74247 22
591 2 3.04765 -5.80731 -1.80076 21
592 2 1.45933 -2.99756 -1.67781 21
593 2 1.65942 -0.763748 -4.08445 21
594 2 2.99268 -3.65057 -4.45942 23
595 2 4.99452 -12.2683 -4.17812 13
596 2 4.71173 -8.41352 -6.80763 23
597 2 6.88498 -5.71353 -11.5793 11
598 2 6.40721 -11.8274 -1.20435 12
599 2 4.28071 -8.6478 -1.15562 20
600 2 4.38024 -6.90261 -4.21006 22
601 2 6.35294 -9.64249 -3.50365 20
602 2 4.82714 -2.72376 -12.0277 15
603 2 5.82477 -5.72174 -6.48751 20
604 2 4.78606 -2.72082 -7.1831 23
605 2 4.83544 -0.539386 -9.52128 22
606 2 6.49268 -4.08188 -9.53178 20
607 2 6.286 -6.22298 -1.41817 18
608 2 4.77831 -3.18487 -2.02861 24
609 2 4.74114 -0.865395 -4.49765 25
610 2 6.35812 -3.78667 -4.3167 20
611 2 7.99782 -9.10399 -6.0804 11
612 2 7.76188 -6.97139 -8.49768 13
613 2 7.99904 -8.90791 -0.771344 19
614 2 7.94059 -6.79682 -3.64667 23
615 2 9.59857 -9.61508 -3.74783 14
616 2 9.39799 -5.93498 -6.14638 17
617 2 7.78862 -3.09988 -7.13399 18
618 2 8.33579 -0.97969 -9.71369 16
619 2 8.25302 -2.9574 -11.95 8
620 2 9.60774 -5.84669 -0.97366 21
621 2 7.8176 -3.22558 -1.50753 21
622 2 7.843 -1.11275 -4.43304 21
623 2 10.1541 -4.26925 -3.36129 18
624 2 10.7672 -9.05216 -0.826622 13
625 2 11.0318 -7.19427 -3.61369 14
626 2 11.0356 -2.90779 -6.07461 14
627 2 12.9966 -5.95126 -0.693041 13
628 2 11.4831 -2.9873 -0.567193 20
629 2 10.9574 -1.24898 -3.87646 18
630 2 12.9148 -3.03707 -3.04987 11
631 1 3.21278 -11.7324 -3.74268 17
632 1 1.38357 -13.051 4.30989 12
633 1 1.22356 -6.72857 -1.26794 22
634 1 2.81712 -9.69619 -0.438553 23
635 1 1.28458 -13.0681 -0.652428 12
636 1 1.29976 -8.44224 1.77841 21
637 1 1.48268 -6.67478 4.59648 21
638 1 3.10352 -10.0061 4.68451 19
639 1 2.40807 -11.4054 7.52676 12
640 1 1.33357 -8.53663 6.86326 23
641 1 1.45298 -6.80605 9.7129 20
642 1 2.4136 -9.48491 9.83612 13
643 1 1.29484 -1.33369 -0.656907 22
644 1 3.00531 -3.86696 -1.14587 22
645 1 2.77576 -5.64505 1.81892 23
646 1 1.17467 -3.03401 1.78892 23
647 1 1.43907 -0.744343 4.31651 21
648 1 3.03534 -3.50414 4.45108 23
649 1 3.15701 -5.26796 7.15389 23
650 1 1.49201 -2.37632 7.07217 23
651 1 1.0328 -0.793421 10.0302 23
652 1 3.31969 -3.46564 9.90772 21
653 1 -0.301592 -8.50298 12.0518 12
654 1 1.517 -2.62147 12.8069 13
655 1 4.56637 -12.1874 -1.06516 15
656 1 2.85443 -11.4657 2.16755 16
657 1 4.56133 -6.68465 -0.645654 22
658 1 6.16858 -9.56417 -0.826626 18
659 1 6.32081 -11.6197 1.69494 11
660 1 4.52611 -8.87646 2.16927 20
661 1 4.6623 -6.54034 4.57319 21
662 1 6.1736 -9.72289 4.81051 15
663 1 4.39656 -8.25286 7.31813 18
664 1 4.62524 -6.44309 9.89312 13
665 1 4.60053 -1.22483 -0.96857 23
666 1 6.24734 -4.10937 -1.27145 21
667 1 6.07337 -5.62658 1.85232 22
668 1 4.7688 -2.94355 1.69678 22
669 1 4.76547 -0.862924 4.46439 21
670 1 6.2707 -3.84211 4.62555 20
671 1 6.62177 -5.64303 7.07762 21
672 1 4.81596 -2.52169 7.24093 22
673 1 4.65544 -0.647106 9.9174 23
674 1 6.90695 -3.73643 9.7099 17
675 1 5.3408 -2.76653 12.4058 11
676 1 8.02709 -7.0016 -1.52281 23
677 1 9.39272 -9.80359 -1.75322 15
678 1 7.85843 -8.74938 1.40034 21
679 1 7.8404 -6.88027 4.35325 22
680 1 9.09213 -10.2768 3.82101 11
681 1 8.00215 -8.60288 6.80754 12
682 1 7.9546 -6.43435 9.53347 10
683 1 7.69661 -1.24316 -1.12365 22
684 1 9.9595 -3.98852 -1.47137 21
685 1 9.42906 -5.95532 1.50885 21
686 1 7.92774 -3.12895 0.892368 18
687 1 7.95712 -0.78263 4.5765 23
688 1 9.96496 -3.77385 3.89104 22
689 1 9.55502 -5.65498 6.44666 17
690 1 8.43258 -2.46102 6.99569 21
691 1 7.83649 -0.82127 10.1747 18
692 1 9.77939 -3.67558 9.21979 12
693 1 11.2774 -7.24648 -1.53754 18
694 1 11.4339 -9.06919 1.05915 13
695 1 10.7738 -7.44693 3.6789 13
696 1 11.1576 -1.0235 -0.863666 21
697 1 12.958 -4.06489 -1.33942 13
698 1 12.8476 -5.8432 1.22433 13
699 1 11.5196 -3.07616 1.38585 19
700 1 11.4452 -0.547795 4.63107 17
701 1 13.3831 -3.12546 3.82852 10
702 1 11.3789 -2.79299 6.56985 15
703 2 1.68814 -12.2804 0.983338 17
704 2 1.15137 -12.1301 6.33184 15
705 2 2.71163 -11.7005 4.02933 15
706 2 1.23401 -8.67849 4.73405 21
707 2 1.24403 -6.67079 1.02644 22
708 2 2.71489 -9.59162 1.46032 19
709 2 1.2451 -10.6628 8.72553 13
710 2 1.85757 -6.63212 6.63148 18
711 2 3.07924 -9.71382 6.66633 15
712 2 0.21921 -3.63298 11.9488 14
713 2 3.03235 -5.51695 4.09234 22
714 2 1.57956 -2.76047 3.91529 22
715 2 1.20085 -0.904761 1.15182 22
716 2 3.22198 -3.87951 0.797018 23
717 2 2.8514 -5.42682 9.35886 17
718 2 1.3474 -2.6298 9.06695 24
719 2 1.37071 -0.602081 6.12112 25
720 2 2.95752 -3.48547 6.38705 24
721 2 1.43405 -0.701527 11.7994 20
722 2 6.60387 -2.06802 11.1449 13
723 2 4.47791 -12.0459 0.979455 14
724 2 7.2131 -10.9989 3.32617 10
725 2 4.9233 -8.42989 3.96496 22
726 2 4.54452 -6.57229 1.43691 20
727 2 6.16664 -9.37328 1.10822 18
728 2 3.80166 -8.29501 9.31968 15
729 2 4.99309 -6.30103 6.72518 21
730 2 6.07809 -9.05967 6.75814 13
731 2 1.43344 -8.39682 10.8565 14
732 2 6.25668 -5.74454 4.00855 18
733 2 4.78169 -2.84984 3.6282 23
734 2 4.54913 -0.976473 1.0787 23
735 2 6.23786 -3.97427 0.931488 22
736 2 6.12455 -5.54523 9.16804 15
737 2 4.8042 -2.49231 9.15571 22
738 2 5.02078 -0.586658 6.49016 24
739 2 6.6139 -3.63233 6.93718 22
740 2 3.40112 -3.19741 11.9113 14
741 2 4.9597 -0.275235 11.8052 17
742 2 8.15189 -8.72135 4.73541 15
743 2 8.27515 -7.16415 2.43695 19
744 2 10.4173 -9.24905 2.78749 12
745 2 8.33276 -6.62512 7.53655 15
746 2 9.83457 -6.0572 4.6301 16
747 2 8.22912 -2.94881 4.78078 20
748 2 7.86075 -1.10628 0.933459 22
749 2 9.46414 -3.87613 1.97877 21
750 2 8.64548 -4.71671 10.1043 13
751 2 8.43909 -2.27804 9.05158 16
752 2 8.23536 -0.319283 6.37897 19
753 2 10.2021 -4.0284 7.35629 15
754 2 8.11764 1.03536 11.1098 11
755 2 11.367 -6.81178 2.0028 15
756 2 11.8149 -3.22492 4.81397 14
757 2 11.3519 -1.01165 1.22673 19
758 2 12.9305 -4.22579 2.13563 13
759 2 10.3746 -1.3322 7.01152 15
760 1 6.57427 2.02942 -11.7461 13
761 1 1.56248 4.8773 -11.5978 18
762 1 2.89358 7.75768 -11.502 10
763 1 3.36683 1.98835 -11.453 20
764 1 3.05286 0.351781 -9.16329 22
765 1 1.47343 3.13426 -8.79776 21
766 1 1.4629 5.20335 -6.22366 22
767 1 3.17573 2.2534 -6.31378 23
768 1 3.34794 0.295512 -3.60642 20
769 1 1.4146 2.92313 -3.86623 20
770 1 4.9806 8.89408 -8.85019 10
771 1 3.27334 5.89132 -8.51914 24
772 1 1.44688 8.46227 -8.93751 17
773 1 0.611604 10.7226 -7.00565 15
774 1 3.2741 8.10501 -5.94547 20
775 1 2.93683 5.81492 -3.45628 23
776 1 1.45665 8.83561 -3.0149 21
777 1 1.89479 13.9167 -3.2916 11
778 1 4.87485 4.86392 -11.7714 13
779 1 11.5484 2.88608 -9.10692 11
780 1 6.66154 -0.00156939 -9.00588 22
781 1 5.0173 2.96111 -8.96767 22
782 1 4.99743 4.7793 -5.95911 23
783 1 6.3378 1.81609 -6.16705 24
784 1 6.35884 0.00531086 -3.73007 23
785 1 4.80481 2.83238 -3.21883 26
786 1 6.78804 5.96556 -9.09813 18
787 1 8.2217 8.75629 -8.44808 11
788 1 -0.133128 11.4934 -3.51384 19
789 1 6.49185 7.4878 -6.32775 18
790 1 6.42648 5.86328 -3.26902 20
791 1 5.08712 8.43195 -3.17219 21
792 1 3.26683 11.3871 -4.00285 13
793 1 9.74575 0.120044 -9.02561 14
794 1 8.426 3.00713 -9.03309 19
795 1 8.45789 4.77571 -6.85219 22
796 1 9.804 1.79102 -6.20691 21
797 1 9.45565 -0.30524 -3.40354 22
798 1 7.91222 2.96719 -3.919 20
799 1 10.4123 5.71168 -9.43899 12
800 1 9.98729 7.23669 -6.70105 15
801 1 9.6348 5.5843 -4.02912 16
802 1 7.93243 8.64822 -4.42535 15
803 1 11.6004 4.17975 -6.42033 14
804 1 12.9981 1.81252 -6.10498 9
805 1 12.8695 -1.09103 -3.59066 14
806 1 11.2125 1.86849 -3.41433 20
807 2 3.08616 0.151057 -12.04 16
808 2 4.79425 2.99209 -11.8166 13
809 2 2.83823 0.572582 -7.14741 23
810 2 1.326 3.22224 -6.61247 22
811 2 1.46263 5.01398 -8.68276 18
812 2 3.31556 2.32584 -9.27831 21
813 2 2.95843 -0.162381 -1.40481 24
814 2 1.28768 3.14906 -1.6816 24
815 2 1.48575 4.80307 -4.21849 24
816 2 3.25779 2.26431 -4.23538 26
817 2 3.19674 5.85219 -12.0544 13
818 2 3.35842 5.77002 -6.63891 21
819 2 -0.498422 7.66727 -8.98906 19
820 2 0.336109 10.3953 -8.99225 10
821 2 3.51942 7.76087 -9.47332 15
822 2 2.97383 5.75375 -1.49263 24
823 2 1.45753 8.43653 -0.982752 18
824 2 -0.0068299 13.4435 -4.2451 14
825 2 3.17033 7.8551 -3.86882 22
826 2 8.31556 8.33989 -6.69649 14
827 2 3.23702 12.8729 -2.63623 14
828 2 0.853363 14.3754 -1.88454 12
829 2 1.56767 10.7442 -3.69387 17
830 2 6.60002 -0.00865042 -12.0624 13
831 2 9.93901 1.89077 -9.53685 13
832 2 6.13605 0.0311547 -6.76701 22
833 2 4.98298 3.07105 -6.64988 20
834 2 5.59313 4.6949 -9.6514 18
835 2 6.7798 1.96962 -9.70182 18
836 2 5.98939 -0.112648 -1.71565 23
837 2 4.63419 2.73056 -1.29817 20
838 2 4.80243 4.82643 -3.97481 22
839 2 6.30543 1.87526 -3.96225 21
840 2 6.66613 5.59994 -7.0201 22
841 2 5.0532 8.6535 -6.8974 18
842 2 6.6472 7.82612 -9.17832 12
843 2 6.18107 5.64042 -1.09032 18
844 2 5.00169 8.26077 -0.567417 18
845 2 1.52591 8.87794 -6.61562 19
846 2 6.17506 7.37935 -4.30963 20
847 2 5.29517 11.6447 -1.35228 13
848 2 9.50042 0.0575852 -7.03009 19
849 2 8.29797 2.68686 -7.07879 22
850 2 8.56342 4.99737 -8.95626 16
851 2 11.642 4.70941 -8.54408 11
852 2 9.4233 -0.459946 -1.50963 23
853 2 7.77156 2.27436 -1.21019 21
854 2 8.29716 4.6806 -3.12266 17
855 2 9.30848 1.53944 -4.04578 21
856 2 10.0471 5.39641 -5.98254 19
857 2 9.85302 7.78326 -8.75941 10
858 2 11.1197 5.5689 -2.76704 14
859 2 7.62489 10.1627 -3.25941 12
860 2 4.8598 10.2504 -3.60656 16
861 2 9.46778 7.43037 -4.22915 15
862 2 11.2928 2.48443 -7.16463 17