ITEM: TIMESTEP
176000
ITEM: NUMBER OF ATOMS
1000
ITEM: BOX BOUNDS pp pp pp
-30.0 30.0
-30.0 30.0
-30.0 30.0
ITEM: ATOMS id type x y z Coordination
1 1 -11.9964 -0.745702 -6.85455 11
2 1 -10.7085 -3.82025 -6.77013 12
3 1 -10.5646 -5.77513 -3.77475 16
4 1 -12.0003 -2.61537 -4.22006 15
5 1 -8.76158 -6.382 -5.93034 17
6 1 -7.05201 -9.15786 -5.75953 12
7 1 -9.12688 -10.8757 -1.00597 13
8 1 -9.19456 -8.18238 -3.46153 16
9 1 -8.22096 -0.853425 -11.4716 12
10 1 -6.99244 -3.8747 -11.821 13
11 1 -7.05103 -5.7197 -8.99791 18
12 1 -8.77378 -2.9582 -9.10988 13
13 1 -8.6861 -1.17783 -6.09474 21
14 1 -7.33954 -3.78966 -6.15446 20
15 1 -6.94037 -5.70316 -3.20481 22
16 1 -8.73172 -2.97035 -3.28223 23
17 1 -5.14843 -6.17566 -11.4118 13
18 1 -5.39847 -8.52967 -8.45439 12
19 1 -5.58044 -6.36038 -5.82204 22
20 1 -3.3931 -9.59248 -6.39639 18
21 1 -5.08415 -11.3932 -4.01878 13
22 1 -5.12489 -8.55605 -3.42766 20
23 1 -5.24748 -1.34572 -11.1191 19
24 1 -3.70264 -3.82483 -12.5388 12
25 1 -3.49388 -5.84263 -8.55884 22
26 1 -5.31051 -3.13176 -8.30767 23
27 1 -5.49644 -1.2199 -6.04963 21
28 1 -3.58829 -3.74379 -6.02194 24
29 1 -3.7193 -5.74421 -3.16417 26
30 1 -5.32528 -3.13741 -3.35447 24
31 1 -1.93001 -12.439 -5.7996 10
32 1 -1.84363 -6.63698 -11.6635 14
33 1 -0.720276 -11.5109 -8.81328 9
34 1 -1.91653 -8.52851 -8.8838 15
35 1 -1.88754 -6.42348 -5.73167 20
36 1 -0.167904 -9.62406 -6.00336 21
37 1 0.0878867 -11.8047 -3.55747 17
38 1 -1.57831 -9.07672 -3.17956 23
39 1 -2.29597 -1.26585 -11.8058 18
40 1 -0.499789 -3.87098 -11.2525 21
41 1 -0.371404 -5.9863 -8.69812 22
42 1 -1.99843 -2.93762 -8.63699 22
43 1 -1.95521 -0.897822 -5.89848 24
44 1 -0.295731 -3.90298 -5.78468 24
45 1 -0.199289 -5.70467 -3.37526 23
46 1 -2.02179 -2.77332 -3.41447 24
47 2 -12.2085 -1.14858 -3.09747 17
48 2 -11.0711 -7.50907 -2.95447 15
49 2 -11.0182 -10.3874 -1.54863 9
50 2 -10.4537 -5.34592 -5.72988 15
51 2 -11.3706 -2.40464 -5.95635 13
52 2 -8.2787 -2.69789 -10.906 14
53 2 -10.6524 -5.66961 -0.111225 16
54 2 -11.8514 -2.52875 -0.253852 17
55 2 -13.1425 -0.357226 -5.44581 11
56 2 -10.8358 -3.88926 -3.14661 18
57 2 -8.38131 -8.03288 -5.22746 15
58 2 -5.39775 -6.53363 -9.28615 15
59 2 -7.38257 -11.3445 -0.231789 13
60 2 -8.83521 -8.93109 -1.66058 18
61 2 -8.82622 -6.00264 -3.03459 18
62 2 -6.09558 -9.88856 -4.32141 15
63 2 -7.5573 -5.72045 -7.21743 18
64 2 -8.86556 -2.92021 -7.17673 22
65 2 -8.58852 -0.245583 -9.64201 15
66 2 -6.79897 -3.72601 -9.18451 20
67 2 -7.04208 -5.96941 -1.12801 22
68 2 -8.61686 -2.95327 -1.31377 22
69 2 -8.73556 -1.04351 -3.97004 22
70 2 -7.115 -3.98277 -4.17223 25
71 2 -3.51589 -11.1901 -5.39603 15
72 2 -0.778503 -11.4574 -6.91941 15
73 2 -5.60534 -8.09739 -6.51856 16
74 2 -6.95148 -5.72394 -11.7238 9
75 2 -3.63936 -9.26559 -8.21977 13
76 2 -4.79574 -12.5001 -2.56602 12
77 2 -5.57516 -8.51613 -1.41802 20
78 2 -5.4005 -6.59057 -3.81598 20
79 2 -3.40109 -9.36043 -3.34134 19
80 2 -3.44599 -5.64289 -12.1174 13
81 2 -5.15449 -2.94407 -12.0669 17
82 2 -3.81558 -5.8063 -6.58423 22
83 2 -5.44949 -3.20863 -6.43347 21
84 2 -5.1924 -1.10146 -9.23907 22
85 2 -3.59738 -4.01313 -8.67813 21
86 2 -3.73129 -5.95398 -1.137 22
87 2 -5.3791 -3.09699 -1.27692 23
88 2 -5.16091 -1.09969 -3.98419 21
89 2 -3.63332 -3.91183 -4.09497 25
90 2 -2.59554 -11.0495 -0.743416 19
91 2 -1.6999 -12.4301 -3.86454 14
92 2 1.1062 -12.1759 -9.3444 7
93 2 -1.54046 -8.33704 -6.09231 20
94 2 -1.79236 -6.93975 -9.80123 19
95 2 -0.456509 -9.65712 -9.24574 14
96 2 0.39905 -11.4977 -1.55328 18
97 2 -1.48056 -8.45466 -1.29016 20
98 2 -1.99487 -6.28454 -3.77301 20
99 2 0.147079 -9.90287 -3.83055 20
100 2 -0.203935 -5.7574 -12.1851 13
101 2 -1.87621 -3.12716 -12.2685 15
102 2 -0.225142 -5.73731 -6.4311 24
103 2 -1.59282 -2.76279 -6.61791 21
104 2 -1.94439 -0.932157 -8.84265 20
105 2 -0.478165 -4.12731 -9.30913 22
106 2 -0.174887 -5.70146 -1.50074 24
107 2 -2.00024 -2.90488 -1.26374 24
108 2 -1.99722 -0.836416 -4.03165 22
109 2 -0.288023 -3.85023 -3.77193 23
110 1 -11.9883 -8.91765 -2.09566 9
111 1 -12.3279 -6.72779 0.171618 11
112 1 -11.4648 -10.1259 0.446739 8
113 1 -12.6448 -5.3615 3.87492 11
114 1 -12.1624 -0.922744 -1.10826 18
115 1 -10.8784 -3.95615 -1.20639 18
116 1 -10.6391 -5.43396 1.86653 19
117 1 -12.0483 -2.91937 1.65601 16
118 1 -12.1904 -0.453814 4.66004 18
119 1 -10.2355 -3.54024 4.33953 21
120 1 -10.7168 -5.67269 6.4154 11
121 1 -12.0208 -3.15511 6.85433 11
122 1 -8.87618 -6.5517 -1.05843 21
123 1 -7.04347 -9.34393 -0.725167 18
124 1 -7.68451 -11.2288 1.69734 13
125 1 -8.97211 -8.76199 2.03374 18
126 1 -8.78728 -6.68566 4.12101 20
127 1 -6.93604 -9.90134 4.56352 17
128 1 -8.88473 -9.02083 6.07471 10
129 1 -8.5477 -1.07908 -0.695301 24
130 1 -7.04143 -3.87899 -0.679527 23
131 1 -7.12339 -5.82946 1.81563 20
132 1 -8.52399 -2.74092 2.20635 20
133 1 -8.39984 -0.831503 4.81351 23
134 1 -6.93955 -3.93475 4.47235 22
135 1 -7.39031 -6.58344 7.18336 19
136 1 -8.6094 -2.96514 6.84092 21
137 1 -9.0683 -1.29751 9.35377 13
138 1 -7.18913 -4.17909 8.95864 16
139 1 -5.80464 -12.452 -0.686779 12
140 1 -4.96142 -12.648 3.06956 12
141 1 -5.36761 -6.6205 -0.678039 21
142 1 -3.48826 -9.29828 -1.19513 20
143 1 -3.28296 -11.6206 0.974538 17
144 1 -5.35267 -8.5489 2.03416 22
145 1 -5.34182 -6.59483 4.58605 23
146 1 -3.47364 -9.69665 3.73829 21
147 1 -3.89126 -11.5661 6.48702 11
148 1 -5.59836 -8.79689 7.43566 17
149 1 -6.1008 -6.78086 10.4322 12
150 1 -3.79528 -9.52913 9.56399 10
151 1 -5.09911 -1.07328 -0.661515 23
152 1 -3.57228 -3.85891 -0.870136 23
153 1 -3.68151 -5.86 1.86977 23
154 1 -5.31133 -2.94183 1.85448 24
155 1 -5.39356 -0.966494 4.43395 23
156 1 -3.6353 -3.8023 4.46467 24
157 1 -3.91317 -6.0878 7.0079 22
158 1 -5.32693 -3.09241 6.77556 19
159 1 -5.40618 -1.31763 9.65016 20
160 1 -3.57681 -4.13906 9.54285 21
161 1 -3.67096 -5.53013 12.3882 11
162 1 -5.75622 -3.56004 12.0879 12
163 1 -2.84939 -12.3518 -2.3853 14
164 1 -1.94477 -12.3863 4.24209 13
165 1 -1.87911 -6.62273 -0.947589 23
166 1 -0.446624 -9.97535 -0.678062 22
167 1 0.0550554 -11.1908 1.90696 19
168 1 -1.74364 -8.58311 1.51551 21
169 1 -2.06434 -6.76477 4.45984 23
170 1 -0.470334 -9.37681 4.58843 23
171 1 -0.167608 -11.4883 6.414 13
172 1 -2.19885 -8.84683 7.01671 21
173 1 -2.02531 -6.81136 9.6779 19
174 1 -0.17166 -9.71166 9.46782 11
175 1 -1.86647 -0.850212 -0.73217 22
176 1 -0.138592 -3.90247 -0.604704 24
177 1 -0.0641021 -5.66523 1.93871 25
178 1 -1.92578 -2.75698 1.74786 24
179 1 -1.89032 -1.06363 4.47766 22
180 1 -0.138364 -3.65783 4.48341 23
181 1 -0.371875 -6.09452 6.946 21
182 1 -2.01316 -3.08301 7.04094 22
183 1 -1.90134 -1.03807 9.94409 22
184 1 -0.145072 -3.9035 9.83728 22
185 1 -0.340445 -5.73938 12.456 13
186 1 -1.9571 -2.83954 12.2926 16
187 2 -12.0748 -8.51648 -0.0279866 13
188 2 -12.4154 -5.78953 2.09171 11
189 2 -9.54949 -10.5967 0.95292 13
190 2 -10.5864 -5.77582 4.44454 15
191 2 -12.2202 -3.78704 5.00211 14
192 2 -12.2525 -0.788122 2.56816 19
193 2 -10.3051 -3.5183 2.125 19
194 2 -11.6082 -1.31857 6.41858 16
195 2 -10.0496 -3.9838 6.24739 19
196 2 -6.66352 -11.5857 3.4448 14
197 2 -8.73042 -8.83009 4.15765 16
198 2 -9.07852 -6.83102 2.04732 17
199 2 -7.1383 -9.21871 1.53487 20
200 2 -9.32186 -7.12122 6.48502 12
201 2 -7.11501 -9.10938 6.52757 13
202 2 -7.01476 -5.80979 3.94068 23
203 2 -8.44522 -2.70579 4.2457 22
204 2 -8.60374 -0.967996 1.38537 24
205 2 -7.11519 -3.79061 1.27236 22
206 2 -7.19266 -5.97675 9.02543 14
207 2 -8.95203 -3.05394 8.8864 13
208 2 -8.66422 -0.880737 6.97957 18
209 2 -6.92729 -4.27902 6.72286 19
210 2 -5.2917 -5.34477 11.4544 12
211 2 -5.11704 -12.5939 1.21664 12
212 2 -3.86209 -11.6578 4.41886 14
213 2 -5.4573 -8.69528 4.08544 20
214 2 -5.36761 -6.7885 1.20914 21
215 2 -3.59139 -9.5018 1.69415 20
216 2 -5.06452 -8.14324 9.41494 14
217 2 -5.57503 -6.93899 6.59878 23
218 2 -3.75081 -9.91284 7.44447 15
219 2 -3.68677 -5.80282 4.20354 20
220 2 -5.27285 -3.2065 3.72162 22
221 2 -5.09584 -0.801618 1.21098 24
222 2 -3.55483 -3.9681 1.26789 24
223 2 -3.49338 -5.89191 8.82748 22
224 2 -5.2367 -2.89343 8.74394 21
225 2 -5.68934 -1.09396 6.48785 24
226 2 -3.60561 -3.91429 6.52268 23
227 2 -5.62652 -1.37121 11.8288 12
228 2 -3.7174 -3.63454 12.6178 12
229 2 -1.85854 -12.07 2.26899 18
230 2 -1.94716 -12.0045 6.20065 12
231 2 0.16849 -10.9987 4.12014 20
232 2 -1.97479 -8.59398 3.84476 24
233 2 -1.87727 -6.57671 1.30753 22
234 2 -0.0592295 -9.33915 1.16715 23
235 2 -1.87397 -9.05173 9.43389 12
236 2 -2.2442 -6.93922 6.46613 22
237 2 -0.415095 -9.43274 6.79815 18
238 2 -2.0151 -5.98551 11.5759 15
239 2 -0.188645 -5.59163 4.03511 21
240 2 -1.95695 -2.87753 3.74042 25
241 2 -1.80194 -0.913403 1.16669 24
242 2 -0.440479 -3.78267 1.24398 24
243 2 -0.4781 -5.81747 9.00361 22
244 2 -1.76398 -3.08832 9.67637 20
245 2 -2.09838 -1.09615 6.64124 23
246 2 -0.230724 -3.72891 6.55421 24
247 2 -2.03057 -0.930394 12.0787 15
248 2 -0.262717 -3.63058 12.2717 16
249 1 -13.6763 0.202291 -3.85678 11
250 1 -9.65985 0.978154 -8.90851 12
251 1 -12.0359 5.22268 -6.69334 8
252 1 -10.6616 2.19809 -6.04028 17
253 1 -10.1933 -0.0500093 -3.29999 23
254 1 -12.6671 3.27526 -3.91476 12
255 1 -10.346 8.02361 -5.51113 12
256 1 -10.2238 5.9263 -2.92685 17
257 1 -5.20199 0.897521 -13.1166 10
258 1 -6.87142 0.0044543 -8.61039 23
259 1 -8.39059 3.53347 -8.72678 15
260 1 -8.98804 5.2104 -5.88901 20
261 1 -7.36851 1.84413 -6.21789 21
262 1 -6.90303 -0.00212137 -3.47537 21
263 1 -8.71114 2.92974 -3.27486 22
264 1 -6.05663 5.90383 -8.50645 17
265 1 -7.27941 7.77399 -6.17553 18
266 1 -7.12677 5.86382 -3.47584 21
267 1 -8.35413 10.0318 -3.97162 14
268 1 -6.06812 12.3384 -3.28002 12
269 1 -5.88219 3.98683 -11.1795 14
270 1 -3.74443 1.68626 -10.9967 21
271 1 -3.66756 -0.0397906 -8.75382 20
272 1 -5.64392 2.76501 -8.30269 22
273 1 -5.62275 4.84987 -5.98184 22
274 1 -3.8941 1.74424 -5.77646 22
275 1 -3.68544 -0.123053 -3.35543 22
276 1 -5.32831 2.99995 -3.40045 22
277 1 -4.37413 7.00145 -11.4914 14
278 1 -3.33733 6.38348 -8.61529 21
279 1 -4.45873 9.03139 -8.79447 14
280 1 -5.43932 11.0264 -5.92463 14
281 1 -3.50416 7.8071 -6.05496 20
282 1 -3.72174 5.76879 -3.52044 22
283 1 -5.08291 8.55692 -3.63681 20
284 1 -3.29085 13.4231 -4.4518 10
285 1 -1.37248 3.43285 -13.3446 8
286 1 -2.85399 4.46287 -10.8985 22
287 1 -0.827271 1.86791 -11.0829 22
288 1 -0.394277 -0.0237056 -8.52307 22
289 1 -2.19823 2.61854 -8.24185 23
290 1 -2.20425 4.85322 -6.28425 22
291 1 -0.277239 1.88331 -5.80448 24
292 1 -0.426096 0.00248798 -3.48484 23
293 1 -2.10836 2.8749 -3.4203 23
294 1 -1.29932 6.85569 -12.657 11
295 1 -0.521083 5.50418 -8.64525 20
296 1 -1.39918 8.52483 -10.5292 13
297 1 -2.13463 10.6584 -5.75266 17
298 1 -0.150563 7.59902 -6.08235 23
299 1 -0.142456 5.81034 -3.59536 23
300 1 -1.67972 8.68087 -3.72678 21
301 1 -1.17233 10.6502 -8.98558 10
302 1 -0.0274993 11.8569 -3.42719 18
303 2 -13.5817 0.24863 -0.246527 13
304 2 -13.488 1.91377 -3.11787 13
305 2 -10.4105 0.48411 -7.18796 18
306 2 -12.0683 3.59966 -5.73696 11
307 2 -7.47477 1.9331 -8.58081 14
308 2 -10.271 0.0711193 -1.22571 20
309 2 -12.0779 2.90394 -0.628246 18
310 2 -11.731 4.64142 -3.13723 16
311 2 -9.9728 1.63359 -4.30053 21
312 2 -10.7449 6.36516 -6.30916 12
313 2 -10.2318 5.86825 -1.03808 18
314 2 -10.4108 7.80498 -3.75686 15
315 2 -6.63799 -0.113032 -12.1775 12
316 2 -7.1213 -0.141754 -6.59586 21
317 2 -9.21183 3.41561 -6.96428 19
318 2 -6.44084 4.36932 -9.4065 17
319 2 -5.2777 2.40745 -12.1122 12
320 2 -6.83557 -0.20934 -1.26375 23
321 2 -8.57894 2.70557 -1.38193 23
322 2 -8.93273 4.88295 -3.76645 21
323 2 -7.05824 1.93027 -4.02632 21
324 2 -7.28068 5.82829 -6.77766 18
325 2 -8.65143 8.86721 -5.7013 13
326 2 -4.54085 5.15239 -11.2656 16
327 2 -6.9745 5.79756 -1.28524 23
328 2 -8.79949 8.40296 -0.983146 18
329 2 -9.77325 10.2816 -2.64052 10
330 2 -6.47562 7.54123 -4.4091 21
331 2 -6.95783 11.3967 -1.91646 14
332 2 -3.95027 -0.0603537 -11.9363 16
333 2 -2.44154 2.69769 -12.089 17
334 2 -3.84224 -0.474208 -6.60602 23
335 2 -5.58862 2.902 -6.36064 22
336 2 -2.77748 7.73313 -11.9068 13
337 2 -4.01795 1.91829 -8.97026 21
338 2 -3.69951 -0.0156571 -1.46874 25
339 2 -5.30665 2.94451 -1.27351 22
340 2 -5.46524 4.75858 -3.99103 22
341 2 -3.62762 1.74883 -3.58115 20
342 2 -1.72606 5.08277 -12.5631 13
343 2 -4.1326 5.95215 -6.73704 23
344 2 -4.90327 9.13042 -6.83734 17
345 2 -5.11983 7.29562 -9.48545 17
346 2 -3.68127 5.79079 -1.63017 22
347 2 -5.03083 8.75668 -1.64895 20
348 2 -6.62736 11.0075 -4.5173 15
349 2 -3.36975 7.85502 -4.13285 21
350 2 -3.78061 11.9316 -5.74922 11
351 2 -3.51968 11.5647 -0.949052 20
352 2 -4.46046 13.1184 -3.03118 13
353 2 -0.902806 -0.111638 -11.4858 17
354 2 0.516627 2.80079 -12.2164 16
355 2 -0.1496 0.0480333 -6.43213 22
356 2 -2.2746 2.79826 -6.24921 20
357 2 -2.38122 4.52265 -8.7412 21
358 2 -0.440068 1.99053 -9.00937 22
359 2 -0.225654 0.0986227 -1.56593 25
360 2 -1.88357 2.89625 -1.30147 22
361 2 -1.97099 4.90863 -3.98889 24
362 2 -0.345518 1.92684 -3.78808 21
363 2 0.512795 6.93686 -12.2641 13
364 2 -0.555945 5.74756 -6.3743 21
365 2 -1.84629 8.8022 -6.05696 19
366 2 -2.76312 9.41311 -9.49552 14
367 2 -1.76274 6.70633 -9.56236 22
368 2 -0.17111 5.86433 -1.45171 23
369 2 -1.8315 8.6291 -1.59931 22
370 2 -1.4862 10.6382 -3.71967 20
371 2 0.103405 7.70336 -4.01619 20
372 2 -0.635692 10.8787 -7.11642 14
373 2 -0.448171 11.4889 -0.900154 22
374 2 -1.76269 14.1002 -0.467921 14
375 2 -1.79422 13.2014 -3.30387 13
376 1 -13.7301 1.95642 -1.1302 14
377 1 -13.4937 0.216791 1.66682 14
378 1 -14.0107 2.38263 4.00463 11
379 1 -12.0256 4.70569 -1.13406 13
380 1 -10.2738 1.84062 -0.651022 21
381 1 -10.2053 -0.131656 2.04656 24
382 1 -11.782 2.77543 1.5637 19
383 1 -12.0104 5.03585 3.72133 13
384 1 -10.2111 1.96199 4.26628 25
385 1 -10.2869 -0.056647 6.855 20
386 1 -12.1942 2.39317 6.4168 16
387 1 -10.4047 2.01727 9.40791 11
388 1 -10.3699 8.70816 -2.14679 11
389 1 -10.0896 5.81694 0.902812 18
390 1 -9.89138 7.09104 3.84061 14
391 1 -10.4926 4.75289 6.77264 19
392 1 -8.50526 4.64088 -0.760777 23
393 1 -6.96733 1.79569 -0.836189 24
394 1 -6.86537 0.0588544 1.81957 23
395 1 -8.48886 2.77377 1.81157 24
396 1 -8.54561 4.76045 4.6849 23
397 1 -7.06766 2.02994 4.6185 23
398 1 -6.99523 -0.104109 7.47246 24
399 1 -8.5221 2.54266 7.19819 22
400 1 -8.69242 4.723 9.3638 14
401 1 -7.05963 1.87691 9.85686 21
402 1 -7.0398 -0.288864 12.0746 10
403 1 -8.58023 10.6581 -1.10116 13
404 1 -7.0252 7.59396 -0.610089 25
405 1 -6.66967 5.67062 1.96969 24
406 1 -8.54619 8.76863 1.25132 13
407 1 -6.98228 11.6448 1.75774 12
408 1 -6.91198 7.58998 4.75036 20
409 1 -6.56035 5.40794 7.06837 24
410 1 -8.93643 7.6509 7.10092 14
411 1 -6.74776 7.32662 9.95522 12
412 1 -4.70126 13.3194 3.75321 10
413 1 -5.21871 4.77666 -0.712253 23
414 1 -3.59031 1.84058 -0.833806 25
415 1 -3.44172 -0.0460053 1.85511 22
416 1 -5.25321 2.81834 1.75069 24
417 1 -5.26552 4.57271 4.35477 22
418 1 -3.48335 1.7251 4.2498 21
419 1 -3.65342 -0.223444 7.13792 23
420 1 -5.10921 2.61302 7.10144 23
421 1 -5.23355 4.62727 9.72664 21
422 1 -3.43123 1.62098 9.70391 22
423 1 -3.99141 -0.505316 12.2311 15
424 1 -5.1611 2.7109 12.3363 12
425 1 -5.40105 10.5537 -1.06239 18
426 1 -3.63447 7.67986 -0.831017 25
427 1 -3.67815 5.85778 1.79877 23
428 1 -5.23699 8.69743 2.01106 22
429 1 -5.60345 10.584 4.85794 14
430 1 -3.67616 7.84787 4.57871 21
431 1 -3.68269 5.68164 7.12246 22
432 1 -5.25573 8.49409 7.2561 17
433 1 -3.10139 7.32449 10.1133 16
434 1 -3.71982 5.52779 12.4957 11
435 1 -3.12611 13.3638 -1.67127 15
436 1 -3.58544 11.9091 1.12464 19
437 1 -3.6852 11.6369 6.47952 11
438 1 -1.95751 5.06191 -0.923456 22
439 1 -0.123284 2.13308 -1.04566 21
440 1 -0.293724 0.166493 1.7346 23
441 1 -1.87686 3.0345 1.78371 25
442 1 -2.04805 5.05997 4.44039 21
443 1 -0.146085 2.1867 4.43886 22
444 1 -0.419046 -0.25763 7.0867 22
445 1 -1.85325 2.93646 6.61008 21
446 1 -1.80784 4.52165 9.29024 21
447 1 -0.423104 1.76621 9.27284 20
448 1 -0.336905 -0.113339 12.5324 16
449 1 -1.96763 2.64255 12.5286 17
450 1 -2.11092 10.5468 -1.6715 23
451 1 -0.300554 7.87822 -0.954371 21
452 1 -0.193066 5.82693 1.71523 24
453 1 -1.86651 8.8861 1.699 20
454 1 -2.06267 11.4338 3.96686 18
455 1 -0.413424 7.62287 4.44098 21
456 1 -0.212691 5.84076 6.88641 23
457 1 -1.96867 8.60955 7.22826 20
458 1 -0.183465 7.43977 9.57846 17
459 1 -0.645684 5.96707 12.9099 11
460 1 -0.253212 13.6567 -1.41558 14
461 1 -0.173631 11.6787 1.21018 21
462 1 -1.55621 14.1912 1.55715 13
463 1 -0.43086 11.5593 6.61635 11
464 2 -13.0332 1.09142 5.40754 13
465 2 -13.3738 2.09392 2.18622 15
466 2 -10.0239 -0.030111 4.19185 21
467 2 -12.6897 3.42816 4.68026 13
468 2 -11.5741 4.60155 1.88993 18
469 2 -10.0732 1.7611 1.48972 21
470 2 -10.0349 0.305058 8.84251 14
471 2 -11.331 3.25758 7.89348 14
472 2 -10.0426 1.90855 6.19909 23
473 2 -10.4772 5.50949 4.87465 17
474 2 -9.38068 7.46862 2.0698 17
475 2 -9.45974 5.99471 7.79762 14
476 2 -6.83244 0.0639236 3.89106 25
477 2 -8.56616 3.0007 3.74829 25
478 2 -8.51986 4.66102 1.18226 23
479 2 -6.90406 1.87834 1.27108 25
480 2 -7.21932 -0.481143 9.48589 18
481 2 -8.64213 2.82059 9.58285 17
482 2 -8.32053 4.34781 6.49915 23
483 2 -6.74591 1.66971 6.68576 22
484 2 -6.66434 1.4348 11.7866 12
485 2 -6.93862 5.61863 4.03923 24
486 2 -8.85781 7.91236 5.16818 13
487 2 -8.38232 10.6803 0.781575 13
488 2 -6.69961 7.46924 1.28761 21
489 2 -6.97131 5.66011 9.51068 14
490 2 -6.9164 7.36212 6.99741 18
491 2 -6.22262 12.0309 3.57509 12
492 2 -3.50338 -0.170448 3.91617 22
493 2 -5.1955 2.53854 3.76771 23
494 2 -5.29071 4.72256 1.28503 24
495 2 -3.3858 2.02348 1.16789 24
496 2 -3.76267 -0.263953 9.19618 24
497 2 -5.24712 2.50261 9.27688 23
498 2 -4.95976 4.3928 6.22007 21
499 2 -3.45545 1.7042 6.43502 22
500 2 -4.94444 4.39315 11.6934 16
501 2 -3.66412 1.57151 11.732 19
502 2 -3.90226 5.84759 3.73716 23
503 2 -5.44998 8.73417 3.98495 19
504 2 -5.4537 10.6052 1.06318 20
505 2 -3.55362 8.06066 1.05439 23
506 2 -3.45483 5.3389 9.09829 23
507 2 -4.86206 7.83269 9.45774 15
508 2 -4.82377 10.2141 6.70959 13
509 2 -3.54061 7.71767 6.52154 24
510 2 -3.62662 12.0883 4.67771 13
511 2 -3.27899 13.5501 2.3097 13
512 2 -0.373525 0.169247 3.74654 25
513 2 -1.69575 3.23872 3.77653 23
514 2 -2.15578 4.8306 1.1058 21
515 2 -0.111075 1.96961 0.841669 23
516 2 -0.340876 -0.0401887 9.16018 23
517 2 -1.98791 2.70658 8.77472 23
518 2 -1.93156 4.87974 6.44288 25
519 2 -0.127971 1.97492 6.44058 22
520 2 -1.9214 4.53969 13.4916 10
521 2 -0.287056 1.78728 12.6674 13
522 2 -0.329597 5.61557 3.79635 22
523 2 -2.05647 8.25853 3.6166 19
524 2 -1.93927 10.9576 1.95134 19
525 2 -0.184704 7.87449 1.1768 24
526 2 -0.255777 5.48463 8.97707 24
527 2 -1.93886 8.17796 9.22184 16
528 2 -2.10238 10.6773 6.8927 13
529 2 -0.183927 7.81647 6.5704 23
530 2 -2.22566 6.38793 11.5361 14
531 2 -0.135597 11.8605 4.24835 14
532 2 0.0494036 13.3738 2.01245 14
533 1 2.84111 -11.8217 -8.77274 10
534 1 1.28926 -6.7652 -11.4089 15
535 1 1.28912 -8.90048 -8.75875 21
536 1 1.43053 -6.997 -5.90532 22
537 1 3.13995 -10.1923 -6.10584 20
538 1 3.24668 -13.1123 -5.47954 9
539 1 1.59063 -8.73627 -3.34823 23
540 1 1.05195 -4.54636 -13.3325 8
541 1 0.949066 -0.880707 -11.6526 16
542 1 2.81793 -3.35545 -11.3632 21
543 1 2.75997 -5.56967 -8.81503 23
544 1 0.885361 -2.78415 -8.67156 23
545 1 1.43883 -1.03879 -6.16129 22
546 1 2.85808 -3.86533 -6.0809 24
547 1 3.12353 -5.87441 -3.30618 26
548 1 1.47704 -2.86376 -3.35291 22
549 1 4.16488 -6.18893 -11.2714 15
550 1 4.19479 -8.74651 -8.96932 16
551 1 4.50663 -6.7972 -5.97525 23
552 1 6.48366 -9.3628 -6.30237 13
553 1 6.09153 -11.6885 -3.66299 12
554 1 5.22042 -8.76849 -3.24448 22
555 1 4.42821 -0.848103 -11.5408 17
556 1 6.16737 -3.75033 -11.806 14
557 1 5.75276 -5.84353 -8.85436 20
558 1 4.37384 -2.6778 -8.66714 24
559 1 4.36528 -1.05238 -6.06935 24
560 1 6.24216 -3.93484 -6.3348 20
561 1 6.42736 -5.85042 -3.54277 21
562 1 4.84337 -3.05967 -3.3594 23
563 1 7.99854 -6.37741 -7.29625 15
564 1 8.49879 -8.64038 -4.21628 17
565 1 7.78057 0.272716 -10.9408 11
566 1 7.79987 -5.98294 -11.1526 9
567 1 7.3278 -2.96469 -8.9356 21
568 1 7.74548 -1.11535 -6.3856 21
569 1 9.36165 -3.62413 -6.32985 16
570 1 9.62049 -5.95602 -4.18488 19
571 1 8.25318 -2.89666 -3.43991 25
572 1 11.7177 -8.33102 -4.03618 7
573 1 10.6701 -1.33559 -5.81697 18
574 1 11.7323 -3.73456 -3.91023 16
575 2 3.33146 -11.8366 -1.29512 18
576 2 3.2144 -11.8851 -6.9244 13
577 2 3.0463 -9.99894 -9.35614 11
578 2 1.72181 -8.85494 -6.6043 20
579 2 1.22962 -6.86569 -9.47105 21
580 2 4.12786 -6.908 -9.43481 17
581 2 1.9815 -12.4205 -4.16826 14
582 2 1.73041 -8.93953 -1.30231 24
583 2 1.47184 -6.89944 -4.14211 24
584 2 3.69943 -9.69816 -4.16896 23
585 2 2.54565 -5.54554 -12.3553 13
586 2 1.18668 -2.85245 -12.0626 17
587 2 2.98834 -5.74185 -6.65006 23
588 2 1.27378 -2.79377 -6.70485 24
589 2 0.957448 -0.990181 -9.48377 22
590 2 2.72076 -3.71988 -9.19087 22
591 2 2.99402 -6.02173 -1.27923 21
592 2 1.45373 -2.99774 -1.35954 23
593 2 1.25998 -1.01967 -3.89833 23
594 2 3.11855 -3.84955 -3.97778 25
595 2 4.61584 -12.6445 -4.18047 11
596 2 4.73183 -8.72751 -6.97306 18
597 2 5.96529 -5.75533 -11.806 11
598 2 6.30096 -11.5421 -1.51428 14
599 2 5.06405 -8.60877 -1.12782 22
600 2 4.74795 -6.9782 -3.85005 21
601 2 6.59488 -9.83671 -4.39041 16
602 2 4.53069 -2.7367 -11.9719 14
603 2 6.06505 -5.92191 -6.81427 20
604 2 4.63177 -3.02609 -6.69125 24
605 2 4.16461 -0.956703 -9.33667 21
606 2 5.59625 -3.9835 -9.28854 22
607 2 6.1609 -5.54431 -1.53539 21
608 2 4.57994 -2.98567 -1.06687 22
609 2 4.37303 -0.937563 -4.20239 23
610 2 6.32974 -4.09051 -4.39988 25
611 2 8.22378 -8.34005 -6.2545 11
612 2 7.41914 -6.56497 -9.34229 14
613 2 8.18816 -8.34197 -0.85832 20
614 2 8.2451 -6.49519 -3.10475 20
615 2 10.2203 -9.03443 -3.35639 11
616 2 9.18933 -5.49942 -6.1362 17
617 2 7.82834 -2.82282 -7.12407 21
618 2 7.45809 -1.05542 -9.25203 18
619 2 7.61207 -4.11135 -10.7147 10
620 2 9.45712 -5.29024 -0.669583 23
621 2 7.81451 -2.82345 -1.41115 23
622 2 7.88404 -0.986282 -4.17335 22
623 2 9.78629 -4.07631 -3.45174 20
624 2 11.1547 -8.14179 -0.375939 16
625 2 11.0267 -6.60228 -3.01788 16
626 2 11.1729 -3.19526 -5.75041 12
627 2 12.824 -5.1527 -0.506181 14
628 2 11.2615 -2.57304 -0.557072 20
629 2 11.9134 -0.0501381 -5.22182 15
630 2 12.6292 -2.42997 -2.95137 12
631 1 3.24175 -11.4153 -3.17449 20
632 1 1.51455 -12.5113 4.08119 13
633 1 1.2028 -6.88998 -0.973297 22
634 1 3.3623 -9.68542 -0.734 26
635 1 1.61973 -12.5942 -0.573767 13
636 1 1.54187 -8.54012 1.79232 23
637 1 1.3847 -6.57737 4.4909 23
638 1 2.97141 -9.53126 4.33802 20
639 1 3.54516 -11.7284 6.14161 8
640 1 1.44492 -8.79722 6.86183 20
641 1 1.31342 -6.49326 9.79513 20
642 1 3.12579 -8.99733 10.0487 12
643 1 1.46305 -0.957786 -0.697597 24
644 1 2.91132 -4.12234 -0.75608 23
645 1 3.16028 -5.71747 1.73405 23
646 1 1.39229 -2.98045 1.7516 23
647 1 1.38964 -0.916619 4.56115 24
648 1 3.14146 -3.90614 4.51195 25
649 1 3.07995 -5.54155 7.27623 25
650 1 1.46563 -2.76842 7.12907 23
651 1 1.36209 -0.84854 9.85142 21
652 1 3.06491 -3.92988 10.0585 22
653 1 3.16876 -6.14322 12.47 11
654 1 1.59087 -3.07081 12.5796 15
655 1 4.89827 -12.5024 -0.420917 15
656 1 3.21707 -11.4938 2.09022 17
657 1 4.87254 -6.68498 -0.713695 25
658 1 6.62983 -9.65819 -1.02926 19
659 1 6.709 -11.169 2.05675 14
660 1 5.04937 -8.5863 1.71172 21
661 1 4.45601 -6.91196 4.62415 22
662 1 6.42194 -9.2752 4.60074 17
663 1 4.58811 -8.60019 6.99805 18
664 1 4.71732 -6.74684 9.85537 18
665 1 4.54745 -1.09858 -0.790847 22
666 1 6.46272 -3.85921 -0.54194 22
667 1 6.52281 -5.83213 1.94058 22
668 1 4.78747 -2.84799 1.86454 24
669 1 4.93317 -0.869583 4.9364 25
670 1 6.22893 -3.69008 4.60777 22
671 1 6.35748 -5.73857 7.36977 23
672 1 4.71823 -2.76552 7.14933 24
673 1 4.82865 -0.926886 9.95744 23
674 1 6.38408 -3.76921 9.98722 19
675 1 4.49348 -2.60241 12.8233 12
676 1 7.91533 -6.41453 -1.1564 25
677 1 9.8686 -9.21462 -1.54038 13
678 1 8.46601 -8.46023 1.2475 20
679 1 8.27186 -6.46459 4.00576 22
680 1 9.07319 -9.88752 3.80674 12
681 1 8.22978 -8.49664 6.9058 12
682 1 8.10402 -6.75758 9.70463 10
683 1 7.94867 -0.965373 -0.742824 24
684 1 9.80491 -3.5551 -1.26477 21
685 1 9.98761 -5.49944 1.3273 23
686 1 7.84116 -2.52476 2.10792 21
687 1 8.30506 -0.84133 4.68891 20
688 1 9.74164 -3.51365 3.87974 20
689 1 9.24977 -5.28374 7.02532 18
690 1 7.81399 -2.60015 7.42252 22
691 1 7.9224 -0.968744 10.3502 16
692 1 9.99013 -3.58913 9.44044 10
693 1 11.5093 -6.36803 -1.23549 20
694 1 11.3231 -8.44888 1.59662 12
695 1 11.538 -5.82654 4.12443 14
696 1 11.1391 -0.442187 -0.710936 18
697 1 12.9893 -3.39474 -1.2922 14
698 1 12.9924 -5.38279 1.31572 13
699 1 11.389 -2.63859 1.33221 20
700 1 11.7284 0.326524 5.07881 16
701 1 12.7384 -2.41255 3.6683 13
702 1 11.3958 -2.61836 6.53103 13
703 2 1.59641 -12.2847 1.44206 16
704 2 1.60237 -12.475 6.1493 10
705 2 3.23478 -11.5276 4.04839 14
706 2 1.43274 -8.35976 3.79064 24
707 2 1.43542 -6.76118 1.08355 24
708 2 3.32922 -9.49959 1.18667 25
709 2 1.31901 -8.4496 9.08416 18
710 2 1.2853 -6.76698 6.46951 24
711 2 3.08044 -9.81353 6.3242 21
712 2 1.48226 -5.87841 11.881 16
713 2 3.08401 -5.7679 3.67922 26
714 2 1.47816 -2.8229 3.79414 24
715 2 1.5093 -1.23646 1.44199 23
716 2 3.11782 -3.81455 1.32783 24
717 2 3.10566 -5.63909 9.35072 23
718 2 1.39509 -2.85092 9.46643 24
719 2 1.34949 -0.972166 6.51124 24
720 2 3.11006 -3.69805 6.4274 25
721 2 1.40951 -1.17854 12.1276 19
722 2 3.25402 -4.04129 12.3532 16
723 2 5.06042 -11.7824 1.47255 13
724 2 7.30824 -10.627 3.77703 12
725 2 4.61918 -8.50362 3.89547 22
726 2 4.87514 -6.69935 1.17777 24
727 2 6.72133 -9.50421 1.06044 21
728 2 4.45754 -8.247 8.80367 15
729 2 4.64968 -6.33771 6.5799 22
730 2 6.38001 -8.91762 6.41536 14
731 2 3.62601 -7.79206 11.5095 9
732 2 6.47798 -5.53582 3.8717 22
733 2 4.67212 -2.64255 3.80481 22
734 2 4.89474 -0.928312 1.14038 23
735 2 6.57497 -3.85166 1.41719 23
736 2 6.19861 -5.53251 9.43661 18
737 2 4.18392 -2.68677 9.08862 21
738 2 4.8857 -0.719407 6.85957 23
739 2 6.46482 -3.76249 6.67194 22
740 2 4.57494 -0.673663 12.6935 15
741 2 5.59964 -2.78028 11.241 12
742 2 8.52273 -8.24201 4.85457 14
743 2 8.47416 -6.65193 1.98949 22
744 2 9.8251 -9.34049 2.21383 14
745 2 7.97128 -6.84186 7.74562 16
746 2 9.86558 -5.53674 4.94965 16
747 2 7.97709 -2.77108 4.17607 22
748 2 8.10159 -0.585021 1.73968 23
749 2 9.83153 -3.62496 1.92422 23
750 2 9.68774 -5.68577 9.43024 9
751 2 8.0596 -2.87381 9.56131 19
752 2 8.09452 -0.764643 6.76104 23
753 2 9.77061 -3.40469 7.62114 16
754 2 7.72705 0.757812 11.7255 10
755 2 11.7484 -6.53442 2.16376 17
756 2 11.6053 -3.68751 4.87707 14
757 2 11.6819 -0.628487 1.21603 19
758 2 12.9561 -3.61417 2.27279 15
759 2 11.1812 -0.818626 6.61394 15
760 1 5.75006 1.97971 -11.7993 13
761 1 1.05653 4.88451 -11.4894 19
762 1 2.24975 7.48645 -11.7741 13
763 1 2.3311 1.96395 -11.9636 15
764 1 2.71632 0.157477 -8.92349 24
765 1 1.22614 2.96693 -8.69091 22
766 1 1.22333 4.82881 -6.12511 23
767 1 2.9903 1.72491 -6.36696 21
768 1 2.80791 0.0681022 -3.32797 25
769 1 1.15853 3.20828 -3.38458 22
770 1 4.76914 8.47974 -9.49131 13
771 1 2.64058 6.06915 -9.0195 21
772 1 1.568 8.65759 -8.93848 19
773 1 1.27664 10.5824 -6.55471 18
774 1 3.11033 7.74893 -6.32667 25
775 1 2.98043 6.1202 -3.75712 23
776 1 1.25947 9.07439 -3.46399 22
777 1 2.97219 11.9019 -4.78549 14
778 1 4.39946 4.94097 -11.5518 14
779 1 10.5402 2.4575 -10.373 8
780 1 5.86969 -0.0667953 -8.71595 24
781 1 4.36205 3.14092 -9.07768 24
782 1 4.52527 4.96832 -6.25555 25
783 1 5.9996 1.90962 -6.20167 24
784 1 6.01128 -0.117176 -3.67549 22
785 1 4.50342 2.78495 -3.51243 23
786 1 6.38473 6.0642 -8.89295 18
787 1 8.1816 8.87349 -8.70485 9
788 1 4.68355 10.5319 -6.78634 15
789 1 5.89049 7.56428 -6.56716 21
790 1 6.19101 6.07655 -3.78213 22
791 1 4.67652 9.07508 -4.00039 22
792 1 6.33541 11.8538 -3.81393 10
793 1 9.40581 -0.698884 -9.01764 13
794 1 7.46659 2.75259 -8.9354 22
795 1 7.65337 4.49072 -6.35146 22
796 1 9.43765 1.77104 -6.40425 22
797 1 9.16096 0.198971 -3.44562 21
798 1 7.84159 2.81629 -3.57006 25
799 1 9.49383 5.7373 -9.3682 13
800 1 9.66847 6.96622 -6.41579 13
801 1 9.26584 5.99719 -3.66072 17
802 1 7.7891 8.80163 -4.70785 14
803 1 11.18 4.29357 -7.39255 13
804 1 12.5745 1.57433 -5.64247 11
805 1 13.013 -0.634134 -3.56976 13
806 1 10.7734 2.88499 -4.11255 18
807 2 2.59236 0.069313 -11.8549 16
808 2 4.14891 2.88758 -11.8401 13
809 2 2.91218 0.031684 -7.09271 25
810 2 1.29949 2.9462 -6.70766 23
811 2 1.12097 4.94899 -9.47856 22
812 2 2.97363 2.17913 -9.24439 21
813 2 3.08072 0.0315376 -1.32933 22
814 2 1.61728 3.20701 -1.51604 22
815 2 1.54324 4.88946 -4.19785 22
816 2 2.78076 1.82997 -4.0302 24
817 2 2.74225 5.65348 -12.0163 11
818 2 2.57757 5.93163 -7.08656 23
819 2 1.31407 8.42557 -7.01583 21
820 2 0.130681 9.21005 -9.74508 13
821 2 3.16286 7.72953 -10.0365 17
822 2 2.95656 5.98178 -1.6414 22
823 2 1.47614 8.82981 -1.34912 23
824 2 1.49297 10.8209 -4.42506 22
825 2 2.98844 8.02455 -4.35756 25
826 2 7.48592 8.79137 -6.73918 16
827 2 4.21151 12.4521 -3.09948 13
828 2 1.31033 13.3693 -2.37736 11
829 2 4.95996 10.9752 -4.87634 17
830 2 6.18317 0.0478215 -11.6597 12
831 2 9.4799 0.951212 -10.3042 10
832 2 6.20937 0.103104 -6.65625 23
833 2 4.36058 3.0894 -6.83182 23
834 2 4.55971 5.02912 -9.66386 21
835 2 5.97541 1.84415 -9.8046 20
836 2 6.46663 -0.270174 -1.77703 23
837 2 4.62922 2.88603 -1.39212 21
838 2 4.6835 5.07097 -4.36698 23
839 2 5.97359 1.8372 -4.25958 23
840 2 6.33051 5.71173 -7.04047 24
841 2 4.59426 8.64512 -7.40851 21
842 2 6.75693 7.94226 -9.35242 12
843 2 6.34404 5.61531 -1.6141 21
844 2 4.46021 8.75883 -1.96455 23
845 2 3.06667 11.4153 -6.7771 12
846 2 6.02382 7.90477 -4.71472 21
847 2 6.4892 11.0245 -0.884299 15
848 2 9.57902 -0.567009 -7.19936 18
849 2 7.61759 2.63447 -7.08905 21
850 2 7.82938 4.59948 -9.24552 15
851 2 10.7251 4.0576 -9.26294 10
852 2 9.32494 0.055213 -1.57193 22
853 2 8.11683 2.55572 -1.4591 21
854 2 7.88276 4.62854 -4.22065 23
855 2 9.15555 1.63358 -4.49426 23
856 2 9.60235 5.09404 -6.57899 17
857 2 9.41259 7.30891 -8.34636 14
858 2 9.18233 5.94349 -1.56871 18
859 2 8.34457 8.72536 -1.03964 17
860 2 7.54955 10.4348 -3.59964 14
861 2 9.4319 7.68719 -4.47439 14
862 2 11.1908 2.55273 -6.2984 13