ITEM: TIMESTEP
22000
ITEM: NUMBER OF ATOMS
500
ITEM: BOX BOUNDS pp pp pp
-30.0 30.0
-30.0 30.0
-30.0 30.0
ITEM: ATOMS id type x y z Coordination
1 1 1.38523 -3.45724 13.7168 20
2 1 -6.60739 3.11949 16.1545 11
3 1 5.06371 -3.25688 13.3767 9
4 1 -13.8861 -0.228947 8.52988 14
5 1 -6.82713 1.54984 -1.2373 15
6 1 -2.02029 -2.97768 14.0631 19
7 1 -12.3318 -0.0799955 5.6905 19
8 1 -4.42483 -0.143142 -2.3963 13
9 1 0.480153 -8.51163 3.84023 15
10 1 3.03791 0.491639 9.05012 21
11 1 -4.27868 5.752 1.0873 21
12 1 -3.7267 4.3345 16.658 11
13 1 -12.43 -2.16249 9.57314 18
14 1 -13.7613 -2.961 5.81341 17
15 1 2.94516 -3.97185 0.800011 14
16 1 -1.01704 -6.82456 17.0803 11
17 1 -13.1514 -7.51864 8.04623 12
18 1 -9.12522 -7.61029 -2.06201 11
19 1 -0.0734425 -3.35702 1.21132 20
20 1 1.09992 -6.8217 10.6763 17
21 1 -10.2349 7.10894 8.1471 13
22 1 -5.30528 5.14775 6.59973 21
23 1 -5.36818 -6.09278 0.6098 23
24 1 -11.7044 -0.219187 15.7379 11
25 1 2.75507 -5.48021 8.29142 13
26 1 -9.01883 5.57417 10.8321 18
27 1 -0.242912 3.76476 4.36416 16
28 1 2.3812 3.8588 2.52116 14
29 1 -9.43971 6.17515 1.38353 10
30 1 -11.0224 4.17704 2.98695 16
31 1 -10.734 7.02362 4.40987 10
32 1 -2.78496 6.53569 3.51579 17
33 1 -14.4575 2.23909 10.5007 11
34 1 -6.30425 6.53389 15.5551 9
35 1 -8.16868 9.29128e-04 1.03353 22
36 1 -10.1232 -8.81454 13.1725 15
37 1 2.2324 -5.90962 3.30053 15
38 1 -14.2932 -1.16376 14.7764 13
39 1 -11.7195 -1.584 3.17981 21
40 1 -6.55599 -11.8116 11.3674 12
41 1 -0.241783 2.46389 1.04192 20
42 1 -11.4254 -6.01672 -0.482207 14
43 1 -3.62073 3.00232 -2.74406 13
44 1 -8.48227 -11.0078 8.56636 17
45 1 -4.69116 8.10353 6.50288 13
46 1 -15.4447 0.0320961 11.7944 12
47 1 -2.12937 3.63584 14.3178 17
48 1 -0.053483 -3.96309 16.8811 13
49 1 -1.56648 -11.0591 3.64331 14
50 1 1.41978 -0.813736 0.350848 15
51 1 -10.7888 -8.62639 6.55702 19
52 1 -7.39445 -8.73723 11.0947 19
53 1 -0.59717 -6.08928 13.6547 20
54 1 -2.84003 -8.68528 14.6273 14
55 1 -0.00989525 5.75867 9.13384 14
56 1 -11.7588 -10.4219 8.89881 12
57 1 -9.90144 -13.7858 8.82555 5
58 1 -9.07087 -7.92673 3.73572 20
59 1 -7.43008 -4.46203 14.4383 15
60 1 -13.7999 -2.63186 12.0003 14
61 1 -3.75985 -11.8881 5.9081 14
62 1 -13.5439 -4.28604 8.28527 13
63 1 -8.11917 6.09696 6.29693 17
64 1 -9.88745 2.41066 11.0821 20
65 1 -8.22918 4.80106 14.1 14
66 1 -11.7726 -8.48473 0.145947 11
67 1 -11.2383 -0.0660735 0.42742 14
68 1 -8.71986 -6.4525 1.03193 19
69 1 2.92202 -3.54305 10.5014 19
70 1 -5.79511 -6.68718 15.8762 11
71 1 -8.17437 -4.8473 -1.35014 17
72 1 -12.6204 -3.89168 2.42822 22
73 1 -7.38389 -10.9967 3.06459 17
74 1 -9.10789 1.04039 14.5359 15
75 1 -10.1017 2.99696 6.09013 19
76 1 -3.26837 -12.0657 0.824878 11
77 1 -3.96153 6.5155 14.0695 10
78 1 -15.4901 -4.39845 4.0341 11
79 1 -13.2381 2.65681 7.43429 17
80 1 -6.67566 -12.2798 0.23714 10
81 1 0.987899 -9.49461 13.0566 11
82 1 -12.664 1.85807 3.11876 15
83 1 -11.4305 -6.17708 14.1126 14
84 1 -11.1325 3.54165 15.3933 10
85 1 -4.53583 -9.27071 0.996909 21
86 1 -4.99109 -2.49826 15.1536 17
87 1 -5.54582 -9.69647 13.9942 12
88 1 -2.72823 -8.15336 3.5595 22
89 1 3.22145 1.90732 6.21503 19
90 1 -1.45928 -2.24393 -1.44905 15
91 1 1.976 -6.72461 15.1622 12
92 1 -12.3181 -10.6588 2.84715 9
93 1 -14.0385 -4.10315 14.9733 9
94 1 1.19801 -0.952852 11.7481 24
95 1 0.426734 6.53781 3.57814 11
96 1 -3.6491 2.31557 1.14798 19
97 1 -4.56157 6.60447 -2.31037 9
98 1 -3.32761 5.85867 8.70885 17
99 1 -1.99965 0.911055 -1.01732 15
100 1 -5.34874 -11.1919 8.52883 18
101 1 2.92122 -3.61409 5.93608 18
102 1 -7.13831 -12.0797 5.91326 11
103 1 -12.6365 -2.79291 -0.818544 10
104 1 4.44232 -0.875122 1.65399 14
105 1 -8.09948 4.01189 4.28668 18
106 1 -1.08379 -9.7669 0.827311 12
107 1 -12.9447 -5.22979 11.6493 15
108 1 -4.75238 -12.9385 3.28777 10
109 1 -3.62255 -8.06675 -1.63889 16
110 1 -1.81033 5.33238 6.39917 18
111 1 -2.96583 -12.1213 9.4863 11
112 1 -7.49969 -9.32113 0.902806 17
113 1 -3.55124 -4.70162 17.4866 10
114 1 -4.49296 0.782541 17.0045 14
115 1 -0.816689 -5.53629 -1.67132 12
116 1 -14.7007 -0.878465 3.03085 12
117 1 -1.19028 7.65005 1.26987 12
118 1 1.25862 -2.56298 3.69796 22
119 1 -6.92454 4.87819 -0.772281 15
120 1 -13.9414 1.84762 14.0877 12
121 1 -3.98448 -5.1914 14.079 18
122 1 -7.69512 -1.3736 -1.38824 16
123 1 2.9411 -5.91161 12.4358 10
124 1 -0.118714 -0.73398 14.9076 20
125 1 -2.10555 -11.2213 12.792 12
126 1 5.52632 1.47048 7.74654 9
127 1 2.98492 2.2154 11.9455 14
128 1 -6.33765 -9.08715 -1.86829 11
129 1 -1.07522 1.67264 17.1897 12
130 1 -6.63677 2.83995 1.44752 19
131 1 -6.8076 -0.446915 14.8109 12
132 1 -10.2098 -11.3241 4.67818 13
133 1 -0.890775 1.99367 12.4781 22
134 1 -11.4725 4.23682 12.934 12
135 1 -8.62957 3.95022 8.56609 21
136 1 1.10933 5.35873 0.281618 13
137 1 -2.2599 -1.73265 17.2047 14
138 1 -6.10068 -3.11105 -3.09513 10
139 1 -3.09535 0.0880392 14.3657 22
140 1 4.77078 -3.71037 2.77791 12
141 1 1.10565 4.79016 12.299 12
142 1 -0.718498 -9.53076 10.0615 14
143 1 -5.27743 5.21607 10.8378 19
144 1 -2.2806 -5.78941 0.716529 21
145 1 -0.304979 -9.76899 15.6461 8
146 1 -11.7715 -0.085111 11.5515 18
147 1 4.32858 -1.83887 8.52209 14
148 1 -6.57538 7.96609 0.437393 9
149 1 1.96818 0.915807 3.46891 22
150 1 -8.89631 -2.18479 14.8467 13
151 1 -8.57733 -7.63235 15.6487 10
152 1 -12.3263 5.37131 6.74454 12
153 1 1.92309 4.95296 5.95939 14
154 1 -12.6385 -8.37413 11.276 13
155 1 4.04564 -0.941685 4.962 18
156 1 -13.1677 -9.21793 5.05933 9
157 1 4.72594 -0.598719 11.36 13
158 1 0.689097 -8.23339 7.55265 15
159 1 -1.80089 5.2844 11.8871 17
160 1 -14.4893 -5.4981 0.568574 10
161 1 -5.98241 6.68936 3.42713 17
162 1 -0.281011 3.19125 -2.19255 12
163 1 -10.0375 -3.09255 0.509605 21
164 1 -3.52452 -4.78072 -1.80247 16
165 1 -10.0675 -11.6978 1.01821 10
166 1 -3.92978 -9.21403 11.3409 20
167 1 4.68881 -6.02429 5.36519 7
168 1 -15.0405 1.57387 5.37499 9
169 1 -9.24406 3.23926 0.219515 15
170 1 -13.2522 -6.99986 2.63271 16
171 1 3.11345 -0.325254 14.0927 13
172 1 -5.98492 -6.40123 -3.65553 10
173 1 -11.6925 4.29102 9.3594 17
174 1 -11.5712 -3.34833 16.3211 8
175 1 1.80754 3.31237 9.11588 18
176 1 5.21297 1.58822 3.97365 10
177 1 -8.29103 -11.2068 14.1952 9
178 1 -1.62803 -0.469144 1.31402 22
179 1 -2.08782 5.18285 -0.608625 15
180 1 1.50444 2.279 14.8314 13
181 1 -4.15507 8.67299 2.97048 11
182 1 2.31338 1.65601 -0.323298 10
183 1 0.790179 -6.71182 0.872528 14
184 1 -6.638 7.33496 12.3711 9
185 1 -6.84799 7.23504 8.94546 14
186 1 -9.99843 -11.0087 11.1602 15
187 1 -1.23847 -9.73303 6.35775 16
188 1 -12.4122 -5.98086 5.51306 20
189 1 -13.7429 4.77076 4.34153 11
190 2 -13.3427 -3.93528 10.1499 14
191 2 4.94148 1.32646 5.8374 12
192 2 -8.31679 -1.67521 0.256665 20
193 2 -15.0716 -2.45983 4.11857 11
194 2 -9.79959 -11.0848 13.1355 11
195 2 -4.34968 -5.5639 16.0087 15
196 2 3.23618 -3.35103 8.37636 16
197 2 -10.7393 1.66924 15.5627 12
198 2 0.616285 -6.77805 2.93659 16
199 2 -7.81732 -3.16841 -2.08546 11
200 2 -5.15935 -8.04483 -2.79858 11
201 2 -6.25599 7.038 10.663 12
202 2 3.26744 -3.98046 13.3321 14
203 2 1.49416 4.98025 8.00861 12
204 2 -7.92767 6.06443 12.5605 13
205 2 3.15012 2.19798 8.23628 17
206 2 -1.83697 3.09919 0.239163 19
207 2 -1.56353 -3.90763 -2.28151 11
208 2 -11.2156 -1.68141 -0.0465216 14
209 2 -3.63606 -9.72164 13.1608 13
210 2 -13.1302 -2.38864 15.6583 10
211 2 -1.35678 -9.38225 3.04496 16
212 2 -8.34306 -11.292 4.51554 14
213 2 -1.97323 3.22112 16.24 13
214 2 -1.73698 -5.12453 17.4915 9
215 2 -11.0421 -9.44433 11.5125 14
216 2 -7.87281 -10.6427 10.6716 20
217 2 -12.9983 -8.9475 9.47586 11
218 2 -8.38556 -13.0158 7.90303 9
219 2 -11.8661 -10.3912 4.85241 11
220 2 -7.33891 5.89404 4.32894 18
221 2 -1.76341 -2.3907 0.596507 22
222 2 1.61526 5.24517 3.90014 11
223 2 -1.93805 2.37271 -2.21473 14
224 2 -11.5858 0.359764 2.44945 18
225 2 5.05224 0.119671 9.16527 12
226 2 -4.92992 4.9649 8.63206 20
227 2 -10.7658 4.32839 11.0731 16
228 2 -3.52523 6.38352 6.64347 16
229 2 -5.1775 7.53464 1.50621 16
230 2 -7.6321 1.60367 15.36 11
231 2 -6.03954 -5.33605 13.5528 18
232 2 -2.30845 -6.48292 -1.60735 13
233 2 -2.93882 -12.2051 2.87821 12
234 2 -5.36109 -12.8562 1.48843 10
235 2 -12.745 -7.93108 6.30441 16
236 2 3.5747 -5.4264 6.54231 10
237 2 2.03613 3.48719 11.1048 15
238 2 -6.00485 -1.27213 -2.38816 13
239 2 -5.17589 -4.84881 -2.82573 14
240 2 -7.31697 -5.09464 0.553277 17
241 2 -0.143176 -8.29105 0.245911 12
242 2 1.40107 -2.76926 0.274754 15
243 2 -9.06197 -7.63935 11.1806 19
244 2 -3.884 -5.019 0.224299 19
245 2 -8.01309 -11.5254 1.28193 11
246 2 -6.4425 1.08524 0.470486 21
247 2 -8.37699 3.58398 10.8786 19
248 2 -10.0846 -9.47086 8.07971 21
249 2 -9.98591 4.2895 14.1717 14
250 2 -12.5715 -6.90776 12.5181 13
251 2 -13.6531 0.847366 6.92568 16
252 2 -1.28433 -8.2739 15.6179 14
253 2 2.31445 0.244262 5.25465 22
254 2 -7.63703 -6.57365 -2.6704 13
255 2 -1.97874 3.074 11.0852 24
256 2 0.0825439 3.22335 13.5915 15
257 2 -3.58599 -2.83404 16.6317 15
258 2 -14.5817 1.75694 12.256 11
259 2 -12.7578 -6.79027 0.597534 12
260 2 3.62703 2.59553 3.41189 15
261 2 -13.2874 -2.45364 7.72146 15
262 2 -9.93947 2.99786 3.92183 19
263 2 -2.77193 -0.66354 -1.66738 15
264 2 -9.43677 2.16351 9.10453 21
265 2 0.125749 -8.57079 5.57257 14
266 2 -7.08973 -10.4989 7.37283 18
267 2 -10.2149 7.07283 6.22781 11
268 2 -4.94937 -11.5299 10.3509 16
269 2 -3.54421 -11.9246 7.72235 12
270 2 -2.41352 0.152932 17.2091 12
271 2 -4.41711 8.11849 4.61131 11
272 2 -10.1333 -7.44677 14.5576 11
273 2 -7.56345 -8.2895 9.1266 22
274 2 -7.77473 -6.0103 15.8863 10
275 2 -3.79705 4.94846 -2.21581 13
276 2 4.3662 -2.79117 1.17783 10
277 2 -0.476802 -4.04307 13.3947 21
278 2 1.19505 3.07856 5.77929 20
279 2 -3.18751 5.76211 10.4986 16
280 2 -12.4638 -5.83443 8.34524 20
281 2 -4.51665 5.62411 15.7423 10
282 2 1.25385 -6.39259 13.3005 16
283 2 -5.35622 1.57833 -2.31845 16
284 2 -2.58854 1.82535 13.6916 21
285 2 0.688716 -8.68985 11.3225 16
286 2 -14.7478 -5.24712 2.4778 11
287 2 -12.9025 3.78265 2.81396 11
288 2 -13.3159 -3.93392 0.443622 14
289 2 -7.71066 -9.58677 15.0093 10
290 2 0.00925125 5.6488 11.1202 12
291 2 -7.93165 -8.47488 -0.77517 17
292 2 4.79539 -0.134091 3.37486 14
293 2 -11.4028 3.81935 7.28332 20
294 2 4.78558 -1.70708 6.56983 16
295 2 -13.848 -4.46382 13.1141 13
296 2 -12.7906 -8.74926 3.16922 14
297 2 -4.39314 5.74153 3.32779 17
298 2 -11.7548 6.14343 8.5277 12
299 2 -4.67739 -8.33856 15.3429 12
300 2 -13.3321 3.26944 9.27405 15
301 2 -12.3425 5.95114 4.95121 13
302 2 -4.81293 2.67804 16.7742 13
303 2 -13.4664 -2.13607 2.43462 17
304 2 -1.25609 5.49238 4.45841 17
305 2 -7.3554 4.81006 15.7306 11
306 2 -1.64137 -1.11319 13.4774 21
307 2 -10.6324 -7.71596 -1.14777 10
308 2 -5.19649 4.02434 0.71698 22
309 2 -7.48762 -8.64557 2.75413 17
310 2 1.10843 -2.73048 10.7838 20
311 2 0.587921 6.54282 1.7448 13
312 2 -0.900881 -10.3578 13.8864 10
313 2 1.0652 -0.76137 2.66507 23
314 2 0.169496 1.17729 15.8344 15
315 2 -10.0053 0.924542 12.144 19
316 2 -12.1799 -5.66512 3.44044 18
317 2 -5.41496 -11.8199 4.90426 14
318 2 -6.14604 6.93632 7.16392 14
319 2 -14.907 -1.32864 12.8053 12
320 2 -12.0176 -1.92955 11.7192 19
321 2 -11.0935 -10.3127 0.59603 10
322 2 -0.862823 -2.39261 15.9391 15
323 2 -5.84078 6.93375 -1.12707 9
324 2 0.0420987 2.09567 2.95054 19
325 2 -2.83325 -10.3579 0.685637 13
326 2 4.50813 -1.37748 13.3816 11
327 2 1.6918 -1.49529 13.6754 19
328 2 -7.67426 6.48158 0.949788 14
329 2 -9.56887 1.37143 0.774301 18
330 2 -5.88817 -10.3419 0.13417 15
331 2 -5.67026 7.08451 13.8322 10
332 2 -10.1718 6.01126 3.05473 13
333 2 -13.9711 0.75428 3.96235 12
334 2 -12.7411 3.34183 14.0294 8
335 2 -3.07378 0.671162 0.599492 21
336 2 -0.425034 -5.29668 0.196658 19
337 2 -14.4616 3.36758 5.46258 11
338 2 -7.72794 3.22639 -0.893219 11
339 2 0.47212 -5.55584 15.9144 12
340 2 -12.3885 -5.12298 15.3713 9
341 2 -13.164 0.289466 14.5121 15
342 2 1.41168 -8.98592 14.8944 10
343 2 -15.2021 0.572629 9.71757 11
344 2 -8.9116 -3.7264 13.2398 16
345 2 -6.50772 -11.4302 13.2384 11
346 2 4.60688 -2.46521 10.6587 14
347 2 -4.36234 -8.76333 2.78943 22
348 2 -8.82292 6.29288 8.99381 15
349 2 -9.83509 -4.91631 -0.186181 19
350 2 -10.5757 -5.03751 11.1208 21
351 2 -2.37413 -5.90246 13.2346 19
352 2 0.356369 0.985926 -0.335418 16
353 2 2.83758 1.44804 13.8272 12
354 2 2.59183 -5.62317 10.4459 15
355 2 2.54091 -5.70274 1.32763 13
356 2 -0.875791 -9.04006 8.15016 18
357 2 1.15542 -6.52134 8.18531 15
358 2 -10.5205 -1.88111 15.869 12
359 2 -0.157811 4.85888 -1.19713 11
360 2 -14.154 -5.23341 5.56776 15
361 2 -12.4033 -0.11353 9.62174 23
362 2 -2.13166 -10.9333 10.8353 13
363 2 -2.23722 8.40407 2.63129 11
364 2 1.64009 3.5221 0.380363 13
365 2 -2.53948 6.30431 0.826381 17
366 2 -2.33806 -8.29609 10.3686 20
367 2 3.98713 -5.45162 3.66552 11
368 2 -1.83747 -11.4634 5.36866 13
369 2 -4.68356 -7.69012 -0.162976 20
370 2 -1.53221 4.94645 8.27454 18
371 2 -2.6341 5.44522 13.4851 16
372 2 -10.3978 -11.9754 9.46796 10
373 2 -6.91841 -2.49836 15.0013 13
374 2 2.81451 0.249901 11.1574 19
375 2 3.26254 0.190676 0.483237 11
376 2 -10.2859 4.62321 0.887124 11
377 2 -10.4512 -11.6519 2.9082 9
378 2 3.16634 -2.67362 3.96849 19
379 1 -10.461 -4.77892 3.5079 20
380 1 -6.66267 -3.05005 0.643729 22
381 1 -5.78352 -8.01854 3.64795 21
382 1 -7.39362 -5.06616 3.42794 21
383 2 -9.27136 -7.95146 5.70718 20
384 2 -10.7841 -4.85075 5.8548 23
385 2 -10.5553 -3.02101 2.48666 21
386 2 -9.11835 -6.06094 2.73537 19
387 2 -6.34206 -8.0219 5.69092 20
388 2 -7.70096 -5.11585 5.55047 24
389 2 -7.23999 -2.96014 2.71636 23
390 2 -5.7811 -6.09837 2.90182 23
391 1 -10.6396 -2.92841 6.61756 24
392 1 -9.34996 -5.91038 6.64725 25
393 1 -9.36594 -7.77244 9.45502 24
394 1 -10.9224 -4.7647 9.23283 23
395 1 -10.3761 -3.1415 12.0463 20
396 1 -9.02672 -6.02659 12.0485 21
397 1 -7.68375 -8.64834 6.81811 22
398 1 -7.44128 -3.25926 6.2578 21
399 1 -5.96591 -6.10463 6.19982 23
400 1 -5.60255 -7.96784 9.16055 23
401 1 -7.67944 -5.22293 8.7256 23
402 1 -7.46998 -3.57864 11.3353 19
403 1 -5.84949 -6.16778 11.8242 20
404 2 -10.7388 -2.96993 8.53385 22
405 2 -9.44813 -5.89197 8.61197 20
406 2 -5.70798 -8.09634 11.2408 20
407 2 -7.47705 -5.33274 10.7774 24
408 2 -7.66424 -3.25402 8.16929 23
409 2 -5.78294 -6.17163 8.14248 25
410 2 -8.44316 -0.542671 13.9245 14
411 1 -8.90303 -2.2435 3.54148 24
412 1 -9.83933 1.29634 2.81084 20
413 1 -4.90636 -0.291774 0.908251 25
414 1 -5.64312 -2.2751 3.68814 21
415 1 -6.89953 0.800133 3.97176 24
416 1 -4.64141 3.97488 3.75966 20
417 2 -12.2543 -2.01043 5.20465 21
418 2 -8.85333 -2.05735 5.57934 23
419 2 -10.608 0.912341 6.31856 19
420 2 -8.68621 -0.205115 3.07994 20
421 2 -8.49742 4.0178 6.37645 19
422 2 -5.0578 -2.05215 1.25448 19
423 2 -5.73149 -2.20543 5.76819 22
424 2 -7.19437 0.939261 5.99448 21
425 2 -7.37891 2.81407 3.09292 20
426 2 -5.57362 -0.183302 3.18146 22
427 2 -5.47706 3.64335 5.39276 23
428 1 -8.84838 -0.0973712 6.29233 20
429 1 -8.94709 -1.94354 9.07686 21
430 1 -10.8741 1.02229 8.39585 21
431 1 -8.58316 -0.417455 12.018 20
432 1 -6.6368 2.68777 6.72004 22
433 1 -5.52546 -0.371582 6.42933 24
434 1 -5.672 -2.37034 9.05827 25
435 1 -7.49677 0.817049 9.28629 24
436 1 -6.91186 2.42745 11.1346 17
437 1 -5.31164 -0.329111 10.9724 18
438 1 -5.02275 3.07708 9.01025 23
439 2 -8.59323 -2.15724 10.9595 22
440 2 -8.94618 -0.281713 8.37708 21
441 2 -5.80556 -2.15056 10.9663 19
442 2 -6.99435 0.555128 11.2667 22
443 2 -6.80305 2.69801 8.74057 20
444 2 -5.49783 -0.266503 8.78743 22
445 2 -4.69337 -0.184588 15.316 14
446 2 -5.18069 3.27122 11.2899 19
447 1 -3.4879 -3.1239 1.15136 21
448 1 -4.1787 -5.21823 3.54568 21
449 1 -0.723877 -5.28565 3.51093 21
450 2 -2.50923 -8.23235 5.5239 23
451 2 -3.96757 -5.52145 5.63842 24
452 2 -3.77515 -3.31525 3.4154 20
453 2 -2.72057 -6.3398 2.98846 22
454 2 -0.818846 -5.34009 5.46523 23
455 2 -0.171988 -3.67261 3.09947 24
456 1 -4.56518 -8.89245 6.03427 20
457 1 -4.12864 -3.40517 6.17704 20
458 1 -2.40426 -6.35138 6.11521 22
459 1 -2.6932 -7.97257 8.38119 20
460 1 -4.13232 -5.15402 8.92822 22
461 1 -3.8156 -3.19826 11.5658 23
462 1 -2.47255 -6.39299 11.2829 21
463 1 -0.606714 -3.60613 6.37849 20
464 1 -0.412435 -5.36325 8.54973 20
465 1 -0.565309 -3.53577 11.193 22
466 2 -4.30333 -9.09462 7.90108 22
467 2 -4.11415 -5.38926 11.0221 22
468 2 -4.11842 -3.27293 8.12053 23
469 2 -2.31417 -6.09791 8.14709 22
470 2 -4.11671 -3.23851 13.5942 19
471 2 -0.751175 -5.4952 10.6867 21
472 2 -0.233894 -3.48159 8.34073 21
473 1 -2.01625 -2.52301 4.01614 22
474 1 -3.84334 0.517101 3.86478 22
475 1 -0.832896 0.842406 3.98903 19
476 2 -2.30667 -2.55615 5.98122 20
477 2 -3.85886 0.631142 5.88857 21
478 2 -4.17486 2.3557 3.01985 20
479 2 -1.94968 -0.491386 3.23694 21
480 2 -1.79522 3.27465 5.97428 19
481 2 1.10101 -2.49407 5.89592 20
482 2 -0.482254 0.340521 5.73287 23
483 1 -3.58032 2.5147 6.2376 22
484 1 -2.16653 -0.373954 6.28699 21
485 1 -2.35837 -2.49401 8.69555 21
486 1 -3.61362 0.379349 9.02582 25
487 1 -3.62391 2.26363 11.9115 20
488 1 -2.12918 -0.6751 11.5406 21
489 1 -2.13628 3.21303 9.0822 24
490 1 -0.309214 2.0731 6.57013 24
491 1 1.11048 -0.584408 6.3492 25
492 1 1.35216 -2.43273 8.39366 20
493 1 -0.440024 0.44532 9.19181 23
494 2 -2.28758 -2.59063 10.7453 24
495 2 -3.60409 0.465235 11.0804 23
496 2 -3.58139 2.11631 8.08832 24
497 2 -2.24206 -0.56912 8.42398 23
498 2 -0.475599 0.509448 11.2855 22
499 2 -0.284052 2.22175 8.70404 21
500 2 1.28563 -0.427567 8.44689 21
