ITEM: TIMESTEP
2452000
ITEM: NUMBER OF ATOMS
500
ITEM: BOX BOUNDS pp pp pp
-30.0 30.0
-30.0 30.0
-30.0 30.0
ITEM: ATOMS id type x y z Coordination
1 1 -2.52569 1.76263 -3.16551 22
2 1 3.77223 -4.05432 3.79959 18
3 1 0.1573 3.87844 10.3315 13
4 1 4.03814 -1.33649 2.35133 22
5 1 -4.97561 5.79302 -0.451734 21
6 1 -1.34706 -1.24436 -3.48629 20
7 1 1.23113 -0.475054 7.28277 21
8 1 4.14647 -1.59495 -6.15879 24
9 1 -10.5341 4.37288 -2.39428 10
10 1 2.75761 -1.01656 -8.85583 15
11 1 6.53231 -6.81825 -3.68112 15
12 1 6.18087 -0.229683 6.95387 17
13 1 3.39032 4.74734 -7.57708 13
14 1 -1.48835 8.75776 6.06506 13
15 1 -0.0504268 6.00931 5.92858 20
16 1 -6.34676 -1.60634 3.105 22
17 1 -11.3381 -1.17065 -0.642611 10
18 1 9.95795 -3.39145 -2.69014 14
19 1 3.49596 1.84354 7.99735 22
20 1 -5.14137 -6.44702 2.22601 19
21 1 -5.32585 -4.96845 -7.23268 13
22 1 1.40564 0.137684 -5.62372 20
23 1 11.1905 -2.76381 -5.61846 9
24 1 7.58602 -7.4354 4.56737 10
25 1 -5.30478 7.296 2.69119 20
26 1 3.60471 0.679259 5.08732 20
27 1 0.788027 7.84419 0.410646 25
28 1 0.866996 1.09513 -2.38275 23
29 1 -2.04554 -4.66034 -7.34979 16
30 1 -2.17099 1.69309 9.64647 15
31 1 6.38569 -2.20821 3.98021 18
32 1 -8.246 8.1126 2.3335 10
33 1 -3.27877 5.1454 1.99242 24
34 1 4.52503 7.05353 -5.19843 13
35 1 6.84879 7.14102 -0.251306 12
36 1 0.330667 5.81154 -4.70973 22
37 1 2.10406 -4.91929 -1.92573 23
38 1 -2.64391 5.43618 -10.5381 9
39 1 -2.65508 3.21654 -0.725956 21
40 1 -1.4134 6.95344 -2.16542 19
41 1 2.22595 6.40353 -2.0403 21
42 1 -10.7689 2.2081 0.431804 12
43 1 2.48632 4.5704 8.72381 15
44 1 -4.60812 0.259009 -9.41415 11
45 1 -5.74984 -3.07959 7.86451 13
46 1 -2.20934 1.97386 2.14883 22
47 1 -1.94812 -1.08165 3.40208 22
48 1 -6.52916 -1.6522 -2.56869 22
49 1 3.62362 -8.27683 -2.33768 17
50 1 -7.35822 1.66568 2.55232 23
51 1 -8.5589 -0.361988 -5.29192 14
52 1 -0.488239 -8.75425 4.67605 14
53 1 8.61665 2.66382 -3.99461 13
54 1 -4.00506 -3.64762 2.97807 23
55 1 -7.57392 -6.80962 -5.53079 11
56 1 1.14748 2.2639 -8.21036 15
57 1 0.141869 4.1848 3.01996 23
58 1 -2.29391 3.50958 4.96529 23
59 1 -5.42465 2.51556 0.948052 23
60 1 4.53623 -3.98549 -3.63027 19
61 1 -0.203244 9.63643 -1.90473 16
62 1 -11.4888 0.680612 2.53987 10
63 1 2.02052 8.94946 6.06445 15
64 1 3.72555 -1.23572 9.28002 20
65 1 1.46969 -9.58618 -4.87213 11
66 1 10.4042 -0.225524 -3.21581 12
67 1 -1.92909 -6.27747 2.27223 23
68 1 3.73134 -9.9483 0.422417 16
69 1 6.12491 -3.50646 8.52376 13
70 1 -0.417255 -3.86891 3.26385 23
71 1 5.20792 9.74237 1.55282 11
72 1 -3.48685 -7.63298 5.22031 14
73 1 0.749337 -9.17246 1.79773 18
74 1 -3.32268 -5.60537 -0.264603 22
75 1 1.96663 -3.66281 1.37865 20
76 1 -5.4682 -5.16758 -2.67866 22
77 1 5.47444 3.85761 -5.0274 18
78 1 5.98144 -4.62727 1.65972 22
79 1 -4.33239 -1.97042 5.61115 22
80 1 -9.53143 -0.0133974 4.95263 13
81 1 6.82577 -8.48104 -0.749041 13
82 1 -5.93368 -5.39387 5.11038 15
83 1 0.016296 2.7093 7.03792 22
84 1 -9.4122 -1.69676 2.25185 16
85 1 -2.7901 8.02571 0.463875 22
86 1 -7.82783 5.11788 1.67109 21
87 1 0.156927 1.28226 4.30211 22
88 1 -2.26857 4.61297 8.0985 18
89 1 -7.51936 -3.5874 -4.88295 17
90 1 1.29433 -6.41314 3.03255 21
91 1 -8.91397 3.04447 -5.52318 14
92 1 -4.12738 -3.09501 -4.7403 20
93 1 5.34425 4.23118 9.04974 12
94 1 -7.87347 4.93239 -3.62421 19
95 1 -1.36011 -2.70026 6.15312 21
96 1 -6.00794 -1.61307 -7.07945 15
97 1 -9.8808 1.13596 -2.32941 16
98 1 -1.03929 -10.0258 -3.73875 11
99 1 -3.45326 -2.83823 -1.35234 21
100 1 3.02032 1.88467 2.63551 21
101 1 -7.79329 5.88895 4.81092 14
102 1 2.34777 3.68613 5.2887 21
103 1 -2.76731 4.72018 -3.59844 22
104 1 0.42816 -6.78066 -8.11343 11
105 1 -0.738869 10.272 1.38146 16
106 1 5.45003 2.08215 -2.61573 20
107 1 -5.85585 3.96047 -5.56169 19
108 1 -5.37781 6.68069 -3.17795 19
109 1 -1.63129 -8.30796 -6.32726 14
110 1 4.88055 -7.91403 5.58408 11
111 1 -4.69914 6.59675 -9.03324 11
112 1 -4.04342 -0.596347 8.93742 15
113 1 3.23846 0.219639 0.0957154 22
114 1 -7.50917 2.58508 5.59331 16
115 1 -1.3327 -4.04135 -3.04792 22
116 1 1.26955 -3.78624 6.77693 22
117 1 -0.0317813 -5.50073 8.78474 11
118 1 0.433617 -2.31717 -6.49148 19
119 1 7.58216 1.73917 -0.007407 20
120 1 -5.55544 4.18368 3.61901 24
121 1 6.35501 -1.12634 -7.61892 16
122 1 -0.967508 5.15666 0.282151 21
123 1 7.5102 -5.23268 6.34939 11
124 1 -6.8588 -8.49918 -2.84318 13
125 1 -4.33198 1.14292 4.0254 24
126 1 3.30763 2.08418 10.9579 11
127 1 9.29732 4.89297 0.658553 13
128 1 -3.48052 2.61085 -6.17236 15
129 1 -0.0131339 4.8787 -8.39654 16
130 1 2.20197 10.0378 -0.578868 15
131 1 3.95957 1.70652 -7.32999 17
132 1 1.27105 -7.68192 -0.432322 20
133 1 5.38771 3.02195 0.659963 17
134 1 5.49562 -8.15126 2.17533 15
135 1 2.95305 -9.59253 3.86058 12
136 1 -4.98115 3.06993 -10.3141 10
137 1 2.71545 4.8952 0.854579 21
138 1 9.45136 -0.843377 -0.172953 20
139 1 -0.223638 3.06342 -5.47676 21
140 1 -4.16064 8.22517 -5.91614 14
141 1 3.1293 -6.50775 -4.89742 15
142 1 -0.486467 -5.29699 -0.0988213 23
143 1 -8.16855 -2.67977 5.45653 15
144 1 1.08112 -10.5385 -1.35278 13
145 1 2.71933 -5.08705 -7.82261 16
146 1 3.86446 7.46135 0.517823 17
147 1 5.14522 -5.99648 -0.977601 19
148 1 7.07888 -2.74722 -4.95667 24
149 1 -6.08542 -3.29673 0.307511 24
150 1 -5.11075 -8.35343 -5.79457 12
151 1 0.391347 -2.83161 9.67549 18
152 1 2.26353 -1.47255 12.2231 10
153 1 8.53098 -3.56581 -7.77901 11
154 1 -7.13576 6.27307 -6.37605 10
155 1 4.72613 5.44135 -2.47619 20
156 1 6.52941 0.417915 -5.11765 16
157 1 1.0158 -0.615076 1.79615 23
158 1 -0.208207 -0.319226 -8.721 15
159 1 -9.42952 3.1943 3.30326 13
160 1 3.33474 -4.34656 9.80401 11
161 1 6.19876 0.84909 3.14191 23
162 1 -6.59169 1.5862 -7.54827 15
163 1 9.21366 -4.49623 3.52445 13
164 1 -1.74284 -8.73367 -0.505573 19
165 1 5.97096 2.66014 5.92631 17
166 1 1.60457 -7.11682 6.30351 15
167 1 0.62388 2.65258 0.460086 23
168 1 4.02073 -1.97325 6.50586 18
169 1 6.83039 -0.786498 -2.35652 22
170 1 7.32555 3.59899 3.1342 18
171 1 7.20727 -3.76788 -1.6144 21
172 1 8.95951 1.18646 5.2285 12
173 1 -2.99545 -6.02638 -4.71219 19
174 1 4.29534 7.33647 7.81635 12
175 1 -5.1165 3.34577 -2.24386 20
176 1 -1.35236 7.99127 -8.16364 13
177 1 -2.00886 0.446986 6.56607 21
178 1 -1.07469 -6.92083 -2.27309 19
179 1 -4.83019 -8.87225 -0.107673 11
180 1 4.64909 4.97504 3.05527 19
181 1 -5.66412 8.04993 5.68918 9
182 1 -8.09849 6.74283 -0.676822 15
183 1 7.57855 6.28873 -4.01205 9
184 1 1.04622 0.710316 10.4287 16
185 1 -7.37113 0.123961 0.0204207 22
186 1 0.307304 -3.61073 -9.29041 12
187 1 -3.37286 6.40797 5.02988 22
188 1 3.5226 -0.231361 -3.21675 21
189 1 2.10988 9.38061 2.5935 19
190 1 3.34501 -6.312 1.14792 21
191 1 -3.23533 9.67411 3.52521 14
192 1 -4.11285 -0.833713 1.01655 20
193 1 5.69928 -4.78275 -6.24206 17
194 1 0.402325 -5.59676 -5.12098 20
195 1 4.31663 -5.40218 6.77948 15
196 1 -2.11323 -0.388183 -6.11706 19
197 1 1.36912 -1.96938 -1.13169 23
198 1 -5.51847 4.83176 6.84357 13
199 1 9.30594 -1.32965 2.96847 15
200 1 -0.940656 8.22041 -4.79475 18
201 1 1.38611 -1.63155 4.26879 21
202 1 7.82805 4.4213 -1.75853 17
203 1 -1.46669 -1.16316 11.2622 11
204 1 -3.11684 -3.60051 9.72546 11
205 1 -3.67679 9.46289 -2.51312 11
206 1 4.82096 8.33603 4.6449 14
207 1 -7.87651 -4.50843 2.67178 15
208 1 6.64367 -1.53663 0.765583 21
209 1 -6.78071 -5.95727 -0.456153 19
210 1 5.57842 5.27626 6.02342 14
211 1 9.30096 -6.47837 -2.12042 12
212 1 3.19062 3.24771 -1.59431 22
213 1 2.19762 6.78613 3.71162 20
214 1 -9.96923 -2.15316 -3.26637 14
215 1 0.049681 3.8861 -2.76498 21
216 1 1.70603 7.5242 -7.12667 13
217 1 -5.08161 0.302114 -5.07943 21
218 1 5.23456 -3.50023 -8.91746 10
219 1 -3.60912 -8.16459 -2.99783 19
220 1 -1.43025 0.148692 -0.48628 23
221 1 -3.71577 -5.05911 6.63184 15
222 1 9.4022 -3.98637 0.545368 15
223 1 -7.92928 3.13664 -0.480715 19
224 1 -1.79631 2.51436 -9.89126 11
225 1 -9.01858 -5.55978 -2.96931 11
226 1 8.37271 -2.2942 6.26264 13
227 1 4.27992 -2.62062 -0.961646 22
228 1 -2.96067 -2.20427 -8.63804 13
229 1 -5.78126 8.83216 -0.198434 12
230 1 -6.50441 -0.216008 6.54988 17
231 1 -4.51114 0.317854 -1.58971 20
232 1 7.19782 6.84329 2.76959 14
233 1 9.73297 1.94589 2.09254 15
234 1 -1.23397 -5.95787 5.60178 19
235 1 9.43014 -0.876098 -6.53454 11
236 1 2.83093 2.9782 -4.5619 21
237 1 -0.139979 11.1694 4.37159 9
238 1 2.30986 8.7651 -3.99615 13
239 1 10.4362 2.05753 -1.31729 14
240 1 -1.40545 -2.71064 0.593581 25
241 1 -4.36846 2.07271 7.19565 17
242 1 9.29428 -5.28108 -5.04119 13
243 1 1.77177 -2.81297 -4.12011 20
244 1 0.716512 7.10391 8.72596 11
245 1 -7.1081 1.40901 -3.30109 22
246 1 -0.817065 7.24737 2.99047 25
247 1 -2.77332 -9.11703 2.48467 13
248 1 8.41259 -7.07412 1.29877 14
249 1 -8.63771 -3.05241 -0.399709 15
250 1 -2.38241 5.6568 -6.1537 20
251 2 -10.3796 -0.605763 3.44572 13
252 2 6.46061 5.11797 3.58611 17
253 2 1.70413 -4.4346 9.116 14
254 2 -5.6805 -0.048877 -3.19956 22
255 2 -10.3849 2.6997 -1.46941 14
256 2 -1.65027 -7.86777 5.97485 13
257 2 2.85618 0.472837 11.637 10
258 2 7.29217 -0.725223 2.50393 22
259 2 -1.91307 -4.11655 -0.820024 21
260 2 -4.9144 6.46595 6.31565 13
261 2 -1.38562 5.37561 2.44502 22
262 2 7.57704 -2.62031 -3.07453 22
263 2 8.28094 -6.25271 -3.7869 14
264 2 -3.09623 1.02762 -4.8024 17
265 2 -0.333301 -4.15482 -6.42093 21
266 2 -3.88898 -1.51843 -5.66642 17
267 2 -0.583114 -5.95472 3.73713 21
268 2 -6.42285 8.39081 1.52005 15
269 2 8.33094 -2.87435 4.30513 15
270 2 3.2977 -6.84647 -0.874007 19
271 2 -1.14755 1.82475 0.520654 21
272 2 5.94511 8.52365 2.97087 14
273 2 0.859003 5.30568 9.3372 14
274 2 0.37379 9.8566 5.412 14
275 2 3.31281 6.5722 -6.74612 13
276 2 10.0185 -2.4585 -7.20958 11
277 2 -8.598 1.38559 -4.51357 18
278 2 0.579736 -5.66067 6.68684 19
279 2 -8.2934 3.0047 1.57786 18
280 2 4.9048 -5.90747 -4.71947 17
281 2 2.6806 -9.79063 2.12021 15
282 2 6.89027 -2.71337 -8.39633 13
283 2 -1.42737 7.05836 5.11243 20
284 2 5.31559 -1.74057 8.23441 15
285 2 -3.23172 -9.35682 0.657908 14
286 2 3.67213 -3.56031 5.81413 20
287 2 -0.906977 -9.19413 2.87849 16
288 2 2.20048 1.00978 -4.08759 23
289 2 -1.31189 -6.82151 -7.38583 13
290 2 -6.73344 -3.62842 6.2897 16
291 2 -5.4762 -7.10981 0.293096 18
292 2 -7.3695 -6.57313 -2.25145 15
293 2 -1.98634 8.87862 2.1377 19
294 2 4.36237 -1.90611 -8.18968 15
295 2 8.0472 6.34919 1.08345 11
296 2 3.94624 3.26034 -6.28041 16
297 2 -3.78957 2.08891 -1.78301 21
298 2 -6.51793 3.24348 -3.66431 21
299 2 6.56755 2.25829 1.81489 20
300 2 0.235959 9.75312 -0.0923562 15
301 2 -7.01924 7.69258 4.25398 14
302 2 0.896407 4.37538 1.25243 21
303 2 1.57426 9.83984 -2.68078 12
304 2 -5.37437 7.07382 -7.2746 12
305 2 -1.43047 3.37409 9.115 15
306 2 -3.18935 1.73931 5.47322 23
307 2 3.40634 -2.56067 10.6654 11
308 2 1.66057 -6.12564 -6.48591 15
309 2 0.792864 -10.511 -3.21185 10
310 2 -4.56401 -1.29764 -8.36602 15
311 2 -3.10361 -0.910732 -0.878671 21
312 2 -1.33646 4.49262 -1.41639 21
313 2 -9.34856 -3.79232 -2.17827 15
314 2 9.16113 -4.61807 -1.42316 16
315 2 5.11749 7.18992 6.12964 14
316 2 1.07648 -1.99695 -8.50994 16
317 2 1.34622 -5.30145 -9.00211 10
318 2 5.43577 0.374673 -3.39037 20
319 2 -5.97135 -6.7117 -6.57559 11
320 2 0.55373 1.58667 -6.53254 20
321 2 10.5568 -0.973684 -4.97347 11
322 2 -5.03112 -2.37425 1.74703 23
323 2 -1.50264 -3.485 -8.86327 13
324 2 0.248775 -2.68911 -2.63699 24
325 2 4.06286 3.82661 -3.31398 19
326 2 -0.271367 -8.96315 -5.30481 13
327 2 -0.205958 1.47473 -9.50542 12
328 2 -2.02776 10.4348 4.8942 10
329 2 -7.51108 -4.55851 0.786796 16
330 2 -6.20819 1.62239 6.57729 16
331 2 -6.1222 5.56922 2.45839 22
332 2 -8.06066 -2.82025 3.59896 17
333 2 -4.22561 -3.97566 8.32073 14
334 2 -9.65513 4.12845 -4.06686 11
335 2 3.47604 -7.07335 6.48477 11
336 2 7.36918 -0.273685 -0.54812 20
337 2 -0.54656 -1.39171 -5.21062 19
338 2 1.04645 7.69882 2.24667 23
339 2 -0.435568 7.53145 7.29581 12
340 2 0.399141 -1.7342 11.22 13
341 2 -8.8526 4.89704 3.55455 14
342 2 2.08075 1.91524 4.67408 21
343 2 -8.25423 -1.73473 -4.06589 18
344 2 3.34333 -2.59436 -2.95389 18
345 2 9.01424 3.76601 2.23961 13
346 2 -7.24921 -0.201655 2.09177 20
347 2 -2.69359 6.99548 -9.2042 12
348 2 4.51375 -4.67553 -7.81907 12
349 2 -8.83383 5.31427 -1.77416 14
350 2 1.44031 -7.21562 1.30823 22
351 2 6.55271 2.31182 -4.47132 17
352 2 5.76729 -7.64378 -2.14777 15
353 2 4.4299 -8.46688 3.82052 16
354 2 -3.8693 9.29674 -0.580063 15
355 2 0.576744 -6.21821 -1.52869 22
356 2 -1.69422 -6.7419 -0.07423 23
357 2 2.44582 8.02047 7.7626 12
358 2 -1.70931 9.08911 -2.87441 14
359 2 -2.4922 -1.24541 5.6193 20
360 2 -2.09004 -4.45983 6.27517 20
361 2 -0.983338 2.72159 3.62423 24
362 2 -4.49222 -3.85967 4.95734 23
363 2 1.79672 4.12363 -8.45329 15
364 2 2.3485 -2.1595 2.48503 21
365 2 10.0921 -1.67344 -1.785 15
366 2 2.37697 0.0639575 8.99987 20
367 2 -7.25726 -1.64166 -0.698045 21
368 2 3.51519 5.25819 -0.855952 19
369 2 2.94804 8.53989 4.34639 15
370 2 2.13841 -1.7257 -5.72494 19
371 2 -6.40197 -5.61492 3.23276 15
372 2 1.5372 2.55755 10.4986 14
373 2 -1.21578 0.254402 -2.40963 22
374 2 -6.1181 3.88746 -0.330021 25
375 2 3.9402 2.95634 9.50068 14
376 2 1.76641 1.32268 1.343 24
377 2 2.45919 0.877047 -8.35549 14
378 2 5.27226 -3.33612 2.80101 17
379 2 2.08713 3.17897 7.27689 21
380 2 8.41411 -5.7064 4.57806 11
381 2 -0.0448909 -4.26587 1.39174 22
382 2 -3.16816 3.4977 1.06246 25
383 2 -10.4638 -0.635482 -2.32506 15
384 2 -2.22349 7.91634 -6.31642 15
385 2 -4.47246 4.82658 -9.88679 9
386 2 -2.22097 -2.77995 2.49027 21
387 2 -4.64261 -6.52317 5.9557 12
388 2 3.14403 9.97628 1.15697 14
389 2 -6.34106 -3.54226 -6.5512 13
390 2 9.40921 0.631393 3.44141 14
391 2 -6.16376 7.15134 -1.26483 17
392 2 8.90563 -5.42231 1.75025 13
393 2 -3.25224 -7.47891 3.40319 17
394 2 -6.66685 -8.31438 -4.67168 11
395 2 0.457889 6.50535 -2.7507 22
396 2 -8.5792 6.80936 1.08354 13
397 2 4.04705 3.62951 1.86291 20
398 2 -1.13022 -4.11762 9.41155 14
399 2 -10.9627 2.39471 2.4124 11
400 2 -1.71771 6.392 -4.325 20
401 2 -1.01546 0.548702 10.4264 14
402 2 -7.57398 4.40004 -6.24985 12
403 2 5.43996 8.2204 0.197392 13
404 2 -3.9727 3.88093 7.58065 14
405 2 -0.103162 0.908249 6.53966 23
406 2 1.27654 2.80706 -1.46674 23
407 2 2.3521 -0.243393 -1.58868 21
408 2 -5.1785 2.09551 -6.53899 19
409 2 -0.745751 4.72854 -6.54994 22
410 2 -2.89281 -2.72235 -3.09646 22
411 2 -3.8646 4.47772 -5.50444 21
412 2 2.55527 -0.949003 5.72084 23
413 2 1.29378 5.38031 4.63576 20
414 2 9.53246 3.84619 -0.843718 13
415 2 2.82281 -5.13907 2.54272 17
416 2 6.88532 2.5661 -1.5636 21
417 2 4.27574 4.25422 5.35313 23
418 2 -5.32126 0.596899 0.198562 25
419 2 -1.46016 3.241 -3.92351 21
420 2 -3.02218 0.794885 8.21541 17
421 2 -8.19948 -5.37189 -4.70551 14
422 2 2.47694 -3.57281 -0.566669 23
423 2 -0.925946 7.18642 -0.231485 20
424 2 -8.63297 1.63079 4.54107 16
425 2 -5.56032 -0.457087 4.60138 24
426 2 -1.69466 -8.6818 -2.62399 19
427 2 4.38278 5.7333 8.79856 12
428 2 1.15028 4.0403 -4.59 19
429 2 -1.52134 4.30571 -9.57095 15
430 2 6.00778 5.7866 -5.03151 13
431 2 2.57432 -8.14953 -4.01949 16
432 2 6.19308 3.86402 7.33276 12
433 2 3.48303 6.3142 2.18191 21
434 2 0.251588 6.9382 -8.09144 14
435 2 -6.01126 1.98501 -9.24905 8
436 2 -3.73032 -4.63987 -6.00635 20
437 2 -5.98503 -3.5213 -3.50186 20
438 2 -4.33155 8.1704 4.10469 17
439 2 1.09885 7.99967 -5.25278 17
440 2 -4.29335 8.19101 -3.9178 15
441 2 -6.51211 4.30211 5.27573 19
442 2 -0.0907586 -1.40165 0.135583 25
443 2 5.00998 0.256112 -6.31826 19
444 2 7.92413 -4.39392 -6.05336 17
445 2 -3.61125 -5.13564 1.74836 21
446 2 -6.84512 6.40163 -4.45271 15
447 2 -1.78705 -0.887375 -7.89186 18
448 2 -1.24288 -5.78568 -3.87062 23
449 2 5.68126 -1.52044 5.57196 19
450 2 -5.40865 2.40725 2.99643 22
451 2 -4.19574 -6.33962 -3.18538 23
452 2 -8.21629 -1.00366 6.18671 13
453 2 4.54597 -1.29807 0.538338 22
454 2 6.28631 -6.54405 5.79261 11
455 2 -11.3981 0.372596 0.563788 11
456 2 -3.20184 -1.65052 10.1006 12
457 2 1.41587 -8.65907 4.68553 15
458 2 8.15913 -0.363927 6.14999 15
459 2 2.25901 -4.84915 -3.95696 20
460 2 -3.94141 6.6664 1.05105 21
461 2 -7.1684 -0.0814182 -6.59923 16
462 2 -5.14074 -1.30621 7.56456 17
463 2 4.63908 -4.6079 8.41548 14
464 2 4.15471 2.01504 -0.403151 22
465 2 7.52459 -1.03464 -5.97027 17
466 2 4.77625 1.1302 6.81832 22
467 2 -4.21938 5.05745 -2.18837 21
468 2 7.61084 -3.74839 7.46065 13
469 2 5.10651 -3.14372 -5.41501 23
470 2 -4.74068 -4.33639 -0.894971 20
471 2 -2.98384 0.110182 2.35633 23
472 2 10.71 -4.15561 -4.40262 12
473 2 5.34761 -6.44571 1.26281 20
474 2 6.84545 -3.47542 0.196932 18
475 2 5.3104 -4.21306 -1.83167 22
476 2 -0.992096 4.38746 6.31659 19
477 2 8.32422 4.4489 -3.61366 13
478 2 -10.1613 -2.04821 0.629211 15
479 2 4.20134 0.54354 3.2316 22
480 2 -8.04049 1.48058 -1.23883 23
481 2 7.38482 -7.73791 2.79364 14
482 2 3.50665 7.13846 -3.58514 15
483 2 9.47775 1.18813 0.352299 18
484 2 6.78063 5.91829 -1.81024 14
485 2 0.131164 -3.04243 4.91047 19
486 2 5.48499 -9.18844 0.391739 15
487 2 9.62612 -2.2405 1.17386 15
488 2 2.623 -9.56629 -1.22303 15
489 2 -3.24634 -8.02034 -5.17691 15
490 2 2.28841 7.88572 -0.771082 19
491 2 0.747024 10.6541 2.8047 14
492 2 -0.13 -9.461 0.0806503 17
493 2 0.418135 -2.1542 7.55845 20
494 2 -3.65045 4.71818 4.21852 22
495 2 7.24764 2.16908 4.60789 18
496 2 9.78787 1.56754 -3.01693 15
497 2 0.0212443 -0.406289 3.43147 22
498 2 -3.45967 1.69955 -9.97432 13
499 2 -5.01545 -8.90513 -2.04914 14
500 2 8.39489 -7.41378 -0.816141 14
