ITEM: TIMESTEP
5630000
ITEM: NUMBER OF ATOMS
500
ITEM: BOX BOUNDS pp pp pp
-30.0 30.0
-30.0 30.0
-30.0 30.0
ITEM: ATOMS id type x y z Coordination
1 1 -2.18011 1.85943 -3.62131 22
2 1 4.4433 -6.88466 7.16105 10
3 1 0.270292 6.69776 9.08369 12
4 1 4.24151 -0.923223 1.75906 23
5 1 -4.96666 5.815 0.195628 19
6 1 -0.882644 -1.36136 -3.8463 22
7 1 1.47756 -0.405767 7.09989 21
8 1 3.83898 -2.37908 -6.43986 23
9 1 -10.513 5.12471 -1.56435 9
10 1 0.868538 1.83221 -8.55383 15
11 1 5.05321 -7.58601 -4.24201 15
12 1 9.68686 1.56126 7.15569 8
13 1 6.09423 5.19437 -6.88462 10
14 1 -1.9173 7.9262 7.00767 13
15 1 0.365954 5.85123 5.87734 22
16 1 -6.38389 -0.961688 3.09743 21
17 1 -11.4573 -0.322879 0.171542 10
18 1 9.82105 -4.07165 -3.13087 16
19 1 3.81059 2.09616 7.28675 22
20 1 -5.67232 -6.1708 1.87959 18
21 1 -6.74099 -3.46484 -8.69598 10
22 1 1.29261 -0.398355 -6.17948 20
23 1 9.6037 -3.14405 -6.49577 13
24 1 5.73378 -7.24214 3.69362 14
25 1 -4.69293 10.9734 2.96796 12
26 1 3.95417 1.05585 4.60614 25
27 1 2.57251 8.34654 0.44639 20
28 1 0.836956 1.13504 -2.83124 23
29 1 -5.51352 -6.06442 -5.85226 16
30 1 -1.21722 1.81489 9.33588 15
31 1 7.1341 -1.92434 3.71433 18
32 1 -6.82809 8.38643 2.84718 13
33 1 -2.5916 5.0499 1.91239 20
34 1 4.64835 7.33041 -4.23656 12
35 1 7.50612 5.63132 0.523254 14
36 1 1.91228 5.83765 -4.85764 20
37 1 2.03215 -5.03394 -1.55145 22
38 1 -1.66701 3.20876 -8.66034 12
39 1 -2.14729 3.2122 -0.658996 23
40 1 -0.480839 8.83161 -1.243 20
41 1 2.35069 6.44843 -2.04518 21
42 1 -10.0134 3.12563 0.987117 15
43 1 1.09493 3.76933 10.3497 12
44 1 -3.32129 -4.89849 -7.98404 16
45 1 -5.43988 -3.15089 7.16588 15
46 1 -1.62684 1.97956 1.90036 22
47 1 -1.59199 -1.07495 3.3039 22
48 1 -7.06224 -1.31967 -2.75537 21
49 1 2.32022 -8.99138 -3.12398 13
50 1 -7.32721 2.16097 3.11682 25
51 1 -8.96581 0.564749 -5.15513 16
52 1 -1.90578 -9.71443 4.30736 12
53 1 7.89668 2.9537 -5.34701 14
54 1 -3.93157 -3.25653 2.33404 23
55 1 -8.78335 -5.58268 -6.54369 10
56 1 3.61963 3.26862 -8.75584 12
57 1 0.607091 4.58246 2.88957 22
58 1 -1.84299 3.48311 4.65763 22
59 1 -5.13298 2.83686 1.15546 23
60 1 4.4243 -4.16776 -3.56711 22
61 1 1.28018 10.8958 -0.69869 11
62 1 -11.7166 1.54781 2.87635 9
63 1 2.90397 7.91015 6.76577 17
64 1 4.52783 -0.195216 9.03441 16
65 1 0.0321085 -8.26183 -5.84037 12
66 1 10.7741 -0.90656 -4.06597 13
67 1 -2.77303 -6.28121 2.51769 23
68 1 1.85717 -9.16421 0.19261 14
69 1 6.73419 -1.54531 7.13988 12
70 1 -0.73621 -3.88828 3.21573 23
71 1 5.37154 7.20564 1.87817 19
72 1 -4.48705 -7.81041 4.81142 13
73 1 -1.26201 -11.5286 1.21426 9
74 1 -4.01105 -4.91013 -0.362672 20
75 1 2.11645 -3.3525 1.3397 21
76 1 -6.09612 -4.36942 -2.9845 22
77 1 6.85629 2.03667 -8.10842 13
78 1 4.79527 -4.06013 2.53566 22
79 1 -3.81364 -1.96071 5.4711 20
80 1 -9.28711 0.958029 5.49868 13
81 1 4.51819 -7.7875 -0.956832 18
82 1 -5.66524 -4.63815 4.66494 19
83 1 0.481114 3.07271 6.98048 23
84 1 -9.38834 -0.544713 2.6936 15
85 1 -2.68758 8.16814 1.14673 22
86 1 -7.37202 5.41809 2.22445 18
87 1 0.611749 1.55215 4.09529 23
88 1 -1.8512 4.56762 8.20487 17
89 1 -10.0197 -2.23468 -6.19529 11
90 1 -2.37295 -7.99748 7.16918 13
91 1 -9.59304 3.37853 -4.48862 13
92 1 -3.52382 -3.49113 -5.01456 22
93 1 6.95091 1.91265 8.14104 15
94 1 -9.23195 6.75904 -3.38415 10
95 1 -0.497182 -2.70417 6.17106 19
96 1 -6.72593 -2.42521 -5.76722 22
97 1 -9.78902 1.67469 -1.84964 17
98 1 -2.03397 -9.49195 -3.64222 15
99 1 -3.6211 -2.25331 -1.82555 21
100 1 3.23868 2.18626 1.93283 20
101 1 -7.1411 6.39343 5.44877 13
102 1 2.92446 3.98355 4.94598 21
103 1 -2.54299 6.12561 -1.43662 21
104 1 -1.11188 -5.16961 -5.73869 23
105 1 -2.43379 11.0806 0.147831 11
106 1 5.29714 1.52061 -2.5489 21
107 1 -7.54941 3.07198 -7.21346 14
108 1 -6.2096 7.11748 -2.48169 16
109 1 -3.01971 -7.89297 -6.4557 13
110 1 2.22042 -4.56457 4.32186 20
111 1 -4.57694 4.70501 -7.38045 12
112 1 -3.36428 -0.966851 8.47497 15
113 1 3.40902 0.483406 -0.527998 23
114 1 -6.89231 3.10068 6.19796 16
115 1 -3.63512 -6.16196 -3.53031 21
116 1 0.727764 -3.14057 9.13202 16
117 1 -1.21611 -5.80584 7.96485 15
118 1 -1.10165 -2.38394 -7.07188 22
119 1 7.00422 -0.0824232 -0.527288 21
120 1 -4.88052 4.20309 3.73975 21
121 1 6.79747 -1.52441 -8.18089 19
122 1 0.174054 5.89673 0.195807 22
123 1 5.7406 -4.24773 5.37762 16
124 1 -7.78831 -6.95223 -3.73344 13
125 1 -4.09346 1.24893 4.14311 23
126 1 4.54677 3.3153 9.96085 13
127 1 9.52367 3.47042 1.01124 14
128 1 -4.86549 2.72499 -5.48908 19
129 1 2.57024 4.94068 -7.0867 12
130 1 1.53995 10.3402 2.60632 15
131 1 4.23769 -0.0182648 -8.2462 16
132 1 -0.543305 -6.93459 4.64575 18
133 1 5.49364 2.95187 0.306031 23
134 1 4.79771 -9.14322 1.85757 12
135 1 -0.230575 -8.46477 1.82318 17
136 1 -4.94164 1.51892 -8.71213 15
137 1 3.13804 4.97069 0.851614 22
138 1 9.69687 -1.75366 -1.22818 20
139 1 0.607407 2.78676 -5.4958 21
140 1 -4.1234 7.15798 -5.02122 12
141 1 2.07485 -6.22678 -4.84062 19
142 1 -0.0799355 -5.80664 0.436865 21
143 1 -8.2797 -2.39281 5.34813 13
144 1 -0.662919 -9.83762 -1.20908 16
145 1 1.41827 -4.58739 -7.54942 20
146 1 6.06079 8.61124 -1.02906 9
147 1 5.22118 -5.36521 -0.67533 20
148 1 6.98211 -3.18764 -5.44395 22
149 1 -6.313 -2.94624 0.0399776 23
150 1 -5.26592 -9.12627 -3.82531 13
151 1 2.1076 -5.70387 9.57291 11
152 1 2.83205 -2.34921 11.1489 10
153 1 7.48352 -4.44988 -8.50328 10
154 1 -6.75501 5.11856 -4.72554 17
155 1 5.37367 5.93886 -1.09203 21
156 1 6.03476 -0.0911691 -5.31908 23
157 1 0.916105 -0.259819 1.54849 23
158 1 -0.26048 -4.29522 -9.88478 8
159 1 -9.84106 4.15541 4.38999 12
160 1 4.20753 -3.65507 8.09516 16
161 1 6.71106 1.34662 2.40521 22
162 1 -7.596 -0.135788 -7.71288 13
163 1 7.73217 -4.95501 2.63557 15
164 1 -2.71638 -7.84572 -0.559506 21
165 1 5.99847 3.83113 5.52921 21
166 1 1.18346 -6.7294 7.07952 12
167 1 0.850512 2.75218 -0.13035 24
168 1 4.15681 -1.85367 5.54769 22
169 1 8.15573 0.27952 -3.66826 20
170 1 8.78806 3.14311 3.94373 17
171 1 6.62933 -2.47793 -2.547 22
172 1 9.35651 0.343837 3.97408 12
173 1 -1.22771 -4.20292 -2.54814 21
174 1 5.79441 6.24764 8.20939 10
175 1 -4.83875 3.75811 -2.12343 20
176 1 0.0796635 7.68226 -6.72753 10
177 1 -1.48089 0.580769 6.44852 21
178 1 -0.690024 -6.80236 -2.86264 23
179 1 -5.58874 -7.77823 -1.14378 17
180 1 5.46775 4.22647 3.00186 24
181 1 -4.68739 8.51983 5.3269 12
182 1 -8.41656 7.97638 -0.164121 10
183 1 5.98648 4.39696 -3.76545 17
184 1 2.16225 0.691102 10.2531 14
185 1 -7.19588 0.176167 0.205863 21
186 1 -0.818628 -6.81249 -8.68118 12
187 1 -2.59603 6.94851 3.85536 20
188 1 3.38252 -0.809508 -3.75189 24
189 1 3.87676 9.59358 4.32615 14
190 1 2.96191 -6.45974 1.37926 21
191 1 -2.12063 10.1988 3.61292 14
192 1 -3.95034 -0.254321 1.24478 22
193 1 4.67917 -5.21014 -6.7203 16
194 1 1.46987 -1.33029 -8.86259 16
195 1 3.08668 -7.60631 4.46677 14
196 1 -2.02247 0.830968 -6.23357 24
197 1 1.18633 -1.74765 -1.37086 22
198 1 -4.14846 5.31266 5.97248 19
199 1 10.2585 -2.37736 1.69559 12
200 1 -1.14618 7.31157 -3.88833 19
201 1 1.66054 -1.53585 4.07203 23
202 1 7.93434 3.1056 -1.70825 17
203 1 -0.784065 -1.13401 10.6726 11
204 1 -3.01708 -3.57069 9.44362 12
205 1 -3.5608 8.99522 -2.41773 16
206 1 5.3901 6.5971 5.30471 17
207 1 -7.98391 -3.73176 2.47259 15
208 1 7.04119 -2.68298 0.915489 20
209 1 -8.01626 -5.62897 -0.591605 15
210 1 8.94399 5.0956 6.7872 10
211 1 7.17711 -6.09108 -2.50981 16
212 1 3.05794 3.44592 -2.05015 25
213 1 2.89069 6.78997 3.55021 24
214 1 -10.807 -1.4122 -3.11538 13
215 1 -0.236672 4.36649 -2.76942 22
216 1 1.44696 8.89197 -3.93634 14
217 1 -4.43549 -0.388752 -4.5181 21
218 1 4.27941 -3.47901 -9.32047 11
219 1 -3.90343 -10.6388 -1.27575 12
220 1 -1.46104 0.241409 -0.814839 21
221 1 -4.66767 -6.11381 8.03723 11
222 1 9.47553 -5.24649 -0.318417 15
223 1 -7.67186 3.20643 -0.222746 17
224 1 -1.69602 0.0643048 -9.30031 13
225 1 -8.85391 -4.03917 -3.5127 16
226 1 6.90424 1.16203 5.42293 19
227 1 4.35785 -2.60151 -0.990245 22
228 1 -4.45382 -1.73804 -7.63667 17
229 1 -5.57809 9.67327 -0.00583863 14
230 1 -6.11259 -0.194623 6.19973 15
231 1 -4.42273 0.885575 -1.67684 23
232 1 8.53106 6.07381 3.35609 13
233 1 10.271 0.679537 1.1411 12
234 1 -2.79389 -4.99104 5.38773 24
235 1 9.03541 -0.259963 -6.84625 15
236 1 3.49483 2.3879 -5.11288 21
237 1 0.628885 9.30935 5.26519 14
238 1 4.29128 10.7692 1.19686 11
239 1 10.5999 1.34125 -1.61182 11
240 1 -1.09214 -2.62656 0.539292 22
241 1 -3.90019 2.25613 7.31186 16
242 1 8.03211 -5.81939 -5.19287 14
243 1 1.48806 -3.45887 -4.39514 25
244 1 2.94937 5.44128 8.14462 17
245 1 -6.83634 1.79913 -3.02283 21
246 1 -0.0389394 7.66797 3.00352 20
247 1 -3.97766 -9.36111 1.84769 16
248 1 7.60931 -7.54532 0.57494 11
249 1 -9.1891 -2.30122 -0.333386 15
250 1 -1.82828 4.55921 -5.79032 17
251 2 -10.2302 0.664058 3.86121 15
252 2 8.93196 5.05343 4.9141 12
253 2 0.366116 -5.14144 8.59983 14
254 2 -5.74636 0.180557 -3.20077 22
255 2 -9.80886 3.423 -0.97558 15
256 2 -2.90029 -8.77257 5.48581 14
257 2 3.51551 -0.717239 10.4294 13
258 2 8.45597 -3.37428 2.07042 14
259 2 -2.24038 -3.83982 -0.724695 20
260 2 -3.32919 7.28761 5.74269 18
261 2 -0.635148 5.95098 2.18331 20
262 2 7.11145 -1.38522 -4.24855 27
263 2 6.66565 -6.69515 -4.20742 14
264 2 -4.89214 -1.8115 -5.68728 19
265 2 0.32 -2.9932 -8.38829 19
266 2 -2.20207 -3.68384 -6.36228 20
267 2 -1.56616 -5.54659 3.96385 23
268 2 -5.87138 9.77001 2.06157 12
269 2 7.31467 0.00203714 3.93591 18
270 2 1.38572 -7.30708 1.03953 20
271 2 -0.872464 1.86064 0.0630552 20
272 2 6.62104 5.81642 2.70023 19
273 2 1.72835 5.31637 9.48728 14
274 2 1.5139 6.89904 7.51603 15
275 2 2.7312 7.40216 -3.90096 15
276 2 7.97344 -2.82959 -7.33929 15
277 2 -8.87177 1.82845 -3.65867 17
278 2 -0.678121 -7.16323 6.67073 14
279 2 -8.30462 3.46258 1.8037 19
280 2 3.97188 -6.303 -5.43417 15
281 2 0.0105834 -9.98676 0.73125 13
282 2 6.21188 -3.21055 -9.11698 13
283 2 -0.582726 7.89823 5.55077 18
284 2 6.82464 2.81264 3.85602 22
285 2 -4.39555 -9.08298 -0.113025 16
286 2 3.53388 -3.57618 5.07399 17
287 2 -2.40292 -10.4243 2.50744 11
288 2 1.58101 1.29991 -4.89036 21
289 2 -4.12405 -7.74454 -4.84166 17
290 2 -6.77915 -3.23002 6.00635 15
291 2 -6.4861 -6.54914 0.163327 16
292 2 -7.77166 -5.37244 -2.49387 15
293 2 -3.02392 11.1619 2.00499 11
294 2 3.42426 -1.74502 -9.20459 14
295 2 9.09168 5.18849 1.63553 12
296 2 4.46533 4.65819 -7.61479 12
297 2 -3.27427 2.60871 -2.12266 22
298 2 -5.61027 3.07978 -3.7564 19
299 2 7.16866 1.49262 0.5477 20
300 2 -0.603261 10.6589 -0.346161 12
301 2 -6.34778 7.87605 4.57577 14
302 2 1.3303 4.65438 0.983098 22
303 2 2.21817 10.253 0.779636 14
304 2 -5.00062 5.39275 -5.54908 16
305 2 -0.594402 3.5443 9.29866 13
306 2 -2.76749 2.01412 5.49331 22
307 2 3.00473 -3.85525 9.79018 11
308 2 0.849563 -5.7204 -8.95225 9
309 2 -1.47579 -8.453 -2.06769 20
310 2 -4.69958 -3.41269 -8.30536 14
311 2 -3.20122 -0.711033 -0.615974 19
312 2 -0.988934 5.08726 -1.03347 21
313 2 -9.80876 -2.80796 -2.14471 14
314 2 8.89713 -5.25916 -2.04656 16
315 2 6.94736 5.25379 6.82987 13
316 2 2.0981 0.146985 -7.86084 18
317 2 0.759097 -4.72722 -5.83081 21
318 2 4.67056 0.776541 -4.20382 19
319 2 -4.23172 -6.43004 -7.28222 15
320 2 -0.639444 2.31609 -7.06047 19
321 2 10.2483 -1.33707 -5.86982 13
322 2 -5.42352 -2.04421 1.66956 22
323 2 -1.07289 -7.01117 -6.70526 17
324 2 0.09627 -2.64357 -2.91316 23
325 2 4.91011 1.7549 -8.48564 14
326 2 -1.79395 -5.3987 -3.94217 20
327 2 7.82443 0.25687 -8.26465 13
328 2 -0.0321864 10.2988 3.8023 12
329 2 -8.12143 -4.01339 0.594137 14
330 2 -5.77347 1.78161 6.58086 17
331 2 -5.92644 3.9574 -0.478623 20
332 2 -8.18701 -2.08802 3.34524 18
333 2 -4.36857 -4.26224 8.24849 15
334 2 -10.1578 4.97368 -3.37921 10
335 2 5.08624 -5.11241 7.05813 13
336 2 7.63058 -1.9219 -0.880014 21
337 2 -0.634639 -0.736503 -5.69346 22
338 2 1.67295 8.37815 3.00375 20
339 2 -1.41949 6.51159 8.15195 12
340 2 0.893125 -2.33853 11.096 11
341 2 -8.53538 5.5447 4.21595 14
342 2 2.47012 2.30995 3.78003 22
343 2 -9.94116 -0.957763 -4.75688 15
344 2 4.41842 -2.12406 -2.89475 23
345 2 9.68631 2.15082 2.29845 14
346 2 -7.50571 0.413472 2.24082 23
347 2 1.69278 6.6806 -6.51164 12
348 2 3.34252 -4.17176 -7.6708 17
349 2 -9.45767 6.92067 -1.30944 9
350 2 1.63306 -6.57283 4.83652 17
351 2 8.0467 0.911879 -5.54305 16
352 2 3.91071 -8.08443 -2.78017 16
353 2 4.05209 -7.48807 2.78959 16
354 2 -3.56892 9.31308 -0.425131 16
355 2 0.175387 -5.83213 -1.5604 19
356 2 -1.71085 -7.03285 0.996907 23
357 2 4.64628 7.21184 7.02008 13
358 2 -1.9359 7.74183 -2.17689 20
359 2 -2.04237 -1.1118 5.35117 23
360 2 -1.63052 -4.14431 6.80153 24
361 2 -0.43717 2.97039 3.19497 23
362 2 -3.87169 -3.68555 4.39206 23
363 2 2.22831 3.95694 -5.39781 17
364 2 2.27663 -1.50185 2.06417 25
365 2 10.2782 -2.31411 -2.82724 16
366 2 2.59885 0.496058 8.20166 18
367 2 -7.5518 -1.43562 -0.882828 21
368 2 3.68127 5.22537 -1.24512 21
369 2 4.70298 7.87317 3.86775 15
370 2 2.3418 -1.72744 -5.21412 23
371 2 -6.63819 -5.02836 3.10513 17
372 2 2.57472 2.60288 10.3694 14
373 2 -1.04507 0.474776 -2.68527 25
374 2 -4.57426 5.676 -1.79376 19
375 2 5.2524 1.97022 8.68931 16
376 2 1.87718 1.38723 0.778214 26
377 2 1.94925 3.4695 -8.14772 13
378 2 5.26688 -2.20636 2.96761 22
379 2 2.40059 3.58892 7.07223 22
380 2 6.05915 -5.10286 3.62362 19
381 2 0.126121 -4.01505 1.40649 23
382 2 -3.26733 3.35439 1.24377 24
383 2 -10.8059 -0.0247217 -1.72665 13
384 2 -2.5101 6.36225 -5.00494 16
385 2 -8.24568 4.16512 -5.63312 14
386 2 -2.12403 -2.56668 2.17339 21
387 2 -4.48086 -5.96468 5.72183 17
388 2 3.65963 10.7496 2.96681 10
389 2 -7.70305 -4.6809 -7.77628 10
390 2 10.0984 -0.656858 2.57677 12
391 2 -6.53359 8.30113 -0.869503 14
392 2 8.60558 -6.06838 1.24976 13
393 2 -4.29696 -7.67304 2.84828 18
394 2 -7.44102 -6.65238 -5.56926 13
395 2 5.26269 7.35731 -2.34952 11
396 2 -7.73501 7.10094 1.4489 12
397 2 4.25419 3.74667 1.68853 26
398 2 -2.90327 -6.6566 8.58379 11
399 2 -11.0096 3.52532 2.81733 10
400 2 -3.17083 6.45744 0.434245 19
401 2 -0.0951638 0.483906 9.98667 17
402 2 -8.30296 1.40015 -6.86212 12
403 2 6.72122 7.42079 0.244237 11
404 2 -3.62067 4.08125 7.50799 16
405 2 0.379754 1.23896 6.15398 22
406 2 1.12647 3.29536 -2.10195 26
407 2 2.2376 -0.165042 -2.28297 22
408 2 -3.34638 1.18978 -5.08574 20
409 2 0.786252 5.72283 -3.39362 23
410 2 -2.83999 -2.08914 -3.68234 21
411 2 -2.41423 -1.05961 -7.74928 18
412 2 2.94393 -0.474869 5.09209 19
413 2 1.69555 5.33059 4.34764 21
414 2 9.67252 2.92876 -0.899673 13
415 2 2.99532 -4.70597 2.48433 22
416 2 7.05751 1.01891 -2.18258 24
417 2 4.53209 4.89806 4.74998 22
418 2 -5.29875 1.0216 0.446072 22
419 2 -1.01501 3.36324 -4.41287 20
420 2 -2.6045 0.929785 8.2231 16
421 2 -9.6893 -4.16333 -5.51818 13
422 2 2.5169 -3.04825 -0.598266 26
423 2 -1.81403 8.39983 2.91174 20
424 2 -8.34264 2.63702 5.02354 15
425 2 -5.12405 -0.521902 4.52362 22
426 2 -3.90883 -6.54359 -1.58866 21
427 2 4.95027 4.93796 9.18289 12
428 2 4.43507 3.29074 -3.34077 19
429 2 0.159134 0.00596588 -9.59012 12
430 2 5.89437 5.8081 -5.04566 13
431 2 1.10621 -7.84444 -4.22713 18
432 2 8.84726 3.1814 7.87479 11
433 2 3.34932 6.79306 1.64339 23
434 2 -0.0984962 8.2842 -4.89918 11
435 2 -5.76767 -0.216877 -8.22378 14
436 2 -1.81305 -5.13047 -9.27617 12
437 2 -7.06998 -2.89455 -3.79474 18
438 2 -3.89437 9.84256 4.31659 13
439 2 1.14615 9.77757 -2.28831 12
440 2 -4.68877 8.06262 -3.48795 14
441 2 -5.86345 4.67419 5.60704 16
442 2 -0.160742 -0.998589 -0.00365649 24
443 2 6.91071 3.44548 -6.85923 13
444 2 7.01258 -5.14743 -6.71699 14
445 2 -4.02583 -5.08416 1.6015 21
446 2 -7.34761 6.46701 -3.7647 13
447 2 -2.94852 1.61718 -9.0056 14
448 2 -4.69478 -4.83291 -4.28394 22
449 2 5.08518 -1.92076 7.91446 16
450 2 -5.40924 2.41754 3.06567 22
451 2 -3.89288 -10.1563 -3.08354 13
452 2 -8.21952 -0.561927 5.8519 15
453 2 4.96194 -0.722324 -0.245753 22
454 2 2.85982 -6.67439 8.0289 11
455 2 -11.0529 1.38172 1.09144 12
456 2 -1.97922 -2.02221 9.33727 15
457 2 -0.706654 -8.5769 3.64546 16
458 2 7.2331 0.274752 7.4031 13
459 2 2.62735 -4.72684 -3.58317 24
460 2 -5.25745 5.33072 2.16374 21
461 2 -8.14846 -1.72683 -6.9032 14
462 2 -4.60981 -1.3721 7.31486 16
463 2 4.7289 -7.88063 5.37553 11
464 2 4.10182 2.20644 -0.897854 22
465 2 5.34413 -0.971927 -7.02196 21
466 2 5.17484 2.08615 5.89824 20
467 2 -5.53348 3.00058 -7.44144 14
468 2 6.4254 -2.42917 5.4443 15
469 2 4.89539 -3.58367 -5.32899 22
470 2 -5.17886 -3.56795 -1.44814 21
471 2 -2.71738 0.513571 2.62641 25
472 2 9.3051 -4.395 -4.98375 14
473 2 3.33713 -6.11543 -0.510414 22
474 2 5.67019 -3.76055 0.261764 23
475 2 6.09572 -4.4068 -2.21735 22
476 2 -0.820899 4.23892 6.20151 26
477 2 7.5744 3.47422 -3.47626 13
478 2 -10.1434 -1.43687 1.12753 14
479 2 4.85321 0.800122 2.67221 23
480 2 -7.63191 1.63047 -1.35705 19
481 2 6.49952 -8.26296 2.01692 11
482 2 4.89878 9.41449 0.111059 11
483 2 10.1645 -0.0919973 -0.533289 17
484 2 6.52549 4.29209 -0.531645 23
485 2 0.574666 -3.15444 4.45346 22
486 2 3.79282 -9.38753 0.271782 13
487 2 10.3403 -3.3456 0.037131 12
488 2 1.20578 -9.11221 -1.6468 15
489 2 -1.5716 -9.15383 -5.4168 9
490 2 1.08053 7.60999 -0.494059 20
491 2 2.58992 9.3359 5.63798 13
492 2 -2.23014 -11.0233 -0.606525 11
493 2 0.81557 -2.08521 7.5085 20
494 2 -3.16273 5.00061 4.02319 20
495 2 9.48241 1.60281 5.36211 13
496 2 10.0279 0.606453 -3.2719 15
497 2 0.151682 -0.236223 3.37031 21
498 2 -2.83659 4.32518 -7.62042 12
499 2 -6.49133 -8.24036 -2.83571 15
500 2 6.44697 -7.15954 -0.832212 16
