ITEM: TIMESTEP
2226000
ITEM: NUMBER OF ATOMS
500
ITEM: BOX BOUNDS pp pp pp
-30.0 30.0
-30.0 30.0
-30.0 30.0
ITEM: ATOMS id type x y z Coordination
1 1 -2.36959 1.82533 -3.65582 22
2 1 3.39008 -3.50837 3.62962 17
3 1 0.275645 4.06865 10.0018 13
4 1 3.93217 -1.102 1.99737 22
5 1 -6.97846 4.77762 0.868387 22
6 1 -1.36978 -1.23955 -3.99282 17
7 1 1.10788 -0.350471 7.23589 18
8 1 3.39699 -2.96248 -6.31155 21
9 1 -9.35491 5.40052 -1.25779 14
10 1 2.38463 -1.17208 -8.7898 18
11 1 6.22856 -6.87323 -3.40491 17
12 1 6.07799 -0.265416 6.7255 18
13 1 3.17006 5.6466 -7.29137 14
14 1 -0.92126 8.2578 5.92648 14
15 1 -0.173463 5.63613 5.34318 20
16 1 -6.53378 -1.50252 2.77161 26
17 1 -11.2601 -1.82008 -0.573209 9
18 1 9.70316 -3.14203 -2.58171 16
19 1 3.42048 1.92345 7.5703 22
20 1 -5.06301 -7.34742 3.20135 16
21 1 -5.29557 -4.95003 -6.42485 15
22 1 3.04206 0.23224 -6.01141 21
23 1 10.5888 -2.47933 -5.63444 12
24 1 6.80206 -6.58905 4.44484 12
25 1 -4.80416 7.21864 2.36916 21
26 1 3.29844 0.638943 4.76682 22
27 1 0.98076 8.15788 0.385104 24
28 1 0.961139 0.927775 -3.26101 23
29 1 -2.00726 -4.72599 -7.34916 15
30 1 -2.13593 1.66755 9.68818 16
31 1 6.41011 -1.90596 3.8402 21
32 1 -7.66973 8.78612 2.6933 12
33 1 -2.75913 4.84207 1.8861 21
34 1 4.62082 7.15326 -4.54088 13
35 1 7.53368 7.78185 -0.538954 12
36 1 1.299 6.36045 -4.69918 19
37 1 2.06656 -5.19877 -1.71852 22
38 1 -2.49004 5.16224 -8.54205 13
39 1 -2.47444 3.02856 -0.572514 25
40 1 -0.418482 7.48313 -2.52496 20
41 1 2.7266 6.58904 -1.81388 20
42 1 -11.5561 3.37025 0.0965189 12
43 1 2.61176 4.72313 8.17133 18
44 1 -4.05547 -0.04032 -9.84158 12
45 1 -6.39225 -3.05723 7.53101 12
46 1 -1.85808 1.68658 1.8624 23
47 1 -2.19809 -1.12329 3.47831 22
48 1 -6.31243 -1.97683 -2.80118 23
49 1 3.45936 -8.933 -2.71984 14
50 1 -7.45895 1.65009 2.848 23
51 1 -8.4042 -0.220275 -4.87872 14
52 1 -0.110858 -10.1444 4.91108 11
53 1 9.01411 2.9452 -4.35366 12
54 1 -3.9201 -3.8014 3.04491 21
55 1 -7.60866 -7.04504 -5.30879 9
56 1 1.8663 1.76477 -10.1668 10
57 1 0.252625 4.14781 2.41512 25
58 1 -2.30526 3.37988 4.65826 24
59 1 -5.05467 2.32496 1.08524 22
60 1 4.50592 -4.16564 -3.70709 21
61 1 0.976932 10.2417 -1.82971 11
62 1 -11.3483 0.762487 1.84447 14
63 1 2.00456 8.3858 6.21758 14
64 1 3.71989 -0.79185 9.33371 15
65 1 1.02808 -9.25775 -4.89424 12
66 1 10.6129 0.0752074 -3.61178 12
67 1 -2.13547 -6.80614 2.63605 20
68 1 3.5864 -10.1155 0.325891 14
69 1 6.14353 -2.87509 8.42269 13
70 1 -1.34339 -4.30518 4.16223 22
71 1 5.6099 9.80223 1.38888 13
72 1 -3.39023 -8.41852 5.78202 10
73 1 0.375888 -11.1677 1.59757 12
74 1 -3.99342 -6.25525 0.77249 21
75 1 1.78907 -3.41984 1.14545 20
76 1 -4.69089 -4.80928 -2.78221 21
77 1 5.48938 4.2001 -5.38398 16
78 1 5.81572 -4.01698 1.59504 21
79 1 -4.21935 -1.91672 5.50126 23
80 1 -9.86091 0.522564 4.81322 12
81 1 6.63616 -9.03998 -0.480064 12
82 1 -6.38612 -4.37199 4.68658 16
83 1 0.027192 2.73498 7.31347 20
84 1 -9.18685 -1.50488 1.96518 18
85 1 -2.42545 8.09612 0.0923728 17
86 1 -10.1095 6.31853 1.70616 12
87 1 0.291542 1.37514 4.31853 23
88 1 -2.35488 4.28195 7.83143 14
89 1 -7.39833 -3.63293 -5.00609 16
90 1 0.85739 -5.71909 2.6131 21
91 1 -10.0067 2.53242 -3.06684 12
92 1 -4.12259 -2.88676 -4.93564 21
93 1 5.76138 4.07276 8.76907 9
94 1 -4.61284 5.99158 -0.692691 23
95 1 -1.0721 -2.17028 6.34651 22
96 1 -6.10696 -1.8208 -7.46686 15
97 1 -9.92689 0.222615 -1.77605 16
98 1 -2.04947 -9.50556 -3.05387 13
99 1 -3.06572 -2.67891 -1.71267 19
100 1 2.99225 1.87874 2.27869 22
101 1 -7.64927 5.80317 4.03422 17
102 1 2.64123 3.92534 5.03947 20
103 1 -2.53511 4.97291 -2.9702 19
104 1 0.253983 -7.04697 -7.31802 14
105 1 -0.557418 10.5921 1.6312 14
106 1 5.81023 2.09264 -2.79929 20
107 1 -5.54492 2.81033 -5.70972 17
108 1 -6.75797 8.21837 -2.95473 13
109 1 -1.82783 -8.44941 -6.40766 11
110 1 3.04027 -8.28445 5.75978 11
111 1 -5.34555 5.71878 -6.90751 13
112 1 -3.98137 -0.830123 8.07304 17
113 1 3.37205 0.492233 -0.525933 22
114 1 -7.80204 2.79567 5.83074 14
115 1 -1.09267 -3.79274 -2.76281 21
116 1 1.24362 -4.48434 6.04398 21
117 1 -1.73337 -5.66982 7.04042 18
118 1 0.391533 -2.2413 -7.06148 22
119 1 7.90285 1.74093 -0.366315 19
120 1 -5.31666 4.14832 3.56155 22
121 1 5.1993 -0.615383 -7.62371 16
122 1 -0.298083 5.37822 -0.0453407 23
123 1 7.40517 -4.71585 6.35039 12
124 1 -7.01669 -8.42217 -2.28838 10
125 1 -4.39688 0.815726 3.9518 21
126 1 3.18073 2.1058 10.5973 10
127 1 9.75208 5.71096 0.954967 11
128 1 -2.68227 1.41201 -6.83874 19
129 1 0.955397 4.55806 -9.34127 12
130 1 2.52308 10.9027 0.204422 13
131 1 3.77347 2.44147 -8.09696 15
132 1 1.70157 -7.8329 -0.135856 20
133 1 5.3156 3.47247 0.110751 18
134 1 5.49877 -9.13999 2.79023 12
135 1 2.26135 -8.69033 2.90281 16
136 1 -4.88244 2.944 -8.86644 12
137 1 2.89404 4.90415 0.834563 21
138 1 9.68387 -0.478281 -0.503153 16
139 1 -0.668207 3.64421 -5.7958 20
140 1 -4.38903 8.85821 -5.54664 11
141 1 3.62378 -7.086 -5.50409 14
142 1 -0.642038 -5.53527 0.00178664 20
143 1 -8.83044 -2.61829 5.1089 12
144 1 0.792878 -10.251 -1.48257 15
145 1 2.17439 -5.09186 -7.6378 15
146 1 3.95151 7.7086 1.44062 21
147 1 4.91535 -6.45184 -1.14439 22
148 1 6.86404 -2.8152 -5.33289 23
149 1 -5.60293 -3.33506 0.0351591 18
150 1 -4.81015 -7.89277 -4.9593 14
151 1 -0.216084 -4.17145 9.85053 13
152 1 1.96041 -1.65721 11.2764 10
153 1 8.1922 -3.82285 -7.86565 11
154 1 -7.96515 4.7516 -4.14967 13
155 1 5.42205 5.72815 -2.05144 21
156 1 6.12222 0.859041 -5.428 17
157 1 0.661475 -0.584808 1.34008 22
158 1 -0.71045 -0.938667 -10.0231 13
159 1 -9.71995 3.49744 2.95557 16
160 1 3.14057 -4.20605 9.28648 15
161 1 6.43192 1.17963 2.52296 21
162 1 -6.97508 0.662539 -8.09224 10
163 1 8.88375 -3.90611 3.41531 13
164 1 -1.52568 -8.72355 0.0927465 19
165 1 5.67027 2.4928 5.37168 18
166 1 1.51211 -6.85991 7.99481 11
167 1 0.802573 2.38559 -0.150678 23
168 1 3.56023 -2.23717 6.15797 21
169 1 7.15031 -0.755572 -2.68084 20
170 1 7.5659 3.77891 2.6839 17
171 1 6.64947 -3.75297 -2.12356 21
172 1 8.62943 1.29217 4.70664 14
173 1 -2.45771 -5.68801 -4.93269 20
174 1 4.61246 7.48941 7.94872 10
175 1 -5.14703 3.59791 -2.19935 21
176 1 -2.35683 6.95986 -5.69594 19
177 1 -2.18473 0.678515 6.26364 23
178 1 -0.608413 -7.16338 -2.71709 19
179 1 -4.80509 -9.49409 0.528812 14
180 1 4.56985 4.57145 2.94218 22
181 1 -5.77479 8.35252 5.25785 11
182 1 -7.8002 7.90411 0.0877644 14
183 1 7.613 6.17913 -3.9254 12
184 1 0.722614 1.16953 11.5988 10
185 1 -6.98125 -0.374116 0.0153121 22
186 1 -0.22288 -3.92606 -9.67919 12
187 1 -3.4364 6.56324 4.95631 19
188 1 4.01935 -0.644024 -3.29895 20
189 1 2.05594 9.56255 2.99029 19
190 1 3.45024 -6.11739 1.38195 19
191 1 -2.95792 9.72766 3.50083 13
192 1 -4.09591 -0.515804 0.960283 24
193 1 5.86612 -5.31213 -6.45447 15
194 1 0.992666 -5.19713 -4.87936 21
195 1 4.21497 -5.32943 6.75563 15
196 1 0.15669 0.639522 -6.33443 19
197 1 1.14026 -1.97683 -1.489 24
198 1 -5.4859 5.07151 6.66449 14
199 1 9.17821 -0.95978 2.75375 16
200 1 -0.677118 9.24611 -4.85475 12
201 1 0.959313 -1.76004 3.9415 23
202 1 8.26562 4.53847 -1.6694 19
203 1 -0.774174 -1.23948 9.90463 15
204 1 -3.28005 -3.58096 9.36104 12
205 1 -3.3813 7.9689 -2.93753 18
206 1 5.00551 8.62605 4.57178 13
207 1 -7.77286 -4.93013 2.44017 15
208 1 6.35724 -1.23119 0.549647 22
209 1 -6.64221 -6.61006 0.0312368 17
210 1 5.38859 5.32616 6.12295 13
211 1 8.53026 -6.24489 -1.72153 14
212 1 3.26114 3.38129 -2.0839 21
213 1 2.04703 6.87738 3.72223 25
214 1 -9.87032 -2.79608 -3.41449 13
215 1 0.222149 4.27377 -2.99469 20
216 1 0.0552741 7.19666 -7.44905 13
217 1 -5.1847 -0.00811823 -5.28341 22
218 1 5.0101 -3.17786 -8.87546 11
219 1 -3.94839 -7.51064 -1.98292 20
220 1 -1.4767 0.0320799 -1.12528 21
221 1 -3.91809 -4.66416 6.32283 17
222 1 8.8481 -3.55652 0.614357 17
223 1 -8.95832 2.04874 0.220267 22
224 1 -1.20706 2.15257 -9.23082 15
225 1 -8.73108 -5.73624 -2.70001 12
226 1 8.623 -1.66434 6.27237 13
227 1 4.19645 -2.70647 -0.83061 23
228 1 -2.48673 -1.67889 -7.26969 20
229 1 -5.41216 9.63864 -0.481745 12
230 1 -6.72581 -0.161085 5.99928 16
231 1 -4.41723 0.386371 -1.91046 22
232 1 7.08301 7.15802 2.52063 13
233 1 10.1322 2.21758 1.78526 14
234 1 -0.184518 -7.4944 5.15316 21
235 1 8.79698 -0.707792 -6.71816 12
236 1 2.58992 3.08869 -5.24574 18
237 1 -0.0956529 10.9181 4.94874 8
238 1 4.53953 8.82263 -1.74876 14
239 1 10.6783 2.87887 -1.39859 13
240 1 -1.25177 -2.84848 0.889943 23
241 1 -4.54352 2.13407 7.02671 16
242 1 8.96355 -5.31449 -5.00143 14
243 1 2.02217 -2.58897 -3.91884 23
244 1 1.2177 7.35416 8.65463 11
245 1 -7.19604 1.4248 -2.8769 22
246 1 -0.762005 7.46836 2.7502 24
247 1 -2.34854 -9.75706 2.92045 14
248 1 7.20977 -6.52693 1.45933 17
249 1 -8.42148 -3.52792 -0.394125 17
250 1 -5.51106 6.07151 -4.18736 17
251 2 -10.2261 -0.241889 2.98527 15
252 2 6.42214 5.3393 2.68733 17
253 2 1.45052 -5.18996 9.20993 12
254 2 -5.95526 -0.0984665 -3.28106 22
255 2 -10.4913 4.96028 0.380983 14
256 2 -1.3731 -9.03888 5.57659 12
257 2 2.5574 0.232918 10.9642 12
258 2 7.18772 -0.589403 2.42985 24
259 2 -1.72356 -3.79477 -0.871323 21
260 2 -5.16381 6.76397 6.15088 12
261 2 -0.950368 5.65565 1.81294 21
262 2 7.56237 -2.50253 -3.55995 21
263 2 8.24036 -6.52502 -3.74861 13
264 2 -3.84966 1.75475 -5.33128 19
265 2 1.5877 -3.70555 -6.23764 22
266 2 -2.67878 -2.64179 -3.67351 22
267 2 -0.725608 -6.04911 3.81088 21
268 2 -6.21557 8.60695 1.43366 15
269 2 8.39795 -2.18036 4.26849 17
270 2 3.14319 -6.66727 -0.746306 16
271 2 -1.05419 1.53479 0.078947 22
272 2 5.5502 8.29156 2.57845 16
273 2 1.31597 5.55787 9.48055 10
274 2 0.540781 9.50863 5.91716 15
275 2 3.19025 6.56732 -5.59801 15
276 2 9.48147 -2.5025 -7.28002 10
277 2 -9.18361 0.914032 -3.48391 14
278 2 0.222335 -6.00645 6.41929 18
279 2 -7.88226 2.94411 1.53003 22
280 2 5.35398 -6.47052 -4.95031 17
281 2 2.05588 -10.2022 1.71315 14
282 2 6.79583 -3.19594 -8.76552 12
283 2 -1.46597 6.98548 4.56867 19
284 2 5.41125 -1.19634 8.42795 14
285 2 -3.06909 -9.60099 1.17244 15
286 2 3.11803 -4.17498 5.40915 16
287 2 -0.66951 -10.7435 3.21741 12
288 2 1.60883 1.29194 -5.0201 20
289 2 -1.74324 -6.49885 -6.69103 15
290 2 -7.48123 -3.60059 5.97198 15
291 2 -5.47292 -7.60062 1.43277 16
292 2 -7.62089 -6.77294 -1.59189 14
293 2 -1.97699 9.15129 1.86004 16
294 2 3.95772 -1.91882 -8.03214 16
295 2 8.2975 7.00504 1.02837 12
296 2 4.07858 3.92455 -6.61722 16
297 2 -3.62756 2.23876 -2.08653 20
298 2 -6.38144 3.04757 -3.76395 20
299 2 7.00385 2.55714 1.05368 20
300 2 0.618666 10.351 0.0589604 15
301 2 -7.26905 7.71474 4.42044 12
302 2 1.09264 4.17006 0.694488 22
303 2 2.99614 9.9663 -1.38305 13
304 2 -4.36759 6.95708 -5.91409 15
305 2 -1.02987 3.20963 8.95683 14
306 2 -3.38787 1.96363 5.34464 23
307 2 3.09725 -2.51247 10.0379 12
308 2 1.73967 -6.51996 -6.20614 15
309 2 0.140997 -9.24576 -3.07555 15
310 2 -3.95128 -1.12419 -6.16772 19
311 2 -3.22141 -0.671806 -0.776217 24
312 2 -1.18444 4.64971 -1.62297 21
313 2 -9.07523 -3.95186 -2.23971 14
314 2 8.865 -4.34904 -1.33114 15
315 2 5.34033 7.2776 5.87551 13
316 2 0.411308 -2.28747 -9.92331 10
317 2 0.291965 -5.4084 -8.66004 12
318 2 5.68417 0.340848 -3.53779 18
319 2 -5.72682 -6.78353 -6.20848 11
320 2 1.71347 -0.670077 -7.01278 21
321 2 10.3106 -0.644492 -5.20877 11
322 2 -4.99073 -2.451 1.80694 23
323 2 -1.22678 -3.12994 -7.73662 16
324 2 0.214878 -2.23861 -3.29522 21
325 2 4.17217 3.47198 -3.75765 21
326 2 0.179233 -8.96709 -6.76168 8
327 2 -0.0700877 0.892604 -10.1847 14
328 2 -1.56213 9.76048 4.71086 12
329 2 -7.14759 -4.59639 0.629321 19
330 2 -6.33532 1.69495 6.42771 17
331 2 -6.10971 5.70965 2.7321 24
332 2 -8.40881 -3.06015 3.26066 15
333 2 -4.6134 -3.63209 7.94252 14
334 2 -10.5215 2.51407 -1.18519 14
335 2 3.1413 -6.8527 7.11294 13
336 2 7.48648 -0.183038 -0.849665 19
337 2 -0.980238 -1.06718 -5.93376 20
338 2 1.14664 8.00131 2.35843 24
339 2 0.617494 6.91517 6.82158 14
340 2 0.345206 -2.56208 10.7962 12
341 2 -9.25492 5.37281 3.13974 15
342 2 2.00659 2.09381 4.22276 21
343 2 -8.20845 -2.09805 -4.25824 18
344 2 4.55597 -2.48175 -2.64183 22
345 2 9.6199 4.04839 2.1686 13
346 2 -7.74941 -0.077858 1.93292 22
347 2 -1.74949 6.69707 -7.56184 15
348 2 4.09416 -4.64956 -7.80347 14
349 2 -7.68544 6.03744 -0.239747 17
350 2 1.55459 -7.29661 1.62788 22
351 2 7.00471 2.66051 -4.77092 15
352 2 5.39808 -8.14188 -1.96569 15
353 2 3.93023 -8.38094 4.00685 12
354 2 -3.72505 8.84124 -1.27947 14
355 2 0.446403 -6.33029 -1.28877 20
356 2 -1.9838 -7.01651 0.73976 23
357 2 2.80096 7.9509 7.93696 10
358 2 -0.144228 9.32391 -3.02894 13
359 2 -2.52542 -0.9778 5.41492 22
360 2 -2.05902 -4.13206 6.06643 20
361 2 -0.83667 2.73082 3.31467 20
362 2 -4.67276 -3.62231 4.81449 19
363 2 2.37991 3.33804 -9.22645 11
364 2 2.0948 -1.81783 2.2117 22
365 2 10.3087 -1.24301 -2.17075 14
366 2 2.60815 0.242077 8.07085 18
367 2 -7.04468 -2.0227 -0.944679 23
368 2 4.05994 4.93562 -0.842706 19
369 2 3.05308 8.36264 4.44954 15
370 2 3.46049 -1.58294 -4.90425 22
371 2 -6.50281 -5.88166 3.32678 12
372 2 1.30257 2.82173 11.0417 11
373 2 -1.15027 0.447195 -3.0253 22
374 2 -5.37166 4.28419 -0.178418 18
375 2 4.2406 2.82284 9.13159 12
376 2 1.73172 0.960222 0.777633 22
377 2 3.04286 0.656256 -8.97347 11
378 2 4.78083 -2.75556 2.6925 20
379 2 2.01479 3.29122 6.93692 21
380 2 8.14259 -5.07519 4.66978 12
381 2 0.10498 -4.23566 1.23128 22
382 2 -3.13202 3.07926 1.26467 22
383 2 -10.6938 -1.48668 -2.42009 12
384 2 -2.59499 9.03993 -5.15308 12
385 2 -4.44353 4.65432 -8.21499 11
386 2 -2.1625 -2.99573 2.77099 22
387 2 -3.24642 -6.65305 6.54223 14
388 2 3.62708 9.86419 1.59291 17
389 2 -6.44604 -3.36535 -6.72113 13
390 2 9.76989 0.802703 3.1263 14
391 2 -6.93099 8.98955 -1.39238 10
392 2 7.56518 -4.45455 2.17129 18
393 2 -3.16821 -8.27226 3.75928 16
394 2 -6.58858 -8.07024 -4.03803 11
395 2 1.07213 6.06363 -2.71676 21
396 2 -9.18626 7.95113 1.64443 13
397 2 4.03666 3.22434 1.56151 21
398 2 -1.77549 -4.85347 9.13255 14
399 2 -10.8691 2.50788 1.6314 14
400 2 -1.9674 6.6479 -3.74309 22
401 2 -0.857884 0.663508 10.7351 12
402 2 -9.26408 4.24708 -2.77077 13
403 2 6.07457 9.12761 -0.501869 13
404 2 -4.13751 4.06989 7.43275 14
405 2 -0.208336 1.00267 6.28832 22
406 2 1.39864 2.70544 -2.13566 21
407 2 2.40375 -0.39939 -2.13955 22
408 2 -6.11807 2.29783 -7.49133 14
409 2 -0.931089 2.16094 -7.1944 17
410 2 -4.75833 -6.03804 -0.944616 18
411 2 -6.31526 4.89639 -5.51948 12
412 2 2.18597 -0.953404 5.4374 21
413 2 1.13064 4.83646 4.06092 21
414 2 10.0111 4.40056 -0.473788 13
415 2 2.72779 -4.66863 2.37624 17
416 2 6.93021 3.08807 -1.64051 23
417 2 4.55583 4.04257 4.84799 22
418 2 -5.36255 0.693035 0.0212373 23
419 2 -1.49343 3.70953 -4.04806 19
420 2 -3.02955 1.10145 8.01487 18
421 2 -8.36357 -5.40865 -4.55016 12
422 2 2.19827 -3.39483 -0.935803 23
423 2 -0.595854 7.37197 -0.468404 22
424 2 -8.9387 2.2401 4.28372 16
425 2 -5.59066 -0.678105 4.1671 22
426 2 -2.03376 -8.12913 -1.64096 18
427 2 4.63812 5.52859 8.33088 13
428 2 1.05505 4.11906 -5.08919 18
429 2 -0.887436 4.24368 -9.10871 13
430 2 5.90038 5.70853 -4.43365 15
431 2 2.81262 -8.57389 -4.40574 12
432 2 6.03249 3.5311 6.91105 13
433 2 3.44527 6.09072 2.44784 22
434 2 1.47361 5.96992 -8.04027 12
435 2 -5.40316 -0.479329 -8.69288 13
436 2 -3.35172 -4.2748 -6.09788 17
437 2 -5.65182 -3.56141 -4.14106 21
438 2 -4.13087 8.23997 3.97476 16
439 2 0.345949 7.80683 -5.61855 14
440 2 -5.03891 8.53465 -3.7101 14
441 2 -6.72401 4.25921 5.14853 16
442 2 -0.313775 -1.38488 -0.110664 21
443 2 4.56733 1.03456 -6.66903 18
444 2 7.73726 -4.50479 -6.21794 16
445 2 -3.70818 -5.49852 2.44553 21
446 2 -7.33497 6.58403 -3.7105 14
447 2 -2.34988 -0.866178 -9.09242 15
448 2 -0.635654 -5.3283 -3.88284 20
449 2 5.33626 -1.8195 5.48402 21
450 2 -5.44594 2.04943 2.89069 23
451 2 -3.87476 -6.36162 -3.76445 21
452 2 -8.56795 -0.702096 5.39198 16
453 2 4.45661 -0.774755 0.108398 23
454 2 5.77843 -5.87866 5.92635 12
455 2 -11.2509 -0.00901809 0.0325543 13
456 2 -2.75526 -1.59082 9.58686 13
457 2 1.38547 -8.69267 4.80084 14
458 2 8.10193 0.121639 6.12178 14
459 2 2.45318 -4.5509 -3.64238 22
460 2 -3.58442 6.45972 0.842038 22
461 2 -6.98833 0.018147 -6.15104 17
462 2 -5.45987 -1.17126 7.01561 17
463 2 4.68774 -3.98283 8.06079 14
464 2 4.45427 2.04564 -1.12036 21
465 2 6.83188 -0.886664 -6.33185 19
466 2 4.63893 1.0685 6.17139 20
467 2 -4.48708 5.68316 -2.57332 22
468 2 7.64927 -3.03913 7.22556 12
469 2 5.06613 -3.71112 -5.45963 25
470 2 -4.9392 -3.06355 -1.75718 18
471 2 -3.18572 0.309924 2.49062 21
472 2 9.98379 -3.86847 -4.2804 13
473 2 5.40845 -5.80709 0.968875 19
474 2 6.17615 -3.16207 -0.0607177 20
475 2 5.52252 -5.16774 -2.37243 19
476 2 -1.18794 4.12274 6.30357 20
477 2 8.63585 4.53963 -3.75517 13
478 2 -9.68927 -2.5929 0.593851 16
479 2 4.45855 0.623977 2.87292 22
480 2 -8.05026 1.09004 -1.08198 20
481 2 6.63009 -7.64448 2.9045 13
482 2 4.37667 7.18982 -2.78979 16
483 2 9.98134 1.48965 -0.0648506 16
484 2 7.28971 6.45191 -1.90135 15
485 2 0.144971 -3.01053 4.94818 21
486 2 5.36405 -9.77914 0.739925 13
487 2 9.6215 -1.88647 1.02965 15
488 2 2.50694 -9.53983 -1.14954 15
489 2 -2.61768 -8.86131 -4.76922 12
490 2 2.85002 7.34492 -0.0956404 24
491 2 0.568419 10.676 3.16888 15
492 2 -0.137605 -10.0492 0.123879 16
493 2 -0.304724 -1.39392 7.96882 20
494 2 -3.37493 4.84085 3.76994 23
495 2 7.09457 2.24434 4.27527 18
496 2 10.0336 2.05655 -3.0607 13
497 2 -0.233287 -0.444859 3.2722 21
498 2 -3.27253 1.5616 -8.83125 17
499 2 -5.48756 -8.9004 -1.15546 14
500 2 7.63438 -7.43856 -0.205785 13
