ITEM: TIMESTEP
3909000
ITEM: NUMBER OF ATOMS
500
ITEM: BOX BOUNDS pp pp pp
-30.0 30.0
-30.0 30.0
-30.0 30.0
ITEM: ATOMS id type x y z Coordination
1 1 -2.05592 1.77994 -3.60418 23
2 1 3.47186 -4.025 3.64509 18
3 1 0.445814 3.97101 10.3084 13
4 1 4.2176 -1.35975 2.36321 22
5 1 -5.42528 5.2188 0.0969033 21
6 1 -1.46821 -1.65754 -3.69338 22
7 1 1.1166 -0.68567 7.20862 21
8 1 3.75236 -2.01565 -5.91333 20
9 1 -9.94321 5.15268 -2.46118 10
10 1 0.459868 -0.0415122 -9.1211 15
11 1 6.17029 -6.88038 -3.41625 15
12 1 6.0189 -0.385531 7.01738 16
13 1 2.98199 4.73112 -7.29488 15
14 1 -0.267237 8.45314 6.20942 13
15 1 0.721723 5.33134 6.06162 18
16 1 -6.67529 -1.28687 3.60456 24
17 1 -11.0899 -0.342368 0.099691 14
18 1 9.49661 -3.078 -3.08571 17
19 1 3.30137 1.73583 8.00879 22
20 1 -5.75697 -6.46022 2.60222 17
21 1 -6.57205 -3.81011 -7.34605 13
22 1 1.00829 -0.642268 -5.61059 23
23 1 10.9131 -3.08996 -5.99583 9
24 1 7.80473 -7.93012 4.66645 10
25 1 -4.13708 10.0755 2.18261 10
26 1 3.78082 0.327923 5.00136 22
27 1 1.46095 8.63636 0.954475 22
28 1 0.955498 0.900283 -2.69831 23
29 1 -5.24907 -5.40843 -5.54087 19
30 1 -2.0794 2.04799 9.59669 13
31 1 6.20808 -2.2973 4.13544 19
32 1 -6.33923 7.40724 2.07462 15
33 1 -2.56967 4.84268 1.87278 21
34 1 4.26795 7.61444 -4.37772 12
35 1 7.55849 7.39033 -0.35268 9
36 1 2.70184 5.00132 -4.40625 19
37 1 1.93987 -5.13401 -1.85106 22
38 1 -1.50121 2.50441 -8.80268 15
39 1 -2.08408 2.92561 -0.492164 23
40 1 0.34262 7.18754 -4.15929 18
41 1 2.30024 6.46901 -1.63564 22
42 1 -10.4423 3.2726 0.94163 13
43 1 3.0516 4.47982 8.62699 17
44 1 -5.41637 -2.37195 -10.2222 10
45 1 -6.14009 -2.97168 8.23632 14
46 1 -1.86828 1.68799 2.17264 20
47 1 -1.78584 -0.823596 3.7579 22
48 1 -7.81775 -1.30715 -2.13106 21
49 1 3.42587 -8.67039 -2.55665 16
50 1 -7.41176 2.09624 2.86115 22
51 1 -8.78759 0.0429743 -5.3006 16
52 1 -0.786435 -8.94612 4.59028 13
53 1 8.42931 2.1633 -4.2399 15
54 1 -4.08577 -3.49512 3.07764 21
55 1 -8.30291 -6.42018 -5.58792 11
56 1 2.1116 2.32828 -9.20268 13
57 1 0.441797 4.55375 3.06406 20
58 1 -2.0772 3.65335 4.64799 22
59 1 -5.0549 2.29383 1.20792 22
60 1 4.37133 -4.14202 -3.71693 21
61 1 1.50797 10.9255 -1.37112 11
62 1 -11.4556 1.56222 2.89723 9
63 1 2.86751 9.40877 6.23264 13
64 1 3.72738 -0.888976 9.63276 15
65 1 1.0767 -8.31781 -5.34512 12
66 1 10.504 -0.241404 -3.36476 14
67 1 -2.50015 -5.98839 3.08979 24
68 1 3.16999 -9.82104 0.283408 16
69 1 5.73605 -3.18084 8.40276 13
70 1 -0.751534 -3.67969 3.42378 22
71 1 6.98508 10.0513 2.10499 10
72 1 -3.95317 -7.6091 5.26845 14
73 1 0.0188347 -9.32725 1.57019 17
74 1 -3.78013 -5.40577 0.261358 21
75 1 1.79517 -3.92978 1.12926 21
76 1 -6.0803 -4.43909 -2.42602 21
77 1 5.21251 2.25624 -7.91796 13
78 1 5.90205 -4.60622 1.35804 19
79 1 -4.17323 -1.49467 5.94725 24
80 1 -9.1897 0.497733 5.13394 14
81 1 6.59323 -8.99717 -0.604032 12
82 1 -6.02854 -4.57749 5.37532 17
83 1 0.379341 2.58725 7.31377 22
84 1 -9.92058 -1.51823 2.69144 16
85 1 -0.453208 8.49655 -1.26359 18
86 1 -7.86164 5.18853 2.17181 18
87 1 0.58442 1.35314 4.13441 22
88 1 -2.00505 4.42449 7.80489 14
89 1 -8.84351 -3.16221 -4.76043 15
90 1 0.68917 -6.76094 3.12055 21
91 1 -9.08905 3.19453 -5.06145 13
92 1 -5.28024 -1.87005 -3.90295 22
93 1 5.81956 3.96814 8.80307 11
94 1 -8.10486 6.35836 -4.46556 11
95 1 -1.06928 -2.78917 6.9003 21
96 1 -6.86359 -0.986696 -7.1245 15
97 1 -9.77309 1.72056 -2.20197 17
98 1 -1.80154 -9.33803 -3.85859 13
99 1 -3.52133 -2.49659 -1.29318 23
100 1 3.32044 2.02834 2.56562 23
101 1 -7.44585 6.4554 5.07836 12
102 1 2.85942 3.69931 5.2495 19
103 1 -2.56673 6.01819 -1.53066 20
104 1 0.499581 -5.81749 -7.30568 14
105 1 -1.21232 10.5511 1.25484 14
106 1 5.47537 1.82731 -2.72035 19
107 1 -5.8902 3.7758 -5.18283 20
108 1 -5.09369 6.56344 -3.1216 18
109 1 -2.29514 -6.81498 -6.00336 17
110 1 4.54728 -8.52961 5.84479 9
111 1 -3.51421 6.87129 -9.14226 7
112 1 -3.90868 -0.600385 9.2432 13
113 1 3.35728 0.330735 -0.436268 21
114 1 -6.82957 3.21376 5.65579 17
115 1 -1.11755 -4.39889 -2.38336 20
116 1 1.40394 -4.05702 6.41856 22
117 1 -0.498805 -5.51539 8.52481 13
118 1 -0.869946 -2.60149 -7.3313 21
119 1 7.65326 1.1872 -0.656056 18
120 1 -4.84149 4.34855 3.45594 22
121 1 6.55798 -0.961087 -8.14962 15
122 1 -0.0468723 5.63173 0.241902 21
123 1 7.54477 -5.44356 6.81006 10
124 1 -6.8442 -7.19619 -3.01769 15
125 1 -4.39327 1.04661 4.09798 23
126 1 3.2201 1.96639 11.0907 11
127 1 9.62455 4.98295 0.944758 11
128 1 -3.15967 2.72593 -6.66872 19
129 1 0.185161 5.02364 -9.2775 10
130 1 3.94551 10.571 1.26903 13
131 1 3.7276 -0.677259 -8.76321 14
132 1 0.790847 -7.52031 -1.10086 20
133 1 5.61275 2.86567 0.223003 17
134 1 5.49638 -8.94543 2.58012 13
135 1 2.53072 -9.06839 3.24773 15
136 1 -5.11279 3.92279 -9.01359 13
137 1 2.9931 4.96126 1.05405 21
138 1 9.56199 -1.07514 -0.242229 16
139 1 0.222907 2.77418 -5.63255 20
140 1 -2.59457 8.1222 -5.46195 14
141 1 3.25821 -6.42332 -4.99388 16
142 1 -0.894174 -5.60481 0.543094 21
143 1 -8.46224 -2.62953 5.69913 13
144 1 0.575157 -10.6367 -1.604 10
145 1 2.88628 -6.46036 -8.3103 9
146 1 4.75134 7.63966 1.10484 23
147 1 4.67263 -6.44934 -0.99438 20
148 1 6.68501 -2.78772 -5.11971 25
149 1 -6.29577 -2.88936 0.517585 22
150 1 -5.19753 -8.61999 -5.49597 12
151 1 0.110727 -3.00714 9.75727 18
152 1 2.14292 -1.49776 11.9176 10
153 1 8.24425 -3.62397 -8.14646 12
154 1 -4.93605 6.29488 -6.49154 16
155 1 5.07733 5.95904 -2.08346 18
156 1 5.97809 0.647264 -5.44095 18
157 1 0.667317 -0.548393 1.32878 22
158 1 -2.47973 -1.05056 -9.59131 14
159 1 -10.1751 4.47744 4.13353 10
160 1 2.84725 -4.47149 9.35434 15
161 1 6.68627 0.675606 2.86714 20
162 1 -7.95247 2.3268 -7.75252 10
163 1 8.47851 -4.76962 3.82607 16
164 1 -2.10163 -8.21504 -0.444801 20
165 1 5.84548 2.44983 5.6322 21
166 1 1.7506 -7.3303 6.12281 17
167 1 1.03469 2.27662 0.538321 24
168 1 3.81761 -2.10865 6.56802 22
169 1 6.68037 -1.11262 -2.74105 21
170 1 8.03269 3.72941 3.47114 16
171 1 7.11015 -4.17101 -1.83332 21
172 1 8.68262 0.821109 5.12623 12
173 1 -3.10807 -4.11029 -4.62257 20
174 1 4.76508 7.21192 7.66309 11
175 1 -4.85125 3.55976 -2.38851 22
176 1 -1.51144 5.81536 -7.03435 20
177 1 -1.98354 0.506493 6.49021 22
178 1 -0.792756 -6.75502 -3.38477 19
179 1 -5.61973 -8.14391 0.126582 14
180 1 5.17538 4.72477 2.87085 16
181 1 -5.1624 8.79416 5.14834 12
182 1 -7.96415 7.43615 -0.940011 10
183 1 5.69225 3.96674 -4.52467 19
184 1 0.97864 0.689857 10.1157 20
185 1 -7.48936 0.209856 0.44791 23
186 1 -3.21203 -4.75366 -8.12954 14
187 1 -3.01354 6.74387 5.11056 18
188 1 3.35263 -0.835092 -3.4693 23
189 1 4.19207 11.3437 3.97068 10
190 1 2.83165 -6.54065 1.11761 20
191 1 -2.01136 9.97858 4.49451 13
192 1 -4.11515 -0.688633 1.35422 22
193 1 5.71301 -5.61111 -6.67254 14
194 1 1.68531 -3.22834 -8.34154 16
195 1 4.1997 -5.43027 6.45228 14
196 1 -1.9095 0.246107 -6.35158 21
197 1 1.14555 -2.14043 -1.41276 23
198 1 -4.90275 5.62469 7.04173 11
199 1 8.80241 -1.69682 2.87577 15
200 1 -0.0405326 9.98808 -4.49492 10
201 1 1.38961 -1.66415 4.07342 22
202 1 7.90014 4.31533 -1.94145 16
203 1 -1.39632 -1.02405 11.1039 12
204 1 -3.29726 -3.73036 9.81634 12
205 1 -2.93404 9.16089 -2.8224 10
206 1 5.84451 8.50707 4.87737 12
207 1 -8.19505 -4.1868 2.77211 15
208 1 6.47677 -1.57265 0.404036 21
209 1 -7.97042 -5.92086 0.0172706 14
210 1 6.36077 5.41958 5.68627 14
211 1 8.98565 -6.81526 -1.87771 12
212 1 3.14239 3.28264 -1.72114 23
213 1 2.44536 6.91836 3.31155 19
214 1 -10.7174 -1.49159 -2.69877 13
215 1 0.0986023 4.01699 -2.46672 24
216 1 1.73919 7.44854 -6.97753 12
217 1 -5.10621 0.881766 -4.55085 19
218 1 4.89647 -3.50415 -8.33744 15
219 1 -3.89315 -7.16926 -3.09784 21
220 1 -1.42646 -0.0246034 -0.784763 23
221 1 -3.71346 -4.42824 6.56529 18
222 1 8.94846 -4.07713 0.590539 17
223 1 -7.66322 3.12556 -0.514074 18
224 1 -4.94069 1.08278 -9.12398 16
225 1 -9.41839 -4.99333 -2.65484 13
226 1 8.41495 -2.34688 6.23248 12
227 1 4.35366 -2.93708 -0.870207 23
228 1 -4.16739 -2.07099 -6.93956 22
229 1 -3.3805 7.8972 0.391232 16
230 1 -6.61741 -0.0872993 6.7475 16
231 1 -4.54691 0.6737 -1.51302 23
232 1 7.7298 7.09212 2.80863 14
233 1 9.34903 1.586 1.88412 15
234 1 -1.39717 -6.12087 5.93223 18
235 1 8.87462 -0.885868 -6.1803 17
236 1 3.14349 2.16787 -5.1328 17
237 1 1.08357 10.1079 3.71514 15
238 1 3.76012 9.16574 -1.5015 13
239 1 10.5274 2.20349 -1.43108 13
240 1 -1.58175 -2.75063 0.901843 22
241 1 -4.25223 2.18236 7.00009 17
242 1 8.57101 -5.55449 -5.36697 13
243 1 1.25829 -3.65311 -4.62418 22
244 1 1.76591 6.97413 8.51431 11
245 1 -7.10325 1.4353 -3.00961 21
246 1 -1.06305 7.56154 2.81219 20
247 1 -3.33487 -8.86671 2.40306 13
248 1 7.64737 -7.02214 1.34875 15
249 1 -9.35444 -3.00822 -0.0702358 17
250 1 -2.19703 4.89349 -4.67676 23
251 2 -10.4809 0.0211539 3.65851 13
252 2 6.96046 5.48456 3.5611 17
253 2 1.24182 -4.3558 8.27865 19
254 2 -5.79566 -0.24874 -2.83589 21
255 2 -9.81282 3.74855 -1.12181 11
256 2 -1.8566 -7.76047 5.30904 14
257 2 3.07554 0.179204 11.2887 11
258 2 6.77835 -1.38385 2.6191 19
259 2 -2.2234 -4.2551 -0.456267 19
260 2 -4.55418 7.36038 6.3251 10
261 2 -0.895997 5.73665 2.12185 20
262 2 7.54468 -2.92746 -3.26036 22
263 2 8.15049 -6.48384 -3.6394 14
264 2 -5.32124 -0.685771 -5.68911 19
265 2 1.69097 -5.10662 -8.84036 11
266 2 -4.08465 -3.84557 -6.28219 18
267 2 -0.831268 -5.74065 3.7224 21
268 2 -5.10311 8.50761 1.39388 14
269 2 8.59911 -2.91569 4.37391 16
270 2 2.68381 -6.88137 -0.958459 20
271 2 -0.832304 1.61287 0.218397 19
272 2 7.13756 8.80229 3.47289 11
273 2 1.53134 5.36166 9.49289 12
274 2 1.15705 9.44371 5.48628 15
275 2 2.73707 6.80636 -5.33643 13
276 2 9.34464 -2.30996 -7.21664 11
277 2 -8.81499 1.71141 -3.95541 20
278 2 0.151817 -6.6693 6.94241 14
279 2 -7.84173 3.37058 1.40228 20
280 2 5.28114 -6.41698 -5.07847 16
281 2 1.95031 -9.59798 1.55223 16
282 2 6.52131 -2.74095 -8.6801 15
283 2 -1.67254 8.06314 4.65103 16
284 2 4.84951 -1.56805 8.34089 18
285 2 -3.8389 -8.5822 0.519986 15
286 2 3.30726 -3.87192 5.64317 20
287 2 -1.46667 -9.30008 2.78474 16
288 2 1.15063 1.09234 -4.72008 19
289 2 -4.18189 -7.02072 -6.07414 15
290 2 -7.09739 -3.56153 6.61181 14
291 2 -6.80968 -7.02493 1.07456 12
292 2 -7.79347 -5.86632 -1.87896 16
293 2 -2.35735 8.80462 1.61781 17
294 2 3.45822 -2.43438 -7.95655 16
295 2 8.51575 6.44442 1.0864 12
296 2 3.59733 3.25098 -8.30888 12
297 2 -3.58695 2.17423 -2.22589 21
298 2 -5.96784 2.57973 -3.86397 19
299 2 6.60977 1.25599 1.10898 21
300 2 -0.0800307 10.1253 -0.388146 13
301 2 -6.49532 7.85213 4.07774 14
302 2 1.31313 4.13944 0.984687 21
303 2 3.24328 10.7538 -0.613494 11
304 2 -3.03711 7.2507 -7.26216 11
305 2 -0.834103 3.4655 8.94344 14
306 2 -3.22207 2.10995 5.17283 21
307 2 2.74535 -2.70686 10.2713 14
308 2 1.89086 -7.08389 -6.62264 12
309 2 -0.879694 -10.5521 -2.87477 11
310 2 -5.92628 -2.06283 -8.38929 14
311 2 -3.02396 -0.881536 -0.564706 21
312 2 -1.16351 4.70696 -1.02974 22
313 2 -9.81414 -3.25081 -2.09238 16
314 2 8.86837 -4.99134 -1.08252 15
315 2 5.45043 7.2415 6.07144 12
316 2 0.399449 -1.81469 -8.45418 14
317 2 0.579748 -3.76287 -6.42242 16
318 2 3.92425 -0.0339518 -5.31751 22
319 2 -6.9255 -5.43205 -6.40266 12
320 2 -1.12073 2.26689 -6.72458 19
321 2 10.4283 -1.62542 -4.81512 11
322 2 -5.36792 -2.05563 2.14094 21
323 2 -1.5041 -5.76973 -7.40549 13
324 2 0.0318159 -2.91208 -2.91675 24
325 2 5.41549 2.34839 -5.98319 16
326 2 -1.57774 -5.18905 -4.12242 20
327 2 2.29647 0.470335 -9.03323 12
328 2 -0.705601 10.4877 3.0628 14
329 2 -7.91212 -4.10978 0.856615 17
330 2 -6.09481 1.74047 6.6841 15
331 2 -5.80991 5.4393 2.2457 20
332 2 -8.40849 -2.57053 3.77807 16
333 2 -4.34812 -3.76619 8.32289 14
334 2 -9.36594 4.68169 -4.12307 10
335 2 3.43871 -7.05597 6.41542 13
336 2 7.57244 -0.733045 -1.0519 22
337 2 -0.873228 -1.09633 -5.66657 20
338 2 0.905846 8.11509 2.69557 20
339 2 0.658064 7.02063 6.96811 12
340 2 0.301514 -1.83708 11.523 11
341 2 -8.39805 5.39851 3.97696 14
342 2 2.35761 1.9728 4.3506 20
343 2 -9.23013 -1.29446 -3.96869 18
344 2 4.78527 -2.11667 -2.59877 22
345 2 9.52294 3.49191 2.18499 11
346 2 -7.13664 0.195236 2.37161 21
347 2 -1.61933 5.78845 -9.06703 11
348 2 4.59805 -5.37525 -8.07402 12
349 2 -8.71855 6.70636 -2.62379 9
350 2 0.662972 -7.16303 1.19407 21
351 2 6.89697 0.721611 -3.65993 21
352 2 5.53323 -8.24025 -2.11127 15
353 2 4.3253 -8.85988 4.05725 11
354 2 -2.29317 8.07287 -1.32006 17
355 2 0.0944727 -5.8888 -1.94903 21
356 2 -2.36518 -6.64389 1.02627 22
357 2 2.96737 8.19557 7.69303 12
358 2 1.02608 9.82863 -2.90558 12
359 2 -2.13398 -1.38055 5.66281 22
360 2 -1.73875 -4.48719 6.87872 20
361 2 -0.539415 2.89254 3.70361 23
362 2 -4.23443 -3.23764 4.99724 21
363 2 2.15057 3.70233 -5.73927 19
364 2 2.30303 -2.41743 2.50004 20
365 2 10.2847 -1.60225 -2.13514 14
366 2 2.13397 0.177146 8.69786 21
367 2 -7.86769 -1.68897 -0.113472 20
368 2 3.56327 4.97864 -0.87821 23
369 2 4.41327 9.89071 5.12486 14
370 2 2.14695 -1.9278 -4.79543 20
371 2 -6.51983 -5.0509 3.68442 17
372 2 1.5181 2.54918 11.0195 14
373 2 -1.12974 0.211627 -3.00469 23
374 2 -5.61697 3.25674 -0.445627 21
375 2 4.10361 2.97939 9.62058 15
376 2 2.14246 0.973062 1.13462 19
377 2 0.409946 3.17273 -9.19752 14
378 2 5.1756 -3.60922 2.94212 18
379 2 2.2807 3.21142 7.17126 22
380 2 8.21483 -6.09054 5.15644 10
381 2 -0.180793 -3.93904 1.4861 21
382 2 -2.98034 2.77617 1.12667 22
383 2 -10.8491 0.064077 -1.7211 13
384 2 -1.75148 9.38005 -4.35081 11
385 2 -4.78407 5.55562 -8.54401 12
386 2 -2.2439 -2.44804 2.77866 21
387 2 -4.71311 -5.98057 6.21332 14
388 2 5.43302 10.7076 2.66737 11
389 2 -7.9729 -2.67713 -6.48468 15
390 2 9.08526 0.416742 3.29477 14
391 2 -5.96147 6.36311 -1.55939 18
392 2 7.99586 -5.14799 1.83095 16
393 2 -4.53991 -7.4759 3.52642 15
394 2 -6.945 -7.62284 -4.76368 12
395 2 1.13921 5.81958 -3.13503 20
396 2 -7.91632 6.89675 0.849922 11
397 2 4.40455 3.63836 1.53739 19
398 2 -1.50823 -4.29848 9.51188 13
399 2 -10.841 3.43597 2.83277 10
400 2 -1.02387 6.34909 -5.17325 20
401 2 -1.01214 0.584685 10.3383 16
402 2 -7.52967 3.43951 -6.27445 16
403 2 6.49029 8.47525 0.863955 12
404 2 -4.0214 4.0785 7.59327 15
405 2 -0.112805 0.870619 6.28588 22
406 2 1.21287 2.58296 -1.46231 22
407 2 2.16071 -0.530761 -1.91762 22
408 2 -3.35887 1.27621 -5.26109 23
409 2 -3.82588 4.45802 -5.90524 22
410 2 -3.22482 -2.52861 -3.37143 20
411 2 -4.49108 -0.518042 -10.1129 11
412 2 2.35529 -0.947139 5.63689 22
413 2 1.74351 5.23361 4.29703 18
414 2 9.41942 3.85343 -0.771561 13
415 2 2.10225 -5.42343 2.63174 19
416 2 6.69888 2.72455 -1.47717 21
417 2 4.68768 3.83817 4.82791 19
418 2 -5.22625 0.433272 0.311803 24
419 2 -1.06685 3.42945 -4.03226 21
420 2 -3.20041 0.992196 8.17174 17
421 2 -9.14074 -5.05918 -4.49235 12
422 2 2.49015 -3.63364 -0.840715 24
423 2 1.02344 7.22598 -0.605556 21
424 2 -8.35694 2.1469 4.55595 18
425 2 -5.38179 -0.24267 5.00393 24
426 2 -2.04345 -7.52096 -2.10482 20
427 2 4.72214 5.43743 8.45211 13
428 2 4.1954 2.99705 -3.65835 20
429 2 -1.37463 0.414908 -9.17866 16
430 2 4.88592 5.68155 -4.1671 17
431 2 2.49903 -8.11533 -4.08723 15
432 2 6.6128 3.99353 7.04996 13
433 2 4.00886 6.29121 2.40369 16
434 2 1.49739 5.84354 -8.03759 13
435 2 -6.48576 2.54159 -9.04641 8
436 2 -4.14175 -3.71855 -9.32281 11
437 2 -6.81433 -2.77048 -2.92538 19
438 2 -3.84923 9.95495 4.02302 12
439 2 0.815867 8.5779 -5.68292 12
440 2 -3.81033 7.73637 -3.86819 14
441 2 -6.22025 5.04889 5.8584 16
442 2 -0.28199 -1.48679 -0.191061 21
443 2 5.24827 0.268323 -8.11089 14
444 2 7.4056 -4.20874 -6.44799 17
445 2 -3.91529 -5.23202 2.18425 23
446 2 -6.23856 5.78452 -4.85127 15
447 2 -2.53909 -1.41316 -7.64544 17
448 2 -4.85174 -5.33873 -3.69453 21
449 2 5.20281 -1.48936 5.50585 20
450 2 -5.56433 2.5644 3.0663 24
451 2 -3.65597 -8.81941 -4.19485 14
452 2 -8.2235 -0.807451 5.98795 14
453 2 4.44997 -0.990013 0.424821 21
454 2 6.4218 -8.51072 5.71589 9
455 2 -11.0846 1.26982 0.918124 13
456 2 -3.08849 -1.78338 10.2379 12
457 2 1.15639 -8.33223 4.30718 16
458 2 8.01184 -0.404696 6.59558 12
459 2 2.58059 -5.01428 -3.79616 22
460 2 -3.49134 5.867 0.0395967 21
461 2 -7.75713 0.550741 -6.90672 13
462 2 -5.2742 -1.26199 7.92618 16
463 2 4.35843 -4.65686 8.21229 12
464 2 4.28833 1.90253 -1.05268 20
465 2 7.05118 -0.700689 -6.26947 19
466 2 4.71943 1.08682 6.76586 20
467 2 -3.67004 5.14622 -2.94351 22
468 2 7.01835 -3.59745 6.94341 15
469 2 5.02488 -3.66855 -5.51614 20
470 2 -4.99345 -3.79439 -0.698141 20
471 2 -2.96461 0.316168 2.73368 25
472 2 9.89321 -4.26347 -4.82937 13
473 2 4.69915 -5.77459 0.764042 22
474 2 6.20593 -3.49601 -0.269716 21
475 2 5.47772 -5.23656 -2.53242 23
476 2 -0.770972 4.0663 6.14502 18
477 2 7.53806 3.73748 -3.87456 14
478 2 -10.2487 -1.86887 0.952411 15
479 2 4.6241 0.545088 3.18959 21
480 2 -7.95126 1.27076 -1.19176 21
481 2 7.2288 -8.1007 2.80484 12
482 2 4.10154 7.53474 -2.44362 15
483 2 9.62197 0.861599 -0.0856993 15
484 2 6.93738 5.95606 -1.3622 15
485 2 0.338784 -3.19761 4.99303 22
486 2 5.08065 -9.51859 0.744487 16
487 2 9.26895 -2.46047 1.11791 15
488 2 2.386 -9.9199 -1.42657 12
489 2 -0.870131 -7.81384 -4.90486 15
490 2 3.34327 8.75936 0.405648 18
491 2 2.77262 10.6259 2.78664 14
492 2 -0.154956 -9.4597 -0.25045 16
493 2 0.149203 -2.01894 8.1977 21
494 2 -3.16083 5.17447 3.91421 19
495 2 7.27816 2.16014 4.44851 18
496 2 9.85188 1.55034 -3.18255 15
497 2 -0.0151429 -0.30294 3.22018 21
498 2 -3.61971 2.41775 -8.52383 14
499 2 -5.54976 -7.59378 -1.71326 16
500 2 7.93544 -7.62363 -0.481076 15
