ITEM: TIMESTEP
1847000
ITEM: NUMBER OF ATOMS
500
ITEM: BOX BOUNDS pp pp pp
-30.0 30.0
-30.0 30.0
-30.0 30.0
ITEM: ATOMS id type x y z Coordination
1 1 -2.54982 1.59314 -3.41167 24
2 1 3.85573 -4.65859 3.45577 17
3 1 -0.0736796 4.20003 10.0695 12
4 1 3.93152 -1.53486 2.32017 23
5 1 -7.84683 2.80576 -0.539101 21
6 1 -1.08765 -1.78654 -3.91985 21
7 1 1.42322 0.023091 6.78417 19
8 1 3.45088 -3.10541 -6.34203 22
9 1 -10.3291 3.91516 -2.387 11
10 1 2.38547 -0.527403 -8.71877 16
11 1 5.97586 -6.7179 -3.69053 17
12 1 6.38566 -0.108039 6.60065 16
13 1 2.27992 4.75685 -7.20709 15
14 1 -1.01095 8.47254 6.20259 11
15 1 0.20008 5.3448 6.04402 18
16 1 -6.47777 -1.67729 3.29719 20
17 1 -11.5658 -1.21582 -0.219637 12
18 1 9.52173 -2.87397 -3.35019 16
19 1 3.91027 1.47766 7.70741 21
20 1 -5.83243 -6.86065 3.03968 18
21 1 -5.06151 -5.32284 -7.30703 12
22 1 2.86629 -0.216271 -5.59832 21
23 1 10.6302 -3.04617 -6.35857 9
24 1 8.29098 -7.50219 3.65201 11
25 1 -4.41276 7.61526 1.96347 21
26 1 3.8147 0.585089 5.04872 20
27 1 1.12128 8.6096 0.515835 20
28 1 0.962542 0.543504 -2.87203 22
29 1 -2.22831 -4.35807 -7.73751 13
30 1 -2.62636 2.11042 9.59938 14
31 1 6.38285 -2.08833 3.73293 21
32 1 -7.1339 7.82739 1.58681 15
33 1 -2.89163 4.8664 2.13126 21
34 1 3.47336 5.98606 -4.4401 17
35 1 7.49465 7.15878 -0.786602 12
36 1 0.525922 5.94829 -4.83539 20
37 1 2.47972 -5.15264 -1.6578 22
38 1 -1.50876 6.75612 -7.26567 18
39 1 -2.38666 2.90263 -0.756266 22
40 1 -0.735492 7.32785 -2.22761 23
41 1 2.32461 6.78896 -1.52994 20
42 1 -11.5588 4.87853 2.03721 7
43 1 2.48393 4.54109 7.89508 19
44 1 -3.68619 1.04638 -9.29955 11
45 1 -5.9623 -3.3328 7.94605 13
46 1 -1.89213 1.52013 2.06843 23
47 1 -1.88059 -0.9237 3.71375 22
48 1 -6.63859 -1.85131 -2.43996 23
49 1 3.34695 -8.15214 -2.15976 21
50 1 -7.20434 1.17885 2.72053 21
51 1 -8.39145 -0.891458 -5.03835 16
52 1 -0.424933 -9.22475 4.33958 13
53 1 8.38649 3.07487 -4.52704 12
54 1 -4.09964 -3.68744 3.5864 21
55 1 -7.76687 -7.11921 -5.52332 10
56 1 1.56489 2.73551 -9.7703 10
57 1 0.0671241 4.35763 2.85911 23
58 1 -2.50089 3.37751 4.818 23
59 1 -4.81053 2.2561 1.07597 22
60 1 4.61798 -4.12411 -3.51058 23
61 1 0.226768 10.6269 -1.78568 14
62 1 -12.1058 0.851672 2.57554 10
63 1 2.05637 8.90188 6.08163 13
64 1 5.77299 -0.340028 10.0076 10
65 1 1.21609 -9.53784 -4.25809 12
66 1 10.3655 0.260738 -4.25418 11
67 1 -2.67654 -6.78456 3.69433 20
68 1 4.3492 -10.1119 0.762263 12
69 1 6.21846 -2.80359 8.02006 14
70 1 -1.11915 -4.20002 3.26235 23
71 1 6.14536 9.66268 1.44547 10
72 1 -4.79952 -7.40508 5.75427 11
73 1 0.782401 -9.59556 1.22996 16
74 1 -3.62397 -5.6113 0.618767 23
75 1 1.47796 -3.7852 1.38952 21
76 1 -5.2816 -5.30551 -2.38859 19
77 1 5.21682 3.8166 -5.28526 16
78 1 6.48004 -4.37783 1.62254 19
79 1 -4.24939 -1.63129 5.90869 19
80 1 -9.85309 0.587182 4.88758 11
81 1 5.90651 -9.4685 -1.66957 10
82 1 -7.04258 -5.35108 6.00576 11
83 1 -0.317473 2.77979 7.0374 22
84 1 -9.64081 -1.3017 2.65686 16
85 1 -2.34963 8.9153 0.0449892 21
86 1 -9.18588 5.35676 0.394568 17
87 1 0.27374 1.29752 4.30719 23
88 1 -2.59782 4.60687 7.69959 16
89 1 -7.48864 -4.07371 -4.86641 17
90 1 0.713718 -6.48439 2.76615 20
91 1 -8.72447 2.45217 -4.86618 14
92 1 -4.09611 -3.49679 -4.86783 20
93 1 5.45071 4.34126 8.33333 12
94 1 -5.94952 5.03004 0.740352 24
95 1 -1.56079 -3.17218 6.09712 18
96 1 -5.93986 -1.92534 -7.12054 12
97 1 -9.64695 0.506302 -2.21854 18
98 1 -0.775916 -9.58069 -1.68487 15
99 1 -3.24999 -2.59722 -1.65348 22
100 1 3.1486 1.80579 2.23957 20
101 1 -8.0951 5.7823 3.40764 16
102 1 2.27681 3.46595 4.91175 19
103 1 -2.92129 5.77937 -1.13432 23
104 1 -0.0392441 -7.75842 -6.9366 13
105 1 -0.24286 11.0649 1.93848 12
106 1 5.63063 2.0249 -2.72306 19
107 1 -5.3436 2.65437 -5.13141 19
108 1 -6.23461 9.74389 -3.78151 10
109 1 -1.74913 -9.21948 -4.56302 12
110 1 5.43243 -7.87523 5.53132 11
111 1 -4.52167 5.43254 -6.51565 13
112 1 -5.02637 -0.282334 8.93835 12
113 1 3.44521 0.413963 -0.0653287 23
114 1 -7.75815 2.82485 5.66776 13
115 1 -0.839776 -4.27159 -2.42337 22
116 1 1.31954 -4.67369 5.05259 21
117 1 1.11989 -5.19022 8.24943 13
118 1 0.311547 -5.10402 -5.89945 21
119 1 7.81922 1.66554 -0.136227 20
120 1 -5.37758 4.2016 3.77506 21
121 1 5.71588 -1.06578 -7.66857 16
122 1 -0.212054 5.7673 0.447466 23
123 1 7.76298 -5.5666 6.22146 11
124 1 -6.16609 -7.99012 -2.56031 14
125 1 -4.44929 0.913213 4.26152 21
126 1 3.12255 2.5483 10.353 13
127 1 9.56923 4.8001 0.563566 14
128 1 -3.05172 2.11331 -6.6908 19
129 1 0.239034 5.74452 -9.69109 11
130 1 3.48064 10.3292 -0.959566 12
131 1 4.08222 1.94664 -7.56929 16
132 1 2.80215 -7.05812 0.91615 23
133 1 5.39844 2.97348 0.324098 17
134 1 8.06202 -8.24383 0.366626 12
135 1 2.84049 -8.86164 3.46448 16
136 1 -3.35902 4.61632 -9.29668 11
137 1 2.89972 4.69867 0.657134 19
138 1 9.85275 -0.650196 -0.757931 15
139 1 -0.553891 3.37765 -5.88282 18
140 1 -4.06607 8.5669 -5.85356 11
141 1 2.78515 -6.60775 -5.0239 22
142 1 -0.251698 -6.16459 -0.0373987 23
143 1 -8.48655 -2.36056 5.90268 12
144 1 2.18037 -10.8445 -1.29576 11
145 1 2.08004 -5.43914 -8.2031 14
146 1 4.3624 7.48196 0.670543 18
147 1 5.35676 -6.34791 -0.850413 21
148 1 6.68108 -2.73212 -5.11663 24
149 1 -6.23096 -3.41875 0.633969 24
150 1 -5.03237 -8.26765 -5.56808 9
151 1 0.468841 -2.45269 9.75602 14
152 1 2.89853 -0.462002 9.91559 14
153 1 7.72679 -3.94812 -8.36176 14
154 1 -7.51332 4.83729 -2.89319 17
155 1 5.08847 4.75299 -2.19226 19
156 1 6.01577 0.589257 -5.22934 17
157 1 0.694221 -0.698736 1.38292 20
158 1 -0.602316 0.0268437 -9.26402 17
159 1 -9.50376 3.0996 2.59483 17
160 1 3.66103 -3.62436 9.5012 11
161 1 6.06801 0.922221 2.75362 25
162 1 -6.67832 1.05326 -7.42999 12
163 1 9.13824 -4.48638 3.34041 14
164 1 -2.31132 -8.63979 0.972465 18
165 1 5.85432 2.99512 5.46375 18
166 1 1.98277 -8.0255 6.14542 13
167 1 0.679056 2.33047 -0.0234467 22
168 1 3.75853 -2.36787 5.93078 20
169 1 7.48853 -0.744873 -2.9275 20
170 1 7.67052 3.62326 2.79133 18
171 1 7.04015 -3.83871 -1.88424 21
172 1 8.48773 0.940376 4.32883 16
173 1 -2.58626 -6.26438 -4.96921 19
174 1 4.60558 7.49054 7.56508 11
175 1 -4.69993 3.68803 -2.13604 23
176 1 -2.84454 4.87117 -4.38849 24
177 1 -2.13007 0.465625 6.68923 20
178 1 0.163857 -6.92406 -3.082 22
179 1 -5.43666 -8.69915 -0.0114021 12
180 1 4.7315 4.79411 3.07872 21
181 1 -6.27701 7.99194 4.68982 12
182 1 -7.46765 7.98477 -1.4042 12
183 1 7.05721 6.32287 -3.64034 9
184 1 0.409512 0.986024 10.3448 14
185 1 -7.50397 -0.161405 0.254124 20
186 1 0.100665 -3.1608 -9.83028 9
187 1 -3.48976 6.40781 4.89089 19
188 1 3.80454 -0.997874 -2.94064 21
189 1 2.65349 9.72072 2.90894 17
190 1 5.69867 -7.67598 1.96389 17
191 1 -3.20811 9.81205 3.78905 12
192 1 -4.16153 -0.952712 1.29008 22
193 1 5.42073 -5.40496 -6.63069 17
194 1 1.83087 -3.18567 -4.18647 23
195 1 4.37606 -5.23854 6.65556 17
196 1 0.0427183 0.422919 -5.91812 19
197 1 1.26196 -2.03087 -1.32786 23
198 1 -5.93247 5.34639 6.7905 11
199 1 9.14284 -1.31887 2.54662 18
200 1 -0.978894 9.65973 -4.91158 11
201 1 1.19816 -1.70033 4.19092 21
202 1 8.2465 4.03615 -1.89136 18
203 1 -2.23217 -0.713543 10.2714 11
204 1 -3.34454 -3.29592 10.124 8
205 1 -2.89368 9.27192 -3.0133 16
206 1 5.08269 7.89595 4.27639 15
207 1 -8.05287 -4.53466 3.17472 15
208 1 6.8126 -1.19352 0.598764 22
209 1 -7.00024 -5.92569 0.132549 17
210 1 6.61269 5.71129 5.55557 14
211 1 9.10775 -5.92059 -2.1772 14
212 1 2.72976 3.48002 -1.94173 22
213 1 2.03161 6.95332 3.33833 18
214 1 -10.1157 -2.71283 -2.69722 13
215 1 -0.260904 3.90234 -2.47563 25
216 1 1.18903 8.22194 -7.19171 11
217 1 -4.28961 -0.441724 -4.50975 20
218 1 4.55212 -3.48412 -9.10856 12
219 1 -2.93339 -7.27371 -2.05693 22
220 1 -1.63541 -0.13343 -0.959765 25
221 1 -3.76985 -5.00212 6.73693 14
222 1 9.16658 -3.32649 0.118075 17
223 1 -11.263 1.97114 -0.106083 15
224 1 -1.33321 2.97912 -10.3568 10
225 1 -8.56366 -5.54355 -2.64882 13
226 1 8.43091 -2.22332 5.81115 13
227 1 4.4208 -2.89351 -0.345178 20
228 1 -2.5426 -1.69984 -7.24047 19
229 1 -5.31171 10.2122 -0.68302 11
230 1 -6.72269 -0.156001 6.31199 18
231 1 -4.62018 0.292965 -1.33577 23
232 1 7.23457 6.67855 2.43283 15
233 1 10.5333 1.9949 1.61618 13
234 1 -0.806441 -6.4602 5.99246 16
235 1 8.59231 -0.702977 -6.88803 12
236 1 2.52535 2.78549 -4.79962 18
237 1 -0.13821 11.0508 4.75529 11
238 1 2.04726 8.97868 -4.01308 15
239 1 10.2936 2.28599 -2.02184 14
240 1 -1.71592 -2.61529 0.719142 20
241 1 -4.56041 2.23703 7.02081 20
242 1 8.42333 -5.31741 -5.31042 16
243 1 0.39453 -2.45274 -6.96394 22
244 1 1.15323 7.27439 8.39089 11
245 1 -6.8219 1.20052 -2.94091 21
246 1 -1.12749 7.67445 2.9236 20
247 1 -3.8053 -9.60918 3.10962 10
248 1 9.85923 -6.31694 0.94181 11
249 1 -8.87233 -3.15649 0.157119 15
250 1 -4.76119 7.0773 -3.33342 16
251 2 -10.8327 -0.147838 3.51681 12
252 2 6.67812 5.28643 3.61816 16
253 2 1.74683 -3.66519 9.21088 11
254 2 -5.50715 -0.364984 -2.84434 21
255 2 -10.929 5.39034 0.507249 9
256 2 -4.88503 -8.31765 4.13233 11
257 2 4.35004 0.991001 10.0094 13
258 2 7.1699 -0.712051 2.32773 21
259 2 -1.90809 -3.81234 -1.02389 20
260 2 -5.37991 6.79765 5.83862 11
261 2 -1.17659 5.84128 2.44671 22
262 2 7.39731 -2.80076 -3.43409 18
263 2 7.83651 -6.04884 -3.55412 17
264 2 -3.80869 1.33724 -4.82182 21
265 2 1.57875 -3.76507 -6.076 22
266 2 -3.05123 -2.27535 -3.58097 23
267 2 -2.02787 -8.64887 3.37759 17
268 2 -5.7353 8.86527 0.831769 14
269 2 8.42221 -2.78738 3.8888 18
270 2 3.38278 -6.79778 -0.875424 24
271 2 -1.02556 1.33065 0.182949 21
272 2 5.96741 8.07222 2.58004 15
273 2 0.916855 5.65551 9.10018 13
274 2 0.476319 9.94218 6.10054 11
275 2 2.11831 6.82685 -5.94447 15
276 2 8.7607 -2.78586 -7.4444 11
277 2 -8.5931 0.748215 -4.08748 17
278 2 1.89746 -5.98685 6.67053 14
279 2 -8.16892 2.39133 1.30901 19
280 2 5.02731 -6.74703 -5.28257 15
281 2 2.50765 -10.2939 0.523912 13
282 2 6.24336 -2.65364 -8.54101 14
283 2 -2.19872 7.96131 4.82332 17
284 2 6.58916 -0.887784 8.46305 13
285 2 -4.13968 -9.30508 1.13369 14
286 2 3.27619 -4.15486 5.34388 15
287 2 1.00721 -8.47307 3.02401 16
288 2 1.71104 0.96112 -4.80892 20
289 2 -1.05382 -5.9087 -6.95136 14
290 2 -7.59443 -3.75789 6.85347 11
291 2 -6.18075 -7.18629 1.24601 16
292 2 -7.18346 -6.41267 -1.78325 17
293 2 -2.61535 8.47522 1.87535 19
294 2 3.707 -1.94825 -8.21484 18
295 2 8.23166 6.20844 0.712933 11
296 2 3.62245 3.51088 -6.29754 16
297 2 -3.63899 1.91593 -1.81941 24
298 2 -6.10226 3.04824 -3.22507 21
299 2 6.63442 2.37529 1.60905 22
300 2 0.0092187 10.3418 0.0278607 16
301 2 -7.46784 7.59719 3.39335 12
302 2 0.956468 4.08283 0.949231 22
303 2 2.16509 10.0534 -2.41812 12
304 2 -2.08495 8.50435 -6.08683 14
305 2 -1.41801 3.42133 8.64051 18
306 2 -3.30978 1.72735 5.66666 24
307 2 4.33634 -1.80986 9.78747 13
308 2 1.58914 -6.42419 -6.59579 17
309 2 0.805682 -10.298 -2.52097 13
310 2 -4.30276 -1.76865 -6.1057 19
311 2 -3.1293 -1.28516 -0.358475 19
312 2 -1.30687 4.54198 -0.724068 22
313 2 -9.48064 -4.19498 -1.48595 15
314 2 9.24979 -3.94567 -1.70296 17
315 2 5.69189 7.11643 5.93426 13
316 2 0.762263 -1.34474 -9.65637 11
317 2 1.02343 -4.538 -9.46556 13
318 2 5.75153 0.0565398 -3.28799 19
319 2 -6.02109 -6.73296 -6.32986 12
320 2 1.48075 -0.727859 -6.93924 18
321 2 10.4064 -1.05927 -6.05212 9
322 2 -5.388 -2.76712 2.18578 20
323 2 -1.21015 -2.92644 -8.26722 15
324 2 0.364595 -2.70967 -3.04019 23
325 2 4.12309 3.56777 -3.4951 18
326 2 -0.0689851 -9.07546 -5.65537 14
327 2 -0.0481925 1.80759 -9.68964 13
328 2 -1.53234 10.6645 3.35054 13
329 2 -7.97769 -4.43977 1.22243 17
330 2 -6.44329 1.77906 6.92551 15
331 2 -6.59086 4.94558 2.4821 21
332 2 -7.83827 -2.87312 4.07468 15
333 2 -4.31153 -4.26929 8.59814 13
334 2 -10.7466 2.09876 -1.84818 13
335 2 3.50015 -8.41326 5.2035 11
336 2 7.69334 -0.272928 -0.682851 20
337 2 -1.03131 -1.49743 -5.95904 21
338 2 0.762843 8.15098 2.37149 21
339 2 -0.00156725 7.10749 6.83477 13
340 2 1.08841 -0.762953 10.2811 14
341 2 -9.55133 4.95841 2.47725 15
342 2 2.20487 1.60165 4.15591 19
343 2 -8.71258 -2.55023 -4.01648 14
344 2 4.46328 -2.60846 -2.2788 21
345 2 9.2614 3.39876 1.7993 15
346 2 -7.92324 -0.696108 2.25185 21
347 2 -1.35645 5.68876 -5.58513 19
348 2 4.03483 -4.90195 -8.03456 14
349 2 -8.65137 4.38911 -1.10886 17
350 2 2.52655 -5.39102 2.3237 21
351 2 6.55977 2.49156 -4.89768 17
352 2 5.34799 -7.88407 -2.43671 15
353 2 3.96723 -8.51194 1.94705 18
354 2 -3.42662 10.0674 -1.15637 14
355 2 0.48949 -5.69041 -1.75678 21
356 2 0.813502 -7.30615 0.900874 19
357 2 2.77675 8.09603 7.60975 10
358 2 -0.892757 9.62674 -2.96068 14
359 2 -2.33838 -1.10375 5.67927 18
360 2 -0.651283 -5.91938 4.2189 20
361 2 -0.851578 2.71031 3.68117 23
362 2 -3.59165 -3.31452 5.66668 18
363 2 1.38871 4.48241 -8.82312 14
364 2 2.0834 -2.14403 2.49647 23
365 2 9.51517 -0.789829 -3.04122 16
366 2 2.26202 0.546034 8.37391 18
367 2 -7.30663 -2.20623 -0.731485 21
368 2 3.25588 5.13957 -1.28761 21
369 2 3.12554 8.50271 4.38295 14
370 2 3.26737 -1.85253 -4.62773 22
371 2 -7.18597 -5.78907 4.19586 12
372 2 1.14702 2.76376 10.5926 14
373 2 -1.2062 -0.0293303 -2.85717 23
374 2 -5.91358 3.54874 -0.513702 22
375 2 3.68935 3.31803 8.72343 13
376 2 1.70277 0.87662 0.895842 23
377 2 2.53689 1.43008 -8.75665 14
378 2 5.20535 -3.33323 2.81232 17
379 2 1.40505 3.64775 6.51941 21
380 2 8.66074 -5.8646 4.42205 13
381 2 -0.0892792 -4.65155 1.4809 20
382 2 -2.99634 2.93274 1.18156 25
383 2 -10.845 -1.01867 -2.05206 14
384 2 -4.52056 9.34576 -4.06669 13
385 2 -3.25869 5.85519 -7.86843 14
386 2 -2.32573 -2.90785 2.9466 21
387 2 -3.01338 -6.57267 5.81994 18
388 2 4.00558 9.86301 1.39253 13
389 2 -6.62141 -3.61979 -6.61537 13
390 2 9.78724 0.570294 2.89418 15
391 2 -6.61974 9.50886 -1.92908 11
392 2 9.46334 -4.53483 1.51239 14
393 2 -5.5751 -5.97113 6.72576 11
394 2 -6.56262 -8.41095 -4.41702 11
395 2 0.244746 5.74632 -2.88635 21
396 2 -8.10751 6.94932 0.290552 14
397 2 4.04425 3.4795 1.68537 20
398 2 -0.453429 -4.75139 6.96388 15
399 2 -11.3536 2.83226 1.83725 12
400 2 -2.46947 7.55474 -1.52904 18
401 2 -1.40632 0.971774 10.2334 13
402 2 -9.01665 4.07113 -3.82057 12
403 2 6.16462 8.44486 -0.137974 10
404 2 -4.25662 4.31038 6.94822 15
405 2 -0.213804 0.886288 6.22061 19
406 2 1.14614 2.51114 -2.03475 22
407 2 2.46591 -0.404653 -1.79115 22
408 2 -7.13393 2.29181 -6.00885 12
409 2 -1.18743 1.65144 -6.34722 18
410 2 -2.29439 -6.86321 -0.0146292 20
411 2 -4.00899 3.84498 -5.79086 18
412 2 2.41815 -0.993321 5.62112 18
413 2 1.20201 5.48953 4.31027 18
414 2 9.92514 3.98795 -1.23156 13
415 2 6.43406 -7.73445 3.87184 13
416 2 6.90525 2.78994 -1.35634 21
417 2 4.12967 3.7497 4.57731 21
418 2 -5.32394 0.409416 0.444594 25
419 2 -1.45143 3.21791 -3.86689 22
420 2 -3.53013 0.988945 8.22058 18
421 2 -8.70028 -5.67485 -4.56972 12
422 2 2.30488 -3.54473 -0.381258 23
423 2 0.463974 7.13008 -0.618622 23
424 2 -9.29034 2.3438 4.47823 14
425 2 -5.54437 -0.725885 4.66636 21
426 2 -1.47243 -8.24384 -2.86987 18
427 2 4.09615 5.68439 8.20161 12
428 2 1.27454 4.19025 -5.51096 19
429 2 -1.57003 4.94198 -10.0045 10
430 2 5.45411 5.87595 -4.46885 12
431 2 2.05589 -7.98379 -3.74291 20
432 2 6.24579 4.34914 6.67541 14
433 2 3.30488 6.24436 1.91415 23
434 2 0.078906 7.00158 -8.2898 12
435 2 -4.9582 1.31783 -8.05687 14
436 2 -3.61342 -4.45015 -6.35407 16
437 2 -5.93848 -3.48058 -3.30326 20
438 2 -4.74342 8.60705 3.65544 13
439 2 0.796411 9.11094 -5.53043 11
440 2 -4.93124 6.82303 -5.32991 14
441 2 -6.83514 4.40419 5.23279 17
442 2 -0.286604 -1.4945 -0.068297 22
443 2 4.56228 0.281461 -6.57279 20
444 2 7.451 -5.20667 -6.95883 14
445 2 -4.09169 -5.63732 2.72119 21
446 2 -6.55592 6.54861 -2.59781 16
447 2 -2.58993 -0.322103 -8.97379 13
448 2 -0.90072 -5.57404 -4.09953 25
449 2 5.56586 -1.70616 5.66415 20
450 2 -5.54787 2.05161 3.13085 24
451 2 -3.89886 -5.90525 -3.58631 21
452 2 -8.53864 -0.406223 5.76619 15
453 2 4.71153 -1.08278 0.483311 20
454 2 5.92976 -6.20947 6.38715 12
455 2 -11.8691 0.282788 0.668105 10
456 2 -4.06046 -1.54764 9.96662 10
457 2 0.0654413 -8.18492 5.9383 15
458 2 8.19022 -0.314907 5.77357 15
459 2 2.71079 -5.04214 -3.79107 24
460 2 -4.21458 5.84214 0.992516 21
461 2 -7.42837 -0.729574 -6.85703 12
462 2 -5.80676 -1.43633 7.56266 15
463 2 4.46796 -3.74238 7.74907 13
464 2 4.24524 2.11156 -1.00751 20
465 2 7.04615 -1.01865 -5.84376 17
466 2 5.1199 1.47599 6.32049 21
467 2 -3.89571 5.21465 -2.78056 22
468 2 7.46796 -3.71745 6.74921 14
469 2 5.13441 -3.72489 -5.42425 24
470 2 -5.16309 -4.69371 -0.252204 20
471 2 -3.14198 0.177505 2.58949 23
472 2 9.64754 -3.93497 -4.89513 15
473 2 5.6215 -5.93618 0.977649 18
474 2 6.5183 -3.03004 0.214499 20
475 2 5.58695 -5.06588 -2.25506 20
476 2 -1.49761 4.31657 6.08677 20
477 2 8.32938 4.82248 -3.88559 13
478 2 -10.3732 -2.11737 0.94382 13
479 2 4.32358 0.374773 3.19468 23
480 2 -7.90269 0.895786 -1.28572 19
481 2 8.80953 -7.63642 1.86961 11
482 2 2.80467 7.41891 -3.37845 15
483 2 9.85099 1.37374 -0.235971 16
484 2 6.5351 5.74488 -1.69907 16
485 2 0.0284482 -3.0497 4.82742 20
486 2 6.23304 -8.85905 0.194456 15
487 2 9.92492 -1.79243 0.729363 15
488 2 4.04573 -9.71337 -1.25062 13
489 2 -3.17212 -8.46786 -5.25616 13
490 2 2.96918 8.41592 -0.432874 18
491 2 1.29421 10.9745 3.19678 11
492 2 -0.767858 -9.45937 0.218145 14
493 2 -1.5304 -2.50475 10.089 9
494 2 -3.63658 4.73681 4.04423 22
495 2 7.13015 2.40259 4.16986 18
496 2 9.62659 2.06665 -3.90902 12
497 2 -0.135184 -0.436045 3.17745 20
498 2 -2.96758 2.72907 -9.50534 11
499 2 -4.48486 -8.25055 -1.54564 17
500 2 9.23915 -7.04868 -0.690344 10
