ITEM: TIMESTEP
1005000
ITEM: NUMBER OF ATOMS
500
ITEM: BOX BOUNDS pp pp pp
-3.0000000000000000e+01 3.0000000000000000e+01
-3.0000000000000000e+01 3.0000000000000000e+01
-3.0000000000000000e+01 3.0000000000000000e+01
ITEM: ATOMS id type x y z 
1 1 -2.41321 1.95746 -3.80158 
2 1 4.53387 -4.69772 3.68786 
3 1 0.254823 4.10343 10.3922 
4 1 3.79244 -1.18029 2.51145 
5 1 -7.58341 3.30195 -0.962907 
6 1 -1.54949 -1.31158 -3.9569 
7 1 0.98101 -0.372027 6.85796 
8 1 3.34364 -2.9485 -6.03427 
9 1 -12.704 2.49024 -2.32896 
10 1 2.02195 -0.345192 -9.39749 
11 1 6.32167 -6.38747 -4.31558 
12 1 5.59325 -0.747506 5.93248 
13 1 2.45068 5.31905 -7.29575 
14 1 -0.710577 8.86708 6.4749 
15 1 0.0497632 5.98316 6.04036 
16 1 -6.7169 -0.712699 2.80226 
17 1 -11.0563 -1.64837 0.0907762 
18 1 9.6844 -2.77184 -3.27303 
19 1 3.60991 1.69269 7.80673 
20 1 -5.81469 -7.39309 3.45984 
21 1 -5.04186 -4.79271 -6.99436 
22 1 3.43669 0.66507 -5.25701 
23 1 11.2424 -1.92988 -6.27932 
24 1 8.46293 -7.79771 3.68292 
25 1 -4.55101 7.35973 1.92519 
26 1 3.33856 0.746499 4.83604 
27 1 1.37574 8.02802 0.692222 
28 1 0.818276 0.923473 -3.20018 
29 1 -2.03641 -4.81152 -7.59933 
30 1 -2.13133 2.10544 9.48923 
31 1 6.43993 -2.20503 3.45538 
32 1 -7.56024 7.97667 1.95181 
33 1 -2.82061 5.1064 2.12356 
34 1 4.01444 7.17135 -4.93739 
35 1 6.81167 6.94951 -0.171154 
36 1 -1.05927 7.6527 -6.58253 
37 1 2.16759 -5.01534 -1.40136 
38 1 -3.16746 6.29667 -8.39751 
39 1 -2.28028 2.99019 -0.514682 
40 1 -0.615717 7.52852 -2.17479 
41 1 2.62937 6.54081 -2.05968 
42 1 -11.4619 3.61078 0.903078 
43 1 2.78226 4.20059 8.94418 
44 1 -4.33848 0.725313 -8.58078 
45 1 -5.09522 -3.40533 7.1224 
46 1 -1.88886 1.7597 1.80818 
47 1 -2.0322 -1.05278 3.23959 
48 1 -6.14603 -1.87778 -2.87349 
49 1 5.04138 -9.51062 -3.76227 
50 1 -7.58734 2.48329 2.36196 
51 1 -9.19968 -0.837285 -4.7902 
52 1 0.586936 -7.97082 2.65798 
53 1 8.30421 2.36878 -3.88288 
54 1 -4.11525 -3.37626 2.12261 
55 1 -7.47165 -6.97266 -5.47083 
56 1 0.37813 2.72157 -8.39343 
57 1 0.183144 4.4977 2.95658 
58 1 -1.9509 3.59042 4.75838 
59 1 -4.87416 2.70654 1.32964 
60 1 3.08171 -7.10306 -2.8214 
61 1 1.54322 10.248 -1.72757 
62 1 -11.4141 0.912665 2.65813 
63 1 2.42253 9.28191 6.80807 
64 1 3.85992 -1.19024 8.786 
65 1 1.59427 -9.29846 -4.24025 
66 1 10.615 0.49682 -3.38055 
67 1 -3.13576 -6.74309 1.84057 
68 1 1.81004 -8.16063 -0.619417 
69 1 5.56579 -3.57408 7.64478 
70 1 -1.33061 -4.16252 3.04953 
71 1 6.04533 9.70914 1.82527 
72 1 -3.98658 -7.84695 6.0623 
73 1 1.13627 -10.8543 1.2667 
74 1 -2.7269 -5.76064 -0.767264 
75 1 2.19313 -3.60791 1.61574 
76 1 -4.88344 -4.92342 -2.76102 
77 1 2.57856 3.32369 -4.92555 
78 1 6.80684 -4.83518 1.13592 
79 1 -4.40089 -1.734 4.91441 
80 1 -9.4146 0.761307 4.77849 
81 1 4.63598 -9.75356 0.012031 
82 1 -6.88968 -5.82289 6.00023 
83 1 0.047212 3.02926 7.50967 
84 1 -9.87794 -2.18958 3.17017 
85 1 -2.20779 8.59589 0.680226 
86 1 -8.84458 5.40927 1.30868 
87 1 0.242805 1.5157 4.54201 
88 1 -2.18031 5.11369 7.77457 
89 1 -7.32191 -3.73976 -4.99347 
90 1 1.44486 -5.19232 4.34254 
91 1 -10.0949 2.01668 -4.07223 
92 1 -3.55403 -3.22269 -5.00051 
93 1 6.08437 3.75434 8.94277 
94 1 -6.00598 5.18364 0.571059 
95 1 -1.92223 -2.55947 6.65171 
96 1 -6.5226 -1.32903 -6.93024 
97 1 -12.0247 -0.788717 -2.9094 
98 1 -0.404046 -10.3413 -1.75346 
99 1 -3.37016 -2.49021 -1.82926 
100 1 2.88535 2.19025 2.36081 
101 1 -7.92679 6.00945 4.5074 
102 1 2.33464 3.91403 5.49389 
103 1 -3.32826 6.47462 -1.15946 
104 1 0.249107 -7.47276 -7.06463 
105 1 0.24161 10.5072 1.74802 
106 1 5.48985 1.99619 -2.97706 
107 1 -4.99808 2.97755 -5.13837 
108 1 -6.49787 8.14836 -3.98132 
109 1 -1.44335 -8.74498 -4.633 
110 1 5.03966 -7.79907 5.0883 
111 1 -5.03232 6.26334 -5.5832 
112 1 -4.12303 -0.555834 8.36194 
113 1 3.44558 0.266112 -0.365349 
114 1 -7.07997 2.88331 5.63367 
115 1 -1.11438 -4.30028 -2.73554 
116 1 0.414123 -3.82793 6.43414 
117 1 0.891574 -6.80492 8.56866 
118 1 1.13982 -5.25114 -4.63575 
119 1 7.44631 1.59263 -0.332634 
120 1 -5.14835 4.45678 3.82366 
121 1 5.24776 -0.669435 -7.83845 
122 1 -0.671017 5.65746 0.240092 
123 1 6.82835 -5.43514 5.268 
124 1 -6.21383 -7.61282 -2.41999 
125 1 -4.49109 1.2368 3.89232 
126 1 3.45074 1.93348 11.0266 
127 1 9.33349 5.22558 1.13707 
128 1 -2.47942 1.82675 -6.87819 
129 1 -0.0373623 5.99207 -9.50422 
130 1 3.24394 10.5379 0.469755 
131 1 3.46581 2.17323 -7.69945 
132 1 3.44599 -6.37944 1.56216 
133 1 5.09302 3.48573 0.0212848 
134 1 7.56034 -8.64029 -1.3202 
135 1 3.39962 -9.3513 3.391 
136 1 -5.10049 3.91617 -8.3977 
137 1 2.5596 5.26218 0.453059 
138 1 9.81115 -0.492542 -0.379379 
139 1 -0.320711 4.11849 -5.83341 
140 1 -3.66204 9.24633 -5.98476 
141 1 3.46995 -7.21113 -5.87189 
142 1 -0.181697 -5.98871 0.597688 
143 1 -7.92012 -2.47875 5.64291 
144 1 2.78055 -11.1359 -1.72846 
145 1 1.29976 -4.90349 -7.67867 
146 1 4.10268 7.84138 1.22941 
147 1 5.0703 -6.58651 -0.922263 
148 1 6.69481 -2.5515 -5.06215 
149 1 -6.31212 -2.90972 0.138899 
150 1 -4.77095 -7.64311 -5.66039 
151 1 0.210292 -3.98706 9.36671 
152 1 1.65774 -1.57442 10.981 
153 1 8.10998 -2.24243 -7.7376 
154 1 -10.2621 4.81471 -2.11731 
155 1 4.76673 5.39317 -2.81529 
156 1 6.31188 1.25018 -6.01982 
157 1 0.67258 -0.342746 1.56775 
158 1 -1.3244 0.220386 -9.8643 
159 1 -9.91711 3.48745 3.94043 
160 1 3.36602 -4.42835 10.1394 
161 1 6.00802 0.83803 2.41319 
162 1 -7.76519 1.6176 -6.62759 
163 1 8.59093 -4.59509 3.06838 
164 1 -1.61047 -9.13281 0.846326 
165 1 5.68381 2.41917 5.54646 
166 1 1.63459 -8.01523 5.59182 
167 1 0.639688 2.59981 0.183096 
168 1 3.22719 -2.44097 5.78359 
169 1 7.82388 -0.718409 -2.82698 
170 1 7.36247 3.38759 2.75085 
171 1 6.84216 -3.78587 -2.20251 
172 1 8.27655 0.425846 4.57172 
173 1 -2.5194 -6.00096 -4.36878 
174 1 4.72752 6.8964 7.84294 
175 1 -4.64849 4.10487 -2.43164 
176 1 -2.34906 5.43049 -4.25118 
177 1 -1.97072 0.591473 6.33338 
178 1 -0.358765 -7.12178 -2.3777 
179 1 -4.86196 -9.05802 0.473272 
180 1 4.58197 4.9612 3.114 
181 1 -5.65734 8.15852 4.53943 
182 1 -6.95696 6.66086 -1.41446 
183 1 5.32193 4.05027 -5.68607 
184 1 1.22096 0.917841 9.68532 
185 1 -7.45486 0.251458 -0.154285 
186 1 -0.00664195 -2.89073 -9.08763 
187 1 -3.01147 6.7176 5.08751 
188 1 4.46429 -4.15135 -3.38756 
189 1 2.52663 9.70497 3.3234 
190 1 6.52026 -9.01837 2.04954 
191 1 -2.56183 9.8442 3.71152 
192 1 -4.14932 -0.521138 0.853525 
193 1 5.75445 -4.53178 -6.78588 
194 1 3.93404 -0.90169 -3.16178 
195 1 3.42189 -5.37586 6.6855 
196 1 0.645867 0.810161 -6.50349 
197 1 1.35818 -2.02788 -1.64135 
198 1 -5.55618 5.59732 7.01109 
199 1 9.90112 -1.42825 2.78212 
200 1 -0.570863 9.80573 -4.35069 
201 1 0.548012 -1.91702 4.2238 
202 1 7.75106 4.67706 -1.83052 
203 1 -0.989579 -1.096 9.14778 
204 1 -2.04755 -5.61852 7.43121 
205 1 -3.28218 8.7293 -3.15014 
206 1 5.06058 8.19162 4.44312 
207 1 -6.79379 -4.13575 3.43939 
208 1 6.40534 -1.25468 0.159869 
209 1 -5.91548 -6.01002 0.587334 
210 1 6.05145 5.12035 5.73835 
211 1 9.18067 -5.77598 -2.64781 
212 1 2.91213 2.97771 -2.00847 
213 1 2.4002 6.8863 3.87931 
214 1 -8.87692 -2.43366 -1.69363 
215 1 -0.0552719 4.11115 -2.60888 
216 1 1.38115 8.15916 -7.13947 
217 1 -4.36822 -0.0657844 -5.21623 
218 1 3.43616 -3.13914 -9.23483 
219 1 -3.29639 -8.27125 -2.48741 
220 1 -1.29634 0.0097523 -1.05424 
221 1 -3.96774 -4.99637 4.82792 
222 1 8.8461 -3.3881 0.00195626 
223 1 -13.1272 0.871335 -0.0882436 
224 1 -2.24858 3.35242 -9.63742 
225 1 -8.29384 -5.60089 -2.36002 
226 1 8.30608 -2.53869 5.54185 
227 1 4.34138 -3.18509 -0.456543 
228 1 -1.93944 -1.23521 -7.11425 
229 1 -5.46924 9.25266 -0.663363 
230 1 -6.50684 -0.0260724 6.20037 
231 1 -4.46193 0.746492 -1.6963 
232 1 7.43409 6.69047 3.05819 
233 1 10.0722 1.85706 2.12314 
234 1 -1.48699 -7.09481 4.35225 
235 1 8.93425 -0.169686 -6.13509 
236 1 0.818594 6.43345 -4.754 
237 1 0.0758753 11.4288 5.18666 
238 1 4.54614 8.63451 -1.45388 
239 1 10.0628 2.8835 -1.09032 
240 1 -1.21671 -2.76687 0.562174 
241 1 -4.4191 2.46031 7.09523 
242 1 9.11686 -4.74574 -5.8292 
243 1 0.963053 -2.0201 -5.09186 
244 1 1.28855 7.20378 8.77159 
245 1 -6.87783 1.40829 -3.29617 
246 1 -0.684656 7.66152 3.25567 
247 1 -2.9066 -9.64345 3.28793 
248 1 9.13098 -6.97005 0.605351 
249 1 -8.82074 -4.1595 0.77352 
250 1 -7.51852 4.65232 -4.1467 
251 2 -10.2082 -0.384491 3.42418 
252 2 6.50411 5.17437 3.58725 
253 2 1.64621 -5.46564 9.78346 
254 2 -5.30025 0.0278352 -3.365 
255 2 -12.3503 2.68777 -0.50252 
256 2 -4.29897 -8.43434 4.15013 
257 2 2.39859 0.198383 11.1905 
258 2 6.54204 -0.857674 2.03934 
259 2 -2.24979 -3.84393 -0.947302 
260 2 -5.14653 7.08148 6.03738 
261 2 -0.97419 6.09255 2.16297 
262 2 7.73484 -2.55684 -3.52911 
263 2 8.01888 -5.56818 -4.27081 
264 2 -3.61922 1.82651 -5.41379 
265 2 -0.498931 -5.81265 -7.5681 
266 2 -2.56733 -3.20328 -3.36246 
267 2 -1.09147 -8.94148 3.13172 
268 2 -5.89586 8.92927 1.24546 
269 2 9.24335 -2.73173 3.89103 
270 2 2.37087 -3.42916 -0.430775 
271 2 -1.01286 1.60114 0.0409802 
272 2 6.3813 8.39891 3.08094 
273 2 1.29756 5.55195 9.61803 
274 2 0.96603 10.2501 6.37875 
275 2 2.33789 6.85231 -6.0652 
276 2 9.81371 -1.66408 -7.32412 
277 2 -10.8904 0.276054 -4.34757 
278 2 2.10623 -6.62409 7.05893 
279 2 -7.45393 3.94712 0.916025 
280 2 5.28934 -6.21101 -5.91352 
281 2 2.4339 -9.90705 -0.116352 
282 2 7.06752 -0.967006 -6.63446 
283 2 -1.04181 7.1924 5.04403 
284 2 4.82678 -1.84355 7.36126 
285 2 -3.52708 -9.52687 1.57727 
286 2 2.2585 -4.0949 6.11557 
287 2 1.63437 -9.54634 2.81311 
288 2 1.72031 1.27897 -5.00971 
289 2 -0.647787 -5.79158 -3.91899 
290 2 -6.77724 -3.89407 6.28408 
291 2 -5.70007 -7.61363 1.41472 
292 2 -6.48064 -5.80162 -1.67964 
293 2 -1.55639 9.60119 2.17816 
294 2 3.84557 -1.09768 -9.10132 
295 2 7.80418 6.31526 1.1925 
296 2 3.82119 3.78883 -6.64222 
297 2 -3.50703 2.59124 -2.12134 
298 2 -8.41449 1.88267 -4.90909 
299 2 6.49014 2.59287 1.25492 
300 2 1.23613 10.1022 0.156806 
301 2 -7.10725 7.40395 3.64461 
302 2 0.974774 4.40529 0.830883 
303 2 3.43773 10.2249 -1.48785 
304 2 0.129032 8.85835 -5.77699 
305 2 -1.17004 3.75929 9.06767 
306 2 -3.11998 1.81827 5.36923 
307 2 3.14837 -2.53648 10.1689 
308 2 2.12624 -6.43318 -6.71876 
309 2 1.32397 -10.5844 -2.69343 
310 2 -2.87184 -1.47944 -5.41398 
311 2 -3.13447 -0.589863 -0.965369 
312 2 -1.42514 4.66731 -1.12254 
313 2 -9.05787 -4.38189 -1.06499 
314 2 9.56581 -4.02393 -1.68801 
315 2 5.40054 6.99349 6.13588 
316 2 0.230796 -0.921965 -9.61267 
317 2 1.77985 -3.95601 -9.39215 
318 2 5.20571 0.489205 -4.12784 
319 2 -5.89612 -6.40983 -6.50158 
320 2 1.5641 -3.75232 -6.07434 
321 2 10.8134 -0.25065 -5.37531 
322 2 -5.58188 -1.86081 1.7991 
323 2 -1.64883 -3.02103 -7.94948 
324 2 0.0510623 -2.53633 -3.35503 
325 2 1.41165 4.70788 -5.59501 
326 2 0.00954234 -8.6277 -5.5366 
327 2 -0.92897 2.05874 -9.75846 
328 2 -1.54907 10.111 5.33523 
329 2 -7.02832 -4.54076 1.21529 
330 2 -6.24302 1.74911 6.9166 
331 2 -5.20465 5.51869 2.15682 
332 2 -8.44794 -3.09668 3.87463 
333 2 -3.34453 -4.13931 6.66219 
334 2 -13.2242 0.554964 -2.03046 
335 2 3.31049 -8.36791 4.98862 
336 2 7.67429 -0.178751 -1.10626 
337 2 -0.0450028 -1.00321 -6.32392 
338 2 1.17621 8.04671 2.73667 
339 2 0.078985 7.44728 7.40561 
340 2 0.222982 -2.3416 10.1168 
341 2 -9.07315 5.09016 3.29126 
342 2 2.1587 2.26167 4.35267 
343 2 -8.13045 -2.14958 -3.7628 
344 2 4.48506 -2.55504 -2.29887 
345 2 9.14142 3.55485 2.13647 
346 2 -7.65848 0.577882 1.77048 
347 2 -2.99688 7.87843 -7.36025 
348 2 4.41024 -3.44868 -7.70299 
349 2 -10.2089 4.65392 -0.0786861 
350 2 2.75626 -4.99933 2.90551 
351 2 3.94941 3.11418 -3.68572 
352 2 6.21551 -8.10861 -2.83998 
353 2 4.66586 -9.86697 2.05958 
354 2 -3.55242 8.68962 -0.802434 
355 2 3.32616 -7.00971 -1.00677 
356 2 1.65112 -6.91939 1.23526 
357 2 2.93424 7.74821 8.00888 
358 2 0.122342 9.26057 -2.72452 
359 2 -2.53144 -1.46312 5.17904 
360 2 -2.47402 -5.71922 3.42632 
361 2 -0.931157 2.79482 3.30926 
362 2 -4.80102 -3.31684 4.00103 
363 2 0.932522 4.58159 -8.59109 
364 2 1.7949 -1.76737 2.42735 
365 2 9.90026 -0.993733 -2.25782 
366 2 2.33591 -0.0194 8.24203 
367 2 -7.35584 -1.49561 -0.725691 
368 2 3.68638 4.64417 -1.10679 
369 2 2.87819 8.69833 4.9737 
370 2 2.90684 -1.45909 -4.88494 
371 2 -6.80622 -6.01769 4.04424 
372 2 1.66981 2.78829 10.2536 
373 2 -1.17016 0.470737 -3.35798 
374 2 -6.17566 3.19943 -3.57752 
375 2 4.22221 2.53665 9.55432 
376 2 1.98572 1.07165 1.07187 
377 2 1.84938 1.4388 -8.26559 
378 2 6.44727 -4.25815 3.14445 
379 2 2.11091 3.14286 7.41881 
380 2 8.47174 -5.95989 4.43295 
381 2 -0.144133 -4.23723 1.38838 
382 2 -3.13818 3.14422 1.15299 
383 2 -10.6831 -1.74026 -1.81607 
384 2 -4.48581 8.01888 -4.70626 
385 2 -4.67476 5.56164 -7.55076 
386 2 -2.37033 -2.73038 2.22753 
387 2 -2.48914 -6.66176 6.00913 
388 2 4.06472 9.95188 2.1574 
389 2 -6.31563 -3.42436 -6.92874 
390 2 9.60161 0.34677 3.22775 
391 2 -6.11566 8.64592 -2.15454 
392 2 8.68924 -4.93558 1.07374 
393 2 -5.02065 -6.25805 5.89668 
394 2 -6.27742 -7.79417 -4.31898 
395 2 0.719364 6.11918 -2.60807 
396 2 -7.65411 6.77242 0.378884 
397 2 3.88582 3.71937 1.86354 
398 2 -0.395413 -5.30754 8.22603 
399 2 -10.934 2.68397 2.52259 
400 2 -2.30418 7.02479 -3.11349 
401 2 -0.919252 0.77757 9.64462 
402 2 -10.9331 3.40914 -3.2486 
403 2 5.64828 8.61711 0.208248 
404 2 -4.04863 4.41117 7.5402 
405 2 -0.0718708 1.36014 6.46555 
406 2 0.837777 2.45231 -1.79272 
407 2 2.38937 -0.353363 -1.89098 
408 2 -5.08719 -0.120146 -7.23356 
409 2 -0.529934 2.39858 -6.48922 
410 2 -1.65986 -7.27582 0.332622 
411 2 -4.3011 4.82295 -4.49699 
412 2 2.19084 -0.784982 5.03776 
413 2 1.19634 5.21837 4.51531 
414 2 9.3716 4.6271 -0.829697 
415 2 6.46818 -8.05989 3.94915 
416 2 7.32117 2.77383 -2.01558 
417 2 4.15116 4.05401 5.01871 
418 2 -5.16143 1.05171 0.323732 
419 2 -1.33913 3.66186 -4.05546 
420 2 -3.23725 1.32329 8.16112 
421 2 -7.82238 -5.50868 -4.26189 
422 2 1.33465 -7.85268 -2.81732 
423 2 -0.305206 7.69304 -0.210119 
424 2 -8.34272 2.34781 4.41951 
425 2 -5.64048 -0.269178 4.49741 
426 2 -1.4113 -8.84116 -2.51482 
427 2 4.65096 5.10204 8.74231 
428 2 -1.02144 5.9694 -5.77305 
429 2 -1.85696 5.12184 -9.40439 
430 2 5.05023 5.54918 -4.59283 
431 2 3.43896 -8.67975 -4.4001 
432 2 6.14948 3.56188 6.92565 
433 2 4.06118 6.95047 3.06517 
434 2 -0.0364146 7.45679 -8.24047 
435 2 -6.09172 2.72814 -7.17672 
436 2 -3.17467 -5.06664 -5.88164 
437 2 -5.30204 -3.4673 -4.25764 
438 2 -3.85956 8.09806 3.95752 
439 2 -2.38163 9.80263 -4.43011 
440 2 -6.97413 6.4003 -4.88594 
441 2 -6.71003 4.78394 5.70015 
442 2 -0.177611 -1.36493 -0.169433 
443 2 4.86877 1.1067 -7.28342 
444 2 7.60015 -3.78398 -6.61581 
445 2 -3.99321 -5.28613 0.814704 
446 2 -7.95913 5.01752 -2.12614 
447 2 -2.54723 0.373871 -8.19718 
448 2 0.23263 -5.42405 -1.28796 
449 2 4.54264 -2.58469 4.16062 
450 2 -5.67337 2.70848 3.22606 
451 2 -3.43709 -6.20254 -2.5981 
452 2 -8.22955 -0.552211 5.51253 
453 2 4.37693 -1.2049 0.559898 
454 2 4.92732 -5.68176 5.23455 
455 2 -11.9636 -0.266383 1.03904 
456 2 -2.59174 -1.68651 8.30147 
457 2 0.474595 -6.97132 4.43997 
458 2 7.16957 -0.943374 5.1665 
459 2 2.7496 -5.21686 -3.25736 
460 2 -3.14549 6.73102 0.686596 
461 2 -7.82358 -0.293515 -6.10417 
462 2 -5.10752 -1.31458 6.96832 
463 2 4.19043 -4.77378 8.46991 
464 2 4.45862 1.97368 -1.04141 
465 2 8.33102 0.410036 -4.37096 
466 2 4.72551 0.993984 6.28921 
467 2 -5.20129 5.49616 -1.02675 
468 2 7.07694 -3.77082 6.44784 
469 2 5.00943 -3.15072 -5.15183 
470 2 -5.16457 -3.09896 -1.56012 
471 2 -3.24232 0.349275 2.35937 
472 2 10.1268 -3.12158 -5.17176 
473 2 4.88862 -5.23418 0.73391 
474 2 6.76611 -3.27574 -0.15423 
475 2 5.66342 -5.32081 -2.43576 
476 2 -1.16009 4.34646 6.37354 
477 2 6.88056 2.95154 -5.16466 
478 2 -10.2566 -2.95443 1.26499 
479 2 4.28789 0.850744 3.1786 
480 2 -7.51637 1.54108 -1.51752 
481 2 8.32568 -8.1744 1.85388 
482 2 3.93057 7.52641 -3.01059 
483 2 9.4511 1.48917 0.15206 
484 2 6.28959 5.7857 -1.60716 
485 2 0.00196208 -3.85686 4.49705 
486 2 6.14384 -8.50339 0.133409 
487 2 9.61 -1.85011 0.980333 
488 2 4.60569 -10.5239 -1.96777 
489 2 -3.11341 -7.8209 -4.76503 
490 2 2.9901 7.24637 -0.244628 
491 2 0.879307 10.9544 3.54221 
492 2 -0.237634 -10.292 0.139773 
493 2 -0.207788 -1.89443 7.0658 
494 2 -3.14219 5.03272 4.24429 
495 2 7.01467 1.60589 3.93617 
496 2 9.94591 2.24636 -2.85806 
497 2 -0.30322 -0.110645 3.55112 
498 2 -3.57455 2.61543 -8.45089 
499 2 -4.76158 -8.51116 -1.25822 
500 2 8.69177 -7.04129 -1.35375 
