ITEM: TIMESTEP
5694000
ITEM: NUMBER OF ATOMS
500
ITEM: BOX BOUNDS pp pp pp
-30.0 30.0
-30.0 30.0
-30.0 30.0
ITEM: ATOMS id type x y z Coordination
1 1 -2.36992 1.83625 -3.39431 22
2 1 4.68251 -6.72009 7.14621 13
3 1 0.610297 7.04313 9.19456 10
4 1 4.48994 -0.922386 2.0804 21
5 1 -5.00687 6.00534 0.128196 21
6 1 -1.26215 -1.36185 -3.9413 22
7 1 1.5212 -0.386054 6.71754 19
8 1 3.55294 -2.234 -6.2203 21
9 1 -10.4151 5.25027 -2.21199 10
10 1 0.898798 1.41431 -8.05902 19
11 1 5.19478 -7.44184 -4.44138 15
12 1 9.36025 1.66425 7.08978 11
13 1 3.88151 6.16099 -6.9521 13
14 1 -1.93025 7.58997 6.89025 14
15 1 0.509885 5.9923 5.81109 22
16 1 -6.14796 -0.968253 3.01381 21
17 1 -10.9994 0.00679395 0.118295 12
18 1 9.36501 -4.19678 -3.33978 17
19 1 3.67005 2.2254 7.58669 21
20 1 -5.67339 -6.07807 2.31728 17
21 1 -6.81147 -3.85429 -8.20741 11
22 1 1.1862 -0.416079 -5.49789 23
23 1 9.72632 -2.92776 -6.45114 11
24 1 6.51857 -7.53142 3.88903 11
25 1 -4.39964 10.6392 2.87904 12
26 1 3.8368 0.864233 5.11127 21
27 1 2.84786 8.38942 0.859274 21
28 1 0.699594 0.95315 -2.55556 23
29 1 -5.91009 -6.05705 -5.74276 18
30 1 -1.0671 1.1528 9.11075 15
31 1 7.17498 -2.03136 3.96061 18
32 1 -6.68759 8.2523 2.9199 15
33 1 -2.27235 5.23582 1.71226 23
34 1 4.81725 7.83284 -4.46266 12
35 1 7.82564 5.922 -0.275937 12
36 1 2.06432 5.17955 -4.76422 23
37 1 2.29713 -5.04042 -1.55538 21
38 1 -1.33981 3.17379 -8.41163 15
39 1 -2.01855 3.11786 -0.494694 23
40 1 0.251595 8.54779 -1.06108 21
41 1 2.53333 6.75786 -1.83615 23
42 1 -10.4756 3.74832 0.854217 13
43 1 0.954473 3.38436 10.1205 14
44 1 -3.88768 -5.04486 -7.65468 18
45 1 -5.99485 -3.06361 7.89753 12
46 1 -1.66745 1.98381 2.19943 22
47 1 -1.56543 -0.963866 3.35267 22
48 1 -6.47578 -1.52543 -2.4177 22
49 1 2.27959 -9.34388 -3.58348 13
50 1 -7.29138 2.4414 2.44939 24
51 1 -8.67091 0.65531 -5.21414 13
52 1 -1.66534 -9.94409 4.12299 11
53 1 7.82239 3.11753 -5.21749 12
54 1 -3.81414 -3.54601 2.48124 23
55 1 -8.95982 -5.39085 -5.86649 12
56 1 2.95776 3.36246 -9.02145 9
57 1 0.657971 4.63218 2.97361 21
58 1 -1.87822 3.8113 4.78475 23
59 1 -4.87161 2.84045 0.939971 23
60 1 4.63027 -4.15303 -3.58414 22
61 1 0.922634 10.889 -0.44048 10
62 1 -11.4834 1.95412 2.78567 10
63 1 3.29476 7.78833 6.90016 14
64 1 4.63715 -0.384562 9.27429 15
65 1 0.154355 -8.37389 -5.77738 13
66 1 11.0149 -1.02265 -4.06404 10
67 1 -2.72224 -6.35035 2.23583 21
68 1 2.12389 -8.97505 -0.441095 16
69 1 7.13382 -1.3232 7.35985 14
70 1 -0.656494 -4.24563 3.26728 21
71 1 5.60563 7.88874 1.52343 17
72 1 -4.44325 -7.75378 4.76264 14
73 1 -1.0747 -11.0519 1.14051 11
74 1 -3.8444 -4.85863 -0.415511 20
75 1 1.89868 -3.47451 1.36597 23
76 1 -6.14188 -4.47236 -2.60904 23
77 1 6.07728 2.09916 -7.91496 12
78 1 5.19635 -4.00581 2.35403 20
79 1 -3.96599 -1.66231 5.24617 23
80 1 -8.78486 0.790769 4.34361 15
81 1 4.77623 -7.97371 -1.42465 16
82 1 -5.88385 -4.72673 5.01231 17
83 1 0.950136 2.7974 7.13695 22
84 1 -9.15377 -0.913447 2.60004 17
85 1 -2.28484 8.51591 0.741617 22
86 1 -7.63672 5.46617 2.08285 21
87 1 0.64034 1.47584 4.2481 21
88 1 -1.54273 4.47649 7.88486 17
89 1 -9.79814 -1.99257 -6.13502 12
90 1 -2.01864 -8.40526 6.89924 13
91 1 -9.10522 3.91792 -4.93475 14
92 1 -3.30585 -3.71258 -4.8103 22
93 1 6.80265 2.36887 8.34838 15
94 1 -8.48114 6.99385 -3.34621 9
95 1 -0.616929 -2.68128 5.67566 22
96 1 -6.44947 -2.97386 -5.40013 22
97 1 -9.6386 1.96378 -1.97022 16
98 1 -2.62695 -9.42204 -3.81909 17
99 1 -3.38225 -2.35868 -1.68392 23
100 1 3.50097 2.10759 2.36972 23
101 1 -7.43711 6.67766 5.41029 12
102 1 2.94539 4.14285 4.97653 22
103 1 -2.29233 6.24928 -1.47609 24
104 1 -1.16025 -5.42134 -5.52623 23
105 1 -2.5549 11.3186 -0.0865665 10
106 1 5.43087 2.02702 -2.85147 22
107 1 -7.05604 2.71529 -7.2338 13
108 1 -5.34209 7.24392 -2.53229 17
109 1 -3.23977 -7.92282 -6.64208 14
110 1 2.53423 -4.77803 4.19219 19
111 1 -4.34463 4.5746 -7.13625 14
112 1 -3.7364 -0.40394 8.4918 14
113 1 3.3365 0.57634 -0.482351 25
114 1 -6.44903 3.13507 5.35506 17
115 1 -3.34651 -6.35888 -3.55075 21
116 1 1.1306 -3.39758 8.40779 16
117 1 -1.15924 -5.7902 7.69192 16
118 1 -1.46109 -2.73295 -7.23338 21
119 1 6.70041 0.203076 -0.556808 22
120 1 -4.88902 4.81484 3.4731 23
121 1 6.31372 -1.28388 -7.97309 16
122 1 0.199371 5.76179 0.13148 22
123 1 5.85846 -4.44449 5.82385 16
124 1 -7.75664 -7.30811 -3.14169 12
125 1 -4.14387 1.48542 3.8344 22
126 1 4.49451 2.91799 10.2898 13
127 1 8.47993 2.75657 0.789664 17
128 1 -4.63152 2.3637 -5.34742 21
129 1 1.12798 5.26644 -7.51925 13
130 1 1.79984 10.3307 2.92438 13
131 1 3.48529 0.278282 -8.00507 16
132 1 -0.260793 -7.0335 4.64213 17
133 1 5.56088 3.11477 -0.179973 23
134 1 4.96835 -9.17715 1.62602 11
135 1 1.02933 -8.77143 2.2543 15
136 1 -4.57461 1.59144 -8.59223 15
137 1 3.25921 5.083 0.918128 23
138 1 9.66966 -1.59732 -1.13912 18
139 1 0.21115 2.66653 -5.33015 21
140 1 -3.7856 7.63468 -5.2008 12
141 1 2.24156 -6.077 -4.73804 18
142 1 -0.0428691 -6.15587 0.413853 21
143 1 -7.90118 -2.38278 5.20654 13
144 1 -0.448483 -9.67397 -1.51289 15
145 1 1.21603 -4.42864 -7.47394 19
146 1 5.13175 8.8266 -1.34968 12
147 1 5.43894 -5.31292 -0.727185 20
148 1 6.84794 -2.91767 -5.56641 23
149 1 -6.17289 -2.91887 0.388819 23
150 1 -5.40244 -9.14845 -4.2067 12
151 1 2.41911 -5.65378 9.08364 11
152 1 2.41193 -2.48817 10.6233 11
153 1 7.3066 -3.93444 -8.53952 10
154 1 -6.2955 5.13946 -5.08167 16
155 1 5.19443 5.85271 -1.58393 20
156 1 5.86642 0.0847936 -5.08207 23
157 1 1.20566 -0.268075 1.31193 22
158 1 -0.937537 -4.34711 -9.75907 9
159 1 -9.19233 4.2148 4.26704 12
160 1 4.86481 -3.73313 8.55119 15
161 1 6.4759 1.30646 2.68063 20
162 1 -7.09215 -0.38278 -7.63443 13
163 1 8.17653 -5.22955 2.91619 14
164 1 -2.75086 -8.07533 -0.756277 21
165 1 5.96341 3.40909 5.16626 23
166 1 1.45469 -7.09345 6.62402 13
167 1 0.880981 2.54606 -0.0222963 22
168 1 4.51631 -2.18924 5.12866 19
169 1 8.20501 0.0598969 -3.40732 21
170 1 9.13853 3.22772 3.74636 16
171 1 6.6666 -2.50372 -2.55246 23
172 1 9.68866 0.3552 3.82655 12
173 1 -0.785581 -4.14155 -2.15812 23
174 1 5.63136 5.53135 8.13228 15
175 1 -4.5941 4.08747 -2.39302 20
176 1 1.78662 8.4252 -6.03428 11
177 1 -1.87183 0.729557 6.21001 24
178 1 -0.236099 -6.98155 -2.82588 23
179 1 -5.4157 -7.77472 -0.855009 19
180 1 5.39931 5.16899 2.61763 20
181 1 -4.74908 8.91324 5.41988 11
182 1 -8.2564 7.32375 -0.127244 15
183 1 5.0098 4.25428 -5.03233 16
184 1 2.01604 0.691426 9.93717 16
185 1 -7.39698 0.367554 0.0484192 23
186 1 -1.10421 -6.73457 -8.64124 13
187 1 -2.39864 7.22978 3.93373 19
188 1 3.51054 -0.971359 -3.25918 25
189 1 3.63844 9.70791 4.93459 11
190 1 3.04786 -6.68416 1.23821 20
191 1 -1.77763 10.6529 3.22878 14
192 1 -4.0482 -0.561356 0.872444 23
193 1 4.67093 -5.0643 -6.83483 15
194 1 0.880854 -1.51132 -9.20144 15
195 1 3.3894 -7.70344 4.18673 18
196 1 -2.14875 0.444049 -6.45256 24
197 1 1.00203 -1.9426 -1.44995 24
198 1 -4.54741 5.59969 6.81553 16
199 1 9.78828 -2.66274 2.07418 14
200 1 -0.476102 7.35566 -4.01365 18
201 1 1.55527 -1.85304 3.84996 22
202 1 7.72942 3.1112 -2.20805 17
203 1 -0.71091 -1.41543 10.061 11
204 1 -2.55767 -3.20389 8.33289 19
205 1 -2.74159 9.25455 -2.39913 15
206 1 5.67912 6.5694 5.00122 17
207 1 -8.22322 -4.04823 2.33424 14
208 1 7.43793 -3.11912 0.340661 20
209 1 -8.0271 -5.81485 -0.365495 13
210 1 8.54469 4.98156 6.25447 12
211 1 7.27287 -6.16122 -2.58406 15
212 1 3.05475 3.52026 -2.35125 23
213 1 2.83294 7.16537 3.78162 23
214 1 -10.7092 -1.17973 -2.92375 13
215 1 0.0692546 4.15923 -2.79127 22
216 1 2.41891 9.662 -3.5283 11
217 1 -4.17882 -0.750852 -4.16979 18
218 1 3.84038 -3.05073 -9.256 11
219 1 -3.88059 -10.9048 -1.51813 12
220 1 -1.58687 0.181327 -0.679929 23
221 1 -4.31372 -6.17999 7.8304 13
222 1 9.73739 -5.34931 -0.208943 12
223 1 -7.69893 3.73939 -0.626946 21
224 1 -1.8173 0.0649055 -9.06306 14
225 1 -8.95701 -4.01178 -3.23145 17
226 1 7.15552 0.95848 5.39073 17
227 1 4.20955 -2.46824 -0.428375 23
228 1 -4.31081 -1.82952 -7.53215 17
229 1 -4.97424 8.58353 0.32994 18
230 1 -6.16407 -0.101223 6.15267 15
231 1 -4.75396 1.29813 -1.3957 23
232 1 8.34493 5.97251 2.8696 12
233 1 10.885 0.565363 1.41701 10
234 1 -2.81466 -4.89279 5.30102 24
235 1 8.55438 -0.195961 -6.53473 15
236 1 3.04981 1.75615 -4.86786 23
237 1 0.184834 9.12222 5.38676 16
238 1 4.19849 11.0611 1.34233 11
239 1 10.3217 1.37739 -1.74267 12
240 1 -1.04168 -2.87869 0.81306 23
241 1 -3.81457 2.52592 7.18042 16
242 1 8.05596 -5.85239 -5.96211 11
243 1 1.14853 -3.49753 -4.25206 20
244 1 2.71575 5.27575 8.16627 17
245 1 -7.07121 1.96173 -3.27809 19
246 1 0.0281664 7.73981 2.77313 23
247 1 -3.85032 -9.14854 1.58779 15
248 1 7.62775 -7.6341 0.603255 11
249 1 -9.00391 -2.34255 -0.406531 17
250 1 -1.54181 4.80295 -5.2808 17
251 2 -10.3738 0.530288 3.22653 13
252 2 8.62496 5.06138 4.43428 14
253 2 0.510456 -5.18569 8.22309 13
254 2 -5.55238 0.258466 -2.84278 21
255 2 -9.63972 3.74939 -1.17395 15
256 2 -3.01379 -8.81159 5.27383 15
257 2 3.33966 -0.765305 10.5426 12
258 2 7.94104 -3.38421 2.44494 15
259 2 -2.13717 -3.58186 -0.779591 22
260 2 -3.86442 7.57248 6.54402 12
261 2 -0.596451 6.10747 1.95669 20
262 2 6.88626 -1.3726 -4.11714 25
263 2 7.06213 -6.57576 -4.55586 15
264 2 -4.90175 -1.93265 -5.74538 21
265 2 -0.0881662 -3.06513 -8.39509 16
266 2 -2.46286 -4.3025 -6.40931 24
267 2 -1.63535 -5.79724 4.11962 22
268 2 -5.29722 9.25183 2.01703 16
269 2 7.84769 -0.358385 4.12716 20
270 2 1.37671 -7.58875 0.741125 19
271 2 -0.962483 1.8532 0.35826 20
272 2 6.57817 6.75215 2.9782 13
273 2 1.30887 5.33352 9.61499 13
274 2 1.44955 6.86075 7.33026 18
275 2 3.46404 8.88856 -4.89329 12
276 2 7.87412 -2.43958 -7.24686 15
277 2 -9.09443 2.10481 -3.90009 16
278 2 -0.395512 -7.38165 6.73584 14
279 2 -8.49742 3.75572 1.33212 21
280 2 3.88636 -6.2477 -5.49539 15
281 2 0.49636 -9.87962 0.681268 13
282 2 5.70264 -3.04728 -9.08968 12
283 2 -0.837818 7.27713 5.07748 21
284 2 7.12635 2.4827 4.00308 25
285 2 -4.33801 -9.30937 -0.269336 15
286 2 3.86997 -3.97265 5.36299 18
287 2 -2.43702 -10.2595 2.24252 13
288 2 1.26486 1.0976 -4.3676 21
289 2 -3.88343 -7.89586 -4.74914 16
290 2 -6.88531 -3.81235 6.24042 13
291 2 -6.4818 -6.55294 0.365099 18
292 2 -7.85428 -5.19719 -2.07565 18
293 2 -2.99517 11.3475 1.76741 11
294 2 2.81717 -1.36216 -8.88668 15
295 2 8.36881 4.8907 1.43117 15
296 2 3.17476 4.90892 -8.01609 12
297 2 -3.43204 2.60716 -1.82781 22
298 2 -5.68477 3.39274 -3.94256 21
299 2 6.6566 1.79209 0.755343 19
300 2 -0.976907 10.1232 -0.27542 14
301 2 -6.42084 7.99416 4.73614 13
302 2 1.32968 4.38815 1.12885 22
303 2 2.11674 11.0639 1.12875 11
304 2 -4.80035 6.16098 -5.89309 14
305 2 -0.323165 2.84638 8.9072 18
306 2 -2.81869 2.09278 5.21765 22
307 2 3.26738 -3.97874 9.62704 12
308 2 0.273279 -5.53383 -8.6782 11
309 2 -1.60635 -8.26263 -2.49203 19
310 2 -5.01656 -3.51709 -7.96712 16
311 2 -3.17913 -0.602058 -0.758448 22
312 2 -1.0257 4.80523 -1.04365 21
313 2 -10.0069 -2.97237 -1.98274 14
314 2 8.68789 -5.2046 -1.93438 16
315 2 6.54287 5.44272 6.45499 14
316 2 2.13836 1.10606 -6.6199 20
317 2 0.700569 -4.96304 -5.59878 22
318 2 4.42548 0.852354 -4.07127 23
319 2 -4.62043 -6.66239 -7.01424 17
320 2 -0.650445 1.66054 -6.88321 19
321 2 10.0065 -1.274 -5.73388 13
322 2 -5.0674 -2.14136 1.76414 22
323 2 -1.4757 -7.1274 -6.68442 17
324 2 0.00779959 -2.4867 -2.98643 24
325 2 4.15209 1.98365 -8.48926 13
326 2 -1.71561 -5.26478 -3.6193 20
327 2 7.26055 0.603391 -7.82318 12
328 2 0.00458937 10.2073 3.87384 14
329 2 -8.00218 -3.95696 0.467593 17
330 2 -5.68191 1.99148 6.57181 15
331 2 -5.68624 3.81175 -0.578027 23
332 2 -7.83217 -2.22264 3.19865 18
333 2 -4.40675 -4.25119 8.21215 15
334 2 -9.5559 5.47991 -3.9499 9
335 2 5.65925 -5.08772 7.5513 12
336 2 7.71494 -1.60395 -1.08929 20
337 2 -0.432134 -1.53616 -5.7661 23
338 2 1.92179 8.41269 2.56457 23
339 2 -1.30568 6.55892 8.40704 12
340 2 0.606158 -2.61647 10.0617 12
341 2 -8.20936 5.76285 3.98257 14
342 2 2.73215 2.12047 4.11591 22
343 2 -9.65678 -0.885169 -4.54327 14
344 2 4.7573 -2.2636 -2.36904 23
345 2 9.60789 1.86377 2.34107 14
346 2 -7.66314 0.579316 2.38618 19
347 2 2.06208 6.56463 -6.36052 15
348 2 3.05065 -3.89341 -7.75419 16
349 2 -9.40384 6.84495 -1.50844 9
350 2 1.86939 -6.88231 4.57689 18
351 2 7.83097 1.21689 -5.13986 16
352 2 4.11955 -8.46079 -3.1106 13
353 2 3.70027 -8.70982 2.81042 12
354 2 -3.40426 9.53825 -0.521139 17
355 2 0.325142 -5.6496 -1.53926 23
356 2 -2.04223 -6.97726 0.600576 21
357 2 4.2146 6.63995 8.04497 11
358 2 -1.3341 7.88147 -2.29329 18
359 2 -1.99279 -1.14667 5.32025 25
360 2 -1.73987 -3.97282 6.66443 20
361 2 -0.309128 2.87325 3.50342 23
362 2 -3.94733 -3.563 4.6032 24
363 2 0.533537 4.57014 -5.61807 21
364 2 2.48067 -1.76358 1.98255 22
365 2 10.2331 -2.32665 -2.97844 15
366 2 2.2158 0.920114 7.88436 20
367 2 -7.26723 -1.40287 -0.534575 20
368 2 3.51614 5.06165 -1.2381 22
369 2 4.407 7.84534 5.13659 18
370 2 2.34018 -1.76401 -4.675 21
371 2 -6.93288 -4.97307 3.45427 16
372 2 2.79089 2.55587 9.67904 15
373 2 -1.24298 0.398383 -2.71183 25
374 2 -4.01879 5.83101 -2.00209 21
375 2 5.10075 1.36151 9.07733 13
376 2 2.26327 1.4457 0.923239 23
377 2 0.896691 3.63891 -8.46569 13
378 2 5.18811 -2.37192 3.26852 23
379 2 2.79017 3.9052 6.97188 24
380 2 6.56183 -5.50959 4.07047 16
381 2 -0.154147 -4.4493 1.31353 22
382 2 -3.12363 3.4636 1.21199 23
383 2 -10.7057 0.338004 -1.73607 12
384 2 -1.95837 6.74899 -5.19092 15
385 2 -7.65182 4.08054 -6.01846 14
386 2 -2.0483 -2.75067 2.71548 21
387 2 -4.63 -6.11209 5.78777 17
388 2 3.78083 10.5272 3.10946 12
389 2 -7.22891 -4.74278 -6.62832 15
390 2 10.3514 -0.90223 2.57961 11
391 2 -6.26864 7.61047 -0.812883 17
392 2 8.59946 -6.10461 1.26714 14
393 2 -4.3664 -7.40152 2.84892 18
394 2 -7.55214 -6.61486 -4.87096 15
395 2 4.30066 7.50709 -2.40589 15
396 2 -7.96265 7.3839 1.65279 13
397 2 4.61588 3.61465 1.43834 21
398 2 -2.71389 -7.1687 8.16515 12
399 2 -10.7163 3.56983 3.01714 11
400 2 -3.1863 6.70263 0.527483 23
401 2 0.270757 0.139093 9.87631 17
402 2 -7.97661 1.15822 -6.73975 14
403 2 6.18314 7.09328 -0.259836 16
404 2 -3.36964 4.31612 7.06357 17
405 2 0.218608 1.14612 6.20395 23
406 2 1.11759 2.72453 -2.15852 25
407 2 2.10029 -0.284699 -1.81336 23
408 2 -3.47893 0.903285 -5.07598 20
409 2 1.19579 5.87771 -3.05705 22
410 2 -3.06947 -2.13967 -3.54162 22
411 2 -2.40226 -1.04652 -7.76646 16
412 2 2.84168 -0.892051 5.14577 18
413 2 1.71415 5.58244 4.20216 20
414 2 9.20429 2.71827 -1.00794 15
415 2 3.15758 -4.97324 2.41831 22
416 2 7.27378 1.32603 -2.12522 23
417 2 4.69677 4.65815 4.39359 20
418 2 -5.38927 0.857813 0.438352 21
419 2 -1.54729 3.44509 -3.82804 21
420 2 -2.6253 1.13205 7.82928 15
421 2 -9.52767 -3.7417 -5.12084 12
422 2 2.28541 -3.05898 -0.540608 25
423 2 -1.73827 8.50517 2.5221 20
424 2 -8.03861 2.6932 4.27132 17
425 2 -5.20777 -0.262568 4.50076 22
426 2 -3.82001 -6.53618 -1.60421 20
427 2 5.53941 4.08121 9.26538 12
428 2 3.09555 3.71086 -4.22871 23
429 2 0.0855226 0.16616 -9.368 14
430 2 4.88905 6.22223 -5.30471 13
431 2 1.34521 -7.79573 -4.46554 16
432 2 8.53987 3.32721 7.13751 14
433 2 3.90048 6.64223 1.90572 20
434 2 0.859233 8.8779 -4.44386 12
435 2 -5.19149 -0.0528508 -8.06339 15
436 2 -2.31802 -5.5764 -9.19912 12
437 2 -7.18088 -2.91801 -3.5763 21
438 2 -3.4475 9.82968 4.32829 15
439 2 2.09506 9.79978 -1.60592 15
440 2 -3.89078 8.73268 -3.67754 12
441 2 -5.94254 5.10487 5.49353 17
442 2 -0.182525 -1.06905 0.262615 26
443 2 6.33776 3.28014 -6.38297 15
444 2 6.55312 -5.28984 -7.19546 12
445 2 -4.10375 -5.0785 1.46788 21
446 2 -6.7609 6.46155 -3.6979 15
447 2 -2.69244 1.84722 -9.00013 12
448 2 -4.92986 -4.91843 -4.17591 22
449 2 5.62012 -1.8553 8.47097 12
450 2 -5.22521 3.00582 3.0413 22
451 2 -4.37197 -10.4244 -3.30289 11
452 2 -8.05267 -0.573657 5.51636 13
453 2 4.90713 -0.602388 0.234825 23
454 2 2.88763 -6.71835 7.53822 14
455 2 -11.1808 1.85968 0.698168 11
456 2 -2.29293 -1.43604 8.96505 15
457 2 -0.210699 -8.77161 3.74766 15
458 2 7.30733 0.598916 7.41527 15
459 2 2.60448 -4.62743 -3.41139 22
460 2 -5.50933 5.35152 1.80439 21
461 2 -8.06029 -2.09977 -7.32066 15
462 2 -5.00415 -1.41906 7.17768 16
463 2 5.00277 -7.59128 5.36392 13
464 2 4.07532 2.15629 -1.32238 25
465 2 4.92638 -0.830953 -6.69081 23
466 2 5.24583 1.85278 6.08541 22
467 2 -5.10809 2.87951 -7.12409 16
468 2 6.49319 -2.51933 5.82076 15
469 2 4.86893 -3.32838 -5.31669 22
470 2 -5.0485 -3.29238 -1.28214 22
471 2 -2.95292 0.355801 2.5213 23
472 2 8.85258 -4.18477 -5.23448 15
473 2 3.72308 -6.07142 -0.476418 21
474 2 5.57495 -3.82203 0.491687 20
475 2 6.05027 -4.74341 -2.60208 23
476 2 -0.343609 4.1774 6.398 23
477 2 6.39598 3.63583 -3.71446 16
478 2 -10.0323 -1.42654 0.962765 14
479 2 4.57765 0.579738 3.21448 22
480 2 -7.68579 1.68089 -1.39198 18
481 2 6.54032 -8.05632 2.06545 13
482 2 4.86843 9.38329 0.496932 11
483 2 10.0999 0.037705 -0.37807 16
484 2 6.8029 4.38109 -0.971361 16
485 2 0.831384 -3.59875 4.32682 20
486 2 4.03892 -9.28456 -0.254677 14
487 2 9.63926 -3.44448 0.22651 13
488 2 1.22975 -9.26867 -2.05339 15
489 2 -1.14903 -9.40098 -5.1113 12
490 2 1.42374 7.29506 -0.107214 19
491 2 1.99399 8.97057 5.64316 14
492 2 -1.87629 -10.8158 -0.828282 12
493 2 0.566226 -2.12214 6.94445 17
494 2 -2.75962 5.25992 3.6206 21
495 2 9.63992 1.55887 5.26616 12
496 2 10.0632 0.362852 -3.21249 14
497 2 0.39801 -0.348557 3.08212 21
498 2 -2.33454 4.24065 -7.03482 16
499 2 -6.27639 -8.39838 -2.80801 17
500 2 6.53536 -7.16558 -0.871362 16
