ITEM: TIMESTEP
2121000
ITEM: NUMBER OF ATOMS
500
ITEM: BOX BOUNDS pp pp pp
-30.0 30.0
-30.0 30.0
-30.0 30.0
ITEM: ATOMS id type x y z Coordination
1 1 -2.29206 1.78493 -3.35934 25
2 1 3.74366 -4.34913 4.01279 18
3 1 0.0557982 4.26006 10.1055 12
4 1 4.10559 -1.42185 2.24104 22
5 1 -6.92292 4.74841 1.10617 22
6 1 -1.34074 -1.50611 -3.81241 21
7 1 1.22939 -0.161415 6.90415 21
8 1 3.38162 -3.10106 -6.27078 23
9 1 -10.6018 4.72156 -1.63185 9
10 1 2.70689 -0.713832 -8.84766 14
11 1 5.95277 -7.02869 -3.33199 17
12 1 6.25619 -0.0547562 6.66414 17
13 1 2.80719 5.01771 -7.83894 13
14 1 -1.20038 8.65003 5.70228 14
15 1 -0.104782 5.81586 5.56472 18
16 1 -6.37289 -1.60973 2.86682 21
17 1 -11.3 -1.5015 -0.0824347 10
18 1 9.7762 -3.12829 -2.43919 14
19 1 3.7096 1.90268 7.61793 23
20 1 -5.53456 -6.85468 2.93701 17
21 1 -5.43572 -4.93516 -7.11863 13
22 1 2.82378 0.0886372 -5.89801 21
23 1 10.7661 -2.61181 -5.70182 12
24 1 7.52669 -6.87996 4.84698 9
25 1 -5.24896 7.26434 2.35145 22
26 1 3.7086 0.677512 4.97756 23
27 1 0.922916 8.03546 0.217843 26
28 1 0.816065 0.910173 -3.0294 23
29 1 -1.79809 -4.74346 -7.07865 13
30 1 -2.07122 2.138 9.16399 16
31 1 6.20794 -1.93229 3.87072 21
32 1 -7.73376 8.74492 2.78734 13
33 1 -2.92954 4.93719 1.96686 20
34 1 4.17406 7.2599 -5.36482 13
35 1 7.02133 7.42427 -0.759056 12
36 1 0.669895 6.2997 -5.34805 21
37 1 2.11446 -5.07201 -2.09504 20
38 1 -1.54187 6.10419 -8.07555 14
39 1 -2.44389 3.03077 -0.439651 23
40 1 -0.700181 7.3861 -2.46125 21
41 1 2.25223 6.46504 -2.2209 21
42 1 -11.5354 2.26664 0.747262 12
43 1 2.6029 4.19136 8.47858 15
44 1 -3.52978 0.46746 -9.32975 12
45 1 -5.75638 -3.45061 8.07993 13
46 1 -2.02261 1.53778 2.01957 21
47 1 -1.97961 -1.32818 3.55635 22
48 1 -6.79772 -1.70877 -2.82416 23
49 1 3.42968 -8.5719 -2.37829 17
50 1 -7.55581 1.49774 2.85066 21
51 1 -8.21387 0.0900611 -4.87998 15
52 1 -0.76156 -9.53676 4.93955 13
53 1 8.54383 2.89848 -4.59406 11
54 1 -3.95388 -3.99428 2.91101 21
55 1 -7.87779 -6.46048 -5.82545 10
56 1 2.13755 2.43823 -10.26 12
57 1 0.309856 4.09918 2.59057 23
58 1 -2.08501 3.12696 4.69136 24
59 1 -5.2347 2.28507 1.05311 23
60 1 4.40396 -4.23943 -3.73744 21
61 1 1.0494 10.3357 -2.25225 11
62 1 -11.7411 0.641949 2.80841 10
63 1 2.01904 9.05742 5.92202 14
64 1 3.73542 -0.484801 9.39596 17
65 1 1.44356 -9.77142 -4.41952 13
66 1 10.0498 0.090495 -3.78159 14
67 1 -2.46515 -6.94577 2.92807 22
68 1 3.47976 -10.1762 0.85487 15
69 1 6.19321 -2.54823 8.37605 13
70 1 -0.675965 -4.05601 3.30029 20
71 1 5.41535 9.57135 1.03345 13
72 1 -3.81893 -8.12464 5.59228 10
73 1 -0.0150761 -10.5795 1.75693 15
74 1 -3.96295 -5.41662 0.255452 21
75 1 2.22678 -3.66454 1.21282 21
76 1 -5.707 -5.01 -2.68685 22
77 1 5.30944 3.99011 -5.63809 17
78 1 5.88287 -4.37339 1.7079 21
79 1 -4.299 -1.87954 5.49087 24
80 1 -9.26693 0.571739 5.28904 13
81 1 6.3712 -8.72668 -0.302053 14
82 1 -6.01339 -5.12566 5.49648 15
83 1 0.181079 2.97253 6.75134 23
84 1 -9.26238 -1.7 2.37187 16
85 1 -2.68484 7.83681 0.269139 21
86 1 -9.80179 6.61575 1.85076 11
87 1 0.572693 1.1536 3.84227 21
88 1 -2.55226 4.95699 7.59346 15
89 1 -7.45113 -3.20806 -5.08799 18
90 1 0.241786 -6.25197 1.90169 18
91 1 -8.32592 3.38773 -3.95685 15
92 1 -4.12507 -3.10972 -4.67075 23
93 1 5.8917 4.124 8.7539 10
94 1 -5.31173 6.69552 -0.769937 22
95 1 -0.950175 -2.49885 6.23938 19
96 1 -5.70823 -1.51635 -7.22375 14
97 1 -9.90073 0.936865 -2.10345 16
98 1 -1.15661 -10.3312 -2.1434 12
99 1 -3.44581 -2.85727 -1.4994 22
100 1 3.15851 1.90417 2.19663 22
101 1 -7.49011 6.0063 4.09543 17
102 1 2.57069 3.79828 5.16776 18
103 1 -2.90826 5.09452 -2.43146 22
104 1 -0.093844 -7.98944 -6.89581 12
105 1 -0.338251 10.7496 1.28489 15
106 1 5.37762 2.19982 -2.98206 19
107 1 -4.97679 3.1342 -4.82234 21
108 1 -6.71284 8.84481 -3.30759 12
109 1 -2.1358 -9.04467 -4.94087 14
110 1 2.59981 -7.8093 5.50687 12
111 1 -4.62022 5.1193 -6.78385 14
112 1 -3.76843 -0.523814 8.50056 14
113 1 3.29738 0.287518 -0.561904 24
114 1 -7.62789 3.00703 5.84927 15
115 1 -1.33663 -4.39023 -2.56344 19
116 1 1.4299 -4.18273 6.41603 20
117 1 -1.26256 -5.38657 8.00933 14
118 1 1.1099 -5.24435 -7.47555 17
119 1 7.83303 1.61235 -0.622627 18
120 1 -5.29514 4.03577 3.67982 23
121 1 5.47853 -1.36211 -7.6613 17
122 1 -0.539326 5.56492 0.0411548 21
123 1 8.01508 -5.07428 6.93703 10
124 1 -6.45534 -7.75442 -2.73924 14
125 1 -4.47958 0.914274 3.98919 21
126 1 3.38401 2.40902 10.8382 12
127 1 9.75459 5.33857 0.634584 10
128 1 -2.94326 2.18732 -6.6213 22
129 1 0.618758 5.61351 -9.93471 9
130 1 2.7957 10.756 -0.136268 13
131 1 4.46502 1.93293 -8.13799 14
132 1 1.48431 -7.7976 -0.505779 22
133 1 5.58442 2.68642 -0.149504 19
134 1 5.27992 -8.85575 3.07205 11
135 1 1.77959 -8.60873 2.9195 19
136 1 -2.99591 4.06907 -9.56134 11
137 1 2.86505 4.69791 0.338368 19
138 1 9.5133 -0.673419 -0.642073 19
139 1 -0.56103 3.7376 -5.94538 17
140 1 -4.54181 8.70851 -5.79161 11
141 1 2.76969 -6.75992 -5.19397 22
142 1 -1.25265 -6.04602 -0.360762 19
143 1 -8.08715 -2.80642 5.40683 16
144 1 1.25885 -10.6763 -1.16419 12
145 1 3.34482 -6.86115 -8.29981 10
146 1 3.70797 7.63169 0.629374 21
147 1 4.72329 -6.20151 -1.0389 24
148 1 7.00308 -2.70217 -5.07675 23
149 1 -6.19551 -3.36503 0.199344 23
150 1 -5.4036 -7.78588 -5.65923 10
151 1 0.640523 -2.67389 9.1996 17
152 1 2.1794 -1.13297 11.6451 10
153 1 8.07438 -3.86512 -7.82334 13
154 1 -7.74187 5.73389 -1.97477 17
155 1 4.65784 5.37918 -3.23965 17
156 1 6.11701 0.82966 -5.60365 16
157 1 0.805856 -0.815122 1.33032 21
158 1 -0.143328 -0.479264 -9.8138 15
159 1 -9.58384 3.63227 3.15298 17
160 1 3.59063 -3.89573 9.70301 12
161 1 6.3064 1.12844 2.58985 23
162 1 -5.78193 1.57713 -7.19727 13
163 1 8.58632 -4.0354 3.71957 15
164 1 -1.783 -8.77016 0.129397 19
165 1 6.09513 2.80058 5.39516 17
166 1 1.70057 -6.40746 8.06666 12
167 1 0.529214 2.07805 0.0518016 23
168 1 3.73605 -1.94905 6.26144 21
169 1 6.38725 -0.827734 -2.64357 21
170 1 7.77353 3.76562 2.88331 17
171 1 6.80941 -3.60001 -1.90372 21
172 1 8.63487 0.94395 4.47357 15
173 1 -3.52514 -6.12973 -4.45811 21
174 1 4.29823 6.85477 7.39771 13
175 1 -5.43467 3.63421 -1.83375 25
176 1 -2.67167 6.16614 -5.07665 22
177 1 -1.81371 0.545475 6.09904 20
178 1 -0.308485 -7.2787 -3.30183 22
179 1 -4.90569 -8.63623 0.272719 15
180 1 4.72381 4.74685 2.83494 22
181 1 -5.47699 8.11927 5.44988 11
182 1 -8.28252 8.18642 -0.261551 13
183 1 7.41536 6.41032 -4.1966 11
184 1 0.962887 0.932567 10.1854 15
185 1 -7.03177 -0.032387 0.101787 19
186 1 2.63539 -3.27148 -9.52401 15
187 1 -3.32721 6.64577 4.61617 22
188 1 3.64144 -0.893467 -3.16501 20
189 1 2.22576 9.31791 2.71283 19
190 1 3.59849 -6.71007 1.67524 19
191 1 -2.86764 9.62016 3.23591 14
192 1 -4.05767 -1.09298 1.10405 22
193 1 5.89902 -5.60861 -6.12144 17
194 1 1.57174 -3.2843 -4.42095 20
195 1 4.93155 -5.91587 7.34931 13
196 1 -0.103414 0.707448 -6.13404 18
197 1 1.00884 -2.25005 -1.65154 23
198 1 -5.61487 5.2131 7.03763 12
199 1 9.0608 -1.16275 2.48692 15
200 1 -0.971466 9.27507 -4.98252 12
201 1 1.33989 -1.68091 4.07012 23
202 1 8.25718 4.70077 -2.2845 16
203 1 -1.45019 -0.716614 10.9558 10
204 1 -2.75958 -3.36567 9.52361 12
205 1 -3.59906 8.61135 -2.7111 20
206 1 4.86033 8.3371 4.17193 15
207 1 -8.04219 -4.64426 2.73355 14
208 1 6.37779 -1.10689 0.525544 22
209 1 -7.38361 -6.46057 -0.0371534 16
210 1 6.15096 5.56517 5.40832 14
211 1 8.61705 -6.49354 -1.76359 13
212 1 2.92621 3.01598 -2.26055 21
213 1 2.22287 6.55795 3.24942 20
214 1 -9.90539 -2.35043 -2.99088 13
215 1 -0.0948886 4.12494 -2.62765 20
216 1 1.49094 7.81339 -7.35268 11
217 1 -4.71218 -0.305925 -4.81314 23
218 1 4.98263 -4.15311 -8.56596 12
219 1 -3.447 -8.01397 -2.15549 18
220 1 -1.33313 -0.188991 -0.880821 24
221 1 -3.4966 -4.52237 6.44226 17
222 1 8.60349 -3.89883 0.585731 15
223 1 -8.44562 2.91896 -0.365505 21
224 1 -0.807927 2.35429 -9.04484 16
225 1 -8.99527 -5.46732 -2.92829 12
226 1 8.21955 -1.84128 6.00869 14
227 1 4.48439 -2.6908 -0.630291 22
228 1 -2.42879 -1.50602 -7.2609 17
229 1 -5.61642 9.57305 0.0563126 14
230 1 -6.32632 -0.259657 6.26544 17
231 1 -4.39202 0.376243 -1.65961 23
232 1 7.15713 6.94336 2.25113 15
233 1 9.7085 1.92789 1.41012 16
234 1 -0.676584 -6.77157 5.26152 18
235 1 8.77085 -0.817752 -7.17299 10
236 1 2.57165 3.06165 -5.32753 21
237 1 -0.210347 11.3207 4.63749 8
238 1 4.09983 8.59743 -2.0544 16
239 1 10.6191 2.63214 -1.44352 12
240 1 -1.08313 -3.07915 0.672635 20
241 1 -4.64175 2.1343 6.80375 19
242 1 8.80231 -5.25238 -4.69767 15
243 1 0.494253 -2.2452 -7.05679 19
244 1 1.15656 7.07136 8.24637 11
245 1 -6.88639 1.33493 -2.47689 22
246 1 -0.7909 7.43449 2.60263 23
247 1 -3.16096 -9.93208 2.81441 12
248 1 7.40078 -6.94872 1.74771 14
249 1 -8.86784 -3.59629 -0.209034 16
250 1 -5.53178 6.08438 -3.90042 18
251 2 -10.2483 -0.0733031 3.63463 14
252 2 6.59651 5.27806 3.00798 17
253 2 2.22443 -4.85202 8.85958 13
254 2 -5.71376 -0.153208 -2.9804 23
255 2 -10.0227 5.74398 -0.0538955 14
256 2 -1.94413 -8.29276 5.60682 13
257 2 3.18644 0.489731 11.257 11
258 2 7.13358 -0.744475 2.40782 25
259 2 -1.81184 -4.20465 -0.737049 18
260 2 -4.50971 6.5966 6.18082 16
261 2 -1.02421 5.66015 2.03308 22
262 2 7.63235 -2.33731 -3.36726 21
263 2 7.87872 -6.65728 -3.62005 12
264 2 -3.79822 1.5559 -4.82433 19
265 2 1.51935 -3.73647 -6.43972 20
266 2 -2.69088 -2.8044 -3.21196 19
267 2 -0.892162 -6.07458 3.51382 19
268 2 -6.25855 8.63899 1.42426 17
269 2 8.47252 -2.16606 4.26434 16
270 2 2.97949 -6.73666 -1.26762 18
271 2 -1.3321 1.52295 0.151553 23
272 2 5.99781 8.50401 2.51992 14
273 2 1.3445 5.463 9.25238 13
274 2 0.480879 10.1808 5.92539 10
275 2 3.19509 6.62588 -7.03117 13
276 2 9.37931 -2.64605 -7.40606 10
277 2 -8.72605 1.51776 -3.77053 14
278 2 0.158768 -6.32572 7.02421 14
279 2 -8.21483 3.42327 1.79319 20
280 2 4.84251 -6.68393 -4.88843 16
281 2 1.79267 -10.3552 1.70762 12
282 2 6.48353 -2.84228 -8.54581 14
283 2 -1.40492 7.00915 4.36601 20
284 2 4.87863 -1.25101 8.10799 18
285 2 -3.27478 -9.37946 0.970837 16
286 2 3.14952 -3.76297 5.649 17
287 2 -1.34663 -10.2827 3.09046 13
288 2 1.58696 1.142 -4.75547 20
289 2 -0.590625 -6.14066 -7.02002 15
290 2 -6.70978 -3.56283 6.50465 14
291 2 -5.80153 -6.99061 0.964071 17
292 2 -7.54633 -6.17088 -1.97672 16
293 2 -2.10244 9.14542 1.6581 17
294 2 3.76947 -2.51835 -8.07248 18
295 2 8.18883 6.74289 0.730794 12
296 2 3.81727 3.3322 -6.94756 16
297 2 -3.67735 2.20124 -1.92274 23
298 2 -6.46187 2.99117 -3.51568 22
299 2 6.95804 1.96737 1.09427 21
300 2 0.738406 10.1972 -0.255816 14
301 2 -7.05852 8.15762 4.48991 11
302 2 0.888729 4.15891 0.678446 22
303 2 3.07057 10.1667 -1.76693 13
304 2 -4.56822 6.79016 -5.69134 17
305 2 -1.64139 4.24182 9.17039 10
306 2 -3.17149 1.71149 5.04922 23
307 2 2.94626 -2.2846 10.2986 13
308 2 1.78306 -7.33292 -7.02378 13
309 2 0.615104 -10.6035 -2.92361 12
310 2 -4.03537 -1.60447 -5.98326 21
311 2 -3.07532 -1.15032 -0.935113 20
312 2 -1.54991 4.47183 -1.26441 22
313 2 -9.48436 -3.88912 -1.91684 15
314 2 8.60722 -4.43752 -1.37276 15
315 2 5.21259 7.1936 5.54964 14
316 2 1.20107 -1.7932 -9.43796 13
317 2 2.25602 -5.29647 -9.17358 11
318 2 5.12812 0.370591 -3.62791 20
319 2 -6.14549 -6.56982 -6.79065 11
320 2 1.51066 -0.185058 -7.32769 22
321 2 9.88694 -0.911345 -5.47949 11
322 2 -5.06306 -2.76293 1.77867 23
323 2 -1.29166 -3.05281 -7.47333 14
324 2 0.158494 -3.11734 -3.14423 18
325 2 4.03453 3.59403 -3.95671 19
326 2 -0.178812 -8.71548 -5.2154 13
327 2 0.399002 1.38204 -10.0671 12
328 2 -1.99748 10.3831 4.7865 11
329 2 -7.93057 -4.83223 0.865017 16
330 2 -6.66858 1.75522 6.79481 15
331 2 -6.16212 5.46037 2.78256 25
332 2 -7.7955 -2.82239 3.465 17
333 2 -3.87137 -4.40318 8.27591 14
334 2 -10.5314 2.89314 -0.832629 12
335 2 3.19869 -6.96113 7.09826 11
336 2 7.27744 -0.145971 -1.07101 23
337 2 -0.933738 -1.15075 -5.69307 22
338 2 0.983783 7.88434 2.21243 19
339 2 -0.205127 7.27671 6.806 12
340 2 0.460234 -1.09201 10.5389 13
341 2 -9.15266 5.5167 3.21292 15
342 2 2.28605 2.15776 4.16249 21
343 2 -8.43819 -1.70179 -4.18792 15
344 2 4.67958 -2.39593 -2.50362 22
345 2 9.37362 3.77957 1.86685 14
346 2 -7.64411 -0.472783 1.86052 20
347 2 -1.22126 5.63812 -6.15594 20
348 2 4.82259 -5.77504 -7.62075 15
349 2 -7.25317 6.23831 -0.150544 24
350 2 1.8471 -7.36298 1.43206 22
351 2 6.74295 2.68941 -5.46639 15
352 2 5.22847 -8.27669 -1.65087 16
353 2 3.60216 -8.18872 3.68834 13
354 2 -4.14613 8.35022 -0.840584 17
355 2 0.14166 -6.8298 -1.33566 21
356 2 -1.0854 -7.31019 1.18589 21
357 2 2.67283 7.90017 7.60064 10
358 2 -0.0733255 9.35996 -3.12319 15
359 2 -2.39115 -1.26023 5.65827 20
360 2 -1.59625 -4.479 6.30251 18
361 2 -0.695685 2.51747 3.21767 21
362 2 -4.43262 -3.9419 4.76864 21
363 2 1.95604 4.12233 -9.36919 12
364 2 2.20671 -1.83997 2.1252 23
365 2 10.2202 -1.21983 -2.44914 13
366 2 2.29505 0.641615 8.53685 23
367 2 -6.75705 -1.93157 -0.94287 23
368 2 3.21178 4.86771 -1.63241 18
369 2 3.02131 8.23569 4.27442 15
370 2 2.94883 -1.61678 -4.85346 21
371 2 -6.85544 -5.58484 3.79356 14
372 2 1.3218 2.94774 10.5552 14
373 2 -0.951875 0.180466 -2.76029 21
374 2 -6.43574 3.26207 -0.327391 21
375 2 4.33086 3.08162 9.24078 13
376 2 1.88195 0.88 0.811134 23
377 2 3.24656 1.23497 -9.46921 12
378 2 5.08452 -3.07365 2.78677 20
379 2 2.06547 3.13424 7.02151 19
380 2 8.72436 -5.33906 5.18431 9
381 2 0.373985 -4.21289 1.40277 19
382 2 -3.32389 3.02685 1.6479 21
383 2 -10.8026 -0.959608 -1.96572 10
384 2 -2.83447 9.01879 -5.36736 11
385 2 -3.39851 5.47854 -8.20463 11
386 2 -2.11637 -2.94502 2.59505 21
387 2 -4.87595 -6.7047 6.10899 13
388 2 3.54171 9.8242 1.26916 17
389 2 -6.52074 -3.41417 -6.71531 12
390 2 9.59571 0.745603 2.89015 14
391 2 -7.13047 9.08929 -1.37738 12
392 2 7.90887 -5.01927 2.2369 15
393 2 -3.81864 -8.4381 3.46646 16
394 2 -6.95852 -7.60822 -4.5128 12
395 2 0.516184 5.92876 -3.10345 22
396 2 -9.00433 8.19398 1.58767 12
397 2 4.2175 3.39267 1.13215 18
398 2 -0.945179 -3.80584 9.14206 15
399 2 -11.1278 2.41533 2.71842 11
400 2 -2.57934 6.94847 -3.1387 22
401 2 -1.2172 1.02261 10.1135 11
402 2 -8.89036 4.38816 -2.48033 15
403 2 5.26203 8.30052 -0.472257 15
404 2 -4.14651 3.97425 7.47482 16
405 2 -0.0956596 1.02128 6.03585 22
406 2 0.982757 2.55425 -1.94782 23
407 2 2.02004 -0.598174 -2.09524 24
408 2 -5.08416 3.30713 -6.85721 13
409 2 -1.0473 2.15057 -6.94218 20
410 2 -2.90586 -6.84247 -0.810941 21
411 2 -3.77094 4.66711 -4.46947 20
412 2 2.56946 -0.63372 5.40106 21
413 2 1.26 5.17366 4.32502 20
414 2 9.77116 4.18083 -0.959888 12
415 2 2.98517 -4.8995 2.42768 18
416 2 6.97692 3.06672 -1.95937 19
417 2 4.45714 4.13365 4.77794 21
418 2 -5.0924 0.302248 0.0977164 27
419 2 -1.19031 3.1275 -3.97961 23
420 2 -2.96981 1.15041 7.74666 18
421 2 -8.07434 -4.98749 -4.6234 15
422 2 2.71217 -3.69408 -0.805964 21
423 2 -0.868301 7.43485 -0.50314 22
424 2 -8.5126 2.08554 4.45131 16
425 2 -5.57679 -0.800668 4.54178 22
426 2 -2.2132 -9.22218 -3.02424 16
427 2 4.47099 5.45518 8.51731 14
428 2 1.35605 4.45591 -5.78248 19
429 2 -0.825343 4.31833 -9.68786 13
430 2 5.55751 5.95434 -4.93103 12
431 2 2.54013 -8.18285 -4.00269 18
432 2 6.43979 4.27997 6.85037 12
433 2 3.31546 6.04458 1.71565 21
434 2 0.461324 6.82339 -8.5538 11
435 2 -4.80581 0.0999608 -7.99865 12
436 2 -3.71074 -4.68622 -5.99032 18
437 2 -5.80081 -3.11467 -3.7453 22
438 2 -4.04044 8.11448 3.62669 18
439 2 0.211287 8.20117 -6.01315 13
440 2 -5.00888 8.92805 -3.88262 13
441 2 -6.90906 4.68377 5.46733 16
442 2 -0.0627855 -1.64285 -0.197271 23
443 2 4.70738 0.373 -6.89602 17
444 2 7.69907 -4.57243 -6.15551 15
445 2 -3.86584 -5.91637 2.24072 19
446 2 -7.01911 6.88941 -3.3582 16
447 2 -1.78992 -0.535828 -8.85057 16
448 2 -1.8562 -6.16685 -3.48638 19
449 2 5.24714 -1.24256 5.35465 19
450 2 -5.68695 2.09541 2.98257 23
451 2 -4.73459 -6.73541 -3.16828 20
452 2 -8.134 -0.950628 5.8285 15
453 2 4.46218 -0.987795 0.270725 24
454 2 6.46855 -6.43452 6.37687 8
455 2 -11.7164 0.304919 0.88182 10
456 2 -2.88769 -1.5573 10.102 12
457 2 0.841488 -8.48343 4.91524 15
458 2 8.15842 0.0388402 6.1745 14
459 2 2.59461 -4.94331 -4.06271 21
460 2 -3.9364 6.35977 0.966872 24
461 2 -6.42746 0.0899504 -5.82862 18
462 2 -5.16206 -1.43388 7.55616 17
463 2 5.09456 -4.26337 8.32593 12
464 2 4.14513 1.80996 -1.46408 22
465 2 6.97363 -0.8284 -6.50705 16
466 2 4.9534 1.47183 6.33002 21
467 2 -4.93016 5.42617 -2.02674 22
468 2 7.38227 -3.28402 7.09601 15
469 2 5.10117 -3.7111 -5.37785 24
470 2 -4.91694 -4.18819 -0.903136 22
471 2 -3.18017 -0.120346 2.64499 23
472 2 10.2345 -3.78289 -4.3803 12
473 2 5.03993 -5.79454 0.784035 22
474 2 6.3813 -3.04981 0.0133989 21
475 2 5.67822 -5.17999 -2.3976 23
476 2 -1.3849 4.29284 6.14097 21
477 2 8.51235 4.84225 -4.32462 10
478 2 -10.0642 -2.4907 0.986241 14
479 2 4.51958 0.513697 2.9168 21
480 2 -8.24172 0.896142 -1.08468 21
481 2 6.77422 -7.83885 3.2935 13
482 2 3.61283 7.27093 -3.51606 15
483 2 9.86282 1.26196 -0.42375 15
484 2 6.90953 6.2716 -2.28584 12
485 2 0.381925 -3.24692 4.90033 21
486 2 5.19935 -9.39868 1.02218 16
487 2 9.31756 -1.99338 0.781171 16
488 2 2.73068 -9.48168 -0.809757 19
489 2 -3.49585 -8.00227 -5.42085 14
490 2 2.44516 7.61241 -0.769013 23
491 2 0.718665 10.7245 2.91389 16
492 2 -0.309581 -10.0413 -0.197381 15
493 2 0.678887 -2.10376 7.28564 19
494 2 -3.514 4.72359 3.70742 23
495 2 7.23382 2.13778 4.14723 19
496 2 9.61761 1.906 -3.18914 14
497 2 -0.196639 -0.564648 3.14746 21
498 2 -3.15125 2.29536 -9.07407 13
499 2 -5.16912 -8.72435 -1.69269 13
500 2 7.67056 -7.22612 -0.140408 15
