ITEM: TIMESTEP
6000
ITEM: NUMBER OF ATOMS
2000
ITEM: BOX BOUNDS pp pp pp
-30.0 30.0
-30.0 30.0
-30.0 30.0
ITEM: ATOMS id type x y z Coordination
1 1 -9.84985 4.02326 -12.023 16
2 1 -0.733883 -11.0654 -8.04576 17
3 1 1.22613 12.4835 12.2155 16
4 1 6.02572 -10.5867 5.48692 19
5 1 -10.3089 7.05602 -1.24877 23
6 1 10.5212 -9.31625 -9.46873 10
7 1 -14.197 3.55139 -5.06803 17
8 1 0.268694 -1.64137 11.1032 19
9 1 -11.1669 -1.74895 -11.0311 11
10 1 -16.0837 -9.56242 7.97472 9
11 1 12.0939 5.33499 -8.27422 18
12 1 -4.62611 -10.7746 3.78014 16
13 1 -15.9543 -9.40001 4.57026 12
14 1 -1.07891 4.80797 16.9813 12
15 1 -1.25344 4.70045 8.20737 19
16 1 -4.41777 8.55068 -8.68299 17
17 1 0.711807 5.66902 14.6721 17
18 1 -6.88029 -2.76662 -15.6597 11
19 1 -14.7899 -1.37454 13.042 14
20 1 14.6901 3.47041 5.71821 18
21 1 -3.37277 11.0027 -7.90766 19
22 1 4.87774 7.81385 -11.1962 17
23 1 14.822 2.36904 11.4516 8
24 1 -14.3803 3.51997 -8.68558 11
25 1 -2.22141 -3.82178 -7.81115 20
26 1 -12.4472 11.3235 12.4082 9
27 1 5.64501 -13.8072 4.17887 11
28 1 0.357718 -12.5791 -11.3486 13
29 1 7.9532 -11.6935 3.65377 13
30 1 -10.2179 -15.7905 -5.8177 8
31 1 -12.87 -5.11057 10.6367 14
32 1 3.49024 -7.83243 -12.6641 17
33 1 8.32948 -10.8523 -7.4967 18
34 1 -1.89133 5.22474 -13.8103 17
35 1 6.31941 10.0788 14.5812 17
36 1 -0.866628 -11.9096 7.83469 18
37 1 2.4745 -5.21035 9.79983 20
38 1 -13.8284 -0.798473 1.763 17
39 1 -14.9553 2.91726 11.7213 14
40 1 -10.867 1.72646 -0.197776 20
41 1 -4.99234 14.5002 1.53807 21
42 1 -5.31436 -14.8708 -9.08159 15
43 1 0.354974 3.65956 -10.0726 15
44 1 5.76262 -3.53118 -7.9 16
45 1 3.73016 -4.24429 12.8596 17
46 1 -11.6871 10.1235 0.137167 26
47 1 3.93526 13.656 -7.33454 20
48 1 0.632226 13.1767 8.06809 19
49 1 -11.4407 3.79598 -7.91746 18
50 1 -3.20055 17.1868 -0.0173831 13
51 1 2.69219 -12.4702 2.51822 20
52 1 6.1217 -6.84457 -2.53953 21
53 1 6.33222 -7.17845 -12.247 14
54 1 -11.4398 9.86577 8.88886 16
55 1 -11.3946 -8.54626 -9.06947 12
56 1 8.11393 -2.07782 5.72772 18
57 1 -11.283 9.28649 -2.72404 20
58 1 -8.8107 -10.3485 4.44474 20
59 1 -5.67369 14.3425 6.99878 14
60 1 -12.438 5.62162 -6.41995 16
61 1 -5.84006 9.70541 14.2348 13
62 1 -7.05723 -13.8864 7.8282 18
63 1 2.53105 4.8872 8.63205 20
64 1 11.1875 -9.5228 -1.85971 14
65 1 5.16613 12.5232 15.4225 12
66 1 -12.5167 2.03425 -10.3028 14
67 1 -12.2713 5.74001 -10.2818 12
68 1 2.34641 9.30495 11.0727 18
69 1 11.4003 -0.109683 -12.8928 11
70 1 6.87813 -12.4412 7.3159 11
71 1 -15.2878 2.07647 8.91327 13
72 1 4.14623 15.1385 6.14674 18
73 1 5.07281 -2.21537 14.9312 13
74 1 -11.6061 -15.1149 4.37096 11
75 1 -12.8151 -1.19106 -0.798574 18
76 1 11.086 3.2227 6.82996 14
77 1 -7.10059 11.9283 8.82006 21
78 1 5.86944 -1.23306 8.18029 20
79 1 -3.85226 -6.37291 -7.90633 20
80 1 -12.3855 6.94273 13.3385 13
81 1 -8.84828 10.1751 -0.811086 21
82 1 0.0386144 5.13093 -7.86582 20
83 1 7.57205 -1.81037 -5.07475 21
84 1 8.93434 11.0395 -8.69664 11
85 1 11.3329 -2.05936 5.5329 19
86 1 3.41784 -11.3613 11.2268 10
87 1 -6.53267 15.7017 -5.18454 11
88 1 -8.91113 9.26927 6.64629 18
89 1 -8.33235 -1.58715 16.1351 14
90 1 -4.13196 7.32031 5.06682 24
91 1 -8.60225 -7.09643 6.27226 20
92 1 12.4464 -5.22679 -5.44546 15
93 1 -9.03403 2.22182 7.57123 18
94 1 -8.59892 -15.5611 5.53782 21
95 1 9.28978 -4.80318 -5.20689 21
96 1 5.62176 -1.43531 -11.6815 19
97 1 -7.8715 -1.46796 -10.7038 17
98 1 -0.683925 10.8022 2.48793 22
99 1 -10.4769 7.75613 -5.37179 18
100 1 -0.335183 10.0047 18.3598 12
101 1 -1.64713 12.3899 -4.32534 16
102 1 -12.7749 11.5555 3.09369 13
103 1 1.0324 9.82358 -0.29876 19
104 1 -6.40684 -7.97362 4.59603 20
105 1 15.1788 2.18576 7.78763 13
106 1 -0.96224 -6.38769 -9.27358 15
107 1 1.51787 -5.3404 -10.7009 16
108 1 -3.82349 5.25934 6.79359 21
109 1 2.47353 -2.24667 15.6406 9
110 1 -12.7966 -7.21915 0.167105 18
111 1 -8.24722 -9.43205 -4.44555 19
112 1 8.66338 -8.54823 4.15744 15
113 1 -2.47889 8.10532 2.70246 21
114 1 7.96197 5.51213 -13.7425 15
115 1 4.80633 16.381 -2.06784 14
116 1 -8.58775 -13.0181 10.6684 13
117 1 -9.85201 -15.0327 7.92149 10
118 1 5.80364 -10.4728 -11.692 14
119 1 4.21302 4.25784 -4.693 22
120 1 10.9521 -10.0505 2.04628 11
121 1 -3.89998 -18.5678 5.83652 14
122 1 -14.713 -10.0749 0.514288 15
123 1 13.8448 9.9483 11.6531 11
124 1 16.1189 1.61784 -7.03412 8
125 1 -17.3395 -3.23882 6.51244 11
126 1 11.1035 9.21065 11.3547 14
127 1 15.0778 12.6349 2.79844 11
128 1 -1.6058 -6.24328 13.7757 11
129 1 -7.49978 9.55911 10.8638 19
130 1 -4.9207 12.9848 -3.61245 14
131 1 -1.37547 -9.96554 -14.2101 15
132 1 9.58608 -12.1232 -10.1518 10
133 1 -0.489183 12.0254 -10.0469 14
134 1 7.10185 -4.53396 13.9855 12
135 1 -0.960893 3.06759 -16.5674 10
136 1 -2.38213 7.49684 -3.17919 20
137 1 9.29735 -0.992668 -2.28304 23
138 1 -14.0502 5.9769 -3.66515 14
139 1 -9.75826 15.6198 1.34805 9
140 1 9.68684 -0.49051 -8.06744 21
141 1 6.47579 -6.8265 7.10749 18
142 1 -6.69495 1.28803 -5.5823 21
143 1 -9.94688 11.9411 11.4989 16
144 1 14.1796 11.401 -5.60982 10
145 1 6.50588 8.72132 -1.72113 18
146 1 -4.5286 15.4395 4.41737 13
147 1 12.1474 8.94177 -0.0868458 23
148 1 -3.17312 12.6071 -0.616811 20
149 1 1.49091 16.5859 -9.48672 6
150 1 0.950428 4.97943 -14.2159 17
151 1 -15.7749 -4.34571 3.90803 17
152 1 -14.7563 8.94738 2.20158 12
153 1 -5.98277 -1.23532 -13.19 20
154 1 0.926986 -7.40606 -14.5916 14
155 1 10.5594 12.6612 10.216 10
156 1 -0.621236 16.1838 8.61551 11
157 1 -12.0771 -3.21559 -4.10697 19
158 1 -12.3237 13.2164 -0.225742 11
159 1 16.4475 1.81319 -0.862048 14
160 1 -11.7127 -0.485276 -15.1971 5
161 1 5.27801 3.45214 17.0944 15
162 1 7.05376 17.1531 4.20364 8
163 1 2.33488 10.2898 8.05343 21
164 1 4.32321 -7.87181 -15.2574 8
165 1 -4.2529 11.0187 7.54369 21
166 1 -2.84013 10.173 -5.25598 18
167 1 4.51663 0.565332 12.0053 15
168 1 -12.8143 -6.74687 6.24971 18
169 1 -2.89452 -14.0303 -11.97 9
170 1 -9.80701 10.1695 -6.8271 13
171 1 -3.62477 -10.9863 6.88539 21
172 1 1.03809 -14.8501 -8.5818 9
173 1 0.0288222 9.471 -4.60235 18
174 1 -12.1632 5.48712 10.312 16
175 1 10.6483 11.61 -0.97548 20
176 1 -6.61752 4.63401 14.5492 22
177 1 -0.76933 -8.51535 10.7989 19
178 1 -12.3637 4.69149 -0.104169 19
179 1 -0.757071 12.8801 4.74119 20
180 1 0.358922 7.60897 8.35861 21
181 1 12.2402 4.83693 15.5417 12
182 1 -7.33134 13.61 3.34594 17
183 1 11.5073 -2.07303 -10.2676 15
184 1 -4.90248 14.438 9.89926 12
185 1 -5.12633 3.11136 -7.87924 22
186 1 11.2112 -7.44455 0.407652 18
187 1 -10.9259 -7.98655 3.806 16
188 1 -16.9287 2.33421 5.76126 7
189 1 -12.1461 -9.59437 2.4182 19
190 1 8.69784 5.52223 15.3344 19
191 1 -13.8336 1.38713 -0.393847 19
192 1 -3.69452 -15.1455 2.19193 17
193 1 4.30863 -9.75724 -2.29831 23
194 1 -2.62846 9.92794 5.15071 21
195 1 4.77791 13.7152 12.7328 12
196 1 -9.11567 -1.16742 -5.09826 22
197 1 -8.59871 13.115 -6.93056 14
198 1 -15.9308 -1.76439 -1.86573 16
199 1 -10.025 -3.88364 10.8336 19
200 1 -0.974055 -10.28 4.67742 22
201 1 2.55388 -13.8286 5.71757 13
202 1 -11.1327 11.6297 5.28806 13
203 1 17.717 5.31635 3.51504 11
204 1 5.7277 1.53237 -4.6718 22
205 1 -7.00292 -9.98972 -11.0714 13
206 1 2.44743 0.937763 10.3032 19
207 1 3.91107 -16.4342 4.30238 10
208 1 -3.62531 6.85404 -11.2199 19
209 1 3.12007 -11.9245 -9.38763 20
210 1 8.64416 3.98344 -10.846 19
211 1 2.4183 8.94893 -13.1567 14
212 1 -7.2889 -4.17679 -5.11788 22
213 1 -5.47488 13.3359 -6.92898 17
214 1 -8.64128 -8.239 9.75123 21
215 1 4.35882 18.2659 -4.97833 11
216 1 -6.99535 1.50828 16.4591 17
217 1 -9.36956 14.9699 -4.12895 9
218 1 13.2613 -0.861329 7.06576 14
219 1 -4.26253 -8.67821 -12.3181 17
220 1 -4.14113 7.50057 -5.93253 22
221 1 2.90946 3.82874 -12.0805 16
222 1 -9.57254 -11.3504 8.65976 14
223 1 -9.43381 3.75807 9.88811 17
224 1 -9.31527 10.2804 13.6566 11
225 1 2.07522 -9.99296 -7.28302 18
226 1 -8.10338 -18.1364 0.176945 13
227 1 8.70936 -10.5711 0.702567 14
228 1 10.7819 8.71864 16.4349 15
229 1 8.14412 12.7518 -6.3898 12
230 1 -5.68589 7.59223 -3.2705 18
231 1 -8.92284 4.05103 5.121 20
232 1 -15.6301 10.6412 -0.257087 10
233 1 1.50166 6.49983 11.5234 18
234 1 2.12331 -18.0431 1.79878 13
235 1 9.69019 1.00037 0.286276 19
236 1 2.24948 7.0701 5.98767 23
237 1 -12.7306 7.15776 7.69451 16
238 1 -19.5866 -6.11322 0.269317 8
239 1 7.48882 7.27405 -10.2189 18
240 1 3.34607 -2.55265 10.562 19
241 1 12.5196 10.5839 -8.72379 11
242 1 2.8552 -9.78758 0.476103 19
243 1 -4.10092 -1.78328 -10.5222 22
244 1 -1.80544 -17.1239 7.21042 13
245 1 13.2085 -0.148872 -7.2755 18
246 1 -7.03539 -0.285599 7.56243 21
247 1 0.180195 -15.4324 -2.191 19
248 1 -10.2175 -10.9661 -9.3144 12
249 1 2.7186 13.9589 -1.86361 18
250 1 0.147363 -1.30618 -13.5546 22
251 1 3.49269 4.81659 15.5407 17
252 1 18.1172 2.26946 1.60644 9
253 1 10.7128 -5.37237 -9.36321 15
254 1 -9.16317 -7.77109 -6.58754 17
255 1 -12.8035 -5.01573 -11.0167 7
256 1 -5.30333 -14.5049 10.3076 12
257 1 10.1207 3.06687 13.0311 18
258 1 4.30335 -3.78904 7.84033 20
259 1 -7.56907 -12.3459 -8.93986 16
260 1 -0.609081 -9.17345 7.5573 17
261 1 -1.16594 8.35519 -8.37578 22
262 1 4.54246 7.67915 2.74765 16
263 1 -7.56476 -6.12436 2.49464 19
264 1 1.58544 13.9908 3.1459 20
265 1 -7.30542 -4.10213 12.142 18
266 1 -13.8181 -9.55843 -6.7821 9
267 1 -5.98099 -6.96484 -10.4709 16
268 1 -3.16549 8.42233 -14.1167 14
269 1 -6.60079 -11.8682 -6.30904 16
270 1 -2.69766 -9.24497 1.9304 19
271 1 7.61171 -5.61782 -10.1934 20
272 1 12.6775 0.37388 -9.58421 13
273 1 14.7694 6.03443 4.18855 19
274 1 -6.51469 -6.65327 11.1336 15
275 1 -6.98553 -9.80643 -1.21758 18
276 1 7.25852 4.59865 18.5186 9
277 1 -8.03089 -13.0457 2.7584 18
278 1 -1.37527 -12.257 1.99163 20
279 1 -0.478966 16.1858 1.70623 13
280 1 8.22012 0.433106 -14.0171 18
281 1 -4.30332 -4.53571 -16.0494 14
282 1 -11.9157 -8.08117 11.3876 10
283 1 2.98968 8.52258 19.5482 10
284 1 -0.287329 -13.1461 -4.90152 17
285 1 -5.54049 -13.075 -11.8663 11
286 1 -9.47401 1.88931 -6.61998 17
287 1 12.2596 7.80233 5.70927 17
288 1 -7.23818 7.59972 -6.25827 22
289 1 2.21962 6.86892 -10.9812 18
290 1 8.30364 -15.3099 -8.35334 8
291 1 -4.5747 14.9318 -1.85099 19
292 1 2.71826 10.5926 2.56077 24
293 1 12.4087 1.49902 5.22444 18
294 1 -11.3011 -4.18129 5.50906 21
295 1 -0.764629 -9.55427 13.8726 9
296 1 -7.67641 6.9763 4.51118 21
297 1 4.39353 -5.49779 -10.5369 17
298 1 14.1438 8.88235 -2.72418 19
299 1 1.68187 -12.5664 -2.5935 18
300 1 -2.47494 -3.0748 14.7443 13
301 1 -16.3473 -6.73583 6.36545 15
302 1 -3.3604 -19.7123 -2.1962 9
303 1 -4.25622 7.54264 15.2416 17
304 1 -8.68569 4.11208 16.8565 13
305 1 -13.7392 -0.191223 9.37189 17
306 1 -14.8403 -6.44798 8.95093 19
307 1 12.7597 -4.89951 -0.285037 19
308 1 -12.8192 -8.69151 8.6949 16
309 1 11.4429 -2.94535 -7.33655 16
310 1 10.004 -10.3426 -5.02095 14
311 1 1.36782 17.6703 -6.53933 10
312 1 -10.154 12.8604 -1.4509 17
313 1 9.04025 8.3422 13.6552 15
314 1 -10.654 -0.601564 2.91815 23
315 1 7.41908 -10.0242 -1.89258 16
316 1 -3.80038 10.8555 1.80526 22
317 1 -7.58974 5.24236 7.15953 18
318 1 4.15147 -10.7888 7.83139 17
319 1 13.1164 -5.58201 5.61074 14
320 1 -3.0714 7.97936 8.09499 21
321 1 -7.6565 -6.46849 -2.78502 20
322 1 -5.02543 -1.76181 13.2731 20
323 1 -4.24404 12.7303 4.88499 22
324 1 7.41767 7.60761 17.0326 19
325 1 -8.78476 11.896 -4.01214 14
326 1 1.49754 -2.37474 -16.1712 15
327 1 6.49683 -13.1974 -8.955 15
328 1 -11.2302 -0.181322 14.4767 16
329 1 -13.4964 1.18557 6.20814 16
330 1 -6.13133 -4.04766 -10.5617 19
331 1 -5.9878 7.88619 2.71462 21
332 1 8.53679 -1.49246 9.12551 19
333 1 -17.0667 -9.90214 1.75237 9
334 1 6.6641 -9.82218 9.28649 13
335 1 -9.38089 -10.2387 12.0166 12
336 1 -13.4843 9.01099 5.05725 15
337 1 -1.31289 -5.48876 10.5471 17
338 1 4.35656 -14.9455 -8.05303 11
339 1 -4.2609 -0.222344 -7.40976 19
340 1 8.938 -2.57321 -12.9099 17
341 1 0.945883 15.8903 5.97962 14
342 1 -11.1387 -0.541058 -2.95747 20
343 1 5.68889 -6.59766 -7.82142 19
344 1 10.4918 6.14192 -11.0563 14
345 1 -4.9562 -14.093 -5.82343 20
346 1 -14.2949 -5.43931 -2.08124 19
347 1 -3.57948 -10.5389 -0.239545 19
348 1 10.5669 5.35578 17.6985 11
349 1 10.6944 3.15209 -1.54072 20
350 1 -6.7898 1.71014 -11.8182 22
351 1 5.38968 17.4969 1.20029 10
352 1 -14.9528 0.324971 -4.02904 15
353 1 -9.75807 7.31451 9.16411 16
354 1 -6.91029 10.5264 1.98237 17
355 1 -5.4509 2.52724 8.40452 23
356 1 6.14121 3.32335 13.8416 19
357 1 9.13432 0.754868 -5.4141 19
358 1 2.44599 0.538782 14.7765 16
359 1 10.6688 2.94802 -9.24689 19
360 1 -8.27845 -14.262 -0.635828 16
361 1 1.07563 -9.56595 -2.6981 21
362 1 0.917544 7.99581 2.88841 24
363 1 -12.0273 1.53367 -5.19825 19
364 1 3.35444 -14.4831 -4.13052 15
365 1 15.3098 -0.489702 9.26259 8
366 1 -13.2018 -5.7976 -5.55555 16
367 1 -8.25103 -8.88323 2.08597 19
368 1 -9.23952 -6.55358 12.0704 18
369 1 -1.75069 9.97419 -0.188246 18
370 1 -13.1028 -9.87697 -1.93736 16
371 1 5.75702 10.2118 19.0831 8
372 1 -10.8951 5.23381 -3.18714 19
373 1 -0.029031 11.1493 -6.82522 18
374 1 5.91606 12.3236 6.4334 20
375 1 -16.3163 -7.94542 -1.07941 14
376 1 -1.57289 -8.12129 -12.0519 16
377 1 -15.542 -1.1228 7.2391 16
378 1 -13.5584 7.62625 -0.680721 18
379 1 4.23893 -7.85133 5.58978 19
380 1 -3.35281 -13.4207 -0.296394 16
381 1 11.9131 14.0795 7.71803 11
382 1 2.46101 10.6987 -8.06332 20
383 1 -12.5863 2.9419 -14.0883 6
384 1 -1.97121 13.5151 -7.70222 12
385 1 -8.63546 5.15592 -6.65354 18
386 1 -2.80999 -13.6116 4.97927 19
387 1 12.5202 5.30357 7.44788 17
388 1 0.0297894 9.91497 -12.4835 14
389 1 -4.16874 1.16089 11.7567 20
390 1 -17.8297 4.44911 2.81327 7
391 1 -7.13909 1.44952 10.6547 21
392 1 -6.52116 -12.674 4.97502 18
393 1 2.7853 -6.06547 -7.75578 16
394 1 -10.7124 1.4661 4.62809 19
395 1 -16.6709 -3.16322 12.1183 11
396 1 -12.7024 8.30441 10.8841 17
397 1 -1.24309 -6.43896 8.08532 18
398 1 -6.27777 1.02658 -15.2397 16
399 1 7.72537 -7.93262 -5.3986 17
400 1 -2.27784 -11.1557 -10.6546 17
401 1 -4.33064 -5.07592 10.2869 15
402 1 -4.51395 3.39969 -13.3871 20
403 1 4.85518 -18.9512 2.65325 8
404 1 2.65566 11.7802 -5.20117 19
405 1 -12.0597 14.3898 11.3753 6
406 1 -8.16399 -5.55124 15.6996 10
407 1 -9.82081 -4.99204 -10.4693 15
408 1 -8.90721 -4.87944 8.50167 19
409 1 9.23643 -3.93417 10.7167 14
410 1 1.40326 2.19706 -7.6319 21
411 1 8.74148 -10.0829 7.06432 15
412 1 15.8522 8.21054 -4.85253 12
413 1 -10.3097 0.842348 17.1755 8
414 1 0.379271 12.9642 0.677999 22
415 1 7.40013 -4.25658 8.26283 20
416 1 -7.36338 -15.117 -4.16183 18
417 1 -3.62401 2.33277 16.311 18
418 1 -2.8926 14.1323 7.83232 20
419 1 -10.4154 -14.1864 -8.24027 10
420 1 9.27951 13.5915 1.0812 19
421 1 3.87609 7.83929 8.40051 18
422 1 -8.58309 2.66914 13.1103 17
423 1 -5.18529 -8.96885 -3.4581 18
424 1 -11.5195 3.09628 12.6735 19
425 1 -10.0876 -5.77757 -4.78834 19
426 1 -6.07268 8.26744 7.63931 22
427 1 -3.2925 -11.4968 -5.11742 19
428 1 -4.95927 -7.88503 -14.9621 10
429 1 -6.37993 -15.8494 1.23014 16
430 1 -7.48048 -4.4312 5.41964 21
431 1 9.25328 0.624272 6.83516 18
432 1 -5.31781 -5.53948 13.6914 16
433 1 -7.8122 3.29157 -9.4076 17
434 1 7.51123 3.93868 0.0880562 20
435 1 -9.65074 -15.5573 2.03696 17
436 1 3.03053 15.3426 0.987442 18
437 1 -0.601767 7.49881 -12.1591 21
438 1 -1.94108 6.8121 10.662 17
439 1 -16.9814 0.492563 -0.786801 16
440 1 1.63172 16.9172 -2.85939 13
441 1 5.20473 9.52416 -5.73803 20
442 1 -7.85645 -5.77599 -8.24518 20
443 1 2.80181 1.7583 17.6564 10
444 1 1.84835 -12.9957 -6.93229 18
445 1 -0.902462 -2.98106 -11.1264 20
446 1 6.00194 -13.3372 0.759279 12
447 1 -10.1917 12.7439 1.8013 18
448 1 5.04573 7.91505 12.6023 17
449 1 9.42894 7.53565 -0.184003 18
450 1 4.39686 9.53922 -0.129806 20
451 1 -9.05911 6.72898 -9.52489 17
452 1 4.85019 1.22964 -9.93514 19
453 1 0.822061 -9.41772 2.51915 18
454 1 -17.1275 -1.63835 1.3417 14
455 1 2.31015 16.9815 3.14023 11
456 1 -5.80912 4.36247 -11.2266 19
457 1 14.0592 4.12338 -0.336106 17
458 1 5.56421 15.5349 -4.77538 14
459 1 9.3075 -4.892 5.77246 21
460 1 14.7304 3.73578 -5.16348 14
461 1 -0.891924 0.501839 -10.2665 19
462 1 0.466393 -13.4314 -0.118178 20
463 1 -0.993466 -14.7031 9.83242 12
464 1 1.83619 -8.96759 10.3124 19
465 1 -7.07117 0.332533 -8.21618 22
466 1 -10.8084 -12.7721 5.65748 15
467 1 -3.99547 -12.5751 -8.2438 18
468 1 6.90219 15.7083 6.82668 11
469 1 -3.16867 5.71164 -7.86493 23
470 1 2.40261 3.11288 12.4751 18
471 1 -13.6892 4.33296 14.6599 15
472 1 -2.70908 -20.8192 0.14169 11
473 1 -12.7373 -3.38323 2.54538 20
474 1 12.81 -1.87745 -2.5124 23
475 1 11.2961 -1.33662 -5.17157 19
476 1 -8.30583 8.88615 -3.72187 23
477 1 1.51845 -7.614 -5.0204 15
478 1 3.08487 5.22508 -7.75976 21
479 1 10.8799 -3.69502 -2.59511 21
480 1 -14.817 3.08535 17.384 6
481 1 10.6426 8.55318 -2.62444 18
482 1 -3.99099 -1.33008 -15.7504 21
483 1 4.60856 2.5118 -17.9502 9
484 1 -5.71519 -3.58066 7.75276 17
485 1 -7.69486 15.5296 -1.24643 12
486 1 -5.2288 -4.92864 -13.1267 18
487 1 -17.2769 1.27258 2.42194 12
488 1 -0.660066 -12.6594 -13.996 10
489 1 -6.40848 -11.7224 12.3097 11
490 1 -0.629712 6.54903 -5.67428 19
491 1 15.0893 4.61214 9.46903 15
492 1 17.2434 7.80099 -1.85688 12
493 1 -12.5988 -12.2856 0.547728 13
494 1 -0.602782 -9.8783 -0.177727 20
495 1 -1.24982 -3.31725 -16.6709 17
496 1 -7.28892 12.3978 12.2672 11
497 1 0.788356 -3.49464 -8.11992 19
498 1 10.9899 -2.0216 0.544313 23
499 1 4.28856 16.7374 -8.10081 13
500 1 6.04254 -6.22066 3.16992 19
501 1 15.023 6.25121 -7.52323 13
502 1 0.223475 11.6418 15.4792 18
503 1 -11.5097 -3.45607 7.99414 19
504 1 10.2942 9.34463 6.36894 19
505 1 5.13395 0.819346 15.6715 19
506 1 5.83961 2.02576 -12.5943 20
507 1 -6.23796 -7.05438 -5.62839 18
508 1 -0.33962 -1.26192 13.952 14
509 1 8.97625 12.3581 6.89819 18
510 1 6.34664 7.00067 -4.67799 21
511 1 -7.25018 10.5414 -6.12935 17
512 1 3.17723 9.53617 -3.25745 19
513 1 8.96325 -2.5193 12.7827 15
514 1 12.0217 2.72067 -11.6488 13
515 1 12.6881 -8.90628 -4.8265 11
516 1 11.4633 11.5749 16.3725 4
517 1 -17.7248 -6.55195 3.17481 9
518 1 -9.04987 9.89893 -10.5369 8
519 1 -0.903121 1.16402 10.9476 20
520 1 -16.8184 -0.0409302 10.4791 12
521 1 -5.04888 10.4489 -4.32643 16
522 1 -3.0841 -14.8647 -3.86137 19
523 1 6.60426 -0.517268 -7.43575 19
524 1 -3.40596 15.4142 -5.43599 15
525 1 -9.01208 -7.77353 -10.2915 14
526 1 -0.884817 -16.3107 1.03855 20
527 1 -19.6517 -2.97481 -1.15896 8
528 1 1.64044 9.68321 -10.5452 19
529 1 -2.3062 9.96567 13.4007 18
530 1 -15.364 -2.96916 9.37879 17
531 1 6.63909 7.06025 0.73386 23
532 1 -0.700004 -9.42428 -5.45703 18
533 1 4.25638 -7.84443 12.1696 14
534 1 -10.513 5.02617 2.39519 21
535 1 2.60581 4.74833 18.6193 11
536 1 5.06962 12.7284 -3.9574 18
537 1 8.79371 -6.46051 -2.00746 21
538 1 5.2257 10.4916 8.86106 19
539 1 2.08969 5.43075 -16.7282 9
540 1 -5.50201 -11.5391 9.39211 17
541 1 0.344798 -0.602657 -7.53276 17
542 1 8.14756 1.2086 -16.7487 10
543 1 2.62275 12.7142 5.92862 21
544 1 9.05066 5.36117 -7.96455 22
545 1 -3.04977 -3.13762 -13.3435 22
546 1 -7.85372 -12.2407 -3.32272 15
547 1 -11.3801 -4.88236 -7.93611 18
548 1 12.0425 3.0568 1.11176 17
549 1 14.5898 2.83809 3.01474 20
550 1 8.25094 -6.12385 -7.89485 18
551 1 12.4327 8.33332 14.0766 12
552 1 5.07947 -12.5593 -2.16719 18
553 1 4.36765 5.87834 -13.3272 17
554 1 7.58893 13.8702 4.09612 17
555 1 -8.98761 2.27566 2.47416 21
556 1 8.33265 10.8401 16.8011 11
557 1 13.4148 6.81059 -4.47949 15
558 1 12.3133 -0.0844772 2.37611 20
559 1 9.7916 6.96831 -5.12642 20
560 1 3.90262 7.73444 15.2647 19
561 1 15.0931 7.33522 7.36783 17
562 1 4.34494 -8.01615 9.33949 19
563 1 15.0452 10.0292 0.12814 18
564 1 -0.53501 1.05646 16.684 12
565 1 13.9241 2.74167 -8.45029 16
566 1 9.44696 3.94964 9.84393 20
567 1 -5.29697 -3.4135 -7.77315 20
568 1 12.4739 5.83505 1.92102 19
569 1 11.0616 -3.58317 3.30173 21
570 1 -7.47877 6.97513 16.0713 13
571 1 8.74965 10.6827 9.43114 15
572 1 10.8504 5.89387 12.8356 18
573 1 4.43894 9.73932 5.54559 20
574 1 -4.20117 9.5614 10.7243 19
575 1 7.39096 1.92801 8.3523 17
576 1 -2.26524 -20.4178 3.25248 12
577 1 -6.48908 13.189 -0.527218 18
578 1 11.2539 12.9386 -4.85866 11
579 1 6.614 -4.07516 -12.7163 16
580 1 -1.6174 17.5075 -2.62133 10
581 1 -2.53446 -15.8675 -7.23811 11
582 1 9.55589 -5.62356 -12.6591 10
583 1 -11.8553 1.89684 8.90358 14
584 1 -5.74424 5.70065 -8.23158 20
585 1 -3.80882 -17.9852 2.22648 21
586 1 -4.36975 1.54084 -10.3986 19
587 1 -16.1285 2.72809 -2.7737 13
588 1 11.6387 -8.20562 4.63741 11
589 1 14.1466 9.02325 3.09456 21
590 1 1.42145 -7.31964 13.0938 14
591 1 -15.2131 -2.97287 -4.90735 11
592 1 2.19477 0.805083 -15.4848 16
593 1 -3.97264 3.88996 14.1992 21
594 1 5.59 10.7548 -8.88415 15
595 1 9.96629 1.22187 10.5948 15
596 1 6.09715 5.33926 -7.62078 20
597 1 12.3704 11.5598 2.31452 20
598 1 6.92538 -14.2893 -5.68822 11
599 1 -11.7389 -1.65661 11.2832 21
600 1 14.1503 -2.30432 0.517584 15
601 1 -1.17489 13.3461 13.991 9
602 1 6.5772 14.2977 -8.9518 8
603 1 -15.0148 8.88755 -2.80737 12
604 1 10.7824 12.8096 4.10411 15
605 1 -9.98733 -18.274 4.49531 10
606 1 13.4519 -6.13834 2.7875 12
607 1 7.89975 16.6958 0.41455 9
608 1 -6.28362 4.02343 11.3774 20
609 1 -12.3858 -5.70641 2.64606 17
610 1 -8.73911 -2.93566 -8.15467 19
611 1 7.24969 5.51873 12.1842 19
612 1 -3.05116 -11.006 11.3737 11
613 1 6.84493 8.12576 10.1764 19
614 1 -5.46516 9.98312 -0.548223 19
615 1 9.26122 6.40617 5.44591 20
616 1 8.02831 4.03065 5.61448 20
617 1 3.75471 3.57136 -15.3391 18
618 1 -9.31342 -1.3584 9.30128 20
619 1 7.18571 3.55086 -15.1853 15
620 1 11.8126 -11.0924 -7.36838 11
621 1 9.20845 6.66517 8.50219 15
622 1 6.88286 5.10961 8.71853 18
623 1 -13.6783 0.195682 16.3115 10
624 1 14.0424 5.88066 12.3253 13
625 1 -2.89441 -0.0546213 14.2317 18
626 1 -1.53289 6.93762 14.0684 20
627 1 0.333449 -4.32653 -13.4098 18
628 1 -6.25691 1.35228 13.9071 22
629 1 6.22264 2.71708 10.7336 16
630 1 -6.63267 -16.9675 7.50657 13
631 1 14.6096 7.49836 0.690318 20
632 1 3.07683 -11.2928 -4.6879 20
633 1 4.67648 6.92244 -1.93581 20
634 1 12.8473 11.8171 6.13271 18
635 1 5.32752 1.2178 -15.5615 17
636 1 3.70593 12.1972 0.129391 18
637 1 17.7434 7.71018 1.1633 13
638 1 -10.8515 -12.1354 -2.40409 17
639 1 -1.09805 0.0460386 -15.9871 18
640 1 -9.26585 7.85329 1.7727 20
641 1 8.50028 -2.91878 -9.82051 20
642 1 15.5201 9.36338 -7.87619 10
643 1 7.13159 11.5916 -1.32036 18
644 1 -7.31432 4.86503 2.54486 22
645 1 5.97205 4.67613 -2.16336 22
646 1 11.5651 2.24871 16.4173 8
647 1 10.6839 0.226983 13.5078 14
648 1 0.0536992 -11.5868 10.9739 15
649 1 -5.75933 9.27444 -11.6391 13
650 1 3.56775 13.1646 9.48904 18
651 1 6.88362 -9.49631 -9.60465 16
652 1 0.360788 3.81756 10.6765 17
653 1 8.31273 13.4814 -3.22496 17
654 1 8.74623 11.5126 3.52086 18
655 1 14.5501 -4.82395 -3.21428 14
656 1 4.90917 6.96092 18.5056 15
657 1 -12.6625 -1.16336 5.43911 18
658 1 2.42676 -16.7846 -1.03511 15
659 1 1.70373 -1.64208 -10.7534 17
660 1 -9.0492 11.0539 3.52906 16
661 1 4.56381 12.9614 3.2321 19
662 1 -14.9861 -1.15775 3.93937 16
663 1 -5.15262 5.35755 17.1806 12
664 1 -5.86823 6.33056 -13.6293 12
665 1 -9.2335 6.61721 -12.0431 12
666 1 -0.545879 -18.2655 -1.20967 14
667 1 11.9914 6.28965 -1.3506 20
668 1 -12.0765 5.48821 16.6125 10
669 1 3.23512 0.632756 -12.9286 20
670 1 2.08023 -12.7199 8.23528 13
671 1 -1.23097 14.8139 -1.68681 19
672 1 -4.884 -0.786249 16.0307 15
673 1 -12.7165 -12.9608 -5.56568 10
674 1 -4.17906 -11.3651 -14.8002 8
675 1 -7.7658 -15.6613 -8.18824 11
676 1 -0.852599 15.3334 -4.89801 15
677 1 6.12921 -4.83316 -5.36536 22
678 1 -1.14961 13.3763 10.5041 16
679 1 4.22851 -8.10448 -5.31663 22
680 1 5.14193 -16.8565 1.05085 10
681 1 2.12496 -6.9234 7.45785 18
682 1 16.832 2.53208 -3.58131 12
683 1 -4.34469 -17.0937 -4.2299 14
684 1 -14.1808 -4.23882 6.70609 19
685 1 -6.24637 -20.047 -0.8604 11
686 1 -9.94861 -13.0291 -5.38212 17
687 1 -10.4064 0.894135 11.1392 21
688 1 -8.41927 -20.5085 2.18105 9
689 1 15.1433 5.68316 -2.7782 20
690 1 -3.89437 17.9045 2.72046 10
691 1 -13.851 11.6498 7.01373 8
692 1 9.51893 -0.768515 3.14606 21
693 1 -13.8072 -6.68431 -8.24239 10
694 1 0.985483 12.1496 -2.48693 16
695 1 11.6282 2.46427 -6.60307 19
696 1 7.52354 13.8654 9.76593 11
697 1 7.89129 4.40141 -5.25489 19
698 1 -13.9098 0.494793 -7.63073 14
699 1 -14.3779 -3.57077 0.300311 20
700 1 -2.10468 7.50786 17.6053 12
701 1 7.90345 8.3173 -7.09677 21
702 1 15.4011 13.697 7.48111 9
703 1 -2.60565 -1.9006 11.1308 20
704 1 -5.63385 -14.4012 -1.41543 14
705 1 -4.96869 -20.7664 3.35795 9
706 1 -5.95716 -6.39956 7.6802 19
707 1 13.0616 9.43462 8.21378 19
708 1 5.06126 -10.9051 -7.17335 20
709 1 -7.14557 7.26582 -0.37921 23
710 1 7.72768 8.02862 3.61798 19
711 1 -9.30635 -3.48397 2.9053 19
712 1 10.9358 7.92416 -8.67372 17
713 1 -7.69344 -18.5335 -3.98288 8
714 1 0.336117 -18.1982 4.7201 14
715 1 -1.92017 -16.1546 4.04012 19
716 1 4.64831 2.39291 -7.52576 19
717 1 6.07526 14.0687 -0.63507 20
718 1 -3.41906 0.156687 -13.1714 23
719 1 -1.26261 3.41893 13.7919 21
720 1 -0.171958 8.02205 -15.3039 12
721 1 -8.42085 -0.590523 -14.1948 12
722 1 -11.6458 -6.00186 -2.42876 21
723 1 2.4828 14.8265 -4.69736 20
724 1 -2.25231 -6.24832 -14.5095 18
725 1 -9.74094 -6.63746 0.255983 22
726 1 10.6819 10.049 -5.96618 17
727 1 9.35425 -6.45747 2.31647 18
728 1 -3.33509 3.97996 10.592 20
729 1 4.09486 -9.26846 2.94037 18
730 1 13.9494 -7.62793 -0.583862 11
731 1 12.2 -1.22951 10.6385 10
732 1 0.954388 10.08 5.23614 21
733 1 -13.164 1.03497 12.7591 16
734 1 -9.98128 5.37872 14.7497 16
735 1 -4.15776 -16.9423 9.46805 12
736 1 9.03059 5.13222 2.25931 19
737 1 3.10392 10.5802 13.8231 19
738 1 -16.6846 3.68938 0.342441 10
739 1 7.54464 -7.68479 0.261203 21
740 1 -13.5904 11.6732 -2.79917 10
741 1 -3.42215 -14.3602 8.14642 17
742 1 8.00343 -1.22243 15.609 11
743 1 -1.00123 11.1073 7.48309 20
744 1 0.170171 -13.8624 3.7133 17
745 1 -9.15285 -3.16214 -2.91515 23
746 1 4.2833 5.45716 11.2764 18
747 1 -17.1912 -4.75315 -2.1105 14
748 1 -2.7003 9.92038 15.732 14
749 1 6.35615 11.61 1.81376 20
750 1 -14.3982 -11.8118 3.34064 11
751 1 -5.63898 -15.8801 4.46282 17
752 1 6.14034 -5.55341 11.055 17
753 1 10.5612 -7.05556 6.86002 13
754 1 7.38361 9.93865 6.17177 16
755 1 -2.40323 -6.7235 -5.92283 19
756 1 -2.11357 3.761 -10.8794 21
757 1 -5.61814 -3.80292 16.5486 11
758 1 -2.07405 13.5296 2.00167 20
759 1 11.5115 3.87894 4.15593 20
760 1 3.02824 6.8794 -4.62367 22
761 1 -4.49441 6.24767 12.4078 19
762 1 7.15123 11.2035 12.2823 17
763 1 7.95061 0.283004 -10.9304 19
764 1 -11.2338 -12.3999 2.96513 17
765 1 15.0838 -0.288082 5.44481 14
766 1 3.61717 -1.12632 -8.41842 15
767 1 0.558011 8.93575 14.0902 19
768 1 6.60278 -10.8412 -4.72716 16
769 1 6.58485 8.12853 -13.5826 8
770 1 -2.46533 -9.29578 -2.75951 17
771 1 13.6675 7.89093 -10.4516 10
772 1 16.2462 -1.75269 -1.83198 11
773 1 0.939353 -4.58657 12.7456 16
774 1 -3.41452 -9.54949 -8.20152 16
775 1 8.78599 10.0116 0.971534 20
776 1 -15.3458 5.92083 9.7596 11
777 1 11.1363 4.29129 -4.51544 19
778 1 17.9535 7.76059 5.09775 11
779 1 3.77331 -8.66463 -9.43877 19
780 1 -8.08348 12.5403 6.21253 16
781 1 13.986 12.6193 10.2574 12
782 1 10.3883 14.8585 -1.86583 11
783 1 5.55654 4.5418 -10.0865 19
784 1 9.1919 -4.49136 0.127736 22
785 1 -12.8398 2.49517 2.5438 20
786 1 10.5472 8.56457 2.69162 19
787 1 -17.0482 -5.26645 0.365157 16
788 1 -13.562 8.81476 -5.34086 10
789 1 4.0976 2.07255 8.25366 17
790 1 -12.3521 -1.4516 -6.60807 13
791 1 -12.3877 4.17934 5.06468 15
792 1 -5.70357 4.49105 -5.46794 22
793 1 10.898 -7.51846 -6.81055 16
794 1 -14.4028 -7.98136 -4.35793 12
795 1 11.619 -6.80223 -3.23072 21
796 1 -12.4042 7.76192 2.00418 22
797 1 -10.0559 -8.70828 -2.20466 19
798 1 15.7042 11.0072 8.66136 12
799 1 -9.03339 -11.4982 0.546056 16
800 1 8.63303 2.11536 16.3124 18
801 1 11.235 -4.13178 8.01427 13
802 1 13.7583 -2.64245 3.84286 16
803 1 -14.9606 9.00665 8.39566 10
804 1 2.30126 14.7598 14.7189 9
805 1 4.26337 7.89338 -8.32713 19
806 1 1.7521 -5.24579 -16.4716 9
807 1 -6.36746 10.2651 5.18757 22
808 1 -13.3277 -11.3453 6.32017 10
809 1 8.48541 5.59544 -2.17508 21
810 1 -1.40681 9.96155 10.4553 18
811 1 14.2743 -0.00358876 -3.65211 18
812 1 8.255 -6.93722 9.12737 14
813 1 -6.63189 11.0978 -9.26481 13
814 1 1.53852 8.08214 -7.09472 20
815 1 -6.17558 -1.14839 10.2175 20
816 1 16.9734 4.99426 6.89683 13
817 1 -3.15517 -5.02013 -10.3739 21
818 1 17.0991 10.2357 2.85412 11
819 1 -14.544 5.39924 1.94946 16
820 1 -6.95404 -9.82258 7.15715 18
821 1 2.48237 13.1278 -9.41966 11
822 1 6.01986 -2.64176 11.0139 19
823 1 -3.43737 -16.0695 -1.20894 19
824 1 -6.55343 16.9961 0.812818 10
825 1 -14.3686 6.51098 4.71477 13
826 1 14.5711 -2.59365 -4.79313 13
827 1 2.46676 -10.6069 -13.6715 11
828 1 -10.9055 6.71589 5.37231 18
829 1 12.9952 11.6718 -2.27003 16
830 1 -9.38895 -1.30304 5.46547 20
831 1 5.649 -1.14519 -14.4445 14
832 1 -6.53385 -8.98295 -8.01808 19
833 1 -1.37055 -12.321 -2.65709 19
834 1 -3.98096 12.1259 10.8493 17
835 1 3.27211 -14.1124 -0.315636 16
836 1 -2.91437 9.73891 -10.9954 18
837 1 11.459 0.941678 -3.68467 19
838 1 5.99278 5.20161 3.54121 24
839 1 -0.76146 -18.9399 1.9109 14
840 1 3.2539 -2.07086 -13.3527 17
841 1 13.124 0.825446 -0.638233 23
842 1 -3.07023 2.08169 -15.549 15
843 1 -3.3007 -8.78814 8.87057 15
844 1 8.27615 10.0346 -4.38667 17
845 1 7.42225 2.17489 -8.60681 20
846 1 -8.80129 2.25826 -3.45548 20
847 1 -15.3723 6.39641 12.5943 10
848 1 1.64204 7.37737 17.1193 20
849 1 -10.4384 -9.53579 7.04822 18
850 1 6.12159 6.85935 6.48272 20
851 1 0.317507 -15.3332 6.87078 15
852 1 0.884277 7.84089 -2.40367 18
853 1 -6.05967 6.6727 9.83927 18
854 1 -8.14492 -0.908381 12.1064 18
855 1 -10.4113 12.9284 8.62483 12
856 1 7.89709 1.8999 -2.38279 23
857 1 -6.6752 -8.97128 12.8225 11
858 1 2.33504 -10.8733 5.13325 18
859 1 13.2026 7.28352 10.2187 18
860 1 7.53805 -3.8791 -2.34023 20
861 1 1.02236 -9.48632 -10.5721 18
862 1 -10.4963 -0.0266527 -9.14705 17
863 1 -3.14188 0.057035 -18.0903 7
864 1 5.42777 15.7184 9.79315 11
865 1 -13.0391 -3.61722 13.2629 12
866 1 -7.78594 5.41609 -3.45671 20
867 1 -12.6371 2.77459 -2.70607 19
868 1 12.4354 13.3943 0.278127 15
869 1 -7.24636 -18.1184 3.31958 16
870 1 -1.07827 7.00834 5.54218 23
871 1 16.1786 10.7278 5.57465 12
872 1 -11.3407 -10.129 -4.84821 15
873 1 1.89887 15.6667 9.58914 11
874 1 -9.8801 -3.61408 14.2208 17