ITEM: TIMESTEP
21000
ITEM: NUMBER OF ATOMS
2000
ITEM: BOX BOUNDS pp pp pp
-30.0 30.0
-30.0 30.0
-30.0 30.0
ITEM: ATOMS id type x y z Coordination
1 1 -13.723 5.32755 -5.73939 18
2 1 -6.93259 -10.8646 -6.15726 19
3 1 -3.05173 9.52104 16.4397 19
4 1 2.54015 -12.1086 10.6971 10
5 1 -8.04258 9.43069 0.120885 24
6 1 4.31737 -9.1819 -10.2396 21
7 1 -15.0527 1.91584 -1.55612 21
8 1 -2.74205 -7.80452 13.4036 19
9 1 -11.653 3.0198 -7.51827 20
10 1 -15.2921 -10.5562 5.27536 15
11 1 7.95525 5.26115 -8.18805 12
12 1 -7.46294 -17.3519 2.49437 13
13 1 -15.4265 -4.1436 5.54175 15
14 1 -0.0773133 3.68356 22.2941 9
15 1 -3.61286 1.03373 12.1612 22
16 1 -3.84587 9.83815 -6.78382 19
17 1 4.58286 -4.65295 13.4321 19
18 1 -14.672 -1.28997 -8.85865 16
19 1 -18.2178 -5.28043 13.032 12
20 1 11.2785 2.95134 12.6155 20
21 1 -3.44889 12.1185 -8.76368 19
22 1 1.39124 5.14499 -9.2251 22
23 1 10.3366 -0.020464 13.9992 23
24 1 -15.3595 4.95058 -2.72083 17
25 1 -14.1444 8.48442 9.77588 14
26 1 4.99834 -10.5172 6.57341 16
27 1 -0.531841 -16.633 -6.70766 11
28 1 9.02914 -12.8318 3.33174 11
29 1 -6.45802 -13.8627 -4.5649 17
30 1 -17.5023 -6.71818 10.4601 14
31 1 2.16909 -8.21225 -13.4218 17
32 1 4.62247 -10.7698 -12.8539 11
33 1 -8.76313 4.30909 -13.1162 12
34 1 -2.70933 3.5814 16.7761 20
35 1 -6.74823 -11.8285 15.8128 8
36 1 3.59022 -4.79765 18.7074 10
37 1 -12.4248 0.422692 3.37255 20
38 1 -18.7793 -3.41962 10.2258 14
39 1 -12.5266 0.100173 0.441565 22
40 1 -5.84882 11.4883 0.24248 18
41 1 -2.5829 -14.6404 -8.10505 13
42 1 1.61673 0.0838545 -8.49572 20
43 1 -0.497177 -8.33533 -8.15027 22
44 1 -5.50855 -2.1948 18.4923 12
45 1 -10.8414 8.55801 1.82245 21
46 1 -3.30467 9.4674 -10.887 16
47 1 0.183151 14.8173 9.86062 13
48 1 -11.5343 8.22204 -5.2926 21
49 1 -3.03569 12.0218 1.82427 18
50 1 -5.87381 -16.1698 7.64238 20
51 1 6.97477 -9.6404 -1.90334 22
52 1 2.05614 -5.60507 -14.6761 13
53 1 -8.81031 9.34078 10.3539 21
54 1 -15.1308 -4.07265 -7.28839 16
55 1 -11.0669 8.72277 -1.39194 21
56 1 -11.3783 -9.02893 10.8543 19
57 1 -7.87277 12.1307 11.2248 18
58 1 -14.1534 3.77042 0.420537 19
59 1 -13.7171 4.87992 16.9324 10
60 1 -9.38458 -11.8914 10.3418 17
61 1 -0.00570351 2.98679 12.1868 22
62 1 0.195878 -13.1975 1.64785 19
63 1 2.18089 6.90901 18.0347 19
64 1 -16.7696 -3.5151 -4.26384 16
65 1 -19.2628 3.05453 0.954545 12
66 1 1.913 5.95085 14.968 23
67 1 6.99403 -5.19075 -5.66167 18
68 1 7.75882 -7.94456 6.45787 18
69 1 -20.445 -2.44667 3.37028 12
70 1 2.16324 15.2065 7.68023 12
71 1 4.75826 0.493292 17.1537 23
72 1 -8.53688 -9.43363 12.3017 18
73 1 -14.5969 -1.603 -2.45709 17
74 1 8.55084 3.49972 10.2764 21
75 1 1.01978 12.5708 12.1107 16
76 1 2.87559 -2.54586 9.85679 22
77 1 -3.14628 -7.23255 -3.37267 22
78 1 -14.1786 3.5481 10.0903 21
79 1 -10.4499 11.3743 0.38469 18
80 1 -5.74624 5.8009 -6.66426 22
81 1 5.38836 -1.52483 -1.56978 23
82 1 8.53558 12.76 -4.481 9
83 1 5.69048 -6.94695 5.07864 21
84 1 0.179856 -7.603 11.6666 18
85 1 -8.52145 15.1872 -2.05808 11
86 1 -14.5898 12.0229 5.44109 10
87 1 -11.4954 -7.04362 18.6392 10
88 1 -3.78642 6.18016 8.5978 20
89 1 -8.44884 -6.96982 10.8081 22
90 1 11.0879 -11.1661 -1.65117 8
91 1 -11.6002 3.7722 12.0375 23
92 1 -5.25606 -17.7025 4.7318 16
93 1 8.30286 -8.52489 -6.17114 14
94 1 2.8605 -2.16271 -10.224 22
95 1 -10.8248 -10.1799 -10.6737 10
96 1 -2.31439 12.3394 5.09894 23
97 1 -15.8352 7.78091 -4.18643 12
98 1 -3.51354 6.20205 19.1454 17
99 1 -2.76636 15.2094 -3.40754 16
100 1 -16.1726 10.7198 0.923227 9
101 1 -0.275765 11.3389 3.22449 22
102 1 -9.77754 -9.21496 16.5461 13
103 1 11.7347 -1.34781 11.8399 18
104 1 -3.4011 -7.49696 -6.55482 21
105 1 4.09592 -10.735 -3.56315 22
106 1 -3.82942 0.781013 15.5138 19
107 1 2.99671 -1.50793 20.3702 11
108 1 -12.6578 -5.13614 3.59565 21
109 1 -11.8687 -8.30946 -1.24801 20
110 1 10.7002 -8.06966 7.62696 11
111 1 -9.27079 6.30096 5.12916 20
112 1 3.48112 2.91031 -12.662 16
113 1 6.5967 16.7516 -0.297616 9
114 1 -10.5704 -14.6852 9.6268 20
115 1 -15.7302 -12.1852 8.21945 9
116 1 -0.92047 -7.18364 -11.4552 23
117 1 1.98614 5.36973 -5.4922 23
118 1 8.93676 -10.141 4.55975 14
119 1 -3.17061 -12.7787 10.5296 20
120 1 -12.2745 -10.6913 4.26493 21
121 1 12.5446 7.86826 14.5551 11
122 1 10.3333 -4.45785 -4.16586 10
123 1 -17.1704 -2.81355 1.91493 21
124 1 4.84329 5.75409 10.1932 23
125 1 11.5085 11.8038 9.19463 12
126 1 -11.7628 -3.45326 17.4427 17
127 1 -8.39725 7.98496 13.701 18
128 1 -4.14676 12.6631 -5.19142 22
129 1 -3.53128 -7.58554 -9.77099 21
130 1 8.67582 -11.3596 -7.70362 9
131 1 -1.83386 14.4406 -9.70988 11
132 1 4.83524 -5.14724 16.2698 16
133 1 -6.28044 -2.44149 -11.5276 21
134 1 -3.22496 6.72663 -5.17544 24
135 1 7.22811 1.23251 -2.14291 21
136 1 -15.155 9.96555 -1.80817 17
137 1 -8.27137 12.1631 -1.81663 21
138 1 4.57818 -0.0534568 -7.02003 21
139 1 5.58657 -7.73971 8.25187 19
140 1 -5.70626 8.60653 -1.51045 22
141 1 -11.1372 12.0799 10.9423 12
142 1 10.8916 3.84498 -1.93656 13
143 1 4.68318 12.6873 -1.16975 20
144 1 -8.32938 14.6708 3.54412 16
145 1 9.2415 8.12921 6.40358 20
146 1 -3.14172 9.87977 0.123159 21
147 1 0.257754 16.0599 -7.77815 11
148 1 -0.464165 7.54546 -11.609 15
149 1 -13.7682 -13.2445 5.32607 17
150 1 -13.936 6.76694 1.96693 20
151 1 -7.13522 -4.70425 -9.64839 22
152 1 1.94443 -7.75405 -10.0224 20
153 1 8.0467 15.1153 9.66756 10
154 1 -3.17522 15.3657 10.1066 11
155 1 -18.9751 -4.66384 -2.63101 10
156 1 -14.7803 9.41162 3.83816 14
157 1 11.8453 3.00872 7.73756 11
158 1 -16.0595 1.11638 -7.86283 10
159 1 5.89488 3.85677 18.6822 22
160 1 1.13648 15.568 2.21923 12
161 1 -3.11631 8.92326 10.1299 20
162 1 -3.36539 -7.8431 -12.7546 15
163 1 -4.7735 13.0809 12.2625 15
164 1 -3.44354 9.29683 -3.33414 21
165 1 -2.53425 -1.20909 17.179 16
166 1 -14.1944 -1.62647 7.17748 23
167 1 -4.05042 -12.6518 -9.72049 17
168 1 -11.8399 12.2644 -5.91141 13
169 1 -5.77257 -7.91112 8.7569 22
170 1 1.77866 -16.3811 -1.87451 13
171 1 -5.80882 8.49039 -8.94982 20
172 1 -18.0811 0.420079 10.2879 16
173 1 4.72244 10.3733 -4.025 19
174 1 -9.66192 1.24785 19.0886 10
175 1 -3.76767 -9.72513 15.5082 11
176 1 -11.2139 2.8876 1.97865 23
177 1 -2.52208 15.1226 3.76544 14
178 1 -2.79447 3.90336 13.5286 22
179 1 12.4743 5.66556 17.1801 12
180 1 -12.3729 13.6232 7.79899 9
181 1 8.37009 -6.91022 -3.27368 19
182 1 -9.75373 10.9895 13.4421 15
183 1 -8.75656 3.90344 -6.54903 20
184 1 10.488 -5.09257 5.98615 17
185 1 -9.36109 -4.5167 8.77862 22
186 1 -14.2589 3.38328 6.56836 22
187 1 -11.0051 -11.9954 7.36455 21
188 1 5.06605 6.14497 16.9698 20
189 1 -18.6111 -0.0645699 1.939 20
190 1 -6.04301 -13.217 2.09304 20
191 1 2.48381 -7.60085 0.0161302 20
192 1 -6.26137 8.29072 5.02904 18
193 1 -1.90069 11.8609 18.2043 10
194 1 -11.9083 -2.52902 -1.31333 19
195 1 -8.44277 12.352 -5.18473 16
196 1 -17.8746 -5.65684 0.352484 20
197 1 -15.3755 -4.52494 12.0076 21
198 1 -2.74496 -13.0352 6.89849 19
199 1 0.572793 -12.1704 12.8638 14
200 1 -15.5956 6.72842 5.25178 17
201 1 10.627 5.1221 9.80771 21
202 1 4.67616 6.07307 -0.084765 21
203 1 -9.50331 -10.0226 -7.62374 22
204 1 4.82182 0.381926 13.5957 22
205 1 3.57876 -13.4805 6.03923 16
206 1 -6.51622 9.81705 -12.3256 13
207 1 1.63033 -14.2133 -8.2603 15
208 1 4.72703 0.834568 -10.2981 18
209 1 -1.51483 5.84876 -14.1844 13
210 1 -10.2248 -4.77587 -4.49646 23
211 1 -5.88176 15.0152 -4.73299 13
212 1 -8.71156 -7.05487 13.9455 20
213 1 6.91313 16.7308 3.41286 11
214 1 -14.5191 -2.71464 16.6872 16
215 1 -5.73225 11.7034 -3.14757 19
216 1 8.06343 0.459448 11.6508 23
217 1 -6.50103 -7.94328 -7.92356 21
218 1 -6.02825 8.63313 -4.90922 21
219 1 -1.02319 5.61109 -7.0162 21
220 1 -5.09836 -12.8672 12.9288 15
221 1 -5.6026 9.11442 11.8999 18
222 1 -11.2583 8.64512 12.0938 18
223 1 -3.09248 -13.1427 -3.07252 20
224 1 -9.40767 -12.5238 0.750847 19
225 1 3.1141 -13.0448 -0.225828 21
226 1 8.59498 3.98564 20.7784 13
227 1 4.0019 11.4249 -6.46426 14
228 1 -0.777707 8.47917 -1.75268 23
229 1 -12.2818 0.719925 6.75571 24
230 1 -13.5317 9.41015 0.374788 21
231 1 -0.455805 5.74674 13.744 22
232 1 2.18638 -16.2058 7.88788 11
233 1 6.9734 0.79788 1.28843 22
234 1 -0.087387 8.29466 8.759 18
235 1 -12.4338 6.39019 10.384 19
236 1 -14.1991 -10.3762 -0.68711 12
237 1 4.88939 4.81862 -10.4461 17
238 1 -0.925354 0.187302 13.667 22
239 1 1.6409 10.037 -11.8092 10
240 1 -1.02736 -10.7423 0.0735254 20
241 1 -7.24807 0.612382 -10.042 22
242 1 -3.18206 -15.3907 9.03605 19
243 1 4.26902 0.707326 -3.49586 20
244 1 -11.2748 -1.80144 8.61338 22
245 1 1.96135 -15.647 1.55382 16
246 1 -12.7872 -5.7353 -6.51622 18
247 1 2.91657 11.7915 1.40548 21
248 1 -0.428142 -1.9845 -11.3702 22
249 1 4.89978 6.50248 20.5191 12
250 1 10.4763 1.14005 6.22388 17
251 1 7.06198 -9.65277 -9.49015 11
252 1 -9.21065 -1.80172 -6.26048 22
253 1 -17.2288 -2.37534 -7.88657 9
254 1 -7.21057 -15.324 4.65327 21
255 1 8.42396 2.63597 13.6959 23
256 1 0.0548665 -2.67441 12.3481 23
257 1 -9.33572 -7.50242 -6.20808 20
258 1 -1.06012 10.9249 -9.9806 16
259 1 1.9722 9.09263 2.80442 25
260 1 -11.5658 -7.13639 5.45197 18
261 1 -1.08465 14.0752 1.40757 17
262 1 -8.56768 -1.26776 13.5145 22
263 1 -15.0049 -9.60064 -5.95766 11
264 1 -9.08854 -7.14099 -9.7677 18
265 1 -8.72745 9.38603 -10.2175 18
266 1 -11.4403 -11.2598 -2.5372 18
267 1 -6.14192 -10.6234 3.95199 20
268 1 4.29407 -5.33571 -9.93079 17
269 1 8.70286 -2.26857 -5.95242 13
270 1 8.71981 3.71648 3.16682 21
271 1 -8.95824 -3.73645 15.2787 22
272 1 -6.58859 -10.8626 0.319716 22
273 1 5.66748 0.866416 20.1943 18
274 1 -8.03343 -13.7493 7.85015 21
275 1 -2.69839 -13.0651 3.48301 21
276 1 -3.05778 12.5342 -1.49529 24
277 1 2.32582 2.54279 -10.0939 21
278 1 -9.1527 -2.07233 -9.6592 23
279 1 -12.0776 -10.8477 12.9794 15
280 1 2.68249 3.80056 20.8768 17
281 1 -0.865804 -10.5351 3.41155 22
282 1 -7.29529 -10.8238 -9.76764 18
283 1 -11.1631 5.83887 -3.30536 20
284 1 8.70487 9.65287 8.9501 20
285 1 -3.75414 6.06424 -12.3993 14
286 1 -4.02718 6.32869 -8.88602 17
287 1 6.17149 -12.183 -10.4281 12
288 1 -5.13395 14.2499 1.99122 20
289 1 4.002 10.6861 11.9994 17
290 1 10.9497 -1.96681 4.76796 14
291 1 -12.2201 1.18581 10.0082 24
292 1 -1.25559 -3.7886 15.6568 14
293 1 -5.7024 8.38792 8.37224 21
294 1 -1.71486 -4.98793 -9.7461 21
295 1 10.3272 10.9211 -2.1896 14
296 1 -0.753053 -10.7098 6.64978 21
297 1 -3.7528 0.813108 18.7476 16
298 1 -19.0612 -4.89912 5.91352 10
299 1 -0.76667 -15.9341 -3.52145 15
300 1 -12.8906 6.40047 13.6727 14
301 1 -14.1988 2.54695 17.6692 10
302 1 -15.487 -4.12403 8.85381 21
303 1 -15.8629 -8.56483 7.98883 16
304 1 12.9265 -3.88653 0.935599 8
305 1 -12.3938 -11.9341 9.88728 16
306 1 5.50165 -8.1774 -4.63364 22
307 1 8.37276 -7.55239 -0.152752 19
308 1 4.10287 16.2417 -2.74297 13
309 1 -9.07098 9.34006 -3.6411 17
310 1 10.1411 7.41149 16.4816 15
311 1 -11.5177 -2.2807 5.42829 19
312 1 8.52522 -13.3075 -2.99688 9
313 1 -8.59832 9.26974 7.00716 21
314 1 -9.29216 6.4975 8.52739 22
315 1 -0.230038 -9.18963 14.4869 13
316 1 14.1055 -2.82323 12.7909 8
317 1 -3.61243 6.02376 12.0292 20
318 1 -9.87093 -4.60195 -1.30644 20
319 1 -7.05262 0.74465 17.3974 18
320 1 -3.25743 12.4182 8.12706 20
321 1 5.39931 3.34246 21.9489 11
322 1 -10.8999 12.9302 -3.05877 14
323 1 -7.63872 -5.46576 -13.0854 15
324 1 2.94343 -12.6968 -10.8788 14
325 1 -12.4588 0.203656 16.8409 16
326 1 -18.0412 1.24928 6.60247 13
327 1 -7.45188 -5.28932 -6.29869 22
328 1 -5.33802 8.37313 1.80884 23
329 1 5.73572 -2.42925 8.29083 24
330 1 -10.408 -16.9232 4.46773 12
331 1 3.00497 -10.2199 13.4568 11
332 1 -10.7393 -13.8694 12.7405 13
333 1 -17.6669 4.20073 5.33575 13
334 1 -3.60592 -4.66506 12.1345 19
335 1 2.889 -13.8154 -2.96954 19
336 1 -6.98967 -0.0751429 -6.16836 19
337 1 3.96991 -4.08178 -12.7579 16
338 1 -0.666982 14.2575 7.39124 16
339 1 -12.1012 0.561004 -2.89243 20
340 1 -1.69149 -10.1699 -9.93361 21
341 1 4.5342 5.57846 -7.60814 23
342 1 -11.7438 -8.14883 -8.53027 18
343 1 -15.7143 -5.01475 -1.69402 22
344 1 -8.49641 -7.18077 3.49072 20
345 1 11.0804 3.42365 18.5919 15
346 1 9.78043 0.517755 -0.792351 18
347 1 -13.6826 7.13387 -1.7122 21
348 1 4.35715 15.2068 2.08272 17
349 1 -17.2779 -2.31514 -0.998593 23
350 1 -11.1483 10.6455 5.6748 17
351 1 -8.66011 9.09987 3.6736 19
352 1 -6.71677 5.51112 10.2233 19
353 1 10.1401 3.8 15.7508 20
354 1 4.25974 -4.37071 -3.23586 20
355 1 7.34282 -4.17504 18.4755 12
356 1 7.24745 0.64386 -5.5499 16
357 1 -8.65993 -15.7002 -2.97382 14
358 1 -0.179216 -8.00701 -1.4798 22
359 1 -0.84545 8.40461 5.17359 20
360 1 -12.9306 0.710064 -6.47614 21
361 1 1.8307 -10.153 1.55059 22
362 1 7.80347 0.549702 8.38505 24
363 1 -12.8394 -5.51059 -2.78492 19
364 1 -9.27477 -9.27612 8.92328 23
365 1 -13.3433 -8.45059 14.4313 12
366 1 -3.53886 9.45598 3.54493 21
367 1 -11.9891 -10.9101 1.1071 18
368 1 -0.427019 5.94196 20.3358 16
369 1 -8.90082 6.55442 -1.55445 23
370 1 -0.222275 14.1516 -4.87183 18
371 1 5.94827 8.35972 11.2914 23
372 1 -17.1151 -8.6309 -1.03541 11
373 1 -6.61047 -11.0012 -2.87572 22
374 1 -15.3595 0.873148 8.49134 20
375 1 -16.3235 7.58487 -0.102172 15
376 1 2.91831 -6.67363 9.84257 23
377 1 -8.18347 -14.905 0.767182 17
378 1 10.3392 15.0994 3.53416 11
379 1 1.84645 6.2413 -12.1479 18
380 1 -17.1658 4.14055 -0.236129 15
381 1 -5.25586 14.3208 -8.23878 13
382 1 -8.62345 6.52713 -4.93052 22
383 1 -6.60956 -11.2242 10.2212 21
384 1 8.73931 7.4462 10.8577 19
385 1 -1.30014 5.3238 -10.2442 20
386 1 -6.29632 0.499249 13.8481 20
387 1 -21.6918 0.310163 0.698664 8
388 1 -8.89562 3.2018 10.1179 20
389 1 -8.39469 -12.8284 4.11989 19
390 1 -0.547442 -12.8871 -10.5805 14
391 1 -15.8052 5.72972 11.0556 14
392 1 -17.4837 -2.0629 12.2126 16
393 1 -17.3329 3.25367 8.77205 16
394 1 -5.64017 -7.59101 12.1077 20
395 1 -13.6253 1.43271 -10.3103 13
396 1 4.56668 -10.3035 -7.10854 20
397 1 -4.52006 -10.0997 -8.16127 23
398 1 -6.62879 -5.32493 10.5691 20
399 1 -10.2836 -0.280639 -15.405 7
400 1 2.19654 -10.3333 5.01633 20
401 1 -0.887012 8.42753 -5.40246 20
402 1 -15.8291 9.63406 6.92113 12
403 1 -6.24395 -4.83707 17.0636 15
404 1 -13.7821 -10.3462 -8.42407 10
405 1 -12.3874 -4.00759 13.8371 22
406 1 8.9301 -5.34494 11.7236 16
407 1 -1.30998 0.0832493 -6.86485 23
408 1 7.92634 -5.05102 8.44369 19
409 1 10.2864 7.29858 -2.27186 15
410 1 -9.61819 0.962742 15.4704 18
411 1 -0.133529 11.0093 -0.0677375 24
412 1 8.45752 -7.91812 9.91103 11
413 1 -4.0544 -15.7635 2.40633 22
414 1 -10.8807 4.33104 17.994 12
415 1 -5.35934 10.8844 6.58294 20
416 1 -14.6278 -7.94386 -2.78606 16
417 1 8.15577 12.1413 3.78732 20
418 1 -1.10054 5.52184 10.3789 22
419 1 -5.78437 3.34764 12.0344 18
420 1 -8.88161 -7.4658 0.312173 19
421 1 -9.74341 6.28904 11.8552 20
422 1 -11.8036 -8.07961 -4.57535 21
423 1 -5.70502 10.9854 9.93339 18
424 1 -8.54928 -12.7947 -2.36212 24
425 1 -7.83525 -9.16708 -12.7767 13
426 1 -6.60291 -10.6821 7.24025 21
427 1 4.90409 0.427122 10.1077 22
428 1 -8.09212 -7.26266 17.8425 11
429 1 -14.1075 8.47933 -7.11363 16
430 1 4.17366 6.09482 3.52481 20
431 1 -11.0442 -14.2244 -4.01091 12
432 1 -5.77444 16.1558 4.34133 11
433 1 -3.60564 3.72887 -6.75705 21
434 1 -2.83642 8.1155 13.5359 20
435 1 -20.2946 -2.17103 0.422108 16
436 1 0.706468 16.2028 -3.03412 15
437 1 2.80238 13.5079 -3.62013 22
438 1 -6.03787 -8.19018 -4.65358 21
439 1 0.363164 1.09647 20.9657 14
440 1 2.31556 -15.6247 -5.43348 13
441 1 -4.44162 -4.70049 -11.5852 20
442 1 6.41975 -13.0208 5.05484 10
443 1 -12.2691 8.30125 4.86205 16
444 1 0.42243 4.03029 18.3287 20
445 1 6.98937 6.06365 1.76199 21
446 1 -0.740368 8.41193 1.76079 23
447 1 -13.5642 11.1881 -8.53417 9
448 1 -0.573858 2.89962 -5.12014 26
449 1 0.0302847 -7.99113 8.46154 20
450 1 -20.9346 -5.18769 0.657393 10
451 1 3.92084 11.2324 7.03824 18
452 1 -8.70536 3.76277 -9.88554 20
453 1 10.0639 6.78171 3.53622 18
454 1 7.88131 13.7447 -2.09348 11
455 1 6.59516 -13.8465 0.97407 14
456 1 11.5682 3.74664 4.30893 12
457 1 -4.46497 0.421283 -11.8791 22
458 1 -3.48731 -10.3662 5.11147 25
459 1 -1.81687 -14.6192 12.4722 12
460 1 -2.69669 -7.28917 10.3173 19
461 1 -12.8038 3.03042 -3.9894 22
462 1 -13.4613 -14.7099 7.91617 15
463 1 -3.57467 -12.7238 -6.15936 20
464 1 5.32525 14.3866 7.5544 19
465 1 -3.471 3.25802 -10.144 21
466 1 3.04069 -2.41406 17.1692 18
467 1 -18.0803 0.88871 13.5864 12
468 1 -2.53625 -18.4297 3.898 11
469 1 -14.1019 -3.06626 0.711994 20
470 1 10.0819 -4.87122 -0.655371 19
471 1 7.10561 -4.18353 -1.92579 23
472 1 -5.77597 5.69842 -3.22998 22
473 1 -0.560543 -7.90567 -5.09115 21
474 1 -0.333931 2.85612 -8.526 22
475 1 3.94718 -5.24089 -6.43453 22
476 1 -9.30049 -4.62334 18.8911 11
477 1 0.275324 14.2153 4.44927 17
478 1 -12.4561 -2.33923 -11.3323 13
479 1 1.72447 0.950337 -15.0253 12
480 1 -11.583 -5.97986 15.9942 19
481 1 -6.37045 14.022 6.68873 16
482 1 -9.54895 1.02532 -8.04266 23
483 1 -15.019 0.950606 5.29756 20
484 1 -1.49436 -10.1597 -12.8614 14
485 1 -9.74267 -11.4453 14.6997 14
486 1 1.33152 10.6898 -5.54551 20
487 1 13.407 4.71756 14.2556 12
488 1 10.155 5.93416 0.612924 17
489 1 -11.5603 -13.7926 2.96473 17
490 1 -3.5695 -9.79891 1.77397 21
491 1 -8.85874 -2.61735 -12.8149 18
492 1 -11.5882 8.45112 8.11718 17
493 1 -1.28958 -5.34938 -6.28133 23
494 1 7.66655 -4.58745 4.90107 22
495 1 5.45679 14.005 -5.15048 14
496 1 2.78319 -7.971 6.91914 23
497 1 8.6664 3.29608 -6.36673 13
498 1 -2.20666 8.58738 19.0478 16
499 1 -8.6166 2.80411 13.3243 20
500 1 0.259009 9.56426 17.2461 17
501 1 5.48067 -2.20008 18.6685 17
502 1 -4.2732 0.263359 -15.2013 16
503 1 -8.69735 -7.27034 -3.08742 22
504 1 2.15716 -5.11837 15.0467 18
505 1 3.04647 8.08163 12.7791 22
506 1 -1.92988 8.22506 -8.35173 19
507 1 -8.31378 9.44183 -6.80675 21
508 1 -1.43648 11.512 -3.6583 21
509 1 7.39299 -5.22871 15.0225 15
510 1 7.26986 -0.221234 -8.45024 16
511 1 10.9336 -7.47839 -2.15989 11
512 1 7.51884 5.43148 11.9843 25
513 1 -16.6753 -9.40304 2.70767 15
514 1 -9.58247 12.0898 -8.18726 13
515 1 -2.85577 -1.93182 13.9455 19
516 1 -17.5673 -2.61413 14.9224 15
517 1 -6.28673 11.5875 -6.93158 19
518 1 -0.122396 -13.6483 -1.77753 20
519 1 1.52398 -5.30061 -4.90147 24
520 1 -5.76609 14.4451 -1.56395 19
521 1 -10.5442 -4.66679 -11.6733 12
522 1 -0.464265 -10.813 9.89248 19
523 1 -19.2409 -4.95896 2.84595 15
524 1 -4.35287 11.8175 -12.3887 8
525 1 -5.85174 11.1481 17.6083 11
526 1 -11.6913 -6.84596 8.73507 20
527 1 7.23812 5.46209 -2.54959 19
528 1 -1.19219 -10.494 -3.43688 21
529 1 -3.21161 -4.27978 18.2273 10
530 1 -11.1308 5.74494 3.41906 20
531 1 2.95298 1.24966 22.4378 11
532 1 2.48186 14.25 -0.38395 19
533 1 5.62903 -7.1532 1.47524 23
534 1 0.0746559 8.80866 14.4134 18
535 1 -3.43158 2.73474 -13.3799 18
536 1 -8.4987 -16.2853 12.218 9
537 1 -4.26062 0.742613 -8.4936 21
538 1 3.79969 -0.599508 -13.0911 16
539 1 10.6976 14.5345 7.24828 10
540 1 7.45043 6.65199 -5.67387 21
541 1 -3.19762 -2.31972 -13.1085 19
542 1 -5.73185 -14.0409 -1.29137 22
543 1 -12.2679 -2.64007 -7.69695 21
544 1 7.43951 0.743713 4.94207 21
545 1 8.06484 3.3605 -0.0944967 20
546 1 5.73481 -7.46532 -7.6015 17
547 1 8.08246 7.63145 20.1127 8
548 1 1.66463 -10.9649 -1.74201 20
549 1 -0.702822 3.04544 -15.2927 11
550 1 3.34631 13.1033 9.8026 14
551 1 -11.2164 3.15645 5.41654 21
552 1 4.8068 8.94837 18.8389 12
553 1 10.6343 5.1497 -4.99837 10
554 1 11.4068 -6.31331 10.2477 13
555 1 5.22862 3.7512 -5.10164 21
556 1 7.48756 2.33796 17.3242 22
557 1 12.6301 2.25008 15.8165 14
558 1 2.03328 -4.90968 11.6182 22
559 1 10.5943 12.5247 1.29198 11
560 1 -0.849076 1.33119 17.501 16
561 1 11.9201 -1.83992 -0.770951 10
562 1 5.69654 3.24244 15.5728 22
563 1 -9.70195 1.01032 -4.70636 23
564 1 7.43069 5.90052 5.15629 22
565 1 10.2641 -4.62156 2.96356 20
566 1 -16.704 2.94844 15.7058 11
567 1 7.85882 9.25694 17.3809 11
568 1 8.55529 -2.40932 16.5511 20
569 1 3.53151 8.32997 9.2566 19
570 1 -1.91819 13.981 12.8611 14
571 1 2.80095 3.24248 10.1444 20
572 1 -3.07411 -18.1915 7.47798 14
573 1 -5.45626 11.535 3.81076 18
574 1 7.27516 10.3949 -6.72358 14
575 1 5.9397 -2.39883 -10.8947 11
576 1 2.97671 17.318 -0.288155 11
577 1 -3.50605 -15.6622 -5.25262 15
578 1 2.5346 -8.17182 -6.3847 22
579 1 -14.9 0.974025 11.8016 21
580 1 -8.26314 6.90009 -8.31638 20
581 1 -3.56963 -18.3855 0.702935 8
582 1 -6.32185 -2.1601 -8.02729 22
583 1 -19.8941 -1.10901 -2.3993 12
584 1 8.16703 -7.54999 3.35848 21
585 1 7.85181 8.95933 2.98707 19
586 1 -3.61182 -10.0166 8.58334 21
587 1 -15.2488 2.21288 -5.02325 14
588 1 -1.39176 0.0905585 -13.9227 16
589 1 -3.64824 6.29506 15.5495 21
590 1 0.659468 13.223 -9.80662 12
591 1 11.6223 -2.05539 15.1822 14
592 1 2.45365 2.72082 -3.5572 22
593 1 10.197 12.2011 6.12457 17
594 1 4.72075 -15.7559 -0.279735 13
595 1 -14.6816 -6.08519 17.5891 9
596 1 8.8129 -2.43128 9.88779 20
597 1 -3.48688 11.9966 14.9308 16
598 1 3.15728 13.8798 -7.85915 13
599 1 -11.024 5.84794 0.359485 26
600 1 7.04811 10.2246 5.97135 20
601 1 -10.5047 -14.4155 6.08806 20
602 1 9.95563 0.991533 3.37753 19
603 1 5.8119 12.3228 1.45212 16
604 1 -5.71765 2.99726 15.3027 21
605 1 -11.5687 -7.59312 2.07378 20
606 1 -12.0503 -1.90022 -4.75232 18
607 1 7.3787 0.438757 15.121 21
608 1 -3.64506 -5.97115 15.3571 15
609 1 8.6007 5.53435 18.2386 19
610 1 -8.08748 12.0609 5.26227 20
611 1 5.82073 3.17377 4.8385 21
612 1 5.74412 2.91176 8.3979 23
613 1 -5.67199 -2.78905 -14.8947 15
614 1 -9.32792 -4.26539 12.221 21
615 1 2.27084 -2.5658 -6.81282 21
616 1 8.53854 -11.8944 0.00972444 15
617 1 5.54619 2.73182 11.9422 22
618 1 -5.75292 -2.05278 15.5233 22
619 1 5.70328 9.1196 14.7656 18
620 1 0.21627 -1.4137 15.2992 17
621 1 -9.37054 7.05143 18.0141 12
622 1 -4.37046 -4.73808 -7.94571 21
623 1 -12.5555 0.954499 13.5656 23
624 1 2.99404 3.47488 16.9728 23
625 1 -13.0154 -16.2151 4.70318 11
626 1 7.73329 7.77763 -0.324697 20
627 1 3.48871 -12.6313 3.00796 19
628 1 5.0915 8.63299 1.44568 22
629 1 11.9204 9.47169 6.66796 11
630 1 -0.677572 -4.60314 -13.6166 17
631 1 0.0113035 13.7516 -1.75161 21
632 1 4.19225 8.31846 5.26286 21
633 1 -9.35182 -10.0219 2.23942 20
634 1 -7.02985 -0.281652 -16.8749 10
635 1 -13.1478 12.4375 -0.142775 13
636 1 1.49996 -10.4945 -8.52962 19
637 1 6.97779 7.80698 -9.38057 11
638 1 8.69024 15.3614 0.981801 11
639 1 -8.23865 6.52296 2.00763 23
640 1 2.17783 5.68882 -1.99299 21
641 1 10.4109 0.33848 17.41 16
642 1 8.10914 -0.418723 18.9225 17
643 1 -7.2079 -14.6295 13.9805 8
644 1 -12.4558 8.42555 -10.8513 11
645 1 2.29254 10.9017 14.47 13
646 1 4.56583 -7.36854 -12.5201 14
647 1 1.98978 0.435956 11.9339 23
648 1 5.15454 10.8949 3.73841 19
649 1 7.57498 5.63669 8.37984 22
650 1 10.9713 -6.99769 1.61025 14
651 1 2.42559 1.36358 19.0041 18
652 1 -17.3889 -5.76929 7.74864 13
653 1 -0.450367 -16.0519 3.71787 18
654 1 -3.46773 -2.03869 -6.46252 21
655 1 -10.197 14.3523 0.842688 13
656 1 6.73163 12.8496 10.5212 15
657 1 -17.4498 -1.66824 8.14279 16
658 1 -5.55364 3.52466 19.4098 12
659 1 -7.45177 6.80144 -11.5523 18
660 1 -13.283 5.0455 -9.48953 10
661 1 0.457429 -13.2059 4.82396 20
662 1 5.31096 8.29556 -6.63106 20
663 1 -15.4805 -0.00673761 15.7219 14
664 1 1.43783 -5.54673 -8.09849 21
665 1 -2.13205 -11.7006 13.8157 14
666 1 -3.66098 15.6828 -0.296644 10
667 1 -8.22634 3.58966 17.9054 17
668 1 -10.1065 -4.5675 -7.99465 23
669 1 -6.45604 -12.6952 -11.6897 9
670 1 -8.96812 -12.9772 -5.83843 16
671 1 -2.54232 15.1411 -6.73568 16
672 1 4.35309 -9.98232 -0.12156 21
673 1 -0.466917 11.1108 9.40029 21
674 1 5.89754 -12.5043 -1.94996 18
675 1 2.39777 -16.4109 4.88923 15
676 1 5.85623 -7.21556 12.0141 16
677 1 8.88376 -1.62002 -3.10888 18
678 1 -0.245653 -13.6577 -5.18521 23
679 1 -14.3622 -1.58378 10.3789 23
680 1 -6.24765 -16.9445 -0.695909 11
681 1 -9.41702 -10.093 -1.11253 22
682 1 -14.6218 -1.76617 13.3833 20
683 1 -11.1397 -14.7233 -1.0743 10
684 1 9.94522 1.72002 -3.86662 15
685 1 -8.97387 14.7796 7.20037 11
686 1 -15.8523 6.09086 7.89525 16
687 1 8.69948 -1.95488 6.665 21
688 1 -12.8901 -5.33283 -9.52013 16
689 1 -0.581466 5.82915 -3.58554 23
690 1 2.76922 2.71115 -7.05611 22
691 1 7.4066 10.9137 12.5517 18
692 1 11.1178 2.84993 1.3278 15
693 1 -16.9706 0.125943 -3.40076 17
694 1 -15.8263 -6.52573 -4.54457 16
695 1 -5.96191 8.08126 18.4795 15
696 1 1.8381 4.29304 -14.8707 11
697 1 6.00362 8.19334 7.83243 21
698 1 -5.60991 -2.44278 12.3409 21
699 1 -0.741767 -15.8416 0.366555 16
700 1 -8.57551 -16.7783 9.19217 14
701 1 -6.65935 -5.28476 13.9885 18
702 1 8.47016 8.35298 13.9509 19
703 1 -1.48646 -11.0263 -6.56709 19
704 1 -8.01735 11.9116 2.1741 20
705 1 1.51882 9.12833 6.5844 21
706 1 -12.2668 -4.17458 10.2784 23
707 1 3.94595 7.62275 -9.97793 17
708 1 -3.08035 -16.0029 -1.58394 16
709 1 -0.815224 -16.7669 9.26834 13
710 1 -3.41246 -15.8078 5.70576 23
711 1 2.19238 8.12894 -7.15852 17
712 1 3.33314 15.6099 4.93504 14
713 1 -10.2882 -0.0198378 -11.7829 17
714 1 2.46799 0.452619 15.3989 21
715 1 -9.74142 7.83199 -13.1728 10
716 1 -11.2951 -0.293099 -9.24302 21
717 1 -15.6471 -5.67386 2.50901 19
718 1 2.80308 15.9633 -5.59364 13
719 1 -6.16741 -7.2399 -11.598 17
720 1 -12.6191 -4.76603 7.17586 19
721 1 4.84159 6.76893 -4.08385 18
722 1 10.6797 -10.1811 1.80342 15
723 1 -8.90274 4.98878 15.3063 17
724 1 3.63963 -9.11294 10.7314 15
725 1 10.9248 -7.60297 4.61816 16
726 1 8.47132 -2.54982 13.2934 23
727 1 -0.206643 11.3602 6.45179 19
728 1 -15.613 -5.15529 14.9926 15
729 1 -11.8974 3.761 15.2658 19
730 1 -6.3558 -14.8295 10.366 17
731 1 8.22298 3.24641 6.55087 20
732 1 3.30101 9.16072 16.1471 16
733 1 -17.0549 -1.63644 4.9171 20
734 1 4.79957 -9.58776 3.12325 18
735 1 -12.4195 10.5341 -2.96024 19
736 1 0.0598562 -14.274 10.2465 14
737 1 3.03274 -2.42656 13.874 22
738 1 5.71582 10.882 9.21367 22
739 1 -5.29453 -13.0037 8.36074 21
740 1 -11.4315 -2.50904 2.12052 21
741 1 0.297087 2.76463 15.2765 21
742 1 -19.2221 -8.48819 2.098 10
743 1 -5.9651 8.44546 15.2652 19
744 1 2.56499 11.8652 4.56248 20
745 1 -12.5707 -9.68327 6.98829 20
746 1 -8.34731 -18.1461 5.80087 12
747 1 5.16372 -4.48963 10.0648 19
748 1 11.1661 -3.97553 12.7768 15
749 1 1.93604 5.4515 11.6819 22
750 1 1.32528 -10.6069 -4.99297 20
751 1 -7.20567 -0.130552 -13.6106 19
752 1 -8.75902 -1.59353 17.1717 17
753 1 -3.74217 15.3827 6.74157 14
754 1 10.9091 1.61891 10.0982 15
755 1 1.83649 8.10873 -3.77182 22
756 1 -8.43765 10.28 16.579 15
757 1 4.8548 5.5397 13.7054 22
758 1 1.36678 -4.89016 -11.4769 23
759 1 -9.09519 -9.86225 5.28763 19
760 1 11.6017 -3.62843 9.84447 13
761 1 -0.371906 -2.77539 -8.26156 20
762 1 -6.15015 5.81499 16.8283 20
763 1 9.26497 -10.564 -4.15102 12
764 1 0.0427229 3.53652 -11.8446 23
765 1 -5.94501 -8.12779 -1.48154 20
766 1 5.94247 2.71247 -7.74293 16
767 1 11.5406 -0.732362 8.077 15
768 1 -0.751238 -5.80518 13.528 22
769 1 -3.81849 -10.1379 -4.93704 21
770 1 7.4449 12.868 7.56129 22
771 1 -11.0652 4.04713 8.68988 20
772 1 4.9421 3.63874 -1.95415 20
773 1 11.2628 8.17346 9.16307 15
774 1 -3.73161 -5.26125 -14.6818 11
775 1 -9.37387 12.1861 8.43558 18
776 1 10.7787 10.0072 11.9341 16
777 1 9.90728 9.47352 -4.70046 11
778 1 1.20965 0.587817 -11.7799 20
779 1 4.36632 -4.48575 0.0613979 20
780 1 -18.4012 0.689313 -0.636314 20
781 1 11.0594 5.8228 6.47328 16
782 1 -14.6545 -12.1461 2.51046 14
783 1 -14.6042 10.7314 -5.05733 12
784 1 2.72016 3.02084 13.6121 22
785 1 -15.2906 -1.11893 -5.8445 19
786 1 -14.5011 4.02495 13.3227 20
787 1 -6.09408 3.12211 -4.8742 20
788 1 6.26641 -11.7457 -5.42013 16
789 1 -14.7077 -7.23038 0.754576 20
790 1 7.36526 -4.60031 1.54685 23
791 1 -17.2056 2.55575 3.29029 16
792 1 -12.397 -5.35883 0.400544 21
793 1 9.85223 12.9859 12.1411 8
794 1 -14.1593 -6.74011 10.1865 21
795 1 9.4568 1.15715 20.7876 9
796 1 13.0516 -6.08367 7.52635 8
797 1 4.68143 -4.93961 6.92772 23
798 1 -13.7558 3.64569 3.56283 24
799 1 -0.42757 9.14477 11.694 17
800 1 2.63775 10.7062 -9.16334 13
801 1 -4.8316 -10.2496 -11.4214 16
802 1 -5.86542 13.7393 9.39027 16
803 1 -14.6689 -10.138 10.7126 13
804 1 5.14022 8.98435 -1.57521 19
805 1 -0.954154 6.58488 16.868 22
806 1 5.35103 -7.11417 -1.57231 21
807 1 2.83374 -7.50992 13.5125 18
808 1 -11.0278 9.57652 -8.30595 19
809 1 2.29769 10.9697 -1.81205 22
810 1 -9.74248 0.900443 11.5959 18
811 1 12.2627 7.52539 11.8723 12
812 1 -3.59804 -2.02126 -9.90263 21
813 1 10.4948 9.19253 0.763185 15
814 1 -15.0504 0.951306 1.81703 17
815 1 -7.07509 -8.90157 15.1826 15
816 1 -1.30389 11.5893 -6.79897 19
817 1 5.70206 -2.32395 15.2393 23
818 1 -3.534 -12.98 0.195627 16
819 1 -7.22008 15.8006 0.868284 14
820 1 -16.6489 5.37271 2.22252 16
821 1 5.59062 -2.2164 -4.88506 22
822 1 1.29816 -10.3242 -11.6166 18
823 1 -12.5197 5.81291 6.88555 23
824 1 7.58034 8.37896 -3.38077 21
825 1 -8.5532 -1.7746 10.5561 20
826 1 1.40243 -2.33679 -13.5598 17
827 1 -9.57164 -10.1886 -4.36524 19
828 1 -3.84977 -10.1076 -1.45568 23
829 1 -2.24891 11.1732 12.114 19
830 1 4.81452 -15.4135 3.05823 13
831 1 -6.94358 11.737 -10.148 17
832 1 8.33868 -2.0048 -0.376247 21
833 1 4.7289 5.52833 6.79056 23
834 1 -0.0784413 -18.2041 6.17524 14
835 1 -0.804336 -7.31007 -14.85 13
836 1 8.43262 -1.59086 3.2383 19
837 1 -6.20358 2.57335 -11.7725 16
838 1 -3.47511 -10.3355 11.8623 19
839 1 7.84638 11.3327 -0.986745 17
840 1 1.41542 0.304267 -5.23859 22
841 1 -11.4393 3.0248 -1.07615 23
842 1 -17.0618 3.08676 12.2576 15
843 1 -2.87503 3.31455 20.9386 10
844 1 -11.546 -6.74816 12.3153 19
845 1 1.90957 6.34498 8.37911 21
846 1 -5.28554 -13.4231 5.27936 24
847 1 2.13469 8.69465 -0.232348 21
848 1 -6.58155 5.54174 13.5197 20
849 1 -11.2952 -1.62592 15.0329 21
850 1 -13.7275 11.5587 8.53632 14
851 1 5.29982 3.48479 1.29843 21
852 1 -12.3258 -11.9222 15.5602 9
853 1 2.02172 -10.7847 8.14556 18
854 1 10.3618 5.61985 13.4138 24
855 1 2.36892 -7.88584 -3.33193 21
856 1 4.73747 -13.6852 -8.0656 11
857 1 -11.3937 2.87222 -11.1391 15
858 1 -6.40606 2.61718 -14.9959 11
859 1 8.10619 15.0428 5.32631 15
860 1 -15.9538 -7.63375 12.7799 13
861 1 -11.2126 6.17574 -6.91906 19
862 1 -18.4822 2.37569 -2.91536 12
863 1 5.64902 13.7618 4.41045 22
864 1 -11.2092 -17.4175 7.61295 12
865 1 -2.74431 9.19435 7.01119 21
866 1 7.69618 5.53918 15.5265 22
867 1 -11.9786 -11.7474 -5.98143 14
868 1 -0.354121 12.9631 15.0228 11
869 1 -11.4691 -1.75202 11.78 21
870 1 -6.16475 -13.4325 -8.00004 15
871 1 13.2705 0.797787 13.2455 11