ITEM: TIMESTEP
37000
ITEM: NUMBER OF ATOMS
1000
ITEM: BOX BOUNDS pp pp pp
-30.0 30.0
-30.0 30.0
-30.0 30.0
ITEM: ATOMS id type x y z Coordination
1 1 -7.59823 -5.02234 -13.6561 15
2 1 4.84037 -6.23959 -1.12049 9
3 1 -6.66387 15.6427 -3.25014 18
4 1 -9.32177 12.9541 -12.9674 12
5 1 -1.88957 0.103412 0.860686 20
6 1 -4.11401 9.69377 -16.8107 15
7 1 -5.80736 -3.44507 -3.09129 23
8 1 0.952757 1.08157 3.84302 23
9 1 -4.87474 11.3148 0.673459 20
10 1 6.94706 4.63632 -1.45222 21
11 1 -3.73065 15.8555 -13.9305 11
12 1 0.241394 9.22316 7.19827 11
13 1 -13.5259 6.83464 -4.41474 16
14 1 -0.797959 5.44776 -14.9201 23
15 1 3.74328 8.08169 1.59676 19
16 1 2.28295 0.961845 -11.436 21
17 1 -1.35281 9.96636 3.57809 18
18 1 -9.02083 -5.11941 0.23983 13
19 1 -11.3174 4.62696 -3.24154 21
20 1 -10.1513 3.6619 -5.91195 21
21 1 -8.94362 16.8418 -5.95696 12
22 1 -5.53247 1.98012 -14.1121 20
23 1 4.48747 1.06397 -17.7194 10
24 1 -3.84024 1.54803 5.51268 19
25 1 -13.5504 14.9313 -2.9291 14
26 1 -5.66605 16.191 -6.1415 17
27 1 1.72847 -3.93792 -8.12889 21
28 1 6.2325 -5.1792 -15.3416 8
29 1 5.45059 7.51366 -1.81283 23
30 1 -11.997 14.5435 -10.4056 12
31 1 -5.89385 16.587 -11.26 13
32 1 -1.35174 11.7004 0.641962 21
33 1 -8.16725 4.95924 -3.54081 21
34 1 -2.38248 4.87288 6.83668 16
35 1 -11.6298 2.21106 -1.34981 21
36 1 8.43257 8.14277 -1.90165 19
37 1 4.73639 5.04539 -9.56612 25
38 1 5.51748 5.19576 1.26452 25
39 1 -14.2575 1.74485 -7.46446 15
40 1 -6.51532 -1.13672 -13.6375 19
41 1 -12.59 14.8989 -5.84507 17
42 1 -3.8896 12.8279 -10.0556 19
43 1 4.55326 -0.0917731 -11.7644 20
44 1 5.50363 -3.63917 -0.738902 15
45 1 2.32015 -5.37486 -1.89934 18
46 1 -8.38217 11.2518 -0.23704 19
47 1 -6.86579 1.15943 7.05264 12
48 1 -12.0621 7.24713 -1.63932 21
49 1 7.62679 -2.87871 -13.7826 10
50 1 -1.66959 5.48485 -18.7883 13
51 1 -1.97685 17.3711 0.317592 14
52 1 -10.0746 11.4394 -10.5893 20
53 1 -1.82 12.7102 -7.43777 23
54 1 -6.94722 -3.58788 2.31403 14
55 1 -3.43951 -0.830908 -14.4852 22
56 1 4.23861 -2.06375 -17.2586 11
57 1 -2.63351 6.96959 4.49709 21
58 1 -12.2899 -6.5724 -6.1541 6
59 1 5.31146 -0.394576 -3.77709 19
60 1 -11.4824 -1.39215 -10.5335 16
61 1 3.61906 -3.20473 -3.60082 24
62 1 -5.34275 13.0119 -2.77472 19
63 1 2.00986 6.19258 -12.3635 20
64 1 6.63783 -5.30545 -11.6993 11
65 1 -9.68009 -2.36502 -6.02418 18
66 1 8.42601 13.9638 -3.89404 12
67 1 9.94067 9.68378 -8.18709 14
68 1 -7.98115 17.8919 -8.40984 11
69 1 0.584172 -3.96323 -14.6445 20
70 1 -3.54558 12.5379 -15.4953 14
71 1 7.17264 6.00266 -14.9603 13
72 1 1.84338 5.53741 -17.15 17
73 1 5.1855 -1.57068 1.48568 13
74 1 -12.7856 12.4804 -12.1516 10
75 1 6.49395 15.6516 -9.12268 13
76 1 10.0503 8.59077 -5.26947 17
77 1 -6.50433 14.9972 -8.86959 17
78 1 -8.28066 2.6363 -16.4391 13
79 1 -10.5062 0.330111 -12.0533 20
80 1 -4.64213 10.0937 3.9172 20
81 1 -11.328 17.0182 -8.51838 11
82 1 0.904485 3.30603 6.62526 15
83 1 -13.8427 -0.732359 -2.13217 13
84 1 -5.87739 -6.48077 0.830633 11
85 1 -2.53722 16.2865 -6.35651 16
86 1 12.2939 7.20044 0.687001 8
87 1 -1.78872 -4.57745 4.60994 6
88 1 -10.3709 9.68423 -6.78733 22
89 1 -2.3044 10.9977 6.48753 17
90 1 -6.69505 3.68986 -11.7123 21
91 1 -8.10404 -0.917973 -3.42397 19
92 1 -5.58175 -7.73655 -4.41951 14
93 1 12.0276 0.919822 -9.07044 12
94 1 -3.33359 14.1411 -0.458309 21
95 1 -6.15387 4.04287 -1.17907 21
96 1 -12.2954 4.2335 -8.86639 20
97 1 -2.79334 -1.54095 -1.75146 19
98 1 2.847 9.16625 -12.8109 19
99 1 -5.01235 4.59081 7.75759 12
100 1 -7.16026 14.552 -13.1865 11
101 1 -9.17275 -2.33162 -13.1329 20
102 1 -13.8984 14.7545 -8.18819 8
103 1 2.15535 5.96784 1.29458 19
104 1 -12.3778 12.2364 -8.01998 18
105 1 0.288807 7.3164 -17.8448 15
106 1 -13.5554 7.65602 0.914221 12
107 1 -7.72193 9.11982 4.32992 12
108 1 0.391838 -7.86782 -11.5979 13
109 1 5.91736 -2.5054 -6.29634 21
110 1 -0.943025 13.7895 -14.5164 13
111 1 -3.80492 17.1983 -3.52734 12
112 1 -15.4087 8.03399 -1.73975 10
113 1 1.06494 12.0652 5.98378 10
114 1 11.2074 -0.107578 -6.00253 15
115 1 1.75202 11.9461 0.346998 19
116 1 -12.9327 13.2255 0.371697 11
117 1 -13.2271 0.814816 -10.0194 16
118 1 -7.93098 4.17665 6.59737 11
119 1 4.31342 -3.8451 -9.44748 18
120 1 -2.3079 0.313525 -17.9633 12
121 1 9.27239 2.53123 -11.0736 15
122 1 -12.6589 -0.157274 0.616867 14
123 1 -11.8231 1.67626 -16.1291 11
124 1 -4.41203 -0.627436 -3.85658 22
125 1 -4.34847 -7.05529 -1.46188 12
126 1 -12.553 2.1287 -13.1544 18
127 1 -10.1854 4.30247 -15.0387 16
128 1 5.11363 10.9915 0.473396 19
129 1 1.88773 -0.461302 6.35466 13
130 1 -7.14085 -2.55366 -0.456696 21
131 1 3.09611 14.2292 -5.90608 20
132 1 -9.14056 -7.33698 -4.45622 12
133 1 -0.269194 18.1539 -4.85744 10
134 1 -4.23932 -6.48603 -15.0097 12
135 1 -4.7528 -1.27176 -8.80875 20
136 1 -6.04789 -1.95225 -6.29551 21
137 1 9.42001 10.7867 -2.90612 16
138 1 -3.30749 -1.73856 -11.7275 21
139 1 -7.42258 -0.455283 2.07607 20
140 1 -9.56991 -5.97351 -7.74039 16
141 1 0.10783 -1.57717 -6.24 22
142 1 1.6585 -4.39529 -5.44749 21
143 1 -12.4749 9.50792 -10.0499 18
144 1 6.59425 10.647 -2.86838 21
145 1 -4.21025 4.80087 -14.2047 21
146 1 -0.417976 16.5946 -13.7324 11
147 1 -2.52858 2.95714 1.53217 20
148 1 4.1847 16.5556 -0.244296 13
149 1 8.65169 2.06716 -1.08765 16
150 1 -9.32254 1.8501 -3.37123 22
151 1 -0.496787 0.0432393 6.24847 14
152 1 -9.55632 13.5902 2.17995 11
153 1 1.28571 -0.813831 -18.2366 10
154 1 3.26282 -1.64466 -6.10501 23
155 1 7.04159 -0.237855 -12.6237 14
156 1 -4.0143 1.61549 -0.858253 24
157 1 -4.49888 10.0019 8.05362 10
158 1 -9.95795 7.76499 -3.99988 21
159 1 9.27231 -3.37919 -11.4914 9
160 1 -3.44237 14.0648 -4.463 21
161 1 -6.80029 9.80013 -1.75524 22
162 1 -1.17504 -5.85052 -2.07157 18
163 1 -3.28936 12.6112 3.4133 18
164 1 -10.1618 1.50343 -8.68716 18
165 1 -7.2347 16.014 2.53777 10
166 1 -4.8306 6.3379 -11.7019 23
167 1 -15.7909 4.81406 -3.32895 10
168 1 -9.03334 1.55992 -13.6345 22
169 1 -7.32856 13.6997 -5.38461 20
170 1 11.0164 3.89823 0.512731 10
171 1 3.36099 -4.53962 1.75732 14
172 1 -0.797288 4.3083 4.24242 23
173 1 -0.506835 -6.84797 -8.56702 18
174 1 -6.89927 4.71008 -14.3336 19
175 1 -11.8264 6.5813 -7.01427 18
176 1 -1.36806 -1.11063 -8.96344 22
177 1 12.6688 3.38214 -7.15112 10
178 1 -6.31267 11.4046 -14.3632 13
179 1 -11.5985 10.4332 1.39573 13
180 1 -10.2381 15.1729 -3.66002 19
181 1 -2.78981 8.63065 1.23535 24
182 1 9.71409 -0.318656 -11.0434 14
183 1 9.3239 5.92189 -12.0064 15
184 1 -6.8175 9.71897 -6.87904 21
185 1 -4.88289 -6.35155 -12.0816 15
186 1 0.352974 12.8909 3.09384 23
187 1 -13.471 9.04395 -12.648 9
188 1 3.42349 -6.76923 -10.9522 13
189 1 8.19059 4.06585 2.47488 11
190 1 -15.0278 3.72706 -11.6969 11
191 1 -11.7064 -4.22657 -8.66453 12
192 1 -3.69079 16.5701 -9.26672 14
193 1 -7.43684 8.76405 -12.0076 20
194 1 -6.95111 -0.502249 -16.3458 18
195 1 0.309439 -5.59182 0.612716 12
196 1 -2.57936 -7.07798 -4.94661 14
197 1 -8.69394 9.40346 -9.00622 20
198 1 -2.93173 -3.74861 -3.61393 20
199 1 -7.19524 2.48683 1.03879 21
200 1 -8.33488 6.96195 -1.36411 22
201 1 0.437667 1.33519 -14.4892 19
202 1 0.56457 3.25331 1.51311 24
203 1 -14.9478 1.87635 -1.39731 13
204 1 1.0149 0.350092 0.617558 18
205 1 -5.80142 -1.52377 5.253 12
206 1 -2.80124 -9.09657 -12.6178 10
207 1 3.83402 -6.8558 -4.77579 15
208 1 -2.36991 18.1271 -11.4598 10
209 1 -11.2754 -2.57592 -0.87872 13
210 1 6.55629 1.40586 1.73253 15
211 1 6.62779 9.65441 -7.42085 21
212 1 1.39041 -4.19401 -17.1605 12
213 1 7.19719 -0.780952 -0.897387 14
214 1 -10.3005 4.06918 2.82811 16
215 1 1.88905 16.9156 -6.90769 15
216 1 5.60247 3.47208 4.56113 12
217 1 -7.75093 -6.56345 -10.1397 15
218 1 1.44642 17.4944 -1.05762 12
219 1 -7.76823 5.68378 1.39252 21
220 1 -12.5201 -1.39541 -14.2658 11
221 1 -9.40514 -4.00049 -10.8012 17
222 1 -6.4926 12.7647 3.52765 18
223 1 -6.12069 -3.56 -11.2786 25
224 1 -9.38911 3.91648 -0.634301 20
225 1 9.72784 9.2595 0.651694 9
226 1 10.007 2.65464 -5.35975 17
227 1 -0.345152 10.2111 -12.2405 19
228 1 -2.64847 9.19492 -14.0893 19
229 1 -4.43171 13.9792 7.83725 8
230 1 -15.5197 4.96747 -8.84274 10
231 1 0.532086 13.727 -12.36 19
232 1 -10.5085 -4.29091 -14.7482 10
233 1 -0.844667 -1.59059 -15.9301 18
234 1 8.6394 10.2769 -11.2028 17
235 1 -0.288071 13.7547 -4.96072 19
236 1 -0.413409 3.62131 -12.0629 24
237 1 -0.665381 -2.90377 0.282813 17
238 1 -5.01021 7.4786 -14.0351 17
239 1 7.70909 12.2914 -8.9932 19
240 1 5.25007 1.02452 -6.88988 23
241 1 -3.46081 6.42688 -16.6251 22
242 1 0.433505 -2.65411 -2.66852 22
243 1 2.01089 -5.21989 4.08618 9
244 1 -8.19068 6.31176 -11.8273 19
245 1 -5.35834 4.44477 -19.0531 11
246 1 -16.0477 1.40495 -4.39603 10
247 1 5.60677 5.65429 -12.0261 21
248 1 -6.74798 12.4566 -10.7721 19
249 1 2.72626 -6.53514 -14.391 12
250 1 -3.83297 2.83767 -16.6461 16
251 1 11.8576 4.36207 -10.118 13
252 1 -9.62154 0.310473 -0.539969 20
253 1 -5.11863 16.5332 -0.415148 13
254 1 0.0780287 11.4083 -14.6814 18
255 1 11.0104 7.64523 -10.1018 13
256 1 -2.2059 -8.72162 -9.59641 12
257 1 2.35549 -0.839524 -14.0389 21
258 1 1.76951 12.7082 -7.98587 21
259 1 11.9325 5.75363 -4.40099 14
260 1 -2.58039 -4.18423 -12.9059 24
261 1 -9.82567 8.21299 1.75238 16
262 1 -5.88998 0.243469 -11.0763 18
263 1 -2.23282 2.14394 7.55945 10
264 1 4.76301 13.1948 -14.2796 10
265 1 -8.64042 12.2785 -8.06903 16
266 1 -0.823434 16.2897 -2.56171 19
267 1 -7.30693 3.44859 3.67587 17
268 1 2.88623 -7.10636 -7.7682 15
269 1 6.03601 2.08682 -10.4608 20
270 1 -12.8434 -1.47134 -7.54549 13
271 1 -13.0654 6.48375 -11.0638 16
272 1 -9.79317 -2.3505 1.62568 15
273 1 3.67608 15.7585 -9.25871 18
274 1 -1.29218 -6.53187 -14.199 15
275 1 3.70594 -2.38143 4.35626 13
276 1 3.88077 3.42107 -12.0815 19
277 1 -11.7316 12.9052 -3.16216 20
278 1 10.6237 -2.07794 -8.58148 12
279 1 -2.16906 15.6209 5.42314 12
280 1 -5.51708 1.05011 -18.5331 11
281 1 2.58544 10.6353 -16.4176 13
282 1 -4.09257 -1.87942 -17.0944 15
283 1 -3.17449 -4.47408 -9.42394 19
284 1 9.36567 -3.36978 -5.43675 14
285 1 2.32521 -2.7609 -11.2352 17
286 1 1.27696 -9.08456 -8.5588 10
287 1 4.75758 15.3746 -12.1132 12
288 1 -12.2873 9.51765 -3.9273 18
289 1 9.90389 8.22055 -13.7706 11
290 1 1.26088 -3.48316 6.48348 8
291 1 3.76312 11.8935 3.79213 11
292 1 -10.2222 4.00056 -11.5785 22
293 1 10.981 6.1504 -7.31344 14
294 1 7.42992 -2.54817 -3.31971 16
295 1 -4.22177 15.2925 2.31036 18
296 1 0.576527 7.30523 4.05824 19
297 1 -12.2718 17.7487 -5.22819 10
298 1 -5.33144 -8.76017 -9.99794 11
299 1 -5.57342 9.87178 -9.30531 22
300 1 -4.97248 7.24841 -19.4477 10
301 1 -10.3403 9.49987 -12.363 20
302 1 6.67504 -5.46435 -3.73295 12
303 1 3.63313 2.76572 1.42507 22
304 1 4.0939 7.74939 -15.2012 18
305 1 8.68725 6.20646 0.0484575 18
306 1 5.1552 16.6517 -6.06763 13
307 1 11.087 3.2508 -2.578 14
308 1 -5.65083 7.21773 4.416 16
309 1 -11.6974 -1.64504 -4.10095 13
310 1 -10.6458 6.74657 -13.3585 13
311 1 2.40626 9.25767 5.16345 14
312 1 -10.6601 14.4816 -0.475378 12
313 1 4.36706 12.8494 -3.79513 22
314 1 3.3594 10.4904 -1.99613 25
315 1 -11.3239 5.36611 0.788798 17
316 1 3.65789 -3.7058 -14.1437 18
317 1 -0.374075 -1.34483 -12.9995 21
318 1 6.06296 14.3384 1.69658 9
319 1 1.48346 15.4394 4.982 10
320 1 -2.93584 7.78784 8.02205 12
321 1 -5.82931 11.3535 6.41014 13
322 1 -9.30825 6.72478 4.62827 12
323 1 -4.93528 12.4379 -6.82568 21
324 1 6.60566 13.2443 -11.7058 14
325 1 -1.04874 5.79558 1.32147 23
326 1 -0.786156 18.5915 -8.11782 10
327 1 -8.3953 -1.3834 -9.24894 21
328 1 5.00091 11.0329 -5.35106 23
329 1 0.688672 8.99781 0.974404 18
330 1 -10.3347 10.0452 -1.61728 20
331 1 5.19056 10.5677 -10.2925 21
332 1 -5.18533 0.941205 2.91329 22
333 1 5.68897 15.5989 -2.80589 16
334 1 -1.8551 2.98503 -14.4052 20
335 1 -8.56146 13.0446 -2.43061 20
336 1 8.22939 5.12172 -9.49452 23
337 1 3.86044 13.7322 -0.886199 21
338 1 -13.8656 4.66946 -0.845108 17
339 1 0.285136 -7.32448 -5.4071 13
340 1 7.55363 10.9847 -14.1321 14
341 1 4.7089 -4.73346 -6.96225 18
342 1 -1.68943 13.2399 -1.86944 21
343 1 -0.809129 3.60626 -16.94 18
344 1 5.77604 -1.28882 -15.3789 14
345 1 -4.64792 15.3304 5.42609 10
346 1 -1.96834 1.14926 3.53056 21
347 1 0.88983 8.03592 -14.6166 18
348 1 -6.44634 -4.40656 -8.58591 22
349 1 -4.63393 5.27733 1.63704 23
350 1 8.48236 5.41381 -3.68494 22
351 1 -9.06503 16.1492 -11.1511 14
352 1 5.68422 10.5612 -15.6165 11
353 1 8.76004 8.99028 -16.1986 7
354 1 -2.67872 12.5923 -12.5182 18
355 1 -8.23286 0.706109 4.35142 16
356 1 -6.43036 0.435621 -1.09781 21
357 1 -2.26542 -4.81903 -16.6455 14
358 1 -14.4246 11.9054 -5.20185 12
359 1 6.29548 14.0363 -5.84877 21
360 1 -12.911 1.65786 -3.89036 18
361 1 -0.422992 12.8647 -10.184 19
362 1 -10.2073 2.85368 5.93017 9
363 1 -17.3533 2.46592 -7.49207 6
364 1 6.9694 7.63345 -9.9839 22
365 1 -11.6903 0.730851 -5.84239 16
366 1 6.79569 4.09965 -6.61696 23
367 1 -3.24104 -4.22492 -0.513568 16
368 1 -0.984052 16.0092 2.92985 16
369 1 -6.29083 8.56429 1.29939 22
370 1 6.71712 8.34024 -4.86254 21
371 1 7.99711 -3.36067 -8.74446 13
372 1 1.1306 13.4799 -2.54808 21
373 1 0.133935 14.9869 -0.167893 22
374 1 -4.81808 -4.77353 3.67649 8
375 1 -13.4952 4.09513 -5.96075 19
376 1 0.131805 6.31686 6.55579 16
377 1 2.69153 16.4227 -3.65419 16
378 1 2.43049 3.86769 3.96828 18
379 1 13.2787 5.60703 -1.59291 9
380 1 2.71675 14.406 1.9483 18
381 1 -8.40715 10.5476 -4.28146 20
382 1 -5.13637 -3.58278 -14.598 21
383 1 -7.1297 6.26376 -16.7774 9
384 1 -3.9617 4.19717 4.54186 19
385 1 11.4824 8.51572 -2.26608 13
386 1 1.74167 16.7141 -10.709 15
387 1 4.56505 4.2444 -15.479 17
388 1 -4.45185 -4.9332 -6.14722 21
389 1 -8.59368 4.34576 -8.72404 26
390 1 1.58446 4.3094 -14.3457 22
391 1 -0.845007 -3.42146 -10.1506 18
392 1 -3.51422 -1.74761 3.83597 17
393 1 -2.93512 -1.83777 -6.28504 20
394 1 4.40245 1.43548 -14.7153 20
395 1 -6.4675 13.8526 0.231813 20
396 1 8.33582 -0.0929219 -5.65394 20
397 1 -10.2977 7.07699 -9.69405 24
398 1 8.54801 11.651 -5.71929 16
399 1 7.09691 13.3487 -1.46897 13
400 1 -13.1445 4.71956 -14.8817 8
401 1 -4.25623 10.0401 -11.7387 20
402 1 8.45585 1.54701 -8.304 21
403 1 -10.1748 -0.818803 -15.7097 15
404 1 -7.67741 -4.74094 -5.15598 23
405 1 5.80276 2.34461 -0.797321 17
406 1 -13.5838 10.5584 -1.52682 15
407 1 2.34002 15.8819 -13.6239 11
408 1 4.29999 0.691198 3.80802 16
409 1 -10.6676 0.544635 3.12353 16
410 1 -7.55746 -3.38289 -16.5258 15
411 1 -6.47997 -7.15844 -6.78671 15
412 1 5.39031 7.00382 4.11285 10
413 1 -1.32691 -4.43124 -6.61372 21
414 1 6.79267 3.15395 -13.0197 17
415 1 -10.193 12.6162 -5.5225 21
416 1 -13.076 2.70165 1.7377 13
417 1 -3.81895 -6.77146 -7.63345 19
418 1 4.75302 12.7088 -7.97375 20
419 1 8.02128 7.13253 -6.82122 20
420 1 -4.49743 -1.48705 0.631027 18
421 1 -0.398205 15.5578 -8.85618 15
422 1 3.94669 7.87436 -18.1435 7
423 1 -13.5305 9.35821 -6.62412 14
424 1 1.53635 10.215 -9.82796 20
425 1 1.37727 17.2929 2.0445 13
426 1 3.15523 13.1431 -10.477 18
427 1 -6.88869 7.2382 7.30147 10
428 1 5.77557 8.65165 -12.5595 19
429 1 2.38489 -2.10544 -1.19214 19
430 1 0.316504 -1.39699 2.82468 16
431 1 6.52091 7.85827 1.1268 14
432 1 0.810503 -5.13152 -11.9525 17
433 1 -2.41656 9.02422 -19.286 11
434 1 -3.11222 10.2918 -1.72525 23
435 1 -4.85758 10.2918 -4.40539 19
436 1 -7.31834 -6.09665 -2.1785 16
437 1 7.44135 2.26274 -3.95071 20
438 1 2.19409 2.16847 -16.3432 17
439 1 -8.33039 0.395212 -6.10554 21
440 1 -8.62898 6.62495 -6.47763 23
441 1 3.24849 6.15654 5.3298 14
442 1 -9.08848 -3.94452 -2.58955 18
443 1 9.76925 -0.47808 -3.30001 12
444 1 -0.69681 10.9998 -17.1943 11
445 2 -10.7182 5.83531 -11.5471 19
446 2 -12.6658 15.9716 -7.4772 13
447 2 -2.50775 5.80834 -13.6817 22
448 2 -7.2996 7.41154 5.53183 12
449 2 -7.32918 2.63419 -14.3841 20
450 2 -0.309774 10.7185 6.32177 14
451 2 -10.2455 7.76108 -7.57843 21
452 2 9.84293 10.4953 -4.84396 16
453 2 -5.29569 0.657455 -9.26145 20
454 2 -5.67789 -5.45847 -13.7414 15
455 2 -8.25755 6.78138 -4.41009 22
456 2 -7.08721 -4.02063 -1.88078 20
457 2 6.51564 13.3989 0.26407 12
458 2 7.47077 1.50404 -11.9239 18
459 2 5.21753 5.64308 -2.36464 22
460 2 -11.2075 13.9585 -4.94996 21
461 2 5.39244 13.5983 -2.34379 21
462 2 -10.8461 -1.1238 0.296818 17
463 2 -4.3703 -6.81026 -5.5187 16
464 2 8.08872 -1.11841 -2.46262 14
465 2 -10.6725 16.7118 -5.01411 12
466 2 -10.5465 12.4775 -7.81257 18
467 2 -7.16555 11.106 4.89039 11
468 2 6.16091 -0.39153 -10.7795 16
469 2 -2.27751 5.0255 -16.5767 20
470 2 -0.57818 -3.77822 -16.2925 14
471 2 10.1977 0.93195 -9.77227 14
472 2 8.12662 5.25065 -7.63917 19
473 2 -4.46742 13.3239 0.690222 22
474 2 -3.774 -4.69639 -11.4151 19
475 2 1.44913 -5.17491 2.22507 12
476 2 7.16018 2.86997 -2.23929 19
477 2 -10.4821 9.30221 -10.2247 24
478 2 4.71386 12.9316 -5.94945 21
479 2 3.6819 -6.63786 -2.56843 13
480 2 -1.42014 11.4165 -2.57706 22
481 2 7.7749 14.9895 -2.46068 9
482 2 0.346697 14.9761 -10.7615 20
483 2 -9.58254 6.3845 1.20225 20
484 2 -0.788686 8.71987 -13.7729 18
485 2 -10.3596 3.4472 -9.4286 20
486 2 -13.2309 6.18103 0.0560818 14
487 2 -11.5975 0.233426 -3.91834 21
488 2 -0.234542 -1.15632 1.02356 18
489 2 -6.15397 2.96109 7.55386 10
490 2 -1.47679 11.92 2.79919 20
491 2 -10.0851 8.04471 -1.85792 23
492 2 0.403667 -3.39536 -6.55674 22
493 2 10.1048 4.2318 -11.2183 14
494 2 -1.06596 -4.02739 -2.57346 21
495 2 2.97855 -2.53358 -9.28363 18
496 2 -0.313388 15.914 4.73966 11
497 2 1.89531 -6.9166 -12.4402 15
498 2 3.722 4.47291 0.968417 20
499 2 -7.95657 0.650198 -4.23452 21
500 2 11.2475 7.88498 -4.01086 15
501 2 0.708189 -1.26139 -4.41038 24
502 2 9.53362 -3.08904 -7.41032 13
503 2 -8.65928 -1.77977 -16.3245 13
504 2 -7.66071 -6.37379 -0.16225 14
505 2 -2.70967 -1.67502 -3.79912 19
506 2 -7.98218 -1.62032 -6.1127 16
507 2 -5.38133 13.5348 -4.99865 17
508 2 2.5898 7.58145 -13.6958 20
509 2 8.41722 7.23553 -15.2313 10
510 2 1.47135 10.2996 -13.3541 15
511 2 -8.59589 3.58289 1.78596 18
512 2 -13.7745 8.30043 -2.91792 16
513 2 -9.33784 -0.573801 2.59825 15
514 2 -14.197 9.11317 -0.438244 12
515 2 -8.4609 6.37236 -9.68635 23
516 2 7.46724 4.83668 -13.1184 16
517 2 4.7429 -5.00629 -10.9044 15
518 2 7.04293 10.3723 -5.62751 24
519 2 0.852323 17.592 -3.0885 11
520 2 -5.02176 11.0752 -2.3777 23
521 2 10.0738 7.92573 -7.46927 16
522 2 -0.286385 13.6305 -8.47443 19
523 2 -1.32524 18.4507 -9.91605 12
524 2 -3.0101 10.7829 0.0862309 21
525 2 -0.780229 6.2304 3.11441 21
526 2 0.525449 -1.76731 -9.35726 20
527 2 -8.95715 4.64586 4.22673 14
528 2 0.6928 10.4561 -16.2545 13
529 2 -3.07779 -0.417688 2.45038 20
530 2 -3.58518 -9.09643 -10.6471 11
531 2 0.434979 -0.772028 -14.6497 21
532 2 1.85174 -4.02072 -3.61644 20
533 2 10.5108 7.61785 -11.9838 11
534 2 -11.1868 13.0325 -11.2214 16
535 2 2.46554 16.9782 0.523592 13
536 2 -13.1396 2.00975 -5.82399 18
537 2 5.22179 9.18576 -14.2155 18
538 2 0.109345 17.6994 -6.54988 12
539 2 -1.40514 5.84313 5.43431 19
540 2 -0.119016 -8.40537 -9.82943 13
541 2 2.56499 11.2371 5.14473 12
542 2 7.78937 -4.26019 -10.4494 12
543 2 2.87832 13.7925 -3.4422 21
544 2 -7.05808 12.6135 -13.0466 12
545 2 4.23095 -2.98881 2.57317 13
546 2 -5.91511 -5.2083 2.27817 11
547 2 5.52754 -5.5451 -5.37919 13
548 2 -7.1623 13.371 -7.52692 19
549 2 -7.41922 -6.24971 -8.19977 18
550 2 -2.17544 1.92493 -16.9526 15
551 2 -2.57247 -0.88263 -16.0644 16
552 2 3.68164 16.4994 -2.16844 14
553 2 -13.5036 0.0898871 -8.14912 13
554 2 -13.646 16.408 -4.52459 10
555 2 4.93022 5.28303 4.86053 11
556 2 -1.26104 -6.00093 -5.74265 18
557 2 0.375441 6.65028 -15.8613 21
558 2 -5.47304 5.78775 -15.3191 18
559 2 -9.74168 2.2133 -15.2834 17
560 2 -7.05497 -0.176852 5.7118 13
561 2 -10.7227 2.41764 -12.5713 18
562 2 5.15158 -0.474554 -16.9488 11
563 2 2.605 -1.03523 -12.0525 19
564 2 -9.47792 -2.70754 -4.00768 20
565 2 0.0148769 3.45504 -14.8652 20
566 2 -2.41407 -0.397396 -12.9712 19
567 2 -1.51563 12.5387 -16.0828 13
568 2 -0.643753 17.5696 1.8267 12
569 2 10.893 8.10938 1.09578 10
570 2 -13.9412 3.56165 -8.05808 18
571 2 -5.66041 -7.03533 -2.62461 15
572 2 -3.91336 3.0563 -14.8246 21
573 2 1.62975 13.5342 -0.638654 24
574 2 -6.32239 -1.737 -3.70228 22
575 2 -6.80504 9.61057 -4.7505 19
576 2 -12.2271 0.855306 2.17456 12
577 2 -3.4141 -3.74909 4.39902 9
578 2 -11.3454 6.45562 -3.78248 21
579 2 -11.486 -1.57313 -6.14116 15
580 2 -7.90536 -0.911473 -1.58247 22
581 2 3.39914 -0.23712 5.14864 11
582 2 1.39862 12.3452 -10.6978 17
583 2 6.48411 12.1812 -13.2419 17
584 2 12.4964 2.78537 -9.07685 10
585 2 -3.6665 13.9815 -2.57026 21
586 2 -11.8401 -0.0771218 -15.5763 12
587 2 -16.9277 4.05917 -8.26624 7
588 2 -5.34458 -7.80636 -8.20482 15
589 2 5.10416 0.134099 2.19977 15
590 2 5.91799 -1.83569 -0.21632 13
591 2 -10.6114 15.9783 -10.0902 11
592 2 6.64992 7.56213 -8.16737 24
593 2 1.22259 1.44493 6.14761 17
594 2 -5.75882 2.01313 -11.7774 20
595 2 1.88386 11.2993 -3.07446 23
596 2 3.51143 11.7059 -0.314624 20
597 2 -4.95622 2.61868 3.8651 21
598 2 -8.53197 10.6089 -2.11681 19
599 2 4.12644 11.7228 -15.3831 13
600 2 -10.7722 -2.39643 -14.6748 13
601 2 -11.9945 -1.13459 -12.4742 14
602 2 -7.01239 7.12704 0.101666 16
603 2 6.06912 15.0023 -10.7723 14
604 2 11.2942 5.92673 -9.1162 14
605 2 8.03343 -4.2015 -4.39504 11
606 2 -15.3897 6.12202 -1.76118 12
607 2 -1.47983 13.8322 -0.188849 22
608 2 -9.13402 14.6348 -12.4029 14
609 2 2.29679 7.18748 -18.4507 9
610 2 -8.6225 10.5038 -7.21162 21
611 2 -12.6376 -2.09186 -2.03999 10
612 2 6.43828 -1.511 -4.72123 20
613 2 -2.72329 -2.44878 0.469471 16
614 2 -8.3546 15.2897 -4.51675 16
615 2 -1.16835 -0.224441 -1.21053 21
616 2 -12.692 7.94178 -6.01911 16
617 2 1.74776 -0.519796 -6.8795 23
618 2 0.961032 13.5947 4.65673 14
619 2 -8.30244 4.85907 -16.0165 10
620 2 -2.72315 14.0754 -13.9873 15
621 2 5.3177 6.10671 -15.3054 15
622 2 -5.00057 16.0256 -8.13958 16
623 2 -6.05681 4.50523 0.729668 22
624 2 -4.21289 -0.345919 4.86988 15
625 2 -4.32679 -0.203152 -1.55898 23
626 2 -16.1379 1.49677 -6.40817 10
627 2 -12.808 3.04307 -2.61679 20
628 2 -2.97575 10.7469 -12.8353 21
629 2 8.05759 6.35894 -10.7302 20
630 2 0.574234 3.01202 3.64717 21
631 2 3.56871 -2.05741 -15.1368 18
632 2 5.36061 10.7664 -8.09398 20
633 2 2.4265 16.0955 3.38621 12
634 2 0.297254 5.37989 -13.0351 20
635 2 -9.73135 2.15803 -1.36178 19
636 2 -7.18866 17.2773 -6.4871 12
637 2 -4.45816 11.9576 7.82912 9
638 2 2.07021 -6.23173 -5.8309 16
639 2 -4.56137 -5.72814 -0.321468 14
640 2 5.13953 8.97631 0.523675 14
641 2 3.83898 9.06947 -16.65 13
642 2 -1.22524 15.2612 -5.79887 17
643 2 0.626951 -6.01197 -1.27797 13
644 2 1.73492 -5.15316 -15.4597 13
645 2 -1.26024 7.66714 -18.6208 15
646 2 -5.95643 8.80482 8.28346 9
647 2 0.282056 9.12256 2.90594 21
648 2 5.81723 3.1083 1.51914 19
649 2 -0.605499 -0.626657 -18.3067 11
650 2 -1.34125 -2.95451 -11.9962 20
651 2 -13.5699 13.177 -6.47404 16
652 2 -2.11619 -6.40322 -15.9018 10
653 2 -0.776933 7.69654 7.87261 11
654 2 -13.5919 8.21455 -10.9426 12
655 2 8.41975 -1.92227 -12.5218 13
656 2 -0.379509 16.7847 -0.748315 17
657 2 7.96994 13.3791 -5.42593 16
658 2 8.5224 7.62599 -4.99092 20
659 2 -12.0391 6.27058 -9.04398 18
660 2 -7.18814 9.05432 -10.0192 26
661 2 -6.5444 7.0493 -12.3564 18
662 2 8.83293 9.89104 -13.2415 13
663 2 -13.6 13.2109 -3.72829 15
664 2 -2.12724 0.855122 6.29225 14
665 2 -3.79601 6.22103 7.58023 15
666 2 -1.07427 -8.00087 -12.8265 11
667 2 -4.15995 -0.335206 -18.1666 12
668 2 1.52382 16.414 -8.74464 17
669 2 3.28604 16.273 -5.59593 17
670 2 -8.51747 0.438869 -8.76471 17
671 2 -9.42987 -4.34487 -12.7225 12
672 2 8.43944 6.08887 -1.75336 19
673 2 -10.2293 13.4913 -1.90616 20
674 2 0.991903 -3.16235 -0.976547 20
675 2 7.09428 4.72099 -4.7982 21
676 2 -7.64532 0.664652 0.44918 21
677 2 -9.48023 -4.3088 -6.67406 16
678 2 -3.20592 15.2579 6.86089 8
679 2 -1.93269 17.7415 -3.51379 12
680 2 -9.7499 10.1563 0.763363 16
681 2 -5.66293 -2.85262 3.73419 14
682 2 -3.40158 16.3873 0.445702 17
683 2 1.01488 -7.5136 -7.38198 15
684 2 1.81642 2.04652 0.736977 19
685 2 7.18891 2.98733 3.70961 10
686 2 -11.9646 11.0225 -2.68006 21
687 2 -10.3385 9.51041 -4.86949 20
688 2 -6.76822 5.48417 7.47122 10
689 2 -8.72365 -4.3558 -15.2288 12
690 2 9.74581 4.17604 -4.02181 18
691 2 2.04261 -4.07389 -13.0893 18
692 2 -8.4815 12.404 -4.4404 21
693 2 -11.8388 3.9734 1.6414 15
694 2 -9.47839 11.1956 -12.4694 17
695 2 11.5858 1.80981 -6.22738 15
696 2 3.3028 13.9776 -8.30742 24
697 2 -7.14124 1.45053 2.85925 18
698 2 2.40386 6.01843 3.31768 25
699 2 -2.25161 10.1859 -17.6573 13
700 2 -14.5739 5.29279 -10.6034 10
701 2 -8.93733 -0.174869 -12.972 21
702 2 -2.19511 12.4225 -10.6562 19
703 2 -6.2504 6.02276 -18.5395 9
704 2 4.21613 2.4766 -16.2551 13
705 2 -3.09626 -3.68245 -5.57327 22
706 2 2.64223 -3.68457 5.15004 10
707 2 1.02705 7.90817 6.17136 14
708 2 9.92949 -2.23202 -10.2868 11
709 2 -2.50602 -6.98036 -3.04399 14
710 2 7.9255 12.0266 -2.85561 17
711 2 -2.72066 15.329 3.6343 16
712 2 -10.7417 -7.16355 -5.48629 8
713 2 7.92625 12.0437 -10.9264 13
714 2 1.81092 -0.0645044 2.59837 19
715 2 -11.1202 13.5472 1.07355 11
716 2 2.46507 4.31808 -12.6532 21
717 2 0.292689 10.5091 0.129569 24
718 2 -9.68211 3.58113 -3.84849 21
719 2 1.06483 17.0888 -12.6204 12
720 2 5.59578 0.122212 -13.9775 18
721 2 -4.67852 7.80766 0.528867 21
722 2 -8.32019 2.34138 5.67389 14
723 2 9.26663 4.5866 1.08218 13
724 2 4.99931 3.27405 -13.8245 20
725 2 -11.0732 0.469014 -10.2515 18
726 2 1.19797 -4.15107 -10.271 19
727 2 5.58328 4.08956 -11.09 19
728 2 -2.03996 12.8674 -5.51967 21
729 2 -4.08143 -4.59077 -16.1305 13
730 2 -15.9973 2.95782 -3.08232 12
731 2 -9.9651 1.63876 -6.60024 19
732 2 2.7925 -8.05968 -9.54652 10
733 2 -3.5595 -7.36561 -13.4156 13
734 2 -2.19559 -7.41346 -8.04604 18
735 2 11.6577 -0.629691 -7.82152 12
736 2 -5.63297 15.7574 -13.1101 11
737 2 5.89874 15.7861 -4.75306 16
738 2 -7.14502 -2.95443 -13.3698 21
739 2 2.13381 7.64355 0.500817 19
740 2 -5.07428 11.9717 2.70164 18
741 2 -6.00838 14.1619 -10.4538 17
742 2 -3.39243 8.16466 -15.6081 18
743 2 -6.35818 -7.64185 -11.091 11
744 2 -8.74013 -5.53878 -3.65733 16
745 2 -12.9007 14.3227 -1.21943 12
746 2 3.89363 15.067 -14.2069 8
747 2 -4.99049 11.4977 -15.4741 12
748 2 -0.588202 12.4306 -13.0984 18
749 2 -5.81175 -2.05299 -16.1773 16
750 2 -2.79792 -2.35544 -9.77621 20
751 2 -11.8662 8.27113 -12.9706 13
752 2 4.32756 14.7722 0.766244 18
753 2 -5.21427 2.80479 -18.1059 12
754 2 -14.7245 0.48434 -3.28766 13
755 2 5.2798 6.82443 2.24106 15
756 2 5.11376 11.4601 2.5126 11
757 2 5.19852 7.08643 -10.9223 21
758 2 -2.2774 17.1433 -13.4258 10
759 2 -9.48864 16.9069 -7.80422 12
760 2 12.5752 4.46225 -2.81017 10
761 2 -5.01791 4.34856 -12.4558 23
762 2 0.555985 14.8882 -13.8484 14
763 2 -2.69653 9.35101 7.27991 15
764 2 -5.30683 0.184177 -13.934 21
765 2 -3.70277 3.22525 6.64468 15
766 2 -1.60588 7.30904 0.399894 21
767 2 7.00745 -4.63637 -13.3348 10
768 2 4.39596 -5.46926 -14.9685 11
769 2 -5.57208 15.9844 3.7377 11
770 2 3.76203 -5.48909 0.275352 13
771 2 -4.06854 17.2721 -10.9485 12
772 2 2.24458 12.5233 2.2716 18
773 2 -12.8671 10.6742 -11.7196 12
774 2 -2.13996 16.7913 -8.30523 13
775 2 -9.57235 -1.99519 -10.5783 17
776 2 2.37196 0.575958 -17.5834 14
777 2 -6.52483 10.1618 0.212884 18
778 2 9.58209 1.16795 -4.16888 14
779 2 -7.30957 16.5607 -9.82482 15
780 2 -11.0766 4.94379 -1.21898 17
781 2 -7.45666 -4.87935 -10.7274 20
782 2 -5.33393 13.4339 5.84602 15
783 2 -0.375836 -5.06844 -13.3649 20
784 2 -12.8985 10.2953 -8.25212 15
785 2 -5.03447 11.4332 -10.5968 19
786 2 -8.34257 4.49344 -12.604 21
787 2 -8.21653 13.252 0.368579 17
788 2 -12.0632 8.59007 1.66664 12
789 2 3.22538 15.7685 -11.117 17
790 2 -5.55187 -1.58009 -11.2164 19
791 2 2.82073 4.56859 -15.8673 20
792 2 2.33382 1.04913 -14.795 23
793 2 -12.3087 -5.1685 -7.24659 9
794 2 -8.28672 11.4543 -9.83967 20
795 2 -8.50706 -3.46948 1.09281 16
796 2 -4.51772 8.89245 -18.5638 9
797 2 -1.69086 -5.13066 0.376723 13
798 2 3.89341 7.96389 4.73231 11
799 2 7.47901 0.989905 0.0510141 13
800 2 -4.12886 1.76963 1.03493 22
801 2 7.53469 10.3297 -15.9928 10
802 2 -3.2453 11.198 4.8163 15
803 2 -3.54025 -2.77199 -13.7077 22
804 2 -12.3772 -2.55396 -9.18857 12
805 2 -9.84132 -3.9374 -0.870949 14
806 2 -7.82513 4.96214 -1.59409 23
807 2 -8.9098 8.10324 -12.8897 14
808 2 -13.7311 2.28963 -11.2907 14
809 2 -5.20938 16.8136 -2.25624 13
810 2 3.8209 2.78528 3.78532 21
811 2 12.7365 7.37851 -1.27792 9
812 2 -7.38288 -7.65806 -5.08002 13
813 2 -13.5137 0.820215 -0.691409 15
814 2 -11.6782 4.75741 -6.38464 19
815 2 -2.96624 4.7857 1.07676 24
816 2 -0.783222 3.54053 7.41886 12
817 2 -4.04941 -3.18735 -2.19717 18
818 2 4.64239 10.6332 -3.3397 20
819 2 8.01009 -0.323188 -7.68209 21
820 2 -6.98637 14.1613 -2.16003 19
821 2 -5.70506 9.91656 -13.1963 19
822 2 -5.96526 2.12919 -1.69132 21
823 2 -2.31585 3.18747 3.87537 26
824 2 -0.57625 -0.106784 4.13609 18
825 2 0.579371 -1.70021 6.56269 12
826 2 3.6635 9.47915 -10.8169 21
827 2 8.04506 8.65333 0.680172 13
828 2 0.192956 5.03514 -18.0009 13
829 2 9.9348 3.44489 -1.03485 15
830 2 10.1189 9.52751 -10.1297 14
831 2 7.99039 2.92766 -9.62267 18
832 2 0.650176 14.6909 1.85605 20
833 2 12.3393 5.19794 0.243111 10
834 2 -6.23593 -1.75563 1.09634 19
835 2 -1.12434 2.06267 0.610725 23
836 2 -10.4393 1.78571 4.44046 13
837 2 3.558 -3.42937 -5.95812 21
838 2 8.13449 1.96842 -6.1128 17
839 2 9.74276 -1.34995 -4.935 15
840 2 0.159756 -4.70333 5.07923 7
841 2 5.51047 1.42363 -4.87165 18
842 2 -9.34382 8.14856 3.52653 14
843 2 -7.93124 14.2904 2.69937 11
844 2 6.82069 9.29798 -11.136 22
845 2 2.09992 -2.47858 -17.6165 14
846 2 6.46228 -3.13811 -15.4171 11
847 2 -3.58158 5.79202 -19.3368 10
848 2 -11.6143 5.28596 -14.3645 14
849 2 5.00607 16.6222 -8.09593 14
850 2 -14.5393 4.21414 -13.6989 8
851 2 9.88308 9.51747 -1.60601 15
852 2 -8.54309 4.47261 -6.50963 18
853 2 3.62421 -1.26187 -4.05948 21
854 2 -3.58182 12.4048 -7.94139 20
855 2 12.0181 4.83641 -6.16281 12
856 2 4.96766 12.4285 -10.8701 19
857 2 6.19977 -4.93374 -1.97683 12
858 2 -14.6486 5.18995 -4.8799 14
859 2 6.80057 5.9688 0.122876 20
860 2 3.92482 -3.18143 -1.60682 18
861 2 2.28402 -0.32951 -1.18852 19
862 2 6.78455 13.7118 -7.79729 19
863 2 -12.433 11.3967 -0.0160133 13
864 2 -13.3645 10.4733 -5.05393 16
865 2 5.38796 1.11946 -8.79714 19
866 2 6.30715 -3.40442 -7.8919 18
867 2 -6.69901 -2.45944 -9.06493 18