ITEM: TIMESTEP
4000
ITEM: NUMBER OF ATOMS
500
ITEM: BOX BOUNDS pp pp pp
-30.0 30.0
-30.0 30.0
-30.0 30.0
ITEM: ATOMS id type x y z Coordination
1 1 5.90515 -1.55591 7.42631 13
2 1 3.34163 3.39395 9.84087 11
3 1 -7.33014 2.28409 4.45043 20
4 1 -1.37397 1.67362 -12.8965 6
5 1 -0.312889 -0.119259 7.2624 18
6 1 -8.11509 -1.16269 -0.569736 18
7 1 4.44652 4.16234 -10.7394 9
8 1 3.4487 -8.37245 -2.12606 12
9 1 6.25873 2.6952 5.29938 16
10 1 2.83519 4.78789 -5.36848 17
11 1 3.0154 5.95151 7.44979 14
12 1 -8.43055 -2.66324 2.53841 19
13 1 -10.5483 -0.387813 1.27375 11
14 1 6.32563 0.212724 -3.61781 24
15 1 3.08488 -0.785904 7.62451 17
16 1 -9.01035 -5.56598 2.61293 13
17 1 -2.10087 -4.83955 -7.95003 10
18 1 7.48684 -1.80748 -7.08661 9
19 1 6.61432 -5.8215 1.31272 15
20 1 -5.68234 9.8809 4.84616 9
21 1 1.38281 8.43323 2.35891 18
22 1 0.520424 -2.35936 -8.5223 17
23 1 -2.07391 2.33802 7.21432 15
24 1 6.53217 -2.98015 4.5181 18
25 1 -3.744 8.63865 3.42464 17
26 1 5.83654 6.21113 -5.44872 12
27 1 6.93132 6.0399 0.634129 17
28 1 -4.12113 8.92214 -4.17426 9
29 1 -3.26269 4.38797 -5.3301 14
30 1 -1.77181 9.26493 -1.86584 15
31 1 0.2881 7.4378 -0.861802 22
32 1 -8.54989 3.30357 1.68077 15
33 1 -2.32995 5.94397 7.2812 15
34 1 -3.58982 2.07956 -10.5623 10
35 1 -6.30021 -7.40582 7.89198 10
36 1 6.57699 -4.08088 -1.68245 15
37 1 -8.26996 -0.790808 4.79143 21
38 1 -6.77379 0.0586475 -3.33952 25
39 1 1.67256 -8.89087 1.30178 16
40 1 9.29705 4.59145 -5.20483 11
41 1 -6.18166 -3.08204 -8.01969 11
42 1 3.53464 6.31987 -8.39601 10
43 1 7.44422 -8.47024 2.538 10
44 1 0.782888 10.7068 0.613563 13
45 1 -11.3329 2.02457 6.47193 10
46 1 0.398446 6.83769 6.10439 18
47 1 3.8479 -3.38016 9.47524 13
48 1 1.17851 -10.4471 -1.57818 9
49 1 7.87373 1.51728 -8.21437 9
50 1 -6.40956 -8.02748 2.01358 14
51 1 -1.07345 -7.56098 3.34388 15
52 1 4.77743 -6.77936 9.71521 8
53 1 1.59423 -5.08259 9.89566 10
54 1 7.17911 8.55007 1.85457 11
55 1 -8.80233 -6.27258 6.21726 8
56 1 -4.03395 -8.61325 2.91595 14
57 1 -3.22976 -1.90467 7.68914 17
58 1 -10.8311 -0.493164 7.64673 10
59 1 4.29985 -10.159 3.48544 11
60 1 -10.9467 -1.04681 4.47058 13
61 1 -4.34691 10.2008 0.959402 11
62 1 -7.508 6.75782 4.387 13
63 1 -4.99939 4.09083 5.72574 16
64 1 -8.24163 -4.83835 -5.87176 9
65 1 -6.35444 1.96787 -6.25218 17
66 1 -3.92146 -3.0344 -5.97488 18
67 1 9.06102 -1.90891 5.4247 10
68 1 -1.43713 -3.72373 10.1342 13
69 1 -4.77312 -0.491218 -8.36525 14
70 1 -9.87245 1.42226 -1.88782 12
71 1 -4.01119 -9.17068 -0.03961 18
72 1 -7.57015 4.76595 7.11993 9
73 1 0.0471147 -8.43799 -4.34638 13
74 1 0.788273 9.93959 4.73227 12
75 1 -9.48545 0.839245 -5.27309 11
76 1 -8.31329 4.89601 -1.22632 12
77 1 -4.42585 -10.9463 -3.06993 9
78 1 3.25777 -8.66939 6.34239 11
79 1 -6.70169 5.19253 -5.74476 12
80 1 -5.8586 -0.89628 9.63205 9
81 1 -8.07716 1.23227 7.0375 16
82 1 0.868079 -6.59088 -6.89693 11
83 1 -0.909031 -5.80426 7.86395 13
84 1 4.05239 -5.45124 -3.23166 16
85 1 9.38566 3.93838 -0.61833 22
86 1 2.61971 1.3667 -11.0253 15
87 1 6.49476 -4.73897 7.35666 11
88 1 -5.03384 -6.47781 -1.95127 20
89 1 -5.77138 -3.25183 5.90267 16
90 1 11.1149 0.931799 5.5667 8
91 1 11.2528 5.83474 -2.57045 11
92 1 2.21761 3.551 -8.48918 20
93 1 0.481909 5.87235 -8.54112 10
94 1 3.79895 8.76951 0.216234 13
95 1 5.18177 3.88043 -7.39668 16
96 1 1.15662 -9.52566 4.1516 11
97 1 8.22671 -2.90025 2.06843 14
98 1 -1.09774 -9.92975 1.10139 14
99 1 -5.69051 3.24702 -8.64869 10
100 1 11.2336 0.908938 -0.800626 12
101 1 -2.16857 7.14603 -6.48123 13
102 1 2.92277 -7.23548 -5.56459 9
103 1 -7.17165 -4.4784 8.65602 13
104 1 -1.43912 -10.2062 -1.96255 15
105 1 2.53493 -4.16194 -7.28098 13
106 1 5.18198 -8.6659 0.765571 15
107 1 -6.12553 -7.05127 -5.18487 10
108 1 0.8515 -1.90182 10.33 16
109 1 0.52828 1.43354 9.82004 13
110 1 4.03218 0.78657 -8.19073 20
111 1 -7.99074 3.1423 -3.77745 18
112 1 5.7938 7.78468 -1.43 14
113 1 8.8715 0.948612 -5.50616 14
114 1 0.816637 0.450501 -8.55984 22
115 1 -9.73269 4.34538 4.60862 11
116 1 1.0621 -2.86612 7.27795 19
117 1 -7.46991 0.389671 -8.37829 10
118 1 8.11116 -5.174 3.84453 13
119 1 5.30903 0.925693 8.21003 11
120 1 1.24307 -6.20544 5.22426 16
121 1 11.406 5.02673 2.51507 12
122 1 8.42764 5.94327 2.92108 14
123 1 -3.21872 -5.83296 -4.64844 17
124 1 5.99333 4.21385 8.02006 9
125 1 -2.50915 4.6446 -8.40221 10
126 1 -6.69283 -9.67149 -0.939312 9
127 1 5.0654 4.8643 3.67096 16
128 1 -4.79977 6.86845 5.80247 13
129 1 -6.78434 5.89133 1.29267 15
130 1 7.85766 5.56001 -2.38089 16
131 1 3.39403 0.102112 10.4288 10
132 1 0.203138 -0.975134 -11.5082 10
133 1 0.597348 3.43626 7.57369 16
134 1 6.47045 -3.89542 -5.20349 12
135 1 5.93644 10.0646 5.05814 7
136 1 4.24021 -7.35029 3.89617 21
137 1 -1.39286 11.0427 3.13991 10
138 1 4.29833 -1.27655 -5.97839 18
139 1 6.4515 -7.17862 6.22644 10
140 1 -5.35807 1.31956 7.13921 17
141 1 11.9739 1.57485 2.61311 11
142 1 0.812716 8.95187 -4.93471 6
143 1 11.0039 3.05411 -3.31118 14
144 1 -2.20489 -0.58298 9.96128 12
145 1 -4.11007 -4.94799 8.5334 14
146 1 -4.92047 7.84809 -0.999747 18
147 1 6.30706 7.14743 5.49254 11
148 1 -9.22197 -3.35506 5.80569 14
149 1 7.96428 2.99254 2.03041 22
150 1 -8.00541 -7.10894 -0.0232747 12
151 1 9.67482 3.3437 4.78179 14
152 1 7.95693 -0.885505 -1.00078 19
153 1 3.32447 7.51106 4.96791 18
154 1 -9.04542 -2.46391 -3.53467 12
155 1 -3.4068 6.31808 -3.09888 22
156 1 2.82763 6.75586 -2.8846 18
157 1 -7.27647 -1.89295 -5.40383 16
158 1 3.29274 -1.89873 -10.0749 12
159 1 -2.86223 -8.00909 -3.41565 16
160 1 -6.18209 -5.18056 3.32108 15
161 1 9.56557 0.116564 1.09871 13
162 1 -10.3514 1.91339 4.20746 15
163 1 -0.51574 3.11332 -10.1813 14
164 1 -7.8478 -6.63078 -2.70686 10
165 1 8.34801 0.382793 4.31084 19
166 1 -2.13509 -1.13637 -9.16391 12
167 1 -6.71055 9.03525 1.9713 11
168 1 -7.82301 -1.40751 7.79737 15
169 1 9.91866 6.55191 0.197639 15
170 1 12.372 4.02652 -0.148845 13
171 1 -3.41523 -7.25518 5.99396 13
172 1 5.61847 0.680541 -11.0561 10
173 1 6.70602 3.3895 -5.3514 17
174 1 3.29381 9.43178 7.09534 8
175 1 2.77144 9.87169 -2.06284 10
176 1 8.45993 1.42134 -2.58819 16
177 1 9.00445 -1.87655 -3.7675 12
178 1 -2.20681 8.84735 5.83243 11
179 1 -1.85799 8.68677 1.09786 19
180 1 -6.15709 -9.33616 5.37446 8
181 1 6.86832 -7.62238 -1.26304 8
182 1 -8.74481 -4.0149 -0.517683 12
183 1 -6.83319 6.59237 -2.98026 12
184 2 -9.94685 1.20679 7.83851 11
185 2 9.71205 5.02879 3.63386 13
186 2 -8.28562 3.00956 -1.72895 17
187 2 -5.0303 -8.0089 6.12821 10
188 2 1.59638 2.90424 9.13896 12
189 2 8.80525 1.31349 2.57795 19
190 2 -4.23215 8.589 5.39174 13
191 2 5.74167 -4.44425 -3.52895 14
192 2 -3.40537 0.305448 -9.82044 10
193 2 2.65535 -5.78588 -6.67582 11
194 2 -7.07458 8.51083 5.01044 10
195 2 8.54574 -3.29232 3.91808 13
196 2 8.42713 7.27131 1.29187 15
197 2 -1.24055 7.54088 6.63989 14
198 2 4.93731 8.58214 5.80442 12
199 2 3.87734 6.19841 -4.29377 15
200 2 4.2681 -0.378689 -9.62256 12
201 2 -5.6958 1.42946 -7.96587 12
202 2 -2.71736 -7.83013 4.41371 14
203 2 -8.87818 1.03037 5.06855 21
204 2 3.29455 -7.32693 -3.75417 14
205 2 -2.92973 -9.45849 1.53513 17
206 2 2.40359 7.72599 6.86536 13
207 2 3.52638 -5.43492 10.3222 7
208 2 -7.69021 -7.6219 6.78324 9
209 2 0.143592 -9.16645 2.49774 15
210 2 -9.04195 -5.09656 4.47941 11
211 2 -5.93568 -8.99649 0.504077 13
212 2 -6.6361 -7.8552 -1.88435 14
213 2 -3.43478 9.30616 -0.768499 13
214 2 3.99104 2.62975 -8.15213 22
215 2 10.7856 4.75929 -4.09513 10
216 2 4.68633 5.89718 -6.91186 13
217 2 -6.66847 1.76783 -4.36489 21
218 2 7.95453 4.5226 1.03294 21
219 2 0.352487 10.2998 2.54112 13
220 2 -5.96462 5.68894 6.62003 12
221 2 2.50252 10.296 -0.275908 12
222 2 2.00172 9.45014 -3.63062 9
223 2 -1.60083 4.23251 7.4124 15
224 2 1.55004 -3.32461 9.18791 14
225 2 2.32191 -3.06477 -8.82443 14
226 2 0.142364 -9.60151 -3.02114 14
227 2 -0.498436 -5.41662 -6.91733 14
228 2 -8.0962 -5.65963 -1.16778 10
229 2 8.54319 -1.42326 1.07637 14
230 2 6.86187 5.91011 3.9245 18
231 2 -0.493724 0.199863 -12.8509 7
232 2 2.07818 -0.539214 -11.0999 13
233 2 -3.19484 -5.04405 -6.27052 16
234 2 1.38023 -2.80296 -6.60993 19
235 2 8.2531 -0.0939757 -6.91332 11
236 2 -9.46703 -1.96792 3.91736 17
237 2 -0.15552 -0.79311 -9.50265 18
238 2 -1.41403 -7.01683 -4.17567 19
239 2 1.28649 2.30475 -9.77076 17
240 2 -3.33691 5.7785 5.35417 18
241 2 -7.97765 -6.99007 1.86265 11
242 2 -3.34259 7.55151 1.95554 19
243 2 -8.10986 -4.59255 6.82479 13
244 2 -9.734 0.395997 -0.348192 13
245 2 4.90662 -7.86107 5.9527 13
246 2 7.91053 2.89294 -1.40077 24
247 2 3.39613 5.40922 4.17447 22
248 2 2.25393 10.256 5.88612 10
249 2 -0.954473 -1.9663 9.99988 14
250 2 -8.85288 5.33752 5.85276 9
251 2 -5.76633 -2.98387 -5.68358 18
252 2 12.1582 3.32518 1.96149 12
253 2 -10.5783 0.294063 3.02607 15
254 2 -2.88832 5.52823 -6.84512 13
255 2 4.46814 2.32964 -11.4221 11
256 2 -8.33148 4.76028 0.634325 12
257 2 7.1233 -8.22484 0.567632 10
258 2 -0.226222 -10.6448 -0.465613 10
259 2 -5.27614 9.84998 3.01975 10
260 2 3.51429 -9.44233 1.78357 14
261 2 4.09671 4.60645 8.37479 11
262 2 -0.386857 9.62822 -0.493686 13
263 2 -3.01844 -3.51281 9.2101 13
264 2 -5.20668 -6.48284 2.17041 17
265 2 -4.88725 -5.0789 4.85537 16
266 2 1.83099 5.33411 -7.50053 15
267 2 8.20057 0.025993 -3.92172 16
268 2 3.80653 -1.5105 9.5892 13
269 2 9.50434 5.96739 -1.65992 17
270 2 5.92634 5.75042 6.66661 11
271 2 -8.91218 -3.98023 1.38783 14
272 2 1.21989 5.18555 6.55991 17
273 2 5.4547 -3.49006 8.18285 12
274 2 3.65631 5.35555 -9.92209 10
275 2 0.508425 -4.71803 6.69467 14
276 2 7.98131 -6.78433 2.94958 13
277 2 -8.31902 -0.554535 -4.2027 17
278 2 -6.56944 6.1194 -0.925784 16
279 2 -6.19247 3.86236 -6.89369 14
280 2 -2.82496 -6.00925 7.28727 14
281 2 6.73397 9.19738 3.52808 8
282 2 -6.93939 -4.69442 -7.29751 10
283 2 11.5153 0.530195 0.980725 10
284 2 -5.62682 8.8851 0.371123 13
285 2 6.78985 -5.80016 -0.697926 14
286 2 -5.92082 -5.77279 8.3611 13
287 2 -7.61942 -6.15182 -4.57408 10
288 2 -0.389921 7.55364 -4.75821 14
289 2 -7.05369 7.15753 2.49078 13
290 2 -0.311466 -5.39035 9.68176 12
291 2 -8.76232 3.09244 3.5645 16
292 2 -5.31227 7.71096 -3.04713 14
293 2 -1.06869 0.814918 8.95934 15
294 2 -9.61212 1.80852 -3.56007 12
295 2 5.7658 8.43378 0.408279 12
296 2 -3.87627 2.44545 6.53288 16
297 2 1.58046 -0.0275823 10.1774 14
298 2 -3.18074 -1.5065 -7.15701 18
299 2 1.44475 2.1874 -7.21441 18
300 2 -2.54402 -8.38528 -1.41989 19
301 2 6.79401 -0.700732 3.91746 21
302 2 12.7051 5.26116 -1.59576 9
303 2 3.03751 -10.1286 4.95447 9
304 2 6.86689 2.96433 -7.3419 15
305 2 5.94492 2.45057 7.24537 11
306 2 -6.61233 0.141655 7.92484 16
307 2 -8.68386 -3.31435 -5.05348 10
308 2 -0.0662509 7.62913 1.07422 20
309 2 -11.1605 3.21821 5.0551 10
310 2 -6.4863 0.407725 4.01146 22
311 2 -2.72343 -10.143 -3.33998 11
312 2 4.29344 1.52656 9.63421 12
313 2 -0.638566 4.75394 -9.2428 11
314 2 7.72689 5.26322 -4.41985 14
315 2 1.24557 -7.95251 -5.5896 9
316 2 9.91996 -0.324384 5.41838 11
317 2 4.64393 -0.60204 6.41007 17
318 2 -2.77476 8.29627 -3.09469 14
319 2 -8.13759 0.715157 -6.60543 13
320 2 -1.20774 -3.20417 -8.47843 13
321 2 -1.45825 9.9613 4.56764 13
322 2 -3.55474 8.22099 -5.89746 8
323 2 -4.52504 4.51286 -3.95397 19
324 2 -6.68886 2.79129 6.30665 16
325 2 4.42323 3.41424 -5.5119 20
326 2 5.61362 -2.53295 -6.28465 12
327 2 -7.52748 5.09369 -3.97792 12
328 2 -1.73367 2.61551 -11.4736 9
329 2 5.82732 -6.34823 8.14818 9
330 2 -7.07352 -2.65685 9.27583 11
331 2 -9.54357 -1.67968 7.17173 15
332 2 7.19652 -5.52493 5.71117 11
333 2 -11.7662 -0.0971718 5.98832 11
334 2 -4.01757 -0.985349 9.59851 12
335 2 1.47275 -8.12076 5.60049 11
336 2 11.0267 2.10003 4.08531 13
337 2 1.74906 -8.50663 -0.919733 17
338 2 -2.59699 10.3042 1.69698 14
339 2 -6.66132 -1.30227 -8.03974 11
340 2 -7.25427 -2.02054 6.03654 19
341 2 2.7704 -5.69715 4.22652 17
342 2 7.02914 1.04297 -9.90684 8
343 2 10.9032 5.07294 0.577803 14
344 2 7.39321 -2.34095 6.33334 14
345 2 8.07292 -2.8344 -5.18346 11
346 2 5.06859 -8.49275 -1.30693 10
347 2 6.47283 -3.62925 1.63063 17
348 2 6.34567 2.09812 -4.0551 19
349 2 -8.85884 -2.56548 -1.70247 12
350 2 -8.49612 -1.0625 1.47684 17
351 2 5.09922 -6.7291 2.28867 18
352 2 3.9068 8.31726 -1.77021 13
353 2 11.3091 2.76802 -1.48888 15
354 2 6.35084 6.02887 -1.3866 18
355 2 9.4343 0.313373 -0.971287 16
356 2 5.64342 -8.7259 3.69678 13
357 2 -4.58491 -7.09657 -4.13368 14
358 2 2.89531 7.53737 1.27479 20
359 2 1.70671 8.31913 4.33252 18
360 2 -5.71823 -8.94737 3.74324 12
361 2 -3.84306 -2.59977 6.16295 15
362 2 8.10798 2.47794 5.08467 13
363 2 9.30491 2.6395 -4.64204 15
364 2 -3.81088 3.57324 -9.26618 10
365 2 -4.81104 -10.3375 -1.36439 11
366 2 8.08409 -2.65268 -2.175 14
367 1 -5.16 -2.83171 -3.37645 21
368 1 -1.88 -0.934401 -6.02641 23
369 1 -0.24 -3.77954 -6.02642 25
370 1 -0.24 -5.67683 -3.37638 23
371 1 -1.88 -2.83171 -3.37645 25
372 2 -3.52 -5.67644 -1.36761 21
373 2 -5.16 -2.83137 -1.36755 20
374 2 -5.16 -0.93461 -4.0176 20
375 2 -3.52 -3.7797 -4.01759 21
376 2 -0.24 -5.67644 -1.36761 20
377 2 -1.88 -2.83137 -1.36755 25
378 2 -1.88 -0.93461 -4.0176 23
379 2 -0.24 -3.7797 -4.01759 20
380 1 -5.16 -0.934401 -0.726407 22
381 1 -3.52 -3.77954 -0.726424 21
382 1 -3.52 -5.67683 1.92362 21
383 1 -5.16 -2.83171 1.92355 21
384 1 -5.16 -0.934401 4.57359 21
385 1 -3.52 -3.77954 4.57358 20
386 1 -1.88 -6.6244 -0.726407 21
387 1 -1.88 -0.934401 -0.726407 26
388 1 -0.24 -3.77954 -0.726424 26
389 1 -0.24 -5.67683 1.92362 22
390 1 -1.88 -2.83171 1.92355 25
391 1 -1.88 -0.934401 4.57359 22
392 1 -0.24 -3.77954 4.57358 19
393 2 -5.16 -2.83137 3.93245 20
394 2 -5.16 -0.93461 1.2824 24
395 2 -3.52 -3.7797 1.28241 22
396 2 -1.88 -6.62461 1.2824 22
397 2 -0.24 -5.67644 3.93239 21
398 2 -1.88 -2.83137 3.93245 23
399 2 -1.88 -0.93461 1.2824 26
400 2 -0.24 -3.7797 1.28241 26
401 2 -1.88 -0.93461 6.5824 23
402 1 -3.52 0.0131684 -3.37638 23
403 1 -5.16 2.85829 -3.37645 24
404 1 -0.24 1.91046 -6.02642 19
405 1 -0.24 0.0131684 -3.37638 26
406 1 -1.88 2.85829 -3.37645 24
407 1 -0.24 5.70317 -3.37638 21
408 2 -6.8 0.0135641 -1.36761 24
409 2 -3.52 0.0135641 -1.36761 26
410 2 -5.16 2.85863 -1.36755 24
411 2 -3.52 1.9103 -4.01759 19
412 2 -3.52 5.70356 -1.36761 23
413 2 -0.24 0.0135641 -6.66761 18
414 2 -0.24 0.0135641 -1.36761 26
415 2 -1.88 2.85863 -1.36755 25
416 2 -1.88 4.75539 -4.0176 19
417 2 -0.24 1.9103 -4.01759 22
418 2 -0.24 5.70356 -1.36761 21
419 1 -6.8 1.91046 -0.726424 24
420 1 -6.8 0.0131684 1.92362 25
421 1 -5.16 4.7556 -0.726407 23
422 1 -3.52 1.91046 -0.726424 26
423 1 -3.52 0.0131684 1.92362 26
424 1 -5.16 2.85829 1.92355 23
425 1 -3.52 1.91046 4.57358 22
426 1 -3.52 5.70317 1.92362 20
427 1 -1.88 4.7556 -0.726407 23
428 1 -0.24 1.91046 -0.726424 26
429 1 -0.24 0.0131684 1.92362 26
430 1 -1.88 2.85829 1.92355 25
431 1 -1.88 4.7556 4.57359 22
432 1 -0.24 1.91046 4.57358 23
433 1 -0.24 5.70317 1.92362 21
434 2 -6.8 1.9103 1.28241 23
435 2 -3.52 0.0135641 3.93239 25
436 2 -5.16 2.85863 3.93245 22
437 2 -5.16 4.75539 1.2824 20
438 2 -3.52 1.9103 1.28241 26
439 2 -0.24 0.0135641 3.93239 26
440 2 -1.88 2.85863 3.93245 26
441 2 -1.88 4.75539 1.2824 23
442 2 -0.24 1.9103 1.28241 26
443 2 -0.24 1.9103 6.58241 21
444 2 -0.24 5.70356 3.93239 21
445 1 1.4 -0.934401 -6.02641 25
446 1 1.4 -2.83171 -3.37645 24
447 1 4.68 -2.83171 -3.37645 21
448 2 3.04 -5.67644 -1.36761 21
449 2 1.4 -2.83137 -1.36755 25
450 2 1.4 -0.93461 -4.0176 25
451 2 3.04 -3.7797 -4.01759 23
452 2 4.68 -2.83137 -1.36755 22
453 2 4.68 -0.93461 -4.0176 21
454 1 1.4 -6.6244 -0.726407 20
455 1 1.4 -0.934401 -0.726407 26
456 1 3.04 -3.77954 -0.726424 23
457 1 3.04 -5.67683 1.92362 21
458 1 1.4 -2.83171 1.92355 26
459 1 1.4 -0.934401 4.57359 23
460 1 3.04 -3.77954 4.57358 18
461 1 4.68 -0.934401 -0.726407 23
462 1 4.68 -2.83171 1.92355 21
463 1 4.68 -0.934401 4.57359 19
464 2 1.4 -6.62461 1.2824 22
465 2 1.4 -2.83137 3.93245 25
466 2 1.4 -0.93461 1.2824 26
467 2 3.04 -3.7797 1.28241 23
468 2 1.4 -0.93461 6.5824 22
469 2 4.68 -2.83137 3.93245 20
470 2 4.68 -0.93461 1.2824 24
471 1 3.04 1.91046 -6.02642 23
472 1 3.04 0.0131684 -3.37638 26
473 1 1.4 2.85829 -3.37645 25
474 1 4.68 2.85829 -3.37645 21
475 2 3.04 0.0135641 -6.66761 20
476 2 3.04 0.0135641 -1.36761 26
477 2 1.4 2.85863 -1.36755 25
478 2 1.4 4.75539 -4.0176 19
479 2 3.04 1.9103 -4.01759 22
480 2 3.04 5.70356 -1.36761 21
481 2 6.32 0.0135641 -1.36761 22
482 2 4.68 2.85863 -1.36755 21
483 1 1.4 4.7556 -0.726407 24
484 1 3.04 1.91046 -0.726424 26
485 1 3.04 0.0131684 1.92362 25
486 1 1.4 2.85829 1.92355 26
487 1 1.4 4.7556 4.57359 21
488 1 3.04 1.91046 4.57358 19
489 1 3.04 5.70317 1.92362 21
490 1 4.68 4.7556 -0.726407 24
491 1 6.32 1.91046 -0.726424 22
492 1 6.32 0.0131684 1.92362 23
493 1 4.68 2.85829 1.92355 22
494 2 3.04 0.0135641 3.93239 24
495 2 1.4 2.85863 3.93245 24
496 2 1.4 4.75539 1.2824 25
497 2 3.04 1.9103 1.28241 26
498 2 4.68 2.85863 3.93245 20
499 2 4.68 4.75539 1.2824 22
500 2 6.32 1.9103 1.28241 21
