ITEM: TIMESTEP
29000
ITEM: NUMBER OF ATOMS
2000
ITEM: BOX BOUNDS pp pp pp
-30.0 30.0
-30.0 30.0
-30.0 30.0
ITEM: ATOMS id type x y z Coordination
1 1 -7.45219 7.03759 -11.0873 16
2 1 -2.29376 -11.0942 -5.02918 20
3 1 2.49746 14.0226 18.5952 9
4 1 8.3877 -10.6755 11.336 11
5 1 -14.6327 9.55211 -5.34347 10
6 1 11.4033 -6.81337 -11.0115 9
7 1 -15.6061 3.29538 -3.21163 12
8 1 -0.484732 -4.4125 12.356 20
9 1 -6.95252 5.43053 -13.7748 9
10 1 -12.3084 -9.08384 7.07482 18
11 1 16.7981 7.63558 -3.54164 13
12 1 -7.45862 -10.8263 6.57544 16
13 1 -14.0328 -6.45965 3.54879 18
14 1 5.20929 7.60721 17.4814 19
15 1 -2.97076 15.8801 -5.58265 16
16 1 8.67947 0.55941 14.3036 19
17 1 -8.98041 0.910139 -9.36838 21
18 1 -8.82379 -1.98844 13.7385 20
19 1 13.1088 4.6232 10.0056 18
20 1 5.17275 12.9555 -5.49688 16
21 1 5.26097 10.8991 -10.7418 14
22 1 16.4821 5.44915 14.6186 12
23 1 -12.7408 2.3382 -5.21419 17
24 1 -10.3519 8.62839 15.8557 9
25 1 6.14246 -5.26377 9.38515 17
26 1 3.65482 -11.847 -3.95562 19
27 1 9.67991 -9.75481 8.40484 12
28 1 -9.10753 -7.80222 -4.39011 18
29 1 -13.087 -1.87972 10.73 17
30 1 0.796711 -8.19682 -9.33116 17
31 1 9.40346 -12.3753 -5.51134 9
32 1 0.88935 7.97745 -11.2289 13
33 1 -1.05465 2.10696 17.353 13
34 1 -6.00266 -4.26475 12.8651 20
35 1 4.62852 -2.94353 14.2674 18
36 1 -11.4518 -0.604805 2.67104 23
37 1 -12.0912 2.72574 10.7649 22
38 1 -3.59701 13.4459 2.94927 17
39 1 5.24468 -8.90797 -5.64254 20
40 1 6.21622 -4.47881 -10.7624 13
41 1 -1.32361 -2.58476 17.4107 11
42 1 -11.8977 6.05088 2.68676 20
43 1 10.5806 14.2037 -8.0027 9
44 1 2.82023 17.3265 7.83602 17
45 1 -9.87326 8.46631 -3.8149 19
46 1 -1.10854 14.1733 1.09576 20
47 1 4.93512 -14.5732 3.3293 12
48 1 13.7226 -4.41457 -5.60174 11
49 1 1.50457 -3.12722 -13.3219 15
50 1 -10.3531 11.2242 13.6267 8
51 1 -13.0143 -7.66835 -9.12072 10
52 1 -6.81244 8.76773 -2.09262 25
53 1 -8.4304 -5.48008 7.42105 22
54 1 -4.07417 13.832 6.10525 19
55 1 -16.7359 -2.27095 -8.09172 10
56 1 -8.87405 11.4856 11.1743 15
57 1 -3.37885 -13.6749 11.7581 9
58 1 9.24382 -11.642 5.34456 13
59 1 1.00948 15.2057 15.3494 12
60 1 -12.2113 -3.19197 -2.44151 18
61 1 -9.84079 8.04737 -7.2716 21
62 1 4.79479 7.82807 14.4788 21
63 1 11.2969 -1.04886 -9.19877 13
64 1 5.72515 -10.1244 3.37398 18
65 1 -15.135 -3.73736 2.61474 14
66 1 5.80537 16.218 6.25606 18
67 1 8.01817 -3.04887 15.6529 14
68 1 -5.97088 -8.03387 7.26929 18
69 1 16.8341 2.25339 12.4745 12
70 1 -0.38119 10.5727 12.3586 23
71 1 -4.89085 -4.51368 -3.64305 20
72 1 -10.2579 7.44899 8.7583 18
73 1 -8.23106 11.2266 0.808481 21
74 1 2.02758 13.4318 -6.96557 21
75 1 0.058129 16.5643 -3.84952 16
76 1 10.163 -3.57303 10.7289 15
77 1 -6.93553 13.097 -5.61881 20
78 1 -16.6471 6.68326 1.4917 10
79 1 -12.3322 2.67744 14.5658 12
80 1 -3.00675 10.8099 7.92857 24
81 1 -5.8837 -0.695045 14.6552 17
82 1 11.7754 -6.43258 -3.99164 14
83 1 -8.79647 5.35464 7.669 24
84 1 -11.7394 -8.65209 4.10234 20
85 1 14.9561 -1.27906 -3.9627 11
86 1 3.85133 -0.691039 -13.801 12
87 1 -10.1224 3.3066 -11.7431 12
88 1 -0.888179 13.6017 4.76412 21
89 1 -6.77115 7.94333 -5.21269 20
90 1 8.35163 12.6994 17.3708 14
91 1 -0.782952 14.0082 -5.28676 22
92 1 -13.5743 8.42666 0.64155 18
93 1 -0.736015 -0.312005 19.8062 7
94 1 14.269 -0.117035 13.774 11
95 1 8.94678 -5.05838 -9.17281 18
96 1 11.4042 4.152 14.4808 17
97 1 -8.58381 -5.13974 0.568972 23
98 1 -10.4802 -12.6776 -1.51185 6
99 1 7.8755 -8.5472 2.71948 19
100 1 7.76375 3.29811 -10.0754 18
101 1 2.45139 19.0764 -0.71298 14
102 1 -9.43483 -12.3453 12.2898 11
103 1 -11.1959 -10.2852 9.75271 14
104 1 -0.271261 -10.3133 -7.1239 21
105 1 12.5479 -4.6385 2.09253 17
106 1 -2.61915 -10.9212 11.0006 17
107 1 -9.06966 -7.83345 1.84355 18
108 1 16.7763 5.59215 11.6255 11
109 1 16.3334 4.49994 -5.30279 10
110 1 -12.1664 -3.47837 0.939808 22
111 1 10.4721 9.40192 7.33861 21
112 1 11.9895 12.5676 8.21501 17
113 1 -9.70878 3.0961 12.5848 19
114 1 -7.72654 14.438 10.8373 16
115 1 -4.18696 14.037 -3.43847 20
116 1 -0.175724 -1.99237 -9.58904 19
117 1 9.02561 -9.22741 -6.01329 19
118 1 2.55825 16.0256 -8.31629 13
119 1 10.8233 -1.37454 16.134 11
120 1 -4.9813 4.90737 -16.8516 8
121 1 -3.11273 11.1144 -5.21032 22
122 1 11.9809 1.17171 -2.39354 16
123 1 -11.0268 10.1192 0.414254 16
124 1 -5.08311 16.621 -2.03142 10
125 1 9.06166 5.81997 -5.69534 20
126 1 9.02197 -6.12599 4.62334 15
127 1 -6.49118 16.2811 12.6124 10
128 1 17.2073 12.1304 -2.89161 9
129 1 7.66956 13.8916 -3.7524 20
130 1 -5.78669 11.16 12.6617 19
131 1 12.8614 10.6945 5.58698 19
132 1 -2.86081 11.5032 -1.94915 22
133 1 4.37411 19.4672 -3.5427 11
134 1 4.3957 7.92828 -12.6683 11
135 1 -11.452 -5.79375 6.03663 20
136 1 -12.4209 7.82578 -1.91573 20
137 1 -5.70204 0.212911 -10.6788 23
138 1 -5.63805 -5.18824 -14.7635 8
139 1 5.21783 15.7729 9.34224 16
140 1 -2.89449 16.1145 7.63122 21
141 1 -12.9423 -2.8568 -5.68789 23
142 1 -14.6762 7.50916 3.45869 14
143 1 14.9941 1.09688 1.80691 17
144 1 -12.6756 2.74247 -8.9755 15
145 1 5.09899 0.549234 19.0113 12
146 1 -0.259419 18.7816 1.1298 14
147 1 -3.14266 10.9466 10.9121 23
148 1 1.9838 -9.03315 -12.1792 11
149 1 -4.21021 19.1654 9.10982 9
150 1 -3.43158 13.3097 -7.12153 23
151 1 1.95729 1.04268 17.4847 14
152 1 -9.85331 -2.59346 5.4799 21
153 1 -3.74735 -6.16482 -11.8896 14
154 1 -6.13095 12.3606 -8.93391 15
155 1 -2.89499 -8.63587 5.92118 19
156 1 3.2676 -9.75585 1.02217 18
157 1 -1.87182 9.23806 -11.9964 15
158 1 -14.9573 4.50878 10.7802 14
159 1 8.10404 14.1375 3.17408 22
160 1 -12.1036 11.2212 6.18518 15
161 1 0.235516 -4.90245 15.8095 15
162 1 2.72323 16.0087 11.0613 16
163 1 -1.49375 7.87139 10.8182 22
164 1 13.243 6.95796 14.8335 18
165 1 -5.85517 17.6582 6.65902 12
166 1 10.62 -3.42658 -6.49009 19
167 1 -6.31339 16.3469 9.0895 14
168 1 8.9619 -4.79641 1.83478 17
169 1 -19.5756 2.23239 -0.0910451 9
170 1 -8.65398 -10.5882 0.417157 15
171 1 13.886 8.88644 16.7943 12
172 1 -14.6296 -1.09398 1.24037 19
173 1 -1.92198 -9.5165 -1.516 18
174 1 0.190184 10.8923 6.09275 25
175 1 1.45102 13.1299 9.34168 20
176 1 -5.65856 15.5234 -7.47931 10
177 1 -16.6638 -5.99403 -2.42757 11
178 1 -9.30788 2.92506 16.1308 16
179 1 2.11088 -7.18859 5.91201 15
180 1 6.93637 -8.48796 13.2488 10
181 1 -9.17798 14.6972 3.03912 10
182 1 14.8291 1.20064 8.2684 17
183 1 -6.27714 -5.67213 -11.1659 16
184 1 4.6293 2.49725 14.4029 22
185 1 3.59443 -8.43483 12.4791 14
186 1 -2.86816 5.4926 -8.5258 19
187 1 5.95323 -12.058 -6.7468 12
188 1 12.9716 3.19412 -10.9711 6
189 1 5.15244 11.6104 -8.08668 21
190 1 -6.58551 -2.4062 -9.25369 19
191 1 -3.0466 15.6472 -9.17292 11
192 1 -11.0442 -9.74409 12.8056 10
193 1 5.03677 19.5431 1.43923 14
194 1 -8.20172 5.85815 16.2051 16
195 1 -6.9622 13.8602 -2.39382 17
196 1 7.47257 2.49598 12.5955 23
197 1 -2.22576 -4.58067 -8.98237 20
198 1 -2.9343 10.5713 -8.9589 21
199 1 2.31223 8.21269 -6.9507 20
200 1 -9.42769 -8.07686 5.72082 20
201 1 -7.45151 8.11954 11.3029 20
202 1 -2.18197 15.7294 14.1351 12
203 1 4.33877 -4.739 -5.48732 22
204 1 -1.71681 -11.4857 4.09732 20
205 1 10.3331 -8.86629 3.71784 13
206 1 11.8855 12.2135 16.1671 9
207 1 5.27618 8.32752 -5.38461 20
208 1 -11.7815 13.3127 -2.26908 14
209 1 -0.142992 5.33636 12.7317 22
210 1 5.11356 -10.6894 10.9231 13
211 1 14.0457 -1.41943 -7.27984 11
212 1 -11.8975 6.5465 5.91061 19
213 1 -11.4813 -6.10558 -1.01534 20
214 1 4.44769 2.82512 -13.6663 10
215 1 2.51268 0.0757813 14.2533 21
216 1 9.94224 16.2371 1.13251 16
217 1 -2.7179 0.0545218 -9.5053 21
218 1 -1.1101 -15.3606 -0.494246 9
219 1 7.88196 3.2064 -7.00314 19
220 1 -11.3484 -0.333668 5.69289 22
221 1 4.88533 -13.8299 -2.22036 11
222 1 -9.45938 -1.91768 -4.26575 22
223 1 7.54903 13.9523 0.367657 19
224 1 0.253294 0.199237 -10.8482 19
225 1 4.48472 9.65789 19.3464 15
226 1 17.7482 0.725056 3.17087 6
227 1 9.0865 -4.43188 -12.6406 10
228 1 -6.14322 -0.269245 -7.5085 21
229 1 -8.76198 4.73534 -8.9397 19
230 1 -5.90549 -11.8613 11.9971 16
231 1 11.4428 0.454711 13.003 13
232 1 -8.21726 -7.88214 -10.4094 10
233 1 8.06502 12.4058 -7.4829 17
234 1 1.67885 13.328 2.7081 19
235 1 -8.59038 0.70149 13.3553 21
236 1 -14.0553 -6.65619 -5.9809 17
237 1 -4.59394 -5.19117 -8.79395 20
238 1 -2.95649 12.571 -10.8446 11
239 1 -6.13629 -7.34654 -3.00879 23
240 1 11.7676 -3.30144 -11.7231 10
241 1 14.7778 7.53179 -5.94817 13
242 1 11.6813 5.50276 2.9197 20
243 1 -8.22269 -4.59897 15.5401 10
244 1 -2.97237 -8.31301 2.73351 20
245 1 12.0594 6.45124 18.3168 16
246 1 -8.51478 -8.23613 8.79172 24
247 1 0.753607 -11.2952 2.58635 22
248 1 -4.16131 19.1184 3.40705 9
249 1 -1.4094 -1.73237 -13.2192 16
250 1 -8.63511 0.712028 -12.3006 16
251 1 -8.03646 -6.52475 10.8455 16
252 1 -0.956861 8.65101 14.3167 23
253 1 5.83673 -11.8562 1.07103 17
254 1 0.42126 -11.4692 -10.8838 11
255 1 -11.6498 5.19865 -6.90818 16
256 1 11.371 5.56506 5.80275 21
257 1 -5.07584 5.29719 -6.37628 20
258 1 4.97257 8.27519 -8.75563 20
259 1 7.9067 -14.252 -2.02448 9
260 1 -0.942134 19.0896 4.42608 18
261 1 3.02706 10.8701 7.88029 21
262 1 10.6325 3.30129 8.1218 20
263 1 -9.72395 2.32869 8.98907 21
264 1 -3.02556 -5.06471 17.0613 9
265 1 -13.0764 10.1744 3.01544 15
266 1 2.82554 -2.42801 -11.0643 18
267 1 11.3394 14.6295 -4.72607 17
268 1 5.21873 -13.4054 9.25231 11
269 1 -7.8578 0.739262 18.3056 7
270 1 -16.2618 4.45748 4.42209 13
271 1 1.2055 -13.7267 -2.31169 13
272 1 -5.34441 5.61411 16.7806 14
273 1 -12.3199 8.91226 13.9384 10
274 1 -11.5679 -0.0144837 9.03603 21
275 1 -13.197 -2.10004 7.10819 18
276 1 14.0527 -2.04097 -0.210167 17
277 1 -4.78948 -3.15211 15.6224 18
278 1 9.54223 0.674889 -5.04469 15
279 1 11.2707 -10.6772 0.342412 11
280 1 0.18449 16.5785 -0.699738 18
281 1 -10.292 15.1959 -3.4783 10
282 1 8.13546 10.4832 14.9123 17
283 1 10.1553 -14.1715 1.15145 8
284 1 -5.8401 11.1512 6.00967 20
285 1 4.76077 -5.84955 12.7117 16
286 1 11.4417 -6.98043 9.15396 12
287 1 2.407 -2.3905 16.311 16
288 1 -1.36197 13.3775 8.33926 22
289 1 5.55723 10.8015 16.0158 20
290 1 -10.3487 12.9394 -5.13959 14
291 1 -3.1205 -4.66519 -17.1547 8
292 1 8.28662 -7.99073 -9.34852 12
293 1 -11.406 5.71322 16.1608 11
294 1 -14.4669 4.26773 1.91805 21
295 1 -5.73565 11.2472 2.76162 22
296 1 8.82164 -0.155588 11.263 19
297 1 -13.3916 -11.1448 -0.945964 11
298 1 8.32394 -6.82191 7.63237 18
299 1 -7.55331 -6.65478 13.9054 13
300 1 -14.9586 9.66155 -2.52707 12
301 1 2.74579 -7.34034 -4.38679 20
302 1 -6.57757 -2.64964 -5.63454 22
303 1 8.02301 2.6354 -12.5825 12
304 1 4.66848 13.2629 8.12602 21
305 1 -11.5287 -0.427257 -0.761925 19
306 1 9.16079 -6.49959 -3.1681 17
307 1 9.28064 8.64327 -11.1192 10
308 1 -4.55204 -10.4719 -1.95781 15
309 1 -11.3894 -5.40146 -4.0796 23
310 1 7.80505 9.6916 17.9144 18
311 1 10.6928 4.05485 -1.14694 22
312 1 -7.24398 9.82327 -10.2928 13
313 1 2.18401 19.1433 2.94226 14
314 1 -15.8314 -2.5024 -0.763359 13
315 1 -9.77402 10.6133 8.64319 21
316 1 -10.0421 14.2313 -0.185949 14
317 1 -9.01731 11.2076 3.80087 17
318 1 14.0432 4.44709 16.632 12
319 1 12.2766 5.40449 -6.00646 16
320 1 8.0286 2.55415 19.328 16
321 1 10.5469 3.0929 -5.31299 18
322 1 -7.89426 -10.335 -2.7502 14
323 1 5.38127 -7.08519 1.12859 23
324 1 11.861 1.16296 9.84437 18
325 1 -8.58846 -5.00066 -2.54101 23
326 1 -5.53005 -7.52175 4.22155 18
327 1 -7.28068 -1.64768 17.1009 12
328 1 -2.77761 16.1434 4.56506 16
329 1 -16.34 -4.6814 -5.42157 13
330 1 3.68681 13.1929 14.9825 22
331 1 -9.2112 8.05648 -0.582157 20
332 1 2.01545 13.6481 -4.03052 20
333 1 5.61777 10.8133 9.94204 22
334 1 -11.9317 -8.14992 -5.7749 15
335 1 -2.24209 -5.06157 -5.97526 20
336 1 -15.6628 2.0055 2.68888 15
337 1 -15.9933 6.54665 -4.13033 9
338 1 7.22962 -8.78591 6.06245 20
339 1 -4.76104 -10.7467 2.74664 12
340 1 8.24238 15.4087 12.7031 10
341 1 7.77932 6.34303 -12.636 10
342 1 -12.4456 7.46079 -5.26544 16
343 1 5.45526 16.7385 -0.21487 21
344 1 -12.8911 4.71735 -3.43823 18
345 1 0.59527 -8.38609 7.90875 20
346 1 11.4819 6.93645 9.16081 22
347 1 5.5622 14.7041 -8.04876 14
348 1 -17.8119 -0.271138 -1.58785 9
349 1 -0.821968 -11.0457 7.38309 19
350 1 5.53711 -8.967 -8.70261 12
351 1 -15.0122 0.870524 10.7913 13
352 1 -15.5505 3.35866 7.72243 15
353 1 -10.5714 13.8336 8.51112 10
354 1 -11.8482 0.639909 -10.7433 12
355 1 9.07792 -11.7479 2.49307 17
356 1 1.11731 -10.2901 -4.44267 19
357 1 -3.90976 -3.03725 12.3429 21
358 1 -4.16334 6.80299 -13.4055 13
359 1 5.4241 -10.7144 7.04592 18
360 1 6.11583 10.6018 -4.0181 20
361 1 -12.9971 9.04811 8.53251 13
362 1 -6.76632 3.11932 14.0162 19
363 1 -9.5062 -1.94008 -7.74857 20
364 1 -10.9344 -7.10837 9.74098 21
365 1 7.58454 -2.27084 12.6167 16
366 1 9.28595 -7.08233 11.0475 15
367 1 11.8414 10.7696 3.10151 20
368 1 -2.94827 4.78822 14.0096 21
369 1 1.94735 13.9006 -0.310889 19
370 1 0.420493 -12.7733 -4.82223 15
371 1 -3.80771 8.00702 17.6749 12
372 1 -1.0295 18.6783 7.57156 14
373 1 -14.3636 -4.76896 -2.54231 21
374 1 7.8209 19.4787 1.43241 14
375 1 4.69104 7.81419 10.9963 25
376 1 -6.82536 2.25879 10.6838 23
377 1 -12.1823 4.87187 12.9595 16
378 1 -7.79751 -5.77082 -5.56478 20
379 1 -7.13008 8.42534 7.37643 19
380 1 -2.62281 -8.30769 -4.19971 21
381 1 0.125269 -4.94936 -11.1164 17
382 1 -12.1303 -12.4873 1.58619 10
383 1 10.4582 2.79193 11.9244 20
384 1 -3.76471 -1.51715 18.3156 8
385 1 -11.6372 6.02147 -9.9661 13
386 1 10.7484 8.83503 1.42743 21
387 1 -12.7637 -7.91944 -2.87613 19
388 1 0.272974 16.307 6.26412 20
389 1 -2.72797 11.9622 14.1033 21
390 1 -12.5365 -11.6317 4.86308 10
391 1 -0.208911 16.5601 2.78414 19
392 1 9.46753 16.5556 -3.25733 13
393 1 -4.95952 -6.6683 -5.60547 19
394 1 1.78735 7.93345 19.4689 13
395 1 -1.37504 -13.1123 -7.91662 13
396 1 2.55188 -2.6289 -7.36312 20
397 1 6.57628 -8.49111 9.62355 21
398 1 -14.9661 11.304 5.77386 4
399 1 10.8568 9.35803 17.1819 17
400 1 8.87028 10.9053 1.02745 21
401 1 -6.37879 7.61144 -8.29549 19
402 1 -14.2494 -8.94474 1.88783 16
403 1 1.95932 19.9639 5.88395 10
404 1 -7.15562 3.22529 -11.6534 21
405 1 10.252 8.09997 4.64016 21
406 1 6.99619 19.224 -1.24152 13
407 1 17.1956 6.57851 -0.190909 14
408 1 2.58432 3.09631 -10.6723 19
409 1 0.0396568 -13.2982 6.08248 16
410 1 1.89649 -2.61731 12.2595 20
411 1 -8.2697 4.96965 -5.73263 19
412 1 -14.9891 -8.74818 5.27097 11
413 1 -2.05247 -8.78356 -12.0691 11
414 1 7.48381 13.3176 10.0441 19
415 1 2.39359 5.30169 -8.58118 19
416 1 5.82506 0.0378416 15.9334 21
417 1 -14.9195 -4.74094 11.0509 11
418 1 -6.96379 -12.4116 3.41476 8
419 1 -12.5017 -3.3402 4.44533 18
420 1 15.6529 0.941559 -2.07896 14
421 1 12.447 0.953708 0.420371 20
422 1 3.17614 -5.63945 -11.9718 13
423 1 4.91589 2.7139 -8.87061 17
424 1 10.0726 4.99321 -11.1498 13
425 1 -3.94517 2.71595 15.451 16
426 1 8.83354 16.2765 5.04836 21
427 1 -3.00524 0.526225 -12.8751 20
428 1 0.217672 4.34425 -15.0928 12
429 1 -10.2732 -3.29171 8.71359 21
430 1 -2.85469 17.0344 0.858212 16
431 1 -9.68572 -2.44573 -10.5366 19
432 1 -16.4793 -2.47881 -3.98399 14
433 1 -3.49673 -1.61071 -18.6619 4
434 1 -7.41078 -9.55829 13.9423 13
435 1 -0.0521998 11.0977 -3.95306 20
436 1 11.0579 17.0275 8.96487 9
437 1 15.6776 6.45577 8.30965 11
438 1 -5.00401 -10.1974 -4.71683 16
439 1 -7.28373 -2.32469 -12.5799 16
440 1 -6.26201 10.6715 9.29106 20
441 1 11.9032 0.0400348 3.43217 19
442 1 2.99977 16.8829 -4.89098 14
443 1 14.9298 11.5572 -1.08128 18
444 1 2.33035 10.7955 17.5967 18
445 1 -8.82867 4.96923 10.5427 22
446 1 5.21063 10.3226 13.1432 20
447 1 4.0051 6.09459 20.0146 14
448 1 -3.87421 2.95018 -10.5 20
449 1 -0.258815 -1.75821 14.5964 17
450 1 8.51171 11.0902 8.39877 22
451 1 8.9538 11.5016 -2.27158 20
452 1 -9.0732 11.4794 -1.74998 19
453 1 -4.18503 14.0121 -0.208473 18
454 1 10.2406 4.17476 20.1782 15
455 1 12.4253 1.22352 -6.30868 14
456 1 11.2038 -7.14612 1.48018 16
457 1 13.3707 9.81294 13.6072 16
458 1 -15.8814 -1.76205 9.18601 10
459 1 -3.39625 7.86132 -7.12636 21
460 1 -15.6431 0.557606 7.5627 10
461 1 -0.355416 13.7456 -9.11661 18
462 1 8.4883 -14.6663 3.84253 10
463 1 6.28026 0.354088 -7.39247 16
464 1 -2.41138 17.2101 -2.4144 14
465 1 -9.72718 -7.54625 -7.69289 18
466 1 0.00998635 -10.7217 10.4834 18
467 1 -15.5349 -9.4737 -4.01311 7
468 1 8.67675 12.0161 -10.7553 11
469 1 -0.0735757 13.3694 18.3702 8
470 1 -12.8744 -4.17683 9.05394 19
471 1 7.76526 -6.68777 -5.59993 15
472 1 3.86237 -5.62809 16.0656 9
473 1 -9.73879 8.44946 2.61585 19
474 1 7.23977 5.14286 19.0904 22
475 1 6.25067 17.0967 -3.56082 19
476 1 11.1941 -1.92197 -1.32203 18
477 1 1.87429 8.0886 12.7508 22
478 1 -4.27412 3.3361 -14.2253 17
479 1 -3.37465 -8.5741 12.201 18
480 1 0.218146 -6.84983 -13.468 13
481 1 8.07369 18.2681 7.39107 12
482 1 11.6818 7.98525 -7.89101 11
483 1 -3.90507 -2.39387 -11.1897 23
484 1 -3.26991 -7.20478 -0.792727 19
485 1 -7.9677 -4.77112 -8.33734 22
486 1 16.3568 7.95271 2.51527 12
487 1 17.5773 9.54753 -0.554213 9
488 1 10.5446 -6.76169 -7.19001 16
489 1 15.4562 8.52471 13.2884 10
490 1 5.57572 -6.62823 -2.94747 21
491 1 1.8018 5.35204 -12.569 17
492 1 7.6706 13.5081 6.52491 19
493 1 9.77634 14.744 15.9017 9
494 1 14.5342 11.9279 2.00004 11
495 1 14.3673 5.1486 1.34565 19
496 1 11.6205 6.28221 -3.52751 20
497 1 7.10905 5.44068 21.8619 9
498 1 14.5267 3.5261 12.7496 17
499 1 15.5033 14.4199 -0.610114 9
500 1 2.32535 5.61733 17.5509 20
501 1 15.7114 1.25524 -5.96613 10
502 1 4.33144 3.59975 17.6983 18
503 1 -8.80521 0.277439 -5.7303 19
504 1 17.7451 1.16183 9.185 8
505 1 -6.52989 7.79546 15.1713 16
506 1 10.4771 8.39972 12.1076 20
507 1 8.96812 4.5573 14.4632 21
508 1 2.57011 10.5501 11.1282 22
509 1 2.2077 13.2352 12.85 16
510 1 -3.91218 -13.681 5.44784 10
511 1 -6.0686 11.4801 -0.960818 22
512 1 15.5988 10.3493 -5.13833 11
513 1 7.71059 0.0669869 -11.3267 15
514 1 -3.80758 20.0283 6.2612 11
515 1 -0.0274135 -7.47869 -6.23091 21
516 1 13.0833 0.240849 -12.5213 6
517 1 -12.0054 5.11944 9.2802 23
518 1 -3.86552 8.19285 -10.266 20
519 1 1.33405 -10.6617 5.46516 19
520 1 -6.34108 2.49988 -8.59323 22
521 1 -12.6552 2.34216 -1.83383 21
522 1 11.0807 -2.35342 4.93265 18
523 1 13.3229 7.99377 3.62291 20
524 1 -2.37761 -8.5117 9.59114 20
525 1 -14.3422 -4.9725 -8.63962 15
526 1 -2.11493 6.21909 -16.5573 11
527 1 -0.55955 8.66588 18.0067 14
528 1 7.06303 10.3654 -12.7245 10
529 1 13.7005 0.133205 17.4263 8
530 1 11.1853 9.01755 -5.54383 21
531 1 12.9809 14.427 0.817719 13
532 1 6.64804 -10.1204 -3.28672 16
533 1 -4.55322 13.0227 15.7599 11
534 1 15.3017 -2.94823 6.01706 12
535 1 -0.160935 17.3213 12.7845 8
536 1 5.28765 17.4807 -6.5758 11
537 1 -13.8424 12.9316 -3.44896 9
538 1 10.6446 18.1663 6.25718 12
539 1 -15.0225 -8.52538 -1.37705 16
540 1 13.9045 -2.04199 2.92996 17
541 1 7.40327 18.9842 4.60158 16
542 1 -3.97804 7.90835 12.639 21
543 1 -14.0457 -5.9508 0.515598 20
544 1 -9.94786 2.54958 -7.50588 19
545 1 7.29107 2.45955 16.5519 21
546 1 -8.40161 -9.22613 11.4588 21
547 1 9.32962 7.31333 19.6026 16
548 1 -6.95985 14.8462 0.586261 13
549 1 -2.42786 3.56792 -17.3675 11
550 1 -8.84557 -0.447976 9.72598 22
551 1 8.46468 -1.65905 -8.67581 14
552 1 11.5638 -3.46562 -3.49902 17
553 1 9.10691 5.47932 11.2475 20
554 1 -7.93323 4.28662 18.955 7
555 1 11.9707 5.71602 12.3363 20
556 1 5.17975 -2.4509 17.1161 15
557 1 -2.19631 10.9686 16.9544 16
558 1 -1.93482 -4.19947 -13.8597 18
559 1 -11.2698 -0.717958 12.2478 16
560 1 1.6501 3.3807 15.6104 21
561 1 -10.483 -11.8737 6.96253 11
562 1 13.6372 9.06103 0.75592 18
563 1 7.2175 -14.2171 0.83478 13
564 1 5.90701 11.2178 -0.601524 22
565 1 10.8882 19.0596 3.10524 10
566 1 -0.670468 1.57333 -15.2941 13
567 1 -0.664614 13.9208 -2.10618 22
568 1 15.0762 5.32194 5.11012 16
569 1 -5.93723 -8.31279 0.651903 18
570 1 -1.16539 2.76805 -12.3431 20
571 1 -13.1907 12.0436 -0.0306023 12
572 1 5.31459 -7.43886 -11.1138 10
573 1 12.3972 11.7109 -6.69612 16
574 1 9.68556 18.4505 -0.72239 9
575 1 13.0931 3.35733 19.0227 11
576 1 10.7746 1.33017 18.3464 14
577 1 -0.275732 -7.70618 11.4884 21
578 1 -8.90307 10.8859 -7.51341 14
579 1 -1.41267 13.3823 11.1374 20
580 1 6.76892 -13.2503 -4.36394 13
581 1 12.8218 14.9939 -2.35813 13
582 1 8.1211 10.9442 11.7304 20
583 1 14.111 -4.6166 -2.21463 12
584 1 7.87599 6.90599 16.2443 22
585 1 -16.2084 -7.08063 1.68608 10
586 1 7.04983 -14.2088 6.4112 12
587 1 -9.19898 15.3848 -6.90285 9
588 1 5.73621 11.2755 2.72946 22
589 1 -14.0348 -7.23467 9.85311 11
590 1 -0.105505 5.77883 19.7572 10
591 1 -5.65003 10.1923 -7.04863 24
592 1 -8.25567 10.4417 -4.76826 20
593 1 2.36863 -12.4422 8.37185 17
594 1 10.7654 8.7622 -1.99346 23
595 1 -14.0627 7.42071 11.2369 12
596 1 0.028759 -4.2447 -15.8755 9
597 1 -0.540495 -13.7025 9.51237 12
598 1 4.90137 13.913 1.26448 23
599 1 -0.229074 6.14164 15.6264 18
600 1 -5.19101 -9.11902 -10.9215 11
601 1 -5.79941 -8.25545 -8.4127 15
602 1 -4.23017 -10.7758 -8.10425 11
603 1 8.60216 16.1389 -5.93758 11
604 1 -6.63346 14.3836 4.13565 17
605 1 2.41302 -11.7089 -0.752546 17
606 1 8.55202 -12.4264 8.53051 11
607 1 2.51642 -5.3571 10.8732 22
608 1 14.6276 5.49847 -2.17134 22
609 1 -1.55498 -14.6096 -4.05037 9
610 1 -10.3716 0.0197966 15.9764 12
611 1 -1.83621 -10.9315 1.09265 17
612 1 -7.48742 -8.94869 -6.34801 17
613 1 -11.2991 -4.30035 11.611 17
614 1 -8.21252 -11.5003 9.49674 18
615 1 17.334 5.152 2.75843 12
616 1 0.0241557 16.0676 9.75719 16
617 1 -19.2617 2.59025 3.13204 5
618 1 11.7974 0.5995 6.44537 20
619 1 -12.8541 -4.26586 -10.911 10
620 1 10.6654 4.21739 -8.19438 17
621 1 10.2574 12.8243 5.4948 22
622 1 -11.5652 0.418573 -3.90906 21
623 1 -12.04 0.229788 -7.4228 18
624 1 6.51294 8.39782 20.6169 14
625 1 7.39171 9.53655 -7.82582 17
626 1 9.54529 14.7339 7.82802 21
627 1 -4.13417 2.29549 12.1187 24
628 1 3.53045 -12.2422 2.94182 18
629 1 -6.59681 -14.646 11.795 6
630 1 11.0137 10.6146 10.4168 18
631 1 3.33494 -6.58544 -7.87521 16
632 1 5.57857 11.2487 6.14031 23
633 1 -7.03813 -3.11378 10.3346 19
634 1 9.37859 11.1947 -5.22169 20
635 1 0.922462 -9.43732 -0.684208 18
636 1 3.87013 -13.7881 6.06111 15
637 1 -1.21791 -14.085 2.64126 13
638 1 5.80781 6.00725 -7.24982 18
639 1 5.06128 19.3074 7.36052 11
640 1 -5.44959 5.30689 -10.6116 18
641 1 -1.14518 2.4017 14.0272 18
642 1 2.84937 10.8257 -8.79021 18
643 1 -15.7798 1.21023 -8.66799 6
644 1 -9.38736 -2.41326 -0.93601 21
645 1 3.34282 16.6702 -2.12243 21
646 1 -6.39646 0.636495 -14.0441 14
647 1 11.89 6.52554 -0.296732 21
648 1 10.5707 -8.95357 -2.61205 14
649 1 -2.31462 4.46035 18.266 11
650 1 5.06562 -7.70335 4.71092 18
651 1 15.0461 -4.92789 1.01358 9
652 1 13.2716 -1.40252 7.72479 17
653 1 -0.0697235 10.8856 9.37213 23
654 1 -14.6199 6.29167 8.44998 12
655 1 -5.92743 5.70995 12.7753 16
656 1 -3.95933 -10.9606 14.4866 11
657 1 10.8059 11.8812 13.3274 16
658 1 -14.411 -0.725503 4.3394 15
659 1 10.1597 -4.25377 -1.07523 21
660 1 -12.4532 8.58483 -8.13076 10
661 1 3.28053 -8.68596 9.15865 17
662 1 10.0101 4.6773 17.2292 22
663 1 2.96074 16.2624 1.63389 22
664 1 2.99325 -5.58924 8.14824 20
665 1 2.76542 5.35787 14.0456 20
666 1 -11.1505 -6.21828 2.64402 21
667 1 6.31872 14.2724 15.2745 14
668 1 4.76473 13.8887 4.66679 22
669 1 -3.95553 -11.0943 7.02297 18
670 1 -4.13267 -13.9781 8.75074 9
671 1 7.60634 -2.32245 9.55425 18
672 1 12.9429 -4.2356 8.40798 14
673 1 7.83879 8.3111 9.71407 22
674 1 0.604434 -4.58847 -8.01262 20
675 1 -0.837873 2.55707 -8.85185 22
676 1 -3.24711 -0.110073 14.069 17
677 1 3.21395 16.9883 4.81577 19
678 1 13.5921 3.04422 3.07207 20
679 1 2.99301 10.889 -5.68311 19
680 1 -7.75141 13.5432 14.1114 11
681 1 7.54103 7.65501 13.0943 23
682 1 7.63294 -3.72632 -6.93623 17
683 1 -12.0053 -8.82937 0.634456 20
684 1 15.7588 -1.95039 9.11333 11
685 1 3.07411 0.26723 -9.39183 18
686 1 5.68864 5.14592 15.7938 20
687 1 12.8846 -4.57761 -8.96249 12
688 1 1.48876 1.65241 -13.2814 15
689 1 13.78 9.28286 -3.06067 21
690 1 14.7482 0.349885 4.88216 18
691 1 4.33932 -2.87714 10.9615 23
692 1 -3.09517 -7.93006 -7.51822 18
693 1 6.32054 16.7502 2.82135 21
694 1 -12.6899 2.42876 7.30082 18
695 1 10.0442 14.1875 -1.20884 19
696 1 13.423 7.93727 7.00392 14
697 1 -3.71564 1.01293 -16.6013 12
698 1 -7.32723 13.5252 7.935 19
699 1 16.0567 3.58574 9.36873 15
700 1 11.6601 11.4939 -0.196415 20
701 1 5.26108 5.61437 -10.6944 17
702 1 10.7777 -2.06316 1.58417 22
703 1 -12.7159 1.71639 0.978316 21
704 1 13.5855 3.54744 6.99235 20
705 1 -8.99646 -7.96482 -0.982555 20
706 1 -10.5155 9.17907 -9.95014 11
707 1 5.95278 4.95894 12.7928 24
708 1 -9.76051 3.06384 -3.96314 21
709 1 -13.5789 4.77072 5.37774 18
710 1 8.70808 -7.33691 -0.345623 18
711 1 -11.0096 -4.9979 -7.01659 23
712 1 13.933 -7.42855 3.29876 8
713 1 -14.9549 5.87193 -1.09766 18
714 1 13.4001 8.21978 10.7179 15
715 1 -5.37718 -6.11174 9.05248 19
716 1 8.01649 -0.470557 17.7255 15
717 1 12.9972 -1.48294 10.7667 12
718 1 -13.0632 2.22318 4.38527 19
719 1 2.36675 10.6009 14.399 22
720 1 10.7544 11.1223 -8.66118 15
721 1 -4.50662 -2.21564 -14.5847 17
722 1 -4.87505 13.8508 12.5668 20
723 1 -13.0795 -6.90678 12.7886 11
724 1 12.0685 12.1216 -3.31838 21
725 1 1.52927 8.21603 15.9539 18
726 1 17.5646 4.10599 -2.01707 11
727 1 1.60881 -6.24857 13.8359 13
728 1 -0.235879 11.4199 -10.7075 14
729 1 3.09004 13.648 -10.3673 11
730 1 -5.79682 -0.738781 11.8652 23
731 1 16.6502 2.02631 5.99326 13
732 1 -3.53811 -2.32023 -7.64106 21
733 1 14.3146 12.8313 5.12728 11
734 1 -16.1887 1.77753 -0.277058 17
735 1 -2.59212 -6.01458 13.9334 16
736 1 -0.114531 16.7068 -7.11248 13
737 1 5.35133 -0.0689504 12.5732 22
738 1 -3.00082 -12.5752 -2.16155 10
739 1 -8.76204 15.8841 6.46064 12
740 1 -17.8294 4.54362 -1.19233 10
741 1 10.0038 1.85288 -9.6002 16
742 1 2.49824 -9.65756 -8.35832 16
743 1 -9.71051 8.65872 5.93078 20
744 1 14.5738 12.8199 -4.44213 14
745 1 6.77382 0.402564 -13.8649 11
746 1 -2.27217 -11.5749 -9.88906 11
747 1 2.79028 -7.08661 -0.777006 21
748 1 0.0639288 11.7779 15.2472 21
749 1 3.57486 -9.13891 -2.65329 20
750 1 -0.822152 8.39038 -8.67138 23
751 1 16.6825 3.05772 0.248369 15
752 1 8.69029 10.9279 4.65261 20
753 1 1.57215 -14.7036 1.23413 14
754 1 6.16741 -2.37158 -12.214 15
755 1 13.7874 3.35902 -4.02393 19
756 1 -0.439211 5.31314 -10.042 17
757 1 -2.93679 -5.65098 10.8876 19
758 1 8.16437 8.61667 -3.93252 20
759 1 -11.7115 5.22834 -0.301077 19
760 1 -10.9557 8.70497 11.2446 16
761 1 6.67404 12.0331 20.5933 8
762 1 -5.4902 -9.22277 9.66617 19
763 1 2.01258 13.813 6.4584 20
764 1 1.89247 -14.4419 4.25407 13
765 1 4.9936 13.8328 -2.15855 19
766 1 -3.62411 16.0982 11.4841 16
767 1 0.862504 3.16494 19.3187 14
768 1 -9.56068 12.9165 5.75073 16
769 1 -4.4837 -8.17532 14.8795 11
770 1 -0.424492 -10.0172 13.2317 12
771 1 15.2705 2.13177 15.3838 12
772 1 8.77205 -2.07141 -3.47987 20
773 1 11.8994 -9.85388 -5.49027 8
774 1 -12.6968 -2.15958 -8.77089 16
775 1 -1.05346 6.61566 -13.6645 14
776 1 4.34274 13.349 11.4488 20
777 1 -10.7274 -4.88468 14.5515 10
778 1 -5.65778 11.0535 -3.81627 24
779 1 -14.6033 -0.570449 -2.55647 16
780 1 12.1467 15.0475 3.7926 13
781 1 -9.27647 -10.7307 3.71519 15
782 1 10.6209 14.3014 11.1498 13
783 1 -10.4382 -5.49476 -9.77939 15
784 1 4.96055 15.9999 12.9824 12
785 1 -9.86784 6.80019 13.4713 20
786 1 2.04989 -12.832 -6.99768 14
787 1 10.5009 7.67891 15.1748 23
788 1 2.37707 -11.5823 11.411 10
789 1 5.40771 13.2997 18.1267 15
790 1 10.1012 -1.17591 -13.6653 9
791 1 7.1955 -9.67907 0.104566 17
792 1 5.60697 -1.63583 -9.34112 16
793 1 -15.0154 -0.534226 -6.31448 14
794 1 -11.9344 10.5778 -3.61358 19
795 1 -4.35828 9.58784 14.9309 17
796 1 14.0466 -6.27567 6.63521 7
797 1 -8.665 -5.35928 4.04038 21
798 1 13.5955 3.13358 -0.889652 21
799 1 -0.238148 11.498 -7.63242 20
800 1 12.0874 15.4019 6.34013 16
801 1 -4.22236 13.315 9.60246 23
802 1 -14.1848 -5.82989 7.09329 13
803 1 9.07519 -11.4101 -1.68431 15
804 2 -14.4577 2.5207 -4.47194 15
805 2 -9.21355 10.2251 2.3183 20
806 2 0.0607281 2.96078 -13.7844 15
807 2 -3.61777 11.1245 15.7308 16
808 2 6.25148 -14.6474 -3.22005 9
809 2 -13.6484 -8.0941 -4.76268 14
810 2 1.86308 5.77699 19.6658 13
811 2 8.25575 4.18362 20.6987 12
812 2 -15.2928 -5.85025 -1.01327 17
813 2 -12.7403 5.8588 -1.84699 18
814 2 2.74167 13.3773 4.36283 23
815 2 -12.0273 2.25288 2.61984 20
816 2 1.86592 16.3019 -6.38308 16
817 2 10.1964 6.06272 4.21243 23
818 2 0.21158 13.308 -3.95041 20
819 2 5.35145 16.0597 -1.96277 23
820 2 -13.9778 -3.40146 -9.45843 11
821 2 -15.3039 -5.14677 -6.78806 12
822 2 1.66308 6.06537 12.515 21
823 2 11.3775 -5.04208 -11.7728 9
824 2 1.92984 -14.0553 6.07898 13
825 2 -6.42507 10.4917 1.23608 22
826 2 -15.2547 5.33811 -2.90492 12
827 2 10.4157 5.67867 7.99744 21
828 2 7.55293 -10.0937 -1.62429 14
829 2 -11.9643 -8.00329 -1.2071 20
830 2 -8.95213 -2.83456 7.19766 20
831 2 -9.99502 -8.79514 10.3024 18
832 2 13.977 -4.12168 6.59188 12
833 2 -0.280868 -10.9884 -5.3694 18
834 2 11.5895 -0.0959076 17.3765 10
835 2 10.0226 14.8371 -5.98857 15
836 2 0.0868794 -13.9555 3.99535 17
837 2 -13.5476 -9.92767 0.349238 13
838 2 1.49772 5.76065 15.8054 19
839 2 -8.35494 7.65456 1.4184 24
840 2 -0.180324 7.71471 19.5614 9
841 2 -13.4901 13.0608 -1.58139 11
842 2 8.71091 -8.08411 4.36348 19
843 2 3.22462 12.8279 -5.41304 22
844 2 11.0881 12.4951 11.2501 14
845 2 10.9648 16.4324 4.80536 17
846 2 7.10521 -4.20447 -8.97972 16
847 2 -9.85711 9.99702 12.0528 14
848 2 3.36018 3.76738 -12.4552 15
849 2 -3.30789 14.1808 -10.0064 13
850 2 16.7072 10.7371 -1.47257 14
851 2 -8.20645 2.64882 18.2408 8
852 2 -15.6984 4.90999 9.14231 11
853 2 12.2754 -2.72864 -9.76715 12
854 2 -6.48763 -8.18922 14.6111 13
855 2 6.57104 -8.15705 -9.89715 12
856 2 -3.82805 0.812764 -11.0143 21
857 2 -15.069 -5.64531 2.01683 14
858 2 14.79 13.7597 1.39219 11
859 2 -3.735 11.4545 6.16779 22
860 2 -3.34277 -5.22574 -10.3787 19
861 2 -3.00989 13.9741 8.109 20
862 2 8.73506 0.949562 18.9302 14
863 2 1.47289 -4.56713 12.3049 21
864 2 16.5329 0.873356 4.47793 12
865 2 7.17697 17.1379 -6.75292 8
866 2 -11.7669 3.01133 -0.205905 19
867 2 15.313 1.59724 13.4619 10
868 2 9.7818 -6.34169 -5.05476 20
869 2 3.25973 -9.72206 -0.869087 16
870 2 -1.37152 11.5161 10.6735 22
871 2 6.7458 -6.97323 6.20823 18
872 2 12.0516 -1.43774 6.19369 18
873 2 12.1583 16.9041 7.52797 9
874 2 -4.80758 1.04226 14.4559 17
875 2 13.0167 -2.90083 -2.233 15
876 2 -4.20346 11.2742 9.39838 20
877 2 11.2327 2.24799 13.6185 18