ITEM: TIMESTEP
20000
ITEM: NUMBER OF ATOMS
2000
ITEM: BOX BOUNDS pp pp pp
-30.0 30.0
-30.0 30.0
-30.0 30.0
ITEM: ATOMS id type x y z Coordination
1 1 -10.2752 3.50838 -14.0928 12
2 1 -1.78737 -11.6449 -10.1233 22
3 1 3.33241 14.0472 12.5412 13
4 1 9.38402 -6.98273 7.95209 9
5 1 -9.0954 10.5958 0.995213 21
6 1 11.4232 -7.5116 -13.5228 11
7 1 -12.3066 5.53381 -4.48375 19
8 1 -1.71312 -5.06347 14.7284 11
9 1 -4.70678 3.27076 -13.0433 21
10 1 -12.7735 -9.68696 6.49426 11
11 1 14.2172 3.17107 -10.618 15
12 1 -4.08124 4.66635 -5.2467 23
13 1 -2.41142 -12.8332 2.41208 19
14 1 -11.4443 -6.30592 1.4619 19
15 1 0.0990892 6.2573 14.4685 18
16 1 6.32976 -4.34052 3.63233 20
17 1 -2.23258 6.05046 11.8314 20
18 1 10.8883 -2.31845 1.72772 20
19 1 -0.909913 12.1578 -8.63219 22
20 1 0.572269 0.302299 9.72991 20
21 1 -9.10213 0.565746 -15.5737 11
22 1 -12.8708 -2.80095 10.5394 16
23 1 11.6725 1.07802 8.08913 20
24 1 4.43955 10.2556 -10.0634 24
25 1 1.37371 5.22859 -11.9069 21
26 1 8.79105 1.74034 8.70867 19
27 1 -8.97088 -0.425223 1.63438 21
28 1 -13.2713 4.09722 -8.57807 17
29 1 -3.79968 -0.902747 -8.08546 21
30 1 -13.2885 9.37184 9.54925 13
31 1 6.77557 -13.0415 6.64225 9
32 1 -1.87215 -1.03198 6.45507 21
33 1 -0.232467 -15.0807 -9.83537 14
34 1 5.6847 -9.46361 -5.19458 21
35 1 -6.96192 -11.0967 -1.78193 20
36 1 -11.4321 -9.07396 9.96034 14
37 1 4.78934 -0.793687 -6.93309 21
38 1 4.91968 -2.06344 -12.9201 19
39 1 9.21045 -10.4809 -12.4816 11
40 1 -3.95183 0.281861 -17.7017 12
41 1 -0.463684 8.49239 12.0792 22
42 1 1.3823 -10.6856 10.0946 12
43 1 1.26289 -6.21829 13.153 12
44 1 -12.6306 2.00428 0.834876 19
45 1 -12.5022 -5.8939 6.95172 16
46 1 -7.34423 2.65228 -1.66488 22
47 1 -1.25319 13.2385 -2.79396 20
48 1 -1.28509 -14.3852 -12.353 12
49 1 3.00824 -3.5954 -10.674 22
50 1 6.01869 -1.84632 -15.8358 17
51 1 -2.40174 -2.54962 12.5674 18
52 1 -11.2542 7.90208 -2.35405 22
53 1 4.22193 10.6081 -13.0311 14
54 1 0.48796 17.2588 6.91283 15
55 1 -11.9614 9.5355 -8.73162 15
56 1 -4.16342 17.4422 -3.05307 13
57 1 2.3603 -9.67577 -1.28008 21
58 1 7.81512 -7.09074 -4.62768 22
59 1 6.2531 -5.1147 -17.0474 13
60 1 -10.8119 11.621 10.5848 17
61 1 -12.4453 -5.49472 -7.1695 15
62 1 4.51304 -1.68779 3.56483 22
63 1 -8.85167 7.34292 -4.19157 24
64 1 -7.77987 -10.1379 1.41327 21
65 1 -0.723616 14.109 7.94266 19
66 1 -11.3794 6.31263 -7.91117 20
67 1 -7.72797 13.9566 10.5774 13
68 1 1.62937 9.91703 -8.04055 21
69 1 1.94306 3.92898 5.25094 20
70 1 -0.841549 -14.0118 7.9851 14
71 1 1.26861 6.37405 7.29718 18
72 1 5.42516 -16.642 -4.40726 15
73 1 3.34036 11.4086 14.8658 15
74 1 -14.6769 1.1349 -7.6519 14
75 1 -14.4319 7.41004 -7.89832 10
76 1 3.42156 6.91152 11.4948 17
77 1 13.8315 -2.68427 -11.5666 14
78 1 8.63738 -9.04059 2.32746 17
79 1 -15.155 -2.78432 6.31627 14
80 1 -11.6063 -0.979278 3.73115 20
81 1 4.01527 16.5752 4.47999 16
82 1 3.63973 -1.15783 14.7562 17
83 1 -9.20398 -14.151 7.63269 11
84 1 -9.97979 1.97562 -0.588876 21
85 1 9.33551 1.18143 5.4155 20
86 1 7.48766 -1.72382 -1.90942 21
87 1 1.27545 14.1278 5.36982 21
88 1 3.44845 -1.22283 6.81394 20
89 1 -9.21456 -5.60797 2.9305 19
90 1 -6.73209 -7.92878 -9.81025 21
91 1 -12.9167 9.56039 6.05459 17
92 1 -6.13239 17.3776 -6.08808 9
93 1 -3.63734 8.46067 -9.78778 19
94 1 6.66023 1.40483 -3.22177 21
95 1 3.92481 1.94777 -4.79443 21
96 1 7.02845 12.5081 -5.96191 21
97 1 7.44413 -6.16065 -1.9414 19
98 1 4.71786 -7.04067 11.8093 12
99 1 -5.88266 16.1919 -9.20302 11
100 1 -4.44419 15.7017 4.71966 17
101 1 -5.28473 -2.59592 14.2176 12
102 1 -4.09868 8.77326 6.19202 19
103 1 -4.17046 -9.18867 5.85765 19
104 1 13.5695 -7.39394 -8.25145 15
105 1 -12.0456 4.33045 5.70233 21
106 1 -9.85853 -14.1912 4.48411 10
107 1 14.546 -9.5494 -5.57334 8
108 1 4.61055 -0.47018 -10.2107 19
109 1 -7.63352 -3.97467 -13.3988 22
110 1 0.679801 0.968477 6.79682 22
111 1 -1.36903 11.1027 1.47793 22
112 1 -6.09251 8.56611 -11.5711 21
113 1 -4.17767 6.50913 17.425 14
114 1 -0.304132 12.036 -5.58723 19
115 1 -15.1895 11.3685 1.0624 8
116 1 -1.45703 7.74784 2.10367 21
117 1 -4.53388 -5.60299 12.9962 15
118 1 9.63764 0.967011 11.3949 18
119 1 0.828218 -2.98415 -6.93197 20
120 1 4.95026 -6.36181 -9.73021 21
121 1 -5.59851 5.65238 11.0068 25
122 1 5.94163 -0.00326581 16.3423 13
123 1 -8.85523 -5.49562 -4.68489 21
124 1 3.85611 -3.69676 1.55652 21
125 1 -5.49829 -9.24559 -3.70355 21
126 1 8.03112 -13.6606 -0.947758 17
127 1 -4.12296 9.95376 1.80046 21
128 1 3.25799 2.60296 -11.3949 21
129 1 6.44303 15.0435 -0.889227 17
130 1 -3.77322 -13.5102 11.7658 12
131 1 -5.82375 -14.8282 8.84876 12
132 1 -6.10356 5.60377 -3.20328 21
133 1 6.94869 -8.52259 -16.4596 10
134 1 7.57486 9.39546 -5.13155 21
135 1 10.0453 -8.99615 -2.37932 15
136 1 2.03615 -15.7018 6.06892 11
137 1 -10.2828 -5.85398 -2.13725 20
138 1 13.6186 3.2042 7.21268 17
139 1 16.7624 -2.26817 -9.85718 9
140 1 -16.0996 -3.46743 2.46901 12
141 1 9.43843 7.28632 5.59544 21
142 1 15.367 8.14982 5.01467 16
143 1 -6.34938 0.334783 15.9489 14
144 1 4.13389 6.49185 -1.24535 20
145 1 -4.99087 11.8618 11.375 18
146 1 -6.48491 11.5098 -6.21702 22
147 1 -1.30932 -6.75803 -13.8669 18
148 1 9.44961 -11.4196 -9.82274 13
149 1 0.740128 14.6948 -10.1768 13
150 1 4.22532 1.52634 12.4599 22
151 1 0.725143 -1.1109 -18.5313 13
152 1 -3.58161 7.96324 -6.40478 21
153 1 13.9048 3.28932 -4.024 20
154 1 -13.6563 10.5269 -6.39376 13
155 1 -7.24385 15.9439 -1.48408 12
156 1 8.9856 1.81969 -8.72202 18
157 1 6.87669 -7.97022 -0.179653 18
158 1 -7.33189 3.35368 -7.86992 20
159 1 -7.78256 11.0782 9.20701 22
160 1 13.9408 6.22107 -11.7506 10
161 1 6.98248 15.2963 -3.52345 14
162 1 -2.1454 17.7173 -0.390318 15
163 1 16.282 9.56632 1.69504 12
164 1 -2.81349 13.5367 -5.90992 21
165 1 2.6685 17.0562 -6.78165 13
166 1 2.24596 8.9578 -15.4172 13
167 1 -12.6674 -12.2745 4.12179 7
168 1 -14.6652 6.54402 -2.16373 15
169 1 -4.44224 -0.0739399 -15.0036 21
170 1 3.31895 -11.2592 -13.7418 17
171 1 8.00678 13.5973 9.54828 11
172 1 0.840812 16.6007 3.90492 18
173 1 -14.2543 -2.48995 -2.79941 15
174 1 -8.05432 11.7538 5.88607 19
175 1 17.0901 -0.535992 -7.18095 13
176 1 -12.2637 0.70339 -13.9494 12
177 1 1.78431 1.36846 14.187 21
178 1 8.4969 14.6613 1.8413 14
179 1 -2.52664 9.45699 10.0056 22
180 1 1.14765 -7.22422 -16.3735 14
181 1 -3.26356 14.2366 6.60692 19
182 1 -1.10948 8.61721 -7.95289 22
183 1 -0.0472823 -4.03637 12.2057 20
184 1 -13.1143 -3.32688 1.82117 19
185 1 -2.28884 -12.4052 -15.0923 10
186 1 -8.237 13.3916 -8.99361 14
187 1 0.800014 -13.2919 3.65016 19
188 1 0.944882 -13.6061 -5.12151 21
189 1 -4.63796 13.7397 -11.4911 12
190 1 -15.3535 1.92376 9.2446 11
191 1 0.880125 7.32036 -2.61374 16
192 1 9.26796 11.5873 -8.15852 10
193 1 -10.2137 8.05451 15.1774 13
194 1 -1.80583 -6.95312 11.8145 18
195 1 -7.38046 2.48067 1.26286 22
196 1 6.09103 16.6323 2.21449 13
197 1 2.66039 11.4701 11.2234 21
198 1 10.0609 4.01089 10.8373 20
199 1 -4.08971 18.086 2.47279 10
200 1 13.0506 -5.99741 -10.9995 15
201 1 -4.68102 14.4732 9.29548 14
202 1 -7.33468 6.11143 -9.42079 23
203 1 12.5554 -5.69564 -1.05991 15
204 1 -3.75453 -4.27214 2.91432 22
205 1 -14.183 0.695836 6.70325 19
206 1 -7.11603 -6.4505 1.86258 18
207 1 6.31963 1.48203 9.99915 23
208 1 -15.0249 0.713304 -1.46842 15
209 1 -5.50437 -12.9971 -4.31115 16
210 1 -6.40535 0.012641 -3.7076 21
211 1 4.96658 -6.75872 -6.55634 22
212 1 -3.93678 13.3742 2.93096 24
213 1 -6.47454 -0.408625 3.52224 18
214 1 5.26742 15.7239 10.0237 11
215 1 -9.57649 -0.576655 -4.9945 22
216 1 -3.35599 10.9827 -7.77806 22
217 1 -12.6631 -5.09038 -4.1977 18
218 1 -10.5556 -0.809233 10.5769 19
219 1 -2.73231 -9.45035 3.16444 24
220 1 6.05853 -9.68767 3.43096 20
221 1 -10.6774 10.3326 7.70883 23
222 1 15.2874 1.02425 6.06568 13
223 1 5.56082 4.85274 -6.91551 20
224 1 -6.10126 -7.22582 -13.4979 17
225 1 1.4784 2.50557 11.8715 23
226 1 8.90021 -10.7635 4.81771 12
227 1 -1.93223 5.7903 -9.77965 22
228 1 1.96202 -14.8362 -12.9026 11
229 1 6.15936 2.54624 -12.4514 22
230 1 1.98096 8.90302 -12.2531 20
231 1 -7.85587 -2.79831 -7.96243 22
232 1 -0.517834 15.7853 -7.58289 16
233 1 -7.41706 -12.2479 9.40637 17
234 1 4.2939 16.9975 -3.68639 13
235 1 -10.1313 4.39479 15.5738 11
236 1 -5.98312 14.5839 -5.32609 18
237 1 6.13584 -2.1269 8.74906 23
238 1 -3.01537 -8.44573 -11.4612 20
239 1 -6.74719 11.4032 -12.8785 12
240 1 0.689821 1.86906 -13.2886 24
241 1 -5.27684 -12.1482 6.72299 17
242 1 -8.28669 6.43244 9.11517 21
243 1 -5.88444 8.68943 10.3864 21
244 1 2.96499 -11.3491 -10.1383 20
245 1 -3.9058 -12.6039 -1.29958 18
246 1 8.13594 -11.447 -3.78608 18
247 1 -0.240281 -8.64557 -2.37319 21
248 1 5.33871 8.93554 13.6904 16
249 1 6.50259 10.2983 -7.91405 20
250 1 3.94097 8.99887 -0.612157 18
251 1 -10.2913 2.35827 2.81662 24
252 1 -11.9835 10.9909 -0.865134 17
253 1 -2.10012 10.8701 13.0712 18
254 1 7.09616 -15.4247 1.59048 13
255 1 12.6466 6.33 -2.43667 22
256 1 1.02097 9.56535 6.02864 20
257 1 -9.26335 5.14901 4.49922 20
258 1 -9.86809 -6.53841 -8.28757 18
259 1 4.68346 5.13266 -11.8313 22
260 1 0.555159 -2.4606 8.32337 20
261 1 7.04277 10.9771 -11.663 13
262 1 0.838216 -9.93972 -8.81935 20
263 1 -4.06194 0.208381 -11.5269 21
264 1 4.88203 -15.5169 4.17853 13
265 1 8.57229 -4.38315 -8.94151 17
266 1 -11.727 -3.85566 5.01405 21
267 1 7.50132 -16.5205 -2.11019 10
268 1 -10.3265 -4.09311 -9.76291 18
269 1 5.80663 13.1724 1.17215 22
270 1 3.82898 -4.4251 -15.1619 16
271 1 6.83414 5.93823 14.4103 14
272 1 15.6488 0.342196 1.31359 14
273 1 -6.71552 -5.55623 -2.23078 16
274 1 11.9668 -9.13895 -10.8768 11
275 1 -0.989533 -6.06288 -0.581604 20
276 1 -4.53114 -2.6097 -13.2914 18
277 1 -12.2069 1.10394 -9.20813 21
278 1 -4.51618 -11.2501 13.4498 12
279 1 7.85686 -1.00938 10.9022 20
280 1 1.85144 -6.47918 10.4374 18
281 1 -4.95523 -5.7162 -11.625 15
282 1 1.72877 -7.00018 4.54145 20
283 1 -2.00193 5.31107 -12.9279 21
284 1 4.08673 7.03099 2.48741 22
285 1 -6.176 -3.00772 1.4366 20
286 1 3.33159 10.9611 1.69328 24
287 1 -5.03073 -2.43617 11.0201 24
288 1 -9.29508 -7.09853 -11.2535 16
289 1 -7.21263 -5.0536 -10.0051 20
290 1 -4.09042 5.70772 -15.2404 17
291 1 -8.18165 -8.63737 -6.00218 18
292 1 -2.80418 -9.55588 -1.83275 22
293 1 10.3396 -1.49313 -13.1213 17
294 1 15.1676 -0.0768572 -10.0062 14
295 1 7.52801 3.67931 1.90264 21
296 1 -4.35754 -3.91706 -3.72301 23
297 1 -10.6359 -3.32515 8.87926 17
298 1 -1.66586 -11.1297 0.227576 18
299 1 7.32797 1.32872 13.4411 21
300 1 -6.42186 -15.3251 2.42455 9
301 1 3.43089 -11.85 -0.884325 17
302 1 1.20236 17.9311 -3.84739 13
303 1 7.09542 -0.169766 -11.9126 21
304 1 -6.45014 -5.37965 -16.3108 14
305 1 10.0997 -6.46627 -3.00594 20
306 1 -10.177 -11.1662 8.72222 15
307 1 1.52307 4.07291 15.7214 19
308 1 3.29092 -11.559 -6.6314 19
309 1 -3.87427 -11.9008 -12.3053 18
310 1 -9.8819 7.61537 -10.0844 17
311 1 7.22766 3.49628 5.35895 20
312 1 -5.28595 2.56724 -16.2679 16
313 1 -3.0976 8.39632 -13.1744 18
314 1 -6.44163 -4.4569 8.04901 22
315 1 7.90215 -13.6526 -10.9465 10
316 1 -7.11892 16.5011 2.28051 10
317 1 4.195 13.4413 6.51007 22
318 1 9.45302 0.589561 1.98826 22
319 1 -13.8379 1.7497 3.68225 21
320 1 -4.13629 -5.25195 9.72045 19
321 1 -4.61465 12.0053 5.29578 20
322 1 2.94124 -5.76485 -12.689 17
323 1 15.2407 9.96773 -1.71431 13
324 1 1.83249 -6.46751 -2.43859 21
325 1 2.35132 -1.28868 11.6256 21
326 1 -14.7092 -5.18591 4.99897 15
327 1 2.86647 -15.0455 -2.78201 17
328 1 -10.4932 11.1434 14.0913 10
329 1 -12.4225 9.12234 12.8314 13
330 1 -11.8319 -5.72012 9.89911 16
331 1 -10.4259 -7.94717 7.00652 20
332 1 16.1464 -0.886045 -4.34523 17
333 1 -7.54704 -9.94625 6.70603 19
334 1 8.33262 -2.81733 -11.9612 20
335 1 11.8478 -10.2746 -4.42714 12
336 1 4.61899 17.7404 -0.813701 13
337 1 -1.18829 -7.86393 5.61079 18
338 1 -7.86576 13.3279 -3.54352 16
339 1 -2.22749 1.25785 8.23966 22
340 1 3.71295 6.33646 15.2154 21
341 1 -12.4186 4.41879 2.4573 20
342 1 9.08558 -14.0881 -4.19487 13
343 1 -3.22158 10.4222 -4.6307 20
344 1 -7.34142 7.9664 1.79652 23
345 1 6.9595 -8.97277 6.69703 16
346 1 13.35 -5.37311 1.93706 13
347 1 -4.68976 6.9162 8.00558 20
348 1 -6.70205 0.0759081 -6.54266 20
349 1 -3.7712 2.48254 16.3292 17
350 1 -1.203 19.587 -2.00549 9
351 1 10.0053 3.55583 14.1736 16
352 1 -8.52925 14.4831 -6.64759 12
353 1 -0.759456 -5.35328 -16.7385 19
354 1 -7.19964 3.14795 -4.78378 24
355 1 8.3295 -8.19392 -13.842 15
356 1 -10.3226 3.27016 10.8716 19
357 1 -16.3304 3.85258 2.91485 14
358 1 -2.3481 -3.77742 -8.83829 18
359 1 -6.76648 10.7839 2.99461 21
360 1 3.15689 -3.14937 9.65873 21
361 1 -9.31129 -7.65706 0.480087 20
362 1 7.529 -7.36741 4.5525 17
363 1 -6.97381 -12.6362 12.6317 10
364 1 -13.9784 7.94336 0.302273 19
365 1 -3.04005 -3.5098 7.24285 22
366 1 5.66779 -12.8078 -9.24293 21
367 1 -4.8699 -2.905 -10.2244 20
368 1 5.88132 3.54407 -15.7417 15
369 1 8.42104 10.1399 5.4919 21
370 1 -11.9235 -0.0341316 -2.5295 22
371 1 6.16779 -10.5654 -14.5271 12
372 1 7.41693 5.90251 -14.0607 17
373 1 -2.71608 -15.1421 -5.36217 14
374 1 -13.9295 -3.16733 -6.08571 15
375 1 -3.69637 -6.75258 -2.48279 21
376 1 8.33254 1.74149 16.5624 9
377 1 16.0265 6.33555 2.71586 16
378 1 -8.33088 5.70647 -12.2414 22
379 1 3.31824 18.2973 1.98261 12
380 1 -12.6811 1.81091 -5.4693 21
381 1 -7.2784 7.40255 5.0556 20
382 1 -9.84091 12.9313 2.59594 15
383 1 -4.32073 7.01033 3.3228 19
384 1 12.9521 1.309 13.6856 10
385 1 10.5849 -1.84104 -3.90913 19
386 1 1.9479 -3.20809 14.7713 12
387 1 13.5514 0.636172 -5.73591 21
388 1 -3.59034 -15.3585 -2.58306 9
389 1 -6.62315 9.45943 -0.433831 20
390 1 -2.39291 -9.40658 -7.874 21
391 1 -2.02083 10.2012 4.09611 21
392 1 -9.89703 2.01693 -3.81223 19
393 1 2.53814 -8.60095 -4.81375 21
394 1 9.89426 -4.25598 5.96851 17
395 1 -10.4289 -3.54607 -6.44331 21
396 1 -5.231 -11.0504 4.33197 17
397 1 -4.16637 -8.01502 11.171 21
398 1 -4.80788 12.2283 0.184713 19
399 1 -8.49944 -8.17043 -2.72247 21
400 1 1.33558 10.1907 17.886 10
401 1 -8.41515 7.56945 -0.881006 18
402 1 1.94993 14.0159 -7.23217 20
403 1 11.4138 11.9387 5.34007 14
404 1 -10.7224 -7.59059 -5.25465 18
405 1 -0.817203 -7.69711 -9.39425 18
406 1 -9.75877 0.0630151 5.82938 20
407 1 -11.6633 11.8029 -4.14346 14
408 1 3.55679 -9.77199 5.4269 20
409 1 -4.6676 -12.4664 -7.47284 15
410 1 12.0235 2.00567 4.45798 19
411 1 5.90162 7.33345 -9.33412 20
412 1 -11.9294 2.60292 -11.8056 17
413 1 -2.49566 14.4386 -9.34125 18
414 1 -5.84057 11.5054 -3.27513 19
415 1 3.47681 -14.1127 1.39758 19
416 1 10.3759 4.17461 4.06428 20
417 1 -0.550883 7.7733 -11.1553 24
418 1 -5.3702 2.00486 10.1894 21
419 1 -15.0127 3.94233 6.2539 14
420 1 -6.71394 4.28806 7.04384 21
421 1 -1.93014 -11.5084 5.5622 19
422 1 0.262218 -6.41019 -11.6787 19
423 1 4.67723 -13.2399 -12.2412 16
424 1 -1.236 -3.40654 4.6304 21
425 1 -13.1276 3.55562 8.38326 18
426 1 -15.0889 -1.38449 8.9385 13
427 1 -13.2151 12.3233 4.01764 11
428 1 -0.0670112 -5.43078 6.12072 20
429 1 -7.59859 2.75027 -14.3931 16
430 1 8.8251 -9.67479 -6.57359 21
431 1 -0.852346 -9.67309 -11.6974 20
432 1 -4.80753 -0.87194 8.1794 23
433 1 1.77011 -6.76765 -8.17175 20
434 1 -6.96492 -1.04766 -15.3453 16
435 1 8.71508 -10.7352 0.284336 13
436 1 2.13673 12.2644 -2.91029 22
437 1 -13.0027 11.8981 7.67603 10
438 1 -6.02624 0.251713 12.9369 21
439 1 -10.4167 -4.86849 -12.9452 12
440 1 -7.07871 -5.44071 10.8063 23
441 1 8.95812 -3.86343 9.26764 15
442 1 4.73262 3.79156 0.401356 24
443 1 -6.22458 5.28289 -0.091389 23
444 1 6.60182 1.39514 -6.53877 21
445 1 10.8028 -6.61791 3.79335 11
446 1 15.892 7.15987 -3.76909 12
447 1 -7.49648 3.47387 13.7934 18
448 1 6.02992 9.24672 1.17862 23
449 1 3.91472 -6.82764 -0.566451 23
450 1 1.98623 -16.8095 -5.19342 12
451 1 -5.38161 5.99212 13.8145 15
452 1 -2.19584 17.5764 5.28827 14
453 1 -9.52874 -11.1645 -7.83185 9
454 1 12.7048 12.2104 -1.62811 12
455 1 0.96022 8.68061 9.55411 21
456 1 -9.59428 3.45407 7.28963 22
457 1 -3.33221 -6.66577 -5.60999 18
458 1 -13.0607 3.57528 11.5155 13
459 1 -6.87537 -5.64628 -7.26731 18
460 1 -1.49783 15.9692 2.79383 18
461 1 -6.6256 -12.4632 -9.86589 12
462 1 -3.69816 -6.92965 -15.6993 16
463 1 -7.76031 -11.5199 3.90032 16
464 1 -8.84226 -2.58399 3.73033 20
465 1 3.50775 1.64892 8.63615 20
466 1 -6.559 -9.18842 12.4159 16
467 1 -11.4378 6.13515 -11.768 14
468 1 7.62655 3.80305 -1.26494 21
469 1 -10.0114 -12.021 -1.10371 10
470 1 0.973284 6.56917 -7.69078 18
471 1 2.16138 19.5111 -1.30587 9
472 1 -1.53431 5.64332 -6.46972 22
473 1 -2.33037 13.7647 10.3091 15
474 1 -15.2401 -0.435366 -4.42113 12
475 1 -2.14222 13.5365 0.186426 18
476 1 6.3598 13.1511 -8.7791 17
477 1 -5.433 -8.55905 -6.88774 21
478 1 -1.48383 3.21845 13.7309 21
479 1 1.59283 -16.6233 -8.10775 13
480 1 -2.14268 -3.54265 -12.0198 18
481 1 6.04383 -9.80364 -1.86612 19
482 1 -10.7448 13.1378 5.6137 13
483 1 -0.774327 1.49395 16.4456 16
484 1 7.77635 6.47706 -3.26288 23
485 1 1.17241 9.54829 3.13138 22
486 1 -9.00718 10.4364 -10.7897 14
487 1 5.59564 2.70467 -9.29676 20
488 1 2.04995 -5.88248 1.49959 20
489 1 -15.8903 -4.47279 -0.608752 12
490 1 6.24944 14.028 4.11086 20
491 1 -8.93312 -3.107 -16.2329 12
492 1 10.5509 4.75142 -2.90876 21
493 1 4.13438 15.4747 -9.44948 13
494 1 6.68375 -3.90422 -3.52984 21
495 1 16.1389 4.66539 -2.60368 16
496 1 0.629306 1.36903 -9.89892 21
497 1 1.29912 -11.5407 1.3003 20
498 1 1.13792 -11.2311 6.1108 18
499 1 6.69036 -8.668 9.86179 10
500 1 -10.2818 4.10119 -9.74726 21
501 1 -12.2325 -12.9869 6.65521 10
502 1 5.8033 -8.02756 -12.6134 15
503 1 8.85873 12.2599 3.23524 21
504 1 -2.66651 3.59852 -17.9108 10
505 1 -0.29807 -1.25611 14.9516 16
506 1 -13.3695 0.562684 10.9493 17
507 1 1.71044 -16.2921 -0.187445 9
508 1 -14.3642 -1.64756 -0.216897 18
509 1 14.7042 -4.2468 -8.70198 15
510 1 13.7927 -2.06223 -2.86209 22
511 1 -6.31281 8.95808 -4.75906 20
512 1 2.72011 -8.42193 -11.1262 17
513 1 2.7424 4.52606 -8.25461 20
514 1 11.0014 -3.58315 -10.0821 19
515 1 -3.22193 0.0998228 14.1644 19
516 1 8.54438 11.5923 0.549737 19
517 1 -3.62534 -4.82706 -18.0853 14
518 1 3.40001 3.96835 -17.5602 13
519 1 -9.19398 -4.40136 6.28188 22
520 1 -3.40737 10.3602 -1.37233 22
521 1 -10.1846 -2.01811 -13.9086 15
522 1 -14.3577 -1.54953 3.99818 17
523 1 -1.27805 -9.08819 -16.1082 14
524 1 -4.62472 -10.5148 9.73625 19
525 1 0.886086 10.9026 -10.5012 19
526 1 14.4067 -0.0436939 8.8512 10
527 1 13.1594 9.66279 -3.81553 18
528 1 -10.5813 -10.5138 2.06713 15
529 1 2.5153 -5.57083 -5.58958 19
530 1 -0.881903 -3.89605 -19.5663 11
531 1 -9.27833 8.96353 10.8438 20
532 1 4.06425 -2.98247 -5.16368 20
533 1 1.59171 7.70413 0.575697 21
534 1 10.8143 -1.26072 -1.14116 19
535 1 4.31087 13.0761 -4.40619 22
536 1 3.76206 -3.90167 -2.04272 24
537 1 11.8044 1.64766 -8.57414 20
538 1 -1.46097 7.97487 18.3752 15
539 1 -11.6739 1.7044 5.70698 21
540 1 2.44691 14.9396 8.61794 21
541 1 5.95137 -3.23541 14.6187 13
542 1 -2.11716 -2.12603 -17.2165 19
543 1 -4.60138 -3.69964 -6.61393 21
544 1 -1.47624 3.08885 10.3713 20
545 1 10.2542 11.8309 8.13422 14
546 1 7.79021 4.84403 -10.819 18
547 1 -8.74259 8.40054 -7.18482 20
548 1 0.355265 15.7531 -1.41194 21
549 1 10.9031 -1.41843 10.1888 17
550 1 10.3718 1.31393 -12.2925 18
551 1 15.8961 -6.179 -6.19536 12
552 1 10.2429 8.57201 10.6494 10
553 1 -14.5938 -6.04919 1.37321 14
554 1 -6.23311 11.2163 -9.70861 19
555 1 -5.13248 1.68852 6.681 25
556 1 -11.3138 -1.51938 13.5164 13
557 1 -4.84019 13.6283 -8.25241 19
558 1 3.84543 -14.7007 -6.76619 21
559 1 10.2663 -0.309047 -6.95755 19
560 1 -3.69634 16.5305 -6.75503 16
561 1 -8.91976 -6.19773 -14.9693 11
562 1 4.04366 -13.3419 6.5483 15
563 1 -12.3452 -3.86796 -0.938598 20
564 1 -0.385579 10.3086 -13.6853 16
565 1 -9.41241 4.93007 -2.27002 20
566 1 -1.61228 11.1408 16.2895 15
567 1 -9.03146 -5.70874 8.76966 23
568 1 6.53222 6.40199 0.183575 23
569 1 3.63444 -9.31083 -16.2786 11
570 1 3.85606 -4.10473 12.8331 20
571 1 10.7588 3.4445 -10.6762 19
572 1 -11.0365 8.28934 1.27865 19
573 1 4.26299 5.00886 17.5524 12
574 1 1.24687 14.7917 -4.66422 21
575 1 10.5161 -7.35254 -8.35325 20
576 1 2.07526 8.70587 13.4663 19
577 1 3.01139 3.42394 -14.3811 20
578 1 -0.26855 -13.2411 10.7552 14
579 1 -4.86068 3.04951 -9.75713 19
580 1 5.19991 0.857166 -17.6788 11
581 1 3.45247 13.981 3.30594 21
582 1 7.37233 -1.00785 -8.51496 18
583 1 -1.45719 -0.839745 -13.3368 22
584 1 -2.71887 -9.62213 -4.70576 19
585 1 -8.01647 -2.1016 -10.7416 19
586 1 12.2543 0.699238 -2.53368 20
587 1 15.3723 4.38805 -5.98219 14
588 1 3.45888 -4.10195 -7.87633 18
589 1 9.20372 6.33943 8.79573 20
590 1 5.45961 -9.67943 -8.35442 18
591 1 1.42981 6.71511 -17.1297 10
592 1 8.53619 8.56443 2.21171 19
593 1 -7.71056 2.02472 4.8934 22
594 1 12.9228 4.72259 12.466 9
595 1 10.7138 6.30249 -5.58531 20
596 1 16.4376 -1.99093 -0.385521 10
597 1 8.87848 3.46525 -13.8385 14
598 1 7.3555 4.15144 8.51775 18
599 1 12.5899 2.52895 10.4782 15
600 1 4.34141 -3.84637 6.50365 24
601 1 13.5824 8.42307 2.64961 23
602 1 4.73592 4.84672 3.72303 21
603 1 3.69673 4.34444 13.2913 20
604 1 16.8944 1.79689 -4.76218 16
605 1 6.08077 0.59984 6.84034 20
606 1 -10.5521 2.50926 -6.99257 22
607 1 11.9804 2.92113 1.68337 22
608 1 9.47259 -3.95225 -1.00646 19
609 1 -1.0246 -5.39645 -3.90305 23
610 1 -11.7213 6.67663 10.7075 15
611 1 7.86921 8.84526 12.6665 12
612 1 9.03108 -1.15679 7.29304 20
613 1 2.34471 11.3855 8.17228 18
614 1 0.680133 17.7154 9.36626 10
615 1 3.97758 1.58383 5.01317 20
616 1 1.80006 -16.6266 3.42269 10
617 1 -9.35957 10.3887 -2.55208 21
618 1 12.5591 10.168 -7.23736 10
619 1 10.0396 -0.715873 -10.2912 21
620 1 0.909388 10.8135 -0.106404 19
621 1 -1.90297 -12.0613 -6.93582 16
622 1 8.41906 -6.22931 -10.9134 17
623 1 -14.8855 5.98726 3.69028 14
624 1 -4.90257 5.90313 -11.4091 21
625 1 -3.30119 -15.4966 0.950155 11
626 1 -6.31639 0.391624 -9.58755 24
627 1 -14.7983 3.97138 -0.229866 15
628 1 11.0847 -7.87873 0.597652 15
629 1 14.3665 10.8737 4.17339 14
630 1 1.22815 -8.61177 7.48283 21
631 1 -14.365 -1.30523 -9.18531 11
632 1 2.01936 1.4254 -16.6366 20
633 1 4.42202 -8.42213 8.25688 20
634 1 -4.47588 9.67558 17.708 12
635 1 5.49137 7.96868 -12.215 17
636 1 10.7267 0.516953 16.1429 9
637 1 12.9077 4.08026 -7.5689 22
638 1 13.6775 11.1188 0.941051 15
639 1 2.98612 -14.4064 -9.92803 21
640 1 -7.933 -2.29256 12.4436 19
641 1 12.6759 -3.94433 4.36521 16
642 1 0.325566 14.4668 11.1434 13
643 1 5.18423 13.4753 -12.2128 11
644 1 -8.94954 11.0874 -5.34464 20
645 1 11.564 8.647 4.73703 24
646 1 -9.05588 -13.5019 1.50871 13
647 1 13.513 -2.62561 0.486556 20
648 1 11.2811 13.386 0.898328 12
649 1 -3.88283 8.25631 12.6218 20
650 1 -9.36663 -3.52563 0.270355 20
651 1 -9.44718 -0.849144 -8.22655 20
652 1 11.228 -1.33826 13.6545 10
653 1 -3.41399 -7.97152 14.0419 12
654 1 9.95431 6.23574 13.3447 13
655 1 -4.34815 14.349 -2.42344 21
656 1 6.23714 8.15677 4.17306 21
657 1 6.36822 -4.45866 0.198543 22
658 1 4.42823 4.40039 6.75462 22
659 1 -1.87545 -3.98638 -14.7608 20
660 1 -7.61014 0.917263 8.10882 21
661 1 7.55878 0.539408 -14.8521 18
662 1 -0.949461 -5.39588 -7.25267 20
663 1 11.5565 -10.0142 -7.50292 15
664 1 4.06816 8.53544 8.56967 19
665 1 3.55653 7.66276 5.74708 17
666 1 -9.11878 0.990353 14.6046 16
667 1 10.9951 8.58381 7.76782 17
668 1 -0.673987 0.420439 12.2539 24
669 1 -1.779 8.36975 15.2615 20
670 1 0.773586 -3.76576 -13.412 23
671 1 -7.55704 3.90991 10.1034 20
672 1 7.08116 4.13388 12.6106 17
673 1 -6.77818 -15.053 5.84166 13
674 1 15.6814 7.41482 -0.444919 16
675 1 4.77685 -17.3286 -7.69638 11
676 1 -4.60597 4.87814 -8.01692 21
677 1 10.1837 11.1153 -5.53412 15
678 1 10.9678 10.4062 1.90971 19
679 1 1.16489 -1.30307 -15.1421 18
680 1 -2.15955 -2.30535 9.73177 22
681 1 4.29554 11.598 -1.38709 21
682 1 13.3053 5.19737 3.56918 22
683 1 -6.12848 -8.37091 -0.66864 21
684 1 -0.874273 0.767904 -16.6087 19
685 1 -9.51552 13.2014 -0.839664 13
686 1 5.71461 -3.28008 -10.1528 20
687 1 7.83937 6.10273 3.75232 23
688 1 11.5868 8.52965 -11.1655 9
689 1 12.4687 9.13695 -0.825234 23
690 1 -3.91927 4.27687 5.33518 19
691 1 -7.29163 14.005 1.07976 17
692 1 6.58582 9.003 -1.9175 21
693 1 8.44602 -1.68413 16.0272 12
694 1 8.80273 -2.73649 12.8796 14
695 1 -1.81312 -10.4529 11.5659 16
696 1 -5.84652 8.49888 -14.4769 13
697 1 3.73269 17.6267 7.49835 11
698 1 9.3443 -6.07173 -15.657 12
699 1 1.66961 3.56943 8.8717 18
700 1 4.92747 15.1296 -6.48435 18
701 1 5.53845 10.2626 7.00441 21
702 1 14.3253 -2.7551 -6.21947 20
703 1 4.07623 8.65084 16.8488 13
704 1 -15.119 -4.8323 8.73614 10
705 1 6.29024 -11.9058 0.922871 22
706 1 -1.18778 -1.06962 -10.2841 23
707 1 -7.23591 13.9565 4.25681 18
708 1 -1.11367 4.42139 7.05052 19
709 1 9.6167 1.40671 -4.19502 20
710 1 3.00986 11.2029 5.08311 20
711 1 -12.2224 -1.54521 7.12761 21
712 1 -6.29754 4.01664 16.1714 12
713 1 -7.23842 5.60904 -14.9866 15
714 1 -8.67951 8.22233 -13.4281 14
715 1 6.21336 -12.3254 -6.21241 23
716 1 8.71268 7.96347 -11.2086 14
717 1 4.55975 -6.6947 5.65901 21
718 1 -4.39813 7.32511 0.226691 20
719 1 -11.9709 5.62918 13.4102 12
720 1 8.93927 -2.9597 -15.4758 12
721 1 4.46353 -11.5797 9.2223 10
722 1 1.51299 13.2155 0.0753615 22
723 1 -6.61636 7.59863 15.666 14
724 1 -6.63493 -9.74866 -12.2405 17
725 1 -4.58693 -9.98419 -14.9827 11
726 1 -3.46255 -14.489 -9.80986 13
727 1 -0.813583 10.4149 -2.90961 21
728 1 6.61805 -3.61853 -6.79282 20
729 1 -4.5433 11.3049 8.21605 25
730 1 6.61365 -10.8081 -11.6172 19
731 1 9.28534 -12.929 2.20373 12
732 1 2.47504 -5.79247 7.94875 22
733 1 15.2353 5.39399 -8.7596 16
734 1 1.22874 -12.9014 -7.94222 17
735 1 -10.0029 -4.10695 12.0105 18
736 1 1.80375 -1.29831 -8.60082 22
737 1 0.178272 -12.3504 -1.44713 18
738 1 -7.26071 -11.1417 -5.36392 14
739 1 -11.1574 1.35314 8.5902 18
740 1 -6.81663 -13.3719 -0.696263 16
741 1 13.5938 7.03573 -5.95529 16
742 1 1.72526 15.8586 1.20462 20
743 1 -6.31177 4.87451 3.41866 22
744 1 -12.3527 7.52337 4.14084 20
745 1 9.67792 1.88967 -0.970201 21
746 1 -12.3484 -2.20649 -11.7451 13
747 1 -0.949193 8.0902 -4.85902 21
748 1 12.5736 -1.42834 -8.41799 20
749 1 6.02268 10.4099 10.7906 18
750 1 7.22946 7.01408 -6.63873 19
751 1 -14.9748 4.36724 -6.09684 13
752 1 -14.8206 -6.9964 -5.67106 6
753 1 -1.65066 5.28579 16.5289 18
754 1 3.9779 11.8096 -7.30172 22
755 1 13.6514 10.2643 7.23733 14
756 1 -4.00941 4.26601 8.71024 21
757 1 -0.176979 -14.3907 0.714838 19
758 1 -3.2565 -15.6985 6.5894 10
759 1 -3.74144 -5.91018 6.19267 21
760 1 12.1388 5.65585 9.21593 15
761 1 6.14829 -5.1662 -12.579 18
762 1 -12.4983 10.7697 2.21874 18
763 1 10.8102 7.05359 2.27411 21
764 1 -7.50187 -7.19177 5.80454 21
765 1 10.6052 5.6983 -12.5625 15
766 1 -0.35669 -15.3072 -2.88697 13
767 1 3.78236 -11.6025 3.35633 19
768 1 0.641551 -10.7899 -4.63388 20
769 1 4.01797 7.96465 -7.24684 24
770 1 9.75512 14.0621 -1.62119 14
771 1 -5.73569 -2.39762 -17.5704 13
772 1 -3.95973 2.91077 13.0844 20
773 1 -0.169769 7.01456 -14.3246 17
774 1 -9.92881 0.396744 -11.2709 19
775 1 -10.5388 -3.04947 -3.22921 21
776 1 -1.5587 16.3025 -4.29573 17
777 1 6.56743 1.24873 0.0800075 20
778 1 1.03222 -3.56582 -16.5864 18
779 1 -5.99337 -2.78667 -1.72298 17
780 1 9.7417 8.5082 -8.02441 18
781 1 12.2365 -4.6996 -4.07457 18
782 1 -7.89795 10.0513 16.0987 12
783 1 5.16198 -6.9973 2.39988 19
784 1 15.4212 -4.44535 -2.93904 12
785 1 11.6606 -1.90112 7.38801 17
786 1 -1.78873 7.11864 8.74572 17
787 1 -12.151 1.72132 14.0738 13
788 1 -9.13994 5.84342 12.0222 18
789 1 -2.97121 -15.3606 9.67264 10
790 1 6.48289 0.711713 3.29666 19
791 1 5.59121 12.1122 12.8034 13
792 1 -15.9888 0.406919 1.86979 11
793 1 11.2706 -6.98358 -5.7106 20
794 1 -11.2592 12.777 -7.45481 10
795 1 1.18028 6.775 4.11489 22
796 1 2.42516 -13.8215 9.23504 12
797 1 2.99437 1.8123 16.8677 14
798 1 0.669165 12.9014 2.89669 23
799 1 0.604134 -9.5016 3.96213 23
800 1 -8.86139 -0.635881 -1.70692 22
801 1 1.02412 5.62224 11.3057 18
802 1 -14.7164 -7.78195 -1.67988 7
803 1 1.69566 6.83099 17.5839 17
804 1 5.78809 11.16 4.006 21
805 1 -12.8246 -9.00321 1.51324 12
806 1 -0.994429 -14.978 4.06308 14
807 1 7.16372 -1.92302 5.32804 19
808 1 6.84346 -5.07024 7.0659 22
809 1 8.08604 9.8314 9.05811 21
810 1 -3.30359 7.50705 -2.96421 20
811 1 0.852354 -12.0043 -12.0902 20
812 1 -1.93356 2.24653 -11.6695 20
813 1 -3.26824 0.227336 10.8028 21
814 1 0.448693 18.5551 1.16163 14
815 1 13.6465 -0.910103 3.4369 22
816 1 2.00655 9.51244 -4.84094 17
817 1 -4.45164 9.92568 14.852 15
818 1 5.00763 12.3345 9.37917 22
819 1 10.7944 -4.64477 -12.8471 14
820 1 -4.83989 -10.6031 1.05796 20
821 1 -4.56776 2.04531 -6.59735 24
822 1 15.6686 -3.29594 3.03926 11
823 1 0.460542 -4.05278 -10.0977 24
824 1 -0.428867 11.3833 9.89143 19
825 1 8.87618 -12.7188 -7.12521 13
826 1 4.19104 6.38059 -14.7771 14
827 1 -0.339951 -7.95136 -5.78285 20
828 1 12.6882 3.52286 -13.3075 12
829 1 15.2357 1.1287 -1.78618 20
830 1 -0.703903 -5.12557 9.4398 21
831 1 -4.54161 -10.4465 -9.92814 19
832 1 10.0067 10.9479 -2.44873 19
833 1 -1.09781 -6.237 2.72669 21
834 1 -15.4772 8.93826 3.07365 11
835 1 9.34559 5.06049 -7.62083 19
836 1 14.644 2.78459 3.30043 16
837 1 4.03409 -7.00304 -18.0946 10
838 1 -7.32278 9.09358 7.46612 22
839 1 15.9547 4.69311 5.56 11
840 1 10.3058 8.39269 -3.32788 18
841 1 1.61386 -1.22983 -12.0178 22
842 1 7.39501 -1.91278 1.72016 24
843 1 -13.4437 3.0722 -2.99797 18
844 1 10.2358 4.79231 0.364072 20
845 1 -11.3656 -9.08159 -1.61399 14
846 1 -11.3674 8.63265 -5.46612 22
847 1 4.53111 3.9245 10.3111 20
848 1 -12.362 -0.660496 -6.77779 19
849 1 -10.089 7.11527 6.54681 21
850 1 -1.95052 2.06517 -8.29895 20
851 1 7.60572 -7.2025 -7.55516 18
852 1 -11.6735 -8.51608 -8.60901 10
853 1 12.9919 -7.80507 -2.79896 14
854 1 -11.9965 5.14255 -0.476646 20
855 1 -7.32779 -2.71693 -4.79399 23
856 1 6.50756 6.75698 6.9334 19
857 1 -5.30415 -7.34937 3.58748 19
858 1 5.35262 2.85487 15.0634 18
859 1 14.5721 -2.13315 6.04461 12
860 1 8.8103 -5.07833 1.37555 18
861 1 -9.18738 5.52164 1.5503 21
862 1 0.181657 12.072 13.027 16
863 1 2.72335 7.24554 -10.1746 22
864 1 1.30664 -8.84513 -13.9068 19
865 1 -6.61305 13.8433 7.50164 20
866 1 -6.19861 -7.53174 8.20484 21
867 1 3.5565 14.6131 -1.71697 22
868 1 0.704551 10.0874 15.3598 18
869 1 17.5679 -3.66166 -5.84929 10
870 1 5.11648 -5.29777 9.56183 20
871 1 -1.01277 12.8074 -12.1571 15
872 1 1.99355 12.4294 -13.8447 11