ITEM: TIMESTEP
20000
ITEM: NUMBER OF ATOMS
2000
ITEM: BOX BOUNDS pp pp pp
-30.0 30.0
-30.0 30.0
-30.0 30.0
ITEM: ATOMS id type x y z Coordination
1 1 -10.595 4.51147 -14.587 12
2 1 -2.69198 -10.2222 -9.83891 18
3 1 3.18152 11.475 13.1154 16
4 1 8.67119 -13.9813 5.49967 10
5 1 -11.5278 7.55093 -3.35578 19
6 1 12.7767 -10.4788 -9.06603 8
7 1 -9.61254 0.13448 -6.04887 21
8 1 1.09714 -10.08 10.7027 13
9 1 -10.0422 1.24819 -12.5741 19
10 1 -14.0 -9.08665 4.70482 14
11 1 11.7016 -0.535966 -4.9162 20
12 1 -3.3365 -15.3268 1.01815 20
13 1 -13.9114 -9.23652 2.08818 13
14 1 -0.492908 2.73605 18.1063 16
15 1 -0.45968 9.17667 -9.47021 20
16 1 1.54725 0.657958 14.344 22
17 1 -10.4375 -0.971195 -14.2293 13
18 1 -11.3177 -3.63172 11.0136 20
19 1 8.96838 5.71294 8.82763 18
20 1 -0.665578 7.85188 -13.1208 20
21 1 1.91808 5.64821 -12.0833 22
22 1 12.8218 0.590651 8.039 20
23 1 -13.4171 4.57787 -9.16356 11
24 1 -9.38787 8.37227 5.40495 16
25 1 6.25201 -15.3263 6.3182 15
26 1 0.649526 -14.7124 -12.4766 8
27 1 7.02381 -11.5305 1.40269 23
28 1 -7.46052 -14.2881 -6.18949 15
29 1 -13.0948 -4.22396 7.76984 15
30 1 -2.56732 -7.84457 -7.97797 22
31 1 9.77739 -9.67206 -12.9118 12
32 1 -2.47844 5.17662 -17.0992 15
33 1 -0.988934 3.47564 10.6655 25
34 1 -1.2129 -13.8728 7.66839 15
35 1 4.25894 -4.35116 12.9674 19
36 1 -11.902 -2.02283 0.362837 18
37 1 -15.1436 -2.25937 8.52562 13
38 1 -3.27107 11.4616 -2.99341 23
39 1 0.87593 -16.799 -6.63033 17
40 1 5.17029 -3.7712 -11.0987 20
41 1 0.868179 -4.38452 11.0443 24
42 1 -12.5052 5.62628 -1.43653 25
43 1 6.41173 12.4034 -13.2782 6
44 1 1.13015 11.1965 8.13883 21
45 1 -8.80421 9.46781 -8.12623 15
46 1 -0.912364 12.1913 -1.10429 20
47 1 1.75635 -14.1508 3.19453 21
48 1 6.04307 -10.9748 -3.38066 15
49 1 4.06836 -7.68527 -14.3282 14
50 1 -10.688 9.85173 10.5492 9
51 1 -15.6598 -4.8584 -8.58635 8
52 1 -6.61036 7.16912 -4.28796 21
53 1 -9.04251 -11.3138 6.81328 18
54 1 -0.503822 12.6395 13.6437 12
55 1 -12.4262 2.33302 -6.81995 19
56 1 -5.45675 9.33367 13.8499 11
57 1 -4.00493 -16.9903 7.78082 9
58 1 6.37667 -16.1509 -2.87181 16
59 1 8.09352 9.37792 16.9339 13
60 1 -14.8728 1.51154 -8.13764 13
61 1 -11.0687 3.52012 -10.6999 19
62 1 3.63375 6.46722 11.998 21
63 1 11.1201 -2.6535 -9.58641 17
64 1 6.60159 -10.8923 5.09386 21
65 1 -17.3291 -5.4739 4.94893 8
66 1 3.92682 16.0354 10.9379 5
67 1 5.64398 -1.9814 14.2832 21
68 1 -6.27597 -12.6766 8.58498 19
69 1 12.6549 3.74433 7.53258 17
70 1 -1.06248 12.4317 8.32544 22
71 1 -5.50635 -7.83543 -10.158 18
72 1 -11.8375 10.1517 7.87697 10
73 1 -9.47178 9.05263 -1.39581 16
74 1 -3.70671 5.88704 -9.11763 21
75 1 9.44044 10.5422 -9.16756 13
76 1 3.95972 -9.15892 10.88 10
77 1 -6.40814 13.9515 -6.76897 10
78 1 -10.8802 13.3785 3.1892 14
79 1 -7.56708 -6.6406 15.7408 7
80 1 -4.76753 -6.55422 10.8409 16
81 1 7.50062 -9.31247 -1.37162 19
82 1 -12.2365 3.48537 3.75567 16
83 1 -9.17602 -14.5386 2.90998 12
84 1 9.5684 -6.19617 -4.59228 20
85 1 5.64938 0.195826 -10.7346 18
86 1 -7.48906 -3.21648 -15.1923 14
87 1 -1.24451 11.8852 2.08725 22
88 1 -6.02858 6.41691 -10.9176 23
89 1 4.58259 9.63026 17.3042 8
90 1 -0.600086 11.9521 -7.84313 18
91 1 -14.6106 9.86024 0.302039 13
92 1 -2.94574 -8.40193 8.50361 18
93 1 8.4898 -1.98775 12.3218 20
94 1 3.90415 -6.55063 -11.3269 24
95 1 3.56756 -0.946018 18.9249 12
96 1 -8.74461 -11.9447 0.805339 18
97 1 -8.2776 -8.44001 -5.08823 20
98 1 9.70338 -11.5442 3.4128 14
99 1 4.58757 -0.443877 -18.5287 8
100 1 2.14847 16.341 -3.03637 10
101 1 -6.51534 -12.5062 11.5884 12
102 1 -9.43922 -13.4826 11.3486 10
103 1 5.51147 -11.7831 -13.5426 10
104 1 6.87 -8.7728 3.03433 20
105 1 -1.80479 -16.2184 5.37056 16
106 1 -8.5884 -11.5417 3.87638 21
107 1 12.1281 5.54673 10.4618 23
108 1 13.7302 -3.21031 -8.50491 14
109 1 -14.6418 -3.01098 1.90215 17
110 1 10.9633 7.50598 8.09605 20
111 1 13.9364 10.9912 4.45928 12
112 1 -9.27553 -0.685016 16.5381 13
113 1 -3.92135 11.1927 10.1383 23
114 1 -3.80194 11.7583 -6.22425 20
115 1 0.945627 -6.33594 -8.90815 18
116 1 10.565 -11.9165 -11.2207 10
117 1 2.55906 10.4503 -13.2112 11
118 1 7.09659 -5.14362 11.3016 19
119 1 -0.0766997 -6.10654 -17.9354 12
120 1 -3.02915 8.87615 -7.55497 22
121 1 15.8665 2.32513 -5.31528 8
122 1 -12.304 7.68728 -7.57432 11
123 1 -6.41673 12.5767 -1.02739 20
124 1 6.18458 -1.36712 -13.097 22
125 1 7.22145 -8.0281 6.3137 19
126 1 -6.41124 12.2112 9.07217 19
127 1 12.8715 7.74112 -5.20811 13
128 1 7.50597 9.50291 -5.14973 15
129 1 -3.72084 14.9448 -1.64817 15
130 1 15.7544 10.343 -1.32403 9
131 1 -0.492678 12.4742 -4.65824 22
132 1 2.23315 14.1683 -8.15623 14
133 1 4.45123 10.5445 -10.856 16
134 1 -13.0384 -12.186 3.87941 9
135 1 -14.4311 8.27987 -2.764 18
136 1 -6.75789 -4.58586 -11.3012 20
137 1 -0.726928 -12.0932 -14.4347 16
138 1 9.47296 10.616 8.80906 19
139 1 1.52615 13.9329 6.76711 17
140 1 -9.52811 -5.11796 -6.60456 21
141 1 -12.3814 12.5145 -0.0554565 12
142 1 14.7882 -0.726653 -5.78563 17
143 1 -13.485 2.21649 -13.3949 11
144 1 6.42005 0.304395 18.7064 12
145 1 6.94749 18.0811 5.08969 7
146 1 -4.70875 8.30927 9.2012 20
147 1 1.75738 -11.5791 -19.0462 7
148 1 -3.74888 14.339 8.22352 19
149 1 -0.549821 9.30463 -5.74022 22
150 1 4.53959 -4.92789 15.6766 12
151 1 -11.0711 -9.06404 4.67443 21
152 1 2.52188 -17.3342 -9.56235 7
153 1 -5.4856 8.96676 -9.14931 18
154 1 -2.92577 -11.2442 3.7541 20
155 1 4.4215 -17.2546 -4.69677 12
156 1 -2.76877 8.60291 -10.9868 23
157 1 -14.6804 1.14449 9.27693 10
158 1 9.63695 7.68272 -4.13567 15
159 1 -7.14051 1.46917 18.0811 8
160 1 -1.58564 -11.5059 9.35331 16
161 1 2.25335 16.1959 4.80283 10
162 1 -1.75811 6.07915 8.94091 23
163 1 11.3624 4.05885 13.1109 17
164 1 -6.46668 15.5733 7.46474 9
165 1 10.6085 -8.37205 -10.0409 14
166 1 -5.52511 12.7062 12.3332 11
167 1 12.2203 -9.15745 2.46659 12
168 1 -15.7752 0.609337 6.78646 12
169 1 -4.85549 -13.5579 3.22278 19
170 1 4.30538 5.93895 15.3653 19
171 1 -16.1259 0.991854 -1.9129 9
172 1 -2.24887 -15.5707 -4.62508 21
173 1 -4.06202 8.47447 5.57564 21
174 1 6.36773 10.8845 14.2898 16
175 1 -7.92447 12.8228 -4.27874 13
176 1 -13.6572 -7.78892 -9.26975 9
177 1 -9.32007 -2.50123 13.4916 19
178 1 -0.379101 -10.4735 6.55591 18
179 1 4.31619 -12.6793 4.73929 19
180 1 -13.3547 11.1447 2.78756 12
181 1 15.5995 3.28121 8.89137 10
182 1 -7.87242 -10.1281 -10.739 17
183 1 4.19274 0.470368 12.787 22
184 1 6.34858 -16.8578 3.87795 11
185 1 -3.33695 5.56443 -12.7125 22
186 1 2.06111 -9.51067 -13.4746 17
187 1 8.03112 -2.59864 -15.3346 15
188 1 3.2972 5.62445 -16.898 10
189 1 -6.82014 -4.38438 -7.96809 21
190 1 -3.29977 14.1031 -8.04895 14
191 1 -11.6021 -11.1466 9.99382 11
192 1 6.42103 13.4969 -0.231876 16
193 1 -8.97886 1.98175 15.0809 15
194 1 -5.23126 13.431 -3.36227 17
195 1 6.93795 0.47364 10.9901 20
196 1 -3.31793 -7.30368 -14.5943 16
197 1 -5.73198 10.7175 -12.0333 14
198 1 2.10676 5.71933 -8.75206 20
199 1 -6.31569 -9.00703 10.1449 19
200 1 -9.80183 2.79876 5.53444 26
201 1 -7.28432 6.53796 9.03512 20
202 1 -1.02708 -15.7765 -9.38314 13
203 1 -6.23274 -16.2633 -1.60575 14
204 1 8.13737 -12.1045 -1.52947 17
205 1 13.8395 1.80212 14.5475 13
206 1 6.37099 8.76669 -8.1627 18
207 1 -14.0849 11.9208 -3.39188 7
208 1 0.867075 6.3459 10.7548 19
209 1 5.66179 -18.8804 0.83458 11
210 1 10.5508 -1.86752 -2.36055 24
211 1 -10.1949 5.63818 3.87946 19
212 1 -8.38683 -8.17569 -1.29287 19
213 1 6.41518 3.41818 -15.0669 14
214 1 2.07714 -1.7503 12.5647 22
215 1 8.23731 7.85185 -11.2265 15
216 1 -2.95816 -2.29566 -11.0433 21
217 1 2.21538 -18.7773 1.81071 15
218 1 8.42916 -2.47821 -7.33484 19
219 1 -13.1769 0.636328 2.35348 19
220 1 7.01029 -19.2971 -2.65598 8
221 1 -9.68138 -4.24709 -10.0446 22
222 1 3.95884 10.9321 -0.817459 18
223 1 -0.746357 -5.69806 -14.1679 16
224 1 2.62307 2.18678 19.8359 13
225 1 14.1091 3.05628 2.95955 12
226 1 7.72741 -7.49239 -11.6842 14
227 1 -8.70242 -1.56001 -11.2587 22
228 1 -12.349 0.0280028 -8.08994 19
229 1 -6.58251 -15.5146 10.2469 13
230 1 8.24714 2.58077 12.4395 19
231 1 -8.30542 -12.7479 -9.73603 9
232 1 -0.628238 5.55476 -14.4721 25
233 1 0.265671 10.7355 5.04151 20
234 1 -8.33157 -4.56304 11.5378 15
235 1 -8.42379 -7.65179 -8.45085 19
236 1 -8.73677 -7.50281 -11.851 17
237 1 -2.46142 7.74665 -15.3667 17
238 1 -5.50009 -10.0537 -4.8371 21
239 1 7.12037 -6.00752 -15.3167 16
240 1 13.3725 -0.113755 -8.33205 14
241 1 10.7849 2.60772 4.9155 20
242 1 -12.1777 -6.11842 9.89914 16
243 1 -2.67705 -11.4662 0.688821 24
244 1 8.43325 3.12682 18.1209 14
245 1 -4.80341 -17.6652 4.60728 15
246 1 -0.399093 -13.5326 1.01432 23
247 1 -0.863918 15.8723 -2.9026 13
248 1 4.2236 1.38897 -13.8019 21
249 1 -6.38207 -5.73714 -13.2466 20
250 1 -10.5366 -8.15768 12.4695 10
251 1 3.99583 5.91181 19.5631 12
252 1 2.66259 -11.618 -3.36509 19
253 1 -5.22718 -10.4284 -11.7189 17
254 1 -9.14087 3.79453 -7.76549 19
255 1 10.2117 1.45347 7.99925 21
256 1 -5.55691 3.14398 -9.5835 18
257 1 -0.888226 5.95084 -10.5534 23
258 1 7.63464 -12.8154 -7.53169 15
259 1 -7.02925 15.3743 -0.914431 9
260 1 1.79039 8.27034 5.15189 17
261 1 10.0478 -0.383126 5.3986 19
262 1 -9.77971 -0.464419 6.90364 23
263 1 -4.08857 -3.7803 10.9264 18
264 1 -6.36978 8.78306 3.71169 21
265 1 0.945793 -6.98996 -11.8394 18
266 1 10.4636 10.7451 -3.44031 15
267 1 4.43084 -13.4172 1.61065 18
268 1 -5.91016 -4.13043 16.0155 12
269 1 -15.0145 -6.96426 7.66123 11
270 1 -0.308256 -19.0666 -4.65809 10
271 1 -8.08742 7.68375 12.0007 14
272 1 -10.4294 4.80616 13.0542 9
273 1 -14.8968 -2.61563 12.064 11
274 1 -15.8402 -4.87913 9.78711 10
275 1 13.8211 -3.10728 -3.82809 18
276 1 -11.4867 -8.94673 7.33414 17
277 1 5.66416 -2.54242 -8.72638 23
278 1 12.4857 -11.2742 -5.60179 11
279 1 1.27448 14.7521 -0.845809 15
280 1 -8.91106 9.27293 -4.6796 19
281 1 9.52397 5.49668 15.4792 18
282 1 9.74972 -13.4804 0.899835 15
283 1 -3.68236 10.9906 4.09078 23
284 1 6.3464 -12.2545 8.04025 11
285 1 12.7749 -5.96559 4.11531 16
286 1 -1.90914 -0.264291 16.5651 14
287 1 2.82145 12.6049 4.1923 17
288 1 12.1222 4.64677 18.2559 8
289 1 -10.6357 11.2144 -5.52279 9
290 1 -0.733493 -9.3601 -19.8549 6
291 1 7.4355 -12.2575 -11.3726 13
292 1 -10.4645 -0.1833 13.7166 20
293 1 -12.1209 3.23128 0.799722 21
294 1 -6.24275 9.71 0.415112 19
295 1 7.30963 -5.28035 7.64141 20
296 1 -11.0803 -10.6185 1.72068 17
297 1 4.88807 -7.39337 8.10226 19
298 1 -8.84203 -10.5368 11.2655 13
299 1 -14.5644 7.82255 3.24961 11
300 1 2.68443 -12.1517 -6.24069 19
301 1 -5.35203 -2.51109 -9.96192 22
302 1 4.9276 -4.82759 -14.11 20
303 1 6.2825 14.6595 7.0423 14
304 1 -11.2972 -3.06972 -2.84244 18
305 1 2.18981 -3.73956 -12.9217 19
306 1 5.30578 6.60611 -13.9123 16
307 1 -6.29388 -18.2481 -7.05173 9
308 1 -10.2929 -8.88822 -6.25226 15
309 1 12.9226 1.12627 17.8676 7
310 1 10.568 3.80235 1.54653 21
311 1 -8.2937 3.73498 -11.2871 21
312 1 4.69278 15.625 -0.985197 11
313 1 -14.9612 -1.41648 -3.41716 14
314 1 -7.53395 5.52292 5.65723 20
315 1 -11.987 8.83539 0.187318 21
316 1 10.8655 2.19679 15.9517 17
317 1 11.3408 -2.79383 -5.99391 24
318 1 7.24438 -4.60477 14.99 13
319 1 10.7876 2.54643 -6.46946 20
320 1 -6.5906 -18.2955 -3.88406 7
321 1 4.44984 -10.4052 -0.603646 16
322 1 10.039 -5.17572 5.92098 19
323 1 -9.06857 -5.40195 -3.06221 21
324 1 -5.84698 -10.9893 2.27514 21
325 1 -7.11732 -8.17472 12.9765 13
326 1 -3.58066 11.3614 0.465093 20
327 1 -10.6712 -9.28377 -3.55937 14
328 1 10.1927 7.65205 17.9486 9
329 1 -9.02022 5.31817 -2.95237 20
330 1 2.07483 11.1605 -8.9444 17
331 1 7.64185 13.7516 9.15936 16
332 1 -13.5793 -7.84965 -1.13041 10
333 1 -2.7766 -10.6072 -6.46969 20
334 1 -18.4656 -5.8173 7.98685 5
335 1 -13.7174 5.73399 -4.94293 14
336 1 3.51835 -10.3852 6.20443 14
337 1 -2.53807 -13.5312 -1.69638 20
338 1 8.91277 11.4711 12.3705 16
339 1 5.16321 9.53847 -14.5218 13
340 1 -12.5354 5.29616 -12.4617 10
341 1 -3.43127 13.2246 -11.9057 10
342 1 -9.38373 6.19866 -6.40268 19
343 1 -1.04367 -13.3993 4.29587 20
344 1 6.64095 5.98163 7.28249 20
345 1 0.341582 7.74549 -16.6901 13
346 1 -15.0518 2.95456 1.9344 14
347 1 -7.62118 -16.6911 4.83273 13
348 1 6.37638 -7.72466 -8.74855 20
349 1 -13.1885 -0.229187 5.51839 18
350 1 -12.3662 -0.700189 11.4013 16
351 1 -13.5858 5.80506 5.52956 14
352 1 -9.25107 1.44133 -16.1724 9
353 1 8.64968 -10.5545 -4.79532 16
354 1 -3.00492 -12.8533 -11.8861 17
355 1 -3.61038 -2.41209 13.0289 20
356 1 -5.80058 2.55791 -16.7746 15
357 1 2.1707 -15.5214 0.338283 17
358 1 1.8401 11.4241 -5.75643 23
359 1 -12.4048 12.7437 5.59791 9
360 1 -2.38731 -4.23879 15.7511 13
361 1 -11.7219 -6.33851 -11.9497 11
362 1 -6.09398 -8.16096 7.52738 18
363 1 9.94387 -4.57579 9.44064 15
364 1 10.4562 -8.163 4.7254 17
365 1 15.9279 7.02723 -2.7149 8
366 1 -4.18538 2.75573 12.3353 19
367 1 1.44871 11.7565 0.469971 18
368 1 -4.67853 -15.9494 -6.88257 17
369 1 -4.41762 6.13109 16.6948 10
370 1 -1.04437 15.4187 6.03913 14
371 1 -7.67063 -11.3994 -7.07548 18
372 1 10.081 12.3724 -0.609588 16
373 1 3.68178 5.17149 8.87695 20
374 1 -7.03398 0.64134 8.94893 22
375 1 -12.271 1.07362 7.82048 22
376 1 -5.61946 -7.35904 -6.46119 21
377 1 -6.82991 9.29543 7.22091 19
378 1 -0.0499093 -10.5022 -8.27927 18
379 1 -2.43387 -9.72179 -13.1509 18
380 1 -7.38304 -13.7029 5.44252 19
381 1 10.1938 -0.04354 10.5036 23
382 1 1.84519 -4.1522 17.8688 7
383 1 -9.02359 6.17085 -12.4792 15
384 1 11.7165 9.28195 -0.752892 17
385 1 -8.29673 -14.8605 -3.15011 13
386 1 0.575357 13.8861 3.56242 19
387 1 -3.04521 8.47186 11.7849 19
388 1 -14.5696 -2.82405 -1.27029 15
389 1 1.56749 14.4102 -4.81614 20
390 1 4.52744 11.1804 -7.34331 20
391 1 -5.75145 -10.2743 -8.44025 20
392 1 1.10588 0.0943714 17.6666 15
393 1 2.20861 -12.5081 -13.0792 15
394 1 -0.839567 -4.79023 -11.1196 20
395 1 7.15086 -13.9917 3.05419 18
396 1 -11.5117 10.074 4.74769 12
397 1 1.68417 3.28018 16.6567 26
398 1 7.42227 5.5896 -2.23057 21
399 1 -8.29905 8.90876 -11.1143 10
400 1 -15.0487 -5.20879 -3.26796 11
401 1 4.16157 16.4259 7.17768 12
402 1 -3.65902 1.13204 -13.1186 16
403 1 11.3363 8.9696 4.49864 21
404 1 7.93441 13.6738 -8.94843 12
405 1 13.3228 2.74573 -0.676381 16
406 1 -0.644436 0.387427 -11.0953 22
407 1 1.37722 -14.5019 6.06079 15
408 1 3.82517 -12.2657 10.2501 9
409 1 -9.60131 1.17273 -9.35317 22
410 1 -11.5935 -13.8919 8.89198 12
411 1 -5.81727 -14.4445 -11.6837 8
412 1 8.03756 17.1323 7.49987 8
413 1 1.94072 0.375003 -12.7305 20
414 1 2.13769 -2.35644 15.9536 18
415 1 -14.5745 2.96622 6.41112 14
416 1 2.88132 -19.946 -3.25946 9
417 1 -12.0229 -7.14535 2.10731 19
418 1 12.4244 -5.82289 -9.21161 11
419 1 10.9452 -2.34946 0.876467 18
420 1 3.58978 -8.98194 -8.3461 17
421 1 2.71096 3.03799 -10.902 20
422 1 10.2247 -5.43482 -7.70619 20
423 1 -4.71615 -1.36924 16.2659 15
424 1 6.13572 12.969 3.8746 15
425 1 -5.11519 -2.72835 -16.5257 10
426 1 6.0775 -3.21311 -17.4354 11
427 1 -7.27069 -5.75254 8.50453 18
428 1 -4.90558 15.7692 1.39065 11
429 1 -11.7061 -3.31007 -13.043 15
430 1 -15.8999 -1.0287 3.31901 10
431 1 -6.15907 -8.78688 -14.0559 13
432 1 -4.36142 -10.7739 10.7254 17
433 1 2.21929 8.58116 -7.32569 22
434 1 12.8041 2.16684 10.2334 19
435 1 13.3437 5.43606 0.928578 16
436 1 -10.232 -12.1532 -1.47061 12
437 1 -2.70504 -6.86257 -17.883 9
438 1 -7.49782 9.92886 10.471 16
439 1 12.3106 -3.9645 -0.759082 16
440 1 5.5367 15.9778 -8.26115 8
441 1 13.8542 2.49356 -7.33551 13
442 1 1.80393 7.1818 17.2621 16
443 1 -9.45214 2.7591 8.46385 23
444 1 6.37059 10.772 10.4271 21
445 1 6.47256 -2.5185 17.6222 14
446 1 -2.90921 2.98902 -14.9704 25
447 1 -0.761941 -1.99456 14.4801 20
448 1 6.91319 9.04986 7.51384 21
449 1 7.85911 5.7617 -9.02294 21
450 1 -5.62702 10.1445 -5.93883 21
451 1 1.53244 11.6118 -2.41823 20
452 1 10.309 -4.85596 12.9217 10
453 1 9.22742 -2.22913 -13.2231 15
454 1 11.6613 -12.6394 -1.4992 11
455 1 13.6229 9.90857 14.8062 7
456 1 -16.7032 -5.96959 1.4788 6
457 1 -2.67515 11.5407 -9.74218 17
458 1 -12.4605 -2.80282 13.7638 13
459 1 -5.41902 14.1677 -10.0893 8
460 1 4.64709 -14.2474 -2.90791 17
461 1 6.95297 1.90959 -12.1051 19
462 1 -2.56937 14.3494 -4.91671 16
463 1 -9.2501 -4.4901 -13.118 16
464 1 4.36894 -17.4774 6.67935 10
465 1 -12.7986 -5.16074 -1.15763 18
466 1 2.41254 7.67242 -14.5749 19
467 1 -1.52479 7.59985 17.9036 11
468 1 -11.0933 -5.80551 5.93889 19
469 1 5.33114 -12.3641 -9.15696 18
470 1 1.93648 -6.80885 12.6102 17
471 1 -9.81759 6.17068 0.572362 18
472 1 5.13747 3.18233 17.9863 19
473 1 4.18017 13.9057 -2.83193 18
474 1 12.1653 -5.69337 -3.67609 19
475 1 4.8189 8.87633 13.0426 18
476 1 -0.454519 -0.328355 -17.8268 14
477 1 -3.73388 -13.6711 10.3864 13
478 1 6.03053 0.230508 -16.3552 15
479 1 4.87672 9.91448 4.46631 19
480 1 10.2941 2.90393 -12.5223 10
481 1 -3.34391 -3.96628 -13.0432 19
482 1 -2.93055 -10.8324 -3.15903 22
483 1 -14.4348 -4.47775 -11.5317 11
484 1 13.4494 0.12428 4.18266 15
485 1 13.1496 5.78268 -2.54579 15
486 1 7.60979 -4.94867 -9.12289 21
487 1 14.8957 5.06123 14.8077 5
488 1 1.07173 -14.3405 -4.66999 20
489 1 1.40687 -2.59515 -18.0757 13
490 1 5.95298 11.9681 7.08391 17
491 1 11.5279 7.3174 13.1396 16
492 1 10.2633 5.02419 -2.96901 19
493 1 12.7962 -6.38613 1.28246 15
494 1 11.0753 2.45545 -9.26131 15
495 1 4.22057 2.96929 14.5486 21
496 1 14.4044 3.85322 12.0873 13
497 1 10.3221 14.0761 -3.33687 11
498 1 -1.10128 2.7985 14.473 24
499 1 15.9394 -3.2834 -5.77523 10
500 1 14.1677 7.57909 12.3497 11
501 1 -8.61669 -1.74682 -8.35724 21
502 1 12.2857 5.21609 4.03038 18
503 1 -9.40217 4.65924 10.6994 20
504 1 11.5973 11.6932 13.0416 11
505 1 10.3182 0.100697 13.5568 19
506 1 1.14554 7.96131 8.70807 20
507 1 0.590884 12.5546 11.05 15
508 1 -0.96193 -19.3035 0.639802 12
509 1 -6.4292 9.87866 -2.94424 20
510 1 13.2287 7.0999 -8.52341 10
511 1 5.05912 -9.95986 -11.2588 18
512 1 -1.20414 15.2092 0.617668 13
513 1 -3.0094 -14.0248 -9.06298 15
514 1 9.41129 -8.28277 -15.7828 7
515 1 -12.184 4.13359 8.06194 16
516 1 -6.12721 3.72115 -13.4482 20
517 1 -3.96104 -18.2992 1.63469 13
518 1 -6.63119 0.814009 -11.5494 20
519 1 -12.4377 -0.373434 -4.71466 18
520 1 9.37364 -9.67086 7.30168 10
521 1 10.1703 5.57501 5.75135 19
522 1 4.83873 -14.96 9.28704 10
523 1 -13.7297 -2.54998 -6.26402 18
524 1 -2.19231 -3.28936 -17.8146 13
525 1 -3.60926 5.16238 13.9655 19
526 1 7.7012 9.24102 -14.4802 7
527 1 13.6155 -0.46391 12.0025 11
528 1 8.41398 3.61009 -7.27225 21
529 1 11.8174 11.6469 1.73058 15
530 1 5.48648 -13.9732 -5.52758 16
531 1 -10.0208 -3.98309 15.9136 11
532 1 13.9104 -1.90142 5.97644 16
533 1 -0.147471 10.3668 15.5751 12
534 1 6.8669 11.2013 -10.272 15
535 1 -13.3579 9.45385 -5.29498 13
536 1 10.18 6.38929 -0.543772 17
537 1 -9.25009 -15.2915 -0.345966 11
538 1 9.83617 -5.4896 2.52464 21
539 1 9.30503 16.6037 3.93732 9
540 1 -4.05038 5.22717 10.4121 22
541 1 -8.80019 -8.71057 2.26906 22
542 1 -11.5615 -1.55365 -10.7509 23
543 1 6.8675 0.574831 14.3576 20
544 1 -1.68757 -7.63297 13.7795 10
545 1 6.93866 3.99177 15.1281 16
546 1 -8.7467 11.3944 4.5796 19
547 1 -2.88238 -0.966858 -14.7314 20
548 1 -9.26992 -3.49029 8.75153 18
549 1 8.09281 -1.86612 -10.6363 20
550 1 11.8255 -7.92319 -6.68048 19
551 1 7.69676 2.43008 9.39293 21
552 1 -13.977 -0.177702 14.4635 10
553 1 8.88021 9.38426 13.5493 19
554 1 -1.38487 -4.93161 12.3077 21
555 1 -1.62347 5.84023 12.204 19
556 1 -0.248795 -8.29852 -14.9076 16
557 1 -6.54234 3.68214 10.1907 21
558 1 9.22672 6.11046 12.5711 20
559 1 -9.54909 -16.4111 10.4643 10
560 1 15.4424 7.70814 0.356778 10
561 1 11.9209 -14.5158 -4.34406 8
562 1 5.3798 9.20837 0.764993 19
563 1 8.57961 13.7662 2.48196 18
564 1 2.66155 -4.18963 -16.3331 14
565 1 4.53754 10.8953 -3.87734 20
566 1 13.0075 12.1349 -1.09671 14
567 1 -5.68424 -10.4785 -1.26571 22
568 1 -3.64471 0.421166 -16.9782 14
569 1 -5.59555 12.048 2.74458 19
570 1 10.0019 -5.22533 -14.5896 10
571 1 10.2384 5.35981 -10.3227 16
572 1 10.1521 12.622 -6.85462 12
573 1 12.4607 -0.732779 15.2418 12
574 1 8.81096 -2.56271 15.57 16
575 1 -1.46339 -11.089 12.4354 10
576 1 -3.10048 10.4846 -13.7345 14
577 1 3.60406 9.87377 10.5502 16
578 1 8.97186 -12.0977 -14.4486 7
579 1 8.3321 14.9237 -5.9639 9
580 1 8.69781 11.3337 5.56315 18
581 1 11.937 -8.29589 -3.61352 13
582 1 6.67829 5.95714 17.6092 18
583 1 -14.1899 -3.03347 5.52109 16
584 1 -0.841158 -16.4204 -1.3218 18
585 1 -7.89767 14.4957 1.86105 14
586 1 8.52701 10.4194 2.61403 15
587 1 -12.0651 -3.92562 3.58237 18
588 1 -1.21302 5.39839 15.6425 21
589 1 -5.16211 5.89681 -15.923 16
590 1 -5.16254 8.06901 -13.7977 14
591 1 1.44292 -13.9995 -1.78804 18
592 1 7.24008 6.15106 -5.21143 23
593 1 -11.6836 1.81457 10.8659 17
594 1 2.98927 -1.95701 -14.577 18
595 1 1.7858 -14.8362 9.90386 7
596 1 4.99988 15.324 2.3357 13
597 1 -3.75131 2.34409 16.3117 18
598 1 -10.8483 -9.25695 -9.89618 11
599 1 -1.97738 -7.60162 -11.3176 20
600 1 -6.18641 -14.7499 -8.70469 15
601 1 -0.371724 15.7808 -6.09818 12
602 1 -3.92634 11.0481 6.98055 20
603 1 5.37224 -10.2086 -6.76478 21
604 1 6.5356 -14.4528 -0.276818 16
605 1 2.13786 -7.25421 9.3801 22
606 1 16.6647 -0.647282 -3.51203 8
607 1 2.56333 -14.2422 -7.92932 15
608 1 -11.6862 -2.36413 6.6671 20
609 1 -3.23138 -17.3425 -1.45815 15
610 1 -5.28465 -13.206 -3.34507 16
611 1 -9.42839 -0.592795 10.1602 20
612 1 -6.58706 -16.5683 1.6691 15
613 1 14.0309 5.38238 -5.63611 13
614 1 -8.3617 14.8329 5.00889 11
615 1 -16.3731 5.19181 3.21334 10
616 1 11.1261 -3.32064 4.17779 19
617 1 -14.4235 -1.9059 -9.59672 16
618 1 7.98717 1.04307 -9.15513 19
619 1 10.6823 10.3803 15.6322 10
620 1 -15.7424 0.334821 -5.52299 10
621 1 -12.8155 -5.18523 -8.06117 19
622 1 -2.98132 4.92276 18.6216 12
623 1 2.95927 4.11645 -14.2979 20
624 1 11.3449 13.6343 4.01695 11
625 1 -4.40449 -0.00232727 10.6957 21
626 1 -3.91742 -17.9278 -4.629 13
627 1 -7.08825 -17.6928 7.76659 10
628 1 10.5238 13.0939 10.2237 9
629 1 2.33593 -11.0626 -10.4343 15
630 1 -9.48391 -6.19459 3.54363 21
631 1 7.12726 5.36021 -12.1397 14
632 1 -2.13702 -17.7717 -7.10188 12
633 1 2.40831 -20.9504 0.101509 8
634 1 1.62296 -17.1769 -3.1605 17
635 1 5.57634 3.28057 -8.88176 21
636 1 7.4441 16.292 1.43759 9
637 1 -5.58829 -1.98363 -13.041 20
638 1 -1.33612 1.02688 12.3944 19
639 1 0.500382 4.11709 -16.5868 15
640 1 -13.8143 -1.00644 -13.1426 12
641 1 -12.0101 -4.75147 -5.25978 19
642 1 4.27429 14.1822 -6.02377 15
643 1 -5.81085 -6.28602 -16.4561 10
644 1 10.5232 6.1178 -6.67129 20
645 1 14.019 -6.21597 -1.73749 12
646 1 -7.40518 3.49203 13.277 17
647 1 3.97427 -10.4527 2.16443 21
648 1 13.0519 -9.30068 -0.624825 12
649 1 11.4449 -2.22937 10.7345 16
650 1 -1.39856 9.07608 7.27746 23
651 1 -12.0413 2.31447 16.1029 6
652 1 -8.36236 1.2696 11.7136 21
653 1 -4.16013 -14.2187 6.17076 21
654 1 6.74493 7.03145 14.057 18
655 1 -14.5284 0.176886 0.19313 16
656 1 9.85323 -7.09267 -0.899261 21
657 1 -11.3148 10.7843 -2.72423 17
658 1 1.51031 -17.4979 5.32599 16
659 1 4.33799 0.727467 16.3023 20
660 1 -1.62096 12.7728 5.7004 25
661 1 1.67501 -11.4313 4.20765 19
662 1 1.88247 3.42082 12.4783 21
663 1 -13.5607 -7.89662 -5.55668 13
664 1 2.35127 8.60779 14.8612 15
665 1 3.92677 11.8587 1.56005 17
666 1 -10.3561 -14.0421 5.53698 16
667 1 -1.28059 -18.6937 4.02325 10
668 1 7.65056 -7.75657 9.84463 14
669 1 10.4615 -7.38858 8.31876 13
670 1 5.33563 7.66254 9.74958 21
671 1 0.0560684 -10.3426 -11.6939 22
672 1 0.696484 1.91525 -15.2586 18
673 1 -3.82971 0.0445202 13.9186 20
674 1 -2.78651 13.9667 2.78317 18
675 1 15.3795 0.869861 7.0366 9
676 1 4.69456 6.14793 -7.21036 20
677 1 -2.6695 8.38927 15.2155 20
678 1 6.66872 5.41181 11.1254 21
679 1 7.02954 -5.09113 -12.4371 19
680 1 -5.50249 -13.4499 0.148194 17
681 1 12.5949 -4.55558 7.17335 14
682 1 3.04329 -1.3417 -10.7594 21
683 1 1.11851 5.25922 14.1989 20
684 1 10.6331 -13.5536 -6.72353 10
685 1 3.41369 2.11233 -16.2749 16
686 1 8.51648 0.759853 -14.5358 15
687 1 13.0356 0.165747 -2.66342 17
688 1 1.01704 -4.47467 14.3649 18
689 1 -4.23803 -11.7742 -14.2364 9
690 1 7.58204 11.557 -2.06646 19
691 1 -17.3831 1.74702 4.43673 8
692 1 12.8362 2.93246 -4.25617 18
693 1 14.151 6.45957 7.479 11
694 1 2.61337 -11.1546 -15.815 14
695 1 -6.55419 12.7053 5.71958 20
696 1 13.9676 8.90978 6.67372 11
697 1 12.3676 10.359 -7.29658 10
698 1 0.602659 -1.81605 -15.4812 18
699 1 9.53496 -4.56782 -2.46176 18
700 1 -11.7065 2.503 -2.9731 21
701 1 8.7227 8.61914 5.85918 20
702 1 -11.1839 -9.32042 -0.538594 20
703 1 -9.54052 6.43126 -9.34252 18
704 1 4.69239 2.93593 10.9474 21
705 1 -11.0344 -2.5303 -7.34244 21
706 1 -10.3355 5.94231 6.97876 19
707 1 8.84136 -8.11863 -7.21804 19
708 1 -12.2379 -6.79513 -3.33307 16
709 1 10.439 -10.3641 -0.394919 15
710 1 -15.0823 6.70289 0.0765901 16
711 1 8.66462 8.21785 10.5311 20
712 1 -6.08483 -11.143 5.56865 21
713 1 8.99663 0.125345 17.0193 16
714 1 11.3031 -2.07111 7.56852 23
715 1 -12.8679 6.49336 2.14949 20
716 1 -0.891197 9.61406 10.061 18
717 1 4.73783 6.06882 -10.2601 18
718 1 -0.57577 -10.7555 -16.9795 10
719 1 -4.549 14.4012 5.00198 19
720 1 -12.0101 -11.6108 6.45202 15
721 1 10.3414 7.86651 -8.54071 14
722 1 0.172665 8.96208 12.7286 20
723 1 14.3073 -5.99329 -6.48592 12
724 1 5.45341 -7.2339 11.4402 15
725 1 -0.513944 11.7778 -12.3012 10
726 1 1.8418 8.42477 -10.8066 18
727 1 -6.68098 -1.99649 10.6309 19
728 1 12.2075 8.652 9.824 14
729 1 -3.7968 -5.47515 -9.45709 24
730 1 13.504 9.67421 1.72935 14
731 1 -14.2585 3.47372 -0.729305 15
732 1 -3.12772 -11.4671 7.03057 18
733 1 4.36806 13.4557 -9.66487 16
734 1 5.25913 -2.04054 11.1262 21
735 1 -1.33345 -12.4071 -4.31432 16
736 1 -9.45345 12.4281 0.0668641 13
737 1 -16.0169 5.09854 -2.73933 11
738 1 10.355 -0.166356 -7.72943 19
739 1 3.60449 -14.5864 -10.7866 11
740 1 -9.43108 8.4464 2.45831 17
741 1 13.4385 10.531 -3.79503 12
742 1 4.98967 -5.91294 -17.1026 12
743 1 -5.03892 -12.6409 -6.36329 16
744 1 -0.637882 -13.3101 -7.00428 18
745 1 -2.96259 11.1147 13.1756 16
746 1 9.62291 -15.2516 -1.96632 12
747 1 -0.180534 10.2151 -14.9313 12
748 1 10.3569 1.59299 -3.27013 21
749 1 7.34886 5.81681 1.18843 20
750 1 4.40441 -18.7901 -1.43916 16
751 1 3.21403 -9.10767 -17.39 9
752 1 13.1395 -0.22592 0.923953 15
753 1 -2.8285 3.15508 -11.0162 19
754 1 -0.631147 -7.55043 10.8809 17
755 1 4.83438 8.62402 -5.78651 18
756 1 -11.3957 4.20865 -4.56633 17
757 1 -10.9983 7.09792 9.59109 15
758 1 0.713752 4.73247 19.8497 11
759 1 -9.27473 -7.73531 8.81979 18
760 1 4.09482 9.56742 7.38634 20
761 1 -0.568317 -16.4279 1.94411 21
762 1 5.29487 8.63907 -2.62011 19
763 1 -5.96877 5.91989 12.6469 17
764 1 -7.19267 -1.22695 13.3489 19
765 1 -9.53123 12.0824 7.7384 11
766 1 -4.78094 -6.1606 13.7128 15
767 1 3.56358 -16.5719 2.71206 16
768 1 10.2626 3.20015 10.4872 20
769 1 7.21221 -5.45627 -6.08522 20
770 1 8.84568 -10.461 -8.50445 17
771 1 -7.06535 0.391832 -14.4554 15
772 1 -2.55491 2.56656 -18.6479 11
773 1 5.55065 13.1162 12.1913 12
774 1 -10.9193 -5.48386 13.4357 12
775 1 -6.9922 6.84598 -7.56807 20
776 1 -15.1311 3.22167 -4.85725 14
777 1 7.76645 14.7563 -2.63336 11
778 1 -9.37969 -15.7246 7.90334 13
779 1 11.9394 12.0733 6.68434 12
780 1 -9.30228 -12.0291 -4.64524 12
781 1 3.83719 12.9485 8.92577 20
782 1 -7.90454 -2.03663 17.9894 9
783 1 -3.93264 -17.2486 -9.57378 13
784 1 14.5179 -2.11851 9.09062 11
785 1 4.10911 -19.3939 4.72601 10
786 1 6.56845 8.137 18.9785 8
787 1 9.79867 -0.00316927 -11.2527 16
788 1 9.19339 -8.4333 1.49755 21
789 1 -0.190756 -2.19266 -13.0051 19
790 1 -13.2937 1.4266 -10.4248 19
791 1 -8.17283 4.54577 -15.7023 11
792 1 -6.14411 1.36118 14.7276 17
793 1 7.98732 -2.56301 9.203 20
794 1 -8.44618 -8.5566 5.9599 20
795 1 13.7503 -2.77495 2.42351 15
796 1 0.0963294 3.32094 -12.6398 22
797 1 13.8246 7.30893 3.56272 13
798 1 -2.54869 14.13 11.2159 12
799 1 -14.8449 -6.21906 3.77929 17
800 1 8.3649 -15.4272 -5.11192 11
801 2 -10.3704 -2.40594 -9.30406 19
802 2 -6.28987 8.86982 -4.55426 16
803 2 -1.12641 -1.79512 -11.338 20
804 2 -3.46841 5.98901 12.1752 21
805 2 6.24512 -11.3605 -8.06117 20
806 2 -5.68135 -4.52044 -9.72195 20
807 2 1.82827 3.25959 14.3889 20
808 2 5.36081 -1.47439 18.6582 10
809 2 -11.1216 -8.84812 2.53818 22
810 2 -13.0752 3.55739 -5.11801 14
811 2 0.806293 12.5744 5.06559 22
812 2 -12.1862 0.569632 4.18312 21
813 2 3.89396 14.9493 -8.08099 12
814 2 10.0372 2.99034 3.21404 19
815 2 -2.09078 14.8735 -6.69204 14
816 2 10.6006 10.9895 -7.86873 12
817 2 -13.3591 -2.05751 -11.3902 15
818 2 -9.11665 -7.1097 -6.63665 19
819 2 2.32705 0.152935 12.4913 22
820 2 5.39854 0.829694 -12.5361 21
821 2 2.02852 -13.5013 0.191829 19
822 2 -7.29072 8.95811 -1.22076 19
823 2 -16.3785 0.418504 -3.84253 9
824 2 8.5053 5.14647 6.64252 20
825 2 12.6174 -11.0229 -7.45565 11
826 2 -10.6212 -11.0247 -0.189975 15
827 2 -13.9336 -2.40179 7.15122 17
828 2 -3.11001 -13.0902 3.44378 18
829 2 10.7915 -5.38467 8.06985 15
830 2 -0.389381 -18.1709 -6.19235 12
831 2 2.4388 0.482109 18.9024 16
832 2 -0.506514 7.97916 -10.9844 18
833 2 3.23845 -18.9427 6.30686 7
834 2 -10.4953 -11.0814 -2.96874 13
835 2 -0.933328 5.34311 13.8148 20
836 2 -12.2917 5.28018 0.395526 22
837 2 -0.973702 3.43151 16.3763 19
838 2 -3.70832 9.71038 -6.04049 18
839 2 8.62353 -13.1821 2.61066 14
840 2 -0.754943 11.6138 -10.1588 15
841 2 11.1891 12.2513 8.48861 12
842 2 8.75585 17.2726 5.6267 8
843 2 5.0166 -1.69797 -10.2532 19
844 2 -3.72738 8.61132 13.6126 15
845 2 2.45005 1.61723 -14.5342 20
846 2 -4.96688 9.86981 -13.4559 12
847 2 12.0256 9.82416 -2.71223 16
848 2 -4.09751 -3.42861 14.8786 18
849 2 -13.6093 8.54219 1.38782 13
850 2 9.4192 1.28806 -13.0367 12
851 2 -8.659 -8.94696 12.5645 12
852 2 1.48871 -11.0433 -12.3667 18
853 2 -6.28035 -4.34904 -16.3155 10
854 2 -13.6565 -7.69276 3.33797 14
855 2 11.4816 12.9571 -2.05069 14
856 2 -4.36526 9.29091 3.81144 20
857 2 -1.86515 -9.79122 -7.94696 17
858 2 -2.07388 13.5963 9.33191 16
859 2 1.92312 -0.380439 15.984 19
860 2 2.9439 -10.8374 10.7639 10
861 2 15.1958 3.02374 10.5845 11
862 2 6.12146 14.3868 -9.36599 11
863 2 -12.3719 3.06577 -1.11601 19
864 2 12.9655 7.31086 10.9449 15
865 2 10.0996 -12.2251 -0.53414 14
866 2 7.95241 -10.5459 -2.79141 14
867 2 -4.97545 11.0249 13.3859 12
868 2 4.64017 -10.6516 4.09633 21
869 2 9.44717 -6.34032 4.20035 20
870 2 14.036 9.36735 3.40736 14
871 2 -7.69223 -2.69206 12.0846 16
872 2 12.2984 -10.9436 -0.60416 10
873 2 -0.800761 7.75481 8.67607 20