ITEM: TIMESTEP
5000
ITEM: NUMBER OF ATOMS
500
ITEM: BOX BOUNDS pp pp pp
-30.0 30.0
-30.0 30.0
-30.0 30.0
ITEM: ATOMS id type x y z Coordination
1 1 -2.33316 1.05385 -5.81968 18
2 1 4.60422 -0.250245 7.07335 21
3 1 2.54958 6.7401 11.2576 5
4 1 11.1499 -1.79566 0.913821 12
5 1 -6.15655 2.82565 1.07028 18
6 1 -0.694677 -1.79968 -9.0789 14
7 1 -0.293919 -0.59758 7.44645 20
8 1 2.89283 -4.11924 -5.04107 20
9 1 -8.51377 0.993468 -0.152957 16
10 1 1.43444 2.74735 -8.09487 12
11 1 6.2268 -6.25931 -4.27559 15
12 1 4.25647 1.68553 4.57735 19
13 1 -0.913139 6.75242 -3.84877 19
14 1 2.43388 3.76828 5.35176 19
15 1 2.78432 6.08925 8.13445 14
16 1 -6.904 -1.20877 1.30733 19
17 1 -9.65847 -2.15957 2.46745 15
18 1 9.0901 -1.70787 -1.84363 18
19 1 5.37893 1.13425 9.79072 13
20 1 -8.16665 -4.22057 0.562379 19
21 1 -1.87567 -4.52815 -7.40598 16
22 1 5.86771 0.64904 -3.95462 19
23 1 5.61553 -2.15537 -4.15044 17
24 1 6.88785 -5.48715 2.3362 15
25 1 -5.44758 9.64611 6.88939 10
26 1 2.16613 0.833744 8.78199 18
27 1 0.674922 8.65409 2.89088 18
28 1 1.1383 -3.78205 -7.37151 16
29 1 -2.09535 5.6634 8.47779 16
30 1 5.5619 -2.13037 2.78388 20
31 1 -4.49132 10.4022 3.8436 14
32 1 -3.73411 4.87616 1.47246 23
33 1 1.79897 7.65177 -6.11866 18
34 1 7.1992 5.89702 -1.20513 19
35 1 -0.802144 9.43282 -6.15608 13
36 1 2.96098 -3.25835 -2.30015 24
37 1 -7.16148 3.77542 -5.95343 15
38 1 -1.78174 5.08744 -1.44732 19
39 1 -2.78088 8.65052 0.973618 20
40 1 1.06966 7.47626 -1.10511 19
41 1 -7.87199 4.90815 0.82509 17
42 1 0.215799 7.60175 8.71915 11
43 1 -4.49679 2.2858 -7.59325 16
44 1 -5.77783 -5.90178 4.6983 13
45 1 -2.37757 0.969908 4.63187 20
46 1 -4.11952 -0.837183 -3.34336 21
47 1 5.3468 -9.04361 -2.45664 14
48 1 -7.37475 0.41192 3.93294 16
49 1 -8.82895 -2.35419 -4.1053 11
50 1 3.08528 -9.05022 5.73186 12
51 1 7.46438 3.77721 -5.93424 13
52 1 -5.04393 -3.57312 1.86721 18
53 1 -6.39398 -2.43583 -10.1312 10
54 1 0.439925 8.61212 -9.65872 6
55 1 -0.859894 6.48297 5.34127 19
56 1 -2.17389 2.32592 7.96096 19
57 1 -3.71252 -0.0033802 1.42676 20
58 1 1.76572 -5.57697 0.479623 24
59 1 0.398039 10.2519 0.197154 10
60 1 -9.07934 2.1868 2.24776 17
61 1 2.45895 6.80485 5.77584 19
62 1 4.58556 -2.09309 10.0545 13
63 1 2.66148 -8.6139 -1.40119 19
64 1 7.38836 0.504563 -6.37657 13
65 1 -2.1722 -10.6325 2.42854 9
66 1 0.64415 -10.49 4.00454 10
67 1 6.6847 -2.45759 7.5482 14
68 1 2.77356 -6.38954 6.76353 18
69 1 5.53736 6.61001 1.45847 22
70 1 -8.98897 -6.66931 0.61777 9
71 1 -2.06528 -10.0017 5.55757 10
72 1 -2.93603 -6.153 2.04624 20
73 1 1.08455 -4.18627 5.57099 21
74 1 -3.35412 -5.77764 -0.534022 19
75 1 1.68727 4.91904 -5.85444 16
76 1 4.91791 -3.98067 0.55827 22
77 1 -6.1236 -2.33138 7.30202 11
78 1 -9.35959 2.03087 5.70946 9
79 1 4.28202 -10.6475 0.551752 10
80 1 -4.62244 -1.24496 4.15912 24
81 1 1.16845 0.936641 4.84707 19
82 1 -11.3092 0.664576 3.07891 8
83 1 -2.71464 11.8355 6.66736 6
84 1 -3.06528 7.34879 3.68976 18
85 1 -5.45103 6.36028 7.77428 11
86 1 -8.08862 -1.65442 -7.30675 15
87 1 2.71003 -1.41684 4.67498 20
88 1 -5.08929 1.91266 -4.3298 20
89 1 -4.98713 -3.51865 -7.78963 17
90 1 9.39033 -1.9035 6.12558 11
91 1 -5.29271 4.23498 -1.752 22
92 1 -0.323125 -4.68231 8.25431 17
93 1 -4.06546 -0.662595 -9.71251 16
94 1 -10.1479 0.641294 -2.84449 11
95 1 -0.324962 -10.4953 -0.0574999 12
96 1 -3.21743 -3.43419 -2.14203 17
97 1 -6.99776 7.89642 5.13365 10
98 1 4.28238 3.38639 7.63655 21
99 1 -4.74549 7.15858 -1.1922 16
100 1 3.20689 -7.52039 -4.37719 16
101 1 1.04872 9.51752 5.77781 12
102 1 4.96711 3.76816 -2.51324 19
103 1 -7.11508 0.171316 -4.42821 20
104 1 -10.6682 4.99856 -1.56399 7
105 1 -2.66503 -10.9327 -2.56766 8
106 1 5.00966 -6.60925 4.55213 17
107 1 -9.53156 4.78388 -5.10922 9
108 1 -4.42316 0.51983 9.30345 11
109 1 -6.88069 3.94542 5.84001 16
110 1 0.344924 -6.19824 -5.70474 16
111 1 -3.26609 -1.16346 7.15034 21
112 1 1.10983 -7.6821 9.18344 11
113 1 4.19961 -6.04896 -2.01409 22
114 1 9.29218 0.470841 0.787827 23
115 1 -5.4292 5.34225 3.87117 18
116 1 2.55471 1.646 -5.1355 16
117 1 1.49711 5.96483 3.27384 18
118 1 4.43857 -3.64309 5.74416 21
119 1 -2.85271 -8.67293 -0.658543 16
120 1 -7.01983 -2.79774 4.30473 17
121 1 7.40688 0.121803 8.25471 13
122 1 9.04403 7.55271 -0.111018 11
123 1 3.39295 6.54689 -8.81227 8
124 1 -1.17543 6.69446 -6.67764 15
125 1 3.52154 8.68947 0.772765 19
126 1 4.53151 5.25739 -6.30745 14
127 1 2.30891 -6.96614 3.90097 22
128 1 7.37995 3.73241 1.31503 19
129 1 4.08057 -7.07775 1.20049 24
130 1 1.58754 -8.72109 1.78753 17
131 1 -8.85471 1.61323 -6.78747 10
132 1 4.82934 5.02149 3.93265 18
133 1 10.5623 0.598246 -1.81906 16
134 1 -0.261099 3.26507 -5.14562 19
135 1 -3.87846 7.6014 -4.59393 12
136 1 3.5445 -6.18272 -7.13829 12
137 1 -0.344124 -5.1798 2.71165 21
138 1 -8.87745 -5.956 3.80726 9
139 1 0.109885 -9.11794 -2.54869 14
140 1 3.81162 -3.16638 -8.329 12
141 1 2.96446 4.9598 -0.0320353 20
142 1 4.86634 -9.38514 3.13395 13
143 1 4.55598 -1.0868 -0.826112 22
144 1 -5.43199 -4.84459 -3.75599 17
145 1 -4.97202 -6.38198 -6.43123 9
146 1 1.17724 -1.78196 10.6992 10
147 1 0.798129 3.31465 8.34318 17
148 1 5.75106 -1.26342 -8.15732 9
149 1 -8.25564 3.43576 -2.43414 19
150 1 4.16143 6.61827 -2.01942 19
151 1 8.72805 1.89355 -3.54188 16
152 1 -1.34932 0.948612 -9.06763 13
153 1 -8.8828 5.13561 4.09063 11
154 1 2.48892 -4.75314 9.34834 13
155 1 4.63346 3.06428 1.27609 17
156 1 -6.87754 0.504034 -8.99423 12
157 1 8.89058 -2.14019 3.39328 17
158 1 -0.195783 -7.26165 0.212222 18
159 1 6.72839 3.57876 9.31807 10
160 1 0.588871 -9.4704 7.16646 12
161 1 1.92834 -2.05346 7.36579 19
162 1 6.40555 0.112502 1.73208 21
163 1 9.94044 4.84275 1.58074 12
164 1 7.96828 -2.87177 0.595558 19
165 1 7.80253 5.6139 3.65774 16
166 1 -2.59477 -5.62737 -4.15362 16
167 1 6.49582 3.61812 5.82131 17
168 1 -2.44846 3.34039 -3.37474 15
169 1 -4.29091 5.22364 -6.87814 13
170 1 -2.27009 -2.65644 9.94683 12
171 1 1.00204 -5.99615 -2.74914 21
172 1 -6.05528 -6.84466 -0.786692 15
173 1 8.89957 2.55267 3.86879 13
174 1 -3.37295 3.87859 5.9898 19
175 1 -5.78467 7.51238 1.76035 19
176 1 6.60363 6.4261 -4.19535 13
177 1 3.24111 3.24386 11.0585 12
178 1 -5.62386 0.406221 -1.04125 20
179 1 3.38721 -0.374414 -3.33329 16
180 1 -0.432354 3.71852 5.87993 16
181 1 6.2395 -3.95543 -1.86352 21
182 1 6.67209 9.51806 -0.0176006 11
183 1 3.62646 -4.36139 3.15185 21
184 1 -1.90505 10.1059 3.97738 15
185 1 6.09256 -4.20338 -6.29793 12
186 1 5.4428 -5.11032 8.41404 12
187 1 0.910578 -1.42243 -5.61173 17
188 1 -5.07475 3.97071 8.95841 10
189 1 10.8069 0.618019 3.41551 12
190 1 0.971655 10.0196 -2.91467 14
191 1 -0.81771 -1.83356 4.76234 20
192 1 9.61335 5.36269 -3.67102 8
193 1 -1.34523 -0.0643671 10.5236 10
194 1 -3.30933 -4.62659 7.2208 14
195 1 -7.81871 6.62847 -1.3335 13
196 1 6.91446 8.79787 2.8956 12
197 1 -6.47493 -8.00278 2.37875 9
198 1 7.10539 1.4622 -0.888126 21
199 1 -8.21128 -5.06185 -2.54768 13
200 1 7.21747 0.32572 4.65498 17
201 1 7.25628 -6.40999 -0.748264 17
202 1 1.49906 4.27447 -2.65892 19
203 1 3.73125 8.02837 3.63612 15
204 1 -9.10818 -1.76062 -1.10765 18
205 1 -1.76178 8.66998 -2.00755 16
206 1 2.39856 10.8663 -5.45632 8
207 1 -5.04663 -0.453009 -6.57145 21
208 1 1.99863 -0.0292651 -8.28816 14
209 1 -4.20813 -7.77923 -3.13237 13
210 1 -0.795541 -6.51763 5.48682 23
211 1 9.34729 -4.68475 -2.72158 9
212 1 -11.4481 0.128986 0.454125 11
213 1 -1.50807 3.83851 -7.98286 13
214 1 -7.47337 -4.19439 -6.85975 11
215 1 7.65484 -4.9636 5.43545 11
216 1 -2.75564 -3.27919 -10.6621 9
217 1 -5.47734 10.0471 0.508723 8
218 1 -6.11013 0.698122 6.49862 15
219 1 -2.37991 -2.06803 -5.74214 19
220 1 9.43266 8.08707 2.72338 9
221 1 12.0866 1.7972 0.64281 12
222 1 -2.14807 -7.82367 7.80441 12
223 1 4.78648 2.17327 -7.18457 15
224 1 4.73583 8.71328 -4.91363 10
225 1 5.90786 6.04087 6.76183 14
226 1 3.72144 9.85987 -2.0476 12
227 1 9.66276 3.51865 -0.994746 16
228 1 -3.44287 -4.3912 4.26699 19
229 1 -4.93039 2.17655 3.56649 20
230 1 8.78708 -1.42343 -4.40065 14
231 1 -0.272798 -3.50338 -3.84341 21
232 1 -2.54995 8.64679 7.1308 19
233 1 -3.50755 1.97823 -0.900152 23
234 1 -0.40708 5.59348 1.37484 17
235 1 -3.25942 -7.72735 4.15244 16
236 1 7.51259 -8.82658 0.824374 9
237 1 -6.39484 -2.72425 -1.4877 19
238 1 -6.70251 6.58497 -4.25615 12
239 2 -9.36049 1.05685 3.89037 12
240 2 8.88915 4.21524 2.9046 14
241 2 0.416415 -2.24639 6.14952 17
242 2 -3.78679 -2.0823 -6.84029 19
243 2 -6.83217 3.48634 -0.75357 19
244 2 -1.98428 -8.08465 5.84106 13
245 2 1.83986 2.38456 9.7509 13
246 2 7.07546 -1.04836 3.28496 17
247 2 0.27733 -5.72167 -1.00766 21
248 2 -6.09586 7.94738 7.04184 9
249 2 -1.90605 4.67319 1.68283 17
250 2 7.60377 -0.70498 0.413105 20
251 2 4.98792 -7.41464 -3.38169 17
252 2 -5.13629 0.597287 -8.28673 20
253 2 -0.0626841 -5.1228 -7.23612 15
254 2 -1.96766 -3.73476 -4.76235 20
255 2 -2.18594 -7.14582 0.385471 17
256 2 -3.67221 10.179 7.41282 10
257 2 11.6309 -0.0458792 1.791 12
258 2 4.46781 -3.12012 -1.08055 22
259 2 5.14226 8.4252 2.35528 14
260 2 1.18849 7.92805 7.04332 14
261 2 8.1502 9.09629 1.29044 10
262 2 2.92102 8.94304 -5.86455 14
263 2 5.99606 0.566631 -7.48993 12
264 2 -8.47127 0.187298 -7.92743 12
265 2 -0.42149 -8.38412 8.27951 11
266 2 -7.35883 1.20064 1.77515 19
267 2 5.05601 -5.85017 -6.00043 12
268 2 -0.153987 -10.284 5.64644 13
269 2 5.71857 -0.852018 -2.36258 20
270 2 0.841187 5.29697 5.08504 19
271 2 5.70009 -0.744382 8.7797 13
272 2 -4.59621 -6.55235 3.1393 15
273 2 1.82443 -3.20009 3.7633 23
274 2 2.02196 -8.93192 3.59474 16
275 2 -1.33933 1.93782 -4.4227 18
276 2 2.71778 -5.18656 -3.29825 25
277 2 -8.8262 -5.36648 2.08666 12
278 2 0.151753 -10.7804 2.16167 10
279 2 -7.35946 -7.50221 0.58603 11
280 2 -3.03726 11.2393 4.96428 11
281 2 4.26622 1.08587 -4.54658 18
282 2 10.0397 6.79129 1.46532 13
283 2 2.12975 7.67278 -9.546 6
284 2 -4.34246 2.8144 -2.74398 19
285 2 -7.77578 5.50662 -5.08726 12
286 2 9.01216 1.20605 2.54732 20
287 2 -0.12532 9.82351 4.30944 13
288 2 -5.5196 9.43482 4.8984 15
289 2 1.85484 4.83236 1.82461 20
290 2 1.71968 9.58648 -1.20451 15
291 2 2.85263 10.867 -3.46938 10
292 2 -1.60071 7.72623 8.31711 11
293 2 -2.04013 2.3229 5.90255 20
294 2 2.74626 -2.69102 10.1022 14
295 2 3.68326 -1.2175 -8.30168 12
296 2 3.39889 -9.0773 1.31833 16
297 2 1.08879 -3.30756 -5.43223 20
298 2 -6.33233 -5.81277 -2.4723 17
299 2 7.72313 -5.89559 -2.8456 12
300 2 4.41712 3.54633 5.34063 19
301 2 -2.09783 -0.619769 -9.9317 12
302 2 1.50637 0.0950486 -4.33615 17
303 2 4.31175 3.47335 -0.732127 20
304 2 -3.70363 -5.09626 -7.47657 14
305 2 2.97263 -4.40595 -7.0857 16
306 2 7.9659 1.90124 -5.29409 14
307 2 -5.04816 -3.31373 4.06009 19
308 2 0.493175 -1.45979 -7.71496 17
309 2 1.64776 3.49463 -4.5332 17
310 2 -0.575492 -5.96864 -4.00689 16
311 2 0.562967 1.11483 -9.08611 11
312 2 -2.07671 5.07603 5.64928 17
313 2 -8.94015 -5.44398 -0.769112 12
314 2 -4.98139 0.646067 4.8759 18
315 2 -4.43324 6.44358 2.70564 17
316 2 -7.17181 -7.04884 3.87878 10
317 2 -6.41661 -1.48983 5.55096 14
318 2 -10.2067 -0.151031 -1.01408 11
319 2 6.28265 -4.18109 6.78997 14
320 2 8.99242 1.60013 -0.847175 19
321 2 -0.884013 -1.59525 -4.13713 18
322 2 3.44011 6.21015 3.81516 19
323 2 4.1758 6.54431 6.82965 17
324 2 -0.612959 -1.87266 10.5188 10
325 2 -7.27454 6.12691 4.11908 15
326 2 0.832156 1.14476 7.00762 22
327 2 -6.78548 -0.733486 -6.05527 19
328 2 3.7005 -2.33681 -3.94651 20
329 2 10.4575 2.90122 0.755687 16
330 2 -11.0594 -1.1134 2.16812 10
331 2 -5.00052 6.30231 -5.46321 10
332 2 2.86695 1.79814 -7.23393 15
333 2 -5.57487 4.29447 2.15368 21
334 2 1.77814 -4.62677 7.47146 21
335 2 2.19464 5.99742 -1.75756 18
336 2 4.15356 -10.2223 -1.61147 11
337 2 0.801997 -8.83811 -0.440277 18
338 2 -5.0044 10.761 2.02705 9
339 2 1.16128 -6.01497 5.03146 19
340 2 2.97771 -6.74588 -0.547476 23
341 2 6.28342 4.33707 7.62262 14
342 2 -1.2727 9.32438 -0.158779 13
343 2 -4.17046 -2.7533 6.93401 16
344 2 -1.8433 -5.97991 3.72946 18
345 2 -2.06908 -0.728723 5.69241 17
346 2 -0.0811553 8.37713 -7.76203 10
347 2 6.96678 -1.05703 -5.15542 17
348 2 1.40776 -1.03255 8.91589 17
349 2 -8.18213 -3.01748 -2.33826 16
350 2 6.7543 7.41605 -0.123326 18
351 2 6.38313 5.35215 4.97845 16
352 2 8.14926 -3.39365 -1.30964 17
353 2 -6.536 -3.25547 0.467797 20
354 2 1.60863 6.44507 9.60695 13
355 2 -3.54393 -0.462286 -5.16532 19
356 2 -5.78346 0.191488 -3.09137 17
357 2 8.26141 -1.07487 7.20895 13
358 2 0.188749 3.66998 -7.09709 16
359 2 4.41602 -2.67098 4.17005 20
360 2 5.02342 3.15617 10.0373 11
361 2 4.26491 -6.04504 2.63942 24
362 2 -0.248486 -3.69031 1.27748 22
363 2 -3.13355 1.66861 2.88005 21
364 2 -8.9797 -0.304078 -4.10233 15
365 2 -6.37676 6.20774 -2.38491 16
366 2 -9.44667 3.47387 -6.4089 7
367 2 -5.08534 -1.11943 2.26413 20
368 2 -1.61239 -5.79591 7.16176 17
369 2 4.8397 9.62324 -0.405971 14
370 2 -6.8591 -2.7201 -8.16043 15
371 2 10.722 -1.19211 -0.870229 14
372 2 -6.91391 6.60455 0.482399 18
373 2 6.84934 -5.8613 4.21553 12
374 2 -4.07319 -5.67493 5.73574 15
375 2 -5.98558 -5.16404 -5.56061 14
376 2 -0.00973918 8.34301 -2.98319 17
377 2 -4.52458 8.32498 0.31733 15
378 2 5.69544 4.44648 2.27864 19
379 2 1.05802 -5.98838 9.51935 11
380 2 -8.71433 4.20301 2.407 15
381 2 -0.489695 6.24676 -0.3988 20
382 2 3.01754 5.07835 11.196 7
383 2 -9.35174 2.04302 -1.74604 14
384 2 3.90325 6.66932 -0.0181091 23
385 2 -3.95745 5.50368 8.49165 12
386 2 -1.38959 0.612023 8.56866 17
387 2 -4.58941 -2.93014 -10.0694 11
388 2 0.309284 6.35934 -5.31366 17
389 2 -2.00246 -9.70985 0.752433 15
390 2 -3.83025 2.39117 -5.75809 18
391 2 2.93959 0.423143 3.82614 20
392 2 1.29166 2.76382 4.36733 17
393 2 9.03307 6.65976 -2.17814 11
394 2 3.81168 -5.51234 5.53148 20
395 2 6.39247 2.38337 -2.6231 19
396 2 2.47888 4.36246 7.30069 22
397 2 -4.84852 1.54756 0.400188 21
398 2 -0.961276 4.75594 -3.22932 19
399 2 -4.04444 2.32091 8.84795 15
400 2 -8.38941 -3.25716 -5.54887 11
401 2 0.847048 -6.79226 2.04116 20
402 2 -0.294075 7.00605 3.27045 20
403 2 -9.25949 3.76308 5.23545 9
404 2 -8.01374 -1.46071 3.09344 19
405 2 -0.894258 -10.7444 -2.15162 8
406 2 4.02757 1.37667 8.18228 21
407 2 -3.32225 7.50863 -2.64587 17
408 2 -2.30558 5.51804 -7.49473 14
409 2 5.24096 6.75697 -5.39193 13
410 2 2.0893 -6.95061 -5.82836 14
411 2 5.5959 0.474148 5.45234 20
412 2 7.23664 1.91551 8.73634 13
413 2 0.628363 10.3256 -5.11548 10
414 2 -7.08078 2.04663 -5.21809 18
415 2 -1.79594 -3.39533 -9.13966 13
416 2 -4.80984 -2.69562 -2.51689 17
417 2 -2.26522 7.89347 5.37816 19
418 2 -2.25671 8.00248 -5.58515 13
419 2 -10.0153 4.43369 -3.24514 10
420 2 -6.09345 4.70104 7.40318 12
421 2 2.95671 5.61972 -7.21152 14
422 2 5.72378 -2.97302 -7.90402 11
423 2 -3.50079 -4.40872 0.966898 21
424 2 -8.95915 5.29053 -0.870622 11
425 2 -2.5726 1.98503 -8.08952 17
426 2 5.6344 -5.5485 -0.893775 22
427 2 3.7675 -1.88895 6.36485 21
428 2 -5.39511 -0.636804 7.83971 11
429 2 -3.96857 -6.92681 -4.90938 12
430 2 -7.39986 2.09436 5.69922 13
431 2 6.21617 2.01543 0.844234 18
432 2 5.59622 -3.24742 9.08113 13
433 2 -10.7011 1.45461 1.58018 11
434 2 -3.14945 -0.872221 10.1335 12
435 2 2.03852 -8.24103 7.05532 15
436 2 9.92267 -0.753469 4.45683 14
437 2 1.66441 -8.24618 -3.21151 16
438 2 -2.7881 9.12182 2.71824 16
439 2 -6.02033 -0.652853 -10.2688 11
440 2 -8.07855 -4.30149 4.52091 11
441 2 3.91908 -6.06756 8.59208 12
442 2 8.21961 4.73175 0.0452847 19
443 2 5.57511 3.79179 -6.65379 12
444 2 7.9878 7.52862 3.85913 10
445 2 -3.62461 5.51146 -0.498735 23
446 2 8.42303 -3.25544 5.07644 14
447 2 6.01949 -4.14452 -4.19607 21
448 2 -3.46866 -5.41084 -2.52544 18
449 2 9.48106 -2.8992 -3.44751 11
450 2 7.36823 -7.02001 1.36629 13
451 2 9.51518 -2.18115 1.73071 16
452 2 6.56569 -3.78905 1.66131 22
453 2 -0.860599 4.05592 7.85439 18
454 2 7.94588 5.25605 -4.71793 14
455 2 -9.20127 -2.66015 0.711758 15
456 2 4.73566 -1.11626 1.11727 22
457 2 -7.20063 -0.699591 -0.713627 21
458 2 4.44739 -8.53637 4.61887 13
459 2 4.20557 8.15611 -3.05359 17
460 2 11.9214 1.71227 -1.11396 10
461 2 5.77278 5.40922 -2.54016 16
462 2 -1.67821 -3.26825 3.75125 20
463 2 2.99073 -4.26133 1.28377 24
464 2 9.21904 0.134213 -3.31667 16
465 2 5.86357 -9.90368 1.58415 9
466 2 -3.46774 -9.43684 -2.58283 9
467 2 1.7609 9.46625 1.53412 14
468 2 2.222 8.63415 4.50485 15
469 2 -2.6192 -9.41229 3.71198 12
470 2 -1.80348 -3.58081 8.49494 12
471 2 -4.9447 3.78854 4.97988 18
472 2 7.47132 2.1018 5.14315 16
473 2 9.57921 3.48868 -2.90595 16
474 2 -5.5118 3.82975 -7.26145 12
475 2 -4.37547 -7.66925 -1.03016 14
476 2 6.85573 -8.38496 -1.06109 13
477 2 -1.88 -2.83137 -1.36755 20
478 1 -1.88 -0.934401 -0.726407 22
479 1 -0.24 -3.77954 -0.726424 22
480 1 -1.88 -2.83171 1.92355 21
481 2 -1.88 -0.93461 1.2824 25
482 1 -0.24 0.0131684 -3.37638 23
483 2 -3.52 0.0135641 -1.36761 20
484 2 -0.24 0.0135641 -1.36761 20
485 2 -1.88 2.85863 -1.36755 21
486 1 -0.24 1.91046 -0.726424 22
487 1 -0.24 0.0131684 1.92362 22
488 1 -1.88 2.85829 1.92355 18
489 2 -0.24 0.0135641 3.93239 23
490 2 -0.24 1.9103 1.28241 23
491 2 1.4 -2.83137 -1.36755 22
492 1 1.4 -0.934401 -0.726407 24
493 1 1.4 -2.83171 1.92355 22
494 2 1.4 -0.93461 1.2824 24
495 2 3.04 0.0135641 -1.36761 21
496 2 1.4 2.85863 -1.36755 20
497 1 3.04 1.91046 -0.726424 20
498 1 3.04 0.0131684 1.92362 22
499 1 1.4 2.85829 1.92355 21
500 2 3.04 1.9103 1.28241 22
