ITEM: TIMESTEP
8000
ITEM: NUMBER OF ATOMS
2000
ITEM: BOX BOUNDS pp pp pp
-30.0 30.0
-30.0 30.0
-30.0 30.0
ITEM: ATOMS id type x y z Coordination
1 1 -10.0089 4.9523 -11.3079 15
2 1 -4.96689 -9.97025 -8.64202 20
3 1 0.529038 8.75065 13.7077 19
4 1 6.91154 -10.8053 8.52566 16
5 1 -10.4146 9.07914 0.404661 20
6 1 11.7897 -12.2414 -7.97853 7
7 1 -12.1089 2.39821 -7.50585 22
8 1 -0.989734 -6.48119 12.2923 20
9 1 -9.96663 -1.13484 -13.5738 11
10 1 -14.8138 -9.24567 6.30316 13
11 1 12.651 0.75264 -9.47396 16
12 1 -4.69285 1.00514 -5.50479 22
13 1 -5.48251 -13.7889 1.89474 17
14 1 -12.5571 -6.52749 3.50601 19
15 1 0.945229 3.62164 17.2096 17
16 1 5.00362 -2.13175 7.46689 18
17 1 -1.75327 2.24125 11.6523 21
18 1 7.32585 -0.609159 4.45587 23
19 1 -4.11654 11.7054 -6.3575 20
20 1 2.25679 -2.10439 13.5193 15
21 1 -4.1725 0.54099 -14.7851 21
22 1 -14.0124 -3.20375 11.9758 15
23 1 13.3195 3.84266 8.30672 14
24 1 1.34419 8.74843 -9.52163 17
25 1 1.95586 5.70288 -12.4594 22
26 1 14.191 1.05984 12.3857 10
27 1 -9.97999 0.548198 0.843204 22
28 1 -15.4526 2.55334 -6.29061 14
29 1 -1.8836 1.60556 -7.12067 19
30 1 -10.9337 7.69712 9.53321 17
31 1 3.90801 -15.666 8.47271 11
32 1 -0.254854 -3.15677 8.44137 20
33 1 3.47468 -11.4162 -10.4889 15
34 1 9.13589 -13.8709 0.867789 12
35 1 -8.20926 -15.9049 -4.64422 11
36 1 -13.8562 -5.97801 11.3747 15
37 1 4.60355 -1.76814 -5.78495 22
38 1 1.46639 -5.98264 -11.9532 18
39 1 9.65521 -9.65928 -9.63675 14
40 1 -3.07825 6.07179 -16.568 12
41 1 -1.80072 4.24637 15.5319 20
42 1 -1.2928 -11.4343 8.31557 21
43 1 4.42613 -4.18789 13.8208 16
44 1 -12.8846 0.701092 0.308245 16
45 1 -17.6643 -1.91875 7.48767 10
46 1 -6.92313 -0.494795 -0.336022 22
47 1 -3.68561 14.7573 -1.43622 23
48 1 -2.04013 -12.7812 -8.79671 18
49 1 0.790708 2.97066 -11.0471 18
50 1 6.71554 -6.2459 -8.87854 16
51 1 -1.0472 -3.52382 14.1831 17
52 1 -12.3696 3.06342 -0.696997 22
53 1 4.69606 12.2133 -11.681 10
54 1 0.475987 13.5525 8.34582 16
55 1 -10.1845 10.0005 -8.07842 15
56 1 -1.39207 15.4607 1.77433 19
57 1 1.94709 -14.4412 5.30998 21
58 1 5.43063 -9.35674 -4.81209 19
59 1 7.12644 -5.35745 -16.1603 8
60 1 -9.70845 5.48954 11.5304 20
61 1 -10.9288 -3.54344 -5.10272 18
62 1 4.43914 0.926016 5.82425 20
63 1 -8.86694 6.70231 -5.599 18
64 1 -11.3721 -8.48835 7.01091 20
65 1 -4.26051 12.7781 12.6492 13
66 1 -13.3274 7.89463 -7.67006 13
67 1 -6.98865 9.92017 13.366 14
68 1 1.21401 5.76219 -6.08761 17
69 1 2.54913 5.36191 3.7 17
70 1 -8.86828 -14.8976 8.35081 20
71 1 2.08014 4.73448 8.65711 18
72 1 5.82921 -16.2014 -2.71683 13
73 1 2.91286 9.15962 11.4905 14
74 1 -15.0527 3.22345 -9.23899 13
75 1 -15.4692 5.67072 -7.12801 12
76 1 8.74977 7.50864 11.3704 19
77 1 12.635 -4.33212 -10.9344 11
78 1 7.16481 -12.6189 5.65475 13
79 1 -16.9457 -2.26885 4.1313 14
80 1 -8.49194 -1.57058 2.56616 23
81 1 8.02059 15.9476 8.73336 8
82 1 5.90567 -1.01173 14.0735 20
83 1 -7.30484 -12.585 6.33812 14
84 1 -9.68381 -2.28989 0.265356 16
85 1 12.2972 0.307258 5.97591 20
86 1 6.56755 -1.95342 -0.297712 15
87 1 -2.25195 12.3119 10.1808 16
88 1 4.03488 0.493565 9.09889 21
89 1 -4.49761 -5.56857 4.16415 24
90 1 -3.63505 -9.03435 -5.07702 19
91 1 -13.8816 6.18387 10.3388 14
92 1 -7.49822 14.9163 -2.56821 19
93 1 -2.18253 7.27458 -9.80089 23
94 1 4.25065 1.18768 -3.88235 21
95 1 6.77869 -0.795438 -3.98142 22
96 1 8.37358 12.4254 -7.352 11
97 1 7.09085 -8.27005 6.59036 24
98 1 6.78858 -10.3497 11.7109 9
99 1 -5.68745 16.1884 -0.165489 14
100 1 -8.37856 11.5966 5.22502 21
101 1 -9.39008 -5.09613 14.5672 17
102 1 -4.89066 7.43597 7.6541 22
103 1 -4.5273 -8.07797 12.3348 18
104 1 13.0888 -8.90366 -7.36416 10
105 1 -11.3552 4.10169 4.75633 18
106 1 -11.2949 -13.7734 3.60191 13
107 1 8.96542 -8.56695 -4.20877 16
108 1 3.48178 1.57778 -11.0467 19
109 1 -3.90675 1.82142 -18.0924 9
110 1 2.32066 2.50422 5.66657 18
111 1 -2.03283 12.5581 4.13023 19
112 1 -7.98381 3.24001 -8.91382 19
113 1 2.59497 8.47106 20.1975 10
114 1 -2.63843 13.4106 -3.87393 20
115 1 -12.4448 8.42989 2.095 16
116 1 -0.423966 6.73762 -0.365428 19
117 1 -6.82078 -8.6209 10.3853 16
118 1 14.2362 -1.87693 10.8738 11
119 1 -1.03982 -5.33792 -7.49857 20
120 1 2.00394 -8.00144 -4.21089 20
121 1 -1.76886 2.11069 8.70521 20
122 1 3.88397 -1.95216 16.1888 12
123 1 -11.6749 -7.7611 0.0937073 22
124 1 4.81123 -2.24892 4.39205 20
125 1 -8.80458 -7.70104 -0.96174 20
126 1 9.41908 -11.9911 3.76774 9
127 1 -5.47919 7.73146 1.22021 20
128 1 5.74369 1.63541 -13.144 19
129 1 5.78497 15.5867 -3.47118 15
130 1 -8.76097 -14.3243 11.5593 11
131 1 -11.5338 -14.3993 9.60796 14
132 1 -5.92777 4.47844 1.717 21
133 1 6.38669 -7.51885 -15.03 10
134 1 3.5801 6.95771 -7.46662 23
135 1 10.2037 -10.8112 1.19144 15
136 1 -3.2973 -17.1399 5.83667 17
137 1 -9.96354 -10.7688 -1.21677 22
138 1 16.0329 6.86416 8.97987 11
139 1 14.0772 -5.28098 -7.78411 13
140 1 -16.7075 -2.47863 0.989424 10
141 1 9.16239 7.8984 5.06604 20
142 1 14.5516 9.27326 3.12412 13
143 1 -9.05223 1.14711 15.5927 13
144 1 5.55092 8.41447 -3.39036 21
145 1 -4.12075 9.508 11.6059 19
146 1 -7.66921 13.0277 -5.10818 18
147 1 -0.950883 -7.57034 -10.4827 20
148 1 8.88986 -11.9413 -7.30077 14
149 1 -0.140044 15.6595 -8.74934 12
150 1 8.30837 -1.97842 12.3599 18
151 1 0.417862 -1.43855 -17.4541 11
152 1 -3.9331 9.46426 -4.07821 21
153 1 9.60687 -0.409228 -4.53134 20
154 1 -11.0402 8.44564 -5.85195 18
155 1 -9.32381 13.2912 0.286103 16
156 1 6.77081 1.09445 -9.43512 21
157 1 8.83754 -9.59812 5.08362 16
158 1 -5.95967 6.75378 -4.64603 18
159 1 -8.59376 13.1537 9.83801 12
160 1 13.1004 10.1746 -6.36006 9
161 1 2.98363 11.5824 0.236634 17
162 1 -3.97666 17.0399 2.67147 12
163 1 11.4537 12.3759 -1.41457 14
164 1 -3.00854 8.30398 -1.12339 21
165 1 -0.932674 17.4589 -6.25102 9
166 1 4.6443 10.6446 -13.8526 12
167 1 -14.2908 -9.39386 3.16803 12
168 1 -12.9234 8.44228 -1.74212 14
169 1 -4.6015 -2.83808 -10.5729 20
170 1 1.96704 -8.90649 -11.8921 17
171 1 8.45219 12.577 7.44179 18
172 1 1.20497 16.9349 8.9323 11
173 1 -13.9167 -3.08138 -3.93397 15
174 1 -10.2861 13.4593 6.9757 10
175 1 14.5005 -3.33232 -2.62775 16
176 1 -10.0937 2.35426 -13.9312 9
177 1 6.21926 3.41257 18.3058 11
178 1 3.89669 17.8016 5.11935 14
179 1 -1.07687 9.34393 10.3397 17
180 1 2.25099 -6.737 -14.9047 11
181 1 -4.99546 13.0877 9.85445 20
182 1 -5.3111 12.3499 -2.99446 22
183 1 1.4517 -6.46846 13.0105 14
184 1 -9.95954 -4.29197 3.72466 22
185 1 -0.575856 -11.2575 -11.6179 18
186 1 -7.2102 11.3966 -7.57195 17
187 1 -3.94493 -11.4969 6.94497 20
188 1 3.3213 -17.3624 -2.98764 10
189 1 -3.53613 10.3465 -11.3987 16
190 1 -16.7078 1.5912 8.31153 12
191 1 1.83688 5.59683 -2.56186 22
192 1 9.54842 7.22892 -5.23933 20
193 1 -7.25523 5.49762 15.4793 13
194 1 -1.39146 -9.64382 10.8202 19
195 1 -7.13005 1.73878 2.48702 20
196 1 0.728776 19.1599 6.61535 9
197 1 -2.00408 6.21868 8.39239 18
198 1 13.3023 3.864 13.4202 12
199 1 -7.91427 15.0087 5.33228 14
200 1 11.5431 -6.75787 -9.36583 16
201 1 -7.06494 12.7753 12.4799 13
202 1 -4.7498 2.51022 -8.71631 24
203 1 11.497 -9.19763 3.65378 13
204 1 -5.78546 -6.24392 7.29068 21
205 1 -15.486 -0.163628 5.73896 17
206 1 -8.8301 -9.7413 4.92945 17
207 1 6.68758 7.56697 14.9876 20
208 1 -16.0889 0.213319 -4.37464 13
209 1 -3.31778 -18.8086 -0.0569328 17
210 1 -5.94612 -2.77674 -2.4221 21
211 1 9.12708 -7.94336 -0.645703 17
212 1 -2.33212 9.11181 6.15814 23
213 1 -6.99772 -0.246517 5.52788 21
214 1 4.32879 12.1549 12.1285 8
215 1 -9.50901 -1.90359 -6.83356 17
216 1 -5.72883 11.933 -10.2979 13
217 1 -12.8409 -5.74283 -4.28811 16
218 1 -9.4229 -0.331747 12.4338 21
219 1 -1.11234 -10.3583 5.53534 24
220 1 0.675614 -14.9473 8.4888 16
221 1 -12.4113 9.32976 4.75778 17
222 1 16.606 3.26809 5.61526 10
223 1 1.80726 2.94181 -7.11856 21
224 1 -5.96983 -8.84516 -13.708 10
225 1 3.66409 0.766866 12.6342 22
226 1 2.84961 -16.9168 5.69946 19
227 1 -5.84259 7.6825 -10.871 20
228 1 1.34933 -9.31178 -15.1888 12
229 1 8.23269 -0.551227 -12.4742 14
230 1 2.10744 8.15106 -14.4873 16
231 1 -6.18542 -4.38199 -4.52308 21
232 1 -5.20291 14.961 -4.80159 19
233 1 -11.1464 -11.3775 10.8488 14
234 1 7.9571 15.7525 -0.654131 11
235 1 -11.6225 -0.494127 15.2776 13
236 1 -4.69129 10.4465 -0.288447 20
237 1 6.90742 -0.150173 7.96688 18
238 1 -3.48288 -5.54633 -12.3653 17
239 1 -4.53917 9.28829 -7.90842 19
240 1 0.886036 5.96983 -9.55476 21
241 1 -9.71255 -11.3261 7.27177 16
242 1 -8.77925 2.40466 13.0179 20
243 1 -8.88983 7.72185 12.2066 18
244 1 -0.78687 -13.268 -5.70951 19
245 1 -6.47912 -17.3845 0.239371 15
246 1 7.52401 -16.0185 -0.153379 11
247 1 1.64099 -11.6196 0.538475 19
248 1 11.0962 6.75375 13.5183 17
249 1 3.46291 10.6698 -9.02573 16
250 1 -1.63983 10.3576 1.19446 18
251 1 -10.2016 0.656932 3.80487 21
252 1 -12.2654 11.4476 -0.446581 12
253 1 3.05216 4.67346 12.4362 23
254 1 0.670185 -17.4716 3.40706 21
255 1 10.2057 2.50554 -3.93024 19
256 1 0.283823 7.61487 8.02228 18
257 1 -9.98259 6.55567 6.27727 21
258 1 -8.91231 -6.22336 -4.02312 22
259 1 6.53072 4.39581 -10.4194 19
260 1 2.69078 -2.53567 9.33072 20
261 1 8.31975 8.60895 -7.7639 17
262 1 1.50514 -12.6907 -2.32856 18
263 1 -4.5006 -2.90427 -14.0582 18
264 1 0.0144809 -18.9029 6.23354 16
265 1 6.20796 0.838171 -6.72932 21
266 1 -10.1985 -3.71613 7.27732 22
267 1 2.13143 -16.9681 0.388237 17
268 1 -10.3978 -8.95139 -9.05063 17
269 1 2.66079 14.4684 -1.40609 19
270 1 1.88279 -3.21809 -13.6289 18
271 1 4.4166 1.87572 16.1117 15
272 1 14.5843 1.87541 2.12707 14
273 1 -4.57809 -8.68204 1.94253 21
274 1 9.24928 -4.11079 -7.72878 19
275 1 -2.14591 -9.59486 2.3568 21
276 1 -8.31444 -4.63765 -10.2709 17
277 1 -9.7202 -1.96859 -10.0781 22
278 1 -8.98816 -17.0136 10.2569 11
279 1 11.5456 -0.762616 9.70812 18
280 1 6.00094 -4.0584 9.26502 22
281 1 -6.31181 -11.0855 -11.637 14
282 1 0.906783 -8.14927 6.25724 21
283 1 -0.207192 8.3867 -12.0722 21
284 1 6.71383 10.1942 -0.899408 17
285 1 -7.11893 -7.10306 4.44225 19
286 1 0.750999 13.75 5.29865 18
287 1 -8.04305 -2.98651 12.3217 21
288 1 -11.5073 -11.4134 -7.63958 11
289 1 -5.53166 -5.6153 -9.11985 18
290 1 -2.90387 7.56385 -13.0837 17
291 1 -6.64544 -7.41691 -6.08907 23
292 1 -3.81237 -11.7324 3.89747 21
293 1 9.38592 -6.64077 -14.1536 10
294 1 13.8128 -2.04352 -8.16085 16
295 1 8.88863 1.54395 4.94526 18
296 1 -3.87679 -5.24005 -2.21628 20
297 1 -9.04105 -6.20605 11.9302 21
298 1 -3.92464 -12.3095 -0.728434 19
299 1 8.2768 5.19803 17.3048 16
300 1 -8.50819 -15.303 4.72151 21
301 1 -2.7679 -13.2737 1.73417 19
302 1 -2.65277 17.489 -0.352315 13
303 1 3.91052 -1.33446 -12.4333 18
304 1 -8.0813 -6.15721 -13.0973 11
305 1 6.2978 -6.88694 3.43741 18
306 1 -12.1072 -8.9371 12.8558 12
307 1 5.56649 6.55865 18.4286 16
308 1 0.37737 -13.8022 -0.136453 18
309 1 -2.45536 -14.5037 -11.2702 10
310 1 -12.0567 2.22422 -10.381 18
311 1 7.91307 4.7534 5.47379 19
312 1 -6.56589 0.421332 -9.968 22
313 1 -3.01908 7.3415 -6.0018 19
314 1 -4.53084 -3.03873 8.81057 21
315 1 6.28825 -11.999 -9.61261 13
316 1 -6.01904 13.1638 0.111469 22
317 1 0.193145 9.85809 4.50798 21
318 1 11.4258 -4.52238 6.413 14
319 1 -9.65116 0.689461 7.34343 22
320 1 -3.45295 -5.11909 13.6782 20
321 1 -5.16416 10.353 5.61386 21
322 1 4.2983 -7.10793 -9.77555 19
323 1 12.724 7.24965 -5.01631 15
324 1 5.37422 -12.7347 0.770663 17
325 1 -2.81733 -3.81243 16.1122 13
326 1 -15.7523 -4.10783 6.55991 14
327 1 0.134545 -17.9266 -2.52373 12
328 1 -9.72376 7.84613 15.1178 10
329 1 -12.6052 6.30511 15.2765 9
330 1 -16.0106 -4.21479 9.82085 12
331 1 -14.2569 -6.38953 7.68458 17
332 1 11.9139 -3.15616 -1.42553 20
333 1 -13.5313 -9.18821 9.65244 16
334 1 8.04661 -1.48432 -9.51565 18
335 1 9.88257 -12.5726 -2.10203 15
336 1 2.74757 16.4526 -3.84039 13
337 1 -2.80381 -5.81312 6.99579 21
338 1 -10.4761 13.5907 -2.74766 11
339 1 1.39011 -0.262234 7.3688 19
340 1 11.0169 5.55834 10.4795 16
341 1 -9.80616 -1.7167 5.06395 17
342 1 7.21116 -10.0161 -2.41546 17
343 1 -2.24543 8.42203 3.16566 19
344 1 -8.18702 5.20005 4.32883 19
345 1 4.49295 -12.7383 10.212 12
346 1 10.495 -7.44093 6.98922 16
347 1 -3.98958 3.9643 8.78798 19
348 1 -6.41342 -1.62643 -5.39127 17
349 1 -2.27259 1.90807 17.7408 12
350 1 -5.29551 13.0312 6.18068 20
351 1 10.1684 7.79154 16.2633 16
352 1 -9.86428 11.2985 -5.37076 15
353 1 0.328016 -4.59307 -16.5485 13
354 1 -7.31213 1.45507 -3.46656 22
355 1 6.33792 -8.82924 -9.94985 18
356 1 -12.1013 2.82614 12.0445 21
357 1 -13.2184 4.69867 1.63316 20
358 1 -3.99891 -3.43009 -7.35406 18
359 1 -5.05864 10.8057 2.74674 21
360 1 8.2579 -5.87936 8.10839 24
361 1 -10.6192 -10.7178 2.19483 20
362 1 3.96878 -7.48649 5.40918 19
363 1 -8.73618 -10.8136 12.456 15
364 1 -10.7753 5.9649 -0.31712 21
365 1 3.23795 -5.04212 10.7272 21
366 1 2.47502 -12.7269 -6.13676 16
367 1 -8.59359 -5.08496 -6.89956 20
368 1 6.00343 -2.8766 -11.8476 18
369 1 6.67254 14.3548 3.00428 20
370 1 -9.98203 1.70376 -2.15703 19
371 1 3.93582 -9.8984 -7.24362 21
372 1 8.68547 3.10674 -12.7704 11
373 1 -5.1316 -16.5566 -5.504 12
374 1 -10.9036 -8.54467 -3.06891 22
375 1 -3.19687 -8.77934 -0.806829 19
376 1 11.1421 4.35454 16.1336 12
377 1 15.3444 3.20154 -0.786631 9
378 1 -9.66769 0.760869 -11.2998 20
379 1 5.13375 17.556 -0.784513 10
380 1 -13.4443 -0.0432066 -5.8007 19
381 1 -7.41337 8.73011 7.28183 22
382 1 -7.30245 12.5464 2.94118 22
383 1 -7.03627 5.34689 9.76824 19
384 1 8.64543 3.56875 11.8781 17
385 1 11.2296 -2.82891 -4.11903 18
386 1 6.97007 -3.53801 15.6041 14
387 1 13.8571 -1.77126 -5.14269 19
388 1 -6.217 -15.5299 -2.25347 18
389 1 -5.42191 2.11784 -0.541677 20
390 1 1.85916 -9.10398 -0.807297 18
391 1 0.584915 12.3612 2.22939 18
392 1 -9.62701 0.607819 -7.93353 20
393 1 4.19401 -11.1673 -2.12701 17
394 1 8.75041 -2.12717 9.04403 19
395 1 -10.6521 0.346537 -4.8523 20
396 1 -7.99492 -10.0074 1.18734 19
397 1 -9.43166 -7.98459 14.3254 14
398 1 -2.68002 12.8805 0.57011 20
399 1 -8.14237 -9.30558 -3.95515 22
400 1 7.99095 10.2457 16.5963 12
401 1 -9.75157 8.49368 -2.90319 19
402 1 -0.942817 13.1296 -6.89417 21
403 1 6.04555 11.9717 5.62021 23
404 1 -14.4731 -6.77695 1.02415 15
405 1 -0.680025 -10.2441 -3.89861 20
406 1 -12.5084 -1.48653 6.73513 17
407 1 -10.8339 5.1003 -3.2034 21
408 1 2.40784 -11.2789 4.98075 21
409 1 -6.49157 -12.4179 -3.28515 22
410 1 11.1425 11.2648 8.72433 11
411 1 5.00785 7.63373 -13.8786 14
412 1 -12.5977 5.34618 -9.35719 16
413 1 -2.69527 15.3098 -7.27077 17
414 1 -9.90657 5.36024 -8.22328 17
415 1 -1.62757 -13.4232 5.64222 25
416 1 13.9182 4.10874 4.84955 16
417 1 -0.485439 5.95578 -14.7686 20
418 1 -4.55322 0.62885 10.0397 22
419 1 -16.221 5.8124 -0.808116 7
420 1 -9.19279 4.0211 7.40735 18
421 1 -5.29288 -14.4151 5.19143 21
422 1 1.13237 -4.7961 -5.98261 20
423 1 7.03112 -9.67915 -7.11117 20
424 1 -0.663549 -4.63724 5.60811 19
425 1 -13.9682 -0.660917 3.45928 16
426 1 -15.2296 -0.916326 9.45088 18
427 1 -13.7784 6.20761 4.66104 12
428 1 0.19063 -5.75041 9.37023 20
429 1 -7.13639 2.80086 -15.6582 13
430 1 6.78874 -13.4245 -1.86543 19
431 1 0.844563 -9.93822 -9.08877 17
432 1 -2.26388 -4.11025 10.7494 20
433 1 4.16182 -7.81789 -2.42966 16
434 1 -5.85427 4.74944 -17.2305 8
435 1 4.65267 -12.8811 4.10403 18
436 1 0.368461 12.4086 -3.6796 20
437 1 -12.8717 7.48989 7.40035 17
438 1 -6.39331 -4.09248 15.0302 16
439 1 -11.8025 -7.79617 -12.1992 9
440 1 -8.55699 -6.53732 8.47817 21
441 1 9.32881 -4.65791 11.0075 17
442 1 5.00382 5.49712 -0.359172 20
443 1 -5.08131 7.51399 4.0813 21
444 1 0.419713 0.360957 -9.22065 21
445 1 8.77391 -9.06768 9.00742 15
446 1 13.8301 6.07653 -1.83031 13
447 1 -2.41259 1.58827 14.1948 20
448 1 -0.276553 13.6973 -0.775406 15
449 1 4.95381 -4.85929 6.35973 23
450 1 -3.82202 -14.0026 -4.03529 23
451 1 -5.20485 3.26885 18.0329 9
452 1 -4.10884 17.3588 9.13898 10
453 1 -8.90981 -12.6571 -5.88004 16
454 1 9.71244 16.0948 2.14343 12
455 1 3.96252 6.76408 9.21566 19
456 1 -7.65762 0.555127 10.2475 21
457 1 -5.74394 -7.26317 -2.86862 18
458 1 -14.2633 2.58608 8.87816 17
459 1 -9.80949 -8.52246 -6.06567 22
460 1 -6.56054 8.43361 10.0684 20
461 1 -6.16986 -13.6994 -6.19088 17
462 1 -1.98303 -8.49281 -13.3454 19
463 1 -7.61118 -12.4459 3.29345 21
464 1 -5.62554 -2.78428 4.66872 17
465 1 9.7964 -1.10616 6.60135 19
466 1 -6.43908 -6.64451 14.4118 16
467 1 -10.8301 7.72318 -9.92144 16
468 1 8.017 4.78428 -0.284313 21
469 1 -9.22742 -16.4082 -0.862507 15
470 1 0.74138 8.54901 -7.09865 18
471 1 1.42814 16.6061 2.86041 13
472 1 -2.91314 6.0604 -3.52866 21
473 1 -0.142816 4.28776 12.8331 18
474 1 -12.806 -2.43616 -0.957841 15
475 1 0.128103 18.1826 -2.80226 10
476 1 1.6152 11.3088 -6.60574 20
477 1 -7.82205 -7.19983 -8.8021 19
478 1 2.91495 6.42512 17.3602 19
479 1 0.339328 -14.8576 -7.57123 13
480 1 -1.34466 -4.56219 -10.5259 18
481 1 5.58358 -16.4193 5.41251 10
482 1 -9.56492 8.75878 4.93379 18
483 1 0.753162 6.30755 15.1657 22
484 1 10.644 5.5248 -2.47553 23
485 1 2.16333 5.74242 0.669561 19
486 1 -8.25962 9.7941 -10.3151 15
487 1 3.46855 4.46051 -9.63145 24
488 1 1.12971 -9.22547 3.01448 21
489 1 -15.4098 -4.44362 -1.33882 10
490 1 3.13208 19.5341 7.89462 7
491 1 -7.19214 5.10031 -11.3647 14
492 1 10.2937 6.79771 0.411469 17
493 1 5.73123 16.0022 -7.32878 8
494 1 7.31488 -5.75806 0.809475 17
495 1 14.3959 0.17298 -2.92569 13
496 1 -1.78239 0.721053 -12.9049 20
497 1 -0.147508 -12.2923 3.11566 25
498 1 -0.570702 -15.9067 6.18036 22
499 1 4.14814 -9.75616 11.1035 17
500 1 -6.69144 3.60479 -6.30788 23
501 1 -11.0898 -13.7207 6.65179 18
502 1 1.04504 -13.7587 -10.4807 13
503 1 9.58786 14.0784 4.33648 16
504 1 -1.5402 5.02174 -11.6069 22
505 1 2.11244 0.573124 17.3096 9
506 1 -14.7945 1.58632 11.6568 15
507 1 -1.93774 -21.8581 1.05907 7
508 1 -11.6184 -1.96721 2.57832 22
509 1 11.8181 -6.74881 -5.13738 18
510 1 9.67264 -0.53354 -1.67503 19
511 1 -3.73486 4.24648 -6.11734 19
512 1 -0.644088 -7.97858 -6.0118 20
513 1 3.32851 1.4752 -14.6929 17
514 1 11.9005 -3.96227 -6.7346 19
515 1 -6.61521 -0.8764 15.0972 19
516 1 4.22542 16.1775 1.68181 15
517 1 -7.59526 -3.13488 -14.9596 10
518 1 4.68488 3.16026 -16.3733 9
519 1 -7.50034 -3.82292 9.55942 21
520 1 -1.18525 16.4949 7.29301 17
521 1 -6.99968 -2.76991 -12.2259 21
522 1 -16.3646 0.314825 2.17603 11
523 1 -0.601756 -11.0203 -14.6003 10
524 1 -6.23139 -12.2428 12.2611 12
525 1 -1.89633 10.3577 -7.98624 20
526 1 16.525 3.91115 8.51984 13
527 1 13.963 4.82861 1.5456 17
528 1 -10.765 -13.1896 0.255766 15
529 1 -1.04406 -10.8836 -0.496673 25
530 1 -5.36711 -1.17823 -17.4468 9
531 1 -9.08986 10.3877 10.5629 15
532 1 3.32514 -7.24537 -6.57562 18
533 1 0.70769 8.69447 2.14078 18
534 1 8.97801 -2.87836 0.764779 19
535 1 2.09586 14.9158 -7.18236 16
536 1 4.13359 -9.82657 2.19732 14
537 1 13.4396 3.00588 -7.53607 10
538 1 1.09337 9.23872 17.7033 16
539 1 -9.65244 2.61763 10.0455 20
540 1 5.13724 11.2015 9.25669 17
541 1 6.66568 -0.0260332 16.5758 15
542 1 -2.42927 3.54854 -14.4046 18
543 1 -3.61662 -5.86291 -5.22453 21
544 1 0.621447 -2.68001 11.5744 19
545 1 7.60873 9.6937 7.59377 19
546 1 5.99605 7.37658 -9.57885 17
547 1 -7.45967 9.38761 -4.8288 18
548 1 -2.04029 10.9835 -2.01535 20
549 1 10.0032 -3.77175 14.0244 12
550 1 9.69923 1.11348 -10.0096 20
551 1 11.5916 -10.3369 -3.88667 13
552 1 11.0333 8.74191 10.7361 17
553 1 -14.5262 -4.22639 2.98061 16
554 1 -2.77496 12.8709 -9.16066 16
555 1 0.184508 0.0841636 11.7289 17
556 1 -14.3993 -0.215447 14.1597 11
557 1 -5.89255 14.2618 -8.3332 14
558 1 4.43013 -15.3514 -0.472188 19
559 1 7.5383 -1.52619 -6.82242 22
560 1 -5.55482 17.4188 -2.56232 13
561 1 -8.51798 -8.60153 -11.236 16
562 1 1.89042 -17.9797 8.69256 11
563 1 -12.211 -4.87597 0.717901 19
564 1 2.48782 12.6892 -14.9859 6
565 1 -8.28862 3.31956 -0.0920597 19
566 1 -4.55206 9.09383 17.548 11
567 1 -11.4334 -6.03835 8.95598 20
568 1 2.86641 7.88221 -1.23835 20
569 1 0.889742 -10.1157 -6.35333 17
570 1 4.26064 -7.16644 12.1061 16
571 1 5.34526 3.6504 -2.41112 18
572 1 -8.22508 6.34668 1.1544 18
573 1 5.5269 4.71807 15.4309 22
574 1 7.74785 14.3172 -5.44386 12
575 1 9.92986 -5.31456 -4.30702 19
576 1 5.74886 6.37033 12.1751 20
577 1 1.89659 3.95274 -18.1671 10
578 1 -5.8899 -15.233 10.5034 9
579 1 -2.16136 2.12637 -10.4854 20
580 1 5.64986 -1.75596 -14.694 14
581 1 2.97292 14.863 6.94016 16
582 1 8.51917 3.7591 -8.18707 18
583 1 -1.29744 -1.99879 -14.6285 18
584 1 -3.73305 -12.0167 -6.49957 21
585 1 -10.7336 -5.82411 -10.6085 17
586 1 11.247 2.66764 2.93526 20
587 1 12.7377 2.96731 -1.58889 16
588 1 6.96101 -4.35679 -5.66575 20
589 1 14.058 7.01236 11.6866 12
590 1 4.15896 -14.1288 -4.31019 17
591 1 2.43721 5.80869 -16.1416 14
592 1 5.98301 11.1289 2.2397 21
593 1 -6.38572 5.42194 6.7374 19
594 1 9.28527 9.45346 13.3406 14
595 1 10.4105 3.17973 0.338609 18
596 1 12.8733 -0.325981 3.04301 14
597 1 12.1078 7.66648 -7.84147 12
598 1 8.18851 1.93338 14.1183 18
599 1 15.605 4.05533 11.2622 10
600 1 2.26598 -5.71144 7.40155 23
601 1 10.966 10.3974 -3.86092 17
602 1 5.36113 3.16488 1.1247 22
603 1 0.577163 2.23389 14.4011 20
604 1 16.7173 -3.23622 -5.54184 7
605 1 11.0774 2.35364 8.92767 16
606 1 -6.53174 -2.22245 -8.74371 22
607 1 9.90417 5.51237 3.01583 22
608 1 9.97201 -3.47093 4.14098 19
609 1 -0.966395 -7.7365 0.812193 20
610 1 -12.2149 7.72545 12.4153 11
611 1 8.30998 10.7864 10.4605 15
612 1 11.3344 1.66643 12.3086 19
613 1 0.926953 7.06774 10.5234 17
614 1 -2.09527 15.5405 9.81129 14
615 1 5.69568 6.5344 5.23993 21
616 1 -2.19302 -18.4229 3.23102 16
617 1 -8.10528 11.4198 -2.23303 19
618 1 7.88189 9.86205 -4.97625 20
619 1 9.04203 -3.97188 -11.5681 14
620 1 0.859516 16.623 -0.0971335 14
621 1 -5.00892 -13.288 -9.04567 15
622 1 11.6496 -7.81188 -12.078 8
623 1 -12.7017 1.21389 5.76663 17
624 1 -4.62004 6.0523 -8.46621 20
625 1 -5.47147 -17.1953 3.42764 16
626 1 -3.28395 -0.35615 -8.67694 21
627 1 -13.4174 2.8199 -4.15783 20
628 1 9.0684 -6.37958 4.64714 19
629 1 11.6651 10.809 3.25605 20
630 1 1.73066 -8.23086 10.1884 22
631 1 -13.334 -3.04766 -7.08446 16
632 1 1.10009 1.19371 -16.4658 16
633 1 5.13316 -7.14997 8.96621 22
634 1 -4.57923 5.90798 16.5869 17
635 1 7.07041 9.46178 -12.17 10
636 1 12.0598 -1.56567 13.6245 15
637 1 6.40591 6.72114 -6.41801 20
638 1 10.6045 12.6873 1.72251 18
639 1 3.8725 -14.216 -8.13862 12
640 1 -11.3224 -3.05608 14.0155 17
641 1 12.0023 -2.94938 1.61551 17
642 1 -1.62119 10.3261 13.098 16
643 1 5.42987 12.9014 -7.437 15
644 1 -13.9299 6.95135 -4.39365 14
645 1 8.93878 11.2916 4.86579 20
646 1 -8.86773 -15.0148 1.56494 18
647 1 11.8028 -5.85852 2.87562 16
648 1 7.85201 17.3723 5.08845 13
649 1 -5.35819 3.24398 11.284 24
650 1 -9.57436 -7.69437 2.66946 18
651 1 -12.1665 -4.08098 -9.66719 15
652 1 7.15041 2.49598 9.37489 18
653 1 -3.44211 -10.4759 13.1026 9
654 1 8.34563 5.52232 13.9884 19
655 1 -4.32226 13.9593 3.2795 19
656 1 6.85824 6.00031 2.63889 22
657 1 7.01307 -3.9114 3.49342 20
658 1 5.01241 3.54056 7.358 19
659 1 1.07958 -0.0214456 -12.8886 19
660 1 -9.82204 -1.85251 9.95063 22
661 1 4.65204 -1.45783 -9.31685 20
662 1 -0.584596 -7.6751 -2.45174 19
663 1 8.41343 -11.5288 -4.49193 21
664 1 6.44873 6.13544 8.69841 20
665 1 5.58615 3.4308 4.24122 20
666 1 -12.3365 -0.905431 12.1592 21
667 1 9.21836 6.66124 8.09316 16
668 1 -0.798436 -6.7624 15.1424 10
669 1 -3.42691 4.46025 13.5575 21
670 1 -1.33604 -4.9821 -14.0527 18
671 1 -5.42634 0.948343 13.2684 21
672 1 5.96749 3.24942 12.889 19
673 1 -11.7475 -17.0572 8.09625 11
674 1 12.0738 8.63539 -1.65459 17
675 1 9.42012 -15.878 -2.6972 10
676 1 -3.95358 3.32166 -3.5758 22
677 1 8.97973 8.21613 -2.33104 21
678 1 12.7871 14.3715 2.49794 10
679 1 3.98022 -0.339138 -17.4248 11
680 1 -1.44143 -0.556986 8.94595 22
681 1 0.254817 15.4259 -4.84453 19
682 1 10.5979 10.0808 0.167955 18
683 1 -6.447 -9.98357 -1.15891 21
684 1 -2.10452 0.505716 -16.4642 16
685 1 -10.0343 10.5655 2.52579 18
686 1 6.8565 -6.03719 -12.0562 20
687 1 4.52694 8.14899 1.52592 21
688 1 9.60544 6.42535 -9.81867 14
689 1 8.30506 12.4441 -2.73833 18
690 1 -3.49518 3.03651 5.97 21
691 1 -6.15609 8.15212 -2.05471 18
692 1 4.36124 5.06904 -4.79139 24
693 1 11.153 1.37379 15.1024 14
694 1 9.69143 -1.22777 15.8393 14
695 1 -3.75271 -9.09118 9.16216 19
696 1 -5.97595 9.30097 -13.0179 11
697 1 2.77588 11.6314 6.36918 18
698 1 8.33851 -8.89817 -12.511 15
699 1 1.36934 2.05349 10.3687 20
700 1 3.40166 13.2469 -4.56601 19
701 1 6.2954 9.26841 4.32144 22
702 1 12.3632 -7.02581 -2.00641 18
703 1 7.50241 8.52645 19.1354 9
704 1 -12.7251 -2.78693 9.19078 20
705 1 -0.36191 -15.3437 2.31569 21
706 1 -1.7886 -1.7423 -11.7139 22
707 1 -10.0714 14.1841 3.7485 13
708 1 -0.495254 4.05714 7.01482 19
709 1 7.31952 -6.23928 -2.28697 16
710 1 3.21672 10.9621 3.50205 19
711 1 -12.4644 -4.76807 5.97754 20
712 1 -2.06453 5.1261 18.5694 15
713 1 -6.26524 6.49228 -15.3862 13
714 1 -8.6402 7.9581 -12.9465 12
715 1 2.94007 -14.435 2.24892 19
716 1 5.49785 9.52984 -6.68363 19
717 1 3.89892 -5.20033 2.99802 17
718 1 -2.85409 5.84869 5.35881 23
719 1 -14.3526 4.77244 13.2812 11
720 1 3.73692 -4.24075 -10.5646 23
721 1 1.29829 -11.6588 10.4652 15
722 1 3.91318 14.9782 4.50651 17
723 1 -4.17549 -0.281051 16.8376 15
724 1 -10.1381 -10.9161 -11.2357 10
725 1 -3.34857 -11.1192 -12.1313 20
726 1 -6.64083 -10.6774 -5.79147 16
727 1 -4.62245 17.3034 -6.33617 10
728 1 3.83453 -4.80144 -4.48767 18
729 1 -4.08354 10.2063 8.63686 22
730 1 5.85368 -12.3552 -6.31683 18
731 1 4.36168 -17.4287 2.6394 14
732 1 3.76321 -9.89643 7.55504 22
733 1 15.647 0.0100886 -7.16121 11
734 1 1.10273 -15.3287 -3.24849 20
735 1 -11.438 -4.16114 11.3158 23
736 1 2.21873 -1.3528 -7.05421 19
737 1 -5.36066 -20.3415 1.30804 9
738 1 -9.37728 -13.9685 -2.61839 16
739 1 -12.4847 0.57355 9.2137 21
740 1 -8.37663 -18.0831 2.19001 11
741 1 12.879 4.25226 -4.56074 15
742 1 -4.26313 16.1218 5.98376 15
743 1 -6.63121 2.28478 7.9956 23
744 1 -10.5681 6.30365 2.93219 21
745 1 10.1074 -0.48962 3.15082 20
746 1 -14.5953 1.01497 -11.2359 9
747 1 -0.262921 7.64862 -3.6442 21
748 1 9.30983 1.56021 -6.34338 19
749 1 6.01458 10.2845 14.8328 14
750 1 7.67866 4.06261 -5.33992 22
751 1 -15.0605 0.157387 -8.08285 15
752 1 -11.7644 -6.07347 -7.138 19
753 1 -1.44836 8.58683 19.0636 12
754 1 4.14549 6.97936 -11.299 21
755 1 11.6909 13.1519 6.10038 11
756 1 -2.5138 -1.25441 11.9204 19
757 1 -3.40467 -17.0374 -2.78559 16
758 1 -9.62068 -18.0745 7.02029 14
759 1 -4.07966 -6.44566 10.0194 19
760 1 13.6588 8.94801 8.88295 13
761 1 1.5023 -5.8855 -9.08151 20
762 1 -7.78659 10.0016 0.113817 23
763 1 8.51712 8.92734 2.22216 23
764 1 -7.38085 -4.1332 6.28639 23
765 1 7.82596 6.63064 -12.338 12
766 1 -1.41809 -16.209 -5.23033 15
767 1 0.651071 -20.5902 3.23462 11
768 1 -1.23439 -16.5564 -0.389838 21
769 1 5.77316 3.67198 -7.3854 18
770 1 7.01659 17.7895 2.27743 11
771 1 -5.17536 2.51728 -12.4943 20
772 1 -1.22395 -0.530127 16.11 13
773 1 -0.442383 5.98435 -18.6612 8
774 1 -12.3009 -4.39435 -13.8833 5
775 1 -10.644 -5.09961 -1.84238 19
776 1 -2.71408 16.8616 -3.51194 15
777 1 7.66043 0.363057 0.858745 17
778 1 -3.79895 -6.4433 -15.2736 10
779 1 -6.68386 -7.24277 1.02575 18
780 1 7.123 5.87838 -3.18833 20
781 1 9.10638 -8.21245 2.50412 22
782 1 -6.47171 5.533 12.8411 21
783 1 5.462 -9.9554 4.68782 19
784 1 11.9037 -7.79489 0.713532 15
785 1 12.3402 -4.06808 11.6304 12
786 1 -0.512534 10.8952 7.14013 19
787 1 -12.1061 2.4303 15.2627 13
788 1 -9.71934 4.33297 14.7846 16
789 1 -3.4085 -14.525 8.03295 16
790 1 7.82879 2.70719 2.52097 21
791 1 3.10434 10.5409 14.8538 11
792 1 -16.4398 -0.934361 -1.28256 13
793 1 12.7275 -10.5651 -0.855426 11
794 1 -12.6933 10.8127 -3.83613 11
795 1 3.09249 8.52842 4.76409 19
796 1 -1.42492 -17.1922 8.55803 13
797 1 6.29008 0.339572 11.213 20
798 1 -2.54971 13.0348 6.92142 22
799 1 1.22751 -12.3622 7.30718 16
800 1 -9.05679 -1.92773 -3.36685 20
801 1 2.57939 3.95645 15.0865 16
802 1 -14.0523 -7.6864 -1.94295 13
803 1 -1.73654 10.0704 16.4844 14
804 1 3.69391 13.5432 1.8303 19
805 1 -12.361 -11.1047 4.92027 15
806 1 -6.56795 -16.808 6.69431 11
807 1 7.15333 -7.43022 10.3693 19
808 1 11.8242 -6.6914 9.29905 12
809 1 4.5243 9.39754 7.09911 17
810 1 -5.89288 5.28108 -1.50436 20
811 1 -1.91119 -9.80984 -8.64589 18
812 1 -4.76758 -0.444656 -11.7683 20
813 1 -4.41044 -2.29292 13.911 17
814 1 -1.56883 16.9739 4.51361 13
815 1 15.3206 0.163309 4.95969 9
816 1 -1.33659 10.0131 -5.44944 20
817 1 -4.83194 7.67748 14.0483 19
818 1 6.20089 8.36058 10.262 16
819 1 4.16322 -4.31909 -7.68791 20
820 1 -7.89498 -12.8842 -0.498994 22
821 1 -7.26286 0.691096 -6.6138 23
822 1 14.0121 -1.68687 7.76376 12
823 1 -0.808616 -2.33937 -8.40465 20
824 1 -2.074 7.42648 15.4651 24
825 1 10.9042 -14.2331 -5.20769 10
826 1 4.95542 4.26624 -12.9324 20
827 1 -3.83009 -11.225 -3.28086 22
828 1 11.3238 3.88927 -10.1836 11
829 1 14.0159 -5.31504 0.26484 12
830 1 1.0654 -9.41652 12.8346 14
831 1 -4.38103 -7.98101 -11.1491 18
832 1 5.6765 13.4307 -1.06473 17
833 1 -1.61793 -7.49912 4.25717 22
834 1 -13.7652 2.44144 3.04797 14
835 1 10.8011 4.81536 -6.91966 20
836 1 15.3671 6.54138 3.80275 14
837 1 4.37459 -4.8792 -14.01 16
838 1 -6.97988 11.6776 7.85783 22
839 1 15.8906 8.50596 6.3668 12
840 1 11.0187 12.9181 -4.92941 11
841 1 0.361068 2.75144 -13.6359 20
842 1 10.1775 -5.31865 -1.00128 18
843 1 -13.3736 0.157761 -2.7414 18
844 1 11.98 7.83574 3.14489 19
845 1 -13.0153 -10.4107 -9.30466e-04 10
846 1 -12.2977 5.56139 -6.25817 20
847 1 4.43787 3.62263 10.2707 19
848 1 -12.1975 -0.901362 -8.83534 22
849 1 -11.8742 4.78454 9.15246 19
850 1 -0.752125 3.42391 -4.92992 19
851 1 8.90607 -7.02575 -7.1869 16
852 1 -12.7407 -9.02788 -5.69913 12
853 1 13.81 -8.76326 -4.10634 11
854 1 -10.6942 3.34787 2.17788 22
855 1 -7.12347 -4.66911 -1.23162 20
856 1 11.7195 6.11772 6.23934 15
857 1 -6.75733 -9.17457 7.23242 17
858 1 9.16056 2.02806 17.5025 11
859 1 11.4022 -3.35882 8.9412 17
860 1 7.52039 -3.25357 6.61253 21
861 1 -6.7266 2.49923 5.39665 18
862 1 -1.61493 7.00607 12.4228 21
863 1 1.4506 10.9084 -12.3495 18
864 1 -0.811743 -7.48332 -16.0398 11
865 1 -7.00159 15.2871 8.51621 13
866 1 -13.0689 -11.6405 8.19168 16
867 1 5.7146 11.8347 -3.77195 17
868 1 3.83039 7.74828 14.7416 20
869 1 14.6576 -5.67784 -4.78701 14
870 1 7.19745 -5.21398 12.8924 15
871 1 -1.16049 11.9235 -12.1974 12
872 1 1.46605 12.7166 -9.81146 19