ITEM: TIMESTEP
7000
ITEM: NUMBER OF ATOMS
2000
ITEM: BOX BOUNDS pp pp pp
-30.0 30.0
-30.0 30.0
-30.0 30.0
ITEM: ATOMS id type x y z Coordination
1 1 -10.3535 4.72553 -11.0015 14
2 1 -4.99267 -9.5682 -8.44983 21
3 1 0.769373 9.53928 13.2258 15
4 1 6.85014 -11.0064 8.08279 16
5 1 -10.3257 9.25038 -0.215807 17
6 1 11.2348 -12.4867 -8.6911 6
7 1 -12.6755 2.73931 -7.20116 18
8 1 -0.191913 -5.88665 12.2138 16
9 1 -9.6161 -1.6805 -13.5028 15
10 1 -13.3744 -8.7428 7.01467 16
11 1 12.9756 1.35677 -9.42719 14
12 1 -4.43717 1.24668 -5.4885 23
13 1 -5.45798 -13.7546 1.68374 19
14 1 -12.6795 -6.14996 3.49804 21
15 1 0.656544 3.11313 17.6704 15
16 1 5.37939 -2.52786 7.47546 20
17 1 -0.688212 3.52045 10.6261 19
18 1 7.08366 -0.55422 3.89494 21
19 1 -4.19568 12.294 -7.02235 22
20 1 3.06018 -1.52205 13.864 18
21 1 -3.93679 0.421238 -14.6567 20
22 1 -13.8738 -3.3854 12.7672 14
23 1 13.45 4.91307 8.38505 20
24 1 0.724255 9.23303 -9.99527 23
25 1 1.50946 5.99472 -12.628 20
26 1 14.4464 1.02766 12.3468 11
27 1 -10.3388 0.529112 0.660481 20
28 1 -15.3358 2.38196 -5.64606 16
29 1 -2.01207 1.23811 -7.46905 23
30 1 -11.9418 8.71819 10.1872 10
31 1 3.71156 -15.3635 7.22304 18
32 1 -0.152298 -3.06719 7.49024 20
33 1 3.565 -11.1336 -9.83887 15
34 1 9.45948 -13.5887 1.24571 10
35 1 -7.89075 -15.6736 -4.3519 11
36 1 -13.6799 -5.76485 11.229 15
37 1 5.48879 -2.06211 -5.77167 21
38 1 2.16403 -4.82168 -12.0912 20
39 1 9.68966 -9.8193 -9.91342 13
40 1 -3.02394 7.5584 -16.7813 11
41 1 -0.93301 2.8753 14.7645 22
42 1 -1.00659 -11.8011 9.01416 16
43 1 5.36978 -3.97334 13.7972 18
44 1 -13.3215 1.0752 1.45942 19
45 1 -17.6466 -1.69812 8.49544 11
46 1 -7.2883 -0.525996 -1.46274 21
47 1 -4.46366 15.6383 -1.85799 21
48 1 -1.5744 -12.8226 -8.66731 16
49 1 0.617108 3.12365 -11.0779 20
50 1 6.70263 -6.50967 -8.73505 17
51 1 0.289676 -2.68042 14.8142 15
52 1 -12.3969 3.23642 -0.630091 22
53 1 4.56409 12.555 -12.5936 11
54 1 0.209411 13.81 8.44715 17
55 1 -8.86744 9.45253 -8.57196 16
56 1 -0.0707783 14.5053 2.09104 17
57 1 1.55563 -14.3712 5.04397 18
58 1 5.51589 -9.37372 -4.85572 19
59 1 6.56059 -5.27499 -16.6791 8
60 1 -10.2558 4.88415 10.7842 18
61 1 -11.0808 -3.56858 -5.0795 18
62 1 5.09371 0.557218 5.52223 20
63 1 -8.48109 6.87739 -4.9475 21
64 1 -10.7063 -9.38631 8.14244 19
65 1 -4.70032 13.7693 12.747 13
66 1 -14.0138 7.60242 -7.93339 10
67 1 -7.39806 9.55156 13.268 14
68 1 1.53284 5.38021 -5.77365 20
69 1 1.94311 5.30008 3.85832 17
70 1 -8.92748 -15.1018 8.48544 18
71 1 2.33702 4.33457 8.38082 21
72 1 6.00795 -16.3972 -1.89405 11
73 1 2.56222 9.32716 10.766 17
74 1 -14.998 1.85342 -8.86807 16
75 1 -15.3297 4.94324 -7.27786 14
76 1 7.91056 7.18472 11.3476 19
77 1 13.4883 -4.21856 -11.0837 10
78 1 7.43873 -12.4425 5.0514 13
79 1 -17.7446 -1.8537 4.57778 11
80 1 -8.9625 -1.44325 2.74384 20
81 1 7.45099 16.3535 8.53959 9
82 1 6.19348 -1.168 13.6859 19
83 1 -8.12379 -12.883 6.12413 16
84 1 -10.4529 -2.3806 -0.31293 18
85 1 12.1968 1.42088 6.13869 19
86 1 6.79789 -0.559164 -0.893857 21
87 1 -2.20426 12.1234 10.1472 17
88 1 4.31254 0.900197 8.44637 24
89 1 -4.59253 -5.72516 3.73579 19
90 1 -3.95802 -8.42211 -5.46823 19
91 1 -14.2191 6.60129 10.5593 12
92 1 -7.49693 14.9474 -2.28655 16
93 1 -2.18204 7.39677 -9.06505 18
94 1 4.30205 0.976399 -4.35565 20
95 1 7.22098 0.120286 -3.83843 22
96 1 7.62704 12.0722 -7.31862 13
97 1 6.40692 -8.01426 7.04803 22
98 1 6.70127 -11.1588 11.2912 10
99 1 -5.79217 17.9092 -0.435529 11
100 1 -8.19241 11.4443 4.95503 22
101 1 -9.2598 -4.69843 14.9405 17
102 1 -5.00185 7.3139 7.86151 20
103 1 -4.3249 -8.26786 12.367 16
104 1 14.0963 -9.67535 -7.34466 9
105 1 -11.2732 4.27354 5.24031 18
106 1 -11.2193 -14.1991 3.87061 14
107 1 8.94536 -8.90154 -4.46598 18
108 1 4.05329 1.67155 -11.2847 20
109 1 -4.60865 2.40033 -17.4614 10
110 1 2.3662 2.5491 5.71285 22
111 1 -2.12736 12.1076 3.15207 20
112 1 -8.50105 2.8343 -9.00068 20
113 1 2.79818 8.24727 18.8843 14
114 1 -2.51018 13.4907 -4.03185 18
115 1 -12.9528 8.39315 1.548 11
116 1 -0.281763 6.85281 -0.804472 20
117 1 -6.1374 -6.87488 9.69276 20
118 1 14.4062 -1.77683 11.0445 11
119 1 -1.24662 -4.61811 -7.64368 17
120 1 2.109 -7.98501 -4.66439 23
121 1 -1.22772 2.03425 7.85013 21
122 1 4.15007 -1.70205 16.496 12
123 1 -11.8262 -7.76348 0.262686 21
124 1 4.95796 -2.24559 4.40501 20
125 1 -9.22549 -7.8789 -0.90641 20
126 1 8.88989 -10.8192 3.14622 13
127 1 -5.22596 7.96547 0.939413 20
128 1 5.8286 3.11 -13.6933 13
129 1 5.48024 16.3341 -2.81552 13
130 1 -9.74361 -13.868 12.5948 10
131 1 -12.2091 -14.9664 10.25 14
132 1 -5.95003 4.49876 1.41593 16
133 1 5.68532 -7.23111 -14.2272 15
134 1 3.85045 6.48058 -7.22836 22
135 1 10.0494 -10.6808 0.670804 14
136 1 -3.40324 -16.7797 6.37654 17
137 1 -10.0252 -10.7843 -0.924326 19
138 1 16.09 6.36034 9.71945 13
139 1 14.5454 -6.06667 -7.82347 13
140 1 -16.8261 -2.24709 1.8563 12
141 1 9.00678 7.61409 5.024 18
142 1 14.2754 8.62749 4.07133 14
143 1 -9.33611 2.28914 16.8589 11
144 1 5.90488 8.49184 -3.2188 23
145 1 -4.27939 10.0536 11.7623 22
146 1 -7.98254 12.9539 -4.80261 16
147 1 -0.594403 -7.15793 -10.5488 19
148 1 8.80908 -12.371 -7.86912 13
149 1 0.0146085 15.1615 -8.93013 13
150 1 8.05244 -3.11032 11.6157 19
151 1 0.257309 -0.670619 -18.346 8
152 1 -3.51498 9.10456 -4.78649 21
153 1 10.3353 -0.307074 -4.25818 18
154 1 -11.2411 7.77578 -6.69508 16
155 1 -9.07659 12.9086 -0.100643 17
156 1 6.91301 0.928204 -9.45772 20
157 1 8.81107 -9.37776 5.37692 18
158 1 -5.25 6.29768 -4.86946 23
159 1 -9.17479 14.4599 9.85439 8
160 1 13.1329 11.1176 -6.29899 8
161 1 3.63692 11.1804 -0.216354 19
162 1 -4.34005 17.4817 2.25559 10
163 1 11.3453 11.5879 -1.00149 15
164 1 -3.09231 8.06414 -2.01867 23
165 1 -0.919477 17.5932 -6.29906 11
166 1 4.3025 10.8928 -14.2648 11
167 1 -14.0874 -8.88515 3.37692 13
168 1 -12.6185 7.71905 -2.53664 17
169 1 -4.67647 -2.82594 -10.4526 19
170 1 1.8132 -7.63596 -12.5896 19
171 1 8.08455 12.9844 7.54571 19
172 1 -0.538306 17.2604 9.22943 12
173 1 -13.6171 -3.01848 -2.99759 15
174 1 -9.43071 13.1703 6.39555 14
175 1 14.6328 -2.99249 -3.18668 14
176 1 -9.93854 3.29044 -13.7208 9
177 1 6.29097 3.15719 18.2269 13
178 1 2.98975 18.6693 5.68855 11
179 1 -1.0362 8.9433 10.3204 20
180 1 3.05884 -5.64546 -14.981 16
181 1 -5.56754 12.6987 10.163 18
182 1 -5.10733 11.7859 -3.71106 20
183 1 2.4421 -5.5996 14.6725 11
184 1 -10.3171 -4.37783 4.28675 19
185 1 -0.846774 -11.6594 -11.7678 16
186 1 -7.01514 11.3019 -6.8159 17
187 1 -3.13852 -11.2456 7.18629 18
188 1 2.92612 -16.7429 -3.58675 10
189 1 -2.99126 10.1369 -11.0829 20
190 1 -16.216 1.49728 9.11825 12
191 1 1.89734 5.34155 -2.30555 23
192 1 9.93546 7.06847 -4.70089 22
193 1 -7.87042 4.99583 15.5866 15
194 1 -1.22536 -9.94139 11.1108 15
195 1 -6.93467 1.47752 1.64353 22
196 1 -0.0584752 18.2222 6.26213 15
197 1 -1.90494 6.11318 8.1974 18
198 1 13.6466 3.78349 13.1889 12
199 1 -7.61075 14.7815 4.49178 14
200 1 11.9058 -7.07583 -9.45241 16
201 1 -7.93434 12.9808 12.0967 11
202 1 -5.30757 2.53276 -8.56493 21
203 1 12.1133 -8.99369 3.70629 10
204 1 -5.27186 -6.29879 6.62202 18
205 1 -15.9727 -0.405281 6.26141 15
206 1 -9.50628 -10.2298 5.27338 18
207 1 6.23297 7.79407 15.1432 20
208 1 -15.8503 -0.0675494 -3.45543 14
209 1 -3.59468 -17.8685 0.900001 18
210 1 -5.93884 -3.00765 -2.53203 20
211 1 9.77524 -8.36901 -1.27823 17
212 1 -1.94685 8.34885 6.65973 21
213 1 -7.41721 0.108304 5.00714 22
214 1 4.0096 12.4405 11.8536 9
215 1 -9.38311 -2.03579 -6.95778 18
216 1 -6.04103 11.4361 -9.71756 17
217 1 -12.9296 -6.22124 -4.75872 16
218 1 -9.41986 0.249923 12.4475 20
219 1 -0.808317 -10.6088 5.56252 23
220 1 1.22489 -14.8886 8.93796 14
221 1 -12.2911 9.56582 4.42594 12
222 1 17.2538 3.17057 5.7252 9
223 1 1.18187 3.16047 -7.90297 21
224 1 -5.3173 -8.03114 -13.5446 15
225 1 2.96522 -0.148026 10.91 17
226 1 4.90469 -18.1373 6.13648 9
227 1 -5.49044 8.08913 -10.6751 21
228 1 2.97692 -9.18638 -14.7523 12
229 1 8.10399 0.652082 -12.5593 12
230 1 2.04174 8.30987 -14.6299 17
231 1 -6.97087 -4.73429 -4.90313 17
232 1 -5.13973 14.4631 -4.93057 19
233 1 -12.4268 -12.2451 11.7307 12
234 1 8.31583 15.8675 -1.1038 11
235 1 -11.2027 0.369631 15.6558 17
236 1 -4.64612 10.3716 -1.37699 21
237 1 7.26547 -0.15045 7.65576 17
238 1 -3.58107 -5.16982 -11.9363 20
239 1 -4.51139 9.23008 -7.88803 19
240 1 0.609567 6.02748 -9.09932 25
241 1 -10.807 -12.4909 7.80507 17
242 1 -8.17184 3.28392 12.6521 21
243 1 -9.55482 7.97535 11.9074 15
244 1 -0.84529 -12.4897 -5.76636 19
245 1 -6.24024 -16.6745 0.118756 17
246 1 7.6353 -15.6183 0.0504315 12
247 1 2.13232 -11.509 0.586237 18
248 1 10.9261 6.1442 12.8452 17
249 1 3.55455 9.84817 -8.99242 20
250 1 -1.61571 10.4137 0.411834 20
251 1 -10.5914 1.57657 4.14667 18
252 1 -12.982 10.6628 -1.09762 10
253 1 2.70046 4.07877 12.1573 18
254 1 0.951856 -17.5443 3.64743 16
255 1 10.7812 2.37131 -3.93729 18
256 1 0.847055 7.56366 7.39745 19
257 1 -9.99114 6.45753 6.03309 17
258 1 -9.62512 -6.53393 -4.33754 22
259 1 6.03321 4.85765 -10.4871 20
260 1 2.85333 -3.06313 8.96112 21
261 1 8.14859 8.86094 -7.23496 15
262 1 1.76055 -12.3167 -2.39641 19
263 1 -3.85668 -2.86015 -13.7729 18
264 1 -0.365375 -17.9713 6.28393 17
265 1 6.40729 0.640315 -6.66786 18
266 1 -10.2109 -3.42247 7.91492 21
267 1 1.60955 -17.8158 0.660853 14
268 1 -11.5122 -7.40585 -9.01672 14
269 1 3.50636 13.8203 -2.50618 18
270 1 1.72694 -2.4587 -14.1331 19
271 1 4.16598 2.19352 16.3132 16
272 1 14.7923 2.66388 3.94751 17
273 1 -5.11877 -8.42648 2.31715 18
274 1 9.57164 -4.1341 -8.49399 17
275 1 -2.34871 -9.66475 2.42495 22
276 1 -8.98946 -4.27366 -10.3572 17
277 1 -10.4229 -1.86176 -10.3448 22
278 1 -9.95879 -16.8652 10.9307 10
279 1 11.6374 -1.13248 10.4512 18
280 1 6.02546 -5.04771 10.1256 19
281 1 -6.21402 -10.0616 -11.3341 15
282 1 1.1027 -8.97217 6.45471 18
283 1 -0.763499 8.10149 -11.8112 23
284 1 6.78389 10.329 -0.522615 21
285 1 -7.83323 -6.62202 4.87963 20
286 1 0.312899 13.3209 5.02226 21
287 1 -7.85709 -2.76899 12.7096 23
288 1 -10.7642 -10.6479 -8.05246 15
289 1 -5.96916 -5.58785 -9.53031 18
290 1 -3.34621 8.71025 -13.5676 16
291 1 -6.89299 -7.10091 -6.70201 20
292 1 -4.39526 -11.1032 4.25348 21
293 1 8.92896 -6.09268 -14.2685 12
294 1 14.6147 -3.22624 -8.50384 14
295 1 8.77032 1.49533 5.36055 19
296 1 -4.13914 -5.42611 -2.54706 20
297 1 -8.70157 -5.64313 11.2491 19
298 1 -4.26259 -11.5576 -0.233429 19
299 1 8.34112 5.85663 17.2752 15
300 1 -8.59092 -16.0001 5.14936 19
301 1 -2.457 -12.6664 2.33797 21
302 1 -2.80871 19.0053 -0.892275 9
303 1 4.53029 -1.00567 -13.5278 14
304 1 -7.04507 -5.52368 -12.9395 13
305 1 6.67889 -7.57123 3.80644 22
306 1 -11.8353 -9.19266 12.2071 13
307 1 5.69347 6.50786 19.3783 10
308 1 0.425072 -13.7055 -0.147904 21
309 1 -2.48585 -13.8236 -11.7829 8
310 1 -12.3525 1.63216 -10.4005 18
311 1 7.57443 4.83758 5.76382 18
312 1 -7.19498 0.360026 -9.99543 20
313 1 -1.67913 6.85185 -6.07527 21
314 1 -3.88073 -3.42171 8.69503 20
315 1 6.15543 -12.143 -9.7184 13
316 1 -5.42863 13.193 -0.113605 19
317 1 0.379132 10.3363 4.76488 24
318 1 13.338 -4.47704 6.13528 11
319 1 -9.70058 0.845109 7.32607 22
320 1 -3.46912 -5.76381 14.3365 10
321 1 -4.95307 9.79512 5.75652 19
322 1 4.42012 -6.86556 -10.1393 20
323 1 13.214 7.47038 -4.41332 12
324 1 5.25004 -12.0531 0.556443 18
325 1 -2.8199 -2.977 15.185 12
326 1 -16.0524 -4.26443 6.85928 15
327 1 -0.374406 -17.8813 -2.36041 10
328 1 -9.90443 7.27459 14.9355 10
329 1 -13.0732 5.89686 15.719 10
330 1 -16.1696 -4.31664 10.4378 11
331 1 -14.3831 -6.08834 8.16098 16
332 1 11.4727 -2.80833 -1.78973 21
333 1 -13.0551 -8.91547 9.92503 16
334 1 8.02185 -1.68882 -9.7622 18
335 1 9.45248 -12.6908 -1.92941 18
336 1 2.81185 17.8327 -2.40286 7
337 1 -2.49004 -5.76656 7.26845 18
338 1 -10.6104 12.7621 -2.93787 11
339 1 1.46353 -0.242576 7.71722 22
340 1 10.339 5.22819 10.003 18
341 1 -9.84565 -1.39987 5.17674 18
342 1 7.0219 -10.162 -2.37065 17
343 1 -2.10801 8.50681 2.92533 19
344 1 -8.47463 4.27766 3.68299 19
345 1 4.73673 -12.8444 9.93459 13
346 1 11.4424 -6.77288 6.47307 14
347 1 -4.22064 4.1793 8.6832 18
348 1 -5.90332 -1.93733 -5.44749 19
349 1 -3.1352 1.95909 18.4052 7
350 1 -5.13236 12.674 5.20997 18
351 1 10.2672 7.51585 15.3788 13
352 1 -9.45953 10.2554 -5.20602 16
353 1 0.495165 -3.81198 -16.802 13
354 1 -7.43782 1.25489 -4.03343 21
355 1 6.91003 -8.67502 -10.1454 16
356 1 -11.8856 2.53571 11.891 20
357 1 -13.8621 4.93364 1.24722 15
358 1 -4.22217 -3.52754 -7.72495 18
359 1 -4.36509 10.6283 2.23662 21
360 1 8.15639 -5.51248 8.53501 18
361 1 -11.1866 -10.6217 2.70675 21
362 1 3.68134 -7.53887 5.11562 23
363 1 -9.05683 -10.9556 13.235 11
364 1 -11.1273 6.46145 0.114842 21
365 1 2.41143 -5.65815 10.8058 22
366 1 2.9035 -11.235 -5.32645 17
367 1 -9.51196 -5.50344 -7.58998 18
368 1 8.02839 -3.03686 -12.5364 15
369 1 5.9145 13.9907 3.55987 18
370 1 -9.70574 1.60438 -2.21519 20
371 1 4.11147 -9.29614 -7.62747 21
372 1 8.25894 3.48803 -11.8499 14
373 1 -4.83458 -16.3988 -5.05824 12
374 1 -11.403 -8.71687 -3.26893 21
375 1 -3.86275 -8.51469 -0.48183 19
376 1 11.7388 5.0567 15.6213 11
377 1 15.1949 1.93222 0.230133 13
378 1 -9.59985 1.07649 -11.5347 18
379 1 5.92667 17.9997 -0.873444 8
380 1 -13.2959 0.121199 -4.6348 19
381 1 -7.48503 8.46708 6.55987 20
382 1 -7.11806 12.7887 2.194 22
383 1 -7.24546 5.90899 9.18826 18
384 1 8.45848 3.68209 11.8254 16
385 1 11.6357 -3.30767 -4.76056 19
386 1 7.61524 -2.8386 16.6944 11
387 1 14.0276 -1.1263 -5.62337 16
388 1 -6.1367 -14.6735 -2.30096 20
389 1 -5.40849 2.38379 -1.13051 19
390 1 1.77281 -8.59744 -0.978765 18
391 1 0.855158 11.7944 1.92141 19
392 1 -10.2285 0.742692 -8.33875 21
393 1 4.50745 -10.6489 -1.77303 17
394 1 9.37865 -2.66928 9.00614 20
395 1 -10.0654 -0.121647 -4.43735 16
396 1 -8.12178 -9.54313 1.92118 19
397 1 -8.89519 -7.94403 14.2168 14
398 1 -2.45171 13.3171 -0.149548 19
399 1 -8.65872 -9.88895 -3.79005 23
400 1 9.053 10.662 16.1689 10
401 1 -8.93967 7.96508 -2.40477 19
402 1 -0.746431 12.6843 -6.6522 20
403 1 5.5384 11.9752 5.62995 20
404 1 -14.9877 -6.26614 1.68602 17
405 1 -0.354038 -9.98956 -4.42965 20
406 1 -12.7092 -1.18749 7.51772 16
407 1 -10.3391 5.10341 -2.27244 20
408 1 2.6601 -11.0407 5.13978 21
409 1 -6.14214 -11.7532 -3.43065 21
410 1 10.8554 10.6908 8.22615 15
411 1 4.83553 8.07094 -13.1383 16
412 1 -13.6568 4.86782 -10.0179 13
413 1 -3.28833 15.4742 -7.88441 14
414 1 -9.77762 4.93422 -7.61745 17
415 1 -3.03917 -13.4245 5.31146 22
416 1 12.7755 4.85242 5.02946 19
417 1 -0.407519 6.64235 -15.1063 22
418 1 -4.42351 1.49645 9.88773 19
419 1 -16.3506 5.72465 -0.662725 6
420 1 -8.45075 3.96289 7.25714 18
421 1 -6.07015 -14.5373 4.93617 22
422 1 1.6178 -5.32308 -6.18954 20
423 1 7.18858 -9.64889 -7.36359 19
424 1 -0.562369 -4.74389 5.52442 19
425 1 -14.1741 -0.26976 4.54147 15
426 1 -15.5605 -1.11434 10.0078 16
427 1 -13.8339 6.42379 4.62989 14
428 1 0.0821834 -5.45919 9.21134 20
429 1 -7.42856 3.18395 -15.6927 10
430 1 6.55313 -13.3707 -2.24488 20
431 1 0.949921 -9.74491 -9.9414 16
432 1 -2.13551 -3.15245 11.098 19
433 1 4.23865 -7.5912 -3.123 18
434 1 -5.36429 5.50339 -15.4431 13
435 1 4.45016 -13.0577 3.70378 21
436 1 0.803322 12.369 -3.97432 21
437 1 -13.3006 7.77274 7.26147 16
438 1 -6.43373 -3.29925 15.5398 12
439 1 -11.6505 -7.77402 -13.3114 5
440 1 -8.35275 -7.08904 7.91875 18
441 1 9.27505 -5.66824 11.2908 13
442 1 5.0539 6.08881 -1.60569 22
443 1 -4.39839 7.65565 4.08186 20
444 1 0.760677 0.0938054 -9.39856 21
445 1 9.3642 -9.3446 8.93947 11
446 1 14.2731 5.61058 -1.6126 13
447 1 -2.5647 2.63063 12.7129 23
448 1 0.283193 13.3903 -1.06873 20
449 1 5.57481 -5.07613 6.18417 22
450 1 -3.76299 -13.6944 -3.58858 18
451 1 -5.84726 3.00168 17.2867 12
452 1 -3.75821 16.7786 8.38333 12
453 1 -8.91168 -12.8757 -6.02853 16
454 1 9.78707 15.8991 2.03226 13
455 1 3.9684 6.6669 9.14591 21
456 1 -7.77553 1.04333 9.61771 20
457 1 -6.03116 -7.42933 -3.3932 21
458 1 -13.5779 3.385 10.0655 18
459 1 -9.53268 -8.58074 -6.52371 20
460 1 -7.27476 8.94553 10.0499 17
461 1 -6.25419 -14.1845 -7.05003 13
462 1 -1.99388 -7.51938 -13.4947 20
463 1 -7.77567 -12.2616 3.32831 19
464 1 -5.98923 -2.31591 3.9806 16
465 1 10.7595 -1.15036 6.69054 18
466 1 -6.79624 -6.22792 13.5317 19
467 1 -11.6159 7.7705 -10.256 13
468 1 8.11462 4.52113 0.584315 18
469 1 -9.28929 -15.7001 -0.804057 13
470 1 1.1985 7.99129 -6.8389 21
471 1 1.48994 17.0258 3.09389 16
472 1 -2.46718 5.15727 -3.4373 20
473 1 -0.0710297 5.17913 13.0295 18
474 1 -13.7856 -2.19726 0.0976169 21
475 1 -0.465206 16.9835 -2.30817 13
476 1 1.6822 10.9832 -6.77371 19
477 1 -8.1892 -7.93659 -9.11687 20
478 1 3.30064 5.03799 17.7322 18
479 1 0.589175 -14.976 -6.92904 12
480 1 -0.71622 -3.91655 -10.5828 18
481 1 6.05902 -15.5757 4.84728 12
482 1 -9.22903 8.50357 3.79351 18
483 1 0.556892 5.67212 16.1644 19
484 1 11.0986 5.49249 -2.4492 21
485 1 2.35005 5.84639 0.588407 18
486 1 -9.02007 10.5112 -10.9715 9
487 1 3.56773 4.36742 -10.3335 22
488 1 0.881144 -9.02345 3.43736 19
489 1 -15.6451 -4.2152 -0.889358 10
490 1 1.7886 19.7464 8.28696 8
491 1 -7.44088 5.09365 -10.7291 17
492 1 10.1388 7.01126 0.469572 25
493 1 5.77865 14.827 -7.80825 11
494 1 7.10037 -5.639 0.966676 18
495 1 15.2312 0.58583 -2.87112 10
496 1 -1.35696 1.51493 -13.2699 20
497 1 0.254474 -11.9052 2.54055 21
498 1 -1.43178 -14.5599 7.6316 18
499 1 3.76867 -9.68383 11.5037 16
500 1 -6.59329 4.32191 -6.31524 21
501 1 -12.9355 -14.9628 6.97898 14
502 1 1.06932 -13.7075 -10.1781 14
503 1 9.89208 15.4193 5.54194 13
504 1 -1.94388 4.97907 -11.846 21
505 1 1.44129 0.312099 16.6905 15
506 1 -14.5384 0.879919 12.1703 14
507 1 -3.17808 -21.385 2.48977 8
508 1 -12.1074 -2.69652 2.79251 17
509 1 12.2129 -7.52592 -6.19123 18
510 1 9.77207 -0.801192 -1.692 16
511 1 -3.49703 4.4141 -6.3475 20
512 1 -0.860739 -7.5309 -6.36759 22
513 1 3.58394 1.68995 -15.1044 19
514 1 12.1948 -4.5633 -7.54204 22
515 1 -7.32034 0.320814 14.9463 20
516 1 4.18039 16.8364 2.64593 13
517 1 -7.37494 -2.51563 -15.3852 10
518 1 4.26089 3.83214 -16.5718 13
519 1 -6.99635 -4.08381 9.34608 22
520 1 -2.00749 15.4068 6.40076 19
521 1 -6.95832 -1.90983 -12.0325 20
522 1 -16.1559 0.977782 2.79999 12
523 1 -0.0180621 -9.86642 -14.6158 14
524 1 -6.33201 -12.2064 12.3937 11
525 1 -1.35719 10.1709 -7.64258 20
526 1 16.4311 2.93899 8.74298 11
527 1 14.1232 3.90419 1.55872 18
528 1 -11.0903 -13.1756 0.460766 14
529 1 -0.722904 -10.2943 -0.827081 22
530 1 -4.10424 -1.56324 -16.7127 9
531 1 -9.20021 10.9519 10.1349 14
532 1 4.25202 -6.60448 -6.75675 19
533 1 0.925519 8.65786 1.67046 19
534 1 8.99862 -2.64951 0.779376 20
535 1 2.2449 13.8492 -7.27703 19
536 1 4.07487 -9.69148 2.56806 16
537 1 13.7622 3.72217 -8.21855 8
538 1 2.48769 9.91468 16.7281 13
539 1 -10.275 2.11835 9.48995 21
540 1 4.85907 11.423 9.15174 17
541 1 6.85285 0.349032 16.466 15
542 1 -2.65449 3.72486 -14.8417 18
543 1 -3.82027 -5.50648 -5.57844 20
544 1 0.975726 -2.71007 11.5952 16
545 1 7.92705 9.92712 6.76739 20
546 1 6.0928 7.84862 -8.89947 19
547 1 -6.94737 9.48444 -4.99572 21
548 1 -1.94509 11.1444 -2.37533 21
549 1 9.87016 -3.09548 14.3551 11
550 1 9.72951 1.34286 -9.50455 17
551 1 11.773 -10.5839 -4.44262 14
552 1 10.9286 8.51819 10.696 17
553 1 -14.8148 -3.75025 3.48726 17
554 1 -2.8265 13.11 -9.36306 17
555 1 -0.399083 0.145735 10.837 22
556 1 -14.1852 -0.379408 15.2055 10
557 1 -6.21847 14.6034 -7.83775 12
558 1 3.82574 -15.1511 -0.48974 18
559 1 7.91722 -1.82129 -6.78032 20
560 1 -4.17344 19.2887 -3.14677 9
561 1 -8.45522 -7.66191 -12.0956 13
562 1 2.32738 -18.3978 8.70644 10
563 1 -12.5327 -5.08958 0.958695 20
564 1 1.11535 12.4454 -14.0736 9
565 1 -8.39024 3.64171 -0.399474 19
566 1 -3.61619 9.36975 16.6898 11
567 1 -11.178 -6.04623 9.29123 21
568 1 2.96514 8.35895 -0.807097 20
569 1 1.10935 -9.77704 -7.01028 16
570 1 4.54323 -6.8959 12.7216 16
571 1 5.91768 2.81534 -2.52435 20
572 1 -8.09106 6.45328 1.73402 18
573 1 5.13113 5.25153 15.6074 20
574 1 7.66249 14.5568 -5.09701 13
575 1 10.0316 -5.34702 -4.6903 20
576 1 4.769 6.67304 12.2735 18
577 1 1.58582 4.36824 -18.954 8
578 1 -6.9498 -14.8854 10.7608 9
579 1 -2.34332 1.539 -10.6874 21
580 1 7.13676 -0.995162 -15.1319 12
581 1 1.69514 15.5559 6.7418 22
582 1 8.44743 4.24322 -8.32699 19
583 1 -0.981203 -1.1107 -15.1726 19
584 1 -3.434 -11.5063 -5.75588 18
585 1 -12.3082 -4.96586 -11.4796 13
586 1 11.476 2.6882 3.2932 24
587 1 12.9934 2.96562 -1.44224 17
588 1 7.22982 -4.86321 -6.05142 18
589 1 13.3522 6.46997 11.4288 13
590 1 3.98642 -13.7489 -4.32923 15
591 1 2.20635 6.4444 -17.2469 12
592 1 6.61607 11.106 2.47277 18
593 1 -5.98475 4.99409 6.24852 20
594 1 8.58454 9.03939 13.226 16
595 1 10.4064 3.59043 0.374597 19
596 1 13.4989 0.262252 2.79038 16
597 1 12.2703 8.53307 -7.58309 13
598 1 8.15307 2.02923 14.3558 18
599 1 16.3523 4.35918 11.8629 10
600 1 2.35668 -6.04742 7.36853 21
601 1 11.2244 9.72902 -4.41737 20
602 1 5.15207 3.48129 0.884483 19
603 1 0.858867 1.38035 13.1673 25
604 1 16.1068 -3.25344 -5.99435 10
605 1 10.6716 2.33147 9.56611 17
606 1 -7.2015 -2.17826 -8.92502 22
607 1 9.69329 5.49237 2.77883 21
608 1 10.6277 -3.65184 3.85058 17
609 1 -0.892897 -7.67041 0.653335 18
610 1 -12.5199 6.8321 13.0341 14
611 1 8.3229 10.2841 10.0481 14
612 1 11.1266 1.20202 12.7026 18
613 1 1.03988 6.89168 10.5313 18
614 1 -2.1028 15.3626 10.6973 11
615 1 4.27841 6.05578 5.56395 21
616 1 -2.04835 -18.1563 3.48829 18
617 1 -7.46219 11.146 -2.35131 21
618 1 8.32541 10.1604 -4.9338 22
619 1 10.5905 -4.21632 -11.4621 15
620 1 1.52315 16.2523 -0.263296 15
621 1 -4.7561 -12.6909 -9.5401 14
622 1 11.2409 -7.68193 -12.1639 11
623 1 -12.5513 1.41236 6.65774 18
624 1 -4.42234 5.63877 -9.22877 20
625 1 -5.62464 -17.9559 4.13911 15
626 1 -4.81378 -0.302394 -8.59969 22
627 1 -12.1313 2.2832 -3.83823 20
628 1 8.75165 -6.17061 5.51253 20
629 1 11.7661 10.4467 4.08142 15
630 1 1.39396 -8.53254 9.72431 21
631 1 -14.3157 -2.95711 -6.49382 13
632 1 1.29044 1.93182 -17.2453 15
633 1 4.75552 -7.35078 9.40421 18
634 1 -4.42801 5.87732 16.8984 12
635 1 6.28872 9.96695 -11.424 16
636 1 12.7029 -1.38761 13.7639 14
637 1 6.65626 6.4436 -5.7688 20
638 1 11.0972 12.7376 2.20796 17
639 1 3.17216 -13.4965 -7.75436 12
640 1 -11.823 -3.2709 15.2056 14
641 1 12.3512 -2.39016 1.53898 17
642 1 -2.46564 11.0419 13.4184 14
643 1 4.53503 12.2563 -9.12685 16
644 1 -14.6586 6.77351 -5.11089 13
645 1 8.62505 12.2782 4.67614 18
646 1 -8.52538 -14.572 1.99376 19
647 1 12.7235 -5.40487 2.65806 14
648 1 7.00009 16.5308 4.81627 12
649 1 -5.07204 4.05272 11.4997 20
650 1 -9.66463 -7.31731 2.5476 20
651 1 -12.4957 -4.0544 -8.76884 16
652 1 7.13189 2.38433 9.84217 16
653 1 -3.23536 -10.701 13.0375 9
654 1 7.81361 5.72444 13.9719 18
655 1 -3.5359 14.5442 2.01809 17
656 1 6.43612 5.71471 3.27379 22
657 1 7.25899 -4.3187 3.29143 22
658 1 5.32015 3.58328 7.21161 19
659 1 1.3063 0.152943 -12.6148 18
660 1 -9.62 -1.39558 10.0575 22
661 1 5.16955 -1.18076 -9.34959 19
662 1 -0.972139 -7.61222 -2.74374 22
663 1 8.4109 -11.529 -4.55301 19
664 1 6.38806 7.23072 7.31154 20
665 1 4.81944 3.24847 3.96387 19
666 1 -11.9277 -0.860014 12.8365 22
667 1 8.40432 6.54571 8.18703 17
668 1 -0.495485 -5.69698 14.9931 10
669 1 -2.87517 5.11595 13.7839 20
670 1 -0.924279 -4.55932 -13.9622 19
671 1 -5.92509 1.46378 12.4834 21
672 1 5.53854 3.51074 13.1715 20
673 1 -12.0325 -17.801 8.32011 8
674 1 11.8643 8.32488 -1.4195 18
675 1 9.49191 -15.4579 -2.28085 12
676 1 -3.50751 2.67167 -3.53968 21
677 1 8.97837 9.03102 -2.11186 23
678 1 12.7339 14.9032 3.18987 8
679 1 5.48781 0.581623 -17.4761 10
680 1 -1.8427 -1.27328 8.46271 19
681 1 0.585774 15.2938 -5.21695 17
682 1 9.58806 10.0282 1.02781 22
683 1 -6.82209 -9.57492 -0.990277 21
684 1 -2.20528 1.28782 -16.8219 17
685 1 -9.79432 10.9199 2.11042 15
686 1 7.67151 -6.08936 -12.0302 20
687 1 4.61419 8.51839 1.44901 23
688 1 9.67336 7.17636 -9.10005 12
689 1 8.3957 12.8429 -2.12702 17
690 1 -3.50532 2.16837 6.07311 21
691 1 -5.8604 7.99239 -2.35846 21
692 1 4.55664 5.11718 -4.20661 21
693 1 12.1102 1.62985 15.63 10
694 1 9.56252 -0.200028 15.2272 16
695 1 -3.54235 -8.93361 9.67082 16
696 1 -5.82162 10.0596 -12.6929 13
697 1 2.60217 11.7232 6.79691 19
698 1 8.22933 -8.78424 -12.936 13
699 1 1.4477 2.10233 10.0063 19
700 1 4.24901 14.8093 -5.1224 13
701 1 5.75762 8.5269 4.21809 22
702 1 12.0478 -6.11727 -2.33671 17
703 1 8.45807 8.58206 18.2505 11
704 1 -13.0481 -3.02461 9.79238 21
705 1 -0.648632 -14.9776 2.75379 18
706 1 -1.31731 -1.54712 -11.9391 23
707 1 -9.77227 14.2931 2.83818 12
708 1 0.0209057 4.77826 6.75259 18
709 1 7.15774 -6.04871 -2.60231 16
710 1 3.28997 11.4715 3.2734 22
711 1 -12.8115 -4.14957 6.40574 22
712 1 -1.86613 4.29582 17.4018 16
713 1 -5.80327 8.40973 -15.4723 10
714 1 -8.66706 7.80256 -11.1835 17
715 1 2.40516 -14.4488 1.77714 22
716 1 4.98327 9.23057 -5.58196 19
717 1 4.61533 -5.09107 2.72923 20
718 1 -2.93238 5.1161 5.17758 20
719 1 -13.7558 4.31342 13.1483 15
720 1 5.43895 -4.19159 -11.0574 18
721 1 1.52328 -11.9415 10.6781 13
722 1 3.27072 14.7032 4.75486 18
723 1 -4.18633 1.20477 15.2855 17
724 1 -9.32039 -10.2405 -11.1449 9
725 1 -3.1471 -10.4986 -13.3875 12
726 1 -6.61902 -10.6102 -6.51551 20
727 1 -4.45243 17.389 -6.19224 10
728 1 4.34197 -4.59543 -3.95865 23
729 1 -3.59635 10.4223 8.58394 17
730 1 5.63938 -12.3469 -6.30348 18
731 1 3.48968 -16.8496 3.59781 17
732 1 3.76959 -10.1548 8.49276 22
733 1 15.2074 -0.113316 -8.45737 11
734 1 0.623814 -14.9176 -3.66313 17
735 1 -10.9992 -3.75323 12.0098 22
736 1 2.64516 -1.26381 -7.65891 19
737 1 -6.47892 -20.0762 1.19013 8
738 1 -8.83497 -13.3992 -2.71275 17
739 1 -12.4544 0.0730874 9.97718 24
740 1 -8.22133 -17.3965 2.31379 13
741 1 12.9433 4.70452 -4.55369 15
742 1 -4.54199 15.872 5.02246 16
743 1 -6.09577 2.26146 7.69403 22
744 1 -11.0188 5.88398 2.88973 20
745 1 10.2681 -0.769383 3.16383 17
746 1 -14.596 -1.13057 -10.1162 11
747 1 -0.582658 7.12749 -3.73028 19
748 1 9.53909 1.38112 -6.3169 19
749 1 6.36139 11.4927 14.3229 10
750 1 8.40654 3.96021 -4.90794 20
751 1 -15.6134 -0.198592 -7.06435 14
752 1 -14.2937 -6.41939 -7.61009 9
753 1 -0.178186 8.958 17.8866 12
754 1 3.36267 7.41797 -10.6346 22
755 1 11.452 13.2306 5.72304 14
756 1 -2.88982 -0.412898 11.6031 18
757 1 -3.469 -16.585 -2.32751 15
758 1 -9.41944 -18.1634 7.65125 11
759 1 -3.00628 -6.27688 10.2947 21
760 1 13.5159 8.72143 9.2016 15
761 1 1.63052 -5.03424 -9.18407 17
762 1 -7.65961 9.73666 0.169179 22
763 1 8.12698 8.36794 2.54515 21
764 1 -7.45942 -3.78909 5.81451 20
765 1 7.90005 7.14655 -12.0 10
766 1 -1.50562 -17.2138 -5.3488 11
767 1 -0.156705 -20.7586 4.42864 11
768 1 -1.25951 -16.5345 0.403889 16
769 1 5.44399 3.63159 -7.30546 18
770 1 7.2192 17.2897 1.97565 11
771 1 -5.68314 2.32831 -12.05 16
772 1 -1.30609 0.108012 14.3401 17
773 1 -0.576297 7.4478 -18.6813 9
774 1 -11.857 -4.17673 -14.3671 7
775 1 -10.788 -5.07786 -2.37306 20
776 1 -2.50271 16.9774 -4.19119 16
777 1 9.0686 0.83669 1.07182 20
778 1 -3.0957 -6.13816 -15.4238 10
779 1 -6.81464 -6.72729 0.826951 17
780 1 7.69342 5.67567 -2.24941 22
781 1 9.53018 -7.06699 2.67763 21
782 1 -7.05243 6.25899 12.2841 22
783 1 5.68155 -10.0765 5.42246 21
784 1 11.7236 -7.45218 0.361189 15
785 1 11.454 -3.70622 11.6222 17
786 1 -0.183545 10.5936 7.32958 19
787 1 -12.8007 2.89746 15.8333 10
788 1 -10.6792 3.74737 14.1859 19
789 1 -5.26458 -14.382 8.01355 16
790 1 7.83821 2.81342 2.96424 20
791 1 4.20373 9.54957 13.9995 18
792 1 -15.9897 -0.202502 -0.262574 13
793 1 12.3351 -10.6199 -1.06289 9
794 1 -12.9317 10.1169 -4.67303 10
795 1 2.36062 8.29742 4.70488 18
796 1 -0.760355 -17.8592 8.96456 9
797 1 5.4615 0.906153 11.6532 18
798 1 -2.52157 12.6491 6.21019 18
799 1 1.3574 -12.5656 6.92438 18
800 1 -8.89242 -2.40359 -3.38925 19
801 1 2.14018 3.79829 14.9073 23
802 1 -13.7062 -6.91374 -1.73256 15
803 1 -1.07212 10.6119 15.8867 11
804 1 3.46031 14.2637 1.08525 18
805 1 -12.5511 -11.3055 5.80605 15
806 1 -6.69637 -17.193 6.84144 12
807 1 7.15765 -8.24333 11.7828 13
808 1 11.088 -6.15715 8.89273 13
809 1 3.82591 9.29545 6.98646 18
810 1 -4.88802 5.28192 -1.33284 19
811 1 -1.92163 -10.0166 -8.58364 18
812 1 -4.46853 -0.367236 -11.9699 20
813 1 -4.76088 -1.91495 13.1254 18
814 1 -1.9107 16.9252 3.80349 12
815 1 15.1819 0.246356 5.91907 10
816 1 -0.755241 9.83182 -4.27449 21
817 1 -4.9926 7.46253 14.4574 20
818 1 5.76371 8.65015 10.084 17
819 1 4.19 -4.03737 -7.72831 22
820 1 -7.42605 -12.5749 -0.0977211 22
821 1 -7.52744 0.145376 -6.79343 23
822 1 13.3463 -1.29601 7.85996 14
823 1 -1.90549 -1.2176 -8.64688 19
824 1 -1.75498 7.15421 15.9476 19
825 1 10.4518 -13.6599 -5.53113 11
826 1 3.69739 4.76765 -13.5174 18
827 1 -3.57407 -10.4845 -2.71501 21
828 1 10.9369 4.46608 -9.83196 12
829 1 14.4608 -4.94499 -0.231359 11
830 1 1.27041 -8.38492 12.6421 14
831 1 -3.9664 -7.74328 -10.8852 18
832 1 6.01071 13.522 -1.34777 17
833 1 -1.61056 -7.37276 4.46373 20
834 1 -13.6864 3.24502 3.55541 18
835 1 11.0934 4.75613 -6.78448 17
836 1 15.6608 5.68621 3.78096 10
837 1 5.22318 -3.79801 -14.1772 18
838 1 -7.09407 11.8009 7.58451 19
839 1 15.0045 7.64421 6.60764 15
840 1 10.1266 12.4838 -4.20929 12
841 1 0.59748 3.48443 -15.1683 21
842 1 9.77582 -5.09233 -0.691466 17
843 1 -13.1186 0.357792 -1.55707 19
844 1 11.4989 7.85035 3.23219 18
845 1 -12.8025 -10.099 0.372546 11
846 1 -11.6556 5.25891 -5.19371 18
847 1 4.64972 3.97363 10.1358 17
848 1 -12.6703 -0.896345 -7.91038 20
849 1 -11.9931 4.99263 8.27432 19
850 1 -0.987487 2.90576 -5.67765 24
851 1 9.40275 -6.9447 -7.43987 17
852 1 -12.7473 -9.03619 -6.30408 14
853 1 13.7472 -8.74863 -3.93535 11
854 1 -10.3763 3.17523 1.65609 23
855 1 -7.87695 -4.99677 -1.57261 19
856 1 11.3638 6.87751 7.14774 18
857 1 -6.17246 -9.51862 6.97884 15
858 1 9.33882 2.60739 17.1346 12
859 1 12.4802 -3.87478 8.64865 16
860 1 8.17148 -3.03645 5.85291 21
861 1 -6.19817 2.76014 4.35808 17
862 1 -2.46285 7.74799 13.2042 18
863 1 2.43886 10.1388 -12.3287 22
864 1 0.266949 -6.84499 -15.8593 14
865 1 -6.77571 14.971 7.56921 15
866 1 -13.5741 -11.7999 8.90474 13
867 1 6.07368 11.8615 -4.07013 17
868 1 2.84998 7.29824 15.3679 18
869 1 13.8023 -5.12061 -4.44729 17
870 1 7.83311 -5.2725 14.0467 13
871 1 -0.899917 11.5491 -12.0484 14
872 1 0.924711 12.5403 -9.94789 22
873 1 -5.21112 -4.59637 11.6847 21