ITEM: TIMESTEP
23000
ITEM: NUMBER OF ATOMS
2000
ITEM: BOX BOUNDS pp pp pp
-30.0 30.0
-30.0 30.0
-30.0 30.0
ITEM: ATOMS id type x y z Coordination
1 1 -13.1096 3.05854 -8.39734 11
2 1 -7.59082 -9.01491 -8.85502 20
3 1 1.47164 18.0286 11.2326 10
4 1 6.49821 -10.0587 8.96217 12
5 1 -11.1596 2.17754 0.795141 18
6 1 10.0197 -11.9574 -7.86929 12
7 1 -12.5773 0.569039 -6.67655 17
8 1 2.89671 -14.4408 9.0085 5
9 1 -6.21045 -1.07961 -8.2498 18
10 1 -10.9365 -14.632 2.12821 10
11 1 12.708 5.78937 -6.039 14
12 1 -2.89684 -8.20931 8.54565 15
13 1 -15.9433 -10.3485 0.117758 6
14 1 -2.52712 1.99119 19.1643 8
15 1 -1.97762 6.29013 10.0298 16
16 1 -4.75746 11.5208 -11.0006 11
17 1 5.32162 -0.477141 18.0723 9
18 1 -7.68655 -3.40477 -10.0641 18
19 1 -11.8259 -8.45332 10.8438 13
20 1 15.6067 8.49685 9.13726 12
21 1 4.11233 14.0063 -15.8873 7
22 1 5.53761 7.19729 -11.1351 16
23 1 13.1018 8.16713 13.3281 17
24 1 -12.3698 6.73139 -4.97456 16
25 1 -9.83711 13.7868 10.794 15
26 1 7.7811 -10.8712 5.89229 15
27 1 3.819 -11.5481 -10.3323 12
28 1 7.67454 -14.1957 1.41876 14
29 1 -8.04763 -12.1984 -7.64017 15
30 1 -8.61094 -5.26164 14.3664 10
31 1 0.947692 -7.82153 -12.0473 15
32 1 11.8662 -8.4705 -7.68005 13
33 1 1.71352 6.50219 -12.5749 14
34 1 0.409395 6.45937 15.7013 16
35 1 3.17334 -10.5765 8.97342 16
36 1 7.20861 -7.90392 12.3881 14
37 1 -13.3575 3.29567 2.39338 17
38 1 -14.5659 -1.7735 9.37874 13
39 1 4.30128 15.7669 3.90253 19
40 1 1.55667 -10.9659 -12.7612 7
41 1 6.32787 0.0646183 -5.79881 19
42 1 -2.50183 -3.14583 14.5928 16
43 1 -14.4471 13.291 7.56258 8
44 1 6.64477 17.7707 -6.99481 12
45 1 4.92387 14.2066 14.232 13
46 1 -6.41049 7.43151 -7.39171 23
47 1 1.32632 15.3477 4.22781 20
48 1 1.94204 -5.82701 2.74576 19
49 1 6.855 -7.852 -5.33375 19
50 1 -0.284307 -4.21076 -16.2451 15
51 1 -12.4915 9.90013 12.6647 12
52 1 -14.2578 -4.41024 -8.09744 13
53 1 -4.10553 8.80556 -4.27896 18
54 1 -8.72556 -7.1115 6.60835 18
55 1 2.05903 14.0388 15.9877 9
56 1 -9.9147 3.39101 -7.0624 19
57 1 -8.44092 11.3068 7.5545 15
58 1 -6.18116 -17.8113 2.34268 10
59 1 9.42066 -13.581 -4.4499 12
60 1 4.90331 11.9358 11.9641 23
61 1 -12.4264 -2.20191 -6.29121 20
62 1 -12.1711 8.90296 -7.26153 10
63 1 4.93483 8.53173 7.21362 15
64 1 13.2983 2.28063 -10.6006 8
65 1 9.15279 -12.3787 4.03127 11
66 1 -12.4091 -1.34471 5.52778 14
67 1 8.25159 20.7525 4.66858 10
68 1 3.37234 -3.29385 13.6653 14
69 1 -7.26325 -8.53565 9.22376 16
70 1 16.1282 4.86759 9.36611 8
71 1 -4.66561 18.0303 10.3625 12
72 1 -3.01893 -5.85751 -6.94973 17
73 1 -15.9133 7.78971 8.26917 11
74 1 -5.3305 13.1811 -0.0376541 16
75 1 -0.478541 8.4547 -9.3601 19
76 1 12.6741 7.87536 -1.12157 19
77 1 3.73393 -8.79624 11.6351 13
78 1 -3.3028 15.5884 -3.9235 13
79 1 -11.0198 14.1515 8.00921 13
80 1 -8.75369 -0.15895 16.3169 10
81 1 -1.74461 13.9696 4.47021 14
82 1 -6.35087 -11.1921 12.9771 11
83 1 14.8213 -8.97708 -0.873526 10
84 1 -8.86282 6.66197 6.08212 20
85 1 -5.65551 -16.5015 -0.463853 15
86 1 8.78183 -9.26639 -6.77437 19
87 1 5.40505 2.0046 -16.1216 11
88 1 -8.86583 -0.365479 -11.8651 16
89 1 0.847695 11.8242 0.881448 20
90 1 -7.81008 5.88436 -6.15298 18
91 1 1.34027 7.97387 18.5053 10
92 1 -1.91625 18.5472 -9.85616 6
93 1 -12.073 11.0619 2.50766 15
94 1 -4.25687 -2.07882 12.3312 15
95 1 13.0075 -1.04154 5.48146 21
96 1 6.29189 -3.51123 -8.194 20
97 1 6.20396 -2.34339 16.1425 11
98 1 -6.74885 -7.83878 -0.173297 21
99 1 -8.5027 -5.43295 -1.64003 20
100 1 10.8187 -6.77006 3.06889 18
101 1 7.23222 8.16352 -13.0926 11
102 1 10.0746 15.2232 2.47868 21
103 1 -9.24416 -15.1019 7.82479 11
104 1 -10.8481 -13.5995 10.8353 8
105 1 5.35724 -4.90867 -13.4931 11
106 1 9.84928 -12.4957 0.784094 12
107 1 -2.05464 -12.8122 1.36555 20
108 1 -11.873 -9.00436 2.74693 14
109 1 12.8431 9.5745 10.1237 17
110 1 18.3294 -1.86556 -5.36684 8
111 1 -12.9239 -12.2259 0.677235 10
112 1 11.9718 6.42799 5.41661 18
113 1 15.1867 13.7246 4.65892 16
114 1 -4.78151 6.85064 17.8355 9
115 1 -4.58927 15.0739 11.4949 17
116 1 -3.53487 12.1638 -6.00354 17
117 1 -1.73532 -7.67333 -8.44792 17
118 1 6.65621 -12.3 -8.84287 14
119 1 3.42564 15.1213 -10.8617 16
120 1 9.47695 -5.58781 12.1022 14
121 1 1.77584 1.35067 -19.8028 11
122 1 -1.53193 8.77604 -5.42772 19
123 1 10.6353 0.444759 -3.28267 23
124 1 -6.28992 10.4997 -5.65669 17
125 1 -2.91589 15.2225 2.21289 14
126 1 9.23537 7.56823 -7.34481 18
127 1 10.8395 -3.74795 10.4148 14
128 1 -0.164344 17.447 3.04467 15
129 1 16.0123 8.89678 -3.32791 12
130 1 8.28484 16.153 0.446078 17
131 1 0.180405 14.7413 1.38488 17
132 1 14.2495 6.64292 -4.14806 17
133 1 -4.06822 9.49058 0.0158025 18
134 1 6.06617 14.1671 -13.7432 10
135 1 6.88672 13.8363 -10.9562 15
136 1 -8.66654 -15.526 0.804261 11
137 1 -10.8832 5.46159 1.93675 17
138 1 -5.89194 1.47361 -12.8331 15
139 1 -3.81957 -7.77871 -14.7191 15
140 1 12.7581 17.7382 8.14303 11
141 1 7.18337 19.9927 7.28066 11
142 1 -14.7831 -4.3148 -2.33084 15
143 1 -8.92707 14.976 5.20052 11
144 1 17.4004 3.16989 -0.535617 12
145 1 -10.7521 1.35162 -9.74573 14
146 1 9.69979 11.0705 16.9057 8
147 1 1.01229 17.8337 -0.607 14
148 1 -4.30281 11.5097 12.3207 20
149 1 -3.34497 -5.13991 -17.1929 12
150 1 1.11683 15.4096 13.6826 14
151 1 -0.0310156 17.2866 -6.37913 14
152 1 2.66909 -1.17702 15.2308 15
153 1 -12.7341 -5.27526 3.47834 15
154 1 4.53357 -8.4503 -13.8779 8
155 1 -6.19549 9.6842 -9.06122 18
156 1 -0.15994 -11.4767 8.82866 14
157 1 4.81339 -9.04705 -1.07912 18
158 1 -1.11996 11.4292 -10.7847 17
159 1 -11.943 6.05475 7.97516 19
160 1 12.9162 9.71938 -3.79419 21
161 1 -7.11724 8.78209 15.435 9
162 1 -2.28139 -11.6522 11.4331 18
163 1 3.50025 19.0477 -6.16147 12
164 1 -0.753109 8.86238 7.73671 17
165 1 10.5996 7.99858 15.8438 13
166 1 -8.3073 14.9191 8.38824 14
167 1 15.9354 -3.29869 -7.85945 10
168 1 -1.97966 13.6725 12.7422 18
169 1 14.5122 -6.42366 3.03057 12
170 1 -14.8544 0.0680219 6.80756 14
171 1 -8.8075 -12.6925 5.65384 21
172 1 1.68088 3.08122 14.9245 15
173 1 -14.8968 1.39255 -2.24666 15
174 1 -7.89746 -14.0395 3.29878 17
175 1 1.36312 11.0017 3.95599 17
176 1 9.35932 15.3424 12.4916 15
177 1 -4.373 14.7122 -6.88537 11
178 1 -14.7253 -3.69573 -4.7411 13
179 1 -8.98574 -7.97387 12.347 13
180 1 -2.07529 -9.91092 6.08319 19
181 1 0.9087 -9.87512 6.39041 15
182 1 -12.6383 11.25 5.52226 19
183 1 12.201 3.0485 3.81608 18
184 1 -6.02931 -5.85 -15.7312 14
185 1 5.02532 -1.47267 11.6213 17
186 1 5.19422 -15.2972 -1.06163 15
187 1 -2.37174 5.95723 -10.1803 17
188 1 4.06836 -2.62396 -13.0599 15
189 1 4.94036 2.11086 -13.091 10
190 1 2.25849 9.26985 -15.9964 6
191 1 -3.45998 -1.78317 -8.0923 20
192 1 -2.79785 13.5704 -9.30217 16
193 1 -10.1849 -10.9412 13.3708 8
194 1 11.446 18.1647 2.02467 12
195 1 -8.40464 6.11991 13.5218 13
196 1 -8.07076 13.01 -0.984736 10
197 1 3.36849 0.32645 12.8322 17
198 1 -4.18138 -4.0305 -12.1615 19
199 1 -3.06566 9.89777 -8.15657 21
200 1 2.68437 9.05138 -11.8215 15
201 1 -3.28576 -15.6816 8.87346 13
202 1 -11.3525 6.97899 11.4758 16
203 1 -5.99788 11.885 10.0061 17
204 1 -0.16559 -12.114 -5.18605 18
205 1 -5.86087 -13.7662 -4.98174 12
206 1 11.1379 -10.5567 -4.93915 15
207 1 14.1998 8.00463 16.8834 10
208 1 9.43682 9.65852 -2.94968 22
209 1 5.81568 15.6538 -4.45937 17
210 1 -11.9251 5.02459 5.12957 21
211 1 -13.2764 9.60112 0.0496676 10
212 1 1.15895 4.8588 11.3207 16
213 1 3.11463 -18.3396 -1.90046 5
214 1 10.2104 -2.40196 -2.95667 19
215 1 -13.2955 8.27735 7.04962 17
216 1 -9.60558 -7.36469 -7.99528 13
217 1 9.82579 10.4044 -8.71102 11
218 1 6.29118 -4.87937 11.5647 19
219 1 15.4122 11.9239 -2.34699 17
220 1 0.0921622 -1.85206 -14.9037 21
221 1 -0.268159 -15.5918 5.33678 12
222 1 11.521 0.426453 -9.31731 13
223 1 -5.27874 -8.35359 6.6604 20
224 1 6.10285 -13.4646 -3.88746 15
225 1 -5.81133 -3.4439 -6.51126 15
226 1 11.9383 15.9992 -5.23421 9
227 1 -3.87765 0.0297289 -16.5711 16
228 1 6.25972 6.36551 12.5907 16
229 1 16.2229 4.13156 2.894 11
230 1 8.7605 -5.0154 -10.8244 13
231 1 -5.68293 -1.98051 -11.3195 21
232 1 -11.7514 -4.65539 -8.08547 17
233 1 -7.9917 -10.1432 7.02843 15
234 1 10.6681 0.751255 11.2321 18
235 1 -8.82132 -7.44002 -13.7292 16
236 1 4.38413 6.8709 -14.5379 12
237 1 5.9555 12.2452 -0.99274 20
238 1 -6.71887 -2.37219 14.7992 13
239 1 -13.3873 -6.64928 -10.2435 12
240 1 -6.53804 -6.50038 -7.09625 18
241 1 -1.4783 5.20389 -13.7533 14
242 1 -4.52683 -8.95171 -6.78626 19
243 1 7.94985 1.399 -13.2166 10
244 1 15.9033 -0.421797 -9.27312 9
245 1 16.3678 3.34629 6.47456 9
246 1 -4.50744 -10.2872 9.89373 17
247 1 -4.07229 -11.2177 2.44887 18
248 1 4.01999 5.51947 16.6689 11
249 1 -2.07318 -16.1612 2.36612 15
250 1 4.15881 -7.91042 1.76632 18
251 1 -1.33302 17.4755 -3.56956 13
252 1 1.74699 1.62484 -11.6262 17
253 1 -12.3994 -4.10596 -11.6051 15
254 1 -3.75674 -12.067 14.3377 8
255 1 4.66077 11.1541 15.4892 15
256 1 2.57112 -15.4089 -0.401216 18
257 1 -8.0593 -6.21327 -10.341 19
258 1 -9.20688 8.00918 -9.31009 17
259 1 6.11154 1.76415 10.926 16
260 1 -5.40007 3.84209 -7.48249 20
261 1 1.03702 8.56567 -7.44646 16
262 1 -1.59618 -7.49087 -16.9136 7
263 1 -6.1027 15.8971 0.656683 8
264 1 5.61666 11.8109 4.443 18
265 1 11.5809 3.44051 6.29399 18
266 1 -9.78913 -2.0762 5.65743 17
267 1 -5.71304 -12.5363 9.42739 16
268 1 -3.55729 10.8765 5.50329 17
269 1 3.36276 -2.89288 -16.4045 13
270 1 15.9743 9.53587 2.7011 13
271 1 7.46058 -6.47245 -0.57784 20
272 1 -2.18701 1.15356 12.7153 18
273 1 -9.88795 -8.95336 4.89054 21
274 1 -1.94475 -14.3955 -4.93217 17
275 1 -4.32966 13.6795 14.4433 12
276 1 -8.54858 10.7061 10.2334 17
277 1 -11.9221 1.11204 3.57091 22
278 1 -10.517 -5.5751 11.8238 16
279 1 14.9489 -6.88338 -2.91274 12
280 1 -10.1744 -10.5029 8.59575 16
281 1 9.63834 0.736261 -6.40293 22
282 1 12.5588 -11.216 -0.834481 12
283 1 2.84822 15.1183 -3.71883 20
284 1 -7.30485 7.72119 -4.18205 21
285 1 9.75214 8.57274 9.00437 20
286 1 9.9828 -10.1571 -2.38631 19
287 1 -4.1956 17.8249 4.5687 10
288 1 4.57325 -12.0706 6.57652 11
289 1 15.201 -3.41677 6.02203 13
290 1 -4.69684 6.68812 12.4946 17
291 1 -3.65982 2.52651 15.3413 17
292 1 -2.1639 12.1046 -0.159226 19
293 1 10.6812 10.7251 13.6205 17
294 1 -9.61039 11.3384 -3.83015 11
295 1 -2.24594 -2.04964 -17.0523 19
296 1 2.28687 -7.07656 -8.80568 18
297 1 -10.721 3.08025 11.8038 13
298 1 -15.3314 5.9628 2.2493 10
299 1 -1.07033 10.0236 -2.73527 19
300 1 8.15137 -2.45583 10.5112 16
301 1 -8.59978 -11.6647 -0.894443 15
302 1 12.5503 -8.23249 7.5427 9
303 1 -8.07198 -10.859 10.7805 17
304 1 -15.0505 12.0901 3.43178 9
305 1 3.74141 -9.70818 -4.22493 16
306 1 -1.89365 -2.23715 -10.8835 22
307 1 10.1911 -9.06672 -9.96907 11
308 1 7.02888 13.5618 6.68343 17
309 1 -12.2855 -0.244 0.149789 18
310 1 3.96241 -8.12488 -11.0126 20
311 1 7.51471 2.64638 -10.0491 14
312 1 -3.30911 -10.5629 -12.5149 12
313 1 -15.1888 -7.61594 -1.84353 14
314 1 12.5964 10.7239 16.3538 11
315 1 14.0683 5.48449 -1.12646 17
316 1 -7.29932 1.52253 -6.31208 21
317 1 5.02543 20.6942 4.39363 9
318 1 -11.777 0.785112 -2.67093 18
319 1 -6.62544 9.36907 6.75997 18
320 1 -9.82845 9.70525 5.04382 19
321 1 -0.69007 11.5064 9.99704 22
322 1 9.98846 6.29483 13.4416 16
323 1 15.6291 -1.61611 -5.51142 16
324 1 8.46753 -7.03401 9.45348 17
325 1 13.3239 0.401538 -6.93716 18
326 1 -3.00087 -12.0135 -2.82331 20
327 1 -9.64432 2.46344 -4.20796 20
328 1 0.463898 -7.69019 -3.96382 16
329 1 11.5763 0.864664 8.06818 18
330 1 -7.6146 -4.18472 -4.31681 16
331 1 -10.2069 -6.32637 8.62139 18
332 1 -5.44445 -5.02176 13.3327 16
333 1 -1.14806 16.9633 6.18471 16
334 1 -15.0351 -7.26162 -4.47363 9
335 1 6.4641 12.3204 17.412 7
336 1 -8.23754 6.44808 -0.306322 14
337 1 -0.559422 12.4633 -7.94884 20
338 1 7.93992 16.4436 6.71981 17
339 1 -17.1752 -7.48283 1.13141 6
340 1 -3.38672 -12.002 -6.08365 15
341 1 -13.9915 1.40918 9.45419 15
342 1 -12.356 4.29341 -2.34287 17
343 1 6.2395 -7.72952 6.69272 18
344 1 -5.11911 -13.9169 1.92544 16
345 1 9.93607 17.3485 9.59789 15
346 1 7.8834 13.7535 -15.5208 6
347 1 -11.4809 6.20617 -8.55923 14
348 1 3.07619 16.2039 -7.19514 22
349 1 -10.1362 7.79748 -5.90902 17
350 1 -7.28819 -14.45 -2.13042 15
351 1 13.9108 6.64137 7.81508 15
352 1 -3.45616 8.88201 -11.8492 13
353 1 -15.2792 3.23496 4.79945 11
354 1 -3.05356 -12.3234 8.33207 19
355 1 5.61979 -6.80032 -8.28903 21
356 1 -14.4674 6.00286 5.09354 18
357 1 -11.5891 -2.96993 10.6553 18
358 1 -12.6899 12.9594 11.2248 10
359 1 -0.572291 14.5336 -11.7314 10
360 1 1.9289 -14.0599 -2.90473 16
361 1 -5.04652 -5.26562 -9.5415 20
362 1 -4.82238 -6.33677 9.14822 21
363 1 -2.34856 3.2877 -16.8222 12
364 1 7.8819 -15.2906 -1.37435 9
365 1 5.03836 13.2334 -6.92398 20
366 1 -13.7917 10.0467 9.88122 12
367 1 -6.21698 1.56653 17.8941 11
368 1 -15.0258 -1.19604 -6.84643 12
369 1 -12.9314 -8.06923 8.18061 11
370 1 11.5296 -5.03505 5.71279 16
371 1 11.0554 -11.6831 7.85179 9
372 1 17.3694 14.4433 -1.06113 9
373 1 -2.45102 5.11536 15.2565 17
374 1 6.81346 15.3246 3.62947 22
375 1 -8.80603 -14.1748 -4.93497 11
376 1 -6.07378 5.258 15.489 17
377 1 5.39675 13.7575 8.95818 19
378 1 -12.5727 -9.88762 -10.5326 9
379 1 10.1161 17.9938 -1.26667 10
380 1 2.63199 6.82015 12.4927 18
381 1 -7.63453 3.36137 7.18071 20
382 1 -11.8887 0.123113 11.1627 18
383 1 -7.39995 -7.42036 -4.52397 16
384 1 -1.72258 13.3604 8.18695 12
385 1 -8.2371 -11.6707 -10.361 12
386 1 -2.09241 -4.81724 -9.5752 20
387 1 -6.13193 -9.10454 4.20852 18
388 1 8.437 -2.67386 13.463 13
389 1 -2.29232 -6.31217 15.1349 12
390 1 -8.29636 4.96213 -9.04109 20
391 1 11.2294 6.58698 2.33073 15
392 1 -10.7729 -11.5017 -3.38871 14
393 1 1.27534 18.8328 -3.72965 11
394 1 1.99716 10.5561 14.7028 17
395 1 -14.5623 -1.63944 -1.34766 17
396 1 -0.862852 13.573 -4.81417 18
397 1 3.33025 10.6118 -6.52673 23
398 1 -4.09919 -7.31831 -3.86811 18
399 1 0.427961 0.605844 17.7675 10
400 1 -1.17609 -8.52441 -13.7424 11
401 1 3.06987 -4.35193 -7.91663 19
402 1 11.8449 -10.2396 5.43563 10
403 1 -5.09484 13.8737 3.93193 11
404 1 0.261088 8.93867 12.5373 19
405 1 11.5389 10.9262 -0.0293665 18
406 1 -6.15163 5.84993 -10.0949 20
407 1 -15.9691 -4.3601 2.9536 11
408 1 2.14551 18.0251 5.30275 15
409 1 -4.32278 3.67911 -11.3271 16
410 1 15.1016 8.87911 -0.777721 18
411 1 5.72886 15.4564 -9.39684 17
412 1 14.5985 2.4888 0.969834 20
413 1 3.9581 3.37926 -5.86552 19
414 1 -3.02746 -16.0991 6.08274 11
415 1 0.600884 -7.64997 12.9292 16
416 1 -12.0899 3.85604 -5.61937 20
417 1 -6.10252 -14.4548 7.13123 16
418 1 -4.86533 -7.7885 -9.9464 18
419 1 10.5904 19.7348 7.20946 10
420 1 0.942426 4.01108 -10.3494 17
421 1 7.64672 0.706981 13.2282 13
422 1 -9.28969 4.94812 9.98073 16
423 1 2.4246 -10.1117 3.6955 16
424 1 -12.1825 -6.01296 -1.44333 15
425 1 15.2921 -4.67055 -4.96111 13
426 1 12.4686 -6.30424 0.714396 19
427 1 8.60344 -5.51794 -7.28017 19
428 1 3.38759 4.56166 -8.76879 14
429 1 12.8188 -7.09206 -5.33525 14
430 1 -9.47667 2.6475 15.8672 12
431 1 5.56594 15.9575 0.863552 23
432 1 -9.62165 -2.20465 -14.8246 11
433 1 7.77275 -0.549461 -16.9136 6
434 1 -7.73129 -0.276346 7.73091 20
435 1 4.08851 17.8363 -1.02765 16
436 1 -10.0287 -5.42283 -11.7314 16
437 1 -15.614 -1.85102 4.42038 11
438 1 -6.49271 -9.81016 -13.7118 10
439 1 -3.49863 -14.3081 11.4873 11
440 1 7.85534 12.5033 -7.50294 16
441 1 11.2623 3.61765 15.0425 14
442 1 16.3375 7.11784 1.25443 11
443 1 -10.8522 -14.2296 -1.53418 12
444 1 -6.33414 -0.353761 -15.1475 14
445 1 -7.42422 16.0684 11.3876 9
446 1 15.9618 -0.472677 6.75442 13
447 1 4.62217 17.8581 -9.51702 12
448 1 11.8934 8.40661 -6.05403 17
449 1 6.2512 15.4023 11.7768 17
450 1 -6.6056 -3.07426 5.77401 18
451 1 8.88993 14.4697 9.50166 20
452 1 9.07106 -0.795746 17.8722 9
453 1 -1.18714 3.28279 -11.9857 18
454 1 -2.92273 -0.553112 16.2336 17
455 1 12.2571 11.9402 5.99335 18
456 1 10.411 10.9082 -5.78075 19
457 1 0.0402801 15.5015 -2.0149 18
458 1 2.83565 14.2128 -0.435574 24
459 1 15.8696 -0.388335 10.2544 9
460 1 8.07375 7.75451 -10.0822 15
461 1 11.1499 -13.0625 -2.47465 11
462 1 14.6343 11.4976 11.2037 11
463 1 -11.2375 -12.2755 3.83263 16
464 1 -0.698741 15.9549 -8.80719 12
465 1 -10.4365 0.344182 13.7254 13
466 1 -6.45192 12.8247 -8.0519 10
467 1 7.42298 -8.44593 3.0201 19
468 1 4.89893 -1.13292 -10.6121 16
469 1 -2.73725 17.7897 -6.25289 10
470 1 -9.0975 -4.07628 -7.48839 16
471 1 5.79566 -13.4958 4.28311 11
472 1 -10.3771 -7.44282 0.308054 17
473 1 0.962247 12.6205 -16.2412 4
474 1 -5.87983 17.5309 7.35677 12
475 1 -8.77018 -1.43026 10.7388 20
476 1 2.94276 -6.55184 -5.41962 19
477 1 4.20133 -6.26819 12.812 14
478 1 -11.3642 9.99923 9.46643 16
479 1 7.16849 2.1698 16.9896 12
480 1 6.88669 18.9102 -0.470161 11
481 1 13.0619 -2.15623 -9.12882 14
482 1 3.26878 14.8922 11.1082 18
483 1 0.626843 3.73403 -17.7222 13
484 1 -6.37257 -15.4509 10.1865 9
485 1 5.45428 -5.15192 -10.8838 20
486 1 6.55243 19.1727 2.02119 16
487 1 7.2834 11.3298 -13.3691 10
488 1 2.59945 -4.97282 -11.1259 19
489 1 -6.28655 -10.2386 -2.24837 17
490 1 -11.6081 -5.12346 -14.2289 12
491 1 10.8621 3.44867 1.43965 21
492 1 12.5277 2.67368 -1.28913 18
493 1 9.81469 -2.78734 -8.59808 20
494 1 14.8901 10.2613 14.4053 8
495 1 7.47919 -14.0304 -7.26116 11
496 1 4.05434 3.36845 -19.0308 8
497 1 13.6616 16.0166 3.04501 18
498 1 12.2816 15.701 11.2771 14
499 1 10.7726 9.13645 5.77606 18
500 1 17.0476 1.19919 1.83436 14
501 1 10.5673 6.65985 -3.30816 20
502 1 11.7183 13.3305 13.9835 12
503 1 12.4426 4.87111 17.7483 8
504 1 16.4068 12.7688 1.87435 16
505 1 -1.21266 3.41808 14.0336 18
506 1 17.8552 0.248755 -2.44255 9
507 1 12.4637 -1.44809 10.9771 15
508 1 -3.88342 1.27894 -7.39037 19
509 1 15.0162 7.25806 4.43691 14
510 1 -9.50826 8.0092 8.31633 17
511 1 14.0896 13.6807 8.49713 16
512 1 14.9977 2.64993 12.3759 9
513 1 2.60745 9.68367 11.388 20
514 1 3.23429 19.1334 8.12791 11
515 1 2.35245 -15.7181 3.10678 13
516 1 -6.4424 10.2677 -2.02043 18
517 1 13.9399 11.371 0.0846054 19
518 1 10.3216 3.62839 -10.5376 9
519 1 5.1677 14.8934 -1.87716 19
520 1 -5.03331 -11.2246 -8.39583 14
521 1 7.42612 -7.90699 -11.5426 11
522 1 -12.7206 2.71507 6.11603 21
523 1 -7.29891 8.87583 -11.9742 10
524 1 -6.35664 -10.4507 0.859897 20
525 1 -5.88119 1.88103 -9.6592 18
526 1 -9.66029 5.63759 -3.28891 20
527 1 9.55607 -8.40695 1.41007 15
528 1 11.5757 14.6959 8.28228 18
529 1 0.65742 -7.68296 5.02562 17
530 1 -13.7915 -1.16157 -4.23601 17
531 1 4.36879 0.0159851 -18.3802 11
532 1 -6.40189 3.88133 10.0247 14
533 1 11.7551 16.2652 -1.98973 19
534 1 4.37335 1.7172 15.6994 12
535 1 6.26037 10.3196 -9.29637 15
536 1 13.6827 17.4956 0.168865 12
537 1 -1.27938 -13.2803 -8.10878 12
538 1 -13.2645 -5.45361 9.88125 12
539 1 14.6865 1.7942 4.46929 19
540 1 -2.36622 16.4156 9.43295 16
541 1 10.7321 12.7596 -3.13369 18
542 1 -12.74 9.38103 -3.03641 11
543 1 8.67424 12.3001 4.03922 18
544 1 -9.25253 -8.40772 -2.39193 17
545 1 10.5232 -2.40448 5.35825 16
546 1 8.45008 17.7434 4.03537 22
547 1 -6.53506 9.3315 12.6038 15
548 1 -7.86419 -7.96483 2.32668 21
549 1 -9.42534 -1.06759 -4.67371 17
550 1 12.2703 3.66105 9.58249 19
551 1 0.612933 1.72892 12.3898 17
552 1 14.803 4.80655 15.3407 9
553 1 -3.28594 15.7323 -1.07202 14
554 1 2.23651 0.243028 -14.2071 17
555 1 -10.9458 2.61597 8.54994 21
556 1 7.63988 -0.648019 -8.34515 18
557 1 12.6718 -9.2441 -3.38114 15
558 1 13.5128 4.74049 12.5743 14
559 1 -7.40216 4.66951 18.2709 6
560 1 11.7438 6.34076 10.6903 17
561 1 -2.69069 -4.6572 11.8507 21
562 1 -4.23368 10.0741 15.2417 11
563 1 -2.6702 -7.1463 -11.8691 19
564 1 -8.61602 1.31503 10.3398 20
565 1 10.4353 0.264103 14.0795 12
566 1 -8.9586 -16.0834 4.45543 14
567 1 16.929 6.42202 -2.12746 13
568 1 6.97244 -8.91993 -2.62364 20
569 1 6.62906 10.137 1.43277 22
570 1 11.0972 17.4276 5.03707 16
571 1 1.45546 -1.8677 -11.3296 20
572 1 6.96971 12.578 -4.05809 20
573 1 8.98802 8.86624 -0.521461 21
574 1 -4.99671 -12.7833 -0.757745 21
575 1 -3.59972 -0.933571 -13.839 25
576 1 -7.10584 11.5903 4.31682 17
577 1 3.71031 -10.1029 -7.78628 21
578 1 14.3896 14.6826 -3.33536 13
579 1 14.3662 17.5387 -3.14414 9
580 1 9.19197 5.03472 17.6048 13
581 1 10.5421 2.01988 17.2712 11
582 1 -1.50699 -9.14938 14.0496 14
583 1 1.60203 10.647 -9.86779 21
584 1 7.38105 11.1025 9.35378 19
585 1 6.66695 -9.31624 -8.90228 19
586 1 9.36303 16.9579 -5.14648 11
587 1 10.4128 6.30498 8.04894 18
588 1 13.38 -2.79136 0.0989049 19
589 1 3.74175 8.08633 16.0775 15
590 1 -11.2613 -0.64931 8.03459 22
591 1 4.4041 -7.84136 4.37332 17
592 1 -10.1332 15.4574 2.81764 6
593 1 9.83753 11.8418 7.95869 20
594 1 -11.2041 -1.73408 2.84319 18
595 1 -1.76669 8.23681 19.0034 8
596 1 -1.05732 1.11162 -15.7782 21
597 1 -7.38543 5.342 -13.1695 9
598 1 5.61434 -11.1339 1.94908 15
599 1 7.03478 10.4588 -6.2531 21
600 1 -10.3525 8.60298 14.1657 10
601 1 -0.901581 0.134455 -12.4983 19
602 1 -0.6085 -15.5987 9.28295 7
603 1 3.23728 12.7849 2.29688 21
604 1 -2.54973 8.71502 11.1128 17
605 1 -9.54871 -9.15784 -11.7286 15
606 1 -5.68315 -6.3535 -12.8937 20
607 1 -5.19193 -11.7854 -11.2347 10
608 1 1.58362 17.9327 -9.47075 13
609 1 0.331417 18.5854 8.57903 12
610 1 1.52408 -10.0901 -6.67564 16
611 1 8.06874 -12.181 -1.65075 19
612 1 1.93173 -2.31374 10.7886 21
613 1 15.1103 3.30855 -5.22264 12
614 1 2.27759 -8.16055 -1.82353 17
615 1 -12.0632 -4.1962 7.59651 17
616 1 -3.58355 -17.7643 -3.34783 9
617 1 -13.2749 -9.49873 -4.5409 8
618 1 -10.6392 -2.26971 13.9351 12
619 1 -6.44476 -16.5354 -4.71818 9
620 1 15.6345 3.17622 -2.45365 17
621 1 -7.23516 16.6823 4.5557 10
622 1 -15.7505 10.4324 6.08098 12
623 1 12.8297 0.555464 1.97758 19
624 1 -12.0007 -1.39743 -9.69925 14
625 1 1.94473 13.4997 -5.79675 21
626 1 11.6655 2.65071 -5.24439 21
627 1 10.1239 10.7914 10.7251 13
628 1 -14.9949 1.90943 -5.30503 11
629 1 -13.8329 -7.83386 -7.72497 9
630 1 -1.53835 15.5635 15.4002 8
631 1 5.66723 9.08779 -15.5632 7
632 1 10.1318 14.4614 5.1511 22
633 1 -4.69074 3.7623 12.605 19
634 1 -0.261803 -15.8371 0.157947 18
635 1 -5.94331 -16.7395 5.39766 9
636 1 15.9876 11.5911 7.67195 12
637 1 0.52818 -10.319 -9.57939 18
638 1 -9.12615 10.5803 1.75776 13
639 1 9.07775 5.99862 5.42109 17
640 1 -9.54973 -5.34889 4.41728 18
641 1 10.8489 13.6778 -6.38181 13
642 1 -6.83372 -10.304 -5.71412 16
643 1 0.215224 -16.8985 -3.08274 12
644 1 1.52722 -13.0306 1.16203 18
645 1 4.89849 11.9107 -11.358 15
646 1 8.27034 14.8161 -1.83343 20
647 1 -3.77735 0.234897 -10.5223 20
648 1 -0.511339 3.34385 9.19121 18
649 1 1.78769 4.16744 -13.9789 17
650 1 -12.013 -1.79869 -12.972 10
651 1 -11.915 -3.8023 -0.191065 18
652 1 8.70955 15.3857 -7.76993 11
653 1 -5.95628 -2.70401 -17.0075 12
654 1 10.4933 4.18194 -2.50808 18
655 1 15.5488 -5.74642 0.386003 12
656 1 -14.4142 7.24411 10.6128 13
657 1 9.03123 -7.89452 5.27351 16
658 1 15.1017 -0.961086 2.34253 21
659 1 13.97 -0.203918 12.9551 8
660 1 2.5528 12.6823 9.81463 22
661 1 -7.69487 3.42211 12.8794 18
662 1 -6.48077 8.25794 9.29514 17
663 1 0.892517 -10.2021 11.7215 13
664 1 7.99991 12.9988 13.6244 16
665 1 -13.9442 -2.18263 1.5357 17
666 1 9.70232 -7.46189 -4.86448 21
667 1 -10.5106 11.5394 -1.27417 11
668 1 2.29128 -13.0757 4.56776 14
669 1 -0.791079 3.39033 17.5662 12
670 1 2.57004 15.523 7.32634 19
671 1 5.74681 -6.84711 9.35875 21
672 1 -1.55749 6.51627 13.0784 18
673 1 -14.7031 -5.5169 0.321402 15
674 1 2.99195 10.6062 17.8533 12
675 1 8.11185 10.2573 6.38728 18
676 1 -8.89093 -10.944 2.60372 17
677 1 0.485654 -18.1157 4.09644 6
678 1 2.27562 -6.13004 10.6273 17
679 1 14.3239 -5.9986 8.37893 8
680 1 8.13311 5.78126 10.855 16
681 1 -1.98995 -9.44149 -5.31724 17
682 1 -1.84395 3.45827 -8.07327 17
683 1 -3.92058 -3.84348 17.1136 7
684 1 2.3605 16.077 1.20609 20
685 1 17.7252 -1.45628 4.13505 9
686 1 3.22141 5.98912 -6.28007 17
687 1 -6.93096 12.433 13.0517 14
688 1 7.88331 9.63345 12.2131 14
689 1 11.7405 -5.64447 -9.02923 12
690 1 -2.92947 -15.0277 -1.16229 20
691 1 9.84411 0.603024 5.85162 18
692 1 -0.904588 -4.6308 -12.7731 15
693 1 -0.925273 9.46391 16.3637 14
694 1 2.49939 -5.86758 -14.8097 10
695 1 8.80728 5.49166 -11.8955 11
696 1 11.3468 6.58509 -9.29255 14
697 1 16.6709 -4.31719 3.06827 12
698 1 -0.272434 -0.878855 14.5157 15
699 1 -6.76341 -2.8957 -13.9626 21
700 1 4.85679 18.2765 -3.62031 13
701 1 -9.26527 6.76744 3.25442 17
702 1 13.5847 0.714767 -3.45504 21
703 1 18.2684 11.9356 4.15102 7
704 1 -2.80254 -3.12058 -14.3872 21
705 1 -2.8015 18.8581 7.31094 11
706 1 17.1354 14.0214 6.82325 9
707 1 14.5675 14.5211 0.108735 18
708 1 5.48784 7.8254 -7.85061 22
709 1 12.9562 -9.51143 2.16133 11
710 1 -8.53491 0.127219 2.3402 18
711 1 11.55 12.9806 2.43523 18
712 1 -11.3089 -10.0932 -0.615181 13
713 1 -8.61636 9.81124 -7.19472 17
714 1 9.89629 3.12367 12.7472 17
715 1 -11.1953 -3.96668 -4.03589 16
716 1 -12.1284 8.21511 3.88865 17
717 1 13.0213 -4.10773 -6.9487 17
718 1 -10.0629 -9.57776 -5.95921 13
719 1 17.8637 -2.75404 0.532185 10
720 1 -14.8079 8.91596 2.99457 14
721 1 11.7988 13.1236 10.8995 20
722 1 -1.83269 -7.64004 11.3547 18
723 1 7.26212 7.08952 15.9881 12
724 1 13.9362 -2.63723 8.33283 17
725 1 -14.7889 1.24552 1.23769 13
726 1 1.09208 12.5457 12.364 22
727 1 1.79375 12.6995 -12.1994 15
728 1 -8.5763 -4.97304 -15.8341 11
729 1 3.29849 18.6387 2.52796 16
730 1 -11.4092 -13.2939 7.32539 11
731 1 6.92445 13.4114 1.41631 20
732 1 -1.68752 11.0272 14.3211 14
733 1 15.2634 -0.0515503 -0.684863 21
734 1 10.0917 -9.8029 10.4184 9
735 1 2.38303 15.8634 -13.5728 10
736 1 14.6163 11.7567 -5.18676 8
737 1 -6.73106 0.0303138 12.7456 17
738 1 14.0503 9.17837 6.31588 14
739 1 -1.64288 -3.18471 -6.57392 20
740 1 16.9032 15.5448 2.58689 9
741 1 -14.8044 4.1662 -0.24847 14
742 1 -5.2402 -12.1778 5.71264 19
743 1 3.02106 13.5116 -8.8159 21
744 1 6.76786 -5.44993 14.8962 10
745 1 -0.839198 -10.1961 0.468624 18
746 1 -12.1573 13.9371 4.50573 13
747 1 -12.9291 6.61054 -0.475515 14
748 1 6.31899 5.54633 -7.99681 19
749 1 -1.94503 -11.1704 -9.76466 11
750 1 -9.11565 3.44981 4.32927 19
751 1 17.4309 10.2589 -0.235439 12
752 1 7.03318 -1.68401 -13.7489 11
753 1 -11.8231 -7.39653 -12.6629 13
754 1 -0.153173 -12.6495 -1.88937 18
755 1 0.350671 14.7197 10.6717 18
756 1 7.58239 -9.48277 -0.247858 17
757 1 -0.803073 8.11482 -13.0908 10
758 1 16.0387 -1.99623 -2.11895 16
759 1 7.05249 7.55675 8.78651 17
760 1 1.07945 -14.8411 -5.3883 13
761 1 1.06218 -0.715152 -17.3756 18
762 1 9.9324 9.82886 2.97232 20
763 1 -3.28671 2.75262 -14.1883 15
764 1 -3.79302 -9.17785 13.1269 14
765 1 9.00036 12.1805 -0.711261 21
766 1 -9.99077 8.43925 -2.98035 18
767 1 -14.6627 4.51732 7.95276 16
768 1 -0.735984 5.56847 20.0548 7
769 1 -12.0364 -10.3246 5.75004 14
770 1 4.67663 8.68686 13.2507 17
771 1 4.23763 -12.2404 -1.64171 15
772 1 3.69043 12.2978 -3.95516 23
773 1 -1.3101 17.1545 12.0843 14
774 1 -13.5003 3.94109 10.5687 13
775 1 -5.02226 14.9981 8.54585 13
776 1 0.107686 -4.10477 14.4151 15
777 1 -2.78014 -13.1723 4.52498 18
778 1 6.93712 3.89673 14.8525 15
779 1 11.6911 -2.10813 -5.51259 19
780 1 3.90689 -12.8283 -6.3297 15
781 1 -10.4644 4.57245 -11.2092 10
782 1 -1.44686 0.83089 -19.0765 12
783 1 4.60912 10.157 9.45578 17
784 1 -7.77242 -5.81561 10.9826 18
785 1 2.63952 7.03236 -9.49457 17
786 1 -14.8957 4.77436 -3.36901 13
787 1 12.0191 13.8724 -0.213951 15
788 1 -3.3262 -17.9275 -0.0441505 12
789 1 13.1037 15.0552 5.65109 15
790 1 -10.8681 -12.767 -10.0076 7
791 1 5.4867 17.8228 5.98694 20
792 1 -5.9054 1.42516 15.2577 18
793 1 1.953 -13.5429 -8.16741 12
794 1 14.0063 2.58709 7.38264 13
795 1 4.56037 -14.1653 1.3459 14
796 1 7.33992 15.8733 15.3523 8
797 1 12.6374 3.33427 -7.78749 16
798 1 10.2784 -7.04496 -1.62532 21
799 1 5.18324 1.48809 -9.69522 15
800 1 -9.58484 -1.35964 -7.79349 20
801 1 -8.4416 2.8647 -11.3643 15
802 1 -10.6376 12.0019 13.7693 9
803 1 11.7233 -7.15309 10.3292 11
804 1 -12.1274 -6.75395 5.70503 16
805 1 10.3085 6.09318 -0.433202 19
806 1 3.16533 4.65296 -16.3738 10
807 1 12.6421 9.44206 3.60896 16
808 1 5.71486 16.9664 8.8156 14
809 1 -15.645 -4.16647 6.81934 8
810 1 6.17235 -11.0096 -5.69993 19
811 2 -9.27469 -2.93467 -4.14561 17
812 2 -7.28453 10.2381 2.89692 14
813 2 -0.195812 -2.85323 -11.6135 19
814 2 0.90909 12.4844 8.61147 18
815 2 5.77224 -12.9396 -7.04457 13
816 2 -9.32158 -10.991 -6.79855 16
817 2 -0.00129379 7.03855 19.64 7
818 2 3.54343 3.72015 15.7149 10
819 2 -11.0516 -5.55665 0.163482 18
820 2 -10.7567 7.16022 -4.11933 20
821 2 5.7185 15.6011 10.072 13
822 2 -12.4301 4.05966 7.56367 20
823 2 3.64167 18.2261 -8.02723 12
824 2 13.2224 2.60858 5.54322 17
825 2 -1.3934 16.6025 -5.17505 17
826 2 12.2617 10.4511 -5.40829 15
827 2 -12.7322 -1.91811 -11.3057 8
828 2 -10.1385 -5.65575 -8.04575 14
829 2 0.481817 -0.533945 16.1964 10
830 2 8.12629 -0.40636 -6.50045 19
831 2 4.27492 -13.7736 -0.510065 17
832 2 0.928865 15.5215 -0.259111 19
833 2 -13.6121 0.0944796 -2.52717 15
834 2 12.1557 6.50288 8.86775 17
835 2 5.95113 -9.48771 -4.35191 16
836 2 -5.23044 -17.9314 -4.34214 4
837 2 -12.6227 -9.11754 6.83091 12
838 2 -3.86447 -12.4474 10.1791 16
839 2 14.2498 -4.59375 7.26452 12
840 2 -2.79289 -12.1645 -8.10607 17
841 2 7.12686 -1.45895 17.7436 8
842 2 -2.84622 10.6797 -10.1741 17
843 2 -4.73727 -15.8036 6.74781 13
844 2 -7.17037 -14.8669 -4.05415 10
845 2 0.0970858 10.3172 15.1913 17
846 2 -7.42051 7.44628 2.09039 17
847 2 -1.97589 3.11698 15.8603 18
848 2 -6.90581 14.4099 0.186047 7
849 2 11.4231 -8.51614 1.88741 16
850 2 -2.78415 6.67785 11.9089 17
851 2 1.58524 9.81393 -6.19872 22
852 2 9.84546 15.6426 8.66142 21
853 2 11.65 15.5113 4.21459 21
854 2 11.4736 0.951935 -6.20711 18
855 2 -8.95272 12.2795 13.8088 10
856 2 3.4812 7.39112 -11.7293 14
857 2 -0.423439 12.69 -11.9085 13
858 2 9.89796 10.4739 -0.933876 18
859 2 -8.07859 3.19826 17.2289 10
860 2 -15.3207 8.72378 6.83003 16
861 2 8.51987 3.61523 -11.2124 10
862 2 -8.26076 -10.9013 12.7046 10
863 2 -5.78523 -3.82975 -10.6027 19
864 2 -0.79169 2.41073 -17.7235 13
865 2 -11.2932 -2.43726 6.89197 16
866 2 15.9924 11.637 0.0613013 16
867 2 -2.54636 9.86119 4.2261 15
868 2 -1.18588 -10.951 -1.80287 18
869 2 0.431974 17.581 1.26728 14
870 2 6.826 1.76025 14.7135 16
871 2 2.64231 -7.4337 12.5697 12
872 2 13.7968 7.2065 6.22092 17
873 2 10.63 16.5854 -3.65948 16
874 2 -11.0005 10.2261 -2.97832 12
875 2 13.9387 6.20461 16.8658 9
876 2 9.21521 -13.6887 2.32751 10