ITEM: TIMESTEP
15000
ITEM: NUMBER OF ATOMS
2000
ITEM: BOX BOUNDS pp pp pp
-30.0 30.0
-30.0 30.0
-30.0 30.0
ITEM: ATOMS id type x y z Coordination
1 1 -11.0953 5.3025 -11.8158 11
2 1 -5.40056 -8.70919 -9.7782 17
3 1 0.445093 15.6306 10.3676 12
4 1 7.19768 -10.8154 8.93857 13
5 1 -10.4291 4.59638 0.0951819 18
6 1 9.45446 -10.1084 -8.58087 13
7 1 -11.0302 3.00073 -5.84503 17
8 1 0.930897 -11.4228 8.91248 17
9 1 -7.84468 -2.0559 -10.2065 18
10 1 -9.61062 -12.0554 3.89055 14
11 1 13.8597 5.23449 -10.108 10
12 1 -4.09618 -7.63505 4.993 18
13 1 -13.3955 -10.3612 -0.0911818 9
14 1 0.861323 4.58243 17.4388 13
15 1 0.17212 4.04402 11.6233 19
16 1 -2.58169 12.0419 -10.943 18
17 1 4.91224 1.58442 12.6222 18
18 1 -8.07635 0.914932 -11.7739 21
19 1 -12.7214 -6.92825 11.2701 12
20 1 15.8862 7.93639 8.35212 14
21 1 1.05385 11.8772 -13.4306 20
22 1 5.64061 4.28251 -12.6401 20
23 1 12.9341 7.06581 12.2894 16
24 1 -12.485 5.61478 -6.56386 12
25 1 -11.7146 14.5588 11.6469 6
26 1 6.94244 -13.0332 5.91898 12
27 1 4.46092 -12.6548 -10.5144 8
28 1 5.88961 -15.1456 2.21742 11
29 1 -7.73223 -12.1655 -7.9501 14
30 1 -9.30507 -4.36336 13.8149 15
31 1 0.411512 -5.84537 -12.9761 15
32 1 9.50608 -7.39686 -8.99092 18
33 1 1.95488 6.11058 -12.9207 16
34 1 2.23804 6.47011 15.7324 17
35 1 0.0420338 -8.63252 8.81603 24
36 1 4.99384 -5.84744 10.2218 19
37 1 -11.113 -0.250916 0.659537 17
38 1 -15.3741 -3.22866 7.4487 12
39 1 3.61952 15.0896 3.60671 15
40 1 1.52924 -10.1981 -13.2997 12
41 1 7.63745 -2.36143 -7.95785 20
42 1 -0.124862 -3.65984 15.0892 11
43 1 -11.858 9.06033 5.56316 10
44 1 2.96128 15.7148 -8.83 12
45 1 2.47946 14.4958 13.7697 14
46 1 -4.41284 6.06177 -9.29219 20
47 1 -0.256941 13.472 3.22252 17
48 1 1.55428 -10.1506 2.9403 17
49 1 6.9706 -9.30024 -4.06667 18
50 1 0.924815 -4.51368 -18.3339 14
51 1 -11.409 9.35557 11.5686 13
52 1 -11.8556 -3.68035 -8.12476 22
53 1 -4.8693 8.13803 -3.61914 17
54 1 -8.68127 -5.87867 5.86912 20
55 1 0.239134 12.5933 14.3374 13
56 1 -9.08 6.16471 -6.15867 20
57 1 -8.279 10.7131 10.0754 19
58 1 -4.75887 -16.2761 4.27479 15
59 1 8.91944 -15.5971 -6.52159 9
60 1 5.28896 15.2977 13.026 15
61 1 -12.9817 1.28636 -8.08724 14
62 1 -11.4595 8.52056 -5.55023 13
63 1 5.30929 6.86471 10.0967 21
64 1 13.21 -1.17683 -9.79875 11
65 1 9.22009 -11.372 4.24678 11
66 1 -14.8927 -5.54047 5.3498 12
67 1 7.16226 18.6935 5.80463 8
68 1 5.81239 -4.87116 13.2844 10
69 1 -5.67223 -6.04397 7.82135 21
70 1 15.5277 1.61577 10.3882 9
71 1 -5.08312 15.7861 10.7184 11
72 1 -2.28769 -6.42727 -8.2047 17
73 1 -12.2085 4.90048 8.88658 15
74 1 -6.50157 11.3379 1.3533 15
75 1 -0.0889355 8.0967 -7.23935 16
76 1 14.238 7.05609 -4.38416 14
77 1 3.85138 -11.1976 10.8 14
78 1 -4.45291 14.1841 -3.55564 12
79 1 -10.9594 13.9804 8.86543 11
80 1 -8.7057 -2.74719 17.04 11
81 1 -1.63506 9.80033 5.84355 19
82 1 -7.93918 -7.37133 14.359 11
83 1 14.9071 -9.34212 -1.73603 9
84 1 -7.63106 4.67237 7.09185 20
85 1 -7.12572 -16.8416 1.78468 9
86 1 9.0081 -8.39115 -5.77496 20
87 1 9.70061 -1.40282 -17.262 5
88 1 -7.83406 1.36435 -14.9672 14
89 1 1.06833 9.2899 1.11169 20
90 1 -6.97051 4.07943 -8.00018 18
91 1 3.93652 8.84433 15.7454 14
92 1 -0.453044 14.3163 -7.0197 20
93 1 -11.8504 10.3196 0.130885 10
94 1 -6.26287 -3.77306 9.95963 18
95 1 12.1376 -1.04034 7.23694 20
96 1 7.28232 -4.51419 -10.1386 19
97 1 8.32991 0.29681 15.5802 12
98 1 -8.405 -5.92414 -0.605479 20
99 1 -7.7701 -6.434 -4.01855 21
100 1 9.84817 -7.40373 2.06764 13
101 1 8.35211 6.19489 -12.4712 13
102 1 10.1181 19.0564 -1.15656 6
103 1 -9.73233 -14.17 12.6452 7
104 1 -10.6337 -14.9025 8.75291 7
105 1 4.13919 -5.2987 -17.1789 12
106 1 12.6521 -10.4503 1.04168 8
107 1 -2.76563 -15.5355 6.33607 14
108 1 -9.53868 -8.4987 0.886039 19
109 1 13.6569 12.1627 11.7367 14
110 1 16.994 -0.826022 -5.45318 11
111 1 -11.0045 -11.2046 1.77946 15
112 1 14.0296 5.55879 4.72053 19
113 1 14.5633 12.2346 2.63347 14
114 1 -3.13111 3.39567 15.787 14
115 1 -5.80922 13.7957 13.0732 9
116 1 -4.94102 11.3675 -4.49977 18
117 1 -1.22292 -6.4633 -10.9742 19
118 1 6.50227 -9.40539 -10.5507 16
119 1 -0.159234 15.4896 -12.8857 10
120 1 8.54718 -3.90825 12.5069 10
121 1 2.62919 0.342981 -20.4014 10
122 1 -3.42994 9.61708 -6.5538 19
123 1 10.9564 1.38827 -5.89103 19
124 1 -6.42431 10.9628 -7.33363 16
125 1 -7.01842 15.1724 1.02846 8
126 1 11.8062 5.45289 -7.20357 17
127 1 10.5717 -4.70393 9.76424 17
128 1 -1.25853 18.1438 4.46728 12
129 1 16.5051 9.66678 -5.01667 11
130 1 8.13015 13.5164 -0.799622 18
131 1 -1.33089 16.3841 1.69104 14
132 1 17.3687 9.19578 -1.42449 10
133 1 -2.49494 8.48449 -1.53195 18
134 1 2.57194 13.8165 -11.717 16
135 1 6.19742 13.3703 -11.121 13
136 1 -9.29496 -14.1285 0.873864 12
137 1 -11.9873 7.12756 0.957902 15
138 1 -5.30687 -0.188566 -13.5543 17
139 1 -3.80547 -9.71503 -15.5776 12
140 1 12.628 15.6817 6.46822 12
141 1 4.58711 17.608 5.80891 13
142 1 -11.4047 -3.09189 -4.30979 20
143 1 -10.2619 13.9783 5.3489 12
144 1 19.1176 3.56537 -0.976668 10
145 1 -11.064 2.01978 -13.7992 10
146 1 8.29323 12.338 18.1805 11
147 1 1.81574 21.1546 -0.88594 7
148 1 -2.55973 8.76373 9.90984 19
149 1 -1.6416 -3.88753 -16.2309 21
150 1 -0.275456 13.2261 10.8955 17
151 1 -1.78886 17.3973 -7.6615 9
152 1 3.694 -3.62163 10.9116 19
153 1 -11.542 -6.15566 0.536774 17
154 1 4.26187 -7.90074 -14.8157 11
155 1 -5.4354 9.41413 -10.2907 16
156 1 -2.49392 -11.5638 9.54165 18
157 1 4.35365 -9.92458 -2.32729 16
158 1 -1.51834 12.7695 -14.0074 16
159 1 -10.5807 3.81023 6.61827 21
160 1 11.0057 9.89207 -3.8834 16
161 1 -5.11848 6.43393 15.9762 15
162 1 -3.49366 -11.9028 12.1273 13
163 1 3.55641 21.173 -3.74588 8
164 1 0.397426 7.53836 9.40238 18
165 1 10.2862 9.55927 16.5883 16
166 1 -8.48928 13.1563 7.11425 16
167 1 15.5341 -4.25158 -6.25432 13
168 1 -3.97774 12.7932 10.7799 22
169 1 11.9639 -6.64213 4.65438 10
170 1 -14.3999 -0.337616 5.84414 14
171 1 -6.32228 -11.2049 4.37313 14
172 1 5.76008 3.93314 17.2313 17
173 1 -14.1145 1.02598 -2.48745 14
174 1 -3.16583 -13.6376 3.66701 20
175 1 1.14923 10.3332 4.39631 19
176 1 7.95364 15.6792 10.5804 12
177 1 -6.46174 13.6161 -6.38838 12
178 1 -14.5114 -4.94201 -5.64411 15
179 1 -9.19366 -5.80053 11.389 18
180 1 -1.28229 -11.3213 2.92339 17
181 1 1.30666 -10.822 5.75294 19
182 1 -12.3606 12.1242 3.73532 8
183 1 17.142 2.75285 5.58518 12
184 1 -5.89937 -7.99607 -17.1341 11
185 1 4.7797 -0.0203029 9.60584 19
186 1 5.09136 -15.9068 -1.01888 15
187 1 -1.08438 6.41786 -14.2739 15
188 1 2.34347 -4.70034 -15.4277 19
189 1 9.00823 0.304481 -14.8408 14
190 1 4.7608 11.6676 -13.4088 15
191 1 -6.16928 -4.0975 -7.314 18
192 1 -3.75512 14.7354 -8.09138 15
193 1 -10.9628 -7.91168 14.1879 10
194 1 8.17671 17.038 1.04371 14
195 1 -6.64123 3.36091 16.1117 12
196 1 -7.42267 11.1344 -2.56298 13
197 1 4.91364 4.74156 14.524 19
198 1 -1.71641 -7.3123 -16.9063 11
199 1 -2.49658 8.81502 -9.47915 19
200 1 3.44084 6.7261 -10.4887 22
201 1 -5.25058 -12.8475 9.35318 16
202 1 -10.4291 3.49668 13.5945 15
203 1 -5.70446 9.32838 9.87129 18
204 1 0.0258658 -11.0438 -6.29608 14
205 1 -3.92713 -14.4234 -3.86242 16
206 1 11.446 -13.123 -6.04457 9
207 1 14.0631 9.70561 16.4229 7
208 1 8.51317 8.9114 -4.31836 18
209 1 2.26758 13.4254 -5.66109 19
210 1 -11.4061 3.16517 2.36364 20
211 1 -14.1168 7.65255 -0.821264 11
212 1 3.20496 5.39994 12.161 16
213 1 3.87268 -14.8976 -4.00515 14
214 1 11.2637 -2.11018 -3.26791 17
215 1 -8.96528 7.53276 9.86289 18
216 1 -10.6098 -6.12355 -6.52617 22
217 1 6.36712 10.6002 -11.2548 19
218 1 6.54294 -1.77428 11.0603 16
219 1 15.199 13.7938 -7.26357 8
220 1 1.0896 0.555245 -13.6892 17
221 1 -0.630757 -16.7544 6.84225 8
222 1 10.4079 -0.568981 -8.37089 17
223 1 -7.23297 -8.20544 6.55437 19
224 1 6.35379 -15.9754 -5.89324 11
225 1 -9.06932 -4.50617 -9.16091 16
226 1 8.94794 14.3603 -6.48354 15
227 1 -1.26635 1.10253 -16.3978 20
228 1 6.7952 6.91251 13.0459 21
229 1 17.7734 3.65034 2.12789 14
230 1 9.7135 -4.65512 -12.417 11
231 1 -5.78611 -3.23411 -11.7755 18
232 1 -10.2992 -1.06987 -9.40403 23
233 1 -7.69706 -9.39286 9.99982 18
234 1 11.0786 0.918364 13.1526 12
235 1 -8.75089 -7.15164 -14.8448 13
236 1 3.69313 7.2038 -15.6297 10
237 1 4.90591 13.0602 -1.33681 21
238 1 -6.66917 -4.62268 15.9103 11
239 1 -13.1923 -6.78414 -11.1102 11
240 1 -7.54173 -7.06929 -8.04781 19
241 1 -1.03128 9.7263 -14.8726 12
242 1 -5.80538 -9.62627 -6.64789 20
243 1 8.57627 -3.35842 -15.103 12
244 1 15.2908 -1.46236 -7.7112 15
245 1 14.3704 0.8862 6.44547 18
246 1 -4.95893 -9.50122 9.13965 25
247 1 -2.70431 -10.5481 -0.388919 21
248 1 6.28694 10.5894 15.7979 17
249 1 -5.40757 -13.7773 6.74809 19
250 1 4.38744 -12.8053 1.05993 17
251 1 -0.78041 17.5708 -4.53802 13
252 1 3.5215 2.45695 -13.6607 17
253 1 -14.1921 -3.99532 -11.8769 11
254 1 -8.77167 -10.3348 13.2078 16
255 1 5.36821 12.2645 13.5257 19
256 1 1.16932 -11.4275 -2.83475 17
257 1 -7.69931 -6.38558 -11.4224 20
258 1 -7.47473 6.89314 -8.59695 17
259 1 9.59739 4.87584 9.03715 19
260 1 -2.89617 2.40266 -8.91377 20
261 1 2.68198 9.0788 -8.17843 19
262 1 -1.08903 -9.764 -15.1981 12
263 1 -4.28245 16.2945 -0.417201 8
264 1 3.82245 9.39601 5.88942 17
265 1 12.6121 3.37383 5.79888 20
266 1 -11.2876 -0.970014 4.35459 19
267 1 -5.48049 -9.14601 12.8523 17
268 1 -4.63562 10.2827 4.25339 22
269 1 3.75981 0.166539 -15.8419 18
270 1 15.9532 9.13442 1.53922 15
271 1 6.48884 -8.18452 -1.64377 18
272 1 -2.98295 -0.157017 13.4133 16
273 1 -11.4787 -7.09968 6.98289 14
274 1 -0.218851 -14.1053 -5.1253 13
275 1 -5.22606 10.3638 12.3246 18
276 1 -6.80324 8.64147 14.9194 11
277 1 -14.2789 -0.623157 2.92184 16
278 1 -14.119 -3.5964 13.6576 9
279 1 13.1688 -6.34341 -2.35718 14
280 1 -10.3197 -11.6953 10.6651 15
281 1 12.8182 -3.25823 -7.30879 18
282 1 11.0126 -10.53 -4.60047 15
283 1 3.35083 18.4924 -5.43371 16
284 1 -8.08071 8.91464 -4.21458 21
285 1 7.84472 10.6474 8.40858 19
286 1 9.3296 -12.4394 -1.97575 11
287 1 -3.36659 12.9313 7.02469 19
288 1 4.53767 -11.1154 6.92472 16
289 1 12.6879 -4.75859 6.67237 16
290 1 -2.31596 3.17945 12.7231 21
291 1 -0.465527 1.36655 17.6809 9
292 1 -3.81447 12.6623 1.84724 17
293 1 9.16745 14.0548 16.7287 10
294 1 -8.58643 10.8896 -5.36409 15
295 1 -1.57763 -3.03583 -19.6186 12
296 1 1.11305 -5.18377 -10.0098 15
297 1 -11.4549 1.14393 14.2072 13
298 1 -14.297 4.79123 1.74313 14
299 1 -2.30652 12.4113 -1.93549 15
300 1 8.24115 -3.90276 8.28257 13
301 1 -7.92343 -11.2855 0.49466 21
302 1 10.0156 -9.69124 10.7331 9
303 1 -10.1447 -8.38962 11.0785 17
304 1 -14.74 9.01325 6.75018 7
305 1 3.22671 -8.34036 -5.32647 15
306 1 -2.78407 -0.932357 -11.0217 19
307 1 9.20483 -7.93476 -11.9925 10
308 1 5.94604 13.5469 4.70962 17
309 1 -10.5566 -1.21696 -2.00632 18
310 1 4.47118 -4.54153 -11.821 18
311 1 8.5827 2.52978 -12.541 20
312 1 -4.57769 -10.6578 -12.5911 16
313 1 -14.4721 -5.42684 -2.14276 14
314 1 12.0359 12.3113 17.4137 11
315 1 12.3883 5.27009 -1.29786 16
316 1 -8.2723 1.25056 -9.11873 18
317 1 5.35785 18.3053 2.72166 12
318 1 -11.318 0.608803 -4.14665 22
319 1 -5.87193 7.18295 6.12184 21
320 1 -10.121 10.6175 2.84879 15
321 1 -1.32158 6.50067 12.0026 19
322 1 8.50845 9.80211 13.7705 21
323 1 13.5626 -0.897709 -4.68071 21
324 1 8.08695 -6.9432 11.2941 14
325 1 13.3915 0.983947 -6.6335 18
326 1 -4.10868 -11.4951 -3.73062 15
327 1 -8.05834 2.25465 -5.66557 19
328 1 0.411046 -8.53574 -4.64346 17
329 1 10.2037 1.19553 7.97857 21
330 1 -8.82514 -3.8336 -6.27624 19
331 1 -9.31327 -6.2645 8.6203 22
332 1 -6.52265 -7.04429 10.9914 21
333 1 -2.77128 15.5478 4.91129 15
334 1 -13.126 -7.37783 -4.61056 16
335 1 7.81878 13.0756 14.1318 13
336 1 -8.53304 6.47149 1.2021 18
337 1 -0.983087 12.0254 -8.57455 17
338 1 7.56076 16.6871 3.91214 17
339 1 -15.6367 -7.43357 0.22696 7
340 1 -3.08124 -8.41734 -6.22152 17
341 1 -12.1237 -0.654961 11.8319 16
342 1 -12.8804 4.74236 -1.21125 19
343 1 5.89594 -8.29917 6.29586 17
344 1 -3.64611 -14.4454 -1.0022 18
345 1 10.229 15.2725 8.56485 13
346 1 8.5733 12.0328 -12.7238 9
347 1 -10.4434 6.63576 -9.45476 14
348 1 -0.277033 15.2869 -9.96984 16
349 1 -6.13987 7.65407 -6.6118 21
350 1 -4.69646 -11.8955 1.49172 17
351 1 13.6202 5.6176 8.31898 20
352 1 0.288392 11.6674 -16.6719 9
353 1 -14.57 1.82182 1.71585 13
354 1 -3.95422 -10.8815 6.49844 17
355 1 6.73252 -7.63074 -7.61276 19
356 1 -13.7214 4.01005 4.71776 16
357 1 -14.2265 -1.84852 10.7356 14
358 1 -12.077 11.6987 10.2861 11
359 1 -4.53178 11.0641 -12.6671 14
360 1 6.16761 -12.8055 -4.59375 17
361 1 -4.24781 -6.23609 -11.2953 22
362 1 -3.56926 -6.13096 9.65608 23
363 1 -3.80743 1.98097 -18.76 11
364 1 7.99341 -15.2462 -0.247016 11
365 1 4.84919 14.2134 -7.01677 18
366 1 -13.4744 8.29706 9.48894 12
367 1 -3.34025 0.170326 17.2709 11
368 1 -15.1874 -4.30376 -8.79612 12
369 1 -12.777 -4.43155 8.55041 19
370 1 8.10864 -6.38926 8.01692 12
371 1 9.36358 -8.26124 5.63752 15
372 1 16.3936 12.7207 -4.26238 13
373 1 -3.33263 -2.77874 11.0055 21
374 1 6.01971 11.201 0.862338 15
375 1 -8.53522 -12.8427 -2.41874 15
376 1 -2.36388 6.12141 14.8083 21
377 1 1.72259 13.4002 8.62474 15
378 1 -10.6366 -7.5082 -9.47806 19
379 1 8.40345 17.0397 -3.15349 15
380 1 4.42446 8.19842 13.2532 18
381 1 -6.4564 2.58937 9.48848 20
382 1 -11.839 -2.40919 13.8671 15
383 1 -8.67348 -9.36412 -6.35068 19
384 1 -4.33206 9.19297 7.29289 21
385 1 -8.72953 -9.7036 -9.55615 15
386 1 -0.149833 -2.2074 -14.6246 18
387 1 -7.00004 -8.15699 3.60852 17
388 1 10.2056 -1.38557 13.4438 12
389 1 -3.18438 -5.47817 15.551 9
390 1 -8.69238 3.72928 -10.9883 17
391 1 12.5988 4.05848 2.2945 15
392 1 -7.18024 -14.8836 -4.30473 11
393 1 0.862124 20.1602 -4.08095 11
394 1 3.20968 10.7493 13.6376 15
395 1 -14.795 -2.5223 -3.66544 11
396 1 -0.809605 14.2305 -3.89188 19
397 1 4.50549 12.2481 -4.92134 17
398 1 -4.99432 -6.32494 -5.49153 21
399 1 5.48852 1.4496 15.8387 16
400 1 -2.29038 -9.5372 -12.7799 18
401 1 3.1716 -3.83124 -8.74376 19
402 1 9.46459 -11.5523 7.65802 9
403 1 -7.46852 9.46231 7.29613 21
404 1 1.29141 7.23241 13.5427 17
405 1 11.9114 9.6446 -0.926947 18
406 1 -4.82376 7.53465 -11.9244 15
407 1 -17.2775 -5.41049 2.80845 8
408 1 1.86574 18.1721 4.70357 11
409 1 -4.53068 4.96133 -13.3367 13
410 1 14.3707 7.68335 -1.23371 15
411 1 7.46999 15.9095 -8.94238 9
412 1 16.5944 2.52572 -0.240699 18
413 1 3.43461 3.96093 -6.40393 15
414 1 1.35267 -16.2221 9.47818 5
415 1 0.555651 -7.41397 12.0978 15
416 1 -12.7727 4.19878 -9.13262 9
417 1 -8.33096 -13.6136 6.45161 14
418 1 -2.48988 -9.01008 -9.68272 23
419 1 10.1791 17.0279 5.45374 10
420 1 2.09202 3.18951 -11.253 18
421 1 7.7903 1.22586 12.0209 18
422 1 -9.65241 4.80143 10.0762 21
423 1 0.560427 -14.3584 3.16945 18
424 1 -12.376 -4.13427 -1.36396 18
425 1 13.4074 -3.86841 -4.01258 18
426 1 13.1439 -2.14294 -1.40161 19
427 1 8.775 -5.2886 -6.51428 21
428 1 4.70066 4.36744 -9.33267 18
429 1 12.0059 -9.38938 -7.02524 14
430 1 -6.80365 0.345415 17.3318 13
431 1 3.40073 15.967 0.0192891 16
432 1 -8.54187 -1.96368 -13.0768 18
433 1 6.34833 -1.5326 -16.1988 16
434 1 -8.38773 -0.648472 9.77534 18
435 1 -0.121988 19.0746 -1.17023 11
436 1 -5.92435 -5.17067 -14.6221 16
437 1 -17.7251 -2.1394 2.29602 8
438 1 -7.26593 -10.1131 -14.3795 13
439 1 -6.44712 -12.3821 12.7114 13
440 1 5.23449 10.9343 -8.25095 20
441 1 10.9751 4.67728 13.3335 15
442 1 16.4428 5.86183 2.66513 15
443 1 -10.4807 -11.1088 -1.60849 17
444 1 -3.56335 -1.98139 -18.0801 11
445 1 -8.31081 14.19 10.5224 12
446 1 15.306 -2.58923 6.63522 13
447 1 4.67431 17.6645 -7.75532 12
448 1 14.1944 7.34014 -7.14063 12
449 1 5.90636 13.488 10.3716 22
450 1 -8.72777 0.199824 6.77778 20
451 1 7.60383 13.4215 8.03865 17
452 1 8.53095 3.23924 17.2136 10
453 1 -0.172668 3.64141 -13.6097 20
454 1 -0.4223 -0.900637 15.5327 12
455 1 10.8248 13.2124 4.56079 17
456 1 10.0324 9.70104 -6.73258 20
457 1 -1.61999 15.3583 -1.27379 16
458 1 0.787139 13.8864 -0.683224 18
459 1 12.1343 -3.29617 12.2708 12
460 1 11.4941 7.43252 -11.6125 9
461 1 12.5006 -11.202 -1.84309 9
462 1 13.8118 13.8052 14.6416 6
463 1 -12.8476 -8.72256 2.96905 12
464 1 -3.37879 14.3852 -11.9574 12
465 1 -9.67429 -0.340391 15.6401 15
466 1 -5.90628 12.8966 -9.60327 11
467 1 5.23338 -9.31095 0.820043 17
468 1 5.34979 -1.58457 -10.0402 20
469 1 -2.84334 12.8234 -6.2892 19
470 1 -11.543 -3.67659 -11.1873 18
471 1 3.31636 -13.4871 5.33752 13
472 1 -10.6755 -5.7394 -3.24802 22
473 1 2.83088 13.7892 -15.7673 8
474 1 -6.31938 12.0764 8.89247 19
475 1 -12.0457 -4.15128 11.1255 19
476 1 3.12717 -6.23225 -6.70411 18
477 1 3.85019 -8.21023 11.6962 16
478 1 -10.2165 10.5381 8.16974 18
479 1 6.79157 5.12184 19.6768 7
480 1 4.43497 18.215 -2.48748 17
481 1 14.7051 -5.08757 -8.88139 9
482 1 3.13721 13.4847 11.1198 20
483 1 -0.541345 3.77859 -18.1752 11
484 1 -7.92463 -13.6625 10.5641 13
485 1 5.68104 -1.84443 -12.9804 17
486 1 6.12982 15.2097 1.41182 18
487 1 9.45957 9.42493 -11.0933 14
488 1 0.713819 -2.3134 -11.6779 16
489 1 -4.83376 -8.35255 -3.40657 20
490 1 -9.91938 -3.74661 -14.8634 10
491 1 14.4789 2.03201 2.9311 21
492 1 14.1389 2.96075 -2.88172 17
493 1 9.98761 -3.76252 -9.03175 16
494 1 11.0594 9.71386 11.6494 18
495 1 6.80036 -14.0888 -9.00526 7
496 1 5.25178 1.64927 -18.4198 11
497 1 13.1761 15.0621 0.243539 12
498 1 11.0014 13.9715 13.2836 10
499 1 11.0334 7.84804 3.03477 15
500 1 18.1194 0.695725 1.15199 11
501 1 10.9375 6.5088 -4.89261 21
502 1 8.6087 11.7289 11.1055 18
503 1 13.237 6.22931 15.3748 7
504 1 14.4254 11.8177 -0.203262 20
505 1 2.74616 1.61454 14.8945 15
506 1 17.3224 1.15384 -3.54505 13
507 1 9.88891 -0.682481 10.1135 21
508 1 -4.79268 -0.623407 -9.5058 18
509 1 16.452 6.17312 6.21884 15
510 1 -9.29408 6.95121 12.9477 17
511 1 13.9374 14.8158 9.11094 12
512 1 15.5849 5.12602 10.3793 10
513 1 2.92579 9.41631 10.5159 15
514 1 1.23578 18.0247 7.49188 12
515 1 1.25594 -17.4699 1.28869 10
516 1 -4.84499 10.8201 -1.24407 16
517 1 13.723 12.7072 -5.42221 16
518 1 11.7245 1.35996 -11.8913 10
519 1 2.99334 15.1321 -3.58302 23
520 1 -5.00133 -11.4561 -9.45208 18
521 1 6.6324 -6.59923 -12.651 13
522 1 -11.9327 1.49908 5.47304 16
523 1 -2.10664 8.75974 -11.933 18
524 1 -5.78314 -8.8182 0.406813 18
525 1 -5.41239 2.86463 -10.9421 21
526 1 -9.93947 3.98177 -3.45528 16
527 1 9.33813 -10.5903 0.767585 13
528 1 11.9464 12.5954 6.89204 19
529 1 -0.860319 -8.68402 4.73127 21
530 1 -14.5119 -1.87076 -6.95092 15
531 1 5.28341 -1.61373 -19.8433 9
532 1 -5.40832 2.05418 12.7474 20
533 1 7.64857 11.7985 -6.47668 19
534 1 7.95507 3.59062 14.4014 20
535 1 8.01523 9.26132 -8.86037 22
536 1 11.5031 17.5812 -3.76694 9
537 1 -1.96029 -12.61 -8.29173 12
538 1 -15.4107 -4.53411 10.3975 11
539 1 14.6308 -0.995574 4.48403 20
540 1 -2.29567 15.0494 8.82967 18
541 1 8.77898 12.4891 -3.99383 17
542 1 -13.7656 10.3071 -3.78319 7
543 1 8.39351 11.2087 3.22384 17
544 1 -7.31615 -10.2346 -3.40114 21
545 1 11.8235 -3.4615 4.59786 16
546 1 8.53616 14.3442 2.82675 16
547 1 -7.10801 5.00867 10.6844 18
548 1 -8.60584 -5.97358 2.41114 21
549 1 -7.61399 -1.23879 -7.33408 22
550 1 13.1295 4.0569 11.0005 16
551 1 2.38246 -1.48467 13.8822 17
552 1 12.189 10.0326 14.427 15
553 1 -4.17422 16.2427 2.51121 12
554 1 1.92553 2.09104 -17.0247 18
555 1 -9.03788 2.56121 9.02017 16
556 1 7.98324 0.420439 -10.0495 17
557 1 14.1523 -10.5591 -5.36612 10
558 1 15.5505 3.51667 8.10739 15
559 1 -5.91347 -0.78893 14.872 17
560 1 11.255 7.5957 9.75771 17
561 1 -3.68025 -6.19547 12.6124 17
562 1 -3.44037 9.00391 16.4823 12
563 1 -2.52994 -6.29733 -13.8202 22
564 1 -8.3315 0.430803 12.4228 18
565 1 7.25307 6.80296 15.8457 19
566 1 -6.91472 -13.9912 3.0989 22
567 1 17.0407 5.74169 -0.430376 13
568 1 8.83688 -12.1963 -6.08137 15
569 1 7.21507 8.78586 -0.525574 15
570 1 10.9384 16.6931 2.43153 12
571 1 3.57128 -2.77031 -17.4108 18
572 1 6.96887 13.9288 -3.58331 20
573 1 10.1304 7.47272 -1.90427 16
574 1 -5.11638 -11.6 -1.31303 20
575 1 -2.85066 -1.15662 -15.3189 18
576 1 -7.41827 8.99071 3.68005 19
577 1 4.97231 -6.44515 -9.85786 19
578 1 13.5432 10.1162 -6.42107 16
579 1 10.8333 14.8317 -4.83392 16
580 1 10.0614 7.3555 14.6082 21
581 1 9.56349 5.99469 17.3676 12
582 1 -2.19526 -8.68304 13.6999 11
583 1 0.10669 10.5764 -10.6213 17
584 1 6.68995 15.6952 7.85036 15
585 1 3.95914 -9.47677 -11.8728 13
586 1 9.48565 17.2402 -6.41986 10
587 1 11.2684 6.89058 6.51812 20
588 1 15.2847 -3.8591 0.042226 14
589 1 4.59002 12.5259 18.4567 7
590 1 -11.9898 0.417691 8.9389 16
591 1 4.78395 -11.6316 3.88457 14
592 1 -7.77277 13.2285 3.67906 16
593 1 9.77849 10.2148 6.09997 15
594 1 -12.1067 -2.90864 1.71311 18
595 1 -2.19407 6.10113 18.1864 10
596 1 -2.2811 3.75982 -15.6759 15
597 1 -5.55331 3.12587 -15.7015 14
598 1 7.3131 -12.159 2.22201 16
599 1 6.42188 8.44991 -6.55247 20
600 1 -8.57006 5.72844 15.2691 12
601 1 6.25544 0.971154 -13.8786 19
602 1 -0.751725 -13.7061 11.3544 8
603 1 2.75015 12.7182 1.6831 20
604 1 -4.37575 5.05621 11.208 18
605 1 -10.1698 -8.83918 -12.7133 13
606 1 -5.4717 -7.81127 -13.5019 20
607 1 -7.95957 -11.4601 -11.6076 11
608 1 0.996181 17.1283 -7.26866 14
609 1 -0.204044 15.7113 6.17041 19
610 1 3.77205 -8.76518 -8.40215 18
611 1 7.72361 -15.9649 -2.79846 10
612 1 2.09371 -6.06029 9.70718 19
613 1 16.1706 1.87916 -5.7954 17
614 1 2.7719 -12.0437 -4.93387 15
615 1 -12.4391 -3.76292 5.5067 19
616 1 -5.7779 -16.6034 -2.06717 9
617 1 -11.4314 -9.26534 -6.87813 14
618 1 -11.3614 -3.96597 16.614 6
619 1 -6.84583 -14.1643 -0.423973 19
620 1 16.1038 4.35156 -3.21009 14
621 1 -5.21167 13.1564 4.78812 14
622 1 -14.4794 6.13603 7.29537 13
623 1 14.4403 -1.3567 1.74809 20
624 1 -13.3446 -1.4665 -9.75829 17
625 1 0.626309 10.9337 -5.99056 17
626 1 10.2329 2.44546 -8.93827 18
627 1 10.7722 12.6284 10.0614 20
628 1 -14.0045 1.05537 -5.31458 13
629 1 -13.5429 -6.98981 -7.74459 14
630 1 -3.28367 12.0113 14.1477 14
631 1 5.17798 8.07617 -12.6074 16
632 1 13.0498 14.4981 3.69166 16
633 1 -3.09779 0.916114 10.7738 23
634 1 -1.32747 -16.522 0.0469358 13
635 1 -6.58344 -16.5358 7.04341 6
636 1 15.2799 11.4017 8.58507 13
637 1 0.694817 -8.62782 -10.8784 19
638 1 -8.40773 9.87979 0.312002 16
639 1 10.2927 5.02007 3.96457 19
640 1 -9.31274 -3.12033 4.3421 21
641 1 8.90669 11.7555 -9.2395 19
642 1 -4.86265 -12.9159 -6.35027 14
643 1 1.70834 -17.0641 -2.18575 11
644 1 0.692636 -12.7934 0.511526 16
645 1 6.73851 7.24715 -10.2537 21
646 1 5.9924 15.9635 -1.80519 17
647 1 -3.11873 1.85695 -12.5461 16
648 1 -0.355378 0.315843 12.3449 18
649 1 1.72255 5.3754 -15.9185 13
650 1 -11.9569 -1.56637 -12.9078 14
651 1 -8.17311 -3.81981 -2.81612 21
652 1 5.12146 16.387 -5.02532 18
653 1 -3.82344 -5.28543 -17.2562 11
654 1 13.2297 3.22415 -7.99387 14
655 1 13.8412 -7.52915 0.376757 10
656 1 -12.4074 6.22297 11.9448 13
657 1 7.54507 -9.23757 2.99859 20
658 1 17.2854 -2.46935 3.14223 9
659 1 12.8678 -0.906052 10.8819 14
660 1 0.936223 10.5517 7.9064 20
661 1 -9.39343 2.46401 16.8071 13
662 1 -7.95943 3.3807 13.225 18
663 1 0.769272 -10.252 11.8782 15
664 1 5.55379 10.8243 10.3219 20
665 1 -13.624 -1.00074 -0.103409 15
666 1 11.559 -6.7248 -4.93672 16
667 1 -10.858 10.6247 -3.47297 12
668 1 0.694034 -14.0279 6.52084 15
669 1 2.77921 2.87708 17.5874 13
670 1 -0.0514066 12.7568 5.99213 19
671 1 3.13295 -8.65749 8.82141 21
672 1 -0.0353763 3.9361 14.378 17
673 1 -14.9785 -4.40719 1.44753 17
674 1 1.90775 14.1399 16.8272 7
675 1 6.96554 9.82467 5.53173 18
676 1 -9.64637 -9.45762 4.54927 16
677 1 -1.52684 -17.115 3.42731 13
678 1 3.99969 -5.76648 7.57533 17
679 1 12.2137 -6.98699 8.23654 11
680 1 8.17727 7.34382 7.49898 22
681 1 0.663278 -8.44375 -7.43195 19
682 1 -1.97017 5.8198 -11.1477 19
683 1 -3.88431 -3.1948 14.2487 16
684 1 1.40699 16.9567 -2.65124 17
685 1 16.8807 0.847653 3.35576 16
686 1 4.24124 6.57542 -7.28514 21
687 1 -4.50115 7.6522 12.8168 16
688 1 8.47954 8.56469 10.4293 20
689 1 12.2248 -7.07244 -10.0347 8
690 1 -1.72935 -16.3702 -2.98509 11
691 1 11.3167 1.20466 4.89266 20
692 1 2.62846 -2.27212 -13.3829 16
693 1 -0.310317 7.41521 16.7603 13
694 1 1.69663 -7.70901 -15.6168 12
695 1 7.85521 3.35042 -15.9135 9
696 1 11.6659 9.21439 -8.77525 13
697 1 14.6771 -3.85132 3.78774 17
698 1 -0.766022 -4.26763 11.696 18
699 1 -2.23918 -3.43731 -12.667 19
700 1 6.23249 19.0345 -4.45389 12
701 1 -11.3145 5.81528 3.66417 20
702 1 13.4132 4.41443 -5.31873 20
703 1 17.7533 8.27584 4.83757 10
704 1 0.922392 -1.44633 -17.2507 22
705 1 -4.06035 15.8476 7.10536 11
706 1 17.1853 11.4702 5.47653 9
707 1 14.4104 15.0113 -3.90831 12
708 1 10.4514 4.63332 -11.3141 14
709 1 12.0776 -4.66909 -0.613395 17
710 1 -8.62328 1.25424 0.971269 18
711 1 11.3403 12.5191 1.55365 18
712 1 -12.2069 -8.3742 -1.69167 16
713 1 -8.94151 9.51489 -7.97833 15
714 1 10.2678 2.92981 11.0551 19
715 1 -11.1381 -0.936949 -6.51519 21
716 1 -9.78623 7.28854 6.59714 16
717 1 14.3667 -7.03371 -5.66977 12
718 1 -9.78435 -8.63241 -3.71824 20
719 1 15.8618 -2.77263 -3.40231 14
720 1 -16.2435 5.87474 4.41607 5
721 1 12.852 9.70666 9.13585 15
722 1 -2.31785 -8.27534 7.65894 21
723 1 7.07694 9.01871 18.1669 12
724 1 14.1078 -4.15292 9.44493 11
725 1 -10.9101 2.15406 -1.53084 18
726 1 -0.965763 10.7466 11.9148 17
727 1 3.10003 9.92783 -11.0108 20
728 1 -6.67783 -2.24692 -15.2504 14
729 1 0.916221 18.3847 1.53867 10
730 1 -10.6818 -12.3195 7.16831 11
731 1 9.66728 9.72622 0.966405 17
732 1 -1.36594 9.11293 14.3197 15
733 1 16.6081 -0.999943 -1.41853 12
734 1 6.78847 -9.94055 11.5365 10
735 1 -0.442798 14.5629 -15.8914 9
736 1 11.6139 12.1876 -7.33614 15
737 1 -5.46079 -1.29188 12.1217 18
738 1 14.631 8.90753 5.85786 17
739 1 -3.0428 -3.58403 -9.91299 17
740 1 16.1212 13.9428 -0.925765 8
741 1 -15.0026 3.14271 -1.07865 10
742 1 -7.32517 -11.4107 7.69822 20
743 1 2.46589 12.6791 -8.88861 20
744 1 5.55555 -0.832214 13.5854 15
745 1 -2.12382 -9.36859 -3.00928 20
746 1 -10.4666 13.7175 1.952 9
747 1 -14.095 7.24517 -3.81864 11
748 1 7.85242 4.07293 -9.53303 22
749 1 -2.24912 -11.8457 -10.936 13
750 1 -8.27043 6.28422 4.57048 19
751 1 14.1349 10.8375 -2.70021 17
752 1 5.48333 -4.34209 -14.437 19
753 1 -11.2598 -6.327 -13.1864 14
754 1 -1.40333 -13.021 -2.2763 19
755 1 -1.87586 11.4938 8.84754 17
756 1 6.72638 -11.683 -1.02938 19
757 1 2.41812 9.57597 -13.8314 13
758 1 11.7682 0.835974 -3.08385 18
759 1 8.69481 7.97181 4.08124 21
760 1 2.53286 -16.0859 -5.72772 8
761 1 1.74741 -2.18708 -20.2145 13
762 1 13.5119 6.67185 1.46756 17
763 1 -5.32117 0.317905 -17.1091 11
764 1 -2.03816 -9.04048 11.1699 22
765 1 6.05542 10.8197 -2.57485 18
766 1 -9.43347 7.70502 -1.51483 15
767 1 -13.6626 2.64963 7.86234 13
768 1 3.64881 6.1058 18.4643 9
769 1 -12.2384 -10.0711 8.02428 6
770 1 5.71804 8.55696 8.22514 21
771 1 3.58837 -12.9504 -1.61991 19
772 1 2.2818 11.9686 -3.06364 18
773 1 -2.01171 15.0074 12.4977 11
774 1 -12.578 2.76503 11.4887 15
775 1 -6.64396 11.5779 6.31189 18
776 1 2.38206 -5.38223 13.0208 15
777 1 -1.42242 -12.0135 6.21746 16
778 1 9.27763 6.50783 11.723 20
779 1 10.2758 -2.1726 -5.98928 19
780 1 4.61184 -12.3259 -7.05011 12
781 1 -8.08262 6.87549 -12.0344 11
782 1 -0.834334 0.29372 -19.5591 15
783 1 4.87357 11.9212 7.8544 21
784 1 -9.51219 -3.10355 10.6782 15
785 1 0.510092 7.37198 -9.904 21
786 1 -13.5076 4.44934 -3.80231 13
787 1 11.6732 13.2848 -2.15118 19
788 1 -4.17918 -15.4906 1.615 16
789 1 14.6639 13.2545 5.98297 13
790 1 -9.36469 -11.8461 -4.91625 13
791 1 2.94755 14.7779 6.38233 18
792 1 -4.94447 -2.19195 17.6141 11
793 1 0.648538 -10.8742 -9.9402 13
794 1 13.0781 1.89245 9.41692 18
795 1 2.9174 -15.2506 0.77464 14
796 1 5.20964 15.0301 16.0365 10
797 1 14.5756 1.42244 -10.0783 11
798 1 10.0271 -7.87584 -1.45218 16
799 1 5.72126 1.60699 -11.0997 19
800 1 -11.2569 1.57106 -10.9375 17
801 1 -8.45506 3.8364 -13.8026 14
802 1 -7.04378 7.6478 11.5994 18
803 1 11.8536 -6.85406 11.2886 10
804 1 -11.7746 -5.97046 3.35506 18
805 1 12.3076 0.336045 1.65061 17
806 1 4.44711 3.31675 -16.0946 17
807 1 12.8755 9.80039 1.45787 16
808 1 5.14359 16.6534 10.7789 8
809 1 -16.3541 -2.79298 4.33714 13
810 1 6.53079 -10.3511 -7.20864 17
811 2 -9.21868 -1.787 -6.20051 19
812 2 -6.85248 10.7628 -0.797084 14
813 2 0.98719 -0.926076 -12.7998 13
814 2 -1.27974 7.39026 10.1785 16
815 2 5.06975 -12.9178 -8.78962 9
816 2 -6.98007 -8.85845 -8.64642 20
817 2 3.32029 7.45049 17.0829 12
818 2 6.86486 4.61269 15.5328 19
819 2 -11.886 -6.13298 -1.55865 18
820 2 -7.67448 6.98517 -5.05066 17
821 2 3.61549 13.1982 7.51315 20
822 2 -10.7265 2.56303 4.3285 20
823 2 2.82275 17.3679 -7.46824 15
824 2 13.3757 1.79372 5.11075 20
825 2 -0.344469 18.1544 -6.24701 12
826 2 14.9109 8.57447 -5.50364 13
827 2 -13.0176 -2.20489 -11.559 13
828 2 -10.7114 -3.23868 -9.72106 20
829 2 3.93475 0.257637 13.7884 16
830 2 8.67252 -0.831925 -8.87363 20
831 2 2.5999 -13.0592 0.271026 17
832 2 -4.65415 11.8985 0.34669 16
833 2 -14.393 -0.147279 -3.91484 15
834 2 12.2838 7.10409 8.44086 18
835 2 7.1548 -8.44434 -5.66969 19
836 2 -3.76597 -16.034 -2.5695 14
837 2 -10.804 -5.22218 7.57469 20
838 2 -3.34982 -9.13928 6.08965 15
839 2 12.4339 -5.64353 9.75156 12
840 2 -3.2456 -11.4474 -9.23093 15
841 2 6.40956 0.136461 14.9775 14
842 2 -0.946344 11.6661 -11.9579 20
843 2 -1.09071 -14.6646 6.37588 15
844 2 -6.76494 -14.8018 -2.38192 15
845 2 0.0809669 7.68441 14.8871 16
846 2 -7.70352 7.35693 2.9263 18
847 2 0.826464 2.76193 18.2012 9
848 2 -4.05391 12.3355 -2.86322 16
849 2 11.1911 -10.7627 0.33214 11
850 2 -2.38322 4.42609 11.2684 20
851 2 1.21593 9.49828 -7.04905 19
852 2 11.058 16.4778 7.02155 11
853 2 12.3941 15.5728 2.05715 11
854 2 11.8602 -1.86019 -8.584 16
855 2 -5.05621 8.12413 15.6623 12
856 2 2.75157 4.32644 -13.2592 18
857 2 -3.25063 12.6344 -12.9516 10
858 2 10.3267 8.14321 -4.18147 18
859 2 -5.14691 -0.412339 16.7874 12
860 2 -15.0921 8.27035 8.46211 8
861 2 10.8298 2.70567 -11.3202 14
862 2 -6.50411 -7.47823 13.2004 15
863 2 -1.28379 -2.24249 -11.6038 16
864 2 -2.3544 1.85498 -20.1054 9
865 2 -14.1199 -4.34426 6.66 15
866 2 16.6102 12.6751 -2.2956 11
867 2 -3.28141 8.96878 5.0078 20
868 2 -2.33589 -11.2348 -2.50965 19
869 2 -2.80431 17.0121 3.58798 14
870 2 7.61523 1.77334 16.4874 13
871 2 2.38193 -7.10461 12.1585 16
872 2 16.5729 8.12656 6.52467 11
873 2 8.68273 16.0702 -7.41176 10
874 2 -9.53807 8.82544 -3.17801 16
875 2 13.6436 8.05815 15.7171 10
876 2 7.63293 -15.1649 1.60697 10