ITEM: TIMESTEP
5000
ITEM: NUMBER OF ATOMS
2000
ITEM: BOX BOUNDS pp pp pp
-30.0 30.0
-30.0 30.0
-30.0 30.0
ITEM: ATOMS id type x y z Coordination
1 1 -11.2839 4.35931 -14.3937 12
2 1 -3.20961 -8.68995 -9.36619 21
3 1 2.11097 12.6977 12.6938 13
4 1 7.72718 -11.6378 7.68307 11
5 1 -9.30634 8.47325 -2.72632 18
6 1 10.2649 -8.24243 -10.3493 14
7 1 -11.2012 3.99277 -6.19091 19
8 1 -1.23206 -7.11405 10.22 17
9 1 -8.43524 0.56036 -10.8544 19
10 1 -13.5462 -9.92169 5.94041 12
11 1 12.9379 1.93698 -9.25729 16
12 1 -3.76755 1.50131 -6.65732 17
13 1 -3.31199 -10.7601 1.68246 21
14 1 -14.5026 -8.8998 1.67702 12
15 1 1.07138 3.86468 15.3244 15
16 1 6.30536 -3.29268 4.66032 18
17 1 2.84234 6.03533 7.65705 21
18 1 5.5128 -0.446417 3.89792 20
19 1 -0.403766 11.685 -9.11563 23
20 1 0.469286 -0.386416 12.2105 21
21 1 -9.25962 -1.07566 -16.1903 10
22 1 -13.2652 -3.15484 10.9602 17
23 1 12.1206 4.50603 8.85776 17
24 1 0.500227 10.5684 -12.1074 18
25 1 2.69919 5.94998 -14.0148 20
26 1 14.4024 2.30162 12.3169 11
27 1 -6.76662 1.31891 2.29401 17
28 1 -14.3138 4.4554 -8.32914 10
29 1 -2.59958 -1.4016 -8.06598 18
30 1 -12.228 13.1468 10.3487 11
31 1 7.04025 -13.3981 5.42612 16
32 1 0.0188644 5.21901 7.69596 16
33 1 2.31365 -14.8064 -11.1295 12
34 1 9.29659 -10.9677 -0.229964 15
35 1 -7.57053 -14.219 -3.52056 14
36 1 -14.1847 -6.26426 10.6947 13
37 1 3.27132 -4.83923 -5.63556 20
38 1 0.250516 -7.59483 -13.5904 22
39 1 8.81538 -9.36639 -13.1462 12
40 1 -2.91166 4.76827 -16.0668 17
41 1 -0.658853 4.64164 11.5292 21
42 1 -2.28702 -11.4114 6.06668 19
43 1 4.30458 -8.29815 13.5462 5
44 1 -12.3565 0.536049 2.54495 21
45 1 -17.6122 -1.84591 7.62315 8
46 1 -6.68291 0.635082 -1.16352 20
47 1 -4.8239 13.9353 -1.06517 17
48 1 -1.19741 -14.3291 -11.7464 11
49 1 2.26412 2.67238 -9.28223 19
50 1 5.73211 -4.76444 -11.3933 18
51 1 -3.85241 -3.20598 13.7359 12
52 1 -11.5087 6.69301 -1.40672 17
53 1 5.2822 10.504 -10.6548 18
54 1 0.0785401 14.0632 6.62794 23
55 1 -9.87877 9.55243 -8.02389 18
56 1 -2.18098 15.8593 -2.6824 22
57 1 1.45794 -12.2327 2.61194 20
58 1 6.48769 -7.3828 -6.48947 20
59 1 6.54139 -5.34361 -16.8382 17
60 1 -10.3531 10.2433 10.5933 20
61 1 -13.072 -3.74506 -8.76586 14
62 1 6.79147 2.34092 4.80186 20
63 1 -9.07417 11.2139 -5.10715 17
64 1 -7.86854 -9.94859 6.08415 20
65 1 -2.98562 15.1711 11.8033 12
66 1 -13.0224 6.81757 -6.44077 15
67 1 -6.38719 11.6843 14.3834 11
68 1 0.196058 5.38841 -5.5635 13
69 1 -1.36868 7.14839 1.64676 21
70 1 -7.48361 -15.3714 7.5223 16
71 1 0.928044 3.24742 5.47269 16
72 1 5.9599 -14.4194 -3.30958 14
73 1 4.69486 11.3184 18.0058 9
74 1 -14.3063 2.08729 -9.56224 12
75 1 -13.2575 6.79656 -9.7237 12
76 1 4.49211 4.76509 10.5204 19
77 1 10.7423 -2.64753 -8.96718 20
78 1 8.95735 -10.1522 2.81174 15
79 1 -14.9644 -1.25489 5.74052 18
80 1 -7.81158 -3.49921 2.94706 18
81 1 5.50211 15.9244 5.9743 13
82 1 5.26164 -4.37398 12.7785 12
83 1 -6.74828 -12.7178 5.42276 23
84 1 -8.72565 -1.5672 -0.622335 17
85 1 11.1172 4.99236 3.84156 20
86 1 10.1188 -4.14391 -5.1543 20
87 1 -1.88488 13.2143 8.7573 18
88 1 8.06957 -0.859436 6.01906 22
89 1 -9.92671 -6.01114 3.38396 21
90 1 -3.79686 -5.80208 -8.93215 20
91 1 -13.7835 11.2837 8.42619 10
92 1 -9.92623 12.0822 -0.632299 17
93 1 -4.68156 7.20748 -9.49423 20
94 1 5.009 2.49543 -7.90249 21
95 1 5.91437 -1.25046 -6.33267 21
96 1 8.67217 12.5685 -7.5598 10
97 1 7.81713 -5.08539 3.17304 17
98 1 5.05048 -10.6448 9.37504 11
99 1 -6.5848 16.8586 -4.89156 9
100 1 -10.5836 15.9308 4.65772 10
101 1 -9.10871 -3.25615 14.1573 15
102 1 -5.91718 9.65368 6.21816 19
103 1 -6.95006 -4.0068 9.14047 16
104 1 12.6001 -6.93946 -8.04843 14
105 1 -12.4261 4.20621 5.05464 16
106 1 -9.41723 -11.8203 3.49665 18
107 1 9.63965 -6.8671 -7.04073 21
108 1 4.46161 -0.271168 -14.1725 18
109 1 -6.05376 -1.57578 -15.9697 14
110 1 -2.3045 13.2452 0.30618 19
111 1 -8.38773 7.32902 -10.6054 19
112 1 3.19604 8.82443 17.5909 16
113 1 1.27803 14.3539 -8.06963 20
114 1 -13.3772 11.4884 1.89813 14
115 1 -0.788353 10.3451 -1.26976 18
116 1 -6.01576 -7.66321 6.68542 19
117 1 12.7865 -0.183224 10.4665 16
118 1 -1.22731 -5.37658 -6.62016 18
119 1 4.57986 -5.73962 -8.36337 19
120 1 -2.7452 6.04488 8.93145 20
121 1 5.33273 -0.312295 15.2463 13
122 1 -10.1157 -8.09105 -2.72251 22
123 1 8.1371 -1.75769 -0.387063 21
124 1 -10.1487 -9.32727 -5.97135 15
125 1 9.80755 -7.7013 3.32569 17
126 1 -6.91119 10.2601 3.0592 21
127 1 6.16968 2.36628 -13.6574 20
128 1 4.00134 16.6582 -3.14553 16
129 1 -8.89289 -13.2653 11.5249 12
130 1 -11.6044 -14.0877 9.556 11
131 1 4.60045 -8.29813 -16.0197 15
132 1 2.75257 5.78901 -7.64306 18
133 1 10.2857 -8.07987 -0.204109 16
134 1 0.501236 -17.3436 4.82116 11
135 1 -6.53963 -12.2585 -1.54182 19
136 1 16.147 7.20296 9.04413 13
137 1 15.8678 -2.66718 -7.901 10
138 1 -15.9964 -5.50222 2.37093 13
139 1 10.9013 9.6245 5.97345 19
140 1 15.6641 8.45888 3.25591 13
141 1 -6.76493 4.09923 13.4286 17
142 1 5.59467 4.63052 -2.6611 22
143 1 -4.23569 11.7027 9.92217 16
144 1 -6.99491 13.7406 -4.5938 16
145 1 0.657034 -5.38595 -11.2191 18
146 1 10.294 -11.2736 -10.9286 10
147 1 0.0321815 14.6958 -10.678 14
148 1 7.26791 -6.25071 14.0422 12
149 1 -1.25285 -2.35552 -19.3468 12
150 1 -3.68492 10.1174 -8.49302 19
151 1 10.6257 0.89243 -4.13214 19
152 1 -11.7342 10.3346 -6.14339 15
153 1 -8.4735 14.6355 0.517247 16
154 1 4.78004 1.90677 -11.1923 22
155 1 9.35602 -8.96016 6.50159 13
156 1 -6.34504 3.49247 -9.47387 22
157 1 -7.93727 14.4238 10.1409 11
158 1 12.6217 6.81183 -7.42691 14
159 1 4.56849 9.91164 -3.5091 23
160 1 -3.06484 17.5468 3.70001 14
161 1 8.09127 4.91002 2.46035 20
162 1 -4.51357 10.4858 -4.02936 16
163 1 -0.732338 18.0772 -9.1963 9
164 1 3.37491 10.6343 -13.4532 13
165 1 -12.3538 -10.7102 2.77896 13
166 1 -14.2106 10.1582 -0.947744 12
167 1 -5.07428 -4.13276 -14.7389 19
168 1 2.76132 -11.1952 -15.478 14
169 1 9.05735 13.8856 8.97587 14
170 1 0.514372 17.123 7.04253 12
171 1 -10.6706 -0.0575634 -2.80262 20
172 1 -12.7154 14.4231 3.61204 10
173 1 15.4486 -1.04458 -2.38295 13
174 1 -11.4781 0.973623 -14.8736 11
175 1 6.9469 2.17191 16.6718 11
176 1 4.65918 15.7286 2.82289 17
177 1 -2.97138 8.31175 7.17121 18
178 1 1.60184 -8.60529 -16.1836 14
179 1 -4.91595 14.7908 9.06579 16
180 1 -2.48021 12.8329 -7.35665 18
181 1 1.71533 -3.66865 12.0693 16
182 1 -12.8861 -5.06721 3.29842 20
183 1 -2.33601 -11.4631 -13.806 17
184 1 -10.5765 12.7202 -8.89661 11
185 1 -5.42039 -10.4611 4.28203 20
186 1 2.51911 -14.8709 -4.37413 16
187 1 -4.62378 11.1747 -11.6774 12
188 1 -14.899 2.34386 4.24312 18
189 1 0.132356 7.30786 -1.58817 19
190 1 9.88905 9.38484 -4.99667 22
191 1 -8.67127 6.38393 15.2231 11
192 1 -4.98724 -5.24012 7.85738 19
193 1 -7.95743 3.32287 0.100459 20
194 1 1.2802 14.7357 1.97863 18
195 1 -2.10693 9.227 10.0677 20
196 1 14.3699 5.48791 13.9008 11
197 1 -7.07797 15.1036 5.16791 16
198 1 13.7229 -4.51241 -9.50816 14
199 1 -6.04406 13.9353 12.4155 14
200 1 -3.55597 1.17545 -9.9506 19
201 1 12.3761 -5.4335 2.9382 15
202 1 -7.19856 -4.71043 5.61198 21
203 1 -17.0102 0.945472 5.54759 10
204 1 -8.17857 -8.67907 3.34435 23
205 1 3.5103 6.24403 15.3057 21
206 1 -13.5315 0.916269 -1.46125 14
207 1 -1.67724 -14.5093 -1.7599 23
208 1 -6.45404 -3.5444 -0.869574 20
209 1 7.88828 -8.29291 -2.12177 21
210 1 -1.91957 12.4689 4.19052 22
211 1 -9.66211 -0.132319 3.19883 17
212 1 4.93969 11.9747 14.1744 15
213 1 -7.15647 1.40453 -4.82786 19
214 1 -8.23101 12.9183 -7.90753 14
215 1 -14.458 -3.69582 -5.27559 10
216 1 -11.0879 -1.19145 10.7521 20
217 1 -0.710581 -9.55404 1.8048 20
218 1 8.57997 -14.9781 7.42621 6
219 1 -11.8477 11.9716 5.27582 17
220 1 12.7642 2.20354 4.26731 18
221 1 7.58355 0.796766 -6.46876 22
222 1 -6.38109 -6.49931 -12.9834 17
223 1 4.05317 0.33391 10.978 21
224 1 5.81194 -14.5964 2.03732 21
225 1 -2.92958 6.6984 -12.965 22
226 1 3.45221 -11.4902 -12.0319 20
227 1 8.67196 0.820645 -15.3781 11
228 1 3.08829 8.76099 -16.5383 10
229 1 -6.76879 -4.95245 -7.19416 17
230 1 -4.11207 15.4579 -6.45427 17
231 1 -10.8963 -10.7739 10.3816 17
232 1 5.28163 15.1437 -5.82616 15
233 1 -9.88581 3.72535 14.3425 12
234 1 -7.72726 15.3246 -1.93225 14
235 1 5.41074 -0.120662 7.77243 18
236 1 -3.0778 -6.247 -12.2455 25
237 1 -5.50547 12.7472 -6.79872 16
238 1 1.89803 6.11887 -10.3964 22
239 1 -8.95171 -12.0732 8.12383 20
240 1 -8.40869 7.55138 9.64171 23
241 1 -7.10799 10.1287 11.7955 19
242 1 0.12638 -9.89757 -8.25575 20
243 1 -3.82201 -13.7066 0.605158 21
244 1 9.37565 -12.4636 -2.86302 16
245 1 2.42562 -8.53 -2.73107 18
246 1 12.3439 7.9297 14.1219 12
247 1 5.65473 10.3428 -6.93869 22
248 1 -1.28606 10.3606 -3.89372 15
249 1 -10.142 2.88718 2.76438 19
250 1 -13.1675 13.6355 -0.32919 11
251 1 2.07045 6.51635 10.9106 17
252 1 4.78006 -19.2883 0.326789 11
253 1 12.8774 0.927586 -1.96227 21
254 1 1.8454 6.10002 5.20453 20
255 1 -10.9738 6.33176 4.32882 17
256 1 -12.0559 -5.04099 -3.17524 20
257 1 6.1408 5.40346 -12.1513 21
258 1 0.0111224 -1.64899 9.40124 20
259 1 7.61845 11.2184 -9.42451 14
260 1 3.47635 -11.6629 -4.26961 24
261 1 -2.63056 0.178137 -12.6885 22
262 1 2.24426 -18.755 2.90094 12
263 1 10.1444 0.979035 -8.29304 24
264 1 -12.4993 -1.95075 4.7929 17
265 1 3.72551 -14.2523 -2.00635 20
266 1 -9.7422 -3.96835 -8.65328 21
267 1 2.64136 12.4514 -2.85803 20
268 1 1.68804 -4.15988 -14.0246 16
269 1 6.01097 4.60754 14.6371 22
270 1 13.64 3.22963 1.58104 16
271 1 -6.59882 -6.04952 1.1168 23
272 1 11.3625 -3.26837 -12.0477 11
273 1 -0.60115 -6.66149 4.49402 20
274 1 -8.4346 -2.36222 -11.0642 22
275 1 -10.6342 2.26628 -8.78887 20
276 1 -9.24184 -16.0261 9.42492 10
277 1 9.71342 -1.12047 11.0574 17
278 1 4.01097 -5.04552 10.0818 17
279 1 -5.38613 -8.63135 -10.7068 19
280 1 0.717968 -7.32824 7.41932 20
281 1 0.369414 7.42031 -12.6158 18
282 1 5.24649 8.52223 0.869162 19
283 1 -8.98413 -8.15467 0.388777 19
284 1 0.974532 12.2729 -0.311406 20
285 1 -7.65212 -1.37117 11.4432 23
286 1 -8.73871 -8.60252 -9.78774 12
287 1 -6.79444 -5.69726 -9.8298 22
288 1 -2.25875 7.61191 -16.4039 15
289 1 -4.61235 -9.81642 -6.56936 20
290 1 -2.93347 -9.19641 -0.259444 19
291 1 9.63446 -4.88499 -16.2554 12
292 1 13.4883 -0.885803 -8.37033 17
293 1 7.99256 5.12856 5.61006 19
294 1 -3.82554 -4.09842 -2.89602 19
295 1 -9.85176 -3.90635 11.1972 18
296 1 -3.76359 -12.0083 -1.58922 21
297 1 8.18676 4.94614 16.5058 16
298 1 -8.15362 -15.0348 3.29642 17
299 1 -0.934893 -12.159 -0.0456723 23
300 1 -3.3865 16.6902 0.197538 14
301 1 6.06027 0.607493 -16.4838 14
302 1 -3.97167 -6.89859 -15.5249 15
303 1 -11.6631 -7.86361 11.9855 14
304 1 5.39181 5.11225 17.7835 13
305 1 2.50103 -11.2863 -1.52085 21
306 1 -3.98985 -11.6095 -11.9698 16
307 1 -9.94852 5.65296 -8.34614 19
308 1 10.5291 6.55284 6.25424 18
309 1 -5.9107 1.9078 -11.9704 21
310 1 -1.94642 9.49644 -11.1332 20
311 1 -5.43718 -2.48136 6.20899 19
312 1 7.84046 -13.1519 -9.10677 12
313 1 -6.33293 18.7129 -1.66228 6
314 1 2.46479 8.97824 6.18405 22
315 1 10.2736 2.43734 5.95959 23
316 1 -9.25345 1.73812 5.66429 16
317 1 -4.4313 -5.72465 11.1979 16
318 1 -5.23912 12.6828 5.12426 19
319 1 4.8114 -5.72899 -14.2882 17
320 1 13.0393 9.02722 -2.76133 13
321 1 5.25087 -9.07815 1.73039 19
322 1 -3.10363 -0.223913 13.5553 16
323 1 -16.0422 -4.82443 6.06362 12
324 1 2.69583 -17.9826 -2.63977 14
325 1 -10.1162 7.83179 12.7409 17
326 1 -11.8631 5.75627 13.4702 15
327 1 -15.6764 -3.79979 8.84464 15
328 1 -14.1593 -6.92363 7.56416 17
329 1 16.1291 -3.46432 -1.13853 12
330 1 -12.348 -8.72076 8.81241 15
331 1 8.64568 -2.41763 -11.0632 24
332 1 11.4415 -12.2213 -5.09577 12
333 1 2.27735 19.1217 -2.3691 9
334 1 -4.66429 -3.15362 3.08343 21
335 1 -11.0374 14.562 -1.80454 11
336 1 -2.11102 4.94124 6.1671 20
337 1 11.2052 6.22187 11.479 18
338 1 -10.1865 -2.63888 1.90635 20
339 1 10.0839 -9.64745 -3.54155 15
340 1 -4.24392 11.7593 1.83482 22
341 1 -6.52361 7.22763 4.68223 20
342 1 4.31158 -12.9804 7.01537 12
343 1 9.97789 -4.07459 5.32449 20
344 1 0.0414864 7.92153 8.43652 24
345 1 -6.92753 -2.21049 -8.93087 19
346 1 -1.04707 2.13817 14.582 14
347 1 -3.17845 14.567 5.71807 21
348 1 8.6141 6.1206 13.5379 20
349 1 -10.8829 13.6875 -5.4101 11
350 1 1.00246 -4.58226 -19.5488 10
351 1 -5.45891 4.02374 -6.25605 19
352 1 5.73367 -10.3328 -13.8513 17
353 1 -12.4736 4.06507 11.5613 22
354 1 -17.4496 2.55021 2.61443 9
355 1 -3.84374 -3.84183 -6.57094 16
356 1 -7.83561 9.52574 -0.14556 18
357 1 5.8383 -3.56652 7.55289 18
358 1 -8.14982 -10.7802 0.394734 19
359 1 8.03199 -8.54727 9.16908 14
360 1 -8.9164 -9.58903 12.4495 13
361 1 -14.765 8.77056 2.08999 12
362 1 -1.27953 -4.86358 8.02085 19
363 1 2.88688 -11.3304 -7.0648 22
364 1 -4.78148 -1.41688 -10.1789 20
365 1 7.65494 -2.35311 -16.6606 18
366 1 3.58328 12.9887 2.55386 17
367 1 -8.52248 -0.996357 -4.02046 20
368 1 3.51286 -8.43836 -12.9384 19
369 1 8.65432 4.03399 -13.8758 14
370 1 -1.30761 -13.6782 -8.53501 16
371 1 -12.2529 -7.84507 -4.49524 18
372 1 -5.75432 -9.32243 -2.19334 19
373 1 11.1449 5.28693 16.1989 13
374 1 12.5196 3.35952 -3.78319 22
375 1 -9.06248 3.60121 -10.8794 17
376 1 3.10114 16.671 0.0619039 15
377 1 -13.4581 -0.527476 -4.39696 15
378 1 -8.06067 8.92802 7.60863 18
379 1 -7.68173 12.9894 3.32593 17
380 1 -5.67299 6.53823 7.61181 18
381 1 10.2059 3.62258 11.4432 18
382 1 12.9872 -5.6479 -3.86379 19
383 1 7.2929 -3.1877 15.1603 10
384 1 12.5916 1.47847 -6.6416 19
385 1 -4.32479 -15.6069 -3.65329 12
386 1 -5.29365 4.84486 0.228712 17
387 1 0.800376 -6.72029 -4.82325 19
388 1 -1.54033 10.4214 1.92984 21
389 1 -8.91558 2.86124 -3.42896 21
390 1 5.60681 -10.735 -1.13178 17
391 1 10.6205 -3.65146 8.75974 19
392 1 -10.3567 -2.46717 -5.55243 19
393 1 -5.47046 -8.79173 1.46221 20
394 1 -9.29709 -6.58608 13.0047 13
395 1 -3.69277 10.838 -1.57637 21
396 1 -11.5996 -11.1113 -3.27683 15
397 1 6.35076 7.58486 15.8891 24
398 1 -8.7469 6.36934 0.0512747 20
399 1 2.5584 12.4399 -10.8604 18
400 1 6.58941 12.7848 4.53236 21
401 1 -14.4879 -9.40986 -1.78446 12
402 1 -1.72125 -8.56384 -6.44401 21
403 1 -13.7892 2.47494 7.0903 16
404 1 -9.87897 7.37406 -5.77504 19
405 1 3.48617 -7.80908 5.58774 18
406 1 -2.31334 -13.4629 -4.94034 18
407 1 11.6594 11.376 8.56943 17
408 1 5.50467 8.61343 -13.8549 16
409 1 -13.2651 4.72994 -11.7339 12
410 1 -1.46714 15.2737 -8.35167 16
411 1 -6.8857 6.25306 -7.61646 20
412 1 -1.41081 -14.6775 5.17452 13
413 1 13.1279 7.48659 5.21477 22
414 1 -0.218998 10.337 -15.6038 11
415 1 -3.84278 0.429229 7.04307 20
416 1 -14.3177 2.78894 1.10491 13
417 1 -7.35746 4.46527 5.99753 16
418 1 -3.52313 -13.6569 3.99767 20
419 1 0.25331 -3.92237 -8.36178 21
420 1 7.5884 -8.719 -9.23998 18
421 1 -0.504724 -1.47098 6.8864 17
422 1 -11.7437 0.990964 5.5595 20
423 1 -15.513 -0.821633 10.599 12
424 1 -11.3356 9.29679 6.90747 21
425 1 0.121811 -3.88659 5.24662 18
426 1 -9.00256 2.46296 -16.0341 11
427 1 8.85983 -10.0345 -5.82249 20
428 1 1.25537 -9.3939 -10.6841 19
429 1 -4.57745 -3.09218 10.4676 18
430 1 5.41939 -5.92463 -3.54277 21
431 1 -5.96975 4.08917 -16.1503 9
432 1 6.40312 -11.5224 3.07311 18
433 1 -0.960387 14.5716 -5.29816 23
434 1 -12.9562 14.1397 6.9575 10
435 1 -6.27924 -1.59046 14.9832 13
436 1 -11.6123 -6.39734 -9.95043 12
437 1 -9.43079 -6.9768 6.38178 17
438 1 9.32946 -5.87535 11.3742 15
439 1 9.97885 1.29011 -0.746021 19
440 1 -6.16475 3.96406 3.15819 20
441 1 3.93618 -0.287162 -8.86093 21
442 1 8.55858 -5.05612 7.12862 18
443 1 11.8803 6.62955 -4.4911 21
444 1 -4.19616 5.09439 11.8042 20
445 1 -1.12197 12.7553 -2.78903 21
446 1 6.1529 -6.95596 6.99723 18
447 1 -1.79488 -16.7636 -5.9565 10
448 1 -2.76093 8.06915 15.7025 15
449 1 -3.15526 17.4281 6.57844 13
450 1 -10.1191 -10.5542 -8.42878 9
451 1 9.48378 14.4897 0.726933 12
452 1 5.54589 7.40557 9.63123 21
453 1 -9.69175 4.8564 10.4933 16
454 1 -4.3619 -7.57511 -4.52334 16
455 1 -13.7056 4.8768 8.96475 18
456 1 -7.22326 -7.48356 -4.73718 18
457 1 -7.35024 11.5215 9.06125 16
458 1 -2.01152 -11.6119 -6.96103 22
459 1 -1.85346 -8.49663 -15.2442 20
460 1 -6.24914 -12.7789 2.43986 19
461 1 -8.21368 -1.53066 5.22565 17
462 1 11.0611 -0.996734 7.75627 21
463 1 -6.35824 -4.47638 13.1355 16
464 1 -10.5349 5.60749 -11.9957 16
465 1 8.17758 6.3744 -0.086753 18
466 1 -5.97659 -15.0688 -0.860444 15
467 1 -0.315268 4.25484 -8.56159 18
468 1 -0.553244 16.6071 0.506139 14
469 1 -1.6849 7.12152 -9.42019 19
470 1 -0.922073 11.743 11.4568 21
471 1 -14.0127 -2.93015 -2.43595 14
472 1 0.937928 17.6153 -4.40608 21
473 1 4.5694 12.3067 -5.67081 20
474 1 -6.52005 -8.33538 -8.02459 18
475 1 5.13458 2.33941 12.6762 22
476 1 1.5153 -12.4428 -9.48168 20
477 1 -1.431 -2.83219 -13.1238 20
478 1 8.33302 -13.3927 2.05855 12
479 1 -10.2941 12.0966 2.4136 16
480 1 3.3015 4.47815 13.0462 21
481 1 9.54996 7.72151 -2.69456 19
482 1 2.42317 9.88625 0.959463 20
483 1 -11.6668 8.37646 -11.5415 11
484 1 4.89345 5.09266 -9.72623 22
485 1 1.89302 -7.75569 3.04406 17
486 1 -17.1965 -4.79121 -0.953508 8
487 1 2.46831 15.1077 5.19445 16
488 1 -2.81092 3.50431 -12.896 20
489 1 11.283 5.49445 0.984428 19
490 1 2.90853 18.6651 -9.38895 8
491 1 7.60314 -5.1717 -0.577141 22
492 1 13.9689 3.49846 -1.33884 17
493 1 0.392463 -0.814049 -13.1489 19
494 1 1.72229 -9.5638 0.747075 21
495 1 1.94971 -14.4211 5.19789 15
496 1 1.55232 -9.86497 10.0807 12
497 1 -8.1603 3.35315 -6.87428 18
498 1 -9.54981 -13.7035 5.81391 21
499 1 -1.54778 -11.2141 -10.4603 19
500 1 8.29786 14.7891 6.42571 15
501 1 1.16673 2.63113 -13.7707 19
502 1 3.22497 -1.75645 13.0386 16
503 1 -15.5712 2.96127 11.2807 13
504 1 1.04995 -16.6693 -0.248395 19
505 1 -13.0879 -4.82344 0.35445 19
506 1 15.3075 -5.80902 -6.64524 11
507 1 12.784 -2.73478 -3.14981 22
508 1 -4.50622 5.81147 -3.81264 20
509 1 3.29169 -8.46334 -6.45265 22
510 1 3.3315 4.00213 -12.1087 19
511 1 8.23524 -1.77018 -8.09475 20
512 1 -7.32101 1.29013 13.7521 14
513 1 3.82071 14.0402 -0.37886 21
514 1 -3.28496 -3.83406 -16.993 14
515 1 3.19001 0.719161 -18.2538 14
516 1 -9.93979 -3.41865 8.48043 16
517 1 -5.48944 18.0874 1.81552 11
518 1 -8.55939 -3.54399 -14.063 16
519 1 -15.6835 -0.26731 2.90832 14
520 1 0.657782 -10.5749 -13.8367 22
521 1 -6.57351 -11.1211 10.8876 15
522 1 -0.706852 9.62744 -6.86384 18
523 1 15.1054 3.37887 9.21551 11
524 1 14.963 5.98417 0.338716 14
525 1 -9.5248 -12.67 -1.93236 15
526 1 -0.144959 -9.08115 -2.13137 19
527 1 -0.698995 -6.04625 -16.8048 18
528 1 -9.17041 12.6224 12.2937 12
529 1 2.94632 -2.63856 -10.9779 20
530 1 2.25006 6.84951 0.481281 21
531 1 12.7342 -4.02777 -0.31742 20
532 1 3.47112 16.4271 -7.79145 15
533 1 5.07003 -7.19386 -0.924378 17
534 1 13.524 5.09605 -10.4188 8
535 1 3.84851 9.20348 14.0784 21
536 1 -10.8232 6.33007 7.72072 17
537 1 4.34752 10.5771 11.3872 21
538 1 6.53906 -1.19637 12.6292 16
539 1 0.888229 2.76155 -17.145 20
540 1 -6.78488 -3.41439 -4.43086 20
541 1 -2.78552 -0.103178 10.3237 16
542 1 8.52489 11.4664 7.06097 24
543 1 6.81237 8.13711 -10.4259 21
544 1 -5.95003 9.44563 -6.94773 16
545 1 -3.94863 13.4248 -4.27833 16
546 1 10.2469 -4.1431 13.6606 10
547 1 9.13268 1.17376 -12.4639 16
548 1 12.3055 -8.53201 -4.96754 15
549 1 11.6958 9.04801 11.1627 18
550 1 -16.8822 -7.44499 0.0164952 10
551 1 -7.8638 10.4642 -10.0938 12
552 1 -3.37132 3.27271 8.48681 19
553 1 -14.1306 0.784624 12.7513 13
554 1 -4.75069 13.9883 -9.60576 10
555 1 5.59755 -13.7439 -6.18902 17
556 1 2.67315 -2.78264 -7.81658 20
557 1 -4.21862 17.7809 -3.89848 12
558 1 -5.65457 -3.95202 -11.8447 22
559 1 4.13417 -13.4209 4.18586 19
560 1 -12.1011 -7.1712 -1.09272 18
561 1 0.732064 12.921 -13.699 11
562 1 -5.67447 3.09496 -2.82322 22
563 1 -0.622729 10.092 14.4626 18
564 1 -11.1977 -5.97086 9.33577 19
565 1 3.016 6.45014 -2.87414 19
566 1 4.53016 -9.09056 -9.64924 21
567 1 1.32155 -7.12669 12.1116 14
568 1 8.46812 -1.12611 -4.50724 18
569 1 -11.2527 8.90479 1.27344 16
570 1 4.04995 2.83858 15.9616 20
571 1 4.27702 18.529 -5.43032 11
572 1 12.4052 -4.40298 -6.53609 19
573 1 5.68476 7.03238 12.6596 22
574 1 -0.417248 5.22207 -18.513 13
575 1 -6.004 -14.4514 10.3052 13
576 1 -0.536437 2.18004 -11.2609 22
577 1 5.26858 -1.5365 -18.8447 13
578 1 3.02261 15.2084 8.20224 14
579 1 8.38901 4.15904 -11.0868 22
580 1 -3.07094 -1.37112 -15.7414 19
581 1 -2.79543 -10.3474 -3.98904 21
582 1 -11.4566 -3.55737 -11.6739 16
583 1 10.6755 2.28207 2.35829 22
584 1 14.7772 5.44 -3.41633 12
585 1 7.822 -5.09647 -8.52741 19
586 1 13.9154 6.92709 10.8849 17
587 1 5.32998 -8.84335 -3.83054 20
588 1 3.16972 5.42045 -18.036 9
589 1 6.57526 12.1222 1.4949 20
590 1 -8.67454 5.25159 2.92236 18
591 1 9.96144 10.2473 13.8202 12
592 1 8.10545 5.77959 -4.19167 23
593 1 14.0734 -0.354301 3.90372 11
594 1 10.8263 4.30435 -8.39149 21
595 1 9.0033 2.81988 13.8467 18
596 1 16.5304 5.05567 11.5456 9
597 1 1.04131 -5.09111 9.77471 20
598 1 12.6139 11.4459 -2.46624 11
599 1 5.0823 4.95169 0.863099 21
600 1 2.21515 1.16739 13.7877 20
601 1 14.5868 -0.781659 -5.47256 16
602 1 8.06688 1.68589 7.81712 18
603 1 -6.95432 0.612486 -7.68747 19
604 1 14.7018 5.33665 3.87467 16
605 1 9.85009 -4.55813 0.71341 20
606 1 -0.603525 -6.97757 0.346184 19
607 1 -12.9991 9.23841 10.452 14
608 1 9.4291 11.3292 10.7338 18
609 1 11.3413 0.829925 12.8207 16
610 1 3.28049 9.23792 8.87784 21
611 1 0.187911 14.6324 10.4987 16
612 1 4.25001 1.512 5.675 19
613 1 -0.551585 -18.2279 1.88274 15
614 1 -7.10239 11.0419 -2.78449 19
615 1 10.4089 9.76922 -7.87626 16
616 1 9.19373 -1.93811 -13.8046 15
617 1 -1.28674 18.4817 -2.26793 12
618 1 0.722502 -13.0988 -6.20816 18
619 1 9.53028 -6.4528 -13.2993 14
620 1 -15.9699 4.67858 6.42276 12
621 1 -6.27537 5.43573 -11.9258 20
622 1 -2.76978 -17.0113 3.5471 14
623 1 -4.74792 -1.08611 -13.2293 19
624 1 -11.9978 2.42958 -3.66768 19
625 1 12.4655 -7.44926 5.4007 10
626 1 12.1049 10.1027 3.26045 21
627 1 -1.41428 -10.0128 8.59933 19
628 1 -12.8882 -0.279776 -7.74141 16
629 1 -0.10378 0.952046 -19.6464 12
630 1 3.32506 -4.88803 6.73394 21
631 1 -2.3467 5.49524 14.1643 19
632 1 8.48844 9.81387 -12.4687 9
633 1 12.1209 -2.74809 11.5454 15
634 1 7.25181 5.63936 -7.80092 23
635 1 12.1458 13.2453 2.86181 10
636 1 4.59885 -12.4738 -9.44737 18
637 1 -12.3009 -1.47271 13.8186 11
638 1 10.9342 -0.358803 4.14982 20
639 1 -0.780359 13.1496 13.5641 13
640 1 5.07669 13.1342 -8.67235 18
641 1 -12.6908 8.37745 -3.61638 16
642 1 7.85933 9.32314 1.01699 19
643 1 -8.43205 -13.9525 0.672061 16
644 1 12.0017 -2.6359 2.59452 18
645 1 7.77305 15.9398 3.15843 14
646 1 -5.17771 8.23922 10.7461 23
647 1 -11.3825 -7.71764 2.0056 20
648 1 -10.0519 -0.97838 -8.34809 22
649 1 7.31971 0.980345 10.9943 20
650 1 -4.09863 -8.77533 9.416 18
651 1 7.57212 4.18629 11.4593 21
652 1 -6.83382 12.3616 0.365396 20
653 1 7.48728 3.0873 0.169354 18
654 1 5.48405 4.98255 4.05565 18
655 1 0.222287 -2.87577 -15.9572 21
656 1 -9.82573 -0.709738 7.63143 18
657 1 5.81024 -1.36909 -11.7933 17
658 1 -1.49364 -6.24723 -3.76039 18
659 1 11.6936 -9.93632 -7.86567 15
660 1 7.65501 7.43058 7.35804 19
661 1 5.30786 7.16081 6.25466 22
662 1 -10.3968 1.12956 12.3979 19
663 1 9.66598 8.72876 8.57443 19
664 1 -0.342188 -2.38527 13.8533 11
665 1 -1.61299 7.2811 12.2589 19
666 1 -1.48723 -5.24998 -14.4161 19
667 1 -6.02868 5.03484 9.71967 21
668 1 5.95815 4.61552 7.38873 21
669 1 -11.8831 -15.732 6.57708 9
670 1 12.5588 6.11791 -1.58535 18
671 1 6.89264 -11.3568 -4.25952 23
672 1 -2.94726 5.42695 -7.38245 16
673 1 7.77183 10.5794 -1.83568 21
674 1 9.59889 13.6775 3.63846 17
675 1 2.16725 -1.64726 -20.0778 13
676 1 -0.442703 1.61549 9.74319 16
677 1 2.06071 14.7132 -5.2166 21
678 1 11.292 9.033 0.029687 19
679 1 -8.33568 -10.3694 -3.31002 24
680 1 -0.837444 -0.278079 -17.3295 17
681 1 -10.7638 15.954 1.06358 12
682 1 6.54775 -7.47247 -11.8372 19
683 1 3.44552 7.54407 3.18669 21
684 1 9.5971 7.31298 -9.93257 17
685 1 9.36271 12.896 -2.27916 13
686 1 -3.77112 5.69995 3.66867 19
687 1 -6.0873 7.37972 1.86849 19
688 1 5.53816 6.96565 -5.3548 24
689 1 12.2544 3.54351 14.546 14
690 1 10.6517 -1.5729 14.4574 10
691 1 -3.40647 -12.2179 9.61185 10
692 1 -6.07704 8.65716 -12.4019 15
693 1 2.6374 12.4308 9.79655 18
694 1 7.75581 -7.88052 -15.5533 15
695 1 2.55299 0.363319 8.11516 20
696 1 7.37653 12.4352 -4.67311 18
697 1 8.81676 10.6674 3.88692 21
698 1 15.8379 -6.07231 -2.95202 11
699 1 9.35259 8.16223 15.9837 16
700 1 -12.7516 -4.0564 7.00062 18
701 1 2.23366 -15.4276 2.26214 24
702 1 -0.147602 -1.4027 -10.0369 20
703 1 -8.27131 17.2501 2.7682 11
704 1 -0.787295 7.68661 4.45236 20
705 1 7.92861 -3.61078 -2.7227 20
706 1 4.22883 10.4619 4.01641 21
707 1 -14.0124 -2.37036 2.19488 19
708 1 -1.20399 4.97105 16.845 11
709 1 -5.4857 7.05415 -14.7107 13
710 1 -8.99079 7.40161 -13.8402 12
711 1 4.16486 -12.2713 0.820794 21
712 1 7.43753 8.6716 -7.56764 22
713 1 4.90798 -6.10383 4.27191 20
714 1 -3.7366 8.8725 0.557728 20
715 1 -14.7566 6.09908 11.7933 13
716 1 4.48189 -3.18185 -15.6475 17
717 1 0.867808 -12.0438 7.1732 10
718 1 0.968508 15.168 -2.03997 20
719 1 -4.44484 2.77658 14.5465 15
720 1 -8.97217 -5.51322 -11.4296 19
721 1 -5.59305 -9.55205 -13.9172 13
722 1 -4.69904 -11.546 -8.78934 16
723 1 -2.07279 17.8651 -5.76135 13
724 1 5.69631 -2.60355 -9.192 22
725 1 -3.37286 11.4637 7.30328 19
726 1 5.7657 -10.2268 -6.97598 20
727 1 6.9193 -16.3056 -0.412075 10
728 1 3.56073 -7.85092 9.03551 16
729 1 15.4569 1.21067 -7.47674 12
730 1 2.80424 -15.024 -7.94181 15
731 1 -12.942 -1.16629 8.29165 23
732 1 -0.782084 1.35316 -7.69384 18
733 1 -2.98136 -16.8858 -0.423922 14
734 1 -7.32594 -12.1575 -6.68197 16
735 1 -10.8276 2.12342 9.0085 19
736 1 -5.42839 -16.1997 1.98294 15
737 1 13.7098 4.17841 -6.93727 19
738 1 -6.18793 18.4791 5.28386 10
739 1 -6.44061 2.63104 7.84631 20
740 1 -12.4529 8.89317 3.9888 15
741 1 10.9172 -0.978989 0.857512 22
742 1 -12.7971 -0.769506 -10.3162 13
743 1 -1.55133 7.49679 -3.84695 17
744 1 7.7814 3.12037 -8.56173 19
745 1 7.18622 11.0003 15.9846 11
746 1 6.69188 3.92233 -5.75772 21
747 1 -14.0714 2.28099 -5.82554 13
748 1 -11.9158 -5.37146 -6.6102 17
749 1 -0.127349 8.3503 17.0334 11
750 1 4.38848 7.84764 -8.19831 22
751 1 11.1598 13.3323 6.25592 15
752 1 -2.73766 -2.59472 8.10345 19
753 1 -0.302629 -17.1807 -2.71474 15
754 1 -9.47303 -16.7027 5.27311 12
755 1 -3.25545 -5.0464 5.45783 22
756 1 14.4438 9.90797 9.19872 12
757 1 1.72072 -6.82299 -8.01242 19
758 1 -6.99155 8.02837 -4.65953 21
759 1 5.96099 10.294 6.25657 20
760 1 -9.9325 -3.70112 5.14603 21
761 1 8.14064 7.05063 -13.1594 16
762 1 1.11497 -16.8102 -5.7231 12
763 1 1.64145 -19.5252 -0.386334 12
764 1 1.16612 -14.0495 -0.665254 18
765 1 4.04695 7.5516 -11.7967 20
766 1 6.14002 15.5816 -0.0577459 13
767 1 -4.26781 1.46793 -15.297 16
768 1 -2.54197 2.03478 11.741 19
769 1 0.62785 7.2444 -16.2285 14
770 1 -11.1144 -1.24485 -13.4121 15
771 1 -11.95 -2.08241 -0.401311 18
772 1 1.4961 18.2365 -6.75411 16
773 1 10.0802 -1.7382 -2.27655 22
774 1 -4.23828 -10.5442 -15.8581 9
775 1 -7.25248 -6.34474 -1.86288 20
776 1 9.6978 6.79069 -6.63139 21
777 1 12.271 -8.17851 1.92332 13
778 1 -7.19174 6.51637 12.4735 19
779 1 6.92794 -8.44432 4.17871 17
780 1 14.8136 -6.30156 0.59936 11
781 1 11.8909 -5.79087 10.8083 10
782 1 -0.863616 10.3456 5.85723 24
783 1 -13.9743 3.80901 14.1536 9
784 1 -11.6581 6.96985 10.2521 22
785 1 -4.13494 -14.2085 7.04161 16
786 1 7.33087 0.919588 2.12951 19
787 1 7.12344 9.73151 12.5052 18
788 1 -15.6129 -1.76083 -0.441103 11
789 1 8.61308 -6.85713 -4.31298 21
790 1 -11.6236 11.7455 -3.07615 13
791 1 1.17709 9.46566 3.29871 22
792 1 5.5808 -16.0039 5.38071 10
793 1 5.23078 2.38695 9.17077 21
794 1 0.960533 12.2831 3.72427 18
795 1 0.115998 -9.52727 5.29062 17
796 1 -9.44324 -3.78198 -2.37235 21
797 1 1.82353 2.45853 11.1629 20
798 1 -15.2273 -6.28373 -2.92736 14
799 1 1.89032 10.9495 15.558 15
800 1 5.00392 11.0017 -0.749214 20
801 1 -10.5868 -10.296 5.56162 21
802 1 -5.93569 -15.982 4.88895 15
803 1 7.00724 -5.68238 9.71295 18
804 1 10.3263 -6.79557 7.90209 16
805 1 7.11646 10.1916 9.27023 20
806 1 -5.9405 7.75324 -1.74744 23
807 1 -0.620356 -7.31528 -9.83565 20
808 1 -1.24389 1.41143 -14.5944 21
809 1 -5.55578 1.27545 11.3383 19
810 1 -0.739116 15.9462 4.30444 15
811 1 12.4552 -2.92308 5.57936 14
812 1 1.15543 11.9456 -5.62275 18
813 1 -6.16323 8.75667 14.4312 13
814 1 8.3994 7.14742 10.7177 21
815 1 7.53322 -4.04137 -13.7157 19
816 1 -5.09722 -11.9409 -4.58624 20
817 1 -5.2786 -1.35291 -6.14153 19
818 1 13.2897 1.48722 7.42983 14
819 1 2.46851 0.547272 -11.9206 19
820 1 1.27068 6.9404 13.4703 19
821 1 10.5215 -13.2166 -7.81318 10
822 1 5.71507 5.49252 -15.3161 16
823 1 -4.73844 -6.61542 -1.44761 18
824 1 11.6372 3.15404 -12.0471 12
825 1 14.8307 -2.29334 1.05173 11
826 1 -0.986951 -4.92777 12.4955 14
827 1 -2.03801 -9.03298 -12.0368 21
828 1 5.70987 13.4849 -2.8803 20
829 1 -2.69973 -8.65512 3.90405 21
830 1 -14.9886 6.51175 4.63223 12
831 1 9.91401 3.81004 -5.72512 25
832 1 16.5364 6.94074 6.00161 12
833 1 2.23723 -5.49534 -16.6764 17
834 1 -8.35358 11.788 6.02205 19
835 1 16.5902 9.54719 6.78469 9
836 1 10.9563 12.2914 -5.07585 13
837 1 3.48035 2.64309 -15.6876 19
838 1 10.349 -5.39439 -1.98871 21
839 1 -10.2567 1.12007 -0.0364026 18
840 1 10.1068 7.88451 2.92979 21
841 1 -11.5203 -10.0696 -0.0329532 17
842 1 -12.9078 9.78171 -8.92564 10
843 1 2.7189 3.15374 8.03763 18
844 1 -10.2114 0.938971 -5.86786 23
845 1 -14.0044 7.47449 7.24435 17
846 1 -3.71481 4.20601 -10.1431 21
847 1 10.3723 -5.40057 -10.2648 18
848 1 -9.70813 -7.00742 -7.26482 20
849 1 13.4523 -8.19583 -1.71272 13
850 1 -14.8185 5.17607 2.42833 12
851 1 -9.39385 -5.23144 -4.71313 19
852 1 12.4991 7.25471 8.44174 20
853 1 -5.95134 -6.48146 3.89405 20
854 1 10.5751 1.5438 16.062 11
855 1 13.7095 -3.14266 8.99205 9
856 1 8.37385 -1.98765 2.66646 23
857 1 -11.4387 4.95066 1.17747 18
858 1 0.200906 11.0354 8.75513 22
859 1 1.21674 8.77475 -9.46478 21
860 1 -0.710563 -11.4074 -16.7287 11
861 1 -6.0198 17.0458 8.15 11
862 1 -11.9716 -12.5943 7.23078 14
863 1 7.24219 9.45251 -4.29135 21
864 1 1.41758 9.64286 11.4673 22
865 1 15.6435 -3.73132 -4.5523 14
866 1 6.54527 -8.15569 11.6893 14
867 1 -2.33972 12.7909 -11.5543 15
868 1 2.57454 10.8242 -7.50027 21
869 1 -6.45637 -0.382785 8.59961 20
870 1 13.6412 4.54466 6.42638 16
871 1 -2.68733 -3.71319 -10.585 19
872 1 13.9582 10.7973 0.864546 11