ITEM: TIMESTEP
856000
ITEM: NUMBER OF ATOMS
1000
ITEM: BOX BOUNDS pp pp pp
-30.0 30.0
-30.0 30.0
-30.0 30.0
ITEM: ATOMS id type x y z Coordination
1 1 -1.98121 -9.70314 -6.68477 17
2 1 8.37961 -7.88711 8.30565 16
3 1 -10.4898 8.46872 -2.55181 13
4 1 -12.1857 -0.734393 -6.13383 13
5 1 -0.334426 -4.71939 10.4976 16
6 1 -10.9983 0.716711 -10.8754 9
7 1 -2.07149 1.96621 -5.94473 22
8 1 -4.39676 -13.3253 0.290522 9
9 1 5.75279 -3.85379e-05 4.99152 24
10 1 -1.26731 4.91272 9.18793 22
11 1 7.56466 0.944243 -1.21575 23
12 1 1.41914 12.0177 -7.08278 12
13 1 1.69722 0.346357 11.509 25
14 1 -6.37409 0.0308309 0.622421 20
15 1 -3.63108 -0.21635 -7.64528 22
16 1 -2.73758 -0.762667 7.8847 20
17 1 1.4943 -3.27088 -5.88486 21
18 1 -0.754552 1.67019 9.58136 23
19 1 -5.50036 -11.592 3.17004 15
20 1 -14.56 -0.727238 2.89431 9
21 1 -11.2301 -0.00166354 -2.98859 19
22 1 -2.79162 12.3595 -3.34637 13
23 1 1.93419 2.24173 -10.4559 21
24 1 3.45398 -5.1083 -12.425 13
25 1 -2.96694 -5.14313 11.7659 11
26 1 -10.796 5.70167 -0.401081 18
27 1 -0.552144 11.6813 -0.988259 15
28 1 5.27185 -13.681 2.19489 12
29 1 6.74877 -6.01794 -4.90149 20
30 1 9.13014 0.456511 4.43821 21
31 1 -8.7062 6.36076 -5.00873 17
32 1 4.11629 11.143 -8.05899 12
33 1 3.12116 4.01019 2.16251 24
34 1 1.62017 3.09669 8.24923 24
35 1 -7.58649 1.76699 3.12404 19
36 1 6.09427 -2.86795 13.3078 11
37 1 -9.14082 -0.714167 2.1449 19
38 1 10.4983 2.42156 6.57139 16
39 1 7.57857 -3.26359 -5.04138 18
40 1 4.21837 -1.29605 10.7785 23
41 1 -8.96116 -4.53445 0.154541 22
42 1 -4.11278 -3.83781 -11.6752 18
43 1 -5.25476 10.8683 -1.96383 18
44 1 -0.309258 9.81333 -8.84067 13
45 1 3.01636 -0.309577 -4.81678 20
46 1 6.37081 0.0230092 -5.34005 19
47 1 4.54567 -9.09045 4.50692 19
48 1 7.57751 -7.49636 11.6508 10
49 1 -5.94463 6.85408 4.37422 24
50 1 -8.03535 -3.25107 7.07254 23
51 1 -8.90814 8.57864 3.76895 17
52 1 10.115 -5.76785 -4.96438 14
53 1 4.96757 -1.929 -12.835 12
54 1 0.783521 -0.628426 4.11094 21
55 1 -0.99997 12.0186 2.25059 14
56 1 -7.63831 5.49091 -8.06001 15
57 1 -0.517785 8.75647 2.45835 20
58 1 0.624515 1.11838 -4.38233 20
59 1 -5.17929 -4.79656 7.4528 23
60 1 -2.53235 -3.57416 -7.82406 23
61 1 3.2361 -6.61763 -9.07224 17
62 1 -2.99667 2.84533 7.11609 21
63 1 -8.304 -10.0557 3.39836 15
64 1 7.15663 -1.86473 2.75828 23
65 1 -9.05582 -9.97537 -2.16561 14
66 1 7.73647 -11.5691 3.1419 13
67 1 -1.8023 6.49847 0.429547 24
68 1 -3.74898 4.3201 -1.02389 21
69 1 5.82643 6.55777 -7.07362 20
70 1 7.86117 -9.53905 0.0737417 19
71 1 -8.93465 -6.73242 2.68934 22
72 1 9.29996 8.87064 5.22209 14
73 1 8.83039 6.366 0.221122 22
74 1 -4.39783 10.1658 -4.76624 15
75 1 -1.29523 -3.16866 -13.0204 17
76 1 -0.060189 7.3946 -5.55658 23
77 1 7.98835 5.5197 -4.60805 20
78 1 1.7674 -5.44277 -3.1262 23
79 1 9.01685 1.08211 -6.84628 21
80 1 11.5066 -5.11214 3.72364 12
81 1 -6.14903 1.66384 -8.21767 21
82 1 -0.794732 2.9874 -1.90969 22
83 1 8.99028 10.6979 -3.24463 14
84 1 11.2949 9.78133 -0.527776 14
85 1 -1.79412 9.19735 -3.30654 23
86 1 -2.17494 -1.73122 -10.0244 23
87 1 -12.5815 -4.93218 -1.6547 13
88 1 -3.74726 8.76946 5.95008 22
89 1 -1.28327 10.5707 -5.82789 17
90 1 3.52436 -1.34513 14.2957 11
91 1 -10.7272 -3.84029 8.86551 12
92 1 -2.90046 -9.78718 3.99686 25
93 1 3.84273 8.65094 -1.69256 24
94 1 11.3736 5.89601 -4.65944 16
95 1 3.83944 -8.5676 10.4149 12
96 1 -8.97176 1.28232 -0.68959 20
97 1 1.06589 6.4037 7.54969 21
98 1 -7.99059 -0.422055 -9.48077 19
99 1 -6.5422 -4.96441 4.46463 21
100 1 -5.21097 -10.4901 6.00315 15
101 1 -1.00657 0.170785 1.94721 20
102 1 -2.27864 -1.35488 4.58304 19
103 1 -5.50945 -0.332507 -2.49194 20
104 1 6.92554 -7.98121 -2.15458 20
105 1 -2.1985 11.0024 5.21213 17
106 1 -10.5827 3.18573 1.78737 18
107 1 -9.42426 -1.49372 -4.75789 21
108 1 2.7413 -8.18074 2.23448 19
109 1 9.53153 7.83835 -2.77333 23
110 1 2.07401 2.171 14.0844 10
111 1 -6.5441 -2.79486 2.32895 19
112 1 -3.59154 5.29814 -12.2873 15
113 1 -7.27283 -5.16352 -10.8987 11
114 1 -7.53869 9.344 -3.74159 14
115 1 0.940727 3.72215 11.5089 19
116 1 -2.86982 8.04056 -7.32835 18
117 1 -0.81289 -0.272349 -14.2125 14
118 1 -1.6488 3.32782 1.09466 21
119 1 -7.07238 7.18397 9.96768 12
120 1 -3.64997 6.98337 11.3415 13
121 1 0.893013 -8.85818 -7.93981 18
122 1 -2.42401 2.07975 3.98357 23
123 1 -4.99559 0.0616602 3.19403 18
124 1 4.38201 -7.47936 -3.35722 18
125 1 6.35432 9.15134 -7.86041 15
126 1 0.438773 8.2986 -0.837486 23
127 1 -10.6085 1.16054 4.26245 23
128 1 0.357731 7.36645 10.8963 16
129 1 10.8672 1.64398 -1.51473 21
130 1 4.39383 6.55666 7.18999 19
131 1 -8.4675 6.91922 1.73659 22
132 1 -9.22776 -8.10409 -4.67867 15
133 1 2.27565 -3.16752 8.84528 22
134 1 1.65799 -11.6482 -2.41936 18
135 1 -1.87641 1.16988 -11.7698 23
136 1 11.3347 1.81367 -9.3792 10
137 1 -13.5191 -0.275577 5.77144 12
138 1 -7.59071 -7.03498 -7.90433 14
139 1 -6.02898 -5.68895 1.36817 19
140 1 -3.21303 -7.70018 1.46128 21
141 1 -5.40888 -2.34874 -9.03205 23
142 1 -10.4812 -1.97004 -8.83378 13
143 1 9.00806 0.84694 9.4073 15
144 1 3.84283 -8.46501 7.36158 25
145 1 0.222268 -5.51754 7.49259 21
146 1 10.3172 8.82469 2.02456 18
147 1 -8.51884 -9.08099 6.38919 11
148 1 1.67696 10.3495 1.23357 18
149 1 -4.0607 -5.56373 -9.27301 19
150 1 -5.01289 -10.6088 -5.23919 13
151 1 -0.480638 -9.00174 3.01839 20
152 1 -2.96796 -4.79276 0.245516 19
153 1 1.92156 -4.47414 1.8498 20
154 1 10.2865 5.8182 6.12123 18
155 1 -4.29907 -5.36174 -3.58771 21
156 1 -3.35782 -3.42693 9.52433 20
157 1 -7.68266 -11.4609 0.546251 15
158 1 3.22673 2.90335 -5.4546 22
159 1 3.92444 -9.46158 -0.816629 20
160 1 3.23289 -6.49864 -0.419804 21
161 1 4.08704 -12.8546 -0.354796 14
162 1 -12.0955 2.38991 -7.99652 12
163 1 8.53168 3.55916 3.77916 24
164 1 -7.8794 1.68566 -11.9161 14
165 1 -0.766346 4.37366 -10.5404 21
166 1 -5.16284 -2.27276 5.5326 23
167 1 3.24293 9.33495 6.94464 17
168 1 9.29395 4.13391 9.04649 13
169 1 -11.4328 2.01477 7.34149 13
170 1 -4.91291 -7.40286 9.74189 14
171 1 -6.1161 9.96775 3.87901 20
172 1 0.687735 -2.1284 -8.53617 23
173 1 9.6214 -6.66591 5.72507 14
174 1 8.49576 -3.53704 -9.89588 11
175 1 -3.28383 -4.10694 3.31768 21
176 1 -0.466239 1.15687 6.4007 23
177 1 -8.08592 -1.0231 4.61711 22
178 1 8.27243 -8.12108 -5.25812 15
179 1 -3.54902 8.275 2.68579 22
180 1 -5.01344 6.04035 1.08518 25
181 1 0.809197 2.32655 3.84499 22
182 1 6.31631 -9.9593 9.69629 12
183 1 -3.58758 5.89724 6.70443 23
184 1 -6.85378 -3.043 -3.81398 22
185 1 3.8972 -2.30723 3.46325 23
186 1 -3.86659 11.655 2.57565 15
187 1 -5.45666 1.50322 -5.10429 19
188 1 -8.90834 5.94717 5.39114 19
189 1 -5.77274 -4.38325 -6.5341 23
190 1 -5.65202 9.42963 0.588977 21
191 1 5.28142 0.203061 8.31154 22
192 1 0.611207 -8.7973 8.39754 16
193 1 -3.50336 1.21551 -0.516805 20
194 1 -2.52967 -4.30669 5.85764 20
195 1 2.44101 -9.67507 -5.12709 22
196 1 -8.18116 -3.88678 -8.64027 19
197 1 -9.78504 -4.26978 -2.7102 23
198 1 -0.903528 -10.5813 -3.91508 17
199 1 -2.61502 -2.68373 -2.38485 19
200 1 13.0427 3.71095 -3.39929 13
201 1 -9.28134 2.94036 -9.29074 16
202 1 3.42573 0.904337 2.69827 24
203 1 -6.89521 8.58502 6.80288 16
204 1 -6.33089 12.6926 0.709712 12
205 1 -6.698 5.40946 7.4686 23
206 1 11.9404 -2.86726 -4.66564 12
207 1 11.336 0.704342 -4.29386 16
208 1 3.021 1.34896 5.96236 25
209 1 -4.2073 7.25079 -1.85037 18
210 1 0.0459761 -7.57705 -5.12479 23
211 1 1.83461 7.4692 4.77329 22
212 1 4.82067 4.88889 -3.78238 25
213 1 -7.93076 3.65606 -5.39148 21
214 1 8.20313 -10.4589 -3.21735 13
215 1 11.3718 -1.12519 6.04673 16
216 1 -8.81627 -4.86696 -5.71283 19
217 1 -3.87034 -6.82932 5.28691 24
218 1 -2.3655 9.84377 -0.229963 23
219 1 -11.5592 5.42663 -3.72715 13
220 1 -2.96208 -8.48299 -4.04667 24
221 1 2.60516 -11.0516 2.72577 17
222 1 -10.3461 -9.28464 0.933671 16
223 1 -10.6564 5.06823 -6.92084 13
224 1 -0.599577 -12.1629 3.88026 13
225 1 -5.56929 2.28916 8.34606 20
226 1 2.46138 0.0272944 -1.69189 19
227 1 -7.32433 4.69525 3.37516 21
228 1 0.155896 -5.6703 -7.64983 23
229 1 -0.183823 -2.04823 6.88513 22
230 1 -11.6012 3.83962 4.82892 13
231 1 -2.46643 -6.52521 8.54283 19
232 1 -6.07259 -4.80058 10.4671 16
233 1 2.88121 -6.38303 -5.99332 18
234 1 7.37209 -12.2998 -0.224147 12
235 1 3.18419 11.2667 -4.97737 19
236 1 -5.94364 -7.37272 6.58936 18
237 1 10.1629 -5.83838 9.8891 12
238 1 6.78874 4.05608 -1.54294 22
239 1 -4.74755 3.177 2.12987 23
240 1 1.86744 0.646521 -7.49657 21
241 1 10.2331 -2.80898 8.71663 16
242 1 1.02629 5.12207 -0.172361 23
243 1 -3.02839 -1.59126 12.5624 13
244 1 2.88193 11.6107 -1.57183 14
245 1 6.28637 -3.45534 5.44932 24
246 1 -1.75413 -9.329 -0.935587 21
247 1 4.44226 4.07208 12.9116 13
248 1 -8.38372 2.80221 6.28657 23
249 1 -7.26157 -6.11478 -2.67618 24
250 1 -6.31945 -9.07053 -3.05527 20
251 1 -1.42449 10.1034 10.5026 10
252 1 -6.6538 -12.1143 -2.47265 11
253 1 -10.9435 -2.09256 6.02102 18
254 1 7.60915 1.98978 6.77762 20
255 1 9.20888 3.20661 0.770574 22
256 1 0.851936 6.60026 -8.68455 24
257 1 2.05557 6.61935 -3.09425 24
258 1 -1.57844 8.07162 8.71203 19
259 1 -11.6318 -6.47026 1.27587 16
260 1 6.4921 10.9029 -5.46394 16
261 1 -2.07341 -6.42129 -12.4775 13
262 1 -4.28175 -0.918968 -13.3045 14
263 1 11.8625 9.12673 -4.06263 10
264 1 5.9724 7.61527 1.15801 24
265 1 2.18047 5.26777 -11.7039 19
266 1 0.914256 -9.75769 0.171081 20
267 1 4.69204 2.30956 -0.205979 23
268 1 -4.78068 2.50115 -13.0675 12
269 1 11.3305 5.41395 2.31602 22
270 1 5.73346 -7.30613 1.32004 22
271 1 -2.05406 3.10033 -14.3674 11
272 1 -2.35891 -11.3993 1.32795 18
273 1 2.75264 -6.21979 9.50234 18
274 1 -11.5018 2.39267 -4.92617 17
275 1 5.25674 3.18336 4.61019 22
276 1 -0.653948 6.18419 -13.1557 13
277 1 -12.0603 -5.07318 4.39497 15
278 1 11.4633 -1.5599 -1.54262 14
279 1 0.1634 4.18654 -4.64452 22
280 1 -4.81231 4.46233 -6.47448 20
281 1 -4.78225 -8.65521 -7.65674 14
282 1 3.49763 -0.0540913 -10.221 23
283 1 10.7892 -3.73099 -7.56328 11
284 1 -0.139266 -6.75498 0.459656 20
285 1 -11.7424 -0.860036 8.94419 12
286 1 -3.19227 12.9859 -0.193561 13
287 1 1.6786 7.99753 -11.3897 9
288 1 12.7478 3.77525 -0.12281 16
289 1 1.27646 -8.22214 -2.47774 21
290 1 4.20933 -1.55221 -7.45789 23
291 1 4.31453 5.53106 -0.432762 23
292 1 9.54673 -3.72589 1.78529 16
293 1 5.24212 -10.6653 1.62536 22
294 1 5.62858 -1.43598 -2.79976 20
295 1 -9.30493 4.66075 8.50649 15
296 1 -5.76016 -3.39786 -1.07502 21
297 1 -6.17087 -7.36129 -5.17646 22
298 1 -0.392819 -1.6753 9.86841 22
299 1 7.42388 5.78643 -9.67363 12
300 1 -5.90856 7.64767 -6.43331 16
301 1 0.4427 12.5113 -3.8647 14
302 1 1.9364 -0.0282133 8.62065 23
303 1 6.02248 -10.5784 -5.89284 13
304 1 5.01247 1.24702 -8.04675 19
305 1 -10.9672 -8.17289 4.09517 14
306 1 -8.30394 0.941093 -4.00269 21
307 1 -8.9435 -4.09545 11.6051 9
308 1 8.16283 9.20741 -0.407594 20
309 1 3.35686 -9.78983 -8.29576 12
310 1 4.88368 -5.70391 12.3448 14
311 1 6.38656 3.3014 -6.09866 20
312 1 1.73297 -1.26092 0.856727 23
313 1 -11.0674 9.03458 0.743063 13
314 1 8.12406 -2.60572 -0.7033 19
315 1 0.396846 9.6035 7.36665 17
316 1 0.388135 3.70364 -7.38933 22
317 1 5.02332 3.6095 -11.3699 12
318 1 0.401457 -5.68377 -14.0503 8
319 1 -4.5721 -7.08579 -1.12362 22
320 1 13.2051 0.829965 5.28712 13
321 1 8.53837 -6.0702 -7.84436 13
322 1 5.60982 -7.82172 -6.92926 16
323 1 5.87214 10.5828 -2.68648 16
324 1 -7.65999 3.95306 0.60093 20
325 1 11.8756 6.62787 -1.42587 19
326 1 5.69165 -6.42116 9.06568 24
327 1 5.17876 -0.943901 0.416573 23
328 1 6.53916 2.30805 10.7214 18
329 1 -9.44899 0.796474 -6.72961 20
330 1 12.7424 4.22344 5.20847 13
331 1 7.65356 -8.65542 3.21487 19
332 1 -1.30818 -6.51769 -2.22978 21
333 1 2.13585 9.67586 10.2171 12
334 1 4.98433 3.41121 7.7017 22
335 1 -3.31028 7.08662 -4.84399 22
336 1 0.835793 -11.6263 -6.28705 12
337 1 -6.41384 4.18254 -10.7472 15
338 1 -6.93487 -2.05968 -11.7797 15
339 1 -11.8788 0.393817 0.487157 18
340 1 10.0618 -7.25651 1.81555 13
341 1 4.0627 -11.2202 8.05234 14
342 1 1.22335 2.0483 0.495163 24
343 1 1.05069 -4.05374 4.89517 21
344 1 7.25795 2.68097 -9.3672 17
345 1 5.24489 1.71153 -3.23338 19
346 1 9.30244 -3.08053 5.03525 20
347 1 12.2851 7.65779 4.07251 12
348 1 11.2796 -1.29351 3.12547 18
349 1 -4.57025 4.9779 9.75823 20
350 1 -9.47846 -3.70533 3.27508 19
351 1 -11.6348 -4.48926 -7.20944 11
352 1 4.90536 0.791152 13.2661 14
353 1 -7.58314 12.0924 4.15145 8
354 1 8.3221 6.74786 3.13082 23
355 1 5.48581 -4.06183 1.07532 21
356 1 6.7635 1.41036 2.2741 23
357 1 -9.42568 1.84328 9.69639 15
358 1 7.01667 -0.817589 -8.7246 20
359 1 -0.846205 -4.58496 -10.0897 21
360 1 5.60255 8.56893 9.47118 14
361 1 2.43003 4.49068 5.52948 25
362 1 0.0817841 -2.14315 13.0117 12
363 1 -2.05517 3.81202 11.9771 12
364 1 -6.68465 0.990035 11.1407 15
365 1 -6.26747 2.41062 -1.96708 19
366 1 -1.94459 5.23102 -7.29737 20
367 1 7.43887 8.55503 -4.92924 22
368 1 -3.73616 0.956955 11.0055 15
369 1 1.59198 9.65204 -3.73334 21
370 1 -1.19162 -4.58747 -4.79339 23
371 1 -5.85301 -8.2363 3.16392 23
372 1 6.26318 4.42921 1.73482 24
373 1 -2.89202 5.69134 3.47057 24
374 1 -7.75372 7.31806 -1.01099 17
375 1 10.2512 4.48206 -2.14748 22
376 1 3.92545 2.32866 10.1078 24
377 1 7.17966 5.63346 6.06573 23
378 1 -8.68395 -1.43812 -1.16665 21
379 1 -0.893109 0.95666 -9.19843 20
380 1 -0.840708 4.53113 5.92977 23
381 1 4.34316 -3.4353 -5.10667 20
382 1 3.84619 9.27522 3.60032 20
383 1 -11.658 -1.95811 3.26346 21
384 1 5.31737 -10.9518 -2.44166 19
385 1 9.23049 7.07605 -7.60891 14
386 1 4.31582 -5.43468 3.82041 21
387 1 0.250422 5.39308 2.96272 24
388 1 1.86701 -2.72622 -13.6638 13
389 1 -3.49009 -1.69177 0.65983 22
390 1 5.86575 -4.46964 -7.6829 19
391 1 3.41809 -3.21961 -1.48187 22
392 1 -5.12033 11.4511 6.90191 11
393 1 3.60484 -5.02698 6.68144 23
394 1 -0.834709 -1.29497 -6.17182 20
395 1 -3.3673 -11.806 -2.27699 17
396 1 0.502843 -2.32903 -3.22221 21
397 1 -5.19538 3.70058 4.93251 23
398 1 7.55215 -5.4821 3.15135 21
399 1 2.37086 8.83033 -7.20547 20
400 1 9.17406 3.89848 -7.34274 16
401 1 3.27993 -1.58591 6.26737 22
402 1 8.62758 2.24308 -3.84772 20
403 1 3.76855 3.12477 -13.8779 10
404 1 -5.64011 -1.73859 8.73958 22
405 1 -0.975135 -8.22452 6.01565 20
406 1 1.25029 -6.91971 -10.8204 15
407 1 -5.99027 5.41902 -3.58138 21
408 1 4.86807 6.30435 3.86491 24
409 1 -7.92968 -6.26704 8.43172 16
410 1 5.84665 0.87821 -11.7214 15
411 1 -0.806408 0.941273 12.4504 14
412 1 -10.3425 -7.30004 -1.63756 19
413 1 9.41165 -0.128523 1.282 22
414 1 -4.53613 -10.0632 1.00714 23
415 1 8.02603 -6.1563 -0.129631 19
416 1 6.82504 -9.92136 6.20478 19
417 1 -1.43362 11.4352 7.56948 10
418 1 -7.13156 4.02773 10.7057 13
419 1 11.3822 2.18444 2.8916 23
420 1 10.0074 -7.79367 -2.52426 14
421 1 2.49247 3.42482 -2.28906 22
422 1 2.59391 7.38567 1.42857 23
423 1 1.05305 10.6942 4.64154 18
424 1 2.15738 -11.0601 5.55374 17
425 1 -11.3495 -2.27958 -0.116638 18
426 1 3.24112 5.20719 10.2449 18
427 1 5.0676 10.7501 0.70284 15
428 1 8.1102 -4.60835 7.89331 22
429 1 11.942 -4.64329 6.86717 12
430 1 6.08456 8.89973 5.91847 17
431 1 -3.52653 3.53458 -3.86688 19
432 1 -1.92385 -7.5417 -9.30499 16
433 1 -4.72677 0.310965 -10.5568 22
434 1 -5.89035 -1.98059 11.6219 15
435 1 14.1741 -1.27213 3.35052 8
436 1 4.26805 8.10464 -4.78531 24
437 1 5.17592 -2.73882 -10.3387 19
438 1 -7.42669 -8.22016 0.138863 23
439 1 -6.59235 -1.14739 -6.3016 21
440 1 0.244605 2.97444 -13.3934 18
441 1 -3.11939 -6.42267 -6.34273 23
442 1 2.7188 -3.53228 12.1196 15
443 1 -0.989523 -0.282235 -0.922098 18
444 1 -0.924851 -6.36194 3.41688 21
445 1 12.1721 2.85269 -6.54585 13
446 1 -9.40962 11.5949 2.07838 11
447 1 5.69975 -4.60688 -2.09567 21
448 1 -13.6222 1.88255 2.66746 11
449 1 8.22485 7.71675 8.19818 13
450 1 3.48155 7.4009 12.0381 11
451 1 -12.2189 -3.17102 -4.59143 14
452 1 -3.23886 2.87181 -9.14468 21
453 1 9.55144 -4.28244 -2.59735 17
454 1 -11.9398 -6.13727 -4.58736 12
455 1 -2.54354 -9.46441 7.89735 15
456 1 8.0227 -1.23355 7.28766 21
457 1 -11.0474 6.34312 3.07974 14
458 1 4.23461 7.04042 -9.15272 16
459 1 7.57839 -4.32694 10.7456 17
460 1 0.0606916 -3.6075 -0.746879 21
461 1 -8.76133 -1.25312 9.98236 17
462 1 0.555227 -0.875017 -11.5213 19
463 1 -3.04657 -12.252 5.88676 12
464 1 5.54098 -3.01035 8.81741 22
465 1 -0.533141 -12.6101 -0.798683 11
466 1 12.6483 -0.563162 -6.93486 13
467 1 -8.19592 10.4035 -0.662454 15
468 1 -8.58591 0.226806 7.46583 23
469 1 -4.04693 -2.43889 -4.85926 21
470 1 3.55408 -12.6711 -4.27142 10
471 1 13.0297 7.29467 0.960814 13
472 1 14.4723 2.10711 2.97308 11
473 1 0.0477005 -11.7971 7.02164 12
474 1 9.27252 9.90234 -6.44893 12
475 1 3.75694 3.91578 -8.41648 22
476 1 -11.6057 2.90171 -1.57858 15
477 1 2.5347 5.95833 -6.05785 22
478 1 7.41763 10.0201 2.96674 14
479 1 6.67674 7.36189 -2.11008 22
480 1 -4.81218 8.49733 8.74771 16
481 1 9.1186 -0.755166 -3.46627 20
482 1 -0.494142 -3.10235 2.31201 22
483 1 5.17487 -12.3869 5.10039 14
484 1 -5.71737 0.57463 6.33315 20
485 1 5.98563 5.27719 10.0018 17
486 1 10.3833 -1.26336 -8.46832 12
487 1 2.84399 -3.65296 -9.64794 19
488 1 -4.41903 5.93195 -9.18144 16
489 1 -1.30365 7.63361 4.79834 23
490 1 -2.57536 0.429438 -3.58828 20
491 1 -1.40296 6.02585 -2.72831 24
492 1 1.81542 -7.2295 5.27912 21
493 1 6.6695 -6.78759 5.81439 25
494 1 2.89523 0.54812 -13.2708 16
495 1 -13.5568 -3.91145 1.48048 13
496 1 -8.89722 4.39458 -2.24906 21
497 1 7.58601 -1.04607 10.6761 16
498 1 -9.48368 -5.97412 5.81319 17
499 1 12.9378 0.342071 0.553504 14
500 1 -1.54402 7.16901 -10.1983 16
501 2 -12.445 -2.61285 -6.39966 12
502 2 -3.76178 12.028 -1.89583 16
503 2 1.71979 -2.22473 -10.5706 23
504 2 -0.706112 3.56833 10.315 17
505 2 -6.22809 -7.92387 -7.17656 15
506 2 2.9573 0.547476 14.1891 10
507 2 -10.7006 -1.60591 1.62379 21
508 2 8.44267 5.70373 4.72007 21
509 2 1.38261 -2.02939 5.57782 24
510 2 -5.4612 0.300513 -7.14818 22
511 2 -8.06789 -9.58488 -3.82237 15
512 2 -10.7349 2.06165 0.115591 21
513 2 -5.26603 -4.37615 3.00269 21
514 2 5.60707 1.90612 9.02246 21
515 2 6.96717 -2.47501 -9.81106 15
516 2 7.93901 1.57705 0.643257 22
517 2 -6.12361 7.26802 -2.41209 21
518 2 8.50795 6.07254 7.33546 16
519 2 -1.15201 -5.27966 -0.546939 21
520 2 -9.34395 -4.76004 7.45711 15
521 2 -4.44665 -11.895 1.55836 15
522 2 11.3044 -5.2165 8.4728 11
523 2 -8.68446 9.00169 -2.0391 16
524 2 -4.47988 5.32877 -4.66507 22
525 2 -5.47593 8.53121 5.17768 21
526 2 -1.51515 5.1337 2.13962 25
527 2 3.29758 -1.48584 -0.669845 20
528 2 6.1198 -6.33441 -2.74266 17
529 2 -2.30108 1.3369 -7.87886 23
530 2 3.09901 -2.24093 -5.95556 21
531 2 -1.04571 -1.9357 -1.93097 21
532 2 9.54411 1.01978 -5.09045 19
533 2 -1.434 -7.35323 1.83377 20
534 2 11.6155 7.24475 -3.36322 15
535 2 -4.7607 9.77359 2.32807 22
536 2 -0.934912 -8.89635 -8.1561 18
537 2 6.37924 -8.91643 11.279 11
538 2 7.83803 -3.58476 3.88129 21
539 2 -11.5017 2.02669 -3.11249 16
540 2 5.46342 -2.09618 1.87779 22
541 2 0.817433 0.247026 -0.129654 20
542 2 9.62954 9.76561 0.517251 16
543 2 5.77173 -13.5198 0.276001 12
544 2 0.218397 7.81733 6.35502 20
545 2 6.21344 6.27809 2.38699 25
546 2 4.12343 8.86773 -8.29463 17
547 2 -5.19227 1.42624 9.85918 20
548 2 1.75698 0.509628 -11.1781 22
549 2 -8.07516 -0.472441 -5.28484 19
550 2 -10.5936 2.71255 5.84488 16
551 2 -10.7173 -7.86175 2.11585 17
552 2 5.59557 -11.4155 6.69003 14
553 2 -2.28045 -5.33489 9.83037 17
554 2 2.31729 3.5693 10.2066 22
555 2 -8.58532 3.45165 2.231 21
556 2 6.15829 -4.1517 -5.65252 20
557 2 11.3235 -1.18462 -3.47302 16
558 2 -2.4974 -12.6971 -0.272361 12
559 2 4.81099 -0.028855 -4.03384 19
560 2 0.157904 4.52819 7.54209 19
561 2 7.28174 -9.69299 -4.71534 16
562 2 6.46547 -4.57485 9.07684 21
563 2 -3.14001 -8.75112 5.65375 24
564 2 12.7363 -1.00676 1.84049 14
565 2 3.04043 -4.10495 3.29981 23
566 2 -1.53088 -10.8491 2.88703 19
567 2 8.98259 -5.78389 1.61643 18
568 2 -1.20516 0.261153 -4.90943 19
569 2 -0.0387163 -6.0643 -3.68174 23
570 2 -5.32481 -4.95313 -10.6698 14
571 2 -5.74922 -6.758 4.56779 20
572 2 -4.28805 -6.21598 0.659584 21
573 2 -3.5916 -8.78597 -0.274667 20
574 2 -4.17782 9.18396 -0.843951 21
575 2 7.88124 2.5681 -7.63279 20
576 2 7.79379 4.43671 0.275925 25
577 2 0.409467 -1.41233 -13.3955 15
578 2 -6.53617 7.36441 8.22183 19
579 2 -1.9095 1.39739 -1.75608 21
580 2 -11.0251 5.27813 1.53611 16
581 2 -2.34243 1.17014 8.45041 19
582 2 -5.49553 9.78195 7.62166 12
583 2 -1.04672 3.65594 -5.88621 20
584 2 11.8876 2.19552 -3.08632 15
585 2 9.44376 -6.11599 -1.65589 16
586 2 11.3955 4.25143 6.4427 13
587 2 1.04881 8.54492 1.07583 22
588 2 -4.60834 6.73616 2.96249 24
589 2 1.94774 5.50318 1.83587 22
590 2 12.3774 8.29393 -0.672237 13
591 2 5.68192 5.551 -2.04198 24
592 2 5.07336 11.3756 -4.34823 18
593 2 0.331002 9.35133 10.8439 12
594 2 -3.12049 0.233827 4.07417 23
595 2 3.17317 -2.75281 10.5155 20
596 2 3.47969 0.10708 -8.30695 22
597 2 -1.19949 -0.815191 12.9151 13
598 2 6.51008 4.25613 -10.3541 14
599 2 -7.09305 -3.63798 11.7982 12
600 2 -1.75189 -8.00421 -5.62528 23
601 2 -1.57456 -5.18397 -6.88284 23
602 2 7.23504 -11.5279 -2.07701 14
603 2 -3.75358 -1.19132 -3.22457 21
604 2 12.3219 4.3481 -5.21214 12
605 2 -6.4167 2.95222 -12.1638 12
606 2 -8.36545 10.4433 3.55335 14
607 2 0.131531 3.57918 -0.322799 21
608 2 -6.0084 -4.69949 -2.83652 21
609 2 1.08458 6.59078 -12.5451 13
610 2 1.33224 11.5867 -0.22709 16
611 2 -3.276 5.21731 11.2489 11
612 2 5.15191 -9.59337 -7.35757 12
613 2 7.36886 4.00347 9.85706 16
614 2 9.16818 0.955658 -2.44438 21
615 2 6.72858 3.18774 3.09663 25
616 2 -4.87305 5.0859 -10.8487 15
617 2 6.70709 -5.85067 11.7695 13
618 2 -0.612878 -9.89737 7.16742 16
619 2 8.20591 -6.38258 7.12977 18
620 2 -4.4775 8.68693 -6.17699 16
621 2 -8.11337 -11.5756 -1.43791 12
622 2 0.648425 2.03066 -8.55131 20
623 2 -0.809452 -11.1269 -5.781 15
624 2 4.94494 8.4685 7.55446 15
625 2 -9.21331 -8.72414 -0.66045 19
626 2 -7.08879 2.82014 4.65485 22
627 2 9.01598 -1.15437 8.86677 17
628 2 -5.32983 -12.8759 -1.39592 10
629 2 -1.32861 -0.123647 -10.5998 23
630 2 4.8798 3.00506 -7.17446 22
631 2 -5.09598 -2.18777 -12.1355 14
632 2 -7.80824 -3.30057 -10.5154 15
633 2 -7.41988 -1.16726 8.257 21
634 2 -4.44864 -4.1668 -8.08821 21
635 2 4.36077 -6.18849 -7.52039 19
636 2 8.38859 4.21483 -3.15771 22
637 2 -9.06363 0.443713 3.60463 20
638 2 -0.95559 -2.82347 -8.89669 22
639 2 2.4838 -4.6832 -4.90627 21
640 2 3.31706 6.06956 -4.31794 22
641 2 -3.69684 -7.19191 -8.09201 19
642 2 2.6141 6.72679 -10.1798 14
643 2 5.84599 9.65329 4.02903 18
644 2 11.3911 0.928641 5.85945 15
645 2 -11.3205 -2.39516 7.92131 14
646 2 -3.36181 -10.9293 7.17081 12
647 2 -3.87456 0.855798 -12.4284 18
648 2 -2.2328 5.97716 5.46313 25
649 2 -7.04793 -4.07364 0.529613 19
650 2 -11.7531 -0.510623 4.67627 20
651 2 -3.76195 6.13356 -0.262258 22
652 2 -9.62124 -3.12807 10.2494 13
653 2 6.39171 -12.9582 3.70906 11
654 2 -14.225 0.717344 4.20178 10
655 2 -4.35516 -11.4492 4.57983 16
656 2 -9.00749 -1.54289 6.28265 22
657 2 9.21474 -4.13969 9.67813 17
658 2 5.79189 8.53281 -5.97771 24
659 2 -3.40261 -2.89629 4.91871 22
660 2 4.57412 10.6435 -1.36742 18
661 2 6.67762 1.96699 -4.66069 23
662 2 -1.05408 12.6562 -2.69566 14
663 2 -7.89175 -6.29589 -9.5704 9
664 2 -13.6236 -2.45206 2.66884 14
665 2 -0.308817 -11.786 -2.41918 16
666 2 4.06538 -6.41936 7.98161 20
667 2 11.6109 -6.40227 2.35697 8
668 2 -7.65203 8.04602 -5.27681 15
669 2 6.2501 2.1541 -1.51285 23
670 2 4.44127 -3.93438 12.9165 12
671 2 -2.8129 -1.9501 -6.74047 23
672 2 3.81034 4.40112 3.89182 23
673 2 2.70928 6.23882 6.26105 20
674 2 3.18399 0.367346 10.2864 21
675 2 -6.0538 4.58308 1.6658 20
676 2 1.08976 0.966264 5.27326 23
677 2 3.845 4.74854 -12.6382 11
678 2 -4.7657 -8.51948 -4.41276 20
679 2 -8.86364 -3.31104 -4.15831 19
680 2 -10.3019 0.146015 9.76213 13
681 2 8.16027 10.4823 -4.91956 15
682 2 -0.15448 -2.90604 -4.93844 22
683 2 6.18507 3.55006 6.24493 23
684 2 6.888 -7.62578 -0.201176 23
685 2 -12.9498 -5.25165 2.78627 13
686 2 -2.27733 11.7734 3.61154 13
687 2 -3.48711 4.37824 -7.87729 20
688 2 1.91095 4.2185 -6.06606 23
689 2 -8.61341 5.66993 -0.364178 19
690 2 1.57347 -5.51329 6.05591 23
691 2 2.42932 5.1232 -1.61684 24
692 2 -8.56847 -5.33178 4.09583 21
693 2 4.07906 -8.08078 0.605523 19
694 2 1.28827 -9.25489 2.11024 21
695 2 -6.0794 11.505 5.08847 13
696 2 1.60852 -6.09319 0.627887 22
697 2 -11.5529 4.50157 -5.4208 13
698 2 2.0595 -10.2315 -1.20486 21
699 2 7.04535 7.2783 9.6427 13
700 2 -0.949462 4.53267 -14.0544 12
701 2 1.28761 10.6015 -8.32416 13
702 2 6.26621 1.05111 -9.85299 17
703 2 -0.938529 9.66106 -1.51192 23
704 2 -3.31465 -3.25233 11.6016 17
705 2 -3.49181 -5.56758 6.93714 23
706 2 -2.52779 -3.15799 1.56327 20
707 2 -0.888725 2.10372 2.55549 20
708 2 -9.74957 -3.10901 -1.1826 19
709 2 -0.483678 -3.90864 6.21467 19
710 2 3.89183 5.63751 -7.57657 20
711 2 2.59385 -0.864385 2.7922 25
712 2 6.74231 -1.04212 -1.33188 21
713 2 5.86621 -1.22672 9.5863 19
714 2 -6.74082 -2.01702 -1.84763 22
715 2 2.05077 2.17376 -14.0 14
716 2 6.33734 5.15124 -5.64019 23
717 2 5.54963 6.82185 5.61192 22
718 2 4.76539 -3.34674 -3.18986 19
719 2 -8.17165 -2.22605 3.16015 23
720 2 -2.6652 10.8049 -4.48812 17
721 2 0.659011 1.48484 8.32236 22
722 2 -3.67635 1.80386 -4.63712 19
723 2 -0.766218 -10.7983 0.112355 17
724 2 -1.2639 -12.413 5.64034 11
725 2 -6.40031 1.24897 -3.57138 21
726 2 7.88085 -3.17754 6.66392 18
727 2 8.76671 -0.224014 -8.03911 16
728 2 3.45135 10.367 1.86147 17
729 2 2.02286 2.2298 2.32338 24
730 2 7.90852 -10.2845 4.36893 15
731 2 9.72967 -7.59773 -4.32133 14
732 2 3.79875 2.66644 -9.85793 20
733 2 4.99059 -1.86641 5.0022 23
734 2 2.59367 3.86162 13.1093 14
735 2 -1.41427 -0.735527 6.18163 20
736 2 5.30914 -5.20328 5.58156 23
737 2 -3.60842 3.79114 -13.477 14
738 2 11.8084 -2.3089 -6.49535 12
739 2 -6.54934 11.082 -0.37629 16
740 2 -0.128987 -6.35972 -9.5315 18
741 2 -2.2291 1.93155 11.7288 14
742 2 0.832404 -3.01384 1.07098 22
743 2 -3.48659 3.12657 0.472379 22
744 2 -10.6004 3.68123 -8.10175 15
745 2 10.9201 -4.34565 -4.06384 14
746 2 2.71215 9.89529 5.18689 16
747 2 12.1597 5.55068 4.17824 14
748 2 13.2012 2.58847 4.28488 14
749 2 -11.6326 -0.638176 -1.04077 15
750 2 -6.12414 3.12215 -6.29876 20
751 2 -9.38713 2.24222 -5.21255 21
752 2 -6.03522 1.4194 2.1218 20
753 2 12.5352 4.71307 -1.9322 14
754 2 -10.41 6.91661 -4.05649 14
755 2 1.20961 -11.5732 3.86149 12
756 2 4.86796 -1.0785 13.021 15
757 2 1.92485 -11.8373 -4.44581 12
758 2 -0.799193 1.42767 -13.565 16
759 2 7.3315 7.59129 -0.271018 22
760 2 7.58744 10.1505 -1.90141 18
761 2 -10.6643 -5.52561 -5.90767 14
762 2 -9.14564 -5.77361 -1.62578 19
763 2 8.55099 -2.03509 1.19824 19
764 2 -7.87064 4.95197 -3.86572 19
765 2 3.89479 -11.0491 4.51214 20
766 2 5.83162 -5.49918 2.35082 23
767 2 -8.14809 -5.42656 10.3384 12
768 2 -4.8858 -5.88731 -5.38076 24
769 2 -0.357072 6.75726 9.11062 20
770 2 1.96369 8.53119 -2.18199 22
771 2 -8.27796 7.88588 5.45165 17
772 2 4.55563 4.09352 0.746969 25
773 2 -4.44624 -6.18735 11.0628 13
774 2 -1.86383 11.4844 0.672183 17
775 2 3.54112 -12.6063 -2.20087 13
776 2 2.34343 -8.08478 9.16471 14
777 2 5.06683 2.36502 11.9962 18
778 2 -7.38286 8.59939 0.463437 20
779 2 -2.66828 7.44721 -3.06017 23
780 2 -3.10874 4.57317 8.36959 23
781 2 -2.19301 -3.55688 -11.2539 21
782 2 9.72913 -2.51654 -1.68493 17
783 2 7.51264 -4.81699 -8.71988 14
784 2 -6.01915 10.6277 -3.84584 14
785 2 -7.23368 -0.764508 11.1987 14
786 2 -9.47175 0.350158 -2.38364 21
787 2 7.55529 -1.50007 -4.27798 21
788 2 4.17663 7.41848 0.097235 25
789 2 -4.60068 -1.03095 7.10185 20
790 2 -2.07344 -2.31758 8.95916 18
791 2 2.82986 1.93815 -0.908237 23
792 2 0.235611 8.38527 -10.0055 14
793 2 -11.3227 -1.30533 -4.41771 17
794 2 1.67531 -0.590335 -3.3413 19
795 2 -3.95209 -1.10934 -9.47683 23
796 2 0.615033 -0.648546 -7.23037 21
797 2 -9.75411 -0.693194 -10.1658 16
798 2 2.80285 -5.53294 -10.6584 15
799 2 -3.35615 -6.94441 -2.60208 23
800 2 -0.874553 -7.35795 7.84058 20
801 2 -0.430158 5.26738 -8.79593 21
802 2 7.15676 -0.0801213 3.63162 26
803 2 0.618932 4.22952 4.6482 26
804 2 10.0683 -3.04561 -9.01149 11
805 2 7.13889 -10.8904 1.33518 17
806 2 8.74857 8.72005 3.5081 17
807 2 -2.73417 8.56264 10.1713 12
808 2 -10.2711 -4.82358 1.8357 20
809 2 9.74618 6.66454 1.89857 23
810 2 2.08169 -8.89416 6.52917 21
811 2 -9.80017 10.4017 0.658865 13
812 2 3.99108 3.30935 -3.64348 23
813 2 3.20002 3.0828 6.86666 23
814 2 -11.9562 2.63756 3.2067 15
815 2 6.46982 7.32484 -9.00615 11
816 2 -5.40287 0.716378 -0.897883 21
817 2 0.813942 2.75907 -3.31821 22
818 2 4.93841 -0.839532 -11.1423 19
819 2 -7.17407 1.65256 7.28059 23
820 2 -4.52115 -0.682423 11.987 12
821 2 8.91269 2.36225 5.26071 21
822 2 4.71092 1.93316 -12.7279 15
823 2 -10.2174 -0.941524 -7.18243 19
824 2 0.724797 -9.19302 -4.12752 22
825 2 12.4625 0.973716 -5.91552 14
826 2 -0.155446 6.44661 -0.989561 20
827 2 -2.65327 -6.05269 -10.5205 15
828 2 -10.7379 5.48568 4.78945 15
829 2 -8.46063 4.84242 6.75852 18
830 2 5.16138 -8.95602 -2.49892 21
831 2 -7.87414 -6.47627 -4.46351 22
832 2 -0.356736 -8.14713 -1.27405 23
833 2 11.1893 -0.0465906 -0.27451 19
834 2 -3.06815 7.28224 -9.08791 18
835 2 6.76901 9.84736 1.24378 16
836 2 -2.67424 -10.0891 -2.87898 22
837 2 3.40521 -0.0255281 7.51775 23
838 2 -3.31718 7.71296 7.59051 22
839 2 -2.20104 4.00473 -2.63379 24
840 2 -5.89794 5.84601 -7.48457 19
841 2 -3.87443 -10.001 -6.60345 14
842 2 -6.58026 -9.42361 6.51306 16
843 2 -11.2148 7.86082 -0.730493 14
844 2 5.93981 11.1359 -7.28684 12
845 2 1.21517 7.08953 -6.98784 23
846 2 9.68878 6.03443 -6.0118 16
847 2 -2.51605 -1.68987 -13.6377 14
848 2 1.28982 -7.1751 -6.71246 20
849 2 -11.7353 -4.75876 -3.35888 16
850 2 4.82919 5.49043 11.7338 15
851 2 -6.61156 -0.372957 -10.9005 18
852 2 -11.0203 -6.52483 4.78578 15
853 2 6.54913 0.378783 6.73541 22
854 2 3.89309 8.69408 10.602 12
855 2 10.6663 2.66203 -7.73976 14
856 2 -0.201947 9.08825 -4.58717 22
857 2 0.1132 6.13866 -3.94788 23
858 2 12.6811 -0.97906 4.40609 15
859 2 -8.16846 1.20617 -8.35313 21
860 2 3.33488 11.9972 -6.59526 12
861 2 0.117381 0.0132912 10.6296 19
862 2 -1.38795 -4.98755 -13.8175 11
863 2 -5.85058 -2.84823 -5.48386 21
864 2 0.74852 2.13649 12.4921 15
865 2 -2.66304 9.02764 4.33734 21
866 2 4.91283 -11.1525 -0.267222 18
867 2 10.193 -5.46384 -6.83746 15
868 2 -3.26461 11.4133 6.82309 13