ITEM: TIMESTEP
71000
ITEM: NUMBER OF ATOMS
500
ITEM: BOX BOUNDS pp pp pp
-30.0 30.0
-30.0 30.0
-30.0 30.0
ITEM: ATOMS id type x y z Coordination
1 1 -8.13042 -1.30364 -5.56148 17
2 1 -6.95814 -3.84056 -6.61429 14
3 1 -7.29936 -6.42822 -4.75248 11
4 1 -8.60892 -3.75122 -3.31916 16
5 1 -4.84246 -6.68449 -6.44345 14
6 1 -5.31525 -8.75762 -3.39202 12
7 1 -2.11305 -4.7758 -7.86938 14
8 1 -4.49452 -2.8723 -8.65943 15
9 1 -5.07819 -0.929656 -6.03693 24
10 1 -3.78607 -3.6599 -5.85345 22
11 1 -3.81485 -5.78875 -3.25995 23
12 1 -5.63988 -2.81982 -3.4395 20
13 1 -1.82444 -6.69334 -5.87802 20
14 1 -0.69692 -9.15905 -7.32175 7
15 1 -2.35758 -8.81176 -4.05148 16
16 1 0.824655 -3.8467 -8.308 17
17 1 -1.83234 -2.26409 -9.97101 12
18 1 -2.00017 -0.742898 -6.07861 23
19 1 -0.300505 -3.54944 -5.78478 23
20 1 -0.466873 -5.82868 -3.55166 23
21 1 -2.22427 -2.66771 -3.28017 23
22 2 -6.49183 -5.70522 -6.30544 11
23 2 -7.99309 -2.14138 -7.29452 11
24 2 -8.41076 -5.77146 -3.33354 11
25 2 -8.64177 -3.24668 -1.2915 18
26 2 -8.78047 -0.0611643 -4.16023 17
27 2 -7.29046 -2.97352 -4.57694 19
28 2 -6.06349 -7.91794 -1.91253 13
29 2 -5.44602 -7.40816 -4.78214 15
30 2 -3.70111 -9.52085 -2.84278 14
31 2 -3.24963 -5.54233 -6.67867 16
32 2 -5.19992 -2.93262 -6.83748 21
33 2 -5.26709 -1.11488 -8.85574 13
34 2 -2.95657 -3.58885 -9.25732 13
35 2 -3.69714 -5.77551 -1.38556 21
36 2 -5.4031 -2.88285 -1.39255 23
37 2 -5.18 -0.942031 -3.90465 23
38 2 -3.99189 -3.81925 -3.88057 20
39 2 -1.94369 -8.61465 -6.0864 12
40 2 1.70086 -8.46959 -0.84227 17
41 2 -1.49003 -8.89285 -0.682559 16
42 2 -2.0729 -6.70684 -3.90506 19
43 2 -0.545288 -9.26132 -3.47146 17
44 2 -0.267382 -5.13259 -7.19879 16
45 2 -2.1805 -2.80447 -6.40084 21
46 2 -1.90693 -0.37472 -9.82522 14
47 2 -0.0721823 -2.50665 -9.38817 14
48 2 -0.341429 -6.02315 -1.42896 23
49 2 -1.98233 -2.88229 -1.27157 22
50 2 -2.15824 -0.91362 -3.91851 23
51 2 -0.756559 -3.94752 -3.97086 21
52 1 -10.4339 -3.00315 -0.854587 11
53 1 -7.8369 -6.85185 -1.77637 11
54 1 -8.24627 -1.14917 -0.856058 22
55 1 -7.05971 -3.92842 -0.492762 21
56 1 -6.70166 -5.91979 1.87501 15
57 1 -8.51516 -2.84537 2.03226 19
58 1 -8.67868 -0.745304 4.3796 17
59 1 -6.85529 -3.86959 4.04977 19
60 1 -7.34102 -5.94997 6.38152 8
61 1 -9.08219 -3.10765 5.7411 10
62 1 -5.15699 -6.84671 -0.665018 18
63 1 -3.30779 -9.81003 -1.0001 12
64 1 -4.67623 -8.60364 2.0721 13
65 1 -5.19931 -6.97679 4.58218 15
66 1 -3.26939 -9.80265 4.91766 7
67 1 -5.28258 -1.03952 -0.812791 23
68 1 -3.43386 -3.91388 -0.695595 24
69 1 -3.31315 -5.67828 2.02943 25
70 1 -5.1121 -2.83332 1.74434 20
71 1 -5.32125 -0.987469 4.10628 21
72 1 -3.48278 -3.64309 4.62674 23
73 1 -3.90523 -5.31704 7.12574 17
74 1 -5.76571 -2.95282 7.23355 19
75 1 -5.39191 -1.02864 9.10468 11
76 1 -3.89416 -3.77534 9.9961 13
77 1 -1.8442 -6.83027 -0.640421 25
78 1 0.00605337 -9.63122 -1.62971 15
79 1 -1.59509 -9.01279 1.48744 16
80 1 -1.91566 -6.79178 4.88324 20
81 1 0.205647 -9.40399 4.18737 11
82 1 -2.20195 -6.4965 8.83101 11
83 1 -2.02082 -0.862388 -0.514349 25
84 1 -0.47378 -3.95703 -0.704672 22
85 1 -0.290715 -5.7067 2.17876 24
86 1 -1.84954 -2.8552 2.10383 23
87 1 -1.94468 -0.97737 4.53022 24
88 1 -0.202824 -3.91873 4.70727 23
89 1 -0.242256 -5.8935 7.31496 18
90 1 -2.11019 -3.04454 7.2164 22
91 1 -1.97353 -0.850629 9.60726 15
92 1 -0.24179 -3.79558 9.46554 14
93 2 -10.3195 -2.31878 1.02681 11
94 2 -6.88022 -5.87266 -0.436236 13
95 2 -6.70006 -5.88033 3.91684 15
96 2 -8.56929 -2.86883 3.95867 15
97 2 -7.93917 -1.1752 1.07675 22
98 2 -6.68647 -3.94398 1.54685 19
99 2 -8.79151 -1.31459 6.26654 11
100 2 -7.2978 -3.88452 6.16491 15
101 2 -4.49607 -8.71411 3.94488 12
102 2 -4.98367 -6.79442 1.58659 18
103 2 -3.58196 -9.26562 0.794518 13
104 2 -5.50197 -6.2374 6.43686 14
105 2 -3.45228 -5.67759 4.15105 23
106 2 -4.99164 -2.8966 3.71128 24
107 2 -5.22549 -0.889277 1.34644 25
108 2 -3.36978 -3.70108 1.20493 23
109 2 -3.7327 -5.45373 9.15994 13
110 2 -5.27059 -2.90513 9.17322 13
111 2 -5.65099 -1.01456 7.14348 17
112 2 -3.99404 -3.31206 6.50406 22
113 2 -1.46562 -8.66884 4.99863 12
114 2 -1.82664 -6.83844 1.41219 22
115 2 0.0530004 -9.57342 2.26549 13
116 2 -2.16268 -6.39175 6.89928 17
117 2 -0.131036 -5.88621 4.14685 20
118 2 -1.74237 -2.87797 4.10032 23
119 2 -1.85922 -0.914898 1.54349 21
120 2 -0.304998 -3.79426 1.33481 24
121 2 -0.528304 -5.61371 9.28158 11
122 2 -2.08073 -2.9053 9.28145 18
123 2 -2.0838 -0.964815 6.62817 23
124 2 -0.233064 -3.75094 6.78726 24
125 1 -10.4259 -0.785116 -3.25319 11
126 1 -6.9841 -0.812664 -8.20572 11
127 1 -8.90048 4.62447 -5.40221 9
128 1 -6.58708 2.07104 -6.35957 18
129 1 -6.76387 0.145817 -3.36402 22
130 1 -8.75007 1.94918 -4.60689 13
131 1 -6.50351 6.31794 -3.3117 16
132 1 -3.71371 0.209395 -8.83993 18
133 1 -4.04381 3.63866 -8.70102 13
134 1 -5.28873 5.01837 -5.72421 18
135 1 -3.62675 1.86184 -6.22895 21
136 1 -3.66255 0.187738 -3.3031 23
137 1 -5.27953 2.86854 -3.42322 24
138 1 -2.85933 6.36675 -8.04014 12
139 1 -3.60325 7.57122 -5.93637 13
140 1 -3.32816 5.69333 -3.13614 22
141 1 -4.46348 9.11938 -3.42575 12
142 1 0.0156899 -0.422709 -8.76902 18
143 1 -1.90305 1.40181 -10.5664 10
144 1 -1.85893 4.60908 -5.8033 27
145 1 -0.0268276 1.99752 -6.39235 21
146 1 -0.492731 0.0564899 -3.38203 23
147 1 -1.83549 2.6985 -3.35167 24
148 1 -1.05459 3.87651 -8.72208 17
149 1 -0.323702 7.9025 -5.95798 17
150 1 -0.149309 5.8484 -3.26443 24
151 1 -1.65445 8.78132 -3.03778 15
152 2 -10.2782 -2.73307 -3.16313 10
153 2 -10.0109 -0.233387 -1.46017 15
154 2 -6.77242 0.187692 -6.47194 18
155 2 -8.25543 2.93884 -6.31814 10
156 2 -6.85204 -0.144122 -1.44215 23
157 2 -8.62099 2.73116 -0.75846 17
158 2 -9.32807 3.65801 -3.8064 11
159 2 -6.77939 1.93582 -4.17942 24
160 2 -7.20679 5.67479 -5.25067 14
161 2 -7.34766 5.34429 -1.75271 18
162 2 -5.65432 7.87669 -2.67719 16
163 2 -3.55754 -0.0154286 -6.84637 21
164 2 -4.99741 3.2275 -7.04204 19
165 2 -3.4351 2.06729 -9.73636 12
166 2 -3.6219 -0.0430861 -1.06947 23
167 2 -5.14088 2.79002 -1.34621 24
168 2 -5.03752 4.87834 -3.73293 19
169 2 -3.57678 1.80653 -4.24299 24
170 2 -3.63323 5.73856 -6.36092 18
171 2 -3.50329 5.65518 -1.18006 22
172 2 -4.66042 9.22886 -0.248964 14
173 2 -3.12017 7.60163 -3.96025 19
174 2 -0.204674 -0.135066 -6.85759 20
175 2 -1.91489 2.56517 -6.69201 20
176 2 -2.54524 4.82719 -9.01435 14
177 2 -0.344659 1.99254 -9.85812 16
178 2 -0.420704 0.219723 -1.36176 24
179 2 -2.00002 2.81489 -1.29198 24
180 2 -1.71026 4.63558 -3.83805 19
181 2 -0.24809 1.91645 -3.96123 24
182 2 -0.354615 5.30611 -6.84039 20
183 2 -2.02597 7.88952 -7.04054 11
184 2 -0.290948 5.90324 -1.30437 25
185 2 -1.59736 8.7015 -0.972651 19
186 2 -3.01782 10.211 -2.74561 10
187 2 -0.26827 7.76375 -4.11583 22
188 1 -10.2984 1.54185 -0.813763 12
189 1 -10.7429 -0.541464 1.55454 12
190 1 -10.2752 1.78666 2.9986 10
191 1 -8.72232 4.1014 -2.09325 16
192 1 -6.70393 1.85639 -0.868187 23
193 1 -6.79208 0.106725 1.82669 23
194 1 -8.40824 3.04864 1.31772 17
195 1 -8.35257 4.62985 3.3589 13
196 1 -7.25152 2.0634 4.52237 19
197 1 -7.46655 -0.0502723 6.98303 13
198 1 -6.36225 8.46968 -0.893247 12
199 1 -7.49044 5.90706 0.212573 14
200 1 -6.10545 6.95158 2.5987 15
201 1 -5.72447 5.07327 8.66181 7
202 1 -5.31764 4.82233 -0.912096 23
203 1 -3.57878 1.95158 -0.743925 24
204 1 -3.5979 0.0541608 2.00491 24
205 1 -5.15315 2.86593 2.01137 25
206 1 -5.2515 4.72843 4.65261 20
207 1 -3.63469 1.92077 4.50918 23
208 1 -3.78518 -0.108701 6.92989 21
209 1 -5.40742 2.85035 7.07711 17
210 1 -4.02956 1.85906 9.52998 13
211 1 -3.32259 7.51251 -0.387944 24
212 1 -3.56622 5.61828 1.63869 22
213 1 -4.40832 9.48539 1.69252 14
214 1 -3.42974 7.47712 3.97833 16
215 1 -3.64881 5.99614 7.00916 16
216 1 -1.77739 4.65631 -0.730684 23
217 1 -0.228549 2.07898 -0.593648 24
218 1 -0.152146 0.160749 2.11388 24
219 1 -1.93181 2.89284 1.98579 22
220 1 -1.81713 4.66999 4.58121 23
221 1 -0.0766356 1.84411 4.63033 25
222 1 -0.426153 0.0111587 7.12011 23
223 1 -2.13689 2.87594 7.10991 23
224 1 -2.25166 4.98893 9.21472 13
225 1 -0.33165 1.98861 9.51979 15
226 1 -2.8143 10.3397 -0.755113 11
227 1 -0.0091214 7.74707 -0.602048 24
228 1 -0.286957 5.81966 1.86635 22
229 1 -1.54412 8.74884 2.25336 18
230 1 0.291892 7.68386 4.05773 20
231 1 -0.167868 5.96742 7.11914 20
232 1 -1.68398 8.66172 6.11726 11
233 2 -10.1646 -0.146117 3.38483 14
234 2 -10.2544 1.31425 1.05885 13
235 2 -6.94657 0.133162 3.86699 22
236 2 -8.91243 2.85278 3.51031 14
237 2 -8.46925 5.03831 1.52385 14
238 2 -6.68821 2.05272 1.23185 22
239 2 -6.83401 1.67141 6.395 16
240 2 -6.71236 5.39812 3.78875 17
241 2 -6.73143 7.58338 0.929518 15
242 2 -3.58157 0.131943 4.01627 24
243 2 -5.38237 2.79342 4.12551 21
244 2 -5.54294 5.1344 0.941736 23
245 2 -3.53601 1.91403 1.30391 24
246 2 -3.8044 -0.086008 9.40589 13
247 2 -5.2668 3.10831 9.01392 12
248 2 -5.2137 4.836 6.78421 15
249 2 -3.83349 1.85637 6.5347 22
250 2 -3.52421 5.56141 3.81394 22
251 2 -4.76512 8.60267 3.25905 13
252 2 -3.02535 7.54643 1.59897 21
253 2 -3.97552 5.62766 8.90897 12
254 2 -3.25972 7.45768 6.01519 13
255 2 -0.0653125 -0.0489234 4.12512 23
256 2 -2.03255 2.81287 4.11115 23
257 2 -1.84669 4.78876 1.13822 24
258 2 -0.327436 1.97504 1.39665 25
259 2 -0.179419 0.0643818 9.08355 19
260 2 -2.18658 2.73055 9.25719 17
261 2 -1.86941 4.74935 6.68783 23
262 2 -0.382435 1.95589 6.60018 23
263 2 -0.27279 5.70422 3.85535 25
264 2 -1.49649 8.59138 4.07676 17
265 2 -2.45362 10.1698 1.01739 12
266 2 0.198089 7.77431 1.27075 21
267 2 -0.467438 5.43465 8.87022 14
268 2 0.0656471 7.90612 6.13129 14
269 1 1.11485 -6.24867 -6.35961 20
270 1 1.0293 -8.39188 -4.45575 17
271 1 1.42542 1.88552 -10.318 11
272 1 3.57567 -5.09944 -9.05412 11
273 1 1.7337 -2.15222 -10.582 10
274 1 1.5039 -0.813155 -5.9522 22
275 1 2.98925 -3.66792 -5.98087 24
276 1 2.85379 -5.63125 -3.43693 23
277 1 1.33255 -2.77182 -3.24628 24
278 1 4.6649 -6.09855 -6.65892 14
279 1 3.91934 -8.7438 -4.63941 13
280 1 4.27651 -2.71504 -8.41442 18
281 1 4.75971 -0.827432 -5.82207 22
282 1 6.99999 -4.15016 -7.2522 10
283 1 5.75909 -5.75332 -3.95969 18
284 1 4.49569 -2.83327 -3.20925 22
285 1 7.64007 -1.47127 -5.90924 12
286 1 7.83538 -3.13052 -3.07405 19
287 2 0.712799 -8.24788 -6.47204 13
288 2 5.19082 -9.59239 -3.69042 9
289 2 1.18065 -6.32278 -4.36349 21
290 2 2.48115 -9.18276 -3.49456 15
291 2 2.76589 -5.44658 -7.22953 18
292 2 1.34757 -2.76301 -6.42982 21
293 2 1.70968 -0.311508 -10.0093 13
294 2 2.63826 -3.45439 -9.40349 13
295 2 2.7873 -5.64126 -1.34138 22
296 2 1.00728 -2.94019 -1.35825 25
297 2 1.37554 -0.964421 -3.94766 22
298 2 2.79141 -3.85465 -4.01951 24
299 2 4.66296 -8.83172 -1.03348 13
300 2 4.08338 -6.75808 -4.72838 18
301 2 5.34019 -4.75312 -8.26703 11
302 2 4.15493 -2.36304 -6.63191 22
303 2 4.7255 -0.913922 -9.1161 15
304 2 6.06029 -3.9913 -3.03924 17
305 2 4.22639 -2.72581 -1.31048 20
306 2 4.70579 -0.924397 -3.81683 24
307 2 6.41972 -5.42275 -5.89288 13
308 2 6.10828 -7.01838 -2.49477 16
309 2 7.10351 -2.28354 -7.61611 12
310 2 7.72409 -5.74605 -0.436176 16
311 2 8.05687 -2.53341 -0.872813 23
312 2 7.7828 -1.55867 -4.00602 17
313 2 9.38571 -4.8496 -2.76285 13
314 1 1.26082 -6.66291 -0.676653 23
315 1 3.10351 -9.62854 -1.63825 13
316 1 1.54274 -8.64065 1.0905 18
317 1 1.76506 -6.8282 4.87661 20
318 1 3.66536 -9.37811 4.02982 10
319 1 5.83396 -8.63365 6.57673 5
320 1 1.16621 -0.895814 -0.784622 24
321 1 2.85955 -3.81691 -0.626451 25
322 1 3.21968 -5.88286 1.84172 22
323 1 1.38173 -2.83492 2.00567 24
324 1 1.51105 -1.06261 4.60626 24
325 1 3.16036 -4.08954 4.58356 19
326 1 3.19425 -5.61125 7.63312 15
327 1 1.39455 -2.70476 7.11085 22
328 1 1.32801 -0.951055 9.88976 16
329 1 3.39386 -3.28151 10.0043 12
330 1 4.52389 -6.7356 -1.2267 21
331 1 6.25994 -8.99113 -2.2702 11
332 1 4.66257 -8.83843 0.903741 13
333 1 5.15504 -6.6343 3.92689 17
334 1 4.37772 -0.920831 -0.619254 23
335 1 6.2451 -3.57828 -0.757749 23
336 1 6.58415 -5.61879 1.38524 15
337 1 4.68673 -2.88958 1.97017 26
338 1 4.50147 -1.21579 4.60372 21
339 1 6.37686 -3.53876 4.83918 19
340 1 6.04874 -5.38157 8.16287 10
341 1 4.55574 -2.64352 7.58708 21
342 1 5.29204 -0.226216 9.63494 13
343 1 8.15584 -6.31063 -2.44254 12
344 1 8.67682 -4.99701 3.30235 11
345 1 7.70018 -0.51691 -0.657282 25
346 1 10.8589 -3.74338 -2.36322 10
347 1 8.98183 -4.21077 -0.111584 19
348 1 7.87018 -2.63354 2.05696 24
349 1 7.97132 -0.932346 4.35151 16
350 1 11.1445 -3.05929 1.40478 11
351 1 7.96686 -2.26609 7.8296 11
352 1 10.7263 -1.19021 -0.824335 14
353 2 1.97241 -8.85571 4.64581 13
354 2 1.34229 -6.6739 1.42007 23
355 2 3.20405 -9.26206 2.15388 16
356 2 1.64929 -6.24483 6.76277 14
357 2 3.2938 -6.06842 3.81431 20
358 2 1.60218 -3.03575 4.13863 23
359 2 1.32714 -0.904146 1.17922 25
360 2 2.88586 -3.93875 1.50173 20
361 2 4.57573 -4.36301 8.95817 10
362 2 1.53275 -2.8357 9.04546 18
363 2 1.33264 -0.742695 6.60782 23
364 2 3.08056 -3.86104 6.66977 24
365 2 5.08507 -8.48636 4.86614 9
366 2 4.86028 -6.7405 1.01365 20
367 2 5.09504 -6.91478 7.31942 9
368 2 6.75652 -5.70134 3.48025 15
369 2 4.71951 -3.03151 3.88627 24
370 2 4.5498 -0.96811 1.44052 23
371 2 6.25474 -3.67079 1.32329 23
372 2 4.00803 -1.63089 9.33811 16
373 2 4.58597 -0.859862 6.49787 24
374 2 6.6125 -3.94087 6.7564 14
375 2 9.47659 -3.97153 1.80201 14
376 2 7.98988 -3.06074 3.94005 16
377 2 7.92617 -0.713207 1.3519 22
378 2 10.7601 -3.35347 -0.457554 13
379 2 7.75007 -1.13268 6.33114 14
380 2 11.0798 -1.23456 1.30068 12
381 1 3.18033 0.12971 -8.73355 20
382 1 2.51981 3.99249 -8.2217 17
383 1 1.46726 4.81139 -5.86248 25
384 1 3.26498 1.94098 -6.04013 21
385 1 2.99192 0.072278 -3.44599 24
386 1 1.39164 3.06003 -3.25336 25
387 1 0.409276 6.28396 -8.28288 14
388 1 3.23791 7.43297 -6.45219 13
389 1 2.95806 5.8649 -3.50637 25
390 1 1.44525 8.70017 -3.5234 18
391 1 6.51567 -0.682539 -8.48838 13
392 1 5.06649 2.55156 -8.82758 14
393 1 5.09808 4.71561 -6.04225 18
394 1 6.7175 1.88442 -6.51496 16
395 1 6.37941 -0.022678 -3.43347 21
396 1 4.6554 3.05731 -3.54429 23
397 1 5.99343 6.36746 -3.6164 15
398 1 4.4352 9.01224 -3.91058 11
399 1 8.43933 4.81722 -5.30315 9
400 1 9.4997 -0.657784 -3.8879 14
401 1 8.12227 2.7024 -3.4916 14
402 2 3.04741 0.0225389 -6.76684 23
403 2 1.63391 2.94756 -6.67398 24
404 2 0.916919 4.53988 -9.11771 13
405 2 3.05627 2.09011 -9.11562 14
406 2 2.80519 0.107213 -1.37755 24
407 2 1.3779 3.02484 -1.37388 25
408 2 1.19456 4.77164 -4.09203 23
409 2 3.14324 1.94837 -3.93685 23
410 2 3.29006 5.53868 -6.86913 17
411 2 1.18634 7.61508 -6.97022 11
412 2 2.89378 6.04882 -1.47439 22
413 2 1.58252 8.53963 -1.30988 19
414 2 2.86151 10.0008 -3.15407 9
415 2 3.22129 7.6722 -4.48765 18
416 2 6.4052 -0.0305724 -6.10105 18
417 2 4.86651 2.9496 -6.81378 19
418 2 6.75581 1.44007 -8.54815 10
419 2 5.92969 0.034857 -1.16145 21
420 2 4.51032 3.07023 -1.47897 21
421 2 4.64373 4.99573 -4.09625 22
422 2 6.39886 1.85242 -3.17545 19
423 2 6.65295 5.7508 -5.56775 13
424 2 6.13407 5.71441 -1.55227 19
425 2 5.89054 7.95789 0.413847 14
426 2 5.78032 8.21963 -2.79764 12
427 2 7.81334 2.89005 -5.38729 13
428 2 10.4513 -1.86872 -2.70328 12
429 2 8.25933 3.20082 -0.851091 17
430 2 8.31407 4.67707 -3.33764 14
431 2 9.46382 1.16412 -3.06695 14
432 2 7.96446 5.63287 0.466271 14
433 1 1.53169 4.90585 -0.688788 24
434 1 2.94833 1.98775 -0.625637 25
435 1 2.91009 0.0470453 2.0206 24
436 1 1.32866 2.97836 2.00476 26
437 1 1.47011 4.81161 4.61572 25
438 1 3.14711 1.8249 4.68812 25
439 1 3.0208 0.213288 7.2507 23
440 1 1.23889 2.96768 7.22824 25
441 1 1.24446 4.87971 9.75509 10
442 1 3.0197 2.08311 10.1404 14
443 1 2.3379 10.2789 -1.28824 9
444 1 3.19735 7.69899 -0.544323 24
445 1 2.98492 5.52688 2.15078 25
446 1 1.79717 8.71529 1.7517 15
447 1 3.66309 7.5963 4.30885 15
448 1 3.25538 5.80407 7.1809 17
449 1 1.68741 8.85286 6.35052 9
450 1 4.53602 4.8998 -0.881761 23
451 1 6.26917 1.98047 -1.18183 21
452 1 6.22281 0.0659127 1.95508 23
453 1 4.74487 3.0854 1.93403 20
454 1 4.61773 4.75099 4.79166 25
455 1 6.37017 1.92242 4.51807 23
456 1 6.37609 0.0502963 7.09176 16
457 1 4.80245 2.55053 7.19641 19
458 1 6.63183 7.64422 -1.3467 12
459 1 6.19436 6.2146 1.34026 20
460 1 4.77116 8.96942 1.52963 13
461 1 6.66199 7.53321 4.07966 13
462 1 6.12384 5.58853 7.24832 13
463 1 8.08275 5.02685 -1.40701 15
464 1 9.77214 1.95662 -1.38798 14
465 1 9.85104 -0.0818759 1.7985 14
466 1 7.64622 3.19935 1.0628 20
467 1 7.9271 4.99915 4.60786 17
468 1 9.47081 2.45928 3.59631 10
469 1 8.31145 3.01763 6.63669 10
470 1 9.05624 5.62688 1.83366 10
471 2 2.93379 0.0163618 4.0038 24
472 2 1.48646 2.86454 4.10229 24
473 2 1.22377 4.61754 1.30665 24
474 2 3.03804 1.89373 1.38068 24
475 2 2.21075 0.482689 10.5153 11
476 2 1.27566 2.94871 9.27073 16
477 2 1.43242 4.82897 6.50659 22
478 2 2.89386 2.11934 6.57683 22
479 2 3.10005 5.76701 4.13312 22
480 2 2.07254 8.63445 3.80612 17
481 2 3.29623 9.64333 0.409018 12
482 2 3.05747 7.24498 1.45607 21
483 2 2.77689 5.58587 9.02413 11
484 2 3.1041 7.58105 6.42458 16
485 2 6.14646 -0.0150219 4.1672 22
486 2 4.69059 2.95882 4.0062 23
487 2 4.57544 4.92875 1.12231 23
488 2 6.15388 2.12668 1.11988 21
489 2 6.62392 -0.939958 8.82952 11
490 2 4.37835 1.40958 8.84806 15
491 2 4.69349 4.47236 6.84927 20
492 2 6.58933 1.95235 6.55154 20
493 2 6.00087 6.23654 5.22783 15
494 2 5.13175 8.19449 3.1864 16
495 2 7.63219 6.18751 3.13782 14
496 2 9.22284 0.521348 3.59787 14
497 2 7.87634 3.06491 4.70212 16
498 2 9.16541 3.67551 2.1317 14
499 2 9.55405 0.431777 -0.239021 16
500 2 7.77857 4.89547 6.55571 12
