ITEM: TIMESTEP
353000
ITEM: NUMBER OF ATOMS
500
ITEM: BOX BOUNDS pp pp pp
-30.0 30.0
-30.0 30.0
-30.0 30.0
ITEM: ATOMS id type x y z Coordination
1 1 -10.0065 -1.58709 -6.87126 9
2 1 -7.10843 -5.18092 -4.18536 17
3 1 -5.58905 -6.51552 -1.3581 18
4 1 -8.56128 -1.81788 -4.41105 13
5 1 -5.43973 -6.3701 -6.85039 13
6 1 -3.73359 -9.33653 -5.6022 12
7 1 -5.4445 -1.85709 -9.87939 8
8 1 -6.67555 -3.45501 -6.39001 16
9 1 -5.16678 -1.02848 -5.88751 22
10 1 -3.43375 -3.9523 -6.03807 18
11 1 -3.28647 -5.78824 -3.54857 24
12 1 -5.54424 -2.80232 -3.48017 19
13 1 -1.84182 -6.46529 -6.24821 18
14 1 -0.217662 -9.2715 -6.46195 12
15 1 -1.47816 -9.04906 -3.58118 17
16 1 -2.39413 -2.98894 -8.42208 12
17 1 -3.0812 -0.252639 -10.6549 9
18 1 -1.98482 -0.720615 -5.98143 24
19 1 -0.489767 -3.60571 -6.07813 20
20 1 -0.305402 -5.60099 -3.53731 21
21 1 -1.82205 -2.82534 -3.43755 25
22 2 -8.17431 -2.05333 -6.35706 16
23 2 -6.35869 -2.47611 -8.17268 14
24 2 -6.16122 -6.35951 -3.06886 17
25 2 -7.04121 -3.73159 2.41108 19
26 2 -9.22776 -0.773675 -2.93721 13
27 2 -7.41147 -3.36547 -3.20538 19
28 2 -5.26966 -8.1389 -5.59229 11
29 2 -5.40064 -8.37961 -1.54018 13
30 2 -3.59009 -9.52499 -3.8772 11
31 2 -3.86481 -5.80209 -5.82234 17
32 2 -5.00729 -0.00650275 -9.92722 11
33 2 -6.93983 -5.60046 -6.05993 12
34 2 -5.01253 -2.94268 -5.96109 17
35 2 -3.56409 -5.86288 -1.61811 22
36 2 -5.04517 -2.9001 -1.35358 20
37 2 -5.19984 -0.766423 -3.91035 21
38 2 -3.68745 -3.92856 -3.91267 23
39 2 -2.13733 -8.44812 -6.25375 14
40 2 1.40808 -8.90219 -1.19742 17
41 2 -1.85491 -9.06268 -1.55827 16
42 2 -1.70354 -7.04555 -4.05204 22
43 2 0.0857974 -9.91405 -4.74327 14
44 2 -0.115581 -5.49297 -6.38761 18
45 2 -2.01657 -2.4179 -6.68924 20
46 2 -1.95866 1.01347 -9.46887 18
47 2 -3.55078 -2.08405 -9.72312 11
48 2 -0.303318 -5.92433 -1.57764 24
49 2 -1.59047 -2.60228 -1.47246 22
50 2 -1.83357 -0.816284 -3.9345 24
51 2 -0.361172 -3.75645 -3.94317 24
52 1 -10.7568 0.356255 -3.64626 12
53 1 -5.39623 -8.04999 -3.69745 14
54 1 -9.1607 -0.795827 -1.00206 17
55 1 -6.93642 -3.64043 -1.15826 17
56 1 -7.1271 -5.34238 1.51741 15
57 1 -8.36203 -2.37148 1.81512 15
58 1 -8.80691 -0.809656 4.48741 16
59 1 -7.0651 -4.24401 4.51026 18
60 1 -6.22826 -5.82711 7.19286 11
61 1 -7.43828 -2.24158 6.89492 15
62 1 -5.93031 -8.24369 0.431047 13
63 1 -3.74827 -9.27447 -1.94128 16
64 1 -4.50732 -9.70975 2.96018 12
65 1 -5.71103 -7.14583 3.84992 18
66 1 -4.52578 -8.68703 6.33939 12
67 1 -5.32312 -1.0336 -0.963257 21
68 1 -3.28116 -3.88043 -1.09411 22
69 1 -3.69965 -6.15082 1.68856 22
70 1 -5.2081 -3.25821 1.76442 24
71 1 -5.67833 -1.58693 4.92717 21
72 1 -3.35325 -4.47308 4.64438 23
73 1 -2.82725 -6.22364 7.44095 15
74 1 -4.62731 -3.22583 6.99105 21
75 1 -5.67981 -0.984911 8.83543 14
76 1 -2.68883 -2.64534 9.61292 14
77 1 -1.88169 -6.858 -0.923386 23
78 1 -0.347369 -9.40313 -0.383384 15
79 1 -2.37707 -8.58175 1.73986 16
80 1 -2.02638 -7.09652 4.6006 22
81 1 -0.59673 -10.232 3.43071 13
82 1 -0.595652 -8.33787 6.86202 13
83 1 -1.95791 -0.911041 -0.53637 24
84 1 -0.23683 -3.98072 -0.687342 24
85 1 -0.094372 -5.84819 1.75944 22
86 1 -1.96119 -3.14078 1.80712 23
87 1 -1.98836 -1.49717 4.57606 24
88 1 0.069284 -4.3472 4.48914 21
89 1 0.728596 -5.52734 7.35843 19
90 1 -1.71929 -3.44718 7.27334 20
91 1 0.0860008 -0.835672 10.7667 11
92 1 0.908197 -3.43589 9.82177 14
93 2 -9.95487 2.13809 -2.70763 14
94 2 -6.71144 -5.34838 -0.351798 17
95 2 -6.54188 -5.96371 5.20104 16
96 2 -9.15505 0.789054 5.477 13
97 2 -8.83502 -0.562388 2.31665 19
98 2 -8.18443 -2.55226 5.13023 15
99 2 -7.38295 -0.784046 8.0999 14
100 2 -6.35203 -3.86222 7.00435 15
101 2 -5.58725 -9.01239 4.48131 10
102 2 -6.19461 -7.0688 1.8989 15
103 2 -4.3225 -8.80294 1.31966 16
104 2 -4.59382 -7.06754 7.42918 13
105 2 -3.69764 -6.21464 3.66582 24
106 2 -5.09974 -3.7118 4.42476 23
107 2 -5.1911 -1.40164 1.24524 24
108 2 -3.46537 -4.1658 1.05819 23
109 2 -1.03762 -6.36923 6.87646 16
110 2 -4.23182 -2.34852 9.04793 15
111 2 -4.98179 -1.29323 6.79959 22
112 2 -3.26849 -4.49918 6.76882 21
113 2 -2.21748 -8.77181 3.70152 18
114 2 -1.62693 -6.86482 1.1045 21
115 2 -0.584928 -9.48559 1.7315 14
116 2 -2.45933 -8.42715 6.25161 11
117 2 0.15148 -6.04478 3.70162 23
118 2 -1.96874 -3.16358 3.75789 22
119 2 -1.74756 -1.20487 1.41913 23
120 2 0.133781 -3.70183 1.56745 21
121 2 1.26307 -7.52598 6.70298 16
122 2 -0.891495 -3.46774 9.04016 16
123 2 -1.50083 -1.45094 6.68244 22
124 2 0.167453 -3.96789 6.28174 23
125 1 -9.87948 1.26739 -6.8457 11
126 1 -7.39148 -0.721056 -8.2966 13
127 1 -8.13382 4.1774 -6.70103 11
128 1 -6.4917 1.88808 -5.86047 19
129 1 -6.83015 0.0542433 -3.11911 19
130 1 -9.60557 3.32219 -3.94862 15
131 1 -8.85625 6.6435 -4.10796 10
132 1 -4.87542 4.58296 -7.45573 16
133 1 2.65488 -0.976259 -10.8448 9
134 1 -6.26646 5.1772 -4.67226 19
135 1 -3.34089 2.14795 -6.1427 23
136 1 -3.51658 0.162184 -3.5823 21
137 1 -5.10705 2.83539 -3.34125 19
138 1 0.34489 7.0193 -7.30509 14
139 1 -6.44138 8.11657 -4.0441 13
140 1 -3.66252 5.97518 -3.38434 19
141 1 -4.903 10.1891 -2.11309 9
142 1 -2.82707 2.88713 -9.40505 15
143 1 -4.64973 0.929853 -8.45912 17
144 1 -1.75722 4.987 -6.1203 18
145 1 -0.13055 1.93353 -6.18496 22
146 1 -0.0919401 -0.42395 -3.06777 23
147 1 -1.98766 2.92409 -3.3077 21
148 1 -0.514502 -0.393039 -8.94657 16
149 1 -3.79134 10.5825 -5.02379 10
150 1 -0.03378 5.68584 -3.52243 16
151 1 -0.523974 9.22239 -5.22845 12
152 2 -8.16405 -2.53286 -0.131115 16
153 2 -10.1636 -0.0125362 -5.44287 10
154 2 -9.22943 -0.218171 -8.20959 8
155 2 -6.07975 3.81184 -6.08927 16
156 2 -7.18745 -0.147166 -0.937778 21
157 2 -9.26487 5.02332 -3.04956 12
158 2 -9.19969 2.88995 -6.08833 14
159 2 -6.30804 1.62559 -4.01852 20
160 2 -8.16452 5.58809 -5.48926 12
161 2 -6.80427 5.80672 -0.726797 14
162 2 -5.17544 9.47089 -4.31356 11
163 2 -3.96216 0.364461 -6.67407 21
164 2 -6.50091 0.78216 -7.42409 17
165 2 -4.20332 2.91608 -8.14401 15
166 2 -3.42874 -0.0182185 -1.41847 24
167 2 -5.07863 2.78428 -1.05485 22
168 2 -5.11154 4.68011 -3.1444 18
169 2 -3.45421 2.06722 -4.20828 23
170 2 -5.01263 6.85293 -4.56039 17
171 2 -3.50501 5.8108 -0.831197 19
172 2 -7.57462 7.35111 -2.89308 15
173 2 -2.39194 8.74357 -5.68441 13
174 2 -0.214162 0.230863 -7.17004 21
175 2 -1.75259 3.0837 -6.22537 18
176 2 -2.92883 4.63467 -10.2586 9
177 2 1.09219 -0.226892 -9.84094 13
178 2 -0.101692 -0.0592048 -1.24993 23
179 2 -1.88628 2.88839 -1.13014 20
180 2 -1.89457 4.98775 -3.32302 18
181 2 -0.321351 1.81346 -3.98379 22
182 2 -0.17011 5.91192 -5.44478 17
183 2 -0.977415 6.27314 -8.53395 12
184 2 0.442674 6.37355 -1.81287 17
185 2 -1.48884 8.49434 -0.477309 16
186 2 -3.15418 10.8419 -3.14187 10
187 2 -0.335087 10.1366 -3.43093 12
188 1 -9.99505 2.06533 -0.811242 15
189 1 -10.4071 0.212054 1.73837 12
190 1 -9.76583 2.10399 4.46948 11
191 1 -8.71958 4.85136 -1.27941 14
192 1 -6.96217 1.65256 -0.327793 21
193 1 -6.77376 -0.165872 1.63423 23
194 1 -8.69846 3.16007 1.77368 16
195 1 -8.50887 5.39872 4.06321 10
196 1 -6.60984 1.43504 4.76327 22
197 1 -8.3756 0.5669 7.25196 13
198 1 -6.65846 7.83986 -1.04813 14
199 1 -6.5641 5.94644 1.48299 18
200 1 -5.90189 7.4461 5.27427 11
201 1 -6.72791 4.07158 6.26667 12
202 1 -5.15949 4.87716 -1.23078 24
203 1 -3.50774 1.85147 -0.536083 22
204 1 -3.72972 -0.337639 2.24067 22
205 1 -4.93023 2.72469 2.00298 21
206 1 -5.02226 4.67188 4.09237 21
207 1 -3.32286 1.76274 4.75544 24
208 1 -3.20077 -0.571871 6.86139 20
209 1 -5.09975 1.97163 7.25201 15
210 1 -3.01666 0.42638 10.3572 10
211 1 -3.33658 8.00338 -0.793789 16
212 1 -3.42585 5.75309 1.50443 21
213 1 -5.01747 8.76733 1.83658 12
214 1 -3.28552 7.5529 4.37121 17
215 1 -3.22962 5.22872 6.46536 21
216 1 -1.77415 4.93003 -1.31706 21
217 1 -0.192253 1.78303 -0.728229 23
218 1 -0.166081 -0.0730811 1.97962 23
219 1 -1.82473 2.61785 1.76249 23
220 1 -1.49636 4.49123 4.50607 23
221 1 -0.184355 1.51008 4.74988 23
222 1 -0.216204 -0.284374 7.21516 21
223 1 -1.7502 2.85783 7.35309 19
224 1 -1.69795 5.1774 9.5569 10
225 1 0.330521 2.38233 9.95236 14
226 1 -1.59896 10.4055 -2.01162 11
227 1 0.267754 7.9578 -0.753734 18
228 1 -0.182263 5.61916 1.68223 22
229 1 -1.35285 8.28758 1.60079 15
230 1 -0.498868 8.00978 4.59306 17
231 1 -0.327791 6.15369 6.98625 21
232 1 -2.53291 8.12354 7.53662 10
233 2 -9.81036 1.95535 2.64001 15
234 2 -10.7245 0.460592 -0.210634 13
235 2 -6.53884 -0.360707 3.72762 22
236 2 -8.03389 5.11514 2.39288 14
237 2 -8.58257 3.26765 -0.189429 16
238 2 -6.90444 1.74291 1.56387 20
239 2 -6.85946 2.26646 6.50881 16
240 2 -6.59373 5.64958 4.74726 16
241 2 -6.41947 7.82081 0.870406 14
242 2 -3.88402 -0.817733 4.22773 22
243 2 -5.06751 2.31646 3.99227 21
244 2 -4.93303 4.55355 2.0528 19
245 2 -3.47036 1.37866 1.46039 23
246 2 -4.37096 0.855603 9.09376 13
247 2 -8.63083 3.70324 5.03755 13
248 2 -4.80357 3.99059 6.66976 17
249 2 -3.27503 1.36242 6.67854 22
250 2 -3.11872 5.67334 4.58577 23
251 2 -5.25753 8.00906 3.53551 13
252 2 -3.35314 8.13496 1.29471 15
253 2 -2.4594 6.05568 7.95211 14
254 2 -4.04429 7.93627 6.38208 11
255 2 -0.280505 -0.268158 3.82526 23
256 2 -1.73158 2.69517 3.92357 23
257 2 -1.82962 4.57182 1.50065 22
258 2 0.00696677 1.76251 1.17458 23
259 2 -1.88348 -1.01249 10.185 13
260 2 -1.14882 3.34261 9.28773 15
261 2 -0.907522 4.30989 6.46927 21
262 2 -0.482451 1.56396 6.92626 19
263 2 0.149529 5.36657 3.6247 24
264 2 -1.7788 7.83712 3.28582 18
265 2 -4.89818 8.41521 -1.73754 18
266 2 0.465282 7.58359 1.47791 18
267 2 0.231357 5.97019 8.93979 14
268 2 -0.835558 8.04244 6.41271 16
269 1 1.27599 -6.41305 -6.07393 20
270 1 1.24397 -8.76705 -3.50889 18
271 1 1.28889 1.75862 -9.4492 14
272 1 1.04233 -2.956 -8.97122 14
273 1 7.63944 -0.562244 -7.95081 12
274 1 1.13955 -0.991369 -6.4038 21
275 1 3.33118 -3.60175 -6.17071 21
276 1 2.93111 -5.82147 -3.53256 20
277 1 1.57015 -2.77365 -3.61458 24
278 1 2.80753 -9.02113 -7.5264 8
279 1 4.44313 -8.85101 -4.49066 12
280 1 6.72011 -3.70006 -6.76884 13
281 1 5.03897 -1.07031 -5.83558 20
282 1 8.98493 -1.43251 -5.61236 12
283 1 6.87466 -5.76382 -4.09382 15
284 1 4.89084 -3.26393 -3.06672 20
285 1 9.28029 1.70956 -5.88476 11
286 1 8.39043 -3.07665 -3.06928 17
287 2 1.16189 -8.13049 -6.79739 11
288 2 4.32833 -8.35548 -6.40554 9
289 2 1.36211 -6.70163 -3.88711 21
290 2 2.99499 -9.10125 -3.21129 13
291 2 3.19778 -5.51213 -6.37618 14
292 2 1.36465 -3.01299 -6.92332 19
293 2 3.1649 1.92983 -8.81832 14
294 2 -0.782415 -2.29282 -8.99406 14
295 2 3.26468 -6.40949 -1.83346 19
296 2 1.26039 -2.69599 -1.53779 21
297 2 1.20585 -1.06002 -4.36431 24
298 2 3.22446 -3.75292 -4.12802 19
299 2 4.63404 -8.43834 -0.234541 16
300 2 8.3259 -6.60652 -3.16765 11
301 2 5.9659 -0.133205 -7.27235 16
302 2 2.62343 -2.5347 -9.80535 11
303 2 8.80591 0.286212 -6.86611 9
304 2 6.7427 -5.67644 -6.24274 11
305 2 4.65005 -2.95194 -1.15113 22
306 2 5.10447 -1.07696 -3.88426 20
307 2 5.44182 -7.42827 -3.35619 15
308 2 8.25539 -2.48051 -0.920193 20
309 2 5.2855 -2.82968 -7.37075 17
310 2 7.02578 -5.79134 -0.894717 20
311 2 10.3329 -4.00432 -2.5044 11
312 2 9.2178 1.64269 -3.95272 12
313 2 8.64739 -1.18347 -3.71651 16
314 1 1.69449 -6.83456 -0.718381 20
315 1 3.45496 -9.44536 -1.50484 12
316 1 1.26386 -9.01583 1.83142 19
317 1 1.20358 -7.28639 4.68853 21
318 1 2.83331 -9.87602 3.95655 11
319 1 3.15517 -8.1484 6.89517 12
320 1 1.54431 -0.892319 -0.621147 24
321 1 2.99314 -3.62434 -0.23409 22
322 1 2.96646 -5.97272 2.10604 22
323 1 1.60751 -2.83784 2.46103 23
324 1 1.49444 -1.15973 4.88101 24
325 1 3.29177 -4.3475 4.55327 23
326 1 5.633 -5.80368 7.00878 15
327 1 1.6724 -3.00445 7.00367 20
328 1 3.32299 -2.70466 11.2698 10
329 1 5.75649 -0.443524 9.92962 13
330 1 5.30578 -6.58592 -1.53017 21
331 1 4.98984 -6.42706 -6.71101 12
332 1 4.79208 -8.73666 1.49569 13
333 1 4.90883 -7.15756 4.23275 15
334 1 5.02033 -0.948162 -0.716623 21
335 1 6.81208 -3.71736 -0.757438 23
336 1 6.49688 -5.98028 1.13701 17
337 1 4.74763 -2.87884 1.98461 21
338 1 4.71594 -1.31971 4.83667 20
339 1 6.52035 -3.5738 5.32116 18
340 1 3.61114 -5.55184 9.2319 13
341 1 4.51205 -2.96295 7.83133 21
342 1 2.83877 -0.0786005 10.3356 14
343 1 10.0146 -5.56957 0.845962 13
344 1 7.7083 -5.73952 3.78572 13
345 1 10.3264 -3.16016 -0.865971 15
346 1 8.21238 -7.27451 -1.48455 12
347 1 11.2941 -2.31287 2.05827 11
348 1 8.08357 -3.0784 2.07127 22
349 1 6.38192 2.02761 4.74101 18
350 1 9.63603 -3.13961 5.02794 9
351 1 7.98845 -3.04992 8.11149 10
352 1 10.2267 -5.91729 -2.68681 9
353 2 0.831388 -9.22276 4.05325 15
354 2 1.31229 -6.92648 1.37826 21
355 2 3.10021 -9.6915 2.03095 15
356 2 1.60663 -5.00717 9.20007 14
357 2 3.05121 -6.37164 4.06897 24
358 2 1.6345 -3.04851 4.49431 20
359 2 1.4912 -1.26287 1.60016 21
360 2 3.14096 -3.85327 1.70838 18
361 2 3.80255 -3.60501 9.41051 15
362 2 1.53866 -1.82243 10.6032 11
363 2 1.60748 -1.036 6.67611 18
364 2 3.32338 -3.8804 6.66428 22
365 2 3.73725 -8.64658 5.03782 12
366 2 5.41139 -6.93025 2.34609 15
367 2 4.09315 -6.65985 7.46827 15
368 2 6.39608 -5.65559 5.24228 14
369 2 4.81873 -3.0069 4.04218 24
370 2 4.82665 -1.01639 1.33218 26
371 2 6.06554 -3.93409 0.973009 19
372 2 4.36405 -1.1355 10.908 10
373 2 4.94968 -1.08021 6.97281 22
374 2 6.07976 -3.7478 7.23558 17
375 2 10.3042 -1.93239 3.74116 10
376 2 8.52742 -2.61069 6.39024 12
377 2 7.9226 -0.934163 2.0654 20
378 2 8.41253 -5.79089 2.04033 13
379 2 8.02929 -3.73984 3.91245 16
380 2 10.3043 -3.66383 1.06737 14
381 1 4.28179 0.615074 -8.3373 16
382 1 -0.182655 5.15009 -10.0655 9
383 1 1.54474 4.99522 -5.6277 20
384 1 3.15709 1.79417 -6.00434 22
385 1 3.45127 -0.0504959 -3.38432 22
386 1 1.33672 2.54458 -3.32961 22
387 1 -2.74706 6.12992 -9.16271 10
388 1 3.8224 6.60957 -7.73738 11
389 1 3.42133 5.80031 -3.08433 20
390 1 -3.70519 7.268 -5.90943 15
391 1 4.43131 -2.59503 -9.15775 13
392 1 2.80868 3.68653 -8.05425 14
393 1 5.27588 4.78869 -6.1023 20
394 1 6.4769 1.88939 -6.7146 16
395 1 6.99841 -0.769139 -2.78784 18
396 1 4.5949 3.16215 -3.60199 20
397 1 5.87163 7.81924 -6.10585 12
398 1 2.76351 8.51478 -5.34175 15
399 1 7.99701 5.04512 -5.93005 11
400 1 8.48961 -0.612407 0.126003 21
401 1 8.45473 3.28273 -3.30671 14
402 2 3.21638 -0.281488 -6.39722 19
403 2 1.76499 3.04288 -6.14913 20
404 2 2.12023 5.9834 -7.1422 15
405 2 0.62379 3.62562 -9.45214 12
406 2 3.16946 -0.130178 -1.37699 23
407 2 1.5954 2.59524 -1.32693 21
408 2 1.81053 4.63558 -3.58739 17
409 2 3.17145 1.64401 -3.9574 19
410 2 4.28997 4.78631 -7.71249 14
411 2 -3.34917 5.8234 -7.16131 17
412 2 3.32599 5.70971 -1.13951 18
413 2 1.8338 9.18048 -1.29849 13
414 2 0.89168 8.37062 -6.18706 14
415 2 4.02078 7.87406 -6.44029 15
416 2 7.63369 -2.12921 -6.69754 12
417 2 5.08482 2.7477 -5.87531 17
418 2 4.29927 -0.709392 -9.77554 11
419 2 6.91761 -0.0573069 -1.1394 19
420 2 4.88356 2.91923 -1.58972 22
421 2 4.95852 5.17123 -4.00151 19
422 2 6.66372 -3.9483 -3.3503 18
423 2 6.45714 6.19193 -6.28002 12
424 2 7.50859 6.45498 -1.61836 13
425 2 5.0653 8.42007 -1.04974 14
426 2 5.96625 8.0162 -4.05048 14
427 2 8.0901 3.29391 -6.23829 10
428 2 9.90049 -6.53992 -0.693431 10
429 2 7.85778 4.68907 1.35121 16
430 2 7.96213 4.96012 -4.15365 14
431 2 7.8064 3.08196 -1.55962 16
432 2 7.75762 3.17066 4.23018 17
433 1 1.60515 4.84067 -0.952807 19
434 1 3.34377 1.81063 -0.775963 24
435 1 3.10702 -0.151886 2.02758 22
436 1 1.70861 2.86936 1.86664 22
437 1 1.35709 4.26745 4.33826 20
438 1 3.28735 1.77086 4.41961 22
439 1 3.25528 -0.093161 7.17376 21
440 1 1.08593 3.14042 6.69857 22
441 1 2.05404 5.2751 8.81717 17
442 1 4.01948 2.83627 9.70883 14
443 1 1.63919 9.97892 -3.02369 11
444 1 3.25184 7.85005 -0.612102 19
445 1 3.30232 5.46214 1.85476 23
446 1 2.02476 7.97965 2.62227 17
447 1 2.88851 9.19305 5.01587 11
448 1 2.43229 6.37592 5.5424 21
449 1 2.26179 8.02608 8.4408 11
450 1 4.89866 4.73448 -0.545292 24
451 1 6.72242 1.84691 -0.61383 21
452 1 6.21057 0.0131053 2.36571 23
453 1 4.99833 2.74806 2.25049 24
454 1 4.62333 4.80858 4.40975 20
455 1 4.51488 2.80841 6.77963 19
456 1 6.70033 -0.243914 6.67958 16
457 1 4.90156 5.65322 7.69453 15
458 1 6.9891 6.47353 -3.5035 15
459 1 6.63219 5.74801 2.34373 16
460 1 6.71563 7.85452 -0.369097 14
461 1 4.92313 8.79014 2.10705 12
462 1 5.65136 7.72096 5.10364 13
463 1 8.22324 4.8093 -0.57349 15
464 1 9.56217 0.222638 -2.81201 16
465 1 10.5756 1.13538 0.588591 9
466 1 8.11093 2.97616 2.27226 16
467 1 8.09423 5.07207 4.83078 11
468 1 9.36585 -0.315593 3.22905 15
469 1 7.47819 3.24011 7.62227 9
470 1 5.20217 9.34204 -2.95574 13
471 2 3.25652 -0.162569 3.9726 24
472 2 1.46682 2.38751 3.83251 23
473 2 1.52923 4.68776 0.924057 24
474 2 3.40722 2.04681 1.40821 22
475 2 1.08191 0.755156 10.2543 13
476 2 2.12762 3.48385 9.68645 14
477 2 1.98631 4.95266 6.58573 21
478 2 2.79586 1.93082 6.47849 22
479 2 2.90065 5.00803 3.65972 21
480 2 1.24107 8.4835 4.30262 14
481 2 3.4034 9.51487 -3.7883 12
482 2 3.48087 7.37006 1.5305 19
483 2 3.44688 6.64295 9.19909 11
484 2 2.57685 8.45058 6.72541 14
485 2 6.25892 0.0139867 4.65545 20
486 2 4.68015 2.90649 4.45437 22
487 2 5.19747 4.62769 1.36014 22
488 2 6.5946 1.87589 1.31058 23
489 2 7.0847 -1.13584 8.55137 10
490 2 4.41788 0.925285 9.11706 14
491 2 4.4137 6.18884 5.81547 19
492 2 4.96084 3.8578 8.38107 13
493 2 4.28873 8.65219 3.85 14
494 2 6.35708 7.56173 1.52908 15
495 2 6.5181 5.98573 4.4164 16
496 2 10.5012 -0.878565 0.836656 13
497 2 6.42262 1.79599 6.74847 17
498 2 9.62143 1.53829 2.27239 12
499 2 9.63344 0.570251 -0.904477 16
500 2 7.97899 5.09926 6.89359 9
