ITEM: TIMESTEP
488000
ITEM: NUMBER OF ATOMS
500
ITEM: BOX BOUNDS pp pp pp
-30.0 30.0
-30.0 30.0
-30.0 30.0
ITEM: ATOMS id type x y z Coordination
1 1 -1.3928 1.70594 -3.70008 23
2 1 -8.59756 -6.21903 0.478093 12
3 1 -6.56662 -2.97339 5.33165 15
4 1 -5.48072 -2.01792 -8.75853 10
5 1 -5.36653 8.63781 -5.66453 13
6 1 -3.23869 -3.89002 -7.42781 14
7 1 -5.19353 3.82879 -10.3749 10
8 1 -7.50283 -4.40937 -2.53289 18
9 1 -7.66334 -1.07822 -1.2168 18
10 1 -6.42821 -2.9874 -6.49079 17
11 1 -0.610364 -9.52499 -3.5544 11
12 1 -3.28556 -1.37292 9.21107 14
13 1 5.87857 -6.85184 -4.33854 13
14 1 -11.1085 -9.15166 2.859 5
15 1 -5.48089 -2.54188 -2.83034 22
16 1 -6.16862 1.3867 -1.04068 20
17 1 3.74857 -4.6831 -9.86199 9
18 1 7.07882 5.94276 -1.66163 11
19 1 -7.14196 2.60028 -7.41524 12
20 1 -5.53568 -5.79892 -7.7904 11
21 1 -1.91818 -10.0277 5.37021 11
22 2 -0.541001 -5.92914 -8.1269 12
23 2 -2.16121 -3.35823 -5.79486 18
24 2 -9.149 0.697126 4.86778 11
25 2 -0.359063 1.48285 3.55316 21
26 2 -2.52615 -3.55804 3.04641 21
27 2 -4.99021 -7.83268 -4.538 12
28 2 -1.19832 3.85987 -10.2211 13
29 2 -9.04229 -0.652733 -5.52647 10
30 2 -9.27601 -5.86867 -4.21843 10
31 2 -4.46562 -0.875769 -1.07964 23
32 2 1.7422 -7.32268 -6.41726 13
33 2 -0.488109 -4.87023 1.83545 20
34 2 7.94402 2.33923 -4.72079 10
35 2 -9.54303 -8.66411 3.61182 8
36 2 10.0921 -6.42132 2.48232 10
37 2 2.0133 -5.44728 -9.66323 11
38 2 -2.56204 -4.93139 -3.37315 21
39 2 -3.77427 -2.46073 -3.56789 17
40 2 -2.21908 -8.38813 1.55435 14
41 2 -6.49126 -2.85574 -1.2684 18
42 2 9.30829 -0.881173 -4.6909 9
43 2 -3.88104 -5.56419 -6.35656 17
44 2 -4.38532 5.29304 -9.4977 11
45 2 -6.23361 1.96304 -9.07891 12
46 2 2.12944 -0.833085 -2.5157 20
47 2 0.141147 -2.59526 -10.6792 10
48 2 1.01684 -8.70437 -3.92889 12
49 2 10.7871 -2.95168 -1.64386 12
50 2 -5.9198 2.62736 2.78744 19
51 2 -1.47992 6.52588 -8.61668 13
52 1 -5.83772 2.92225 4.96792 17
53 1 -8.61559 -0.577982 -7.21775 11
54 1 -2.74731 -4.70846 -1.52302 17
55 1 -5.34636 0.995575 7.9087 15
56 1 -6.94005 -2.47414 2.1251 18
57 1 -8.84029 -4.70923 3.0082 13
58 1 4.58998 -0.0697164 7.79192 20
59 1 -7.44422 3.2835 1.19535 17
60 1 3.55242 3.28818 11.2763 9
61 1 -5.87935 -5.65454 7.57208 13
62 1 -5.47947 -2.84192 8.25311 11
63 1 -3.2178 -7.29243 -6.10955 15
64 1 0.730607 -8.13444 6.66003 13
65 1 -1.44238 -2.34698 7.01961 22
66 1 -3.95532 -9.09142 -3.36044 10
67 1 -9.86218 -8.8411 -0.0331277 8
68 1 3.96434 -4.12634 2.64424 19
69 1 1.34598 1.309 13.3757 7
70 1 -5.88828 -6.53695 3.6736 18
71 1 -7.57773 6.21836 -6.12265 10
72 1 -0.51971 -0.400745 4.36945 20
73 1 -3.46092 0.0162093 6.42795 18
74 1 -4.60814 1.39997 2.10786 19
75 1 3.1368 3.2476 5.95943 19
76 1 0.984943 5.25344 6.38848 16
77 1 -3.41995 -8.0947 2.85708 15
78 1 -0.994881 -5.37011 -6.06194 19
79 1 -8.59165 -5.18361 -5.88277 10
80 1 0.510099 -3.76875 8.90482 15
81 1 -3.20253 -7.06768 5.79619 17
82 1 6.61762 0.0943083 10.1399 7
83 1 1.47463 -1.37369 7.31643 21
84 1 -6.6776 -6.93789 -4.5741 13
85 1 -2.33787 -3.64362 0.785814 22
86 1 1.56724 -3.29815 5.16085 23
87 1 1.64803 -0.902542 -0.572482 21
88 1 4.16521 -3.01243 6.81938 17
89 1 8.70664 -7.60359 3.88397 10
90 1 -3.10037 -1.71156 3.58597 21
91 1 -2.45707 1.20084 2.95429 24
92 1 -4.2315 -4.70015 -4.62753 19
93 2 -6.18361 3.76459 -0.52046 22
94 2 -7.20962 1.30163 7.99578 11
95 2 -3.31034 4.67402 7.59125 12
96 2 -4.97464 1.12412 0.368077 20
97 2 -0.644182 -9.26895 -1.55437 15
98 2 -4.03265 4.26233 4.68074 17
99 2 2.8141 1.60169 12.3336 7
100 2 -4.18094 -4.70428 -0.465453 22
101 2 -8.52275 -2.74941 3.48929 13
102 2 -5.24382 -3.45208 1.52218 21
103 2 -7.51015 -5.59732 -0.897753 15
104 2 0.744812 0.802373 0.330406 17
105 2 -4.6917 1.35855 5.62244 20
106 2 1.11243 -3.16685 -0.123472 18
107 2 -6.61027 -3.98588 6.85771 11
108 2 8.54815 -8.07778 -0.0231049 10
109 2 0.362607 -1.6971 -5.92048 18
110 2 2.34805 2.73564 2.33475 19
111 2 1.9858 2.897 9.92237 14
112 2 3.1763 -4.44669 5.54383 19
113 2 -0.7219 1.9662 10.0868 13
114 2 6.28969 -0.198286 -5.09754 15
115 2 -3.41971 -9.00509 5.75907 10
116 2 -4.20432 -6.71422 7.26083 14
117 2 -2.17661 -4.11804 6.43488 21
118 2 5.12608 1.91875 10.5361 11
119 2 1.33316 3.59598 5.04118 21
120 2 5.87527 3.3284 -5.90879 14
121 2 1.28127 -2.36325 10.1395 10
122 2 -8.33148 -8.25933 1.00582 11
123 2 -2.03278 2.97758 2.59666 19
124 2 3.58109 1.34605 6.68011 21
125 1 -3.03221 4.56999 -4.96819 16
126 1 0.234039 -4.22597 -9.50776 12
127 1 7.43436 9.12322 -0.968284 7
128 1 4.00251 2.83185 -4.82186 23
129 1 -1.0466 -1.01783 1.00573 23
130 1 0.35728 -0.662407 -10.0613 15
131 1 -1.99014 3.74334 -2.03379 18
132 1 -9.88662 1.2671 -5.35424 9
133 1 0.0772353 6.08684 -5.31898 21
134 1 -3.57849 1.72919 -6.35538 14
135 1 2.57487 7.1003 4.813 18
136 1 -5.91192 -4.44214 -0.16111 20
137 1 2.1178 1.01393 -3.26421 21
138 1 -1.76523 2.10516 -10.8301 11
139 1 -4.8302 8.02456 -2.31688 14
140 1 -2.67036 10.2609 -6.04036 11
141 1 -2.68784 7.94302 -4.63752 21
142 1 -4.8169 1.11453 -10.0795 10
143 1 -8.60097 0.386685 1.20162 16
144 1 2.4081 1.51586 8.65133 20
145 1 3.70049 -1.26489 -8.48093 14
146 1 2.72676 2.54678 0.665415 19
147 1 -5.64533 5.59806 -7.72974 15
148 1 2.11491 4.52345 -6.77455 20
149 1 -6.21087 6.9113 4.38601 11
150 1 0.228373 6.62678 2.66158 21
151 1 -3.67077 10.8131 -2.48555 12
152 2 -6.79352 -5.79622 -6.46693 12
153 2 -5.09944 -3.75609 -7.98776 13
154 2 -6.6359 -0.920911 3.49873 18
155 2 -4.55452 -2.23017 5.04797 19
156 2 -8.03575 0.808501 -0.866235 18
157 2 -8.80229 3.61527 -1.94849 11
158 2 -6.97783 -1.46745 -7.60167 10
159 2 -6.95388 -1.16259 -3.50012 18
160 2 -8.57906 1.54914 -6.74211 10
161 2 -8.32749 -1.55609 0.986917 16
162 2 1.39136 5.73097 -9.60117 13
163 2 -2.28586 0.282547 -6.72939 19
164 2 0.986814 0.663339 -4.92809 24
165 2 -2.85129 -2.62684 -8.53174 12
166 2 -7.81684 3.0703 5.52048 12
167 2 -7.31614 4.54746 -7.20187 12
168 2 -8.07475 -3.37178 -5.63137 14
169 2 -4.51108 -0.766306 -9.77523 10
170 2 -2.49408 10.323 -4.04629 14
171 2 -2.87059 4.37838 -0.191664 20
172 2 0.524902 2.66521 -7.78078 19
173 2 -1.47011 0.531515 -9.92214 16
174 2 -1.64231 -0.366186 -3.60361 24
175 2 -4.09643 4.50876 -3.27161 19
176 2 -4.14554 9.45602 -1.53993 13
177 2 -11.2702 -9.71437 1.04746 5
178 2 -1.17523 -7.5309 -6.13058 12
179 2 4.28612 -6.72624 -3.43645 14
180 2 2.43988 3.35131 -10.1019 12
181 2 0.483714 -0.0506553 -8.31328 18
182 2 -2.23159 2.78653 -4.97547 19
183 2 0.671012 5.5809 -2.66488 18
184 2 -1.98234 10.46 1.2204 14
185 2 4.01125 5.32032 -8.60022 13
186 2 -9.41614 -4.48486 1.22437 12
187 2 2.17175 7.49621 -0.90347 19
188 1 -6.57515 0.74968 -4.18591 19
189 1 -8.818 -0.861981 3.57285 12
190 1 -1.40837 5.60139 7.40416 12
191 1 4.84533 -3.63352 -3.86415 21
192 1 -8.19484 3.81093 -3.70901 13
193 1 -9.37476 -3.04682 0.1168 13
194 1 -5.47321 -0.422642 4.86042 19
195 1 -4.20675 2.60245 -3.55072 18
196 1 -1.09162 1.27748 8.25168 20
197 1 -3.53646 -4.03885 4.90361 19
198 1 -8.62326 -1.98027 -4.2514 16
199 1 -3.05562 7.8276 3.88134 18
200 1 -2.05934 12.3451 0.652926 8
201 1 -7.44155 2.98405 8.84833 8
202 1 -1.69113 0.883696 11.5405 11
203 1 -7.70461 -8.47585 2.81184 12
204 1 -9.56237 1.70963 -2.01587 11
205 1 -1.33667 -1.54323 -7.04229 19
206 1 -3.2081 3.44006 6.09496 18
207 1 -8.65958 -7.01534 5.79643 10
208 1 -2.65849 -1.36406 -1.68276 23
209 1 -4.99246 4.54699 2.72016 22
210 1 -0.600351 7.85902 5.33158 13
211 1 0.628696 2.52435 -5.74743 18
212 1 -4.83331 -1.66946 0.592542 24
213 1 -1.0497 6.62031 -2.16903 19
214 1 5.12171 7.94785 2.76641 13
215 1 -0.0376644 2.18145 5.33034 20
216 1 3.75714 -3.33406 -6.67543 15
217 1 -3.31339 -0.778298 -4.77886 19
218 1 2.06912 -5.96785 4.6497 18
219 1 2.84729 6.91494 -7.5526 15
220 1 -8.1561 4.7559 -0.854023 15
221 1 2.65356 0.427959 5.27823 22
222 1 2.08484 -1.39894 3.08158 20
223 1 0.59842 -3.39763 1.84583 20
224 1 -4.571 4.54261 -1.14639 19
225 1 4.24603 2.2052 2.9108 23
226 1 -7.79506 4.99584 6.14972 9
227 1 -8.10941 6.11581 2.58613 10
228 1 -5.33713 5.57694 -4.34414 19
229 1 -0.435411 9.68204 -3.74837 16
230 1 0.997447 4.08738 3.16912 23
231 1 -3.7384 6.83002 7.07643 10
232 1 -2.20126 6.65744 1.15852 21
233 2 -6.05378 -5.20832 -3.84492 17
234 2 -4.50781 -0.993885 7.87214 16
235 2 -6.35064 -8.3142 4.1121 14
236 2 -8.69429 2.06246 2.07248 12
237 2 7.47451 1.88748 1.05671 17
238 2 -5.64531 2.69473 9.1847 8
239 2 -1.88002 -0.908695 5.94031 23
240 2 0.240409 4.69953 7.99622 16
241 2 -3.58632 8.41483 -6.40037 14
242 2 -2.85082 -6.77039 3.9195 21
243 2 -3.14985 1.90607 -2.07319 23
244 2 -2.63172 -0.207711 10.3307 14
245 2 2.91516 -5.7087 2.86816 18
246 2 -9.05661 -2.33796 -1.75533 11
247 2 -10.079 -7.18268 -0.963534 8
248 2 -3.62856 0.031588 3.69372 19
249 2 3.5556 -1.71889 -0.27099 17
250 2 -7.06131 -7.14233 6.69132 9
251 2 -2.01637 6.28603 3.10168 20
252 2 -8.81172 1.8434 -3.82474 13
253 2 -1.05927 7.3521 -0.279559 19
254 2 -4.96667 7.76611 -4.07016 18
255 2 9.15334 -3.63387 2.37556 20
256 2 3.12383 6.34776 6.43396 14
257 2 3.83947 7.40272 1.52975 20
258 2 -1.47122 8.08054 -3.13969 20
259 2 -8.67521 -6.08925 4.10591 13
260 2 2.8152 -0.430499 8.23852 16
261 2 -0.861381 9.65411 -6.06372 14
262 2 -0.167012 0.542408 12.6126 6
263 2 -7.63618 4.48834 7.91155 8
264 2 -6.0823 5.91804 2.31495 15
265 2 -4.99233 6.55748 -1.06486 14
266 2 -2.04896 7.19127 6.81866 12
267 2 7.077 0.986452 8.5365 14
268 2 -1.5938 -0.0148086 -0.750078 22
269 1 2.6817 2.23636 -8.20506 20
270 1 1.40992 -6.56137 -8.19633 11
271 1 8.04173 -4.55007 -1.93007 19
272 1 1.35027 3.96312 -3.39129 23
273 1 4.99754 8.7216 -2.82368 15
274 1 -2.26874 5.26687 -9.71778 12
275 1 1.60466 -0.480735 -6.64044 20
276 1 6.82981 1.65405 -6.17012 13
277 1 -2.25899 -9.00499 -0.628364 14
278 1 0.247772 -3.40481 -1.80154 22
279 1 -2.64466 -1.10731 -9.49194 14
280 1 3.001 -9.91831 1.63959 11
281 1 -1.13411 1.30893 -7.86803 17
282 1 8.66524 0.832022 -3.73099 12
283 1 11.1997 -4.74677 -2.12257 10
284 1 2.96019 -5.98393 -5.9453 16
285 1 0.645653 3.74441 -9.88458 15
286 1 -0.652191 -8.78029 2.26185 16
287 2 3.63292 -4.45753 -5.04429 17
288 2 7.09697 -8.25222 2.57019 13
289 2 3.72414 -2.62766 -9.90335 12
290 2 7.20519 -3.78976 -0.118392 19
291 2 7.42542 -6.3965 4.68709 12
292 2 -4.47311 0.660838 -4.93714 13
293 2 3.04197 2.6775 -6.4572 20
294 2 -3.63644 2.63626 -10.744 9
295 2 0.310561 -5.08492 4.72309 19
296 2 2.11844 -3.1963 2.81123 19
297 2 7.17375 -5.88175 -5.71608 10
298 2 -1.57782 3.31651 5.32669 21
299 2 1.07016 -9.32935 1.2307 15
300 2 4.50193 -5.97359 -0.289451 17
301 2 2.85181 4.35488 -0.0350325 22
302 2 9.83916 -4.8877 -3.57786 9
303 2 -4.21409 5.32787 -6.28808 20
304 2 1.53135 -6.30488 0.631479 19
305 2 2.07218 -0.155555 -10.8323 11
306 2 5.95519 -3.45227 -5.78029 14
307 2 7.78336 -2.8413 -2.79974 21
308 2 6.3234 -9.05234 -0.758824 10
309 2 7.20565 7.86824 -2.00696 8
310 2 6.94404 -6.35038 -2.54752 18
311 2 4.71727 3.97235 1.83078 21
312 2 5.48426 6.19516 3.31981 15
313 2 6.49193 5.52679 -3.52677 15
314 1 -8.43428 1.23839 6.54721 12
315 1 0.214118 -8.45872 -5.90767 12
316 1 -2.44643 -6.94618 8.16813 10
317 1 3.15716 -2.15376 9.52201 13
318 1 -5.3131 -8.76129 5.62394 12
319 1 -1.12108 -5.33129 3.51969 19
320 1 -0.549563 -5.22606 6.61256 20
321 1 -1.88886 -3.18459 -3.97826 21
322 1 1.29585 -10.769 4.402 9
323 1 6.06563 -4.91357 0.905473 18
324 1 -0.370694 1.62986 -1.13288 21
325 1 2.57393 -7.68395 -2.93333 15
326 1 -3.77467 -6.70573 -0.268639 17
327 1 -2.11099 -3.91341 9.5663 14
328 1 0.815845 1.19383 2.01348 23
329 1 5.05821 -5.6405 -2.12677 19
330 1 4.46359 -0.617653 1.1922 20
331 1 2.64639 -1.96225 -11.2898 10
332 1 7.74243 -8.26547 -1.79455 10
333 1 3.65072 -2.07391 -2.33045 20
334 1 12.5656 -3.2505 2.44323 7
335 1 10.0264 -4.65704 3.46899 14
336 1 4.57875 -8.21366 -0.221202 19
337 1 6.79842 5.43772 4.64122 13
338 1 5.86035 2.0932 0.158638 15
339 1 8.89885 3.36139 5.92119 11
340 1 3.52809 -9.34058 5.18859 11
341 1 -0.227751 -6.20151 0.325956 19
342 1 4.02232 7.45032 -0.604287 18
343 1 -1.99255 -6.84551 -2.9805 19
344 1 9.70803 -6.84048 0.448372 13
345 1 10.2293 -2.38242 5.58317 12
346 1 5.43305 -8.35574 3.10883 13
347 1 3.09203 -6.796 1.27619 16
348 1 6.49662 -4.72959 -7.1987 10
349 1 5.47702 -0.439747 4.57349 20
350 1 8.63316 0.173962 4.44209 16
351 1 2.83262 -5.31176 7.46029 15
352 1 7.4767 -1.67198 -4.56986 14
353 2 4.34771 -7.7163 4.75977 14
354 2 -2.17008 -8.64103 -3.85641 13
355 2 -1.39946 -7.86895 6.88508 14
356 2 12.132 0.196773 2.4865 9
357 2 3.01962 -8.34941 -1.2235 14
358 2 8.96199 -0.759119 2.94929 20
359 2 -0.354115 3.5764 -0.958715 19
360 2 1.8546 -9.43677 5.92217 10
361 2 -1.19712 -2.09678 9.25645 16
362 2 5.21598 2.72078 -1.6888 17
363 2 -1.62098 -3.02485 -1.20195 22
364 2 4.39315 -1.22432 6.21299 19
365 2 -4.01414 -3.21054 9.23015 11
366 2 5.79594 -4.01968 2.58337 15
367 2 -4.46887 -6.53322 1.77352 17
368 2 1.54408 -6.40426 6.94168 15
369 2 5.62992 5.5666 6.10968 12
370 2 11.4371 -3.2867 4.25906 10
371 2 9.77251 -5.62476 -0.913817 13
372 2 0.327416 -3.12059 6.82462 21
373 2 3.86813 -0.284234 3.23775 20
374 2 3.26703 -3.56472 8.09704 15
375 2 9.60877 -0.731222 -0.11382 19
376 2 5.32411 -0.983093 -2.54929 17
377 2 9.5755 -4.22128 6.42233 8
378 2 2.8936 -10.0901 3.53765 10
379 2 -1.31376 -5.37091 8.67539 14
380 2 4.45567 -5.11268 -7.8139 13
381 1 8.71058 -5.16121 -4.97292 10
382 1 -2.64499 6.75359 -7.19024 17
383 1 0.696741 8.75221 -6.37718 14
384 1 3.0982 -3.72925 0.0857549 19
385 1 1.13583 -9.13777 -0.571729 15
386 1 -8.88895 2.51772 3.98782 13
387 1 -10.1768 -6.45814 -2.72323 8
388 1 1.8074 11.9642 0.323378 11
389 1 3.12905 5.33671 -10.2551 10
390 1 -0.568971 12.0039 -1.61441 11
391 1 7.12524 -2.56818 2.45553 16
392 1 1.15272 -3.08385 -5.2674 18
393 1 5.35939 4.83862 -7.21096 13
394 1 9.13021 -3.31315 0.389613 21
395 1 6.17975 5.09148 1.6693 17
396 1 9.43987 -1.90088 -2.60144 14
397 1 -3.51653 9.5815 0.331013 13
398 1 2.82445 1.54807 -10.4652 11
399 1 9.0474 1.51926 -0.382555 10
400 1 7.66856 -9.39251 1.2067 9
401 1 4.43205 -0.15559 -5.43709 20
402 2 7.75841 4.6738 2.61981 9
403 2 2.7861 8.62822 -6.98785 11
404 2 0.967137 6.66176 -7.15146 16
405 2 3.58724 0.707894 -8.82351 14
406 2 6.54205 -1.48889 1.02693 19
407 2 -3.94605 8.04423 1.31079 14
408 2 5.42889 6.08807 -0.683825 19
409 2 -6.1272 7.10642 -6.71942 11
410 2 -1.79672 -6.44869 -0.92446 18
411 2 1.0735 4.23597 -5.24237 20
412 2 3.70766 10.0173 -3.95331 10
413 2 3.83609 7.62635 -3.63887 18
414 2 -2.63629 12.1075 -1.41408 9
415 2 -5.78068 2.23822 -2.85862 20
416 2 0.217525 -0.901479 2.48852 19
417 2 4.26047 1.2548 0.660776 16
418 2 4.21256 -8.40359 1.64597 16
419 2 3.59168 5.80394 -6.02496 18
420 2 3.22899 12.0581 -0.977893 9
421 2 2.88906 10.8149 1.5197 12
422 2 0.242255 -2.71527 -3.52761 17
423 2 4.14936 -3.81642 -1.80578 18
424 2 0.712387 10.7343 -2.57929 15
425 2 -0.128123 12.2458 0.307312 10
426 2 -2.13021 6.00848 -5.42644 17
427 2 9.33825 1.47579 -2.25579 8
428 2 3.5332 -1.33339 -6.67341 16
429 2 0.38036 2.14421 -2.93708 19
430 2 -5.7395 -4.59326 3.89124 18
431 2 3.82423 1.06939 -3.92486 19
432 2 11.637 -2.14375 1.20455 12
433 1 4.50563 4.56396 -1.60479 19
434 1 3.36379 5.5773 1.54814 23
435 1 4.65224 5.80175 -4.40687 18
436 1 -3.40895 0.983036 -0.603054 21
437 1 0.289075 -0.842784 -3.60212 20
438 1 0.207438 3.47051 9.58006 11
439 1 -0.329528 -1.51768 10.8979 11
440 1 -4.19539 -4.80947 2.64659 19
441 1 -2.15941 4.32305 3.91773 19
442 1 4.31416 0.353099 11.742 12
443 1 0.204986 6.9901 -8.96663 13
444 1 4.32103 10.9862 -0.0541592 10
445 1 6.2103 -2.03733 -0.976726 20
446 1 1.81479 7.38602 -2.76357 20
447 1 0.657113 8.40073 -0.173783 21
448 1 5.62318 -6.26233 5.53645 15
449 1 5.98898 2.51496 8.99426 13
450 1 5.96687 2.62758 6.28799 18
451 1 10.814 -1.1975 2.85996 17
452 1 4.48086 5.53176 7.62456 12
453 1 8.11999 -0.21895 1.26268 17
454 1 8.24758 0.604213 7.16768 14
455 1 4.24636 5.04545 4.38632 24
456 1 6.85267 -2.37165 6.44818 15
457 1 -0.646551 10.0693 2.72156 13
458 1 8.35126 2.98032 2.2459 14
459 1 0.744296 5.12795 -0.705202 20
460 1 -5.84979 6.7694 0.60683 16
461 1 3.12489 8.81164 -5.21346 13
462 1 -3.56089 3.3504 9.02145 13
463 1 7.12378 4.0643 -4.64258 11
464 1 11.3113 -1.6352 -0.495519 12
465 1 7.84639 -5.14454 6.23815 9
466 1 2.73934 11.1483 -2.80322 13
467 1 11.9842 1.54484 1.33107 7
468 1 5.34673 0.95432 -2.52432 19
469 1 2.62151 9.02924 2.1787 15
470 1 -1.40715 3.79236 0.8714 20
471 2 8.49992 -1.10175 6.02948 13
472 2 3.78755 4.31056 -3.49886 20
473 2 2.50156 5.55295 3.42979 22
474 2 3.45539 8.50952 3.85213 13
475 2 1.53904 -1.18132 5.15405 19
476 2 6.31424 -4.26415 6.58616 12
477 2 -8.30572 5.06162 1.0542 12
478 2 -3.06321 1.55938 7.97206 16
479 2 -0.184463 4.94802 1.661 22
480 2 4.59902 3.15711 4.87267 20
481 2 1.09072 8.38237 -4.34461 19
482 2 0.580192 6.40677 4.73397 20
483 2 6.83604 0.731759 5.46329 18
484 2 -7.07867 5.24505 -4.53996 15
485 2 -7.91592 6.0831 4.63957 11
486 2 0.510527 1.07 7.16332 20
487 2 0.924772 -4.94843 -6.08344 17
488 2 -3.68123 -8.11954 -1.57064 14
489 2 -2.78724 -1.94258 1.01566 21
490 2 4.91309 -1.06052 9.6803 14
491 2 7.24888 3.74119 5.39957 15
492 2 10.2925 2.05993 0.866812 10
493 2 9.16148 1.6556 5.47597 10
494 2 -4.49327 7.26287 5.31382 12
495 2 0.754988 8.40336 1.85195 19
496 2 -0.52953 -10.0476 4.15152 11
497 2 5.47658 9.56156 -0.925583 13
498 2 -1.48468 8.94534 3.8802 12
499 2 6.44799 -2.10809 4.49456 17
500 2 5.34257 4.01841 8.13004 14
