ITEM: TIMESTEP
2316000
ITEM: NUMBER OF ATOMS
500
ITEM: BOX BOUNDS pp pp pp
-30.0 30.0
-30.0 30.0
-30.0 30.0
ITEM: ATOMS id type x y z Coordination
1 1 -3.48221 0.226293 -4.61308 21
2 1 9.85383 -1.1521 6.22833 11
3 1 1.53471 2.50392 12.1836 9
4 1 9.28601 -1.49944 0.562886 16
5 1 -6.83175 2.75062 3.20255 19
6 1 -6.34831 -2.3789 -7.91494 13
7 1 1.41932 -0.798172 7.05278 19
8 1 1.99484 -2.93886 -6.24151 21
9 1 -12.3287 0.927113 -0.682503 12
10 1 -0.531176 2.34289 -9.71563 14
11 1 5.46945 -5.9705 -4.91796 15
12 1 4.24949 1.61491 6.81363 17
13 1 3.74699 4.86644 -5.11174 20
14 1 1.89814 5.57543 2.94761 22
15 1 5.76322 0.671915 9.55419 17
16 1 -8.21393 -2.39125 1.95635 14
17 1 -11.1647 3.01628 1.59543 12
18 1 9.24467 -1.09669 -4.99442 12
19 1 8.81456 -0.725369 9.80021 8
20 1 -5.78821 -4.91652 1.95786 16
21 1 -5.17759 -4.91852 -8.63434 12
22 1 1.22203 -0.00420251 -7.88935 20
23 1 2.83008 2.6229 -6.58276 20
24 1 7.56199 -5.50079 3.15665 14
25 1 -2.89576 6.16861 5.28058 18
26 1 4.83346 -1.65079 7.23764 21
27 1 1.21158 8.42605 1.89238 15
28 1 -0.86133 -0.920343 -5.85941 18
29 1 -2.50906 -5.18527 -11.1344 9
30 1 -1.66455 2.97762 11.3445 13
31 1 6.80815 -2.11085 2.0527 22
32 1 -3.82808 8.17888 2.38178 15
33 1 -4.83309 5.01628 1.69756 22
34 1 3.73161 7.40779 -8.57707 9
35 1 5.63457 2.16699 -1.6778 16
36 1 -2.28677 10.2737 -5.80824 8
37 1 -1.32582 -0.904476 -2.62622 20
38 1 -0.18881 2.97442 -6.52793 16
39 1 -2.82727 1.95202 -1.77989 21
40 1 -2.14844 10.8206 -2.1195 12
41 1 0.271013 6.19913 -0.0124841 20
42 1 -7.52033 4.30616 0.509484 17
43 1 0.068643 4.57266 9.31953 15
44 1 -4.99428 5.89393 -6.94752 15
45 1 -2.71162 -8.0557 4.97945 11
46 1 -2.92245 0.20743 2.40264 18
47 1 -3.53744 -2.31098 4.59732 20
48 1 -7.11968 -1.42385 -0.796151 21
49 1 5.69573 -8.49275 -2.97524 13
50 1 -6.58361 1.88206 8.04508 11
51 1 -11.5452 1.9092 -3.8287 10
52 1 -0.118413 -10.3006 4.8267 11
53 1 5.75649 2.36791 -5.96676 17
54 1 -4.72415 -1.87221 1.31129 21
55 1 -8.45237 1.66143 -5.27889 18
56 1 1.07885 5.06764 -8.02596 16
57 1 -1.62608 5.59516 2.33806 20
58 1 -0.281493 3.71605 3.83513 21
59 1 -7.67422 0.109537 2.46106 22
60 1 -0.469924 -6.88605 -2.55999 20
61 1 0.338315 9.00593 -1.2873 17
62 1 -10.655 2.10608 4.60478 12
63 1 2.80589 6.55038 8.18002 13
64 1 5.7947 -2.17488 10.3419 14
65 1 2.73044 -7.62276 -2.16547 18
66 1 7.06702 -0.709648 -6.63625 14
67 1 -3.03679 -6.56256 -0.359156 22
68 1 -0.653937 -9.19734 0.285288 18
69 1 8.61866 -3.35289 8.4683 10
70 1 2.48793 -5.78116 3.85999 19
71 1 6.43522 7.16615 0.0187633 17
72 1 -4.13266 -7.5115 2.33698 17
73 1 -0.419017 -11.6572 1.93339 12
74 1 -4.8764 -4.08426 -0.704633 21
75 1 1.94788 -1.74812 4.58144 19
76 1 -3.45574 -2.80848 -6.25187 22
77 1 -3.53821 -0.609344 -8.16647 17
78 1 4.76199 -5.82535 -1.76947 21
79 1 -2.98726 -3.44699 9.74153 13
80 1 -8.16929 1.28713 5.65392 15
81 1 4.37285 -9.08114 -0.00772524 16
82 1 -2.5989 -4.16384 1.80569 22
83 1 -0.975957 0.908187 8.49562 21
84 1 -9.66197 -1.41571 4.74018 13
85 1 -1.06452 8.63464 4.22813 13
86 1 -5.8211 5.6539 3.92075 17
87 1 1.01084 3.43483 0.858404 22
88 1 -2.49774 5.38532 8.70567 14
89 1 -9.48116 -0.332946 -2.62306 17
90 1 6.54905 0.0734052 6.05711 17
91 1 -5.70536 2.84068 -5.03483 18
92 1 -6.81667 -4.24779 -5.61948 16
93 1 9.15679 2.06254 6.15337 13
94 1 -2.2404 3.07233 0.995957 25
95 1 0.203968 -5.06273 9.35893 13
96 1 -6.17377 0.806596 -7.32573 17
97 1 -10.7355 3.76968 -1.39125 12
98 1 -1.27867 -9.73247 -2.44555 14
99 1 -1.37354 -4.04666 -1.09136 23
100 1 3.47481 1.05692 0.330199 20
101 1 -5.22758 4.76689 7.17035 12
102 1 -0.798362 -1.26067 4.09721 21
103 1 -3.92803 4.75176 -1.05818 22
104 1 2.15107 -5.4094 -4.03501 24
105 1 2.07372 7.88606 4.99452 14
106 1 2.67953 1.91295 -2.86049 17
107 1 -10.3137 4.20948 -4.70438 8
108 1 -6.34319 7.33406 -1.64323 17
109 1 -2.06278 -7.30041 -4.89099 16
110 1 4.97807 -5.65558 5.216 18
111 1 -4.37609 6.65938 -3.64854 18
112 1 -5.12008 -0.639376 9.18944 12
113 1 1.65404 -1.50877 -0.56998 19
114 1 -8.13054 4.2317 6.01094 13
115 1 0.770315 -7.23479 -7.09868 16
116 1 -0.535302 -4.38053 4.63607 19
117 1 2.7707 -6.33319 7.76539 14
118 1 3.70232 -2.974 -3.4654 18
119 1 7.28741 4.18626 -0.314945 21
120 1 -3.62519 3.02562 3.79432 22
121 1 1.95406 0.0925052 -10.9539 10
122 1 3.999 5.20758 0.683443 23
123 1 7.56721 -3.0446 5.60108 19
124 1 -4.44104 -8.86349 -3.07567 14
125 1 -6.71724 -2.8998 4.52615 18
126 1 9.03711 3.49995 3.04768 15
127 1 9.40105 3.82603 -2.60029 14
128 1 -2.13613 4.74925 -8.14781 14
129 1 -1.67778 7.08933 -6.30547 17
130 1 5.14504 8.60131 -3.20381 14
131 1 4.51223 4.65768 -8.21461 10
132 1 1.90695 -9.5669 2.21015 17
133 1 2.14448 4.79159 -2.1636 21
134 1 7.94835 -5.87251 -2.51297 13
135 1 1.69546 -10.9639 -0.706147 12
136 1 -7.19394 5.83946 -4.68942 15
137 1 0.562461 1.10202 2.31104 22
138 1 9.54632 -2.80966 -2.1706 15
139 1 0.598896 5.2935 -5.28836 21
140 1 -0.894411 6.89325 -3.01135 21
141 1 3.48443 -8.511 -5.4944 13
142 1 2.37455 -7.18958 0.680729 18
143 1 -5.1698 -3.32925 7.41237 13
144 1 0.798797 -8.82051 -4.47748 14
145 1 0.601007 -5.80935 -9.57026 13
146 1 5.35964 5.68643 -2.18422 21
147 1 4.96932 -4.74177 1.58354 21
148 1 4.0723 -0.0584435 -5.49601 19
149 1 -10.7209 -1.92537 -0.658766 13
150 1 -4.96517 -6.92365 -5.89796 13
151 1 -0.108875 -2.01172 10.2202 17
152 1 -0.255404 0.276723 12.7778 10
153 1 2.46971 -2.91197 -9.41294 16
154 1 -6.9414 3.95521 -2.00752 17
155 1 6.60786 4.38348 -3.99151 17
156 1 6.76743 -0.00174324 -3.90508 20
157 1 3.45142 -2.3231 1.49675 17
158 1 -3.67454 1.93583 -9.8589 10
159 1 -9.25137 5.54233 3.12136 11
160 1 2.87881 -2.87525 9.06399 17
161 1 2.44171 4.17256 5.73614 24
162 1 -7.88329 4.08809 -6.86996 11
163 1 9.67633 -3.16236 3.30126 12
164 1 -2.89942 -4.36207 -3.32084 18
165 1 7.6001 2.91318 9.45952 11
166 1 2.6584 -8.48898 5.28853 13
167 1 3.17284 7.63439 -0.728988 17
168 1 2.06201 -3.92877 6.62162 20
169 1 7.20323 -0.165083 -0.443192 22
170 1 5.72372 3.3689 4.69831 21
171 1 6.65063 -3.40295 -0.92786 21
172 1 8.15702 4.77385 6.46782 10
173 1 -2.3349 -5.63987 -7.87212 17
174 1 4.95565 4.08344 7.75214 20
175 1 -8.65134 1.57401 -0.215667 20
176 1 -2.32759 4.32331 -4.50864 20
177 1 -1.24143 -2.23557 6.9495 20
178 1 0.311346 -2.83931 -3.49739 20
179 1 -3.31192 -9.83412 0.103495 15
180 1 3.13301 2.83697 2.93904 20
181 1 -1.43956 3.31746 6.94795 21
182 1 -5.11196 0.245662 4.44792 19
183 1 5.81931 7.21906 -5.86 13
184 1 3.04154 -0.423249 11.4154 11
185 1 -6.23797 0.714425 -2.63683 20
186 1 -0.881624 -0.344355 -10.0737 15
187 1 2.25845 2.3277 8.77849 20
188 1 6.78877 -3.23563 -4.09348 18
189 1 4.58658 7.84147 2.48792 12
190 1 4.74353 -2.89745 4.32432 18
191 1 -3.01867 7.25557 -0.29303 19
192 1 -5.34466 1.81878 0.485701 25
193 1 3.47296 -5.73695 -7.42711 16
194 1 4.74369 -0.849017 -1.62599 17
195 1 5.93768 -4.93712 8.42793 13
196 1 -4.02036 -0.913076 -1.43515 20
197 1 0.971613 0.641765 -4.22628 22
198 1 -3.66241 2.37762 8.88233 16
199 1 9.09431 1.92782 0.485647 15
200 1 0.100345 9.65289 -4.48948 12
201 1 0.981768 1.30705 5.70431 21
202 1 9.05701 2.09316 -5.59253 11
203 1 -2.59221 -0.166723 10.8806 13
204 1 -2.4297 -5.91086 7.56155 14
205 1 -4.51754 9.73693 -0.157397 14
206 1 6.99194 5.31036 2.51554 19
207 1 -3.94757 -5.17615 4.52962 17
208 1 4.61089 0.293546 3.41858 20
209 1 -5.95358 -7.46586 -0.292183 14
210 1 9.54616 5.75205 0.22468 12
211 1 6.67602 -6.86205 0.0975028 17
212 1 -0.479723 3.59224 -2.08764 19
213 1 4.85132 5.98504 5.25552 18
214 1 -8.86241 -3.59593 -3.14259 15
215 1 -3.23921 2.50326 -7.16785 21
216 1 1.05492 8.21561 -6.7544 14
217 1 -7.17608 -1.16725 -5.08525 17
218 1 -0.13699 -2.8819 -11.1727 13
219 1 -6.77882 -6.4481 -3.18509 13
220 1 -1.29764 -1.25046 0.641539 21
221 1 -0.331467 -6.60638 2.05002 17
222 1 9.75518 -4.88985 0.403031 13
223 1 -10.9914 0.0357888 1.918 13
224 1 -5.5293 8.87085 -5.05326 10
225 1 -5.60645 -2.58286 -3.65756 17
226 1 8.41818 0.111812 3.53188 20
227 1 1.7401 -4.55105 -1.07229 21
228 1 -3.33788 -2.56248 -10.1169 14
229 1 -6.79338 7.46938 1.42485 11
230 1 -8.06515 -1.43771 7.44031 11
231 1 -0.552704 -5.06425 -5.40588 19
232 1 8.18252 7.00496 -2.5491 12
233 1 6.40517 1.92564 1.92098 19
234 1 0.00793017 -8.07299 7.10865 11
235 1 4.20691 -0.367286 -8.52445 14
236 1 3.56258 9.81655 -6.27903 10
237 1 4.38155 4.02631 10.4838 10
238 1 2.31214 7.79578 -3.76964 19
239 1 9.70929 0.714701 -2.38791 14
240 1 0.259977 -3.65023 2.17556 19
241 1 -2.41333 0.80076 5.71537 19
242 1 4.77157 -2.94206 -6.65808 17
243 1 -0.631167 -2.98829 -8.18713 23
244 1 0.0324008 6.16493 6.37744 18
245 1 0.135223 1.12246 -0.865576 21
246 1 -1.52902 10.1064 1.07522 13
247 1 -3.18093 -10.6901 3.03578 10
248 1 4.7469 -7.56033 2.77183 14
249 1 -7.81848 -4.54779 -0.567845 15
250 1 -4.90451 10.6633 -3.32324 9
251 2 -9.84802 0.411982 4.95913 12
252 2 8.93531 3.7368 5.0755 12
253 2 -0.948 -3.78987 9.89342 13
254 2 -6.81601 -0.935524 -6.95318 15
255 2 -6.94852 5.85066 -2.66596 15
256 2 -1.07315 -8.88558 5.67403 12
257 2 1.53585 0.416958 12.1781 10
258 2 5.30334 0.177685 7.82059 17
259 2 -3.21069 -1.1904 0.472762 21
260 2 -1.64988 5.43488 6.84814 18
261 2 -2.96414 5.18739 1.00238 21
262 2 3.62964 -1.00045 0.0542364 19
263 2 5.78244 -4.21514 -5.54688 15
264 2 -4.61473 1.18202 -8.32549 15
265 2 2.00686 -6.21048 -8.36849 12
266 2 1.94216 -2.84108 -2.34452 20
267 2 -4.37647 -3.7806 1.13946 22
268 2 -2.3418 7.2518 3.78304 16
269 2 8.67019 -1.68429 2.40658 16
270 2 3.27897 -1.26366 3.44966 18
271 2 -3.59796 1.97856 1.58654 21
272 2 8.16414 6.63421 -0.661252 14
273 2 0.974971 5.79596 8.16543 16
274 2 5.65973 6.51331 3.40087 15
275 2 2.81055 8.7901 -7.68211 10
276 2 3.06347 -1.16896 -9.8277 12
277 2 -10.1805 2.42321 -5.40036 10
278 2 1.91769 -7.73363 6.89478 12
279 2 -7.33881 2.18042 1.19395 18
280 2 4.2727 -6.86355 -6.20521 15
281 2 -1.8203 -10.522 1.12957 16
282 2 2.8267 0.99404 -4.58824 17
283 2 -0.492005 -1.02133 8.33939 21
284 2 4.96939 -3.07664 8.95146 16
285 2 -3.42759 -8.97078 3.36928 12
286 2 5.94816 5.10273 0.705457 20
287 2 1.43385 -11.1195 1.17281 12
288 2 1.45201 3.86824 -6.36491 18
289 2 -1.52488 -5.6564 -3.83995 20
290 2 -5.15481 -6.12116 3.39353 15
291 2 -1.52151 -7.83653 -0.848338 19
292 2 -5.8555 -8.01293 -2.35408 12
293 2 0.338827 5.55957 1.86931 19
294 2 -2.0125 -1.5219 -8.93186 20
295 2 8.04088 5.14955 -3.01872 14
296 2 -0.0372765 6.38317 -6.89562 18
297 2 -6.41679 2.6669 -3.27336 20
298 2 -8.82403 5.00426 -5.46947 11
299 2 1.15053 5.36499 4.83413 23
300 2 2.52949 7.90574 3.16033 17
301 2 -4.79596 5.80314 5.61571 15
302 2 2.68831 4.28216 1.69487 20
303 2 0.425538 8.24674 -3.19443 21
304 2 2.10557 9.19427 -5.15842 12
305 2 -1.69426 4.47292 10.1067 13
306 2 -3.27658 1.15041 4.24837 19
307 2 4.90677 -0.44245 10.7655 13
308 2 0.740044 -3.78566 -9.52494 18
309 2 1.37124 -7.1624 -3.5175 22
310 2 -1.38679 -5.87861 -9.665 14
311 2 -6.81968 -0.898636 1.11714 20
312 2 -0.457876 5.0414 -3.67479 20
313 2 -6.392 -5.687 0.235173 16
314 2 8.35206 -5.92246 -0.520354 14
315 2 8.73003 5.03312 1.6815 15
316 2 -4.44908 -2.54702 -8.3095 18
317 2 0.595714 -1.18239 -11.3501 12
318 2 5.92043 0.594206 -5.57323 18
319 2 -4.18075 -5.70419 -7.35136 15
320 2 0.967766 -4.0159 -4.86518 23
321 2 5.53767 -1.31788 -7.40353 15
322 2 -6.83605 -3.51196 2.72775 18
323 2 -1.7978 -3.55814 -11.3323 11
324 2 5.36815 -2.7503 -2.4484 18
325 2 3.00763 3.65408 -3.51316 22
326 2 -1.07167 -6.69854 -6.56165 17
327 2 -2.00314 1.22891 -10.0904 11
328 2 -2.17608 4.24843 3.70001 20
329 2 -4.52614 -8.2432 0.680516 15
330 2 -6.88474 1.10473 4.05302 20
331 2 -7.84445 5.58122 4.54244 13
332 2 -5.1251 -3.08858 5.47268 15
333 2 -2.36932 -3.79277 4.05636 18
334 2 -11.3415 -0.332811 0.184427 13
335 2 4.69601 -5.83249 7.22545 13
336 2 7.01215 2.23504 0.176122 20
337 2 0.71903 -1.736 -7.05094 21
338 2 3.5851 5.58839 -1.22847 21
339 2 4.17069 5.40336 9.1074 12
340 2 -0.98836 -0.917227 11.5641 13
341 2 -7.2388 5.6871 1.73053 15
342 2 -0.606112 2.5557 2.01639 21
343 2 -8.66672 0.0387751 -4.23286 15
344 2 -4.13958 -3.34077 -4.59327 19
345 2 3.90033 0.921181 -1.65394 19
346 2 -9.54078 -1.03123 2.697 16
347 2 -2.52253 6.54395 -4.25821 19
348 2 0.71003 0.804297 -9.65222 14
349 2 -11.7302 2.5554 -0.246755 12
350 2 0.086621 -3.56095 6.35969 20
351 2 4.57899 7.73468 0.543172 16
352 2 6.18678 -6.59564 -3.13582 18
353 2 2.96223 -9.4202 -1.07248 15
354 2 -5.09481 6.97319 2.37581 16
355 2 0.545418 -8.16895 1.29953 17
356 2 3.29562 -5.8979 2.08587 21
357 2 2.75101 2.8705 10.6997 14
358 2 -1.24053 7.04446 -1.05475 19
359 2 -3.59157 -4.27792 8.05689 12
360 2 -2.25035 -5.95972 1.41998 22
361 2 -5.28631 3.8923 3.28472 22
362 2 -2.02336 -1.27924 5.64326 21
363 2 -0.429153 3.95865 -8.66217 15
364 2 1.68307 -3.16174 0.464445 17
365 2 6.43688 0.43745 -2.12582 17
366 2 3.35623 3.28449 7.40607 21
367 2 -7.93475 0.320176 -1.52462 21
368 2 6.7507 3.4786 3.11379 22
369 2 6.13134 4.63185 6.33374 19
370 2 8.06504 -3.98595 -2.61203 17
371 2 -8.49877 -2.73567 -0.151087 17
372 2 -0.391447 2.36706 12.4017 10
373 2 0.0386691 -0.946537 -4.17408 19
374 2 -5.46684 -2.46331 -1.68234 21
375 2 7.7032 -2.39791 9.7995 11
376 2 -0.972689 -0.238183 2.35132 23
377 2 -3.53561 3.51 -8.83879 12
378 2 6.41518 -0.0708092 3.00382 19
379 2 2.83744 -2.14035 7.08712 17
380 2 5.20871 -3.05275 2.39276 20
381 2 -1.13449 -3.17838 0.866962 21
382 2 -1.33501 2.52871 -0.58447 19
383 2 -10.9952 0.650993 -2.36946 14
384 2 -4.23063 6.70114 -1.64283 18
385 2 -5.45284 8.74705 -3.02526 14
386 2 -8.74243 3.77529 -1.01466 14
387 2 -0.644168 -6.5629 8.38323 11
388 2 3.44333 8.63002 -2.35406 14
389 2 -7.61962 -2.93069 -4.45047 17
390 2 9.07128 0.143956 -0.499025 14
391 2 -4.12501 10.8567 -1.64297 10
392 2 9.13238 -4.77935 2.33311 12
393 2 -3.07808 -6.35455 5.84133 14
394 2 -5.6266 -0.427394 -4.22261 22
395 2 0.0461295 0.924584 -6.17067 18
396 2 -6.09156 8.5622 0.0678948 12
397 2 0.696104 -0.46958 5.06693 17
398 2 1.96803 -4.77232 8.48806 15
399 2 -10.2851 4.52896 2.14244 12
400 2 -1.0729 10.1757 -0.685202 13
401 2 -2.17592 1.36509 10.1321 18
402 2 -10.945 3.5115 -3.20116 10
403 2 6.16011 7.54413 -2.02568 17
404 2 -3.83237 4.26386 8.23944 14
405 2 -2.54319 1.71229 7.34032 18
406 2 4.28675 1.6516 2.03334 20
407 2 -0.206464 -0.903173 -0.911378 22
408 2 -6.71473 -4.17683 -7.5661 12
409 2 2.28593 5.9842 -4.72343 20
410 2 0.0498522 -5.27918 -1.56918 22
411 2 -2.86489 -0.824729 -6.08302 19
412 2 6.00545 -1.78143 5.51488 20
413 2 0.157696 2.81001 8.38541 20
414 2 9.65965 2.11105 -3.6545 13
415 2 3.96377 -7.09963 4.61471 14
416 2 3.14299 0.824572 -7.24452 17
417 2 5.54928 2.7637 9.59083 14
418 2 -2.68969 0.298469 -2.70894 20
419 2 0.648384 1.83056 -2.66292 20
420 2 -4.98838 1.07516 8.70092 12
421 2 -9.89233 -2.29556 -2.24889 12
422 2 -0.0570721 -10.5664 -1.19554 14
423 2 -1.88863 3.74508 -6.23637 19
424 2 -9.34084 3.14679 5.19008 12
425 2 -8.12093 -2.02434 5.75311 15
426 2 -0.971978 -8.81622 -4.21657 15
427 2 3.98093 4.26843 4.45156 19
428 2 -2.7611 3.8545 -2.55631 22
429 2 -3.13958 6.21392 -7.0994 14
430 2 5.15325 6.59461 -7.58698 10
431 2 1.6903 -8.48607 -6.06973 11
432 2 8.58557 0.275051 5.52417 14
433 2 7.94078 0.892211 9.76478 11
434 2 -0.771909 9.162 -6.30426 12
435 2 -4.10376 1.7484 -5.51988 18
436 2 -4.05935 -4.40753 -10.0276 11
437 2 -3.17195 -4.92277 -1.37488 17
438 2 0.137462 7.92797 5.59014 14
439 2 -1.4689 10.6653 -3.77286 11
440 2 -3.07322 8.90063 0.784601 17
441 2 -6.57039 3.52667 7.07517 14
442 2 -1.55105 -2.8119 -2.75546 20
443 2 2.97297 5.57561 -8.68687 12
444 2 3.19958 -3.78194 -7.75864 16
445 2 -4.77255 0.921569 -1.061 23
446 2 -4.10495 10.118 -5.23311 10
447 2 -5.93556 4.4618 -6.07435 17
448 2 3.95757 -5.03904 -3.64619 23
449 2 7.34403 -4.15011 7.27726 13
450 2 -6.23204 -2.05148 8.30463 12
451 2 -1.80572 -4.04378 -6.68378 20
452 2 -7.54663 0.365077 7.13259 13
453 2 5.98045 3.8004 -2.19772 22
454 2 9.34059 -2.43212 4.92566 15
455 2 -11.2683 1.69235 2.83191 12
456 2 1.45271 2.51586 3.8861 19
457 2 1.43335 -9.43436 4.05061 14
458 2 8.86941 1.5802 2.4204 16
459 2 4.00998 -8.42879 -3.62289 16
460 2 -0.514941 9.47295 2.56711 12
461 2 -7.15868 2.31128 -6.55419 16
462 2 -3.45406 -1.62516 9.72478 14
463 2 3.40824 -4.28442 5.0661 21
464 2 1.4478 1.35544 0.62453 19
465 2 4.51182 3.52682 -6.60777 17
466 2 9.31789 3.66946 -0.544856 15
467 2 0.818604 4.25951 -0.88539 21
468 2 9.51743 -1.44922 8.03767 10
469 2 3.61415 -2.03741 -5.36058 23
470 2 -6.32522 -5.91168 -4.85634 13
471 2 -4.47247 -1.20354 3.14194 20
472 2 7.47653 -1.80739 -4.96047 16
473 2 6.27556 -6.67768 2.09785 15
474 2 7.26909 -1.92881 0.108095 18
475 2 5.62101 -5.02521 -0.324317 19
476 2 2.47389 0.804364 7.17601 17
477 2 7.38443 3.16884 -5.20928 12
478 2 -7.8801 -5.17404 -2.35767 14
479 2 5.16826 1.37825 5.03865 21
480 2 -5.57547 4.01283 -0.274367 21
481 2 6.50906 -4.46377 4.59941 17
482 2 5.08779 8.87334 -5.32367 11
483 2 9.37118 -1.12073 -3.21865 14
484 2 5.41016 5.94134 -4.48713 19
485 2 0.554145 -5.29701 3.23722 16
486 2 3.0211 -6.20107 -0.839914 22
487 2 10.1202 -3.18968 -0.346595 12
488 2 3.56363 -8.57637 1.78227 17
489 2 -3.87128 -7.93477 -4.54111 13
490 2 1.3597 7.95397 0.0477032 20
491 2 3.3089 6.89517 6.17585 16
492 2 -1.24236 -11.0517 3.56529 11
493 2 1.928 -1.91706 10.4561 15
494 2 -0.710917 2.2078 5.35201 21
495 2 8.35452 3.28189 7.73215 9
496 2 8.82851 0.278073 -6.02881 12
497 2 0.510812 -2.71633 3.84271 21
498 2 -5.63115 6.8496 -5.24374 14
499 2 -3.19174 -9.80805 -1.97878 13
500 2 5.47841 -8.09836 -1.05691 16
