ITEM: TIMESTEP
994000
ITEM: NUMBER OF ATOMS
500
ITEM: BOX BOUNDS pp pp pp
-30.0 30.0
-30.0 30.0
-30.0 30.0
ITEM: ATOMS id type x y z Coordination
1 1 -4.0646 -0.447641 -4.59832 21
2 1 9.0138 -0.829483 6.96147 14
3 1 0.983177 2.28817 11.2047 13
4 1 10.6126 -1.17968 1.81311 12
5 1 -7.26312 2.59527 2.39809 23
6 1 -4.58623 -2.85971 -6.40765 22
7 1 1.10022 -0.450606 9.13909 19
8 1 3.00544 -2.42643 -7.05174 19
9 1 -10.7616 0.150354 -1.55345 13
10 1 -0.033917 2.30834 -8.96618 15
11 1 5.79578 -5.41546 -4.41001 17
12 1 4.50703 1.8169 6.43639 23
13 1 3.74883 4.65616 -5.02436 23
14 1 1.48801 5.6284 3.46496 21
15 1 5.11084 1.24106 11.374 11
16 1 -8.80989 -2.83446 1.19043 17
17 1 -9.74179 2.60897 0.638819 15
18 1 9.4577 0.124171 -3.99107 13
19 1 8.28346 -0.294477 10.7269 8
20 1 -6.79004 -5.60101 1.92859 13
21 1 -2.27102 -4.96699 -6.81937 20
22 1 0.8861 0.235995 -6.5841 21
23 1 2.38908 2.51332 -7.19439 20
24 1 6.88816 -5.18517 3.47846 14
25 1 -2.83453 6.26349 4.91757 16
26 1 3.89769 -0.870704 7.15407 18
27 1 1.25261 8.59531 1.9783 15
28 1 -0.83634 0.979904 -4.26003 21
29 1 -1.42449 -5.25791 -9.98214 12
30 1 -1.68075 3.33348 10.4446 13
31 1 6.23764 -1.67945 2.28188 22
32 1 -4.17758 7.80553 2.35188 15
33 1 -4.51736 4.39425 1.2833 22
34 1 3.45606 7.53515 -8.51028 9
35 1 4.32671 2.59704 -2.61169 19
36 1 -2.26524 10.2551 -5.89287 11
37 1 -0.929504 -1.73522 -2.12165 21
38 1 -0.851232 2.9872 -6.62689 23
39 1 -3.20007 1.89337 -2.30909 20
40 1 -2.56331 10.7477 -2.31919 12
41 1 0.808883 6.26669 0.389326 21
42 1 -9.51361 5.73438 -0.503616 12
43 1 0.400951 5.50939 9.58673 12
44 1 -5.52464 4.59512 -7.90247 13
45 1 -3.48975 -7.8631 5.15314 13
46 1 -3.95779 1.24415 2.50661 22
47 1 -4.24009 -2.17589 4.85472 18
48 1 -7.55909 -2.12119 -1.08876 22
49 1 6.6633 -7.95341 -2.09545 11
50 1 -6.51542 1.84713 6.22002 19
51 1 -9.15788 -0.192543 -3.76835 19
52 1 -0.28591 -9.9723 4.55003 14
53 1 5.63382 2.19763 -6.58598 16
54 1 -5.27656 -1.8945 1.36168 22
55 1 -7.23281 -1.25715 -5.84111 17
56 1 1.05193 4.91603 -7.74066 18
57 1 -1.29051 5.50671 2.32116 20
58 1 -1.27392 2.96996 3.10248 22
59 1 -8.02968 0.172721 0.817805 19
60 1 0.951728 -7.39332 -1.73241 21
61 1 0.323782 9.04449 -1.07582 16
62 1 -10.268 2.85952 3.84665 11
63 1 2.90064 7.11251 8.31174 11
64 1 5.43628 -2.00137 11.3636 11
65 1 3.72109 -8.83135 -2.57659 16
66 1 7.66354 -0.342708 -6.20164 15
67 1 -1.11497 -6.1273 0.656882 18
68 1 -0.466051 -8.81285 0.794361 20
69 1 8.20363 -2.79103 9.52124 10
70 1 1.63224 -4.7897 3.96475 20
71 1 6.4499 6.3683 0.459068 15
72 1 -4.02975 -7.6587 2.02751 17
73 1 -0.48889 -11.7474 1.98176 9
74 1 -4.86784 -4.54824 -0.902249 20
75 1 1.21867 -1.74233 4.02545 20
76 1 -1.61848 -2.24837 -5.3173 23
77 1 -2.46971 0.0665966 -7.37291 22
78 1 3.59464 -5.00105 -1.58198 21
79 1 -3.22523 -2.7917 9.13168 15
80 1 -9.62486 1.71507 6.42159 10
81 1 4.58072 -9.00813 0.286219 12
82 1 -3.63833 -4.49517 2.22098 19
83 1 -0.974644 1.67589 7.55001 16
84 1 -9.47647 -0.610077 3.65057 14
85 1 -1.24415 8.7865 3.94813 12
86 1 -6.04094 5.76887 3.69891 17
87 1 0.76579 3.27786 0.727809 20
88 1 -2.78286 5.51239 8.56251 13
89 1 -10.1377 -3.06738 -5.33548 9
90 1 6.49105 -0.600921 5.5887 19
91 1 -6.26008 3.92667 -4.23087 21
92 1 -7.34037 -4.64467 -6.24524 14
93 1 8.53236 2.25001 6.5855 12
94 1 -2.36451 2.90017 0.211306 23
95 1 -0.477973 -4.37919 8.29317 18
96 1 -5.57702 -0.363458 -8.4499 13
97 1 -9.14134 2.74553 -2.65467 18
98 1 -0.965956 -9.72254 -2.81842 14
99 1 -2.52948 -3.64711 -0.317784 18
100 1 3.34764 1.02208 0.449426 23
101 1 -5.47738 5.02173 6.79893 13
102 1 -1.4494 -0.322091 3.81673 22
103 1 -4.25982 4.72566 -1.85363 18
104 1 2.72086 -5.95572 -4.4662 23
105 1 2.00239 8.4395 5.10737 13
106 1 1.76669 2.39757 -4.30105 21
107 1 -10.5787 2.38099 -5.0849 7
108 1 -7.38027 7.48588 -2.5651 14
109 1 -0.527037 -7.23528 -4.752 16
110 1 4.73526 -6.0009 6.23114 14
111 1 -4.02242 7.13855 -3.49279 18
112 1 -5.41578 -0.315131 8.45621 11
113 1 2.44643 -1.63446 -1.53895 18
114 1 -8.28735 4.70615 5.70662 12
115 1 2.75178 -8.58975 -7.89863 10
116 1 -1.33662 -4.1474 4.78908 22
117 1 2.44268 -6.0031 8.22987 12
118 1 4.31865 -3.03113 -4.23954 22
119 1 6.23292 2.65537 -0.137276 20
120 1 -4.84501 3.36299 4.09613 22
121 1 2.39356 -0.430634 -9.29063 14
122 1 3.93466 4.4462 0.381303 20
123 1 6.49939 -3.44444 6.54735 14
124 1 -4.29464 -8.51982 -3.43641 11
125 1 -7.03005 -2.93177 4.06422 19
126 1 9.76535 3.89595 3.97464 11
127 1 9.88303 3.48268 -2.88026 12
128 1 -2.41416 4.89935 -8.7708 14
129 1 -1.50727 7.26129 -6.16747 18
130 1 5.58197 8.95258 -3.24204 10
131 1 4.211 4.78027 -8.32915 11
132 1 2.26544 -9.9239 2.51218 13
133 1 1.89097 5.06363 -2.29501 22
134 1 7.90644 -4.96479 -1.86737 15
135 1 1.67132 -10.321 -0.500122 13
136 1 -6.37717 7.01735 -5.61383 12
137 1 0.713761 0.54288 2.03781 23
138 1 9.59235 -2.03631 -1.49789 16
139 1 0.714767 5.28856 -5.16453 23
140 1 -1.03503 7.14551 -2.85861 23
141 1 5.0849 -8.24736 -5.43856 13
142 1 2.17938 -6.7574 1.27636 18
143 1 -5.71718 -3.63243 7.39818 12
144 1 1.65009 -9.10419 -5.3766 14
145 1 1.87689 -5.61034 -9.24083 15
146 1 4.87797 6.19438 -2.4808 22
147 1 4.12439 -4.5241 1.63272 19
148 1 3.97865 0.0196847 -5.1568 20
149 1 -10.5895 -3.21133 -1.57896 14
150 1 -4.48007 -6.13555 -5.029 15
151 1 -0.618681 -2.36061 11.0254 14
152 1 -0.998749 0.337376 12.7829 9
153 1 4.18505 -3.3157 -9.63522 15
154 1 -9.08018 5.64253 -4.09994 12
155 1 6.85132 4.46941 -4.36927 16
156 1 6.71682 1.04447 -3.16328 22
157 1 3.09185 -1.6853 1.37616 22
158 1 -3.29926 2.0468 -10.0542 11
159 1 -8.85759 5.23511 2.59357 14
160 1 2.60242 -3.03105 9.61568 16
161 1 1.95562 3.83732 6.34858 20
162 1 -7.37675 1.83146 -6.44694 15
163 1 8.83554 -2.8182 4.10354 14
164 1 -2.43713 -6.707 -1.98326 20
165 1 6.57609 1.33419 8.40895 18
166 1 2.11964 -7.91256 5.39894 15
167 1 3.47387 7.7358 -0.584611 15
168 1 1.63872 -3.03391 6.89304 22
169 1 7.74129 -0.118794 0.186975 20
170 1 4.69246 4.85302 4.18164 21
171 1 6.17788 -2.89014 -0.988746 24
172 1 6.77128 3.91131 5.9047 16
173 1 -0.387679 -7.58867 -8.05276 13
174 1 4.72308 4.68077 7.92475 16
175 1 -6.99722 3.41646 -1.054 19
176 1 -2.6313 4.74648 -4.54062 19
177 1 -1.31052 -1.23991 6.68044 20
178 1 0.241263 -4.61666 -3.33717 21
179 1 -2.9177 -9.39092 -0.540721 14
180 1 2.65413 2.94613 3.20438 20
181 1 -1.61559 3.86575 5.85881 21
182 1 -6.3533 -0.0211241 3.88715 21
183 1 5.49267 7.01111 -5.94027 16
184 1 2.23805 -0.404942 11.6852 14
185 1 -6.40227 0.649879 -2.86821 20
186 1 -0.878665 -0.719436 -10.1474 15
187 1 3.34738 1.8274 9.11601 21
188 1 7.15288 -2.2231 -3.85867 18
189 1 4.34999 7.64748 2.59088 12
190 1 4.414 -3.19771 4.62195 21
191 1 -2.44889 6.81748 -0.189193 23
192 1 -5.30473 1.18382 0.144534 22
193 1 3.81697 -5.3912 -7.17202 19
194 1 4.89894 -0.521826 -1.772 21
195 1 5.39342 -4.44001 9.04339 12
196 1 -4.32281 -1.24517 -1.41273 24
197 1 1.16292 -1.77843 -3.99659 18
198 1 -3.77255 2.43667 8.1244 16
199 1 9.02449 1.78679 2.00773 18
200 1 0.219795 10.1818 -4.28549 13
201 1 1.16803 1.25085 5.20512 22
202 1 9.08664 2.49176 -5.68787 12
203 1 -2.1116 0.090646 9.75678 17
204 1 -3.28407 -6.00845 7.91692 10
205 1 -4.91923 8.45833 -1.03557 16
206 1 7.13277 4.48502 2.49971 18
207 1 -4.9881 -5.34259 4.71889 18
208 1 3.75306 -0.0377979 3.73733 20
209 1 -6.11936 -7.79096 -0.466932 12
210 1 9.13166 4.31212 0.100948 14
211 1 6.37192 -6.1052 0.485137 15
212 1 -0.66397 3.965 -2.11588 21
213 1 4.80168 6.99082 5.86501 12
214 1 -9.79408 -5.41089 -3.89725 11
215 1 -3.99779 2.63723 -7.01224 19
216 1 1.03062 8.54304 -6.85941 15
217 1 -6.13016 -2.75308 -3.76439 21
218 1 1.14154 -2.86906 -10.9881 12
219 1 -6.7606 -7.01624 -3.58778 13
220 1 -2.18602 -0.343342 0.537518 22
221 1 -0.895501 -7.01032 3.2596 20
222 1 8.2942 -3.65478 0.944409 16
223 1 -11.1243 -0.779083 0.730191 10
224 1 -4.02699 7.68289 -7.51665 11
225 1 -3.10514 -3.8436 -3.51931 22
226 1 10.3815 0.516038 4.54929 13
227 1 1.08024 -4.10175 -0.773877 22
228 1 -3.30459 -2.67766 -8.86273 16
229 1 -7.17094 7.64661 0.929017 12
230 1 -7.83316 -1.26024 6.67583 13
231 1 0.456376 -4.85935 -6.65062 22
232 1 8.33284 6.52458 -2.23539 10
233 1 5.94589 1.6744 3.22825 20
234 1 -0.379386 -6.7472 6.17798 17
235 1 5.52591 -0.78142 -7.94234 12
236 1 3.6689 9.67873 -6.11672 11
237 1 3.40363 4.5007 10.7758 11
238 1 2.24522 7.98435 -3.86491 22
239 1 10.1192 1.16758 -0.880235 14
240 1 -0.260694 -2.75377 1.70328 19
241 1 -3.64569 0.831211 5.72137 19
242 1 6.57193 -3.45775 -6.83835 13
243 1 -0.136186 -2.59896 -8.08634 23
244 1 -0.324104 6.99215 6.75612 15
245 1 0.310045 1.25551 -1.53116 19
246 1 -2.1006 9.66047 0.860149 12
247 1 -2.78464 -10.2532 2.86884 12
248 1 4.18938 -7.28804 3.32307 15
249 1 -7.71171 -4.92509 -1.27926 17
250 1 -4.86956 9.48827 -4.46709 12
251 2 -10.0889 0.968622 4.55084 12
252 2 8.52224 3.76751 5.30352 14
253 2 -1.32625 -3.39352 9.65301 16
254 2 -6.60738 -2.98784 -5.59946 17
255 2 -8.81056 6.17708 -2.35113 14
256 2 -1.02 -8.10698 4.75239 16
257 2 0.879797 0.347227 12.6126 10
258 2 4.76448 0.754418 8.1452 18
259 2 -4.20685 -0.163412 0.993911 21
260 2 -2.01812 5.95048 6.84963 14
261 2 -3.15528 5.61872 1.27921 23
262 2 0.82846 -0.561532 -1.85524 19
263 2 6.06615 -3.57667 -4.90478 18
264 2 -4.18138 0.939822 -8.76952 15
265 2 3.0052 -6.78796 -8.33886 16
266 2 1.60356 -2.98008 -2.70704 19
267 2 -4.32693 -3.29066 0.648376 20
268 2 -2.84732 7.91511 3.74369 15
269 2 9.85733 -1.07675 3.59055 14
270 2 2.19863 -0.499372 2.62495 21
271 2 -3.9923 2.44839 0.894577 22
272 2 8.12302 5.98177 -0.471864 13
273 2 0.951733 6.65511 8.18151 12
274 2 4.97741 6.63432 4.00431 14
275 2 2.88308 9.16967 -7.67923 10
276 2 3.99468 -1.52428 -8.88171 15
277 2 -8.75783 1.46762 -5.22923 15
278 2 1.38873 -6.952 6.87726 14
279 2 -7.67006 0.688727 2.78239 22
280 2 4.53994 -6.5569 -5.83678 18
281 2 -1.91282 -10.2453 1.12349 15
282 2 2.42142 1.28228 -5.61831 21
283 2 -0.675115 -0.0948396 8.16034 21
284 2 4.46682 -3.0944 10.1962 13
285 2 -3.73255 -8.85179 3.58555 13
286 2 6.10744 4.52936 0.77263 17
287 2 1.03615 -10.8601 1.24389 12
288 2 -1.08954 1.17781 -6.88687 23
289 2 0.773547 -5.68266 -4.91334 21
290 2 -5.04819 -6.01103 2.5398 17
291 2 -1.7541 -7.71972 -0.409342 18
292 2 -5.76865 -8.02327 -2.2527 15
293 2 0.397321 6.79249 2.2328 20
294 2 -1.81084 -1.46457 -8.5858 19
295 2 8.61093 4.88032 -3.21715 12
296 2 0.595355 6.65721 -6.57489 18
297 2 -7.05931 2.66359 -3.07558 22
298 2 -7.15642 5.48806 -4.8821 14
299 2 2.53994 4.37043 4.56317 18
300 2 2.57223 8.13208 3.37913 16
301 2 -4.44671 5.32078 5.05241 19
302 2 2.44742 4.17096 1.60425 17
303 2 0.435269 8.55926 -3.06669 20
304 2 1.78331 9.51805 -5.26801 12
305 2 -1.32871 5.11755 9.5746 12
306 2 -2.37451 1.45224 3.27176 20
307 2 4.18942 -0.329682 11.7312 13
308 2 2.44808 -3.90736 -10.1896 15
309 2 2.44149 -7.52519 -3.07201 19
310 2 0.149072 -5.97693 -8.83055 17
311 2 -7.03794 -1.44868 0.565056 20
312 2 2.42119 6.11702 -4.30096 20
313 2 -6.37471 -5.72309 -0.00577416 18
314 2 7.9828 -5.24482 0.100702 15
315 2 9.00379 4.13773 2.1165 13
316 2 -4.99529 -2.18448 -8.32316 13
317 2 0.990112 -1.14548 -10.3603 13
318 2 4.57249 0.67974 -3.23163 20
319 2 -1.3523 -6.65153 -6.66511 15
320 2 2.17462 -4.26322 -7.12914 19
321 2 7.05676 -1.79604 -7.36933 11
322 2 -7.709 -3.99857 2.45817 15
323 2 -0.369718 -3.51506 -10.039 15
324 2 5.36726 -2.18006 -2.71804 21
325 2 2.94134 3.67004 -3.42771 20
326 2 0.970903 -8.61542 -7.15775 12
327 2 -1.52629 1.16049 -9.84453 13
328 2 -1.67377 4.67384 4.14498 17
329 2 -4.43805 -8.43332 0.343642 14
330 2 -5.13434 1.34893 4.5175 19
331 2 -8.01479 5.7774 4.23051 15
332 2 -5.80246 -3.69283 5.50314 13
333 2 -3.16898 -3.80255 4.11811 18
334 2 -11.3128 -1.74319 -0.946622 12
335 2 4.44631 -5.62455 7.929 12
336 2 7.08956 1.38545 1.63972 19
337 2 1.39333 -1.45062 -7.58398 23
338 2 3.47066 5.69872 -1.21487 20
339 2 3.56141 5.60111 9.24141 14
340 2 -1.78095 -0.886431 11.5089 12
341 2 -8.73357 6.44563 1.125 12
342 2 -0.964766 3.88125 1.23264 22
343 2 -8.99155 -1.6762 -4.99779 14
344 2 -1.35676 -3.09762 -3.56603 21
345 2 4.36401 2.67625 -0.468663 19
346 2 -9.94961 -1.43573 1.93355 16
347 2 -2.26415 6.78212 -4.46959 20
348 2 1.51619 1.32998 -8.63818 16
349 2 -9.37029 3.65366 -0.928733 15
350 2 -0.36404 -3.06387 6.48608 20
351 2 4.85597 7.28909 0.834439 15
352 2 6.84548 -6.15696 -2.92856 15
353 2 3.5184 -9.81803 -0.957732 12
354 2 -5.94013 7.13639 2.40656 14
355 2 0.256987 -7.11561 1.65139 20
356 2 2.93983 -5.7836 2.80274 18
357 2 1.72622 3.87112 10.697 12
358 2 -0.554045 7.33316 -0.670382 20
359 2 -4.0675 -4.15567 8.18669 12
360 2 -2.35612 -6.05474 2.3647 20
361 2 -6.08365 4.14022 2.6813 21
362 2 -2.79517 -0.975855 5.4169 18
363 2 -0.712445 4.12933 -8.63853 17
364 2 1.90064 -2.66119 0.247235 20
365 2 6.56257 0.546028 -1.27172 23
366 2 3.41762 0.507441 5.4413 22
367 2 -7.83001 -0.536603 -2.13221 23
368 2 6.11474 3.49371 4.08068 19
369 2 5.40515 5.31915 6.21157 15
370 2 7.93285 -2.97884 -2.11933 19
371 2 -8.82923 -3.72327 -0.483996 16
372 2 -1.08553 2.1047 11.8033 10
373 2 -0.102312 -0.69372 -4.849 21
374 2 -6.21064 -3.42919 -1.92841 19
375 2 7.3935 -2.04565 11.2347 9
376 2 -0.600369 -0.760309 1.88621 19
377 2 -3.96152 3.57605 -8.78254 12
378 2 6.04534 -0.307177 3.54952 21
379 2 2.34828 -1.67601 7.93024 19
380 2 4.51761 -2.71721 2.48954 21
381 2 -0.779699 -4.19123 0.25658 20
382 2 -2.54072 3.64046 -1.73439 21
383 2 -10.51 1.24738 -3.13871 12
384 2 -3.66245 6.70386 -1.59713 18
385 2 -5.97205 7.88487 -3.94964 16
386 2 -7.22911 1.95641 0.309806 20
387 2 -1.41044 -5.90323 7.57213 15
388 2 3.81494 8.27306 -2.62284 17
389 2 -9.15688 -4.80594 -5.60272 9
390 2 9.81091 0.375489 0.868738 14
391 2 -4.24599 9.53361 -2.70383 14
392 2 7.95673 -4.0233 2.83486 13
393 2 -4.10761 -6.31564 6.05183 13
394 2 -4.10275 -2.11401 -3.36298 20
395 2 -2.5143 3.63984 -6.08682 18
396 2 -6.82597 7.81984 -0.850819 13
397 2 4.1717 1.57237 2.59532 24
398 2 1.55746 -4.2978 8.43523 17
399 2 -9.16562 3.31146 2.34083 16
400 2 -1.32088 10.1029 -0.941233 14
401 2 -2.17882 2.1491 9.12022 18
402 2 -9.75338 3.9076 -4.29533 11
403 2 6.53144 7.41088 -2.2617 14
404 2 -4.24897 4.50672 8.1598 14
405 2 -2.40506 2.21164 6.051 22
406 2 3.71523 -0.737568 -0.213873 20
407 2 -1.45042 1.31274 -0.361339 26
408 2 -3.75806 -4.32476 -5.38516 20
409 2 1.12174 3.54092 -6.33444 22
410 2 -0.836357 -6.38892 -2.9635 21
411 2 -3.28829 -1.40735 -6.26778 24
412 2 5.06355 -1.99157 6.13858 18
413 2 0.348512 2.55641 6.50715 15
414 2 9.72545 2.1128 -3.87001 14
415 2 3.94115 -7.28661 5.20913 12
416 2 5.38244 0.44105 -6.583 15
417 2 4.21388 2.92362 10.5736 14
418 2 -2.70045 0.995576 -3.92847 23
419 2 0.0214162 2.27913 -3.26365 22
420 2 -5.03522 1.17436 7.34376 18
421 2 -10.2034 -3.70771 -3.35537 11
422 2 0.239797 -9.59116 -1.3423 16
423 2 -0.128334 5.43473 -3.36375 19
424 2 -9.66426 3.40534 5.7045 10
425 2 -7.9866 -1.31132 4.77667 17
426 2 0.160051 -8.93482 -4.11535 14
427 2 3.21471 3.20518 7.50667 19
428 2 -4.57211 5.0089 -3.70393 18
429 2 -2.50291 6.38665 -7.73089 15
430 2 4.87091 6.34105 -7.53064 10
431 2 3.55349 -9.04289 -6.09222 12
432 2 9.90106 0.733719 6.3582 12
433 2 6.80691 0.92185 10.6302 12
434 2 -0.846833 9.01712 -6.24761 14
435 2 -6.00014 -0.713577 -4.09453 20
436 2 -2.70176 -4.52357 -8.67992 15
437 2 -3.30599 -4.97724 -1.72214 21
438 2 0.0225362 8.42229 5.39827 13
439 2 -1.62861 10.7431 -4.10697 12
440 2 -3.506 8.45198 0.64282 15
441 2 -6.60587 3.67179 5.79792 16
442 2 -2.56422 -1.68161 -0.96024 20
443 2 2.55922 5.64997 -8.4367 13
444 2 4.94488 -3.88237 -7.96158 15
445 2 -4.66443 0.742354 -1.96689 20
446 2 -3.93087 9.03395 -6.10039 13
447 2 -5.82654 2.85769 -6.53381 14
448 2 3.93327 -4.87768 -3.46688 18
449 2 7.02264 -3.74009 8.36593 13
450 2 -6.30722 -1.81645 7.5664 13
451 2 -1.023 -3.58107 -6.46393 22
452 2 -7.95914 0.733157 6.99325 13
453 2 6.17181 3.01128 -3.13496 19
454 2 8.06487 -2.06012 5.7623 17
455 2 -9.87874 0.756526 0.0228326 19
456 2 0.226621 -0.445498 5.04798 21
457 2 1.41629 -9.41712 4.15956 16
458 2 10.0692 2.07476 3.65149 12
459 2 5.40795 -8.66874 -3.37334 12
460 2 -0.659182 9.39582 2.13033 16
461 2 -6.88554 0.196194 -7.28263 13
462 2 -3.70587 -0.884509 9.12467 16
463 2 2.53188 -3.26289 5.08853 20
464 2 1.32787 1.38399 0.271327 21
465 2 4.02846 3.47008 -6.89951 18
466 2 9.77228 2.8912 -0.928949 13
467 2 0.769403 4.54878 -0.751323 21
468 2 8.86874 -0.94059 8.97787 10
469 2 2.99884 -1.58914 -5.02317 20
470 2 -6.37 -5.85634 -5.06212 14
471 2 -5.54861 -1.87186 3.36877 17
472 2 7.28402 -0.402467 -4.26505 22
473 2 5.60007 -5.74129 2.25051 17
474 2 6.98253 -1.95855 0.572675 23
475 2 5.01298 -4.40463 -0.149417 23
476 2 1.6539 1.284 9.68505 21
477 2 7.13852 3.11043 -6.01152 14
478 2 -8.19479 -5.94976 -2.80489 14
479 2 7.33804 0.720271 6.6988 18
480 2 -5.38796 4.16309 -0.579139 19
481 2 5.64643 -4.60704 4.92968 18
482 2 5.26625 8.7516 -5.0328 12
483 2 9.43111 -0.165623 -2.01143 16
484 2 5.25071 5.72741 -4.63329 20
485 2 -0.103655 -5.63392 4.51782 17
486 2 1.85031 -5.89146 -0.74214 18
487 2 9.87436 -2.28572 0.365291 14
488 2 3.46245 -8.52679 1.81322 14
489 2 -3.46923 -6.84823 -3.6597 17
490 2 1.94884 8.32808 0.0537861 15
491 2 3.0794 7.74278 6.44044 13
492 2 -1.38967 -11.2485 3.58206 9
493 2 1.21821 -2.06331 10.5916 16
494 2 0.624168 2.44656 3.43401 22
495 2 5.90493 3.12261 7.5348 16
496 2 9.31862 0.644157 -5.85477 9
497 2 0.365303 -3.35451 3.52066 18
498 2 -5.36894 6.32467 -7.18563 13
499 2 -2.95886 -9.5141 -2.45179 12
500 2 5.85736 -7.74312 -0.430039 13
