ITEM: TIMESTEP
8013000
ITEM: NUMBER OF ATOMS
500
ITEM: BOX BOUNDS pp pp pp
-30.0 30.0
-30.0 30.0
-30.0 30.0
ITEM: ATOMS id type x y z Coordination
1 1 -3.46913 -0.312009 -4.81835 23
2 1 9.92165 -1.04695 5.84704 11
3 1 1.93993 5.49237 12.2539 9
4 1 9.30702 -1.71429 0.444466 16
5 1 -6.50593 2.92569 2.59561 20
6 1 -4.45827 -2.42112 -7.04082 23
7 1 1.43049 -0.797381 8.47352 21
8 1 1.14607 -4.05439 -5.59112 21
9 1 -11.4854 0.62668 -1.08715 14
10 1 -0.901326 1.84623 -9.68197 13
11 1 4.73319 -6.21643 -4.29211 17
12 1 3.9272 0.354123 5.79721 22
13 1 1.81976 3.46664 -4.98774 19
14 1 1.92666 5.33451 2.8775 20
15 1 6.26 -1.15126 10.3409 12
16 1 -8.40224 -2.71251 2.3928 17
17 1 -10.5634 2.83223 1.51961 13
18 1 8.99904 -1.8473 -5.21782 10
19 1 8.8705 0.713883 8.8977 11
20 1 -6.34413 -5.17445 2.96909 14
21 1 -4.20232 -5.6136 -7.40766 17
22 1 0.801064 0.0489965 -7.27635 20
23 1 2.73817 2.08932 -8.03322 13
24 1 7.11044 -5.40266 3.33272 16
25 1 -2.44111 6.74584 4.95489 17
26 1 6.04309 1.59185 8.02306 21
27 1 2.3028 10.1331 1.2526 11
28 1 -1.1153 -1.5006 -6.22456 21
29 1 -3.19624 -6.00625 -10.515 10
30 1 -0.678231 4.38792 10.2066 12
31 1 6.83993 -2.33464 1.9496 22
32 1 -3.51123 8.11361 2.14938 14
33 1 -4.39562 4.81503 1.27587 24
34 1 1.8822 6.34163 -8.03436 11
35 1 6.44881 0.934204 -3.82336 21
36 1 -1.4868 8.76091 -5.47211 17
37 1 -1.70534 -1.15824 -2.80366 21
38 1 -2.57164 1.75654 -7.20646 21
39 1 -3.06921 1.57783 -2.47979 22
40 1 -2.15803 10.7004 -2.78688 13
41 1 0.396361 7.80962 -2.54439 24
42 1 -6.96044 4.28861 -0.0470905 18
43 1 0.838437 6.96549 9.17602 12
44 1 -4.12221 6.89549 -6.13429 14
45 1 -2.66434 -7.69848 6.38655 12
46 1 -2.88169 1.00917 2.35184 21
47 1 -3.77875 -1.82923 5.54325 19
48 1 -7.17203 -1.5894 -0.247877 21
49 1 5.24548 -8.8383 -2.12328 15
50 1 -6.12629 2.60955 7.82088 13
51 1 -11.408 1.77373 -4.32536 10
52 1 0.204457 -9.56092 6.10282 11
53 1 6.28223 1.997 -7.26429 14
54 1 -4.91283 -1.15929 2.21041 22
55 1 -8.13226 1.27177 -5.63071 17
56 1 -0.278782 3.96947 -7.50384 19
57 1 -1.40143 5.86741 2.29353 21
58 1 -0.213602 3.28983 2.99464 19
59 1 -7.79393 0.476897 2.63125 22
60 1 1.48184 -8.94499 -0.965926 21
61 1 0.954628 11.4917 -1.36875 11
62 1 -10.3643 2.77108 4.53054 13
63 1 3.51084 8.00445 7.58763 12
64 1 4.7516 -1.45503 7.60025 23
65 1 3.34408 -11.2031 -2.18595 11
66 1 6.28174 -1.17556 -6.62628 13
67 1 -2.75981 -6.42368 0.548267 23
68 1 -1.04246 -7.01579 -1.90354 20
69 1 9.09424 -2.31771 8.74993 9
70 1 2.28298 -5.39206 4.50598 22
71 1 6.57556 8.07781 -0.245909 13
72 1 -3.53917 -7.16181 3.33899 14
73 1 -0.756106 -8.99099 1.09977 19
74 1 -5.0144 -4.0007 0.42175 23
75 1 1.1758 0.783129 4.82294 24
76 1 -3.00439 -3.66243 -4.79314 22
77 1 -2.33823 -0.806638 -9.27851 18
78 1 3.30069 -5.83015 -0.943812 23
79 1 -1.97652 -2.49439 10.062 14
80 1 -7.91472 1.98593 5.54375 15
81 1 4.03179 -9.37045 0.657579 13
82 1 -3.12277 -4.12428 3.03816 21
83 1 -0.0524902 2.21982 7.77177 16
84 1 -9.51626 -0.943257 4.97357 13
85 1 0.157894 8.01006 2.84689 19
86 1 -5.67041 5.94521 4.13046 16
87 1 2.80072 3.74759 -0.202528 18
88 1 -1.88871 6.54486 7.95974 12
89 1 -9.11544 -0.536284 -2.94733 18
90 1 6.7604 -0.444946 5.05684 21
91 1 -5.48579 2.23327 -4.65146 21
92 1 -6.31168 -4.85063 -5.19273 17
93 1 8.00431 1.93099 5.98752 16
94 1 -1.99758 3.31095 0.0684722 20
95 1 0.432465 -3.48468 8.37584 18
96 1 -5.63765 0.746207 -7.04725 18
97 1 -10.3107 3.55863 -1.67305 12
98 1 -1.51282 -9.69186 -1.48989 17
99 1 -2.59248 -3.84327 -1.20228 20
100 1 2.95233 0.361863 0.182979 21
101 1 -4.99287 5.35168 7.06781 12
102 1 -1.13446 -1.41515 3.82097 22
103 1 -4.18464 4.2861 -2.05407 22
104 1 1.57647 -6.59357 -3.60933 22
105 1 2.87167 8.90118 4.32793 13
106 1 -0.6565 1.40485 -4.68842 24
107 1 -9.85972 4.29163 -5.08203 9
108 1 -5.44532 6.64598 -1.63138 18
109 1 -2.32139 -8.63579 -4.20193 17
110 1 5.64957 -6.05011 6.0776 15
111 1 0.813164 11.0451 -4.56776 13
112 1 -3.77541 0.218021 8.41083 19
113 1 1.0756 -1.56283 -0.728675 20
114 1 -8.17406 5.0082 6.32805 9
115 1 0.448347 -8.59544 -6.26469 15
116 1 -0.727335 -3.94069 5.3638 21
117 1 3.06587 -4.65423 7.24083 19
118 1 3.14899 -3.72506 -2.62213 21
119 1 5.41622 2.19811 -0.970878 22
120 1 -3.53534 3.54089 4.28365 19
121 1 0.965496 -0.655524 -10.291 12
122 1 5.22552 5.84662 -1.26575 20
123 1 7.81812 -3.60679 6.07647 15
124 1 -4.74438 -9.06922 -2.28607 15
125 1 -6.61493 -2.35973 5.05871 18
126 1 7.50991 3.20796 2.97909 18
127 1 8.07045 3.30822 -2.62805 18
128 1 -4.32131 2.18104 -9.51365 13
129 1 -1.39048 7.24343 -7.85748 14
130 1 5.16823 6.50956 -4.55946 17
131 1 4.8374 4.55641 -7.417 13
132 1 1.89622 -9.28585 3.52862 13
133 1 4.92102 3.68315 -3.85545 20
134 1 7.37168 -6.42722 -2.49582 13
135 1 1.0657 -11.8612 -0.463779 8
136 1 -6.70086 6.39389 -4.70091 11
137 1 -0.166809 0.616706 1.72832 18
138 1 9.02118 -3.42725 -2.43967 14
139 1 -2.66684 3.80597 -5.00534 20
140 1 -0.0779194 5.92358 -5.30498 21
141 1 3.10487 -8.84551 -4.80254 14
142 1 1.98425 -6.81124 1.63943 19
143 1 -4.58729 -2.82051 8.02245 13
144 1 0.429447 -10.8197 -3.75596 14
145 1 -0.281809 -6.43521 -8.66231 16
146 1 4.28411 7.68926 1.6431 15
147 1 4.2241 -4.44888 2.18757 21
148 1 3.93829 0.619086 -5.56049 20
149 1 -10.3066 -2.18814 -0.647258 13
150 1 -5.10438 -8.06283 -5.42058 13
151 1 0.924261 -1.17177 11.3438 14
152 1 0.826638 2.27348 11.4453 14
153 1 1.10798 -3.42859 -8.2035 16
154 1 -7.71302 3.7565 -3.02588 18
155 1 7.58561 4.69334 -5.68862 13
156 1 4.48431 -1.10677 -2.57592 20
157 1 3.16902 -3.03946 0.0354086 21
158 1 -6.47745 -0.839657 -9.1506 11
159 1 -8.43645 5.16134 2.94188 14
160 1 3.29064 -2.70751 10.0657 15
161 1 2.28367 3.75946 5.65725 16
162 1 -5.94691 4.04827 -7.24688 15
163 1 9.89136 -3.27365 3.55224 11
164 1 -3.92082 -6.03553 -2.73562 23
165 1 7.49196 3.93311 8.97909 9
166 1 3.02513 -7.97055 6.35535 12
167 1 5.94865 9.18516 -3.90556 9
168 1 1.82969 -2.29965 5.60774 23
169 1 6.90596 -0.562652 -0.534415 21
170 1 5.19499 3.03755 4.99443 20
171 1 6.18824 -4.02028 -0.92842 20
172 1 7.34578 5.11145 5.63398 13
173 1 -2.71443 -8.13498 -7.55906 14
174 1 4.87666 4.76795 8.04911 15
175 1 -8.29113 1.549 -0.408531 21
176 1 -2.44112 6.75678 -3.60972 21
177 1 -0.780861 -0.79882 6.96345 23
178 1 -0.0390223 -4.13236 -3.06426 22
179 1 -3.95915 -9.63226 0.696718 12
180 1 5.02314 4.41599 1.86274 22
181 1 -0.660618 4.40538 5.48337 20
182 1 -5.53542 0.589484 4.97226 21
183 1 3.86376 8.13844 -7.38787 9
184 1 4.20606 3.26601 10.6555 13
185 1 -6.17926 0.208079 -2.61435 19
186 1 -4.07959 -3.40624 -10.3236 14
187 1 3.63018 0.343286 9.59812 17
188 1 6.21329 -3.63756 -4.16838 16
189 1 3.48525 8.95205 -1.52043 15
190 1 4.95711 -3.21709 4.96994 21
191 1 0.382024 5.73959 -0.203232 18
192 1 -4.93799 1.72497 -0.133964 24
193 1 2.62723 -6.33669 -6.88902 13
194 1 2.76967 1.50414 -2.9161 22
195 1 6.10439 -3.99113 8.78162 14
196 1 -4.27881 -0.900833 -0.724384 20
197 1 1.37827 -1.3394 -4.009 23
198 1 -2.58637 3.29946 8.05143 18
199 1 8.55751 1.68696 0.3571 15
200 1 3.68195 11.5885 -2.5063 8
201 1 3.05166 1.93132 2.92392 20
202 1 9.06817 1.8289 -5.42863 12
203 1 -1.2402 0.834587 9.9873 16
204 1 -2.54015 -5.19085 7.72992 13
205 1 -4.43116 9.48295 -0.442792 14
206 1 6.95326 6.59402 3.01554 12
207 1 -5.06318 -5.32876 5.61752 14
208 1 3.38206 -1.48245 3.11031 21
209 1 -5.88212 -6.97431 0.0806422 14
210 1 7.4206 4.91388 0.142614 16
211 1 6.13464 -6.97807 0.568133 18
212 1 -0.116958 4.03717 -2.73128 23
213 1 4.22682 6.33282 4.87196 20
214 1 -8.82928 -4.13741 -3.31686 12
215 1 -2.97107 4.69044 -8.59072 15
216 1 0.885022 9.43372 -7.16219 12
217 1 -6.94222 -1.73316 -5.34717 17
218 1 -0.87959 -3.18703 -10.4809 13
219 1 -7.04987 -6.70584 -2.78814 14
220 1 -2.0193 -1.89107 0.787148 22
221 1 -0.326454 -6.44105 2.94724 20
222 1 8.61915 -4.88869 0.540743 15
223 1 -10.4934 -0.0689904 2.13278 15
224 1 -2.20429 6.78777 -0.555132 22
225 1 -5.62963 -2.91516 -2.7461 21
226 1 8.95741 -0.125662 3.22292 15
227 1 0.260084 -4.3931 -0.117521 22
228 1 -6.45548 -4.04934 -8.76782 10
229 1 -6.55801 7.299 1.34364 13
230 1 -7.1463 -0.667317 7.57668 11
231 1 -1.41733 -6.03374 -5.17084 23
232 1 8.04115 6.64449 -2.86095 11
233 1 5.74095 0.762738 2.21944 19
234 1 0.171041 -6.40002 6.4815 15
235 1 3.45255 -1.17358 -8.41655 12
236 1 2.85312 8.40007 -4.51782 19
237 1 3.75535 6.37784 10.4956 11
238 1 2.53106 5.6052 -2.87324 21
239 1 9.07381 0.0900635 -2.40794 16
240 1 0.697563 -3.25978 2.39212 26
241 1 -2.32429 1.03067 5.38017 22
242 1 4.35178 -3.80385 -6.8562 14
243 1 -1.86076 -3.61609 -7.70976 23
244 1 0.64023 7.53707 5.96949 14
245 1 0.293894 1.17194 -1.63024 21
246 1 -0.953403 9.3146 0.16851 18
247 1 -2.20224 -9.85605 3.79413 11
248 1 4.6176 -7.38517 3.2112 17
249 1 -8.20736 -4.97471 -0.118287 15
250 1 -4.66857 8.79571 -3.39068 12
251 2 -9.61604 1.03271 4.89861 13
252 2 7.44004 3.31125 4.82626 17
253 2 0.044925 -2.40145 10.18 15
254 2 -5.90165 -1.11315 -6.83072 17
255 2 -6.23797 4.73278 -1.82686 18
256 2 -0.783764 -8.07565 6.35037 14
257 2 3.54683 4.65483 11.6917 10
258 2 1.90732 6.76127 10.6261 10
259 2 -0.161306 -2.47359 0.779457 19
260 2 -0.989224 6.31277 6.23688 17
261 2 -3.09771 6.22282 1.29429 23
262 2 3.08528 -1.17314 -0.747871 21
263 2 5.21269 -4.70881 -5.36031 15
264 2 -6.00787 -2.52721 -9.87616 9
265 2 0.944528 -7.11867 -7.51368 16
266 2 3.19706 -0.154791 -3.83266 18
267 2 -3.81872 -2.86482 1.54863 22
268 2 -1.7093 7.55302 3.30832 17
269 2 9.3744 -1.74842 2.35638 16
270 2 2.5688 -2.8435 1.95845 22
271 2 -1.53963 2.19352 1.6155 18
272 2 7.31093 6.54468 -1.07453 13
273 2 1.62056 7.84262 7.6972 12
274 2 6.45167 7.62407 1.54361 12
275 2 1.61454 9.61592 -5.54081 14
276 2 1.86045 -1.99127 -9.39707 13
277 2 -9.83426 2.1702 -5.51285 11
278 2 2.19355 -6.23531 6.5891 17
279 2 -6.60857 2.57426 0.624354 21
280 2 3.00615 -7.00626 -5.20139 16
281 2 -2.57788 -9.79509 1.93123 14
282 2 0.150659 -0.536941 -5.33761 19
283 2 -0.101426 0.403687 8.51355 25
284 2 5.17672 -2.55263 9.62957 14
285 2 -3.04741 -8.46473 4.63698 13
286 2 4.99947 4.18463 -0.147226 20
287 2 0.073121 -10.1968 -0.315163 16
288 2 1.5059 3.43573 -6.8652 19
289 2 -2.22035 -6.76231 -3.58415 24
290 2 -4.74575 -5.7005 3.83919 16
291 2 -1.42015 -7.92342 -0.277233 20
292 2 -5.59147 -7.37122 -1.66848 17
293 2 0.380295 6.03797 1.63469 20
294 2 -1.18032 0.241565 -7.35079 21
295 2 8.24924 4.9994 -3.89811 14
296 2 -1.54219 5.09411 -4.1922 21
297 2 -6.84498 2.00274 -3.2937 22
298 2 -8.19488 4.86986 -4.46279 15
299 2 1.25723 2.96603 6.94434 13
300 2 3.52533 9.27937 2.55139 12
301 2 -4.0689 5.67593 5.41432 16
302 2 2.78413 3.77588 1.70569 18
303 2 2.35573 7.7182 -2.71309 19
304 2 1.75718 11.5719 -3.08962 11
305 2 -0.956823 5.93422 9.32286 10
306 2 -3.74629 1.54659 4.0891 19
307 2 5.55841 0.0902567 9.07411 17
308 2 -0.379662 -4.51731 -9.04359 15
309 2 0.694951 -7.825 -2.43453 23
310 2 -2.21047 -6.9469 -8.96478 13
311 2 -6.98273 -1.13335 1.72578 22
312 2 -0.701941 7.64776 -4.00176 23
313 2 -6.41352 -5.33021 0.993416 15
314 2 7.15567 -5.80533 -0.395729 16
315 2 7.18571 4.96631 2.12221 17
316 2 -3.18255 -2.45505 -8.54819 23
317 2 -0.719249 -1.35964 -9.84682 17
318 2 5.89447 0.729366 -5.77896 18
319 2 -4.12971 -7.37738 -6.71389 14
320 2 0.236593 -5.57056 -4.61763 21
321 2 4.82509 -1.8185 -7.50918 10
322 2 -7.09504 -3.71732 3.47382 17
323 2 -2.46747 -4.26893 -10.7597 11
324 2 5.01195 -3.2184 -2.7334 20
325 2 3.52694 2.47397 -4.62201 20
326 2 -1.44725 -8.44439 -6.1467 16
327 2 -2.68267 1.21917 -9.27931 15
328 2 -1.78356 4.35879 3.89924 21
329 2 -4.32897 -7.68668 1.11807 17
330 2 -6.76017 1.60911 3.86801 20
331 2 -7.41395 5.21697 4.54282 16
332 2 -5.17572 -3.28666 6.2866 17
333 2 -2.46127 -3.18875 4.54123 22
334 2 -10.932 -0.678556 0.274632 15
335 2 4.99223 -4.82725 7.48005 16
336 2 6.48313 1.24517 0.344421 22
337 2 -0.277515 -3.20747 -6.74951 23
338 2 4.57242 5.38223 -3.01758 21
339 2 4.26849 6.44871 8.70122 13
340 2 0.208234 0.438775 11.4223 13
341 2 -7.35966 5.57793 1.34623 15
342 2 3.69694 6.17713 2.72504 21
343 2 -8.18663 -0.352409 -4.73493 16
344 2 -4.59409 -4.25878 -3.59565 21
345 2 3.31061 2.03524 -1.15753 19
346 2 -9.64711 -1.54874 3.13034 13
347 2 -1.01149 10.4316 -4.73331 12
348 2 0.899005 0.965871 -9.19706 14
349 2 -11.1793 2.5717 -0.421552 12
350 2 0.420704 -2.26743 7.01499 22
351 2 4.64281 7.54104 -0.492071 18
352 2 5.91413 -7.30116 -3.12437 15
353 2 2.88263 -10.7041 -0.325676 11
354 2 -5.33017 7.30721 2.86 14
355 2 -2.24737 -5.90296 2.39476 21
356 2 3.21593 -5.97089 2.82811 23
357 2 0.992705 4.48887 4.3422 21
358 2 -1.23205 5.0394 -0.898904 19
359 2 -2.90067 -3.46286 8.62555 16
360 2 0.816943 -5.16829 1.7167 19
361 2 -5.1609 4.09535 2.93096 19
362 2 -2.83802 -0.535096 6.62237 21
363 2 0.122982 6.09605 -7.39617 18
364 2 -1.74187 -2.94538 -3.48176 23
365 2 5.99391 0.0105551 -2.23748 20
366 2 4.18933 4.47942 5.99103 20
367 2 -7.80993 -0.148616 -1.25879 23
368 2 5.3305 2.69696 2.98203 20
369 2 6.15412 6.23108 4.61675 16
370 2 7.65806 -4.55773 -2.92221 15
371 2 -8.78678 -3.06947 0.273309 16
372 2 0.648632 4.23824 11.6491 12
373 2 -2.65827 -1.87167 -1.06946 23
374 2 -5.51933 -2.4744 -0.78001 21
375 2 8.02815 -1.17166 9.75407 11
376 2 1.84358 -4.05038 -1.13424 21
377 2 -5.40527 0.688692 -9.08673 14
378 2 6.73795 -0.65478 3.16 20
379 2 3.17682 -0.18796 7.59144 20
380 2 5.28654 -2.93341 2.98079 20
381 2 0.631003 -8.16147 2.46765 19
382 2 1.53437 4.71502 -1.34984 20
383 2 -10.6722 0.711609 -2.78602 15
384 2 -3.64082 6.48193 -1.99027 20
385 2 -5.89185 7.32799 -3.19895 14
386 2 -8.5506 3.54293 -1.18695 15
387 2 -0.633302 -4.99525 7.61299 15
388 2 4.55762 9.75568 -2.92475 13
389 2 -7.13662 -3.43198 -4.14812 15
390 2 8.91724 0.0666015 -0.49578 16
391 2 -3.72409 9.9126 -2.0296 14
392 2 8.61939 -4.72644 2.41236 15
393 2 -3.6666 -6.2428 6.61414 14
394 2 -5.37022 -1.10793 -3.82544 24
395 2 -1.36336 3.58418 -8.97472 14
396 2 -5.63582 8.00876 -0.194342 16
397 2 -0.597488 0.114915 5.11263 21
398 2 2.4382 -3.46951 8.61023 17
399 2 -9.98272 4.11011 2.78625 10
400 2 -0.745337 10.4124 -1.56601 14
401 2 -1.20913 2.65556 9.45426 15
402 2 -10.672 3.4536 -3.52368 11
403 2 6.80948 7.53491 -3.79263 13
404 2 -3.19367 5.20408 7.95519 14
405 2 -1.71187 2.70632 6.44337 21
406 2 3.77776 0.216104 2.02561 22
407 2 0.0941369 -1.02585 -2.24436 22
408 2 -5.59138 -4.02123 -6.91475 19
409 2 1.12772 5.11409 -4.05119 20
410 2 -1.07761 -5.03913 -1.22583 19
411 2 -3.12965 -2.01749 -5.9553 21
412 2 5.55118 -1.78802 5.94362 21
413 2 3.15347 2.02751 5.08487 15
414 2 8.43692 1.53397 -3.62415 16
415 2 4.3672 -7.46822 5.1138 15
416 2 2.82858 0.246295 -7.22164 17
417 2 5.64701 3.30567 9.20922 14
418 2 -2.06234 0.541867 -3.83417 23
419 2 0.825585 2.20411 -3.37999 19
420 2 -4.14935 2.08066 8.1759 15
421 2 -9.82767 -2.70646 -2.49889 13
422 2 1.50314 -11.7686 -2.35168 10
423 2 -1.36361 2.712 -6.01597 23
424 2 -9.24858 3.44864 5.90303 11
425 2 -8.12168 -1.4533 5.97045 15
426 2 -1.20254 -10.1295 -3.42903 16
427 2 0.874442 1.62806 3.0778 22
428 2 -3.76774 3.14608 -3.66964 23
429 2 -4.56374 3.66761 -8.35636 14
430 2 1.95268 8.25583 -8.24276 10
431 2 1.39252 -9.62653 -4.97219 13
432 2 8.79065 0.425607 5.18881 15
433 2 8.12515 2.28678 7.89745 13
434 2 -0.793165 8.91721 -7.24358 13
435 2 -4.11005 1.2081 -5.98445 22
436 2 -4.53249 -5.51782 -9.30704 14
437 2 -3.87565 -5.49443 -0.793164 20
438 2 1.19216 8.22691 4.3369 17
439 2 2.49367 10.5527 -0.783788 13
440 2 -2.79438 9.04944 0.517347 16
441 2 -6.62103 4.6159 7.53891 11
442 2 -1.6968 -0.640272 2.28616 21
443 2 3.73921 6.10882 -7.81775 10
444 2 2.42618 -4.43904 -6.98362 16
445 2 -4.54006 0.62866 -1.79972 21
446 2 -3.34148 8.10371 -4.9014 17
447 2 -5.47161 5.74498 -6.09046 13
448 2 3.21966 -5.78814 -2.88765 20
449 2 7.81854 -3.75644 7.94407 13
450 2 -5.40507 -1.07853 8.28912 14
451 2 -2.54798 -5.05874 -6.33927 24
452 2 -6.44251 1.08883 6.80348 16
453 2 6.27093 2.54565 -2.88889 22
454 2 9.51617 -2.77213 5.41127 12
455 2 -9.21221 1.25054 1.6484 19
456 2 2.54612 -0.698162 4.7983 23
457 2 1.99782 -9.22971 5.46043 12
458 2 8.38913 1.52334 2.34168 17
459 2 3.90708 -9.87036 -3.31768 13
460 2 0.458503 9.48399 1.55722 13
461 2 -6.55723 2.52678 -6.40662 17
462 2 -2.29923 -0.740812 9.50191 16
463 2 3.1805 -3.87106 5.3847 23
464 2 0.824235 0.0812548 0.207815 19
465 2 4.48159 2.72871 -7.86926 12
466 2 8.32195 3.38807 -0.496472 15
467 2 -1.37553 1.98627 -1.40536 19
468 2 9.68021 -0.561977 7.67047 11
469 2 1.7539 -3.25098 -3.94743 18
470 2 -6.41519 -6.65998 -4.557 14
471 2 -5.20618 -1.18258 4.11031 21
472 2 7.14732 -2.40437 -5.33466 13
473 2 5.98801 -6.4806 2.26735 16
474 2 6.95661 -2.48242 0.121086 22
475 2 4.48529 -4.47076 0.021033 19
476 2 2.64883 2.02105 10.7094 15
477 2 7.74351 3.06826 -6.44168 14
478 2 -8.18504 -5.41179 -1.95492 12
479 2 5.85893 1.03048 6.13201 19
480 2 -3.98215 3.59085 -0.236524 21
481 2 6.5451 -4.63049 4.95091 18
482 2 4.51773 8.21975 -5.607 12
483 2 8.92358 -1.63802 -3.21188 15
484 2 5.6275 4.91732 -5.7442 14
485 2 0.311698 -5.46848 4.49005 19
486 2 2.63367 -7.41102 -0.201204 21
487 2 9.49436 -3.46831 -0.546479 13
488 2 3.42999 -8.74537 2.44329 14
489 2 -4.24341 -8.84881 -4.05039 14
490 2 -0.437346 7.43565 -0.995787 19
491 2 3.89786 8.07419 5.7177 11
492 2 -0.849211 -10.5905 4.83343 9
493 2 2.45358 -1.03951 10.2664 16
494 2 -4.34696 0.296134 1.08411 22
495 2 6.93312 5.05636 7.41569 13
496 2 9.35894 0.0153796 -5.87684 11
497 2 0.305114 -2.66796 4.30376 19
498 2 -2.84541 6.32384 -7.53583 16
499 2 -3.45955 -9.74046 -1.20289 15
500 2 5.6123 -8.49018 -0.238868 13
