ITEM: TIMESTEP
10070000
ITEM: NUMBER OF ATOMS
500
ITEM: BOX BOUNDS pp pp pp
-30.0 30.0
-30.0 30.0
-30.0 30.0
ITEM: ATOMS id type x y z Coordination
1 1 -4.36355 -0.936448 -4.20705 21
2 1 9.48714 -0.846597 5.81259 14
3 1 2.38019 4.76741 11.5747 12
4 1 9.77129 -0.816289 0.344207 13
5 1 -6.44891 3.38273 2.74695 21
6 1 -3.3199 -1.12403 -7.03545 21
7 1 5.4712 2.14355 7.67261 21
8 1 1.34586 -3.87794 -5.51059 20
9 1 -12.1445 0.532457 -0.585926 11
10 1 -0.63155 1.80074 -9.42671 15
11 1 4.96447 -6.38111 -4.32458 17
12 1 2.96328 0.756332 6.21704 19
13 1 2.26197 3.49213 -5.1119 19
14 1 1.9073 5.65327 2.92566 22
15 1 3.02279 -0.124424 11.6329 10
16 1 -8.25217 -2.49087 2.45412 18
17 1 -9.65432 2.51132 1.21008 16
18 1 9.11484 -1.88563 -5.10229 11
19 1 8.82487 1.10982 8.74 11
20 1 -6.09061 -4.96315 3.11631 17
21 1 -4.08345 -5.81986 -6.57321 18
22 1 -0.00135771 0.741136 -6.94896 20
23 1 2.35975 1.69441 -8.22154 16
24 1 7.26785 -5.38508 3.48116 15
25 1 -2.3684 7.4262 4.76315 15
26 1 4.50322 -1.50667 7.19896 20
27 1 2.35337 9.63465 0.477951 14
28 1 -0.942038 -1.69247 -5.44216 20
29 1 -2.94397 -6.14503 -9.87932 11
30 1 -0.798034 4.58623 10.781 13
31 1 6.23648 -2.39601 2.56057 24
32 1 -3.07514 8.42554 1.76606 15
33 1 -4.30428 5.2953 0.906238 22
34 1 2.296 6.71562 -7.71161 18
35 1 5.8272 0.752932 -3.59998 23
36 1 -1.45171 9.16208 -5.87281 17
37 1 -1.84812 -1.54903 -2.45447 22
38 1 -2.95576 1.46523 -5.56209 23
39 1 -2.9569 1.27277 -2.02354 22
40 1 -1.80768 10.7454 -3.27234 15
41 1 0.568248 8.4617 -3.00754 22
42 1 -7.53186 4.66563 -0.552109 17
43 1 1.53863 5.91609 8.81247 16
44 1 -3.97373 6.93347 -6.69358 13
45 1 -2.77982 -8.05187 6.50055 12
46 1 -3.66624 1.0739 1.15251 24
47 1 -3.82404 -2.21114 5.20432 19
48 1 -7.38304 -1.90584 -0.110343 21
49 1 5.30542 -8.54093 -2.04445 11
50 1 -5.27312 2.57586 6.56965 16
51 1 -10.2142 1.72422 -3.85576 15
52 1 0.192218 -9.73476 5.93701 13
53 1 4.63817 1.60694 -6.39701 19
54 1 -4.73308 -1.84282 2.16488 21
55 1 -8.9696 -0.244995 -6.29807 11
56 1 1.12553 4.29498 -8.03237 17
57 1 -1.33212 5.82479 2.25615 22
58 1 -0.736537 2.38515 2.47441 21
59 1 -7.1504 0.508582 1.90797 19
60 1 -0.956341 -8.853 1.44182 20
61 1 1.37408 11.5447 -2.19687 12
62 1 -7.86434 1.70908 5.02943 18
63 1 3.61726 8.07669 7.12271 12
64 1 4.06991 3.87508 9.38576 18
65 1 1.61675 -8.76349 -0.555247 22
66 1 6.42659 -1.41805 -6.14474 18
67 1 -3.22875 -7.0471 0.838795 22
68 1 -0.8622 -7.20497 -1.59987 21
69 1 8.44012 -1.98639 8.67046 10
70 1 1.77372 -5.30577 5.0243 22
71 1 6.65333 7.83937 -1.24287 13
72 1 -4.06363 -7.39023 3.49612 16
73 1 -0.373215 -11.5709 3.00111 11
74 1 -5.21529 -4.56176 0.487075 24
75 1 0.0517663 1.75368 5.27029 18
76 1 -2.9181 -3.74519 -4.47189 18
77 1 -1.87934 -0.990834 -9.71759 15
78 1 3.53606 -6.1275 -0.908171 23
79 1 -2.5908 -1.99465 9.82307 13
80 1 -10.3782 2.86113 4.40538 8
81 1 4.39474 -9.37138 0.964196 14
82 1 -2.69088 -4.24784 2.85781 21
83 1 0.478501 3.28422 7.93275 20
84 1 -9.62202 -1.03009 5.12437 9
85 1 -0.196276 8.89741 2.72595 15
86 1 -5.22733 6.54831 3.41254 16
87 1 1.44111 3.20134 0.488117 20
88 1 -1.20173 6.18316 7.81396 13
89 1 -9.58372 -0.982853 -2.72911 17
90 1 6.40354 -0.0286765 5.16585 20
91 1 -5.23992 2.40053 -3.5634 19
92 1 -6.85946 -5.66978 -4.83196 13
93 1 8.37031 2.37808 5.87867 16
94 1 -1.80712 3.65356 -0.440836 23
95 1 0.235955 -3.3025 8.32761 17
96 1 -5.89393 0.711908 -6.6257 17
97 1 -10.5301 3.75725 -1.21389 12
98 1 -1.52279 -10.0009 -0.937179 16
99 1 -1.96121 -4.55508 -0.284257 21
100 1 3.4742 0.282325 0.58527 21
101 1 -4.15735 5.81551 6.59754 13
102 1 -2.17453 -0.04887 3.73872 19
103 1 -4.69631 5.41724 -2.25449 24
104 1 1.90236 -7.03524 -3.53628 20
105 1 3.00389 8.66191 3.70191 13
106 1 -0.090802 1.25611 -3.92311 19
107 1 -7.91803 2.92623 -5.8886 14
108 1 -6.96861 7.47859 -2.41049 13
109 1 -2.29698 -8.65628 -3.87915 18
110 1 5.80637 -6.10774 6.39255 14
111 1 0.838 11.3635 -5.31812 15
112 1 -4.13031 0.236315 8.34823 16
113 1 1.71943 -2.24464 -0.364861 22
114 1 -7.25217 4.70225 5.51379 14
115 1 0.310806 -8.97562 -6.25402 14
116 1 -0.87265 -4.10126 5.58815 20
117 1 2.99861 -4.75378 7.37416 18
118 1 3.3694 -4.14316 -3.21375 20
119 1 5.784 2.244 -0.765496 22
120 1 -3.25232 3.35451 3.60536 22
121 1 1.12852 -0.789203 -10.1993 12
122 1 3.74503 5.37208 -0.832178 20
123 1 7.26214 -3.18307 5.7111 20
124 1 -4.66047 -9.38394 -1.84717 16
125 1 -7.33252 -3.60947 5.67079 13
126 1 7.84214 3.46372 2.71821 18
127 1 7.77891 3.06186 -3.1725 16
128 1 -3.75562 1.54327 -8.81509 15
129 1 -0.922482 7.00114 -8.30035 15
130 1 5.22365 6.85773 -6.70412 12
131 1 4.2661 4.58829 -9.19091 9
132 1 2.66952 -10.1157 3.88581 14
133 1 4.85533 3.90165 -3.42971 21
134 1 7.59179 -6.06613 -2.2207 13
135 1 1.33918 -11.4557 0.966948 10
136 1 -5.8743 5.54726 -4.75431 16
137 1 0.762004 -0.544636 2.45664 21
138 1 9.61169 -3.24271 -2.24164 12
139 1 -2.14093 3.88204 -3.77789 20
140 1 0.284151 5.98169 -5.53718 22
141 1 3.39454 -9.23889 -4.97229 13
142 1 2.37566 -7.33935 2.19939 22
143 1 -4.74238 -2.82272 7.9161 14
144 1 0.677618 -9.98629 -3.26154 13
145 1 -0.193258 -6.58803 -8.79516 14
146 1 4.33691 7.51907 1.22955 16
147 1 3.24422 -4.47301 2.10066 21
148 1 3.3322 -0.964542 -5.50653 18
149 1 -10.5317 -2.43466 0.0486328 15
150 1 -5.29271 -8.34892 -5.02911 12
151 1 0.380981 -0.762013 10.4404 12
152 1 0.751497 2.15103 12.3248 11
153 1 1.28572 -3.37989 -8.24754 16
154 1 -8.71092 4.91476 -3.34126 12
155 1 5.9942 4.06197 -6.07644 13
156 1 4.39501 -1.41699 -2.3128 20
157 1 4.66137 -3.1674 -0.0191405 21
158 1 -6.36415 -1.2103 -8.71292 10
159 1 -8.56374 5.24 2.52266 12
160 1 2.9613 -3.02449 10.1513 12
161 1 2.74232 4.29539 6.15118 22
162 1 -5.03361 3.85654 -7.33952 14
163 1 9.33885 -2.84168 3.11324 12
164 1 -3.68825 -6.17228 -2.32162 21
165 1 7.48499 4.28433 8.235 12
166 1 3.22423 -8.07683 6.65531 11
167 1 5.79327 9.20563 -4.34879 11
168 1 1.54542 -2.13538 5.31958 21
169 1 6.68893 -0.759329 -0.235742 22
170 1 5.30894 3.47005 4.76259 23
171 1 6.72801 -2.82737 -2.91251 22
172 1 8.08793 5.64209 4.92693 13
173 1 -2.44414 -8.41657 -7.1151 13
174 1 5.59786 5.78677 7.01694 18
175 1 -9.25945 0.957943 -0.799349 19
176 1 -2.27317 6.96275 -4.26041 22
177 1 -1.32879 -1.0864 6.66679 18
178 1 0.102796 -3.91202 -2.78702 22
179 1 -3.58329 -9.86003 1.35044 16
180 1 4.54855 4.2565 1.91389 24
181 1 -0.360982 4.62507 5.13127 22
182 1 -4.92652 0.798379 4.33311 22
183 1 2.83682 8.97168 -5.45961 18
184 1 5.59365 -0.247075 9.29878 13
185 1 -6.48345 0.0194486 -2.48353 17
186 1 -4.20239 -3.39019 -9.66992 13
187 1 4.43404 2.34665 12.2936 7
188 1 7.56494 -4.6888 -5.0244 11
189 1 3.56108 8.87101 -2.01382 19
190 1 4.50532 -3.59823 4.85061 22
191 1 1.33513 6.7757 0.121667 20
192 1 -5.19425 2.67012 -0.329111 19
193 1 2.33364 -6.49861 -7.0068 15
194 1 2.69545 1.5635 -2.32925 20
195 1 5.89005 -3.67013 8.75424 14
196 1 -3.9948 -2.00793 -0.919652 20
197 1 1.2982 -1.22388 -3.47168 20
198 1 -3.16589 3.59376 8.96302 15
199 1 8.82662 2.1688 0.100298 13
200 1 3.58881 11.9576 -4.5174 10
201 1 2.72226 2.19803 3.43167 22
202 1 8.02983 1.19565 -6.08758 12
203 1 -2.17352 1.20437 10.7362 11
204 1 -2.5681 -5.09563 8.37722 13
205 1 -3.79782 8.5687 -1.41524 17
206 1 7.30964 6.3708 1.89595 14
207 1 -4.23905 -5.04622 5.9769 17
208 1 3.57734 -0.913718 3.65143 21
209 1 -6.28598 -7.33044 0.687259 13
210 1 7.0918 4.82789 -0.690122 17
211 1 6.03046 -6.41419 0.706458 16
212 1 0.932088 4.20012 -2.61031 21
213 1 4.90743 6.56698 4.06455 19
214 1 -8.93594 -4.1485 -2.41176 16
215 1 -1.90921 4.07997 -7.1051 17
216 1 1.01251 9.70635 -8.19116 11
217 1 -7.5806 -2.348 -4.8712 15
218 1 -1.07445 -3.64259 -11.1224 11
219 1 -6.91783 -6.88454 -2.31586 16
220 1 -1.66045 -1.36394 0.781039 21
221 1 -0.812925 -6.46782 3.36742 17
222 1 7.84227 -3.7311 0.389098 18
223 1 -10.5643 -0.261373 2.2296 15
224 1 -1.41132 6.24625 -1.295 19
225 1 -5.80685 -3.45012 -2.60049 21
226 1 8.62471 0.182784 3.15257 16
227 1 0.985871 -5.41395 0.130107 21
228 1 -6.15704 -4.83351 -8.31088 8
229 1 -6.32169 7.51324 0.736766 15
230 1 -7.15986 -0.671627 7.09121 13
231 1 -1.09439 -6.16717 -4.83123 22
232 1 7.10646 6.10289 -3.91926 12
233 1 5.71554 1.18091 2.49142 21
234 1 0.159225 -6.54454 7.33397 15
235 1 3.86812 -1.33682 -8.46176 14
236 1 2.79996 7.79579 -10.4082 5
237 1 4.08723 7.38292 9.92712 9
238 1 2.89789 6.45507 -4.09395 19
239 1 8.76474 -0.0488914 -2.64065 17
240 1 0.391945 -3.24156 2.63561 21
241 1 -2.47891 1.9291 6.37879 19
242 1 4.36405 -4.0166 -6.3719 15
243 1 -1.71405 -3.75853 -7.59634 23
244 1 0.801734 7.16239 5.65271 15
245 1 0.129607 0.701872 -0.644778 19
246 1 -0.765825 9.37366 -0.463505 16
247 1 -2.64146 -10.5794 4.36686 10
248 1 5.22692 -8.15954 3.78545 13
249 1 -8.41299 -5.05851 0.525667 14
250 1 -4.79048 8.85334 -4.19202 13
251 2 -9.70605 0.882781 4.94287 13
252 2 8.17421 3.82968 4.57072 16
253 2 -0.767892 -2.07674 9.57678 15
254 2 -7.22121 -0.605535 -7.09384 13
255 2 -4.26944 4.09983 -3.48472 22
256 2 -0.796352 -8.42366 6.90518 10
257 2 4.78884 0.6711 10.9541 11
258 2 2.76754 6.23068 10.237 12
259 2 0.231876 -0.972562 0.423285 19
260 2 -0.997032 6.84566 6.0858 16
261 2 -2.39506 5.37121 0.495618 22
262 2 3.57394 -1.55488 -0.287625 23
263 2 5.7006 -5.04881 -5.3656 16
264 2 -5.95547 -3.00743 -8.95093 10
265 2 0.939979 -7.58523 -7.56308 13
266 2 2.92227 -0.20067 -3.50304 20
267 2 -4.63897 -3.74704 2.31835 22
268 2 -2.00968 7.51396 2.9967 17
269 2 9.64677 -1.2672 2.17397 15
270 2 1.50192 -3.77774 0.932029 22
271 2 -3.35675 2.32937 -0.421427 22
272 2 7.27022 6.14693 -2.09984 14
273 2 2.01201 6.88802 7.24461 18
274 2 6.20226 7.22488 0.508421 15
275 2 1.79278 10.249 -6.5573 14
276 2 2.2684 -1.88634 -9.23237 12
277 2 -9.12501 1.59234 -5.38589 12
278 2 1.89084 -6.56418 6.77832 17
279 2 -9.22179 0.594299 1.11193 20
280 2 3.54438 -7.28529 -5.74445 14
281 2 -2.254 -10.8688 2.2426 13
282 2 0.406095 -0.268729 -5.24167 18
283 2 -3.30539 -1.33584 7.02019 21
284 2 5.65264 -1.70767 5.77332 22
285 2 -3.27729 -8.78046 4.75979 13
286 2 5.18584 4.04242 -0.189136 21
287 2 2.72409 -10.2642 0.564633 12
288 2 1.5361 2.29754 -6.49975 18
289 2 -2.12003 -6.70317 -3.18079 18
290 2 -5.18669 -6.15733 4.51379 15
291 2 -1.77481 -8.05593 -0.155147 24
292 2 -5.72752 -7.74138 -1.16202 15
293 2 0.489549 6.08872 1.68142 21
294 2 -1.92794 -0.0214429 -6.49039 21
295 2 6.77571 4.02922 -4.22837 17
296 2 -1.60519 5.1655 -5.25258 21
297 2 -5.64355 1.6483 -1.91874 18
298 2 -7.38732 4.32688 -4.75354 15
299 2 2.4746 4.02449 8.36908 20
300 2 3.34805 9.18118 2.01645 14
301 2 -4.14621 6.80311 4.90095 14
302 2 2.56085 3.59074 2.00244 21
303 2 2.51654 8.30601 -3.50945 21
304 2 1.84063 11.8531 -3.96649 13
305 2 -0.123609 4.98586 8.92501 15
306 2 -3.95913 2.16273 5.04905 19
307 2 4.82535 -2.10722 9.19691 15
308 2 -0.18219 -4.60061 -9.24599 14
309 2 0.786195 -8.25728 -2.26904 22
310 2 -1.95942 -7.07325 -8.53834 14
311 2 -6.78081 -1.32773 1.75449 21
312 2 -0.27049 7.65202 -4.50054 22
313 2 -6.67011 -5.56303 1.19269 18
314 2 7.29129 -5.30157 -0.448854 17
315 2 7.76333 4.69801 1.18402 15
316 2 -2.86122 -2.28472 -8.54522 19
317 2 -0.491164 -1.88015 -10.6924 12
318 2 5.20424 -0.015957 -5.30208 19
319 2 -4.19907 -7.87164 -6.40387 13
320 2 0.819157 -5.40866 -4.32838 20
321 2 4.85651 -2.48141 -7.24557 12
322 2 -7.31542 -3.52545 3.79145 15
323 2 -2.78944 -4.31027 -10.6551 12
324 2 4.8584 -3.44388 -2.25498 22
325 2 4.28288 3.33477 -5.26668 20
326 2 -1.27758 -8.18099 -5.67995 17
327 2 -2.25431 0.818653 -9.70518 13
328 2 -1.43698 4.09572 3.74434 19
329 2 -4.75675 -8.12577 1.76303 17
330 2 -6.71688 1.30257 3.63006 20
331 2 -6.9364 5.29231 3.61476 15
332 2 -5.4745 -3.50869 6.31784 16
333 2 -2.67021 -3.91198 4.93716 21
334 2 -11.473 -0.809562 0.627607 12
335 2 4.91023 -4.80953 7.49644 16
336 2 5.32675 0.88865 0.509868 21
337 2 0.0337596 -3.029 -6.73269 20
338 2 4.15195 5.48443 -2.77252 21
339 2 4.83468 7.11403 8.19565 13
340 2 -0.387732 0.918159 11.1042 12
341 2 -7.58251 5.94238 0.869099 15
342 2 3.71768 6.15377 2.47788 22
343 2 -9.17524 -1.40292 -4.81468 13
344 2 -4.23912 -4.33961 -3.11374 22
345 2 1.98733 1.28841 -0.362679 21
346 2 -9.55177 -1.39031 3.36071 15
347 2 -0.959388 10.8191 -5.11552 13
348 2 0.568796 0.537099 -8.86056 16
349 2 -11.3374 2.34032 -0.156911 12
350 2 0.0519668 -2.29269 6.48337 19
351 2 5.65281 8.89106 -2.43702 12
352 2 6.12715 -7.18186 -2.96063 14
353 2 -0.0172061 -10.1887 0.236206 17
354 2 -4.66883 7.28243 1.73231 16
355 2 -2.48687 -6.39515 2.5041 19
356 2 2.6004 -5.85191 3.24115 20
357 2 1.36301 5.44 4.8135 22
358 2 1.92646 4.63599 -0.755184 22
359 2 -3.29213 -3.65853 9.1255 12
360 2 -1.43946 -3.89743 1.51159 20
361 2 -4.59059 4.18229 2.47988 20
362 2 -1.53859 0.400361 5.49695 21
363 2 0.600647 6.00721 -7.52628 18
364 2 -1.09751 -2.85503 -3.93216 21
365 2 6.20571 -0.920985 -2.11704 19
366 2 4.52934 4.98718 5.60264 24
367 2 -7.99616 -0.512271 -1.53406 20
368 2 5.80467 3.13772 2.8897 23
369 2 6.94725 6.70257 3.83978 16
370 2 8.09948 -4.48043 -3.13248 14
371 2 -8.88776 -3.23804 0.616093 17
372 2 0.589192 3.95912 11.677 12
373 2 -2.34149 -2.84243 -0.975678 19
374 2 -5.81448 -3.01823 -0.668076 22
375 2 7.5974 -0.232985 9.24901 13
376 2 1.61941 -2.96195 -2.36072 21
377 2 -4.69157 -0.0868648 -8.15258 16
378 2 6.41073 -0.603713 3.21147 21
379 2 4.5062 0.417087 7.68247 15
380 2 4.52456 -3.29147 3.10849 22
381 2 0.397304 -7.81916 2.47046 19
382 2 3.14077 7.55744 -0.405523 19
383 2 -10.734 0.629195 -2.23512 15
384 2 -2.88957 6.7213 -2.31168 22
385 2 -5.75969 7.1258 -3.91756 16
386 2 -8.0529 6.00121 -2.00263 14
387 2 -0.765152 -4.9409 7.64046 17
388 2 4.33412 10.3292 -4.85144 12
389 2 -7.53608 -4.17541 -3.72038 14
390 2 8.44972 0.30707 -0.57055 16
391 2 -3.57427 9.79301 -3.10993 13
392 2 7.6314 -3.87117 2.48197 17
393 2 -2.9021 -6.20172 6.85822 14
394 2 -6.32715 -1.49561 -3.73447 20
395 2 -0.562772 3.4032 -8.39068 16
396 2 -5.7037 8.01451 -1.06807 16
397 2 1.22334 1.48906 6.91361 17
398 2 2.04376 -3.63547 8.60955 17
399 2 -8.72528 3.21607 -0.60439 19
400 2 -0.171229 10.3835 -2.50219 16
401 2 -1.98974 3.05881 10.3354 12
402 2 -10.1946 3.49942 -3.34818 11
403 2 6.15051 7.35425 -4.96725 15
404 2 -2.89052 5.29239 8.02489 16
405 2 -0.959295 3.2212 6.53847 19
406 2 3.7175 0.656327 2.56874 21
407 2 -0.360315 -0.0915224 -2.51305 21
408 2 -6.00226 -5.56837 -6.5033 11
409 2 1.40877 5.11637 -4.19615 20
410 2 -0.340627 -5.31702 -1.27843 21
411 2 -3.35841 -2.23032 -5.35372 19
412 2 6.18945 2.06583 5.91187 21
413 2 3.24 2.61934 5.2494 21
414 2 7.83933 1.25401 -3.83328 16
415 2 4.55735 -7.43766 5.45931 16
416 2 3.83172 0.310913 -7.58819 15
417 2 4.053 3.79852 11.3034 11
418 2 -3.4494 -0.603169 -2.44357 23
419 2 1.51079 2.51393 -3.59059 19
420 2 -3.98312 2.11149 7.90904 17
421 2 -10.0569 -2.68471 -1.79412 14
422 2 1.39436 -11.1252 2.90639 14
423 2 -2.02856 1.77595 -3.76382 22
424 2 -8.53114 3.47037 5.04882 12
425 2 -8.31725 -1.97466 6.11767 11
426 2 -1.10847 -10.0613 -2.72595 15
427 2 0.763772 1.37329 3.36269 21
428 2 -5.5407 4.6719 -0.418892 21
429 2 -3.36332 2.77422 -7.11111 20
430 2 2.10125 8.43111 -8.82348 10
431 2 1.4501 -9.41349 -4.984 12
432 2 8.29029 0.557635 5.04917 17
433 2 8.43546 2.60556 7.76275 11
434 2 -0.672563 8.79277 -7.63741 14
435 2 -4.7938 0.96046 -4.74855 20
436 2 -4.3439 -5.26373 -8.70288 12
437 2 -3.70572 -5.59748 -0.396819 22
438 2 1.09833 8.40394 4.06305 17
439 2 2.61006 10.5318 -1.25202 15
440 2 -2.77154 8.95134 0.0119153 16
441 2 -5.6598 4.58175 6.52047 14
442 2 -1.01321 -1.25873 2.80119 23
443 2 3.19909 6.13407 -9.49535 10
444 2 2.40027 -4.63752 -7.11741 15
445 2 -3.52194 -0.848422 0.776002 19
446 2 -3.17935 8.3459 -5.47881 16
447 2 -5.18977 5.49875 -6.47939 14
448 2 3.33742 -5.92846 -2.76725 22
449 2 7.24263 -3.23844 7.5951 15
450 2 -5.82567 -1.16521 8.33977 13
451 2 -2.33979 -5.00328 -5.83724 21
452 2 -6.65322 1.20162 6.6242 14
453 2 4.55349 2.21675 -2.57027 22
454 2 9.08408 -2.56464 5.07047 16
455 2 -9.84558 3.67913 2.70634 14
456 2 3.07129 -0.986518 5.68013 17
457 2 1.96269 -9.18218 5.71081 14
458 2 8.59267 1.59327 1.91817 16
459 2 4.00703 -9.1897 -3.17669 13
460 2 0.547501 9.39108 1.16708 15
461 2 -6.30779 2.55412 -6.97767 15
462 2 -2.84589 -0.251062 9.7173 14
463 2 2.69572 -3.74804 5.74438 22
464 2 -0.500836 2.46086 0.387255 21
465 2 3.00183 3.32576 -8.83256 15
466 2 7.70595 3.12482 -1.1992 17
467 2 -1.1342 4.42313 -2.16601 21
468 2 9.51492 -0.707034 7.62256 10
469 2 3.14514 -3.12374 -5.02459 23
470 2 -6.42262 -7.42313 -4.02835 13
471 2 -4.04223 -0.910958 3.8563 20
472 2 7.31097 -2.70303 -4.86815 16
473 2 6.14569 -6.65152 2.72102 16
474 2 6.32299 -2.39559 0.461851 20
475 2 4.31606 -5.15128 0.566844 19
476 2 2.57509 1.67162 12.3159 11
477 2 6.528 2.09962 -6.6972 13
478 2 -8.06732 -5.46556 -1.35976 15
479 2 5.63314 4.01383 8.28679 15
480 2 -5.96979 2.01905 1.35279 19
481 2 6.37834 -4.81877 5.0629 16
482 2 3.37572 7.17846 -6.07022 18
483 2 9.68435 -1.61413 -3.27912 12
484 2 5.44539 5.2681 -7.75666 12
485 2 -0.11606 -4.82648 4.0676 20
486 2 2.02673 -7.0492 0.0648528 21
487 2 9.26613 -2.46609 -0.50276 15
488 2 3.82866 -8.87186 2.75834 15
489 2 -4.16687 -8.98284 -3.56131 14
490 2 0.056875 7.55533 -1.24666 21
491 2 3.88917 7.77706 5.25272 15
492 2 -0.864068 -10.9127 4.81387 11
493 2 1.95137 -1.69561 10.8898 10
494 2 -2.60919 1.77957 2.57086 21
495 2 7.39796 5.44974 6.63294 14
496 2 8.37795 -0.480631 -6.12339 10
497 2 1.81891 -2.00523 3.40211 20
498 2 -2.51076 6.18702 -7.62202 14
499 2 -3.54539 -10.3572 -0.53844 13
500 2 4.83716 -7.83843 -0.283839 16
