ITEM: TIMESTEP
7667000
ITEM: NUMBER OF ATOMS
500
ITEM: BOX BOUNDS pp pp pp
-30.0 30.0
-30.0 30.0
-30.0 30.0
ITEM: ATOMS id type x y z Coordination
1 1 -3.90788 -0.536498 -5.01759 22
2 1 9.94137 -1.02762 6.01639 13
3 1 2.05419 5.06711 12.0905 9
4 1 9.62711 -1.50978 0.327395 14
5 1 -6.51589 3.03714 2.71791 22
6 1 -4.3548 -1.75811 -7.33496 23
7 1 2.31203 1.14637 7.98474 20
8 1 0.909147 -3.99473 -5.83865 23
9 1 -11.5741 0.739917 -1.09465 13
10 1 -0.947329 1.94862 -9.82122 13
11 1 4.67816 -6.13403 -4.4889 17
12 1 3.87412 0.243237 5.80356 19
13 1 1.57481 3.5293 -4.99528 19
14 1 1.94022 5.46278 2.99163 23
15 1 6.35389 -1.56784 10.611 12
16 1 -8.19762 -2.89825 2.23897 16
17 1 -10.2825 2.50497 1.49415 17
18 1 8.94152 -1.78734 -4.86565 11
19 1 9.10436 0.379903 9.21937 10
20 1 -6.12589 -5.27842 2.55982 15
21 1 -3.98892 -5.39903 -7.49169 21
22 1 0.787686 0.766312 -7.19431 20
23 1 3.07134 2.65915 -7.68407 14
24 1 6.92533 -5.10677 3.25508 18
25 1 -2.52631 7.18484 5.74845 15
26 1 5.66598 1.07057 7.90487 23
27 1 1.8258 10.2169 1.41918 11
28 1 -1.15903 -1.64586 -6.45786 21
29 1 -3.50642 -5.93762 -10.5678 13
30 1 -1.14297 4.28423 10.8375 12
31 1 6.27368 -2.02446 2.43054 20
32 1 -3.49989 7.74026 2.2736 14
33 1 -4.09783 4.61162 1.23787 23
34 1 2.24365 6.35278 -7.06091 16
35 1 6.22156 0.981345 -3.41487 24
36 1 -1.58201 9.17016 -5.11993 16
37 1 -1.75744 -1.36547 -2.89116 23
38 1 -2.54389 1.28567 -7.18445 24
39 1 -3.03916 1.55667 -2.67766 23
40 1 -2.17406 10.367 -2.50818 15
41 1 0.348375 8.54308 -2.21977 21
42 1 -7.25976 4.18293 -0.1878 18
43 1 1.10616 6.33622 8.96241 14
44 1 -4.00972 7.06304 -6.48444 13
45 1 -2.75865 -7.86959 6.41066 12
46 1 -2.79861 0.628319 1.96709 19
47 1 -3.92366 -2.3057 5.12161 19
48 1 -6.95761 -1.64662 -0.630262 22
49 1 5.45657 -8.5413 -2.61087 13
50 1 -5.87905 2.2497 7.57194 16
51 1 -11.0225 2.54288 -4.04887 13
52 1 0.127298 -9.38711 6.48945 9
53 1 6.04885 1.96491 -7.06208 15
54 1 -4.96207 -1.64361 1.97327 23
55 1 -8.23642 1.56256 -5.32233 16
56 1 0.00997331 3.93999 -7.35366 18
57 1 -1.30462 5.86496 2.84497 20
58 1 0.0942534 3.37972 2.33333 18
59 1 -7.28073 0.327048 2.0957 20
60 1 0.780162 -8.05309 -0.966699 22
61 1 0.599534 11.4437 -1.12287 13
62 1 -10.1336 2.93336 4.45062 11
63 1 3.66849 7.59474 7.44893 11
64 1 4.57555 -1.82376 7.67621 23
65 1 3.5283 -10.8961 -2.5091 10
66 1 6.22496 -0.89622 -6.40836 16
67 1 -2.35374 -6.33614 0.226267 23
68 1 -1.12398 -6.87399 -2.56469 19
69 1 8.81708 -2.33775 8.58804 10
70 1 2.13568 -5.55068 4.87256 21
71 1 6.61142 8.1923 -0.317373 10
72 1 -3.65369 -7.22284 2.94283 16
73 1 -0.681686 -9.07406 1.11253 18
74 1 -4.62376 -3.84343 -0.0465932 21
75 1 1.14721 0.940168 4.96533 23
76 1 -2.80809 -3.51607 -4.82774 22
77 1 -2.41584 -0.765737 -9.39972 17
78 1 3.91479 -6.13806 -1.13773 22
79 1 -2.14541 -2.22846 9.59583 14
80 1 -7.81835 1.48726 5.16765 17
81 1 3.66185 -8.97755 0.4495 14
82 1 -2.65535 -4.23884 2.79398 22
83 1 -0.155823 3.00425 8.07354 22
84 1 -9.26765 -0.825364 4.71737 13
85 1 -0.551456 9.03411 3.4975 14
86 1 -5.35722 5.77872 4.44007 17
87 1 2.81767 3.49015 -0.0872955 20
88 1 -2.04622 6.39639 8.29685 14
89 1 -9.40097 -0.21905 -2.83922 19
90 1 6.70221 -0.716232 4.94359 19
91 1 -5.154 2.23271 -4.89948 20
92 1 -6.19855 -4.64417 -5.15771 16
93 1 7.97646 1.77277 6.07121 18
94 1 -1.58673 3.05004 -0.130017 20
95 1 0.488184 -3.63727 8.75961 16
96 1 -5.72071 1.09776 -7.28599 17
97 1 -10.4883 3.38011 -1.66271 13
98 1 -1.7585 -9.7156 -1.25685 16
99 1 -2.36377 -3.83318 -1.80327 22
100 1 3.07263 0.217005 -0.0709806 21
101 1 -5.0397 5.64242 7.38019 10
102 1 -1.08127 -1.32927 4.24877 20
103 1 -4.14995 4.33096 -2.0781 22
104 1 1.62475 -6.72986 -4.03682 24
105 1 2.65833 8.75365 4.39471 13
106 1 -0.766965 1.01262 -4.42382 22
107 1 -9.77668 4.87776 -5.04493 8
108 1 -5.62723 6.61544 -1.69359 16
109 1 -2.64876 -9.14267 -4.89773 14
110 1 5.7479 -6.45969 6.4151 13
111 1 0.419522 11.5985 -4.45478 13
112 1 -3.77805 -0.0262586 8.46501 15
113 1 0.825839 -1.75014 -0.76085 22
114 1 -7.60434 4.67088 5.94884 15
115 1 0.186364 -8.96558 -6.76307 12
116 1 -0.822367 -3.93836 5.51953 17
117 1 3.40502 -4.92429 7.53501 18
118 1 3.18736 -3.96348 -3.37931 22
119 1 5.53533 2.6984 -1.00241 20
120 1 -3.21889 3.23111 3.98417 18
121 1 0.761206 -0.847446 -10.0467 12
122 1 4.5526 5.85989 -1.09571 23
123 1 7.55296 -3.59267 6.0879 16
124 1 -4.81603 -9.48673 -2.31009 13
125 1 -6.47836 -2.68265 4.96765 18
126 1 8.09173 3.59895 3.20597 15
127 1 7.83785 3.39033 -2.7731 16
128 1 -4.50452 2.1941 -9.69532 12
129 1 -0.989005 7.3055 -7.23905 14
130 1 5.27592 6.82229 -4.39668 17
131 1 5.37923 5.10887 -7.30409 11
132 1 0.903983 -9.31612 3.93935 12
133 1 4.79794 3.69606 -4.22135 23
134 1 7.11315 -5.91257 -2.08749 16
135 1 1.39975 -11.4728 -0.716116 9
136 1 -6.57066 6.26583 -4.8027 12
137 1 0.244176 0.425143 1.90964 20
138 1 9.45067 -3.26558 -2.22727 13
139 1 -2.63188 3.71866 -5.06916 22
140 1 -0.14412 6.27911 -4.85728 19
141 1 3.32009 -8.91381 -5.04562 14
142 1 2.18199 -7.01363 1.93623 19
143 1 -5.01573 -3.19015 8.1292 12
144 1 0.301855 -9.71187 -3.86311 15
145 1 -0.559182 -6.56941 -9.04637 16
146 1 4.25494 7.61741 1.61439 16
147 1 4.10257 -4.59502 2.07801 23
148 1 3.82389 0.507124 -5.55409 21
149 1 -10.1429 -2.55002 -0.753145 14
150 1 -5.31396 -7.95793 -5.48487 14
151 1 0.888446 -1.543 11.007 14
152 1 1.41557 1.8335 11.3097 15
153 1 1.24307 -3.7123 -8.69167 15
154 1 -7.59014 3.70209 -3.05511 20
155 1 7.76962 4.9387 -5.4333 12
156 1 4.09008 -1.39693 -2.56998 21
157 1 3.04357 -3.27749 -0.137334 21
158 1 -6.7214 -0.884788 -9.2409 9
159 1 -8.6679 5.41313 2.76059 12
160 1 3.5316 -3.58214 10.5424 12
161 1 2.51082 3.88155 5.89063 18
162 1 -5.85018 4.28453 -7.25738 13
163 1 9.48082 -2.90789 3.29913 13
164 1 -4.26945 -6.10011 -3.37056 21
165 1 7.51828 3.36182 8.88313 10
166 1 3.17521 -8.02013 6.4104 14
167 1 5.73838 9.75207 -4.0726 9
168 1 1.64364 -2.46987 5.66638 21
169 1 6.49288 -0.629292 -0.657655 20
170 1 5.46953 2.73513 5.04633 22
171 1 6.05476 -3.81165 -0.936485 21
172 1 7.52564 5.20745 5.74438 12
173 1 -3.1915 -8.42002 -7.83084 13
174 1 5.26054 4.6224 7.6181 17
175 1 -8.10079 1.53128 -0.420978 23
176 1 -2.62922 6.92795 -3.52979 19
177 1 -0.376627 -0.518112 7.54005 21
178 1 0.148647 -4.2191 -2.91575 22
179 1 -4.41387 -9.51843 1.10454 12
180 1 4.46126 4.32951 2.02818 22
181 1 -0.808197 4.50643 5.23286 20
182 1 -4.89519 0.435503 4.60104 19
183 1 3.97606 8.30971 -7.27532 11
184 1 4.13623 2.95146 10.0156 16
185 1 -6.06257 0.482616 -2.65064 21
186 1 -4.22311 -2.94772 -10.4117 13
187 1 3.84812 -0.254828 10.6278 14
188 1 6.42814 -3.39065 -3.89288 16
189 1 3.48333 9.24299 -1.39696 18
190 1 4.88675 -3.72674 4.95022 22
191 1 0.692066 5.91046 -0.145051 19
192 1 -4.82695 1.72369 0.349616 23
193 1 2.25206 -6.45125 -7.07805 13
194 1 2.58293 1.51491 -2.95568 21
195 1 6.29275 -4.58048 8.87953 14
196 1 -4.09718 -0.819745 -0.854046 20
197 1 1.40934 -1.38898 -4.11386 22
198 1 -2.871 3.19131 8.11534 18
199 1 7.90039 1.94506 0.407064 18
200 1 3.23171 11.7751 -2.16041 10
201 1 2.94928 2.22906 3.09665 21
202 1 8.65783 1.59908 -5.49138 11
203 1 -1.08519 1.0918 10.0804 16
204 1 -2.30019 -4.94426 8.08554 15
205 1 -4.37915 9.08562 -0.463934 13
206 1 7.45464 6.92318 2.75114 11
207 1 -4.58161 -5.59898 5.73355 15
208 1 2.80822 -1.27918 2.85718 21
209 1 -5.018 -6.69266 -0.3249 17
210 1 7.66248 5.07291 0.152214 16
211 1 6.2632 -6.98629 0.536842 16
212 1 -0.365628 3.82149 -2.65216 22
213 1 4.79184 5.88798 4.74809 20
214 1 -8.62895 -3.67306 -3.12537 14
215 1 -2.99891 4.44049 -8.41872 15
216 1 1.21728 9.81315 -6.97757 11
217 1 -7.33866 -1.53664 -5.30265 16
218 1 -1.15786 -3.55004 -11.0786 12
219 1 -7.24723 -7.0148 -3.00129 11
220 1 -1.99357 -2.19137 0.827532 22
221 1 -0.379795 -6.29603 3.17183 22
222 1 9.00657 -4.95514 0.656924 14
223 1 -10.607 -0.421324 1.75445 14
224 1 -2.01417 6.18535 -0.396518 20
225 1 -5.38386 -2.78997 -3.21648 22
226 1 8.6841 0.336857 2.85098 17
227 1 0.466096 -4.89955 0.0957699 20
228 1 -6.37149 -4.14445 -8.88118 11
229 1 -6.51777 7.00072 1.52631 15
230 1 -7.28661 -0.704391 7.68676 10
231 1 -1.41778 -6.30452 -5.4853 24
232 1 8.01435 6.89926 -2.7269 12
233 1 5.29913 1.15388 2.1205 21
234 1 0.398846 -6.29623 7.00482 18
235 1 3.44725 -0.992907 -8.16351 13
236 1 2.733 9.06423 -4.4514 18
237 1 4.01836 6.19343 10.3578 10
238 1 2.5309 6.03219 -2.74031 19
239 1 9.11221 0.257943 -2.20095 15
240 1 0.891911 -3.31279 2.48862 25
241 1 -2.50072 1.26872 5.86108 20
242 1 3.88772 -3.4536 -6.31538 18
243 1 -1.81511 -3.83502 -8.12562 22
244 1 0.773989 6.97118 5.83518 16
245 1 0.167166 0.853762 -1.57053 20
246 1 -1.22704 9.01573 0.476595 17
247 1 -2.43168 -10.0315 3.73591 10
248 1 4.57548 -7.39049 3.47578 16
249 1 -7.72047 -4.86657 -0.528989 16
250 1 -4.85593 9.00926 -3.78814 12
251 2 -10.0276 0.983846 4.86869 13
252 2 7.44238 3.33952 5.02066 17
253 2 -0.406302 -2.64815 10.2788 13
254 2 -6.1458 -0.99917 -7.11095 17
255 2 -6.24704 4.71256 -1.68214 19
256 2 -0.948971 -7.78813 6.74207 13
257 2 3.95463 4.62822 11.3148 10
258 2 2.10287 6.30845 10.5437 11
259 2 -0.21193 -3.17367 0.682321 22
260 2 -0.918607 6.35642 6.33541 17
261 2 -2.85233 5.96911 1.57084 22
262 2 3.30871 -1.51358 -0.879236 22
263 2 4.98506 -4.21573 -4.90496 16
264 2 -6.09793 -2.56537 -9.74971 10
265 2 0.717168 -7.15516 -7.77388 15
266 2 3.14859 -0.399891 -3.95131 21
267 2 -3.56651 -3.08787 1.42991 22
268 2 -2.12877 7.71687 3.8728 17
269 2 9.34971 -1.37998 2.24261 15
270 2 2.96378 -2.9763 2.13169 22
271 2 -1.12795 1.95935 1.3349 18
272 2 7.75378 6.75828 -0.851836 12
273 2 1.73841 7.48945 7.49016 12
274 2 6.2611 7.84393 1.56696 12
275 2 1.68287 10.6382 -5.35671 14
276 2 1.96056 -1.92239 -8.95329 14
277 2 -9.5945 2.95607 -5.37534 11
278 2 2.38198 -6.41017 6.97864 16
279 2 -6.62734 2.20682 0.863892 19
280 2 3.3332 -7.10541 -5.61178 18
281 2 -2.63838 -9.54438 1.84451 14
282 2 0.374687 -0.394169 -5.50573 21
283 2 0.435444 0.987423 8.36038 18
284 2 5.32221 -3.1611 10.1462 13
285 2 -3.15134 -8.29045 4.42318 13
286 2 4.79674 4.19079 0.111744 19
287 2 -0.0988921 -10.4945 0.0179203 13
288 2 1.38628 2.99833 -6.78379 18
289 2 -2.51935 -6.80922 -3.97647 23
290 2 -4.72645 -5.62957 3.85783 16
291 2 -1.20473 -7.68084 -0.623605 19
292 2 -5.58641 -7.4813 -1.98444 15
293 2 0.300685 5.4685 1.90422 20
294 2 -1.40368 -0.199388 -7.77051 21
295 2 8.25122 5.202 -3.63585 13
296 2 -1.691 5.22861 -4.14871 20
297 2 -6.77943 2.12019 -3.67012 20
298 2 -8.04832 5.06547 -4.53989 14
299 2 2.8955 1.92954 5.34782 17
300 2 3.05723 9.06308 2.47655 13
301 2 -4.09577 6.20461 5.92179 16
302 2 2.58621 3.88729 1.75147 17
303 2 2.23684 8.08241 -2.51981 22
304 2 1.55776 11.9828 -2.99692 12
305 2 -0.718946 5.8228 9.55224 12
306 2 -3.21396 1.21646 3.98049 19
307 2 5.33641 -0.470315 9.30753 18
308 2 -0.431015 -4.65556 -9.46579 15
309 2 0.597126 -7.96998 -2.85594 19
310 2 -2.55525 -7.04522 -9.18798 13
311 2 -6.97007 -1.38145 1.21922 24
312 2 -0.622408 7.8649 -3.91545 20
313 2 -6.14862 -5.13997 0.591022 18
314 2 7.7994 -6.06362 -0.342494 14
315 2 7.63285 5.20603 2.23911 16
316 2 -3.13611 -2.44527 -8.85938 22
317 2 -0.735274 -1.80346 -10.5855 15
318 2 5.90444 0.742388 -5.60532 18
319 2 -4.33882 -7.1229 -6.89768 16
320 2 0.138068 -5.3244 -4.55125 20
321 2 4.6791 -1.86037 -7.19524 12
322 2 -7.23678 -3.97129 3.29027 14
323 2 -2.8792 -4.17477 -11.1401 12
324 2 4.85248 -3.44009 -2.43469 22
325 2 3.21371 2.52379 -4.89736 19
326 2 -1.81751 -8.58271 -6.55589 16
327 2 -2.79715 1.23416 -9.59511 14
328 2 -1.69592 4.15725 3.5627 20
329 2 -4.65924 -7.49372 1.36587 15
330 2 -6.66809 1.49348 3.77896 23
331 2 -7.12656 5.17679 4.22249 16
332 2 -5.18709 -3.73079 6.24488 15
333 2 -2.37536 -3.3071 4.59167 20
334 2 -10.8381 -0.830579 -0.149108 14
335 2 5.20204 -5.45865 7.81224 16
336 2 6.09478 1.28961 0.289004 21
337 2 -0.103443 -3.21956 -7.24635 21
338 2 4.24162 5.42551 -3.19024 18
339 2 4.55441 6.14174 8.54881 13
340 2 0.0182541 0.266283 11.3894 13
341 2 -7.55448 5.40622 1.15612 16
342 2 4.12252 6.0101 2.83116 20
343 2 -8.60068 -0.155827 -4.55805 15
344 2 -4.32201 -4.1899 -3.94335 20
345 2 3.19741 1.84442 -1.13986 21
346 2 -9.28293 -1.40255 2.92127 15
347 2 -1.17493 10.6689 -4.17008 13
348 2 0.550671 0.915273 -9.23445 16
349 2 -11.2392 2.20314 -0.117682 12
350 2 0.31342 -2.40486 6.90305 21
351 2 4.66396 7.71562 -0.439791 16
352 2 6.19808 -6.98992 -3.25544 16
353 2 3.13295 -10.4025 -0.679455 11
354 2 -5.22939 7.18935 3.01033 14
355 2 -2.08044 -5.83495 1.98299 23
356 2 3.24138 -5.83015 3.2745 22
357 2 1.55423 3.03598 7.2869 17
358 2 -0.49232 4.55313 -0.802272 21
359 2 -3.25643 -3.27104 8.68563 14
360 2 0.79755 -5.26114 1.86879 19
361 2 -4.90342 4.00949 3.22387 18
362 2 -3.56959 -0.417262 6.15786 20
363 2 0.315286 5.84966 -6.88348 15
364 2 -1.49176 -3.33087 -3.45648 24
365 2 5.96671 -0.689409 -2.49858 24
366 2 4.6116 4.17722 5.88522 21
367 2 -7.67471 -0.177513 -1.56074 24
368 2 4.82602 2.87995 3.16514 22
369 2 6.71942 6.42687 4.57239 14
370 2 7.64407 -4.08791 -2.31133 16
371 2 -8.60303 -3.30364 0.2126 16
372 2 0.800096 3.69026 11.447 13
373 2 -2.44405 -1.81415 -1.1222 24
374 2 -5.22136 -2.46373 -1.29742 22
375 2 8.06319 -1.19335 9.85804 10
376 2 1.66501 -3.56691 -1.65809 20
377 2 -5.68721 0.756502 -9.3081 12
378 2 6.28755 -0.0958102 3.03255 20
379 2 3.34849 -0.362114 7.55252 18
380 2 5.36873 -3.54702 3.17577 18
381 2 0.489918 -8.24415 2.41591 19
382 2 2.48015 5.51781 -0.817031 20
383 2 -10.6333 1.335 -2.75456 15
384 2 -3.29821 6.20578 -1.96106 21
385 2 -5.65118 7.34444 -3.42819 14
386 2 -8.72439 3.29267 -1.45707 18
387 2 -0.604383 -4.97133 7.86882 14
388 2 4.23968 10.135 -2.90481 12
389 2 -7.18854 -3.17863 -4.34392 14
390 2 8.55229 0.0898434 -0.372853 16
391 2 -3.98211 9.63612 -2.26489 14
392 2 8.4419 -4.22627 2.34052 15
393 2 -3.15332 -6.10554 6.74343 15
394 2 -5.68257 -0.824336 -4.10322 24
395 2 -1.4231 3.43378 -8.59898 15
396 2 -5.70469 7.75309 -0.141473 15
397 2 -0.613713 0.111547 5.71886 20
398 2 2.37164 -4.14602 9.09037 16
399 2 -9.94737 4.0203 2.80846 11
400 2 -0.668678 10.0657 -1.30409 16
401 2 -1.52037 2.88233 9.62219 16
402 2 -10.6063 4.4009 -3.29293 9
403 2 6.72104 8.23568 -3.44289 14
404 2 -3.45565 4.9439 8.2886 14
405 2 -1.65709 3.05878 6.51994 19
406 2 3.2726 0.702557 1.78099 19
407 2 0.156695 -0.875823 -2.48633 22
408 2 -5.75601 -4.58167 -6.91354 17
409 2 1.24848 5.17217 -3.90529 19
410 2 -0.820146 -5.27074 -1.35732 21
411 2 -3.13262 -2.02319 -5.98511 22
412 2 5.62068 -2.13397 5.9904 20
413 2 1.19041 5.01641 4.68808 21
414 2 8.24607 1.48958 -3.38974 17
415 2 4.76489 -7.6019 5.38064 15
416 2 3.23837 0.736225 -7.49128 16
417 2 5.44218 2.90493 8.65233 16
418 2 -2.48047 0.136979 -3.90512 24
419 2 0.697527 2.04198 -3.33976 18
420 2 -4.1092 1.77148 7.83319 15
421 2 -9.6655 -2.29753 -2.57567 14
422 2 1.47254 -10.8552 -2.755 12
423 2 -1.54917 2.40041 -5.73116 21
424 2 -8.74605 3.37073 5.49005 12
425 2 -7.69317 -1.29745 5.7948 15
426 2 -1.77902 -9.81729 -3.19822 15
427 2 0.843494 2.05987 3.41564 20
428 2 -3.91469 3.11155 -3.61964 20
429 2 -4.43868 3.38167 -8.39369 14
430 2 2.04982 8.2001 -7.07232 11
431 2 1.37398 -9.16126 -5.33642 14
432 2 8.80956 0.113962 4.90825 14
433 2 7.8434 1.57489 8.18311 13
434 2 -0.525851 9.00702 -6.81819 13
435 2 -4.09353 1.09008 -6.21902 22
436 2 -4.79114 -5.11915 -9.42141 14
437 2 -3.6789 -5.39509 -1.12598 19
438 2 0.80919 8.45475 4.55929 14
439 2 2.41039 10.8568 -0.480564 12
440 2 -3.07618 8.87811 0.881183 16
441 2 -6.18197 4.05366 7.1398 12
442 2 -1.4672 -0.863411 2.24571 19
443 2 4.07095 6.35473 -6.95015 13
444 2 2.34717 -4.53587 -7.08721 17
445 2 -4.5277 0.996373 -1.51611 23
446 2 -3.55655 8.27471 -5.02448 17
447 2 -5.46882 5.85295 -6.4087 12
448 2 3.09939 -5.88633 -3.07743 22
449 2 7.69427 -3.62504 7.82023 14
450 2 -5.47003 -1.35821 8.50937 14
451 2 -2.24532 -4.88339 -6.41236 24
452 2 -7.04756 1.00374 6.79309 15
453 2 5.7155 2.87513 -2.78637 20
454 2 9.08875 -2.65786 5.26432 14
455 2 -9.13537 1.1576 1.43316 20
456 2 2.40535 -0.807115 4.60368 21
457 2 1.87055 -9.00276 5.43623 13
458 2 8.24471 1.96671 2.3082 16
459 2 4.33501 -9.62498 -3.57573 12
460 2 0.0426931 9.5402 1.71356 12
461 2 -6.57963 2.64749 -6.23561 16
462 2 -1.92143 -0.33319 9.05303 18
463 2 3.24009 -4.11931 5.77598 22
464 2 0.882266 -0.0734866 0.199526 20
465 2 4.77368 3.28711 -7.63594 12
466 2 7.70841 3.41262 -0.832049 16
467 2 -1.50455 2.17256 -1.77945 20
468 2 9.92777 -0.652069 7.98516 9
469 2 2.16762 -2.98354 -4.84423 21
470 2 -6.183 -6.56579 -4.51976 14
471 2 -5.16198 -1.48193 3.89956 18
472 2 7.26611 -2.2494 -5.21178 14
473 2 6.00665 -6.5589 2.37605 17
474 2 6.11327 -2.34576 0.40033 22
475 2 4.57256 -4.73633 0.115381 23
476 2 3.08232 1.40492 9.8979 15
477 2 7.5019 3.14039 -6.2531 14
478 2 -8.00781 -5.33644 -2.40079 14
479 2 6.05705 0.725547 6.12081 17
480 2 -3.80917 3.33982 0.0710937 21
481 2 6.45638 -5.05962 5.26836 18
482 2 4.48656 8.56497 -5.27493 14
483 2 9.33397 -1.53352 -2.95894 13
484 2 5.93395 5.36921 -5.44294 17
485 2 0.29495 -5.6291 5.02982 23
486 2 2.31498 -7.16639 -0.172819 21
487 2 9.40225 -3.25462 -0.381763 15
488 2 3.5644 -8.2675 2.21478 15
489 2 -4.46973 -9.13841 -4.23525 13
490 2 -0.511922 7.37149 -0.788613 17
491 2 3.77469 7.39676 5.39441 16
492 2 -0.827469 -9.82385 4.89925 11
493 2 2.78751 -1.80634 10.8742 14
494 2 -4.31249 -0.0135018 1.06383 21
495 2 7.28014 4.67796 7.48463 13
496 2 8.80133 -0.357744 -5.91889 11
497 2 0.296896 -2.84858 4.21334 19
498 2 -2.56165 6.06797 -7.13215 16
499 2 -3.80107 -9.70539 -0.70194 13
500 2 5.00027 -7.80566 -0.88318 16
