ITEM: TIMESTEP
7000
ITEM: NUMBER OF ATOMS
1000
ITEM: BOX BOUNDS pp pp pp
-30.0 30.0
-30.0 30.0
-30.0 30.0
ITEM: ATOMS id type x y z Coordination
1 1 -5.41431 -9.06802 -13.2147 13
2 1 5.98639 -10.2732 3.00395 13
3 1 -10.9797 7.91213 1.8047 9
4 1 -9.86817 4.72807 -7.75923 12
5 1 -0.126072 -4.21781 8.60833 22
6 1 -7.90714 0.587973 -11.7488 13
7 1 -6.66341 -7.63872 1.14469 17
8 1 5.14844 -2.91097 5.92029 18
9 1 0.187844 7.36299 7.98098 17
10 1 8.89497 1.89612 4.20366 18
11 1 0.238169 10.3942 -11.1551 14
12 1 0.534932 2.92773 11.2662 18
13 1 -12.6983 1.31839 -2.04481 17
14 1 -2.24388 -3.2445 -9.70629 20
15 1 3.13773 -0.13124 6.00978 20
16 1 3.07534 -4.73084 -7.60615 20
17 1 -1.17085 2.67278 8.2607 20
18 1 -4.73809 -8.6816 8.85375 13
19 1 -10.714 -1.0759 0.00169752 22
20 1 -8.11062 -1.25233 -4.00477 20
21 1 -4.01085 13.4863 -2.56136 12
22 1 -2.50221 -1.77437 -12.9022 19
23 1 3.60782 -8.5958 -13.0629 7
24 1 -0.464823 -6.08706 11.266 13
25 1 -10.2317 5.79083 -0.0619149 19
26 1 -5.39161 14.5546 -0.590993 10
27 1 0.69749 -12.7691 2.87894 14
28 1 4.18751 -9.85214 -5.79167 22
29 1 6.4998 1.96446 2.86482 22
30 1 -7.57767 7.80927 -6.82879 18
31 1 -3.03461 9.61043 -10.1308 14
32 1 0.115567 5.62121 5.43133 17
33 1 -6.97805 -0.00717273 0.444418 18
34 1 3.49754 -2.07302 12.3456 13
35 1 -7.42339 -5.0597 1.13116 22
36 1 12.0762 -0.93203 6.60907 9
37 1 7.71964 -1.03779 -2.94349 18
38 1 6.38316 0.499721 5.77468 19
39 1 -11.7145 -7.40449 -1.11228 20
40 1 -5.34883 -6.6899 -10.02 22
41 1 -9.73172 12.166 0.0648088 7
42 1 -1.59811 7.83811 -7.00356 16
43 1 4.59159 -1.77482 -7.87477 20
44 1 9.70893 -6.48999 3.86864 14
45 1 2.57004 -11.5269 5.42293 11
46 1 -7.11588 6.71565 2.21332 23
47 1 -3.69073 -5.72525 6.65887 20
48 1 -9.50741 1.09892 3.00205 20
49 1 5.52784 -10.8765 -8.09095 14
50 1 3.37987 0.141929 -14.3353 16
51 1 -3.60472 14.6631 5.80093 7
52 1 -6.62013 3.74365 -11.9199 14
53 1 0.0694837 7.63701 -2.04076 19
54 1 -2.08194 -9.83038 8.01416 10
55 1 -2.24138 -6.34224 -9.56484 19
56 1 4.31573 -11.4478 -11.1218 9
57 1 -0.825116 -0.925912 9.07988 22
58 1 -12.8152 -10.1367 -3.47502 9
59 1 6.52061 -4.06295 3.62447 20
60 1 -10.1643 -9.27296 -3.44111 18
61 1 8.10297 -9.74184 0.739795 15
62 1 -4.99516 8.20219 0.684492 20
63 1 3.11465 1.79154 -8.19754 18
64 1 7.73504 -9.89865 -2.85769 13
65 1 -7.55691 -6.99344 -4.15145 20
66 1 8.3198 12.5717 1.01483 10
67 1 8.86351 7.16286 -4.88778 19
68 1 -7.14467 10.842 -5.3133 13
69 1 0.348413 -7.78758 -14.1435 10
70 1 -1.92804 10.8189 -3.21686 17
71 1 11.2539 2.41251 -4.30688 14
72 1 4.2409 3.23287 -10.6641 18
73 1 8.54785 -8.84522 4.79053 9
74 1 -4.66755 4.26936 -9.47409 19
75 1 8.6001 10.1781 -4.43756 13
76 1 11.4378 3.29141 -0.493238 16
77 1 -0.949595 11.8215 -0.635371 20
78 1 -6.91971 -2.59104 -13.9155 13
79 1 -14.5544 -3.64026 -3.3799 9
80 1 -2.31698 6.24698 5.574 17
81 1 -3.73294 11.267 -6.25031 12
82 1 3.98088 -4.80073 11.3285 14
83 1 -12.2164 -6.8377 3.22669 11
84 1 -4.3565 -10.4843 3.1451 12
85 1 1.10796 10.513 -2.99325 17
86 1 14.4193 0.603278 4.00532 8
87 1 -2.13702 -7.8693 5.68988 18
88 1 -7.04272 1.77424 -3.54551 20
89 1 -1.37929 4.88758 10.7088 12
90 1 -4.77198 -1.30233 -8.01997 22
91 1 -8.67604 -6.42572 -1.91316 20
92 1 -11.1036 -11.0877 -0.64021 11
93 1 6.8387 -7.93652 -5.46448 19
94 1 -2.65776 9.93984 2.38358 19
95 1 -4.97232 -0.854776 2.69977 21
96 1 -10.1987 -1.42483 -6.031 20
97 1 1.96693 -8.39105 6.06628 21
98 1 5.58002 4.39319 -7.97589 17
99 1 2.34483 0.188596 11.1826 19
100 1 -1.57429 7.83473 -12.6196 11
101 1 -5.54751 -3.70214 -9.48641 19
102 1 -7.28812 12.5495 -2.53109 11
103 1 2.63894 1.53216 13.7521 10
104 1 -4.93573 7.61486 -11.3825 12
105 1 1.35019 2.06976 -11.8522 17
106 1 -7.42706 4.03515 4.26 14
107 1 -8.07014 5.7852 7.81959 8
108 1 -0.650177 -12.1651 -9.29331 12
109 1 3.63772 -6.48482 -4.85327 22
110 1 6.64064 8.72937 -9.41959 12
111 1 -1.51666 13.6308 3.06427 14
112 1 -12.3371 3.38635 0.373607 12
113 1 2.12909 4.77335 7.84245 22
114 1 12.4468 -2.56745 -0.940362 12
115 1 3.79807 6.29394 5.65593 18
116 1 -8.09739 3.49947 1.22399 18
117 1 -11.9027 -6.66294 -4.33875 13
118 1 0.0760811 -0.301384 13.1567 11
119 1 2.74939 -10.4998 -0.894763 21
120 1 -0.339442 -2.23701 -14.9552 13
121 1 7.5173 -2.24042 -6.1781 20
122 1 -10.7918 -2.72227 6.13945 12
123 1 -8.38083 -4.67182 -9.8025 18
124 1 -3.59673 -5.5273 0.567792 22
125 1 -2.78866 -8.56188 0.28684 19
126 1 -9.56883 -2.73821 -11.8986 12
127 1 -10.8736 0.869296 -7.76732 14
128 1 2.23834 6.03843 10.5639 11
129 1 6.60855 -2.60247 11.4445 11
130 1 -0.12662 -5.32201 5.8218 21
131 1 4.25582 8.80905 -0.890047 17
132 1 -9.97137 -7.65464 1.04548 16
133 1 0.84593 13.1188 0.974257 14
134 1 -7.65088 -5.93688 -12.2855 16
135 1 -4.5476 -9.96901 -10.5415 16
136 1 -4.73483 -7.26047 -1.95288 18
137 1 10.4118 4.46867 3.13506 14
138 1 -2.81445 -5.82783 -4.65766 24
139 1 -7.27474 -4.84047 5.81328 21
140 1 -4.84078 -8.5413 -4.95496 20
141 1 -0.230934 -9.67684 -1.72653 21
142 1 -0.128154 -12.3625 -0.377816 14
143 1 -9.0111 2.98271 -9.94742 14
144 1 7.89774 10.1579 3.70355 9
145 1 -2.61654 0.115089 -10.4465 18
146 1 3.40999 9.05534 -10.3007 13
147 1 -1.27422 -2.49937 5.79163 19
148 1 3.28691 12.8674 3.69431 12
149 1 9.72029 4.0671 5.76622 12
150 1 -8.7647 -1.71743 2.12936 19
151 1 1.02867 -9.32004 9.49026 12
152 1 -9.50276 7.22769 4.00878 12
153 1 2.90598 -5.45815 -12.5646 15
154 1 5.07675 -8.45452 -3.21974 22
155 1 7.65512 -3.20445 -11.9245 9
156 1 -3.32898 -3.88518 3.1693 22
157 1 -2.40224 1.69056 11.4421 12
158 1 -9.09947 0.911562 -0.653207 19
159 1 7.29975 -11.5054 -5.50632 12
160 1 -1.99942 8.62017 -0.548981 21
161 1 -4.95611 4.04168 1.92859 19
162 1 0.00309854 -9.59662 4.37117 18
163 1 -5.63116 7.44636 8.40476 11
164 1 -7.5474 -3.40447 -7.04335 21
165 1 -2.96556 11.6167 4.91237 19
166 1 -3.09252 1.90312 -7.90684 21
167 1 -13.3621 -4.33634 3.48798 9
168 1 -3.64215 -4.34808 -7.23489 19
169 1 -5.88602 9.72233 -2.60683 21
170 1 7.97786 -0.702319 3.2058 21
171 1 5.42199 -8.62191 5.61011 17
172 1 1.78419 -1.53897 8.66365 19
173 1 1.46049 -11.2399 -6.40984 20
174 1 -6.36276 -1.94091 -11.1053 19
175 1 -10.9335 -1.34564 -2.78228 21
176 1 -1.54567 -6.80955 -1.7942 19
177 1 13.3148 3.33385 1.5346 10
178 1 -3.66274 5.73978 -13.2797 11
179 1 -9.93746 3.09379 4.90992 13
180 1 -8.47508 10.0558 2.87845 12
181 1 -2.25939 3.19818 5.04807 21
182 1 8.19617 -6.25322 -9.68027 13
183 1 10.2921 -2.00893 -7.29021 13
184 1 -5.23118 4.67791 -3.09634 20
185 1 -2.55813 -9.88345 -8.33266 17
186 1 2.36724 9.76011 6.04574 15
187 1 -8.48185 2.20766 -6.48563 17
188 1 5.068 -11.3883 -2.67269 16
189 1 9.06374 -0.691303 6.51544 20
190 1 -12.0117 -4.27154 -4.65827 14
191 1 -9.16391 -11.784 -2.52886 11
192 1 -3.78301 11.0403 -0.238031 21
193 1 -6.78852 7.22333 -3.57972 21
194 1 -3.16724 -7.49166 -13.1182 19
195 1 3.05479 -9.58426 2.88306 19
196 1 -5.70874 -12.2645 -3.01328 15
197 1 -7.70493 6.50625 -9.835 12
198 1 -1.40802 -10.8481 1.86015 15
199 1 -6.67352 -2.29728 8.11975 18
200 1 -5.6255 1.61903 4.33938 17
201 1 -0.223109 -4.78696 -7.00265 23
202 1 1.85937 -3.06426 5.98492 21
203 1 -11.8143 -0.970251 2.95969 15
204 1 -1.35865 -6.94591 8.54671 20
205 1 -4.07366 -5.77161 10.408 15
206 1 1.30343 -8.10053 -7.05317 22
207 1 5.53362 -12.6568 0.808655 11
208 1 -0.476532 12.1739 -5.24338 8
209 1 -6.05495 -8.32942 5.81605 17
210 1 9.29476 -3.12949 9.11343 14
211 1 8.05403 4.83695 -3.11538 21
212 1 1.24331 -3.40202 -9.62198 20
213 1 10.0768 -5.74591 6.72779 12
214 1 -7.35461 -2.4265 10.9584 10
215 1 1.27528 14.8528 -1.55203 7
216 1 6.68069 -6.23848 6.38822 22
217 1 -3.91052 -12.5796 -8.10247 11
218 1 0.114111 12.471 6.05826 14
219 1 -6.93631 -1.32675 5.53004 20
220 1 -4.26791 -11.0086 -5.60226 20
221 1 -8.6474 -8.64507 -6.89124 12
222 1 -6.43002 8.01394 5.52625 15
223 1 -6.01745 -9.80154 -7.93478 17
224 1 -6.47408 -3.33016 3.45145 19
225 1 7.42494 2.46806 7.76708 18
226 1 11.6338 5.56958 -3.00289 11
227 1 0.515655 4.39671 -9.5792 16
228 1 -1.78765 4.49307 -8.21606 20
229 1 -2.0985 8.00712 9.38563 13
230 1 -14.8848 -0.941317 -3.54353 8
231 1 4.342 10.3395 -7.47756 14
232 1 -7.74158 -8.47792 -10.3415 11
233 1 -1.8141 -5.17512 -14.4867 14
234 1 9.79789 8.69423 -7.35709 8
235 1 1.40233 9.21874 -2.46719e-04 23
236 1 2.94605 -0.7012 -9.66807 15
237 1 4.85388 -7.08006 3.26315 19
238 1 -3.88771 2.84731 -12.8563 15
239 1 9.50085 8.05058 -2.12838 15
240 1 5.51538 -5.68704 -1.81587 20
241 1 0.473689 -0.0979917 -13.6036 16
242 1 0.58573 -8.9483 1.14974 20
243 1 3.97261 -10.1787 8.36925 10
244 1 -6.03624 1.48815 -9.22698 18
245 1 -1.29713 3.89521 -14.7042 11
246 1 -14.0182 -5.74076 0.408816 12
247 1 10.0616 -0.551869 -4.67952 20
248 1 -4.88037 8.38491 -5.68785 20
249 1 2.83475 -9.69577 -9.30836 18
250 1 2.29828 3.09216 -14.6352 12
251 1 8.82947 -5.17226 -6.21397 17
252 1 -8.12607 -7.00438 3.53042 19
253 1 -4.20724 13.2307 2.14747 16
254 1 -1.63635 10.8889 -8.05122 14
255 1 12.7289 0.778634 -1.5713 11
256 1 -0.943409 -12.4545 -3.45076 14
257 1 1.35539 -6.43913 -9.43588 16
258 1 2.77481 7.54017 -2.78061 21
259 1 13.5589 -2.73304 2.33943 10
260 1 1.19254 -9.05656 -4.21379 18
261 1 -10.9292 0.934565 6.37013 11
262 1 -5.7123 -5.93183 -6.62513 19
263 1 -2.04037 -3.25733 11.8231 15
264 1 8.65045 6.46543 -8.71303 12
265 1 -9.59018 6.26131 -4.22925 15
266 1 -1.83922 15.0249 -0.0647481 12
267 1 -3.20529 -2.71209 8.7512 20
268 1 2.06856 -11.9943 -3.37747 18
269 1 5.22736 -5.55378 -10.1306 16
270 1 -13.882 -2.50433 -0.0393092 13
271 1 -10.1489 1.58941 -3.72029 19
272 1 -11.9303 -5.41198 6.95365 7
273 1 3.45635 12.3318 -1.35506 16
274 1 2.74877 -12.9919 -8.56464 11
275 1 5.0983 -7.2059 8.75679 16
276 1 6.36227 -0.0955105 -5.5147 20
277 1 -10.4845 4.65605 2.57644 19
278 1 8.75938 -8.4211 -7.51673 10
279 1 0.676629 10.3112 8.61279 12
280 1 -3.87655 -2.58726 -15.3527 11
281 1 4.85831 4.87314 -13.3009 9
282 1 -5.34346 -5.73509 -14.9428 12
283 1 -3.10633 -10.0634 -2.55261 23
284 1 10.0669 -1.35561 -1.05402 17
285 1 6.94777 -8.81059 -10.5333 11
286 1 4.47135 -12.6264 -5.36503 13
287 1 5.77788 12.3119 -5.0637 9
288 1 -8.46828 4.2207 -2.17609 20
289 1 10.2053 4.64952 -6.34077 15
290 1 3.66082 -4.05232 8.3082 18
291 1 5.46672 5.04266 7.8837 14
292 1 -8.11735 -1.25617 -9.14079 21
293 1 10.2213 5.82888 0.215538 15
294 1 11.5534 -4.44418 1.16947 12
295 1 -2.46789 11.4847 7.73797 13
296 1 4.173 3.11573 5.84116 22
297 1 -8.98735 9.461 -3.73345 13
298 1 -0.800408 -12.7974 -6.73011 12
299 1 -4.50103 7.06041 -8.64276 20
300 1 -4.8983 0.357521 -13.2673 14
301 1 -12.5658 1.61058 -5.05058 11
302 1 11.1985 -8.25348 2.24971 9
303 1 1.86728 -6.48366 8.82227 22
304 1 10.0485 1.42015 -7.46421 14
305 1 10.8818 -1.71901 3.58069 19
306 1 6.72134 12.4017 -1.71598 14
307 1 9.88036 -6.57556 0.357183 16
308 1 -4.84605 0.609683 9.02695 15
309 1 -13.9738 -9.50356 -0.787146 9
310 1 -10.7059 -2.3758 -8.90578 15
311 1 7.81586 2.70319 10.7306 8
312 1 -6.61539 11.3635 0.497568 20
313 1 8.12481 5.93295 2.62048 18
314 1 4.53713 4.95923 3.03408 20
315 1 -9.43078 -0.538551 8.54767 14
316 1 4.66349 0.489011 -11.2391 17
317 1 -2.89038 -7.60835 -7.08237 21
318 1 6.7343 4.61096 5.18356 18
319 1 3.55318 8.16594 7.88477 12
320 1 0.714162 -2.64638 11.4412 17
321 1 -3.51102 5.59897 8.42501 16
322 1 -9.44877 2.90787 8.2773 11
323 1 -3.57862 5.43433 -5.62719 19
324 1 7.35038 9.1333 -6.21699 18
325 1 -0.305595 0.392994 5.72936 22
326 1 4.32985 10.3265 -3.63704 20
327 1 -6.61268 -9.63272 -2.57777 21
328 1 6.32009 5.83634 -0.0356488 21
329 1 0.989583 2.82439 5.72406 20
330 1 -6.51636 5.61617 -0.325278 21
331 1 6.41199 5.64475 -5.04162 22
332 1 1.46259 1.48795 8.27602 21
333 1 5.14508 13.7883 0.823513 13
334 1 -0.456252 -5.64318 -11.7002 18
335 1 -3.9628 7.30614 3.4501 19
336 1 7.8294 -4.16466 -3.76562 19
337 1 5.70213 8.15233 1.86162 17
338 1 -9.56461 -4.45476 3.78413 18
339 1 2.62679 -13.407 -0.0238035 12
340 1 8.32547 4.57786 -12.3674 8
341 1 6.51657 -6.11869 0.960599 19
342 1 -0.281054 7.99671 2.12907 17
343 1 2.93614 -2.94797 -15.3948 8
344 1 4.70383 -7.62855 -7.6519 20
345 1 -3.70166 8.96879 6.57172 17
346 1 3.53545 -5.69538 6.23337 24
347 1 -0.071312 -0.818201 -10.7303 20
348 1 -7.37493 -10.4577 -5.04229 17
349 1 -3.26059 0.179422 6.02919 22
350 1 9.56215 0.809437 1.18838 22
351 1 -5.3666 9.88906 -8.55139 14
352 1 7.90084 1.26655 -11.3313 11
353 1 8.31155 3.45737 -9.12337 15
354 1 0.069974 7.6564 -9.47125 19
355 1 -5.71328 -4.51005 12.5117 9
356 1 -4.96344 -6.5231 3.326 20
357 1 -0.444899 -8.89439 -9.77978 16
358 1 -11.5504 7.34892 -2.75475 8
359 1 7.44676 9.17325 -0.648008 14
360 1 -8.30229 -2.85552 -0.630994 22
361 1 2.62042 6.87554 -7.89361 19
362 1 -4.47651 -1.60626 11.0265 13
363 1 -10.6444 -4.61256 1.35062 22
364 1 8.42377 2.26024 -5.13175 20
365 1 -9.74269 -4.13491 -3.72793 21
366 1 7.9879 -4.08983 -0.784174 15
367 1 4.51909 -8.71138 -0.0631439 23
368 1 -0.885479 9.13565 5.34432 20
369 1 -4.37573 2.78386 6.86681 14
370 1 8.24989 3.21029 0.441533 20
371 1 9.92123 -6.8146 -4.20549 12
372 1 2.97526 7.86452 3.04186 20
373 1 1.17172 10.7109 3.3724 18
374 1 -2.01001 -11.8158 4.91308 11
375 1 -11.5153 -4.21736 -1.51906 21
376 1 4.89602 4.00016 11.8645 8
377 1 3.43078 10.5777 1.7673 20
378 1 6.8809 -3.54086 7.77591 17
379 1 8.87277 -3.67102 5.43741 18
380 1 4.76543 9.86217 4.35477 15
381 1 -3.40469 7.31197 -2.60551 19
382 1 -1.87085 -10.245 -12.3841 9
383 1 -2.37362 0.713211 -15.3319 13
384 1 -6.15654 -5.52783 8.80438 18
385 1 11.6967 1.47353 4.11482 17
386 1 1.40751 11.5018 -8.34077 9
387 1 6.37411 -0.991817 -14.5996 9
388 1 -4.97899 -10.8683 0.545157 15
389 1 -6.57437 -0.30095 -6.31382 22
390 1 4.61222 -2.69493 -12.6024 17
391 1 -1.40971 -9.06347 -4.71509 23
392 1 3.06944 -8.03529 11.2752 10
393 1 -1.52998 -6.61139 2.64465 19
394 1 9.14338 -0.645787 -9.21431 11
395 1 -5.46887 10.2812 3.46386 16
396 1 11.3884 -3.68779 -4.62035 11
397 1 -13.7805 0.584395 0.716381 13
398 1 9.79338 8.40109 1.82911 9
399 1 3.48694 2.96746 9.45848 18
400 1 -13.0416 -1.35445 -6.30328 12
401 1 -1.86513 2.53344 -11.0093 19
402 1 10.222 -8.95013 -1.40108 11
403 1 -9.71681 -6.01518 -6.8483 13
404 1 -7.5195 -10.0548 3.46787 12
405 1 9.34698 -2.8046 1.68331 16
406 1 -12.3629 1.86645 3.21679 13
407 1 4.63992 6.35617 -10.1937 14
408 1 8.03261 -5.7777 9.67226 10
409 1 -9.31295 -4.11862 8.41688 15
410 1 -3.91872 -4.64819 -11.8719 21
411 1 -7.74085 -10.7122 0.623982 12
412 1 4.54526 -0.505259 9.26973 16
413 1 -3.48427 -13.5044 -1.41613 9
414 1 7.78517 -3.5725 -9.03729 14
415 1 -8.33569 8.88399 -0.411543 20
416 1 -7.25712 1.28044 7.30815 17
417 1 -3.55955 -14.0186 -4.84966 12
418 1 6.31247 7.69841 -2.9915 20
419 1 9.36137 1.56218 -2.13679 21
420 1 1.68016 -6.29584 3.49896 23
421 1 1.26564 8.2373 -5.31781 15
422 1 5.83627 2.44208 -13.4784 14
423 1 -11.9347 4.11431 -2.6758 14
424 1 3.3104 5.85765 -5.23853 20
425 1 6.48772 12.7046 3.25513 10
426 1 4.83515 8.10872 -5.98215 18
427 1 -6.22031 3.83322 8.82113 13
428 1 6.22867 1.20323 -8.27356 19
429 1 4.00544 -13.1098 3.35996 10
430 1 -4.25455 -2.50695 5.81039 20
431 1 10.2794 1.59313 8.44365 10
432 1 5.69578 -4.61586 -7.00228 21
433 1 0.0340905 5.11706 -12.8979 12
434 1 -1.75345 5.18363 2.52843 21
435 1 -3.37963 5.67896 0.199961 22
436 1 -4.84139 -10.842 6.07991 10
437 1 7.68739 -7.20974 -1.7484 22
438 1 1.43424 -3.0006 -12.7229 17
439 1 -7.0186 -3.82254 -2.6514 16
440 1 -6.9134 5.18216 -6.19945 20
441 1 7.568 -0.489416 8.82059 17
442 1 -8.81903 -6.98287 6.86887 12
443 1 13.059 0.261958 1.35646 16
444 1 1.58491 7.73049 -12.0261 13
445 2 -9.77112 -0.753017 -8.13791 17
446 2 -8.14019 12.4184 -0.805456 12
447 2 1.56918 -1.75695 -14.3937 14
448 2 -5.5424 5.48598 8.46339 12
449 2 -5.80434 -3.96803 -6.45109 20
450 2 3.86433 3.85371 7.60785 20
451 2 -12.8868 1.79425 -0.30498 14
452 2 10.1409 6.61348 2.38695 10
453 2 -3.65928 -2.54399 -8.68396 21
454 2 -7.83917 -9.27399 -8.52168 13
455 2 -7.12462 1.88754 -0.0379183 20
456 2 -1.06668 -6.46671 4.70657 20
457 2 0.885172 4.89766 11.1126 12
458 2 7.06911 -2.18037 -13.2853 9
459 2 6.36943 0.286497 2.06737 22
460 2 -5.76759 13.591 -2.06521 11
461 2 11.4851 0.0981488 8.25306 9
462 2 -10.6814 -6.71445 6.71679 11
463 2 -3.18095 -9.90716 1.62108 16
464 2 9.48823 -4.89434 8.36854 12
465 2 -9.87711 7.57512 0.0567867 16
466 2 -10.4342 8.09835 -4.23622 9
467 2 -3.90338 7.24394 5.26204 19
468 2 6.57226 -3.85841 -5.20106 21
469 2 -5.13641 -3.2218 -11.4349 20
470 2 -0.326083 -7.09175 -10.4676 17
471 2 7.98327 -4.64062 -10.8792 12
472 2 12.8355 1.89866 0.0923373 12
473 2 -4.2304 8.92856 2.51539 21
474 2 -3.12008 -9.23354 -5.99993 18
475 2 2.83243 -10.5336 7.02103 12
476 2 10.2363 0.327069 3.15001 19
477 2 -8.86922 2.38355 -2.67846 19
478 2 6.1146 8.04485 -0.0557277 20
479 2 3.82032 -13.5615 1.51085 9
480 2 0.0112591 6.223 2.38784 18
481 2 4.35504 9.13386 2.5964 20
482 2 2.85981 11.2306 -3.02356 16
483 2 -8.97001 1.14189 7.66337 14
484 2 1.60976 -0.217265 -8.32054 22
485 2 -7.09335 0.185699 -8.06754 21
486 2 -12.656 -2.60706 3.25445 11
487 2 -7.99618 -6.77336 -0.107767 20
488 2 1.82454 -8.23049 7.97425 17
489 2 -0.334113 -4.25904 11.0585 18
490 2 -0.570503 7.12907 6.27218 20
491 2 -8.47575 4.84459 -0.211914 18
492 2 2.40695 -9.50681 -5.66813 22
493 2 10.9505 -2.18055 -5.58034 12
494 2 -2.95731 -8.17979 -2.05489 19
495 2 4.46504 -5.94499 -8.29646 16
496 2 2.2218 9.5034 8.04226 11
497 2 5.5612 -11.2494 -6.1324 14
498 2 4.87425 -2.68136 7.81867 20
499 2 -8.18976 -8.90707 2.10304 13
500 2 12.1878 -0.68187 -0.640518 16
501 2 -0.490073 -10.4245 0.186456 17
502 2 11.7347 -3.12757 -2.62245 11
503 2 -7.37836 -6.34216 -10.3066 15
504 2 -11.683 -9.28114 -0.518896 12
505 2 -1.80278 -6.60342 0.453326 19
506 2 -4.08318 -6.8183 -5.88842 19
507 2 -5.29267 9.82482 -0.341323 21
508 2 4.94871 -0.0801813 -8.3764 18
509 2 9.41006 3.29918 -7.54067 16
510 2 1.27043 3.01697 -8.47516 19
511 2 -2.75997 1.79455 7.23244 17
512 2 -10.8147 1.26781 4.36935 15
513 2 -2.54954 -1.90434 10.3327 17
514 2 -9.26104 3.13646 2.68749 17
515 2 -6.86308 1.80722 -5.39473 19
516 2 10.4531 -0.307329 -7.79769 12
517 2 8.31254 -9.49225 -1.162 13
518 2 8.06522 5.02769 0.521758 20
519 2 -1.10613 12.5179 4.54832 18
520 2 -3.7292 5.65591 2.42233 19
521 2 11.4416 5.13933 -1.22517 14
522 2 1.16699 8.43442 -3.47723 19
523 2 0.00112539 11.9834 -7.11175 9
524 2 0.54357 3.45774 7.69883 22
525 2 -4.38945 -4.83454 8.5981 19
526 2 1.29332 -5.59601 -7.66566 21
527 2 -5.50695 -2.01297 9.49984 18
528 2 4.05231 3.44048 -14.0593 12
529 2 -6.00976 -7.42999 8.20425 14
530 2 -1.3538 -10.2571 -3.08874 20
531 2 -2.19067 -5.65086 -7.67606 19
532 2 4.2727 -12.5523 -1.07645 13
533 2 11.396 1.83167 -2.4815 15
534 2 -4.96856 4.52001 -12.4873 15
535 2 -3.39326 13.1021 6.53695 10
536 2 -8.6928 -2.6668 -2.66502 20
537 2 4.33867 5.03436 -11.323 15
538 2 -1.09504 13.6651 1.17312 15
539 2 -1.45208 3.16964 10.3086 14
540 2 0.55491 -12.247 -4.75837 15
541 2 3.90586 4.80523 10.4425 13
542 2 9.58017 -7.43005 -2.44345 13
543 2 6.24237 6.23666 2.03272 19
544 2 -3.33831 7.52815 -12.3078 11
545 2 6.66454 -5.84437 8.35679 17
546 2 -4.18363 -9.9228 7.61502 12
547 2 6.42844 -5.75433 2.7131 17
548 2 -8.18286 9.15997 -5.47822 14
549 2 -4.68892 -10.4023 -3.70618 19
550 2 -0.485723 -1.77343 -12.9019 17
551 2 -3.66853 -9.2828 -12.5192 11
552 2 4.94251 12.7658 2.47308 14
553 2 -10.8208 -5.72852 -2.47847 20
554 2 -12.0311 3.57761 2.40119 14
555 2 8.53402 -1.9522 7.92356 18
556 2 -4.24448 -13.1942 -3.43298 12
557 2 1.41967 -2.09285 -11.0439 20
558 2 -6.46144 -0.951987 -12.7276 14
559 2 -8.02774 -4.14609 -12.7809 13
560 2 -6.5323 -5.16463 11.0544 12
561 2 -5.15053 -5.31044 -8.38599 22
562 2 -0.231081 -2.8203 -8.5196 22
563 2 4.19636 -1.18872 -11.5554 18
564 2 -9.91764 -7.2161 3.00905 17
565 2 1.25866 -5.11985 -10.9512 18
566 2 -2.0992 -8.20709 -8.71931 19
567 2 5.02132 8.33083 -10.3485 13
568 2 3.14264 11.0269 4.77539 15
569 2 10.7403 2.9618 4.48985 13
570 2 -10.3391 -3.38246 -0.0423486 21
571 2 -6.28822 -9.8998 4.82585 12
572 2 -2.04357 -1.68198 -10.8875 19
573 2 3.64254 8.20877 5.3496 14
574 2 -4.66143 -7.2316 0.0774611 19
575 2 -5.1228 4.33213 -0.0265812 23
576 2 -10.9116 -3.98405 7.63647 10
577 2 -3.67119 -11.2952 4.59913 12
578 2 -13.4008 -4.25219 -0.763288 15
579 2 -8.98555 -7.78697 -3.09131 19
580 2 -6.37941 -6.18642 2.21565 20
581 2 7.93153 -3.92954 10.4853 10
582 2 3.05454 7.65681 -6.00588 18
583 2 5.75776 9.07605 -7.60762 15
584 2 10.2331 1.49138 -5.57328 16
585 2 -3.49501 14.7991 -1.32968 11
586 2 -9.03501 -4.47053 -8.00402 18
587 2 -12.732 -1.00765 0.153613 16
588 2 -4.27777 -13.122 -6.2833 11
589 2 4.88995 -6.82281 5.50215 19
590 2 10.0337 -8.31862 3.80693 11
591 2 -5.29947 10.4396 -5.8175 13
592 2 8.19747 2.68707 -3.25721 22
593 2 5.04355 -3.33011 12.3714 8
594 2 -2.18553 -4.54021 -11.0963 20
595 2 3.05059 5.92701 2.08752 22
596 2 4.6665 4.67032 4.79694 19
597 2 -1.24395 -2.49079 7.82176 22
598 2 -6.72403 4.55161 2.4977 18
599 2 4.37058 5.64225 -8.38533 17
600 2 -7.69547 -6.79418 -6.24947 19
601 2 -10.8456 -5.56721 -5.40205 14
602 2 -8.50173 -2.50007 9.23054 14
603 2 7.26112 11.0728 -5.18292 13
604 2 9.7972 6.52548 -3.27238 16
605 2 10.3151 -8.58236 0.524023 11
606 2 -10.7541 0.678977 -1.25138 17
607 2 -2.23626 10.1159 0.519444 19
608 2 -4.97774 9.35935 -10.4867 9
609 2 2.91183 1.22977 -10.8345 18
610 2 -7.82584 6.41669 -5.01531 19
611 2 -8.82122 -3.78017 1.7896 20
612 2 7.43846 -5.42136 -2.34809 18
613 2 2.59059 -9.63369 1.01508 21
614 2 -7.68712 8.62027 -2.36998 17
615 2 0.378926 -5.62287 2.37165 20
616 2 -12.0132 2.67521 -3.71363 12
617 2 1.68091 -6.71558 -0.438289 21
618 2 1.45196 6.39804 9.00756 17
619 2 -0.479628 1.25699 -10.965 18
620 2 1.93554 9.69959 -11.276 11
621 2 6.01057 1.55462 -11.6993 20
622 2 -2.82078 11.721 -1.97923 16
623 2 -7.67485 -4.8891 7.64559 15
624 2 -2.15963 -6.3405 10.3947 13
625 2 -3.3195 -5.82599 2.52675 18
626 2 -14.6113 -2.12893 -2.05377 13
627 2 -7.67212 -4.78429 3.8032 20
628 2 -0.437945 5.84341 -8.84156 15
629 2 8.11237 -0.688874 -4.96497 21
630 2 3.4892 -3.62531 5.15777 22
631 2 3.01475 -4.12178 -13.9773 12
632 2 6.4004 5.78192 -2.55352 20
633 2 8.36103 11.7775 2.71771 9
634 2 2.88679 -2.92105 -8.29339 22
635 2 -6.9234 -4.07511 -0.765557 19
636 2 -6.97002 11.0063 -3.30928 15
637 2 -2.06357 6.05751 9.59178 13
638 2 0.44426 -13.2246 1.13791 10
639 2 -6.06178 -10.9017 2.09809 11
640 2 3.90523 -0.965679 10.8982 16
641 2 6.77034 4.29813 -13.5295 9
642 2 3.57552 10.5339 -0.311491 23
643 2 4.92293 -8.85217 2.01036 18
644 2 3.81845 -12.6604 -7.11619 12
645 2 0.586962 3.87554 -14.7763 10
646 2 2.11702 1.99954 10.3225 22
647 2 3.1956 -0.301214 7.86119 21
648 2 10.1096 -5.0062 4.81822 16
649 2 -0.633374 -0.151131 -15.1316 10
650 2 7.25512 -5.25251 -7.92979 17
651 2 -8.91267 10.5769 1.01855 11
652 2 2.92884 -11.5942 -9.71524 12
653 2 -0.498249 1.43244 12.276 15
654 2 -8.46679 3.97684 -6.36553 15
655 2 7.76245 -9.61241 -6.21282 14
656 2 2.00864 12.0558 2.20062 17
657 2 9.4755 8.15637 -0.267585 14
658 2 9.7703 1.96413 -0.295722 21
659 2 -9.77581 -0.117796 -4.0855 21
660 2 -5.24663 4.51696 -5.30237 19
661 2 -5.4454 2.89317 -8.3358 21
662 2 9.77243 6.25549 -7.0365 14
663 2 -10.8307 5.6935 -2.91249 13
664 2 -0.355978 -5.66523 7.57308 21
665 2 -0.809385 -1.9311 12.6333 11
666 2 0.850808 -12.1774 -7.99721 14
667 2 -2.08805 -3.15112 -14.998 13
668 2 2.01064 13.393 -0.619178 14
669 2 5.56287 11.9285 -3.25968 13
670 2 -8.24458 -1.85152 -6.03138 19
671 2 -7.4246 -11.3191 -3.35163 15
672 2 8.14585 0.323258 5.143 20
673 2 -10.2501 8.82038 3.26993 8
674 2 2.19705 -12.5697 3.68275 13
675 2 9.21512 -1.14778 0.973968 17
676 2 -2.76118 -3.55288 4.78359 22
677 2 -5.60379 -8.37831 -9.43678 19
678 2 -0.313102 11.9741 7.78405 12
679 2 0.307601 10.492 -1.25503 19
680 2 -9.6996 5.07074 4.63551 14
681 2 -0.827786 -8.82201 8.81077 15
682 2 -3.30597 14.3602 3.88498 8
683 2 -1.48485 -13.0354 -1.57441 14
684 2 0.246717 -3.66321 5.21369 21
685 2 6.14435 3.41862 10.6238 11
686 2 -6.7431 7.47941 0.238053 20
687 2 -7.07068 5.59513 -2.46511 20
688 2 -3.76902 0.540086 10.5205 12
689 2 -6.29537 -9.32082 -11.5964 14
690 2 9.68166 -0.354036 -2.56409 21
691 2 4.23762 -9.5415 -7.92707 19
692 2 -4.89964 8.21055 -3.6015 19
693 2 -7.11656 -0.440015 7.41948 16
694 2 -11.9609 0.221263 -6.26811 14
695 2 8.63577 -7.09921 -5.99491 15
696 2 4.54104 8.2411 -3.04013 22
697 2 -3.52342 -1.16756 7.24576 22
698 2 1.02815 -1.20243 10.3239 22
699 2 0.098353 7.02759 -12.7113 13
700 2 -14.1145 -2.11307 -4.90459 11
701 2 -7.01873 -2.75539 -9.10562 20
702 2 0.67966 7.51301 -7.05756 13
703 2 -5.95734 2.16648 -13.2455 10
704 2 3.79438 -10.1862 -12.2337 7
705 2 1.74842 -9.14325 -2.02527 19
706 2 5.15992 -8.68604 7.38588 13
707 2 5.07617 -0.830559 5.01531 21
708 2 9.62531 -4.92949 -4.42355 13
709 2 -0.716952 -11.4772 3.6707 15
710 2 7.00964 13.8194 1.2482 8
711 2 -1.33209 8.99528 3.39028 20
712 2 -11.0478 -6.38897 0.283765 18
713 2 8.22297 8.35744 -8.1769 11
714 2 1.89773 -6.55629 5.36479 20
715 2 -6.67449 11.0823 2.31781 15
716 2 6.53471 1.80199 -6.13082 22
717 2 2.07674 5.2356 5.88197 21
718 2 -10.2878 -0.382037 2.23671 19
719 2 3.23125 10.8444 -8.99301 11
720 2 5.23055 0.548104 -14.444 12
721 2 -3.84513 2.08698 4.99553 20
722 2 -6.04667 -2.77972 12.1084 8
723 2 10.3329 -1.82832 5.61098 15
724 2 8.54284 -2.21729 -10.3091 11
725 2 -8.13474 -5.23763 -3.72756 20
726 2 4.60426 -9.89801 -1.57558 20
727 2 8.93916 -3.30758 -7.2354 19
728 2 -0.209773 7.67789 0.0895424 20
729 2 -0.546154 -9.24574 -13.4168 10
730 2 -13.1415 0.388379 2.3201 13
731 2 -8.90896 -0.825101 0.24691 18
732 2 3.71493 -11.5002 -4.02959 18
733 2 -2.09453 -11.997 -7.83362 14
734 2 -1.41779 -13.6513 -5.01579 10
735 2 13.8459 -0.919494 2.58619 12
736 2 -1.29072 9.29551 -11.3518 13
737 2 5.16805 13.0178 -0.871975 13
738 2 -4.26201 -10.8231 -8.72822 16
739 2 2.59276 2.03252 5.22698 22
740 2 -3.1744 4.46256 6.72671 17
741 2 -3.30534 7.49745 -6.10424 19
742 2 -3.43692 5.52741 -8.0472 20
743 2 -1.20367 -10.5323 -10.5053 13
744 2 -9.14965 -11.2576 -0.66887 10
745 2 -10.1114 6.40827 2.16393 16
746 2 7.14142 5.17142 -8.85239 17
747 2 -1.53753 8.73126 -8.46684 15
748 2 1.93667 7.68443 -9.89664 18
749 2 -6.53972 -6.74949 -13.8781 11
750 2 -0.25955 -8.80572 -6.23457 19
751 2 -11.5736 -2.57421 -6.84272 15
752 2 6.21409 10.8429 4.27331 12
753 2 -2.42512 2.34392 -14.6096 14
754 2 -13.5789 -7.80148 -0.26135 10
755 2 6.1229 0.748801 7.9048 21
756 2 6.80465 4.15367 7.04354 16
757 2 7.98132 0.747876 -9.16312 14
758 2 -0.217644 10.9286 -9.3899 12
759 2 -2.58032 12.0302 -4.99509 11
760 2 11.4986 -2.72185 2.20243 17
761 2 -4.18272 0.366559 -9.22889 19
762 2 0.872281 3.94009 -11.5585 18
763 2 3.85079 2.7842 12.8534 9
764 2 -4.0481 -6.69 -11.4838 21
765 2 2.10418 -0.144084 13.0987 13
766 2 -0.453325 2.19544 4.71998 24
767 2 6.87673 -11.3847 1.29275 13
768 2 6.21238 -7.03423 -10.5412 11
769 2 -5.41409 9.51181 5.4659 14
770 2 6.78928 -9.23261 4.49766 13
771 2 -0.450061 10.6305 -4.17533 14
772 2 4.3885 6.45561 7.59782 15
773 2 -8.30587 4.74518 -10.3423 11
774 2 -0.314792 15.6253 -0.831502 7
775 2 -8.97519 -9.42276 -5.21148 15
776 2 -0.668302 -6.21758 -13.7205 13
777 2 -5.52873 2.17824 8.31148 16
778 2 13.2455 -3.66211 0.343155 9
779 2 -3.60268 10.5944 -8.19495 14
780 2 -8.9704 -2.97887 4.88385 17
781 2 -6.01016 -10.0528 -6.10395 20
782 2 -3.7525 7.96983 8.30569 16
783 2 -3.44185 -6.19045 -14.5981 12
784 2 -5.71452 6.19134 -9.97388 16
785 2 -3.43236 1.3382 -11.7569 19
786 2 -3.5295 -0.699303 -14.3049 16
787 2 -7.52428 7.23435 4.02187 16
788 2 -7.01876 7.14065 7.0632 12
789 2 4.80659 10.7698 -5.50896 14
790 2 -4.33815 -12.0132 -0.777508 13
791 2 5.08655 2.66219 -8.74384 19
792 2 4.39261 -4.5127 -11.7622 16
793 2 -14.2911 -10.1272 -2.54821 7
794 2 -5.88526 8.1513 -7.56195 17
795 2 -4.85944 -6.70289 5.21343 19
796 2 -2.08935 4.91232 -13.2538 13
797 2 -1.38204 -9.81224 6.13869 15
798 2 9.16942 2.6617 7.23539 17
799 2 6.8891 -4.09106 5.76235 19
800 2 -5.42324 -0.686475 4.44489 19
801 2 8.70106 3.11827 -11.0483 9
802 2 -0.418956 8.79208 8.96867 12
803 2 -1.34677 -7.1116 -4.26013 22
804 2 -11.8324 -8.51272 -3.83373 13
805 2 -7.60075 -7.1319 5.55602 17
806 2 -6.97213 -1.18782 2.03093 18
807 2 -8.22482 6.18545 -8.18372 12
808 2 -13.4531 -5.31593 -3.81605 13
809 2 -3.77848 11.5478 3.13019 17
810 2 8.75359 -7.13866 5.95482 13
811 2 7.90491 8.58415 2.4491 14
812 2 -6.31151 -9.70062 -0.658354 20
813 2 -11.4497 -5.08281 3.28193 18
814 2 -13.5505 0.458921 -3.60831 13
815 2 -1.67355 -0.626053 4.85056 23
816 2 2.55608 -3.45654 11.3322 17
817 2 1.85282 -9.82556 4.40524 17
818 2 8.35251 2.17032 2.33417 21
819 2 4.94226 -7.83528 -5.5216 17
820 2 -3.58073 7.3581 -0.28947 19
821 2 -8.54862 -1.40555 -11.133 15
822 2 -4.82007 -2.97689 2.84198 21
823 2 3.76138 -5.94332 8.16457 20
824 2 1.25127 -7.08644 10.7991 16
825 2 4.30319 -6.61135 10.7625 12
826 2 4.87246 4.81172 -5.56503 19
827 2 8.72005 4.863 4.3597 14
828 2 4.51736 -1.88673 -14.5268 11
829 2 8.57613 -2.69186 3.66842 16
830 2 11.179 4.17382 -4.58325 14
831 2 8.36984 -8.23196 -9.36173 9
832 2 0.680518 10.6247 5.24338 17
833 2 12.707 0.0123734 4.94497 12
834 2 -2.72291 -7.29072 7.27871 17
835 2 1.81333 -3.58042 8.29823 20
836 2 -5.99032 -3.15115 5.91474 20
837 2 1.51898 -12.0579 -1.581 17
838 2 9.64059 -4.41835 0.196639 17
839 2 10.7386 -6.0402 2.02685 12
840 2 3.10128 -9.31278 9.82169 11
841 2 6.05392 -4.54312 -0.184174 19
842 2 -10.6008 2.79324 6.72425 11
843 2 -1.64761 4.80505 4.41911 17
844 2 8.32984 5.30873 -5.27894 18
845 2 2.30911 -7.41524 -13.4835 10
846 2 5.93037 -10.8561 -10.0697 10
847 2 1.85625 1.36294 -13.7512 13
848 2 -7.21963 2.31056 -10.683 16
849 2 7.68231 11.2839 -0.221692 13
850 2 -11.2454 -2.95988 -3.412 21
851 2 11.4636 4.27623 1.20223 15
852 2 -6.72983 -0.216553 -3.57609 19
853 2 4.5541 -6.75569 -0.272552 20
854 2 -2.11407 8.89382 -2.64883 20
855 2 13.5569 1.91481 2.77601 10
856 2 6.24123 7.54985 -4.96152 20
857 2 4.42757 -11.2285 3.71362 14
858 2 -13.8155 -6.02653 2.44823 9
859 2 8.64794 1.68454 9.46365 12
860 2 7.65296 -7.6065 0.497824 21
861 2 3.33935 -6.03509 2.86944 19
862 2 7.78959 8.91034 -2.96049 18
863 2 -7.1526 2.45608 5.28914 20
864 2 -11.5718 4.53186 -0.907776 16
865 2 8.57945 -2.70567 -2.03978 17
866 2 6.8313 -8.27094 -3.20517 20
867 2 -5.90295 -7.81893 -3.51334 22