ITEM: TIMESTEP
11000
ITEM: NUMBER OF ATOMS
2000
ITEM: BOX BOUNDS pp pp pp
-30.0 30.0
-30.0 30.0
-30.0 30.0
ITEM: ATOMS id type x y z Coordination
1 1 -7.05192 2.43727 -13.7897 21
2 1 -6.06428 -9.99882 -13.443 11
3 1 8.16992 12.467 15.2356 12
4 1 9.56469 -9.26376 3.47241 16
5 1 -7.6033 12.3688 0.0762179 20
6 1 9.96688 -8.71758 -10.0861 18
7 1 -10.8909 3.71656 -7.90524 21
8 1 2.67925 -3.85496 10.5373 16
9 1 -8.61956 0.838719 -15.8559 14
10 1 -12.844 -9.10481 1.66588 10
11 1 8.72388 1.86033 -13.9256 16
12 1 -1.97222 -10.1822 1.13255 16
13 1 -14.7648 -3.62055 2.76599 9
14 1 6.80153 4.53621 18.5109 12
15 1 6.14029 -1.10629 7.34021 20
16 1 0.57805 4.71696 5.3326 19
17 1 6.30906 -1.62755 1.74615 18
18 1 -0.379165 9.37493 -7.77868 23
19 1 0.734264 5.66151 8.3443 18
20 1 -8.31568 -5.03997 -15.2576 11
21 1 -12.5002 -3.47742 10.2719 10
22 1 12.9668 5.1771 9.28198 20
23 1 -1.63902 8.53363 -16.121 20
24 1 1.85287 4.15359 -14.8512 23
25 1 11.7729 3.21147 7.47306 19
26 1 -7.0306 1.6624 -0.214041 25
27 1 -8.92193 7.13699 -13.5031 20
28 1 -1.89294 -0.87684 -11.0416 19
29 1 -13.2909 13.2777 7.84895 6
30 1 4.69321 -9.96556 8.66376 15
31 1 -0.8242 1.73667 4.76736 19
32 1 6.64098 -14.8293 -8.64792 15
33 1 5.25098 -6.55525 0.61153 21
34 1 -0.10891 -16.1432 -9.78244 12
35 1 -11.5762 -7.12475 4.77942 13
36 1 6.12168 -10.7427 -16.4944 12
37 1 5.49332 -6.36072 -12.2027 15
38 1 -3.8786 3.6954 -18.2804 12
39 1 3.78223 3.39284 13.4593 20
40 1 0.753366 -9.85038 4.21196 18
41 1 4.48206 -1.495 9.90906 21
42 1 -13.6366 3.83265 -0.417826 17
43 1 -13.7827 2.38205 7.96441 15
44 1 -6.36125 2.8541 -2.99741 23
45 1 -1.80386 19.974 -4.9501 15
46 1 5.25981 -14.923 -2.81813 18
47 1 3.49367 1.65648 -10.1606 20
48 1 4.0127 -2.67642 -13.0149 18
49 1 -2.99422 1.8994 14.91 11
50 1 -12.8931 7.4963 -5.06425 17
51 1 3.67368 9.77235 -13.0568 19
52 1 5.20916 15.6927 10.6669 15
53 1 -11.9766 11.1257 -9.44993 12
54 1 0.24071 19.7103 1.88286 7
55 1 1.66791 -8.93926 1.58117 17
56 1 6.88205 -3.42653 -4.05425 24
57 1 3.08945 -3.61122 -17.9744 15
58 1 -9.54731 9.66873 10.6574 11
59 1 -13.9449 -2.53328 -9.68823 10
60 1 6.10024 4.2257 2.99986 20
61 1 -10.9045 9.96721 -3.00227 21
62 1 -9.18444 -10.4968 -1.50454 14
63 1 -3.54172 12.3304 12.837 10
64 1 -10.5633 12.8809 -6.57529 17
65 1 -0.95462 12.9071 10.8511 17
66 1 2.89536 3.82833 -8.04411 21
67 1 -4.32432 -9.34403 5.58382 17
68 1 2.36539 7.77922 5.46774 24
69 1 10.6722 -15.0577 -4.06577 8
70 1 9.20481 9.20074 16.1443 12
71 1 -8.32877 4.35963 -5.44934 23
72 1 -10.3273 14.3147 -9.8145 9
73 1 0.412905 14.5391 8.98564 18
74 1 10.4367 -0.566784 -15.1369 13
75 1 7.99525 -15.6328 3.69356 12
76 1 -13.5427 1.53569 2.33566 22
77 1 -7.01282 -1.96082 -3.01005 23
78 1 4.9668 16.294 2.80613 16
79 1 3.8131 1.15781 11.7108 20
80 1 -7.5955 -11.8396 1.32496 13
81 1 -7.45195 1.2782 5.38001 25
82 1 8.63109 2.20705 8.22047 18
83 1 6.53992 2.62951 -4.80182 23
84 1 3.02843 13.2984 10.9639 20
85 1 2.63325 0.772007 5.07481 20
86 1 -6.01433 -1.43854 3.85612 24
87 1 -2.85444 -4.04941 -11.8146 19
88 1 -13.5331 14.5713 4.80853 6
89 1 -7.44862 17.6611 -1.28942 12
90 1 -1.54252 11.1327 -10.0294 19
91 1 7.6808 0.668967 -8.13393 20
92 1 9.14076 19.0273 -5.41848 5
93 1 5.715 -4.23354 2.70178 24
94 1 6.49077 -7.80538 8.8327 14
95 1 -7.54519 17.7376 -5.52367 15
96 1 -11.2283 14.5004 2.11627 13
97 1 -9.16221 -3.44023 11.5848 14
98 1 -5.96643 12.3729 2.73763 20
99 1 -7.01548 -5.39585 11.4684 10
100 1 10.6151 -5.73472 -7.49641 20
101 1 -8.66078 0.923938 2.55169 21
102 1 -7.88118 -9.80732 -4.78016 15
103 1 12.4578 -7.98089 -8.37014 13
104 1 0.167152 -0.116166 -20.0424 14
105 1 4.26781 -5.24195 -15.9135 19
106 1 -0.862318 13.2932 0.227784 21
107 1 -7.08741 9.3432 -8.10826 15
108 1 6.70637 10.5748 16.4247 13
109 1 -2.28387 18.4114 -2.65645 13
110 1 -11.967 12.5199 -1.44793 15
111 1 0.861971 10.3788 -0.00266519 22
112 1 -5.31246 -3.69507 8.68774 20
113 1 11.3472 2.4447 9.96939 19
114 1 -2.08276 -3.33096 -15.5637 17
115 1 -1.45371 -6.60254 -10.2622 18
116 1 -2.77416 4.4636 4.68456 20
117 1 3.9383 -2.52665 13.1763 16
118 1 -7.69943 -5.78453 -3.69781 19
119 1 6.00131 -3.80325 -0.933826 22
120 1 -11.0111 -6.87491 -7.20972 14
121 1 8.18809 -4.93681 1.02516 21
122 1 -5.99868 10.3985 -0.0553445 21
123 1 4.16851 4.36805 -16.8069 19
124 1 5.84113 18.2153 -4.67254 12
125 1 -5.44803 -12.0525 6.38213 13
126 1 -4.9182 -14.2148 2.62165 10
127 1 4.77171 -9.01664 -14.6097 18
128 1 4.8879 6.86954 -7.71936 17
129 1 11.2564 -7.87215 0.5512 14
130 1 0.060775 -15.9421 7.19209 10
131 1 -9.59729 -10.0569 -8.44778 10
132 1 18.0106 5.85189 6.45074 8
133 1 15.6915 1.28261 -6.79821 13
134 1 -15.9583 -1.59627 5.24702 10
135 1 11.9817 11.8476 8.0067 17
136 1 15.1174 12.0934 1.89457 9
137 1 3.02832 0.496725 17.7826 11
138 1 7.46241 7.37722 -2.3638 23
139 1 -2.6968 14.1861 7.74994 18
140 1 -4.19903 13.3495 -6.65482 17
141 1 7.23565 -13.0173 -14.1353 10
142 1 9.38827 -11.5129 -11.5825 15
143 1 2.83312 12.4903 -14.124 13
144 1 7.36621 -0.0877439 9.78685 18
145 1 0.883954 -3.56974 -20.2194 14
146 1 -3.83002 7.77235 -5.48915 23
147 1 8.08441 1.87989 -2.14827 24
148 1 -10.3526 8.47369 -11.2109 21
149 1 -8.10737 19.4488 -3.76379 11
150 1 11.9771 -1.59877 -9.9369 16
151 1 9.50669 -6.44849 -1.23752 20
152 1 -6.97653 7.53997 -10.5774 20
153 1 -4.2713 14.0783 10.6634 11
154 1 13.8671 10.0368 -6.57305 13
155 1 4.08638 10.7164 -5.57499 21
156 1 -6.14705 15.4562 -0.397059 22
157 1 6.96949 11.0731 0.0287335 20
158 1 -4.21789 13.7438 -10.8008 19
159 1 4.3351 14.9762 -12.7933 10
160 1 0.910873 14.0147 -12.3985 15
161 1 -10.8239 -4.95848 -2.60445 17
162 1 -8.68796 12.2183 -2.87257 20
163 1 -5.90632 1.49766 -16.7652 18
164 1 3.13152 -10.3164 -18.1395 10
165 1 10.033 13.7422 7.98643 12
166 1 -0.537901 11.4567 7.80493 22
167 1 -13.6505 2.84179 -5.85698 14
168 1 -10.0552 14.717 -1.16 15
169 1 15.365 -1.5942 -1.85805 11
170 1 -11.5883 1.35938 -14.1604 11
171 1 10.1385 0.594558 15.3495 14
172 1 2.03079 18.2804 6.22182 12
173 1 -2.28506 10.3977 5.787 21
174 1 3.63202 -12.2344 -14.223 17
175 1 -6.98952 11.2449 8.19558 13
176 1 -4.15502 16.0515 -8.39187 15
177 1 -1.44588 -0.28311 10.4501 21
178 1 -16.029 2.09297 -0.0286134 11
179 1 1.10358 -11.5174 -12.0576 21
180 1 -7.76538 12.3069 -11.3373 12
181 1 -0.875369 -12.5532 4.38335 14
182 1 8.0128 -13.052 -3.66047 19
183 1 -0.530085 14.0409 -9.95406 16
184 1 -14.7554 8.12965 7.88151 10
185 1 -0.918439 9.7997 -2.51555 22
186 1 8.87319 10.7359 -2.95388 21
187 1 -3.8333 7.6229 11.0814 21
188 1 -2.28075 -7.45636 5.4699 19
189 1 -5.92123 6.81404 -3.08065 18
190 1 -2.5246 16.1019 5.12594 19
191 1 -5.50257 6.36611 8.50252 18
192 1 14.0809 1.55424 13.3791 10
193 1 -7.95833 13.3614 5.19267 16
194 1 13.8625 -1.20295 -8.31461 16
195 1 1.69246 11.1675 15.4634 15
196 1 -3.58472 1.50032 -10.6359 20
197 1 10.4733 -6.49437 3.5479 16
198 1 -6.36608 -4.87984 2.09838 21
199 1 -15.5784 7.69241 4.34833 11
200 1 -6.80875 -8.69471 0.961772 20
201 1 -0.969297 4.88109 15.7565 12
202 1 -12.4835 1.57209 -2.8403 17
203 1 4.55176 -13.9922 2.86114 23
204 1 4.44704 -4.84184 -7.6588 18
205 1 -2.91659 12.0677 2.78026 22
206 1 -6.00819 4.10264 5.10216 19
207 1 10.4222 11.617 10.7761 15
208 1 -6.90794 1.55367 -5.69596 20
209 1 -6.80981 14.7768 -9.56846 14
210 1 -11.3807 -0.880247 -4.31291 19
211 1 -13.4298 3.40451 4.96075 16
212 1 0.835566 -6.52666 5.31038 15
213 1 5.24334 -12.9742 9.74074 8
214 1 -12.2391 9.34233 -0.346849 17
215 1 16.4148 0.595013 5.16264 9
216 1 8.11822 5.14935 -4.97311 22
217 1 -5.24323 -7.15596 -16.4157 12
218 1 7.05776 3.19633 15.5991 19
219 1 5.04206 -11.7475 -2.69083 18
220 1 -2.53862 6.76599 -13.5831 19
221 1 4.56466 -10.177 -11.9158 18
222 1 6.49774 -0.192634 -19.1857 12
223 1 1.39785 9.3481 -14.9299 15
224 1 -9.10863 -4.05423 -8.18222 21
225 1 -4.96792 19.8944 -5.57467 12
226 1 -10.6402 -10.9883 4.16191 9
227 1 2.61823 18.1264 -5.2377 22
228 1 -6.00033 2.96601 13.2405 15
229 1 0.919346 20.0567 -3.10585 12
230 1 9.57904 -0.381612 6.44825 18
231 1 -3.41284 -6.80949 -13.5672 16
232 1 -3.60767 9.76332 -7.97129 21
233 1 1.3842 5.15425 -10.7076 21
234 1 -5.05517 -11.3679 2.27669 15
235 1 -7.16277 6.73819 5.95165 19
236 1 -6.90146 8.27004 10.6694 18
237 1 5.46082 -15.5451 -12.2902 10
238 1 1.57852 -10.8744 -3.14595 17
239 1 3.9652 -9.73243 0.0716486 18
240 1 5.79815 -6.73333 -4.92989 21
241 1 12.6351 7.56631 11.9992 19
242 1 4.21943 13.1845 -7.74563 18
243 1 0.47427 12.574 -2.45907 20
244 1 -8.82073 4.39491 -1.49334 18
245 1 -12.2324 15.917 -6.3907 8
246 1 2.26408 7.81824 10.5843 20
247 1 10.8468 -13.2806 -1.06708 10
248 1 10.4052 2.08871 -4.43149 20
249 1 -1.03081 7.29373 5.59609 22
250 1 -3.60765 10.7387 9.24665 19
251 1 -10.6088 1.66813 -5.53621 21
252 1 6.77631 6.26219 -15.9466 16
253 1 1.05422 0.265507 8.20038 21
254 1 11.3726 10.7524 -11.3758 10
255 1 3.4572 -11.7906 -8.0666 20
256 1 5.50973 0.124756 -13.3879 20
257 1 2.76276 -16.9759 5.61896 12
258 1 12.8266 0.304993 -4.7193 18
259 1 -10.3333 -4.72507 5.00502 16
260 1 2.9887 -12.74 0.0111974 22
261 1 -10.8039 -1.23533 -7.68742 21
262 1 1.65325 13.6855 -5.06721 21
263 1 4.09855 -7.83699 -17.7765 13
264 1 8.9993 -1.10332 17.7397 8
265 1 16.9921 3.52578 3.54399 9
266 1 -3.54834 -3.96271 -5.75119 23
267 1 10.5549 -3.30983 -11.9419 14
268 1 -1.42085 -7.16456 -0.369438 18
269 1 -4.73818 -6.59904 -11.1255 15
270 1 -8.28122 4.77148 -11.6316 21
271 1 -3.66681 -12.7221 9.32962 11
272 1 10.5023 -0.479471 8.85223 17
273 1 4.85914 -1.29111 4.34176 21
274 1 -5.24119 -7.89921 -8.36454 15
275 1 0.444795 -5.17927 2.56314 19
276 1 0.715808 6.587 -13.7338 19
277 1 4.13055 11.3575 -0.228216 22
278 1 -8.78698 -6.14924 3.22726 20
279 1 2.2381 13.9008 -0.071767 22
280 1 -6.76746 1.23263 8.14301 20
281 1 -11.0567 -3.2574 -10.883 16
282 1 -6.93282 -5.60101 -13.0017 14
283 1 -1.8897 6.10542 -17.9078 16
284 1 -4.70214 -10.8215 -10.2575 15
285 1 -2.86918 -8.32265 -3.71793 18
286 1 7.32581 1.02057 -16.3325 19
287 1 14.5206 3.45627 -4.79908 16
288 1 12.3306 0.779135 5.18785 18
289 1 -3.48885 -2.46906 -8.28345 19
290 1 -9.47925 -0.832227 5.91909 16
291 1 -1.49743 -11.2368 -3.97087 23
292 1 8.57156 6.00938 17.0163 13
293 1 -0.52098 -14.7862 9.75637 9
294 1 0.947518 -8.63561 -1.30638 19
295 1 2.49783 19.565 -0.342133 11
296 1 6.1197 -3.45115 -18.8212 11
297 1 -1.6045 -7.96495 -16.0681 18
298 1 -5.89723 -7.06817 9.15964 13
299 1 6.82816 8.18482 18.7329 10
300 1 -3.0125 -10.6582 -1.70566 20
301 1 -3.64982 -12.2437 -12.3894 14
302 1 -10.7387 11.3218 -12.7924 10
303 1 11.9957 9.54198 10.2 20
304 1 -5.52557 4.23938 -11.1564 17
305 1 -0.940399 8.30849 -10.6913 20
306 1 -1.50733 -4.50636 6.16361 18
307 1 8.19033 -14.6615 -11.5486 9
308 1 -4.20528 17.1801 0.194987 15
309 1 0.881342 10.5355 5.69882 23
310 1 11.7653 2.06237 1.95755 19
311 1 -11.3752 -0.350038 2.31219 19
312 1 0.614703 -6.89519 10.0951 11
313 1 0.0625339 16.37 6.78613 19
314 1 3.02181 -5.67446 -12.9575 15
315 1 14.1448 11.7051 -1.44589 12
316 1 6.76625 -7.34648 -1.65852 19
317 1 -2.73603 -1.4213 13.7058 13
318 1 -11.945 -5.76606 7.67984 13
319 1 4.51997 -15.0939 -5.96327 13
320 1 0.146627 13.7844 13.9533 13
321 1 -12.8587 6.89176 9.72415 15
322 1 -11.1262 -0.705912 10.4461 17
323 1 -13.6512 -3.66512 5.78488 10
324 1 15.0995 -4.54562 -3.5309 14
325 1 -8.2366 -7.55288 6.28425 23
326 1 9.58822 -4.40466 -15.1151 11
327 1 10.1888 -11.2813 -5.94377 16
328 1 4.51607 15.2092 -5.64457 21
329 1 -4.63653 15.1938 -4.08014 16
330 1 7.82001 9.84356 9.56065 19
331 1 -13.391 0.189615 5.8835 16
332 1 8.52898 -7.89541 -6.535 19
333 1 -3.96697 13.3805 0.478005 20
334 1 -6.04656 6.23761 2.48811 20
335 1 1.55722 -9.75599 9.05653 15
336 1 12.3571 -3.89861 3.08753 14
337 1 -4.92357 9.31853 6.58846 17
338 1 -6.84182 -1.53853 -8.26831 23
339 1 1.94176 5.44459 15.2789 20
340 1 -2.72598 18.5423 10.1995 7
341 1 10.5434 6.64667 14.2371 15
342 1 -4.56459 16.4145 -12.2947 12
343 1 1.22722 -6.69114 -18.7765 16
344 1 -5.0213 1.03071 -8.07093 22
345 1 7.43454 -9.74435 -13.649 14
346 1 -1.05974 6.92462 13.2544 18
347 1 -14.6396 9.9826 2.8095 12
348 1 -5.02735 -1.34493 -10.9192 20
349 1 -9.83436 15.8806 -4.17095 18
350 1 10.3798 -0.755034 2.85366 19
351 1 -6.33109 -10.723 -7.46153 14
352 1 6.81195 -3.85099 5.52998 20
353 1 -9.07602 -11.0467 6.77971 11
354 1 -14.9384 10.4377 0.0131756 11
355 1 -0.397662 -3.77187 11.4355 13
356 1 2.7692 -6.58948 -5.76565 20
357 1 -3.8202 -2.7306 -18.5148 17
358 1 4.62686 -1.83464 -16.1779 22
359 1 1.94191 15.5476 4.03417 18
360 1 -8.95042 0.840677 -3.12492 21
361 1 7.75607 -6.53764 -8.92832 15
362 1 7.95959 4.79641 -11.1681 18
363 1 1.07043 -13.3009 -9.99699 22
364 1 -11.4808 -7.14203 -9.75324 14
365 1 1.65287 -11.9811 2.17378 17
366 1 9.24561 7.498 10.713 18
367 1 11.8786 2.69287 -1.48743 16
368 1 -11.5601 5.1731 -13.6206 13
369 1 0.0954108 16.7411 -4.9383 20
370 1 -13.1849 7.14704 -11.3162 11
371 1 -10.1093 10.4438 7.056 17
372 1 -8.24188 14.8785 1.50607 19
373 1 -9.27899 5.77176 2.4714 18
374 1 15.7737 8.63151 13.9217 6
375 1 15.6508 -1.66457 -5.25059 12
376 1 6.46435 -3.3284 11.54 14
377 1 8.45136 3.19891 -6.94502 21
378 1 -0.262931 -11.8506 -7.02949 19
379 1 -4.52164 9.4826 -2.59222 21
380 1 2.24627 -9.72581 -6.15874 18
381 1 -1.13593 9.50151 2.74792 26
382 1 -6.99109 3.43025 -8.60522 22
383 1 5.28446 -9.66765 -6.19118 19
384 1 10.1116 2.89881 4.99989 19
385 1 -8.63927 -1.18954 -5.70592 25
386 1 -4.02802 -7.93249 -0.0443752 17
387 1 -10.599 -5.4912 10.7026 10
388 1 -1.88378 15.0946 -2.62963 17
389 1 -5.79409 -8.26617 -2.42765 21
390 1 3.90473 6.80555 13.3612 21
391 1 -12.0791 13.0021 -4.32708 15
392 1 1.49107 15.0761 -7.49472 18
393 1 2.18424 13.5138 6.25197 21
394 1 -9.04645 -8.07194 -3.25702 13
395 1 -3.22052 -9.95159 -7.15216 19
396 1 -15.8534 4.66193 2.20025 11
397 1 -14.0911 10.5307 -3.30419 14
398 1 7.97123 -9.35997 6.77182 14
399 1 -7.1365 -6.2752 -0.602042 19
400 1 13.1357 13.3533 10.5126 10
401 1 9.055 7.75047 -14.1203 14
402 1 -6.02542 5.66092 -13.6579 18
403 1 -2.18539 20.7667 -7.73451 10
404 1 -8.88874 10.8727 -5.93277 16
405 1 5.19899 -15.2444 5.61722 13
406 1 11.2514 5.83589 6.22652 19
407 1 0.23222 12.4108 -15.6339 10
408 1 -4.91037 -0.700881 10.4563 21
409 1 -15.9305 5.1593 -5.77923 9
410 1 -9.17044 7.26684 8.74092 17
411 1 0.569402 -14.6661 1.57968 16
412 1 3.05616 -1.44215 -7.2008 21
413 1 8.04062 -4.41781 -6.56999 20
414 1 -2.42563 -1.24061 4.93595 21
415 1 -11.1596 3.61921 1.91332 17
416 1 -11.657 0.971862 12.8479 9
417 1 -12.8234 8.6489 5.68866 15
418 1 0.986862 -1.68125 5.21979 19
419 1 -9.93986 4.08738 -15.97 13
420 1 7.64296 -9.84114 -4.50291 20
421 1 -2.26939 -8.2058 -19.2457 13
422 1 0.247615 -2.50626 8.66481 19
423 1 -1.37167 -10.5701 -9.91729 19
424 1 -7.28614 6.81641 -16.5046 11
425 1 6.19678 -9.33669 4.07697 19
426 1 0.998019 12.2155 -7.87768 21
427 1 -11.7273 11.7198 1.48389 16
428 1 -5.71548 0.132395 13.9621 12
429 1 -7.4655 -3.48793 -10.8871 15
430 1 -7.34348 -4.1189 5.40406 20
431 1 11.8995 -5.65482 10.9254 6
432 1 10.9077 7.71649 2.52958 21
433 1 1.47142 -0.790197 -11.458 20
434 1 9.03107 -6.71517 5.9763 19
435 1 11.1913 10.969 -5.74561 17
436 1 -0.643855 3.24227 7.64158 17
437 1 3.86612 13.0559 -2.95996 21
438 1 5.15898 -6.50719 5.91915 21
439 1 3.46939 -12.4528 -5.12585 18
440 1 3.86299 3.4313 17.2381 18
441 1 2.95008 16.2673 9.0177 19
442 1 -8.55034 -7.44441 -9.0539 14
443 1 11.7234 13.0425 -0.944544 14
444 1 1.64697 10.7586 11.777 21
445 1 -6.26494 5.28163 10.9955 20
446 1 -7.61034 -3.83279 -5.57705 20
447 1 -15.985 1.75763 4.72326 13
448 1 -7.74543 -6.82751 -6.81773 18
449 1 -9.11294 11.5592 2.99185 21
450 1 -4.78159 -11.1372 -4.65008 19
451 1 0.849734 -9.6635 -19.8098 10
452 1 -1.88396 -15.8527 -1.27608 12
453 1 -4.65181 -3.90377 5.24536 21
454 1 5.90582 1.83257 5.27852 19
455 1 -9.94337 1.60509 8.31345 21
456 1 -5.51767 11.7255 -13.3135 16
457 1 9.50543 4.9552 -1.879 21
458 1 -0.557339 -12.4925 -1.0965 19
459 1 1.06518 6.8832 -7.96326 23
460 1 -0.511342 17.8728 4.4119 15
461 1 -1.99599 6.65381 -8.01826 22
462 1 1.022 8.59399 8.50362 20
463 1 -15.8832 0.0453054 -5.27525 8
464 1 1.19785 20.6642 -6.28704 12
465 1 6.7501 9.95929 -11.5863 18
466 1 -10.0332 -6.43474 -12.0818 12
467 1 4.17448 -2.14472 16.7612 8
468 1 -0.948648 -14.4234 -12.1961 13
469 1 -2.19793 2.04833 -16.2088 20
470 1 9.58347 -10.6639 0.34804 14
471 1 -9.51272 9.92126 -0.146048 21
472 1 5.02015 6.46381 16.4913 19
473 1 10.9471 8.07302 -1.79648 20
474 1 2.70014 9.846 -2.94081 20
475 1 -4.62686 8.6526 -17.7962 11
476 1 4.6425 1.12154 -7.19803 22
477 1 3.69444 -8.40611 -3.32275 22
478 1 -14.9189 2.76396 -3.43858 14
479 1 0.12761 18.007 9.72591 15
480 1 1.62665 3.10396 -11.9859 19
481 1 8.32618 8.91506 0.0232175 22
482 1 6.05444 17.7777 -7.24052 11
483 1 7.03148 -1.03737 -1.90207 24
484 1 14.7618 4.23661 -1.92492 12
485 1 -2.75004 0.578249 -19.3048 15
486 1 1.83631 -6.42412 0.260313 19
487 1 1.69418 -12.0463 6.44401 19
488 1 3.14448 -6.91969 8.65999 14
489 1 -3.64005 7.8281 -10.9006 22
490 1 -7.74393 -12.6456 4.08681 11
491 1 -3.63396 -9.87579 -14.8479 16
492 1 6.85557 13.3088 2.54912 17
493 1 4.66121 3.04523 -12.8388 20
494 1 1.99902 -0.756877 14.5733 13
495 1 -12.0212 -1.3774 7.67078 14
496 1 6.33504 -11.7936 1.16667 20
497 1 -16.3587 -0.645295 2.29776 12
498 1 13.7033 -2.64656 -11.6113 10
499 1 10.9044 0.361457 -7.02019 21
500 1 -5.25184 10.9906 -5.44519 20
501 1 1.9793 -14.7125 -12.4055 14
502 1 4.33705 4.82702 -10.7516 22
503 1 6.9954 -3.92427 -10.0373 10
504 1 -0.39791 0.715171 13.4062 16
505 1 5.1264 18.6042 -2.18804 11
506 1 -6.75442 -4.71414 -17.4828 10
507 1 3.53163 1.78611 -19.2055 14
508 1 -4.63878 1.94247 10.2048 17
509 1 -2.9999 18.4191 2.78516 11
510 1 -9.50381 -3.45957 -13.1351 15
511 1 -15.2508 7.44066 0.758138 15
512 1 0.747256 -4.48156 -16.8582 19
513 1 -1.43589 -5.8069 8.8598 15
514 1 1.2497 10.957 -10.7539 15
515 1 17.2171 2.95841 8.20703 9
516 1 12.6308 6.06003 -3.0384 18
517 1 -2.33232 -13.4278 -6.27457 15
518 1 0.263182 -7.9483 -4.32976 21
519 1 0.985691 -12.4128 -16.875 8
520 1 -8.08157 10.1011 5.53791 16
521 1 -0.529559 -0.36442 -15.0158 15
522 1 2.62731 7.63644 -5.41338 21
523 1 9.26545 2.95934 0.227369 20
524 1 1.92416 15.8584 -10.4082 14
525 1 4.44762 -5.46546 -2.31872 19
526 1 12.0684 2.84229 -7.13118 19
527 1 2.84097 10.8594 8.60079 21
528 1 -7.69856 1.81256 10.8728 20
529 1 11.3252 7.90428 8.14937 21
530 1 6.61149 -2.53556 14.5831 12
531 1 -0.712736 -1.97597 -18.075 21
532 1 -5.33572 -4.76351 -8.80756 15
533 1 -2.5433 0.285508 7.77837 18
534 1 5.194 13.1515 7.68393 20
535 1 8.82686 10.8913 -14.0517 9
536 1 -9.05825 11.8399 -8.54206 15
537 1 -0.965071 13.7003 -6.05295 19
538 1 8.23805 -5.71487 9.91986 13
539 1 11.2169 3.8476 -12.0399 15
540 1 9.12673 -6.70737 -4.3814 23
541 1 15.9935 11.1847 10.9491 10
542 1 -11.9527 -1.40394 -1.18623 20
543 1 -4.0646 14.4169 -14.5219 11
544 1 2.402 3.15087 7.8924 19
545 1 -10.6195 5.54236 10.134 13
546 1 -3.00585 18.5144 -9.82357 11
547 1 5.91934 -13.9596 -0.49715 21
548 1 6.66104 2.11679 -10.2506 20
549 1 -5.08266 18.1595 -2.69617 17
550 1 -12.6043 -4.5817 -7.91777 16
551 1 5.43427 -11.9841 6.42554 17
552 1 -14.2181 -1.55669 -2.82039 13
553 1 -0.321549 18.6598 -7.40705 17
554 1 -11.1559 5.39897 -10.6947 20
555 1 3.53425 8.68703 16.2952 14
556 1 -6.88904 -9.27196 7.83283 14
557 1 7.637 7.68559 -8.39383 14
558 1 2.35607 -17.8094 -12.03 5
559 1 3.05938 -2.64889 7.10712 18
560 1 6.20672 4.12536 -8.05919 22
561 1 -7.47528 9.93086 -3.14167 20
562 1 9.49465 2.25336 17.7681 12
563 1 4.79101 15.8504 -9.43516 16
564 1 10.5777 -4.46867 -4.12211 22
565 1 5.9966 14.1863 13.0689 14
566 1 -3.84004 3.03356 -14.2337 19
567 1 -3.57877 -9.22761 8.62226 15
568 1 -0.149291 2.14684 -10.1409 22
569 1 3.55608 -1.12773 -19.5856 15
570 1 4.1705 15.4451 6.43009 18
571 1 9.81188 2.36868 -9.64776 21
572 1 -3.88096 -5.07659 -19.7476 11
573 1 -5.28863 -7.01067 -5.49088 20
574 1 -8.89846 -1.13639 -10.1964 21
575 1 9.53415 4.88779 3.08766 19
576 1 12.3417 10.5399 -2.9982 22
577 1 2.88448 -3.66789 -10.2264 18
578 1 16.5439 5.6983 9.28181 12
579 1 2.84002 -6.77746 -9.84932 14
580 1 3.71694 7.30274 -15.738 17
581 1 7.45452 13.8312 6.36473 16
582 1 -7.23979 3.66493 2.19747 20
583 1 10.8221 10.263 13.4808 15
584 1 9.76284 8.29874 -4.33962 22
585 1 14.7307 1.86693 2.60324 16
586 1 12.828 8.33501 -5.10385 20
587 1 12.3449 4.16201 12.5525 17
588 1 14.9049 5.58499 12.8888 8
589 1 1.0705 2.2811 10.6903 17
590 1 10.4269 16.7164 -3.44788 7
591 1 5.68118 0.669977 14.2683 19
592 1 10.9354 6.02268 -5.31552 17
593 1 7.01396 4.84417 6.36061 18
594 1 -6.88243 1.19017 -10.8922 23
595 1 11.3241 5.71343 0.258087 17
596 1 8.40511 -0.117234 0.466283 21
597 1 -12.041 10.1411 8.95533 11
598 1 7.51302 13.3457 9.79609 18
599 1 12.9514 1.67215 16.395 5
600 1 5.14118 18.3356 7.89721 10
601 1 -1.7266 15.8181 11.9469 12
602 1 3.97562 4.38589 5.55587 21
603 1 -1.33097 -16.756 1.83969 11
604 1 -7.52947 14.0176 -5.53063 16
605 1 13.1902 5.55304 -7.15522 16
606 1 6.2577 3.27686 -18.335 12
607 1 1.64491 15.8762 -2.51599 16
608 1 -1.95615 -5.36417 -17.4348 18
609 1 8.54282 -2.1342 -17.0228 11
610 1 -11.7374 6.16021 3.92697 17
611 1 -5.30934 10.3124 -10.6955 18
612 1 -0.472456 -15.983 4.37395 15
613 1 -5.98244 -0.370823 -13.3955 17
614 1 -11.1922 4.42429 -4.36034 20
615 1 9.43121 -3.74069 4.01971 18
616 1 9.72178 11.1792 1.45049 17
617 1 7.34903 -6.7911 3.59516 21
618 1 -8.61882 1.51902 -7.66935 21
619 1 -2.17051 -2.11503 -21.0909 9
620 1 1.30543 4.13943 18.2043 10
621 1 5.90801 9.46233 -14.6854 14
622 1 13.3733 -0.113427 10.1259 11
623 1 9.34641 5.67047 -8.31003 18
624 1 13.8789 13.5846 5.23056 9
625 1 1.67945 -10.2266 -9.66081 17
626 1 -8.53531 -0.236547 12.8094 13
627 1 14.0116 -0.84351 3.79072 14
628 1 4.2112 9.70903 13.7642 18
629 1 5.67964 13.1941 -10.5771 13
630 1 -9.11288 16.9282 -7.83361 13
631 1 12.7356 9.17425 6.40385 22
632 1 -3.5213 -13.6649 -2.83481 15
633 1 12.6218 -1.73332 1.19526 16
634 1 2.82452 16.9832 0.849093 17
635 1 -2.81526 5.31004 9.79541 17
636 1 -8.90743 -2.69693 3.21781 18
637 1 -9.16803 -0.691645 -13.4156 18
638 1 7.95982 -0.452974 12.4388 13
639 1 -10.8162 -8.85527 7.63212 9
640 1 9.76287 3.2089 13.425 15
641 1 -4.78742 15.4285 2.65884 20
642 1 5.51542 7.63811 5.10624 21
643 1 7.03528 7.59983 2.70953 20
644 1 2.28595 0.821556 -14.2416 19
645 1 -10.7831 1.4775 5.40452 21
646 1 8.97363 5.0642 -14.0292 12
647 1 -1.27899 -4.59572 -7.9456 18
648 1 11.4083 -11.2679 -9.48957 11
649 1 6.49723 5.60971 10.2197 19
650 1 3.88356 6.94396 2.76109 23
651 1 -6.04129 -2.6914 12.2342 17
652 1 4.69963 8.67568 7.65168 20
653 1 6.2297 0.835463 17.7506 13
654 1 -0.758868 9.77356 11.1103 18
655 1 -0.184147 -5.46306 -13.3104 19
656 1 1.48343 2.54972 15.7582 14
657 1 7.12055 5.50459 14.0271 17
658 1 -3.24152 -14.3278 6.20345 14
659 1 14.2042 8.07044 -1.63224 17
660 1 8.62035 -9.94617 -8.28936 23
661 1 -3.69307 3.59822 -8.34637 22
662 1 7.83754 10.7262 -6.01113 19
663 1 9.86524 12.5396 5.092 15
664 1 4.26877 1.63099 -16.0616 22
665 1 -3.6516 3.06564 7.51149 17
666 1 6.3952 13.109 -4.68377 19
667 1 12.7933 10.1453 0.461748 17
668 1 -5.06302 -5.03791 -3.15246 22
669 1 1.60014 -7.76739 -16.359 17
670 1 -10.6895 19.1338 -6.25412 8
671 1 9.33362 -6.46299 -12.7141 12
672 1 5.41731 8.48757 -0.189914 21
673 1 16.0871 4.85582 -7.92038 12
674 1 4.98346 14.4989 -0.0483951 21
675 1 -4.66861 9.39493 2.76098 21
676 1 -7.57133 7.2417 0.0978674 17
677 1 6.23636 7.32711 -12.4959 20
678 1 11.1618 0.641931 12.0815 15
679 1 7.71081 -2.61353 9.00866 18
680 1 -0.935543 -8.499 7.73155 16
681 1 -4.80492 8.6775 -13.8545 22
682 1 5.04606 11.4723 10.4844 22
683 1 7.44856 -7.60487 -16.0726 13
684 1 3.73768 4.096 10.6333 19
685 1 5.91644 10.3775 -8.65967 20
686 1 7.01694 10.6043 5.80184 19
687 1 12.9029 -4.21907 -8.43725 15
688 1 7.7409 8.08242 13.045 19
689 1 -14.1729 -1.61933 0.44711 14
690 1 2.3747 -14.6423 -2.32579 18
691 1 0.0744213 -1.82205 -8.23165 21
692 1 -7.42127 15.4187 -3.20586 18
693 1 -4.38908 1.50335 5.29919 21
694 1 3.86269 -3.75723 -4.83953 21
695 1 3.99597 13.3698 3.1496 18
696 1 -13.5276 1.10281 -0.473808 18
697 1 1.05033 8.30264 14.1491 22
698 1 -4.08464 6.27443 -16.2437 19
699 1 -3.32502 11.1663 -15.2583 15
700 1 3.555 -16.1336 -0.108267 17
701 1 8.766 10.2132 -8.98966 18
702 1 3.76279 -7.18164 3.21981 22
703 1 -4.22976 7.79988 -0.336947 23
704 1 -11.859 4.53515 12.556 11
705 1 1.37964 -3.00478 -14.3301 20
706 1 7.15159 -12.3055 4.38185 15
707 1 0.226491 16.6808 7.02566e-04 13
708 1 -3.0259 7.9044 15.5476 12
709 1 -11.1517 -3.60777 -5.48244 18
710 1 -0.786003 -9.927 -14.2442 18
711 1 -3.22597 -15.5515 -9.44169 6
712 1 -2.86887 16.8347 -5.70762 20
713 1 -0.20777 -3.80729 -10.8402 20
714 1 -0.96875 13.2256 5.22582 20
715 1 9.60141 -9.28695 -1.77104 17
716 1 11.3883 -11.7483 -3.09895 11
717 1 3.16437 -4.19312 4.49051 17
718 1 16.4285 7.86894 -6.2624 11
719 1 6.22759 -11.2663 -9.24452 17
720 1 -14.8854 5.01272 10.4178 9
721 1 0.962894 -17.4678 -1.73221 9
722 1 -4.52672 -13.0779 -7.96237 12
723 1 -12.8742 2.22536 10.3914 12
724 1 2.43626 -16.8249 2.46667 12
725 1 17.0246 5.23246 -4.62045 9
726 1 -1.97787 18.7355 7.62681 11
727 1 -8.83812 4.25873 5.04953 19
728 1 -7.75194 8.99745 2.30225 19
729 1 8.21324 1.806 2.77379 20
730 1 -11.5171 -0.40145 -11.0183 14
731 1 -2.18462 10.5787 -5.86239 18
732 1 8.89117 -0.43181 -11.5314 16
733 1 13.9898 11.3556 12.6611 11
734 1 11.6891 11.8283 -8.82787 8
735 1 -11.5414 8.40632 -14.4001 10
736 1 -14.1998 -6.64799 -9.29541 7
737 1 -1.36632 10.4033 16.8442 8
738 1 3.5654 5.97203 -13.3243 21
739 1 15.3837 11.8039 7.2776 12
740 1 -8.23246 4.10385 7.95991 20
741 1 -0.716693 -17.7162 -4.03696 7
742 1 -3.47532 -16.3566 4.77526 7
743 1 -5.65736 -6.7803 4.00653 22
744 1 15.708 8.85773 6.09797 14
745 1 1.74131 -4.30773 -7.47736 22
746 1 -5.32588 12.7543 -2.96836 21
747 1 6.08923 10.3099 -2.96951 22
748 1 -9.61394 -4.30273 0.503463 20
749 1 12.1183 7.04382 -11.1641 11
750 1 3.32949 -14.521 -8.6381 14
751 1 8.24875 -15.1055 -1.9772 15
752 1 6.49 -16.5888 0.480472 14
753 1 9.50848 7.93293 -10.7139 19
754 1 3.62815 21.0417 -3.6292 10
755 1 -7.42774 3.8562 -17.1184 11
756 1 -1.67561 3.77716 11.7004 13
757 1 -0.958512 3.19346 -19.2038 13
758 1 -8.93016 -2.67445 -16.8091 9
759 1 -13.1787 5.50179 -7.78058 14
760 1 3.20763 18.2455 -8.19506 13
761 1 9.38275 7.98303 5.40838 19
762 1 -3.74104 -0.601126 -16.1421 19
763 1 -6.68141 -3.46006 -0.477972 19
764 1 14.2319 8.05268 -8.97025 12
765 1 12.6779 -6.21924 -5.31341 16
766 1 -6.07248 10.6652 11.1628 13
767 1 7.51334 -8.61184 1.06704 21
768 1 14.3039 -4.12507 -0.149353 12
769 1 10.4069 -7.61338 8.97895 11
770 1 0.784358 12.5511 2.38448 20
771 1 -8.3872 5.24484 12.4041 16
772 1 -6.23227 6.45933 13.7723 14
773 1 -1.65058 -10.9215 6.51504 17
774 1 7.71178 5.58465 0.594986 21
775 1 5.35716 8.36651 10.7672 19
776 1 -10.2783 2.03306 -0.0552997 20
777 1 9.13544 -2.99146 -1.58055 22
778 1 -6.1729 18.6876 -8.52593 9
779 1 2.14644 9.88728 2.81453 23
780 1 2.53955 -12.739 9.86977 13
781 1 6.90573 2.74746 12.017 17
782 1 -1.79512 15.0273 2.31417 21
783 1 4.06231 -10.9225 3.67484 22
784 1 -15.4517 6.60223 -2.41428 10
785 1 3.60954 6.28853 8.73465 19
786 1 -14.0429 -2.68029 -5.84827 12
787 1 5.60086 13.8653 16.5532 7
788 1 6.72007 16.5426 0.355404 14
789 1 -12.1101 -7.14582 -1.15427 11
790 1 3.00403 -15.5342 8.3503 11
791 1 7.50629 -1.17295 4.18274 21
792 1 12.0464 -5.26163 6.23668 13
793 1 3.71356 10.78 5.40534 20
794 1 -2.69016 12.4202 -3.55792 16
795 1 0.48308 -7.92894 -11.4975 22
796 1 -0.776489 2.19609 -12.848 20
797 1 -3.369 5.02837 14.0117 15
798 1 -6.39308 17.5021 2.1853 12
799 1 14.657 1.07636 7.13186 15
800 1 2.69965 9.70213 -7.74547 20
801 1 -1.44156 10.4558 13.6952 18
802 1 7.95007 7.21509 8.0127 21
803 1 7.35788 -2.02931 -13.9944 17
804 1 -6.17759 -11.5014 -1.83296 13
805 1 -4.88034 -3.0039 -14.0393 14
806 1 14.7464 2.49477 10.4064 16
807 1 6.67334 3.60307 -14.8176 18
808 1 -0.0238878 8.42986 19.429 4
809 1 11.1182 -8.93904 -5.35653 18
810 1 1.04278 8.49188 -18.1093 9
811 1 -1.98298 -7.17095 -6.23358 19
812 1 13.2348 4.98325 -9.72617 12
813 1 14.229 0.228695 0.228183 14
814 1 1.91572 -0.879868 11.326 20
815 1 -2.53323 -9.05263 -11.8577 19
816 1 9.19831 13.355 -3.52828 16
817 1 -2.92332 -4.94489 2.82223 22
818 1 -11.8716 8.91163 2.64337 18
819 1 15.5226 1.12467 -3.23384 12
820 1 16.3381 8.69172 1.19071 13
821 1 -0.806446 -6.49444 -20.8963 11
822 1 -4.52856 16.147 7.9958 8
823 1 16.3665 6.24125 3.87796 13
824 1 7.07968 13.3138 -7.80693 14
825 1 1.06121 6.00428 -16.8002 19
826 1 10.394 -1.93431 -4.11857 20
827 1 -9.41507 7.01737 -2.72786 20
828 1 13.5824 7.87715 3.39696 21
829 1 -13.0584 -4.16341 -0.381844 14
830 1 -6.09927 11.1433 -15.6955 9
831 1 5.70791 2.67957 8.68695 20
832 1 -9.53286 2.28753 -10.9701 22
833 1 -11.3253 4.08635 7.48937 18
834 1 -1.79537 4.71576 -11.1215 21
835 1 12.0179 -5.64955 -10.636 14
836 1 -7.29119 -11.1942 -10.1577 9
837 1 12.3999 -6.80163 -2.12783 15
838 1 -12.2681 6.81737 -2.44045 18
839 1 -9.54861 -2.96054 -2.82943 20
840 1 14.4348 8.49371 8.95237 15
841 1 -4.743 -5.93136 6.87458 22
842 1 9.54708 -2.727 15.1923 8
843 1 12.3799 -1.91684 6.00161 17
844 1 12.3583 -2.80248 -2.01306 20
845 1 -9.84193 8.44674 4.64927 20
846 1 9.69609 10.4963 7.3734 20
847 1 3.00157 8.24146 -10.3695 19
848 1 -1.67941 -13.0771 -14.9887 11
849 1 -4.14868 13.2527 4.80913 16
850 1 -10.4937 -11.4365 1.29527 10
851 1 6.73789 15.4014 -2.93074 18
852 1 3.46977 13.077 13.7958 14
853 1 9.8072 -2.03835 -7.34745 17
854 1 5.20606 -4.40772 8.46743 20
855 1 -1.58614 16.1211 -11.9959 13
856 1 -2.23448 9.68343 -12.7125 18
857 1 -3.0504 -2.71548 8.25549 21
858 1 13.9898 6.12233 6.61677 19
859 1 1.72164 -9.0408 -13.8654 14
860 1 8.28839 13.6021 -0.703754 16
861 1 -8.24237 5.82263 -8.42408 21
862 1 -0.74515 -11.9598 9.37379 15
863 1 5.82886 12.4452 -14.1491 13
864 1 4.12444 0.528162 8.3616 22
865 1 2.82843 -16.8324 -4.07611 12
866 1 -8.87015 16.1513 3.89214 9
867 1 -11.2141 7.94779 -8.29068 16
868 1 11.5784 0.297161 -12.2429 15
869 1 4.28618 -13.046 -11.3661 18
870 1 -11.8893 6.49581 0.172258 18
871 1 12.4931 13.9694 -3.79422 10
872 1 -5.89639 -1.21453 6.72783 22
873 1 6.68813 -4.79193 -15.5155 15
874 1 -12.9592 -5.34677 -11.9027 10
875 1 0.335785 -7.85101 -8.27598 18