ITEM: TIMESTEP
14000
ITEM: NUMBER OF ATOMS
1000
ITEM: BOX BOUNDS pp pp pp
-30.0 30.0
-30.0 30.0
-30.0 30.0
ITEM: ATOMS id type x y z Coordination
1 1 -1.77768 -4.73622 -16.0823 11
2 1 6.41232 -9.12798 -2.11791 12
3 1 -10.8458 8.07728 -3.06215 14
4 1 -8.47481 8.64957 -11.4114 14
5 1 -3.14777 -2.76177 7.89059 17
6 1 -10.0424 -1.3787 -11.0149 12
7 1 -4.70514 -10.9429 0.344585 10
8 1 5.25418 -0.145624 3.3699 22
9 1 -3.25649 8.79378 6.63683 15
10 1 -5.4846 14.7836 -8.71329 15
11 1 3.17086 5.27946 9.06464 14
12 1 -10.7231 2.02438 -1.42412 22
13 1 -3.25402 3.23647 -13.2729 18
14 1 0.899935 5.85288 10.6715 11
15 1 -0.992682 -9.90256 3.92157 10
16 1 -12.5418 2.73971 1.18606 14
17 1 -9.94385 1.70679 -4.93471 22
18 1 -5.74166 17.702 -3.01993 9
19 1 4.51626 3.5401 -15.2726 14
20 1 4.3556 -7.03242 -10.2899 13
21 1 -2.89272 -5.87474 6.20837 14
22 1 -8.71046 6.42392 -1.2646 19
23 1 -2.74544 18.0714 -4.92991 9
24 1 2.02722 -10.9608 2.58067 11
25 1 7.47461 -5.28174 -9.75807 13
26 1 7.19881 2.35049 3.33918 19
27 1 -10.21 11.506 -6.33165 12
28 1 2.41906 8.25927 4.12678 23
29 1 2.74119 0.0854297 8.47382 21
30 1 -11.2775 -0.498321 -3.04218 18
31 1 11.0884 6.20259 3.35712 12
32 1 9.59238 -1.57372 -9.20441 19
33 1 3.8847 1.55544 5.79089 20
34 1 -10.5948 -3.19979 -0.4999 18
35 1 -4.19635 -3.34225 -13.2077 19
36 1 -9.93564 13.7168 -3.84567 8
37 1 0.0259925 13.3741 -9.1645 17
38 1 8.32157 -0.207017 -11.8292 18
39 1 9.41021 -8.9559 -0.698099 7
40 1 6.01538 -6.82759 5.72475 12
41 1 -2.15141 8.18395 3.79393 22
42 1 -6.96063 -4.77679 3.15777 16
43 1 -10.6283 3.58632 7.32514 10
44 1 8.76658 -6.00399 -6.41642 12
45 1 7.50344 2.87959 -16.698 7
46 1 -3.26135 14.2676 -2.46201 18
47 1 -5.3667 9.28045 -8.04343 19
48 1 2.25857 11.3542 -1.6991 22
49 1 -3.64256 -2.58941 4.37958 21
50 1 3.48467 -5.34767 -14.0623 11
51 1 1.7918 -5.81143 -11.7813 21
52 1 -0.103049 6.18526 3.82937 22
53 1 -9.72302 -9.19468 -2.55464 9
54 1 9.96943 -3.49126 2.31267 15
55 1 -10.1246 -6.0076 -7.04981 12
56 1 7.82299 -0.492731 -2.19886 21
57 1 -2.80852 8.3667 0.611516 20
58 1 2.009 5.24109 -11.2845 19
59 1 6.92834 -3.23214 -0.375681 23
60 1 -10.2106 -5.9556 -1.99185 17
61 1 9.37512 12.4005 -3.21048 11
62 1 7.97327 5.32556 -4.83899 20
63 1 -5.72983 16.9762 -6.24808 13
64 1 -1.91468 -5.71629 -13.3928 16
65 1 0.627966 16.7143 -8.35625 10
66 1 12.3308 0.555246 -9.11073 15
67 1 2.97174 5.9377 -14.0063 19
68 1 7.92424 -6.31268 0.732129 18
69 1 -6.35938 6.75784 -9.63337 22
70 1 5.936 15.3618 -5.64543 10
71 1 7.10173 4.78611 -8.64702 21
72 1 -2.87615 11.7799 -10.9233 17
73 1 -1.26188 -2.20372 -14.6063 19
74 1 -13.0062 2.59591 -7.71955 12
75 1 -3.13749 11.2037 2.58441 19
76 1 -2.31813 14.721 -9.68702 14
77 1 2.7649 2.59704 10.7313 10
78 1 -13.0108 -2.90241 1.39774 12
79 1 -4.76708 -8.37955 2.97069 13
80 1 3.20547 11.2777 -5.02554 20
81 1 9.59425 6.46119 -7.35041 19
82 1 -0.755629 -4.59143 4.6433 20
83 1 -9.23621 4.50208 0.990812 16
84 1 -2.13947 6.79236 8.41866 12
85 1 -5.92628 3.52431 -11.6463 18
86 1 -3.62593 -5.58173 -1.26142 21
87 1 -7.58742 -10.1459 -1.55919 8
88 1 4.20054 -4.97463 -6.68698 20
89 1 -2.44421 11.4805 -4.30711 17
90 1 -6.0292 3.96186 2.24415 20
91 1 -9.50246 3.20456 -9.33575 17
92 1 -1.38996 -10.8583 -0.871212 12
93 1 7.21019 7.53669 -9.29084 19
94 1 5.21736 1.89843 8.34666 15
95 1 -0.145848 7.07538 -12.838 23
96 1 -6.17567 0.191912 -16.3642 8
97 1 -6.33996 11.6246 -6.47879 18
98 1 8.10653 5.98215 5.2146 15
99 1 -4.51482 14.1792 -12.0072 11
100 1 2.58926 9.06186 -12.8793 18
101 1 -10.6356 9.52062 5.63712 9
102 1 -5.59455 7.00432 7.03718 15
103 1 0.479345 -10.2637 -8.76188 10
104 1 1.24468 15.7483 -12.8678 5
105 1 0.379769 12.3268 -6.06687 18
106 1 -12.2295 5.71264 1.97897 11
107 1 0.111677 8.92163 5.6626 17
108 1 13.3334 2.35378 -6.92345 13
109 1 2.70175 10.7811 1.93553 18
110 1 -9.04242 9.81482 2.36238 18
111 1 -9.19277 -1.07385 -5.23751 19
112 1 2.22228 -0.528674 4.94045 24
113 1 1.04227 -9.58152 -5.66668 16
114 1 -0.432208 3.91687 -14.7535 17
115 1 10.4189 3.00204 -11.849 13
116 1 -12.667 -5.32292 3.97029 6
117 1 -8.0935 -0.369136 -13.5057 11
118 1 -9.38412 2.00954 -11.9979 12
119 1 -10.875 6.81737 -12.2943 5
120 1 7.94456 0.233123 5.22242 17
121 1 4.15789 -3.71956 4.39829 18
122 1 1.66711 -2.94698 3.24694 20
123 1 5.42599 16.6396 -2.32964 12
124 1 -4.68694 -7.27898 0.549473 19
125 1 1.69184 13.9362 -3.93082 17
126 1 -4.57655 -2.69805 -15.985 13
127 1 -8.63699 -3.21904 -8.60428 17
128 1 -3.46851 -2.74777 0.779152 24
129 1 8.33296 5.07042 1.88269 21
130 1 -7.74144 -2.09327 5.01518 19
131 1 -6.50497 -9.85187 -4.43789 14
132 1 -0.738536 -7.78879 -4.38232 21
133 1 6.70022 -3.48604 -3.41101 18
134 1 -5.37451 9.6896 -11.1105 17
135 1 9.4325 11.0632 -0.344975 13
136 1 -6.46662 4.07948 -8.44829 22
137 1 -3.07152 11.7465 -14.2893 11
138 1 -6.02575 -1.94559 2.37673 21
139 1 3.05642 15.9738 0.0407047 10
140 1 10.0815 5.9949 -0.037775 20
141 1 -8.20086 0.630489 3.46424 14
142 1 -5.72102 -4.1669 6.50316 19
143 1 -8.0328 12.2089 0.379643 12
144 1 2.39337 -2.4508 -16.3768 11
145 1 5.04064 -6.89835 -1.23219 20
146 1 6.98018 -1.14957 -14.3501 10
147 1 -12.7331 -0.256905 -0.389105 15
148 1 7.27778 -8.67769 -6.36977 12
149 1 -4.05716 13.9423 -6.35404 19
150 1 -5.90207 6.70352 0.391664 21
151 1 1.65433 -9.58568 5.31343 9
152 1 0.788276 12.6136 0.474835 16
153 1 -6.3227 -1.48241 -7.45347 24
154 1 -5.05411 12.0032 0.569951 18
155 1 -9.04122 6.92174 -8.24862 21
156 1 -12.3079 3.13609 4.62989 11
157 1 -4.49112 -2.34846 -10.0872 19
158 1 -2.40325 11.2961 -0.622998 19
159 1 10.4691 0.248352 3.30704 15
160 1 5.06174 -5.50968 2.56739 18
161 1 0.269713 0.721418 6.73355 21
162 1 3.76653 -9.44978 -7.31353 14
163 1 -3.28286 0.39992 -16.0776 15
164 1 -11.7594 4.15129 -4.67084 14
165 1 -3.83874 -5.45643 -4.89309 20
166 1 8.95984 1.78583 -7.76952 19
167 1 -5.75003 7.04313 -12.1615 19
168 1 -6.61482 12.3667 3.66111 11
169 1 -5.90544 15.1369 -1.02664 11
170 1 -7.41978 9.17395 5.42523 17
171 1 12.5972 -2.83245 -10.2376 10
172 1 8.72951 5.45775 -14.0073 12
173 1 -1.18451 -7.62638 -7.90988 19
174 1 -1.93297 13.4359 2.0975 11
175 1 -9.01756 4.44099 -6.6553 19
176 1 3.16259 -10.9325 -3.93764 11
177 1 9.95975 3.16939 4.49887 16
178 1 -13.0591 -0.786848 -8.94423 9
179 1 -3.51548 -8.35504 -4.47144 19
180 1 -6.42857 14.2561 -4.22329 16
181 1 -12.3677 11.3775 -3.78041 6
182 1 -4.16704 -6.65772 -10.3678 14
183 1 4.02351 -2.64502 1.65204 21
184 1 0.684893 -8.89451 1.28074 18
185 1 -8.39804 10.2218 -8.29234 14
186 1 -2.58801 -8.83075 1.27231 16
187 1 -3.46482 2.77639 3.37348 20
188 1 -8.22224 6.73621 2.75834 17
189 1 0.789308 -2.94883 -10.3595 21
190 1 -11.1033 0.768081 6.44498 12
191 1 -3.18734 0.162334 5.95511 20
192 1 -5.81579 0.829023 0.637663 20
193 1 1.3731 -5.64196 -8.75222 19
194 1 4.21551 -10.6774 -0.337177 13
195 1 2.61087 11.2578 -10.622 18
196 1 -11.9782 -6.40146 -3.98083 10
197 1 4.86471 -9.5798 4.29968 8
198 1 10.8102 3.46493 -5.46053 22
199 1 4.85701 0.83534 -13.1331 20
200 1 8.7144 -6.2527 3.50771 11
201 1 -5.39476 0.624379 4.36905 19
202 1 -1.3518 14.6342 -4.92103 16
203 1 6.86641 -2.0449 7.67939 13
204 1 -3.83113 -11.5688 -4.4958 11
205 1 3.39732 8.07586 6.8476 16
206 1 -8.53058 -1.61887 7.74724 11
207 1 -6.71482 -6.68941 -5.64263 18
208 1 -6.41836 -4.92782 -11.0805 15
209 1 -6.17613 9.7186 2.04823 23
210 1 -4.31854 -7.83393 -7.22587 20
211 1 -9.51658 -4.47028 5.37255 12
212 1 10.3464 2.85295 1.36784 16
213 1 8.56113 8.43469 3.36266 14
214 1 2.01856 2.86325 -13.4817 20
215 1 -0.490751 9.27559 -11.2872 22
216 1 -5.15826 10.1686 4.88373 16
217 1 -13.6121 1.88209 -4.70266 10
218 1 6.27921 12.5374 -9.58302 13
219 1 -5.13412 -5.69033 -14.4144 10
220 1 3.52217 -4.36697 -10.1129 19
221 1 7.31855 7.91155 -6.03396 20
222 1 5.66379 9.42577 -4.56335 18
223 1 7.16166 8.55639 -12.5829 10
224 1 1.26699 -10.0879 -1.91091 17
225 1 -5.41201 5.23658 -15.0419 12
226 1 7.38606 8.4531 -2.5206 21
227 1 9.495 -1.86378 0.0383642 16
228 1 -2.72027 6.37992 -15.1253 13
229 1 4.53405 -5.56678 -3.65693 18
230 1 -0.555264 -1.84966 8.39538 15
231 1 -8.19801 5.15225 -11.0453 17
232 1 -0.584977 2.36037 -17.933 6
233 1 -13.5829 3.81651 -1.68283 9
234 1 11.3601 -0.257794 -5.71736 16
235 1 -3.04524 8.77663 -9.32953 19
236 1 1.01216 -3.4444 -13.7413 21
237 1 0.870769 5.42175 -16.3332 14
238 1 9.86669 -3.5763 -11.331 16
239 1 -12.291 -5.71738 0.645424 11
240 1 -2.1591 16.3438 -7.30936 14
241 1 2.26018 8.42887 -9.57781 19
242 1 11.6728 8.40055 -6.46211 12
243 1 2.02604 -6.34226 -5.10036 14
244 1 4.51584 0.245627 -16.3978 12
245 1 12.6832 1.51874 -3.9643 13
246 1 1.4883 -6.05096 2.03778 15
247 1 -11.5368 5.86617 5.30185 12
248 1 -7.13166 -1.9043 -11.119 19
249 1 -0.872019 -1.57459 5.44863 20
250 1 0.219574 10.3788 -14.1032 15
251 1 -7.84895 13.9234 -7.32931 14
252 1 2.11245 14.3057 -6.92343 15
253 1 0.460347 6.477 6.91993 21
254 1 4.71242 -8.34925 -4.54998 17
255 1 3.62788 -0.0384123 -9.92938 21
256 1 -10.7416 -3.69836 -4.22475 19
257 1 -9.45037 4.25653 -3.2369 20
258 1 -13.0058 -3.32764 -2.03867 14
259 1 4.84638 9.93536 -11.1055 17
260 1 1.57081 -9.23747 -11.7828 8
261 1 4.5061 -1.82479 9.40974 12
262 1 6.88257 1.70848 -10.1555 20
263 1 -11.9562 8.52284 3.43964 12
264 1 10.9279 -3.53751 -7.13836 10
265 1 0.510036 12.1637 3.77738 15
266 1 -0.92125 3.72008 -11.7632 20
267 1 5.66658 6.79097 -14.4045 11
268 1 -4.27808 0.191407 -11.3017 21
269 1 -8.81786 -8.98085 -6.96793 12
270 1 12.6447 6.80898 -1.83091 11
271 1 12.0214 -4.27375 -13.4326 5
272 1 5.55912 -6.57729 -7.75907 17
273 1 9.50205 10.1826 -5.06529 17
274 1 -5.36273 8.95055 -0.971279 18
275 1 12.5404 5.72115 -6.5808 15
276 1 -5.91879 -1.30744 7.59403 18
277 1 7.33424 2.94478 6.7834 12
278 1 -7.38538 -3.6468 -13.9194 10
279 1 11.4036 8.63124 1.33493 11
280 1 10.4967 -5.71085 -0.127167 9
281 1 1.55914 16.4979 -2.21607 9
282 1 2.86635 4.98671 5.15844 21
283 1 -2.43676 8.50795 -6.26365 16
284 1 -1.14241 -8.05399 -10.6533 15
285 1 -5.73264 8.91952 -14.3112 10
286 1 -5.57309 1.99085 -14.195 15
287 1 -12.201 5.98458 -9.2237 10
288 1 6.64126 -9.90487 1.26099 12
289 1 -0.182015 -8.2514 6.7086 9
290 1 7.73777 4.74619 -11.5159 19
291 1 12.0217 3.3562 -1.07001 14
292 1 6.22709 14.7008 0.725972 9
293 1 9.94867 0.941862 -0.450658 19
294 1 -5.90255 3.83558 5.71871 14
295 1 -6.03214 -10.4938 -7.6105 10
296 1 -11.0117 -2.5492 -7.4022 16
297 1 5.12096 -0.83131 6.40369 22
298 1 -4.90087 11.7103 -2.83249 19
299 1 6.94709 5.22448 -0.977718 18
300 1 5.55096 5.00394 3.91848 21
301 1 -11.4829 -2.32057 5.36042 13
302 1 4.69066 3.07937 -11.9073 22
303 1 -1.24972 -5.11171 -10.1397 18
304 1 4.08495 11.1859 4.69445 11
305 1 4.32845 8.72269 1.87714 20
306 1 -0.860972 4.17951 8.15359 18
307 1 -3.37664 3.3116 9.00576 10
308 1 -7.50281 4.29369 8.40032 10
309 1 -0.703408 9.95295 -7.85632 20
310 1 7.43968 14.1584 -1.70685 11
311 1 5.54903 9.77574 -7.52988 19
312 1 -3.66406 -9.11586 -1.99917 19
313 1 4.70541 6.42663 0.427458 19
314 1 -5.97166 9.19574 -4.49344 14
315 1 4.29364 13.8856 -11.6838 10
316 1 1.97677 3.06945 7.52803 20
317 1 4.13793 13.0427 0.777651 14
318 1 -1.42715 0.560192 -13.4698 19
319 1 6.77794 -2.38369 -10.1473 17
320 1 4.95547 12.3457 -2.51383 17
321 1 -12.0438 -0.163874 3.1581 14
322 1 -1.14385 -7.55652 -1.59677 20
323 1 4.92963 10.2721 -14.534 9
324 1 5.10272 -2.9577 -14.865 11
325 1 3.14614 -2.2106 -12.182 19
326 1 -3.31459 17.354 -2.00735 11
327 1 -0.0579013 -5.18968 8.05845 12
328 1 -7.48163 -6.67784 -8.96595 17
329 1 -3.10265 5.50039 5.63317 20
330 1 9.5292 1.19826 -4.22263 24
331 1 3.09535 11.6873 -8.05921 20
332 1 9.90127 6.34662 -10.6067 13
333 1 10.3049 6.61036 -3.72563 24
334 1 -0.632278 8.27291 -15.8886 11
335 1 -1.00116 3.48711 5.46806 17
336 1 -2.16737 -6.70882 3.06558 18
337 1 8.1796 -4.57936 -13.5025 8
338 1 -9.2902 10.882 -2.87477 14
339 1 7.37892 8.02376 0.692858 21
340 1 -6.15682 -5.08595 0.152036 18
341 1 2.30593 8.2027 -15.7204 15
342 1 -3.03054 0.143855 9.24707 13
343 1 -12.6013 -1.12833 -5.25982 13
344 1 7.02663 -0.626537 -5.60263 21
345 1 -5.77139 -6.04186 -3.19645 15
346 1 8.93565 -4.5482 -2.1834 15
347 1 3.83396 -5.02313 0.138543 21
348 1 -1.82909 11.5424 5.56408 11
349 1 -9.0451 6.76195 6.42438 11
350 1 7.34855 2.43022 0.120461 21
351 1 7.37055 -3.47383 -7.00269 19
352 1 4.58555 9.10101 -1.09179 22
353 1 -0.501588 15.4427 -0.550326 12
354 1 2.77358 -6.35076 6.26646 11
355 1 -9.51276 -0.18455 -8.09995 16
356 1 3.97096 7.95582 10.0171 6
357 1 8.34374 13.0304 -7.0493 9
358 1 9.27017 -2.6527 5.39358 11
359 1 8.09834 -5.23009 6.66526 11
360 1 6.38831 10.9349 2.48647 12
361 1 0.714576 -6.63266 -14.4571 11
362 1 -3.73715 3.23192 -16.7331 13
363 1 -5.48624 1.38674 7.64728 14
364 1 14.0282 7.80287 -4.50364 9
365 1 1.62097 13.1103 -13.3704 10
366 1 7.39437 2.57761 -13.8345 17
367 1 -8.34918 -10.5814 -10.3726 4
368 1 -6.77243 1.10334 -9.29253 18
369 1 1.36777 -0.00315266 -11.7581 20
370 1 -5.27372 -4.74466 -8.17181 21
371 1 -0.0880966 1.75892 9.69095 15
372 1 -1.01378 -5.04989 0.785315 19
373 1 11.3495 3.9712 -8.88244 15
374 1 -7.91457 9.23745 -0.533023 18
375 1 10.9534 -1.6583 -2.43456 14
376 1 -11.2093 5.25159 -1.25592 16
377 1 11.0491 9.45805 -2.09507 12
378 1 5.53487 5.95263 6.98458 16
379 1 -12.466 2.44071 -10.2754 9
380 1 -2.71915 6.13738 -11.0436 20
381 1 9.25329 -2.64746 -5.01105 19
382 1 -7.84035 -4.25444 -5.90092 23
383 1 -6.35301 -6.91849 5.54001 11
384 1 7.96978 -0.342438 1.65538 21
385 1 -9.895 -0.234595 1.04869 16
386 1 -1.40408 13.5666 -12.8011 14
387 1 7.03388 -4.36773 9.86913 7
388 1 -8.81895 1.2242 8.6174 11
389 1 -1.36015 -1.83768 -11.5898 20
390 1 -7.83048 -7.63135 2.92753 10
391 1 5.32875 -4.40017 7.46321 17
392 1 -0.506422 -11.7802 -3.95205 10
393 1 11.2507 -0.512699 -11.7531 12
394 1 -10.8734 7.72208 0.428144 16
395 1 -8.22563 2.02557 0.469121 14
396 1 -2.22525 -10.4824 -6.90048 14
397 1 6.80605 12.3384 -4.85472 17
398 1 9.84429 3.92234 -2.48167 19
399 1 2.26122 -3.12472 6.97901 19
400 1 4.18709 15.3083 -8.53661 13
401 1 4.57847 5.84189 -10.0055 17
402 1 -11.2595 8.27337 -6.63148 11
403 1 8.75476 9.71035 -8.38551 13
404 1 6.9264 11.0781 -0.626924 17
405 1 3.5711 16.6229 -5.15687 12
406 1 -5.17878 6.95475 3.9037 20
407 1 6.71539 2.62286 -6.42061 23
408 1 4.08645 -8.42034 1.0459 18
409 1 5.64184 8.38631 4.51788 17
410 1 6.52699 -0.402361 -8.28348 23
411 1 -7.04434 11.9195 -10.2886 15
412 1 -0.0333063 9.36449 2.23212 22
413 1 -0.837588 12.7345 -2.51593 21
414 1 -4.23304 -4.99208 2.89023 23
415 1 7.27909 -6.9059 -3.48287 15
416 1 1.33141 -0.101443 -15.2399 13
417 1 -7.71434 -3.93923 -2.42217 16
418 1 -9.06197 7.40553 -4.75694 20
419 1 7.33315 -3.35272 3.20818 21
420 1 -9.69782 -7.86809 0.204693 9
421 1 13.2885 4.2527 -3.5463 16
422 1 -2.63124 8.88736 -12.9095 21
423 2 -11.8514 6.3584 -10.9962 9
424 2 -8.23771 14.1599 -4.22675 12
425 2 0.783263 0.713454 -13.6004 19
426 2 -2.60085 4.90298 8.14717 16
427 2 -5.84916 -3.60032 -14.8748 9
428 2 4.55235 7.26905 8.1034 11
429 2 -9.91792 1.06978 -3.13798 18
430 2 8.04805 9.36857 -0.831687 17
431 2 -11.1033 -1.27779 -9.32122 12
432 2 -7.44864 3.23511 -3.31932 20
433 2 -5.38899 -3.37823 3.47677 21
434 2 2.41037 4.93269 7.24393 21
435 2 7.91642 4.20708 -15.1846 11
436 2 -5.79713 11.2236 -4.57517 19
437 2 10.6845 9.80675 0.0906345 12
438 2 -12.3306 -3.64431 -0.277404 13
439 2 -4.63857 -9.27684 1.45126 15
440 2 8.92664 -4.0793 3.96499 12
441 2 -6.02015 8.66456 -6.38764 21
442 2 -6.49959 10.7797 -8.81546 14
443 2 -2.37412 9.34079 2.23755 20
444 2 7.96907 -1.97014 -8.24105 23
445 2 -3.37379 4.14154 -11.2742 18
446 2 3.67308 -3.78407 -15.9371 10
447 2 12.7837 -3.54718 -11.9509 8
448 2 11.0484 5.40078 -7.70565 15
449 2 -6.36508 13.2339 0.112256 10
450 2 -0.857324 -6.2013 -15.2388 10
451 2 -1.21964 -3.54839 8.03997 14
452 2 7.23263 -2.33372 -1.95108 20
453 2 -10.006 3.59243 -5.18867 16
454 2 4.28501 14.7671 0.815467 9
455 2 5.80947 -8.64099 5.68409 7
456 2 -1.85549 12.1682 3.64748 13
457 2 5.31027 16.5755 -4.14882 9
458 2 2.99875 9.55672 -8.12278 18
459 2 -9.05733 3.08517 8.42913 10
460 2 6.84519 2.98596 -12.0873 21
461 2 -8.80512 4.9009 -8.9614 19
462 2 -11.0756 2.66828 5.76246 12
463 2 -9.07596 -9.21295 -0.610724 9
464 2 -1.1355 -5.72556 -1.33464 21
465 2 -1.51444 2.96585 9.68187 12
466 2 -5.48939 8.52574 5.81116 16
467 2 -9.73029 0.857227 -0.455437 18
468 2 6.28692 -6.63149 -9.55649 12
469 2 9.9841 1.48005 -6.20145 22
470 2 0.293817 -10.0857 2.83786 11
471 2 2.24868 8.91273 2.25316 22
472 2 9.81481 -4.4967 -6.19935 11
473 2 2.79192 -2.47341 5.01056 19
474 2 -3.81421 -4.4666 0.286664 23
475 2 9.76284 4.83974 -4.35849 20
476 2 0.860212 -7.82946 -5.3079 17
477 2 8.14881 -8.37083 -2.27771 12
478 2 -6.22539 -6.87323 -10.1527 12
479 2 -6.82971 -5.23501 -1.53773 16
480 2 -4.41129 -7.40401 -1.34106 21
481 2 -7.25541 -10.0198 -6.04981 11
482 2 -2.4219 9.63883 -4.30357 20
483 2 1.34282 3.46553 -11.7767 20
484 2 7.20198 8.93549 -7.67615 16
485 2 0.890959 9.30823 -15.6143 14
486 2 -5.86388 2.60626 4.34683 16
487 2 -9.39435 4.53062 -1.11159 20
488 2 -7.46592 6.11625 7.38725 12
489 2 -9.15303 8.68496 5.99605 14
490 2 12.543 4.1467 -5.74435 17
491 2 10.7581 -1.93929 -6.13121 16
492 2 7.69406 3.51901 -1.68199 21
493 2 -3.24794 12.4623 1.05538 13
494 2 -2.85571 12.1134 -2.37152 20
495 2 11.5035 7.84592 -3.1982 16
496 2 0.219141 11.6093 -1.19817 19
497 2 1.83993 12.7011 -9.3186 17
498 2 0.16689 8.19504 3.66591 21
499 2 2.36826 1.14443 6.89645 21
500 2 3.82399 2.48818 -13.8754 19
501 2 -6.15645 3.18298 7.43126 13
502 2 0.0675677 3.73053 -16.523 11
503 2 -11.6295 -4.09964 4.86764 8
504 2 -5.81199 -6.50469 -7.39953 17
505 2 1.11537 -4.80595 -10.3629 20
506 2 0.688792 -8.24295 -1.61307 17
507 2 7.53323 6.57928 -13.2232 12
508 2 -5.5848 6.86269 -14.4571 12
509 2 -4.94779 10.8155 -0.838255 21
510 2 -4.91396 -7.06741 -4.69127 18
511 2 0.332818 14.3529 -13.1116 8
512 2 2.22765 15.7368 -8.50514 11
513 2 -0.257249 5.93617 8.70931 14
514 2 1.72373 -10.1431 -7.15797 11
515 2 7.43824 5.64341 3.26526 20
516 2 7.42688 0.582541 0.0285303 20
517 2 7.92109 6.177 0.27453 19
518 2 -2.3869 9.82203 -10.7591 18
519 2 5.65788 -3.21549 9.17106 12
520 2 -0.147548 -2.56417 3.89156 19
521 2 7.54141 -6.11816 5.13901 13
522 2 -2.96308 14.6221 -7.66274 16
523 2 -8.40115 -6.81611 -7.41729 15
524 2 -4.1814 1.50053 -12.7863 18
525 2 -3.38409 -5.11817 -14.0433 13
526 2 5.24882 10.8127 -1.58119 19
527 2 -6.8207 -3.36287 -7.75126 22
528 2 -12.7302 4.74575 3.76589 12
529 2 7.87674 -3.23441 6.65742 15
530 2 -4.76427 -10.0773 -3.74509 15
531 2 -1.21595 2.76566 -13.3244 18
532 2 -6.74452 0.584329 -14.1995 15
533 2 -4.99012 1.75206 -16.5527 12
534 2 -3.72634 1.63002 8.34684 15
535 2 -1.8219 -6.70496 -11.6775 16
536 2 3.86648 -0.282535 -11.9416 16
537 2 10.2714 0.60763 -8.79523 23
538 2 -6.81512 -3.56527 1.17131 17
539 2 5.57313 -1.00795 -15.5647 11
540 2 -0.740116 -5.74946 -8.34955 18
541 2 -1.1912 11.7085 -13.5779 16
542 2 5.52918 8.22371 0.373524 21
543 2 9.95723 5.36659 4.8109 12
544 2 -12.2952 -1.26948 1.66203 15
545 2 -2.34134 -8.64599 3.26359 14
546 2 -0.579629 5.95114 -11.1636 21
547 2 -8.17318 -9.38377 -3.70755 10
548 2 -5.05739 8.60015 -2.82839 20
549 2 -4.63938 -6.50268 5.99434 11
550 2 -0.338735 -9.54097 5.52659 8
551 2 -12.4695 1.50745 -0.466157 15
552 2 -6.59666 -11.0195 -9.45649 6
553 2 -7.43537 -5.49636 5.03493 14
554 2 7.10265 -0.556354 6.68128 18
555 2 1.78079 11.541 -12.4986 18
556 2 6.25595 15.3799 -0.983826 12
557 2 10.6906 7.10631 -5.53204 19
558 2 -3.715 17.6344 -6.83171 11
559 2 -7.04611 -1.87978 -12.9976 15
560 2 -8.91216 1.42408 -8.77536 21
561 2 0.0394526 -12.1216 -2.02677 10
562 2 -0.0938872 -5.89522 3.1723 13
563 2 5.05205 -9.4261 2.46307 13
564 2 -8.47776 12.073 -6.99043 14
565 2 10.844 2.74727 -3.67968 21
566 2 3.90847 3.42124 8.99291 14
567 2 2.75018 11.7652 0.176855 17
568 2 -0.103284 2.54937 7.13337 22
569 2 -10.0952 6.17606 1.85246 18
570 2 4.31526 11.8106 -11.6974 16
571 2 -6.21453 -5.22702 -13.0585 12
572 2 -8.88589 -1.82491 -7.13202 19
573 2 -9.69995 -2.10816 0.836878 16
574 2 6.8652 13.2905 -3.28778 14
575 2 13.2784 7.55356 -6.12334 10
576 2 9.44618 -7.33077 0.445168 11
577 2 -12.0759 4.39007 -2.78345 17
578 2 0.538478 14.3468 -5.68818 19
579 2 -2.75357 9.78357 -7.58938 15
580 2 1.73031 6.81098 -12.6678 21
581 2 -10.5902 9.73479 3.58671 14
582 2 -9.56391 -3.9467 -2.24334 19
583 2 8.25137 -4.77953 -0.271768 19
584 2 7.1534 -2.87081 -5.32954 21
585 2 -11.1628 12.4497 -4.7092 8
586 2 -11.1367 6.91038 -8.04747 12
587 2 3.57072 -5.87906 -1.8021 20
588 2 1.70108 8.14482 5.92934 16
589 2 -0.443217 5.87995 -14.8862 18
590 2 -3.20489 13.2327 -13.0708 11
591 2 4.45895 5.31581 -14.8083 16
592 2 -0.427071 11.7565 -4.4451 22
593 2 -9.38966 -2.14389 5.88742 16
594 2 -2.72667 -1.86852 5.99391 21
595 2 -7.34449 -5.25429 -4.515 19
596 2 2.96061 9.36552 -11.0347 17
597 2 7.07345 0.714874 -6.90702 18
598 2 3.1274 2.97248 4.89522 18
599 2 2.8649 -0.658468 -16.0657 11
600 2 8.08809 6.6274 -2.53382 20
601 2 4.99355 8.34226 -3.04067 20
602 2 -12.5096 -1.44922 -1.77948 18
603 2 -5.66452 16.3036 -4.49681 15
604 2 -5.0399 5.71569 5.35696 16
605 2 1.20909 -10.8064 -4.28708 12
606 2 -9.25653 -7.64276 1.85753 7
607 2 4.69167 -2.72169 6.7628 19
608 2 9.89873 9.43836 -6.67005 13
609 2 2.78691 12.2616 -3.35588 18
610 2 4.43608 -5.42385 6.21849 15
611 2 7.88392 -7.22503 -5.37074 12
612 2 -2.04249 8.1607 -14.6519 16
613 2 -1.24614 8.16542 7.05794 16
614 2 2.14035 6.28865 3.86713 24
615 2 7.97077 -2.24039 1.46407 20
616 2 -2.28731 1.96782 -17.0724 11
617 2 10.0866 1.11754 -11.948 15
618 2 -6.72654 15.5543 -7.06425 13
619 2 0.878872 -7.57216 -12.6844 13
620 2 2.49178 6.82696 10.4922 9
621 2 -8.19811 8.03948 -9.55697 18
622 2 11.0853 -2.99255 -9.00314 14
623 2 3.55938 16.955 -1.55902 9
624 2 7.65703 9.18858 -4.52733 20
625 2 10.401 4.91752 1.90912 16
626 2 -5.89009 0.659315 -7.69238 22
627 2 -11.4346 9.9531 -3.21472 11
628 2 -5.72248 5.71125 -8.07179 22
629 2 7.77736 6.01138 -6.88976 19
630 2 -10.5076 7.0845 -1.41581 19
631 2 -3.08587 -2.07841 2.59481 21
632 2 4.22912 -0.111788 5.03608 20
633 2 0.0578534 -9.73194 -10.6902 9
634 2 -0.683871 0.100347 -11.5791 23
635 2 3.98751 15.4715 -6.72198 13
636 2 7.60995 11.7253 -8.41227 12
637 2 -3.25099 -2.15921 -11.6279 20
638 2 -4.71559 -4.54273 -10.1725 20
639 2 10.4394 7.84845 2.75933 15
640 2 -8.24573 6.1605 -5.98749 19
641 2 2.3142 -7.6947 0.679328 21
642 2 10.4362 -3.47006 -2.10733 13
643 2 -5.40415 -5.99875 1.85268 20
644 2 -5.7819 -1.38759 -5.65144 19
645 2 -0.240771 10.653 5.41285 14
646 2 2.56722 15.7853 -3.80771 14
647 2 -7.65943 11.2746 2.13166 16
648 2 -4.23775 -1.29823 8.74333 15
649 2 -1.62327 16.5934 -5.49201 13
650 2 -0.986532 -9.08622 0.189034 18
651 2 0.405574 -1.78502 6.8309 19
652 2 5.72874 2.25959 6.39557 19
653 2 -12.3404 7.69627 1.75974 11
654 2 -0.551086 5.40171 5.55513 23
655 2 -0.784725 -9.45198 -7.78233 15
656 2 12.6997 0.986106 -5.71577 15
657 2 7.11518 -5.24461 -7.50633 17
658 2 -2.93688 13.3934 -4.94345 19
659 2 -7.07937 0.217736 8.05094 13
660 2 -8.25673 5.93521 -3.14853 20
661 2 12.5163 -0.848519 -10.4329 11
662 2 4.9553 8.32749 -6.18213 18
663 2 -3.2817 6.48655 3.61832 20
664 2 0.552912 8.85814 -12.8856 21
665 2 -12.5769 4.05211 -9.17633 10
666 2 -5.81524 -0.80364 -10.3673 17
667 2 0.494036 8.89539 -9.59345 22
668 2 -9.49752 -0.0599906 -12.2754 10
669 2 3.88896 -3.22282 -13.4677 18
670 2 -3.95851 -4.5432 -6.6394 22
671 2 -3.93426 -4.32159 6.87629 15
672 2 7.0505 0.329175 3.43985 20
673 2 10.0019 -4.02184 -13.2451 7
674 2 2.91936 -10.7563 0.865734 12
675 2 6.66509 13.668 -6.22044 12
676 2 -5.17952 16.863 -1.43938 8
677 2 -11.0358 -1.82435 -4.64461 17
678 2 9.19347 7.44954 -9.17082 16
679 2 1.49419 -5.23582 0.155417 20
680 2 -9.41923 9.21504 0.459439 18
681 2 4.74382 2.16287 -10.0589 21
682 2 4.50613 5.8879 2.36059 20
683 2 -12.4318 1.72264 2.76011 12
684 2 -1.43048 13.1469 -10.6298 15
685 2 5.8158 2.5091 -16.329 10
686 2 -5.90585 6.21492 2.37535 16
687 2 -5.20531 0.0320036 6.22289 18
688 2 10.3133 2.69856 -0.748889 17
689 2 1.5794 4.33863 -14.4699 18
690 2 -7.86031 -2.81026 -4.79426 16
691 2 9.67364 -1.36121 -11.2398 17
692 2 1.68957 -5.19771 -13.8779 16
693 2 -11.8103 7.92968 5.62682 9
694 2 -7.30709 1.08768 1.81326 15
695 2 4.00579 -9.82471 -5.3078 12
696 2 -2.53876 -8.30801 -6.52436 19
697 2 -1.98784 -11.6464 -4.88732 12
698 2 12.6748 2.64498 -8.66771 14
699 2 -5.61749 13.3967 -7.15822 16
700 2 2.41527 11.7437 4.09104 13
701 2 -4.17854 -10.1833 -6.52809 13
702 2 5.40336 3.261 2.9698 20
703 2 -4.04394 7.44121 7.90448 10
704 2 -5.00166 8.40391 -9.79892 20
705 2 3.03308 -8.34271 -10.8208 11
706 2 -6.07828 -10.0498 -0.668535 11
707 2 -7.00649 7.6376 -0.790484 18
708 2 3.46094 9.15345 -14.6385 15
709 2 -4.22794 10.0656 -13.8967 14
710 2 6.3535 8.88872 -10.7478 16
711 2 -4.65107 -0.995094 -16.316 12
712 2 -1.16899 -3.07469 -9.88708 20
713 2 -12.8604 1.15286 -9.10267 11
714 2 4.93699 10.0201 3.31238 15
715 2 -5.55807 3.81374 -13.7629 14
716 2 -12.068 -4.76732 -2.77285 13
717 2 9.95479 0.0228485 1.34741 15
718 2 4.72147 6.64999 5.34524 17
719 2 6.82325 5.76954 -10.2132 17
720 2 -0.274874 11.9344 -7.85869 16
721 2 -1.12258 16.0798 -9.1588 10
722 2 11.3746 5.20646 -1.76333 15
723 2 2.98008 14.5124 -12.7516 8
724 2 1.51804 4.23675 10.5273 12
725 2 -0.820633 -3.43145 -13.1111 22
726 2 7.02533 4.84407 6.49669 13
727 2 -5.09467 8.57186 0.841579 21
728 2 7.95716 -9.8172 -0.0148793 9
729 2 3.85028 -5.95651 -8.7568 19
730 2 -2.32634 15.5643 -1.45174 13
731 2 7.11807 -5.39294 8.30809 10
732 2 -4.02967 14.3643 -10.2097 15
733 2 -0.511883 14.1059 0.797655 13
734 2 -10.0156 9.90114 -7.12171 10
735 2 2.51825 12.4659 -6.43397 18
736 2 -7.60918 -3.64358 -10.4441 17
737 2 0.731136 -2.15349 -15.1457 16
738 2 -7.61095 8.59428 2.72983 19
739 2 13.0349 2.67535 -2.53581 11
740 2 -7.31525 13.6389 -9.48262 12
741 2 -9.88507 0.0734272 7.72413 10
742 2 -2.89511 -7.14524 -9.008 15
743 2 4.23521 9.39206 5.90978 11
744 2 -2.57322 -3.2686 -16.1849 14
745 2 -6.73831 8.80992 -12.5642 14
746 2 2.21864 6.66188 -16.6003 11
747 2 -3.57339 4.88083 -15.7064 14
748 2 -8.54647 11.448 -1.22962 13
749 2 -4.92237 10.7262 2.88864 19
750 2 5.09644 14.1688 -9.75357 13
751 2 -8.52042 -9.72905 -8.67501 8
752 2 9.39072 4.25333 -12.7992 11
753 2 4.94188 -2.85594 -10.0296 18
754 2 -10.7756 -7.62977 -2.93031 10
755 2 -8.35156 9.27385 -3.50913 18
756 2 -12.7022 -4.96337 2.12245 8
757 2 -2.79481 6.89913 -9.14414 24
758 2 1.67359 -7.88523 6.31105 9
759 2 7.53499 7.96627 4.91223 13
760 2 5.45092 -3.14803 2.99501 19
761 2 -3.29839 0.961224 3.59606 21
762 2 5.99248 8.91882 -13.8749 9
763 2 0.761631 11.1729 1.97855 21
764 2 -11.0148 -5.35966 -5.42223 13
765 2 -10.9391 -6.31482 -0.200009 13
766 2 -9.8348 -0.179879 2.98835 17
767 2 -5.0739 11.6779 -11.1976 16
768 2 -12.7989 -1.56402 -7.03519 10
769 2 -5.07734 13.9053 -2.43936 16
770 2 7.05277 -5.59477 2.26355 17
771 2 10.3955 10.8846 -2.84722 11
772 2 -3.1667 -10.559 -0.805355 14
773 2 -14.2905 2.56215 -2.8754 8
774 2 -12.16 4.43641 0.522175 15
775 2 -2.69549 3.55862 4.85268 20
776 2 1.89114 1.23205 9.8016 14
777 2 3.12144 -10.0033 4.14957 11
778 2 8.24151 2.95194 1.88325 23
779 2 4.23111 -6.61523 -5.24604 20
780 2 -2.34981 9.30546 -1.00701 22
781 2 -5.38611 2.72324 -9.38316 19
782 2 -5.38128 -1.11012 0.799418 19
783 2 -2.81962 -4.87344 4.1864 19
784 2 -6.69634 -0.717228 3.77194 20
785 2 2.61497 -1.91216 8.52272 16
786 2 3.92018 4.62612 -11.243 20
787 2 7.63284 9.59154 2.07117 16
788 2 7.12 0.541188 -13.4781 17
789 2 9.48392 -0.732535 4.58812 15
790 2 7.72279 3.32888 -5.09075 20
791 2 10.6847 -0.34619 -3.89926 14
792 2 1.16068 16.6168 -0.159507 9
793 2 14.0341 6.16615 -2.93853 12
794 2 -2.56959 -6.51036 1.2277 18
795 2 -0.995216 -0.096563 9.17606 15
796 2 -6.8919 -2.51603 6.98358 15
797 2 3.47319 -10.3874 -2.1902 14
798 2 5.04918 -6.44454 0.682975 18
799 2 10.5819 -5.03831 1.66397 11
800 2 -1.16363 -6.58808 7.0437 11
801 2 -7.1388 10.9973 4.70817 12
802 2 7.17345 -0.349924 -10.1469 21
803 2 7.05433 -3.15696 -13.9524 12
804 2 3.76698 -5.53982 -11.8854 15
805 2 -3.84878 7.46325 -12.1669 21
806 2 -7.91679 3.15998 -11.7193 17
807 2 5.84328 12.0732 1.05592 19
808 2 -12.7354 3.14151 -5.9117 11
809 2 11.689 7.1419 0.083203 13
810 2 -10.0508 0.415233 -6.31397 19
811 2 3.12198 -4.76706 2.42224 15
812 2 8.87557 11.9625 -5.02499 12
813 2 7.73975 2.90353 -8.72721 20
814 2 10.5572 4.58494 -10.5656 14
815 2 1.6151 -4.90494 6.93001 15
816 2 -12.2178 0.787954 -4.3003 18
817 2 10.757 2.14605 3.13436 14
818 2 5.01277 -3.48906 0.0778184 23
819 2 8.2702 12.3202 -1.14004 15
820 2 -10.1987 5.37254 6.41341 11
821 2 -10.9904 7.50564 -4.88124 14
822 2 9.61797 -0.622393 -1.51802 15
823 2 5.30969 -9.06242 -0.497519 15
824 2 -10.0419 -4.27497 -8.19688 11
825 2 5.12149 11.3357 -4.41437 16
826 2 5.45671 -7.50875 -3.02607 16
827 2 2.50029 9.4118 -1.12689 22
828 2 -6.20677 -7.95573 3.87411 12
829 2 -0.763453 0.339115 5.26015 21
830 2 -3.23032 10.2063 5.52769 13
831 2 -2.08819 -0.420917 -14.7784 17
832 2 -9.2202 6.91607 -11.9822 12
833 2 -11.6547 -0.596845 5.33329 11
834 2 4.86781 0.0992374 8.77532 16
835 2 -10.6332 2.58564 -10.8399 12
836 2 8.15442 2.35096 5.11401 17
837 2 7.97048 -4.04153 -11.0832 15
838 2 -6.37578 5.53239 -11.1351 20
839 2 4.91809 10.7856 -9.05714 17
840 2 -2.00017 -8.52476 -3.05451 21
841 2 -3.85172 18.3773 -3.43405 9
842 2 0.0111749 14.4782 -2.71179 19
843 2 7.65724 -5.16199 -3.14867 17
844 2 5.48336 -8.5204 -7.36809 12
845 1 -6.59727 1.65084 -5.61357 22
846 1 -6.63039 -1.40159 -3.93464 17
847 1 -1.90343 -4.8067 -6.76338 22
848 1 -1.55835 0.72697 -9.66092 22
849 1 -3.73207 0.259891 -7.98627 21
850 1 -1.82809 -1.99786 -8.00267 24
851 1 -4.2219 -2.71557 -6.58066 20
852 1 -1.16361 0.897983 -6.3444 21
853 1 -4.1855 -0.229909 -4.76455 21
854 1 -1.47429 -2.06429 -4.75825 22
855 2 -7.12471 0.425969 -4.26916 18
856 2 -1.97076 -6.17287 -4.68042 20
857 2 -3.39391 0.953541 -9.83985 20
858 2 1.30149 -1.84441 -11.8559 22
859 2 -3.83259 -1.66579 -8.28198 23
860 2 -0.838332 -0.362286 -8.15352 21
861 2 -3.26967 0.865229 -6.26851 23
862 2 -1.30076 -3.16329 -6.45546 18
863 2 -3.47932 -2.11977 -4.75929 22
864 2 -0.437824 -0.384855 -5.05728 23
865 1 -8.00638 1.22633 -2.62447 19
866 1 -6.32049 -2.24313 -0.299676 17
867 1 -1.14367 -4.71462 -3.09355 20