ITEM: TIMESTEP
1000
ITEM: NUMBER OF ATOMS
1000
ITEM: BOX BOUNDS pp pp pp
-30.0 30.0
-30.0 30.0
-30.0 30.0
ITEM: ATOMS id type x y z Coordination
1 1 0.0499582 -10.6303 -8.63948 12
2 1 8.76503 -14.9382 4.21434 4
3 1 -8.81348 8.9052 -2.99385 12
4 1 -8.7222 3.91337 -8.32282 15
5 1 -0.881251 -7.63174 10.3698 15
6 1 -6.45245 -2.09201 -12.6319 12
7 1 -4.80972 -14.0888 1.05491 13
8 1 5.80124 -1.21309 7.34158 23
9 1 -0.289512 4.69943 7.11006 19
10 1 -3.16822 8.58693 -8.59127 19
11 1 4.19928 -2.59613 13.6419 7
12 1 -3.0491 -2.26567 -7.83939 20
13 1 0.899838 3.13523 14.0456 12
14 1 -2.01394 -11.9831 6.67637 15
15 1 -12.118 1.35487 -1.03597 14
16 1 -9.51088 1.84525 -3.12049 22
17 1 -3.26808 14.3488 -0.642078 14
18 1 1.41507 0.946729 -9.58284 17
19 1 5.34296 -4.42624 -11.6007 14
20 1 -2.56802 -2.08208 12.0478 19
21 1 -11.3433 7.45281 -1.71932 9
22 1 0.620388 13.5539 0.260836 11
23 1 -0.152732 -12.1489 3.91973 15
24 1 5.01373 -9.50147 -4.80418 16
25 1 7.48384 1.05442 3.86584 19
26 1 -7.19094 9.80306 -4.88299 15
27 1 2.83442 6.14423 7.95161 19
28 1 4.24084 -0.937252 10.9888 19
29 1 -9.32491 1.82022 0.193079 21
30 1 9.99728 1.72454 8.44221 11
31 1 7.85923 -1.69056 -4.772 15
32 1 2.58736 -2.26964 8.48031 20
33 1 -6.91386 -6.19823 0.542299 20
34 1 -1.79449 -8.23979 -8.9116 18
35 1 -5.69389 15.0614 -2.27363 8
36 1 -2.05136 4.40843 -12.2507 13
37 1 10.0554 -3.60666 -5.5618 15
38 1 5.39997 -6.66201 3.80024 20
39 1 7.17943 -14.0642 7.10488 9
40 1 -3.72513 8.72013 6.36909 15
41 1 -8.96053 -6.09978 8.83606 11
42 1 -8.28215 2.63707 4.85989 26
43 1 5.33295 -6.81361 -3.43572 20
44 1 9.45503 -1.05548 -10.9449 8
45 1 -1.57554 12.763 4.69536 10
46 1 -8.611 7.22738 -6.8691 15
47 1 -1.32686 9.87861 0.588477 16
48 1 -6.21982 -8.64617 8.36281 14
49 1 -1.51227 -5.79701 -10.9766 17
50 1 6.79427 -5.86994 -6.1828 17
51 1 -3.69741 3.79664 9.78529 19
52 1 -10.4862 -6.29215 -1.95396 13
53 1 -7.23793 -6.35966 -2.69189 20
54 1 9.87473 -11.2502 3.67725 9
55 1 -4.12743 6.22379 3.66208 19
56 1 5.79125 7.6619 -7.97926 18
57 1 7.10186 -11.1623 -0.60736 12
58 1 -7.8855 -8.93574 2.32878 19
59 1 10.9434 8.72478 3.88535 11
60 1 7.55881 6.51801 0.0685719 19
61 1 -5.05877 12.4564 -5.74726 14
62 1 0.365272 -8.09842 -11.4571 13
63 1 -0.699435 7.24601 -4.55182 22
64 1 12.1651 -1.46319 -5.71968 10
65 1 7.53561 1.73589 -10.1185 12
66 1 7.80761 -8.89852 3.87386 16
67 1 -5.13886 8.93036 -10.7439 10
68 1 5.05667 12.1968 -1.05264 16
69 1 13.4867 7.00567 -4.63123 7
70 1 -3.22411 14.5709 -3.70631 8
71 1 -0.87772 -3.03177 -12.8033 14
72 1 -12.4507 -3.74695 -4.90042 11
73 1 -3.39854 8.71789 10.0877 13
74 1 -2.04196 11.0298 -6.48833 16
75 1 4.83526 -5.5007 11.8894 12
76 1 -12.7226 -3.8262 1.82357 17
77 1 -5.00886 -12.3633 7.12629 9
78 1 10.2129 6.79814 -3.84898 14
79 1 -3.24008 -10.0515 9.42519 12
80 1 -8.27202 4.39839 -1.8052 21
81 1 -0.809574 4.18628 10.6779 18
82 1 -4.31827 0.0662693 -9.15933 19
83 1 -6.03057 -5.67873 7.67505 18
84 1 -6.40372 -9.70285 5.26784 19
85 1 1.80499 -10.5203 -2.93542 18
86 1 -1.33888 7.19731 5.22886 20
87 1 -10.2247 1.69857 -6.45188 18
88 1 -0.881732 -9.28111 4.9041 20
89 1 8.17562 6.01244 -6.31212 20
90 1 2.85889 0.67963 13.642 12
91 1 -1.602 7.67338 -10.7214 15
92 1 -7.35332 -4.16984 -7.30829 19
93 1 -7.30876 11.6992 -1.98106 14
94 1 4.79549 4.77174 10.0708 17
95 1 -3.8915 11.4515 -8.63007 11
96 1 2.34316 6.39276 -6.36959 20
97 1 -9.38388 4.6461 6.96846 17
98 1 -6.7076 5.85813 8.67665 19
99 1 1.06748 -7.83424 -7.71599 23
100 1 4.31561 9.15344 -9.80514 11
101 1 0.811582 9.15167 -1.89626 19
102 1 -9.657 0.525978 3.26615 20
103 1 0.815269 5.91159 13.4609 10
104 1 11.3307 -2.04884 -2.22251 16
105 1 1.6138 8.56452 6.10328 16
106 1 -8.36961 5.92528 3.66817 17
107 1 -9.95364 -5.95493 -5.05648 13
108 1 1.66164 0.813466 10.0531 20
109 1 -3.44526 -10.6599 -1.2811 17
110 1 -1.12416 -0.34682 -11.7176 15
111 1 8.69193 -1.03507 -7.9763 14
112 1 -13.1908 -3.44089 5.56263 10
113 1 -8.33764 -8.0473 -7.95661 12
114 1 -9.03991 -2.72959 -10.4553 12
115 1 -10.2695 0.590231 -9.22302 10
116 1 8.47001 0.422799 11.4641 9
117 1 4.55565 -4.30474 9.29223 19
118 1 2.42873 -7.40522 5.32867 20
119 1 4.30677 7.15462 1.76526 21
120 1 -5.92571 -6.90017 4.04024 23
121 1 3.77149 13.3902 1.57212 12
122 1 -4.83495 -4.81604 -12.174 14
123 1 -5.99907 -9.28188 -5.17273 18
124 1 -3.61283 -9.85111 3.78402 21
125 1 8.33235 4.3169 5.26744 18
126 1 -6.61478 -4.82916 10.8757 11
127 1 -3.3814 -13.4873 -1.12232 12
128 1 -1.28183 -14.0292 1.35415 10
129 1 -0.293532 -9.4816 -1.38788 19
130 1 -7.13271 6.71562 -9.55676 15
131 1 10.8877 5.92812 4.84631 11
132 1 -5.94379 1.08517 -11.3449 16
133 1 0.773378 5.10697 -10.8318 15
134 1 -5.62684 -1.87658 7.32749 21
135 1 3.00433 11.051 8.84724 9
136 1 11.3719 -0.715031 6.29873 11
137 1 -8.76519 -1.23155 5.79679 18
138 1 -0.887514 -4.60285 12.0799 14
139 1 -6.71692 10.3599 5.31007 14
140 1 3.60776 -7.99759 -11.8205 12
141 1 1.87912 -10.3205 3.06099 19
142 1 7.97991 -4.31253 -9.38317 13
143 1 -9.94035 -3.02274 2.97851 20
144 1 4.98518 -9.50591 -2.05956 17
145 1 -3.78095 9.05247 2.23333 15
146 1 -5.67013 3.63861 3.81882 23
147 1 3.18426 -14.6501 7.19974 5
148 1 -3.56389 5.97695 7.72675 19
149 1 -8.33644 -0.880233 -4.69626 15
150 1 -4.09824 13.4449 2.08845 11
151 1 -5.9785 4.60592 -6.41216 21
152 1 -11.9976 1.76461 1.8512 14
153 1 -4.41628 -5.3665 -9.16692 22
154 1 -6.55665 7.08204 2.02072 17
155 1 7.38961 -4.3225 7.79566 16
156 1 8.27588 -10.7691 6.56757 14
157 1 -0.782719 -3.80852 8.77692 20
158 1 2.34711 -10.6077 -6.15871 16
159 1 -6.14778 -3.17477 -9.70919 20
160 1 -13.3016 -0.940393 -3.21732 12
161 1 -2.76748 -7.04445 2.61816 22
162 1 9.92295 1.30136 -0.811249 17
163 1 -5.59507 4.27529 -9.86299 17
164 1 -8.498 7.78613 6.48929 13
165 1 -7.08131 10.3698 1.41399 16
166 1 -6.08784 5.53953 5.80872 19
167 1 10.0548 -4.29951 -1.2049 18
168 1 12.1646 2.06333 -5.68424 9
169 1 -1.13318 -4.80524 -7.92617 22
170 1 -0.194493 9.8949 3.28872 18
171 1 -8.62997 4.04079 -5.04664 20
172 1 2.89867 -12.7756 -1.24166 14
173 1 8.95027 -0.814209 8.69806 15
174 1 -10.0259 -5.49599 -8.60251 11
175 1 -6.52525 -11.9753 3.25853 13
176 1 -1.37447 14.4383 1.91728 9
177 1 -10.7221 7.61269 -4.90211 10
178 1 -4.5405 -8.01989 -7.15418 17
179 1 4.47856 -9.47208 5.17986 17
180 1 -8.42243 -8.27671 -0.483139 18
181 1 -5.81143 7.49661 -6.81257 20
182 1 -3.0865 -12.9469 3.75273 15
183 1 -5.83383 2.49919 11.6816 13
184 1 -6.26698 0.781839 5.47782 20
185 1 3.89746 -7.4527 -6.85054 23
186 1 -11.5276 1.94577 5.93039 10
187 1 -0.121869 -6.78233 6.64496 19
188 1 -3.47474 -4.62512 10.586 17
189 1 2.35116 -7.65646 -4.5967 21
190 1 5.13133 -13.5903 1.17259 9
191 1 4.52151 10.6653 -4.13563 16
192 1 -8.31181 -7.05399 6.18098 18
193 1 6.54155 -12.1842 9.44938 10
194 1 5.41311 -0.92552 -6.22628 17
195 1 8.75036 -7.20271 5.63465 14
196 1 -3.72389 0.912984 10.6054 20
197 1 2.28898 12.2203 -2.07446 13
198 1 4.83104 -6.58928 7.35928 17
199 1 -4.3368 -11.1768 -4.26785 14
200 1 2.16129 6.11461 11.1435 21
201 1 -4.84781 -3.49916 13.2669 8
202 1 -5.67633 -9.03324 -2.47962 20
203 1 -6.88763 -6.67311 -5.66249 19
204 1 -6.08429 8.96687 8.14756 14
205 1 -7.97381 -11.4478 -3.05988 10
206 1 -7.16571 -3.76223 5.14792 22
207 1 5.88039 3.60048 7.02646 17
208 1 8.42654 3.7422 -1.04353 21
209 1 3.03445 3.28239 -7.69242 18
210 1 -0.529039 7.90959 -6.98634 24
211 1 -3.65003 6.04485 11.97 14
212 1 -12.5334 -3.62554 -1.39905 15
213 1 2.0053 9.8921 -7.88241 16
214 1 -7.11237 -6.71326 -10.0499 13
215 1 2.47023 -3.24896 -13.5208 12
216 1 10.7299 10.857 -2.16182 6
217 1 2.37439 10.6459 0.482497 21
218 1 4.78857 4.99928 -5.60271 23
219 1 2.95418 -7.38452 1.8117 20
220 1 -6.22588 0.667639 -14.3872 8
221 1 13.7883 9.20971 -1.81916 8
222 1 7.43375 -4.05914 0.340822 20
223 1 1.84468 -1.35755 -11.303 16
224 1 -0.861104 -9.30964 1.52225 20
225 1 5.05575 -12.2584 7.11067 14
226 1 -6.66191 1.87198 -7.95055 19
227 1 0.270653 2.18167 -11.689 15
228 1 -13.8255 -1.06665 0.189658 12
229 1 11.2745 -1.34523 0.897489 15
230 1 -3.8289 8.77823 -4.86403 21
231 1 2.39381 -13.3691 -4.24945 7
232 1 5.30267 0.700551 -11.551 11
233 1 12.214 -4.79904 -3.54386 11
234 1 -10.3782 -4.07348 5.87637 19
235 1 -6.37723 13.4537 0.658097 12
236 1 -0.512009 10.7863 -9.51531 14
237 1 12.6434 6.52692 -1.18031 17
238 1 -2.82159 -7.48202 -0.805469 24
239 1 2.9287 -5.91534 -9.6304 18
240 1 9.80082 -6.73863 0.726997 12
241 1 5.16532 -9.32206 1.53429 17
242 1 -8.89061 0.802515 7.32689 19
243 1 -3.85038 -5.12572 -6.13667 22
244 1 0.506924 -2.04616 10.5397 19
245 1 5.44604 6.20771 -11.332 9
246 1 -6.91395 10.1408 -8.142 12
247 1 -0.257171 12.7299 -3.32817 13
248 1 -1.15456 1.79078 8.71226 20
249 1 0.161453 -14.5102 -1.44147 11
250 1 5.55053 -1.76014 -9.66669 16
251 1 -9.38744 -4.03073 -0.0321955 22
252 1 -11.5589 -6.91551 6.2026 11
253 1 6.44509 8.95025 -1.80865 20
254 1 5.09239 -9.38353 -8.21646 12
255 1 2.17 -8.14602 11.1151 14
256 1 7.213 1.07945 -5.70946 18
257 1 -11.1085 4.71734 -0.212535 14
258 1 8.94465 -6.50771 -4.7777 18
259 1 -0.803656 7.18644 11.2508 14
260 1 -3.05981 1.96095 -11.913 14
261 1 6.48039 3.89671 -7.96077 21
262 1 0.718759 -5.92651 -13.4864 9
263 1 -6.45588 -13.441 -2.02676 10
264 1 11.1775 4.25811 0.375537 15
265 1 8.14269 -7.79078 -8.18658 10
266 1 -0.59865 -9.76295 -4.54184 15
267 1 7.94438 10.9213 -0.359267 11
268 1 -8.15161 4.53049 1.44476 20
269 1 7.24989 6.17159 -3.47769 20
270 1 2.08911 -4.84924 7.00935 24
271 1 7.57062 3.23496 9.83925 14
272 1 -7.72492 -0.369706 -8.84526 17
273 1 13.1275 6.9427 1.95399 11
274 1 7.35252 -4.70813 4.084 16
275 1 0.947892 9.08973 8.9676 15
276 1 7.40868 1.15003 6.56851 22
277 1 -3.64936 11.6171 -3.40817 17
278 1 -2.89125 -10.8816 -6.95875 10
279 1 -5.39047 3.88706 -13.6774 10
280 1 -3.42982 -1.97025 -11.3941 18
281 1 -12.4521 1.67096 -4.29096 14
282 1 10.9484 -8.12797 3.88575 12
283 1 0.386728 -10.4909 9.40821 12
284 1 10.9527 5.10642 -6.38812 15
285 1 10.9157 -2.36426 4.05881 12
286 1 8.79943 9.06931 1.84962 16
287 1 11.6446 -5.84779 3.69748 9
288 1 -7.22328 5.62191 11.9529 8
289 1 -11.045 -7.01049 1.07251 15
290 1 -10.5077 -2.80496 -7.79106 14
291 1 5.80169 1.62649 11.8319 14
292 1 -6.83126 13.0301 4.22915 9
293 1 8.04337 3.98956 2.09256 21
294 1 6.83669 6.74212 3.02624 23
295 1 -11.2462 -1.11123 7.656 10
296 1 10.703 -3.06858 -8.44123 9
297 1 4.35318 7.21252 5.397 23
298 1 4.14216 8.64268 9.928 16
299 1 2.15571 -5.10049 13.1413 10
300 1 -2.64929 3.24336 13.2738 12
301 1 -3.02349 -0.228675 14.7566 6
302 1 -2.75728 6.05555 -6.62552 20
303 1 9.53645 7.85437 -1.45784 17
304 1 1.56787 12.1555 -6.47016 12
305 1 -3.34645 -10.5911 1.15522 20
306 1 -6.05668 7.27542 -1.36506 16
307 1 6.94728 8.95381 -5.51338 13
308 1 1.78542 3.70334 8.97398 18
309 1 5.88077 9.96499 7.11561 10
310 1 0.349278 -2.93713 -9.61033 17
311 1 4.62729 11.9551 4.26246 10
312 1 -12.1518 -1.41576 3.65728 17
313 1 1.88026 -13.4218 1.85215 13
314 1 8.53498 5.38886 -9.20452 13
315 1 5.4408 -1.97932 -13.4803 11
316 1 4.97335 -4.62995 -8.14336 18
317 1 -4.63958 12.1166 6.63869 8
318 1 1.99419 -8.40641 8.43317 19
319 1 -9.63254 -8.53281 -4.27113 13
320 1 -6.05947 3.3668 7.72075 21
321 1 10.276 -3.81997 1.78822 15
322 1 -0.808862 10.3681 -4.23415 18
323 1 9.36079 2.69036 -7.86898 15
324 1 7.86647 3.55151 -4.73632 23
325 1 3.39519 3.46255 -12.6573 9
326 1 -2.62677 -1.66227 9.05553 22
327 1 -3.81384 -4.52934 6.8989 21
328 1 5.67225 -7.15871 -10.0479 16
329 1 -4.72306 11.231 -0.121136 16
330 1 5.94688 9.31349 4.36805 16
331 1 -8.88697 -5.89448 3.13498 22
332 1 3.93862 5.7908 -9.08169 19
333 1 -0.40251 0.409039 12.4959 13
334 1 -9.63091 -3.4799 -2.69743 18
335 1 8.1368 -1.69585 -1.41994 22
336 1 -5.28953 -8.35209 0.827424 23
337 1 10.1329 -9.53869 0.363307 10
338 1 6.64281 -11.5068 3.20027 16
339 1 -0.114077 10.7955 6.62601 12
340 1 -8.42553 3.50655 9.86219 13
341 1 8.1759 -1.77378 2.13123 24
342 1 5.40701 -6.70564 0.0555922 16
343 1 2.76663 9.22638 2.90725 20
344 1 1.37812 12.4589 3.34412 15
345 1 1.64276 -10.8372 6.2058 18
346 1 -8.82782 -1.01044 -1.26287 18
347 1 3.7411 3.73918 13.1861 12
348 1 5.27004 10.2914 1.29743 21
349 1 7.41236 -8.74412 8.58548 9
350 1 3.23965 -11.2917 9.74211 12
351 1 8.16455 7.50974 5.62079 14
352 1 2.52081 -9.55134 -9.49766 16
353 1 -3.20007 -1.18895 -14.6517 10
354 1 -5.67412 -1.39302 10.8883 15
355 1 10.3534 2.24051 5.09111 16
356 1 1.71897 9.02555 -5.22307 21
357 1 8.78562 -2.83582 -13.8618 4
358 1 -6.62205 -11.4131 0.409417 18
359 1 -5.92153 -1.25689 -6.38974 21
360 1 2.73307 -1.95612 -7.88933 19
361 1 -3.35962 -7.7959 -4.08456 19
362 1 1.50394 -5.57139 9.96254 21
363 1 11.1665 1.016 -3.28757 11
364 1 -9.37513 10.3413 4.04692 8
365 1 11.1482 -7.52879 -2.33646 11
366 1 -11.2304 4.5496 -3.56618 16
367 1 10.4421 6.46111 1.96453 19
368 1 5.22102 6.71476 11.8476 9
369 1 -12.4028 -0.819359 -6.62425 10
370 1 -3.43995 3.4213 -7.75759 16
371 1 8.25504 -9.26676 -2.6317 13
372 1 -5.83512 -3.66043 -4.55992 19
373 1 -3.7822 -9.83787 6.89001 17
374 1 8.16455 -1.83504 5.54769 19
375 1 -10.9606 3.86994 3.77842 13
376 1 1.05144 8.0219 -9.59526 15
377 1 5.66629 -8.43975 10.369 11
378 1 -8.35736 -2.34412 9.29693 13
379 1 -4.00871 -7.95 -11.2545 9
380 1 -9.84408 -9.12816 3.99365 12
381 1 4.65203 1.45863 8.53515 19
382 1 -1.60511 -12.1759 -3.15539 14
383 1 10.8849 -6.42983 -6.74604 9
384 1 -9.44353 7.94667 1.4949 10
385 1 -6.74435 0.59226 8.97317 19
386 1 -1.29579 -6.76664 -5.91177 22
387 1 11.8876 9.16381 0.65333 16
388 1 10.3553 1.77725 2.22826 17
389 1 -3.87518 -7.091 8.93676 15
390 1 4.69462 10.1733 -6.80401 15
391 1 4.83813 0.913953 -8.1102 17
392 1 -11.6074 4.43397 -6.60559 10
393 1 4.55201 7.51246 -4.31725 22
394 1 2.15376 9.02189 12.1882 10
395 1 3.50045 8.69393 -1.47645 20
396 1 -6.33621 8.40663 11.3706 9
397 1 10.6457 4.16823 -3.02765 18
398 1 3.95831 -12.647 4.40383 15
399 1 6.3175 6.63889 7.48158 13
400 1 7.47994 -4.44109 -3.15056 19
401 1 -4.09059 6.20683 -11.3705 15
402 1 -1.37106 8.10821 7.93901 17
403 1 -3.21442 9.08093 -1.45058 17
404 1 -3.48459 -7.47017 5.46794 20
405 1 2.69383 -9.98802 -0.155448 16
406 1 2.53089 0.506208 -13.4626 11
407 1 -10.9956 -1.20647 0.929114 20
408 1 -6.99029 7.07571 -4.15428 20
409 1 7.32422 -3.02688 10.5031 12
410 1 -11.8422 -5.90679 3.71382 15
411 1 13.3117 0.392738 3.81961 7
412 1 -1.8321 5.16261 -8.96148 18
413 2 -9.6248 -1.4367 -9.15255 12
414 2 -4.87829 13.5633 -3.97051 14
415 2 2.72137 -1.37679 -13.3274 12
416 2 -5.41471 6.45038 12.299 11
417 2 -8.87845 -6.90813 -9.3354 10
418 2 3.68229 -0.907422 12.9286 10
419 2 -10.7259 0.61695 0.336582 19
420 2 7.14547 4.84261 3.60763 21
421 2 -9.23897 -7.52158 -5.99804 13
422 2 -8.51298 1.0003 -1.54487 22
423 2 -2.5203 -9.21072 5.57996 19
424 2 4.58735 6.00418 7.12543 18
425 2 9.09643 -2.60315 -9.40369 12
426 2 -4.30032 10.4463 -1.9905 17
427 2 10.111 4.0684 4.67955 15
428 2 -12.2176 -5.17574 5.65886 10
429 2 -2.92391 -13.3783 0.721186 16
430 2 4.83976 -11.952 9.35665 12
431 2 -10.6803 7.21054 0.108135 11
432 2 -5.66266 8.71216 -4.54245 20
433 2 -3.21599 8.00364 8.21718 17
434 2 1.4037 -9.46565 -4.71143 19
435 2 -3.51451 1.32656 -7.9682 20
436 2 -0.706779 -4.37525 -9.75624 20
437 2 7.37219 -0.763539 -6.57855 16
438 2 11.0832 6.69553 -2.02382 19
439 2 -3.33635 7.37063 5.06306 19
440 2 -4.66174 -9.86325 -6.3057 14
441 2 5.14724 -14.245 6.98926 10
442 2 7.344 -3.92409 5.94211 17
443 2 -9.40332 3.87268 -3.40315 20
444 2 9.43003 10.01 -1.23744 12
445 2 5.38245 -12.9321 2.96946 11
446 2 -0.543375 8.73778 6.41285 16
447 2 4.52176 10.0789 3.12701 19
448 2 2.51276 7.26144 -4.55214 23
449 2 -7.2338 3.64206 11.5822 12
450 2 5.16126 1.10502 -6.28185 20
451 2 -9.01543 0.992726 -4.79461 18
452 2 -11.3023 1.74066 3.84683 15
453 2 -10.2451 -7.43396 -0.46733 14
454 2 -0.480784 -7.50339 4.66675 18
455 2 -0.679604 -1.49213 12.4135 16
456 2 -2.44207 5.03312 11.0127 16
457 2 -8.3498 1.36147 2.03081 21
458 2 4.44907 -7.42162 -5.05403 19
459 2 12.0282 -3.01681 -4.30555 12
460 2 -1.48172 -13.5693 -1.76223 11
461 2 2.2498 7.92492 7.84395 19
462 2 6.45599 -9.32319 -3.4975 13
463 2 4.42246 -1.97875 8.33982 21
464 2 -3.92684 -6.36899 3.94756 20
465 2 11.5999 1.5601 3.69365 9
466 2 -0.157509 -10.5053 2.95323 19
467 2 10.9966 -6.70408 2.25916 11
468 2 -3.43908 -5.51782 -10.9923 17
469 2 -7.47826 -5.71239 4.42651 23
470 2 -2.60949 -9.11958 2.39054 18
471 2 -6.64731 -7.56489 -0.99181 19
472 2 -6.75931 14.0846 -1.13097 10
473 2 5.33828 5.97786 -3.77259 21
474 2 3.92335 5.38263 -7.1806 19
475 2 -3.77869 -1.71496 13.555 10
476 2 -11.6194 5.33783 -1.86829 12
477 2 -5.02742 4.86531 8.5681 20
478 2 -8.86534 3.89938 3.19257 19
479 2 11.4754 0.148986 -5.06229 9
480 2 10.3676 -7.95482 -0.714316 11
481 2 7.34083 4.50802 0.283035 18
482 2 0.301188 13.7367 2.21547 11
483 2 -6.49545 5.87652 3.81692 21
484 2 12.1955 10.0364 -1.23497 11
485 2 -1.0962 9.10914 -1.34722 16
486 2 0.572576 11.1218 -7.95834 14
487 2 -1.57387 6.04091 6.92118 16
488 2 2.76681 -4.50333 8.79817 20
489 2 4.60888 -1.39338 -8.04889 16
490 2 -3.91316 2.92115 11.7012 14
491 2 4.84509 2.95584 -8.19443 18
492 2 -7.29237 -7.07792 8.23051 13
493 2 -1.38835 -8.0189 -4.31536 19
494 2 3.19395 -13.0693 0.518517 14
495 2 12.0593 5.92341 -4.98614 13
496 2 -6.17655 2.54676 -14.6349 6
497 2 -6.11355 12.3331 5.76069 8
498 2 -8.27497 -4.75354 -1.36618 20
499 2 2.08714 6.17462 -9.71606 16
500 2 0.413054 12.6996 -1.72976 14
501 2 -0.748686 3.49397 12.8709 14
502 2 2.97017 -11.8565 -4.92019 10
503 2 4.70153 4.85463 12.0462 13
504 2 8.33341 -3.53468 -1.42746 18
505 2 7.78427 2.44686 5.04379 20
506 2 -3.7014 5.05984 -12.7443 12
507 2 4.9218 -7.22279 11.4363 10
508 2 -3.36516 -11.3655 7.94673 11
509 2 8.29043 -10.6174 4.53459 13
510 2 -5.38698 10.2056 -9.27757 12
511 2 -7.44068 -11.795 -1.18617 12
512 2 -4.50644 -1.93527 -9.55202 21
513 2 0.804525 -10.0484 -10.413 12
514 2 7.90097 8.4356 3.46031 18
515 2 -10.9902 -4.57445 -0.922628 16
516 2 -11.8765 3.08588 0.435484 11
517 2 8.28301 -2.76555 8.72978 13
518 2 -4.5514 -12.1691 -2.1013 18
519 2 1.63325 -1.2537 -9.18372 18
520 2 -2.35512 -1.87217 -13.1362 10
521 2 -5.76661 -7.44315 -11.3112 8
522 2 -3.73049 -1.07056 10.7667 17
523 2 -3.10703 -4.39325 -7.77098 21
524 2 5.05838 -4.91274 -6.17062 16
525 2 8.06696 2.62078 -6.45638 17
526 2 2.74951 -4.42113 -8.26015 20
527 2 -3.70979 -9.5059 -2.98006 20
528 2 1.6139 3.70881 -11.663 13
529 2 2.06718 9.83192 10.2866 11
530 2 10.3661 0.895943 6.6427 14
531 2 -12.5853 -3.33302 3.65115 15
532 2 -3.62793 -12.2698 5.68788 15
533 2 -1.52654 3.68648 -7.78679 18
534 2 -6.9307 -7.24906 2.16168 20
535 2 -7.61696 7.89141 -2.06497 14
536 2 -9.68479 -6.04929 6.88769 16
537 2 -0.121498 -11.3777 5.66598 16
538 2 -12.7311 -0.316292 1.70308 14
539 2 -7.36828 -9.60886 0.577475 15
540 2 -10.4037 -4.73557 3.90161 21
541 2 6.61123 -10.1417 9.74546 11
542 2 2.52424 9.16066 -9.29116 14
543 2 6.30544 10.8046 -1.19899 13
544 2 11.9746 2.90594 -3.92554 10
545 2 2.30242 10.2977 -1.3433 17
546 2 -10.3135 -3.87011 -9.59335 10
547 2 -11.9353 3.46441 -5.01111 13
548 2 -2.61902 -11.3792 -5.02975 13
549 2 5.59839 -7.6603 8.56861 11
550 2 7.54111 -6.85885 4.17398 16
551 2 -6.40862 10.9573 -6.46345 14
552 2 5.87699 -4.29849 10.7838 13
553 2 4.60605 10.2708 8.58723 11
554 2 -0.195813 0.9545 10.2567 19
555 2 -6.5917 3.56539 5.49527 22
556 2 8.42096 7.43458 -4.58944 18
557 2 -6.48136 -7.79555 -7.32241 16
558 2 -6.15983 0.7811 -6.14514 21
559 2 -9.27577 -1.59433 7.66048 16
560 2 6.02202 10.5915 -5.32066 11
561 2 7.97099 1.84065 -0.787758 21
562 2 9.78357 -9.52123 2.78642 14
563 2 -13.16 -0.21863 -1.47211 12
564 2 -2.64144 13.3818 3.12982 10
565 2 -2.67833 10.5414 -4.78036 19
566 2 2.43182 1.31665 -7.88639 17
567 2 -9.28914 4.06367 -0.111879 19
568 2 -5.55494 -3.45652 3.7539 21
569 2 4.70711 -7.53104 -1.7465 21
570 2 -1.72204 -9.82531 -0.0623449 18
571 2 -5.80505 9.22771 2.37701 14
572 2 -7.06513 6.19373 -5.95649 19
573 2 4.9408 -7.26539 1.86836 17
574 2 3.83942 8.14811 11.785 11
575 2 1.60141 0.482846 -11.7946 14
576 2 -1.74066 7.13438 -8.61692 19
577 2 8.12621 3.39225 -9.28649 13
578 2 0.64802 9.38552 -3.74841 22
579 2 -5.59019 -3.38814 11.5325 13
580 2 -2.74688 -3.68417 8.81824 21
581 2 -12.8365 -2.74961 -3.13764 11
582 2 1.46507 7.9275 -6.89905 20
583 2 2.64944 1.74256 8.5002 19
584 2 5.30848 -1.35476 -11.5138 14
585 2 5.84547 6.54008 1.06481 19
586 2 6.33809 8.30415 6.27683 14
587 2 -8.5244 -4.40974 1.89871 21
588 2 -3.6587 12.2399 -7.01624 10
589 2 2.65641 5.00321 9.70365 20
590 2 2.25373 -12.2699 3.53991 17
591 2 -5.67619 -10.4707 6.74651 16
592 2 5.33631 3.28693 8.95023 20
593 2 9.37913 5.13049 -7.66284 14
594 2 2.50849 12.5341 0.264589 15
595 2 2.72972 -13.1244 6.83043 11
596 2 1.50997 -13.6048 -2.7602 11
597 2 -0.288543 1.48653 -9.7984 17
598 2 2.03992 4.49498 13.5677 12
599 2 1.73803 4.54348 7.02641 18
600 2 5.36221 -4.66191 4.08447 18
601 2 0.0629781 -1.92984 -11.3664 17
602 2 11.0214 -4.61765 -7.42969 12
603 2 -6.73972 11.334 -0.205828 12
604 2 4.2733 -8.80887 -10.13 14
605 2 1.13988 1.21221 13.3098 12
606 2 -4.00306 8.23916 -6.90172 19
607 2 9.49648 -7.93761 -3.30918 10
608 2 3.18751 12.8421 3.42731 13
609 2 13.527 8.03573 -0.224579 10
610 2 9.71942 4.63805 1.51556 16
611 2 -8.71094 -1.82016 -3.12746 17
612 2 -5.80396 5.99465 -2.9932 18
613 2 -6.36367 3.7233 -8.07066 18
614 2 13.8575 8.34454 -3.36484 8
615 2 -7.627 10.7338 -3.45826 13
616 2 0.893147 -7.43346 9.72246 15
617 2 2.3119 -1.47582 10.1078 16
618 2 1.77236 -10.1578 -7.88876 15
619 2 1.04499 -4.18143 -14.1112 8
620 2 4.09802 12.2279 -2.85231 13
621 2 5.0626 12.1069 0.826442 14
622 2 -6.75902 -2.12568 -7.99763 21
623 2 -6.47164 -7.83772 -4.0331 21
624 2 8.29454 2.037 2.30947 22
625 2 -5.67985 6.45692 0.315478 18
626 2 2.55384 -9.43497 5.04062 19
627 2 7.21755 -3.69466 2.41544 20
628 2 -4.60587 -6.59933 7.02484 21
629 2 -5.90004 -5.13317 -6.11106 19
630 2 0.503117 5.44074 11.1208 15
631 2 -1.06501 9.40297 -5.92445 23
632 2 -8.74065 9.43967 2.22286 12
633 2 -2.23597 -6.315 9.80186 18
634 2 -1.57358 13.881 0.0364294 11
635 2 -0.317811 -10.7458 -2.78843 15
636 2 -0.377339 -4.86812 6.87211 17
637 2 7.57842 2.21039 11.3816 11
638 2 -8.50353 6.22522 1.70025 16
639 2 -0.430098 3.87944 8.91544 18
640 2 -3.80789 -7.59749 -8.90353 20
641 2 9.28117 -4.92962 0.776181 16
642 2 9.05414 -7.30241 -6.64149 11
643 2 -3.93192 15.3342 -2.18684 9
644 2 -5.87827 0.922442 10.6104 14
645 2 -9.82452 3.44173 -6.85903 17
646 2 11.3116 -5.42665 -2.14398 13
647 2 3.9864 8.90582 0.688239 20
648 2 -4.25041 4.90214 6.13342 21
649 2 -1.27061 5.54605 -10.7982 16
650 2 -11.0626 0.315396 -7.4423 12
651 2 -6.6505 -5.0227 -9.17935 22
652 2 -6.41839 -0.288711 -12.4885 15
653 2 4.6493 -6.62586 -8.53328 22
654 2 -3.26726 -6.70002 -2.592 22
655 2 -1.1208 -9.51182 9.80009 13
656 2 5.42873 0.851767 6.78384 20
657 2 10.6839 -5.36717 -4.99125 14
658 2 -1.55565 -13.2616 3.11684 14
659 2 11.4669 9.60096 2.3961 11
660 2 -5.33365 9.71769 6.41521 12
661 2 -11.9175 -5.51434 1.73904 15
662 2 7.42462 4.36886 -2.80358 22
663 2 4.56162 -7.3647 5.47872 17
664 2 -7.69375 11.4809 3.75098 11
665 2 -8.26147 0.670321 5.24114 21
666 2 -0.250901 8.93996 -10.4977 14
667 2 9.59816 -2.15656 -12.4247 5
668 2 -5.5707 1.48685 7.3566 23
669 2 -2.38875 1.2747 13.9292 11
670 2 9.95255 -1.62411 5.65706 15
671 2 5.68404 1.0985 -9.80405 13
672 2 -6.39497 -1.87862 -4.59143 20
673 2 10.3086 -1.69259 -7.00112 12
674 2 1.72089 -7.36351 -9.53183 21
675 2 -10.0059 3.29605 5.55746 15
676 2 -8.94804 -2.75228 4.82792 23
677 2 3.48573 -10.8795 -1.8301 19
678 2 -1.62107 -10.0062 -8.00886 14
679 2 -4.85909 -10.1105 -0.0905937 18
680 2 10.6172 0.43532 0.737086 16
681 2 -3.59243 7.93285 -10.89 14
682 2 5.25685 10.6367 5.43748 11
683 2 -6.48651 -10.8243 -4.15037 12
684 2 -5.41421 9.29993 10.0013 10
685 2 -6.99046 8.05188 -8.26107 14
686 2 -0.683673 -7.01229 -7.70034 18
687 2 -8.33422 -8.70517 5.30328 17
688 2 -10.4566 8.29711 -2.95711 11
689 2 5.39674 7.2394 -9.77951 13
690 2 -3.99574 4.72046 -6.21713 22
691 2 6.84554 5.94246 -8.42212 15
692 2 -4.91663 -2.97857 -12.0267 13
693 2 2.00935 -6.71824 -6.38855 21
694 2 -11.9836 -2.65519 -6.35191 11
695 2 9.89333 7.40484 4.88443 14
696 2 -3.06245 0.176331 -11.4873 17
697 2 -9.92625 -8.10797 2.39616 16
698 2 9.43854 0.798902 9.92115 11
699 2 7.50707 5.44066 6.65231 18
700 2 10.8359 2.98784 -6.74407 13
701 2 -0.672106 6.03223 -6.22052 18
702 2 -2.21989 12.982 -3.00151 13
703 2 11.0563 -3.9962 3.49534 13
704 2 5.66164 9.66179 -8.56997 10
705 2 3.68601 -4.09545 12.8877 11
706 2 -1.29461 -7.61711 -10.6365 17
707 2 4.33113 1.94071 13.148 11
708 2 -1.53168 9.07815 2.2949 13
709 2 8.95171 -10.5809 -1.04279 9
710 2 7.40479 -5.56794 -8.15143 15
711 2 -2.72063 12.7237 6.03933 6
712 2 7.31717 -12.2189 7.66207 12
713 2 -2.64967 6.83899 -4.67967 20
714 2 -0.405699 8.07313 9.63635 16
715 2 -8.64095 8.38735 -5.15863 15
716 2 0.654955 12.2569 -4.8674 14
717 2 -9.20041 -4.67217 -6.82159 15
718 2 4.30831 -3.63929 -13.1954 10
719 2 -7.93947 4.42698 8.10931 17
720 2 9.98471 -1.90035 1.97802 17
721 2 -2.22632 10.5838 -8.50212 15
722 2 -10.7131 0.339529 6.71906 14
723 2 -9.01895 -9.99293 -3.35941 10
724 2 1.1983 7.49132 12.7099 9
725 2 1.91591 -7.51549 -12.4286 12
726 2 -5.7473 6.02471 -10.3441 13
727 2 -4.52537 -0.244935 -15.2542 6
728 2 -8.5176 9.61718 5.53054 10
729 2 -6.94202 6.7042 10.3009 12
730 2 2.69449 10.4648 -5.9391 18
731 2 -5.03106 -14.5273 -0.802154 9
732 2 9.0016 0.329205 -9.71586 10
733 2 6.32193 -3.56676 -10.0012 13
734 2 -7.42895 -10.4199 3.58985 15
735 2 -6.64918 3.56612 -4.87563 20
736 2 -11.1128 -8.13259 4.88182 11
737 2 -1.43076 2.66336 -12.3606 12
738 2 4.7572 -11.3212 5.5026 18
739 2 5.31778 6.79744 9.97789 13
740 2 5.71019 -4.89752 7.86358 15
741 2 -6.43063 -1.44517 8.93512 20
742 2 4.5709 4.70591 -12.0016 8
743 2 -2.67887 7.73591 11.4067 11
744 2 -9.13386 -6.74704 -3.32295 16
745 2 -4.4612 -8.80671 8.81629 15
746 2 -6.18551 -1.23151 5.68847 20
747 2 -8.27329 5.5832 -8.69291 13
748 2 -10.7066 -4.26183 -4.27604 14
749 2 -6.12856 13.5037 2.47016 11
750 2 8.44452 -8.9276 6.87576 11
751 2 11.8118 6.92649 3.39697 11
752 2 -4.18198 -11.5715 2.71639 16
753 2 -10.441 -1.16902 3.04008 19
754 2 -11.4147 1.7274 -2.71415 17
755 2 -3.20277 1.65023 9.12314 20
756 2 0.451674 -4.34955 13.1718 10
757 2 1.40151 -10.074 7.84612 15
758 2 7.49342 -0.971126 3.83574 20
759 2 1.65837 -9.08204 -1.25461 20
760 2 -3.29897 9.99029 0.659838 16
761 2 -6.0808 0.564047 -9.56607 17
762 2 -5.88949 -3.94954 6.6942 21
763 2 1.88944 -6.78355 6.89959 17
764 2 -2.55225 -3.93525 12.1036 16
765 2 2.42038 -6.32317 11.7016 15
766 2 6.70325 4.82221 -6.03613 24
767 2 4.82257 6.68382 3.58533 23
768 2 7.05131 -2.62362 -14.0705 6
769 2 7.89853 -0.669128 7.07279 19
770 2 10.4274 3.4149 -0.985726 18
771 2 8.5431 -3.43439 -4.42506 16
772 2 1.40717 10.958 7.84619 11
773 2 12.3826 -0.987731 4.73241 9
774 2 -5.26709 -5.64682 9.78169 16
775 2 0.341234 -4.02746 10.4448 21
776 2 -7.99904 -4.49072 9.63625 11
777 2 0.496796 -14.1093 0.515719 11
778 2 6.00223 -12.4824 0.0722419 11
779 2 10.7039 -6.86548 5.2975 9
780 2 2.09462 -9.8097 10.2072 11
781 2 -9.21953 6.20181 5.52723 14
782 2 9.63757 5.05254 -4.46977 19
783 2 4.37291 -6.131 -11.1921 12
784 2 6.50034 -8.30844 -8.51324 11
785 2 3.78221 1.66863 -12.3821 12
786 2 -5.08627 2.57679 -12.2543 15
787 2 7.27727 9.87761 1.16261 16
788 2 -9.66961 -2.27798 -0.117177 18
789 2 12.1251 5.80361 0.688116 12
790 2 -12.9405 0.0593636 -4.93913 11
791 2 6.28625 -9.6133 2.93948 15
792 2 4.76348 8.91979 -3.00613 20
793 2 10.6715 -0.321968 -2.13317 14
794 2 4.98934 8.20565 -6.18515 24
795 2 8.23238 -15.1034 6.00629 5
796 2 -12.813 -2.67178 0.208263 16
797 2 7.65648 -1.26851 11.2344 10
798 2 9.25082 -13.1498 3.69889 8
799 2 9.68955 7.84715 0.621404 22
800 2 -8.17388 1.97401 8.54008 18
801 2 -10.5869 6.07739 -6.08145 13
802 2 11.056 -2.69911 -0.400558 14
803 2 3.0199 -9.44968 1.65104 19
804 2 -3.39543 -6.97138 -5.98077 23
805 2 1.35021 10.3288 2.23093 18
806 2 5.79396 -9.85055 -0.299638 15
807 2 2.75846 8.17993 4.59034 19
808 2 -4.94748 -8.7289 4.52781 20
809 2 -0.670698 -1.84811 8.76858 20
810 2 -6.86014 7.37196 7.50341 18
811 2 -0.669903 -4.79661 -12.485 13
812 2 -8.55757 1.51284 -8.48722 13
813 2 -12.0816 -2.36781 6.72843 10
814 2 4.89774 0.632365 10.2229 17
815 2 -7.5171 -2.94472 -11.4477 12
816 2 7.93735 2.55155 7.99781 16
817 2 7.67687 1.82048 -3.87183 21
818 2 -3.61984 4.36339 -9.45474 19
819 2 7.69771 7.18747 -1.91013 19
820 2 -6.06543 -12.8897 1.85026 13
821 2 -4.56849 13.0748 0.278802 16
822 2 -0.167399 11.3325 4.68182 13
823 2 7.16766 -6.37078 -4.29697 17
824 2 3.92262 -9.57124 -6.59844 15
825 1 -5.7191 -1.10195 -2.90655 22
826 1 -6.46173 -3.78 -1.43129 22
827 1 -0.477383 -6.67225 -3.0837 20
828 1 -0.286539 -1.47022 -6.50259 20
829 1 -3.10993 -1.9791 -4.57837 20
830 1 -1.37955 -4.0408 -4.56162 23
831 1 -3.96053 -5.02211 -2.78481 23
832 1 -0.237068 -1.30483 -2.84509 21
833 1 -3.10645 -2.01858 -1.18254 22
834 1 -1.16464 -3.96682 -1.08832 22
835 2 -6.1541 -4.88896 -3.0921 21
836 2 -6.42375 -1.85825 -1.27907 23
837 2 -0.934687 -7.16477 -1.19351 20
838 2 -1.18015 -2.33922 -7.97941 18
839 2 -3.83582 -1.35606 -6.33917 22
840 2 -0.511817 -4.79965 -6.05611 21
841 2 -3.3493 -4.08403 -4.49378 21
842 2 -1.07555 -2.00915 -4.50883 22
843 2 -3.60839 -1.20499 -2.83525 23
844 2 -0.589074 -4.61187 -2.85973 21
845 2 -3.34294 -4.09974 -1.07405 21
846 2 -0.981457 -1.97241 -1.16303 21
847 1 -5.73346 -1.06822 0.370173 19
848 1 -6.68482 -3.62199 2.06208 22
849 1 -5.5597 -1.41487 3.7882 20
850 1 0.0770149 -6.69875 0.236179 21
851 1 0.336402 -6.52671 3.2382 19
852 1 -4.08748 -4.89907 0.544575 21
853 1 -0.247748 -1.24916 0.518675 21
854 1 -2.99453 -1.977 2.10471 21
855 1 -1.00087 -4.08293 2.12863 21
856 1 -3.79733 -4.38353 3.8206 21
857 1 -0.137818 -1.08269 3.81946 21
858 1 -2.93048 -1.63974 5.54448 22
859 1 -0.832674 -3.83637 5.20566 19
860 1 -0.144713 -0.855617 7.09521 21
861 2 -5.9595 -4.50651 0.405072 20
862 2 -6.35611 -1.67984 2.06953 18
863 2 -3.81917 -6.96227 0.666457 22
864 2 -0.723891 -7.36398 1.89064 20
865 2 -3.61888 -1.11667 0.483717 21
866 2 -0.182517 -4.64761 0.420325 20
867 2 -3.04284 -4.09011 2.04164 20
868 2 -0.889921 -2.02423 2.29725 20
869 2 -3.49073 -1.0509 3.77707 22
870 2 -0.0221936 -4.70973 3.76071 22