ITEM: TIMESTEP
6000
ITEM: NUMBER OF ATOMS
1000
ITEM: BOX BOUNDS pp pp pp
-30.0 30.0
-30.0 30.0
-30.0 30.0
ITEM: ATOMS id type x y z Coordination
1 1 -4.42565 -10.6783 -7.36434 12
2 1 5.34644 -9.95191 9.21297 8
3 1 -9.62984 8.09946 1.93112 19
4 1 -11.1613 4.81019 0.0360511 20
5 1 -2.47305 -9.39567 10.2475 14
6 1 -6.42972 1.5905 -10.17 14
7 1 -6.4717 -11.3205 3.98188 13
8 1 -1.55522 5.367 11.2556 18
9 1 -4.14566 10.5613 -9.40819 12
10 1 1.32335 5.95418 12.5866 12
11 1 -2.80932 0.795485 -7.97187 17
12 1 -3.53991 4.30007 13.0404 18
13 1 -1.31458 -11.4839 4.32607 15
14 1 -13.1824 1.57928 -0.247126 15
15 1 -10.1991 2.31989 -1.8464 21
16 1 -4.64541 12.5741 -1.74127 17
17 1 1.78531 1.46263 -11.9388 16
18 1 3.99527 -4.26196 -9.96334 15
19 1 -3.23202 -2.30697 13.3307 15
20 1 -9.78777 7.55581 -1.45916 19
21 1 -1.83399 12.7034 -0.183941 17
22 1 1.52686 -12.7733 2.34396 15
23 1 6.80759 -8.11524 -5.27633 11
24 1 4.48295 -1.12389 8.2748 20
25 1 -9.24982 9.5301 -3.56555 15
26 1 3.67263 7.46585 6.49116 22
27 1 2.45682 -0.755733 12.8226 12
28 1 -9.14488 -0.619963 2.98507 23
29 1 11.612 1.9965 5.84469 12
30 1 7.86927 -1.6775 -3.26178 19
31 1 1.56122 -2.12911 9.85167 18
32 1 -3.79152 -7.71075 -6.78526 18
33 1 -8.52988 13.0376 1.88478 12
34 1 -5.42318 8.5247 -11.8289 12
35 1 7.14248 -2.12296 -6.64307 20
36 1 5.1308 -6.66434 5.0896 19
37 1 4.45341 -7.73746 10.95 15
38 1 0.730207 12.4052 10.7965 8
39 1 -8.37844 -2.5983 11.0967 12
40 1 -9.60833 4.03747 6.28209 18
41 1 8.07797 -5.86248 -6.70159 16
42 1 4.94338 0.0904674 -12.1583 12
43 1 -1.14218 16.7275 2.32115 11
44 1 -10.3238 11.3873 -9.20341 5
45 1 -0.612181 13.619 3.00235 19
46 1 -3.15973 -4.70162 11.6686 17
47 1 -0.830653 -3.91772 -6.57832 19
48 1 5.27098 -6.51884 -8.28836 11
49 1 -3.93744 3.72767 10.0544 19
50 1 -12.6584 -5.50421 1.49371 15
51 1 -9.98722 -6.12358 -0.341487 17
52 1 7.75349 -7.5082 3.56828 17
53 1 -3.67048 9.55101 4.62246 17
54 1 1.3292 6.49365 -8.25102 21
55 1 9.18966 -9.87064 1.93106 8
56 1 -10.406 -8.00504 2.34758 15
57 1 3.0271 11.437 6.59414 18
58 1 -3.21662 10.1722 -6.38779 16
59 1 -2.08441 -3.02754 -10.1916 21
60 1 -3.93245 6.65537 -4.86485 18
61 1 9.92217 0.430277 -3.50342 13
62 1 4.77385 2.27292 -10.0795 17
63 1 6.43715 -10.3334 5.75008 13
64 1 -5.87362 4.71936 -5.22614 20
65 1 1.59579 9.33727 -3.07015 21
66 1 10.7219 9.48379 -2.01378 8
67 1 -3.48206 9.67902 -3.67672 21
68 1 -3.97589 -4.86957 -7.55683 19
69 1 -15.155 -4.46349 -1.27082 9
70 1 -3.84437 9.34935 10.5958 16
71 1 -0.515961 10.1108 -5.08054 18
72 1 0.48412 -6.02328 15.0198 8
73 1 -12.1674 -6.64646 4.75656 13
74 1 -4.51479 -9.57239 4.85771 23
75 1 9.91876 6.21484 -3.36331 12
76 1 1.7292 -7.75929 12.2706 12
77 1 -8.32512 5.12328 -0.310058 23
78 1 -1.15098 8.1089 9.40301 18
79 1 -3.14299 4.0742 -10.1808 21
80 1 -4.05272 -7.02396 6.32326 22
81 1 -9.38154 -7.1098 5.37802 13
82 1 5.51979 -6.85959 -1.81538 16
83 1 -3.38121 11.521 2.12979 18
84 1 -8.96526 -0.524913 -3.36432 18
85 1 -1.76026 -9.04602 2.51056 20
86 1 4.96368 4.45994 -4.96431 20
87 1 2.9228 2.8056 13.3172 11
88 1 -7.07136 6.33844 -11.1811 14
89 1 -10.0134 -4.40112 -5.86899 13
90 1 -8.24925 12.8237 -0.937625 12
91 1 6.45926 1.05503 8.60297 19
92 1 -6.13967 10.9032 -6.53873 15
93 1 -0.424696 6.66627 -10.6534 15
94 1 -11.7653 1.52129 6.90286 13
95 1 -9.34606 6.06095 8.51485 12
96 1 -1.40625 -9.77642 -7.15958 14
97 1 1.62331 9.37823 -7.04114 16
98 1 -0.701693 10.4723 1.09082 19
99 1 -12.1225 4.98328 3.68493 13
100 1 -1.13236 8.68818 12.3524 16
101 1 10.2139 0.481601 -0.169521 18
102 1 0.952968 8.80787 7.46036 17
103 1 -9.28942 7.69309 5.47872 15
104 1 -12.6468 -4.91199 -2.49026 14
105 1 0.526281 1.57458 11.4609 15
106 1 2.32809 -10.3716 -2.0582 16
107 1 -3.49046 -2.262 -13.0002 11
108 1 7.77242 0.856014 -5.22933 17
109 1 -12.5355 -3.56544 6.52982 14
110 1 -9.43648 -6.87399 -8.22138 8
111 1 -8.61492 -2.63452 -8.99319 11
112 1 -8.82475 1.17087 -8.3511 15
113 1 8.75581 1.06168 10.7473 11
114 1 0.527563 -3.24529 13.3375 13
115 1 1.66929 -7.56823 6.14486 21
116 1 4.25341 7.17966 3.02495 21
117 1 -6.96221 -5.85046 4.37397 21
118 1 1.45431 15.4151 3.15977 13
119 1 -5.43872 -3.84862 -10.044 12
120 1 -6.95389 -9.66825 -7.37935 11
121 1 -8.25168 -8.98997 -0.114941 16
122 1 12.3518 4.98707 7.61996 13
123 1 -9.21834 -2.58007 8.38459 17
124 1 -5.36792 -13.26 0.599166 10
125 1 -4.1056 -13.2143 3.09819 11
126 1 2.06422 -13.4251 -0.424104 12
127 1 -9.32277 6.64322 -5.09894 19
128 1 9.98012 6.263 7.19669 16
129 1 -6.42197 4.77822 -8.3251 20
130 1 -1.78855 9.60967 -11.752 9
131 1 2.25361 15.4606 6.58563 12
132 1 10.1009 -1.9984 5.21576 18
133 1 -10.2715 2.21176 4.31408 21
134 1 -5.94507 -3.21463 13.8501 11
135 1 -4.02796 12.4502 5.67749 14
136 1 -0.574101 -2.54112 -13.432 12
137 1 3.52362 -10.7268 0.839113 19
138 1 6.92124 -3.38558 -8.86566 17
139 1 -12.2998 -0.465398 4.81759 18
140 1 8.095 -8.34563 -0.721289 11
141 1 -4.28115 9.73947 -0.0921117 20
142 1 -3.73292 6.36039 8.36543 20
143 1 1.97757 -11.2643 8.96238 10
144 1 -1.45747 7.69174 6.34675 21
145 1 -7.40829 -3.3967 -3.60935 23
146 1 -3.96043 15.1221 3.43413 15
147 1 -14.0254 4.71534 1.52825 13
148 1 -7.16571 -3.22482 -6.87721 22
149 1 -6.96713 10.4666 1.19945 21
150 1 6.57479 -4.21985 8.62798 23
151 1 3.39319 -4.21025 9.95229 21
152 1 -0.444214 -4.15416 9.81249 20
153 1 0.793532 -10.7852 -4.77208 14
154 1 -6.0225 -0.283219 -8.07776 20
155 1 -14.1173 3.77521 -1.97777 12
156 1 -5.16772 -9.79244 1.43156 23
157 1 11.3229 2.69684 1.8202 15
158 1 -9.31437 4.75157 -10.2503 9
159 1 -8.01077 9.11179 7.59553 10
160 1 -7.98074 10.203 4.05445 15
161 1 -6.5515 8.00726 9.4381 15
162 1 10.4108 -1.95071 -5.63724 15
163 1 9.87999 -0.104595 -7.98672 10
164 1 1.42212 -7.66869 -3.62768 19
165 1 1.47548 13.2779 4.75287 18
166 1 -10.3526 1.30976 -5.3284 14
167 1 6.66746 -10.7284 1.61727 16
168 1 10.4067 -0.31202 8.29293 12
169 1 -14.9417 -2.6574 -3.54499 10
170 1 -7.52511 -8.68013 3.78004 19
171 1 -5.71474 14.0312 0.896417 15
172 1 -10.1837 10.4101 -0.0760502 12
173 1 -2.0745 -9.40923 -3.56044 20
174 1 3.55284 -9.29187 6.53314 17
175 1 -5.61461 -9.696 -1.89375 19
176 1 -9.16761 9.47614 -6.60311 15
177 1 -3.53451 -12.3102 6.24019 13
178 1 -3.15264 0.921552 11.9527 18
179 1 -7.5146 1.86912 6.29851 19
180 1 -13.7838 1.91786 3.32561 9
181 1 -1.89052 -6.57788 8.06726 20
182 1 -5.78769 -4.29344 10.9567 17
183 1 7.30186 -4.38056 -1.35581 20
184 1 4.49484 -9.01498 3.59558 19
185 1 -0.612117 10.9196 -2.26125 19
186 1 -7.64793 -5.34395 9.05645 14
187 1 9.53965 -5.55082 10.0932 11
188 1 2.11894 1.04537 -8.51949 23
189 1 4.05477 -6.33561 7.94411 20
190 1 -5.54319 2.07908 13.5891 10
191 1 0.521795 14.7363 0.122573 12
192 1 7.55978 -4.60328 5.00173 22
193 1 -3.75179 -12.4985 -2.03844 16
194 1 2.17344 6.28457 8.85317 22
195 1 -7.62565 4.77641 10.8403 16
196 1 -6.7726 -6.40148 -2.27824 21
197 1 -9.52409 -5.85744 -3.14829 17
198 1 -5.48475 11.4315 8.28192 10
199 1 -5.68459 -11.7742 -4.54908 14
200 1 -7.21582 -3.75848 6.52347 19
201 1 9.63093 3.09238 7.95609 17
202 1 9.42863 5.79156 1.84541 20
203 1 -4.49264 6.82928 -8.55622 19
204 1 -4.14708 8.14444 13.8648 10
205 1 -15.079 -0.64304 -1.47069 11
206 1 2.79672 11.5373 -5.21075 9
207 1 -6.0988 -7.14677 -8.88768 12
208 1 -1.97299 -5.38498 -12.4502 7
209 1 7.70831 8.76225 -2.99216 15
210 1 2.36917 12.1445 1.43649 18
211 1 2.28642 3.99604 -6.6643 22
212 1 -1.47032 -9.11923 6.08902 23
213 1 -9.07689 8.73505 -11.3088 8
214 1 10.4635 8.52123 2.21542 12
215 1 7.36532 -4.15242 1.91582 20
216 1 -0.407543 1.17939 -10.1278 19
217 1 0.85632 -9.29396 0.93153 18
218 1 0.330327 -8.46604 8.88699 18
219 1 -8.98339 3.69463 -6.63307 18
220 1 -1.36917 3.79258 -12.3022 12
221 1 -12.15 -0.713326 1.44469 19
222 1 10.9188 -3.16874 -3.35072 12
223 1 -6.26009 8.60597 -5.31557 21
224 1 4.27172 -6.78056 -5.05855 18
225 1 1.56559 3.94678 -10.2638 20
226 1 9.21947 -3.05259 -10.7937 8
227 1 -9.39653 -0.35127 6.24518 21
228 1 -2.95256 15.403 -0.0258096 13
229 1 -1.18071 7.41382 -6.66018 22
230 1 9.9242 7.0565 -0.272187 19
231 1 -2.53421 -10.3482 -0.223541 18
232 1 1.92334 -4.93722 -7.93044 18
233 1 10.0181 -3.49203 -0.121662 20
234 1 1.36301 -9.74628 4.16081 18
235 1 -10.6058 2.91961 9.71353 12
236 1 -7.72435 -6.43007 -5.77403 20
237 1 -1.22725 -1.18913 11.7168 16
238 1 6.45457 7.1587 -8.18477 11
239 1 -9.04152 12.024 -5.78396 9
240 1 -2.78505 12.4407 -3.76317 12
241 1 -1.6372 1.93228 9.69157 21
242 1 5.38178 -12.5462 -1.31661 10
243 1 4.41404 -1.12979 -8.27888 18
244 1 -13.2742 -2.69752 -0.0722125 19
245 1 -12.027 -1.38654 8.08102 12
246 1 3.89161 6.09669 0.0597917 19
247 1 1.17787 -7.72607 -6.58077 16
248 1 3.26622 -5.28073 13.0146 14
249 1 7.89467 3.4018 -3.27492 18
250 1 -12.4462 7.57534 0.970285 13
251 1 11.0504 -5.48366 -5.26245 11
252 1 2.10017 8.77658 10.8068 15
253 1 -0.509669 4.58156 -8.4444 19
254 1 4.11659 7.28522 -6.82498 21
255 1 0.639583 -4.81104 -10.5608 14
256 1 -4.637 -7.33149 -4.02835 18
257 1 10.0286 3.99648 4.78747 22
258 1 10.2884 -3.79188 -7.90768 12
259 1 4.17441 -9.31781 -3.33689 13
260 1 5.25297 10.6938 0.343435 11
261 1 -8.89219 4.90952 2.83767 22
262 1 10.3636 3.23863 -1.61227 13
263 1 1.04356 -4.69272 7.52829 24
264 1 6.84459 3.35542 10.8606 14
265 1 -6.14654 2.78032 -6.79484 19
266 1 12.6023 5.64752 1.87971 12
267 1 9.93521 -3.75394 7.57221 17
268 1 3.16619 10.9615 9.51618 13
269 1 4.62644 4.51502 8.17876 20
270 1 -6.32323 12.5903 -3.82813 13
271 1 -2.40206 -12.4521 -5.08841 10
272 1 -9.94919 6.67868 -8.35285 13
273 1 -3.85551 1.42259 -12.3894 13
274 1 -11.8989 4.11595 -4.69123 14
275 1 9.34504 -6.14907 1.78934 21
276 1 -1.02353 -11.5579 7.75319 14
277 1 7.02505 6.49429 -5.18757 15
278 1 13.0071 -3.45476 4.06437 11
279 1 9.45642 8.31346 4.8552 14
280 1 11.1743 -5.4938 4.7116 16
281 1 -4.95691 5.46219 15.3878 9
282 1 -9.76448 -5.05241 3.27272 22
283 1 -9.07948 -1.374 -6.83968 16
284 1 5.25056 0.724503 11.8487 13
285 1 -6.04303 12.3894 3.47845 14
286 1 7.57927 6.29193 4.26617 21
287 1 7.07471 4.38892 6.69477 19
288 1 -9.86836 0.139314 9.727 16
289 1 7.57847 2.13919 -10.1733 11
290 1 7.07734 6.92076 10.4873 9
291 1 5.96456 8.68042 4.66038 17
292 1 -1.18535 -2.89074 15.9881 7
293 1 -1.31805 6.04605 14.441 11
294 1 -7.28246 4.96223 13.7073 10
295 1 8.98228 10.4303 -0.0866551 10
296 1 2.48402 11.8147 -1.51829 14
297 1 -7.00461 -11.8954 -1.61065 14
298 1 -6.9005 7.53003 0.0502103 20
299 1 4.40635 6.9586 -3.35369 21
300 1 3.52364 2.27206 9.88946 20
301 1 5.05372 7.77035 8.84097 13
302 1 -0.258501 -1.32526 -8.02099 18
303 1 4.58221 14.4011 5.04332 11
304 1 -13.1831 -3.43362 3.39425 16
305 1 4.57268 -13.4602 1.08979 11
306 1 5.73788 9.2322 -5.26783 12
307 1 3.11672 -2.76287 -13.0886 9
308 1 4.80475 -4.21179 -6.36209 22
309 1 -1.96601 11.0587 9.34015 14
310 1 1.77531 -6.47227 9.79783 20
311 1 -7.47006 -9.0081 -4.29018 13
312 1 -6.39882 4.46168 7.96768 20
313 1 8.10438 -1.54377 3.39022 21
314 1 -1.16669 7.4825 -3.17358 22
315 1 4.79904 4.5053 -8.57631 19
316 1 6.71627 5.95808 -1.04921 20
317 1 1.7195 8.97429 -10.3116 11
318 1 -3.48838 -1.84397 9.92348 21
319 1 -4.22008 -4.28734 8.14844 20
320 1 -1.66602 -6.61159 -5.01706 22
321 1 -6.41844 9.98851 -2.25036 19
322 1 7.24846 11.549 5.27353 9
323 1 -10.041 -2.76044 4.87207 25
324 1 3.89129 6.15071 -10.117 13
325 1 -4.36102 -1.28014 16.2698 5
326 1 -12.1166 -1.11007 -2.29365 20
327 1 -7.0289 -6.1684 1.23067 22
328 1 12.5581 -5.20367 1.40039 11
329 1 7.72419 -12.5116 4.11931 7
330 1 0.613853 12.5122 7.83529 16
331 1 -8.63318 1.95792 12.364 15
332 1 7.49831 3.23551 3.40228 21
333 1 8.69556 -6.53756 -2.83432 14
334 1 2.42906 9.47747 3.61437 19
335 1 -1.4397 14.7074 5.37036 13
336 1 1.0345 -13.1572 5.6464 11
337 1 -9.15343 -0.577915 -0.31654 22
338 1 4.214 5.3772 11.2366 16
339 1 4.47977 11.5485 3.36407 15
340 1 6.43218 -4.8163 11.4429 16
341 1 9.78654 -7.06276 6.77746 9
342 1 7.27945 8.34963 7.08205 13
343 1 -1.01148 -6.57137 -8.56841 14
344 1 -6.00128 4.21086 -12.4064 10
345 1 -6.38568 -0.633244 11.9354 18
346 1 13.1028 3.80863 4.43504 11
347 1 1.5431 6.60685 -4.86298 19
348 1 6.12649 -3.16353 -12.3039 10
349 1 -8.84481 -11.1529 1.6064 11
350 1 0.986989 -1.52486 -11.0484 19
351 1 -4.94841 -4.69118 -4.90349 20
352 1 -0.723088 -7.06864 11.8007 15
353 1 7.41038 4.00007 -7.31182 13
354 1 -4.2365 9.34443 7.59844 18
355 1 10.3345 -3.33768 2.75787 20
356 1 -9.96378 2.40306 1.06329 21
357 1 12.5124 7.23549 4.86281 11
358 1 0.884465 3.73771 9.92224 21
359 1 -13.3349 0.995722 -3.78265 13
360 1 -3.20799 4.03357 -7.07602 20
361 1 11.4692 -5.91271 -1.74363 9
362 1 -10.231 -3.0024 -2.04026 20
363 1 -6.76136 -8.18191 7.26608 15
364 1 7.50348 -1.81113 6.88747 21
365 1 -13.2343 6.39788 -2.03579 8
366 1 -0.836412 10.2191 -8.81126 13
367 1 7.47139 -7.23199 9.36541 11
368 1 -6.03 -1.20847 8.48109 21
369 1 -4.52126 -1.05791 -10.4845 14
370 1 -5.26446 -7.1321 9.75624 19
371 1 5.06256 -2.4293 11.25 16
372 1 -1.42196 -13.1229 1.1328 15
373 1 6.95867 -0.625373 -9.79356 15
374 1 -6.99616 7.65688 2.88487 19
375 1 -7.22877 1.71541 9.77356 19
376 1 -0.64936 -11.9269 -1.847 16
377 1 6.99851 7.46366 1.62672 18
378 1 11.5531 -0.938431 1.9147 14
379 1 -3.85062 -7.61095 12.3175 9
380 1 4.08611 9.5335 -2.72 16
381 1 4.95721 1.88496 -6.59316 20
382 1 -9.18574 4.26099 -3.18418 21
383 1 4.79612 13.9431 8.59159 7
384 1 2.00357 9.22666 -0.0704792 23
385 1 -5.68997 6.92021 12.0047 14
386 1 8.40261 3.5768 0.114383 21
387 1 3.99016 -11.8234 4.48698 17
388 1 9.53273 4.68942 10.2766 10
389 1 7.47399 -4.72553 -4.58698 21
390 1 -6.95757 8.55497 -8.68199 19
391 1 -0.616609 10.5945 5.66088 16
392 1 -4.28879 -10.3199 8.43685 13
393 1 5.43268 -6.51858 1.7536 20
394 1 -1.18963 0.307906 -12.6879 15
395 1 -10.3225 -3.02566 1.33842 22
396 1 -7.196 6.62736 -3.26491 22
397 1 8.73399 -2.23627 10.4585 16
398 1 -10.6211 -5.21951 7.26063 12
399 1 9.74872 0.903372 3.26314 21
400 1 -3.55859 6.82258 -12.0547 12
401 2 -11.9161 2.02565 -4.61864 15
402 2 -7.16078 12.1758 -5.65896 14
403 2 0.506411 0.184778 -11.9715 14
404 2 -5.96117 6.25134 13.7931 12
405 2 -8.01504 -7.20732 -9.1687 8
406 2 2.45677 4.65322 13.3911 8
407 2 -12.0826 1.37638 4.47542 15
408 2 6.57627 4.57012 4.65344 21
409 2 -9.44962 -6.04047 -6.5224 11
410 2 -8.60124 1.42297 -2.96445 18
411 2 -4.91928 -8.89592 6.70858 19
412 2 5.08514 3.77091 9.93471 21
413 2 6.18311 -1.74479 -8.26446 16
414 2 -6.55848 12.0304 -1.89478 16
415 2 7.19089 8.16598 9.0774 11
416 2 -11.059 -3.33375 7.7993 14
417 2 -2.59388 -12.9014 4.45231 13
418 2 9.12187 -6.69638 8.68555 11
419 2 -8.23742 9.41572 5.73275 11
420 2 -7.38145 8.98618 -3.68181 21
421 2 -4.42117 7.96952 9.08511 20
422 2 7.84737 -3.72974 -3.01114 20
423 2 -1.98629 -4.81345 -7.67666 21
424 2 8.6244 0.677433 -9.54007 11
425 2 8.86738 10.0261 -2.19736 9
426 2 -1.67432 9.42663 4.63357 22
427 2 -5.9102 -10.9604 -6.45196 11
428 2 3.52708 -7.25286 12.6882 11
429 2 8.55668 -3.44396 3.51412 21
430 2 -11.5329 2.54297 -0.0704429 16
431 2 6.15145 7.24576 3.40148 19
432 2 3.13775 -10.0021 4.7936 19
433 2 -1.72307 9.31793 7.65763 20
434 2 4.32689 9.59121 3.73965 19
435 2 2.53624 7.57413 -3.21301 23
436 2 -9.33582 4.41113 9.59886 16
437 2 4.17498 1.00128 -8.4531 22
438 2 -6.93451 -1.25647 -6.79204 20
439 2 -13.7068 3.75431 3.38204 9
440 2 -10.8595 -5.97329 1.52893 19
441 2 1.49681 -6.69253 7.85172 20
442 2 -2.54649 -1.85326 16.8937 6
443 2 -4.17884 10.9019 9.49603 12
444 2 -10.0653 4.54607 1.46499 21
445 2 6.19068 -7.2572 -6.78989 12
446 2 10.2267 1.31677 -1.86686 14
447 2 -3.36344 -13.3155 0.936376 11
448 2 1.1364 4.63735 8.16591 20
449 2 7.94534 -6.82385 -4.68658 15
450 2 1.39355 -4.48675 9.52701 18
451 2 -5.01092 -6.27085 4.60529 21
452 2 10.3507 2.17117 4.50335 16
453 2 -5.67564 -9.19364 3.32036 18
454 2 12.551 -2.92149 2.42558 13
455 2 -4.96148 -5.42793 -9.06763 14
456 2 -10.0958 -4.9935 5.28335 21
457 2 -3.42363 -9.11397 1.43132 15
458 2 -8.16542 -6.6555 -0.519505 19
459 2 -8.06264 11.892 3.51593 10
460 2 8.12836 7.06327 -3.59314 18
461 2 1.35082 4.45286 -8.2532 22
462 2 -8.46727 4.04465 12.5489 13
463 2 -11.8461 6.51979 -0.562575 17
464 2 -3.46315 5.12471 11.2542 21
465 2 -12.789 6.11343 2.17596 12
466 2 6.71246 2.10695 -6.3817 17
467 2 9.96944 -7.09349 -1.23216 12
468 2 1.48082 13.2109 2.66345 17
469 2 -3.4313 7.2866 6.58132 19
470 2 10.0973 8.97336 0.188864 13
471 2 -2.43219 10.1866 0.921464 20
472 2 -0.454279 9.19191 -3.24558 19
473 2 1.01936 8.12508 9.23484 20
474 2 1.35461 -2.17467 11.8546 19
475 2 1.25677 -3.98817 -6.63559 19
476 2 -6.00004 3.71159 14.3376 11
477 2 3.58999 4.23489 -10.0144 17
478 2 -7.58918 -4.23974 10.3097 14
479 2 1.76853 -9.36456 -3.51751 17
480 2 3.82315 -13.5945 -0.779241 11
481 2 10.7237 7.66136 -2.17557 11
482 2 -9.70333 9.95616 -10.118 8
483 2 -0.546164 13.0111 5.02128 16
484 2 -10.2864 -1.10271 1.32746 20
485 2 0.868508 9.4168 -8.74729 14
486 2 -1.81943 12.8792 1.73414 22
487 2 -2.0441 7.73795 13.818 11
488 2 1.10449 -11.9296 -1.46696 17
489 2 -1.09862 3.64005 10.1962 20
490 2 7.38243 -6.9051 -1.477 17
491 2 4.03661 6.4947 4.90538 20
492 2 -7.3169 8.40625 -11.8275 10
493 2 4.54178 -4.24436 11.9353 15
494 2 -2.6621 -11.3304 8.20047 11
495 2 5.07224 -10.0319 7.41566 13
496 2 -4.65684 11.1098 -7.63313 12
497 2 -6.09034 -8.45249 -3.42701 18
498 2 -1.00075 0.473041 -8.38239 19
499 2 -3.02525 -8.15179 -4.90729 18
500 2 5.5291 8.21671 6.5314 17
501 2 -13.9654 -5.23178 0.0174414 12
502 2 -14.2726 4.19681 -0.144244 12
503 2 9.42272 -3.724 9.58765 14
504 2 -5.42243 -12.433 -1.00938 15
505 2 1.95022 -1.1283 -8.06643 18
506 2 -3.80731 -0.395495 -12.1709 13
507 2 -4.33606 -3.43867 -6.1689 19
508 2 -6.33409 -0.352208 10.0869 19
509 2 -6.99356 -4.2131 -5.24379 21
510 2 4.96925 -5.06107 -4.53119 21
511 2 6.58612 -1.23116 -5.05281 21
512 2 -0.531613 -2.05185 -10.1449 18
513 2 -0.701104 -7.38926 -3.50803 19
514 2 0.0765503 8.83547 -11.3331 9
515 2 3.543 12.3325 8.30713 12
516 2 12.4646 3.54529 6.21011 14
517 2 -12.4476 -2.67562 4.96416 16
518 2 -5.20617 -11.4463 5.67495 13
519 2 -1.23889 3.82931 -6.80472 23
520 2 -8.39076 -6.65287 3.31351 19
521 2 -9.15058 -1.24908 10.2161 15
522 2 0.352295 -11.436 3.58125 19
523 2 -13.2728 -0.373959 -0.690682 15
524 2 -9.49015 -9.40293 1.34395 12
525 2 -8.30199 -1.93844 6.13806 21
526 2 7.37013 -5.50781 9.97973 16
527 2 1.25659 10.5813 -5.55312 13
528 2 4.26738 11.7826 1.54399 14
529 2 9.61687 4.50374 -2.78807 14
530 2 -4.58584 13.0883 -3.72327 13
531 2 -14.0337 -0.888461 -3.29834 11
532 2 -8.94806 1.38449 -0.331173 20
533 2 -1.97146 -12.1276 -0.918762 14
534 2 -1.58995 -8.08649 9.00532 21
535 2 8.55982 -6.42527 5.5078 16
536 2 -9.67846 11.3942 -7.5251 9
537 2 1.88342 1.04809 12.828 12
538 2 1.18726 14.1093 7.1673 13
539 2 -1.26018 0.742695 11.2909 17
540 2 5.6251 8.53518 -3.41762 16
541 2 -5.18453 -8.82311 -7.95952 13
542 2 -10.2606 -0.929796 7.94147 18
543 2 7.17572 10.6977 0.566877 8
544 2 11.0718 0.796462 1.61798 13
545 2 10.6185 -4.9299 1.57503 18
546 2 -10.4072 -0.742147 4.46539 21
547 2 -5.52413 11.826 1.53998 21
548 2 -7.20369 9.13865 -6.88571 20
549 2 1.48659 1.91188 -9.98583 18
550 2 -9.00016 6.85976 0.0017801 22
551 2 -12.3689 -0.231407 6.78458 14
552 2 4.64209 -11.0631 -2.28289 11
553 2 1.44311 -8.65445 2.57023 20
554 2 -7.98848 9.10003 2.1719 18
555 2 -6.29117 6.6963 -5.10417 20
556 2 4.25033 -7.04863 3.31554 21
557 2 5.2317 7.11455 10.7488 12
558 2 -2.0989 2.02408 -12.3486 13
559 2 -2.25256 10.6214 -10.0473 10
560 2 4.66528 6.63367 -8.53888 15
561 2 -4.34229 10.2765 -1.94226 20
562 2 -6.77119 0.858449 12.7749 11
563 2 -4.03289 -3.708 10.0689 18
564 2 -13.7154 2.01256 -2.23854 13
565 2 -0.716601 6.55425 -8.50107 22
566 2 1.66854 1.92786 9.91156 17
567 2 3.65765 1.30742 -11.7304 12
568 2 8.69453 7.44578 2.76486 16
569 2 1.79734 8.17046 5.93714 19
570 2 -9.19684 -3.30869 2.94838 22
571 2 -2.18195 10.9183 -4.77272 15
572 2 -1.74562 6.2623 9.36759 22
573 2 4.83365 -10.5007 2.20352 18
574 2 -4.41916 -8.9071 10.0221 13
575 2 7.10341 -3.18997 10.9418 14
576 2 7.26991 5.80233 -7.12023 14
577 2 0.160602 15.7953 1.51156 11
578 2 -0.414881 -12.193 6.23284 14
579 2 5.10629 -8.29355 -4.31644 12
580 2 -2.43918 5.41463 -11.4622 14
581 2 0.683523 8.10396 11.9121 14
582 2 7.82926 -3.54545 7.07048 19
583 2 -5.2983 2.52643 -11.455 13
584 2 7.39561 -2.79621 -11.0333 13
585 2 -8.91277 11.717 0.590606 15
586 2 5.51944 -4.7742 -8.89491 18
587 2 -3.61272 2.4098 13.0781 12
588 2 -9.15163 6.31741 -3.19278 17
589 2 10.0429 -4.98624 -3.00667 16
590 2 2.57475 14.9405 4.70004 11
591 2 11.2114 8.26555 4.02148 11
592 2 9.05483 4.39167 6.60122 19
593 2 -9.78681 -0.59424 -5.1673 18
594 2 -6.39499 6.17746 -1.4462 20
595 2 -7.24878 4.26484 -6.32943 18
596 2 10.9668 6.69264 1.32427 14
597 2 -9.81723 9.50144 -1.61619 15
598 2 -2.31428 -8.37607 11.7513 12
599 2 3.68567 -2.25613 9.72697 19
600 2 -0.997901 -10.8758 -3.37471 17
601 2 -2.08342 -3.55682 -12.7001 12
602 2 1.40342 12.7708 -0.36038 17
603 2 5.73596 12.3737 4.60966 10
604 2 -9.38169 -3.26656 -7.26474 13
605 2 -6.64626 -10.8125 -3.07923 13
606 2 10.3347 -0.914585 3.67865 17
607 2 -6.281 9.32388 -0.493988 19
608 2 2.49772 -12.8344 4.43954 11
609 2 7.39225 -6.15907 2.25346 20
610 2 -3.98423 -6.11634 7.98509 21
611 2 -9.57953 -4.04728 -3.82432 21
612 2 2.29507 5.3739 10.5251 21
613 2 -3.09431 7.66969 -3.29385 22
614 2 -6.63433 6.82779 4.50724 18
615 2 -7.20864 -2.37151 12.4729 10
616 2 -2.88331 16.163 2.27526 13
617 2 0.400656 -13.5249 1.01367 11
618 2 -0.976095 -4.92484 7.72789 24
619 2 6.84801 1.13042 10.5733 14
620 2 -9.09947 6.78806 3.47613 19
621 2 -3.14422 5.34537 14.5315 12
622 2 -4.86946 -6.29676 -5.98309 19
623 2 11.7801 -4.23645 -0.725802 12
624 2 9.94141 -5.42009 -6.66771 11
625 2 -7.46021 14.0412 0.144835 11
626 2 -4.93203 -2.09338 14.7941 9
627 2 11.3568 -3.67975 -5.2198 8
628 2 3.86136 10.4988 -0.99548 15
629 2 -4.14764 4.48472 7.86423 19
630 2 -3.67153 8.92542 -11.9321 10
631 2 -10.1017 4.66911 -5.13528 16
632 2 -6.39167 -0.429642 -10.1452 15
633 2 -6.9624 -3.25005 -9.02699 17
634 2 7.22176 -4.1133 -6.51132 19
635 2 -3.62198 -9.83461 -1.99635 22
636 2 1.10421 -8.37595 10.6567 16
637 2 10.5021 -1.94698 -7.60559 11
638 2 -2.80913 -10.2609 4.0498 21
639 2 8.61321 7.05604 6.15037 17
640 2 -4.3305 11.2628 6.96982 13
641 2 -13.0517 -5.39152 3.47714 13
642 2 6.88394 2.86111 1.5685 21
643 2 0.324829 -8.86092 5.76198 23
644 2 -4.29674 11.2343 4.00093 16
645 2 -10.0949 4.09023 4.32848 19
646 2 2.01431 7.44917 -6.74958 19
647 2 4.28954 -1.36951 -13.0089 10
648 2 -3.16937 -0.967507 12.0621 17
649 2 10.9546 1.59925 7.76421 13
650 2 6.52285 0.650474 -11.0854 12
651 2 -12.0922 -2.90607 -1.80412 19
652 2 9.75389 0.278709 -6.03872 12
653 2 -1.40469 -5.39469 -10.5643 13
654 2 -11.8776 1.87645 8.70941 10
655 2 6.12699 -12.4157 0.565687 11
656 2 -2.74509 -11.0742 -6.57026 14
657 2 -0.964701 -9.83886 0.69652 19
658 2 10.3239 -1.65904 0.606927 18
659 2 -5.32529 8.71402 -9.8307 14
660 2 4.2959 14.8496 6.95856 10
661 2 -3.78817 -12.3848 -3.80854 15
662 2 -4.60702 8.4346 12.0129 12
663 2 -9.67044 7.65744 -6.8345 14
664 2 0.945244 -6.61296 -8.11149 14
665 2 -7.62114 -7.97937 5.47992 15
666 2 -11.124 9.09303 0.984201 11
667 2 5.66671 8.53774 -6.96182 10
668 2 -3.74548 7.26665 -6.77751 21
669 2 4.97366 6.59499 -5.14249 20
670 2 -4.14437 -0.514944 -8.52736 20
671 2 1.81638 -6.65392 -5.14198 19
672 2 -12.9765 4.89179 -3.21297 11
673 2 3.88916 6.36702 8.08675 20
674 2 -4.3606 4.89259 -8.54303 18
675 2 -12.3652 -5.50193 6.50755 11
676 2 8.86775 2.83214 9.75135 15
677 2 3.54594 0.894968 8.18022 22
678 2 8.14892 1.25254 -3.3255 18
679 2 -0.304956 6.50723 -4.9194 21
680 2 -2.14174 12.2379 -1.94787 18
681 2 11.0884 -3.49171 4.63721 17
682 2 4.33137 10.422 -5.39194 11
683 2 -0.495988 5.89119 12.8272 14
684 2 -2.027 -8.04261 -7.66197 15
685 2 3.98327 2.11896 11.7002 16
686 2 1.13941 10.6429 6.85026 17
687 2 9.27668 -8.21347 2.52385 13
688 2 8.77868 -3.69435 -8.96964 13
689 2 -0.470718 12.1624 9.49265 10
690 2 6.00122 -8.25434 9.70591 10
691 2 -4.66237 10.0673 -5.12631 19
692 2 1.68444 11.0291 10.9977 11
693 2 -9.48271 10.5726 -4.91396 13
694 2 -1.08291 14.7359 -0.398865 11
695 2 -11.1281 -5.82621 -2.04515 13
696 2 1.2837 -2.42107 -12.6739 13
697 2 -7.43525 3.84564 6.36075 20
698 2 12.5184 -5.43466 3.32836 9
699 2 -1.4138 9.42725 -6.91214 18
700 2 -9.1616 1.614 10.6458 15
701 2 -7.49031 -8.43435 -6.23052 15
702 2 3.7738 9.05945 9.46463 14
703 2 -3.9046 -2.89923 -10.5617 17
704 2 -9.27728 4.54667 -8.31039 15
705 2 -9.08715 6.84946 -10.288 12
706 2 -6.69443 9.95156 8.63347 10
707 2 -8.33501 7.63148 8.56874 12
708 2 2.57223 11.0023 -3.21933 15
709 2 -8.24834 -11.7451 0.0216954 12
710 2 6.41587 3.29338 -8.94758 15
711 2 4.13428 -2.38245 -6.83753 21
712 2 -10.7324 -7.76438 4.12277 14
713 2 -6.77757 3.9146 -3.38878 22
714 2 -8.42468 -4.37841 7.70189 16
715 2 -5.19253 5.89068 -12.1615 14
716 2 0.193192 -10.4022 8.53523 13
717 2 7.75368 5.24471 10.6789 10
718 2 4.78386 -4.50916 7.89704 21
719 2 -6.85428 1.12576 8.04366 21
720 2 2.32662 7.08234 -10.0099 16
721 2 -1.69292 9.67242 10.8429 16
722 2 -9.62152 -4.02984 -0.466952 24
723 2 -6.92231 -7.07267 8.75049 13
724 2 -9.09714 1.46884 2.913 22
725 2 -6.51329 6.51461 -9.07158 18
726 2 -14.2682 -4.3772 -3.0624 10
727 2 -5.42318 14.1884 2.72765 15
728 2 3.63601 -6.27716 9.94986 20
729 2 12.8601 5.70061 4.08788 10
730 2 -5.83573 -12.2001 2.38687 15
731 2 -12.5814 -2.67852 1.72889 18
732 2 -13.0178 0.943001 2.03638 14
733 2 -3.60243 1.88933 9.87312 19
734 2 0.244141 -4.3328 15.7254 7
735 2 -2.09439 -7.32799 5.74714 19
736 2 7.823 1.44094 3.6236 20
737 2 2.46858 -9.41826 -0.117389 15
738 2 -5.69304 6.81047 1.57414 21
739 2 -6.67619 1.7701 -8.38027 18
740 2 -1.52278 -5.65501 10.8445 19
741 2 -4.37009 -3.88891 12.882 14
742 2 1.61518 -5.18755 13.5475 11
743 2 4.29251 3.97391 -6.87992 22
744 2 10.651 5.15006 8.71582 11
745 2 4.4651 -3.71725 -11.7744 10
746 2 6.27635 -1.02277 8.21436 22
747 2 12.7803 3.6725 2.4724 12
748 2 10.2105 -1.36776 -3.73836 14
749 2 -0.519594 15.8052 3.96069 14
750 2 9.92416 -1.90334 7.32603 14
751 2 -4.7692 -6.0195 11.4455 15
752 2 -1.23778 -2.21211 13.3395 14
753 2 -5.91923 -3.06778 7.80103 20
754 2 8.50887 -11.3888 2.74572 9
755 2 6.25945 -8.55236 4.816 18
756 2 11.0738 -5.52157 6.65483 14
757 2 0.445072 -7.34816 13.6043 10
758 2 -9.52066 6.15398 6.63057 13
759 2 6.99672 4.58184 -4.55371 20
760 2 2.09318 -4.07593 -9.73353 16
761 2 3.67021 -5.54234 -7.0928 17
762 2 -0.113543 4.76906 -10.8271 16
763 2 -7.69346 4.39216 -11.0783 11
764 2 7.38641 9.64314 5.52132 12
765 2 -10.1604 -0.967251 -1.96334 17
766 2 9.09892 4.43107 3.16181 19
767 2 3.74363 -7.17243 6.34325 19
768 2 0.510484 9.92374 -1.13694 22
769 2 10.3578 3.34352 0.303089 18
770 2 4.93628 5.72969 -1.61359 21
771 2 3.32896 -9.93528 9.74067 13
772 2 -15.4589 -2.40972 -1.66129 11
773 2 9.49329 -0.466383 9.96521 12
774 2 5.96471 -12.0021 4.69936 11
775 2 11.7781 6.78258 6.70142 12
776 2 -6.42693 3.56795 9.7732 16
777 2 -9.40391 4.04309 -1.33265 20
778 2 8.14782 -3.62637 0.301323 21
779 2 3.08052 -12.4664 1.39885 16
780 2 -8.22545 -6.91978 -3.88939 15
781 2 1.46799 10.196 1.74436 18
782 2 7.74544 -9.40192 0.654966 14
783 2 3.10394 12.097 4.67209 18
784 2 -8.02786 -10.4426 3.19303 16
785 2 -1.0185 -2.34447 9.8682 21
786 2 -6.81247 6.41486 10.619 16
787 2 -1.86957 -1.19713 -13.4846 13
788 2 -9.76702 1.90182 -6.95163 14
789 2 -9.81807 2.0493 6.61264 19
790 2 4.42611 -0.972691 12.3914 11
791 2 -8.71472 -0.674721 -8.7399 13
792 2 6.50838 2.65883 7.12875 19
793 2 7.04737 3.78117 -1.17357 19
794 2 -1.73294 2.70979 -9.91868 21
795 2 8.04221 6.51801 0.128632 20
796 2 -6.29101 -9.22975 -0.0380212 22
797 2 -4.23345 14.1125 -0.195513 15
798 2 -3.35142 14.1596 5.16301 12
799 2 4.78265 -7.44268 -0.0546386 19
800 2 0.146492 -9.48463 -6.15715 15
801 1 -6.13843 -0.65825 -5.09785 21
802 1 -6.20529 -1.47582 -1.61676 21
803 1 -7.65804 -3.94716 -0.353162 21
804 1 -0.846549 -6.79131 -1.73944 16
805 1 -3.74341 -7.57902 -0.0652308 20
806 1 -3.5721 -1.95794 -6.8054 22
807 1 -0.541002 -0.817502 -4.73144 23
808 1 -3.45485 -1.71467 -3.41566 21
809 1 -1.57512 -3.73485 -3.26728 20
810 1 -4.68212 -4.59373 -1.68511 20
811 1 -0.522801 -1.02463 -1.52579 23
812 1 -3.5638 -1.65755 -0.0723512 20
813 1 -1.60542 -3.7516 -0.278145 21
814 2 -7.07927 -1.38839 -3.38937 23
815 2 -6.83174 -4.47944 -1.93713 21
816 2 -7.46357 -1.75395 -0.227769 24
817 2 -4.60232 -6.57462 -2.00205 18
818 2 -1.95576 -6.83814 -0.289206 20
819 2 -1.43084 -1.91913 -6.43085 21
820 2 -3.98766 -0.676385 -5.1855 20
821 2 -0.980148 -4.78234 -4.83515 20
822 2 -4.0148 -3.61405 -3.31568 22
823 2 -1.34175 -1.91999 -3.39989 20
824 2 -4.43007 -1.12321 -1.64502 20
825 2 -0.560774 -4.49366 -1.85129 20
826 2 -3.72049 -3.59097 -0.363798 22
827 2 -1.48022 -1.85799 -0.0681524 21
828 1 -6.37424 -0.743443 1.33944 22
829 1 -7.122 -3.22045 2.75047 22
830 1 -6.67182 -0.99519 4.95508 22
831 1 -1.23331 -6.29142 1.45932 23
832 1 -4.13809 -6.95907 2.92959 22
833 1 -0.99051 -6.32961 4.64553 20
834 1 -4.6846 -4.39746 1.47199 20
835 1 -0.624787 -1.49593 1.65044 20
836 1 -3.67268 -1.31455 3.43933 22
837 1 -1.99198 -3.90658 3.18725 21
838 1 -4.72493 -3.96569 4.71032 22
839 1 -0.57376 -1.12007 4.69193 21
840 1 -3.46377 -1.63215 6.68331 18
841 1 -1.85132 -3.82262 6.3379 23
842 1 -1.13634 -1.10374 8.33964 19
843 2 -6.63234 -4.32817 1.23787 21
844 2 -7.28041 -1.18096 3.1834 21
845 2 -6.80381 -3.84415 4.61149 20
846 2 -4.6721 -6.33433 1.25328 19
847 2 -1.97235 -7.07261 3.08257 22
848 2 -4.48042 -0.881613 1.46892 21
849 2 -0.681317 -4.47456 1.37522 20
850 2 -3.78947 -3.84167 2.974 22
851 2 -1.735 -1.97375 3.14881 22
852 2 -4.67731 -1.33862 5.13394 23
853 2 -0.81526 -4.23354 4.77846 20
854 2 -3.75588 -3.55901 6.28361 21
855 2 -1.43454 -1.76803 6.46482 21
856 2 -4.05589 -0.887818 8.41101 20
857 1 -6.93681 1.84134 -3.58748 20
858 1 -5.90018 4.28072 -1.60361 19
859 1 -7.03832 2.05768 -0.353873 23
860 1 -0.247059 2.1128 -6.96694 20
861 1 -3.8389 1.25736 -5.17943 19
862 1 -0.451302 4.3796 -5.01201 21
863 1 -3.14501 3.8381 -3.59756 20
864 1 -1.13239 1.72417 -3.64189 19
865 1 -3.95191 1.13338 -1.91031 21
866 1 -0.590997 4.3864 -1.47952 19
867 1 -3.6061 3.64553 0.174418 21
868 1 -1.27236 1.64011 0.115117 19
869 1 -4.20771 6.88026 -1.78937 21
870 1 -1.61683 7.77474 -0.284802 21