ITEM: TIMESTEP
7000
ITEM: NUMBER OF ATOMS
2000
ITEM: BOX BOUNDS pp pp pp
-30.0 30.0
-30.0 30.0
-30.0 30.0
ITEM: ATOMS id type x y z Coordination
1 1 -11.934 3.88615 -11.5777 16
2 1 -7.04251 -11.8029 -6.0496 15
3 1 -0.277848 13.1629 16.6619 10
4 1 9.06169 -10.9897 7.84062 11
5 1 -9.48311 9.98692 -1.44446 16
6 1 13.193 -6.6026 -8.3414 12
7 1 -9.42921 5.11251 -3.19806 18
8 1 -0.794643 -7.47661 12.6033 9
9 1 -9.67888 -1.33264 -7.69609 19
10 1 -12.483 -10.9555 6.3671 19
11 1 12.7003 7.07262 -8.62657 14
12 1 -5.30845 -12.0425 3.08944 22
13 1 -15.8316 -9.20654 5.49671 11
14 1 -2.13367 3.18971 18.1776 14
15 1 2.56385 4.52724 9.88023 20
16 1 -3.27967 10.3345 -10.1764 22
17 1 3.08891 -0.237511 12.0912 18
18 1 -10.2017 1.25767 -13.346 15
19 1 -15.6099 -1.55507 10.9888 15
20 1 10.5502 5.3779 7.68056 18
21 1 -0.662018 9.47029 -11.9332 20
22 1 2.22689 8.33715 -15.8591 12
23 1 15.848 1.53948 12.5727 8
24 1 -11.4789 6.64473 -7.86397 16
25 1 -10.224 9.91191 11.7862 13
26 1 7.11399 -13.0077 5.82496 11
27 1 2.5973 -12.611 -8.3938 13
28 1 7.40637 -12.1106 2.33125 16
29 1 -7.46236 -13.5164 -3.48909 12
30 1 -16.9016 -4.79483 11.3361 12
31 1 1.84138 -6.39903 -5.86597 22
32 1 10.109 -7.21283 -7.75785 19
33 1 -3.31212 7.67165 -18.0675 11
34 1 -0.840077 4.59674 15.2428 18
35 1 -1.24226 -9.80758 10.1418 15
36 1 7.02768 -4.46472 13.9852 16
37 1 -12.8341 0.353026 2.25516 18
38 1 -13.9099 1.37326 10.1302 17
39 1 -11.0426 0.500891 0.177526 17
40 1 -1.97271 14.8625 -3.42136 16
41 1 -0.717889 -11.8422 -10.5421 12
42 1 3.08977 1.3436 -11.5715 19
43 1 4.18167 -3.47093 -9.58937 18
44 1 -4.92829 -2.27317 15.8245 14
45 1 -11.9337 9.13697 0.438432 16
46 1 2.7393 11.1625 -12.6263 14
47 1 -4.34247 9.33499 10.8355 19
48 1 -8.57553 12.0083 -3.4381 17
49 1 0.625199 14.6225 -1.13904 21
50 1 1.03069 -11.5025 3.70267 20
51 1 5.15914 -5.59354 -3.96325 19
52 1 2.8293 -4.83794 -12.0845 16
53 1 -10.0838 8.09982 14.4905 13
54 1 -14.3922 -3.14562 -8.70718 13
55 1 -3.70091 10.5866 -3.7199 21
56 1 -5.66669 -8.50747 8.39505 21
57 1 -3.99924 10.0514 15.2421 17
58 1 -8.09632 7.18346 -7.86116 17
59 1 -7.20487 9.20077 11.8383 16
60 1 -5.59552 -15.9565 10.8141 10
61 1 4.9712 5.19947 8.33764 19
62 1 7.71489 -14.5583 -2.65798 9
63 1 6.26862 13.1842 17.2899 12
64 1 -14.9191 2.63715 -8.20281 10
65 1 -12.1763 9.72351 -7.66945 12
66 1 4.56958 10.3733 12.9575 18
67 1 12.3975 -4.36057 -7.74168 20
68 1 10.3936 -11.6893 5.1392 10
69 1 -17.4016 -3.36405 7.61326 17
70 1 5.3344 12.5319 4.94988 17
71 1 4.55493 -2.12528 15.0936 16
72 1 -8.09012 -8.30552 6.63063 19
73 1 -12.9021 1.04746 -2.43009 19
74 1 10.3713 2.69281 9.90256 19
75 1 -0.753161 15.9705 10.7687 13
76 1 4.62466 -0.341281 8.63397 18
77 1 -1.73872 -5.4068 -5.03355 19
78 1 -13.4896 8.06555 9.26975 14
79 1 -8.33146 13.1957 -0.542039 20
80 1 -4.07647 7.97873 -8.94374 18
81 1 7.66766 -1.0277 -2.81935 22
82 1 7.36811 13.9045 -6.60715 20
83 1 7.92956 -3.88955 5.21979 20
84 1 7.35304 -8.1869 8.80502 17
85 1 -4.27898 13.4269 -5.20554 19
86 1 -5.22197 16.4487 6.69372 13
87 1 -11.0492 -0.999328 16.1211 13
88 1 -4.6645 7.71346 8.45008 20
89 1 -6.76467 -4.66012 16.3302 9
90 1 15.0704 -4.33449 -2.88854 10
91 1 -13.3406 3.58816 3.1494 15
92 1 -11.6153 -12.8751 4.91084 16
93 1 10.5975 -7.22826 -4.24341 19
94 1 1.76407 -1.6442 -12.9299 16
95 1 -5.08226 -1.73207 -13.4278 20
96 1 -0.273797 11.7588 1.1178 17
97 1 -5.44588 12.273 -8.3618 19
98 1 3.8852 9.62885 19.6789 12
99 1 -1.61309 17.4169 -5.86867 18
100 1 -11.9995 13.0403 3.07176 11
101 1 3.18007 11.0228 3.01126 19
102 1 -6.68239 -4.26295 13.1093 19
103 1 10.3063 0.21554 11.6441 18
104 1 3.64741 -3.57671 -5.9047 21
105 1 5.34051 -6.22836 -6.83931 19
106 1 -3.77718 5.00256 9.88158 23
107 1 8.82942 0.611622 17.7771 6
108 1 -15.9984 -6.31628 0.33601 16
109 1 -9.69737 -6.0953 -4.03357 19
110 1 10.6639 -8.42484 6.97303 14
111 1 -7.40524 8.16967 3.58228 17
112 1 7.3233 7.84319 -12.8297 12
113 1 4.41201 18.4044 -0.374834 17
114 1 -10.5245 -11.9709 12.7753 10
115 1 -11.5076 -14.9034 11.2064 8
116 1 4.71224 -6.12235 -10.3757 17
117 1 4.64347 7.15562 -6.09963 20
118 1 13.1647 -9.37066 0.460315 9
119 1 -5.2472 -14.2259 8.11995 16
120 1 -11.211 -6.61454 -0.71986 15
121 1 17.1538 7.89872 9.27343 10
122 1 13.8637 -1.96868 -9.00547 9
123 1 -16.6925 -4.09184 2.51456 19
124 1 13.964 12.0961 6.8041 19
125 1 14.6596 10.8948 3.66085 16
126 1 -7.60178 3.65351 18.5776 13
127 1 0.449606 8.24123 11.6043 18
128 1 -2.94221 10.8205 -6.92195 20
129 1 -2.21088 -8.80516 -6.62866 22
130 1 8.80994 -10.2259 -7.10546 13
131 1 1.22796 15.364 -6.74803 19
132 1 6.2397 -5.11759 10.4878 22
133 1 -0.251574 0.112614 -15.8783 14
134 1 -1.85954 8.07755 -6.73638 20
135 1 9.72238 1.95355 -2.30755 19
136 1 -12.5115 8.96741 -4.16577 13
137 1 -6.664 15.8254 -0.0911115 16
138 1 5.67766 5.47659 -7.89657 21
139 1 6.00427 -10.1689 4.42643 21
140 1 -5.78507 9.71733 -6.69543 18
141 1 -5.99186 14.5941 9.61606 12
142 1 12.8365 10.3036 -6.80506 9
143 1 3.03988 12.1893 -2.00476 22
144 1 -3.18127 16.2729 0.445506 18
145 1 8.7808 10.2253 0.520266 21
146 1 -0.385145 10.0847 -5.56336 24
147 1 0.531154 15.6347 -11.4954 10
148 1 0.101335 9.93449 -14.8962 18
149 1 -12.9762 -10.023 3.72686 17
150 1 -12.8497 13.0218 -4.15473 7
151 1 -7.61824 -3.01036 -10.4443 21
152 1 2.84999 -7.82198 -11.5883 15
153 1 10.9676 12.4473 7.75693 14
154 1 -3.16239 16.7727 9.07592 13
155 1 -12.3913 -0.251567 -5.15163 17
156 1 -9.29314 12.0268 4.34182 10
157 1 14.0527 4.06761 -1.40128 14
158 1 -11.4443 6.75352 -13.1968 9
159 1 4.44401 2.27916 17.5989 18
160 1 4.33207 18.6651 3.39914 10
161 1 -0.748831 10.0954 14.9706 20
162 1 -0.452948 -7.06769 -12.0827 14
163 1 -3.02065 13.6478 11.0456 16
164 1 -0.773369 13.1438 -7.10314 18
165 1 3.30745 -4.97617 13.2074 15
166 1 -14.2028 -4.41971 5.35256 20
167 1 -3.39555 -10.2274 -10.6441 13
168 1 -6.21014 16.0269 -6.2121 13
169 1 -3.90522 -5.56481 6.51724 19
170 1 3.3621 -14.0105 -3.39043 15
171 1 -5.56407 10.1182 -12.5922 15
172 1 -15.766 3.10648 8.82249 16
173 1 8.46112 13.5865 -1.04043 15
174 1 -7.76354 3.83445 15.0165 16
175 1 0.915868 -5.7278 10.5266 22
176 1 -8.89998 4.6065 -0.226402 19
177 1 1.02264 18.925 2.13183 13
178 1 3.98261 8.33616 10.0864 18
179 1 14.9738 4.84727 12.8968 14
180 1 -3.41149 17.226 4.58906 19
181 1 10.48 -2.07571 -5.27009 21
182 1 -4.96995 12.0718 12.3537 15
183 1 -4.53891 1.94419 -8.59522 18
184 1 13.882 -6.23009 2.96889 12
185 1 -7.88967 -3.11978 6.3956 21
186 1 -17.904 -1.90405 2.48535 10
187 1 -9.95652 -6.0539 5.98541 23
188 1 8.58797 9.35716 16.3121 18
189 1 -15.2938 -0.267502 -3.25289 14
190 1 0.675698 -15.5849 0.0256894 19
191 1 3.59859 -5.8884 -1.68868 19
192 1 -5.16631 13.0027 1.08337 17
193 1 3.88128 12.223 14.8044 16
194 1 -10.3579 2.17457 -4.81453 19
195 1 -7.54946 14.5059 -9.23216 11
196 1 -11.2735 1.57335 -7.81183 19
197 1 -9.17301 -0.313246 9.63009 23
198 1 -2.19682 -8.1845 6.7348 19
199 1 1.6636 -8.69032 9.10151 18
200 1 -12.185 11.9824 6.60783 10
201 1 15.6906 7.98285 4.72674 14
202 1 4.5847 4.71297 -4.58236 20
203 1 -7.43046 -6.03631 -12.1967 13
204 1 3.31563 3.69134 12.8262 19
205 1 3.81753 -13.3508 6.66466 14
206 1 -3.93337 7.53312 -11.9937 18
207 1 3.36812 -10.1801 -10.3552 12
208 1 8.38219 3.32801 -9.6214 19
209 1 -0.474566 6.67472 -17.0812 15
210 1 -10.3555 -6.40043 -7.00711 22
211 1 -2.5382 20.5215 -6.10624 10
212 1 -11.2696 -8.46898 11.4546 16
213 1 7.16896 16.349 0.562587 19
214 1 -11.2459 2.7282 17.4276 10
215 1 -3.84871 14.4031 -8.26555 19
216 1 4.11355 1.93765 10.3272 20
217 1 -4.64265 -3.85411 -8.4812 20
218 1 -1.37344 16.1849 -9.01475 18
219 1 0.186334 4.00238 -11.2751 20
220 1 -8.97224 -11.4648 10.4511 22
221 1 -9.70223 4.49576 9.77776 21
222 1 -8.58089 7.24716 12.7435 18
223 1 0.563624 -9.2112 -4.88354 20
224 1 -3.75528 -14.4046 2.11859 16
225 1 9.75648 -10.1093 1.74597 19
226 1 13.4424 8.10006 14.2726 11
227 1 4.06189 15.0741 -7.35668 19
228 1 -0.620334 11.6767 -2.07501 18
229 1 -16.4733 5.9622 3.45768 7
230 1 -11.5457 12.7758 -0.750058 15
231 1 5.84607 5.45223 11.5507 17
232 1 4.07419 -16.2791 1.73703 13
233 1 9.7737 1.03279 0.860018 21
234 1 3.55606 7.52844 6.97104 21
235 1 -9.73447 4.84577 6.78474 20
236 1 -15.9142 -7.5709 -4.18129 15
237 1 5.93418 5.31336 -11.0325 17
238 1 1.97799 -1.1972 9.58692 21
239 1 8.33574 11.5409 -9.58948 14
240 1 5.76827 -11.2226 -3.09421 18
241 1 -4.57237 1.27376 -11.6057 18
242 1 0.540066 -13.3816 6.11989 17
243 1 6.60637 2.39554 -4.50202 22
244 1 -9.79726 -0.51096 2.98842 17
245 1 4.53856 -15.8662 -1.46987 11
246 1 -11.0162 -3.3626 -8.95319 21
247 1 2.30832 16.6302 2.72327 14
248 1 -0.154061 0.316309 -11.7881 19
249 1 1.35411 3.39831 18.5301 13
250 1 14.5109 4.48735 3.71075 12
251 1 10.994 -2.32656 -10.6224 14
252 1 -7.61661 -0.0634959 -12.186 19
253 1 -10.6724 -1.31738 -10.9701 21
254 1 -8.78985 -15.1581 11.7709 11
255 1 7.13142 -0.580791 10.6245 18
256 1 3.5747 -4.44895 9.69703 21
257 1 -9.96667 -6.62018 -10.3848 15
258 1 4.28151 7.33298 -13.3212 18
259 1 5.0802 11.0134 0.351315 19
260 1 -11.5184 -6.55474 3.50176 15
261 1 -0.0419171 14.8218 2.04658 17
262 1 -6.89384 -0.541125 11.6408 19
263 1 -13.396 -7.51697 -6.9096 13
264 1 -7.16005 -6.34423 -9.06169 24
265 1 -4.29095 10.0286 -15.9506 14
266 1 -6.97534 -8.11038 -3.61918 17
267 1 -4.66404 -9.34742 5.49266 20
268 1 7.81591 -1.67266 -13.8605 17
269 1 11.378 3.67629 -7.45899 19
270 1 11.2861 3.80686 4.8107 20
271 1 -10.7363 -4.065 11.0449 17
272 1 -4.56235 -9.33175 1.44781 18
273 1 6.60864 8.1011 18.7092 14
274 1 -8.22515 -13.8429 7.75917 20
275 1 -2.63654 -11.2226 1.3479 22
276 1 -0.127112 20.1407 -1.11939 14
277 1 6.18525 4.26528 -14.4018 12
278 1 -8.27629 -3.24531 -13.1808 17
279 1 -14.6289 -7.20486 11.8014 10
280 1 4.3295 7.81022 17.0879 17
281 1 0.253102 -8.98071 2.15845 19
282 1 -6.00031 -11.2429 -9.26817 11
283 1 -8.76092 10.3133 -7.13566 16
284 1 6.1949 7.94192 5.41408 21
285 1 -3.49759 4.63183 -10.1089 20
286 1 -3.3043 11.4531 -13.1759 16
287 1 8.48142 -9.90795 -3.56186 17
288 1 -4.60777 16.223 -2.51369 16
289 1 0.535139 12.8309 10.6313 15
290 1 10.1154 1.22635 6.812 19
291 1 -10.675 2.03622 4.6418 18
292 1 -3.72548 -4.56736 13.5933 15
293 1 -6.79901 10.4523 5.20901 14
294 1 0.877678 -3.49452 -7.93871 22
295 1 11.2182 11.6695 -1.54228 13
296 1 2.95316 -8.55045 0.295403 21
297 1 -2.32275 -1.48763 14.5037 15
298 1 -18.8443 -4.34402 4.99353 11
299 1 2.96261 -11.3867 -1.28207 19
300 1 -6.99037 10.0448 14.766 12
301 1 -11.1561 5.62376 15.4384 13
302 1 -18.7008 -2.36138 10.5541 8
303 1 -12.5821 -5.46326 7.97176 19
304 1 13.6784 -1.94337 -1.04282 19
305 1 -13.4362 -8.50876 9.00151 18
306 1 7.92226 -0.773053 -5.95714 19
307 1 9.2962 -11.8551 -0.846536 14
308 1 2.70266 19.8942 -2.86435 13
309 1 -5.29738 18.5509 -4.85073 12
310 1 9.84511 10.3832 11.0158 17
311 1 -10.8528 -3.17726 4.38542 19
312 1 6.32534 -7.92508 -2.57329 19
313 1 -4.72861 13.465 4.83691 17
314 1 -6.89904 5.17888 8.28199 22
315 1 4.10882 -8.47308 6.67094 24
316 1 15.1924 -3.43446 5.45565 11
317 1 -1.91208 5.27705 12.0652 21
318 1 -8.03132 -2.88944 -3.64403 20
319 1 2.67271 5.47638 15.7611 21
320 1 -3.95227 10.3257 7.04558 17
321 1 11.4288 8.98891 16.9766 11
322 1 -4.0215 17.6637 -7.73287 11
323 1 -0.518798 -3.08885 -14.736 13
324 1 5.64362 -6.74288 -12.868 9
325 1 -9.8866 4.57426 12.7885 22
326 1 -15.6333 0.778554 3.91773 12
327 1 -3.93947 -6.30479 -6.83094 19
328 1 -6.83751 8.20629 0.0109245 18
329 1 6.59194 -2.95202 8.22494 19
330 1 -10.7482 -9.65929 -0.256725 17
331 1 10.3963 -8.48682 9.87667 11
332 1 -9.25433 -6.53245 12.6238 12
333 1 -13.4045 10.2181 4.09036 12
334 1 -2.05834 -3.06216 10.5888 22
335 1 3.97654 -11.6555 -5.37654 16
336 1 -5.95463 -1.5637 -7.61999 16
337 1 8.33185 1.03156 -14.2866 10
338 1 3.57325 10.8059 5.74615 19
339 1 -10.1227 -1.52871 -2.43544 21
340 1 6.79716 -3.38588 -11.5414 20
341 1 10.1626 1.11364 -8.91369 19
342 1 -5.38416 -15.2802 -1.18865 10
343 1 -13.7834 -8.64234 -2.11124 15
344 1 -6.63679 -8.62302 3.16065 19
345 1 12.5443 5.56878 16.1957 11
346 1 11.0619 4.41388 -0.513098 21
347 1 -9.42059 5.50793 -10.6688 19
348 1 1.12835 17.7283 -0.519115 19
349 1 -14.6874 -4.5151 -2.52197 18
350 1 -10.947 7.37679 7.71495 17
351 1 -7.54696 11.138 1.95458 17
352 1 -1.79434 7.79752 10.2452 20
353 1 12.024 5.54219 12.8885 13
354 1 12.1836 0.228122 -3.48015 19
355 1 5.95232 -1.28683 17.8872 9
356 1 10.7805 5.56068 -5.07682 21
357 1 -8.33056 -14.5587 -0.866484 11
358 1 0.0113708 -6.02037 -3.02897 20
359 1 0.403163 10.8401 3.67151 18
360 1 -13.1591 2.59094 -5.24396 18
361 1 8.41147 -6.92691 -0.407672 16
362 1 10.2429 -0.931241 8.3471 21
363 1 -10.756 -3.3433 -5.36174 21
364 1 -7.23401 -5.82783 5.03581 18
365 1 -12.1867 -2.24972 13.5288 13
366 1 -3.15621 11.1901 -0.115799 14
367 1 -10.5809 -8.84464 -3.03246 20
368 1 8.94933 11.5286 17.9294 11
369 1 -9.86492 1.79108 -1.99772 18
370 1 0.152325 10.3372 -8.6596 22
371 1 3.77665 12.754 10.8378 19
372 1 -14.438 -6.8611 3.29879 21
373 1 -1.9774 -8.30637 -3.20466 22
374 1 -16.0854 -0.011311 7.0554 14
375 1 -12.8019 10.1154 -1.8876 16
376 1 7.64881 -7.02238 5.88611 20
377 1 -2.52 -11.0208 -1.65073 22
378 1 13.5589 12.5847 9.55442 14
379 1 4.90763 11.4052 -11.0559 15
380 1 -12.2787 4.03707 -8.62874 18
381 1 -3.32524 16.7498 -11.1582 9
382 1 -7.55605 2.77633 -6.31958 18
383 1 -0.627464 -10.6235 6.68771 20
384 1 12.8561 7.20526 6.19307 19
385 1 -2.10099 12.2399 -16.1641 10
386 1 -3.85508 -0.24878 10.2139 23
387 1 -13.1466 3.36561 -0.111705 16
388 1 -10.438 2.43157 7.96225 19
389 1 -6.36819 -11.1027 9.21983 21
390 1 7.85879 -6.68396 -5.51214 18
391 1 -12.5767 4.98814 6.32146 17
392 1 -17.7718 1.06438 9.80926 9
393 1 -13.6737 8.6253 6.26676 14
394 1 -1.77969 -5.42673 8.89961 20
395 1 -9.43233 3.71448 -13.6162 13
396 1 7.67718 -14.9071 0.0722597 10
397 1 -2.9847 -7.26321 -9.39408 21
398 1 -4.49337 -2.44348 11.8072 20
399 1 -7.28485 4.28815 -16.08 10
400 1 3.61289 -8.35038 3.3723 23
401 1 2.39039 11.9828 -6.92074 20
402 1 -12.3723 11.0214 9.96137 10
403 1 -7.53389 -1.51313 17.424 11
404 1 -13.1355 -6.01657 -9.88129 12
405 1 -11.0933 -8.35734 7.81954 22
406 1 10.9985 -3.87083 10.3472 18
407 1 1.44182 2.19875 -8.30453 22
408 1 12.5467 -6.28756 8.87309 11
409 1 11.8269 8.92921 -3.4281 20
410 1 -4.84129 2.50318 11.0032 21
411 1 2.68415 13.928 1.33816 18
412 1 10.2788 -4.01784 6.75388 19
413 1 -2.43762 -13.9785 -0.946093 19
414 1 -4.80105 4.96227 18.9613 15
415 1 -2.71913 14.1701 8.26103 20
416 1 -8.42081 -9.09929 -5.97409 17
417 1 9.90613 17.773 0.736127 9
418 1 2.19515 10.7876 8.91218 17
419 1 -7.39974 2.16368 9.60433 22
420 1 -6.58723 -5.26617 -2.04931 20
421 1 -10.9819 2.06973 10.9389 24
422 1 -5.70769 -8.47294 -7.07972 21
423 1 -8.41003 7.44795 9.58234 19
424 1 -4.59901 -12.7918 -3.44189 15
425 1 -4.04203 -7.18703 -12.4186 13
426 1 -6.6766 -11.4439 6.19536 18
427 1 7.50867 2.4849 8.54813 18
428 1 -9.79762 -4.23287 14.3924 11
429 1 -13.0564 7.51185 -10.3627 11
430 1 6.9905 7.20192 2.64627 22
431 1 -5.50609 -12.2689 -0.119711 24
432 1 -1.52599 17.4996 2.59242 16
433 1 -0.29477 5.33971 -8.42913 19
434 1 -2.73318 7.52899 14.1426 17
435 1 -17.4271 -5.5065 -2.54957 8
436 1 -3.01604 20.0306 -2.5856 9
437 1 5.76583 14.1927 -4.3178 21
438 1 -4.45154 -9.8966 -4.46076 21
439 1 4.54523 5.10573 18.8991 13
440 1 -1.00825 -13.9198 -8.41677 12
441 1 -1.25125 3.00556 -13.7967 16
442 1 4.90896 -13.3258 3.76565 19
443 1 -10.466 10.0477 7.82727 17
444 1 2.05332 8.99113 14.8125 18
445 1 6.5601 11.2889 -2.38763 22
446 1 2.16307 10.0476 0.329577 19
447 1 -10.234 12.1631 -9.25564 10
448 1 2.10919 4.537 -6.49122 21
449 1 3.01265 -5.29399 5.35667 23
450 1 -17.4875 -7.73981 2.80256 10
451 1 2.43011 16.9326 5.92621 12
452 1 -7.19047 3.22865 -11.4358 18
453 1 9.91815 6.59832 -1.9081 20
454 1 3.37306 17.2774 -5.24757 17
455 1 11.1111 -6.54324 1.23375 18
456 1 13.0036 5.93911 0.976749 18
457 1 -2.48477 5.59283 -13.4322 19
458 1 -2.33932 -8.33509 3.88361 19
459 1 -1.71269 -13.2254 7.907 12
460 1 2.64412 -8.16364 12.1323 11
461 1 -9.53625 4.38437 -7.90042 17
462 1 -9.24426 -11.1095 7.16059 24
463 1 0.138634 -10.9023 -7.38175 18
464 1 9.92464 15.097 5.25687 12
465 1 2.26916 7.54791 -11.734 17
466 1 2.891 -0.578157 17.1413 12
467 1 -17.7757 4.55088 10.5871 9
468 1 -1.42064 -16.9321 2.76294 9
469 1 -13.924 -2.90257 2.9973 19
470 1 15.0129 -4.19898 -6.07198 11
471 1 12.5901 0.793152 -0.498466 21
472 1 -4.07991 7.73127 -4.9123 19
473 1 3.53133 -8.77704 -2.76872 20
474 1 2.70528 5.02347 -9.86469 18
475 1 10.2228 -1.35943 -1.24073 18
476 1 -9.25128 1.06685 17.4587 13
477 1 7.15388 18.0725 3.25919 9
478 1 -2.3079 -0.79408 -13.584 20
479 1 0.0540485 3.60034 -16.2681 14
480 1 -7.26906 -3.07182 9.75135 24
481 1 -2.99032 13.7854 2.31411 15
482 1 -11.7069 -1.51212 -14.1329 10
483 1 -16.3521 -2.02723 4.86368 21
484 1 0.159414 -9.13419 -9.74732 21
485 1 -7.27909 -10.1049 12.3957 15
486 1 1.70398 7.79602 -7.80707 22
487 1 12.621 4.68711 10.1694 17
488 1 9.99913 7.53042 1.35366 22
489 1 -8.4149 -11.0145 1.46755 16
490 1 -2.12426 -8.26645 0.435098 22
491 1 -2.67783 -2.08493 -16.0678 14
492 1 -5.78986 11.6481 9.41501 13
493 1 2.42423 -1.097 -9.8343 21
494 1 12.8181 -3.95819 0.87499 15
495 1 3.74182 19.079 -8.23385 6
496 1 5.49693 -6.26641 4.10397 22
497 1 13.5225 8.05446 -5.90978 12
498 1 3.06278 12.5114 17.735 12
499 1 -7.8855 2.05038 12.3348 22
500 1 6.9937 12.4765 12.6766 19
501 1 9.85004 3.83569 16.6519 16
502 1 -2.65187 4.29631 -17.8796 10
503 1 -6.76485 -5.9082 -5.6974 23
504 1 1.59401 -2.7874 14.7403 15
505 1 8.2541 13.5565 10.4929 14
506 1 5.63366 11.1175 -7.89987 21
507 1 -7.26389 15.2458 -3.56259 15
508 1 0.855275 13.2505 -4.09647 20
509 1 10.0335 -2.947 13.5785 13
510 1 9.71418 6.09342 -13.4767 9
511 1 13.7285 -7.683 -2.50173 15
512 1 11.2541 12.8998 11.8129 11
513 1 -17.0986 -6.60053 5.41597 15
514 1 -8.2934 11.8024 -11.2601 9
515 1 -1.83499 2.54143 9.80693 21
516 1 -13.361 0.996724 12.8879 14
517 1 -4.70116 13.6192 -11.242 16
518 1 0.268887 -9.50946 -1.57284 22
519 1 5.18519 -0.982527 -8.07871 18
520 1 -1.36487 17.3708 -2.14608 19
521 1 -10.6784 -4.00214 -11.8198 16
522 1 2.96153 -11.0197 5.38834 22
523 1 -13.6253 -1.77551 -0.374878 21
524 1 -0.25256 12.6931 -13.321 15
525 1 -2.13803 10.8861 17.7836 12
526 1 -10.5349 -6.20744 9.387 19
527 1 4.92063 11.63 -4.85721 18
528 1 2.60714 -8.75116 -7.99302 20
529 1 5.85424 -7.02658 12.1599 14
530 1 -13.7745 7.46749 2.27108 13
531 1 3.74223 7.2145 13.2723 20
532 1 0.749023 18.4486 -7.1196 12
533 1 12.1929 -3.95606 -4.63268 19
534 1 1.24829 11.1216 12.7803 20
535 1 -2.82426 0.843033 -17.2225 11
536 1 -5.99851 -13.3734 12.2952 12
537 1 -1.68402 2.03229 -10.451 16
538 1 2.55052 5.75277 -16.0627 13
539 1 2.23731 16.4802 10.1743 9
540 1 7.49545 8.39559 -7.6311 19
541 1 -4.53815 -4.01432 -15.0048 10
542 1 -5.15704 -9.26972 -1.44377 21
543 1 -13.5332 -2.59275 -11.0933 15
544 1 10.5476 3.92568 2.02705 21
545 1 14.653 7.55316 -1.30618 13
546 1 10.7302 -9.16303 -1.11017 20
547 1 16.0955 7.94073 11.9005 10
548 1 4.69458 -8.62111 -5.37797 20
549 1 0.575884 6.7439 -13.5007 20
550 1 6.33811 13.0982 1.62639 17
551 1 -9.4296 5.2 3.28937 20
552 1 10.9264 10.2681 13.9449 14
553 1 12.1871 8.56718 -0.631823 21
554 1 13.0292 1.40348 4.74959 15
555 1 7.33049 5.86577 -5.7193 20
556 1 4.98895 4.47659 14.787 23
557 1 16.1995 4.48208 10.2081 10
558 1 1.2695 -2.98761 11.5234 19
559 1 10.9203 11.0669 -4.86128 14
560 1 0.538779 5.71439 12.8628 19
561 1 13.2893 1.12351 -6.99767 16
562 1 7.4805 -1.18599 14.4662 17
563 1 -6.9701 0.860222 -9.12793 18
564 1 15.7613 8.15055 1.73372 12
565 1 12.1518 -3.7971 4.05454 18
566 1 -11.7087 6.60072 11.7636 18
567 1 8.46866 14.9212 13.1994 8
568 1 7.4158 2.61337 15.6977 18
569 1 0.488352 7.97401 8.50001 20
570 1 2.8231 15.0185 12.9388 12
571 1 7.66805 4.93076 6.87092 22
572 1 -0.782377 -13.7397 2.54321 18
573 1 -5.25047 13.3663 -2.85958 19
574 1 9.57658 7.96493 -5.39054 22
575 1 8.4568 3.48217 -12.6549 16
576 1 2.57651 20.7501 0.590129 10
577 1 -3.85788 -11.5722 -7.28917 17
578 1 9.91082 -5.01969 -9.41073 15
579 1 -15.8189 6.15308 7.49006 13
580 1 -6.84209 6.90093 -11.3555 16
581 1 -8.74432 -12.8902 4.34621 21
582 1 -6.38407 4.4194 -8.78444 18
583 1 -14.293 4.17109 -2.44066 10
584 1 9.29016 -4.5237 3.01712 20
585 1 16.036 13.7246 5.0317 10
586 1 1.69075 -5.75791 7.54274 23
587 1 -15.9199 -2.61569 -5.97846 12
588 1 3.42756 -0.571177 -15.9491 9
589 1 -2.36095 0.285532 16.6262 11
590 1 6.19489 13.9815 -9.52384 14
591 1 12.6423 -0.159922 13.7357 15
592 1 9.23276 9.84731 -2.61458 20
593 1 12.6663 13.9552 4.37831 14
594 1 7.22075 -12.6505 -5.3676 10
595 1 -9.29454 -1.50273 12.8892 20
596 1 13.0945 -1.8086 6.61751 17
597 1 -2.04803 13.1262 14.4443 13
598 1 6.32273 16.8618 -8.36696 11
599 1 -9.48711 7.98119 -4.96524 16
600 1 9.73917 12.0998 3.68884 17
601 1 -10.2406 -14.9729 2.27083 11
602 1 15.2957 -0.987254 3.62779 9
603 1 7.49376 14.7969 3.86479 13
604 1 -4.67117 6.95598 12.1964 18
605 1 -13.4413 -5.1545 0.818608 19
606 1 -8.34314 -4.26548 -7.24704 22
607 1 7.88531 2.33552 11.7431 18
608 1 -5.10041 -7.31896 11.6271 14
609 1 7.36775 3.97501 18.3929 12
610 1 -6.10898 10.5886 -0.950353 20
611 1 10.1163 6.39545 4.62395 20
612 1 7.82859 4.58513 3.57081 21
613 1 1.98594 2.36813 -14.7243 15
614 1 -11.8454 -1.31279 10.2832 21
615 1 8.29898 -1.76486 -8.90985 20
616 1 13.1129 -7.16668 -5.61776 16
617 1 6.52924 8.1696 8.73367 18
618 1 -10.6234 1.38466 14.3054 21
619 1 11.7573 9.23864 8.71142 20
620 1 0.497194 0.211483 14.4623 16
621 1 -2.69043 6.10986 17.0389 17
622 1 -1.85324 -4.49602 -9.59263 20
623 1 -7.02101 5.25135 11.6415 24
624 1 8.13504 4.76403 13.6782 16
625 1 -11.2682 -13.4942 8.10132 16
626 1 14.0524 10.5213 0.479621 13
627 1 7.33128 -9.84352 -0.369452 20
628 1 5.36931 14.0382 -0.963101 21
629 1 7.5357 14.1469 7.64564 12
630 1 4.89714 -2.22378 -14.461 12
631 1 3.07838 14.7106 -3.92415 21
632 1 11.4526 10.5002 1.62585 20
633 1 -7.902 -7.82304 -0.0234458 19
634 1 -5.95377 -0.746688 -16.2377 12
635 1 -9.72959 14.1593 1.83466 12
636 1 7.28852 -4.97159 -8.98601 18
637 1 10.3668 9.57347 -7.90448 18
638 1 8.30536 16.8579 -2.0097 15
639 1 -9.50115 8.65153 2.17459 16
640 1 4.22028 8.17895 -2.94857 20
641 1 12.675 2.63197 14.6376 14
642 1 9.87021 1.55372 13.8618 16
643 1 -4.18421 -10.5729 10.9445 19
644 1 -6.88113 9.47568 -10.0074 16
645 1 3.60255 13.8436 7.17157 18
646 1 9.17746 -4.7593 -12.5365 10
647 1 0.954851 2.38255 11.8049 21
648 1 5.08626 17.3821 -2.67469 17
649 1 7.87703 10.2621 6.37031 14
650 1 15.152 0.815521 -2.89914 12
651 1 9.72679 6.73383 18.0147 11
652 1 -10.1551 -3.03638 7.94143 22
653 1 2.97339 -13.8486 1.36237 19
654 1 -0.518142 -0.0226087 -8.74089 21
655 1 -6.51681 15.1118 3.45306 15
656 1 5.93702 9.83837 2.66302 19
657 1 -18.7575 -5.12115 8.65334 10
658 1 -1.13762 5.57668 19.8248 12
659 1 -5.07186 6.63421 -15.7024 13
660 1 -10.3218 8.72899 -10.0849 19
661 1 4.28807 -11.2123 2.07478 21
662 1 7.73538 10.919 -5.42347 23
663 1 -14.9604 3.47464 12.1973 14
664 1 5.37799 1.84355 -13.0326 14
665 1 4.42197 -7.55422 9.40541 20
666 1 -0.257303 18.5415 5.12818 14
667 1 -5.46523 1.27722 17.4608 14
668 1 -11.9113 -8.99067 -8.49001 10
669 1 -6.10408 -8.64944 -10.9845 16
670 1 -10.6279 -10.6383 -5.83058 10
671 1 -0.266176 19.9778 -4.50118 15
672 1 6.64009 -3.08532 -4.97514 19
673 1 -1.73742 12.1775 5.13304 18
674 1 7.1341 -8.10646 -9.55456 12
675 1 5.25657 -12.8864 1.19758e-04 22
676 1 5.51837 -5.08503 7.1506 23
677 1 13.3906 4.76867 -5.92842 13
678 1 1.08901 -12.8412 -5.31966 18
679 1 -14.2345 -2.44245 7.98752 18
680 1 -6.90324 -13.9982 1.84305 17
681 1 -8.04947 -10.2336 -1.43393 18
682 1 -11.9442 -0.371691 7.96648 17
683 1 -6.42742 -14.9606 4.77507 15
684 1 13.1421 5.8371 -3.0577 17
685 1 -1.83004 20.3879 4.07384 9
686 1 -11.4675 7.28858 4.03343 15
687 1 9.97113 -1.69283 4.85403 20
688 1 -15.9649 -0.405801 -9.2913 12
689 1 1.17538 7.1424 -4.87175 26
690 1 6.73387 1.09019 -7.33513 21
691 1 8.14185 11.4471 14.6363 14
692 1 7.0862 7.78483 -0.954188 19
693 1 -15.8836 0.463687 -6.34856 12
694 1 -14.9411 -5.12924 -5.69466 12
695 1 -3.98931 7.13194 20.3446 11
696 1 5.38771 8.20758 -9.68085 17
697 1 13.2827 15.0945 6.81858 11
698 1 -0.583065 -0.0689792 11.3941 21
699 1 -1.35128 -15.8317 -2.9815 12
700 1 -10.0268 -16.3356 8.51541 11
701 1 -4.60377 -4.73634 10.4058 17
702 1 16.8173 10.9682 10.0743 11
703 1 1.59324 -6.3251 -9.53037 20
704 1 -6.81476 9.15405 -3.17895 17
705 1 9.38046 7.88433 7.30866 20
706 1 -13.3256 -1.03015 5.26427 19
707 1 10.2864 8.69724 -11.1024 11
708 1 -0.470416 -16.4545 -5.87954 8
709 1 1.24221 -18.1087 3.08696 8
710 1 1.56011 -16.8959 -2.52517 12
711 1 8.43849 3.46095 -6.55869 21
712 1 7.20979 19.3278 0.571223 10
713 1 -6.55427 1.58285 -14.3518 19
714 1 2.24521 2.41769 15.2682 20
715 1 -1.43999 10.0006 -18.1142 10
716 1 -12.7484 1.8855 -13.7721 8
717 1 -13.1932 -2.50897 -3.34351 19
718 1 0.791548 17.1567 -3.70407 24
719 1 -5.07967 -4.37856 -11.3125 21
720 1 -7.75949 -5.48361 1.4718 17
721 1 9.41811 5.99541 -8.09275 19
722 1 10.854 -6.54814 4.53898 16
723 1 -7.04256 7.06807 19.8206 10
724 1 7.80231 -7.59796 2.51975 21
725 1 16.0993 -3.36355 2.09969 10
726 1 14.0236 -3.21078 12.7341 8
727 1 -1.71297 10.9147 9.66494 19
728 1 -12.316 4.03516 14.148 13
729 1 -9.46812 7.40403 17.8982 7
730 1 -2.98626 -13.2186 10.6277 11
731 1 9.44859 1.46202 3.69437 23
732 1 5.58896 10.4676 16.1844 22
733 1 -15.8317 -2.81927 -0.492035 16
734 1 11.1323 -5.7736 -1.46487 16
735 1 -9.9103 14.6287 -3.48798 11
736 1 1.86161 -11.2403 8.02281 14
737 1 4.85651 0.860362 13.9241 19
738 1 0.637137 14.7529 7.11308 15
739 1 0.996704 -8.24879 5.50429 23
740 1 -11.2196 -4.06023 -1.78173 20
741 1 -1.79694 2.2142 13.3575 18
742 1 -16.8858 -8.50905 -0.998804 11
743 1 1.11892 10.3129 17.5555 16
744 1 1.96078 13.111 4.0572 19
745 1 -10.1435 -9.33278 4.35861 21
746 1 -6.95489 -16.8582 7.78246 10
747 1 8.82229 -5.5066 8.87486 22
748 1 14.6031 -3.67299 9.22253 10
749 1 6.43794 10.5985 10.9838 16
750 1 -0.425909 -6.87289 -7.7954 21
751 1 -4.09259 3.26066 -15.6731 18
752 1 -4.7836 0.684623 13.4502 21
753 1 -1.40008 15.1043 5.15118 19
754 1 14.1268 3.42735 6.93718 12
755 1 3.19554 9.82443 -6.28304 20
756 1 -5.27066 9.48017 18.0152 11
757 1 8.22532 8.27547 13.3117 13
758 1 9.15404 -0.0588037 -11.2357 14
759 1 -12.0034 -11.529 1.76443 13
760 1 12.6707 1.14566 8.34304 16
761 1 4.6461 2.64947 -9.77196 20
762 1 -0.950904 8.72245 19.8527 10
763 1 12.2353 -10.0245 -7.09836 9
764 1 5.31557 9.77605 -14.4946 10
765 1 -4.13953 -6.35859 -3.48614 22
766 1 11.3313 5.23013 -10.6567 13
767 1 15.396 0.0150498 0.532519 11
768 1 -0.456763 -3.93082 13.266 15
769 1 -1.97427 -11.3035 -4.70906 20
770 1 3.30257 15.6872 -1.62016 21
771 1 -15.5776 3.11624 5.6936 12
772 1 8.15289 4.60768 -2.99779 18
773 1 14.9589 9.37892 7.43761 19
774 1 -0.348188 -2.9487 -11.3106 21
775 1 -7.24262 13.2933 6.84295 13
776 1 16.7805 11.3688 7.17005 12
777 1 9.53115 14.3732 -3.98244 13
778 1 3.13099 4.83083 -12.6635 21
779 1 6.92368 -4.17687 -1.02434 14
780 1 -11.4261 5.72049 0.421125 19
781 1 11.6051 10.1132 5.49549 21
782 1 -13.852 -8.84165 0.606253 16
783 1 -10.8507 11.4578 -5.56511 16
784 1 8.08636 5.62622 9.7072 19
785 1 -12.3605 -0.657868 -8.4419 17
786 1 -12.9713 4.57162 9.77529 23
787 1 -3.69016 5.48142 -7.00941 20
788 1 9.36278 -4.66496 -6.4242 19
789 1 -12.9632 -9.77639 -4.75789 13
790 1 14.3211 -5.76532 -0.15335 15
791 1 -16.6508 8.41992 1.30408 6
792 1 -12.4398 -5.86742 -4.23313 22
793 1 13.2078 9.93339 11.2032 15
794 1 -7.35485 -5.37583 8.35249 18
795 1 7.738 6.48415 16.0947 17
796 1 12.9617 -1.26646 10.0354 18
797 1 7.46124 -0.693953 6.64741 19
798 1 -10.6882 2.95896 1.57678 21
799 1 -0.387142 11.3254 6.99938 17
800 1 2.86831 10.256 -9.43135 18
801 1 -2.64626 -4.54522 -13.1238 17
802 1 -3.24784 19.2834 7.13946 10
803 1 -11.6757 -11.4914 9.92241 17
804 1 8.16436 17.0096 -5.28399 10
805 1 0.104497 7.18879 16.2123 19
806 1 13.9171 -1.64748 -4.95492 16
807 1 9.21252 -5.83451 11.8726 15
808 1 -1.36164 12.7394 -10.118 21
809 1 2.4031 13.3902 -9.63345 16
810 1 -6.41102 -0.384387 8.0373 21
811 1 15.7639 5.77336 7.37447 11
812 1 -3.19402 -1.29523 -10.5947 19
813 1 13.7438 14.1272 0.862084 6
814 1 -13.9349 6.98222 -1.29409 16
815 1 -3.56542 -10.5921 7.72945 23
816 1 3.69083 15.8515 -10.1637 12
817 1 4.97533 -2.77142 12.6778 21
818 1 0.572223 -12.076 0.48371 18
819 1 -5.19973 17.8098 2.01096 9
820 1 -14.3235 11.2761 1.10874 11
821 1 10.0689 1.48571 -6.04727 19
822 1 1.24756 -10.0551 -12.876 10
823 1 -7.59534 7.57437 6.7364 17
824 1 10.34 12.8727 -7.21665 12
825 1 -9.37691 -0.470571 6.02519 18
826 1 6.95984 -1.90832 -16.6018 9
827 1 -8.43914 -9.24691 -9.42628 12
828 1 0.160572 -13.3345 -2.38997 21
829 1 -2.25374 10.4752 12.4017 19
830 1 5.29024 -7.74055 0.78933 18
831 1 -2.1249 14.7814 -12.3758 14
832 1 12.9972 2.54935 -4.42385 17
833 1 8.98091 9.49416 3.54734 18
834 1 0.30306 -18.8525 0.254944 7
835 1 7.53989 -4.40798 -14.7588 11
836 1 10.8978 -1.71684 1.71881 18
837 1 -2.09578 8.38948 -14.7679 20
838 1 -3.00836 -7.84843 9.63599 17
839 1 6.45963 8.34327 -4.10781 21
840 1 3.96579 2.08404 -6.37292 18
841 1 -11.1814 7.15874 -2.36803 16
842 1 -15.4481 6.21872 11.0758 12
843 1 1.81078 6.91001 18.8318 17
844 1 -8.54538 -8.48697 9.717 20
845 1 5.15844 11.1222 8.2253 18
846 1 -2.9453 -12.0392 4.79792 18
847 1 1.50324 9.69527 -3.45489 19
848 1 -6.02811 7.22911 16.8228 15
849 1 -4.38013 4.03445 13.4994 20
850 1 -10.0131 12.5928 9.54045 9
851 1 7.85551 4.92642 0.53205 21
852 1 -6.80049 -7.43813 14.4009 10
853 1 5.60375 -11.0761 8.21359 15
854 1 10.2022 7.1735 10.8046 14
855 1 8.93581 -4.03353 -3.66651 17
856 1 5.43955 -10.7488 -7.9119 14
857 1 -9.42424 1.3557 -10.2977 19
858 1 -5.64799 2.01865 -17.7172 10
859 1 5.55671 15.0491 10.6808 12
860 1 -13.7289 -4.0768 11.1075 16
861 1 -7.2342 13.0282 -6.36502 18
862 1 -12.0934 5.35165 -4.98084 19
863 1 10.8469 14.7986 2.41961 10
864 1 -9.14166 -15.6059 5.40135 13
865 1 -1.63749 8.09628 6.79285 19
866 1 17.868 13.8336 8.37176 5
867 1 -10.5027 -12.1881 -2.92264 11
868 1 -0.202353 15.5721 13.645 8
869 1 -7.55733 0.216384 15.0496 18
870 1 -2.31431 -14.5422 -6.31389 11
871 1 12.8076 1.86362 11.7886 19
872 1 1.89249 -15.0911 4.36263 15
873 1 6.14952 11.0559 19.6723 12
874 1 -4.55859 -2.9265 8.11021 23
875 1 11.1938 -1.05427 -7.92579 18