ITEM: TIMESTEP
10000
ITEM: NUMBER OF ATOMS
2000
ITEM: BOX BOUNDS pp pp pp
-30.0 30.0
-30.0 30.0
-30.0 30.0
ITEM: ATOMS id type x y z Coordination
1 1 -11.9523 3.30988 -12.5098 10
2 1 -1.11941 -5.8088 -10.1877 17
3 1 1.68175 17.566 12.2099 12
4 1 3.56249 -7.13982 10.0971 18
5 1 -8.02462 11.1475 -0.675917 21
6 1 11.6181 -9.83615 -11.3294 10
7 1 -12.4319 -0.25405 -2.81422 20
8 1 -2.59102 -9.20328 11.6327 22
9 1 -14.477 -3.11433 -8.28671 10
10 1 -12.3545 -5.61 2.89809 20
11 1 11.9595 -3.21978 -13.6649 9
12 1 -6.86225 -11.7163 3.3299 21
13 1 -10.7078 -5.6566 9.76883 19
14 1 -0.0462436 7.18685 16.4119 16
15 1 5.29695 -1.28288 6.98062 23
16 1 -0.621827 4.774 8.73898 21
17 1 7.59458 -1.42011 -1.16564 20
18 1 -4.24776 13.3592 -12.6883 10
19 1 -1.50805 -2.02452 14.4315 15
20 1 -5.5596 2.48301 -12.0786 20
21 1 -13.5314 -5.24341 11.4265 15
22 1 11.0199 -0.433835 7.94692 18
23 1 4.88486 7.56933 -13.8272 16
24 1 3.81865 4.71065 -15.4143 21
25 1 11.1832 4.16915 10.2702 18
26 1 -9.86774 1.77429 1.74308 22
27 1 -12.1392 4.67398 -5.38387 16
28 1 -4.99966 1.58753 -8.91691 19
29 1 -10.7125 12.5203 9.8911 14
30 1 5.95652 -13.9613 6.9003 13
31 1 1.8946 0.385267 7.71358 20
32 1 1.71084 -10.1571 -8.46293 21
33 1 10.9246 -10.9228 -0.379106 12
34 1 -8.28315 -14.4148 -4.40957 12
35 1 -11.8612 -5.25668 14.6817 9
36 1 -0.140544 -10.8121 -15.528 11
37 1 8.54315 -11.4394 -12.485 9
38 1 -3.98981 8.40236 -14.2526 15
39 1 -0.149328 4.18945 14.2454 22
40 1 -2.04418 -10.2976 6.04899 18
41 1 4.71716 -6.12921 15.5123 6
42 1 -15.0475 -0.333624 6.05626 19
43 1 -11.9011 -5.79296 6.2118 23
44 1 -9.42452 -0.326002 -3.58674 22
45 1 -8.00647 16.6478 -2.35324 10
46 1 3.24648 -10.0626 -5.64247 20
47 1 3.01026 4.99936 -12.8059 21
48 1 3.62913 -7.2178 -13.1956 25
49 1 -1.45129 -4.83944 9.26424 20
50 1 -12.5543 9.5765 3.16236 22
51 1 5.28542 12.6592 -11.0836 12
52 1 -0.988626 10.2595 7.56141 22
53 1 -4.27833 7.90882 -4.92609 19
54 1 -0.275481 15.6572 -2.65336 18
55 1 1.32845 -16.0922 5.68204 12
56 1 4.65261 -6.96322 -5.78134 17
57 1 2.9641 -4.55762 -14.5916 21
58 1 -8.84307 9.94698 12.4054 18
59 1 -10.4653 -0.0501244 -13.5088 15
60 1 7.32981 3.45486 2.01995 22
61 1 -4.19808 10.8703 -4.34886 22
62 1 -8.23836 -9.09689 5.05832 23
63 1 -3.57902 9.75234 9.75309 19
64 1 -13.6463 8.13669 -2.03688 13
65 1 -6.03009 10.2806 13.6565 16
66 1 -1.00762 3.99588 -5.99018 17
67 1 -6.55562 -12.1348 11.1626 17
68 1 5.29199 4.56127 6.86312 19
69 1 8.81646 -13.8927 -1.50895 12
70 1 3.77161 16.7221 13.9887 11
71 1 -11.3949 7.94815 -4.36511 18
72 1 -9.06263 12.104 -9.32749 14
73 1 3.87322 7.40791 12.2835 18
74 1 11.0872 -1.4929 -8.67956 17
75 1 8.37674 -12.34 4.74323 15
76 1 -14.4881 -6.99872 8.6793 13
77 1 -8.97492 -1.40681 2.91363 20
78 1 2.49378 14.5373 10.3569 22
79 1 1.49066 -3.88932 14.0095 17
80 1 -6.65188 -13.391 5.56135 20
81 1 -9.3194 -0.86197 -0.213854 22
82 1 13.226 -1.39538 5.61127 11
83 1 8.35847 -0.882608 -7.58861 22
84 1 -2.91192 11.5947 12.8111 17
85 1 4.11187 1.40352 5.82128 19
86 1 -7.24592 -3.40722 2.48999 24
87 1 -4.22155 -5.66898 -10.5807 21
88 1 -9.62058 6.95184 11.5549 21
89 1 -6.17899 14.4353 3.20825 18
90 1 -2.60371 8.03882 -8.0102 19
91 1 7.01232 -3.67439 -6.42404 21
92 1 7.40886 9.86879 -6.86995 19
93 1 6.93565 -11.6384 -0.604148 21
94 1 4.44236 -6.97236 7.14038 23
95 1 -2.6194 18.5945 2.11308 12
96 1 -8.99264 14.2202 5.64331 22
97 1 -6.56833 -4.22142 12.4882 18
98 1 -3.8606 11.6174 6.8308 21
99 1 -5.96993 -6.7554 11.5925 17
100 1 12.3012 -9.73236 -4.79672 13
101 1 -7.97779 5.40197 9.65373 20
102 1 -10.7479 -13.0736 0.640785 16
103 1 7.21221 -8.92281 -2.6021 17
104 1 2.01364 0.49178 -19.2715 11
105 1 -7.25264 0.958001 -14.5838 15
106 1 -4.84536 12.3831 -1.46944 22
107 1 -11.394 6.563 -7.42553 16
108 1 0.201524 13.1359 15.6405 14
109 1 -1.0023 16.2684 -9.29172 10
110 1 -12.5937 12.6024 2.93025 17
111 1 -1.44933 7.35594 2.92066 18
112 1 -5.70298 -9.8058 9.67737 22
113 1 12.2796 1.39763 10.4576 13
114 1 1.98419 -7.10692 -10.3175 21
115 1 2.16397 -4.35307 -11.4121 20
116 1 -3.3639 3.82394 9.77673 21
117 1 1.32927 -0.671604 14.5831 18
118 1 -10.0865 -5.4381 -1.87898 23
119 1 8.31095 -7.11215 2.90788 20
120 1 -10.1189 -7.42216 -4.63809 22
121 1 9.78809 -10.2108 2.51387 13
122 1 -6.61208 6.85432 3.32542 21
123 1 8.19925 0.105198 -16.5674 11
124 1 5.89465 15.5868 -0.152649 17
125 1 -7.80282 -10.9681 7.75474 21
126 1 -9.83358 -11.9194 5.44045 16
127 1 4.59331 -7.18904 -15.9711 14
128 1 2.86062 1.94141 -10.8385 21
129 1 10.436 -7.6649 0.479946 16
130 1 -4.68271 -15.6443 8.03645 11
131 1 -10.9238 -10.4802 -3.03095 16
132 1 11.8633 6.82457 8.28598 13
133 1 14.0291 -0.9135 -7.42258 11
134 1 -14.6336 -3.4642 2.67745 17
135 1 8.76845 8.54486 2.94338 18
136 1 11.7312 6.3144 4.69936 20
137 1 -2.64974 3.31131 16.3881 12
138 1 3.51786 7.32799 -0.436764 23
139 1 -2.60943 7.0999 8.41826 17
140 1 -7.19909 12.644 -3.49015 20
141 1 -1.70521 -7.52338 -12.6872 17
142 1 10.593 -11.6086 -9.68261 14
143 1 4.29266 10.4533 -8.83756 20
144 1 6.96045 -0.214403 15.2244 11
145 1 2.9721 -2.32903 -18.6924 12
146 1 -4.56746 6.92899 -1.91048 18
147 1 7.78604 2.07575 -9.07731 21
148 1 -12.4403 7.75708 0.741937 17
149 1 -7.77651 15.5941 1.66486 13
150 1 5.99638 7.61001 -8.69564 21
151 1 7.61925 -11.125 7.3764 10
152 1 -5.08515 8.53721 -10.5323 20
153 1 -8.64517 14.7577 8.96304 16
154 1 14.5868 8.56062 -4.06821 10
155 1 8.53697 14.6378 -2.0839 12
156 1 -3.80982 13.4324 4.42963 23
157 1 14.3455 7.70476 0.193814 17
158 1 -2.03778 13.2204 -3.68397 21
159 1 2.30131 12.6408 -11.3231 14
160 1 3.72113 10.5727 -13.3886 13
161 1 -11.1352 -7.66312 1.09137 23
162 1 -15.0914 8.37644 1.53662 16
163 1 -0.246499 2.08759 -17.3416 13
164 1 0.0565167 -13.2361 -13.0234 10
165 1 7.32814 15.77 9.2565 12
166 1 -2.8054 14.4441 7.97077 18
167 1 -15.6038 0.140479 -3.68028 13
168 1 -10.2993 11.0857 4.4788 23
169 1 12.3182 0.938704 -0.0798626 19
170 1 -10.1239 4.54504 -10.2117 23
171 1 5.13072 7.44406 19.5162 9
172 1 6.88434 18.1526 5.05902 15
173 1 -0.923829 6.31923 6.27073 21
174 1 1.21899 -7.65215 -15.9605 18
175 1 -4.44526 12.4314 9.9694 19
176 1 -5.05925 17.4217 -4.49074 11
177 1 -0.94451 -5.66935 12.4732 18
178 1 -13.4348 -2.95769 5.36284 22
179 1 -3.18449 -13.0182 -11.2602 12
180 1 -9.12548 12.8412 -6.13503 17
181 1 1.06394 -10.5843 6.74446 19
182 1 -2.9017 -14.0262 -4.08311 21
183 1 -6.22258 10.0784 -8.97135 23
184 1 -13.8381 4.98864 8.03315 18
185 1 -1.7286 10.5625 -1.83761 18
186 1 6.87488 9.58788 -4.03879 19
187 1 -9.64793 6.6978 16.0116 12
188 1 -1.07871 -11.7798 12.3038 13
189 1 -11.6185 4.18541 0.93054 21
190 1 3.52478 15.5427 2.12453 20
191 1 -0.409354 2.80108 11.7047 23
192 1 6.74457 7.44239 10.4448 20
193 1 -5.88839 14.1459 7.06759 22
194 1 7.79678 -5.41566 -11.796 20
195 1 -6.31523 15.1279 10.5416 16
196 1 -3.76597 5.23766 -6.58879 18
197 1 10.0324 -4.56284 2.48849 16
198 1 -6.51143 -6.40725 3.84334 23
199 1 -16.2927 -2.50757 7.45687 13
200 1 -9.88672 -10.901 2.75755 23
201 1 1.90704 10.2266 12.7905 20
202 1 -18.0567 2.24287 1.8192 9
203 1 -3.8783 -11.5708 -1.73763 19
204 1 1.93723 -7.77634 -1.29137 18
205 1 -5.07505 11.7745 1.53052 21
206 1 -8.94471 -0.986322 6.14335 23
207 1 1.62558 17.4192 8.99315 14
208 1 -6.45917 -0.731819 -5.59753 23
209 1 -4.74627 14.043 -5.16702 21
210 1 -16.6666 -2.9292 -5.78141 8
211 1 -10.105 0.104187 11.4375 24
212 1 0.0894103 -13.5774 7.84551 14
213 1 3.06628 -11.7051 8.43016 18
214 1 -14.4298 10.2638 5.32308 12
215 1 12.828 1.58722 7.29595 17
216 1 4.97356 3.6635 -5.29458 20
217 1 -3.80216 -7.17705 -15.005 14
218 1 4.40395 0.0187096 9.40699 18
219 1 4.70039 -16.5091 5.55671 11
220 1 -2.91644 11.2083 -10.6958 22
221 1 3.16973 -9.86802 -15.3435 14
222 1 5.16859 2.90809 -12.8356 23
223 1 3.40073 5.75587 -18.8763 12
224 1 -8.85825 -2.85919 -6.68999 19
225 1 0.622855 14.1281 -5.28572 19
226 1 -9.23435 -11.5693 10.5481 9
227 1 3.61516 13.7031 -0.781602 16
228 1 -8.46473 3.54269 17.1185 8
229 1 -9.88084 13.0941 -2.55901 17
230 1 8.18122 4.21766 5.40254 21
231 1 -2.89466 -4.30008 -13.2657 21
232 1 -6.22813 13.0629 -7.18607 22
233 1 3.49606 8.1478 -10.7759 17
234 1 -8.06444 -8.51355 1.72946 21
235 1 -6.00973 3.81099 8.0697 20
236 1 -6.12009 9.73663 8.31464 17
237 1 0.399525 -7.91576 -6.89255 19
238 1 -3.9894 -14.0506 -0.370216 22
239 1 10.9181 -11.9856 -3.07105 11
240 1 1.99168 -7.7488 2.12491 20
241 1 7.78684 10.3727 12.0373 16
242 1 3.39986 6.3736 -4.00641 22
243 1 -0.915151 13.2959 2.57578 20
244 1 -13.037 1.05524 0.482102 20
245 1 -14.732 10.4051 -0.798755 11
246 1 0.455011 7.49795 9.79642 21
247 1 3.24223 -16.3047 -3.86314 11
248 1 8.65532 4.28882 -2.96092 23
249 1 3.99987 7.60182 8.95871 20
250 1 -9.77404 7.11692 7.74687 20
251 1 -16.1723 -3.06339 -2.08691 13
252 1 9.19574 4.11419 -12.81 13
253 1 2.23431 -2.32549 9.22376 18
254 1 9.07505 7.85109 -10.2369 17
255 1 1.77989 -6.93134 -4.67085 19
256 1 -3.66985 0.664473 -13.0726 19
257 1 -0.515344 -17.4795 3.36961 12
258 1 6.76559 -3.1033 -9.46899 23
259 1 -10.4702 -3.57264 7.54984 22
260 1 0.0964586 -14.9673 -4.30048 18
261 1 -13.4403 -0.218512 -8.92718 15
262 1 0.587989 18.1793 -1.23133 13
263 1 2.6568 -1.30789 -15.9423 21
264 1 4.799 4.9207 9.77262 19
265 1 11.3608 3.29506 3.54898 21
266 1 -3.59032 -6.50385 2.204 23
267 1 10.014 -1.31259 -14.1915 13
268 1 -2.0806 -9.51211 3.39552 19
269 1 -7.93267 -0.931807 -11.8485 20
270 1 -13.4633 -2.43199 -5.30054 19
271 1 -7.16015 -14.0562 8.6046 11
272 1 8.19056 -0.853519 8.35547 19
273 1 1.66083 -4.93108 10.6887 17
274 1 -6.03731 -6.3779 -13.0328 21
275 1 2.09435 -8.05654 5.08195 18
276 1 8.9601 8.56844 -15.2462 5
277 1 1.74176 9.60291 -1.13075 15
278 1 -5.68963 -8.61848 -0.573362 18
279 1 0.609203 11.8505 0.176566 19
280 1 -9.24549 -1.88431 9.29039 19
281 1 -12.7471 -8.48483 -8.22503 9
282 1 -5.35215 -2.7121 -13.2961 17
283 1 2.1257 7.17669 -15.2749 17
284 1 -5.80594 -3.37053 -8.29821 19
285 1 -4.83608 -9.24952 3.35813 20
286 1 10.9257 -6.33893 -12.3906 14
287 1 15.2446 2.6537 -3.34416 15
288 1 13.0017 1.19598 4.34326 17
289 1 -4.52613 -9.75859 -6.94846 24
290 1 -9.14611 -3.47206 11.287 21
291 1 -7.22418 -8.15189 -5.7743 20
292 1 3.07726 5.6075 14.6257 17
293 1 -5.58337 -14.5129 2.36638 24
294 1 -6.6694 -11.7639 0.684825 20
295 1 2.0528 17.8636 1.29876 14
296 1 8.23655 2.89506 -18.5458 7
297 1 -5.69309 -4.73134 -15.475 14
298 1 -8.32157 -8.40001 9.89191 19
299 1 4.3847 9.91272 17.6284 10
300 1 1.67361 -10.3339 0.142101 19
301 1 -9.59552 -9.21451 -9.36426 12
302 1 -12.5994 4.00302 -8.93073 12
303 1 6.46443 5.92356 3.91833 23
304 1 -7.46751 4.17761 -14.6861 16
305 1 -2.33095 8.02731 -11.4162 19
306 1 -4.6005 -5.02807 7.0165 18
307 1 4.66691 -10.7038 -7.95716 19
308 1 0.495164 19.9769 2.34517 11
309 1 2.23698 12.2305 2.41022 20
310 1 11.6188 -3.51125 7.82123 11
311 1 -12.0535 -2.69806 10.8427 22
312 1 -1.34618 -8.15565 14.0307 16
313 1 -7.5353 9.98749 2.06232 22
314 1 1.11024 -9.08528 -12.8801 19
315 1 12.3281 8.03881 -9.6379 9
316 1 1.10946 -10.7115 3.25788 17
317 1 -3.93182 1.02537 11.3548 22
318 1 -13.6842 0.0207534 11.9364 13
319 1 0.863023 -12.9783 0.527995 23
320 1 -9.88641 9.0973 15.0827 12
321 1 -7.81259 7.32432 13.9743 21
322 1 -11.8393 -8.14184 10.3058 13
323 1 -12.8414 -8.55393 6.7167 12
324 1 12.7004 0.50053 -3.47236 18
325 1 -10.103 -9.4291 7.56233 18
326 1 12.086 -3.87182 -10.2128 13
327 1 7.91403 -13.4388 -4.67901 12
328 1 0.628367 17.7849 -4.67032 12
329 1 -10.2094 15.0447 -0.474689 12
330 1 8.42041 13.3787 11.1004 13
331 1 -11.7573 -0.627779 4.33029 22
332 1 7.56122 -6.57533 -0.7361 18
333 1 -4.61933 10.2164 4.04966 19
334 1 -8.87583 3.92759 6.33608 20
335 1 2.07529 -8.60772 8.38927 20
336 1 7.13943 -9.2379 0.893383 22
337 1 -4.07556 8.353 6.40878 22
338 1 -4.7864 -3.53761 -5.91744 22
339 1 -2.15016 5.99759 14.8179 17
340 1 -7.30815 14.226 -0.757969 22
341 1 7.528 11.2372 16.5078 10
342 1 -7.89095 15.2376 -4.91611 15
343 1 -1.40046 -7.90169 -17.4739 7
344 1 -8.07773 1.48107 -6.56582 22
345 1 5.98216 -10.3893 -13.669 14
346 1 -11.8722 9.85782 11.9708 12
347 1 -16.3396 2.14728 4.41491 15
348 1 -1.99586 -1.52317 -12.1311 18
349 1 -4.40757 9.31665 -0.0788651 20
350 1 8.73999 -1.78539 5.53125 19
351 1 -12.904 -12.9976 -1.59917 11
352 1 6.85345 -4.15904 7.29403 22
353 1 -7.80027 -9.46507 13.1425 13
354 1 -14.9828 11.856 1.88833 11
355 1 1.45497 -4.8512 7.39542 20
356 1 3.60436 -8.09052 -8.00328 20
357 1 -7.18567 -0.686872 -8.70096 18
358 1 3.93565 -2.47164 -12.9968 22
359 1 4.0096 16.0005 4.96313 21
360 1 -14.7049 -0.64049 2.71097 20
361 1 5.91222 -4.87758 -14.0874 21
362 1 8.14401 1.05076 -12.3615 22
363 1 -5.01906 -15.2204 -5.67875 15
364 1 -13.3376 -4.40416 -2.68243 17
365 1 -3.5899 -6.44693 -0.78325 20
366 1 7.96887 8.84868 17.7697 8
367 1 15.6009 4.88265 -0.272861 13
368 1 -7.25064 4.57117 -11.3647 21
369 1 4.02322 19.5531 4.08621 14
370 1 -16.6521 -0.372775 -0.157362 13
371 1 -13.2719 15.3245 4.97168 8
372 1 -2.32315 15.6407 3.36259 16
373 1 -7.6122 9.15003 5.50957 19
374 1 7.36411 2.98001 10.1154 18
375 1 10.1801 -7.08629 -6.08262 19
376 1 4.28138 -2.32561 15.1157 12
377 1 10.3076 2.0778 -7.50898 21
378 1 -7.63561 -14.4482 0.123492 20
379 1 -6.37301 4.16426 1.2513 22
380 1 -2.20427 -8.06803 -5.55985 22
381 1 -2.00963 9.96682 1.44253 21
382 1 -10.7244 2.11681 -1.44173 22
383 1 2.46193 -11.23 -2.56129 21
384 1 9.73983 0.598394 11.3677 20
385 1 -8.09304 -3.50861 -3.74384 22
386 1 -8.83023 -8.17571 -1.73348 16
387 1 -9.36209 -6.64469 12.2009 16
388 1 -4.48854 15.1005 1.0965 19
389 1 -10.3641 -6.60511 -7.49584 20
390 1 6.45353 13.8703 14.2311 11
391 1 -6.66269 4.64057 -1.83332 22
392 1 0.269182 9.10521 -10.8512 14
393 1 3.39958 10.2651 4.44173 20
394 1 -12.8126 -7.43894 -1.7877 18
395 1 -1.54816 -10.4349 -7.5989 18
396 1 -12.7487 1.62825 9.69545 23
397 1 -9.05783 4.58333 -0.201205 20
398 1 5.65541 -9.30143 7.96901 17
399 1 -10.9058 -13.0133 -4.33277 11
400 1 12.2081 14.2231 5.83474 14
401 1 7.11773 5.71072 -14.786 16
402 1 -11.0999 1.96858 -8.01244 23
403 1 -5.65401 13.7303 -9.63201 18
404 1 -6.63602 4.57901 -5.18968 21
405 1 -3.70197 -12.1879 1.691 21
406 1 9.30502 5.96529 2.87659 18
407 1 3.19204 9.77373 -16.2476 12
408 1 -4.32773 1.07002 7.88471 22
409 1 -16.5914 5.54335 2.13763 11
410 1 -9.79056 1.72076 4.53034 22
411 1 -3.65555 -12.9233 4.73876 25
412 1 0.507829 -4.29268 -6.0962 18
413 1 2.70337 -13.3828 -10.7629 11
414 1 -0.914287 1.14532 9.52195 18
415 1 -15.5699 2.6587 7.70246 14
416 1 -15.2385 2.90002 10.7379 12
417 1 -13.0167 7.04796 6.14423 21
418 1 -0.612842 -7.12307 7.18109 21
419 1 -9.34559 2.41091 -12.7558 21
420 1 11.1203 -7.04783 -9.31193 16
421 1 -0.346334 -9.23767 -10.5602 19
422 1 -1.26122 -5.16838 15.3571 9
423 1 3.82979 -4.25254 -4.34831 23
424 1 -4.609 5.54669 -15.9937 13
425 1 6.12696 -11.9143 2.44422 20
426 1 -0.015326 13.6921 -9.3422 18
427 1 -11.9948 12.2548 7.01374 14
428 1 -4.41229 -3.1805 15.3378 9
429 1 -12.3568 -2.35281 -10.9775 14
430 1 -8.9567 -6.18048 6.56612 21
431 1 8.63549 -2.64887 13.4688 13
432 1 6.89943 0.71892 0.738967 22
433 1 2.18196 -1.42051 -7.40674 21
434 1 7.80343 -6.77739 5.91532 18
435 1 10.7955 5.59516 -2.1597 15
436 1 -5.69161 2.23809 16.224 11
437 1 -2.33753 13.0806 -0.160015 20
438 1 6.8735 -3.77123 4.17679 23
439 1 -2.58884 -10.9202 -4.50278 20
440 1 -6.51152 8.72284 16.6637 12
441 1 -0.163114 15.7472 9.83097 18
442 1 -4.62389 -6.29163 -7.41592 21
443 1 9.72069 16.7773 5.45249 14
444 1 4.48153 2.4579 11.5704 22
445 1 -5.93449 3.86425 11.7236 19
446 1 -3.92873 -6.1248 -4.23595 22
447 1 -9.32435 3.06664 11.1057 22
448 1 -8.03312 -5.56643 -7.02532 19
449 1 -7.0376 12.0269 4.54646 21
450 1 -5.01166 -12.9003 -8.09677 13
451 1 -7.24602 -9.53656 -11.5478 13
452 1 -9.05288 -10.4836 -0.117476 18
453 1 -6.98569 -3.58756 5.77366 21
454 1 9.68813 1.36055 5.72094 21
455 1 -3.77134 -5.71673 13.8844 15
456 1 -6.6043 7.06502 -12.9176 15
457 1 9.25951 6.9884 -0.335408 24
458 1 -9.8807 -10.3095 -6.38385 16
459 1 -2.21841 1.31877 -7.24042 19
460 1 -2.04737 16.7648 0.0645972 16
461 1 1.59785 4.20091 -7.39904 22
462 1 4.80437 9.9377 6.91989 19
463 1 -12.3517 -2.02481 1.68415 22
464 1 -2.12134 18.1524 -3.12519 16
465 1 4.12968 9.38644 -5.87081 20
466 1 -10.3805 -0.768133 -10.0903 19
467 1 1.8524 4.89696 11.6811 21
468 1 3.22347 -13.2428 -4.90067 18
469 1 0.255336 -2.855 -14.0935 19
470 1 8.76467 -12.9452 1.48564 14
471 1 -9.14539 12.8671 2.30978 21
472 1 1.63013 10.233 16.2419 15
473 1 11.1293 9.38933 -1.8533 20
474 1 -1.90657 7.38681 -0.38411 23
475 1 -8.64553 7.32714 -5.91848 20
476 1 3.48398 2.62698 -7.22158 24
477 1 4.99678 -6.94968 3.76023 21
478 1 -17.3214 -2.97786 1.37451 10
479 1 -0.468587 16.1942 6.80846 17
480 1 -2.02987 3.77863 -12.6867 18
481 1 11.5308 7.8823 1.6963 19
482 1 4.67158 14.9871 -5.89718 11
483 1 6.90383 -3.90463 0.596744 21
484 1 14.3624 2.70466 1.94474 13
485 1 -4.63965 -1.56755 -10.6598 20
486 1 4.01922 -12.2422 0.168252 23
487 1 0.117645 -11.205 9.76025 19
488 1 1.99341 -7.21893 12.8142 19
489 1 -8.30066 6.99738 -8.81866 23
490 1 -12.0345 -13.3873 3.73807 13
491 1 2.27355 -13.6118 -7.50805 12
492 1 7.98613 12.1881 3.54726 19
493 1 -2.54849 1.34291 -10.6089 22
494 1 0.0350556 1.45652 15.3343 15
495 1 -12.9261 5.12894 11.247 16
496 1 -1.40537 -17.6598 0.12225 16
497 1 -10.413 -3.91926 4.60295 22
498 1 12.765 -6.31991 -4.48541 12
499 1 9.32337 1.55845 -0.865106 26
500 1 -6.42291 9.47872 -2.77759 18
501 1 3.85318 -4.30806 -7.66518 20
502 1 6.4164 5.72147 -11.6533 21
503 1 9.67601 -4.02814 -4.98248 20
504 1 -4.09815 0.32333 14.7911 16
505 1 5.72479 17.6061 1.90822 14
506 1 -5.45299 -1.27706 -16.6963 11
507 1 5.08946 2.35997 -19.7911 10
508 1 -5.08583 -4.1025 9.47456 18
509 1 -1.07071 20.089 -0.48222 10
510 1 -8.51773 1.72652 -9.81145 23
511 1 -14.7741 -0.510571 9.11491 20
512 1 -4.40562 -10.5593 -9.93069 17
513 1 -2.42801 -10.8282 15.0154 12
514 1 -1.51848 10.1368 -5.42548 18
515 1 9.02494 8.91905 8.84822 19
516 1 12.7064 11.0017 -4.8886 11
517 1 -5.79931 -15.925 -2.99124 16
518 1 -2.6842 -8.81044 -2.34246 18
519 1 -1.372 -5.18389 -16.5254 15
520 1 -7.75155 12.1162 10.8731 17
521 1 -4.39125 -9.69126 -13.0348 14
522 1 12.9725 -2.93454 -6.01366 14
523 1 2.94011 12.7165 -8.20521 14
524 1 4.14859 -9.65841 2.26248 22
525 1 12.3146 -0.618658 -11.3114 12
526 1 2.72714 14.3224 13.474 19
527 1 -6.99686 1.12704 9.63889 22
528 1 3.83817 12.7109 8.17731 20
529 1 2.57302 2.79352 14.0356 20
530 1 -2.64566 4.2322 -17.3468 11
531 1 -2.75173 -3.25492 -9.11849 20
532 1 1.89212 0.33823 11.1457 22
533 1 7.13821 13.1618 8.06092 19
534 1 5.76148 5.02416 -7.6401 21
535 1 -6.97024 10.1177 -5.80032 22
536 1 -3.04624 13.8809 -9.23951 20
537 1 9.91253 -0.397892 13.9524 11
538 1 9.24147 -1.85208 -10.9911 20
539 1 10.8609 -12.4724 -7.19273 12
540 1 10.4294 10.6323 10.6702 12
541 1 -13.9209 -8.14463 1.67743 16
542 1 -6.20335 10.666 -11.6375 15
543 1 -1.37598 0.089559 12.6762 22
544 1 -14.2368 -2.93619 13.3064 10
545 1 -7.68002 15.277 -8.52156 10
546 1 5.32958 -14.171 -2.31749 17
547 1 4.03562 -2.08763 -9.84539 20
548 1 -4.31558 15.3696 -2.42794 19
549 1 -8.81249 -5.24541 -15.057 13
550 1 3.37044 -13.741 6.4184 17
551 1 -16.5092 -6.17194 2.65306 9
552 1 1.08958 11.7761 -13.991 12
553 1 -7.53337 2.12902 -3.47185 25
554 1 -4.89656 17.0706 12.9656 10
555 1 -13.4217 -3.954 8.55621 24
556 1 3.89596 12.6131 -4.28802 17
557 1 2.84128 -11.8514 -13.6549 13
558 1 7.22299 -3.27752 10.6875 19
559 1 10.6132 1.58556 -14.231 13
560 1 -10.1754 7.33722 4.4905 20
561 1 1.76487 7.79938 18.6252 10
562 1 2.98464 16.5105 -4.04827 12
563 1 10.7736 -0.844569 -6.02143 19
564 1 -0.586738 10.1818 11.1218 20
565 1 0.758288 4.97707 -17.7503 15
566 1 -2.98155 -12.4058 10.2071 15
567 1 0.724803 1.61688 -8.77387 21
568 1 7.09467 2.89309 -15.3282 19
569 1 0.938991 15.4722 3.71434 19
570 1 8.24858 4.77212 -9.6129 22
571 1 0.905367 4.25132 -14.6516 18
572 1 -5.84379 -11.8034 -4.88725 20
573 1 -11.6876 -2.96856 -14.3805 9
574 1 7.36406 4.22761 -0.615035 20
575 1 11.7622 3.05445 -2.25373 21
576 1 9.19266 -9.87032 -4.9889 22
577 1 -0.687483 13.3498 11.9771 19
578 1 4.52528 -9.42623 -1.16881 20
579 1 5.93167 7.57735 -16.8717 13
580 1 7.6026 12.8108 0.425169 21
581 1 -11.6535 4.361 4.90425 22
582 1 3.93094 12.1638 15.121 15
583 1 9.05446 7.06223 -3.64754 21
584 1 13.5629 -0.854348 1.72362 13
585 1 9.38369 6.98347 -7.30248 22
586 1 12.223 9.62462 13.5163 6
587 1 10.8294 6.30579 14.1239 14
588 1 -0.173675 -7.32013 10.3507 22
589 1 15.076 10.5727 -2.11053 12
590 1 0.570326 7.58201 13.2743 19
591 1 13.9631 5.41407 -7.66627 12
592 1 8.97891 4.98487 12.1652 20
593 1 -10.9136 -0.735677 -6.32018 19
594 1 14.6394 6.4186 2.75304 17
595 1 10.3678 -1.84955 -2.60355 20
596 1 -11.626 9.57516 6.88272 20
597 1 5.58966 14.7647 11.7757 16
598 1 7.24129 7.33642 13.7668 17
599 1 1.56423 11.7126 5.58257 21
600 1 -1.85403 17.7403 12.0988 11
601 1 8.15509 4.88123 8.43104 22
602 1 -3.64303 -17.0266 2.73004 16
603 1 -9.27231 7.87835 -1.73868 16
604 1 10.6857 10.9822 -7.88883 11
605 1 6.99026 -2.62662 -13.06 22
606 1 9.33912 19.8124 7.05803 4
607 1 0.0283075 -9.68549 -4.30028 21
608 1 6.08661 -5.92497 -8.63922 18
609 1 -12.4899 2.01697 6.54122 23
610 1 -4.14607 5.61107 -12.8926 19
611 1 -1.80925 -14.7391 2.07721 21
612 1 -6.71593 4.14761 -8.54677 22
613 1 -16.1868 2.80777 -0.490897 11
614 1 6.57349 -6.4703 9.63483 17
615 1 13.6181 12.907 2.96434 14
616 1 -1.9925 -9.82012 8.81009 21
617 1 -13.2227 0.870097 -5.28125 17
618 1 3.0301 2.70121 -17.4512 18
619 1 -5.23609 5.61761 15.9758 14
620 1 8.27149 11.0586 -12.4543 9
621 1 11.3353 2.89059 13.6569 13
622 1 8.2152 4.31814 -6.23823 21
623 1 10.7947 14.3716 3.17591 17
624 1 5.72041 -13.6636 -7.4237 10
625 1 -12.0107 2.79663 12.3993 15
626 1 9.43289 -5.21187 9.0965 15
627 1 -3.66321 14.7884 11.3693 19
628 1 3.44515 6.48939 -7.06667 22
629 1 -12.4988 10.9074 -3.27055 11
630 1 11.3757 11.4905 4.16626 19
631 1 -10.2768 -15.0879 -1.83654 11
632 1 13.3903 -1.96022 -1.34445 17
633 1 4.47815 18.4907 7.15158 15
634 1 -4.93115 6.4969 9.58433 24
635 1 -12.7005 -4.98974 0.0209597 21
636 1 -13.208 -5.82694 -6.11718 14
637 1 7.96161 2.0156 13.3253 22
638 1 -3.5589 -7.11071 9.12947 21
639 1 6.27112 4.89151 12.664 21
640 1 -8.16096 16.8319 5.02067 13
641 1 9.52616 1.37225 -4.14452 21
642 1 10.1614 3.69994 0.613275 20
643 1 4.63505 -0.036898 -17.1551 16
644 1 -9.78482 0.999325 8.11969 22
645 1 5.58113 0.143269 -11.4511 21
646 1 -2.19432 -4.87388 -6.97369 22
647 1 11.6573 -9.42337 -7.57007 14
648 1 10.1925 11.2715 7.46749 17
649 1 3.87224 4.24095 4.09098 21
650 1 -9.21453 1.8724 14.3404 15
651 1 4.09173 11.8309 11.3873 18
652 1 5.07985 -8.04951 12.4454 9
653 1 -3.11739 8.65017 12.8584 19
654 1 0.366412 -5.72165 -14.3013 17
655 1 -6.88527 6.67291 6.58868 20
656 1 6.53611 5.72309 17.9792 8
657 1 -8.85341 -14.1266 2.86148 17
658 1 15.489 10.1664 1.6877 10
659 1 5.54357 -11.8113 -3.43507 19
660 1 -4.2279 11.2587 -7.43867 21
661 1 4.37212 10.2114 1.18409 18
662 1 7.23666 15.2016 3.14452 23
663 1 8.73226 -4.20019 -14.8997 13
664 1 0.975813 2.82698 6.09887 20
665 1 1.49298 11.1351 -6.21625 19
666 1 9.17416 13.4521 5.79701 20
667 1 -7.19752 -6.39656 -3.06334 19
668 1 0.150491 0.217843 -14.9769 16
669 1 -12.862 12.8453 -0.576084 12
670 1 7.66905 -7.69572 -14.0456 15
671 1 7.14296 9.77093 -0.397665 17
672 1 6.63273 6.67395 -5.4232 22
673 1 10.7677 13.2934 0.290261 15
674 1 -6.18707 4.1682 4.5077 22
675 1 -8.90818 4.66479 3.23313 22
676 1 1.24059 12.204 -2.99178 17
677 1 8.605 4.79518 15.1236 15
678 1 4.95692 3.633 15.0154 16
679 1 -3.98399 -13.5533 13.4504 9
680 1 -8.51111 9.18176 -11.2726 14
681 1 4.56487 15.7447 7.74312 19
682 1 6.0545 -8.19341 -10.8953 19
683 1 2.27778 2.90508 9.06382 22
684 1 -2.28288 15.8359 -5.38361 18
685 1 7.65013 10.5041 6.15894 21
686 1 12.7475 -3.95697 -3.12188 13
687 1 9.34838 8.69056 14.8165 12
688 1 -15.9314 -3.83036 10.1819 12
689 1 0.76386 -15.9173 0.921608 20
690 1 -1.11164 -1.06616 -9.05481 19
691 1 -10.721 15.3814 3.13782 16
692 1 4.59487 12.8656 5.10423 21
693 1 4.83679 -6.73274 -3.00687 21
694 1 3.65075 7.533 3.08287 20
695 1 -12.0846 -0.875209 7.7152 21
696 1 -3.22295 7.80612 17.5864 12
697 1 -0.530102 9.11799 -15.7126 16
698 1 -9.58918 6.04388 -12.8083 13
699 1 -1.83746 -10.4038 0.0256819 16
700 1 4.29575 10.702 -2.12877 19
701 1 7.03796 -9.62279 4.41682 20
702 1 -1.54524 10.3493 4.62519 21
703 1 -12.2021 7.15628 13.9263 11
704 1 1.1479 -1.13062 -11.0079 20
705 1 2.65377 -10.2326 11.1206 15
706 1 0.677054 15.0248 0.710696 17
707 1 -2.99343 3.19978 13.0909 20
708 1 -10.9599 -4.86881 -12.4751 11
709 1 -7.00653 -8.36475 -14.7689 11
710 1 -6.17398 -13.1312 -2.4855 19
711 1 -4.40162 16.2461 -7.96207 13
712 1 0.613606 -3.70149 -9.07576 18
713 1 0.847833 9.50791 2.45607 22
714 1 6.48115 -9.34172 -5.5599 17
715 1 3.33033 -15.8376 0.165714 18
716 1 4.11086 -4.58416 5.43278 20
717 1 13.6296 5.58789 -4.53402 16
718 1 -1.11697 -14.9943 -1.3374 20
719 1 -11.1721 -2.03981 14.3841 12
720 1 -4.67358 -17.4114 0.0243717 15
721 1 -6.57886 -4.25271 -11.2396 17
722 1 -11.2393 4.38065 8.76311 20
723 1 -7.67323 -17.5639 -0.423221 10
724 1 11.8035 7.98925 -5.9745 16
725 1 -1.48945 18.5406 4.82208 11
726 1 -6.97369 1.65192 6.09627 22
727 1 -15.9768 6.82928 5.47982 11
728 1 11.0381 -1.77382 3.45831 19
729 1 -12.3279 1.10491 -11.1138 15
730 1 -1.76385 12.831 -6.63797 21
731 1 5.47079 2.62167 -9.85115 22
732 1 5.49181 10.048 13.3774 15
733 1 6.02146 7.49212 -2.25806 19
734 1 -10.2915 1.99623 -4.71755 20
735 1 -9.17276 -4.16746 -9.85265 17
736 1 -7.58873 4.4233 14.0729 21
737 1 3.71914 5.13065 -10.2582 23
738 1 6.58887 15.404 5.86085 17
739 1 -3.31435 -1.36618 9.57267 21
740 1 -3.17722 -16.6112 -2.58504 15
741 1 -5.43738 -16.0708 5.25332 13
742 1 -6.33876 -7.65967 7.26174 19
743 1 10.6228 8.74518 5.76205 18
744 1 3.43103 -9.8152 -10.9061 22
745 1 -9.42584 7.61109 1.75737 19
746 1 6.28355 9.03851 3.65133 19
747 1 -7.60896 -4.94768 9.0137 21
748 1 6.28816 8.5691 -11.5992 18
749 1 -2.31852 -14.4437 -7.30654 12
750 1 2.09361 -14.2892 -1.97994 22
751 1 7.41783 -15.1181 3.73337 14
752 1 0.566594 4.1737 -11.0307 21
753 1 1.90803 14.4516 7.08558 22
754 1 -4.58513 2.78268 -14.9252 14
755 1 -0.476776 -2.71771 11.2168 20
756 1 1.07844 8.32222 -18.2208 9
757 1 -8.66554 -2.01969 -15.1583 13
758 1 -10.86 -2.78475 -1.73616 21
759 1 2.05627 15.9768 -7.5928 12
760 1 6.72087 1.55322 -2.82566 22
761 1 0.383513 -2.4206 -17.4496 15
762 1 -6.70176 -6.39223 0.600759 20
763 1 11.1409 4.95057 -8.82728 18
764 1 10.3529 -5.28084 -1.83407 18
765 1 -8.88446 11.7334 7.22081 20
766 1 5.36836 -12.3942 9.568 10
767 1 12.1015 -4.36875 0.393537 11
768 1 9.12507 -5.41276 12.0402 10
769 1 3.88201 7.01215 5.83207 22
770 1 -10.3914 4.70871 13.3806 18
771 1 -6.61366 8.24353 11.206 20
772 1 -2.2608 -13.0383 7.44578 18
773 1 7.06616 0.703649 4.23458 23
774 1 6.11529 10.1873 9.78734 19
775 1 -17.3611 -0.570073 3.87832 9
776 1 7.00528 -4.10246 -2.73859 21
777 1 -9.44429 10.1282 -3.8756 18
778 1 1.40875 6.29011 4.17028 22
779 1 -1.88528 -15.5868 5.83984 18
780 1 4.61752 0.0661417 13.342 19
781 1 -0.99303 13.2388 5.75045 22
782 1 2.98401 -13.5795 3.00605 15
783 1 -7.60858 -3.64673 -0.700761 23
784 1 -1.6527 5.8696 11.554 23
785 1 -16.1635 -5.91715 -0.476637 11
786 1 -2.45704 14.7622 13.9896 14
787 1 5.1988 12.7234 1.88607 19
788 1 -14.4099 -12.05 1.88722 9
789 1 -0.708677 -12.6207 3.67454 18
790 1 4.61477 -4.03011 8.85041 17
791 1 9.76007 -4.75133 5.37479 15
792 1 7.00698 7.38611 6.84618 21
793 1 -1.90599 7.6306 -3.74812 19
794 1 -2.6053 -8.32799 -8.8812 21
795 1 -4.05343 5.52348 -9.8254 20
796 1 -3.64983 -2.41504 12.4468 20
797 1 1.62212 18.204 5.04625 16
798 1 9.66481 1.17525 2.45864 21
799 1 0.494758 6.52292 -5.51061 19
800 1 -6.05406 13.2197 12.6781 11
801 1 10.985 7.61539 11.2752 15
802 1 4.79783 -5.03069 -11.1331 24
803 1 -8.24828 -10.9347 -3.7822 16
804 1 -4.18207 -0.903814 -7.31174 22
805 1 10.7069 -1.45474 0.474286 20
806 1 5.29337 0.101744 -8.38156 19
807 1 -0.646958 10.3665 14.354 20
808 1 8.32873 -8.89118 -8.35893 19
809 1 5.99978 4.64447 -17.9614 13
810 1 -0.896552 -6.66257 -2.61524 20
811 1 10.6104 2.56673 -10.7409 16
812 1 15.6305 -0.901148 -3.96841 10
813 1 0.692035 -10.3108 13.6179 13
814 1 -6.2555 -7.73357 -9.52918 21
815 1 8.73532 15.9497 0.717498 12
816 1 -0.729852 -6.73917 3.98951 20
817 1 -14.4717 4.77222 5.0808 17
818 1 11.0389 4.69071 -5.41416 23
819 1 13.6974 4.24437 4.97544 15
820 1 1.7526 -5.38391 -17.5714 13
821 1 -10.79 16.9909 6.72278 9
822 1 14.3115 7.63377 5.63522 11
823 1 9.85632 10.19 -4.95909 19
824 1 2.88453 1.68681 -13.9186 20
825 1 7.72123 -1.59816 -4.60997 22
826 1 -11.6988 5.35763 -2.34968 21
827 1 10.1416 10.4797 1.29089 21
828 1 -12.5285 -10.4008 0.358084 18
829 1 -9.91744 9.52908 -7.62895 18
830 1 6.78841 -0.00765463 11.3841 19
831 1 -11.545 -3.28028 -8.22894 17
832 1 -9.75227 9.58877 9.17029 19
833 1 -1.21069 3.60765 -9.02442 19
834 1 9.08786 -8.75475 -11.6611 18
835 1 -12.7478 -8.62781 -5.07187 12
836 1 10.4476 -8.31129 -2.91839 16
837 1 -13.1292 5.96558 3.18863 21
838 1 -10.6303 -4.34784 -5.05479 22
839 1 10.2018 13.879 8.87661 12
840 1 -4.77523 -12.25 7.75085 22
841 1 3.03021 5.15155 17.5248 10
842 1 10.5282 -2.36132 10.9773 15
843 1 7.93304 -1.69337 2.05864 21
844 1 -13.0537 2.00767 3.29099 18
845 1 1.05503 12.6003 9.03489 22
846 1 -0.938117 10.5351 -8.65096 19
847 1 -1.66171 -11.0807 -12.7988 14
848 1 -6.12565 16.9628 7.78044 12
849 1 -13.1444 -10.5027 3.9107 14
850 1 5.52955 14.2479 -2.96919 15
851 1 -3.64459 10.4042 15.5379 14
852 1 13.6082 2.64822 -6.04764 15
853 1 5.83122 -4.33139 13.3487 12
854 1 -0.985797 13.6957 -12.0171 16
855 1 7.60026 10.7909 -9.6822 16
856 1 -6.14209 -1.32258 10.9411 21
857 1 13.7266 3.9449 8.20093 11
858 1 -2.9028 -2.64985 -16.613 11
859 1 12.9797 11.0665 0.423876 19
860 1 -13.9392 -1.68651 -0.828287 20
861 1 -5.75252 -11.5903 14.5511 11
862 1 7.46272 12.9393 -4.72562 15
863 1 6.49083 1.94128 7.03422 19
864 1 -5.1476 -8.8569 -4.01997 22
865 1 -4.7245 16.9698 4.72845 13
866 1 -14.4521 5.62936 -0.326977 15
867 1 13.1634 2.05559 -9.25869 13
868 1 -0.0592169 -12.5228 -9.55337 18
869 1 -10.8817 10.8694 0.921287 17
870 1 16.3425 7.02359 -2.25815 8
871 1 -6.2493 -1.24925 7.57824 19
872 1 5.79441 0.473542 -14.5948 21
873 1 -8.85952 -6.82139 -12.0812 15