ITEM: TIMESTEP
34000
ITEM: NUMBER OF ATOMS
1500
ITEM: BOX BOUNDS pp pp pp
-30.0 30.0
-30.0 30.0
-30.0 30.0
ITEM: ATOMS id type x y z Coordination
1 1 -2.6962 -18.0606 -8.18541 9
2 1 6.96153 -11.4064 4.53724 20
3 1 -8.96622 0.15906 -11.6448 13
4 1 -5.27193 -2.4526 -9.82418 23
5 1 4.29161 -8.57847 10.9325 16
6 1 -7.29132 -4.68072 -13.4578 15
7 1 -3.202 0.58618 -4.75005 21
8 1 -1.51783 -14.6645 3.72825 12
9 1 -9.54964 -8.98606 4.29483 18
10 1 3.52825 -1.30808 13.9597 15
11 1 4.4096 -3.59408 2.74001 24
12 1 0.0100184 0.571135 9.34693 20
13 1 5.87365 -8.75283 -0.521862 21
14 1 -1.22258 4.97022 -7.7592 21
15 1 2.22009 -1.85112 16.9315 5
16 1 16.4834 -0.228526 3.76158 11
17 1 7.31889 5.47534 -16.6943 9
18 1 7.47729 0.148083 -13.8418 20
19 1 -6.22913 -3.10393 -1.5621 20
20 1 -0.0908586 -5.65082 -10.3716 16
21 1 9.84593 -15.2014 4.01043 13
22 1 6.7568 -2.50868 5.18482 23
23 1 11.1709 -13.0093 -3.94977 18
24 1 -4.36016 -11.5646 -9.71725 25
25 1 4.83446 -6.71006 -8.03549 23
26 1 3.59665 -4.28871 -15.7149 22
27 1 2.19457 1.17461 14.8945 11
28 1 1.68236 -14.1841 5.46617 16
29 1 14.0806 -6.44265 9.99496 13
30 1 -6.03575 -4.98193 0.914872 21
31 1 -9.45092 -2.76005 -1.78386 21
32 1 0.527442 7.87233 -3.03265 21
33 1 2.79283 0.0113892 -10.4994 24
34 1 4.96328 -3.83509 -18.4236 16
35 1 0.121508 -3.51224 12.5355 14
36 1 -7.49416 4.93968 -7.69184 15
37 1 3.41642 9.4877 4.48278 17
38 1 -5.93843 6.36312 -10.0376 14
39 1 4.57069 11.8057 -6.57963 13
40 1 3.11432 -15.1325 -2.51131 23
41 1 9.53884 -9.99379 -8.51848 22
42 1 -4.44213 0.780642 6.23364 22
43 1 -8.42554 -8.13725 -10.6169 18
44 1 10.7647 -3.81669 1.64909 21
45 1 -6.2343 2.28333 -7.04995 22
46 1 -6.61417 -14.1902 5.98769 11
47 1 -7.37364 2.00401 -13.6205 13
48 1 6.45702 1.6748 -8.82395 21
49 1 7.58082 2.17775 2.02838 22
50 1 3.24069 -2.1608 5.40585 21
51 1 8.49882 -14.2314 -5.50821 18
52 1 7.40511 2.17038 10.3949 19
53 1 6.4352 -5.74795 -11.3485 19
54 1 11.227 -13.4918 2.30054 17
55 1 -4.41935 -8.03962 1.26834 23
56 1 7.06243 -7.64533 11.304 14
57 1 -8.09485 -14.763 3.23934 11
58 1 -4.97789 -6.04136 -1.35876 21
59 1 15.7769 -2.9117 4.07225 21
60 1 9.98957 -6.60776 -6.57907 20
61 1 6.59177 5.12172 10.2122 13
62 1 9.87563 -2.23206 4.18788 19
63 1 -7.05439 -5.81553 3.75564 22
64 1 -5.98806 -8.61286 -9.28046 22
65 1 -4.49603 3.8226 -4.68278 22
66 1 -0.794473 0.10587 -10.3353 23
67 1 8.69787 -3.06179 -6.26833 20
68 1 6.64207 -4.35718 -8.31255 24
69 1 11.8628 -8.84829 -1.0298 20
70 1 12.4233 -13.3718 5.8037 10
71 1 -4.25033 5.00563 -7.71937 19
72 1 -5.46073 3.10727 7.62048 20
73 1 -3.80386 4.6662 10.0935 12
74 1 0.809891 -9.98924 8.57354 17
75 1 15.9652 -6.04177 -12.2672 11
76 1 -13.1011 -1.40446 3.427 10
77 1 5.89159 -9.93961 -9.08171 21
78 1 5.67427 3.64996 -14.1425 21
79 1 1.85715 -5.0026 -18.2103 18
80 1 1.90832 8.84814 -6.15599 17
81 1 -2.51379 -1.05114 -12.9095 24
82 1 -1.26342 10.9911 -7.92744 11
83 1 0.881503 6.23511 -0.402994 22
84 1 -0.109746 -8.00789 6.16315 20
85 1 1.09923 -8.7033 -10.3598 19
86 1 7.49814 -7.71611 -13.65 19
87 1 2.04417 -2.28575 10.9268 19
88 1 -10.322 -4.96981 -4.44199 18
89 1 16.8222 -9.80448 -2.99925 10
90 1 -6.99492 -10.7842 -3.63293 20
91 1 10.3011 -11.8205 -1.20326 25
92 1 -3.96163 6.50247 2.49102 16
93 1 8.65887 -4.10452 -18.1535 14
94 1 7.92459 2.46735 -11.697 23
95 1 13.421 -11.4069 -5.96446 15
96 1 2.1156 -13.7312 -0.0209403 19
97 1 -2.29951 -12.1585 -7.54175 21
98 1 -8.84952 -3.43898 3.34263 19
99 1 7.40285 8.10123 1.43572 22
100 1 7.29809 2.04104 -3.26462 22
101 1 0.371562 10.5657 4.44244 12
102 1 -2.68112 6.27419 -5.32583 18
103 1 1.71739 -6.80679 -15.4194 22
104 1 15.4981 -3.16421 9.62896 11
105 1 5.4064 4.82844 -8.75566 21
106 1 13.3304 -3.76241 -9.52882 21
107 1 -4.53837 7.98995 -11.7968 12
108 1 -4.83302 11.028 -2.88207 9
109 1 15.5928 0.0884825 -13.5373 12
110 1 7.1332 -11.9345 -0.903788 21
111 1 -4.32174 2.06343 -12.5449 19
112 1 6.71357 8.16672 -3.79614 25
113 1 12.2062 4.76603 -4.07995 22
114 1 -1.92717 6.64251 0.387225 22
115 1 0.526744 -2.68755 -20.878 10
116 1 8.46092 12.7838 1.41363 11
117 1 -8.24557 -6.14338 -7.26859 22
118 1 16.8895 -5.90588 -6.73583 13
119 1 3.65751 3.43469 5.59077 21
120 1 -1.4397 8.40859 -12.5926 14
121 1 9.61243 -3.59409 7.32559 18
122 1 -10.8324 -9.70611 1.7185 12
123 1 -3.65083 -6.18697 3.63716 23
124 1 4.13331 -16.3684 -8.88972 12
125 1 -1.28547 5.77767 -14.8 13
126 1 0.608944 6.08007 -5.81754 20
127 1 13.7517 7.6742 -4.44589 15
128 1 4.86772 -13.2221 10.6966 9
129 1 -4.71209 -0.164982 -2.01197 21
130 1 4.0832 12.1141 -0.940633 15
131 1 6.60069 2.20876 7.56092 23
132 1 5.48132 11.4976 3.6551 13
133 1 -2.27902 -2.87154 -9.97738 22
134 1 14.4847 -12.5078 -3.0076 11
135 1 2.02653 -7.10256 8.47687 20
136 1 -10.7812 -1.97448 1.5058 21
137 1 -9.01062 -11.9859 5.5518 13
138 1 -11.6129 -0.362322 -6.59163 11
139 1 -0.457085 -18.2033 -0.0391929 12
140 1 -1.62545 -8.54232 -4.63475 20
141 1 5.19228 -14.3812 -0.665079 23
142 1 -0.714653 11.5257 1.19865 14
143 1 -3.06915 -2.18773 5.9517 19
144 1 -3.84292 0.0123456 -10.026 20
145 1 -0.757752 5.75883 -11.5497 21
146 1 -9.95454 -8.56851 -7.49729 19
147 1 -9.00459 -7.13918 8.99705 14
148 1 -4.31478 -11.6494 3.01756 17
149 1 8.87483 -13.4779 6.52838 15
150 1 15.5083 -0.985845 -4.22862 20
151 1 7.89433 -1.40433 -8.59666 20
152 1 10.3733 -1.05159 12.8635 10
153 1 5.4824 3.22253 -18.7024 11
154 1 8.92261 -3.24535 -14.582 25
155 1 -4.31715 -6.96639 -12.3425 19
156 1 3.15861 10.4625 -13.3081 9
157 1 -6.51223 8.2244 -2.89382 13
158 1 7.51255 -5.34116 10.4415 18
159 1 -1.76418 -13.6093 -10.5949 16
160 1 1.49509 7.91842 -13.9639 15
161 1 8.26436 4.65289 -8.81753 19
162 1 -4.01967 -2.05232 0.515147 21
163 1 -0.632179 7.48922 5.47962 17
164 1 3.38661 -12.1628 -13.8473 10
165 1 -3.18942 -15.1395 -1.95374 20
166 1 9.42447 -15.2472 -2.77019 15
167 1 6.55882 -9.6489 -3.27343 21
168 1 8.83646 8.87933 -5.60744 22
169 1 2.68811 5.34346 -2.62796 21
170 1 -8.55087 -3.15584 6.31688 21
171 1 4.9014 2.27446 12.9436 12
172 1 18.9626 -2.62372 -1.42505 12
173 1 5.147 6.23179 5.17976 19
174 1 -9.12184 0.480866 1.35392 21
175 1 -11.6419 -9.34748 -5.19671 10
176 1 12.6295 -0.0813296 -11.7507 21
177 1 6.58139 -4.10799 7.78829 20
178 1 13.7123 5.76488 -7.14213 18
179 1 6.38305 -11.461 -6.43357 25
180 1 -0.884254 -4.95595 -17.9002 13
181 1 11.3386 -1.01105 -9.00092 21
182 1 -5.45049 -3.00491 3.66776 21
183 1 2.32126 -17.1683 -5.13778 15
184 1 -8.09362 -10.9446 -9.16012 15
185 1 7.18348 11.0937 -7.48553 15
186 1 5.32134 0.759863 -21.4266 8
187 1 7.50906 -2.11924 12.7977 14
188 1 20.3879 0.390675 -1.41168 6
189 1 -1.26182 -7.97198 0.188869 20
190 1 13.0237 -5.73948 -11.9698 19
191 1 -7.65774 -11.4165 3.13287 18
192 1 -3.34924 -2.85388 -15.4188 18
193 1 -7.07128 -5.54405 -10.5285 19
194 1 13.7159 -4.10051 11.5855 10
195 1 8.61087 -12.4566 2.33048 20
196 1 -0.857109 -8.50222 -13.1044 19
197 1 6.11044 -6.75764 2.47051 21
198 1 6.42688 5.33996 -11.4881 22
199 1 7.79872 6.42696 -0.950334 20
200 1 -5.72597 -9.03948 4.28594 20
201 1 2.24754 9.81146 -0.83436 25
202 1 -3.25451 -8.18398 9.79751 16
203 1 -8.3011 -7.67706 -4.45724 21
204 1 -4.24193 -5.51604 -9.70239 19
205 1 -0.201128 -9.16629 -7.31423 21
206 1 1.42914 -17.6769 -2.31706 13
207 1 16.1277 -2.8327 -1.37103 20
208 1 -1.92386 -6.46623 -7.41944 20
209 1 -5.98531 -7.31352 7.38755 21
210 1 6.11925 -15.179 -3.38454 20
211 1 2.32405 -12.4096 2.42999 19
212 1 -0.126822 12.2859 -5.2793 11
213 1 4.18097 -1.17951 -13.2426 22
214 1 -3.2985 0.673733 -17.7675 11
215 1 -1.46816 -13.2839 -0.330577 19
216 1 -2.77497 -7.45557 -16.8322 13
217 1 -7.19311 -0.156827 -9.47959 20
218 1 13.779 1.77453 1.75227 20
219 1 -0.889466 -3.48927 -12.7639 22
220 1 1.31314 2.92487 -10.7135 24
221 1 5.13216 -6.92841 8.30975 17
222 1 -5.04926 8.10873 -8.13564 13
223 1 4.16022 7.84336 2.42824 21
224 1 14.0444 -3.62392 0.832813 21
225 1 -2.18966 2.93126 8.0058 19
226 1 2.23442 -5.7546 11.6211 17
227 1 -3.8627 7.71614 5.38666 14
228 1 0.582298 -2.99537 -15.5812 21
229 1 10.2574 -11.5405 4.86957 19
230 1 0.926321 -1.55466 8.31579 19
231 1 -9.75582 -10.5468 8.9259 11
232 1 11.7652 -9.11403 -6.47916 20
233 1 8.03112 -7.16684 -8.50739 22
234 1 9.78829 -11.4697 -6.59872 23
235 1 -4.72308 -15.5858 3.90544 13
236 1 -6.25728 6.58632 -5.53358 16
237 1 5.91279 -0.669075 2.34878 23
238 1 12.4575 3.04488 9.72363 13
239 1 -7.26417 -1.92807 1.37736 21
240 1 10.6717 -12.5803 -9.40581 15
241 1 -2.82375 8.36877 -3.07484 20
242 1 -8.19012 4.9086 -1.72823 17
243 1 10.9028 -9.29666 6.89534 19
244 1 13.8241 -9.22231 1.39302 17
245 1 1.10906 2.39568 3.05619 23
246 1 -3.16226 -5.32676 -4.29322 20
247 1 0.825853 -0.373631 13.3721 14
248 1 0.800417 12.6667 -1.66412 13
249 1 -2.07768 2.61156 -10.3383 19
250 1 -7.44867 0.934967 9.64693 13
251 1 -10.9576 4.16879 -3.60285 12
252 1 -2.50904 -8.94502 -9.68956 21
253 1 -8.23352 0.384618 6.8456 18
254 1 12.3956 -6.63802 1.50961 20
255 1 -6.24456 -16.6269 1.38566 12
256 1 3.51157 -11.3078 4.88964 22
257 1 -8.90624 6.42068 -4.46931 11
258 1 9.45075 -6.35331 7.51925 18
259 1 6.15823 -11.6029 -11.8228 16
260 1 2.81087 -1.61842 -17.5263 20
261 1 12.2185 -4.99203 -15.3457 13
262 1 3.72002 8.07864 -3.45695 19
263 1 -8.14177 -5.9823 -1.41406 18
264 1 3.94387 -7.17197 -17.3025 15
265 1 -3.85432 -16.9745 -4.8152 15
266 1 -8.88574 -11.6816 -6.16106 14
267 1 0.475107 -9.24139 -2.21563 19
268 1 13.7641 1.72792 -4.58857 23
269 1 -5.29068 -1.93766 -17.5831 12
270 1 -10.1022 -5.74898 -9.49037 16
271 1 -7.67112 3.21866 0.935973 17
272 1 -6.8231 9.80045 -5.55587 9
273 1 -0.461136 5.33025 2.60853 19
274 1 13.1938 -6.02227 -7.07846 20
275 1 16.6832 -4.04169 -9.34549 12
276 1 -2.59805 2.6493 -1.94494 21
277 1 2.98817 -11.6523 -5.59185 20
278 1 4.31643 2.39965 2.22444 22
279 1 -7.96975 -1.96399 -4.16825 23
280 1 4.49617 -14.574 -5.85814 20
281 1 14.3682 -5.2448 4.05006 20
282 1 -5.06408 -6.28823 -6.66343 22
283 1 -4.9246 -13.8528 0.915281 21
284 1 -0.609433 9.34399 -0.644122 18
285 1 -7.72909 -13.4827 0.531178 17
286 1 -13.6102 2.56532 -1.81415 6
287 1 8.31956 10.4386 -10.11 10
288 1 11.8183 6.11643 4.32479 11
289 1 -9.16235 -11.4545 -0.557451 12
290 1 8.88023 -13.0481 -11.9781 11
291 1 -11.6339 -2.7668 5.84925 12
292 1 -9.85457 2.83504 -6.69697 12
293 1 0.476336 -9.13749 2.84327 22
294 1 1.1138 -17.7395 -8.57561 11
295 1 7.00248 2.20892 -16.3181 19
296 1 -7.69456 -1.42681 -14.8635 11
297 1 3.12042 -17.3875 0.0202971 15
298 1 15.8443 3.08475 4.16423 11
299 1 4.49416 -5.20576 5.1913 20
300 1 -8.07312 0.0185409 -1.23335 21
301 1 -5.25131 2.76063 3.57295 18
302 1 3.12159 -15.4648 2.53955 17
303 1 4.59678 -8.50323 -11.5581 24
304 1 7.91274 -10.8225 -14.2298 9
305 1 9.68787 -8.36659 9.59119 17
306 1 -8.88973 -6.01016 6.02049 23
307 1 9.07724 -8.26051 4.39324 20
308 1 11.2474 -10.6237 -11.9471 12
309 1 -0.170694 -11.9962 -13.5011 13
310 1 2.70771 -8.10008 4.66204 20
311 1 5.06875 -8.77934 -6.36361 23
312 1 2.39199 1.82326 -13.4607 20
313 1 9.33232 -14.6701 0.154271 16
314 1 -2.1894 7.52465 -9.35007 17
315 1 -2.29611 -5.95731 11.7073 11
316 1 0.573281 -10.8031 5.33488 21
317 1 12.9414 -9.04865 8.90675 15
318 1 12.1962 -1.11648 -3.85002 23
319 1 -5.39949 0.818389 1.19417 21
320 1 4.74375 -0.902965 -8.13698 24
321 1 13.9907 -9.9544 6.06715 15
322 1 12.5314 2.85292 -1.30163 22
323 1 -2.03995 -2.32045 8.85781 22
324 1 5.77216 4.96711 -2.73006 22
325 1 12.4692 -8.19532 4.19758 21
326 1 -1.9817 -13.9722 -4.98284 21
327 1 -1.3794 10.8295 -2.67212 18
328 1 -4.07709 -16.0118 -10.6946 9
329 1 2.57585 0.89931 11.0645 20
330 1 -1.84051 -5.22232 6.20567 22
331 1 -5.07326 -12.2788 -1.63626 21
332 1 -8.94649 2.70689 4.06391 13
333 1 -5.62528 -11.862 -6.70231 21
334 1 -6.21315 5.90105 4.99112 15
335 1 0.946802 -6.5938 -12.8833 21
336 1 -0.836172 -9.63327 -15.772 14
337 1 0.223805 -14.8731 -2.10328 21
338 1 -0.371103 -6.28002 3.348 25
339 1 12.9931 -2.75644 3.57805 20
340 1 -4.45531 -11.2802 10.2437 11
341 1 -4.66136 -0.0250189 -15.1996 19
342 1 11.703 2.8961 -6.7004 21
343 1 -2.88591 -15.9929 1.19558 16
344 1 3.4187 2.0809 -8.26965 23
345 1 2.32899 10.8903 -4.06692 20
346 1 2.04923 4.62799 -7.5786 22
347 1 1.33736 3.17646 8.8424 18
348 1 -9.50362 -3.19155 -6.17726 20
349 1 5.81823 11.1992 -3.70988 18
350 1 -4.20226 -14.6964 -7.50911 20
351 1 1.31463 -14.6591 -9.8991 13
352 1 5.33103 0.233071 -18.4183 17
353 1 -5.87707 6.79784 0.078304 16
354 1 7.80071 0.967641 12.68 15
355 1 10.3432 6.05789 -6.46085 20
356 1 8.97464 4.90532 -4.04294 23
357 1 -3.5232 4.95945 -12.2044 17
358 1 4.46398 2.75302 -11.0159 22
359 1 3.97105 -9.20485 2.42966 23
360 1 -11.7277 -4.42242 -1.59328 12
361 1 -3.02692 3.34948 -15.0967 16
362 1 15.5733 5.09435 -4.20659 15
363 1 9.04244 -8.9285 -0.179841 20
364 1 18.6442 3.24917 -2.03468 8
365 1 7.95788 -3.07379 -11.3378 20
366 1 3.95237 -11.1596 -0.620233 23
367 1 3.56239 -15.6482 6.34837 11
368 1 7.43276 -13.4949 9.27744 10
369 1 -6.01379 4.75631 -12.9887 13
370 1 -1.04316 -10.9816 -10.9145 20
371 1 0.66028 -1.11026 -13.1298 23
372 1 4.65936 -7.1036 13.6934 11
373 1 -10.0635 -8.69142 -1.92011 12
374 1 14.5965 -2.86754 -12.466 16
375 1 16.8519 -4.41092 -3.68131 15
376 1 -0.96777 5.54221 -2.95721 20
377 1 2.42494 -11.4878 -11.0575 17
378 1 5.89533 -0.107443 -10.9151 22
379 1 9.80456 -4.22879 -8.73631 22
380 1 -7.03674 -4.79167 8.73547 17
381 1 7.16868 12.5051 -1.50904 14
382 1 -3.85532 -9.18337 -14.4515 13
383 1 0.348848 -4.68532 8.99469 20
384 1 -3.43643 9.6457 -5.78968 14
385 1 -1.69718 0.0328473 -15.7249 19
386 1 -9.87368 -0.651091 4.54133 18
387 1 -5.38935 -11.0165 6.98426 20
388 1 4.24643 7.08768 -14.6822 12
389 1 17.165 0.176674 -1.85702 17
390 1 -5.93451 -15.9108 -1.98756 17
391 1 0.269856 -10.9684 0.238803 20
392 1 -2.36361 8.7574 2.80645 19
393 1 2.87664 -5.81779 -10.4605 22
394 1 6.22809 3.55041 -0.576284 21
395 1 14.0011 -6.204 -1.51082 19
396 1 10.5685 11.5958 -7.19431 13
397 1 7.99359 -9.66902 7.01128 18
398 1 -1.27007 0.224731 6.38399 24
399 1 9.95064 4.36768 9.68758 16
400 1 2.81715 1.83302 -17.8696 17
401 1 -3.94702 -9.2855 -6.88623 21
402 1 2.24595 -11.4012 10.3543 11
403 1 9.13504 7.2564 7.85613 7
404 1 12.9118 7.71087 -10.3177 10
405 1 -2.68718 11.1123 -11.8906 7
406 1 1.75383 11.125 -7.63182 16
407 1 13.0206 -0.761317 10.3763 16
408 1 14.7167 -0.994354 -9.92791 18
409 1 -6.6477 -8.77569 -1.39351 20
410 1 3.31343 -4.08072 8.39115 20
411 1 4.17669 8.5431 -11.5661 16
412 1 0.89619 -14.3101 -5.02078 18
413 1 11.3222 -2.7779 -11.5499 18
414 1 0.604758 12.1835 -10.8959 9
415 1 -2.48139 -2.11108 -19.498 13
416 1 7.11854 -16.0305 6.57115 9
417 1 -11.6569 -1.81843 -3.4645 15
418 1 -4.70624 -2.16487 -4.47842 19
419 1 -1.17299 -10.141 11.5292 9
420 1 5.26177 3.27459 -6.05083 23
421 1 4.93935 -9.66244 -15.1168 13
422 1 8.02359 -11.1744 10.8506 11
423 1 11.9831 -3.11514 -6.33263 20
424 1 -7.798 3.70439 -4.5398 20
425 1 10.1527 -9.6436 -3.61404 23
426 1 7.07914 5.10562 6.95163 17
427 1 2.54193 -4.10847 -13.203 22
428 1 8.52738 10.5082 3.70161 10
429 1 10.7201 -0.324855 -14.1083 18
430 1 5.88533 -2.10135 -16.1843 23
431 1 -3.70654 -11.3239 -5.03673 21
432 1 -6.94068 -7.69854 -14.0309 12
433 1 15.4415 2.90353 -1.91751 16
434 1 14.8262 3.23621 -7.21409 19
435 1 9.22399 -5.74193 -12.2155 21
436 1 7.56382 -12.9603 -8.39432 19
437 1 9.22934 5.15041 1.72172 19
438 1 -3.62262 -5.46317 8.45987 16
439 1 10.9278 2.31834 1.44692 21
440 1 17.1555 -8.30806 0.345912 12
441 1 12.2959 5.28287 -12.6193 13
442 1 7.96852 -2.1153 10.0733 20
443 1 11.19 -6.26722 10.8601 13
444 1 10.5751 0.0770664 -1.17036 23
445 1 6.39118 -5.05381 13.9899 10
446 1 15.0731 -3.36547 -6.76655 20
447 1 13.2361 1.34261 7.16854 19
448 1 -8.39951 -3.08466 -11.1229 17
449 1 13.7579 4.51083 0.955877 16
450 1 15.2277 -10.3974 -0.487316 13
451 1 3.63497 -9.07259 -2.98252 20
452 1 10.9382 -1.35182 7.19046 21
453 1 4.68237 7.24599 8.34009 14
454 1 12.7006 3.22935 4.29544 24
455 1 -1.14419 8.83463 -6.40679 22
456 1 11.6632 4.79943 -9.27424 19
457 1 12.6072 1.09436 -15.0284 12
458 1 3.9746 13.3374 -3.20732 11
459 1 4.37372 -12.7309 -8.61688 17
460 1 -12.6187 -4.8224 2.15153 9
461 1 -4.01165 -5.11372 -18.3023 10
462 1 -3.81247 -18.215 -0.960812 9
463 1 -6.1613 -0.809221 -12.5962 22
464 1 -9.84073 -2.14632 -8.87795 14
465 1 13.925 -11.2297 3.40523 16
466 1 13.7538 0.162848 4.7556 19
467 1 7.8437 -5.22243 4.83437 21
468 1 -9.72745 -6.31617 -12.6265 13
469 1 7.2016 -9.77889 2.04244 21
470 1 -2.55089 2.16176 11.5448 15
471 1 6.74144 7.61775 -9.48059 21
472 1 9.1101 -0.173927 -11.2394 22
473 1 6.44672 -15.9769 -6.92724 11
474 1 15.2841 -4.64801 6.8389 15
475 1 12.719 7.49865 1.91435 9
476 1 14.9335 -8.48273 -6.07778 16
477 1 -1.98063 1.99841 3.32604 20
478 1 -7.81306 -7.87432 1.52405 23
479 1 -6.56198 -3.16167 -6.93294 22
480 1 10.7846 -2.97693 10.3464 16
481 1 -2.00371 -10.9008 8.04119 17
482 1 10.3315 1.04511 10.2319 20
483 1 0.724656 7.28909 -9.31531 17
484 1 10.5093 1.94847 -3.61748 23
485 1 12.3633 -0.846529 1.52418 24
486 1 8.36996 -0.873024 -16.9676 18
487 1 -11.9588 -7.64132 8.215 9
488 1 13.7345 -1.59964 -15.4485 13
489 1 1.30482 -6.31367 -7.85977 20
490 1 13.1176 -9.90974 -8.86343 16
491 1 10.9992 0.643579 4.20138 22
492 1 9.40625 3.19265 -1.0445 20
493 1 14.1086 -2.08246 6.45163 17
494 1 3.02547 -4.71344 14.8335 11
495 1 -0.689091 4.87121 10.2584 12
496 1 6.83154 -1.8621 -19.7141 13
497 1 -3.44955 3.65585 5.30966 17
498 1 4.92455 -1.26938 7.72581 22
499 1 13.83 5.85894 -1.27584 15
500 1 11.9679 -13.9469 -6.87889 11
501 1 -1.61967 -0.733068 -7.44448 22
502 1 11.0067 5.78613 -1.29587 19
503 1 10.2334 12.0808 -1.52698 11
504 1 2.99253 -0.381747 2.57145 22
505 1 5.06304 10.7276 -9.64171 14
506 1 15.1314 5.66086 3.65646 11
507 1 1.06016 -12.1781 -8.24406 21
508 1 3.73871 -1.32113 -21.201 14
509 1 -7.35198 3.21661 -10.5886 15
510 1 11.0261 -7.22139 -13.2529 17
511 1 14.1179 0.156435 -1.37508 21
512 1 8.82718 4.98708 -13.3808 16
513 1 12.4294 11.1955 -4.74621 10
514 1 4.96218 0.363175 5.35657 24
515 1 -5.77058 2.58409 -2.45466 20
516 1 8.55774 2.77871 -6.16849 21
517 1 2.03711 -12.5131 7.60295 15
518 1 0.151038 2.81301 -15.8764 17
519 1 1.62541 6.58721 4.93605 21
520 1 11.2904 -5.28249 4.76578 22
521 1 10.67 7.96082 -3.90046 20
522 1 10.6137 10.2949 1.0464 14
523 1 15.0605 -6.9145 -9.50213 17
524 1 -10.3901 -6.41015 3.04933 18
525 1 4.68276 -17.7826 -3.15887 14
526 1 2.49092 -9.77971 -16.7199 13
527 1 1.48488 0.525107 5.73533 24
528 1 8.25391 -8.68362 -5.5879 20
529 1 1.64972 9.44387 7.20994 10
530 1 -12.062 -6.73129 5.46205 10
531 1 12.4648 -14.2205 -1.01174 12
532 1 9.63692 1.80322 -8.82463 21
533 1 4.9065 -12.3389 -3.58808 24
534 1 2.47848 10.6507 2.08809 15
535 1 6.67976 -5.38606 -15.7403 19
536 1 4.85744 -13.3469 7.19588 19
537 1 5.82587 8.9602 -1.12958 21
538 1 -1.46566 -1.28712 11.557 14
539 1 -6.16671 -13.619 -11.4057 10
540 1 4.51279 -2.95003 -10.9009 23
541 1 0.82173 8.02549 2.03375 23
542 1 9.02424 -15.2295 -8.80979 11
543 1 4.06794 -10.086 7.36036 18
544 1 -0.885775 -15.5233 -7.70974 17
545 1 -10.5084 -4.52237 8.90155 10
546 1 1.27331 -2.71143 -10.5462 23
547 1 -1.28246 -17.4788 -5.55372 16
548 1 -7.09999 -0.272462 3.93558 22
549 1 14.6855 4.87321 -10.4477 13
550 1 -4.01446 3.96695 0.362969 18
551 1 -8.10799 5.72027 2.12845 11
552 1 10.6229 -5.98102 -0.66246 21
553 1 3.325 7.5415 -8.79095 19
554 1 14.2588 2.63051 -12.8901 15
555 1 13.5987 -0.185707 -6.7851 23
556 1 -11.7994 -6.30668 -6.94178 13
557 1 -5.62828 -14.2744 -5.00865 17
558 1 5.21704 8.33993 -6.74241 20
559 1 -0.240417 -2.41262 5.64196 20
560 1 -0.137038 -7.66508 9.99743 15
561 1 4.351 -6.28194 -13.4665 21
562 1 -2.989 2.13791 -7.40126 21
563 1 6.79354 8.7104 5.3042 17
564 1 -3.48007 -8.41634 6.13458 18
565 1 10.9242 2.38773 -12.4145 19
566 1 4.05327 -18.6945 -6.5345 9
567 1 9.56599 3.10678 -15.0289 15
568 1 0.29417 -7.58802 -18.4259 12
569 1 3.43901 1.2106 8.03439 19
570 1 4.04448 0.47525 -15.6096 21
571 1 -4.90452 -8.12061 -3.99134 21
572 1 8.84087 -6.98 -3.1101 20
573 1 -0.168447 -11.2427 -5.30338 22
574 1 13.1263 1.73996 -9.26554 23
575 1 13.6355 -9.94519 -3.1868 18
576 1 -4.18489 1.10308 9.65902 16
577 1 13.151 -11.9393 0.256209 17
578 1 17.3129 -5.39588 -1.06795 16
579 1 11.0512 -10.1708 2.03462 23
580 1 8.02402 6.45756 3.99071 15
581 1 -4.69647 -1.03481 11.5245 13
582 1 0.35391 -15.8238 1.43981 17
583 1 12.352 -3.00075 -1.02108 21
584 1 9.82453 3.42135 12.0177 9
585 1 -11.0719 -0.255996 -1.22175 18
586 1 7.84982 -12.4105 -3.71873 22
587 1 9.20994 8.95145 -1.81937 19
588 1 5.32475 -3.52499 11.4267 19
589 1 2.77818 5.18161 2.5481 22
590 1 5.86581 -8.54916 5.42567 21
591 1 -6.81431 -5.14402 -4.00637 22
592 1 8.2142 -0.593994 7.80711 20
593 1 4.28017 6.64525 -0.259437 21
594 1 -7.69769 -12.4882 8.87724 12
595 1 17.6112 -5.57102 4.35376 10
596 1 16.0068 -8.45494 3.48208 13
597 1 7.74564 0.615698 4.71253 22
598 1 -1.28045 3.15117 -4.91238 20
599 1 -5.8828 -10.2158 -12.0031 16
600 1 1.47541 0.390023 -15.6601 21
601 1 -4.28443 -3.54031 10.4556 14
602 1 5.51334 10.6884 1.13582 19
603 1 17.8194 -2.7 1.6321 18
604 1 9.62138 6.77735 -10.8128 18
605 1 0.529978 2.89519 12.1051 13
606 1 9.54006 3.63479 4.58041 23
607 1 9.69306 -6.03567 -15.4474 14
608 1 -6.30279 -10.9213 0.581578 18
609 1 -3.33481 -3.61956 -7.00915 24
610 1 19.082 -5.27479 1.29511 11
611 1 6.05075 -3.64194 -13.7798 22
612 1 2.68029 -9.6705 -8.3176 22
613 1 16.1751 -5.51243 1.80456 20
614 1 5.56904 -10.9224 12.4544 9
615 1 -2.48329 -5.86497 -13.817 15
616 1 8.96285 11.1676 -4.27994 18
617 1 -2.37769 -9.03927 3.73721 24
618 1 -10.3963 -1.02552 8.15675 12
619 1 15.9899 1.90882 -10.2992 14
620 1 11.3385 -2.56459 -16.6798 11
621 1 -6.13091 8.64569 3.08095 11
622 1 1.97707 1.31732 -21.3049 8
623 1 12.0084 -7.0249 -3.76803 20
624 1 -9.84771 0.959577 -4.28836 19
625 1 11.5979 4.35708 6.94475 16
626 1 -8.14447 -13.3945 -3.21478 13
627 1 6.29825 3.2609 4.50634 19
628 1 -11.3554 -8.64853 -10.0003 9
629 1 -5.8633 6.77769 7.77195 9
630 1 -0.0599536 2.03005 -7.79371 23
631 1 7.97289 -8.94246 -11.2074 19
632 1 -7.13229 -9.25066 -6.25318 21
633 1 13.7823 -9.01485 -12.0147 12
634 1 -10.2708 2.45872 -1.20316 16
635 1 -12.3725 -7.19483 -3.40555 8
636 1 -12.2249 -9.75027 5.24047 9
637 1 12.8337 -6.83872 6.86351 17
638 1 9.25893 -6.758 2.30877 24
639 1 -12.8671 0.733271 0.910417 10
640 1 1.1333 6.64348 8.37447 14
641 1 3.27038 3.94736 -15.9814 15
642 1 -4.03129 9.6619 0.326389 15
643 1 12.1063 8.67273 -6.85422 17
644 1 3.54937 5.35462 11.5641 8
645 1 10.5386 -11.7751 8.54027 13
646 1 6.93041 7.6603 -13.1148 12
647 1 -7.38005 -1.75135 9.71037 12
648 1 2.33363 -9.39859 -13.8077 22
649 1 -9.26452 -4.72649 0.968764 19
650 1 -3.15466 -10.6832 0.0276854 21
651 1 5.69195 0.0690432 10.6448 20
652 1 -0.890804 -20.2846 -3.16244 5
653 1 -8.27242 3.53211 7.57116 8
654 1 16.6341 -0.149503 -7.19669 14
655 1 -4.31384 5.64169 -2.01564 19
656 1 -5.61214 -1.63776 7.14953 19
657 1 -3.38352 -13.1081 -12.7367 13
658 1 1.7708 -11.9203 -2.98049 25
659 1 7.06194 -17.1355 -0.817269 10
660 1 -0.0168721 11.1343 -13.5041 8
661 1 13.7725 -3.96867 -3.6024 22
662 1 15.3044 -0.725048 1.0745 19
663 1 17.1129 2.17339 -4.74343 15
664 1 1.51938 4.70459 -13.548 19
665 1 -3.12258 -12.8637 5.55187 13
666 1 10.1756 8.60523 -8.54573 16
667 1 10.2886 -0.122281 -6.25894 22
668 1 -4.91974 -0.461984 -7.24698 22
669 1 7.0091 6.104 -5.79233 22
670 1 -6.60271 -9.38309 9.85486 16
671 1 5.90202 5.15867 1.93365 21
672 1 5.13835 -14.0823 4.34344 20
673 1 3.93113 6.05689 -5.42644 24
674 1 -0.128939 3.57307 5.26826 19
675 1 -5.23592 -4.67308 6.07794 20
676 1 10.5823 -3.81997 -3.39365 21
677 1 -1.34968 -11.963 2.8233 17
678 1 5.37143 -12.528 1.97533 21
679 1 -2.23887 -3.22465 3.21202 22
680 1 9.87198 1.72387 7.24549 21
681 1 11.4182 -7.04054 -9.80983 24
682 1 -5.22199 -5.16683 -15.7328 15
683 1 -0.692259 1.85388 -13.0083 23
684 1 -8.32472 -0.130201 -6.90112 19
685 1 11.986 8.97146 -1.19243 14
686 1 4.46546 4.22764 8.30295 18
687 1 -6.79343 -14.1263 -8.86907 11
688 1 -0.573359 3.04413 0.609439 21
689 1 12.7239 -4.42318 8.80212 19
690 1 -1.77943 -11.5108 -2.68744 22
691 1 15.4351 -3.73526 -15.2635 8
692 1 5.81454 -16.3806 2.28788 12
693 1 -0.164076 0.06581 -18.8214 15
694 1 -4.13922 -3.53991 -12.4779 21
695 1 -3.04028 -8.71377 -1.78716 19
696 1 -6.48923 0.664686 -4.40464 21
697 1 -1.55086 5.41802 7.06211 17
698 1 15.668 -9.4041 8.7925 6
699 1 -7.93377 -9.15898 6.83711 18
700 1 15.7616 -6.96728 -3.81655 14
701 1 2.79711 5.44141 -10.6397 20
702 1 14.6224 3.83346 6.72556 11
703 2 -7.61369 -3.04668 -14.3517 13
704 2 -0.883791 7.54473 -10.7379 20
705 2 4.27923 -3.11258 -13.7109 20
706 2 -1.76683 3.58812 6.20234 17
707 2 -4.7821 -11.8463 -11.8965 15
708 2 3.45837 -2.1869 7.31564 22
709 2 -4.03885 -11.0995 -7.1956 21
710 2 -7.84893 -0.20971 -13.3641 14
711 2 8.01553 8.58005 3.40609 16
712 2 -4.00398 -2.33267 3.00872 23
713 2 12.3218 -0.942904 -1.71426 23
714 2 -1.89407 -2.60506 -7.73357 22
715 2 -8.43708 -12.1284 -4.48512 13
716 2 -4.60577 -2.1305 -2.23118 20
717 2 -2.86985 -10.9861 3.75417 20
718 2 2.39936 -1.04615 12.3255 20
719 2 7.91767 -7.06508 -11.5395 20
720 2 9.25909 -14.4223 2.23938 14
721 2 9.13526 -2.66941 1.47812 20
722 2 -5.71067 7.02384 -1.90956 17
723 2 -6.7842 4.70416 -9.44357 12
724 2 14.2418 2.22841 5.48639 20
725 2 9.07313 -11.7881 -8.48936 21
726 2 -6.87681 -10.7998 -1.56377 20
727 2 -5.35088 -4.9426 3.67409 19
728 2 0.157966 -14.5058 -0.213181 20
729 2 15.6168 -9.125 1.13063 15
730 2 5.43633 -17.6866 -7.70725 9
731 2 5.82385 -9.13805 11.8138 11
732 2 5.9155 7.38026 -11.5663 20
733 2 -5.4551 -17.6358 -0.16538 12
734 2 6.25583 1.50415 12.0245 15
735 2 -6.57177 4.17999 -2.89983 17
736 2 0.226109 -1.32973 10.1442 18
737 2 -5.57371 1.00368 -13.5609 18
738 2 13.008 -10.939 1.89531 17
739 2 -0.00841317 5.56972 5.53786 17
740 2 1.75134 8.32532 -7.95921 19
741 2 5.95067 -11.6981 -8.33539 20
742 2 -3.88409 -3.61481 -10.4398 20
743 2 1.20185 -6.8369 -10.8412 19
744 2 13.0101 -0.345422 -9.73982 20
745 2 1.77454 10.0647 5.43001 13
746 2 8.67292 -1.12186 -14.9843 21
747 2 6.52989 4.18704 -17.7184 9
748 2 14.2447 6.04813 -3.36422 14
749 2 -5.49591 -5.57406 7.94805 19
750 2 -7.0647 6.75635 3.24225 13
751 2 15.8804 0.320887 -9.25743 14
752 2 4.34839 -11.5671 -12.3063 15
753 2 -10.9466 -6.24981 9.30821 8
754 2 14.5912 3.60829 2.76358 14
755 2 -3.96363 2.04765 7.51068 18
756 2 3.00917 -9.27367 -10.5312 19
757 2 -0.970136 9.04578 4.23529 18
758 2 8.87211 -12.1745 9.10053 12
759 2 9.06007 -8.96451 1.97514 19
760 2 -10.0409 0.801472 -2.39665 20
761 2 14.443 -7.22351 -11.3284 15
762 2 11.7252 -12.0805 -6.6377 17
763 2 9.18387 5.13717 -0.988604 20
764 2 11.4032 -10.2832 8.59968 13
765 2 14.0379 -5.45238 1.89561 24
766 2 -3.58209 -5.13722 10.3306 13
767 2 15.6665 -8.75295 -4.27854 13
768 2 3.64917 4.85342 4.46216 21
769 2 12.9523 1.09106 9.17461 13
770 2 -1.19849 1.50197 8.19985 23
771 2 10.3778 5.79855 7.68365 12
772 2 15.4104 -11.0419 -2.78112 11
773 2 7.13367 7.96947 -5.79571 20
774 2 -4.13613 -1.80903 -13.6491 19
775 2 -8.45732 4.01183 2.72772 12
776 2 7.97658 -3.26905 -9.23683 21
777 2 -4.84839 -2.62351 -7.92005 23
778 2 -10.0171 -3.27656 4.98806 21
779 2 -8.4866 -13.1081 -1.2404 14
780 2 17.9808 -6.37828 0.2841 13
781 2 5.77864 -8.5601 1.97857 22
782 2 -0.791124 -5.19686 12.6355 10
783 2 11.8785 -1.19155 -15.2797 17
784 2 8.66622 -0.482289 13.6474 9
785 2 2.91469 3.11069 7.8968 19
786 2 -5.3616 -3.30089 0.372503 21
787 2 2.66761 -13.0231 -9.4971 15
788 2 13.4556 -4.13353 -7.19526 20
789 2 -5.69581 7.70683 6.02322 10
790 2 3.23067 -17.0843 -2.00108 18
791 2 7.77227 -9.07403 -8.90437 21
792 2 8.47566 -1.2231 -6.68278 22
793 2 3.15429 -0.364235 4.65964 25
794 2 11.2766 -9.34937 -8.72105 19
795 2 14.5281 -8.37992 9.82561 10
796 2 -5.94866 -10.616 2.92315 18
797 2 16.1134 1.89072 -6.33208 16
798 2 -0.285015 -10.8701 7.2835 14
799 2 7.32242 4.06317 -13.084 22
800 2 1.86492 -12.3388 5.70277 20
801 2 15.3959 -1.85095 -14.4317 9
802 2 2.72911 -15.2543 -5.33813 20
803 2 16.1226 -6.65823 -1.8932 19
804 2 -1.02159 9.02141 -2.50977 21
805 2 13.775 4.23881 -12.1753 14
806 2 -2.78104 -7.8413 -13.1035 17
807 2 -3.52536 -5.72819 5.42859 23
808 2 2.23664 -8.14241 2.45963 19
809 2 -4.95872 -7.99336 -2.02148 22
810 2 0.104185 7.85246 0.375764 19
811 2 -4.1575 8.28977 3.38981 15
812 2 4.83799 -3.01275 -8.77994 22
813 2 12.4542 4.46153 -2.07159 20
814 2 7.48558 -1.24487 -11.6944 21
815 2 -2.72635 0.290497 11.2069 13
816 2 3.44202 5.44239 -14.8604 13
817 2 -8.80213 1.84453 0.0462777 16
818 2 4.37761 0.338947 1.59355 22
819 2 -9.94871 -0.523473 6.55747 14
820 2 -4.88413 -0.380358 -4.8113 21
821 2 10.6421 6.11982 -4.30868 22
822 2 14.8466 3.0911 -9.2257 17
823 2 12.9161 -12.0086 -4.03187 18
824 2 -5.75734 -9.08318 6.45768 17
825 2 8.86521 -0.969772 -1.81409 24
826 2 2.41252 2.84177 1.63694 22
827 2 -1.20009 4.08723 -15.6004 13
828 2 -4.20486 5.23806 4.61131 16
829 2 9.20062 -8.36815 7.66528 19
830 2 -6.64844 -12.4062 -9.87879 14
831 2 6.06271 1.75213 -11.4026 21
832 2 10.765 7.61579 -1.90519 19
833 2 -10.3994 -8.60595 8.88734 11
834 2 4.14752 6.21322 -3.46469 21
835 2 -0.00714963 9.14759 -13.4104 15
836 2 -2.71382 6.06317 -8.1013 21
837 2 12.0388 -4.56247 10.5329 15
838 2 0.165706 -0.499005 5.06005 22
839 2 13.1043 -10.2365 -10.8431 9
840 2 1.87527 -0.792884 15.2909 9
841 2 1.84816 -5.40741 7.73082 21
842 2 -7.58134 -1.71069 -1.60704 21
843 2 -4.32368 -6.44408 -16.9249 11
844 2 4.044 -14.6541 -8.01774 15
845 2 4.15004 -1.12835 -11.3275 23
846 2 19.2212 -3.67988 0.30951 12
847 2 -1.14502 3.49949 11.4292 14
848 2 9.23065 1.35765 -12.5835 20
849 2 -4.86903 -9.30568 10.1078 13
850 2 2.01241 -7.07224 -17.6062 16
851 2 -1.4572 -11.525 0.852239 19
852 2 1.2773 -8.26862 -8.31659 23
853 2 8.8042 -16.3202 -1.11385 10
854 2 13.3407 7.38098 -6.19634 16
855 2 -0.859826 0.00458735 -13.8462 21
856 2 1.1924 6.37133 2.84121 22
857 2 -10.0007 -10.0725 -6.43761 13
858 2 -6.58605 -3.83458 -10.5813 21
859 2 4.12062 2.40276 -14.4584 21
860 2 1.87065 9.24042 -3.01054 19
861 2 -1.00325 -18.9303 -4.3459 9
862 2 18.3725 -5.05684 2.85904 10
863 2 0.691693 1.5187 13.3406 12
864 2 1.17698 -16.1482 -3.55801 18
865 2 -2.32733 -17.5606 0.126627 13
866 2 6.05573 -3.59939 13.0709 14
867 2 10.0587 0.246913 8.38067 21
868 2 16.6552 -4.16662 -7.56917 14