ITEM: TIMESTEP
14000
ITEM: NUMBER OF ATOMS
1000
ITEM: BOX BOUNDS pp pp pp
-30.0 30.0
-30.0 30.0
-30.0 30.0
ITEM: ATOMS id type x y z Coordination
1 1 -4.23783 -9.38027 -10.4997 11
2 1 6.70454 -8.3446 4.07529 15
3 1 -12.6159 8.29402 -3.55216 12
4 1 -9.40051 3.4738 -5.66545 20
5 1 -3.21202 -3.82847 11.0052 9
6 1 -8.69006 -0.396358 -11.6265 11
7 1 -6.66895 -12.149 1.1533 8
8 1 4.78347 0.680529 4.38151 19
9 1 -1.75156 7.67918 6.64863 19
10 1 -4.08171 14.5625 -5.67096 12
11 1 -0.332641 5.10235 11.1663 10
12 1 -9.94286 0.818412 -0.0100614 23
13 1 -4.5931 2.9289 -12.0407 20
14 1 -0.940845 7.25978 9.59722 11
15 1 -2.30305 -8.45624 2.54725 17
16 1 -12.3691 0.938698 1.22735 17
17 1 -9.52559 0.634719 -3.5127 22
18 1 -2.56123 17.034 -0.80699 13
19 1 -0.452605 1.42856 -14.3557 14
20 1 7.82305 -5.54915 -11.5066 11
21 1 -7.05464 -5.3622 8.12462 12
22 1 -12.504 5.5048 -1.7045 17
23 1 0.407669 17.3957 -2.44041 8
24 1 0.274939 -8.30001 0.815077 16
25 1 8.439 -5.06935 -8.23131 20
26 1 7.2146 2.46204 4.28998 20
27 1 -4.74239 11.3271 -2.38625 19
28 1 0.814494 7.21345 5.18586 24
29 1 2.84658 -0.508752 10.6937 10
30 1 -10.7502 -1.65625 -1.92034 23
31 1 10.4085 5.23851 5.26608 13
32 1 6.64455 -2.03499 -8.31558 21
33 1 4.00406 2.21002 6.93345 18
34 1 -7.77749 -1.79618 -0.184409 22
35 1 -5.00716 -1.88957 -11.6295 15
36 1 -8.77649 12.8449 -5.83531 12
37 1 -5.75427 13.0943 -11.146 11
38 1 7.67632 0.0948066 -7.04467 21
39 1 4.84579 -5.50982 4.42059 22
40 1 7.00682 -8.17519 6.92948 10
41 1 -4.94703 10.0452 4.02213 19
42 1 -10.1125 -6.28093 5.97217 11
43 1 -10.5558 2.25625 5.38447 18
44 1 7.48788 -6.55174 -5.52704 16
45 1 7.30317 3.04772 -12.3589 16
46 1 0.422731 16.5427 1.00429 9
47 1 -7.19294 9.52047 -6.75581 19
48 1 2.40829 10.286 0.0672203 20
49 1 -7.25246 -5.6474 5.00838 17
50 1 2.23317 -9.09178 -10.8823 11
51 1 4.76457 -4.38206 -7.38389 22
52 1 -0.972653 4.94119 4.71681 21
53 1 -13.3581 -5.2745 -4.37422 12
54 1 10.1698 -0.505982 5.36353 16
55 1 -10.282 -6.09888 -6.46319 13
56 1 6.71839 -3.1604 1.3792 18
57 1 -4.8195 7.67693 2.13685 22
58 1 1.6943 6.18576 -10.1251 18
59 1 8.05161 -5.25926 -0.294025 20
60 1 -9.89223 -10.7143 -3.34905 13
61 1 9.35416 12.2923 -1.37626 12
62 1 7.70902 7.15764 -2.96218 23
63 1 -1.91949 15.7544 -3.46749 13
64 1 -3.74242 -5.65701 -9.91326 21
65 1 0.202569 11.537 -9.47242 19
66 1 10.5831 1.13424 -7.64028 15
67 1 6.24971 0.149563 -14.0955 10
68 1 10.6794 -5.38484 1.77207 11
69 1 -5.90171 7.02676 -8.25497 19
70 1 5.59773 15.4484 -3.72422 11
71 1 12.4671 6.28932 -6.20863 12
72 1 -3.11249 11.6203 -7.40725 18
73 1 -3.80348 -4.11655 -14.0699 11
74 1 -13.4767 -1.53992 -6.77615 10
75 1 -6.23311 12.5777 5.43992 12
76 1 0.160317 16.2466 -5.78071 11
77 1 1.14586 1.92971 10.9378 10
78 1 -14.85 -4.69562 1.8237 8
79 1 -5.31201 -8.83119 3.19201 13
80 1 0.95776 11.5397 -3.30116 22
81 1 10.2715 6.69669 -7.68409 15
82 1 -3.36378 -5.15526 7.43466 15
83 1 -10.5442 3.0755 -2.34811 21
84 1 -3.62341 4.60177 9.85644 13
85 1 -5.90563 4.27301 -10.1624 17
86 1 -6.67323 -4.59327 1.27299 22
87 1 -11.1067 -9.51347 -1.39452 13
88 1 6.99811 -3.29683 -5.54961 20
89 1 -4.39506 12.8119 2.57246 21
90 1 -7.76312 2.82904 3.46056 18
91 1 -9.45142 0.374922 -7.22315 16
92 1 -3.34789 -9.09972 -2.29408 24
93 1 4.16219 6.87796 -8.6531 18
94 1 4.72032 -0.819671 7.57348 19
95 1 -0.78954 6.94829 -11.7519 22
96 1 -6.38481 -5.18266 -12.1187 10
97 1 -1.50289 11.9535 -2.21914 18
98 1 7.86553 4.69817 6.69755 15
99 1 -2.52146 12.8661 -11.1223 12
100 1 -1.87341 8.35473 -13.5409 19
101 1 -10.3698 8.17497 5.33695 11
102 1 -4.51622 7.39519 5.13915 22
103 1 0.530202 -8.3226 -5.89774 18
104 1 3.35217 7.82302 -14.9296 11
105 1 -0.885384 13.2225 -5.65146 20
106 1 -13.4012 3.70278 0.605757 12
107 1 1.4609 8.59727 8.08891 13
108 1 12.4657 3.21625 -2.56684 15
109 1 2.43723 9.99484 3.31177 25
110 1 -10.1848 8.79447 1.91108 16
111 1 -11.0192 -1.55067 -5.18562 19
112 1 2.18116 -0.754061 5.69095 22
113 1 0.813221 -9.86835 -8.47166 12
114 1 -3.90539 2.38264 -15.0775 11
115 1 9.06747 0.498798 -13.139 11
116 1 -14.59 -3.1279 4.671 9
117 1 -7.86574 -2.14816 -10.0535 15
118 1 -3.71172 -0.105744 -10.0912 19
119 1 -12.1182 3.33969 -7.66402 11
120 1 9.9535 2.61584 7.78569 10
121 1 4.14806 -3.0753 5.81629 20
122 1 0.72264 -2.94531 4.59177 21
123 1 3.64425 12.6673 -2.16032 17
124 1 -5.46223 -7.44692 0.778054 23
125 1 3.1006 14.2807 0.906404 12
126 1 -2.50061 -7.35411 -13.0526 9
127 1 -1.29484 -7.14548 -7.65151 20
128 1 -4.11806 -4.94728 -0.0139557 17
129 1 8.24935 5.14046 2.8964 18
130 1 -9.51166 -3.18032 8.37359 15
131 1 -5.67966 -7.44793 -2.50907 21
132 1 0.50319 -8.36551 -2.31718 17
133 1 5.38279 -8.82014 -3.36885 11
134 1 -7.43769 11.3531 -8.66934 13
135 1 10.3833 9.61535 1.11113 14
136 1 -6.9112 4.19054 -6.62224 21
137 1 -4.41733 10.7664 -13.2713 12
138 1 -5.10167 -3.02781 5.21259 21
139 1 1.3911 12.5183 2.78254 18
140 1 11.8554 -0.00755339 3.03075 13
141 1 -9.93657 0.288604 3.18671 21
142 1 -7.76829 -2.76917 6.52412 19
143 1 -9.06367 11.6154 0.986274 12
144 1 1.81849 -3.51751 -13.87 11
145 1 3.4641 -8.03681 -0.342389 14
146 1 8.48194 -2.66593 -11.3902 16
147 1 -11.0892 -2.03766 1.23633 20
148 1 11.0651 -7.39571 -4.43924 8
149 1 -2.8493 13.9424 -0.843424 18
150 1 -6.70023 5.8769 1.80828 21
151 1 3.82165 -7.88039 6.21896 13
152 1 0.183271 10.166 5.3743 20
153 1 -8.06676 -2.71287 -6.79013 18
154 1 -7.0417 13.7504 2.60362 14
155 1 -8.12691 6.33357 -6.43224 14
156 1 -13.3153 2.13942 3.82803 15
157 1 -4.81819 -2.99291 -8.47426 17
158 1 -3.50099 10.2343 0.91098 22
159 1 10.5142 -0.457236 8.13516 10
160 1 1.70496 -5.79987 2.92244 21
161 1 -0.717387 -0.0999157 7.83432 21
162 1 4.34535 -10.2877 -8.75768 8
163 1 -3.39027 -0.612948 -14.1885 14
164 1 -13.8652 -2.30877 -3.16488 13
165 1 -3.96203 -5.43838 -3.31734 19
166 1 12.4149 3.18884 -5.96903 10
167 1 -5.58183 8.55705 -10.1795 17
168 1 -7.21331 9.76895 6.29177 10
169 1 -5.06938 14.7389 -2.84072 14
170 1 -7.75535 7.71721 3.73216 20
171 1 8.48743 -0.112023 -9.98647 20
172 1 10.4703 2.61266 -10.1302 13
173 1 3.52135 -6.78769 -5.33169 19
174 1 -0.183176 10.1938 1.8927 21
175 1 -9.73241 6.39095 -2.9044 21
176 1 -1.49126 -10.8401 -4.73541 15
177 1 11.9566 2.02305 5.96721 10
178 1 -11.4626 -4.13342 -7.34703 12
179 1 -2.23746 -7.30989 -0.712066 23
180 1 -6.39386 12.5223 -0.49797 18
181 1 -10.5324 8.38576 -5.64779 10
182 1 -2.06877 -10.1085 -7.41973 15
183 1 3.58364 -2.67039 2.65876 23
184 1 -6.91901 -12.4378 -2.86069 10
185 1 -7.8157 14.4298 -8.34861 9
186 1 -4.26075 -10.1569 0.639 18
187 1 -4.79432 2.3004 5.26507 20
188 1 -9.61862 5.62872 3.30414 21
189 1 1.30259 -2.33092 -8.29495 20
190 1 -12.8523 -0.415946 5.42468 12
191 1 -3.62855 -0.454696 6.5319 21
192 1 -6.93966 -0.432897 5.09403 21
193 1 1.38365 -4.99312 -6.84701 23
194 1 6.86614 -7.96912 0.503206 15
195 1 3.87581 13.1066 -8.42375 11
196 1 -8.6387 -7.24959 -0.347134 22
197 1 9.52323 -7.10415 5.00234 11
198 1 8.22027 6.12804 -5.4628 17
199 1 0.726984 3.64137 -12.1045 22
200 1 9.45233 -2.82702 3.09712 17
201 1 -6.70775 -0.729124 8.36994 23
202 1 0.812062 13.1864 -0.525698 17
203 1 6.56639 -2.97075 4.47561 20
204 1 -5.22849 -9.41397 -7.831 15
205 1 4.53684 7.48211 6.87435 14
206 1 -9.71548 3.30264 8.97809 11
207 1 -6.23978 -9.91532 -4.24019 23
208 1 -7.97654 -9.26518 -9.47959 9
209 1 -9.11977 11.3354 4.3348 12
210 1 -1.36881 -7.4019 -4.33665 21
211 1 -8.16214 -2.21985 3.19991 23
212 1 10.0256 2.77784 2.94755 17
213 1 10.4143 6.48494 2.48024 13
214 1 -1.90562 3.97784 -13.674 16
215 1 -4.00933 8.97035 -7.52359 21
216 1 -3.08672 10.4948 6.26537 13
217 1 -12.8552 -4.50306 -0.931267 17
218 1 5.01929 10.1697 -9.76715 14
219 1 -6.68885 -7.47818 -10.4362 14
220 1 -0.862622 -4.81949 -12.592 17
221 1 10.8527 9.5196 -6.29791 10
222 1 3.92384 9.38655 -3.07839 18
223 1 4.34211 2.73659 -12.6148 17
224 1 1.63383 -5.86779 -0.255477 23
225 1 -6.8188 6.54553 -11.7798 12
226 1 9.4062 9.32945 -2.37563 15
227 1 5.08355 -1.64285 -0.710275 18
228 1 -3.90998 5.7158 -13.711 14
229 1 4.90545 -6.15281 -2.12237 19
230 1 -0.891828 -3.64338 9.57058 16
231 1 -9.21079 4.09954 -8.84101 15
232 1 2.11367 4.15721 -14.5435 12
233 1 -13.4399 -1.79726 0.141725 17
234 1 12.2837 0.447513 -4.30404 13
235 1 -5.67902 11.3276 -5.3388 20
236 1 1.51009 -6.46378 -12.492 10
237 1 -0.556853 5.91771 -14.8901 14
238 1 11.08 -3.96446 -9.916 10
239 1 -9.73803 -4.79899 3.07494 21
240 1 -4.54483 15.3547 1.50391 17
241 1 1.84336 8.59456 -8.07222 21
242 1 10.9316 7.57309 -3.89981 17
243 1 1.88562 -5.37648 -3.62174 26
244 1 1.87481 -3.7323 -10.511 20
245 1 10.5709 0.722547 -2.29908 22
246 1 4.98196 -5.55646 1.01651 23
247 1 -12.3172 5.18516 5.18911 13
248 1 -6.54728 -5.29088 -8.08688 19
249 1 -4.50869 -2.6418 8.44862 19
250 1 2.07699 10.8097 -14.5936 10
251 1 -6.77083 15.8039 -5.82542 9
252 1 1.32496 14.8746 -8.09774 10
253 1 -0.486357 4.73419 8.00802 23
254 1 3.1219 -10.4793 -5.13386 7
255 1 4.69199 1.04949 -8.70292 22
256 1 -11.3209 -7.47579 1.2872 13
257 1 -9.01324 8.5138 -0.947627 18
258 1 -12.2974 -5.1628 3.38626 16
259 1 6.87598 8.02847 -6.77226 19
260 1 4.38926 -7.02486 -10.7064 13
261 1 1.43433 -1.97907 7.86376 19
262 1 5.77656 0.179969 -10.9415 20
263 1 -12.3324 6.43654 1.67546 16
264 1 12.201 -2.51926 -3.55226 13
265 1 3.15402 9.97569 5.84601 15
266 1 -1.46949 4.31452 -10.23 20
267 1 2.87096 6.68662 -12.4702 18
268 1 -1.63583 1.25463 -11.3856 21
269 1 -9.26528 -9.56812 -6.0545 13
270 1 13.3348 5.69422 -3.34886 12
271 1 9.85431 -2.4059 -8.17919 20
272 1 6.25732 -6.70012 -8.69228 12
273 1 9.88373 11.4007 -4.44423 10
274 1 -9.45169 5.36961 -0.0601079 19
275 1 9.62524 4.09533 -7.91409 18
276 1 -6.41207 -2.91971 10.3284 13
277 1 6.87729 1.88599 8.05617 13
278 1 -9.12817 -5.8624 -9.80766 12
279 1 10.9594 6.29136 -0.996558 19
280 1 12.3403 -1.20552 -0.552784 13
281 1 4.53056 12.6025 3.86825 10
282 1 2.19478 4.90603 6.56492 20
283 1 -2.08216 10.7145 -4.95504 22
284 1 -3.70013 -8.59954 -5.28934 24
285 1 -7.06167 10.2487 -11.585 11
286 1 -8.16287 2.8743 -11.7606 12
287 1 -15.4754 1.65667 -7.47335 4
288 1 10.9422 -4.0967 -0.579827 12
289 1 0.734168 -8.24183 4.58767 14
290 1 8.83368 5.36485 -11.2508 14
291 1 13.0825 1.33314 -0.0148331 13
292 1 6.10938 13.9523 -0.814721 15
293 1 9.86586 0.258107 1.0631 20
294 1 -6.64098 5.23886 8.44206 13
295 1 -8.85127 -7.43284 -3.65536 22
296 1 -10.7892 -1.70837 -9.00645 13
297 1 7.36387 -0.287641 6.0805 20
298 1 -2.69035 17.5945 2.24556 9
299 1 8.22259 6.30253 0.078875 20
300 1 4.88731 4.74303 4.95864 21
301 1 -11.3155 -3.3102 5.33041 16
302 1 5.36671 -3.22474 -12.8068 12
303 1 -0.623643 -5.0319 -8.7982 20
304 1 5.98659 9.86525 4.42894 16
305 1 4.07619 7.28641 3.62858 19
306 1 -1.55219 2.20922 9.96177 17
307 1 -4.58385 1.76789 8.42774 17
308 1 -7.18384 2.4338 10.1533 12
309 1 -0.642785 9.86628 -7.19368 20
310 1 7.54204 13.618 -4.16881 12
311 1 4.83804 15.9679 -7.24512 7
312 1 -9.95018 -12.4915 0.19181 7
313 1 4.83285 5.63947 1.66877 20
314 1 -6.75406 10.0164 1.07776 20
315 1 7.36049 8.28292 -10.5282 12
316 1 1.30132 2.01397 8.07379 19
317 1 8.41772 11.5009 0.881897 12
318 1 -0.321853 -1.36671 -12.8365 18
319 1 2.98712 -7.413 -8.21914 19
320 1 5.31711 11.2082 1.32676 20
321 1 -14.9393 -0.596183 2.75399 9
322 1 -1.65982 -10.6375 -0.183305 13
323 1 5.97361 6.0826 -12.7834 15
324 1 2.33887 1.0158 -13.8382 12
325 1 9.23871 -4.0971 -3.66123 20
326 1 -3.96243 14.751 4.79106 12
327 1 2.1607 -6.21446 9.41454 9
328 1 -7.22828 -7.64205 -6.04973 18
329 1 -3.88631 4.90354 6.68902 21
330 1 7.41167 1.14432 -0.867541 23
331 1 2.1058 11.9439 -6.52157 22
332 1 5.24773 9.63485 -12.7772 12
333 1 7.3061 5.68661 -8.29003 18
334 1 -0.0486391 9.22703 -15.879 9
335 1 -1.81587 2.34596 6.47226 23
336 1 -2.73544 -7.72612 5.55326 11
337 1 5.59067 -4.09162 -10.1486 18
338 1 -10.5654 10.6846 -3.93371 9
339 1 7.14926 8.65974 1.62369 21
340 1 -10.2459 -4.56893 0.0225875 21
341 1 0.834724 9.13794 -11.0223 17
342 1 -3.12354 -0.810369 10.2965 16
343 1 -11.8317 -6.92421 -2.41549 16
344 1 6.86774 -0.925275 -3.82819 22
345 1 -7.02064 -4.23273 -1.36549 20
346 1 6.44619 -3.67728 -2.30342 22
347 1 7.84314 -6.00019 2.84339 21
348 1 -1.02937 12.7856 5.06828 11
349 1 -9.48589 5.15703 6.65251 16
350 1 6.9433 2.96933 1.23298 21
351 1 7.98506 -7.17524 -2.48388 17
352 1 3.86886 8.17363 0.623831 21
353 1 -1.42767 15.1704 3.33703 14
354 1 2.1032 -5.41698 6.29787 19
355 1 -11.768 1.83562 -4.95284 16
356 1 2.25076 6.33558 9.53334 12
357 1 4.76844 13.2633 -5.38564 18
358 1 7.58087 -2.12672 7.96999 13
359 1 7.66302 -5.24678 6.17366 19
360 1 9.3216 9.34955 3.74125 11
361 1 -1.15362 -7.87201 -10.5819 16
362 1 -5.64924 0.562319 -12.7588 12
363 1 -9.04442 -0.134833 10.0856 11
364 1 13.2824 5.13475 0.272565 9
365 1 2.99567 11.7732 -11.3082 13
366 1 3.85758 -1.79715 -10.7494 18
367 1 -6.88116 -10.103 -1.41739 22
368 1 -6.45009 1.46018 -8.26385 17
369 1 1.77748 0.386474 -10.511 17
370 1 -4.07142 -6.04096 -6.54285 21
371 1 -0.238841 -1.26217 10.9364 14
372 1 -1.01137 -5.85713 4.58161 19
373 1 7.29983 2.65307 -9.62486 20
374 1 -8.03736 12.3335 -2.68715 13
375 1 8.61315 -1.96846 -1.29098 20
376 1 -12.7254 0.69769 -1.64441 15
377 1 9.4591 4.29116 -3.11363 21
378 1 5.09657 5.05353 8.15734 16
379 1 -10.9359 1.57939 -10.3722 12
380 1 -3.73369 6.37381 -10.9341 20
381 1 10.7656 -3.95136 -6.31072 13
382 1 -7.06828 -4.8469 -4.89587 21
383 1 -8.36275 -7.08807 2.88453 17
384 1 7.50656 -0.115357 2.56007 19
385 1 -10.8432 3.50602 2.22757 22
386 1 -0.617389 11.1195 -12.8512 16
387 1 4.78763 -5.44545 7.81876 15
388 1 -9.82221 -0.665395 6.57053 19
389 1 -1.7012 -2.3253 -10.2121 19
390 1 -8.22365 -9.68906 1.92197 13
391 1 4.23241 -3.1487 9.63159 11
392 1 -4.05751 -11.9685 -2.28978 13
393 1 12.2526 -0.579811 -9.99093 8
394 1 -12.9173 8.32793 -0.42055 9
395 1 -7.7267 2.34348 6.71879 22
396 1 -4.36592 -11.8103 -5.54112 12
397 1 6.24742 9.6036 -4.40978 17
398 1 9.86596 3.33861 -0.605811 23
399 1 -1.74259 -2.93691 6.57393 22
400 1 7.41448 11.5101 -6.5326 12
401 1 4.77335 4.25871 -10.4674 16
402 1 -12.469 5.343 -4.50774 13
403 1 4.3722 10.0212 -6.57987 19
404 1 6.14759 10.0931 -1.4895 20
405 1 1.99999 14.3018 -3.76708 16
406 1 -6.79258 4.82107 5.23341 21
407 1 6.57466 3.75194 -5.68797 19
408 1 3.8571 -7.97847 2.91527 14
409 1 7.56412 7.59251 6.37493 11
410 1 9.41722 -1.16445 -4.85465 20
411 1 -4.87168 14.0105 -8.53436 12
412 1 -2.01622 8.02569 3.50613 22
413 1 -1.53039 12.9464 1.43114 20
414 1 -4.39335 -5.75786 3.60951 20
415 1 10.6431 -7.49989 -1.22205 9
416 1 -1.3059 -2.97054 -15.2876 10
417 1 -10.049 -4.08831 -2.88652 19
418 1 -7.28853 9.34023 -3.36474 19
419 1 10.169 -3.49005 6.77439 10
420 1 -11.4002 -8.45505 -4.66677 12
421 1 8.13323 1.56533 -3.93996 19
422 1 -2.44322 9.82225 -10.7981 21
423 2 -13.7521 2.50727 -7.69952 7
424 2 -5.4537 15.2063 -4.61545 11
425 2 -1.9994 2.38557 -14.9478 13
426 2 -3.2752 2.73405 9.57218 16
427 2 -7.28443 -5.41494 -10.4247 14
428 2 6.49446 6.40935 7.42789 13
429 2 -10.7288 -0.0513898 1.44775 22
430 2 8.7697 10.4004 2.25743 13
431 2 -10.089 -5.04867 -8.32251 15
432 2 -9.33302 2.77139 -3.90343 21
433 2 -3.81029 -8.02748 3.94286 16
434 2 1.22453 5.36291 8.12682 19
435 2 7.03091 1.53644 -10.948 21
436 2 -9.24447 12.2083 -4.16761 11
437 2 10.6788 8.33884 2.6208 9
438 2 -13.3407 -4.21015 -2.88281 15
439 2 -5.75895 -10.3311 1.77562 14
440 2 9.58643 -5.48004 6.45915 11
441 2 -8.78777 9.68876 1.11001 15
442 2 -6.78336 13.2771 -9.4165 12
443 2 -4.11538 8.33407 3.53372 24
444 2 7.82934 -2.62369 -3.54886 18
445 2 -3.79321 3.77894 -10.2248 21
446 2 0.599582 -2.48762 -14.5162 11
447 2 11.2948 0.971516 -9.62106 11
448 2 10.2756 9.46436 -4.19378 14
449 2 -5.44325 10.7709 2.41141 21
450 2 -3.31576 -9.49496 -8.72278 14
451 2 0.425058 -5.06974 9.13493 12
452 2 6.77788 1.1492 0.897284 21
453 2 -12.4099 2.10105 -3.11303 14
454 2 4.30878 13.5765 -0.479719 14
455 2 9.78294 -6.5028 3.241 13
456 2 0.866393 10.9284 3.83676 20
457 2 4.12804 13.9842 -3.76254 16
458 2 1.39462 9.70627 -6.47051 22
459 2 -9.7489 3.27555 7.03067 18
460 2 5.73115 4.15819 -12.191 16
461 2 -8.71505 4.68758 -6.97973 15
462 2 -13.9145 0.411896 3.93881 11
463 2 -10.1285 -11.1027 -1.41291 11
464 2 -2.28282 -5.53634 -0.861239 20
465 2 -1.20342 0.190719 10.097 17
466 2 -3.25923 8.70149 6.17513 15
467 2 -9.75799 3.3469 -0.643144 24
468 2 7.53494 -6.7672 -7.48259 11
469 2 3.79415 0.0472919 -10.3091 19
470 2 -3.29908 -11.597 -0.517363 14
471 2 2.29229 7.81018 3.52564 22
472 2 10.8037 -5.67987 -5.22621 10
473 2 2.09204 -2.57772 6.04922 21
474 2 -5.13046 -5.67378 1.56928 21
475 2 12.9319 3.26747 0.274392 12
476 2 -1.14973 -7.41054 1.44816 19
477 2 11.721 -2.83452 -1.72517 12
478 2 -6.05026 -9.39883 -9.65331 10
479 2 -8.3867 -5.30839 -0.257262 21
480 2 -4.11505 -8.37869 -0.287296 22
481 2 -2.27217 -7.26899 -5.94976 22
482 2 -3.74436 8.73525 -2.56482 26
483 2 0.70142 4.54632 -9.99402 19
484 2 6.4215 7.18079 -4.68332 19
485 2 -0.695313 7.70588 -15.2115 11
486 2 -7.9235 4.08119 9.37278 10
487 2 -11.3139 5.06116 -2.9303 17
488 2 -7.64626 5.69222 6.67176 18
489 2 -9.88261 8.20332 3.56477 15
490 2 11.5944 8.03422 -7.00231 10
491 2 8.0644 -4.95686 -4.86036 19
492 2 7.73258 2.97542 -0.84063 22
493 2 -1.90992 10.715 1.53489 19
494 2 -6.6683 7.93426 2.05358 21
495 2 12.5652 7.02265 -4.63907 12
496 2 0.87844 11.3664 0.62722 20
497 2 1.62104 12.7794 -8.37122 17
498 2 -0.7385 8.33505 4.945 22
499 2 1.21096 0.0294981 7.35467 20
500 2 5.83142 -1.11472 -12.5512 16
501 2 -6.60248 1.664 8.27046 20
502 2 1.19472 2.30241 -14.8431 11
503 2 -10.7846 -5.0181 4.72652 14
504 2 0.562659 -6.91009 -3.95308 20
505 2 -0.568027 -6.67757 -11.9708 14
506 2 1.44438 -7.6244 -0.662624 15
507 2 9.07943 3.16735 -11.1589 15
508 2 -6.80543 8.45576 -11.5833 13
509 2 -3.41532 15.8597 3.19982 12
510 2 -8.13954 -4.73299 -3.15792 18
511 2 -0.00710988 10.5075 -14.4667 12
512 2 1.38621 15.9823 -3.97575 12
513 2 -1.72701 5.60483 9.71376 15
514 2 4.10783 -6.01789 -8.17373 17
515 2 6.62903 4.03495 5.32438 20
516 2 9.73265 -0.091578 3.15904 18
517 2 6.62726 4.62404 1.78696 20
518 2 -3.66824 8.31526 -10.8589 23
519 2 3.84908 -4.8863 9.36376 11
520 2 -1.27258 -2.29648 4.61638 22
521 2 8.10519 -8.2606 5.34776 11
522 2 -0.760471 17.1365 -3.88833 9
523 2 -7.79704 -10.8725 -3.52974 15
524 2 0.165099 4.67487 -13.7268 17
525 2 -2.8895 -8.21289 -11.4857 11
526 2 6.83585 10.2767 0.372774 19
527 2 -9.49655 -7.78886 -5.52665 16
528 2 -12.2396 3.24079 5.00316 14
529 2 7.67687 -2.92966 6.1472 19
530 2 -7.01264 -7.99092 -4.21602 21
531 2 1.06245 0.292859 -12.6113 17
532 2 -6.63546 1.96172 -12.1674 13
533 2 -4.94562 -3.41928 -12.7663 12
534 2 -7.4177 -1.07988 10.2832 14
535 2 -4.49127 -4.92004 -8.29054 18
536 2 2.00605 -1.61003 -9.91569 21
537 2 8.59231 -2.4041 -9.48594 19
538 2 -6.99361 -2.39097 1.53004 19
539 2 4.30694 2.90793 -8.78321 23
540 2 -0.575169 -5.24908 -6.74713 21
541 2 -3.59293 9.13883 -13.8442 14
542 2 5.25888 7.82033 2.03552 20
543 2 10.8015 3.58745 6.22015 10
544 2 -15.1733 -2.73222 2.88408 10
545 2 -2.26603 -9.97837 1.40582 14
546 2 -1.42496 3.07808 -11.8261 20
547 2 -7.05548 -8.17352 -0.975931 20
548 2 -4.68206 13.4654 -1.64107 17
549 2 -8.27461 -5.03269 6.62542 16
550 2 -1.29552 -7.75487 4.43015 15
551 2 -14.0145 -0.228154 1.21092 14
552 2 -10.8474 -10.1748 -4.89968 11
553 2 -7.07569 -2.43364 4.83978 20
554 2 5.39226 -2.60793 8.0489 16
555 2 3.37297 11.1528 -12.9879 13
556 2 6.75283 14.4325 -2.49891 13
557 2 11.3491 4.80499 -6.85611 15
558 2 -2.08199 14.5979 -5.03602 17
559 2 -9.63751 -1.90476 -10.5227 11
560 2 -10.5702 0.398746 -5.20651 18
561 2 -5.32402 -12.0919 -3.77147 13
562 2 0.923452 -4.77729 4.55475 23
563 2 10.7126 -6.03493 0.0382438 11
564 2 -8.18038 14.7674 -6.27042 8
565 2 7.7405 3.63622 -3.86189 21
566 2 2.57541 1.01062 9.46965 16
567 2 3.70578 10.1205 1.57169 22
568 2 -0.642993 2.37024 8.01083 19
569 2 -10.5007 5.58287 1.46373 20
570 2 4.0011 8.97313 -8.16476 18
571 2 -8.63584 -7.60961 -10.353 10
572 2 -7.01011 -3.32896 -8.4246 16
573 2 -9.64203 1.93861 2.1241 18
574 2 9.28143 10.8798 -6.38034 12
575 2 10.1525 7.69138 -2.09759 17
576 2 10.3274 -3.37342 1.57242 20
577 2 -12.8302 -1.27226 -1.73365 19
578 2 -1.16843 12.9289 -0.70598 16
579 2 -6.49899 8.67323 -4.94023 18
580 2 1.22419 7.37398 -11.6199 19
581 2 -11.841 8.71992 0.977286 11
582 2 -10.2262 -2.84579 2.73007 19
583 2 9.98538 -7.71839 -2.98464 11
584 2 3.77962 -5.78569 -3.72363 18
585 2 -3.01406 11.513 -3.02565 19
586 2 -8.80068 8.09928 -6.49054 12
587 2 3.92798 -5.5652 -0.456934 21
588 2 3.16029 7.35518 8.09265 14
589 2 -2.21868 6.38202 -13.5118 16
590 2 -2.6376 11.4339 -12.5157 14
591 2 2.52703 3.48785 -12.5907 17
592 2 -0.708895 10.7313 -3.30484 18
593 2 -9.7031 -1.14261 8.80167 12
594 2 -3.75187 -2.4402 6.60711 21
595 2 -10.9025 -5.4681 -1.76853 20
596 2 0.568269 9.73343 -8.97629 19
597 2 7.13496 1.63851 -5.83873 21
598 2 2.22902 2.9097 6.55762 21
599 2 -1.61025 -0.0592068 -13.2104 17
600 2 6.91946 6.16497 -1.44127 21
601 2 4.62008 8.74696 -1.03641 21
602 2 -9.61302 -2.58518 -0.505931 24
603 2 -3.26542 15.5431 -2.05648 14
604 2 -4.8392 5.00706 8.29751 15
605 2 -2.85422 -10.8915 -3.44129 16
606 2 -6.6721 -8.11102 2.2516 17
607 2 9.58783 -2.2237 8.42956 10
608 2 7.62578 6.80664 -11.89 13
609 2 1.56543 13.302 -2.22847 17
610 2 5.29569 -8.00984 5.16613 16
611 2 6.93249 -7.8411 -4.19295 13
612 2 -5.15642 6.31199 -12.5728 14
613 2 -0.374401 7.93908 7.92681 16
614 2 0.852175 5.39616 4.81755 22
615 2 6.77471 -5.29492 4.40285 24
616 2 -4.63951 0.803011 -14.311 11
617 2 8.59701 -0.866418 -11.9372 12
618 2 -3.38434 13.8491 1.05803 22
619 2 1.23622 -4.35552 -12.1737 15
620 2 0.712281 6.82276 10.3865 10
621 2 -6.01816 9.39968 -8.53318 17
622 2 10.838 -2.72858 -4.80335 15
623 2 1.30708 14.6985 0.70914 14
624 2 9.29335 5.09246 -1.33264 18
625 2 10.2236 4.78677 3.30157 13
626 2 -7.68239 1.19081 -6.51383 19
627 2 -11.8383 9.38568 -4.73534 8
628 2 -6.21997 5.96952 -6.46638 18
629 2 9.623 5.93508 -4.14234 22
630 2 -13.2776 7.39094 -2.01838 12
631 2 -5.5989 -4.89482 4.8388 18
632 2 3.99252 -0.357211 5.68877 21
633 2 3.99018 -10.9856 -7.02606 7
634 2 -1.63887 -0.187673 -9.98056 20
635 2 5.22003 15.7329 -5.54523 10
636 2 6.45023 12.5718 -5.22276 15
637 2 -4.01091 -2.02173 -10.0429 17
638 2 -7.68758 -5.87908 -6.57365 18
639 2 11.6654 6.02699 1.02143 14
640 2 -7.00108 8.08929 -1.48681 21
641 2 7.53864 -7.96172 2.24666 14
642 2 6.92185 -2.54588 -0.655221 18
643 2 -8.94284 -6.88391 4.68296 12
644 2 -6.90958 -2.94835 -5.1652 18
645 2 1.64036 8.95259 5.97077 17
646 2 1.16313 12.5304 -4.98626 23
647 2 -8.6387 12.5575 2.32957 12
648 2 -8.08275 -4.09279 9.55467 12
649 2 -0.609034 16.9851 -0.707556 12
650 2 -1.26204 -8.76196 -1.62289 18
651 2 -0.432303 -2.04835 8.20341 20
652 2 6.04557 0.257488 7.34239 14
653 2 -13.1634 5.66392 0.0424614 14
654 2 -1.87988 5.32517 6.78062 22
655 2 -0.399201 -8.89516 -7.42525 18
656 2 13.2841 -1.14208 -3.72874 9
657 2 10.1983 -4.53813 -8.13429 12
658 2 -4.2278 13.1552 -7.08834 15
659 2 -9.03324 1.61751 9.68034 12
660 2 -11.3746 3.61768 -5.94632 15
661 2 6.57204 0.0638663 -8.75053 20
662 2 4.07991 8.96303 -4.8932 20
663 2 -5.04538 5.54624 5.16653 21
664 2 -0.872284 9.083 -12.0904 18
665 2 -13.0373 -1.78971 -4.84074 14
666 2 -4.11165 1.0996 -11.7765 19
667 2 -1.93213 8.60303 -7.85123 20
668 2 -6.93559 -1.23273 -11.4343 12
669 2 4.04462 -3.68717 -11.0879 18
670 2 -4.99938 -4.68464 -5.14265 21
671 2 -2.87911 -4.43603 9.22238 13
672 2 6.76639 0.609248 4.46207 18
673 2 6.14678 -6.25172 -10.6214 15
674 2 4.80816 -7.82973 1.08219 15
675 2 8.56304 12.2819 -3.3066 15
676 2 -5.67968 13.6859 3.89254 14
677 2 -12.7514 -7.29425 -3.99434 13
678 2 6.67548 7.4817 -8.74804 18
679 2 0.507893 -5.22469 1.44563 21
680 2 -9.10959 9.57833 -2.69452 16
681 2 4.00559 0.291298 -7.04156 22
682 2 4.04553 5.21161 3.26873 19
683 2 -12.7043 2.73498 2.09329 19
684 2 0.967511 11.2476 -11.2938 16
685 2 4.4987 1.40996 -13.9094 14
686 2 -6.70182 2.78191 5.08968 22
687 2 -4.14339 -0.227983 8.61296 19
688 2 12.1466 0.934125 4.60112 8
689 2 7.5768 1.75321 -13.5924 11
690 2 -9.70721 -1.67035 -7.25696 16
691 2 11.4688 -2.16226 -9.87619 11
692 2 0.439709 -8.71652 -10.2476 12
693 2 -12.8012 5.65504 3.31059 14
694 2 -7.96817 -0.119314 3.26324 21
695 2 -0.62606 -9.25265 -4.75571 17
696 2 1.87295 -6.99618 -6.66528 20
697 2 -2.70832 -11.3713 -6.2139 11
698 2 10.6731 2.76462 -2.80344 22
699 2 -4.10147 13.507 -10.1766 10
700 2 5.79524 11.2032 3.28331 15
701 2 -4.88845 -9.94152 -5.7117 19
702 2 4.48662 2.56073 4.34602 20
703 2 -1.47804 11.142 5.96642 12
704 2 -1.26182 12.1399 -10.0787 14
705 2 1.42742 -4.42103 -8.76841 18
706 2 -8.52324 -11.6825 1.21771 8
707 2 -9.95711 7.01732 -1.0338 21
708 2 6.08995 9.42244 -11.1355 11
709 2 -5.66109 11.5638 -12.1097 13
710 2 0.686693 6.85223 -8.64928 21
711 2 -5.2807 -6.27222 -11.071 15
712 2 -1.96247 -6.26346 -9.19942 17
713 2 -14.9122 -0.157533 -6.85718 5
714 2 7.69928 9.01846 4.82013 12
715 2 -7.87002 3.98435 -10.2768 14
716 2 -10.3437 -8.3939 -2.68083 16
717 2 7.62365 -2.14987 2.74617 18
718 2 4.00446 5.52449 6.54995 20
719 2 6.41678 4.42062 -9.53529 22
720 2 -4.10279 10.2547 -5.71122 20
721 2 -0.0454326 14.537 -6.90674 12
722 2 12.2698 0.0257161 1.0229 12
723 2 4.35552 11.9114 -9.8349 12
724 2 -0.108512 3.36125 10.8545 13
725 2 -1.08397 -2.96747 -11.8594 20
726 2 5.36349 3.10811 8.23177 12
727 2 -7.68571 11.6563 5.65719 10
728 2 9.21525 -4.03473 -1.13214 18
729 2 6.94984 -3.93691 -7.68977 19
730 2 -2.33526 14.0301 5.12551 11
731 2 6.45737 -6.34425 7.16011 16
732 2 -1.36682 11.6057 -6.53875 21
733 2 -0.719653 13.2052 3.26784 17
734 2 -7.13608 11.5888 -6.69362 17
735 2 3.17728 14.8587 -7.72439 11
736 2 -7.97039 -9.79801 -7.64393 13
737 2 3.63665 -3.04055 -13.5787 9
738 2 -7.59535 5.66793 3.72222 21
739 2 12.5072 1.09878 -2.05852 14
740 2 -6.13638 15.0253 -7.44883 11
741 2 -10.8036 0.234746 5.30221 19
742 2 -5.39307 -7.55716 -6.87213 19
743 2 4.6014 8.58882 5.29049 17
744 2 -2.50505 -5.58635 -13.5976 11
745 2 -8.33806 10.7883 -10.3271 10
746 2 1.78881 9.03553 -15.3895 10
747 2 -3.95719 3.80075 -13.5901 15
748 2 -8.08792 11.8739 -0.699744 16
749 2 -9.28775 9.79525 5.2569 9
750 2 6.47505 9.93203 -6.47115 15
751 2 -6.52529 -12.0904 -0.974994 15
752 2 8.99291 2.34755 -8.63638 18
753 2 3.04177 -7.17483 -11.8622 12
754 2 -9.26619 -8.20085 1.49667 15
755 2 -6.2942 11.3864 -3.48645 21
756 2 -14.1066 -4.91673 3.65749 9
757 2 -4.15048 7.19442 -7.80271 20
758 2 1.98207 -7.85584 2.00984 14
759 2 8.99436 6.11175 5.92632 12
760 2 4.57235 -3.63036 3.99691 21
761 2 -8.05642 -0.206243 6.56423 22
762 2 4.573 7.97527 -13.3503 12
763 2 3.35967 11.3666 4.662 14
764 2 -11.8568 -7.93932 -0.430391 12
765 2 -10.9517 -5.87038 2.02174 18
766 2 -9.79616 3.47714 4.09009 20
767 2 -5.15623 10.5393 -0.420762 20
768 2 -12.1523 -2.46301 -7.7279 12
769 2 -5.86116 13.3639 1.14476 16
770 2 3.8131 -4.90766 6.20383 20
771 2 9.85402 10.7887 -0.458944 12
772 2 -3.83723 -7.51811 -3.68579 21
773 2 -14.3796 -3.69788 0.147434 11
774 2 -13.0063 2.06043 -0.389093 16
775 2 -3.73592 2.79028 6.65811 20
776 2 1.30579 -0.452872 11.7561 7
777 2 -2.34716 -4.91283 3.57714 21
778 2 8.18134 3.08665 2.84754 16
779 2 4.76615 -2.68923 -8.46838 22
780 2 -3.65542 8.42619 0.450125 20
781 2 -6.34725 3.44569 -8.36786 19
782 2 -4.92238 0.187905 5.23829 22
783 2 -1.89446 -5.88701 6.49559 14
784 2 -6.26649 -2.64304 7.97588 22
785 2 -1.84348 -2.33939 10.6105 13
786 2 3.48477 5.67785 -10.0772 20
787 2 8.6198 7.00646 1.78293 17
788 2 9.64245 -4.93792 -10.992 10
789 2 9.02514 -0.369713 6.98223 16
790 2 13.1147 3.83608 -4.2649 12
791 2 9.72751 0.201149 -3.6801 19
792 2 3.43227 13.0726 2.32147 14
793 2 10.1256 2.2435 0.95541 20
794 2 -5.24249 -5.57747 7.69941 15
795 2 -4.57494 -2.46324 10.5503 12
796 2 -9.92345 -2.73062 6.45289 18
797 2 4.182 -7.96696 -2.08904 16
798 2 3.68759 -5.47751 2.63094 21
799 2 9.8833 -2.42669 5.1489 16
800 2 2.45517 -7.90796 4.85237 13
801 2 -6.31981 8.34735 5.03557 17
802 2 8.12443 4.62398 -6.84289 19
803 2 6.89198 -3.73824 -11.5842 16
804 2 2.62904 -9.8251 -9.1474 11
805 2 2.58428 6.14612 -14.5193 12
806 2 -9.33794 1.42056 -11.3101 10
807 2 7.59449 13.0164 0.0548528 11
808 2 -10.0237 -2.3588 -3.53461 20
809 2 12.7061 5.46508 -1.6686 15
810 2 -10.6731 0.515439 -2.04954 20
811 2 4.6976 -2.64813 0.915762 19
812 2 4.11765 12.0959 -6.76787 18
813 2 11.9955 1.17991 -6.21997 11
814 2 9.2822 5.69985 -9.21158 17
815 2 2.87331 -6.93717 7.53806 12
816 2 -11.903 -3.18269 0.00559245 18
817 2 11.1198 1.12074 7.35915 9
818 2 6.97975 -5.07889 1.32954 24
819 2 7.29371 8.97282 -2.623 18
820 2 -10.8073 6.32672 5.94258 12
821 2 -11.3231 6.95573 -4.59635 14
822 2 9.68411 -0.325167 -0.876543 22
823 2 8.45309 -7.62601 -0.692838 12
824 2 -11.66 -5.125 -5.55326 15
825 2 4.58136 11.1885 -2.66549 18
826 2 3.74408 -8.83595 -4.9344 11
827 2 1.48302 8.42221 0.249323 18
828 2 -7.88825 -5.15997 2.72636 21
829 2 -1.97039 0.409931 6.50448 24
830 2 -4.66675 11.3946 5.41531 15
831 2 -2.86151 -2.30647 -14.4512 12
832 2 -11.1038 3.37576 -9.28286 12
833 2 -12.7259 -2.33606 4.94478 13
834 2 2.71404 -1.84944 9.3717 14
835 2 -10.3022 0.466876 -8.90762 14
836 2 8.20946 3.11125 7.79043 15
837 2 9.5457 -0.617408 -7.62987 17
838 2 -5.72807 6.11101 -9.89055 18
839 2 8.7018 7.48585 -6.77834 19
840 2 -5.15584 -9.39528 -2.47315 22
841 2 -3.91872 16.716 0.533493 11
842 2 -0.898331 16.6109 2.12616 12
843 2 6.89811 -5.60015 -2.0237 21
844 2 4.4758 -8.37899 -9.12627 12
845 1 -6.5934 0.80373 -4.91941 21
846 1 -7.92743 -2.09545 -3.4953 18
847 1 -1.49934 -4.5363 -5.36061 21
848 1 -0.889185 0.598519 -8.31208 23
849 1 -3.76294 0.0710544 -6.7462 20
850 1 -0.995496 -2.11951 -7.05024 19
851 1 -4.62586 -2.66793 -5.23325 20
852 1 -0.893599 0.785457 -5.2389 23
853 1 -3.80766 0.313073 -3.31634 20
854 1 -1.81769 -1.72887 -3.43175 19
855 2 -7.33029 -0.157485 -3.5119 21
856 2 -2.07276 -5.56329 -3.64914 21
857 2 -4.3507 0.97675 -8.2683 17
858 2 -0.623014 -3.16328 -8.66886 19
859 2 -4.71891 -1.75045 -7.05647 17
860 2 -1.99648 -0.395119 -6.83674 22
861 2 -4.71525 1.04186 -5.14465 21
862 2 -0.899672 -2.83984 -4.90092 21
863 2 -3.85116 -1.64923 -3.82983 19
864 2 -1.69512 0.19887 -3.37874 23
865 1 -6.87762 0.910093 -1.74323 22
866 1 -7.14183 0.561262 1.61801 19
867 1 -0.996517 -4.80427 -2.16934 21
868 1 -1.48029 -5.35451 1.58468 21