ITEM: TIMESTEP
12
ITEM: NUMBER OF ATOMS
500
ITEM: BOX BOUNDS pp pp pp
-30.0 30.0
-30.0 30.0
-30.0 30.0
ITEM: ATOMS id type x y z Coordination
1 1 -2.00398 -23.4113 30.0886 16
2 1 8.2125 -25.9745 -15.5651 11
3 1 2.55732 -19.6864 -14.5988 11
4 1 11.9969 -25.5951 -19.1324 12
5 1 -4.96173 -20.5587 -23.1298 20
6 1 2.54067 -27.7185 28.3996 17
7 1 1.17473 -24.7582 -16.446 22
8 1 8.12288 -29.926 -29.5501 11
9 1 -8.47894 -23.7414 -22.091 11
10 1 5.24202 -19.9866 25.4245 11
11 1 10.1124 -26.0911 -25.9883 19
12 1 5.36099 -21.3029 -17.9179 21
13 1 5.574 -16.4751 -27.5819 20
14 1 5.89515 -17.8895 -19.7805 20
15 1 5.67615 -20.4037 -14.8226 12
16 1 -3.63487 -25.7926 -19.5436 17
17 1 -7.96431 -26.6791 -20.7767 12
18 1 10.1653 -23.0961 -24.2814 23
19 1 4.45254 -24.6667 -14.9043 17
20 1 -5.67641 -28.9544 -19.8729 15
21 1 0.371074 28.8577 -28.287 16
22 1 6.2018 -21.6449 -27.7691 23
23 1 7.96666 -22.5439 29.7542 11
24 1 8.83523 28.4495 -18.0962 7
25 1 -0.93001 -13.1104 -20.9378 12
26 1 6.68559 -23.5009 -16.2084 17
27 1 2.05341 -17.0376 -23.1365 21
28 1 2.61387 29.3457 29.668 14
29 1 2.47205 -19.5701 -18.0707 18
30 1 6.94113 -23.5333 -19.5099 23
31 1 -3.36496 -14.8035 -22.118 15
32 1 -3.39785 -17.8488 -23.4069 20
33 1 7.92006 -16.2757 30.0593 10
34 1 8.94013 -17.4636 -24.322 16
35 1 1.86331 -14.0253 30.3175 13
36 1 -2.42114 -18.4833 29.4052 12
37 1 -0.382832 -13.7938 -24.182 17
38 1 2.27038 -17.0352 -26.3567 24
39 1 -6.81421 -18.2395 -24.0436 13
40 1 4.61828 -15.2244 -17.9492 16
41 1 0.666276 -22.328 28.6649 15
42 1 -3.89198 -28.2488 -17.3296 18
43 1 -3.45305 -29.0646 -24.6456 20
44 1 9.73367 -29.2453 -26.6796 12
45 1 -4.53219 -22.8298 -17.9753 21
46 1 -5.10937 -23.3576 -21.2685 20
47 1 0.960523 25.354 -20.7255 14
48 1 6.8085 -19.0892 -29.3643 21
49 1 -3.82556 28.8393 -26.4744 14
50 1 2.64487 -21.0287 27.3371 17
51 1 2.83752 29.5464 -23.5137 21
52 1 0.534584 -10.8848 -23.4108 10
53 1 -4.85267 -20.0688 -19.9329 19
54 1 4.14102 -12.7405 -20.3703 16
55 1 2.52757 -26.5413 -13.8373 13
56 1 6.10107 30.1199 -24.4787 20
57 1 10.0309 -22.368 -27.8168 17
58 1 -0.543063 29.1811 -25.1991 21
59 1 0.659412 28.1653 -21.7958 19
60 1 6.04895 -26.8816 -14.1155 11
61 1 6.58883 -26.3393 -17.9941 23
62 1 7.44631 -15.1754 -22.5621 15
63 1 -4.17067 29.0125 -22.2085 16
64 1 -3.53014 26.4057 -24.1575 11
65 1 -1.17329 -28.4667 -26.6486 23
66 1 3.91512 -19.4021 -27.8251 24
67 1 6.71583 -26.3679 -21.3754 21
68 1 -1.05819 -26.0569 -18.0303 22
69 1 -6.31276 -24.7217 -15.8077 12
70 1 3.63983 26.9679 -20.9069 18
71 1 -0.51986 -29.1224 -19.498 23
72 1 2.71316 -22.2811 -16.4276 20
73 1 -7.21143 -24.0451 -19.0275 12
74 1 -0.754825 -16.4289 -22.0707 22
75 1 -2.62393 -19.8522 -14.9626 14
76 1 1.73382 -14.0536 -18.3177 13
77 1 -5.07734 -27.7722 -28.8065 10
78 1 -5.07087 -20.7866 -26.4117 19
79 1 -2.91442 -27.467 29.6245 11
80 1 8.66539 -20.9884 -16.0146 12
81 1 0.151193 -27.9128 -15.9362 18
82 1 -0.139905 -25.6429 28.5478 14
83 1 -7.48541 -21.9747 -25.0411 13
84 1 -6.08718 28.708 -24.8145 11
85 1 -2.83915 -17.3217 -17.009 13
86 1 8.05039 -18.0007 -15.0383 10
87 1 -3.18644 -14.5835 -25.5876 14
88 1 -0.344077 25.7947 -23.8055 15
89 1 3.72654 -9.89709 -22.0801 7
90 1 6.61641 -18.8935 -26.0768 21
91 1 -6.79987 -21.9889 -28.6642 11
92 1 -7.27859 -21.2817 -21.7338 14
93 1 -2.83279 29.261 -29.2537 12
94 1 6.1562 26.689 -19.5495 12
95 1 -5.12929 -18.8518 -29.0097 14
96 1 -3.64371 -24.8873 -13.1508 13
97 1 -0.138694 -19.7914 -16.3401 18
98 1 5.46207 -29.7439 28.3713 12
99 1 1.75357 -27.4478 -18.2563 21
100 1 1.54695 29.583 -16.7796 18
101 1 8.55107 28.1846 -24.675 12
102 1 6.30123 -18.2572 -22.7875 22
103 1 -5.20353 -19.7982 -16.6048 13
104 1 5.93685 -21.0356 28.4685 17
105 1 7.062 -29.3075 -16.2088 12
106 1 -1.57665 26.8167 -26.8183 14
107 1 -7.16845 -27.1489 -17.6521 11
108 1 13.8075 -24.7431 -21.7619 11
109 1 11.6718 -20.1653 -23.8581 15
110 1 2.90176 -16.7247 -29.2794 23
111 1 2.44197 -15.5434 27.891 12
112 1 7.24665 -14.3193 -25.1804 10
113 1 3.45286 -17.8871 25.9695 10
114 1 3.10416 25.4222 -23.5818 13
115 1 8.31154 28.1499 -21.1813 12
116 1 5.00686 27.4164 -25.6166 15
117 1 -4.18411 -21.3203 29.5107 12
118 1 13.6764 -22.7808 -24.5533 13
119 1 -0.338513 -14.8599 -27.4275 16
120 1 7.74745 -27.2057 28.99 13
121 1 -6.31483 -27.6525 -14.4186 8
122 1 6.73476 29.6189 -27.1219 17
123 1 4.98706 -27.3423 -29.6539 20
124 1 4.50763 -15.394 -21.4388 22
125 1 5.07881 29.3146 -21.4272 23
126 1 -3.59377 -26.1387 -26.2802 19
127 1 -0.605032 -25.3353 -14.2295 18
128 1 -4.20611 -22.5909 -14.775 15
129 1 5.94468 -23.333 26.6088 12
130 1 -4.14631 -17.5228 -26.1938 17
131 1 4.97535 -16.4728 -24.5189 22
132 1 8.90458 -20.8483 -25.7097 19
133 1 2.73893 -24.5832 27.1243 13
134 1 -5.72395 -17.1466 -18.3401 11
135 1 3.98138 -28.032 -16.3595 21
136 1 12.8722 -22.9992 -18.6726 9
137 1 -5.06551 -24.5604 -30.0141 11
138 1 7.2421 -29.113 -19.4813 18
139 1 1.75864 27.181 -25.7988 16
140 1 8.1932 -20.4065 -19.3405 20
141 1 2.67917 26.9332 -18.0869 14
142 1 4.11744 -24.9414 -18.0185 23
143 1 9.55871 -23.9766 -17.5669 16
144 1 8.7261 -28.7057 -22.3629 19
145 1 9.33257 -18.155 -18.134 14
146 1 5.3347 27.7886 -29.3013 12
147 1 7.5574 -15.6013 -16.366 9
148 1 -1.82582 -20.6513 -28.1482 21
149 1 -0.500006 -15.7291 29.4191 15
150 1 -1.27663 -22.7914 -16.4607 22
151 1 -7.00168 -29.0458 -22.7857 13
152 1 8.94684 -17.5744 -20.9345 17
153 1 -0.347853 -15.7989 -19.0456 18
154 1 -5.77312 -15.5824 -23.8132 11
155 1 9.44586 -18.5903 -27.6327 13
156 1 1.90542 -23.1209 -13.5104 14
157 1 1.37825 -20.1508 -29.5026 21
158 1 1.96134 -16.9553 -16.5524 14
159 1 9.78416 -25.5097 -22.5831 19
160 1 6.27987 -12.3937 -22.1139 12
161 1 4.36238 -27.8583 -19.7628 21
162 1 -2.57885 -17.5592 -20.1448 22
163 1 7.55111 -27.0568 -27.7779 22
164 1 4.7229 29.2667 -18.1395 20
165 1 3.54954 -22.2509 -29.6077 24
166 1 -1.27135 -22.2545 -13.4253 14
167 1 13.4868 -21.5493 -21.4819 11
168 1 4.06613 -14.4149 -26.5647 14
169 1 12.1438 -20.7837 -26.8633 12
170 1 -2.6994 -28.0106 -14.0091 11
171 1 -1.73894 29.6506 -16.3331 12
172 1 -0.0791748 -17.7232 -28.4321 21
173 1 7.14465 -14.6722 -19.6493 15
174 1 -3.50321 28.7718 -18.985 14
175 1 12.4964 -25.871 -24.3984 15
176 1 -2.91294 -28.616 -21.1565 18
177 1 12.5535 -24.3057 -27.2517 14
178 1 11.078 -29.2713 -24.326 11
179 1 2.61463 -16.8451 -19.6817 20
180 1 -6.04243 -24.8338 -26.9824 17
181 1 1.55497 -12.4932 -26.4592 11
182 1 6.58085 -17.7226 27.4825 12
183 1 -5.14848 -23.654 -24.6088 20
184 1 5.21325 -26.6814 27.0793 13
185 1 3.56558 29.3136 -27.0059 19
186 1 2.30826 29.6684 -19.9645 24
187 1 11.7855 -27.4898 -21.5458 12
188 1 -6.94774 -17.9861 -21.2553 12
189 1 0.830839 -18.3613 28.1558 17
190 1 -5.81327 -27.9589 -25.6052 15
191 1 9.05124 -26.0375 -19.4176 20
192 1 -0.21629 -28.8059 29.8339 17
193 1 -3.28796 -14.5724 -18.9879 11
194 1 -2.49915 -20.3259 -18.2702 21
195 1 11.3177 -19.9899 -20.3401 13
196 1 8.68269 -20.4256 -22.5304 24
197 1 -0.318278 27.7659 -18.7835 16
198 1 3.88268 -18.909 28.9069 22
199 1 5.41375 -14.9518 29.3586 10
200 1 4.76068 -17.1808 -15.0922 12
201 1 2.9197 -12.5567 -23.7499 16
202 1 9.88611 -22.8619 -20.8028 24
203 1 -3.15637 -25.2024 -16.1754 21
204 1 9.85153 -25.2166 -29.0999 13
205 1 5.43157 -24.497 29.0782 20
206 1 1.51971 -14.3511 -21.4834 20
207 1 -0.815059 -16.8565 -25.2258 21
208 1 -2.12869 26.611 -21.1717 15
209 1 6.31889 26.5757 -22.9688 13
210 1 -7.73067 -25.9792 -24.1109 13
211 1 -3.3671 -15.8511 -28.7976 13
212 2 -6.20033 -23.7571 -17.4344 14
213 2 10.4218 -18.3318 -19.8307 13
214 2 4.60158 -26.9286 -17.9779 23
215 2 4.35623 -28.2463 27.8028 13
216 2 -4.29479 -24.1603 -22.916 19
217 2 -2.12698 27.5721 -19.5354 15
218 2 3.01003 -24.6602 -13.5746 13
219 2 12.8566 -26.2407 -22.542 12
220 2 0.44909 -13.9961 -19.7631 17
221 2 -0.544332 -17.3391 -20.3028 20
222 2 7.52285 -28.7765 -23.8594 22
223 2 1.80487 -25.829 28.3139 17
224 2 4.47298 28.9732 29.4206 13
225 2 -2.79496 -29.5492 -22.8985 16
226 2 -0.453051 -11.6577 -22.0438 10
227 2 6.06594 -24.3882 -17.9313 21
228 2 8.25134 -15.7241 -24.3096 14
229 2 3.15454 -13.4081 -22.0054 18
230 2 8.11263 -15.812 -20.8315 17
231 2 6.70424 -16.1227 28.4678 10
232 2 6.64436 -23.0828 28.4531 12
233 2 -3.82384 -23.156 29.6243 11
234 2 2.75702 28.932 -18.1304 18
235 2 -4.517 -20.841 -18.1105 18
236 2 8.16349 -29.0218 -27.7545 17
237 2 -4.62592 27.5336 -25.1848 12
238 2 6.45009 -23.5468 -27.5024 21
239 2 4.58312 -16.4697 -19.5777 19
240 2 4.19112 -26.9638 -14.6785 13
241 2 -3.10193 -29.9875 -17.6086 14
242 2 1.44628 25.8376 -24.4722 14
243 2 -1.80026 26.1966 -25.0018 15
244 2 -3.39461 27.226 -22.4255 13
245 2 -5.9042 29.4098 -23.0429 14
246 2 -0.253852 -14.5648 -22.427 20
247 2 3.97439 -20.9793 28.8964 23
248 2 9.91661 -20.9835 -23.9946 18
249 2 5.38615 -18.1261 26.0707 10
250 2 -3.79566 -17.5443 -29.6059 14
251 2 13.3143 -24.4448 -19.9588 11
252 2 5.74497 -15.2655 -25.953 16
253 2 -2.16739 -16.1381 -18.3842 15
254 2 3.06281 -16.4824 -24.674 18
255 2 6.34239 -15.5485 -29.0543 12
256 2 1.55344 -18.7739 -15.9925 15
257 2 0.912046 -26.3932 -14.9374 19
258 2 4.67853 -24.7897 27.0566 12
259 2 5.07554 -29.4567 -26.6278 23
260 2 -0.966867 29.5152 -29.4918 16
261 2 -7.08305 -27.7707 -24.1778 14
262 2 10.6718 -28.5905 -22.5934 13
263 2 7.69284 -18.4346 -19.5149 18
264 2 6.01124 -26.3657 28.8913 17
265 2 2.08306 -22.8753 27.389 15
266 2 -2.77875 27.9294 -27.8562 12
267 2 7.10564 -29.0248 29.0923 13
268 2 9.33028 -23.3982 -29.3214 14
269 2 -5.68369 -28.1974 -18.1148 14
270 2 3.04435 -27.2719 -29.6176 22
271 2 5.68222 -18.4644 -27.7983 24
272 2 0.132291 27.8696 -26.6059 16
273 2 1.55675 -22.1614 -29.4933 22
274 2 0.518772 -19.9416 -18.2421 21
275 2 -4.13339 29.9613 -20.3872 17
276 2 -4.07958 -23.8389 -19.6611 19
277 2 -6.80089 -16.7238 -22.6709 9
278 2 -4.53649 -28.0335 -14.2096 9
279 2 -8.07698 -22.3032 -23.2682 14
280 2 5.25604 -29.6837 -19.7506 23
281 2 9.49982 -20.9447 -20.7568 21
282 2 4.03589 -24.2373 -29.5787 23
283 2 7.48831 -19.8085 -15.0075 13
284 2 3.53503 -13.7319 -18.8016 16
285 2 0.0666054 -23.6404 -13.4989 15
286 2 -4.66383 -17.9809 -16.9861 14
287 2 -6.20741 -23.8144 -28.6436 12
288 2 12.2651 -20.1853 -22.0995 12
289 2 -7.65904 -25.9041 -19.0537 12
290 2 1.14556 -13.6161 -27.9471 16
291 2 5.79913 -21.4813 26.3894 11
292 2 -5.12046 -17.3934 -24.4517 18
293 2 6.52273 -21.5546 -19.4499 22
294 2 10.7413 -27.9149 -25.6634 14
295 2 4.7912 26.1947 -24.0765 14
296 2 -2.65627 -13.9234 -20.599 13
297 2 0.35528 29.2202 -20.0894 20
298 2 5.6277 27.3817 -21.3305 16
299 2 3.76556 -16.298 -16.4858 14
300 2 0.703064 -12.326 -24.7384 13
301 2 -4.73066 -24.6771 -14.7527 15
302 2 0.063355 29.0066 -23.3717 21
303 2 -2.27994 -26.1653 -13.6413 12
304 2 2.56734 -17.4919 27.6631 17
305 2 11.0003 -25.3766 -27.6035 15
306 2 3.247 -24.2177 -16.3901 22
307 2 -4.07247 -27.1939 -24.6418 22
308 2 5.74332 -16.3039 -22.699 23
309 2 6.59261 -14.9879 -17.8581 13
310 2 10.7156 -26.4066 -20.3498 17
311 2 -8.24617 -25.6008 -22.3109 12
312 2 4.32815 -19.0205 -14.7538 12
313 2 6.44022 -25.1172 -15.0197 15
314 2 3.37501 -19.8215 26.0412 13
315 2 9.28059 -23.5581 -22.4926 19
316 2 2.47017 -21.5887 -14.5639 17
317 2 7.38123 -27.1314 -19.6714 18
318 2 -6.98098 -21.5448 -26.8285 13
319 2 -1.51644 -15.3285 -28.9374 15
320 2 -5.72589 -20.6431 -29.5421 10
321 2 -0.194062 28.8575 -17.151 16
322 2 4.91672 -11.2069 -21.5292 9
323 2 -3.67269 -28.9804 -29.3422 14
324 2 13.213 -24.4226 -25.4424 12
325 2 -3.82613 -15.7313 -26.9668 14
326 2 8.14607 30.0407 -20.9872 15
327 2 -3.1658 -26.4916 -17.6972 16
328 2 -5.12987 -29.7908 -25.7108 16
329 2 3.1997 -13.0879 -25.5843 12
330 2 -4.88867 -15.6086 -18.8015 11
331 2 5.33502 -19.0828 -21.2414 21
332 2 2.04117 -28.5646 -16.5514 19
333 2 -5.86871 -18.426 -19.7834 13
334 2 0.359227 -16.7975 -26.7954 16
335 2 -1.17071 -21.1572 -15.0571 19
336 2 -4.12999 -24.2228 -26.2708 20
337 2 6.92402 -13.3789 -23.5469 11
338 2 1.42325 -16.0507 -18.172 18
339 2 0.801328 -22.7538 -16.8111 21
340 2 -1.07508 -26.8968 29.6849 17
341 2 3.49397 -15.0777 29.5103 14
342 2 3.10483 28.4737 -25.2029 18
343 2 -0.813214 -17.6551 28.8617 15
344 2 8.53732 -22.8613 -16.385 16
345 2 12.7366 -21.1964 -25.0888 14
346 2 2.59262 25.5212 -21.7216 13
347 2 6.99535 -21.0456 -29.5363 17
348 2 6.58354 -16.7216 -15.0922 10
349 2 -5.52335 -21.6624 -24.6203 20
350 2 -1.58077 -22.0626 -18.4658 22
351 2 -5.37395 -26.7731 -27.1565 16
352 2 2.79649 28.6282 -21.6384 23
353 2 0.0816875 -17.3982 -23.5494 21
354 2 -4.32115 -20.7011 -15.1576 13
355 2 -5.24549 -21.3759 -21.3588 20
356 2 4.60846 27.6625 -27.5114 13
357 2 5.66604 -21.8299 -16.0968 16
358 2 -3.00314 -21.0298 -26.508 19
359 2 1.01283 -16.5231 -29.5278 19
360 2 8.40865 -17.9146 -29.0854 13
361 2 6.92319 28.7532 -28.9115 11
362 2 11.4182 -24.0962 -18.0302 11
363 2 9.01579 -20.0258 -17.5876 14
364 2 0.936381 -14.5982 28.6394 11
365 2 -0.545703 -23.8372 28.9609 15
366 2 1.50149 -29.2368 29.0002 14
367 2 2.40965 -10.6917 -23.1015 10
368 2 -1.23483 -14.7648 -25.5999 16
369 2 -4.98557 -18.9809 -27.106 17
370 2 -1.99077 -19.0262 -16.6631 16
371 2 2.85656 -18.7521 -29.4092 24
372 2 5.57682 -26.6498 -27.9348 24
373 2 -6.76422 -19.5264 -22.572 14
374 2 1.0685 -20.266 28.4909 15
375 2 7.34608 -27.6971 -15.3112 11
376 2 -2.98872 -23.083 -13.2834 14
377 2 0.0835095 -28.2405 -28.1876 22
378 2 -3.28827 -23.2076 -16.4665 22
379 2 7.91915 -29.9372 -17.7823 12
380 2 -7.18313 -23.1613 -20.738 14
381 2 -1.09108 -24.9397 -16.2061 21
382 2 1.18074 26.467 -19.1655 16
383 2 12.5099 -21.5189 -19.7734 10
384 2 6.74398 28.4566 -25.4191 17
385 2 -2.79846 -16.6816 -21.9416 20
386 2 -4.37802 -26.3012 30.0614 11
387 2 -6.88874 -26.5761 -15.8374 10
388 2 5.21079 -29.5731 -16.663 15
389 2 10.2453 -20.3123 -27.2113 13
390 2 5.88935 -18.9294 28.8539 18
391 2 8.76413 -17.0949 -16.6344 10
392 2 -4.07608 -14.6735 -23.8949 13
393 2 8.56754 -25.7827 -17.4396 15
394 2 8.1117 -26.1003 -26.136 22
395 2 -2.25974 29.9876 -25.9844 21
396 2 8.51961 -26.5167 -29.4386 14
397 2 7.86845 27.4844 -19.3491 12
398 2 9.23682 -22.8721 -26.0352 23
399 2 8.07694 -26.3608 -22.7423 18
400 2 3.42805 -21.2969 -18.1135 20
401 2 12.0141 -22.5287 -27.6122 12
402 2 -6.78115 -24.6963 -25.1497 18
403 2 -3.75818 -26.9019 -21.1309 17
404 2 4.40459 27.0234 -18.9377 13
405 2 3.55432 -16.0247 -27.5835 19
406 2 13.7521 -23.0356 -22.6549 12
407 2 8.52861 -18.3452 -25.9407 16
408 2 -0.235351 -27.9834 -17.9644 21
409 2 4.7844 30.2051 -23.1253 19
410 2 10.6885 -25.1147 -24.3115 18
411 2 8.02503 27.5112 -22.9679 14
412 2 2.19104 29.59 -28.4012 17
413 2 2.48353 -16.0814 -21.4861 23
414 2 5.8234 -13.838 -20.8005 14
415 2 -0.332341 26.2929 -21.8872 16
416 2 -1.44285 -28.8226 -15.193 15
417 2 -2.87058 -19.4907 -20.084 22
418 2 8.90347 -23.9756 -19.5582 20
419 2 8.34168 -18.4303 -22.7037 22
420 2 -2.72601 -20.219 30.1543 14
421 2 -7.00992 -28.2986 -21.0367 12
422 2 9.79161 29.5143 -25.166 12
423 1 2.37916 -25.3434 -29.6936 24
424 1 -0.591847 -26.2941 -28.3361 20
425 1 2.06791 -28.3339 -28.1982 22
426 1 2.05404 -25.4582 -26.5358 24
427 1 -0.993656 -25.5483 -24.9882 21
428 1 1.51309 -27.745 -24.8742 20
429 2 1.00177 -25.1137 -28.2434 21
430 2 -1.7033 -26.5061 -26.6559 19
431 2 2.63423 -27.4389 -26.5155 23
432 2 -0.122536 -28.8078 -24.9557 20
433 2 0.973714 -25.762 -24.8754 22
434 1 -3.84199 -26.1697 -22.9626 19
435 1 -0.797396 -29.1934 -23.0408 19
436 1 1.59932 -24.8434 -23.232 21
437 1 -0.950365 -26.1863 -21.4784 20
438 1 1.53761 -27.7667 -21.6032 21
439 1 1.4213 -24.746 -19.9658 21
440 2 -1.82918 -25.6706 -23.1636 19
441 2 2.37506 -28.4561 -23.2338 21
442 2 -0.737786 -28.2322 -21.2596 21
443 2 1.07654 -25.8509 -21.5972 21
444 2 -1.58739 -25.2873 -19.8319 22
445 2 2.37842 -28.3501 -19.9085 23
446 2 1.06396 -25.6107 -18.2341 20
447 1 0.560197 -23.1194 -28.077 21
448 1 -2.59479 -23.0124 -26.5682 18
449 1 0.942723 -20.1629 -26.4834 23
450 1 -2.20713 -19.9563 -25.0484 22
451 1 0.13296 -22.4014 -24.8774 21
452 2 -1.40954 -22.7415 -28.1847 19
453 2 -0.0669556 -19.6717 -28.1776 21
454 2 1.32489 -22.2022 -26.474 21
455 2 -1.47996 -23.5475 -24.9865 21
456 2 -0.274067 -20.3943 -24.8996 20
457 1 -2.34377 -23.6629 -23.1572 19
458 1 0.467931 -19.374 -23.3644 20
459 1 -2.1613 -20.5313 -21.6583 20
460 1 0.229696 -22.1381 -21.7074 20
461 1 -2.09751 -23.3469 -19.8749 23
462 1 0.355365 -19.0588 -20.1072 23
463 1 0.374615 -21.8958 -18.5511 21
464 2 -3.1407 -19.8518 -23.2372 21
465 2 -2.40922 -17.9366 -25.2098 19
466 2 1.18288 -22.851 -23.2661 22
467 2 -1.7675 -22.5328 -21.673 20
468 2 -0.159336 -20.1656 -21.6556 22
469 2 1.16138 -22.7529 -20.1125 20
470 1 4.97445 -24.7239 -27.8253 22
471 1 4.62123 -27.5727 -26.41 21
472 1 7.66999 -24.1015 -26.077 23
473 1 4.75214 -24.8214 -24.6663 24
474 1 7.26226 -26.8833 -24.4854 21
475 2 3.6802 -24.3551 -26.3256 24
476 2 5.22422 -26.8215 -24.6521 24
477 2 6.43397 -23.7708 -24.4929 23
478 1 4.31865 -27.7959 -23.1512 20
479 1 7.27674 -23.5049 -22.7001 23
480 1 4.35919 -24.8982 -21.4039 21
481 2 3.56052 -24.3791 -23.1349 22
482 2 4.77225 -26.9071 -21.4553 22
483 2 6.29524 -24.3794 -21.1873 23
484 2 3.43186 -24.3543 -19.7601 21
485 1 3.29956 -22.3542 -26.3454 24
486 1 3.64961 -19.488 -24.6672 22
487 1 6.00865 -21.7374 -24.5392 23
488 2 4.17694 -21.3878 -27.8931 23
489 2 2.5898 -19.0668 -26.3556 23
490 2 6.91994 -20.8591 -26.0687 24
491 2 4.02932 -21.4809 -24.6797 23
492 2 5.40859 -18.5038 -24.5647 24
493 1 3.15286 -22.3513 -23.1215 22
494 1 3.36455 -19.5003 -21.4455 21
495 1 5.77599 -21.0546 -21.2407 21
496 1 3.11702 -22.3558 -19.8199 22
497 2 2.44457 -19.0663 -23.1313 22
498 2 6.9519 -21.4501 -22.7733 23
499 2 3.81404 -21.5123 -21.4463 21
500 2 2.37876 -18.8029 -19.8935 20
