ITEM: TIMESTEP
8000
ITEM: NUMBER OF ATOMS
500
ITEM: BOX BOUNDS pp pp pp
-30.0 30.0
-30.0 30.0
-30.0 30.0
ITEM: ATOMS id type x y z Coordination
1 1 9.29888 -2.33634 8.27842 13
2 1 0.231501 5.04809 9.49593 17
3 1 11.42 2.36677 4.69622 11
4 1 -9.1215 0.593208 2.01599 13
5 1 -0.651501 2.5136 -8.88534 14
6 1 4.43166 0.364882 8.19533 21
7 1 -5.23905 2.2403 -0.390114 17
8 1 2.88044 2.46621 -8.04566 21
9 1 6.93574 -5.48343 -2.19424 13
10 1 7.72668 2.44961 5.49635 21
11 1 1.16909 7.46126 -5.67934 17
12 1 3.13334 5.39334 11.6747 12
13 1 -5.99065 0.189096 2.49795 19
14 1 -7.36978 -0.64677 -0.28573 17
15 1 9.27811 -0.901961 -6.06489 10
16 1 3.02295 -6.41362 10.0064 9
17 1 -6.21611 -5.6201 3.01425 14
18 1 -4.63881 -2.11477 -7.96229 11
19 1 6.13451 -1.37683 -6.26772 20
20 1 8.59866 -5.14398 3.88079 12
21 1 -6.4532 8.67309 3.90561 9
22 1 2.51017 8.40327 2.52649 17
23 1 1.10814 -3.84874 -5.04667 21
24 1 -2.53041 3.32427 10.4544 13
25 1 9.67315 -3.1798 1.7502 16
26 1 -1.92127 7.8218 5.74366 17
27 1 4.24088 5.7294 -2.56805 24
28 1 7.79186 8.44165 0.204019 14
29 1 -0.339071 9.23557 -2.77125 12
30 1 -3.77167 5.44211 -5.63911 12
31 1 -3.11439 8.0364 -0.94669 16
32 1 2.28479 10.0466 -0.691959 11
33 1 -7.69706 3.14182 1.23606 16
34 1 0.730669 7.54536 10.6703 8
35 1 -2.45509 2.27544 -6.0891 21
36 1 -2.25609 -4.74627 8.09283 17
37 1 9.15048 -3.45803 -1.93854 14
38 1 -7.06838 2.11673 7.21906 11
39 1 -5.25797 0.585398 -3.04444 20
40 1 0.187202 -9.23863 6.56968 11
41 1 6.01026 4.60403 -5.48625 20
42 1 -7.77724 1.34357 -7.9326 11
43 1 3.85717 4.64977 -10.4479 9
44 1 -1.20033 -8.3655 3.21073 20
45 1 -0.89592 10.1752 0.856504 12
46 1 -8.12181 2.92016 4.17134 15
47 1 5.86698 7.44463 10.2831 9
48 1 7.3568 -1.4302 10.8847 9
49 1 2.32575 -8.66759 -2.30054 16
50 1 7.61053 1.60762 -5.61647 15
51 1 -4.68507 -6.73191 0.105133 17
52 1 -1.19892 -6.41635 5.33332 22
53 1 5.62243 -2.42758 8.0775 19
54 1 4.21202 -5.40701 7.42417 20
55 1 6.32242 9.00085 2.53793 14
56 1 -4.55212 -8.06899 3.4842 18
57 1 -4.12207 -10.7397 2.39387 9
58 1 -3.33513 -5.64575 -2.37555 22
59 1 -0.6385 -2.25347 8.23017 21
60 1 -7.8528 -0.224766 4.99099 13
61 1 4.21074 -9.24073 0.174421 12
62 1 -7.62421 -2.48532 2.30855 14
63 1 -3.24274 8.86868 2.3777 13
64 1 -3.52513 4.51897 5.74119 22
65 1 -2.23717 6.24173 8.59665 19
66 1 -5.79847 -3.80738 -5.43632 15
67 1 -6.01949 2.48261 -5.90693 16
68 1 -2.78219 -3.7258 -5.40374 22
69 1 7.46232 -3.04679 5.80327 20
70 1 1.0833 -3.30175 10.453 10
71 1 -2.23074 -0.715045 -7.69933 16
72 1 -8.89182 0.138284 -3.37054 15
73 1 -2.57882 -9.75035 0.153352 15
74 1 -4.64115 4.21088 8.21442 15
75 1 -3.59493 5.17004 0.402133 18
76 1 0.744779 -10.0124 -4.75485 9
77 1 3.28291 8.22136 8.06218 13
78 1 -6.75367 -0.908401 -5.86868 19
79 1 -7.85428 5.52502 -0.823469 12
80 1 -1.32977 -8.98129 -6.1479 9
81 1 6.04856 -8.73379 6.63103 11
82 1 -7.2916 3.54902 -2.74534 15
83 1 -3.62485 -1.98011 7.91217 19
84 1 -6.12377 4.87504 5.40972 16
85 1 2.07631 -7.41795 -5.36401 13
86 1 1.29643 0.306973 8.41528 19
87 1 0.800204 -5.39987 7.91523 21
88 1 3.87322 -5.72963 -2.21059 21
89 1 9.46927 5.42669 0.306168 16
90 1 4.66098 -0.115238 -8.23346 15
91 1 7.99911 -5.59322 7.30379 12
92 1 -4.1514 -8.37096 -2.47132 15
93 1 -6.68171 -0.896034 8.29766 11
94 1 8.05963 0.230775 7.8599 19
95 1 12.1123 7.27698 0.0516207 5
96 1 2.63806 4.64584 -5.61063 23
97 1 2.50173 8.16153 -10.6659 7
98 1 4.3988 8.37544 4.87455 14
99 1 5.78733 3.26369 -8.12786 13
100 1 2.28515 -8.58291 3.06351 15
101 1 9.2881 -0.791585 0.0520251 18
102 1 0.545999 -9.64849 0.484036 14
103 1 -9.95508 -0.499016 -6.42074 7
104 1 11.8763 -1.41211 -1.40662 9
105 1 -2.15187 6.33447 -2.949 18
106 1 5.10866 -8.47676 -3.37924 9
107 1 -5.23561 -4.15624 8.88276 11
108 1 -0.884684 -8.2277 -1.97081 19
109 1 2.10344 -5.4214 -7.55845 12
110 1 4.32723 7.82655 0.244622 22
111 1 5.4281 -8.20646 2.89976 11
112 1 -3.88871 -6.74444 -5.45287 12
113 1 4.124 -1.05729 10.7714 13
114 1 1.1059 2.6869 11.0228 13
115 1 5.54777 -3.54982 -7.5926 11
116 1 -9.6178 2.83686 -4.80052 9
117 1 5.64076 9.10912 -1.77767 11
118 1 7.67465 0.184111 -2.93554 21
119 1 1.20591 5.32415 -8.66348 17
120 1 -4.73527 6.29958 3.08064 19
121 1 2.66179 -2.39123 8.13246 22
122 1 -4.33495 1.51874 -8.19201 13
123 1 10.9011 -2.41955 5.39431 13
124 1 6.34294 2.83894 8.396 18
125 1 2.85384 -8.44255 7.8971 11
126 1 9.63122 5.14149 4.87282 14
127 1 10.2432 2.78174 7.25119 8
128 1 -0.884997 -6.27552 -5.03281 17
129 1 6.95777 4.88331 11.1411 10
130 1 -0.60305 4.8584 -5.7474 18
131 1 -1.02402 2.76432 7.70198 24
132 1 -5.69038 -9.94732 0.322008 10
133 1 6.14244 5.41865 5.55026 22
134 1 -4.92992 7.53447 7.04097 11
135 1 -1.83131 6.32815 3.12555 20
136 1 4.8871 6.92386 -5.16737 12
137 1 4.54784 2.30258 10.6902 13
138 1 1.0468 -0.0137549 -7.96188 16
139 1 2.7257 2.53872 7.4267 20
140 1 11.1943 -1.71199 -4.19449 9
141 1 8.06343 8.08902 5.03535 11
142 1 5.82316 -6.20541 4.66105 20
143 1 1.44389 7.86826 5.49013 17
144 1 4.271 -3.81277 -4.95908 19
145 1 5.85581 -7.89598 9.14463 9
146 1 -4.12659 -0.0526561 5.33801 22
147 1 11.0111 -0.431648 2.57348 17
148 1 0.109725 8.77949 -8.57041 7
149 1 8.65405 3.78578 -3.621 17
150 1 -1.05875 0.194459 9.70242 14
151 1 -2.29286 -4.2569 10.7593 12
152 1 -5.91125 7.897 0.56642 14
153 1 10.1182 8.72227 2.73231 9
154 1 -4.38609 -5.79699 5.63711 16
155 1 10.6972 1.89342 -1.55716 14
156 1 -7.45909 -8.91433 3.11883 7
157 1 9.88964 2.92999 1.98428 13
158 1 7.45195 -3.72324 0.421859 21
159 1 4.36019 5.1624 8.18203 21
160 1 -7.62832 -2.73749 -2.88341 12
161 1 0.853642 7.65329 -0.644477 18
162 1 3.94678 5.99981 -8.26592 14
163 1 -3.84097 -0.632942 -5.17672 21
164 1 2.89633 -2.50652 -7.70681 18
165 1 -1.37379 -10.8731 -2.89169 9
166 1 2.22992 -6.43106 5.06899 20
167 1 13.0381 -3.05353 1.52046 6
168 1 -9.19514 1.88838 -0.994654 14
169 1 -1.85489 6.15957 -8.45482 10
170 1 -5.79039 -5.38565 -2.88092 16
171 1 9.75286 0.0720092 5.30249 19
172 1 -0.201129 -2.93985 -7.86479 14
173 1 -7.8929 6.32491 2.62673 12
174 1 -3.68476 1.31447 8.35444 16
175 1 7.97053 5.87685 2.43685 22
176 1 10.8061 5.12245 -2.67595 11
177 1 -1.56679 -7.37153 9.07789 10
178 1 4.74847 1.65523 -5.24797 22
179 1 7.45707 6.92092 -2.91998 14
180 1 7.43785 6.25281 7.63857 12
181 1 3.1191 8.61312 -3.31861 14
182 1 10.8285 2.12856 -4.92691 10
183 1 8.02906 -3.45882 -4.67473 14
184 1 -0.0942088 8.494 8.35187 13
185 1 -0.402765 9.80705 3.71804 11
186 1 -2.57896 -8.9153 6.18144 11
187 1 5.91521 -6.26466 0.695456 17
188 1 -6.31574 -3.79324 -0.170503 15
189 1 -5.44688 6.21903 -2.65506 14
190 2 -7.78621 -0.746651 1.58989 17
191 2 9.47277 4.80054 2.21872 16
192 2 -2.12368 0.236041 -5.55728 20
193 2 -9.70533 0.91549 -5.30793 10
194 2 -1.55968 -8.92077 7.68101 9
195 2 2.56317 -1.98641 10.3494 15
196 2 9.35779 -1.05361 2.0052 20
197 2 -5.19638 2.39533 7.87891 15
198 2 7.73921 -3.91744 -2.94402 14
199 2 -2.41215 1.86326 -8.03655 14
200 2 1.06617 -4.10508 -8.13875 10
201 2 -0.141958 8.09117 6.5745 16
202 2 11.3691 -0.933549 4.23886 14
203 2 8.26593 8.98723 2.10711 10
204 2 -0.706032 6.90679 9.72051 11
205 2 9.04912 7.20841 3.55686 15
206 2 3.14991 7.69322 -5.10522 13
207 2 5.24149 -1.99682 -8.10225 12
208 2 -6.1109 2.17685 -7.77854 10
209 2 2.40485 -6.36931 8.01645 17
210 2 -7.2311 0.254794 6.78838 12
211 2 5.58739 -6.6425 -2.89983 13
212 2 0.633584 -8.7506 2.29523 16
213 2 5.09061 5.50771 11.3755 11
214 2 5.75103 -1.89282 10.003 13
215 2 -4.12971 -7.96296 5.46768 14
216 2 -1.0388 -8.44735 5.1577 16
217 2 -6.99834 -7.17797 3.50104 9
218 2 -4.05054 -10.9381 0.37225 9
219 2 -5.8957 -9.97246 2.44972 9
220 2 -2.46091 9.23381 0.495384 16
221 2 4.56522 -0.257174 -5.78397 22
222 2 10.7842 7.91479 1.19538 10
223 2 5.49813 5.0259 -9.079 10
224 2 -5.52392 2.34535 -2.50295 19
225 2 9.74364 2.91566 -0.302175 15
226 2 1.19578 8.75667 3.73779 15
227 2 -5.92732 8.67936 5.69602 8
228 2 2.26746 7.99676 0.679983 17
229 2 1.49283 9.55581 -9.83539 5
230 2 -0.795389 4.73719 7.62065 22
231 2 1.25537 -3.48388 7.74511 21
232 2 3.81665 -4.22106 -7.44278 12
233 2 0.516481 -9.29271 -3.07335 17
234 2 0.543018 -8.26317 -5.82476 12
235 2 -5.90676 -5.44711 -1.07144 15
236 2 9.31274 -2.74619 -0.0972689 16
237 2 6.15454 4.75572 7.69325 18
238 2 1.12053 1.75523 -8.74725 14
239 2 2.66506 -0.630968 -7.75653 19
240 2 -0.830444 -4.13175 -5.76378 17
241 2 1.46033 -5.74332 -5.49471 15
242 2 7.51494 -0.253197 -6.27194 16
243 2 -2.63511 -5.08946 4.8606 22
244 2 2.69812 -2.88885 -5.30496 22
245 2 -1.22225 -10.3837 -4.79652 8
246 2 -0.638781 3.00653 -5.47037 21
247 2 -2.42392 5.88101 5.05011 21
248 2 -4.47737 -6.50778 2.12846 20
249 2 -2.96828 7.8322 7.44864 13
250 2 -3.91201 -5.36993 7.57603 18
251 2 -9.17324 1.9661 1.02718 13
252 2 4.58943 -6.64381 8.98527 12
253 2 9.02183 5.64828 -3.37227 10
254 2 -0.384899 -1.13074 -7.4635 17
255 2 4.41372 6.10754 4.96561 21
256 2 7.98684 6.28559 5.75759 12
257 2 2.94697 3.40869 11.432 11
258 2 -4.63596 4.41875 3.94122 19
259 2 -5.23512 0.697275 -5.48373 22
260 2 10.9326 6.02749 -0.801313 9
261 2 -7.37154 -2.40903 -0.937851 15
262 2 -4.02786 5.38248 -3.61118 15
263 2 4.67978 1.85007 -8.52274 13
264 2 -3.12646 6.72385 1.71224 18
265 2 7.37281 -5.46856 -0.340252 14
266 2 2.19049 -9.10671 -0.162742 13
267 2 -5.19707 8.60888 2.33837 13
268 2 1.77635 -8.34734 6.12575 14
269 2 3.89077 -8.81155 2.0625 14
270 2 6.04262 3.21057 10.2134 13
271 2 0.228666 9.75377 -0.75818 11
272 2 -3.44744 -3.43515 9.17408 11
273 2 -1.39568 -6.26109 2.63023 20
274 2 -0.65187 -3.50765 9.73997 16
275 2 3.16153 6.56083 -10.0289 8
276 2 10.5224 0.0816811 -4.89871 11
277 2 6.02863 -0.646545 7.44146 23
278 2 7.73728 6.54087 0.501351 18
279 2 3.1029 8.58773 6.1371 14
280 2 -6.73083 -4.01547 1.82575 15
281 2 1.71936 5.71617 10.5774 14
282 2 9.75653 -1.41931 6.5984 14
283 2 3.24644 4.34719 -8.49948 14
284 2 2.79408 4.49087 7.38294 18
285 2 7.45909 -5.76963 5.46073 15
286 2 -7.85768 -1.42014 -4.28967 14
287 2 -7.14215 5.4775 -2.67773 11
288 2 -8.23038 -0.323186 -7.22204 10
289 2 -2.2616 -6.03103 10.0417 10
290 2 6.42173 8.71632 4.47471 13
291 2 -4.32572 -4.87184 -5.44425 15
292 2 13.3141 -2.13227 -0.158028 6
293 2 -7.34858 6.54193 0.835818 13
294 2 11.5318 -3.36942 2.21642 11
295 2 -5.83738 -2.4841 7.62292 12
296 2 -4.65633 -6.65187 -3.53493 16
297 2 1.35582 7.96836 -2.73605 17
298 2 -6.4129 6.46522 3.87429 16
299 2 2.01782 -5.02279 10.6353 10
300 2 -8.22938 4.48298 2.6262 15
301 2 -5.17398 7.11559 -0.976307 14
302 2 -0.638829 3.38926 10.1865 15
303 2 -7.34657 3.26019 -4.83317 14
304 2 5.97137 8.80989 0.61675 16
305 2 -3.2973 4.8698 9.54434 15
306 2 4.69224 2.10599 7.21544 22
307 2 -6.14035 -2.48664 -6.79311 12
308 2 1.19217 5.49153 -6.35414 20
309 2 -1.22955 -6.36506 -2.89983 22
310 2 7.91767 0.310238 4.66674 21
311 2 7.43267 8.61721 -2.09853 9
312 2 4.82331 -9.07658 8.17593 10
313 2 7.16301 1.82877 -3.41751 19
314 2 7.4684 6.20361 9.74844 9
315 2 -2.80468 2.94074 6.90028 21
316 2 -5.96165 -3.54314 -3.58922 18
317 2 -1.08068 -8.56093 0.0860402 18
318 2 -0.663148 11.0903 2.45591 7
319 2 -7.31834 3.23835 5.81593 12
320 2 -6.88884 -1.61078 3.81182 14
321 2 -2.39069 -9.36587 -2.29596 12
322 2 4.61715 0.632231 10.1762 16
323 2 -0.0624654 6.89183 -9.18609 11
324 2 5.82962 5.03305 -3.62586 18
325 2 3.27927 -8.23857 -4.13327 11
326 2 10.4794 1.50558 5.98711 14
327 2 8.38124 -0.916907 9.40195 9
328 2 0.48953 8.90894 -6.74429 7
329 2 -4.23338 3.50131 -5.75079 16
330 2 -3.2156 -2.04008 -6.39266 17
331 2 1.79484 8.59513 9.18114 10
332 2 -1.8349 8.17057 -2.66621 12
333 2 -9.2566 2.48823 -2.90954 12
334 2 -4.99254 5.67658 6.88289 16
335 2 2.87328 2.5769 -5.92044 23
336 2 6.06648 -3.20727 -5.45018 16
337 2 -7.59597 3.5509 -0.52294 15
338 2 -0.488057 4.42985 -8.75386 13
339 2 7.85993 -3.51293 7.50784 16
340 2 -2.03944 -2.85336 7.03667 22
341 2 -4.01272 -0.24439 7.15235 19
342 2 6.92722 -6.93229 7.77645 10
343 2 -8.37564 1.22224 3.85622 13
344 2 -0.459563 -0.256764 7.77309 19
345 2 -0.870695 -6.20835 7.79257 20
346 2 10.8296 1.56242 3.01774 13
347 2 2.18334 -6.67092 -1.7886 22
348 2 -1.72231 8.32438 3.75725 18
349 2 -4.14391 -0.247168 -8.31192 14
350 2 -5.91924 -4.64137 4.85403 17
351 2 4.06152 -3.44058 7.35249 20
352 2 6.10278 2.81295 -6.02001 19
353 2 8.10991 2.114 7.43494 16
354 2 9.5222 -3.57595 4.71437 16
355 2 9.58266 -2.51248 -4.95293 11
356 2 5.65161 -6.27663 2.58538 16
357 2 7.97571 -3.83735 2.55554 19
358 2 -2.57125 1.49639 9.9592 12
359 2 4.50493 5.54623 -6.38766 17
360 2 -8.93313 -0.043833 -1.56806 13
361 2 -5.82347 1.94227 1.9116 19
362 2 5.53658 -8.15998 4.77384 12
363 2 3.80604 9.1418 -1.38409 13
364 2 10.3829 3.16772 -2.92122 12
365 2 5.16314 7.5218 -3.20704 15
366 2 3.9876 -5.51211 5.31957 19
367 2 10.8465 -2.44901 -2.47942 11
368 2 4.3577 -9.31479 -1.77121 10
369 2 -2.36795 -7.4762 -5.93985 10
370 2 4.31508 7.89694 2.79716 16
371 2 4.57956 7.18538 8.83332 12
372 2 -2.92532 -9.36674 2.87465 14
373 2 0.730989 0.830893 10.283 15
374 2 10.5366 3.8474 5.8449 10
375 2 9.03979 2.76705 -5.35938 13
376 2 -2.19419 5.85197 -6.6352 14
377 2 -4.8595 -8.50195 -0.689712 15
378 2 10.9658 0.0846484 -0.88112 14
379 1 -4.61657 -2.5373 -2.59532 21
380 1 -0.521983 -0.839345 -5.34367 21
381 1 0.44813 -5.59123 -2.22585 22
382 1 -1.30053 -2.87815 -2.49758 22
383 2 -2.83091 -5.49809 -0.360695 23
384 2 -4.20406 -2.38905 -0.597869 22
385 2 -3.89306 -0.681556 -3.12346 19
386 2 -2.89386 -3.83661 -3.29872 23
387 2 0.851368 -5.78082 0.272387 23
388 2 -0.933747 -2.51527 -0.354548 22
389 2 -0.824474 -0.921268 -3.07794 18
390 2 0.496185 -3.8278 -2.76086 19
391 1 -3.95839 -0.479557 0.166571 21
392 1 -2.55403 -3.44599 0.199407 20
393 1 -3.06442 -5.20354 2.75937 21
394 1 -3.93629 -2.52959 2.84122 21
395 1 -5.9174 -2.88389 5.5531 18
396 1 -2.37281 -3.36417 5.29823 22
397 1 -1.19834 -6.3705 0.476236 22
398 1 -0.621894 -0.690242 0.00646652 21
399 1 0.730666 -3.6228 0.108582 22
400 1 0.425265 -5.27649 3.06729 22
401 1 -0.627086 -2.37997 2.60351 20
402 1 -0.599148 -0.202904 5.73638 23
403 1 0.830887 -3.39255 5.58976 24
404 2 -4.23923 -0.552317 2.64316 18
405 2 -2.20214 -3.42326 2.01161 22
406 2 0.4777 -5.38492 5.11729 19
407 2 -0.658447 -2.66505 4.48166 23
408 2 -0.868768 -0.598703 2.19077 23
409 2 0.998544 -3.65555 2.19388 21
410 2 -2.32767 0.448116 5.14554 20
411 1 -2.38685 0.399036 -2.56675 23
412 1 -3.95454 3.36326 -3.56987 20
413 1 1.04238 1.76827 -5.3772 23
414 1 0.952482 0.152548 -2.7894 20
415 1 -0.695821 3.16252 -3.57345 18
416 1 1.24653 5.9463 -2.90685 19
417 2 -5.71008 0.366814 -0.704852 20
418 2 -2.25683 0.410967 -0.464109 23
419 2 -3.73525 3.33541 0.490702 19
420 2 -2.37155 2.61824 -2.70446 22
421 2 -2.28383 6.03624 -0.982671 18
422 2 1.01825 -0.0968582 -5.5035 20
423 2 0.991599 0.1752 -0.724464 23
424 2 -0.60062 3.20648 0.0774275 19
425 2 -0.576051 5.18264 -3.5644 21
426 2 0.887398 1.9384 -3.15502 21
427 2 1.18806 5.76124 -0.755572 19
428 1 -2.16569 2.26107 -0.213319 20
429 1 -2.46776 0.398404 2.84836 23
430 1 -4.52798 3.28537 2.33859 18
431 1 -1.97608 2.41443 4.91095 20
432 1 -0.596437 5.0164 -0.0503809 20
433 1 1.18804 2.25739 0.33617 22
434 1 1.08262 0.26856 3.02462 21
435 1 -0.857276 3.30543 2.71603 20
436 1 -0.478637 5.23607 5.57799 21
437 1 1.01383 2.41087 5.51081 23
438 1 1.38013 5.6226 2.86654 21
439 2 -4.04648 -2.29847 5.03821 19
440 2 -2.67321 2.48286 2.87999 20
441 2 1.04904 0.514769 4.94129 21
442 2 -0.342149 3.37706 4.82646 23
443 2 -0.463015 5.32693 2.36401 17
444 2 0.864 2.22372 2.56633 20
445 2 0.93556 2.01903 7.49579 22
446 2 1.25546 5.99632 4.79441 22
447 1 2.9724 -0.941125 -4.94012 24
448 1 2.06169 -2.80382 -2.61089 21
449 1 5.62762 -2.63887 -2.552 22
450 2 3.95432 -5.48436 0.122647 21
451 2 2.36976 -2.617 -0.630868 23
452 2 2.84671 -0.908899 -2.73625 20
453 2 4.23388 -3.96587 -3.17195 19
454 2 5.8582 -3.01043 -0.392141 22
455 2 6.04032 -0.681769 -2.66808 20
456 1 2.45115 -6.95987 0.129458 21
457 1 2.6611 -0.79995 0.191221 22
458 1 3.8036 -3.63526 0.0398306 22
459 1 3.84185 -5.2785 2.54695 20
460 1 2.61279 -2.74177 2.68306 21
461 1 2.95815 -0.549603 5.35363 23
462 1 4.1364 -3.59488 5.44814 20
463 1 5.99529 -0.775078 -0.0866392 21
464 1 6.10057 -2.88662 2.99716 21
465 1 6.20717 -0.487057 5.37544 21
466 2 2.57194 -6.53807 3.0487 20
467 2 2.56819 -2.477 4.91239 23
468 2 2.5262 -0.876931 2.16652 23
469 2 4.41891 -3.40794 2.24545 23
470 2 2.76761 -0.546507 7.42589 24
471 2 5.76491 -2.44648 4.90458 22
472 2 6.19419 -0.852774 1.9137 21
473 1 4.24446 0.396357 -2.29611 23
474 1 2.4781 2.96988 -2.66529 21
475 1 5.87177 3.16487 -2.63938 20
476 2 4.46177 0.225332 4.93819e-04 20
477 2 2.77105 2.93155 -0.443753 22
478 2 2.5549 4.73432 -3.45678 25
479 2 4.33157 2.17967 -3.34449 24
480 2 4.5172 5.94049 -0.590209 22
481 2 7.70468 0.0652997 -0.649647 20
482 2 6.4465 3.11428 -0.692361 24
483 1 2.98036 4.86575 -0.0128788 21
484 1 4.55432 2.43 0.142488 21
485 1 4.33862 0.0486321 2.28183 19
486 1 2.94048 3.01555 2.67621 22
487 1 2.69981 5.17878 5.47911 18
488 1 4.66133 2.53394 5.26824 22
489 1 4.50991 5.91047 2.87187 24
490 1 6.1988 5.20653 -0.0740094 19
491 1 7.76082 2.17175 -0.210696 22
492 1 7.91854 0.126871 2.74767 23
493 1 6.34258 2.85483 2.90922 23
494 2 4.40737 0.441873 4.56917 23
495 2 3.09907 3.46879 4.75183 21
496 2 3.23549 4.75225 1.78888 23
497 2 4.71846 2.07578 2.43753 19
498 2 6.37112 3.48655 4.96706 21
499 2 6.2226 4.98719 2.02385 22
500 2 7.94327 2.10373 2.09275 19
