ITEM: TIMESTEP
35000
ITEM: NUMBER OF ATOMS
1500
ITEM: BOX BOUNDS pp pp pp
-30.0 30.0
-30.0 30.0
-30.0 30.0
ITEM: ATOMS id type x y z Coordination
1 1 -15.8425 -3.57135 -11.103 14
2 1 0.32933 -8.4821 -1.32994 18
3 1 -17.6177 11.0517 -2.17196 18
4 1 -17.9302 1.06666 -3.77037 20
5 1 -6.66517 -0.826979 5.13967 20
6 1 -17.9339 8.80277 -6.0234 21
7 1 -9.05273 -0.182912 -6.29173 19
8 1 -18.0012 -5.35716 2.24451 15
9 1 -14.2333 -3.32051 10.7184 14
10 1 -7.96126 4.16212 14.7387 16
11 1 1.75161 4.4804 9.63356 16
12 1 -6.57252 8.81811 11.8335 15
13 1 -3.90405 3.1816 3.59522 22
14 1 -8.76606 12.3041 -9.62529 19
15 1 -5.47475 6.50096 13.5742 20
16 1 2.99372 9.92278 9.93302 13
17 1 -5.49485 10.9564 -9.36104 21
18 1 -7.47281 4.54677 -14.8175 11
19 1 -12.2349 10.1739 11.9472 21
20 1 -9.28169 7.00256 -10.5238 21
21 1 -4.41191 -3.22911 4.62894 19
22 1 -2.59612 4.10015 8.41475 19
23 1 -1.8006 -5.9638 7.81337 15
24 1 -13.879 -8.14239 -4.20104 11
25 1 -7.35548 -0.968917 -4.06999 20
26 1 -6.65991 -4.35953 -11.9888 11
27 1 -7.4086 12.1105 14.3647 15
28 1 -9.83869 -5.13781 4.33022 16
29 1 -7.96463 -1.63629 16.1197 11
30 1 -18.7364 4.52475 3.83041 20
31 1 -11.6927 4.44145 -8.79046 22
32 1 -15.9041 17.585 1.95418 10
33 1 -5.3577 9.51059 -6.77634 18
34 1 -5.80439 -2.21673 -9.31034 21
35 1 -8.67009 -3.91354 13.8038 18
36 1 -18.8495 11.363 0.401196 14
37 1 -6.92686 19.9256 10.5263 14
38 1 -20.2652 10.2568 -7.3771 12
39 1 -8.2179 20.7432 1.91122 13
40 1 -1.56355 0.998837 2.72119 21
41 1 -5.43166 -2.42304 -3.21865 24
42 1 -12.4493 13.5706 10.0603 20
43 1 -25.1087 -0.423279 -0.419495 11
44 1 -0.467054 4.46139 3.28678 17
45 1 -15.2402 18.9805 -1.35872 9
46 1 -17.5923 -4.38891 8.49287 13
47 1 -20.7411 7.56544 -4.76043 14
48 1 -5.19951 11.5342 -4.0343 22
49 1 -1.81778 8.60011 3.98526 20
50 1 0.892781 8.77135 5.20679 18
51 1 1.23512 -10.2665 3.09964 7
52 1 -3.7775 11.7658 11.5256 14
53 1 4.30416 -0.745629 -8.84018 10
54 1 -0.0494455 -8.47798 6.5978 11
55 1 -14.7789 4.49702 4.59444 19
56 1 -2.24713 1.54238 15.3067 10
57 1 -16.0145 -6.97582 3.76898 13
58 1 -16.6907 3.02331 2.77344 21
59 1 6.32208 7.01229 5.40258 16
60 1 5.44124 0.528364 -3.42123 15
61 1 -5.22549 14.307 13.3983 19
62 1 -3.47708 10.2028 8.76601 21
63 1 -14.306 1.0965 3.23967 22
64 1 -12.1515 -3.50359 -3.42719 18
65 1 -12.6519 20.9072 -2.36504 10
66 1 -7.37234 11.8678 -7.1269 20
67 1 -2.17855 1.29036 -5.79822 19
68 1 0.57776 0.189235 -3.89466 18
69 1 5.46627 -1.40872 7.16549 11
70 1 -4.32757 -3.32871 12.1518 20
71 1 -10.9104 17.7178 0.252196 20
72 1 -12.8476 8.01238 9.11453 21
73 1 -19.9106 15.9088 -0.920786 4
74 1 -5.66076 -3.79931 15.0166 12
75 1 3.99695 -4.84568 3.16124 14
76 1 -17.2264 8.69593 10.3236 16
77 1 3.33681 -3.55313 -6.88086 15
78 1 -6.19605 7.57163 -8.97039 22
79 1 -12.2868 6.3611 -14.7256 13
80 1 -7.44046 15.048 8.49554 23
81 1 -16.8302 12.613 -8.04289 14
82 1 -8.21106 14.2664 -11.1721 15
83 1 -8.79987 12.7486 3.14189 23
84 1 -11.3772 -4.18937 12.4894 15
85 1 -10.1633 -3.07259 -8.16309 18
86 1 -1.94874 -1.70591 -7.7057 19
87 1 -4.89609 9.62479 14.9293 17
88 1 -19.8653 -0.857548 -1.54035 20
89 1 3.98596 0.935168 5.20273 20
90 1 -15.1074 -7.37126 1.08126 14
91 1 2.12024 -6.88148 8.77602 7
92 1 -13.598 6.92605 3.03188 20
93 1 -2.10548 6.88373 -12.6505 14
94 1 -2.47599 11.8382 -9.33954 20
95 1 0.929511 -2.41724 1.30347 18
96 1 -2.52222 -3.20966 9.61623 19
97 1 -21.9677 0.600087 0.37692 22
98 1 -20.3893 -0.658024 5.86795 21
99 1 2.61642 12.4663 8.62897 12
100 1 -1.55051 7.74739 -1.41228 20
101 1 -9.6736 16.739 15.9629 9
102 1 -14.6163 14.3574 -10.1959 10
103 1 -11.6841 -0.611145 -7.93855 18
104 1 -3.03236 -1.60822 14.827 13
105 1 -9.08858 15.2652 -4.52193 19
106 1 1.33028 6.44489 -3.17447 20
107 1 -17.3836 9.24692 -9.04556 18
108 1 -10.5086 19.6348 2.72087 15
109 1 3.28021 4.53229 -9.86123 13
110 1 1.2286 -3.11475 4.13073 19
111 1 -17.3316 5.85725 -7.97369 18
112 1 -3.96869 14.769 -3.90663 19
113 1 2.00206 12.6909 0.794507 14
114 1 -8.90968 15.5822 4.3528 20
115 1 -14.3652 -1.31873 -13.2481 10
116 1 -8.69191 19.1066 5.47783 15
117 1 -22.2504 -0.517472 -5.97001 11
118 1 8.28845 4.78554 -1.88961 16
119 1 -11.0324 17.0414 5.82038 15
120 1 -12.5919 17.0936 -2.13252 17
121 1 -6.17853 -1.28259 13.8445 18
122 1 -19.9548 -4.0714 4.54635 16
123 1 -7.33831 -10.4089 6.40708 13
124 1 0.648753 -5.06334 1.12891 19
125 1 -13.0244 15.8809 -8.14795 12
126 1 -6.33378 11.4149 -1.81792 24
127 1 -0.881542 14.7532 -6.48696 20
128 1 -6.80304 -4.35342 8.71053 20
129 1 -14.1828 7.32108 -0.197036 20
130 1 -6.02069 20.6943 4.52634 10
131 1 -4.93016 14.6217 10.0807 21
132 1 -10.195 14.114 6.96566 22
133 1 -12.0382 7.27682 -8.73781 20
134 1 2.47645 -7.85954 4.37282 9
135 1 -9.2331 0.92935 10.1338 21
136 1 -15.09 9.49401 6.8002 20
137 1 -17.4665 -4.84519 5.64415 17
138 1 -24.4406 1.32267 2.46973 13
139 1 -9.44387 -5.10939 -0.0439627 19
140 1 -16.9368 0.218614 1.32499 19
141 1 0.875608 -5.69004 -7.55612 14
142 1 -8.62835 16.0741 -1.16174 21
143 1 -8.79918 -2.17355 7.85628 19
144 1 -16.8779 3.05229 -6.47801 16
145 1 -14.1996 14.2004 -5.30394 14
146 1 -22.5377 1.03782 -2.8383 16
147 1 -20.967 1.21002 11.6791 12
148 1 -7.29515 -3.84906 2.28969 18
149 1 -4.20875 -11.4985 4.59527 12
150 1 8.61054 2.27959 4.76951 14
151 1 -4.01934 9.26709 -2.27572 22
152 1 -3.12621 7.37111 13.0539 24
153 1 -11.2564 14.2617 -10.8193 13
154 1 0.0492626 4.48148 -11.1408 14
155 1 -14.4025 1.27484 -6.46397 15
156 1 -9.95897 17.7665 -3.69042 18
157 1 -13.8478 13.7894 -2.40422 18
158 1 0.722359 5.18004 6.45961 14
159 1 -12.7171 3.13725 -12.3594 15
160 1 -16.1365 11.2217 -10.8717 13
161 1 -2.03841 11.3719 -13.0602 16
162 1 -9.61728 8.74556 10.0259 22
163 1 -15.4077 5.6129 11.0418 19
164 1 -3.50043 -3.77741 -6.12956 20
165 1 -10.6108 -9.37731 5.80157 12
166 1 -1.34536 -7.23917 1.43425 19
167 1 -3.54019 1.40349 9.57883 20
168 1 1.85764 16.8682 -4.56975 12
169 1 -10.8623 14.787 1.17569 21
170 1 -16.2615 6.09237 8.37244 23
171 1 -2.66272 15.0344 15.6731 12
172 1 8.23354 5.26962 2.75565 14
173 1 -2.07853 17.6585 12.7306 9
174 1 -13.5608 4.87487 9.1882 21
175 1 -18.5015 -4.24489 -2.21578 17
176 1 -0.518293 9.10592 -7.05619 17
177 1 -6.10932 0.854431 11.5898 18
178 1 4.06024 7.23542 -8.12243 12
179 1 -4.23191 -11.1965 1.05522 9
180 1 -5.33247 6.87137 -14.5207 12
181 1 -1.00054 4.47156 -5.60663 20
182 1 -20.435 2.46721 6.36735 19
183 1 2.5506 -8.02207 0.767194 9
184 1 -18.4576 -4.52337 -5.61615 16
185 1 -13.4614 19.9577 0.659784 13
186 1 -4.18477 0.809951 -13.6062 14
187 1 -2.11506 11.6873 15.973 14
188 1 6.78647 10.707 -3.09162 12
189 1 -8.89566 -6.93073 6.30529 20
190 1 1.13394 -5.0855 -11.081 6
191 1 -14.8863 -7.66367 6.47002 13
192 1 -11.9331 1.5388 -10.1477 21
193 1 -21.2274 5.25319 -6.447 10
194 1 5.53757 4.47727 10.0114 9
195 1 -0.751494 2.61494 10.8657 19
196 1 -14.3212 3.57038 -8.88688 19
197 1 -5.02681 -2.17335 9.77267 21
198 1 -7.37313 13.0865 -14.1737 11
199 1 -3.13251 11.6167 -0.823358 21
200 1 -14.9251 -6.51471 9.6438 11
201 1 -7.63844 15.2583 1.57071 20
202 1 -15.5679 4.3996 13.6761 14
203 1 -18.1447 -4.72362 -8.96152 11
204 1 -13.2968 -4.16372 -12.1653 13
205 1 -16.1332 -6.682 -6.45061 12
206 1 -10.8958 -8.44691 -3.37295 13
207 1 3.37563 6.71489 6.41638 17
208 1 -12.4316 -9.2836 -0.35872 13
209 1 -19.3396 -1.20992 13.0797 7
210 1 -8.30948 -7.81688 -1.53403 17
211 1 -5.99937 -3.0062 -0.256011 18
212 1 -7.70886 18.202 2.78773 18
213 1 -0.413172 1.07899 -12.4324 13
214 1 -11.7456 -0.949629 -11.9791 14
215 1 -2.43646 -6.86638 4.92402 17
216 1 -5.32041 -4.98695 -8.8668 13
217 1 -16.9409 6.58451 -5.01525 16
218 1 -1.33791 5.86394 11.0811 22
219 1 -14.4319 8.81292 -12.4112 15
220 1 -10.5515 18.6647 -8.12645 9
221 1 -15.6429 2.34483 9.41645 18
222 1 -11.632 16.3714 -5.65462 15
223 1 -5.62715 12.4868 8.34817 20
224 1 3.60204 6.50565 9.41849 16
225 1 -15.2555 10.0491 12.7036 14
226 1 -9.41089 -6.8962 12.864 12
227 1 -15.1371 14.6956 3.27129 18
228 1 -4.76911 1.11939 -8.13661 16
229 1 -2.33828 -3.5944 -0.446237 21
230 1 -10.6253 5.67185 17.0766 10
231 1 -19.1902 -1.46315 9.51494 16
232 1 10.1998 3.98095 -4.3651 8
233 1 -1.44772 2.46089 -8.77083 21
234 1 1.66963 -5.35961 -1.77613 17
235 1 -11.7977 0.356381 5.13316 18
236 1 -11.3681 21.0375 -5.34244 6
237 1 -4.32059 8.04673 6.15875 19
238 1 0.767009 15.1426 10.7237 9
239 1 -23.2933 4.68713 5.75399 10
240 1 2.19797 -2.36156 -3.48427 19
241 1 -11.7787 14.3509 3.99389 24
242 1 -20.6766 7.53457 4.5043 14
243 1 -3.84501 -6.09785 13.2754 11
244 1 6.88616 -3.35246 3.98061 10
245 1 -9.76284 14.6242 10.2263 19
246 1 -11.8357 0.337882 -1.39893 21
247 1 -8.0515 1.42792 14.56 14
248 1 -12.9846 17.4467 3.08323 16
249 1 -13.6047 6.99386 -3.60144 17
250 1 -17.6019 11.4803 8.45264 12
251 1 -13.3136 12.7106 6.68565 25
252 1 -12.5741 0.302466 -4.5437 21
253 1 -10.0451 20.5928 -1.83049 13
254 1 1.10776 2.18449 5.08119 15
255 1 -20.155 -5.41289 0.135542 15
256 1 0.45871 -3.47631 9.82765 18
257 1 -18.87 12.1499 -5.11457 12
258 1 -9.41441 -1.23003 13.1729 20
259 1 -4.76345 -6.65472 -6.7429 15
260 1 -14.9458 0.914527 -10.1685 17
261 1 1.29113 1.1119 -9.29317 17
262 1 -2.78571 14.2358 1.28431 21
263 1 -16.2178 6.19254 1.34437 21
264 1 -3.28998 -3.13804 -10.3472 15
265 1 -12.43 -11.247 -2.96917 8
266 1 -24.4951 -1.49798 2.09465 12
267 1 -11.7645 -5.47513 2.27119 17
268 1 0.610415 -1.59359 -11.8278 10
269 1 -20.3383 1.93879 -4.36225 17
270 1 -22.067 -1.31294 3.36861 17
271 1 -14.5132 11.0008 9.66693 20
272 1 -13.9075 15.8905 5.74398 17
273 1 -10.4172 12.6099 12.288 17
274 1 1.82055 2.94079 -2.96028 18
275 1 7.4614 4.33589 -4.44005 15
276 1 -11.2454 11.9147 -1.06761 22
277 1 -6.3474 -5.423 -1.18985 23
278 1 -7.4071 12.9662 6.03792 23
279 1 -17.811 5.88616 -1.32747 19
280 1 -0.670106 -5.28986 -4.85588 23
281 1 5.98843 3.94479 4.79786 19
282 1 -14.2134 4.49839 -5.77804 19
283 1 -10.518 -10.4831 2.45322 11
284 1 -17.8553 12.8181 3.20644 15
285 1 -13.4275 -2.01755 -9.73111 19
286 1 -15.5954 12.2186 0.581294 20
287 1 -7.66742 18.5068 -6.49211 12
288 1 -3.92876 17.0646 3.94122 15
289 1 -17.6762 -1.94169 -3.22999 16
290 1 -6.94785 -3.11516 -6.42943 23
291 1 -19.5333 8.8829 7.97745 13
292 1 -20.3586 9.7499 -1.75769 11
293 1 -3.77523 -0.980603 7.21599 22
294 1 -14.1533 -1.58318 0.625188 22
295 1 -2.56547 14.4668 -11.5444 14
296 1 -14.0357 11.8944 -7.56978 21
297 1 -6.09522 -7.04958 1.34305 17
298 1 6.44036 7.29618 8.16937 11
299 1 -13.053 1.49214 10.8373 21
300 1 -22.158 6.57517 2.42652 14
301 1 -7.9489 12.2532 10.0022 17
302 1 -16.319 -1.80002 3.58147 21
303 1 -9.54607 1.41528 -3.02688 23
304 1 0.539251 -0.229419 -6.90278 18
305 1 -8.27924 3.67475 8.43282 20
306 1 -19.8702 5.56347 7.20148 21
307 1 -10.327 -5.226 8.11883 21
308 1 -1.18873 -6.1137 -1.77664 23
309 1 -14.0473 -5.9146 -9.38822 15
310 1 -12.4468 -2.54789 6.20836 15
311 1 -3.16342 -1.52318 1.61128 22
312 1 -11.7647 9.78188 -14.2179 13
313 1 -1.99944 -11.7873 2.04181 9
314 1 -9.41613 15.604 -8.17545 19
315 1 -12.5799 6.51389 15.57 15
316 1 -13.7907 1.06008 14.0255 15
317 1 1.45264 1.45965 8.41765 15
318 1 -0.0378478 5.16553 0.423184 18
319 1 -13.1758 9.46699 5.35536 21
320 1 -0.974107 8.85733 -11.0126 18
321 1 3.70998 -4.12393 9.74086 9
322 1 4.71828 12.237 -6.02721 11
323 1 -10.5611 4.56361 14.1712 21
324 1 -5.14808 16.6979 1.10031 18
325 1 -4.42965 -4.55408 1.86581 20
326 1 -10.6992 -6.23411 -8.18244 16
327 1 -9.37572 17.9742 8.65763 16
328 1 -14.7686 -0.764012 -2.8154 18
329 1 -0.102348 10.3517 8.37297 21
330 1 -11.522 6.76778 11.666 19
331 1 -12.9518 -5.99285 -5.54777 15
332 1 -19.1793 6.26941 10.3814 15
333 1 -17.2209 -2.83788 0.0831479 19
334 1 -10.4285 16.9587 12.2998 15
335 1 -10.18 -4.50971 -11.0724 15
336 1 -8.17035 -1.5982 -12.3607 16
337 1 -18.1312 -7.24399 -0.257901 14
338 1 -13.968 6.54983 6.26522 22
339 1 1.38406 5.31478 12.3853 16
340 1 -12.5009 0.441493 7.89421 18
341 1 -14.3377 9.20449 -9.33009 21
342 1 3.65265 12.8214 -2.90311 13
343 1 -14.8039 -8.77902 -1.72843 14
344 1 -9.38576 9.84504 -5.52434 20
345 1 -4.98865 16.6424 -2.0766 18
346 1 -12.0194 11.6998 -4.31717 19
347 1 -8.363 10.09 7.08528 20
348 1 -16.634 3.08975 -1.22381 19
349 1 -3.83718 13.0488 -6.83171 18
350 1 -14.9985 2.65284 -3.70841 19
351 1 -12.069 -7.20014 -11.6034 7
352 1 -5.21793 4.15632 -12.5785 20
353 1 -16.0515 15.7869 -2.28974 13
354 1 -7.55564 8.74522 18.2322 9
355 1 -0.0395248 13.137 2.77857 21
356 1 -5.85675 11.2393 1.4521 23
357 1 -19.8369 7.61102 -7.60647 14
358 1 -4.45673 4.17508 -4.45302 20
359 1 -0.495093 -1.08264 7.97945 20
360 1 -19.3885 2.40668 -1.23339 19
361 1 -15.4063 10.3799 -5.06698 19
362 1 2.21573 14.2296 -5.80982 16
363 1 -1.44533 -3.73708 2.97516 21
364 1 7.57514 9.0715 -0.571339 13
365 1 -8.57363 9.09206 -8.1696 22
366 1 4.26593 -1.46641 4.08649 19
367 1 -4.05588 -7.80308 3.12769 17
368 1 -6.94793 -3.95382 5.43454 18
369 1 -15.1449 7.86312 -6.37321 20
370 1 -7.53192 -7.97634 -7.80914 10
371 1 -4.37203 8.95378 -11.0413 23
372 1 -5.23626 1.42246 15.2272 12
373 1 -17.4867 1.17664 4.58879 20
374 1 8.18263 1.29778 -3.22238 12
375 1 3.6694 3.84535 6.85922 18
376 1 -11.1171 14.8681 -2.1958 21
377 1 -4.60958 -1.57518 -6.45928 19
378 1 -2.36973 3.41381 -12.8185 13
379 1 -1.05758 -4.37877 -8.40699 17
380 1 -17.2874 1.38435 11.8927 16
381 1 -0.445759 16.0889 3.38427 18
382 1 -9.5808 4.57842 -13.0723 16
383 1 -15.1475 -4.17681 7.21407 15
384 1 -10.8909 22.4257 0.518112 8
385 1 -16.5486 3.97759 -10.9489 16
386 1 -22.2311 3.70479 0.422443 15
387 1 -15.6727 -0.514044 9.04533 18
388 1 -2.00659 15.4212 -9.13513 16
389 1 4.186 5.08826 -2.16372 16
390 1 -17.9943 -1.9935 6.27545 23
391 1 -6.10628 -7.18764 5.07242 21
392 1 -13.5685 15.7662 11.5776 10
393 1 -2.16316 -1.54438 -13.4378 11
394 1 -8.27472 12.7306 -3.90131e-05 23
395 1 -3.82863 0.94112 0.895255 21
396 1 -4.17868 18.5702 -8.83851 9
397 1 0.922564 0.00645735 3.54997 23
398 1 -17.3652 7.13646 13.0485 12
399 1 -3.95562 19.6208 10.0479 14
400 1 -5.29738 10.4481 -13.7859 16
401 1 -13.0006 -5.92534 -0.844317 17
402 1 -5.91769 3.49649 9.6577 18
403 1 -1.32969 15.7264 6.34333 17
404 1 -4.92313 16.5545 -10.8574 8
405 1 -15.8731 8.44457 -2.89693 19
406 1 -4.14028 19.1079 -1.91177 16
407 1 3.06252 -1.4748 9.6864 14
408 1 4.36749 6.856 -5.19128 18
409 1 -19.2674 -1.23756 2.75174 18
410 1 -5.90632 5.20418 7.19379 21
411 1 -5.61503 14.3274 -9.25593 19
412 1 0.231506 -10.4293 -3.89671 11
413 1 -4.08536 5.44614 -7.31279 15
414 1 -8.25501 18.7737 -0.212857 18
415 1 -18.428 1.35633 -10.1157 11
416 1 -6.74093 -10.9831 3.0395 13
417 1 -22.247 -4.25605 2.46902 11
418 1 -11.133 5.74121 -5.81385 16
419 1 -15.957 -0.88513 11.9644 12
420 1 -1.97154 16.4377 -3.60095 22
421 1 -7.9303 -4.74416 -8.57454 17
422 1 -8.79809 -5.14401 10.6234 23
423 1 -1.06622 9.77368 -3.05239 19
424 1 -17.0261 14.389 0.82129 14
425 1 9.34519 6.50412 0.405899 11
426 1 -4.91381 17.5153 12.2837 17
427 1 -10.7539 9.00378 -11.6776 19
428 1 -6.2714 20.1529 7.85143 13
429 1 1.28475 6.32749 -6.26491 19
430 1 -5.05158 -1.57006 -12.6393 17
431 1 -8.74316 -10.5384 -2.70222 10
432 1 -19.1976 0.821857 -7.04308 17
433 1 5.87048 4.34681 0.611844 20
434 1 1.41169 8.08414 -0.805571 20
435 1 6.45159 -1.17593 -1.55931 11
436 1 -0.132772 -2.46697 -5.64995 24
437 1 2.74079 15.4376 3.08618 12
438 1 -17.6641 7.41396 5.78673 17
439 1 1.56717 9.19389 -4.09376 17
440 1 4.22564 10.5316 -0.710079 15
441 1 1.60509 2.70302 -5.75091 20
442 1 1.69511 -2.76275 12.1522 12
443 1 -6.87405 0.651852 8.45869 22
444 1 -3.5986 8.90264 1.13093 20
445 1 -4.87646 4.31638 14.4846 14
446 1 9.28624 7.22087 -3.07974 10
447 1 -1.89114 -0.854359 10.8157 18
448 1 -15.8753 1.93697 -12.8044 11
449 1 -0.838884 10.5015 0.630966 20
450 1 4.21874 8.9282 -3.06608 22
451 1 -9.72552 -1.97341 4.6219 20
452 1 0.978896 7.57772 9.77146 19
453 1 -6.11042 17.2928 8.98934 23
454 1 -1.5009 8.96149 11.1144 17
455 1 -16.3566 12.8684 -4.40768 13
456 1 3.01971 13.1049 -8.5949 11
457 1 4.86089 3.71988 -5.57433 15
458 1 -2.33137 18.4295 2.24952 12
459 1 -12.767 -3.65154 -7.08402 19
460 1 -18.7839 10.8103 5.66581 14
461 1 -14.8488 6.39242 -9.82838 20
462 1 -8.20679 -8.57145 3.31084 19
463 1 -8.72331 10.4374 -16.1097 8
464 1 -14.7675 -2.89818 -4.77239 17
465 1 3.5455 -5.44716 6.33556 12
466 1 4.08423 12.466 3.92422 12
467 1 -9.94586 -8.00668 9.25741 16
468 1 -20.9771 -2.67748 -4.30916 16
469 1 6.32715 1.29014 2.19008 21
470 1 -7.83793 11.3233 17.7753 12
471 1 1.57643 16.4547 -7.80878 11
472 1 -2.74799 9.1702 -5.02036 15
473 1 -2.1223 -8.21699 -3.64443 20
474 1 8.56684 -0.634089 2.80882 13
475 1 -2.21484 17.1411 -0.446119 21
476 1 7.37281 1.56079 -0.146113 17
477 1 -9.28491 4.19323 10.9943 22
478 1 -23.8178 -1.4221 -3.18585 11
479 1 -21.4132 2.26421 -7.84674 10
480 1 0.342121 2.94623 13.8142 10
481 1 -10.8113 -2.38998 10.0271 19
482 1 -0.0859413 13.763 14.5268 10
483 1 -7.09749 17.5095 -3.93146 17
484 1 3.81199 2.66804 3.02309 20
485 1 1.49228 10.1534 1.96793 17
486 1 -12.6531 6.07473 -11.7398 19
487 1 -18.8538 3.0492 9.78466 21
488 1 4.13669 1.98531 -8.72855 14
489 1 -5.82133 -5.65807 -4.01951 21
490 1 2.5437 -5.03066 -4.69889 15
491 1 -2.23951 15.9396 9.44939 19
492 1 -2.94254 5.44434 5.82419 21
493 1 2.64878 8.45411 12.6765 10
494 1 -7.89196 -1.98418 10.7492 22
495 1 -8.96215 6.85992 12.7748 19
496 1 -7.07672 1.82036 -13.9287 14
497 1 -13.3344 9.95813 15.5519 11
498 1 -4.9677 7.25891 16.5203 15
499 1 0.17625 13.8642 -3.49895 18
500 1 -1.46238 -9.52042 4.35079 15
501 1 -13.3997 14.5461 0.37542 21
502 1 1.13961 11.4486 -1.67539 20
503 1 -2.62119 13.705 4.64951 22
504 1 -11.2659 3.15847 9.16663 19
505 1 -7.0699 17.1441 -9.42042 14
506 1 1.94663 11.3888 5.85404 19
507 1 -8.41905 -4.17907 -3.29497 20
508 1 -9.28302 1.58182 -12.2056 16
509 1 -21.9164 9.90948 -5.02754 7
510 1 0.975225 3.84172 -8.26885 19
511 1 -3.20833 11.7145 2.68714 22
512 1 2.73119 10.0637 -7.19556 15
513 1 0.887121 15.3997 0.325389 17
514 1 -11.3836 8.76642 6.86914 23
515 1 -16.1141 8.74816 3.9304 20
516 1 -2.82759 12.405 -3.44004 21
517 1 -6.54069 -4.92123 11.9304 24
518 1 -11.2691 10.7423 -8.88403 20
519 1 -5.45814 16.4938 15.5738 11
520 1 -1.95563 8.49329 15.4798 14
521 1 -4.32202 17.9119 -5.44275 16
522 1 -2.3457 13.0655 8.34685 19
523 1 1.0294 1.86566 0.527437 18
524 1 -18.2424 1.02728 7.43315 20
525 1 -3.73612 -6.97561 -0.377333 22
526 1 -9.00655 1.98982 -8.58851 17
527 1 -0.917343 7.63257 7.20856 15
528 1 -4.90188 0.735744 -4.504 19
529 1 -4.61059 14.7105 6.57447 24
530 1 -21.2446 3.65575 8.79397 14
531 1 -2.48782 -9.68068 -1.31081 13
532 1 0.213442 13.7395 -8.8567 17
533 1 -1.16079 -3.6983 12.8402 15
534 1 -10.2295 11.182 5.39684 22
535 1 -6.77399 7.07922 -12.0313 20
536 1 -6.89692 -8.12056 8.33133 14
537 1 -2.5799 20.6617 -0.800171 10
538 1 -10.5664 9.07855 16.9975 13
539 1 -17.0097 -1.49281 -9.2803 16
540 1 -2.2894 -1.74066 -4.18927 21
541 1 -7.60988 18.4484 13.6188 12
542 1 -1.66614 -8.33427 -6.43207 11
543 1 1.73004 0.629689 11.4044 14
544 1 -5.01512 -8.79638 -4.95821 12
545 1 -21.6982 0.454771 8.91721 12
546 1 -8.92062 5.82739 -7.92795 18
547 1 -9.76091 -4.88521 -5.56062 18
548 1 -14.1153 7.3753 13.3645 17
549 1 -0.164794 11.6619 -5.54143 17
550 1 -7.03655 5.99735 9.82111 19
551 1 -22.503 14.7248 1.30591 4
552 1 0.45524 7.52761 1.93966 16
553 1 -6.98229 14.0863 -2.91039 19
554 1 -1.53814 6.04517 -8.70749 20
555 1 1.8981 7.38884 -10.828 9
556 1 -18.2355 3.96018 -4.06474 19
557 1 -22.5347 -2.41952 0.231782 18
558 1 -5.24861 12.5319 -11.4608 21
559 1 -10.248 12.2269 15.3665 16
560 1 -9.03837 0.852608 6.74032 21
561 1 -6.57834 0.73936 -11.0287 22
562 1 -13.9139 9.82609 1.69297 18
563 1 0.235791 13.3239 8.26706 19
564 1 -15.2337 -0.100496 6.00054 16
565 1 0.242624 10.7863 -9.80696 15
566 1 -7.68622 -10.081 0.518854 16
567 1 -2.91233 9.14641 -8.33231 21
568 1 -7.55263 4.05342 -10.2917 20
569 1 -4.08901 6.70238 9.71504 21
570 1 -2.40976 9.07685 -14.5928 9
571 1 -19.7636 1.5254 1.91237 22
572 1 -0.0507429 -3.25168 -2.20383 24
573 1 -12.0628 -3.29396 -0.150746 19
574 1 5.41247 9.51953 -5.97525 13
575 1 6.00717 -2.08102 1.80788 14
576 1 -10.2744 9.24915 13.797 17
577 1 0.128539 -3.8632 6.52846 16
578 1 4.80727 -2.33266 -4.58833 11
579 1 2.80139 4.96025 0.911923 19
580 1 -6.21114 8.96672 8.6223 17
581 1 -12.4119 15.9958 8.5221 17
582 1 -4.28134 -6.30324 10.0324 17
583 1 4.09031 2.09209 -0.48372 18
584 1 -2.11866 14.6318 12.6196 16
585 1 -23.2451 1.07385 5.60112 11
586 1 3.66947 -2.46878 -0.636286 14
587 1 -4.86609 11.3623 5.29191 21
588 1 -2.09289 4.85045 14.5624 16
589 1 -7.51056 16.2545 11.4141 20
590 1 -3.94135 -8.81625 7.08466 15
591 1 -14.2228 1.2879 -0.285461 20
592 1 -8.45783 6.9667 16.2353 15
593 1 -5.42088 21.1446 0.85716 10
594 1 -20.5819 -6.95635 2.83523 9
595 1 -0.222198 -0.601659 13.6218 14
596 1 8.07002 -0.798331 6.1796 10
597 1 1.23517 14.2263 5.27666 15
598 1 -8.90009 11.9178 -3.32041 22
599 1 -8.80912 -2.02623 -1.34627 22
600 1 -13.0511 11.6297 -11.3837 18
601 1 -13.1498 3.89905 12.3751 22
602 1 -6.50978 17.4439 5.57171 19
603 1 6.63326 7.78933 2.29878 15
604 1 -5.08919 14.0714 -0.335177 20
605 1 -5.10382 12.731 16.6945 18
606 1 -4.13145 17.5981 7.2089 16
607 1 1.77601 -2.78487 -9.13734 17
608 1 -12.5525 -7.97348 7.39161 15
609 1 -11.8516 2.52433 -6.87119 20
610 1 4.42699 6.14214 3.28927 17
611 1 -4.08126 3.2089 -9.67659 19
612 1 -3.46515 -4.90646 -2.98508 20
613 1 9.09817 2.94902 1.27867 13
614 1 -6.12471 -7.69259 11.838 11
615 1 -14.9676 5.38397 -13.7176 12
616 1 -1.50739 14.3862 -1.07597 20
617 1 -12.4562 -5.61934 5.6288 20
618 1 -18.8374 7.45021 1.83718 19
619 1 5.01247 7.61116 -0.101069 19
620 1 -3.12232 -0.0602357 -10.8905 21
621 1 -13.85 12.7428 12.7254 14
622 1 -9.9003 7.05947 -15.9822 10
623 1 -3.17884 -0.953928 -1.40391 19
624 1 -21.9498 2.99751 3.264 19
625 1 -1.01287 11.4579 5.79156 20
626 1 -22.158 -4.53148 -2.18321 9
627 1 0.153785 7.10119 14.0318 13
628 1 -17.2369 -1.34974 -6.35553 18
629 1 -15.3995 14.2542 8.63139 14
630 1 -11.9888 9.6726 -6.739 20
631 1 6.58108 0.795031 -6.56907 12
632 1 -17.3423 -6.95893 -3.29364 13
633 1 0.674021 -7.48891 -4.57931 18
634 1 -21.174 7.04458 -0.276189 12
635 1 -20.1112 -2.35675 -7.72155 13
636 1 -14.9501 -4.24437 1.61385 21
637 1 8.13278 4.45846 7.12604 11
638 1 -1.46516 1.22588 6.06769 18
639 1 -16.3353 13.9382 6.2138 12
640 1 -8.69931 14.8359 13.8324 20
641 1 -3.96342 12.884 -14.5225 9
642 1 -14.7669 11.9506 4.27569 19
643 1 -1.339 19.1633 -3.83578 11
644 1 -4.43532 10.1083 17.83 13
645 1 -11.0801 -0.10548 15.3401 13
646 1 -6.31508 15.3893 -6.10225 20
647 1 -10.4285 1.75238 12.7648 21
648 1 -10.3666 -2.32176 -5.05175 20
649 1 -19.1168 4.24043 1.04121 21
650 1 -11.8371 -6.11131 10.6634 16
651 1 -3.42772 3.66172 11.6859 20
652 1 -7.76444 -7.71434 -4.8733 18
653 1 -21.1226 9.42274 1.37991 13
654 1 3.30724 -0.199466 1.89244 21
655 1 -21.0483 11.8587 3.35016 9
656 1 -16.6062 3.78107 6.84886 20
657 1 -8.91145 -0.601167 -9.74913 21
658 1 -10.252 -7.72619 0.502842 18
659 1 3.52918 -8.99208 -2.68538 7
660 1 -9.94892 11.8174 -12.2495 18
661 1 6.37182 7.27895 -3.03281 18
662 1 1.53356 11.8643 11.4723 15
663 1 2.22318 0.399063 -1.50261 18
664 1 -8.33169 9.06754 -13.8449 17
665 1 -12.9914 -8.73001 3.93258 13
666 1 0.580953 17.0465 -1.98752 16
667 1 -3.51288 6.3918 -10.4298 20
668 1 -16.7676 9.1159 0.142347 19
669 1 -5.38406 14.0251 3.51405 21
670 1 -12.739 -1.18904 12.7966 17
671 1 4.34549 9.69628 6.6878 15
672 1 -4.18265 -4.35809 7.03328 19
673 1 -1.43742 17.8467 -6.83341 12
674 1 -12.108 14.6718 14.6123 12
675 1 -18.5914 4.06613 12.7547 12
676 1 -1.48242 4.73274 -2.56022 21
677 1 -12.9526 3.2096 15.8356 13
678 1 -1.40542 -1.16545 4.91924 23
679 1 -10.9058 6.19008 8.39684 21
680 1 -0.881751 10.5307 13.0792 13
681 1 3.15177 0.299353 -6.0978 21
682 1 -19.6025 4.19539 -9.40957 11
683 1 -7.5976 10.124 -11.0545 23
684 1 -21.8914 4.47337 -2.94428 12
685 1 1.84491 18.0094 1.12064 8
686 1 -10.962 11.4827 8.54054 24
687 1 -15.7865 -3.62231 -7.99442 19
688 1 -11.8403 11.8788 2.15146 21
689 1 6.09565 2.012 7.3131 14
690 1 -12.8257 -2.81127 3.33852 21
691 1 6.24351 4.92528 -7.71977 10
692 1 -0.654383 -0.85358 -0.019119 20
693 1 -6.97641 3.20881 -6.9426 17
694 1 -13.6292 5.82524 -17.0006 5
695 1 -14.919 -3.69216 -1.66429 18
696 1 -13.9974 10.3765 -1.48085 20
697 1 -7.97715 14.2397 17.2075 13
698 1 2.65615 -2.13386 6.80548 20
699 1 -20.3447 -3.43357 7.53068 12
700 1 -1.40729 1.55843 -1.54132 23
701 1 -10.5561 12.8909 -6.58806 18
702 1 3.69951 9.39279 3.81399 15
703 2 -18.2423 3.21746 -10.5121 11
704 2 -11.3756 16.824 -7.702 11
705 2 -6.25394 4.16703 -5.40701 19
706 2 -8.45571 8.10634 11.6138 17
707 2 -17.205 -0.487397 -4.62781 19
708 2 -4.94746 0.199904 8.59381 21
709 2 -20.6153 -2.24439 4.24648 17
710 2 -21.625 5.72366 -4.64381 11
711 2 -6.71533 19.4671 5.95211 16
712 2 -15.6369 4.47697 9.39666 16
713 2 0.172317 3.43122 1.1924 19
714 2 -11.043 3.64006 -5.2916 20
715 2 -22.3895 -0.304547 -4.18966 13
716 2 -17.6219 5.72613 -3.30138 14
717 2 -9.88609 -5.18529 13.6875 12
718 2 -1.81103 10.5271 14.7667 15
719 2 -3.2384 5.19233 -5.5919 17
720 2 -8.3195 -5.7204 -1.76447 23
721 2 -1.76449 5.73567 7.26951 17
722 2 -15.5943 14.4396 -3.688 11
723 2 -20.8422 9.29901 -3.57031 13
724 2 0.514189 5.79036 10.5111 20
725 2 1.92242 -6.35304 -3.43987 18
726 2 -14.4146 -7.5315 3.27589 15
727 2 -17.8716 -1.6026 4.52514 21
728 2 -6.2833 -11.1246 4.88548 13
729 2 2.48526 -3.05081 10.503 13
730 2 -3.24571 -8.26442 -5.41813 13
731 2 -5.08408 5.8991 15.4898 16
732 2 -6.57494 15.6093 -10.5673 13
733 2 -17.4829 -6.08319 -5.14399 11
734 2 -3.68082 8.69655 16.3665 15
735 2 -13.6939 13.8995 5.26388 20
736 2 -9.43933 11.3803 13.5975 17
737 2 -14.5065 12.7815 -0.980082 18
738 2 -3.7071 -11.7494 2.8085 12
739 2 -4.61453 11.5604 9.72771 16
740 2 -9.65179 14.7003 -9.88878 17
741 2 7.80262 -2.30075 2.70823 12
742 2 -10.9778 2.36102 -8.6462 21
743 2 -2.23503 7.90123 -9.96324 20
744 2 5.58215 2.21692 0.873945 18
745 2 -4.40243 8.9901 7.82018 16
746 2 -6.14181 5.26748 -13.7325 16
747 2 -18.8034 9.39269 -7.86062 15
748 2 2.28893 14.5498 1.37746 14
749 2 -14.1929 3.07475 14.1421 13
750 2 -15.3009 18.411 0.384141 12
751 2 0.814739 2.01266 -4.11968 19
752 2 -5.29301 -3.97385 -10.5498 14
753 2 -19.7188 4.67336 9.7157 15
754 2 0.440138 12.5397 4.72803 21
755 2 -10.8375 12.2744 6.7475 21
756 2 -14.5013 -5.00093 -10.9682 14
757 2 -14.0316 15.0673 9.65482 15
758 2 -5.52566 -4.54129 10.4208 23
759 2 4.06644 -2.35673 8.40805 13
760 2 -22.0616 4.70186 7.30765 10
761 2 1.22906 -3.79289 2.46433 15
762 2 5.62934 -1.71354 -3.12809 13
763 2 0.360505 8.65782 3.43211 18
764 2 -5.93875 -8.91826 6.81945 13
765 2 4.56632 2.60114 5.89527 15
766 2 -12.5679 5.6978 13.395 19
767 2 1.9064 -6.30458 0.25094 14
768 2 0.14185 9.98694 6.60696 18
769 2 2.58771 10.1641 12.0004 11
770 2 -13.4108 14.6592 13.1079 12
771 2 -1.1555 15.4975 0.448407 19
772 2 8.40326 0.817054 1.42728 15
773 2 -4.2203 11.2154 -2.36763 22
774 2 -21.0094 4.25654 -7.94657 11
775 2 -14.5638 10.6214 14.4233 10
776 2 -5.97087 6.82221 -7.11947 19
777 2 -19.6001 0.562888 -2.75185 19
778 2 -21.6577 5.48284 0.722355 15
779 2 -19.1878 -4.06947 -7.31265 14
780 2 2.86483 8.35244 5.49372 17
781 2 -6.86964 0.56937 6.53811 20
782 2 -9.34829 7.96444 14.8752 18
783 2 -1.8605 -2.84035 -9.20137 18
784 2 -1.74505 6.70247 14.8286 17
785 2 -10.0857 12.6698 10.133 19
786 2 -15.6842 7.13447 6.52556 20
787 2 -5.34321 -4.25841 -2.13007 21
788 2 7.99961 4.72625 0.95914 16
789 2 -13.4773 12.3415 8.77019 21
790 2 -9.83656 -3.1107 -0.074984 21
791 2 -0.829535 -9.88278 -2.25704 13
792 2 -1.01892 2.74881 -6.30287 16
793 2 2.63067 8.15523 9.75342 18
794 2 -3.35897 -3.24241 2.97438 17
795 2 -3.35938 3.06788 14.8164 13
796 2 -11.5222 -1.85768 4.66164 20
797 2 4.45337 4.91685 -4.07939 17
798 2 -18.3092 -4.58082 3.86958 18
799 2 1.8054 16.0121 -6.13066 15
800 2 -9.39087 -3.44144 3.17074 19
801 2 4.86304 -0.438707 -4.99873 15
802 2 1.80805 -9.29555 -3.50003 9
803 2 5.38406 -1.87363 -0.0300107 14
804 2 -22.0338 13.1293 2.43696 6
805 2 6.07407 11.1609 -5.08998 11
806 2 -15.2291 -2.89374 -12.6917 9
807 2 -15.7725 0.362842 4.33714 18
808 2 -7.6077 -1.92308 0.660523 20
809 2 -10.9315 -8.01029 -1.41704 19
810 2 -12.0625 15.6404 2.41905 21
811 2 -20.4002 11.2147 -5.73589 10
812 2 -0.128936 7.156 -7.5063 20
813 2 0.61346 8.22534 -2.66792 20
814 2 -7.52491 10.4903 -9.18077 20
815 2 -13.6718 8.08875 15.2006 13
816 2 -11.9375 6.33356 -16.75 7
817 2 -22.4527 5.95021 4.18708 13
818 2 -10.9482 7.31891 9.789 19
819 2 -19.0912 10.7982 7.5441 10
820 2 -13.8958 8.91468 -3.0973 17
821 2 -0.0282064 15.4301 5.10366 15
822 2 1.87355 7.53349 -4.93332 20
823 2 2.55122 -1.83978 1.05043 21
824 2 -20.6852 1.9073 8.24257 20
825 2 1.54123 6.55475 0.463832 19
826 2 -6.70745 13.8947 9.80085 21
827 2 -21.1981 8.6812 -6.45665 12
828 2 -15.0039 11.6315 11.5911 14
829 2 6.65378 0.0700146 7.33893 12
830 2 -14.7192 -7.28723 -5.6718 10
831 2 -1.45777 8.7083 -12.9507 13
832 2 3.63501 13.4204 -4.9849 13
833 2 -19.0088 -3.41747 9.02821 10
834 2 -6.001 12.4931 -0.168231 21
835 2 -11.4532 19.6999 -6.66936 8
836 2 -8.1685 17.2684 -7.83901 13
837 2 1.10143 -1.00409 12.4689 15
838 2 -5.16559 8.41409 13.1855 16
839 2 3.55676 -2.42864 -8.50744 12
840 2 -6.65148 -1.0119 12.0265 19
841 2 -3.63645 2.02585 5.16005 22
842 2 -19.3651 6.30133 0.0223319 19
843 2 -9.9389 -0.853912 -11.6018 15
844 2 -1.15242 -2.37937 1.24006 24
845 2 -4.83731 0.285008 -11.688 22
846 2 5.13154 8.48573 3.34115 16
847 2 -8.52974 12.5733 16.3432 15
848 2 -4.82305 9.18831 -8.93108 21
849 2 -20.7197 1.19639e-04 13.242 6
850 2 -13.3308 5.16597 -9.86651 18
851 2 -0.495874 -2.78237 4.91444 20
852 2 -5.61029 -1.39524 -1.24741 20
853 2 1.42253 -0.892615 -2.55585 19
854 2 0.289704 13.6959 -5.40561 20
855 2 -15.5371 9.30492 -10.9151 12
856 2 -9.48947 17.9466 6.85195 17
857 2 -18.7945 -3.36592 -4.12691 16
858 2 -14.6553 1.62365 -8.43325 17
859 2 2.02284 14.5548 -8.50243 11
860 2 -7.173 17.2496 1.18469 18
861 2 -19.1549 -6.80216 1.43233 13
862 2 7.50556 6.26484 6.85732 10
863 2 -6.80521 7.42469 16.8342 13
864 2 -15.7287 -8.35521 -3.22 12
865 2 -6.37148 -3.73413 -7.93221 19
866 2 -6.28823 2.90933 14.8123 13
867 2 -5.61881 20.8415 9.50885 9
868 2 4.81699 6.03093 -6.86786 15
869 2 -3.96267 13.8113 12.074 16
870 2 4.90232 10.9623 -2.56893 17