ITEM: TIMESTEP
451000
ITEM: NUMBER OF ATOMS
2000
ITEM: BOX BOUNDS pp pp pp
-30.0 30.0
-30.0 30.0
-30.0 30.0
ITEM: ATOMS id type x y z Coordination
1 2 -9.05734 -4.25502 2.65178 16
2 1 -0.32819 -10.6836 -5.04329 18
3 2 -7.79752 -7.33399 -7.74192 17
4 1 -8.77758 -7.9286 10.4529 17
5 2 4.89249 0.0413924 -9.70896 21
6 1 -5.44233 4.03577 -8.58523 17
7 1 6.51296 -15.6085 1.08907 9
8 2 -5.05051 1.04054 17.3878 10
9 2 18.0948 2.68325 -8.27918 11
10 1 -17.181 -2.26992 -0.53914 15
11 1 -2.49593 -6.85713 -6.475 17
12 1 9.73369 -12.0144 6.34646 14
13 2 -2.91859 -11.874 -1.38646 18
14 2 8.67179 -4.66333 10.5105 15
15 2 8.97831 4.01691 -19.9521 9
16 2 1.35137 10.5984 -1.78565 18
17 2 2.46237 -5.96022 -13.6238 16
18 2 -2.7043 9.92277 -9.76525 16
19 2 -9.40219 0.381343 -15.7117 12
20 2 13.9948 -4.55223 -11.4699 11
21 2 2.84794 -8.88631 -7.48511 15
22 2 -11.4857 -6.14609 7.47481 19
23 2 -1.81618 -5.01234 -6.76902 19
24 2 -8.61464 9.40249 -9.59969 10
25 2 7.7096 -4.2091 -11.3107 15
26 2 11.0069 -4.57723 -18.0911 6
27 2 4.43568 -16.9556 -6.60827 11
28 2 15.6553 2.82867 -5.85205 15
29 2 0.859007 0.69612 9.22203 21
30 2 15.2038 -3.81556 -3.08312 17
31 2 19.1365 -3.18199 -1.36674 7
32 2 9.73018 0.698512 3.69679 17
33 2 7.88475 -4.46157 6.91155 16
34 2 0.274162 -13.0195 11.0831 13
35 2 8.00367 -13.0364 -8.65287 5
36 1 -3.19656 -6.52085 12.9733 18
37 1 -8.71208 4.11769 -18.5094 7
38 1 -1.76251 7.3624 -2.16069 20
39 1 -5.48131 14.3338 10.8692 11
40 1 -14.0649 1.49653 0.658804 19
41 1 -15.3884 8.53884 9.95944 10
42 1 12.4484 -7.70359 11.3548 7
43 1 6.67499 8.87993 9.05701 16
44 1 -14.4478 -1.03825 2.72174 18
45 1 -8.92171 -9.83749 4.9028 14
46 1 8.545 -5.70275 -10.7537 17
47 1 -11.759 -9.02443 -12.4252 7
48 1 -13.3831 -9.92529 2.96149 16
49 1 -1.09253 -13.9222 -5.8295 16
50 1 -13.8546 -5.05145 -7.35457 14
51 1 -11.3436 -1.3167 9.50268 18
52 1 4.97439 -9.90999 5.59118 16
53 1 -14.278 -1.25337 -11.9848 6
54 1 3.42973 -8.67445 -3.39097 17
55 1 -2.86839 7.26896 15.1534 11
56 1 -7.46495 -2.41878 -9.3696 16
57 1 -13.2692 7.41342 7.60059 13
58 1 -5.47069 3.03162 -16.7443 15
59 1 1.0086 6.89635 10.6876 15
60 1 -9.82569 0.728052 -17.5938 7
61 1 -14.2534 -12.4714 6.18632 7
62 1 -15.2369 4.34884 4.03734 17
63 1 13.0506 -4.04782 -12.8231 11
64 1 -2.84802 -11.2282 -11.1444 11
65 1 1.51788 -0.251747 20.2007 12
66 1 0.87273 -17.4462 2.00131 11
67 1 -10.0551 8.01482 -13.6284 10
68 1 -4.43708 -6.42983 -8.55143 17
69 1 -4.10534 -4.17899 -12.6092 13
70 1 -9.19594 -4.31701 -13.5084 13
71 1 -10.5695 8.2876 -9.67904 13
72 1 -2.50727 -3.01675 8.99137 21
73 1 -11.3072 -7.35463 1.02718 20
74 1 -18.3955 0.121037 -1.58258 11
75 1 -2.8159 6.04365 -8.01198 18
76 1 -10.7851 -2.34836 -8.29328 16
77 1 -13.2048 4.33936 -12.4191 4
78 1 -8.07636 1.94093 -15.896 16
79 1 10.3944 -5.26558 -16.3116 7
80 1 -8.47337 -9.74874 -7.93108 14
81 1 -16.8222 3.55772 -0.984278 13
82 1 -6.09972 -11.1742 -5.27998 17
83 1 -8.81719 -13.2937 7.70717 8
84 1 -9.69202 4.88843 -4.85442 18
85 1 6.65291 13.6449 3.02106 19
86 1 -11.4857 -0.745844 3.41551 18
87 1 2.4745 1.01247 -8.19554 19
88 1 -21.0656 12.5108 1.16383 2
89 1 -17.3359 -4.50381 -5.43177 7
90 1 -8.24732 0.28725 -6.26777 17
91 1 -7.33272 -14.7283 1.95734 9
92 1 -17.7925 -7.48141 -2.95125 9
93 1 -16.5813 7.27473 -8.82027 8
94 1 2.16528 -13.1468 -4.19907 19
95 1 -8.66791 0.382775 -8.90185 20
96 1 -13.6539 0.529751 9.10284 17
97 1 2.34237 -17.8846 -0.775076 13
98 1 -6.79565 -10.6696 0.161053 14
99 1 -14.8669 -8.4835 -7.90463 11
100 1 1.21917 3.86486 -15.1359 18
101 1 -1.89673 -13.145 9.26776 15
102 1 -15.2588 5.12299 -3.91523 16
103 1 5.52058 2.33083 -6.01627 18
104 1 -10.3752 9.58674 9.38357 14
105 1 -4.04106 1.90371 -3.52342 15
106 1 4.97805 -12.2986 -6.58136 15
107 1 6.64453 -8.18663 -14.614 8
108 1 -8.61058 -3.83605 -2.37927 19
109 1 -12.8216 -6.11929 5.93923 17
110 1 2.73365 12.1332 12.3086 8
111 1 -7.20315 7.27372 -9.68221 17
112 1 -4.84093 -13.599 -7.78167 9
113 1 5.59027 7.29285 -13.0625 18
114 1 -11.1955 0.333702 11.9597 11
115 1 -7.93537 6.25983 -15.5748 10
116 1 3.40844 -9.81213 -14.8613 10
117 1 2.1037 -0.00441125 2.31711 16
118 1 16.2792 -3.84753 -4.60149 20
119 1 -1.78695 -0.625624 -10.3581 17
120 1 5.17265 -3.30723 11.6716 19
121 1 -7.39661 -15.2924 -1.32707 9
122 1 -7.46992 -9.31777 -2.9044 17
123 1 11.8511 -1.35178 -1.04803 16
124 1 -5.27139 -0.573757 -5.33401 15
125 1 5.34028 -4.67613 7.37338 21
126 1 -11.0555 12.1661 14.0269 6
127 1 0.149707 -2.39456 -17.4452 11
128 1 12.2601 -3.95533 -9.81128 16
129 1 -10.0938 -10.9728 -1.0314 14
130 1 -10.8508 -0.511123 0.202012 17
131 1 -4.97831 -2.64314 -16.8438 11
132 1 -4.50959 3.986 -5.61999 19
133 1 7.45754 -10.2562 2.45495 13
134 1 -7.5189 -6.5218 -9.57921 17
135 1 -8.9533 -9.79087 -11.1461 12
136 1 -14.0834 5.71987 -0.775071 15
137 1 11.0044 -2.01007 -8.31621 15
138 1 0.214569 6.05057 -16.0818 19
139 1 5.60474 0.252935 -7.85058 18
140 1 6.06089 -13.6994 -3.46976 11
141 1 2.47316 -15.3357 1.6314 15
142 1 7.23394 4.53152 17.3635 7
143 1 -11.5227 -0.369341 -10.6262 15
144 1 0.657206 -1.66636 -12.0691 18
145 1 -7.86995 -0.82737 -14.4226 15
146 1 0.256997 -7.39664 12.1208 17
147 1 4.75675 -9.56606 -12.0887 14
148 2 0.178844 -1.69602 21.2877 11
149 2 -10.8287 -3.33992 9.8973 19
150 2 -12.05 8.33018 -2.406 17
151 2 -1.51001 -3.9435 15.558 13
152 2 -19.5218 -1.67906 -2.4998 7
153 2 -15.6732 -5.98158 8.89354 12
154 2 -2.14533 5.61478 14.7026 16
155 2 2.41878 1.77249 6.7667 16
156 2 -0.0682778 8.87142 -12.3655 19
157 2 -3.24186 8.41447 2.35013 15
158 2 -11.5713 -8.72964 -10.1692 12
159 2 -1.51098 -7.11404 -15.3383 15
160 2 0.445474 -8.44824 -13.1293 17
161 2 4.24052 -16.3235 7.87409 6
162 2 -6.6528 -9.67001 -6.92941 14
163 2 -18.6552 -10.4494 5.54236 10
164 2 -13.8207 2.60068 8.94934 15
165 2 7.1304 -2.75302 -22.8041 6
166 2 -13.4603 -4.08802 6.0376 16
167 2 2.37264 -17.4467 3.00269 12
168 2 3.79377 -7.01852 2.98927 17
169 2 -6.27602 -9.82374 1.86555 18
170 2 -5.43049 8.4327 -10.6722 17
171 2 -1.12751 8.01765 -8.77698 20
172 2 -13.8623 4.31663 -10.6436 6
173 2 0.520651 2.42964 -6.07052 15
174 2 -7.46395 7.13509 -7.92455 17
175 2 -7.45516 -9.73054 -10.0977 13
176 2 -3.62389 15.3773 3.77118 12
177 2 -0.992037 -10.4982 -11.2245 14
178 2 -15.5347 -2.78741 0.101211 16
179 2 -14.9357 2.24425 -1.13843 16
180 2 7.78363 -12.6589 -3.17824 11
181 2 -0.560643 -2.75263 4.52735 19
182 2 -16.2916 -8.2849 -2.6014 13
183 2 0.358838 -13.0272 -5.0236 18
184 2 -0.3196 2.3225 -0.406565 16
185 2 -8.76686 3.81561 -3.48924 19
186 2 -12.7612 0.15741 -0.593604 18
187 2 6.70991 1.7139 -23.3511 5
188 2 -2.46242 -11.2893 -5.32571 15
189 2 1.7084 -2.32324 -13.552 16
190 2 6.02224 -19.1477 -7.36909 4
191 2 12.821 -5.31464 0.964352 14
192 2 -12.8667 5.10123 -7.90688 15
193 2 -4.66307 5.05103 -10.4732 21
194 2 -15.2148 -0.173107 9.89864 10
195 2 -6.61462 6.81494 -14.6791 14
196 2 -4.24388 -0.127946 -7.04638 13
197 2 -3.44485 9.81473 -0.0276378 17
198 2 -2.88081 -13.955 -4.92391 14
199 2 -4.29945 -9.54022 -9.94159 17
200 2 -6.33695 -13.1419 2.7759 17
201 2 10.5586 -1.75636 -18.2354 10
202 2 11.1598 12.8106 -5.69311 10
203 2 0.822938 -10.8129 -6.57598 22
204 2 13.4112 9.24284 -2.70421 12
205 2 -2.85113 1.20824 -14.3447 15
206 2 -4.27249 -9.45717 -2.60994 20
207 2 -3.0165 -5.95759 -12.5536 12
208 2 -8.66523 -3.36724 7.09985 21
209 2 1.94024 -11.3091 -10.1043 16
210 2 9.46226 -5.09223 -1.62049 19
211 2 0.0446187 -8.89091 0.270889 17
212 2 -17.8739 -7.03045 -1.04034 9
213 2 7.8999 3.52567 15.8269 12
214 2 4.34678 -2.42713 18.2443 12
215 2 3.42331 7.55947 -12.9293 15
216 2 -7.12025 -0.998767 -4.89338 18
217 2 9.72034 -7.30526 -11.2763 14
218 2 9.48271 2.97896 -10.4403 18
219 2 -6.9096 -14.3023 -2.72538 8
220 2 5.65338 -12.1261 -4.35586 15
221 2 4.20645 -7.15548 -4.50577 19
222 2 2.08906 -2.49356 -10.934 17
223 2 -5.36595 -11.6583 -0.421087 18
224 2 -12.9534 -2.62489 15.8545 4
225 2 -4.77861 -7.40927 12.2549 20
226 2 -9.92011 -8.63383 -12.5287 10
227 2 -3.21165 -7.62552 -8.10854 20
228 2 15.2027 -0.490493 -15.4172 11
229 2 8.53088 -8.8359 -8.64831 14
230 2 6.02524 -14.3656 -6.50639 11
231 2 -12.9576 -5.16982 -10.8817 12
232 2 -7.29154 -12.8862 8.75195 12
233 2 3.63921 18.3276 -1.36566 5
234 2 -0.84067 -9.56397 -3.69904 16
235 2 3.49955 1.1694 17.1826 12
236 2 3.64642 -3.30604 -19.6233 11
237 2 -2.05963 4.55261 11.9386 18
238 2 13.7194 13.8529 -4.22884 7
239 2 2.38028 -17.4389 -7.47494 13
240 2 -15.4978 5.79171 -8.94238 11
241 2 -12.5863 -5.9166 -6.32879 20
242 2 -7.73238 6.43582 -4.01753 18
243 2 18.1165 -5.14856 -2.70651 10
244 2 -10.0656 8.79173 -11.7872 9
245 2 -4.02058 -6.64904 0.614636 17
246 2 -3.59458 -14.0713 1.55176 18
247 2 0.515115 5.23528 -17.7698 14
248 2 7.5406 -5.35615 1.31566 14
249 2 -6.66759 -1.30586 -16.1081 12
250 2 0.0592543 -5.39602 -11.1644 17
251 2 -10.3276 6.53688 -5.63938 17
252 2 2.46944 2.53694 -14.1545 21
253 2 -7.80347 -7.98677 -4.43313 20
254 2 -7.93657 -2.73354 -11.3926 17
255 2 8.45111 -10.2278 -1.80903 13
256 2 8.18816 -11.7415 3.07357 15
257 2 6.99084 -14.3196 2.35458 8
258 2 5.33219 3.89561 11.967 17
259 2 -18.0632 8.34175 -0.73749 9
260 2 0.808228 4.23695 -1.81362 18
261 2 -1.46858 -10.465 -8.41398 18
262 2 0.556355 10.6401 -10.4759 14
263 2 -5.50283 3.51842 -18.7455 9
264 2 9.77899 -6.30297 -14.3355 9
265 2 -2.36512 0.175249 10.5581 21
266 2 -0.624413 -0.515503 6.63012 21
267 2 9.21577 -0.496455 -23.8452 5
268 2 0.290912 0.547496 -15.2924 22
269 2 -0.946147 6.30741 9.42106 18
270 2 5.42796 7.20988 -9.00218 15
271 2 -3.16474 -4.21645 -16.5097 11
272 2 6.94902 2.1443 -7.33026 17
273 1 -11.9633 2.36871 10.2785 15
274 1 3.50644 8.87203 13.7936 14
275 1 -3.83275 -10.3663 -0.784878 18
276 1 -18.2836 10.1073 0.103901 10
277 1 -13.1719 -3.64823 -9.82033 15
278 1 -1.81081 9.25758 2.20501 17
279 1 -9.75864 -1.44164 6.77797 19
280 1 -13.0687 4.43746 2.06296 16
281 1 -19.432 -11.4486 3.7282 8
282 1 -4.99448 -8.43121 1.07025 14
283 1 -9.12109 7.69815 -4.65143 18
284 1 -8.41933 -5.26131 1.07174 17
285 1 -13.8866 -6.92316 -10.6617 11
286 1 -6.1836 -11.6504 6.79243 17
287 1 2.74787 0.239555 5.9425 19
288 1 -3.64759 9.1321 -11.8619 16
289 1 -12.5107 -4.1367 -12.994 8
290 1 -6.55738 -6.48036 11.995 15
291 1 -2.56118 -9.04272 12.5228 20
292 1 -13.8047 -6.70878 -2.15638 18
293 1 -5.62331 10.2542 8.1599 16
294 1 -3.55873 -10.6754 9.67796 17
295 1 1.32006 2.39761 8.29863 18
296 1 -7.30175 2.44945 -3.54457 18
297 1 4.29947 18.2258 -3.28512 7
298 1 -6.43193 2.21088 2.63194 14
299 1 -12.5276 -1.42319 17.198 6
300 1 -9.50337 10.7101 11.4862 14
301 1 -1.76877 1.56722 -19.2634 10
302 1 -10.0664 1.46007 17.4631 7
303 1 -5.314 1.51334 13.068 16
304 1 -10.0514 -3.86393 4.20714 19
305 1 -2.12913 -16.4893 -2.91101 15
306 1 -14.3096 -10.4473 -5.80476 10
307 1 4.70322 -9.33113 2.35463 15
308 1 1.28844 -10.4335 4.31385 19
309 1 -3.00861 7.83629 0.256202 17
310 1 -3.8476 -0.0702394 8.76084 26
311 1 -7.44149 -0.321805 7.88537 21
312 1 -17.9133 4.16504 -4.63591 12
313 1 -18.6126 -3.22357 -2.6582 9
314 1 0.864976 -1.06661 8.147 22
315 1 -0.643452 -17.4451 -6.59067 12
316 1 -5.11983 -4.97798 20.6369 8
317 1 -2.27121 -8.90063 -16.159 9
318 1 8.35691 -2.3277 -9.21596 15
319 1 -2.12216 1.35338 -0.95622 17
320 1 13.3063 8.1453 -11.7344 13
321 1 -12.8775 -3.47408 10.8708 15
322 1 -9.15929 -13.0687 3.89322 10
323 1 -3.93527 0.120243 3.2868 18
324 1 -1.88111 14.9873 3.19668 12
325 1 -10.7362 -5.16699 9.0631 20
326 1 5.28597 -7.30567 8.33693 19
327 1 -1.74007 -1.50372 11.3317 19
328 1 -5.36008 -10.9169 12.0189 15
329 1 -13.6843 -9.26817 0.206543 21
330 1 -9.20011 -7.93137 -5.80325 18
331 1 1.68882 -2.7556 21.7107 10
332 1 8.18111 -8.61058 -10.4966 15
333 1 -6.38224 -7.79175 -6.47283 20
334 1 -12.9385 -12.2783 1.97995 11
335 1 7.93946 -7.5091 -7.4561 14
336 1 4.30648 -18.0854 2.85983 11
337 1 -16.1669 -1.72199 10.083 8
338 1 14.0314 -1.15017 6.07105 15
339 1 10.6454 -8.35498 2.95602 14
340 1 -3.80105 1.08268 19.2142 8
341 1 -15.1999 -6.70241 -4.99115 17
342 1 -6.81076 -6.04577 17.5035 14
343 1 -10.9444 -14.7913 0.710096 4
344 1 -6.13189 -9.49468 3.67517 17
345 1 -0.354211 -10.7801 -0.765446 21
346 1 -12.5206 -4.48834 -5.01333 18
347 1 4.41923 5.93314 15.7324 16
348 1 2.91425 -16.6487 12.2017 5
349 1 -9.09943 -7.33188 -1.04622 17
350 1 -16.5457 -8.61491 2.63811 14
351 1 -0.905928 5.19952 13.2442 22
352 1 -12.3397 -0.683814 5.7855 21
353 1 -12.1044 11.6866 6.55894 10
354 1 2.50503 -5.55187 21.1261 11
355 1 -11.3168 -3.27349 15.0154 8
356 1 -10.934 2.21444 1.59388 19
357 1 6.23059 -8.00702 16.6353 8
358 1 -7.1759 -5.74235 -4.4071 17
359 1 -3.25946 -7.45373 15.9323 17
360 1 5.49082 -6.37574 10.995 18
361 1 18.0591 -6.70797 -3.50925 8
362 1 1.10831 -14.7476 9.93675 11
363 1 2.34228 -16.4371 5.07502 13
364 1 0.167714 -13.9355 -1.62288 18
365 1 -9.30541 -2.90883 9.02848 19
366 1 -14.2417 -4.14151 0.469815 19
367 1 -17.2946 -2.99549 6.86315 13
368 1 -6.61813 -9.61627 8.70552 19
369 1 8.06963 1.1176 12.8971 14
370 1 6.23877 -9.65857 13.2704 10
371 1 -15.2824 -2.59435 -4.85666 15
372 1 -13.7522 -6.79215 3.00731 15
373 1 10.6801 6.4884 -9.58079 20
374 1 -8.51421 7.28141 12.8413 13
375 1 8.34981 -6.97882 3.69677 15
376 1 -2.38576 8.68276 -7.33035 20
377 1 10.3309 2.76764 -8.72886 24
378 1 -4.08975 -4.40865 11.0309 21
379 1 -2.71908 2.85949 2.18847 20
380 1 3.22842 -8.50455 9.98203 15
381 1 -8.57827 1.20797 -0.596277 16
382 1 11.9838 -3.7404 0.355555 17
383 1 -3.23899 -12.3057 -3.83808 18
384 1 -17.1713 2.85648 6.88751 16
385 1 9.4937 8.55761 -6.52651 20
386 1 -13.1119 1.56135 -1.59549 16
387 1 -3.5994 -11.4395 14.9936 12
388 1 -17.2411 0.63095 -5.36228 11
389 1 1.54835 2.5056 1.49711 21
390 1 13.8744 1.63684 6.81148 18
391 1 -12.0315 -11.9465 8.17558 8
392 1 -12.9217 8.95291 4.56247 16
393 1 1.62224 13.0692 9.1374 15
394 1 -0.131145 -12.8394 2.01839 19
395 1 -5.79315 -8.92292 14.984 15
396 2 -11.5635 13.4231 2.36374 9
397 2 -10.7149 -4.43791 -12.4602 13
398 2 -12.2528 0.215851 10.3707 14
399 2 5.12209 -0.718959 15.9612 13
400 2 0.947786 11.4898 1.54381 19
401 2 -10.4702 -0.955108 -4.03496 18
402 2 -8.02304 0.524302 13.3519 14
403 2 -6.73428 2.06012 8.92137 17
404 2 -10.8945 -8.33617 -4.3071 20
405 2 -5.91941 13.7512 4.73924 15
406 2 -9.49169 -9.39201 6.68073 15
407 2 9.75636 -7.66995 -3.67541 19
408 2 7.9429 -9.53441 12.2026 13
409 2 -13.3094 -0.290571 4.35564 17
410 2 -2.71282 2.51291 18.996 7
411 2 -13.1345 -4.63525 2.07687 19
412 2 -5.04865 2.7291 14.8063 12
413 2 -3.43134 0.463074 7.02481 19
414 2 -6.08385 -10.4687 5.35593 17
415 2 -5.62807 -2.58318 -1.45896 13
416 2 1.19596 -6.39426 13.337 15
417 2 -5.786 -5.96257 19.0677 11
418 2 -7.8179 -12.9621 5.62125 12
419 2 12.7143 -7.15805 9.59032 7
420 2 3.62726 -11.4923 9.62133 12
421 2 8.2283 2.39215 -4.97233 20
422 2 5.4853 -6.43875 6.56498 20
423 2 -13.044 2.5964 1.68923 20
424 2 -10.3722 10.3468 7.37165 14
425 2 -7.3077 -11.1059 11.9901 12
426 2 -18.5451 -3.63345 -0.769048 10
427 2 -15.3377 -9.47973 3.63511 17
428 2 -3.16398 -6.32116 17.4038 15
429 2 -5.65486 -0.749409 8.96939 19
430 2 -6.84552 3.95704 -7.40316 15
431 2 -5.11651 -8.69416 7.68512 16
432 2 5.88208 -3.93386 16.085 13
433 2 -11.5655 0.141242 17.3002 6
434 2 0.327632 9.66724 -4.707 19
435 2 -2.56578 -9.92287 5.82151 16
436 2 -9.08921 -1.29405 4.89095 18
437 2 -13.7273 -11.1534 -0.776987 16
438 2 -16.9903 -5.99599 -4.17161 14
439 2 1.71996 -2.82033 12.9133 16
440 2 3.04651 -0.710419 8.41038 21
441 2 -4.94137 -13.0272 6.59787 15
442 2 2.01695 3.31153 -7.90666 15
443 2 -2.60463 -7.97852 14.0759 18
444 2 3.09344 -6.20945 17.483 17
445 2 3.08806 -10.4923 -4.00507 21
446 2 -11.6755 -1.55676 7.5837 17
447 2 -6.78893 7.44743 1.49042 20
448 2 -6.92216 8.25549 12.5604 15
449 2 -12.2918 -7.25343 4.47502 16
450 2 -6.52823 -4.37828 16.1207 13
451 2 -4.54573 6.52508 0.229205 18
452 2 -13.7273 10.6651 6.55838 10
453 2 13.6607 8.83058 -9.66012 14
454 2 -7.63984 1.24896 3.76067 16
455 2 -9.12019 -14.1844 2.10514 9
456 2 -5.49653 -10.9838 9.68012 15
457 2 -14.5165 -7.40432 6.43009 16
458 2 7.89453 -7.68917 17.3301 4
459 2 -13.9127 -10.9149 -3.95706 11
460 2 -10.0007 3.51982 -7.69845 17
461 2 5.5573 4.99561 16.9082 11
462 2 -15.1392 -0.810296 -5.22259 13
463 2 -17.4714 0.697726 -3.10512 15
464 2 -13.572 8.1198 -8.41195 11
465 2 -12.5194 -10.0123 8.42123 9
466 2 0.615557 -4.78295 7.30105 20
467 2 1.68884 -18.8557 -2.80594 14
468 2 -7.78164 -8.94269 14.7229 12
469 2 -13.1627 -5.29332 10.8785 12
470 2 -1.65943 8.50968 13.874 12
471 2 12.3584 8.88134 8.64795 11
472 2 3.62892 -3.68291 4.62775 20
473 2 -16.1174 2.71049 4.24695 16
474 2 4.22743 -15.8267 5.09291 12
475 2 -2.24449 -10.3349 16.1855 15
476 2 -4.93384 -15.3222 -6.68772 6
477 2 14.9406 -2.41933 -6.90593 17
478 2 -11.1711 4.673 9.84739 14
479 2 4.11854 18.6623 1.73767 6
480 2 6.64414 -0.122354 12.5929 16
481 2 11.6886 0.82551 6.23104 19
482 2 -3.45353 -4.93519 -9.71164 19
483 2 -13.2084 -9.33429 -7.27129 12
484 2 4.9251 6.89952 1.09542 18
485 2 -7.27194 6.07341 14.1314 12
486 2 1.7714 -16.5625 0.31789 13
487 2 -13.5343 -7.36771 -3.93558 19
488 2 2.03662 -1.57072 6.10495 18
489 2 -19.7182 11.4864 0.4767 4
490 2 -7.14295 -6.25619 7.03817 16
491 2 8.16645 5.91729 6.96384 16
492 2 -17.0283 -4.33748 5.80109 12
493 2 1.5418 -12.9384 -2.14783 13
494 2 -3.48527 -12.5045 4.41813 19
495 2 -16.1165 1.5365 6.93938 17
496 2 -7.52003 13.1925 0.705453 18
497 2 -8.30396 5.36588 0.602459 18
498 2 6.07271 -2.76284 3.43305 15
499 2 1.99059 3.66209 17.4925 14
500 2 -0.520474 -1.98062 9.27127 19
501 2 -6.76346 2.72422 11.7704 19
502 2 -2.99049 -6.50147 6.82451 17
503 1 -0.450643 4.24337 -11.2 17
504 1 4.19981 6.45088 4.79084 19
505 1 -10.6268 -5.7147 -10.9574 15
506 1 -4.79105 10.1656 -5.42143 16
507 1 -16.9132 0.384871 1.80645 12
508 1 -14.1969 8.43704 -2.77044 12
509 1 -5.23678 3.14464 9.36141 18
510 1 0.576658 -5.43014 -1.88101 16
511 1 -5.89379 -2.76303 17.0068 12
512 1 -7.35194 -3.39354 -15.8463 9
513 1 -4.26307 7.38482 -4.71916 21
514 1 -10.4717 1.3908 6.44618 18
515 1 -15.1632 2.48753 -5.72677 16
516 1 8.32279 -2.06996 -14.4356 15
517 1 -7.74963 15.0333 1.4445 13
518 1 0.0460231 -2.8153 -4.17149 19
519 1 2.35355 -4.25536 -14.4549 15
520 1 -0.766692 4.84263 -19.1157 11
521 1 -6.51324 -0.221371 -17.6031 14
522 1 -3.77214 -11.2056 5.93833 16
523 1 -7.42405 6.15275 -12.977 18
524 1 -4.82976 13.6203 8.23983 15
525 1 -13.027 6.34807 -9.42304 12
526 1 -10.6944 9.86125 2.05884 17
527 1 -9.93333 -4.45997 -4.76227 18
528 1 2.25274 5.43796 17.5414 11
529 1 -3.62767 4.84774 0.523663 16
530 1 -10.881 -0.884306 -6.09427 17
531 1 -14.6157 9.45646 -7.23003 7
532 1 4.98511 -16.8993 -3.0257 15
533 1 0.0731894 -9.36498 -7.92185 20
534 1 1.81174 7.40896 5.9023 15
535 1 6.85787 -2.66656 -11.6465 18
536 1 -13.1936 -3.52322 3.76643 18
537 1 -4.3143 10.2328 -2.36827 18
538 1 16.3771 7.4708 3.69662 11
539 1 -17.9446 5.56741 3.21043 12
540 1 -17.9401 -5.36801 -0.103718 9
541 1 -2.60655 -0.81559 -13.1533 17
542 1 -1.71171 8.49312 -13.943 19
543 1 8.33455 -3.24333 -17.2631 13
544 1 3.9917 13.975 4.97387 23
545 1 -17.9192 -6.03608 4.67879 10
546 1 2.78051 -5.52456 -4.21896 22
547 1 -0.58568 9.39476 5.37266 17
548 1 2.77463 -11.8981 -11.848 10
549 1 0.911484 11.8601 -9.04722 11
550 1 -11.7206 10.6138 -0.487834 17
551 1 -0.827857 1.53312 -13.8927 19
552 1 -9.91687 0.298846 -13.9339 12
553 1 0.108207 -11.8791 -9.86278 13
554 1 -15.3855 0.553271 -2.06285 18
555 1 -7.40231 7.91051 6.53994 16
556 1 -1.71015 5.32433 -14.0228 21
557 1 6.7646 8.26696 -1.99761 19
558 1 4.83675 10.4871 -4.50927 19
559 1 -15.5927 -0.202645 6.27973 19
560 1 -7.7435 -5.56364 3.52125 18
561 1 -18.1236 2.66607 4.02739 12
562 1 -10.8166 3.85056 -1.11468 21
563 1 -11.3893 1.73845 -7.56912 16
564 1 4.2712 -6.53382 -13.9566 14
565 1 -1.89869 3.42277 -16.203 22
566 1 3.31007 6.62832 -14.3579 16
567 1 7.74958 -14.6803 -7.73707 6
568 1 7.07651 6.55489 -9.61795 18
569 1 -0.969124 7.39392 -11.4146 20
570 1 -0.773045 12.5008 0.966012 16
571 1 -6.31908 5.98526 -0.127786 17
572 1 -3.95678 7.76584 6.45972 16
573 1 -9.91709 4.4653 2.011 17
574 1 -4.92475 16.797 3.15841 10
575 1 5.33178 11.2914 -7.13473 14
576 1 9.42978 13.7264 -2.18402 15
577 1 -16.9693 8.27448 -2.23569 12
578 1 5.98873 7.0198 -16.4145 12
579 1 0.681685 -6.50828 -13.084 18
580 1 -13.1773 12.7139 0.970887 9
581 1 -2.99981 4.35929 -2.93653 19
582 1 -13.8419 -1.24322 -7.74069 13
583 1 -1.08031 0.55385 2.25753 18
584 1 -13.5143 -0.0263502 -4.56006 17
585 1 -4.65022 -5.68763 -16.6377 9
586 1 5.16571 4.56044 -11.3565 18
587 1 4.80294 -2.38951 -8.98839 13
588 1 12.314 1.41167 -11.7802 19
589 1 -4.5496 3.49803 -20.3299 5
590 1 0.292241 6.2058 -8.04503 19
591 1 6.7713 14.783 -6.08934 10
592 1 -2.26561 -7.38301 -13.4291 19
593 1 16.0592 -3.52784 -7.86105 14
594 1 -0.560253 8.67603 -17.1519 11
595 1 -2.35128 -15.3602 1.87841 14
596 1 8.37669 6.45547 -12.1904 17
597 1 -6.63513 12.312 5.58137 14
598 1 2.73899 7.90181 -16.9603 11
599 1 2.33136 -7.23795 -6.96659 18
600 1 -11.2516 9.55195 -3.80992 13
601 1 -1.08839 6.16425 5.46929 18
602 1 1.95097 12.8332 -6.39704 13
603 1 -8.2191 8.93994 -11.5343 12
604 1 -6.28192 11.8458 -3.10282 14
605 1 2.06718 1.08052 -15.3442 19
606 1 -5.10501 8.09892 -14.5605 16
607 1 1.95944 -4.88576 17.4516 19
608 1 -12.7664 5.48491 13.6418 5
609 2 6.36273 -10.6818 6.36937 19
610 2 4.43537 -5.17212 -18.4026 8
611 2 10.3767 5.84919 -17.9375 10
612 2 -12.5405 5.0263 0.181264 19
613 2 -8.99063 -6.03879 -5.53468 19
614 2 -7.72432 -2.54599 10.657 17
615 2 -7.08902 1.90633 0.597981 13
616 2 5.54936 2.81376 -20.6945 10
617 2 -8.70052 14.1735 3.03186 15
618 2 -8.64506 8.39778 -0.760316 21
619 2 2.18846 2.69782 -16.6413 20
620 2 -10.1782 13.8866 -2.03415 9
621 2 0.858482 -4.61223 -3.66822 17
622 2 5.22857 3.31957 2.40471 19
623 2 -11.2547 7.58519 8.99664 15
624 2 0.898395 -4.49395 21.2119 11
625 2 4.41128 7.74947 -17.1234 8
626 2 -4.0202 -0.0477326 -3.53942 17
627 2 -7.55562 1.60586 -5.32625 20
628 2 -15.0782 0.741075 2.2538 14
629 2 0.759584 6.12567 1.12924 18
630 2 10.3127 -10.9458 -8.10308 10
631 2 13.6962 0.366507 -10.1601 14
632 2 3.25198 10.6526 13.9203 10
633 2 7.89094 14.9298 -2.06122 12
634 2 2.35545 -5.35498 -6.00203 19
635 2 -5.95989 10.1894 1.61172 12
636 2 -9.95726 7.982 1.90913 16
637 2 -3.39889 4.23102 -13.4913 19
638 2 -5.04598 14.6206 -3.71906 13
639 2 -13.6538 -1.61367 -10.0792 9
640 2 -11.185 12.9517 5.54705 10
641 2 -7.2905 -3.4937 -7.85095 16
642 2 -15.5455 9.66682 -2.5207 10
643 2 -18.3679 4.95988 -0.153762 9
644 2 4.26529 9.77978 -8.10198 15
645 2 -14.1027 5.81513 3.00846 18
646 2 -4.07619 7.2135 10.5569 16
647 2 9.80855 1.43295 -7.67369 16
648 2 -1.72889 14.4725 1.15069 13
649 2 -13.7593 -2.67987 -12.6156 7
650 2 -4.81783 10.5643 -7.24979 13
651 2 2.04722 7.50415 13.8414 19
652 2 6.25812 2.72889 -15.0833 18
653 2 5.97921 13.8386 5.09761 23
654 2 -14.1213 4.08541 -4.90925 15
655 2 -11.9796 2.45857 -2.64281 18
656 2 9.25663 1.29426 -16.5396 18
657 2 12.5437 -0.222174 -16.6847 14
658 2 -1.53429 11.1781 2.3729 18
659 2 -16.3013 3.91783 10.2263 8
660 2 8.31754 -0.703931 -4.87061 15
661 2 16.2844 4.61396 -9.96328 14
662 2 -8.53575 -2.80829 -14.4766 13
663 2 3.49065 8.58476 -2.42946 18
664 2 -7.63143 11.5691 12.6494 11
665 2 -0.933411 9.55917 -15.2661 12
666 2 -2.52241 7.09625 -3.88856 18
667 2 -3.43618 -0.399555 -11.0593 15
668 2 -11.0339 7.2072 -8.13023 12
669 2 1.5115 1.74985 -9.76166 18
670 2 -14.2953 -6.79774 -8.87958 15
671 2 6.49242 5.05012 -6.82555 17
672 2 -13.76 -4.65814 -1.41368 17
673 2 -8.80017 8.10206 5.39782 16
674 2 -13.4925 -7.96132 -12.1246 7
675 2 4.21851 -0.191811 -12.468 20
676 2 -3.57324 7.5839 -15.5358 17
677 2 -3.16318 -2.71311 -12.9858 16
678 2 -3.77426 8.04336 -8.26478 21
679 2 -9.25006 6.26187 -13.7063 12
680 2 -14.2106 6.24433 -2.73421 16
681 2 -2.78149 -7.61052 -4.4391 18
682 2 6.14833 -5.90367 -14.5677 15
683 2 5.82124 9.42756 -3.06591 16
684 2 -5.70061 3.31436 -3.21168 18
685 2 -6.98805 9.26591 -13.0493 14
686 2 -9.81739 -3.19273 16.3288 10
687 2 12.5243 -5.74681 -9.10011 17
688 2 -1.04982 5.77494 -12.4907 16
689 2 8.83128 -3.6457 -15.3199 15
690 2 5.53552 14.7697 -4.61996 16
691 2 0.852091 -8.29749 -9.34105 18
692 2 -3.9393 -1.21467 -15.9371 15
693 2 -15.263 7.83669 6.737 12
694 2 10.5423 14.9708 -3.6633 10
695 2 5.07743 1.55076 -4.44256 18
696 2 -3.42187 2.36031 -19.4784 11
697 2 2.79007 -16.2699 -10.5329 5
698 2 -5.13558 5.60358 -5.06895 17
699 2 7.28604 5.72295 -17.4465 14
700 2 -2.99999 -5.20357 -3.50944 17
701 2 -10.2927 -12.4234 8.12614 10
702 2 4.37831 -10.5849 -6.72797 14
703 2 9.66206 5.9385 -10.9529 15
704 2 8.85863 14.2104 3.1171 10
705 2 -14.8153 -2.99477 10.6916 9
706 2 -2.10328 12.5297 8.53437 19
707 2 -5.48781 2.2069 -12.0392 18
708 2 -9.38004 8.68731 -3.20419 15
709 2 -6.20901 4.54619 -13.066 17
710 2 6.16027 -7.35163 -7.56525 15
711 2 16.1582 6.75154 1.81393 9
712 2 0.217822 12.1343 -5.00754 17
713 2 -4.58188 11.4559 -3.75936 17
714 2 -1.2438 4.38615 -9.49578 20
715 2 -1.74402 -0.80194 -0.893104 15
716 2 -16.1317 8.10164 -6.92642 10
717 2 -14.0527 8.29653 3.06766 13
718 2 -2.9639 6.3886 5.35935 14
719 2 -15.4838 3.15626 -7.53075 12
720 2 -12.6681 7.30443 5.72738 17
721 2 4.71913 -5.74047 -12.0941 14
722 2 7.62273 2.64585 -18.1992 16
723 2 3.10396 14.6922 -5.92389 10
724 2 3.58998 15.7099 3.34944 15
725 2 15.9914 6.34803 4.95764 10
726 2 -4.13373 17.2686 1.5906 9
727 2 -4.43773 12.8348 10.1841 16
728 1 -10.925 4.26852 7.94393 17
729 1 -15.7858 -9.23349 5.53041 15
730 1 -15.8203 -4.22822 4.13232 12
731 1 3.56837 19.3856 0.287235 4
732 1 5.03412 -14.7916 3.75401 13
733 1 -5.84369 -2.55672 9.73064 19
734 1 5.20677 8.2544 2.4842 21
735 1 -19.1549 -9.17189 1.32414 7
736 1 -10.5478 -7.37993 4.53257 16
737 1 -10.3141 -2.6132 11.8033 14
738 1 6.42152 0.0544614 -4.55299 18
739 1 -8.66621 -8.30572 15.984 10
740 1 3.00399 3.13899 -9.62655 16
741 1 -10.1634 7.67722 -1.63876 20
742 1 -19.2815 3.47231 1.14426 8
743 1 2.15525 1.94374 18.3534 12
744 1 -3.89129 1.51232 5.58059 18
745 1 15.0453 4.12948 8.9182 9
746 1 -10.3306 -10.3716 2.18794 15
747 1 -0.848996 13.3517 -5.78573 13
748 1 4.70303 7.70623 -3.69973 20
749 1 -0.47778 2.37577 18.4207 11
750 1 -3.48616 -3.69546 -2.37213 16
751 1 10.221 2.85241 -16.7419 17
752 1 -2.64117 3.16181 -8.68266 16
753 1 3.98545 -5.99672 4.73397 20
754 1 3.74275 -1.47392 -19.913 12
755 1 -2.63136 13.4426 5.78931 14
756 1 -13.6253 2.93027 6.72438 18
757 1 -0.505567 11.6251 3.93749 15
758 1 2.30834 -3.92205 -7.46278 17
759 1 -12.9312 -8.24735 7.93564 15
760 1 1.29622 -13.445 12.4437 10
761 1 -7.12671 10.6862 3.11871 16
762 1 6.6707 -2.1398 7.88933 20
763 1 6.8034 -1.15706 -19.8128 13
764 1 8.90966 7.55314 7.09823 17
765 1 4.85721 -3.75372 -3.37075 18
766 1 -2.92025 -3.37297 14.2461 13
767 1 17.9121 8.59903 -4.55174 14
768 1 -1.91966 10.6838 -0.968001 19
769 1 -5.81971 -1.92297 -3.20428 16
770 1 -10.7321 5.49199 -7.21214 15
771 1 -5.02236 8.48916 1.71105 14
772 1 -9.75725 7.78966 3.74985 22
773 1 -15.9677 -4.10639 9.43142 11
774 1 -5.74921 -13.2912 4.68019 14
775 1 -15.4799 10.8605 7.19269 5
776 1 -0.272856 4.60896 15.8723 13
777 1 -1.1493 -7.20612 0.329554 15
778 1 -6.51247 9.95285 13.0527 11
779 1 1.1316 14.0881 5.87511 16
780 1 -16.8508 7.16351 -5.55064 12
781 1 -8.62272 1.86542 12.1908 17
782 1 3.79165 -1.23215 0.238865 18
783 1 -6.8873 2.09884 5.39339 17
784 1 -13.9186 1.49964 3.72357 20
785 1 -11.7348 -4.61748 -1.27578 18
786 1 -6.26094 5.11745 -3.51211 15
787 1 -0.571636 10.9992 9.93154 20
788 1 -12.2612 7.41986 2.05079 19
789 1 9.45346 2.2689 15.6344 10
790 1 -10.4562 13.4852 3.94291 11
791 1 -16.4625 -8.83345 -0.913333 13
792 1 3.85722 -2.56331 8.86254 20
793 1 -1.05959 -9.36136 2.12509 15
794 1 -8.7469 -1.64371 16.959 12
795 1 -4.09307 11.2323 0.980786 17
796 1 -3.28948 15.7704 0.782925 14
797 1 -0.494002 -2.89296 14.291 17
798 1 -10.3953 7.61474 6.81382 16
799 1 11.5367 10.7246 10.9829 8
800 1 1.57002 2.73956 14.8587 20
801 1 16.1483 6.19403 -11.8812 13
802 1 2.47225 16.2144 -5.5941 7
803 1 -2.03547 -2.55142 3.37384 17
804 1 -1.6046 1.0365 13.4707 20
805 1 -1.98956 -5.7081 -11.0024 18
806 1 9.3273 2.74144 4.76814 19
807 1 0.848926 7.80564 -0.64041 16
808 1 14.245 8.59229 -4.37848 12
809 1 -9.20161 -1.48722 -11.6021 17
810 1 -3.20205 4.16233 14.0285 17
811 1 -4.42117 0.540861 -15.481 16
812 1 7.07907 12.4431 -8.69183 10
813 1 8.14802 -7.58686 12.7673 14
814 1 8.06553 -4.76071 12.139 13
815 1 -4.47336 15.8237 -2.42051 12
816 1 -7.84609 3.67346 -0.127347 21
817 1 10.6837 -10.0177 8.86489 13
818 1 -4.57433 -1.83733 12.9376 16
819 1 0.253885 -1.05272 -0.953715 14
820 1 -0.270091 -2.07665 17.3532 14
821 1 -0.394999 -5.63468 14.6307 22
822 1 1.16919 -8.23981 19.6881 7
823 1 -14.6495 3.69119 -8.93919 8
824 1 -7.99585 13.5115 13.1105 9
825 1 -7.8697 9.0583 -7.66971 12
826 1 1.83712 4.87389 4.2496 14
827 1 -7.30046 12.1805 9.53631 12
828 1 -5.33332 -3.76754 -0.089931 14
829 1 5.51864 5.15679 -1.53623 19
830 1 -0.781165 12.7879 12.2713 11
831 1 -2.55346 -1.16602 -3.71315 18
832 1 13.9088 4.45888 -4.32585 10
833 1 -14.2423 -6.42822 10.008 13
834 1 -15.1436 6.10924 -6.82812 16
835 1 15.7153 2.18139 -4.24492 13
836 1 -7.91478 -2.16462 0.164267 16
837 1 6.86957 7.41333 0.360052 17
838 1 -0.981645 13.9113 8.90558 17
839 1 3.30146 16.8084 4.78841 11
840 1 -1.51067 0.928391 7.08695 20
841 1 1.10645 -7.01528 4.12512 19
842 1 -4.92643 15.2942 5.19248 11
843 2 -4.2733 -9.04661 16.1778 13
844 2 -10.2795 5.71405 6.43371 17
845 2 -15.4554 -4.96543 -6.13199 14
846 2 -0.642619 -5.8226 4.62273 17
847 2 -5.59936 8.95092 6.70729 15
848 2 -12.8113 0.63775 -6.52719 14
849 2 -16.7172 5.80103 4.70524 14
850 2 -18.2766 2.06804 5.60658 9
851 2 -9.81351 3.17749 0.428647 19
852 2 -11.2929 -6.93328 -0.889249 17
853 2 -1.33319 1.5797 -8.33911 21
854 2 -8.26877 -5.77653 -13.5219 13
855 2 -7.2189 -1.81451 17.5572 9
856 2 -4.29848 4.59914 -16.2367 16
857 2 -9.03629 0.300298 7.35728 19
858 2 6.57756 -0.0783486 -15.307 18
859 2 -5.6441 -3.25277 7.67706 23
860 2 19.3266 -3.84763 -4.89989 9
861 2 -4.37676 3.54532 6.28914 16
862 2 -12.5877 1.32562 6.14315 17
863 2 -13.627 -3.22659 -4.52357 19
864 2 -11.0236 3.3035 -4.65426 20
865 2 -13.9534 4.13306 5.23372 16
866 2 -18.0147 -7.22453 6.31576 9
867 2 -15.3382 -8.60757 -5.52267 14
868 2 -11.0505 -9.79435 0.321794 20