ITEM: TIMESTEP
320000
ITEM: NUMBER OF ATOMS
2000
ITEM: BOX BOUNDS pp pp pp
-30.0 30.0
-30.0 30.0
-30.0 30.0
ITEM: ATOMS id type x y z Coordination
1 2 -16.4767 4.6331 2.75656 12
2 1 -3.93946 -13.2912 -2.88281 15
3 2 -5.74258 -5.50665 -9.14888 18
4 1 3.14607 -16.5526 2.66973 12
5 2 -8.53802 -14.877 -1.58945 13
6 1 1.65477 -16.3902 -8.94835 11
7 1 -0.692215 -18.3135 -6.109 8
8 2 11.8249 -12.8469 -4.53121 11
9 2 7.65646 -3.75026 -14.649 11
10 1 -7.75726 -14.7875 2.68667 12
11 1 10.1792 -13.6279 -4.97337 13
12 1 4.53344 -12.7918 -15.0976 8
13 2 4.72143 -11.2923 -0.353521 19
14 2 6.29562 -17.0909 -6.2151 11
15 2 -0.188478 -11.821 -13.9794 15
16 2 -9.15737 -11.551 -8.16172 20
17 2 -7.60255 -7.63561 -14.4912 12
18 2 -14.5832 -8.66014 -9.80557 11
19 2 -8.85525 1.88974 -14.5807 16
20 2 -8.61078 -0.612685 -11.3318 19
21 2 -12.8933 -5.68369 -12.4388 13
22 2 -8.31671 -2.25423 -8.93764 14
23 2 -15.6228 -0.641011 -7.70687 14
24 2 -5.80623 2.28208 -17.9689 9
25 2 5.58021 -4.45092 -13.1057 19
26 2 9.13061 1.46691 -19.3241 5
27 2 10.3719 -3.41289 -12.5667 13
28 2 6.59797 2.24151 -18.5901 11
29 2 9.37245 6.80504 -13.3733 11
30 2 2.69179 2.73663 -15.3963 16
31 2 -0.859685 6.39934 -9.12402 18
32 2 8.65083 2.61507 -8.3938 19
33 2 4.68624 4.96914 -14.6294 22
34 2 -12.6353 -6.29934 -9.54656 18
35 2 2.63254 2.25719 -5.76251 19
36 1 -8.81455 1.18671 14.6249 14
37 1 -15.8077 -4.13869 -8.88569 17
38 1 -13.0851 11.4018 -2.53072 14
39 1 -12.6828 3.30411 -4.19657 18
40 1 -15.9801 7.11972 -1.66936 14
41 1 -10.5037 2.92763 -2.18034 17
42 1 -16.9852 -1.58695 -8.87291 10
43 1 -17.0364 -1.5057 -1.09715 13
44 1 -14.3611 -6.34392 2.82741 14
45 1 -15.1703 -1.41318 5.3911 14
46 1 -10.2217 -6.30079 -10.365 15
47 1 -18.4201 -4.29828 -6.81856 10
48 1 -11.5494 -6.65277 5.43706 16
49 1 -12.4658 -8.4572 -8.87333 18
50 1 -15.3218 -9.15618 -7.87601 11
51 1 -9.72103 -9.24987 2.59587 16
52 1 -6.65468 -11.04 8.6737 18
53 1 -6.91404 -14.1759 -2.87253 19
54 1 -8.60109 -8.42923 -8.35609 16
55 1 -11.3544 0.854995 -3.92704 17
56 1 -10.3397 -10.5548 -0.722676 21
57 1 -16.9089 2.66794 -6.03523 11
58 1 -12.7596 -4.55653 -14.0602 7
59 1 -7.66992 3.84386 -12.4278 18
60 1 -16.4923 -3.6011 -3.40851 12
61 1 -9.23399 -5.56097 6.98543 20
62 1 -8.67669 0.0140959 7.75188 18
63 1 -7.488 -12.7198 -6.41492 18
64 1 -8.57166 -11.1249 -3.04892 17
65 1 1.84037 -13.4307 -10.0979 14
66 1 -6.69649 -16.1351 -0.5683 14
67 1 -4.95064 -6.60496 -10.6675 19
68 1 -9.3047 -14.2772 -10.1442 14
69 1 -8.08152 -17.3771 -10.3332 7
70 1 -17.7922 0.227864 -4.19604 9
71 1 -15.8568 -1.27645 -5.89575 11
72 1 -11.538 -15.9191 -9.03925 7
73 1 -10.8962 -12.7157 1.5166 10
74 1 -8.82241 -16.3756 -3.08074 8
75 1 -12.0147 -8.76525 -2.7532 16
76 1 -14.0399 -9.97173 -11.1404 9
77 1 -9.01469 -4.51272 -5.4818 17
78 1 -11.0866 6.37075 -5.28423 19
79 1 -14.897 -2.12454 -11.631 11
80 1 -11.1307 8.37007 -7.6593 16
81 1 -12.9867 -5.08286 -7.6683 15
82 1 -9.74754 3.52053 -5.43629 17
83 1 -8.48907 -5.83905 -14.6337 11
84 1 -10.8405 6.20078 -1.66179 21
85 1 -9.45166 1.40541 4.60253 17
86 1 -8.63897 -1.5004 2.76657 23
87 1 -3.04157 -11.8491 -12.0657 16
88 1 -8.71541 -12.2025 3.37445 18
89 1 -14.8765 -10.1982 -3.30488 11
90 1 -7.86997 -6.91109 -4.83126 18
91 1 -8.38169 -13.6847 6.40177 11
92 1 -6.94566 -10.2077 5.05367 22
93 1 2.59928 -2.22866 -9.50911 16
94 1 -11.8615 -7.19168 -12.84 13
95 1 2.94222 -6.85646 -15.9037 10
96 1 -14.0219 -1.99672 -3.01072 21
97 1 -6.84484 -6.40785 -8.05216 17
98 1 -12.8005 -10.7928 -6.30706 12
99 1 -10.0372 -12.8174 -5.27105 13
100 1 -10.996 -6.94249 -5.6506 17
101 1 -2.11267 -9.00981 -6.57974 16
102 1 -7.3894 -10.8044 -8.39605 18
103 1 -7.90024 -5.87311 0.889811 17
104 1 -15.0948 1.35722 -4.37036 19
105 1 -8.57485 -1.23263 -13.0705 18
106 1 6.33869 -16.2146 -11.4617 6
107 1 -9.30008 0.661651 -15.8561 10
108 1 -14.2872 -6.99846 -10.7831 14
109 1 -13.0601 -1.72642 -9.21074 18
110 1 -8.60317 -1.64246 -7.13379 17
111 1 -11.2957 0.304856 -7.12775 18
112 1 -7.952 4.37188 -0.795009 20
113 1 -8.0128 0.72286 -5.04169 23
114 1 -6.97148 -4.40298 -2.23468 18
115 1 -6.7789 1.56842 -8.00974 18
116 1 -3.19422 -7.97092 -8.84301 17
117 1 2.92601 -6.77966 -12.0448 18
118 1 -6.10125 -4.49725 -5.42221 13
119 1 -8.96369 -9.76069 -6.03387 18
120 1 0.151877 -11.9826 -1.24698 20
121 1 -5.18771 -15.5032 -8.82229 14
122 1 -5.3553 -15.1055 -5.23772 16
123 1 3.88679 -11.8274 1.53948 16
124 1 -13.7174 1.45325 -12.155 9
125 1 3.32786 -17.6751 -2.49525 12
126 1 -13.7251 -7.71465 -5.21661 19
127 1 -9.95916 -3.8679 -12.8014 18
128 1 1.52152 -12.6399 -14.513 11
129 1 -5.79449 -9.70208 -11.0451 20
130 1 1.89141 -14.5085 -3.31644 21
131 1 -0.163712 -7.03657 -4.62698 20
132 1 6.9548 -1.87868 1.61542 13
133 1 0.822446 -6.34921 -0.724962 20
134 1 6.69914 -10.7965 -2.49968 22
135 1 -2.59496 -10.3844 0.708249 20
136 1 -4.12817 -7.22869 -16.1033 12
137 1 7.35488 2.06408 -20.1327 7
138 1 1.11457 -0.634803 -7.45768 18
139 1 -11.5488 -12.7916 -10.9907 10
140 1 -5.78623 -4.31332 -15.6296 14
141 1 -5.31504 -11.018 -13.8366 13
142 1 7.16184 -15.8949 -7.49815 15
143 1 -9.59317 -3.05875 -10.2661 17
144 1 -7.71416 -8.22992 -1.85974 19
145 1 -0.895131 -6.33397 -7.47166 22
146 1 -6.68859 1.45262 -2.13142 16
147 1 -4.33877 -0.79413 -9.06531 21
148 2 -13.3913 -2.20376 -1.27785 18
149 2 -6.94317 -12.7026 7.21601 13
150 2 -6.94877 -7.67243 -0.110023 19
151 2 -15.1997 -5.1379 -7.19512 17
152 2 -13.4571 1.50749 -3.5546 18
153 2 -12.5383 7.06693 -2.20512 19
154 2 -11.1701 -1.73543 4.74131 20
155 2 -17.2614 0.241407 -2.36955 11
156 2 -16.2551 -3.39432 -1.57268 12
157 2 -2.6936 -12.048 -7.95793 16
158 2 -9.19333 -7.98986 -5.84607 15
159 2 -5.75214 -2.69203 7.19072 19
160 2 -13.521 -8.2774 -12.1937 11
161 2 -8.09945 -18.0597 -2.45806 6
162 2 -8.78338 -13.9981 -7.13486 14
163 2 -6.53077 -9.72848 6.85649 20
164 2 -8.07821 -10.8656 10.3848 11
165 2 -9.78159 -4.74897 -11.1486 17
166 2 -12.7437 -1.71084 -4.63927 16
167 2 -9.26173 -2.60652 -5.37766 17
168 2 -10.1242 -5.15131 -14.1823 11
169 2 -10.4896 5.11377 1.788 20
170 2 -12.7042 4.98546 -5.09357 19
171 2 -16.0326 6.51135 0.118969 14
172 2 -10.1529 6.86828 -3.71139 18
173 2 -1.81264 3.43545 -13.5136 21
174 2 -7.58905 -5.46387 -6.55315 17
175 2 -10.2742 -7.7159 2.0394 18
176 2 -12.3453 3.63255 -1.75464 20
177 2 -9.66522 -3.27974 1.97639 19
178 2 -10.9989 -14.1375 -9.16575 12
179 2 -11.4632 -10.2689 6.34249 10
180 2 -8.28393 -8.53063 12.1692 11
181 2 -7.11464 -11.6444 3.77949 22
182 2 -0.721921 -14.3286 -5.40929 17
183 2 0.23773 -17.557 -4.51474 12
184 2 -11.1175 0.729807 -12.2912 12
185 2 -10.9963 0.91226 -1.99984 20
186 2 -11.5589 -12.099 -6.102 12
187 2 -10.5285 -12.595 -3.44908 13
188 2 -13.4029 -10.3122 -4.54918 13
189 2 -12.8508 -5.7837 -5.71457 13
190 2 3.22578 -11.9656 -10.6178 19
191 2 -5.9662 -14.9574 -7.04968 17
192 2 -8.50283 -8.86738 4.96795 19
193 2 -12.7038 -0.0960621 -8.16207 13
194 2 -13.5971 -4.37036 6.8189 15
195 2 -16.5564 -5.67026 -4.20189 14
196 2 -3.95505 -5.07016 -16.1659 13
197 2 -17.2579 -3.30428 -7.9247 11
198 2 1.35738 -10.7974 -2.51785 16
199 2 -10.8658 2.74307 -4.03109 19
200 2 -10.5364 -10.046 -2.63943 20
201 2 -8.29914 7.11266 -18.6332 6
202 2 -7.17317 7.51042 -5.08658 23
203 2 -7.04919 -5.48802 -3.94801 18
204 2 -10.2177 2.71522 0.629155 20
205 2 -8.48318 4.76029 -4.73051 17
206 2 -5.06447 1.96406 5.01968 14
207 2 -7.10218 -9.91344 -2.42003 17
208 2 -6.75998 -16.1938 -9.65491 11
209 2 -4.85013 -17.8704 -4.86573 8
210 2 -10.0251 -5.69103 -4.48768 14
211 2 -6.68514 -11.4905 0.451063 19
212 2 -3.0554 -15.2903 0.7189 14
213 2 -1.56009 -8.62809 1.08023 19
214 2 -0.617327 -8.13878 4.94748 18
215 2 -9.97906 -16.847 -9.98962 6
216 2 -16.5799 0.796657 -5.43447 13
217 2 -10.353 -8.68835 -8.98974 15
218 2 -8.87101 -10.2604 -11.9517 13
219 2 -7.15444 -9.08182 -7.40935 20
220 2 3.10522 -17.4912 -7.90135 8
221 2 -6.25239 -9.51419 -12.8145 16
222 2 -16.1258 -8.36463 -6.54143 14
223 2 -4.60834 -12.2476 5.79392 17
224 2 -2.42319 -11.0842 5.05637 17
225 2 -3.27761 -11.9554 1.59784 18
226 2 -4.24194 -14.3947 -10.1107 16
227 2 -10.6768 -7.75795 -11.7094 15
228 2 6.27614 -7.51983 -10.9566 18
229 2 -7.61422 -2.80466 10.4162 18
230 2 -7.64646 -13.5209 -9.71897 19
231 2 -7.78779 -4.22833 -0.710065 19
232 2 -10.9765 -5.14601 4.14689 22
233 2 -12.6939 -3.46662 -8.6667 15
234 2 -7.15509 -0.503149 -6.69562 20
235 2 -3.69049 -6.65347 -3.49227 19
236 2 -5.9414 0.866242 2.09546 19
237 2 -8.44568 0.0652801 -3.21142 20
238 2 -4.55435 -2.83153 -9.20184 18
239 2 9.18556 -6.12633 -11.8001 13
240 2 -13.2768 2.66088 -8.82672 14
241 2 -5.43816 -13.5647 -4.05809 16
242 2 3.19697 -2.21061 -13.4969 16
243 2 -3.3554 -10.9497 -14.1715 12
244 2 -12.906 -11.396 -10.7568 10
245 2 3.61575 -18.0593 1.57042 8
246 2 -5.59594 -11.4694 -6.86208 19
247 2 -7.75817 -12.6107 -1.7084 18
248 2 3.06939 -13.8011 -14.3296 10
249 2 -0.656046 -4.39452 -6.92001 21
250 2 7.93802 -15.2944 -11.4193 6
251 2 -9.04069 -9.74193 0.497049 21
252 2 2.28125 -10.741 -14.2475 18
253 2 0.279977 -16.4332 -7.254 13
254 2 -1.09442 -10.3161 -5.55054 14
255 2 9.15684 -8.82048 -1.31088 17
256 2 9.29732 -12.1653 -9.93302 9
257 2 -0.0664286 -15.1327 0.621015 16
258 2 1.70318 -12.0492 0.179619 21
259 2 -11.369 -4.29091 -2.3489 17
260 2 -0.751117 -6.39154 -1.81152 21
261 2 -2.30152 -7.37199 -16.6365 12
262 2 -6.49331 -2.59334 -11.747 21
263 2 -11.2158 -1.75706 -10.5087 19
264 2 -5.00926 -1.06401 -17.6613 8
265 2 4.34091 -4.41741 -2.43386 19
266 2 -7.03155 -2.26366 -2.9542 22
267 2 -10.4169 -2.32904 -13.1549 13
268 2 -3.82326 -5.09169 -11.2646 23
269 2 3.29309 -1.78892 -1.25278 16
270 2 -8.26511 -6.78456 -9.48366 14
271 2 -0.457384 -1.13152 -8.40859 18
272 2 -3.84735 -7.93764 -7.02556 19
273 1 -11.3711 -2.63878 -1.27248 19
274 1 -7.27577 -13.237 0.256389 19
275 1 -4.66455 -7.61632 -0.773192 18
276 1 -17.3203 6.36903 -5.63181 7
277 1 -12.382 -4.4186 -4.07931 18
278 1 -15.9191 -3.16459 3.37539 13
279 1 -15.9508 5.96047 3.93766 10
280 1 -12.4858 5.11084 2.66907 17
281 1 -10.794 -12.857 -7.79479 14
282 1 -11.1199 -0.266724 10.0181 19
283 1 -8.521 -2.93744 0.381446 19
284 1 -13.0637 -5.58086 10.7119 18
285 1 -9.95977 -10.336 5.103 15
286 1 -14.6989 -4.94102 5.30108 14
287 1 -10.7203 -5.79745 2.18607 19
288 1 -11.8922 -11.581 -3.65989 15
289 1 -0.0946388 -9.80843 8.18162 19
290 1 -12.2111 -9.13241 10.6626 11
291 1 -7.23122 6.98567 15.0313 11
292 1 -5.44662 -7.04493 12.7995 18
293 1 -3.20572 -5.67632 14.3659 15
294 1 -9.00362 9.50035 6.04038 20
295 1 -11.3683 4.16199 0.056269 19
296 1 -10.483 -3.28329 3.91483 19
297 1 -14.0876 4.47785 -1.1334 20
298 1 -14.6942 -8.76667 -0.268389 10
299 1 -16.3756 -3.55031 6.93443 10
300 1 -10.2588 -7.01156 9.03331 19
301 1 -16.3578 0.0692857 1.90776 11
302 1 -16.0122 -0.34546 8.54248 11
303 1 -9.22673 -2.619 8.10161 20
304 1 -9.76385 -10.2694 8.79337 13
305 1 -8.07924 -8.36085 6.77132 18
306 1 -5.81931 -13.4014 4.63015 16
307 1 4.13669 -13.5001 3.94739 15
308 1 -1.82077 -7.82913 9.64699 21
309 1 -8.22827 6.26228 -3.5655 16
310 1 -7.0458 -9.53914 0.996915 21
311 1 -11.1674 -4.63185 13.5272 12
312 1 -12.9165 -10.1808 7.53597 5
313 1 -7.83208 -7.93814 10.2847 19
314 1 -6.99066 -10.203 11.9644 10
315 1 -6.35763 -0.830971 16.8442 9
316 1 -13.6047 2.12712 8.52216 17
317 1 -4.43291 -8.22268 3.27282 17
318 1 -0.646298 -11.3663 5.9677 17
319 1 -5.62974 5.64975 6.54977 19
320 1 -10.8044 -1.31238 1.26055 21
321 1 -2.50346 -5.99571 -2.32839 21
322 1 -10.893 -1.01508 6.23495 21
323 1 -10.7773 -3.84494 10.158 23
324 1 0.931831 -9.51402 4.91029 21
325 1 -11.7111 -4.51653 6.88892 18
326 1 -14.9604 4.597 9.94105 11
327 1 -9.1464 -1.64367 11.5984 18
328 1 -3.44421 4.45332 8.8666 16
329 1 -6.64794 0.15892 13.5929 19
330 1 5.98895 -12.501 -0.18905 18
331 1 -16.038 -4.04086 10.8372 10
332 1 -2.96927 -10.8854 -2.08158 19
333 1 -2.38886 -11.7834 -5.76503 19
334 1 -9.82501 -13.4124 -1.73421 14
335 1 -5.73294 -11.1422 -1.19632 24
336 1 -3.31345 -15.9122 -1.27091 14
337 1 -0.441478 -18.0592 -2.32564 11
338 1 6.58149 -7.25424 15.2528 12
339 1 -10.2868 -5.96899 -2.40559 17
340 1 3.04176 -5.73209 4.69364 20
341 1 -1.42727 -13.1057 8.89227 10
342 1 -5.37682 -1.85839 2.29393 22
343 1 -4.86832 -8.97902 7.46273 20
344 1 -5.40443 -11.5176 1.87381 19
345 1 -1.93356 -6.64048 1.31324 20
346 1 -12.9702 -7.72628 13.4368 9
347 1 -9.84249 -2.0511 14.6479 12
348 1 -2.0956 -8.75113 6.12329 19
349 1 -0.387461 -10.8149 11.8169 13
350 1 -3.37686 -5.71832 7.34006 21
351 1 -8.56647 3.91527 5.50207 18
352 1 -8.549 -1.79639 -3.73742 20
353 1 -9.45723 -0.0265091 -1.60663 20
354 1 -4.61746 -1.09232 7.89242 17
355 1 -6.51502 -3.61243 8.59788 22
356 1 -8.18452 -3.19787 5.79466 22
357 1 -9.78678 -7.18074 12.2723 14
358 1 -4.827 -6.84388 9.49409 20
359 1 -10.6437 4.18107 13.9923 11
360 1 -7.81324 -4.70815 10.6022 21
361 1 1.39063 -8.30257 11.0269 18
362 1 -13.6036 2.78349 1.57543 21
363 1 -2.91248 -14.0596 -7.84676 17
364 1 -7.6343 -15.3629 -7.90636 11
365 1 -5.58632 -17.5509 -3.19357 10
366 1 3.0717 -11.941 6.26932 16
367 1 6.80274 -7.86793 7.45803 18
368 1 -4.40272 -9.51145 10.9567 19
369 1 -1.04742 -14.4685 -3.38187 15
370 1 10.4283 -13.7822 0.350067 13
371 1 -4.91822 -13.135 7.62679 11
372 1 -4.62544 -8.35903 -3.26825 18
373 1 -1.13914 -4.05526 0.43566 21
374 1 1.01768 -5.10733 2.39779 21
375 1 8.09769 -13.8126 -2.25658 16
376 1 0.968527 -2.0132 1.94751 20
377 1 5.86891 -7.25181 3.59735 19
378 1 -4.83175 -4.4749 11.5797 20
379 1 -0.88061 -7.97955 3.04616 19
380 1 -2.88599 -3.32778 16.7645 11
381 1 0.668659 0.609983 17.5752 15
382 1 6.00137 -7.82058 12.2979 17
383 1 -7.89258 -4.61537 13.6357 14
384 1 -3.32166 -0.26445 4.28369 18
385 1 -5.18595 -0.426479 -6.55464 17
386 1 -7.96038 -7.36018 3.99842 21
387 1 -1.46819 -2.80801 4.14898 18
388 1 -6.44549 0.857764 4.05195 17
389 1 3.25079 -5.51374 12.8908 20
390 1 -2.73622 -6.18763 11.9998 22
391 1 -3.66155 -3.16458 9.53268 20
392 1 1.1203 2.84445 10.4592 16
393 1 -5.61865 -3.93574 15.8896 10
394 1 -0.986142 -1.35323 19.1594 6
395 1 -5.89242 1.78532 16.162 15
396 2 -5.9695 10.188 -3.26781 22
397 2 -13.4347 -9.41056 -7.52706 15
398 2 -16.448 -3.95246 4.90517 10
399 2 -12.8382 8.78448 5.69544 15
400 2 -12.1071 0.166184 0.990324 16
401 2 -15.0741 -2.03291 7.15165 14
402 2 0.68326 -2.27955 15.4222 15
403 2 -10.9238 -6.35919 7.40419 16
404 2 -14.2743 0.801404 -0.523605 19
405 2 -12.3583 -2.31736 2.19538 21
406 2 -9.24835 -6.79212 -0.928282 19
407 2 -2.66912 -5.85467 8.98531 19
408 2 -4.80205 0.328755 16.4268 9
409 2 -11.6766 -6.99228 10.6281 19
410 2 -15.7545 -1.22152 3.6928 12
411 2 -12.3094 -4.89982 9.10084 17
412 2 -15.3131 -5.69818 10.7006 11
413 2 -17.1144 -1.32693 0.738963 11
414 2 -14.0366 0.717917 12.4229 10
415 2 -15.2424 1.32263 2.43621 15
416 2 -13.0861 -0.570179 5.55689 16
417 2 -9.23391 3.01544 14.1272 15
418 2 -15.0877 -2.94667 12.1726 10
419 2 -8.9794 -6.07396 10.1137 19
420 2 -9.69569 -3.01162 12.7787 15
421 2 -5.90065 -7.21123 4.03797 21
422 2 -9.17917 -8.42018 8.45558 18
423 2 -14.6611 -4.56536 2.62989 13
424 2 -10.0203 -1.92015 9.75176 19
425 2 -11.5074 -7.43537 -1.28252 20
426 2 -3.28462 -11.6335 -3.99359 19
427 2 -9.61502 -5.63107 13.3147 15
428 2 0.434673 -9.95432 10.037 19
429 2 -14.148 -7.44395 1.15715 13
430 2 -2.18751 -4.26116 -3.11375 21
431 2 -11.953 -10.2924 9.08459 7
432 2 -4.18167 -9.3871 -1.55815 19
433 2 -13.277 -6.0875 4.61826 13
434 2 -6.46397 5.96381 0.441737 20
435 2 -6.54983 -5.51307 12.6166 20
436 2 -12.4673 -5.58658 1.00966 18
437 2 -13.9015 -8.20432 11.8879 7
438 2 -11.9013 2.66464 13.3612 12
439 2 -1.99324 5.2124 9.85936 19
440 2 -0.290251 -4.17165 12.3431 19
441 2 -7.64434 -0.305222 12.1183 17
442 2 -3.13685 7.35615 18.5303 16
443 2 -9.50021 -12.0049 5.28348 14
444 2 -3.53796 -7.78014 10.6126 21
445 2 -3.35743 -6.71238 2.68008 16
446 2 -4.81398 -10.3768 9.06337 20
447 2 -3.73375 -7.46308 13.6395 16
448 2 -0.947106 0.479824 18.8075 7
449 2 -3.56171 -12.6056 8.79273 10
450 2 -2.12911 -17.8165 -7.13474 9
451 2 -10.0617 -0.177387 14.4222 12
452 2 -8.10965 -5.84439 2.89113 21
453 2 7.43561 -0.0444353 3.52137 15
454 2 -7.92877 -6.52616 6.09808 19
455 2 -6.06901 -8.49537 11.1988 17
456 2 5.03913 -8.36875 7.87866 18
457 2 -8.35129 -4.25279 7.83346 19
458 2 -5.41886 -5.01132 9.93214 21
459 2 -8.92051 -13.5194 1.93223 14
460 2 -5.0478 -6.94285 7.60347 20
461 2 -8.56481 -1.54009 6.57855 19
462 2 -5.74064 -4.27064 5.06651 20
463 2 -5.59235 -0.343602 9.36839 18
464 2 -7.18253 -3.31036 15.006 10
465 2 -1.10487 7.20576 11.9913 16
466 2 -5.50965 -3.76473 2.33014 22
467 2 -1.99826 -5.81922 5.82855 20
468 2 -11.7398 -6.41005 14.0562 8
469 2 -4.15045 6.5812 13.4637 18
470 2 -1.37687 -2.608 17.8219 10
471 2 -5.23119 -10.3398 12.6205 11
472 2 14.03 -7.74708 8.26312 13
473 2 -2.52655 -14.1845 -2.08292 17
474 2 -6.47006 -15.0428 1.1972 14
475 2 -4.33802 -13.6575 3.46751 14
476 2 -1.21971 -11.5445 7.85412 12
477 2 6.35375 -9.19078 4.26321 20
478 2 0.893883 -11.4957 4.9735 18
479 2 6.79311 -5.98904 -1.5155 20
480 2 3.02952 -10.9547 7.99205 15
481 2 1.42719 -17.9226 -1.95498 12
482 2 -4.43381 -4.99052 -6.10374 16
483 2 -10.9293 -12.2459 -0.363394 13
484 2 -3.59307 4.88899 15.8077 17
485 2 -0.324099 -13.3966 10.6513 8
486 2 -5.57829 -9.6128 2.19491 17
487 2 -6.88486 -15.9071 -3.80477 11
488 2 -4.42063 2.6356 11.1435 18
489 2 -7.32702 2.73138 10.7957 18
490 2 -11.4289 -0.336808 11.7951 17
491 2 1.38003 -4.48215 8.96598 18
492 2 2.18084 -3.56076 2.12162 18
493 2 -7.1093 -1.15613 1.37521 21
494 2 -0.212319 -5.68114 0.863386 22
495 2 -3.18633 -2.22948 5.02109 18
496 2 -1.09711 12.915 11.2907 17
497 2 0.555036 6.24459 6.00013 19
498 2 4.49772 -6.75559 5.62455 19
499 2 2.77681 -0.960011 13.4502 17
500 2 -9.7865 0.894978 9.03375 16
501 2 -5.74571 3.51971 17.462 10
502 2 0.514911 -4.66391 15.6324 16
503 1 -3.2662 -2.93387 -10.9541 16
504 1 -6.15273 7.19468 -6.96931 18
505 1 -17.384 -7.31584 -5.49966 11
506 1 -13.4933 -0.801566 7.666 18
507 1 -15.8561 1.20998 -1.49341 16
508 1 -14.2447 8.74857 4.61042 10
509 1 -9.70752 10.9267 -6.38911 17
510 1 -5.86622 8.4615 -13.123 19
511 1 -14.2207 6.8884 1.39615 18
512 1 -15.7303 -6.42679 -2.56783 13
513 1 -14.6008 -5.11704 -5.23219 17
514 1 -13.971 4.24672 -10.5255 11
515 1 -15.2286 -4.19382 -0.364228 17
516 1 -6.01621 1.61352 -10.9547 21
517 1 -8.35279 6.80535 0.895688 19
518 1 -5.82128 -0.985665 -16.0254 12
519 1 -13.5662 3.96313 -7.17162 13
520 1 -13.2034 9.35209 2.02228 18
521 1 -2.06801 7.14104 -7.70048 17
522 1 -13.229 6.97084 -9.11038 13
523 1 -13.0552 10.8226 -5.54389 13
524 1 -8.37628 10.3639 -15.8008 9
525 1 0.067034 9.87089 -14.11 9
526 1 -13.6338 6.20676 -3.73933 19
527 1 -8.77695 8.68399 -18.8106 4
528 1 0.924975 6.31363 -5.53289 21
529 1 -8.94726 3.78646 -9.85913 14
530 1 -9.84454 1.83844 -12.9456 16
531 1 -11.2573 8.88093 -3.02441 19
532 1 -3.57212 -1.39796 -14.5705 17
533 1 -2.23898 -3.94513 -16.3184 16
534 1 -6.99494 4.35354 -5.91435 19
535 1 -5.81147 8.22102 -16.1234 14
536 1 -1.04989 4.55435 -6.57303 19
537 1 -8.76508 8.73734 -4.93231 22
538 1 -12.9151 1.28634 -1.77789 21
539 1 -11.6489 4.26907 -8.84076 15
540 1 -15.8532 9.45881 -4.04136 12
541 1 -11.7576 -0.99205 -12.1485 15
542 1 -2.89667 2.70735 -9.96204 21
543 1 -11.8294 6.2336 -12.1054 9
544 1 -9.90939 11.7457 -9.86831 10
545 1 -9.15055 2.18529 -7.77229 17
546 1 -14.818 10.288 -8.43243 5
547 1 -10.3099 10.8581 -0.335509 19
548 1 5.58814 7.34439 -16.1412 10
549 1 -4.96199 13.7148 -14.5372 11
550 1 -7.99307 14.3671 -9.20375 14
551 1 1.18435 -4.17206 -15.5259 17
552 1 -10.4204 -8.25186 -0.178393 16
553 1 -2.9587 2.18866 -14.672 17
554 1 -16.459 -6.91784 -8.14919 14
555 1 -5.49049 7.34995 -0.853629 19
556 1 -2.95005 0.439356 -12.2069 19
557 1 -5.45016 -1.18568 -3.15199 18
558 1 2.70598 1.06361 -9.83992 19
559 1 -7.35079 13.7323 -2.11817 16
560 1 -2.99024 -1.01503 -4.54632 17
561 1 -7.49137 0.842895 1.29691 22
562 1 -0.710215 9.09866 -5.56609 19
563 1 -7.1029 -1.31402 -10.2573 16
564 1 9.78765 -8.26963 -8.46919 13
565 1 -10.1321 -0.110647 -10.4215 17
566 1 -5.002 11.3445 -15.4575 15
567 1 2.59365 6.72557 -14.1534 15
568 1 -4.2916 5.7978 -11.0842 18
569 1 -10.3057 8.77773 -10.9856 13
570 1 -1.84114 12.0768 -14.241 9
571 1 0.518666 7.12644 -0.527097 19
572 1 -4.34763 9.63189 -6.49592 23
573 1 -3.24703 16.7513 -5.17416 12
574 1 -6.05747 13.9551 -11.1389 16
575 1 -4.9534 16.1312 -10.1529 11
576 1 -3.60021 17.164 -1.58522 10
577 1 -4.19067 11.1805 -9.50396 19
578 1 -2.8068 5.15157 -14.0074 16
579 1 -8.85685 3.81762 -15.2129 16
580 1 -5.41719 -4.04675 -10.6209 16
581 1 -14.6254 1.41735 -8.86685 14
582 1 -1.41035 5.50427 -10.8677 16
583 1 -7.79991 2.32999 -18.2076 9
584 1 -7.62683 -6.25768 -11.1096 24
585 1 -2.54233 -8.45414 -14.8776 17
586 1 -4.5162 4.68444 -6.63257 19
587 1 -3.32455 -3.02881 -1.93934 19
588 1 -11.0877 -1.92677 -5.63672 12
589 1 -2.96508 6.00122 -1.95264 16
590 1 1.29934 6.63968 -8.84177 19
591 1 1.22481 3.93863 -15.1632 16
592 1 -5.99295 -3.41853 -13.3355 17
593 1 -3.06432 8.49564 -15.1691 14
594 1 -0.549859 13.2173 -7.06842 15
595 1 4.15624 0.973737 -7.62759 19
596 1 2.08853 4.87281 -11.3511 17
597 1 -6.6808 10.3883 -1.79448 18
598 1 -2.03039 10.8793 -7.89052 15
599 1 -1.01579 1.40783 -4.23392 19
600 1 -7.11817 11.6751 -8.64366 21
601 1 -4.89794 11.6314 -12.441 17
602 1 -3.31888 12.2524 -5.9578 20
603 1 -1.27833 14.6148 -0.764153 17
604 1 -6.0528 5.70223 -14.0686 19
605 1 2.82453 13.197 -4.27061 16
606 1 -7.23006 10.2052 -11.0559 20
607 1 0.336638 10.5313 -0.419791 20
608 1 2.38656 15.0056 8.98415 14
609 2 -11.7179 -8.2303 -4.50591 17
610 2 -15.3907 -6.05982 -9.61341 17
611 2 -4.89372 4.97916 -12.7264 22
612 2 -9.35168 9.29095 -3.27128 22
613 2 -9.53387 2.76966 -11.3544 16
614 2 -13.0695 4.90419 0.898395 20
615 2 -9.56008 0.137556 2.8416 23
616 2 -10.9342 10.3122 1.42328 17
617 2 -10.3402 12.7205 0.279121 12
618 2 -14.2427 10.6316 -3.88876 12
619 2 -14.5082 3.28176 -12.2347 7
620 2 -8.26449 11.3019 -5.35052 18
621 2 -14.661 -7.75069 -3.63023 16
622 2 -15.9747 7.79508 -4.85166 11
623 2 -9.35298 8.75427 -7.36469 18
624 2 -15.0024 3.78354 0.396916 18
625 2 -4.86635 8.35239 -14.7425 15
626 2 -7.18984 8.9159 -0.558261 16
627 2 -14.3975 8.34303 -8.63509 9
628 2 -17.1083 -1.86201 -4.42934 14
629 2 -13.1801 -3.18936 -12.3383 13
630 2 1.20917 -7.37842 -16.6492 12
631 2 -11.4885 7.72913 -10.0977 13
632 2 -15.8172 8.96501 -2.26927 13
633 2 -13.9422 10.5737 3.66655 12
634 2 -9.61382 4.83445 -1.30331 20
635 2 -13.9681 12.8666 1.53449 9
636 2 -11.1627 10.414 -4.93269 17
637 2 -6.71559 12.3258 -1.02889 17
638 2 -6.28037 9.53993 -6.62196 21
639 2 -12.1393 7.86065 -6.23966 17
640 2 -13.3318 5.30041 -8.47742 14
641 2 -10.3699 3.71639 -7.56975 17
642 2 -6.72302 6.16725 -16.0443 13
643 2 -9.95876 0.710587 -8.61513 21
644 2 -4.95399 8.0859 -8.25813 21
645 2 -6.02971 10.1162 -9.56923 20
646 2 -1.60665 6.12299 -12.5281 13
647 2 -13.1552 5.93364 -10.8618 10
648 2 -9.14255 7.29005 5.8506 17
649 2 -6.14984 5.29651 -7.29744 15
650 2 -5.40044 12.3923 -10.5205 19
651 2 -5.30819 -0.0701206 -0.908128 21
652 2 0.873982 4.38464 -7.20999 18
653 2 2.51314 5.07616 -9.09557 15
654 2 -2.26105 11.1677 -9.63049 15
655 2 -6.29462 10.8222 2.28441 14
656 2 -9.22228 9.40422 -17.0769 6
657 2 -3.46179 0.536461 -13.9681 18
658 2 -8.12739 12.6163 -9.85587 14
659 2 -14.1794 10.2485 -6.75855 10
660 2 -12.1845 7.69276 2.31239 18
661 2 -3.00087 1.85875 -16.7744 13
662 2 -3.96518 11.1876 -7.57319 19
663 2 -2.02639 10.1642 -14.8968 10
664 2 -14.326 11.0552 -0.785405 12
665 2 -7.78357 8.31218 -10.9151 17
666 2 1.6963 3.28341 -12.5353 20
667 2 -15.7945 -2.65089 -10.2099 12
668 2 -14.3096 -0.0854234 -10.8018 14
669 2 -7.54476 5.05005 -10.3468 15
670 2 -8.14482 0.299068 -0.340847 20
671 2 -1.37437 2.6966 -8.39558 17
672 2 -14.5134 -3.64244 -4.01087 16
673 2 -5.81581 0.108615 -9.75929 18
674 2 -3.59159 -6.21485 -0.122638 20
675 2 -2.18078 3.30409 4.3452 16
676 2 -1.15171 6.38797 -5.31934 23
677 2 -3.82087 7.85514 -1.56248 19
678 2 -5.21389 -2.53525 -14.7913 14
679 2 -7.51763 2.70145 -9.08337 18
680 2 4.43358 3.21116 -17.6598 14
681 2 -1.28836 3.27594 -4.84602 20
682 2 -2.88211 -2.11138 -13.0374 17
683 2 -1.5382 12.9764 -3.65273 17
684 2 -5.16952 4.16846 -4.86911 18
685 2 -8.68393 15.2284 -1.01366 10
686 2 -2.63237 13.446 -1.40147 13
687 2 -1.10073 3.46505 -10.7191 16
688 2 -4.90575 7.90887 -11.51 17
689 2 -10.1586 7.25488 -12.3935 11
690 2 -5.9632 15.6702 -1.78984 12
691 2 -6.33065 10.323 -12.783 19
692 2 -0.989889 -9.31973 -15.8104 14
693 2 -11.6569 12.8611 3.73349 11
694 2 -4.39452 12.1705 -4.40966 20
695 2 -9.07013 10.3479 -10.5836 13
696 2 -7.10263 -4.56071 -14.4664 15
697 2 -1.80244 -1.73349 -15.5451 15
698 2 4.23946 3.51733 -11.3796 20
699 2 0.102703 0.857969 -16.6368 11
700 2 -10.9042 -0.0822431 -5.42028 18
701 2 -7.5915 1.96736 5.11509 17
702 2 -4.92351 9.98718 -16.66 9
703 2 2.41541 0.0861308 -11.283 18
704 2 -1.66616 1.72279 -2.23664 18
705 2 2.66497 4.09115 6.68098 18
706 2 2.69628 7.01661 1.10143 20
707 2 -6.42941 1.38148 -3.92096 16
708 2 -1.92061 9.06452 -7.33175 20
709 2 -6.91929 11.6023 -15.6646 12
710 2 -7.86323 3.62361 -16.7729 14
711 2 3.25406 16.1142 -5.2726 13
712 2 4.89218 5.81161 2.0728 19
713 2 -4.34586 8.65911 -4.91112 23
714 2 -7.35712 -0.646806 -14.4372 16
715 2 1.41567 4.69957 -4.30853 20
716 2 -7.78201 5.42715 2.54379 16
717 2 -5.6282e-05 15.4564 -2.19129 13
718 2 4.53286 13.6025 -5.13819 15
719 2 -6.51202 13.156 -12.9269 14
720 2 -1.43625 4.79083 -2.30046 19
721 2 1.61735 13.4293 -2.86492 18
722 2 -3.74329 6.299 -3.86291 19
723 2 -2.56568 13.6851 -6.65216 19
724 2 -3.10731 17.1023 -3.42807 11
725 2 -2.50504 10.7494 -1.65361 15
726 2 -6.3064 12.8174 -7.20045 23
727 2 -4.18326 15.3035 -8.63951 15
728 1 -12.1175 10.4609 5.63291 13
729 1 -11.7198 6.95768 6.0607 16
730 1 -12.8462 -4.20252 2.43777 17
731 1 -12.5448 8.111 -0.436308 20
732 1 -16.0935 4.18304 -3.46224 16
733 1 -15.9019 2.826 3.24093 11
734 1 -3.80193 10.0769 -3.53679 19
735 1 -13.0156 -6.19281 -0.617223 19
736 1 -15.2732 -7.46657 10.9196 7
737 1 -16.4805 4.84442 0.767249 11
738 1 -8.98672 4.06982 2.46115 21
739 1 -13.9854 -3.90225 8.80489 16
740 1 -15.5238 9.57552 -0.584452 13
741 1 -7.85255 7.42756 3.88864 19
742 1 -12.6088 -0.984905 3.60993 16
743 1 -5.02353 13.8177 5.82357 17
744 1 -13.6056 -0.775664 -0.00308778 18
745 1 -12.3407 5.29243 11.2996 13
746 1 -13.3126 -2.54928 11.9793 16
747 1 -10.2748 12.3863 5.02035 12
748 1 -9.74079 11.4614 -3.73044 17
749 1 -11.6536 12.3465 1.69038 14
750 1 -10.8113 1.35944 2.15667 17
751 1 -11.718 3.56093 5.10814 16
752 1 -14.1793 8.15997 -6.3616 15
753 1 -13.6986 1.63553 5.39227 21
754 1 -10.1653 14.0173 -1.64952 7
755 1 -14.2429 12.962 -0.486879 7
756 1 -10.6227 7.01471 1.73692 19
757 1 -5.90838 8.34227 -3.91563 20
758 1 -5.03386 -2.39022 5.42386 19
759 1 -7.25007 -4.27299 3.55748 20
760 1 -2.33009 -3.19603 6.3719 21
761 1 -8.2439 3.41942 9.08533 16
762 1 -6.18274 2.24453 6.53705 17
763 1 -7.15835 9.18774 1.3608 20
764 1 -8.26784 12.0597 11.1745 7
765 1 -0.791832 1.99703 4.17221 15
766 1 -15.5617 -0.359286 12.0151 7
767 1 -5.74399 5.59033 2.63907 15
768 1 -7.35171 13.4641 -5.81841 16
769 1 -7.61748 12.5298 -14.2046 10
770 1 -6.36355 11.1457 -4.73127 22
771 1 -5.92581 12.8147 0.854612 15
772 1 -16.2669 2.78253 6.64409 10
773 1 -6.52965 6.54562 9.44798 19
774 1 -14.0067 5.08028 7.21777 15
775 1 -2.00179 4.73717 5.7509 19
776 1 -10.554 9.80773 8.71457 14
777 1 -2.3891 5.78896 11.4478 18
778 1 -5.17508 15.5726 2.66238 10
779 1 -6.77197 16.0934 -0.0253463 9
780 1 -6.32753 4.2147 -9.00555 19
781 1 -5.86938 4.06209 11.0686 20
782 1 -5.12335 3.85713 0.303524 17
783 1 -2.80649 7.1588 7.40181 20
784 1 -4.42321 -5.31333 3.33732 16
785 1 -6.9304 -1.41431 -0.771199 20
786 1 -2.33577 8.5527 -1.0683 16
787 1 -1.41824 -1.23891 9.1678 19
788 1 -1.66488 -3.2657 11.8009 17
789 1 -1.57777 2.12635 7.40754 18
790 1 -1.12255 2.79963 13.156 15
791 1 -10.3849 7.41139 10.5575 15
792 1 -7.10945 3.81586 13.9633 18
793 1 -8.62714 1.49255 11.5237 18
794 1 -13.5331 12.5513 3.56557 7
795 1 0.664808 3.93652 0.546499 18
796 1 -4.50435 10.0758 7.16885 17
797 1 -8.64756 8.16306 -1.69449 22
798 1 -9.22507 6.82426 7.67763 18
799 1 -6.96963 11.6819 7.04902 18
800 1 8.60839 0.164944 9.8993 17
801 1 0.198586 7.42125 7.39456 23
802 1 -0.568629 6.73585 4.28437 23
803 1 -2.87077 15.6872 7.62259 14
804 1 -8.87312 5.5441 11.5625 18
805 1 -6.00021 14.1319 8.70216 13
806 1 1.90504 15.0503 -1.54121 15
807 1 -4.46538 11.1257 3.264 19
808 1 -7.76152 9.44511 -8.07992 21
809 1 -7.48113 8.77337 12.0284 15
810 1 -7.66297 11.195 3.90034 17
811 1 -4.52548 0.8495 1.21633 20
812 1 -2.71055 7.66348 -5.02098 21
813 1 -0.184821 -0.307296 6.2529 18
814 1 -3.40558 7.80076 2.93262 16
815 1 -4.08141 3.09542 3.96791 18
816 1 1.80767 0.336657 4.19018 17
817 1 -5.13648 1.83422 9.53268 14
818 1 1.27819 5.75625 2.61729 19
819 1 -1.82782 14.4512 10.4998 15
820 1 3.34635 -0.267332 10.453 13
821 1 4.20776 1.43124 16.3728 14
822 1 -5.31913 5.21523 16.1248 16
823 1 -3.47179 13.2506 -2.98107 18
824 1 -2.57594 9.16453 5.1483 21
825 1 4.8304 16.9805 -1.87587 10
826 1 -0.11849 11.466 10.9044 17
827 1 2.68107 12.5662 10.5962 19
828 1 0.0436467 7.87765 10.7054 18
829 1 0.819142 2.06592 15.3118 17
830 1 -2.31027 8.23458 12.941 18
831 1 -13.6615 7.51754 9.1253 11
832 1 1.82525 6.04048 10.2902 19
833 1 -2.61246 5.82405 14.3055 17
834 1 -7.32481 9.14053 9.28326 19
835 1 7.91537 10.5615 -8.62163 15
836 1 -5.5901 8.31675 5.07464 20
837 1 -2.86787 13.7164 3.22073 18
838 1 -2.15611 9.80519 8.74891 22
839 1 0.0708018 16.2133 7.38419 12
840 1 -5.4392 12.278 10.9352 10
841 1 2.92272 9.53865 6.35137 21
842 1 -3.43896 12.5518 8.64894 20
843 2 -13.5828 3.72762 10.9679 10
844 2 -6.8298 4.171 6.40049 15
845 2 -14.1154 -10.0124 -1.66844 10
846 2 -15.7996 -3.7545 8.96327 12
847 2 -3.51863 5.03622 6.94968 18
848 2 -16.6725 4.52796 -5.25548 12
849 2 -9.95559 -1.65774 -0.382442 21
850 2 -11.9702 -3.82233 11.5655 16
851 2 -5.20773 5.16585 9.49665 20
852 2 -14.8655 -5.74776 -1.16711 15
853 2 -15.2376 3.04157 -7.14797 13
854 2 -10.3347 7.59343 -0.279285 20
855 2 -10.7535 5.11607 12.3962 12
856 2 -7.39655 9.43544 4.8992 20
857 2 -15.9451 2.36808 -3.02431 15
858 2 -13.0838 3.07145 3.81662 15
859 2 -7.29627 0.385047 15.3467 15
860 2 -6.25965 6.33538 4.87766 13