ITEM: TIMESTEP
184000
ITEM: NUMBER OF ATOMS
2000
ITEM: BOX BOUNDS pp pp pp
-30.0 30.0
-30.0 30.0
-30.0 30.0
ITEM: ATOMS id type x y z Coordination
1 2 -16.157 -2.13207 0.90842 15
2 1 -3.14853 -17.3307 -4.89602 15
3 2 -3.48369 -17.402 -3.08629 15
4 1 -3.58376 -16.9143 0.759583 16
5 2 -3.48932 -17.0502 2.6652 13
6 1 -0.350903 -16.9941 -4.61511 16
7 1 3.23238 -17.8378 -4.86792 12
8 2 0.155613 -16.9315 -2.93773 17
9 2 3.41662 -17.1035 -3.11543 14
10 1 -0.113899 -17.1991 0.782758 17
11 1 2.58266 -16.7836 6.81153 9
12 1 3.1112 -17.099 0.605452 16
13 2 -0.249586 -17.1793 2.6948 16
14 2 3.2622 -17.0468 2.43478 16
15 2 -4.90141 -4.84816 -16.3434 10
16 2 -6.93504 -1.01597 -16.1323 11
17 2 -1.70563 -4.26176 -16.8579 10
18 2 -3.49041 -0.698492 -15.2393 15
19 2 -8.39023 2.72852 -13.696 14
20 2 -6.37572 2.77598 -15.9632 11
21 2 -1.09063 1.165 -15.9966 13
22 2 -3.02461 4.05109 -16.266 13
23 2 0.30864 4.38373 -15.8427 16
24 2 1.74965 -8.39711 -13.3575 20
25 2 1.09822 -4.71564 -15.8124 14
26 2 -0.0483542 -1.53295 -16.675 14
27 2 5.03912 -5.02215 -16.255 10
28 2 3.45274 -1.81542 -15.9295 15
29 2 7.99795 -0.627397 -13.7206 13
30 2 1.88799 1.19571 -15.7809 16
31 2 -1.90425 6.98681 -16.0921 11
32 2 7.33889 5.69397 -13.1869 15
33 2 5.38807 0.675663 -15.5779 13
34 2 3.31295 3.54368 -15.9119 12
35 2 10.3876 6.0856 -12.733 11
36 1 -15.0388 -9.58795 -3.59688 12
37 1 -16.7237 -5.53184 0.730203 12
38 1 -12.6014 -2.6889 -12.0733 13
39 1 -13.7699 -4.41417 -9.98859 17
40 1 -15.1271 -1.87601 -9.5785 12
41 1 -15.8217 -2.76588 -4.60163 12
42 1 -15.7789 -5.02271 -7.34092 11
43 1 -15.4728 -4.86765 -1.91842 17
44 1 -15.0195 -2.79219 -0.450208 16
45 1 -14.0878 -11.3836 -5.67015 10
46 1 -15.2332 -7.32401 -9.40498 9
47 1 -11.4064 -12.0299 -9.33405 9
48 1 -12.4193 -9.40435 -7.39123 16
49 1 -15.4301 -8.72268 -7.10797 9
50 1 -13.5401 -5.84581 -4.89682 18
51 1 -11.2214 -8.76566 -4.28288 21
52 1 -12.2785 -10.6265 -2.59275 17
53 1 -13.681 -7.09445 -2.23941 20
54 1 -13.955 -6.54926 -12.5264 7
55 1 -13.6092 1.00612 -9.61332 17
56 1 -11.819 -1.76948 -9.17322 22
57 1 -11.5127 -4.47986 -7.65363 18
58 1 -14.0627 -1.92781 -6.99824 20
59 1 -13.531 0.11156 -4.52962 20
60 1 -11.8677 -2.94174 -4.96947 21
61 1 -11.7897 -4.50204 -2.78133 23
62 1 -13.4865 -1.92551 -2.3572 21
63 1 -9.80842 -14.3781 -6.65369 8
64 1 -10.4403 -11.2497 -5.79209 20
65 1 -9.65207 -13.0038 -3.53411 14
66 1 -9.3041 -14.6708 -0.813737 10
67 1 -12.3486 -8.78192 -10.2261 11
68 1 -10.2706 -4.13957 -10.4279 20
69 1 -8.32771 -8.6551 -10.2177 15
70 1 -8.76949 -10.5692 -7.77522 19
71 1 -9.91647 -7.15865 -7.79496 16
72 1 -10.3413 -5.5196 -4.93356 21
73 1 -8.36715 -8.61452 -4.70322 22
74 1 -9.18994 -10.3888 -2.56285 23
75 1 -10.2356 -7.23513 -2.27066 22
76 1 -5.16195 -1.51916 -15.5409 15
77 1 -8.11162 -4.23445 -12.9323 18
78 1 -8.14256 -1.8199 -15.0358 12
79 1 -9.588 0.0881961 -9.72586 23
80 1 -7.93662 -2.31919 -10.1506 22
81 1 -8.38711 -4.36254 -7.46114 22
82 1 -9.75841 -1.90877 -7.01866 23
83 1 -10.0839 0.221224 -4.57578 23
84 1 -8.20684 -2.70888 -4.61786 23
85 1 -8.69944 -4.54331 -2.68266 24
86 1 -10.3356 -1.73791 -2.30641 23
87 1 -6.90581 -11.8589 -9.80449 13
88 1 -6.599 -13.4975 -7.02774 16
89 1 -6.99928 -11.2159 -4.89285 20
90 1 -4.75641 -14.7177 -5.05779 18
91 1 -4.81508 -16.474 -2.08769 13
92 1 -6.65667 -13.7057 -3.07687 17
93 1 -1.53056 -10.4157 -13.1501 15
94 1 -3.43991 -11.505 -10.8702 19
95 1 -6.57731 -7.45289 -12.8091 14
96 1 -6.95603 -5.43387 -10.0961 22
97 1 -5.19576 -8.59122 -10.1996 20
98 1 -5.09334 -10.4395 -7.40303 23
99 1 -6.71123 -7.4397 -7.46133 23
100 1 -6.69656 -5.64338 -4.94246 23
101 1 -4.91522 -8.60116 -4.88265 20
102 1 -4.73642 -10.6175 -2.29423 19
103 1 -6.69637 -7.47585 -2.17898 23
104 1 -7.03444 1.02209 -15.4759 14
105 1 -3.58783 -4.82241 -17.5901 5
106 1 -5.21302 -4.13241 -12.5704 21
107 1 -6.44808 -1.23678 -12.7129 24
108 1 -6.52324 0.639698 -9.9872 22
109 1 -4.97278 -2.67112 -10.1239 23
110 1 -5.01136 -4.6098 -7.67566 21
111 1 -6.35399 -1.63341 -7.23504 23
112 1 -6.58154 0.171505 -4.5842 22
113 1 -4.99092 -2.7743 -4.6467 22
114 1 -5.33771 -4.70599 -2.22353 21
115 1 -6.64759 -1.39738 -2.04079 21
116 1 -3.37965 -15.0094 -10.1121 9
117 1 1.05692 -15.3413 -9.76571 10
118 1 -1.58231 -16.0036 -7.8101 18
119 1 -4.93087 -16.7494 -7.99304 11
120 1 -3.4308 -11.253 -5.18012 23
121 1 -1.71901 -14.3514 -4.64542 24
122 1 -1.5591 -16.514 -1.96735 19
123 1 -3.64222 -13.7165 -2.38397 22
124 1 -6.16155 -4.54499 -15.0829 12
125 1 -3.62972 -7.24077 -12.5643 18
126 1 -2.83178 -13.5655 -13.4675 7
127 1 -5.12799 -10.5359 -12.771 12
128 1 -3.09525 -5.12643 -10.0641 21
129 1 -1.50053 -8.66747 -10.4835 19
130 1 -1.64399 -10.4102 -7.70689 22
131 1 -3.24059 -7.52724 -7.81233 19
132 1 -3.57658 -5.48172 -4.63438 24
133 1 -1.68919 -8.54519 -5.26839 20
134 1 -1.71895 -10.6664 -2.82498 20
135 1 -3.20933 -7.60364 -2.07684 22
136 1 -2.42751 0.655032 -14.7349 18
137 1 1.54827 -2.49896 -15.7337 17
138 1 -1.75418 -4.60849 -13.0724 22
139 1 -3.33186 -1.78991 -13.075 21
140 1 -3.30155 0.126174 -10.3828 22
141 1 -1.81658 -2.57178 -10.267 24
142 1 -1.70112 -4.78718 -7.65425 24
143 1 -3.58167 -1.63066 -8.04909 22
144 1 -3.19892 0.179501 -4.61144 23
145 1 -1.84516 -2.658 -5.00975 21
146 1 -1.82431 -4.90136 -2.69704 20
147 1 -3.51965 -1.89272 -1.84117 24
148 2 -16.852 -6.01258 -1.09831 13
149 2 -11.3297 -10.2824 7.41584 14
150 2 -6.37785 -13.3648 -5.12012 21
151 2 -16.0981 -7.03391 -7.3283 9
152 2 -14.9211 -3.45108 -8.06638 15
153 2 -13.8862 -2.6752 -10.6392 16
154 2 -14.9886 -4.62606 -0.00168551 18
155 2 -15.0547 -4.41062 -5.31455 12
156 2 -15.2689 -3.10139 -2.69971 15
157 2 -12.0621 -3.76911 -9.43892 18
158 2 -15.2314 -9.82671 -5.64362 10
159 2 -13.7372 -11.1593 -3.8231 11
160 2 -12.6947 -7.39934 -3.9729 20
161 2 -12.2079 -10.7036 -10.0639 7
162 2 -12.2247 -10.0174 -5.56339 17
163 2 -12.1686 -10.386 0.0395733 17
164 2 -12.9068 -7.16111 -0.0511804 24
165 2 -13.7498 -5.30618 -2.84626 20
166 2 -11.5262 -8.87109 -2.47521 21
167 2 -14.5627 -6.12802 -10.5039 13
168 2 -13.2526 -4.98443 -13.3821 8
169 2 -12.2068 -7.28207 -11.6539 11
170 2 -12.0376 -4.88576 -5.51435 17
171 2 -14.4132 -1.67893 -5.23982 15
172 2 -11.657 0.328396 -9.49099 19
173 2 -11.9993 -2.53918 -7.23517 22
174 2 -11.6495 -4.43537 -0.628533 24
175 2 -13.3533 -1.79468 -0.296094 21
176 2 -13.4789 0.296395 -2.77517 20
177 2 -11.8033 -2.71083 -3.10517 22
178 2 -8.16044 -14.5031 -7.64151 9
179 2 -9.50751 -13.0952 -5.42053 15
180 2 -10.2812 -13.8431 0.462742 11
181 2 -10.6952 -11.7032 -2.67934 18
182 2 -8.62555 -14.1234 -2.52909 12
183 2 -8.1156 -10.4193 -9.88833 12
184 2 -10.7331 -11.1523 -7.76437 15
185 2 -14.0873 -8.53692 -8.25934 11
186 2 -11.2428 -8.35629 -8.14779 17
187 2 -8.79402 -10.6519 -4.73851 20
188 2 -9.92073 -7.50746 -5.22407 23
189 2 -9.90179 -5.19593 -8.18148 19
190 2 -8.35384 -8.7206 -8.02572 20
191 2 -8.75056 -10.536 -0.355176 19
192 2 -9.863 -7.32021 -0.452499 23
193 2 -9.97089 -5.608 -3.22796 26
194 2 -8.43418 -8.41882 -2.6455 23
195 2 -8.18445 -4.03613 -11.0962 20
196 2 -9.85723 -1.79172 -10.0744 23
197 2 -10.5488 -4.07187 -12.4261 14
198 2 -7.38128 -3.23062 -14.1661 16
199 2 -8.10278 -4.4446 -5.54235 23
200 2 -9.99505 -1.76168 -5.02249 22
201 2 -9.76479 -0.0707948 -7.79915 20
202 2 -8.15987 -2.53777 -8.01202 25
203 2 -8.45263 -4.76016 -0.770144 22
204 2 -10.0241 -1.57629 -0.36693 22
205 2 -10.2614 0.502799 -2.39478 21
206 2 -8.56181 -2.02619 -2.80986 19
207 2 -4.37089 -16.8308 -6.1701 12
208 2 -3.23672 -13.5891 -5.25562 22
209 2 -6.8349 -11.5915 -7.74265 17
210 2 -5.04032 -14.5781 -8.39732 16
211 2 -4.77562 -15.8695 -0.222944 15
212 2 -7.13168 -13.4747 0.131833 19
213 2 -6.65793 -11.5729 -2.84419 20
214 2 -5.15017 -14.971 -3.16464 17
215 2 -5.51393 -11.2438 -10.9665 12
216 2 -6.88105 -7.35114 -10.7254 15
217 2 -6.72699 -5.65035 -13.4461 14
218 2 -5.11004 -8.61945 -12.5355 13
219 2 -5.20654 -10.6475 -5.54088 19
220 2 -6.68945 -7.85669 -5.33283 20
221 2 -6.97898 -5.66925 -8.07452 19
222 2 -5.08494 -8.70913 -8.11498 20
223 2 -5.43332 -10.6759 -0.172104 22
224 2 -6.50024 -7.70695 -0.10437 21
225 2 -6.94623 -5.68174 -2.97877 22
226 2 -4.67699 -8.83015 -2.87426 23
227 2 -5.19153 -4.77202 -10.5474 22
228 2 -6.35798 -1.62913 -11.0191 26
229 2 -6.47164 0.543571 -13.7787 21
230 2 -5.00387 -2.6522 -13.811 23
231 2 -4.88498 -4.39854 -5.72405 25
232 2 -6.92452 -1.62721 -5.35428 22
233 2 -6.74219 0.369372 -8.1993 24
234 2 -5.08417 -2.68428 -8.2166 23
235 2 -5.41436 -4.61528 -0.147647 22
236 2 -6.68424 -1.68558 -0.250257 22
237 2 -6.681 0.314056 -2.63132 22
238 2 -5.26521 -2.73505 -2.86801 24
239 2 3.28371 -10.7104 -14.1642 13
240 2 -3.15153 -11.7978 -12.7435 10
241 2 -1.76689 -16.2734 -5.66858 20
242 2 -1.88232 -14.1577 -8.90067 18
243 2 -3.05129 -11.6116 -7.34891 17
244 2 -3.22899 -16.551 -8.699 11
245 2 -1.89857 -16.4858 0.26188 17
246 2 -3.20904 -13.5269 -0.142295 22
247 2 -3.40207 -11.7407 -3.13728 22
248 2 -1.71777 -14.5636 -2.64111 23
249 2 -1.58368 -10.6318 -10.9761 17
250 2 -3.60585 -7.47969 -10.2237 18
251 2 -3.62616 -5.31029 -12.6526 19
252 2 -1.84291 -8.63596 -12.6298 15
253 2 -1.24006 -10.527 -5.71497 22
254 2 -3.50053 -7.47871 -5.52523 24
255 2 -3.34238 -5.43758 -8.26274 22
256 2 -1.80855 -8.50581 -8.43368 23
257 2 -2.33488 -10.5225 -0.578774 23
258 2 -3.02427 -7.59634 -0.15822 22
259 2 -3.77073 -5.87119 -2.51235 21
260 2 -1.67284 -8.42901 -3.20954 24
261 2 -1.59201 -4.55644 -11.1339 24
262 2 -3.43503 -1.84298 -11.1651 23
263 2 -3.08159 0.184405 -12.8351 20
264 2 -1.52643 -2.54434 -14.1463 21
265 2 -1.63175 -4.48806 -5.25975 20
266 2 -3.77339 -1.48804 -4.94456 20
267 2 -3.79566 0.555047 -8.34888 23
268 2 -2.08219 -2.9514 -8.26939 20
269 2 -1.79578 -4.55608 -0.352253 22
270 2 -2.91378 -1.85736 5.05467e-04 21
271 2 -3.19319 0.00273973 -2.3605 23
272 2 -2.15481 -3.11586 -3.15414 21
273 1 -15.9995 -8.07198 2.21429 12
274 1 -16.6537 -7.88261 -0.957287 12
275 1 -13.9736 -9.47493 4.47276 13
276 1 -17.0641 -0.291333 0.762282 10
277 1 -15.0935 -4.78071 2.94999 17
278 1 -15.5994 -6.68612 6.17705 9
279 1 -16.5808 -1.76834 3.20562 10
280 1 -16.4534 3.74452 3.00461 11
281 1 -14.6903 -3.04447 5.58593 13
282 1 -13.0301 -8.9073 7.07557 10
283 1 -13.9509 -9.75433 0.725594 15
284 1 -13.2561 -5.47418 0.517365 22
285 1 -11.4224 -8.52616 -0.372011 22
286 1 -11.7845 -10.5941 2.46239 15
287 1 -12.8948 -7.58818 1.97814 20
288 1 -13.2122 -6.09193 5.39344 18
289 1 -10.8205 -10.7774 5.41409 16
290 1 -11.0071 -11.7523 8.61393 9
291 1 -11.3429 -8.92296 10.8652 15
292 1 -9.79201 -5.93638 11.0947 18
293 1 -8.24738 -9.00335 10.7874 21
294 1 -13.669 0.0309076 0.453192 22
295 1 -11.9387 -2.68225 0.490023 22
296 1 -11.0887 -4.63346 2.97571 21
297 1 -13.2966 -1.87473 3.21955 23
298 1 -12.9766 -0.337097 6.00605 19
299 1 -11.282 -2.99908 5.86308 20
300 1 -11.7122 -4.89945 8.19048 13
301 1 -13.5242 -0.542401 9.76318 12
302 1 -13.4555 -2.10055 12.7419 6
303 1 -11.4774 -2.74968 10.7492 15
304 1 -10.3632 -11.3262 0.0195951 19
305 1 -10.3648 -13.7272 2.57959 10
306 1 -7.94588 -14.7667 4.92297 10
307 1 -12.4186 -9.26026 13.8802 7
308 1 -7.52538 -13.1759 8.07605 13
309 1 -10.0307 -5.39262 -0.0447195 21
310 1 -8.47392 -8.44895 0.101768 22
311 1 -8.43673 -10.5909 2.57484 23
312 1 -9.77095 -7.56037 2.36382 22
313 1 -9.98318 -5.7952 5.63031 21
314 1 -8.42483 -8.7202 5.44361 20
315 1 -8.64569 -10.4223 7.69336 20
316 1 -9.97724 -7.34823 8.2118 19
317 1 -11.744 -6.20993 12.9558 10
318 1 -9.3935 -9.22178 14.0064 13
319 1 -10.2529 0.292887 0.445842 22
320 1 -8.51732 -2.5526 0.375674 23
321 1 -8.33224 -4.84785 3.28682 22
322 1 -10.0584 -2.04689 3.08814 21
323 1 -9.8132 0.0219264 5.85855 24
324 1 -8.22701 -2.95389 5.63454 21
325 1 -7.96645 -4.77745 7.65313 19
326 1 -9.97647 -1.80511 8.42652 23
327 1 -9.87752 0.082011 10.9082 21
328 1 -8.26311 -2.68453 10.9904 21
329 1 -8.39362 -4.89654 13.5128 13
330 1 -9.87012 -1.88459 13.8455 14
331 1 -7.03194 -11.5739 -0.72574 20
332 1 -5.16303 -14.0161 0.0060969 18
333 1 -5.09352 -15.9716 3.41021 15
334 1 -7.05911 -13.5253 1.97723 19
335 1 -7.09149 -11.7607 4.97443 22
336 1 -1.6828 -14.3268 5.12582 19
337 1 -5.21881 -15.0501 9.65033 9
338 1 -3.51812 -11.3218 11.279 21
339 1 -7.00816 -5.76866 0.449163 23
340 1 -4.69364 -8.89179 0.125232 21
341 1 -5.28573 -10.8534 2.78561 23
342 1 -6.54597 -7.63155 2.95146 24
343 1 -6.27372 -6.13831 5.31751 22
344 1 -5.05988 -8.87645 5.4965 22
345 1 -5.0457 -10.9248 8.18039 23
346 1 -6.55941 -7.95162 7.77661 20
347 1 -6.69778 -5.78435 10.5581 20
348 1 -5.18479 -8.82942 10.6948 19
349 1 -6.82949 -11.8047 10.8403 16
350 1 -6.52799 -8.05396 13.467 12
351 1 -6.58552 0.0962169 0.483761 24
352 1 -5.01999 -2.81 0.485844 21
353 1 -5.03791 -4.90607 2.95834 23
354 1 -6.56885 -1.97316 3.17328 23
355 1 -6.40201 -0.299333 5.72368 21
356 1 -4.6582 -3.24949 5.99376 23
357 1 -4.94465 -4.90876 8.41167 21
358 1 -6.51266 -2.04191 8.24345 20
359 1 -6.73818 0.30646 11.1302 23
360 1 -5.02526 -2.89695 11.1808 20
361 1 -5.32875 -4.67437 13.6113 18
362 1 -6.9244 -1.58501 13.7151 20
363 1 -3.71103 -11.4907 0.285599 23
364 1 -1.81583 -14.3405 0.415412 26
365 1 -1.90344 -16.7079 3.45172 16
366 1 -3.55457 -13.4776 2.77578 24
367 1 -3.39568 -11.4305 5.54871 21
368 1 -2.60022 -16.0705 7.23132 11
369 1 -5.06331 -14.0539 6.07595 20
370 1 1.52531 -14.4359 5.37978 19
371 1 -9.96743 -11.5927 11.9938 11
372 1 -3.57435 -5.5585 0.1145 21
373 1 -1.49016 -8.85674 0.15379 22
374 1 -1.73968 -10.4633 3.32777 24
375 1 -3.62468 -7.75412 2.69805 21
376 1 -3.15781 -5.87425 5.68321 23
377 1 -1.81101 -8.45754 5.4364 21
378 1 -1.90083 -10.6866 8.25742 21
379 1 -3.7933 -7.7808 8.33263 23
380 1 -3.4093 -5.61226 10.9768 19
381 1 -1.6416 -8.66633 11.2838 21
382 1 -1.35984 -11.062 13.4905 11
383 1 -3.3379 -8.47578 14.0097 15
384 1 -3.27455 -0.130375 0.847247 24
385 1 -1.58819 -2.83732 0.406449 23
386 1 -1.64288 -4.80507 2.72112 21
387 1 -3.3044 -2.08112 3.31501 24
388 1 -2.9613 -0.197902 5.87333 24
389 1 -1.57333 -2.96803 5.76718 21
390 1 -1.42493 -4.96068 8.47415 23
391 1 -3.45718 -1.79709 8.39849 20
392 1 -3.35249 0.157457 11.4395 24
393 1 -1.67308 -2.90031 11.0218 22
394 1 -1.88146 -5.22984 13.333 19
395 1 -3.68318 -1.85931 13.3583 22
396 2 -16.288 -6.30538 2.4813 14
397 2 -15.7359 -8.6581 0.455847 12
398 2 -15.0386 -5.05808 5.43707 11
399 2 -15.2407 -2.96029 3.72311 13
400 2 -16.695 0.117065 2.57553 13
401 2 -14.2211 -8.92566 2.53463 13
402 2 -12.5038 -7.06299 6.87753 13
403 2 -15.5534 -8.17308 -2.45287 13
404 2 -14.4356 -8.28318 6.07279 9
405 2 -10.5221 -10.9372 10.2483 12
406 2 -13.2066 -5.63907 2.51108 21
407 2 -11.3907 -8.65113 2.32136 21
408 2 -12.0761 -8.20601 12.2527 11
409 2 -9.65733 -7.81137 10.1994 17
410 2 -11.7944 -4.88671 4.9878 21
411 2 -12.7641 -2.15656 5.21734 19
412 2 -13.743 -0.0591431 2.64798 23
413 2 -11.5866 -2.78906 2.42207 23
414 2 -11.4342 -3.07003 7.81191 20
415 2 -13.3109 -2.05848 10.8118 9
416 2 -13.3266 4.16003 5.00812 21
417 2 -13.2508 0.00161346 7.78965 17
418 2 -11.3169 -4.72048 10.2315 14
419 2 -7.28178 -13.1673 5.97835 16
420 2 -10.2032 -11.7015 1.93467 16
421 2 -12.3215 -10.5568 4.29675 11
422 2 -8.40144 -8.44278 7.42438 21
423 2 -8.993 -10.3617 4.74511 19
424 2 -9.7222 -7.35947 4.63844 20
425 2 -9.68325 -5.70453 2.11886 24
426 2 -8.05477 -8.73594 2.1136 21
427 2 -11.0138 -8.27161 14.6274 8
428 2 -6.87866 -11.1333 8.3703 18
429 2 -9.93724 -5.441 7.35364 19
430 2 -9.12654 -12.3112 7.97565 13
431 2 -9.99812 -5.6408 13.1098 14
432 2 -8.11452 -8.8833 12.77 17
433 2 -7.95695 -4.94851 5.28829 24
434 2 -9.59236 -1.62536 4.94833 24
435 2 -10.0497 -0.0737972 2.43722 22
436 2 -8.11279 -2.9015 2.24861 25
437 2 -7.99272 -4.62968 11.0822 19
438 2 -9.99155 -1.59563 10.3826 21
439 2 -9.8249 0.172604 8.10691 20
440 2 -8.30279 -2.74775 7.62717 21
441 2 -9.67685 -0.016109 14.0381 13
442 2 -8.35294 -2.89121 13.4427 15
443 2 -8.47689 -14.2926 3.18869 13
444 2 -4.35778 -14.9316 7.67059 14
445 2 -6.89915 -11.8026 2.84932 21
446 2 -5.17986 -14.446 1.97342 18
447 2 -11.1103 -10.5153 13.0708 10
448 2 -8.07335 -12.0878 11.9853 10
449 2 -6.1 -15.6227 4.88772 13
450 2 -5.36237 -10.7999 4.99766 22
451 2 -6.78893 -7.90122 4.75585 25
452 2 -6.62137 -5.74084 2.64363 22
453 2 -5.1884 -8.80138 2.2383 23
454 2 -2.06135 -10.462 10.2283 22
455 2 -6.83488 -7.94243 9.86748 23
456 2 -6.53288 -6.09603 7.54589 23
457 2 -4.92067 -9.07271 7.54602 22
458 2 -6.9759 -6.24628 13.8441 15
459 2 -4.8642 -8.11116 12.5183 18
460 2 -4.67744 -4.89104 5.16033 22
461 2 -6.2181 -2.04156 5.09386 23
462 2 -6.52313 0.0148201 2.46548 23
463 2 -4.99182 -2.6677 2.3687 23
464 2 -5.07107 -4.81818 10.5597 21
465 2 -6.5148 -1.71508 10.8293 22
466 2 -6.33535 -0.344329 7.74783 23
467 2 -4.7065 -3.07898 7.83568 23
468 2 -4.26555 -4.0412 15.3476 15
469 2 -6.10833 -0.927466 16.0375 15
470 2 -6.6196 0.27125 13.2069 23
471 2 -5.31438 -2.68741 13.1376 22
472 2 -2.5104 -15.9873 5.15463 14
473 2 -3.53194 -13.3576 4.83777 25
474 2 -3.37491 -11.5834 2.28174 24
475 2 -1.66483 -14.3091 2.20373 23
476 2 -5.28102 -10.6151 10.5942 16
477 2 -3.41208 -11.6383 7.4353 22
478 2 -1.34713 -14.6152 7.36768 17
479 2 -2.23538 -12.5811 12.5626 10
480 2 -1.71199 -10.474 5.20978 20
481 2 -3.54056 -7.84872 4.69202 24
482 2 -3.13139 -5.79147 2.46906 22
483 2 -1.87055 -8.87146 2.28231 22
484 2 -6.47747 -13.4797 9.68227 14
485 2 -3.18104 -7.70505 10.196 23
486 2 -3.28472 -5.72655 7.70124 24
487 2 -1.88898 -8.74209 7.62992 22
488 2 -3.15086 -7.48272 15.5162 11
489 2 -3.67227 -5.24697 13.0331 22
490 2 -1.66367 -9.07179 13.1556 18
491 2 -1.56533 -4.68343 5.15013 22
492 2 -3.22525 -2.02028 5.26538 23
493 2 -3.36062 0.26779 2.61 24
494 2 -1.27466 -2.90316 2.58695 22
495 2 -1.48422 -4.90436 10.3525 22
496 2 -1.83627 -2.57207 13.1371 21
497 2 -3.10688 0.124687 8.14538 20
498 2 -1.83274 -2.89516 7.91318 21
499 2 -1.45834 -5.11611 15.2574 17
500 2 -2.94985 -1.70916 15.883 16
501 2 -1.54819 1.03982 10.7672 20
502 2 -1.46203 0.88781 15.7669 17
503 1 -11.3627 3.56852 -10.1493 24
504 1 -14.7512 1.29413 -7.38623 16
505 1 -14.143 3.00528 -12.1703 10
506 1 -14.9821 3.41937 -4.78935 18
507 1 -15.5763 1.23991 -2.44978 14
508 1 -15.6681 4.33815 -8.90661 12
509 1 -13.383 9.68358 -7.78679 11
510 1 -16.8586 5.63837 -5.67668 10
511 1 -15.2513 7.02704 -2.58181 15
512 1 -9.8201 -2.22328 -12.2801 20
513 1 -11.7421 6.87859 -7.46583 24
514 1 -13.2344 6.18682 -10.2247 16
515 1 -11.2919 1.2013 -7.43914 23
516 1 -12.9962 4.2714 -7.36658 21
517 1 -13.3849 6.0445 -4.66327 20
518 1 -11.8266 3.03783 -4.93299 21
519 1 -12.0961 1.53564 -2.08225 23
520 1 -13.2511 4.03657 -2.04529 23
521 1 -14.9118 7.02032 -7.17196 13
522 1 -10.1612 9.76848 -7.18972 20
523 1 -11.1385 9.27203 -10.3609 13
524 1 -13.0276 11.823 -4.91226 11
525 1 -11.5067 8.9722 -4.67899 20
526 1 -11.6894 7.05599 -2.06338 23
527 1 -13.4549 10.2696 -2.15498 15
528 1 -11.5479 13.0325 -1.8754 15
529 1 -7.53261 3.94855 -14.8909 12
530 1 -8.74359 0.884591 -12.7122 20
531 1 -12.036 0.403672 -11.6247 15
532 1 -9.87785 6.31599 -10.3349 18
533 1 -7.86707 3.37133 -10.4155 22
534 1 -8.14694 0.947757 -6.985 20
535 1 -9.91401 3.96579 -7.45959 21
536 1 -9.9381 6.1287 -4.79454 21
537 1 -8.09876 3.3256 -4.47799 24
538 1 -8.39906 1.25387 -2.06538 24
539 1 -9.89197 4.17002 -2.19686 21
540 1 -10.0717 3.44115 -12.8486 12
541 1 -5.93326 10.1287 -12.4208 12
542 1 -8.62898 6.77257 -7.53424 24
543 1 -9.59091 12.1984 -10.0418 11
544 1 -10.0392 11.5241 -4.77259 22
545 1 -8.17169 8.87891 -4.6635 23
546 1 -8.43874 6.85358 -1.96464 24
547 1 -10.1428 9.86262 -1.88093 23
548 1 -10.8649 13.4395 -6.91879 11
549 1 -9.76694 14.5719 -4.53134 15
550 1 -8.16615 12.4233 -2.21839 20
551 1 -4.78824 3.70688 -15.7767 13
552 1 -11.6458 -5.71957 -12.7358 11
553 1 -4.93043 1.7185 -12.8603 23
554 1 -6.46833 7.16369 -14.5127 8
555 1 -6.26823 6.1504 -9.99237 19
556 1 -4.53686 2.93623 -10.0555 21
557 1 -5.05041 1.30357 -7.25157 24
558 1 -6.62492 3.90949 -7.50756 23
559 1 -6.84106 6.3794 -4.60625 23
560 1 -4.79508 3.44045 -4.41192 22
561 1 -5.03511 1.14507 -2.02259 22
562 1 -6.62209 4.07796 -1.65118 26
563 1 -3.91853 7.6551 -13.0304 18
564 1 -1.27444 8.49519 -15.2535 14
565 1 -6.2286 12.0643 -10.0123 17
566 1 -4.74496 9.15905 -9.93329 20
567 1 -4.67349 7.09263 -7.25491 24
568 1 -6.43585 9.77461 -7.07767 23
569 1 -6.79167 11.976 -4.80632 22
570 1 -4.77819 8.85715 -4.66672 23
571 1 -4.87722 7.19305 -2.08075 23
572 1 -6.70152 9.85773 -2.31924 23
573 1 -4.72981 12.7959 -7.03518 23
574 1 -5.66628 14.6984 -9.36502 12
575 1 -8.15682 13.0321 -7.60995 18
576 1 -4.78573 12.9148 -2.38868 22
577 1 -6.6727 15.9234 -2.88349 13
578 1 -5.45922 4.84669 -12.7345 21
579 1 -1.43448 3.12818 -15.6402 16
580 1 -1.31364 1.33604 -12.6594 23
581 1 -2.92218 4.38785 -12.81 21
582 1 -3.11564 6.01623 -9.73601 24
583 1 -1.35868 2.99416 -10.3033 23
584 1 -1.3706 1.04103 -7.61503 22
585 1 -3.0832 4.19941 -7.63523 21
586 1 -3.37685 5.85648 -4.92955 21
587 1 -1.64638 2.76767 -4.62253 22
588 1 -1.55508 1.05737 -2.11732 23
589 1 -3.45932 3.88783 -1.96872 24
590 1 2.2132 8.75182 -15.2182 9
591 1 -0.83893 7.81274 -12.2057 18
592 1 -2.60054 10.5612 -13.4144 14
593 1 -8.01843 9.25028 -9.6209 20
594 1 -1.80366 8.81078 -9.7132 20
595 1 -1.08334 6.8015 -7.30154 23
596 1 -2.81458 9.79208 -7.30972 19
597 1 -3.03669 11.8809 -4.75428 22
598 1 -1.34402 8.79303 -4.61764 21
599 1 -1.36827 6.68471 -2.34129 21
600 1 -3.46164 9.98375 -2.14811 25
601 1 0.633224 10.1106 -12.8784 18
602 1 -7.61291 15.7963 -6.33234 9
603 1 -1.26719 12.5213 -7.48683 21
604 1 -3.20935 11.8782 -10.4988 20
605 1 -3.46221 15.8438 -1.67761 16
606 1 -4.9242 14.662 -4.89105 17
607 1 -1.81443 12.6226 -2.03443 25
608 1 -1.63318 14.7547 0.364078 20
609 2 -14.4479 -0.401281 -8.45149 14
610 2 -13.5881 1.27055 -11.6303 11
611 2 -14.7834 1.38743 -5.45923 15
612 2 -13.4438 3.75176 -0.177101 20
613 2 -16.1418 5.56235 -7.43547 13
614 2 -14.2022 2.8332 -8.41296 19
615 2 -15.3255 3.06266 -2.80324 17
616 2 -14.8666 8.67216 -8.65736 8
617 2 -14.7734 9.01413 -1.93359 12
618 2 -17.048 3.81039 -4.83978 10
619 2 -13.3897 5.94794 -7.81646 19
620 2 -10.6691 1.67647 -12.4778 16
621 2 -8.46365 -0.979732 -13.1941 20
622 2 -11.7932 0.726936 -5.28137 20
623 2 -13.2868 3.9079 -5.62651 25
624 2 -15.2312 4.02466 -10.8027 9
625 2 -11.6658 3.10224 -8.15705 20
626 2 -11.9132 0.930459 -0.138734 22
627 2 -13.5368 6.02472 -2.66705 17
628 2 -15.2954 6.76335 -5.0442 12
629 2 -11.6344 3.31075 -3.10817 25
630 2 -11.4894 7.15656 -10.6092 12
631 2 -11.7654 7.12994 -5.35042 22
632 2 -12.8972 11.9572 -2.92207 14
633 2 -11.6101 8.94836 -8.37448 19
634 2 -11.9489 6.90414 -0.122656 22
635 2 -13.6214 9.8236 0.419672 14
636 2 -11.5125 13.0998 -5.16235 13
637 2 -11.6858 8.94282 -2.62794 22
638 2 -12.4512 10.2379 -6.14233 15
639 2 -12.1454 12.2032 -0.193811 14
640 2 -8.29963 1.56945 -10.5875 22
641 2 -9.73444 4.23721 -11.0556 17
642 2 -12.9323 4.4702 -11.1687 16
643 2 -11.436 -1.35259 -12.3336 15
644 2 -8.2769 1.36549 -4.9464 22
645 2 -9.83531 4.2587 -5.35797 22
646 2 -10.5008 5.7363 -8.22167 19
647 2 -8.37162 2.85149 -7.80827 23
648 2 -8.93239 1.57313 0.0301058 21
649 2 -10.0661 4.20049 -0.163122 25
650 2 -9.93122 5.92313 -2.79376 24
651 2 -8.11473 3.20181 -2.49093 21
652 2 -5.67694 8.40801 -13.3261 12
653 2 -9.51558 10.1571 -10.7728 14
654 2 -7.06611 5.36444 -13.6886 15
655 2 -8.53056 7.13254 -5.54463 23
656 2 -9.75962 9.53188 -5.26052 22
657 2 -10.186 12.0998 -8.09781 17
658 2 -8.35166 9.23194 -7.61675 18
659 2 -8.47725 7.23755 -0.202253 23
660 2 -10.1837 9.73456 0.192786 20
661 2 -9.94504 11.4465 -2.70197 23
662 2 -8.27854 8.92725 -2.2907 21
663 2 -8.54005 12.7875 -4.89474 20
664 2 -8.27161 12.7119 -0.0927507 21
665 2 -6.93737 15.608 -4.64654 13
666 2 -4.91949 1.3779 -11.0286 22
667 2 -6.07806 4.29763 -10.6446 20
668 2 -8.09934 7.34003 -9.89862 16
669 2 -4.38017 3.41431 -13.83 21
670 2 -5.10531 1.38936 -5.26752 22
671 2 -6.57373 4.33396 -5.18879 22
672 2 -6.98987 5.82583 -8.19354 21
673 2 -4.78748 3.28918 -8.01135 22
674 2 -5.07574 1.3438 0.0498469 23
675 2 -6.60651 4.18544 0.268449 19
676 2 -6.55853 6.2738 -2.62893 25
677 2 -5.11822 3.27212 -2.36012 19
678 2 -4.58362 7.0427 -10.5825 20
679 2 -6.57993 9.81884 -10.8298 19
680 2 -2.21951 8.7956 -13.423 16
681 2 -5.02569 6.86339 -5.38101 22
682 2 -6.48755 9.98795 -5.24923 22
683 2 -6.38311 11.6474 -7.93156 21
684 2 -5.17476 8.69117 -7.75987 22
685 2 -4.78429 7.12437 -0.156929 22
686 2 -6.53212 9.83316 -0.16842 25
687 2 -6.38119 11.8772 -2.53357 18
688 2 -5.02887 8.99074 -2.64234 20
689 2 -7.74843 12.8636 -9.61644 12
690 2 -4.81591 12.6477 -5.00829 21
691 2 -9.24632 14.8935 -6.40452 11
692 2 -4.09512 10.8084 -11.8503 14
693 2 -4.7546 13.0882 -0.426896 22
694 2 -9.80458 14.1846 -2.64704 15
695 2 -4.92068 14.9728 -2.66742 16
696 2 -1.53751 1.00158 -10.5463 20
697 2 -2.80662 4.21021 -10.6301 22
698 2 -3.78397 5.95236 -13.5586 18
699 2 -1.3331 3.01326 -13.7531 21
700 2 -1.54601 0.927426 -5.49186 22
701 2 -3.07126 3.85214 -5.77343 24
702 2 -3.15148 6.11271 -7.68074 20
703 2 -1.38843 3.09291 -8.46341 22
704 2 -1.64882 1.00504 0.0214404 23
705 2 -3.15023 4.003 0.0678018 21
706 2 -3.40081 6.11237 -2.77874 24
707 2 -1.93534 2.79686 -2.65147 22
708 2 -1.31463 6.88402 -10.5094 20
709 2 -3.34645 10.1698 -9.24385 20
710 2 2.33084 9.23233 -13.2072 16
711 2 0.0127588 9.5215 -10.9071 23
712 2 -1.50643 6.91731 -4.82817 20
713 2 -2.98582 9.78045 -5.41312 23
714 2 -2.9438 11.7781 -6.96776 19
715 2 -0.848245 8.66949 -8.11344 23
716 2 -1.79011 6.96618 -0.210256 22
717 2 -3.193 9.95155 -0.127409 23
718 2 -3.41919 11.719 -2.78476 23
719 2 -1.95158 8.91806 -2.66268 21
720 2 -1.63353 12.7603 -10.8714 14
721 2 -1.01168 13.2592 -5.51305 21
722 2 -6.59776 14.3384 -7.59805 16
723 2 -1.05164 11.6421 -13.3516 12
724 2 -1.77335 12.952 0.149739 22
725 2 1.25275 16.5371 -1.50594 10
726 2 2.00942 14.2643 -2.95697 19
727 2 0.148661 16.3213 -4.52092 15
728 1 -16.3833 5.6232 0.226936 13
729 1 -17.4015 3.9681 -3.03601 8
730 1 -15.1267 1.04904 3.62145 17
731 1 -15.1271 2.57166 0.403755 20
732 1 -15.1462 5.14431 6.19697 13
733 1 -13.366 3.53566 8.54311 16
734 1 -15.2598 8.91487 0.123218 13
735 1 -15.1414 6.37628 2.74873 16
736 1 -14.7411 8.44553 5.6031 12
737 1 -13.3367 5.58612 0.455792 23
738 1 -11.6318 2.88365 0.262478 21
739 1 -11.7784 0.764531 2.84753 22
740 1 -13.4421 3.88957 3.01977 19
741 1 -12.488 5.74833 6.84701 17
742 1 -11.7813 2.6525 5.3701 20
743 1 -11.5101 1.15707 8.29303 20
744 1 -15.4755 1.96615 6.49148 10
745 1 -12.666 5.4285 10.9757 11
746 1 -12.1754 2.23353 11.2342 13
747 1 -7.27581 4.19925 13.9674 16
748 1 -13.5776 11.7807 0.937284 13
749 1 -11.8344 8.74056 0.681302 25
750 1 -12.0442 6.78993 3.85358 22
751 1 -13.6146 9.41516 3.2009 16
752 1 -11.7102 9.35761 6.13357 20
753 1 -11.9767 9.10379 9.6012 8
754 1 -10.0506 7.14949 12.5313 12
755 1 -13.3599 11.8089 4.80124 10
756 1 -10.1197 6.13028 0.454254 21
757 1 -8.43162 3.23595 0.705628 22
758 1 -8.2033 0.802036 3.2713 23
759 1 -10.1875 3.94857 3.02674 20
760 1 -9.70422 6.01927 5.49253 20
761 1 -7.97096 2.86484 5.63413 23
762 1 -8.2008 0.877653 8.14067 21
763 1 -9.80125 3.78246 7.87958 20
764 1 -10.3323 6.41261 9.40887 17
765 1 -8.55329 2.86747 11.1937 20
766 1 -8.29911 1.17144 13.6504 22
767 1 -10.757 3.87062 13.2218 14
768 1 -10.3417 11.5222 0.577865 17
769 1 -8.2075 9.13395 0.3376 21
770 1 -8.22923 6.78032 3.18403 21
771 1 -9.95442 9.97774 3.15323 18
772 1 -10.6561 12.9944 7.06884 11
773 1 -8.12177 8.76063 5.421 18
774 1 -7.71318 7.02396 7.87199 21
775 1 -9.49889 10.0904 7.33253 17
776 1 -8.38937 8.72959 10.6766 18
777 1 -6.77667 7.85748 13.2241 14
778 1 -8.7618 15.0704 -0.957261 9
779 1 -7.99705 12.8157 2.05287 15
780 1 -10.6118 12.9257 3.75903 12
781 1 -5.61215 14.2652 11.3268 7
782 1 -6.54495 6.1308 0.293177 20
783 1 -4.96921 3.22567 0.906032 23
784 1 -5.05882 0.958782 3.37225 26
785 1 -6.51145 3.8277 3.48764 25
786 1 -6.63857 5.85185 5.43963 21
787 1 -4.72967 2.9131 5.83177 23
788 1 -4.94732 1.0681 8.58443 22
789 1 -6.69838 3.86767 8.55377 24
790 1 -7.14205 5.84279 10.6296 20
791 1 -5.03634 3.1527 11.0855 24
792 1 -5.05576 1.57291 13.814 24
793 1 -9.32843 3.16701 16.1257 10
794 1 -6.29335 11.621 0.341608 18
795 1 -4.92573 9.01641 0.432454 22
796 1 -5.05985 7.06077 3.0269 22
797 1 -6.64476 9.72694 3.19827 23
798 1 -6.3468 11.5324 5.83726 18
799 1 -4.62512 8.70606 5.6089 21
800 1 -4.8577 6.88284 8.36195 22
801 1 -6.37512 9.67514 8.38752 21
802 1 -6.15447 11.0495 11.8732 16
803 1 -4.91838 8.39553 11.0285 20
804 1 -4.90998 5.29417 13.8536 16
805 1 -7.69864 12.0974 9.12073 13
806 1 -5.58975 14.8722 0.2619 16
807 1 -5.06429 12.5319 3.28385 20
808 1 -8.85025 15.2362 5.03183 7
809 1 -2.77468 15.4603 8.50787 10
810 1 -4.50499 12.5634 8.59808 21
811 1 -3.18119 6.37443 0.762989 23
812 1 -1.73235 2.87324 0.630125 20
813 1 -1.65198 0.886168 3.32288 23
814 1 -3.20229 4.177 3.21046 25
815 1 -3.41601 5.74457 5.92418 23
816 1 -1.52746 2.76409 5.84595 24
817 1 -1.2487 0.731431 8.31783 21
818 1 -3.10167 3.72475 8.49541 22
819 1 -2.95651 5.62222 10.9829 18
820 1 -1.48247 2.98332 11.2593 22
821 1 -1.52951 0.617295 13.6042 23
822 1 -3.06077 3.56831 14.0387 21
823 1 -3.47965 11.8828 0.414201 22
824 1 -1.50844 8.82202 0.0395964 19
825 1 -1.67449 7.13313 3.03519 21
826 1 -3.12421 9.81481 2.75446 23
827 1 -2.99196 11.722 5.63073 24
828 1 -1.70452 8.64244 5.50062 21
829 1 -1.47652 6.54364 7.85279 19
830 1 -3.11937 9.72176 8.29645 20
831 1 -3.5165 11.4281 11.3619 20
832 1 -1.4943 8.79238 10.999 17
833 1 -1.65417 6.76177 13.4947 12
834 1 -3.91919 9.66512 13.7302 12
835 1 3.11157 15.9946 -7.42273 11
836 1 -3.21293 15.5817 2.42188 13
837 1 -1.89218 12.9712 3.21475 22
838 1 -4.97516 14.7061 5.29135 13
839 1 -1.465 14.9199 5.8248 18
840 1 -1.47336 12.444 9.11538 17
841 1 2.68499 13.4628 11.5564 11
842 1 -1.57243 12.2167 13.4518 8
843 2 -15.0656 0.520429 5.45117 15
844 2 -16.2592 4.06806 1.15026 13
845 2 -16.7301 4.97613 -1.54533 12
846 2 -14.8463 2.73577 2.44504 20
847 2 -11.7009 0.545388 10.3192 16
848 2 -14.1233 6.80261 6.63057 13
849 2 -15.0161 0.841328 -0.458103 18
850 2 -14.7061 7.87151 3.91955 14
851 2 -11.5234 0.708285 5.21818 22
852 2 -13.1796 6.22732 2.38398 21
853 2 -15.492 7.23022 1.07716 15
854 2 -11.9525 2.7724 2.46856 23
855 2 -11.6339 -2.18902 13.3769 10
856 2 -15.7445 5.18154 4.16789 14
857 2 -14.6934 3.57043 7.27506 13