ITEM: TIMESTEP
69000
ITEM: NUMBER OF ATOMS
5760
ITEM: BOX BOUNDS pp pp pp
-0.159310162 32.959310162
-0.1380329617 34.2780329617
0.5372854604 63.0627145396
ITEM: ATOMS id type x y z Coordination
1 1 32.6717 5.56767 62.8601 22
2 1 1.338 2.96772 62.6792 24
3 1 5.00112 0.708918 3.43479 23
4 1 29.4671 11.147 6.14137 25
5 1 32.8819 9.42412 8.50536 23
6 1 31.1245 2.49058 6.05637 23
7 1 3.14116 3.64149 8.4466 20
8 1 2.75604 3.61739 3.47285 23
9 1 32.9179 9.21803 13.9288 25
10 1 6.49369 34.251 6.21436 24
11 1 4.15851 8.66212 6.22451 23
12 1 4.27342 6.17529 14.3088 24
13 1 32.6794 11.3509 1.03994 25
14 1 1.10081 8.40476 1.09663 22
15 1 2.75103 5.61324 5.72708 23
16 1 32.772 11.1904 5.8253 25
17 1 27.8555 12.3842 8.63697 23
18 1 32.7029 9.33623 3.30912 23
19 1 3.00157 15.2113 3.26172 22
20 1 26.5105 9.40589 14.2402 22
21 1 1.19482 14.2076 11.3645 23
22 1 32.7535 15.3576 8.63774 21
23 1 31.3965 17.8267 24.3596 23
24 1 31.2392 8.13749 10.9643 21
25 1 32.9763 17.729 0.937482 21
26 1 1.33071 14.1212 0.806863 22
27 1 0.882833 12.1995 3.52326 23
28 1 33.0029 14.9543 3.23615 23
29 1 31.1761 17.7792 3.13514 21
30 1 31.3679 13.9478 6.05216 22
31 1 4.47564 12.2707 8.80195 25
32 1 3.14947 17.1325 6.00116 21
33 1 9.60207 28.1142 16.0991 21
34 1 2.9718 20.798 8.90516 25
35 1 1.51047 14.1001 5.98652 22
36 1 3.14142 14.8082 19.1588 25
37 1 2.98192 5.39862 0.768682 22
38 1 4.52738 2.49517 0.902435 23
39 1 8.41402 0.683621 3.63792 23
40 1 5.8952 5.65938 6.21183 22
41 1 1.28841 2.58191 6.29674 26
42 1 2.97703 -0.323218 6.05478 22
43 1 7.82955 2.79703 6.20735 24
44 1 4.60966 6.44278 8.68815 24
45 1 3.00691 11.0747 16.6413 25
46 1 27.6742 6.07979 19.2863 25
47 1 4.56582 8.3306 11.3145 24
48 1 1.39285 2.65066 16.3598 24
49 1 2.84928 11.3664 0.845941 22
50 1 5.01113 8.3816 0.751055 22
51 1 3.14074 9.28708 3.4096 22
52 1 4.59751 2.63018 5.72533 20
53 1 9.53262 5.43207 6.1362 22
54 1 0.881231 8.1452 6.04105 22
55 1 9.27753 9.15009 8.63621 22
56 1 1.16595 17.8681 8.82363 24
57 1 5.76665 9.44128 8.65512 22
58 1 11.0919 6.484 13.9698 22
59 1 0.0424243 3.53148 13.4641 20
60 1 7.85234 6.63697 14.0727 24
61 1 3.09784 16.9415 0.962263 21
62 1 4.83093 14.0052 0.995692 24
63 1 2.73625 10.9321 6.00295 23
64 1 4.51994 12.239 3.77927 23
65 1 6.16076 11.3591 6.40179 23
66 1 4.60393 14.455 6.06279 21
67 1 7.95373 14.1233 10.8458 21
68 1 8.38056 17.7079 13.7564 23
69 1 6.28229 20.8439 3.17062 23
70 1 11.1383 8.21294 16.9216 24
71 1 6.09035 9.09131 13.6566 23
72 1 2.88332 15.0082 14.0799 22
73 1 6.36709 5.47953 0.511341 20
74 1 7.952 2.52527 1.0522 24
75 1 6.44594 3.62831 3.22396 22
76 1 4.8635 6.55805 3.33992 21
77 1 9.50858 11.3158 10.9672 22
78 1 8.39299 31.4368 6.10507 24
79 1 11.4301 2.80852 11.4237 23
80 1 6.54688 3.877 13.6377 22
81 1 13.2688 16.7264 11.034 21
82 1 7.09404 5.21448 16.563 25
83 1 4.60271 0.525944 13.7124 23
84 1 1.19933 14.0044 16.2903 21
85 1 6.18555 11.2222 1.14354 25
86 1 7.86348 8.38772 1.03492 22
87 1 7.81661 6.42102 3.46128 22
88 1 6.30382 9.58769 3.75964 25
89 1 14.3145 6.58986 3.6287 22
90 1 14.7653 2.2592 6.54575 22
91 1 11.5314 11.9191 8.54642 22
92 1 11.1762 8.08939 6.0793 22
93 1 8.32772 19.8064 11.267 23
94 1 2.89712 5.5849 11.5375 23
95 1 4.8391 8.13445 16.296 23
96 1 3.18502 11.3403 11.4637 22
97 1 6.19025 14.9836 3.45718 21
98 1 8.23732 14.04 0.976845 21
99 1 7.72454 12.2264 3.92952 25
100 1 13.1028 9.61026 8.92681 23
101 1 4.66158 20.0041 6.26438 23
102 1 11.4973 18.325 3.49112 23
103 1 11.0849 12.0083 3.56718 21
104 1 9.90904 15.304 3.45821 20
105 1 7.99774 20.1339 6.36447 22
106 1 9.86616 9.21964 13.9291 23
107 1 12.4985 9.6146 3.41357 21
108 1 16.238 14.9402 13.8411 23
109 1 9.74346 5.67631 1.03258 22
110 1 11.1906 2.49142 62.9435 21
111 1 6.39394 32.3688 8.51203 21
112 1 14.7467 6.52048 8.84686 22
113 1 3.02108 3.15601 13.8525 22
114 1 11.396 2.79166 6.25624 23
115 1 16.5796 3.416 14.214 21
116 1 16.1948 5.39744 11.5707 23
117 1 6.56525 3.03527 19.1104 24
118 1 16.4531 34.0966 5.96476 24
119 1 19.6349 3.66261 19.03 24
120 1 12.9544 3.48224 8.99241 22
121 1 9.26231 11.3894 1.2364 23
122 1 11.1798 6.77267 3.36204 22
123 1 12.6955 3.70265 3.04412 23
124 1 9.3241 9.31169 3.81192 22
125 1 17.8966 8.56829 5.91826 22
126 1 4.76297 11.8066 14.0183 21
127 1 11.0904 2.40786 16.6533 23
128 1 13.491 5.19196 6.05814 22
129 1 13.1671 5.53654 17.1996 26
130 1 11.3857 8.54198 21.7176 21
131 1 18.1076 6.00135 13.906 22
132 1 19.8039 9.3071 13.9388 23
133 1 10.0472 17.1072 0.886982 22
134 1 11.5588 14.0529 0.840579 21
135 1 14.7908 12.3078 3.17762 21
136 1 9.77986 17.1759 6.23553 20
137 1 12.7805 17.0082 6.19747 24
138 1 13.296 14.906 8.65954 23
139 1 14.7972 13.9962 5.7216 22
140 1 9.56674 11.0188 6.0603 21
141 1 8.08686 14.4554 6.25284 20
142 1 11.7099 13.6213 11.4909 23
143 1 7.71443 12.0331 8.91375 23
144 1 13.22 20.9312 13.9848 23
145 1 12.7759 5.30047 0.621184 21
146 1 14.8043 3.05909 1.08853 22
147 1 14.5414 0.697259 3.48915 24
148 1 11.3381 0.35246 3.3108 23
149 1 15.8767 3.76009 3.75207 23
150 1 14.7004 29.1219 3.24957 23
151 1 16.2166 3.53174 8.76078 23
152 1 14.5181 3.06374 11.5444 24
153 1 13.004 11.2653 5.93687 19
154 1 22.8132 34.4612 11.3667 22
155 1 11.3206 0.819105 13.7351 22
156 1 20.0217 4.09069 14.114 21
157 1 12.6815 11.6574 0.974712 21
158 1 14.6178 8.98458 1.01523 24
159 1 17.8425 6.4741 3.89833 24
160 1 11.2967 8.73606 0.595919 21
161 1 16.5383 9.49669 8.5833 23
162 1 18.1217 6.70429 8.88509 24
163 1 22.9154 9.37268 8.49468 20
164 1 14.5522 8.37176 6.36131 24
165 1 9.36742 5.49807 10.7926 22
166 1 29.5647 34.2346 11.0425 23
167 1 18.1341 8.59776 11.2207 22
168 1 14.8892 12.7388 8.6218 22
169 1 13.2439 17.0435 1.02691 22
170 1 14.8901 14.1132 1.03943 22
171 1 16.0814 14.8054 19.0604 24
172 1 18.0241 12.0564 3.71322 23
173 1 9.95541 14.8232 8.69094 22
174 1 16.1403 15.2785 3.32812 23
175 1 17.961 20.1243 11.4796 22
176 1 11.3636 13.7051 6.08324 21
177 1 7.57561 8.59811 6.23499 23
178 1 9.74297 20.6473 8.64645 24
179 1 11.295 6.30453 8.25014 21
180 1 11.4469 0.534775 8.93841 23
181 2 3.16224 -0.217899 3.14138 22
182 2 29.4862 3.27083 5.31824 22
183 2 31.0631 6.23655 4.9304 25
184 2 2.87872 5.61714 7.9986 23
185 2 31.2749 0.704243 15.7118 25
186 2 1.25686 12.3257 10.7245 24
187 2 4.87951 14.2884 13.927 20
188 2 32.9613 -0.0564524 2.46602 20
189 2 -0.0275628 26.5979 10.4484 24
190 2 4.77384 31.2715 8.08222 24
191 2 29.919 11.3941 13.1071 22
192 2 31.4651 31.1235 13.2529 24
193 2 1.34997 8.73292 2.89325 19
194 2 29.6086 5.35219 2.51021 22
195 2 1.41945 13.9077 2.9975 22
196 2 2.97908 11.4622 2.98843 23
197 2 6.43178 9.0342 15.7868 23
198 2 31.0556 2.70481 7.95134 24
199 2 0.347243 22.7266 7.79704 23
200 2 6.45511 5.44788 8.31054 23
201 2 1.41364 31.6848 18.9713 20
202 2 3.17109 8.94693 21.2263 22
203 2 31.1324 17.8228 10.4391 23
204 2 4.64059 6.5271 10.5733 24
205 2 9.6839 9.21974 10.6618 22
206 2 32.8455 15.0118 5.40753 25
207 2 29.5067 17.1015 2.35956 24
208 2 -0.116295 3.54167 15.546 26
209 2 4.52139 14.1759 3.00867 23
210 2 3.33161 16.9325 8.3621 22
211 2 29.1788 26.5369 5.30883 25
212 2 11.3629 23.7486 5.49284 22
213 2 6.37087 22.6141 18.4675 23
214 2 8.80876 23.7164 20.8825 19
215 2 8.43221 17.9295 10.6083 25
216 2 10.1403 14.9547 21.0249 22
217 2 16.1137 -0.0204696 8.04475 22
218 2 8.07914 31.8457 8.04464 23
219 2 26.2305 9.74117 5.31378 22
220 2 32.9255 32.2866 5.32683 22
221 2 1.50392 25.1803 7.81065 22
222 2 28.1682 11.9619 15.8943 22
223 2 4.31184 6.70664 5.52628 23
224 2 3.16596 3.48378 10.522 23
225 2 30.8825 25.3379 18.6743 21
226 2 11.4229 0.638188 21.1146 20
227 2 31.148 0.653881 10.7706 24
228 2 7.9466 0.157289 16.0205 21
229 2 0.920425 6.38152 5.10845 24
230 2 1.33224 2.37286 8.27854 21
231 2 31.4719 18.1059 5.05859 24
232 2 7.62572 8.58316 3.26666 23
233 2 2.9381 11.1985 8.07318 24
234 2 1.53767 8.47356 7.72102 25
235 2 8.13429 18.0341 6.29364 20
236 2 11.4474 11.8675 10.7459 20
237 2 3.36881 32.526 10.8136 23
238 2 5.1956 6.17863 15.9893 22
239 2 26.1864 9.44863 11.164 20
240 2 7.6791 6.81597 10.929 23
241 2 6.32593 15.1637 5.79132 22
242 2 8.15966 24.3551 5.75894 22
243 2 1.41228 20.1393 3.33873 20
244 2 3.24035 17.2672 3.30422 22
245 2 4.57962 14.1665 8.16313 23
246 2 1.2077 13.9707 7.9581 24
247 2 32.6778 26.4061 5.29428 24
248 2 7.98496 12.4353 5.84862 24
249 2 9.68739 11.2757 18.821 23
250 2 9.06797 5.32667 13.2987 25
251 2 3.07018 20.8268 10.9275 24
252 2 12.8476 8.88174 16.0114 22
253 2 8.12555 0.807265 5.49234 25
254 2 4.51728 12.1685 5.79311 22
255 2 1.4534 2.72632 2.3332 24
256 2 9.4896 34.3104 2.39041 24
257 2 29.789 5.56797 18.2886 25
258 2 3.09098 9.46273 10.9565 24
259 2 9.24506 3.47173 5.27965 21
260 2 4.83875 0.776377 11.1165 22
261 2 6.22357 33.6386 18.8527 22
262 2 29.7322 3.49956 16.2393 20
263 2 1.38785 6.56012 16.1848 23
264 2 7.84813 8.53886 13.5197 21
265 2 3.07526 10.9169 13.3144 22
266 2 6.17264 11.3698 3.05598 26
267 2 4.67801 11.9522 0.539941 21
268 2 13.3607 15.3579 6.00534 20
269 2 4.95614 8.27016 18.3823 23
270 2 7.96702 6.54499 5.45285 24
271 2 9.90884 34.3886 8.14416 24
272 2 6.37116 5.53377 2.66986 23
273 2 14.7928 14.2641 23.6692 24
274 2 9.58061 5.63486 8.40814 21
275 2 12.9947 16.6392 12.9236 24
276 2 11.3772 6.17578 21.6357 20
277 2 9.18521 11.2506 3.66054 22
278 2 1.13337 6.68262 10.8194 22
279 2 4.53502 19.8986 3.01423 23
280 2 6.45472 16.9855 3.07306 24
281 2 9.82566 5.06613 23.8899 21
282 2 7.40261 8.46094 8.3625 22
283 2 3.25725 21.044 5.41105 25
284 2 11.0731 8.59662 3.16441 23
285 2 31.5374 12.0469 15.926 24
286 2 1.58732 12.1049 15.5497 26
287 2 6.70907 17.0898 8.55299 24
288 2 4.4502 23.1902 21.4665 20
289 2 14.8063 2.85459 13.7182 22
290 2 8.04785 2.54706 2.93796 21
291 2 9.93109 5.40039 2.93879 21
292 2 13.0347 3.33807 5.66801 22
293 2 11.5457 3.00996 13.3505 22
294 2 10.0194 3.7167 10.6387 23
295 2 12.8632 3.93754 10.8184 23
296 2 7.98113 7.71165 18.6221 23
297 2 9.85457 34.072 18.4121 21
298 2 6.36291 -0.1643 13.212 24
299 2 1.24843 23.8386 16.1336 22
300 2 14.6431 8.4451 8.54181 19
301 2 12.7944 34.257 2.50043 24
302 2 16.0288 5.49556 13.5569 21
303 2 9.43741 9.20008 5.90191 23
304 2 11.3385 11.9268 5.51171 20
305 2 7.98274 2.54964 8.1825 22
306 2 4.19979 8.40599 8.34707 23
307 2 6.18272 9.75825 5.71014 24
308 2 8.03348 13.9779 8.28248 20
309 2 6.69035 5.06544 18.5674 21
310 2 14.5331 2.60262 8.43844 23
311 2 12.8725 3.40176 16.2489 22
312 2 18.1032 8.10368 13.5933 22
313 2 13.0324 11.2546 2.85706 23
314 2 9.72146 14.703 5.68274 23
315 2 13.2616 16.9522 2.8072 25
316 2 11.2822 14.0502 3.38785 21
317 2 4.41304 7.87268 13.3108 23
318 2 10.0731 14.4438 10.806 24
319 2 7.83992 19.9331 8.48576 21
320 2 2.92824 14.7272 10.7687 21
321 2 18.1907 6.48295 21.1431 25
322 2 4.77221 17.661 21.206 25
323 2 9.27215 16.7867 18.5127 22
324 2 24.7945 12.1298 15.6299 23
325 2 16.4702 31.9798 5.33426 21
326 2 11.2298 29.501 10.8775 22
327 2 12.7085 5.60597 3.22784 21
328 2 14.4297 2.66436 2.95466 24
329 2 9.46325 32.001 21.0029 22
330 2 10.7918 6.49771 16.0158 22
331 2 6.01769 5.66896 13.6301 23
332 2 13.2516 0.284828 13.5787 22
333 2 19.6893 34.232 23.9628 22
334 2 4.02834 0.586358 20.9554 21
335 2 19.646 3.63251 16.2269 23
336 2 11.4547 25.5729 23.6433 24
337 2 19.6564 31.9774 16.1695 24
338 2 14.8542 0.647764 11.1527 20
339 2 21.3006 12.2285 5.99058 23
340 2 21.1136 6.91455 5.85336 20
341 2 14.5636 6.27459 10.661 22
342 2 11.6001 6.15389 5.97711 21
343 2 19.5525 9.38353 5.37403 25
344 2 19.6607 9.78767 11.0542 22
345 2 14.8249 8.59131 18.8306 23
346 2 18.3131 6.57794 11.3006 21
347 2 11.0505 8.03479 18.9273 22
348 2 20.0646 5.39344 8.24036 23
349 2 18.0571 13.7401 13.7093 20
350 2 10.6297 16.5378 8.12175 22
351 2 14.6313 14.1518 3.10355 22
352 2 16.4213 11.0722 2.72483 23
353 2 17.7813 2.8445 18.4559 23
354 2 14.9561 12.1145 5.16808 23
355 2 6.13058 9.32928 10.5591 26
356 2 11.744 13.7949 7.96245 21
357 2 11.068 6.57045 10.8114 22
358 2 14.5141 12.0933 16.0576 23
359 2 11.2288 2.4639 18.8653 22
360 2 7.95457 11.9302 16.3729 21
361 1 1.4204 0.527183 18.8994 22
362 1 1.25798 8.68464 11.5883 24
363 1 29.6839 3.54672 18.6552 21
364 1 21.4345 2.43082 21.5907 22
365 1 27.9144 0.50537 19.1727 24
366 1 3.06001 3.46896 24.6712 26
367 1 1.51263 2.61788 26.6073 22
368 1 31.0449 0.583814 24.1115 23
369 1 32.6783 9.1699 24.2876 23
370 1 31.4178 8.1624 21.5073 22
371 1 1.39626 6.31692 28.9657 21
372 1 32.6734 3.10905 29.3596 23
373 1 9.75543 25.9285 18.7951 22
374 1 6.67434 17.438 11.4364 21
375 1 4.97326 2.32853 27.2016 24
376 1 1.39688 12.1424 13.5899 24
377 1 1.11034 7.98241 26.749 20
378 1 26.1885 3.28939 24.0952 24
379 1 31.3355 8.36188 16.7912 26
380 1 2.77198 20.6648 24.2685 22
381 1 1.69415 18.0484 24.5526 24
382 1 3.00718 9.49634 29.1032 23
383 1 32.6309 9.24777 29.2702 21
384 1 2.75128 4.87239 27.0469 21
385 1 11.4989 14.4162 21.9088 24
386 1 4.3538 19.3327 21.9337 24
387 1 1.21256 6.30549 24.4249 23
388 1 29.3719 5.16416 21.5787 24
389 1 31.3742 17.3152 19.0396 22
390 1 25.0058 2.26387 21.4723 22
391 1 27.9314 17.6543 18.9462 23
392 1 28.2427 13.8383 21.5857 22
393 1 29.5449 16.8508 21.8371 25
394 1 1.45043 12.1759 29.1691 19
395 1 3.14669 11.0185 21.5864 21
396 1 4.97388 17.9232 29.8818 24
397 1 27.8989 11.8619 19.2247 25
398 1 1.09686 31.1192 22.0083 22
399 1 29.213 28.362 27.1457 24
400 1 32.8569 32.3145 19.4379 22
401 1 1.56076 12.2697 19.0976 23
402 1 1.11251 8.40828 21.7636 22
403 1 6.57536 8.87613 24.4798 23
404 1 9.55702 -0.257301 16.6337 23
405 1 21.3284 12.319 19.1306 22
406 1 6.30711 3.4978 24.4098 25
407 1 2.91526 3.26796 29.3595 22
408 1 10.0649 3.82575 29.6751 23
409 1 6.41672 15.1762 8.82394 22
410 1 32.8512 15.1167 18.8939 23
411 1 29.8456 5.27526 16.3802 22
412 1 -0.144825 9.42502 18.9718 23
413 1 27.5419 23.4121 19.0738 24
414 1 6.37838 5.05597 21.4952 23
415 1 1.23292 2.64431 21.6863 24
416 1 6.67225 16.9654 21.8488 24
417 1 29.4902 20.5457 19.144 25
418 1 1.35447 11.8768 24.4295 25
419 1 6.21417 9.46132 29.2275 21
420 1 4.63467 11.9058 23.9142 20
421 1 4.60287 17.5159 19.1191 22
422 1 7.9778 11.8541 13.2152 19
423 1 1.53606 6.54399 19.3452 23
424 1 7.88746 8.68279 11.5433 25
425 1 9.8051 9.22895 24.0838 23
426 1 14.8183 13.8785 16.466 21
427 1 8.36023 14.0485 21.7616 24
428 1 4.88934 13.8971 26.547 23
429 1 6.43803 20.7161 29.4472 23
430 1 2.99503 20.5404 19.3168 24
431 1 2.78484 16.5638 27.2137 26
432 1 3.25178 15.0273 29.7277 22
433 1 7.92228 0.652046 14.0971 24
434 1 3.18897 34.322 16.4792 21
435 1 16.4565 3.70015 24.0345 21
436 1 11.1954 0.195724 24.244 20
437 1 5.13557 6.18425 19.1801 25
438 1 15.3652 0.68677 24.3664 20
439 1 7.94597 2.62371 27.285 23
440 1 14.2942 6.34511 29.5543 22
441 1 14.8867 12.394 24.0016 22
442 1 9.60258 3.27869 24.4568 23
443 1 8.45588 0.899445 29.815 25
444 1 4.71008 5.94266 24.2684 22
445 1 4.84627 12.1971 19.154 21
446 1 9.4551 9.08435 18.9606 20
447 1 14.6162 8.14225 16.2828 20
448 1 12.7691 11.2345 21.5866 22
449 1 11.1338 8.14087 26.7092 21
450 1 11.4921 5.97158 24.118 22
451 1 14.7992 6.31079 24.7597 26
452 1 22.8004 15.0189 19.1605 23
453 1 3.2563 11.2223 26.8714 22
454 1 7.83637 2.46586 21.4248 21
455 1 11.0626 11.7489 29.6429 24
456 1 9.73195 10.832 27.0631 23
457 1 1.58091 18.0413 13.7618 21
458 1 13.1377 10.5528 16.5623 21
459 1 32.7553 3.49596 19.0372 25
460 1 2.73816 16.7876 21.7591 23
461 1 32.9291 22.736 16.7797 24
462 1 6.44137 9.12793 19.3211 23
463 1 8.45312 13.5568 27.1638 21
464 1 8.18515 17.8354 24.3091 22
465 1 4.53392 19.2149 26.5453 22
466 1 1.6176 14.032 26.7907 22
467 1 9.83706 15.1509 29.7075 22
468 1 5.12171 12.3986 29.3502 23
469 1 1.74542 8.4479 16.7706 23
470 1 12.997 -0.303156 22.0393 24
471 1 16.2113 3.72792 19.0258 25
472 1 19.3344 34.0124 20.8392 24
473 1 16.3321 9.67928 19.5941 22
474 1 14.6561 31.2769 26.8063 24
475 1 7.75048 0.137691 19.1349 21
476 1 16.5703 31.9963 29.4679 22
477 1 6.42577 11.0199 26.7618 25
478 1 15.0607 0.666429 29.1869 22
479 1 11.7181 0.687746 29.3096 22
480 1 7.84564 6.36173 29.522 22
481 1 16.185 9.27249 24.5077 22
482 1 17.7973 31.3574 21.3477 22
483 1 9.84664 5.04693 16.799 24
484 1 4.35982 2.69287 21.8153 25
485 1 9.62645 5.29217 21.9032 22
486 1 8.01991 8.24127 26.9755 24
487 1 18.11 17.7013 24.2806 25
488 1 8.1552 6.30495 24.1223 22
489 1 12.8255 11.0029 27.0934 24
490 1 6.38037 10.7423 21.6771 22
491 1 11.166 6.29085 29.4791 23
492 1 9.47966 9.03423 29.8183 24
493 1 21.3608 19.9549 16.429 24
494 1 11.4803 19.3527 16.2913 21
495 1 12.9955 14.9172 13.905 23
496 1 6.19569 11.0488 16.7556 21
497 1 14.7579 13.9002 21.2049 21
498 1 14.8729 19.5202 16.3521 22
499 1 13.0409 14.974 29.4507 23
500 1 11.8636 11.9286 24.4081 22
501 1 8.336 12.0144 24.2372 24
502 1 13.0547 9.14222 23.877 23
503 1 6.76118 15.0081 29.4215 22
504 1 19.6878 10.8719 26.6367 24
505 1 13.2294 3.59307 14.3183 23
506 1 14.4309 31.1874 21.6358 22
507 1 7.63404 0.702822 24.0841 22
508 1 6.22237 31.6885 19.5074 22
509 1 14.8596 8.25611 22.036 24
510 1 9.67737 -0.496843 26.9495 23
511 1 15.9409 32.4902 18.7105 24
512 1 9.90718 5.41792 26.7674 24
513 1 17.6438 6.50736 30.216 23
514 1 14.7754 2.53999 26.8609 22
515 1 12.9929 -0.092336 26.3808 21
516 1 13.1799 3.41824 29.441 22
517 1 13.2544 11.4478 11.0893 22
518 1 17.8793 8.75783 16.8716 21
519 1 9.63018 33.7937 22.0267 26
520 1 14.3077 11.9801 18.4173 23
521 1 19.9126 9.32233 18.9378 22
522 1 19.6181 5.27825 26.9673 22
523 1 12.9483 5.04429 26.8883 22
524 1 12.7954 15.0792 19.1564 25
525 1 16.4717 20.8114 13.6484 23
526 1 16.4818 3.5278 29.7632 21
527 1 14.6193 13.8802 26.826 23
528 1 16.0303 11.2417 26.4539 23
529 1 11.3247 12.2977 19.0641 23
530 1 16.6154 16.8803 11.0756 20
531 1 9.7132 11.1479 16.8718 23
532 1 18.0063 12.0499 23.9645 21
533 1 21.3357 17.9782 19.1518 25
534 1 7.65231 12.2313 19.3811 23
535 1 6.48755 16.4823 26.7189 23
536 1 18.1699 19.4391 27.0484 24
537 1 12.8773 16.8797 26.6061 20
538 1 16.1542 11.2223 21.6634 21
539 1 14.7355 12.1533 29.4091 24
540 1 12.9726 16.8115 16.3659 23
541 2 31.5554 31.3114 18.5795 25
542 2 4.4774 2.57349 23.8002 22
543 2 29.5008 11.0745 23.5288 24
544 2 6.63165 15.3031 21.2121 22
545 2 26.7553 3.30046 20.8283 23
546 2 30.9741 2.05087 29.1363 23
547 2 8.15267 13.7437 13.6412 22
548 2 31.1512 11.9381 21.0476 24
549 2 1.5796 0.572243 31.531 25
550 2 32.8862 3.31612 31.504 23
551 2 4.50416 0.704883 26.2262 23
552 2 6.5193 5.31616 28.8472 22
553 2 19.9841 6.02545 19.037 22
554 2 6.58033 16.655 23.9229 22
555 2 5.17612 13.7912 23.7121 22
556 2 1.34334 8.17301 13.4219 22
557 2 26.4611 11.4841 28.6438 26
558 2 3.07012 10.7542 23.6268 22
559 2 3.11986 16.7624 23.5933 25
560 2 1.53279 11.9954 20.9867 24
561 2 1.56161 6.34361 31.2299 21
562 2 32.6649 9.04822 31.5597 22
563 2 1.18834 14.3169 28.7467 22
564 2 9.58129 9.10208 26.1675 23
565 2 28.027 13.8967 13.2546 24
566 2 1.49528 19.9788 13.4553 22
567 2 6.07646 20.4294 15.9403 20
568 2 31.0964 18.0375 15.6508 23
569 2 29.7418 20.5072 16.178 22
570 2 1.11159 19.7764 23.7137 23
571 2 29.6417 9.07433 15.7884 24
572 2 26.4351 21.2511 26.3367 25
573 2 1.27297 12.2757 31.0747 23
574 2 32.8386 15.0797 31.9636 22
575 2 32.5074 17.1559 29.0953 23
576 2 4.60991 8.45359 28.8859 22
577 2 29.8187 14.9028 16.093 23
578 2 2.79541 5.3655 18.6851 22
579 2 4.87287 11.8795 15.9364 20
580 2 3.06674 31.621 15.8087 22
581 2 4.53383 6.07164 26.1085 23
582 2 4.93281 12.166 21.5477 21
583 2 28.0883 30.8779 23.1771 26
584 2 14.9361 0.723799 26.2498 21
585 2 4.82872 0.532048 31.693 21
586 2 3.28322 3.21095 31.7356 22
587 2 1.1073 8.05496 23.7721 22
588 2 2.95796 34.2941 29.1071 21
589 2 12.7844 10.9821 18.4052 23
590 2 29.4065 17.1541 23.9464 22
591 2 2.72919 4.88354 13.4747 24
592 2 0.140265 9.34509 15.8907 22
593 2 12.6752 3.55193 26.0116 23
594 2 4.4884 6.10477 20.9184 24
595 2 4.30294 23.6707 15.8745 22
596 2 24.6104 18.2008 16.2938 24
597 2 4.46959 6.21868 32.1431 21
598 2 2.90387 9.15439 31.4856 20
599 2 3.20224 11.5039 28.7727 24
600 2 8.19882 11.8617 26.3025 23
601 2 11.2996 18.025 21.1399 23
602 2 11.3844 11.6061 15.887 23
603 2 2.91368 20.2013 26.2955 23
604 2 9.54653 22.5935 13.1851 21
605 2 2.82366 9.13538 26.8917 20
606 2 1.39217 12.0741 26.5179 21
607 2 3.1091 15.0061 21.2475 22
608 2 6.23034 11.1461 28.4965 25
609 2 4.93196 11.9193 31.555 24
610 2 3.04052 14.9968 31.7031 23
611 2 2.612 16.606 29.3037 20
612 2 6.62724 20.4349 26.3364 22
613 2 8.04254 28.8944 21.1179 24
614 2 16.3094 5.72257 18.4543 23
615 2 13.1791 9.13744 21.1957 22
616 2 1.80252 31.011 23.9912 23
617 2 32.4822 32.082 21.4666 23
618 2 32.4443 9.0641 26.4177 24
619 2 8.3446 30.89 23.4635 22
620 2 6.08639 33.9895 23.4097 24
621 2 8.41454 0.54563 31.688 21
622 2 6.43822 3.47616 31.7872 21
623 2 4.5821 2.43005 29.2147 22
624 2 9.57101 5.66759 28.4732 22
625 2 11.5378 8.00156 23.734 23
626 2 7.97701 5.83042 21.4978 24
627 2 19.7714 20.5682 20.6835 22
628 2 18.4649 29.7296 20.9606 23
629 2 9.5129 10.9532 29.1624 23
630 2 31.6348 8.09751 18.7135 22
631 2 7.85349 12.0813 21.2422 21
632 2 9.56147 3.53444 26.404 22
633 2 7.70749 6.17387 31.5505 24
634 2 6.16177 9.07017 31.1752 25
635 2 1.12132 6.03558 26.5954 23
636 2 31.2151 5.84035 26.8318 24
637 2 9.72276 11.2005 13.0301 22
638 2 31.2084 19.274 18.4344 22
639 2 31.2516 17.6325 21.055 24
640 2 14.5277 12.1552 21.0363 24
641 2 11.2768 11.6939 26.1481 23
642 2 11.5931 13.8404 23.7318 25
643 2 16.3273 11.0442 23.8458 23
644 2 4.70395 13.7505 18.2806 24
645 2 7.83087 12.1088 31.6259 23
646 2 6.08759 15.0454 31.3288 23
647 2 5.97378 16.7111 28.8428 21
648 2 4.65267 13.9192 28.4845 25
649 2 11.3728 29.2774 27.0171 21
650 2 16.636 31.9625 26.2995 24
651 2 6.45712 32.0888 15.6794 24
652 2 13.2719 14.9605 21.2495 23
653 2 6.61415 3.28812 26.2698 24
654 2 11.7842 6.41445 25.9894 22
655 2 9.54461 22.5149 29.0458 21
656 2 11.6519 0.56424 31.2744 25
657 2 9.84116 32.2562 31.3227 24
658 2 9.96579 3.51987 32.0641 19
659 2 16.1698 5.4239 29.5441 23
660 2 12.7589 9.22006 31.8739 21
661 2 13.0675 3.53849 21.237 22
662 2 13.5224 5.03007 23.5679 22
663 2 8.44547 6.35453 15.9849 22
664 2 4.85172 8.43113 23.708 23
665 2 9.38791 32.2722 26.3645 20
666 2 7.98193 2.16254 18.4639 25
667 2 10.1042 11.2562 23.7888 23
668 2 12.7887 15.0123 26.2835 23
669 2 11.197 6.42308 31.9406 21
670 2 9.46105 9.2656 32.1717 20
671 2 7.85054 8.28594 29.0884 23
672 2 14.4463 6.25306 26.7813 21
673 2 16.2059 16.7956 28.9669 23
674 2 5.85966 20.4702 21.1756 23
675 2 11.4936 13.7399 13.3218 22
676 2 19.733 9.0241 21.8309 21
677 2 8.08258 13.8009 28.9624 23
678 2 16.2355 15.0452 15.9282 22
679 2 8.42497 13.9043 23.759 22
680 2 21.5035 18.0777 26.1245 23
681 2 11.2128 11.9868 31.5137 21
682 2 9.56413 14.4425 31.7512 21
683 2 9.46383 28.0083 23.7313 22
684 2 11.3125 12.421 20.9508 25
685 2 11.2302 0.696424 26.1207 22
686 2 17.8864 8.12887 23.8136 26
687 2 16.3297 14.865 26.3481 21
688 2 22.7723 26.6798 26.6583 21
689 2 8.22062 31.4819 28.7393 23
690 2 16.3617 3.63246 26.4801 24
691 2 6.21893 10.8782 18.7128 23
692 2 17.876 29.4119 26.0197 24
693 2 14.786 0.166136 31.0462 25
694 2 13.2179 3.50549 31.4282 23
695 2 13.1951 11.0318 23.4084 23
696 2 12.5565 5.45961 29.1064 22
697 2 19.7785 3.56456 20.9187 25
698 2 24.8701 8.49039 23.9239 22
699 2 3.3067 9.09835 16.1813 23
700 2 11.2881 17.4935 15.7535 22
701 2 13.3662 0.0952031 28.3607 22
702 2 17.7572 8.00836 29.1124 22
703 2 3.05022 16.6442 18.7326 20
704 2 24.5547 0.575331 26.1488 25
705 2 14.3074 6.45259 31.7114 23
706 2 14.4171 8.23195 29.1262 22
707 2 12.8744 9.06675 26.5488 23
708 2 21.1844 12.0783 26.0786 26
709 2 17.9611 14.2307 18.5067 22
710 2 11.3497 23.2374 26.327 21
711 2 9.68148 16.3918 12.8562 24
712 2 2.75699 20.6832 21.444 23
713 2 8.3105 18.0816 21.1283 23
714 2 17.8952 23.7297 20.8465 24
715 2 14.686 17.6946 26.2922 23
716 2 19.4773 9.73715 16.9806 21
717 2 12.9328 11.3224 28.801 22
718 2 12.9076 14.9452 31.4177 23
719 2 9.62553 16.9451 29.202 21
720 2 14.6222 13.9203 28.7591 22
721 1 -0.11661 22.8041 63.2278 22
722 1 1.75484 19.9182 0.954142 24
723 1 1.46803 18.1229 3.79189 25
724 1 -0.0062085 22.8983 6.01535 24
725 1 4.67339 23.5039 13.9123 23
726 1 1.48987 23.7119 3.43754 22
727 1 3.37391 22.7192 6.26378 25
728 1 31.2013 25.9129 11.3661 26
729 1 28.0706 25.8251 10.9261 25
730 1 29.7323 28.2199 16.3388 24
731 1 3.133 26.0696 19.1828 23
732 1 28.1184 31.065 16.6683 26
733 1 -0.327844 28.5755 0.618511 21
734 1 1.33758 25.9821 0.986764 22
735 1 30.9864 25.7073 5.72767 23
736 1 32.8755 26.5008 3.32816 21
737 1 29.4521 28.3154 6.03909 26
738 1 1.55649 29.6127 3.60516 22
739 1 4.8726 20.0239 11.5083 22
740 1 31.1254 29.3478 8.6017 24
741 1 24.7181 29.5538 8.44451 22
742 1 32.7441 -0.135644 11.2083 22
743 1 1.48755 17.8029 18.7638 21
744 1 1.33166 19.5837 21.8546 24
745 1 32.4273 -0.120209 63.1597 23
746 1 1.37138 31.887 0.745643 22
747 1 3.14566 28.6171 6.01917 23
748 1 1.46272 1.11472 3.20105 21
749 1 1.36669 29.5735 8.27131 22
750 1 32.7993 32.2912 3.03225 22
751 1 26.435 26.7 8.35158 24
752 1 27.7237 29.6474 8.58248 21
753 1 -0.22156 -0.0208988 16.4454 23
754 1 1.40729 6.59064 8.49388 22
755 1 3.24852 32.0247 13.851 23
756 1 4.82747 0.842179 8.6541 22
757 1 3.26095 23.0335 0.717056 21
758 1 4.76321 19.6916 0.832105 21
759 1 4.98593 18.1848 3.47467 20
760 1 -0.0767037 26.6189 8.43982 24
761 1 4.80268 24.0877 3.12692 23
762 1 3.13318 21.1904 3.27381 21
763 1 31.4799 23.9902 8.5602 24
764 1 32.8502 21.0293 4.02349 23
765 1 3.05932 22.7068 11.4955 25
766 1 0.0675059 28.4576 10.8577 22
767 1 4.41067 29.3343 13.8832 23
768 1 11.2926 17.6599 13.2959 22
769 1 2.99728 28.9636 0.915939 23
770 1 4.73521 25.7765 0.840492 21
771 1 3.07182 26.7687 3.50274 25
772 1 6.64798 28.5464 5.97038 23
773 1 10.0325 28.6432 6.26917 22
774 1 6.47263 22.7801 11.4281 23
775 1 1.18315 23.7232 14.3313 25
776 1 1.4018 31.2956 5.97643 22
777 1 3.23164 28.5365 16.7107 21
778 1 11.2728 25.7872 11.0575 22
779 1 7.97364 25.3735 11.0905 22
780 1 10.9329 30.9694 21.7572 23
781 1 2.66391 -0.168059 0.884541 24
782 1 5.00671 31.594 63.0056 23
783 1 4.89075 29.9767 3.44293 22
784 1 3.39491 32.4043 3.63282 24
785 1 3.35459 32.6111 8.51986 23
786 1 11.3923 31.5598 5.91164 23
787 1 32.9056 32.2593 8.72965 24
788 1 31.3402 31.2423 5.85986 23
789 1 32.7186 11.161 11.0657 21
790 1 3.14529 -0.155561 11.5408 25
791 1 4.51141 29.5602 8.61766 22
792 1 1.22062 0.698663 13.9554 22
793 1 6.67942 22.6264 1.27167 25
794 1 8.02746 19.6537 1.24076 23
795 1 9.42973 21.023 3.61843 23
796 1 6.3162 16.9588 6.41383 23
797 1 4.82254 23.6129 8.94318 23
798 1 6.61828 16.908 1.01804 21
799 1 6.4166 20.8144 8.79537 24
800 1 6.60385 -0.0340558 11.2186 24
801 1 9.84641 22.6145 11.2076 23
802 1 30.8505 18.0463 8.46748 23
803 1 0.147248 11.1929 16.4578 22
804 1 7.94299 8.25858 16.6821 24
805 1 6.32899 28.4299 0.836548 23
806 1 8.11172 25.3329 1.19435 22
807 1 7.80267 17.7396 3.98052 23
808 1 11.0753 23.735 3.64804 24
809 1 13.0152 28.4257 6.04808 22
810 1 6.8616 26.7967 3.01404 22
811 1 1.29307 25.7911 5.88739 23
812 1 3.01274 26.4144 8.23342 21
813 1 4.76739 31.3685 16.6795 21
814 1 4.9477 25.6798 5.94299 25
815 1 11.5773 19.4816 11.217 22
816 1 8.2808 23.7668 14.016 22
817 1 6.43052 34.1693 0.521021 23
818 1 7.95068 31.2948 63.441 26
819 1 8.09987 29.4841 3.37385 23
820 1 6.53002 32.2147 3.32204 23
821 1 6.37185 3.61051 8.9551 25
822 1 4.93306 31.5921 11.4168 24
823 1 4.56025 25.6104 11.0441 20
824 1 7.92047 26.2284 6.07195 21
825 1 7.5803 6.60211 9.05085 23
826 1 6.53273 32.4567 13.7044 21
827 1 8.20595 0.785849 8.61634 23
828 1 4.76033 2.69042 11.3661 23
829 1 9.58457 22.6259 1.08055 25
830 1 11.5236 19.9135 0.886453 22
831 1 14.8823 20.0582 5.67176 23
832 1 12.8622 20.8273 3.30669 22
833 1 11.5826 18.0812 9.01987 21
834 1 11.6217 20.0194 6.12916 21
835 1 15.0595 18.1582 8.87844 22
836 1 9.71577 16.7202 10.927 20
837 1 6.10795 28.6807 11.4915 24
838 1 6.55253 26.6918 8.84692 23
839 1 11.3811 8.57412 11.2566 21
840 1 7.83301 29.4268 13.5793 21
841 1 9.68646 28.3244 0.977458 25
842 1 11.18 25.4893 0.660483 22
843 1 9.51257 22.9745 6.20294 20
844 1 9.91743 26.3148 3.97224 23
845 1 8.02719 31.5169 11.2938 24
846 1 14.3583 31.0264 5.45203 20
847 1 16.4509 20.5657 2.99843 23
848 1 13.2903 26.6647 8.59744 22
849 1 9.41505 28.6176 10.9673 23
850 1 11.3058 29.5441 13.2058 19
851 1 8.38073 18.1108 8.58663 21
852 1 19.846 28.8772 21.775 23
853 1 9.85858 34.2607 63.1702 23
854 1 11.2555 31.2938 0.968007 24
855 1 16.4621 26.4256 8.42158 20
856 1 9.38358 32.65 3.35274 23
857 1 9.85764 3.30122 3.55943 22
858 1 17.6456 2.79023 6.16654 23
859 1 4.91817 31.4464 5.9195 21
860 1 13.3528 32.6258 14.1058 23
861 1 11.42 31.3585 11.2799 23
862 1 13.1226 -0.0937582 11.6537 24
863 1 12.7953 33.9996 16.2454 22
864 1 10.1907 32.6022 13.9953 22
865 1 13.0735 22.9897 0.54368 20
866 1 15.0071 20.1517 63.1153 22
867 1 13.0365 15.3494 3.63746 24
868 1 16.1422 16.8592 6.1626 23
869 1 13.3607 22.8987 5.99606 20
870 1 14.9675 25.6147 5.50956 21
871 1 13.2454 20.4727 8.63065 24
872 1 6.43887 22.7921 6.17274 22
873 1 19.8907 27.0267 19.4736 23
874 1 14.5779 25.5073 11.634 23
875 1 16.4916 14.8744 8.62455 23
876 1 16.4717 22.9065 11.1501 24
877 1 12.6991 28.5035 0.703236 20
878 1 14.7887 25.6011 0.815054 21
879 1 11.9904 25.383 6.35733 22
880 1 12.8891 26.5347 3.22118 22
881 1 14.7926 29.5257 8.31326 20
882 1 11.075 29.6603 8.5421 22
883 1 16.4785 21.031 8.90447 24
884 1 7.65185 23.8044 3.79296 25
885 1 16.3367 34.0706 11.2516 23
886 1 21.3508 29.5536 19.067 24
887 1 24.3553 25.8399 16.1912 19
888 1 13.0514 22.7431 11.0632 22
889 1 13.1842 34.2123 0.609899 22
890 1 14.5697 31.506 1.02147 23
891 1 11.6107 29.6758 3.47382 26
892 1 9.61026 32.4094 8.74309 25
893 1 9.82404 -0.125574 6.24557 25
894 1 15.9845 28.2204 10.7067 21
895 1 12.8584 5.86641 11.5397 24
896 1 12.7416 0.0355319 5.73902 22
897 1 16.3912 -0.137211 16.2968 22
898 1 9.62437 3.67051 13.9053 24
899 1 8.03304 23.5355 8.81042 25
900 1 11.5988 0.278072 19.179 24
901 2 31.0733 20.0747 7.9648 24
902 2 26.3328 21.1772 10.5493 23
903 2 24.3264 19.6854 2.94934 24
904 2 -0.0878389 20.9017 5.88519 20
905 2 6.53683 20.7251 5.4464 24
906 2 4.52598 18.314 10.6959 21
907 2 26.1318 26.4132 10.462 24
908 2 31.192 25.7264 7.70043 24
909 2 31.2446 23.4118 16.1889 21
910 2 28.0755 25.2898 23.4739 24