ITEM: TIMESTEP
9
ITEM: NUMBER OF ATOMS
2000
ITEM: BOX BOUNDS pp pp pp
-30.0 30.0
-30.0 30.0
-30.0 30.0
ITEM: ATOMS id type x y z Coordination
1 2 -1.70428 -10.4578 -0.279823 26
2 2 -1.65641 -14.2349 -2.92344 26
3 2 -3.32531 -11.4166 -2.94678 26
4 2 -3.3009 -13.3156 -0.261987 26
5 1 -1.68952 -10.4568 -2.30397 26
6 1 -3.33062 -13.3327 -2.28168 26
7 2 -5.00734 -10.4847 -0.248403 26
8 2 -4.95926 -14.2958 -2.95155 23
9 2 -6.58841 -11.4245 -2.92599 26
10 2 -6.56137 -13.3401 -0.223424 24
11 2 -8.27943 -10.459 -0.24187 26
12 2 -8.2043 -13.9511 -3.10387 16
13 1 -4.96378 -10.4822 -2.27199 26
14 1 -6.57094 -13.3653 -2.23372 24
15 1 -8.24035 -10.518 -2.25886 26
16 2 -9.95669 -11.4307 -2.91759 23
17 2 -9.65977 -13.1757 -0.332331 16
18 2 -11.5924 -10.5015 -0.200808 23
19 1 -9.77524 -13.3278 -2.23083 16
20 1 -11.5182 -10.4615 -2.18633 23
21 2 -13.1882 -11.1554 -3.11277 14
22 2 -14.5711 -10.349 -0.331141 12
23 1 -14.7213 -10.4691 -2.20207 12
24 2 -1.60261 -16.2651 -0.236595 21
25 1 -1.68473 -16.164 -2.22517 21
26 2 -3.3212 -16.893 -3.00781 15
27 2 -4.5779 -16.0718 -0.406956 16
28 2 -8.22604 -16.1453 -0.182599 10
29 1 -4.96393 -16.169 -2.27024 16
30 2 -3.35702 -11.1415 -13.5611 11
31 1 -6.57742 -11.4793 -10.3304 17
32 1 -4.97873 -10.477 -12.9779 15
33 2 -8.0221 -10.3588 -10.7416 15
34 2 -5.01441 -10.4986 -10.9771 20
35 1 -3.33219 -11.3863 -10.3218 22
36 1 -1.64791 -14.2918 -10.2753 14
37 1 -1.65666 -10.6099 -12.9445 18
38 2 -3.07529 -13.2128 -10.681 13
39 2 -1.62573 -10.4485 -10.8868 24
40 2 -4.64473 -16.0569 -5.47983 13
41 1 -3.27701 -17.1523 -4.88119 13
42 1 -2.15563 -16.0661 -7.49479 12
43 2 -1.6221 -16.2807 -5.67596 17
44 1 -12.7055 -11.8119 -4.77513 12
45 1 -11.462 -10.434 -7.54609 15
46 1 -9.79404 -11.3884 -4.94174 22
47 2 -11.6327 -10.4528 -5.61679 18
48 2 -9.74498 -13.2347 -5.38273 14
49 2 -9.8573 -11.0648 -8.12516 14
50 1 -8.21935 -14.2932 -4.98011 13
51 1 -8.10768 -10.507 -7.65657 21
52 1 -6.56179 -13.3407 -7.65171 16
53 1 -6.5747 -11.4482 -4.94595 26
54 1 -4.9616 -14.2387 -5.0031 22
55 1 -4.93138 -10.4813 -7.64545 26
56 2 -8.18767 -10.4138 -5.59398 25
57 2 -6.64562 -13.3191 -5.68559 20
58 2 -6.52288 -11.5013 -8.35072 20
59 2 -4.89314 -14.0349 -8.05964 15
60 2 -4.96847 -10.4461 -5.61985 26
61 1 -3.21681 -13.2562 -7.67182 23
62 1 -3.31581 -11.3989 -4.97134 26
63 1 -1.65864 -14.2607 -4.91965 26
64 1 -1.61824 -10.4389 -7.62597 25
65 2 -3.23057 -13.2825 -5.61069 25
66 2 -3.25552 -11.3343 -8.25265 25
67 2 -1.58724 -14.4337 -8.25218 17
68 2 -1.64684 -10.4457 -5.5898 26
69 2 -0.0380015 -11.4133 -2.93563 26
70 2 -0.0126363 -13.3346 -0.242606 26
71 2 -0.00226517 -16.7834 -3.00382 17
72 2 0.00563973 -11.1486 -13.6434 13
73 1 -0.00122248 -11.4546 -10.3104 25
74 1 -0.0167169 -13.3141 -7.65059 25
75 1 -0.016199 -11.4249 -4.96055 26
76 1 -4.89592 -16.2797 3.06855 13
77 1 -3.25547 -17.1459 0.414027 15
78 2 -3.27691 -16.925 2.29685 14
79 1 -1.6373 -16.2143 3.09534 20
80 1 -13.2174 -11.4459 0.500327 14
81 2 -12.9955 -11.3431 2.33827 13
82 1 -11.5663 -10.4512 3.20505 20
83 1 -9.92173 -11.4358 0.46171 23
84 1 -9.95214 -13.315 3.03735 16
85 2 -9.94254 -11.4305 2.47611 23
86 1 -8.25072 -14.3594 0.465777 16
87 1 -8.26288 -10.5028 3.05366 26
88 1 -6.65211 -11.472 0.412235 26
89 1 -4.95621 -14.3399 0.406337 24
90 1 -6.53426 -13.3868 3.06462 23
91 1 -4.97169 -10.5156 3.05072 26
92 2 -8.27237 -14.0095 2.46322 16
93 2 -6.61271 -11.4615 2.44661 26
94 2 -4.94104 -14.3734 2.42432 23
95 1 -3.34695 -11.4387 0.379832 26
96 1 -1.6747 -14.3095 0.381575 26
97 1 -3.29944 -13.3825 3.03906 26
98 1 -1.70037 -10.4922 3.0242 26
99 2 -3.33785 -11.4555 2.40039 26
100 2 -1.64707 -14.2628 2.37883 26
101 2 -5.14104 -16.024 4.90036 13
102 2 -1.36737 -16.113 5.04315 16
103 1 -11.6078 -10.5228 8.05448 11
104 1 -9.9052 -11.4906 5.67562 18
105 2 -11.3875 -10.2839 5.18927 18
106 2 -9.63751 -13.2787 4.97276 13
107 2 -9.91805 -11.155 7.64781 14
108 1 -8.24334 -14.5007 5.31098 10
109 1 -8.23882 -10.4877 8.30934 20
110 1 -6.60515 -11.4804 5.69472 25
111 1 -4.87667 -14.3486 5.73216 19
112 1 -6.63249 -13.4291 8.15705 13
113 1 -4.98789 -10.5016 8.37363 25
114 2 -8.21894 -10.4832 5.07952 25
115 2 -6.65654 -13.4116 5.20464 22
116 2 -6.61768 -11.5473 7.7877 22
117 2 -4.95367 -14.0144 7.68164 14
118 2 -4.97436 -10.51 5.08015 26
119 1 -3.30847 -11.4539 5.71202 26
120 1 -1.64046 -14.3065 5.71669 22
121 1 -3.27571 -13.3565 8.35731 19
122 1 -1.69259 -10.4719 8.34414 25
123 2 -3.2805 -13.3149 5.04219 25
124 2 -3.34995 -11.3865 7.7377 26
125 2 -1.59613 -14.039 7.67426 18
126 2 -1.68375 -10.464 5.04513 26
127 1 -6.66947 -11.438 10.9906 14
128 2 -8.04757 -10.4208 10.2594 15
129 2 -5.04864 -10.5734 10.4482 23
130 1 -3.3125 -11.4366 11.0202 20
131 1 -1.67473 -14.3589 10.877 9
132 2 -3.05979 -13.2304 10.3414 14
133 2 -3.30462 -11.1491 12.9911 14
134 2 -1.65955 -10.4733 10.3609 26
135 1 -4.86464 -10.4627 13.7605 12
136 1 -1.60679 -10.5272 13.6271 15
137 1 -0.0623467 -11.4284 0.378475 26
138 1 -0.0131209 -13.3553 3.05954 26
139 2 -0.0464221 -11.4229 2.3969 26
140 2 -0.0346381 -11.3508 7.729 26
141 1 -0.00961081 -11.474 10.9498 23
142 2 -0.015926 -13.481 10.498 16
143 2 -1.60713 8.60013 -2.88648 26
144 2 -3.25767 9.51363 -0.221552 26
145 2 -1.64619 6.6377 -0.238063 26
146 1 -3.26057 9.55132 -2.23874 26
147 1 -1.64127 6.68443 -2.25334 26
148 2 -4.89039 8.61976 -2.89891 26
149 2 -6.52554 9.52761 -0.244893 26
150 2 -4.92204 6.64446 -0.258288 26
151 2 -8.18942 8.60638 -2.93004 26
152 2 -8.20713 6.66499 -0.268093 26
153 1 -6.56234 9.55428 -2.2647 26
154 1 -4.92322 6.70568 -2.27605 26
155 1 -8.21349 6.70145 -2.28826 26
156 2 -9.80156 9.51893 -0.259056 26
157 2 -11.4628 8.5938 -2.93079 26
158 2 -11.5054 6.69788 -0.273979 26
159 1 -9.842 9.55968 -2.27227 26
160 1 -11.4956 6.70089 -2.27836 26
161 2 -13.1955 9.55945 -0.227289 21
162 2 -14.5346 8.43055 -3.02088 17
163 2 -14.8379 6.74064 -0.258313 21
164 1 -13.1415 9.52063 -2.21265 21
165 1 -14.785 6.65513 -2.24192 21
166 2 -1.65593 2.86675 -2.91061 26
167 2 -3.27336 5.74372 -2.90189 26
168 2 -3.29216 3.77332 -0.265685 26
169 1 -3.2935 3.83357 -2.28085 26
170 2 -4.93257 2.90127 -2.93251 26
171 2 -6.55404 5.76425 -2.93837 26
172 2 -6.58133 3.80492 -0.273525 26
173 2 -8.20011 2.89692 -2.93353 26
174 2 -8.17781 -8.21777 -13.5647 12
175 2 -4.88741 -8.58667 -13.3318 15
176 1 -1.55599 -8.71415 -15.5442 14
177 2 -1.63974 -8.58918 -13.6334 21
178 1 -6.57143 3.86274 -2.29002 26
179 2 -9.84599 5.7554 -2.96234 26
180 2 -11.3717 -2.97075 -13.3982 12
181 2 -9.93335 -5.72711 -13.223 13
182 2 -5.06871 -4.86574 -15.9231 12
183 1 -8.33364 -2.8035 -15.5331 14
184 1 -6.53296 -5.943 -15.5113 14
185 1 -4.97078 -2.9221 -15.6086 21
186 2 -8.25849 -2.90962 -13.6086 21
187 2 -6.6149 -5.70588 -13.5991 21
188 2 -4.99166 -2.91086 -13.4929 26
189 2 -1.68962 -4.85475 -15.936 15
190 1 -3.34863 -5.61534 -15.5597 17
191 1 -1.67414 -2.90667 -15.6126 22
192 2 -3.33823 -5.79332 -13.5878 24
193 2 -1.68035 -2.92182 -13.4738 26
194 2 -9.86513 3.82795 -0.279933 26
195 2 -9.86518 -0.0190346 -13.2846 16
196 2 -6.69889 -2.01126 -15.9127 12
197 2 -4.99382 0.918111 -15.928 15
198 1 -6.46124 -0.161251 -15.5393 18
199 2 -6.64809 -0.0363906 -13.572 24
200 2 -3.34384 -1.95439 -15.8897 16
201 2 -1.68512 0.936408 -15.8959 16
202 1 -3.30301 -0.040436 -15.5924 22
203 2 -3.34214 -0.0162277 -13.4497 26
204 2 -11.4711 2.86074 -2.94015 26
205 2 -11.2964 2.61216 -13.5634 11
206 2 -9.56251 5.50792 -13.6053 13
207 2 -6.69808 3.79791 -15.9302 10
208 1 -8.3048 2.87275 -15.5272 15
209 1 -6.75229 5.64936 -15.5203 14
210 1 -4.97048 2.82113 -15.641 20
211 2 -8.23143 2.77987 -13.6107 21
212 2 -6.53689 5.67493 -13.6146 21
213 2 -5.00564 2.86535 -13.5184 26
214 2 -3.34176 3.81167 -15.938 15
215 1 -3.15397 5.61236 -15.5163 17
216 1 -1.66644 2.82181 -15.6155 21
217 2 -3.30111 5.74012 -13.5482 24
218 2 -1.67923 2.88863 -13.4719 26
219 1 -9.8536 3.8572 -2.29506 26
220 2 -7.86993 8.44441 -13.5439 11
221 2 -4.92525 8.51766 -13.2773 15
222 2 -1.66527 6.76005 -15.906 12
223 1 -1.96449 8.55488 -15.529 12
224 2 -1.60359 8.56171 -13.635 21
225 1 -11.1114 -8.98088 -10.2027 13
226 1 -9.80297 -7.61058 -12.9656 14
227 2 -10.0184 -7.6347 -10.9597 17
228 1 -8.18826 -8.53282 -10.3066 23
229 1 -6.4989 -7.6438 -12.9103 20
230 1 -4.92217 -8.60554 -10.2939 26
231 2 -6.55848 -7.57493 -10.8695 25
232 1 -3.23502 -7.66601 -12.9023 24
233 1 -1.65002 -8.58616 -10.261 26
234 2 -3.2806 -7.61635 -10.8722 26
235 2 -13.0978 5.71893 -2.94352 26
236 1 -14.8811 -2.65746 -10.2636 11
237 1 -13.1295 -5.75536 -10.2359 16
238 1 -11.5228 -4.74893 -12.9468 13
239 1 -11.4817 -2.86468 -10.3084 23
240 1 -9.86076 -5.72265 -10.3208 25
241 2 -11.6575 -4.83024 -10.9288 18
242 1 -8.21818 -4.77329 -12.891 24
243 1 -8.18905 -2.85353 -10.2573 25
244 1 -6.57382 -5.71017 -10.2506 25
245 1 -4.93315 -4.79904 -12.8836 26
246 1 -4.92069 -2.86962 -10.24 26
247 2 -8.22793 -4.75102 -10.862 26
248 2 -4.95132 -4.76352 -10.8678 26
249 1 -3.30114 -5.72911 -10.2657 26
250 1 -1.65779 -4.82637 -12.948 26
251 1 -1.65416 -2.87567 -10.2657 26
252 2 -1.68336 -4.76982 -10.9087 26
253 2 -13.1133 3.80914 -0.293988 26
254 1 -13.0684 0.0013792 -10.216 18
255 2 -13.2021 -1.9096 -10.4706 13
256 1 -9.87545 -1.89614 -12.9173 20
257 1 -9.82584 -0.0141702 -10.2524 26
258 2 -9.84283 -1.93025 -10.8543 25
259 1 -11.5118 0.896881 -12.9449 14
260 2 -11.5229 0.833002 -10.9391 20
261 1 -6.59927 -1.92594 -12.8883 26
262 1 -6.53676 -0.0125703 -10.2377 26
263 2 -6.56288 -1.90919 -10.8709 26
264 1 -8.22651 0.945738 -12.8684 24
265 1 -4.97916 0.953417 -12.9273 26
266 2 -8.18332 0.92457 -10.8348 26
267 2 -4.92532 0.94869 -10.8861 26
268 1 -3.31393 -1.93361 -12.9278 26
269 1 -3.27438 -0.00830306 -10.2716 26
270 2 -3.2997 -1.91447 -10.8611 26
271 1 -1.6766 0.955699 -12.9285 26
272 2 -1.63751 0.968399 -10.8568 26
273 1 -13.1138 5.63864 -10.2673 14
274 2 -12.9569 3.83871 -10.6445 13
275 1 -11.4566 2.75682 -10.2869 22
276 1 -9.96051 3.81311 -12.9427 19
277 1 -9.84988 5.69486 -10.3398 25
278 2 -9.82621 3.75784 -10.8794 24
279 1 -8.19929 2.83673 -10.2563 26
280 1 -6.6507 3.7996 -12.8802 26
281 1 -6.53429 5.68649 -10.2707 26
282 1 -4.90518 2.84106 -10.2572 26
283 2 -6.55173 3.7806 -10.8671 26
284 1 -3.34471 3.79206 -12.9152 26
285 1 -3.24201 5.70191 -10.2301 26
286 1 -1.6301 2.85874 -10.2591 26
287 2 -3.27363 3.82489 -10.8753 26
288 1 -11.4182 8.56455 -10.2872 14
289 2 -11.5578 6.6876 -10.4981 14
290 2 -9.77589 9.28422 -10.694 14
291 1 -8.27474 6.72094 -12.9354 19
292 1 -8.0867 8.55723 -10.3007 22
293 1 -4.96869 6.61537 -12.8734 24
294 1 -6.51491 9.55444 -12.9356 16
295 1 -4.92109 8.56327 -10.2541 26
296 2 -8.15364 6.62186 -10.8787 24
297 2 -4.87113 6.65366 -10.8395 26
298 2 -6.49069 9.62282 -10.9345 20
299 1 -1.66189 6.65017 -12.8682 26
300 1 -3.30917 9.44084 -12.8715 20
301 1 -1.60575 8.53586 -10.2059 25
302 2 -1.58069 6.67584 -10.8534 26
303 2 -3.2022 9.48664 -10.83 25
304 1 -14.6465 -8.49314 -4.87388 15
305 1 -12.8678 -7.4929 -7.52517 17
306 2 -13.1411 -7.5989 -5.63569 19
307 1 -11.4321 -8.58621 -4.87656 25
308 1 -9.7894 -7.62288 -7.60132 26
309 2 -11.5824 -8.59809 -8.38088 17
310 2 -9.88592 -7.57591 -5.61447 26
311 1 -8.20442 -8.55305 -4.93431 26
312 1 -6.5453 -7.63321 -7.61254 26
313 1 -4.95102 -8.56207 -4.95962 26
314 2 -8.21184 -8.53277 -8.26868 25
315 2 -6.59699 -7.57125 -5.59085 26
316 2 -4.92638 -8.57012 -8.26231 26
317 1 -3.29241 -7.61254 -7.62122 26
318 1 -1.67083 -8.54522 -4.96946 26
319 2 -3.31964 -7.58611 -5.59533 26
320 2 -1.63415 -8.53104 -8.23266 26
321 2 -14.7525 2.79178 -2.94149 23
322 2 -16.1793 5.53257 -3.02349 15
323 2 -16.1263 4.03595 -0.412563 16
324 1 -16.5106 -5.5002 -4.88792 10
325 1 -14.5267 -4.59315 -7.49728 17
326 1 -14.7742 -2.8179 -4.83851 23
327 1 -13.1068 -5.67935 -4.88177 25
328 2 -14.8573 -4.80684 -5.62943 20
329 2 -14.9851 -2.91578 -8.34778 14
330 2 -13.233 -5.75953 -8.32931 17
331 1 -11.4316 -4.73171 -7.59555 25
332 1 -11.4892 -2.83898 -4.91436 26
333 1 -9.83127 -5.68358 -4.92712 26
334 2 -11.5205 -4.75207 -5.62258 26
335 2 -11.5518 -2.89489 -8.24918 26
336 2 -9.92554 -5.7587 -8.29465 26
337 1 -8.22484 -4.76869 -7.62817 26
338 1 -8.202 -2.82044 -4.93917 26
339 1 -6.57373 -5.68061 -4.95145 26
340 1 -4.93947 -4.76753 -7.61002 26
341 1 -4.92596 -2.82783 -4.96063 26
342 2 -8.22881 -4.71492 -5.6153 26
343 2 -8.24282 -2.86867 -8.2341 26
344 2 -6.60199 -5.72264 -8.22952 26
345 2 -4.94198 -4.72498 -5.59092 26
346 2 -4.93948 -2.85982 -8.2106 26
347 1 -3.30119 -5.69372 -4.96144 26
348 1 -1.66819 -4.74 -7.61352 26
349 1 -1.65518 -2.82362 -4.95489 26
350 2 -3.30069 -5.70478 -8.24129 26
351 2 -1.6716 -4.71589 -5.58949 26
352 2 -1.64137 -2.837 -8.22257 26
353 1 -16.4376 -1.92398 -7.54538 12
354 1 -16.4199 0.012082 -4.87409 15
355 1 -13.0947 -1.8472 -7.57936 25
356 1 -13.152 0.00172727 -4.91133 26
357 2 -16.1631 -1.72539 -5.72945 15
358 2 -13.1541 -1.94111 -5.60675 26
359 2 -13.2458 -0.0103564 -8.25545 22
360 1 -14.7301 1.06349 -7.56854 17
361 2 -14.8359 0.872157 -5.63991 20
362 1 -9.86179 -1.90559 -7.60113 26
363 1 -9.83338 0.0234983 -4.9355 26
364 2 -9.87176 -1.8924 -5.58696 26
365 2 -9.88183 -0.0234503 -8.21831 26
366 1 -11.5067 0.943457 -7.5862 26
367 2 -11.5122 0.923806 -5.5809 26
368 1 -6.57847 -1.90528 -7.5973 26
369 1 -6.54316 0.037888 -4.94181 26
370 2 -6.57428 -1.86206 -5.57892 26
371 2 -6.56211 -0.00797949 -8.21124 26
372 1 -8.2109 0.945775 -7.59392 26
373 1 -4.91465 0.963386 -7.6018 26
374 2 -8.19538 0.982934 -5.56927 26
375 2 -4.90785 1.00121 -5.5785 26
376 1 -3.2884 -1.88677 -7.60729 26
377 1 -3.27776 0.0328323 -4.94885 26
378 2 -3.29123 -1.85912 -5.58132 26
379 2 -3.27231 0.0142238 -8.23084 26
380 1 -1.63051 0.968717 -7.60302 26
381 2 -1.62597 0.974137 -5.57351 26
382 1 -13.1381 3.81748 -2.29585 26
383 1 -16.4056 5.72135 -4.89561 13
384 1 -14.7306 2.8191 -4.96545 21
385 1 -13.0367 3.87096 -7.63883 22
386 1 -13.1215 5.72754 -4.93582 26
387 2 -16.1774 3.95993 -5.44888 14
388 2 -14.5592 2.81715 -8.0576 15
389 2 -13.068 3.84506 -5.58289 25
390 2 -13.1983 5.82821 -8.24732 17
391 1 -11.4595 2.85323 -4.95154 26
392 1 -9.82954 3.80782 -7.62566 26
393 1 -9.84591 5.75669 -4.9847 26
394 2 -11.4318 2.79284 -8.21965 25
395 2 -9.83171 3.8388 -5.59409 26
396 2 -9.81217 5.68548 -8.26013 26
397 1 -8.18249 2.89801 -4.95265 26
398 1 -6.55738 3.81332 -7.61808 26
399 1 -6.54657 5.76521 -4.96045 26
400 1 -4.91881 2.89851 -4.95024 26
401 2 -8.18883 2.83105 -8.22807 26
402 2 -6.54458 3.86557 -5.59457 26
403 2 -6.50892 5.70826 -8.24471 26
404 2 -4.90679 2.8611 -8.2302 26
405 1 -3.28139 3.82775 -7.59378 26
406 1 -3.26412 5.74018 -4.92246 26
407 1 -1.65335 2.86188 -4.92994 26
408 2 -3.26602 3.8523 -5.56971 26
409 2 -3.24218 5.74349 -8.20357 26
410 2 -1.6344 2.88148 -8.21941 26
411 1 -14.8603 6.35385 -7.53108 12
412 1 -14.656 8.52984 -4.89787 16
413 1 -12.7853 9.88071 -7.51297 12
414 2 -14.8551 6.76185 -5.67262 16
415 2 -13.2372 9.60053 -5.67832 17
416 1 -11.4497 6.68955 -7.66708 25
417 1 -11.4783 8.62056 -4.92753 26
418 1 -9.79507 9.47216 -7.65976 22
419 2 -11.5166 6.73343 -5.62081 26
420 2 -11.592 8.62644 -8.26576 17
421 2 -9.84237 9.53071 -5.59034 25
422 1 -8.18053 6.64385 -7.64547 26
423 1 -8.18852 8.61233 -4.95547 26
424 1 -4.9074 6.68908 -7.59404 26
425 1 -6.55851 9.55411 -7.59613 26
426 1 -4.90519 8.62158 -4.92187 26
427 2 -8.18804 6.71192 -5.61073 26
428 2 -8.11542 8.5289 -8.23353 25
429 2 -4.87877 6.72827 -5.56557 26
430 2 -6.53129 9.59171 -5.56836 26
431 2 -4.9022 8.60195 -8.21999 26
432 1 -1.62195 6.68333 -7.5532 26
433 1 -3.28387 9.52805 -7.56934 26
434 1 -1.60585 8.5899 -4.90297 26
435 2 -1.59558 6.70048 -5.5327 26
436 2 -3.22177 9.57365 -5.54942 26
437 2 -1.60385 8.60628 -8.18948 26
438 1 -13.1391 -7.62909 -2.17629 24
439 2 -14.5311 -8.75975 -3.06189 15
440 2 -13.2163 -7.62965 -0.181047 24
441 1 -9.85278 -7.60556 -2.23176 26
442 2 -11.4879 -8.55451 -2.89828 26
443 2 -9.91989 -7.61756 -0.225007 26
444 1 -6.61255 -7.61792 -2.28669 26
445 2 -8.26069 -8.59812 -2.9203 26
446 2 -6.64087 -7.61569 -0.268769 26
447 2 -4.98269 -8.57232 -2.93765 26
448 1 -3.34448 -7.60521 -2.30592 26
449 2 -3.3686 -7.61211 -0.28541 26
450 2 -1.69313 -8.54116 -2.94686 26
451 1 -16.3662 3.76228 -2.2724 16
452 1 -14.7184 -4.78823 -2.19382 20
453 2 -16.1293 -5.67973 -3.1237 13
454 2 -14.8282 -4.83966 -0.229941 21
455 2 -14.8291 -2.90766 -2.87733 23
456 2 -13.0817 -5.75397 -2.92051 25
457 1 -11.4767 -4.75401 -2.23267 26
458 2 -11.5048 -4.78495 -0.236964 26
459 2 -11.528 -2.87559 -2.92263 26
460 2 -9.85586 -5.71144 -2.92754 26
461 1 -8.21716 -4.73981 -2.26323 26
462 1 -4.95476 -4.7387 -2.30486 26
463 2 -8.23827 -4.75442 -0.251644 26
464 2 -8.23553 -2.84901 -2.92687 26
465 2 -6.60023 -5.70797 -2.93294 26
466 2 -4.96782 -4.75584 -0.28904 26
467 2 -4.95871 -2.8372 -2.94346 26
468 1 -1.68443 -4.72491 -2.31699 26
469 2 -3.31776 -5.69728 -2.94191 26
470 2 -1.69667 -4.74252 -0.300943 26
471 2 -1.66986 -2.81444 -2.935 26
472 2 -18.0853 0.856715 -0.248229 10
473 1 -16.4 -1.89061 -2.14479 17
474 1 -13.1621 -1.90549 -2.2346 26
475 2 -16.1892 -1.83938 -0.273993 17
476 2 -16.1066 -0.26223 -3.05566 16
477 2 -13.1112 -1.95485 -0.247766 26
478 2 -13.116 -0.0329927 -2.92317 26
479 1 -14.7939 0.935133 -2.22546 24
480 2 -14.7741 0.945842 -0.24675 24
481 1 -9.87628 -1.88798 -2.27503 26
482 2 -9.873 -1.91641 -0.270034 26
483 2 -9.86407 0.00488824 -2.92494 26
484 1 -11.5137 0.972917 -2.27037 26
485 2 -11.5315 0.927742 -0.265593 26
486 1 -6.59175 -1.87179 -2.2964 26
487 2 -6.60524 -1.8956 -0.283567 26
488 2 -6.58472 0.0298504 -2.92476 26
489 1 -8.23101 0.995541 -2.2945 26
490 1 -4.94664 0.998079 -2.30166 26
491 2 -8.2476 0.958765 -0.280804 26
492 2 -4.95151 0.948347 -0.287471 26
493 1 -3.3213 -1.86971 -2.31359 26
494 2 -3.33339 -1.90434 -0.299426 26
495 2 -3.30544 0.0374288 -2.93052 26
496 1 -1.66062 0.963542 -2.27988 26
497 2 -1.65449 0.918508 -0.264096 26
498 2 0.00916838 9.50272 -0.215672 26
499 2 -0.0177872 3.76767 -0.235085 26
500 1 -0.0252589 3.80702 -2.25171 26
501 2 -0.0138228 -5.81588 -13.5261 26
502 2 -0.0581834 -1.92936 -15.9192 16
503 1 -0.0459232 -0.0319003 -15.6048 22
504 2 -0.0282548 -0.00933126 -13.4488 26
505 1 -0.00374145 -7.70175 -12.8786 26
506 2 -0.0218609 -7.59662 -10.8674 25
507 1 -0.0322895 -5.69741 -10.2787 26
508 1 -0.00561803 -0.0134385 -10.2605 26
509 2 -0.0199344 -1.91146 -10.865 26
510 2 -0.00560615 0.0217088 -2.89643 26
511 2 -0.0316227 -1.91516 -0.275756 26
512 1 -0.017626 -1.89129 -2.29306 26
513 1 -0.0152656 3.8126 -12.9413 26
514 2 0.0516712 9.52022 -10.8666 26
515 1 -0.0132471 -7.56705 -7.6141 26
516 2 -0.0274297 -7.56205 -5.58639 26
517 1 -0.0311103 -5.66805 -4.9611 26
518 1 9.29027e-04 -1.88699 -7.59538 26
519 1 -0.00633362 0.0104479 -4.91991 26
520 2 -0.00557144 3.8228 -5.54647 26
521 1 0.011318 9.55119 -7.57053 26
522 1 -0.0565736 -7.57859 -2.31954 26
523 2 -0.0743928 -7.5843 -0.300928 26
524 2 -0.03005 -5.6648 -2.94324 26
525 1 -14.7434 -8.67824 0.604286 17
526 1 -13.103 -7.54495 3.11695 22
527 2 -14.6978 -8.44594 2.52348 16
528 1 -11.535 -8.59831 0.467043 26
529 1 -9.87429 -7.59546 3.10152 25
530 2 -11.5127 -8.52309 2.47864 25
531 1 -8.26493 -8.58676 0.406997 26
532 1 -4.99753 -8.58983 0.374089 26
533 1 -6.63503 -7.63118 3.04017 26
534 2 -8.28183 -8.58504 2.42547 26
535 2 -5.01766 -8.60958 2.39818 26
536 1 -1.71289 -8.5618 0.343854 26
537 1 -3.37338 -7.65348 3.01467 26
538 2 -1.72597 -8.58021 2.36494 26
539 1 -16.5048 -5.64007 0.324753 13
540 1 -14.7528 -2.90262 0.445832 23
541 1 -14.8891 -4.81385 3.11028 20
542 1 -13.1491 -5.72032 0.447924 25
543 2 -16.3127 -5.62994 2.14199 12
544 2 -14.8362 -2.91021 2.42896 23
545 2 -13.1361 -5.69323 2.44608 25
546 1 -11.492 -2.87802 0.41783 26
547 1 -11.5315 -4.72306 3.08874 25
548 1 -9.86065 -5.72199 0.429516 26
549 2 -11.5201 -2.85212 2.41884 26
550 2 -9.89285 -5.70016 2.44372 26
551 1 -8.2332 -2.85094 0.386053 26
552 1 -8.2448 -4.73968 3.0542 26
553 1 -6.59535 -5.72286 0.371865 26
554 1 -4.97013 -2.86008 0.346467 26
555 1 -4.98655 -4.7824 3.009 26
556 2 -8.24465 -2.85037 2.39962 26
557 2 -6.63431 -5.73186 2.38971 26
558 2 -4.9782 -2.88775 2.36287 26
559 1 -3.32832 -5.7169 0.34389 26
560 1 -1.69253 -2.85165 0.339299 26
561 1 -1.72533 -4.79234 2.9901 26
562 2 -3.35997 -5.75474 2.36337 26
563 2 -1.70134 -2.89269 2.35697 26
564 1 -16.5185 0.0180353 0.43166 16
565 1 -16.4733 -1.9507 2.99006 16
566 1 -13.1828 -0.0362635 0.403547 26
567 1 -13.1996 -1.90675 3.03451 26
568 2 -16.1842 -0.177113 2.37299 16
569 2 -13.1211 -0.00994615 2.40731 26
570 1 -14.7838 0.996033 3.02364 23
571 1 -9.88599 -0.00736131 0.371524 26
572 1 -9.88814 -1.89094 3.05526 26
573 2 -9.85926 -0.0137185 2.38022 26
574 1 -11.507 0.963736 3.02601 26
575 1 -6.60516 0.00575515 0.348326 26
576 1 -6.59895 -1.90061 3.01697 26
577 2 -6.57788 -0.00990838 2.36236 26
578 1 -8.22833 0.950272 3.0088 26
579 1 -4.9376 0.931214 2.9978 26
580 1 -3.32028 -0.0146811 0.347364 26
581 1 -3.33957 -1.93948 2.99826 26
582 2 -3.30067 -0.0435404 2.36286 26
583 1 -1.6561 0.884891 3.0089 26
584 1 -16.4193 5.72806 0.384526 15
585 1 -14.7998 2.84332 0.376628 24
586 1 -16.4758 3.82018 2.99341 13
587 1 -13.1638 5.71272 0.355929 26
588 1 -13.1622 3.81186 3.01143 26
589 2 -16.224 5.56061 2.25669 14
590 2 -14.8139 2.87237 2.36813 23
591 2 -13.0797 5.68552 2.34242 26
592 1 -11.5103 2.84295 0.366446 26
593 1 -9.87731 5.72645 0.387634 26
594 1 -9.87468 3.81929 3.03143 26
595 2 -11.489 2.84928 2.37008 26
596 2 -9.84613 5.7235 2.40038 26
597 1 -8.24075 2.86057 0.364885 26
598 1 -6.58346 5.69923 0.381637 26
599 1 -4.95506 2.83936 0.361859 26
600 1 -6.5839 3.79822 3.01632 26
601 2 -8.21984 2.85097 2.37869 26
602 2 -6.56304 5.70736 2.39792 26
603 2 -4.93645 2.83321 2.37572 26
604 1 -3.29844 5.66801 0.37665 26
605 1 -1.66747 2.80896 0.379515 26
606 1 -3.29526 3.76951 3.01448 26
607 2 -3.28298 5.67496 2.39076 26
608 2 -1.65725 2.78914 2.39496 26
609 1 -14.7302 8.54944 0.424128 17
610 1 -14.7955 6.6214 3.0626 20
611 1 -13.1531 9.52921 3.09712 19
612 2 -14.5652 8.42567 2.29817 17
613 1 -11.4871 8.59893 0.38286 26
614 1 -11.5255 6.69238 3.05948 26
615 1 -9.86448 9.5471 3.04282 26
616 2 -11.4511 8.57144 2.37223 26
617 1 -8.18469 8.56292 0.393353 26
618 1 -8.21902 6.67941 3.03908 26
619 1 -4.91388 8.53724 0.401783 26
620 1 -4.92455 6.64281 3.04304 26
621 1 -6.55888 9.52262 3.05738 26
622 2 -8.19164 8.59006 2.40377 26
623 2 -4.90787 8.55099 2.4185 26
624 1 -1.63938 8.52735 0.414999 26
625 1 -1.65142 6.62952 3.02775 26
626 1 -3.29352 9.51963 3.07122 26
627 2 -1.65068 8.54985 2.43047 26
628 1 -15.0305 -8.54598 4.9382 7
629 1 -13.1995 -7.5162 8.32479 14
630 2 -13.341 -7.64783 5.26256 16
631 1 -11.5802 -8.45797 5.75329 22
632 1 -9.93385 -7.63603 8.38188 24
633 2 -11.7243 -8.60898 7.89956 16
634 2 -9.92575 -7.55322 5.12836 26
635 1 -8.29902 -8.59273 5.70053 25
636 1 -5.00973 -8.61232 5.69055 26
637 1 -6.64786 -7.6471 8.35675 25
638 2 -8.30565 -8.55211 7.7208 26
639 2 -6.65044 -7.63953 5.06293 26
640 2 -5.02119 -8.61005 7.71978 26
641 1 -1.71263 -8.57749 5.66206 26
642 1 -3.37138 -7.64282 8.31359 26
643 2 -3.37868 -7.64911 5.03921 26
644 2 -1.72017 -8.5624 7.68523 26
645 1 -14.8793 -2.80819 5.62801 19
646 1 -14.9129 -4.64779 8.31302 11
647 1 -13.1845 -5.67246 5.73639 22
648 2 -14.6722 -4.68679 5.04768 19
649 2 -14.6279 -2.9819 7.5626 14
650 2 -13.3899 -5.72759 7.8053 16
651 1 -11.5445 -2.82342 5.7032 25
652 1 -11.6324 -4.73638 8.359 23
653 1 -9.89117 -5.66021 5.74304 23
654 2 -11.5289 -4.75541 5.10236 26
655 2 -11.5267 -2.88215 7.69764 26
656 2 -9.99976 -5.7546 7.75436 26
657 1 -8.23925 -2.85031 5.70939 26
658 1 -8.31768 -4.79447 8.35961 25
659 1 -6.63347 -5.74383 5.69368 26
660 1 -4.97932 -2.90572 5.66832 26
661 1 -5.01235 -4.8 8.32287 26
662 2 -8.24663 -4.74981 5.07287 26
663 2 -8.26089 -2.90004 7.72733 26
664 2 -6.66367 -5.74885 7.71653 26
665 2 -4.99867 -4.80023 5.0288 26
666 2 -4.97738 -2.90069 7.6943 26
667 1 -3.35982 -5.75343 5.65867 26
668 1 -1.70356 -2.8948 5.65442 26
669 1 -1.72601 -4.77615 8.31009 26
670 2 -3.3616 -5.7367 7.68408 26
671 2 -1.73332 -4.78379 5.00982 26
672 2 -1.69749 -2.87027 7.68289 26
673 1 -16.5421 0.083269 5.46939 12
674 1 -13.161 0.0379876 5.65047 25
675 1 -13.2107 -1.87861 8.30898 21
676 2 -16.3138 -1.69759 4.90025 13
677 2 -13.1432 -1.87275 5.03064 26
678 2 -13.1818 -9.12083e-06 7.64481 23
679 1 -14.8092 0.94104 8.36046 14
680 2 -14.8524 0.904172 5.06685 22
681 1 -9.86405 -6.14791e-04 5.69397 26
682 1 -9.92359 -1.93423 8.38756 26
683 2 -9.86625 -1.91008 5.06695 26
684 2 -9.87194 -0.0520205 7.71017 26
685 1 -11.5404 0.897054 8.36887 26
686 2 -11.4725 0.949588 5.02974 26
687 1 -6.58207 -0.0225948 5.65889 26
688 1 -6.62577 -1.93118 8.32455 26
689 2 -6.59203 -1.924 5.0344 26
690 2 -6.59101 -0.0383809 7.67902 26
691 1 -8.24918 0.923202 8.31511 26
692 1 -4.96532 0.925779 8.30353 26
693 2 -8.20548 0.930759 5.02397 26
694 2 -4.92857 0.918161 5.01379 26
695 1 -3.31874 -0.0611953 5.65569 26
696 1 -3.3497 -1.93865 8.32548 26
697 2 -3.3431 -1.95516 5.01626 26
698 2 -3.3188 -0.0454029 7.68229 26
699 1 -1.67037 0.893086 8.29719 26
700 2 -1.6598 0.868387 5.02893 26
701 1 -14.8474 2.88263 5.68996 18
702 1 -13.1979 5.67513 5.69124 22
703 1 -13.2162 3.74755 8.32478 20
704 2 -16.4187 3.48093 4.81823 13
705 2 -14.6239 2.6437 7.58904 16
706 2 -13.1432 3.77463 4.99938 25
707 2 -12.9806 5.55738 7.64164 18
708 1 -11.5386 2.84859 5.69173 26
709 1 -9.89366 5.703 5.69855 26
710 1 -9.92772 3.78397 8.31571 25
711 2 -11.5005 2.75748 7.6965 26
712 2 -9.86735 3.79638 5.04482 26
713 2 -9.882 5.67766 7.71856 26
714 1 -8.24565 2.8327 5.66546 26
715 1 -6.60294 5.6793 5.67186 26
716 1 -4.95491 2.81433 5.65226 26
717 1 -6.62618 3.78427 8.29089 26
718 2 -8.2559 2.81775 7.68331 26
719 2 -6.58228 3.778 5.03234 26
720 2 -6.61792 5.68942 7.68794 26
721 2 -4.96449 2.82225 7.67216 26
722 1 -3.29721 5.64172 5.67682 26
723 1 -1.66424 2.77344 5.64466 26
724 1 -3.31911 3.75276 8.30175 26
725 2 -3.29028 3.74973 5.03021 26
726 2 -3.3147 5.65955 7.69709 26
727 2 -1.66932 2.79151 7.67114 26
728 1 -14.8728 8.56034 5.64578 8
729 2 -14.6051 6.82357 5.00013 15
730 2 -13.239 9.26407 5.03741 15
731 1 -11.5306 8.61147 5.70839 21
732 1 -11.5624 6.65523 8.32989 21
733 1 -9.90183 9.55607 8.34279 20
734 2 -11.4953 6.66476 5.06038 26
735 2 -11.3465 8.44901 7.66046 18
736 2 -9.83718 9.53081 5.02844 25
737 1 -8.24173 8.56103 5.69613 26
738 1 -8.27855 6.66978 8.31594 25
739 1 -4.93524 8.51005 5.70962 26
740 1 -4.97499 6.61397 8.32457 26
741 1 -6.59738 9.5036 8.36935 26
742 2 -8.22126 6.65251 5.05078 26
743 2 -8.19304 8.55763 7.69954 26
744 2 -4.92178 6.61389 5.06059 26
745 2 -6.54551 9.48395 5.06659 26
746 2 -4.94524 8.52508 7.72767 26
747 1 -1.65412 8.49352 5.69688 26
748 1 -1.67927 6.61929 8.31108 26
749 1 -3.31881 9.48163 8.34609 25
750 2 -1.65306 6.60633 5.0425 26
751 2 -3.27511 9.48845 5.09098 26
752 2 -1.65379 8.53692 7.71639 26
753 1 -11.4919 -8.47434 11.4512 10
754 2 -10.1054 -7.75959 10.3705 17
755 1 -8.32545 -8.61159 10.9786 19
756 1 -4.96444 -8.61644 10.9927 25
757 2 -7.97334 -8.70442 12.8557 15
758 2 -6.60671 -7.67134 10.3681 26
759 2 -5.01124 -8.68523 13.0404 21
760 1 -1.665 -8.58493 10.9758 26
761 2 -3.32931 -7.66817 10.3353 26
762 2 -1.66391 -8.65902 12.9873 24
763 1 -11.6779 -3.01785 11.0869 18
764 1 -9.96795 -5.77056 11.0256 20
765 2 -11.491 -4.82643 10.2873 20
766 2 -11.4114 -2.61296 12.9312 14
767 2 -9.70534 -5.74519 12.9087 16
768 1 -8.29496 -2.94006 11.0084 26
769 1 -6.64406 -5.78125 11.0074 25
770 1 -4.99629 -2.9357 10.9481 26
771 2 -8.26527 -4.8414 10.3636 26
772 2 -8.26015 -2.92805 13.0673 22
773 2 -6.64061 -5.79827 13.063 22
774 2 -4.98733 -4.84199 10.3463 26
775 2 -4.99636 -2.93385 12.9649 26
776 1 -3.31965 -5.76524 10.9419 26
777 1 -1.67225 -2.90096 10.9747 26
778 2 -3.30712 -5.77 12.9415 26
779 2 -1.66946 -4.78256 10.3376 26
780 2 -1.67443 -2.90189 13.0447 26
781 1 -13.1895 -0.144832 11.0033 15
782 2 -12.9883 -1.88441 10.2421 17
783 2 -14.6356 0.660648 10.1728 11
784 1 -9.90585 -0.075092 11.0066 25
785 2 -9.89621 -1.96828 10.3945 26
786 2 -9.95274 -0.0408817 13.0646 21
787 2 -11.5604 0.84058 10.4227 24
788 1 -6.62621 -0.0631355 10.9335 26
789 2 -6.63333 -1.98238 10.3468 26
790 2 -6.59125 -0.0300558 12.9292 26
791 2 -8.26062 0.890565 10.3339 26
792 2 -4.95259 0.88919 10.3269 26
793 1 -3.33396 -0.0575297 10.9651 26
794 2 -3.32341 -1.96637 10.3651 26
795 2 -3.32763 -0.041987 13.036 26
796 2 -1.66305 0.872823 10.3439 26
797 1 -13.3055 5.70102 10.8164 9
798 2 -12.9298 3.97283 10.2795 15
799 1 -11.5873 2.77789 10.962 21
800 1 -9.97791 5.72383 10.8743 23
801 2 -11.2824 2.64635 12.9334 14
802 2 -9.90693 3.7802 10.3287 26
803 2 -9.6859 5.59435 12.819 15
804 1 -8.28415 2.81111 10.9236 26
805 1 -6.64329 5.66426 10.9391 25
806 1 -4.99346 2.80403 10.9396 26
807 2 -8.29572 2.86604 12.9345 24
808 2 -6.61253 3.7569 10.3064 26
809 2 -6.64424 5.7446 12.9526 24
810 2 -4.92593 2.81978 12.9489 26
811 1 -3.33038 5.63717 10.9406 25
812 1 -1.67454 2.78914 10.9474 26
813 2 -3.30785 3.72215 10.3264 26
814 2 -3.30066 5.68246 12.9386 26
815 2 -1.65652 2.82482 13.0172 26
816 1 -11.6061 8.60701 10.8499 9
817 2 -11.7307 6.73775 10.45 16
818 2 -9.93384 9.17833 10.2899 15
819 1 -8.22532 8.59091 10.9545 21
820 1 -4.93896 8.49286 10.9902 25
821 2 -8.2521 6.64686 10.3257 26
822 2 -7.94532 8.43477 12.9205 14
823 2 -4.96151 6.60007 10.3433 26
824 2 -6.51579 9.54737 10.4158 24
825 2 -4.95796 8.64647 13.037 19
826 1 -1.6498 8.49321 10.9976 25
827 2 -1.67713 6.60422 10.3325 26
828 2 -3.27578 9.42756 10.3584 26
829 2 -1.65157 8.56807 13.0552 22
830 1 -6.61187 -7.68014 13.631 14
831 1 -3.30686 -7.70341 13.5865 21
832 2 -3.40933 -7.47286 15.4682 15
833 1 -8.26405 -4.81354 13.637 14
834 1 -4.97744 -4.85433 13.5925 23
835 2 -4.62388 -4.64318 15.5278 15
836 1 -4.99293 -2.91798 16.1629 13
837 1 -1.67966 -4.8544 13.6108 26
838 2 -1.62028 -4.77743 15.7269 21
839 1 -3.28299 -5.79667 16.2428 12
840 1 -1.67824 -2.90093 16.0675 16
841 1 -9.85613 -1.91621 13.655 14
842 1 -11.493 0.94569 13.6764 12
843 1 -6.64004 -1.91898 13.5948 23
844 2 -6.27952 -1.7149 15.5337 15
845 1 -8.27535 0.973343 13.5601 20
846 1 -5.01447 0.949218 13.6102 26
847 2 -8.09607 0.767347 15.4366 14
848 2 -4.91148 0.953916 15.7361 19
849 1 -6.62547 0.0195076 16.2527 12
850 1 -3.37516 -1.97334 13.5569 26
851 2 -3.29906 -1.94249 15.6845 22