ITEM: TIMESTEP
58000
ITEM: NUMBER OF ATOMS
2000
ITEM: BOX BOUNDS pp pp pp
-30.0 30.0
-30.0 30.0
-30.0 30.0
ITEM: ATOMS id type x y z Coordination
1 1 0.965482 7.28045 -16.2225 18
2 1 6.6443 -5.5106 -8.43943 24
3 1 15.6934 15.9398 13.1987 11
4 1 20.0402 -6.80971 4.8894 11
5 1 -0.687102 15.8351 -10.6515 15
6 1 17.8874 -5.56934 -16.275 11
7 1 -2.28627 6.62681 -10.8607 18
8 1 12.4943 -5.2558 9.06432 12
9 1 1.213 8.95587 -13.4595 21
10 1 -4.26448 -4.37882 -0.151986 11
11 1 25.2019 5.82958 -15.7003 10
12 1 3.71161 5.89647 -2.78071 23
13 1 5.08549 -10.4815 -6.23533 19
14 1 -1.35373 -3.06636 -3.34938 20
15 1 8.33943 3.25593 12.7607 12
16 1 20.4468 -4.02241 4.8015 18
17 1 12.0847 7.01671 4.5012 22
18 1 18.8228 1.30188 -1.08799 22
19 1 11.4326 14.4745 -9.52407 23
20 1 14.9843 4.69081 10.1683 20
21 1 4.65306 -0.384106 -20.4294 9
22 1 -0.817558 3.72492 8.67446 17
23 1 22.988 11.6723 3.20383 22
24 1 17.1978 13.6082 -17.5278 13
25 1 12.6924 9.92269 -11.6705 22
26 1 24.5329 6.30795 9.75227 9
27 1 2.05271 3.29721 2.75074 22
28 1 -3.79439 10.9962 -14.5075 11
29 1 7.29362 3.10004 -13.7399 22
30 1 0.143014 14.3762 6.08016 15
31 1 19.034 -7.7512 2.01969 18
32 1 12.1911 1.14966 4.67964 24
33 1 13.1953 -11.8468 -11.7621 11
34 1 23.525 -7.78167 -0.303706 10
35 1 5.02971 -7.88586 -8.31294 22
36 1 -1.47306 -1.2929 7.41261 15
37 1 13.2498 0.170325 -8.5866 23
38 1 11.7047 -4.49564 -11.1558 19
39 1 19.2535 -2.36972 -16.4771 10
40 1 10.9299 7.37259 -16.128 23
41 1 10.0128 6.77398 11.2197 19
42 1 3.68583 -5.60659 -2.64828 24
43 1 17.3561 -2.8985 9.39498 12
44 1 0.370396 4.03181 -0.35627 21
45 1 -4.40432 3.23446 3.56332 14
46 1 -0.12787 9.71222 -5.31196 21
47 1 9.70539 15.6884 -6.40455 20
48 1 9.75208 -12.0655 -11.1232 10
49 1 10.6812 3.19679 -13.6726 25
50 1 14.9841 -8.53392 -9.00362 19
51 1 9.30392 -0.993159 10.1401 16
52 1 -1.6297 12.0354 -0.606779 21
53 1 19.3407 15.1936 -15.5837 12
54 1 8.38457 19.2365 7.70438 12
55 1 1.34572 8.80141 -8.2668 22
56 1 7.01944 17.7244 -3.77996 19
57 1 15.9955 -7.98352 1.68429 21
58 1 18.572 -4.75801 -11.6625 18
59 1 13.5564 -2.95871 -19.0121 13
60 1 0.720609 14.6831 11.9745 11
61 1 -4.02362 -1.62482 -11.2537 8
62 1 16.9 5.95782 1.45763 21
63 1 3.03167 11.6693 -8.51153 22
64 1 3.90007 -5.46666 2.22982 20
65 1 5.83435 15.8744 12.075 12
66 1 -4.34635 8.87963 -9.19511 15
67 1 3.2816 16.5624 10.1902 15
68 1 13.3507 9.87952 -6.19556 20
69 1 11.3065 13.1462 3.90609 21
70 1 1.8431 -10.0067 5.14354 9
71 1 10.9028 14.7393 11.0854 18
72 1 19.8278 -7.31854 -6.30125 19
73 1 18.755 13.3618 13.713 9
74 1 -1.234 9.32749 -15.1814 17
75 1 -0.357406 9.74584 -11.1187 18
76 1 15.7043 7.77247 7.95496 22
77 1 18.144 1.20584 -11.937 19
78 1 21.0927 -5.41589 1.79269 21
79 1 -2.93412 3.44192 0.239821 21
80 1 1.693 2.95427 -2.79122 23
81 1 14.8654 15.739 4.56662 21
82 1 17.1684 0.107563 9.78664 19
83 1 -0.072583 -5.8578 -3.86604 22
84 1 1.99755 1.19127 -0.153517 22
85 1 27.1158 7.19494 3.82796 13
86 1 19.9499 4.53399 -6.46537 22
87 1 6.01041 16.8953 9.09644 15
88 1 17.265 4.01874 4.11699 20
89 1 3.33574 -0.00532769 -2.72384 23
90 1 6.62186 -1.48865 -10.9955 24
91 1 -2.79578 13.5228 6.28058 15
92 1 0.133935 13.995 -7.95908 21
93 1 10.5327 8.43187 -13.889 21
94 1 16.755 4.53659 -6.51184 21
95 1 14.7637 3.18962 -8.79616 25
96 1 21.8359 15.4673 -10.3884 10
97 1 20.5055 -1.9006 -1.19012 19
98 1 15.6038 -5.03841 4.11766 19
99 1 4.43959 18.6823 -11.5154 13
100 1 2.50446 17.659 1.66538 18
101 1 3.5616 0.649549 10.4632 18
102 1 5.04663 12.8608 -1.41288 19
103 1 5.87056 -4.5627 10.4328 11
104 1 19.974 -1.86135 -11.7144 21
105 1 3.3341 9.87515 -0.368932 21
106 1 -1.09893 -10.7741 -0.633834 11
107 1 18.1025 -2.50409 -9.08748 19
108 1 18.9178 1.04842 -16.5953 19
109 1 2.80519 2.57551 -18.7501 16
110 1 15.5039 3.1765 1.78641 23
111 1 6.97696 16.9638 0.958461 20
112 1 4.55599 8.9033 -8.38223 22
113 1 9.98911 12.4914 14.6789 9
114 1 15.1525 19.4633 -6.33413 19
115 1 -1.36439 16.544 -4.80907 16
116 1 10.0227 11.7354 1.39465 18
117 1 5.77896 -4.586 4.66419 22
118 1 23.5013 3.05646 5.09134 14
119 1 9.73412 -1.64525 -11.452 23
120 1 14.7504 -2.5349 -8.68427 22
121 1 8.87637 6.97201 4.7584 21
122 1 15.5158 1.87771 12.1768 9
123 1 1.74563 -2.50121 -8.05282 21
124 1 17.0288 -0.112197 1.50168 19
125 1 1.93545 -4.64448 -5.40411 21
126 1 23.6891 -1.20932 -1.13538 19
127 1 6.78308 11.5047 -3.52704 20
128 1 20.2842 9.00181 -16.3218 15
129 1 16.8395 20.5585 -8.74416 13
130 1 2.38718 -6.13707 9.75492 8
131 1 5.55161 -10.0387 4.67464 15
132 1 4.97251 8.88096 -2.73616 24
133 1 14.8816 -7.29975 -16.4276 10
134 1 14.9338 7.1357 -6.43963 23
135 1 24.4078 -4.38713 0.833979 12
136 1 8.27117 -10.5012 3.95839 18
137 1 -1.65152 -4.53942 -5.98581 18
138 1 25.1393 11.551 6.78827 13
139 1 23.2695 0.792089 -9.90099 16
140 1 -5.09203 3.59798 -2.63868 13
141 1 21.3393 13.3457 -0.291393 21
142 1 24.607 12.9155 0.24749 17
143 1 2.48457 6.31983 12.6893 14
144 1 18.2661 8.88796 -3.93996 20
145 1 5.28396 13.73 9.43665 18
146 1 2.77362 15.1123 -6.2527 22
147 1 9.73139 -4.68628 -15.0369 17
148 1 21.2273 -8.8541 -9.00085 12
149 1 12.4543 18.1034 -11.8181 16
150 1 20.6273 -1.37478 4.14015 17
151 1 8.7266 0.253108 -20.4343 12
152 1 4.97489 14.3535 -7.9349 20
153 1 21.336 9.34481 -4.81705 18
154 1 -0.451133 11.5678 -9.13237 18
155 1 0.97978 18.613 -6.28687 14
156 1 17.4941 6.9692 -11.9363 24
157 1 19.1593 -2.70049 1.79886 19
158 1 6.48908 4.14999 -11.1824 24
159 1 7.03047 19.7113 5.09011 12
160 1 21.1677 9.19552 -10.2223 20
161 1 16.5733 17.5264 -4.17301 21
162 1 9.18378 20.1473 -4.24849 16
163 1 26.2076 10.1901 -7.2977 14
164 1 11.6089 14.4118 -4.32624 20
165 1 10.6345 17.1882 -8.8104 22
166 1 14.431 17.4949 -14.085 12
167 1 -2.96237 -1.74113 -0.262807 16
168 1 -3.80369 14.6511 -5.8312 12
169 1 9.28721 0.217668 -13.794 26
170 1 12.0117 -6.45102 -14.7199 20
171 1 19.7099 19.3305 5.13022 9
172 1 14.5482 18.6933 4.73895 15
173 1 -5.13052 0.896445 -4.47861 11
174 1 1.77538 16.8541 -3.30505 19
175 1 24.7765 1.96595 -7.44368 15
176 1 -1.35354 5.81481 -17.3982 9
177 1 17.6493 3.14987 8.69965 21
178 1 12.8747 21.2022 -1.2841 14
179 1 8.61686 12.7812 5.16551 21
180 1 9.94469 -1.45009 -16.3051 23
181 1 3.25264 18.9398 4.78963 10
182 1 7.8271 12.828 -6.15751 23
183 1 14.3255 -2.03904 9.46031 14
184 1 -3.61937 -5.58026 -2.95687 15
185 1 7.70936 -9.97336 -12.6649 12
186 1 4.39204 13.0854 -10.7617 23
187 1 10.6792 -5.57659 2.18759 23
188 1 15.4592 -8.4028 -3.19999 19
189 1 3.86984 13.1731 -16.0344 15
190 1 -4.75332 5.90658 5.12786 12
191 1 13.04 11.45 -9.36137 22
192 1 19.3356 11.6656 -10.2546 22
193 1 2.37806 9.05586 14.5943 9
194 1 11.0611 -7.69189 4.3575 20
195 1 2.0243 6.86554 0.0817535 23
196 1 11.8708 20.3383 1.69233 13
197 1 11.7751 11.3448 6.81867 22
198 1 20.6435 9.68405 8.93119 19
199 1 -0.47348 16.9262 1.24972 13
200 1 21.2099 1.26822 -11.8186 24
201 1 4.7836 19.0801 7.6907 13
202 1 4.85888 3.11735 -8.32481 23
203 1 24.5717 2.16482 -2.03721 17
204 1 3.88303 4.02838 5.25007 23
205 1 -1.19083 5.96129 5.14657 22
206 1 1.79139 -4.77666 -0.474146 19
207 1 11.6875 6.97933 13.8367 12
208 1 -5.41885 8.57645 -2.40102 12
209 1 5.18926 -8.12324 -2.98364 20
210 1 3.17833 3.71061 -5.17402 24
211 1 16.7672 -1.72276 -6.31015 22
212 1 4.82651 14.7462 -3.92983 21
213 1 4.12132 5.68803 7.60002 21
214 1 16.839 18.1385 6.99977 16
215 1 -0.521614 5.92512 -8.15779 22
216 1 1.9528 17.8364 -12.84 13
217 1 -0.486314 -1.70446 -10.5304 19
218 1 2.25189 2.70668 8.12949 22
219 1 10.0476 -6.382 7.0504 18
220 1 13.3296 -11.8392 1.59215 13
221 1 -2.44319 17.5483 -1.26893 10
222 1 27.9322 9.39378 0.990746 13
223 1 12.8448 6.11464 -9.02142 22
224 1 3.23514 0.0297476 -17.8939 16
225 1 13.9675 5.88437 7.32548 19
226 1 17.0848 -7.41985 -0.866325 21
227 1 6.15985 14.3454 -15.1807 14
228 1 14.9722 -11.9613 -9.13754 10
229 1 17.5291 2.93577 -14.2845 23
230 1 14.1118 6.11697 -17.0075 21
231 1 2.89181 0.232162 -13.4295 20
232 1 4.80897 17.2804 -14.8337 10
233 1 1.5545 -6.64942 6.6841 12
234 1 19.7575 16.077 -7.77018 14
235 1 0.946769 9.26933 11.2956 17
236 1 3.66121 17.4723 -8.29835 17
237 1 16.7992 5.11248 7.11388 18
238 1 4.4156 -3.46048 -18.2763 11
239 1 1.92776 15.263 -15.5276 14
240 1 9.42937 9.96563 -11.8138 20
241 1 3.3872 -8.91341 7.04305 11
242 1 2.08066 12.4904 4.80583 19
243 1 5.23675 12.7109 5.27546 22
244 1 11.504 -8.4094 -9.0184 16
245 1 1.71812 -8.08038 -2.65869 23
246 1 21.522 -2.50791 -9.16164 21
247 1 13.9433 -1.56547 -0.610887 23
248 1 18.9998 12.312 8.07503 19
249 1 17.3689 12.8735 -12.7949 19
250 1 11.597 12.6574 -7.10264 23
251 1 1.58621 8.53687 -2.78466 21
252 1 -2.71542 13.8554 -9.11356 17
253 1 12.5289 8.39129 7.39199 22
254 1 13.5309 -11.3481 -3.49212 18
255 1 23.4305 6.30742 -4.04409 23
256 1 10.5797 9.75421 4.94641 20
257 1 0.43433 11.3399 2.19493 19
258 1 0.0705407 -1.75506 -5.39199 19
259 1 17.502 8.25086 -15.1483 22
260 1 13.6916 -0.440014 6.79382 21
261 1 18.8241 11.9609 -15.736 17
262 1 15.0472 -4.47312 -6.68858 20
263 1 5.72994 6.14084 -13.7078 22
264 1 11.9319 -10.0579 -0.995269 19
265 1 25.1327 3.20946 -14.0085 13
266 1 -5.02139 -1.88637 -2.98191 12
267 1 13.5234 -7.38885 -6.77277 22
268 1 -0.398971 4.12831 -10.2971 24
269 1 13.1833 17.8147 -3.26554 19
270 1 8.79553 3.92232 -16.3386 21
271 1 16.6029 8.02567 11.1246 19
272 1 26.8396 6.73738 -4.86722 16
273 1 7.0878 -1.76631 -0.313786 23
274 1 17.0967 -3.66771 -13.9823 19
275 1 8.91063 -4.60588 -0.41323 23
276 1 4.69913 -1.74813 -16.1159 21
277 1 -2.78726 7.06199 -15.03 12
278 1 6.05006 -8.74267 1.91966 23
279 1 20.3676 2.32454 4.53407 18
280 1 16.2684 -0.9315 7.06675 21
281 1 4.51167 -2.8428 -13.4126 18
282 1 10.5961 -1.93817 4.78086 22
283 1 12.5393 10.7882 -15.9041 16
284 1 20.423 13.7047 -2.70277 21
285 1 3.72355 -1.86709 -0.32036 22
286 1 9.74196 15.6439 -0.601156 22
287 1 3.58251 9.74125 4.60509 21
288 1 0.888343 -2.77463 -13.2469 18
289 1 7.85347 0.758062 -16.2538 22
290 1 9.37241 9.45176 -17.7405 16
291 1 5.47172 -4.48754 -10.8017 21
292 1 1.78515 -2.93655 -2.86983 21
293 1 18.8132 0.523972 -19.446 7
294 1 20.5199 2.88737 -14.7326 19
295 1 23.4853 4.66368 -1.06146 20
296 1 10.0089 -1.59203 -6.00421 21
297 1 2.26886 1.13758 5.10015 24
298 1 5.04957 -4.56648 -5.47799 24
299 1 21.7899 7.08143 9.44597 18
300 1 6.6879 -14.094 -1.82704 7
301 1 8.37568 -10.232 -1.18597 21
302 1 8.63347 18.907 -6.84976 15
303 1 20.2151 3.71366 -18.9706 10
304 1 0.168488 2.42913 -17.524 11
305 1 15.2557 -2.79702 -3.41999 23
306 1 0.870077 -3.71627 7.69656 16
307 1 13.1618 13.1524 13.2181 17
308 1 17.3327 -5.42328 -3.76292 22
309 1 5.83212 -6.71517 -12.907 15
310 1 2.89991 5.8474 -8.19761 20
311 1 21.3701 5.2626 3.9639 21
312 1 4.53726 7.29589 -11.1437 23
313 1 11.67 13.9532 -15.3126 12
314 1 5.31418 1.15911 4.8293 23
315 1 22.2555 -6.98756 -11.6384 13
316 1 3.99268 17.9351 -5.2322 19
317 1 14.1214 13.3071 -1.1165 21
318 1 20.1818 6.14439 1.28993 20
319 1 -1.74639 6.41745 -0.260051 23
320 1 9.27375 -4.62298 9.85222 11
321 1 3.486 11.8172 1.66693 20
322 1 12.3057 0.247386 -13.6926 24
323 1 21.1139 12.9945 -8.08055 19
324 1 15.3997 -4.61027 -1.23977 23
325 1 7.19011 1.3932 10.2848 21
326 1 -2.99776 0.707491 2.13444 13
327 1 11.9569 -10.4739 -6.40856 22
328 1 1.24089 11.7391 13.4772 12
329 1 -1.24832 9.18224 9.2514 16
330 1 -3.54231 1.43515 7.30157 12
331 1 -1.39521 0.990986 4.52858 20
332 1 21.595 1.54891 -6.65697 23
333 1 -0.958719 -4.4295 5.28099 13
334 1 15.9514 3.95434 -11.5959 24
335 1 21.612 -4.50337 -11.7847 18
336 1 11.4185 21.2593 -7.38304 13
337 1 7.06536 0.0605222 2.40524 25
338 1 -1.45594 17.3526 -8.08217 10
339 1 13.9516 4.15679 4.66569 22
340 1 17.451 12.9887 5.7151 22
341 1 0.58496 -0.0205453 2.46625 21
342 1 22.0419 -4.49121 -6.33973 24
343 1 4.91895 14.9517 1.55416 19
344 1 0.00134989 9.67747 -0.213359 23
345 1 16.3362 -10.743 2.45488 10
346 1 25.1631 -1.28047 1.43886 12
347 1 7.05686 11.8709 7.93374 20
348 1 5.02014 1.35642 -10.4757 24
349 1 5.52284 4.50838 13.2118 12
350 1 8.64926 19.7748 1.98356 17
351 1 18.9589 10.7443 11.4813 16
352 1 1.17111 18.6299 -9.65377 12
353 1 6.15681 3.86223 -17.677 17
354 1 6.19122 5.97308 -8.07681 24
355 1 16.4478 -7.03332 -11.9101 18
356 1 -4.88364 11.471 5.31988 13
357 1 -3.43783 8.90139 0.494828 20
358 1 7.96688 1.20397 -11.2364 22
359 1 1.07124 12.0366 -6.30027 21
360 1 17.3062 -1.78424 4.48488 21
361 1 -1.50303 -9.06133 -3.20355 14
362 1 15.7557 -2.78945 1.91551 19
363 1 3.39102 -2.68823 9.26648 15
364 1 -2.57608 14.0602 -3.17074 17
365 1 8.8319 -2.57121 7.53545 19
366 1 10.1468 -5.51259 -8.32308 22
367 1 2.8595 4.08665 -10.7857 24
368 1 16.3634 2.44049 -19.9439 12
369 1 13.4595 17.6543 2.04061 19
370 1 -1.53528 3.12527 -2.26456 26
371 1 16.0895 -10.2907 -11.7978 14
372 1 18.6162 7.19681 -18.5918 15
373 1 3.31556 -5.31451 -8.18351 23
374 1 -2.61254 -3.50775 -8.65994 12
375 1 8.73009 -2.50621 -3.1802 21
376 1 17.1702 10.3246 8.66638 24
377 1 24.2727 8.1641 -0.94449 21
378 1 2.44793 6.04081 -13.3123 24
379 1 11.5637 21.5245 -4.52438 13
380 1 -1.91011 3.082 -7.78002 20
381 1 1.2859 14.4386 1.44583 21
382 1 6.85773 15.74 -1.45608 17
383 1 7.14336 10.03 4.88107 22
384 1 22.582 9.7446 6.00516 21
385 1 18.2525 3.25565 -9.15251 22
386 1 20.0369 1.59544 8.3394 20
387 1 21.5689 3.44578 -9.11539 23
388 1 4.2724 -11.5962 -3.84877 13
389 1 13.7853 10.118 4.01222 20
390 1 9.75136 9.83272 -6.06194 21
391 1 11.8011 -4.376 -5.84761 23
392 1 8.48424 14.6207 2.11741 22
393 1 -4.61522 11.3785 -11.148 11
394 1 18.3042 -4.58523 -6.45121 22
395 1 18.3945 7.1387 4.01404 21
396 1 0.818667 3.23644 -13.3541 20
397 1 0.902151 -9.55691 2.06877 14
398 1 6.09437 -1.55718 10.7373 15
399 1 8.40526 14.5746 -3.47291 21
400 1 0.194815 -5.62265 -7.92675 17
401 1 17.3322 9.78003 13.5153 15
402 1 3.02067 11.7045 -3.2818 20
403 1 9.70243 16.0035 -11.717 19
404 1 14.2716 12.8956 4.73046 21
405 1 -4.74319 -3.99261 -5.74881 11
406 1 7.14295 -7.64213 -10.8162 21
407 1 0.249748 6.28295 1.86046 21
408 1 0.147309 14.7863 -13.5668 15
409 1 12.2909 -2.51276 2.26615 22
410 1 8.83126 -8.32333 -3.27085 19
411 1 21.5663 16.8058 4.18503 12
412 1 15.2763 8.46279 -18.5615 12
413 1 4.15135 3.1572 -13.3081 22
414 1 6.43932 16.273 -6.76804 22
415 1 -0.135167 4.00547 -5.12893 24
416 1 9.23522 -8.39195 1.7245 22
417 1 23.3902 6.50244 1.56012 21
418 1 15.6203 10.7769 -14.8322 19
419 1 6.89886 4.06287 4.77247 20
420 1 -2.18978 6.75939 -5.72792 19
421 1 1.95071 8.86601 2.37763 20
422 1 10.3514 -7.16211 -0.624346 22
423 1 11.4385 -2.37457 -8.42355 24
424 1 14.0887 -8.89358 -13.668 15
425 1 10.5182 0.268049 7.564 23
426 1 -3.93431 8.65993 3.82654 15
427 1 -2.1402 3.52082 6.25732 18
428 1 -3.55055 11.6464 2.18386 16
429 1 5.37934 -4.6741 -0.328192 22
430 1 1.93058 5.48943 -18.6238 12
431 1 20.2207 -5.52365 -8.6272 22
432 1 10.0748 -7.16541 -12.0802 18
433 1 7.15312 -0.142888 7.83945 23
434 1 13.4114 -1.73339 -5.8366 23
435 1 6.75153 7.09736 -21.7634 8
436 1 20.5198 -5.61533 -3.74988 22
437 1 13.2194 15.3482 -6.60948 20
438 1 -1.37681 13.9549 2.86812 16
439 1 4.39466 3.56778 10.2413 19
440 1 -1.31905 -1.70351 -15.0498 10
441 1 1.90227 -2.66164 2.27539 20
442 1 22.6888 -2.92432 6.60723 11
443 1 16.6306 6.01876 -3.72816 23
444 1 5.5069 8.92308 2.31331 21
445 1 12.87 3.78857 -11.3777 23
446 1 20.6515 0.287555 1.79804 19
447 1 24.614 8.85754 -10.3232 17
448 1 8.32991 4.41618 10.0403 21
449 1 10.2423 17.2458 -3.6103 25
450 1 17.2491 -1.7557 -1.00153 21
451 1 8.20729 -8.34022 -7.83506 20
452 1 4.56845 10.8557 14.5604 10
453 1 11.6856 19.6655 6.76275 11
454 1 2.72455 -7.39438 -11.0997 13
455 1 17.855 18.6916 -0.872508 22
456 1 14.8217 11.0264 7.18268 21
457 1 -0.11518 11.6629 7.2389 22
458 1 3.22505 0.50415 -7.85212 23
459 1 -3.77467 8.95115 6.79255 14
460 1 1.40645 1.05945 -10.5933 23
461 1 7.59387 15.0949 7.02937 20
462 1 3.48788 -7.4551 -5.44405 20
463 1 7.73092 -3.27786 -17.2238 14
464 1 3.57033 -7.46018 0.0474551 22
465 1 3.85573 4.10969 -0.0579115 21
466 1 18.9443 8.97892 0.82236 21
467 1 3.73812 0.0470084 7.56406 21
468 1 2.55772 12.1397 -13.2073 21
469 1 19.492 11.1337 -1.8991 19
470 1 1.86183 -11.3082 -6.5352 11
471 1 14.6639 8.69867 -9.10533 22
472 1 8.32579 18.8035 -1.3711 22
473 1 11.3612 8.82179 -8.39171 23
474 1 10.4858 17.0414 7.94873 19
475 1 -3.53983 6.45777 -2.99381 18
476 1 11.497 18.789 -5.8951 19
477 1 18.7445 18.0989 -9.81431 12
478 1 3.21525 -1.4369 -10.769 24
479 1 10.554 9.57754 10.4161 17
480 1 11.7052 -13.5967 -8.78109 12
481 1 7.50084 -2.39333 -13.9337 23
482 1 21.6005 -9.26885 1.76712 10
483 1 0.966406 14.0768 -4.2997 21
484 1 14.0076 9.89747 9.50261 23
485 1 24.6132 7.6749 -6.94139 22
486 1 15.0489 12.7184 -6.8799 17
487 1 3.4801 15.0509 -13.2832 21
488 1 14.1449 2.8641 -14.3568 23
489 1 9.0091 -2.68922 2.21682 24
490 1 -3.32673 -1.69464 -5.90662 15
491 1 15.6362 19.6935 1.76674 17
492 1 5.78106 11.9234 -13.7038 20
493 1 18.59 11.8597 -4.99445 17
494 1 15.7817 18.2574 -10.9081 14
495 1 18.5209 1.40748 -6.43436 23
496 1 26.3606 4.7748 -7.61927 15
497 1 11.221 7.1067 -11.1078 24
498 1 11.965 -4.44592 -0.481211 22
499 1 17.1564 -7.73843 4.51007 17
500 1 14.842 -6.86469 6.40522 15
501 1 1.09627 6.77641 -10.6443 23
502 1 3.8967 -7.59373 3.93671 19
503 1 7.19767 -10.8919 -9.30094 15
504 1 18.9181 20.3836 1.7152 11
505 1 9.5042 5.94224 -18.2583 19
506 1 15.0046 2.71865 6.84302 22
507 1 -2.09789 6.52689 7.67508 14
508 1 10.1378 -13.5697 -1.26618 9
509 1 3.6468 0.134286 2.44072 22
510 1 23.8909 0.253568 -13.8146 13
511 1 21.7569 3.43514 -3.68259 24
512 1 8.14629 14.6315 -8.75573 20
513 1 13.1748 -5.42508 -8.94965 21
514 1 15.7644 5.79828 -14.4081 25
515 1 19.5506 4.38957 -11.9264 24
516 1 7.20989 6.00664 7.06216 20
517 1 17.2808 22.156 -6.02561 10
518 1 6.79859 2.11976 -20.3663 12
519 1 11.1823 5.50921 -21.5998 12
520 1 3.94455 -2.0062 5.07462 21
521 1 2.67671 15.5971 -0.637486 17
522 1 -0.696111 6.02792 -13.1481 23
523 1 -3.07872 5.91825 2.46239 19
524 1 8.44357 -7.19414 -14.1839 16
525 1 4.67179 -6.44908 7.99064 15
526 1 16.404 11.4793 -9.9491 21
527 1 25.2824 8.33529 6.58652 18
528 1 28.2117 9.49805 -4.53097 14
529 1 -1.27373 -8.47998 -7.84996 9
530 1 10.4239 -5.41562 -3.29044 23
531 1 4.66596 4.96014 -19.8263 13
532 1 4.16664 15.3205 6.97223 21
533 1 14.5672 -2.06716 -13.7833 24
534 1 13.5692 11.6152 -3.84897 21
535 1 21.767 1.42315 -1.39317 21
536 1 12.9432 15.1501 -12.7431 19
537 1 18.8719 -4.83568 -0.844201 22
538 1 24.9731 8.93288 -13.7284 13
539 1 11.7551 10.3979 14.8106 9
540 1 -1.59487 11.2952 4.43275 23
541 1 16.2005 15.3932 6.87129 18
542 1 18.9231 1.7115 11.527 13
543 1 12.3468 5.81266 -19.294 20
544 1 7.05387 -1.52792 -5.60093 21
545 1 12.1927 2.91143 7.16721 20
546 1 18.5366 15.9757 5.15718 19
547 1 17.9833 8.85712 -9.08022 19
548 1 -0.65088 11.6883 -12.9341 21
549 1 10.0616 19.8335 -9.82368 11
550 1 22.5279 3.69184 8.07813 15
551 1 21.3898 5.52826 -16.9305 13
552 1 20.1504 -1.59379 -6.37965 23
553 1 20.3862 13.4174 5.0127 21
554 1 -3.52406 0.888801 -1.92533 17
555 1 2.72128 15.4276 -10.086 23
556 1 10.5276 5.847 7.45727 21
557 1 1.13942 -0.0691476 8.44473 17
558 1 5.88906 16.0768 -10.6504 20
559 1 23.7929 -5.73001 -4.57394 13
560 1 16.3441 6.00199 -9.12419 25
561 1 7.08756 18.4953 -9.78044 12
562 1 0.806983 0.502187 -15.753 14
563 1 20.4261 -7.24749 -0.879722 22
564 1 0.0533653 -0.02242 -2.59203 21
565 1 10.8191 17.2654 -14.4096 12
566 1 -1.8748 1.14204 -5.05045 21
567 1 8.47652 15.327 13.0567 11
568 1 0.591434 -1.81041 5.35404 21
569 1 16.8298 13.671 -2.87332 17
570 1 16.8134 -5.4027 -8.94597 21
571 1 15.0953 -3.77569 7.18211 20
572 1 21.5736 7.2944 -6.70206 21
573 1 -5.53982 12.0591 -4.47999 10
574 1 14.2291 9.5589 12.801 18
575 1 15.1657 20.5387 -3.42875 19
576 1 19.9645 0.415516 -9.13512 19
577 1 16.1966 13.0697 8.54479 19
578 1 9.7046 8.13164 -20.4718 12
579 1 7.13249 -8.74816 7.20286 12
580 1 9.50006 4.06355 -11.0426 25
581 1 17.9343 4.82395 -16.943 19
582 1 12.0191 16.1924 4.79213 22
583 1 14.3236 12.4077 -12.7385 21
584 1 7.28902 7.02763 -16.4617 20
585 1 5.00337 -2.67543 -8.17061 25
586 1 -3.58487 0.46344 -13.4421 10
587 1 27.3776 8.02002 -1.91423 16
588 1 27.8782 7.60103 -7.71682 13
589 1 20.1873 -6.36884 -13.9861 12
590 1 22.1372 12.3472 7.66526 15
591 1 23.1988 -5.41054 -9.16635 17
592 1 14.0852 4.12062 -22.0294 11
593 1 14.7349 18.5429 -1.18798 21
594 1 3.92583 5.88353 2.62691 24
595 1 20.1929 13.8419 10.4566 11
596 1 24.76 9.03847 -3.62054 20
597 1 25.3718 3.45417 0.78369 17
598 1 22.4382 4.27486 -12.3049 22
599 1 18.0473 1.3106 6.26808 21
600 1 23.8929 9.60291 8.99434 13
601 1 8.71998 1.17888 5.00409 24
602 1 24.1954 12.4326 -6.16977 11
603 1 17.2106 4.22416 -0.96421 21
604 1 13.5426 4.42257 12.7225 10
605 1 24.6898 3.79681 -10.2674 16
606 1 19.753 4.33809 6.91475 23
607 1 1.34556 3.11223 -7.81293 22
608 1 22.8896 11.1173 -2.17251 19
609 1 20.1553 0.237341 -3.7831 22
610 1 11.9164 -2.64314 -3.09216 25
611 1 -1.36546 14.334 9.08525 13
612 1 18.5068 15.5404 8.25292 14
613 1 22.5988 6.22213 6.62051 23
614 1 12.1858 14.4853 1.27851 23
615 1 12.6422 16.0075 12.8815 11
616 1 11.6953 8.94279 1.82253 20
617 1 9.92574 -12.2136 1.45863 14
618 1 4.6409 12.4129 -5.47582 23
619 1 20.9481 13.3381 -13.0926 17
620 1 17.6968 -0.928482 -14.053 20
621 1 9.58883 21.4748 -1.07867 12
622 1 6.84762 -7.48509 -5.45542 24
623 1 17.3554 -8.29434 -14.4985 14
624 1 -1.37033 8.48143 2.71294 21
625 1 2.77913 10.0719 -11.1049 23
626 1 11.5502 -10.9775 3.94402 15
627 1 5.0325 1.75131 -16.112 20
628 1 -4.07979 6.23686 -8.10939 15
629 1 22.0858 -2.55985 1.5424 21
630 1 17.9863 13.2218 0.0487513 21
631 1 12.8128 -8.22486 7.05112 12
632 1 -3.65953 8.60209 -12.5543 14
633 1 11.7502 1.92242 -21.7591 13
634 1 15.5724 0.838198 4.43315 24
635 1 9.07785 8.84951 7.60148 20
636 1 17.8813 10.4187 -18.5203 10
637 1 22.7366 0.373669 6.90078 15
638 1 19.0951 9.88376 -13.0535 21
639 1 21.1138 19.021 -0.83577 12
640 1 16.891 -7.29364 -6.32902 19
641 1 5.40134 1.3343 12.7316 10
642 1 22.0539 3.39987 1.71842 24
643 1 3.43977 14.7459 13.5394 11
644 1 19.7795 16.7963 -12.8699 12
645 1 -0.579249 11.7851 -3.34791 21
646 1 21.3896 16.2821 -2.01308 16
647 1 0.675058 -11.5497 -3.60178 12
648 1 23.4441 0.51521 -4.63888 19
649 1 16.0676 21.3423 -0.266196 11
650 1 5.70447 8.89391 7.69134 23
651 1 0.290656 -1.89752 -0.220495 22
652 1 -0.310288 0.44388 -12.9914 22
653 1 18.5583 6.9998 8.97437 20
654 1 7.4092 -5.68583 7.33862 18
655 1 15.7067 11.9358 11.1281 22
656 1 4.61708 18.0455 -1.65488 21
657 1 22.1316 10.3686 0.56373 21
658 1 16.8922 0.312702 -3.71771 23
659 1 15.3319 8.82544 2.08612 25
660 1 12.3439 5.72588 -14.1134 24
661 1 3.6721 11.6368 7.50004 22
662 1 21.0355 6.87244 -12.0613 21
663 1 8.27279 -2.72046 -8.39167 22
664 1 24.9725 -4.17041 -11.1832 11
665 1 16.4425 11.202 2.4478 20
666 1 13.2969 11.8261 1.36553 19
667 1 0.229645 9.43416 5.78929 18
668 1 18.5834 14.2378 2.3564 22
669 1 12.7588 0.818828 9.82542 14
670 1 4.34348 9.47363 10.4088 20
671 1 11.0826 -2.76301 -14.0051 24
672 1 5.79894 6.43566 10.3833 20
673 1 20.0601 7.73358 6.16755 20
674 1 0.407227 -5.76004 2.10192 15
675 1 22.9101 10.2217 -8.20483 18
676 1 18.444 -8.21502 -3.47368 16
677 1 8.0019 8.72304 -8.43859 22
678 1 17.982 13.0673 -7.5571 20
679 1 16.7922 16.6954 1.42382 17
680 1 13.5372 2.55139 -19.2741 21
681 1 10.4354 3.77195 4.87823 24
682 1 14.3439 22.1963 -6.61128 13
683 1 26.513 12.3081 -4.59368 11
684 1 3.83779 -1.56801 -5.25408 21
685 1 8.61863 4.14344 -21.3324 12
686 1 -1.62034 19.2278 -3.24881 11
687 1 15.2458 -0.0833789 -18.7854 16
688 1 13.3523 9.77202 -0.695598 21
689 1 21.7762 10.2648 -13.8311 17
690 1 21.9845 15.4887 -5.31154 12
691 1 8.50026 8.81263 2.20723 22
692 1 1.4658 6.64125 -5.5626 22
693 1 16.7005 10.0525 -6.48415 21
694 1 19.2526 7.02678 12.0993 12
695 1 20.2781 4.51422 10.1835 16
696 1 9.68858 -9.34483 6.36896 12
697 1 8.63021 11.491 -15.2458 16
698 1 15.3673 17.671 10.4241 10
699 1 15.9595 -2.54141 -16.5686 18
700 1 15.4322 6.89038 4.7371 21
701 1 14.7849 14.8218 -4.24245 19
702 1 18.8159 15.92 -0.746987 22
703 1 23.1481 -1.38269 -11.2627 20
704 1 14.7554 7.18581 14.4553 10
705 1 -1.14333 3.19794 2.73322 24
706 1 10.1332 -11.4004 -3.50187 18
707 1 11.3391 1.24753 -11.1275 24
708 1 5.75813 20.2427 -3.03997 12
709 1 9.70961 13.9815 8.20459 19
710 1 14.7017 0.921082 -11.6934 23
711 1 12.9821 14.5421 6.94721 21
712 1 -1.10403 1.13698 0.171932 22
713 1 7.49577 8.93529 10.4347 21
714 1 4.14793 9.10564 -13.4808 22
715 1 1.89881 10.5692 -15.8149 14
716 1 13.769 -7.17977 -1.16587 22
717 1 13.836 8.5528 -14.5796 21
718 1 13.8919 0.242253 2.06444 23
719 1 8.13684 12.9088 -0.459874 21
720 1 -3.12431 11.6709 8.29073 14
721 1 19.2077 5.93481 -14.5068 22
722 1 14.2844 -9.60166 4.17337 15
723 1 11.0451 19.0512 -1.82893 20
724 1 5.51277 7.83591 13.4215 18
725 1 1.54878 -3.0903 -15.7586 12
726 1 6.03595 -4.96649 -15.1614 16
727 1 4.29098 -9.07854 -12.6372 10
728 1 7.4875 16.9337 -13.2334 14
729 1 15.6437 0.27851 -15.2437 19
730 1 5.46396 16.0759 4.55279 18
731 1 13.1616 -7.4982 -11.134 19
732 1 18.427 -9.95539 -0.360249 14
733 1 14.1419 -1.8303 4.58064 21
734 1 27.0938 5.92579 -13.8125 10
735 1 13.8008 -5.46241 -4.02985 19
736 1 0.838205 3.97585 5.38257 21
737 1 14.3841 6.95473 -11.5835 22
738 1 6.80376 -11.3477 -3.27761 17
739 1 3.44728 -10.5159 -9.53061 12
740 1 5.37705 6.93745 4.75261 21
741 1 2.10672 -10.1339 -0.895118 18
742 1 27.5075 8.51242 -11.4147 11
743 1 0.254087 19.5648 -0.326329 13
744 1 6.75651 11.9777 2.40159 20
745 1 -0.467073 15.1308 -1.56261 21
746 1 23.7131 0.939839 0.894729 17
747 1 -2.78333 3.62839 -12.5435 16
748 1 13.8293 17.1664 -8.8168 17
749 1 18.3217 7.08868 -6.37356 25
750 1 17.5087 14.9232 11.2132 15
751 1 25.1584 9.87556 1.54956 21
752 1 0.133805 12.5714 -16.5038 11
753 1 -1.51388 -4.15848 -12.2463 10
754 1 8.48714 9.59743 13.3283 15
755 1 11.3261 12.6391 -11.6606 20
756 1 20.5437 17.2913 1.47149 17
757 1 8.70742 3.02997 7.22092 21
758 1 8.4325 -10.4862 -5.89894 18
759 1 6.46026 -11.9613 1.50245 15
760 1 7.38064 -1.77566 5.07904 22
761 1 23.3144 14.471 5.68921 13
762 1 12.9754 -1.56614 -11.4626 22
763 1 6.44459 11.5976 -8.37081 21
764 1 16.1309 15.9814 -1.7996 21
765 1 5.61898 -2.7695 2.21606 23
766 1 22.3523 7.17659 -14.8437 16
767 1 13.8234 -13.1458 -6.544 12
768 1 10.897 -13.4761 -5.11644 13
769 1 12.1094 -8.24744 -3.51733 19
770 1 16.0527 9.60974 -11.8667 24
771 1 18.5136 20.4145 -3.16447 17
772 1 12.1125 4.19651 -16.7579 25
773 1 10.1519 2.01225 9.91699 18
774 1 12.3992 9.11966 -18.7717 15
775 1 -1.93194 3.29037 -15.0691 16
776 1 1.48923 0.934442 -5.37558 21
777 1 13.4075 19.9576 -9.18046 17
778 1 18.4545 3.18061 -3.72954 24
779 1 6.74408 -0.589006 -18.117 18
780 1 5.32914 -2.77151 -2.94017 24
781 1 19.8386 10.2488 -7.33565 22
782 1 25.2553 -4.08981 -7.42576 11
783 1 -0.288229 11.8909 10.3822 17
784 1 22.3699 -4.64278 -1.68688 20
785 1 23.4274 -1.22384 -7.36206 18
786 1 26.2159 1.14863 3.41636 10
787 1 9.06351 15.8458 4.947 19
788 1 -0.138421 6.2888 10.709 15
789 1 2.01561 17.5429 7.97783 9
790 1 3.64591 -11.0121 2.20012 17
791 1 20.3738 4.48226 -1.18503 21
792 1 14.2825 14.8628 10.1926 21
793 1 -5.04702 6.0703 -0.30419 13
794 1 16.4258 -1.65433 -11.5212 23
795 1 -2.04988 12.6712 -6.01232 21
796 1 11.4483 12.7209 -1.4126 23
797 1 12.6561 -8.55311 1.43554 21
798 1 13.2436 7.27753 10.5012 21
799 1 10.6408 17.1704 2.13235 19
800 1 13.7597 -5.30767 1.59081 20
801 1 -0.0906011 0.308499 -7.92274 20
802 1 11.5482 4.27076 10.2925 18
803 1 -3.43689 3.8763 -5.45639 16
804 1 12.246 12.3948 9.68853 18
805 1 12.7554 16.2954 -0.848613 19
806 1 -3.2165 -7.82674 -1.12633 11
807 1 7.34262 -7.33282 -0.296709 21
808 1 19.3598 -1.73652 7.07113 21
809 1 23.0724 -4.69482 3.84823 11
810 1 19.2285 10.3827 5.30198 21
811 1 6.11489 9.63633 -5.74519 22
812 1 14.89 -4.53587 -12.1963 18
813 1 11.5118 1.54198 -16.3554 22
814 1 5.69347 2.68778 7.79641 24
815 1 6.35561 20.3636 0.183189 15
816 1 26.881 4.73493 -1.81522 12
817 1 15.7827 15.3489 -12.7686 16
818 1 6.73659 13.4418 14.5223 9
819 1 21.0109 8.21696 3.25589 22
820 1 10.2769 2.96521 -19.3908 20
821 1 0.0397581 -8.82084 -5.60175 19
822 1 6.64898 -0.0219182 -8.3306 23
823 1 26.6269 6.68706 0.998119 17
824 1 8.91529 5.73159 -13.7027 24
825 1 8.77971 11.808 10.3003 15
826 1 23.1051 -7.61116 -6.80845 13
827 1 15.9413 5.2848 -19.2822 17
828 1 8.45908 -4.74131 -5.72874 23
829 1 24.552 6.24179 -12.4103 22
830 1 25.3382 3.79469 -4.57801 16
831 1 11.6416 -2.34016 8.35222 20
832 1 8.30137 -4.47457 -10.9417 23
833 1 17.9258 18.5019 -6.42482 19
834 1 12.3399 -4.4755 5.15974 25
835 1 -4.1294 11.5981 -1.41117 14
836 1 22.9455 6.11726 -9.4865 22
837 1 27.5743 12.2433 1.42259 9
838 1 14.457 -4.71046 -15.9221 20
839 1 5.10585 18.4353 2.64036 17
840 1 25.6927 13.4941 3.76449 14
841 1 16.672 16.3809 -7.71809 19
842 1 15.4658 3.0487 -17.0079 19
843 1 18.4268 -2.52127 -3.74532 22
844 1 -1.67845 8.50293 -7.91208 18
845 1 19.7326 11.4643 2.32161 20
846 1 -2.98434 -7.36487 -5.14431 14
847 1 1.15192 13.1088 -10.9356 19
848 1 16.7746 9.55639 5.12549 22
849 1 -4.04401 3.63236 -9.62549 12
850 1 -4.6948 14.1122 3.57783 8
851 1 7.68254 6.97367 -10.7013 24
852 1 21.2293 -0.3344 -14.9765 18
853 1 1.45044 -4.2139 -10.5662 18
854 1 25.1469 -2.57071 -4.59408 11
855 1 -3.80461 9.15513 -5.758 19
856 1 -1.96609 1.06521 -10.2995 21
857 1 22.1616 14.1144 2.72377 19
858 1 2.63226 -4.45977 5.16838 20
859 1 17.5466 4.66709 11.6632 15
860 1 26.1882 4.4637 3.71696 14
861 1 18.9221 3.05981 1.62019 21
862 1 -0.450166 6.08108 -3.10926 17
863 1 12.2873 17.6864 10.1612 14
864 1 15.0197 14.2664 -15.4524 17
865 1 11.7428 -4.38301 -17.1473 13
866 1 3.2816 20.1646 -0.329346 13
867 1 -0.124058 -7.56578 -0.0424124 16
868 1 18.4547 15.3547 -4.96944 23
869 1 8.59304 16.9746 10.1961 17
870 1 23.292 -2.80942 -13.8425 10
871 1 17.7136 -5.05039 6.82921 15
872 1 9.23749 14.085 -13.9634 16
873 1 7.89581 13.0149 -11.486 19
874 1 1.76991 14.3073 8.82845 18
875 1 26.1922 10.4245 4.36031 16
876 1 6.01668 0.22915 -13.4958 25
877 1 23.9087 13.7311 -2.81834 14
878 1 -4.96907 11.7264 -7.70395 14
879 1 7.50668 -7.4792 4.63296 25
880 1 17.2896 16.8464 -15.7105 10
881 1 20.3525 -0.943022 9.55012 11
882 1 7.14209 -5.59695 -3.07588 22
883 1 1.54247 19.6973 -3.19951 14
884 1 -2.70278 13.6798 -12.5679 12
885 1 23.0705 4.79322 -6.42469 22