ITEM: TIMESTEP
261000
ITEM: NUMBER OF ATOMS
1000
ITEM: BOX BOUNDS pp pp pp
-30.0 30.0
-30.0 30.0
-30.0 30.0
ITEM: ATOMS id type x y z Coordination
1 1 -2.13239 -10.4507 -9.41276 14
2 1 5.5979 -9.13651 7.43208 13
3 1 -11.0341 8.21467 -2.14286 12
4 1 -11.0708 0.385155 -6.51839 19
5 1 -1.60317 -6.45371 9.93127 19
6 1 -7.58566 1.43877 -11.6161 12
7 1 -2.76575 2.21089 -4.47214 20
8 1 -3.58508 -13.7505 1.5724 12
9 1 8.54193 -1.71236 5.99137 21
10 1 -1.58877 5.22461 6.29425 24
11 1 8.76973 -1.60501 2.91526 20
12 1 -2.60227 9.75254 -9.34882 10
13 1 -0.294827 -0.200912 14.296 11
14 1 -10.6185 -1.03034 -0.0807125 22
15 1 -3.47711 -1.65866 -8.31012 19
16 1 0.995837 -2.16925 6.96489 22
17 1 2.668 -2.63051 -6.69342 17
18 1 -0.0445826 5.70088 11.5958 14
19 1 -3.31144 -10.4366 7.09006 16
20 1 -12.5361 -0.0272959 2.06178 17
21 1 -8.12109 -1.23635 2.89939 21
22 1 -3.70278 14.1992 -1.58454 14
23 1 1.35805 1.16462 -9.98082 21
24 1 6.3881 -3.53199 -11.2147 13
25 1 -2.35402 -3.99578 12.3743 13
26 1 -11.7487 4.54822 -1.02443 18
27 1 -0.799592 15.6261 -2.04702 10
28 1 0.790619 -12.4142 3.37755 12
29 1 4.46073 -5.36767 -6.76486 19
30 1 9.65336 3.30393 6.36747 21
31 1 -8.51848 7.25089 -4.21721 14
32 1 0.550028 6.96678 -4.24873 21
33 1 4.92522 5.40994 5.47702 22
34 1 2.14498 2.34764 9.80499 21
35 1 -9.24545 -4.10927 0.727324 22
36 1 1.75289 -2.04867 11.7493 17
37 1 -7.74111 0.0113759 -1.66434 22
38 1 11.3657 0.790837 7.93801 14
39 1 10.6872 -0.539913 -2.05324 21
40 1 7.12258 -1.12286 9.3091 22
41 1 -6.96836 -4.41676 2.40791 22
42 1 -2.1528 -7.31306 -8.64868 21
43 1 -8.06957 9.7101 -1.71695 16
44 1 -3.00458 6.95114 -7.91833 21
45 1 4.55696 -0.102109 -6.05725 19
46 1 9.74059 -2.62385 -3.57205 24
47 1 7.03911 -7.1729 2.43379 23
48 1 4.7495 -7.25045 9.93576 14
49 1 -5.7992 6.86752 4.27576 21
50 1 -4.6509 -5.67619 10.2717 14
51 1 -11.6876 4.37795 3.28564 16
52 1 6.86983 -6.84115 -6.79922 19
53 1 5.14243 2.06457 -10.2536 16
54 1 8.93671 1.02889 4.25135 21
55 1 0.728149 8.34517 4.14389 21
56 1 -8.26374 6.26848 -7.82959 12
57 1 -1.09692 7.12961 1.54805 20
58 1 -0.125997 1.23592 -3.00818 22
59 1 -6.81411 -7.14235 8.96053 13
60 1 -1.31979 -4.3133 -8.78097 22
61 1 5.42696 -6.03185 -9.677 15
62 1 -2.30058 1.9094 7.15419 24
63 1 -8.13736 -7.09139 0.250058 18
64 1 6.76264 -3.95396 1.32641 21
65 1 -8.97717 -9.48442 -3.26597 13
66 1 8.99733 -9.71507 2.60561 13
67 1 -5.76024 9.28826 0.190413 19
68 1 -7.03435 1.36773 1.0947 21
69 1 3.62209 6.14955 -6.39051 18
70 1 6.06405 -9.84713 0.808209 21
71 1 -6.57107 -9.00561 -0.808166 21
72 1 12.2395 3.91264 6.96377 11
73 1 7.99833 1.72623 -1.40141 22
74 1 -2.33374 13.9213 -4.79773 11
75 1 -0.685902 -8.4912 -11.2188 13
76 1 -3.61869 9.96138 -2.28807 19
77 1 9.40693 0.56272 -4.90937 20
78 1 3.22269 -4.59128 -3.97479 20
79 1 2.96498 6.74785 -12.1159 12
80 1 8.11554 -8.21779 5.7224 16
81 1 -5.31547 2.6475 -9.05033 23
82 1 -1.26295 4.36433 -2.09785 21
83 1 5.4545 10.8035 -0.995636 15
84 1 10.9166 7.59503 -0.1827 12
85 1 -1.0292 9.03936 -0.768574 19
86 1 -3.36672 -5.7771 -11.1491 13
87 1 -11.7753 -4.06231 -0.821176 17
88 1 -3.44677 9.18962 8.8704 17
89 1 -0.48386 11.6144 -7.13261 12
90 1 0.131996 -4.6459 12.0403 15
91 1 -10.1582 -5.04991 3.97051 18
92 1 -4.8002 -12.1194 3.89269 12
93 1 1.0338 6.47436 -1.40073 20
94 1 8.56896 6.45851 -2.66778 18
95 1 -0.74448 -8.81785 8.64919 19
96 1 -7.74109 4.90578 -5.12735 20
97 1 0.756656 5.29468 8.90343 19
98 1 -7.72951 1.02197 -7.029 20
99 1 -6.19997 -4.70579 7.26499 19
100 1 -8.16941 -10.9294 4.64799 12
101 1 -2.09478 1.54139 -0.625388 22
102 1 -0.29275 0.274488 5.28945 22
103 1 -3.73347 -2.48118 -5.13442 21
104 1 4.62028 -9.08944 -2.00598 23
105 1 -2.52593 7.70864 4.47656 22
106 1 -6.70874 1.45963 4.10585 20
107 1 -9.01845 -1.72362 -6.01883 21
108 1 -3.53291 -10.4209 0.935841 21
109 1 2.87918 3.8573 -10.9867 17
110 1 3.90984 0.43622 11.3164 16
111 1 -4.62632 -2.35489 2.87709 16
112 1 -3.10941 4.79204 -11.3347 17
113 1 -10.823 -2.01196 -8.77608 13
114 1 -5.73218 12.0678 -1.63595 15
115 1 5.27273 1.77718 9.31193 23
116 1 -3.74762 10.5758 -6.10819 17
117 1 2.36487 6.31443 -9.38328 21
118 1 -3.95848 1.9845 2.22157 22
119 1 -6.90703 4.27596 6.1598 24
120 1 -6.83929 8.65633 9.4768 14
121 1 -0.156835 -12.3797 -7.44017 12
122 1 -1.5493 2.50036 4.09435 25
123 1 -4.53595 -0.106695 0.104431 18
124 1 2.86432 -6.83284 -1.47962 22
125 1 6.77009 7.4698 -5.16459 15
126 1 0.160468 11.4922 -0.893833 16
127 1 -10.3608 5.67496 6.00076 14
128 1 4.15077 4.88905 10.1137 21
129 1 14.3214 0.515076 -3.50902 12
130 1 1.68081 6.0232 6.48885 22
131 1 -8.86128 6.44586 3.41867 20
132 1 -10.0287 -6.23626 -2.23625 18
133 1 1.4932 -4.46308 8.9809 21
134 1 2.76723 -11.3062 -4.00023 23
135 1 -1.83456 -0.124146 -12.7843 12
136 1 7.49249 -1.50191 -6.32216 18
137 1 -11.5618 1.27916 6.222 17
138 1 -7.52582 -6.86728 -7.72689 17
139 1 -4.65937 -5.66605 4.41182 20
140 1 0.127815 -6.92395 0.813592 22
141 1 -7.60353 -1.52485 -10.2623 14
142 1 -10.6291 -0.795971 -3.33319 23
143 1 7.67578 6.08524 10.3707 14
144 1 5.23667 -2.36004 11.1974 16
145 1 1.51569 -7.74232 6.40024 20
146 1 4.94973 8.84587 5.00356 21
147 1 -1.43477 -8.52524 5.49594 21
148 1 1.50192 15.1633 0.581994 10
149 1 -5.38035 -3.58813 -10.2776 16
150 1 -5.00885 -9.21857 -7.69041 16
151 1 -5.55761 -7.85789 1.83019 21
152 1 -3.5277 -5.41752 1.78628 21
153 1 3.9779 -2.41639 2.14631 20
154 1 7.8419 6.14849 5.26153 22
155 1 -4.07547 -5.27421 -3.42071 20
156 1 -6.54119 0.222554 10.3177 14
157 1 -0.996595 -8.95356 -0.686236 21
158 1 4.053 3.34692 -4.71208 22
159 1 -0.998398 -11.9728 0.39554 18
160 1 4.486 -3.98253 -0.717479 22
161 1 2.08559 -13.4614 0.536703 11
162 1 -8.49573 3.72691 -9.71711 11
163 1 4.92242 8.10555 10.3166 11
164 1 -3.92417 0.699152 -7.01433 23
165 1 -0.729414 7.24832 -9.85018 19
166 1 -2.50578 -1.09878 7.27096 22
167 1 2.63483 10.6585 3.53963 18
168 1 12.3774 1.17936 5.16981 18
169 1 -13.4793 4.5842 6.0372 8
170 1 -3.98053 -8.99023 9.7681 14
171 1 -5.807 12.4016 4.38432 13
172 1 3.15882 -4.43885 -11.5475 15
173 1 3.43147 -11.3611 2.35394 15
174 1 8.60381 -2.01585 -10.0518 16
175 1 -1.34512 -2.81849 4.37108 22
176 1 2.74903 0.655026 7.06026 19
177 1 -10.7472 -2.18651 3.27557 20
178 1 8.23178 -9.03714 -4.50518 12
179 1 -4.66178 9.68603 3.30821 21
180 1 -9.0171 3.39293 4.5461 20
181 1 1.06259 1.89984 3.12352 22
182 1 2.71881 -9.57645 8.25266 14
183 1 -1.17371 3.07887 9.92558 23
184 1 -7.02334 -4.75156 -5.48463 22
185 1 5.83581 -0.396053 4.14182 22
186 1 -2.77921 12.1716 3.26487 16
187 1 -5.093 5.9491 -9.45428 15
188 1 -12.1832 2.65784 1.28447 16
189 1 -4.55178 -4.96964 -7.98726 22
190 1 -3.04049 11.3494 0.393909 21
191 1 7.36175 1.18497 6.79141 20
192 1 7.55958 -7.24368 8.82367 17
193 1 -4.77644 4.69683 -3.6418 20
194 1 2.88301 -4.57868 6.66071 16
195 1 1.95851 -13.6649 -5.60207 12
196 1 -8.81263 -4.52109 -10.3565 11
197 1 -13.2944 -4.35678 -3.3891 9
198 1 -3.67603 -7.81019 -0.294662 19
199 1 -1.39634 -3.41155 -3.2608 22
200 1 13.5927 3.62286 -4.03576 13
201 1 -2.72866 3.67747 -8.23074 21
202 1 3.86243 0.964276 1.65913 22
203 1 -7.82199 7.49805 6.43667 17
204 1 -7.15653 11.5321 1.2708 16
205 1 -4.73488 3.63402 8.63144 21
206 1 12.0914 -1.21437 -5.11316 15
207 1 12.3975 1.7309 -6.46997 14
208 1 5.18246 -1.12622 6.96761 19
209 1 -7.65396 3.96862 -1.51019 20
210 1 -1.13023 -13.453 -4.76947 14
211 1 -1.01158 7.98337 7.47454 26
212 1 6.27901 1.6705 -3.85599 23
213 1 -8.82916 1.74311 -4.11333 22
214 1 5.22442 -12.7556 -4.90551 12
215 1 10.3295 -1.52383 9.27571 17
216 1 -9.68831 -7.26323 -5.27097 14
217 1 -6.73379 -11.9536 1.72805 15
218 1 -1.25441 10.0786 2.06001 21
219 1 -12.7995 1.12796 -1.50593 16
220 1 -1.84377 -8.9384 -6.33244 19
221 1 4.42538 -8.53663 3.85815 21
222 1 -8.89554 -11.5648 -1.02519 10
223 1 -9.66798 3.21391 -6.85352 16
224 1 -1.82742 -11.6157 3.85716 19
225 1 -3.63136 0.0445206 4.90189 21
226 1 2.95034 0.922216 -3.22476 24
227 1 -8.71903 -0.11596 5.97535 21
228 1 0.642873 -6.58222 -7.11372 18
229 1 1.27925 -3.88963 3.8951 22
230 1 -13.7713 1.98692 4.1887 10
231 1 -3.67557 -6.98792 7.60921 23
232 1 -4.73736 -2.64385 9.2843 17
233 1 3.07798 -7.69263 -5.09478 22
234 1 4.36695 -6.9536 1.23277 23
235 1 1.33045 10.2115 -5.37512 16
236 1 -7.69277 -7.17429 4.16261 20
237 1 11.3961 -3.60928 7.61658 14
238 1 9.52394 4.81491 -0.549473 19
239 1 -4.4337 3.63905 5.05772 23
240 1 -0.0665805 -1.16306 -8.34032 23
241 1 10.2063 -5.24278 10.483 13
242 1 -4.5691 4.09084 -0.363026 22
243 1 -3.49889 4.87676 12.469 16
244 1 2.22011 14.6242 -2.32369 9
245 1 9.25036 -4.63341 5.34815 21
246 1 -4.35995 -13.1633 -3.96781 14
247 1 3.64135 3.99469 7.66079 19
248 1 -7.54415 2.58124 9.89631 15
249 1 -3.66364 -10.2784 -1.96208 20
250 1 -7.52426 -9.50533 -5.96528 13
251 1 -5.62423 9.53267 6.08605 18
252 1 -3.36859 -12.5247 -7.29967 12
253 1 -5.81981 -1.45492 5.4868 20
254 1 7.20529 4.42839 7.94067 20
255 1 9.71596 3.49986 -3.40989 23
256 1 2.21208 3.51464 -7.63508 23
257 1 0.0573751 5.56488 -7.28144 23
258 1 -0.388865 10.8225 8.5995 11
259 1 -13.6015 -1.62187 -1.1937 13
260 1 3.36244 5.89311 -3.38367 20
261 1 -6.44979 -6.6616 -10.0169 11
262 1 1.27646 0.576087 -13.6791 13
263 1 6.0595 4.37386 -2.30784 20
264 1 1.42571 8.7898 0.891857 20
265 1 3.41033 0.359589 -8.37922 17
266 1 1.66938 -7.39263 3.24897 23
267 1 4.70456 2.25906 -0.543972 22
268 1 -4.23447 2.09361 -12.4574 17
269 1 11.3042 6.17665 4.78301 15
270 1 6.46003 -6.78509 -0.680883 23
271 1 1.67176 3.94437 -14.1 12
272 1 2.23867 -9.42697 0.542685 19
273 1 1.79858 -7.03554 9.59024 17
274 1 -9.87589 0.762448 -9.37601 13
275 1 4.29916 3.92902 2.4943 20
276 1 -0.355227 6.11239 -12.7162 14
277 1 -13.3666 -3.56845 2.29395 12
278 1 13.426 -2.62685 -2.24856 15
279 1 0.563097 4.00737 -4.7795 22
280 1 -11.1147 5.68845 -4.78095 14
281 1 3.25955 -11.3471 -7.2557 13
282 1 1.13041 -1.77646 -11.4236 15
283 1 10.5097 -3.45927 -7.14518 15
284 1 2.27755 -4.59891 1.35384 21
285 1 -7.6934 -2.02187 8.30087 16
286 1 -1.7902 14.3406 1.18868 13
287 1 -0.752901 8.85276 -6.82961 21
288 1 13.6508 5.44841 -1.01248 13
289 1 -2.41907 -8.07868 -3.57981 23
290 1 1.84154 -3.96795 -8.72647 18
291 1 1.51939 4.66266 1.24467 19
292 1 12.3341 -4.15045 0.932147 11
293 1 4.35977 -11.9613 -0.975422 17
294 1 4.29386 -1.67381 -3.54131 21
295 1 -10.1988 3.7549 8.12876 14
296 1 -6.82913 -2.02956 0.175402 21
297 1 -4.95089 -7.16618 -5.61306 22
298 1 -1.22401 -1.11474 11.4008 19
299 1 7.83224 7.34824 -8.16557 11
300 1 -6.41449 9.92877 -4.55858 13
301 1 0.535621 13.0386 -3.93245 14
302 1 -8.31399e-04 0.497686 8.63356 20
303 1 5.60183 -9.61568 -5.35383 18
304 1 6.71001 0.120543 -8.26606 19
305 1 -11.2881 -6.0853 1.40033 12
306 1 -5.60323 2.76693 -5.87512 21
307 1 -10.4002 -2.47372 6.44138 14
308 1 5.39976 7.65956 -1.16804 19
309 1 3.84433 -8.37571 -7.98503 16
310 1 3.41044 -5.02079 11.9159 15
311 1 7.31313 -4.08571 -5.26709 22
312 1 1.07136 -0.923277 2.1118 23
313 1 -7.82977 6.79694 0.75992 22
314 1 10.1622 -6.83008 -6.18313 11
315 1 1.52046 8.42489 9.36869 15
316 1 -0.285644 3.85622 -10.1985 21
317 1 5.58619 5.63661 -9.97048 13
318 1 -0.201744 -5.56797 -10.7026 15
319 1 -1.16226 -10.8223 -3.488 19
320 1 15.6143 5.74115 1.35864 7
321 1 8.32646 -5.02767 -8.64712 14
322 1 5.77843 -6.65105 -4.07348 20
323 1 7.08662 9.86698 -2.94121 12
324 1 -9.84362 0.864533 2.97365 20
325 1 11.8021 6.28224 -3.36833 14
326 1 5.26899 -4.03139 8.95565 22
327 1 7.06591 1.22185 1.56317 22
328 1 7.13248 2.89175 11.4465 15
329 1 -6.3782 -2.35157 -6.8064 20
330 1 12.6054 5.9257 1.95817 15
331 1 9.31651 -4.18554 2.11312 21
332 1 -1.9707 -5.8405 -1.14054 22
333 1 2.16018 9.81284 6.78924 18
334 1 0.873559 2.95737 6.57175 24
335 1 -4.88493 12.9301 -4.30453 11
336 1 1.30921 -9.38017 -2.91953 15
337 1 -6.49405 4.45912 -11.8109 12
338 1 -4.48115 -0.320365 -10.5102 19
339 1 -13.9422 0.477802 -4.20284 10
340 1 10.3951 -6.93119 3.84376 16
341 1 0.164611 -9.54581 2.76061 20
342 1 1.12311 1.60489 0.0579887 22
343 1 6.5969 -3.36021 4.34311 20
344 1 7.73699 4.05719 -9.19651 15
345 1 5.02178 -0.725264 -0.692997 22
346 1 12.1107 -1.03411 2.93383 16
347 1 7.83774 8.97448 4.0569 14
348 1 12.1584 -4.10358 4.20536 13
349 1 -3.3742 0.836277 9.73893 22
350 1 -10.3365 -8.25785 4.09839 12
351 1 -9.56961 -4.49167 -7.44795 17
352 1 10.0941 0.51818 11.1722 12
353 1 -5.29717 13.755 1.42617 14
354 1 11.2456 2.20571 -0.375792 16
355 1 8.18591 -1.54053 -0.317873 21
356 1 6.901 2.88657 4.39029 21
357 1 -9.79656 0.505541 8.94292 11
358 1 8.83988 1.45438 -10.1872 14
359 1 -1.97942 -5.80472 -5.82173 19
360 1 5.58836 5.83494 12.9931 8
361 1 4.04441 2.24853 4.93237 19
362 1 -0.946873 -3.48036 15.4195 6
363 1 -4.28298 7.92557 11.3102 12
364 1 -6.07335 5.56359 10.5564 15
365 1 -5.35676 5.97733 -6.90319 19
366 1 -4.28616 7.99396 -4.89374 20
367 1 5.83433 11.1497 2.42938 14
368 1 -1.51798 -3.17248 9.23268 21
369 1 3.76219 11.8546 -3.5974 14
370 1 0.469687 -6.13588 -3.87967 20
371 1 -5.9994 -13.8363 -0.978274 12
372 1 7.04944 4.24988 0.726911 21
373 1 -6.12935 4.05429 2.49005 23
374 1 -9.09765 3.89101 1.30147 26
375 1 7.42162 4.45259 -5.19083 18
376 1 2.93869 -1.91972 9.21886 20
377 1 7.44792 8.5738 7.83951 12
378 1 -5.21955 1.51875 -2.41716 21
379 1 -0.703461 2.31863 -6.96502 21
380 1 0.135313 5.17057 3.85709 23
381 1 6.48006 -3.79651 -2.11765 23
382 1 0.425666 12.7721 2.95163 12
383 1 -13.3853 -1.48373 4.91181 9
384 1 3.72684 -14.2858 -2.63769 11
385 1 9.6884 5.91245 -6.1377 16
386 1 3.96362 -5.52592 3.87666 20
387 1 -1.3243 3.63606 1.29203 20
388 1 3.84644 -1.34164 -12.0035 12
389 1 -3.74451 -3.21011 -0.609195 23
390 1 5.61902 -3.517 -8.2277 20
391 1 2.37681 -1.43505 -0.635519 22
392 1 -3.09276 11.4076 6.2798 15
393 1 6.22858 -6.17681 6.24892 17
394 1 1.37599 0.71316 -5.88209 22
395 1 -6.60463 -11.6164 -3.17178 15
396 1 1.17663 -1.79554 -3.63065 25
397 1 -4.60374 6.42494 7.10745 22
398 1 12.7896 2.27613 1.73131 17
399 1 -1.15081 10.2243 -4.10697 21
400 1 10.9459 3.48584 -9.03281 11
401 1 2.64628 -0.960297 4.38383 20
402 1 9.23116 2.63044 -6.74853 22
403 1 5.64199 9.58428 -7.5736 10
404 1 0.547745 1.43598 11.9299 17
405 1 -2.98858 -4.30332 6.86375 17
406 1 2.49553 -7.51536 -10.8517 11
407 1 -9.64706 5.17658 -2.24513 21
408 1 3.01444 7.0356 3.23317 23
409 1 -7.81793 -3.61643 5.12051 22
410 1 4.88766 8.58605 -9.90007 11
411 1 -2.60631 1.55951 12.9702 15
412 1 -10.7624 -3.97166 -4.39052 19
413 1 10.134 0.616537 0.990517 21
414 1 -5.79334 -5.45371 -0.540297 25
415 1 9.35542 -6.72304 0.890752 17
416 1 6.23069 -10.4875 4.32617 13
417 1 -2.51708 6.10907 9.53815 23
418 1 -8.62303 6.00792 8.89103 15
419 1 9.91491 3.82053 2.70653 18
420 1 8.98665 -6.19583 -3.15192 17
421 1 1.90409 3.66641 -2.11071 20
422 1 5.99606 7.26641 2.52109 25
423 1 -0.520461 10.7237 5.3836 18
424 1 -0.0335755 -11.2471 6.81626 14
425 1 -5.95773 -2.82135 -3.11313 22
426 1 -0.679997 3.46021 13.6203 11
427 1 2.83741 11.8679 0.327479 17
428 1 8.35411 -4.22544 8.34026 21
429 1 10.5832 -6.52523 7.42316 14
430 1 9.80594 6.16541 7.72388 14
431 1 -2.55473 6.82717 -2.29929 19
432 1 1.35249 -10.2141 -9.36756 14
433 1 -1.15161 2.91099 -13.0594 15
434 1 -4.19755 -1.05413 12.7058 11
435 1 13.9003 4.18964 3.93762 10
436 1 4.38168 8.89112 -4.17549 18
437 1 6.4895 -0.0591424 -12.0029 13
438 1 -8.53768 -9.74283 1.88929 13
439 1 -6.16855 -0.0729802 -4.52257 21
440 1 -2.04703 -2.50082 -11.0466 16
441 1 -4.33476 -10.2488 -4.89894 18
442 1 -0.313676 -5.40676 7.01752 22
443 1 -0.553464 -1.37321 -0.681222 23
444 1 -1.099 -5.77908 4.00966 19
445 1 12.1825 4.84304 -6.52619 12
446 1 -8.0495 9.55481 3.88098 15
447 1 10.5315 -3.81704 -1.03284 16
448 1 -9.95517 1.80946 -1.04833 23
449 1 7.90192 9.46431 0.876824 15
450 1 2.73764 3.87245 12.4981 11
451 1 -12.6621 -2.22909 -6.38545 12
452 1 -2.42539 5.51924 -4.92232 22
453 1 8.57313 -9.13592 -0.947569 14
454 1 -7.49031 -6.44633 -3.2862 21
455 1 -6.20912 -10.3004 7.70756 12
456 1 12.755 -1.60024 6.33896 10
457 1 -11.1556 6.65894 0.868989 15
458 1 2.0784 8.60656 -7.99967 17
459 1 7.20684 -5.41838 11.3862 14
460 1 0.923079 -4.29291 -1.47584 23
461 1 -5.32041 2.2172 11.6097 16
462 1 -2.19721 1.14449 -10.0718 27
463 1 -8.75543 -9.00014 6.99576 11
464 1 7.19911 0.0920762 12.084 13
465 1 -2.8542 -13.041 -1.69736 17
466 1 10.2394 0.0480998 -7.86106 17
467 1 -9.62435 9.12246 0.995528 15
468 1 -5.48219 1.27539 7.25801 22
469 1 -1.31583 -0.4426 -5.33079 22
470 1 0.614698 -13.1107 -2.56104 15
471 1 9.09557 6.7805 2.02966 17
472 1 14.7356 2.66322 -0.870971 12
473 1 -4.4693 -8.85501 4.72693 19
474 1 4.09653 5.69099 0.00975178 21
475 1 5.54804 3.07787 -7.24901 22
476 1 -11.6864 2.99656 -3.97683 17
477 1 4.23992 9.23468 1.22527 22
478 1 4.14372 7.54426 7.74464 18
479 1 2.1752 9.40492 -2.31544 22
480 1 -1.04053 8.6431 11.0084 13
481 1 7.3217 -0.851603 -3.58963 22
482 1 -0.847834 -3.58434 1.30891 21
483 1 2.66242 -10.3932 5.2705 18
484 1 -1.79591 -0.456527 2.39504 22
485 1 8.44865 1.8273 9.14801 19
486 1 11.7898 -4.50335 -4.38207 13
487 1 -0.479229 -3.33531 -5.96321 22
488 1 -5.76174 8.69715 -7.97274 13
489 1 -2.90534 5.1914 3.23878 20
490 1 -3.02014 -0.797209 -2.74257 21
491 1 -4.60207 6.7731 1.66476 18
492 1 -2.14344 -8.02251 2.69315 24
493 1 6.37686 -11.3586 -2.66758 14
494 1 3.85349 1.5981 -13.1731 12
495 1 -8.85294 -3.18494 -2.2942 19
496 1 -5.80604 6.62756 -1.70307 18
497 1 8.63098 -2.72142 11.7157 15
498 1 -9.31341 -6.03504 6.7257 14
499 1 13.3035 -0.482513 -0.114772 15
500 1 0.715404 8.78746 -11.5796 9
501 2 -9.92137 -3.66977 -9.08551 11
502 2 -3.1846 9.5467 -4.30097 18
503 2 2.41707 2.05009 -14.1577 11
504 2 -2.79492 2.85958 9.12554 22
505 2 -8.21878 -5.99387 -9.26404 13
506 2 -1.5354 4.80185 12.4332 14
507 2 -12.8092 0.523689 4.90718 13
508 2 8.76495 4.95617 1.25556 16
509 2 5.32464 -1.99996 8.80553 19
510 2 -2.60418 -5.33762 -7.80358 23
511 2 -8.35091 -7.90641 -6.43932 17
512 2 -8.47362 2.51348 0.130621 19
513 2 -1.46515 -9.70539 4.10333 23
514 2 7.22454 4.93323 12.3278 7
515 2 7.01947 -1.77342 -11.1536 14
516 2 7.52268 0.0173909 3.13699 21
517 2 -2.78679 7.06619 2.45521 20
518 2 10.157 0.958478 9.39871 17
519 2 -0.72079 -5.00259 -2.35628 24
520 2 -9.40845 -4.17795 6.21708 15
521 2 -4.21291 -10.9199 5.28913 14
522 2 9.26087 -6.27016 8.90979 15
523 2 -9.59255 7.33163 1.8107 16
524 2 -8.58947 6.38607 -5.99884 14
525 2 -4.3407 8.27706 5.00033 21
526 2 -8.37699 5.23289 -0.212788 22
527 2 3.55458 -0.516047 -2.0015 22
528 2 10.1931 -4.54204 -3.0817 18
529 2 -2.9011 -1.09346 -6.36498 21
530 2 0.533602 -5.52464 -8.87176 22
531 2 -0.678892 -2.20991 -4.46373 21
532 2 9.54967 -0.277679 -9.61432 13
533 2 -8.10431 -5.29559 3.91737 20
534 2 7.03556 9.94366 -0.682731 13
535 2 -4.39679 10.5474 -0.694259 19
536 2 -1.85018 -11.953 -8.27454 12
537 2 3.18929 -6.51692 10.7352 15
538 2 12.4146 -3.48214 5.93666 12
539 2 -12.8628 1.76481 -3.37023 15
540 2 3.94719 -2.2107 0.0704594 22
541 2 2.16115 0.0719648 0.87147 22
542 2 3.35957 5.47658 1.93342 19
543 2 5.14078 -10.5216 2.61447 21
544 2 -2.60134 6.75787 7.23253 17
545 2 4.68113 11.2024 0.731239 16
546 2 3.83429 7.25359 -4.96017 19
547 2 -7.42241 6.76544 10.0398 13
548 2 4.0382 2.64138 -11.5939 16
549 2 -7.27872 0.698322 -3.30365 20
550 2 -13.4278 1.67811 2.27858 14
551 2 -7.31835 -8.55429 1.41871 18
552 2 -0.223887 -7.08175 5.9276 18
553 2 -2.69339 0.126565 11.7398 18
554 2 0.247571 4.77344 6.47719 20
555 2 -10.5421 2.69823 2.30609 20
556 2 4.13735 -6.02355 -5.02458 22
557 2 13.1524 0.393137 -5.09954 13
558 2 -2.24906 -10.4747 -0.363157 19
559 2 6.39952 -4.92854 -6.84138 18
560 2 2.79081 2.52219 6.55453 21
561 2 6.71157 -7.88893 -5.0474 21
562 2 6.65939 -5.17924 8.11189 17
563 2 -1.55571 -4.46041 5.50521 20
564 2 13.095 2.86784 -0.0907368 17
565 2 5.34719 -3.57309 2.78204 23
566 2 -3.48366 -8.48455 6.32353 20
567 2 8.08475 -5.704 2.01325 20
568 2 1.12303 2.55997 -6.24086 23
569 2 2.22783 -5.27535 -2.50329 19
570 2 -4.87825 -5.4802 -10.0266 16
571 2 -7.54059 -5.26111 0.628123 20
572 2 0.591183 -5.08367 0.58819 21
573 2 -5.10531 -4.26763 3.07619 19
574 2 -3.12536 10.3443 2.289 22
575 2 2.81586 -0.586992 -6.81778 21
576 2 9.8664 2.57252 -4.89525 21
577 2 3.92054 8.96056 -8.26615 12
578 2 -9.47155 6.80818 7.18656 15
579 2 -2.71255 3.93523 -3.61634 22
580 2 -10.981 6.25957 -1.01523 17
581 2 -2.69359 3.3571 5.72261 24
582 2 -10.1619 4.99569 4.08088 19
583 2 -5.8577 4.74721 -5.37819 19
584 2 12.7925 3.31897 -5.56103 15
585 2 8.52444 -7.07944 -0.744776 17
586 2 5.27115 7.892 0.781181 21
587 2 -1.02362 11.8278 3.74112 19
588 2 -5.48251 2.87896 1.04097 23
589 2 0.374026 2.67104 1.47762 20
590 2 10.4775 6.4555 -1.71972 15
591 2 -0.0300468 8.56501 2.33826 23
592 2 -1.25898 10.8675 0.223272 21
593 2 2.39976 4.43977 9.59577 23
594 2 -0.624287 -1.43522 6.01412 24
595 2 3.29052 -3.68456 8.46653 23
596 2 3.72738 -4.02467 -7.99201 19
597 2 -4.63723 6.11261 11.5951 14
598 2 4.09607 6.92839 -10.4314 15
599 2 -9.12389 -7.75876 5.60112 14
600 2 0.253388 -13.4307 -5.94083 15
601 2 -0.109839 -5.36904 -5.62444 21
602 2 5.71794 -10.4736 -0.976665 17
603 2 -0.369142 0.833722 -1.12021 24
604 2 8.83737 5.08087 -4.11516 19
605 2 -6.15346 2.47402 -12.7784 12
606 2 -1.1842 11.383 7.02741 13
607 2 -2.76585 0.812527 1.17109 19
608 2 -8.60694 -4.9351 -2.85078 23
609 2 2.00881 6.63014 -7.48548 19
610 2 0.837464 15.7059 -1.21932 10
611 2 2.70528 2.17745 11.6556 15
612 2 3.44645 -12.4106 -5.57281 14
613 2 -0.81535 1.51867 13.9052 11
614 2 10.6197 -5.08232 0.460075 14
615 2 5.89062 8.76771 8.86348 10
616 2 -5.05539 5.30242 -11.1375 13
617 2 5.36401 -4.32876 11.1181 16
618 2 -1.39213 -10.0464 7.26693 17
619 2 7.07494 -7.96106 7.18412 16
620 2 -5.34161 9.20956 -6.22735 14
621 2 -4.72875 -11.205 -3.38165 20
622 2 -0.341392 1.97226 -9.95441 21
623 2 -0.310131 -9.93135 -10.0202 13
624 2 10.3305 4.35802 7.79054 16
625 2 -10.1671 -6.61248 -0.244601 15
626 2 -11.6822 2.55908 -0.620224 19
627 2 11.1047 -4.0305 9.35145 13
628 2 -7.411 -12.7249 -1.75116 13
629 2 0.899094 -2.87336 -7.2998 19
630 2 4.44718 1.12423 -4.58282 20
631 2 -0.602118 -1.56694 -12.2773 14
632 2 -7.23365 -3.54485 -10.5267 14
633 2 -3.13548 -2.80122 8.11901 20
634 2 -5.63259 -8.91499 -5.6511 19
635 2 2.37156 -7.44657 -6.74211 16
636 2 6.3278 -1.62412 -7.89751 20
637 2 -6.25885 -1.54825 3.5571 19
638 2 -3.49613 0.389473 -9.02265 21
639 2 1.04433 -2.29202 -1.75084 23
640 2 2.45457 4.31355 -3.84314 22
641 2 -3.06153 -7.27338 -5.38732 20
642 2 -0.980558 7.31614 -8.0009 20
643 2 1.32579 9.90736 5.03085 20
644 2 8.2063 2.74002 7.27288 20
645 2 -12.9551 -1.79747 2.97028 12
646 2 -0.39749 -12.3393 5.20721 12
647 2 1.45888 7.65144 -10.2872 18
648 2 -6.75781 3.57064 4.28635 22
649 2 -5.82235 -7.40888 3.89887 16
650 2 -0.524827 -1.62239 1.08763 21
651 2 -5.47724 8.61969 1.99727 20
652 2 -5.18625 -4.53239 8.95013 16
653 2 1.72633 -10.5704 6.8838 12
654 2 -10.37 -3.94407 2.48146 22
655 2 -8.36888 -11.3567 0.96493 12
656 2 -6.78115 -2.71143 6.61934 18
657 2 8.8179 -4.52384 11.4193 13
658 2 7.60724 8.00916 -3.3526 14
659 2 -2.9253 -1.80221 3.63603 18
660 2 9.16246 8.05919 0.778301 16
661 2 11.416 6.04508 -5.22072 13
662 2 -3.63325 14.0623 -3.34437 10
663 2 -9.89012 -5.34267 -5.75664 18
664 2 -13.0172 -0.524512 -5.78434 10
665 2 -1.53237 -12.8721 -2.8519 18
666 2 9.9748 -4.79922 6.92828 18
667 2 9.85721 -7.49542 5.74132 14
668 2 -7.54658 8.70816 -3.63692 15
669 2 9.66573 -2.14928 -1.58746 18
670 2 3.56332 -1.51939 11.024 17
671 2 -0.318984 0.22147 -6.96626 24
672 2 5.20512 3.87932 4.36643 16
673 2 4.92562 6.77896 4.15563 20
674 2 -0.026572 -3.56146 7.88221 21
675 2 -7.90224 0.702196 2.71699 21
676 2 3.63256 -0.674372 5.97251 17
677 2 3.84285 4.08363 -6.62657 19
678 2 -6.01523 -8.14273 -8.85289 14
679 2 -7.28162 -0.814397 -6.03026 20
680 2 -8.35015 0.851995 10.0459 13
681 2 -0.189035 10.8705 -2.53976 16
682 2 2.76892 -2.78101 -4.70567 21
683 2 9.67225 2.88225 -1.29346 19
684 2 9.576 -7.86654 2.48344 15
685 2 -12.8755 -0.428229 0.153139 16
686 2 -1.09666 8.86557 4.91811 21
687 2 -5.46544 11.2766 -3.48016 16
688 2 2.59081 1.96853 -8.80044 21
689 2 -7.78018 5.28558 2.44544 18
690 2 2.28625 -5.54322 3.20635 22
691 2 2.08102 4.99808 -0.568752 20
692 2 -9.12969 -2.01066 4.60424 22
693 2 4.13759 -9.63908 -4.03904 22
694 2 -0.833999 -8.95496 -2.70102 20
695 2 -6.14634 12.4971 2.45987 16
696 2 -0.382581 -7.35599 2.87892 21
697 2 -13.4074 -0.492899 -2.5922 13
698 2 3.35743 -11.25 0.428335 16
699 2 6.66295 4.88728 6.24213 22
700 2 1.27369 -0.570281 -9.83358 16
701 2 -1.27383 8.89409 -10.5878 12
702 2 9.32517 3.20988 -9.73115 12
703 2 1.80978 10.5103 -0.601113 18
704 2 -5.43692 0.297507 12.0047 13
705 2 -6.12443 -1.46423 9.17532 16
706 2 -3.06241 -6.37554 3.40933 20
707 2 -2.57441 3.41905 2.70581 23
708 2 -13.4112 -3.47747 -1.68017 11
709 2 -5.13373 1.13418 9.27537 19
710 2 -0.498925 3.84865 -8.17523 23
711 2 4.02838 -0.597023 3.04925 21
712 2 5.62368 -1.37922 -4.88276 21
713 2 1.64042 -0.716309 8.14356 22
714 2 -5.62745 -3.21124 -5.1408 18
715 2 1.11133 7.48974 -13.0285 11
716 2 7.26702 3.04914 2.36801 16
717 2 3.64281 5.70566 6.92099 21
718 2 8.23879 0.478674 0.233486 21
719 2 -7.91637 -2.72988 1.59661 20
720 2 -3.33168 12.2702 -5.43646 14
721 2 0.387676 7.47204 10.6917 15
722 2 -1.92064 0.411821 -3.80548 25
723 2 2.40479 -12.8732 2.21582 13
724 2 -7.85948 -10.5 6.29278 11
725 2 -4.69676 -1.34643 -3.55372 24
726 2 3.39962 1.24863 8.99957 21
727 2 7.66889 6.2924 -6.57055 17
728 2 2.63107 13.869 -0.614786 11
729 2 0.131857 3.20997 4.30442 23
730 2 5.04888 -9.49099 5.43274 16
731 2 4.4677 -9.84117 -6.88974 16
732 2 -0.108674 4.2564 -13.6396 12
733 2 6.66785 -1.63096 5.42275 20
734 2 0.904535 4.13684 12.8029 14
735 2 -0.348062 1.58456 7.05699 23
736 2 5.24817 -6.75401 3.05395 22
737 2 -0.482014 1.27227 -13.3591 15
738 2 10.9642 -1.70868 -6.90687 18
739 2 -7.32904 11.2052 -0.59463 14
740 2 2.83993 -8.86437 -9.50704 14
741 2 -1.02211 -3.98476 13.7847 11
742 2 1.91767 -2.67161 2.37564 19
743 2 -3.6943 0.624225 -1.50077 22
744 2 -9.57652 1.32907 -7.34553 17
745 2 9.61524 -7.41759 -4.42438 13
746 2 1.8517 11.7952 2.074 18
747 2 12.3755 6.35432 0.193786 14
748 2 14.2329 5.1629 2.46147 12
749 2 -8.19585 -3.55332 -6.5692 18
750 2 -10.9075 3.87535 -5.58669 16
751 2 -8.08875 2.69994 -5.63272 20
752 2 -6.48477 0.0529953 -0.271741 17
753 2 10.8488 5.93415 2.77276 17
754 2 -9.84112 9.10216 -0.924175 12
755 2 -2.1053 -5.767 8.11194 21
756 2 5.72317 1.31866 11.3355 16
757 2 1.38579 -11.4812 -7.86356 12
758 2 1.93751 -3.34708 -10.5875 16
759 2 2.37319 13.2763 -3.67792 12
760 2 4.42065 10.2506 3.58521 18
761 2 -6.06113 -5.83001 -6.9574 20
762 2 -7.57818 -10.4892 -4.3435 13
763 2 12.4387 -2.89882 2.5086 13
764 2 -6.8325 8.31415 -0.817256 21
765 2 1.64129 -10.3725 3.52258 21
766 2 6.30845 -4.74612 -0.429144 20
767 2 -4.71974 -5.32413 6.21437 18
768 2 -6.95543 -7.07815 -1.47931 20
769 2 4.32966 4.85102 12.1649 13
770 2 1.98348 7.07746 -2.93845 20
771 2 -7.98432 7.65796 4.31731 20
772 2 5.10984 4.0192 0.486953 21
773 2 -2.94139 -5.51434 11.0647 16
774 2 -2.24074 14.9761 -0.57807 12
775 2 0.416347 -13.0907 -0.548853 13
776 2 1.69541 -6.09243 7.64817 19
777 2 9.77656 -1.4385 11.215 13
778 2 -11.9482 4.76394 1.21518 13
779 2 -2.33345 3.51831 -0.382956 19
780 2 -2.53977 7.55895 10.8847 15
781 2 -3.12935 -8.95877 -8.11284 18
782 2 12.4547 -3.40642 -0.926914 14
783 2 7.00052 -5.23053 -3.77885 19
784 2 0.091912 7.58907 -0.209616 20
785 2 -3.8253 2.89712 12.6584 14
786 2 -7.1061 -2.11149 -1.81621 20
787 2 8.18886 -2.36657 -4.87729 19
788 2 6.17574 2.27385 -1.99588 21
789 2 -6.39661 6.2973 6.27471 20
790 2 -1.88411 0.638507 4.17518 20
791 2 3.22307 2.40142 -1.77528 25
792 2 -1.25719 5.72294 -10.9678 21
793 2 -10.7636 -1.61128 -6.89213 18
794 2 1.21153 0.301692 -3.7446 22
795 2 -1.58204 -2.19364 -8.86797 21
796 2 -0.337045 5.64079 -5.43817 20
797 2 -6.44593 0.0824154 -10.7248 16
798 2 6.6323 -4.61298 -9.83107 17
799 2 -3.31749 -6.8837 -2.09264 21
800 2 -2.37786 -8.19671 9.39019 14
801 2 -2.71293 2.22137 -6.77074 21
802 2 8.6765 -2.95679 4.27178 19
803 2 3.24453 2.45032 3.08333 21
804 2 11.2395 -4.8859 -6.15847 13
805 2 -2.43961 -13.5246 0.0155998 13
806 2 9.75803 6.67184 5.65773 16
807 2 -3.93631 12.3024 4.76404 14
808 2 -10.0566 -2.883 -0.717587 23
809 2 11.3681 0.202803 -0.518623 19
810 2 3.08397 -8.3052 1.94212 23
811 2 -8.30556 10.1668 1.83225 15
812 2 5.66752 3.88574 -9.13073 16
813 2 5.04199 3.76397 8.90201 20
814 2 -13.3162 3.94329 4.29013 12
815 2 0.905523 10.0346 -7.38004 13
816 2 -9.25091 3.09654 -2.452 23
817 2 0.0635052 3.27865 -2.91715 22
818 2 4.84263 0.0357109 -12.7264 11
819 2 -4.75173 2.08248 3.99317 23
820 2 -1.75808 -0.454787 9.19374 21
821 2 12.2215 -0.484023 4.82127 14
822 2 6.89907 1.37724 -10.6038 15
823 2 -5.73491 -5.97259 -4.12349 18
824 2 0.379964 -8.92576 0.865656 19
825 2 11.2323 1.92622 -8.02073 15
826 2 -0.270539 5.46829 1.84963 21
827 2 0.593449 -7.31379 -11.3265 12
828 2 -11.799 4.70014 7.03075 13
829 2 -6.47857 0.300042 5.87078 20
830 2 6.39723 -11.3675 -4.73687 13
831 2 -4.5148 -13.8521 -2.14806 12
832 2 -4.61968 -9.49966 -0.667215 17
833 2 13.8276 -0.65547 -2.01958 13
834 2 -3.97562 8.29977 -8.8016 17
835 2 3.22718 7.92873 9.60223 15
836 2 -2.83925 -13.1586 -5.61663 14
837 2 8.8454 0.295389 5.97377 23
838 2 -1.45609 9.28247 8.96142 17
839 2 -0.711834 6.13982 -2.63359 19
840 2 -9.0087 4.49007 -8.23335 13
841 2 1.48616 -7.73957 -4.03501 19
842 2 -7.38897 -8.94134 8.4478 10
843 2 -10.6468 7.14266 -3.72106 13
844 2 6.56135 8.43606 -8.72072 10
845 2 -3.4925 6.71742 -5.97766 22
846 2 5.55681 9.0075 -5.71999 15
847 2 -4.94288 -2.87232 -7.90506 21
848 2 2.22904 -13.6351 -3.85015 14
849 2 -12.6215 -3.37616 -4.96367 11
850 2 8.23613 6.85131 8.5489 13
851 2 -3.15516 0.573733 -11.7348 15
852 2 -10.9496 -6.77404 3.1795 11
853 2 11.9343 2.08766 6.80117 14
854 2 6.0212 7.04496 11.4561 10
855 2 10.3693 4.43319 -7.393 17
856 2 -0.111575 8.78099 -4.99802 21
857 2 -0.707745 14.3578 -3.73165 12
858 2 12.8112 0.121466 1.6402 14
859 2 -4.697 1.87302 -4.48658 18
860 2 5.46619 11.0791 -2.89738 13
861 2 -0.238719 -1.87549 14.9055 8
862 2 -2.14599 -7.31028 -10.7847 14
863 2 -2.79957 -4.40975 -4.50784 23
864 2 8.41741 1.22012 11.2242 14
865 2 -4.95225 5.42313 3.11357 22
866 2 8.06845 -9.86961 0.973002 14
867 2 8.67629 -6.62622 -7.41389 13