ITEM: TIMESTEP
33000
ITEM: NUMBER OF ATOMS
1000
ITEM: BOX BOUNDS pp pp pp
-30.0 30.0
-30.0 30.0
-30.0 30.0
ITEM: ATOMS id type x y z Coordination
1 1 -2.38505 -10.2158 -8.94571 13
2 1 6.00458 -10.8462 6.82545 11
3 1 -9.33493 9.43269 -2.57214 11
4 1 -10.4139 2.59588 -7.63461 12
5 1 -2.14293 -7.09177 10.1128 16
6 1 -6.65908 0.696772 -11.6685 13
7 1 -2.99588 1.79543 -4.63538 22
8 1 -2.84106 -13.4345 1.10293 15
9 1 6.22637 -1.49573 6.14741 19
10 1 -0.75117 4.01764 10.8346 19
11 1 7.87174 -2.36055 3.22087 20
12 1 -3.11218 11.3432 -8.46593 11
13 1 1.98831 1.15568 11.7785 17
14 1 -10.9858 -0.761511 2.08579 23
15 1 -3.64134 -1.72894 -8.20874 22
16 1 1.31002 -1.98395 7.37237 20
17 1 2.87036 -2.46416 -6.04558 21
18 1 -0.621552 2.26502 13.0997 11
19 1 -2.09539 -11.8984 7.05845 13
20 1 -13.9832 -1.64952 0.493871 15
21 1 -8.41397 -0.191344 -0.184091 21
22 1 -3.07276 13.6016 -0.318771 14
23 1 1.63122 0.878497 -10.0909 21
24 1 6.57824 -3.88131 -11.2647 15
25 1 -3.83606 -3.37212 11.7846 14
26 1 -9.46458 5.91434 -1.85477 16
27 1 0.111891 13.0627 -0.812418 16
28 1 1.4957 -13.5188 2.91004 9
29 1 5.15007 -5.55759 -5.92126 20
30 1 9.63452 2.33952 5.64535 21
31 1 -8.4271 10.464 -5.83135 8
32 1 2.00652 6.26448 -4.45556 20
33 1 3.0027 4.86902 5.62 19
34 1 1.15629 3.46349 7.81544 23
35 1 -7.86719 -2.23552 2.07099 22
36 1 3.9542 -1.07783 12.1725 18
37 1 -10.859 -2.28235 -0.490148 17
38 1 11.7145 4.28609 7.17078 12
39 1 8.09612 -1.1982 -1.15318 23
40 1 5.21598 -1.02605 8.74353 18
41 1 -6.11634 -4.97198 2.35465 22
42 1 -3.38508 -6.76565 -7.7597 19
43 1 -7.17477 10.9367 -0.776616 15
44 1 -3.93689 8.0375 -7.37157 20
45 1 4.45004 0.159446 -5.0291 21
46 1 6.3095 -2.99568 -5.6758 22
47 1 5.51163 -7.48768 3.23486 21
48 1 5.02869 -9.18616 9.74818 13
49 1 -5.17843 8.0755 5.88339 23
50 1 -6.67638 -7.22184 8.03361 18
51 1 -11.821 3.34599 3.10509 14
52 1 6.96794 -7.8915 -7.86844 12
53 1 4.85506 0.602587 -10.3237 20
54 1 7.92302 0.652657 3.91817 19
55 1 -0.297437 10.1926 3.8929 20
56 1 -7.19398 7.73884 -7.5255 15
57 1 1.17518 8.58319 1.65683 20
58 1 -0.245254 1.14747 -3.16823 22
59 1 -4.43626 -8.36343 9.17832 14
60 1 -2.00108 -3.95865 -9.76844 20
61 1 5.27196 -6.5329 -10.29 14
62 1 -1.83571 3.14081 8.22982 22
63 1 -9.01564 -7.69312 -0.609507 19
64 1 5.20494 -4.63869 2.74603 19
65 1 -8.74141 -10.1359 -2.92839 11
66 1 8.30482 -9.58031 2.50735 15
67 1 -5.47384 7.75693 2.06605 22
68 1 -5.87071 3.24263 1.55261 22
69 1 4.39393 5.63398 -6.7869 25
70 1 8.28269 -10.2223 -1.09828 12
71 1 -8.64195 -9.8624 1.43017 12
72 1 10.6054 7.36135 5.27252 12
73 1 5.90398 3.92187 -0.370041 23
74 1 -2.06009 13.0438 -3.24823 14
75 1 -1.07582 -7.45565 -9.80642 15
76 1 -4.35155 8.13145 -3.82293 20
77 1 10.0495 -0.116859 -3.4837 23
78 1 3.36783 -4.63256 -3.98644 23
79 1 6.1707 2.75308 -12.115 12
80 1 7.42241 -8.54901 5.37595 18
81 1 -6.26967 5.56432 -8.95863 18
82 1 -1.82073 3.03299 -1.73476 23
83 1 5.53734 11.34 -0.437272 15
84 1 9.22312 8.0974 -1.73563 17
85 1 -1.56017 9.84694 -1.76855 23
86 1 -2.90629 -3.19955 -12.062 11
87 1 -12.9256 -5.16587 -3.45295 11
88 1 -2.76466 8.60557 8.45134 21
89 1 -0.839165 12.2661 -6.28365 13
90 1 2.17664 -4.23118 12.4437 13
91 1 -10.6411 -4.06104 2.98909 19
92 1 -4.32528 -12.411 4.44755 12
93 1 1.11303 7.43367 -1.56743 21
94 1 11.3319 9.48407 -3.39723 9
95 1 -0.198263 -10.0703 9.53411 10
96 1 -8.21015 2.78576 -1.52589 22
97 1 -0.783182 6.11512 8.44297 23
98 1 -5.41353 2.66125 -6.68105 18
99 1 -5.71777 -4.73098 6.53773 22
100 1 -9.53067 -10.028 5.12054 10
101 1 -2.53875 0.774629 0.315625 20
102 1 -1.62207 -0.62194 4.35948 20
103 1 -5.20858 -2.77231 -3.86364 23
104 1 4.85143 -7.29062 -2.75699 22
105 1 -2.80698 10.3916 6.17781 21
106 1 -7.49541 0.963943 2.56619 20
107 1 -8.46498 -1.34381 -5.34608 21
108 1 -2.32967 -10.3637 1.3238 23
109 1 6.10363 2.50942 -7.2776 22
110 1 4.59114 2.07392 13.2615 12
111 1 -4.01684 -2.50427 2.67513 19
112 1 -3.83869 5.22493 -10.3406 16
113 1 -10.8615 -3.51611 -8.41339 9
114 1 -6.11689 13.3067 -0.266055 13
115 1 5.36641 1.65076 10.305 20
116 1 -2.50558 10.0666 -4.85477 19
117 1 3.0675 6.06585 -9.62438 14
118 1 -1.62835 3.54218 2.06376 21
119 1 -9.62042 5.36268 4.99862 18
120 1 -5.83327 7.11072 8.64411 15
121 1 -0.815414 -12.9592 -9.30076 8
122 1 -2.62161 2.7107 5.27633 22
123 1 -5.30836 -0.361684 0.503879 22
124 1 1.67386 -6.78993 -1.73621 22
125 1 7.14709 7.52835 -7.14155 17
126 1 1.67874 10.4908 -1.4338 24
127 1 -12.4012 0.67864 4.53699 16
128 1 2.08927 6.73937 10.1452 16
129 1 13.1299 0.0560854 -2.68522 16
130 1 2.6815 7.07943 7.52204 24
131 1 -9.1374 8.29249 3.56343 14
132 1 -11.5811 -8.2979 -2.38091 11
133 1 1.55857 -2.11138 10.1944 19
134 1 3.60575 -9.62518 -2.16764 21
135 1 -3.32455 0.076118 -12.9109 13
136 1 9.02792 0.226445 -6.78917 21
137 1 -10.9377 -3.36316 7.24679 14
138 1 -9.71755 -6.53833 -7.79148 10
139 1 -4.12143 -6.48186 3.44811 22
140 1 -1.93887 -7.76284 1.48074 21
141 1 -8.94382 -1.33439 -10.5313 12
142 1 -9.88565 -0.265462 -7.93982 15
143 1 11.0412 2.08644 8.54799 12
144 1 4.62687 -4.03997 10.6492 16
145 1 0.923269 -7.39688 6.59068 21
146 1 7.20546 10.981 4.31052 11
147 1 -6.66373 -7.47445 4.85734 23
148 1 1.76908 12.3144 1.85083 19
149 1 -4.82612 -4.47603 -9.1259 19
150 1 -4.53677 -9.60855 -6.60361 20
151 1 -5.24814 -8.4416 1.67793 22
152 1 -3.5072 -5.49787 0.536879 21
153 1 2.45249 -3.21743 2.53197 25
154 1 8.15728 4.81218 5.57621 20
155 1 -4.11489 -5.73364 -2.85045 20
156 1 -8.37978 -1.91676 10.4242 11
157 1 -1.33916 -11.6701 -1.41399 21
158 1 3.3107 3.21588 -5.26254 22
159 1 0.372143 -13.0704 0.764746 15
160 1 3.7026 -4.55677 -0.609379 23
161 1 1.7579 -12.3853 -1.82985 17
162 1 -9.6484 5.64131 -9.32247 9
163 1 5.93445 5.89109 6.72551 20
164 1 -4.50109 0.985645 -9.85634 17
165 1 -4.79816 8.73863 -9.88369 10
166 1 -5.0647 -2.14955 7.79903 18
167 1 2.51205 10.5517 5.86124 18
168 1 12.5708 1.39147 5.4134 13
169 1 -13.307 -0.735522 6.69655 10
170 1 -5.33799 -6.6692 11.4571 10
171 1 -5.68529 11.7414 5.40376 15
172 1 3.19724 -4.6107 -10.993 14
173 1 3.34892 -11.1344 0.8956 17
174 1 8.94747 -1.432 -9.59683 19
175 1 -2.61758 -3.96236 4.83943 18
176 1 0.486817 0.862194 6.66681 25
177 1 -9.44989 -1.33116 4.90457 23
178 1 7.81521 -10.6709 -6.33182 9
179 1 -3.46999 9.69156 3.59003 18
180 1 -7.53731 5.2685 2.96829 22
181 1 0.254602 1.54482 3.62402 21
182 1 3.08525 -11.1039 8.42226 13
183 1 -3.37097 5.51315 10.2284 19
184 1 -8.49812 -5.01698 -5.3594 20
185 1 4.96425 -1.38965 3.44017 19
186 1 -1.42911 12.9353 4.63405 15
187 1 -4.45681 5.33949 -5.894 23
188 1 -13.5761 1.13279 1.11093 12
189 1 -6.01192 -3.33139 -7.00409 21
190 1 -4.05741 10.5041 0.622028 22
191 1 6.33658 1.7986 6.91871 19
192 1 7.14559 -7.78219 8.03577 17
193 1 -4.79322 2.64299 -1.54417 21
194 1 -0.905245 -4.85844 8.06277 20
195 1 2.28406 -12.3834 -7.82126 13
196 1 -8.1488 -4.35207 -8.92028 16
197 1 -12.5131 -1.99353 -3.10394 11
198 1 -3.46288 -8.86078 -1.24969 24
199 1 -2.04095 -3.46218 -3.11957 21
200 1 13.7912 3.34339 -3.5989 13
201 1 -5.67225 3.17243 -12.1799 14
202 1 2.73675 0.55669 2.02046 20
203 1 -8.55969 7.86897 6.95129 13
204 1 -7.2421 13.0141 2.97604 9
205 1 -6.8508 5.06174 6.49853 24
206 1 12.0071 -1.89329 -5.01862 13
207 1 11.8516 1.21067 -5.69003 18
208 1 3.58445 0.200465 6.00191 19
209 1 -3.43021 5.18698 0.325709 23
210 1 1.99942 -10.0898 -5.72119 18
211 1 1.30043 7.53503 5.05976 19
212 1 5.64311 2.46781 -3.06651 24
213 1 -8.58245 1.86367 -4.90287 19
214 1 6.47738 -13.4333 -5.03594 9
215 1 8.39184 0.29709 7.82344 19
216 1 -10.1182 -7.37575 -4.59001 15
217 1 -6.61747 -10.1376 4.00608 15
218 1 -0.936198 11.0806 0.677229 19
219 1 -11.7511 3.89416 -0.474742 14
220 1 -1.12937 -9.35177 -6.33012 21
221 1 3.16232 -9.28034 5.0551 18
222 1 -4.24487 -12.3792 -1.4949 16
223 1 -7.50853 4.94886 -6.50848 19
224 1 -1.34381 -12.301 3.65502 16
225 1 -3.42341 0.252008 6.59514 21
226 1 2.66662 1.01258 -2.7063 24
227 1 -9.19053 2.44537 4.75517 21
228 1 -0.50586 -6.0403 -7.34896 19
229 1 0.247852 -4.05393 5.01001 21
230 1 -15.136 -0.915876 3.74559 11
231 1 -1.69412 -8.57895 7.37929 19
232 1 -6.62721 -4.65006 9.92206 16
233 1 2.4984 -7.30551 -4.86401 22
234 1 5.93596 -9.70255 0.513555 20
235 1 2.36408 10.9184 -5.20009 15
236 1 -10.0116 -8.66876 7.96828 9
237 1 9.6235 -5.48235 9.69559 8
238 1 8.52493 6.21365 0.697081 20
239 1 -5.88059 2.63782 4.57248 22
240 1 -0.261936 -1.82675 -7.87582 20
241 1 8.71758 -3.18322 7.18933 18
242 1 -0.171796 5.23481 0.0995351 20
243 1 -3.35159 1.80125 10.1719 18
244 1 3.40751 13.3677 -0.86406 13
245 1 6.9896 -5.21262 5.43248 23
246 1 -2.14038 -13.574 -4.14778 13
247 1 5.32278 7.81927 9.36052 14
248 1 -8.39935 2.81912 7.96738 18
249 1 -5.55569 -8.62594 -3.65944 22
250 1 -7.78172 -8.81439 -5.91707 17
251 1 -5.50003 10.5847 8.01735 12
252 1 -3.30161 -12.3632 -7.15409 14
253 1 -6.42246 -2.0273 4.77053 18
254 1 7.81133 3.17618 8.59573 21
255 1 10.9058 3.05064 -2.55512 21
256 1 1.07906 3.06238 -8.16778 22
257 1 0.744819 6.32825 -7.07063 20
258 1 -0.718255 10.6381 9.62317 12
259 1 -14.6987 -5.00626 -0.2636 7
260 1 8.78216 9.54939 -4.73939 14
261 1 -6.54723 -7.6286 -8.71871 12
262 1 -0.248728 -2.2424 -12.0243 14
263 1 7.94518 5.07535 -2.54574 20
264 1 3.65958 9.08014 0.172327 16
265 1 3.84158 0.287449 -7.8015 16
266 1 1.29165 -8.96944 2.00614 18
267 1 3.28152 2.87493 -0.144081 22
268 1 -4.65431 4.44938 -14.9749 4
269 1 11.583 7.81038 -0.306177 11
270 1 6.41484 -6.42367 0.0747411 21
271 1 0.289111 0.958206 -13.1152 15
272 1 0.529705 -9.40006 -0.614275 21
273 1 2.19112 -8.46864 8.56223 18
274 1 -8.74248 3.25832 -10.3752 12
275 1 1.85748 3.77792 2.18752 21
276 1 0.876881 3.89101 -10.8599 16
277 1 -14.1444 -4.34799 2.17632 9
278 1 11.4859 -2.42444 -1.50718 17
279 1 -0.506339 3.6872 -5.32585 19
280 1 -9.00504 7.50647 -4.862 11
281 1 2.26653 -7.79886 -8.15356 18
282 1 4.1983 3.32733 -9.6541 21
283 1 9.36087 -2.7139 -7.00138 16
284 1 0.737476 -5.5616 0.898205 19
285 1 -7.75149 -2.60783 7.71055 21
286 1 -0.737468 14.318 2.2459 12
287 1 -0.0694567 9.41045 -7.48551 15
288 1 12.874 4.92716 -1.04601 15
289 1 0.436517 -9.26401 -3.25772 21
290 1 2.49731 -4.59145 -7.62367 17
291 1 3.23544 5.67297 -0.527328 21
292 1 10.2273 -2.44963 1.56143 19
293 1 3.25538 -7.57631 0.635036 19
294 1 4.64309 -1.84223 -2.62053 23
295 1 -11.5827 2.67003 6.64651 12
296 1 -6.05628 -3.415 -0.75869 23
297 1 -5.79774 -6.70898 -5.58355 22
298 1 -1.05792 -3.3099 10.5963 18
299 1 8.71395 7.16129 -9.289 9
300 1 -7.54917 11.9626 -3.59109 11
301 1 1.58549 13.3844 -3.58148 13
302 1 -0.400364 0.275976 9.39586 22
303 1 5.24003 -12.7255 -7.39167 9
304 1 6.626 -0.9604 -7.61046 19
305 1 -11.3708 -6.24606 0.824536 16
306 1 -5.92427 2.90557 -3.85571 20
307 1 -9.38879 -5.41708 9.11816 11
308 1 6.05607 7.28433 -1.52876 18
309 1 4.25408 -9.77385 -9.08238 13
310 1 3.62064 -7.13472 11.5204 10
311 1 7.19206 -0.663329 -4.27495 20
312 1 0.0735983 -1.64433 1.71283 20
313 1 -8.3323 8.15656 0.536916 17
314 1 8.07732 -5.46104 -5.28282 16
315 1 2.2748 9.38636 9.12837 13
316 1 -1.59478 2.78082 -9.77316 17
317 1 9.18894 4.25086 -10.8095 12
318 1 0.151702 -5.21362 -11.812 12
319 1 -2.61886 -10.5852 -3.8133 24
320 1 13.4137 2.68955 2.07254 15
321 1 7.3474 -4.63437 -8.17417 16
322 1 5.05258 -8.72305 -5.36494 18
323 1 7.88257 11.3938 -2.19771 9
324 1 -9.06232 2.94726 1.18926 20
325 1 11.6507 6.24264 -3.6362 14
326 1 2.59508 -4.97009 8.14396 21
327 1 8.47866 0.894921 1.25894 19
328 1 7.75193 3.22017 12.0285 12
329 1 -6.64443 -0.353234 -8.29359 18
330 1 13.5735 5.49116 1.68723 10
331 1 8.2439 -5.45805 2.21302 20
332 1 -1.46333 -6.54256 -1.66433 22
333 1 0.196975 12.3421 7.24747 14
334 1 4.37159 3.6808 8.43654 20
335 1 -4.57104 11.1871 -2.35352 19
336 1 -0.012991 -12.1913 -4.923 20
337 1 -7.44819 5.43734 -12.279 8
338 1 -5.89102 -2.34464 -10.6027 17
339 1 -10.2389 0.0310947 -3.21195 21
340 1 10.4603 -7.68197 3.69324 11
341 1 -0.333486 -10.1528 4.64274 23
342 1 0.36593 1.64129 0.328024 22
343 1 3.45804 -3.46926 5.56319 24
344 1 8.99995 4.24435 -7.71441 19
345 1 5.20548 0.445884 -0.596273 22
346 1 12.6761 -1.91526 3.79771 11
347 1 6.90145 6.61736 3.68837 19
348 1 10.279 -4.5767 4.29144 15
349 1 -5.14077 3.01008 7.6978 23
350 1 -9.1798 -6.51923 2.78625 18
351 1 -10.6111 -3.07185 -5.68977 16
352 1 9.09048 0.0536782 10.8509 9
353 1 -4.31456 14.1041 2.72088 11
354 1 10.5618 3.64346 0.811792 18
355 1 5.55525 -2.6908 0.501374 18
356 1 5.25839 3.62975 4.98944 23
357 1 -9.42277 -0.102022 7.8326 18
358 1 10.6871 0.681662 -10.8592 11
359 1 -3.22123 -4.36407 -5.95831 22
360 1 7.72125 6.50441 9.14643 15
361 1 2.74409 2.50851 4.8306 21
362 1 0.307616 -0.926395 12.8084 14
363 1 -2.19388 5.62386 13.2193 7
364 1 -6.74094 4.28071 9.8415 11
365 1 -3.57303 4.97445 -2.9532 20
366 1 -1.64862 7.00369 -5.09938 22
367 1 8.09226 11.794 1.60255 9
368 1 -1.52772 -2.13571 7.52488 20
369 1 4.22953 11.4946 -3.065 14
370 1 -0.224186 -6.07236 -4.15937 22
371 1 -6.60577 -10.3354 -0.961253 17
372 1 5.35356 2.15033 2.13269 21
373 1 -4.09546 5.4206 3.67245 20
374 1 -6.60626 5.3252 -0.179471 20
375 1 6.68702 4.4841 -5.44473 18
376 1 2.48178 0.836048 8.98065 20
377 1 7.96556 8.47619 6.51407 16
378 1 -6.59555 0.206467 -2.61597 24
379 1 -2.19952 0.922419 -7.59842 23
380 1 -0.29643 4.78199 5.14884 19
381 1 6.28679 -4.34632 -2.70519 24
382 1 4.31791 10.7711 3.18755 18
383 1 -12.3952 -2.42919 4.46157 16
384 1 5.58719 -12.6468 -1.45696 12
385 1 10.7314 7.62612 -6.4574 11
386 1 2.48137 -6.09079 3.80839 22
387 1 -1.18055 6.45757 2.72502 18
388 1 4.62847 -1.89351 -12.4525 13
389 1 -2.82765 -2.28453 0.17873 19
390 1 4.70616 -2.6203 -8.73803 21
391 1 2.3835 -1.74894 -0.506604 22
392 1 -2.72561 13.1155 8.04878 8
393 1 4.30969 -6.83567 6.22015 20
394 1 1.0687 0.474112 -5.9923 24
395 1 -5.49733 -11.9338 -4.48364 11
396 1 1.13778 -1.62018 -3.52659 21
397 1 -3.14441 5.53597 7.06999 24
398 1 11.0633 0.831434 2.82048 20
399 1 0.174328 8.86585 -4.28133 23
400 1 11.1846 2.38819 -8.57197 16
401 1 1.50113 -1.02652 4.44944 23
402 1 8.57228 2.51843 -4.68818 20
403 1 5.41688 8.33214 -9.16955 11
404 1 -3.1674 -1.10568 9.60428 19
405 1 -3.64649 -4.65515 9.14429 21
406 1 2.23475 -7.70792 -11.1693 13
407 1 -5.15276 8.04338 -0.95985 22
408 1 3.80152 7.97282 3.87972 18
409 1 -8.18198 -4.54989 4.63805 20
410 1 6.54735 5.10695 -9.71535 17
411 1 -2.94459 -0.00632924 13.4704 9
412 1 -10.3422 -5.39112 -2.38184 20
413 1 10.9263 0.577456 -0.434475 22
414 1 -5.83751 -6.81882 -1.08654 21
415 1 9.2389 -7.83627 0.275776 15
416 1 5.46395 -10.2293 3.55741 15
417 1 0.272158 8.92391 7.24045 22
418 1 -9.84551 5.2668 8.45035 9
419 1 7.67419 3.63377 2.47876 19
420 1 8.32207 -6.45684 -2.37057 15
421 1 1.18633 3.92327 -2.47061 23
422 1 5.88675 8.0175 1.40289 15
423 1 1.99115 13.6731 4.37625 11
424 1 0.971505 -12.6326 6.10428 12
425 1 -8.46203 -2.70169 -2.77872 22
426 1 1.92739 3.74119 10.5839 15
427 1 4.91584 13.1274 2.39221 12
428 1 5.65565 -4.51358 8.1365 21
429 1 9.52369 -6.55653 6.60006 14
430 1 10.8115 7.29724 8.16053 9
431 1 -2.03258 6.97335 -1.81165 21
432 1 0.75824 -10.3587 -8.98762 18
433 1 -2.403 3.06246 -12.6855 13
434 1 -5.127 -0.65524 11.6359 13
435 1 10.5049 5.0665 3.17151 18
436 1 5.58633 9.93782 -6.01257 14
437 1 7.48837 -0.43873 -12.1333 13
438 1 -5.74356 -11.7598 1.36081 15
439 1 -5.15766 -0.483629 -5.87413 19
440 1 1.73396 -2.53469 -9.75705 18
441 1 -3.05856 -7.43477 -4.74331 23
442 1 0.59993 -6.53041 10.1739 16
443 1 -0.70721 -1.03223 -1.12796 19
444 1 -0.949516 -7.08788 4.22358 23
445 1 11.5781 4.3536 -6.01844 14
446 1 -8.16898 10.5434 5.60152 13
447 1 9.30007 -4.61199 -0.420333 15
448 1 -11.2929 0.853184 -0.539597 18
449 1 9.19891 8.36594 2.60728 14
450 1 5.04751 5.15745 11.4846 15
451 1 -11.9327 -0.193942 -6.02107 12
452 1 -2.01248 4.54146 -7.30249 20
453 1 9.24116 -8.77821 -3.48918 10
454 1 -7.28583 -5.33525 -2.71746 21
455 1 -3.79551 -6.69887 6.5533 24
456 1 10.4109 -1.19588 5.38356 16
457 1 -10.3166 5.9823 1.64577 15
458 1 3.01369 8.46506 -7.28858 15
459 1 6.80675 -6.64175 10.9013 12
460 1 1.04924 -3.94128 -2.31354 20
461 1 -6.63747 0.600533 9.4005 19
462 1 -1.13482 -0.0982125 -10.5346 21
463 1 -7.38473 -10.6588 7.50606 10
464 1 6.93163 -0.174703 12.6826 11
465 1 0.253274 -14.4058 -2.39463 10
466 1 11.9314 -0.956796 -8.0106 12
467 1 -6.61604 10.4994 2.52904 18
468 1 -6.99075 0.3684 6.12502 21
469 1 -1.8668 -1.05217 -5.2051 24
470 1 2.87279 -13.562 -4.84234 11
471 1 4.47795 5.02678 2.52578 21
472 1 14.6345 2.55341 -0.665494 12
473 1 -4.99773 -9.77945 6.37396 18
474 1 6.67661 7.57729 -4.17118 19
475 1 7.81371 1.77877 -9.67846 22
476 1 -10.4956 3.83114 -3.78404 12
477 1 4.55639 5.28102 -3.18298 24
478 1 5.06999 9.2969 6.47293 16
479 1 3.47239 8.65491 -3.29481 19
480 1 -0.9168 7.88521 11.2051 13
481 1 7.89268 1.75751 -1.9848 20
482 1 -1.35814 -4.25811 2.03465 18
483 1 3.83614 -12.5398 5.37667 11
484 1 -3.75483 1.0764 2.96577 19
485 1 10.0492 4.73138 10.2398 10
486 1 8.99751 -3.14255 -3.61557 21
487 1 0.0880803 -3.61084 -5.45856 21
488 1 -5.37211 10.9443 -6.09008 15
489 1 -2.03816 7.47472 5.13338 23
490 1 -3.43617 -0.740398 -2.41173 23
491 1 -2.26576 8.21265 1.08067 20
492 1 -3.13458 -9.28226 4.35873 23
493 1 6.52643 -10.7226 -3.24944 17
494 1 3.19315 1.6109 -12.7226 13
495 1 -8.86123 -4.61899 -0.146057 21
496 1 -6.83113 5.5233 -3.5037 19
497 1 7.88403 -3.33378 10.7881 12
498 1 -10.6156 -6.36639 6.09522 11
499 1 13.5852 -0.478088 0.690755 14
500 1 -1.80596 6.82691 -8.98864 15
501 2 -10.8267 -1.84063 -7.3818 15
502 2 -6.8758 12.6561 -1.90242 11
503 2 0.814634 -0.62812 -12.2725 14
504 2 -1.9347 6.38185 11.5834 13
505 2 -8.14429 -6.48255 -8.80689 14
506 2 3.61666 2.46839 11.485 17
507 2 -12.2551 -2.45889 6.46503 12
508 2 9.12558 4.65863 1.6951 19
509 2 1.74989 -2.85851 5.42554 21
510 2 -4.21302 -3.34076 -7.22953 23
511 2 -9.03581 -7.58531 -6.25758 13
512 2 -9.3522 1.63614 -0.261315 22
513 2 -3.42599 -8.57505 6.13478 21
514 2 5.91613 3.35475 12.2654 12
515 2 9.17636 -0.236689 -11.3192 9
516 2 7.24049 1.79271 2.45608 18
517 2 -5.33387 10.2403 -0.945153 22
518 2 11.304 3.8389 9.16992 10
519 2 -0.848378 -5.00265 -2.73054 21
520 2 -10.4925 -5.19782 7.69078 12
521 2 -2.95511 -13.1306 3.08985 11
522 2 8.94961 -6.73964 8.26571 15
523 2 -7.87634 9.05285 2.40327 17
524 2 -8.14287 8.662 -6.13503 13
525 2 -4.45148 9.70348 5.25871 21
526 2 -2.69222 5.25581 2.052 22
527 2 3.38755 -0.587327 -1.88134 21
528 2 8.63044 -4.50348 -2.19468 16
529 2 -3.32251 -0.47867 -6.60384 23
530 2 1.20444 -2.94279 -7.15641 19
531 2 -0.786926 -2.33561 -4.37649 23
532 2 11.0763 -0.757819 -9.57981 12
533 2 -3.14287 -3.90197 1.46358 21
534 2 9.06098 9.74625 -2.87112 12
535 2 -4.7672 9.7122 2.21023 19
536 2 -2.03716 -11.9672 -8.55766 12
537 2 3.36331 -8.19283 10.0419 15
538 2 9.05734 -5.05341 5.5742 18
539 2 -9.35551 2.29948 -3.05456 19
540 2 3.34689 -3.07327 0.633331 22
541 2 1.30203 -0.354492 0.645668 21
542 2 5.04907 6.90132 2.95409 19
543 2 5.10964 -10.8799 1.92885 14
544 2 -0.302123 6.56519 4.53751 22
545 2 4.61143 9.62524 1.83151 19
546 2 2.55994 6.45682 -6.56015 17
547 2 -7.8831 4.74761 8.46705 15
548 2 5.13064 -0.888532 -9.27751 20
549 2 -9.4353 0.113024 -5.05755 19
550 2 -14.7371 -0.316775 1.9919 10
551 2 -9.35345 -7.96314 1.38118 13
552 2 -0.605846 -8.45265 5.86229 18
553 2 -2.99281 -3.04132 10.084 19
554 2 0.766466 7.03181 7.52479 24
555 2 -9.01163 2.02731 2.83949 21
556 2 4.3279 -6.62119 -4.46609 19
557 2 12.5741 -0.130496 -4.49412 15
558 2 -1.46408 -11.8947 0.509107 18
559 2 5.41398 -1.62946 -4.42834 22
560 2 1.35259 4.45149 6.29943 21
561 2 6.58935 -9.0483 -6.36028 15
562 2 5.55563 -2.71352 9.4477 18
563 2 -4.01931 -5.34724 5.0771 22
564 2 14.5291 1.25415 0.667351 10
565 2 3.49094 -4.37754 3.67848 21
566 2 -3.59034 -11.227 5.91138 16
567 2 9.00761 -3.75832 2.09789 16
568 2 2.04047 2.08741 -6.56987 19
569 2 1.74758 -5.90068 -3.89266 22
570 2 -5.06802 -6.48118 -8.88155 16
571 2 -7.55247 -5.96851 3.48531 19
572 2 -1.45164 -5.95969 0.388313 21
573 2 -5.42656 -8.73901 -1.66566 21
574 2 -2.3733 9.99287 0.222275 20
575 2 2.87446 -0.403319 -6.28551 20
576 2 8.82171 3.21494 -2.72044 19
577 2 4.57875 5.27642 -8.91876 17
578 2 -9.74088 6.25099 6.80955 13
579 2 -3.4576 2.91405 -3.10757 20
580 2 -9.51259 6.75111 0.172749 18
581 2 -2.95892 1.84788 7.31057 20
582 2 -9.36971 6.39606 3.33855 16
583 2 -5.28851 4.81421 -4.35515 19
584 2 12.855 3.0495 -5.20406 15
585 2 9.02021 -8.60453 -1.64221 14
586 2 7.62428 7.65948 1.62994 14
587 2 0.305992 10.4765 2.13278 21
588 2 -4.15963 3.5538 4.45891 21
589 2 0.0617146 3.5339 1.14062 21
590 2 11.1373 7.70944 -2.47606 13
591 2 1.72986 8.57539 -0.164612 20
592 2 1.50831 10.1026 -3.36636 19
593 2 -2.56581 6.60035 8.61857 21
594 2 -2.80052 0.826751 4.8411 18
595 2 2.74643 -3.59498 9.33503 21
596 2 3.22459 -3.66153 -9.18978 18
597 2 -2.72222 3.57193 10.1554 21
598 2 7.64013 3.85978 -11.8897 9
599 2 -8.57166 -7.05939 8.59138 13
600 2 1.86936 -12.256 -5.83273 14
601 2 -1.20917 -4.87414 -6.03799 21
602 2 6.65851 -10.868 -1.14923 13
603 2 -0.957719 1.26258 -1.15067 21
604 2 10.6625 9.03854 -5.13063 10
605 2 -6.17696 4.71227 -13.5092 8
606 2 -1.21233 13.0888 6.4972 11
607 2 -2.75018 1.99726 1.6652 24
608 2 -7.62036 -6.12744 -0.739201 20
609 2 3.49557 7.84909 -9.22456 12
610 2 1.73657 13.3571 0.225795 17
611 2 -1.5301 3.99557 12.7204 11
612 2 4.54569 -13.7913 -5.90263 9
613 2 2.93045 5.06708 10.8576 16
614 2 8.29072 -6.20549 0.547874 17
615 2 7.5174 6.7114 5.54804 17
616 2 -5.53626 4.86675 -10.8404 15
617 2 5.02796 -6.01692 10.875 16
618 2 -1.75602 -10.1116 8.19033 14
619 2 7.07158 -9.35092 7.07687 14
620 2 -6.84625 11.3631 -5.3788 9
621 2 -3.64253 -12.4964 -4.07723 15
622 2 -2.62731 1.01571 -9.4596 19
623 2 -0.725194 -9.4329 -9.58409 14
624 2 11.4163 6.1062 6.67672 11
625 2 -10.8128 -6.88097 -1.10762 17
626 2 -12.6743 2.05408 -0.152287 14
627 2 9.03411 -3.78014 8.95486 12
628 2 -1.25855 -13.2545 -2.37952 17
629 2 0.531349 -1.08713 -9.70497 18
630 2 4.02897 1.80415 -4.07202 23
631 2 -1.99952 -1.37476 -12.047 15
632 2 -9.65736 -2.86887 -9.58978 11
633 2 -3.62459 -1.60714 12.5465 13
634 2 -3.88455 -6.15339 -6.04634 22
635 2 3.70908 -4.17646 -6.19198 19
636 2 7.82415 -1.09873 -5.99921 20
637 2 -5.85283 -3.11585 3.1858 23
638 2 -1.72005 -2.67224 -8.54468 24
639 2 0.808401 -2.17697 -1.74353 23
640 2 2.61818 4.58013 -3.7965 22
641 2 -1.04886 -7.65594 -5.11491 22
642 2 -0.218673 7.51954 -7.94091 19
643 2 1.53126 12.1314 5.76964 15
644 2 10.0196 4.1633 5.00038 18
645 2 -13.7915 -1.01597 4.80716 11
646 2 -0.571911 -11.7271 6.01875 15
647 2 0.0432961 1.84947 -9.28911 21
648 2 -3.85227 6.61068 5.31063 22
649 2 -4.91797 -6.3678 1.67205 19
650 2 -4.23499 -0.518793 2.08536 18
651 2 -5.8129 6.03461 2.84657 19
652 2 -8.40457 -3.574 9.19616 17
653 2 2.4561 -11.898 6.82606 14
654 2 -11.0649 -1.02308 3.86183 18
655 2 -6.82649 -9.98554 1.16314 14
656 2 -7.22499 -3.56752 5.97404 19
657 2 7.91881 -5.26098 10.9475 12
658 2 7.09976 9.29715 -5.17992 14
659 2 -2.62348 -2.20003 4.08326 22
660 2 7.66189 11.409 -0.284913 9
661 2 11.2786 6.09608 -5.48965 11
662 2 -3.40213 12.6839 -1.90418 17
663 2 -10.1391 -4.62065 -7.07281 14
664 2 -11.3981 -0.88618 -1.91144 17
665 2 1.61492 -13.6958 -3.48966 11
666 2 6.57358 -6.87558 6.18222 18
667 2 9.46238 -8.06665 5.42391 14
668 2 -8.81435 10.4344 -3.9785 10
669 2 8.95349 0.415055 -0.882961 23
670 2 3.6312 -3.12463 12.176 12
671 2 -0.646377 -0.0885086 -6.82946 22
672 2 5.82815 3.90949 1.73617 20
673 2 4.0898 9.96333 4.92664 17
674 2 1.20574 -0.304882 10.3933 21
675 2 -5.65452 1.98197 2.81697 21
676 2 1.77392 0.882575 5.18206 22
677 2 7.1333 6.46768 -5.67803 19
678 2 -6.12901 -8.36648 -6.8492 17
679 2 -6.89028 -1.25309 -6.40127 19
680 2 -8.20325 -0.512033 9.2707 15
681 2 3.77121 10.4274 -1.2282 19
682 2 2.05743 -3.14285 -4.29321 20
683 2 11.254 3.93133 -0.840488 22
684 2 9.94807 -8.70118 2.03396 11
685 2 -14.8108 -3.30259 0.592852 9
686 2 -2.04915 11.1422 4.47861 19
687 2 -5.50197 6.928 -2.54762 19
688 2 3.19017 1.38908 -9.24608 21
689 2 -7.53652 4.01411 1.2517 19
690 2 0.873511 -6.36958 4.92485 22
691 2 1.17711 5.35409 -1.08569 21
692 2 -9.0498 -2.94328 3.64334 20
693 2 4.96919 -9.34121 -3.57418 16
694 2 0.483502 -11.0753 -2.0651 20
695 2 -5.55055 13.0616 3.82693 12
696 2 -0.6516 -9.07684 1.13125 21
697 2 -10.2717 2.89436 -5.63949 12
698 2 2.35535 -9.40727 0.461586 18
699 2 4.4746 4.38294 6.7586 19
700 2 1.44793 2.08664 -11.9636 16
701 2 -3.83971 9.61739 -8.64621 12
702 2 9.9303 2.72587 -9.98465 14
703 2 -0.118204 10.9522 -1.00033 21
704 2 -6.86198 -1.58742 11.6031 11
705 2 -5.15626 -0.379364 9.73816 20
706 2 -2.44111 -7.61352 3.32905 22
707 2 -0.74431 3.33792 3.80444 21
708 2 -13.9787 -5.08464 -1.92922 10
709 2 -1.2647 -4.2193 6.35578 20
710 2 0.017359 4.46029 -7.39023 18
711 2 2.9195 -0.974969 3.04623 21
712 2 7.11175 1.29994 -3.82451 22
713 2 2.1589 -0.228682 7.4195 22
714 2 -6.61708 -3.58731 -2.72236 22
715 2 4.39545 2.65526 -11.687 15
716 2 6.90354 5.57229 -0.890031 22
717 2 3.24143 6.9106 5.62022 22
718 2 5.97927 -1.40559 -0.866211 19
719 2 -7.23554 -3.79099 0.809499 23
720 2 -2.24665 11.9405 -4.78991 16
721 2 0.780243 7.42464 11.1974 14
722 2 -1.93222 0.129578 -3.45654 23
723 2 2.0856 -12.446 1.5233 13
724 2 -6.78055 -10.404 5.81758 16
725 2 -4.91845 -1.01767 -3.56771 20
726 2 4.3002 -0.00901053 10.0675 19
727 2 9.17209 7.37794 -7.51463 12
728 2 4.51025 13.018 0.490822 15
729 2 1.93895 1.9994 2.98375 21
730 2 4.57092 -10.7983 5.31034 15
731 2 3.86248 -11.5546 -8.23634 13
732 2 -1.02091 3.35022 -11.5274 15
733 2 4.33363 -1.4852 5.51815 19
734 2 0.475601 2.55866 11.2938 20
735 2 2.68581 2.70824 9.00626 20
736 2 3.99636 -7.11112 4.29092 23
737 2 -1.77704 1.16515 -13.1019 13
738 2 11.0705 -1.73231 -6.55177 16
739 2 -6.7858 12.0528 1.35665 14
740 2 2.40222 -9.15171 -9.8517 16
741 2 -1.13333 0.561147 13.3665 12
742 2 0.58263 -3.67471 1.98046 20
743 2 -4.30655 0.666897 -1.12671 22
744 2 -9.79451 3.82675 -8.80749 10
745 2 8.37041 -7.04962 -4.14531 16
746 2 3.26801 12.4776 3.26875 13
747 2 9.76964 7.52588 0.0364769 13
748 2 12.1956 4.3583 2.27759 14
749 2 -8.59798 -3.16107 -4.82106 20
750 2 -7.78929 6.10314 -5.05515 16
751 2 -7.16501 2.7358 -5.55599 19
752 2 -7.20908 -0.278057 1.19357 20
753 2 12.9576 6.50826 0.330943 10
754 2 -8.75475 9.61736 -0.848775 14
755 2 -3.07564 -6.55784 8.41245 22
756 2 5.15164 -0.10769 13.2468 12
757 2 0.846552 -12.1493 -9.0451 10
758 2 1.21645 -3.57094 -11.2295 15
759 2 3.28264 13.2164 -2.73621 15
760 2 6.42008 11.9651 2.96783 12
761 2 -7.03779 -5.22048 -6.247 24
762 2 -7.43152 -9.32518 -4.06595 17
763 2 8.62301 -0.661994 2.25474 19
764 2 -6.4155 7.31138 0.436968 20
765 2 2.20217 -13.2079 4.58385 11
766 2 6.68177 -5.73397 3.34 21
767 2 -5.36055 -4.15469 8.30245 19
768 2 -5.9738 -6.69989 -3.46252 21
769 2 3.42424 7.65056 9.24075 16
770 2 2.08649 7.66063 -3.47744 20
771 2 -9.07396 8.75345 5.42442 11
772 2 3.1522 4.63825 1.12819 17
773 2 -3.72839 -7.69926 10.9179 10
774 2 -1.53643 13.2052 0.624614 17
775 2 1.25125 -13.9053 -0.777934 13
776 2 1.07298 -5.97145 7.95489 19
777 2 9.86042 0.709506 9.13086 13
778 2 -11.0214 4.13491 1.55197 17
779 2 -2.18964 5.08049 -1.2048 19
780 2 0.251266 4.73639 9.28009 21
781 2 -2.71486 -8.54396 -7.55128 18
782 2 10.3003 -3.07969 -0.202807 15
783 2 6.51139 -4.73617 -4.48695 20
784 2 -3.23297 9.74319 -3.0022 22
785 2 -3.86438 0.998352 11.9425 13
786 2 -8.23819 -0.791935 -2.25871 22
787 2 9.1207 -3.71043 -5.41673 18
788 2 4.24388 4.1846 -1.39992 22
789 2 -5.05012 4.78975 7.17184 24
790 2 -0.376414 -1.05528 6.47386 20
791 2 1.9105 2.0312 -1.14875 23
792 2 -3.33594 7.23729 -10.0348 11
793 2 -11.9047 -0.996169 -4.42489 11
794 2 1.19238 0.141593 -4.12923 21
795 2 -5.06759 -0.985778 -9.28673 20
796 2 0.178822 5.97023 -4.93726 19
797 2 -7.16524 -1.16927 -11.405 11
798 2 6.27681 -5.11487 -9.73738 14
799 2 -3.10448 -7.43699 -2.66898 21
800 2 -0.253951 -8.27456 9.98375 15
801 2 -2.04508 2.98202 -5.98921 21
802 2 7.26571 -1.03071 4.41145 18
803 2 3.4521 4.02827 3.89177 17
804 2 8.53395 -3.17693 -8.65009 17
805 2 -0.33623 -13.3733 2.52882 14
806 2 9.85636 8.34067 6.61658 10
807 2 -3.63668 11.4695 7.57189 15
808 2 -10.0428 -5.15036 1.48938 20
809 2 10.9509 1.15916 -2.48211 22
810 2 1.79381 -6.85815 1.89301 22
811 2 -7.48502 11.4597 4.13139 12
812 2 5.38377 0.845016 -6.64085 21
813 2 5.955 2.73093 8.79757 22
814 2 -12.6354 1.71442 2.90456 16
815 2 1.74833 9.61346 -6.39858 19
816 2 -6.44295 2.03428 -2.12597 21
817 2 -0.463873 3.08997 -3.46651 18
818 2 4.07128 -0.015111 -12.2699 15
819 2 -6.001 1.99274 6.24186 19
820 2 -2.15693 0.316683 9.90994 21
821 2 12.2251 -0.457259 5.19235 11
822 2 6.60454 1.07785 -11.2022 18
823 2 -9.079 -5.84029 -3.5789 25
824 2 0.00222242 -7.84309 -1.81327 22
825 2 12.0697 0.978973 -7.56151 14
826 2 -0.489507 6.85207 0.899449 20
827 2 0.350265 -6.89532 -10.8775 15
828 2 -10.8309 3.67526 4.74446 15
829 2 -7.67707 -0.413633 4.39998 20
830 2 6.85398 -12.2714 -6.45241 9
831 2 -0.658342 -10.4385 -4.54247 19
832 2 -2.91275 -10.5568 -1.64627 24
833 2 12.4467 -0.782841 -0.828459 16
834 2 -4.39348 12.085 -7.38354 9
835 2 6.19899 7.81558 7.52371 16
836 2 -1.61321 -13.0397 -5.86785 12
837 2 9.9966 0.574199 4.40907 21
838 2 -1.5925 8.95291 9.92651 15
839 2 -3.06056 6.6398 -3.80746 21
840 2 -8.08376 6.15134 -8.24757 13
841 2 1.44927 -6.25632 -7.77109 19
842 2 -8.91208 -10.0878 7.95762 8
843 2 -9.42003 7.49825 -2.92752 14
844 2 6.92367 7.16346 -9.16016 13
845 2 -3.10307 6.22785 -7.31491 21
846 2 5.05051 8.62833 -7.28913 15
847 2 -6.58298 -3.457 -9.10979 17
848 2 3.43372 -8.59883 -6.62295 17
849 2 -11.6447 -3.69423 -4.24032 16
850 2 9.50909 6.22743 9.14166 12
851 2 -4.7157 1.15719 -11.9904 15
852 2 -10.0543 -5.4872 4.38391 16
853 2 8.14358 2.17283 6.76216 19
854 2 6.03439 6.22429 10.2161 16
855 2 10.7542 3.81844 -7.5292 15
856 2 -1.16707 8.82611 -5.62816 20
857 2 -0.185857 13.4368 -2.59916 16
858 2 10.9677 -2.77635 3.98924 15
859 2 -4.89295 1.72628 -5.10622 21
860 2 5.95831 11.7456 -2.453 11
861 2 2.27857 -0.501962 13.0427 14
862 2 -1.96542 -5.86263 -8.91953 18
863 2 -3.65739 -4.01326 -3.92351 20
864 2 8.17057 1.22294 12.3338 10
865 2 -2.26493 8.23678 3.26093 23
866 2 7.89402 -9.48823 0.743423 14
867 2 6.89291 -5.96436 -6.79616 17
868 2 -1.62091 8.78051 6.8014 23
869 2 6.46679 -8.00776 9.74437 12
870 2 -0.80544 8.09678 -2.7019 22