ITEM: TIMESTEP
7
ITEM: NUMBER OF ATOMS
2000
ITEM: BOX BOUNDS pp pp pp
-30.0 30.0
-30.0 30.0
-30.0 30.0
ITEM: ATOMS id type x y z Coordination
1 2 -4.62617 -12.2467 -3.36021 22
2 2 -6.74434 -10.2889 -3.37251 22
3 2 -7.39405 -13.0947 -1.77735 19
4 1 -4.70234 -10.1917 -3.3314 21
5 1 -6.6563 -12.3163 -3.40519 21
6 2 -10.3446 -12.3321 -0.0271439 18
7 1 -12.2827 -12.2584 -0.107622 13
8 2 -10.3086 -12.3666 -3.33203 16
9 2 -12.2304 -10.4216 -3.21072 17
10 1 -10.2244 -10.2297 -3.28554 21
11 1 -9.44807 -13.0875 -1.66039 16
12 1 -12.2643 -12.3287 -3.48037 10
13 1 -6.69158 -12.4136 -0.0597793 22
14 2 -3.78009 -15.1243 -1.66331 18
15 2 -1.14956 -15.9705 -3.29971 18
16 1 -1.72174 -15.0501 -1.66003 20
17 1 -0.969802 -17.888 -3.54083 8
18 1 -4.61163 -15.7134 -0.0236835 16
19 2 -6.46238 -15.6717 -3.37899 13
20 1 -4.56199 -15.7675 -3.28506 14
21 1 -7.40479 -15.2719 -1.65748 14
22 2 -9.32339 -15.0214 -1.80658 12
23 2 -1.12036 -10.2431 -0.0582151 21
24 1 -1.07801 -12.2729 -0.0410032 21
25 2 -1.08197 -10.1708 -3.32236 21
26 2 -1.81569 -13.0202 -1.72203 21
27 1 -3.83768 -13.0225 -1.72108 21
28 1 -1.02843 -12.1976 -3.33383 21
29 1 -4.64971 -10.0767 -13.3047 13
30 2 -6.3979 -10.4432 -12.8267 13
31 1 -1.00634 -12.3069 -13.2048 11
32 2 -1.06359 -10.3132 -13.271 17
33 1 -10.213 -10.2066 -9.91505 14
34 1 -6.56267 -12.255 -9.90531 13
35 1 -4.55614 -10.2217 -9.92271 20
36 2 -6.59094 -10.2921 -9.84213 19
37 2 -4.59592 -12.3576 -9.96691 16
38 1 -3.7868 -13.042 -11.5429 11
39 1 -1.02165 -12.276 -9.94567 19
40 2 -1.93811 -12.7853 -11.6148 13
41 2 -1.0456 -10.235 -9.87315 21
42 1 -7.43978 -15.1754 -4.86158 11
43 1 -4.45086 -15.8815 -6.58892 11
44 1 -1.71322 -15.0532 -8.2404 12
45 1 -1.7446 -14.9885 -4.89824 19
46 2 -3.65944 -14.98 -7.98904 10
47 2 -0.96123 -15.5974 -6.56891 15
48 2 -3.85853 -15.0771 -4.95397 17
49 1 -9.34069 -13.1529 -8.22505 9
50 1 -9.38359 -12.8462 -4.92743 17
51 1 -10.2384 -10.2935 -6.61063 18
52 2 -12.1519 -10.0298 -6.61683 15
53 2 -9.8498 -12.2663 -6.67532 13
54 1 -6.65276 -12.274 -6.6439 19
55 2 -4.64001 -12.3546 -0.0582871 22
56 2 -7.49045 -12.8705 -8.3535 13
57 2 -7.45519 -13.2613 -5.06248 18
58 2 -6.67772 -10.2401 -6.6312 22
59 2 -4.62969 -12.2494 -6.63269 21
60 1 -3.7898 -12.9996 -8.26004 19
61 1 -1.02593 -12.2037 -6.64025 21
62 1 -3.80927 -12.9736 -4.99092 21
63 2 -1.74885 -13.0596 -8.29272 19
64 2 -1.81234 -12.9535 -4.9807 21
65 2 -9.45659 -14.9787 1.9112 11
66 1 -7.55033 -15.3069 1.63037 14
67 1 -4.69122 -15.8009 3.25481 16
68 2 -6.59706 -15.654 3.28871 14
69 1 -1.02288 -17.9115 3.44699 8
70 1 -1.79055 -15.0635 1.66261 20
71 2 -3.83404 -15.1529 1.64941 18
72 2 -1.15757 -15.9641 3.29756 17
73 1 -12.3095 -12.2164 3.30133 10
74 1 -9.49293 -13.0445 1.63321 16
75 1 -10.2027 -10.1824 3.26218 21
76 2 -12.2665 -10.2801 3.29997 16
77 2 -10.3711 -12.2493 3.28577 16
78 1 -6.69404 -12.3527 3.2885 22
79 1 -4.62751 -10.283 3.28041 21
80 2 -7.45331 -13.0598 1.63177 21
81 2 -6.67032 -10.2945 3.29506 21
82 2 -4.65586 -12.3301 3.28269 22
83 1 -3.88916 -13.0559 1.62286 21
84 1 -1.06699 -12.3164 3.27374 21
85 2 -1.86605 -13.0275 1.60773 21
86 2 -1.08674 -10.2832 3.25734 21
87 1 -7.48054 -15.1499 4.88172 12
88 1 -4.66114 -15.8705 6.60094 12
89 2 -6.48464 -15.7015 6.35121 11
90 1 -1.84974 -15.103 4.93409 19
91 2 -3.86816 -15.1797 4.89016 18
92 2 -1.00247 -15.6166 6.60488 15
93 1 -9.50662 -12.9099 4.88203 15
94 1 -10.2941 -10.2827 6.58787 18
95 2 -12.2547 -9.88365 6.63062 13
96 2 -10.0204 -12.2542 6.6116 13
97 1 -6.70765 -12.3218 6.54609 20
98 1 -4.6494 -10.244 6.53802 21
99 2 -7.58614 -13.1417 4.92518 20
100 2 -6.69307 -10.2583 6.52798 22
101 2 -4.67811 -12.2765 6.54569 22
102 1 -3.88775 -13.0905 4.92946 22
103 1 -1.08401 -12.2986 6.57993 21
104 2 -1.86597 -13.0561 4.91746 21
105 2 -1.07113 -10.2501 6.55427 21
106 1 -1.82752 -15.0774 8.22952 12
107 2 -3.73688 -15.0026 7.96919 12
108 1 -9.39788 -13.2557 8.06368 9
109 1 -10.188 -10.3055 9.82741 14
110 1 -6.62379 -12.2778 9.81578 13
111 1 -4.62703 -10.2524 9.86676 20
112 2 -7.60398 -12.7599 8.28162 15
113 2 -6.67419 -10.3011 9.81915 19
114 2 -4.65943 -12.3629 9.92678 17
115 1 -3.88109 -13.0246 8.19294 19
116 1 -1.08363 -12.3041 9.92069 19
117 1 -3.82787 -13.1972 11.4219 11
118 2 -1.83482 -13.0605 8.26714 19
119 2 -2.00373 -12.8243 11.5935 13
120 2 -1.11008 -10.2591 9.8528 21
121 1 -4.73259 -10.1735 13.202 15
122 2 -6.47873 -10.4802 12.8161 12
123 1 -1.13727 -12.2972 13.191 11
124 2 -1.20749 -10.2955 13.2349 17
125 2 -12.2209 -10.3354 0.0580474 17
126 1 -10.176 -10.2516 0.0188756 21
127 1 -4.67083 -10.3027 -0.0259509 21
128 2 -1.18908 -15.9591 0.0128165 17
129 1 -1.04994 -17.8975 -0.00394202 11
130 2 -6.533 -15.651 0.019781 15
131 2 -6.70989 -10.3546 -0.0522923 21
132 2 -1.06163 -10.1534 -6.59138 21
133 1 -4.63339 -10.1796 -6.62928 21
134 2 -4.82349 9.89447 -13.135 16
135 2 -1.83023 9.44285 -1.59878 21
136 2 -3.87443 7.38537 -1.58781 21
137 2 -1.05324 6.64963 -3.2006 21
138 1 -1.85563 7.4145 -1.56893 21
139 2 -1.54394 -1.47295 -18.0908 8
140 1 -1.46241 1.52648 -18.2066 8
141 2 -10.2866 -6.36719 -12.8749 12
142 1 -6.63121 -6.56584 -13.1572 17
143 2 -7.35445 -7.4315 -14.6777 12
144 2 -4.03645 -6.39481 -16.3598 12
145 2 -4.54049 -6.5979 -13.1389 20
146 1 -1.09538 -6.60157 -16.4709 12
147 1 -3.91251 -7.45819 -14.8321 16
148 1 -1.70228 -9.4252 -14.8675 14
149 1 -1.02751 -6.61086 -13.1457 21
150 2 -3.57186 -9.41888 -14.6513 11
151 2 -1.59168 -7.48123 -14.8185 18
152 1 -10.0353 -4.66284 -13.242 15
153 2 -9.41058 -3.52384 -14.5631 11
154 1 -7.43546 -3.81285 -14.7726 16
155 1 -4.62416 -4.63148 -16.4316 12
156 1 -4.61964 -4.58566 -13.1391 21
157 2 -6.38625 -4.03689 -16.2808 12
158 2 -6.62917 -4.48773 -13.0658 20
159 1 -1.83934 -3.81998 -14.7429 19
160 2 -0.928386 -4.68374 -16.1615 15
161 2 -3.82863 -3.8151 -14.7694 18
162 2 -0.966194 -4.57538 -13.1046 21
163 1 -12.2745 -0.95266 -13.1177 11
164 1 -9.41158 -1.65269 -14.7876 14
165 2 -10.2707 -0.990235 -13.1869 17
166 1 -10.2589 1.06049 -13.1476 17
167 2 -12.2375 0.960098 -12.9679 11
168 2 -9.37758 1.98552 -14.5782 13
169 1 -6.59509 -1.0169 -16.3811 12
170 1 -6.59959 -0.99919 -13.0638 21
171 2 -7.46532 -1.55152 -14.7444 17
172 2 -4.6667 -0.865939 -16.1357 15
173 2 -4.55471 -0.955467 -13.0896 21
174 1 -7.45375 1.73932 -14.6931 18
175 1 -4.58544 1.0207 -16.3819 15
176 1 -4.57034 1.06379 -13.1284 21
177 2 -6.52849 1.05288 -16.2099 12
178 2 -6.59012 1.08531 -13.047 21
179 1 -0.976263 -1.04865 -16.3258 16
180 1 -3.788 -1.80759 -14.7367 19
181 1 -0.966351 -0.99849 -13.0632 20
182 2 -1.72279 -1.77474 -14.683 19
183 1 -1.73674 1.7746 -14.7441 19
184 2 -0.996191 1.05309 -16.3995 16
185 2 -3.79325 1.8591 -14.8281 19
186 2 -0.974418 1.03895 -13.0875 21
187 1 -9.4167 3.89161 -14.6795 11
188 2 -9.8451 4.926 -13.188 16
189 1 -6.4789 4.18066 -16.3683 12
190 1 -6.59913 4.58678 -13.0176 20
191 2 -7.40185 4.00612 -14.7846 15
192 2 -4.78917 4.93525 -16.0974 14
193 2 -4.56465 4.64439 -13.0563 21
194 1 -0.971572 4.66862 -16.3603 15
195 1 -3.7862 3.87974 -14.6984 18
196 1 -0.986866 4.59338 -13.1211 21
197 2 -1.77694 3.83471 -14.8244 18
198 1 -10.6408 6.52303 -12.7331 12
199 1 -7.45758 7.44641 -14.6023 15
200 1 -4.11634 6.64668 -16.4555 11
201 1 -4.54918 6.68038 -13.0745 20
202 2 -6.61365 6.66564 -13.0899 18
203 1 -3.80581 9.51898 -14.6526 11
204 1 -1.69506 7.49761 -14.7268 18
205 2 -0.971452 6.6238 -16.2537 12
206 2 -3.96217 7.53857 -14.8143 15
207 2 -1.89311 9.42268 -14.5545 13
208 2 -1.04576 6.62202 -13.0852 20
209 1 -12.2148 -6.60614 -9.87421 13
210 1 -9.38536 -7.48202 -11.6107 16
211 2 -9.25153 -9.45086 -11.2616 11
212 2 -10.2376 -6.72197 -9.91134 19
213 1 -7.33732 -9.40556 -11.5715 16
214 1 -6.6207 -6.5684 -9.83942 21
215 2 -7.3221 -7.35054 -11.4642 19
216 2 -4.56301 -6.60654 -9.90251 21
217 1 -3.82486 -7.45346 -11.529 21
218 1 -1.77084 -9.49589 -11.5747 21
219 1 -1.05711 -6.59793 -9.88072 21
220 2 -3.79236 -9.54385 -11.584 21
221 2 -1.76824 -7.45646 -11.5138 21
222 1 -13.0032 -3.74946 -11.4503 11
223 1 -10.1635 -4.66255 -9.90332 20
224 2 -12.2477 -4.63903 -9.95195 17
225 2 -9.49536 -3.76284 -11.5124 21
226 1 -7.42485 -3.76317 -11.4432 21
227 1 -4.5706 -4.56022 -9.86965 21
228 2 -6.6064 -4.52858 -9.80622 21
229 1 -1.77307 -3.78816 -11.4971 21
230 2 -3.79864 -3.77055 -11.5081 21
231 2 -1.02166 -4.55579 -9.8416 21
232 2 -12.7172 -1.90802 -11.5424 13
233 1 -13.0298 1.94314 -11.5843 13
234 1 -12.2723 -0.944404 -9.88517 19
235 1 -9.4778 -1.73591 -11.4966 21
236 2 -10.2233 -0.985234 -9.81793 21
237 1 -10.2159 1.04631 -9.85003 21
238 2 -12.2571 1.07443 -9.97459 19
239 2 -9.43212 1.80356 -11.4981 21
240 1 -6.62558 -0.995066 -9.77035 21
241 2 -7.42962 -1.71622 -11.4212 21
242 2 -4.57175 -0.972712 -9.81502 21
243 1 -7.41659 1.7703 -11.3989 20
244 1 -4.56965 1.05933 -9.78272 21
245 2 -6.59912 1.05151 -9.7546 21
246 1 -3.79087 -1.73659 -11.4581 21
247 1 -0.958754 -0.995917 -9.77385 21
248 2 -1.73755 -1.74359 -11.4165 21
249 1 -1.77089 1.77916 -11.444 21
250 2 -3.80974 1.80914 -11.4623 21
251 2 -0.973749 1.04379 -9.80355 21
252 2 -12.917 3.78661 -11.4403 12
253 1 -12.2333 4.67709 -9.91233 16
254 1 -9.45712 3.83584 -11.5127 20
255 2 -10.1215 4.66899 -9.87344 20
256 1 -6.62261 4.57838 -9.75185 21
257 2 -7.40069 3.8195 -11.4034 21
258 2 -4.57761 4.58431 -9.76032 21
259 1 -3.80481 3.84248 -11.4042 21
260 1 -0.987675 4.57667 -9.81787 21
261 2 -1.77259 3.82539 -11.4767 21
262 1 -9.47321 9.48037 -11.4755 11
263 1 -10.1795 6.70469 -9.80327 19
264 2 -12.1399 6.61974 -9.72146 13
265 2 -9.4609 7.48733 -11.6095 14
266 1 -7.42044 7.42139 -11.3984 22
267 1 -4.59851 6.62984 -9.75049 21
268 2 -7.47686 9.46796 -11.6241 14
269 2 -6.6319 6.63117 -9.8009 21
270 1 -3.8412 9.47412 -11.4289 20
271 1 -1.77978 7.42005 -11.4405 20
272 2 -3.82825 7.42005 -11.389 21
273 2 -1.8054 9.44387 -11.46 21
274 2 -1.0102 6.62997 -9.80352 21
275 1 -13.166 -9.35183 -8.0133 10
276 1 -15.1844 -7.54887 -4.8684 12
277 1 -12.9299 -9.47554 -4.86326 17
278 2 -12.6578 -7.57867 -8.33041 15
279 2 -15.614 -6.47821 -6.37027 11
280 2 -14.8812 -9.45368 -4.99195 11
281 2 -12.8786 -7.45174 -4.91426 20
282 1 -12.3488 -6.61936 -6.59263 21
283 1 -9.47851 -7.43355 -8.2313 21
284 1 -9.5717 -7.44584 -4.92275 22
285 2 -9.46769 -9.52926 -8.28495 21
286 2 -10.2351 -6.63495 -6.59366 22
287 2 -9.47528 -9.51666 -4.93864 22
288 1 -7.41543 -9.41482 -8.28398 21
289 1 -6.72868 -6.61173 -6.55748 21
290 1 -7.45974 -9.4398 -5.00636 22
291 2 -7.43022 -7.39465 -8.22627 21
292 2 -7.50125 -7.42451 -4.93782 21
293 2 -4.6702 -6.61252 -6.61658 21
294 1 -3.85444 -7.37592 -8.23937 21
295 1 -1.78108 -9.38535 -8.25939 21
296 1 -1.05701 -6.59996 -6.565 21
297 1 -3.91223 -7.3663 -4.95742 21
298 1 -1.86516 -9.39836 -4.96004 21
299 2 -3.82527 -9.4316 -8.26079 21
300 2 -1.81483 -7.35175 -8.21914 21
301 2 -3.91182 -9.41689 -4.96115 21
302 2 -1.87938 -7.36548 -4.93784 21
303 1 -12.9512 -3.79463 -8.25728 20
304 1 -15.7191 -4.67359 -6.63292 13
305 1 -13.0174 -3.79278 -4.93289 21
306 2 -14.9275 -3.69755 -8.06554 12
307 2 -15.0959 -3.77965 -4.96243 18
308 1 -10.2309 -4.60612 -6.56883 21
309 2 -12.2483 -4.56863 -6.58809 22
310 2 -9.46912 -3.86221 -8.24699 21
311 2 -9.49049 -3.81721 -4.91648 21
312 1 -7.44016 -3.80601 -8.17972 21
313 1 -7.46019 -3.83021 -4.88289 21
314 1 -4.65996 -4.56847 -6.60584 21
315 2 -6.69145 -4.58602 -6.53177 21
316 1 -1.78493 -3.79113 -8.19076 21
317 1 -1.87715 -3.83129 -4.91541 21
318 2 -3.81584 -3.78541 -8.20505 21
319 2 -1.04456 -4.5668 -6.54136 21
320 2 -3.90979 -3.85683 -4.92657 21
321 1 -15.0478 -1.7847 -8.19748 12
322 1 -15.082 -1.75458 -4.9419 19
323 2 -13.0337 -1.73934 -8.26189 19
324 2 -15.5898 -0.885993 -6.61436 15
325 2 -13.0224 -1.76221 -4.91271 21
326 1 -12.9912 1.79701 -8.283 19
327 1 -15.8197 1.01852 -6.63454 14
328 1 -13.0468 1.83371 -4.9744 21
329 2 -14.9681 1.87685 -8.1084 13
330 2 -15.0732 1.79045 -5.00174 19
331 1 -12.2828 -0.983867 -6.57021 21
332 1 -9.48885 -1.80284 -8.19214 22
333 1 -9.47868 -1.77396 -4.90051 21
334 2 -10.2274 -0.990306 -6.54882 21
335 1 -10.2088 1.05328 -6.56396 21
336 2 -12.2285 1.04848 -6.60999 22
337 2 -9.42013 1.80707 -8.21627 21
338 2 -9.4197 1.79441 -4.91013 21
339 1 -6.64141 -1.01254 -6.51525 21
340 2 -7.44177 -1.77453 -8.15297 21
341 2 -7.42227 -1.80307 -4.88637 21
342 2 -4.59815 -1.01445 -6.54619 21
343 1 -7.39054 1.79371 -8.10425 21
344 1 -7.39582 1.7903 -4.84635 21
345 1 -4.57001 1.02314 -6.49673 21
346 2 -6.58941 1.02331 -6.48308 21
347 1 -3.78477 -1.7452 -8.17753 21
348 1 -1.03155 -0.99101 -6.46922 21
349 1 -3.90052 -1.82004 -4.88761 21
350 2 -1.73643 -1.7527 -8.1388 21
351 2 -1.86069 -1.80202 -4.87307 21
352 1 -1.73934 1.79928 -8.15052 21
353 1 -1.80428 1.7947 -4.83467 21
354 2 -3.77144 1.8056 -8.13256 21
355 2 -1.01615 1.04739 -6.47674 21
356 2 -3.84304 1.77241 -4.81893 21
357 1 -15.0268 3.81873 -8.3539 11
358 1 -15.1317 3.86056 -4.97708 17
359 2 -13.0021 3.83571 -8.2893 19
360 2 -15.5927 4.46881 -6.70256 11
361 2 -13.0017 3.84923 -4.96203 21
362 1 -12.2741 4.6102 -6.61874 21
363 1 -9.43598 3.85584 -8.19774 21
364 1 -9.45542 3.83576 -4.89428 21
365 2 -10.2074 4.60323 -6.55464 21
366 1 -6.60069 4.60904 -6.48393 21
367 2 -7.38042 3.82812 -8.10588 21
368 2 -7.39741 3.81931 -4.87302 21
369 2 -4.53822 4.61575 -6.46326 21
370 1 -3.78924 3.84265 -8.10569 21
371 1 -1.01692 4.59601 -6.47207 21
372 1 -3.8563 3.80921 -4.80999 21
373 2 -1.7355 3.83613 -8.15024 21
374 2 -1.80503 3.8259 -4.83772 21
375 1 -13.0594 7.44757 -8.28449 12
376 1 -14.9339 9.51587 -5.23022 8
377 1 -13.0102 7.401 -4.95455 18
378 2 -13.0191 9.23449 -7.90161 10
379 2 -14.9889 7.78068 -4.54243 14
380 2 -13.0052 9.52237 -4.95029 16
381 1 -9.47702 9.5101 -8.07616 18
382 1 -10.2387 6.64293 -6.55915 21
383 1 -9.46636 9.48525 -4.91257 21
384 2 -12.2741 6.64503 -6.63771 20
385 2 -9.40764 7.42031 -8.16166 21
386 2 -9.46243 7.42428 -4.92728 21
387 1 -7.40226 7.42592 -8.14237 19
388 1 -7.43221 7.41819 -4.90297 21
389 1 -4.58043 6.65232 -6.47275 21
390 2 -7.38945 9.43666 -8.15354 21
391 2 -6.60287 6.63741 -6.52367 21
392 2 -7.41501 9.43838 -4.92413 22
393 1 -3.86876 9.45294 -8.14618 21
394 1 -1.78044 7.40159 -8.14396 21
395 1 -3.84232 9.46538 -4.84571 21
396 1 -1.81049 7.41645 -4.85326 21
397 2 -3.80486 7.40444 -8.12335 21
398 2 -1.80664 9.44353 -8.177 21
399 2 -1.00992 6.63165 -6.48943 21
400 2 -3.83448 7.42131 -4.82208 21
401 2 -1.77995 9.45049 -4.87467 21
402 1 -3.88203 9.43526 -1.58703 21
403 2 -6.73679 6.59826 0.00720007 21
404 1 -15.2328 -7.48309 -1.61173 13
405 1 -12.9644 -9.45278 -1.63437 18
406 2 -15.4844 -6.49833 -3.24327 15
407 2 -14.9121 -9.40025 -1.55424 13
408 2 -12.8944 -7.44263 -1.56729 20
409 2 -15.5712 -6.54296 0.0399312 16
410 1 -12.3713 -6.59193 -3.23603 22
411 1 -9.55858 -7.44007 -1.59484 22
412 2 -10.2593 -6.65899 -3.25252 21
413 2 -9.47736 -9.50671 -1.64489 22
414 2 -7.45565 9.42534 -1.64683 21
415 2 -6.70549 6.61415 -3.25549 21
416 1 -6.77737 -6.66552 -3.26982 21
417 1 -7.45103 -9.50567 -1.68518 21
418 2 -7.49377 -7.47218 -1.60872 21
419 2 -4.73064 -6.67498 -3.30615 21
420 1 -6.70677 -6.65526 -0.00109189 21
421 1 -4.67004 6.62735 -3.2209 21
422 1 -1.084 -6.63435 -3.29228 21
423 1 -3.94158 -7.43147 -1.67089 21
424 1 -1.90719 -9.46016 -1.68268 21
425 2 -3.95628 -9.47451 -1.66248 21
426 2 -1.90783 -7.43168 -1.67888 21
427 1 -1.12007 -6.69423 -0.0274334 21
428 1 -7.49977 7.39928 -1.6227 21
429 2 -9.53831 7.40436 -1.62047 21
430 2 -12.2532 6.66868 -3.29952 22
431 1 -15.6939 -4.60106 -3.30191 16
432 1 -13.0182 -3.8242 -1.57786 21
433 2 -15.0512 -3.7906 -1.66442 19
434 1 -15.9253 -4.61094 -0.0086013 17
435 1 -10.2482 -4.62072 -3.27084 21
436 2 -12.2725 -4.54768 -3.26556 22
437 2 -9.47588 -3.89321 -1.59488 21
438 1 -9.50956 9.44868 -1.62476 21
439 1 -10.2265 6.62275 -3.28566 21
440 1 -7.45208 -3.86093 -1.58514 21
441 1 -4.70031 -4.62908 -3.29321 21
442 2 -6.73112 -4.64424 -3.23833 21
443 1 -4.62827 -4.64347 0.016659 21
444 2 -13.1328 9.42355 -1.61356 17
445 1 -1.88703 -3.86791 -1.64772 21
446 2 -1.08637 -4.60274 -3.28169 21
447 2 -3.91859 -3.87904 -1.65342 21
448 2 -1.11795 -4.66109 -0.0236677 21
449 2 -15.1764 7.47166 -1.58291 13
450 1 -12.9793 7.37763 -1.6249 21
451 1 -15.0828 9.39778 -1.62809 13
452 1 -17.9087 -0.992515 -3.44745 9
453 1 -17.8905 -1.13462 -0.0421029 12
454 2 -17.7734 0.89867 -3.46098 9
455 2 -17.7827 0.794802 -0.0694791 11
456 1 -15.0739 -1.76385 -1.65557 21
457 2 -15.9563 -1.0943 -3.29361 18
458 2 -13.0214 -1.78064 -1.61827 21
459 2 -15.9153 -1.1151 0.00705036 19
460 1 -15.8609 1.13314 -3.33141 17
461 1 -13.0196 1.82708 -1.64899 21
462 2 -15.0325 1.78982 -1.67894 20
463 1 -15.869 1.08816 -0.0399254 18
464 1 -12.2905 -0.978405 -3.26436 21
465 1 -9.52197 -1.84303 -1.61115 21
466 2 -10.2357 -1.01248 -3.24727 21
467 1 -15.7418 6.61323 -3.29483 13
468 1 -10.2352 1.02871 -3.28317 21
469 2 -12.2644 1.06375 -3.32059 21
470 2 -9.47977 1.74146 -1.61151 21
471 2 -12.2645 1.01101 -0.00644021 21
472 1 -6.69464 -1.05369 -3.2253 21
473 2 -7.47032 -1.83759 -1.58791 21
474 2 -4.64947 -1.07512 -3.2318 21
475 1 -6.68997 -1.01465 0.0200966 21
476 2 -4.64552 -1.04413 0.0505193 21
477 1 -7.453 1.75623 -1.58176 21
478 1 -4.63099 0.967981 -3.19821 21
479 2 -6.65924 0.974553 -3.20762 21
480 1 -1.10552 -1.05175 -3.21163 21
481 1 -3.90403 -1.83908 -1.58358 21
482 2 -1.86319 -1.8414 -1.57243 21
483 1 -1.84162 1.7568 -1.56253 21
484 2 -1.07379 0.977258 -3.20075 21
485 2 -3.86499 1.73759 -1.55587 21
486 1 -15.1323 3.81955 -1.6557 18
487 2 -15.5261 4.75258 -3.30697 15
488 2 -13.0236 3.85301 -1.61617 21
489 1 -12.3152 4.61506 -3.2832 22
490 1 -9.53447 3.79276 -1.59101 21
491 2 -10.2498 4.57976 -3.25233 21
492 2 -1.84351 3.78701 -1.57805 21
493 1 -3.89462 3.77882 -1.56429 21
494 1 -6.70386 4.58693 -3.20106 21
495 2 -7.48565 3.78409 -1.58872 21
496 2 -4.65916 4.58396 -3.19392 21
497 1 -1.08122 4.62025 -3.18952 21
498 2 -4.66868 4.56822 0.0507219 21
499 1 -15.3223 -7.50388 1.67659 14
500 1 -13.0689 -9.42978 1.60898 17
501 2 -14.9842 -9.41847 1.93761 10
502 2 -13.055 -7.42973 1.7784 20
503 2 -15.6789 -6.5369 3.39212 13
504 1 -12.3058 -6.6411 3.38589 21
505 1 -9.44782 -7.44256 1.70344 21
506 2 -9.39022 -9.498 1.64513 21
507 2 -10.2632 -6.6995 3.35387 21
508 1 -7.36032 -9.50001 1.61086 21
509 1 -6.66316 -6.63352 3.28564 21
510 2 -7.39399 -7.47102 1.65503 21
511 2 -4.62571 -6.6615 3.26803 21
512 1 -3.89389 -7.47183 1.62606 21
513 1 -1.85714 -9.50407 1.61793 21
514 1 -1.05933 -6.66747 3.24621 21
515 2 -3.90056 -9.52075 1.61594 21
516 2 -1.85719 -7.47237 1.62979 21
517 1 -13.0614 -3.84723 1.69988 21
518 1 -15.8437 -4.64805 3.27751 15
519 2 -15.0834 -3.83174 1.71804 19
520 1 -10.2198 -4.63314 3.32996 21
521 2 -12.2617 -4.63421 3.36415 22
522 2 -9.4209 -3.86057 1.70403 21
523 1 -7.39637 -3.79713 1.68142 21
524 1 -4.59866 -4.62533 3.292 21
525 2 -6.62899 -4.60587 3.31087 21
526 1 -1.82718 -3.85711 1.62381 21
527 2 -3.8571 -3.85603 1.63756 21
528 2 -1.04513 -4.63711 3.25348 21
529 1 -17.9927 -1.04169 3.40184 8
530 2 -17.8371 0.874777 3.43401 8
531 1 -15.1209 -1.79336 1.66761 21
532 2 -13.0689 -1.81413 1.70516 21
533 2 -16.0479 -1.18502 3.31961 17
534 1 -13.0404 1.76793 1.65796 21
535 1 -15.9367 1.13061 3.28576 18
536 2 -15.0565 1.7086 1.64414 20
537 1 -12.2722 -1.02661 3.32694 21
538 1 -9.46366 -1.80673 1.68519 21
539 2 -10.2292 -1.04839 3.33567 21
540 1 -10.23 1.01346 3.32248 21
541 2 -12.2621 0.992669 3.31188 21
542 2 -9.44139 1.74075 1.66431 21
543 1 -6.64552 -0.964954 3.30501 21
544 2 -7.41941 -1.76972 1.68464 21
545 2 -4.59655 -0.982613 3.31781 21
546 1 -7.41984 1.79099 1.7095 21
547 1 -4.6024 1.06285 3.38325 21
548 2 -6.63305 1.05744 3.36951 21
549 1 -3.87282 -1.81263 1.68924 21
550 1 -1.06532 -1.01881 3.29464 21
551 2 -1.82161 -1.82809 1.67617 21
552 1 -1.81906 1.80058 1.71899 21
553 2 -3.8422 1.8065 1.72874 21
554 2 -1.03551 1.01188 3.34896 21
555 1 -15.138 3.75912 1.65152 18
556 2 -13.0349 3.78533 1.70302 21
557 2 -15.6265 4.6623 3.2718 15
558 1 -12.3374 4.59625 3.36978 22
559 1 -9.49123 3.7978 1.69314 21
560 2 -10.254 4.5814 3.33213 21
561 1 -6.66378 4.6122 3.34399 21
562 2 -7.43232 3.8096 1.71897 21
563 2 -4.60525 4.621 3.35964 21
564 1 -3.87083 3.85372 1.70288 21
565 1 -1.07368 4.6193 3.33694 21
566 2 -1.81898 3.83012 1.69421 21
567 1 -15.0466 9.40529 2.00399 10
568 1 -13.0132 7.37547 1.73676 21
569 1 -15.8616 6.54072 3.27991 11
570 2 -15.1983 7.51268 1.61609 14
571 2 -13.1384 9.40502 1.67035 17
572 1 -9.49654 9.45713 1.69321 21
573 1 -10.2621 6.64041 3.35959 21
574 2 -12.2713 6.61237 3.38033 22
575 2 -9.49711 7.40556 1.69144 21
576 1 -7.46813 7.4108 1.66205 21
577 1 -4.6409 6.66834 3.32927 21
578 2 -7.4425 9.45241 1.66277 21
579 2 -6.66036 6.63632 3.2865 21
580 1 -3.93363 9.43704 1.68005 21
581 1 -1.87586 7.39438 1.67091 21
582 2 -3.90334 7.38249 1.64885 21
583 2 -1.88448 9.42105 1.66359 21
584 2 -1.09521 6.64419 3.31518 21
585 1 -15.1424 -7.45077 4.90884 11
586 1 -12.864 -9.39466 4.89156 16
587 2 -13.2231 -7.47149 5.05862 18
588 1 -12.279 -6.58203 6.60072 19
589 1 -9.48128 -7.41828 5.00489 22
590 2 -9.5078 -9.46707 4.94959 21
591 2 -10.2418 -6.60982 6.63519 22
592 1 -7.45225 -9.45953 4.89611 21
593 1 -6.67518 -6.62281 6.54668 21
594 2 -7.4542 -7.42405 4.91557 21
595 2 -4.63916 -6.64072 6.52733 21
596 1 -3.84627 -7.42575 4.90351 21
597 1 -1.8133 -9.46686 4.90391 21
598 1 -1.06402 -6.66096 6.5531 21
599 2 -3.85535 -9.46656 4.90165 21
600 2 -1.81246 -7.42826 4.90384 21
601 1 -13.073 -3.82177 4.95686 21
602 1 -15.9023 -4.44018 6.67219 11
603 2 -15.1628 -3.93138 4.98532 17
604 1 -10.2045 -4.55941 6.63188 21
605 2 -12.2719 -4.57023 6.60995 21
606 2 -9.425 -3.84724 4.96792 21
607 1 -7.37972 -3.78707 4.93132 21
608 1 -4.61 -4.5983 6.53599 21
609 2 -6.64829 -4.5903 6.57893 21
610 1 -1.79339 -3.82855 4.8928 21
611 2 -3.83521 -3.80447 4.90975 21
612 2 -1.05288 -4.62337 6.54142 21
613 1 -15.0947 -1.76538 4.92863 19
614 2 -13.0621 -1.8278 4.95764 21
615 2 -15.5974 -0.944346 6.62198 14
616 1 -13.084 1.76559 4.95788 21
617 1 -15.8375 0.980923 6.60151 14
618 2 -15.1144 1.71931 4.94705 19
619 1 -12.2539 -1.0437 6.59019 21
620 1 -9.42437 -1.78569 4.96692 21
621 2 -10.2015 -1.03725 6.62197 21
622 1 -10.2413 1.03647 6.60497 21
623 2 -12.2677 0.966626 6.59952 22
624 2 -9.43728 1.7712 4.96386 21
625 1 -6.62347 -0.972681 6.59226 21
626 2 -7.3781 -1.76249 4.95291 21
627 2 -4.58278 -0.978165 6.60366 21
628 1 -7.40979 1.83096 4.99992 21
629 1 -4.58738 1.06566 6.65285 21
630 2 -6.61598 1.06129 6.64676 21
631 1 -3.8376 -1.76562 4.95479 21
632 1 -1.04295 -1.02149 6.59552 21
633 2 -1.78222 -1.79821 4.95163 21
634 1 -1.78859 1.79471 4.99361 21
635 2 -3.81088 1.83123 5.01963 21
636 2 -1.03054 1.00969 6.63866 21
637 1 -15.172 3.84524 4.96927 17
638 2 -13.0385 3.75716 5.00651 21
639 2 -15.7199 4.32765 6.70856 10
640 1 -12.3369 4.62636 6.62756 20
641 1 -9.49126 3.83986 4.98043 21
642 2 -10.2597 4.59236 6.61882 21
643 1 -6.68239 4.62015 6.64183 21
644 2 -7.43356 3.85521 4.99444 21
645 2 -4.62705 4.59053 6.66824 21
646 1 -3.83349 3.87881 5.00812 21
647 1 -1.01216 4.56464 6.64175 21
648 2 -1.781 3.82327 4.99175 21
649 1 -13.1014 7.45272 5.08024 17
650 2 -14.9435 7.26509 4.69456 12
651 2 -12.7294 9.37387 5.02288 17
652 1 -9.49183 9.48726 5.01694 21
653 1 -10.2646 6.66481 6.61943 22
654 2 -12.2823 6.62665 6.72401 19
655 2 -9.44808 7.40807 4.98155 22
656 1 -7.43428 7.41808 4.9424 21
657 1 -4.63245 6.64919 6.6225 21
658 2 -7.4098 9.42469 4.97397 22
659 2 -6.64931 6.64198 6.59081 21
660 1 -3.88047 9.4598 4.99545 21
661 1 -1.83177 7.39533 4.99136 21
662 2 -3.85212 7.39951 4.98428 21
663 2 -1.8211 9.41551 4.98152 21
664 2 -1.01816 6.58503 6.60435 21
665 1 -13.1666 -9.28154 8.13144 9
666 2 -12.8536 -7.4322 8.3064 13
667 1 -12.2649 -6.56535 9.88847 13
668 1 -9.44352 -7.42431 8.25458 21
669 1 -9.4369 -7.49908 11.5456 16
670 2 -9.49821 -9.48956 8.2262 21
671 2 -10.3001 -6.66671 9.85846 19
672 2 -9.40712 -9.41268 11.1998 11
673 1 -7.41783 -9.45791 8.19287 21
674 1 -6.62707 -6.67357 9.84352 21
675 1 -7.47094 -9.49007 11.5264 16
676 2 -7.42295 -7.42826 8.18794 21
677 2 -7.37477 -7.44496 11.455 19
678 2 -4.58051 -6.68171 9.83849 21
679 1 -3.87544 -7.43871 8.17126 21
680 1 -1.8443 -9.48263 8.20044 21
681 1 -1.10198 -6.66847 9.85897 21
682 1 -3.87744 -7.46724 11.5219 21
683 1 -1.84336 -9.48489 11.5252 21
684 2 -3.89391 -9.49253 8.19373 21
685 2 -1.84192 -7.44323 8.19097 21
686 2 -3.86844 -9.54061 11.5228 21
687 2 -1.83227 -7.43859 11.5197 20
688 1 -12.9764 -3.77125 8.27194 19
689 1 -13.1394 -3.73169 11.4547 11
690 2 -14.9675 -3.65006 8.07104 11
691 1 -10.1975 -4.6152 9.93339 20
692 2 -12.3144 -4.60654 9.98727 17
693 2 -9.43881 -3.8223 8.29911 21
694 2 -9.51649 -3.81948 11.5883 21
695 1 -7.3775 -3.8322 8.251 21
696 1 -7.43226 -3.87312 11.5433 21
697 1 -4.59411 -4.64138 9.87344 21
698 2 -6.65067 -4.6346 9.8999 21
699 1 -1.83103 -3.85849 8.18026 21
700 1 -1.80751 -3.8772 11.4741 20
701 2 -3.87088 -3.85727 8.21011 21
702 2 -1.04941 -4.62639 9.8138 21
703 2 -3.83968 -3.87702 11.5281 21
704 1 -15.0228 -1.70401 8.281 12
705 2 -13.0224 -1.75574 8.30719 19
706 2 -12.7545 -1.91589 11.5824 13
707 1 -13.0061 1.77851 8.27058 19
708 1 -12.9743 1.8823 11.6146 13
709 2 -14.9812 1.83368 8.08277 12
710 1 -12.226 -0.978905 9.92343 19
711 1 -9.39617 -1.76458 8.26075 21
712 1 -9.46517 -1.79239 11.5543 21
713 2 -10.1777 -0.997856 9.89367 21
714 1 -10.2207 1.04433 9.90557 20
715 2 -12.2745 1.02188 9.96154 19
716 2 -9.45563 1.79413 8.25286 21
717 2 -9.38407 1.72491 11.552 21
718 1 -6.64362 -1.05024 9.91618 21
719 2 -7.35288 -1.80292 8.23388 21
720 2 -7.41896 -1.82215 11.569 21
721 2 -4.60694 -1.06664 9.90991 21
722 1 -7.41963 1.80271 8.28906 21
723 1 -7.36696 1.7537 11.581 20
724 1 -4.58875 0.975726 9.94642 21
725 2 -6.6276 0.987954 9.92332 21
726 1 -3.8717 -1.81249 8.23888 21
727 1 -1.01403 -1.0612 9.83591 21
728 1 -3.82661 -1.84777 11.538 21
729 2 -1.83542 -1.81932 8.21296 21
730 2 -1.79251 -1.84171 11.4672 21
731 1 -1.79156 1.7747 8.28309 21
732 1 -1.78373 1.76927 11.5352 20
733 2 -3.8231 1.78392 8.33196 21
734 2 -1.00703 0.973741 9.91463 21
735 2 -3.82773 1.75711 11.607 21
736 1 -15.0509 3.79308 8.34855 11
737 2 -13.0312 3.80952 8.2994 19
738 2 -12.8698 3.69402 11.4146 12
739 1 -12.2586 4.69018 9.91038 16
740 1 -9.49732 3.85953 8.26897 21
741 1 -9.46706 3.7744 11.5811 21
742 2 -10.1321 4.64904 9.97151 19
743 1 -6.68081 4.62311 9.9187 21
744 2 -7.43799 3.82689 8.28819 21
745 2 -7.39427 3.7893 11.5784 21
746 2 -4.62808 4.6016 9.96732 21
747 1 -3.85589 3.83256 8.3075 21
748 1 -1.03504 4.57964 9.92178 21
749 1 -3.85351 3.80342 11.577 21
750 2 -1.80578 3.80156 8.28262 21
751 2 -1.81619 3.80325 11.5746 21
752 1 -13.0482 7.46893 8.35632 12
753 2 -12.9906 9.28861 8.09968 9
754 1 -9.52544 9.51694 8.21009 17
755 1 -10.1687 6.712 9.91109 19
756 1 -9.44597 9.45849 11.59 11
757 2 -12.1186 6.6142 9.78101 14
758 2 -9.41664 7.40297 8.23962 21
759 2 -9.39925 7.44364 11.752 14
760 1 -7.42091 7.45596 8.21552 20
761 1 -7.37198 7.45458 11.5016 21
762 1 -4.60204 6.65621 9.88322 21
763 2 -7.42302 9.45232 8.22564 21
764 2 -6.6379 6.65644 9.87625 21
765 2 -7.44514 9.48432 11.701 14
766 1 -3.84648 9.48233 8.25587 21
767 1 -1.80297 7.39747 8.22792 21
768 1 -3.81742 9.50227 11.5269 20
769 1 -1.75827 7.42704 11.5014 20
770 2 -3.8268 7.41369 8.25031 21
771 2 -1.78168 9.42157 8.21676 21
772 2 -1.02185 6.60129 9.87074 21
773 2 -3.80263 7.42577 11.5289 21
774 2 -1.77881 9.4418 11.4604 22
775 2 -10.3905 -6.43409 12.8235 12
776 1 -6.64337 -6.67779 13.1192 18
777 2 -7.38184 -7.23047 14.7899 11
778 2 -4.58041 -6.65097 13.1389 19
779 1 -1.11154 -6.65333 13.1997 21
780 1 -4.04915 -7.5015 14.8869 15
781 1 -1.87365 -9.4398 14.8309 13
782 2 -3.75373 -9.44829 14.6179 11
783 2 -1.81869 -7.485 14.8589 17
784 1 -10.1723 -4.71977 13.2646 14
785 2 -9.36634 -3.74714 14.6375 10
786 1 -7.44119 -3.97917 14.8422 15
787 1 -4.59457 -4.63927 13.2047 20
788 2 -6.61802 -4.56829 13.1844 18
789 1 -1.82913 -3.83699 14.7742 20
790 2 -1.04301 -4.60229 13.1195 21
791 2 -3.90661 -3.8369 14.8983 17
792 1 -12.2738 -0.987962 13.1606 11
793 1 -9.40741 -1.84177 14.839 13
794 2 -10.2776 -1.13437 13.2741 16
795 1 -10.1738 0.936969 13.1987 17
796 2 -12.1396 0.909896 12.9937 11
797 2 -9.30118 1.83402 14.6449 13
798 1 -6.60661 -1.10255 13.2145 21
799 2 -7.40303 -1.91631 14.9066 17
800 2 -4.57756 -1.0634 13.1802 21
801 1 -7.37899 1.73165 14.8316 17
802 1 -4.53003 0.964958 13.2606 21
803 2 -6.55898 0.971075 13.2169 21
804 1 -1.00672 -1.04879 13.0878 20
805 1 -3.77142 -1.84217 14.8191 19
806 2 -1.75083 -1.80638 14.7205 19
807 1 -1.71462 1.82344 14.8111 19
808 2 -1.02185 0.981593 13.1758 21
809 2 -3.77538 1.79327 14.9565 19
810 1 -9.43313 3.75626 14.7658 11
811 2 -9.84349 4.78489 13.2975 15
812 1 -6.62447 4.58358 13.2165 20
813 2 -7.4351 3.9289 14.9577 15
814 2 -4.57036 4.60378 13.2578 21
815 1 -1.05495 4.60319 13.2133 21
816 1 -3.82519 3.80894 14.8933 18
817 2 -1.81793 3.86681 14.9466 18
818 1 -10.5172 6.45503 12.8885 13
819 1 -7.35566 7.47505 14.7236 15
820 1 -4.50916 6.64675 13.1716 20
821 2 -6.58385 6.63437 13.1885 17
822 1 -3.78717 9.44813 14.7382 11
823 1 -1.67002 7.44105 14.8312 18
824 2 -1.03457 6.62263 13.1538 20
825 2 -3.96096 7.44973 14.9664 14
826 2 -1.87895 9.34899 14.6127 13
827 2 -4.36667 -6.36736 16.3455 12
828 1 -1.17639 -6.6962 16.5019 13
829 1 -4.43993 -4.57834 16.5951 10
830 2 -1.01862 -4.76436 16.2122 15
831 1 -6.6254 -1.07395 16.4758 11
832 2 -4.70965 -0.976466 16.2432 14
833 1 -4.58425 0.921733 16.493 15
834 2 -6.52946 0.913675 16.341 12
835 1 -1.0041 -0.957872 16.3116 16
836 2 -1.56169 -1.60338 18.0111 10
837 1 -1.46702 1.60595 18.2974 8
838 2 -1.05122 1.11822 16.5116 15
839 1 -6.56449 4.12444 16.6139 12
840 2 -4.85775 4.81088 16.3184 13
841 1 -0.977153 4.64945 16.4965 15
842 1 -4.11011 6.51112 16.5515 12
843 2 -0.963296 6.59409 16.3835 12
844 2 -1.04494 6.61627 0.0518072 21
845 1 -12.3738 -6.62649 0.10652 21
846 1 -4.7037 6.61253 0.030549 21
847 2 -10.2612 -6.68803 0.101804 21
848 2 -4.66408 -6.68443 0.00259617 21
849 2 -12.3057 6.64908 0.0565525 22
850 1 -10.2547 6.62794 0.0556005 21
851 2 -17.7923 -4.11848 0.0713114 9
852 1 -10.224 -4.64055 0.0647025 21
853 2 -12.2398 -4.58536 0.0815567 22
854 2 -6.66007 -4.62856 0.0544035 21
855 1 -15.723 6.56326 0.0354998 15
856 1 -12.312 -1.02569 0.0528465 21
857 2 -10.2645 -1.07892 0.0466538 21
858 1 -10.2365 0.974171 0.0322958 21