ITEM: TIMESTEP
172000
ITEM: NUMBER OF ATOMS
2000
ITEM: BOX BOUNDS pp pp pp
-30.0 30.0
-30.0 30.0
-30.0 30.0
ITEM: ATOMS id type x y z Coordination
1 1 -14.2874 -0.311661 -12.4165 9
2 1 -15.641 -5.11448 -0.926586 15
3 1 -11.8547 3.83161 12.6068 16
4 2 -15.4482 -0.6515 -0.695722 15
5 2 -11.5881 -1.77885 -8.60863 18
6 2 -15.2732 1.76767 7.61943 14
7 1 -4.27129 -15.6242 -3.09384 17
8 1 1.23543 -15.6791 6.83721 11
9 1 -4.82549 -14.8211 6.93278 14
10 2 -0.752825 -15.1796 -2.87865 17
11 2 -0.581162 -15.0486 6.75129 14
12 2 -1.07477 -15.0212 3.584 15
13 2 -2.31622 -3.05377 -18.2545 11
14 1 -0.728734 -3.85264 -18.6604 10
15 1 2.08326 -1.5176 -18.9085 9
16 2 0.948251 -2.95516 -18.1351 16
17 1 -11.6303 -14.0374 -6.23564 7
18 1 -10.2198 -7.75768 -12.2601 11
19 1 -13.8051 -11.5522 -7.77827 5
20 1 -12.2361 -6.52931 -6.92101 16
21 1 -15.0422 -4.72032 -7.59141 12
22 1 -13.9015 -8.90794 -5.16678 10
23 1 -12.6348 -6.65494 -3.64846 20
24 1 -15.3417 -7.60083 -2.35854 13
25 1 -12.7573 -9.77773 -2.11346 16
26 1 -11.8345 -0.373002 -13.7745 12
27 1 -11.7725 -3.46644 -12.1691 14
28 1 -11.7575 -1.00756 -10.4366 19
29 1 -14.9784 -3.49995 -10.9159 9
30 1 -12.1817 -3.58993 -9.00685 19
31 1 -15.3943 -1.43201 -9.21642 12
32 1 -11.9122 -1.08319 -6.76387 18
33 1 -15.0649 -1.92776 -5.99018 16
34 1 -12.9381 -4.27073 -5.54397 18
35 1 -15.8185 -4.4358 -3.95641 14
36 1 -12.3225 -1.00223 -3.71174 20
37 1 -15.144 -1.76471 -2.25373 16
38 1 -12.9767 -3.92703 -2.13346 21
39 1 -7.24717 -12.3334 -10.9137 13
40 1 -8.93443 -13.3664 -8.18437 14
41 1 -6.73412 -12.4667 -6.16755 19
42 1 -9.64124 -13.1572 -4.67717 17
43 1 -6.04183 -14.4863 -9.13653 12
44 1 -6.83536 -12.6308 -3.12895 21
45 1 -9.13546 -12.5339 -1.06359 16
46 1 -6.59762 -15.0412 -1.52802 16
47 1 -7.23813 -6.74845 -13.5898 18
48 1 -9.72112 -4.86238 -14.0512 12
49 1 -7.14916 -9.52463 -12.2758 15
50 1 -9.38612 -10.5896 -10.6628 12
51 1 -6.55555 -6.84379 -9.85876 20
52 1 -9.56036 -7.61787 -8.46755 17
53 1 -6.87731 -9.54056 -8.48876 21
54 1 -9.40062 -10.706 -7.24375 16
55 1 -6.59889 -6.70832 -7.04696 21
56 1 -9.54867 -7.67197 -5.43647 19
57 1 -7.55149 -9.75755 -5.14987 21
58 1 -10.062 -10.4896 -3.39287 20
59 1 -6.7589 -6.72567 -3.5944 18
60 1 -10.1699 -7.58308 -1.67091 20
61 1 -7.85407 -9.61022 -1.80615 20
62 1 -3.71459 -4.19858 -17.1372 16
63 1 -8.82113 -1.47798 -15.4001 15
64 1 -5.94472 -0.537616 -16.6563 14
65 1 -6.61985 -3.47205 -15.0783 18
66 1 -6.2916 -0.81157 -13.3412 22
67 1 -9.14284 -1.53156 -12.4284 21
68 1 -6.65797 -3.93844 -11.8864 21
69 1 -9.43581 -4.85628 -10.5723 19
70 1 -6.76767 -1.22827 -10.0437 23
71 1 -9.65549 -1.99386 -8.60339 20
72 1 -6.40015 -3.89694 -8.21223 24
73 1 -9.66331 -4.97889 -7.12117 20
74 1 -6.58686 -1.12194 -6.87768 21
75 1 -9.12811 -1.91101 -5.34435 21
76 1 -7.47906 -3.84177 -4.92831 21
77 1 -10.2515 -4.60622 -3.70356 18
78 1 -6.76851 -1.06845 -3.23965 20
79 1 -9.62928 -1.5834 -2.06638 18
80 1 -7.70602 -4.1628 -1.77217 20
81 1 -1.84214 -12.2256 -12.9636 15
82 1 -4.30447 -13.4506 -11.4288 12
83 1 -1.70757 -12.0672 -9.50514 18
84 1 -3.88972 -13.1254 -7.9126 18
85 1 -0.362147 -15.1439 -7.68118 14
86 1 -1.12058 -15.4774 -4.63107 18
87 1 -0.981755 -12.5261 -6.10246 20
88 1 -3.85695 -13.1154 -4.79601 24
89 1 -3.35983 -15.7169 -6.62019 13
90 1 -6.77277 -15.4422 -4.94945 13
91 1 -1.1063 -12.5096 -2.94246 20
92 1 -3.95071 -13.2969 -1.31116 23
93 1 -1.64924 -15.384 -1.29713 16
94 1 -1.47353 -6.60846 -16.4679 14
95 1 -5.52799 -8.78181 -15.5991 10
96 1 -1.93796 -9.46905 -14.5649 17
97 1 -4.75847 -10.7791 -13.8329 13
98 1 -1.74666 -6.87829 -13.3439 22
99 1 -4.63188 -7.80229 -11.7932 20
100 1 -1.42193 -9.35718 -11.2751 21
101 1 -4.50025 -10.4242 -9.86159 20
102 1 -0.75731 -6.82647 -9.83219 22
103 1 -4.10808 -7.48954 -8.07936 23
104 1 -1.22958 -9.33257 -8.03356 22
105 1 -4.44444 -10.4764 -6.6054 20
106 1 -0.942026 -6.75626 -6.46995 20
107 1 -3.94612 -7.41343 -4.56657 20
108 1 -1.9772 -9.47133 -5.36861 22
109 1 -4.6529 -10.3161 -3.39769 19
110 1 -1.12805 -7.06024 -3.09713 20
111 1 -3.73076 -7.21771 -1.37265 21
112 1 -2.01804 -9.64359 -1.76352 20
113 1 -5.18497 -6.0413 -16.5256 11
114 1 -1.96891 -1.29576 -16.9767 16
115 1 -3.84717 -2.0447 -14.6172 19
116 1 -1.24187 -3.91103 -15.3748 20
117 1 -4.32127 -4.95073 -13.779 21
118 1 -1.06483 -0.885472 -13.7784 20
119 1 -3.51117 -2.12167 -11.6908 21
120 1 -1.08758 -3.85377 -11.8468 23
121 1 -3.76765 -4.65777 -10.0064 21
122 1 -1.06069 -1.0209 -9.95158 20
123 1 -3.8058 -1.90569 -8.48804 21
124 1 -1.26188 -3.86922 -8.21005 20
125 1 -4.60672 -4.70126 -6.517 19
126 1 -1.28137 -0.920667 -6.7679 22
127 1 -4.12953 -1.8794 -5.24622 23
128 1 -1.82012 -3.8759 -4.97969 20
129 1 -4.74553 -4.6833 -3.32084 20
130 1 -1.34873 -1.0394 -3.5956 20
131 1 -4.26754 -1.85919 -1.62454 20
132 1 -1.78034 -3.53617 -1.83282 23
133 2 -13.0456 -13.1589 -7.10667 6
134 2 -15.4771 -3.30541 -8.70303 10
135 2 -9.568 -12.3791 -2.91732 16
136 2 -14.3567 -9.14356 -3.36518 12
137 2 -16.0273 -5.98041 -3.0072 10
138 2 -11.4555 -14.038 -4.29628 9
139 2 -13.1878 -7.91146 1.43907 21
140 2 -12.2648 -7.75753 -1.97582 20
141 2 -12.0477 -1.55436 -12.4159 16
142 2 -12.9526 -3.75444 -10.8316 14
143 2 -14.6251 -1.33792 -10.9001 13
144 2 -9.8916 -4.07789 -12.3847 17
145 2 -15.8054 -0.706905 -7.63921 11
146 2 -12.8608 -4.9258 -7.69398 12
147 2 -14.891 -4.25508 -5.62454 15
148 2 -13.1551 -1.7646 -5.22931 20
149 2 -15.5892 -1.45236 -4.28309 15
150 2 -12.017 -4.81926 -3.64761 20
151 2 -15.335 -3.66243 -2.15831 15
152 2 -12.7981 -1.88837 -1.88966 21
153 2 -6.70422 -10.3635 -10.1969 18
154 2 -10.2228 -12.5091 -6.66977 16
155 2 -7.05024 -13.6629 -7.82012 15
156 2 -7.76519 -13.5727 -4.85955 18
157 2 -9.11865 -9.49754 -12.1433 12
158 2 -6.01014 -15.5766 -3.29472 12
159 2 -4.32064 -15.0047 -8.03978 15
160 2 -11.9429 -11.0632 -3.04053 15
161 2 -6.17658 -4.86175 -13.632 20
162 2 -9.4448 -6.58177 -13.4547 12
163 2 -3.322 -9.15264 -11.1216 22
164 2 -13.8822 -10.1196 -6.60493 6
165 2 -6.60812 -7.75258 -11.9868 21
166 2 -9.75301 -6.65412 -10.2793 15
167 2 -9.00027 -12.4012 -9.96409 13
168 2 -9.52801 -9.76781 -8.83365 15
169 2 -7.60798 -7.67246 -8.33615 22
170 2 -10.4428 -6.83864 -6.88234 18
171 2 -7.69774 -11.0033 -6.79843 19
172 2 -9.46173 -9.70846 -5.02895 16
173 2 -7.3014 -7.78825 -5.33515 21
174 2 -10.4466 -6.91492 -3.64062 19
175 2 -6.83966 -10.6198 -3.44934 25
176 2 -6.96798 -13.1989 -1.28892 18
177 2 -7.68095 -7.56962 -1.88894 20
178 2 -5.46299 -3.97383 -16.6462 14
179 2 -8.80983 -3.29027 -14.9248 14
180 2 -7.79146 -0.413278 -16.5642 14
181 2 -9.66982 -0.31825 -13.9671 15
182 2 -6.24664 -6.83615 -15.171 14
183 2 -5.67027 -1.70277 -14.7953 21
184 2 -7.06452 -2.01869 -11.9601 21
185 2 -9.68339 -0.940331 -10.5531 22
186 2 -7.28814 -4.81214 -9.91189 22
187 2 -10.1043 -3.96991 -8.99437 20
188 2 -7.31347 -2.01045 -8.43712 21
189 2 -9.83773 -0.753874 -6.86468 20
190 2 -6.45732 -4.66481 -6.39387 20
191 2 -9.56215 -3.95579 -5.29111 19
192 2 -7.189 -1.72736 -5.28644 20
193 2 -10.2879 -1.20323 -3.74379 18
194 2 -6.76258 -4.71357 -3.38516 20
195 2 -9.62984 -3.77584 -1.87724 22
196 2 -7.59853 -2.06171 -1.83095 23
197 2 -3.84135 -9.74892 -15.0971 12
198 2 -3.91908 -12.1404 -9.71141 19
199 2 -1.39849 -16.0375 -6.30181 13
200 2 -1.77708 -13.269 -7.89004 20
201 2 -4.85537 -12.5178 -6.21736 23
202 2 1.42287 -15.2602 -7.43022 15
203 2 -6.00691 -13.612 -10.8849 12
204 2 -2.01667 -13.2777 -4.64628 23
205 2 -4.73502 -12.3227 -3.29102 23
206 2 -4.15104 -15.4356 -4.95271 14
207 2 -3.88784 -15.4757 -1.24698 15
208 2 -1.86496 -13.3475 -1.51072 21
209 2 -3.37842 -6.5033 -16.5374 17
210 2 -6.2822 -9.80074 -13.9525 11
211 2 -0.989305 -8.00842 -15.0874 16
212 2 -3.49368 -6.39937 -12.8773 20
213 2 -1.27332 -10.643 -13.4503 16
214 2 -3.7796 -12.0236 -12.9574 13
215 2 -1.02977 -7.37176 -11.68 21
216 2 -4.77915 -6.61161 -9.70935 21
217 2 -0.790016 -10.407 -9.5836 20
218 2 -5.00152 -9.19295 -7.90106 22
219 2 -1.72688 -7.34725 -7.98809 22
220 2 -4.50903 -6.69554 -6.45563 22
221 2 -1.53542 -10.7801 -6.77993 19
222 2 -3.87748 -9.61377 -4.97991 19
223 2 -1.98625 -7.60923 -4.86321 23
224 2 -4.84657 -6.65584 -2.95231 19
225 2 -1.21127 -10.5814 -3.33129 21
226 2 -3.87505 -9.36784 -1.85861 21
227 2 -2.00795 -6.9425 -1.53069 22
228 2 -3.88484 -0.702263 -16.157 19
229 2 -0.578041 -5.24869 -17.2232 16
230 2 -3.25097 -3.80219 -15.1649 23
231 2 -1.0038 -1.97755 -15.4112 24
232 2 -3.54703 -0.738484 -13.1627 20
233 2 -1.09979 -4.96675 -13.705 20
234 2 -4.79142 -3.55506 -10.9696 20
235 2 -0.916824 -1.84085 -11.9623 21
236 2 -3.43427 -1.07517 -10.2112 19
237 2 -1.85759 -5.05402 -10.0944 21
238 2 -4.47303 -3.72163 -8.09679 22
239 2 -1.62494 -2.13168 -8.59679 21
240 2 -4.41561 -1.18456 -6.94983 21
241 2 -0.94569 -4.71256 -6.57719 20
242 2 -3.87701 -3.77268 -5.14348 21
243 2 -1.87891 -1.90635 -5.30131 20
244 2 -4.80571 -1.0689 -3.4833 21
245 2 -1.16451 -4.65393 -3.24228 20
246 2 -3.97443 -3.69057 -1.79521 22
247 2 -2.25922 -1.6179 -1.95075 20
248 1 -12.6368 -12.6077 -3.43199 10
249 1 -12.0111 -12.4847 1.9662 10
250 1 -12.7336 -6.80991 -0.310885 22
251 1 -15.3196 -7.24743 1.21686 13
252 1 -13.0394 -9.78811 1.53745 14
253 1 -12.759 -6.7132 3.22704 20
254 1 -15.756 -7.8357 4.17947 10
255 1 -13.4889 -10.0084 4.49248 12
256 1 -12.5088 -7.28539 6.47018 19
257 1 -14.179 -5.08385 10.5906 12
258 1 -12.8604 -7.64592 9.80737 12
259 1 -16.4845 -4.8796 2.60842 13
260 1 -12.7155 -0.819562 -0.272186 19
261 1 -15.6939 -1.70309 0.889328 16
262 1 -12.9161 -3.7507 1.19896 20
263 1 -15.9189 -4.74913 5.59079 16
264 1 -12.9057 -1.24612 3.20992 21
265 1 -15.8937 -1.8276 4.29289 15
266 1 -13.589 -3.85888 5.00156 20
267 1 -15.7919 -7.05077 7.53744 11
268 1 -12.3554 -0.789953 6.37355 21
269 1 -14.8852 -1.91128 7.30421 16
270 1 -13.8974 -4.57329 7.94836 17
271 1 -12.7362 -2.00652 9.70552 17
272 1 -12.0076 -2.08775 12.4638 14
273 1 -13.1312 1.00869 11.4281 14
274 1 -6.27544 -12.068 0.173678 19
275 1 -9.12329 -12.0751 1.97325 18
276 1 -7.45789 -15.1024 1.97361 13
277 1 -6.58085 -12.5044 3.01381 19
278 1 -9.46804 -12.18 5.13792 17
279 1 -7.54253 -14.2793 4.98791 16
280 1 -9.6319 -12.0717 7.904 12
281 1 -6.59247 -11.62 6.13312 23
282 1 -6.49735 -11.7124 9.6776 15
283 1 -10.7332 -9.99884 0.122183 22
284 1 -6.98134 -6.95044 -0.210076 20
285 1 -9.62999 -7.21113 1.70665 20
286 1 -7.75992 -9.55786 1.45664 21
287 1 -10.7987 -10.1608 3.52751 22
288 1 -6.55102 -6.39125 2.89672 20
289 1 -9.62621 -6.53788 4.86064 21
290 1 -7.7037 -8.93247 5.05841 24
291 1 -10.3517 -9.20695 6.47966 17
292 1 -6.69189 -6.4199 7.17923 22
293 1 -9.77594 -6.77615 8.26633 18
294 1 -8.14361 -9.41598 8.37765 19
295 1 -12.7811 -5.6278 12.8936 11
296 1 -7.1102 -6.4827 10.4307 24
297 1 -10.2288 -6.91632 11.4775 16
298 1 -8.02613 -9.61471 11.4529 11
299 1 -6.88385 -7.50972 12.8686 15
300 1 -10.5604 -4.62771 -0.0947636 19
301 1 -7.08402 -1.04659 0.0540274 21
302 1 -9.74157 -1.48106 1.29589 22
303 1 -7.71666 -3.57248 1.4975 21
304 1 -10.8915 -4.51044 3.24996 21
305 1 -6.76081 -1.26616 3.34929 20
306 1 -9.81281 -1.99128 4.85945 19
307 1 -7.51104 -4.50155 4.81444 19
308 1 -10.574 -3.89796 6.64856 20
309 1 -6.72134 -0.94673 7.08991 22
310 1 -9.65459 -1.16007 8.11585 22
311 1 -7.7382 -3.79971 8.17415 22
312 1 -10.7657 -3.8155 9.81172 21
313 1 -6.67893 -0.98345 10.0132 23
314 1 -9.49042 -0.832878 11.1792 22
315 1 -7.90712 -3.73171 11.7144 23
316 1 -10.1147 -4.60446 13.3184 14
317 1 -6.9824 -0.757283 13.1708 23
318 1 -9.52495 -2.08136 14.1658 16
319 1 -7.20368 -4.71712 14.9902 14
320 1 -4.55783 -15.7862 0.47795 14
321 1 -1.18004 -12.3649 0.122261 21
322 1 -3.71861 -11.6077 1.95248 21
323 1 -1.70986 -14.5041 2.02797 21
324 1 -4.39126 -14.8532 3.53298 15
325 1 -1.03586 -11.6591 3.45444 22
326 1 -3.80929 -11.7297 4.82801 21
327 1 -1.82173 -14.3826 5.43942 18
328 1 -8.20499 -14.5876 8.00455 9
329 1 -0.81937 -11.6686 6.73317 20
330 1 -3.58457 -12.4424 8.08976 20
331 1 -1.55329 -14.8721 8.4264 13
332 1 -0.776178 -11.8405 10.2295 18
333 1 -3.80121 -11.8988 11.3978 12
334 1 -1.16982 -12.0648 13.5953 13
335 1 -4.8381 -9.66448 -0.131546 21
336 1 -0.738661 -6.31694 -0.255753 21
337 1 -3.67705 -6.66944 1.38625 21
338 1 -1.76575 -8.98473 1.58061 24
339 1 -4.90316 -9.21441 3.33919 21
340 1 -1.14284 -6.30166 3.21987 20
341 1 -3.96719 -6.43066 5.12609 24
342 1 -2.12055 -9.02833 5.2259 23
343 1 -4.97823 -9.06375 6.87046 21
344 1 -1.00892 -6.96169 6.78135 21
345 1 -3.76034 -6.70525 8.30264 20
346 1 -2.23305 -9.41982 8.64325 19
347 1 -5.01136 -8.88517 10.4426 21
348 1 -1.09811 -7.13194 10.219 21
349 1 -4.27245 -6.23609 12.1076 22
350 1 -1.7399 -9.70376 12.1492 19
351 1 -5.0219 -9.7229 13.6108 13
352 1 -1.49815 -6.41844 13.7795 20
353 1 -4.29505 -6.40553 15.1606 19
354 1 -1.96416 -9.11381 15.7842 10
355 1 -5.18468 -4.02383 0.0913988 23
356 1 -1.51314 -1.12328 -0.218689 22
357 1 -4.10614 -1.35837 1.67685 21
358 1 -1.98956 -3.93703 1.54243 19
359 1 -4.56403 -3.95082 3.46014 22
360 1 -1.31529 -1.49731 3.28634 21
361 1 -4.03948 -1.13678 5.32478 18
362 1 -1.94601 -3.98433 5.06133 20
363 1 -5.03353 -3.98172 6.89852 20
364 1 -1.34659 -1.48248 6.65239 22
365 1 -4.01135 -1.00373 8.61631 21
366 1 -2.31306 -3.57385 8.34749 22
367 1 -5.0253 -4.16121 10.0361 23
368 1 -0.923625 -1.55092 10.3901 24
369 1 -3.77445 -1.43769 12.1525 24
370 1 -2.31199 -3.74382 12.1715 20
371 1 -5.17726 -3.53995 13.3042 22
372 1 -1.1679 -1.08365 13.8908 19
373 1 -4.26371 -0.886571 15.0425 21
374 1 -2.34553 -3.53216 15.3007 20
375 2 -15.1076 -7.0008 -0.614275 14
376 2 -12.6739 -10.267 -0.190945 15
377 2 -16.5649 -6.86665 2.54166 12
378 2 -9.67719 -9.76692 -1.45129 19
379 2 -16.1006 -6.63875 5.52491 13
380 2 -12.6123 -10.7944 2.95254 14
381 2 -13.9116 -8.26362 4.5528 16
382 2 -15.178 -5.81385 8.96072 12
383 2 -12.0403 -9.33796 5.6014 15
384 2 -13.5006 -6.73352 11.3191 10
385 2 -15.6203 -4.78439 0.916594 14
386 2 -12.4356 -4.44919 -0.298067 19
387 2 -15.7526 -3.74856 3.95555 16
388 2 -13.5283 -1.80944 1.08183 20
389 2 -16.3236 -0.77428 2.52653 14
390 2 -13.0416 -4.88143 3.17555 20
391 2 -16.1751 -1.01935 6.11589 16
392 2 -13.9273 -1.74006 4.65767 21
393 2 -13.3239 -1.00632 11.6848 12
394 2 -12.5075 -4.37274 6.45639 24
395 2 -15.1687 -3.60904 6.65334 14
396 2 -13.3443 -1.0768 8.04982 19
397 2 -12.6743 -4.04561 9.96533 18
398 2 -12.1966 -3.81039 12.8413 15
399 2 -13.2459 -7.21467 -5.51027 16
400 2 -6.50042 -15.5876 0.151348 13
401 2 -10.496 -12.2428 3.5078 15
402 2 -7.55912 -13.2046 1.64179 17
403 2 -10.5897 -12.3174 0.330238 14
404 2 -6.45377 -15.2415 3.70196 13
405 2 -9.42678 -13.3191 6.60488 10
406 2 -7.6297 -12.2952 4.57462 20
407 2 -6.81705 -14.8542 6.74177 11
408 2 -7.99018 -12.9844 8.8717 11
409 2 -10.7135 -6.52175 0.125459 20
410 2 -6.78608 -10.3027 -0.0733802 24
411 2 -9.93952 -9.40831 1.7863 21
412 2 -7.47872 -7.35591 1.55713 19
413 2 -10.8931 -6.44819 3.46725 18
414 2 -7.14534 -9.64643 3.43236 21
415 2 -9.43251 -9.70605 4.81514 22
416 2 -7.76038 -6.4662 4.52456 19
417 2 -10.3861 -7.18253 6.48586 19
418 2 -6.96524 -9.74127 6.74293 19
419 2 -9.77858 -10.3803 7.78813 15
420 2 -7.91178 -7.38191 8.32672 24
421 2 -11.0065 -6.85486 9.63086 18
422 2 -6.93086 -9.88503 10.0054 18
423 2 -10.9347 -6.23058 13.0508 9
424 2 -9.21743 -4.23405 14.6986 12
425 2 -13.7211 -7.8953 7.88672 14
426 2 -6.6047 -9.29663 12.5969 13
427 2 -5.35807 -6.9187 13.5809 20
428 2 -10.7099 -0.698201 -0.238288 22
429 2 -7.07588 -4.57118 -0.0700948 19
430 2 -9.74878 -3.65002 1.57945 19
431 2 -7.57087 -1.60695 1.70181 20
432 2 -10.368 -1.09474 3.23333 20
433 2 -6.49492 -4.172 3.16764 21
434 2 -9.56992 -4.30202 4.75601 19
435 2 -7.88243 -1.19013 5.00655 19
436 2 -10.7765 -1.89571 6.51615 21
437 2 -6.73732 -4.48328 6.57983 22
438 2 -9.57551 -4.46028 8.07901 21
439 2 -7.46905 -1.92898 8.50382 22
440 2 -10.7575 -1.56689 9.74977 21
441 2 -7.03155 -4.51386 9.94821 23
442 2 -9.58589 -4.12812 11.4248 22
443 2 -7.56719 -1.49243 11.5866 22
444 2 -9.51473 2.23027 14.4837 16
445 2 -6.95047 -4.11855 13.2818 22
446 2 -10.4106 -1.01286 12.944 18
447 2 -8.18634 -0.600993 14.8898 17
448 2 -4.31308 -12.3909 0.318689 21
449 2 -0.77645 -15.2573 0.379929 16
450 2 -3.69118 -15.1534 1.82488 16
451 2 -1.95561 -12.3443 1.92601 21
452 2 -4.75974 -12.3371 3.18958 22
453 2 1.77535 -14.6972 8.57742 13
454 2 -3.77448 -14.832 5.34817 17
455 2 -1.91658 -12.1082 5.25717 22
456 2 -4.88191 -12.4014 6.70462 19
457 2 -0.566774 -13.8546 10.0858 13
458 2 -3.08038 -14.1914 7.917 13
459 2 -1.97038 -11.5424 8.43658 19
460 2 -4.97313 -12.6084 10.1077 12
461 2 -1.91916 -11.7521 12.0681 13
462 2 -4.77747 -7.83423 0.119905 21
463 2 -0.944546 -9.98575 -0.023306 23
464 2 -3.65816 -9.46622 1.9626 20
465 2 -1.80459 -6.7862 1.46261 19
466 2 -4.81539 -7.24056 3.31512 22
467 2 -0.950646 -9.58369 3.38774 23
468 2 -4.14484 -9.76533 5.35484 22
469 2 -1.78676 -6.96005 4.9197 21
470 2 -4.93102 -7.16315 6.65028 21
471 2 -1.26781 -8.94527 6.88156 22
472 2 -3.88791 -8.81318 8.54378 19
473 2 -1.88867 -6.93689 8.47369 22
474 2 -5.2008 -6.92457 10.4816 20
475 2 -0.948019 -9.09275 10.4043 20
476 2 -4.01752 -10.1189 11.9817 19
477 2 -2.36262 -6.42233 12.1629 20
478 2 -8.47886 -7.48661 11.7132 18
479 2 -0.891386 -9.67886 14.0919 14
480 2 -3.65382 -9.43077 14.8131 12
481 2 -2.3962 -7.2505 15.3262 16
482 2 -5.13557 -1.7075 0.329534 22
483 2 -1.11336 -4.18211 -0.244831 20
484 2 -4.05812 -4.83205 1.56886 22
485 2 -2.07594 -1.96056 1.51157 22
486 2 -4.90225 -1.69607 3.72976 22
487 2 -1.75571 -4.26466 3.29725 19
488 2 -3.76909 -4.21845 5.34278 22
489 2 -2.16636 -1.79291 5.05207 21
490 2 -4.93223 -1.71431 7.0548 22
491 2 -0.904523 -3.45868 6.7979 20
492 2 -4.05501 -4.60147 8.49473 21
493 2 -2.17462 -1.4877 8.85698 19
494 2 -4.82438 -1.64601 10.3316 25
495 2 -1.42358 -3.74856 10.3426 21
496 2 -4.32634 -4.15944 11.6731 20
497 2 -1.90933 -1.67362 12.1476 23
498 2 -5.26532 -1.47157 13.5151 22
499 2 -1.24205 -3.87608 13.5832 22
500 2 -3.84441 -4.40549 14.7873 22
501 2 -2.32057 -1.60946 15.5622 21
502 1 -12.578 2.20283 -11.881 13
503 1 -12.1953 4.90356 -10.0426 16
504 1 -14.6584 4.06773 -8.5727 10
505 1 -12.3424 1.79262 -8.55558 18
506 1 -15.2618 0.935451 -6.98121 14
507 1 -12.0535 5.0007 -7.04862 21
508 1 -16.7363 3.59439 -5.97165 10
509 1 -12.2274 2.10849 -5.34495 20
510 1 -15.6926 0.645811 -4.02131 16
511 1 -12.8269 4.67769 -3.89548 21
512 1 -15.5753 3.92962 -2.54034 15
513 1 -13.0481 1.95131 -2.22358 20
514 1 -12.1952 7.44842 -8.60719 18
515 1 -14.7469 6.53874 -7.35974 11
516 1 -12.4742 9.98941 -7.32292 10
517 1 -12.4971 7.7271 -5.22523 22
518 1 -15.602 6.52874 -4.29833 11
519 1 -12.1331 9.93142 -3.40385 16
520 1 -15.3929 9.62528 5.25494 11
521 1 -13.1419 7.22937 -2.13779 18
522 1 -5.67055 3.64854 -17.1842 10
523 1 -8.62904 4.08273 -15.7038 10
524 1 -7.79008 1.6235 -17.0539 11
525 1 -8.9813 1.45693 -13.9368 18
526 1 -6.12449 1.98085 -14.8545 23
527 1 -9.87482 3.6342 -12.2577 18
528 1 -7.22854 1.69444 -11.5708 24
529 1 -9.68158 1.3236 -10.1508 22
530 1 -6.77753 4.79984 -10.1146 21
531 1 -9.61613 3.88347 -8.86733 21
532 1 -6.50125 1.81338 -8.61217 21
533 1 -8.78215 0.930875 -6.85558 19
534 1 -6.97293 4.66888 -6.66952 20
535 1 -9.79049 3.82807 -5.27095 22
536 1 -7.06395 1.86902 -5.15133 21
537 1 -10.0831 0.856288 -3.65294 21
538 1 -6.6538 4.99905 -3.4615 18
539 1 -9.52297 3.81131 -2.2248 21
540 1 -7.72053 1.74952 -1.72618 21
541 1 -6.90298 7.69628 -11.6018 16
542 1 -6.93924 4.53999 -13.335 18
543 1 -3.91194 12.6127 -13.0517 10
544 1 -11.3164 8.0136 -11.7805 10
545 1 -8.47041 10.1869 -11.5426 11
546 1 -9.26746 6.8689 -10.2904 18
547 1 -6.12516 11.9589 -10.6646 15
548 1 -10.3192 10.3934 -8.96748 14
549 1 -7.18465 7.57798 -8.20054 19
550 1 -9.43041 6.93363 -6.72827 19
551 1 -6.83603 10.7562 -6.6931 17
552 1 -9.42598 9.89818 -5.11185 20
553 1 -7.15054 7.90923 -4.95425 21
554 1 -9.75335 6.8856 -3.3684 22
555 1 -6.66926 10.2312 -3.30805 18
556 1 -9.50639 9.67594 -1.66725 19
557 1 -7.46144 7.70346 -1.63122 18
558 1 -9.23334 12.9783 -9.6052 11
559 1 -9.74079 12.5071 -7.05926 15
560 1 -6.40431 16.1322 -6.10203 11
561 1 -7.3688 13.415 -4.72771 20
562 1 -10.2502 12.6079 -3.65941 13
563 1 -6.49155 13.9858 -8.14707 18
564 1 -12.4091 10.1938 6.07066 17
565 1 -7.30744 13.0514 -1.62178 16
566 1 -3.22168 0.985791 -16.5898 16
567 1 -0.852127 5.42126 -16.2579 15
568 1 -3.57733 4.04899 -15.1844 19
569 1 -0.948 2.0131 -15.2958 19
570 1 -3.39443 1.23716 -13.3738 22
571 1 -1.42942 4.92253 -13.3741 21
572 1 -4.40681 3.99461 -11.8289 21
573 1 -1.38386 2.0786 -11.7682 21
574 1 -4.0383 0.727637 -9.91578 21
575 1 -1.8395 4.96198 -10.2028 23
576 1 -3.9909 3.57971 -8.26437 21
577 1 -1.41548 1.78563 -8.64265 22
578 1 -4.31595 0.84634 -6.70944 20
579 1 -1.4756 4.8581 -6.7404 22
580 1 -4.19048 3.91332 -5.19679 20
581 1 -2.10955 2.20455 -5.15266 19
582 1 -4.97275 1.09828 -3.48266 20
583 1 -1.19611 4.63679 -3.41235 19
584 1 -3.94118 3.78242 -1.73954 19
585 1 -2.14893 1.07309 -1.58648 19
586 1 -3.51763 6.96991 -16.7388 11
587 1 -3.90659 9.72871 -14.9068 11
588 1 -0.680764 8.297 -15.1891 17
589 1 -4.43454 6.81572 -13.5106 16
590 1 -1.30011 10.994 -13.8471 15
591 1 -4.23762 9.84435 -11.4557 19
592 1 -1.57622 7.44723 -12.1867 21
593 1 -4.36856 6.65081 -10.1265 22
594 1 -1.91664 10.2787 -9.62772 20
595 1 -4.50413 9.58059 -8.50933 20
596 1 -1.37492 7.75871 -8.5432 19
597 1 -4.54325 6.77473 -6.73753 25
598 1 -1.86373 10.4757 -6.58692 22
599 1 -3.89312 9.57202 -5.01573 22
600 1 -1.28762 7.60583 -5.15704 19
601 1 -4.40893 6.76799 -3.38042 23
602 1 -0.952194 10.6185 -3.27761 21
603 1 -3.7478 9.61669 -1.44715 19
604 1 -1.79761 7.38664 -1.73748 21
605 1 -1.09709 13.1676 -11.4663 13
606 1 -3.46631 12.713 -9.61086 19
607 1 -3.54738 15.64 -7.40113 13
608 1 -1.0605 13.4752 -7.83481 19
609 1 -3.84446 12.8182 -6.41926 20
610 1 -0.599325 16.1851 -6.01872 15
611 1 -3.40693 15.9562 -4.21761 14
612 1 -1.19416 13.7864 -4.52325 22
613 1 -4.40822 12.1691 -3.2962 16
614 1 -0.46029 15.9669 -2.31222 15
615 1 -3.67219 15.5916 -1.08412 17
616 1 -1.65224 12.8706 -1.67901 21
617 2 -13.2191 0.943408 -13.1313 9
618 2 -11.5108 3.53546 -11.2657 13
619 2 -11.828 0.934845 -10.7497 17
620 2 -14.3129 2.34802 -7.93531 14
621 2 -11.9946 3.67678 -8.44879 20
622 2 -15.9751 5.00641 -7.34063 10
623 2 -12.3871 0.830427 -6.86716 20
624 2 -15.8081 1.8965 -5.25539 14
625 2 -11.8912 3.91418 -5.19397 19
626 2 -16.2771 4.80442 -4.27142 12
627 2 -12.4578 0.984653 -3.85774 20
628 2 -15.7217 1.91863 -2.38639 14
629 2 -13.1565 3.81297 -2.2052 20
630 2 -11.3344 6.69848 -10.4147 15
631 2 -13.5225 5.89144 -8.61733 13
632 2 -11.9706 9.26213 -8.89874 13
633 2 -14.2699 6.86097 -5.58869 15
634 2 -11.6345 6.77024 -6.88322 21
635 2 -11.5662 6.62811 -3.59257 22
636 2 -14.9103 6.78992 -2.50101 14
637 2 -14.9338 6.9441 1.18219 14
638 2 -12.6225 9.56271 -5.4226 13
639 2 -5.77802 1.58606 -16.9504 15
640 2 -9.20571 2.04726 -15.646 12
641 2 -6.88421 3.42964 -15.6675 14
642 2 -8.93813 4.57895 -13.7482 13
643 2 -6.85137 1.00065 -13.331 24
644 2 -9.04748 2.00982 -11.6231 20
645 2 -6.3483 3.53067 -11.6485 19
646 2 -8.68562 4.68169 -10.4913 22
647 2 -6.19982 0.807751 -10.3646 19
648 2 -9.38861 1.78918 -8.32396 21
649 2 -6.55225 3.81182 -8.34537 23
650 2 -9.2368 4.92525 -7.13438 20
651 2 -6.74595 0.759872 -7.07342 21
652 2 -9.41795 1.82619 -5.21598 20
653 2 -6.60762 3.91375 -5.06779 20
654 2 -9.33677 5.06307 -3.99606 20
655 2 -6.83063 0.995317 -3.3269 18
656 2 -9.76474 1.91488 -2.06014 19
657 2 -7.39301 3.73969 -1.73294 22
658 2 -6.23428 6.25631 -12.9689 15
659 2 -9.44641 8.39899 -11.5154 12
660 2 -6.40062 9.88509 -11.4722 15
661 2 -9.61376 11.1567 -10.4666 13
662 2 -6.54504 6.8235 -9.95104 20
663 2 -9.07281 7.65904 -8.6626 22
664 2 -6.31232 9.19462 -8.1481 19
665 2 -10.5565 10.6544 -6.88542 21
666 2 -6.84139 6.7536 -6.5429 19
667 2 -9.57931 8.11394 -5.02709 20
668 2 -7.34799 9.94758 -5.08152 19
669 2 -10.3036 10.4058 -3.28183 20
670 2 -6.61529 6.95904 -3.33672 21
671 2 -9.72727 7.70075 -1.34886 22
672 2 -7.53801 9.74092 -1.63484 20
673 2 -7.22279 13.1659 -9.67553 16
674 2 -9.74797 14.1101 -8.28834 11
675 2 -7.18516 12.6753 -6.67302 20
676 2 -9.81682 13.0446 -5.31557 12
677 2 -7.12968 15.8552 -7.64249 11
678 2 -6.37435 12.0915 -3.33289 18
679 2 -9.23127 13.2513 -1.95582 14
680 2 -6.91828 14.9168 -1.31653 12
681 2 -4.47773 5.10081 -16.7348 13
682 2 -1.12973 0.966407 -17.0536 14
683 2 -4.00905 2.2887 -14.968 19
684 2 -1.41814 4.07099 -15.0676 20
685 2 -3.63901 5.06799 -13.1746 20
686 2 -1.44175 1.17261 -13.4073 21
687 2 -3.99578 2.06973 -11.6453 22
688 2 -1.09912 3.85 -11.9308 22
689 2 -3.74882 4.81536 -10.0057 19
690 2 -0.710218 0.901314 -10.128 19
691 2 -4.00877 1.54372 -8.34219 21
692 2 -0.600639 3.68504 -8.35749 22
693 2 -3.85741 4.90042 -6.85277 21
694 2 -1.14597 1.03658 -6.78591 20
695 2 -4.24028 1.93539 -4.99875 20
696 2 -1.69003 4.02714 -5.13697 19
697 2 -4.58053 4.87329 -3.28635 21
698 2 -1.81306 0.931139 -3.60244 22
699 2 -4.14386 1.66956 -1.71164 19
700 2 -2.08172 4.28668 -1.65512 22
701 2 -1.4652 7.15864 -16.5548 13
702 2 -4.10444 7.93629 -15.053 13
703 2 -2.02928 9.74579 -15.317 13
704 2 -4.34187 10.6795 -13.2286 14
705 2 -0.29691 6.92292 -13.5908 23
706 2 -3.6708 7.85059 -11.8735 23
707 2 -1.08016 9.5015 -11.2578 21
708 2 -4.00238 10.813 -9.87895 19
709 2 -1.12582 6.71022 -10.2436 21
710 2 -3.50511 7.95631 -8.62269 22
711 2 -1.09353 9.6293 -8.1237 20
712 2 -3.9943 10.4348 -6.86998 20
713 2 -0.956993 6.66116 -7.1341 22
714 2 -3.76481 7.54039 -5.12234 20
715 2 -1.40529 9.49132 -4.81162 19
716 2 -4.59113 10.1783 -3.16056 19
717 2 -1.18107 6.80996 -3.51318 20
718 2 -4.03562 7.66315 -1.73672 20
719 2 -1.64818 9.65413 -1.68543 17
720 2 -1.82554 12.7075 -13.1704 12
721 2 -4.5644 12.8665 -11.2495 13
722 2 -1.60646 12.7138 -9.59518 18
723 2 -4.05417 13.8566 -8.04502 18
724 2 -1.70589 15.2756 -7.37456 16
725 2 -4.46902 15.7828 -5.91814 15
726 2 -1.33701 12.2975 -6.26096 21
727 2 -3.28937 13.7061 -4.49742 19
728 2 -1.50769 15.8085 -4.13317 16
729 2 -4.58747 15.8786 0.681273 13
730 2 -0.455736 12.676 -3.24598 21
731 2 -3.32909 11.7257 -1.56119 16
732 2 1.44125 15.5783 -2.6954 17
733 1 -15.9225 1.14083 -0.781978 15
734 1 -12.7001 4.26341 -0.319272 20
735 1 -16.009 3.82578 1.23109 14
736 1 -13.1298 1.66148 1.48613 21
737 1 -16.6041 1.2055 2.99194 14
738 1 -12.5637 4.69053 3.20867 19
739 1 -15.2362 4.0767 4.63612 16
740 1 -13.5558 1.6898 4.81548 21
741 1 -16.1841 0.84419 6.02661 14
742 1 -12.05 4.57434 6.2612 20
743 1 -14.7115 3.62772 7.62578 16
744 1 -13.529 1.05649 8.19062 17
745 1 -12.3867 4.09337 9.8597 17
746 1 -13.0645 7.15667 11.3616 14
747 1 -15.2989 6.43057 -0.577595 14
748 1 -12.386 9.70567 -0.260982 15
749 1 -14.8134 9.26541 9.0148 11
750 1 -12.6828 7.19088 1.30809 19
751 1 -16.0848 6.73659 2.84262 12
752 1 -12.6242 9.94439 3.30322 13
753 1 -12.9602 7.20683 4.68377 23
754 1 -16.1365 6.75717 6.5066 12
755 1 -12.028 10.0511 10.6325 9
756 1 -13.5418 6.81099 8.27578 14
757 1 -10.7429 1.19823 -0.420561 22
758 1 -6.73026 4.25778 -0.0619458 21
759 1 -9.82498 3.86106 1.65364 20
760 1 -7.8911 1.47693 1.50401 21
761 1 -10.6677 1.24666 3.19885 22
762 1 -6.61573 4.54593 3.31738 20
763 1 -9.10197 3.73803 4.82736 20
764 1 -7.91395 1.06439 4.82144 20
765 1 -10.5619 1.65219 6.52722 20
766 1 -6.66329 4.58214 6.89882 22
767 1 -9.55164 4.34505 8.49757 21
768 1 -8.01787 1.7908 8.15237 22
769 1 -10.5072 1.8762 9.90426 22
770 1 -6.53611 4.43621 9.8624 24
771 1 -9.34021 4.63963 11.6932 24
772 1 -7.49948 1.61447 11.2852 22
773 1 -10.5542 1.02949 13.3134 18
774 1 -6.70335 4.06548 13.277 21
775 1 -9.84936 4.19591 14.8091 12
776 1 -7.95983 1.44641 15.3418 14
777 1 -10.621 6.63517 -0.195526 20
778 1 -7.00801 10.2334 0.396317 21
779 1 -10.3184 9.35209 1.48197 19
780 1 -7.85509 7.49609 1.67218 19
781 1 -9.99977 6.71789 3.36409 21
782 1 -6.87344 9.94543 3.44549 22
783 1 -9.57895 9.67483 5.21802 21
784 1 -7.6884 6.82418 5.02449 22
785 1 -10.4224 7.24849 6.85651 21
786 1 -6.85914 9.14452 7.01615 19
787 1 -9.50105 10.2847 8.35805 19
788 1 -7.67452 7.12965 8.7649 22
789 1 -10.1347 7.70845 10.2122 19
790 1 -6.87937 9.19027 10.4771 19
791 1 -7.28729 9.14513 14.4211 13
792 1 -7.44746 7.02441 11.95 22
793 1 -10.1413 7.08138 13.3301 15
794 1 -7.221 6.37306 15.0586 17
795 1 -4.99972 7.36416 16.7653 11
796 1 -9.96118 12.6268 -0.0192018 13
797 1 -6.50274 15.6031 0.253916 11
798 1 -10.29 12.294 3.50946 13
799 1 -7.35607 12.7959 2.15319 19
800 1 -5.74148 14.9137 4.09193 16
801 1 -5.97822 15.0899 7.28054 10
802 1 -7.4139 12.1771 5.10926 17
803 1 -10.2247 12.7705 6.87838 12
804 1 -7.68813 12.6122 9.67976 10
805 1 -13.6933 11.9281 7.78573 8
806 1 -5.11848 1.4946 -0.174517 20
807 1 -1.06717 4.63339 -0.08651 20
808 1 -3.65299 4.61235 1.86099 20
809 1 -2.08779 1.66506 1.35444 22
810 1 -4.72447 1.65921 3.29345 20
811 1 -0.964166 4.09484 3.56289 21
812 1 -3.78819 4.31191 5.36107 22
813 1 -2.19061 1.66483 5.15826 21
814 1 -5.15388 1.81111 6.93133 22
815 1 -1.04791 3.94042 6.98616 22
816 1 -3.67787 4.1387 8.41178 21
817 1 -1.75747 0.773317 8.5992 20
818 1 -5.08233 1.66639 10.2521 21
819 1 -0.797497 3.66258 10.1067 23
820 1 -3.96619 3.95886 11.8603 21
821 1 -2.39318 1.53524 11.5033 20
822 1 -4.58069 1.76119 13.8065 22
823 1 -1.4071 4.34807 13.4494 21
824 1 -3.89067 4.44906 15.5154 20
825 1 -1.59877 1.85934 15.2803 20
826 1 -4.51728 6.50305 -0.172262 21
827 1 -1.25328 9.99323 0.245175 21
828 1 -3.99723 8.93107 1.57005 19
829 1 -1.74713 7.00063 1.7504 22
830 1 -4.97384 6.85724 3.40399 23
831 1 -0.987066 9.5461 3.54375 20
832 1 -4.11108 9.48544 4.92288 20
833 1 -2.10372 7.08051 5.1673 23
834 1 -4.69064 6.93821 6.87225 22
835 1 -1.1294 8.92417 6.73401 21
836 1 -3.55185 9.23922 8.6471 22
837 1 -1.80968 6.66773 8.50679 21
838 1 -4.71089 7.06722 10.1982 24
839 1 -1.0836 9.67189 10.3512 20
840 1 -4.06421 10.3829 11.6103 17
841 1 -1.91759 7.2376 11.9248 21
842 1 -4.51268 6.61937 13.2575 23
843 1 -1.12093 9.98115 13.7801 15
844 1 -4.17272 9.94944 14.939 13
845 1 1.32259 7.70969 16.9094 10
846 1 -4.34554 12.1462 0.424228 20
847 1 -0.682381 15.4114 0.48196 16
848 1 -3.63847 15.1143 2.1472 16
849 1 -1.81362 12.7373 2.06685 18
850 1 -4.69643 12.4793 3.59683 19
851 1 -0.771292 15.0676 3.6147 18
852 1 -3.12953 16.671 5.17357 9
853 1 -2.09519 12.141 5.04675 19
854 1 -4.91888 12.2686 6.56595 18
855 1 -0.806068 14.7391 6.87706 11
856 1 -4.66372 12.8175 9.60908 12