ITEM: TIMESTEP
50000
ITEM: NUMBER OF ATOMS
2000
ITEM: BOX BOUNDS pp pp pp
-30.0 30.0
-30.0 30.0
-30.0 30.0
ITEM: ATOMS id type x y z Coordination
1 1 -17.8052 -2.10041 -0.251614 9
2 1 -15.9922 -4.32989 -0.141475 17
3 1 -14.6845 1.03849 10.0919 14
4 2 -16.6577 -0.574828 -0.379113 14
5 2 -17.2651 -3.41615 1.07505 12
6 2 -15.3683 1.64278 7.77048 16
7 1 -1.10476 -17.5282 -3.21338 11
8 1 -1.62545 -17.6307 0.44965 11
9 1 -2.59031 -17.2118 3.9402 9
10 2 -0.686303 -15.5145 -3.01522 17
11 2 -1.5333 -17.2141 -1.29968 13
12 2 -0.936205 -16.0358 3.61896 16
13 2 -2.66652 -2.92497 -17.1333 15
14 1 -1.20696 -3.71265 -18.0801 13
15 1 2.07466 -2.34217 -18.8942 8
16 2 0.519812 -3.37719 -18.502 8
17 1 -11.8869 -11.9586 -6.60593 12
18 1 -11.855 -5.93897 -9.78237 15
19 1 -12.0386 -9.23959 -8.43074 13
20 1 -13.013 -6.37653 -6.94271 20
21 1 -15.418 -7.49123 -4.74425 12
22 1 -12.3307 -9.20364 -4.90477 16
23 1 -12.3616 -6.63074 -3.47293 21
24 1 -15.34 -7.10826 -2.00107 14
25 1 -13.3405 -9.74888 -2.19524 15
26 1 -12.0253 -0.845521 -13.5061 10
27 1 -11.6664 -3.14672 -11.3814 16
28 1 -12.7163 -0.364052 -10.0804 14
29 1 -15.4576 -1.55086 -8.40594 11
30 1 -13.286 -3.69092 -8.57938 18
31 1 -15.8858 -4.69822 -6.66479 12
32 1 -12.3069 -0.751583 -6.74064 21
33 1 -15.0034 -1.43142 -5.30035 18
34 1 -12.98 -3.77153 -5.26524 20
35 1 -16.2472 -4.20134 -3.76065 13
36 1 -12.3686 -1.23581 -3.47087 22
37 1 -15.1529 -1.27295 -1.88505 19
38 1 -13.3284 -3.80293 -1.90444 23
39 1 -6.99262 -12.3107 -10.2431 14
40 1 -8.6411 -13.1918 -8.04026 13
41 1 -6.69861 -12.2199 -6.43789 21
42 1 -9.39148 -13.1168 -5.09005 13
43 1 -6.24301 -15.2152 -5.01838 14
44 1 -6.71456 -12.6093 -3.26664 20
45 1 -9.41645 -13.0727 -1.57341 16
46 1 -6.61439 -15.2509 -1.67431 15
47 1 -6.83411 -6.78959 -13.4442 20
48 1 -9.76527 -7.56424 -11.977 14
49 1 -7.02885 -9.59083 -11.9233 19
50 1 -9.52159 -10.3857 -10.1075 16
51 1 -6.43832 -6.57553 -10.1659 23
52 1 -9.52824 -7.4011 -8.58724 22
53 1 -6.52587 -9.49321 -8.50667 25
54 1 -9.18317 -10.1454 -6.60776 22
55 1 -7.22686 -6.71467 -6.84224 22
56 1 -9.78628 -7.29153 -5.21436 20
57 1 -7.16411 -9.42436 -5.05955 20
58 1 -9.82189 -10.342 -3.32899 22
59 1 -7.1121 -6.32319 -3.55632 20
60 1 -9.13158 -7.5206 -1.66078 21
61 1 -7.01367 -9.63967 -1.8178 20
62 1 -5.99909 -1.40774 -16.6791 16
63 1 -9.04205 -1.75365 -15.2037 15
64 1 -7.04862 -4.27157 -15.3391 15
65 1 -9.5453 -4.92685 -13.4867 14
66 1 -6.58974 -0.749468 -13.3046 18
67 1 -9.0862 -1.72693 -11.6964 21
68 1 -6.65679 -3.87195 -11.883 22
69 1 -9.04524 -4.59174 -10.3636 22
70 1 -6.50296 -0.923643 -9.86478 21
71 1 -9.54641 -1.88316 -8.32088 19
72 1 -6.91916 -3.88825 -8.35087 20
73 1 -10.2404 -4.66241 -6.97994 23
74 1 -6.46761 -0.9192 -6.86736 22
75 1 -9.33707 -1.65893 -5.34367 21
76 1 -7.55664 -3.66169 -5.25957 21
77 1 -10.4402 -4.51519 -3.49941 21
78 1 -6.65941 -1.07374 -3.38633 20
79 1 -9.51106 -1.91216 -1.72774 21
80 1 -7.37865 -3.87956 -1.93387 20
81 1 -1.3662 -12.3151 -12.9245 11
82 1 -4.08536 -11.1644 -12.4163 17
83 1 -2.13555 -12.4828 -10.0223 16
84 1 -4.77844 -13.5102 -7.95469 14
85 1 -0.796866 -15.2402 -8.5866 10
86 1 -3.37614 -16.2941 -6.2632 12
87 1 -1.11618 -12.2942 -6.58835 21
88 1 -3.6931 -13.4399 -5.01205 21
89 1 -0.760653 -15.1356 -5.00675 21
90 1 -4.02089 -16.2156 -3.15613 17
91 1 -1.24285 -12.2097 -3.27773 21
92 1 -3.96223 -13.2663 -1.57134 21
93 1 -1.55193 -15.0354 -1.16677 21
94 1 -1.6418 -6.50752 -16.1983 16
95 1 -4.71958 -7.44267 -16.1079 11
96 1 -2.18242 -9.11936 -14.3019 16
97 1 -5.71858 -9.44851 -14.7881 11
98 1 -1.36663 -6.47039 -12.9678 20
99 1 -4.28082 -7.75118 -11.6985 22
100 1 -1.63545 -9.51091 -11.4179 20
101 1 -4.4073 -10.8319 -9.62861 20
102 1 -1.23195 -6.7566 -9.81799 22
103 1 -3.93552 -7.65425 -8.01257 22
104 1 -0.625369 -9.65054 -8.09474 21
105 1 -3.52236 -10.7086 -6.75001 23
106 1 -1.74396 -6.64614 -6.65082 20
107 1 -4.31436 -7.79722 -4.80169 21
108 1 -1.59937 -9.47168 -4.93825 22
109 1 -4.51584 -10.6496 -3.36106 21
110 1 -1.52116 -6.63206 -3.29037 23
111 1 -3.76428 -7.67499 -1.58044 20
112 1 -1.70737 -9.45074 -1.23003 21
113 1 -3.95167 -4.29147 -16.8846 16
114 1 -2.34029 -0.998046 -16.5983 17
115 1 -3.94068 -2.05704 -14.8193 21
116 1 -1.45523 -3.97518 -14.9058 22
117 1 -4.57578 -5.00814 -13.2382 23
118 1 -1.25933 -0.812548 -13.2286 21
119 1 -4.0253 -1.97649 -11.7556 21
120 1 -1.19873 -3.39734 -11.2301 21
121 1 -3.89295 -4.84329 -10.1186 18
122 1 -1.15169 -0.861651 -9.87284 20
123 1 -4.07105 -2.05456 -8.31942 22
124 1 -1.1216 -3.82553 -8.17878 19
125 1 -4.84302 -4.78517 -6.69989 21
126 1 -1.13177 -1.07565 -6.65453 22
127 1 -3.97523 -1.77974 -4.8371 21
128 1 -2.02346 -3.80075 -4.93335 22
129 1 -4.37298 -4.72232 -3.32375 22
130 1 -1.22952 -1.2734 -3.13226 21
131 1 -3.76761 -1.6959 -1.51238 23
132 1 -1.78832 -3.87935 -1.65398 20
133 2 -12.4526 -7.27157 -8.50508 14
134 2 -14.8878 -6.2534 -6.03092 15
135 2 -11.4291 -9.978 -6.66901 16
136 2 -11.8772 -7.19977 -5.37988 21
137 2 -15.7778 -5.9576 -3.28527 14
138 2 -11.8526 -10.3953 -3.38157 19
139 2 -14.411 -8.74128 -3.82567 10
140 2 -12.9709 -7.52335 -1.98079 21
141 2 -12.9213 -1.64137 -11.7484 12
142 2 -12.7187 -4.42212 -10.2744 13
143 2 -15.2265 -3.7037 -8.19432 12
144 2 -13.0065 -1.61368 -8.53095 19
145 2 -15.4251 -0.34052 -7.05632 12
146 2 -12.3056 -4.53227 -7.14897 19
147 2 -15.2025 -3.46918 -5.03404 17
148 2 -12.998 -1.86458 -5.29027 21
149 2 -14.8242 -0.45472 -3.72043 18
150 2 -12.4646 -4.74325 -3.50655 22
151 2 -15.5525 -3.38397 -2.12817 18
152 2 -13.3093 -1.66065 -1.62074 19
153 2 -8.86245 -12.1146 -9.58433 13
154 2 -9.58893 -11.94 -6.90959 18
155 2 -6.6146 -13.2878 -8.41819 15
156 2 -7.57307 -13.5326 -4.91716 19
157 2 -11.3295 -13.2369 -5.13583 11
158 2 -6.14906 -15.8545 -3.38695 12
159 2 -7.58744 -13.3472 -1.4235 19
160 2 -9.76055 -12.1816 -3.42992 17
161 2 -6.78808 -7.84912 -14.9592 11
162 2 -8.82358 -6.65929 -13.398 14
163 2 -3.72122 -9.7323 -11.3356 23
164 2 -8.87441 -9.35491 -11.7332 15
165 2 -6.36193 -7.65371 -11.8292 20
166 2 -10.0263 -6.58412 -10.3624 20
167 2 -6.41561 -10.5606 -10.2536 18
168 2 -10.0033 -9.23954 -8.6148 18
169 2 -7.15227 -7.64158 -8.61235 23
170 2 -9.09163 -6.26151 -6.85452 22
171 2 -7.16972 -10.2229 -6.74874 19
172 2 -9.14861 -9.09974 -4.67232 21
173 2 -6.374 -7.599 -5.07898 23
174 2 -9.43386 -6.59477 -3.34398 22
175 2 -6.56895 -10.6491 -3.54176 21
176 2 -9.09692 -9.67738 -1.49406 20
177 2 -6.96857 -7.34814 -1.89075 24
178 2 -5.9972 -3.51809 -16.7471 12
179 2 -8.9007 -3.66028 -14.8051 13
180 2 -7.22966 -0.927735 -15.342 17
181 2 -9.82517 -1.01312 -13.2947 18
182 2 -6.51322 -4.78029 -13.6044 18
183 2 -9.78869 -3.60751 -11.9451 20
184 2 -7.11295 -1.84102 -12.0047 21
185 2 -9.76698 -0.737215 -9.95738 20
186 2 -7.16087 -4.72322 -10.2125 23
187 2 -9.80021 -3.83195 -8.60962 22
188 2 -7.58898 -2.04077 -8.26288 23
189 2 -10.1531 -0.866722 -6.76595 20
190 2 -6.76716 -4.76314 -6.6049 19
191 2 -9.68412 -3.55295 -5.21968 22
192 2 -7.42367 -1.86367 -5.01245 22
193 2 -10.3055 -1.0296 -3.6173 20
194 2 -6.5919 -4.41157 -3.64011 21
195 2 -9.49948 -3.88036 -1.90219 20
196 2 -7.68225 -1.5983 -1.85958 24
197 2 -2.73559 -12.5647 -11.7803 10
198 2 -3.73424 -12.6106 -9.23182 17
199 2 -1.83957 -16.2698 -7.37324 8
200 2 -1.05464 -13.5096 -7.86667 18
201 2 -4.82338 -12.1687 -6.34126 22
202 2 1.30113 -15.0716 -7.37442 14
203 2 -4.41841 -14.6985 -6.01614 16
204 2 -1.57639 -13.2127 -4.94017 23
205 2 -4.59571 -12.6472 -3.47258 22
206 2 -2.45374 -16.8411 -4.58231 12
207 2 -3.69753 -15.3395 -1.46571 18
208 2 -2.22253 -12.7585 -1.30051 19
209 2 -3.46234 -6.29492 -16.808 13
210 2 -3.94101 -8.77162 -14.8589 15
211 2 -0.964646 -7.53165 -14.7936 21
212 2 -3.36539 -6.27683 -12.4625 22
213 2 -1.70259 -10.5267 -13.2714 14
214 2 -6.04058 -10.2272 -13.1949 13
215 2 -0.71776 -7.64485 -11.544 21
216 2 -4.39377 -6.84694 -9.83696 20
217 2 -1.26543 -10.5371 -9.88236 22
218 2 -4.51762 -9.50973 -8.11444 20
219 2 -1.63946 -7.78764 -8.24805 20
220 2 -3.88519 -6.45738 -6.39302 19
221 2 -1.52692 -10.3422 -6.61083 19
222 2 -3.47788 -9.72041 -4.69714 24
223 2 -0.848225 -7.49354 -4.9259 23
224 2 -3.50008 -6.58505 -3.41158 23
225 2 -0.862444 -10.3377 -3.27729 20
226 2 -4.41743 -9.58519 -1.65388 21
227 2 -1.61883 -7.68445 -1.57329 22
228 2 -4.32984 -0.564868 -16.3027 19
229 2 -0.859118 -4.86529 -16.629 16
230 2 -3.70596 -3.9819 -14.8035 22
231 2 -1.79159 -1.99098 -14.9443 20
232 2 -4.56677 -1.04448 -13.4281 22
233 2 -0.800137 -4.36382 -12.8689 23
234 2 -4.41827 -3.73002 -11.5575 21
235 2 -1.95494 -1.50434 -11.4714 22
236 2 -4.63666 -0.839921 -10.1791 20
237 2 -1.61389 -4.8413 -9.77454 21
238 2 -4.71211 -3.91319 -8.58471 22
239 2 -2.00112 -1.73878 -8.27223 22
240 2 -4.54224 -1.02634 -6.51512 21
241 2 -1.05519 -4.83774 -6.26762 20
242 2 -4.00411 -3.61936 -4.97184 20
243 2 -1.90166 -1.51039 -5.00521 22
244 2 -4.26945 -0.802063 -3.1423 20
245 2 -1.1304 -4.76232 -3.35397 22
246 2 -3.66372 -4.24128 -1.52097 21
247 2 -1.91937 -1.88752 -1.51153 21
248 1 -11.9184 -12.4244 -3.34984 12
249 1 -12.7046 -12.0411 -0.238212 10
250 1 -12.0758 -6.91255 -0.401649 21
251 1 -15.2515 -6.68477 1.31325 16
252 1 -13.107 -9.03455 1.30153 16
253 1 -12.3434 -6.75529 3.35324 22
254 1 -15.5356 -6.89265 4.89266 15
255 1 -13.4689 -9.68502 4.88109 11
256 1 -12.747 -6.70114 6.39272 20
257 1 -13.7748 -9.21152 8.27523 10
258 1 -12.7287 -7.10248 9.68147 17
259 1 -16.6417 -4.06249 2.86819 16
260 1 -12.4092 -1.13911 0.00127477 19
261 1 -15.3572 -1.79164 1.429 20
262 1 -13.1588 -4.15759 1.17081 22
263 1 -16.2859 -4.08346 6.07905 14
264 1 -12.4266 -1.20814 3.09391 22
265 1 -15.3101 -1.5527 4.576 17
266 1 -13.5771 -4.19497 4.49994 21
267 1 -15.9982 -5.98268 8.22308 11
268 1 -12.7282 -1.3898 6.39473 22
269 1 -15.3489 -2.01251 7.93804 17
270 1 -13.5129 -4.1647 8.06715 19
271 1 -12.8152 -1.35709 9.62983 18
272 1 -13.265 -4.93477 11.5896 9
273 1 -12.836 -1.26317 13.1273 10
274 1 -6.83983 -12.3768 0.0141096 20
275 1 -9.94864 -12.6411 1.60843 15
276 1 -7.34885 -14.8839 1.51319 14
277 1 -6.84558 -12.1682 3.27632 21
278 1 -9.69695 -12.2868 4.84686 15
279 1 -7.61221 -14.9897 4.9514 13
280 1 -6.92829 -11.9704 6.71166 21
281 1 -10.0287 -12.4613 8.19388 8
282 1 -6.93116 -11.7292 9.77837 14
283 1 -10.3099 -9.75111 -0.0588155 21
284 1 -6.46804 -7.07273 -0.0457195 22
285 1 -9.57373 -7.30872 1.76714 22
286 1 -7.70211 -9.39333 1.82514 23
287 1 -10.7299 -10.0209 3.31805 19
288 1 -6.5984 -6.27085 3.55775 21
289 1 -9.82786 -7.06528 4.95338 20
290 1 -7.72148 -9.40324 5.14333 22
291 1 -10.8319 -9.85474 6.90126 18
292 1 -6.63528 -6.47867 6.83195 22
293 1 -9.85089 -7.02995 8.17814 22
294 1 -7.67828 -9.21104 8.67176 21
295 1 -10.6515 -9.48879 10.0264 14
296 1 -6.98646 -6.56671 10.3004 23
297 1 -9.95274 -7.1546 11.969 16
298 1 -7.79323 -9.68816 11.7816 13
299 1 -7.13331 -6.99084 13.5371 17
300 1 -10.2303 -4.7747 -0.224927 20
301 1 -6.80447 -0.976539 -0.0710386 22
302 1 -9.5433 -1.7414 1.62145 20
303 1 -7.56313 -3.9046 1.3588 21
304 1 -10.5048 -4.14865 2.90255 19
305 1 -6.60613 -0.928695 3.37584 22
306 1 -9.4596 -1.62768 5.02517 21
307 1 -7.78473 -3.82268 4.90625 23
308 1 -10.8638 -4.62101 6.5162 23
309 1 -7.1219 -0.9822 6.72827 21
310 1 -9.9977 -2.00049 8.1406 20
311 1 -7.84823 -4.17848 8.254 22
312 1 -10.6001 -4.46327 9.97605 23
313 1 -7.15813 -1.93439 10.0386 21
314 1 -9.78221 -1.58454 11.5355 22
315 1 -7.75942 -4.30278 11.7942 22
316 1 -11.0436 -4.37424 12.9276 16
317 1 -7.11932 -1.56286 13.3731 22
318 1 -9.73556 -2.10405 14.8324 15
319 1 -8.10595 -4.55831 15.0434 16
320 1 -4.54823 -16.029 0.694866 18
321 1 -0.965923 -12.084 -0.0574056 20
322 1 -3.71256 -12.6176 1.67769 19
323 1 -1.87311 -15.0157 2.02361 20
324 1 -4.84148 -14.7306 3.60079 20
325 1 -1.1849 -12.231 3.50379 23
326 1 -3.88316 -11.9147 5.0427 23
327 1 -1.82549 -14.7836 5.4407 18
328 1 -4.89302 -14.8763 6.85744 14
329 1 -0.968598 -11.9282 6.63396 22
330 1 -4.18466 -12.305 8.19876 19
331 1 -1.92393 -14.5776 8.92501 11
332 1 -1.25335 -11.7741 10.081 20
333 1 -4.04994 -11.8596 11.3491 15
334 1 -1.34895 -11.9943 13.1193 12
335 1 -4.90209 -9.9634 0.205375 20
336 1 -0.93915 -6.2416 -0.261548 21
337 1 -3.74742 -7.23554 1.88511 21
338 1 -1.93332 -9.23637 1.93189 23
339 1 -5.0911 -9.28549 3.40522 23
340 1 -0.76201 -6.7072 3.49415 21
341 1 -3.9125 -6.78433 5.18387 21
342 1 -1.90286 -9.35013 5.04944 22
343 1 -4.94381 -9.37761 6.68166 25
344 1 -1.07467 -6.50847 6.79736 21
345 1 -3.83237 -6.60558 8.2731 22
346 1 -2.19781 -9.09301 8.0103 23
347 1 -4.91903 -9.16243 9.84782 24
348 1 -1.25995 -6.47527 9.80026 21
349 1 -3.91396 -6.60674 11.5352 21
350 1 -1.99912 -9.18367 11.8075 20
351 1 -4.87418 -9.0859 12.949 16
352 1 -1.2185 -6.07262 13.3756 21
353 1 -4.89247 -7.14337 15.5118 13
354 1 -2.0369 -8.81978 14.9307 14
355 1 -4.49732 -4.91311 0.027267 22
356 1 -1.03105 -1.02344 0.0438706 22
357 1 -3.98808 -1.57216 1.76233 21
358 1 -1.79003 -3.85919 1.59522 23
359 1 -4.91484 -3.6973 3.33092 23
360 1 -0.946907 -1.14375 3.57515 21
361 1 -4.05717 -1.14643 5.05422 21
362 1 -2.06765 -4.00368 5.13166 19
363 1 -5.23727 -3.41332 6.55787 25
364 1 -0.989094 -1.16264 6.60911 19
365 1 -4.23468 -0.927022 8.43227 22
366 1 -1.87431 -3.68584 8.49995 20
367 1 -4.86131 -3.93321 9.82085 23
368 1 -1.47906 -0.702734 9.99206 21
369 1 -4.28955 -1.10489 11.6593 21
370 1 -2.30607 -3.57155 11.8617 23
371 1 -5.38056 -4.56859 13.2358 24
372 1 -1.24448 -0.95157 13.0998 22
373 1 -4.26588 -1.24046 14.8382 19
374 1 -2.54702 -3.49705 15.0304 19
375 2 -16.1134 -6.3086 -0.354356 12
376 2 -12.7992 -9.98234 -0.267004 14
377 2 -15.8664 -6.0526 3.21788 16
378 2 -13.1768 -7.03633 1.31092 18
379 2 -16.3134 -5.95595 6.24433 13
380 2 -13.0195 -9.47192 3.14485 12
381 2 -13.5863 -7.42774 4.75682 19
382 2 -13.9491 -7.09831 8.19978 14
383 2 -13.2138 -9.52056 6.59361 14
384 2 -12.6277 -9.09492 9.90227 12
385 2 -14.9931 -4.20411 1.54263 18
386 2 -12.2438 -4.78712 -0.507495 21
387 2 -15.4389 -3.65499 4.35764 18
388 2 -13.3667 -1.66826 1.37963 20
389 2 -15.7031 -0.660139 2.98151 19
390 2 -12.3623 -4.58528 2.94281 20
391 2 -16.0846 -1.08901 6.27824 17
392 2 -13.3308 -1.88497 4.76645 21
393 2 -15.1223 -0.884032 9.50616 12
394 2 -12.8459 -4.61573 6.26101 22
395 2 -15.6449 -4.14989 7.97921 12
396 2 -13.1393 -2.21416 7.98413 19
397 2 -12.8873 -4.98918 9.58612 18
398 2 -12.8215 -3.21368 12.538 13
399 2 -12.5003 -13.0101 -1.76014 9
400 2 -6.16507 -15.5644 0.0139795 14
401 2 -10.4324 -11.8662 3.18613 14
402 2 -8.01961 -13.0589 1.73962 18
403 2 -10.5234 -12.0835 -0.0670987 17
404 2 -6.64342 -15.092 3.28385 13
405 2 -7.75097 -12.713 4.88696 18
406 2 -10.4289 -11.788 6.53835 12
407 2 -6.4299 -15.4984 6.26311 9
408 2 -8.15623 -11.9609 8.37138 15
409 2 -10.2725 -6.9387 -0.114587 20
410 2 -6.87553 -10.0381 0.15889 21
411 2 -9.74259 -9.2095 1.60461 21
412 2 -7.25332 -7.32591 1.75329 21
413 2 -10.5155 -6.58375 3.15458 22
414 2 -7.19184 -9.88367 3.54147 23
415 2 -9.89835 -9.1426 4.9199 21
416 2 -7.68305 -7.10732 5.07293 23
417 2 -10.7725 -6.79324 6.56855 19
418 2 -6.78408 -9.96879 6.95387 22
419 2 -9.70475 -9.05898 8.26746 19
420 2 -7.50879 -7.05742 8.51008 19
421 2 -10.1797 -6.38416 9.64875 23
422 2 -6.82329 -9.82385 10.2067 18
423 2 -9.57434 -9.01669 11.5908 14
424 2 -8.15876 -6.3085 11.8167 20
425 2 -11.6584 -6.12131 12.2666 13
426 2 -6.74797 -9.02352 13.0796 15
427 2 -6.52043 -5.94065 15.0058 14
428 2 -10.3533 -1.08775 -0.00939441 20
429 2 -6.20065 -4.18888 -0.249612 21
430 2 -9.61796 -3.81034 1.33239 19
431 2 -7.4614 -1.55298 1.67438 22
432 2 -10.3966 -1.07311 3.36369 20
433 2 -6.7048 -4.3549 3.3028 20
434 2 -9.88915 -3.8972 4.87282 22
435 2 -7.42049 -1.97693 4.96336 21
436 2 -10.3817 -0.811724 6.40861 21
437 2 -7.02862 -4.65946 6.56483 21
438 2 -10.0063 -3.95164 8.11345 21
439 2 -7.92085 -2.09543 8.29342 23
440 2 -10.8504 -1.52061 9.79197 20
441 2 -6.97612 -4.16631 10.068 22
442 2 -9.61422 -3.5307 11.4981 24
443 2 -7.78379 -1.2409 11.596 20
444 2 -10.5451 -1.09324 13.3634 16
445 2 -7.14885 -3.4403 13.4781 22
446 2 -10.0531 -4.07335 14.7406 11
447 2 -7.97702 -0.914299 14.991 19
448 2 -4.83827 -12.5296 -0.0313368 23
449 2 -0.695713 -15.6159 0.557613 18
450 2 -3.89288 -14.6105 1.93178 19
451 2 -1.81826 -12.6834 1.78717 22
452 2 -5.05661 -12.7166 3.39525 22
453 2 -2.87091 -17.4803 1.9273 10
454 2 -3.67961 -15.5497 5.02595 17
455 2 -2.17112 -12.8202 5.46082 24
456 2 -5.10152 -12.9154 6.4676 22
457 2 -0.682975 -14.4756 7.01793 14
458 2 -3.78336 -14.6796 8.37972 11
459 2 -2.09069 -12.5395 8.42451 21
460 2 -5.11693 -12.2222 9.84955 14
461 2 -2.0526 -12.5252 11.5939 13
462 2 -4.42632 -7.25721 0.130838 20
463 2 -1.11384 -10.2089 0.23569 19
464 2 -3.88004 -9.42199 1.72616 23
465 2 -1.72294 -7.14699 1.42928 21
466 2 -4.80172 -7.24323 3.49062 23
467 2 -0.978071 -9.92823 3.415 20
468 2 -3.89621 -9.70512 5.01358 21
469 2 -1.97428 -7.30099 5.07186 22
470 2 -4.98979 -7.37435 6.87228 23
471 2 -1.0049 -9.70806 6.79123 21
472 2 -4.12961 -10.0791 8.14467 25
473 2 -2.10617 -7.19077 8.16037 23
474 2 -5.03144 -7.37367 9.99739 25
475 2 -1.38634 -9.80173 9.80567 21
476 2 -3.9415 -9.81001 11.514 21
477 2 -1.92236 -6.93631 11.6836 22
478 2 -5.15941 -6.84914 12.7893 17
479 2 -1.4426 -10.0087 13.4422 17
480 2 -3.77082 -8.68349 14.6506 16
481 2 -1.14453 -7.12562 15.2143 16
482 2 -4.739 -1.12609 0.00976915 20
483 2 -0.839795 -4.35503 0.0609528 20
484 2 -3.74108 -3.56005 1.67487 19
485 2 -1.54677 -1.60342 1.80954 20
486 2 -4.90237 -1.67663 3.25654 20
487 2 -1.18968 -4.6471 3.34298 21
488 2 -3.9406 -4.53365 5.16839 22
489 2 -2.27331 -1.90708 4.7643 23
490 2 -5.1214 -1.48434 6.72585 21
491 2 -0.986816 -4.14839 6.83066 20
492 2 -3.73131 -4.63014 8.41231 24
493 2 -2.17656 -1.91759 8.59523 23
494 2 -5.22563 -1.77503 9.85308 22
495 2 -1.22266 -4.36094 10.2721 22
496 2 -4.14227 -4.40228 11.7999 20
497 2 -2.27888 -1.60382 11.6689 22
498 2 -5.33038 -0.589463 13.1771 21
499 2 -1.49733 -4.1885 13.5874 22
500 2 -4.50466 -3.78382 14.9027 21
501 2 -2.34264 -1.33794 14.6322 19
502 1 -12.6727 2.39228 -12.0137 11
503 1 -12.1812 5.16225 -10.0424 15
504 1 -15.5807 4.54997 -8.51396 10
505 1 -12.6812 2.38633 -8.28135 20
506 1 -15.5011 1.48329 -6.88051 13
507 1 -12.135 5.10168 -6.76129 19
508 1 -14.674 4.22173 -5.55435 18
509 1 -12.7049 2.06089 -4.8417 23
510 1 -15.5667 1.39291 -3.90054 14
511 1 -12.219 4.65882 -3.30023 19
512 1 -14.8705 3.88715 -1.93011 18
513 1 -13.0599 1.70304 -1.89123 21
514 1 -12.611 8.94182 -7.96867 15
515 1 -15.3501 7.43483 -6.97052 11
516 1 -14.3092 10.2594 -5.202 11
517 1 -12.6673 7.36666 -4.97555 23
518 1 -15.3397 6.84972 -3.50773 16
519 1 -12.3424 10.8753 -3.25949 14
520 1 -14.9127 9.51603 -1.83976 12
521 1 -12.6856 7.38638 -1.40612 22
522 1 -6.31634 3.77764 -17.1139 11
523 1 -9.2748 4.10141 -15.2905 9
524 1 -7.55643 1.19085 -15.4511 17
525 1 -10.0943 1.28171 -13.4696 16
526 1 -6.28783 4.7436 -13.6088 19
527 1 -9.79235 3.9989 -11.8925 19
528 1 -7.10184 1.98782 -11.93 20
529 1 -9.9802 1.26293 -10.1399 23
530 1 -7.3658 4.65562 -10.4238 22
531 1 -9.77399 4.03243 -8.51057 22
532 1 -6.80032 1.88583 -8.40532 20
533 1 -9.90809 1.09167 -6.87162 21
534 1 -7.06406 4.70632 -7.19691 22
535 1 -9.42095 3.67377 -4.94927 22
536 1 -7.23356 1.70394 -5.12383 21
537 1 -10.1908 0.968126 -3.43278 22
538 1 -6.80423 4.94919 -3.34048 21
539 1 -9.38946 3.87034 -1.38586 20
540 1 -7.20267 1.88708 -1.98698 22
541 1 -6.02831 7.70854 -11.8219 17
542 1 -8.8316 6.93399 -13.1187 15
543 1 -2.69632 12.4954 -13.2559 10
544 1 -11.5333 8.52029 -11.2201 11
545 1 -8.30622 9.69646 -11.9418 11
546 1 -9.65954 7.0433 -10.0094 20
547 1 -6.65627 10.6892 -9.9671 16
548 1 -9.7126 9.69572 -8.74082 18
549 1 -6.87146 7.85765 -8.29784 21
550 1 -9.7774 6.84853 -6.7044 20
551 1 -7.21011 10.749 -6.78792 23
552 1 -10.1875 9.52708 -5.41704 20
553 1 -7.34724 7.50908 -5.02302 23
554 1 -10.1856 6.63534 -3.24904 21
555 1 -7.43516 10.2793 -3.73891 22
556 1 -9.69524 9.65195 -1.5546 19
557 1 -7.17634 7.81304 -1.81443 22
558 1 -7.29648 13.4679 -8.57284 15
559 1 -9.88866 12.2247 -6.72504 13
560 1 -6.07185 16.8633 -5.81894 9
561 1 -6.91872 13.3434 -4.95386 21
562 1 -9.28156 12.4194 -3.47944 17
563 1 -9.12548 15.0641 -6.01221 10
564 1 -12.9575 13.3258 5.88153 7
565 1 -7.34555 13.2927 -1.45001 17
566 1 -4.57153 1.25825 -16.6773 16
567 1 -0.74333 4.20355 -16.9162 13
568 1 -3.19247 4.28985 -15.2218 18
569 1 -1.64937 1.40544 -15.1075 19
570 1 -4.42741 1.28875 -13.6915 23
571 1 -0.934203 4.58786 -13.3783 23
572 1 -4.25298 4.10543 -11.8779 21
573 1 -1.491 1.84046 -11.7068 20
574 1 -4.27356 1.04022 -10.1724 21
575 1 -1.57515 4.86459 -9.99617 19
576 1 -3.73105 3.98543 -8.29505 18
577 1 -1.87201 1.89377 -8.31718 20
578 1 -4.31198 1.00413 -6.73219 22
579 1 -1.21698 4.62434 -6.60427 19
580 1 -4.29645 3.69921 -5.39892 21
581 1 -1.59736 1.91807 -4.99468 21
582 1 -4.64341 1.06305 -3.42549 20
583 1 -1.07312 4.46143 -3.18822 22
584 1 -4.02345 3.81606 -1.83663 21
585 1 -1.74491 1.99955 -1.61717 21
586 1 -3.67781 6.55894 -17.1162 10
587 1 -2.91786 9.53254 -15.3388 12
588 1 -0.786448 6.90898 -15.2436 19
589 1 -3.83404 6.98444 -13.7807 18
590 1 -1.2408 10.2317 -13.3999 17
591 1 -4.30563 9.81904 -11.8135 19
592 1 -1.6829 7.29177 -11.6486 23
593 1 -4.55371 6.73312 -9.60692 21
594 1 -1.67192 10.4594 -9.87564 23
595 1 -4.1246 9.69655 -8.1951 20
596 1 -1.69792 7.62159 -8.2583 22
597 1 -4.74536 6.79238 -6.59906 24
598 1 -1.3962 10.2991 -6.56633 21
599 1 -4.51318 9.54126 -4.92494 22
600 1 -1.94893 7.61363 -4.92116 23
601 1 -4.40074 6.69668 -3.24629 19
602 1 -0.971538 9.9765 -3.18445 20
603 1 -3.82734 9.50036 -1.44906 19
604 1 -2.03104 7.17026 -1.58639 20
605 1 -0.52811 13.0303 -11.177 15
606 1 -4.06436 12.6356 -9.82758 18
607 1 -3.71784 15.1068 -8.03249 15
608 1 -1.45143 13.3175 -7.84461 19
609 1 -4.351 12.4525 -6.39271 23
610 1 -0.661862 16.2099 -6.36564 14
611 1 -3.67788 15.2964 -4.65728 21
612 1 -1.71351 13.0012 -4.75359 21
613 1 -5.0037 12.1516 -3.07146 20
614 1 -1.23707 15.9842 -2.93408 16
615 1 -3.60433 15.0372 -1.18896 17
616 1 -2.02499 12.7015 -1.32967 21
617 2 -12.1236 0.979299 -13.1484 11
618 2 -11.5737 3.92992 -11.4162 16
619 2 -12.6454 1.60551 -10.0002 15
620 2 -14.6004 2.89911 -7.8873 14
621 2 -11.8728 4.19545 -8.31931 21
622 2 -15.3435 5.50254 -6.98178 14
623 2 -11.7092 1.40676 -6.62304 22
624 2 -14.6445 2.27271 -5.41087 18
625 2 -12.2753 4.17248 -5.04781 21
626 2 -15.1424 4.67655 -3.69716 16
627 2 -12.4238 0.907568 -3.41047 23
628 2 -15.2856 1.87368 -2.12975 15
629 2 -12.8822 3.67303 -1.7216 20
630 2 -11.4937 9.54554 -9.45644 11
631 2 -14.344 9.15553 -7.22614 10
632 2 -11.9304 7.28379 -6.81914 21
633 2 -14.5809 7.48231 -5.17168 16
634 2 -11.9181 6.8411 -10.3757 14
635 2 -12.2017 6.56802 -3.02334 20
636 2 -14.8896 7.59321 -1.70785 15
637 2 -14.7278 10.4409 -3.55192 10
638 2 -12.0139 9.99297 -5.08833 15
639 2 -6.40643 1.66586 -16.9815 12
640 2 -9.29479 2.17519 -15.0815 15
641 2 -7.44378 4.41828 -15.6897 12
642 2 -9.41033 4.97543 -13.6295 14
643 2 -6.44552 1.2905 -13.7632 20
644 2 -9.31976 2.1035 -11.7606 20
645 2 -6.41469 3.80203 -11.7922 20
646 2 -9.27952 5.02025 -10.1956 21
647 2 -6.48609 0.989289 -10.0965 20
648 2 -9.43768 2.1086 -8.57681 22
649 2 -6.90117 3.82027 -8.8214 19
650 2 -9.74801 4.73087 -6.63904 20
651 2 -6.3924 1.25377 -6.78797 21
652 2 -9.33563 1.756 -4.88608 20
653 2 -6.87745 3.96701 -5.24094 21
654 2 -9.91762 4.58894 -3.22327 19
655 2 -6.53843 0.931661 -3.53712 21
656 2 -9.22988 1.90629 -2.16608 21
657 2 -7.45143 3.81788 -2.04283 20
658 2 -6.86001 6.65132 -13.1627 15
659 2 -9.43022 8.19146 -11.7887 15
660 2 -6.42014 9.66015 -11.7918 15
661 2 -8.63531 10.4974 -10.232 15
662 2 -6.62746 6.84162 -9.92968 22
663 2 -9.32922 7.67463 -8.30643 22
664 2 -6.11042 9.77195 -8.26672 24
665 2 -9.18464 10.4658 -6.85808 22
666 2 -6.80272 6.64164 -6.75795 19
667 2 -9.44697 7.63267 -5.04904 20
668 2 -6.54653 9.80029 -5.38941 23
669 2 -9.62435 10.325 -3.63079 21
670 2 -6.78017 6.92442 -3.35162 21
671 2 -9.51169 7.65318 -1.77207 21
672 2 -7.30066 9.73094 -1.87074 22
673 2 -5.95784 12.4641 -9.87887 16
674 2 -8.9463 13.6298 -7.6874 10
675 2 -6.52157 12.7292 -6.7501 22
676 2 -9.62946 13.38 -5.12221 13
677 2 -7.34844 15.5007 -5.06726 14
678 2 -7.00646 12.4803 -3.22286 20
679 2 -9.50695 12.7325 -1.40802 15
680 2 -6.91117 15.2398 -1.6648 17
681 2 -4.20042 4.6302 -17.4474 12
682 2 -1.05786 0.32249 -16.7964 15
683 2 -3.7606 2.36063 -15.1254 20
684 2 -1.38756 3.52423 -15.0663 18
685 2 -4.33595 5.14695 -13.7274 21
686 2 -0.681965 1.16695 -13.3131 20
687 2 -3.74293 1.99222 -11.8763 21
688 2 -1.14995 3.78113 -11.6915 19
689 2 -3.69563 5.26273 -10.033 21
690 2 -0.934507 1.04991 -9.78121 21
691 2 -3.8188 1.94316 -8.27061 19
692 2 -1.75333 3.89474 -8.44532 20
693 2 -4.53548 4.91137 -6.85795 19
694 2 -1.29845 0.952041 -6.84266 19
695 2 -3.74008 1.75621 -4.97408 23
696 2 -1.3036 3.79502 -5.03316 23
697 2 -4.5399 4.60674 -3.4358 19
698 2 -1.43946 0.917314 -3.21108 22
699 2 -3.85419 1.71143 -1.78272 18
700 2 -2.06919 4.04077 -1.32838 20
701 2 -1.99981 5.7944 -16.376 16
702 2 -3.70797 7.79716 -15.5383 12
703 2 -0.902792 9.00331 -15.2547 13
704 2 -3.17565 10.3784 -13.4295 16
705 2 -1.5605 6.3286 -13.5453 21
706 2 -4.18863 7.55687 -11.8475 19
707 2 -0.779276 9.26526 -11.544 23
708 2 -3.45214 10.4059 -10.0939 22
709 2 -0.966264 6.63266 -9.9454 24
710 2 -3.76835 7.8185 -8.28798 23
711 2 -0.887811 9.44274 -8.30215 22
712 2 -3.90121 10.6301 -6.39601 23
713 2 -1.19199 6.76434 -6.67777 20
714 2 -4.11935 7.48034 -4.80868 21
715 2 -0.942747 9.27085 -4.92395 22
716 2 -4.25633 10.1316 -3.2315 21
717 2 -1.13693 6.67932 -3.17666 22
718 2 -4.08606 7.49597 -1.55156 21
719 2 -1.70165 9.24046 -1.44459 19
720 2 -0.668479 12.4982 -13.0498 13
721 2 -2.7255 13.3353 -11.1892 13
722 2 -0.592041 12.1426 -9.34787 20
723 2 -3.39053 13.2569 -7.9147 20
724 2 -1.81354 15.1402 -7.36839 12
725 2 -4.55445 15.9201 -6.5598 13
726 2 -0.812136 12.3832 -6.2312 23
727 2 -4.17384 13.2344 -4.63621 21
728 2 -1.59123 15.1712 -4.75352 16
729 2 -4.55426 15.3248 0.589361 17
730 2 -0.933004 12.6063 -2.98252 20
731 2 -4.27192 13.0309 -1.64272 19
732 2 0.654549 16.142 -2.99869 15
733 1 -16.125 1.14788 -0.304472 16
734 1 -12.3584 4.76088 0.0427245 20
735 1 -15.1545 4.12695 1.3778 18
736 1 -12.9917 1.58185 1.41998 20
737 1 -16.2804 1.16139 2.97932 16
738 1 -12.5935 4.49115 3.19089 21
739 1 -15.347 3.80311 4.90591 19
740 1 -13.6363 1.5079 4.6988 23
741 1 -16.3333 0.723659 6.46168 14
742 1 -12.4933 4.0478 6.27487 21
743 1 -15.3654 3.67801 7.98649 15
744 1 -13.4258 1.49396 7.77504 21
745 1 -12.8896 4.00109 9.78936 19
746 1 -13.039 2.62208 12.725 13
747 1 -15.9341 6.75579 -0.160587 12
748 1 -12.4835 10.2393 0.111888 13
749 1 -15.3037 8.77784 5.9134 10
750 1 -13.5118 7.48937 1.43417 21
751 1 -16.2962 6.71328 2.96558 13
752 1 -13.1111 10.1871 3.28232 13
753 1 -13.4203 6.88601 4.82054 21
754 1 -16.8664 6.47249 6.45222 9
755 1 -12.5523 10.2424 6.31669 16
756 1 -13.5437 6.83355 7.89386 16
757 1 -10.026 0.798141 -0.530915 20
758 1 -7.05805 4.73336 -0.293403 22
759 1 -9.54748 3.8098 1.53392 19
760 1 -7.44355 1.90989 1.2663 22
761 1 -10.3029 1.02722 2.99448 20
762 1 -6.67532 4.38125 3.15929 23
763 1 -9.69745 3.72388 4.70428 19
764 1 -7.53456 1.54528 4.82771 20
765 1 -10.7238 1.09328 6.3569 23
766 1 -6.66644 4.59757 6.49336 23
767 1 -9.80492 3.95011 8.02162 22
768 1 -7.80893 1.90293 7.99612 19
769 1 -10.7699 0.839106 9.61246 21
770 1 -7.08047 4.3292 10.3077 23
771 1 -9.9101 3.28653 11.5029 19
772 1 -7.75435 0.986938 11.3254 20
773 1 -10.5378 0.9846 12.8939 18
774 1 -7.05377 4.15921 13.4443 22
775 1 -9.98529 4.00228 14.1168 14
776 1 -8.15907 1.15071 15.0002 19
777 1 -10.1371 6.76224 -0.0540178 21
778 1 -7.06898 10.3098 -0.051101 22
779 1 -9.80097 9.29803 1.81523 21
780 1 -7.27864 7.46813 1.54705 19
781 1 -10.2445 6.52124 3.15543 21
782 1 -6.89073 10.0156 3.35012 20
783 1 -9.82659 9.36187 5.0771 21
784 1 -7.60703 7.19246 4.8896 22
785 1 -10.505 6.57704 6.65653 19
786 1 -6.85035 9.64983 6.58496 20
787 1 -9.8824 9.42455 8.43546 17
788 1 -7.87764 7.11203 8.08854 22
789 1 -10.9576 6.55315 9.7248 17
790 1 -6.94791 9.68494 9.87372 20
791 1 -9.90326 9.4529 11.4036 14
792 1 -8.03913 6.94648 11.5341 19
793 1 -11.4262 6.2031 12.7002 14
794 1 -6.71341 9.16693 12.9821 12
795 1 -8.27543 6.58753 14.6586 13
796 1 -9.8955 12.3427 0.362848 15
797 1 -6.86364 15.5302 0.245866 11
798 1 -9.57888 14.967 5.61337 9
799 1 -7.4276 12.581 2.11188 19
800 1 -10.5894 11.8687 3.63515 17
801 1 -6.69302 15.4117 3.60587 12
802 1 -7.54652 12.4881 5.24309 19
803 1 -10.291 12.3776 7.01927 17
804 1 -7.08058 12.8953 8.53757 17
805 1 -9.05526 12.3354 10.3558 11
806 1 -4.60701 0.924899 -0.167895 19
807 1 -0.716558 4.54307 0.0367413 22
808 1 -3.72762 4.4205 1.4779 22
809 1 -1.98323 1.75397 1.79154 22
810 1 -4.74102 1.75265 3.01941 21
811 1 -0.669281 4.38254 3.27842 21
812 1 -3.73841 4.26012 5.04153 22
813 1 -1.90917 1.80273 5.03058 22
814 1 -4.99039 1.55931 6.54416 23
815 1 -1.00909 4.56557 6.81491 22
816 1 -4.45351 4.34465 8.34363 22
817 1 -2.23696 1.76457 8.13513 22
818 1 -4.93706 1.68637 9.75418 22
819 1 -1.1406 4.49628 10.0274 20
820 1 -3.95997 4.36579 11.7113 20
821 1 -2.03505 1.81344 11.3359 22
822 1 -5.04563 1.2354 13.2229 22
823 1 -1.24544 3.93744 13.4979 20
824 1 -4.30585 3.99856 15.0848 19
825 1 -2.33998 1.55444 14.9467 18
826 1 -4.70504 6.50515 0.0881066 19
827 1 -1.07641 10.1661 0.188327 20
828 1 -4.03238 9.92563 2.04746 22
829 1 -2.00937 7.07178 1.79386 21
830 1 -4.74288 6.94065 3.44838 22
831 1 -1.2096 9.75504 3.36004 20
832 1 -3.8299 9.73296 5.1482 23
833 1 -2.0674 6.97813 4.77375 21
834 1 -4.92872 7.08791 6.5911 22
835 1 -1.1077 9.25421 6.70881 21
836 1 -4.0634 9.4523 8.52827 20
837 1 -2.1604 7.08635 8.30987 22
838 1 -4.99254 6.82962 10.1818 21
839 1 -1.06149 9.08805 10.1705 21
840 1 -3.83659 9.46576 11.7838 19
841 1 -2.10661 7.12465 12.0432 23
842 1 -5.18831 6.69078 13.4343 20
843 1 -0.463022 9.42106 13.3691 18
844 1 -3.73038 9.0194 14.6882 13
845 1 -1.86248 6.73693 15.3636 15
846 1 -4.89071 12.9707 0.387283 21
847 1 -1.05939 15.2004 0.225733 18
848 1 -3.72533 15.6694 2.1462 15
849 1 -1.91826 12.8383 2.18662 23
850 1 -4.64838 12.9006 3.57263 24
851 1 -0.801703 15.1872 3.74242 18
852 1 -3.75015 14.75 5.55724 14
853 1 -1.96011 12.3271 5.27796 23
854 1 -4.44955 12.2524 7.16365 20
855 1 -1.36467 14.7177 7.15405 14
856 1 -4.62766 15.287 8.99611 7