ITEM: TIMESTEP
81000
ITEM: NUMBER OF ATOMS
2000
ITEM: BOX BOUNDS pp pp pp
-30.0 30.0
-30.0 30.0
-30.0 30.0
ITEM: ATOMS id type x y z Coordination
1 1 -18.2994 -1.29867 2.98962 8
2 1 -15.8301 -4.35773 -0.611265 16
3 1 -13.368 1.27896 11.5749 13
4 2 -15.3587 -1.03452 -0.849185 16
5 2 -18.2174 -3.20454 2.88401 9
6 2 -15.7528 2.06859 7.52197 13
7 1 -1.66769 -17.7548 -3.04911 11
8 1 -1.81173 -17.4144 0.592622 12
9 1 -2.26694 -18.6087 3.97155 6
10 2 -0.946521 -15.8352 -2.95465 17
11 2 -1.90717 -17.8951 -1.18589 11
12 2 -0.883581 -14.5944 3.66574 15
13 2 -0.539612 -1.70818 -18.2741 12
14 1 -0.574213 -3.66796 -18.6112 9
15 1 1.56039 -1.71064 -18.4344 11
16 2 1.53134 -3.72292 -18.3329 10
17 1 -12.0969 -12.7525 -6.76346 10
18 1 -12.0999 -7.00758 -10.2098 13
19 1 -11.8643 -9.75445 -8.50693 13
20 1 -12.7073 -6.60682 -7.29657 19
21 1 -15.1725 -7.63669 -5.4253 12
22 1 -12.1625 -9.65073 -5.35443 19
23 1 -12.4385 -6.78042 -4.06888 20
24 1 -15.012 -7.58369 -1.86455 15
25 1 -12.5395 -9.48098 -2.00981 19
26 1 -12.1578 -0.749783 -13.9144 10
27 1 -12.3251 -3.6046 -11.8984 12
28 1 -12.3821 -1.08003 -10.6807 18
29 1 -15.0079 -1.93825 -8.73918 14
30 1 -12.8633 -3.92496 -8.63472 17
31 1 -15.9597 -4.98558 -7.23416 10
32 1 -12.0219 -1.40366 -7.13902 21
33 1 -15.5801 -2.03607 -5.81118 16
34 1 -13.4398 -4.06255 -5.4237 22
35 1 -15.8337 -5.05037 -3.79815 16
36 1 -12.4349 -1.24418 -3.77352 22
37 1 -15.0692 -1.76542 -2.59661 19
38 1 -12.871 -3.93915 -2.11292 18
39 1 -6.63857 -12.6149 -9.65692 14
40 1 -9.22794 -14.0681 -7.51584 10
41 1 -6.60091 -12.6408 -6.4778 20
42 1 -9.79257 -13.2278 -4.81956 18
43 1 -6.43118 -15.0138 -4.78795 13
44 1 -7.13305 -12.2849 -3.07454 22
45 1 -9.4501 -13.374 -1.43832 15
46 1 -6.59679 -15.161 -1.29462 14
47 1 -6.727 -6.54216 -13.6588 19
48 1 -9.10189 -7.42593 -11.8933 14
49 1 -6.8612 -9.68177 -11.4302 18
50 1 -9.12129 -10.5207 -10.3916 13
51 1 -6.65003 -6.67325 -10.2429 23
52 1 -9.47597 -7.78257 -8.73478 20
53 1 -6.59563 -9.8126 -8.17344 23
54 1 -9.48771 -10.6029 -7.03322 21
55 1 -6.81164 -6.64426 -6.78846 19
56 1 -9.5756 -7.61335 -5.27189 21
57 1 -7.56168 -9.54168 -5.15717 22
58 1 -10.3341 -10.653 -3.26493 21
59 1 -6.48269 -6.65812 -3.5261 20
60 1 -9.61099 -7.30659 -2.00973 21
61 1 -7.45819 -9.27643 -1.74692 20
62 1 -6.35236 -1.94347 -16.802 15
63 1 -8.86657 -1.85397 -14.9141 16
64 1 -7.23416 -4.88309 -15.9049 15
65 1 -9.87536 -5.11884 -13.7046 13
66 1 -6.39392 -0.902686 -13.3934 20
67 1 -9.38135 -1.80534 -12.2855 20
68 1 -6.85401 -3.94835 -12.1729 22
69 1 -9.94047 -4.60491 -10.34 21
70 1 -6.45825 -1.17425 -10.224 19
71 1 -9.18852 -2.0456 -9.07436 20
72 1 -7.29878 -3.71105 -8.63595 21
73 1 -9.91279 -4.84383 -6.99522 21
74 1 -6.75712 -0.973832 -6.81919 19
75 1 -9.37129 -1.74785 -5.54172 22
76 1 -7.28593 -3.73132 -5.39484 20
77 1 -10.2006 -4.83561 -3.90741 19
78 1 -6.45909 -1.11442 -3.46509 21
79 1 -9.42817 -1.63596 -2.43107 20
80 1 -7.7633 -3.74576 -1.98184 20
81 1 -2.13897 -12.1239 -13.3994 11
82 1 -4.35639 -12.7392 -11.9324 13
83 1 -1.00895 -12.3994 -10.1215 21
84 1 -3.55033 -12.9954 -8.63129 18
85 1 -1.13865 -15.2019 -7.88082 13
86 1 -1.11837 -14.9476 -4.79446 18
87 1 -1.09821 -12.5174 -6.12473 22
88 1 -4.32785 -13.3687 -5.16131 18
89 1 -3.72452 -16.6917 -5.76534 10
90 1 -4.70812 -16.844 -2.59059 14
91 1 -1.58382 -12.1663 -2.85543 19
92 1 -3.80302 -13.1236 -1.43385 21
93 1 -1.89897 -15.084 -1.0287 20
94 1 -1.48469 -6.51766 -17.088 15
95 1 -4.82477 -7.34568 -15.7139 16
96 1 -2.03132 -9.35605 -15.5702 15
97 1 -4.99614 -9.92406 -13.8962 15
98 1 -2.17749 -6.66053 -13.837 22
99 1 -4.15642 -7.84528 -11.9976 21
100 1 -1.40191 -9.46383 -11.9531 20
101 1 -4.11896 -10.1681 -10.435 23
102 1 -1.10701 -7.00471 -10.1598 21
103 1 -3.95618 -7.60084 -8.50244 20
104 1 -1.2075 -9.62149 -8.27565 20
105 1 -4.14443 -10.3572 -6.67865 21
106 1 -1.39336 -6.53333 -6.74135 20
107 1 -3.84157 -7.33148 -5.09727 18
108 1 -1.63581 -9.42376 -4.97793 19
109 1 -4.5014 -10.1837 -3.51928 20
110 1 -1.02799 -6.61119 -3.07251 20
111 1 -3.86209 -7.1652 -1.77279 19
112 1 -1.91563 -9.4613 -1.75033 20
113 1 -4.43574 -4.67465 -17.274 14
114 1 -1.34266 -0.726298 -16.7532 16
115 1 -3.93066 -1.72553 -15.5336 16
116 1 -1.68713 -3.85204 -15.4391 20
117 1 -4.33547 -4.69982 -13.6752 20
118 1 -1.23946 -1.13497 -13.676 21
119 1 -4.05391 -2.0268 -12.0802 20
120 1 -1.76711 -4.18679 -11.8677 20
121 1 -4.30778 -4.62383 -10.1912 20
122 1 -1.17457 -1.1739 -10.0869 20
123 1 -4.03328 -1.85891 -8.49872 20
124 1 -1.62264 -3.75013 -8.49965 19
125 1 -4.40095 -4.76415 -6.6994 20
126 1 -1.2099 -0.999613 -6.70823 21
127 1 -3.63347 -1.54046 -5.1159 21
128 1 -1.62068 -3.83817 -5.02336 19
129 1 -4.73222 -4.30962 -3.32477 20
130 1 -0.811409 -1.12976 -3.31543 22
131 1 -3.60883 -1.42715 -1.74902 21
132 1 -1.86188 -3.67226 -1.63966 22
133 2 -12.2933 -7.99969 -8.58633 13
134 2 -14.6425 -6.32514 -7.17434 13
135 2 -12.3137 -10.8734 -6.88965 12
136 2 -13.2287 -8.04423 -5.28498 19
137 2 -15.6265 -7.13092 -3.61632 10
138 2 -12.2361 -10.7238 -3.58102 17
139 2 -14.934 -8.79408 0.00373324 9
140 2 -13.1147 -7.4126 -2.06026 21
141 2 -12.0577 -1.86806 -12.5778 14
142 2 -12.4926 -5.02705 -10.4486 14
143 2 -14.9275 -3.81524 -8.23416 14
144 2 -12.7659 -1.79963 -8.88114 18
145 2 -15.6905 -0.883143 -7.43673 14
146 2 -11.866 -4.72359 -6.8811 21
147 2 -15.2974 -4.10517 -5.46266 16
148 2 -12.978 -2.11304 -5.56447 23
149 2 -15.9027 -0.961728 -4.13739 15
150 2 -12.2947 -4.72331 -3.9139 20
151 2 -15.0452 -3.79602 -2.50999 17
152 2 -13.2387 -1.80492 -2.16748 23
153 2 -7.6204 -13.5026 -8.3634 13
154 2 -10.028 -12.5268 -6.89295 15
155 2 -8.23093 -14.5545 -5.86133 12
156 2 -6.36839 -13.09 -4.63204 18
157 2 -11.7139 -13.4955 -4.97586 12
158 2 -6.12357 -15.6482 -2.94701 15
159 2 -7.41222 -13.1889 -1.26006 17
160 2 -9.18082 -12.4593 -3.17026 19
161 2 -6.44376 -6.70898 -15.5426 14
162 2 -8.60265 -6.17332 -12.9469 15
163 2 -4.91645 -9.47192 -12.0675 20
164 2 -8.71105 -9.19622 -11.6125 13
165 2 -6.76934 -7.62491 -11.8817 19
166 2 -9.8869 -6.66408 -10.3319 18
167 2 -7.28156 -10.7707 -9.79448 17
168 2 -10.0475 -9.70795 -9.02902 17
169 2 -7.21051 -7.86491 -8.38851 23
170 2 -9.74962 -6.96022 -7.02771 21
171 2 -7.32251 -10.6797 -6.57971 21
172 2 -9.9368 -9.80284 -4.9532 19
173 2 -7.32907 -7.50459 -5.12681 21
174 2 -10.2898 -6.67508 -3.75749 21
175 2 -6.62423 -10.4551 -3.5045 21
176 2 -9.46399 -9.4682 -1.99574 21
177 2 -7.4352 -7.40624 -2.02234 20
178 2 -6.18014 -3.78947 -17.2959 11
179 2 -9.18986 -3.64604 -14.8258 14
180 2 -7.1107 -1.13771 -15.253 18
181 2 -9.76708 -0.618348 -13.7678 18
182 2 -6.44863 -4.53305 -14.0478 23
183 2 -10.3258 -3.93348 -11.9412 19
184 2 -7.2693 -2.13581 -11.8725 22
185 2 -9.95069 -0.885737 -10.5478 21
186 2 -6.39342 -4.64315 -10.2477 22
187 2 -9.56289 -3.8893 -8.67813 21
188 2 -7.36065 -1.69912 -8.66227 20
189 2 -9.83851 -1.32897 -7.37308 20
190 2 -6.45368 -4.51558 -7.01226 20
191 2 -9.16411 -3.9127 -5.42768 20
192 2 -7.44734 -1.82405 -5.26846 21
193 2 -10.5305 -1.10928 -3.87579 19
194 2 -6.96397 -4.71448 -3.40175 22
195 2 -9.70801 -3.52391 -1.99384 21
196 2 -7.43787 -1.76245 -2.10036 20
197 2 -2.44749 -12.5047 -11.5395 15
198 2 -4.74908 -12.1217 -10.0584 17
199 2 -2.11847 -15.7956 -6.3534 14
200 2 -1.88252 -13.9616 -9.38406 14
201 2 -4.48241 -12.4261 -6.81356 20
202 2 0.635613 -14.7759 -7.40576 16
203 2 -4.86873 -15.2114 -5.80356 14
204 2 -1.68869 -13.3085 -4.54305 21
205 2 -3.64473 -11.9423 -3.08339 18
206 2 -3.46685 -17.3221 -3.9563 11
207 2 -3.88209 -16.0713 -1.19185 15
208 2 -1.9498 -13.0373 -0.981102 21
209 2 -3.42129 -6.45515 -17.3239 13
210 2 -3.94008 -8.92989 -15.3695 13
211 2 -1.28858 -7.56822 -15.5567 17
212 2 -4.28994 -6.52742 -13.5122 21
213 2 -1.34716 -10.4499 -13.9657 16
214 2 -4.08281 -11.5508 -13.6573 11
215 2 -2.14067 -7.70294 -11.9476 21
216 2 -4.30582 -6.6106 -10.1292 20
217 2 -1.65532 -10.4566 -10.3734 23
218 2 -4.58408 -9.51559 -8.63743 22
219 2 -2.0078 -7.70577 -8.4017 23
220 2 -4.78263 -6.942 -6.84663 20
221 2 -1.79529 -10.5434 -6.64967 17
222 2 -3.89607 -9.31102 -5.27571 20
223 2 -1.75193 -7.17442 -4.76869 20
224 2 -4.3729 -6.28226 -3.40399 20
225 2 -1.25078 -10.1615 -3.38067 19
226 2 -3.93154 -9.36196 -1.65112 18
227 2 -1.98542 -6.90995 -1.38587 20
228 2 -4.88093 -0.767478 -16.8436 15
229 2 -0.757775 -4.72443 -17.0149 17
230 2 -3.82035 -4.07533 -15.5897 20
231 2 -1.89082 -1.89975 -15.3587 19
232 2 -4.44464 -1.20083 -13.8542 21
233 2 -1.42591 -4.72308 -13.8712 21
234 2 -3.81431 -4.13371 -11.9953 20
235 2 -2.05866 -1.66009 -11.99 18
236 2 -4.58984 -1.18703 -10.2303 20
237 2 -0.880509 -4.99929 -10.1812 24
238 2 -3.67171 -3.7779 -8.26961 20
239 2 -2.01494 -1.73094 -8.23025 20
240 2 -4.75256 -0.869462 -7.08675 22
241 2 -0.895513 -4.52598 -6.6872 21
242 2 -3.91499 -3.68996 -5.04466 20
243 2 -1.44603 -1.65462 -5.0577 22
244 2 -4.45656 -1.2049 -3.333 20
245 2 -0.926535 -4.38398 -3.3926 20
246 2 -3.94948 -3.8812 -1.56496 21
247 2 -1.57514 -1.54678 -1.50791 20
248 1 -12.7697 -12.6304 -3.63717 11
249 1 -12.1496 -12.1405 0.0138737 11
250 1 -12.4858 -6.39868 -0.394647 22
251 1 -15.4135 -7.22931 1.20007 15
252 1 -13.249 -9.08733 1.16193 17
253 1 -12.5719 -6.57058 2.89308 21
254 1 -15.8846 -6.74321 4.4606 12
255 1 -13.4565 -9.36253 4.36797 11
256 1 -12.6019 -6.37771 6.07865 22
257 1 -13.6058 -8.87645 7.87942 9
258 1 -12.3183 -6.46687 9.43856 19
259 1 -16.7876 -4.43456 2.85134 15
260 1 -11.9627 -1.34365 -0.63621 22
261 1 -15.0593 -1.6146 1.1489 20
262 1 -13.5248 -3.9968 1.24871 20
263 1 -16.5626 -3.80978 6.26849 12
264 1 -12.6733 -1.18219 2.85657 17
265 1 -15.4256 -1.45768 4.32325 19
266 1 -13.5379 -3.66699 4.55171 21
267 1 -15.079 -6.16279 7.77677 13
268 1 -12.3529 -1.16643 6.20603 20
269 1 -15.1719 -1.64908 7.62928 14
270 1 -13.2472 -3.83795 7.91073 18
271 1 -12.4167 -0.56935 9.32951 18
272 1 -12.9664 -4.62105 12.0428 9
273 1 -12.5839 -1.26673 12.8968 13
274 1 -6.55885 -11.9336 0.0965736 21
275 1 -9.321 -12.4404 1.79674 16
276 1 -7.39052 -14.9779 2.09478 15
277 1 -6.88094 -11.8159 3.40773 24
278 1 -9.64335 -13.5471 4.29295 11
279 1 -6.92643 -14.3893 5.25048 14
280 1 -4.96615 -13.9855 7.41902 15
281 1 -7.46585 -11.3128 6.53871 17
282 1 -6.6995 -11.648 10.226 11
283 1 -10.0002 -10.2913 -0.201849 22
284 1 -6.95719 -6.55809 -0.104002 19
285 1 -9.56512 -7.38197 1.60548 21
286 1 -7.62252 -9.0158 1.47944 21
287 1 -10.3039 -10.0503 3.48134 18
288 1 -6.92644 -6.27062 3.30708 22
289 1 -9.75473 -7.25736 4.48408 19
290 1 -7.51996 -9.01548 4.97154 23
291 1 -10.4592 -9.72061 6.48903 17
292 1 -6.69197 -6.45294 6.66824 24
293 1 -9.52504 -6.92426 7.75812 21
294 1 -7.47812 -9.06576 8.5548 20
295 1 -10.3894 -8.74548 9.74002 14
296 1 -7.06558 -6.20844 9.92365 21
297 1 -9.77818 -6.41683 11.4713 17
298 1 -7.98722 -9.15046 11.9192 13
299 1 -7.628 -6.72444 13.8893 14
300 1 -10.3747 -4.53214 -0.394944 21
301 1 -6.60556 -1.31304 -0.21245 22
302 1 -9.44605 -0.820245 1.38488 19
303 1 -7.63601 -3.716 1.48169 20
304 1 -10.39 -4.43796 3.03457 22
305 1 -6.73031 -1.12994 2.86617 21
306 1 -9.95052 -1.55616 4.56998 19
307 1 -7.71082 -3.55955 4.86773 20
308 1 -10.6964 -4.31975 6.35285 23
309 1 -6.60812 -0.966989 6.46542 24
310 1 -9.57026 -1.02847 8.15776 22
311 1 -7.84075 -3.50477 8.13731 23
312 1 -10.7615 -3.8442 10.0789 21
313 1 -6.85988 -1.01969 9.71991 22
314 1 -9.65801 -1.00101 11.7261 21
315 1 -7.78196 -4.13378 11.8708 20
316 1 -10.5121 -3.85685 13.1125 16
317 1 -7.00482 -1.09632 13.1894 23
318 1 -9.67555 -1.42138 15.28 13
319 1 -7.52592 -3.68356 14.879 15
320 1 -4.53938 -15.4611 0.518291 17
321 1 -0.910677 -12.0651 0.326052 22
322 1 -3.6937 -11.6102 1.86029 23
323 1 -2.13251 -14.4718 2.13265 19
324 1 -4.81139 -16.4593 3.49447 12
325 1 -0.779276 -12.2959 3.62093 22
326 1 -3.93675 -11.766 5.22693 20
327 1 -1.62439 -14.623 5.49239 17
328 1 -4.37288 -16.3763 6.3975 10
329 1 -1.17312 -11.4783 6.82896 25
330 1 -3.81971 -11.5831 8.83433 21
331 1 -2.06496 -14.0669 8.15366 12
332 1 -0.733301 -11.5354 10.1849 19
333 1 -3.85218 -11.6856 12.2631 12
334 1 -1.08468 -12.1783 13.5687 9
335 1 -4.79279 -9.96683 -0.0707364 19
336 1 -1.04454 -6.38181 0.0782295 19
337 1 -3.80905 -6.12765 1.59527 23
338 1 -1.90744 -9.0894 1.83428 21
339 1 -4.59054 -9.50175 3.26931 21
340 1 -1.21611 -6.22172 3.62506 22
341 1 -4.06347 -6.45734 5.13132 22
342 1 -1.95816 -9.08705 5.0941 22
343 1 -4.68155 -8.99281 6.94753 23
344 1 -1.30434 -6.50111 6.74749 22
345 1 -4.0324 -6.33519 8.65624 23
346 1 -2.20287 -8.91349 8.58219 24
347 1 -5.04429 -8.7889 10.1368 25
348 1 -1.17031 -6.18264 10.091 23
349 1 -4.12324 -6.0037 11.5186 21
350 1 -1.9009 -9.38538 11.9739 21
351 1 -5.08808 -9.42042 13.4755 13
352 1 -1.64244 -6.31953 13.4473 22
353 1 -4.57965 -6.8986 15.2395 15
354 1 -2.21676 -9.11933 15.296 14
355 1 -5.05839 -4.36506 -0.058725 20
356 1 -0.769509 -0.705988 0.0426139 20
357 1 -3.85421 -0.99628 1.33427 22
358 1 -2.01484 -3.55447 1.5813 23
359 1 -4.79815 -3.64193 3.22531 22
360 1 -0.931098 -0.658946 3.39632 23
361 1 -3.78299 -1.263 4.7627 22
362 1 -1.77317 -3.42787 5.25321 23
363 1 -4.60243 -3.74955 6.75569 22
364 1 -1.20264 -1.05347 6.99792 23
365 1 -3.99046 -0.889955 8.11066 23
366 1 -1.93085 -3.82049 8.48313 22
367 1 -4.78995 -3.43044 9.95259 23
368 1 -1.26768 -0.940922 10.0651 24
369 1 -4.1886 -1.06467 11.6915 21
370 1 -2.18075 -3.38574 11.8828 24
371 1 -4.74555 -3.70087 13.5053 20
372 1 -1.11542 -1.21581 13.5261 20
373 1 -3.99805 -1.21046 15.2988 21
374 1 -1.92304 -3.4553 15.2827 20
375 2 -15.7982 -6.26388 -0.583218 14
376 2 -12.1348 -10.1607 -0.0774813 16
377 2 -16.4382 -6.18278 2.68947 13
378 2 -13.3147 -7.05455 1.32007 19
379 2 -16.1636 -6.0101 6.12026 12
380 2 -12.3863 -9.87108 2.90829 15
381 2 -13.9788 -7.35494 4.17852 17
382 2 -13.4173 -7.04343 7.92677 16
383 2 -12.5992 -9.2867 6.26078 13
384 2 -12.4653 -8.53304 9.36176 12
385 2 -15.4909 -3.32987 0.946491 17
386 2 -12.591 -4.44591 -0.316394 19
387 2 -15.6349 -3.26254 4.75569 18
388 2 -13.2006 -0.906591 1.07188 22
389 2 -16.6669 -0.563894 2.83468 15
390 2 -12.5334 -4.20359 2.8076 22
391 2 -15.7549 -0.507738 5.91605 16
392 2 -13.1258 -1.73613 4.56664 21
393 2 -13.1963 -0.461674 11.2346 11
394 2 -12.6075 -4.46337 6.28393 21
395 2 -15.1629 -4.3216 7.67341 13
396 2 -13.1387 -1.82879 7.90348 20
397 2 -12.5705 -4.48036 9.8604 18
398 2 -12.7681 -3.00295 12.8945 11
399 2 -12.2097 -12.7355 -1.81436 12
400 2 -6.30889 -14.8829 0.417235 16
401 2 -10.1138 -11.8894 3.52277 12
402 2 -7.35762 -12.5451 1.75544 22
403 2 -10.1824 -12.3007 0.124088 15
404 2 -6.47366 -15.284 3.64665 15
405 2 -9.22817 -14.4549 2.53469 11
406 2 -7.8153 -12.7678 5.164 17
407 2 -5.99032 -15.2837 6.56838 9
408 2 -7.31022 -11.5058 8.42711 14
409 2 -10.4143 -6.58601 -0.0879059 21
410 2 -6.74603 -9.85819 -0.0256604 22
411 2 -9.49141 -9.41162 1.5959 22
412 2 -7.71345 -6.99635 1.70309 20
413 2 -10.6204 -6.38594 3.10527 22
414 2 -6.58174 -9.50539 3.03962 21
415 2 -9.3927 -9.2087 4.80583 20
416 2 -7.77405 -6.82468 4.93102 20
417 2 -10.5422 -6.45681 6.15523 20
418 2 -6.50057 -9.58856 6.57937 22
419 2 -9.38032 -9.02956 8.05675 17
420 2 -7.5528 -7.10585 8.3661 23
421 2 -10.3251 -6.30446 9.44445 19
422 2 -7.00209 -9.72636 10.35 18
423 2 -9.57412 -8.3832 11.2808 16
424 2 -7.95257 -5.98765 11.8505 20
425 2 -11.1001 -5.56267 12.453 14
426 2 -6.58926 -8.2584 13.4061 14
427 2 -6.44769 -5.95716 15.4209 14
428 2 -10.3548 -0.638579 -0.558207 23
429 2 -6.99945 -4.47674 -0.226138 21
430 2 -9.63996 -3.85937 1.33816 21
431 2 -7.76087 -1.60436 1.4242 20
432 2 -10.5195 -1.01368 2.93948 21
433 2 -6.60042 -4.26803 3.35507 23
434 2 -9.73566 -3.6897 4.6483 22
435 2 -7.71162 -1.52257 4.7961 23
436 2 -10.2512 -0.651002 6.35955 20
437 2 -6.63813 -4.24192 6.68853 23
438 2 -9.97326 -3.80597 8.14801 20
439 2 -7.67978 -1.31073 8.03284 18
440 2 -10.4326 -0.412696 9.70532 22
441 2 -6.83349 -4.046 9.80437 21
442 2 -9.54861 -3.03276 11.4537 23
443 2 -7.85419 -0.504189 11.5183 21
444 2 -10.2294 -0.581781 13.5947 18
445 2 -6.58376 -3.3588 13.2229 23
446 2 -9.30102 -3.49208 14.5929 16
447 2 -7.7763 -0.751695 14.968 18
448 2 -4.47366 -12.1914 -0.0399047 19
449 2 -0.906023 -15.4424 0.455109 17
450 2 -3.83862 -15.4772 2.23822 16
451 2 -2.01335 -12.4531 2.09036 19
452 2 -4.80655 -11.8135 3.61623 17
453 2 -1.80216 -17.9962 2.29328 9
454 2 -3.75149 -17.428 4.79066 9
455 2 -1.99923 -12.771 5.08511 23
456 2 -4.11265 -12.1621 7.08187 19
457 2 -0.464653 -14.5643 6.80288 13
458 2 -3.37159 -15.3307 7.62998 11
459 2 -1.56243 -12.3348 8.5837 19
460 2 -5.01955 -11.91 10.758 12
461 2 -2.07188 -11.7223 11.8323 12
462 2 -5.00611 -6.49454 0.113243 21
463 2 -0.853408 -9.78366 -0.0461079 21
464 2 -3.54232 -9.52477 1.31792 20
465 2 -1.80463 -6.96764 1.82537 19
466 2 -4.86168 -6.66768 3.44124 20
467 2 -1.1109 -9.80484 3.52803 23
468 2 -4.05397 -9.6278 5.12159 23
469 2 -2.29013 -7.05781 5.0712 22
470 2 -4.79394 -7.00465 6.80358 24
471 2 -1.68286 -9.63384 6.95435 23
472 2 -3.99884 -9.60278 8.71412 22
473 2 -2.15104 -6.94473 8.35152 24
474 2 -5.20176 -6.8608 10.197 23
475 2 -1.18529 -9.67356 9.99933 21
476 2 -3.93826 -9.49693 12.1597 19
477 2 -1.96114 -7.20966 11.8086 24
478 2 -4.14714 -6.01525 13.5655 21
479 2 -1.11119 -10.1309 14.0552 14
480 2 -4.05876 -8.99417 14.9385 13
481 2 -1.45927 -7.30538 15.4962 16
482 2 -4.82099 -1.14585 -0.203951 19
483 2 -0.992683 -4.23031 0.0258254 19
484 2 -3.79517 -3.95694 1.48469 20
485 2 -1.66329 -1.60801 1.75641 22
486 2 -4.74988 -1.4485 3.0475 22
487 2 -1.19368 -3.94477 3.37007 22
488 2 -3.682 -4.29977 5.03623 22
489 2 -1.88895 -1.47577 4.88563 22
490 2 -4.82288 -1.91673 6.49586 25
491 2 -1.0404 -4.3253 6.8061 22
492 2 -3.79204 -4.50362 8.55856 24
493 2 -2.25723 -1.89318 8.53309 24
494 2 -4.96636 -1.4539 9.94948 23
495 2 -1.29505 -4.09981 10.1813 22
496 2 -3.97137 -4.00195 11.63 22
497 2 -2.23896 -1.36924 11.8351 23
498 2 -4.77644 -0.677319 13.5277 21
499 2 -1.31729 -3.9948 13.5468 21
500 2 -4.03531 -3.42549 15.3851 20
501 2 -2.03759 -1.43495 15.3999 18
502 1 -12.6976 1.90778 -11.991 12
503 1 -12.6635 4.89365 -10.7548 12
504 1 -15.1811 3.81767 -8.93609 11
505 1 -13.2395 1.16252 -8.73641 16
506 1 -16.0583 0.91916 -7.34925 12
507 1 -12.2963 4.85298 -7.4624 20
508 1 -15.2354 4.04389 -5.62802 17
509 1 -12.9902 1.79557 -5.824 19
510 1 -15.165 0.803896 -4.19098 21
511 1 -12.4039 4.5583 -4.12429 22
512 1 -15.2624 3.63432 -2.15403 17
513 1 -13.0574 1.68366 -2.21425 20
514 1 -12.278 7.60591 -8.9995 14
515 1 -15.543 7.01107 -7.00134 13
516 1 -13.6848 9.79383 -7.28302 10
517 1 -12.5661 7.31991 -5.51945 20
518 1 -15.5085 6.50116 -4.01081 14
519 1 -12.1247 9.81412 -4.07146 13
520 1 -15.2708 9.58913 0.998103 9
521 1 -12.8686 7.01946 -2.17716 20
522 1 -6.65483 3.827 -16.4221 12
523 1 -9.84646 4.24404 -15.3755 9
524 1 -7.71622 0.928475 -15.4772 16
525 1 -9.86052 1.30482 -13.5162 20
526 1 -7.75344 5.36315 -13.4042 17
527 1 -10.0991 3.76302 -11.8925 20
528 1 -7.31475 2.00332 -12.1565 19
529 1 -10.0868 1.04006 -10.2136 22
530 1 -7.23177 4.82978 -10.427 20
531 1 -9.11796 3.82992 -8.51573 19
532 1 -7.3527 1.64121 -8.7222 21
533 1 -10.3266 0.978379 -7.1444 21
534 1 -6.32154 4.50991 -6.82781 20
535 1 -9.07789 3.79688 -5.4441 19
536 1 -7.42961 1.43756 -5.38141 22
537 1 -10.4784 0.989264 -3.93808 20
538 1 -6.5931 4.69429 -3.56063 21
539 1 -9.51119 3.83236 -1.98025 20
540 1 -7.50054 1.85363 -2.01582 20
541 1 -7.11776 7.82665 -11.6556 18
542 1 -5.89985 6.68828 -15.5962 11
543 1 -3.42955 12.6452 -13.2673 10
544 1 -10.4705 6.83907 -12.6267 13
545 1 -8.56012 9.97085 -11.7595 12
546 1 -9.78819 6.66994 -9.95928 22
547 1 -6.73038 10.7178 -9.25795 19
548 1 -9.85291 9.58162 -8.29901 20
549 1 -7.09405 7.69428 -8.46237 22
550 1 -9.87417 6.70698 -6.90157 21
551 1 -6.85655 10.6971 -6.70089 21
552 1 -9.03579 9.53656 -5.08344 20
553 1 -6.88253 7.65218 -5.42432 21
554 1 -10.0307 6.39867 -4.21901 19
555 1 -6.57033 10.6708 -3.43939 20
556 1 -9.29007 10.4539 -2.18482 18
557 1 -7.71956 7.5869 -1.85325 22
558 1 -9.45639 12.5538 -10.0469 10
559 1 -10.0715 12.2004 -6.94299 16
560 1 -6.62887 16.2819 -6.0433 11
561 1 -7.44287 13.6625 -4.90277 20
562 1 -9.9975 12.8117 -3.5085 13
563 1 -6.37703 13.5031 -8.26063 16
564 1 -13.2973 11.4681 4.80376 12
565 1 -7.51401 13.055 -1.77105 19
566 1 -4.62999 1.21829 -16.7496 15
567 1 -0.709629 4.46954 -16.6568 14
568 1 -3.59484 4.15054 -15.068 18
569 1 -1.64784 1.67382 -15.2301 18
570 1 -4.40883 1.11017 -13.6647 22
571 1 -1.42769 4.85332 -13.371 24
572 1 -4.10265 4.02969 -11.6082 19
573 1 -1.81502 1.88479 -11.9098 23
574 1 -4.47782 0.805189 -10.4212 23
575 1 -1.25871 4.78561 -10.0298 23
576 1 -3.67473 3.90537 -8.46135 18
577 1 -1.8201 1.54052 -8.54466 20
578 1 -4.57806 1.31499 -6.83429 22
579 1 -0.844016 4.66114 -6.79494 19
580 1 -3.51402 3.97387 -5.38369 21
581 1 -1.52765 1.75883 -5.00324 22
582 1 -4.71422 1.26866 -3.78467 21
583 1 -0.864504 4.49326 -3.25307 20
584 1 -3.97435 3.78389 -1.81993 18
585 1 -1.88884 1.93188 -1.90319 24
586 1 -3.60243 6.72361 -17.1419 8
587 1 -3.67463 9.16731 -14.5954 14
588 1 -1.00306 7.72625 -15.5678 17
589 1 -3.924 6.69521 -13.0583 20
590 1 -0.812706 10.3088 -13.3289 18
591 1 -4.64796 9.83689 -11.7636 17
592 1 -1.81893 7.81025 -11.7992 24
593 1 -4.35602 6.99482 -10.142 23
594 1 -1.58031 10.5343 -10.0073 23
595 1 -4.0994 9.66096 -8.39064 21
596 1 -1.65242 7.60024 -8.51077 25
597 1 -4.35081 6.61715 -6.95262 21
598 1 -1.56738 10.61 -6.77701 20
599 1 -3.74327 9.3395 -4.92592 19
600 1 -1.70637 7.39586 -5.23316 21
601 1 -4.58709 6.72121 -3.53837 22
602 1 -1.19035 10.3279 -3.44324 18
603 1 -3.89512 9.61424 -1.6081 19
604 1 -1.65561 7.16874 -1.92648 21
605 1 -0.951728 13.4717 -11.3083 12
606 1 -3.4187 12.5846 -9.74218 17
607 1 -3.77263 15.1134 -7.56201 13
608 1 -1.12237 13.5001 -7.98613 19
609 1 -4.26011 12.3271 -6.34815 22
610 1 -1.2928 16.4125 -6.01253 13
611 1 -3.45982 15.5352 -4.22889 16
612 1 -1.36812 13.1297 -4.81615 20
613 1 -4.58961 12.8106 -3.51042 21
614 1 -0.771293 16.5883 -2.6032 11
615 1 -3.4789 15.1071 -1.31594 18
616 1 -1.93085 12.6118 -1.65926 20
617 2 -12.1076 1.04399 -13.4313 12
618 2 -12.0134 3.73283 -11.9648 13
619 2 -12.2515 0.994749 -10.3666 18
620 2 -15.0066 1.8568 -8.71783 12
621 2 -13.3867 4.6359 -8.90838 14
622 2 -15.6313 5.00689 -7.20757 12
623 2 -12.4228 0.514656 -7.06649 22
624 2 -15.2936 1.93396 -5.75266 17
625 2 -13.2046 3.91842 -5.73587 20
626 2 -15.5331 4.52358 -3.68064 16
627 2 -12.9387 0.859898 -4.14448 20
628 2 -15.0207 1.54746 -2.34845 16
629 2 -13.2262 3.66789 -2.62346 22
630 2 -11.5488 6.43852 -10.9826 13
631 2 -14.2277 7.97843 -8.13053 11
632 2 -11.6894 9.35088 -8.05804 14
633 2 -14.6254 7.27486 -5.22189 16
634 2 -11.7789 6.70728 -7.29384 21
635 2 -12.0198 6.37687 -3.69128 21
636 2 -14.9884 7.03164 -2.13527 13
637 2 -15.1302 7.37101 1.03522 17
638 2 -13.2183 9.85821 -5.51766 10
639 2 -6.50155 1.92186 -16.5316 13
640 2 -8.94618 2.53262 -14.7256 15
641 2 -8.01816 4.88407 -15.8116 10
642 2 -9.82883 5.17245 -13.6195 15
643 2 -6.37948 1.0332 -13.5969 19
644 2 -9.57686 1.94733 -11.6335 21
645 2 -7.26937 3.84194 -11.9512 19
646 2 -9.40094 4.84203 -10.1691 21
647 2 -6.462 0.948473 -10.4899 20
648 2 -9.2691 1.66911 -8.55562 19
649 2 -7.01148 3.78599 -8.37151 20
650 2 -9.93436 4.74446 -6.81741 20
651 2 -6.44287 1.02443 -7.10083 20
652 2 -9.40649 1.52925 -5.33814 22
653 2 -7.14876 3.83455 -5.21421 22
654 2 -10.2417 4.25087 -3.80195 20
655 2 -6.71665 1.06887 -3.56813 22
656 2 -9.31636 1.78532 -2.29788 18
657 2 -6.87833 3.82372 -1.98241 21
658 2 -6.77676 7.02931 -13.602 18
659 2 -9.13559 8.1217 -11.979 13
660 2 -6.73805 9.69333 -11.1534 16
661 2 -9.45556 10.5549 -10.0958 14
662 2 -6.51975 6.49778 -10.1972 22
663 2 -9.17095 7.59167 -8.50192 22
664 2 -6.0283 9.58424 -7.95532 22
665 2 -8.78355 10.3807 -6.85079 20
666 2 -6.29058 6.64949 -7.05414 20
667 2 -9.01425 7.71121 -5.34303 22
668 2 -6.74022 9.49923 -4.92357 21
669 2 -10.0862 10.721 -3.86271 15
670 2 -6.69392 6.88952 -3.58996 19
671 2 -9.46327 6.83265 -2.15079 19
672 2 -7.64138 9.58359 -1.71171 21
673 2 -7.69777 12.2682 -9.03756 16
674 2 -9.90165 13.4091 -8.44193 10
675 2 -6.1562 12.6968 -6.36002 21
676 2 -9.53674 13.3586 -5.41082 14
677 2 -7.44828 14.9271 -7.20598 13
678 2 -6.40134 12.6741 -3.49732 21
679 2 -9.36329 12.5367 -1.75519 14
680 2 -6.93542 14.6631 -1.20495 17
681 2 -4.99941 5.01544 -15.9162 14
682 2 -0.276264 0.878004 -16.3892 17
683 2 -3.5995 2.25448 -15.114 19
684 2 -1.29284 3.49298 -15.0293 17
685 2 -3.36391 4.90441 -13.3009 20
686 2 -1.01966 0.976523 -13.5494 21
687 2 -3.85622 1.98075 -11.9744 19
688 2 -0.925996 3.71697 -11.7471 22
689 2 -3.23282 5.08193 -10.165 20
690 2 -1.2582 0.829709 -10.3614 21
691 2 -3.87666 1.72916 -8.65761 22
692 2 -1.82121 3.79954 -8.0554 22
693 2 -4.26625 4.76088 -6.93617 20
694 2 -0.916241 0.951772 -6.663 21
695 2 -3.48747 1.61936 -5.29626 23
696 2 -1.61558 3.74395 -5.21658 20
697 2 -4.63494 4.28249 -3.60879 20
698 2 -0.644286 0.940526 -3.49823 22
699 2 -3.8536 1.56133 -2.17386 21
700 2 -2.1543 4.02781 -2.02607 21
701 2 -1.98275 5.99167 -16.527 13
702 2 -4.29803 7.68427 -15.3614 13
703 2 -1.77854 9.37947 -14.7491 16
704 2 -4.17057 10.4677 -13.4217 13
705 2 -0.900936 6.70428 -13.2455 21
706 2 -3.95422 8.1441 -11.7197 22
707 2 -0.867117 9.46908 -11.3738 20
708 2 -3.61724 10.6472 -9.94889 21
709 2 -0.955865 6.9843 -10.2593 22
710 2 -3.61509 7.5843 -8.61842 22
711 2 -0.850713 9.84274 -8.2738 23
712 2 -3.7235 10.4022 -6.68779 23
713 2 -0.937491 6.78085 -6.82317 21
714 2 -3.63872 7.34681 -5.09535 20
715 2 -1.64911 9.36281 -5.04099 19
716 2 -4.44835 10.4396 -3.16916 20
717 2 -0.784001 6.45333 -3.58532 22
718 2 -3.92379 7.50327 -1.89279 19
719 2 -1.57535 9.30174 -1.53901 20
720 2 -1.44981 12.1859 -13.0973 14
721 2 -3.16143 13.6237 -11.5794 9
722 2 -1.22378 12.4713 -9.61059 19
723 2 -4.34198 13.5238 -8.21523 17
724 2 -1.97414 15.0201 -6.942 16
725 2 -4.72092 15.8182 -5.93195 17
726 2 -0.837995 12.1474 -6.18381 20
727 2 -3.30547 13.4653 -4.75567 22
728 2 -1.75217 16.4786 -4.08602 13
729 2 -4.79195 15.2991 0.426377 16
730 2 -0.628817 12.3682 -3.23729 20
731 2 -3.69624 13.0311 -1.59894 21
732 2 1.12431 15.8632 -2.93522 16
733 1 -15.6237 0.91776 -0.641859 17
734 1 -12.2749 4.2528 -0.707665 20
735 1 -14.814 3.71664 1.21546 18
736 1 -13.2941 1.15542 1.04084 21
737 1 -16.1409 1.16886 2.67047 16
738 1 -12.3287 3.56038 2.97783 23
739 1 -15.1228 3.89726 4.57201 19
740 1 -13.6644 1.43086 4.69477 21
741 1 -16.6303 1.2806 6.13318 13
742 1 -12.3534 4.56092 6.51843 23
743 1 -15.4947 3.98847 8.00756 13
744 1 -13.8361 1.78235 7.80445 20
745 1 -12.5031 3.68728 9.79759 19
746 1 -12.8581 3.65733 13.1211 11
747 1 -15.9199 6.68403 -0.498168 13
748 1 -11.9938 9.54552 -0.453259 15
749 1 -15.0377 9.14563 4.53064 14
750 1 -13.1126 6.53506 1.0303 23
751 1 -15.98 6.95664 2.89279 13
752 1 -12.383 9.05614 2.61049 22
753 1 -13.0968 6.76972 4.54725 23
754 1 -15.9617 6.50661 6.47144 12
755 1 -12.8942 9.13446 6.34449 14
756 1 -13.5297 6.31093 8.47018 16
757 1 -10.2712 1.28793 -0.578973 18
758 1 -6.95337 4.45739 -0.197748 21
759 1 -9.51583 3.58164 1.47538 21
760 1 -7.57126 1.63956 1.67121 20
761 1 -10.7009 1.25073 2.8075 21
762 1 -6.41708 4.49153 3.40173 21
763 1 -9.54176 3.73248 4.96067 21
764 1 -7.43158 1.60109 4.92517 21
765 1 -10.8182 1.09462 6.32048 23
766 1 -7.06293 4.49957 6.24921 22
767 1 -9.71845 4.03675 8.23208 21
768 1 -7.79897 1.88507 8.03 25
769 1 -10.4853 1.64943 9.82558 21
770 1 -6.63556 4.55321 10.0507 21
771 1 -9.51696 4.29362 11.8835 23
772 1 -7.62439 1.5903 11.5102 23
773 1 -10.3498 1.5081 13.2896 19
774 1 -6.71795 3.70852 13.6827 22
775 1 -9.93162 3.85036 15.0744 15
776 1 -7.42581 1.36822 14.9727 21
777 1 -9.96657 6.2549 -0.368968 21
778 1 -6.89911 9.90522 0.0141752 22
779 1 -9.37904 9.17726 1.66342 23
780 1 -7.36438 7.05636 1.3889 19
781 1 -10.3805 6.49276 2.70408 21
782 1 -6.63801 9.96057 3.16178 22
783 1 -9.73588 9.49306 4.74613 20
784 1 -7.80852 7.4341 4.57659 21
785 1 -10.1961 6.51642 6.36377 22
786 1 -7.11917 9.82814 6.57547 21
787 1 -9.90563 9.22986 8.28649 20
788 1 -7.62161 6.88627 8.23278 21
789 1 -10.6526 6.79939 9.97387 20
790 1 -6.82446 9.51779 9.93447 19
791 1 -9.58905 9.02455 12.1031 13
792 1 -7.65492 6.9151 11.5812 22
793 1 -10.8086 6.70949 13.1275 12
794 1 -6.38752 9.14101 12.8473 16
795 1 -8.21891 6.65859 14.4662 17
796 1 -9.86909 12.3571 0.115512 16
797 1 -6.64695 15.3857 0.555735 13
798 1 -11.9774 13.5197 2.03155 7
799 1 -7.42753 13.0109 1.98518 20
800 1 -10.3812 11.8052 3.65834 18
801 1 -6.24518 14.9717 3.88322 13
802 1 -7.67328 12.6044 5.79314 16
803 1 -10.4489 12.1794 6.50666 14
804 1 -7.79586 12.124 8.83567 14
805 1 -10.7742 11.4132 10.021 7
806 1 -4.92665 1.25141 -0.320811 21
807 1 -1.0733 4.65683 -0.277784 21
808 1 -3.81603 4.46885 1.56512 22
809 1 -1.95995 1.92126 1.46984 22
810 1 -4.35959 1.8099 3.12973 23
811 1 -0.912423 4.45541 2.99 21
812 1 -3.85962 4.33688 4.97304 20
813 1 -1.82325 1.751 5.12244 21
814 1 -4.72717 1.87367 6.48881 25
815 1 -1.09856 4.42055 6.51038 20
816 1 -4.00356 4.34776 8.27263 21
817 1 -2.01742 1.75032 8.58478 23
818 1 -4.78347 1.79931 9.91314 21
819 1 -1.04246 4.51064 10.0508 23
820 1 -4.23132 4.02899 11.6688 21
821 1 -1.86618 1.83186 11.6511 22
822 1 -4.55262 1.32031 13.6764 22
823 1 -0.609887 4.28647 13.2689 23
824 1 -3.63365 4.1808 15.0239 21
825 1 -1.78743 1.76825 15.4018 18
826 1 -4.74791 7.17946 -0.220515 20
827 1 -1.08057 10.0521 0.0571251 22
828 1 -4.22109 10.226 1.77211 23
829 1 -1.78559 7.38619 1.23218 21
830 1 -4.4508 7.07466 3.19303 22
831 1 -1.30946 9.9874 3.32708 21
832 1 -4.19785 10.1105 5.19724 22
833 1 -1.93904 7.28816 4.97859 24
834 1 -4.92968 7.37973 6.51363 23
835 1 -1.07065 9.98627 6.77645 20
836 1 -4.17281 9.2001 8.61772 16
837 1 -1.88915 7.16663 8.41043 23
838 1 -4.58747 6.84963 10.1801 22
839 1 -0.955938 9.80498 10.1213 22
840 1 -3.67002 9.73214 11.739 20
841 1 -1.94915 6.78193 11.7373 23
842 1 -4.84206 6.49359 13.5883 21
843 1 -0.85469 9.78039 13.5053 18
844 1 -3.62727 8.94926 15.2315 12
845 1 -0.857523 6.77596 15.1952 18
846 1 -4.66018 12.4968 -0.014899 22
847 1 -0.707764 14.8232 0.285592 17
848 1 -3.36343 15.5421 1.78624 15
849 1 -2.01739 12.763 1.82048 22
850 1 -4.67912 12.7085 3.42917 21
851 1 -0.780386 15.1269 3.44688 15
852 1 -3.3923 15.626 5.05142 15
853 1 -1.56361 12.6273 5.07092 22
854 1 -5.07653 13.1704 6.7399 20
855 1 -0.70641 15.2866 6.91727 13
856 1 -3.47933 15.1794 8.70319 8