ITEM: TIMESTEP
393000
ITEM: NUMBER OF ATOMS
2000
ITEM: BOX BOUNDS pp pp pp
-30.0 30.0
-30.0 30.0
-30.0 30.0
ITEM: ATOMS id type x y z Coordination
1 1 -10.1266 -10.4926 -11.4775 11
2 1 -17.2873 1.98409 -4.23466 14
3 1 -2.80253 -5.67619 11.0901 16
4 2 -5.59305 -4.42618 -10.2582 18
5 2 3.64028 6.88705 -5.50853 19
6 2 -4.69961 12.794 7.77709 18
7 1 -1.26074 -13.7779 -1.1791 18
8 1 -3.29358 -11.6871 3.81379 17
9 1 7.57891 -9.49361 -2.19249 18
10 2 -11.6323 -7.93311 3.00044 20
11 2 -3.21535 -15.0304 10.024 10
12 2 -4.62835 -12.3008 8.21878 16
13 2 6.72029 3.0245 -16.3501 9
14 1 -8.73227 -2.25141 -16.4655 8
15 1 -13.1408 -3.40213 1.04909 18
16 2 -7.83494 -6.69256 -14.6727 14
17 1 8.72138 -14.6665 12.4866 5
18 1 5.02435 6.41349 -11.0027 15
19 1 -4.8409 -17.5597 5.11118 12
20 1 -7.65519 -11.6279 -12.0423 15
21 1 -9.81921 -4.84489 -7.69843 19
22 1 -1.71873 -17.2631 -6.18091 10
23 1 -10.8607 -14.6655 -1.03627 14
24 1 -16.0733 -8.63756 -5.2216 11
25 1 5.21409 -10.7079 -0.238324 15
26 1 -10.9196 -11.0024 6.60616 14
27 1 -1.2133 -4.54363 -3.85038 20
28 1 -3.33404 5.46766 1.91051 18
29 1 -10.3032 7.45425 -7.74375 22
30 1 -11.6603 -5.57834 9.32745 11
31 1 0.750939 -9.66593 -14.0084 21
32 1 -10.5977 1.26539 -7.14299 14
33 1 -12.7348 -12.2665 -9.63408 7
34 1 -17.6048 -1.11096 -2.8558 12
35 1 -4.95078 -9.07899 -11.5966 15
36 1 -14.0581 6.62112 8.17054 14
37 1 -16.2431 2.67121 -7.83651 12
38 1 -8.50206 -16.6847 -3.83702 9
39 1 -15.6526 -12.2004 -5.89114 8
40 1 -2.88907 -16.2652 -0.0188417 14
41 1 1.19746 -12.8078 -15.1324 13
42 1 -8.52354 -11.9626 4.72986 14
43 1 3.89668 -11.5757 -17.3426 7
44 1 5.73123 -6.21869 -16.931 9
45 1 -10.2708 -9.1783 4.46871 18
46 1 -5.53788 -15.4211 -1.54207 15
47 1 -8.78623 -1.8428 -0.491137 18
48 1 -6.89482 -10.3811 -9.2569 19
49 1 2.00058 -3.55882 -15.1005 12
50 1 -2.02072 -10.4029 -8.54868 20
51 1 -14.6224 -7.36937 7.42747 12
52 1 -1.76688 -10.391 -5.69173 20
53 1 -4.04098 -14.3525 -6.74083 17
54 1 -9.07409 -6.46853 -10.7268 17
55 1 -12.1726 -4.19093 -1.84912 22
56 1 -11.1409 -1.29825 -2.32087 15
57 1 -14.4908 -4.94164 4.69604 14
58 1 -2.83769 1.07253 -17.5299 10
59 1 1.78577 -3.89861 -2.28503 15
60 1 -6.43401 -2.12285 3.18328 19
61 1 -3.16992 -3.99897 -1.76067 19
62 1 -12.7671 2.58347 -8.8338 20
63 1 -1.43261 10.0169 -5.76878 20
64 1 5.36945 -16.5912 -7.26885 13
65 1 -15.8574 5.43005 6.0118 15
66 1 -17.0039 -5.48158 -3.8118 13
67 1 -5.98546 5.17955 -11.7848 19
68 1 -13.0874 -4.9253 -7.55431 15
69 1 11.0776 6.28498 -10.1352 13
70 1 1.89669 9.47377 4.092 17
71 1 -10.3006 -10.5136 -7.18829 18
72 1 -13.8956 -8.73757 -7.53069 13
73 1 -15.0171 -9.93105 -2.08867 14
74 1 -16.0178 -7.0107 -1.06619 16
75 1 -9.40711 5.04542 -8.79878 17
76 1 -8.18417 -12.2414 11.1935 9
77 1 0.903354 -10.7246 -7.50142 18
78 1 -4.80314 2.46793 2.5215 17
79 1 3.10597 -16.6059 3.10055 16
80 1 -16.2179 5.78184 -6.85364 13
81 1 5.72666 -0.478332 -4.48975 15
82 1 -8.79145 -4.95081 -15.2672 12
83 1 0.79109 4.19143 -13.2378 12
84 1 10.4107 -6.55443 -11.3377 11
85 1 -10.7739 -8.29723 1.21813 22
86 1 7.96307 -11.2842 -7.7639 20
87 1 -8.08191 -8.47687 -13.0965 16
88 1 -12.3923 3.97966 -13.338 11
89 1 -3.1276 4.44086 -15.9766 9
90 1 5.33326 -7.80178 -1.31411 14
91 1 1.22774 -13.1039 0.347488 17
92 1 -7.654 -17.4275 6.47371 10
93 1 9.36069 -15.5044 2.32847 10
94 1 -7.46463 -0.616124 -8.11401 18
95 1 1.4901 3.32987 -9.42706 16
96 1 -1.32328 -7.0069 -10.4476 17
97 1 -5.3734 -5.99937 -6.83668 18
98 1 -0.676384 -8.19018 -16.5948 14
99 1 7.87599 -17.9981 -5.19178 8
100 1 -10.357 -5.14439 -17.7386 5
101 1 -14.6229 -15.3617 -4.9062 10
102 1 -1.08541 4.58394 -7.01969 18
103 1 -11.2203 -1.89197 -10.7461 13
104 1 4.13323 -7.11526 -10.4473 19
105 1 -0.471425 -3.86115 0.715655 20
106 1 -5.16288 -6.45985 -10.3592 18
107 1 1.57715 -10.6032 -17.5266 10
108 1 6.28824 -7.34735 7.36946 17
109 1 -2.31512 -1.67329 -12.3669 15
110 1 6.71661 -6.15969 -11.2623 21
111 1 -15.6415 10.3469 -3.59217 13
112 1 2.04395 -13.8044 -8.89399 19
113 1 -2.94031 0.889671 -10.0246 15
114 1 16.9457 -0.246475 -5.02946 7
115 1 -2.68053 -3.84016 -10.1769 15
116 1 -4.29945 -8.77555 -8.37934 15
117 1 12.0933 5.20063 2.01444 19
118 1 12.3883 -8.08512 -5.99294 11
119 1 -4.00331 -0.193163 -15.005 16
120 1 -12.1622 5.3822 -1.95899 17
121 1 0.661981 -5.43028 -17.5413 7
122 1 -8.68556 11.0754 2.18409 17
123 1 -9.17326 -2.753 -3.93123 21
124 1 12.9059 -2.10105 2.67775 17
125 1 8.47479 1.57532 -4.52547 22
126 1 -9.77309 -9.75987 -4.21666 20
127 1 4.55468 -8.18182 4.89647 19
128 1 -7.42623 2.52583 -5.70979 20
129 1 -10.1701 -4.93925 0.707848 20
130 1 -5.6845 -0.531756 0.668468 21
131 1 -14.6098 13.1528 -5.44351 10
132 1 -12.0405 -12.9312 -6.32287 17
133 2 -1.62953 0.300356 -11.5003 14
134 2 -8.64359 4.26167 0.502003 20
135 2 4.13155 -16.2324 -4.95201 13
136 2 -2.70377 -3.13155 -8.37512 18
137 2 -14.1055 -1.74352 -5.03741 14
138 2 -0.854383 -4.06792 7.42409 15
139 2 -9.21644 -10.4175 5.81202 13
140 2 -6.75649 -14.753 3.24876 13
141 2 -15.2318 -2.74287 0.980826 16
142 2 -15.5219 -7.94443 -7.03447 8
143 2 -8.28807 -8.00816 10.2864 15
144 2 -10.6627 6.58513 -0.329264 19
145 2 -8.46823 -3.10264 -14.5814 14
146 2 -10.7339 -14.2593 7.85069 9
147 2 -11.5771 -11.9499 -7.92009 14
148 2 -4.60675 6.40759 -6.94548 17
149 2 -17.6644 3.09461 2.66126 8
150 2 -6.83262 -12.0941 0.223485 18
151 2 8.76156 -2.38518 14.4784 12
152 2 -4.6191 -12.3391 2.4591 20
153 2 -9.87272 -5.19918 4.94029 18
154 2 -7.39933 -6.70293 -6.60431 19
155 2 -10.3107 -9.29236 -2.37605 19
156 2 -1.18026 -2.98555 -11.2109 16
157 2 -4.73537 11.2654 5.09099 16
158 2 -8.12957 -5.23102 -12.0827 18
159 2 -2.62507 -15.5064 -6.71386 13
160 2 -0.096261 -3.42077 14.3107 13
161 2 -8.40907 1.88344 -14.5602 10
162 2 -10.0673 -8.44638 -7.83901 19
163 2 -14.022 -15.5503 -3.37303 11
164 2 -15.3731 -10.3328 -5.30463 11
165 2 -7.42396 -9.54535 -1.28753 18
166 2 -8.89251 -3.30921 -6.73821 18
167 2 7.01205 -0.816371 10.844 18
168 2 -13.4302 -13.4419 -1.64789 14
169 2 -4.88809 -7.15782 -16.1744 12
170 2 -1.13258 -11.6731 -7.19774 18
171 2 -0.710799 -8.91165 -5.36336 17
172 2 -5.30679 -6.18856 -3.38451 20
173 2 -8.87091 1.81161 -2.20539 19
174 2 -11.5148 -16.255 -1.2439 10
175 2 -7.58399 -15.8869 5.53416 9
176 2 -6.38648 3.30737 -12.81 15
177 2 -15.4032 -8.32148 -0.099994 14
178 2 3.43102 10.735 -5.3144 16
179 2 -2.07251 -11.9208 -2.17366 20
180 2 -15.3337 -0.970402 -11.302 7
181 2 -7.34499 10.5252 6.07332 17
182 2 -3.26064 -6.27584 -14.4991 16
183 2 8.12419 15.8874 -2.96823 13
184 2 -7.82848 -4.07761 -4.35204 21
185 2 -3.57475 5.82356 -10.9839 14
186 2 -8.15086 -11.0512 -7.88457 14
187 2 -9.77023 -13.4515 4.14826 15
188 2 -7.0651 4.60547 3.66669 17
189 2 -7.08343 6.4442 -5.46174 18
190 2 -8.25234 -16.6752 8.43387 9
191 2 -8.81251 8.64463 -12.6722 11
192 2 -8.96275 14.7451 -3.77459 15
193 2 -5.81767 -0.42107 -14.9833 16
194 2 -4.34973 -14.1886 -4.36884 17
195 2 -11.5947 1.93985 0.749315 17
196 2 -6.44684 -11.6878 11.1916 12
197 2 -3.97079 -9.47615 0.437215 19
198 2 11.1507 -12.4195 0.569524 12
199 2 -8.37245 -11.2643 -10.4828 13
200 2 -6.86104 -9.23563 -16.1317 13
201 2 -7.28296 -12.5687 -4.06235 17
202 2 10.0754 -6.08632 -3.48854 19
203 2 -12.9471 -6.15293 8.07051 11
204 2 0.0422003 -13.4866 -11.9316 14
205 2 -5.07949 -11.9457 -2.04899 20
206 2 -7.73831 -0.881432 -16.8712 7
207 2 -12.0958 -4.91571 -0.036993 18
208 2 7.59007 -16.7643 -6.66517 12
209 2 6.74018 -5.77904 -7.46099 19
210 2 0.971299 -12.4444 -1.29803 13
211 2 -13.9182 3.55842 -12.1957 12
212 2 -13.5647 -12.0612 -5.25588 14
213 2 -5.54349 -7.39707 -12.096 17
214 2 -2.41279 5.61938 -14.5572 10
215 2 -8.38669 -10.1856 -13.4943 12
216 2 -5.15883 -0.610753 -3.26061 16
217 2 -6.1165 -18.2775 5.92308 9
218 2 0.911786 4.16106 -11.222 14
219 2 -15.7855 0.723325 -2.56478 15
220 2 -2.04853 8.19257 -13.6073 13
221 2 -8.00553 0.724018 -10.3304 16
222 2 -12.7986 -8.95398 -8.97518 12
223 2 -12.1076 9.24126 -1.36174 20
224 2 -11.7001 13.9787 1.43501 11
225 2 2.80581 1.01217 -6.15084 15
226 2 -4.61336 -12.8995 -8.85115 13
227 2 -17.113 1.91659 -6.22289 10
228 2 0.440059 5.89714 -13.7187 11
229 2 -0.217777 -10.2385 -16.2116 14
230 2 -17.7375 6.06197 -3.84606 9
231 2 0.151114 0.103147 -15.6154 12
232 2 4.95668 11.9076 -9.31922 19
233 2 -3.87967 -4.27785 -16.3429 10
234 2 4.79529 -13.2017 -17.2238 5
235 2 -3.17159 -8.84035 -2.74124 20
236 2 -7.35079 -2.30328 -12.0362 17
237 2 8.31653 -10.7713 0.858885 17
238 2 -1.10587 -13.7195 -4.71287 21
239 2 8.63631 5.18956 -3.62881 21
240 2 -12.5121 -1.17037 6.45506 14
241 2 -13.4157 -2.93433 -0.904385 18
242 2 -0.678368 -2.7921 -3.47494 22
243 2 10.2347 10.8067 -6.41635 19
244 2 -3.26153 4.03437 11.1404 21
245 2 3.20691 -15.6214 -11.6859 13
246 2 -2.25755 5.71522 -6.15955 17
247 2 10.7953 0.643956 3.55772 18
248 1 -15.4483 -1.05101 2.30018 15
249 1 5.41035 -3.73057 17.3573 8
250 1 -12.7589 -10.3815 -4.81776 18
251 1 -6.33184 -15.505 1.71922 12
252 1 -6.05427 -7.20719 7.75285 19
253 1 -16.1406 -10.4044 7.86015 7
254 1 -4.01529 -9.17101 15.2005 10
255 1 -14.1081 -6.48549 -3.34382 19
256 1 -15.7896 -7.13789 1.6619 15
257 1 -6.63941 -8.77609 9.9444 20
258 1 1.94205 7.60651 1.57893 16
259 1 -18.3176 -4.94746 -0.372629 10
260 1 -11.6425 2.28258 11.68 11
261 1 -14.8498 2.55843 -2.06755 14
262 1 -5.58297 -3.20008 -11.8049 17
263 1 -15.2609 -8.99988 5.05168 11
264 1 5.23619 -5.09183 3.87388 18
265 1 -9.17576 -6.47041 9.63203 17
266 1 -10.1086 -6.58944 3.55319 18
267 1 -0.816641 14.7944 12.3816 8
268 1 -5.07266 8.43094 2.08456 16
269 1 -9.12697 -10.0276 -0.831968 21
270 1 -13.0475 0.83654 8.90097 12
271 1 1.81505 -9.13357 4.96672 18
272 1 1.56992 -10.6223 14.3921 10
273 1 -0.953124 1.41904 0.906255 17
274 1 -7.99706 -9.55011 7.40604 15
275 1 -18.739 -1.76347 1.66539 10
276 1 10.0956 -1.14474 14.0868 11
277 1 -11.1807 -17.9785 -1.94206 6
278 1 -11.8739 -14.2359 6.44043 10
279 1 -1.60014 -4.66042 -7.52328 18
280 1 -6.08156 4.32938 -3.48006 20
281 1 1.76321 -5.0738 17.5448 8
282 1 -10.1376 -2.05164 2.69391 20
283 1 -0.227219 -14.2201 3.47308 18
284 1 -7.99575 -7.68264 -16.4082 12
285 1 -17.3302 0.159882 -0.670359 15
286 1 4.92857 -12.3555 9.0774 19
287 1 -8.67077 -14.6638 7.98087 10
288 1 -0.833118 -13.6226 -10.0766 17
289 1 -0.688487 -13.8621 7.41705 21
290 1 -4.37469 -11.8743 -10.288 15
291 1 -6.45259 -5.74026 3.15328 20
292 1 -4.03814 -2.74353 0.70358 20
293 1 -11.3408 4.73245 9.1325 16
294 1 -8.01217 -9.58163 2.56047 20
295 1 -10.5857 14.1475 -2.43323 14
296 1 -4.69457 -6.08112 0.24859 21
297 1 -6.06317 -12.0464 9.30743 14
298 1 8.8806 -3.31855 13.0114 12
299 1 7.79486 -6.99324 10.0256 15
300 1 -1.65426 8.96906 -10.4608 16
301 1 -7.51721 -7.62534 -2.40556 19
302 1 -6.48102 -0.224894 12.7279 17
303 1 -10.0347 10.3065 -12.7594 8
304 1 -11.7531 -4.87441 -10.3329 12
305 1 -16.5015 -3.71608 1.89269 15
306 1 0.101091 -2.69435 18.455 9
307 1 2.26606 -7.61123 15.6346 10
308 1 -9.59582 -2.63916 8.98399 17
309 1 4.38473 -11.0045 3.40196 19
310 1 -8.74899 -9.38597 11.718 15
311 1 -0.672245 -12.6921 12.262 10
312 1 -3.68493 -1.67968 7.19006 18
313 1 2.20072 0.0827098 18.156 12
314 1 3.49176 2.11423 16.4126 13
315 1 -1.68698 0.866005 15.0894 19
316 1 12.9675 8.43831 4.91018 20
317 1 18.833 4.90671 13.3697 11
318 1 -3.30873 -0.0563652 13.297 17
319 1 -13.222 -6.64314 0.0664133 22
320 1 -4.534 -10.4727 -6.26244 21
321 1 -0.916808 -8.53727 -2.98625 17
322 1 4.984 -8.2848 -4.17727 17
323 1 -7.04744 -3.90082 0.0890121 20
324 1 0.652842 -16.4211 -8.34424 11
325 1 -5.35202 -0.355149 -5.09458 18
326 1 3.6171 -11.1064 -9.43085 17
327 1 0.226554 -16.5552 -1.23617 16
328 1 -12.0222 -2.64979 10.7485 11
329 1 -8.26589 -18.1197 9.73947 5
330 1 1.49482 -17.9508 5.66871 10
331 1 -9.36084 -12.5599 -3.6405 19
332 1 -0.273303 -5.65673 14.609 14
333 1 -5.9355 -3.61943 12.1864 17
334 1 6.66512 -15.18 7.32238 14
335 1 11.8105 -7.13895 6.11921 14
336 1 -3.83435 -7.08766 -3.24788 17
337 1 1.38524 -15.0363 6.28614 18
338 1 0.0317565 -11.9569 5.51009 20
339 1 -1.16278 -7.08156 5.46533 18
340 1 -2.7942 -8.18922 -0.437209 17
341 1 0.0532251 0.100745 -9.59886 16
342 1 1.13064 -8.67502 -8.78365 19
343 1 -3.74787 -10.549 -2.79529 19
344 1 -7.55043 -14.5251 -5.0242 14
345 1 -6.23314 -4.7241 -3.69981 22
346 1 6.83376 -4.94946 12.6229 18
347 1 16.3175 -1.76435 11.617 10
348 1 -12.8902 -2.81855 7.5737 15
349 1 -4.275 -6.68516 4.85901 20
350 1 -13.3635 13.0921 1.4285 10
351 1 -13.2238 -10.6552 8.36554 9
352 1 -12.1754 -6.09825 6.19076 16
353 1 -8.21941 16.7036 4.23657 6
354 1 -2.2828 -17.0867 2.83639 11
355 1 -11.6795 -5.14038 -4.11795 14
356 1 -0.940299 11.0349 -0.772565 22
357 1 -4.73805 -8.43196 2.15852 22
358 1 5.5279 2.37488 1.72198 19
359 1 -7.30517 -4.04908 -9.38647 21
360 1 5.27419 -0.300881 18.497 8
361 1 -0.0806894 -7.18497 -5.86465 17
362 1 -10.1621 -1.17566 13.0327 12
363 1 -3.15085 -10.9091 1.53002 19
364 1 -3.74509 -13.1779 6.70124 16
365 1 -5.80634 -0.292636 5.37818 19
366 1 -4.75011 -12.8874 -0.366571 21
367 1 -14.3408 3.52414 8.39162 14
368 1 17.8189 2.29179 12.7787 15
369 1 -0.0251854 3.01885 16.4017 11
370 1 9.95357 8.60186 -13.6922 7
371 1 -5.03263 -10.2572 7.44518 18
372 1 -8.90082 0.457705 7.03004 15
373 1 8.16924 10.4118 11.7267 11
374 1 -5.29077 -10.7793 12.226 13
375 2 -3.94944 -16.0099 -1.61992 11
376 2 -16.2537 -1.56962 -1.51918 16
377 2 -18.8482 2.60587 -3.41874 10
378 2 -14.5938 -9.41291 7.75259 10
379 2 -17.0122 -5.65614 1.03205 12
380 2 -10.0853 -5.38581 8.0443 14
381 2 2.10841 1.45566 13.1348 19
382 2 -12.1812 -11.6389 2.43678 16
383 2 -8.02131 -7.68156 -4.25612 19
384 2 -3.55008 -16.8146 4.40088 13
385 2 -13.1303 -4.67315 -5.48981 16
386 2 -4.46227 0.8639 1.83737 20
387 2 -14.8754 -5.10319 -7.0628 11
388 2 -5.00522 6.799 11.529 16
389 2 -11.4462 -3.56452 2.14584 14
390 2 -8.76393 -11.8113 -1.92082 18
391 2 0.0326941 1.81511 14.6969 18
392 2 -13.6837 -4.05669 6.13243 14
393 2 -3.84004 1.93258 15.4493 16
394 2 -5.81423 -1.97076 6.14146 17
395 2 -0.637577 5.30598 8.49153 19
396 2 -1.9911 12.8429 13.4063 8
397 2 -4.47125 2.60857 7.32239 18
398 2 1.39464 9.51688 2.21358 17
399 2 -9.221 -15.584 -5.56687 11
400 2 -6.93978 -1.23754 -6.11985 19
401 2 6.68691 -5.74024 11.0262 15
402 2 -12.5775 4.69736 -5.08308 17
403 2 1.47924 -11.1127 4.2807 19
404 2 5.64289 -13.2747 -3.45159 12
405 2 0.468573 -9.97439 -2.55987 16
406 2 -3.11231 -9.90851 -7.27426 17
407 2 3.25132 -14.9157 9.25785 16
408 2 -15.0358 -8.07303 -2.79328 15
409 2 3.94883 -14.894 1.70168 20
410 2 -15.2529 -14.0197 -5.73281 8
411 2 -1.38749 -1.43558 18.1049 10
412 2 6.51987 9.59779 1.48303 21
413 2 -12.9377 -10.2461 -2.79369 17
414 2 2.19346 -17.5309 0.697962 13
415 2 -1.06668 -17.1685 1.09856 12
416 2 -4.23945 -1.12322 16.2151 13
417 2 -16.8382 -6.98159 -4.67076 11
418 2 -6.88773 -4.08547 3.8221 19
419 2 -15.9337 -3.85548 3.739 12
420 2 -10.8476 -6.38881 -10.244 13
421 2 5.94353 -2.81758 8.24037 16
422 2 -6.86332 -4.90427 6.66046 17
423 2 -5.43725 0.831885 10.8273 17
424 2 15.5541 9.03537 8.81971 17
425 2 -1.81646 -12.362 8.05073 18
426 2 2.5835 -10.4809 12.4984 20
427 2 -6.36307 -14.5593 0.00552408 15
428 2 -2.62447 2.45563 -0.374055 17
429 2 -3.41883 8.4877 -9.78679 16
430 2 -7.92155 -7.5543 7.02057 18
431 2 -5.72878 -10.9416 -7.57633 18
432 2 2.76688 0.860693 5.88346 17
433 2 -2.22972 -14.2619 3.40401 17
434 2 -14.6259 -5.84822 -1.48395 19
435 2 -5.94354 -9.46518 6.1959 19
436 2 -4.93869 -1.18868 13.1138 17
437 2 -5.14474 -2.6279 8.81087 15
438 2 -1.54964 -3.13186 2.52317 19
439 2 -16.2865 3.51359 -3.52493 12
440 2 -10.1342 3.51302 5.221 20
441 2 -2.91128 6.08053 13.8965 18
442 2 -6.88124 -2.01116 0.947462 19
443 2 1.38125 10.2667 8.89757 18
444 2 -9.58874 -11.118 10.8193 10
445 2 -1.21126 -11.8043 4.07701 21
446 2 -11.6575 -11.2623 8.24912 10
447 2 0.492092 -9.42605 9.61711 19
448 2 1.38515 -15.4688 3.13585 18
449 2 2.46138 -5.05543 5.24911 18
450 2 3.8927 -14.2667 12.1437 12
451 2 4.53129 -7.96667 0.815023 17
452 2 6.03975 -5.89871 -15.0781 12
453 2 8.37662 -13.1586 11.4093 10
454 2 4.04507 -4.22077 2.53556 17
455 2 -2.22806 -1.51349 12.6446 14
456 2 -1.24446 -16.7041 -4.526 12
457 2 -12.5163 -5.46781 4.50079 13
458 2 1.93285 -4.54169 11.665 18
459 2 -1.55427 1.80644 16.906 15
460 2 0.405983 -8.73631 12.139 17
461 2 -1.17449 -10.2875 1.36953 18
462 2 -0.985878 -6.5944 13.0666 16
463 2 -10.7267 -13.9358 -2.86544 20
464 2 -2.68311 -2.74755 5.18944 19
465 2 -3.88983 -6.46647 12.9973 17
466 2 9.68179 11.7113 1.39575 20
467 2 -3.92246 11.2106 -1.76804 17
468 2 -9.58514 -2.54746 4.42873 14
469 2 -5.27646 3.74345 13.5245 15
470 2 -3.35794 -9.7061 3.22103 16
471 2 13.2853 4.56971 14.6151 9
472 2 -0.960621 -2.91203 -6.65583 20
473 2 -4.14855 -9.42323 -13.6652 16
474 2 -5.13182 -8.95734 11.3817 18
475 2 2.16031 -9.45837 6.90363 19
476 2 13.346 -2.18096 11.4727 9
477 2 10.1575 0.961755 14.0863 14
478 2 -12.2405 7.57432 9.34888 16
479 2 -0.0401759 -5.21656 5.38345 19
480 2 -1.58531 6.92632 4.81702 16
481 2 1.21301 -3.35801 16.8482 13
482 2 3.3705 1.91247 0.980034 19
483 2 1.38167 -5.39032 2.43497 18
484 2 -11.9954 9.10937 6.88013 13
485 2 -1.88293 -0.267207 0.93749 20
486 2 1.51046 -2.05826 8.95699 18
487 2 2.58712 -7.05067 -13.5954 18
488 2 -4.31291 -6.67154 6.76472 19
489 2 9.81639 1.46144 -16.4883 7
490 2 -12.9389 -0.592988 -2.60296 15
491 2 0.425553 0.751652 8.50021 19
492 2 -6.5559 -10.1869 8.81931 19
493 2 5.47909 10.7973 8.05349 21
494 2 12.2873 -0.974789 13.9932 12
495 2 3.20301 -7.23718 11.2869 19
496 2 -6.52287 9.34005 3.471 15
497 2 14.6271 2.77714 9.70409 16
498 2 6.78597 -1.03076 17.6883 7
499 2 12.5099 9.81226 8.67627 13
500 2 -3.83792 0.119605 7.49752 20
501 2 -10.0134 0.41632 5.55191 17
502 1 -7.17684 2.84624 -11.0894 18
503 1 6.01786 -1.83578 -17.3697 8
504 1 -10.0785 3.15272 1.18987 20
505 1 0.516745 7.79911 -7.86968 17
506 1 -16.6922 -0.0685921 -6.47224 10
507 1 -15.0972 -3.90334 -1.41458 19
508 1 -8.65967 6.58702 -4.45621 22
509 1 5.29042 12.22 -14.4388 13
510 1 -8.82664 -4.90933 -1.901 22
511 1 -9.18174 1.46573 13.0657 14
512 1 -13.7314 3.70242 -5.99469 15
513 1 -8.30957 -7.46232 -8.13781 21
514 1 -7.1456 7.31899 -7.17713 20
515 1 -5.96906 1.23044 -2.72592 18
516 1 -6.89977 5.99132 6.75695 21
517 1 -15.9689 1.96164 7.04155 11
518 1 -10.6854 15.5664 2.19761 9
519 1 -13.4277 -7.18113 3.70956 18
520 1 0.258241 5.69005 10.3237 20
521 1 -13.3875 -0.84014 -7.80599 15
522 1 -11.2542 -7.63708 -9.13072 17
523 1 -5.30458 5.03084 -8.24983 18
524 1 7.62581 16.4042 -0.970208 12
525 1 3.59811 4.5768 -1.347 20
526 1 -13.6998 7.74249 0.991088 16
527 1 -3.29457 13.1361 -2.07969 14
528 1 -14.7121 -0.325794 -3.85322 13
529 1 -7.02353 9.84874 -4.52097 19
530 1 11.5033 2.35209 -15.6238 6
531 1 10.4943 -0.10249 1.40077 18
532 1 -12.3017 -1.24635 -4.83036 14
533 1 -7.92009 -13.367 -0.497248 19
534 1 -12.5755 15.7593 0.0167445 9
535 1 -15.473 5.45821 -3.4485 17
536 1 -8.76887 14.1264 -7.6168 13
537 1 -11.7204 -9.88205 -1.42399 20
538 1 -10.6335 10.8255 -8.80108 17
539 1 -14.6503 -9.47807 1.26162 16
540 1 -10.653 1.17242 3.40782 18
541 1 1.65485 5.09961 -7.01515 20
542 1 6.35155 -9.192 -9.03384 22
543 1 2.87052 12.1722 -3.80069 17
544 1 -14.996 10.6822 -0.112715 12
545 1 -3.93686 11.2627 -14.5148 6
546 1 -1.57126 16.2449 1.20085 16
547 1 -4.21826 6.71183 -9.48339 18
548 1 -7.77406 -7.02284 0.865092 22
549 1 -7.36247 15.6072 -3.38361 14
550 1 -12.2693 6.38292 10.7836 10
551 1 -10.5641 4.08416 -6.63302 18
552 1 6.26519 8.03502 -8.12729 20
553 1 -10.1571 -1.79681 -6.58697 16
554 1 -4.97329 12.0896 -11.7453 9
555 1 -1.15269 9.24822 11.2779 18
556 1 -5.39234 8.4806 9.61914 19
557 1 -14.6072 -1.34563 -0.535981 17
558 1 -10.9811 10.7628 5.95251 12
559 1 1.45153 9.34732 -2.70684 22
560 1 -13.1392 10.9353 -7.79145 11
561 1 -3.78649 3.0019 -5.83544 18
562 1 -15.3224 6.50382 -9.89469 10
563 1 3.07873 3.24012 -3.89628 23
564 1 -4.75152 5.1898 14.636 16
565 1 -13.8032 7.9665 -1.82898 17
566 1 3.50488 7.53232 -8.45375 16
567 1 1.27313 5.78035 -0.736903 20
568 1 -16.1915 4.55463 2.4106 11
569 1 -5.36473 -0.985515 -10.2901 16
570 1 -15.0349 0.398528 -10.1156 13
571 1 9.90601 15.4132 -5.64646 16
572 1 -14.2248 -2.46457 -10.6591 9
573 1 8.99978 11.3794 -14.3715 8
574 1 -1.47712 -6.49767 -13.8779 15
575 1 -7.25848 0.501182 -15.6843 11
576 1 15.5717 11.2189 -7.14854 7
577 1 3.11729 1.68155 -7.8598 21
578 1 8.81313 -5.26269 4.92691 17
579 1 9.87766 2.89692 -7.53735 15
580 1 5.60905 -4.83411 -8.54338 18
581 1 -4.41869 -9.70001 4.98595 19
582 1 -5.86661 -8.30772 -5.13249 21
583 1 6.7534 6.35921 10.1147 15
584 1 -0.904837 5.25055 5.18503 18
585 1 -6.62998 -2.16138 -14.1856 16
586 1 -9.68901 1.75305 -13.15 15
587 1 3.17461 14.2061 1.34773 16
588 1 3.81226 3.86425 -12.0574 14
589 1 7.41237 6.29344 4.35379 18
590 1 -9.08742 4.97575 -11.8327 19
591 1 -10.7465 7.80743 -2.45484 21
592 1 -7.95095 10.2749 -10.5122 16
593 1 -15.6478 13.3203 -1.58879 10
594 1 -4.02434 10.046 -8.63036 16
595 1 -14.8487 2.97014 -10.7252 12
596 1 -1.75127 4.10365 -0.986353 16
597 1 -8.99826 -3.53128 -12.6676 16
598 1 7.16629 2.96743 -7.99936 19
599 1 -3.31465 -3.26373 3.48724 16
600 1 -0.954408 -2.28035 -8.78729 20
601 1 4.72232 -2.40235 -1.60371 13
602 1 7.54546 13.8603 -7.02588 18
603 1 1.35945 14.9196 -9.92465 9
604 1 0.203417 3.84371 -3.51878 17
605 1 -5.28919 5.99398 -5.20724 16
606 1 13.0632 16.0399 -1.00036 13
607 1 -8.34524 13.6365 4.54913 12
608 1 -10.7394 9.62006 0.485754 17
609 1 4.15931 14.6136 -10.7612 12
610 1 -1.70866 16.2713 -4.7073 8
611 1 5.69398 5.62194 2.23008 15
612 1 -18.8133 1.78719 1.86644 6
613 1 -0.962903 8.01823 -1.41277 16
614 1 -5.73123 10.5903 -2.10603 17
615 1 -4.91236 12.8122 -8.39932 12
616 1 8.407 10.6139 -7.55118 19
617 2 -8.44968 3.92784 -10.1141 17
618 2 -0.702411 -6.73266 -12.174 16
619 2 -6.90972 -2.10056 -9.17586 16
620 2 -1.40556 -5.20353 -9.75731 15
621 2 11.7941 3.90802 -14.4716 7
622 2 -12.366 -6.30411 -2.70583 19
623 2 -9.466 -8.44998 -11.3555 14
624 2 -11.6542 -10.7891 4.88179 16
625 2 -16.6015 -0.695453 -4.67039 11
626 2 -14.8438 -9.35261 3.34126 14
627 2 -11.1704 8.01225 -9.4392 18
628 2 1.75386 -12.1362 -3.89395 13
629 2 -6.26546 -13.5008 -5.91026 15
630 2 3.03908 -2.66248 -2.16864 13
631 2 8.76712 16.5538 -10.2175 10
632 2 -4.61428 3.19007 -15.5222 12
633 2 -9.46344 8.45499 8.35007 17
634 2 -10.2616 -0.474329 -11.7605 13
635 2 -10.8001 3.8987 -1.77084 20
636 2 3.75575 9.30076 3.61956 18
637 2 -8.94919 -0.491827 14.2093 13
638 2 -0.1769 3.90748 3.79015 17
639 2 -11.1377 10.4821 -6.40334 17
640 2 -10.3263 9.44883 10.8565 11
641 2 4.26047 4.57384 -10.368 21
642 2 -9.20566 3.47808 -5.26832 17
643 2 2.66782 3.76874 -7.83791 21
644 2 -11.7442 6.83408 5.11571 20
645 2 -10.7766 9.5213 -3.40181 19
646 2 -3.77768 12.787 -6.74719 16
647 2 9.60526 0.117431 -11.3313 11
648 2 -7.95953 9.15541 -5.99424 18
649 2 -3.18766 9.31929 -6.34318 16
650 2 -11.5361 9.33329 -12.2176 9
651 2 -9.04501 2.44341 2.86288 18
652 2 -5.94504 7.92981 -11.9918 14
653 2 -0.0322267 8.1293 -10.3686 12
654 2 -15.2448 -0.098687 -7.45872 14
655 2 -11.7755 -0.682568 -6.69477 11
656 2 -15.1699 4.367 -6.99626 16
657 2 -13.5961 3.37517 -0.916534 15
658 2 -2.33963 9.06104 -2.5657 18
659 2 -17.3106 -1.88889 2.79092 10
660 2 -13.4132 12.2906 -6.42678 13
661 2 -1.44455 4.76018 -2.96956 15
662 2 -14.4358 3.24862 2.5679 17
663 2 -6.90474 -0.0874104 3.79801 21
664 2 -9.26686 13.0661 -1.23101 15
665 2 2.08529 11.3036 -7.79331 17
666 2 -15.1022 6.12104 -5.23662 16
667 2 -12.464 7.07291 -3.06729 20
668 2 -14.5956 1.53395 8.30691 10
669 2 -14.8101 -12.0639 8.24285 7
670 2 -8.704 -8.00544 3.74853 18
671 2 -6.04629 3.19983 -1.76973 17
672 2 8.36125 14.9108 0.116141 16
673 2 -14.3922 13.7483 0.11233 11
674 2 -5.0738 -3.91579 -6.3552 22
675 2 -4.31189 6.75912 2.72856 17
676 2 -15.0232 13.609 -3.51172 10
677 2 1.354 8.65283 5.8531 16
678 2 -4.64688 3.57373 -4.28916 16
679 2 -4.5807 -4.20135 -0.204438 18
680 2 -10.9084 16.5414 0.531782 7
681 2 5.97335 -9.2464 -5.46955 16
682 2 -3.85171 1.17897 -6.54877 19
683 2 -5.42661 10.7846 -7.58432 20
684 2 -11.0457 -11.9553 -10.8191 9
685 2 -9.01691 11.533 -11.5762 9
686 2 2.02675 1.46306 -9.44022 19
687 2 -8.99898 15.052 3.36793 10
688 2 6.27212 -3.52411 -0.702598 12
689 2 4.00089 -4.56422 -13.9072 20
690 2 -17.6466 -5.63887 -2.03652 12
691 2 -6.62137 3.52437 -7.08428 18
692 2 -1.3071 9.01704 0.161417 16
693 2 -10.3098 -5.73863 -5.77747 20
694 2 5.05026 -11.2303 1.63902 16
695 2 0.740821 -7.51224 5.45271 20
696 2 3.87982 2.71366 -1.73196 18
697 2 -1.71881 -3.7913 -0.568349 22
698 2 -4.4538 -1.97044 2.39034 21
699 2 4.24645 -7.13541 6.73576 21
700 2 -0.542198 16.0072 4.55387 16
701 2 -15.6272 -10.6234 5.91664 11
702 2 -6.64316 15.9948 -1.72904 9
703 2 -8.38986 6.84427 -8.28194 18
704 2 -5.26897 8.69594 -1.76541 18
705 2 9.56534 2.18093 -3.01963 20
706 2 -13.1464 7.85672 -6.63816 19
707 2 -3.60211 12.1945 -13.1245 7
708 2 -11.4407 -4.77559 -8.45417 17
709 2 1.15924 -1.64601 -9.30758 18
710 2 -4.45465 0.132221 -9.01031 14
711 2 -4.92279 16.0658 0.944744 10
712 2 -10.3077 5.64278 7.07559 22
713 2 2.53585 3.45769 3.00019 20
714 2 -8.89048 13.8468 -9.42301 11
715 2 -12.5198 10.3028 -9.3592 12
716 2 -9.20129 8.63955 -0.613261 17
717 2 2.56655 -1.69345 5.9797 18
718 2 6.44182 1.34383 -4.44937 19
719 2 9.72478 13.485 -2.20779 17
720 2 -8.80257 10.4332 -8.87917 18
721 2 -16.1685 6.74625 -8.48583 8
722 2 -1.03089 10.7652 -10.2134 12
723 2 -13.0993 0.960801 -10.4903 17
724 2 -7.76124 9.79261 -2.8138 16
725 2 4.1792 12.0179 -2.37724 19
726 2 -5.05079 11.9207 13.4463 12
727 2 -2.87501 17.1549 -3.39135 6
728 2 -8.21186 5.22486 -3.33908 17
729 2 -12.3106 14.0659 -4.98963 11
730 2 3.50387 6.26044 -2.39153 20
731 2 -9.50384 12.9265 -6.20515 16
732 2 0.531033 16.5394 7.59797 12
733 1 -8.63961 -5.6758 6.53832 15
734 1 -11.7015 -13.0041 3.93347 11
735 1 -8.47584 3.46837 4.27965 20
736 1 -16.315 -6.29365 -7.12726 9
737 1 -5.69304 8.35332 12.3849 15
738 1 -7.50099 13.1748 -0.643762 15
739 1 -5.73989 -2.02122 -2.20066 20
740 1 -11.0673 1.88197 6.23238 18
741 1 -16.5495 2.88428 4.41321 13
742 1 -0.872576 0.3798 17.9909 13
743 1 -7.75753 13.1715 9.67256 9
744 1 -8.43969 -3.73362 5.17319 15
745 1 6.14115 10.04 9.71581 20
746 1 -13.5227 7.8818 5.37732 16
747 1 -8.33632 -14.79 4.46042 10
748 1 -2.10038 13.1343 -5.49997 13
749 1 -3.40346 9.35586 -0.744241 18
750 1 -8.86256 -6.33444 12.858 11
751 1 -12.4922 5.52074 -10.7619 16
752 1 -2.73014 7.48207 -6.58505 17
753 1 -11.444 12.632 -6.23553 14
754 1 -0.932936 12.4604 -9.92737 10
755 1 20.3024 1.54551 13.9665 5
756 1 -6.00978 -4.32329 9.4522 15
757 1 -11.6736 6.24671 1.33377 20
758 1 -10.4008 13.1779 0.325816 15
759 1 -8.66812 7.89257 1.27005 17
760 1 4.95749 -19.7525 -3.94776 7
761 1 -11.1702 8.81613 3.80868 18
762 1 -0.113044 -1.21789 1.40651 20
763 1 -2.36708 9.72617 7.93828 17
764 1 -10.956 -1.41354 5.63287 17
765 1 -9.22415 4.02571 7.3521 16
766 1 -2.28527 -10.9189 7.35694 21
767 1 3.27019 -3.34845 5.015 19
768 1 -4.71296 14.2454 8.73522 11
769 1 -9.18234 -3.77488 11.8843 14
770 1 -5.90275 5.12491 9.4431 20
771 1 1.57013 0.896945 15.0686 21
772 1 9.14271 9.16476 4.70901 22
773 1 -12.9267 -10.5471 3.57417 17
774 1 3.07893 4.65446 11.5641 16
775 1 0.257186 -9.04088 6.96682 20
776 1 -6.37993 2.66762 14.6282 12
777 1 -12.8637 6.03915 -7.71463 22
778 1 -9.37071 10.6434 -1.95557 19
779 1 -3.57497 10.5049 10.208 14
780 1 0.285654 -2.40843 7.27879 21
781 1 -14.971 -12.148 5.05665 12
782 1 -11.9473 2.31846 -1.23849 15
783 1 -10.0792 15.4564 -5.14224 11
784 1 -6.69851 14.8736 -9.44142 8
785 1 -11.8091 4.19965 3.9178 18
786 1 -8.97893 4.52964 11.3853 12
787 1 -4.18398 4.59172 7.11636 20
788 1 -6.63264 2.2305 7.61632 17
789 1 -20.3422 1.37281 -2.26516 6
790 1 -12.2392 5.12959 6.5764 21
791 1 -6.81662 15.836 7.42299 10
792 1 1.5837 10.7769 13.0924 17
793 1 6.97316 10.8128 3.22436 20
794 1 -9.70595 -0.275167 10.5628 18
795 1 -18.1202 4.43248 -3.16685 8
796 1 -2.50718 7.77197 3.49631 16
797 1 3.42023 10.6798 -9.40373 15
798 1 -0.19992 15.3003 6.28684 16
799 1 -1.67587 14.5267 3.97274 22
800 1 -6.03799 11.3252 11.7608 13
801 1 -10.555 8.44991 12.6264 7
802 1 -1.8116 2.94397 10.7105 15
803 1 0.237362 11.3534 10.2313 19
804 1 5.71118 13.447 3.54565 16
805 1 -8.41802 7.09107 9.41939 19
806 1 -2.64373 5.44088 -4.26931 18
807 1 2.06803 12.8894 -1.3324 18
808 1 -4.28585 7.75516 -3.14025 20
809 1 10.5526 2.46818 2.93924 15
810 1 -0.286098 -11.3281 9.84435 20
811 1 -11.6573 6.63343 -4.92214 19
812 1 -8.05029 11.9934 7.06102 14
813 1 2.97867 16.9954 -3.06333 11
814 1 -2.39712 -15.4804 5.07152 17
815 1 13.4471 8.9003 1.73831 19
816 1 -0.397894 -7.93593 10.0196 22
817 1 -4.39667 2.08507 9.22428 20
818 1 3.5523 6.66848 9.49644 17
819 1 -1.92708 0.0197522 8.80492 18
820 1 10.8276 8.08856 2.80377 19
821 1 -0.743006 7.82121 5.94676 17
822 1 -1.33872 6.45907 12.9952 15
823 1 3.85666 2.55274 13.3486 18
824 1 -1.82359 3.03087 4.3228 18
825 1 -7.69397 -3.9144 15.1608 10
826 1 -9.27122 3.41748 -3.38734 16
827 1 4.78624 15.443 -5.57084 8
828 1 9.96097 15.6517 0.981163 15
829 1 -0.878608 9.9973 1.64952 17
830 1 -2.75638 -7.50116 7.88463 18
831 1 15.7881 14.1344 -1.65523 9
832 1 -9.51164 5.33904 -1.03596 21
833 1 2.34029 13.9185 11.7188 14
834 1 -3.83496 12.2555 3.9906 19
835 1 -8.27381 12.8461 -4.73857 19
836 1 1.61941 4.15872 4.82373 18
837 1 7.18939 11.6022 -12.3324 12
838 1 -3.59001 1.40102 6.23046 18
839 1 1.95614 8.77422 10.626 18
840 1 -13.5296 4.54485 0.798805 19
841 1 -9.95002 5.77694 5.09026 16
842 1 -13.5343 10.3004 3.29554 12
843 1 -13.1731 13.8929 -3.35609 14
844 1 -5.62481 10.796 14.8537 9
845 1 -11.3926 9.08218 8.7932 13
846 1 -5.05984 13.448 -5.11458 17
847 1 -3.72463 -3.09198 -4.84568 22
848 1 -10.8357 7.47842 -12.187 13
849 1 -6.80317 4.97564 1.38208 19
850 1 -14.2164 1.78524 1.39332 16
851 1 -12.3472 8.96185 -10.5029 12
852 1 -3.45025 6.08576 11.5438 17
853 1 11.5436 3.79589 5.12745 17
854 1 -3.28965 -0.377118 -3.41476 18
855 1 -4.29582 10.6985 -5.96927 18
856 1 10.3913 2.63201 11.3639 16
857 1 -15.0203 6.69065 3.35224 15
858 1 14.311 11.9672 3.20202 11
859 1 2.37445 6.886 6.01591 17
860 2 -9.96744 -5.73479 11.3681 14
861 2 -13.847 9.73403 -4.14071 18
862 2 -18.4301 -0.0123998 1.0183 10
863 2 -10.4973 -1.18344 -0.703675 19
864 2 -13.3268 6.82114 -9.6089 13
865 2 -18.892 -2.96015 0.153128 11