ITEM: TIMESTEP
24000
ITEM: NUMBER OF ATOMS
2000
ITEM: BOX BOUNDS pp pp pp
-30.0 30.0
-30.0 30.0
-30.0 30.0
ITEM: ATOMS id type x y z Coordination
1 1 -10.129 12.7403 -12.4206 11
2 1 2.87623 -6.68337 -13.5602 19
3 1 7.10062 18.4624 9.58347 16
4 1 1.8732 -2.13913 13.1351 18
5 1 -12.0396 12.0975 2.65377 19
6 1 8.35581 -5.04561 -8.48276 16
7 1 -15.6813 11.8122 -5.48537 9
8 1 2.99709 -5.65406 7.06696 16
9 1 -6.86078 2.76784 -9.81093 18
10 1 -15.369 -4.68989 7.45408 12
11 1 15.4157 5.44132 -1.11 16
12 1 -8.75087 -6.64863 -2.68136 17
13 1 -14.8722 -3.56318 9.94398 11
14 1 2.88431 7.13261 19.8353 9
15 1 7.79752 0.423394 1.90973 19
16 1 2.10455 7.19443 11.2665 20
17 1 9.04277 3.34924 1.70199 22
18 1 -5.95733 17.3621 -13.8315 6
19 1 1.3054 0.781006 14.2097 23
20 1 -2.9725 2.18105 -14.5063 21
21 1 -14.6026 4.22422 9.61853 14
22 1 11.4105 7.30324 10.2472 16
23 1 0.375025 5.0409 -17.4809 15
24 1 -0.783237 10.4562 -11.8746 20
25 1 15.1296 2.19251 11.5793 13
26 1 -13.217 6.6842 0.377503 18
27 1 -6.16375 10.4039 -5.55818 21
28 1 -3.66157 2.52644 -9.19414 21
29 1 -11.3291 14.1108 10.0118 15
30 1 10.6374 -4.82753 4.26256 15
31 1 1.40411 0.574147 7.58732 20
32 1 2.03479 -8.34974 -10.5194 19
33 1 11.8845 -1.89858 4.92202 19
34 1 -11.8601 -9.79943 -3.86262 8
35 1 -10.7936 3.63545 6.25614 18
36 1 1.45527 -4.06035 -12.5931 21
37 1 9.86651 -4.37803 -11.277 12
38 1 -4.88527 8.40972 -14.8026 19
39 1 -1.55872 8.90082 12.8992 19
40 1 -1.61082 -6.60549 11.4929 13
41 1 5.96221 -3.88491 12.1671 12
42 1 -10.1044 3.17581 -2.76133 20
43 1 -14.0928 3.1453 3.98556 16
44 1 -8.52392 3.89745 -0.579507 25
45 1 -8.36593 17.2706 1.48181 20
46 1 0.303546 -10.6822 -12.1033 14
47 1 1.55555 5.46363 -9.02944 20
48 1 4.30543 -4.73559 -5.16264 22
49 1 -0.143336 -1.24534 15.6602 15
50 1 -9.57861 14.6914 13.5608 9
51 1 1.26451 13.8808 -12.8607 16
52 1 1.48445 16.075 10.9015 21
53 1 -14.3231 17.7184 6.15421 8
54 1 4.43784 13.9413 -0.109294 21
55 1 -2.04788 -7.73391 1.57912 22
56 1 6.55782 -5.57116 -2.98356 17
57 1 11.2102 0.350082 -8.77962 16
58 1 -6.21818 11.5737 10.9438 20
59 1 -10.6456 7.66212 -9.70573 20
60 1 2.86768 -0.420664 5.69395 17
61 1 -7.87737 8.65477 -4.22491 18
62 1 -8.04347 -9.87938 11.4829 12
63 1 -0.777923 18.1486 11.7843 13
64 1 -13.3508 13.976 -3.83963 11
65 1 -2.15814 16.4991 14.5679 13
66 1 2.47573 8.81566 -3.50041 20
67 1 -7.42908 -12.0057 8.88828 12
68 1 6.86359 5.99986 7.91683 18
69 1 11.0857 -3.59671 -1.39695 21
70 1 2.10083 18.9168 12.8768 12
71 1 -7.92046 8.37016 -18.4743 10
72 1 -8.42059 13.9621 -10.1319 16
73 1 1.51628 12.8069 14.3944 21
74 1 12.4777 -1.38593 -5.66888 18
75 1 5.93173 -0.670054 4.60097 18
76 1 -13.3916 1.28311 1.34553 18
77 1 -8.55004 2.84478 2.23108 16
78 1 5.06564 19.2918 12.4117 14
79 1 3.51892 4.11545 17.841 14
80 1 -10.7448 -8.87773 4.78189 21
81 1 -10.2879 1.38219 -0.0535604 21
82 1 12.5085 -0.56166 8.4032 19
83 1 7.50013 2.11049 -0.477179 21
84 1 3.07606 16.155 13.5742 20
85 1 -1.04843 1.72365 8.05665 22
86 1 -9.62628 -1.48904 -0.68835 19
87 1 -2.60439 -4.35096 -5.95685 23
88 1 -12.6612 16.2078 7.95213 15
89 1 -6.89774 11.1911 0.132246 21
90 1 -0.229519 9.84118 -8.55083 21
91 1 4.32057 2.09981 -5.40098 20
92 1 7.8737 12.1601 -3.42788 21
93 1 4.19225 -3.80499 -0.0869702 20
94 1 2.71553 -5.02294 11.6516 12
95 1 -7.40883 18.7048 -3.30905 17
96 1 -8.35624 19.9019 5.25673 12
97 1 -3.22919 -1.75005 15.6041 13
98 1 -1.3743 17.474 8.43809 14
99 1 -7.26951 -0.984097 12.9929 16
100 1 10.9495 0.436441 -3.79784 20
101 1 -11.2103 4.34685 2.2396 20
102 1 -9.51203 -6.99947 1.78835 23
103 1 9.49869 -0.465183 -6.38687 22
104 1 5.09277 0.840786 -10.6023 20
105 1 -6.69345 -0.0120273 -14.2141 16
106 1 -3.94003 19.6389 1.02449 18
107 1 -10.8052 12.475 -6.75564 15
108 1 3.59498 14.5597 16.5143 10
109 1 3.64063 13.6784 -5.42889 19
110 1 -13.7427 19.0067 2.74205 9
111 1 5.7043 13.6439 2.97632 17
112 1 -0.279047 -4.00018 13.5181 13
113 1 15.6909 5.22995 6.89594 17
114 1 -0.582413 -1.38354 -5.87926 22
115 1 -3.97149 -2.90398 -9.07748 20
116 1 -0.0370575 7.07064 7.89097 24
117 1 6.30851 5.41653 14.6525 14
118 1 -9.87928 -0.681664 2.71378 21
119 1 6.81606 -5.72038 2.34747 18
120 1 -14.6522 -4.70989 -2.11019 12
121 1 11.2668 -6.07766 1.87814 17
122 1 -9.73731 10.356 6.53195 23
123 1 6.17325 6.9278 -12.5961 21
124 1 -0.617542 19.191 -0.64156 15
125 1 -6.68635 -4.42386 13.0588 15
126 1 -11.7237 -8.00525 11.6637 9
127 1 4.11519 -4.37409 -13.9738 20
128 1 1.7623 11.3473 -6.66292 21
129 1 14.1026 -5.49313 2.82189 10
130 1 -1.05971 -12.3677 5.32633 10
131 1 -10.4922 -3.03447 -5.1574 16
132 1 14.622 7.78408 13.996 10
133 1 14.0896 1.79961 -7.31119 14
134 1 -15.6441 1.61903 -0.383234 15
135 1 8.17925 10.7137 6.43818 17
136 1 15.2991 12.3803 8.40907 11
137 1 -6.03086 3.0603 11.8976 20
138 1 6.60516 15.6468 1.42798 16
139 1 -5.34508 8.29939 9.07727 24
140 1 -8.27246 14.5595 -6.77722 21
141 1 0.458875 -5.6683 -9.8024 19
142 1 10.3988 -3.86559 -5.11181 18
143 1 -4.94939 14.2151 -6.98582 17
144 1 11.3134 -2.22824 12.6554 8
145 1 0.489727 1.34672 -17.8924 11
146 1 -2.45359 11.7342 -3.0852 19
147 1 15.8437 -0.418412 -5.9001 11
148 1 -11.1945 16.131 -4.81689 15
149 1 -9.79357 19.5433 -0.463316 11
150 1 6.46193 4.06881 -14.8099 16
151 1 10.3496 -3.20523 7.11956 15
152 1 -3.06185 4.91252 -11.412 22
153 1 -5.14254 20.1663 3.97189 14
154 1 8.31697 14.8659 -6.45362 15
155 1 2.48 11.1059 -0.994335 19
156 1 -9.32854 15.9828 4.23453 17
157 1 5.59175 14.1749 -2.79577 21
158 1 -5.6623 16.2023 -2.38318 23
159 1 2.69192 16.0787 -7.33284 13
160 1 0.361899 12.3462 -15.6034 15
161 1 -5.94079 -1.24147 3.13248 13
162 1 -14.0767 12.7676 10.7149 9
163 1 -5.86889 -1.78093 -11.6148 21
164 1 -3.31268 -6.2735 -14.0517 12
165 1 10.6671 17.0856 9.62907 11
166 1 -2.78093 19.2189 6.341 14
167 1 -12.0716 5.25312 -12.5514 13
168 1 -10.9226 18.7396 2.56128 18
169 1 12.6316 5.66902 -0.466103 18
170 1 -6.27596 8.55852 -11.6706 22
171 1 7.28962 3.12668 17.5509 13
172 1 0.419042 20.4115 5.04643 12
173 1 1.08498 14.0052 6.12011 20
174 1 5.56537 -1.96812 -14.6729 15
175 1 -6.69979 13.3028 14.0535 12
176 1 -4.54181 14.8275 -13.2719 16
177 1 1.38736 4.42134 19.3418 10
178 1 -14.225 -3.59524 4.67606 16
179 1 0.588403 -9.04386 -14.6303 9
180 1 -7.05545 16.5436 -8.59914 17
181 1 -0.11491 -10.3317 2.60518 17
182 1 8.10488 -11.1668 -4.2591 9
183 1 -5.5739 14.0095 -15.6854 12
184 1 -11.6745 8.64862 7.96885 18
185 1 -0.496022 11.1533 -0.920173 17
186 1 10.412 14.0861 -1.72879 18
187 1 -2.96472 8.95729 16.3453 15
188 1 0.85084 -3.44525 10.3927 22
189 1 -10.5101 12.1886 0.515974 24
190 1 0.910704 18.1164 2.2379 22
191 1 -3.92655 13.7316 12.7621 17
192 1 12.46 5.26802 14.3366 14
193 1 -4.25526 15.3522 6.85822 16
194 1 11.0521 2.40499 -6.42479 19
195 1 -5.01224 17.5922 15.7207 6
196 1 -3.84193 4.65358 -6.32723 21
197 1 15.5976 -2.32062 2.97409 12
198 1 -5.56515 -2.70073 9.46619 19
199 1 -17.1855 2.53378 2.51185 10
200 1 -9.52117 -6.19152 4.88933 23
201 1 7.97529 7.39677 13.0695 17
202 1 -9.89632 3.53378 -5.80576 17
203 1 -6.95824 -5.52813 1.98269 23
204 1 3.8919 -5.90304 -2.55524 18
205 1 -4.08036 12.6732 5.15966 18
206 1 -9.12422 6.27833 3.06487 18
207 1 5.94301 15.3192 8.50602 16
208 1 -6.86939 3.70042 -3.72858 23
209 1 -13.637 14.4507 -6.90126 11
210 1 -12.4494 2.28312 -11.2045 15
211 1 -10.3544 0.140365 11.6615 16
212 1 -5.07074 -4.10997 4.55749 17
213 1 3.72896 -8.70986 6.93382 12
214 1 -5.60194 18.2152 6.55797 14
215 1 14.308 8.72241 -0.350569 19
216 1 5.942 4.96769 -5.67896 25
217 1 -2.39269 -9.71776 -13.2583 13
218 1 0.990456 2.12891 10.475 24
219 1 8.288 -8.1603 1.93367 12
220 1 -5.4805 10.969 -14.2091 21
221 1 -1.67605 -4.36511 -11.2719 23
222 1 8.66486 6.99424 -10.6409 17
223 1 2.19589 10.8444 -17.6323 12
224 1 -10.4388 -0.382808 -7.20211 22
225 1 -6.28329 16.7961 -5.77819 19
226 1 -9.64201 -5.52366 13.3143 14
227 1 3.82228 21.6512 -3.08021 11
228 1 -11.5541 -0.387858 15.9104 9
229 1 -4.7147 13.2188 -4.76233 18
230 1 9.66717 4.87148 8.47777 18
231 1 -0.481189 -7.08193 -12.6336 20
232 1 -4.15436 16.974 -10.9593 13
233 1 -2.54669 13.255 -13.1238 17
234 1 -8.62436 -7.2119 7.70879 21
235 1 -10.0441 6.9063 6.07098 23
236 1 -2.93958 10.0601 8.27754 23
237 1 2.59305 -6.15368 -8.02618 21
238 1 -8.30456 -10.2124 0.943507 13
239 1 11.5973 -5.81221 -6.20794 13
240 1 2.15785 -2.88508 -2.96637 21
241 1 10.3573 4.94795 17.4306 10
242 1 4.32266 10.5077 -7.02039 15
243 1 1.77816 16.8903 -0.875703 17
244 1 -11.745 1.31527 4.507 19
245 1 -9.28027 11.3786 2.85864 22
246 1 4.5073 11.2414 13.5087 23
247 1 3.76972 -11.1225 2.26477 10
248 1 16.2833 8.33972 -3.03485 10
249 1 1.77132 11.1441 7.08037 22
250 1 -15.2847 13.8328 7.77442 10
251 1 -15.5621 -1.52832 -1.34093 14
252 1 5.34613 10.1494 -16.4622 14
253 1 -2.45599 3.55274 10.2412 19
254 1 8.62445 15.3155 -3.51496 18
255 1 2.15814 -7.46516 -5.46662 22
256 1 -2.31086 -0.832748 -12.0376 19
257 1 -4.59377 -8.26564 2.99929 18
258 1 7.62526 2.43545 -6.01617 23
259 1 -7.67787 4.08571 4.97943 20
260 1 -0.352867 -9.2769 -4.82536 18
261 1 -17.272 0.716525 -3.31903 10
262 1 2.67894 14.8162 -2.50357 19
263 1 0.386775 -0.0326444 -13.8207 17
264 1 13.8221 7.66562 11.0967 18
265 1 12.6309 11.3158 -1.06927 18
266 1 -8.62545 -4.53313 -0.533744 20
267 1 8.92458 1.58823 -11.1804 17
268 1 -5.66464 -4.69249 -1.00877 19
269 1 -9.70052 1.31114 -10.9024 18
270 1 -10.1075 4.27767 -14.9263 14
271 1 -6.96329 -7.0441 12.0918 16
272 1 9.7588 -1.10405 10.4153 19
273 1 2.47282 -2.33589 7.83234 25
274 1 -9.31625 -1.5205 -12.4866 16
275 1 0.625336 -4.17282 5.20296 22
276 1 2.01244 11.0935 -13.138 18
277 1 1.2107 13.6507 0.21787 18
278 1 -11.5748 -1.14198 5.89468 18
279 1 3.87074 18.7534 0.291211 18
280 1 -6.24427 -2.07294 6.41501 16
281 1 -11.7625 -0.841316 -9.92425 17
282 1 -5.91107 -4.35787 -7.5714 19
283 1 -1.03497 12.0834 -18.4162 10
284 1 -4.54879 -6.9544 -5.99413 20
285 1 -10.0439 -3.76349 1.97882 17
286 1 8.9561 -1.38832 -13.3359 12
287 1 16.3057 3.27008 1.57889 10
288 1 16.8059 8.28142 5.28372 12
289 1 -5.36116 -2.04883 -3.03174 22
290 1 -8.89669 -1.18505 7.74567 18
291 1 -11.4089 -0.901938 -3.563 20
292 1 5.77025 5.54096 19.1859 12
293 1 -9.0489 -11.0378 4.34864 17
294 1 -5.64154 -7.78132 -2.95497 21
295 1 2.6037 16.4538 5.28241 22
296 1 6.96282 0.873586 -13.4296 19
297 1 -10.15 1.14592 -13.9306 14
298 1 -12.74 -4.7748 11.3523 16
299 1 -0.0229761 11.3636 18.7868 10
300 1 -0.550782 -9.50528 -0.762676 16
301 1 -10.8702 -3.55336 -10.0459 15
302 1 -13.4921 4.96181 -9.95031 17
303 1 5.34004 6.48341 10.4533 22
304 1 -7.16182 4.81984 -7.41548 19
305 1 2.98912 8.78682 -9.11056 18
306 1 -3.81638 -0.0558747 7.18456 20
307 1 8.92048 -10.3466 -6.91016 10
308 1 -7.56597 19.7586 2.27283 11
309 1 0.571971 11.6385 2.20431 18
310 1 15.7562 8.87198 2.75329 14
311 1 -12.7152 4.81144 7.44722 17
312 1 -5.66169 0.620794 14.4877 18
313 1 -7.0689 16.9626 11.1884 12
314 1 2.40447 -3.38648 -7.6713 22
315 1 12.4498 18.6885 -3.53344 10
316 1 5.08382 -6.84753 -0.162123 22
317 1 -2.46357 1.18975 15.9497 15
318 1 -11.8455 3.14934 9.89153 19
319 1 7.75076 -9.31685 -1.55772 10
320 1 -7.18966 8.02091 11.7571 18
321 1 -9.32217 3.97246 11.899 17
322 1 -13.8573 2.12806 7.61942 17
323 1 -14.0447 -7.28048 9.29335 10
324 1 10.8267 1.77592 -0.787159 20
325 1 -12.261 -6.3164 6.21106 17
326 1 7.06841 0.013094 -8.23737 20
327 1 10.6882 -3.25461 -8.32244 17
328 1 -1.34296 18.2252 -5.01551 12
329 1 -10.3711 14.4017 -2.18687 19
330 1 7.97502 11.4452 9.3705 21
331 1 -5.3855 3.70111 6.87794 22
332 1 2.29901 -8.39749 -2.41441 20
333 1 -1.51809 17.0055 -0.270894 17
334 1 -6.25451 11.0881 3.37169 22
335 1 5.88085 -4.60548 9.63305 13
336 1 15.5315 -0.58321 5.90966 12
337 1 -0.331562 10.3669 15.5742 22
338 1 -8.50964 -1.27195 -9.44075 21
339 1 -2.02427 3.41771 17.782 12
340 1 -1.84264 18.7701 3.2629 19
341 1 10.2947 12.7947 12.5595 14
342 1 -9.09888 17.009 -2.01619 18
343 1 -1.64829 -3.54159 -14.3787 17
344 1 -5.42615 7.61568 -7.53042 22
345 1 4.93646 -8.45596 -10.7682 15
346 1 -2.1498 5.80592 13.4515 18
347 1 -16.4069 5.52395 0.464827 13
348 1 -5.49826 -0.838892 -8.02728 19
349 1 -5.47131 12.2656 -2.43538 19
350 1 3.74148 1.66776 8.72638 19
351 1 -13.0677 -6.97472 -2.93148 13
352 1 5.60406 -3.1346 6.95627 16
353 1 -12.35 -3.36818 14.4113 11
354 1 -10.6266 18.3481 5.95497 17
355 1 -4.23404 1.94669 8.81363 22
356 1 5.55436 -4.93608 -8.385 17
357 1 -5.11191 5.69352 -9.27388 22
358 1 5.56032 3.31992 -11.3199 18
359 1 0.665079 21.0191 2.06301 13
360 1 -9.33173 0.733599 -4.53464 21
361 1 8.72314 -1.69509 -9.95328 17
362 1 10.8683 8.61436 -5.60821 21
363 1 -0.514649 -8.26817 -8.45205 18
364 1 -14.7775 -0.998441 -3.73236 15
365 1 -4.67708 -9.99882 0.169839 15
366 1 9.5623 2.05847 16.0169 12
367 1 8.98133 4.83535 -0.887772 20
368 1 -2.88179 7.70526 -13.3185 19
369 1 3.8629 22.263 0.370952 10
370 1 -13.8176 3.75315 -6.70286 21
371 1 -13.7744 13.9597 5.23762 15
372 1 -5.07328 16.4727 0.709634 19
373 1 -6.83449 14.4096 8.30571 18
374 1 9.44323 14.9647 14.1301 10
375 1 15.8717 -2.56599 -3.04304 12
376 1 9.24294 0.410161 13.4791 15
377 1 15.1495 2.75702 -4.75743 13
378 1 -6.6728 -10.0426 -5.78554 15
379 1 -3.68932 11.0292 -0.835588 17
380 1 0.219473 -5.35794 -2.76526 23
381 1 -0.737026 10.7362 5.77052 23
382 1 -7.45816 6.42143 -1.68928 19
383 1 3.08336 -10.0832 -4.54997 17
384 1 12.1977 4.67779 11.6659 18
385 1 -16.9019 1.25615 -6.76117 8
386 1 -6.79973 -5.58061 6.38675 17
387 1 -13.0131 -1.96295 11.9961 13
388 1 -7.51808 14.1786 -0.455196 20
389 1 -13.6858 -3.68916 -4.50373 14
390 1 12.4 9.41223 13.3401 13
391 1 -10.4626 14.4873 1.19037 17
392 1 -4.02794 10.5761 -11.7825 22
393 1 5.74651 16.7341 4.52713 20
394 1 -11.2674 -4.49035 -2.33777 18
395 1 -2.08732 -7.70554 -2.3224 20
396 1 -8.92543 -2.88591 15.0212 11
397 1 -13.0616 10.6509 5.47224 18
398 1 -4.03574 -5.15773 7.80539 16
399 1 -3.55723 -9.3015 -4.52402 20
400 1 8.43397 18.5849 4.02828 14
401 1 3.55774 12.4911 -15.0036 14
402 1 -10.6799 10.4287 -10.0545 18
403 1 -0.141299 14.5448 -8.16482 16
404 1 -9.52281 11.4657 -2.54013 18
405 1 -3.3363 -11.1278 3.08204 19
406 1 12.2593 12.5599 2.99248 19
407 1 -2.66044 13.7613 -16.4055 11
408 1 -0.616185 5.72894 11.0393 20
409 1 -15.2175 10.2547 -2.45002 13
410 1 -4.56914 8.265 2.66985 19
411 1 -4.13368 -6.73314 -0.0825307 19
412 1 0.507173 -4.21959 -5.48374 22
413 1 3.38776 -4.10915 -17.89 7
414 1 -2.29623 5.17192 7.75855 22
415 1 -13.7766 8.41436 -4.78938 18
416 1 -13.8008 0.149957 13.9707 10
417 1 -8.86829 12.075 8.62511 21
418 1 -1.01653 -1.76467 8.04462 20
419 1 -7.05113 11.2132 -11.3939 21
420 1 10.5748 -8.39023 -5.72231 10
421 1 3.78237 -11.9193 -10.9176 10
422 1 -7.90303 2.52164 8.64016 20
423 1 5.40771 -8.95192 -3.50293 17
424 1 -4.74128 6.68966 -17.7202 14
425 1 8.40732 -6.80377 4.6962 12
426 1 -2.38297 16.0842 -6.17725 18
427 1 -7.70288 14.3114 2.33597 20
428 1 -6.64262 0.358102 7.467 18
429 1 -10.748 4.73409 -8.36984 19
430 1 -9.64222 -4.20677 7.33941 18
431 1 12.5386 1.03374 5.49812 22
432 1 7.64048 8.35378 -0.445422 18
433 1 2.83939 2.67753 -9.78431 18
434 1 9.08206 -4.49438 10.4323 11
435 1 12.4913 10.857 -7.82714 10
436 1 -3.1229 -4.77086 13.5519 12
437 1 0.846588 20.1684 -3.59813 13
438 1 5.44019 -2.21049 1.9342 22
439 1 -7.4685 -1.06066 -5.661 19
440 1 -2.69466 11.9016 18.1125 10
441 1 -9.98492 16.3819 10.1865 13
442 1 -10.607 -8.66594 -6.0313 11
443 1 2.57593 19.8391 7.80323 14
444 1 9.71809 14.3853 7.3633 19
445 1 -13.0142 5.64917 4.63524 20
446 1 -11.9623 -6.4662 -8.40235 12
447 1 -13.7148 9.09642 11.4717 10
448 1 -8.57712 -4.51659 -7.90095 21
449 1 -8.72325 13.7935 11.0453 22
450 1 -2.82817 -9.28868 -7.42801 18
451 1 5.23179 -7.30251 -6.16597 16
452 1 -9.49101 -10.4829 7.47168 20
453 1 -4.92887 9.12215 5.46529 19
454 1 7.6846 2.79902 4.99186 18
455 1 -6.38824 0.436966 10.8719 20
456 1 -6.52611 13.3097 -12.6885 17
457 1 13.6798 8.06349 7.65689 21
458 1 -4.00815 -12.0871 -6.08513 9
459 1 1.6719 7.71039 -6.53787 22
460 1 -2.37646 21.7711 2.59268 10
461 1 -2.05983 7.36023 -6.48336 21
462 1 0.679542 16.3573 15.6114 11
463 1 -15.2907 2.80786 -3.75366 17
464 1 -0.296405 15.929 -3.1188 17
465 1 8.0659 12.4352 -8.87576 18
466 1 -8.44608 1.46732 -7.44062 24
467 1 9.52954 9.5444 13.49 18
468 1 3.07866 -9.17905 -7.69356 21
469 1 -1.14946 -6.72499 -5.87443 22
470 1 5.61351 -6.37417 6.39388 14
471 1 -7.80215 18.9343 8.69499 9
472 1 8.103 6.48839 16.9281 16
473 1 10.1407 9.75849 2.70089 19
474 1 0.645396 14.1566 -5.23456 18
475 1 -8.34118 11.5356 -7.96364 18
476 1 2.84366 4.89643 -5.85057 22
477 1 -1.20806 -4.596 2.64172 20
478 1 -16.4876 -4.22377 0.556122 7
479 1 -9.94934 15.2046 7.54023 21
480 1 0.67081 8.41088 -13.7799 19
481 1 14.9851 12.1155 -3.19108 14
482 1 10.1407 14.6767 -9.62293 9
483 1 6.15754 -0.829891 -0.821018 21
484 1 16.8842 5.74238 4.13105 13
485 1 0.678602 4.48565 -11.2339 20
486 1 3.2629 -5.21479 2.77579 20
487 1 -2.08416 -6.47814 5.18353 21
488 1 1.17025 -0.708507 10.3873 21
489 1 -9.26847 5.93056 -3.57214 19
490 1 -11.9258 -11.3821 5.33496 12
491 1 0.516439 -1.15209 -11.1412 21
492 1 11.0705 17.1787 6.24139 12
493 1 2.01013 5.55649 -14.8295 21
494 1 3.00738 6.38928 14.8942 16
495 1 -8.67726 0.342809 15.764 10
496 1 -1.95231 -12.1053 0.377054 10
497 1 -12.3936 3.88221 -0.883832 20
498 1 14.7273 -3.76636 -5.73755 10
499 1 10.1111 6.62395 1.43915 19
500 1 -3.09198 10.2663 -6.9717 19
501 1 -3.73345 -5.06287 -3.60198 20
502 1 4.05483 4.7753 -12.9639 17
503 1 11.0364 8.2424 -1.64431 19
504 1 1.28863 4.0432 12.7836 19
505 1 5.00734 20.8112 9.14734 13
506 1 -0.496487 2.9914 -15.352 22
507 1 3.98483 8.06706 -18.4043 9
508 1 -7.85344 5.66159 8.82045 20
509 1 -12.4626 17.1359 -0.0513742 11
510 1 -8.93497 1.95519 -16.8898 8
511 1 -17.0562 5.07268 -5.36908 8
512 1 -4.52541 -4.58581 -11.8728 20
513 1 -4.73467 -8.59362 11.6417 11
514 1 -1.27415 12.0379 -5.95069 18
515 1 15.4128 5.4502 12.2557 12
516 1 14.2343 13.8274 0.496609 10
517 1 -8.44819 -9.43911 -3.2142 16
518 1 1.39052 -6.6573 -0.0795671 24
519 1 -0.682378 -0.626365 -15.9969 15
520 1 -4.35309 9.66538 11.649 16
521 1 1.29033 -0.30108 -8.34646 21
522 1 4.10225 11.4595 1.90946 22
523 1 12.7527 3.14523 -2.74731 19
524 1 5.33243 14.5379 -8.37851 16
525 1 3.56567 -3.21509 4.68625 18
526 1 11.138 5.96766 -3.25523 20
527 1 8.06039 16.8419 12.2161 13
528 1 -15.964 5.2483 7.13847 11
529 1 3.48477 18.2518 9.95559 20
530 1 6.66187 0.128701 15.8193 12
531 1 -5.75203 5.84225 -12.9645 19
532 1 -6.93205 -5.13942 -4.31523 17
533 1 -0.993967 -1.0427 12.6515 23
534 1 8.23192 17.2394 6.64131 17
535 1 8.76252 7.53748 -13.566 10
536 1 -9.01148 18.0793 -5.92119 15
537 1 -2.67137 14.0608 -0.78809 16
538 1 11.1718 2.49043 9.0242 19
539 1 5.26711 11.9108 -9.67715 16
540 1 13.2315 -4.54735 -3.26223 15
541 1 11.8871 10.4847 11.0462 17
542 1 -15.7263 -6.0824 3.92371 8
543 1 -8.06664 15.1161 -3.99836 22
544 1 3.9637 2.08888 14.9772 20
545 1 -13.0452 5.97084 11.6562 12
546 1 -4.88612 18.8798 -5.07727 14
547 1 5.85939 -10.9771 -9.17882 11
548 1 3.98483 0.188199 -7.51331 21
549 1 -2.82993 22.1387 -0.784054 8
550 1 -7.06064 -3.64644 -10.5066 18
551 1 2.69075 -10.2663 4.24085 16
552 1 -8.01212 -3.58295 4.90731 19
553 1 -3.26172 9.78453 -16.8224 15
554 1 -5.68885 8.84207 -1.92248 19
555 1 -1.50842 13.4188 15.869 17
556 1 -13.6205 -0.581698 4.11719 17
557 1 5.89853 8.75449 -2.86077 22
558 1 0.19054 -5.42281 -15.5019 12
559 1 4.93294 -1.39732 13.8685 15
560 1 6.08516 2.88519 -2.78715 25
561 1 -14.0126 10.8061 0.918888 17
562 1 8.18571 12.1541 15.3667 14
563 1 1.49889 21.3314 -0.549011 12
564 1 12.4693 -0.496842 -1.04501 19
565 1 8.27006 8.24533 9.98589 17
566 1 -5.1311 2.17284 -16.1863 14
567 1 -9.88383 -12.1186 10.0069 8
568 1 -1.63864 5.95876 -9.00692 21
569 1 6.06934 6.93965 -15.9189 13
570 1 3.95542 13.4342 5.9492 19
571 1 2.07176 12.2235 -10.1376 16
572 1 -4.0764 5.2853 -15.2117 19
573 1 -5.31845 -11.59 -8.45668 12
574 1 -9.41551 4.16754 -11.0886 20
575 1 12.9722 8.67486 -3.65367 21
576 1 12.3582 15.9379 -4.85954 12
577 1 14.12 4.58945 -7.20137 13
578 1 15.2835 10.8858 11.5163 10
579 1 8.60881 -2.54908 -3.45713 22
580 1 -2.33435 3.78567 -17.5504 18
581 1 9.5952 13.3748 1.72522 18
582 1 -10.9213 8.66348 1.30884 20
583 1 9.08499 4.57477 14.0735 17
584 1 7.62786 13.3183 -0.432175 21
585 1 14.2338 3.43597 4.02159 21
586 1 6.10915 8.71703 -9.60221 20
587 1 4.34321 7.95601 13.1169 19
588 1 11.7421 2.21179 13.1552 13
589 1 -0.602311 -4.86786 7.55218 20
590 1 9.0996 18.1475 -5.09326 12
591 1 5.74437 12.1469 17.4129 9
592 1 14.6123 13.498 -5.44551 9
593 1 7.77426 4.22434 11.4355 17
594 1 -9.21276 8.26019 -6.41438 19
595 1 12.3105 9.36867 1.7541 17
596 1 9.83538 -0.301049 7.32698 18
597 1 -8.26882 10.3421 12.9558 12
598 1 5.45948 13.4348 11.1583 22
599 1 11.8157 5.30257 6.3686 24
600 1 7.33387 11.6313 12.4711 19
601 1 3.07725 13.3118 12.211 21
602 1 3.83094 5.19494 7.316 20
603 1 -6.26143 -11.6902 4.30112 11
604 1 -3.31048 15.4266 -3.65585 17
605 1 6.83581 10.9373 -6.65406 19
606 1 11.2324 4.5794 -12.2161 8
607 1 3.58579 16.732 2.30023 20
608 1 -5.48478 -10.0255 -11.1905 12
609 1 5.97271 -1.66212 -11.887 18
610 1 -16.4702 8.60707 0.827522 11
611 1 -7.67562 8.96912 -8.7397 17
612 1 -4.23229 -12.0758 6.55496 14
613 1 -4.54306 1.30378 -11.805 18
614 1 -12.5739 11.0299 -4.35288 20
615 1 8.88024 -3.50597 1.46689 19
616 1 5.70501 19.8812 2.3099 15
617 1 -2.30217 -0.0296286 10.3404 21
618 1 -13.2824 8.30098 -10.7452 12
619 1 2.72437 1.84029 -15.5609 17
620 1 -3.28522 6.30815 18.2238 8
621 1 4.70565 13.8007 -12.1953 17
622 1 15.4301 0.212664 9.07233 13
623 1 8.94586 9.20472 -3.23291 20
624 1 11.6569 15.2172 1.13625 15
625 1 7.39015 -7.83539 -8.63591 14
626 1 -14.5433 3.07543 12.7349 11
627 1 16.8937 2.34401 6.30049 11
628 1 -3.71929 17.577 12.326 12
629 1 7.4717 15.8662 -10.3671 10
630 1 -13.5005 14.3632 1.83837 12
631 1 5.10042 10.9176 5.02079 23
632 1 -11.0624 -9.52419 1.75673 15
633 1 8.02814 -3.10306 4.64724 19
634 1 4.87145 18.3186 6.90808 19
635 1 -3.44944 7.28999 6.3654 23
636 1 -11.3287 -3.72777 4.71066 20
637 1 -7.94155 6.25468 -9.79021 19
638 1 8.25937 1.46873 9.57232 15
639 1 -4.98413 -5.43742 10.611 16
640 1 6.24278 14.1241 14.189 21
641 1 -4.01871 19.1858 -2.34594 16
642 1 7.68011 8.35111 5.05263 21
643 1 5.80735 5.68967 4.93843 20
644 1 -7.03837 3.37781 -14.5483 17
645 1 -15.7394 5.65227 3.55263 12
646 1 2.50091 2.49778 -12.8301 21
647 1 -3.71439 -0.903673 -6.2288 20
648 1 14.3917 -1.1859 -8.21227 8
649 1 2.59808 4.8076 9.48066 20
650 1 3.23313 8.02021 5.62846 23
651 1 -9.93662 7.31999 13.5398 11
652 1 10.3456 11.9818 5.31962 21
653 1 0.0125916 7.64504 14.5608 17
654 1 -0.353047 14.8178 13.2699 19
655 1 -0.372821 -3.22751 -8.57104 21
656 1 -2.52137 7.58681 10.1219 22
657 1 7.22108 13.5706 6.24026 18
658 1 -14.1584 -8.90723 3.75996 9
659 1 9.70539 11.9545 -5.71175 19
660 1 8.59948 -6.44545 -0.319424 21
661 1 -3.988 9.00709 -4.3294 21
662 1 2.77335 13.7593 3.24913 20
663 1 11.4474 18.2183 3.34759 11
664 1 4.08708 4.15063 -16.7487 13
665 1 -6.42601 10.613 7.59538 21
666 1 3.26657 19.6826 -6.10428 10
667 1 13.569 15.384 -2.21354 15
668 1 -12.2112 -1.58083 1.0744 16
669 1 -3.20702 0.781163 -17.6832 13
670 1 -12.469 16.5917 4.35154 17
671 1 7.09963 -2.96315 -6.42146 21
672 1 5.19678 8.97682 3.00932 21
673 1 9.64738 9.61058 -8.25217 16
674 1 6.78261 16.7391 -1.05819 18
675 1 -2.10716 13.6584 7.59026 19
676 1 -7.87274 8.73211 1.91075 14
677 1 7.19768 6.0089 -2.95283 23
678 1 8.05674 -2.34252 14.097 10
679 1 11.7848 7.91417 16.0081 9
680 1 -2.42083 -2.99081 10.0756 21
681 1 -6.05195 10.9661 -17.343 16
682 1 4.7828 11.4922 8.23955 21
683 1 7.58618 -4.87934 -13.9322 14
684 1 1.36685 10.0722 12.5712 23
685 1 6.09437 20.0335 -4.49435 12
686 1 0.273454 12.7492 8.46051 18
687 1 14.3859 -0.00578205 -3.04862 17
688 1 6.28244 16.9109 14.5441 11
689 1 -14.3721 8.73247 3.45315 14
690 1 9.95401 -5.97225 -2.79465 15
691 1 -7.22323 0.669057 -11.4206 15
692 1 -5.13014 15.0117 10.4737 19
693 1 0.766054 3.64705 7.53959 20
694 1 6.18342 -0.70441 -5.45713 21
695 1 0.613966 15.3495 2.72517 16
696 1 -15.4159 -0.753275 1.45612 14
697 1 -0.535832 6.75701 18.5387 16
698 1 -3.75735 9.74267 -19.6434 10
699 1 -8.76864 10.0057 -13.3509 15
700 1 12.3037 -6.44686 -0.428407 11
701 1 7.68895 5.65245 -8.30491 19
702 1 7.50429 -2.06011 9.14008 19
703 1 -1.06914 16.7463 5.54694 16
704 1 -14.7703 10.6041 8.32134 16
705 1 6.22901 1.27688 -16.3634 11
706 1 1.08489 -6.98589 9.24502 13
707 1 3.48137 19.0512 4.04158 21
708 1 0.882603 1.67047 17.0838 15
709 1 -5.83109 -6.75768 -9.50343 21
710 1 -6.88341 -7.37646 -12.0597 9
711 1 -7.87314 -9.49238 -9.08712 14
712 1 -4.11693 18.14 -8.35773 11
713 1 2.4698 -1.14593 -5.30978 22
714 1 -2.40845 15.8913 2.40867 15
715 1 9.85795 -7.12992 -8.41633 14
716 1 12.0402 -2.76044 1.9992 21
717 1 6.28955 0.295135 11.3328 19
718 1 14.553 6.01282 -4.28418 15
719 1 2.98528 -12.5446 -7.06305 11
720 1 -6.91168 7.05986 6.38597 22
721 1 -0.287481 2.80801 -8.34379 23
722 1 -7.75 -8.95182 3.20552 19
723 1 -12.5061 -3.19045 -7.051 16
724 1 -10.9398 6.05944 9.49181 16
725 1 -10.9145 -8.51895 -1.01968 16
726 1 8.21528 9.90718 -11.5059 13
727 1 -11.4635 21.4397 4.3447 7
728 1 -7.59164 12.5691 5.69967 18
729 1 -15.8835 7.51805 -2.26831 11
730 1 11.0175 0.346985 2.05297 20
731 1 -8.8211 6.51808 -12.649 18
732 1 -1.68832 15.1384 -10.9471 16
733 1 7.46402 8.05221 -5.8458 20
734 1 8.42135 14.0917 10.7003 20
735 1 12.0286 5.6427 -5.87437 17
736 1 -12.3683 9.84346 -7.59319 15
737 1 -14.3692 1.5372 -8.94284 12
738 1 2.53348 11.9596 16.5624 18
739 1 7.98038 10.5736 -14.2348 11
740 1 12.7276 10.3313 5.02275 19
741 1 -0.972659 2.48189 12.5567 17
742 1 -6.30763 -9.30657 5.9049 19
743 1 -6.50993 -8.55969 8.98076 20
744 1 -4.18608 -2.09976 12.7969 19
745 1 16.3121 11.1973 5.794 9
746 1 0.579205 -10.77 -7.30727 16
747 1 -8.60338 8.83341 4.29714 22
748 1 5.70697 8.77432 7.74467 22
749 1 -11.0892 0.910685 8.20737 20
750 1 5.20326 10.7264 -12.8802 19
751 1 0.798082 -12.6142 -9.96967 9
752 1 4.50934 -10.2828 -1.01288 14
753 1 0.685144 -7.25505 3.34024 21
754 1 4.40323 5.97713 -8.45174 20
755 1 4.48172 17.592 -2.7583 18
756 1 -8.50336 5.39661 -17.4944 12
757 1 0.784744 4.3531 15.9206 16
758 1 2.94279 6.85863 -11.2817 17
759 1 -9.86811 8.47022 -15.4931 10
760 1 -11.4016 2.22854 -8.22648 23
761 1 2.07575 17.5323 -4.42198 19
762 1 7.0815 6.7221 2.20406 19
763 1 -5.68129 -3.39157 -14.5988 10
764 1 -8.07648 -2.37104 -2.78019 21
765 1 15.5141 9.90085 -5.66264 11
766 1 15.1923 -1.17939 -0.192899 13
767 1 -10.6018 8.70479 11.2664 15
768 1 9.38823 -5.7071 7.10764 10
769 1 14.6777 1.96362 -0.883397 14
770 1 16.7901 3.10449 9.43749 13
771 1 2.27026 21.2312 11.2454 9
772 1 -8.69742 2.14546 13.7402 15
773 1 -12.5598 12.4867 7.48728 23
774 1 -1.12238 -11.1455 8.04048 9
775 1 8.89591 5.17282 4.49461 20
776 1 6.55633 9.42526 15.0792 19
777 1 -18.241 2.81291 -0.630458 7
778 1 7.33335 -3.71885 -0.598295 20
779 1 -10.6645 15.7813 -8.1188 15
780 1 2.46309 10.8628 4.44168 22
781 1 2.13353 -11.6984 6.82357 7
782 1 5.29961 8.55453 17.5477 12
783 1 1.32808 16.4644 8.01937 17
784 1 -1.4173 -9.03199 4.50487 17
785 1 -7.32518 1.01586 -2.16448 23
786 1 8.70669 5.63257 20.5233 7
787 1 -12.3171 4.90604 -4.29655 21
788 1 -1.45287 14.8563 10.1734 22
789 1 6.02363 20.1005 -1.02281 15
790 1 -12.6322 -6.67072 2.99488 15
791 1 -9.09473 -13.444 6.36664 10
792 1 4.22551 -2.3394 10.3578 22
793 1 12.7402 0.317876 11.1866 15
794 1 9.92508 8.28435 7.90931 17
795 1 -4.98333 13.5019 1.85151 19
796 1 -3.4066 -7.69471 -11.0621 20
797 1 -1.9581 7.24765 -18.0443 11
798 1 -8.79437 -2.12203 10.6345 17
799 1 -6.36239 19.4619 -0.702411 16
800 1 13.9162 6.88246 4.74822 21
801 1 4.14644 11.5592 -3.94876 20
802 1 -3.7723 11.3458 14.4624 14
803 1 5.38547 9.7235 10.5462 23
804 1 3.69003 -4.97119 -10.895 20
805 1 -7.57873 -8.13409 -0.297219 20
806 1 -5.24444 2.23274 -6.8672 21
807 1 15.7887 10.8205 0.0928509 10
808 1 5.69211 -2.35835 -8.84945 20
809 1 1.869 8.92417 17.579 15
810 1 8.11123 -7.03528 -11.4677 11
811 1 1.44753 7.50824 -16.9545 14
812 1 -8.23949 -6.91538 -6.30297 19
813 1 8.07437 4.09913 -12.373 16
814 1 13.9525 -0.0119217 2.70762 17
815 1 3.04608 -0.697262 16.2318 11
816 1 -2.67347 -5.77805 -8.34804 20
817 1 8.64569 18.942 -2.72659 16
818 1 -2.38317 -2.86805 5.23085 20
819 1 -11.5886 8.66185 3.79814 20
820 1 9.32419 11.1 -0.347881 20
821 1 7.65678 10.9447 2.65456 20
822 1 3.54541 -0.60115 -16.6612 14
823 1 -7.81223 15.7197 16.2636 5
824 1 16.139 9.43307 8.80823 10
825 1 11.5925 13.9343 -6.96354 12
826 1 3.58488 8.11749 -14.175 19
827 1 9.17396 -0.98318 -1.01609 23
828 1 -11.2119 7.69606 -4.00715 18
829 1 6.39034 2.84921 9.22857 16
830 1 -12.2889 -5.49292 0.865805 13
831 1 -11.4626 13.4563 -9.38519 12
832 1 2.99432 8.16655 8.58448 21
833 1 -12.1894 7.03587 -6.68733 21
834 1 -15.0496 7.89768 6.47595 15
835 1 -1.66188 10.6635 -14.6875 18
836 1 9.45913 3.57275 -8.76716 18
837 1 -13.7041 -0.64629 -6.81539 17
838 1 12.8273 3.66329 1.14561 19
839 1 -12.2554 9.69639 -1.47543 18
840 1 -12.3329 1.93539 -4.80064 23
841 1 11.5223 10.7541 8.23884 19
842 1 -9.99246 -7.13776 10.0736 18
843 1 6.53536 2.24958 13.2062 17
844 1 13.8866 2.53866 7.38659 23
845 1 8.78867 0.00349117 4.84025 19
846 1 -14.8061 4.91411 -2.3344 17
847 1 3.04532 14.7276 8.66729 23
848 1 -2.79331 11.9136 -9.4734 19
849 1 1.93679 -2.79497 -15.338 17
850 1 -4.31905 18.0691 9.5077 14
851 1 -11.769 -8.70568 8.02584 15
852 1 5.3574 16.6755 -5.21318 19
853 1 2.66339 9.41068 14.8991 21
854 1 11.6273 5.79756 -9.06507 12
855 1 3.39872 0.797899 11.6946 21
856 1 -1.26355 17.5522 -8.9605 8
857 1 7.73606 13.124 -11.9907 14
858 1 -8.62005 8.35883 8.71833 19
859 1 13.6141 15.1576 3.65085 10
860 1 -1.74041 -0.228524 -8.98538 20
861 1 8.68613 18.8811 1.14377 14
862 1 -10.7774 6.4853 -0.590626 16
863 1 -3.92169 -9.59987 8.22295 12
864 1 2.49622 15.5382 -10.0202 12
865 1 4.27579 3.52327 11.579 22
866 1 -2.20293 -11.2861 -3.01576 10
867 1 -5.59888 16.5078 3.94657 16
868 1 -13.1139 12.5018 -1.11048 16
869 1 9.06033 5.22346 -5.80972 22
870 1 5.29912 -6.23427 -16.1815 9
871 1 -10.5671 13.0478 5.49647 20
872 1 10.6222 16.9766 -2.42622 18
873 1 -4.61149 5.01028 9.21141 19
874 1 3.02356 -0.944974 -12.8273 20
875 1 -9.45528 -7.00917 -9.33734 15
876 1 -1.61125 -5.83061 -0.643711 21