ITEM: TIMESTEP
226000
ITEM: NUMBER OF ATOMS
1500
ITEM: BOX BOUNDS pp pp pp
-30.0 30.0
-30.0 30.0
-30.0 30.0
ITEM: ATOMS id type x y z Coordination
1 1 -15.4183 -0.754231 -5.30732 10
2 1 -13.1808 -4.33182 -6.33473 13
3 1 -13.4585 -6.0856 -3.29181 11
4 1 -15.8115 -4.91353 -5.60569 5
5 1 -9.29669 1.71572 -11.1286 15
6 1 -9.85367 -10.9947 -2.26024 16
7 1 -3.91679 -14.9752 -0.400543 17
8 1 -9.44432 -9.69074 -4.84411 16
9 1 -14.7753 -2.60679 -8.36975 12
10 1 -11.2733 -7.07964 -5.74448 15
11 1 -12.7976 -2.89411 -10.6931 10
12 1 -12.1421 -5.36509 -9.14065 9
13 1 -11.9902 -0.763542 -5.86179 19
14 1 -10.3546 -3.56476 -5.77856 17
15 1 -10.1549 -5.47622 -3.46026 18
16 1 -11.5906 -2.26063 -2.98454 19
17 1 -8.93914 -9.03635 -7.78206 15
18 1 -5.49126 -7.03333 -10.6132 17
19 1 -8.6445 -8.77283 -11.204 8
20 1 -5.11102 -9.47964 -11.887 13
21 1 -9.90029 -4.20933 -11.435 12
22 1 -8.36491 -6.72006 -5.35609 20
23 1 -6.81968 -11.3727 -3.08071 24
24 1 -7.45669 -14.6248 -1.01761 9
25 1 -8.2926 -8.141 -2.99671 25
26 1 -6.24353 -9.93699 -5.4452 21
27 1 -6.34963 -3.86763 -10.887 16
28 1 -10.9113 -1.25812 -11.7856 13
29 1 -8.19634 -1.0742 -11.4607 17
30 1 -7.10338 -6.09362 -8.30553 18
31 1 -8.6406 -3.10531 -9.15819 16
32 1 -8.39166 -0.780312 -5.77083 22
33 1 -7.01102 -3.68878 -6.00159 20
34 1 -6.80471 -5.32204 -2.68862 24
35 1 -8.19791 -2.50666 -2.82783 22
36 1 -8.77342 -13.4003 -4.59638 10
37 1 -5.70054 -15.0816 -3.28016 12
38 1 -3.93187 -6.65393 -13.2381 11
39 1 -4.14859 -12.1985 -11.3389 10
40 1 -7.75372 -11.8112 -7.26715 14
41 1 -4.99449 -8.76928 -8.08755 21
42 1 -5.48907 -6.63802 -5.53801 20
43 1 -3.4005 -10.2751 -5.0084 19
44 1 -3.61189 -12.0194 -3.09439 21
45 1 -5.45201 -8.46365 -2.73048 24
46 1 -2.09202 -7.62932 -9.98807 16
47 1 -8.10468 5.02396 -11.4831 17
48 1 -5.04996 -0.733606 -11.0446 18
49 1 -3.25139 -4.0075 -11.2808 20
50 1 -3.57723 -5.89057 -8.25833 22
51 1 -5.10153 -2.89649 -8.51601 21
52 1 -5.11768 -0.281936 -5.78636 22
53 1 -3.72845 -3.38536 -5.78445 22
54 1 -3.58819 -5.31943 -2.94471 23
55 1 -4.83198 -2.5543 -2.84971 21
56 1 -5.25703 -13.0907 -5.34383 16
57 1 -2.23325 -13.0231 -6.11839 19
58 1 0.307172 -14.0035 -3.614 16
59 1 -2.74567 -9.73001 -13.3494 9
60 1 -0.208322 -4.13003 -10.2904 19
61 1 0.307102 -14.4181 -6.46451 11
62 1 -4.72182 -13.115 -8.56904 12
63 1 -1.91641 -9.85125 -7.98304 15
64 1 -2.48824 -6.702 -5.6649 22
65 1 -0.505787 -9.72461 -5.47368 18
66 1 -0.770666 -11.208 -3.05548 24
67 1 -2.28038 -8.22796 -2.99941 22
68 1 -0.180874 -6.67781 -13.9902 11
69 1 -1.54717 -3.30352 -13.2259 16
70 1 -1.82186 -1.16095 -11.0137 21
71 1 1.38209 -3.70306 -13.3819 18
72 1 -0.630703 -5.94785 -7.7597 21
73 1 -1.92479 -3.0483 -7.99811 20
74 1 -1.64122 -0.840612 -5.67376 22
75 1 -0.234761 -3.70703 -5.43918 22
76 1 -0.90049 -5.06689 -2.93307 19
77 1 -1.91553 -2.71977 -2.86329 23
78 2 -11.4338 -3.21086 -12.1255 10
79 2 -15.2288 -4.70717 1.65017 10
80 2 -15.2001 -2.67047 -0.481027 12
81 2 -14.5912 -0.65034 -3.53621 10
82 2 -13.5529 -5.29769 -1.57814 15
83 2 -6.89913 -8.67395 -11.456 11
84 2 -9.83982 -5.54248 -5.40821 15
85 2 -9.63321 -10.7742 -0.308232 17
86 2 -11.878 -8.10806 -0.884603 16
87 2 -7.83464 -13.0823 -0.310853 16
88 2 -9.38504 -8.29325 -6.07156 17
89 2 -10.5412 -3.9269 -9.54508 15
90 2 -12.006 -2.63298 -6.17564 16
91 2 -11.752 -1.2325 -9.98276 17
92 2 -13.5004 -3.91487 -9.11921 12
93 2 -10.4392 -5.54247 -0.291588 21
94 2 -12.1043 -2.6935 -0.35416 19
95 2 -11.9431 -0.387159 -3.86299 19
96 2 -10.1487 -3.2762 -3.33885 19
97 2 -10.7636 -9.7239 -3.68506 13
98 2 -7.59471 -9.59636 -4.07277 23
99 2 -9.66574 0.310407 -12.2672 13
100 2 -5.90984 -5.54388 -11.7622 13
101 2 -14.5538 -5.84557 -4.60503 8
102 2 -5.52663 -15.0839 -1.27525 12
103 2 -8.36228 -8.1708 -1.05435 21
104 2 -8.50586 -6.1824 -2.85768 19
105 2 -6.59623 -10.7211 -1.29639 21
106 2 -3.60497 -6.96855 -10.8535 16
107 2 -4.71654 -2.65104 -11.1976 20
108 2 -6.89325 -5.73543 -6.29547 18
109 2 -8.66385 -2.65495 -6.22226 18
110 2 -8.57122 -1.23629 -9.11789 21
111 2 -7.18327 -4.57329 -9.2838 17
112 2 -6.59944 -5.82053 -0.325143 21
113 2 -8.49229 -2.71901 -0.344396 20
114 2 -8.40793 -0.344864 -3.50619 19
115 2 -6.5225 -3.20528 -3.60515 21
116 2 -4.42564 -8.56487 -13.3246 11
117 2 -4.22714 -13.9131 -3.50848 17
118 2 -7.57709 -14.5817 -3.26855 10
119 2 -8.78521 -11.8758 -3.35886 16
120 2 -7.82993 -10.1507 -6.54912 18
121 2 -5.04839 -11.1671 -4.63493 20
122 2 -5.31448 -8.41775 -6.31062 20
123 2 -6.22392 -7.67584 -9.03872 18
124 2 -3.39258 -13.3204 -9.94678 10
125 2 -4.14398 -12.034 -1.1232 23
126 2 -5.20814 -8.19933 -0.846724 25
127 2 -5.4322 -6.49748 -3.59582 23
128 2 -3.89763 -9.52355 -3.20726 21
129 2 -3.45383 -4.85305 -13.1123 13
130 2 -8.33167 -2.98238 -11.2851 14
131 2 -6.61031 8.00319 -8.84312 18
132 2 -5.82376 -11.315 -11.2566 11
133 2 -4.02367 -5.47868 -6.16603 22
134 2 -5.38604 -2.4489 -6.16771 19
135 2 -5.37648 -0.728245 -8.92016 19
136 2 -3.44833 -4.02913 -8.56231 20
137 2 -3.24096 -5.64613 -1.13771 24
138 2 -5.25537 -2.49249 -0.932569 23
139 2 -5.21216 -0.538547 -2.98385 20
140 2 -3.5316 -3.63968 -3.94743 24
141 2 -4.03561 -13.0939 -6.85484 15
142 2 -7.13345 -13.0508 -5.63324 15
143 2 -2.49552 -15.2627 -1.20223 15
144 2 -1.90558 -12.7165 -2.73684 19
145 2 -1.19627 -14.3919 -4.91485 16
146 2 -2.81377 -11.0257 -11.8848 12
147 2 -1.94151 -1.65393 -13.8759 15
148 2 -2.03017 -10.9925 -6.44655 15
149 2 -2.45411 -8.46788 -5.18572 20
150 2 -3.20674 -8.21792 -8.47394 15
151 2 -0.605053 -9.26727 -9.15841 17
152 2 -0.773361 -11.2611 -0.903865 19
153 2 -1.83536 -8.3651 -0.801519 19
154 2 -2.31497 -6.45807 -3.44207 21
155 2 -0.42822 -9.09807 -3.8204 20
156 2 -0.894447 -8.47163 -13.5067 12
157 2 -1.60258 -3.09521 -11.3436 20
158 2 -0.180101 -4.72622 -13.8544 13
159 2 1.34116 -7.04898 -13.1625 12
160 2 -0.889977 -5.41207 -5.88385 21
161 2 -1.85511 -2.6395 -6.21481 23
162 2 -2.11813 -1.14741 -8.89658 25
163 2 -0.185713 -4.11584 -8.28837 20
164 2 -0.176068 -5.54011 -0.996884 22
165 2 -1.68403 -2.68469 -0.902398 23
166 2 -1.85129 -0.765775 -3.56018 24
167 2 0.0599495 -3.33139 -3.46674 22
168 1 -7.21614 -11.3456 -9.92567 13
169 1 -11.8626 -8.39276 -2.70079 14
170 1 -15.5699 -2.90341 1.41464 11
171 1 -13.6387 -3.76473 -0.28874 18
172 1 -14.4296 -6.08523 2.47488 12
173 1 -14.7894 -1.05218 -1.60149 15
174 1 -14.868 -4.85003 5.97604 9
175 1 -16.0935 2.6211 3.89242 8
176 1 -11.9695 -2.72879 6.95089 16
177 1 -12.2278 -6.5294 -0.162754 17
178 1 -10.2907 -8.92823 -0.122728 19
179 1 -10.4273 -12.2793 3.5808 9
180 1 -12.3666 -8.51298 2.4867 13
181 1 -12.1719 -6.25915 5.02011 17
182 1 -10.7167 -9.57964 5.19462 17
183 1 -13.2835 -6.93237 10.5944 10
184 1 -11.7869 -0.783302 -0.357346 22
185 1 -10.1708 -3.67738 -0.263826 20
186 1 -10.6598 -5.68993 1.96033 21
187 1 -12.063 -2.52156 1.9671 21
188 1 -13.8979 -1.78032 4.21945 14
189 1 -10.5659 -3.60697 3.95402 19
190 1 -10.2925 -5.46425 7.72035 20
191 1 -11.3385 -1.09591 10.8958 14
192 1 -13.1274 1.74519 9.83622 8
193 1 -12.1613 -8.00651 8.02797 15
194 1 -9.41063 -12.4391 0.48035 13
195 1 -10.8864 -10.2578 8.58535 12
196 1 -8.60584 -6.12884 -0.598077 19
197 1 -7.23399 -9.27603 -0.118209 24
198 1 -7.10656 -11.1473 2.52108 19
199 1 -8.95219 -8.67072 2.72923 23
200 1 -8.99858 -6.35075 4.76867 21
201 1 -6.88959 -9.24717 5.02954 19
202 1 -7.09757 -11.2815 7.79419 18
203 1 -8.63587 -8.71496 7.27608 19
204 1 -7.37103 -5.44089 12.7987 15
205 1 -8.39421 -6.6777 10.2302 18
206 1 -8.41792 -0.498398 -0.465612 22
207 1 -6.75333 -3.24151 -0.030673 21
208 1 -7.116 -5.88836 1.79638 23
209 1 -8.58278 -2.59569 1.98726 21
210 1 -8.67897 -0.933764 4.70437 21
211 1 -7.10429 -4.07498 4.17087 20
212 1 -7.09928 -5.43911 6.85224 23
213 1 -8.44246 -2.38894 6.89148 19
214 1 -8.26493 -2.38765 12.9396 14
215 1 -11.6972 -3.92453 12.0593 11
216 1 -8.83896 -11.2219 10.5709 12
217 1 -10.0261 -3.40703 9.84888 21
218 1 -5.76511 -11.9107 -0.0921615 21
219 1 -2.4412 -14.7889 -3.1662 16
220 1 -5.19065 -13.7206 2.39547 17
221 1 -9.96759 -11.9308 6.98276 12
222 1 -5.44738 -12.3294 5.27873 18
223 1 -4.64065 -6.53821 -0.0490483 20
224 1 -3.49716 -9.39735 -0.420888 24
225 1 -3.78549 -11.0564 2.67711 24
226 1 -5.5092 -8.53702 1.87451 24
227 1 -5.08892 -6.67251 4.46543 19
228 1 -3.70558 -9.2716 5.30319 25
229 1 -3.7323 -11.6967 8.11044 22
230 1 -5.17703 -8.57154 7.57695 19
231 1 -2.12098 -6.49891 10.3306 22
232 1 -5.69146 -12.6843 10.8886 13
233 1 -5.51158 -8.20603 13.0956 12
234 1 -4.99207 -0.680817 -0.537913 22
235 1 -3.37354 -3.72179 -0.295155 23
236 1 -3.44552 -5.3385 2.32107 22
237 1 -4.99846 -2.35531 2.18443 21
238 1 -5.25247 -1.08263 4.57133 22
239 1 -3.79063 -3.69504 4.73196 23
240 1 -3.50661 -5.34753 7.21984 21
241 1 -5.30545 -2.5497 7.80309 24
242 1 -5.23667 -0.929932 10.3628 22
243 1 -5.1587 -6.39702 9.54424 17
244 1 1.58143 -3.2238 13.2015 15
245 1 -6.96493 -3.74457 9.90536 21
246 1 -2.29549 -12.6175 -0.480595 23
247 1 -0.64626 -15.2752 -0.706324 14
248 1 -1.99576 -14.4238 2.37715 18
249 1 -2.46183 -12.4649 4.83308 19
250 1 -3.6133 -15.208 5.2644 14
251 1 -5.49293 -14.3104 8.17706 15
252 1 -2.1836 -12.752 10.1591 15
253 1 -1.6836 -6.58428 -0.326941 25
254 1 -0.43112 -9.40351 -0.268915 23
255 1 -0.611157 -11.5232 2.21101 21
256 1 -2.01402 -8.30687 2.44625 22
257 1 -1.90821 -6.97688 5.18908 19
258 1 -0.0510724 -9.62649 4.97912 25
259 1 -0.715222 -11.3667 7.24454 21
260 1 -2.23113 -8.96736 8.10887 23
261 1 -3.80761 -3.70693 10.6478 22
262 1 -1.93509 -8.53235 12.3782 12
263 1 -6.74622 -9.35241 10.4302 18
264 1 -1.38385 -0.503502 -0.593348 23
265 1 -0.226714 -3.64222 -0.272688 23
266 1 -0.292567 -5.699 2.12815 19
267 1 -1.48462 -2.70237 2.28049 22
268 1 -1.65783 -1.15849 4.68654 22
269 1 -0.43016 -4.07951 4.84778 18
270 1 -0.390586 -5.54424 7.44815 22
271 1 -2.22545 -2.99792 7.56653 22
272 1 -1.20245 2.69633 13.1129 11
273 1 -1.63648 -1.11463 9.94457 22
274 1 -3.6421 -9.68494 10.6533 20
275 1 -0.205789 -4.04712 10.5666 23
276 2 -8.44472 -9.58929 -9.57363 12
277 2 -11.4861 -6.75674 -3.41473 17
278 2 -13.6626 -3.48623 6.98513 14
279 2 -13.5571 -0.38438 5.53455 13
280 2 -13.583 -0.0687647 -0.49537 19
281 2 -14.4632 -5.81921 4.35544 11
282 2 -11.8601 -2.76826 10.0444 16
283 2 -13.382 -5.31735 9.76452 12
284 2 -10.5952 -11.5512 5.23025 9
285 2 -12.2359 -8.40154 4.54565 15
286 2 -12.7635 -6.9356 1.8761 15
287 2 -10.7619 -9.09849 1.9567 17
288 2 -11.8141 -6.34754 6.99556 20
289 2 -10.6941 -9.01599 7.07142 18
290 2 -10.7841 -5.51611 3.99854 21
291 2 -12.3944 -2.95778 3.929 19
292 2 -11.9595 -0.46312 1.49242 19
293 2 -10.3521 -3.58602 1.87302 19
294 2 -6.70522 -3.64102 13.2247 16
295 2 -9.67768 -5.49663 9.61001 20
296 2 -10.3071 -3.59632 7.64868 18
297 2 -12.5186 -5.86893 12.467 10
298 2 -12.8135 0.123665 10.604 8
299 2 -9.0303 -12.1399 2.36539 11
300 2 -2.40835 -12.4886 6.94396 24
301 2 -6.5196 -10.9961 4.44496 18
302 2 -8.89806 -8.90293 4.86626 20
303 2 -8.74501 -6.48665 2.56505 20
304 2 -7.29476 -9.206 1.86787 21
305 2 -12.5906 -8.68711 9.64634 10
306 2 -6.80426 -9.62381 7.06549 21
307 2 -8.64253 -6.65272 6.95211 18
308 2 -5.85909 -12.5602 7.52331 16
309 2 -7.03785 -11.7456 10.0634 15
310 2 -6.90444 -6.00079 4.49296 20
311 2 -8.66107 -2.84298 4.42819 22
312 2 -8.57834 -0.613208 1.87936 23
313 2 -6.7123 -3.64385 1.92123 20
314 2 -10.5936 -10.6892 10.5083 12
315 2 -8.59594 -2.3153 10.06 21
316 2 -7.95828 -0.588132 6.84039 23
317 2 -7.08387 -3.54191 7.6966 21
318 2 -3.28112 -3.9402 12.6563 18
319 2 -5.25479 -8.32608 9.45747 21
320 2 -5.34272 -12.0313 1.68665 21
321 2 -6.51649 -12.3119 -8.54859 13
322 2 -3.61683 -14.4064 1.44598 16
323 2 0.968516 -12.2259 7.22872 15
324 2 -3.67809 -11.043 4.63639 22
325 2 -5.49926 -8.52845 4.00771 20
326 2 -5.19857 -6.41944 2.37814 20
327 2 -3.62058 -9.30545 1.58864 23
328 2 -4.80812 -14.2614 10.1326 13
329 2 -9.08164 -11.2508 8.4572 13
330 2 -5.28299 -6.18324 7.29196 18
331 2 -3.68039 -9.86865 7.34551 20
332 2 -4.88731 -1.1266 12.4965 17
333 2 -3.64269 -11.5292 10.0003 19
334 2 -3.59083 -5.69689 5.21228 20
335 2 -5.63939 -2.89974 4.12897 24
336 2 -4.95639 -0.282821 1.41721 22
337 2 -3.49509 -3.55216 1.48417 23
338 2 -5.0909 -14.0594 4.55746 15
339 2 -4.96021 -2.70373 9.75062 22
340 2 -5.20085 -0.86369 6.44907 24
341 2 -3.85375 -3.33223 6.90765 20
342 2 -1.79502 -1.27313 13.8556 13
343 2 -5.63668 -6.44112 13.5005 13
344 2 1.73203 -1.30388 13.3178 15
345 2 -4.13488 -9.31603 12.5626 12
346 2 -2.08476 -14.9344 4.10598 17
347 2 -2.36067 -12.3251 1.98664 19
348 2 -0.514313 -14.9247 1.29772 17
349 2 -4.30353 -15.6882 7.38604 10
350 2 -0.612408 -11.6009 4.45984 22
351 2 -1.85042 -8.62498 4.41926 23
352 2 -2.35417 -6.5064 1.33869 23
353 2 -0.595718 -9.34999 1.93765 21
354 2 -0.453013 -14.2798 8.61871 13
355 2 -2.20749 -8.55532 9.95838 20
356 2 -1.92289 -7.03886 7.14556 20
357 2 -0.467122 -9.28205 6.9099 22
358 2 -7.11928 -9.39301 12.4761 14
359 2 -8.57491 -8.70669 10.4387 19
360 2 -0.31547 -5.75345 4.09976 22
361 2 -2.1452 -2.80086 4.14326 21
362 2 -1.52958 -0.694878 1.66004 23
363 2 -0.033803 -3.81059 1.35662 21
364 2 -0.350403 -6.00202 9.42293 23
365 2 -3.60931 -5.51055 9.77055 21
366 2 -2.06348 -1.11745 7.09239 20
367 2 -0.25577 -3.50401 6.67441 22
368 2 -9.90613 -3.61843 12.6898 14
369 2 5.8984 -4.15367 11.9106 14
370 2 -2.04803 -3.01509 9.6291 22
371 2 2.97068 -5.82949 9.35915 21
372 1 -13.6232 -0.0940592 -9.87775 11
373 1 -12.8607 1.62755 -7.15296 15
374 1 -13.3972 0.638027 -4.15177 15
375 1 -14.9657 5.46794 -1.07927 9
376 1 -13.9918 9.42075 -9.10396 5
377 1 -11.4113 5.15699 -6.16292 19
378 1 -11.6048 2.91309 -9.46894 14
379 1 -10.0774 -0.061543 -8.82231 22
380 1 -13.0609 4.60248 -7.91498 11
381 1 -13.5438 7.79071 -6.24761 9
382 1 -10.2015 2.2395 -6.49969 21
383 1 -10.1697 0.267713 -3.15485 22
384 1 -11.6646 3.07951 -3.62289 18
385 1 -7.10346 14.3633 -6.07201 10
386 1 -11.1034 8.98031 -10.038 13
387 1 -9.98886 5.81699 -3.57281 22
388 1 -9.88257 10.5735 -1.51083 15
389 1 -10.217 8.14216 -6.22896 19
390 1 -12.7883 6.66848 -10.7362 8
391 1 -8.89437 3.78798 -13.8778 7
392 1 -10.4553 6.30236 -9.7839 18
393 1 -6.46089 2.09341 -12.0204 17
394 1 -6.91092 0.415054 -8.67113 22
395 1 -8.37375 3.25793 -8.71617 21
396 1 -8.42987 4.87192 -6.01654 22
397 1 -6.83165 2.4863 -5.87777 22
398 1 -6.76547 0.630996 -2.82547 25
399 1 -8.66868 3.15735 -3.51533 20
400 1 -6.47598 7.77776 -12.2005 17
401 1 -8.32168 9.01803 -8.641 17
402 1 -6.86779 6.09937 -8.68257 22
403 1 -9.61167 7.61283 -13.0666 10
404 1 -11.4781 9.52646 -4.0692 12
405 1 -7.06384 7.89897 -6.20933 21
406 1 -6.60654 5.85823 -3.04488 21
407 1 -8.47503 8.62254 -3.14104 22
408 1 -2.04155 10.2451 -11.6509 11
409 1 -7.96009 10.7228 -5.55548 15
410 1 -6.74038 11.8739 -3.35666 16
411 1 -3.37416 -0.531726 -13.5211 14
412 1 -3.37758 4.26674 -13.8936 11
413 1 -4.7679 4.74631 -11.3942 21
414 1 -3.1826 1.74459 -11.2786 22
415 1 -3.69727 0.0528921 -8.47647 22
416 1 -5.08794 2.96028 -8.60892 21
417 1 -5.14287 5.06477 -6.07501 22
418 1 -3.53746 2.13181 -6.32666 19
419 1 -3.41038 0.365303 -3.15853 20
420 1 -4.94757 3.15099 -3.18546 25
421 1 -1.44652 2.42947 -14.8286 10
422 1 -3.488 12.0317 -8.18055 18
423 1 -2.92105 7.41187 -12.5727 17
424 1 -3.69978 6.07474 -9.13386 19
425 1 -4.90823 8.94011 -9.1194 18
426 1 -4.97699 10.4654 -5.8938 20
427 1 -3.5717 7.78572 -5.87296 23
428 1 -3.55918 6.03511 -3.22236 22
429 1 -5.06431 8.64832 -3.39676 22
430 1 -6.53666 11.6201 -9.03241 17
431 1 -3.81056 13.7962 -6.00863 19
432 1 -3.48443 12.0319 -3.2342 23
433 1 -5.30161 15.0662 -3.34991 13
434 1 -0.250296 -0.638902 -13.9615 16
435 1 0.0321709 5.17334 -13.9203 15
436 1 -1.7276 4.74647 -11.436 20
437 1 0.229478 1.68693 -11.245 18
438 1 -0.23078 -0.147981 -8.5115 21
439 1 -1.56747 2.65117 -8.2615 23
440 1 -1.89682 4.95943 -5.55277 25
441 1 -0.3885 1.93348 -5.60304 23
442 1 0.162955 0.125298 -2.9804 23
443 1 -2.11738 3.10388 -3.16144 22
444 1 -4.83023 10.037 -13.7977 9
445 1 -5.51817 14.5936 -8.87399 11
446 1 -7.86978 10.4567 -11.8162 10
447 1 0.0845525 7.50313 -11.282 15
448 1 -0.171396 5.37113 -8.75482 23
449 1 -1.94908 8.59359 -8.84854 21
450 1 -2.00684 10.176 -5.78669 21
451 1 -0.0804367 7.65882 -6.20223 23
452 1 0.0502911 5.72338 -3.09961 22
453 1 -1.45691 8.68708 -3.11724 22
454 1 -2.35925 14.7519 -8.97959 12
455 1 -4.74223 12.2281 -11.6762 10
456 1 -0.380531 11.574 -3.47362 22
457 1 -1.61619 14.7775 -3.41864 14
458 2 -12.794 1.46367 -9.06149 14
459 2 -14.1911 0.460618 -6.0817 14
460 2 -10.0862 2.13956 -4.28606 25
461 2 -13.4456 6.35295 -1.37556 16
462 2 -13.1032 1.94462 -2.7091 17
463 2 -14.9671 -3.32814 -6.57047 11
464 2 -12.1947 5.1197 -9.69036 13
465 2 -11.5247 7.94234 0.594701 21
466 2 -12.9694 6.23965 -6.69282 12
467 2 -12.2159 -5.83613 -7.2794 11
468 2 -10.7753 0.147917 -7.00531 21
469 2 -11.889 3.33667 -7.19895 18
470 2 -8.98478 5.52059 -13.397 9
471 2 -14.5331 -1.49859 -9.62227 7
472 2 -10.016 0.152417 -0.982057 23
473 2 -12.2273 4.48058 1.85018 19
474 2 -11.5521 5.02177 -4.09786 18
475 2 -11.2827 3.34075 -1.51542 18
476 2 -8.60854 5.23376 -9.35315 19
477 2 -8.146 10.3974 -9.78654 13
478 2 -6.39475 10.8856 -12.8804 10
479 2 -10.4535 7.87025 -2.81816 20
480 2 -12.2685 7.94063 -4.76654 14
481 2 -11.0509 7.34387 -11.4503 11
482 2 -9.61836 9.18516 -4.83513 15
483 2 -11.9593 10.1922 -2.36168 14
484 2 -6.74328 0.26715 -11.6049 16
485 2 -9.92178 2.07604 -9.4725 18
486 2 -12.9592 8.56006 -10.2324 8
487 2 -7.02055 0.0946614 -6.61991 21
488 2 -8.51877 2.95756 -6.91182 23
489 2 -14.1778 9.00238 -7.48554 6
490 2 -6.87847 2.39928 -9.24729 20
491 2 -6.81392 0.511473 -0.918379 22
492 2 -8.27254 3.11809 -1.6227 25
493 2 -8.45098 5.06982 -3.98927 22
494 2 -6.90677 2.23705 -4.05192 23
495 2 -9.98539 8.03384 -8.73585 15
496 2 -7.06652 5.9381 -6.67632 20
497 2 -8.06715 9.40956 -6.74174 17
498 2 -3.60854 10.9466 -12.6378 9
499 2 -8.15764 8.79758 -12.2972 14
500 2 -6.54263 5.99038 -1.03276 24
501 2 -8.74041 8.85638 -0.317944 20
502 2 -5.3404 14.6228 -5.14265 13
503 2 -6.82641 7.78587 -3.11208 20
504 2 -9.70851 6.26225 -6.0028 21
505 2 -6.44501 11.5934 -0.386555 18
506 2 -7.18803 12.4979 -5.20108 13
507 2 -3.36857 -0.280683 -11.5746 20
508 2 -4.78004 2.77768 -11.8371 18
509 2 -1.4815 2.78764 -11.2065 22
510 2 -8.20185 3.18947 -12.2875 14
511 2 -3.41394 0.215171 -6.12942 21
512 2 -5.05942 3.09089 -6.56895 24
513 2 -5.25375 4.78551 -9.17164 19
514 2 -3.6246 1.8902 -9.07733 21
515 2 -3.24714 0.177494 -1.13614 25
516 2 -4.76616 3.1874 -1.17407 24
517 2 -5.11036 4.94892 -3.90618 23
518 2 -3.69103 2.05489 -3.84844 23
519 2 -6.45559 5.94989 -11.5392 18
520 2 -4.70641 7.97719 -13.1093 12
521 2 -3.55966 5.96259 -6.35066 20
522 2 -5.4067 8.783 -5.86449 18
523 2 -8.39984 10.57 -2.75447 19
524 2 -3.57762 7.76764 -9.6275 22
525 2 -3.34388 6.07277 -1.10674 23
526 2 -5.37656 8.90345 -0.0365687 18
527 2 -5.18841 10.7967 -3.87333 20
528 2 -3.32139 7.98161 -4.05336 21
529 2 -6.86028 13.7646 -7.94317 10
530 2 -3.41662 11.7677 -1.33654 21
531 2 -6.19815 13.8297 -2.41382 14
532 2 -3.574 14.3311 -2.97325 16
533 2 -0.205931 -0.291287 -11.6774 22
534 2 -3.43545 5.54066 -12.4397 17
535 2 -2.95606 1.36873 -13.9987 12
536 2 0.254415 1.15743 -14.6187 14
537 2 -0.0717766 0.253452 -6.53954 21
538 2 -1.72848 3.03905 -6.31454 22
539 2 -2.11297 4.9455 -9.2765 21
540 2 -0.0195949 1.73678 -9.14122 22
541 2 0.21604 0.178949 -1.03037 22
542 2 -1.73327 3.16799 -1.15502 24
543 2 -1.83687 5.04038 -3.65702 23
544 2 -0.4181 2.11772 -3.43869 22
545 2 0.643144 5.68346 -12.1473 18
546 2 -4.97328 10.6795 -8.29296 19
547 2 -0.497855 5.5817 -6.76117 21
548 2 -1.79126 8.48865 -6.72571 23
549 2 -5.25957 12.8946 -9.93336 11
550 2 -0.446023 7.41742 -9.14631 18
551 2 0.017839 6.51667 -1.11694 21
552 2 -1.83327 9.01756 -1.24815 23
553 2 -2.1037 10.711 -3.76619 20
554 2 0.0936509 7.848 -3.90598 23
555 2 -1.17971 13.4835 -8.12526 15
556 2 -3.08808 11.7252 -6.3504 20
557 2 -1.34761 8.41535 -11.9875 13
558 2 0.139474 11.6271 -1.54329 20
559 2 0.0299695 13.4064 -3.42949 19
560 2 3.75171 12.3523 -7.37327 13
561 1 -12.2426 6.70678 -3.13955 21
562 1 -13.3122 1.93187 -0.747567 19
563 1 -13.6842 0.0761301 1.73542 17
564 1 -15.5004 2.85507 1.14492 10
565 1 -14.1407 5.59141 2.52576 15
566 1 -14.4302 4.37364 5.52408 12
567 1 -10.7919 -6.66064 13.2022 11
568 1 -13.4052 7.62537 0.0671997 18
569 1 -10.9961 9.10999 2.41443 22
570 1 -9.44399 7.30456 4.80271 19
571 1 -13.0835 7.57509 4.80601 14
572 1 -12.0177 4.82283 -0.34016 21
573 1 -9.87109 2.11864 -0.632968 24
574 1 -10.4572 0.451087 2.04812 19
575 1 -11.8027 2.81684 2.73995 17
576 1 -11.1031 4.28002 5.65023 18
577 1 -9.58253 1.86137 4.95465 19
578 1 -9.87731 0.0686885 7.97607 21
579 1 -13.512 -3.79716 9.05096 12
580 1 -10.0658 2.46242 9.72353 16
581 1 -11.5726 -0.318071 5.27576 17
582 1 -8.31398 -0.50597 10.4503 17
583 1 -12.5725 10.5212 -0.786359 11
584 1 -10.0748 7.59906 -0.896402 25
585 1 -10.8653 5.8977 1.62542 17
586 1 -14.2755 9.50106 2.077 9
587 1 -9.0607 4.8039 9.08436 15
588 1 -10.2386 12.3413 5.45828 12
589 1 -10.9135 6.19065 7.32497 14
590 1 -13.9518 1.53406 6.45267 11
591 1 -4.55807 9.14019 7.65952 21
592 1 -9.58073 7.99659 9.52829 10
593 1 -8.39156 4.93415 -0.701583 21
594 1 -6.5752 2.45256 -0.452717 22
595 1 -6.89237 0.267137 2.01117 20
596 1 -8.22954 3.19881 2.19774 22
597 1 -7.79223 4.895 5.44952 20
598 1 -6.54097 1.58226 4.85326 22
599 1 -6.47673 0.30427 7.59119 22
600 1 -7.71628 2.82625 7.48744 21
601 1 -6.60768 2.56473 10.3207 21
602 1 -6.20966 0.143609 13.0716 13
603 1 -5.01024 -2.96451 13.0314 17
604 1 -8.89972 -8.4847 12.5663 14
605 1 -8.09624 10.6578 0.254449 18
606 1 -6.96702 7.82592 -0.496708 20
607 1 -6.38491 5.74972 2.32418 21
608 1 -8.23491 8.60668 2.22967 21
609 1 -10.0757 12.0152 2.0038 10
610 1 -6.01559 7.75537 4.73583 21
611 1 -6.23896 5.80263 7.9997 21
612 1 -9.75792 11.1532 8.48569 11
613 1 -11.5005 9.43044 6.75205 12
614 1 -4.13318 11.2469 10.434 13
615 1 -6.28306 13.4086 -0.667954 12
616 1 -6.33553 12.2363 2.59566 18
617 1 -8.38961 10.7097 4.28144 18
618 1 -2.81589 7.73215 9.46489 21
619 1 -4.82732 5.12915 -0.414764 23
620 1 -3.34202 2.01626 -0.631329 21
621 1 -3.32757 0.420928 1.84068 21
622 1 -5.12978 3.31023 2.17036 23
623 1 -4.77321 4.95316 4.9119 21
624 1 -3.67515 1.85418 4.74205 20
625 1 -3.57358 0.0549643 7.35337 22
626 1 -4.54766 3.04507 7.85291 24
627 1 -4.6365 5.13806 10.7451 18
628 1 -3.05205 2.065 10.5486 21
629 1 -1.63481 -2.94847 12.9385 17
630 1 -3.03807 -0.195677 13.1648 15
631 1 -4.73208 10.7353 0.023049 19
632 1 -3.24595 7.9025 -0.633541 22
633 1 -2.98394 6.12644 2.10023 22
634 1 -4.77572 8.61186 2.21465 19
635 1 -4.93849 10.7064 4.70407 22
636 1 -3.11474 7.8835 5.31461 23
637 1 -3.04035 6.06181 7.40758 22
638 1 -1.44704 14.956 7.03359 9
639 1 -5.71691 3.52731 13.3712 8
640 1 -1.3499 7.96613 13.2656 9
641 1 -3.7422 9.30679 13.1239 9
642 1 -5.13579 6.82721 13.4275 9
643 1 -3.4307 14.075 -1.09802 16
644 1 -3.2556 11.4417 2.40934 20
645 1 -4.71468 14.7976 1.94444 10
646 1 -7.22765 13.8945 4.85952 14
647 1 -12.8702 4.103 8.55938 11
648 1 -1.59622 5.18508 -0.615009 25
649 1 -0.00360079 2.25931 -0.397866 24
650 1 0.0934501 0.260755 2.2552 22
651 1 -1.78843 3.57372 2.24679 22
652 1 -2.0161 4.60464 5.32275 21
653 1 -0.112467 1.96811 4.64309 20
654 1 -0.407331 -0.38999 6.93773 18
655 1 -1.54477 2.42161 7.66024 23
656 1 0.878787 5.34991 12.5739 12
657 1 1.47641 -0.846051 9.94482 21
658 1 1.68534 2.40237 13.53 15
659 1 0.252368 1.93065 10.2285 21
660 1 -1.65769 10.9908 -0.773368 21
661 1 0.313258 8.39099 -0.524849 23
662 1 0.194232 6.18385 2.39204 23
663 1 -1.25254 8.79442 2.04458 20
664 1 -1.33186 11.0206 5.10091 22
665 1 0.29738 8.48351 5.00085 20
666 1 0.0283012 6.04263 7.80572 24
667 1 -1.39513 9.15918 7.54758 22
668 1 -7.6056 9.21476 7.79113 18
669 1 -0.0609469 7.62322 10.5496 20
670 1 -3.25218 11.9338 7.51361 17
671 1 -6.2334 8.29347 10.6466 15
672 1 4.06881 13.2545 -5.59029 14
673 1 0.161458 13.59 -1.26599 17
674 1 0.170067 11.8216 2.20146 21
675 1 -1.53352 14.0499 1.28291 17
676 1 0.56729 13.8374 4.66761 15
677 1 -0.231733 12.0028 8.3089 15
678 1 -6.07114 12.2442 7.4171 17
679 1 -4.93692 14.4733 7.99031 10
680 2 -14.3603 -1.72528 2.31392 15
681 2 -15.0548 4.1154 -0.11571 12
682 2 -15.0327 3.87602 2.95867 11
683 2 -15.2887 1.21669 2.4803 13
684 2 -15.0776 2.78436 5.47404 10
685 2 -6.02041 1.88481 12.2478 15
686 2 -14.5662 7.46495 1.88082 14
687 2 -13.7973 9.73562 0.299519 9
688 2 -10.3423 0.157774 4.09081 21
689 2 -11.251 2.86786 4.42081 17
690 2 -10.3142 5.62061 -0.333453 19
691 2 -10.1535 2.48102 1.4553 23
692 2 -10.6721 -1.1725 6.72549 18
693 2 -11.7301 3.07958 10.1767 10
694 2 -9.64054 1.95897 6.83814 23
695 2 -2.78586 1.56644 12.2656 20
696 2 -12.4979 4.43083 6.67831 15
697 2 -9.66528 5.7707 5.87667 16
698 2 -12.8527 9.31586 3.30727 12
699 2 -9.85984 11.4543 0.103671 14
700 2 -10.0289 7.38513 2.39934 18
701 2 -13.2274 2.27549 8.01149 12
702 2 -13.8729 5.84758 4.61353 13
703 2 -10.291 10.9509 3.76695 15
704 2 -6.80315 -0.109069 3.91229 23
705 2 -7.97265 3.0874 4.47794 22
706 2 -7.92374 4.74684 1.11702 18
707 2 -7.04315 2.06676 1.42293 23
708 2 -6.37684 0.263817 9.52412 23
709 2 -9.73926 0.387327 9.80626 19
710 2 -8.34716 3.28476 9.71938 17
711 2 -6.13983 2.16259 6.84748 24
712 2 -8.76569 -6.54737 12.8954 14
713 2 -7.73638 -0.991158 12.19 14
714 2 -11.1394 -8.34866 12.5822 10
715 2 -6.29776 5.80056 4.66703 19
716 2 -8.4392 8.85077 4.26124 18
717 2 -8.10018 11.1889 2.42017 18
718 2 -6.74543 7.70864 2.31941 20
719 2 -6.11474 8.29321 6.89334 19
720 2 -9.68103 9.21948 8.08444 12
721 2 -11.5235 7.59147 5.98482 15
722 2 -7.69838 4.56324 7.68719 19
723 2 -3.13696 7.64961 13.7437 7
724 2 -6.69763 11.9486 4.84938 17
725 2 -4.76084 14.3773 0.126457 14
726 2 -10.8517 11.3317 6.80766 11
727 2 -8.89695 13.6282 5.70394 12
728 2 -3.31689 -0.117553 4.03315 23
729 2 -4.84401 3.21121 4.06959 24
730 2 -4.83536 5.08694 1.5736 23
731 2 -3.25434 2.27922 1.30579 24
732 2 -3.75054 0.218283 9.16867 22
733 2 -4.66101 3.34334 9.74359 23
734 2 -4.70146 5.03713 6.98931 22
735 2 -3.09445 2.04194 6.62951 23
736 2 -7.19348 -5.37743 10.7994 21
737 2 -6.17899 6.31844 9.69008 21
738 2 -1.57389 9.65024 12.4825 13
739 2 0.243278 1.41305 12.6989 19
740 2 -3.12138 5.89442 4.45566 23
741 2 -4.57248 8.92142 4.36273 20
742 2 -5.11811 10.8104 2.1781 19
743 2 -3.05516 7.90334 1.2546 23
744 2 -3.20657 5.82361 9.5838 19
745 2 -5.30546 8.51295 12.2963 12
746 2 -8.03181 8.99649 9.79168 11
747 2 -3.1202 7.90114 7.47853 21
748 2 -1.03871 -1.65201 11.5542 18
749 2 -7.89272 11.9858 8.09896 15
750 2 -3.0748 11.5454 4.50297 18
751 2 -6.04349 14.2628 3.26472 12
752 2 -3.23711 13.6165 2.50788 15
753 2 -10.5573 6.19858 9.26795 13
754 2 -6.59151 14.3632 6.9863 11
755 2 0.06589 -0.108138 4.66406 21
756 2 -1.76443 3.12021 4.18163 22
757 2 -1.32293 5.27258 1.32278 23
758 2 -0.032928 2.39894 1.64016 23
759 2 -0.275281 0.187645 9.6854 21
760 2 -1.51257 3.08273 9.65381 21
761 2 -1.46313 4.85441 7.48141 19
762 2 -0.0930331 1.82658 6.54794 22
763 2 0.266351 3.75174 13.2626 11
764 2 -5.18797 5.08245 12.7234 11
765 2 -3.23901 14.6575 7.3784 9
766 2 6.5686 5.92952 11.5399 13
767 2 0.57155 6.49021 4.35749 21
768 2 -1.49104 8.83937 4.57251 21
769 2 -1.53941 10.9695 1.38125 21
770 2 0.39367 8.20297 1.44322 22
771 2 0.291829 7.08536 12.5358 12
772 2 0.0785229 5.31496 9.56508 22
773 2 -1.06303 14.5906 5.08989 13
774 2 0.272163 7.95775 7.13644 23
775 2 2.34834 14.598 5.09076 14
776 2 -4.35424 9.14064 9.9977 20
777 2 -4.80805 12.2715 9.13539 11
778 2 0.106185 11.9283 4.16002 20
779 2 0.340147 13.9534 2.00888 15
780 2 1.48788 10.33 -8.13841 16
781 2 -1.21331 14.5838 -0.696897 14
782 2 -1.46869 10.9283 7.00409 20
783 2 0.276601 13.9824 7.46437 12
784 1 2.19411 -12.7248 -5.38352 15
785 1 1.37996 -11.6449 -8.76515 16
786 1 -1.54036 -13.8956 -9.57629 11
787 1 8.97695 -6.41707 -10.786 14
788 1 1.11694 -6.75575 -11.0123 24
789 1 0.585869 -9.47393 -13.4663 8
790 1 -1.1482 -10.905 -10.7577 14
791 1 0.910598 -8.65516 -8.47612 19
792 1 1.22777 -6.50805 -5.46388 21
793 1 2.72871 -9.22293 -5.94253 23
794 1 3.16198 -11.0297 -3.06942 16
795 1 1.31527 -8.61613 -3.26868 16
796 1 3.34335 -6.53627 -13.1745 11
797 1 4.59208 -3.23212 -13.4095 16
798 1 1.61085 -1.29993 -11.364 19
799 1 3.3275 -4.37072 -10.8443 19
800 1 3.06643 -5.93248 -7.71632 24
801 1 1.33167 -3.07561 -8.32077 20
802 1 1.50558 -0.553419 -5.78712 23
803 1 3.36665 -3.67522 -5.39884 23
804 1 3.47329 -5.70798 -3.75368 18
805 1 1.6566 -2.66337 -3.5031 21
806 1 8.78327 -6.5982 -6.03138 19
807 1 2.3734 -14.8234 -1.26615 16
808 1 2.98171 -9.76551 -11.0168 12
809 1 14.0278 -5.82318 -7.43114 11
810 1 4.98141 -14.0284 -3.53009 15
811 1 4.45796 -9.23523 -8.00904 16
812 1 5.35402 -7.05221 -6.4005 17
813 1 6.98499 -9.50035 -10.7877 8
814 1 8.05996 -11.7951 -7.87511 9
815 1 5.26572 -8.89178 -4.30428 17
816 1 9.0143 -4.39178 -13.4198 8
817 1 11.7681 2.07883 -13.0517 13
818 1 4.94046 -1.5036 -11.235 20
819 1 6.5023 -4.32137 -11.0165 20
820 1 6.66574 -5.74825 -8.55734 17
821 1 4.953 -2.94291 -8.49939 21
822 1 5.22193 -1.12476 -5.8524 20
823 1 7.05824 -3.82495 -6.0489 23
824 1 7.1084 -5.65277 -3.38635 20
825 1 5.39861 -2.92055 -2.92428 21
826 1 3.08992 -15.8983 -4.80265 10
827 1 10.4738 -0.976672 -13.4673 12
828 1 4.92329 -7.17623 -10.3451 18
829 1 10.9552 -5.41897 -8.50949 20
830 1 9.91076 -10.217 -6.16826 11
831 1 5.41729 -16.0651 -1.49632 10
832 1 8.03998 -8.21335 -3.53496 18
833 1 17.0508 -2.43186 -7.08776 7
834 1 10.089 -2.83915 -11.1418 18
835 1 11.3289 -2.35537 -8.38421 19
836 1 12.0094 -6.60561 -5.66835 16
837 1 8.37261 -2.94796 -8.81575 17
838 1 8.60521 -0.79388 -6.09236 23
839 1 10.2892 -3.72232 -5.88566 22
840 1 10.4138 -5.88663 -3.26206 19
841 1 8.92208 -2.94581 -3.32631 21
842 1 12.3359 -0.0539579 -10.1628 17
843 1 9.19266 -8.60668 -8.54371 16
844 1 7.8227 -11.3157 -4.25477 16
845 1 9.45539 0.330531 -10.9857 19
846 1 11.8627 -8.36097 -8.91441 11
847 1 14.4544 2.4306 -10.4968 10
848 1 12.0113 -0.826102 -5.8732 19
849 1 14.9738 -3.59987 -4.85706 13
850 1 13.6035 -6.10772 -2.65842 11
851 1 12.2225 -2.97446 -3.40087 21
852 1 14.014 -3.1537 -9.22087 11
853 1 15.731 -2.67079 -1.80397 13
854 2 2.60197 -9.56928 -9.08629 17
855 2 1.44825 -14.7682 -4.70835 13
856 2 0.424624 -14.0234 -1.65312 19
857 2 1.02808 -11.9269 -3.94367 20
858 2 10.0555 -3.715 -9.26319 17