ITEM: TIMESTEP
5000
ITEM: NUMBER OF ATOMS
2000
ITEM: BOX BOUNDS pp pp pp
-30.0 30.0
-30.0 30.0
-30.0 30.0
ITEM: ATOMS id type x y z Coordination
1 1 -8.43389 4.14259 -10.9559 20
2 1 -3.87217 -11.8513 -8.12434 19
3 1 3.546 11.1662 12.1328 18
4 1 9.47845 -9.75981 10.4247 9
5 1 -12.5927 7.47406 -4.17725 22
6 1 12.2874 -7.96173 -9.3488 19
7 1 -14.7073 2.29625 -6.78386 13
8 1 0.721698 -5.68487 12.8742 14
9 1 -9.70174 -0.557099 -8.62752 22
10 1 -12.9715 -9.47685 5.04391 14
11 1 8.35096 0.515151 -15.3679 11
12 1 -2.9088 -11.4093 2.33101 21
13 1 -15.4733 -7.63655 3.07558 9
14 1 1.82332 0.912928 12.7387 22
15 1 -2.92507 2.10675 9.61255 23
16 1 -1.48659 8.29266 -8.95203 20
17 1 2.1834 -2.64735 12.7558 19
18 1 -10.1466 1.16382 -11.2848 19
19 1 -12.8223 -1.24757 13.1855 13
20 1 18.1598 6.22656 5.14301 9
21 1 1.83485 8.25713 -8.63423 20
22 1 6.69886 7.33483 -12.8339 16
23 1 17.5852 1.90799 9.55337 10
24 1 -11.9243 4.62941 -5.9922 21
25 1 -10.2161 11.243 10.3024 13
26 1 6.11226 -13.6252 7.31441 12
27 1 6.7263 -13.5563 -10.2482 12
28 1 10.179 -11.9474 2.09116 12
29 1 -8.34419 -14.6047 -2.38854 14
30 1 -9.14284 -7.26739 12.9714 14
31 1 2.5476 -6.61124 -12.4712 18
32 1 11.3423 -11.1192 -8.3543 15
33 1 0.514129 5.33412 -13.8505 19
34 1 0.323767 4.18394 12.6915 22
35 1 -1.50357 -12.4797 5.00321 19
36 1 10.1006 -5.10142 13.4263 10
37 1 -9.80365 -0.177541 2.06443 22
38 1 -14.5477 0.509308 10.5985 10
39 1 -3.22093 11.766 -3.76674 21
40 1 -1.58547 -13.6671 -9.62528 12
41 1 0.507052 1.58291 -11.0027 25
42 1 5.7199 -7.14615 -10.7689 21
43 1 -3.12224 -3.00477 10.4407 23
44 1 -11.2528 9.03962 1.35938 17
45 1 6.44554 12.3878 -8.46634 13
46 1 3.72337 14.9956 8.22601 14
47 1 -7.23797 7.08431 -6.19848 20
48 1 3.05316 11.5825 -3.31061 23
49 1 3.35978 -11.2928 2.15027 23
50 1 5.47506 -6.26965 -5.65495 25
51 1 8.30341 -7.07423 -16.2671 12
52 1 -7.91474 9.70984 13.8875 11
53 1 -12.6835 -6.01795 -8.73979 13
54 1 -8.24617 8.32145 -4.06942 22
55 1 -4.82917 -8.59583 7.24262 20
56 1 -1.92817 15.6123 11.1499 11
57 1 -13.7631 7.83869 -6.97045 16
58 1 -5.39893 11.3208 12.6148 11
59 1 -3.34717 -13.7155 7.77129 16
60 1 5.45257 -15.1343 0.857023 12
61 1 2.64875 10.6932 15.5602 11
62 1 -12.6275 1.06958 -9.1501 16
63 1 -13.3329 7.27845 -10.1692 10
64 1 4.69983 4.81084 10.234 21
65 1 13.6265 -4.28801 -9.96287 17
66 1 7.91857 -10.9475 8.09915 16
67 1 -15.0127 -1.34408 4.58429 14
68 1 6.77641 13.9437 4.10407 20
69 1 3.94529 -5.20375 12.7438 15
70 1 -5.93009 -17.3856 5.1188 11
71 1 11.6955 -0.404353 9.92654 18
72 1 3.2824 8.02762 10.4394 21
73 1 -3.01802 -6.31374 -8.8906 22
74 1 -12.7773 10.1519 6.48133 12
75 1 -8.16249 10.2685 -1.59111 20
76 1 0.216168 5.48733 -8.63709 23
77 1 12.1908 10.764 -6.6466 16
78 1 8.32709 -6.84159 4.97527 22
79 1 7.58624 -7.00464 11.686 15
80 1 -4.70256 14.3445 -5.19158 14
81 1 -9.72189 7.79586 4.10254 19
82 1 -8.08393 -3.94745 12.7462 22
83 1 -5.09738 8.95308 6.70554 21
84 1 -1.43652 -6.2093 10.55 24
85 1 15.4534 -6.61076 -1.06596 8
86 1 -8.21102 3.11769 7.0389 23
87 1 -11.1164 -12.349 4.48806 16
88 1 8.56998 -8.34947 -2.70728 24
89 1 5.97438 -0.47959 -10.8554 21
90 1 -4.57922 -5.23644 -13.2548 15
91 1 -0.330605 11.6114 1.57503 24
92 1 -6.03063 5.38143 -8.67081 23
93 1 -0.60431 11.5378 15.004 11
94 1 -0.0208006 11.2175 -4.56776 22
95 1 -11.3817 10.8847 3.82684 14
96 1 -3.13158 -9.03769 10.9088 22
97 1 17.4426 -1.45633 10.265 6
98 1 9.43413 -9.24658 -10.0907 22
99 1 5.29436 -2.34769 12.741 19
100 1 -7.48645 -6.80224 -0.296455 25
101 1 -7.99179 -9.08099 -2.90932 20
102 1 10.1789 -9.68039 3.95559 17
103 1 8.82678 -1.21589 -10.8852 22
104 1 5.22441 18.1929 -2.22578 15
105 1 -8.62632 -14.3047 9.2845 15
106 1 -7.52434 -12.8955 4.19646 16
107 1 7.95457 -10.0171 -15.1993 13
108 1 10.1128 -9.68913 0.0481713 20
109 1 -1.70385 -12.2688 10.9638 13
110 1 -7.60246 -8.70484 2.58353 23
111 1 13.5767 8.39399 7.93978 20
112 1 14.8604 -0.92367 -11.0498 11
113 1 -16.5322 -4.36396 4.49048 10
114 1 10.7319 8.06421 4.62302 20
115 1 16.541 11.9578 6.61212 10
116 1 -5.49342 0.306471 15.4302 17
117 1 -1.68661 10.933 9.09169 20
118 1 -4.77659 14.0997 -8.67026 10
119 1 0.243817 -5.83573 -8.21485 22
120 1 7.73444 -11.1341 -8.03336 17
121 1 1.59415 13.9641 -8.82113 13
122 1 12.1922 -3.33115 11.6168 17
123 1 -1.53823 1.21037 -16.3353 18
124 1 -2.43035 9.66022 -6.37339 21
125 1 11.9645 -0.366235 -5.64239 22
126 1 -8.97662 10.5948 -6.4343 19
127 1 -5.0549 15.3404 -2.5515 12
128 1 7.61008 2.13056 -10.9222 22
129 1 10.8969 -9.70354 7.01792 12
130 1 -4.66823 2.16256 -8.5572 22
131 1 -4.08839 13.6514 9.07047 14
132 1 13.3859 4.26158 -9.30023 12
133 1 6.38277 11.7264 -3.72863 19
134 1 -1.19823 14.7227 1.42994 20
135 1 11.6335 11.3085 -0.970649 24
136 1 -2.67557 13.4672 -0.875085 21
137 1 5.06168 15.2653 -3.52616 20
138 1 4.76656 9.82236 -13.3205 12
139 1 -11.0517 -12.5639 0.45677 17
140 1 -11.0599 9.89961 -3.14189 19
141 1 -2.87071 -4.5929 -11.2622 22
142 1 5.23303 -8.21595 -16.1964 11
143 1 8.99004 12.0578 9.00225 18
144 1 0.0322498 11.9281 6.88318 20
145 1 -10.5242 -3.17281 -2.96472 21
146 1 -8.97812 13.3346 2.18839 11
147 1 13.6417 0.0690411 -2.81579 14
148 1 -11.5153 4.13795 -11.1779 15
149 1 7.86295 0.305639 16.5009 12
150 1 5.35222 14.7037 2.14728 22
151 1 -1.75927 8.96978 7.41846 24
152 1 5.18009 -5.7879 -17.4726 11
153 1 -0.850901 13.6077 9.46461 20
154 1 -4.61511 9.28903 -11.4717 20
155 1 3.47412 -3.28042 9.94808 22
156 1 -11.0805 -6.50965 5.09982 21
157 1 -2.10428 -7.63758 -12.0727 19
158 1 -6.18891 11.3319 -8.91869 17
159 1 -2.89902 -9.33638 5.42304 23
160 1 8.41047 -12.5378 -0.739736 17
161 1 -2.88441 10.6168 -9.40599 22
162 1 -14.1026 4.40009 11.3391 12
163 1 11.8492 8.8694 -3.51093 20
164 1 -6.76516 3.55283 15.6521 15
165 1 0.0085528 -9.28719 10.6104 17
166 1 3.68517 13.6489 4.6791 21
167 1 0.153465 7.8908 10.0595 21
168 1 14.4047 8.17712 11.2934 14
169 1 -4.3116 15.209 1.37569 17
170 1 15.8969 -2.2319 -8.20561 11
171 1 -2.4041 12.2536 11.7136 18
172 1 12.3577 -8.07187 1.60116 13
173 1 -13.7762 0.0510822 7.24368 15
174 1 -7.6136 -6.80386 5.08608 24
175 1 11.2287 7.77798 10.5778 22
176 1 -14.6494 -1.79898 -0.715665 13
177 1 -1.1998 -12.8193 -1.005 18
178 1 -1.77243 10.913 4.70744 22
179 1 6.38597 13.3833 9.69602 13
180 1 -4.51773 12.6126 -11.6484 12
181 1 -13.3944 -1.10617 -7.10193 15
182 1 -9.66938 -3.15403 10.0435 20
183 1 0.179659 -9.69967 5.33374 22
184 1 4.00606 -12.7671 10.535 12
185 1 -14.4519 11.8225 3.71763 5
186 1 15.8147 7.00926 2.9577 15
187 1 -5.27905 -7.64832 -11.1354 18
188 1 5.28872 -0.679529 10.2774 22
189 1 5.13443 -15.1237 3.7608 12
190 1 -1.27152 11.672 -12.4405 13
191 1 9.20078 -10.7518 -12.2658 13
192 1 13.25 -3.32737 -12.8801 12
193 1 5.34539 6.47916 -15.873 13
194 1 -4.54041 -3.54645 -8.43379 24
195 1 -2.10712 12.8194 -6.69867 18
196 1 -10.9802 -12.196 9.36333 13
197 1 4.80563 19.5482 0.666795 11
198 1 -8.19159 0.624861 15.934 14
199 1 -9.60406 12.0228 -3.97762 14
200 1 8.50938 -0.778784 9.84273 20
201 1 2.47778 -9.98427 -10.8176 18
202 1 -5.7908 9.99299 -6.19787 19
203 1 3.56923 6.70902 -13.3306 21
204 1 -7.87226 -12.0383 11.4407 12
205 1 -9.8101 6.15588 7.05235 19
206 1 -7.88623 4.91789 9.96459 20
207 1 2.39351 -12.5189 -5.67414 23
208 1 -6.08215 -15.5603 -0.39406 15
209 1 10.9289 -8.34937 -4.34154 19
210 1 12.4989 9.37954 17.1925 5
211 1 6.80028 6.12813 -8.75357 21
212 1 -1.42581 10.7209 -1.09056 21
213 1 -9.88038 2.00517 4.51244 22
214 1 -12.0234 10.6717 -5.92373 13
215 1 1.40617 5.09553 9.95634 21
216 1 1.25658 -17.6638 -3.01743 13
217 1 11.6523 -0.793076 -0.0785981 22
218 1 -8.17762 4.8738 4.33884 24
219 1 -11.498 -6.54538 -5.24482 16
220 1 6.0111 1.34198 -13.515 20
221 1 1.984 -0.728382 10.3116 25
222 1 8.67584 8.71796 -8.34857 21
223 1 5.54089 -8.1309 -2.94505 25
224 1 -1.26867 -1.55277 -11.1635 24
225 1 -2.59684 -15.4397 4.95495 17
226 1 8.63474 -0.880497 -5.3581 23
227 1 -11.3387 -2.95633 7.28695 19
228 1 6.31233 -13.6758 -2.53863 16
229 1 -11.178 -9.2094 -8.55578 13
230 1 6.30046 13.9058 -1.29684 22
231 1 -1.16575 -3.01743 -13.7817 22
232 1 9.57927 3.44077 12.712 18
233 1 14.8568 3.90204 2.67701 16
234 1 9.95919 -3.89533 -12.7789 18
235 1 -8.11633 -1.51653 -11.1202 20
236 1 -12.4968 1.29032 -5.73327 21
237 1 -6.63196 -14.4231 6.78021 19
238 1 10.3517 -3.5816 9.42885 18
239 1 -3.47558 -10.85 -10.9933 15
240 1 0.17047 7.00185 -11.3882 20
241 1 -4.26031 -8.35799 2.44266 24
242 1 1.69209 10.3713 -0.830179 21
243 1 -10.0788 -0.810906 12.0068 21
244 1 -7.92657 -7.13787 -5.95167 23
245 1 -6.22942 -4.13577 -10.9507 23
246 1 -0.039988 7.89737 -14.9973 17
247 1 -8.70603 -10.4519 -7.22331 16
248 1 11.2452 -5.44546 -15.2217 13
249 1 11.4674 2.32542 -10.1686 16
250 1 10.5041 2.37488 4.74279 20
251 1 -11.0367 -6.35953 10.3406 18
252 1 -2.65993 -9.74185 -0.223224 23
253 1 9.66817 3.44907 16.8246 11
254 1 -11.4849 -13.7042 -2.22025 8
255 1 0.310471 -11.4631 2.43603 24
256 1 -1.77915 17.7925 1.71369 14
257 1 3.80358 -0.883727 -13.2504 22
258 1 0.649479 -7.61982 -10.2209 20
259 1 -9.17019 -9.28785 10.162 16
260 1 0.403057 5.46703 15.934 18
261 1 3.59941 -9.43693 -0.689172 23
262 1 -6.4948 -13.0486 -7.08783 12
263 1 -10.2298 7.12472 -6.08761 21
264 1 12.0854 3.10934 7.86315 22
265 1 -6.22075 1.34996 -11.1696 22
266 1 3.51758 5.64964 -8.78117 22
267 1 7.47508 -14.455 -7.27448 11
268 1 -1.69257 14.3601 -3.93906 16
269 1 3.29017 11.9097 7.29996 19
270 1 10.0491 0.415098 7.30203 21
271 1 -9.574 0.209718 7.03704 24
272 1 -1.60193 -4.18616 12.8779 18
273 1 -7.97629 8.97351 6.59285 21
274 1 5.38581 -5.31784 -13.2975 18
275 1 13.2222 11.84 -3.58063 16
276 1 7.09481 -11.0425 2.1731 22
277 1 -1.95328 0.645262 15.1432 20
278 1 -14.702 -3.14789 7.31563 13
279 1 4.45873 -15.8549 -1.8108 12
280 1 -9.57221 7.47572 10.7408 20
281 1 -11.2355 9.76152 12.5766 11
282 1 -14.042 -6.20269 9.79395 9
283 1 -12.528 -7.4257 7.79592 16
284 1 12.0225 -2.50237 -2.92512 21
285 1 -11.8542 -8.99251 10.6185 12
286 1 7.69836 -5.35665 -8.29638 23
287 1 12.9796 -9.73261 -5.91948 18
288 1 3.68723 16.3483 -0.0284816 19
289 1 -11.4075 9.40871 -8.9528 15
290 1 4.40831 9.05706 13.9932 16
291 1 -11.4539 -1.05402 4.75311 21
292 1 6.78906 -9.21155 -0.216255 24
293 1 -4.98694 10.6564 3.88032 21
294 1 5.85425 -9.9719 10.1641 15
295 1 13.3142 -5.03095 3.21509 17
296 1 -1.5711 4.92567 9.79123 21
297 1 0.166548 4.60378 19.1662 7
298 1 -3.19784 13.3353 3.70438 20
299 1 9.17647 6.67788 12.7602 24
300 1 -6.43184 12.4107 -3.86827 19
301 1 0.861219 -1.46908 -18.3763 9
302 1 7.46028 -7.9416 -13.3068 22
303 1 -7.50556 6.61346 14.9497 15
304 1 -13.0569 1.67486 4.90712 16
305 1 -4.90736 8.54554 1.29472 24
306 1 8.26283 -2.70092 7.2053 23
307 1 -9.39173 -11.4501 2.27774 18
308 1 6.6238 -5.44607 7.42519 22
309 1 -6.20251 -9.11536 10.5238 17
310 1 -13.4685 11.2141 0.121134 9
311 1 -1.50407 -0.651744 9.91918 24
312 1 4.1174 -11.2084 -8.19995 21
313 1 -4.64701 -1.62182 -11.3023 21
314 1 7.81389 -4.54648 -15.0544 16
315 1 3.56136 11.5299 1.82328 23
316 1 -9.36814 -0.484122 -3.27354 21
317 1 4.77378 -8.87513 -13.3717 19
318 1 9.75203 4.87941 -10.8174 19
319 1 -3.70249 -12.8048 -5.11536 19
320 1 -9.75396 -6.09502 -8.08936 21
321 1 10.4437 6.63535 16.8384 12
322 1 13.5005 5.62007 -2.82409 24
323 1 -5.21648 3.91568 -11.74 20
324 1 5.26376 16.8788 5.10701 14
325 1 -14.1154 -4.49432 -3.60563 11
326 1 -6.58944 5.91636 7.03392 23
327 1 -6.65406 11.4427 1.16806 21
328 1 -4.68292 5.04488 9.51501 20
329 1 14.2022 2.85603 10.758 18
330 1 10.3548 -3.63883 -5.66663 19
331 1 4.61489 -3.16058 15.8197 10
332 1 12.9531 2.28052 -6.69365 20
333 1 -3.82053 -14.843 -6.84549 11
334 1 1.84 10.9497 4.5057 24
335 1 -9.46676 1.28432 -5.79711 23
336 1 8.87446 -13.6587 -4.25126 14
337 1 13.6805 0.298372 7.24432 20
338 1 -7.73689 -1.82356 -5.69731 22
339 1 -6.19978 -10.1655 5.14731 23
340 1 -7.718 -6.19335 10.4566 20
341 1 -3.43812 11.4094 1.45585 21
342 1 -12.2957 -8.09921 -2.40335 13
343 1 7.04619 7.86922 15.0697 14
344 1 -9.94923 7.41831 -1.40928 23
345 1 0.101996 11.2279 -8.34397 21
346 1 4.80703 10.9879 4.72028 22
347 1 -14.2943 -7.15513 -0.292943 13
348 1 0.587724 -9.54757 -5.985 22
349 1 -11.5244 -0.679809 8.74902 19
350 1 -15.461 6.98844 -4.07456 10
351 1 3.47536 -9.60354 5.23803 25
352 1 -5.47437 -14.5312 -3.07778 15
353 1 11.5998 13.3053 10.3971 11
354 1 9.64208 7.0127 -13.2199 11
355 1 -13.6792 4.67833 -8.77505 14
356 1 1.12317 13.3049 -5.52007 19
357 1 -8.17092 4.32206 -6.28261 24
358 1 -1.27361 -14.4058 1.67542 17
359 1 14.0054 8.69074 4.30082 18
360 1 2.75821 8.70899 -15.8303 11
361 1 -11.5067 2.89425 1.5597 18
362 1 -4.10327 -14.5661 2.27665 18
363 1 10.4933 -3.74278 -9.93514 20
364 1 -13.1968 2.33125 9.11779 13
365 1 -12.5969 -3.28806 10.6338 17
366 1 -10.7295 8.53238 8.10471 18
367 1 -8.75093 2.83409 -13.6737 10
368 1 6.04458 -10.1292 -10.5426 22
369 1 -1.84021 -8.85399 -8.54397 22
370 1 -6.49998 -3.20154 10.6298 23
371 1 -2.4376 5.65534 -13.7623 22
372 1 8.27228 -11.989 5.28481 17
373 1 3.94077 18.1564 -5.1568 11
374 1 -9.56198 11.064 7.0767 15
375 1 0.497096 1.29908 17.8412 12
376 1 -11.0205 -7.65284 -11.0023 11
377 1 -8.06491 -8.44246 7.6616 20
378 1 12.1485 -6.86036 8.15558 15
379 1 11.5365 -7.05587 5.16679 20
380 1 15.6734 8.50192 -2.79152 15
381 1 -5.08984 1.57254 12.4572 22
382 1 5.23784 10.4811 -5.78737 23
383 1 2.03263 -14.3103 -3.37966 19
384 1 -3.98341 6.37052 13.8614 16
385 1 0.803432 15.3952 8.33927 13
386 1 -9.46107 -10.7424 -10.5498 8
387 1 9.85518 13.9056 3.00453 16
388 1 6.98882 6.18127 7.55449 23
389 1 -8.15443 -0.343632 9.74623 21
390 1 -4.25758 -8.94488 -2.84 24
391 1 -12.0969 4.40777 14.3207 11
392 1 -9.2787 -4.25451 -5.4015 22
393 1 -6.25836 11.6873 5.92651 16
394 1 -2.64578 -9.9782 -5.70948 21
395 1 -0.144481 -6.22682 -13.5445 20
396 1 -5.62317 -11.4405 2.44054 20
397 1 8.77825 3.29557 7.4714 22
398 1 -4.67791 -3.57626 13.433 18
399 1 -9.9466 5.79894 -8.96616 22
400 1 10.1293 5.9812 1.91098 22
401 1 -7.53871 -12.495 0.109001 20
402 1 3.08204 19.1428 3.74268 10
403 1 1.14756 10.9043 10.0093 18
404 1 -11.5481 -1.40983 -0.811674 21
405 1 0.921938 19.7603 1.18851 13
406 1 9.78609 11.3806 -9.22199 11
407 1 -6.19032 -6.25494 -8.28936 21
408 1 2.53525 3.18067 15.6315 17
409 1 1.81239 -13.9395 -8.85789 15
410 1 -0.0069076 -0.17457 -13.5494 20
411 1 7.94141 -13.7643 2.14569 14
412 1 -8.34061 10.6294 3.81979 20
413 1 6.75576 3.54489 12.9611 21
414 1 10.0753 8.06568 -0.582897 21
415 1 5.05875 10.6253 -0.986379 22
416 1 -8.00376 8.46416 -8.67015 19
417 1 -9.2474 -4.359 -0.350594 22
418 1 2.06374 14.3131 2.11056 22
419 1 -5.55306 1.56194 -14.0022 17
420 1 11.9198 9.05034 1.92142 21
421 1 7.96677 13.684 -4.81564 17
422 1 13.3428 2.40488 -0.758375 18
423 1 -2.16019 2.38518 -13.546 24
424 1 1.43881 -10.8849 8.05178 17
425 1 1.04441 -12.0111 11.5149 12
426 1 -7.72859 2.2156 -8.39361 23
427 1 -4.19022 -12.4845 5.39256 20
428 1 4.05664 -13.4055 -10.7149 14
429 1 8.32472 11.0784 4.11127 22
430 1 2.27333 5.89193 -16.7158 14
431 1 4.38519 -0.233165 15.5045 18
432 1 -12.0569 1.88169 12.0557 17
433 1 -0.852375 -16.5884 3.24121 19
434 1 -11.3513 -3.15148 2.11399 21
435 1 15.4455 -6.49253 -4.793 11
436 1 10.3021 0.205354 -2.68466 23
437 1 3.87341 -9.40624 -5.75091 24
438 1 4.23816 1.92652 -11.1133 24
439 1 14.9998 -5.67566 -7.91066 12
440 1 -3.05077 -2.67496 15.9477 10
441 1 7.98424 16.248 -2.50825 14
442 1 -3.24003 -0.763233 -13.9313 19
443 1 7.49008 5.0735 -15.434 10
444 1 -6.00981 -5.43903 7.74497 23
445 1 0.125961 13.2388 -1.6697 24
446 1 -6.78215 -3.54161 -14.4925 13
447 1 -13.3125 -0.0873029 1.88137 15
448 1 -0.0326359 -8.94244 -14.9041 11
449 1 -4.79902 -11.8694 11.2314 14
450 1 6.93373 7.65407 -5.93915 22
451 1 14.4537 -0.270501 10.4496 16
452 1 15.4605 5.48883 -0.253477 15
453 1 -9.23096 -9.65373 0.022311 23
454 1 -1.84007 -3.00797 -16.6129 13
455 1 -7.11076 13.1688 10.1646 9
456 1 10.0868 -3.49756 -0.155324 24
457 1 1.17513 16.2665 -6.18223 12
458 1 14.4847 7.57685 -8.29638 14
459 1 2.10836 7.17712 15.2799 16
460 1 -9.82858 2.26935 9.72972 24
461 1 7.54476 9.21016 12.6448 19
462 1 9.53885 -1.75673 15.2391 11
463 1 1.51958 2.01893 -16.8935 15
464 1 -4.6223 -7.10566 -5.7035 26
465 1 0.196264 2.11772 9.88713 25
466 1 11.0724 9.80546 7.43469 20
467 1 8.7189 3.20898 -8.19396 21
468 1 -4.73759 8.95479 -3.91433 22
469 1 2.56701 15.3075 -3.03101 22
470 1 13.9279 -5.94392 10.261 11
471 1 12.1859 -0.920252 -11.0081 17
472 1 9.3625 -11.2131 -5.3578 23
473 1 12.45 7.41693 14.0344 16
474 1 -12.4588 -10.3029 -0.340232 14
475 1 -5.79297 9.9197 -13.8516 9
476 1 -10.4792 1.15357 13.9612 16
477 1 -1.60751 13.5349 -9.69432 13
478 1 5.44882 -12.2862 -0.151251 21
479 1 5.36119 -2.62844 -8.33673 24
480 1 -0.821411 19.7367 -0.932555 9
481 1 -8.16118 -6.23516 -12.3262 11
482 1 5.24951 -12.2794 4.07271 18
483 1 -12.7235 -5.92515 2.24004 20
484 1 1.48159 10.3629 -13.4909 14
485 1 -2.72759 9.44483 12.907 17
486 1 -9.38028 -5.5514 7.65847 20
487 1 2.38532 -11.2004 -13.5282 10
488 1 2.08351 -6.29333 10.1867 20
489 1 -9.837 5.81297 1.77828 24
490 1 6.13593 2.56566 15.9766 16
491 1 9.39867 16.379 -5.36962 9
492 1 13.6842 -8.83506 -2.83774 14
493 1 3.02992 4.85489 13.274 17
494 1 -0.254904 4.40601 -16.0684 16
495 1 -11.0206 -14.4746 6.81493 11
496 1 5.41048 -1.0038 -15.8245 16
497 1 2.34504 16.2154 5.49761 14
498 1 11.7029 8.71779 -8.48759 18
499 1 -4.71754 -4.7765 -16.6579 10
500 1 -2.57968 -11.824 -3.10235 19
501 1 -9.91997 -4.31384 -10.9528 17
502 1 11.9247 3.17669 1.73655 20
503 1 16.6615 5.70462 -3.5661 13
504 1 6.24059 -8.08237 -8.1216 21
505 1 10.4604 10.4772 12.6229 14
506 1 7.10566 -9.36837 -5.53027 23
507 1 4.67835 4.1047 -13.7702 19
508 1 8.20822 14.3581 0.914918 18
509 1 9.83218 9.20253 15.5171 13
510 1 13.2761 8.42628 -0.847239 19
511 1 11.7742 -2.37033 6.83954 22
512 1 15.3035 10.4167 -8.12373 7
513 1 8.88349 -2.65407 12.1307 17
514 1 14.3599 5.06352 12.9515 12
515 1 0.162861 -3.28665 10.4028 26
516 1 13.624 14.2434 -1.00741 10
517 1 1.6387 0.239272 15.2476 18
518 1 15.0205 -0.248811 -5.97888 15
519 1 9.45132 1.94198 10.2463 19
520 1 -6.31501 -0.62364 -8.57534 23
521 1 13.454 6.41589 1.02495 19
522 1 -13.7751 10.0917 10.1377 9
523 1 8.82811 12.9437 12.2135 11
524 1 11.3704 1.67521 12.6192 20
525 1 4.72059 9.17017 7.60514 21
526 1 3.42884 13.3589 10.6404 14
527 1 -2.24531 -18.9542 3.00655 12
528 1 -6.46131 7.40926 -1.14515 23
529 1 8.32708 9.25182 -3.21643 22
530 1 10.3262 -2.21847 -14.759 12
531 1 0.824765 16.1609 -0.628718 23
532 1 -0.797402 -12.6671 -6.97911 20
533 1 12.8712 -6.75941 -12.5759 11
534 1 -10.9633 5.16861 9.68672 20
535 1 -3.84103 6.33577 -11.1295 22
536 1 -9.45785 -15.3998 0.323755 13
537 1 -5.64507 -1.43743 -15.8136 11
538 1 -11.5989 2.23875 -3.09819 22
539 1 10.3106 -5.82413 2.3705 22
540 1 12.7518 12.5103 7.51857 14
541 1 1.97737 -8.31075 7.63993 22
542 1 -10.9687 -1.37782 -5.45286 22
543 1 3.97689 3.16205 -16.2873 14
544 1 -3.67573 3.37657 15.4068 17
545 1 3.4018 8.40574 -11.0383 19
546 1 14.7069 -2.61967 12.0442 11
547 1 9.99206 2.01719 -5.85858 22
548 1 14.5726 13.6901 4.69616 8
549 1 4.47248 -15.1843 -7.99358 14
550 1 -9.76532 -4.67965 15.5738 8
551 1 15.4029 0.506627 3.99812 15
552 1 1.18289 12.3797 13.0398 16
553 1 6.88814 9.07824 -10.8212 15
554 1 -14.3354 9.98668 -3.23245 10
555 1 10.1474 11.8117 1.55033 21
556 1 -10.3193 -11.1187 -2.2997 18
557 1 12.1432 -0.536123 4.84034 21
558 1 6.61259 19.5018 3.23213 7
559 1 -6.54823 2.38402 9.67426 22
560 1 -11.1299 -8.79232 2.43704 21
561 1 -7.91451 -3.32904 -8.45594 22
562 1 13.7814 -3.37015 9.09064 18
563 1 -5.80448 -14.7038 10.0066 14
564 1 12.1491 3.93168 14.9769 14
565 1 -4.82825 10.6399 -1.62267 17
566 1 2.13375 -0.579941 -15.8 19
567 1 -7.83865 -2.67492 7.34498 26
568 1 8.33509 -2.59442 -7.80304 21
569 1 13.0826 -7.05548 -5.96 16
570 1 8.61167 5.36272 9.93514 23
571 1 -9.60909 -2.07145 14.4504 19
572 1 14.7827 6.05526 6.0571 16
573 1 -0.109226 -1.41092 13.0654 21
574 1 -3.11475 7.64563 10.1767 22
575 1 1.80404 -3.26417 -13.5057 20
576 1 -8.00235 2.00173 12.7838 20
577 1 7.82831 0.445586 12.8883 22
578 1 -6.31518 -11.3551 8.02845 24
579 1 14.9302 9.4914 1.13313 14
580 1 7.06732 -10.9147 -2.74377 23
581 1 10.958 14.0035 -0.38638 15
582 1 10.0636 12.8212 6.44344 14
583 1 3.33583 0.0450382 -18.4311 11
584 1 8.57541 11.0199 -6.47915 19
585 1 12.2641 5.21093 3.83932 16
586 1 -5.88625 -9.6272 -0.100411 26
587 1 -1.96964 3.49094 -18.1366 10
588 1 -10.0811 11.51 -0.280929 15
589 1 9.17696 -6.73281 -10.9456 20
590 1 10.5049 5.8844 -8.52723 20
591 1 15.4212 11.3435 -0.945558 11
592 1 9.86548 6.16021 -3.00425 21
593 1 14.4876 1.69453 13.5572 11
594 1 13.0352 -1.30627 14.5298 10
595 1 0.204223 -15.1929 6.78474 15
596 1 -2.56697 9.80429 -15.2923 12
597 1 6.82701 11.4414 6.82335 19
598 1 10.3199 -8.28343 -13.4857 17
599 1 11.5409 15.7233 -3.52935 10
600 1 6.86917 11.6365 1.38442 22
601 1 14.3899 -4.42003 -2.44494 11
602 1 8.01491 5.5028 15.2583 15
603 1 -13.0118 -4.05488 4.6193 20
604 1 3.07724 -14.3424 7.64495 13
605 1 -7.4856 14.0575 -0.0735925 12
606 1 5.05499 8.63004 2.03219 21
607 1 -14.6242 -3.2667 1.97508 15
608 1 -2.42742 5.58273 17.3272 13
609 1 -4.70163 7.46986 -14.098 16
610 1 -4.9017 8.20538 -8.70327 22
611 1 2.21347 -12.5668 -0.475984 20
612 1 8.70095 5.2371 -6.09125 22
613 1 -12.5818 6.97263 11.6419 15
614 1 6.913 -1.95924 -13.7704 20
615 1 4.22606 -11.3903 8.08106 21
616 1 3.33857 13.5645 -0.732812 21
617 1 -2.56363 2.24308 18.2236 12
618 1 -7.81923 -8.44046 -9.62856 21
619 1 -0.442021 -10.8289 -11.2406 17
620 1 -6.1871 -10.0348 -5.27289 22
621 1 -0.00999004 17.1343 -3.43474 15
622 1 3.98242 -5.62907 -8.42535 23
623 1 -3.50992 11.8463 6.81258 22
624 1 9.92943 -8.31364 -7.38646 22
625 1 3.01286 -17.3015 -0.0525561 12
626 1 5.22681 -6.46175 10.0641 21
627 1 13.6419 0.515416 -8.99173 18
628 1 4.85702 -15.4471 -5.20173 14
629 1 -11.7088 -4.45043 13.4337 13
630 1 -8.36089 -16.2287 3.60094 10
631 1 -5.74816 -11.7658 -2.45547 22
632 1 -9.34508 4.23394 16.1805 12
633 1 -2.85256 -15.6294 -1.44091 15
634 1 16.9322 8.00592 -6.04437 9
635 1 0.211173 13.4373 4.08775 19
636 1 -13.04 8.19415 -1.1707 16
637 1 13.7518 3.00815 5.03268 20
638 1 -11.4833 -2.93026 -8.92056 17
639 1 2.18265 10.3456 -6.18661 21
640 1 10.5364 0.0948059 -8.24229 21
641 1 5.91673 11.6471 14.1683 10
642 1 11.824 2.93302 -3.39222 22
643 1 -15.1371 1.63942 -3.4487 12
644 1 -12.6686 -3.80342 -6.30594 14
645 1 -1.63927 8.09104 15.456 15
646 1 6.00897 4.8264 -11.201 19
647 1 15.171 12.8255 8.94567 10
648 1 -3.36677 -1.10853 13.1661 23
649 1 0.266378 -15.4266 -1.1684 19
650 1 -8.22649 -16.8415 8.02433 12
651 1 -2.57219 -6.90127 13.5903 14
652 1 16.7336 10.0703 9.44558 11
653 1 2.83894 -8.21314 -8.60214 21
654 1 -8.04131 8.56447 1.23814 22
655 1 6.89011 8.04606 4.59499 21
656 1 -9.66428 -3.83792 4.94496 24
657 1 9.98757 8.432 -11.1842 15
658 1 -1.16115 -14.897 -4.30749 17
659 1 -0.416794 -18.1557 0.0323847 11
660 1 -0.213726 -18.0378 5.57411 10
661 1 5.23667 2.93021 -8.6727 22
662 1 6.7199 17.0848 0.0268681 14
663 1 -4.69524 1.53034 -16.5381 11
664 1 -1.56233 1.33537 12.5943 23
665 1 -2.5226 6.74026 -16.7584 13
666 1 -11.4412 -1.17442 -11.7877 11
667 1 -9.17397 -5.82386 2.4636 25
668 1 2.35647 18.7696 -1.97281 14
669 1 -2.17106 -6.00107 -15.4088 15
670 1 12.1571 5.04649 -5.51459 18
671 1 12.7672 -4.52258 0.440729 17
672 1 -6.39511 7.83718 9.47926 17
673 1 7.05427 -9.40638 5.26381 22
674 1 11.8113 -2.4656 2.61928 23
675 1 14.22 -4.90835 6.24102 11
676 1 1.66795 9.12815 7.61125 23
677 1 -10.3516 7.25816 13.9665 14
678 1 -6.42599 4.92411 12.726 18
679 1 -4.71382 -16.9348 7.63158 10
680 1 6.34215 7.53914 10.6226 18
681 1 -13.3167 1.5172 -0.694931 18
682 1 10.3822 -5.50092 -3.04722 19
683 1 -7.59452 13.1995 -6.71564 13
684 1 1.35849 -14.7108 10.1052 10
685 1 4.60558 0.977128 13.0941 18
686 1 -1.80959 14.7581 6.34981 14
687 1 2.18993 -12.5504 5.12818 19
688 1 3.36041 2.21708 10.2617 21
689 1 -12.3303 -4.53367 -0.531601 20
690 1 5.52841 6.39784 13.1358 19
691 1 10.1205 12.1773 -3.28819 20
692 1 -13.694 -10.5213 2.83395 11
693 1 -5.45142 -17.4723 2.07358 10
694 1 6.72506 -3.64771 10.0265 22
695 1 9.84537 -5.27896 6.90265 19
696 1 10.3429 6.07921 7.80126 23
697 1 -4.70223 -8.9096 -8.33008 21
698 1 -3.19053 1.02319 -11.0441 25
699 1 2.45966 -1.49539 18.0329 6
700 1 1.00423 16.7214 3.09095 16
701 1 17.2542 2.6396 4.52779 12
702 1 3.71262 7.46091 -6.25782 22
703 1 -6.31578 8.20778 12.0918 21
704 1 8.87334 9.09702 9.6714 21
705 1 6.9536 -3.9653 -10.9901 22
706 1 -4.24801 -12.657 -0.370583 21
707 1 18.4093 3.92028 7.01162 12
708 1 3.66359 -3.88517 -11.2897 19
709 1 -0.913174 6.50382 12.9963 20
710 1 12.4256 -12.4431 -5.17519 8
711 1 8.99339 3.51565 -13.6599 12
712 1 12.5019 6.30548 -10.944 11
713 1 13.77 0.369121 1.34729 15
714 1 3.13279 -9.49754 10.6561 17
715 1 0.874514 -10.9441 -8.69337 20
716 1 11.3135 13.69 -5.70606 13
717 1 -11.5879 3.04559 7.00152 20
718 1 15.0307 4.92685 -6.01405 15
719 1 16.1964 8.63387 6.68968 17
720 1 2.68082 -6.56993 -15.1499 15
721 1 -6.17539 13.5606 3.6011 16
722 1 16.7204 6.29426 8.41823 13
723 1 9.8248 7.67944 -5.7697 20
724 1 2.52286 2.1521 -13.5233 20
725 1 8.84614 -6.3523 -0.449274 22
726 1 -10.0947 1.51673 -0.608366 22
727 1 8.83764 5.51542 5.03193 22
728 1 -10.7712 -7.45113 -0.256855 22
729 1 -9.86779 7.50158 -11.3031 13
730 1 7.05719 2.28863 10.0043 20
731 1 -13.386 -1.2076 -3.53041 18
732 1 -9.42317 4.40286 12.8736 24
733 1 -2.80266 5.10864 -8.59668 20
734 1 10.9795 -5.62133 -8.17214 18
735 1 -10.1242 -9.08788 -5.05464 16
736 1 11.9792 -6.74752 -1.23149 16
737 1 -13.1347 5.95378 0.908463 10
738 1 -9.50316 -6.19451 -2.9237 22
739 1 13.72 5.5798 9.38698 18
740 1 -3.37537 -11.0042 8.36858 18
741 1 10.6738 0.984987 15.2833 13
742 1 14.6744 -2.34018 5.78658 17
743 1 10.1115 -3.62264 4.45953 20
744 1 -11.5438 4.96452 4.56773 15
745 1 5.95418 10.6917 10.0885 18
746 1 5.09956 9.18404 -8.6307 22
747 1 0.670951 -3.85646 -15.9156 17
748 1 -5.67081 14.6992 7.1468 9
749 1 -10.9829 -10.2869 7.52074 18
750 1 8.38091 11.1392 -1.06109 21
751 1 1.24428 8.8296 13.1907 21
752 1 13.881 -3.60447 -5.55649 19
753 1 9.04619 -7.99368 7.96509 21
754 1 2.42051 11.6606 -11.2406 13
755 1 3.90803 13.782 -6.44048 18
756 1 -4.8507 -0.527116 9.6509 21
757 1 15.3802 3.25938 7.72907 22
758 1 0.22765 -4.8169 -10.988 21
759 1 12.9713 12.1638 1.86453 17
760 1 -11.6302 4.50258 -1.01351 22
761 1 -2.05934 -10.5358 13.0078 10
762 1 6.22383 15.5869 -6.67665 9
763 1 6.75126 -4.93745 13.1922 15
764 1 0.355732 -11.5648 -3.2087 21
765 1 -2.10398 16.3608 -1.12889 17
766 1 -14.8309 4.29127 -1.81841 12
767 1 12.9723 -2.44363 -7.87676 23
768 1 6.01334 -11.6104 -12.9854 14
769 1 -6.46381 7.662 3.93645 22
770 1 14.0035 7.798 -5.20872 16
771 1 4.34809 -2.93439 -18.7429 9
772 1 -6.43366 -11.3733 -9.86776 12
773 1 3.75919 -11.3678 -2.76584 24
774 1 -0.859462 14.3633 14.146 9
775 1 11.0153 -10.9474 -2.83208 17
776 1 -1.78471 8.77861 -12.4822 21
777 1 15.4071 2.50067 -3.75693 12
778 1 8.90207 8.81875 2.18721 20
779 1 2.14413 -14.2312 2.03179 21
780 1 4.22388 -3.45006 -15.3987 18
781 1 11.3583 5.19109 -0.815618 20
782 1 -1.4977 3.93111 -11.0796 23
783 1 -1.29867 -8.68707 7.87471 20
784 1 4.9495 8.6022 -3.23457 22
785 1 7.06946 0.0264872 -8.063 24
786 1 -9.81186 5.01571 -3.68259 22
787 1 -13.6098 7.11402 8.61287 11
788 1 -0.607875 3.01554 15.5195 21
789 1 -8.65147 -12.0886 6.75998 20
790 1 8.57165 8.61051 6.5685 16
791 1 1.79573 -15.6131 3.96078 12
792 1 3.54378 11.557 -8.5572 19
793 1 -4.51032 10.6469 10.1711 22
794 1 -6.61276 -0.963898 12.5133 23
795 1 -7.66957 10.1849 9.68062 19
796 1 -4.60452 -5.78883 10.6642 23
797 1 5.19871 -8.39315 7.67099 22
798 1 11.3837 4.41886 10.6341 20
799 1 8.578 -6.22187 -5.36312 25
800 1 12.6003 -10.2809 -11.2352 9
801 1 -8.16772 -0.467172 -13.8922 13
802 1 -4.094 4.25127 -16.0739 14
803 1 7.06784 14.7412 7.44259 14
804 1 -5.63799 -7.02861 12.9921 13
805 1 -3.54651 7.18 -6.49972 22
806 1 -14.993 4.92111 -5.40967 16
807 1 11.8043 11.593 4.35053 16
808 1 -11.1667 -14.9684 3.07325 9
809 1 13.5271 10.7249 9.91851 16
810 1 -8.539 -12.135 -4.57849 15
811 1 8.20246 16.36 4.56238 9
812 1 -6.79696 -2.39663 15.9799 15
813 1 1.05114 -15.7615 -6.03584 12
814 1 16.8173 0.714375 7.08264 15
815 1 1.03643 -18.5938 2.42093 11
816 1 4.63788 5.39156 15.9514 13
817 1 10.0322 0.533795 -13.0187 15
818 1 8.37195 -8.31577 1.98065 19
819 1 2.00643 -1.13447 -10.7625 23
820 1 -10.636 2.63628 -8.40919 23
821 1 -6.78154 7.41339 -11.5743 17
822 1 -2.8511 3.66212 12.702 20
823 1 10.3851 -6.37268 10.4314 15
824 1 -9.36824 -9.63844 5.01399 22
825 1 15.0351 -2.57201 2.7173 12
826 1 1.90509 4.36924 -11.3192 21
827 1 16.2184 10.7324 3.96902 12
828 1 1.27636 15.807 11.3173 11
829 1 -15.3769 -6.12355 6.51365 11
830 1 5.81646 -12.5726 -5.3487 23
831 2 -12.9756 -1.98669 -5.51879 17
832 2 -1.70895 10.8354 -7.80397 18
833 2 -1.31516 -3.45859 -11.9466 23
834 2 -3.04749 5.93835 9.12282 21
835 2 8.83339 -8.4177 -11.8942 19
836 2 -6.27609 -6.23519 -6.29854 24
837 2 0.154227 2.2991 12.02 25
838 2 5.13295 -3.68126 14.2309 11
839 2 -12.4121 -9.92077 1.4957 20
840 2 -15.1246 7.06793 -5.90639 10
841 2 1.55328 11.0131 7.41672 19
842 2 -9.9851 0.120878 4.38568 19
843 2 4.77587 16.0685 -5.26218 16
844 2 10.477 5.90535 4.0548 20
845 2 2.53497 13.5568 -4.13378 22
846 2 12.1806 14.6691 -2.12567 13
847 2 -12.3621 3.06018 -9.49991 18
848 2 -9.8738 -6.00491 -6.08974 21
849 2 7.15015 0.441992 9.35301 23
850 2 6.98688 -3.52871 -9.00182 21
851 2 4.56717 -16.4845 0.0557878 12
852 2 -8.41397 8.40219 -2.06262 20
853 2 -15.5679 2.7346 -5.10079 10
854 2 10.6726 2.49974 6.81759 21
855 2 14.5768 -5.38604 -6.04148 13
856 2 -7.5881 -8.83913 -0.768723 25
857 2 -10.8707 -6.66374 7.14026 21
858 2 -2.90354 -11.182 4.76637 22
859 2 12.9643 -5.73784 5.07656 18
860 2 2.88158 -14.8949 -5.04511 17
861 2 3.56533 -1.74653 16.5619 8
862 2 1.92913 10.2358 -8.62622 19
863 2 -1.55387 -19.1926 4.65116 10
864 2 -9.20497 -10.2877 -3.76729 20
865 2 3.12152 2.14647 12.2071 21
866 2 -8.03231 8.67029 3.41425 24
867 2 -2.74003 3.6592 17.1111 14
868 2 -6.52451 8.52706 -5.05341 20
869 2 4.36108 -10.954 10.377 15
870 2 -3.2744 7.98276 6.78217 22
871 2 -1.20818 8.00806 -6.97255 22
872 2 13.4265 12.5421 9.76399 10
873 2 4.02907 -3.71677 -9.31887 20
874 2 8.47638 14.966 3.45942 13