ITEM: TIMESTEP
56000
ITEM: NUMBER OF ATOMS
2000
ITEM: BOX BOUNDS pp pp pp
-30.0 30.0
-30.0 30.0
-30.0 30.0
ITEM: ATOMS id type x y z Coordination
1 1 -7.0432 3.62285 -11.3188 19
2 1 -0.896264 -13.2423 -7.7079 16
3 1 5.68412 9.55337 10.0155 22
4 1 9.98691 -10.6867 11.5464 11
5 1 -9.78689 6.95186 -3.11785 21
6 1 13.768 -9.8841 -8.16366 13
7 1 -13.669 3.94712 -5.99184 10
8 1 1.28219 -9.30813 12.7656 16
9 1 -8.31445 -1.89804 -8.46036 24
10 1 -12.1026 -10.5226 5.13086 18
11 1 11.1422 -3.57345 -15.3072 10
12 1 -1.78904 -12.9205 2.67153 23
13 1 -13.6534 -8.29682 4.2148 15
14 1 4.12624 -0.519613 12.9252 21
15 1 -1.70521 0.984467 10.1474 23
16 1 -0.528175 7.27798 -9.00426 20
17 1 4.13548 -6.68886 12.9401 16
18 1 -9.17893 -0.698963 -10.9166 16
19 1 -11.7752 -2.58649 13.0248 14
20 1 19.7565 4.63832 5.29236 10
21 1 2.64981 7.1963 -8.75194 22
22 1 9.02647 6.61193 -12.7991 16
23 1 17.306 1.5157 10.897 20
24 1 -10.446 3.03754 -6.21935 22
25 1 -6.22694 10.6796 12.3094 10
26 1 8.29476 -12.4221 7.40648 16
27 1 9.74093 -13.9921 -9.93032 11
28 1 12.5841 -12.1676 2.86102 14
29 1 -6.2088 -15.8703 -2.92572 12
30 1 -8.74348 -8.57754 12.7469 15
31 1 3.79241 -8.14324 -10.7554 22
32 1 11.8662 -12.5765 -7.27318 13
33 1 1.68404 4.25307 -13.5022 19
34 1 2.63752 1.89719 12.9237 24
35 1 -0.0700473 -14.0866 5.53513 22
36 1 10.6756 -6.53169 13.7625 12
37 1 -8.5996 -1.52911 1.89281 22
38 1 -13.3907 -1.79658 10.6585 12
39 1 -2.15511 10.0388 -3.3155 23
40 1 0.535815 -16.2695 -9.03792 8
41 1 1.77368 0.458855 -10.8872 24
42 1 6.92211 -8.36479 -10.6139 23
43 1 -2.05346 -4.8679 10.2747 22
44 1 -9.10688 9.04166 0.0873847 22
45 1 8.24928 10.3799 -7.70766 20
46 1 6.81998 16.5045 6.63529 10
47 1 -5.42438 5.69987 -6.44373 20
48 1 4.1202 10.2609 -3.05461 22
49 1 5.08575 -12.4695 3.0108 21
50 1 6.759 -8.05822 -5.46968 20
51 1 7.47271 -8.39467 -15.776 16
52 1 -5.50002 4.72092 12.7737 22
53 1 -11.2477 -8.23393 -8.60405 11
54 1 -7.18461 6.9301 -4.67356 19
55 1 -3.78673 -9.85727 7.7885 22
56 1 -1.08856 14.0604 10.8264 8
57 1 -12.3743 5.78772 -7.12818 15
58 1 -3.99407 7.89129 12.7835 15
59 1 -0.820724 -15.4393 8.78536 20
60 1 5.44201 -16.6756 0.614269 19
61 1 2.46569 7.86185 13.1213 22
62 1 -11.4855 -2.38891 -8.81379 13
63 1 -12.6748 5.72666 -11.0302 8
64 1 6.12069 4.0306 10.1667 23
65 1 14.8679 -7.198 -9.53549 12
66 1 8.91362 -13.3816 10.8954 8
67 1 -13.5855 -2.62853 4.64068 14
68 1 7.124 12.6538 4.0346 23
69 1 4.24603 -9.56748 11.109 17
70 1 -4.02583 -17.5867 4.49883 16
71 1 12.7224 -1.72713 11.1623 21
72 1 4.10937 6.93801 10.1966 23
73 1 -1.23218 -7.46396 -8.09397 22
74 1 -12.7301 6.07253 4.61567 12
75 1 -6.84879 8.5851 -1.72315 22
76 1 1.36122 4.30337 -8.36978 23
77 1 12.8867 9.43814 -5.961 19
78 1 9.68792 -7.54067 5.43087 22
79 1 9.42728 -7.48651 10.88 19
80 1 -3.01829 13.2018 -3.93727 16
81 1 -8.89515 6.11026 3.70745 20
82 1 -6.62155 -6.14267 13.1217 18
83 1 -3.74633 7.47271 7.23119 24
84 1 -0.867731 -8.16333 10.2438 22
85 1 15.2903 -11.178 0.834286 13
86 1 -6.8997 1.59267 7.35115 25
87 1 -11.8225 -12.8225 6.79127 10
88 1 10.0497 -9.84847 -2.52579 24
89 1 6.90026 -2.58021 -10.6035 24
90 1 -1.55331 -7.47362 -13.2818 19
91 1 0.890069 10.1516 1.85691 25
92 1 -5.04614 3.79839 -8.78865 23
93 1 1.93215 9.65213 15.2966 10
94 1 0.98473 10.1942 -3.4972 24
95 1 -10.6645 9.2627 4.03663 14
96 1 -2.17233 -11.065 10.4284 18
97 1 16.3547 -1.42024 5.171 17
98 1 8.9295 -10.7567 -10.4555 19
99 1 5.90832 -3.45587 13.4195 21
100 1 -6.61452 -8.1452 -0.556749 23
101 1 -6.42068 -10.1737 -3.17197 22
102 1 11.7034 -10.4782 5.82967 18
103 1 10.0362 -2.01117 -10.5562 22
104 1 5.59632 15.3096 -1.00347 17
105 1 -7.02147 -15.584 8.02171 17
106 1 -7.06194 -14.0218 4.88371 20
107 1 5.58707 -11.0385 -16.3963 13
108 1 11.9117 -10.4464 0.252093 21
109 1 1.35578 -14.8435 11.1851 12
110 1 -6.84293 -10.0073 1.90049 21
111 1 16.134 8.41161 7.50118 19
112 1 14.5637 -0.387562 -10.8393 10
113 1 -14.7324 -5.50212 5.32907 12
114 1 11.0379 6.86411 4.99284 24
115 1 18.9817 7.8888 7.03833 11
116 1 -2.93151 -2.58031 15.0552 18
117 1 -1.04112 9.66215 10.0171 24
118 1 -1.87464 12.0362 -6.14016 20
119 1 1.72416 -7.19169 -8.04129 21
120 1 8.74365 -12.822 -7.59226 20
121 1 2.82744 12.3459 -9.09275 16
122 1 14.1736 -6.16835 13.7587 10
123 1 -0.80408 0.167086 -16.39 16
124 1 -0.287546 9.39067 -6.2546 23
125 1 13.2063 -2.16042 -5.03929 25
126 1 -7.67659 8.78282 -7.21924 15
127 1 -4.09126 14.5757 -1.3854 15
128 1 6.83215 3.1069 -10.9361 20
129 1 11.097 -11.95 8.68224 13
130 1 -3.35427 1.11434 -8.66516 23
131 1 -2.7179 12.5231 8.92398 15
132 1 13.4322 1.20651 -8.03585 18
133 1 7.4483 10.4946 -2.96002 21
134 1 -0.726432 12.9144 1.87469 21
135 1 12.6783 9.41826 -0.384379 18
136 1 -2.12438 11.9474 -1.1611 22
137 1 6.09164 13.3404 -3.90655 18
138 1 6.30907 8.28043 -12.5721 14
139 1 -9.99311 -14.4254 -0.129437 15
140 1 -11.1448 10.0365 -3.09899 14
141 1 -1.17427 -5.82597 -10.7444 21
142 1 1.95875 -10.8365 -16.006 14
143 1 11.2917 12.6795 9.21704 9
144 1 0.821324 10.3539 7.31706 21
145 1 -10.0665 -4.58963 -3.48815 25
146 1 -8.59467 11.25 2.02794 15
147 1 14.8166 -1.26565 -2.16635 18
148 1 -10.3806 2.49576 -11.4197 14
149 1 8.6177 -1.13794 16.7215 13
150 1 5.61955 13.488 1.91672 20
151 1 -0.782253 7.70973 7.56067 26
152 1 0.12819 -8.17363 -16.0159 16
153 1 0.827916 12.3609 9.77394 17
154 1 -3.8132 8.91333 -11.88 16
155 1 4.5409 -4.93131 10.6754 24
156 1 -10.2325 -8.13115 4.44902 21
157 1 -4.50484 -7.99869 -13.7651 14
158 1 -5.39857 9.75071 -8.87959 13
159 1 -1.78324 -10.7029 5.01841 22
160 1 13.6445 -13.9844 0.0147699 11
161 1 -2.28694 10.0791 -9.09962 18
162 1 -13.5799 3.3032 10.5049 8
163 1 12.9323 7.75391 -2.81608 20
164 1 -4.05029 0.364843 15.7219 15
165 1 1.11489 -10.7697 10.3761 20
166 1 4.21543 12.208 4.75648 21
167 1 0.985654 6.58175 10.4778 25
168 1 18.9158 4.56137 10.9734 12
169 1 -3.19608 14.3753 1.86754 13
170 1 16.7863 -4.92622 -7.82178 12
171 1 -3.07367 11.2137 12.183 12
172 1 13.0321 -9.28543 3.02346 15
173 1 -12.1133 -1.28106 7.53109 17
174 1 -7.05644 -7.93258 4.54669 23
175 1 14.278 7.23807 10.7778 22
176 1 -13.5933 -2.7467 -0.631112 14
177 1 0.17866 -14.0287 -0.211513 21
178 1 -0.768967 9.31052 4.44066 24
179 1 7.18658 12.3297 9.5527 15
180 1 -2.7656 12.1676 -11.827 8
181 1 -13.0538 -3.02078 -6.21758 12
182 1 -8.54316 -4.8036 9.90413 23
183 1 1.44652 -10.6681 5.16834 22
184 1 6.66606 -15.0645 8.92313 10
185 1 -10.5105 7.16046 1.98263 20
186 1 17.6971 4.85985 2.58959 17
187 1 -4.87278 -11.5348 -11.0654 10
188 1 6.15303 -1.96936 10.6108 24
189 1 7.83013 -15.4108 2.94403 13
190 1 1.00691 11.9332 -11.8958 14
191 1 9.51005 -13.0239 -12.9321 10
192 1 15.1183 -3.71872 -10.4181 12
193 1 6.59619 6.02364 -15.402 11
194 1 -3.20748 -4.66349 -8.24412 22
195 1 -3.41315 8.9088 -6.21081 20
196 1 -7.50151 -13.4969 10.0111 16
197 1 5.03113 17.9964 0.518582 11
198 1 -6.11481 -2.1007 16.2041 13
199 1 -7.94927 10.5422 -4.57194 16
200 1 9.35393 -1.74733 10.4373 21
201 1 2.12404 -11.0584 -10.653 23
202 1 -5.31212 9.42316 -3.51265 19
203 1 5.17921 4.07456 -13.0371 21
204 1 -5.2795 -14.0085 11.1412 12
205 1 -8.93631 4.24606 7.16394 22
206 1 -7.21452 3.67974 9.53363 22
207 1 3.68992 -14.4278 -5.12925 21
208 1 -4.536 -16.8288 -0.664696 17
209 1 11.676 -10.4872 -5.21157 22
210 1 13.8733 3.74311 13.1604 20
211 1 7.9676 4.57797 -8.29318 22
212 1 -0.6531 8.97888 -0.582654 25
213 1 -8.89774 0.366853 4.5187 22
214 1 -10.6899 8.78831 -6.02331 15
215 1 2.64092 3.89379 10.0609 22
216 1 2.10385 -16.8161 -6.42471 13
217 1 13.0785 -1.98943 0.209021 21
218 1 -7.12321 3.29776 4.73658 21
219 1 -11.5906 -7.57209 -3.31986 18
220 1 8.34193 0.355214 -10.6386 24
221 1 2.89106 -2.11995 10.5212 23
222 1 9.74879 7.07737 -7.85619 23
223 1 6.85704 -10.0211 -2.82411 24
224 1 0.30832 -2.65069 -10.9399 22
225 1 -1.58325 -18.0851 9.04391 13
226 1 9.70874 -1.99693 -5.08659 23
227 1 -10.2877 -4.13738 6.85665 20
228 1 8.45742 -16.0916 -0.139143 16
229 1 -10.6099 -11.1511 -7.06421 13
230 1 7.37683 12.5012 -1.1271 22
231 1 0.478307 -4.4621 -13.391 22
232 1 12.0668 1.77085 14.1355 17
233 1 15.7973 2.25587 2.92106 21
234 1 8.90742 -7.18032 -13.0538 22
235 1 -6.29242 -2.89129 -11.4719 19
236 1 -11.6775 -0.0637571 -6.18209 20
237 1 -7.73373 -17.1472 5.22382 11
238 1 11.4996 -4.59407 10.9185 23
239 1 -2.98588 -8.70002 -10.9647 18
240 1 1.5812 5.89112 -11.1236 20
241 1 -3.20274 -9.91497 2.3491 21
242 1 2.55353 9.30885 -0.590457 24
243 1 -8.5067 -3.24368 12.6743 22
244 1 -6.12999 -8.48639 -5.79024 22
245 1 -4.52088 -5.48473 -10.955 20
246 1 1.80158 6.85222 -16.5749 11
247 1 -7.68891 -11.6081 -5.40307 23
248 1 10.5373 -6.9215 -15.6593 11
249 1 11.375 0.948128 -10.2159 20
250 1 11.6525 1.24095 5.41572 22
251 1 -10.2285 -7.64567 10.3107 20
252 1 -1.67744 -11.283 -0.149321 21
253 1 6.3658 0.432739 18.4228 11
254 1 -10.4268 -13.36 -5.2047 11
255 1 1.64877 -12.6102 2.69805 22
256 1 -1.01489 14.9385 -0.701439 21
257 1 5.3554 -1.54637 -13.2819 23
258 1 0.483147 -8.55959 -10.6339 21
259 1 -7.10982 -11.7767 12.692 13
260 1 3.11267 3.95468 15.7475 22
261 1 5.37777 -10.6304 0.0364029 23
262 1 -6.26918 -14.2474 -5.42975 14
263 1 -8.87176 5.6074 -6.81277 19
264 1 12.7002 2.33055 7.93911 20
265 1 -4.89307 0.0573427 -11.4343 22
266 1 4.66415 4.70245 -8.70505 23
267 1 7.65013 -15.8178 -8.60217 10
268 1 -0.925379 14.7769 -6.03227 14
269 1 4.0446 10.5137 7.43974 21
270 1 11.2139 -0.902774 7.89921 21
271 1 -8.65025 -1.29789 7.43042 23
272 1 -0.347632 -6.32155 12.7114 21
273 1 -7.1319 7.16099 6.92321 24
274 1 5.56763 -7.23732 -13.633 22
275 1 16.3694 7.27381 -2.78557 18
276 1 8.17953 -12.5613 2.97519 20
277 1 0.192339 -2.66546 15.9638 17
278 1 -13.4114 -4.07552 7.43525 17
279 1 6.32789 -18.404 -2.11742 10
280 1 -8.85274 6.3242 9.31702 17
281 1 -7.41604 7.51508 12.8925 15
282 1 -11.6173 -6.94733 7.91141 19
283 1 -12.3179 -9.82533 8.5981 12
284 1 13.0477 -4.12319 -2.33333 21
285 1 -8.78781 -10.2491 10.1899 20
286 1 8.56262 -7.44805 -8.07791 23
287 1 14.6277 -10.8298 -5.32035 14
288 1 2.31599 15.3029 -0.671311 20
289 1 -10.6499 6.80971 -8.94245 16
290 1 6.08155 7.91473 12.9023 23
291 1 -10.3407 -2.39616 4.6071 26
292 1 8.38149 -10.8629 0.234087 22
293 1 -3.96082 9.13602 4.30725 23
294 1 6.66114 -11.0642 11.639 11
295 1 14.4013 -6.35071 3.61046 19
296 1 -0.628061 3.7374 10.325 24
297 1 3.87316 3.28096 18.0977 14
298 1 -2.55283 12.2774 4.53382 20
299 1 11.0024 5.69655 13.3894 23
300 1 -5.80133 12.0101 -2.43281 17
301 1 -2.7104 -2.86657 -16.1892 12
302 1 7.02228 -10.0877 -13.2027 22
303 1 -3.90609 3.83427 15.2065 11
304 1 -12.1357 0.144329 4.48317 14
305 1 -3.75473 7.31134 1.93455 23
306 1 9.80124 -3.49072 8.3877 23
307 1 -8.22052 -12.8985 2.44253 21
308 1 7.90157 -6.3675 8.09895 21
309 1 -5.6423 -11.0867 10.0331 19
310 1 -11.6382 10.7007 0.495025 9
311 1 -0.432174 -1.97801 10.3376 22
312 1 5.41157 -13.0437 -7.98277 21
313 1 -2.99239 -2.82624 -11.0621 23
314 1 8.68791 -5.23508 -17.0317 9
315 1 4.07007 10.453 2.12682 24
316 1 -8.59199 -1.67797 -3.25884 24
317 1 4.01848 -10.488 -13.5164 19
318 1 10.3441 3.74213 -10.8375 21
319 1 -3.00044 -14.5698 -5.27351 18
320 1 -7.88538 -7.63111 -8.48409 20
321 1 12.3848 4.65708 16.2028 13
322 1 14.4431 4.47739 -2.41546 24
323 1 -3.50383 3.23931 -11.5247 21
324 1 4.46819 15.0689 4.77869 15
325 1 -13.3103 -4.64817 -3.35696 14
326 1 -5.33137 4.58699 7.37085 24
327 1 -5.7753 9.72783 1.75554 22
328 1 -3.68648 3.6526 10.1216 23
329 1 14.0988 1.56177 10.9437 22
330 1 11.5461 -4.93887 -5.18158 24
331 1 5.02255 -5.52535 15.4237 11
332 1 14.7124 0.442478 -5.29049 19
333 1 -0.862803 -17.1622 -5.71649 12
334 1 2.58854 9.33901 4.68773 23
335 1 -8.38926 -0.210358 -6.11184 23
336 1 11.0915 -15.112 -1.80072 13
337 1 14.5888 -0.257772 8.55971 23
338 1 -6.60109 -3.05778 -5.80801 25
339 1 -5.18486 -11.0032 4.75369 23
340 1 -6.88497 -7.91972 10.197 22
341 1 -2.51439 10.4296 1.64432 19
342 1 -13.3006 -9.00063 -0.87866 11
343 1 7.68693 6.95456 15.5309 12
344 1 -8.72752 6.24556 -0.514541 21
345 1 1.01062 10.1097 -9.14137 19
346 1 5.86567 9.77356 4.53567 23
347 1 -13.2702 -10.4717 2.06011 15
348 1 1.92005 -11.4552 -5.49008 19
349 1 -10.28 -2.30634 9.52037 20
350 1 -12.9033 7.24462 -3.74335 14
351 1 4.99816 -10.5616 5.31495 22
352 1 -3.12422 -17.5769 -3.55742 12
353 1 12.4079 10.1502 10.353 22
354 1 11.6298 4.5906 -13.1494 11
355 1 -12.0288 3.45448 -9.10055 14
356 1 1.0335 12.2613 -6.36157 24
357 1 -6.73887 2.70731 -6.1941 23
358 1 0.152579 -15.6313 2.79713 21
359 1 14.5753 7.02361 5.14058 23
360 1 4.11526 6.82784 -14.0557 17
361 1 -10.6297 1.1564 1.67437 22
362 1 -2.70693 -15.6698 2.04816 20
363 1 12.2873 -5.30606 -10.3293 19
364 1 -12.0137 0.841291 9.54157 15
365 1 -12.5114 -4.79443 10.4822 14
366 1 -10.4205 7.21963 6.1574 18
367 1 -8.38952 2.04652 -13.3864 9
368 1 5.47371 -11.0573 -10.4869 23
369 1 0.206041 -10.3999 -7.85253 24
370 1 -5.32528 -5.03788 9.97478 22
371 1 -1.73118 4.12488 -13.8904 24
372 1 10.2558 -13.2096 5.12691 13
373 1 4.48774 15.7944 -4.13121 13
374 1 -8.88188 9.8596 7.18872 14
375 1 3.11191 0.622207 18.6672 10
376 1 -8.73333 -10.2419 -10.1525 12
377 1 -6.93192 -9.70315 7.09386 21
378 1 12.946 -9.17829 8.28712 15
379 1 12.8282 -7.16125 5.47357 19
380 1 18.0896 6.72652 -0.416063 11
381 1 -2.53571 -1.02419 12.6786 20
382 1 6.09512 9.50453 -5.69171 22
383 1 3.77181 -16.0866 -2.1169 18
384 1 -0.349072 3.75152 15.6654 19
385 1 5.65001 13.4148 7.36135 17
386 1 -8.3909 -13.1696 -8.07084 13
387 1 10.4709 12.5183 4.12763 16
388 1 7.66732 4.97054 7.67127 24
389 1 -6.84794 -2.03899 10.1304 23
390 1 -2.89467 -10.3164 -2.88542 23
391 1 -9.97031 2.63392 13.3327 16
392 1 -8.15186 -5.94959 -5.85805 22
393 1 -5.71274 10.362 6.95367 19
394 1 -1.54079 -11.5087 -5.21046 22
395 1 0.491053 -9.90199 -13.3673 21
396 1 -5.00833 -12.8174 2.31081 24
397 1 9.46017 2.03461 7.9488 23
398 1 -3.60805 -6.17876 12.9898 20
399 1 -8.72662 3.6358 -8.81357 23
400 1 11.3343 4.95963 2.67609 23
401 1 -6.61201 -13.9944 -0.400601 21
402 1 5.55007 17.9302 3.77746 11
403 1 2.276 9.53394 10.1972 22
404 1 -10.4498 -2.56274 -0.655392 23
405 1 1.70739 19.0108 0.744063 11
406 1 11.4877 9.87468 -9.59347 11
407 1 -4.51745 -7.45559 -8.22507 22
408 1 4.48051 0.895913 15.8502 22
409 1 4.17608 -15.7865 -8.42568 15
410 1 2.24566 -1.3657 -13.2631 24
411 1 10.5003 -13.5756 0.985089 19
412 1 -7.53608 9.07356 4.39052 21
413 1 9.36345 2.27524 13.1941 24
414 1 10.9491 6.48177 -0.0112484 22
415 1 5.93848 9.66312 -0.643231 24
416 1 -7.08732 6.67358 -9.22638 18
417 1 -8.46073 -5.49885 -0.655107 24
418 1 2.46684 13.4943 2.06582 20
419 1 -6.11982 0.342827 -14.755 12
420 1 12.7832 7.85023 2.28785 21
421 1 10.6497 11.2423 -6.57865 17
422 1 14.8985 0.9064 0.131264 20
423 1 0.386982 1.38115 -13.5511 24
424 1 1.40032 -12.9186 8.13196 21
425 1 3.65468 -15.4605 9.24604 13
426 1 -6.77782 1.13845 -8.67667 23
427 1 -3.70668 -14.4077 4.56199 19
428 1 3.73364 -13.6812 -10.8978 16
429 1 9.11695 9.83508 4.2975 21
430 1 3.69401 3.78075 -15.8851 14
431 1 6.0216 -1.64082 15.6913 17
432 1 -12.7952 0.652273 12.8743 10
433 1 -1.06643 -16.9257 5.78376 16
434 1 -10.1908 -4.43838 1.96312 24
435 1 15.0007 -6.97798 -2.32541 17
436 1 11.788 -1.2152 -2.5244 21
437 1 5.11408 -11.3227 -5.2624 22
438 1 5.00507 0.218711 -10.6547 25
439 1 15.7677 -7.88313 -6.6807 12
440 1 -1.67467 -5.55959 15.5872 13
441 1 9.56536 13.1609 -4.05394 19
442 1 -1.19352 -2.02948 -13.5954 22
443 1 8.51342 4.07008 -13.2239 18
444 1 -5.21678 -7.00653 7.46831 24
445 1 -0.0572628 13.0355 -3.62057 21
446 1 -6.97673 -5.70019 -13.1498 14
447 1 -11.9581 -1.93295 1.95716 20
448 1 -1.65408 -10.641 -14.8208 12
449 1 -1.66258 -15.6137 11.859 8
450 1 7.86116 6.39298 -5.52534 22
451 1 16.0926 -1.25071 10.811 15
452 1 15.9777 3.67738 -0.0576674 20
453 1 -8.16926 -11.2574 -0.475751 24
454 1 -3.19271 -6.57984 -16.2225 10
455 1 -6.25133 12.3749 9.2708 10
456 1 11.3679 -4.79607 0.383514 23
457 1 2.50755 14.911 -6.38945 13
458 1 15.7041 5.08394 -7.73647 11
459 1 4.40724 6.901 15.3942 16
460 1 -8.67745 0.701809 10.1073 23
461 1 9.06569 8.11848 12.8962 19
462 1 11.8664 -1.34837 16.5884 10
463 1 2.28424 0.55727 -16.4521 14
464 1 -2.992 -8.74787 -5.66969 20
465 1 1.39029 0.813192 10.1975 22
466 1 12.5519 8.11577 7.63828 23
467 1 10.0304 1.63029 -8.27641 22
468 1 -3.76231 6.98463 -3.68998 23
469 1 3.07229 13.1012 -3.32749 20
470 1 15.0319 -7.43422 10.5599 12
471 1 12.7342 -2.41143 -10.6992 18
472 1 10.4425 -12.9994 -4.32439 18
473 1 14.0386 6.16206 13.8639 16
474 1 -11.2996 -11.7804 -0.577183 18
475 1 -1.2094 10.3602 -13.7581 10
476 1 -9.60067 -0.284707 12.8574 19
477 1 -0.683749 12.7283 -9.17851 15
478 1 6.56226 -13.5639 0.401517 23
479 1 6.75114 -4.43684 -8.17141 25
480 1 0.085903 17.9226 -1.84657 13
481 1 -6.52458 -8.62953 -11.5894 16
482 1 6.43675 -13.4698 5.44794 20
483 1 -11.7322 -7.47391 1.61043 19
484 1 1.84066 9.05033 -13.6567 12
485 1 -0.57689 7.70181 12.8464 15
486 1 -8.3376 -7.05565 7.3473 23
487 1 1.17224 -12.584 -13.1333 12
488 1 2.65478 -7.81385 10.1639 19
489 1 -8.90361 4.10873 1.66897 22
490 1 7.64701 1.5643 15.7014 19
491 1 11.008 14.3238 -6.2829 8
492 1 16.1263 -10.8241 -1.88708 10
493 1 5.95071 2.34219 13.0689 23
494 1 0.42199 3.54998 -16.2714 15
495 1 -9.82725 -15.7262 8.09915 9
496 1 7.76915 -2.69721 -16.0133 11
497 1 2.85076 16.9009 2.49202 13
498 1 13.0855 7.38646 -8.19455 16
499 1 -3.64253 -4.69513 -13.6075 18
500 1 -1.58905 -13.4092 -2.55127 19
501 1 -9.49137 -6.9225 -11.0983 12
502 1 12.929 2.00958 2.78603 26
503 1 17.9044 4.26828 -2.47106 13
504 1 6.81715 -10.0165 -7.68277 23
505 1 12.029 8.28889 13.458 18
506 1 8.46357 -10.7686 -5.02636 23
507 1 6.9646 0.845549 -13.4074 19
508 1 8.99364 13.7049 1.78785 18
509 1 10.8072 7.27472 15.8966 12
510 1 14.6243 6.72846 -0.295799 23
511 1 13.2626 -3.43035 8.5183 21
512 1 16.0934 10.0111 -4.6466 11
513 1 9.44795 -3.44553 12.8093 16
514 1 16.8574 3.46748 13.7075 14
515 1 1.109 -4.839 10.2028 22
516 1 14.2105 11.0768 -2.66728 15
517 1 2.93046 -1.73629 15.6915 15
518 1 16.4439 -2.49771 -5.23527 12
519 1 11.0273 0.984771 10.6014 23
520 1 -4.88757 -1.61023 -8.54345 23
521 1 14.4751 4.99728 2.50604 26
522 1 -9.5682 8.96418 10.8227 8
523 1 10.7365 11.2154 12.8449 12
524 1 12.232 -3.46615 14.295 15
525 1 5.9926 7.87995 7.33283 20
526 1 3.92494 12.7712 10.2068 13
527 1 -2.63968 -19.4381 -1.22798 11
528 1 -5.33658 5.89297 -1.0296 21
529 1 9.35264 7.44172 -2.83299 20
530 1 10.527 -4.06334 -12.7862 16
531 1 0.892485 12.23 -0.704105 24
532 1 0.269061 -14.2319 -5.23136 21
533 1 12.1104 -6.66361 -13.2481 13
534 1 -10.4941 3.4547 9.79143 18
535 1 -2.12578 6.19963 -11.5831 23
536 1 -7.62935 -17.2182 0.0845906 11
537 1 -4.60416 -1.83514 -13.7611 16
538 1 -10.2563 1.15055 -3.77189 22
539 1 11.0646 -6.60048 3.04775 21
540 1 13.8677 10.9783 7.48398 16
541 1 2.82071 -9.8117 7.81243 21
542 1 -10.0337 -2.76477 -5.90648 23
543 1 5.15763 0.70076 -16.183 10
544 1 -0.968953 0.25741 15.6865 16
545 1 4.3151 6.53747 -11.1465 21
546 1 14.4854 -4.03536 11.4231 18
547 1 11.3825 0.749924 -5.30063 23
548 1 16.3651 9.6068 4.5983 13
549 1 6.32031 -15.495 -11.1564 10
550 1 -8.16742 -4.98519 15.432 11
551 1 17.8273 -0.295558 2.30796 10
552 1 3.81841 10.683 12.5926 16
553 1 8.45042 8.48516 -10.0782 16
554 1 -11.8559 7.87066 -0.445942 16
555 1 10.9293 10.411 1.82537 17
556 1 -9.96413 -10.6485 -3.31803 18
557 1 13.3197 -1.82695 5.67527 22
558 1 7.54697 16.5944 1.07225 14
559 1 -5.49856 0.805275 10.0427 24
560 1 -10.2766 -10.3357 2.03038 23
561 1 -6.428 -4.53395 -8.55285 21
562 1 16.6611 -4.60951 9.52739 11
563 1 -3.76657 -16.7422 10.1258 10
564 1 14.9021 0.347894 13.841 16
565 1 -3.88164 9.28015 -0.802696 22
566 1 0.402176 -2.83206 -15.985 19
567 1 -7.02928 -4.04914 7.57705 25
568 1 10.0221 -4.15766 -8.11041 21
569 1 13.2143 -7.49148 -4.69184 20
570 1 9.43859 4.16003 10.5188 24
571 1 -9.03045 -1.91937 15.138 14
572 1 16.1416 4.51506 5.41051 21
573 1 2.67555 -3.78838 13.156 24
574 1 -2.21297 6.61384 9.99817 22
575 1 3.55584 -4.32003 -13.4527 23
576 1 -6.41342 -0.477094 12.9282 20
577 1 10.7882 -0.685866 13.4988 20
578 1 -5.26319 -12.7461 7.42804 22
579 1 16.4062 8.03487 2.01281 16
580 1 8.6828 -12.9264 -2.12166 23
581 1 10.0843 12.1183 -0.745777 20
582 1 10.716 10.9613 6.76552 18
583 1 3.92468 -2.61773 -16.1503 17
584 1 9.62756 9.22567 -5.156 18
585 1 13.014 4.33234 5.47457 22
586 1 -4.74275 -11.147 -0.512901 22
587 1 -3.22598 3.60627 -16.6252 10
588 1 -8.67112 11.5486 -1.05473 15
589 1 10.5204 -7.8713 -10.3587 18
590 1 11.6569 4.32744 -8.09749 23
591 1 16.7977 10.0854 -0.876611 9
592 1 11.4494 4.73753 -2.7282 22
593 1 17.5187 -0.0192907 13.9992 8
594 1 14.6706 -2.71589 14.7323 10
595 1 2.13263 -16.9377 4.94367 16
596 1 -0.276368 7.03129 -14.3402 20
597 1 7.45284 10.7206 6.855 21
598 1 8.70187 -11.4397 -15.3143 11
599 1 12.148 13.9677 -2.59913 12
600 1 7.50058 10.3965 1.36652 24
601 1 14.7284 -4.75634 0.402782 16
602 1 9.26834 4.23316 15.9764 17
603 1 -11.6886 -5.54241 4.88287 23
604 1 4.54715 -16.3399 6.33409 14
605 1 -5.74388 12.6825 0.559788 16
606 1 6.00163 7.58339 2.24676 24
607 1 -13.3845 -4.90095 2.27427 16
608 1 1.09441 3.68062 18.7255 9
609 1 -3.68346 6.44834 -14.3742 14
610 1 -3.96359 7.09456 -8.86594 20
611 1 3.36337 -13.7021 0.298219 22
612 1 9.55595 3.49005 -5.46268 22
613 1 -8.74663 5.2167 12.0891 15
614 1 6.93812 -4.34433 -13.2462 21
615 1 4.9555 -12.3973 8.16174 21
616 1 4.01217 12.4836 -0.789928 20
617 1 -2.22392 2.77652 17.7387 10
618 1 -6.33822 -10.6937 -8.46035 19
619 1 -1.36791 -11.2388 -11.1984 17
620 1 -4.81939 -11.6602 -5.56392 22
621 1 1.30139 16.8234 -4.51297 13
622 1 5.1613 -7.14191 -7.96665 24
623 1 -2.28057 10.6256 6.95576 21
624 1 10.1028 -9.8983 -7.73147 23
625 1 4.01347 -19.4371 -0.258534 13
626 1 6.05139 -7.60638 10.5661 19
627 1 15.1731 -1.86636 -8.13883 17
628 1 8.12918 -15.8624 -3.17123 14
629 1 -10.1649 -5.42079 13.0118 14
630 1 -5.92713 -15.8246 2.28975 23
631 1 -4.8423 -13.1094 -2.88131 22
632 1 -7.27202 1.09762 15.5893 15
633 1 -1.13211 -16.951 -0.172273 20
634 1 17.8981 6.50207 -5.15742 12
635 1 0.804444 12.5705 4.40941 16
636 1 -12.8539 5.25641 -0.66315 13
637 1 14.616 1.26001 5.67153 23
638 1 -9.94246 -5.0313 -8.18874 19
639 1 3.00711 9.39433 -5.94982 23
640 1 11.4909 -1.3553 -7.84522 26
641 1 7.26899 10.857 12.4149 11
642 1 13.0394 1.65184 -2.57796 25
643 1 -13.5486 1.456 -3.48721 12
644 1 -11.6517 -5.83135 -5.82424 18
645 1 1.11932 6.80261 15.5715 13
646 1 7.23749 5.72684 -10.534 24
647 1 15.8919 10.5372 9.9874 11
648 1 -0.901474 -3.83719 13.2472 22
649 1 2.13383 -16.7143 0.253909 21
650 1 -5.07522 -18.3058 7.45082 11
651 1 -2.0751 -9.53177 13.0967 15
652 1 17.4071 7.61828 10.5707 13
653 1 3.47731 -10.1813 -8.05499 22
654 1 -6.94315 7.16392 1.34977 20
655 1 7.68905 6.42744 4.97484 22
656 1 -8.51114 -5.4236 4.70866 22
657 1 11.2425 6.97081 -10.5073 18
658 1 0.218946 -16.309 -2.79362 15
659 1 0.702607 -19.5877 0.183329 13
660 1 2.1645 -18.5434 2.24917 15
661 1 6.65715 1.68339 -8.19321 23
662 1 8.84842 15.2334 -1.07161 15
663 1 -2.81116 1.2825 -13.711 21
664 1 0.963578 -1.18838 13.1189 24
665 1 -1.79003 5.97141 -16.8235 10
666 1 -9.09021 -3.98154 -10.8908 17
667 1 -8.39766 -7.05854 1.94792 24
668 1 2.96874 17.8563 -1.84581 13
669 1 -1.33489 -5.31687 -17.7255 9
670 1 12.9975 3.60659 -5.40235 24
671 1 13.5992 -7.51257 0.455015 21
672 1 -5.42922 6.53307 10.0031 24
673 1 8.06475 -10.352 5.59792 23
674 1 13.1222 -3.59136 2.90559 25
675 1 14.8971 -6.67168 7.53729 13
676 1 2.64423 7.70853 7.60968 23
677 1 -7.87817 4.36623 15.2283 10
678 1 -3.95559 1.94966 12.8989 21
679 1 -3.68324 -15.6869 7.40239 21
680 1 7.59814 6.93973 10.0312 22
681 1 -11.9433 0.188103 -1.17448 17
682 1 11.569 -7.04454 -2.41312 23
683 1 -5.42078 11.9324 -6.03744 12
684 1 1.40733 -17.4286 7.75819 11
685 1 7.59871 -0.701791 13.0968 22
686 1 -0.474319 13.4485 7.14163 12
687 1 3.09706 -13.4055 5.65462 24
688 1 4.57118 0.97618 10.2668 23
689 1 -11.6834 -5.56262 -0.822981 21
690 1 7.84163 5.06756 12.865 21
691 1 11.0415 10.6711 -3.1238 24
692 1 -11.2774 -12.8476 3.16173 16
693 1 -4.7246 -18.9938 1.71694 12
694 1 7.95985 -5.00422 10.6493 20
695 1 11.21 -6.26648 8.11343 24
696 1 10.7116 5.10689 7.67808 20
697 1 -3.14025 -10.5558 -8.58219 19
698 1 -1.35506 0.151475 -11.2727 23
699 1 1.5864 -5.46511 14.9446 13
700 1 -0.160003 16.2027 1.35068 13
701 1 18.0269 1.71998 5.15722 15
702 1 4.34262 6.50357 -6.12288 22
703 1 -2.12904 4.67914 12.737 21
704 1 10.6621 7.23834 10.2735 21
705 1 8.62 -5.13593 -10.7234 24
706 1 -3.31635 -14.0651 -0.115404 22
707 1 19.5648 2.80661 8.01629 11
708 1 5.16397 -5.35412 -10.7168 23
709 1 1.13472 4.638 12.8681 23
710 1 13.1144 -12.2517 -2.36889 17
711 1 10.0869 1.49946 -12.9581 17
712 1 13.5536 4.28605 -10.0205 12
713 1 14.5322 -1.03431 2.7931 21
714 1 3.29792 -12.7894 11.5415 14
715 1 1.9732 -13.3181 -8.17575 20
716 1 13.9104 12.4813 -5.27125 12
717 1 -10.1874 1.41808 7.0611 23
718 1 15.983 3.67962 -5.18836 16
719 1 17.4869 5.39904 8.58752 20
720 1 3.88099 -8.34479 -15.9842 17
721 1 -5.5849 12.1252 3.8821 15
722 1 15.7749 4.58935 11.1925 21
723 1 11.4434 6.35841 -5.48458 23
724 1 3.65345 1.33232 -13.6887 22
725 1 9.8086 -7.97561 0.0525553 21
726 1 -8.90549 0.322582 -0.859088 20
727 1 9.7683 3.88197 5.17043 22
728 1 -9.90371 -8.52074 -0.818011 22
729 1 -9.13716 5.85529 -11.8658 12
730 1 7.85156 1.2464 10.6846 23
731 1 -11.887 -1.67999 -3.42917 21
732 1 -7.30962 2.36022 12.3839 21
733 1 -1.93194 4.12763 -8.51545 25
734 1 11.9518 -7.20279 -7.74665 22
735 1 -9.46748 -8.71008 -5.64871 18
736 1 16.6207 -8.22015 0.0347215 10
737 1 -12.1585 4.52818 1.78521 16
738 1 -8.35033 -7.37854 -3.32541 20
739 1 14.2941 5.2809 8.03896 21
740 1 -2.02009 -12.9377 6.73629 16
741 1 10.4632 1.20065 16.6229 14
742 1 14.7854 -4.22238 5.85311 18
743 1 11.5457 -4.5109 5.63456 26
744 1 -10.6909 3.31713 4.46186 18
745 1 9.42803 10.2253 10.0915 21
746 1 6.17179 7.32303 -8.20044 23
747 1 2.33359 -7.37664 -13.4949 21
748 1 -4.20273 13.5485 6.87812 11
749 1 -10.0008 -9.71853 7.42573 20
750 1 9.40425 9.52838 -0.846697 20
751 1 4.42202 5.02709 12.5979 23
752 1 14.8518 -4.87749 -4.85541 18
753 1 9.51072 -9.32334 8.25078 21
754 1 3.72229 9.97012 -11.1036 14
755 1 4.4217 12.2845 -6.294 19
756 1 -3.90356 -1.91569 9.92453 21
757 1 15.8954 2.83627 8.08092 23
758 1 2.10424 -5.49004 -10.5067 22
759 1 14.4838 10.2943 1.95701 13
760 1 -10.4742 3.1841 -0.913867 23
761 1 -0.500737 -12.4989 12.1694 12
762 1 7.75883 13.2187 -7.04597 13
763 1 7.65762 -6.71493 13.5008 14
764 1 2.00605 -13.2057 -2.5523 22
765 1 -1.79217 16.222 -3.44964 13
766 1 -13.8308 1.80136 0.755886 9
767 1 13.0284 -3.99509 -7.79902 23
768 1 6.05607 -13.2061 -13.4858 12
769 1 -5.55683 6.34927 4.48302 18
770 1 14.927 6.58489 -5.09183 19
771 1 2.14439 -5.54157 -16.2213 16
772 1 -4.54442 -13.3304 -7.97546 16
773 1 5.21333 -13.0817 -2.49016 22
774 1 0.212941 10.1833 13.3688 16
775 1 13.9538 -9.56122 -2.12469 22
776 1 0.0358013 8.81319 -11.6643 22
777 1 16.1158 1.72784 -2.82515 15
778 1 9.3352 7.68752 2.133 21
779 1 3.50704 -15.4798 2.85955 20
780 1 5.3599 -5.38817 -15.8621 19
781 1 12.7541 3.67274 0.149995 24
782 1 -0.352119 3.26269 -10.9891 23
783 1 -0.441122 -9.76964 7.60255 22
784 1 6.11234 7.64302 -3.13327 24
785 1 8.16825 -1.46853 -8.0039 23
786 1 -8.7223 4.00168 -3.83076 22
787 1 -12.2016 4.31748 7.22345 14
788 1 1.64116 0.737517 15.7364 19
789 1 -8.53224 -12.6798 7.27728 20
790 1 9.10445 8.18997 7.58745 21
791 1 4.71142 -18.596 3.28101 12
792 1 6.05465 11.0003 -9.33099 14
793 1 -4.20284 9.43849 9.71628 24
794 1 -5.00647 -3.29088 12.6829 21
795 1 -7.19244 9.24421 9.82637 20
796 1 -3.78531 -7.94379 10.3825 25
797 1 6.26732 -9.74209 8.08101 21
798 1 12.5114 4.59589 10.5351 23
799 1 10.2756 -7.91255 -5.02364 21
800 1 10.7897 -9.87079 -12.8794 13
801 1 -8.48349 -1.77106 -13.8872 9
802 1 -5.17402 2.96816 -14.1238 16
803 1 8.84809 13.6597 6.80088 16
804 1 -5.09517 -9.09037 12.8756 16
805 1 -2.13935 6.37749 -5.91533 23
806 1 -11.9301 4.36043 -3.68459 20
807 1 13.0019 9.87599 4.5769 16
808 1 -9.23189 -15.853 2.6015 13
809 1 14.4013 9.71616 12.8501 10
810 1 -8.53365 -13.3016 -2.66573 20
811 1 8.15584 15.5159 4.19686 16
812 1 -4.82778 -4.96272 15.8048 13
813 1 5.16087 -16.7783 -5.02488 12
814 1 17.9791 0.0315434 7.79825 12
815 1 -1.50015 -18.7064 2.26791 15
816 1 5.76999 4.1141 15.4487 19
817 1 8.91424 -1.64722 -13.4086 17
818 1 9.91337 -9.58753 2.89249 22
819 1 3.65559 -2.42438 -10.5317 25
820 1 -10.024 0.751594 -8.69029 20
821 1 -5.34025 6.08244 -11.7892 16
822 1 -0.54409 1.63973 12.878 22
823 1 12.1563 -7.78868 11.2365 15
824 1 -8.36497 -10.7019 4.48336 22
825 1 16.7327 -3.4886 2.75072 10
826 1 2.77563 2.92328 -11.075 23
827 1 18.0448 7.01862 4.94835 15
828 1 1.47479 12.809 13.1548 10
829 1 -14.9158 -7.51585 7.47442 9
830 1 7.02539 -13.8352 -4.9719 21
831 2 -12.8636 -4.73835 -7.17044 12
832 2 -2.1367 10.0906 -7.02577 25
833 2 0.217631 -4.56457 -11.4274 20
834 2 -2.16396 4.76905 9.41191 26
835 2 10.5265 -9.66961 -10.9865 15
836 2 -4.58566 -7.52423 -6.11876 21
837 2 1.20537 0.74229 12.1007 24
838 2 5.89006 -7.27587 12.5951 18
839 2 -10.2083 -12.7339 -3.48169 15
840 2 -12.7575 5.57893 -4.91903 15
841 2 2.52766 9.55962 6.66422 24
842 2 -8.92193 -1.52882 3.77181 22
843 2 6.17168 13.1847 -5.98806 16
844 2 11.1114 4.98634 4.57472 23
845 2 4.72578 12.0095 -3.60305 22
846 2 13.6573 12.8934 -3.38265 11
847 2 -11.0058 -0.730852 -9.86013 14
848 2 -7.85595 -7.98659 -6.25347 20
849 2 7.62293 -0.798187 10.088 24
850 2 8.65612 -5.45648 -8.63802 21
851 2 5.63002 -18.255 -0.375262 14
852 2 -6.87041 6.90715 -0.858604 21
853 2 -13.3578 2.88785 -4.59433 13
854 2 11.0854 1.0995 7.4321 23
855 2 15.1934 -9.84629 -6.90208 12
856 2 -6.47639 -10.2577 -1.11707 24
857 2 -10.0432 -7.81933 6.59787 25
858 2 -1.85976 -13.1127 4.75652 21
859 2 14.6656 -6.2492 5.4015 14
860 2 6.83138 -15.7634 -4.73113 16
861 2 3.42337 -6.2508 14.6802 12
862 2 2.51153 8.9615 -9.49784 20
863 2 0.16305 -19.2428 1.9168 13
864 2 -9.83697 -8.56018 -3.61606 20
865 2 4.46601 1.31345 12.3141 23
866 2 -7.24397 7.22962 3.90626 23
867 2 0.0684545 1.68888 14.9342 20
868 2 -5.41086 5.76782 -4.27017 23
869 2 3.35502 -14.6253 11.3148 9
870 2 -1.98233 6.45511 6.57912 23
871 2 -0.480694 7.39408 -6.71219 21
872 2 14.1975 10.4361 11.1517 14
873 2 5.28378 -5.34178 -8.81994 24
874 2 8.78846 13.5857 4.31372 17