ITEM: TIMESTEP
29000
ITEM: NUMBER OF ATOMS
2000
ITEM: BOX BOUNDS pp pp pp
-30.0 30.0
-30.0 30.0
-30.0 30.0
ITEM: ATOMS id type x y z Coordination
1 1 -18.0229 -1.92589 0.28435 14
2 1 -20.9519 -1.09984 1.72754 4
3 1 -18.0581 -2.19982 3.36364 14
4 2 -15.476 -0.529051 -3.38345 18
5 2 -19.7392 -0.834585 0.361882 7
6 2 -19.7944 -1.36727 3.21533 8
7 1 -9.98182 -14.9057 -7.15987 13
8 1 -8.66707 -15.7797 -10.1795 5
9 1 -1.94001 -16.9275 3.39486 8
10 2 -9.77567 -15.5314 -8.71886 7
11 2 -0.96705 -14.3338 -3.09597 14
12 2 -0.27444 -15.5234 3.41617 15
13 2 -3.31432 1.75403 -18.2243 11
14 1 -3.56085 3.74209 -18.3002 12
15 1 -4.67595 0.931024 -17.3237 14
16 2 -1.78151 3.43683 -17.6942 14
17 1 -12.1508 -11.9187 -7.08107 9
18 1 -12.5659 -6.51193 -9.33916 15
19 1 -15.2156 -8.13261 -7.54401 10
20 1 -12.6569 -6.32451 -6.65641 20
21 1 -15.3216 -6.81574 -5.20273 15
22 1 -14.0529 -10.1471 -4.81727 9
23 1 -12.685 -6.39141 -3.21194 20
24 1 -15.3789 -6.87405 -1.64601 13
25 1 -13.041 -9.18063 -1.64123 13
26 1 -11.9427 -1.26373 -13.1531 11
27 1 -13.1183 -4.18522 -11.9174 9
28 1 -12.0466 -1.08921 -9.51551 19
29 1 -15.2742 -1.58156 -8.0424 14
30 1 -13.5007 -3.54263 -8.52032 17
31 1 -16.0887 -4.57563 -6.83149 14
32 1 -12.4798 -1.02266 -6.50387 22
33 1 -15.5531 -1.51277 -5.06221 17
34 1 -13.0791 -3.67075 -5.19367 21
35 1 -16.3722 -4.31118 -3.31859 13
36 1 -12.6184 -0.761233 -3.26502 20
37 1 -15.1358 -1.41854 -1.81006 18
38 1 -13.3889 -3.65908 -1.7195 22
39 1 -6.73253 -12.5646 -10.4006 14
40 1 -9.61894 -11.9751 -8.20245 16
41 1 -6.93583 -12.5281 -6.57475 22
42 1 -9.7651 -13.1506 -5.02786 16
43 1 -7.75703 -15.985 -4.98105 10
44 1 -6.77787 -12.3053 -3.3568 18
45 1 -9.61249 -12.8298 -1.84161 15
46 1 -6.65886 -14.5024 -1.71309 15
47 1 -7.09096 -7.34784 -13.4206 17
48 1 -9.90488 -6.94323 -11.3907 16
49 1 -8.26355 -9.6745 -11.8972 13
50 1 -10.9355 -9.09426 -9.93257 12
51 1 -6.86913 -6.82619 -10.1541 22
52 1 -9.5569 -6.56011 -7.92802 19
53 1 -7.45717 -9.61587 -8.53995 20
54 1 -10.9761 -9.07251 -6.5373 16
55 1 -6.96982 -7.41509 -6.85508 21
56 1 -9.69197 -7.26231 -4.7453 19
57 1 -7.81671 -9.9719 -4.97387 22
58 1 -10.9875 -10.4186 -3.5708 18
59 1 -6.75789 -6.74297 -3.35106 21
60 1 -9.77296 -7.39409 -1.7586 19
61 1 -7.85497 -9.47256 -1.6407 20
62 1 -6.258 -1.85491 -16.1676 15
63 1 -8.88656 -2.1127 -14.9903 14
64 1 -7.37611 -5.09844 -15.6553 14
65 1 -10.0493 -4.34382 -13.2665 15
66 1 -6.31022 -1.73329 -13.193 21
67 1 -9.36257 -1.93615 -11.7164 20
68 1 -7.3 -4.58051 -11.7686 20
69 1 -10.2245 -3.99276 -9.89401 23
70 1 -6.66588 -1.05386 -9.80134 22
71 1 -9.62922 -1.18302 -8.45539 22
72 1 -7.64695 -3.93935 -8.64856 20
73 1 -10.2728 -3.40536 -6.71053 22
74 1 -6.90885 -2.03016 -6.58776 22
75 1 -9.66773 -1.62699 -4.58174 20
76 1 -7.69146 -4.51448 -5.02894 21
77 1 -10.344 -4.47613 -3.26782 21
78 1 -6.93175 -0.828246 -3.49271 20
79 1 -9.71457 -1.64752 -1.38639 21
80 1 -7.44586 -3.69751 -1.68544 22
81 1 -1.05103 -12.2944 -13.6006 9
82 1 -3.65967 -12.1569 -11.8233 13
83 1 -1.25404 -12.1222 -9.95397 16
84 1 -3.97212 -12.4294 -8.40519 21
85 1 -1.86564 -14.651 -8.35645 10
86 1 -6.02326 -14.997 -8.14561 14
87 1 -1.01226 -11.862 -6.55416 19
88 1 -3.88351 -12.3485 -5.15638 20
89 1 -1.83361 -14.7395 -4.85672 14
90 1 -5.07836 -15.5991 -4.90954 11
91 1 -0.963167 -12.0009 -3.03141 20
92 1 -3.8814 -12.7868 -1.66514 22
93 1 -1.60583 -14.661 -1.40381 14
94 1 -1.82426 -6.35702 -16.6598 13
95 1 -4.78855 -7.41889 -15.2992 16
96 1 -1.87659 -9.32017 -15.2514 14
97 1 -4.92237 -9.42337 -13.6045 16
98 1 -1.26317 -6.80591 -13.5683 22
99 1 -3.86685 -6.69544 -11.6337 21
100 1 -2.08978 -9.3666 -11.9073 20
101 1 -5.20848 -9.92761 -10.3394 21
102 1 -1.05564 -6.82799 -10.1056 22
103 1 -3.99604 -6.69689 -8.46542 20
104 1 -1.98715 -9.21827 -8.30779 21
105 1 -4.72638 -9.99266 -6.47832 21
106 1 -0.980944 -6.40966 -6.49477 21
107 1 -3.9492 -7.13514 -5.04335 21
108 1 -1.92141 -9.49915 -4.89628 19
109 1 -4.79298 -10.0446 -3.08359 21
110 1 -1.09085 -6.4516 -3.15746 20
111 1 -4.2809 -7.23104 -1.62253 18
112 1 -2.05976 -9.31095 -1.52477 21
113 1 -4.44939 -4.48274 -16.9129 13
114 1 -0.83211 -1.38332 -16.8028 14
115 1 -3.5261 -1.6925 -14.665 19
116 1 -1.53366 -3.97766 -15.0982 17
117 1 -4.58581 -4.54428 -13.5095 20
118 1 -1.09612 -1.20706 -13.2024 21
119 1 -3.95126 -1.12337 -11.3365 21
120 1 -1.68697 -3.92959 -11.5635 18
121 1 -4.53155 -3.90384 -9.73601 23
122 1 -0.983526 -1.32813 -10.0423 22
123 1 -3.62522 -1.14673 -8.52311 22
124 1 -1.90758 -3.97207 -8.1075 22
125 1 -5.19277 -4.81238 -6.61156 19
126 1 -1.03775 -0.994301 -6.56071 22
127 1 -4.10391 -1.78642 -5.11428 20
128 1 -1.72853 -3.78132 -4.80756 19
129 1 -4.66117 -4.22251 -3.15454 17
130 1 -1.11249 -1.58116 -3.22515 21
131 1 -4.30704 -1.76032 -1.77579 21
132 1 -1.83569 -3.57116 -1.0378 21
133 2 -13.6189 -7.45613 -8.16605 16
134 2 -16.1048 -6.40154 -6.95061 10
135 2 -12.2938 -10.2739 -5.92874 15
136 2 -13.5093 -5.95021 -4.97019 20
137 2 -15.875 -6.52839 -3.4602 12
138 2 -12.9649 -10.2636 -3.20947 11
139 2 -15.0562 -8.62718 -5.39385 11
140 2 -13.4851 -7.06473 -1.72966 19
141 2 -12.6685 -2.25407 -11.7147 16
142 2 -12.9965 -4.60799 -9.99572 15
143 2 -15.4551 -3.4431 -8.23117 11
144 2 -13.4163 -1.48663 -8.33805 18
145 2 -15.8643 -0.368876 -6.61614 15
146 2 -12.2274 -4.30981 -7.08661 20
147 2 -16.074 -3.39366 -5.21336 14
148 2 -13.4988 -1.62227 -4.96422 20
149 2 -17.5602 -3.29097 1.57844 15
150 2 -12.2406 -3.9341 -3.34 20
151 2 -15.48 -3.87997 -1.74526 18
152 2 -13.268 -1.79791 -1.6529 18
153 2 -7.70175 -11.9058 -8.24691 18
154 2 -10.6466 -13.0024 -6.97314 13
155 2 -6.36238 -15.6342 -6.382 12
156 2 -8.05071 -12.2775 -5.01357 21
157 2 -10.2107 -12.2359 -3.50101 15
158 2 -6.29432 -15.0161 -3.4998 14
159 2 -9.3069 -14.8993 -5.38733 10
160 2 -7.77823 -12.8782 -1.57753 20
161 2 -4.64248 -6.72439 -13.5349 19
162 2 -11.4144 -5.40265 -12.0007 12
163 2 -6.8881 -9.24202 -12.9976 14
164 2 -9.89356 -9.02953 -11.4785 13
165 2 -7.97526 -6.37036 -11.841 19
166 2 -10.5359 -7.15278 -9.55808 17
167 2 -7.04663 -10.3352 -10.4302 15
168 2 -11.1605 -10.3655 -8.47295 12
169 2 -7.89744 -7.60202 -8.79984 20
170 2 -10.792 -7.12277 -6.42204 20
171 2 -6.96247 -9.27548 -6.49059 17
172 2 -9.73409 -9.25335 -4.69246 18
173 2 -7.57585 -6.5002 -5.08927 20
174 2 -10.5147 -6.46511 -3.17077 19
175 2 -6.9948 -10.1411 -3.16515 18
176 2 -9.79833 -9.58881 -1.80552 20
177 2 -7.72506 -7.41858 -1.64728 20
178 2 -6.21953 -3.79481 -16.2333 14
179 2 -8.56372 -3.95368 -14.5386 15
180 2 -7.74112 -0.820916 -15.2262 14
181 2 -10.3231 -2.13095 -13.5658 14
182 2 -6.16837 -3.50781 -13.2167 24
183 2 -9.02524 -3.80484 -11.4151 22
184 2 -7.61977 -0.981229 -11.6133 19
185 2 -10.552 -1.84327 -9.90055 22
186 2 -6.37861 -4.78994 -9.84281 20
187 2 -9.57204 -4.64431 -8.16532 21
188 2 -7.82895 -1.95863 -8.5653 20
189 2 -10.4846 -1.39048 -6.60652 21
190 2 -6.80648 -3.94967 -6.7551 20
191 2 -9.51251 -3.76383 -4.98259 20
192 2 -7.89317 -1.02094 -5.22613 22
193 2 -10.6276 -1.15943 -2.98749 21
194 2 -6.86166 -4.51523 -3.33947 19
195 2 -9.40391 -3.58666 -1.34731 21
196 2 -7.59818 -1.49697 -1.62281 19
197 2 -1.79939 -12.4151 -11.7468 13
198 2 -4.74545 -12.1603 -10.1148 16
199 2 -3.8074 -14.915 -8.30642 12
200 2 -2.05451 -12.6939 -8.29425 19
201 2 -5.11302 -12.0528 -6.63841 21
202 2 -0.956943 -14.5108 -6.65738 14
203 2 -3.554 -14.6521 -5.1093 16
204 2 -2.07439 -11.9703 -4.94881 21
205 2 -4.78794 -11.9395 -3.25476 21
206 2 -7.44111 -14.5006 -9.56498 11
207 2 -3.60122 -14.8298 -1.13268 15
208 2 -2.09749 -12.3367 -1.06773 18
209 2 -3.78916 -6.30811 -16.7065 14
210 2 -3.72708 -8.95255 -14.9829 14
211 2 -0.810387 -7.62384 -15.3212 17
212 2 -6.72444 -6.67924 -15.0998 15
213 2 -1.14109 -10.2175 -13.6899 18
214 2 -4.10968 -10.2893 -11.9751 18
215 2 -1.78314 -7.48662 -11.9054 22
216 2 -4.98401 -7.5834 -10.2407 24
217 2 -1.49157 -10.0882 -10.029 21
218 2 -4.06951 -9.678 -8.28977 19
219 2 -1.94407 -7.16183 -8.3789 21
220 2 -5.1643 -6.84447 -6.57615 20
221 2 -1.24037 -9.98076 -6.54467 18
222 2 -4.07532 -9.20959 -4.66342 21
223 2 -1.89992 -7.30109 -4.8375 22
224 2 -4.88396 -6.26876 -3.34757 21
225 2 -0.948885 -9.94293 -3.01049 19
226 2 -4.09716 -9.12772 -1.52522 19
227 2 -1.94475 -7.3854 -1.71141 20
228 2 -4.62737 -0.796515 -16.1861 16
229 2 -0.659286 -4.9956 -16.781 14
230 2 -3.49176 -4.15897 -15.2298 18
231 2 -1.43422 -1.97548 -15.0659 17
232 2 -4.50041 -1.07112 -13.2797 19
233 2 -0.814746 -4.43377 -13.247 21
234 2 -3.65974 -4.46566 -11.5009 22
235 2 -2.08919 -1.81741 -11.5334 21
236 2 -4.83557 -1.91722 -9.78843 22
237 2 -1.12944 -4.84677 -9.88539 22
238 2 -3.69955 -4.89118 -8.14552 21
239 2 -1.64388 -1.78861 -8.06582 21
240 2 -4.89681 -1.37107 -6.81638 21
241 2 -0.805599 -4.49128 -6.38565 22
242 2 -3.87056 -3.91718 -4.93769 22
243 2 -2.04509 -1.63731 -4.91496 20
244 2 -5.22942 -1.55721 -3.40765 20
245 2 -0.994814 -4.14408 -3.0196 21
246 2 -3.99503 -3.66744 -1.32602 20
247 2 -2.12148 -1.50277 -1.64074 20
248 1 -12.306 -11.7415 1.55445 11
249 1 -12.3669 -12.1514 7.29267 10
250 1 -12.4846 -6.47001 0.00613646 20
251 1 -15.3964 -7.54742 1.66094 14
252 1 -12.749 -9.28621 1.76398 17
253 1 -12.2662 -6.69459 3.13106 23
254 1 -15.0899 -7.19779 4.46252 13
255 1 -13.4113 -9.75034 4.2734 14
256 1 -13.0531 -6.72457 6.47646 16
257 1 -13.1611 -9.66086 7.42944 12
258 1 -12.419 -6.93342 9.60624 14
259 1 -16.1205 -4.60867 0.0731168 16
260 1 -12.4152 -0.869638 0.152663 22
261 1 -15.3205 -1.80839 1.4698 22
262 1 -13.194 -3.88217 1.97063 19
263 1 -16.5158 -4.28209 3.07952 17
264 1 -12.4445 -1.0074 3.19465 19
265 1 -15.6548 -1.794 4.59022 19
266 1 -13.5717 -4.02627 5.17959 23
267 1 -16.5998 -4.43856 5.97769 11
268 1 -12.2719 -1.11548 6.45261 20
269 1 -15.8236 -2.0465 7.78723 12
270 1 -12.2683 -3.58401 8.20574 19
271 1 -12.8203 -0.979164 10.0772 17
272 1 -13.0308 -4.07216 11.7094 11
273 1 -12.5329 -1.51224 13.5425 11
274 1 -6.92295 -12.1226 -0.0770313 23
275 1 -9.61367 -13.1063 1.3367 14
276 1 -7.20222 -15.0406 1.431 13
277 1 -6.69009 -12.4139 3.2647 24
278 1 -9.55936 -13.5303 4.82913 16
279 1 -7.26477 -15.127 4.92006 13
280 1 -9.30527 -14.6638 7.47144 10
281 1 -6.36039 -12.7042 6.50668 22
282 1 -6.66018 -13.1091 9.71408 11
283 1 -10.3477 -10.2065 -0.00354449 20
284 1 -7.04216 -6.4733 0.0324647 21
285 1 -9.39909 -7.3356 1.79268 22
286 1 -7.27908 -9.64708 1.88706 19
287 1 -9.95625 -10.6096 3.14965 21
288 1 -6.59167 -6.72039 3.3118 20
289 1 -9.75429 -7.71817 5.00677 18
290 1 -7.25902 -9.64844 5.218 20
291 1 -9.78274 -10.9185 6.37895 20
292 1 -7.25725 -6.76778 6.86841 21
293 1 -9.4908 -7.60492 8.42965 21
294 1 -7.31174 -9.67565 8.25428 22
295 1 -10.1335 -10.341 9.49601 15
296 1 -6.71893 -6.65452 10.1743 23
297 1 -9.4147 -7.76261 11.3249 14
298 1 -7.23756 -10.3832 11.4719 14
299 1 -6.55044 -7.34505 13.136 16
300 1 -10.5629 -4.37927 0.0410174 21
301 1 -7.00593 -1.00951 0.160653 19
302 1 -9.59288 -1.89737 1.95143 20
303 1 -7.68139 -3.82185 1.96857 21
304 1 -10.2183 -4.65796 3.60292 19
305 1 -6.57095 -0.994537 3.35711 18
306 1 -9.22748 -1.64861 5.13858 18
307 1 -7.37855 -4.07551 5.34381 21
308 1 -10.4239 -4.9739 6.73214 23
309 1 -6.85107 -1.26431 6.95332 22
310 1 -10.0043 -1.80483 8.47979 20
311 1 -7.89414 -3.93917 8.51837 21
312 1 -10.1445 -4.85603 10.1669 22
313 1 -6.84033 -1.01327 10.009 23
314 1 -9.63698 -1.44694 11.9405 23
315 1 -7.33654 -3.84385 11.7025 21
316 1 -9.84569 -5.09164 13.3508 15
317 1 -6.60815 -1.49793 13.4299 22
318 1 -9.51363 -2.2491 15.2106 13
319 1 -7.19047 -4.5749 15.0456 17
320 1 -4.23803 -15.858 0.0375978 12
321 1 -0.949735 -12.0973 0.424086 19
322 1 -3.6812 -12.3108 1.51623 21
323 1 -1.39054 -14.8925 1.84877 19
324 1 -4.94358 -15.3791 3.36569 18
325 1 -0.992167 -12.1992 3.66396 22
326 1 -3.5502 -13.2702 4.89343 20
327 1 -0.547706 -14.8438 5.22749 21
328 1 -3.44965 -16.2067 6.49576 12
329 1 -0.630797 -12.1768 7.01514 21
330 1 -3.35908 -13.2696 8.11773 17
331 1 -0.956825 -15.1575 8.58584 13
332 1 -0.571523 -12.3248 10.1713 17
333 1 -3.28791 -12.9437 11.3506 11
334 1 -0.57803 -12.1509 13.302 11
335 1 -4.93343 -9.34663 0.304642 21
336 1 -1.18121 -6.79461 0.0986535 20
337 1 -3.83361 -6.88842 1.73657 21
338 1 -2.0817 -9.526 1.92131 20
339 1 -4.61735 -10.5565 3.75252 21
340 1 -1.10514 -6.5303 3.71052 19
341 1 -4.09055 -7.41421 5.12575 20
342 1 -1.60742 -9.37204 5.06984 18
343 1 -4.51063 -10.42 6.90256 18
344 1 -1.25131 -6.33793 6.83446 22
345 1 -3.97889 -7.46823 8.24377 20
346 1 -1.86306 -9.32397 8.45665 20
347 1 -4.5493 -11.0062 9.85748 19
348 1 -1.0875 -6.62733 10.1333 21
349 1 -3.54125 -6.77594 11.6153 20
350 1 -1.96552 -10.0056 11.678 20
351 1 -4.32067 -10.1205 13.4136 13
352 1 -0.807532 -6.48892 13.2703 19
353 1 -4.21039 -6.84706 14.9129 16
354 1 -1.5646 -9.038 14.4947 15
355 1 -4.78841 -4.51487 0.16011 18
356 1 -1.17585 -0.856433 -0.0346745 20
357 1 -3.93371 -1.72995 1.39932 20
358 1 -1.84171 -4.07229 1.80235 20
359 1 -4.66408 -4.61116 3.43094 19
360 1 -1.51653 -0.863776 3.12615 21
361 1 -4.30684 -1.66136 5.30596 20
362 1 -1.85956 -3.67241 5.20715 20
363 1 -4.73756 -4.54681 6.83718 22
364 1 -0.773361 -1.22283 6.82622 23
365 1 -3.8618 -1.88703 8.39261 21
366 1 -1.73289 -3.64024 8.72861 19
367 1 -4.63865 -4.51837 10.12 21
368 1 -0.592271 -1.05882 9.96621 23
369 1 -3.58707 -1.59483 11.683 22
370 1 -1.49276 -3.7275 11.8472 21
371 1 -4.51282 -4.16857 13.3238 21
372 1 -0.569066 -1.01245 13.3663 19
373 1 -3.78945 -1.45655 15.091 22
374 1 -1.5004 -3.53852 15.1361 24
375 2 -15.9808 -6.62778 0.0461487 13
376 2 -11.9868 -10.4163 2.85223 16
377 2 -15.8477 -6.10318 3.07868 17
378 2 -12.9371 -7.43927 1.47627 20
379 2 -14.715 -5.57049 5.74972 14
380 2 -14.779 -8.9526 2.90163 13
381 2 -13.2488 -8.00397 5.07512 18
382 2 -12.7554 -7.73913 8.0035 14
383 2 -13.1666 -10.902 5.92455 10
384 2 -11.8433 -10.6335 8.40659 11
385 2 -16.2986 -1.29983 -0.278041 17
386 2 -12.4613 -4.36352 0.0624306 20
387 2 -15.0877 -3.86068 1.75737 20
388 2 -13.2544 -1.73752 1.51298 20
389 2 -16.3012 -0.925784 2.92418 20
390 2 -12.4211 -4.7706 3.46052 22
391 2 -17.0929 -3.31513 4.65266 16
392 2 -13.5151 -1.85446 4.84698 21
393 2 -15.9616 -1.00225 6.44892 13
394 2 -12.3457 -4.72771 6.55954 18
395 2 -16.262 -3.73071 7.57501 8
396 2 -12.9508 -1.67697 8.22954 18
397 2 -12.6269 -4.81241 9.78588 14
398 2 -12.968 -2.23706 11.8627 13
399 2 -10.6025 -12.1178 0.273363 15
400 2 -6.13189 -15.306 -0.027462 13
401 2 -7.65124 -13.1875 5.00343 21
402 2 -7.70542 -13.2175 1.59639 22
403 2 -12.5002 -10.0455 -0.0514752 14
404 2 -6.71394 -15.446 3.20553 12
405 2 -10.0835 -12.6698 3.10121 15
406 2 -10.655 -12.6598 6.74244 14
407 2 -8.999 -15.3465 5.74042 9
408 2 -7.6176 -13.5672 8.06497 15
409 2 -10.2509 -6.54031 -0.0559571 21
410 2 -6.79706 -10.0958 0.0692872 20
411 2 -9.12472 -9.60997 1.55395 22
412 2 -7.36764 -7.4329 1.79862 18
413 2 -10.3215 -6.72672 3.31095 20
414 2 -6.62349 -10.3749 3.50105 20
415 2 -9.32201 -9.83678 4.81994 20
416 2 -7.55186 -7.62925 4.98021 21
417 2 -9.41875 -6.51725 6.67248 20
418 2 -6.3177 -10.553 6.53101 21
419 2 -9.23732 -9.97084 7.82164 19
420 2 -7.60455 -7.68615 8.69619 21
421 2 -10.4083 -6.89503 9.93615 18
422 2 -6.62125 -10.8807 9.75132 16
423 2 -9.08683 -9.70323 10.8232 13
424 2 -7.69242 -6.99298 11.7806 17
425 2 -11.6774 -4.85395 12.664 11
426 2 -6.02958 -9.54685 12.6737 14
427 2 -6.15676 -6.28749 14.8667 14
428 2 -10.4209 -0.807431 0.550236 20
429 2 -7.02306 -4.4943 0.221088 20
430 2 -9.73893 -4.02515 1.79236 19
431 2 -7.49042 -1.8363 1.76833 20
432 2 -10.6261 -1.09929 3.41227 20
433 2 -6.7925 -4.84828 3.63252 20
434 2 -9.33515 -3.71925 5.24307 20
435 2 -7.22805 -1.57361 5.05645 21
436 2 -10.1458 -1.08858 6.65025 20
437 2 -6.76711 -4.81225 7.03405 21
438 2 -10.2295 -4.10148 8.4136 19
439 2 -7.93121 -2.04591 8.72227 23
440 2 -10.6349 -1.34381 10.2645 21
441 2 -6.7784 -4.69331 9.84147 21
442 2 -9.11406 -4.20409 11.6693 19
443 2 -7.73935 -1.77088 11.4936 20
444 2 -10.5589 -1.20661 13.9711 15
445 2 -6.43111 -3.59233 13.5347 23
446 2 -9.21148 -4.09921 14.7752 13
447 2 -7.84941 -1.19598 15.26 17
448 2 -4.82918 -12.4052 -0.0614337 22
449 2 -0.416935 -14.905 0.25731 17
450 2 -3.3621 -16.021 2.33533 15
451 2 -2.01279 -13.0011 2.15151 22
452 2 -4.77387 -12.6955 3.09549 21
453 2 -1.93694 -16.0551 5.32854 13
454 2 -4.32705 -15.1533 5.14224 16
455 2 -1.2706 -13.0611 5.40007 24
456 2 -4.36468 -12.6519 6.64024 20
457 2 0.282127 -15.2783 7.15125 15
458 2 -2.79367 -15.1488 7.98948 13
459 2 -1.41147 -13.1044 8.65229 19
460 2 -4.61419 -13.1674 9.86168 13
461 2 -1.60659 -13.1156 11.9178 12
462 2 -4.98538 -6.56149 0.173118 21
463 2 -1.15343 -9.94229 0.254881 20
464 2 -4.04659 -9.94559 1.91037 19
465 2 -1.69042 -7.65182 2.00431 21
466 2 -4.54111 -6.95211 3.39275 19
467 2 -0.999629 -10.2361 3.4296 22
468 2 -3.54142 -9.96005 5.28012 22
469 2 -2.15231 -7.49173 5.21918 20
470 2 -5.17484 -6.80529 6.79502 23
471 2 -0.858953 -9.79796 6.91274 20
472 2 -3.74304 -9.91115 8.55977 19
473 2 -2.0049 -7.02744 8.47959 21
474 2 -4.4588 -6.58511 9.76298 18
475 2 -0.792558 -10.1481 9.88121 22
476 2 -3.64323 -11.1001 11.8128 16
477 2 -1.62186 -7.51195 11.7867 20
478 2 -4.84054 -6.26548 12.9469 20
479 2 -0.67538 -10.2004 13.3201 18
480 2 -3.3887 -8.72282 14.388 16
481 2 -0.718946 -7.36887 15.0733 17
482 2 -4.50523 -0.868086 -0.138662 20
483 2 -1.12796 -4.86374 0.206828 22
484 2 -3.93253 -4.04165 1.77668 18
485 2 -1.90416 -1.79067 1.48577 19
486 2 -4.62046 -1.0457 3.36286 19
487 2 -1.22099 -4.47838 3.59937 20
488 2 -4.34584 -3.74561 5.15609 21
489 2 -1.89205 -1.77958 4.95315 20
490 2 -4.99186 -1.11151 7.0961 19
491 2 -1.14222 -4.23568 7.03879 22
492 2 -3.68931 -3.73025 8.29801 20
493 2 -1.89602 -1.63472 8.33691 20
494 2 -4.76604 -1.28457 10.2232 20
495 2 -0.794573 -4.55 10.0408 22
496 2 -3.44709 -3.92964 11.6332 20
497 2 -1.30892 -1.81176 11.7521 20
498 2 -4.62515 -1.2295 13.2718 22
499 2 -1.19771 -4.50642 13.5675 20
500 2 -3.44841 -3.69364 15.0263 25
501 2 -1.89813 -1.47135 14.9099 20
502 1 -12.9499 1.4709 -11.6687 12
503 1 -12.3623 4.63955 -10.1756 17
504 1 -15.254 4.33904 -8.21056 12
505 1 -13.4848 1.4925 -8.36017 20
506 1 -16.0758 1.46069 -6.74222 13
507 1 -12.7028 4.29901 -6.43931 21
508 1 -15.9553 3.95386 -4.96854 16
509 1 -13.4359 1.69363 -4.9751 22
510 1 -16.1848 1.18818 -3.46897 14
511 1 -13.2016 4.48465 -2.99151 23
512 1 -16.0961 3.95134 -1.28763 15
513 1 -13.3253 1.80813 -1.45552 24
514 1 -13.8503 7.00827 -7.79654 15
515 1 -17.0152 6.42172 -6.27569 9
516 1 -12.0498 9.92966 -8.17471 11
517 1 -13.1788 7.16143 -4.83122 21
518 1 -16.3264 6.42294 -2.94941 13
519 1 -12.8906 10.1226 -3.69019 14
520 1 -15.7311 8.72111 -5.50801 8
521 1 -13.6027 7.5372 -1.55632 18
522 1 -6.2595 3.65973 -16.0372 16
523 1 -9.40373 3.77928 -15.0261 12
524 1 -7.40626 0.956806 -15.1489 16
525 1 -10.3982 1.78569 -13.3192 14
526 1 -6.56965 3.59002 -13.0899 22
527 1 -9.55344 4.02046 -11.3115 17
528 1 -7.57122 1.29059 -11.5607 20
529 1 -10.7507 1.79469 -9.58017 22
530 1 -6.48951 4.30846 -9.84387 23
531 1 -9.5042 4.63371 -8.12875 23
532 1 -7.80059 1.7052 -8.50029 20
533 1 -10.8947 1.7763 -6.7994 20
534 1 -6.79084 3.94425 -6.59127 22
535 1 -10.1751 4.10577 -4.89035 19
536 1 -8.00597 0.947285 -5.25544 19
537 1 -10.3263 1.14004 -3.17198 20
538 1 -6.8989 3.80749 -3.39587 22
539 1 -9.97707 3.68062 -1.58365 21
540 1 -7.74031 1.79095 -1.28418 20
541 1 -8.09535 6.14126 -14.4323 14
542 1 -10.956 6.56247 -12.7839 12
543 1 -6.86705 9.2482 -13.1476 14
544 1 -9.39866 9.11321 -11.0658 15
545 1 -7.67921 6.89354 -11.4283 20
546 1 -10.9494 7.61527 -9.40507 17
547 1 -6.70258 9.82594 -9.902 20
548 1 -9.38057 10.2095 -7.68403 21
549 1 -7.42262 7.4569 -8.25858 22
550 1 -10.5926 7.10293 -6.57821 21
551 1 -6.5855 9.20757 -6.3722 21
552 1 -9.69698 9.08637 -4.82258 22
553 1 -7.9974 6.50437 -5.10616 19
554 1 -10.7515 6.47367 -3.28268 22
555 1 -6.92057 9.79743 -3.0709 18
556 1 -9.95986 9.34364 -1.55515 20
557 1 -7.84206 7.04876 -1.80088 19
558 1 -7.80811 12.5671 -8.13995 14
559 1 -11.0314 12.0614 -6.36259 12
560 1 -6.68249 14.8324 -5.98418 13
561 1 -8.01445 11.9912 -5.28075 22
562 1 -10.4136 11.661 -3.34834 18
563 1 -6.5617 16.1558 -3.17835 10
564 1 -8.9882 14.1278 -3.40312 11
565 1 -7.03438 13.1691 -1.27294 21
566 1 -1.5774 1.54417 -18.3074 10
567 1 -0.793261 4.55558 -16.4608 18
568 1 -3.48783 3.66076 -14.8182 24
569 1 -1.11705 1.62111 -14.9329 22
570 1 -4.20626 0.838103 -13.469 22
571 1 -0.398957 4.09385 -12.9606 19
572 1 -3.85447 4.29609 -11.7922 20
573 1 -2.0938 1.87349 -11.7658 21
574 1 -4.71446 1.60926 -9.73767 21
575 1 -1.00265 4.58696 -9.74571 24
576 1 -3.54926 4.50258 -8.35346 21
577 1 -1.96744 1.59216 -8.24991 22
578 1 -4.92083 0.64677 -6.54672 20
579 1 -1.05639 4.55383 -6.64174 22
580 1 -4.14252 3.81497 -5.05375 20
581 1 -2.03736 1.45794 -4.95873 22
582 1 -5.07392 1.48399 -3.24039 21
583 1 -1.19686 4.47632 -3.51863 19
584 1 -4.05099 3.76798 -1.61304 21
585 1 -1.98232 1.46577 -1.74343 20
586 1 -3.62988 6.41629 -16.667 12
587 1 -4.24872 9.20248 -14.8608 12
588 1 -1.16819 7.53789 -14.8461 16
589 1 -5.05009 6.2597 -13.6124 20
590 1 -0.870939 10.0258 -13.2528 17
591 1 -3.96567 10.1834 -11.672 20
592 1 -1.9184 6.89164 -12.0438 19
593 1 -4.65275 7.36843 -9.93574 23
594 1 -0.793201 9.82996 -10.1524 21
595 1 -3.70203 10.1205 -8.40959 23
596 1 -2.12187 7.32994 -8.32181 22
597 1 -4.90326 6.49488 -6.57483 20
598 1 -1.12901 9.60683 -6.75147 21
599 1 -3.98938 9.34959 -4.9789 20
600 1 -1.90767 7.30921 -5.02647 20
601 1 -4.83823 6.31658 -3.56599 22
602 1 -1.11013 9.98848 -3.35187 20
603 1 -4.114 9.23076 -1.76329 22
604 1 -1.92909 7.18331 -1.6689 19
605 1 -2.03089 12.5201 -11.5424 13
606 1 -5.33439 12.4529 -10.1586 14
607 1 -3.91479 14.8012 -8.01859 11
608 1 -2.1347 12.5429 -8.15582 18
609 1 -5.04312 11.9952 -6.44985 22
610 1 -0.802568 15.0798 -6.31209 13
611 1 -3.82239 14.5731 -4.54391 20
612 1 -1.98721 12.5066 -5.09936 19
613 1 -5.05405 12.1846 -3.05827 21
614 1 -0.875169 15.0699 -2.97319 18
615 1 -3.84884 14.713 -1.43655 20
616 1 -2.13628 12.2648 -1.75899 23
617 2 -11.8508 0.640629 -13.0662 12
618 2 -12.6499 3.40933 -11.5743 13
619 2 -12.3226 1.021 -9.75191 19
620 2 -15.1955 2.27991 -8.09939 13
621 2 -13.3769 4.50183 -8.40973 17
622 2 -16.1941 4.85329 -6.64289 13
623 2 -12.6625 0.965201 -6.6689 22
624 2 -15.4434 2.04572 -4.92764 17
625 2 -12.893 3.50253 -4.68404 21
626 2 -16.2255 4.40743 -3.10927 14
627 2 -12.3852 1.23913 -2.98194 22
628 2 -15.6515 1.95734 -1.59621 18
629 2 -13.3516 4.05819 -1.32104 21
630 2 -11.1264 6.32522 -10.8933 16
631 2 -15.5262 7.56401 -6.94484 10
632 2 -12.6085 6.31665 -6.38418 21
633 2 -16.3597 7.2479 -4.53951 11
634 2 -13.7104 9.02756 -5.15719 16
635 2 -12.9029 6.768 -3.1018 19
636 2 -15.5402 6.79599 -1.22844 14
637 2 -13.1532 9.56987 -1.93044 14
638 2 -10.6503 9.65 -6.51512 22
639 2 -6.17692 1.71484 -16.4294 16
640 2 -9.30688 1.97757 -15.2743 12
641 2 -7.42716 4.22507 -14.7739 15
642 2 -9.83917 5.27817 -13.7431 14
643 2 -6.47915 1.69564 -13.1841 22
644 2 -9.1948 2.03765 -11.693 22
645 2 -7.76419 4.73176 -11.6352 22
646 2 -10.2867 3.67558 -9.73017 18
647 2 -6.53575 1.17306 -9.76738 19
648 2 -9.41614 0.819641 -8.33456 22
649 2 -7.71965 3.79763 -8.466 21
650 2 -10.5563 3.70471 -6.79951 22
651 2 -6.99054 1.8579 -6.43351 21
652 2 -10.2033 1.4709 -5.06908 21
653 2 -7.89768 4.57079 -5.08554 24
654 2 -11.0085 4.37737 -3.06626 22
655 2 -7.22113 1.47949 -3.27576 19
656 2 -9.61398 1.80661 -1.31767 21
657 2 -7.65774 3.76048 -1.66297 20
658 2 -6.90228 7.0908 -13.2237 18
659 2 -10.0735 8.34348 -12.6087 11
660 2 -7.44989 9.06082 -11.4939 15
661 2 -10.3218 9.47352 -9.34796 15
662 2 -6.60719 6.91156 -9.94977 19
663 2 -9.59678 6.59119 -8.06784 22
664 2 -7.61468 9.40259 -8.10256 20
665 2 -12.6989 8.23802 -8.40837 14
666 2 -6.57049 7.28025 -6.50732 20
667 2 -9.59427 7.11725 -4.79915 20
668 2 -7.79277 9.82093 -4.89844 21
669 2 -10.5601 9.74935 -3.24593 22
670 2 -6.7705 6.37011 -3.43943 20
671 2 -9.79232 7.20052 -1.6732 20
672 2 -8.05799 9.66121 -1.48071 22
673 2 -6.96219 11.9201 -9.5227 13
674 2 -9.61855 12.3422 -7.63766 12
675 2 -6.69868 12.9991 -6.56491 19
676 2 -9.60228 12.8831 -4.87586 17
677 2 -7.43882 14.9631 -4.22719 15
678 2 -7.01132 11.9501 -3.18653 20
679 2 -9.56681 12.8228 -1.94749 15
680 2 -7.11745 15.1087 -1.54975 15
681 2 -4.54304 4.48523 -16.668 16
682 2 -0.696637 0.789282 -16.7843 13
683 2 -3.23504 1.86858 -14.9318 22
684 2 -1.43915 3.80469 -14.4217 20
685 2 -4.72163 4.35632 -13.3995 20
686 2 -0.982014 0.949884 -13.2176 20
687 2 -3.77157 1.0113 -11.3394 22
688 2 -1.77602 3.8107 -11.5977 21
689 2 -4.76966 3.79482 -9.87633 23
690 2 -1.09009 1.03936 -9.95448 22
691 2 -3.92441 0.709919 -8.26357 21
692 2 -1.84398 3.58749 -8.11993 22
693 2 -4.78337 4.55888 -6.77931 19
694 2 -0.853803 1.0027 -6.682 18
695 2 -4.20593 1.78407 -5.02736 22
696 2 -2.14337 3.88249 -5.02279 21
697 2 -4.92896 4.03742 -3.30971 20
698 2 -0.986164 0.82411 -3.37425 21
699 2 -4.07059 1.62164 -1.70934 21
700 2 -2.03856 3.73041 -1.89885 21
701 2 -1.8715 6.32441 -16.0291 16
702 2 -4.74214 7.30317 -15.3846 13
703 2 -2.28809 9.1373 -14.5093 14
704 2 -4.98852 10.0469 -13.2502 13
705 2 -0.570364 6.1581 -13.1426 20
706 2 -3.63638 6.40257 -11.4813 19
707 2 -2.02574 9.02114 -11.8059 22
708 2 -4.88081 9.58689 -9.91678 21
709 2 -1.1523 6.7943 -9.80188 21
710 2 -3.96291 6.51469 -8.31018 22
711 2 -1.76597 9.37293 -8.53861 18
712 2 -4.64817 9.86557 -6.67193 22
713 2 -1.24987 6.81501 -6.62286 21
714 2 -3.96015 7.41057 -4.8989 21
715 2 -1.97402 9.70283 -4.94825 20
716 2 -4.83672 10.19 -3.14035 22
717 2 -1.13259 6.40807 -3.5323 20
718 2 -3.90944 7.23548 -1.86292 20
719 2 -1.52311 9.22307 -1.70371 21
720 2 -0.811687 12.025 -12.9034 12
721 2 -3.66059 12.0336 -11.0451 14
722 2 -0.994212 11.8677 -9.86019 19
723 2 -4.1093 12.8168 -8.50837 17
724 2 -2.09232 14.6853 -7.515 11
725 2 -4.84863 15.1502 -6.23761 12
726 2 -1.1376 11.6847 -6.60771 21
727 2 -4.28991 12.7197 -4.78475 23
728 2 -1.76655 14.6565 -4.54161 16
729 2 -4.69374 15.303 -2.98683 16
730 2 -1.05706 11.9994 -3.45388 18
731 2 -4.09078 12.6998 -1.57189 20
732 2 -1.77685 14.8026 -1.41169 16
733 1 -16.4712 0.736656 -0.182926 16
734 1 -12.5151 4.35118 0.281511 21
735 1 -15.5431 3.85947 1.82471 18
736 1 -13.6487 1.71312 1.77148 21
737 1 -16.6804 0.930484 2.95405 14
738 1 -12.6117 4.43295 3.48873 21
739 1 -15.6275 3.15553 5.25873 16
740 1 -13.0482 1.90484 5.02389 21
741 1 -15.8614 0.808135 6.24839 14
742 1 -12.7452 4.60529 6.93074 20
743 1 -15.55 3.46469 8.56265 10
744 1 -13.3503 1.78466 8.23535 20
745 1 -12.4892 4.35925 10.3361 16
746 1 -13.4233 1.59109 11.8738 13
747 1 -16.3166 6.83929 0.522267 12
748 1 -12.6082 9.88504 -0.0465152 15
749 1 -15.3512 9.11813 3.03047 11
750 1 -13.4523 7.12458 1.86725 21
751 1 -16.7305 6.24322 3.82425 12
752 1 -12.4022 9.89732 3.67398 18
753 1 -13.8686 7.15066 4.73997 21
754 1 -16.1165 7.11768 7.28404 10
755 1 -14.017 9.82948 6.35215 11
756 1 -13.3489 7.29603 8.34389 14
757 1 -10.5102 1.30461 0.526025 21
758 1 -6.88546 4.68801 -0.208926 20
759 1 -9.45974 4.11031 1.78431 20
760 1 -7.50071 1.93991 1.7522 21
761 1 -10.6642 1.0516 3.59509 21
762 1 -6.59009 4.87927 3.1581 20
763 1 -9.87013 3.89113 5.19689 19
764 1 -7.66355 2.09755 5.10838 21
765 1 -10.2543 0.997136 6.72693 19
766 1 -6.80633 4.45291 6.39406 22
767 1 -9.88868 3.68075 8.36371 22
768 1 -7.58247 1.70171 8.37366 20
769 1 -10.2817 0.831126 10.1497 23
770 1 -6.90196 4.69711 10.1142 20
771 1 -9.33248 3.52295 11.8724 21
772 1 -7.72281 1.35464 11.7596 21
773 1 -10.9416 1.00179 13.7222 17
774 1 -6.84907 4.34636 13.3674 20
775 1 -9.78126 3.70115 14.804 12
776 1 -7.99208 0.759849 15.0555 17
777 1 -10.849 6.88658 -0.0330925 21
778 1 -6.83971 10.2232 0.0295083 20
779 1 -9.97507 9.65152 1.66545 19
780 1 -7.42812 7.55161 1.40435 21
781 1 -10.5539 6.67937 3.25525 21
782 1 -7.0674 10.6526 2.97286 24
783 1 -9.65504 9.3318 4.58928 20
784 1 -7.66528 7.19143 4.67555 19
785 1 -10.585 6.64462 6.64607 20
786 1 -6.72919 10.0399 6.17781 19
787 1 -9.76156 9.31281 7.93188 16
788 1 -7.5185 7.35818 7.90814 21
789 1 -10.4944 6.46222 9.98882 18
790 1 -7.14905 10.4255 9.48509 22
791 1 -9.76643 9.58917 11.2908 12
792 1 -7.46417 7.78148 11.11 20
793 1 -12.3006 4.32746 13.1825 9
794 1 -6.86549 11.3051 12.2688 11
795 1 -9.21318 6.23832 13.0116 13
796 1 -9.86269 12.0701 -0.101677 17
797 1 -6.11826 15.5652 0.115793 13
798 1 -10.4582 12.5094 3.23452 15
799 1 -7.66002 13.4918 1.74709 16
800 1 -10.9376 11.6677 5.76247 11
801 1 -6.48333 15.8219 3.84111 10
802 1 -7.5392 13.213 4.84126 20
803 1 -8.75145 11.9842 7.34801 17
804 1 -7.47762 14.93 7.09796 11
805 1 -7.34224 13.6492 9.73861 10
806 1 -4.65791 1.03792 0.133964 20
807 1 -0.925575 4.58966 -0.215046 21
808 1 -4.031 4.00224 1.63455 19
809 1 -2.05313 1.9481 1.60343 20
810 1 -4.72752 1.06065 3.54894 21
811 1 -1.01598 4.69684 3.09466 21
812 1 -3.88619 3.65222 4.93521 22
813 1 -1.76645 1.52762 5.04927 21
814 1 -4.74802 1.12766 6.77339 21
815 1 -1.29883 4.54724 6.54353 24
816 1 -4.01433 3.40819 8.38727 22
817 1 -2.1343 1.20542 8.31807 20
818 1 -4.77323 0.712311 10.3658 21
819 1 -1.25413 4.46536 9.65308 21
820 1 -4.1021 3.84442 11.5657 20
821 1 -1.68078 1.79043 11.6886 21
822 1 -4.93938 1.10985 13.5424 22
823 1 -1.06528 4.46368 13.0225 23
824 1 -3.91368 3.88474 14.7198 21
825 1 -1.93755 1.8388 15.0518 19
826 1 -4.65106 6.66201 -0.119069 19
827 1 -1.18403 10.036 0.0546003 20
828 1 -3.80064 9.41438 1.85927 19
829 1 -1.85807 7.12413 1.66144 21
830 1 -4.65252 6.71199 3.39728 19
831 1 -0.840435 10.0049 3.31791 22
832 1 -3.83425 9.2234 4.84171 22
833 1 -1.62737 7.3868 5.26529 20
834 1 -4.5914 6.56723 6.6605 21
835 1 -1.14211 10.2399 6.50564 20
836 1 -3.85476 9.79548 8.17531 20
837 1 -1.62963 7.53391 8.27179 21
838 1 -4.85856 6.50131 9.54201 21
839 1 -0.995115 9.89145 10.1155 22
840 1 -4.16039 9.21832 11.4982 18
841 1 -2.29263 7.26603 11.632 20
842 1 -5.16591 6.67958 13.2577 20
843 1 -1.50369 10.2985 13.1189 15
844 1 -4.5081 9.71841 14.4415 11
845 1 -2.29896 7.49768 14.7941 16
846 1 -4.81925 12.0004 0.147657 23
847 1 -0.765672 15.0203 0.207922 16
848 1 -3.50217 14.7247 1.91538 19
849 1 -1.58208 12.3508 1.80158 20
850 1 -4.5471 12.1473 3.4018 22
851 1 -0.432242 15.3712 3.07141 15
852 1 -3.44129 15.1087 5.48532 13
853 1 -1.81705 12.8765 4.97488 23
854 1 -5.02198 12.0546 6.47083 21
855 1 -0.830142 15.3189 6.77015 13
856 1 -3.95626 14.6713 8.34381 13