ITEM: TIMESTEP
395000
ITEM: NUMBER OF ATOMS
2000
ITEM: BOX BOUNDS pp pp pp
-30.0 30.0
-30.0 30.0
-30.0 30.0
ITEM: ATOMS id type x y z Coordination
1 2 -10.1447 6.5385 -10.2878 18
2 1 -1.29383 -11.8177 -1.89351 20
3 2 3.5825 -15.0554 4.80447 18
4 1 2.58622 -11.6029 5.01105 20
5 2 -14.5392 -1.70759 -5.18718 19
6 1 2.51384 -3.17423 -2.19255 19
7 1 1.76912 -4.83268 1.64574 19
8 2 -12.1664 -17.6858 0.157206 9
9 2 4.30139 -6.66459 -2.1493 20
10 1 10.6273 -4.19168 11.7351 13
11 1 -11.9427 -14.2907 -6.55339 11
12 1 7.92669 -8.55872 -10.3872 16
13 2 -8.84781 -3.1239 7.64715 23
14 2 12.4078 -13.8714 -0.556757 11
15 2 -9.20824 -9.96759 -10.2397 13
16 2 -0.572961 6.20804 -12.6829 16
17 2 1.32271 8.72653 -12.3402 23
18 2 -0.588044 4.31726 -15.0607 12
19 2 -11.5984 4.10655 -9.58477 14
20 2 -2.33265 5.25519 -2.53131 16
21 2 1.14309 7.17395 -3.15683 17
22 2 3.94051 4.71342 -14.2383 13
23 2 0.500864 7.29732 6.58546 16
24 2 -5.10007 -0.261637 -13.0237 18
25 2 9.72993 -17.6818 3.43517 12
26 2 4.35319 -1.23977 1.72774 17
27 2 -4.65881 6.89329 -8.35347 21
28 2 -7.94172 14.188 0.953234 17
29 2 -2.55065 -5.77683 -16.4326 11
30 2 11.3922 -3.5565 -12.6167 9
31 2 1.25301 7.71763 -14.9835 10
32 2 5.09815 -1.87286 -16.2633 11
33 2 3.21826 -10.4839 -4.78502 20
34 2 16.2474 -1.579 -10.3597 10
35 2 2.48125 -3.68317 -15.259 12
36 1 -3.51717 1.56348 -16.6707 10
37 1 3.91106 2.82134 -15.8629 12
38 1 -4.50581 -4.25399 -9.03077 19
39 1 -14.4829 3.25013 -11.4887 7
40 1 -6.08046 -3.94643 -0.648534 19
41 1 0.538812 7.92303 10.5878 20
42 1 -7.67587 2.67444 -4.86554 18
43 1 -6.17414 -2.6899 5.96497 18
44 1 -18.2754 -2.232 -6.91024 10
45 1 1.25426 -5.29775 -11.6514 19
46 1 -10.4346 0.166267 -12.7343 16
47 1 4.48944 -11.9916 -7.35804 17
48 1 0.739654 -2.26632 -15.5881 12
49 1 -5.05159 2.14788 4.27644 19
50 1 -16.469 -0.437178 -1.97992 19
51 1 12.87 -12.3338 -1.54311 16
52 1 -12.5044 -3.38837 6.14102 22
53 1 -8.92718 -14.6886 -9.7747 8
54 1 -6.68391 -10.7333 -6.60228 17
55 1 -8.78901 -2.29262 -13.9911 12
56 1 -0.564761 6.40955 -8.15446 17
57 1 -3.26213 3.55997 -2.05524 19
58 1 -19.8211 0.0266094 -1.70664 15
59 1 -7.04296 4.6176 -2.11195 17
60 1 -18.6295 0.470773 -5.12485 9
61 1 -11.6688 -6.86568 2.92808 16
62 1 -1.3723 0.509646 -7.34865 18
63 1 -4.23527 10.2633 -8.29157 18
64 1 -16.2471 -9.14522 -6.34451 6
65 1 -10.2007 1.04984 -5.85292 18
66 1 2.46297 -14.2717 -9.0327 12
67 1 -3.66511 -9.04773 -5.95305 18
68 1 2.54883 3.32221 3.56876 16
69 1 -0.604887 11.5106 -12.7567 12
70 1 -6.80726 -2.86836 -7.37695 19
71 1 -4.44732 -0.879205 -5.94473 20
72 1 -4.27972 -11.4656 0.420635 18
73 1 -0.865617 -5.59747 1.43568 17
74 1 -8.35657 -7.19007 -4.96217 18
75 1 -12.0211 -2.16793 -0.439138 16
76 1 -13.0734 0.190039 -9.96545 14
77 1 -14.1839 -0.800674 -3.29456 18
78 1 2.42987 10.2089 -11.9495 17
79 1 -13.4763 -3.99419 -8.42756 20
80 1 -9.0004 -7.02353 -14.6127 7
81 1 -10.287 -2.7804 -7.00141 17
82 1 -6.79143 5.33973 -10.606 20
83 1 -16.1967 0.349987 5.76763 14
84 1 -11.8939 7.12749 -0.959095 13
85 1 1.57514 -10.8884 0.382867 18
86 1 -1.47947 -3.59055 -1.90919 19
87 1 10.0438 -9.76207 -1.576 20
88 1 -1.90407 -10.7321 -11.2844 12
89 1 1.42082 -5.2143 -14.9641 13
90 1 -12.8555 -6.33241 -10.7955 14
91 1 -3.09563 -16.9202 -2.28725 18
92 1 -12.8266 -17.9744 -1.44778 8
93 1 1.09729 0.444041 -4.58378 18
94 1 -2.32812 -15.0339 -5.16923 19
95 1 -0.810601 -5.83397 -6.58965 18
96 1 -2.76697 -17.0532 -11.2545 7
97 1 -0.284485 -6.11167 -3.62914 14
98 1 -1.86872 -7.02147 5.04512 15
99 1 -12.8208 8.91758 -7.6774 9
100 1 -7.04282 -3.90877 -15.9538 11
101 1 -1.11889 -19.442 -2.64087 12
102 1 -14.3539 -7.60939 -1.78207 13
103 1 -7.20062 -2.07513 -2.63271 18
104 1 3.00717 -17.705 -4.00008 10
105 1 -16.7426 -4.32504 -8.29254 11
106 1 12.6551 11.0128 -8.35695 11
107 1 -10.7815 3.30594 -8.17647 18
108 1 11.5156 5.36315 -12.0144 12
109 1 7.36832 -9.53852 0.830069 20
110 1 -4.69443 -10.6385 -8.99784 17
111 1 -14.4276 -0.220493 2.73937 18
112 1 -3.41181 -5.70415 -4.65809 19
113 1 0.809438 3.81941 -6.61206 20
114 1 -0.895689 -3.18727 -13.1173 21
115 1 -5.68993 -1.65322 -11.3119 16
116 1 1.27767 -3.71697 -8.64791 21
117 1 -4.77421 -14.3446 2.46352 18
118 1 8.99708 -14.1715 -9.11909 13
119 1 -0.155022 -16.8243 -9.02867 11
120 1 -1.61914 -14.9461 -0.820815 17
121 1 4.81121 -11.4489 -4.55552 18
122 1 -0.725386 -13.8696 -10.3856 16
123 1 -0.588423 -13.8445 -6.97022 17
124 1 1.88027 -8.29139 -10.1113 20
125 1 7.16781 -0.662226 -9.28951 16
126 1 -7.97799 1.93343 -10.499 21
127 1 -10.5509 -0.424918 -9.06245 19
128 1 -1.34238 -0.194022 -13.1684 20
129 1 -1.58256 -10.961 -8.64898 18
130 1 0.467199 -16.7421 -1.7297 16
131 1 1.63427 -10.966 -9.21575 15
132 1 -12.6158 2.32968 -4.10068 20
133 1 9.05899 -15.2401 -5.86658 13
134 1 4.95207 -16.1907 9.1574 11
135 1 2.15183 -12.8037 -4.81544 17
136 1 -7.05687 -0.157363 -5.35919 20
137 1 5.18128 -1.435 -12.1635 21
138 1 -3.2694 -7.55993 -16.7087 10
139 1 -0.260364 -6.89416 -9.25684 21
140 1 0.536 1.46428 -8.51477 16
141 1 2.85513 -1.63943 -4.33788 19
142 1 -8.82051 -3.92727 -10.2274 14
143 1 -2.94403 -7.3832 -8.76872 19
144 1 -0.356697 -11.1669 -4.89535 17
145 1 8.27851 -2.7769 1.08573 17
146 1 -10.2729 4.01657 1.93582 15
147 1 -7.9492 5.81642 -14.5183 14
148 2 -17.577 -0.467097 -6.16457 11
149 2 -1.69929 -2.03451 -2.95763 18
150 2 0.201104 -4.15422 2.30344 17
151 2 -4.82052 -2.11254 -9.64755 15
152 2 -14.8705 -5.8887 -11.4778 9
153 2 -7.44463 -2.2367 -4.80219 20
154 2 -13.4161 -8.97727 -3.33781 15
155 2 -11.9559 2.1305 7.81752 16
156 2 -5.27385 -5.46432 -4.6497 17
157 2 -6.40721 -0.564198 -7.14415 21
158 2 -9.61658 -13.6622 -5.59349 15
159 2 -10.3486 10.8639 -5.66359 18
160 2 -12.9832 -1.65268 6.24026 20
161 2 -5.31996 -11.8664 -10.1925 11
162 2 1.20891 -7.9207 -8.24524 22
163 2 -4.4256 3.42605 -16.4608 9
164 2 -10.5769 11.642 3.4458 13
165 2 -14.8409 -7.79214 -5.96997 10
166 2 -11.7255 -7.91456 -10.8199 14
167 2 3.10467 8.64962 -0.45874 18
168 2 0.471804 10.1637 -13.7579 12
169 2 -8.22043 -3.00233 2.18413 21
170 2 -7.54192 -14.5075 -11.017 9
171 2 -10.3575 11.777 -11.3921 7
172 2 -12.892 0.934475 3.8309 17
173 2 6.54401 -11.3987 -4.88739 20
174 2 -2.21707 -13.4354 -6.02941 13
175 2 -8.86984 -0.205198 3.1488 18
176 2 -1.2804 -12.4938 -11.8218 10
177 2 -7.55944 1.58064 -0.52094 14
178 2 -6.12292 0.928396 -15.9098 13
179 2 8.86092 -13.0885 -1.12974 18
180 2 10.3163 -8.17729 -2.6953 18
181 2 -2.27037 -10.2421 -4.72735 18
182 2 2.64699 -10.0101 -10.6009 15
183 2 -2.24561 -5.3817 -2.74531 17
184 2 -0.688239 -4.17905 -14.6709 15
185 2 -15.1164 4.6123 -4.09081 15
186 2 -9.31656 -5.96883 -9.29146 18
187 2 3.93163 -11.953 0.789661 17
188 2 -5.18653 -4.0928 -6.83564 16
189 2 6.73135 -14.935 -9.86678 8
190 2 -5.89197 2.62064 -6.22398 23
191 2 -4.28331 -6.052 8.47035 18
192 2 1.49906 -10.2698 4.05401 16
193 2 -13.0745 -5.71458 -8.89806 17
194 2 -16.8586 -5.416 -9.74148 9
195 2 -6.63701 5.00505 -8.62962 18
196 2 -8.49607 7.1413 -12.9442 17
197 2 -3.65542 3.67723 -8.76897 23
198 2 -13.1972 1.76672 -10.8256 14
199 2 -14.478 -2.82903 -9.75859 19
200 2 -1.16588 11.9526 -11.175 11
201 2 -12.0511 -12.4664 -7.0862 15
202 2 -10.3292 9.11652 -11.821 12
203 2 -3.17061 -11.0458 10.4475 10
204 2 -8.40193 -11.2986 -7.14312 19
205 2 -9.69526 4.08343 10.0231 14
206 2 -4.49646 0.645847 -4.83614 16
207 2 7.42086 -16.647 3.24166 16
208 2 0.486529 -12.8123 -5.68048 16
209 2 -10.4255 -8.92798 -7.44474 19
210 2 4.13039 -5.46374 -10.7479 22
211 2 1.13159 -9.74231 -6.33002 19
212 2 -7.08589 -16.9502 -3.01718 15
213 2 -4.57836 -17.1917 -10.9325 6
214 2 4.33573 -17.7156 2.79634 14
215 2 -6.87569 -8.94076 -9.5639 18
216 2 -0.679565 -16.5022 7.34274 15
217 2 11.5569 -11.0312 -2.20889 20
218 2 -7.26805 -5.27597 -10.5314 17
219 2 -1.92124 -7.43065 -10.5072 19
220 2 -11.798 -6.25371 -6.1873 19
221 2 -13.761 5.66517 2.3039 14
222 2 -1.90584 -4.54103 -5.23326 19
223 2 -7.16793 2.59029 -13.7928 16
224 2 -12.9929 0.640184 -5.19149 18
225 2 -6.41694 -7.7717 -2.44758 17
226 2 -0.280461 -10.2115 -10.1775 17
227 2 -1.46849 -4.61602 -0.146995 17
228 2 -0.1454 8.20712 -9.48278 16
229 2 -3.67409 -2.35513 -15.8947 15
230 2 14.466 -3.28118 -8.22349 14
231 2 -4.1022 -2.27488 -4.65994 20
232 2 -10.1838 3.97344 -6.78843 14
233 2 -17.0336 -9.50004 -4.53597 5
234 2 -5.27522 -9.32101 -7.00816 18
235 2 -19.9276 -1.68266 -7.54543 6
236 2 4.36149 -16.543 -3.45976 13
237 2 -12.6443 -8.21223 6.02686 11
238 2 -15.3643 -2.88005 6.45955 14
239 2 5.0726 -15.9629 -6.773 12
240 2 0.372038 -12.1167 -0.158208 17
241 2 2.25955 -15.8296 7.44213 16
242 2 -9.83663 -0.205908 -2.91607 16
243 2 -9.21601 6.33262 -7.55559 20
244 2 5.43458 -5.82524 0.394566 20
245 2 7.28368 -11.8822 3.93603 20
246 2 -1.2113 -12.9645 3.5097 17
247 2 5.44656 0.728378 -5.31652 18
248 2 7.16681 -14.1197 1.31221 18
249 2 1.45167 -17.9811 -2.79584 13
250 2 -5.09607 -6.38348 -8.68961 18
251 2 14.7793 -4.96508 -10.7025 10
252 2 3.37953 -8.0311 -5.94207 19
253 2 -7.06536 -7.37536 -14.7694 11
254 2 -0.55084 3.69058 1.8849 17
255 2 -13.1153 -2.2886 3.62027 15
256 2 11.9053 -2.08749 -6.75751 17
257 2 1.4758 -12.6095 -8.42672 18
258 2 -3.25539 5.23501e-04 -7.43426 20
259 2 -10.8754 -16.008 -5.43817 10
260 2 -2.34568 -8.38157 -7.15935 20
261 2 -12.5545 2.65748 -2.22702 15
262 2 -13.1344 -9.65879 -6.30415 17
263 2 -0.769791 0.0456306 -11.4744 18
264 2 -5.75364 -4.49477 -14.5798 13
265 2 14.3264 -6.61208 7.19075 10
266 2 -1.17735 -1.71015 -15.7353 12
267 2 -9.36048 -7.18184 -12.8692 11
268 2 -4.82784 -10.42 -14.4614 9
269 2 -10.8851 -13.3172 -2.77437 15
270 2 -8.04069 4.0376 -11.2804 19
271 2 -8.91366 -15.2815 4.39806 9
272 2 -14.74 -4.99201 -6.8994 14
273 1 -4.71925 -2.57615 -14.4543 17
274 1 -9.80505 -6.84254 -11.0138 14
275 1 -6.03792 -8.4332 -0.824215 17
276 1 -6.60391 -9.28811 -3.60634 18
277 1 -6.12405 -6.09814 -3.26973 20
278 1 -14.4143 -1.79571 9.11392 13
279 1 -7.14877 2.18949 8.94693 16
280 1 -14.5536 4.75573 6.37796 14
281 1 -6.60241 -9.15374 1.6022 16
282 1 -3.4471 -13.9087 -8.46984 13
283 1 8.80325 -8.04247 2.30012 18
284 1 -13.6983 -6.62058 -7.12763 15
285 1 4.73518 -7.48984 -10.4719 19
286 1 -6.9972 -7.35179 9.57656 19
287 1 -10.846 -8.02358 15.3056 6
288 1 5.85839 -15.894 4.67157 18
289 1 -6.28882 0.905671 6.64291 21
290 1 -8.61767 -4.90485 12.2513 14
291 1 -11.7493 -3.56817 3.64452 18
292 1 -17.096 2.54113 2.82174 17
293 1 0.284009 -18.0562 3.00286 13
294 1 2.4162 10.9221 10.8123 20
295 1 -15.0381 -2.55753 0.0230486 10
296 1 -8.60315 -2.97954 0.206896 16
297 1 -17.3529 -0.328048 0.882766 15
298 1 -2.86676 5.87009 8.22779 17
299 1 -11.5355 0.530126 -1.9192 14
300 1 2.6063 -5.68607 8.71238 17
301 1 -11.4395 3.70391 11.453 10
302 1 -17.5091 -0.763459 4.17693 13
303 1 -16.2771 -6.66769 -10.8221 6
304 1 10.8963 -16.0462 -7.45239 8
305 1 -13.37 -8.2028 -5.01762 19
306 1 -6.25514 -7.90935 -8.08083 16
307 1 -11.8783 -0.876519 4.60622 17
308 1 -6.51347 -3.00534 2.97773 22
309 1 -8.7071 -5.43598 -1.50677 17
310 1 -11.9472 -10.1067 -2.9809 21
311 1 3.48338 -14.8528 6.54955 17
312 1 -13.9894 -3.55153 -2.33458 13
313 1 -5.23867 -5.82924 -6.71132 20
314 1 -22.2493 0.461981 -1.26764 6
315 1 -14.9089 -4.30805 8.0681 14
316 1 6.51888 -8.23205 7.66023 17
317 1 -14.7389 -2.0259 4.95699 16
318 1 -3.64964 -5.295 14.1003 17
319 1 -12.4246 0.0854782 7.04923 16
320 1 -1.02377 8.43943 12.8291 20
321 1 -7.40993 2.86288 15.4654 12
322 1 -14.1358 -10.7762 -0.757915 11
323 1 -4.58934 7.56617 6.67918 20
324 1 -12.0005 6.29462 1.63811 14
325 1 -7.98286 -0.342767 15.544 12
326 1 -8.1363 4.55827 -7.2296 17
327 1 -9.42261 -6.32424 9.73983 18
328 1 -11.7189 -5.87776 12.8129 13
329 1 -0.53899 -4.27436 8.07722 18
330 1 -6.71374 5.53547 12.8078 13
331 1 -7.04466 -12.8091 1.82848 13
332 1 -8.94225 -8.39464 -2.16878 18
333 1 0.275346 -14.6001 4.18802 23
334 1 -4.28794 -19.319 -7.23178 7
335 1 0.601008 -9.45597 6.3175 19
336 1 3.83153 -14.0803 0.479248 18
337 1 -11.8717 -5.46125 0.125125 17
338 1 -6.60387 -5.92454 1.71773 19
339 1 -6.61792 -13.5599 -6.58757 15
340 1 -6.39056 -15.1097 -0.67453 19
341 1 -12.4967 -6.24678 8.91228 17
342 1 -5.97077 -16.6864 -7.18399 13
343 1 -11.317 7.34149 -4.08447 19
344 1 -9.42788 -0.214771 10.1394 12
345 1 -7.14937 -4.25015 8.15906 17
346 1 -10.3191 -17.4664 0.291752 13
347 1 -4.7842 -7.83966 7.37278 19
348 1 -10.5783 -15.1912 3.38743 10
349 1 8.44006 -9.89811 11.0742 14
350 1 -7.52157 5.18314 9.27198 18
351 1 -0.081449 1.04958 -1.19689 18
352 1 1.73602 -8.50585 -4.68049 16
353 1 -7.38348 2.33081 1.27378 20
354 1 -13.3578 5.83821 4.03366 17
355 1 -10.3335 -4.97936 15.3316 8
356 1 -13.4141 1.56434 -6.8165 14
357 1 -3.65365 -3.91714 3.92112 16
358 1 -11.783 -9.71102 -11.0636 10
359 1 2.94621 -0.275599 11.6588 19
360 1 -3.67684 -12.4843 8.97466 16
361 1 0.549271 -7.86997 8.99434 18
362 1 -9.74325 -1.56133 2.22227 18
363 1 3.49723 -14.9579 -6.6122 15
364 1 -6.19175 -9.12917 -15.1144 9
365 1 -9.38391 -5.15247 4.84697 21
366 1 -10.0221 1.65843 7.93669 15
367 1 -2.4648 -6.80527 8.3366 19
368 1 -3.2345 -12.7467 3.13125 16
369 1 -11.7655 -12.2059 2.7387 9
370 1 -1.25983 -12.9417 1.04585 20
371 1 2.10332 -14.6044 9.04787 18
372 1 3.19311 -0.621772 3.21797 18
373 1 -6.72292 -12.9684 -10.9845 10
374 1 -8.29245 -5.75448 -7.71373 20
375 1 -10.0355 -12.4528 -4.10961 18
376 1 3.8146 -18.1661 0.897429 11
377 1 0.0785894 -2.58292 15.9994 13
378 1 6.16331 -12.7454 9.67502 12
379 1 9.64392 9.7579 8.3419 15
380 1 -8.84552 -8.06265 3.61328 21
381 1 13.7935 -5.67774 3.11243 20
382 1 -1.73123 -14.3038 8.43582 15
383 1 10.8782 -4.34873 9.0617 17
384 1 -10.2946 5.52587 5.04709 18
385 1 0.630425 -6.2091 6.38028 17
386 1 -0.950943 -18.3277 -6.06618 11
387 1 -7.78714 17.4053 0.991115 17
388 1 -4.97596 -0.957917 3.8959 22
389 1 -9.24433 -10.5695 2.26064 13
390 1 -9.80572 -1.58252 7.75346 17
391 1 3.96697 -3.21239 4.19773 16
392 1 -8.71092 -10.6284 5.39627 15
393 1 -1.00731 -7.88912 14.2344 14
394 1 1.93589 -8.80722 14.5893 9
395 1 -7.05492 -3.37187 16.9674 11
396 2 -4.08536 -2.07533 5.28979 22
397 2 -8.5762 7.00762 5.14137 18
398 2 -7.92738 -9.72928 3.80057 16
399 2 -11.603 6.60057 3.77341 16
400 2 2.8627 12.3612 12.3078 13
401 2 -12.4806 -1.31379 -3.08164 18
402 2 -5.60757 -8.9969 8.73412 20
403 2 -3.1659 -4.28959 -10.4125 18
404 2 -4.0347 -16.1563 2.01237 18
405 2 -12.079 -17.8739 -3.01445 9
406 2 -4.77859 -12.8537 -7.12676 16
407 2 -4.79038 -15.5719 -2.02169 15
408 2 5.57089 -8.79825 12.4729 17
409 2 -9.92521 -6.84822 -1.22958 15
410 2 -6.01099 -18.1917 2.82192 10
411 2 -3.72756 3.75424 14.1808 17
412 2 -11.8515 4.06335 -4.53237 18
413 2 -7.36163 12.3161 2.51411 14
414 2 -13.5972 0.233894 9.2267 9
415 2 -20.6667 1.25905 -0.383491 12
416 2 -5.258 8.66412 8.34461 18
417 2 -17.6854 6.15156 3.15631 9
418 2 -17.9613 -0.880664 6.48843 9
419 2 -4.75838 -12.911 -3.49786 19
420 2 -1.27761 -16.0149 4.01357 20
421 2 -12.1291 -10.5328 -0.888269 14
422 2 -10.7113 -11.5077 1.22656 13
423 2 -10.5628 -13.7664 -8.89588 11
424 2 -13.2072 -11.8767 -3.3008 14
425 2 -10.7772 -10.5344 3.76251 13
426 2 -17.1819 2.62843 -2.20906 18
427 2 -18.6116 0.955297 -3.29208 13
428 2 -0.0762191 -17.2273 -7.41303 11
429 2 -4.08294 -0.570414 9.36017 18
430 2 -5.76033 -8.28338 2.99928 15
431 2 -6.13521 -1.24754 7.13974 20
432 2 -12.419 4.7885 10.3073 9
433 2 -12.4807 -4.01852 8.06063 17
434 2 -9.27612 -2.18947 -9.0815 17
435 2 -18.8499 3.66941 -0.673651 12
436 2 -15.3104 -2.05317 -1.9239 13
437 2 -11.5196 -7.33154 0.952715 13
438 2 -5.76152 -7.8861 10.9362 16
439 2 -6.28331 -0.413611 10.6662 16
440 2 -0.999142 3.36913 14.3294 17
441 2 -10.7329 -5.06139 9.92152 17
442 2 -10.5872 -7.37915 13.693 10
443 2 10.6833 -11.4722 8.42204 16
444 2 7.28387 -15.313 -5.11656 15
445 2 -12.4064 -4.45383 -3.17263 15
446 2 -5.59089 -7.3705 0.53919 15
447 2 -10.2483 -10.3556 6.7809 12
448 2 -11.4737 1.56943 -7.425 19
449 2 -0.608307 -11.9413 11.339 11
450 2 0.293969 -17.1492 1.12844 17
451 2 -10.7768 -16.1434 1.75352 11
452 2 -5.61609 2.15184 7.72268 21
453 2 -13.113 -6.42738 -1.3596 11
454 2 -6.7806 -13.5607 0.0313998 12
455 2 1.53744 5.94237 13.8632 19
456 2 -4.02101 0.427166 4.0085 19
457 2 -8.51477 1.14348 -5.99806 21
458 2 -5.45658 -2.82638 -2.19166 18
459 2 -9.63256 -2.65593 -12.1497 13
460 2 -8.10392 3.67367 7.85938 19
461 2 -8.58413 -8.49488 1.57685 20
462 2 -10.9104 5.15514 0.663395 16
463 2 -17.2704 1.75414 1.11442 19
464 2 1.30547 -13.1874 4.92056 17
465 2 -7.22154 -2.00246 -0.52959 19
466 2 1.97121 -7.35844 7.79449 17
467 2 -12.5476 0.578191 0.069733 14
468 2 -8.13623 -7.21325 11.9578 16
469 2 -5.416 7.54333 15.6281 11
470 2 -3.57542 10.2149 14.3709 12
471 2 -7.59658 -11.1222 1.2734 16
472 2 -9.42563 -10.5646 -2.05043 16
473 2 11.3819 -0.0277571 -3.56921 16
474 2 -6.74173 -11.4613 -12.2771 10
475 2 6.49619 1.69572 12.0298 17
476 2 -3.0538 -10.82 -1.76935 14
477 2 0.265555 -7.72634 1.7589 14
478 2 2.05531 -13.9004 11.5271 10
479 2 -5.91506 -4.82465 6.54344 18
480 2 -7.83844 -5.98429 2.79701 17
481 2 -3.27575 -5.51825 12.314 19
482 2 -2.43132 -18.4511 1.28072 13
483 2 -5.98939 -10.3689 -1.59259 17
484 2 -11.9913 -14.0927 2.55627 9
485 2 3.68245 -4.99648 10.092 19
486 2 -5.17268 5.75568 6.66042 19
487 2 -8.58995 -17.3477 1.32198 12
488 2 -7.90506 8.83411 9.49965 10
489 2 -0.0813457 -9.56227 8.0951 18
490 2 -4.54678 -3.01907 9.88529 15
491 2 -11.2173 -4.95044 5.05178 18
492 2 16.1724 7.14971 6.17892 11
493 2 -4.73224 2.84314 11.0001 18
494 2 -8.8395 -17.4809 -4.49848 10
495 2 0.0679962 4.31361 7.34152 18
496 2 3.9562 -2.93631 13.0926 16
497 2 -2.06111 -13.4416 -1.63247 18
498 2 9.78903 3.22664 11.8903 15
499 2 10.8389 -0.597232 9.54971 15
500 2 2.22822 4.32522 9.12459 19
501 2 -6.72776 -7.77862 6.36636 21
502 2 -7.851 -5.41921 9.24807 18
503 1 -6.21879 -0.825832 0.706663 20
504 1 -7.45871 -10.2688 -10.7702 11
505 1 -1.69569 -0.653525 12.742 17
506 1 -8.00218 1.23141 -2.23516 13
507 1 -19.6016 2.70427 0.549387 13
508 1 -16.6305 2.56356 -0.634515 18
509 1 -12.9078 -1.10766 -6.53803 21
510 1 -9.5191 7.62418 3.59599 16
511 1 -21.6149 -4.494 -5.00341 4
512 1 -6.25676 -5.86603 5.03192 18
513 1 -1.97787 17.2439 3.76609 15
514 1 -2.54375 4.68044 1.00144 20
515 1 -10.0146 12.6784 -9.91981 9
516 1 -21.7267 -2.25695 -7.37144 5
517 1 -11.9619 -4.5374 -5.35376 20
518 1 -12.093 -12.8594 -9.60249 9
519 1 -8.64291 -3.85925 -4.45258 17
520 1 -8.71512 10.3529 -1.16436 13
521 1 -0.991146 14.6018 7.49867 15
522 1 -6.63272 15.4628 0.0904997 17
523 1 -5.00168 4.75889 -4.6885 22
524 1 -11.8772 6.21284 -9.75495 13
525 1 -8.60549 3.46639 11.5174 16
526 1 -15.2343 5.71084 -1.52519 13
527 1 -9.16814 12.6054 1.46569 14
528 1 -2.94536 7.32181 -6.6626 18
529 1 1.07056 -13.249 -1.89259 18
530 1 9.04127 -0.0321682 -16.0561 12
531 1 -12.1114 3.26213 6.38185 16
532 1 -18.6273 5.62849 -1.1436 9
533 1 -8.53682 6.98361 -9.18582 22
534 1 -4.00002 3.06776 16.3981 14
535 1 -11.6856 10.0811 6.05903 12
536 1 -1.03028 8.87657 -2.74709 17
537 1 -8.94469 2.67034 -13.7822 16
538 1 -16.2103 4.01061 -7.22605 6
539 1 -5.15574 9.14277 15.185 9
540 1 6.97134 21.0979 -9.39667 3
541 1 -18.8783 2.68867 -2.6134 12
542 1 4.96287 17.9655 -9.70079 12
543 1 -2.58696 6.63117 -12.9434 15
544 1 -5.42664 6.08709 -7.00348 22
545 1 -5.96169 11.0448 5.13216 16
546 1 -10.7892 15.5308 -3.76303 10
547 1 -2.31785 10.231 15.5497 11
548 1 -8.10663 6.57578 -4.60893 22
549 1 1.39965 12.0989 7.57722 20
550 1 -6.87654 0.355506 -13.5167 18
551 1 -10.5511 8.00528 -13.7957 10
552 1 0.154568 5.99352 -14.4223 18
553 1 13.702 -8.87295 -0.542044 18
554 1 16.3655 4.34695 -5.9243 7
555 1 -6.49873 -4.77332 -12.2518 18
556 1 -13.8903 1.66223 -0.649524 17
557 1 -10.1079 9.53374 -4.32342 14
558 1 -14.4459 4.20617 1.17906 17
559 1 -4.01938 1.14245 -13.1978 21
560 1 3.74184 5.56613 8.89029 20
561 1 -2.94959 9.04673 9.61586 19
562 1 -7.93634 13.5657 -2.76498 21
563 1 5.75574 4.66438 -14.6101 12
564 1 -10.8726 10.7364 -12.7635 6
565 1 -15.8847 5.78989 2.70303 12
566 1 -7.87717 5.75828 0.841316 18
567 1 2.97266 0.42862 -13.7415 16
568 1 -5.9483 6.91057 -1.5515 15
569 1 -8.89902 14.3421 6.69022 9
570 1 5.26933 0.0299292 0.562133 18
571 1 -0.758791 13.5494 -6.63078 18
572 1 -6.82151 9.12238 -6.59862 20
573 1 -7.55343 8.56203 -12.2808 12
574 1 -12.6037 10.1458 -2.96466 12
575 1 3.43629 12.6951 -11.7763 13
576 1 -4.50842 17.2023 1.76813 18
577 1 6.88131 17.4219 4.09031 8
578 1 3.03064 10.7472 5.17251 21
579 1 12.0776 0.253997 -9.93964 17
580 1 -5.35439 8.08756 -9.82625 18
581 1 -5.36014 12.5005 -1.83197 16
582 1 0.305033 10.2166 -9.77084 21
583 1 -9.12981 11.386 4.671 16
584 1 6.88008 -3.10899 -7.984 19
585 1 -1.27523 4.90477 10.8331 20
586 1 -9.4931 -12.9277 -7.32528 17
587 1 9.00117 -7.11386 -1.35233 21
588 1 9.96201 -4.43085 -3.62403 20
589 1 -9.37727 8.16629 8.77308 11
590 1 -3.72843 9.79719 -11.7383 11
591 1 -10.1854 7.87999 -7.21624 20
592 1 -13.3077 5.38898 -3.60154 17
593 1 -11.1794 4.78332 -14.5279 10
594 1 6.638 16.3102 -2.27115 14
595 1 -0.809576 10.7642 9.55467 16
596 1 -10.5683 12.6375 -1.72687 13
597 1 -3.12606 -6.19403 -11.5666 17
598 1 0.10798 -8.6427 -15.9301 8
599 1 -0.851396 8.90781 -13.8617 11
600 1 -2.50425 18.6909 -1.21085 11
601 1 -4.20372 2.09435 -6.24017 20
602 1 6.72647 -2.7563 -16.5175 8
603 1 -1.56659 3.40159 -13.7795 18
604 1 -6.49968 16.2429 7.23536 12
605 1 3.75516 6.01305 -7.41102 21
606 1 -1.39887 15.5073 10.4446 12
607 1 -1.67301 7.57088 0.689803 20
608 1 -12.192 1.17349 1.91725 13
609 2 -1.56029 -15.4178 -11.6483 10
610 2 -8.62946 12.3052 -8.20791 15
611 2 -10.9975 4.66537 6.45861 20
612 2 -2.50814 -2.54676 2.82264 19
613 2 -8.17789 6.10593 7.88587 16
614 2 -13.0245 8.7319 6.08842 12
615 2 -10.3061 -6.73989 16.6577 5
616 2 6.18921 -11.6023 -1.86316 18
617 2 -21.1555 -1.364 -1.47861 9
618 2 -8.38308 6.96777 2.20123 18
619 2 -6.04706 9.35118 -8.52503 19
620 2 -13.7479 -0.0927057 -8.22674 17
621 2 -6.70494 -4.57398 13.3487 16
622 2 -4.20702 -0.742877 -1.90024 19
623 2 9.68524 -4.64852 -10.0211 13
624 2 -3.95668 3.56434 0.737942 16
625 2 2.74746 2.20208 -12.4722 17
626 2 -8.33876 4.91743 -5.14871 20
627 2 0.27177 -1.34316 -4.82782 20
628 2 -5.44555 14.86 -6.30273 18
629 2 -14.8137 3.6608 -0.705917 17
630 2 -7.12744 7.40248 -10.4404 17
631 2 4.95907 7.6319 -11.4269 22
632 2 -8.99556 17.2496 -0.585614 13
633 2 -12.3774 -10.6979 -9.37755 11
634 2 -1.40741 14.1072 0.553833 19
635 2 -4.03633 19.1215 -2.08836 10
636 2 -3.67942 11.7491 -1.03094 17
637 2 -8.10723 4.00914 1.41131 15
638 2 -9.46909 7.98367 -4.99693 19
639 2 -11.9551 4.21918 -12.7914 12
640 2 6.82511 -5.71321 -11.0735 19
641 2 -13.4579 -3.6202 -0.379666 12
642 2 -1.35506 7.95855 -1.21034 18
643 2 -9.0789 -0.564363 -13.8404 13
644 2 -3.21746 1.96031 -2.94958 13
645 2 -10.9961 -10.8786 -4.71025 18
646 2 -9.0238 1.33034 9.24054 17
647 2 8.38 1.88289 -15.84 10
648 2 -7.53231 -6.94533 -6.60974 20
649 2 -5.84325 17.5105 0.266779 20
650 2 -12.9556 12.833 3.75018 8
651 2 -1.77742 5.96697 3.86776 21
652 2 3.4143 8.36691 -14.2851 14
653 2 -12.7339 -3.26629 -6.76265 17
654 2 -15.6432 10.1831 0.89996 7
655 2 -23.119 0.0445694 -2.9629 6
656 2 12.8917 4.34405 -13.048 7
657 2 -21.7969 -3.19315 -3.52115 7
658 2 -16.6327 -2.44915 -7.97876 14
659 2 -1.78429 13.2308 -2.85939 22
660 2 -5.16654 17.3534 7.92388 11
661 2 1.81263 2.02067 -9.97581 19
662 2 -6.24907 1.38472 2.0583 19
663 2 -6.05401 5.32071 -14.58 9
664 2 -0.508408 3.34856 -11.5064 23
665 2 -7.41886 3.00783 -2.92845 13
666 2 -16.9457 6.48682 -1.49931 7
667 2 -11.2313 12.5744 -8.09132 12
668 2 -5.37265 9.14824 -4.9603 17
669 2 -1.76821 -13.0812 -8.62375 15
670 2 -4.34379 -7.94663 -15.2596 12
671 2 -14.966 10.6736 3.95316 10
672 2 -3.06796 8.53316 11.8701 15
673 2 3.52917 10.0195 9.96048 24
674 2 -4.7458 11.4538 6.60139 18
675 2 -16.0678 2.02719 4.71443 12
676 2 9.18676 4.04865 -3.50581 18
677 2 1.10785 11.3153 2.42537 20
678 2 -10.8545 2.37119 2.1465 10
679 2 -4.22374 7.5127 4.55527 19
680 2 -9.09208 4.27826 -14.3922 13
681 2 -11.9427 7.36334 -8.28452 11
682 2 -0.876 5.2698 -0.202289 17
683 2 -4.36863 10.1411 4.34943 17
684 2 0.531638 10.349 -7.49102 21
685 2 -6.96488 15.2839 -1.82425 19
686 2 -15.2417 6.14818 5.53571 14
687 2 1.47213 7.88012 15.6163 13
688 2 2.30932 3.6478 5.56725 16
689 2 5.28802 -3.30074 -8.94397 20
690 2 3.07848 21.4519 -2.76751 6
691 2 3.44768 8.91963 -8.09346 21
692 2 5.65397 4.16479 -16.3486 8
693 2 -0.093648 17.4242 4.01716 13
694 2 6.19607 19.3785 -9.86059 6
695 2 -1.0243 16.3333 -6.50782 12
696 2 7.15838 5.29499 -13.5438 11
697 2 -13.6725 10.814 -1.56022 8
698 2 -9.53041 12.4119 6.42845 13
699 2 -6.7666 -2.08839 -16.1588 11
700 2 4.53338 -3.14552 -12.6744 18
701 2 4.26612 4.08579 -8.00516 17
702 2 -3.1207 -9.62135 -9.38065 17
703 2 -1.26272 1.9242 -8.79205 22
704 2 4.30225 10.7723 -12.4251 15
705 2 -2.91382 6.02033 10.2199 14
706 2 -2.67914 1.11412 0.633532 16
707 2 4.99705 -8.91833 8.72305 16
708 2 -8.11274 8.65223 -0.393865 14
709 2 3.20448 -0.81072 -11.1862 19
710 2 13.3237 8.47458 -5.40963 12
711 2 1.45984 11.7947 -11.3294 15
712 2 1.88843 5.87728 4.42612 16
713 2 -15.9966 8.02674 4.04775 11
714 2 -1.73875 12.4202 -7.818 15
715 2 -4.01878 11.8417 2.10543 18
716 2 7.46337 10.9152 -6.8358 14
717 2 -7.01381 18.1989 -2.9381 13
718 2 -11.7594 -4.64324 1.98685 16
719 2 12.7334 2.00394 -10.5398 19
720 2 1.32589 15.0036 1.72103 18
721 2 -1.08496 11.8598 0.43002 18
722 2 -11.4177 -0.693989 -10.7087 16
723 2 -5.32945 18.3671 3.02372 13
724 2 -5.84809 7.25897 11.9553 13
725 2 -0.439028 9.91478 14.2839 17
726 2 5.37122 9.14009 -5.8707 18
727 2 5.01307 16.7021 -3.15857 14
728 1 -2.3214 0.996232 4.77562 18
729 1 -5.0642 3.89961 6.57228 21
730 1 -14.2146 2.08223 4.34231 15
731 1 -10.4028 12.6421 -4.68687 17
732 1 -14.7781 8.17696 5.81853 11
733 1 -8.2851 8.79079 6.23912 17
734 1 -10.388 4.73394 -5.22753 16
735 1 -3.6826 12.4411 10.1577 15
736 1 -7.62102 7.98649 11.4724 9
737 1 -14.9477 6.26643 -5.2466 8
738 1 0.779328 2.06529 5.54224 19
739 1 -13.4162 5.27725 8.90645 12
740 1 -10.7017 -7.0524 -7.5986 18
741 1 12.5331 0.54488 9.69038 13
742 1 -5.99383 4.08513 -13.0662 17
743 1 -17.1458 -2.48602 7.26542 8
744 1 1.48045 13.6625 11.5467 10
745 1 -5.35052 -15.3428 8.01185 8
746 1 -0.93911 7.56836 15.7468 14
747 1 -19.2467 5.53469 2.21545 9
748 1 -3.68751 15.7299 -0.770068 21
749 1 -9.14546 7.3411 -1.82996 17
750 1 -8.77264 15.4169 -0.994413 15
751 1 -0.825797 12.1413 12.536 16
752 1 -9.4875 -10.3024 -8.54019 16
753 1 -4.68034 -4.75337 16.5887 15
754 1 -1.16008 15.1043 -2.77289 19
755 1 -2.30604 13.0403 -1.00731 22
756 1 0.521738 13.7156 0.202563 20
757 1 -10.9543 -8.72337 -0.0987259 16
758 1 -11.6125 2.77013 -11.4598 16
759 1 -3.52956 6.99568 17.3667 10
760 1 0.608344 5.78786 8.65568 17
761 1 4.69307 16.4565 3.11397 17
762 1 6.90062 -0.866857 16.1258 15
763 1 -14.5194 -4.54233 11.6217 8
764 1 1.88592 12.9305 14.3767 8
765 1 0.0409453 -5.04599 11.3704 18
766 1 -2.52265 -2.25839 9.53798 19
767 1 -4.79443 0.588715 10.6252 19
768 1 3.38908 -1.90576 -15.8463 11
769 1 5.81745 3.99335 -6.81414 16
770 1 -17.4045 7.14325 5.15023 8
771 1 -6.04987 11.8309 -5.12489 19
772 1 -9.84682 0.967412 13.5668 9
773 1 -11.947 7.73562 7.45467 12
774 1 -4.93693 2.92973 12.8956 17
775 1 -22.675 -2.01858 -2.35261 7
776 1 -6.18156 12.2938 8.08711 11
777 1 -5.03201 -0.189678 14.8051 20
778 1 -13.5981 2.17628 9.07204 10
779 1 -1.74587 -5.5741 16.8312 13
780 1 -3.96234 7.07657 11.6392 15
781 1 -5.87179 5.80168 15.9301 12
782 1 -12.4628 11.1465 3.05 15
783 1 1.90596 1.56869 1.69673 20
784 1 -5.07671 5.00758 0.971782 18
785 1 -5.75583 8.46032 3.99789 19
786 1 -1.25368 2.15829 1.65975 19
787 1 -5.93297 11.2786 1.9508 17
788 1 -10.0295 -8.26967 12.0657 12
789 1 -4.47769 -2.15577 11.8418 19
790 1 -0.349942 4.03057 16.0152 15
791 1 -4.58965 -5.679 10.9177 16
792 1 7.66016 7.91902 4.04491 19
793 1 -3.77883 -2.32383 -2.82732 19
794 1 -16.3688 0.648975 -7.33175 14
795 1 -7.33232 4.70188 3.45996 20
796 1 4.02749 17.089 -0.779739 15
797 1 -15.7774 9.47261 2.91676 11
798 1 -4.23885 3.42516 9.33104 18
799 1 -4.30645 13.9299 2.43606 19
800 1 3.57316 1.78084 14.0754 20
801 1 -7.31635 6.08883 6.1931 23
802 1 1.29367 15.7713 3.49477 16
803 1 -14.2647 -7.73233 6.92677 7
804 1 -3.29957 11.4593 3.81186 22
805 1 0.670834 16.6091 -5.54292 13
806 1 -14.8644 12.5465 4.19809 6
807 1 6.04147 9.51154 -11.2826 18
808 1 13.272 4.72412 2.15489 18
809 1 -3.68523 14.7914 7.91436 17
810 1 -15.2366 -1.31777 -8.79183 16
811 1 6.79044 2.76584 -16.6387 9
812 1 0.639155 4.14339 13.4608 21
813 1 11.1124 -15.5937 10.4351 2
814 1 -4.26009 14.807 5.32092 19
815 1 4.18372 3.13201 10.8034 19
816 1 -11.1702 10.2061 0.580659 14
817 1 6.89912 -4.03495 17.6873 8
818 1 -11.5861 4.42644 -1.2035 17
819 1 8.00253 -7.36845 16.3858 9
820 1 2.35237 17.8748 5.64711 14
821 1 -1.93824 0.172549 16.4593 15
822 1 4.67047 8.70849 0.558195 20
823 1 -7.18704 14.1973 2.9313 16
824 1 3.83768 20.0506 -7.33688 12
825 1 6.63229 7.903 9.10189 20
826 1 -1.86216 3.94999 3.97581 17
827 1 -15.3412 -3.28828 -6.18694 14
828 1 5.69458 -2.27034 12.7174 19
829 1 4.08319 14.1471 -9.53139 17
830 1 2.45808 2.53113 17.0626 12
831 1 -6.18338 19.9663 2.41611 8
832 1 -1.02389 18.172 8.44455 14
833 1 -8.1846 2.86599 5.14115 20
834 1 -5.40688 16.5517 -6.56375 13
835 1 -9.63563 4.7372 8.17354 22
836 1 -0.381286 10.5189 5.55032 19
837 1 1.05548 5.15789 6.08563 19
838 1 -3.47782 10.3186 -4.65739 19
839 1 -8.72594 16.1744 4.42384 10
840 1 1.0434 9.73018 15.6415 11
841 1 -5.76425 18.6011 -1.28154 15
842 1 3.8284 15.6853 -12.1278 8
843 2 -1.6855 -9.04558 -16.1503 9
844 2 -9.40721 0.452956 11.7986 11
845 2 -7.4372 13.3051 -4.52194 20
846 2 -13.0306 7.21422 -5.07241 16
847 2 -0.318003 -0.612839 16.6909 9
848 2 -9.3247 4.19484 4.17736 19
849 2 -15.7634 3.8553 2.45504 14
850 2 -9.77613 11.6104 -0.100526 14
851 2 -5.35967 -1.85513 2.20501 22
852 2 -2.72111 13.6624 3.06614 17
853 2 -6.13081 4.83826 -0.473379 18
854 2 3.63404 -11.9132 -2.96851 15
855 2 17.4503 9.83085 4.63417 8
856 2 -10.6074 -1.42784 9.60651 15
857 2 -13.8228 6.7156 7.59768 11
858 2 -16.5168 0.383294 -9.31573 12
859 2 -5.89311 2.79518 16.3456 12
860 2 -10.1011 -7.03353 4.40031 20
861 2 -10.2414 2.84132 12.69 11
862 2 7.67727 -0.467105 -14.8154 17
863 2 -6.48943 -1.30748 13.7948 15
864 2 -4.81811 -3.53168 17.9758 8
865 2 -5.33757 -4.69475 2.90395 22