ITEM: TIMESTEP
498000
ITEM: NUMBER OF ATOMS
2000
ITEM: BOX BOUNDS pp pp pp
-30.0 30.0
-30.0 30.0
-30.0 30.0
ITEM: ATOMS id type x y z Coordination
1 2 8.52979 13.4071 -9.15632 16
2 1 3.69894 -14.9781 -11.9617 9
3 2 -2.22753 -3.87982 -10.3647 17
4 1 -1.79156 -9.32577 3.7666 16
5 2 8.50093 -10.8964 1.54702 20
6 1 6.62901 -8.95782 -13.6711 11
7 1 -1.02937 -14.2717 1.02553 15
8 2 -10.9527 -12.4211 -2.57995 13
9 2 -1.25632 -3.01175 -3.06889 18
10 1 10.6896 -12.2172 7.95338 9
11 1 0.835744 -1.04894 -7.30684 16
12 1 16.0648 3.17976 -4.01703 12
13 2 -16.6257 -4.44573 5.0027 11
14 2 8.79108 -4.21118 -7.6583 18
15 2 -18.2233 -7.98271 3.09917 12
16 2 -15.8862 -2.23456 -6.10055 16
17 2 -7.74282 3.88339 -13.7452 11
18 2 7.79926 10.2056 -3.95092 17
19 2 1.20734 -2.40886 -1.26192 19
20 2 4.08095 -11.345 13.9583 5
21 2 10.6365 7.58156 1.27528 17
22 2 -2.11833 -2.18036 -18.4476 10
23 2 9.15027 -9.77775 -1.61135 22
24 2 1.76272 6.30086 -11.5559 14
25 2 -12.6425 -9.26105 -8.41297 12
26 2 0.919309 2.26727 14.9958 15
27 2 0.936253 -0.850828 -3.98489 20
28 2 -13.064 -6.63014 8.06124 15
29 2 -0.810991 2.11086 -18.3205 12
30 2 -5.57534 2.77838 -18.1696 10
31 2 3.10122 9.41134 -5.02396 22
32 2 2.99414 14.2706 2.79528 11
33 2 -7.02833 10.8501 -3.56735 15
34 2 13.9419 14.1696 -5.37859 13
35 2 -2.20307 -17.3208 -1.66859 8
36 1 -11.4859 -3.47748 -6.77458 15
37 1 -2.43508 -0.232456 -16.5584 15
38 1 -8.66778 -3.75048 2.38516 16
39 1 -11.0359 0.11623 -1.03316 15
40 1 5.44296 -12.1852 13.3168 7
41 1 7.33731 11.2171 -12.0122 13
42 1 -12.751 -9.61724 -5.31607 18
43 1 -3.56885 -12.7019 11.2457 7
44 1 -3.51325 3.70638 -0.982019 15
45 1 0.451678 1.57282 -15.1176 15
46 1 2.42149 15.8629 9.25221 15
47 1 -0.176251 -14.4717 -7.99539 15
48 1 0.620157 -10.2619 -17.3705 7
49 1 18.7562 -2.35608 2.84246 10
50 1 -20.7736 -4.3692 4.42908 4
51 1 11.441 -7.48925 9.76363 17
52 1 -4.05197 3.37431 7.75092 20
53 1 1.63056 -12.5661 -6.03724 18
54 1 -1.24745 -15.8591 -2.64618 12
55 1 -19.9631 -0.718353 4.86498 7
56 1 1.90054 13.1321 3.80812 16
57 1 -1.53583 5.19717 3.32662 20
58 1 -14.3861 -9.19906 12.0144 8
59 1 -12.4529 3.15924 4.65643 21
60 1 1.62257 8.24587 -12.2474 11
61 1 -7.88504 -9.96509 9.0449 15
62 1 -14.43 5.78074 -0.0908293 16
63 1 5.63617 10.6626 -3.86056 20
64 1 -9.16575 -4.642 -10.9581 17
65 1 -0.308527 5.0116 -7.54591 18
66 1 -5.21961 -0.316571 -14.8413 17
67 1 2.74644 1.66231 -10.3001 16
68 1 -1.27138 -7.94593 0.476625 18
69 1 -8.95125 8.00263 -13.3291 12
70 1 3.43676 3.50066 2.09876 19
71 1 1.58768 -15.9478 2.50573 12
72 1 -8.41855 -8.72739 -13.7722 11
73 1 -11.0953 -1.44915 5.36154 18
74 1 -0.977899 -10.4046 -9.67398 19
75 1 0.318522 10.6568 5.36765 18
76 1 -8.22504 -5.80088 -5.21823 18
77 1 -2.39814 -9.07457 -1.61834 15
78 1 3.44459 18.9142 2.82238 8
79 1 0.996519 3.41389 -18.0561 11
80 1 3.49813 -18.2062 -9.43759 8
81 1 -8.93541 -14.2398 5.36263 11
82 1 -8.86109 11.3312 -8.55302 6
83 1 -16.5578 -8.85343 2.83205 17
84 1 -13.9979 7.22942 9.71997 17
85 1 13.3355 -5.47791 -10.8141 14
86 1 17.5777 10.2588 -0.0428619 6
87 1 10.0085 -9.76877 2.18991 18
88 1 4.74039 0.374711 3.00034 18
89 1 5.61824 -1.70199 -5.01253 24
90 1 -14.2754 -5.17087 8.22372 13
91 1 -11.8466 -7.89977 -9.45769 15
92 1 -5.5731 -10.2415 -5.89861 17
93 1 -11.4386 -6.20666 9.12313 16
94 1 2.77693 -10.8035 5.19275 15
95 1 4.41125 -8.42276 4.39068 18
96 1 8.32378 -4.89752 -9.81672 14
97 1 -13.479 -3.11968 -0.963327 15
98 1 -5.24475 -0.0175792 9.37909 21
99 1 -5.93037 -13.521 6.9166 13
100 1 15.6739 -2.64464 -10.4916 12
101 1 -0.730568 0.30721 -11.0554 17
102 1 -8.01014 -12.5588 -5.16317 15
103 1 -2.48231 8.7297 2.08198 19
104 1 -0.569765 -13.9614 -12.2199 11
105 1 -2.37347 -13.6232 -9.96773 18
106 1 2.49229 0.543957 -3.60625 21
107 1 -5.97939 1.28452 1.28452 13
108 1 9.64002 16.6564 -2.39699 13
109 1 -10.5757 -0.458645 -6.54709 16
110 1 -18.7291 -1.80882 8.45836 9
111 1 -11.9381 9.01999 14.3934 8
112 1 -17.0292 -3.99647 -7.56738 11
113 1 -0.331984 8.0628 -6.63275 14
114 1 -1.5097 -7.9324 -12.532 20
115 1 -11.0425 6.0489 -10.9347 12
116 1 8.764 -14.603 -8.14706 15
117 1 -9.206 -9.67276 11.6027 11
118 1 -11.269 -6.99166 -3.21671 19
119 1 -7.25365 -8.25187 -3.19344 16
120 1 -1.96772 -1.34126 -7.88585 14
121 1 -16.0409 -8.90037 6.02571 13
122 1 -3.18453 2.85142 -6.50063 19
123 1 -6.7059 -8.76157 12.0697 13
124 1 -4.36754 9.33637 -14.0532 9
125 1 13.4371 11.256 -3.34737 13
126 1 14.5086 8.73548 -1.28939 16
127 1 9.83423 -16.4229 -5.83377 10
128 1 -0.916379 -2.30962 -11.542 16
129 1 -8.06177 -0.0225797 -0.62142 19
130 1 -3.76734 -17.9316 -2.64137 6
131 1 11.6813 -14.3228 -9.06972 9
132 1 -9.63955 5.17567 5.61201 17
133 1 14.4302 -2.50759 12.9976 11
134 1 12.1143 -10.8705 -0.153013 18
135 1 -10.7305 3.08755 -10.8211 12
136 1 -6.10987 3.62785 -8.41632 17
137 1 0.511284 0.842058 -19.2919 12
138 1 -2.29369 1.11955 -13.1885 18
139 1 1.40574 -12.4378 -10.4593 16
140 1 14.4342 0.500593 -9.76951 14
141 1 -11.3242 9.89156 -4.75517 15
142 1 -3.59039 -8.22129 -4.51066 19
143 1 -17.2655 -9.38561 -0.878826 10
144 1 9.76973 6.68231 -5.54232 17
145 1 2.91453 -5.10731 16.652 12
146 1 -10.0879 -13.9327 -1.71542 10
147 1 8.18903 8.80015 -13.4975 13
148 2 -5.74956 5.71391 -15.8299 13
149 2 11.6448 -1.55791 -12.776 11
150 2 -18.6897 2.32823 -3.51811 9
151 2 -0.435681 -6.33776 0.347384 16
152 2 -8.79698 0.318588 -13.8916 16
153 2 -8.75535 13.613 -3.49446 12
154 2 -8.32275 -13.1317 -1.74862 17
155 2 -0.552097 16.2794 -3.5858 13
156 2 -4.69225 4.45251 -13.3543 16
157 2 -13.4502 -7.01067 -8.93693 12
158 2 2.16452 -17.211 -0.804286 11
159 2 -17.3296 3.04312 -5.71517 11
160 2 -5.79055 -7.80801 1.08604 14
161 2 -18.1526 0.50769 -0.121214 11
162 2 9.18781 -1.11963 -5.11552 18
163 2 4.69662 1.25803 -10.2987 13
164 2 -8.11953 7.56007 12.7211 14
165 2 0.912616 -9.47615 -6.87697 20
166 2 -11.5642 9.96581 12.2804 10
167 2 11.1763 -15.3638 -5.18669 13
168 2 7.96578 -3.08644 -2.47649 17
169 2 -5.64619 -6.62645 4.63929 16
170 2 7.01334 -11.3568 13.5132 8
171 2 -5.53412 15.4969 -3.76358 10
172 2 -4.97463 -9.42064 6.80905 18
173 2 -2.86441 -10.3325 8.13554 17
174 2 4.6736 -12.2231 -2.79349 14
175 2 -2.05168 -6.00871 -8.51148 15
176 2 -8.10954 -0.798041 -4.11914 17
177 2 15.0431 3.07416 -2.2726 19
178 2 -5.95053 7.85466 -13.1752 14
179 2 14.479 1.45749 -5.82505 17
180 2 8.39454 -13.1988 0.0640982 18
181 2 -12.8489 -4.50133 -6.39379 20
182 2 -6.92695 -16.6354 0.946597 9
183 2 1.58098 -13.0596 -3.91507 16
184 2 -5.49842 -11.9912 -6.97186 15
185 2 0.193053 9.74032 -7.05171 14
186 2 -8.0821 -10.7766 7.41954 12
187 2 3.20818 -2.71093 -10.9919 16
188 2 6.57392 12.851 -11.3395 12
189 2 0.45513 -4.38762 -19.6366 11
190 2 10.2725 -3.53267 -5.44391 16
191 2 -16.3162 -3.10992 12.0524 10
192 2 -9.49475 -2.94662 -11.9485 16
193 2 -15.4475 2.58991 -8.48508 11
194 2 -19.0935 0.541213 -8.88159 7
195 2 8.92464 -10.5251 -10.7217 14
196 2 4.75703 12.2085 -5.26225 18
197 2 -5.58501 10.9862 2.46398 15
198 2 -7.20566 4.95654 -4.47512 17
199 2 -10.2668 7.80189 -11.9499 12
200 2 -1.76231 19.1291 3.95126 8
201 2 6.65364 -8.3142 13.333 14
202 2 0.482824 0.673755 0.886389 18
203 2 3.04947 -0.479746 -9.3013 15
204 2 -15.2822 -4.41421 -8.12327 14
205 2 -11.0685 -9.96069 11.4021 11
206 2 -5.87469 2.383 2.83404 14
207 2 -7.37894 0.96212 12.0303 15
208 2 8.10714 -16.7832 -2.08988 9
209 2 -1.91438 -10.2941 5.82233 17
210 2 4.0684 8.10897 -6.99 16
211 2 12.4434 -7.67819 -1.21273 16
212 2 15.1039 2.03806 -9.10138 13
213 2 -8.09552 3.4378 -8.01205 14
214 2 -5.88452 -6.2481 -14.6024 15
215 2 -8.8406 -11.1686 -4.08707 18
216 2 3.90982 -1.18433 -4.03406 22
217 2 14.267 -3.70754 -9.68274 14
218 2 -14.2624 -0.969933 -9.17671 13
219 2 -1.7813 -9.98972 -11.2712 17
220 2 -0.611815 -0.710342 -16.1013 16
221 2 7.8447 16.4686 -2.05917 14
222 2 -9.4464 -13.7118 -4.86884 11
223 2 -4.58095 -10.0339 -4.27302 19
224 2 3.47443 1.47304 -2.1692 18
225 2 0.869467 -4.87976 7.06201 18
226 2 -7.26164 -6.83562 -7.09285 19
227 2 5.36511 -4.68732 13.4418 15
228 2 13.8601 8.15514 0.36854 17
229 2 6.50686 -15.1044 -8.39858 15
230 2 13.209 1.3663 -11.2779 11
231 2 -7.05205 -7.00696 9.68244 20
232 2 11.9537 12.5893 -4.65397 13
233 2 -2.71955 -10.6833 -2.60123 16
234 2 -10.3535 -13.0135 5.64599 15
235 2 -15.7428 4.124 11.2693 15
236 2 -5.88464 -5.47702 7.07328 17
237 2 -6.67952 -3.34022 17.9675 9
238 2 -11.4682 0.384953 13.2679 12
239 2 -2.26923 -12.5829 -5.85402 17
240 2 -8.21738 -11.5421 1.53539 13
241 2 2.94846 -6.19393 -0.0347808 20
242 2 -9.03008 -8.86898 0.957441 17
243 2 -11.5722 1.258 5.23659 17
244 2 3.82127 -4.05049 -2.99747 18
245 2 -0.289403 -6.61557 16.1654 10
246 2 3.25271 -7.57086 2.84079 15
247 2 -9.22459 -5.47856 13.8745 14
248 2 7.80087 1.13158 14.0122 13
249 2 10.3232 -15.557 -7.84731 11
250 2 4.54178 -13.8831 -0.383643 14
251 2 15.4091 -9.29199 5.59497 11
252 2 -10.2309 -4.91213 -7.46198 19
253 2 -1.51269 -4.81393 -4.91414 16
254 2 14.0955 12.7519 -1.97018 16
255 2 -6.39563 9.65126 -15.2287 9
256 2 -4.4151 0.802238 -13.3389 16
257 2 -10.549 -2.79346 -5.056 18
258 2 2.24353 8.64905 1.83123 14
259 2 -11.5175 -2.44616 -17.3715 5
260 2 -2.89767 5.02094 0.619169 13
261 2 -14.8286 0.261389 3.61383 16
262 2 -10.8563 -5.38604 -12.1142 10
263 2 -0.472659 -16.0423 0.930445 14
264 2 0.558893 -0.856268 -11.2614 17
265 2 10.2562 -10.7367 -7.19975 17
266 2 9.27403 13.7251 -2.25433 21
267 2 1.10544 -12.1615 1.66042 14
268 2 9.46114 -10.6054 6.61521 12
269 2 -8.22454 -8.24106 -9.55571 16
270 2 -3.0948 -6.63587 -12.3376 20
271 2 -18.0953 -0.397799 -5.78777 12
272 2 -3.90618 -7.27186 -6.08421 17
273 1 -3.6324 -2.91886 -11.1211 19
274 1 -6.30971 -4.64815 5.51096 16
275 1 -2.90623 3.11221 -10.3995 21
276 1 1.06267 -6.28893 -0.64132 16
277 1 -7.41087 -1.88954 -5.74807 18
278 1 -4.24554 -2.52155 7.21734 19
279 1 -17.8545 4.088 3.19513 9
280 1 -14.0873 -8.0402 9.20691 14
281 1 -5.45031 5.74438 9.84877 16
282 1 2.48421 3.7274 -12.9657 17
283 1 1.29888 -0.779796 -0.328156 19
284 1 -2.23383 -11.5219 -4.24066 16
285 1 -2.69507 -16.1563 -11.0302 10
286 1 10.5962 -5.92654 12.176 12
287 1 -0.96671 -4.06982 7.60842 19
288 1 3.51013 -7.955 0.88495 19
289 1 -3.24233 6.32604 7.78386 20
290 1 -5.32098 -2.4587 15.2723 21
291 1 -13.482 -6.01413 -5.29626 22
292 1 -12.6548 -7.02038 6.34961 19
293 1 10.4936 -11.0719 11.0745 10
294 1 3.38239 -6.35138 6.6773 20
295 1 -6.86253 -3.22071 9.16215 20
296 1 -6.8512 3.68251 -16.7526 10
297 1 -12.748 -2.11599 -9.13527 14
298 1 -16.1361 5.21537 9.13627 15
299 1 -11.1732 0.494077 11.5317 14
300 1 13.1099 -7.89587 0.938878 17
301 1 -13.5603 4.33015 11.164 15
302 1 5.97971 -10.9608 5.44905 12
303 1 -6.59622 7.70746 -15.4575 12
304 1 12.6156 -3.07848 -12.6455 13
305 1 -8.7023 -11.3087 -2.30896 18
306 1 -1.96553 3.04449 -17.3016 13
307 1 -5.03633 -13.1708 -5.47367 16
308 1 -6.09387 -10.2841 -12.0947 16
309 1 -16.1979 -11.3761 -3.07786 9
310 1 -3.78596 -12.0377 3.01762 14
311 1 3.59183 -4.97965 14.1055 14
312 1 -5.09315 -15.8773 1.14782 12
313 1 0.493327 -5.71152 -12.3295 20
314 1 -7.01386 -1.97413 -2.65945 17
315 1 -5.54771 -1.81033 3.79257 16
316 1 16.6575 -7.86039 5.84571 10
317 1 -4.12173 -16.2349 5.00509 9
318 1 14.5719 -9.36494 7.21922 14
319 1 -13.4461 -9.47515 3.8996 18
320 1 -0.843439 15.6066 4.63495 17
321 1 5.29775 1.52772 7.32914 16
322 1 -9.58882 9.89016 12.5907 15
323 1 4.12468 6.65016 2.19905 18
324 1 7.29518 3.8453 -14.2321 12
325 1 10.0854 -4.80637 4.87017 20
326 1 4.66151 13.0931 -11.7898 12
327 1 14.9484 -6.3711 12.0365 11
328 1 -16.7668 5.55124 11.6432 12
329 1 -17.1382 4.2863 0.327154 13
330 1 -5.46587 0.570577 12.9746 17
331 1 -2.05828 -16.7568 0.533095 11
332 1 -2.37241 -8.60619 6.56036 17
333 1 4.61881 -8.82722 13.6438 14
334 1 13.0397 15.6885 -8.16458 10
335 1 -14.4579 -3.53224 -6.29 19
336 1 3.72092 -5.35773 3.45819 19
337 1 -10.6577 -15.4587 2.5457 9
338 1 -5.42396 1.19753 6.25374 19
339 1 -1.45434 -6.99558 3.44826 18
340 1 2.50702 -9.8773 7.94008 13
341 1 -5.32108 -5.41057 14.1955 16
342 1 7.62652 -15.725 1.99195 8
343 1 -1.21593 10.9916 0.204845 18
344 1 -12.3249 0.558685 7.09219 16
345 1 -18.2538 0.38888 -10.4639 6
346 1 -10.6687 -4.19994 -3.81594 17
347 1 3.05643 -11.0415 15.3898 5
348 1 4.13621 -3.79128 7.3988 15
349 1 -7.59426 -16.5926 3.15281 10
350 1 -3.31218 -5.28421 11.748 19
351 1 2.09526 -4.94125 -3.71548 21
352 1 1.55432 -4.15952 -7.3243 17
353 1 -11.7697 -2.63666 2.32197 15
354 1 -12.3801 1.58649 -5.07792 12
355 1 -14.1083 -6.98944 2.80187 15
356 1 -11.8159 5.95872 -2.29687 19
357 1 -10.7023 14.6357 6.35202 6
358 1 -9.75132 -3.3162 -17.4028 9
359 1 -13.3767 -3.42389 14.9692 9
360 1 10.611 -9.16182 13.2924 10
361 1 -9.65846 9.29933 5.67455 16
362 1 16.2965 -3.30543 -2.12567 23
363 1 5.24851 2.00215 -5.83187 18
364 1 0.3222 8.97612 -3.81388 18
365 1 -15.7078 -2.35221 8.6207 18
366 1 7.77241 -10.8388 -0.452366 18
367 1 -3.7587 -11.5339 9.53144 13
368 1 -2.61292 -3.30939 -14.1736 15
369 1 8.65598 2.8168 4.31241 16
370 1 -8.99013 -9.18306 -11.0414 15
371 1 -6.5088 -4.89119 16.5881 13
372 1 12.8156 3.94759 3.1202 18
373 1 -3.35041 0.998725 2.3132 16
374 1 -0.0153895 10.3777 -8.89194 11
375 1 -10.3815 -6.6255 -13.5129 8
376 1 8.03747 -13.5148 -4.22325 18
377 1 -8.92137 -6.82161 10.4611 17
378 1 14.1061 -0.805921 15.3744 9
379 1 11.1022 3.61161 12.2083 13
380 1 4.46525 -11.4495 -1.20258 14
381 1 15.9366 3.37238 -0.662748 13
382 1 -7.99584 6.256 -5.54236 14
383 1 12.4679 -2.3597 14.2871 14
384 1 -1.22606 6.25605 -3.83074 17
385 1 -5.48265 13.0902 10.0566 13
386 1 -2.25554 15.8374 -4.12174 12
387 1 6.23813 14.9829 -0.0873347 15
388 1 -16.5696 -6.38615 4.9013 12
389 1 -7.37854 -8.84153 2.15236 18
390 1 -11.163 2.57489 10.0232 23
391 1 13.4238 -11.2837 9.65377 8
392 1 -1.68314 3.42092 13.8246 19
393 1 -2.66507 -2.40409 13.0558 18
394 1 -7.8576 3.72447 14.6433 16
395 1 -15.2456 9.42606 -4.93472 9
396 2 4.2991 -9.79028 8.80209 11
397 2 -6.99735 1.44324 -0.251651 13
398 2 14.4785 -3.30371 -2.26828 17
399 2 -2.2816 14.7339 4.07405 13
400 2 8.11379 4.50307 4.50366 15
401 2 3.21601 -2.97757 16.1915 12
402 2 -13.2513 -7.66567 12.0056 13
403 2 6.55058 -14.8704 -4.45967 16
404 2 5.38443 -4.54031 4.32789 16
405 2 -9.96431 -10.2557 -9.50231 14
406 2 -2.11379 -14.638 -8.08781 16
407 2 5.24975 -10.0986 -12.9104 11
408 2 -4.29245 3.13869 16.5167 12
409 2 -16.3846 0.307963 -9.86906 10
410 2 7.192 5.06867 -16.0115 13
411 2 -6.26455 5.91102 16.7263 10
412 2 -8.01781 -1.93403 -7.71154 19
413 2 -10.9879 8.25123 -3.64046 20
414 2 -15.7064 7.81222 9.0144 18
415 2 -17.1153 -9.52233 1.07639 13
416 2 -7.80542 15.7773 3.718 7
417 2 -1.92186 -4.9497 17.6811 9
418 2 2.72568 4.269 5.06902 19
419 2 11.3854 15.6804 -8.78162 9
420 2 6.8697 2.63948 11.9817 16
421 2 -12.6197 -11.9067 8.07559 11
422 2 -3.13918 -10.8319 10.9995 8
423 2 6.55193 -6.24767 -7.04375 19
424 2 -5.9369 -7.00173 12.9788 15
425 2 2.18367 -8.94947 5.01173 17
426 2 6.85239 0.123067 -3.67227 19
427 2 -6.84171 -2.22415 -15.4369 14
428 2 10.7407 -8.00772 -13.4282 12
429 2 -14.3598 9.54249 6.18767 11
430 2 2.35065 -12.0384 3.7474 11
431 2 -16.1895 1.81156 -1.96756 16
432 2 -9.64336 0.84253 -0.0862917 17
433 2 -4.33893 -1.07203 13.8925 18
434 2 -11.7626 4.10384 -9.38534 16
435 2 -13.7009 4.86637 9.26636 19
436 2 -10.6986 3.47138 1.19714 18
437 2 -13.7999 8.86929 14.007 8
438 2 3.45089 -9.20717 15.0521 10
439 2 5.05777 4.52334 10.2881 19
440 2 18.2845 -3.7123 -1.2936 15
441 2 -15.6683 6.5385 -8.73741 9
442 2 0.347851 -7.48027 13.4322 12
443 2 3.09429 7.74186 10.2464 18
444 2 5.58246 -2.97991 -6.50423 16
445 2 9.2653 -9.96232 9.96303 13
446 2 -1.5684 4.60304 -13.4196 14
447 2 15.242 -0.975719 -4.22512 17
448 2 4.96193 -18.0783 -0.00708408 10
449 2 -5.2416 -12.1473 -1.03495 15
450 2 10.9894 -2.12479 -2.72744 17
451 2 -5.48918 -12.8516 2.28436 16
452 2 4.15903 -5.5351 -11.0267 20
453 2 -6.61362 -9.25103 -13.532 13
454 2 8.92212 -5.14786 12.6185 13
455 2 -12.5732 -5.15395 14.4113 9
456 2 -2.88457 -2.97148 -0.30537 18
457 2 -13.0316 4.02031 -0.617932 18
458 2 -4.01711 0.683236 0.551508 20
459 2 -8.84777 9.6389 -8.93091 9
460 2 -3.60552 7.05447 14.6561 15
461 2 0.072184 -3.11655 1.22234 21
462 2 -16.0898 5.14036 4.25263 13
463 2 -12.2149 -1.66781 -0.947343 16
464 2 18.9829 -1.88649 4.62782 11
465 2 -11.0386 0.161971 -4.81147 14
466 2 14.2373 -5.77384 15.3174 6
467 2 -17.417 -4.07009 -4.27748 13
468 2 -7.4282 5.24005 10.3289 18
469 2 -7.11424 -0.0199041 17.4329 11
470 2 -4.09467 12.282 -3.94126 13
471 2 -13.0538 -11.277 4.46318 16
472 2 -2.3486 0.966201 -9.97302 17
473 2 2.74665 -17.2146 1.68393 10
474 2 5.67091 -14.9416 1.92195 16
475 2 12.0569 -10.9131 8.23395 15
476 2 8.3049 -5.98616 5.06173 18
477 2 -7.22337 -7.43485 -1.48429 15
478 2 -9.26473 0.543954 3.43407 18
479 2 -9.22677 -0.180229 15.9156 9
480 2 -11.629 -2.67362 14.273 10
481 2 14.9556 -11.0404 2.39573 10
482 2 -5.74972 -14.4835 -0.4756 13
483 2 -3.82261 -14.5393 -11.1787 13
484 2 -5.57448 -5.39811 -0.737415 15
485 2 -3.75017 -3.40178 11.5628 21
486 2 -15.815 3.91487 7.7101 12
487 2 -0.534303 -8.86334 2.3919 17
488 2 -10.201 5.78584 -3.37054 17
489 2 18.2091 -2.28543 -7.82119 12
490 2 -17.975 -2.2898 -7.57552 13
491 2 -19.2159 -0.433069 3.15383 9
492 2 2.98515 -2.13965 5.98463 15
493 2 -0.867671 11.0505 9.40753 19
494 2 -7.09373 -13.1464 5.49516 15
495 2 -3.42883 1.19512 -5.20602 19
496 2 12.9984 0.624692 6.09766 16
497 2 11.1029 -7.56408 12.9646 8
498 2 3.88143 2.0755 10.8426 18
499 2 -5.17049 5.08141 8.05363 17
500 2 -5.9861 14.303 13.5342 7
501 2 9.22338 -10.2016 12.434 11
502 2 -9.57006 -6.05658 8.60211 12
503 1 -10.7784 -5.17244 14.6304 9
504 1 -14.9591 -3.71194 -3.43295 17
505 1 -4.43598 6.05092 1.31252 16
506 1 -12.9485 -3.37083 6.33333 16
507 1 -19.0834 -7.08651 -1.32886 12
508 1 -9.54366 -9.34938 -4.63173 20
509 1 -4.97567 2.77572 -14.2646 19
510 1 -4.31927 16.9521 1.2608 10
511 1 -12.7486 -2.86104 10.0727 17
512 1 6.44673 -13.5661 3.09937 14
513 1 7.60335 12.6402 -1.27823 20
514 1 1.2496 7.85503 0.76843 19
515 1 -1.34837 6.4307 0.228123 15
516 1 -5.79692 2.66549 9.87097 19
517 1 -11.0565 -1.01618 -15.9521 8
518 1 -9.35023 -11.5602 6.38485 15
519 1 -3.65035 1.79099 -3.45151 20
520 1 -7.4922 11.1432 10.6256 16
521 1 -8.60985 2.22243 11.2502 18
522 1 -14.3194 7.22121 3.05064 10
523 1 13.2599 13.9911 -3.38974 15
524 1 8.07145 7.77925 -7.31234 22
525 1 -12.5135 13.2601 9.43171 7
526 1 -13.9013 -7.88997 -7.424 15
527 1 -1.52953 10.8514 11.381 19
528 1 -0.238387 -9.10972 -4.20045 16
529 1 1.3737 -7.88713 15.162 14
530 1 -6.34425 -2.98785 -17.1839 9
531 1 -5.45811 -2.15019 11.4678 17
532 1 -13.9524 0.42658 10.283 18
533 1 1.07226 15.0042 -6.97531 9
534 1 -15.7756 8.3256 7.18307 15
535 1 -4.66735 -3.49833 -1.11661 15
536 1 11.1492 -10.3367 5.68239 15
537 1 0.769166 -16.0371 -0.416691 15
538 1 -9.58543 1.27432 5.32295 22
539 1 -1.48947 6.95764 15.0215 15
540 1 -1.32783 -0.376735 -3.97702 17
541 1 -16.9753 -5.90968 -4.62785 15
542 1 8.13398 0.645281 -14.2998 13
543 1 -9.85895 -0.832834 -3.85667 17
544 1 -14.6492 -2.01673 12.1813 15
545 1 13.2662 11.4758 1.85612 11
546 1 -0.791159 16.4008 9.7627 9
547 1 -2.65368 3.56368 17.2104 6
548 1 14.7928 1.72131 4.81852 15
549 1 -3.07944 8.91925 14.0292 15
550 1 4.5713 -0.981926 -10.4646 16
551 1 -5.32638 17.197 -3.37259 7
552 1 1.53449 6.99925 -1.93494 21
553 1 18.6564 -1.84709 -0.835144 12
554 1 9.89788 -16.4572 -2.72508 10
555 1 -1.43222 -8.65305 -6.77753 19
556 1 -12.5712 3.28788 -2.62544 18
557 1 -7.25452 14.5655 -2.79272 10
558 1 -13.0466 -5.13001 0.986617 18
559 1 -0.396069 9.18236 -15.3693 7
560 1 3.04772 17.885 0.0819536 11
561 1 1.5749 4.77457 10.4715 16
562 1 -1.60271 19.6816 5.67018 4
563 1 12.0757 8.62234 8.2648 10
564 1 -4.29595 14.054 -4.21567 12
565 1 -11.0401 11.8113 11.861 11
566 1 -14.7607 3.02066 -0.93005 18
567 1 -9.14154 5.08522 -13.4044 10
568 1 1.41756 -7.44446 -6.40304 16
569 1 -10.2453 -0.911678 -12.9507 13
570 1 -1.02059 -0.870978 1.41128 21
571 1 14.2771 -5.46435 -1.9647 20
572 1 -2.74154 -3.73929 -3.91159 18
573 1 -9.43838 2.69909 -0.320685 17
574 1 2.40103 9.44559 -6.7519 20
575 1 4.1549 9.78272 1.39293 19
576 1 16.8547 1.72192 2.36605 11
577 1 11.5819 14.2949 7.56943 6
578 1 -0.213813 5.29674 6.39169 17
579 1 4.82917 5.39433 -13.3055 13
580 1 -3.89707 1.08551 -8.57651 14
581 1 13.2677 13.8677 2.84105 11
582 1 3.67221 13.1697 1.36491 17
583 1 -14.7611 1.74666 2.56392 19
584 1 -3.36499 5.50541 -12.7935 17
585 1 -8.98289 7.54421 10.8923 18
586 1 -5.56056 -6.04768 -2.7189 17
587 1 4.23849 -14.1902 -2.26464 16
588 1 16.7075 -8.0024 -4.45789 10
589 1 -7.8179 -6.57802 7.72131 17
590 1 -1.3335 12.0123 3.02794 17
591 1 -16.2526 -1.37217 -8.99578 14
592 1 4.51816 -2.45295 4.77463 20
593 1 2.10791 2.3605 5.2746 18
594 1 15.5995 -2.81436 5.50867 19
595 1 -9.09304 8.87436 8.47655 12
596 1 -8.06739 -0.845244 11.3453 17
597 1 3.59754 -0.0933875 -7.30453 20
598 1 4.67118 -9.3538 -9.97212 20
599 1 6.22436 -2.96918 -14.8732 15
600 1 1.12269 13.7027 10.5302 18
601 1 -17.633 3.69843 -4.0585 11
602 1 5.35823 2.6849 -2.52478 16
603 1 -3.50731 -11.0047 -11.9625 18
604 1 -15.882 0.00429359 -6.42392 17
605 1 -5.38255 10.34 -2.75266 17
606 1 1.4544 -2.95046 6.263 19
607 1 6.30433 -5.53865 0.335625 19
608 1 -8.1323 -2.14004 16.7225 12
609 2 6.45208 8.5131 -7.00058 21
610 2 -13.029 8.70361 2.48098 12
611 2 -16.8123 -3.04916 1.34553 10
612 2 -17.03 -1.05795 8.04362 11
613 2 -7.63869 -0.818013 -10.9962 16
614 2 -14.679 1.39556 11.9911 13
615 2 -20.253 -6.15434 5.39033 7
616 2 11.9005 -11.773 4.73391 11
617 2 5.22909 -7.32335 0.369417 19
618 2 0.0287171 13.242 -6.88148 14
619 2 12.5813 12.3689 3.6351 11
620 2 -1.55352 11.6743 -8.04388 11
621 2 -12.0402 2.22076 8.01994 19
622 2 6.1896 4.1408 -0.619413 15
623 2 8.47326 -1.01058 -12.4099 14
624 2 10.7768 1.16786 -11.6563 12
625 2 -20.0001 -2.57902 4.74532 9
626 2 -2.58516 2.11765 -0.237746 18
627 2 11.5549 -8.79547 4.99562 19
628 2 18.3724 8.87102 -1.33703 5
629 2 3.63128 -8.96251 -11.3568 17
630 2 5.52032 -2.56101 -13.2473 16
631 2 12.6048 8.10979 -8.902 8
632 2 -8.89644 12.188 -7.049 6
633 2 -15.3016 -13.0804 0.904987 6
634 2 -4.03863 -1.07018 -7.66526 15
635 2 12.0705 2.74234 7.8779 17
636 2 -10.1685 -6.04041 -4.56257 19
637 2 8.09924 -5.61662 8.32585 14
638 2 11.421 -3.89732 -10.7191 17
639 2 -7.00357 7.61969 -9.73408 14
640 2 9.80635 17.0732 2.94032 12
641 2 3.57952 -7.51144 -2.63425 20
642 2 12.1976 2.91856 -5.65108 17
643 2 0.145116 10.2036 15.5142 14
644 2 -3.35298 -0.626691 -2.8869 22
645 2 6.73993 -6.63457 -9.65778 18
646 2 -16.7018 -1.34382 4.49787 14
647 2 -15.1497 -9.31952 -6.76818 11
648 2 -7.31155 -8.42922 7.44538 19
649 2 5.0054 7.16653 -13.0514 14
650 2 -5.4969 8.47239 -2.23246 15
651 2 -4.90265 -12.2045 -12.2045 13
652 2 10.7283 2.80321 3.89272 17
653 2 1.63496 -9.45004 -3.64667 17
654 2 15.4241 14.9354 -3.23585 8
655 2 -13.7511 1.96205 -3.35124 13
656 2 2.18614 17.3977 -1.42407 12
657 2 -5.732 7.14841 0.411202 13
658 2 -7.99215 6.55216 -14.0546 14
659 2 -0.360712 9.61156 -1.90957 19
660 2 -12.7066 -5.27901 5.46593 14
661 2 -3.58994 -10.2223 2.73395 17
662 2 -14.529 0.421593 -4.94438 13
663 2 -4.0981 6.88761 -7.65164 14
664 2 -12.2704 6.49737 -6.23222 18
665 2 -6.4383 14.3923 -1.04757 13
666 2 -10.368 14.1687 4.7517 8
667 2 0.0578075 16.0184 3.08696 14
668 2 13.5464 5.57612 -0.967291 20
669 2 0.161968 -12.8378 -7.19217 20
670 2 7.20586 -10.0836 -7.97566 19
671 2 -14.2723 9.54676 -3.62904 11
672 2 -11.7054 -4.27062 8.23439 18
673 2 -0.506304 12.2881 12.1818 15
674 2 14.3684 -2.72755 11.0599 15
675 2 -12.1947 -1.05768 10.5356 16
676 2 1.71752 7.628 -3.69725 21
677 2 -14.4948 -0.451832 -0.873929 15
678 2 -13.3056 2.80085 2.81837 20
679 2 14.7916 -7.22687 -0.153226 16
680 2 -10.0186 6.06685 -6.77924 16
681 2 -13.6108 6.77165 -3.64359 18
682 2 -3.07465 -7.75509 4.60894 15
683 2 -12.9097 -3.32505 0.98451 19
684 2 0.769609 6.49508 -7.0521 17
685 2 -7.06418 8.73677 3.32149 20
686 2 -17.6746 -4.64706 -1.54588 12
687 2 -1.0983 8.51296 6.67688 20
688 2 10.4937 10.5731 -8.24992 15
689 2 7.72578 8.4762 -1.13674 17
690 2 2.21165 12.0581 13.9255 12
691 2 -2.63613 -3.95169 2.64117 18
692 2 12.2742 -6.29468 -12.0109 13
693 2 10.51 16.0208 6.46623 10
694 2 7.56606 10.5194 -10.2265 17
695 2 3.11362 11.9172 -1.98418 21
696 2 14.607 -2.86767 -11.9963 9
697 2 7.23426 13.7438 0.647648 19
698 2 -10.034 11.2552 -4.49764 12
699 2 -11.4792 -1.44693 -7.93191 17
700 2 6.58368 1.76312 -16.0617 13
701 2 1.90684 -14.326 -11.5668 15
702 2 -3.34577 2.90757 -8.26448 16
703 2 8.10942 -1.40412 1.64194 14
704 2 -0.715183 -0.806695 -0.904941 18
705 2 12.7749 9.59129 2.90298 15
706 2 12.8072 -2.82158 1.50477 17
707 2 -0.829631 5.22914 13.8477 18
708 2 -6.01453 6.21996 13.6167 17
709 2 4.3049 1.12071 -13.4388 15
710 2 -4.25231 3.47946 -2.66844 16
711 2 13.9256 17.2143 -4.52135 8
712 2 9.70009 1.24401 -3.74952 16
713 2 -3.28585 -13.9111 9.83854 8
714 2 0.463637 11.4736 7.1858 18
715 2 5.50749 8.55211 -9.64353 20
716 2 7.65552 -8.75668 -0.228417 19
717 2 -11.9998 -5.87984 2.84135 19
718 2 -3.89892 -17.2146 1.05911 8
719 2 9.45582 13.0573 2.6783 18
720 2 13.4799 -0.789723 13.3515 14
721 2 -4.47703 -9.07218 -1.45048 16
722 2 -11.0385 6.52636 -0.55325 17
723 2 -2.53918 17.2209 1.49717 13
724 2 7.96994 15.4736 4.52743 13
725 2 12.3072 11.2031 0.0451215 19
726 2 6.23589 8.60408 9.54848 14
727 2 12.1301 -3.37525 12.667 17
728 1 -4.80832 -7.6802 -12.2414 16
729 1 -17.1483 -1.50142 11.22 12
730 1 -15.7024 0.385922 7.36271 17
731 1 -8.40667 10.1233 -4.85099 15
732 1 -11.8658 5.23406 0.511242 17
733 1 -8.77055 11.7751 -2.81592 14
734 1 -13.1572 8.33424 -2.66774 18
735 1 6.72352 -4.69885 5.72032 18
736 1 2.03949 7.88038 6.97469 20
737 1 -11.5941 -3.93719 -11.3727 9
738 1 -7.58655 -1.46201 6.64809 18
739 1 -19.2434 6.09909 9.05931 6
740 1 -15.3078 -10.5759 1.16521 13
741 1 -8.65815 4.45621 9.23126 21
742 1 -9.47715 -3.3376 -13.8103 17
743 1 0.991217 -13.392 3.28025 10
744 1 3.00259 10.4804 -10.2262 15
745 1 -3.61206 -9.75458 -9.63366 14
746 1 -2.95707 -4.11396 16.5614 15
747 1 -11.2153 11.3404 -1.40026 14
748 1 -3.9013 8.26705 -3.88724 14
749 1 -10.5713 -2.58205 -1.71253 17
750 1 -0.109373 8.00697 5.03653 16
751 1 -9.15424 7.55967 -2.9834 17
752 1 -7.22403 -9.44631 5.75033 18
753 1 -12.2646 -10.4475 9.69258 10
754 1 4.0659 5.09059 -4.36167 17
755 1 7.55571 14.5245 -10.4535 10
756 1 -2.96891 11.7024 -2.12234 16
757 1 -19.3358 -0.823665 -7.58271 10
758 1 -9.72486 -0.997578 8.78702 17
759 1 2.32319 16.0245 2.85836 13
760 1 1.17859 5.12328 1.02908 18
761 1 4.76484 9.95691 5.48593 18
762 1 2.16382 -1.63677 16.9076 10
763 1 -12.9424 0.333461 4.00226 19
764 1 1.26453 4.44005 14.0451 15
765 1 -2.83253 3.69881 11.2464 16
766 1 -8.47506 -3.70277 -7.52491 17
767 1 -6.2229 9.44129 8.82864 16
768 1 6.32871 12.1407 -9.19487 19
769 1 9.17051 14.637 -0.437558 17
770 1 -16.5412 8.58636 10.7408 15
771 1 12.0429 15.7876 -0.655469 13
772 1 -15.5813 8.70285 13.5141 8
773 1 -2.36751 14.9628 2.05682 16
774 1 -4.5958 14.9884 12.5999 8
775 1 -11.3994 -11.0008 -1.27746 15
776 1 -9.04797 5.24571 -8.36097 15
777 1 -1.56928 -1.20475 7.04045 13
778 1 -11.3633 6.13543 8.21535 17
779 1 -13.0668 1.99416 13.0492 11
780 1 -2.16546 3.43077 1.33023 17
781 1 2.89081 13.7849 -1.57755 17
782 1 10.2666 2.19003 2.19228 17
783 1 10.6403 -1.94731 8.4364 19
784 1 0.374578 1.74627 2.20763 19
785 1 -14.7537 -6.40883 -2.36242 16
786 1 1.82825 13.9523 7.08359 17
787 1 -7.6634 1.93345 3.17081 17
788 1 -16.1709 0.306311 -0.631579 14
789 1 -5.40395 -5.37116 8.85647 19
790 1 12.0402 4.14131 15.4739 7
791 1 -16.0854 -9.08909 -5.3327 14
792 1 -2.8782 13.3494 5.72475 11
793 1 -6.82844 -9.56309 -9.22828 17
794 1 0.838387 -5.48365 5.30947 19
795 1 3.57324 -0.146798 5.81116 15
796 1 -0.809893 12.5472 8.43529 16
797 1 -1.73907 1.75349 5.13327 17
798 1 -1.08658 3.22832 8.1448 15
799 1 3.88597 16.295 -2.01101 14
800 1 -2.99537 1.12015 10.8499 17
801 1 -14.1563 6.05623 -5.27964 19
802 1 0.73066 -3.22516 3.02718 17
803 1 -10.141 -6.6293 2.18236 17
804 1 -0.520352 17.4362 1.58922 14
805 1 0.200479 16.8526 7.26438 11
806 1 -3.05368 11.2272 -9.39142 10
807 1 3.18392 12.9333 -8.8164 15
808 1 13.1835 8.03316 2.20444 15
809 1 13.5977 18.5189 -5.89552 6
810 1 -8.55866 2.13906 -14.2149 11
811 1 2.22836 -1.50634 -16.7241 19
812 1 -13.4694 8.87404 0.479821 13
813 1 10.2608 -5.16244 8.37805 18
814 1 -6.75926 7.92957 -0.719968 10
815 1 -3.20321 9.08666 6.42878 17
816 1 -5.31948 -4.48327 -8.65276 18
817 1 -2.86732 -0.830843 15.8778 15
818 1 -3.72862 5.75208 -6.09364 20
819 1 -10.2043 -0.0683513 2.07177 19
820 1 9.53434 17.6327 1.0039 13
821 1 12.4568 -14.8975 -1.93348 10
822 1 13.3558 -4.83402 1.1617 18
823 1 -4.16433 9.68098 -0.556779 18
824 1 10.0044 14.4396 -8.15953 15
825 1 15.0558 6.3284 0.284905 15
826 1 12.2974 -2.84781 -9.50923 14
827 1 -8.6643 4.58874 -3.24331 13
828 1 -7.63932 -6.85067 13.6122 13
829 1 14.0859 16.5877 -2.64301 9
830 1 -6.04307 16.3697 4.4168 8
831 1 -6.65842 -2.50581 -11.0799 18
832 1 -1.69252 -4.76245 0.846568 18
833 1 -13.7376 11.4237 5.75031 10
834 1 -6.65549 2.50829 -1.95568 17
835 1 -5.10451 -6.81677 10.7158 17
836 1 3.63684 12.5111 9.23062 18
837 1 1.50922 15.6089 13.1177 11
838 1 -10.3226 -8.39893 4.63167 17
839 1 -7.41515 3.25384 6.13709 20
840 1 -16.83 -13.3977 0.147545 6
841 1 -11.4389 9.87975 2.97334 15
842 1 -3.47864 10.7803 -5.78869 13
843 2 -12.6138 -7.48157 -5.77234 22
844 2 -5.55639 -0.552494 7.14158 17
845 2 -12.4703 9.32967 -6.11361 12
846 2 2.85741 5.51058 -5.74318 17
847 2 1.19571 6.497 5.71714 16
848 2 -9.66679 -0.823417 -1.82309 13
849 2 -9.66124 7.35657 5.31158 20
850 2 2.42722 6.23 2.81805 21
851 2 -7.73858 -3.90202 -5.24132 20
852 2 -9.33905 -2.0293 2.13585 15
853 2 -2.9426 -4.83421 -15.3587 12
854 2 -8.37761 -3.06858 8.17549 17
855 2 -0.536048 7.7114 16.8138 11
856 2 -4.64441 0.174467 11.1897 18
857 2 -18.96 -1.85887 10.4848 6
858 2 -2.83534 5.19138 -10.796 14
859 2 -13.3172 11.2109 7.94408 12
860 2 -12.5675 -8.13066 4.92322 16
861 2 -12.3317 4.56316 12.7363 9
862 2 9.72522 8.42925 -6.1961 17
863 2 12.2004 -13.5501 -7.24082 13
864 2 -5.15312 -3.53716 9.39032 19
865 2 -16.1305 1.64245 5.94761 14
866 2 -17.1254 -10.5212 -4.40395 9
867 2 0.11592 -2.54782 -8.08583 19
868 2 9.26909 -4.45114 0.627101 16
869 2 -8.39367 3.4049 4.14279 19