ITEM: TIMESTEP
144000
ITEM: NUMBER OF ATOMS
2000
ITEM: BOX BOUNDS pp pp pp
-30.0 30.0
-30.0 30.0
-30.0 30.0
ITEM: ATOMS id type x y z Coordination
1 2 -16.5264 -1.15687 -4.41493 16
2 1 -0.026192 -17.3527 -4.8686 14
3 2 -4.10046 -16.1492 -4.77021 14
4 1 -3.17367 -17.5008 -0.0623986 11
5 2 -4.36545 -16.6787 1.05822 12
6 1 1.59247 -14.5364 -10.3088 13
7 1 0.441507 -16.2821 -7.70201 14
8 2 -0.0178974 -16.4675 -3.12777 17
9 2 4.81275 -16.42 -5.73731 16
10 1 0.243789 -17.4798 0.404437 14
11 1 1.26489 -18.0312 3.74664 8
12 1 4.77714 -16.3855 -2.20906 16
13 2 0.00573752 -17.4808 2.2818 13
14 2 4.80215 -16.3649 -0.185218 14
15 2 -5.08659 -4.93299 -15.8212 13
16 2 -8.44091 -4.77745 -15.929 11
17 2 -1.92474 -4.14016 -15.2503 17
18 2 -3.92998 -1.77388 -15.5186 17
19 2 -2.23754 1.37737 -16.1257 16
20 2 -8.78291 3.68654 -12.1353 14
21 2 -0.40345 1.41962 -18.341 10
22 2 -3.50487 4.13325 -15.6657 13
23 2 -1.08623 6.67281 -15.5275 14
24 2 0.0291703 -10.9695 -12.0115 15
25 2 1.42966 -8.554 -13.4706 15
26 2 1.50838 -4.87478 -16.3561 11
27 2 2.95022 -1.84474 -15.8002 14
28 2 6.08951 -1.48306 -16.0047 10
29 2 -4.99355 -8.7467 -12.9949 14
30 2 -0.452624 -1.99687 -16.434 17
31 2 0.269424 3.72474 -15.4123 19
32 2 2.44353 6.64431 -15.7636 13
33 2 1.96897 3.35579 -18.2152 8
34 2 2.00485 0.925625 -16.6452 15
35 2 7.34591 2.06804 -15.822 14
36 1 -15.2859 -8.59006 -4.2757 11
37 1 -14.6406 -7.99597 -7.76885 11
38 1 -13.2924 -1.97781 -12.9116 10
39 1 -15.3849 -5.07703 -7.88922 12
40 1 -15.7791 -2.44494 -10.1783 10
41 1 -16.5031 0.463731 -5.05684 12
42 1 -15.2222 -2.37157 -5.02134 17
43 1 -15.5595 -5.05257 -2.21647 14
44 1 -16.6674 -2.09852 -2.65976 13
45 1 -15.7283 -10.1769 -1.1761 7
46 1 -11.6208 -4.72624 -12.4116 14
47 1 -10.5727 -11.6668 -10.6763 11
48 1 -13.4598 -11.3313 -5.4327 10
49 1 -14.2213 -5.52611 -10.1246 14
50 1 -13.736 -5.09767 -4.92334 19
51 1 -12.009 -8.0542 -4.75849 21
52 1 -11.4989 -10.716 -2.15791 17
53 1 -13.4194 -7.64031 -2.20227 19
54 1 -9.01597 -6.22688 -14.9592 10
55 1 -13.6954 0.151507 -10.3726 19
56 1 -11.806 -3.0065 -9.78017 22
57 1 -11.9019 -5.24523 -7.26303 21
58 1 -14.2614 -2.12962 -7.44648 20
59 1 -13.3149 0.0747673 -4.90159 22
60 1 -11.7086 -2.90458 -4.76824 22
61 1 -11.4469 -4.97228 -2.18025 21
62 1 -13.2892 -2.18649 -2.5206 21
63 1 -7.0225 -11.4993 -10.3447 14
64 1 -10.1709 -12.0257 -4.34056 19
65 1 -10.9961 -12.7598 -7.04003 11
66 1 -8.48885 -14.0677 -4.70683 14
67 1 -12.2774 -8.37567 -10.2146 13
68 1 -10.5812 -5.99554 -9.96168 18
69 1 -8.81042 -8.88721 -10.4961 20
70 1 -8.62559 -11.2537 -7.87293 17
71 1 -10.4535 -8.67044 -7.50501 19
72 1 -9.95741 -5.92287 -4.71659 22
73 1 -8.52113 -9.49262 -5.13975 20
74 1 -8.28549 -10.8447 -1.9936 22
75 1 -10.1073 -7.94869 -2.1341 22
76 1 -5.31013 -3.00709 -15.6204 16
77 1 -8.52494 -4.3682 -12.5023 22
78 1 -10.1402 -1.72857 -12.5035 19
79 1 -10.2238 0.250661 -9.96142 22
80 1 -8.67123 -3.10268 -10.0945 23
81 1 -8.79032 -5.03358 -7.62432 21
82 1 -10.1 -2.36374 -7.16613 21
83 1 -9.80308 -0.228524 -5.14296 21
84 1 -8.31465 -3.31181 -4.87943 22
85 1 -8.37317 -4.8937 -2.00875 24
86 1 -10.1419 -1.73092 -2.30005 21
87 1 -4.4937 -15.614 -9.38505 10
88 1 -13.166 -10.8992 -8.69552 10
89 1 -6.55101 -12.0711 -4.97239 21
90 1 -4.80756 -14.4732 -5.93306 19
91 1 -4.94071 -16.4575 -3.10461 12
92 1 -6.48696 -13.4757 -2.17359 20
93 1 -6.89781 -5.69357 -16.408 11
94 1 -1.48452 -14.1065 -11.0832 11
95 1 -6.61586 -7.71649 -13.1194 15
96 1 -6.85294 -5.97643 -10.3972 21
97 1 -5.44061 -8.61779 -10.4201 23
98 1 -5.32476 -11.0018 -7.80111 22
99 1 -7.3193 -7.93787 -7.762 21
100 1 -7.01576 -6.06824 -4.91395 21
101 1 -5.25838 -8.78129 -4.91849 24
102 1 -4.75678 -10.5371 -2.38175 21
103 1 -6.86488 -7.99428 -2.3557 23
104 1 -8.6619 -2.89732 -15.4356 13
105 1 -6.82456 -0.0945244 -15.5858 13
106 1 -5.25763 -4.90388 -13.062 20
107 1 -6.91016 -1.76988 -12.9395 22
108 1 -6.88751 -0.193059 -10.2184 22
109 1 -5.14028 -3.27275 -10.798 21
110 1 -5.35272 -4.91094 -7.58878 22
111 1 -6.70536 -2.12371 -7.61207 21
112 1 -6.51139 -0.00556341 -5.09768 22
113 1 -4.88461 -3.22428 -4.76619 24
114 1 -5.26954 -4.75947 -2.0945 23
115 1 -6.59192 -1.81177 -2.34638 24
116 1 -4.03996 -11.9498 -10.2065 16
117 1 0.0308501 -13.3117 -7.22771 21
118 1 -7.09574 -14.3563 -7.5044 12
119 1 -3.36149 -13.3142 -8.12488 19
120 1 -3.28833 -11.6206 -5.14748 22
121 1 -1.49872 -14.5953 -5.01881 20
122 1 -1.70878 -16.3521 -2.04781 17
123 1 -3.48079 -13.4786 -2.35287 23
124 1 -3.26359 -5.64231 -15.7615 12
125 1 -1.5998 -10.6704 -12.9841 14
126 1 3.97995 -13.0757 -12.4032 10
127 1 -3.33973 -7.63884 -12.9683 19
128 1 -3.41804 -5.52519 -10.2762 23
129 1 -1.8413 -8.45273 -10.0807 21
130 1 -1.96838 -10.186 -7.67846 21
131 1 -3.83459 -7.66104 -7.61529 23
132 1 -3.51617 -6.09412 -5.01131 23
133 1 -1.80951 -8.6301 -4.7796 24
134 1 -1.54745 -10.6057 -2.24512 24
135 1 -3.29128 -7.65345 -2.37878 24
136 1 -3.57163 0.0978122 -15.487 19
137 1 -0.036136 -5.31352 -15.3349 14
138 1 -1.69163 -4.09751 -13.1394 21
139 1 -3.63319 -1.75061 -13.4368 23
140 1 -3.26228 -0.337805 -10.2311 22
141 1 -1.77586 -2.93253 -10.5965 20
142 1 -2.08429 -5.00418 -7.69738 23
143 1 -3.65846 -2.35363 -7.8313 22
144 1 -3.57248 -0.271566 -5.07511 22
145 1 -1.80551 -3.06838 -5.02063 23
146 1 -2.10048 -4.41267 -2.3431 22
147 1 -3.66085 -1.80876 -2.31052 21
148 2 -16.7012 -3.58237 -1.37473 11
149 2 -13.6125 -9.50317 -4.86491 13
150 2 -9.74143 -13.2945 -5.70406 14
151 2 -15.6319 -3.60738 -6.5387 11
152 2 -14.8373 -1.90186 -11.608 9
153 2 -15.42 -4.16676 -9.5769 11
154 2 -16.5504 -3.41436 1.71913 12
155 2 -16.0716 -0.569557 -1.83663 16
156 2 -14.0136 0.436114 -6.89813 19
157 2 -14.9701 -3.45657 -3.47117 17
158 2 -15.3802 -9.69448 0.815201 10
159 2 -15.115 -8.93377 -2.39078 11
160 2 -11.7665 -8.81954 -2.74978 20
161 2 -15.2884 -6.94946 -9.22969 8
162 2 -14.1621 -5.98027 -6.75452 16
163 2 -11.0714 -10.665 -0.0143703 14
164 2 -15.8457 -6.16903 -0.867275 14
165 2 -14.1874 -6.85904 -3.92708 14
166 2 -13.3284 -7.07595 -0.515918 18
167 2 -12.1472 -5.14848 -10.6653 14
168 2 -11.8411 -2.97647 -12.4619 13
169 2 -8.92222 -2.55546 -13.5185 20
170 2 -11.8684 -5.36769 -5.17832 17
171 2 -13.1825 -1.93559 -5.65014 21
172 2 -15.0173 2.26181 -8.54245 17
173 2 -11.1739 -3.78167 -8.00721 19
174 2 -11.205 -5.0015 0.0996402 19
175 2 -13.5217 -1.833 -0.259625 22
176 2 -12.8719 -0.291602 -2.95104 20
177 2 -11.7644 -3.14987 -2.88458 20
178 2 -10.2855 -11.9215 -8.56286 14
179 2 -12.6766 -11.9469 -7.23902 11
180 2 -8.13427 -14.6334 -2.90381 15
181 2 -9.63957 -12.0651 -2.4151 17
182 2 -12.0039 -11.9627 -3.92009 10
183 2 -12.1424 -10.5983 -10.3346 10
184 2 -7.03286 -8.05079 -11.2278 19
185 2 -10.0977 -5.25914 -13.3704 14
186 2 -10.339 -7.93543 -10.4396 16
187 2 -8.16739 -11.1858 -6.04487 21
188 2 -10.1639 -8.23158 -5.30594 19
189 2 -10.5063 -6.37536 -8.04033 20
190 2 -8.69553 -9.32601 -8.33522 20
191 2 -8.13953 -10.365 -0.127281 22
192 2 -10.1411 -7.8266 -0.130948 24
193 2 -9.85409 -5.96589 -2.70475 21
194 2 -8.31806 -9.14761 -2.69771 21
195 2 -8.79589 -5.17757 -10.5384 21
196 2 -10.2512 -1.64006 -10.2938 22
197 2 -11.2711 2.39176 -11.5898 15
198 2 -6.94645 -1.99676 -15.5151 14
199 2 -8.51662 -5.04372 -5.50403 23
200 2 -10.0222 -2.36908 -5.11629 19
201 2 -10.2827 -0.267807 -7.93814 20
202 2 -8.54621 -2.85982 -8.07729 20
203 2 -8.11249 -4.72296 -0.18105 23
204 2 -9.67796 -2.07617 -0.592091 23
205 2 -9.78293 0.105875 -3.21539 23
206 2 -8.16505 -2.69666 -3.02508 23
207 2 -3.69011 -16.6914 -7.93449 9
208 2 -6.70759 -13.9854 -5.52925 16
209 2 -7.0394 -12.4323 -8.12027 18
210 2 -5.04446 -14.5474 -7.88501 14
211 2 -3.4765 -16.8904 -1.97803 12
212 2 -6.53727 -13.5647 -0.354756 20
213 2 -6.45326 -11.5988 -3.01054 25
214 2 -5.12272 -14.6039 -2.76298 17
215 2 -8.73796 -10.7985 -10.9132 12
216 2 -13.1824 -8.85245 -8.4969 14
217 2 -7.38913 -7.27032 -14.8158 12
218 2 -7.16114 -5.66541 -13.0754 20
219 2 -4.97894 -11.0223 -5.77252 20
220 2 -6.96594 -7.85487 -5.70487 22
221 2 -7.09858 -5.91096 -8.47089 23
222 2 -4.9457 -8.85113 -8.57662 21
223 2 -5.05551 -10.4594 -0.424403 24
224 2 -6.79206 -7.71759 0.110162 21
225 2 -6.79653 -5.9034 -2.99694 24
226 2 -5.14727 -8.84352 -3.04366 22
227 2 -5.29085 -5.03967 -11.1935 21
228 2 -7.27783 -1.96599 -11.1825 23
229 2 -6.92484 0.260956 -13.354 20
230 2 -5.34341 -2.70024 -13.4424 23
231 2 -5.25616 -4.94272 -5.60971 24
232 2 -6.70941 -1.77078 -5.57005 23
233 2 -7.01102 -0.343934 -8.22957 22
234 2 -5.54506 -3.31054 -8.70663 21
235 2 -4.80492 -4.98499 -0.0824299 22
236 2 -6.37353 -2.55797 -0.273582 21
237 2 -6.25089 0.274204 -2.92044 22
238 2 -5.10923 -2.85372 -2.76182 23
239 2 0.0422051 -13.6602 -10.6212 11
240 2 -3.35025 -13.9971 -10.3963 11
241 2 -1.00087 -16.6753 -6.42784 13
242 2 -2.80947 -14.3837 -6.54696 16
243 2 -5.38766 -10.7374 -10.7162 15
244 2 -3.30527 -11.4517 -8.47125 19
245 2 -1.50322 -16.4108 0.106541 16
246 2 -3.41796 -13.3207 0.178716 21
247 2 -3.06352 -11.7897 -3.15641 23
248 2 -1.91809 -14.3313 -3.06403 21
249 2 -1.81516 -8.78867 -13.2943 14
250 2 -3.13048 -7.43982 -10.7036 19
251 2 -3.68448 -6.11161 -14.0497 20
252 2 3.16725 -13.838 -10.7885 15
253 2 -1.7347 -10.4936 -5.64822 20
254 2 -3.53905 -7.96641 -5.63957 21
255 2 -3.81069 -5.66792 -8.35891 23
256 2 -1.9298 -8.30877 -8.22003 20
257 2 -1.80952 -10.5729 -0.203002 24
258 2 -3.09534 -7.76251 -0.37849 22
259 2 -3.61325 -5.86597 -3.14689 25
260 2 -1.54285 -8.54666 -2.7491 21
261 2 -1.96064 -4.62696 -11.4774 25
262 2 -3.50981 -2.12956 -10.4323 21
263 2 -3.38034 0.394996 -13.3762 19
264 2 -1.77086 -2.06977 -12.8862 20
265 2 -2.4259 -4.98193 -5.77455 24
266 2 -3.59863 -2.0244 -5.43369 22
267 2 -3.33835 0.0281461 -8.2557 21
268 2 -1.81618 -2.83166 -8.51678 23
269 2 -1.55656 -4.87731 -0.632855 25
270 2 -3.34855 -2.05726 -0.165601 24
271 2 -3.32174 -0.075209 -3.01294 24
272 2 -1.76732 -2.57722 -3.0259 24
273 1 -16.8634 -4.6755 0.040289 9
274 1 -15.2021 -7.60474 0.44335 15
275 1 -16.2729 -8.23529 3.04291 7
276 1 -15.9741 0.494431 -0.341464 14
277 1 -15.3773 -2.23316 0.00597784 20
278 1 -15.0365 -4.66803 2.65949 16
279 1 -16.7428 -1.78997 3.08153 11
280 1 -16.6127 1.42988 5.55749 13
281 1 -14.561 -2.82802 5.45553 18
282 1 -14.672 -4.58066 7.89249 11
283 1 -14.7534 -10.6962 2.47264 10
284 1 -12.6844 -5.86979 0.960353 18
285 1 -11.3013 -9.06604 0.72588 19
286 1 -12.0074 -11.5708 3.2574 15
287 1 -12.8232 -8.57704 4.01503 16
288 1 -13.2874 -5.59223 4.74352 18
289 1 -12.764 -7.43464 7.35616 14
290 1 -10.7268 -9.95539 6.21025 14
291 1 -9.59184 -7.49179 8.72776 18
292 1 -12.8666 -3.9531 10.9458 13
293 1 -9.63556 -7.82758 14.4946 8
294 1 -13.0467 -0.0131173 0.22875 22
295 1 -11.3939 -3.18687 0.408332 21
296 1 -11.2931 -4.68942 3.37123 23
297 1 -13.0661 -1.87365 3.06052 22
298 1 -13.3329 -0.228856 5.2207 21
299 1 -11.2658 -3.12729 6.00012 24
300 1 -11.6126 -5.15156 8.9697 19
301 1 -13.2872 -2.02069 8.18915 20
302 1 -16.6101 -1.18674 6.65195 12
303 1 -12.0959 -0.641326 10.8864 18
304 1 -9.56601 -11.6702 0.562809 19
305 1 -9.30302 -13.911 -1.61714 13
306 1 -7.6424 -14.6192 0.854616 15
307 1 -13.3944 -14.2733 2.83134 5
308 1 -10.0421 -14.207 2.07018 11
309 1 -9.49932 -5.88505 0.599653 23
310 1 -8.23586 -8.50843 0.723649 24
311 1 -9.02838 -10.7416 3.71138 19
312 1 -9.93477 -7.6267 3.31061 22
313 1 -9.85426 -5.85043 6.12983 24
314 1 -8.2019 -8.71425 5.88062 19
315 1 -8.33264 -10.777 9.04115 17
316 1 -8.10665 -8.78598 11.819 17
317 1 -9.80963 -5.9889 11.3294 18
318 1 -6.48089 -7.28045 13.6814 13
319 1 -9.46807 0.1066 0.509128 23
320 1 -7.99218 -3.00427 0.479032 25
321 1 -8.17331 -4.82706 3.32362 24
322 1 -9.69155 -1.82781 3.0683 25
323 1 -9.64605 -0.0169894 5.67708 23
324 1 -7.9348 -3.02238 6.11492 24
325 1 -8.14113 -4.66875 8.90575 23
326 1 -9.96859 -2.08636 8.36711 21
327 1 -9.7246 0.14161 10.3946 20
328 1 -7.80555 -2.70039 11.0211 20
329 1 -8.51579 -4.51747 13.6771 15
330 1 -13.0544 -1.99376 13.6399 10
331 1 -6.43464 -11.5569 0.376933 22
332 1 -5.02436 -14.8622 0.597833 19
333 1 -4.39681 -16.3174 3.09073 11
334 1 -6.84535 -13.5898 3.48836 18
335 1 -6.87507 -11.374 6.29183 20
336 1 -4.98782 -14.0355 6.03677 17
337 1 -5.99033 -13.6497 9.2967 12
338 1 -6.65363 -11.2613 11.8301 13
339 1 -6.53603 -5.68274 0.646667 23
340 1 -4.86789 -8.68455 0.299321 24
341 1 -5.15279 -10.481 3.122 24
342 1 -6.84748 -7.69738 3.36125 22
343 1 -6.55451 -6.0019 6.27368 24
344 1 -4.74292 -8.70273 6.02771 22
345 1 -5.01022 -10.9342 9.05034 24
346 1 -6.26057 -7.72168 9.14815 22
347 1 -6.62906 -5.41305 11.4267 22
348 1 -4.71965 -8.57193 11.9806 20
349 1 -4.22909 -13.4208 11.7054 13
350 1 -11.4711 -4.76499 13.5041 12
351 1 -6.25223 -0.348435 0.376983 23
352 1 -4.78318 -3.03786 0.503261 24
353 1 -4.88453 -4.85118 2.94022 24
354 1 -6.62741 -2.13024 3.12567 23
355 1 -6.53927 -0.0913904 5.67103 24
356 1 -4.77642 -2.63966 5.96584 23
357 1 -4.90868 -4.70645 7.92127 21
358 1 -6.33297 -1.62098 8.51518 22
359 1 -6.52648 0.252611 11.5862 24
360 1 -4.38187 -2.70746 11.0444 21
361 1 -4.71883 -4.4092 13.2783 17
362 1 -6.4635 -1.57376 14.2239 18
363 1 -3.48849 -11.3292 0.607105 25
364 1 -1.85234 -14.3591 0.294615 22
365 1 -1.00991 -15.9362 2.90967 17
366 1 -3.35294 -13.2676 2.98263 22
367 1 -3.61239 -11.2255 6.29883 25
368 1 -1.74143 -14.3703 5.53134 18
369 1 -3.01578 -14.0494 8.42093 16
370 1 -2.8776 -11.006 11.9501 18
371 1 -1.42774 -14.769 10.6596 12
372 1 -3.12891 -5.6723 0.164043 21
373 1 -1.37754 -8.65289 0.349671 23
374 1 -1.47466 -10.6318 3.21474 22
375 1 -3.32795 -7.78376 3.11546 23
376 1 -3.30421 -5.87727 5.83784 21
377 1 -1.64281 -8.91675 5.56215 24
378 1 -1.64799 -10.7167 8.6394 23
379 1 -3.41586 -7.80798 8.48027 21
380 1 -3.26834 -5.48901 10.9306 20
381 1 -1.89359 -8.40905 11.2482 22
382 1 -1.29553 -13.3735 13.7477 14
383 1 -2.75801 -7.33518 14.0209 16
384 1 -3.087 -0.0140763 0.429314 23
385 1 -1.49751 -3.09675 0.520047 23
386 1 -1.47282 -4.83102 2.96096 24
387 1 -3.17152 -1.84577 2.81398 20
388 1 -3.23981 0.117501 5.56426 22
389 1 -1.35704 -3.15191 5.39627 20
390 1 -1.48418 -4.92403 8.42431 22
391 1 -2.92792 -1.92838 8.60122 23
392 1 -3.15931 -0.0921709 11.2943 23
393 1 -1.2651 -2.88519 11.3024 23
394 1 -1.49673 -4.45113 13.9127 21
395 1 -2.93464 -1.4144 13.8301 19
396 2 -15.8371 -6.51407 1.84846 12
397 2 -14.5782 -9.17265 3.48993 11
398 2 -14.4905 -4.64286 5.87772 15
399 2 -17.1407 -1.62112 4.98888 10
400 2 -16.0386 -0.342753 1.2448 16
401 2 -14.9295 -2.68186 3.52903 19
402 2 -15.4208 -2.57861 7.30554 14
403 2 -13.8567 -12.2753 2.98127 9
404 2 -11.8818 -10.4209 4.62317 14
405 2 -12.9501 -7.4408 5.3628 16
406 2 -13.212 -5.36219 2.68494 20
407 2 -11.4446 -7.78359 2.31392 20
408 2 -13.4605 -5.95961 8.43267 12
409 2 -11.0793 -8.35439 7.58751 16
410 2 -11.2117 -4.69006 5.14603 23
411 2 -12.4303 -2.0034 4.96265 21
412 2 -12.9988 -0.108157 2.0875 24
413 2 -11.3004 -2.78011 2.31594 24
414 2 -11.4176 -5.3126 10.7331 14
415 2 -12.8949 -2.24803 10.0828 17
416 2 -13.1822 -0.0895128 7.2229 22
417 2 -11.5573 -3.24069 8.12304 21
418 2 -12.4999 -0.277365 12.6676 12
419 2 -8.15775 -14.7751 2.69794 11
420 2 -10.125 -11.9642 2.47397 17
421 2 -9.27735 -13.7209 0.289899 15
422 2 -11.6738 -14.9267 2.59272 7
423 2 -8.67013 -10.5672 5.66702 16
424 2 -9.5964 -7.46149 5.24826 24
425 2 -9.74818 -5.83983 2.48989 24
426 2 -8.37254 -8.90317 3.11969 20
427 2 -7.94353 -10.5081 10.8592 13
428 2 -9.02424 -7.56723 10.4302 18
429 2 -9.66474 -5.53363 8.08869 22
430 2 -7.95616 -8.63685 8.15189 22
431 2 -13.1385 -3.64227 12.7334 8
432 2 -9.89502 -6.10489 13.5822 14
433 2 -7.84416 -4.63244 5.16884 24
434 2 -9.44523 -2.00883 5.42204 22
435 2 -9.66559 0.226013 2.51205 21
436 2 -8.30447 -2.9013 2.51434 25
437 2 -8.32013 -4.61666 11.1106 20
438 2 -9.23037 -1.80128 10.4108 18
439 2 -9.99331 -0.136597 8.08462 21
440 2 -7.86255 -2.95439 7.982 24
441 2 -9.83669 -0.0787022 13.7999 15
442 2 -8.14422 -2.79647 14.1682 15
443 2 -2.77629 -15.7026 4.41845 12
444 2 -6.69644 -13.2038 5.28936 14
445 2 -6.20612 -11.9495 2.4592 22
446 2 -4.97607 -14.2943 2.7353 20
447 2 -5.93819 -12.9828 11.2796 12
448 2 -6.78116 -11.9981 8.24874 16
449 2 -4.84685 -14.3905 7.85845 14
450 2 -5.22082 -10.6474 5.17472 23
451 2 -6.41148 -7.67125 5.02241 23
452 2 -6.75671 -6.07732 2.38022 22
453 2 -4.88307 -8.73295 2.32236 22
454 2 -4.68025 -10.3854 11.3999 18
455 2 -6.28822 -7.34904 11.3991 21
456 2 -6.54322 -5.72315 8.34406 23
457 2 -5.12787 -8.86804 8.1389 23
458 2 -6.7954 -5.52596 13.6872 16
459 2 -8.15353 -8.49891 13.6564 13
460 2 -4.99271 -4.67768 5.92983 18
461 2 -6.46091 -1.95047 5.29149 21
462 2 -6.23869 -0.231998 2.20732 24
463 2 -4.95316 -3.01137 2.56626 23
464 2 -4.97073 -4.50521 11.1242 20
465 2 -6.35457 -1.62745 10.8409 21
466 2 -6.46743 0.171137 7.62862 24
467 2 -4.83447 -2.63984 7.96001 22
468 2 -11.158 -3.01107 14.2536 10
469 2 -6.0747 -1.04981 16.1748 9
470 2 -6.8496 0.174802 13.4841 20
471 2 -4.68411 -2.38152 13.1931 22
472 2 1.8219 -16.2929 4.68543 14
473 2 -3.26171 -13.1452 5.09863 21
474 2 -3.19979 -11.1436 2.55083 23
475 2 -1.42408 -14.2643 2.25099 21
476 2 -3.19875 -14.4257 10.4687 14
477 2 -3.33691 -11.4608 8.12191 23
478 2 -1.64093 -14.4521 7.31571 18
479 2 -0.587957 -14.2925 12.3806 11
480 2 -1.96822 -10.8186 5.39627 21
481 2 -3.40531 -7.62621 5.16726 23
482 2 -3.19451 -6.01587 2.36594 23
483 2 -1.65514 -8.58821 2.26981 24
484 2 -1.51867 -11.0153 10.8581 26
485 2 -3.66327 -7.54791 10.4306 23
486 2 -3.18797 -5.73355 8.06325 23
487 2 -1.69447 -8.91154 7.97854 22
488 2 -4.65856 -7.98328 14.0395 14
489 2 -3.03411 -5.50741 13.0611 23
490 2 -2.3505 -9.16096 12.918 17
491 2 -1.69659 -4.97676 5.0001 23
492 2 -3.09775 -1.90145 4.93401 25
493 2 -2.95973 -0.0950039 2.43144 25
494 2 -1.41435 -2.798 2.57231 23
495 2 -1.51502 -4.6117 10.6291 22
496 2 -2.85496 -1.87275 10.5101 23
497 2 -3.50996 -0.322821 7.48295 21
498 2 -1.33737 -3.1339 7.95801 23
499 2 -0.741797 -3.88405 15.6593 15
500 2 -3.02322 -1.56008 15.7935 15
501 2 -3.2603 0.536152 13.0803 22
502 2 -1.25141 -2.50829 13.6123 21
503 1 -15.5058 3.37197 -9.97249 12
504 1 -15.7414 0.625372 -7.85564 15
505 1 -16.3855 6.01115 -4.69847 11
506 1 -15.1299 3.32757 -4.47433 19
507 1 -14.435 0.56233 -2.30117 20
508 1 -16.6757 5.8415 -0.699099 9
509 1 -16.7587 3.59304 -7.00462 13
510 1 -14.8036 8.93367 -5.29486 14
511 1 -14.4885 6.51078 -2.82138 20
512 1 -12.4454 2.86664 -9.75323 17
513 1 -11.6674 6.70218 -8.18398 18
514 1 -12.9839 5.51213 -10.7939 12
515 1 -12.0082 0.865617 -7.26241 21
516 1 -13.89 3.16971 -7.23406 24
517 1 -13.2767 5.94799 -5.163 22
518 1 -11.5599 3.0804 -5.01642 22
519 1 -11.352 0.955995 -2.81434 21
520 1 -13.0364 3.7939 -2.26336 22
521 1 -5.58834 9.72093 -12.4963 13
522 1 -13.0748 10.2538 -7.84832 12
523 1 -14.7026 5.80807 -7.60824 17
524 1 -13.4351 12.0118 -5.02475 13
525 1 -11.9028 8.85195 -5.40038 22
526 1 -11.4682 7.03761 -2.68842 21
527 1 -13.1748 9.73255 -2.76209 19
528 1 -11.4588 12.964 -2.59176 13
529 1 -11.7263 1.04082 -12.8708 11
530 1 -8.51334 1.05894 -12.3061 21
531 1 -7.95387 8.23676 -11.6692 12
532 1 -9.78502 9.42999 -7.72604 20
533 1 -8.33755 2.98081 -10.1437 20
534 1 -8.7069 0.980228 -7.71754 22
535 1 -10.0986 3.45225 -7.2391 19
536 1 -10.1178 5.96783 -5.44458 22
537 1 -8.1112 2.78289 -4.92828 23
538 1 -8.03685 1.08612 -2.3046 24
539 1 -9.89583 4.15413 -2.92971 21
540 1 -6.42681 11.5558 -10.4838 14
541 1 -9.62262 6.29366 -10.479 12
542 1 -8.09053 6.56029 -7.88666 21
543 1 -11.499 12.8066 -7.75901 10
544 1 -10.1125 11.5274 -5.37147 20
545 1 -8.27808 8.67021 -5.06204 21
546 1 -8.06453 7.26722 -2.63588 23
547 1 -10.025 9.7874 -2.83127 23
548 1 -8.44377 12.7377 -8.18457 15
549 1 -8.46016 14.2815 -4.95714 13
550 1 -8.37495 12.3132 -2.4411 21
551 1 -10.6542 3.91567 -12.1873 12
552 1 -4.95729 2.95221 -15.2137 15
553 1 -5.23263 0.86684 -13.0446 21
554 1 -6.90849 3.59249 -12.2735 17
555 1 -6.39391 5.51844 -10.1111 22
556 1 -4.74617 2.62348 -10.0133 22
557 1 -4.99199 0.688713 -7.32634 22
558 1 -6.52398 3.5512 -7.6451 22
559 1 -6.87562 5.82193 -5.15554 20
560 1 -4.79142 3.04861 -5.22509 22
561 1 -4.58612 1.02882 -2.13421 24
562 1 -6.68239 3.80205 -2.66964 22
563 1 -5.04704 6.57615 -13.0103 18
564 1 -4.97408 8.5619 -15.1987 9
565 1 -5.91844 14.1394 -10.1408 9
566 1 -5.34485 8.07392 -9.87244 24
567 1 -4.79617 6.56591 -7.56474 22
568 1 -6.47841 9.64105 -7.63013 23
569 1 -6.82401 12.04 -5.35585 21
570 1 -5.55043 8.57155 -4.99039 24
571 1 -4.8562 6.28952 -2.2267 23
572 1 -6.36571 9.67823 -2.02851 23
573 1 -4.76469 12.5173 -7.96753 23
574 1 -6.5785 14.8269 -7.60501 15
575 1 -5.01852 14.734 -4.89898 19
576 1 -4.86259 12.4945 -2.36951 21
577 1 -6.49989 15.3738 -2.01327 14
578 1 -2.85133 5.78935 -15.1507 15
579 1 -2.06739 0.812994 -18.0567 8
580 1 -1.62483 0.802466 -12.9449 19
581 1 -3.35653 3.365 -12.8015 24
582 1 -3.15337 5.70873 -10.271 21
583 1 -1.52298 2.61727 -10.2259 24
584 1 -1.66161 0.639218 -7.68352 22
585 1 -3.11685 3.84823 -7.59943 25
586 1 -3.47392 5.80665 -5.09606 23
587 1 -1.47426 2.54395 -4.96651 24
588 1 -1.66951 0.97725 -2.2803 23
589 1 -3.22849 3.87421 -2.15919 24
590 1 -1.73646 8.30078 -15.0199 13
591 1 -1.86073 6.57582 -12.5109 20
592 1 -2.23516 11.0541 -12.8884 11
593 1 -3.53473 11.3979 -10.276 20
594 1 -1.78252 9.08139 -10.2625 20
595 1 -1.51797 6.72192 -7.97044 21
596 1 -3.31631 9.61082 -7.35602 25
597 1 -3.35287 11.4057 -5.05001 20
598 1 -1.64651 8.70122 -5.12715 22
599 1 -1.36225 6.66362 -2.40764 22
600 1 -3.50225 9.45549 -2.66124 21
601 1 -0.0382409 11.3786 -10.4662 19
602 1 -3.29195 15.5672 -7.48049 11
603 1 -1.39875 14.16 -5.03722 20
604 1 -3.26698 17.2911 -4.87137 11
605 1 -2.87682 17.4073 0.538451 14
606 1 2.0313 14.2053 -4.74262 21
607 1 -1.95653 12.3943 -2.4149 22
608 1 -3.55507 15.5944 -2.08077 19
609 2 -16.6371 1.81355 -6.29238 13
610 2 -16.2575 4.43655 -5.54599 14
611 2 -14.5362 -1.35834 -9.07057 15
612 2 -14.4068 1.49705 -0.562111 20
613 2 -15.977 4.36071 0.251167 15
614 2 -16.4086 5.70186 -2.65841 11
615 2 -15.0818 1.40448 -3.95288 19
616 2 -14.9975 6.81033 -6.04634 18
617 2 -14.9704 6.8353 -0.717751 17
618 2 -14.0491 8.20057 -3.73374 16
619 2 -12.8679 -0.120262 -11.9105 14
620 2 -13.7892 3.72785 -10.5839 14
621 2 -12.4943 0.932202 -9.22337 18
622 2 -11.6054 1.14404 -5.22519 21
623 2 -13.621 4.15593 -5.44233 21
624 2 -16.2546 4.77409 -8.67203 11
625 2 -11.8711 3.03988 -7.2082 21
626 2 -11.1184 0.893218 -0.165859 21
627 2 -13.0037 3.8509 -0.185916 19
628 2 -12.4446 5.45749 -2.71594 22
629 2 -11.7099 2.94036 -3.07877 22
630 2 -13.3392 5.98639 -8.90002 16
631 2 -11.7336 6.65315 -6.1868 23
632 2 -14.0554 10.5076 -6.13003 13
633 2 -11.7405 8.78908 -8.07622 11
634 2 -11.5329 6.45747 -0.474902 23
635 2 -13.3205 9.43439 -0.596429 20
636 2 -13.0749 11.6491 -2.97896 15
637 2 -11.613 8.72948 -3.68094 25
638 2 -11.8364 12.1755 -5.89661 14
639 2 -11.7508 12.3541 -0.734624 15
640 2 -8.40811 1.01062 -10.5692 19
641 2 -11.1696 5.56833 -11.0411 12
642 2 -5.48299 3.28999 -13.3272 18
643 2 -10.1319 0.160093 -12.891 16
644 2 -8.33974 0.813339 -5.75833 23
645 2 -9.45339 4.07649 -5.54881 20
646 2 -9.68318 6.11205 -8.65198 19
647 2 -8.55775 2.97396 -8.22096 20
648 2 -7.85761 0.706219 -0.474038 23
649 2 -9.78259 3.78906 -0.467107 25
650 2 -9.76051 6.09169 -3.2239 22
651 2 -8.49355 2.92468 -2.8952 19
652 2 -7.84447 6.80065 -10.6904 17
653 2 -13.0993 12.2141 -8.26282 7
654 2 -3.97795 10.2401 -13.8923 11
655 2 -8.44972 6.95271 -5.95269 22
656 2 -10.0515 9.52506 -5.59404 18
657 2 -10.0425 11.4665 -8.15623 12
658 2 -7.58689 8.22291 -8.31425 20
659 2 -7.99866 6.74888 -0.618902 23
660 2 -10.0775 9.31514 -0.565964 23
661 2 -10.0969 11.738 -2.9414 19
662 2 -8.29771 9.07764 -3.17923 22
663 2 -8.68593 12.5128 -6.3596 19
664 2 -8.63703 12.4196 -0.349309 20
665 2 -7.91239 14.2781 -2.88913 15
666 2 -4.8235 0.715011 -11.0633 24
667 2 -6.49279 3.44042 -10.3178 18
668 2 -6.13641 8.12329 -13.3523 12
669 2 -5.24182 1.22154 -15.421 13
670 2 -4.81297 1.08363 -5.43002 22
671 2 -6.39501 3.98122 -5.60079 22
672 2 -6.28785 5.62639 -7.97862 22
673 2 -4.76503 2.56156 -7.99408 21
674 2 -4.95553 0.729337 -0.317813 24
675 2 -6.33097 3.76628 -0.490069 22
676 2 -6.51965 5.56869 -3.21269 23
677 2 -4.81886 3.00871 -2.95919 23
678 2 -4.87463 6.21193 -11.1136 22
679 2 -7.05974 9.80694 -11.1427 13
680 2 -3.63977 7.43868 -15.7445 11
681 2 -5.16291 6.65785 -5.72587 25
682 2 -6.42413 10.0479 -5.73237 22
683 2 -7.47728 14.1081 -8.9889 11
684 2 -4.7154 8.78745 -8.11435 21
685 2 -4.94192 6.78135 -0.3528 22
686 2 -6.66753 9.48052 0.00543627 21
687 2 -6.40029 11.3978 -2.82873 21
688 2 -5.07242 8.2272 -2.70006 21
689 2 -4.85356 12.6986 -9.97503 13
690 2 -7.07357 11.1115 -8.63331 21
691 2 -6.8638 15.0207 -5.73269 14
692 2 -4.76523 14.9433 -8.75541 12
693 2 -5.04377 12.6308 -0.436188 22
694 2 -6.94601 15.1918 0.0991293 13
695 2 -5.09723 14.3769 -2.88408 21
696 2 -1.79708 0.909856 -10.989 24
697 2 -3.09002 3.84088 -10.2867 20
698 2 -3.35746 5.82668 -13.157 19
699 2 -1.64751 2.65046 -13.535 21
700 2 -1.87277 0.629675 -5.33706 23
701 2 -2.90931 3.88546 -5.66946 21
702 2 -3.09709 5.61999 -8.13204 23
703 2 -1.37159 2.67003 -7.84434 20
704 2 -1.6344 0.947689 -0.310949 24
705 2 -3.08601 3.70231 -0.283594 23
706 2 -2.95164 5.76926 -3.03983 22
707 2 -1.486 2.99417 -2.89497 22
708 2 -1.69126 7.22846 -10.7242 19
709 2 -4.79852 9.90745 -10.6722 19
710 2 -1.91507 10.9233 -10.8277 18
711 2 -1.50338 9.32895 -13.4203 15
712 2 -1.28096 6.96839 -5.92274 24
713 2 -3.43606 9.50571 -5.18872 19
714 2 -3.14038 11.5902 -8.21594 22
715 2 -1.77546 8.56729 -8.31741 25
716 2 -1.27862 6.65774 -0.52526 24
717 2 -3.41669 9.33897 -0.471507 23
718 2 -3.49373 11.3678 -3.10148 21
719 2 -1.64816 8.56283 -3.15004 23
720 2 0.318573 15.1364 -5.27759 18
721 2 -1.56443 12.2337 -5.14897 19
722 2 -4.97547 12.8567 -5.94395 24
723 2 -1.71818 18.3615 -4.04215 9
724 2 -1.92364 11.9921 -0.622789 20
725 2 -3.61666 15.744 -0.0772023 17
726 2 -2.0354 18.0204 -1.05592 15
727 2 -1.77738 14.3839 -2.74325 20
728 1 -16.4831 3.90913 2.07882 11
729 1 -14.6917 2.9569 0.33932 18
730 1 -14.9123 0.3883 2.83579 18
731 1 -14.8417 7.13332 7.32356 13
732 1 -16.9539 5.2458 4.93904 10
733 1 -16.1689 4.00882 7.32261 12
734 1 -14.8521 8.42113 0.234409 15
735 1 -15.0419 6.72522 2.99912 17
736 1 -15.0225 10.133 5.8042 6
737 1 -13.1284 5.60759 0.339854 24
738 1 -11.1937 2.889 0.141104 22
739 1 -11.5604 0.862839 2.77646 22
740 1 -13.5057 3.50578 3.02576 21
741 1 -13.6825 5.33116 5.23698 20
742 1 -11.7197 2.72254 5.49699 19
743 1 -11.6955 0.982215 8.09029 21
744 1 -13.3691 3.86624 8.37862 17
745 1 -14.6382 1.10053 7.9114 14
746 1 -11.5724 2.79967 10.7444 17
747 1 -11.3378 0.946045 13.6332 12
748 1 -13.1725 11.3283 0.05225 14
749 1 -11.9353 8.14744 0.124503 24
750 1 -11.7451 6.36757 2.54286 20
751 1 -13.3703 9.58296 2.71313 18
752 1 -11.9399 8.58649 5.40557 17
753 1 -11.5471 6.67714 8.0112 19
754 1 -11.9558 8.23915 10.324 8
755 1 -8.6674 12.3592 3.03917 21
756 1 -9.61497 5.75421 -0.0863506 23
757 1 -8.0307 2.74936 -0.119276 20
758 1 -7.91166 0.913794 2.74949 21
759 1 -9.82874 3.36721 3.12697 22
760 1 -9.96435 5.52823 5.58305 24
761 1 -8.39793 2.76774 5.6619 22
762 1 -8.09179 1.13031 8.39853 23
763 1 -9.87357 3.895 8.24774 21
764 1 -10.0539 5.61529 11.0577 20
765 1 -8.16432 3.07586 11.1951 23
766 1 -8.33117 1.26723 13.7555 15
767 1 -10.5411 3.8869 13.4548 10
768 1 -10.1857 11.269 -0.160554 20
769 1 -8.43129 8.79524 0.293681 22
770 1 -8.22398 6.60801 2.50853 20
771 1 -10.1759 9.33353 2.89393 24
772 1 -11.6218 12.5505 2.55207 13
773 1 -8.50479 8.48684 5.39969 21
774 1 -8.03307 6.67412 8.27606 23
775 1 -9.77701 9.92776 8.12094 19
776 1 -8.59676 8.42944 11.1207 21
777 1 -8.48523 6.55002 13.2113 15
778 1 -6.86241 15.282 2.42918 12
779 1 -8.64405 14.3483 0.160907 13
780 1 -10.4984 11.9276 5.30899 15
781 1 -9.80658 11.3362 10.9515 10
782 1 -6.4443 5.5501 0.147809 24
783 1 -4.73669 2.83723 0.442994 25
784 1 -4.78968 0.896051 3.01777 23
785 1 -6.63449 3.83039 3.09074 22
786 1 -6.84037 5.5825 5.67701 23
787 1 -4.74546 2.55485 5.77102 23
788 1 -4.77067 0.987677 8.47603 25
789 1 -6.71482 3.69565 8.21413 23
790 1 -6.62809 5.52194 10.8517 23
791 1 -4.88129 2.93602 11.199 22
792 1 -4.9492 1.31613 13.7942 20
793 1 -6.46305 3.91184 13.7983 19
794 1 -6.74568 11.5593 0.243551 21
795 1 -4.88622 8.61972 0.447917 22
796 1 -4.64615 6.46668 2.77061 21
797 1 -6.69648 9.62825 2.67785 21
798 1 -6.82168 11.1176 5.15998 20
799 1 -4.85919 8.78059 5.28314 22
800 1 -4.96915 7.06691 8.03555 20
801 1 -6.77078 9.75447 8.37261 22
802 1 -5.07851 12.4468 8.06247 20
803 1 -4.92501 8.82599 10.8145 22
804 1 -5.32796 6.81734 12.8033 18
805 1 -6.99128 8.90233 14.1061 11
806 1 -5.19667 14.5645 0.431554 19
807 1 -4.85704 12.4842 2.89743 21
808 1 -9.33663 14.6572 4.16738 9
809 1 -8.28995 12.1479 7.89313 15
810 1 -6.78063 11.7654 10.6157 13
811 1 -3.0084 5.98111 -0.0411209 21
812 1 -1.57777 2.79988 0.23026 23
813 1 -1.41535 1.02018 3.18388 23
814 1 -3.16384 3.81249 2.76283 22
815 1 -3.24253 5.43539 5.76942 23
816 1 -1.52129 2.77331 5.85896 22
817 1 -1.72233 0.941818 8.47615 22
818 1 -3.31927 4.03181 8.3468 22
819 1 -3.29288 5.67523 10.9539 22
820 1 -1.38829 2.88661 11.1787 21
821 1 -1.08746 1.71092 14.0774 20
822 1 -3.13036 4.28196 13.7763 19
823 1 -3.5914 11.3431 0.0641032 21
824 1 -1.78843 8.55111 0.00983781 22
825 1 -1.26947 6.7827 3.01892 22
826 1 -3.06722 9.64058 2.61733 20
827 1 -3.29629 11.2971 5.65492 23
828 1 -1.75459 8.38751 5.83442 22
829 1 -1.55687 6.68601 8.57365 24
830 1 -3.09198 9.86467 8.31771 23
831 1 -3.25244 12.1162 10.5826 16
832 1 -1.7616 8.60361 10.9277 22
833 1 -1.45131 7.02559 13.345 19
834 1 -3.73936 10.1439 13.0437 16
835 1 -3.35648 15.7223 3.43189 16
836 1 -1.82425 14.5733 0.928333 24
837 1 -1.94472 12.5063 3.26368 23
838 1 -5.67037 14.0406 5.28819 16
839 1 0.105408 14.7719 3.23858 21
840 1 -1.86665 12.5913 7.81954 20
841 1 -3.86763 15.2489 7.02884 11
842 1 -1.9978 12.1903 13.8447 11
843 2 -15.114 0.451203 4.88314 22
844 2 -15.5586 5.85315 6.07041 13
845 2 -16.6176 5.56885 3.15665 12
846 2 -15.1627 2.43728 2.3905 19
847 2 -17.098 3.35306 5.58419 12
848 2 -16.5796 0.626214 7.18736 11
849 2 -15.3995 8.92861 7.34189 6
850 2 -15.1369 8.48828 2.19857 13
851 2 -11.2279 0.625329 4.88646 23
852 2 -13.2976 3.56991 4.98001 22
853 2 -13.6366 5.62623 2.33424 22
854 2 -11.5943 3.05613 2.55605 20
855 2 -11.5705 0.908388 10.0454 20