ITEM: TIMESTEP
173000
ITEM: NUMBER OF ATOMS
2000
ITEM: BOX BOUNDS pp pp pp
-30.0 30.0
-30.0 30.0
-30.0 30.0
ITEM: ATOMS id type x y z Coordination
1 2 -16.9751 0.348465 -2.88864 17
2 1 0.224827 -17.5943 -5.01073 12
3 2 -5.15426 -16.8759 -5.02441 8
4 1 -3.50098 -17.405 -0.741093 9
5 2 -5.07681 -16.387 -0.624812 13
6 1 1.53531 -14.5756 -10.1071 15
7 1 2.55799 -16.0605 -7.62172 15
8 2 -0.078149 -17.0825 -3.10052 17
9 2 4.24749 -16.8669 -6.64914 12
10 1 -0.503196 -17.5122 0.337988 14
11 1 1.58863 -16.6889 3.03449 16
12 1 5.25356 -16.2428 -2.31555 13
13 2 -0.0865824 -17.0687 2.24949 15
14 2 4.48222 -16.0644 -0.44486 16
15 2 -4.86381 -5.13785 -16.6599 12
16 2 -8.37685 -4.64868 -15.8234 12
17 2 -1.95691 -5.53479 -15.9264 11
18 2 -3.64044 -2.13109 -15.7658 15
19 2 -1.99711 0.879005 -15.6793 15
20 2 -8.61802 2.75941 -12.6061 14
21 2 0.574543 -0.885624 -18.9706 5
22 2 -3.48927 3.70135 -15.9453 13
23 2 -1.90512 6.86382 -15.9914 12
24 2 -0.554643 -11.7647 -13.0546 12
25 2 1.60163 -8.92129 -12.9445 14
26 2 1.76139 -5.05998 -15.3087 16
27 2 3.53387 -2.23534 -15.7621 16
28 2 7.22499 -2.76858 -15.3957 14
29 2 -4.53552 -9.55153 -12.4381 16
30 2 -0.75419 -3.08552 -17.303 10
31 2 -0.0839585 3.52786 -16.311 15
32 2 1.16389 6.18039 -15.6321 12
33 2 3.21557 -0.227443 -13.522 22
34 2 1.5345 0.502644 -16.6655 15
35 2 6.97208 2.82451 -15.1209 11
36 1 -14.6033 -8.43729 -6.00173 13
37 1 -13.6841 -7.68348 -8.3766 15
38 1 -14.0154 -1.4299 -13.0909 12
39 1 -15.5569 -5.17602 -7.3195 14
40 1 -15.3928 -2.2374 -9.83371 11
41 1 -17.6649 0.263971 -4.81567 10
42 1 -15.6995 -2.58599 -5.0285 15
43 1 -13.9248 -5.72251 0.39378 16
44 1 -17.089 -1.48305 -2.25829 12
45 1 -14.7252 -11.9572 -6.16703 6
46 1 -12.7663 -4.05723 -13.3774 11
47 1 -6.85227 -11.9083 -10.379 12
48 1 -12.3198 -10.3498 -7.50378 14
49 1 -13.7491 -4.87618 -10.1804 15
50 1 -13.6754 -5.37526 -4.84609 22
51 1 -11.7828 -8.738 -5.10207 19
52 1 -11.8193 -10.3008 -2.5705 18
53 1 -13.3103 -7.14219 -2.70308 17
54 1 -10.0807 -5.40095 -15.3251 10
55 1 -13.8416 0.388336 -9.5779 19
56 1 -12.1297 -2.39332 -10.2242 23
57 1 -11.9434 -4.6068 -7.66505 24
58 1 -13.9697 -2.31861 -7.25552 22
59 1 -13.4688 0.308646 -4.79445 25
60 1 -12.0913 -2.91559 -4.86802 22
61 1 -11.7013 -4.61891 -1.9171 23
62 1 -13.7662 -1.56041 -2.38951 22
63 1 -8.38546 -7.92147 -10.421 20
64 1 -10.0186 -11.5332 -5.07319 21
65 1 -11.5042 -13.3458 -6.87374 12
66 1 -9.72233 -14.6215 -4.80553 11
67 1 -11.1251 -8.99447 -10.7762 13
68 1 -10.1843 -5.60362 -10.1604 21
69 1 -10.3105 -7.627 -12.963 13
70 1 -9.56432 -10.3215 -8.42387 19
71 1 -10.5236 -7.47147 -7.37472 24
72 1 -10.5017 -5.76735 -4.92104 24
73 1 -8.43782 -8.87355 -4.94331 23
74 1 -8.52164 -10.4554 -2.44325 24
75 1 -10.1447 -7.59265 -2.12141 24
76 1 -5.26453 -3.22989 -16.5044 13
77 1 -8.15736 -4.81758 -13.0246 22
78 1 -10.6222 -1.6806 -13.369 16
79 1 -10.1494 -0.506185 -10.0906 20
80 1 -8.62594 -3.16144 -10.5163 21
81 1 -8.56172 -4.86438 -7.2755 24
82 1 -10.2297 -1.90494 -7.44819 24
83 1 -10.1897 0.111649 -4.52834 25
84 1 -8.73912 -2.84064 -5.16065 20
85 1 -8.48002 -4.79591 -2.2743 22
86 1 -10.1036 -2.10484 -1.93292 21
87 1 -2.01241 -14.8899 -10.1866 9
88 1 -8.46285 -10.3944 -13.1385 10
89 1 -6.45458 -11.8881 -4.87082 20
90 1 -5.75327 -14.9229 -5.45328 14
91 1 -5.28732 -16.5157 -2.98105 13
92 1 -7.09425 -13.5794 -2.32389 20
93 1 -6.67782 -5.97835 -15.9552 15
94 1 -0.367752 -13.6527 -12.7285 10
95 1 -6.99878 -7.37167 -13.1258 21
96 1 -6.75672 -5.75116 -10.2532 23
97 1 -5.00062 -8.79143 -10.4373 22
98 1 -5.13603 -10.4992 -7.45528 22
99 1 -6.9536 -7.67607 -7.54229 21
100 1 -7.1168 -5.63209 -4.71599 24
101 1 -5.00595 -8.52648 -5.04249 22
102 1 -4.97756 -10.5127 -2.9396 20
103 1 -6.81455 -7.64806 -2.32581 23
104 1 -8.48488 -2.80668 -15.7674 12
105 1 -6.75794 -0.338931 -15.4173 15
106 1 -5.33942 -4.88021 -12.8258 20
107 1 -7.24058 -2.21201 -12.8243 22
108 1 -6.9168 0.0296645 -10.0927 24
109 1 -5.42005 -2.64127 -9.96249 22
110 1 -5.16289 -4.70701 -7.64452 24
111 1 -7.13518 -2.18807 -7.50501 23
112 1 -7.05426 0.0278552 -4.88184 23
113 1 -5.24085 -2.92116 -5.03654 23
114 1 -5.19238 -4.61441 -2.59726 23
115 1 -6.64852 -2.2523 -2.45513 21
116 1 -3.66659 -11.5101 -9.61889 17
117 1 0.230528 -12.9396 -7.8852 19
118 1 -8.03745 -12.857 -7.18075 13
119 1 -3.66414 -13.7964 -7.6563 14
120 1 -3.62025 -11.931 -5.16345 21
121 1 -1.89893 -14.531 -5.21418 20
122 1 -1.81989 -16.4522 -2.5485 19
123 1 -3.3746 -13.6844 -2.64244 22
124 1 -3.89358 -6.14868 -15.454 14
125 1 -2.23567 -10.9025 -12.1596 17
126 1 3.31197 -13.7082 -12.3864 11
127 1 -3.16136 -8.06089 -12.9443 16
128 1 -3.42271 -5.4074 -10.3387 20
129 1 -1.86208 -8.69764 -10.257 20
130 1 -1.89814 -10.5048 -7.32811 23
131 1 -3.37617 -7.2328 -7.91176 21
132 1 -3.6232 -5.69216 -5.23051 23
133 1 -1.85354 -8.65732 -4.96894 22
134 1 -1.732 -10.7993 -2.87719 19
135 1 -3.41038 -7.57742 -2.54839 22
136 1 -3.57519 0.103319 -16.2213 16
137 1 -0.0328376 -5.45266 -15.7277 14
138 1 -1.90186 -5.13644 -12.8519 21
139 1 -3.42044 -2.01367 -13.8163 19
140 1 -3.63417 -0.0315506 -10.7984 19
141 1 -2.00416 -2.77647 -10.3087 22
142 1 -1.81099 -4.47234 -7.54535 24
143 1 -3.67276 -1.78094 -7.52254 23
144 1 -3.59072 0.25636 -4.85005 24
145 1 -2.05073 -2.69183 -4.76928 23
146 1 -1.78016 -4.8522 -2.32866 24
147 1 -3.35812 -2.07646 -2.21746 24
148 2 -16.8667 -1.34019 -0.230556 14
149 2 -14.3238 -10.1592 -6.61452 11
150 2 -9.77202 -13.2445 -6.28287 15
151 2 -15.6133 -2.53482 -2.66347 16
152 2 -14.0017 -1.76852 -11.1766 15
153 2 -15.3237 -3.97606 -9.00864 13
154 2 -15.0798 -4.38427 -0.319176 15
155 2 -17.0432 0.0408866 2.87685 12
156 2 -14.581 1.2498 -5.67978 21
157 2 -12.2376 -4.81178 -5.72686 25
158 2 -10.9005 -10.4598 -6.44318 20
159 2 -11.5104 -14.2819 -5.13067 10
160 2 -11.8176 -8.41691 -3.27249 21
161 2 -13.3432 -5.80784 -8.64115 18
162 2 -15.0944 -6.92961 -7.15648 13
163 2 -11.8891 -10.3276 -0.569853 18
164 2 -13.3219 -5.24558 -2.78321 18
165 2 -13.9606 -7.40746 -4.63102 15
166 2 -12.6568 -13.4869 -2.219 9
167 2 -12.4209 -2.4131 -13.2682 12
168 2 -10.3487 -2.35068 -10.7946 21
169 2 -9.02662 -2.76177 -13.6227 20
170 2 -15.447 -4.28358 -5.61603 15
171 2 -13.7874 -2.1479 -5.28705 20
172 2 -15.8101 2.47247 -8.28152 14
173 2 -12.3224 -4.4068 -11.5073 16
174 2 -11.9338 -4.75826 0.0895855 24
175 2 -13.8173 -1.4344 -0.360803 22
176 2 -13.559 0.513007 -3.00094 22
177 2 -11.9858 -2.64215 -2.83657 22
178 2 -11.51 -10.2576 -9.26823 13
179 2 -13.3311 -12.9649 -6.51194 9
180 2 -8.65247 -14.0147 -3.27329 17
181 2 -10.1169 -11.2366 -3.0576 23
182 2 -12.2176 -8.21172 -7.19097 21
183 2 -7.15078 -11.1484 -12.0896 12
184 2 -6.61866 -7.79285 -11.0248 24
185 2 -9.20939 -6.30361 -13.6292 16
186 2 -10.3335 -7.26117 -11.0866 16
187 2 -7.91581 -10.6997 -5.1892 21
188 2 -9.83125 -7.70904 -5.47044 21
189 2 -10.4559 -5.5684 -8.21912 22
190 2 -8.75469 -8.42964 -8.4602 21
191 2 -8.48625 -10.3287 0.0653193 20
192 2 -10.1983 -7.61851 -0.213568 23
193 2 -10.3879 -5.47394 -2.8455 23
194 2 -8.50688 -8.35977 -3.02194 22
195 2 -8.2596 -5.04923 -11.0129 22
196 2 -12.2261 -2.43568 -8.27392 23
197 2 -12.2944 2.60743 -13.2198 9
198 2 -6.93855 -2.03082 -16.1578 13
199 2 -8.72851 -4.81262 -5.30288 23
200 2 -10.4116 -2.12057 -5.41381 23
201 2 -9.67121 -0.136497 -8.07056 20
202 2 -9.03152 -3.02511 -7.93534 21
203 2 -8.57087 -4.86527 -0.0651362 23
204 2 -10.2724 -1.64796 -0.018055 21
205 2 -10.1863 0.199211 -2.53867 22
206 2 -8.53655 -2.73744 -2.95189 24
207 2 -3.47617 -13.5113 -9.52621 11
208 2 -6.7025 -13.4426 -6.14039 18
209 2 -8.17639 -11.7302 -8.8647 12
210 2 -1.99159 -14.2489 -11.9855 8
211 2 -3.23877 -17.5194 -2.93196 13
212 2 -6.79241 -13.4521 -0.300146 17
213 2 -6.89655 -11.4947 -2.61592 20
214 2 -5.26089 -14.5331 -3.20483 21
215 2 -7.38731 -9.14356 -14.04 12
216 2 -9.65618 -9.27539 -12.2623 13
217 2 -11.6495 -4.82509 -14.671 11
218 2 -6.39067 -5.89676 -13.9698 18
219 2 -5.00864 -10.4699 -5.40886 18
220 2 -6.94648 -7.47106 -5.59801 22
221 2 -7.2496 -5.68908 -8.32627 23
222 2 -5.11956 -8.33509 -7.78475 21
223 2 -5.12716 -10.8638 -0.498 21
224 2 -6.52687 -7.42988 -0.468949 22
225 2 -6.92276 -5.75552 -2.69993 20
226 2 -5.16192 -8.59934 -2.81322 21
227 2 -5.28125 -4.79599 -10.9069 23
228 2 -7.123 -2.00344 -10.9177 22
229 2 -6.97517 0.249336 -13.5732 18
230 2 -5.92487 -3.13754 -13.9152 20
231 2 -5.35103 -4.82331 -5.5332 23
232 2 -6.93591 -1.77403 -5.65177 26
233 2 -7.01428 -0.272428 -8.00504 22
234 2 -5.28087 -2.63326 -8.09888 21
235 2 -5.01225 -4.84133 -0.486302 24
236 2 -6.97183 -2.02002 -0.560222 23
237 2 -6.87062 0.177008 -2.79874 21
238 2 -5.05417 -2.65574 -3.24161 23
239 2 1.36361 -14.3402 -11.9787 12
240 2 -0.502895 -14.0612 -9.68644 13
241 2 -1.36382 -16.6363 -5.39262 12
242 2 -3.86552 -14.4212 -5.87556 17
243 2 -5.27634 -10.6406 -9.5824 17
244 2 -3.75636 -11.728 -7.69665 17
245 2 -1.85057 -16.5248 -0.355705 17
246 2 -3.39596 -14.0611 -0.482695 21
247 2 -3.5402 -11.809 -3.20924 21
248 2 -1.61786 -14.5178 -2.93966 22
249 2 -1.52124 -8.93036 -12.187 17
250 2 -3.47858 -7.55952 -10.8391 22
251 2 -3.6877 -5.89818 -13.4952 20
252 2 3.50356 -13.8003 -10.3372 16
253 2 -2.03114 -10.6613 -5.29047 20
254 2 -3.27848 -7.38935 -5.76787 23
255 2 -3.3622 -5.38907 -8.21764 23
256 2 -1.98842 -8.51552 -7.91231 21
257 2 -1.64865 -10.8818 -0.776859 23
258 2 -2.94413 -7.5822 -0.260297 20
259 2 -3.48466 -5.61307 -3.11709 25
260 2 -1.83836 -8.67265 -2.87313 23
261 2 -1.68005 -4.62089 -10.8561 20
262 2 -3.70426 -2.00317 -10.508 17
263 2 -3.57158 -0.115633 -13.7536 20
264 2 -1.71253 -3.27741 -13.7504 20
265 2 -1.90176 -4.66869 -5.52684 23
266 2 -3.63002 -1.76874 -5.48887 24
267 2 -3.80728 0.170626 -8.2663 21
268 2 -1.87799 -2.62597 -8.1903 23
269 2 -1.74323 -4.67302 -0.325427 21
270 2 -3.6937 -2.12396 -0.128622 23
271 2 -3.62862 -0.239424 -2.65672 22
272 2 -1.82538 -3.03994 -2.86548 22
273 1 -12.849 -14.397 -3.83145 8
274 1 -15.0209 -4.33584 -2.35047 18
275 1 -13.7433 -5.50941 5.71845 20
276 1 -16.7367 0.465871 0.932194 17
277 1 -15.1053 -2.63474 0.50978 20
278 1 -11.9143 -8.36761 5.674 17
279 1 -16.769 -1.74455 3.55558 16
280 1 -17.706 0.210682 5.32002 9
281 1 -15.2211 -4.31281 3.11638 15
282 1 -14.6984 -4.21056 8.77247 16
283 1 -12.2795 -13.3333 -0.451791 11
284 1 -13.0997 -7.36294 2.70225 17
285 1 -12.1293 -8.53769 0.251347 18
286 1 -10.2029 -11.2456 5.66512 14
287 1 -11.4742 -7.98214 11.5053 11
288 1 -13.3929 -7.27005 8.6524 13
289 1 -12.7144 -5.39202 11.6417 13
290 1 -8.31315 -14.189 5.2357 11
291 1 -9.99595 -7.98349 8.23069 19
292 1 -17.1681 -1.84613 7.43818 10
293 1 -9.83786 -5.5061 11.1958 18
294 1 -13.5477 0.227099 0.481705 22
295 1 -11.9049 -2.72089 0.499842 24
296 1 -12.0018 -4.79787 3.17672 20
297 1 -13.6186 -1.67885 3.34166 22
298 1 -13.7966 0.429635 5.84853 20
299 1 -11.8315 -2.69588 5.9616 23
300 1 -11.6766 -2.62436 11.1102 21
301 1 -13.31 -1.76873 8.66371 21
302 1 -15.2022 -2.80006 6.2158 20
303 1 -13.0399 -1.5449 13.9085 10
304 1 -10.2586 -11.3979 0.312344 20
305 1 -10.3574 -13.3323 -2.45161 18
306 1 -8.62419 -14.3395 0.155173 13
307 1 -11.7535 -10.361 3.07444 17
308 1 -10.4406 -13.5259 2.79118 13
309 1 -10.3842 -5.80002 0.447456 22
310 1 -8.43211 -8.3968 0.537041 23
311 1 -8.44439 -10.226 2.84859 22
312 1 -10.228 -7.62315 3.19816 21
313 1 -10.1257 -5.37634 5.47271 20
314 1 -8.48909 -8.62925 5.59033 20
315 1 -8.54664 -10.4534 8.45938 14
316 1 -7.87475 -8.53634 10.7462 15
317 1 -11.048 -4.35718 8.40666 23
318 1 -10.2103 -6.12281 14.2279 7
319 1 -10.219 0.256726 0.354571 21
320 1 -8.83106 -2.88513 0.314762 22
321 1 -8.29992 -4.79862 2.80278 20
322 1 -9.93416 -1.9 3.0646 20
323 1 -10.3277 0.184084 5.54844 20
324 1 -8.43082 -2.84838 5.87457 24
325 1 -8.30323 -4.89906 8.50379 22
326 1 -10.0027 -1.84249 8.71572 20
327 1 -15.0418 -2.42422 11.5105 11
328 1 -8.21261 -2.93131 11.276 20
329 1 -6.52999 -7.29912 14.08 9
330 1 -13.6185 0.300479 11.6211 14
331 1 -6.96458 -11.5376 0.432002 22
332 1 -5.3111 -14.4352 0.124951 18
333 1 -1.76687 -16.5031 3.24001 14
334 1 -6.72835 -13.5796 2.42731 17
335 1 -6.85534 -11.8711 4.87893 20
336 1 -5.07257 -14.5806 5.64741 15
337 1 -6.57556 -13.5294 8.13575 15
338 1 -5.95923 -11.2663 10.5958 18
339 1 -6.62577 -5.74141 0.487297 23
340 1 -5.18 -8.78652 0.194049 21
341 1 -4.67079 -10.6589 2.91449 21
342 1 -6.40308 -7.61298 3.01795 23
343 1 -6.60137 -5.7293 5.52696 21
344 1 -5.03149 -8.80592 5.6374 22
345 1 -4.86096 -10.8638 7.96279 22
346 1 -6.55013 -7.67769 7.83804 21
347 1 -6.37337 -5.9296 11.2273 18
348 1 -5.07263 -8.58087 10.8914 21
349 1 -4.4533 -14.2273 9.9561 14
350 1 -9.71139 -2.02648 14.0257 12
351 1 -6.78383 0.0977351 0.222698 24
352 1 -5.32326 -2.9555 0.170193 22
353 1 -4.91417 -4.81226 3.10329 22
354 1 -6.81461 -1.99739 2.66045 22
355 1 -6.76081 0.377014 5.94826 21
356 1 -5.25753 -2.74841 5.85428 21
357 1 -4.99965 -5.08821 8.61951 22
358 1 -6.71198 -1.4847 8.42901 21
359 1 -6.45284 0.336316 11.0645 24
360 1 -4.58283 -2.8957 11.4208 23
361 1 -4.51824 -4.69596 13.4804 14
362 1 -6.66536 -1.46837 13.7099 14
363 1 -3.40566 -11.8616 0.147679 22
364 1 -1.70632 -14.6102 0.291458 24
365 1 0.0655215 -17.3232 5.57389 8
366 1 -3.55886 -13.9237 2.87646 18
367 1 -3.65863 -11.7416 5.29093 21
368 1 -1.69921 -14.4917 5.29598 17
369 1 -2.67439 -13.5025 7.77423 20
370 1 -2.8412 -11.5718 10.7253 20
371 1 -1.54625 -14.4165 10.6969 12
372 1 -3.36458 -5.63393 0.366254 25
373 1 -1.73005 -8.87201 0.266406 21
374 1 -1.57137 -10.7034 3.05537 22
375 1 -3.05887 -7.90823 3.25348 22
376 1 -3.27386 -5.7703 5.80022 24
377 1 -1.75394 -8.51753 5.82787 24
378 1 -1.60663 -10.4959 8.02527 22
379 1 -3.27539 -7.67472 8.579 24
380 1 -3.24959 -5.69885 11.2838 22
381 1 -1.54619 -8.46027 10.4068 17
382 1 -4.16838 -13.3432 12.611 10
383 1 -2.21157 -7.34057 14.547 12
384 1 -3.30264 -0.251595 0.42529 24
385 1 -1.82508 -2.85946 0.374764 22
386 1 -1.70993 -4.87612 3.07039 22
387 1 -3.78155 -2.12697 3.17874 23
388 1 -3.41841 0.133834 5.9628 23
389 1 -1.8105 -2.84087 5.49746 21
390 1 -1.69642 -4.62592 8.49794 24
391 1 -3.31822 -1.84709 8.55517 22
392 1 -3.07626 0.0148006 11.0052 23
393 1 -1.83586 -3.0408 11.2183 25
394 1 -1.01037 -4.80426 13.7032 19
395 1 -3.32603 -1.8267 13.965 22
396 2 -13.8407 -5.7207 7.59457 17
397 2 -13.1678 -7.5421 4.60517 16
398 2 -15.1682 -4.13647 4.91658 17
399 2 -15.2384 -2.43832 2.39095 19
400 2 -15.0678 1.36351 0.43044 20
401 2 -13.5945 -5.43751 2.33991 19
402 2 -16.081 -3.29346 7.87941 11
403 2 -11.6224 -13.3768 1.31263 11
404 2 -11.4909 -10.1328 5.03732 14
405 2 -12.0144 -8.37828 7.75266 14
406 2 -13.3592 -7.22092 -0.576419 17
407 2 -11.9227 -8.72608 2.03032 20
408 2 -14.1674 -3.92281 10.6127 15
409 2 -12.7408 -7.18589 10.4617 13
410 2 -11.7956 -4.57179 5.44162 20
411 2 -13.4859 -1.54094 5.32969 22
412 2 -13.9896 0.295235 2.55419 22
413 2 -11.6821 -2.64535 2.55006 22
414 2 -13.4942 -1.5245 10.6424 17
415 2 -14.755 -1.63268 13.1225 8
416 2 -13.4734 0.144549 8.10139 20
417 2 -12.0117 -2.67183 7.90751 21
418 2 -12.5157 0.260038 13.2122 13
419 2 -8.65771 -13.8206 2.06749 17
420 2 -9.90094 -13.0314 5.37587 11
421 2 -10.0851 -13.0043 -0.599699 18
422 2 -10.0925 -11.196 2.26755 20
423 2 -8.51117 -10.5802 5.28072 19
424 2 -10.4838 -7.19438 4.96767 22
425 2 -10.3498 -5.83609 2.44403 23
426 2 -8.26645 -8.39051 2.68959 20
427 2 -6.69123 -11.6951 8.49177 15
428 2 -8.29013 -8.57919 7.58471 20
429 2 -10.0297 -5.84062 7.57122 24
430 2 -9.64475 -8.19578 10.1912 15
431 2 -11.4226 -2.54729 13.1617 20
432 2 -11.293 -4.43609 10.3321 22
433 2 -8.3809 -4.72411 4.88889 24
434 2 -10.0749 -1.63368 5.68979 19
435 2 -10.1438 0.0968276 2.34956 24
436 2 -8.5591 -2.84943 2.18072 22
437 2 -7.9891 -5.1715 10.8534 17
438 2 -9.59195 -1.48037 10.6403 22
439 2 -10.2925 0.16211 7.90416 20
440 2 -8.70185 -3.08846 8.08529 21
441 2 -9.37599 0.0232807 13.8501 14
442 2 -8.24086 -2.15597 13.0727 14
443 2 -1.50014 -16.2142 4.99761 14
444 2 -6.53482 -13.6266 4.72065 17
445 2 -6.71963 -11.4393 2.70578 19
446 2 -5.12834 -14.5734 2.08547 16
447 2 -5.50801 -13.1334 11.107 13
448 2 -7.41266 -14.7911 6.74933 8
449 2 -4.66657 -14.2072 8.00886 15
450 2 -5.1083 -10.6212 4.77581 20
451 2 -6.53966 -7.69851 5.36289 18
452 2 -6.59831 -5.63837 2.50041 21
453 2 -4.89392 -8.68748 2.18008 25
454 2 -4.44665 -10.4622 9.8383 20
455 2 -6.45602 -7.63269 9.98607 22
456 2 -6.46786 -5.6484 7.5777 22
457 2 -4.78308 -8.84471 7.66157 23
458 2 -5.96829 -5.8262 13.2925 14
459 2 -8.52382 -6.74981 14.5677 6
460 2 -4.91469 -4.55517 5.06797 23
461 2 -6.87313 -1.76449 5.82751 20
462 2 -6.62033 -0.307457 2.29865 23
463 2 -5.3083 -3.01473 2.40662 22
464 2 -4.8339 -4.69559 10.7732 22
465 2 -6.54865 -1.7731 10.6149 22
466 2 -7.23641 0.346619 8.39688 22
467 2 -5.14818 -2.90055 8.14254 21
468 2 -11.0077 -6.32281 12.3612 11
469 2 -2.82587 -1.49475 15.7699 14
470 2 -6.47248 0.446861 13.1361 19
471 2 -5.00863 -2.26724 13.1352 19
472 2 1.28644 -16.1888 4.82564 15
473 2 -3.64915 -13.7452 4.75164 20
474 2 -3.42501 -11.7204 2.11343 26
475 2 -1.73835 -14.7434 2.30848 20
476 2 -2.6401 -13.2821 9.75106 20
477 2 -3.28922 -11.7565 7.23612 23
478 2 -1.13522 -14.5264 7.17995 17
479 2 -3.21824 -14.8312 11.6368 9
480 2 -2.03956 -10.5042 4.96836 21
481 2 -3.41721 -7.65375 5.26085 22
482 2 -3.34276 -5.75902 2.45507 23
483 2 -1.60547 -8.97718 2.3581 21
484 2 -1.24977 -10.6239 10.147 23
485 2 -3.46533 -7.58997 10.7274 20
486 2 -3.2705 -5.66917 8.12885 22
487 2 -1.62087 -8.18884 8.00698 19
488 2 -5.94747 -8.70329 12.722 14
489 2 -2.84644 -5.58732 13.5518 18
490 2 -2.94559 -9.23335 14.1746 10
491 2 -1.28984 -4.63344 5.03297 23
492 2 -3.62944 -1.95638 5.2531 21
493 2 -3.46334 -0.0910638 2.33488 24
494 2 -1.85332 -3.11235 2.51447 22
495 2 -1.55611 -4.91374 10.4393 23
496 2 -3.13332 -1.85215 10.6801 24
497 2 -3.62672 0.0103437 7.86104 21
498 2 -1.60674 -2.62437 7.48658 23
499 2 -0.828778 -3.98118 15.4897 17
500 2 3.69655 -1.72748 15.7507 19
501 2 -3.02361 0.135975 13.0169 25
502 2 -1.63928 -2.99171 13.067 22
503 1 -15.5904 3.56764 -9.82917 10
504 1 -15.8945 0.60577 -7.25774 16
505 1 -16.8995 5.73419 -4.53371 13
506 1 -15.6565 2.4769 -4.26396 20
507 1 -15.2833 0.825713 -1.88027 20
508 1 -17.4055 3.48907 -1.24782 12
509 1 -17.4676 3.11699 -6.96252 12
510 1 -15.4125 8.18641 -4.80429 16
511 1 -15.4165 6.26955 -1.89461 16
512 1 -14.0834 2.25986 -12.5297 11
513 1 -11.6491 6.83948 -7.71171 16
514 1 -12.4477 3.00381 -9.65779 16
515 1 -11.2538 1.05079 -7.45515 20
516 1 -14.322 3.06923 -6.95114 21
517 1 -13.5229 5.81927 -4.70379 21
518 1 -11.8947 2.85145 -4.65381 24
519 1 -11.632 1.31219 -2.13658 23
520 1 -13.5674 3.95362 -1.97959 26
521 1 -4.5227 12.6985 -12.1839 10
522 1 -13.3462 10.1893 -7.50888 9
523 1 -15.8326 5.84812 -7.31665 11
524 1 -13.9627 11.6037 -4.95413 9
525 1 -11.8484 8.63277 -4.86819 23
526 1 -12.3782 6.94227 -1.82331 23
527 1 -13.4401 10.0933 -2.1255 17
528 1 -11.8145 12.719 -2.30722 11
529 1 -12.0743 1.01126 -14.1615 9
530 1 -8.58949 0.779394 -12.8794 17
531 1 -8.3783 8.34109 -10.2319 14
532 1 -10.233 9.5203 -8.24245 15
533 1 -8.43875 2.78943 -10.4576 21
534 1 -8.24696 0.935856 -7.55953 21
535 1 -10.3558 3.84377 -7.64066 21
536 1 -10.335 5.66564 -4.46513 24
537 1 -8.67337 3.3244 -5.05486 22
538 1 -8.51419 1.18555 -2.31246 22
539 1 -10.1228 4.1048 -2.2288 22
540 1 -6.02858 10.6965 -9.35083 19
541 1 -10.1974 5.37298 -10.4631 16
542 1 -8.67463 6.44001 -7.57357 24
543 1 -8.78228 12.6513 -7.83143 14
544 1 -10.3007 11.2537 -4.98589 20
545 1 -8.59423 8.23881 -5.21871 21
546 1 -8.58465 7.04608 -2.17735 22
547 1 -10.3313 9.73914 -2.0961 22
548 1 -6.72275 15.5402 -7.66243 10
549 1 -8.19558 14.5285 -4.93197 13
550 1 -8.57488 12.3956 -2.40077 21
551 1 -10.4914 2.72921 -12.3864 14
552 1 -5.22904 2.93017 -15.9573 13
553 1 -5.0909 0.953464 -12.9989 21
554 1 -6.81969 3.27418 -13.08 16
555 1 -6.75189 5.60517 -10.2365 22
556 1 -5.05492 2.43958 -10.4263 21
557 1 -5.54589 0.767026 -7.65047 23
558 1 -6.96418 3.63317 -7.52208 22
559 1 -6.95002 5.88864 -4.88127 21
560 1 -5.40929 3.15979 -4.99555 24
561 1 -5.03297 1.09528 -2.26297 22
562 1 -6.7432 3.69327 -2.32022 22
563 1 -5.37902 6.56586 -13.3628 13
564 1 -5.20782 9.51404 -14.5487 6
565 1 -6.01928 14.2511 -10.1334 11
566 1 -5.17575 8.23041 -10.6785 20
567 1 -5.19403 6.5557 -7.78304 25
568 1 -7.15615 9.13411 -7.63833 21
569 1 -6.74169 11.1754 -5.36368 22
570 1 -4.89325 8.54175 -5.0631 20
571 1 -5.40607 6.6549 -2.16796 23
572 1 -6.60527 9.56555 -2.32623 21
573 1 -5.18791 12.76 -7.74278 19
574 1 -3.33688 15.6821 -7.93491 15
575 1 -5.06237 14.6257 -5.10843 21
576 1 -5.25304 12.57 -2.81857 19
577 1 -7.11146 15.0376 -1.99976 14
578 1 -3.55399 5.91655 -16.1532 11
579 1 -0.446506 -2.32841 -18.892 4
580 1 -1.83597 0.691704 -13.6542 21
581 1 -3.38417 3.60002 -13.0228 23
582 1 -3.81086 5.44086 -10.3378 22
583 1 -1.7275 2.67524 -10.6794 20
584 1 -2.03646 0.90543 -7.58504 24
585 1 -3.80159 3.74889 -7.42697 23
586 1 -3.27013 5.9955 -4.6634 24
587 1 -2.0328 2.97526 -5.06571 21
588 1 -2.00978 1.35719 -2.29945 23
589 1 -3.87033 3.70767 -2.53751 22
590 1 -1.68606 8.51541 -15.1059 14
591 1 -1.88195 6.45174 -12.833 22
592 1 -2.62394 9.81209 -12.5595 17
593 1 -3.20729 11.2412 -10.6104 17
594 1 -1.83843 8.42581 -10.069 22
595 1 -1.79241 6.76467 -7.58754 24
596 1 -3.62072 9.50116 -7.70604 23
597 1 -3.20196 11.616 -5.2747 19
598 1 -1.78193 8.90588 -4.79534 23
599 1 -1.76975 6.29314 -2.28368 22
600 1 -3.66768 9.46468 -2.29489 22
601 1 -0.192244 11.3457 -10.421 20
602 1 -1.70814 14.3018 -10.5736 16
603 1 -2.01901 14.578 -5.58505 20
604 1 -3.37333 17.3975 -5.30861 12
605 1 -1.9629 17.3792 0.0653961 15
606 1 1.4844 14.7133 -5.23664 20
607 1 -1.80511 12.2312 -2.73255 21
608 1 -3.74281 15.6476 -2.77387 19
609 2 -16.4514 -0.907389 -5.59514 14
610 2 -17.2742 4.99374 -6.29285 13
611 2 -14.9682 -0.772518 -8.6473 13
612 2 -14.9971 2.67206 -2.37968 20
613 2 -15.6957 1.00036 5.44696 20
614 2 -17.0533 4.86355 -2.50055 12
615 2 -17.1198 2.01708 -5.43313 13
616 2 -16.4337 7.21661 -3.60329 10
617 2 -15.2406 6.91689 -0.0359436 18
618 2 -15.0628 9.88427 -5.07611 10
619 2 -14.0206 0.529334 -13.505 9
620 2 -14.1907 2.63424 -10.6524 12
621 2 -11.8945 0.587752 -9.38287 17
622 2 -11.7038 0.751647 -5.37032 20
623 2 -13.7851 3.89039 -5.05272 22
624 2 -14.9725 4.69795 -8.44044 11
625 2 -12.2761 2.72901 -7.54031 19
626 2 -11.8972 1.22443 -0.0745607 22
627 2 -13.4513 4.3102 0.143165 20
628 2 -13.6149 5.86528 -2.73734 23
629 2 -11.8774 3.15555 -2.69102 24
630 2 -15.1331 6.82496 -5.86881 14
631 2 -11.8925 6.90161 -5.65771 20
632 2 -12.4568 10.5422 -5.69128 14
633 2 -12.0082 8.71924 -7.97314 10
634 2 -11.9342 6.70091 0.17959 22
635 2 -13.8233 9.85071 -0.192286 16
636 2 -13.5356 11.9232 -2.8873 12
637 2 -12.0537 8.58877 -2.81728 22
638 2 -8.95665 12.8528 -5.47923 14
639 2 -11.7103 11.9103 -0.417676 15
640 2 -8.55569 0.616673 -10.8835 23
641 2 -10.7852 3.49098 -10.6315 16
642 2 -5.19821 2.80998 -13.9266 20
643 2 -10.7076 0.382233 -13.1141 17
644 2 -8.64203 1.4092 -5.53542 23
645 2 -10.7396 3.99439 -5.27429 22
646 2 -10.2404 5.85697 -8.28791 18
647 2 -8.67469 2.83364 -8.31624 23
648 2 -8.33687 1.276 0.122118 21
649 2 -10.1822 4.03207 0.00800733 21
650 2 -10.4003 5.99321 -2.61626 22
651 2 -8.64811 3.02304 -2.72608 23
652 2 -8.44203 6.19227 -10.5688 14
653 2 -9.51529 11.1918 -8.65324 13
654 2 -3.03309 11.6835 -12.6484 13
655 2 -9.01063 6.50936 -5.3988 22
656 2 -10.0505 9.53089 -5.7991 22
657 2 -7.37776 13.9215 -8.81925 12
658 2 -8.62002 8.08393 -8.26012 21
659 2 -8.45526 6.51667 -0.213032 21
660 2 -10.1462 9.67751 -0.167379 24
661 2 -10.3479 11.6045 -3.01444 17
662 2 -8.5225 8.97727 -2.33863 20
663 2 -6.60639 15.3958 -5.8033 14
664 2 -8.29738 12.8035 0.512922 16
665 2 -8.40281 14.1625 -3.06478 15
666 2 -5.36833 0.57634 -11.1044 22
667 2 -6.66995 3.63068 -10.7701 20
668 2 -5.58279 8.44243 -12.7795 11
669 2 -5.57766 0.8619 -16.1173 11
670 2 -5.41172 0.754542 -5.61946 24
671 2 -7.0714 3.93773 -5.56795 24
672 2 -6.97804 5.65316 -8.2057 25
673 2 -5.23803 2.66523 -8.32381 25
674 2 -5.0644 0.863501 -0.00520355 20
675 2 -6.52317 3.89562 -0.377993 24
676 2 -6.83488 5.59611 -2.93794 24
677 2 -5.30022 2.59502 -3.20243 23
678 2 -4.98551 6.42107 -11.2614 18
679 2 -6.54109 9.02642 -10.1243 17
680 2 -3.39321 9.53537 -15.0305 9
681 2 -5.14204 6.42031 -5.53964 23
682 2 -6.90864 9.26501 -5.72955 21
683 2 -4.98971 14.9462 -8.51466 13
684 2 -5.26912 8.53004 -7.56944 19
685 2 -5.26698 6.49273 -0.283708 24
686 2 -6.70738 9.3182 -0.156556 22
687 2 -7.03135 11.4343 -2.88506 22
688 2 -5.16442 8.60795 -3.00328 23
689 2 -4.99744 12.0971 -10.2759 17
690 2 -6.71145 11.3732 -7.6168 17
691 2 -3.61326 15.6232 -5.92353 19
692 2 -5.41322 14.4836 -11.8545 7
693 2 -5.11861 12.2571 -1.03297 22
694 2 -6.76766 15.042 -0.0350064 12
695 2 -5.50251 14.5189 -3.25901 17
696 2 -1.77302 0.781794 -10.6067 22
697 2 -3.39825 3.75935 -11.2013 24
698 2 -3.45393 5.60287 -13.619 18
699 2 -1.78897 2.7415 -13.7668 22
700 2 -1.68819 0.872546 -5.61826 23
701 2 -3.5511 3.82949 -5.46938 23
702 2 -3.33023 5.53023 -8.51861 23
703 2 -2.25376 2.82069 -8.1462 21
704 2 -1.85472 0.662714 -0.310161 23
705 2 -3.21983 3.47186 -0.33848 23
706 2 -3.69911 5.60797 -2.5908 24
707 2 -2.20078 3.14793 -2.86253 23
708 2 -2.0723 6.27443 -10.7863 21
709 2 -3.33896 9.39482 -10.6136 21
710 2 -1.85988 12.295 -10.1196 16
711 2 -1.46991 8.49629 -13.1856 15
712 2 -1.59839 6.98099 -5.34893 22
713 2 -3.43498 9.52941 -5.8041 23
714 2 -3.41151 12.1703 -7.25826 22
715 2 -1.8994 8.68421 -8.0884 22
716 2 -1.69774 6.3793 -0.284505 21
717 2 -3.31347 9.38429 -0.459638 24
718 2 -3.16292 11.1313 -3.1507 20
719 2 -1.91591 8.23184 -2.86343 23
720 2 -0.237919 15.6408 -5.87365 18
721 2 -1.70593 12.9546 -4.71398 20
722 2 -5.44063 12.6175 -5.15859 19
723 2 -1.74965 18.3643 -4.6919 11
724 2 -1.60988 12.474 -0.607803 21
725 2 -3.3418 15.7426 -0.839997 18
726 2 -1.11904 17.7527 -1.59286 15
727 2 -1.72648 15.579 -3.60794 21
728 1 -17.0968 4.52654 3.84283 14
729 1 -15.0157 3.14418 0.751428 22
730 1 -15.3457 1.18332 3.58574 23
731 1 -17.0301 5.84271 1.03831 14
732 1 -15.295 3.09035 6.22258 19
733 1 -17.3219 6.21229 6.2418 7
734 1 -14.7358 8.67328 0.793141 16
735 1 -15.2578 7.48428 4.01367 16
736 1 -10.3674 11.6544 5.81999 14
737 1 -13.8954 6.21389 1.01455 23
738 1 -11.7052 3.30749 0.700552 24
739 1 -11.8587 1.1908 3.00661 22
740 1 -13.7101 4.0436 3.33511 23
741 1 -13.7557 5.88642 6.08597 17
742 1 -11.774 2.86207 5.98951 23
743 1 -11.7124 1.10618 8.59238 21
744 1 -13.5341 3.63041 8.58636 14
745 1 -15.2352 0.797839 8.67233 13
746 1 -11.6967 2.79263 11.8779 14
747 1 -11.1671 0.9835 14.1629 13
748 1 -13.3359 11.7751 0.557186 13
749 1 -11.8621 8.86095 0.379832 21
750 1 -11.9294 6.29163 3.72436 21
751 1 -13.1297 9.93927 3.342 14
752 1 -11.2911 8.77606 5.67456 18
753 1 -11.8916 6.8666 7.9305 13
754 1 -11.6283 8.71066 11.2746 8
755 1 -8.41816 12.2266 3.19798 18
756 1 -10.2576 5.90741 0.618096 20
757 1 -8.69631 3.0699 0.722217 23
758 1 -8.10681 0.963734 3.19657 22
759 1 -10.1189 4.00175 3.43811 21
760 1 -10.3905 5.79254 5.95076 24
761 1 -8.40008 3.23122 6.09175 23
762 1 -8.67014 1.45707 8.8119 22
763 1 -10.1793 4.28484 8.6054 20
764 1 -9.49203 6.0461 11.697 21
765 1 -8.11367 3.30389 11.5438 23
766 1 -7.83688 1.16479 14.2521 18
767 1 -9.32731 4.18033 14.3776 14
768 1 -10.1219 11.5748 0.469632 17
769 1 -8.49491 8.64092 0.180574 20
770 1 -8.2304 6.90603 3.27287 22
771 1 -10.024 9.46901 3.13408 21
772 1 -11.626 12.566 3.40014 12
773 1 -8.00416 8.52849 5.58551 19
774 1 -8.16942 6.86363 8.46296 22
775 1 -10.2401 9.99855 8.62582 15
776 1 -7.79336 9.14469 10.8383 20
777 1 -9.80915 7.81441 13.8689 11
778 1 -8.17271 14.638 5.06133 12
779 1 -7.77952 14.607 1.40727 12
780 1 -8.35443 12.7254 8.19243 16
781 1 -8.54031 11.6926 11.7104 10
782 1 -6.77088 5.53197 0.591781 23
783 1 -5.14476 2.78358 0.512187 25
784 1 -5.18918 0.766144 3.04615 21
785 1 -6.93413 3.95914 3.24344 23
786 1 -6.77116 5.86717 5.93776 24
787 1 -5.25564 3.15027 5.54336 21
788 1 -4.92583 1.08336 8.34982 22
789 1 -6.64998 3.95966 8.59976 22
790 1 -6.36576 6.0527 10.9955 20
791 1 -4.73999 2.82719 11.1404 22
792 1 -4.62314 1.16568 13.9879 19
793 1 -6.34449 4.05151 13.6419 20
794 1 -6.56282 11.5447 0.214911 22
795 1 -4.8616 8.28953 0.447835 22
796 1 -5.18487 6.74774 3.1336 22
797 1 -6.48275 9.82244 2.74143 19
798 1 -6.94676 11.4458 5.71235 20
799 1 -4.76475 8.6866 5.60694 21
800 1 -4.65989 6.83529 8.47749 22
801 1 -6.4989 9.55484 7.89929 20
802 1 -4.82558 12.3395 8.40053 24
803 1 -4.56601 9.24973 10.8407 20
804 1 -4.68096 7.21432 13.2029 16
805 1 -6.72102 9.55043 14.3436 11
806 1 -4.79525 14.8653 0.118975 16
807 1 -4.8354 12.7794 3.04231 22
808 1 -6.44918 15.7652 7.76605 11
809 1 -6.13989 14.1915 10.225 12
810 1 -5.87839 11.4011 12.0921 14
811 1 -3.43744 5.53649 0.192173 22
812 1 -1.46665 2.67351 0.027162 22
813 1 -1.97024 1.14328 2.97 22
814 1 -3.54384 3.68837 2.80919 22
815 1 -3.39276 5.73955 5.39193 20
816 1 -1.77417 2.92582 5.73514 23
817 1 -1.85121 0.797422 8.23252 22
818 1 -3.77113 4.02296 8.3495 20
819 1 -3.08613 5.61555 11.0871 24
820 1 -1.67765 2.70263 10.6304 20
821 1 -1.47918 1.21311 13.7613 21
822 1 -2.89284 3.95338 13.6305 20
823 1 -3.42222 11.5219 0.0734676 21
824 1 -1.42202 8.54811 0.118974 21
825 1 -1.76086 6.66476 2.95163 24
826 1 -3.15623 9.60038 2.8349 22
827 1 -3.3667 11.6739 5.7851 22
828 1 -1.63325 8.95561 5.74953 23
829 1 -1.67693 6.81051 8.31816 23
830 1 -3.2634 9.52102 8.32883 22
831 1 -3.19843 12.6334 11.1852 15
832 1 -1.62652 8.58509 11.0597 23
833 1 -1.39001 6.86858 13.46 20
834 1 -2.94103 10.2109 13.7158 14
835 1 -3.09503 15.4021 2.76695 17
836 1 -1.98584 14.3621 0.0997332 23
837 1 -1.63322 12.7039 2.98894 24
838 1 -4.92281 15.0741 5.78404 14
839 1 -0.142751 15.711 2.47231 22
840 1 -1.35796 12.7285 8.35351 19
841 1 -2.95615 15.043 8.34905 15
842 1 -0.737517 12.8195 14.4222 6
843 2 -17.1883 -1.77068 5.44066 13
844 2 -16.3914 6.08165 2.96936 15
845 2 -15.5873 6.61398 5.45248 13
846 2 -15.6879 3.08946 3.26846 17
847 2 -16.6949 4.24938 5.60958 13
848 2 -16.622 -0.256614 8.04618 11
849 2 -16.5538 4.24043 0.268268 15
850 2 -14.6999 8.7955 2.76061 14
851 2 -12.2971 1.28903 5.01494 22
852 2 -13.4191 4.10175 5.26164 24
853 2 -13.7519 5.92022 2.89702 22
854 2 -12.1157 3.04283 2.84313 21
855 2 -12.2672 1.43484 10.5231 17
856 2 -15.2688 2.64336 8.12462 12
857 2 -13.1957 5.32679 8.05467 14