ITEM: TIMESTEP
18000
ITEM: NUMBER OF ATOMS
2000
ITEM: BOX BOUNDS pp pp pp
-30.0 30.0
-30.0 30.0
-30.0 30.0
ITEM: ATOMS id type x y z Coordination
1 1 -11.9748 4.4828 -14.6004 11
2 1 -6.05495 -10.9528 -10.8567 18
3 1 0.935124 11.8057 9.93445 15
4 1 10.0128 -11.8885 5.00732 14
5 1 -11.9937 8.49859 -2.86253 22
6 1 9.83021 -8.94876 -13.9943 11
7 1 -12.0817 3.82497 -6.85335 16
8 1 0.79935 -1.9028 6.56865 22
9 1 -9.5081 -0.995999 -12.2072 22
10 1 -13.1646 -8.95303 3.66717 17
11 1 12.4696 1.07763 -10.741 17
12 1 -4.89579 0.804506 -8.71146 19
13 1 -4.89824 -10.9659 0.180694 20
14 1 -12.9078 -11.4735 1.69234 14
15 1 -2.375 2.19807 14.8591 13
16 1 5.02823 -5.55485 5.4796 19
17 1 1.61007 3.48808 6.90124 21
18 1 9.70707 -7.54266 2.02066 18
19 1 -5.68331 9.35093 -14.1225 15
20 1 -2.06033 1.85388 11.9302 21
21 1 -8.98911 0.12402 -17.8008 14
22 1 -14.498 -6.47194 8.05201 14
23 1 11.4366 6.53205 3.28039 21
24 1 1.67801 8.04054 -14.0391 19
25 1 1.93943 5.1312 -15.8156 18
26 1 12.3343 1.54341 6.66283 18
27 1 -7.21056 0.936491 -3.41724 19
28 1 -13.0154 6.09354 -8.34416 15
29 1 -0.270417 0.0269226 -13.7125 23
30 1 -12.5471 8.87886 6.18352 16
31 1 7.56061 -12.5762 2.74774 18
32 1 -0.803655 -4.73002 6.73127 18
33 1 1.31531 -13.4261 -14.0612 15
34 1 8.46023 -13.3403 -0.968713 13
35 1 -7.05851 -12.3805 -8.32957 17
36 1 -15.8932 -6.95995 5.18309 18
37 1 0.185311 -2.26217 -11.1203 21
38 1 -0.621285 -5.30692 -16.0328 20
39 1 7.45204 -9.11029 -16.144 10
40 1 -3.47814 8.76394 -20.4654 9
41 1 -2.93956 2.37327 8.58452 19
42 1 2.60126 -14.7174 5.5229 10
43 1 5.7549 -5.7924 11.8525 11
44 1 -14.8676 -2.99428 -3.11924 20
45 1 -18.4269 -4.24685 4.24645 14
46 1 -8.99178 -2.35846 -3.71277 21
47 1 -3.72545 13.722 -10.4957 13
48 1 -1.24959 -11.6265 -14.3593 22
49 1 1.77008 0.719949 -11.4966 21
50 1 4.18386 -5.20763 -12.69 17
51 1 -2.12841 -1.7794 7.99808 20
52 1 -13.7165 6.37646 -1.46504 21
53 1 3.07649 9.17044 -17.0929 15
54 1 1.91991 11.8317 5.06083 21
55 1 -10.7791 8.15626 -8.10306 22
56 1 -0.614729 11.6852 -2.19354 20
57 1 2.82077 -11.8581 2.43552 17
58 1 6.62394 -8.55536 -9.24126 18
59 1 5.07408 -4.95151 -19.8263 9
60 1 -8.00437 8.9198 8.38268 17
61 1 -14.1437 -3.87691 -10.123 17
62 1 8.84267 -4.70277 1.30369 19
63 1 -7.90121 7.8218 -7.04525 19
64 1 -8.68373 -12.1959 3.01301 13
65 1 -3.9546 13.9933 5.84025 11
66 1 -13.5985 6.34576 -4.97839 17
67 1 -7.6101 11.6881 9.47535 11
68 1 -0.368848 4.44193 -8.88155 18
69 1 0.0159029 6.03294 5.06878 20
70 1 -4.00507 -16.9285 5.217 12
71 1 0.872209 6.24705 1.89472 20
72 1 4.13879 -13.0371 -6.08519 18
73 1 3.7776 12.0146 10.3847 10
74 1 -13.5111 2.12205 -12.6537 14
75 1 -10.2394 8.00876 -5.09035 21
76 1 5.90715 2.72891 9.44456 21
77 1 12.8632 -4.01903 -11.7903 16
78 1 10.5 -12.3621 1.07037 14
79 1 -17.865 -2.79985 1.38621 13
80 1 -7.80858 -5.11321 -0.576777 19
81 1 3.17229 14.2317 3.5244 11
82 1 0.647478 -3.23447 14.1826 12
83 1 -7.79847 -13.0953 -1.19543 20
84 1 -11.593 -3.22131 -2.77769 21
85 1 10.5193 1.27126 4.02409 19
86 1 6.43339 -4.0675 -5.4717 18
87 1 -1.75315 11.2219 3.93034 21
88 1 4.41011 1.84782 3.20895 18
89 1 -5.42737 -4.24752 0.357147 20
90 1 -3.77287 -6.92096 -10.5586 20
91 1 -7.84201 5.71086 6.83043 21
92 1 -8.07676 15.1851 -1.78664 11
93 1 -4.93511 3.79602 -13.6164 17
94 1 5.22498 -0.304815 -11.8463 21
95 1 5.40242 -2.2144 -8.25268 20
96 1 8.01973 10.4098 -9.45057 16
97 1 4.74652 -6.28946 2.5175 18
98 1 7.17098 -11.1172 5.5555 15
99 1 -4.87486 12.8606 -7.21571 12
100 1 -8.25387 14.6251 1.49557 13
101 1 -8.76229 -3.71971 8.94772 13
102 1 -7.17661 6.44487 3.60582 22
103 1 -6.36973 -5.38933 7.44789 19
104 1 12.3131 -7.22877 -8.74687 13
105 1 -7.49396 0.469999 2.60532 21
106 1 -10.0868 -15.4101 -0.582194 18
107 1 9.29572 -9.41579 -7.77988 19
108 1 5.49235 -2.3111 -14.4921 22
109 1 -6.85286 -1.89271 -19.4916 13
110 1 2.5255 8.61445 -5.4605 21
111 1 -7.6964 6.04916 -9.87246 20
112 1 1.49977 6.64262 13.9093 14
113 1 -2.57567 11.1135 -8.18953 21
114 1 -13.3878 10.6743 -1.5754 15
115 1 -2.31885 6.77421 -0.223592 17
116 1 -1.80604 -9.52836 6.94146 19
117 1 8.9083 -2.63032 7.99438 17
118 1 1.39985 -5.82827 -11.4734 20
119 1 3.90139 -6.5289 -9.67165 19
120 1 1.30936 0.835096 8.32591 19
121 1 3.0985 -1.40495 13.7792 16
122 1 -9.66458 -5.47261 -2.64205 19
123 1 10.0871 -7.63281 5.19103 20
124 1 -8.88082 -8.44105 -4.31251 22
125 1 10.5184 -9.41174 0.298454 19
126 1 -7.11949 6.38188 -0.859189 21
127 1 8.86972 3.82082 -18.2966 12
128 1 6.04897 15.9864 -6.93238 11
129 1 -9.09226 -14.2934 8.18048 9
130 1 -9.26785 -14.7958 5.00402 14
131 1 2.71954 -5.70537 -17.5483 14
132 1 2.61995 3.76138 -9.93718 23
133 1 10.9846 -11.937 -2.3427 11
134 1 1.20423 -15.0479 2.95272 18
135 1 -11.9253 -14.0662 -2.94061 12
136 1 14.8724 4.79923 6.97547 13
137 1 15.8318 -3.64603 -9.43643 12
138 1 -14.3142 -3.62064 -0.162388 19
139 1 12.4878 5.74337 0.352317 21
140 1 14.7812 4.02578 1.31997 21
141 1 -7.9818 3.38932 13.4662 8
142 1 5.79495 6.1957 -6.03983 19
143 1 -3.54722 9.72775 6.21807 19
144 1 -6.02941 11.8247 -10.1477 17
145 1 -3.51179 -5.507 -13.6702 15
146 1 6.88812 -9.75212 -12.7893 17
147 1 2.29747 12.5465 -17.1096 7
148 1 5.69161 -2.98708 6.78913 20
149 1 2.05118 1.39967 -20.7593 13
150 1 -4.19309 9.43329 -9.89747 16
151 1 13.5937 -1.50757 -5.28873 16
152 1 -13.7117 8.93929 -8.71136 12
153 1 -10.7779 13.243 -0.462278 13
154 1 8.85856 -2.16077 -12.536 19
155 1 11.873 -9.88578 3.56683 16
156 1 -7.45117 2.34811 -9.922 20
157 1 -9.58612 11.2442 5.973 16
158 1 16.8823 5.2784 -9.82463 7
159 1 3.16748 11.2901 -8.11798 20
160 1 -1.67434 12.8588 0.210198 16
161 1 9.47161 11.1164 -2.21966 22
162 1 -5.18821 8.08834 -4.86851 19
163 1 0.743017 13.9507 -14.3176 11
164 1 2.30608 7.57167 -20.183 12
165 1 -12.8543 -14.2154 -0.00835041 12
166 1 -11.0111 11.4425 -3.14064 14
167 1 -6.13555 -1.95525 -14.0475 22
168 1 -0.218414 -7.6965 -18.0876 15
169 1 9.02448 14.3671 4.15557 10
170 1 -0.133282 16.5521 2.3102 9
171 1 -11.7404 -2.15989 -9.26613 23
172 1 -9.66586 10.8905 1.02909 21
173 1 16.5019 -0.198341 -5.58898 12
174 1 -9.36536 3.36317 -16.3585 13
175 1 7.42321 1.71816 13.6735 16
176 1 3.29676 14.5731 -3.4962 18
177 1 -0.92118 8.40857 6.36231 21
178 1 1.3409 -4.74784 -20.1161 13
179 1 -4.55903 8.91138 3.81247 21
180 1 -0.558845 10.2401 -10.1951 20
181 1 2.40662 -4.09324 11.8277 16
182 1 -11.6695 -7.27926 2.18266 16
183 1 -3.58802 -10.4985 -16.3954 17
184 1 -10.3974 10.9993 -12.311 10
185 1 -4.62882 -13.9653 5.23552 18
186 1 4.26045 -15.3285 -7.72024 14
187 1 -4.96107 8.59325 -17.5969 16
188 1 -17.7855 2.30853 4.70996 10
189 1 -0.701934 7.04661 -3.7012 21
190 1 11.7073 6.49612 -6.29822 22
191 1 -10.8926 4.21562 11.247 14
192 1 3.17217 -10.1342 8.87797 10
193 1 -10.2356 -1.65699 -0.292757 18
194 1 -2.50187 14.1587 -2.92232 17
195 1 -2.95982 2.78094 4.97771 17
196 1 11.8821 5.21748 10.7705 14
197 1 -5.35787 13.3377 1.00458 17
198 1 12.6691 -4.78534 -9.2233 21
199 1 -6.471 11.4174 6.46765 21
200 1 -4.28739 1.78038 -11.5279 18
201 1 13.8765 -3.79437 4.27315 15
202 1 -9.128 -5.58386 5.33968 21
203 1 -18.508 0.0374319 3.02562 12
204 1 -8.06592 -10.5584 -2.04589 19
205 1 0.0231996 5.97903 11.7424 19
206 1 -17.0143 -3.86483 -5.06451 12
207 1 -2.03072 -13.8695 -3.00385 16
208 1 -7.7514 -5.30393 -7.92683 20
209 1 4.75139 -6.82036 -3.8516 21
210 1 1.03374 13.3113 1.88671 18
211 1 -7.62693 -2.29482 0.839393 18
212 1 2.87813 10.7101 8.00749 19
213 1 -8.80737 -2.75268 -6.93935 24
214 1 -8.27937 9.12697 -9.9121 24
215 1 -16.0846 -5.14922 -7.38071 11
216 1 -10.474 -1.60116 3.9773 20
217 1 1.49229 -10.1396 0.695463 19
218 1 4.59583 -13.619 3.47255 16
219 1 -11.8982 8.35995 0.271505 20
220 1 16.8012 2.0532 5.20078 11
221 1 7.13891 0.816351 -7.89463 17
222 1 -6.1049 -7.95715 -17.8983 12
223 1 2.35323 -1.30838 11.0741 20
224 1 6.26896 -15.1687 1.17677 12
225 1 -2.87833 7.76136 -13.2307 18
226 1 1.3055 -10.705 -16.4181 14
227 1 7.84835 -0.239129 -14.572 21
228 1 3.70839 4.03728 -20.6129 13
229 1 -6.62575 -8.48684 -9.18801 20
230 1 -2.85004 11.1215 -12.4604 21
231 1 -11.1847 -12.2328 5.8869 14
232 1 8.32982 14.9514 -5.64633 11
233 1 -8.53754 1.70303 10.7174 19
234 1 -5.87639 10.3992 -7.37927 21
235 1 4.60573 2.08708 6.56371 22
236 1 -4.40497 -8.35473 -15.1196 19
237 1 -2.36685 7.55554 -9.20439 19
238 1 4.36182 2.61651 -12.844 21
239 1 -7.93834 -14.9747 1.86739 19
240 1 -10.5802 1.01178 4.8251 23
241 1 -5.68114 3.76501 5.50819 19
242 1 -0.56279 -11.7179 -11.201 22
243 1 -4.23328 -18.0464 -2.34461 9
244 1 9.77095 -12.0932 -6.1291 13
245 1 -0.84786 -7.17518 -4.50819 20
246 1 11.3584 8.70921 10.4096 11
247 1 4.03343 9.67717 -13.6056 19
248 1 -2.74791 8.64972 -2.90365 21
249 1 -10.7966 1.40181 1.12041 21
250 1 -15.9332 8.7695 -6.27189 9
251 1 0.324794 3.67317 9.55129 19
252 1 5.08457 -18.0276 -2.77967 10
253 1 17.7602 1.27676 -3.42547 8
254 1 2.62568 7.9963 6.06139 19
255 1 -9.35484 3.39581 -0.771648 22
256 1 -14.4477 -8.12802 -5.26084 14
257 1 5.58991 4.67994 -16.4698 20
258 1 5.81389 -2.42992 11.8314 18
259 1 7.47271 8.32579 -13.0822 17
260 1 0.0334466 -9.61073 -7.23643 20
261 1 -3.29796 -2.12528 -14.4675 19
262 1 -2.20558 -14.8967 2.73397 21
263 1 10.807 -1.71432 -4.24706 21
264 1 -12.8377 -4.28151 3.06579 21
265 1 1.16433 -12.3926 -5.84641 18
266 1 -11.1914 -4.77266 -8.3147 19
267 1 4.55565 13.1011 -5.68214 20
268 1 -2.12733 -2.91948 -17.4691 19
269 1 3.1987 2.60773 10.1991 19
270 1 16.8016 1.70506 1.73749 13
271 1 -6.57004 -7.66199 -0.29616 18
272 1 12.229 -7.23457 -11.6353 12
273 1 -0.240738 -7.45725 1.95973 20
274 1 -11.5212 -3.82624 -11.5795 23
275 1 -11.8977 0.202909 -10.4125 20
276 1 -7.20922 -16.5425 6.09237 12
277 1 7.25926 1.74081 4.73866 18
278 1 8.14838 -7.75509 10.1694 11
279 1 -8.64918 -7.68103 -15.5881 10
280 1 2.35555 -5.20189 6.96319 21
281 1 -0.87214 6.64346 -17.3662 17
282 1 7.97692 5.15601 -2.32093 23
283 1 -9.49752 -7.91094 -0.850087 22
284 1 1.87939 11.5105 -0.424185 22
285 1 -5.57412 -2.88993 9.10882 18
286 1 -12.0057 -9.21082 -9.52831 15
287 1 -6.76026 -5.87372 -10.6863 22
288 1 -3.05054 10.7889 -17.7113 13
289 1 -8.85722 -9.12689 -7.33411 18
290 1 -3.58175 -8.3326 -1.80448 15
291 1 7.73531 -2.74507 -16.651 20
292 1 14.6299 -0.96652 -11.136 12
293 1 9.30013 1.46674 0.751019 20
294 1 -3.79864 -5.76546 -4.97462 20
295 1 -11.0728 -3.69396 6.50665 20
296 1 -3.14238 -11.1131 -2.42818 24
297 1 8.74643 5.21684 9.15154 19
298 1 -6.52302 -15.8941 -0.869551 16
299 1 0.181899 -12.0069 -1.43456 21
300 1 -1.92571 16.5051 -3.76132 9
301 1 8.45725 0.322483 -18.292 15
302 1 -7.12343 -5.23497 -17.6215 15
303 1 -13.1106 -9.29674 7.1602 14
304 1 4.05765 4.461 14.3205 13
305 1 3.326 -13.6103 -2.99587 22
306 1 -5.73112 -11.3949 -13.9666 14
307 1 -8.72454 7.80736 -12.444 20
308 1 9.66775 4.04592 3.4371 20
309 1 -7.58655 5.17776 -12.8 18
310 1 3.01405 5.00082 -12.8614 19
311 1 -4.9032 -5.14468 4.03988 20
312 1 4.80247 -14.3132 -13.899 11
313 1 -4.92707 16.279 -1.77733 12
314 1 4.53311 7.63496 3.2229 21
315 1 12.0122 -1.34686 4.14729 21
316 1 -8.08752 -0.111632 5.78864 20
317 1 -3.82029 -9.93263 9.28566 13
318 1 -8.66014 7.78881 0.746993 21
319 1 2.40397 -4.26892 -15.0128 19
320 1 13.6936 9.92687 -6.64604 12
321 1 3.84985 -10.5198 -4.58942 19
322 1 -2.94237 -3.95651 9.88649 17
323 1 -18.2046 -6.45911 2.71526 10
324 1 1.63146 -15.3479 -6.4303 19
325 1 -9.21046 7.09033 10.5785 12
326 1 -8.17141 2.32827 7.38521 23
327 1 -17.1159 -4.19376 7.09567 12
328 1 -15.8302 -9.65939 6.24003 11
329 1 13.5725 -7.39246 -4.29666 12
330 1 -10.4842 -8.65295 5.84378 17
331 1 9.49325 -4.88145 -10.6002 19
332 1 7.1707 -13.652 -7.36209 13
333 1 3.81736 14.8992 -8.79054 18
334 1 -2.85704 -5.72917 1.38183 19
335 1 -10.8127 12.9312 -6.30827 12
336 1 2.08031 0.908494 5.01247 20
337 1 6.84563 4.3888 6.71424 17
338 1 -9.85541 -4.20779 2.29904 19
339 1 6.65503 -9.8713 -5.92447 17
340 1 -5.25497 7.52618 0.954738 20
341 1 -6.15794 10.7164 0.981467 20
342 1 5.44971 -9.6735 3.07396 17
343 1 14.5432 -4.90008 1.7107 15
344 1 -5.41563 0.55152 7.27681 20
345 1 -6.10349 -2.4491 -8.65434 18
346 1 -2.21978 -1.62167 15.351 8
347 1 -2.54201 14.4137 2.8476 14
348 1 10.2495 7.25584 13.2944 9
349 1 -9.06457 12.8405 -9.52307 11
350 1 -1.77104 -3.29906 -20.3532 13
351 1 -10.3445 1.6775 -7.98757 22
352 1 4.07033 -9.22039 -15.7213 12
353 1 -13.5294 2.74083 6.18654 19
354 1 -13.3523 -0.543491 -0.877355 20
355 1 -6.52351 -0.948992 -11.4499 22
356 1 -8.98586 9.22115 -1.9557 21
357 1 8.10636 -4.73107 4.27195 20
358 1 -10.5005 -11.1427 0.123714 19
359 1 12.2464 -9.77166 6.53579 12
360 1 -9.33031 -11.2922 7.53066 9
361 1 -15.2016 8.88152 -0.0844443 11
362 1 -2.11437 -1.65929 4.81299 20
363 1 1.79197 -13.2829 -9.04141 21
364 1 -7.37471 1.74047 -12.8017 19
365 1 10.7635 -1.40842 -18.2154 11
366 1 4.4307 11.9747 -2.31526 22
367 1 -11.7407 -2.66154 -5.74838 21
368 1 4.42567 -12.1866 -15.3288 12
369 1 10.208 4.38552 -14.8599 15
370 1 -6.30062 -15.7367 -8.33905 12
371 1 -17.1613 -8.39548 -6.32605 8
372 1 -2.9274 -9.29996 -5.28106 18
373 1 9.86026 3.78364 13.9533 9
374 1 9.51155 1.42113 -3.16097 19
375 1 -9.3995 6.16085 -15.8372 13
376 1 3.26676 16.85 -5.69274 12
377 1 -14.6083 -2.14416 -7.13131 16
378 1 -8.10597 9.42413 4.03816 19
379 1 -7.28905 11.9331 -1.50663 18
380 1 -9.38323 5.31154 1.51323 20
381 1 11.4754 3.6377 8.79408 21
382 1 13.9601 -3.98595 -3.96125 20
383 1 7.02866 -4.40493 9.69978 17
384 1 11.2419 -0.328237 -7.58082 20
385 1 -3.18557 -15.5595 -5.94889 15
386 1 -6.01995 4.52984 -4.56969 19
387 1 -1.48703 -4.76233 -10.0946 22
388 1 2.42899 8.30991 1.21216 22
389 1 -9.77955 0.107777 -5.62551 22
390 1 5.96405 -9.14231 -2.85773 20
391 1 8.71523 -1.87797 4.84553 19
392 1 -10.0174 -5.41681 -5.40646 22
393 1 -1.77772 -9.99805 0.574566 23
394 1 -7.52715 -8.49114 7.73336 15
395 1 -3.93812 11.6657 -1.33706 21
396 1 -8.58202 -15.2385 -3.46283 15
397 1 8.15196 8.11132 11.3681 11
398 1 -8.62837 12.7552 -4.32962 13
399 1 -0.274441 8.85252 -12.5444 18
400 1 7.09348 12.0087 -0.034975 21
401 1 -11.8215 -8.36164 -3.1522 18
402 1 -3.09424 -9.76413 -9.3462 20
403 1 -15.0219 -1.25202 3.05574 17
404 1 -12.475 10.485 -5.53082 22
405 1 6.67903 -7.96116 5.19347 19
406 1 -5.41178 -13.0045 -2.73498 18
407 1 11.5251 11.6737 4.99597 13
408 1 5.01145 8.87658 -19.2116 10
409 1 -13.1295 5.23385 -11.969 13
410 1 -1.83646 12.3368 -14.9827 14
411 1 -6.47686 3.85146 -8.04586 16
412 1 -0.26525 -12.3819 1.94222 19
413 1 14.2054 1.4403 3.58533 20
414 1 -0.483864 9.60564 -20.1405 10
415 1 -4.14463 -0.269081 10.0956 17
416 1 -15.8648 1.44903 -2.92183 16
417 1 -7.61411 -1.00999 8.9933 21
418 1 -2.84078 -13.4307 -0.0694733 22
419 1 -0.544864 -8.49706 -10.4569 20
420 1 3.47203 -8.30948 -12.4296 18
421 1 -1.16782 -4.42137 3.69852 19
422 1 -11.5245 4.07166 3.50946 22
423 1 -17.8572 -1.35108 6.28206 11
424 1 -11.0126 9.80523 3.64679 20
425 1 1.15817 -9.72831 6.89194 14
426 1 -5.88081 1.10128 -19.1773 15
427 1 5.08005 -11.0787 -11.0734 17
428 1 -1.116 -8.67481 -15.233 23
429 1 -2.20812 -7.00959 8.10379 19
430 1 2.84186 -8.69261 -6.71774 15
431 1 -3.30193 1.93068 -17.2135 20
432 1 5.58541 -12.3298 -1.68056 22
433 1 0.352509 13.2408 -9.12065 19
434 1 -12.7133 6.67772 2.94103 20
435 1 -6.39877 -0.947883 11.8016 12
436 1 -13.4428 -6.59241 -8.41402 18
437 1 -7.28918 -8.08636 4.65044 22
438 1 10.8129 -5.24374 9.48786 16
439 1 6.84171 2.25392 -1.5517 23
440 1 -6.98509 3.76514 1.15132 20
441 1 2.67045 -1.40867 -9.83667 16
442 1 13.0093 -6.95748 4.52157 17
443 1 16.6449 7.86998 -7.07967 10
444 1 -5.69249 3.21392 8.86919 17
445 1 -0.921348 9.66178 -4.78822 17
446 1 4.97331 -6.98722 8.66047 20
447 1 -1.26794 -12.5172 -8.25981 17
448 1 -5.80834 7.18005 11.287 14
449 1 -4.27895 12.2319 3.58483 18
450 1 -9.59557 -9.85542 -10.9996 14
451 1 8.51657 14.3308 -1.54148 15
452 1 5.09413 6.96981 6.37944 18
453 1 -13.2699 1.53606 2.9226 18
454 1 -7.48951 -11.8149 -5.34075 19
455 1 -15.8757 4.35918 6.66511 12
456 1 -11.3466 -7.45008 -6.76438 18
457 1 -1.97307 7.52187 2.89977 23
458 1 -6.23325 -14.13 -11.1971 12
459 1 -3.17068 -6.68851 -17.6518 19
460 1 -7.90146 -17.9951 -2.56247 11
461 1 -7.50884 -3.22356 3.48357 23
462 1 9.32685 -1.91938 1.85497 17
463 1 -4.78462 -6.62725 9.7273 14
464 1 -13.0939 2.94793 -9.54237 18
465 1 6.1587 0.486928 -3.89211 18
466 1 -8.97378 -14.3051 -6.55082 12
467 1 0.362551 3.40147 -12.4366 22
468 1 0.513382 17.3591 -1.24375 9
469 1 -0.707778 5.91461 -14.0656 20
470 1 -2.4123 8.02421 10.1544 20
471 1 -16.2783 -6.44491 -3.87507 17
472 1 -1.62906 14.4016 -8.17492 14
473 1 7.80809 7.36729 -10.4151 21
474 1 -6.78547 -5.49295 -14.1024 22
475 1 5.15597 0.483932 11.6661 20
476 1 -1.76978 -14.9514 -13.6625 13
477 1 -3.32262 -1.00799 -12.1772 20
478 1 7.83863 -10.7492 0.244094 20
479 1 -10.451 6.027 -1.07938 24
480 1 0.123837 9.00159 9.67265 19
481 1 8.65206 6.49069 -4.54572 19
482 1 4.77305 10.3342 -5.09958 18
483 1 -11.794 7.87598 -14.0765 10
484 1 4.63563 1.2869 -9.63386 22
485 1 2.27052 -6.48793 0.444012 19
486 1 -17.4757 -4.42198 -1.96382 13
487 1 0.571679 14.707 -1.10688 17
488 1 -3.99319 6.0801 -16.037 15
489 1 10.1736 3.22566 -0.633591 22
490 1 5.62087 14.6463 -12.2071 12
491 1 5.39148 -6.55527 -1.16885 20
492 1 17.2643 3.85043 -0.971017 13
493 1 -1.57642 -0.121565 -16.2485 23
494 1 1.98594 -8.0456 -3.12929 19
495 1 -0.0782848 -14.6315 -0.270473 22
496 1 6.33455 -10.1525 8.35008 14
497 1 -10.2456 4.871 -9.37405 21
498 1 -12.538 -14.4518 3.46256 13
499 1 -3.7831 -13.5041 -16.1705 9
500 1 8.25113 15.3888 1.21701 12
501 1 1.98091 2.25128 -14.1668 21
502 1 0.244572 0.0594186 14.0118 21
503 1 -14.7521 1.21704 8.37802 17
504 1 -0.903476 -17.6434 -4.91821 13
505 1 -12.1589 -1.4141 1.75938 16
506 1 14.7738 -5.35653 -6.84771 12
507 1 13.2042 -0.703159 -2.04893 20
508 1 -9.40616 10.598 -7.02689 19
509 1 1.06929 -7.00397 -8.74744 19
510 1 5.67123 2.19006 -15.6835 18
511 1 9.73063 -6.26396 -7.34681 19
512 1 -11.2208 1.85153 8.82851 21
513 1 7.17135 12.1052 -3.67886 20
514 1 -8.37637 -2.06145 -15.9148 18
515 1 6.9257 5.50239 -19.6309 12
516 1 -7.56355 -2.91104 6.21794 21
517 1 -3.13838 11.2358 -4.43993 19
518 1 -9.53048 -3.33715 -18.9443 6
519 1 -16.4598 -1.52088 -1.10464 19
520 1 -3.46622 -9.05999 -19.1657 13
521 1 -5.28299 -10.6762 6.92676 19
522 1 0.606413 6.6807 -10.5345 23
523 1 15.063 0.690666 7.77521 11
524 1 15.1287 6.09245 -1.37851 16
525 1 -11.5234 -12.387 -6.02835 10
526 1 -0.454551 -9.99491 -3.87844 18
527 1 0.0603584 -1.35937 -19.4237 19
528 1 -10.5304 9.87808 8.02684 13
529 1 -0.372344 -3.46106 -13.41 19
530 1 4.40395 4.48693 -1.21136 22
531 1 11.1866 -4.21853 -2.66479 21
532 1 3.1848 11.9928 -11.3458 22
533 1 8.29201 -7.75651 -0.657203 15
534 1 14.8616 2.62591 -11.223 9
535 1 3.20415 8.19525 10.0034 20
536 1 -10.1964 6.9698 5.27124 20
537 1 4.45409 9.95391 5.55092 21
538 1 8.50849 -1.66828 13.6978 12
539 1 1.25061 4.94145 -19.1168 20
540 1 -1.90238 -7.09854 -7.47322 19
541 1 0.272439 -3.9782 9.20583 22
542 1 9.32293 11.0468 2.93189 18
543 1 8.0458 3.11625 -13.746 20
544 1 -6.90499 10.4834 -4.35904 19
545 1 -2.95951 8.29572 -6.54213 22
546 1 11.5684 -4.04117 13.1138 8
547 1 10.1685 1.51138 -13.3039 17
548 1 11.3013 -9.91985 -9.11649 11
549 1 9.80461 11.2531 7.99998 10
550 1 -13.0918 -8.69853 -0.0973572 15
551 1 -7.34568 10.5969 -12.4705 15
552 1 -0.774523 -1.05975 10.498 18
553 1 -15.7997 -1.61801 9.19991 10
554 1 -5.02257 13.222 -13.2384 10
555 1 4.40715 -15.8033 -4.70302 16
556 1 5.82178 -2.66198 -11.3982 19
557 1 -0.919788 13.2467 -5.07143 21
558 1 -8.21019 -3.46504 -13.4422 21
559 1 5.13288 -11.8616 1.04469 18
560 1 -13.8502 -6.00082 -2.33725 18
561 1 0.238947 10.1531 -17.364 13
562 1 -6.91735 0.351492 -7.0116 19
563 1 -0.8197 9.2654 12.6935 14
564 1 -18.8216 -7.39163 6.0635 9
565 1 2.61967 5.854 -4.82196 22
566 1 1.10846 -10.0261 -13.137 18
567 1 2.48616 -6.49331 10.1527 15
568 1 8.14629 -1.19538 -6.19139 16
569 1 -12.502 4.18695 0.475589 22
570 1 3.25022 5.1052 10.8371 22
571 1 5.96778 12.3195 -9.10356 20
572 1 9.881 -3.35352 -7.93216 19
573 1 0.761553 6.341 8.5252 21
574 1 -0.474601 6.82893 -21.6096 10
575 1 -5.72412 -14.4438 7.45469 13
576 1 -1.80932 2.22362 -13.4975 23
577 1 10.4424 1.81934 -16.648 14
578 1 3.29255 10.8197 2.90266 22
579 1 9.74687 6.13957 -12.8074 18
580 1 -4.35912 -4.64288 -19.5211 16
581 1 -4.10041 -13.0812 -8.81927 20
582 1 -13.6004 -4.76536 -13.3287 11
583 1 13.0558 2.83618 -1.48903 19
584 1 16.8854 5.86575 -4.06785 12
585 1 6.80274 -6.75402 -11.498 16
586 1 13.1797 6.86585 8.53544 14
587 1 1.96702 -10.2476 -10.1141 18
588 1 6.17455 2.52497 -19.0065 16
589 1 3.06122 9.06198 -2.13232 22
590 1 -7.28713 0.776937 -0.524606 22
591 1 8.6676 8.35762 8.40505 18
592 1 10.4313 4.23697 -4.24736 18
593 1 15.062 -3.02806 -0.782707 14
594 1 13.5076 4.37059 -8.86518 20
595 1 13.0772 0.887533 9.77753 16
596 1 14.7525 3.77846 9.76793 11
597 1 3.76825 -3.94004 9.40479 23
598 1 11.1636 9.29829 -8.57141 16
599 1 3.60067 1.66339 13.7855 15
600 1 16.4328 -0.362595 -8.32939 12
601 1 4.38166 -0.917539 8.56161 16
602 1 -9.80889 2.49464 -11.629 19
603 1 13.4467 0.722723 1.24092 19
604 1 10.7116 -6.38028 -0.335941 22
605 1 -0.309306 -7.3757 -1.34102 21
606 1 -10.8179 6.44424 8.59736 19
607 1 7.82248 8.36522 5.07007 19
608 1 10.2538 0.333321 8.95956 20
609 1 6.33824 12.974 2.42867 19
610 1 1.91355 13.4949 7.49935 15
611 1 3.25222 4.99671 5.01806 18
612 1 1.16926 -18.3193 -3.24547 12
613 1 -6.08529 9.07959 -1.50109 22
614 1 5.54017 8.63242 -7.75356 19
615 1 11.6835 -3.88752 -15.4953 11
616 1 0.596087 15.9423 -3.89872 16
617 1 -3.56256 -13.1206 -12.5282 19
618 1 9.02691 -6.13168 -15.7936 13
619 1 -16.5328 2.25713 1.69422 13
620 1 -5.69617 8.03663 -11.5118 18
621 1 -2.69107 -17.3028 0.53924 12
622 1 -7.02938 0.961982 -15.9436 18
623 1 -13.3849 -0.279311 -4.17758 20
624 1 13.2843 -7.6443 1.52146 14
625 1 11.6562 11.0437 0.0433884 15
626 1 0.262466 -13.6256 7.88077 10
627 1 -14.6417 -0.770551 -10.4576 12
628 1 -1.35429 0.262367 -21.6502 10
629 1 5.59933 -0.499168 5.25561 20
630 1 -3.07929 6.50976 12.8339 17
631 1 5.96333 9.39952 -15.617 12
632 1 11.0505 -2.8564 10.2397 16
633 1 8.88972 4.43994 -9.35522 17
634 1 10.9807 14.4289 -1.08664 11
635 1 1.75733 -16.2604 -9.37207 14
636 1 -12.5282 -0.0447547 13.4909 6
637 1 12.0693 -3.27457 0.286735 19
638 1 -1.57332 13.3519 7.90988 14
639 1 6.69771 11.7297 -12.6524 17
640 1 -14.2176 11.7378 -7.51262 9
641 1 10.0335 7.88899 -1.72558 18
642 1 -5.73992 -16.7081 -5.2373 11
643 1 13.8259 -5.83226 -1.45897 16
644 1 5.55627 14.6122 -0.817508 13
645 1 -4.39443 6.09907 8.60187 19
646 1 -7.2275 -6.17623 2.45943 18
647 1 -8.67051 -3.65489 -10.2494 22
648 1 8.02483 0.130168 11.3463 16
649 1 -0.628331 -11.4299 10.5676 8
650 1 8.73871 2.48394 10.2899 19
651 1 -3.14574 9.94489 0.677547 24
652 1 10.5295 -0.634795 -1.15299 19
653 1 3.93136 4.99245 1.79372 18
654 1 3.0754 2.61705 -17.9552 26
655 1 -14.4371 -3.51487 5.84731 19
656 1 10.641 -1.02831 -15.413 17
657 1 -4.37351 -4.94845 -8.09121 22
658 1 7.70677 -11.224 -9.68631 15
659 1 10.0607 5.97054 6.20471 18
660 1 9.48195 5.99356 0.43381 22
661 1 -13.8016 2.34907 11.4294 11
662 1 11.6619 9.33605 2.45707 17
663 1 -0.708463 -5.73142 11.696 14
664 1 -1.57099 4.75938 7.30714 20
665 1 -4.99127 -4.32003 -16.0227 18
666 1 -10.6643 3.9449 6.63269 20
667 1 6.28987 3.71991 11.7991 21
668 1 -9.7411 -17.176 3.7708 13
669 1 14.3964 7.91767 -4.58829 15
670 1 4.51375 -11.2668 -8.3837 19
671 1 0.318476 6.70015 -6.92205 20
672 1 8.727 7.33403 -7.82762 18
673 1 8.68589 9.45296 0.606862 21
674 1 4.86148 0.187314 -20.0409 12
675 1 -0.720671 1.05452 6.58056 19
676 1 1.92148 14.4159 -6.71134 19
677 1 12.2175 5.82876 -2.63496 20
678 1 -6.42549 -6.70139 -3.25099 18
679 1 -4.9859 -1.2214 -17.0467 23
680 1 -15.0619 10.0997 -3.75569 12
681 1 10.3959 -5.61401 -13.1193 16
682 1 7.09342 4.29438 1.26495 21
683 1 11.2037 6.18585 -9.62472 18
684 1 11.0487 10.2628 -5.66546 14
685 1 -5.10358 2.2906 2.752 16
686 1 -6.58661 3.69036 -1.82037 19
687 1 7.96474 2.89135 -5.07347 18
688 1 12.9235 2.47999 12.6151 11
689 1 13.2819 -1.30649 11.3804 9
690 1 -2.65919 -12.6343 7.71511 16
691 1 -7.23382 7.70043 -15.5291 13
692 1 -0.059097 10.903 6.96245 19
693 1 5.97584 -6.27097 -16.4704 15
694 1 6.05955 -3.32084 2.9593 19
695 1 5.52645 9.7263 -10.5702 19
696 1 4.96092 9.98343 0.322137 20
697 1 12.0386 -4.47714 -5.81248 19
698 1 7.23594 5.42246 13.8537 12
699 1 -12.7136 -6.27243 4.99874 23
700 1 2.68442 -13.7341 0.123214 22
701 1 2.64973 -2.06169 -13.0206 21
702 1 -13.0811 10.9703 1.85509 15
703 1 1.0638 2.99501 3.29931 19
704 1 4.04283 -5.34025 -7.05433 18
705 1 5.12549 6.93878 -2.96016 21
706 1 -15.6704 -4.33043 2.62873 18
707 1 -4.59274 4.39971 13.3534 13
708 1 -4.30937 5.61083 -18.7242 15
709 1 -7.92142 6.09953 -18.4805 10
710 1 2.64037 -10.8642 -1.77889 20
711 1 6.15305 5.30318 -13.4095 19
712 1 1.46752 -5.82626 3.96653 22
713 1 -4.07944 5.24835 2.32711 20
714 1 -12.9949 6.04033 6.38615 21
715 1 4.24987 -3.71856 -17.2952 18
716 1 4.21495 -12.0174 6.40725 12
717 1 2.09796 11.4877 -3.96868 21
718 1 -5.00306 1.6891 12.3924 18
719 1 -10.7087 -4.95803 -14.2417 14
720 1 -6.35301 -8.64572 -12.364 16
721 1 -9.31466 -7.17395 -12.7537 19
722 1 -0.857137 13.9221 -11.8528 13
723 1 1.05416 -4.40454 -8.35249 21
724 1 -0.0486503 10.6881 1.64122 21
725 1 2.76525 -12.638 -11.842 19
726 1 7.0564 -15.4248 -2.3642 12
727 1 3.8115 -8.07687 5.11569 18
728 1 13.8775 1.25349 -7.51298 16
729 1 1.31607 -15.9653 -12.4484 10
730 1 -12.8822 -3.43668 8.95114 14
731 1 -1.3686 1.59778 -10.3711 22
732 1 -1.199 -16.8772 -1.359 17
733 1 -11.2365 -12.6434 -9.03897 7
734 1 -13.1721 4.25579 8.78209 16
735 1 -8.87229 -18.1366 0.833864 14
736 1 15.7536 4.38313 -7.0985 14
737 1 -6.21131 16.6957 0.656566 9
738 1 -8.49419 3.21516 4.04541 21
739 1 -15.4119 5.83247 1.23957 13
740 1 3.34454 -2.94345 4.60679 19
741 1 -12.8603 -1.43869 -12.6691 16
742 1 3.24801 6.36872 -8.30545 20
743 1 9.97728 1.53449 -9.73985 17
744 1 6.25956 10.3746 7.58295 14
745 1 11.0906 2.67118 -6.72183 18
746 1 -12.6182 0.409975 -7.55516 19
747 1 -15.1607 -6.87303 -10.7472 9
748 1 -1.30011 5.33934 15.1803 10
749 1 3.9716 6.82948 -15.188 17
750 1 11.1992 13.654 2.29136 12
751 1 -3.50126 -4.30357 7.23508 21
752 1 -1.23184 -16.5724 -8.12851 10
753 1 -7.03017 -18.1527 3.31565 12
754 1 -0.299222 -7.35073 5.83296 19
755 1 13.4496 8.20832 5.21014 13
756 1 1.4934 -7.5061 -14.3256 20
757 1 -16.2725 7.15255 -2.92689 11
758 1 6.92322 8.99357 -2.06529 24
759 1 -4.63348 -7.94168 2.41966 21
760 1 7.9989 6.58169 -15.9692 14
761 1 -0.809211 -14.6956 -10.5009 17
762 1 2.62083 -16.5892 -1.83343 19
763 1 0.638721 -14.6588 -3.51041 22
764 1 7.30383 1.52077 -11.368 19
765 1 5.90895 16.4418 -3.50159 10
766 1 -3.72744 2.68107 -21.0532 10
767 1 -2.14839 -4.04625 13.1903 10
768 1 -0.288736 2.83692 -16.2285 23
769 1 -11.1759 -2.29116 -14.7897 14
770 1 -12.9157 -5.28611 -5.07286 22
771 1 1.82958 14.7215 -11.089 12
772 1 7.91412 -4.53839 -1.84787 21
773 1 -5.20181 -6.847 -21.5702 6
774 1 -6.92043 -7.16275 -6.00746 18
775 1 13.5901 4.65929 -5.04935 19
776 1 12.205 -8.55043 -1.90767 16
777 1 -5.05398 9.71315 9.13106 19
778 1 8.29744 -9.70144 2.89749 20
779 1 10.6256 -7.41035 -4.07802 20
780 1 12.859 -1.90916 7.78542 17
781 1 0.532182 8.7528 3.67251 20
782 1 -13.0931 -0.675825 10.2486 16
783 1 -15.2572 7.0765 4.40818 11
784 1 -1.47458 -15.1723 5.38265 13
785 1 6.8323 0.661283 1.44346 19
786 1 6.11186 6.13583 9.6865 20
787 1 -17.1269 -0.468808 -3.95491 8
788 1 7.42002 -7.33943 -6.09646 20
789 1 -11.5748 11.2154 -9.11168 17
790 1 1.655 6.09767 -1.49682 20
791 1 3.51028 -16.8624 3.05342 11
792 1 8.87056 -4.18661 11.9525 15
793 1 -0.295845 8.88849 -0.762753 19
794 1 0.631355 -9.69498 4.19887 18
795 1 -7.04626 -4.5775 -4.39662 20
796 1 1.30167 1.52687 11.9383 19
797 1 -19.6051 -6.69996 -4.15011 7
798 1 2.58473 9.71089 12.7703 11
799 1 7.54361 9.14056 -5.22584 20
800 1 -9.57954 -9.21999 2.87569 16
801 1 -5.13946 -16.2207 2.19866 14
802 1 11.6056 -7.48546 7.94207 12
803 1 13.9425 -5.24496 7.22136 11
804 1 7.73914 6.78715 2.46112 17
805 1 -3.40259 5.55184 -5.61091 19
806 1 -1.19602 -6.60961 -12.7166 20
807 1 -2.43333 4.84563 -11.5237 20
808 1 -2.84064 -0.649949 13.0149 17
809 1 -2.52467 17.2568 0.821424 9
810 1 14.8955 -1.31619 1.94557 16
811 1 2.48434 9.01322 -10.7787 18
812 1 -7.16577 9.70251 11.8896 9
813 1 6.65361 9.85631 2.88436 20
814 1 6.81042 -4.72271 -13.9187 16
815 1 -5.69715 -9.73868 -4.19742 21
816 1 -3.32464 -2.10494 -9.77299 18
817 1 15.2253 -1.34715 5.64825 12
818 1 3.28044 -0.0449648 -15.1914 21
819 1 -4.29241 9.20689 13.5495 8
820 1 6.97474 -13.6576 -11.0206 10
821 1 4.09054 6.26668 -18.4298 21
822 1 -5.41687 -10.6001 -7.32362 19
823 1 11.7134 3.8002 -11.479 15
824 1 16.172 -2.00849 -3.11327 12
825 1 0.0811003 -8.06415 9.73584 15
826 1 -3.14233 -9.96853 -12.6294 21
827 1 8.84413 11.8292 -6.48947 16
828 1 -2.24946 -8.49639 3.79501 18
829 1 -15.5041 3.21898 -0.593427 15
830 1 12.2334 1.34944 -4.84727 20
831 1 17.731 4.89867 2.12338 10
832 1 0.698279 -2.32569 -16.131 20
833 1 -10.5088 12.8289 2.99455 15
834 1 15.1199 5.64867 3.9858 16
835 1 10.7025 8.83855 -11.2341 12
836 1 5.41261 -0.587556 -17.1318 24
837 1 9.10638 -4.90798 -4.64303 17
838 1 -10.1128 0.515265 -2.48465 20
839 1 11.9532 3.37194 2.08196 22
840 1 -13.0689 -11.2007 -1.68853 13
841 1 -11.3911 7.73064 -11.1628 16
842 1 4.05339 5.34142 8.22125 23
843 1 -9.08526 -0.329844 -9.35533 22
844 1 -15.1651 4.3489 3.73359 20
845 1 -4.60817 5.31896 -10.3675 17
846 1 9.63753 -8.68787 -11.244 19
847 1 -14.0156 -10.1841 -7.10563 10
848 1 11.6188 -10.2177 -5.23738 15
849 1 -12.4247 2.4452 -1.70271 21
850 1 -10.0392 -6.84762 -9.735 24
851 1 10.9713 8.64032 5.91629 17
852 1 -3.36194 -11.3434 2.86985 21
853 1 10.8628 0.649302 12.5759 14
854 1 10.8892 -3.73338 6.15958 19
855 1 11.2236 -4.45723 2.93634 23
856 1 -8.86547 2.90929 -4.56393 20
857 1 -2.43524 11.2205 10.333 13
858 1 6.28229 4.65041 -10.7227 19
859 1 -1.93083 -6.22451 -20.6664 13
860 1 -7.71119 12.3637 3.6741 17
861 1 -14.1945 -11.9311 4.80969 10
862 1 8.22285 14.3045 -9.21058 10
863 1 -2.8374 4.54786 10.764 19
864 1 16.831 -2.91793 -6.19873 12
865 1 9.47757 -10.1914 8.20449 12
866 1 -1.6018 9.07316 -15.1765 19
867 1 1.20169 11.1507 -13.1043 20
868 1 -10.5811 -0.917137 7.58057 23
869 1 18.0105 5.42537 5.88015 6