ITEM: TIMESTEP
15000
ITEM: NUMBER OF ATOMS
1500
ITEM: BOX BOUNDS pp pp pp
-30.0 30.0
-30.0 30.0
-30.0 30.0
ITEM: ATOMS id type x y z Coordination
1 1 -0.0235258 -19.0696 -6.62656 7
2 1 6.93321 -11.33 6.41004 17
3 1 -13.6787 5.06261 3.9337 8
4 1 -14.4108 -1.30604 -6.0155 9
5 1 -1.49162 -11.3965 15.5177 12
6 1 -11.0749 -3.59576 -5.77802 18
7 1 -7.1632 -14.9891 7.46778 17
8 1 -10.2022 -11.4291 5.02203 20
9 1 2.72586 0.330012 17.685 16
10 1 -1.84704 3.78908 10.3367 20
11 1 -7.88527 7.37692 -6.94288 10
12 1 4.21022 -4.74691 16.0733 17
13 1 11.7191 0.292119 12.1778 18
14 1 0.142052 11.1 -6.91607 10
15 1 1.80554 -0.938806 -9.65491 12
16 1 -2.20636 -3.43606 -4.63824 20
17 1 6.4195 -14.4463 9.44162 8
18 1 12.1768 -12.1444 -2.93714 11
19 1 -6.26891 -20.3148 2.27405 9
20 1 -3.16942 -14.5084 -11.1578 7
21 1 1.26064 3.38565 17.6564 14
22 1 -3.55434 -17.0043 9.80704 12
23 1 7.04406 -6.17892 18.1385 14
24 1 -15.5483 -4.45422 4.05499 13
25 1 -9.18783 -4.45009 3.15876 14
26 1 -5.38995 10.4701 -3.97859 15
27 1 2.34308 -2.96502 -7.63258 15
28 1 1.64991 -9.41457 -7.90984 18
29 1 -1.97085 -8.58197 18.6188 8
30 1 -12.3883 2.51064 6.37719 16
31 1 4.07686 9.29403 10.7434 15
32 1 -9.74092 7.55924 -3.44504 11
33 1 -1.62742 11.1671 1.88604 15
34 1 4.94107 -11.8619 3.93592 19
35 1 6.25842 -10.0496 -1.75443 17
36 1 -5.59882 4.26262 15.6133 17
37 1 -13.5472 -3.51811 -3.82402 18
38 1 7.00268 -2.99986 7.85679 22
39 1 -8.48518 10.5722 1.42611 21
40 1 -8.21385 -8.51873 13.4973 14
41 1 -12.8475 2.80919 -2.76851 12
42 1 1.14158 4.02681 10.6703 21
43 1 4.91393 -16.6551 5.24501 8
44 1 -0.479376 1.96548 20.1029 8
45 1 6.57203 -10.3541 -5.99464 17
46 1 9.9655 -14.0174 -0.274127 14
47 1 0.475252 -9.60423 13.5888 21
48 1 -8.25547 -19.0848 8.39745 9
49 1 -10.2125 -5.18378 5.91998 21
50 1 15.7785 -1.9787 11.0978 5
51 1 4.55675 -7.8438 -1.04072 19
52 1 -3.66847 5.45213 13.4559 18
53 1 2.44184 -5.7797 13.1811 17
54 1 -1.93294 -14.6845 -8.00797 18
55 1 -12.4069 10.7189 4.97349 11
56 1 -5.28766 4.24687 -2.77193 19
57 1 8.35745 -5.35541 -3.23453 17
58 1 5.77244 -5.96458 8.44758 18
59 1 3.85839 -8.54506 18.0398 11
60 1 -9.716 10.4429 -1.53055 12
61 1 -12.7597 5.39266 11.9311 12
62 1 -5.32823 5.53285 7.7728 18
63 1 -5.94197 -11.6564 11.5744 17
64 1 11.5405 -10.0335 -5.48656 7
65 1 -15.5929 -2.80111 8.69537 12
66 1 9.04173 -11.0987 -0.530868 20
67 1 2.43939 2.04861 -5.54319 19
68 1 -9.24852 -6.90131 -6.08609 17
69 1 -4.1535 8.04553 1.62229 19
70 1 -11.909 1.37387 -5.63845 14
71 1 -1.46655 7.36534 -3.28054 17
72 1 -0.29932 6.51746 4.89814 20
73 1 -13.126 -10.6546 12.3387 9
74 1 -3.3499 -13.7622 -2.15525 21
75 1 0.439527 -16.1356 -5.43222 18
76 1 -1.5824 -0.034667 13.4273 18
77 1 -13.7345 -10.6532 1.84315 15
78 1 -15.0824 -14.4361 2.5619 6
79 1 10.6979 -11.3706 2.56401 17
80 1 -7.33651 5.83276 5.25184 21
81 1 2.25428 2.50015 -9.62922 14
82 1 2.8335 1.59484 -2.9876 15
83 1 7.28892 -8.88677 3.83722 18
84 1 0.884083 -13.0235 12.8958 15
85 1 -11.4625 -13.6096 12.4992 8
86 1 -12.8508 -4.06039 7.52281 17
87 1 2.19057 7.48157 10.7672 16
88 1 -5.45823 7.217 17.4397 8
89 1 -4.31342 13.0793 2.50717 13
90 1 2.54791 -8.10176 -10.9457 12
91 1 11.1452 -4.06751 17.3313 11
92 1 -2.06943 4.54379 -2.43704 19
93 1 14.0908 -0.297692 -2.30849 11
94 1 -9.95179 5.03294 -1.55805 17
95 1 -9.5207 9.65308 4.35554 22
96 1 6.83771 -2.41585 -3.71802 17
97 1 8.96612 -5.76728 2.99803 16
98 1 -6.29667 2.7838 -5.78562 20
99 1 1.50936 10.7777 1.30258 16
100 1 8.29352 5.60377 2.31063 20
101 1 -3.98998 12.5562 -0.73216 11
102 1 -10.2378 -14.9988 -2.56443 16
103 1 -1.18659 13.1413 14.257 6
104 1 -11.8365 -8.69391 -1.12449 16
105 1 12.086 -11.9419 0.353611 11
106 1 -1.81369 5.52103 7.62953 20
107 1 -1.77134 8.75791 0.0383887 18
108 1 3.62649 -5.14045 18.7936 15
109 1 -13.3337 -8.81807 9.45185 14
110 1 -4.81915 -12.4695 8.31728 21
111 1 -2.41506 -16.529 -0.281613 18
112 1 -5.722 5.76104 -6.82561 16
113 1 8.38179 7.65048 -1.12943 12
114 1 1.08527 -9.26055 16.9875 13
115 1 -11.1736 -0.0243394 5.11124 20
116 1 2.74094 12.5222 4.05464 14
117 1 -2.84248 2.76125 13.6272 21
118 1 -7.73609 11.5733 10.2133 9
119 1 -8.06356 -3.24235 -7.62271 14
120 1 9.30707 -12.2209 8.86785 10
121 1 -7.26406 -6.43089 15.0525 17
122 1 -12.4696 3.56196 14.9467 6
123 1 -7.72765 -12.1639 1.80597 18
124 1 -13.5863 2.23985 2.72792 18
125 1 -3.5198 -15.0141 2.85696 17
126 1 4.09994 -10.8027 0.242936 21
127 1 -5.762 9.68283 15.922 10
128 1 -10.4635 -3.77253 -2.76027 21
129 1 -7.30515 13.4893 1.91734 16
130 1 -15.3018 -3.76517 -1.65498 13
131 1 -10.2629 -1.90449 13.1633 17
132 1 0.0327083 -15.0389 6.91234 18
133 1 4.62565 -12.7485 12.5861 9
134 1 13.4512 -3.31089 3.42607 15
135 1 4.88201 3.50093 0.00446553 21
136 1 4.80833 -0.113695 13.1199 19
137 1 -6.57479 3.4829 -9.59933 10
138 1 9.93668 -3.12155 -7.69063 12
139 1 -8.43598 -9.85395 -0.67348 19
140 1 -7.01983 11.8868 -1.39561 16
141 1 -7.49819 9.92175 7.33294 20
142 1 6.79969 1.36138 11.041 21
143 1 -4.89635 -12.7799 -9.05568 15
144 1 -5.67856 10.5532 -7.4081 8
145 1 0.484951 4.67224 -7.84376 19
146 1 -9.42221 3.61811 11.651 14
147 1 -10.4438 1.75441 16.2364 9
148 1 -0.163182 -13.0721 -10.0078 12
149 1 -6.24056 -16.6869 4.34086 18
150 1 3.56434 -14.2828 2.22793 17
151 1 2.63868 11.0231 -2.26817 11
152 1 -4.42589 5.18627 0.0922424 19
153 1 -15.353 1.77823 5.53954 13
154 1 -0.315818 2.74871 13.0649 16
155 1 13.2098 0.541205 1.60385 14
156 1 -0.550118 6.95425 10.6497 18
157 1 -10.0982 6.4431 4.12761 18
158 1 -6.34689 -14.2791 -3.62882 18
159 1 5.61093 5.0538 -5.10293 16
160 1 3.22945 -2.65122 13.7487 20
161 1 4.16584 6.76794 -6.87587 11
162 1 1.45958 -12.5633 -3.39932 20
163 1 -7.58612 -9.57996 -7.06544 16
164 1 3.95764 -2.50491 -1.9579 18
165 1 -8.9902 -6.0046 12.2969 19
166 1 2.30991 -13.4691 5.16221 19
167 1 -11.0288 -13.9664 -10.5536 4
168 1 8.04196 10.1337 4.26443 14
169 1 -5.36647 -3.30673 -5.47891 18
170 1 4.51101 1.81173 19.2963 9
171 1 12.5484 -1.8047 6.15327 16
172 1 5.78189 -12.7795 -7.92628 9
173 1 -11.8201 -7.01873 -4.13965 22
174 1 -12.7568 -5.72933 -1.73879 23
175 1 8.1577 -3.93094 15.319 20
176 1 4.04075 -4.49899 11.0358 19
177 1 -7.96399 -14.9161 -5.78578 15
178 1 -0.392339 -10.9643 10.5894 22
179 1 -3.90491 7.4062 -5.31601 16
180 1 4.97822 3.97577 5.08555 20
181 1 -9.14526 -8.30206 5.70986 21
182 1 1.13571 9.6038 5.07997 22
183 1 -9.01369 -3.59668 16.2639 12
184 1 -7.88344 -14.4937 -0.483148 16
185 1 -11.1696 -9.0824 -7.37275 14
186 1 -4.80265 -13.9483 0.722903 18
187 1 -3.49795 -10.8787 5.44629 20
188 1 15.2164 -1.70314 7.45136 11
189 1 -6.19062 -3.98427 13.7449 18
190 1 -5.01945 -11.6206 3.11007 21
191 1 -3.27641 -16.7664 5.82831 19
192 1 -5.60189 10.6723 1.21403 19
193 1 1.24895 -7.76443 -5.17552 17
194 1 -10.1433 -11.3117 -8.33377 9
195 1 0.203918 -18.8174 2.96294 12
196 1 -5.5015 -14.4064 -6.63103 18
197 1 -3.39201 3.14359 -7.43796 18
198 1 14.3845 1.23421 9.91074 12
199 1 -6.38291 -5.87446 -6.6004 16
200 1 3.62012 3.72158 -7.27961 15
201 1 1.09037 12.5042 6.704 16
202 1 -2.33765 9.04602 4.07262 19
203 1 8.98442 -5.88771 7.71216 18
204 1 -9.72239 -0.453859 10.8367 12
205 1 -5.21729 -8.90012 17.3613 9
206 1 -5.79026 9.66795 9.74088 18
207 1 -0.083922 -10.5605 -5.77422 20
208 1 2.28647 -11.6191 2.063 19
209 1 -5.10363 -5.11182 17.2181 13
210 1 -7.52591 -10.3173 15.8987 10
211 1 12.1121 -7.94395 0.822478 16
212 1 4.83917 -9.65877 -8.89309 13
213 1 8.25144 -13.3714 -2.61233 18
214 1 -10.3182 12.5895 5.72563 9
215 1 9.45096 -1.84563 13.48 19
216 1 -10.2437 -4.42184 10.2574 18
217 1 6.05564 -15.4651 -3.27969 13
218 1 -5.58787 9.30453 4.60604 18
219 1 -7.45312 7.10355 8.51968 17
220 1 3.84956 -8.6791 12.8929 15
221 1 9.74409 -6.89925 16.4012 13
222 1 -4.90153 3.57384 10.2027 16
223 1 -12.2826 -13.1679 2.66221 18
224 1 -1.55641 0.245358 17.9102 11
225 1 -5.53198 12.3564 6.92491 14
226 1 -14.8093 -6.16992 9.43025 10
227 1 -12.6426 5.70856 8.06466 15
228 1 -5.07937 -8.46236 -5.30348 19
229 1 -7.13157 8.68576 -1.24 20
230 1 11.7944 -2.08677 14.5908 16
231 1 -11.4107 -14.1231 6.16833 14
232 1 9.60273 -11.6882 11.697 8
233 1 -12.6355 8.35626 3.64477 13
234 1 -1.10165 -6.42741 13.4608 20
235 1 -0.597695 -14.3297 -2.0778 20
236 1 -8.63034 -8.90808 -4.29561 19
237 1 5.27827 -2.99319 -7.07064 19
238 1 4.32228 11.6231 8.50722 19
239 1 -12.4997 -2.47366 -0.949872 19
240 1 0.128396 -13.3506 -6.32043 17
241 1 -7.8448 -19.9996 -1.46878 8
242 1 -14.9132 -6.58605 -4.35659 13
243 1 -7.22348 -10.717 4.87922 19
244 1 3.03787 5.91424 -1.09293 20
245 1 -9.9175 -0.846525 -6.97357 16
246 1 -11.0014 -12.1218 -0.245631 22
247 1 -6.93947 6.61457 14.366 15
248 1 -11.9949 10.1058 1.27795 10
249 1 -10.1853 1.6673 8.99263 16
250 1 7.13924 -5.24247 -6.06804 17
251 1 14.2921 -1.85333 1.26892 13
252 1 0.447043 -11.0254 -0.29978 20
253 1 -3.56096 6.01886 10.5864 17
254 1 -10.0384 -0.819111 -0.232537 21
255 1 2.62878 -15.0852 -3.13769 17
256 1 12.2312 -3.02383 11.3633 11
257 1 -9.39228 -6.5195 -2.28871 19
258 1 -5.23635 -13.8694 5.49327 20
259 1 -3.68231 6.44106 5.14342 23
260 1 -13.2524 -14.5387 -0.593674 14
261 1 -10.4057 1.37729 1.65593 15
262 1 -2.46422 10.1986 -9.29091 10
263 1 1.01627 10.0839 9.08237 19
264 1 -13.5317 -11.0669 -1.90213 13
265 1 -5.7583 -18.3087 -4.30932 10
266 1 -16.3025 0.0146085 7.75755 13
267 1 -6.79986 7.9798 -4.29399 16
268 1 3.06936 -11.0121 11.0225 22
269 1 -10.4524 -17.159 -0.908677 12
270 1 4.83884 0.62293 -8.39268 15
271 1 -8.87579 1.86259 -5.18951 22
272 1 -3.31951 -15.1339 7.89316 19
273 1 12.4557 6.45105 9.32983 9
274 1 -4.80854 -1.63137 16.8996 13
275 1 -14.8531 1.86406 -0.765304 11
276 1 -9.56603 6.74506 12.5912 16
277 1 -5.89627 -18.1825 7.25406 16
278 1 0.968594 -15.847 -8.08553 11
279 1 -14.2462 2.48443 8.98198 14
280 1 -1.69339 -7.92339 10.9702 18
281 1 3.18142 -14.1566 -5.76315 16
282 1 -0.321653 -10.289 -11.0551 17
283 1 -8.30867 -10.0938 10.154 17
284 1 -0.432731 -9.07372 -2.64553 22
285 1 -2.7661 2.54867 -4.6531 20
286 1 3.27823 -15.2224 8.07456 13
287 1 -0.6758 12.2552 4.68979 13
288 1 -1.2824 -5.40297 15.9905 13
289 1 -11.0824 -16.8308 7.88485 10
290 1 8.86647 -6.71824 13.1146 20
291 1 -0.00288135 -5.08552 -5.95397 16
292 1 9.31189 -8.29317 9.7959 18
293 1 10.6217 -1.34924 0.308694 16
294 1 -3.83141 1.43844 16.0241 17
295 1 -0.374658 7.98472 2.64872 19
296 1 6.08232 -7.54293 11.5028 16
297 1 1.84852 -17.7823 -2.5556 11
298 1 -4.12352 8.90206 12.7372 17
299 1 -7.95274 -17.1094 -2.99498 15
300 1 2.48685 3.06443 12.7826 20
301 1 -8.04033 -2.64764 11.0685 19
302 1 -5.81946 -11.6024 -0.848287 20
303 1 -14.6038 -0.545833 11.2534 9
304 1 -11.8733 -16.1751 1.22997 11
305 1 -7.23835 9.4035 13.1606 13
306 1 -4.41645 -16.9092 -2.14488 16
307 1 -3.53224 -11.1044 -10.9035 12
308 1 -7.55069 -20.5889 5.28517 9
309 1 -8.17398 -6.74669 8.20899 21
310 1 11.2073 -4.83536 13.8483 14
311 1 -11.949 -17.6655 11.3703 4
312 1 -11.1951 4.42454 -4.77896 11
313 1 6.22568 1.44597 5.03132 23
314 1 -2.91836 -17.1395 -5.63879 16
315 1 2.10252 13.728 9.49683 7
316 1 -0.928913 1.04188 -10.2705 14
317 1 -2.7684 8.98574 17.6625 10
318 1 -14.6722 -0.642712 0.558675 19
319 1 4.38276 11.8547 0.851854 10
320 1 -6.55987 -11.7958 -5.67288 18
321 1 -1.39561 -18.7039 -3.28812 13
322 1 -2.98409 -5.70442 -6.55183 17
323 1 -9.94648 7.73255 7.27376 19
324 1 0.0337123 -1.75321 19.074 10
325 1 8.19456 4.14693 5.06347 21
326 1 4.89644 10.3772 5.13453 19
327 1 -12.0853 3.95909 0.269342 16
328 1 1.28205 -0.523649 -3.38495 21
329 1 1.86047 -11.965 8.13003 21
330 1 -17.801 -2.14367 2.30116 10
331 1 -1.44596 7.78887 -6.94037 20
332 1 15.1711 1.19568 6.85763 11
333 1 4.60375 -7.3679 6.20594 21
334 1 10.4313 3.04345 2.49531 21
335 1 -2.66453 -0.919005 -11.4775 11
336 1 0.338317 -11.0088 5.16671 20
337 1 -0.605007 -17.6484 7.73709 10
338 1 -4.01552 -9.61034 13.5966 17
339 1 -8.03549 -0.994926 -3.44891 22
340 1 -5.2314 -17.0798 -7.27785 10
341 1 -1.49547 2.30971 -13.4104 5
342 1 3.45646 -1.88512 19.2891 12
343 1 -15.1283 -7.79352 2.96445 16
344 1 12.2656 -9.1594 -2.09742 11
345 1 9.50552 -4.62958 -0.10384 15
346 1 -4.13345 7.61054 -2.21021 21
347 1 -1.02222 -11.3968 -3.3873 21
348 1 -0.109657 -0.820681 -6.3261 18
349 1 12.0055 -5.83751 -2.1869 16
350 1 -6.93987 1.39846 17.1026 12
351 1 9.54407 8.11968 1.61535 12
352 1 -2.94264 -8.15056 -12.5509 10
353 1 -10.3698 -2.19817 8.36602 20
354 1 -3.18682 10.1643 -1.90659 18
355 1 -11.9275 -5.74108 -8.54376 9
356 1 -18.7062 0.498611 4.57664 8
357 1 -9.33765 -11.1176 12.8108 13
358 1 2.90515 4.57871 -4.1108 16
359 1 10.8952 -1.00011 3.34012 16
360 1 -13.459 -11.6258 5.06261 11
361 1 -1.42341 -11.6257 2.35264 22
362 1 -12.3195 8.07563 10.5315 14
363 1 -1.98403 -8.34819 -5.01707 22
364 1 10.8781 -8.04963 4.55855 22
365 1 -0.830357 10.2188 -4.063 16
366 1 3.74692 -8.95793 8.75925 21
367 1 -12.4921 -0.810272 14.417 10
368 1 4.34482 6.04244 13.0139 15
369 1 -5.41796 -0.0968537 -10.1734 12
370 1 -4.13132 -10.9314 -3.48585 19
371 1 0.198701 -3.11751 13.8567 18
372 1 7.94371 5.52386 13.1048 13
373 1 4.20737 7.91046 -3.68206 16
374 1 -11.0788 10.7055 8.39583 14
375 1 6.1611 9.77609 2.44054 15
376 1 9.2446 -4.47305 19.1932 8
377 1 11.5849 -0.764647 -7.4406 7
378 1 -14.597 -8.23922 -0.153683 13
379 1 -3.19534 -2.46464 14.0642 18
380 1 -10.066 14.2252 3.25395 7
381 1 5.29866 -8.79508 1.64567 19
382 1 4.07643 -0.937735 -4.99854 18
383 1 -9.13541 14.0064 -0.265364 8
384 1 -5.57691 -8.93109 -10.1692 8
385 1 8.80175 -10.2813 -3.68358 17
386 1 -16.676 -5.32593 0.993041 10
387 1 -11.0318 -8.23319 10.6922 18
388 1 5.04857 5.59733 2.83563 18
389 1 2.97838 -10.9113 -5.54731 15
390 1 1.98312 -7.31093 15.3572 16
391 1 8.22833 1.58933 0.161589 18
392 1 -12.8523 8.72363 7.18246 12
393 1 6.65259 -5.35067 0.0241984 17
394 1 3.90182 2.96162 16.3138 13
395 1 -0.0531696 -6.04407 -8.83168 19
396 1 7.149 10.6298 10.0703 13
397 1 8.06976 -0.404807 -8.61585 10
398 1 -0.154581 -7.11339 -11.2979 13
399 1 -5.57619 -17.9005 0.981073 14
400 1 -13.9635 -4.6545 -7.0998 11
401 1 9.8826 3.22808 7.6017 19
402 1 14.0052 -0.111527 4.29471 15
403 1 6.53978 -7.87603 -4.14245 16
404 1 6.11813 -13.1595 0.195863 20
405 1 4.25532 13.8814 6.51373 12
406 1 -13.0138 -0.216682 7.59082 20
407 1 13.9408 3.15477 4.25114 11
408 1 13.509 -3.19069 -1.61545 13
409 1 12.064 3.9591 -3.682 9
410 1 6.15394 -3.53704 19.0824 12
411 1 1.66109 -8.171 11.2218 21
412 1 5.94201 -1.76881 16.0053 18
413 1 10.8443 -5.40107 -5.6174 15
414 1 8.12238 4.27067 10.2362 22
415 1 -8.21428 -3.42106 -4.81349 18
416 1 10.9422 5.94669 12.2295 12
417 1 7.28023 -4.78466 10.7639 18
418 1 8.45395 -1.54408 10.5618 16
419 1 -0.0275825 10.3083 15.9936 10
420 1 8.18399 6.00973 7.36342 20
421 1 -7.14787 5.71138 -0.63949 20
422 1 10.2161 5.16738 -0.307255 18
423 1 7.63767 -8.89057 -9.12236 8
424 1 5.998 12.7699 3.81714 13
425 1 -2.53735 -19.3565 1.63614 11
426 1 -10.3609 5.73556 10.0347 16
427 1 -7.96201 4.89202 -4.15465 20
428 1 -3.51379 -19.6514 4.13929 8
429 1 -2.06566 -11.4195 -8.16049 17
430 1 -12.0165 -0.808826 2.33037 16
431 1 6.74555 -8.51472 8.44608 17
432 1 7.21962 11.9628 6.84243 15
433 1 -1.38505 -12.0147 7.93798 18
434 1 -14.1534 -0.32062 -3.08398 17
435 1 -0.46712 5.44371 18.6485 10
436 1 -0.531371 1.939 -7.8791 19
437 1 6.55007 0.509783 -5.8216 13
438 1 1.13411 -16.263 0.124269 21
439 1 11.67 0.40691 8.48957 19
440 1 13.6373 3.20203 7.85271 13
441 1 8.73373 -9.14944 6.66357 17
442 1 -4.92592 0.177317 13.1422 17
443 1 -12.6582 -6.03369 1.73351 17
444 1 -13.6059 -7.79278 -6.6449 14
445 1 5.29335 -5.89037 13.5963 18
446 1 -4.72508 -11.6875 15.1539 10
447 1 6.38057 -2.91249 13.1944 18
448 1 -7.20904 7.86411 2.00081 21
449 1 6.17933 3.15369 7.89866 19
450 1 12.127 5.52 2.70257 12
451 1 -0.254298 -3.52906 -11.4789 13
452 1 -12.077 -4.11523 14.5544 9
453 1 12.3109 -2.60064 -5.02306 13
454 1 7.89184 -15.9292 -0.729226 9
455 1 7.69818 0.234756 14.4155 20
456 1 -0.842763 8.5847 6.66244 21
457 1 9.38809 2.69928 13.4826 20
458 1 1.41361 -2.47917 16.3113 15
459 1 -2.34835 6.12586 16.2549 14
460 1 -2.61434 -5.7395 -10.011 17
461 1 -12.7909 -6.30401 12.0701 13
462 1 6.88559 2.41847 16.1374 12
463 1 11.1272 3.92901 5.59112 16
464 1 11.3696 -15.0485 -2.62294 6
465 1 5.002 6.42664 8.35735 20
466 1 9.41075 7.59139 10.2096 14
467 1 -0.228294 11.4652 -1.26439 13
468 1 9.73597 1.75711 10.5592 20
469 1 -9.55527 -15.6883 3.63833 15
470 1 -6.01834 -5.20889 -9.8424 10
471 1 -7.52686 11.7337 4.64341 16
472 1 8.91682 -7.85095 -6.35483 15
473 1 9.31079 3.37084 -2.35496 18
474 1 9.13333 5.30424 -3.78955 13
475 1 -9.47079 3.14018 5.56302 15
476 1 7.0189 5.01872 0.0672156 19
477 1 -11.7087 -14.8017 9.72164 11
478 1 -8.94846 4.31577 -6.91952 15
479 1 6.2087 8.95171 7.97756 20
480 1 3.34151 1.09514 10.8341 21
481 1 5.59287 7.41894 0.513601 18
482 1 8.72249 8.80927 7.31117 14
483 1 13.2755 -9.6719 3.19187 13
484 1 -17.1964 -1.82638 5.29263 14
485 1 -1.52087 -13.4976 5.18325 20
486 1 2.81161 -3.44286 -4.37224 16
487 1 -1.66377 11.3812 7.66467 17
488 1 -13.2476 -5.95025 4.53941 17
489 1 6.82156 -14.8209 2.91733 12
490 1 5.58521 6.0789 -1.98101 18
491 1 4.67864 -2.50165 -10.1584 11
492 1 2.07916 -13.6734 10.6983 15
493 1 -2.86717 13.4834 6.08833 11
494 1 -6.66007 -2.26077 18.5922 8
495 1 -8.5134 -15.584 -8.51532 7
496 1 2.03714 -5.90013 -2.42076 21
497 1 -2.52736 8.72044 10.0667 21
498 1 4.51496 -15.8136 -0.601518 15
499 1 5.50104 -9.95675 14.1067 11
500 1 2.3776 -17.1845 2.86849 14
501 1 -11.698 -7.10348 7.37981 19
502 1 -8.17493 -12.3318 -2.9592 17
503 1 -13.3691 -3.41611 10.4892 15
504 1 11.1443 1.11474 -0.873535 18
505 1 -6.7565 0.667504 11.2124 17
506 1 -15.1747 5.90235 9.02716 7
507 1 6.66865 -4.67345 5.6247 17
508 1 -0.262986 5.89194 -0.209353 18
509 1 8.46035 0.447075 -2.89004 16
510 1 6.50563 2.76409 2.25257 21
511 1 -11.1197 -0.883367 -3.71004 21
512 1 -10.7313 -15.4634 -5.17063 7
513 1 2.78459 6.28389 -9.92604 10
514 1 -1.96002 -2.91877 16.5762 14
515 1 -11.8223 -12.0979 9.52262 16
516 1 -4.65949 -6.27097 -4.20483 20
517 1 -8.67377 4.93684 2.2829 19
518 1 1.5335 5.89715 7.48325 20
519 1 -10.3903 -9.92363 7.77534 23
520 1 7.80522 5.32308 -7.81744 5
521 1 -0.0781307 -19.0072 -0.0676893 12
522 1 -1.79872 5.3814 -5.50192 17
523 1 -3.96519 -3.19442 -11.6821 12
524 1 1.28155 -8.03642 19.8142 7
525 1 -2.73541 6.67246 -9.00431 14
526 1 -10.2812 -10.364 1.56698 18
527 1 -8.50607 -13.7092 5.10884 22
528 1 12.8409 3.46991 -0.326827 11
529 1 10.4392 -14.0749 4.39004 6
530 1 -9.28888 -0.862379 16.4957 13
531 1 3.84772 -10.8054 6.6071 22
532 1 14.0817 -8.50222 5.87481 7
533 1 12.028 -6.81314 8.14737 14
534 1 -3.67119 11.9185 9.6671 12
535 1 -7.2035 -1.29166 13.6945 19
536 1 -4.70104 -14.5173 10.7576 15
537 1 8.02238 0.0761497 8.3157 24
538 1 5.67835 3.13356 13.2412 19
539 1 -16.243 1.09942 2.20761 12
540 1 11.0865 -11.1938 5.70093 14
541 1 3.10141 6.4703 4.88644 21
542 1 6.02275 -0.163726 18.3646 12
543 1 -0.53413 11.7954 11.1373 11
544 1 5.1056 -13.7523 6.43032 16
545 1 -10.0169 -4.40674 0.101119 18
546 1 1.52243 0.365966 14.3223 16
547 1 3.04022 9.04207 6.7509 19
548 1 -8.65906 -17.6605 5.58012 15
549 1 11.1176 -6.52254 10.7965 15
550 1 10.4422 -9.28352 13.1832 11
551 1 6.72366 7.33751 11.0075 17
552 1 -1.26751 -7.90749 -7.45392 18
553 1 -6.33187 -0.610125 -6.87541 20
554 1 -5.97117 -7.83028 11.1608 20
555 1 -4.9529 14.9667 4.41932 7
556 1 12.1934 -5.9514 2.76125 13
557 1 1.5015 8.01061 -2.36169 17
558 1 2.38256 6.08276 16.3716 11
559 1 2.27544 8.45798 13.9922 12
560 1 5.09913 -6.27951 -8.88257 11
561 1 -6.67157 -14.8346 2.51806 17
562 1 14.2427 -5.18926 6.19914 11
563 1 2.95229 -11.975 -9.91749 9
564 1 -2.77479 -11.0131 -0.465565 21
565 1 10.1476 -2.85068 -3.01197 16
566 1 -1.69687 -8.30532 15.2542 17
567 1 -2.79817 -14.053 -4.70108 18
568 1 12.1829 3.75709 10.6474 17
569 1 -12.5424 0.941862 11.4705 9
570 1 6.52126 2.52134 -3.28295 19
571 1 6.90464 -4.07224 -8.9465 11
572 1 -6.51053 5.25741 11.5104 18
573 1 -2.63864 3.80866 -10.9016 11
574 1 9.39425 -7.58943 -0.572498 13
575 1 -12.3997 -3.1357 4.77022 17
576 1 11.2332 -4.41166 5.16937 18
577 1 -14.5256 -8.32079 6.02547 11
578 1 4.5882 3.75151 10.3532 18
579 1 -14.2404 -9.98806 -4.87238 11
580 1 -9.11345 4.45062 14.7943 13
581 1 -2.4186 -0.357667 -4.89051 19
582 1 6.7711 -13.4379 -5.54641 10
583 1 -12.3099 -12.8529 -3.30671 12
584 1 9.37153 -9.0143 2.01326 16
585 1 -14.5676 -0.678444 4.41211 21
586 1 -7.31219 -9.12252 2.18816 16
587 1 -8.11195 -11.9097 7.72852 17
588 1 11.8093 -10.1281 9.23363 10
589 1 10.2564 -2.91358 7.91502 17
590 1 -9.77066 7.46739 0.673896 19
591 1 -1.22568 7.90782 13.3116 16
592 1 8.79612 2.90535 -5.56481 13
593 1 -9.18494 8.99403 10.575 17
594 1 3.51082 9.20896 -0.486629 18
595 1 0.844687 8.45504 17.2975 9
596 1 6.43949 -8.32249 16.1601 13
597 1 1.17764 7.97909 -5.63153 15
598 1 -4.41658 -6.10242 14.3833 18
599 1 -11.318 -10.1624 -4.9276 13
600 1 -13.7614 -3.88989 1.29021 22
601 1 -1.63953 -14.123 10.7572 16
602 1 5.38834 -1.90257 10.2578 22
603 1 2.66914 -13.6675 -0.416568 20
604 1 -11.6242 6.35335 1.58555 13
605 1 12.365 0.269077 -4.36871 9
606 1 -4.10065 8.60195 7.05544 19
607 1 -6.6999 -5.11833 10.2868 19
608 1 -4.47201 -10.0221 -7.6414 19
609 1 -1.32139 -13.8494 1.06396 19
610 1 1.93164 -17.1294 5.74503 14
611 1 -0.0384887 5.21278 -10.9801 10
612 1 14.3327 -5.20583 0.430636 10
613 1 6.7342 7.45023 4.74478 19
614 1 8.18837 -1.79068 5.4119 17
615 1 0.436357 8.84492 -8.9138 11
616 1 -3.57391 -11.0639 10.1848 20
617 1 2.8749 8.19988 1.90314 19
618 1 5.48377 0.321556 -1.63907 17
619 1 -7.16908 1.72053 -2.83115 21
620 1 -9.00853 -13.0392 9.79302 17
621 1 1.10937 5.62419 13.2985 19
622 1 -0.114188 -15.6337 3.73783 21
623 1 -0.570443 1.78905 -2.3218 19
624 1 -6.73448 2.52863 13.9726 19
625 1 -10.7877 -6.31888 15.1143 10
626 1 8.23195 0.423085 2.69704 17
627 1 -2.47723 -12.9615 12.9311 17
628 1 5.16008 -11.8561 8.96846 20
629 1 10.6362 0.911952 14.7643 13
630 1 4.85785 -12.459 -2.76335 24
631 1 -8.23228 1.03772 -8.28162 13
632 1 -3.57683 11.9323 -6.11659 8
633 1 -10.588 1.22193 -2.03655 18
634 1 10.0561 6.84125 4.3348 17
635 1 -3.19531 10.7618 15.0874 11
636 1 -9.00766 -18.0281 1.73096 13
637 1 8.83739 -1.27739 16.7582 15
638 1 -6.47479 -9.39902 8.13322 22
639 1 9.53965 -6.13868 -8.79092 11
640 1 8.01386 -12.1367 2.97132 18
641 1 2.79763 -4.61593 -11.4102 9
642 1 -4.54722 -2.65077 -8.8472 17
643 1 -12.1171 -9.02879 4.36821 20
644 1 -8.62815 2.53133 -0.0429119 19
645 1 -2.21101 3.43312 16.1536 18
646 1 8.85758 -10.1866 14.9101 11
647 1 -6.72728 -17.4934 11.0874 6
648 1 9.48265 0.850908 5.77802 18
649 1 -3.17677 0.203522 -7.7938 19
650 1 13.0545 3.1479 12.9985 11
651 2 -12.5696 -10.978 -3.54595 14
652 2 -4.91466 3.40178 -0.996188 19
653 2 -1.25745 -9.83188 -7.2012 18
654 2 -0.862199 9.44363 17.8279 10
655 2 -10.4653 -8.2955 -4.71652 19
656 2 1.55378 -1.68218 13.7206 19
657 2 -13.5638 -9.77296 5.65624 18
658 2 -9.67667 6.4992 2.30865 20
659 2 -2.44059 6.43961 14.4367 16
660 2 -12.1246 -5.4673 5.99396 17
661 2 7.97504 3.911 8.14514 20
662 2 -14.9706 -8.29562 -5.12472 9
663 2 -10.1474 -0.725634 1.78023 15
664 2 -6.1931 -9.75439 10.7468 19
665 2 0.916692 3.93235 12.5416 16
666 2 5.01096 -1.85821 -3.5627 20
667 2 1.37549 -17.0 7.54669 11
668 2 -4.5542 10.5316 -5.79888 12
669 2 -12.2909 0.580345 -3.04688 19
670 2 6.28723 3.2226 10.7112 20
671 2 12.009 -14.0017 -1.10334 8
672 2 -11.6882 -12.2735 5.56968 17
673 2 -9.32819 -7.35197 14.5314 12
674 2 -1.55539 -16.4373 6.50352 16
675 2 10.0328 -7.62282 12.2233 15
676 2 1.83472 -16.5376 -4.02245 15
677 2 6.47304 -4.3913 14.5491 19
678 2 -1.27829 3.99544 -12.1264 8
679 2 -11.6953 -15.7655 -0.808405 14
680 2 0.0884103 3.67089 19.2868 10
681 2 -8.99387 10.8164 5.84843 18
682 2 -1.77401 4.86062 17.5096 11
683 2 -2.6256 5.96701 -3.72052 18
684 2 5.5038 -15.9485 3.55259 12
685 2 -5.73075 5.98252 13.1896 20
686 2 -2.31545 8.86861 -3.02789 19
687 2 3.09676 -9.20411 -1.07691 21
688 2 -1.91239 -7.46715 -2.83759 19
689 2 12.2507 -0.831697 -5.78103 10
690 2 -10.048 -2.6299 11.3069 17
691 2 1.03254 0.830005 -9.2733 13
692 2 -6.65779 1.13268 -9.34476 12
693 2 8.49989 3.60092 2.4142 21
694 2 -3.38378 -8.58892 17.0954 17
695 2 -8.68225 8.71515 8.48061 19
696 2 9.85883 -6.14163 -6.90976 12
697 2 0.614636 -10.7329 -2.22782 21
698 2 -14.9322 -6.70886 4.53392 13
699 2 13.3356 5.1275 8.41561 8
700 2 -7.13218 6.29857 7.03301 17
701 2 -9.05884 -15.7851 -4.09138 14
702 2 -3.98084 10.243 16.6556 10
703 2 2.08342 -7.99694 13.3497 21
704 2 7.28672 -4.94211 7.9146 18
705 2 -12.8754 -1.43341 3.96563 17
706 2 8.63423 -13.756 3.73338 11
707 2 9.34914 -14.871 -2.08244 12
708 2 2.55691 9.02187 9.71543 17
709 2 5.17032 -12.0741 5.7677 17
710 2 10.1676 -10.816 10.0786 13
711 2 -3.07871 -4.87771 16.6705 15
712 2 12.7324 -8.50718 4.58545 14
713 2 -3.46593 6.46485 7.29825 20
714 2 7.65003 3.45196 13.3394 18
715 2 -3.89342 3.63108 15.2581 16
716 2 6.19794 6.41762 13.1046 12
717 2 11.4837 -10.4797 7.37351 15
718 2 1.51325 3.092 -4.16246 16
719 2 -13.0625 -6.43204 -5.18656 21
720 2 -8.29194 -2.51704 17.5356 9
721 2 -0.756454 -0.59371 -3.57182 21
722 2 -6.31525 -0.269059 -2.42656 16
723 2 -16.2822 -1.95962 7.10788 13
724 2 -8.33466 -8.93065 8.51918 20
725 2 9.95931 -9.69281 5.32066 18
726 2 -0.10923 -8.99906 10.6881 22
727 2 -2.56758 -6.53358 14.6987 16
728 2 7.34201 1.00237 -1.46186 15
729 2 3.33737 -2.69819 15.7983 19
730 2 -3.10068 4.07775 12.3527 19
731 2 -12.2889 1.02203 2.47214 18
732 2 3.26759 -11.5339 -3.17295 18
733 2 5.71737 -3.95421 -0.964763 19
734 2 -13.8587 7.04117 10.8046 12
735 2 -4.28802 -19.7163 2.18729 11
736 2 6.83754 -13.6073 -3.84517 14
737 2 0.12498 7.05409 12.3486 17
738 2 5.53697 -9.28579 -0.169691 15
739 2 7.06402 -6.14675 12.6478 15
740 2 -10.7263 -9.60822 5.72626 18
741 2 9.70468 5.09363 6.04084 14
742 2 -6.9465 -16.8706 6.17797 19
743 2 8.84511 3.79842 -7.46143 7
744 2 1.23894 -18.1522 1.26729 15
745 2 5.39298 -11.5747 -1.07563 21
746 2 -1.00338 -18.1035 -5.19967 12
747 2 7.42969 -9.68772 5.47778 18
748 2 -5.91907 8.62265 8.01204 18
749 2 12.3553 0.424211 -2.42275 17
750 2 -7.39463 -7.73509 -6.09835 15
751 2 -8.08327 -13.8795 8.52026 16
752 2 -7.47321 -8.90955 5.28292 23
753 2 -6.88574 -10.8101 3.05905 19
754 2 -8.34054 8.9079 3.0771 20
755 2 -10.9358 6.44001 8.16403 16
756 2 8.28182 6.04687 4.16521 20
757 2 3.85779 4.43884 -5.67929 14
758 2 -8.60577 3.07123 13.2691 15
759 2 -9.42532 -9.63068 -7.71374 13
760 2 -15.4008 1.77438 7.74676 12
761 2 -5.86413 2.3139 11.0569 19
762 2 -13.5246 1.09687 10.0591 12
763 2 5.63449 12.9014 7.46918 12
764 2 9.48908 0.231308 4.00805 15
765 2 8.38984 -7.5385 3.33965 16
766 2 -10.6233 -6.28058 11.2122 17
767 2 -0.673065 8.46042 4.80662 19
768 2 -12.7731 8.92837 5.36208 14
769 2 -10.7006 1.66272 5.92669 16
770 2 11.8187 -8.02545 9.72887 13
771 2 -8.85437 -15.9764 -1.4851 15
772 2 1.16904 4.14862 -9.87013 16
773 2 10.9272 7.13773 2.69363 11
774 2 -11.4791 -15.5328 11.5896 8
775 2 -2.5333 4.72815 -0.419596 22
776 2 -6.80286 10.3967 -0.278895 22
777 2 -0.446775 6.39836 1.72707 21
778 2 8.69439 -2.24417 8.78669 19
779 2 -3.20297 1.03702 13.4325 21
780 2 12.1123 -10.4188 -3.83404 8
781 2 -8.74412 0.937041 16.7213 11
782 2 0.461879 -4.93057 13.2167 21
783 2 -13.4561 3.66829 5.30826 14
784 2 -6.89531 -13.5464 -5.30282 14
785 2 4.41774 -14.1348 0.378992 20
786 2 3.94126 -4.61231 -2.97587 17
787 2 13.3042 -4.69433 4.58309 13
788 2 -5.67031 2.27127 16.0658 14
789 2 2.59447 0.293905 -4.55524 17
790 2 -12.9744 -8.85198 11.4776 14
791 2 -6.17523 -3.81941 -8.47495 14
792 2 3.66309 -15.2995 6.09639 17
793 2 3.43938 -17.3218 4.41448 13
794 2 11.7791 4.72262 1.01522 12
795 2 -8.30252 -1.02274 -7.87756 15
796 2 -4.11616 9.79547 10.7919 15
797 2 -14.3105 -7.8559 8.2584 12
798 2 -14.2734 -3.28207 -5.69984 13
799 2 5.97462 5.44907 -7.03314 10
800 2 5.64402 11.8036 2.26046 13
801 2 -9.46874 -11.9557 1.08237 16
802 2 15.1816 -0.569356 9.66952 9
803 2 -1.23621 3.23146 14.617 18
804 2 -7.02242 -19.4044 0.745145 11
805 2 5.59094 -7.28121 -2.75755 16
806 2 2.12137 0.535515 15.9522 15
807 2 5.13591 10.6299 10.1131 12
808 2 11.9844 -3.15819 -3.2917 15
809 2 2.94144 2.12547 18.093 12
810 2 9.15263 6.5318 -2.40429 12
811 2 -8.56038 -5.43686 9.61832 21
812 2 5.36618 -7.84734 3.25091 17
813 2 0.715967 12.5522 9.84791 12
814 2 4.57151 4.61622 8.43056 19
815 2 -8.48128 2.8662 -8.44294 12
816 2 3.97949 -3.711 19.9909 9
817 2 -13.8387 7.25013 7.99452 10
818 2 -3.42037 -8.94908 10.433 22
819 2 5.59563 -13.6325 10.9331 9
820 2 -9.56235 -15.2842 -6.69563 8
821 2 -7.22474 9.27864 -7.28832 9
822 2 -1.82278 -15.6319 -1.92488 19
823 2 -4.45925 -17.1459 -0.174886 13
824 2 -0.383213 -7.15921 -5.90446 20
825 2 -1.97297 -6.0058 -8.16344 17
826 2 2.47633 6.38975 14.399 15
827 2 -9.82673 -12.8376 -2.04331 16
828 2 -12.6596 5.10094 13.6274 7
829 2 11.3462 -4.90212 11.8573 13
830 2 -10.2342 9.99544 0.45073 15
831 2 -5.93149 -16.6888 2.40785 19
832 2 0.776707 6.58329 17.5925 11
833 2 3.71484 -2.91314 -5.99266 14
834 2 -7.68509 -4.63587 -6.20477 14
835 2 4.76243 -0.181562 -6.5325 15
836 2 12.2167 -10.6779 1.84773 12
837 2 -8.5099 -8.36504 -2.36149 17
838 2 -11.1077 -0.929605 -1.90529 18
839 2 -9.02768 12.2321 -1.25041 10
840 2 -6.38929 -7.79571 16.3839 12
841 2 -3.29739 -3.77179 -0.379857 23
842 2 1.69659 -9.5204 -5.80912 19
843 2 6.89566 -4.595 -3.94063 16
844 2 11.6527 3.43986 7.4713 17
845 2 5.61418 -7.91762 17.9285 11
846 2 -4.58158 -5.22021 -5.72142 16
847 2 11.2671 -1.93303 12.5736 14
848 2 8.70267 -4.21547 -8.55406 13
849 2 -1.0156 -11.9861 0.354844 20
850 2 -3.82296 11.1094 -8.02641 8
851 2 7.20676 11.7558 4.96899 13
852 2 11.6199 -1.46833 7.70048 15
853 2 -9.83016 -6.82223 6.9987 15
854 2 -13.9561 4.44048 8.87323 14
855 2 -3.06564 -11.1324 8.2037 18
856 2 -1.38814 -3.62374 -6.30682 16
857 2 -10.5915 -9.90421 -0.393636 18
858 2 -11.7798 -17.135 9.67254 7
859 2 -2.97276 -14.5539 12.4119 9
860 2 -11.8431 10.6357 3.29879 13
861 2 -6.34544 -12.2237 -7.52691 14
862 2 -18.5683 -1.22471 3.96027 9
863 2 3.3992 -6.01677 14.946 16
864 2 -13.5752 -14.8716 1.38989 10
865 2 -8.7296 -6.17906 4.06075 21
866 2 10.1342 -8.47556 14.8146 11
867 2 0.880078 10.7846 -2.6904 12
868 2 9.42006 7.40338 8.15298 16
869 2 9.51013 2.75275 4.94008 18
870 2 -0.800161 7.33621 -1.40614 18
871 2 -8.53904 -2.7887 -2.95141 23
872 2 8.13013 6.07738 10.6295 18