ITEM: TIMESTEP
25000
ITEM: NUMBER OF ATOMS
1500
ITEM: BOX BOUNDS pp pp pp
-30.0 30.0
-30.0 30.0
-30.0 30.0
ITEM: ATOMS id type x y z Coordination
1 1 -1.20259 -13.5373 -4.91754 9
2 1 6.61259 -8.86644 7.48069 14
3 1 -12.8824 5.28378 -5.2621 14
4 1 -11.1735 2.8254 -4.78319 23
5 1 -1.58945 -5.94374 16.8812 12
6 1 -13.4717 2.56031 -7.53033 11
7 1 -7.22616 6.35373 1.52707 21
8 1 -5.81563 -8.63897 6.59577 23
9 1 -14.9614 -3.4951 7.65452 11
10 1 -1.49067 0.605629 16.9385 17
11 1 7.73364 -4.96526 11.4948 11
12 1 -1.09438 3.58549 13.8811 21
13 1 -0.590986 -2.54512 3.84518 23
14 1 -9.32224 5.68187 -4.3698 19
15 1 -5.79339 -0.298807 13.9948 19
16 1 9.62234 3.54706 11.2195 18
17 1 -2.46263 9.98273 -8.38576 19
18 1 2.64081 9.70845 -11.1547 14
19 1 -11.2379 2.79862 4.14696 20
20 1 -3.26069 -0.296482 -6.54893 18
21 1 4.52539 -13.728 1.5028 12
22 1 0.610005 -2.77052 7.49148 20
23 1 10.778 -4.54878 7.1253 13
24 1 -5.93922 -14.41 -4.11575 10
25 1 -0.394279 -4.21678 -2.46489 20
26 1 -0.33363 -6.57617 -10.3058 11
27 1 -2.54872 5.97134 15.2758 16
28 1 -4.00899 -9.23387 12.1773 15
29 1 6.64668 -7.67131 15.809 7
30 1 -13.96 0.325993 4.00894 23
31 1 -15.9838 1.11501 1.65728 21
32 1 -1.74509 14.2978 3.35322 20
33 1 1.33037 5.62306 -6.53039 16
34 1 -3.59007 1.29655 -11.7266 14
35 1 -6.44214 -2.45831 15.8341 16
36 1 -15.6832 6.70492 -0.132979 13
37 1 1.52892 15.9638 8.63947 16
38 1 -9.33313 8.55782 -2.7722 23
39 1 -2.44839 15.6542 -1.50507 13
40 1 0.604332 -6.85244 6.67448 18
41 1 2.46335 -7.2516 -7.98255 11
42 1 -7.88338 8.97803 15.1727 12
43 1 -4.18324 -7.54941 -10.3726 9
44 1 10.3528 0.777304 7.83558 23
45 1 -14.1133 9.46337 0.372881 12
46 1 -10.4409 -8.54196 12.0007 10
47 1 -10.3991 6.19602 -10.1491 12
48 1 3.1262 3.8215 -3.57138 17
49 1 0.954052 6.31636 9.21582 20
50 1 9.47654 6.31934 11.8527 14
51 1 3.43758 -9.67885 2.26363 19
52 1 -0.493972 2.73718 18.6962 13
53 1 5.08228 -1.29134 -1.9912 17
54 1 11.4001 -6.68727 8.8361 7
55 1 -11.7278 -2.04331 4.83617 15
56 1 1.23957 -4.32701 18.496 12
57 1 -10.3634 -10.6256 4.09726 13
58 1 -7.48369 0.417604 3.86861 19
59 1 15.1778 6.00733 8.19708 10
60 1 12.7769 -1.42883 -0.866922 17
61 1 3.38272 13.1507 14.1652 16
62 1 5.08836 2.34657 8.49247 19
63 1 -13.7232 -0.609937 7.01821 16
64 1 -2.59639 -3.48001 -5.20288 25
65 1 -6.85781 8.96204 -0.402948 20
66 1 -4.65915 5.31234 -4.78121 19
67 1 3.13088 1.47971 3.10743 19
68 1 4.56504 -1.20031 2.95777 19
69 1 4.4988 -2.35808 7.51494 21
70 1 7.39052 -4.33188 6.58199 18
71 1 -7.02454 11.448 -1.80514 21
72 1 -12.1757 11.0364 8.1276 18
73 1 -2.74201 14.6608 13.0916 15
74 1 -6.39217 -5.35956 15.0175 13
75 1 11.2371 -1.26189 -5.94646 12
76 1 -13.4786 10.9889 10.7507 10
77 1 3.02178 -4.20198 -2.27915 20
78 1 -2.076 8.11956 -11.5547 19
79 1 -3.00388 -4.59012 -9.9582 15
80 1 -0.880586 13.2479 -0.356381 17
81 1 -8.1591 10.9947 -6.96585 15
82 1 -4.37452 15.3942 -3.97767 9
83 1 0.681986 13.0869 2.3522 19
84 1 -3.19182 -1.44632 11.7899 22
85 1 -5.13972 3.88173 -2.32409 19
86 1 0.332848 -2.5511 -5.23136 19
87 1 1.64494 3.5036 12.9459 21
88 1 -11.9885 -9.28629 -1.77147 10
89 1 10.0396 -3.44219 4.48294 20
90 1 -10.5111 -10.105 -4.79218 12
91 1 7.921 -4.7865 2.79399 22
92 1 -9.11627 9.80502 8.39784 16
93 1 3.64467 0.0719307 -7.81043 13
94 1 7.52961 9.22523 -9.3428 11
95 1 10.9928 -6.19034 2.70604 13
96 1 -6.55127 -10.6799 8.23148 15
97 1 -9.05685 -14.0925 -0.195212 13
98 1 -10.6951 0.225667 3.59065 19
99 1 4.61965 10.7976 12.0768 20
100 1 0.769663 9.59531 3.87462 21
101 1 -4.92751 12.1059 13.3782 15
102 1 -4.54083 9.3518 -2.24283 21
103 1 -2.68305 -5.88732 -6.66853 21
104 1 9.11397 0.944416 16.4238 5
105 1 -1.5397 10.4867 -3.14985 18
106 1 3.91708 3.18422 0.200407 20
107 1 -10.6436 10.7508 -4.73403 14
108 1 -2.71003 14.9345 7.07825 20
109 1 10.5776 -0.451174 -2.68905 17
110 1 4.50396 -6.50364 6.38391 17
111 1 -8.91224 3.73121 -10.6731 13
112 1 5.05195 12.5682 1.153 20
113 1 10.7544 12.6268 -0.611447 13
114 1 -4.78581 14.4912 5.08785 16
115 1 -4.59397 -2.3174 -11.3982 10
116 1 2.62567 13.083 8.61428 21
117 1 -14.9774 -2.00608 -0.207497 20
118 1 14.5658 1.82061 1.14154 11
119 1 1.39266 12.4102 11.8359 21
120 1 -12.0163 7.3877 -3.65729 17
121 1 2.08482 -3.45826 14.0856 16
122 1 -10.9914 -4.81616 7.958 11
123 1 -11.596 -7.58935 6.18876 14
124 1 -0.827188 -11.8884 -1.18091 19
125 1 -5.16155 9.62509 -11.2367 18
126 1 -8.21777 14.1265 -2.95182 9
127 1 10.6109 12.1998 -4.19016 14
128 1 1.16283 -7.05879 12.4569 21
129 1 -7.03647 5.33619 4.18881 16
130 1 2.41798 17.9801 6.78787 10
131 1 6.83289 8.12716 9.21068 20
132 1 3.72767 14.5964 6.47705 21
133 1 -6.46039 2.89641 -7.30556 19
134 1 13.2097 -3.95417 4.52545 13
135 1 -8.98193 -3.4373 14.2425 14
136 1 -16.6486 5.60433 3.01763 17
137 1 -4.70236 -7.5728 9.25032 20
138 1 -14.9937 4.3016 0.511057 20
139 1 -4.59133 -11.5755 6.60996 16
140 1 -6.48173 -3.2706 -1.14031 19
141 1 5.98105 -7.47592 1.27489 20
142 1 -3.11359 16.2453 9.90544 12
143 1 -10.9738 3.32674 8.17258 18
144 1 -11.4472 2.30556 -1.67954 20
145 1 -9.08802 8.13091 -6.22703 20
146 1 -15.7328 -4.78549 -6.29927 9
147 1 -11.5202 -2.30988 12.3973 15
148 1 -0.517002 -8.31657 9.30731 18
149 1 0.118763 -13.7741 9.61078 13
150 1 9.26057 5.55509 2.21962 19
151 1 3.22329 7.89683 -1.68973 17
152 1 4.73106 1.4925 17.5314 12
153 1 -4.32485 6.69724 -13.0089 14
154 1 1.95491 0.441857 -4.75344 20
155 1 -6.13676 -3.18631 -5.22832 20
156 1 -6.5824 8.36106 -7.72519 19
157 1 -10.6039 11.1426 4.77702 17
158 1 3.96377 -4.20398 16.1902 16
159 1 -9.31741 -6.34375 -0.646538 19
160 1 -5.2892 11.2141 -8.01154 14
161 1 4.37814 11.6145 -9.36059 9
162 1 -9.11943 4.39516 6.33179 18
163 1 -8.47942 11.4819 13.3543 11
164 1 0.929234 -10.7337 -4.47408 13
165 1 -10.2439 -11.8201 1.1502 14
166 1 9.85311 -7.65087 6.02281 11
167 1 1.32865 -5.16603 4.05608 19
168 1 8.89798 14.6099 -2.56968 13
169 1 -4.70463 9.04445 1.67424 21
170 1 -14.0553 3.25093 11.3713 15
171 1 0.378551 6.35868 14.9795 18
172 1 14.147 4.71662 2.08304 13
173 1 6.32007 8.88341 5.62876 21
174 1 -9.49196 8.04664 11.3889 20
175 1 -15.4871 -4.43924 1.56323 13
176 1 5.64837 3.30995 -10.9433 12
177 1 0.543633 0.641308 14.5254 20
178 1 8.13913 13.4461 -5.01957 13
179 1 2.40258 -6.22595 0.907417 21
180 1 -4.48734 -3.0848 -7.56785 24
181 1 7.20146 0.802795 -2.56249 17
182 1 -13.4171 6.00146 7.88782 20
183 1 -0.433957 -15.279 -2.13452 11
184 1 -11.2416 -3.46871 -2.81342 21
185 1 -0.80003 14.7436 -4.08011 11
186 1 -0.401653 2.24053 -10.674 19
187 1 0.207779 6.0438 18.2463 9
188 1 13.6712 3.94214 -0.883496 13
189 1 -7.43719 -4.35364 3.34278 16
190 1 6.41009 4.32169 -2.48969 16
191 1 -8.0373 -7.41257 4.40653 21
192 1 -10.237 -5.16316 -8.44324 10
193 1 -12.881 -3.53692 -7.52292 13
194 1 9.60909 4.20517 14.8356 9
195 1 2.66838 -8.28754 8.16386 14
196 1 -8.25209 -5.19164 -3.08831 21
197 1 3.49212 -6.82545 10.8454 18
198 1 0.375552 10.6531 -10.2972 11
199 1 5.61238 10.2571 2.93042 17
200 1 -8.07311 -8.15703 9.59303 17
201 1 0.558911 14.0139 5.86547 19
202 1 -7.07014 2.11077 16.4987 14
203 1 -13.4946 -6.92252 -6.66245 8
204 1 -9.72216 -2.50116 -5.78141 20
205 1 -3.81726 -3.85491 -2.86975 18
206 1 -7.13868 -9.70727 2.92677 19
207 1 11.3428 3.1025 5.91399 22
208 1 -7.92446 -1.79803 -2.73298 19
209 1 -8.91416 -2.33859 10.2718 16
210 1 -1.48555 -13.2915 1.12066 18
211 1 -1.76805 -5.25142 8.1971 25
212 1 0.467516 17.0663 4.61706 17
213 1 0.0658228 5.47541 -10.9901 13
214 1 -7.18635 -1.03085 -6.85169 16
215 1 -2.6116 -8.05445 6.64407 23
216 1 -1.07572 -11.6064 -7.10878 12
217 1 -11.1677 1.46476 -9.92963 11
218 1 11.5665 2.33241 2.34592 20
219 1 -0.99115 7.66056 -8.70507 17
220 1 -6.59943 8.53904 -4.62145 18
221 1 -1.78348 -1.74316 8.93105 17
222 1 -10.0863 10.5989 -0.529356 16
223 1 5.70768 13.1368 8.19689 18
224 1 12.1164 -2.03035 6.82831 19
225 1 -11.4222 5.66468 10.8588 23
226 1 0.352385 -1.55123 11.1978 19
227 1 -6.62787 9.34596 12.6866 18
228 1 -0.238301 -4.00062 -11.8653 8
229 1 6.68562 -7.29011 4.48016 19
230 1 -3.06772 3.87435 11.6584 22
231 1 -7.70804 -8.85237 12.9377 11
232 1 9.79868 -7.20304 -3.63011 10
233 1 5.93699 -3.85977 -2.88865 15
234 1 8.44826 -7.32099 -0.3764 15
235 1 -4.92889 -6.70399 3.84779 24
236 1 -11.6151 11.7168 1.94746 14
237 1 2.81579 4.16927 10.4886 17
238 1 7.78523 9.23125 12.5729 13
239 1 -17.1322 1.59157 4.55021 16
240 1 6.19058 -10.6162 2.18443 16
241 1 -3.95741 16.0779 1.51431 13
242 1 -14.8666 6.61017 10.982 16
243 1 2.43351 -11.4994 13.3969 10
244 1 9.98125 -3.46709 9.80209 12
245 1 -6.05528 7.38006 9.55114 20
246 1 -7.99643 -0.482827 0.373684 18
247 1 -3.73057 2.75759 16.84 12
248 1 4.34119 17.5967 4.15538 13
249 1 -12.3386 7.45854 -0.77094 19
250 1 -10.7724 9.20634 14.8445 10
251 1 -14.8741 8.24169 8.66796 13
252 1 -10.3494 -0.0752942 -3.56456 21
253 1 -8.90434 12.2725 7.59453 16
254 1 3.61124 -0.734184 15.0868 22
255 1 -11.4059 -7.92466 3.61027 18
256 1 4.14958 -10.0065 10.9345 15
257 1 -15.4255 9.08725 3.45592 13
258 1 1.48551 -0.140013 8.62687 18
259 1 3.74728 -8.77392 -5.46765 14
260 1 -8.84779 1.21213 -5.98181 18
261 1 5.90003 0.381699 -9.73489 11
262 1 6.85065 15.0187 6.30083 15
263 1 -8.37374 1.59098 9.28408 17
264 1 6.01908 -2.77928 -5.88276 19
265 1 -5.63537 -15.0945 2.37491 11
266 1 -14.2105 -6.72228 3.69128 10
267 1 -4.82809 -4.53005 1.39457 21
268 1 7.44072 8.36308 1.90078 22
269 1 -10.0817 3.51671 -7.56069 20
270 1 -13.8405 -1.13437 -5.42365 14
271 1 -10.7834 11.3659 10.8343 15
272 1 -7.4212 15.7491 2.60011 8
273 1 -6.09928 10.9332 9.2193 18
274 1 6.24031 -6.67524 -4.84695 17
275 1 14.4527 1.34695 -2.72727 11
276 1 -6.29547 9.05597 3.81978 20
277 1 -4.11761 -9.08856 -1.84509 16
278 1 1.71352 10.3722 9.04862 23
279 1 -12.7469 1.89614 1.5784 21
280 1 1.53645 -9.31015 -1.08242 20
281 1 10.5462 0.255878 10.8647 12
282 1 -11.0026 -7.13042 -3.17975 17
283 1 -9.64881 -8.96981 0.980749 21
284 1 -4.29481 11.8427 6.92283 21
285 1 -12.5032 -4.78302 -4.91601 21
286 1 -16.4641 7.38971 5.85025 12
287 1 -0.707737 11.8206 -6.11541 14
288 1 9.74804 8.84853 7.15224 23
289 1 -9.80032 -4.81674 4.93498 16
290 1 0.487298 -5.69453 -4.31034 18
291 1 -14.6347 0.202788 9.59735 13
292 1 -13.5975 3.91069 -2.40451 16
293 1 -2.90528 -13.6906 8.43749 14
294 1 -0.542713 -15.2438 3.57387 12
295 1 5.04802 12.2258 -5.96249 16
296 1 -13.0396 9.08049 -6.29747 13
297 1 1.29458 -11.0838 4.49572 18
298 1 13.8857 8.3077 6.77444 13
299 1 -1.33388 1.10268 12.0043 21
300 1 -13.5272 3.2155 6.54729 15
301 1 -11.4532 6.25105 13.5952 15
302 1 -7.49012 -11.3145 4.70507 20
303 1 5.36868 -5.93495 -1.40022 22
304 1 5.10541 -5.6537 -8.11921 13
305 1 0.486057 -4.89328 10.2084 20
306 1 -11.436 0.0623371 10.3323 18
307 1 -4.86199 -5.49839 6.53813 17
308 1 6.69847 -8.82988 -3.27947 15
309 1 -5.44644 -5.743 -4.64238 21
310 1 -3.09918 1.21175 14.2688 21
311 1 0.601761 -3.81819 -0.0464223 21
312 1 -8.24986 0.379792 -9.05152 17
313 1 -0.172391 -10.4365 7.50092 13
314 1 -5.71127 14.6323 -0.647779 17
315 1 -8.07955 -0.433705 15.9347 12
316 1 -6.19383 -3.52452 12.2151 21
317 1 7.10725 -6.86695 12.9299 12
318 1 11.5499 5.81226 3.68315 21
319 1 -12.0323 5.84633 4.90043 19
320 1 1.12902 4.53806 -0.988428 20
321 1 4.89939 -11.7918 8.17891 11
322 1 11.8761 10.2771 -1.75259 15
323 1 -5.04538 3.84121 14.0411 20
324 1 2.59195 10.1651 1.68719 19
325 1 5.3888 -3.06382 13.344 17
326 1 -3.01927 -14.3008 -2.27436 15
327 1 -0.957498 17.859 7.71821 9
328 1 -9.10963 -13.7768 -3.80563 9
329 1 0.808372 8.95255 17.2577 12
330 1 -6.35092 4.13421 11.0085 17
331 1 -12.2196 -7.41409 0.544897 15
332 1 -12.0075 8.68199 9.94289 21
333 1 -5.13583 -6.03829 -1.07407 17
334 1 -8.03583 5.86557 12.5461 20
335 1 -7.81254 -10.937 -3.78571 19
336 1 0.459021 -4.92205 -7.62422 17
337 1 -9.09532 -13.9217 3.09476 10
338 1 -6.09343 -4.98512 9.75895 20
339 1 8.4076 2.94177 7.89712 19
340 1 -8.9214 -5.50033 10.9055 18
341 1 -10.7347 6.43489 -7.28711 17
342 1 8.4495 6.76632 -3.94309 15
343 1 -3.87158 -12.3264 2.92572 16
344 1 0.0951263 7.32242 -1.63433 21
345 1 2.31166 17.7359 1.42401 13
346 1 -3.84581 10.1914 -5.41075 19
347 1 0.742365 12.1146 16.6028 10
348 1 -19.0869 2.39683 -1.2689 11
349 1 2.65383 14.091 -0.16002 20
350 1 -10.1498 -7.21818 -6.30088 16
351 1 -6.09975 -12.504 -1.64693 21
352 1 -1.09507 4.40146 -7.64077 18
353 1 -13.2315 11.4036 4.82483 12
354 1 3.71473 7.05181 16.6035 15
355 1 3.78501 12.4515 -2.51263 20
356 1 5.11581 10.1954 -0.540442 22
357 1 -10.9974 11.6208 -8.10968 7
358 1 1.96636 6.35951 -3.90571 17
359 1 2.97897 -3.42203 4.95809 22
360 1 -18.7749 0.536301 1.09803 12
361 1 -4.55532 4.97389 -7.90513 19
362 1 11.322 8.39597 0.656516 18
363 1 5.34051 -4.26115 4.12822 21
364 1 8.41819 6.90394 5.09332 18
365 1 7.58047 3.92256 -6.97622 14
366 1 1.75244 -11.9889 0.826543 21
367 1 -3.1561 -14.0918 4.87866 13
368 1 -1.30731 -7.1446 14.1232 15
369 1 -11.684 0.375001 -5.85916 19
370 1 -3.51149 -9.0062 -5.52412 19
371 1 -1.18225 5.64924 -4.49448 17
372 1 -2.05285 -2.77388 17.8496 13
373 1 -12.9572 -5.08131 5.23643 15
374 1 11.9228 1.74019 -4.80574 16
375 1 13.3317 -1.40439 2.48418 15
376 1 -6.27731 11.4313 0.783537 16
377 1 -2.76595 -6.76217 -3.1463 21
378 1 2.03039 6.93617 -9.18227 17
379 1 4.86384 0.423353 -5.11812 14
380 1 -12.2168 0.660018 14.3335 8
381 1 7.72289 16.1025 3.65686 8
382 1 -5.16747 -6.02912 -7.83404 21
383 1 -4.64767 1.53852 11.2559 19
384 1 -2.68021 16.8355 4.46038 13
385 1 -5.16009 0.130835 -9.22024 21
386 1 -16.7518 3.79584 -2.35559 12
387 1 -2.4137 -6.7454 11.2664 20
388 1 1.44646 9.11343 -3.90503 18
389 1 14.1052 5.08961 5.14531 15
390 1 -9.56628 -11.2573 -1.56253 19
391 1 -1.13947 -4.79821 5.54716 21
392 1 -8.51352 13.7185 10.8675 10
393 1 1.28768 -1.25074 -2.3443 20
394 1 0.760762 8.24178 6.77639 19
395 1 11.9629 1.39438 -0.458916 17
396 1 2.62997 15.1193 -4.01957 12
397 1 3.81512 -6.71245 3.31281 18
398 1 -3.66483 9.60207 10.7179 21
399 1 1.02562 4.01044 16.0494 20
400 1 -2.43594 -1.04752 -9.66191 23
401 1 -12.5987 -3.64456 -0.404428 19
402 1 -1.40816 -1.57586 14.252 21
403 1 8.58399 14.34 8.45541 13
404 1 4.89971 7.27877 -10.898 15
405 1 -8.07543 9.07744 -9.95403 15
406 1 -10.5455 13.9688 3.59204 9
407 1 7.58355 2.83046 13.5275 15
408 1 9.53897 3.85898 -2.89156 17
409 1 -9.57934 -1.98522 2.40878 21
410 1 1.33358 -2.1419 16.8784 21
411 1 -6.22116 13.0185 -5.18123 13
412 1 -0.632758 -10.8564 2.60935 19
413 1 9.04098 3.11811 0.717011 19
414 1 -4.35866 12.5804 -2.54777 18
415 1 -7.38677 -5.32957 -6.6864 17
416 1 2.66311 -13.4729 7.36729 12
417 1 -17.8216 -2.62937 -0.0638473 10
418 1 -9.92993 1.69805 1.04921 22
419 1 -4.904 -6.52482 12.4387 19
420 1 1.29518 7.72903 0.691286 23
421 1 -0.120263 -9.98669 -9.44801 7
422 1 4.09393 -5.5838 13.5591 20
423 1 6.18218 4.20741 0.594986 17
424 1 -13.6562 6.24113 2.05861 19
425 1 11.2316 -6.63002 -0.600936 9
426 1 3.77491 10.6475 16.2681 13
427 1 -4.40345 2.198 -5.25745 18
428 1 2.97032 15.5839 11.5408 13
429 1 6.99503 5.7916 -10.7902 12
430 1 0.3469 1.27399 -7.55942 15
431 1 -4.09364 -9.87453 3.95266 22
432 1 -0.223004 -8.14303 -6.23692 18
433 1 11.3135 5.38823 0.326829 19
434 1 13.5314 7.34913 -1.71471 12
435 1 7.5286 -1.18321 -7.23178 17
436 1 7.73144 -10.3602 4.88826 13
437 1 13.2551 13.1832 4.71751 7
438 1 -10.6487 2.87056 11.3539 15
439 1 8.40497 10.9639 4.75265 19
440 1 13.9733 -0.358343 8.96515 12
441 1 9.79902 4.83802 -8.92568 11
442 1 1.68097 1.03317 17.1216 22
443 1 3.83853 -3.57243 10.9242 15
444 1 4.39493 3.06781 5.08252 17
445 1 -4.50354 -0.546149 17.1263 13
446 1 13.4368 -1.70983 -3.96377 12
447 1 12.9899 5.52439 11.236 14
448 1 -13.4815 -0.443948 -2.08733 21
449 1 12.0221 10.3559 7.92118 12
450 1 11.0698 0.0591779 4.44036 20
451 1 0.830058 -8.47294 1.76837 16
452 1 6.87772 6.11411 13.528 14
453 1 5.14209 16.4406 8.94838 11
454 1 3.87874 7.38911 7.89661 18
455 1 -8.77604 13.5204 0.435171 13
456 1 9.42272 10.7324 -6.49381 13
457 1 8.83664 2.9059 -10.1684 10
458 1 3.86444 16.6916 -1.63195 13
459 1 -3.84969 -10.7728 0.371268 16
460 1 -16.5135 3.29287 10.2002 10
461 1 -7.55491 5.52224 -9.19185 18
462 1 -0.329194 -14.3915 6.5925 12
463 1 -7.42915 3.76262 -4.54584 20
464 1 -14.3934 2.1694 -4.45278 15
465 1 6.21009 -6.89801 10.2623 14
466 1 11.6116 6.59451 6.12772 20
467 1 -2.19395 -12.5205 11.1629 13
468 1 -13.0016 -0.227263 -8.44112 12
469 1 -3.57221 -4.16013 11.0312 19
470 1 -3.49263 6.92611 12.6562 17
471 1 6.59412 8.84446 -5.67925 19
472 1 5.76173 6.14934 -5.21449 14
473 1 -1.33016 -9.51144 -3.26156 15
474 1 5.94951 0.246809 12.9969 18
475 1 11.0522 12.8675 7.06872 15
476 1 13.3706 -4.33252 0.889031 12
477 1 -0.116196 9.00639 11.0031 19
478 1 -15.8389 -3.87193 4.63566 12
479 1 -15.384 1.6673 -1.45522 18
480 1 6.83131 -1.6257 15.8626 12
481 1 -3.99898 -7.77591 15.1951 11
482 1 5.60045 4.15193 15.6532 12
483 1 -1.50408 11.7257 6.15153 20
484 1 10.3598 8.6053 3.21665 19
485 1 9.77503 9.90107 10.0687 14
486 1 2.30452 8.28475 -13.2445 6
487 1 -14.045 0.373364 12.2023 12
488 1 8.6505 0.793061 -5.20039 18
489 1 -2.10846 -1.54712 -1.99215 23
490 1 3.77664 -5.36488 -4.95607 19
491 1 5.28958 5.41546 9.90254 13
492 1 5.99509 5.02344 3.68569 17
493 1 12.8278 1.63267 10.8784 13
494 1 -4.60829 -5.12105 17.4051 11
495 1 2.13277 9.8245 12.7036 14
496 1 -1.23109 -0.234722 -5.01204 19
497 1 -2.33247 11.1924 12.4605 18
498 1 0.994208 -0.21629 19.7343 10
499 1 12.8825 10.7133 1.33298 14
500 1 5.0142 -9.05415 -0.784809 19
501 1 -6.80787 6.55646 -2.63005 22
502 1 7.12057 15.9134 0.0060283 11
503 1 2.37327 15.2058 3.29595 19
504 1 2.35073 0.660702 12.0408 18
505 1 0.749676 16.3375 -1.38332 15
506 1 12.2221 10.2075 5.20798 20
507 1 -5.81563 -15.3689 -0.896098 13
508 1 -3.06248 4.33312 -10.6418 17
509 1 -12.4404 10.082 -2.67938 12
510 1 2.89212 -2.59506 -5.36213 16
511 1 11.3838 3.81171 8.97374 21
512 1 10.3475 7.87217 -7.30915 10
513 1 8.2776 9.67943 -0.38138 19
514 1 -1.93859 6.67489 9.55653 17
515 1 -10.1451 8.09839 5.18625 19
516 1 4.00028 9.60219 -3.7154 22
517 1 -0.748705 -10.1966 12.439 13
518 1 -6.83125 8.38602 -13.2482 9
519 1 4.85312 13.5676 11.2284 16
520 1 4.93878 2.78399 11.6719 18
521 1 6.41909 16.6676 -3.40324 8
522 1 10.2418 15.1198 5.37867 9
523 1 8.11716 -5.1081 -7.14072 13
524 1 -16.6534 -1.22906 2.7531 18
525 1 2.27047 -14.2195 4.05711 15
526 1 -4.76714 -0.860342 -3.48865 22
527 1 3.64487 7.96059 11.0977 21
528 1 4.99521 -3.78931 0.788501 23
529 1 8.35801 11.9207 1.81234 17
530 1 -16.5903 -1.06353 5.94353 15
531 1 1.19591 -14.7347 0.654997 16
532 1 6.2017 7.84045 -1.9663 18
533 1 -1.25138 -7.93654 4.25055 19
534 1 1.43077 10.7857 6.7919 20
535 1 -1.426 -0.890407 -12.8275 11
536 1 0.586271 -13.5919 12.6965 9
537 1 3.74035 9.94337 5.87628 20
538 1 -10.0482 2.39019 16.3001 11
539 1 -10.1336 -2.23754 -9.0614 13
540 1 3.70208 1.38312 -2.20657 17
541 1 -5.56764 15.3438 11.55 11
542 1 3.0786 -6.97257 -2.74148 19
543 1 3.35523 -13.4798 10.6847 10
544 1 3.67061 -11.3672 -3.49141 12
545 1 -14.1669 -2.94978 10.9088 13
546 1 -2.25963 1.8952 -3.02824 17
547 1 -5.77981 -9.76284 -8.05836 12
548 1 -12.7401 8.66351 12.7021 16
549 1 12.8874 9.57132 -4.83476 10
550 1 -3.84042 8.64588 7.56879 17
551 1 -13.7459 8.42787 5.71824 19
552 1 10.8099 -2.20777 1.50544 17
553 1 -3.5073 11.2032 0.301693 20
554 1 9.92948 9.86011 -3.43993 17
555 1 8.81323 6.01986 -0.781594 19
556 1 -11.3256 8.89892 -8.67396 12
557 1 -15.4933 -3.31717 -2.99168 18
558 1 1.78933 12.2754 -4.61829 18
559 1 -0.552642 5.97601 11.9961 19
560 1 -9.70419 -6.2541 13.9901 10
561 1 3.24251 -3.95747 -9.30162 10
562 1 -9.60134 7.16757 -0.10725 16
563 1 7.83802 11.2193 8.07822 20
564 1 -11.5773 -5.03603 12.4012 12
565 1 4.69788 6.30144 -7.8685 16
566 1 2.80439 -13.5644 -1.30108 12
567 1 3.3093 3.0452 -8.48205 15
568 1 -1.13365 -2.85177 -7.83717 19
569 1 -0.301527 3.3707 10.1574 22
570 1 -0.895282 8.51687 -5.5895 23
571 1 -9.50632 -3.21409 -0.342962 18
572 1 7.55122 -1.85269 1.85104 20
573 1 -7.17996 -6.74115 1.04271 19
574 1 4.71119 9.16337 -7.93439 16
575 1 8.08814 -4.1448 -0.308544 14
576 1 -5.63853 6.89562 15.2904 15
577 1 8.77552 -7.96509 10.1223 9
578 1 12.4697 -4.7421 -2.25438 11
579 1 4.60628 -8.4212 13.3585 13
580 1 4.67281 10.3848 8.89624 20
581 1 -8.69022 5.65961 15.6847 11
582 1 -3.20448 -10.2464 9.27373 18
583 1 6.33253 1.39021 2.94229 18
584 1 4.96571 8.4145 14.2577 14
585 1 -17.8423 4.38286 5.72188 12
586 1 9.51734 -0.185316 0.00654261 16
587 1 7.56848 12.1686 11.1054 14
588 1 3.95055 -1.79327 18.1943 13
589 1 -0.331391 15.6442 11.2116 13
590 1 -1.98881 -10.8472 5.43147 17
591 1 -11.329 -0.457719 -0.345313 20
592 1 3.5943 5.61261 13.5159 21
593 1 -2.53489 9.22497 4.94608 22
594 1 -9.32577 -9.06363 6.60996 19
595 1 4.57433 -0.376727 9.79269 20
596 1 6.99017 -2.45154 9.32535 17
597 1 6.23087 5.65135 6.69209 17
598 1 -8.71318 9.41306 2.14589 18
599 1 -7.45801 -8.30182 -2.81951 19
600 1 3.33718 4.83605 -10.7065 14
601 1 -8.05657 3.07069 14.0021 16
602 1 -0.614335 16.0183 1.49504 18
603 1 13.8091 2.36031 7.35751 17
604 1 5.53484 14.1662 -3.91487 17
605 1 -4.20813 9.29214 14.7427 16
606 1 2.64861 7.32916 3.36093 16
607 1 0.931754 -1.47957 -10.6175 13
608 1 -6.83296 -9.92053 -0.39049 19
609 1 -8.18809 1.9508 -2.64781 18
610 1 15.038 3.11916 10.1346 10
611 1 0.215842 3.10828 -4.66958 19
612 1 -0.311905 -6.49499 -0.714851 19
613 1 14.5019 -1.30663 5.64507 10
614 1 1.12763 -6.29287 15.7038 14
615 1 -6.49126 -8.58601 -5.97399 17
616 1 5.07083 15.2678 2.69948 15
617 1 -6.23208 -1.24039 10.1165 19
618 1 -14.3981 3.36659 3.9233 17
619 1 11.4036 6.91415 -4.27045 17
620 1 2.36127 1.14213 -10.4397 12
621 1 -5.72453 13.9313 8.73464 16
622 1 -0.456766 10.3722 -12.9779 10
623 1 9.03083 -8.13158 2.56035 14
624 1 -12.3913 8.62355 2.87908 23
625 1 5.9321 12.4321 4.8046 20
626 1 -13.4688 -6.23319 -1.9491 15
627 1 3.60889 2.51214 13.993 21
628 1 -16.9568 -0.503851 -2.03577 14
629 1 -10.7893 7.35983 7.68326 19
630 1 -3.1904 6.9976 -2.60187 21
631 1 8.77386 -2.23534 -4.14694 18
632 1 -16.0011 -6.57804 -4.35548 9
633 1 6.75312 -2.97761 -9.40854 9
634 1 -18.3809 5.82547 -0.524202 10
635 1 -13.1242 -1.76625 1.91988 20
636 1 -7.35261 -6.4909 7.62631 16
637 1 9.0573 -1.72715 6.62456 19
638 1 6.74271 -2.01375 4.68985 20
639 1 -16.1612 2.18371 7.32937 15
640 1 6.11795 11.6214 14.1995 14
641 1 -3.04617 11.4374 -11.0285 13
642 1 -3.28471 13.2417 9.86527 20
643 1 6.65729 12.6808 -0.855877 15
644 1 -1.07415 9.40055 14.7461 17
645 1 -0.765309 -3.88016 13.2115 17
646 1 1.91293 10.4823 -7.59284 16
647 1 -13.0214 3.12449 14.4553 12
648 1 -2.41389 -8.56133 -8.46896 17
649 1 -18.1473 3.64102 1.93283 17
650 1 -8.70497 -10.8848 10.0747 10
651 1 2.90797 4.00132 17.9363 15
652 1 -2.49226 -16.0675 0.413184 12
653 1 -17.1286 5.7911 8.47054 13
654 1 10.5209 4.63577 -5.68405 17
655 1 -7.51234 11.8463 5.15511 13
656 1 -8.56009 0.429506 12.7135 16
657 1 -4.27922 -11.5582 -5.73479 11
658 1 -3.87073 -7.90887 1.23682 20
659 1 4.71702 -9.97936 5.45455 17
660 1 -3.70999 10.139 -13.8971 11
661 1 13.7787 1.86463 4.21758 15
662 1 12.243 7.52708 9.90452 17
663 1 13.2325 4.70547 -3.71727 12
664 1 -7.81354 5.51226 -12.6953 10
665 1 -5.27693 -12.677 10.1926 11
666 1 7.08866 10.9616 -3.37437 22
667 1 4.77206 6.84572 0.897513 22
668 1 -8.39753 4.31463 -1.20512 20
669 1 1.5156 10.7097 -1.14111 20
670 1 -11.6945 -2.07998 8.77021 18
671 1 3.37382 12.2617 3.70089 23
672 1 4.90279 -12.7634 4.90757 13
673 1 -1.74211 11.0938 2.45313 19
674 1 -0.044679 14.0137 14.2068 11
675 1 -14.1351 6.54236 14.4383 8
676 1 5.87266 0.422813 0.484624 19
677 1 -4.47039 -3.54468 14.1441 18
678 1 2.19895 -4.90808 8.08976 19
679 1 -8.36765 5.24332 9.33212 19
680 1 9.29678 6.03423 8.46719 17
681 1 11.3595 -4.49274 -5.44585 9
682 1 -7.34284 -2.97938 -9.11947 18
683 1 -3.59468 7.4305 -6.30268 18
684 1 -11.1452 4.28761 0.440406 20
685 1 10.8542 12.7072 3.11275 17
686 1 -0.654407 13.1323 8.8146 19
687 1 -9.11111 -10.5273 -7.43436 9
688 1 -4.22342 11.8955 3.61794 20
689 1 7.41728 1.03278 10.1392 19
690 1 -6.91597 -12.5002 1.2748 20
691 1 10.089 1.63964 -7.35877 12
692 1 5.41325 -11.8 -1.19046 12
693 1 -3.28967 2.56684 -8.53349 20
694 1 -5.92837 2.80227 -10.679 15
695 1 -10.2935 -5.19821 1.87432 18
696 1 -9.58978 5.84519 2.99334 21
697 1 -2.21117 12.4132 15.3489 13
698 1 6.93233 -4.30274 14.8995 13
699 1 -9.59242 0.884551 6.53046 14
700 1 8.3691 1.07679 5.42237 16
701 1 -4.40447 7.7017 -9.50203 23
702 1 14.0925 8.03444 3.38024 14
703 2 -12.9113 1.78369 -8.99589 11
704 2 -7.96679 6.86445 -5.25944 19
705 2 -2.87563 4.41086 -8.56612 19
706 2 -7.41793 6.86236 15.2838 12
707 2 -7.72613 -2.08802 -5.50906 21
708 2 -6.20086 -0.66684 16.47 13
709 2 -10.4206 -10.1756 2.36611 16
710 2 -12.5598 10.3021 -7.55213 9
711 2 0.440206 14.7289 3.91651 19
712 2 -9.93435 2.63823 6.74356 18
713 2 7.7926 2.03698 3.7303 16
714 2 -6.7739 3.02395 -1.53842 16
715 2 -15.1655 -6.55966 -6.03156 8
716 2 -9.16446 1.66883 3.87301 17
717 2 -1.07383 -7.02092 7.53023 20
718 2 2.61027 0.68288 14.2113 18
719 2 5.3779 0.106317 -3.39511 16
720 2 4.21129 -13.3889 3.27155 15
721 2 10.9917 2.14728 11.2818 14
722 2 -12.6842 10.0105 1.5662 17
723 2 -15.0588 2.84643 -2.8792 17
724 2 14.0735 6.83272 9.75613 11
725 2 2.31887 -5.53977 -3.73555 19
726 2 -10.5341 -9.6794 -0.700417 18
727 2 -14.4153 1.54232 7.81219 16
728 2 -5.24644 -8.48496 3.03878 19
729 2 10.2426 -7.87954 9.37993 7
730 2 -4.851 -14.3257 -2.43329 12
731 2 2.76493 0.171468 9.84953 19
732 2 -6.60599 12.0238 -6.71881 12
733 2 -11.4128 -9.02557 -3.50263 15
734 2 -0.517853 5.3858 16.4695 16
735 2 -9.95615 8.84797 0.659434 20
736 2 -1.80628 2.6634 17.4706 14
737 2 -12.5677 6.87692 -6.18186 14
738 2 11.2795 -4.79428 9.20145 10
739 2 -0.862179 10.9808 16.0334 14
740 2 -2.51239 15.3379 -3.40891 11
741 2 0.908826 -7.40389 0.109418 16
742 2 -6.05127 4.40506 -8.98745 18
743 2 0.801392 -6.59461 -8.6554 15
744 2 7.88971 0.371122 -0.107587 16
745 2 -1.48826 14.3277 10.2527 19
746 2 6.1816 5.18912 -6.92983 13
747 2 -4.70915 8.58148 -13.283 12
748 2 9.90066 10.0433 -1.17011 18
749 2 -8.9066 1.13847 16.9842 9
750 2 -12.1554 11.1476 6.23305 16
751 2 7.9195 4.91044 0.718258 19
752 2 -1.43108 -5.10986 -11.0931 13
753 2 -14.3398 -1.16204 10.9413 14
754 2 12.6293 11.962 6.49176 13
755 2 0.982906 12.3958 9.79806 21
756 2 -4.42728 -5.85313 -2.94054 21
757 2 -2.61855 16.6905 8.03747 13
758 2 2.92534 -7.3201 12.686 15
759 2 6.46729 -0.745583 9.6799 15
760 2 -14.8254 4.54787 2.60266 21
761 2 9.57187 -5.39299 -6.12904 11
762 2 9.98175 -7.19229 1.25444 12
763 2 4.98426 8.26768 6.63857 17
764 2 5.8748 -11.2937 4.30082 15
765 2 9.93565 -4.71096 2.97939 19
766 2 -3.5436 0.722042 16.0653 15
767 2 13.7807 0.11817 1.47751 15
768 2 -0.419635 6.98868 5.79863 19
769 2 9.22689 8.20494 9.11071 20
770 2 -9.67094 6.23339 13.6552 17
771 2 4.18725 15.1111 10.1719 13
772 2 12.7122 -4.58214 2.78116 12
773 2 3.33644 13.4262 -4.39182 15
774 2 -10.458 -0.802179 -5.3704 22
775 2 -9.59265 2.19767 12.8915 19
776 2 8.81991 -0.230687 -3.72807 18
777 2 -9.86642 3.21889 -1.03379 20
778 2 -13.2085 -0.817602 5.21483 17
779 2 -12.7581 -6.7866 4.72709 12
780 2 14.0547 3.11109 5.72044 15
781 2 2.61135 -5.18221 10.0403 18
782 2 -5.20942 -4.02269 15.9171 16
783 2 7.02838 1.8587 -10.5477 10
784 2 1.03324 3.93266 18.4359 11
785 2 5.89871 12.3721 12.2612 14
786 2 -14.6281 2.28666 0.792897 20
787 2 -0.817226 -6.51631 -2.39987 19
788 2 13.7521 1.88255 -0.84103 14
789 2 -7.52351 13.5073 9.31105 12
790 2 -7.60883 -9.00732 1.1664 21
791 2 4.39647 -0.238453 -0.617817 20
792 2 5.65632 2.30279 1.33511 17
793 2 -2.4128 11.246 10.2709 19
794 2 3.55995 -5.84966 -0.870433 20
795 2 -1.87646 -0.569803 10.6226 21
796 2 -10.7812 -6.35834 7.09427 16
797 2 13.2722 2.61937 -3.74614 12
798 2 -6.52152 -8.3915 8.59685 21
799 2 8.84602 8.95713 -8.0945 10
800 2 -8.09755 -9.63104 4.6368 16
801 2 10.9368 2.85509 -6.03377 16
802 2 -0.047124 -10.0845 -1.87268 16
803 2 14.0206 0.390743 5.53974 16
804 2 -1.94314 13.0839 7.19842 20
805 2 11.2432 9.28331 -6.06576 13
806 2 -9.18941 -3.34285 -2.38321 19
807 2 -7.35267 -4.21369 10.9893 18
808 2 -0.595677 -4.49235 3.63913 20
809 2 -6.00406 -3.50698 2.3544 21
810 2 0.483663 12.1437 6.06309 23
811 2 -9.21004 12.5751 5.64986 13
812 2 -0.669764 2.8665 -2.52593 19
813 2 4.50918 10.533 1.55572 18
814 2 0.215579 9.54703 -2.17482 21
815 2 -8.476 3.68106 15.7289 14
816 2 -3.69732 6.519 -11.0475 17
817 2 -17.517 5.96955 6.61337 10
818 2 -5.40272 9.34511 9.8888 15
819 2 -12.3278 10.1103 11.6753 16
820 2 -10.8632 3.12791 2.0264 18
821 2 10.3369 12.6376 1.2893 13
822 2 12.8615 7.92156 -3.59622 12
823 2 9.70593 -6.94991 -1.80074 11
824 2 -12.7876 -3.7147 12.0001 10
825 2 3.97784 2.86262 6.97689 16
826 2 1.84501 8.76689 2.27693 17
827 2 -9.65778 5.29621 -11.6081 10
828 2 -9.70499 8.86605 9.70912 19
829 2 6.81799 -5.9158 15.8483 8
830 2 -11.7218 -6.42685 -5.98012 14
831 2 3.74408 11.061 -7.30827 15
832 2 12.0852 11.412 -0.203322 12
833 2 -9.37118 -8.16019 13.6055 8
834 2 2.07924 9.22848 5.34909 22
835 2 -7.4456 9.40354 -6.14676 20
836 2 -5.36779 14.5487 -5.30848 9
837 2 7.91409 -0.294641 16.145 8
838 2 -2.60938 5.91073 11.3153 20
839 2 7.40786 -3.29629 -7.39817 14
840 2 -6.81516 4.13669 13.0027 21
841 2 -8.01542 -5.62125 14.3018 17
842 2 -8.19769 7.67996 2.43756 20
843 2 -2.41141 -8.00251 -6.69696 18
844 2 0.038676 -12.0836 -5.46262 9
845 2 2.21959 2.87866 -1.84706 19
846 2 15.5256 4.47254 8.90219 9
847 2 -3.33966 11.0702 14.3013 15
848 2 4.87785 4.64312 -3.69724 16
849 2 -10.6086 -3.93918 13.5647 11
850 2 -3.73794 -2.74684 -9.48548 19
851 2 -5.25761 -10.7302 -1.08585 18
852 2 -1.92997 -3.56706 -1.80288 18
853 2 5.40402 -12.021 0.796735 15
854 2 7.64783 15.3803 -3.80416 12
855 2 -3.9965 2.67497 -10.3486 19
856 2 -4.50415 14.9825 9.86643 14
857 2 -10.8435 -4.52268 0.0917231 18
858 2 -7.36059 -4.85365 -4.74236 19
859 2 3.61445 8.20258 -12.201 11
860 2 -0.887028 15.9137 -0.498018 17
861 2 0.210116 -13.3145 -0.345783 20
862 2 13.1154 3.55629 11.1158 13
863 2 -1.11125 6.03477 13.9027 19
864 2 -7.03114 -14.0544 -0.545322 16
865 2 -1.87767 -12.134 2.62996 21
866 2 -0.0805654 -3.14808 17.9493 13
867 2 9.38156 4.15742 9.21462 17
868 2 11.8056 -0.17968 -4.22342 16
869 2 1.79547 6.67341 17.2012 13
870 2 5.9238 16.7126 -1.4048 11
871 2 -15.0891 1.68836 10.8428 12
872 2 8.16443 -2.83837 3.75782 17
873 2 1.70339 14.5748 1.53579 22