ITEM: TIMESTEP
21000
ITEM: NUMBER OF ATOMS
500
ITEM: BOX BOUNDS pp pp pp
-30.0 30.0
-30.0 30.0
-30.0 30.0
ITEM: ATOMS id type x y z Coordination
1 1 2.51732 6.5484 6.31434 13
2 1 -3.00496 12.2389 6.30689 15
3 1 -7.69716 5.29634 -10.4874 20
4 1 -14.382 8.80623 -5.63781 12
5 1 -0.408864 10.309 -13.6487 13
6 1 2.72019 0.872296 -7.016 10
7 1 0.168477 5.81609 4.23327 22
8 1 -0.786539 14.2982 5.9148 10
9 1 -13.7941 6.51583 -0.297791 18
10 1 3.97321 5.9916 -3.92953 21
11 1 0.109757 11.2368 5.00517 23
12 1 -10.317 0.974082 0.626931 16
13 1 -5.90415 2.40305 -10.3349 14
14 1 4.02712 5.45721 -6.84146 17
15 1 3.21086 1.16475 -0.0549077 14
16 1 -7.9501 16.6896 2.63058 11
17 1 -5.05053 17.2968 -2.17983 15
18 1 -5.31478 5.46086 -12.1221 15
19 1 -5.07908 11.5889 4.03874 20
20 1 -8.86365 14.111 0.710735 20
21 1 -2.40791 11.1581 -10.6049 19
22 1 -7.46426 16.891 -7.08183 13
23 1 -10.8661 11.9511 -8.67301 15
24 1 -7.59695 16.7421 -4.29666 15
25 1 -13.8823 11.0925 -3.64045 17
26 1 -3.55816 14.2502 3.98692 17
27 1 -8.2623 11.6158 -10.5233 15
28 1 -9.91649 0.0446067 3.19595 10
29 1 0.840925 0.693914 -5.14486 15
30 1 -13.7593 6.63935 -7.8532 14
31 1 -5.47825 -2.05317 -0.0791218 11
32 1 0.446238 11.1813 -8.78279 15
33 1 -14.2461 3.21142 -8.72943 9
34 1 -2.88757 13.0103 -13.229 9
35 1 -5.01769 16.8737 -5.76006 16
36 1 -13.9451 6.52647 3.23174 13
37 1 -2.27784 16.1969 -0.745055 15
38 1 -0.242396 8.13843 6.55387 17
39 1 -3.31798 -1.2189 -6.61238 11
40 1 4.25653 6.94837 -9.8694 9
41 1 -0.274539 4.5557 6.78187 11
42 1 -2.70241 3.07951 4.67237 16
43 1 0.103831 14.4749 -3.68601 17
44 1 -12.9712 1.02438 3.01686 9
45 1 -6.91899 -2.96384 -2.85908 10
46 1 -8.52279 4.87028 6.35986 13
47 1 -12.5817 9.02874 2.09968 18
48 1 0.804941 0.898584 -2.16872 16
49 1 -11.8398 3.59151 2.65447 20
50 1 -10.9565 17.6217 -2.10359 11
51 1 -10.8378 16.5829 1.20108 9
52 1 -6.83036 13.1042 5.63513 13
53 1 -12.1758 3.13483 -6.83425 19
54 1 -9.96645 3.46232 -11.2779 12
55 1 2.38581 10.0249 6.79319 10
56 1 -5.54673 3.96358 6.12494 14
57 1 -11.7947 7.97504 -13.2889 6
58 1 -13.6398 6.00323 -4.23857 18
59 1 -9.11435 -1.87986 -5.68253 12
60 1 -9.43135 13.7179 3.90283 14
61 1 -4.64718 0.61787 -8.44014 14
62 1 -6.25654 14.1654 2.69327 20
63 1 -12.5015 5.9065 -10.2157 11
64 1 -14.9706 13.0639 -4.76799 9
65 1 -8.10782 0.297316 -10.664 9
66 1 3.54999 1.13831 3.25112 10
67 1 -13.7279 11.2025 -7.16073 12
68 1 -9.55973 7.83334 7.0624 12
69 1 -12.3088 11.7729 4.13306 10
70 1 -2.61244 15.9919 -11.3839 8
71 1 -5.1829 1.4073 4.14533 15
72 1 -0.916106 -0.00708482 -7.82171 11
73 1 2.3319 8.865 -11.8672 10
74 1 2.25809 3.31389 5.5078 12
75 1 -10.6548 -0.297472 -8.20672 10
76 1 -11.028 5.95007 4.6119 16
77 1 2.87742 10.2351 3.57479 16
78 1 4.0237 11.1871 -4.18513 13
79 1 -5.34237 11.019 -11.9334 18
80 1 -5.58323 14.3276 -10.5127 15
81 1 -2.27722 16.4069 -4.1786 15
82 1 -0.614094 8.69223 -10.4824 20
83 1 -2.03126 0.797802 -0.518797 17
84 1 2.84385 3.53956 -1.56324 21
85 1 -3.99596 -2.85944 -3.39579 10
86 1 -8.86773 10.0219 -13.6019 10
87 1 7.47079 6.70861 -4.36553 10
88 1 -12.1128 14.1478 -6.73475 11
89 1 -0.25247 2.57452 -10.1988 10
90 1 -10.8703 2.36356 5.77214 10
91 1 -6.31155 -2.17483 -6.01142 13
92 1 -2.70537 5.82429 -10.6497 17
93 1 0.687232 1.13213 1.36367 15
94 1 -9.25196 2.29146 -8.6816 19
95 1 -3.33968 8.79692 7.77115 13
96 1 -6.2032 9.57177 6.10004 20
97 1 0.262692 5.65591 -9.70045 18
98 1 -0.183602 13.567 -6.74583 16
99 1 5.6077 8.51326 -6.94701 12
100 1 -5.83042 8.35913 -14.1067 10
101 1 -13.3316 11.1904 0.0812218 14
102 1 -3.20821 5.93207 6.38374 16
103 1 -9.92413 9.41464 -10.6166 15
104 1 2.58172 3.95934 1.76655 22
105 1 2.16234 13.3562 4.36414 14
106 1 -2.38568 0.147123 2.93282 12
107 1 4.36883 11.3021 -1.48609 13
108 1 2.51138 15.5827 1.82344 12
109 1 -0.453743 14.3528 2.69582 17
110 1 -8.52266 14.5716 -9.02926 12
111 1 -11.5444 0.403665 -5.41887 13
112 1 -15.1836 13.7364 -1.1652 6
113 1 2.81836 14.2627 -5.14868 12
114 1 -0.653975 11.11 7.90846 11
115 1 -3.34195 8.49018 -12.7329 17
116 1 3.42639 17.1212 -3.24401 6
117 1 2.8136 3.68998 -9.01081 10
118 1 4.6245 4.22616 3.85803 11
119 1 -9.30377 10.933 5.89595 14
120 1 2.50449 9.294 1.06174 16
121 1 -6.22627 13.919 -7.21149 24
122 1 3.77491 11.2331 -7.19763 11
123 1 -6.25212 6.90662 7.5631 13
124 1 -8.16715 2.36418 4.65277 13
125 1 -12.2185 14.6651 -0.369471 14
126 1 -0.0600238 14.5288 -0.763026 20
127 1 -14.8238 3.93616 0.94319 10
128 1 3.41345 6.58493 -0.401125 19
129 1 -7.75508 1.51117 -1.66519 21
130 1 3.45788 12.5922 1.37077 12
131 1 3.75187 0.909019 -3.56989 12
132 1 0.483379 17.7141 -2.32523 11
133 1 -14.2428 2.39585 -5.14075 11
134 1 -3.18393 13.4287 -8.66914 21
135 1 -10.7504 5.34349 -8.1495 20
136 1 -0.579089 7.10453 -13.134 11
137 1 -6.9864 0.194427 -7.5375 19
138 1 5.75023 3.59343 -4.13166 11
139 1 -14.5808 8.31087 -2.21039 12
140 1 -4.4776 16.3124 -9.01822 14
141 1 -10.5685 0.832851 -2.72727 15
142 1 3.26344 6.66068 3.01751 16
143 1 -8.49367 6.80662 -12.6444 16
144 1 -10.4442 16.9861 -5.07295 14
145 1 -12.1681 9.01417 5.16972 14
146 1 2.67324 14.078 -1.70365 14
147 1 6.73201 5.98765 -1.21892 9
148 1 -7.43164 -0.446158 2.64625 12
149 1 2.61413 9.12949 -8.92425 16
150 1 -0.387846 13.1564 -11.9496 9
151 1 0.432999 18.2152 0.830287 6
152 1 -1.66871 16.3288 -7.49108 11
153 1 5.83021 8.78044 -3.72998 15
154 1 2.94418 3.02326 -5.2392 20
155 1 -5.19486 16.9266 1.11504 12
156 1 -7.97562 17.0855 -0.738696 16
157 1 -8.11674 -0.832381 -0.372186 17
158 1 5.31054 4.00612 0.479103 11
159 1 -14.6255 4.54399 -2.32459 13
160 1 -12.0815 15.1793 -3.92386 14
161 2 -13.2388 8.52877 3.71257 11
162 2 3.67572 13.094 -0.542249 13
163 2 -12.0535 12.2892 -7.15306 15
164 2 -8.98975 -0.145275 1.48552 14
165 2 -0.606903 12.5009 6.52755 14
166 2 -8.37492 12.2448 4.66538 18
167 2 3.08177 2.74717 -7.40035 12
168 2 -7.89804 9.05009 -10.1213 22
169 2 -3.7445 6.54016 -12.071 17
170 2 -8.31534 14.6763 2.54924 18
171 2 2.5679 5.92733 1.32439 22
172 2 0.831254 13.6362 -2.10484 19
173 2 -3.47138 16.2061 0.678059 16
174 2 -0.104059 17.194 -0.5602 13
175 2 -1.73565 14.4843 -12.0284 10
176 2 2.98192 8.02688 -10.5279 12
177 2 -9.81477 8.51309 -12.6221 11
178 2 -3.30873 1.24618 4.16776 14
179 2 -13.7499 9.21905 -0.573404 16
180 2 0.976118 3.75034 -9.36906 13
181 2 -7.90218 -1.45312 -7.18804 13
182 2 0.117046 14.3112 4.36882 16
183 2 0.457664 6.31809 6.1391 15
184 2 -11.3943 0.594842 1.96929 9
185 2 -4.79066 -1.60025 -1.88485 16
186 2 -13.6617 2.90278 1.92603 11
187 2 -5.63269 -2.84304 -4.19712 13
188 2 -10.4332 -0.882975 -6.28339 13
189 2 -11.6982 16.6023 -0.623261 12
190 2 3.28494 12.3399 -5.74888 11
191 2 -2.48334 9.18286 -10.7845 20
192 2 -6.03529 17.1582 -0.509299 15
193 2 -8.92608 17.1533 1.02943 13
194 2 -5.92621 17.3752 -3.78314 16
195 2 -2.4339 16.7244 -9.29206 10
196 2 -5.3642 13.6482 4.25575 16
197 2 -2.13629 7.69134 7.03381 14
198 2 -0.731633 6.77174 -11.1817 17
199 2 -2.85852 -0.341685 -8.14461 12
200 2 -12.2934 2.17188 -4.9068 14
201 2 3.46216 3.13453 0.173336 17
202 2 2.77573 15.1602 -3.30481 12
203 2 -5.19302 9.27004 -12.5087 17
204 2 -1.69857 8.56765 -13.6039 10
205 2 -8.44213 2.33812 -10.7104 11
206 2 -1.63249 3.84838 -10.3651 15
207 2 5.39306 7.92137 -8.62178 9
208 2 -6.61722 6.77708 -12.7488 14
209 2 -6.41537 0.59564 -9.51721 14
210 2 -6.39181 11.6307 -10.4023 18
211 2 -9.37003 0.135304 -1.62264 14
212 2 -10.819 14.6225 1.05155 17
213 2 -12.2138 2.44969 4.31709 11
214 2 -13.8052 9.01729 -3.80189 17
215 2 2.48125 0.853285 1.8299 11
216 2 0.897914 16.7699 2.09908 8
217 2 -5.04713 8.4593 7.2627 14
218 2 -12.2199 11.1864 2.15782 15
219 2 -14.0468 4.97455 -8.55079 10
220 2 5.42832 10.5657 -2.92916 10
221 2 -13.7369 3.94975 -0.778147 14
222 2 -6.41171 11.4691 -6.89199 21
223 2 0.724995 9.07191 -12.9871 10
224 2 -11.2141 14.1014 -2.48692 20
225 2 0.642279 0.498651 -6.91142 12
226 2 -2.96402 -1.67914 -4.71712 13
227 2 -11.7032 17.2948 -3.79064 10
228 2 -0.0573727 0.544011 -0.291886 15
229 2 2.27099 17.9866 -2.28093 7
230 2 -8.76421 17.3766 -5.85548 12
231 2 -7.33115 3.58253 5.8999 15
232 2 -3.63 11.9365 -12.0702 16
233 2 0.854155 10.1587 7.9021 10
234 2 2.57973 11.1472 -2.70159 17
235 2 0.606917 13.8288 1.00818 20
236 2 -10.8039 3.31768 0.934434 18
237 2 -2.67495 13.9374 5.57403 13
238 2 2.41015 8.28574 6.48437 11
239 2 -0.983412 12.2469 -13.349 9
240 2 -3.40155 10.9896 4.59204 22
241 2 1.27546 4.17309 3.99649 20
242 2 -13.8987 6.73962 -5.94853 14
243 2 -10.9733 15.2465 -5.9325 14
244 2 -8.98289 12.5992 -8.76424 17
245 2 -7.0345 0.900582 3.83192 14
246 2 -0.202678 16.3497 -3.39293 16
247 2 -12.2917 6.80335 -11.7793 8
248 2 6.89895 7.50995 -2.76408 9
249 2 -13.3487 13.9872 -4.83048 14
250 2 5.1303 5.5145 -0.580668 14
251 2 -9.75177 1.25742 4.74352 13
252 2 -11.3008 4.354 -10.0311 16
253 2 -5.6277 17.0772 -7.68464 14
254 2 -14.875 12.4489 -2.58762 10
255 2 -4.93853 3.40864 4.43609 18
256 2 -13.4917 13.0343 -0.474675 13
257 2 -2.78422 10.7098 7.30187 15
258 2 -11.7594 7.0666 -8.65267 16
259 2 -3.05767 16.647 -5.83435 13
260 2 -6.11693 11.3593 5.76041 15
261 2 -7.21926 9.474 -14.189 9
262 2 -7.13103 1.51448 -6.30091 23
263 2 -0.433435 8.94784 4.87108 22
264 2 3.85579 8.27148 -4.01479 21
265 2 -0.550397 1.32941 2.66447 14
266 2 -8.46172 9.10302 5.92249 16
267 2 -14.0661 2.51434 -6.95014 9
268 2 -11.139 10.6071 5.1669 15
269 2 -14.5327 6.17746 1.37107 13
270 2 -5.35302 -0.536768 -6.89091 16
271 2 -4.48525 15.7023 -10.9782 10
272 2 -0.202685 11.5303 -10.4671 16
273 2 -0.885528 1.82247 -8.58801 12
274 2 3.40408 5.53513 4.76501 13
275 2 2.14612 11.5239 4.91713 15
276 2 -4.96484 13.888 -8.72413 19
277 2 -9.12396 5.24446 -11.6885 15
278 2 -6.25069 16.1023 2.37311 14
279 2 -7.90665 14.8172 -6.99087 19
280 2 -13.218 9.28422 -7.06878 15
281 2 -11.1964 13.197 3.83079 11
282 2 3.70813 5.46049 -8.82665 11
283 2 -14.6648 11.1852 -5.30233 11
284 2 -7.43336 13.9434 -10.3894 12
285 2 0.904701 3.18305 6.84302 8
286 2 -11.4224 7.43373 5.8104 13
287 2 -12.1138 5.72218 2.90609 20
288 2 3.46898 2.63533 4.25978 9
289 2 -14.7299 6.40792 -2.04928 12
290 2 -8.17014 6.56878 7.39114 13
291 2 -6.21472 -0.866705 1.18175 13
292 2 3.65476 8.68619 -0.590085 16
293 2 -0.55407 0.435444 -3.71429 17
294 2 -8.93955 16.6864 -2.53504 16
295 2 -9.29614 10.8413 -11.9332 12
296 2 -10.1955 4.05727 5.79498 12
297 2 -2.06115 4.20036 6.09219 16
298 2 0.533421 9.01257 -8.86476 19
299 2 3.10217 13.9964 2.89406 12
300 2 3.08897 8.51968 3.05739 16
301 2 4.46837 4.37014 -5.32703 15
302 2 4.16673 2.89159 -3.04648 15
303 2 2.20956 10.8578 -8.3912 14
304 2 -14.1663 3.95478 -4.12033 13
305 2 5.27548 4.04106 2.20265 10
306 2 -1.86434 14.3105 -7.70006 15
307 2 6.58062 7.73146 -5.54388 12
308 2 1.01709 14.2161 -5.43317 13
309 2 6.68319 5.1174 -3.47342 10
310 2 2.74908 0.747514 -2.07609 13
311 2 -9.37369 0.386128 -9.377 12
312 2 -3.26345 16.6412 -2.45246 16
313 2 -2.48412 13.7406 2.45346 20
314 2 -7.11129 -2.20249 -1.22244 15
315 2 -5.35545 5.73033 6.31981 16
316 2 2.31029 11.0203 1.74426 17
317 2 3.7144 9.36502 -6.92088 18
318 2 -11.2583 10.2213 -9.35752 13
319 2 -9.69833 1.13463 -4.48505 18
320 2 2.85143 1.09125 -5.14818 15
321 1 -10.8108 6.2795 -5.29578 20
322 1 -11.8835 3.56088 -3.63514 18
323 1 -5.23492 0.607916 -5.21699 23
324 1 -8.09853 -0.0666981 -3.8022 23
325 1 -5.07238 5.44592 -9.11176 22
326 1 -7.64144 5.38842 -6.99821 22
327 1 -5.75565 2.93339 -6.91911 21
328 1 -8.62306 2.55679 -5.40056 24
329 1 -5.02614 5.78152 -5.62826 22
330 1 -7.85963 5.71734 -3.7439 20
331 1 -6.01224 3.09918 -3.48678 24
332 2 -11.5975 5.04202 -6.41127 22
333 2 -11.3544 1.53447 -7.40628 16
334 2 -11.7231 5.76641 -3.63535 23
335 2 -6.51779 1.03844 -3.45669 22
336 2 -5.98925 4.36353 -10.7207 16
337 2 -8.76811 5.83335 -8.50224 19
338 2 -4.54854 2.48854 -8.25522 20
339 2 -8.62703 3.65863 -7.53844 19
340 2 -5.78375 4.86779 -7.34191 22
341 2 -8.66258 6.48833 -5.37099 23
342 2 -5.00783 3.50203 -5.06936 20
343 2 -7.91553 3.76319 -4.14219 20
344 2 -6.10881 6.51245 -3.93348 21
345 1 -10.644 6.36853 -2.17975 19
346 1 -11.8621 3.83168 -0.569515 20
347 1 -11.0187 6.26826 1.25785 19
348 1 -4.85977 0.379038 -2.01005 23
349 1 -5.09668 0.888036 0.962929 19
350 1 -9.13341 3.83479 -2.5443 21
351 1 -5.02498 5.59424 -2.42224 21
352 1 -7.70261 6.57403 -0.869719 21
353 1 -6.11757 3.80546 -0.327726 21
354 1 -8.90422 3.88736 0.806447 19
355 1 -5.07911 6.61701 0.798843 22
356 1 -7.7991 5.86453 2.70722 19
357 1 -5.81288 3.97583 2.66157 22
358 1 -5.31023 7.03479 4.55071 18
359 2 -11.2325 2.6617 -2.10112 18
360 2 -11.8913 6.34615 -0.67924 20
361 2 -7.9351 -1.81166 -4.17257 15
362 2 -6.19694 1.2781 -0.694311 21
363 2 -8.84322 5.80152 -2.14297 21
364 2 -4.76839 3.73576 -1.95207 23
365 2 -7.96794 3.37094 -1.06205 23
366 2 -5.78982 5.73929 -0.670032 23
367 2 -8.9369 6.21609 0.996101 21
368 2 -5.06303 2.85955 1.1021 23
369 2 -7.99569 3.58308 2.48172 19
370 2 -6.01725 6.12198 2.85031 20
371 2 -9.32273 6.30235 3.63778 19
372 1 -11.5362 8.65439 -7.66706 20
373 1 -11.1596 11.3528 -5.48109 21
374 1 -11.5233 8.69051 -3.91077 22
375 1 -6.11424 8.50352 -10.7231 22
376 1 -8.11339 7.73364 -8.76125 19
377 1 -5.31608 11.4699 -8.75822 23
378 1 -8.13364 11.2663 -7.39799 22
379 1 -5.79299 8.82256 -7.30889 21
380 1 -8.85746 8.448 -5.38957 21
381 1 -5.35792 11.1592 -5.41332 21
382 1 -8.14524 11.5729 -3.96062 22
383 1 -6.01658 8.55595 -3.79777 22
384 1 -9.25786 14.0548 -5.80725 23
385 1 -5.77731 14.1755 -4.01089 22
386 2 -10.9438 8.34351 -5.8121 20
387 2 -11.2963 10.909 -3.75653 19
388 2 -6.19191 6.8454 -9.81059 21
389 2 -7.86755 8.98783 -7.1111 19
390 2 -4.88542 9.3123 -9.05065 19
391 2 -9.45124 12.1063 -5.86706 19
392 2 -5.00449 9.09261 -5.55019 22
393 2 -7.87679 9.52445 -3.99459 23
394 2 -6.33076 12.1735 -4.03391 22
395 2 -5.06864 14.7334 -5.84047 23
396 2 -8.01517 14.7376 -4.1133 20
397 1 -11.2499 12.0121 -2.20212 21
398 1 -11.3584 9.09692 -0.648576 21
399 1 -10.7792 12.3853 1.41136 19
400 1 -8.74413 9.27696 -2.11462 20
401 1 -5.26211 11.638 -2.50792 22
402 1 -7.99055 11.8148 -0.491167 21
403 1 -5.88525 9.51091 -0.464263 19
404 1 -8.87813 8.46651 1.26639 18
405 1 -5.06886 12.0846 1.17284 23
406 1 -8.25968 11.4173 2.93977 23
407 1 -6.14547 9.1791 2.44375 22
408 1 -8.62916 8.30074 4.24739 21
409 1 -9.31965 14.663 -2.60018 22
410 1 -6.22155 14.3312 -0.699299 23
411 2 -10.553 8.33588 -2.3656 20
412 2 -11.4397 11.251 -0.334288 19
413 2 -10.9303 8.34949 1.42464 21
414 2 -9.03444 11.133 -2.33239 20
415 2 -5.06498 9.69027 -2.40294 22
416 2 -7.7631 8.69157 -0.533684 21
417 2 -6.04714 11.4917 -0.649188 21
418 2 -8.74706 12.1138 1.28323 22
419 2 -4.97332 8.46525 1.13682 22
420 2 -8.38861 9.49339 2.76026 19
421 2 -6.15291 11.2058 2.57443 21
422 2 -6.17033 8.66739 4.33088 19
423 2 -4.89199 14.1949 -2.16816 24
424 2 -8.27952 14.0403 -1.03447 21
425 2 -5.32347 13.9704 0.82122 22
426 1 -2.35668 0.060093 -3.95791 14
427 1 -2.59926 2.91723 -8.55111 19
428 1 -2.13841 5.97784 -7.19559 20
429 1 0.075508 2.78628 -7.03491 21
430 1 -2.94693 3.10797 -5.38803 22
431 1 0.571231 5.68872 -5.82641 20
432 1 -2.1483 6.09427 -3.8595 20
433 1 -0.124626 3.43401 -3.72008 19
434 2 -3.30606 0.945058 -5.33333 22
435 2 -3.17701 5.47381 -8.84052 19
436 2 -1.85915 4.07328 -6.93086 21
437 2 -0.179298 6.02195 -7.71853 19
438 2 -2.76571 6.7769 -5.58323 21
439 2 0.786271 3.61666 -5.43774 21
440 2 -1.87084 4.10491 -3.5029 22
441 2 -0.0981163 6.56952 -4.11247 20
442 2 2.59947 6.50134 -6.08416 17
443 1 -2.92943 2.98422 -2.13273 23
444 1 0.933629 6.44357 -2.40219 22
445 1 -2.44438 6.50988 -0.703573 22
446 1 -0.265237 3.95815 -0.477771 22
447 1 -3.05085 3.57997 1.15706 23
448 1 0.551455 6.41399 1.00648 22
449 1 -2.41748 6.05659 2.81015 21
450 1 -0.256406 3.29111 2.87002 19
451 2 -3.14166 1.07595 -2.24019 20
452 2 -2.99554 0.66326 1.25414 17
453 2 -3.35103 6.72572 -2.55723 20
454 2 0.866429 2.88441 -2.2986 23
455 2 -2.04753 3.07963 -0.425255 21
456 2 -0.250957 5.7919 -0.955609 22
457 2 -3.29351 5.8484 1.04875 22
458 2 0.742689 3.792 1.06216 20
459 2 -2.27173 4.09322 2.87864 20
460 2 -0.437674 6.81637 2.53907 22
461 2 -3.15486 6.94286 4.60029 21
462 2 2.86239 5.91972 -2.3458 17
463 1 -3.00757 8.69868 -8.98937 23
464 1 -2.56013 11.204 -7.12645 23
465 1 -0.283727 8.27006 -7.17257 23
466 1 -2.79859 8.68955 -5.43737 23
467 1 0.843135 10.84 -5.74244 22
468 1 -2.23279 11.2948 -3.95036 21
469 1 -0.0700724 8.68593 -3.83922 21
470 1 -3.13807 13.9871 -5.74128 21
471 1 2.64813 8.30402 -5.60157 21
472 2 -3.3032 11.5757 -8.93088 19
473 2 -2.20611 8.75681 -7.2715 21
474 2 -0.517291 11.3229 -7.01211 19
475 2 -3.61774 12.1916 -5.8931 25
476 2 0.770152 8.68977 -5.58199 21
477 2 -2.00143 9.33187 -3.84995 23
478 2 -0.28911 10.7769 -4.22298 22
479 2 -1.73824 14.2505 -4.37769 20
480 1 -3.08527 8.78651 -2.51856 22
481 1 0.615656 11.5694 -2.41186 20
482 1 -2.43188 11.9231 -0.590368 24
483 1 -0.433176 9.12277 -0.65609 22
484 1 -3.02311 9.22207 0.914393 21
485 1 0.455255 11.8718 1.24834 25
486 1 -2.24121 11.5244 2.74988 22
487 1 -0.0375478 8.99066 2.83849 20
488 1 -2.50581 8.83493 4.27433 21
489 1 -2.91628 14.2057 -2.647 22
490 1 -3.30072 14.2266 0.830036 20
491 1 2.79855 8.9297 -2.44663 19
492 2 -3.06851 12.0559 -2.46972 21
493 2 0.847002 8.52558 -2.07844 22
494 2 -2.35622 8.52782 -0.652646 20
495 2 -0.537703 11.2342 -0.753724 22
496 2 -3.32374 11.3204 0.958417 23
497 2 0.663408 8.55989 0.769587 22
498 2 -2.16652 9.37223 2.64729 19
499 2 -0.256505 11.3909 3.13675 20
500 2 -1.99346 14.1349 -0.628005 21
