ITEM: TIMESTEP
84000
ITEM: NUMBER OF ATOMS
2000
ITEM: BOX BOUNDS pp pp pp
-30.0 30.0
-30.0 30.0
-30.0 30.0
ITEM: ATOMS id type x y z Coordination
1 2 -16.6045 -1.43329 -0.82035 15
2 1 -3.4243 -17.2072 -5.29514 13
3 2 -3.6273 -16.8709 -3.48795 15
4 1 -3.39779 -17.3577 0.804128 14
5 2 -3.28531 -17.3928 2.61877 14
6 1 -0.0265236 -16.8998 -4.75524 14
7 1 3.17491 -17.333 -5.15604 11
8 2 0.16935 -16.6448 -3.04245 16
9 2 3.51077 -17.0949 -3.22413 15
10 1 -0.274812 -17.2553 0.423868 16
11 1 -1.64058 -16.6525 3.19354 18
12 1 3.17694 -17.3692 0.391677 15
13 2 0.0486947 -17.0693 2.16162 16
14 2 3.49034 -17.8014 2.16533 10
15 2 -8.77702 -4.49807 -15.2916 12
16 2 -6.63013 -1.47555 -15.9316 13
17 2 -1.86551 -4.4289 -15.8667 12
18 2 -3.30848 -1.26673 -16.0121 14
19 2 -5.30211 1.17856 -15.7693 13
20 2 -8.33635 2.62747 -13.1244 14
21 2 -1.52832 1.17735 -15.8438 16
22 2 -3.4257 3.71277 -15.4455 13
23 2 0.0998551 3.92719 -16.1687 14
24 2 -1.86204 -8.72232 -13.2687 13
25 2 1.43609 -4.57607 -15.9198 12
26 2 -0.0362596 -1.9142 -15.2038 17
27 2 4.49674 -4.206 -16.2765 12
28 2 3.04801 -1.73928 -16.693 17
29 2 6.28767 -2.10552 -16.346 11
30 2 1.9834 0.956985 -16.1014 16
31 2 1.89288 6.90114 -15.8578 10
32 2 4.51064 7.20796 -15.3009 12
33 2 5.43241 0.94897 -15.7254 13
34 2 3.60416 3.80868 -15.8429 12
35 2 6.45041 5.90253 -13.3423 17
36 1 -14.8211 -4.8781 -7.90118 17
37 1 -13.1211 -7.78984 -7.88916 13
38 1 -15.7607 -3.35611 -10.9577 10
39 1 -13.481 -5.84013 -10.3438 14
40 1 -16.5574 -1.98864 -7.99153 14
41 1 -16.7254 0.448334 -5.50347 13
42 1 -15.1067 -2.77751 -5.21576 18
43 1 -14.992 -4.68727 -2.34515 16
44 1 -16.5422 -1.56999 -2.70358 14
45 1 -11.9761 -10.6426 -7.36065 13
46 1 -13.6612 -1.52724 -12.9545 11
47 1 -9.02557 -11.388 -11.9257 9
48 1 -8.21336 -14.6284 -10.4266 7
49 1 -10.7764 -9.40648 -9.81825 14
50 1 -13.4476 -5.99445 -5.06599 20
51 1 -12.1385 -8.73186 -4.56497 18
52 1 -11.8307 -10.553 -1.79129 17
53 1 -13.6472 -7.496 -1.91833 18
54 1 -12.8047 -4.49652 -13.026 12
55 1 -15.6031 -0.058857 -10.6631 13
56 1 -11.8163 -2.96938 -10.3354 20
57 1 -11.5514 -5.0887 -7.65931 22
58 1 -13.1408 -1.61685 -7.70466 20
59 1 -13.4421 -0.23399 -5.1513 21
60 1 -11.6709 -2.99645 -4.98646 24
61 1 -11.8299 -5.03506 -2.31267 23
62 1 -13.2389 -1.82582 -2.49465 24
63 1 -10.1243 -13.661 -7.49865 10
64 1 -10.5578 -11.9789 -5.0858 15
65 1 -8.44064 -14.5515 -4.72896 14
66 1 -9.91033 -13.4355 -1.8175 15
67 1 -10.9341 -7.79641 -12.742 11
68 1 -10.0607 -5.90571 -10.3003 24
69 1 -8.21532 -8.66728 -10.4746 23
70 1 -8.51999 -10.7224 -7.24469 23
71 1 -9.57495 -7.93215 -7.1292 25
72 1 -10.0146 -5.6857 -4.83176 24
73 1 -8.94044 -9.12847 -4.47501 20
74 1 -8.48759 -10.8656 -1.82915 23
75 1 -10.3864 -7.97943 -2.19528 22
76 1 -8.36873 -2.69673 -15.6158 14
77 1 -8.25902 -5.01741 -13.3189 19
78 1 -10.5703 -1.70687 -12.9713 14
79 1 -10.3869 -0.239698 -10.2973 18
80 1 -8.22218 -3.24791 -10.4958 22
81 1 -8.32177 -4.66324 -7.68709 22
82 1 -10.1372 -2.10962 -7.76045 24
83 1 -10.1215 -0.323258 -4.71957 25
84 1 -8.3359 -3.05584 -5.03168 22
85 1 -8.42695 -4.86406 -2.22887 23
86 1 -10.216 -2.14057 -2.30281 24
87 1 -6.90142 -11.644 -10.1557 18
88 1 -7.02853 -13.3497 -7.30562 21
89 1 -6.95033 -11.6364 -4.60591 24
90 1 -5.40927 -14.9682 -4.61619 19
91 1 -4.49581 -16.4167 -1.88392 14
92 1 -6.73919 -13.9565 -1.95903 21
93 1 -10.2194 -5.63982 -14.7967 12
94 1 -6.03745 -9.88626 -12.4237 13
95 1 -6.88773 -7.26933 -13.2713 17
96 1 -6.74773 -5.81027 -10.5494 25
97 1 -5.03401 -8.40015 -10.3929 22
98 1 -5.2185 -10.7042 -7.73154 24
99 1 -6.84983 -7.88734 -7.6934 21
100 1 -6.68009 -6.15868 -5.07824 23
101 1 -5.41762 -8.76055 -4.83283 24
102 1 -5.37938 -10.481 -2.21976 21
103 1 -7.15251 -8.02304 -1.78731 24
104 1 -7.03968 0.301775 -15.4777 13
105 1 -4.95792 -2.28453 -15.6643 19
106 1 -5.00526 -4.78814 -13.1157 23
107 1 -6.86459 -1.94698 -13.1844 22
108 1 -6.80575 -0.48043 -10.0282 22
109 1 -5.11984 -2.74494 -10.3365 23
110 1 -5.06824 -5.06844 -7.52032 22
111 1 -6.52242 -2.26135 -7.62305 23
112 1 -7.03161 0.338023 -5.16845 23
113 1 -5.34901 -3.06493 -4.79044 23
114 1 -5.48329 -4.7838 -2.19479 24
115 1 -6.82733 -1.90549 -2.53614 21
116 1 -3.52945 -11.6387 -10.477 16
117 1 -1.87344 -16.0687 -8.61535 10
118 1 -5.4295 -16.6021 -8.15266 10
119 1 -3.9122 -13.5326 -7.58001 21
120 1 -3.89567 -11.844 -5.08796 22
121 1 -2.09606 -14.6606 -5.23544 22
122 1 -1.74729 -16.3202 -2.65806 20
123 1 -3.49084 -13.4005 -2.34396 23
124 1 -3.36921 -5.61072 -15.9673 13
125 1 -6.82573 -4.93764 -15.9515 12
126 1 -1.49689 -10.687 -13.0109 12
127 1 -3.57648 -7.77173 -12.9023 18
128 1 -3.45452 -5.60565 -10.2985 24
129 1 -1.49411 -8.74573 -10.3007 24
130 1 -1.94015 -11.048 -7.69978 22
131 1 -3.40251 -7.79447 -7.57327 23
132 1 -3.55036 -6.13039 -4.77996 21
133 1 -1.80512 -9.11198 -4.78541 21
134 1 -2.37771 -10.4692 -2.28915 22
135 1 -3.5876 -7.48372 -2.36495 22
136 1 -3.49872 0.420623 -15.3105 18
137 1 -2.0105 -2.50147 -15.6941 17
138 1 -1.5233 -4.82722 -12.9118 25
139 1 -3.45552 -1.97534 -12.9343 23
140 1 -3.52902 -0.0587527 -10.285 23
141 1 -1.67723 -2.72579 -10.1611 23
142 1 -1.73829 -5.05722 -7.58224 24
143 1 -3.14953 -2.04447 -7.40999 23
144 1 -3.49676 -0.0792507 -4.88617 23
145 1 -1.57697 -3.05049 -4.85553 22
146 1 -1.6665 -4.72499 -2.1591 21
147 1 -3.45385 -2.06465 -2.57847 22
148 2 -16.1261 -7.84045 0.337665 9
149 2 -13.1676 -5.83462 -8.31405 16
150 2 -13.078 -7.62613 -5.82541 17
151 2 -15.6655 -3.49805 -9.11843 13
152 2 -16.8106 -1.48455 -6.15032 15
153 2 -16.121 -0.486045 -8.9456 13
154 2 -15.0182 -4.84152 -0.197293 18
155 2 -14.869 -4.71133 -5.97933 16
156 2 -15.9888 0.142888 -3.60566 16
157 2 -15.1411 -2.85842 -3.12177 17
158 2 -11.7872 -10.5782 -5.45035 16
159 2 -8.62944 -14.3315 -8.68064 12
160 2 -11.8876 -9.02683 -8.40314 15
161 2 -14.4668 -4.67134 -11.7116 12
162 2 -10.7494 -10.7145 -11.2757 10
163 2 -11.6274 -10.5012 0.0999775 18
164 2 -13.1961 -7.69832 -0.0648925 18
165 2 -13.4487 -6.01263 -2.99748 18
166 2 -12.1783 -8.78777 -2.71807 18
167 2 -12.1433 -2.7249 -13.0615 12
168 2 -15.001 -1.63781 -11.5933 13
169 2 -11.8139 -5.0236 -10.5234 16
170 2 -11.622 -4.74057 -5.58673 21
171 2 -13.4393 -2.10388 -5.75537 21
172 2 -13.7033 0.267118 -7.31693 19
173 2 -11.8038 -2.90895 -8.40613 22
174 2 -11.823 -4.553 -0.36198 24
175 2 -13.486 -1.95094 -0.340036 24
176 2 -13.3621 -0.090276 -3.06612 23
177 2 -12.0667 -3.23744 -3.0936 23
178 2 -10.0252 -13.752 -5.57227 14
179 2 -10.2329 -11.6696 -7.65943 15
180 2 -9.6141 -13.4397 0.183608 13
181 2 -10.3518 -11.507 -2.39417 18
182 2 -8.67288 -14.3447 -2.68415 15
183 2 -7.87788 -12.939 -11.2419 9
184 2 -10.109 -7.9286 -10.7646 18
185 2 -11.6458 -5.9586 -13.6403 12
186 2 -9.19826 -6.98713 -13.4438 13
187 2 -8.50093 -10.7374 -5.2629 21
188 2 -10.2567 -7.92642 -5.0164 21
189 2 -9.82222 -5.93212 -8.03329 22
190 2 -8.62065 -8.87044 -8.44938 23
191 2 -8.70925 -10.4461 0.0788192 24
192 2 -10.2592 -7.72339 -0.228108 26
193 2 -10.1116 -5.90899 -2.8616 24
194 2 -8.63597 -8.92633 -2.58583 21
195 2 -8.42435 -5.03807 -11.2894 22
196 2 -10.0061 -2.14238 -10.9924 19
197 2 -12.3065 -0.491849 -11.6944 12
198 2 -8.80837 -2.2325 -13.7007 16
199 2 -8.27987 -4.99782 -5.5705 24
200 2 -9.90089 -2.1103 -5.65174 25
201 2 -10.4437 -0.321301 -8.21786 19
202 2 -8.36918 -2.84612 -8.47929 25
203 2 -8.62215 -4.85513 -0.255125 24
204 2 -9.92015 -2.14984 -0.338178 23
205 2 -9.9301 -0.164311 -2.81239 24
206 2 -8.2022 -3.09965 -2.90255 21
207 2 -5.05126 -16.4653 -6.06156 13
208 2 -6.62977 -13.5286 -5.01334 18
209 2 -6.96891 -11.3807 -8.23898 21
210 2 -5.67283 -14.5756 -8.09202 15
211 2 -4.85629 -16.4109 0.0268895 13
212 2 -6.88235 -13.5507 0.288459 19
213 2 -6.7846 -11.9892 -2.61 22
214 2 -5.15569 -14.5632 -2.47679 18
215 2 -5.15119 -10.3135 -10.683 17
216 2 -6.73519 -7.51644 -11.3184 23
217 2 -6.47068 -5.62241 -14.2704 20
218 2 -7.69056 -10.3072 -11.3935 15
219 2 -5.47199 -10.7393 -5.81918 21
220 2 -7.13927 -8.1391 -5.73309 22
221 2 -6.74932 -5.94175 -8.63669 26
222 2 -5.04924 -8.70261 -8.52951 25
223 2 -5.36024 -10.6635 -0.189182 24
224 2 -6.93243 -7.565 0.0652996 21
225 2 -6.83921 -5.72458 -3.12241 24
226 2 -5.31523 -8.69826 -2.63871 23
227 2 -5.08117 -4.68894 -11.2373 25
228 2 -6.83324 -2.09247 -11.0206 23
229 2 -6.65603 0.145754 -13.4489 20
230 2 -4.95302 -2.67383 -13.6802 22
231 2 -4.86056 -4.99416 -5.70022 23
232 2 -6.71784 -2.28107 -5.79954 23
233 2 -6.94834 -0.388965 -7.93285 20
234 2 -4.87015 -3.22714 -8.47573 25
235 2 -5.27413 -4.96737 -0.0950674 22
236 2 -6.7138 -1.70962 -0.436856 24
237 2 -6.85836 0.119568 -3.07356 23
238 2 -5.19513 -2.80906 -2.81096 21
239 2 -2.24611 -14.3406 -7.35299 18
240 2 -5.37756 -8.41667 -13.3106 12
241 2 -1.71446 -16.6391 -5.63847 16
242 2 -4.04537 -13.715 -5.44773 22
243 2 -3.73537 -11.7972 -8.58241 19
244 2 -3.74435 -15.9699 -8.96255 9
245 2 -2.07726 -16.7978 -0.489348 17
246 2 -3.26667 -13.7493 -0.131168 23
247 2 -3.8417 -11.5184 -2.97046 23
248 2 -1.82345 -14.3706 -2.63741 22
249 2 -1.84542 -11.0286 -11.1788 16
250 2 -3.3206 -7.83606 -10.7307 22
251 2 -3.51659 -5.92113 -13.8984 18
252 2 -5.07025 -4.30861 -16.3664 13
253 2 -2.19571 -10.9103 -5.39155 23
254 2 -3.83759 -7.72465 -5.56766 22
255 2 -3.34476 -5.91278 -8.43624 22
256 2 -1.74573 -8.97443 -8.24592 26
257 2 -2.13103 -10.5324 -0.361074 22
258 2 -3.58458 -7.55818 -0.440193 24
259 2 -3.68697 -5.62767 -2.59528 21
260 2 -2.09362 -8.61097 -3.04273 22
261 2 -1.77167 -4.66333 -10.8411 22
262 2 -3.22629 -1.84538 -10.9497 22
263 2 -3.42872 0.229231 -13.208 21
264 2 -1.84835 -2.98506 -13.5058 22
265 2 -1.98238 -4.95789 -5.42922 24
266 2 -3.44932 -2.06512 -5.39483 21
267 2 -3.47194 -0.169927 -8.03073 24
268 2 -1.50008 -3.08579 -8.15014 23
269 2 -1.75631 -4.66306 -0.0656459 20
270 2 -3.44129 -2.2029 -0.210055 21
271 2 -3.50103 0.0169831 -2.89212 20
272 2 -1.69856 -3.02272 -2.93599 23
273 1 -16.9654 -6.53049 1.33876 8
274 1 -14.6198 -9.06031 0.480939 12
275 1 -11.9971 -8.13801 5.74338 21
276 1 -16.561 0.326646 0.0515297 16
277 1 -15.2435 -2.82243 0.0425027 18
278 1 -15.2827 -4.50658 2.77668 14
279 1 -16.8035 -1.49758 2.77964 13
280 1 -16.9686 1.04018 4.19921 11
281 1 -15.1281 -2.08547 5.33493 15
282 1 -14.931 -4.68956 6.79451 12
283 1 -12.1969 -10.0604 3.26585 16
284 1 -13.4086 -5.63609 0.470133 23
285 1 -11.5849 -8.69154 0.951478 20
286 1 -10.4612 -11.5913 4.78614 15
287 1 -14.9441 -8.04211 3.72233 13
288 1 -13.1008 -5.81781 4.35159 18
289 1 -11.9314 -10.3674 7.21563 12
290 1 -8.5609 -10.3177 8.24074 16
291 1 -13.5774 -7.26735 8.70953 11
292 1 -13.2775 0.257916 11.0843 16
293 1 -10.3234 -7.81104 12.7971 7
294 1 -13.449 0.0380339 0.375946 23
295 1 -11.8137 -2.83923 0.414933 23
296 1 -11.5067 -4.30195 2.91946 21
297 1 -13.2149 -1.89491 3.00648 23
298 1 -13.3528 0.164724 5.65308 21
299 1 -11.7047 -2.78264 5.94732 23
300 1 -11.8111 -4.7258 8.35013 19
301 1 -13.6602 -1.63911 8.3 16
302 1 -14.5822 2.98681 11.6542 10
303 1 -11.8468 -2.57631 10.0837 11
304 1 -10.3424 -11.4792 0.806872 17
305 1 -8.41144 -14.2818 1.10131 15
306 1 -8.47398 -14.5988 5.03179 11
307 1 -10.2489 -13.18 7.13672 13
308 1 -7.10339 -13.5136 7.85799 19
309 1 -10.2136 -5.80096 0.259449 22
310 1 -8.73084 -8.50846 0.832344 21
311 1 -8.24265 -10.3214 3.1492 22
312 1 -9.82096 -7.20676 3.39499 23
313 1 -10.2048 -5.63392 5.74915 21
314 1 -8.48648 -8.62219 5.82469 24
315 1 -8.94705 -14.8784 10.1274 6
316 1 -10.4708 -7.35521 8.76063 19
317 1 -10.1642 -5.43078 11.1648 16
318 1 -8.29933 -8.78811 10.8541 17
319 1 -9.9869 -0.178766 0.390696 24
320 1 -8.51283 -2.97072 0.547023 24
321 1 -8.27239 -4.78599 3.21149 24
322 1 -9.68989 -1.84111 3.32535 24
323 1 -10.2441 -0.0583329 5.86038 22
324 1 -8.12641 -2.95861 5.64923 23
325 1 -8.47266 -4.67663 8.40053 22
326 1 -10.0423 -1.61766 8.25789 23
327 1 -9.8562 0.297134 10.747 19
328 1 -8.5998 -2.83518 11.0967 21
329 1 -8.15883 -5.05707 13.5571 14
330 1 -9.4917 -1.64736 13.7671 11
331 1 -6.888 -11.535 0.559702 19
332 1 -5.20329 -14.5616 0.516101 22
333 1 -3.23973 -17.4759 5.71489 8
334 1 -6.42343 -13.5251 3.09228 19
335 1 -6.71419 -11.7336 5.71548 22
336 1 -5.15606 -14.6015 5.7196 17
337 1 -5.28348 -14.5649 10.1267 11
338 1 -6.8706 -11.9606 11.1135 12
339 1 -6.89835 -5.72448 0.609668 22
340 1 -5.25023 -8.61626 0.145384 21
341 1 -4.71863 -10.6692 3.03308 20
342 1 -6.54357 -7.54966 3.34692 24
343 1 -6.62848 -5.86223 5.96214 23
344 1 -4.80672 -8.73356 5.76433 22
345 1 -5.11433 -10.48 8.34128 20
346 1 -6.79567 -7.74998 8.35219 20
347 1 -6.50659 -5.72264 10.8289 20
348 1 -4.39955 -9.83503 11.6296 16
349 1 -1.02112 -8.62953 16.0898 9
350 1 -6.76343 -7.98743 12.9186 13
351 1 -6.63931 0.175207 0.638657 24
352 1 -5.40055 -2.97719 0.220514 21
353 1 -5.05596 -4.72459 3.14702 22
354 1 -6.72803 -1.92144 3.16963 22
355 1 -6.67126 -0.0530797 5.5273 23
356 1 -4.80857 -3.01781 5.88286 22
357 1 -5.058 -5.08813 8.40852 21
358 1 -6.66626 -2.00258 8.62178 23
359 1 -6.57082 -0.0938492 11.062 21
360 1 -4.97986 -2.94021 11.0349 24
361 1 -4.66168 -5.1126 13.5263 20
362 1 -6.62428 -1.90978 13.6949 21
363 1 -3.58256 -11.724 0.0846068 20
364 1 -1.60184 -14.7329 0.248 25
365 1 -4.87502 -16.6615 3.18283 14
366 1 -3.46087 -13.5853 2.91458 25
367 1 -3.07083 -11.674 5.59073 21
368 1 -1.67177 -14.6793 5.906 19
369 1 -3.46605 -13.6251 7.89689 17
370 1 -3.02312 -12.0367 10.3572 16
371 1 -1.73603 -15.2279 9.86047 10
372 1 -3.31181 -5.98645 0.629985 24
373 1 -2.08545 -8.80316 0.51134 21
374 1 -1.61128 -10.7414 2.71012 22
375 1 -3.31214 -7.62057 3.09777 22
376 1 -3.26163 -5.90329 5.56823 22
377 1 -1.60811 -8.91418 5.64069 23
378 1 -1.27342 -10.7313 8.35857 22
379 1 -3.44149 -7.71664 8.162 20
380 1 -3.27174 -6.27052 10.9396 22
381 1 -1.40948 -9.16117 11.0777 23
382 1 -1.83257 -11.1852 13.4594 13
383 1 -3.08301 -8.08053 13.8982 18
384 1 -3.29892 -0.232894 0.21672 22
385 1 -1.86848 -2.73032 0.710967 23
386 1 -1.66549 -4.68045 3.12406 23
387 1 -3.36487 -1.89877 3.26248 24
388 1 -3.39428 -0.0170759 5.65215 22
389 1 -1.59615 -2.80752 5.90665 25
390 1 -1.74576 -4.94768 8.31781 23
391 1 -3.54481 -2.0831 8.43527 22
392 1 -3.18742 -0.291469 10.6938 23
393 1 -1.6103 -3.26055 10.7811 22
394 1 -1.20397 -5.43833 13.3411 22
395 1 -2.80428 -2.22851 13.1555 19
396 2 -15.8168 -6.34357 2.80211 13
397 2 -13.9651 -9.28672 2.50617 12
398 2 -14.8832 -4.23899 4.80545 18
399 2 -16.5395 -0.910003 4.55607 13
400 2 -16.6425 0.51497 2.00313 15
401 2 -15.768 -2.85992 2.02364 16
402 2 -14.7538 -2.77518 7.14521 13
403 2 -11.8096 -10.0485 5.34562 16
404 2 -10.105 -11.2227 7.40122 16
405 2 -13.7207 -7.40388 5.37845 18
406 2 -13.253 -5.1738 2.40337 20
407 2 -11.2515 -8.50704 2.80343 22
408 2 -13.7413 -5.63008 7.98436 14
409 2 -12.2569 -8.54739 7.69607 13
410 2 -11.5939 -4.58563 4.99281 24
411 2 -13.122 -1.57661 4.93453 20
412 2 -13.3341 0.452949 2.16043 21
413 2 -11.4085 -2.54366 2.28652 21
414 2 -11.2927 -4.42967 10.1222 16
415 2 -13.2095 -1.30045 10.2483 15
416 2 -13.2897 0.598758 7.61769 22
417 2 -11.8999 -2.6908 7.83693 22
418 2 -13.9951 1.37593 12.7297 9
419 2 -9.78641 -13.3029 5.26128 13
420 2 -10.473 -11.6166 2.69845 16
421 2 -8.08238 -14.5159 2.98391 12
422 2 -9.0393 -14.357 8.19341 10
423 2 -8.18338 -10.4232 5.10968 21
424 2 -9.91485 -7.47719 5.27436 23
425 2 -10.1398 -5.45128 2.33164 25
426 2 -8.29782 -8.50393 2.89563 20
427 2 -7.95902 -10.5497 10.1473 16
428 2 -10.3128 -7.44524 10.7845 15
429 2 -10.2661 -5.81118 7.67452 21
430 2 -8.75629 -8.16471 8.07947 22
431 2 -9.51995 -6.04676 13.0045 13
432 2 -8.54561 -8.6805 12.9674 10
433 2 -8.42165 -5.00631 5.1397 23
434 2 -9.78065 -2.10038 5.37215 22
435 2 -10.0682 0.00701337 2.39564 26
436 2 -8.12422 -2.84807 2.46961 23
437 2 -8.35369 -4.86436 10.4904 23
438 2 -10.056 -1.95826 10.2288 21
439 2 -9.87139 0.140861 7.65371 22
440 2 -8.37315 -2.64552 8.00727 21
441 2 -9.82392 0.0194943 12.7016 18
442 2 -8.29703 -3.03685 12.974 17
443 2 -4.65703 -16.337 5.08156 13
444 2 -6.82783 -13.6009 5.57851 17
445 2 -6.52179 -11.4109 2.50149 23
446 2 -5.00178 -14.7727 2.50157 19
447 2 -7.14903 -14.0424 10.5397 10
448 2 -6.89525 -11.4629 7.72727 21
449 2 -5.19941 -14.5577 7.99571 15
450 2 -4.80444 -10.8205 5.10403 23
451 2 -6.60439 -7.74941 5.38539 21
452 2 -6.65673 -5.52813 2.62488 23
453 2 -4.90192 -8.71032 2.61266 21
454 2 -5.24149 -11.2051 10.37 17
455 2 -6.653 -7.87823 10.7029 20
456 2 -6.74158 -5.85225 7.96721 21
457 2 -5.03329 -8.55611 7.50924 21
458 2 -6.58783 -5.92232 12.9235 17
459 2 -4.89752 -8.75841 13.146 15
460 2 -4.80614 -4.8578 5.31351 24
461 2 -6.53544 -2.14774 5.04141 23
462 2 -6.74347 0.0682431 2.63822 22
463 2 -4.89225 -2.80034 2.59039 23
464 2 -4.81823 -5.10346 10.3511 22
465 2 -6.61209 -2.0434 10.4803 23
466 2 -6.54882 -0.0116299 7.57726 24
467 2 -5.02692 -3.08571 7.78268 24
468 2 -4.32981 -5.02158 15.7321 13
469 2 -5.85868 -1.57255 15.9318 14
470 2 -6.32222 -0.0972322 12.824 25
471 2 -4.86592 -3.12935 12.9583 24
472 2 -1.75428 -16.4344 5.11153 15
473 2 -3.39579 -13.4229 5.7017 20
474 2 -3.34482 -11.7825 2.28042 24
475 2 -1.92477 -14.6139 2.49217 22
476 2 -3.43121 -13.931 10.1264 12
477 2 -3.35077 -11.5637 8.3727 20
478 2 -1.59743 -15.0122 7.79819 13
479 2 -1.2879 -9.29887 14.1294 15
480 2 -1.49763 -11.1024 4.78387 22
481 2 -3.09558 -7.80364 5.17469 22
482 2 -3.3159 -5.78339 2.62561 22
483 2 -1.73042 -8.77647 2.34633 22
484 2 -0.962589 -11.0291 10.3247 20
485 2 -2.62776 -7.9114 10.1708 20
486 2 -3.31307 -5.73146 7.57688 23
487 2 -1.5736 -8.94285 7.60368 23
488 2 -2.69292 -7.66205 15.8586 13
489 2 -2.89813 -6.27307 12.9188 20
490 2 -2.95275 -11.1424 12.0998 14
491 2 -1.64998 -4.804 5.25404 23
492 2 -3.23731 -1.90739 5.2119 22
493 2 -3.16315 -0.160623 2.25308 24
494 2 -1.63094 -2.7095 2.69917 22
495 2 -1.59741 -4.98018 10.4817 21
496 2 -3.153 -2.22638 10.5678 20
497 2 -3.09534 -0.0419862 7.83041 24
498 2 -1.69176 -2.65756 7.87736 22
499 2 -1.4156 -5.08041 16.3894 15
500 2 -3.04249 -2.21121 15.4352 17
501 2 -3.01803 -0.213833 13.1276 22
502 2 -1.34467 -3.5027 12.8938 22
503 1 -16.5368 3.7164 -7.56979 11
504 1 -15.2125 1.01547 -8.00213 16
505 1 -16.6977 6.40913 -5.04841 12
506 1 -15.4835 3.30903 -4.82053 18
507 1 -14.7642 1.16594 -2.3217 22
508 1 -17.0609 3.7233 -2.35101 14
509 1 -15.1741 6.96061 -7.30673 15
510 1 -15.3311 9.62825 -5.36446 8
511 1 -15.5479 6.618 -2.47959 14
512 1 -12.9637 1.34121 -12.1762 13
513 1 -14.8174 3.37302 -10.6703 12
514 1 -12.07 3.49982 -9.99388 21
515 1 -11.7418 0.849341 -7.52692 22
516 1 -13.2758 3.45543 -7.22854 21
517 1 -13.5641 5.60781 -5.12626 21
518 1 -11.4955 2.62409 -4.86292 21
519 1 -11.5522 0.862 -2.456 19
520 1 -13.3435 3.78904 -2.44142 23
521 1 -13.6029 6.45324 -10.5289 13
522 1 -11.6166 6.25061 -7.70344 22
523 1 -13.2482 8.55153 -7.98027 11
524 1 -14.1848 12.5976 -3.44222 8
525 1 -11.4289 8.41639 -5.38126 19
526 1 -11.7622 6.88398 -2.5171 19
527 1 -13.3062 10.1202 -2.45629 15
528 1 -11.3842 12.5515 -2.05568 15
529 1 -10.1522 3.44178 -12.4525 16
530 1 -8.31691 0.746852 -12.5098 19
531 1 -12.2289 4.69322 -12.9978 12
532 1 -10.0374 5.63082 -10.2837 19
533 1 -8.28024 2.59979 -10.0414 21
534 1 -8.69929 0.69911 -7.60493 22
535 1 -10.0545 3.79566 -7.61558 20
536 1 -10.1582 5.63304 -4.73004 26
537 1 -8.4125 2.7164 -4.89164 23
538 1 -8.6255 0.993345 -1.88892 23
539 1 -10.0288 4.06562 -1.93331 23
540 1 -8.81741 6.6046 -12.6605 14
541 1 -8.3653 8.52477 -10.1528 17
542 1 -8.2854 6.6681 -7.35036 22
543 1 -9.96163 9.54515 -7.42302 15
544 1 -9.94398 11.7051 -4.94595 19
545 1 -8.15475 8.64323 -4.71876 22
546 1 -8.25408 7.0486 -2.21131 21
547 1 -9.78613 9.73613 -2.40978 23
548 1 -8.40651 12.4301 -7.33158 15
549 1 -8.46422 14.6269 -4.90047 13
550 1 -8.0848 12.7806 -1.95815 21
551 1 -7.26015 6.06241 -15.2602 10
552 1 -5.06079 2.90628 -16.1254 13
553 1 -5.13103 1.23736 -12.8886 23
554 1 -6.98744 3.84705 -12.7505 21
555 1 -6.88832 5.57394 -9.70756 23
556 1 -5.04222 2.6192 -10.2144 20
557 1 -5.23314 0.61747 -7.35467 23
558 1 -6.54265 3.75613 -7.2732 22
559 1 -6.56495 5.72248 -4.82281 23
560 1 -4.68503 2.70078 -4.96628 22
561 1 -5.22335 0.80066 -2.49101 21
562 1 -6.86107 3.78815 -2.62194 19
563 1 -5.28839 6.82155 -12.4888 23
564 1 -6.94087 9.72007 -12.8026 10
565 1 -6.62054 11.3528 -9.90895 17
566 1 -5.32185 8.52067 -9.79237 24
567 1 -4.93424 6.75094 -7.33728 22
568 1 -6.96264 9.55714 -7.22011 23
569 1 -6.54067 11.7974 -4.79379 24
570 1 -4.93691 8.87851 -4.71413 22
571 1 -5.13587 6.67345 -2.15938 22
572 1 -6.43443 10.0294 -2.27683 23
573 1 -5.16013 12.6662 -7.79019 21
574 1 -5.9945 15.7973 -7.59017 10
575 1 -5.15649 14.5077 -4.8031 19
576 1 -5.04974 12.6104 -2.21889 23
577 1 -6.52757 15.424 -2.147 14
578 1 -4.17835 5.60008 -15.2638 12
579 1 -1.70764 3.00136 -16.2501 13
580 1 -1.68188 1.01027 -12.873 21
581 1 -3.41679 3.90941 -13.3327 20
582 1 -3.54225 5.68952 -10.218 21
583 1 -1.74938 3.08291 -10.4902 21
584 1 -1.86827 0.691043 -7.55562 23
585 1 -3.38804 3.69438 -7.69701 22
586 1 -3.43162 5.59211 -5.08423 22
587 1 -1.57458 2.96698 -4.90622 22
588 1 -1.72368 0.840268 -2.06873 23
589 1 -3.31249 3.82163 -2.26124 23
590 1 2.96374 8.36393 -15.093 14
591 1 -1.86825 6.82619 -12.9841 17
592 1 -3.79189 9.46908 -12.6648 14
593 1 -3.25723 11.6616 -10.3379 19
594 1 -1.7944 8.49471 -10.3643 22
595 1 -1.87452 6.81219 -7.52484 24
596 1 -3.24154 9.80392 -7.52435 25
597 1 -3.22421 11.7456 -4.90337 22
598 1 -1.95541 8.63086 -4.71489 23
599 1 -1.54875 6.83421 -2.10771 23
600 1 -3.27636 9.46215 -2.19887 24
601 1 -1.17824 14.4112 -11.1689 12
602 1 -4.77963 14.1637 -10.9622 11
603 1 -1.83773 12.75 -7.86519 21
604 1 -3.181 15.4485 -8.83487 13
605 1 -3.04142 17.4427 -5.8423 11
606 1 -1.80221 14.4819 -5.06948 21
607 1 -1.74189 12.2587 -2.12807 22
608 1 -3.35445 15.5922 -2.56644 14
609 2 -16.1134 2.07414 -6.31833 14
610 2 -16.1271 5.36231 -6.58049 14
611 2 -13.207 5.48343 -7.08453 24
612 2 -14.848 1.09159 -0.311775 23
613 2 -16.4956 4.01107 -0.415627 16
614 2 -16.8151 5.23478 -3.49197 13
615 2 -15.2953 3.10746 -2.82928 17
616 2 -16.303 8.1663 -4.42109 10
617 2 -15.5553 6.93943 -0.587893 15
618 2 -14.6805 10.9159 -3.6798 9
619 2 -14.5978 1.56519 -11.1369 12
620 2 -13.3694 4.45036 -11.361 15
621 2 -14.8784 3.25509 -8.67201 18
622 2 -11.7499 0.603224 -5.32276 22
623 2 -13.3388 3.39613 -5.10537 21
624 2 -11.7998 5.87103 -9.83709 18
625 2 -11.601 2.78884 -8.28265 22
626 2 -11.6362 0.850112 -0.365218 25
627 2 -13.0573 4.1005 -0.618124 22
628 2 -13.8309 5.88012 -3.21672 22
629 2 -11.5987 2.66989 -2.78619 22
630 2 -14.6287 8.66358 -6.6547 14
631 2 -11.7671 6.55308 -4.83034 18
632 2 -11.4818 8.27229 -7.25048 17
633 2 -14.2351 7.24428 -9.02507 10
634 2 -11.7422 7.11492 -0.20288 22
635 2 -14.0896 10.0247 -0.854292 14
636 2 -12.6838 13.4366 -2.91261 8
637 2 -11.8688 9.08341 -2.82884 19
638 2 -9.65595 11.3073 -7.75615 11
639 2 -11.8028 12.1311 -0.314254 16
640 2 -8.58651 0.603841 -10.5563 18
641 2 -10.0288 3.58624 -10.55 22
642 2 -6.97204 5.75518 -13.3643 16
643 2 -11.8636 2.7518 -12.9381 11
644 2 -8.70769 0.754013 -5.62877 23
645 2 -10.1424 3.38661 -5.72247 24
646 2 -9.87021 5.69433 -7.96102 22
647 2 -8.37135 2.7533 -7.82473 22
648 2 -8.28336 0.943505 0.0393054 20
649 2 -10.0402 3.85964 0.131833 19
650 2 -9.88527 5.86495 -2.74553 22
651 2 -8.81459 2.61618 -2.90566 22
652 2 -8.34907 6.5872 -10.4594 19
653 2 -10.4807 5.52041 -12.696 15
654 2 -8.29381 8.49895 -13.0099 10
655 2 -8.29564 6.74548 -5.02792 20
656 2 -9.86121 9.534 -5.20012 19
657 2 -8.3675 12.6051 -5.30999 16
658 2 -8.45467 8.61279 -8.01922 22
659 2 -8.33255 6.75984 -0.320987 21
660 2 -9.59931 9.73529 -0.417442 21
661 2 -9.73639 11.7653 -2.84919 20
662 2 -8.0392 8.8834 -2.87268 22
663 2 -6.78759 14.817 -6.10861 13
664 2 -8.23489 12.8077 0.239088 19
665 2 -8.33099 14.5475 -2.85004 16
666 2 -5.27787 0.707194 -10.4356 20
667 2 -6.6893 3.81229 -10.6905 23
668 2 -6.12721 4.72323 -15.8144 10
669 2 -5.27908 3.09776 -13.2535 22
670 2 -5.20577 0.902494 -5.45809 20
671 2 -6.92222 3.81244 -4.82399 20
672 2 -6.58932 5.81088 -7.77556 21
673 2 -5.03889 2.94822 -8.14742 23
674 2 -4.87816 0.909081 -0.40656 23
675 2 -6.56819 3.71515 -0.425608 24
676 2 -6.63945 5.75999 -2.86316 22
677 2 -5.17649 2.99899 -3.08757 23
678 2 -5.25874 6.76757 -10.3535 20
679 2 -6.94153 9.62236 -10.714 16
680 2 -5.43322 8.82896 -13.3582 13
681 2 -4.8942 6.97982 -5.27684 23
682 2 -6.46584 9.79105 -5.3657 23
683 2 -6.67276 11.5351 -7.85458 19
684 2 -5.29184 8.84507 -7.92967 22
685 2 -5.19659 6.87109 -0.162075 21
686 2 -6.67629 9.85645 -0.267459 24
687 2 -6.76706 12.0968 -2.91426 22
688 2 -5.06261 8.54197 -2.64638 22
689 2 -5.20182 12.3647 -10.7078 14
690 2 -4.57908 12.9953 -5.65689 22
691 2 -4.18222 16.4523 -7.50454 12
692 2 -5.43807 14.3498 -8.96995 14
693 2 -5.14564 12.6334 -0.269089 24
694 2 -6.52189 15.1567 -0.117601 14
695 2 -5.06383 14.5377 -2.91124 20
696 2 -1.75938 1.14091 -10.6906 21
697 2 -3.38363 3.66153 -10.3963 20
698 2 -3.80227 6.03528 -13.4044 19
699 2 -1.64189 3.17116 -12.8504 20
700 2 -1.74941 1.00936 -5.584 24
701 2 -3.2496 3.79641 -5.67531 25
702 2 -3.40603 5.77985 -8.19094 24
703 2 -1.92364 2.57131 -8.22319 23
704 2 -1.66695 0.915303 -0.163485 22
705 2 -2.80966 3.88428 -0.323949 21
706 2 -3.14643 5.6424 -2.95076 24
707 2 -1.71487 2.74192 -2.8975 22
708 2 -1.87015 6.62508 -10.6095 20
709 2 -3.50959 9.80901 -10.6225 18
710 2 -1.33865 12.6002 -10.6232 19
711 2 -2.03994 8.73706 -12.9566 14
712 2 -1.89744 6.83786 -5.36039 23
713 2 -3.34328 9.72477 -5.52527 22
714 2 -3.56062 11.6148 -8.20725 22
715 2 -1.60823 8.77564 -8.25399 23
716 2 -1.58495 6.70736 -0.0392528 21
717 2 -3.01005 9.45005 -0.333435 24
718 2 -3.33473 11.4492 -2.84246 22
719 2 -1.75879 8.83027 -2.7645 21
720 2 -3.04033 14.7785 -10.6288 11
721 2 -1.71894 12.5388 -5.43698 21
722 2 -1.53032 18.0275 -4.71902 7
723 2 -1.45316 14.627 -8.15026 16
724 2 -1.83736 12.2302 -0.27962 24
725 2 -3.42364 14.9724 -0.705672 17
726 2 -3.24808 15.77 -4.50275 14
727 2 -1.66595 14.2537 -2.93662 23
728 1 -16.6213 5.5395 0.305199 14
729 1 -14.9663 3.00011 0.0361995 20
730 1 -14.8426 1.50623 2.7755 20
731 1 -16.6846 4.06368 2.80079 13
732 1 -14.9945 2.97672 5.23946 16
733 1 -14.8016 1.61508 8.25064 15
734 1 -14.7334 8.33311 -0.271183 17
735 1 -14.8753 6.89984 2.93416 18
736 1 -15.0299 8.80045 5.77961 10
737 1 -13.4474 6.11411 0.440046 23
738 1 -11.757 2.60629 0.384832 22
739 1 -11.7591 1.23163 3.1401 24
740 1 -13.0995 3.96787 3.0283 25
741 1 -13.5014 5.85133 5.78124 17
742 1 -11.6219 3.10295 5.69516 24
743 1 -11.5358 1.05651 8.23333 23
744 1 -13.3465 3.81296 8.34642 19
745 1 -13.4933 6.59963 9.85898 10
746 1 -11.4248 3.37303 11.1181 19
747 1 -12.8001 1.9893 13.875 8
748 1 -13.6858 11.6894 -0.136743 14
749 1 -11.4653 9.1016 0.416732 25
750 1 -11.5474 7.01228 3.2469 24
751 1 -13.85 9.78053 2.67572 18
752 1 -12.1581 9.1641 5.83247 20
753 1 -11.4839 6.75424 7.61276 19
754 1 -13.2325 9.79972 8.40682 13
755 1 -11.9312 12.1539 2.93303 15
756 1 -10.1282 5.80234 0.271662 21
757 1 -8.11829 2.80703 0.529504 23
758 1 -8.46827 1.20989 3.26597 22
759 1 -10.0179 3.64207 2.86542 22
760 1 -9.69096 5.76029 5.7065 22
761 1 -8.0805 3.05439 5.48654 21
762 1 -8.2256 1.06149 8.12346 21
763 1 -9.75 3.83043 8.12351 23
764 1 -9.77677 6.07427 10.7894 18
765 1 -8.04075 2.87647 10.986 25
766 1 -8.12697 1.04043 14.0871 19
767 1 -9.77275 3.93293 13.4693 13
768 1 -9.78656 11.6794 0.552241 22
769 1 -8.19951 8.69662 0.268692 22
770 1 -8.04081 6.65664 2.99393 23
771 1 -9.89309 9.77243 3.21471 23
772 1 -10.052 11.6029 5.89678 17
773 1 -8.43845 8.8864 5.43218 21
774 1 -8.04607 7.17362 8.16551 23
775 1 -9.80489 9.76627 8.22022 17
776 1 -8.0079 9.00817 10.8654 18
777 1 -7.82379 6.3731 13.8641 12
778 1 -8.1034 14.6912 0.981493 16
779 1 -8.37402 12.596 2.85379 17
780 1 -13.6811 11.8176 5.4825 11
781 1 -11.5566 8.57916 10.3037 12
782 1 -6.62049 5.64079 0.393605 23
783 1 -4.53379 2.81829 0.311729 21
784 1 -4.97615 0.869299 2.8259 20
785 1 -6.44542 3.87398 3.02575 22
786 1 -6.41087 5.55616 5.68474 24
787 1 -5.01807 2.78631 5.78076 23
788 1 -4.91899 0.805042 8.2437 22
789 1 -6.2335 3.69978 8.39378 24
790 1 -6.72368 5.78385 10.8969 20
791 1 -4.90402 2.81064 10.5677 22
792 1 -4.83111 0.779518 13.1475 21
793 1 -6.38566 3.77053 13.6463 20
794 1 -6.47428 11.5666 0.376737 22
795 1 -4.84214 8.7666 0.522596 25
796 1 -4.79757 6.66519 2.91304 23
797 1 -6.64214 9.65395 3.01681 23
798 1 -6.57525 11.5128 5.46953 21
799 1 -4.83729 8.67436 5.85148 22
800 1 -4.75926 6.94905 8.40684 22
801 1 -6.36575 9.86998 8.24863 23
802 1 -6.05983 11.9904 11.3968 11
803 1 -4.84918 8.76298 11.3134 22
804 1 -4.92285 6.66124 13.6092 20
805 1 -6.18773 9.31356 13.4976 11
806 1 -4.87892 14.5467 0.573151 21
807 1 -4.64783 12.6064 2.96887 23
808 1 -6.43965 15.9572 3.10554 11
809 1 -5.16125 14.3041 5.40589 16
810 1 -8.44056 14.6098 4.92052 10
811 1 -3.34083 5.76692 0.398401 23
812 1 -1.50641 2.72205 0.586993 25
813 1 -1.63232 0.817524 3.00679 22
814 1 -2.8893 3.71126 3.11672 22
815 1 -3.3325 5.69596 5.57946 22
816 1 -1.4292 2.77296 5.70109 21
817 1 -1.53297 0.84983 8.47589 23
818 1 -3.1749 3.64622 8.15693 21
819 1 -3.4013 5.50522 10.8821 24
820 1 -1.37875 2.66371 11.0028 26
821 1 -1.41437 0.706803 13.3558 21
822 1 -3.41143 3.60136 13.1008 22
823 1 -3.51206 11.5687 0.32285 21
824 1 -1.58592 8.68522 0.586435 23
825 1 -1.53017 6.42304 2.99422 22
826 1 -3.23214 9.69761 2.85329 22
827 1 -3.27118 11.5157 5.60762 21
828 1 -1.53225 8.8305 5.58235 22
829 1 -1.54014 7.01742 8.24869 23
830 1 -3.1809 9.79728 8.31245 21
831 1 -2.65707 11.5676 10.6732 15
832 1 -1.74277 8.55209 10.6916 19
833 1 -1.55138 6.39983 13.5154 23
834 1 -2.85841 7.77024 16.2744 12
835 1 0.158292 17.075 -4.0445 13
836 1 -1.88021 14.4968 0.21087 18
837 1 -1.26627 12.706 3.2173 19
838 1 -3.37376 15.6004 3.26536 13
839 1 -1.59759 18.0963 5.24045 7
840 1 -4.60419 12.7949 8.58812 18
841 1 -8.28617 12.5352 8.37237 12
842 1 -3.22366 15.7361 8.04384 8
843 2 -14.7551 0.957299 4.82802 21
844 2 -16.6413 2.89802 4.1536 12
845 2 -16.154 5.70287 2.09959 14
846 2 -14.7783 3.22365 1.97468 24
847 2 -14.7449 1.29408 10.234 12
848 2 -14.9031 3.04124 7.21503 14
849 2 -14.5869 7.10362 5.00691 15
850 2 -14.587 8.36115 1.69504 17
851 2 -11.4312 1.38946 5.11832 22
852 2 -13.2199 4.11454 4.93989 23
853 2 -13.2615 5.90632 2.49165 22
854 2 -11.6508 2.89705 2.30888 23
855 2 -11.6592 1.44815 10.2272 23
856 2 -13.5241 3.82017 10.3274 16