ITEM: TIMESTEP
110000
ITEM: NUMBER OF ATOMS
2000
ITEM: BOX BOUNDS pp pp pp
-30.0 30.0
-30.0 30.0
-30.0 30.0
ITEM: ATOMS id type x y z Coordination
1 2 -16.7169 -0.593316 -1.9462 13
2 1 -3.1578 -16.8619 -4.02533 14
3 2 -3.37256 -16.9198 -2.25314 14
4 1 -3.10851 -17.4018 1.20632 13
5 2 -3.22658 -17.5397 3.13331 12
6 1 -0.162358 -17.298 -4.69116 13
7 1 3.23134 -17.5571 -4.80735 12
8 2 0.0219771 -17.2746 -2.7474 16
9 2 3.41622 -17.2922 -2.82936 13
10 1 0.194968 -17.4346 1.16295 16
11 1 -1.1894 -16.3567 3.90802 18
12 1 3.55619 -17.6644 1.03556 13
13 2 0.418425 -17.1624 3.13259 16
14 2 3.29052 -17.2307 2.81469 15
15 2 -8.4573 -5.1447 -15.3152 11
16 2 -7.18185 -2.00326 -15.8672 13
17 2 -1.78764 -4.775 -16.0389 11
18 2 -3.6678 -2.22554 -16.1984 15
19 2 -5.81592 0.322799 -15.9028 14
20 2 -8.85714 5.60288 -13.503 12
21 2 -2.30511 0.670645 -15.8925 15
22 2 -4.24097 3.49689 -15.7438 13
23 2 -0.37598 3.69731 -16.0568 13
24 2 -2.92894 -11.3943 -13.6132 9
25 2 1.41187 -5.01288 -16.0864 14
26 2 0.0443964 -2.12589 -16.1805 16
27 2 4.64974 -5.05424 -15.9707 11
28 2 3.22343 -1.79141 -16.3281 15
29 2 6.596 -2.04619 -15.5458 14
30 2 1.17931 0.379705 -16.0255 16
31 2 1.59572 6.37635 -15.643 12
32 2 4.07079 7.68555 -15.7941 12
33 2 4.83574 1.18899 -16.0929 13
34 2 2.99709 3.53631 -16.102 14
35 2 6.22951 5.86303 -14.0577 16
36 1 -14.9772 -4.96666 -7.79099 13
37 1 -12.9747 -7.52642 -7.5755 14
38 1 -11.5682 -0.725458 -14.7613 9
39 1 -13.2938 -5.12151 -9.92816 14
40 1 -15.6176 -2.26406 -9.47407 11
41 1 -16.2825 -1.2223 -6.26057 12
42 1 -14.7377 -2.81204 -4.70538 21
43 1 -15.3737 -4.72385 -2.25116 15
44 1 -17.5377 -2.05073 -2.90633 11
45 1 -11.6354 -10.4616 -7.40114 15
46 1 -12.11 1.5131 -12.8262 15
47 1 -9.49197 -11.893 -10.0953 14
48 1 -7.34222 -14.5436 -9.50336 9
49 1 -11.2663 -8.9231 -10.1239 13
50 1 -13.7756 -5.78202 -4.7987 18
51 1 -11.6509 -8.78864 -4.87497 19
52 1 -11.6708 -10.387 -2.0713 16
53 1 -13.6975 -7.95171 -2.38867 12
54 1 -12.0215 -4.1697 -12.7831 12
55 1 -13.5572 -0.221928 -10.7292 18
56 1 -11.7402 -2.56118 -10.1118 20
57 1 -11.5034 -5.089 -7.16525 24
58 1 -13.1368 -2.54529 -6.98871 21
59 1 -13.4349 0.193842 -5.14274 21
60 1 -11.763 -2.97198 -4.70782 23
61 1 -11.4696 -4.48807 -2.15531 22
62 1 -13.0565 -1.69782 -2.97246 21
63 1 -9.55038 -13.4025 -7.07167 16
64 1 -9.90291 -11.7007 -4.5909 20
65 1 -8.2987 -14.8238 -4.5499 12
66 1 -9.56203 -13.1709 -1.8934 15
67 1 -9.31515 -9.70821 -12.5049 11
68 1 -10.152 -5.54642 -10.2611 21
69 1 -8.1677 -9.00195 -10.1538 22
70 1 -8.33691 -10.4462 -7.43737 20
71 1 -9.85766 -7.66014 -7.87305 22
72 1 -9.90667 -5.9715 -4.77539 23
73 1 -8.62145 -8.69453 -4.84476 24
74 1 -8.22207 -10.8106 -2.33937 19
75 1 -10.1977 -7.70245 -2.12139 21
76 1 -8.73668 -3.47567 -15.6859 14
77 1 -8.79854 -4.84816 -12.8509 21
78 1 -10.4716 -1.60753 -12.5497 22
79 1 -10.2427 0.195764 -10.2624 21
80 1 -8.53702 -2.91131 -10.4051 23
81 1 -8.39841 -4.97738 -7.48214 24
82 1 -10.1164 -2.04878 -7.40659 23
83 1 -10.0037 -0.151235 -4.83074 25
84 1 -8.37278 -2.99957 -4.81589 25
85 1 -8.25173 -4.86554 -2.33093 22
86 1 -10.1186 -1.78769 -2.10117 23
87 1 -6.44525 -11.6132 -10.7716 16
88 1 -6.42355 -14.9688 -7.03639 13
89 1 -6.65226 -11.8252 -4.84865 23
90 1 -5.01923 -14.7794 -4.51345 20
91 1 -4.90186 -16.2477 -1.18522 13
92 1 -6.42544 -13.765 -2.05672 19
93 1 -9.41517 -6.70796 -14.7423 9
94 1 -4.44758 -10.4169 -13.2327 13
95 1 -6.73283 -7.89295 -12.8351 17
96 1 -6.71445 -5.8893 -10.2789 22
97 1 -4.79786 -8.65689 -10.1444 26
98 1 -5.56438 -10.8239 -7.81792 20
99 1 -6.52934 -7.85531 -7.42576 22
100 1 -6.46149 -5.92631 -4.75623 21
101 1 -5.08027 -8.63628 -4.76336 23
102 1 -5.06511 -10.9843 -2.11931 21
103 1 -6.76575 -7.55909 -2.02522 23
104 1 -7.69444 -0.230438 -15.9588 11
105 1 -5.47923 -2.81502 -15.9404 15
106 1 -5.12311 -4.78207 -13.1188 22
107 1 -7.17781 -1.95003 -13.2006 24
108 1 -6.86576 0.20773 -10.1286 21
109 1 -5.3291 -2.786 -10.2176 22
110 1 -4.86315 -4.78756 -7.53693 23
111 1 -6.78938 -1.93123 -7.67981 21
112 1 -6.37425 0.0701123 -4.92114 22
113 1 -4.98956 -2.82098 -4.9363 23
114 1 -4.87628 -4.92236 -2.4132 23
115 1 -6.84441 -1.76474 -2.17684 22
116 1 -3.35049 -11.4237 -10.3436 20
117 1 -1.75277 -14.9167 -10.1535 10
118 1 -2.98779 -16.3886 -6.78571 13
119 1 -3.88864 -13.9316 -8.99832 14
120 1 -3.5424 -11.5579 -5.15557 20
121 1 -1.97652 -14.3525 -4.558 22
122 1 -1.29554 -16.3271 -1.73789 20
123 1 -3.14795 -13.7342 -2.11596 23
124 1 -3.59244 -5.63222 -15.7772 13
125 1 -6.59946 -5.90715 -15.579 15
126 1 -1.22803 -11.2762 -12.8609 13
127 1 -3.19135 -7.62081 -12.9651 21
128 1 -3.44715 -5.61285 -10.2153 25
129 1 -1.58843 -8.59637 -10.5552 22
130 1 -1.96954 -10.5204 -7.97023 19
131 1 -3.38814 -7.73427 -7.66592 21
132 1 -3.40018 -5.72734 -4.98296 21
133 1 -1.44025 -8.60684 -4.59335 22
134 1 -1.38238 -10.7385 -2.19236 23
135 1 -3.50712 -7.78773 -1.98568 22
136 1 -3.9775 -0.0488172 -15.3026 20
137 1 -1.83039 -2.96533 -16.1597 17
138 1 -1.66583 -4.80006 -12.9423 21
139 1 -3.69831 -2.09256 -13.0753 22
140 1 -3.47464 -0.0306547 -10.3633 22
141 1 -1.69037 -2.89753 -10.2399 22
142 1 -1.72397 -4.69736 -7.458 23
143 1 -3.07437 -1.84147 -7.87314 22
144 1 -3.12189 0.152282 -4.81633 22
145 1 -1.52423 -2.92811 -4.90814 22
146 1 -1.62684 -4.78027 -2.12899 23
147 1 -3.27586 -1.7663 -2.41162 21
148 2 -16.9939 -3.46136 -1.73648 10
149 2 -13.2137 -5.67807 -7.90308 17
150 2 -13.1349 -7.4194 -5.64941 17
151 2 -15.077 -4.25871 -9.56136 10
152 2 -14.911 -2.14853 -7.51768 17
153 2 -15.7899 -0.181189 -9.2973 10
154 2 -14.9251 -4.49622 -0.363398 16
155 2 -14.4397 -4.1602 -5.98267 18
156 2 -16.4395 -2.01908 -4.53737 14
157 2 -14.4116 -3.11938 -2.75765 20
158 2 -11.1438 -10.6809 -5.60834 16
159 2 -8.1606 -14.6536 -7.69388 10
160 2 -11.787 -8.65397 -8.35735 17
161 2 -13.7688 -2.08093 -10.7828 18
162 2 -10.248 -10.2396 -10.9942 13
163 2 -11.4657 -10.4073 -0.0271705 17
164 2 -13.2892 -7.90288 -0.515762 17
165 2 -14.0363 -6.1466 -2.84045 15
166 2 -11.942 -8.85748 -3.06316 19
167 2 -11.7267 -2.41744 -13.6893 13
168 2 -13.1959 0.221138 -13.9388 11
169 2 -11.8067 -4.60152 -10.942 18
170 2 -11.6078 -4.95957 -5.25622 24
171 2 -12.9632 -1.56691 -5.02573 19
172 2 -12.085 0.922673 -10.7823 23
173 2 -11.4923 -3.0808 -8.15067 22
174 2 -11.4958 -4.94982 -0.390719 19
175 2 -13.2157 -1.84808 0.398613 22
176 2 -13.2461 0.23341 -2.98138 25
177 2 -11.6142 -2.77463 -2.62594 22
178 2 -9.69564 -13.7894 -5.25111 13
179 2 -9.87536 -11.7728 -8.05035 16
180 2 -9.59512 -13.2427 -0.0367291 13
181 2 -10.2456 -11.3196 -2.76068 18
182 2 -8.30304 -14.5787 -2.59654 15
183 2 -8.42098 -13.267 -10.492 10
184 2 -9.81585 -7.59509 -10.2138 16
185 2 -10.5439 -5.3968 -13.4949 13
186 2 -8.84755 -7.96943 -13.3033 13
187 2 -8.3174 -10.5313 -5.53602 23
188 2 -10.2587 -7.6592 -5.7419 22
189 2 -9.95062 -5.7329 -8.11668 23
190 2 -8.14029 -8.40495 -8.13304 22
191 2 -8.1698 -10.6515 -0.250311 23
192 2 -10.3109 -7.56207 -0.175902 21
193 2 -10.053 -5.84781 -2.65192 21
194 2 -8.59847 -9.00357 -2.79883 22
195 2 -8.38805 -4.77489 -10.8264 20
196 2 -10.1792 -1.62908 -10.5952 23
197 2 -10.4585 0.321178 -13.3959 16
198 2 -8.87598 -2.8675 -13.5027 20
199 2 -8.14403 -4.96161 -5.42569 22
200 2 -10.0924 -2.04876 -5.36949 23
201 2 -9.54379 -0.337975 -8.11332 21
202 2 -8.51703 -2.99802 -8.13911 22
203 2 -8.20436 -4.48207 -0.161621 23
204 2 -10.1137 -1.85101 -0.229721 22
205 2 -10.0713 -0.0507205 -2.63487 21
206 2 -8.28748 -2.89152 -2.77175 22
207 2 -4.43786 -16.1994 -5.49818 12
208 2 -6.77759 -13.7081 -5.40941 19
209 2 -7.34197 -10.9322 -9.10035 19
210 2 -5.56698 -14.7516 -8.81659 12
211 2 -4.47226 -16.151 0.724282 14
212 2 -6.30187 -13.6142 -0.173724 20
213 2 -6.52547 -11.7506 -2.9938 24
214 2 -4.72443 -14.5598 -2.43234 20
215 2 -4.7704 -10.3708 -11.1732 19
216 2 -6.30382 -7.81198 -10.9103 24
217 2 -6.76236 -6.01234 -13.6262 20
218 2 -7.65269 -10.3653 -11.8273 15
219 2 -5.18862 -10.6119 -5.4936 19
220 2 -6.77315 -7.79084 -5.41533 22
221 2 -6.57503 -5.6984 -8.26141 23
222 2 -5.09165 -8.65408 -8.2309 24
223 2 -4.64203 -10.7925 0.187325 20
224 2 -6.52627 -7.54883 -0.061625 22
225 2 -6.58115 -5.88254 -2.89606 23
226 2 -5.26798 -8.8928 -2.55672 21
227 2 -5.18248 -4.83094 -11.0492 23
228 2 -6.97608 -1.76913 -10.889 23
229 2 -7.09597 0.150156 -13.2322 18
230 2 -5.42587 -2.92949 -13.613 24
231 2 -4.78553 -4.51041 -5.58861 22
232 2 -6.80475 -2.1625 -5.5471 24
233 2 -6.41395 -0.0799417 -7.88915 21
234 2 -4.60491 -2.94656 -8.1789 22
235 2 -5.13822 -4.5668 -0.245167 23
236 2 -6.37485 -1.34512 -0.307197 23
237 2 -6.6357 0.0979903 -3.06813 25
238 2 -5.1764 -2.65294 -2.78438 21
239 2 -2.75511 -13.1729 -10.3482 15
240 2 -4.74625 -8.60489 -13.3264 13
241 2 -1.80516 -16.6842 -5.20863 15
242 2 -3.77528 -13.6099 -5.06586 21
243 2 -3.6725 -11.4343 -8.08287 20
244 2 -2.67528 -15.5423 -8.432 9
245 2 -1.52444 -16.5979 0.291214 19
246 2 -2.87879 -13.3917 -0.119596 23
247 2 -3.57089 -11.9294 -3.03935 21
248 2 -1.51649 -14.6578 -2.82831 21
249 2 -1.58844 -10.4391 -10.9417 21
250 2 -3.26315 -7.64583 -10.8109 21
251 2 -3.32749 -5.76401 -13.7 18
252 2 -5.39488 -4.71891 -16.1025 13
253 2 -1.68502 -10.5727 -5.31421 22
254 2 -3.43205 -7.66959 -5.60307 25
255 2 -3.17252 -5.70014 -8.17184 22
256 2 -2.14101 -8.74126 -8.56579 20
257 2 -1.38502 -10.6686 -0.292782 23
258 2 -3.339 -7.59994 -0.253907 24
259 2 -3.16949 -5.86517 -2.85414 23
260 2 -1.71687 -8.67706 -2.7176 22
261 2 -1.67841 -4.83832 -10.9333 23
262 2 -3.6104 -2.06138 -10.6475 20
263 2 -3.71102 -0.0486335 -13.4205 22
264 2 -1.79936 -2.88643 -13.3141 21
265 2 -1.73412 -4.90494 -5.56336 25
266 2 -3.20573 -1.67219 -5.75081 24
267 2 -2.89667 0.0978359 -8.33153 23
268 2 -1.40046 -2.8114 -8.35565 22
269 2 -1.61745 -4.85051 -0.189929 23
270 2 -3.05059 -1.68615 -0.383695 21
271 2 -3.30794 0.231537 -2.79591 21
272 2 -1.70743 -2.88887 -2.93151 25
273 1 -16.7507 -4.07147 -0.0692085 13
274 1 -15.0217 -8.60263 0.933531 10
275 1 -11.6187 -8.10056 4.99797 18
276 1 -16.7093 0.364868 -0.438941 13
277 1 -14.7876 -2.51183 -0.870341 20
278 1 -15.5001 -4.93889 2.31551 13
279 1 -16.8625 -1.74794 2.59702 11
280 1 -16.5062 0.609296 4.7663 13
281 1 -15.2965 -2.5727 5.42041 14
282 1 -14.7334 -4.01618 9.28178 8
283 1 -12.4766 -10.366 3.18604 12
284 1 -13.4118 -5.47089 0.13854 22
285 1 -12.1641 -8.7012 0.867547 20
286 1 -10.3029 -11.2919 4.78344 14
287 1 -13.6826 -6.72132 3.01274 18
288 1 -13.3735 -5.02188 5.26398 19
289 1 -11.8611 -10.2939 7.22282 11
290 1 -8.75348 -10.4261 8.6897 20
291 1 -13.3564 -7.28178 7.15998 11
292 1 -13.8492 -0.645435 10.0617 13
293 1 -10.0346 -8.06938 13.1125 7
294 1 -12.7703 0.0326125 0.286166 24
295 1 -11.5597 -2.97698 0.398078 23
296 1 -11.4845 -4.49311 2.92541 24
297 1 -13.3123 -1.76797 2.80499 22
298 1 -13.2064 -0.0223229 6.00865 23
299 1 -11.5624 -2.48415 5.30078 23
300 1 -11.6602 -5.01449 8.57163 21
301 1 -12.9012 -2.05646 7.89852 21
302 1 -14.8093 2.85812 10.3629 8
303 1 -11.6936 -2.40931 10.687 18
304 1 -10.4596 -11.8221 1.06394 15
305 1 -8.01645 -14.1195 0.596513 13
306 1 -8.95745 -14.179 4.36126 12
307 1 -10.5829 -13.443 7.65165 9
308 1 -7.29019 -13.4574 7.85956 17
309 1 -9.61776 -5.67799 0.436786 23
310 1 -8.59951 -8.70914 0.0546819 18
311 1 -8.39095 -10.2463 2.9234 19
312 1 -10.1726 -7.65492 2.4755 20
313 1 -10.2692 -5.52117 5.39143 22
314 1 -8.4391 -8.16658 5.47573 22
315 1 -9.0127 -12.6365 10.4056 9
316 1 -10.0176 -7.57375 8.07315 17
317 1 -9.64892 -5.7036 10.845 19
318 1 -8.00113 -8.7083 10.7916 18
319 1 -9.78708 0.143371 -0.00417705 22
320 1 -8.28352 -2.50249 0.229487 21
321 1 -8.34582 -4.59338 3.11619 26
322 1 -9.70466 -1.574 2.76413 23
323 1 -10.072 0.347061 5.49942 20
324 1 -8.30823 -2.61598 5.27434 22
325 1 -8.21067 -5.01994 8.06193 24
326 1 -9.54704 -1.68128 8.03319 23
327 1 -9.68455 -0.122073 10.7791 22
328 1 -8.13042 -3.04425 10.7705 23
329 1 -8.2897 -4.76458 13.3091 14
330 1 -9.27797 -1.6076 13.9338 12
331 1 -6.47829 -11.5678 0.829366 23
332 1 -4.48487 -14.0475 0.664824 21
333 1 -3.93077 -17.9059 4.81013 8
334 1 -6.26236 -12.9916 3.52353 20
335 1 -7.06138 -11.2486 5.71645 22
336 1 -5.33461 -14.7343 5.75668 16
337 1 -5.42664 -14.3822 9.86324 11
338 1 -6.43123 -11.7523 11.1252 15
339 1 -6.54608 -5.71128 0.503197 23
340 1 -5.10138 -8.71303 0.539254 22
341 1 -4.64228 -10.1939 3.27776 24
342 1 -6.80128 -7.29922 2.85007 23
343 1 -6.73409 -5.41639 5.67082 22
344 1 -5.20145 -8.3861 5.53911 22
345 1 -5.29844 -10.6162 8.01429 22
346 1 -6.73635 -7.6813 8.14112 22
347 1 -6.52409 -5.72392 11.2362 24
348 1 -4.89641 -8.73254 10.7472 20
349 1 1.78662 -8.91405 16.2294 10
350 1 -6.562 -7.43852 13.5975 13
351 1 -6.52194 0.407239 0.467806 22
352 1 -4.94983 -2.76782 0.145275 20
353 1 -4.90145 -4.9228 2.95733 22
354 1 -6.55722 -1.68994 3.00115 24
355 1 -6.37455 0.461476 5.52048 23
356 1 -5.06682 -2.7953 5.8126 23
357 1 -4.80114 -5.01559 8.39431 24
358 1 -6.36309 -1.59637 8.34736 24
359 1 -6.08234 0.167125 10.9254 22
360 1 -4.90241 -3.14389 10.9296 22
361 1 -4.53063 -4.95644 13.5919 19
362 1 -6.37882 -2.14277 13.7187 22
363 1 -2.9711 -11.411 0.382202 21
364 1 -1.32522 -14.6868 0.58691 22
365 1 -4.59587 -15.9932 2.84757 13
366 1 -2.98194 -13.3491 3.52064 19
367 1 -3.29596 -11.5639 5.86779 22
368 1 -1.89634 -16.0176 6.7581 14
369 1 -3.36988 -13.6513 7.61993 15
370 1 -3.2697 -11.7193 10.3816 16
371 1 -1.67911 -14.7678 10.3106 10
372 1 -3.30784 -5.56094 0.334216 23
373 1 -1.45935 -8.64906 0.202537 22
374 1 -1.58784 -10.5033 3.24924 22
375 1 -3.06855 -7.56784 2.77658 22
376 1 -3.18355 -5.65239 5.48212 22
377 1 -1.8735 -8.92103 5.80995 24
378 1 -1.51276 -10.4689 8.57515 21
379 1 -3.52441 -7.79865 8.14231 23
380 1 -3.22152 -6.07022 10.9396 25
381 1 -1.69322 -8.61648 10.8824 23
382 1 -1.12433 -10.5654 13.9551 12
383 1 -3.26099 -8.37091 13.71 14
384 1 -3.11563 0.31502 0.313526 22
385 1 -1.68236 -2.84084 0.35525 23
386 1 -1.31147 -4.76535 3.01227 22
387 1 -3.34819 -1.58143 3.29256 24
388 1 -3.13643 0.244419 5.75908 25
389 1 -1.66101 -2.8544 5.57743 22
390 1 -1.50143 -4.75765 8.12679 22
391 1 -3.30858 -2.147 8.09973 20
392 1 -3.21349 -0.23302 10.4565 18
393 1 -1.67755 -2.91486 10.8603 21
394 1 -1.38621 -4.9529 13.819 21
395 1 -3.29728 -2.20231 14.0062 20
396 2 -16.5768 -3.35512 1.81878 13
397 2 -13.8473 -9.83173 2.01287 10
398 2 -14.6513 -4.39194 4.16175 16
399 2 -15.8425 -0.859382 4.11402 13
400 2 -16.3272 -0.342587 1.23227 16
401 2 -12.8947 -5.1302 2.00063 21
402 2 -14.8345 -3.02543 7.52293 14
403 2 -11.9408 -10.0831 5.12925 14
404 2 -10.9761 -11.5684 8.09185 11
405 2 -13.4539 -7.00811 5.20978 15
406 2 -15.3606 -7.1163 1.9658 14
407 2 -12.1437 -8.06986 2.83238 20
408 2 -13.5908 -5.49137 8.4413 12
409 2 -11.6598 -8.25705 7.27552 16
410 2 -11.5242 -4.43196 4.75565 22
411 2 -13.364 -1.98105 5.17932 18
412 2 -13.0791 0.135799 2.26866 21
413 2 -11.509 -2.27411 2.62107 19
414 2 -11.1131 -4.22735 10.257 17
415 2 -13.3999 -2.60608 9.80919 13
416 2 -13.1888 -0.0852983 7.98156 20
417 2 -11.2412 -2.88949 7.39239 25
418 2 -12.4366 -0.731312 11.559 15
419 2 -10.0976 -13.1315 5.50301 13
420 2 -10.691 -11.2966 2.89981 17
421 2 -7.89073 -13.7237 2.62625 15
422 2 -8.97543 -13.4634 8.61925 13
423 2 -8.38803 -10.5425 4.81021 20
424 2 -9.69838 -7.16451 4.33662 22
425 2 -9.99655 -5.51248 2.25839 22
426 2 -8.27746 -8.31691 1.95086 22
427 2 -8.10944 -10.7044 10.4349 16
428 2 -9.27574 -7.6605 9.80788 18
429 2 -10.0424 -5.54082 7.29725 25
430 2 -8.3217 -8.82836 7.4332 23
431 2 -9.73942 -6.08843 12.7235 13
432 2 -8.26434 -8.16014 13.1978 12
433 2 -8.50548 -4.61557 5.12838 23
434 2 -9.79372 -1.46459 4.70374 23
435 2 -9.25667 0.238316 1.90394 23
436 2 -8.29569 -2.63634 2.35825 23
437 2 -8.0234 -4.8061 10.0217 24
438 2 -9.91087 -1.97421 9.98336 23
439 2 -9.81083 0.0357833 7.42568 25
440 2 -7.81529 -2.77481 7.49598 21
441 2 -9.96146 -0.218977 12.905 16
442 2 -8.12632 -2.95869 13.0577 20
443 2 -5.15022 -16.3818 4.75785 12
444 2 -6.85354 -13.2684 5.61275 18
445 2 -6.52474 -10.9466 2.65856 18
446 2 -4.8211 -13.9868 2.7008 20
447 2 -7.15703 -13.2926 10.4396 11
448 2 -6.73201 -11.4694 7.87697 20
449 2 -5.21291 -14.2912 7.81828 16
450 2 -5.2174 -10.2564 5.51932 23
451 2 -6.79669 -7.39841 4.84123 23
452 2 -6.59574 -5.41615 2.33398 22
453 2 -4.87475 -8.4166 2.46528 23
454 2 -4.90636 -10.7458 10.2624 19
455 2 -6.58933 -7.40771 10.1785 22
456 2 -6.42066 -5.75929 7.67697 22
457 2 -5.11596 -8.72579 7.87375 21
458 2 -6.44044 -5.53069 13.1291 19
459 2 -5.19999 -8.34448 12.7243 18
460 2 -4.80812 -4.67905 4.8816 25
461 2 -6.54849 -1.60224 4.94127 24
462 2 -6.44931 0.3816 2.60858 22
463 2 -4.90466 -2.75796 2.71101 20
464 2 -4.71647 -5.04597 10.5196 22
465 2 -6.4038 -1.83273 10.698 20
466 2 -6.46804 0.138068 7.53952 23
467 2 -4.91094 -3.27141 7.73524 22
468 2 -4.87466 -4.82533 15.3235 14
469 2 -5.90102 -2.04803 15.4853 17
470 2 -6.65208 -0.00439799 13.1027 22
471 2 -4.57149 -2.92269 12.934 24
472 2 -2.77533 -17.6378 6.23663 8
473 2 -3.83878 -13.3676 5.50361 18
474 2 -3.2212 -11.4655 3.11517 23
475 2 -1.51343 -14.6835 2.45043 22
476 2 -3.48837 -14.0247 10.3808 12
477 2 -2.98016 -11.6814 7.87476 21
478 2 -1.7954 -14.6819 8.14991 16
479 2 -1.6185 -9.03856 12.8549 19
480 2 -1.84418 -10.7988 5.18285 20
481 2 -3.22915 -7.59451 5.28002 21
482 2 -3.24834 -5.80185 2.2579 22
483 2 -1.80853 -8.71808 2.1795 22
484 2 -1.7791 -10.5624 10.4569 18
485 2 -3.29078 -7.89865 10.1157 24
486 2 -2.90944 -6.11223 7.54269 21
487 2 -1.73359 -8.75939 7.76381 19
488 2 -2.4611 -8.78401 15.3161 10
489 2 -2.75053 -6.07268 13.102 20
490 2 0.193926 -11.2454 12.5232 14
491 2 -1.50925 -4.75244 4.81988 23
492 2 -3.33121 -1.85297 5.26186 23
493 2 -3.01963 0.0432906 2.50401 22
494 2 -1.60395 -2.81686 2.44588 20
495 2 -1.48973 -4.74726 10.3247 24
496 2 -3.31789 -2.24719 10.0405 22
497 2 -3.46472 0.119144 7.97473 23
498 2 -1.45226 -2.83375 7.6325 23
499 2 -1.07407 -5.14886 16.0732 15
500 2 -3.20259 -2.60977 16.0613 16
501 2 -3.31098 -0.26985 14.1422 20
502 2 -1.57716 -3.19728 13.0169 22
503 1 -15.4462 6.64182 -8.02016 12
504 1 -15.5487 1.17969 -8.15482 12
505 1 -16.8131 6.48523 -4.56994 12
506 1 -15.176 2.65959 -5.26883 16
507 1 -15.2133 0.86173 -2.51988 18
508 1 -16.7012 3.69402 -2.35869 13
509 1 -15.5829 9.21226 -5.50079 10
510 1 -16.6596 9.50243 -3.03829 8
511 1 -14.9973 6.77087 -2.17234 20
512 1 -14.9573 0.0230748 -13.3407 8
513 1 -15.0157 2.89942 -11.0905 13
514 1 -11.652 2.89631 -10.6538 20
515 1 -11.0458 1.15472 -7.54125 19
516 1 -13.7046 3.75535 -8.06843 17
517 1 -13.6543 5.55481 -5.14058 20
518 1 -11.6537 2.95785 -5.14402 20
519 1 -11.699 1.01715 -2.2162 22
520 1 -13.3595 3.72949 -2.2412 22
521 1 -13.3467 5.67509 -10.6756 16
522 1 -12.1897 6.58626 -7.43741 20
523 1 -13.3772 8.67858 -8.45955 12
524 1 -13.3735 10.2372 -2.54189 18
525 1 -11.8862 8.69039 -5.13527 19
526 1 -11.9969 6.61205 -2.38292 21
527 1 -13.3856 11.9057 0.391085 14
528 1 -11.196 12.6943 -1.71282 13
529 1 -10.2408 4.71415 -12.5633 14
530 1 -8.86659 0.872684 -12.8837 17
531 1 -11.588 8.26448 -11.0596 11
532 1 -10.1089 5.74789 -9.7588 23
533 1 -8.7152 2.65464 -9.8531 20
534 1 -8.02422 0.819735 -7.40836 23
535 1 -9.60676 4.02238 -7.05328 21
536 1 -10.5547 5.94893 -4.93327 21
537 1 -8.11837 2.7618 -5.0821 22
538 1 -8.21022 1.16289 -2.55551 21
539 1 -10.0083 3.97561 -2.69347 22
540 1 -8.55297 7.07197 -12.1454 18
541 1 -8.06939 8.82508 -9.99289 20
542 1 -8.3919 7.00415 -7.52463 22
543 1 -10.1639 9.36981 -8.04653 18
544 1 -9.88808 11.6843 -5.12384 15
545 1 -8.34706 9.08451 -4.87995 21
546 1 -8.57322 6.90377 -2.31889 22
547 1 -10.3507 9.8162 -2.45985 20
548 1 -8.41332 12.5315 -7.50873 13
549 1 -8.1186 14.7003 -5.23575 13
550 1 -8.32664 12.8664 -2.44607 20
551 1 -7.95827 6.59423 -14.9115 9
552 1 -5.63897 2.13768 -15.429 15
553 1 -5.25322 0.774077 -12.6818 24
554 1 -6.50976 4.11081 -12.9741 18
555 1 -6.96871 5.49973 -10.1598 21
556 1 -5.12707 2.65027 -10.2657 22
557 1 -4.82684 0.586525 -7.3755 22
558 1 -6.62301 4.05063 -7.4876 21
559 1 -6.92394 5.75249 -4.97564 24
560 1 -4.93817 3.0308 -4.96566 23
561 1 -5.18396 1.24565 -2.20024 24
562 1 -6.62398 3.99294 -2.3805 23
563 1 -5.00763 7.17908 -13.1287 19
564 1 -6.60852 9.64134 -13.3355 11
565 1 -6.83872 11.5252 -10.0863 14
566 1 -5.1086 8.83363 -10.5615 22
567 1 -4.97783 7.12315 -7.78284 23
568 1 -6.72785 9.80571 -7.71813 20
569 1 -6.85457 11.5752 -4.84314 22
570 1 -4.89806 9.05965 -4.76797 23
571 1 -5.24598 6.87593 -2.46596 20
572 1 -6.36172 9.63158 -2.15891 23
573 1 -4.8358 12.552 -7.31564 23
574 1 -5.75994 16.1477 -7.23102 13
575 1 -4.71728 14.7853 -4.66821 21
576 1 -4.99472 12.9753 -2.43714 22
577 1 -6.86765 15.6413 -2.16366 14
578 1 -4.65204 5.37644 -15.4486 11
579 1 -2.12602 2.81736 -15.7167 15
580 1 -2.09299 0.96703 -12.8335 22
581 1 -3.63683 3.79723 -13.0166 22
582 1 -3.41782 5.95938 -10.1996 23
583 1 -1.98363 2.99127 -10.1803 20
584 1 -1.34871 1.13692 -7.60297 23
585 1 -3.21291 3.758 -7.4938 24
586 1 -3.49795 5.80601 -5.28242 20
587 1 -1.66131 3.17052 -4.95773 23
588 1 -1.59644 1.33146 -2.58728 20
589 1 -3.17814 4.11649 -2.35704 24
590 1 2.26082 8.18137 -15.6684 12
591 1 -1.79784 6.77466 -12.8759 20
592 1 -3.02145 9.69285 -13.1202 14
593 1 -3.21694 11.8807 -10.6686 17
594 1 -1.74959 9.0881 -9.95086 24
595 1 -1.44386 6.91473 -7.73653 22
596 1 -3.39032 9.775 -7.66965 23
597 1 -3.49354 11.7752 -4.71237 25
598 1 -1.92579 8.9007 -5.03199 24
599 1 -1.67392 7.06531 -2.54826 20
600 1 -2.85763 10.1099 -1.81061 22
601 1 -1.62342 14.6462 -10.9722 13
602 1 -5.39685 14.3861 -9.81505 13
603 1 -1.58665 12.5805 -7.39036 22
604 1 -2.79444 15.7244 -7.91818 17
605 1 -4.33945 17.1436 -9.85426 8
606 1 -1.68738 14.6121 -5.07551 21
607 1 -1.64007 12.5097 -2.2259 23
608 1 -3.31117 15.352 -2.49696 18
609 2 -15.1021 0.555865 -6.13793 17
610 2 -15.3639 6.03751 -5.86559 15
611 2 -14.9303 8.4631 -7.32524 14
612 2 -14.6292 1.14674 -0.526816 20
613 2 -16.5173 3.95301 -0.579986 17
614 2 -16.9949 5.48824 -3.01597 11
615 2 -15.1326 2.66319 -3.04886 19
616 2 -16.8249 8.18435 -4.4165 9
617 2 -15.0871 6.73655 -0.0583768 17
618 2 -15.8451 9.58783 -1.28996 11
619 2 -14.4825 1.24141 -11.8316 12
620 2 -13.3217 3.76236 -10.5361 17
621 2 -15.1241 2.82858 -9.06857 15
622 2 -11.6193 0.973896 -5.5817 20
623 2 -13.4817 3.49628 -5.60487 20
624 2 -12.9181 7.6088 -9.91674 14
625 2 -10.8926 2.91838 -8.17515 20
626 2 -11.4432 1.0653 -0.374937 22
627 2 -13.0128 3.89015 -0.218051 21
628 2 -13.5657 5.55988 -2.68941 21
629 2 -11.8326 2.96949 -3.19182 23
630 2 -14.7704 9.86435 -4.03677 11
631 2 -12.1198 6.77141 -5.12027 18
632 2 -11.8222 8.56676 -7.18244 16
633 2 -13.7157 5.64459 -8.51976 19
634 2 -11.4615 6.80042 -0.425444 22
635 2 -13.2752 9.88879 0.380412 16
636 2 -13.1212 11.7873 -1.62509 13
637 2 -12.1198 8.75087 -2.5317 15
638 2 -9.73456 11.2515 -7.90878 13
639 2 -11.099 12.5896 0.211409 16
640 2 -8.46102 0.869363 -10.7991 23
641 2 -9.81769 4.09092 -10.5601 20
642 2 -7.71222 8.21412 -13.636 11
643 2 -11.0413 3.18798 -12.7496 15
644 2 -8.28909 0.680123 -5.55938 23
645 2 -9.89777 3.84982 -5.16813 19
646 2 -10.2681 5.85584 -7.78762 20
647 2 -7.99378 2.68875 -7.95603 22
648 2 -7.97917 1.18258 -0.49646 24
649 2 -9.80972 4.15491 -0.201196 22
650 2 -10.2279 5.8679 -2.84145 22
651 2 -8.10762 3.06571 -3.24946 22
652 2 -8.22795 6.96257 -10.199 20
653 2 -11.2261 6.3562 -11.498 15
654 2 -9.98834 8.81215 -10.2395 15
655 2 -8.70581 6.59863 -5.43107 21
656 2 -10.4202 9.77549 -4.82071 17
657 2 -8.27994 12.5866 -5.52772 17
658 2 -8.26587 8.90834 -8.14358 21
659 2 -8.22224 7.07215 -0.377099 21
660 2 -9.97327 9.73872 -0.528278 23
661 2 -10.0511 12.1917 -3.23689 18
662 2 -7.97091 8.8447 -2.96797 20
663 2 -6.47774 15.7546 -5.41961 12
664 2 -8.184 12.7462 -0.308616 22
665 2 -8.39544 14.5895 -3.26157 16
666 2 -5.1489 0.441524 -10.9602 21
667 2 -6.61854 3.58952 -10.8165 18
668 2 -6.46606 5.58772 -14.701 14
669 2 -5.29593 2.66871 -13.2517 18
670 2 -4.76792 1.11036 -5.36329 22
671 2 -6.67175 3.9998 -5.53771 23
672 2 -6.47941 5.93377 -8.24636 24
673 2 -4.81356 2.98372 -8.08731 22
674 2 -4.82359 1.30715 -0.221352 21
675 2 -6.65648 3.92449 -0.317131 23
676 2 -6.96199 5.84497 -2.96134 20
677 2 -4.93841 3.17139 -2.75534 24
678 2 -5.41198 6.75157 -11.0879 23
679 2 -6.71715 9.98074 -11.0718 17
680 2 -4.84359 8.91375 -13.3693 12
681 2 -5.10012 6.78692 -5.56071 21
682 2 -6.64665 9.6256 -5.51079 25
683 2 -6.61038 11.7383 -7.94628 18
684 2 -4.83423 8.84143 -8.65003 24
685 2 -5.16191 6.76971 -0.543315 23
686 2 -6.61268 10.0839 -0.132385 19
687 2 -6.51737 11.7649 -2.71553 21
688 2 -4.60251 8.93632 -2.44849 21
689 2 -5.05735 12.8078 -10.8559 14
690 2 -5.1864 12.6757 -5.32558 20
691 2 -6.07638 16.2625 -9.63859 8
692 2 -4.63215 14.5245 -7.87843 17
693 2 -5.21543 12.9834 -0.640248 24
694 2 -6.56707 15.4898 -0.201826 15
695 2 -5.14972 15.2816 -2.68854 17
696 2 -1.86952 0.848691 -10.8555 23
697 2 -3.54513 3.70631 -11.0633 25
698 2 -3.46327 6.11956 -13.5844 19
699 2 -2.08766 2.92304 -13.8246 25
700 2 -1.3071 1.24193 -5.10915 21
701 2 -3.26444 3.97382 -5.4879 20
702 2 -3.18108 5.83696 -8.12557 23
703 2 -1.54163 3.09202 -8.27791 23
704 2 -1.71773 1.42295 -0.680778 26
705 2 -3.07135 3.99941 -0.217928 22
706 2 -3.3713 6.0034 -2.96812 24
707 2 -1.67162 3.42415 -3.01955 23
708 2 -2.10432 7.2902 -10.5433 23
709 2 -3.24095 9.8713 -10.7486 18
710 2 -1.63385 12.7212 -11.1627 16
711 2 -1.56593 8.59145 -13.2152 15
712 2 -1.55571 6.8393 -5.73377 24
713 2 -3.30475 9.88883 -5.62311 22
714 2 -3.2208 11.9128 -8.18847 21
715 2 -1.57147 8.98593 -8.01493 22
716 2 -1.67639 7.0184 -0.411834 22
717 2 -3.35987 9.9009 0.149013 22
718 2 -3.37858 11.7318 -2.91948 25
719 2 -1.68604 8.89601 -2.8632 24
720 2 -2.88244 15.8515 -9.87143 12
721 2 -1.81913 12.6865 -5.40815 24
722 2 -3.88735 17.0056 -6.81436 13
723 2 -1.34514 14.4835 -7.21178 20
724 2 -1.53602 12.3231 -0.0691126 22
725 2 -3.15449 15.1985 -0.0103549 18
726 2 -2.95924 15.7249 -4.62407 19
727 2 -1.66698 14.4533 -2.51668 23
728 1 -16.6124 5.62293 0.589638 14
729 1 -14.814 3.14389 0.307777 21
730 1 -14.9978 0.586861 1.9647 16
731 1 -16.276 3.52612 2.81315 13
732 1 -15.3908 3.07163 5.32565 15
733 1 -14.8954 1.11369 7.97591 13
734 1 -14.9519 9.12052 0.413069 14
735 1 -15.0114 6.82113 3.1639 16
736 1 -14.9779 8.99424 5.26611 12
737 1 -13.1903 5.86394 0.166222 19
738 1 -11.3251 3.09033 0.426645 25
739 1 -11.6936 0.969434 3.03508 22
740 1 -13.0718 3.7151 2.78758 21
741 1 -13.483 5.6843 5.36852 19
742 1 -11.9056 2.94528 5.47244 22
743 1 -11.4201 0.911984 8.56059 25
744 1 -13.1645 3.93225 8.14642 18
745 1 -13.1893 5.89079 10.3209 11
746 1 -11.4117 2.9213 11.0874 20
747 1 -11.7401 0.648162 12.7957 12
748 1 -11.134 13.0131 2.22825 14
749 1 -11.695 8.86015 -0.283251 20
750 1 -11.3711 6.79449 3.04239 21
751 1 -13.3381 9.78884 2.46847 17
752 1 -11.49 9.06605 5.09488 21
753 1 -11.5687 6.77669 7.49 19
754 1 -14.2517 7.34166 7.84551 13
755 1 -13.3445 12.151 4.37391 10
756 1 -9.68614 6.06416 0.360295 23
757 1 -8.15591 2.99832 0.250671 23
758 1 -7.98747 1.29595 3.04451 24
759 1 -9.86631 4.0612 3.07529 22
760 1 -9.93 5.59846 5.42346 23
761 1 -8.20578 3.07625 5.89957 23
762 1 -8.27595 1.03678 8.27282 22
763 1 -10.2424 3.76049 8.60618 23
764 1 -9.8758 5.69065 11.3865 19
765 1 -7.96141 2.66612 10.805 24
766 1 -8.37465 0.866134 13.7056 19
767 1 -9.95329 3.72048 13.8025 12
768 1 -9.62755 11.4142 0.485246 22
769 1 -8.12006 8.99879 0.146956 21
770 1 -8.10493 7.0722 3.0555 23
771 1 -9.6441 9.67742 3.00674 21
772 1 -10.2958 11.4567 6.15612 18
773 1 -8.33042 9.0905 5.76561 22
774 1 -8.57342 6.37047 8.41013 22
775 1 -10.0163 9.16596 8.52787 19
776 1 -8.40456 8.34847 10.8959 18
777 1 -7.94887 6.63748 13.68 13
778 1 -8.03917 14.6285 0.414036 16
779 1 -8.54154 12.6353 3.31629 19
780 1 -13.2881 10.8265 7.74985 13
781 1 -12.053 8.42868 10.5236 11
782 1 -6.69408 5.92911 0.145241 22
783 1 -4.93907 3.15315 0.411567 25
784 1 -4.60176 1.10213 3.17051 24
785 1 -6.49662 3.95651 3.15079 26
786 1 -6.53263 6.02592 5.83715 24
787 1 -4.80214 3.02936 5.91516 25
788 1 -5.12408 1.27681 8.4731 21
789 1 -6.43784 4.09677 8.63517 23
790 1 -6.44945 5.8186 11.3394 22
791 1 -4.76432 3.02203 11.3723 23
792 1 -5.24681 0.809064 14.1026 21
793 1 -6.55989 3.4989 14.0349 19
794 1 -6.39316 11.9332 0.376372 23
795 1 -5.11432 9.11254 0.55619 21
796 1 -5.07722 6.79267 2.98371 23
797 1 -6.53291 9.94448 3.08621 21
798 1 -6.40596 11.8184 6.05007 22
799 1 -4.85994 8.65775 5.8148 24
800 1 -5.10863 6.76805 8.488 24
801 1 -6.90587 9.50128 8.7426 24
802 1 -6.75035 10.849 11.6348 14
803 1 -4.74288 8.51079 11.456 20
804 1 -4.93539 6.05896 14.6781 17
805 1 -6.2451 9.31704 13.9864 12
806 1 -4.98288 14.6489 0.510197 18
807 1 -4.68002 12.6298 3.1148 21
808 1 -6.63441 14.9172 3.25017 14
809 1 -5.07994 14.4632 6.04503 18
810 1 -8.48519 14.492 5.86858 11
811 1 -3.46702 6.01704 -0.0985244 21
812 1 -1.72601 3.11962 0.501635 23
813 1 -1.45817 1.29086 3.06472 22
814 1 -3.34103 4.12478 3.31875 24
815 1 -3.34083 6.02538 5.92691 24
816 1 -1.74762 3.13092 5.75901 24
817 1 -1.74452 0.934925 8.12211 21
818 1 -2.9718 3.93572 8.81325 25
819 1 -3.32 5.9764 11.5769 21
820 1 -1.46688 2.75033 11.1114 21
821 1 -1.67901 0.672539 13.7281 20
822 1 -2.9013 3.45376 13.9241 21
823 1 -3.23006 11.5924 0.291803 22
824 1 -1.53616 8.7433 0.434093 25
825 1 -1.72073 6.44827 3.03868 21
826 1 -2.9431 9.8542 3.09711 21
827 1 -3.25203 11.5355 5.93866 22
828 1 -1.5333 8.46247 5.91589 23
829 1 -1.57625 6.73676 8.32004 22
830 1 -3.42412 9.60852 8.70177 24
831 1 -3.7527 11.2209 12.0584 15
832 1 -1.91941 8.72576 11.1828 20
833 1 -1.813 6.82486 13.9588 19
834 1 -3.66287 8.0922 16.0243 13
835 1 -3.5082 18.4239 -5.44753 8
836 1 -1.47978 14.4147 0.616205 20
837 1 -1.42193 12.3441 3.21775 22
838 1 -2.98699 15.2182 2.95886 19
839 1 -1.79853 14.2567 6.04576 22
840 1 -5.21669 12.3202 8.82688 19
841 1 -8.19519 12.409 9.21687 13
842 1 -3.65188 15.4216 8.46385 10
843 2 -15.1282 0.885979 6.10506 13
844 2 -16.9134 2.522 4.16281 10
845 2 -16.4557 5.57913 2.79622 15
846 2 -14.9183 2.58723 1.96217 21
847 2 -14.8051 1.00536 10.1977 12
848 2 -14.6108 2.98839 7.34112 17
849 2 -14.5854 7.1196 4.97661 16
850 2 -15.2051 8.91978 2.2905 15
851 2 -11.7757 0.992008 5.00227 20
852 2 -13.5743 3.75912 4.56464 21
853 2 -13.2414 5.76352 2.32554 22
854 2 -11.22 2.73342 2.24099 21
855 2 -11.1428 1.10817 10.3564 21
856 2 -13.3832 4.05128 10.3447 14
857 2 -13.3361 5.60583 7.41724 20