ITEM: TIMESTEP
181000
ITEM: NUMBER OF ATOMS
2000
ITEM: BOX BOUNDS pp pp pp
-30.0 30.0
-30.0 30.0
-30.0 30.0
ITEM: ATOMS id type x y z Coordination
1 2 -16.9467 0.526239 -2.4819 10
2 1 -2.79039 -17.9052 -5.37436 11
3 2 -1.88663 -16.4216 -4.70536 17
4 1 -2.65744 -17.4751 -0.762726 10
5 2 -3.44968 -17.001 1.62489 12
6 1 -1.14852 -18.8091 -8.02116 7
7 1 3.32449 -17.1617 -5.72859 14
8 2 1.50644 -16.5368 -5.25078 17
9 2 3.21593 -17.4127 -7.72008 11
10 1 0.36745 -16.9967 -0.460176 17
11 1 -1.74221 -16.4456 1.90259 18
12 1 3.4377 -17.2367 -0.237213 10
13 2 1.8968 -17.1366 0.904848 11
14 2 5.17493 -16.71 0.624139 10
15 2 -7.54262 -2.38332 -14.3988 14
16 2 -6.87278 0.0616613 -13.2919 19
17 2 -1.49987 -4.17857 -15.1114 17
18 2 -3.1139 -1.55892 -15.8199 15
19 2 -5.44574 0.676901 -16.0548 12
20 2 -10.9976 1.30236 -13.3241 14
21 2 -1.67831 1.3986 -16.7556 14
22 2 -2.22612 6.84384 -15.3625 13
23 2 -0.359263 4.24516 -15.9801 16
24 2 -2.74964 -9.40319 -12.6153 14
25 2 1.73454 -4.60152 -15.6744 13
26 2 0.238646 -1.59037 -16.3057 14
27 2 4.39893 -3.99256 -15.8295 14
28 2 3.02167 -1.48136 -17.0017 12
29 2 5.84438 -1.94667 -15.3652 16
30 2 1.5561 1.00748 -16.2011 16
31 2 1.58797 7.00377 -15.1741 12
32 2 3.59826 9.69698 -15.4773 10
33 2 4.76138 1.06888 -15.5466 12
34 2 2.67968 3.78379 -15.7033 13
35 2 5.10914 8.80327 -13.0627 18
36 1 -16.264 -5.10841 -6.72819 11
37 1 -12.4429 -7.92196 -9.61145 14
38 1 -15.1018 -2.26366 -12.8663 9
39 1 -15.5055 -6.45681 -9.7087 9
40 1 -15.2921 -3.21629 -9.48353 15
41 1 -16.9819 -0.105985 -4.13588 13
42 1 -17.0233 -2.018 -6.98097 13
43 1 -14.0234 -5.90675 -4.10968 18
44 1 -15.2558 -3.08254 -4.66465 16
45 1 -12.3016 -10.1128 -7.34949 11
46 1 -15.7448 3.35143 -9.35257 12
47 1 -8.39282 -14.6096 -9.85161 9
48 1 -5.01199 -13.5258 -9.75615 16
49 1 -10.2461 -11.81 -9.68572 10
50 1 -14.2167 -7.7546 -6.80601 13
51 1 -11.6331 -8.61831 -4.68854 20
52 1 -10.7917 -11.9429 -4.80573 10
53 1 -13.4527 -8.02643 -1.80018 15
54 1 -12.294 -2.29074 -14.7779 9
55 1 -13.1035 -0.759839 -10.2087 17
56 1 -12.1624 -3.3945 -8.90619 20
57 1 -12.4298 -5.25163 -6.55642 21
58 1 -13.764 -1.9762 -6.87276 20
59 1 -13.3913 0.0165905 -4.77614 22
60 1 -12.0017 -2.73779 -4.92252 22
61 1 -11.8683 -4.71593 -2.17662 23
62 1 -13.6954 -1.72313 -2.09128 21
63 1 -6.32655 -13.8613 -7.46547 19
64 1 -9.79743 -14.5392 -7.32664 9
65 1 -8.28619 -14.2484 -4.47724 14
66 1 -9.81241 -12.8829 -1.85516 14
67 1 -4.8065 -10.5613 -12.8874 11
68 1 -10.1174 -5.7002 -11.0072 16
69 1 -9.02602 -8.5237 -10.3814 17
70 1 -8.00532 -10.5869 -7.69874 16
71 1 -10.6394 -7.64393 -7.6353 20
72 1 -10.1394 -5.58742 -4.59774 24
73 1 -8.2869 -8.51591 -5.11591 20
74 1 -7.63009 -10.2652 -2.29075 20
75 1 -10.0572 -7.72567 -2.28421 21
76 1 -9.16094 -2.0438 -15.1313 12
77 1 -10.9579 -2.75979 -12.1527 14
78 1 -12.5937 0.290948 -13.712 12
79 1 -10.3493 -0.17873 -10.139 20
80 1 -8.79899 -2.84489 -10.2375 18
81 1 -8.8654 -4.73319 -7.90126 20
82 1 -10.5344 -1.82231 -7.29242 23
83 1 -10.1285 0.164815 -4.7095 22
84 1 -8.80833 -2.75548 -4.77254 22
85 1 -8.61501 -4.73685 -2.13501 21
86 1 -10.0889 -1.64662 -2.08686 22
87 1 0.950949 -13.3752 -12.6936 12
88 1 -3.33622 -15.9243 -7.47583 16
89 1 -6.38547 -11.585 -4.87507 23
90 1 -4.62109 -14.5614 -4.92365 19
91 1 -4.45858 -16.2815 -3.31473 14
92 1 -6.36947 -13.349 -2.48978 17
93 1 -13.283 -5.20091 -11.7559 11
94 1 -6.96552 -11.52 -10.4126 16
95 1 -6.82763 -7.56304 -13.0382 13
96 1 -6.92291 -5.73356 -10.2618 20
97 1 -5.4341 -8.67043 -10.1592 24
98 1 -5.1729 -10.5596 -7.10281 25
99 1 -7.0718 -7.85718 -7.51417 21
100 1 -6.59928 -5.30438 -4.76864 23
101 1 -5.14874 -8.51741 -5.10156 21
102 1 -4.64447 -10.3627 -2.79938 24
103 1 -6.54489 -7.48675 -2.57774 22
104 1 -8.73159 0.790003 -12.9877 20
105 1 -4.69191 -2.25739 -15.3487 17
106 1 -5.04149 -4.44304 -12.7304 22
107 1 -6.89734 -1.85624 -12.5872 22
108 1 -6.89797 -0.0566695 -10.0953 23
109 1 -5.23537 -3.05688 -10.1791 20
110 1 -5.5454 -4.66689 -7.41502 23
111 1 -7.09845 -1.87454 -7.2249 23
112 1 -6.99524 0.0655253 -4.56472 23
113 1 -5.30178 -2.69307 -4.74982 24
114 1 -5.26262 -4.6569 -2.28001 23
115 1 -6.89897 -1.7821 -1.90846 22
116 1 -3.26633 -11.5293 -9.72696 20
117 1 -1.50172 -14.1122 -10.3396 17
118 1 0.680509 -16.252 -7.37835 19
119 1 -3.00704 -12.9438 -7.38353 21
120 1 -2.87161 -11.4413 -4.9554 24
121 1 -1.59929 -14.4533 -5.05201 23
122 1 -0.181438 -17.0426 -4.09702 15
123 1 -3.09445 -13.0844 -2.81987 20
124 1 -3.33411 -5.2454 -15.08 14
125 1 -6.80806 -4.42056 -14.8981 11
126 1 -1.72426 -10.9223 -12.7129 15
127 1 -3.70722 -7.63737 -12.5438 19
128 1 -3.52167 -5.68046 -10.2111 25
129 1 -2.09817 -8.70758 -10.3242 23
130 1 -1.68073 -10.3081 -7.5715 21
131 1 -3.88327 -7.61915 -7.38312 23
132 1 -3.52962 -5.63827 -4.90331 23
133 1 -1.97796 -8.69316 -4.70346 23
134 1 -1.11392 -10.3518 -2.29513 22
135 1 -3.55796 -7.57004 -2.05793 24
136 1 -3.49312 0.367868 -15.8592 15
137 1 -1.4768 -2.3838 -16.2338 17
138 1 -1.47407 -5.12118 -12.8556 20
139 1 -2.95154 -1.78117 -12.883 22
140 1 -3.60611 -0.126605 -9.993 21
141 1 -1.77146 -3.14699 -10.4551 23
142 1 -1.75934 -4.93938 -7.41665 23
143 1 -3.49157 -1.99838 -7.38543 22
144 1 -3.85987 0.0469375 -4.72283 22
145 1 -1.91785 -2.63191 -4.98793 21
146 1 -1.48281 -4.87648 -2.14252 23
147 1 -3.65485 -2.09004 -2.18988 22
148 2 -14.924 -3.09116 -2.59827 17
149 2 -15.2273 -6.51538 -7.62345 13
150 2 -12.436 -8.20853 -7.59255 15
151 2 -13.5597 -1.37801 -13.4901 10
152 2 -16.6588 -0.389418 -7.78728 14
153 2 -16.4693 1.72898 -10.2224 9
154 2 -13.8701 -8.23099 -0.0179252 12
155 2 -15.3554 -4.76254 -5.17673 17
156 2 -16.4284 -1.7717 -5.27948 15
157 2 -13.9617 -5.99932 -2.22857 15
158 2 -11.5611 -10.2706 -5.67972 14
159 2 -7.95137 -14.7501 -8.05274 11
160 2 -8.75727 -10.4479 -10.6419 13
161 2 -13.5652 0.0268485 -7.19794 20
162 2 -10.3505 -13.6614 -9.23154 8
163 2 -11.0523 -10.2511 -0.200237 16
164 2 -11.1991 -12.1635 -3.07039 11
165 2 -13.0761 -7.41289 -5.1835 17
166 2 -11.8558 -8.69362 -2.68921 16
167 2 -11.5728 -4.6789 -11.7464 13
168 2 -14.9758 -1.41872 -10.8725 11
169 2 -14.5522 -4.54192 -10.5601 11
170 2 -12.0639 -5.11252 -4.48551 20
171 2 -13.5815 -1.9469 -4.95018 22
172 2 -12.23 0.985141 -10.5713 16
173 2 -11.9939 -3.33536 -7.07772 17
174 2 -12.0423 -4.77649 0.103324 20
175 2 -13.6083 -1.61341 -0.25926 21
176 2 -12.8259 0.169428 -2.93871 21
177 2 -11.9034 -2.82865 -2.68889 24
178 2 -4.44221 -14.2355 -7.99109 18
179 2 -11.7053 -10.4795 -9.09826 12
180 2 -9.50998 -13.2673 0.434891 14
181 2 -9.78524 -13.3831 -5.60867 14
182 2 -8.50293 -13.4527 -2.87527 14
183 2 -3.141 -13.261 -10.6527 14
184 2 -16.5784 -3.74141 -7.87068 12
185 2 -10.7022 -7.22138 -10.0885 15
186 2 -13.7585 -6.86868 -10.7101 9
187 2 -7.10112 -9.95608 -5.91373 18
188 2 -9.96506 -7.64451 -5.16176 19
189 2 -10.7156 -5.53185 -7.42136 19
190 2 -8.68145 -8.87632 -8.34753 19
191 2 -8.03205 -10.289 -0.396619 20
192 2 -10.0099 -7.10457 -0.306091 20
193 2 -10.2313 -5.8861 -2.61817 19
194 2 -8.26104 -8.84583 -3.1078 20
195 2 -8.96632 -4.76583 -9.94427 16
196 2 -10.9995 -2.23161 -10.2931 16
197 2 -13.7412 -2.34963 -8.8572 17
198 2 -10.6272 -2.26834 -13.886 14
199 2 -8.36952 -4.77108 -5.47157 22
200 2 -10.3566 -1.802 -5.33599 24
201 2 -10.3254 0.0519678 -7.85951 20
202 2 -8.82585 -2.68149 -8.14199 22
203 2 -8.56598 -4.3567 -0.337104 23
204 2 -10.4364 -1.70743 -0.0580397 23
205 2 -9.91891 0.352953 -2.73525 23
206 2 -8.53778 -2.58567 -2.76625 24
207 2 -4.39696 -16.4872 -5.28398 14
208 2 -6.52893 -13.8007 -5.20378 19
209 2 -6.69489 -11.9909 -7.66356 20
210 2 -1.43149 -12.9169 -8.74343 19
211 2 -3.58719 -17.8073 -2.45043 8
212 2 -6.87714 -13.5184 -0.351306 18
213 2 -6.23197 -11.3785 -2.88711 21
214 2 -4.77843 -14.4659 -2.84943 19
215 2 2.4455 -13.7622 -11.7267 15
216 2 -7.40798 -7.49286 -11.0498 17
217 2 -6.68323 -5.69295 -13.3822 14
218 2 -5.74198 -8.96502 -12.984 11
219 2 -4.56649 -10.8746 -5.19712 21
220 2 -6.82536 -7.3794 -4.80803 20
221 2 -6.89086 -6.12849 -8.2245 22
222 2 -5.42866 -8.43553 -8.25021 22
223 2 -4.95742 -10.3048 -0.223691 20
224 2 -6.42972 -7.42548 0.074299 21
225 2 -7.12299 -5.67148 -2.8637 22
226 2 -4.87319 -8.57091 -3.25743 25
227 2 -5.3449 -4.85604 -10.9267 22
228 2 -6.84389 -2.20441 -10.7061 19
229 2 -8.78895 -0.146134 -15.662 11
230 2 -4.99746 -2.57605 -13.2969 20
231 2 -5.07343 -4.51919 -5.60162 22
232 2 -7.04278 -1.93963 -5.31596 23
233 2 -7.00887 -0.166876 -7.99849 22
234 2 -5.19325 -2.8402 -7.98424 21
235 2 -5.57217 -4.63738 -0.236696 24
236 2 -6.78065 -1.93291 0.06543 23
237 2 -6.6504 0.215588 -2.79978 24
238 2 -5.51424 -2.93716 -2.60193 20
239 2 -6.73722 -13.5501 -10.5421 11
240 2 -5.19153 -10.8333 -10.9789 19
241 2 -2.71819 -17.8422 -7.18978 8
242 2 -3.28796 -13.6956 -5.81659 24
243 2 -3.55603 -10.9962 -7.85993 21
244 2 -1.45251 -15.3483 -7.32095 19
245 2 -1.28383 -16.3168 -0.25539 13
246 2 -3.12815 -13.1192 -0.85355 22
247 2 -2.85447 -11.1686 -3.085 22
248 2 -1.48266 -13.6661 -3.16284 21
249 2 -1.76521 -10.6454 -10.4939 19
250 2 -3.76577 -7.47351 -10.484 20
251 2 -3.5238 -5.67269 -13.2606 19
252 2 -5.09393 -4.32133 -15.6167 10
253 2 -1.44768 -10.5527 -5.68837 24
254 2 -3.5442 -7.58866 -5.45193 25
255 2 -4.04823 -5.62836 -8.42166 23
256 2 -2.00088 -8.30485 -7.89028 21
257 2 -1.44323 -10.2067 -0.389674 24
258 2 -3.39148 -7.68522 -0.209284 22
259 2 -3.60105 -5.61474 -2.62418 22
260 2 -2.03943 -8.40608 -2.67197 22
261 2 -1.82993 -5.31636 -10.7361 21
262 2 -3.7667 -2.04107 -10.7863 22
263 2 -3.37765 -0.0283929 -13.7505 23
264 2 -1.6124 -3.10028 -12.5711 23
265 2 -1.85054 -4.70263 -5.42694 20
266 2 -3.73114 -1.82565 -5.3367 22
267 2 -3.09104 -0.221223 -8.12264 22
268 2 -1.36124 -3.09779 -8.45488 21
269 2 -1.93957 -4.90441 -0.264491 22
270 2 -3.50727 -1.92309 -0.343907 23
271 2 -3.12467 -0.373431 -2.83274 21
272 2 -1.49302 -3.08965 -2.87027 21
273 1 -15.45 -4.68656 -1.92372 13
274 1 -12.1072 -8.76635 0.65575 17
275 1 -11.539 -10.32 7.02241 15
276 1 -16.8698 0.408 -0.667397 10
277 1 -15.2801 -2.62167 0.202655 16
278 1 -13.8567 -5.21401 5.73887 17
279 1 -16.9463 -0.918905 2.42377 12
280 1 -17.3619 1.40588 5.23952 9
281 1 -15.212 -4.51745 2.51637 14
282 1 -15.2784 -4.59732 8.25758 9
283 1 -11.5576 -8.37013 5.57651 20
284 1 -13.7537 -6.19846 0.378188 17
285 1 -11.8331 -10.6371 -2.25064 12
286 1 -11.7703 -10.7838 3.29969 15
287 1 -13.2557 -7.55314 3.50302 17
288 1 -15.3321 -2.64975 5.0392 14
289 1 -10.6892 -14.0661 6.95083 9
290 1 -8.50504 -10.5515 7.40626 19
291 1 -12.8469 -7.25524 7.51316 14
292 1 -13.781 -1.20895 12.7045 7
293 1 -8.62316 -9.01354 10.5688 17
294 1 -13.7716 0.120672 0.433837 22
295 1 -12.0418 -2.77742 0.459539 24
296 1 -11.6952 -4.8805 3.19905 22
297 1 -13.3679 -1.67792 3.12488 20
298 1 -13.4503 -0.0902367 5.90293 21
299 1 -11.9122 -2.69273 5.75353 25
300 1 -11.8184 -4.72574 8.54851 20
301 1 -13.6917 -1.80423 8.16117 18
302 1 -13.5275 0.967794 11.3482 15
303 1 -11.816 -2.42703 10.974 16
304 1 -10.0391 -11.5703 0.489197 20
305 1 -8.20385 -14.4773 0.777953 13
306 1 -10.175 -13.3807 3.4064 14
307 1 -4.59679 -14.3238 5.56762 17
308 1 -9.83883 -11.8092 9.65086 10
309 1 -10.0827 -5.40375 0.430773 22
310 1 -8.59659 -8.52739 0.303561 20
311 1 -8.34585 -10.398 2.7537 21
312 1 -10.1204 -7.5908 2.69853 19
313 1 -9.79965 -5.70034 5.83512 25
314 1 -8.44341 -8.49638 5.54532 23
315 1 -8.05363 -14.582 8.73293 10
316 1 -9.90235 -7.44924 8.56646 22
317 1 -10.4284 -5.14891 11.0625 17
318 1 -10.3011 -7.69429 12.4585 11
319 1 -10.0869 0.150479 0.772037 23
320 1 -8.46348 -2.71322 0.492329 23
321 1 -8.51834 -4.67294 2.70621 22
322 1 -10.26 -1.92556 3.60247 24
323 1 -10.2547 0.0792511 5.98858 23
324 1 -8.50373 -2.64751 5.93406 24
325 1 -8.40744 -4.84347 8.59306 24
326 1 -10.2577 -2.09079 8.51454 23
327 1 -9.98507 -0.0968641 10.3203 19
328 1 -8.26093 -2.87066 11.26 21
329 1 -8.79055 -4.956 13.5322 13
330 1 -10.2904 -1.74604 13.6022 14
331 1 -6.60449 -11.5948 0.203867 21
332 1 -4.76987 -14.3148 -0.0654934 18
333 1 -4.69141 -16.1803 2.76147 12
334 1 -6.424 -13.4196 2.68454 21
335 1 -6.64411 -11.4176 5.09286 17
336 1 -4.12508 -16.8858 6.54886 9
337 1 0.883471 -16.1605 7.44384 10
338 1 -6.63342 -11.926 10.4208 14
339 1 -7.15056 -5.7239 0.274868 22
340 1 -5.04999 -8.44799 0.620677 25
341 1 -5.06279 -10.4635 2.71015 22
342 1 -6.77383 -7.38763 2.95747 23
343 1 -6.90197 -5.40524 5.68022 21
344 1 -5.05844 -8.5297 5.36412 22
345 1 -5.15046 -10.5165 7.90596 23
346 1 -7.23104 -7.75191 7.87253 22
347 1 -6.97736 -6.24228 10.8855 24
348 1 -5.31466 -8.61906 10.3549 20
349 1 4.60956 -9.52856 15.2692 9
350 1 -7.08437 -7.68388 13.6851 13
351 1 -6.83445 0.400578 0.712322 23
352 1 -5.23375 -2.79592 0.676492 23
353 1 -4.94628 -4.8867 3.21933 23
354 1 -7.01804 -2.0813 3.26735 22
355 1 -6.63836 0.269666 5.8168 22
356 1 -5.28776 -2.79507 5.7931 22
357 1 -5.24554 -4.93471 8.43965 23
358 1 -6.97617 -1.88778 8.38497 23
359 1 -7.06845 -0.222365 11.1081 20
360 1 -5.23089 -3.01508 11.0463 21
361 1 -5.17306 -5.35491 13.6968 14
362 1 -6.89959 -1.97603 13.8836 18
363 1 -3.14931 -11.3113 0.0676357 23
364 1 -1.64646 -14.1589 -0.117294 21
365 1 -7.77075 -14.546 4.92393 11
366 1 -3.30393 -13.4604 2.76808 23
367 1 -3.41059 -11.5448 5.45777 20
368 1 -1.51906 -14.9117 5.4421 20
369 1 -4.66331 -13.8892 8.94098 12
370 1 -3.51734 -11.5656 9.75281 15
371 1 -1.52769 -14.3624 10.1179 9
372 1 -3.69238 -5.51977 0.432679 22
373 1 -1.76941 -8.42126 0.386592 22
374 1 -1.58206 -10.5402 3.01748 22
375 1 -3.43183 -7.73198 2.97403 22
376 1 -3.67137 -5.61506 5.8213 24
377 1 -1.76512 -8.67849 5.5401 24
378 1 -1.59305 -10.4981 8.42777 23
379 1 -3.45774 -7.6566 8.01407 19
380 1 -3.51831 -5.89917 10.9938 21
381 1 -1.78202 -8.49465 10.6562 21
382 1 1.62766 -13.5387 11.2205 9
383 1 -3.50008 -8.55816 12.6103 13
384 1 -3.59689 0.238679 0.294557 21
385 1 -1.86782 -2.69322 0.262376 19
386 1 -1.73496 -4.66912 2.96531 23
387 1 -3.14661 -2.07417 3.39118 24
388 1 -3.45057 -0.0485915 5.62563 24
389 1 -1.73604 -2.89244 5.75956 25
390 1 -1.83407 -4.61119 8.53459 23
391 1 -3.71717 -1.90601 8.58203 22
392 1 -3.56469 -0.0745221 11.21 20
393 1 -1.58348 -2.95198 11.0627 21
394 1 -1.90783 -5.14376 13.3961 19
395 1 -3.33298 -2.06996 13.1744 17
396 2 -15.2747 -2.59401 2.72391 16
397 2 -12.358 -9.14593 2.55789 15
398 2 -15.0358 -4.40636 4.47401 16
399 2 -16.9121 0.283562 3.65503 11
400 2 -16.6514 -1.17311 0.490496 12
401 2 -13.7343 -5.73201 2.69657 15
402 2 -15.2378 -3.02492 7.24948 11
403 2 -11.731 -10.3245 5.15035 16
404 2 -10.2508 -10.9678 8.07118 15
405 2 -13.2115 -7.50978 5.42692 15
406 2 -15.1379 -4.4923 0.0586166 15
407 2 -8.28151 -14.7611 6.8147 10
408 2 -13.3389 -5.47344 7.66619 16
409 2 -11.5461 -8.54113 7.557 16
410 2 -11.8447 -4.58232 5.42947 22
411 2 -13.5911 -1.89751 5.10287 21
412 2 -13.4819 0.158625 2.43992 23
413 2 -11.9268 -2.94589 2.62075 21
414 2 -11.9612 -4.23302 10.6887 15
415 2 -13.7917 -0.933055 10.5872 14
416 2 -13.8162 0.203897 7.79357 20
417 2 -11.9308 -2.70188 7.64448 23
418 2 -12.0694 -2.13794 13.0268 13
419 2 -10.6958 -13.729 5.1277 10
420 2 -10.0973 -11.5372 2.7203 16
421 2 -8.35717 -14.1905 2.98643 15
422 2 -6.51201 -13.8146 9.5153 13
423 2 -8.3035 -10.3407 4.86127 23
424 2 -9.96722 -7.52558 4.59525 24
425 2 -10.0751 -5.77565 2.25811 22
426 2 -8.4616 -8.45546 2.39598 23
427 2 -8.20959 -11.0674 9.72372 16
428 2 -10.2351 -7.34147 10.4433 17
429 2 -10.3509 -5.53082 7.88348 23
430 2 -9.13442 -8.36567 7.38545 23
431 2 -10.2955 -5.94411 12.995 11
432 2 -8.59179 -8.53253 12.5917 12
433 2 -8.66531 -4.22813 5.0099 22
434 2 -10.1378 -1.67204 5.52144 21
435 2 -10.1648 0.00336731 2.54899 22
436 2 -8.71492 -2.76184 2.333 23
437 2 -8.66475 -4.56604 10.4435 24
438 2 -9.82126 -1.88182 10.6553 21
439 2 -10.2011 -0.146998 8.05644 23
440 2 -8.53956 -2.95402 7.87502 24
441 2 -10.2213 0.00797022 14.4127 11
442 2 -8.47639 -3.00218 13.2638 17
443 2 -4.57232 -16.0255 4.61048 15
444 2 -6.33561 -13.4161 4.63613 18
445 2 -6.93368 -11.4348 2.36373 23
446 2 -4.95918 -14.3917 1.8535 20
447 2 -9.77227 -13.7077 8.90503 10
448 2 -6.73573 -10.9496 7.04039 18
449 2 -4.43728 -15.1696 7.3426 13
450 2 -4.93 -10.3836 4.73909 24
451 2 -6.8471 -7.22456 5.0236 21
452 2 -6.71775 -5.48929 2.47021 23
453 2 -5.15304 -8.46816 2.63675 20
454 2 -5.06032 -10.684 10.127 19
455 2 -7.17202 -7.93816 10.022 22
456 2 -6.87083 -5.82868 7.86616 23
457 2 -5.38764 -8.48869 7.86339 21
458 2 -7.05349 -5.84598 13.6576 14
459 2 -5.35538 -8.37348 12.5607 15
460 2 -5.24798 -4.64253 5.08263 23
461 2 -6.90249 -1.56823 5.18398 23
462 2 -6.82193 -0.13126 2.62814 22
463 2 -5.22265 -2.61106 2.72121 21
464 2 -5.42647 -4.95195 10.5901 21
465 2 -6.86542 -1.96574 10.1793 25
466 2 -6.80637 0.120103 7.77879 24
467 2 -5.21079 -2.89197 7.7939 25
468 2 -3.19884 -2.94854 16.4455 12
469 2 -4.64574 -0.288962 17.4639 9
470 2 -7.05452 -0.237608 12.9894 22
471 2 -4.65237 -3.5056 13.0177 18
472 2 -2.32631 -16.8374 6.15212 11
473 2 -2.98324 -13.748 4.55484 22
474 2 -3.21455 -11.4833 2.17447 26
475 2 -1.78313 -14.606 1.71613 22
476 2 -2.98657 -13.1586 9.56464 15
477 2 -3.35751 -11.2824 7.36423 22
478 2 0.0782628 -16.1133 5.59807 13
479 2 -1.54465 -8.79744 12.5574 17
480 2 -1.87347 -10.5015 5.04303 21
481 2 -3.42052 -7.47959 5.22298 21
482 2 -3.24203 -5.84282 2.46038 23
483 2 -1.88561 -8.7717 2.27075 23
484 2 -2.14326 -10.5383 10.5093 18
485 2 -3.5356 -7.76366 10.0844 23
486 2 -3.14077 -5.68926 7.6427 22
487 2 -1.71925 -8.4878 7.71274 23
488 2 2.04072 -11.9875 12.5613 11
489 2 -3.44057 -6.31914 13.0446 17
490 2 -0.247608 -13.1063 10.911 14
491 2 -2.18431 -4.81207 5.20404 22
492 2 -3.4827 -1.98956 5.36284 22
493 2 -3.57389 -0.0127657 2.28487 22
494 2 -1.91565 -2.93602 2.16395 23
495 2 -1.67241 -5.03578 10.536 19
496 2 -3.59997 -2.03144 11.1716 19
497 2 -3.49622 -0.182841 7.70497 22
498 2 -1.83313 -2.65608 8.38864 18
499 2 -0.940108 -4.78113 15.0137 15
500 2 -3.88117 2.60001 17.7212 9
501 2 -3.52906 0.31259 13.289 20
502 2 -1.46815 -3.01393 13.0133 22
503 1 -15.6075 6.12006 -6.97059 15
504 1 -15.289 0.780377 -7.05608 20
505 1 -17.3438 6.05594 -4.00178 10
506 1 -15.289 3.00833 -4.63971 17
507 1 -15.1808 1.385 -2.41124 15
508 1 -17.2332 5.82805 -0.0305961 10
509 1 -12.4401 10.9106 -7.13362 10
510 1 -15.6929 9.14824 -4.00043 10
511 1 -14.9957 6.81545 -1.77463 18
512 1 -16.3923 0.00301508 -9.99224 12
513 1 -17.4452 3.84258 -6.9923 11
514 1 -12.2639 2.88298 -10.1248 17
515 1 -12.0648 1.28221 -7.26823 20
516 1 -13.5152 3.86063 -7.36775 22
517 1 -13.798 6.41495 -4.66154 21
518 1 -11.7857 2.87334 -4.37011 24
519 1 -11.8252 0.900977 -1.68215 23
520 1 -13.2502 4.14106 -2.23865 19
521 1 -10.7075 3.05526 -12.3984 14
522 1 -11.9125 7.07177 -7.25309 19
523 1 -13.3005 5.89291 -9.95887 14
524 1 -13.4405 9.94567 -2.15731 15
525 1 -11.9702 8.80555 -4.51157 22
526 1 -11.6486 6.92851 -1.96792 23
527 1 -11.6283 12.4492 -1.70051 11
528 1 -13.9503 11.6612 -4.3962 10
529 1 -6.94489 -0.12433 -15.4053 15
530 1 -10.4293 0.47937 -16.2508 9
531 1 -11.6984 8.19272 -11.7601 7
532 1 -10.2458 5.54651 -10.1073 21
533 1 -8.55785 2.45328 -9.89223 23
534 1 -8.72992 0.88989 -7.16147 22
535 1 -10.5036 4.31523 -7.31809 23
536 1 -10.0853 6.19157 -4.55759 24
537 1 -8.64605 3.30158 -4.67255 24
538 1 -8.31976 1.39055 -1.78752 22
539 1 -9.95996 4.15669 -1.84121 25
540 1 -5.28973 2.61444 -15.4129 14
541 1 -8.44411 8.12241 -10.1755 19
542 1 -8.50912 6.79161 -7.34164 23
543 1 -9.94931 9.24199 -6.78341 19
544 1 -10.1511 11.9784 -5.37398 17
545 1 -8.05418 8.93618 -4.81142 23
546 1 -8.23646 6.95379 -2.06705 22
547 1 -10.1563 10.1026 -2.45591 20
548 1 -8.51558 12.2246 -7.88001 14
549 1 -7.71317 14.5822 -5.96945 12
550 1 -8.44801 12.4672 -2.03239 20
551 1 -8.46171 6.73855 -13.0427 13
552 1 -1.9207 3.25012 -16.3765 12
553 1 -4.93119 0.916605 -12.9945 23
554 1 -6.8411 3.63276 -12.7477 19
555 1 -6.90183 5.55772 -10.506 23
556 1 -5.23707 2.7792 -10.0754 19
557 1 -5.38983 1.00563 -7.155 23
558 1 -6.98538 3.98364 -7.55162 19
559 1 -6.56201 5.78062 -4.59021 22
560 1 -5.064 3.1165 -4.92599 21
561 1 -5.11999 1.1826 -2.14138 22
562 1 -6.4561 4.00833 -2.13723 20
563 1 -5.47014 6.82077 -13.2536 17
564 1 -6.40588 9.52867 -13.6329 12
565 1 -7.0305 11.3015 -10.7729 16
566 1 -5.33257 8.36821 -10.2073 21
567 1 -5.22002 6.37346 -7.40899 23
568 1 -6.46968 9.56846 -7.7288 24
569 1 -6.59542 11.5648 -5.01897 19
570 1 -4.99781 8.69625 -4.90288 20
571 1 -4.89342 6.52722 -2.09794 20
572 1 -6.51508 9.6607 -2.32672 23
573 1 -4.37585 12.782 -6.64819 23
574 1 -5.98586 13.9711 -9.15757 12
575 1 -5.20522 14.4875 -4.41892 18
576 1 -5.39296 12.855 -1.6923 23
577 1 -6.88282 15.7503 -2.36373 9
578 1 -3.53314 5.5075 -15.3095 16
579 1 -0.293194 6.2687 -15.4534 17
580 1 -1.93498 0.967538 -12.7859 19
581 1 -3.71737 3.73598 -13.2796 22
582 1 -3.41346 5.79767 -10.226 22
583 1 -1.84006 2.81259 -9.88172 23
584 1 -1.34875 0.919769 -7.58041 20
585 1 -3.31915 3.98558 -7.49395 23
586 1 -3.27788 5.92282 -4.74737 23
587 1 -1.71306 2.80076 -4.54064 25
588 1 -1.69953 0.62569 -2.06717 22
589 1 -3.10098 3.99664 -1.93368 21
590 1 1.78795 9.03196 -15.3421 11
591 1 -1.85087 6.61589 -12.5863 22
592 1 -3.66485 10.0017 -12.4042 19
593 1 -3.5766 11.5095 -9.75511 25
594 1 -1.86512 8.26303 -10.0331 23
595 1 -1.64347 6.68856 -7.34599 26
596 1 -3.37096 9.52818 -7.67394 22
597 1 -3.5878 11.1277 -4.45946 22
598 1 -1.66469 8.71605 -4.56595 23
599 1 -1.51697 6.62046 -2.00368 22
600 1 -3.60409 9.48386 -1.63841 23
601 1 -1.87103 13.1291 -12.3647 11
602 1 -4.99372 12.7217 -12.2962 12
603 1 -1.50921 12.2933 -7.02906 24
604 1 -3.48555 15.7343 -6.69214 12
605 1 -2.89046 14.1532 -9.43377 15
606 1 -2.09759 13.8973 -4.46404 22
607 1 -2.03963 12.7566 -1.73641 23
608 1 -3.37187 15.8655 -1.95402 14
609 2 -15.4834 1.22863 -4.99309 16
610 2 -17.1732 5.03036 -5.72088 10
611 2 -13.6373 6.26124 -7.68964 17
612 2 -15.1041 1.392 -0.357425 19
613 2 -16.6013 4.2997 0.633722 14
614 2 -17.0022 5.81091 -2.09385 10
615 2 -14.5622 3.09028 -2.898 18
616 2 -15.0228 8.84625 -2.10568 16
617 2 -15.8286 7.20897 -0.0467221 13
618 2 -13.7144 9.67583 -4.31873 14
619 2 -16.3275 5.0308 -8.37619 10
620 2 -8.38491 2.69444 -12.5714 15
621 2 -15.3549 2.85955 -7.67198 19
622 2 -11.6885 1.25798 -5.43128 23
623 2 -13.6278 3.74287 -5.39554 22
624 2 -13.7559 4.10924 -9.73974 14
625 2 -11.8833 3.23062 -8.06499 21
626 2 -11.7169 1.13951 0.455039 20
627 2 -13.4419 4.32005 -0.0268977 20
628 2 -13.3493 5.93142 -2.71017 21
629 2 -11.6836 2.87689 -2.36896 21
630 2 -15.615 7.11836 -4.65599 13
631 2 -11.8208 6.73828 -5.08432 20
632 2 -11.9135 9.04022 -7.43318 13
633 2 -11.7624 6.57649 -10.9103 14
634 2 -11.6386 6.94238 0.237208 21
635 2 -13.4752 9.86566 0.820552 15
636 2 -13.2468 11.8843 -2.64017 12
637 2 -11.5732 8.89624 -2.7071 20
638 2 -9.91544 9.84674 -4.73338 20
639 2 -11.4315 12.5232 0.369627 13
640 2 -8.71353 0.586438 -10.866 20
641 2 -10.1404 3.61008 -10.6225 21
642 2 -7.31181 8.28242 -12.7317 14
643 2 -11.8377 -0.583051 -15.4355 8
644 2 -8.51578 1.20709 -5.28517 22
645 2 -10.3163 4.37229 -5.05312 20
646 2 -10.3664 6.09303 -7.90166 21
647 2 -8.69969 2.97181 -7.84804 21
648 2 -8.46105 1.34023 0.08772 20
649 2 -10.3109 4.27386 0.138077 21
650 2 -10.0738 5.79799 -2.64743 20
651 2 -8.39173 3.23604 -2.65177 23
652 2 -8.81729 6.0995 -11.1604 19
653 2 -6.93146 5.64915 -13.5682 16
654 2 -10.0221 8.96907 -11.3118 10
655 2 -8.39362 6.73893 -5.29701 23
656 2 -12.3561 12.3751 -5.799 10
657 2 -8.14213 12.5588 -5.77877 19
658 2 -8.46296 8.54734 -7.95364 19
659 2 -8.64512 7.22657 -0.106892 21
660 2 -10.4489 9.9372 0.00963002 22
661 2 -10.1296 12.135 -2.83957 15
662 2 -8.53107 8.94173 -2.59557 21
663 2 -4.37431 14.4329 -7.88073 15
664 2 -7.72798 12.4907 0.0112975 19
665 2 -7.13231 15.0429 -4.13056 13
666 2 -5.10973 0.795836 -10.3426 21
667 2 -6.73496 3.85018 -10.7716 21
668 2 -3.70205 3.72223 -15.8505 12
669 2 -5.24889 2.64045 -13.4226 21
670 2 -5.27326 1.20881 -5.10861 20
671 2 -6.68742 4.17879 -5.47146 22
672 2 -6.89956 5.79279 -8.09118 23
673 2 -5.41657 2.96117 -7.94171 22
674 2 -5.32882 1.43824 0.0288146 20
675 2 -6.72595 4.2016 -0.111056 24
676 2 -6.74201 5.91129 -2.59118 22
677 2 -4.85992 3.16409 -2.47627 23
678 2 -5.1291 6.74822 -11.1241 26
679 2 -7.05933 9.64424 -9.55532 16
680 2 -4.74667 8.65889 -13.8053 16
681 2 -5.03703 6.78713 -5.24304 23
682 2 -6.41586 9.67682 -5.72797 24
683 2 -9.97655 11.1173 -7.15028 12
684 2 -4.98642 8.17619 -8.29183 23
685 2 -4.9532 7.06068 0.126409 21
686 2 -6.26851 10.1745 -0.450848 22
687 2 -6.81025 11.7939 -3.02508 21
688 2 -4.79829 8.51796 -2.84682 24
689 2 -6.36588 11.3566 -12.7291 10
690 2 -4.86168 12.4536 -4.80057 19
691 2 -3.61492 14.9531 -5.0986 15
692 2 -7.33838 12.3372 -9.32241 13
693 2 -4.71327 12.8035 0.227506 23
694 2 -7.41904 15.4258 -0.745012 10
695 2 -4.92021 14.9332 -2.47987 16
696 2 -2.09664 0.735369 -10.8116 21
697 2 -3.60707 3.75517 -10.3032 19
698 2 -3.6575 5.5602 -13.4931 20
699 2 -1.9373 2.90521 -12.8256 21
700 2 -2.33874 1.04223 -5.47345 21
701 2 -3.1627 4.10544 -5.25543 21
702 2 -3.34076 5.82216 -7.99449 21
703 2 -1.55996 2.74495 -7.93772 20
704 2 -1.87404 1.29212 -0.105171 22
705 2 -3.20517 4.08412 0.236284 22
706 2 -3.16203 5.84588 -2.63158 24
707 2 -1.71761 2.66049 -2.67994 21
708 2 -1.6342 6.50894 -10.6333 21
709 2 -3.48753 9.82449 -10.3687 22
710 2 -3.28555 11.8202 -12.5495 13
711 2 -1.80557 8.59476 -12.9709 16
712 2 -1.65796 6.90561 -5.3237 22
713 2 -3.39424 9.39254 -5.48704 25
714 2 -3.26898 11.4297 -7.49819 19
715 2 -1.76573 8.60222 -8.04033 21
716 2 -1.36889 7.14739 -0.060983 22
717 2 -3.2559 9.7796 0.419729 20
718 2 -3.4745 11.5799 -2.21269 21
719 2 -1.01217 8.47679 -2.75166 21
720 2 -4.6418 12.9379 -10.1686 16
721 2 -1.71775 12.1732 -5.20888 24
722 2 -0.51671 12.3848 -13.0888 10
723 2 -1.86922 14.3402 -7.57924 17
724 2 -1.53574 12.9386 0.0365323 22
725 2 -3.18406 14.9146 -0.0392376 16
726 2 -7.01608 14.8333 -7.71424 11
727 2 -1.93489 14.8457 -2.72551 19
728 1 -16.8888 3.81809 2.37434 14
729 1 -15.1395 3.11652 0.297601 17
730 1 -14.9792 1.33907 3.55642 20
731 1 -16.6791 5.42906 5.34492 11
732 1 -14.8897 3.20736 5.64059 19
733 1 -15.2541 1.51109 8.29305 13
734 1 -15.1771 8.54813 1.04217 13
735 1 -15.3034 6.70931 2.99481 18
736 1 -14.2285 8.37626 6.24884 16
737 1 -13.2002 6.05199 0.589366 23
738 1 -11.9454 3.14255 0.671266 24
739 1 -11.7954 1.09654 3.19138 23
740 1 -13.7257 4.13022 3.33526 24
741 1 -13.296 6.01347 6.08114 22
742 1 -11.5376 2.87978 6.15985 23
743 1 -12.1911 0.853034 8.43825 21
744 1 -13.6182 3.86681 8.9697 18
745 1 -14.3853 7.13844 9.08416 11
746 1 -11.2002 2.62254 11.1604 18
747 1 -11.7964 1.37027 14.4629 10
748 1 -11.9124 12.4204 2.29596 12
749 1 -11.838 8.92848 0.457072 21
750 1 -11.9237 7.11405 3.02841 20
751 1 -13.4084 9.84934 3.07498 15
752 1 -11.2699 8.97894 5.98322 22
753 1 -11.4397 7.16825 8.51962 22
754 1 -13.0881 10.5229 8.04099 16
755 1 -13.0512 11.9021 5.58186 11
756 1 -9.85905 6.17397 0.798383 24
757 1 -8.77267 3.25874 0.640595 22
758 1 -8.70327 1.24909 3.24578 22
759 1 -9.91116 4.05193 3.28839 22
760 1 -9.55348 6.107 6.21685 22
761 1 -8.20796 3.06255 5.97018 20
762 1 -8.42497 1.03399 8.48369 21
763 1 -10.0087 4.21644 8.51886 20
764 1 -10.1252 5.79317 10.9906 17
765 1 -8.23089 2.91437 11.2824 22
766 1 -8.50574 0.944458 14.1539 16
767 1 -10.0914 3.88407 13.8765 12
768 1 -9.37088 11.621 0.734341 20
769 1 -8.40348 9.21189 0.294329 22
770 1 -8.57116 6.87592 3.17232 20
771 1 -9.84114 9.798 3.44425 23
772 1 -10.0961 12.046 6.38831 19
773 1 -8.02416 8.84614 6.08508 23
774 1 -8.03446 6.8824 9.21262 24
775 1 -9.667 10.2024 8.39004 22
776 1 -8.14812 9.11062 11.5194 18
777 1 -8.1501 6.71668 13.5124 13
778 1 -7.77022 14.3806 0.619503 15
779 1 -8.42523 12.4816 3.38745 19
780 1 -11.5399 13.447 8.55503 11
781 1 -11.2881 8.96227 11.0175 13
782 1 -6.80819 6.20985 0.394459 19
783 1 -5.05623 3.40328 0.549416 21
784 1 -5.11369 0.870791 2.90813 21
785 1 -6.74182 4.07008 3.20525 22
786 1 -6.47333 5.92029 6.02322 25
787 1 -5.09355 3.06179 5.55107 19
788 1 -5.30929 0.970573 8.63642 22
789 1 -6.611 3.80989 8.61238 23
790 1 -6.08788 5.78451 11.2225 20
791 1 -4.95166 2.63902 11.6373 23
792 1 -5.3042 0.561966 14.0714 19
793 1 -6.6949 3.82932 14.2513 17
794 1 -6.19633 11.4962 0.805475 23
795 1 -4.8701 9.01807 0.766031 24
796 1 -4.82814 6.96376 3.10637 21
797 1 -6.86194 9.56143 3.41052 24
798 1 -6.5124 11.9235 6.25878 22
799 1 -4.97744 8.91653 6.11959 20
800 1 -4.71535 6.97449 8.52815 21
801 1 -6.49237 9.95917 8.52672 21
802 1 -6.24051 11.9606 11.4252 14
803 1 -5.08932 8.66556 10.7292 21
804 1 -4.80165 6.37836 14.3481 17
805 1 -9.69627 11.809 10.8754 13
806 1 -4.7097 14.5896 1.04574 18
807 1 -5.50039 12.7897 3.79346 21
808 1 -7.4123 15.0534 4.17066 11
809 1 -4.41027 14.7616 6.44184 16
810 1 -7.99005 12.9531 8.54867 14
811 1 -3.17809 6.09287 0.268983 22
812 1 -1.46698 3.22574 0.654337 22
813 1 -2.03789 0.417629 3.20802 21
814 1 -3.43061 3.65113 3.25339 22
815 1 -3.5081 5.72688 5.90656 21
816 1 -1.65814 2.94366 5.66431 22
817 1 -1.91964 0.679047 8.05443 20
818 1 -2.98438 4.15963 8.264 20
819 1 -3.32516 5.78747 11.3428 23
820 1 -1.65635 2.74324 11.1395 22
821 1 -1.75536 0.739975 14.0464 21
822 1 -3.09736 3.43831 14.1853 22
823 1 -3.23219 11.815 0.874218 24
824 1 -1.45698 8.87986 0.87182 23
825 1 -1.91402 6.61124 3.16993 21
826 1 -3.68145 9.88722 3.71129 23
827 1 -2.90752 11.7051 6.23729 22
828 1 -1.70626 8.26467 6.18201 23
829 1 -1.52872 6.71899 8.76366 22
830 1 -3.31369 9.8909 8.7368 23
831 1 -3.39068 11.4568 11.6361 16
832 1 -1.4201 9.16724 11.2826 22
833 1 -3.21764 9.25936 14.2934 11
834 1 -5.97607 9.75399 13.7597 13
835 1 1.33916 14.4965 -10.2595 14
836 1 -1.51608 14.7475 0.855462 20
837 1 -1.68787 12.4448 3.50145 23
838 1 -1.70443 17.493 5.90516 10
839 1 -1.02952 14.0125 6.78726 22
840 1 -4.63811 12.9332 8.46639 17
841 1 -13.1967 11.9311 10.5832 8
842 1 -2.2906 15.7071 8.97239 10
843 2 -14.7842 1.18952 5.62412 19
844 2 -16.6375 3.40907 5.17322 14
845 2 -16.6038 5.26941 3.46262 13
846 2 -14.8353 2.92667 2.33432 21
847 2 -13.1771 0.693423 13.2384 11
848 2 -14.7146 3.12333 7.49556 18
849 2 -15.1582 6.50655 6.06653 16
850 2 -14.4544 8.30517 3.15378 16
851 2 -11.8893 1.08248 5.53632 23
852 2 -13.2318 4.31401 5.16679 23
853 2 -13.5238 5.76923 2.42937 20
854 2 -11.5454 3.10894 2.55967 23
855 2 -11.5482 0.900046 10.1184 20
856 2 -14.1337 2.19142 9.86479 11