ITEM: TIMESTEP
101000
ITEM: NUMBER OF ATOMS
5760
ITEM: BOX BOUNDS pp pp pp
-0.8740963294 33.6740963294
-0.0290226735 34.1690226735
1.6405095593 61.9594904407
ITEM: ATOMS id type x y z Coordination
1 1 21.7603 32.1249 61.3133 20
2 1 -0.021027 27.234 4.28045 22
3 1 13.3593 27.5214 60.3589 22
4 1 31.8229 9.76742 16.8592 24
5 1 33.5588 0.118976 5.2221 21
6 1 31.5537 11.5474 12.0128 20
7 1 20.0211 0.942601 7.89559 21
8 1 9.2727 33.5438 1.94492 21
9 1 1.189 8.78852 14.7595 25
10 1 2.3664 18.1105 15.3391 19
11 1 25.7297 32.332 12.2991 20
12 1 -0.149005 9.71937 22.4245 21
13 1 1.9763 9.01364 61.4746 26
14 1 12.8533 14.5895 6.71473 20
15 1 2.18826 12.0255 2.88135 21
16 1 2.30182 10.6775 57.8576 22
17 1 2.12678 8.77835 11.6298 20
18 1 21.6985 3.5849 22.7901 22
19 1 29.4847 8.60645 16.6908 23
20 1 17.5224 7.01076 23.7781 23
21 1 24.0674 33.0614 10.4827 22
22 1 6.00226 10.9035 58.1707 21
23 1 1.67596 0.112586 19.6629 22
24 1 24.4486 13.5214 26.2065 19
25 1 27.8183 17.9392 6.4673 22
26 1 -0.527604 5.78992 51.9354 19
27 1 10.5471 12.5471 10.2583 23
28 1 12.7625 18.6945 11.4994 22
29 1 21.8902 2.8278 11.8147 21
30 1 29.9681 29.7749 12.9532 23
31 1 5.6551 13.6877 2.54907 24
32 1 15.757 8.83129 20.2968 19
33 1 29.071 17.7117 17.036 21
34 1 2.4707 24.955 18.0123 18
35 1 24.5854 13.2698 57.4841 24
36 1 6.98452 7.82037 15.9055 22
37 1 8.49 16.2343 17.0551 19
38 1 26.1689 6.86168 20.6393 22
39 1 8.03498 8.03619 12.2633 23
40 1 32.27 29.7684 11.618 21
41 1 31.2859 11.2234 9.34573 20
42 1 2.38833 28.4425 3.88017 21
43 1 3.94835 5.8435 22.157 20
44 1 1.31867 1.92388 56.5364 22
45 1 28.5185 13.0347 12.9416 23
46 1 31.3397 15.6178 15.5613 20
47 1 2.89372 31.519 25.8789 18
48 1 33.5283 33.4455 22.1996 22
49 1 -0.248349 15.5856 19.4375 21
50 1 24.0082 12.6259 9.10999 21
51 1 3.82316 26.114 16.1795 18
52 1 5.12497 17.0879 4.09058 23
53 1 10.4253 6.0867 13.292 22
54 1 13.8976 32.1258 9.2571 23
55 1 33.2717 29.478 8.78139 21
56 1 0.548516 3.99682 13.0589 21
57 1 26.0437 15.2142 13.5107 23
58 1 9.0997 26.0035 4.47513 21
59 1 13.318 3.64715 49.5662 24
60 1 2.54646 23.272 32.202 21
61 1 2.07329 20.9827 9.30015 19
62 1 29.8802 25.6106 7.92305 23
63 1 20.6567 0.598664 1.48696 20
64 1 25.9191 16.0245 23.514 20
65 1 31.2302 20.1047 10.4389 21
66 1 1.05721 32.6847 17.5674 23
67 1 -0.176881 17.2507 17.1361 20
68 1 13.8345 8.16045 23.1119 21
69 1 31.9553 32.9522 13.4431 22
70 1 2.11402 17.65 2.706 20
71 1 -0.147064 8.27318 11.2108 21
72 1 3.64971 18.895 18.2828 19
73 1 30.603 19.1879 8.02306 20
74 1 4.01292 8.68777 7.5078 20
75 1 -0.33208 27.4656 45.4902 20
76 1 12.6311 6.84367 50.831 24
77 1 18.4013 6.94037 15.316 20
78 1 21.2852 12.8646 16.5481 22
79 1 2.32125 11.7067 15.2108 26
80 1 -0.429017 31.9424 7.23535 21
81 1 0.315781 19.271 25.3328 23
82 1 13.0622 16.6506 20.1795 22
83 1 3.59904 2.15138 22.1918 25
84 1 16.4701 5.35239 21.1495 20
85 1 10.6467 22.2859 53.429 20
86 1 8.40373 20.415 57.1032 20
87 1 17.2077 17.8805 55.1748 19
88 1 16.263 20.9347 59.6088 20
89 1 31.2429 4.37801 13.6761 26
90 1 16.2401 15.9284 49.2465 19
91 1 6.61413 2.05636 26.171 18
92 1 21.4121 22.1703 4.0934 19
93 1 14.9791 22.4665 18.862 20
94 1 8.31554 4.36357 61.0991 21
95 1 12.242 0.722146 18.1615 19
96 1 28.4651 26.9766 13.6836 19
97 1 21.9642 17.4438 55.0523 19
98 1 7.81717 29.9456 2.48996 19
99 1 10.0072 21.352 14.3369 19
100 1 5.56312 15.1783 16.4011 19
101 1 14.6651 25.4112 12.8282 20
102 1 33.7599 11.4489 6.75061 22
103 1 12.7461 10.8256 10.2353 22
104 1 10.2948 16.7678 6.36814 26
105 1 2.41179 16.2179 17.5801 20
106 1 7.87676 4.75624 13.9251 22
107 1 22.0668 32.1726 14.1627 22
108 1 4.03569 3.92109 12.6428 24
109 1 12.0533 14.2537 61.8548 19
110 1 32.1977 32.5593 16.3103 23
111 1 12.2745 2.37189 20.595 24
112 1 15.1153 18.7819 9.59004 24
113 1 10.6482 6.98605 54.3 22
114 1 7.6936 2.54021 12.4695 21
115 1 25.1542 14.1796 10.9992 20
116 1 -0.403588 18.7257 10.7622 23
117 1 26.0828 13.899 1.71153 23
118 1 17.7289 9.40663 54.1437 20
119 1 7.08943 12.4666 5.89354 22
120 1 19.4374 4.39586 54.4016 22
121 1 17.7001 14.5712 3.59341 20
122 1 15.4208 18.6222 59.1021 21
123 1 0.217559 1.5839 20.9342 23
124 1 9.01193 7.09397 61.4147 23
125 1 19.5718 2.6783 10.3404 21
126 1 15.7919 27.0972 8.32004 20
127 1 24.0748 4.44405 5.271 22
128 1 5.03571 16.6938 13.7612 23
129 1 15.2138 20.6762 15.7563 23
130 1 6.32407 5.90153 8.17163 25
131 1 18.2519 0.237604 10.7649 21
132 1 15.0015 4.55851 13.871 18
133 1 12.5955 4.27523 3.37611 22
134 1 15.649 23.1173 5.22701 21
135 1 32.1738 28.6831 56.9248 21
136 1 10.7014 7.14161 9.99719 22
137 1 14.8638 9.02112 25.5995 23
138 1 1.54337 22.1323 3.35114 19
139 1 -0.629195 9.98247 3.40884 23
140 1 8.02623 8.41718 58.6568 21
141 1 21.5994 30.5584 5.28479 18
142 1 7.54434 20.5766 13.171 23
143 1 9.1443 13.1567 15.9552 19
144 1 17.5906 6.34896 6.1271 24
145 1 23.1987 33.838 7.11878 20
146 1 12.6715 12.6709 55.1344 20
147 1 33.554 30.6293 5.07587 21
148 1 14.9639 31.8831 48.7254 25
149 1 28.1981 32.7842 55.838 23
150 1 24.0341 29.4075 13.2336 21
151 1 27.3274 0.351862 14.6263 21
152 1 16.2044 13.9217 6.94837 22
153 1 19.6334 9.5271 24.3442 23
154 1 16.6271 3.28412 16.0424 17
155 1 21.7915 25.7171 25.5546 23
156 1 15.6233 9.84402 11.3988 21
157 1 21.8887 5.4658 58.1774 20
158 1 21.5583 9.17232 2.60187 22
159 1 20.9132 32.7382 57.9315 23
160 1 18.7731 8.93934 1.69159 19
161 1 22.72 12.6677 13.1204 21
162 1 27.0519 14.4091 53.4174 20
163 1 32.3687 29.2572 2.78994 20
164 1 12.5487 13.9596 23.8318 23
165 1 13.4573 11.4064 24.7843 22
166 1 16.8393 4.23973 60.045 25
167 1 23.9247 10.0191 10.0599 23
168 1 10.6769 12.6434 56.9202 24
169 1 8.39471 12.3044 3.44228 21
170 1 13.8217 16.329 14.0844 21
171 1 29.3518 21.8381 60.2217 22
172 1 30.2564 21.8201 2.88527 21
173 1 14.5692 11.1749 22.1541 22
174 1 18.5484 11.6539 11.5399 22
175 1 6.8066 26.5845 14.8944 22
176 1 5.56364 2.821 6.37668 22
177 1 16.0831 5.55615 30.0782 24
178 1 13.1464 8.9746 14.8452 22
179 1 4.64874 30.9812 5.41382 20
180 1 10.3588 22.6274 8.54628 22
181 2 0.42592 32.9507 57.4922 20
182 2 12.9496 23.7825 14.1396 21
183 2 20.2046 16.779 18.7206 22
184 2 16.7196 25.686 19.3119 20
185 2 10.2595 12.4604 14.0727 24
186 2 32.9786 0.082212 54.1798 14
187 2 -0.488094 1.88547 55.8771 24
188 2 2.21396 21.6212 5.67821 19
189 2 11.7439 28.6343 12.0334 25
190 2 1.91773 6.43755 22.7885 19
191 2 8.85384 1.5954 13.343 18
192 2 29.2571 13.8037 22.8639 22
193 2 8.26775 17.5661 4.66517 23
194 2 0.672137 18.3985 58.7688 23
195 2 31.0827 5.01325 59.7526 22
196 2 29.44 9.69888 57.697 22
197 2 25.3725 5.8772 5.60566 23
198 2 1.26834 12.9635 11.3045 21
199 2 26.9902 22.018 8.94899 21
200 2 4.6829 12.9937 11.8628 19
201 2 12.4014 15.6492 23.1226 21
202 2 9.66537 4.10111 13.7022 19
203 2 15.5253 22.4466 16.7679 21
204 2 12.0468 24.8714 9.88896 23
205 2 11.6902 10.127 3.6714 23
206 2 21.1458 15.3211 10.1807 21
207 2 24.6046 4.63268 9.74742 23
208 2 22.5401 17.8435 56.8039 20
209 2 28.5513 23.5557 52.841 20
210 2 6.9793 16.6117 12.6931 21
211 2 24.4969 0.956574 2.37126 20
212 2 12.8197 12.0441 8.57796 22
213 2 22.2252 22.5603 10.303 23
214 2 12.5445 12.6541 18.0282 18
215 2 10.6028 17.9886 9.48833 21
216 2 32.1087 4.69275 9.86199 23
217 2 5.30893 25.1049 50.7865 22
218 2 13.1859 3.40514 18.1846 17
219 2 20.6159 31.1304 9.86818 17
220 2 11.8244 20.8713 53.9292 22
221 2 8.48062 27.7763 5.11902 21
222 2 9.58529 20.2908 2.1618 20
223 2 10.3944 12.8038 59.1472 22
224 2 27.9681 6.91733 19.8371 21
225 2 12.8998 25.2396 56.0182 20
226 2 26.1557 9.65789 35.0271 20
227 2 0.212131 26.841 23.6191 21
228 2 0.691885 13.9473 19.261 24
229 2 3.74627 0.781297 15.0463 20
230 2 1.49823 7.72064 4.74915 20
231 2 24.4046 25.5912 11.0343 20
232 2 6.30431 25.3185 4.22532 25
233 2 29.8037 25.9923 60.8478 24
234 2 31.2991 30.4083 55.7805 22
235 2 15.3107 19.3952 55.1545 20
236 2 31.1334 19.6938 12.7274 20
237 2 18.0702 15.9801 9.64811 21
238 2 19.2949 9.78655 12.1982 19
239 2 3.17625 22.6282 8.2311 20
240 2 31.7854 3.55492 33.0435 23
241 2 32.6478 26.8346 15.3227 23
242 2 21.8899 5.22164 11.9555 23
243 2 22.2664 23.3034 59.9912 24
244 2 5.09802 26.9858 6.21366 24
245 2 5.54775 25.9405 9.43292 20
246 2 9.50153 19.6282 20.3512 22
247 2 3.15357 17.1495 58.0095 21
248 2 9.78142 26.1631 12.0004 23
249 2 1.91464 27.0077 59.8155 19
250 2 18.3845 7.53968 60.8785 22
251 2 27.391 26.3747 49.3258 21
252 2 18.9261 2.0252 12.112 16
253 2 29.5797 31.3577 7.24724 22
254 2 2.87789 7.50179 57.2743 21
255 2 0.553736 33.9232 2.86165 19
256 2 16.2958 2.21465 60.409 22
257 2 32.0693 29.1386 13.5251 18
258 2 4.78551 18.5873 11.2644 21
259 2 26.3093 8.2609 17.8982 24
260 2 2.24599 5.05099 5.21397 19
261 2 15.0274 20.4073 58.1903 18
262 2 8.59494 31.5146 23.0042 22
263 2 1.53187 23.4335 18.2659 20
264 2 25.4573 5.28443 19.9178 23
265 2 -0.327685 16.5354 8.01804 22
266 2 17.9184 7.1869 3.95646 20
267 2 6.44541 15.7379 6.70934 19
268 2 7.3064 6.85275 5.26615 21
269 2 9.46822 14.2492 29.415 20
270 2 10.7557 7.91541 5.5856 22
271 2 10.6054 0.137671 14.449 18
272 2 3.04123 10.464 7.55257 24
273 2 33.4563 26.3898 27.4684 22
274 2 9.15939 6.00729 54.5516 23
275 2 -0.818591 20.4362 10.095 19
276 2 7.10176 29.4553 60.261 22
277 2 29.2399 0.450672 5.96753 17
278 2 15.1405 1.65069 8.97964 23
279 2 14.6204 31.345 18.9707 20
280 2 1.47737 26.0048 29.6315 20
281 2 9.6721 23.4265 10.2173 18
282 2 -0.316025 11.9832 22.6898 20
283 2 4.3169 23.2509 24.5102 20
284 2 5.83364 9.8482 5.42459 21
285 2 17.0635 9.92368 21.735 20
286 2 0.211437 26.031 13.2079 18
287 2 10.6537 24.1732 25.5725 22
288 2 3.66983 31.9605 11.0161 23
289 2 8.22487 12.4315 56.7426 22
290 2 4.48794 31.5812 58.8499 22
291 2 -0.585925 11.5851 55.4507 21
292 2 2.72985 33.4352 5.07426 21
293 2 9.98645 4.33745 17.7144 20
294 2 23.9967 8.54626 24.5488 19
295 2 5.59846 9.05136 61.7328 22
296 2 11.2438 24.3744 22.4669 24
297 2 16.7056 31.3272 16.902 19
298 2 32.2222 23.9738 16.2985 21
299 2 13.0491 6.46368 18.6838 22
300 2 16.7341 10.0949 27.3155 23
301 2 31.2243 8.06909 17.282 22
302 2 20.8161 1.12598 16.9568 19
303 2 15.4799 24.5815 14.8545 19
304 2 15.7028 17.4578 8.15761 18
305 2 11.2845 16.0541 1.8621 20
306 2 17.4521 27.4723 14.2275 21
307 2 -0.630826 5.25574 12.8718 21
308 2 29.5461 19.4225 16.4239 19
309 2 6.25999 33.3224 12.8686 23
310 2 13.0359 33.1842 57.8903 23
311 2 16.832 6.45819 28.3145 27
312 2 15.4417 13.4152 18.0085 19
313 2 10.3947 27.0244 56.6168 24
314 2 32.7759 13.1018 20.3927 22
315 2 32.4378 20.6732 59.404 22
316 2 5.51129 20.9197 60.293 18
317 2 5.73488 31.4855 61.6035 21
318 2 9.18533 8.33008 21.1858 21
319 2 14.3785 15.8208 16.2621 21
320 2 0.237959 12.5215 15.6159 24
321 2 17.3752 16.3691 15.9357 19
322 2 11.5071 1.93698 16.1003 19
323 2 19.86 18.3978 11.5505 25
324 2 18.4402 5.30028 20.2664 19
325 2 18.5489 4.23335 61.4344 25
326 2 31.7982 8.70149 8.12768 18
327 2 6.60149 8.48632 11.4304 21
328 2 2.27265 14.4343 6.12937 20
329 2 11.4044 1.28937 11.7602 21
330 2 1.35822 7.84473 17.4083 20
331 2 25.1342 33.8321 6.42416 20
332 2 27.5625 4.69398 7.89858 23
333 2 8.80579 9.57481 24.7531 21
334 2 25.1223 1.2486 14.6515 24
335 2 9.06747 18.8423 14.9119 24
336 2 19.5512 30.3285 20.3975 22
337 2 18.6802 0.551258 22.4166 20
338 2 26.293 31.0645 59.4117 20
339 2 12.1626 23.4713 58.812 22
340 2 31.1535 6.57393 14.6555 24
341 2 27.4589 10.624 12.498 20
342 2 31.1927 10.0195 13.2701 21
343 2 33.48 22.7867 56.572 20
344 2 29.5807 17.3765 19.106 20
345 2 1.0106 2.69563 14.7562 20
346 2 14.4828 32.3375 7.64386 22
347 2 28.6472 16.2168 10.0728 21
348 2 26.8051 8.46296 31.6491 24
349 2 3.33735 13.3614 20.2968 21
350 2 25.7846 19.8372 6.02737 25
351 2 18.5669 7.94697 57.8112 21
352 2 8.65239 23.1723 4.07351 19
353 2 18.5121 17.5641 24.1775 22
354 2 29.1789 13.6405 7.9201 20
355 2 11.2723 11.0119 11.7267 22
356 2 16.3292 21.1401 5.96369 21
357 2 7.76916 3.28091 10.7437 23
358 2 9.3248 13.711 20.5325 20
359 2 19.8396 14.0075 29.6082 19
360 2 25.0642 16.0759 6.30576 24
361 1 30.9768 13.1175 32.7348 25
362 1 22.9262 10.1845 24.9471 23
363 1 30.8692 27.3316 14.8178 19
364 1 29.1474 30.9372 18.1666 20
365 1 9.6706 4.01083 8.04603 22
366 1 23.0804 1.01434 30.7851 21
367 1 5.94628 5.96667 24.6355 19
368 1 9.54773 29.2827 13.8789 24
369 1 4.68018 6.33047 27.5951 20
370 1 23.499 11.9831 31.9565 20
371 1 1.26748 34.0047 35.6422 22
372 1 0.216076 2.95744 30.1059 20
373 1 -0.634068 30.6085 21.0434 22
374 1 3.83326 28.4459 17.5487 22
375 1 33.4581 26.8033 25.6384 21
376 1 25.2039 16.3943 4.35001 22
377 1 0.471618 1.77793 16.4024 18
378 1 23.3712 21.615 11.7722 21
379 1 9.27414 4.12121 23.8029 19
380 1 4.37207 3.6552 24.9631 21
381 1 29.1774 21.2596 24.3289 21
382 1 33.0295 24.8983 23.2399 21
383 1 26.1633 19.4182 24.1733 23
384 1 32.3869 15.6438 37.0054 22
385 1 22.2113 3.4058 35.665 20
386 1 1.52092 25.7369 23.9756 25
387 1 15.996 6.32781 16.1837 17
388 1 5.0521 23.7844 19.7877 22
389 1 19.3105 27.2775 14.6893 23
390 1 7.33669 10.0996 14.2876 22
391 1 0.496032 12.4064 9.59523 23
392 1 29.4271 23.2873 5.69664 22
393 1 32.358 6.90606 24.0552 22
394 1 27.7028 32.0257 33.4279 22
395 1 0.760065 23.7142 29.5252 22
396 1 12.2131 28.2497 25.0847 19
397 1 33.6372 31.0017 24.3624 19
398 1 30.175 0.248808 18.2879 19
399 1 30.6086 3.92312 23.3964 20
400 1 7.13064 33.1699 53.9146 21
401 1 15.9251 7.54484 12.8089 23
402 1 30.1456 3.95928 10.6939 22
403 1 19.3768 28.8595 32.4571 24
404 1 3.00902 6.58953 13.5055 21
405 1 4.32411 3.04326 9.48524 22
406 1 30.1172 30.9268 25.1316 21
407 1 32.2073 15.1382 28.4423 23
408 1 33.0089 9.8355 32.263 22
409 1 15.6166 14.3752 28.2667 21
410 1 32.5926 12.4862 15.124 20
411 1 10.8162 8.98912 19.4001 20
412 1 29.619 25.4253 11.6716 22
413 1 19.5767 8.07112 18.0717 22
414 1 23.467 3.26861 9.00885 21
415 1 26.4208 6.65589 29.8963 21
416 1 29.7794 14.0525 29.9027 25
417 1 7.18715 18.5081 32.0827 22
418 1 0.186187 6.77253 21.7714 21
419 1 18.4019 26.882 7.28843 18
420 1 31.8635 8.99276 38.8484 19
421 1 27.6 18.0081 19.6032 19
422 1 5.75199 14.455 11.2061 20
423 1 18.9916 21.8425 60.9455 24
424 1 14.1386 14.0329 15.2987 21
425 1 13.179 30.9072 20.3866 20
426 1 33.0803 24.3923 27.6649 21
427 1 25.6864 20.4514 15.5164 21
428 1 15.942 24.5571 21.1709 19
429 1 5.28803 23.2267 32.8692 19
430 1 20.9242 23.2752 16.4604 20
431 1 27.5514 13.067 23.9972 21
432 1 17.5564 12.216 14.277 20
433 1 23.5633 5.68991 20.7926 22
434 1 10.7503 11.4727 18.5852 22
435 1 13.3778 14.2229 17.7043 21
436 1 5.58803 8.76687 22.2246 22
437 1 2.49657 1.77834 7.54672 22
438 1 1.72528 15.3267 20.5283 21
439 1 33.5436 15.9028 34.0523 21
440 1 1.78802 21.6746 21.2243 21
441 1 1.76791 34.005 41.6734 20
442 1 8.18885 14.3855 27.9957 23
443 1 11.7566 -0.0812772 26.3472 19
444 1 3.48724 28.7069 27.9592 20
445 1 29.2378 22.4016 11.6653 23
446 1 9.23705 4.93901 20.5383 23
447 1 14.128 11.619 7.11208 23
448 1 7.93324 1.94116 21.2691 22
449 1 22.5676 20.6034 23.4396 19
450 1 5.54318 23.5339 16.4347 19
451 1 10.7627 7.35891 28.7103 19
452 1 23.7491 14.4377 31.0813 21
453 1 5.56531 5.58594 15.1174 22
454 1 9.43569 12.3983 24.5485 21
455 1 29.7574 27.5837 18.9192 19
456 1 9.35488 6.62488 26.0574 19
457 1 31.6321 8.02831 10.2502 21
458 1 23.0168 1.3267 58.6152 17
459 1 15.4893 24.3977 25.4639 21
460 1 7.48492 14.6036 39.6421 22
461 1 24.0308 25.8422 20.6891 21
462 1 14.8972 3.53592 22.7946 23
463 1 1.36747 8.96396 27.6752 23
464 1 21.8245 26.5407 15.2565 21
465 1 2.70801 7.93883 21.4907 18
466 1 15.8292 9.322 16.1545 23
467 1 7.01679 4.63416 27.0848 16
468 1 9.43606 12.2256 22.036 22
469 1 17.7644 0.97133 5.37319 21
470 1 19.3657 2.85202 14.1339 23
471 1 20.182 6.22518 23.2108 21
472 1 25.4187 3.26821 20.0364 23
473 1 2.14498 6.10119 49.6779 20
474 1 6.43102 24.2826 30.3798 18
475 1 17.0839 27.232 18.3181 21
476 1 2.15099 0.236508 23.2297 22
477 1 10.5615 5.09275 33.8122 22
478 1 23.6266 23.0459 25.3466 22
479 1 9.04582 23.5739 32.0761 24
480 1 9.68933 22.454 26.6669 23
481 1 17.4285 30.7261 20.8048 20
482 1 32.7015 28.1882 23.4059 21
483 1 29.4848 13.5572 4.16176 20
484 1 3.04895 7.16569 17.2596 19
485 1 26.5197 29.7514 25.2079 23
486 1 8.49984 31.0417 16.7095 20
487 1 3.45224 33.1995 14.5281 21
488 1 5.9842 9.31692 47.8618 24
489 1 10.496 7.89088 16.1196 22
490 1 8.14916 10.8834 17.0794 20
491 1 33.1154 3.85773 16.068 22
492 1 17.3698 10.5209 19.5136 25
493 1 10.7289 17.0007 28.1512 22
494 1 6.93698 11.4554 23.4011 24
495 1 13.13 22.0349 28.2411 23
496 1 5.70732 7.60109 12.7106 21
497 1 5.87671 3.98819 19.8583 22
498 1 31.0427 16.0294 18.4934 21
499 1 25.1336 1.96117 28.7368 21
500 1 18.6658 25.5163 23.6064 23
501 1 8.64457 8.02236 19.0316 24
502 1 13.4794 19.5512 18.5736 21
503 1 1.71868 24.1921 14.0535 19
504 1 14.6554 3.48674 29.1903 18
505 1 6.32144 29.312 17.0564 21
506 1 20.5657 31.9172 20.1542 22
507 1 19.186 31.0205 22.7585 24
508 1 8.00785 30.6858 29.603 22
509 1 12.9598 9.8835 34.3903 21
510 1 5.51597 16.0589 24.5873 20
511 1 4.80158 29.4056 20.6592 24
512 1 1.59427 15.537 24.8598 21
513 1 3.6664 25.2676 30.0083 19
514 1 20.0566 28.5282 18.2615 22
515 1 8.17228 12.5935 19.4614 20
516 1 1.33739 5.57761 35.9168 20
517 1 28.999 9.56052 11.3023 22
518 1 18.5672 3.99418 31.3203 20
519 1 14.1317 1.79363 17.1745 22
520 1 16.5821 18.7994 22.7062 19
521 1 21.418 7.74136 15.4322 23
522 1 12.9232 6.27136 14.5611 19
523 1 32.0097 6.72184 18.6416 21
524 1 25.7325 10.0062 17.4577 20
525 1 11.2911 17.7102 17.4803 22
526 1 26.9875 2.03021 26.7258 23
527 1 12.6943 23.4786 25.8583 22
528 1 6.0445 11.1922 31.567 21
529 1 2.53462 12.7068 18.6639 19
530 1 5.1803 15.9774 32.3791 19
531 1 15.2629 19.5613 27.9632 21
532 1 14.4802 8.74474 6.09513 25
533 1 9.83522 4.61874 29.9962 17
534 1 12.4373 15.2641 11.4318 23
535 1 13.5685 10.4744 19.2163 22
536 1 14.7177 21.4516 24.9249 21
537 1 16.0167 13.6003 19.8119 23
538 1 13.2552 13.2776 29.9535 23
539 1 14.0751 14.5018 25.8352 21
540 1 20.8084 24.593 32.0002 18
541 2 5.94557 33.5976 22.4709 23
542 2 22.5065 10.9128 14.1715 20
543 2 1.75583 18.5 31.4661 22
544 2 27.8724 3.11132 31.8021 20
545 2 33.67 28.6493 25.1881 20
546 2 22.0243 20.2749 12.2448 24
547 2 6.41148 8.79752 20.353 22
548 2 13.9091 7.41922 25.0827 21
549 2 17.0506 9.58444 30.4658 21
550 2 8.52642 2.18235 23.1633 21
551 2 29.0955 25.652 25.4772 20
552 2 3.33575 32.9147 27.2993 19
553 2 1.03411 28.9425 15.4656 23
554 2 0.419416 9.11326 13.0799 19
555 2 6.82261 19.2084 14.2987 19
556 2 25.2522 34.1972 42.22 20
557 2 0.603656 15.4835 26.5769 21
558 2 6.96036 13.1185 12.366 22
559 2 26.1449 7.4627 15.1003 21
560 2 9.22256 15.2364 8.75362 18
561 2 31.3858 1.53984 31.0071 21
562 2 -0.7782 16.6598 35.9192 23
563 2 4.70163 17.3854 23.4112 20
564 2 13.4233 10.5394 26.4593 19
565 2 0.984141 4.3439 60.8974 23
566 2 1.33285 31.5465 8.38656 24
567 2 19.0188 25.6434 27.5303 23
568 2 32.3219 1.70443 10.0255 23
569 2 1.88112 4.17427 25.6758 22
570 2 2.97017 33.1492 24.2453 21
571 2 7.91872 13.0431 23.1358 20
572 2 28.4837 33.082 35.1618 19
573 2 18.4705 12.494 31.5642 22
574 2 4.69848 14.8138 29.9964 22
575 2 24.667 16.6833 22.2577 19
576 2 3.94041 5.62208 49.8258 19
577 2 9.34457 31.2957 12.7292 23
578 2 29.9783 3.98773 16.1674 19
579 2 30.1758 12.474 12.6714 21
580 2 8.2445 2.91618 26.4281 20
581 2 15.949 4.07004 19.1304 22
582 2 28.5448 17.638 47.0496 20
583 2 3.98523 9.89293 21.9663 20
584 2 20.6304 9.9338 34.8039 21
585 2 0.578281 11.3917 25.3175 19
586 2 1.81434 13.3959 28.1224 22
587 2 32.3148 17.186 14.3407 15
588 2 12.3757 5.37134 42.4447 22
589 2 28.178 28.1689 12.1866 21
590 2 0.582822 23.5199 27.8073 20
591 2 26.9231 19.3205 11.5066 23
592 2 4.65111 23.3451 10.9635 24
593 2 32.5104 16.8958 19.1436 18
594 2 7.4789 32.6727 20.2302 22
595 2 21.555 28.8796 32.3869 20
596 2 11.9048 33.5437 30.6181 21
597 2 24.1085 3.94423 37.7384 23
598 2 8.33595 10.6681 22.4722 24
599 2 6.65979 18.4369 30.3017 22
600 2 32.6609 14.3783 38.3083 21
601 2 16.1656 22.7008 25.5389 19
602 2 26.5114 11.648 25.7345 22
603 2 24.5264 6.72056 29.8138 21
604 2 2.47075 20.2813 19.7201 20
605 2 6.48745 4.13229 32.6156 20
606 2 26.6945 0.107622 20.769 23
607 2 0.508201 9.83791 10.3473 21
608 2 5.07984 4.66607 26.4355 19
609 2 17.9024 13.8253 20.7378 21
610 2 25.0854 27.9344 13.3055 18
611 2 22.2028 30.2923 39.202 20
612 2 7.2589 14.2427 35.6678 20
613 2 8.80617 5.03665 22.3529 20
614 2 10.5146 5.25851 3.63512 22
615 2 10.3182 23.4646 13.4743 21
616 2 33.6284 22.3835 40.7799 22
617 2 23.056 24.2548 20.0314 21
618 2 3.91276 13.2713 9.20009 22
619 2 10.0846 1.20441 32.9259 20
620 2 5.5023 8.65536 36.2705 22
621 2 8.01004 11.7183 15.2453 20
622 2 10.1182 26.8846 34.5802 19
623 2 29.5425 6.483 32.1267 22
624 2 4.46456 11.6661 32.0052 25
625 2 31.8326 14.7786 35.3419 24
626 2 12.7893 25.7831 12.8681 23
627 2 16.4705 17.4521 26.5446 23
628 2 8.23681 6.57789 37.962 23
629 2 32.9057 10.1557 21.3362 22
630 2 9.74471 33.8954 21.8996 23
631 2 16.6739 3.59813 22.5662 21
632 2 6.99207 16.0153 28.5087 21
633 2 26.8204 4.46894 17.5582 23
634 2 29.2375 9.5059 33.5433 22
635 2 32.5893 22.5771 45.859 20
636 2 9.82259 21.0344 38.7719 22
637 2 7.93251 19.7723 17.9877 21
638 2 17.002 20.0695 11.9121 21
639 2 0.503064 3.49818 20.2309 21
640 2 7.57517 17.0224 18.8188 20
641 2 8.95603 29.063 42.9714 22
642 2 11.3162 11.4156 21.1691 24
643 2 15.2986 26.407 21.2906 22
644 2 33.1192 16.4356 32.1397 25
645 2 8.61206 19.4082 23.425 20
646 2 3.07602 5.61336 28.6447 21
647 2 0.622508 33.6494 32.8902 23
648 2 30.7456 30.401 2.42818 19
649 2 1.25948 10.9826 32.6465 19
650 2 20.053 22.6008 14.6696 19
651 2 6.52179 27.0692 12.6163 22
652 2 16.088 15.3926 4.75158 20
653 2 7.77855 28.6291 23.6493 21
654 2 16.3671 0.0998536 27.0649 19
655 2 23.6533 6.80648 22.2211 24
656 2 9.07244 8.24702 28.8225 20
657 2 0.0904586 26.7726 41.5847 19
658 2 31.7443 33.8456 21.9921 20
659 2 -0.610973 16.6623 38.6897 23
660 2 32.7142 2.49117 25.7731 20
661 2 15.8016 0.540271 21.1953 16
662 2 9.07782 34.0999 25.306 21
663 2 19.044 18.5817 3.38707 21
664 2 30.3608 26.1426 6.03051 21
665 2 31.5467 14.7168 26.7715 22
666 2 9.40531 29.7109 3.99538 19
667 2 17.7202 6.1278 16.7693 19
668 2 0.784275 15.8376 16.1658 21
669 2 23.818 1.78742 19.2383 21
670 2 11.9994 32.947 27.6892 23
671 2 20.0585 30.0885 37.441 20
672 2 31.0091 20.6782 4.16344 20
673 2 20.2663 29.154 22.6365 20
674 2 20.3135 27.394 16.6132 21
675 2 20.611 20.3881 6.5713 24
676 2 20.0722 3.46383 21.785 20
677 2 11.997 28.0438 17.788 22
678 2 25.6958 5.48654 28.2534 24
679 2 14.7945 19.0779 23.4641 20
680 2 11.8804 20.621 28.0753 24
681 2 5.35472 14.4924 18.2271 22
682 2 4.36589 1.5666 32.8864 19
683 2 24.3592 10.9999 38.982 18
684 2 23.8083 3.65389 24.603 16
685 2 8.64247 0.856277 17.565 20
686 2 30.1778 7.78612 23.598 25
687 2 6.72906 0.831174 19.5965 21
688 2 23.6451 14.0832 21.4554 21
689 2 28.3378 10.3736 27.6516 18
690 2 0.908201 7.7738 29.0298 24
691 2 23.5789 12.6897 16.5187 20
692 2 13.4591 31.8112 33.3721 20
693 2 4.06291 10.623 41.3066 23
694 2 3.2836 0.673986 10.4958 20
695 2 -0.392722 32.6861 27.1564 19
696 2 11.505 5.68826 38.9286 22
697 2 14.4888 31.8473 27.9028 24
698 2 17.9172 4.50339 42.9722 21
699 2 3.81882 11.2988 18.8589 23
700 2 16.0473 1.62803 17.1189 18
701 2 13.5225 15.23 28.0834 23
702 2 0.36895 31.2862 30.5004 23
703 2 10.7693 13.6896 23.3514 22
704 2 4.55321 11.5186 28.8216 23
705 2 26.7928 20.052 37.6548 21
706 2 5.09003 8.62618 43.2297 21
707 2 22.6579 18.3615 14.3509 22
708 2 20.0629 8.56633 31.6915 22
709 2 24.0096 10.0256 18.0883 21
710 2 14.0261 21.9788 8.79599 24
711 2 18.8095 10.6675 14.8178 22
712 2 27.9591 19.5315 24.284 23
713 2 32.7915 9.63121 28.0855 21
714 2 24.537 0.0407828 33.1466 19
715 2 19.6624 30.3533 4.71245 21
716 2 8.29579 24.861 14.9372 23
717 2 28.1841 20.623 19.5325 23
718 2 19.4737 15.638 21.3753 20
719 2 4.87515 16.4919 42.5352 22
720 2 3.84957 14.793 45.4346 23
721 1 5.04991 21.7182 10.7467 23
722 1 1.45172 17.3425 8.54737 22
723 1 30.5065 16.6721 10.7568 23
724 1 9.83687 20.5805 18.3454 23
725 1 29.1086 23.8142 45.4302 21
726 1 2.55132 11.4777 51.8138 25
727 1 24.1972 20.6511 5.80875 22
728 1 8.57502 30.4314 11.1529 24
729 1 10.4587 14.7291 19.1089 24
730 1 26.6529 23.8646 22.1217 22
731 1 9.79804 0.0901083 12.6472 21
732 1 24.33 17.5348 14.6567 23
733 1 3.97387 15.999 10.1964 22
734 1 2.41079 5.55716 53.3589 17
735 1 2.28566 19.2154 52.9762 22
736 1 13.6595 27.4868 2.59543 24
737 1 31.4834 0.927288 61.8535 17
738 1 11.0164 0.689641 7.11505 20
739 1 8.76445 32.1434 7.75538 23
740 1 5.3663 31.6516 12.1898 23
741 1 15.6657 0.599937 25.2907 23
742 1 6.727 0.555806 59.5576 23
743 1 15.28 31.3721 6.36571 24
744 1 23.8521 23.1008 18.762 21
745 1 6.60143 5.67506 50.1981 24
746 1 2.9363 2.9377 61.9892 21
747 1 15.8318 32.4323 60.9643 22
748 1 33.1936 26.4518 8.96067 22
749 1 12.2129 11.0576 58.8706 16
750 1 32.6379 3.11276 47.9525 21
751 1 23.8224 7.3012 15.1703 22
752 1 23.1349 1.96413 3.26341 24
753 1 -0.352916 34.1383 55.8374 23
754 1 7.55818 30.9711 19.1127 21
755 1 18.0408 22.6596 12.0204 24
756 1 3.51116 18.2633 56.3816 23
757 1 2.89537 13.8006 12.0641 24
758 1 31.5377 19.2514 61.4856 23
759 1 14.8554 14.516 54.921 21
760 1 20.1706 20.9217 48.1926 23
761 1 28.9984 27.0529 53.9103 24
762 1 0.710869 19.2775 55.499 18
763 1 -0.512023 15.1322 48.4368 23
764 1 22.3072 15.5665 12.4345 23
765 1 23.6373 23.0038 6.9934 24
766 1 16.9087 19.1395 1.97061 24
767 1 8.38253 27.5404 12.0661 21
768 1 25.9918 26.688 12.0873 20
769 1 21.4054 15.5839 4.2029 25
770 1 7.59262 21.3553 54.1157 20
771 1 1.72214 19.9419 58.1875 20
772 1 23.6768 20.0259 13.7619 23
773 1 11.4274 20.7997 56.0079 21
774 1 4.16505 27.0704 59.832 24
775 1 -0.579376 18.0138 19.6897 21
776 1 28.9376 22.3623 57.4251 18
777 1 2.19414 11.5842 27.1799 22
778 1 12.3642 5.54647 6.51435 23
779 1 30.4349 23.9609 25.9869 23
780 1 11.624 17.9963 47.2366 24
781 1 0.463451 13.4265 13.6694 18
782 1 7.85189 29.7107 5.88474 19
783 1 10.1384 25.2827 10.2673 24
784 1 0.154978 0.55874 11.6797 22
785 1 5.9214 2.15362 34.04 24
786 1 7.0722 29.9338 22.0546 24
787 1 29.1926 8.90605 59.7588 18
788 1 25.0613 13.6805 17.4821 24
789 1 0.979379 31.4826 59.7859 18
790 1 28.9898 15.9685 60.1558 21
791 1 14.0285 4.63105 19.1111 22
792 1 15.4359 29.8121 22.8014 21
793 1 20.8508 10.3854 13.2647 22
794 1 0.744369 3.73883 4.6144 23
795 1 7.02442 16.896 60.5745 20
796 1 23.6713 32.2054 58.0948 22
797 1 9.8943 10.4805 14.6419 17
798 1 13.8802 21.0175 54.801 19
799 1 25.3542 0.44898 19.0647 23
800 1 4.01289 27.145 9.05993 19
801 1 10.0727 15.4629 12.7303 20
802 1 4.5548 20.0895 12.7656 21
803 1 31.1104 13.414 6.89405 19
804 1 29.6699 3.9237 28.8255 21
805 1 5.29486 14.0495 21.9908 21
806 1 12.3007 23.0363 5.78789 24
807 1 30.6638 11.3333 61.5425 19
808 1 29.9122 5.26815 55.722 20
809 1 5.35438 3.91094 55.553 18
810 1 20.8587 19.8987 10.5964 19
811 1 7.01305 25.2093 21.1383 20
812 1 16.6339 2.71123 8.25733 22
813 1 28.9869 32.7488 12.5342 18
814 1 2.5437 16.2739 5.36073 19
815 1 13.6826 26.3654 26.4429 24
816 1 8.52678 23.0412 19.479 21
817 1 32.4276 6.60492 8.29449 24
818 1 14.8313 11.6626 17.2791 22
819 1 9.83416 29.5151 8.76012 22
820 1 30.3713 30.6563 54.0403 20
821 1 11.3673 11.6541 7.45022 20
822 1 11.0965 5.65606 18.713 22
823 1 31.8596 21.6876 5.80602 20
824 1 12.4286 24.0067 11.6126 23
825 1 3.9396 0.464772 25.1148 19
826 1 31.5457 30.2975 18.1574 22
827 1 9.50678 6.90841 6.89254 25
828 1 17.9892 1.40168 16.4898 20
829 1 21.4918 19.5561 5.15994 21
830 1 10.8095 21.8766 61.282 21
831 1 3.45742 7.55329 59.1155 23
832 1 13.3527 18.9835 14.2746 16
833 1 10.4587 13.0852 5.02506 25
834 1 11.6747 31.4222 7.31313 18
835 1 15.2433 19.8861 12.5789 24
836 1 26.7657 20.7031 7.26436 22
837 1 17.253 0.879734 61.3301 23
838 1 9.28231 4.20942 2.95899 23
839 1 13.179 29.0354 8.61599 20
840 1 12.7738 2.51897 6.14171 23
841 1 9.82815 32.1936 4.83485 21
842 1 9.23025 34.2005 16.1093 22
843 1 15.411 2.24399 20.1538 20
844 1 33.3444 22.3329 59.1384 20
845 1 10.6544 25.4999 21.0485 22
846 1 5.65975 34.2133 7.5958 23
847 1 2.46632 24.1472 9.36355 21
848 1 29.1326 27.5132 61.711 22
849 1 13.8978 26.5275 10.2309 21
850 1 20.0022 14.5958 6.22203 21
851 1 17.5983 21.6246 21.2553 22
852 1 14.5303 28.1656 21.0962 22
853 1 0.083023 7.17911 1.74122 18
854 1 32.4226 17.0462 8.8543 22
855 1 15.1608 24.5344 60.2362 20
856 1 30.2306 22.0804 8.49303 22
857 1 2.80987 10.4576 20.5209 22
858 1 13.8162 28.6015 17.2879 21
859 1 10.8295 27.6977 10.7582 20
860 1 6.20237 20.9159 5.04663 22
861 1 4.25853 13.3379 25.318 23
862 1 12.2914 21.2405 3.74683 25
863 1 11.9433 20.3434 9.47318 21
864 1 29.6384 7.04257 5.99395 23
865 1 21.1618 10.1174 8.30334 19
866 1 23.2834 28.6916 50.6856 21
867 1 8.75772 15.7355 10.7572 21
868 1 4.71722 28.3523 2.5318 21
869 1 29.3056 0.868203 23.7176 19
870 1 28.9618 16.2018 54.6662 18
871 1 26.273 25.1788 18.8457 19
872 1 15.6849 16.3949 12.041 21
873 1 19.1705 15.8699 16.5327 22
874 1 19.2272 25.5576 60.1009 20
875 1 22.9144 25.1444 55.3631 22
876 1 12.7475 21.9589 13.8321 22
877 1 28.9548 26.6336 39.4147 24
878 1 23.889 13.2174 3.49764 24
879 1 10.056 24.0692 3.25202 23
880 1 20.0157 14.902 11.7103 21
881 1 13.4243 27.7868 13.2774 17
882 1 15.6087 1.16706 49.7024 19
883 1 3.01841 13.7866 52.7869 17
884 1 12.0618 8.18109 60.4948 20
885 1 30.3318 1.29742 9.76338 19
886 1 0.270216 20.7851 5.43828 18
887 1 26.5101 21.0953 12.6138 23
888 1 18.2718 33.1862 2.94941 23
889 1 7.40508 2.29972 9.37343 20
890 1 16.3659 32.9049 8.36303 20
891 1 0.701348 6.46405 6.39792 20
892 1 8.39968 4.04411 5.83906 20
893 1 15.5855 33.6795 3.7766 23
894 1 10.7513 18.5052 14.3368 24
895 1 18.9866 5.67206 25.8293 20
896 1 28.8606 2.84092 61.8969 22
897 1 9.86866 13.84 7.90723 21
898 1 18.5166 0.219165 26.4835 20
899 1 28.0315 22.4596 27.8791 21
900 1 14.115 17.5946 16.7998 23
901 2 22.0109 27.1596 51.1142 20
902 2 23.5713 14.9023 3.80196 21
903 2 12.2657 29.6888 6.81032 18
904 2 31.5794 27.3798 7.95272 20
905 2 31.0736 7.00054 20.1536 18
906 2 18.4071 1.67188 9.04135 25
907 2 4.44027 24.6913 18.1142 21
908 2 28.366 6.04812 4.82967 22
909 2 21.5104 15.486 24.1374 20
910 2 30.5841 23.014 33.862 21
911 2 24.8221 3.15688 22.0363 22
912 2 29.9516 29.0779 15.2113 24