ITEM: TIMESTEP
2000
ITEM: NUMBER OF ATOMS
5760
ITEM: BOX BOUNDS pp pp pp
-0.0828474198 32.8828474198
-0.1729920539 34.3129920539
0.0886350827 63.5113649173
ITEM: ATOMS id type x y z Coordination
1 1 0.366826 3.80212 61.1742 24
2 1 2.28888 2.1805 0.725297 23
3 1 4.8139 34.0143 0.699994 21
4 1 28.6952 12.8408 4.14366 22
5 1 1.00883 5.51458 9.14397 24
6 1 1.06263 3.42125 7.44643 20
7 1 3.30277 31.0244 11.839 21
8 1 5.05214 1.50355 9.36977 19
9 1 6.18989 10.2034 8.30004 23
10 1 3.26548 33.9711 11.243 21
11 1 1.63418 1.87159 13.8689 21
12 1 0.531158 2.70055 16.2874 22
13 1 32.6885 10.7811 0.574004 22
14 1 1.35941 9.00342 0.283173 22
15 1 32.7056 6.3778 0.341932 21
16 1 1.99208 6.7449 2.65115 21
17 1 29.7608 10.1099 7.68018 23
18 1 1.18864 10.7949 4.65751 21
19 1 3.41035 8.42037 8.86034 23
20 1 26.3635 12.9564 9.5398 21
21 1 32.0088 10.758 10.452 18
22 1 3.20949 10.9901 9.36434 21
23 1 3.30247 10.4855 17.4142 26
24 1 3.0905 7.88569 14.8347 18
25 1 0.200559 17.5527 1.11844 21
26 1 0.932412 14.5039 0.294348 21
27 1 1.08561 12.8183 2.80411 20
28 1 2.18866 15.3326 3.11518 21
29 1 31.3973 17.9301 3.25938 23
30 1 1.12439 13.6683 6.3925 19
31 1 6.40451 12.4723 5.56238 21
32 1 2.84066 17.0873 6.03322 20
33 1 3.60786 16.6381 9.31281 21
34 1 1.68014 13.6565 9.09579 20
35 1 4.01796 13.5457 10.3565 21
36 1 1.39466 17.1262 11.7909 18
37 1 2.46086 5.46298 63.0589 21
38 1 5.78247 2.09615 0.34169 23
39 1 7.42008 1.58108 7.88185 22
40 1 6.37086 4.02586 5.38295 22
41 1 3.61992 5.48757 6.20203 19
42 1 1.83361 -0.275894 8.60468 21
43 1 6.34188 33.1669 9.25062 22
44 1 3.97475 2.71292 6.89437 19
45 1 2.36299 11.2641 20.1155 23
46 1 7.07897 6.8438 16.0937 21
47 1 7.8009 3.67434 13.8622 22
48 1 2.4393 2.04118 19.6902 21
49 1 2.97599 11.7894 1.04548 21
50 1 4.24188 7.95193 0.677785 23
51 1 4.8469 4.77352 0.978618 21
52 1 3.63282 8.71747 6.29567 21
53 1 7.4402 8.5748 6.25257 20
54 1 5.22605 6.53447 3.65495 22
55 1 3.8463 4.66798 9.3551 21
56 1 9.80049 7.16402 7.735 18
57 1 6.75997 12.8213 8.57638 21
58 1 9.05578 6.61731 4.51125 24
59 1 5.52427 8.14523 10.7881 23
60 1 2.85449 9.10013 12.0253 22
61 1 3.01852 17.3472 63.515 20
62 1 3.89387 14.2884 0.65649 23
63 1 4.01087 9.41005 3.48822 17
64 1 4.40005 17.1011 3.36272 21
65 1 3.9411 11.745 6.90739 24
66 1 6.7592 17.9084 7.66038 21
67 1 9.32267 11.8041 6.65867 17
68 1 7.46184 19.4101 10.2594 19
69 1 1.65243 21.0647 7.7166 23
70 1 10.5491 13.9912 11.8652 19
71 1 5.49624 10.7676 11.3732 22
72 1 31.9172 17.253 15.7797 19
73 1 6.32836 5.76356 62.5009 22
74 1 8.29412 3.18715 62.9012 17
75 1 7.27475 0.175531 3.27316 20
76 1 7.13373 3.49427 2.57932 20
77 1 5.92735 6.71243 8.25934 22
78 1 7.20231 1.95612 11.702 20
79 1 13.2567 5.51509 11.7553 23
80 1 8.28707 8.33958 9.64694 18
81 1 6.52778 13.5538 11.9912 20
82 1 6.32212 5.31032 10.7976 23
83 1 9.31463 1.61503 16.772 18
84 1 7.72133 9.39256 16.3818 21
85 1 6.10308 11.1261 0.868904 25
86 1 7.80308 8.45496 63.3523 18
87 1 7.40927 6.65184 2.30109 20
88 1 6.76046 9.45655 4.03227 21
89 1 16.0459 8.272 3.8479 23
90 1 9.51874 9.1143 2.79156 21
91 1 10.774 10.2417 8.80287 19
92 1 10.2837 9.66465 5.02595 24
93 1 11.0881 16.5903 9.05897 17
94 1 8.72376 3.23765 10.3189 16
95 1 11.0149 3.52195 13.2657 19
96 1 4.2694 8.67366 20.3408 20
97 1 6.17676 16.9711 0.725569 24
98 1 7.15864 13.7214 0.360696 21
99 1 3.88601 11.7144 3.40783 21
100 1 4.37402 14.8722 7.12688 21
101 1 5.65115 17.9937 5.35739 22
102 1 12.8267 14.8621 2.4158 23
103 1 6.81016 15.2483 5.35686 19
104 1 9.66801 19.5882 8.58595 21
105 1 7.55767 19.3951 4.91386 19
106 1 7.96894 11.4068 13.8312 22
107 1 12.6658 11.7855 4.55291 20
108 1 6.84271 12.0503 16.5191 19
109 1 9.51278 5.49767 0.606075 21
110 1 11.523 2.91866 0.596792 22
111 1 10.6985 0.695528 2.85596 20
112 1 11.5938 6.24146 5.93127 22
113 1 8.17823 4.68115 7.51198 19
114 1 9.05554 2.14318 5.41616 22
115 1 10.3279 1.38427 8.04543 24
116 1 13.8076 5.24664 7.84746 20
117 1 14.5529 4.58585 14.089 22
118 1 16.2066 4.93794 5.44479 23
119 1 12.925 2.91925 10.1202 16
120 1 10.0622 1.13477 13.4694 22
121 1 9.41144 11.494 0.519187 24
122 1 11.2863 8.34244 0.374915 23
123 1 12.3794 7.5237 3.56862 21
124 1 7.92356 11.861 3.55494 24
125 1 13.5771 9.30845 6.25652 24
126 1 10.112 6.79217 12.8196 21
127 1 12.212 7.46846 9.49329 22
128 1 18.6903 5.73875 5.77261 22
129 1 10.224 9.49311 11.5669 21
130 1 9.75263 6.43381 16.0661 22
131 1 19.2145 8.09764 12.8377 21
132 1 18.5969 6.53019 15.5557 21
133 1 9.96016 16.2779 63.6515 21
134 1 11.0914 14.0037 0.485542 21
135 1 10.9829 12.4777 2.95254 21
136 1 8.85053 14.678 2.36912 24
137 1 9.77285 17.3892 5.60865 22
138 1 10.173 14.3566 4.78004 19
139 1 15.1863 6.80116 6.01702 19
140 1 13.9735 12.1744 8.0571 22
141 1 10.4251 17.7026 13.2164 22
142 1 8.55137 12.093 10.7795 22
143 1 6.99714 17.0842 13.2465 23
144 1 13.0388 20.1551 15.057 18
145 1 12.7222 5.70171 0.709222 21
146 1 14.8559 3.10281 0.697677 24
147 1 16.0123 2.21002 4.21267 20
148 1 13.524 1.12069 3.51756 20
149 1 13.5451 4.70949 3.83838 20
150 1 13.9795 31.7763 6.01523 19
151 1 18.9585 3.74599 10.2464 19
152 1 14.7601 2.46414 7.61343 17
153 1 18.5284 7.19939 10.395 22
154 1 18.7251 0.847918 9.12333 17
155 1 12.6332 -0.220047 16.0599 22
156 1 12.3017 3.38029 16.3643 17
157 1 13.1652 11.4535 0.613946 26
158 1 14.9767 8.72932 0.701698 21
159 1 15.2046 6.41327 1.99105 19
160 1 12.9382 9.86978 2.87117 22
161 1 15.7991 9.89807 7.5043 17
162 1 18.5463 7.45699 2.66187 20
163 1 17.1889 6.82585 8.20185 24
164 1 17.7767 8.90188 6.70838 19
165 1 14.6408 13.6502 10.9324 20
166 1 21.4057 33.7318 11.2633 20
167 1 13.0303 8.53835 13.6661 21
168 1 14.7051 8.7881 9.73673 17
169 1 12.8275 17.1233 0.907628 24
170 1 14.3216 14.6487 63.4808 23
171 1 17.9549 12.1465 8.22817 18
172 1 15.1671 12.8306 2.54468 19
173 1 12.2938 17.1885 4.50937 22
174 1 18.5839 16.0254 6.63819 19
175 1 15.1505 17.1591 5.88077 24
176 1 12.6434 14.7579 6.85085 22
177 1 11.6447 12.6619 9.81126 20
178 1 12.5139 18.5595 7.25156 21
179 1 16.3209 16.2709 11.819 20
180 1 12.9647 10.4098 11.2067 20
181 2 1.35756 33.0622 1.34198 16
182 2 3.23834 4.16594 7.54793 22
183 2 0.213989 7.40109 1.91982 21
184 2 0.752193 3.48473 5.32051 23
185 2 1.00447 0.767619 14.9119 20
186 2 31.4128 4.13375 12.423 16
187 2 5.3208 1.26704 7.40026 19
188 2 31.6252 32.91 6.08962 22
189 2 3.9606 28.853 16.2009 19
190 2 30.9922 2.06873 14.7793 20
191 2 31.4383 7.48873 10.1258 21
192 2 3.45875 4.77241 13.0973 23
193 2 3.04616 5.32801 1.89533 20
194 2 0.186505 8.9511 5.14567 20
195 2 1.01229 14.0366 4.43926 21
196 2 2.77625 9.20609 1.72953 21
197 2 4.92106 8.2985 12.6069 20
198 2 31.9756 10.6974 8.68871 18
199 2 31.174 16.3732 4.88738 19
200 2 30.2086 11.5788 6.43954 20
201 2 2.22244 0.891472 17.6752 19
202 2 2.54789 9.57085 18.6619 20
203 2 30.5351 10.1679 11.5049 19
204 2 2.85649 13.6173 7.229 18
205 2 5.42758 8.64705 5.15985 22
206 2 0.252127 11.7348 6.36779 20
207 2 0.297391 16.2981 2.66372 21
208 2 29.31 13.9698 2.05713 22
209 2 1.83977 5.94203 4.42952 19
210 2 7.09976 15.6695 7.66491 21
211 2 0.238973 19.9888 5.33534 24
212 2 6.11603 19.7379 6.41644 21
213 2 0.174545 19.7144 19.0035 19
214 2 29.0398 17.6851 12.6817 16
215 2 32.6028 16.3988 13.9459 21
216 2 5.86395 13.565 13.8223 19
217 2 9.27772 33.9974 2.42222 21
218 2 0.959754 33.7489 7.13385 20
219 2 31.7671 6.11196 5.89075 21
220 2 32.7003 1.25866 1.58572 21
221 2 3.02655 31.1899 6.92756 18
222 2 3.14286 7.0181 21.2912 20
223 2 3.08144 6.98426 6.49806 20
224 2 10.4955 1.78037 9.95162 24
225 2 8.56955 30.0031 14.1443 21
226 2 8.91009 7.44185 19.3848 22
227 2 1.14557 8.3584 15.3748 23
228 2 3.20329 2.56984 14.9451 19
229 2 6.56666 5.40323 7.04016 22
230 2 4.56339 5.00279 4.8128 20
231 2 0.865763 16.9769 5.62089 20
232 2 4.86816 7.98656 2.39643 21
233 2 4.70534 6.33898 9.7603 20
234 2 0.730468 11.2851 12.9055 23
235 2 7.51837 17.4845 5.45398 17
236 2 10.7141 11.6492 4.79247 19
237 2 4.51796 6.81043 19.1411 24
238 2 6.6105 4.52171 18.9311 24
239 2 2.31914 7.58791 13.0625 19
240 2 6.36759 10.8032 15.036 20
241 2 8.44094 9.84227 4.74132 20
242 2 0.210109 20.4257 8.77749 22
243 2 2.92683 16.61 4.26779 16
244 2 4.65717 16.8691 6.79739 20
245 2 5.27558 12.9015 7.64443 20
246 2 2.85129 19.0039 8.01141 19
247 2 4.01957 21.4111 7.64524 19
248 2 11.4365 14.6509 8.34975 17
249 2 5.35132 13.6618 16.7749 19
250 2 3.45082 13.3741 14.4009 18
251 2 31.5674 17.3534 7.98343 16
252 2 6.96142 11.6288 12.4294 18
253 2 12.6407 32.9786 6.89656 19
254 2 2.68012 2.64135 2.7161 21
255 2 3.36043 0.614984 1.77688 18
256 2 8.08784 3.10472 3.94938 17
257 2 6.31853 5.41852 13.0308 21
258 2 7.25656 7.2981 11.0082 18
259 2 1.84632 1.85591 8.46875 23
260 2 7.44493 2.94362 6.51352 19
261 2 5.27942 31.4541 13.0767 19
262 2 8.21974 5.72791 17.0949 21
263 2 5.83203 5.09767 15.9962 24
264 2 14.2448 8.70887 17.5177 17
265 2 9.40091 5.72042 6.42738 23
266 2 2.64097 9.74082 4.94905 19
267 2 3.59928 13.1185 2.31815 19
268 2 4.51573 9.90815 7.63579 21
269 2 11.1468 10.9674 10.4662 18
270 2 8.04186 4.85817 9.65499 21
271 2 8.16364 13.4226 5.17129 20
272 2 5.8273 5.07165 2.39031 20
273 2 4.48258 6.14273 25.3618 21
274 2 3.63408 10.9734 12.5342 23
275 2 7.79188 13.8664 9.91774 19
276 2 5.92616 2.24665 13.2141 18
277 2 4.72828 11.5351 5.00778 21
278 2 1.95499 9.347 9.41382 20
279 2 1.877 20.726 2.1047 23
280 2 7.15455 13.1408 2.39745 23
281 2 11.5093 7.66392 15.6798 19
282 2 12.3516 15.0013 12.9876 20
283 2 8.14626 21.3127 5.04654 21
284 2 9.87469 11.0656 2.32817 23
285 2 7.22666 15.6767 14.2619 17
286 2 4.04392 11.553 19.0284 21
287 2 7.25294 18.9657 14.404 17
288 2 4.59421 20.9583 16.0958 22
289 2 15.5888 4.1833 6.94009 21
290 2 9.98746 -0.132985 6.73858 18
291 2 8.19173 6.42886 62.8791 22
292 2 11.0331 3.66774 4.79774 20
293 2 9.04781 3.01234 12.5215 20
294 2 8.42673 0.482527 11.9871 24
295 2 8.53567 8.11965 1.86867 20
296 2 11.9583 3.76413 11.5651 20
297 2 13.6945 2.81781 17.4417 18
298 2 7.43338 8.63525 14.3865 20
299 2 9.07749 8.09713 16.0965 22
300 2 13.7925 10.2145 8.17755 16
301 2 9.71156 3.06721 7.34421 22
302 2 12.3427 6.35213 8.10055 18
303 2 11.2853 8.5222 2.30884 21
304 2 18.0489 11.5344 1.42963 21
305 2 9.66446 8.981 6.83987 23
306 2 7.26635 8.27697 8.21185 21
307 2 5.60692 10.7741 2.70231 21
308 2 10.378 7.03632 9.65223 19
309 2 5.82492 2.05217 16.2887 21
310 2 13.004 7.14054 11.1501 19
311 2 13.9598 4.76381 16.4513 19
312 2 19.5226 6.85683 18.6399 18
313 2 13.064 12.1429 2.63585 21
314 2 8.68227 15.6912 4.29835 20
315 2 9.29559 16.9456 1.79054 19
316 2 10.6689 14.404 2.32344 24
317 2 8.71358 10.058 10.3043 22
318 2 8.73811 14.5501 12.5917 22
319 2 8.28663 18.3641 8.93851 19
320 2 7.54349 11.5074 7.07735 24
321 2 9.64149 12.2331 12.3379 21
322 2 9.88711 15.6988 10.3855 21
323 2 11.4835 16.5761 19.0294 18
324 2 14.9856 16.5046 13.5997 24
325 2 11.5134 1.13963 4.69635 21
326 2 13.176 0.948301 9.89506 18
327 2 12.2255 5.47777 2.71421 22
328 2 14.0021 3.05231 2.65783 20
329 2 17.9365 2.67119 11.4596 19
330 2 12.0036 5.92296 13.1042 19
331 2 7.68673 7.75946 4.09395 18
332 2 17.1569 7.06697 5.74927 22
333 2 18.0868 0.573621 17.5526 22
334 2 19.0096 3.3211 19.2413 21
335 2 14.3286 34.2141 15.7057 20
336 2 17.2542 0.850619 15.2014 18
337 2 12.6109 2.98497 7.91018 21
338 2 15.4925 7.33068 8.45748 25
339 2 17.394 14.1339 6.88665 18
340 2 19.4309 9.24673 5.58993 21
341 2 16.2848 9.7786 9.22859 24
342 2 13.5929 6.15226 6.10258 20
343 2 15.4946 9.011 5.4382 21
344 2 21.3556 17.3154 11.9594 16
345 2 19.6005 4.32752 15.5794 20
346 2 14.4213 6.64322 13.7947 21
347 2 13.9045 9.19307 12.3413 21
348 2 23.6745 8.08099 14.809 19
349 2 17.1264 13.1932 9.48794 22
350 2 13.7109 16.6313 3.18609 20
351 2 16.5604 17.7071 2.20492 22
352 2 14.684 14.638 1.87502 19
353 2 19.5761 11.381 8.994 22
354 2 12.6126 9.80098 4.90795 20
355 2 13.8657 12.6333 9.63114 23
356 2 15.1369 19.2876 7.84696 22
357 2 15.7183 10.6365 11.9458 21
358 2 5.26915 7.72556 15.4792 23
359 2 15.6888 12.0518 15.4141 19
360 2 10.1447 12.2134 8.47028 19
361 1 30.4098 4.95984 17.8721 21
362 1 0.565091 8.49161 10.539 22
363 1 31.3868 -0.171614 15.5864 22
364 1 2.39132 5.28709 21.4212 21
365 1 30.32 7.03124 25.6659 20
366 1 2.21623 1.53275 23.611 22
367 1 3.14346 5.81058 27.3085 16
368 1 32.8237 0.357072 21.3801 22
369 1 2.06093 9.36386 28.3455 18
370 1 2.74962 3.26476 29.6903 20
371 1 0.638149 7.69291 30.1372 22
372 1 1.72321 2.91924 32.6414 20
373 1 32.2552 18.3089 9.83202 16
374 1 1.86823 11.4955 14.3225 17
375 1 3.67102 4.72817 23.9517 23
376 1 1.86789 8.13259 17.3217 19
377 1 0.567383 8.91912 26.1032 20
378 1 1.57421 2.87215 25.3408 19
379 1 7.3835 9.09994 19.6048 18
380 1 3.68479 7.2025 23.3524 18
381 1 4.02796 11.3461 27.0552 19
382 1 -0.0402597 12.0338 27.1739 21
383 1 32.9723 10.7041 29.5635 23
384 1 29.7819 11.6092 27.3574 23
385 1 7.41664 18.7167 18.8796 19
386 1 4.49849 14.8777 13.8919 18
387 1 0.443842 12.1461 17.3243 22
388 1 29.608 12.0799 13.3938 20
389 1 30.4358 11.834 16.6155 19
390 1 1.55243 12.5832 23.3006 19
391 1 1.83377 14.8337 19.8316 21
392 1 0.697401 17.5397 19.6737 22
393 1 1.92025 15.6221 22.7086 21
394 1 4.87823 15.0567 26.9032 24
395 1 1.41473 13.6317 30.4824 16
396 1 32.0249 16.6932 29.9556 21
397 1 2.02779 5.23135 17.6728 21
398 1 3.55643 32.5545 17.0162 20
399 1 3.86539 2.30837 26.7998 23
400 1 4.51325 2.6301 21.159 19
401 1 5.13349 5.88726 20.8545 20
402 1 4.45005 30.566 22.9362 21
403 1 7.36517 3.40256 25.0954 19
404 1 7.4691 2.70489 19.4165 24
405 1 9.049 5.7885 20.8583 24
406 1 11.0024 1.67443 23.4166 19
407 1 5.80119 2.62756 28.5251 23
408 1 9.71389 7.04488 29.6588 20
409 1 6.91539 15.7894 10.1124 18
410 1 1.53253 14.0214 15.1017 19
411 1 1.46024 8.85918 20.4446 23
412 1 33.0261 12.3307 21.289 21
413 1 31.2565 14.1351 19.4188 23
414 1 3.00836 10.1026 23.4264 22
415 1 9.55847 5.063 23.5138 24
416 1 5.64919 10.4594 21.944 20
417 1 3.52798 7.89862 25.973 20
418 1 8.67698 8.88632 22.2998 19
419 1 9.37089 5.28245 27.1099 24
420 1 3.34916 9.92969 30.4813 18
421 1 5.61233 17.802 15.8323 18
422 1 9.03401 16.4609 17.5323 20
423 1 3.8137 13.2142 17.4317 21
424 1 4.60888 11.9778 14.5461 19
425 1 5.17276 15.8138 23.1273 25
426 1 6.94972 13.507 22.4777 21
427 1 3.78794 17.4094 25.8055 18
428 1 6.99665 17.2769 24.7533 19
429 1 4.95847 16.449 30.2147 22
430 1 9.5478 12.8682 26.984 21
431 1 4.14677 13.734 28.928 20
432 1 1.17462 15.0399 28.0791 17
433 1 4.69394 5.01467 18.3081 24
434 1 6.57275 3.29386 17.464 20
435 1 6.95083 2.8268 21.7659 19
436 1 12.409 0.995743 18.6017 21
437 1 5.31492 1.71913 23.967 20
438 1 8.40138 0.109767 20.5865 21
439 1 12.4081 6.32536 24.8053 19
440 1 9.72076 3.03167 29.0372 20
441 1 12.6786 3.84547 27.7439 20
442 1 8.113 2.1462 26.8973 21
443 1 11.8021 0.630162 29.7549 22
444 1 7.33157 4.82036 29.7814 20
445 1 6.11837 15.1561 19.3674 23
446 1 7.54423 7.05725 13.2686 20
447 1 7.34355 6.51325 18.4146 23
448 1 5.97533 11.8568 19.8087 22
449 1 11.6975 6.34297 21.9254 24
450 1 10.2991 9.01318 20.343 21
451 1 12.5551 3.79613 24.0318 22
452 1 10.2659 12.4275 16.4985 23
453 1 6.61058 12.2999 26.8452 20
454 1 6.77586 5.85724 22.7076 19
455 1 7.00506 12.0617 29.894 23
456 1 6.40824 8.88328 24.7654 20
457 1 5.64242 9.34068 14.412 22
458 1 14.4862 16.2427 9.10595 19
459 1 4.61622 7.455 17.3688 23
460 1 10.9679 18.8869 19.3498 21
461 1 10.2197 21.3834 17.8205 19
462 1 10.4925 11.1431 22.1346 21
463 1 4.9332 12.2243 24.3236 22
464 1 13.6767 15.8422 22.3969 21
465 1 6.22195 17.4305 27.8798 19
466 1 33.1525 19.033 27.7576 15
467 1 9.84564 8.90283 26.9401 19
468 1 7.13944 14.7332 29.1116 23
469 1 12.6997 5.96337 14.9885 20
470 1 16.1647 7.87713 18.0775 19
471 1 13.1217 1.37386 21.9776 19
472 1 17.7824 1.73653 18.9759 19
473 1 10.7084 2.32349 25.977 22
474 1 17.7776 1.12223 24.5784 21
475 1 11.4501 32.9623 24.3588 22
476 1 14.841 34.0513 27.4104 20
477 1 12.7257 6.97289 27.4824 20
478 1 14.9818 3.2748 26.6015 21
479 1 9.78137 31.8365 29.4065 23
480 1 11.2809 4.62597 29.8908 21
481 1 10.1468 9.20067 15.0457 18
482 1 16.0237 5.24428 16.0559 21
483 1 9.00715 13.7813 19.8437 21
484 1 8.94933 11.1857 18.6843 20
485 1 10.3946 6.43381 18.3904 17
486 1 10.7275 8.23268 23.7688 21
487 1 13.3334 7.81648 19.1872 20
488 1 8.23013 7.1517 24.8508 21
489 1 11.9354 11.0439 25.0302 19
490 1 8.61407 10.8889 24.3946 22
491 1 12.3187 7.86345 29.9869 22
492 1 10.0474 10.3153 29.7808 21
493 1 14.0277 17.1132 15.4658 22
494 1 15.3169 19.158 12.3386 22
495 1 14.7978 10.5503 13.3984 20
496 1 9.19556 15.0026 14.5512 22
497 1 17.6021 20.133 20.6844 23
498 1 13.179 11.9542 15.2914 16
499 1 12.8778 12.7024 27.133 20
500 1 12.584 13.5808 21.2928 20
501 1 9.16339 14.2947 22.2383 19
502 1 14.4791 11.7906 22.0326 20
503 1 10.0104 13.0428 30.1961 21
504 1 10.4327 13.5682 24.7539 22
505 1 16.6382 5.4337 18.8295 19
506 1 14.8344 2.12298 18.7151 18
507 1 9.92831 31.2766 19.7022 23
508 1 10.697 2.878 20.8565 22
509 1 17.4414 4.47598 24.166 19
510 1 14.134 4.97463 21.2707 19
511 1 20.2848 1.72016 19.3828 20
512 1 13.1266 0.636396 25.9923 22
513 1 14.762 5.79274 29.2381 23
514 1 17.2298 1.95928 27.3351 18
515 1 13.2091 31.8052 30.1935 18
516 1 14.9231 1.34711 29.5065 18
517 1 22.5418 11.8597 13.9009 20
518 1 19.3119 8.5389 22.5758 22
519 1 12.4873 4.60241 18.528 19
520 1 14.3636 10.4641 18.908 21
521 1 18.235 11.1394 14.1523 23
522 1 14.7902 5.22613 24.5473 19
523 1 19.7906 3.14265 29.4734 20
524 1 14.6376 14.8929 20.1082 17
525 1 10.554 16.7157 20.6895 22
526 1 18.1821 6.33744 29.0433 21
527 1 16.1457 8.6015 29.737 22
528 1 15.7347 6.7376 26.878 21
529 1 12.4085 14.7511 14.8449 20
530 1 19.6824 16.222 16.6505 21
531 1 11.2117 12.1001 13.406 20
532 1 15.2596 13.7945 14.7484 21
533 1 18.6658 16.1541 21.9003 18
534 1 11.2935 11.6392 19.2428 19
535 1 13.7991 12.8241 17.9251 20
536 1 19.0531 18.5498 25.9812 20
537 1 12.6049 15.3807 25.9527 23
538 1 15.4796 11.5955 26.1806 18
539 1 12.9803 11.4003 30.0599 20
540 1 14.1703 13.4381 23.9549 20
541 2 0.514412 32.2448 25.1256 22
542 2 28.9937 6.64221 22.2985 20
543 2 0.909179 6.61975 18.4696 22
544 2 1.23 5.07074 22.9088 19
545 2 5.55435 2.40819 25.7703 19
546 2 27.6121 2.47895 28.5311 21
547 2 0.53478 8.31734 23.9242 21
548 2 2.64105 34.2081 23.1939 18
549 2 1.40185 1.07849 32.768 18
550 2 32.7873 3.86292 32.1225 21
551 2 1.3869 32.1371 28.5119 18
552 2 6.98828 6.66549 29.8565 20
553 2 0.514907 10.6494 20.4706 18
554 2 30.8996 11.6576 20.1757 20
555 2 0.558826 11.2964 15.5942 20
556 2 6.49104 8.16312 17.9407 23
557 2 27.6997 9.06063 30.046 20
558 2 31.0526 9.01185 25.936 21
559 2 2.95991 9.54222 26.6188 20
560 2 2.02156 12.4859 21.4338 21
561 2 1.28308 6.89539 31.7001 22
562 2 32.7727 10.0858 32.4818 23
563 2 30.7433 14.7079 29.2051 21
564 2 2.00057 8.74472 30.2531 20
565 2 5.32052 11.809 9.7635 22
566 2 30.1618 9.48096 22.9538 22
567 2 0.76583 19.8984 22.8784 17
568 2 31.8789 13.5881 16.1141 19
569 2 0.773745 14.0706 24.4227 22
570 2 0.0283257 14.6418 20.7546 20
571 2 3.4131 18.9611 24.3898 20
572 2 29.2184 17.0091 23.1284 20
573 2 1.51251 11.8076 31.2422 20
574 2 0.363226 14.981 32.3035 17
575 2 31.1391 19.048 28.4856 21
576 2 3.20497 10.9322 28.6186 19
577 2 5.01533 0.0842283 17.7996 19
578 2 8.68613 1.90725 20.5152 25
579 2 32.4398 4.04049 17.5443 21
580 2 5.56976 4.20154 21.5214 22
581 2 5.61987 9.32828 26.6101 21
582 2 3.2139 4.00838 26.4257 21
583 2 31.4879 6.35104 24.1283 18
584 2 5.6153 34.1753 24.5205 22
585 2 5.58864 0.878721 29.7499 21
586 2 3.02014 3.70904 31.5838 21
587 2 4.99559 6.32466 22.5903 17
588 2 3.95985 2.26572 28.706 21
589 2 4.38076 8.87869 23.6679 21
590 2 3.01887 9.76618 21.515 21
591 2 3.47257 16.6731 12.1556 20
592 2 3.0709 6.78351 16.5595 20
593 2 7.15011 10.4678 23.1132 21
594 2 4.7423 12.2759 22.367 21
595 2 3.13766 15.2298 21.5188 20
596 2 5.48694 15.8763 21.3387 19
597 2 4.09861 7.24847 31.4126 23
598 2 3.49416 9.88907 32.4861 22
599 2 6.1847 9.41571 29.7613 22
600 2 10.621 7.383 25.518 16
601 2 4.13081 14.6341 18.8141 17
602 2 6.80889 16.6103 16.4897 17
603 2 3.69716 17.423 17.7009 22
604 2 4.23632 9.38026 10.44 19
605 2 6.05733 13.6431 24.5077 24
606 2 4.90229 12.7618 26.2172 20
607 2 1.18481 16.4154 18.4031 21
608 2 10.5283 13.3355 21.476 18
609 2 5.05647 12.2493 31.6684 21
610 2 2.56676 14.5853 28.8815 19
611 2 0.301898 17.2837 28.7518 19
612 2 5.64349 12.4754 28.6122 20
613 2 8.20577 33.3821 22.2016 22
614 2 14.9108 6.35809 19.4014 18
615 2 8.235 4.76703 22.4137 21
616 2 9.92672 4.71677 19.8085 22
617 2 7.71279 2.74115 29.2483 18
618 2 1.58569 7.32047 26.9674 18
619 2 7.09935 4.12286 27.0888 22
620 2 9.50697 1.78617 24.7209 21
621 2 8.22466 0.457575 31.6533 22
622 2 6.34878 4.53846 31.4025 20
623 2 4.72082 5.86037 28.2884 18
624 2 9.4206 5.22083 29.2434 22
625 2 8.78248 5.16412 25.1152 20
626 2 6.54456 13.2998 20.7539 23
627 2 8.83451 14.7159 16.5569 20
628 2 12.6421 5.97985 20.6033 21
629 2 11.1292 8.21219 28.4654 20
630 2 31.9971 12.27 22.863 21
631 2 9.10098 10.3516 20.6561 22
632 2 7.09946 7.86389 23.2176 23
633 2 8.27275 6.87995 32.0082 21
634 2 6.94275 9.12873 32.2858 22
635 2 8.63341 13.0752 23.5201 22
636 2 7.79797 8.16322 26.3193 18
637 2 9.41351 17.1268 15.4678 20
638 2 32.6712 12.8071 18.7713 19
639 2 2.17563 15.7498 14.9762 18
640 2 7.48579 10.4456 18.0586 17
641 2 11.2319 14.2229 29.2721 20
642 2 6.66882 15.8177 26.6828 23
643 2 9.5612 12.6265 18.5985 18
644 2 8.4563 15.5381 19.3863 21
645 2 7.55459 12.6885 31.5357 21
646 2 3.9739 15.1886 31.5366 20
647 2 5.3889 15.0963 28.827 19
648 2 8.29327 13.9248 27.7474 23
649 2 9.36764 33.0647 27.9852 21
650 2 11.0283 3.64775 26.9261 23
651 2 11.0372 3.41166 22.4533 22
652 2 16.8658 7.63019 19.9853 18
653 2 6.94649 32.8196 29.1745 20
654 2 16.3598 3.03231 25.4195 20
655 2 14.4323 32.3225 26.3906 21
656 2 11.4394 0.630371 31.8427 19
657 2 9.70225 32.0428 32.2325 20
658 2 10.0662 3.92821 31.5116 21
659 2 16.8319 6.02869 30.025 21
660 2 8.82229 9.03064 28.6303 18
661 2 11.3029 8.20063 18.5331 22
662 2 10.5952 8.54746 13.4353 21
663 2 8.73429 11.6186 15.7869 20
664 2 9.05121 5.57542 14.0467 19
665 2 16.4128 6.14634 24.6179 20
666 2 13.4811 5.37851 23.3269 18
667 2 5.9785 9.85408 20.2224 22
668 2 10.0541 6.6794 22.9929 21
669 2 11.2995 6.49202 31.2126 21
670 2 10.0348 9.75973 31.6215 23
671 2 8.26142 11.8244 26.4011 24
672 2 12.4329 12.8452 23.8426 22
673 2 16.3483 12.1621 21.7703 20
674 2 10.1989 19.6607 26.8795 18
675 2 10.0462 20.6943 15.9874 22
676 2 18.4458 11.4622 16.1791 20
677 2 8.80654 11.6215 29.1568 19
678 2 12.6179 11.3842 20.9055 20
679 2 9.08688 17.5939 21.8515 19
680 2 14.1111 15.6013 27.226 21
681 2 11.0375 12.4817 32.3864 23
682 2 7.37816 15.3988 31.1338 22
683 2 9.64511 15.1531 24.2311 23
684 2 11.4845 11.222 29.4673 22
685 2 10.5231 31.5565 23.3504 24
686 2 14.0275 7.50712 25.9003 20
687 2 14.6685 9.25713 20.6681 19
688 2 17.2346 29.6266 21.2659 20
689 2 11.8554 33.9662 25.9859 24
690 2 15.106 3.17324 28.5903 18
691 2 11.4787 8.83294 21.8862 19
692 2 17.4917 34.0083 22.6567 21
693 2 13.4591 32.4724 32.2011 24
694 2 12.98 3.7984 32.218 20
695 2 14.7089 7.43074 28.3352 20
696 2 14.5681 0.996597 31.211 21
697 2 12.3955 2.11334 24.8869 22
698 2 19.4026 7.72222 24.2649 20
699 2 8.28401 3.07262 17.5418 17
700 2 12.0446 11.4127 17.4183 18
701 2 16.0403 0.156893 25.1835 20
702 2 13.5326 4.30081 25.8614 21
703 2 13.8692 16.4338 20.2589 20
704 2 22.2931 7.01944 23.8733 22
705 2 14.5821 6.24396 31.3845 20
706 2 13.1636 9.33423 30.6978 21
707 2 11.4501 12.2631 26.1723 20
708 2 16.3826 9.8783 26.2184 22
709 2 14.7467 9.4098 15.2184 19
710 2 16.3505 19.222 21.5924 20
711 2 14.0642 20.1871 13.4822 20
712 2 12.5459 13.6852 19.2663 23
713 2 9.73586 9.90469 23.5066 21
714 2 15.645 21.2882 27.8556 22
715 2 13.335 18.2256 22.6829 20
716 2 11.9523 15.8262 16.2972 20
717 2 13.5817 11.9251 31.9735 18
718 2 13.2133 15.4294 31.4019 21
719 2 14.0069 17.6916 29.7606 19
720 2 13.7301 13.0107 28.7302 21
721 1 0.0888033 23.0607 62.9623 23
722 1 2.04856 20.3118 0.180022 22
723 1 1.00511 18.3519 4.29897 20
724 1 32.9805 21.0437 2.50908 19
725 1 28.7854 25.4618 10.1695 22
726 1 2.48327 21.5672 3.88113 20
727 1 32.9156 18.4852 6.84017 20
728 1 30.9085 24.6105 7.55359 19
729 1 1.04491 22.3344 14.1651 19
730 1 0.18561 19.9193 14.8763 20
731 1 3.22741 20.1146 13.5387 18
732 1 27.9817 16.9218 11.433 23
733 1 32.9425 28.6485 63.3119 20
734 1 1.64512 25.8258 63.3675 22
735 1 32.4358 25.2661 4.65679 21
736 1 -0.180825 26.6535 2.39602 23
737 1 30.8678 31.7557 9.40747 23
738 1 1.45754 29.2707 2.86934 22
739 1 0.662476 26.8428 9.56193 21
740 1 0.901707 29.8823 7.58617 23
741 1 29.9144 30.2673 6.84692 21
742 1 0.549948 29.7538 9.9244 21
743 1 2.8368 21.5729 16.8636 24
744 1 4.30226 24.4821 12.3513 22
745 1 32.6389 0.0834042 63.2694 18
746 1 1.31007 32.0478 63.0957 20
747 1 2.83243 31.9006 2.23357 18
748 1 1.85519 1.42456 5.63805 23
749 1 1.85333 32.6244 5.6335 21
750 1 32.2447 30.2482 4.95108 23
751 1 32.8903 32.2668 7.3606 23
752 1 30.7894 28.3127 9.2401 25
753 1 3.61426 30.4745 15.0148 18
754 1 2.09193 -0.138944 16.0102 19
755 1 0.771478 26.5713 16.5787 22
756 1 0.395406 31.8136 12.9189 16
757 1 3.37192 23.5559 63.2245 17
758 1 4.64497 19.6061 63.1712 18
759 1 3.57215 19.7126 2.8045 20
760 1 1.05378 24.1606 2.40157 23
761 1 4.10538 23.86 2.76095 21
762 1 4.46686 19.6839 8.89206 21
763 1 32.7531 21.9114 5.35747 25
764 1 29.9163 20.7676 5.06721 18
765 1 31.7997 26.1828 12.1447 18
766 1 3.69289 20.4977 6.15159 22
767 1 5.67923 25.2561 16.8958 21
768 1 5.25315 23.0319 18.6133 22
769 1 3.06023 28.7868 -0.0473635 21
770 1 5.3777 26.538 1.05111 22
771 1 3.37594 26.1932 3.3592 22
772 1 4.55545 29.2054 3.30356 19
773 1 5.66525 27.1192 6.56192 17
774 1 1.74961 23.5528 5.32146 22
775 1 1.69837 23.6545 10.5247 24
776 1 2.75395 26.0682 7.73737 20
777 1 2.83776 27.1121 11.1504 22
778 1 11.9709 26.3183 12.076 20
779 1 5.12801 22.3907 14.3126 19
780 1 4.9074 25.3322 9.42956 21
781 1 3.08957 -0.00749876 62.6049 20
782 1 4.97601 31.1218 0.495871 22
783 1 6.66822 26.4044 4.03719 22
784 1 1.67633 0.0298836 2.41814 20
785 1 3.99748 32.0949 8.52726 21
786 1 5.47298 0.32246 5.66035 18
787 1 3.69125 29.0666 8.74329 24
788 1 32.9947 33.8878 10.2387 17
789 1 4.02215 3.09226 12.2813 20
790 1 5.15271 32.9337 14.4361 17
791 1 5.99238 31.6175 11.2356 22
792 1 28.3992 30.1862 17.082 20
793 1 6.42606 22.5209 0.782466 19
794 1 8.62323 18.8354 0.710194 20
795 1 10.2561 18.4062 2.60339 22
796 1 5.64949 14.0535 2.72107 21
797 1 4.06155 23.9016 6.46326 25
798 1 8.02911 17.2546 3.12627 22
799 1 7.00463 22.1226 10.7433 21
800 1 7.36629 23.4955 14.3548 21
801 1 10.5737 22.2702 14.959 21
802 1 9.33163 17.5055 10.5181 20
803 1 1.50535 17.4758 14.3664 19
804 1 4.4991 18.2827 11.738 21
805 1 6.47682 28.8635 63.1713 20
806 1 8.16332 25.8929 63.2168 17
807 1 6.26223 19.7588 2.16681 20
808 1 6.66674 22.4119 4.04566 23
809 1 9.0838 27.1339 7.17468 19
810 1 7.59081 28.9579 2.11875 21
811 1 4.62921 22.5639 8.97065 21
812 1 6.68996 28.442 9.72586 20
813 1 6.80072 25.8513 11.0114 17
814 1 14.2916 26.7726 9.40677 23
815 1 13.8936 22.2569 12.9848 20
816 1 9.4029 24.1746 12.1664 19
817 1 7.11749 33.547 63.1948 20
818 1 7.98782 31.1609 0.393066 21
819 1 8.41906 29.6777 4.90862 18
820 1 6.03172 32.0478 3.55758 19
821 1 4.33568 1.75313 3.17145 20
822 1 7.39122 30.6407 7.73672 18
823 1 7.22911 24.3325 7.2808 22
824 1 4.73158 31.3978 5.91454 18
825 1 2.74683 4.50901 14.838 18
826 1 7.85379 29.5921 12.199 18
827 1 7.70444 33.5522 12.6459 23
828 1 7.10254 0.98865 14.0948 17
829 1 9.39245 22.5843 0.636549 22
830 1 11.0109 20.298 63.5426 19
831 1 12.115 20.2074 5.12349 20
832 1 12.2384 20.3919 2.27539 22
833 1 11.8349 21.3887 9.0683 20
834 1 9.16394 21.4649 3.29835 22
835 1 14.9343 21.0515 8.75332 21
836 1 11.7478 19.8347 12.785 18
837 1 6.9078 21.3406 7.54143 22
838 1 12.959 24.6566 14.2721 20
839 1 16.2732 14.6096 8.39593 21
840 1 13.664 24.2177 9.35802 22
841 1 10.4131 28.2734 0.190266 21
842 1 11.7045 25.7383 0.640139 23
843 1 9.71167 21.4663 6.5151 16
844 1 8.24749 24.5676 2.13962 21
845 1 11.6917 26.1842 9.45884 17
846 1 10.7262 30.9672 5.82278 21
847 1 18.2124 23.229 2.20475 22
848 1 13.3976 29.9292 8.84665 20
849 1 11.0101 28.6859 11.2978 20
850 1 14.5523 28.9266 11.619 22
851 1 6.79464 20.1196 13.3488 19
852 1 14.5574 28.0037 14.6435 18
853 1 9.81951 0.2475 0.516284 19
854 1 11.0561 31.3347 63.1455 21
855 1 12.3922 29.1054 5.71781 18
856 1 8.35706 33.2719 6.66175 20
857 1 9.94072 3.85663 3.12669 17
858 1 9.0006 31.6471 3.02047 22
859 1 9.96095 29.3336 8.47997 17
860 1 8.98329 0.336622 10.0458 20
861 1 11.5147 0.0660892 11.4183 21
862 1 13.3023 33.8807 8.96541 22
863 1 9.76516 31.3286 13.7328 20
864 1 9.24654 31.6637 11.0268 24
865 1 13.1639 23.0172 0.0941206 18
866 1 14.5499 19.9538 62.7602 20
867 1 14.4797 18.7012 2.55385 22
868 1 16.263 23.7725 7.29279 23
869 1 13.7047 22.1708 4.09452 17
870 1 14.951 20.3093 6.02191 24
871 1 16.5209 22.3844 10.8402 22
872 1 9.59158 14.406 8.59815 18
873 1 16.2362 23.8335 13.707 19
874 1 15.2593 25.1311 11.8517 22
875 1 17.5186 20.549 7.27133 22
876 1 18.3334 21.1565 13.3558 20
877 1 13.4166 28.8915 63.3815 21
878 1 14.6691 25.9004 0.489574 22
879 1 11.7287 23.9635 3.614 22
880 1 14.0195 28.1868 2.54154 21
881 1 11.066 32.5891 8.94515 23
882 1 9.01576 24.1361 5.24587 20
883 1 17.6252 24.892 8.78863 19
884 1 9.93489 23.4534 8.79988 22
885 1 13.0396 31.3928 11.3985 19
886 1 21.5996 28.5587 8.57736 19
887 1 18.4319 28.3151 18.2642 22
888 1 12.4691 23.5018 11.6353 20
889 1 12.9589 0.123424 0.598269 24
890 1 14.6365 32.0324 63.4003 24
891 1 10.6497 29.166 2.58375 22
892 1 10.2228 27.102 4.11363 22
893 1 11.0345 4.22392 8.63959 18
894 1 11.8858 25.9937 6.58578 22
895 1 11.7162 2.56469 6.10058 19
896 1 14.66 0.170192 6.0564 21
897 1 16.224 0.686362 10.5093 16
898 1 11.8289 32.9456 13.5289 19
899 1 11.3129 28.1826 14.8418 24
900 1 13.7625 1.05745 13.7567 20
901 2 32.1277 25.8229 6.60811 24
902 2 26.3722 27.4856 7.6469 21
903 2 28.9444 24.2884 0.409151 22
904 2 32.4816 22.5028 1.28529 19
905 2 5.36916 18.0393 9.23567 22
906 2 3.1489 19.4877 10.9773 22
907 2 30.3554 27.846 13.0231 20
908 2 0.665139 22.4866 6.79955 20
909 2 7.1993 17.5729 11.3262 20
910 2 29.4737 23.1415 22.5688 20
911 2 3.4551 23.8385 23.4498 18