ITEM: TIMESTEP
2000
ITEM: NUMBER OF ATOMS
2000
ITEM: BOX BOUNDS pp pp pp
-30.0 30.0
-30.0 30.0
-30.0 30.0
ITEM: ATOMS id type x y z Coordination
1 1 -10.5509 5.28478 -14.5538 10
2 1 -4.18784 -9.14538 -9.14185 20
3 1 3.22673 11.5736 12.25 18
4 1 6.65267 -10.9491 4.92741 17
5 1 -10.6442 9.10683 -0.573473 20
6 1 11.5131 -10.4547 -11.6106 9
7 1 -10.6384 3.76484 -6.79069 19
8 1 0.0862233 -7.66832 9.47329 15
9 1 -8.2267 0.217634 -10.8192 20
10 1 -13.4814 -9.49181 6.39695 12
11 1 13.4419 2.25375 -10.4201 16
12 1 -4.4588 -13.1767 1.17571 19
13 1 -13.1358 -7.72987 4.00595 16
14 1 1.15798 3.74551 16.4591 20
15 1 2.32143 4.12144 10.5782 20
16 1 -1.19061 11.5479 -11.1841 19
17 1 1.75353 -0.0528397 12.8698 15
18 1 -9.06975 -0.431744 -16.0792 10
19 1 -13.9415 -3.91547 12.2929 13
20 1 14.3132 4.8816 10.3737 19
21 1 1.44529 10.771 -12.5824 23
22 1 3.19445 5.18927 -13.5498 22
23 1 15.0195 2.496 12.0547 15
24 1 -13.0911 3.54314 -9.44753 17
25 1 -11.428 10.4153 9.51784 12
26 1 6.80906 -14.3788 5.53185 11
27 1 2.7433 -13.3075 -10.4523 19
28 1 9.94204 -12.1458 0.886831 13
29 1 -7.93429 -14.7699 -6.52092 12
30 1 -12.6038 -5.74026 10.2852 15
31 1 2.74933 -8.67743 -13.8343 19
32 1 9.77314 -10.8034 -13.8112 9
33 1 -2.81173 4.97657 -16.8903 13
34 1 0.745405 5.69955 13.7604 19
35 1 -1.40404 -11.8258 6.32805 22
36 1 5.90286 -4.30715 13.2148 11
37 1 -13.2353 -0.847637 0.639485 20
38 1 -17.1873 -1.88327 7.56655 13
39 1 -9.25079 2.20542 -3.79907 16
40 1 -4.17001 13.6024 -2.62061 22
41 1 -0.0798803 -15.0631 -11.6585 11
42 1 2.60417 1.08141 -11.9741 18
43 1 5.83122 -5.31358 -10.8613 21
44 1 -1.72787 -3.48447 12.9425 15
45 1 -13.2265 4.47142 0.8956 19
46 1 4.24886 12.3634 -13.3068 13
47 1 1.56008 13.4148 8.78915 20
48 1 -9.09299 7.55855 -7.33479 18
49 1 -0.818347 13.4591 -1.75933 20
50 1 0.924549 -13.0208 2.22712 18
51 1 7.31044 -7.61378 -5.89904 18
52 1 6.00326 -6.43473 -17.1209 10
53 1 -9.93053 10.3345 12.5099 9
54 1 -13.5719 -5.0999 -10.3838 11
55 1 -7.62602 8.37538 -4.28411 17
56 1 -9.23508 -9.79747 6.73167 22
57 1 -1.73049 14.2353 12.4694 10
58 1 -12.5471 6.1956 -7.26993 17
59 1 -6.08466 9.6264 12.7477 15
60 1 -7.81602 -15.4806 7.58685 19
61 1 0.504213 5.88269 7.83981 19
62 1 5.82792 -15.087 -3.65825 15
63 1 4.66541 12.2289 14.8342 13
64 1 -14.1269 1.63015 -10.6775 12
65 1 -13.341 6.77228 -10.6467 10
66 1 6.35391 6.30186 10.6796 17
67 1 12.7728 -3.34571 -9.89791 15
68 1 9.57352 -12.1738 4.35617 9
69 1 -17.2663 -2.34728 3.8943 11
70 1 5.27887 16.1483 5.83054 16
71 1 6.01501 -1.25073 13.4515 18
72 1 -6.64125 -12.4855 5.73508 18
73 1 -11.5707 -1.7399 -1.11704 20
74 1 13.803 4.0947 7.18591 22
75 1 -2.17468 11.2756 9.61796 19
76 1 6.53566 -1.74813 7.09058 19
77 1 -1.84752 -6.14909 -9.53289 17
78 1 -13.6257 7.8247 9.01578 10
79 1 -7.9383 11.1062 -1.45448 16
80 1 -2.75766 8.59609 -10.5858 18
81 1 7.13036 -2.59788 -5.5324 18
82 1 8.63077 12.298 -8.12213 17
83 1 8.75001 -7.45403 1.12573 18
84 1 6.03277 -9.00623 10.4625 5
85 1 -5.10221 15.5508 -4.70839 13
86 1 -9.14615 12.378 4.16961 17
87 1 -8.43078 -4.87594 14.9029 13
88 1 -4.30301 8.52557 7.00205 21
89 1 -6.43864 -5.79456 9.84314 20
90 1 13.4523 -8.43385 -5.45603 13
91 1 -10.1667 2.49533 4.13193 18
92 1 -9.93965 -14.4688 2.71074 14
93 1 10.4532 -7.65302 -5.82139 20
94 1 5.64494 0.329188 -11.9883 20
95 1 -5.78107 -0.216929 -15.1294 15
96 1 -0.469766 12.7644 1.87988 21
97 1 -6.75915 5.6986 -8.76085 19
98 1 2.11557 8.71468 18.7084 12
99 1 0.56973 14.5135 -6.58757 16
100 1 -12.8877 10.9133 0.872424 14
101 1 0.637333 10.969 0.187176 19
102 1 -5.39973 -7.97476 8.43913 20
103 1 15.5023 -0.374837 10.0788 12
104 1 1.25036 -4.68495 -9.77101 17
105 1 5.47594 -7.54769 -8.67292 17
106 1 -0.839655 4.2711 10.3153 17
107 1 6.02583 -0.151418 16.8459 12
108 1 -9.21858 -7.32873 -1.60786 21
109 1 -8.68832 -9.0569 -4.05979 19
110 1 11.7336 -10.3718 2.34841 10
111 1 -1.87983 8.61132 1.71057 20
112 1 7.81812 3.38284 -15.513 14
113 1 6.94075 18.1974 -2.69398 8
114 1 -8.35348 -13.8019 11.719 13
115 1 -10.8014 -14.2864 9.40423 13
116 1 5.32396 -9.01923 -15.6957 12
117 1 4.71309 5.97986 -8.23694 17
118 1 9.67557 -9.65049 -0.712791 17
119 1 -3.04811 -16.3821 4.61435 14
120 1 -10.4415 -9.34462 0.608518 18
121 1 16.6797 7.26479 9.02712 15
122 1 14.362 -3.77842 -6.80456 14
123 1 -16.3356 -4.86824 2.71459 15
124 1 9.89428 7.89047 5.88724 22
125 1 16.2118 9.97763 3.06371 13
126 1 -6.85416 3.47596 16.6542 10
127 1 -4.64495 9.5504 9.86275 21
128 1 -5.16896 12.9022 -6.10956 20
129 1 0.161344 -7.01608 -11.9482 22
130 1 8.9451 -12.7925 -11.5656 15
131 1 1.18636 13.7209 -11.8986 19
132 1 8.13937 -2.73467 11.7598 18
133 1 1.06944 -1.67824 -17.8006 16
134 1 -1.55092 8.75488 -4.92181 18
135 1 9.88506 0.914388 -4.86281 18
136 1 -11.53 9.52463 -6.85035 12
137 1 -8.13256 14.2118 -0.342812 18
138 1 7.5551 2.51616 -12.2872 21
139 1 8.50805 -8.31343 4.21651 15
140 1 -5.49517 5.69612 -5.59387 19
141 1 -7.66211 13.5142 8.74291 11
142 1 13.1313 8.2398 -7.88632 14
143 1 5.67823 13.0795 -0.595012 20
144 1 -3.60443 17.4237 1.11624 13
145 1 10.2856 10.1326 -0.193274 21
146 1 -2.47304 12.0292 -4.42876 18
147 1 0.673891 16.2023 -10.7031 10
148 1 3.46177 10.3109 -15.2726 14
149 1 -13.2453 -10.3687 2.71634 13
150 1 -13.3703 9.23378 -2.06253 13
151 1 -3.72436 -3.51682 -12.1389 17
152 1 2.2169 -11.1269 -16.172 12
153 1 10.5163 13.5576 8.52474 10
154 1 0.234978 15.4487 7.07451 16
155 1 -13.6646 -4.99551 -4.67728 19
156 1 -11.9043 12.0426 4.2769 14
157 1 14.2121 0.0754323 -2.22856 14
158 1 -10.3613 2.07166 -14.7877 11
159 1 6.86861 3.06156 17.1079 16
160 1 4.69915 17.7759 3.33308 14
161 1 -0.952212 8.95377 7.64518 22
162 1 2.70726 -8.28636 -17.361 15
163 1 -3.61046 14.6931 9.27057 13
164 1 -1.81388 12.4028 -8.03604 20
165 1 3.36028 -3.06859 11.9726 19
166 1 -11.9775 -5.32467 3.81848 20
167 1 -2.66206 -13.4832 -13.2237 12
168 1 -9.4039 10.9889 -8.37334 15
169 1 -3.35179 -9.88182 4.7273 19
170 1 3.40823 -15.6521 -5.87953 14
171 1 -4.00773 11.7467 -11.5315 14
172 1 -15.7207 1.31742 8.48464 13
173 1 10.4344 8.60159 -5.34486 16
174 1 -8.11877 5.34519 15.17 13
175 1 -0.21721 -10.4275 9.36273 15
176 1 -9.76202 4.26521 -1.09875 19
177 1 1.82291 16.5273 3.75464 17
178 1 0.412912 7.00592 10.3236 21
179 1 13.9078 5.3709 13.2562 17
180 1 -6.55455 14.2922 3.13113 19
181 1 11.9907 -5.58994 -7.18805 20
182 1 -5.11326 12.3183 10.7691 17
183 1 -5.94109 1.55684 -9.57879 17
184 1 12.007 -6.81589 2.50029 16
185 1 -5.97441 -5.74876 6.00901 19
186 1 -15.7298 0.6059 5.61487 15
187 1 -8.31515 -10.8864 3.66339 18
188 1 6.38035 6.98606 14.7245 20
189 1 -13.973 0.273866 -2.59483 17
190 1 -3.45373 -14.9192 -1.88197 22
191 1 4.89278 -8.46584 -3.31442 14
192 1 -3.87521 9.23298 3.87227 16
193 1 5.39523 14.3996 12.0665 11
194 1 -9.34711 -0.636837 -5.45617 20
195 1 -6.67704 11.7472 -9.01824 16
196 1 -14.9165 -5.27805 -7.2553 12
197 1 -9.33828 -1.84179 10.6245 17
198 1 -0.645538 -9.27277 4.13065 20
199 1 3.97237 -14.4204 7.55503 8
200 1 -13.0134 9.02066 3.84063 12
201 1 15.0032 4.13409 4.60222 18
202 1 5.49537 4.43849 -5.6425 17
203 1 -5.32094 -5.63878 -14.4396 17
204 1 4.06258 0.692259 11.3391 23
205 1 5.79786 -16.372 2.9747 11
206 1 -2.04393 7.51566 -13.1391 20
207 1 3.10182 -11.5415 -12.9444 14
208 1 8.91411 0.619891 -13.4964 20
209 1 3.16824 7.23425 -16.4705 15
210 1 -8.08025 -4.60765 -8.56026 22
211 1 -2.90865 15.6579 -7.14562 13
212 1 -9.86011 -11.1472 10.3015 19
213 1 8.54378 15.7112 -2.54808 15
214 1 -9.61529 2.17796 15.6808 10
215 1 -7.03389 14.2281 -3.2241 18
216 1 7.07555 1.20396 8.91339 21
217 1 -2.59683 -6.29278 -13.1621 20
218 1 -3.61303 10.3896 -7.57906 22
219 1 2.49502 6.50538 -9.55995 16
220 1 -7.22545 -11.9606 8.02199 17
221 1 -9.00607 5.52306 8.31416 15
222 1 -7.75556 7.80861 9.82839 17
223 1 0.410043 -11.729 -8.51104 18
224 1 -6.40782 -14.6035 -0.584458 20
225 1 9.6016 -11.8036 -2.41287 13
226 1 11.9423 8.12331 13.3284 18
227 1 6.28408 10.7887 -8.35338 24
228 1 0.0457371 10.4605 -2.61263 17
229 1 -10.1077 0.115341 1.77161 20
230 1 -12.5043 12.1912 -2.27713 12
231 1 3.47589 6.54588 9.21585 16
232 1 3.85104 -17.3722 0.0668593 14
233 1 9.47386 1.65223 -1.75633 19
234 1 2.18952 9.22588 5.47326 19
235 1 -8.62929 4.72962 4.79455 17
236 1 -11.5016 -7.04474 -4.67294 19
237 1 6.43122 5.32379 -13.0965 23
238 1 2.62837 -1.01817 9.71723 21
239 1 8.65046 9.96816 -10.561 17
240 1 2.75729 -10.5927 -4.49243 19
241 1 -2.41617 -1.24169 -10.6729 17
242 1 -0.311906 -17.209 3.97368 13
243 1 8.18763 -0.684497 -7.10242 20
244 1 -10.5271 -2.58126 5.80619 16
245 1 2.96428 -15.4629 -2.482 18
246 1 -10.676 -5.69721 -9.60484 17
247 1 5.09208 15.5166 -2.15969 19
248 1 1.60388 -3.33495 -14.354 20
249 1 4.67845 4.4496 15.1412 17
250 1 15.3977 3.56677 1.4413 15
251 1 10.8245 -5.38278 -10.3853 17
252 1 -8.05308 -3.00013 -10.8215 21
253 1 -11.2659 -0.634836 -10.5356 21
254 1 -8.50547 -16.7297 10.2023 11
255 1 10.2618 1.52827 10.0034 19
256 1 4.53173 -2.87888 7.49588 22
257 1 -5.49981 -8.84884 -12.1108 18
258 1 1.1604 7.82577 -14.0637 19
259 1 4.7801 8.68268 1.50661 19
260 1 -7.3087 -5.2623 2.42115 16
261 1 2.0923 14.358 1.31375 20
262 1 -7.33195 -3.15701 12.2233 21
263 1 -10.3633 -8.85405 -9.56757 14
264 1 -5.85161 -5.74017 -11.649 20
265 1 -2.26447 8.31936 -16.0368 14
266 1 -5.84695 -8.50677 -6.20338 20
267 1 -2.59523 -8.5313 1.61944 19
268 1 9.81094 -4.79536 -15.6353 10
269 1 13.6778 -0.573838 -8.34204 16
270 1 12.4656 4.34267 2.59099 23
271 1 -9.56754 -4.82904 10.3514 20
272 1 -4.04595 -12.2563 -1.28789 17
273 1 8.59651 5.5905 16.0566 18
274 1 -8.30312 -16.6863 3.91534 15
275 1 -0.935275 -13.2799 0.0504591 23
276 1 -2.15683 16.5714 -1.50705 17
277 1 6.03993 -0.934959 -14.6473 18
278 1 -6.74935 -3.0179 -15.8492 11
279 1 -10.9554 -8.64137 12.1902 12
280 1 5.11361 7.82671 19.717 10
281 1 1.36161 -12.6451 -2.23978 22
282 1 -4.2754 -12.1534 -10.4778 20
283 1 -9.99283 5.07974 -8.80362 21
284 1 11.3266 4.95278 5.25234 20
285 1 -4.52994 4.41543 -9.15872 20
286 1 0.566283 8.40547 -10.7236 19
287 1 7.79098 -15.3453 -10.0844 12
288 1 -5.59641 16.4748 -1.56152 14
289 1 3.17344 12.7066 5.61007 22
290 1 11.1303 1.62318 6.32919 20
291 1 -8.79316 -0.377361 4.73087 19
292 1 -3.13526 -6.8085 10.3133 16
293 1 -6.67891 9.75822 4.37542 19
294 1 2.80406 -5.10701 -12.6795 23
295 1 14.9029 11.0271 -3.17162 9
296 1 3.69242 -10.1946 -0.800653 21
297 1 -2.80207 -1.59945 15.1571 13
298 1 -16.5902 -4.69063 6.37236 12
299 1 0.153408 -16.8463 -5.63011 13
300 1 -8.39489 8.26422 12.9232 17
301 1 -10.1557 6.15302 12.9566 13
302 1 -14.9941 -3.95725 8.90911 17
303 1 -13.6591 -6.23749 6.92076 18
304 1 16.2951 -4.70065 -1.52062 9
305 1 -11.2533 -8.27959 8.61867 17
306 1 8.94269 -3.32553 -9.5056 21
307 1 10.6013 -13.5186 -5.27683 9
308 1 3.1981 17.8101 -3.39198 11
309 1 -10.0795 13.9404 -3.4801 10
310 1 11.3999 7.67072 10.5898 21
311 1 -11.1217 -2.57981 2.61602 19
312 1 8.01954 -9.39617 -3.76827 17
313 1 -3.92714 11.6479 1.8813 19
314 1 -7.00965 7.3019 6.09626 18
315 1 4.34127 -12.105 6.18577 15
316 1 12.3842 -4.64119 4.9471 15
317 1 -3.38379 6.03147 6.66764 17
318 1 -7.4724 -2.8972 -6.00979 20
319 1 -1.79602 0.54604 17.4607 9
320 1 -2.56874 12.6445 4.64993 18
321 1 9.7145 8.15498 15.568 17
322 1 -8.1018 13.6679 -6.41861 10
323 1 0.829282 -5.5147 -18.0891 15
324 1 6.86446 -10.1101 -12.6052 15
325 1 -9.58547 2.84317 12.4642 22
326 1 -15.4844 3.34913 2.87242 14
327 1 -4.86769 -5.83704 -8.73542 19
328 1 -5.29793 9.04877 0.952781 16
329 1 9.20935 -0.710263 7.68469 18
330 1 -10.5126 -12.1615 1.49833 14
331 1 6.28716 -8.79245 6.90748 17
332 1 -8.1968 -10.6468 13.019 14
333 1 -12.6965 8.09485 1.29389 17
334 1 -1.08004 -4.96407 9.85136 20
335 1 3.2983 -12.1219 -7.4717 19
336 1 -4.81932 -3.05133 -9.02449 18
337 1 8.97881 -2.12059 -15.0173 14
338 1 3.84771 13.9932 3.66483 20
339 1 -11.6462 -1.39519 -3.77181 20
340 1 5.61891 -7.15255 -12.9686 14
341 1 10.0624 4.36717 -13.6556 14
342 1 -4.97587 -14.3912 -8.02433 17
343 1 -14.4746 -8.20764 -5.35289 12
344 1 -3.47411 -9.56158 -1.18478 20
345 1 12.0586 5.72468 15.956 12
346 1 11.0624 4.37941 -1.84521 18
347 1 -7.83309 3.93149 -10.6629 19
348 1 3.44505 16.6348 0.92266 18
349 1 -14.7966 -2.03838 -5.50206 12
350 1 -9.07085 9.79731 5.94336 17
351 1 -7.32306 11.2963 1.85179 18
352 1 -6.07918 5.44565 8.36048 20
353 1 10.542 5.25878 13.0992 21
354 1 10.6464 -2.69915 -4.8815 15
355 1 8.26321 -2.69429 15.6475 11
356 1 11.5207 1.4529 -7.13482 21
357 1 -6.34985 -16.0819 -3.52538 13
358 1 1.07806 -7.794 -5.43423 13
359 1 -0.97614 10.5465 4.05889 21
360 1 -9.86719 1.04956 -8.28527 18
361 1 4.46437 -11.9363 -2.60409 20
362 1 12.601 -0.784323 8.44885 24
363 1 -10.3186 -3.89624 -5.70454 20
364 1 -5.60002 -9.99191 2.5342 18
365 1 -8.49054 -7.15747 13.0358 18
366 1 -2.65728 11.5638 -0.491336 18
367 1 -11.8566 -9.84031 -3.18872 18
368 1 7.52087 10.6958 15.6111 15
369 1 -10.1632 6.95824 -2.48235 20
370 1 1.25867 12.0013 -8.91426 20
371 1 6.0561 12.8221 6.93896 21
372 1 -14.8906 -8.60678 -2.19795 14
373 1 -1.47716 -8.39029 -7.22974 15
374 1 -13.9403 -0.920128 7.06753 20
375 1 -12.8135 7.09046 -4.31172 15
376 1 5.64796 -7.30279 4.33482 19
377 1 -4.99731 -13.6942 -4.5588 19
378 1 12.3553 10.0779 5.5911 19
379 1 5.39121 8.35295 -14.5416 15
380 1 -13.1763 4.03773 -12.4657 12
381 1 -2.47654 16.2991 -10.2282 9
382 1 -8.94815 5.60595 -5.09483 18
383 1 -1.51796 -11.3997 2.1268 18
384 1 13.1592 6.93619 5.18656 18
385 1 0.380318 9.3558 -16.0382 14
386 1 -3.90808 1.22832 10.402 20
387 1 -15.5087 1.57218 0.0277744 16
388 1 -8.46738 2.63089 7.0036 20
389 1 -3.86705 -13.5832 4.50952 20
390 1 8.97507 -10.1136 -9.72994 17
391 1 -11.8977 -0.293761 4.71793 19
392 1 -15.3833 -1.16935 10.49 15
393 1 -13.1573 6.60384 6.55268 12
394 1 -0.0873194 -5.85001 7.14413 19
395 1 -8.10214 3.00413 -16.4187 8
396 1 8.98217 -10.7839 -6.86326 21
397 1 -0.178792 -9.56095 -13.6495 23
398 1 -4.65081 -3.59876 11.1316 18
399 1 -4.87726 3.00309 -14.803 17
400 1 5.97449 -12.6942 1.31856 16
401 1 3.67814 12.0356 -7.07051 23
402 1 -13.3419 10.2463 6.60395 11
403 1 -5.69035 -3.19836 15.2576 11
404 1 -10.7517 -6.62008 -12.1008 12
405 1 -8.44862 -6.79571 7.6345 18
406 1 10.2222 -4.84654 9.89957 11
407 1 3.55663 -0.0622856 -9.50261 16
408 1 8.95556 -6.59483 7.2593 16
409 1 13.8942 8.33871 -4.56949 16
410 1 -2.95382 3.10112 12.9704 17
411 1 4.92386 11.742 -3.57513 22
412 1 5.27054 -5.95902 7.32006 16
413 1 -2.07931 -13.8157 -5.57128 22
414 1 -2.53199 6.80258 17.3857 9
415 1 -2.79695 16.5348 6.82297 10
416 1 -8.87034 -10.5256 -7.11604 17
417 1 8.82666 15.1638 0.963575 17
418 1 4.8792 7.70416 7.22213 16
419 1 -7.21397 2.09445 9.74301 20
420 1 -6.19247 -7.71366 -3.26667 18
421 1 -11.7855 4.45636 10.6709 18
422 1 -8.41584 -7.32817 -6.88817 22
423 1 -6.61179 10.6783 8.36577 19
424 1 -5.37045 -11.4501 -6.89338 20
425 1 -3.28687 -8.50931 -15.2525 13
426 1 -7.15348 -13.617 2.65015 22
427 1 8.14021 -0.214041 5.04669 18
428 1 -5.88861 -5.75024 13.3953 13
429 1 -10.4311 5.88831 -11.8511 16
430 1 7.83913 4.70618 -0.623503 20
431 1 -8.04901 -13.7734 -3.55074 16
432 1 -0.226207 16.3832 0.94287 15
433 1 0.922152 7.11624 -7.57713 18
434 1 -1.58982 8.74701 11.3533 23
435 1 -14.1166 -2.64189 -2.22401 16
436 1 -0.195281 18.1532 -4.20214 9
437 1 6.29735 12.9763 -6.29307 21
438 1 -7.86919 -7.58073 -10.0784 20
439 1 3.75578 2.01532 16.9586 16
440 1 0.224169 -14.6086 -8.38585 15
441 1 -0.51027 -4.07221 -12.4166 23
442 1 8.38809 -14.5175 2.79838 11
443 1 -10.0584 9.49073 2.71949 21
444 1 3.50238 6.164 12.789 22
445 1 9.59337 8.92251 -2.60004 21
446 1 3.63712 10.5275 -0.612605 21
447 1 -8.47473 8.47086 -10.1197 16
448 1 4.90904 2.53244 -8.56955 14
449 1 3.13762 -9.26355 4.85554 24
450 1 -15.0596 -5.12402 -0.581142 14
451 1 2.51075 18.1066 6.20755 9
452 1 -4.56546 4.0108 -11.7183 22
453 1 11.3966 7.21311 0.408469 20
454 1 6.31411 14.6307 -8.37591 13
455 1 7.23641 -5.15379 -2.98428 18
456 1 15.3162 3.01779 -1.75826 12
457 1 -1.07777 -0.923239 -13.3404 19
458 1 0.750316 -10.4179 -0.251115 15
459 1 -0.176703 -14.2653 4.48832 19
460 1 2.37226 -11.1531 8.04071 17
461 1 -7.41721 3.35329 -7.15861 18
462 1 -9.99769 -13.9287 6.20562 18
463 1 -0.969416 -12.2276 -11.0527 23
464 1 8.32921 14.9551 6.85143 14
465 1 1.42159 4.4165 -11.6932 16
466 1 3.29151 -0.632687 15.3791 14
467 1 -13.9478 1.96977 10.846 14
468 1 -1.50826 -16.8379 -0.599445 19
469 1 -12.9596 -4.3241 1.05468 21
470 1 15.2121 -5.80094 -4.59224 10
471 1 10.9452 -0.768033 -2.09145 16
472 1 -4.50923 8.2011 -4.79495 17
473 1 1.89407 -8.4821 -8.6706 14
474 1 4.61111 3.65647 -11.116 19
475 1 11.6548 -2.44029 -7.1249 21
476 1 -6.77575 0.242456 15.437 15
477 1 6.20278 14.681 1.83906 22
478 1 -3.57944 -2.68218 -15.1911 16
479 1 5.55117 2.33045 -16.9667 15
480 1 -6.49856 -2.19646 6.90686 15
481 1 -2.74798 14.6075 0.620945 19
482 1 -8.48402 -1.39835 -13.3757 18
483 1 -15.4903 0.307276 2.78765 17
484 1 -1.03553 -11.5411 -15.5264 12
485 1 -6.20901 -11.7305 10.8022 17
486 1 -0.865817 9.26797 -8.27964 21
487 1 17.0595 4.16866 9.34541 13
488 1 15.4276 6.08384 -0.601368 11
489 1 -9.74475 -11.3485 -1.99707 16
490 1 -0.239763 -9.39439 -2.82225 20
491 1 -2.04253 -3.20741 -18.1984 12
492 1 -8.06263 10.9769 10.7676 16
493 1 3.49563 -3.67536 -9.25946 21
494 1 12.0836 -1.92264 0.366214 17
495 1 2.79362 14.7002 -8.76211 17
496 1 4.56411 -8.50895 1.5593 20
497 1 13.3362 4.54274 -8.09153 17
498 1 4.34292 9.28006 13.8952 20
499 1 -9.7175 2.96877 9.54235 17
500 1 6.30186 10.3356 9.36881 18
501 1 8.59976 0.142904 17.7964 10
502 1 1.2401 2.57693 -14.1582 21
503 1 -5.97881 -5.84004 -5.8635 21
504 1 0.365359 -2.64296 10.6964 19
505 1 9.31655 11.4092 7.08412 23
506 1 6.99809 7.67999 -10.2413 21
507 1 -6.70597 9.77997 -6.43762 14
508 1 1.93539 12.6192 -4.03903 17
509 1 11.1478 -1.80313 13.4546 12
510 1 10.7139 2.51387 -11.1685 22
511 1 12.8274 -10.0642 -2.37024 10
512 1 12.8618 10.6798 11.3437 13
513 1 -14.8902 -7.88172 1.05314 13
514 1 -7.11863 10.1873 -11.4137 12
515 1 1.37639 1.26799 10.3743 18
516 1 -13.3098 -0.822949 13.0024 15
517 1 -3.95777 13.3002 -9.12587 14
518 1 4.4563 -12.8141 -5.34786 19
519 1 5.70743 -2.73971 -8.22931 18
520 1 -1.85503 15.5615 -4.32845 17
521 1 -8.39568 -4.95332 -13.9346 14
522 1 3.14199 -14.5977 2.88622 19
523 1 -12.4575 -6.82654 -0.791278 20
524 1 1.26786 12.9567 -15.2335 11
525 1 -0.902386 8.88212 15.1642 17
526 1 -11.0105 -5.35375 7.56657 18
527 1 4.75306 8.46612 -3.21345 19
528 1 4.16741 -10.4219 -9.69805 21
529 1 4.23202 -5.26866 10.4592 17
530 1 -10.2258 6.72965 0.885378 17
531 1 5.299 5.43809 17.8551 16
532 1 6.5744 16.6022 -5.48074 12
533 1 12.0727 -5.57376 -4.19347 17
534 1 3.58751 8.53449 10.791 21
535 1 0.771054 4.76333 -17.8123 11
536 1 -5.43057 -15.0688 10.4553 11
537 1 -0.557481 1.87585 -11.2097 20
538 1 8.18694 0.272857 -16.8608 12
539 1 2.65602 15.2938 6.83398 17
540 1 9.32007 5.94226 -11.4108 17
541 1 -0.941386 -3.48726 -15.6486 20
542 1 -4.09156 -10.6451 -4.262 19
543 1 -10.9266 -3.43345 -11.8896 19
544 1 13.1064 4.21993 -0.305754 19
545 1 13.9424 5.31245 -3.45044 18
546 1 9.05036 -6.85925 -8.19571 19
547 1 14.2481 7.66331 10.9295 17
548 1 5.75591 -10.3163 -6.88768 18
549 1 3.0384 4.08419 -16.2082 17
550 1 7.89345 12.079 1.4957 23
551 1 -8.54749 2.92997 1.68572 17
552 1 10.5601 11.0046 14.2006 10
553 1 10.6009 6.50341 -3.37908 18
554 1 14.1311 -1.17607 3.20966 13
555 1 10.4917 4.15185 -8.53141 20
556 1 7.75655 3.38767 13.8575 22
557 1 16.8189 5.48976 12.0113 10
558 1 2.33195 -4.68045 8.4369 19
559 1 13.6452 13.5114 -3.51217 9
560 1 0.823135 0.609523 16.1727 14
561 1 14.3834 -0.609547 -5.60168 16
562 1 8.3251 3.89023 10.598 20
563 1 -7.79309 -1.36304 -8.3333 21
564 1 14.4212 6.74311 2.50794 20
565 1 8.9851 -5.72787 3.4222 20
566 1 -12.0799 7.99159 11.6357 11
567 1 9.63405 10.9249 10.7628 17
568 1 10.7362 1.97397 12.7001 17
569 1 3.26176 10.6062 8.29198 18
570 1 1.57887 14.4811 11.6753 12
571 1 8.31418 2.75331 6.55156 19
572 1 -2.48661 -18.2906 1.81376 13
573 1 -6.12147 10.9463 -3.5961 16
574 1 11.467 10.8317 -8.35014 15
575 1 10.5603 -2.56317 -12.5836 16
576 1 1.41763 15.954 -1.86664 16
577 1 -2.37493 -12.0621 -8.00835 21
578 1 10.8939 -7.47732 -13.4978 10
579 1 -14.1968 2.62546 5.76399 17
580 1 -5.29872 7.30558 -11.4027 19
581 1 -4.87258 -16.4394 2.09126 20
582 1 -5.64954 -0.981861 -11.0454 17
583 1 -11.8929 1.65602 -5.29466 18
584 1 11.7747 -8.12903 5.15373 9
585 1 12.7964 11.8303 3.34761 19
586 1 0.718553 -9.05486 6.71883 20
587 1 -13.6485 -1.59965 -8.96675 16
588 1 2.16127 1.31209 -17.4904 15
589 1 -1.65145 3.56934 15.9018 19
590 1 6.40815 10.0293 -12.543 16
591 1 13.0156 0.162852 12.0231 16
592 1 8.74135 4.88558 -6.15764 14
593 1 12.1624 14.4636 2.31251 9
594 1 4.93334 -14.922 -8.41198 14
595 1 -10.7743 -2.96979 13.2124 19
596 1 12.692 -1.71583 5.60827 17
597 1 -0.234484 11.6574 12.7859 17
598 1 6.54736 12.4854 -10.696 16
599 1 -13.4823 10.1688 -5.00523 10
600 1 9.26653 10.451 3.53528 23
601 1 -9.914 -14.1419 -0.72089 14
602 1 11.2725 -3.35949 2.6535 18
603 1 7.90911 16.6169 3.72969 12
604 1 -4.28332 4.66298 11.0162 17
605 1 -10.2591 -6.62003 1.70136 17
606 1 -10.1107 -2.47912 -8.67549 23
607 1 7.69998 0.934663 11.8667 21
608 1 -3.13184 -10.1882 10.7053 14
609 1 8.53664 6.77462 12.3151 19
610 1 -5.50823 13.2536 0.248685 20
611 1 9.70053 5.22582 1.78783 23
612 1 8.29458 5.37905 4.79574 23
613 1 1.27292 -0.439166 -15.2039 20
614 1 -8.55504 -0.426927 7.98858 15
615 1 8.84115 -0.625881 -11.1051 21
616 1 12.2051 -10.8954 -5.65582 11
617 1 9.32287 5.31932 7.81847 13
618 1 -10.2214 -0.0879327 13.8465 19
619 1 11.5251 10.148 8.46429 21
620 1 0.134684 -1.84141 15.4751 12
621 1 -1.94603 5.82109 13.3771 19
622 1 0.486046 -6.5027 -14.797 20
623 1 -5.96112 2.59666 12.9015 21
624 1 5.23377 3.27531 11.0888 23
625 1 -11.1848 -17.0222 7.9389 11
626 1 13.0167 8.49888 -1.64472 17
627 1 7.41067 -13.1331 -4.93303 21
628 1 6.86785 9.91893 -1.17152 23
629 1 9.55207 13.8836 4.08214 19
630 1 4.70346 -0.760277 -17.0468 16
631 1 4.33397 14.5161 -4.64374 17
632 1 13.2358 9.78576 1.28112 19
633 1 -6.89779 -9.9022 -1.13915 19
634 1 -1.52346 -0.448116 -16.6201 15
635 1 -10.4292 12.5353 -0.0251055 17
636 1 8.5291 -7.63409 -11.4647 18
637 1 10.7717 8.18455 -10.3122 13
638 1 10.8519 13.2289 -2.65077 14
639 1 -7.43461 5.38845 0.712177 19
640 1 4.99984 9.23495 -6.09858 17
641 1 12.7142 2.83852 14.5231 14
642 1 9.93344 0.349849 14.9953 15
643 1 -2.84407 -12.7895 9.64731 13
644 1 -4.36938 9.48998 -13.5509 16
645 1 4.28068 13.1281 9.87059 19
646 1 8.61084 -8.31914 -15.5133 11
647 1 3.9086 2.16125 8.34453 18
648 1 7.56609 13.4469 -3.70808 19
649 1 6.96736 12.6 4.57882 19
650 1 14.7843 -7.79922 -0.242534 9
651 1 7.46932 7.99258 17.5781 13
652 1 -13.4811 -3.60422 6.07096 19
653 1 1.04171 -15.572 0.141411 21
654 1 0.856288 -1.76856 -11.0026 20
655 1 -9.48564 14.4697 2.63271 12
656 1 2.23575 11.0144 2.62874 23
657 1 -14.2518 -2.29985 3.37356 23
658 1 -0.643534 3.70368 18.4546 11
659 1 -4.40089 6.39708 -14.3447 18
660 1 -7.90305 7.74933 -13.366 13
661 1 3.32017 -13.2104 0.160275 20
662 1 8.35732 9.30919 -7.21127 19
663 1 -13.8386 5.01016 12.3402 9
664 1 5.36372 -3.29835 -13.4121 18
665 1 1.0156 -13.7375 7.88834 10
666 1 2.68405 13.3771 -1.10984 18
667 1 -4.23193 1.48246 15.6133 15
668 1 -8.0486 -8.06651 -13.3148 12
669 1 -3.26304 -10.6607 -13.2199 15
670 1 -7.39224 -13.0939 -9.08462 10
671 1 -0.279965 16.9177 -7.59691 14
672 1 7.59366 -4.77307 -7.9285 18
673 1 -3.48716 11.7606 7.41276 20
674 1 6.9274 -12.5904 -8.73214 23
675 1 6.30232 -15.44 0.0810538 13
676 1 3.47653 -7.92325 8.26045 16
677 1 15.3115 2.07172 -7.69688 12
678 1 1.14985 -13.4552 -5.32828 24
679 1 -12.3636 -2.75502 9.79227 20
680 1 -4.51797 -17.4825 -1.09692 13
681 1 -7.56096 -11.3584 -4.46997 20
682 1 -11.089 0.54318 11.1113 18
683 1 -7.80745 -16.6443 0.942543 12
684 1 15.1636 5.26473 -5.98777 11
685 1 -4.17186 16.4498 3.6122 12
686 1 -15.0675 6.7478 3.69969 11
687 1 9.62829 -0.0325907 1.74939 19
688 1 -13.8989 -1.76956 -11.7106 10
689 1 0.145483 11.1425 -5.70778 19
690 1 8.35969 1.65608 -8.46995 20
691 1 7.21603 11.5537 12.8354 15
692 1 7.25925 6.39694 -2.84544 17
693 1 -13.8143 1.16926 -7.1936 13
694 1 -12.2471 -6.82163 -7.56427 17
695 1 0.093123 6.53205 17.3936 16
696 1 4.09136 7.24234 -11.8743 23
697 1 12.1515 13.2714 5.88101 13
698 1 -2.58119 -1.3699 9.97469 22
699 1 -2.9151 -16.3693 -4.11985 15
700 1 -8.97881 -18.1205 6.85837 11
701 1 -4.36459 -4.25554 8.07739 19
702 1 14.5126 9.89156 8.16344 15
703 1 3.15145 -6.84841 -10.1519 19
704 1 -7.33806 8.12677 -1.06175 19
705 1 6.75563 8.19476 3.90047 14
706 1 -8.979 -5.09489 4.92699 16
707 1 8.80384 7.78835 -13.1641 15
708 1 -2.48979 -16.0857 -7.3266 12
709 1 0.607908 -18.3336 0.922546 14
710 1 -0.26652 -15.4242 -2.79758 22
711 1 7.55916 4.30409 -9.78726 18
712 1 6.45403 16.9927 0.308136 14
713 1 -2.65188 1.39502 -13.8545 18
714 1 -1.34934 -0.334425 12.0641 17
715 1 -0.414919 5.84018 -15.1214 17
716 1 -11.7779 -0.402838 -13.6884 12
717 1 -11.1782 -4.81256 -2.92289 20
718 1 2.40844 16.5849 -6.24251 12
719 1 -2.67253 -5.99155 -16.3001 15
720 1 -7.15067 -8.03498 0.85996 19
721 1 11.6483 6.37726 -6.41617 21
722 1 9.73994 -5.05267 -0.300507 22
723 1 -5.77694 6.57462 12.7212 20
724 1 7.58602 -10.1357 2.1661 19
725 1 13.6061 -4.90526 0.391775 15
726 1 13.3645 -2.88671 10.5097 15
727 1 0.182014 11.6071 7.03281 18
728 1 -12.2716 2.28973 13.3213 14
729 1 -7.62389 5.19938 11.3161 21
730 1 -4.07659 -14.0843 7.37791 18
731 1 10.0878 2.93359 3.64255 20
732 1 6.95112 9.15065 11.816 18
733 1 -15.9036 -2.18867 0.748552 17
734 1 10.0247 -6.84669 -2.52944 16
735 1 -11.2051 12.4899 -5.61362 11
736 1 2.9198 -16.8738 5.55637 8
737 1 5.03183 1.60274 13.9315 22
738 1 0.619664 13.245 4.67341 20
739 1 1.43891 -12.02 5.27027 19
740 1 -8.75285 -2.34565 -3.1583 22
741 1 2.45437 3.10814 13.5991 22
742 1 -15.9573 -6.03955 -3.74539 10
743 1 1.86813 10.2261 15.3315 16
744 1 5.02035 11.5366 1.94096 21
745 1 -11.2995 -10.9745 4.50789 15
746 1 -6.17041 -15.6681 4.79371 17
747 1 7.75423 -4.38423 7.82064 17
748 1 11.0199 -3.47377 7.69259 20
749 1 7.48814 8.86879 6.28217 16
750 1 1.33724 -9.80313 -10.9887 19
751 1 -3.19207 1.44087 -10.7234 20
752 1 -4.48126 -0.890299 12.6899 21
753 1 -1.57616 15.6123 3.47495 16
754 1 13.5797 1.7786 4.14672 18
755 1 2.82173 8.96441 -7.60275 20
756 1 -4.17653 8.38563 14.944 13
757 1 8.6203 8.37208 9.06559 19
758 1 8.01939 -3.84035 -12.6273 20
759 1 -7.64814 -11.8037 0.625729 19
760 1 14.5562 0.792384 6.62203 15
761 1 6.35611 -2.00183 -10.5668 19
762 1 2.68224 7.12612 15.6754 20
763 1 9.98734 -13.485 -8.53284 13
764 1 5.90044 5.53269 -16.4488 13
765 1 -2.34068 -8.33838 -4.18894 16
766 1 12.5044 5.28557 -11.3496 11
767 1 14.6073 -2.22649 -0.178679 13
768 1 0.799053 -5.58118 11.6516 14
769 1 -1.83614 -9.19724 -10.5103 19
770 1 8.35059 12.2716 -1.44395 22
771 1 -12.2993 4.90691 3.83356 17
772 1 11.7035 3.69911 -4.81509 19
773 1 17.0879 7.27446 3.98252 9
774 1 3.38528 -5.32743 -16.2579 16
775 1 -6.08067 12.2262 5.97696 19
776 1 17.2777 9.1934 6.39327 11
777 1 11.8005 13.2022 -6.04969 11
778 1 3.60168 1.62399 -14.5967 19
779 1 9.43298 -2.98909 -2.4467 16
780 1 -11.4169 1.40214 -0.914211 19
781 1 11.3382 8.36202 3.19037 22
782 1 -13.2943 -10.008 -0.383318 13
783 1 -11.4805 8.55732 -9.66261 13
784 1 6.30527 4.64131 7.91854 19
785 1 -11.9565 -1.08356 -6.77173 19
786 1 -11.1673 4.3374 6.83286 16
787 1 -1.86106 3.19005 -8.57911 17
788 1 11.4462 -8.75398 -8.52217 15
789 1 -12.0521 -9.5317 -6.82138 14
790 1 12.0699 -7.23529 -0.773442 18
791 1 -16.1799 5.22411 0.71785 11
792 1 -8.04697 -5.44277 -3.68637 19
793 1 13.4009 7.16595 8.25018 21
794 1 -6.50865 -9.00097 5.64445 21
795 1 10.3723 2.90323 16.818 14
796 1 14.7381 -3.10115 7.69438 10
797 1 9.1952 -2.99128 4.67758 19
798 1 -12.7947 1.56104 2.2273 21
799 1 0.61468 10.0691 10.0685 18
800 1 4.28126 9.439 -10.1054 19
801 1 -0.479994 -8.89956 -17.1904 13
802 1 -5.03601 14.6971 6.16056 15
803 1 -11.457 -11.5381 7.48602 16
804 1 9.47956 11.3861 -5.39473 19
805 1 0.91115 8.61527 13.1168 22
806 1 14.5537 -2.92064 -3.44741 13
807 1 7.39383 -5.71664 10.788 15
808 1 -1.39651 13.7749 -12.9567 13
809 1 3.58501 12.4601 -10.5062 19
810 1 -5.86066 -0.804146 9.60796 19
811 1 15.9636 5.95568 6.56037 17
812 1 -1.75329 -3.49495 -8.54057 17
813 1 14.0374 12.2654 0.0517503 12
814 1 -14.0356 3.53356 -1.85968 14
815 1 -4.38261 -10.9893 7.91134 20
816 1 4.50539 15.2256 -11.241 12
817 1 5.93318 -1.2832 9.90814 18
818 1 -1.48282 -12.167 -3.11815 21
819 1 -7.03247 16.8071 1.4423 12
820 1 -13.0879 6.14477 -1.15683 19
821 1 10.7707 -0.636543 -9.2661 22
822 1 0.895385 -13.347 -14.0266 13
823 1 -8.15844 6.94922 3.45586 15
824 1 14.2962 10.9438 -6.14147 10
825 1 -5.26258 2.33689 7.44633 18
826 1 6.64689 -3.29312 -16.5408 14
827 1 -6.75378 -10.1327 -9.25653 17
828 1 -0.427691 -10.8467 -5.48812 21
829 1 -3.29426 10.8561 13.0314 16
830 1 7.1075 -13.116 -1.79016 14
831 1 -1.67629 11.0147 -14.247 15
832 1 13.908 2.13414 -4.70017 16
833 1 8.48509 8.22094 1.05432 22
834 1 1.2222 -17.9662 -2.25257 13
835 1 3.63809 -3.28494 -18.2007 9
836 1 11.4513 2.12321 0.963759 18
837 1 -1.73197 3.98608 -12.896 23
838 1 -2.36037 -8.34346 7.42576 20
839 1 7.08865 10.1518 -4.24035 20
840 1 6.42491 1.53541 -5.76651 20
841 1 -11.5265 4.4478 -3.75611 21
842 1 -14.0753 4.20495 8.70054 14
843 1 2.49243 5.20329 19.2253 11
844 1 -8.20411 -8.69258 9.85127 22
845 1 4.88614 10.046 4.57369 20
846 1 -2.01805 -14.7966 2.39821 22
847 1 1.67474 8.72551 -4.36524 19
848 1 -2.70786 6.47329 9.57424 20
849 1 -7.48945 0.116962 12.2878 21
850 1 -10.7578 12.3689 7.37169 12
851 1 7.62855 3.03992 -3.35027 21
852 1 -5.61499 -8.50703 11.6899 18
853 1 4.04443 -11.1786 2.77379 21
854 1 11.5547 4.83681 9.3635 16
855 1 9.29997 -5.00643 -5.35445 21
856 1 5.60184 -13.1002 -11.3249 15
857 1 -5.93003 1.5243 -12.6893 19
858 1 -1.61742 2.80262 -16.0057 16
859 1 7.68805 14.7625 10.2635 9
860 1 -11.4057 -5.93867 13.3767 13
861 1 -3.34582 7.15989 -7.69208 18
862 1 -14.0934 3.91258 -5.19336 12
863 1 10.7265 12.23 0.781575 21
864 1 -11.6947 -16.6104 4.76724 9
865 1 -0.974341 7.45764 4.9555 18
866 1 15.3861 11.7981 5.76776 10
867 1 -10.6086 -12.3697 -5.38107 13
868 1 4.88255 15.4652 8.3486 14
869 1 -8.6897 -1.82693 15.5676 13
870 1 -2.62628 -15.7397 -10.3781 13
871 1 13.8139 1.96926 9.40942 20
872 1 2.9189 -18.0486 3.25535 11