ITEM: TIMESTEP
431000
ITEM: NUMBER OF ATOMS
2000
ITEM: BOX BOUNDS pp pp pp
-30.0 30.0
-30.0 30.0
-30.0 30.0
ITEM: ATOMS id type x y z Coordination
1 2 -9.42122 -2.00284 1.51972 21
2 1 -3.34253 -12.5758 -0.634097 15
3 2 -2.84261 -12.3993 -13.58 13
4 1 -8.70129 -5.504 15.9137 18
5 2 5.07021 1.15471 -1.57559 17
6 1 -4.43448 -3.13329 -18.9366 7
7 1 13.2602 -14.8689 6.09264 7
8 2 1.54255 1.22966 10.6096 19
9 2 13.6983 6.55611 -7.51107 18
10 1 -16.2673 -7.25008 -0.793011 11
11 1 2.88393 -11.6205 -9.50102 16
12 1 6.65457 -9.4424 11.9199 14
13 2 5.02563 -15.0392 4.47943 16
14 2 7.35386 -12.7302 9.1403 8
15 2 5.08803 -1.87859 -14.7032 16
16 2 -1.76956 13.5245 -3.92971 15
17 2 -1.27388 -4.94003 -11.6701 18
18 2 -4.97287 11.7925 -3.39397 15
19 2 -11.127 7.00248 -10.7818 18
20 2 7.71775 -4.38826 -11.8801 17
21 2 0.523253 -13.6268 -13.064 14
22 2 -2.88449 -10.9788 2.43197 21
23 2 3.30996 -4.27622 -7.09496 18
24 2 -11.7441 9.1531 -9.63572 14
25 2 3.83412 -0.834684 -12.0982 13
26 2 1.01812 -5.90709 -13.4015 16
27 2 11.9993 -12.4259 -8.24429 7
28 2 10.1649 -0.509033 -15.042 15
29 2 -5.36809 -1.20018 -5.18142 19
30 2 16.1398 4.23085 -6.97724 12
31 2 13.0633 -0.652285 -0.809156 17
32 2 10.2733 6.16331 13.2295 10
33 2 4.97996 -10.2702 5.71298 17
34 2 3.5161 -18.6242 -1.42737 8
35 2 9.74394 -13.2962 -10.931 9
36 1 -7.00864 -0.105285 17.2171 14
37 1 -4.34746 -1.58864 -11.4418 18
38 1 -3.23215 8.11077 2.07531 15
39 1 1.53436 6.25298 10.0846 14
40 1 -12.6369 2.70665 5.68677 21
41 1 -16.2982 3.2 9.32029 11
42 1 6.17673 -13.9162 8.32833 12
43 1 0.206485 18.971 8.43777 5
44 1 -13.2103 -5.78525 8.25362 13
45 1 -8.14201 -1.57183 12.4999 17
46 1 3.25154 -7.9842 -10.0844 17
47 1 -0.924252 -12.526 -14.0023 12
48 1 -7.72118 -6.4252 -1.87985 19
49 1 0.870706 -12.5949 -4.34965 17
50 1 -11.7405 -7.42924 -13.3795 9
51 1 -11.5259 3.49514 -3.51479 18
52 1 -3.94833 -12.8239 3.0658 19
53 1 -10.3472 -1.62379 -10.8466 15
54 1 2.61047 -9.80949 3.32153 21
55 1 -5.02851 3.62847 5.31386 16
56 1 -9.04903 -9.28015 -11.4995 11
57 1 -12.9148 4.15074 9.19589 20
58 1 -9.00228 -1.56849 -14.9939 8
59 1 -2.15629 12.2498 3.58469 13
60 1 -5.75149 -0.892667 -13.6785 17
61 1 -14.8052 -1.16465 5.0087 17
62 1 -10.5607 5.23598 7.29456 17
63 1 8.69129 -4.24791 -13.6876 15
64 1 -2.26816 -4.63055 -16.1458 19
65 1 1.18742 -5.58167 19.8277 5
66 1 -3.19715 -18.1029 1.39291 7
67 1 -10.2942 1.75423 -11.1878 14
68 1 -0.469087 -6.92399 -14.0981 20
69 1 -2.2242 -12.6746 -19.5836 6
70 1 -16.0865 -0.946923 -6.64621 14
71 1 -9.62946 3.91658 -16.1103 7
72 1 -10.3598 -3.79839 13.6107 17
73 1 -7.77225 -1.33078 1.26302 19
74 1 -13.8079 -6.94787 -4.17661 17
75 1 -13.3649 3.10309 -10.0228 14
76 1 -5.97109 -5.92882 -7.66375 19
77 1 -12.6079 9.38353 -7.84369 13
78 1 -11.4538 6.97353 -12.8287 16
79 1 4.95377 -5.48412 -16.9714 17
80 1 -1.68901 -9.52807 -9.80885 19
81 1 -15.2532 4.48238 4.18543 16
82 1 -0.596719 -7.40578 -21.0912 9
83 1 -1.59001 -15.0964 6.8568 10
84 1 -13.4812 6.44959 2.58373 20
85 1 -0.22698 10.3326 7.21796 13
86 1 -6.12772 -2.22794 -3.63359 18
87 1 -0.0741035 1.33136 -9.64514 16
88 1 -16.64 1.51488 -0.0820609 12
89 1 -14.6287 -0.458068 -1.61146 18
90 1 -8.38206 -0.924921 -7.28812 19
91 1 -7.77384 -11.3497 -4.43544 16
92 1 -14.91 -3.89316 -2.21647 18
93 1 -8.98258 5.51262 -8.18405 20
94 1 -1.20827 -13.454 1.49047 18
95 1 -3.68949 6.18608 -7.30225 15
96 1 -14.1184 -4.21378 6.08803 16
97 1 -1.75643 -17.6453 -1.93818 10
98 1 -11.0098 -8.72841 -5.06726 13
99 1 -13.8623 -8.2191 1.81119 18
100 1 -7.19177 3.85259 -10.8124 18
101 1 10.8389 -14.4596 4.28125 11
102 1 -15.8713 0.38829 -9.62378 8
103 1 7.16142 -4.46067 -8.51806 19
104 1 -9.89176 5.94622 10.2902 17
105 1 -4.60216 2.73018 -5.50305 17
106 1 1.02057 -17.5305 -9.5891 8
107 1 9.18007 -7.78513 -14.0248 12
108 1 -5.57863 -8.10857 -3.22044 18
109 1 -16.352 -8.75332 1.97299 7
110 1 -6.04344 9.14758 10.5052 15
111 1 -14.1367 6.78787 -10.6125 10
112 1 -1.09418 -10.2162 -6.74291 16
113 1 7.46696 3.5246 -17.7155 12
114 1 -15.4649 -1.46958 11.2837 10
115 1 -6.59835 5.7637 -6.54697 19
116 1 4.99137 -8.30623 -12.4322 16
117 1 4.39906 -7.13535 -1.69392 18
118 1 10.7003 -9.97152 2.63745 22
119 1 -1.99526 -3.80856 -10.5132 17
120 1 2.16465 -1.22292 10.5627 19
121 1 -7.29189 -13.1805 -6.54131 12
122 1 -1.19144 -16.5686 -6.64069 15
123 1 12.6396 1.19755 1.20551 18
124 1 -7.39231 -5.20087 -3.94344 18
125 1 4.39259 -5.9618 11.035 19
126 1 -10.2159 10.2423 3.9525 15
127 1 5.26513 -6.78001 -20.1461 5
128 1 13.1038 -10.0061 -10.1346 10
129 1 -5.2531 -10.7714 -1.81678 17
130 1 -12.9646 -3.4618 -10.617 11
131 1 -7.41995 0.797903 -10.6825 17
132 1 -1.36123 8.55144 -7.43437 22
133 1 5.2424 -19.4145 2.83937 7
134 1 -10.3006 -6.2572 -6.12673 18
135 1 -14.8673 -4.10317 -8.44532 11
136 1 -11.1507 6.36975 -4.03749 21
137 1 4.87403 8.17822 -6.86701 19
138 1 13.1255 2.40011 -16.4548 7
139 1 1.59918 0.582116 -12.2721 16
140 1 -2.396 -13.6281 -9.088 14
141 1 7.52162 -18.4609 0.271368 9
142 1 0.111619 1.01446 12.3195 21
143 1 -11.6444 5.07823 -10.3711 17
144 1 -2.70686 0.958574 -10.8609 14
145 1 -9.09496 -5.54439 -13.4151 11
146 1 -7.58219 -6.37016 18.9104 10
147 1 8.77017 -8.72704 -8.92801 13
148 2 -7.08681 -1.94 17.7985 12
149 2 -7.60369 2.00183 7.67428 17
150 2 -17.9482 1.12796 -6.17637 8
151 2 -6.98538 -4.75321 18.5089 13
152 2 -15.3696 -10.978 -3.74786 5
153 2 -11.1462 -3.12261 -0.79493 20
154 2 3.28557 4.365 17.8171 12
155 2 -0.242289 -3.78885 -5.26283 17
156 2 -4.40241 0.313293 -1.78107 17
157 2 -6.86005 5.06843 -4.20311 17
158 2 -7.88252 -9.80837 -13.4509 10
159 2 -0.469672 -3.23616 -9.25912 19
160 2 -6.50413 -8.885 -15.6149 13
161 2 -3.16619 -6.81057 4.80641 19
162 2 -1.67576 -13.8457 -10.7615 16
163 2 -12.6035 -7.76315 3.28665 15
164 2 -13.0609 -2.41146 5.24237 18
165 2 4.08737 -7.14218 -14.2041 14
166 2 -15.2234 0.731689 4.75627 18
167 2 2.22597 -16.2433 4.48225 12
168 2 3.11848 -10.2946 -4.83136 17
169 2 -12.7541 -0.188366 7.86582 15
170 2 -11.0955 11.7174 -2.16725 17
171 2 -6.64901 11.2289 -11.848 7
172 2 -7.89573 8.68953 -2.89072 17
173 2 1.37175 -1.94797 -6.87622 17
174 2 -9.97481 6.45725 -1.5861 23
175 2 -4.31846 -10.344 -6.5776 15
176 2 -7.45241 13.6427 4.294 12
177 2 -1.57345 -5.33112 -14.3444 17
178 2 -15.3065 -7.16351 0.799888 13
179 2 -14.6128 4.96793 2.17937 14
180 2 -1.4759 -17.8552 -4.14489 12
181 2 0.0124989 -11.0955 0.626817 18
182 2 -13.9084 -10.8607 -1.05797 8
183 2 -4.13576 -10.7551 -0.00496109 17
184 2 -9.00187 8.42427 -11.765 16
185 2 -7.55244 4.12623 -1.68894 19
186 2 -11.0827 -2.48003 -3.6091 21
187 2 0.584321 -7.21127 -19.6277 13
188 2 -4.89808 -17.2243 1.65377 7
189 2 -9.42496 -8.2615 -15.95 10
190 2 6.49796 -16.1093 -4.19657 12
191 2 10.2731 -13.1556 2.77085 15
192 2 -10.2604 0.40053 -3.97996 21
193 2 -3.63996 1.15159 -9.12903 19
194 2 -5.02742 1.44774 9.90467 16
195 2 -7.53965 -5.74843 -14.6457 14
196 2 -5.91197 2.06591 -10.6698 17
197 2 -5.25295 7.43415 1.39034 15
198 2 -2.57728 -16.1397 -2.79061 13
199 2 -6.73127 -13.2023 -8.4423 12
200 2 -3.37659 -13.0396 8.07495 12
201 2 6.9241 -0.997713 -16.2422 19
202 2 5.95445 7.05862 -7.80906 16
203 2 -3.90516 -14.0965 -8.20255 14
204 2 10.0146 3.71878 -2.0911 19
205 2 -5.03228 -0.121277 -12.1048 17
206 2 -2.29263 -10.7813 -8.32284 18
207 2 -8.59412 -2.02335 -10.6659 14
208 2 -11.1388 -4.67871 6.12501 16
209 2 3.08383 -6.91649 -8.41111 17
210 2 10.5221 -16.2808 4.0942 8
211 2 1.57332 -3.22149 -2.20468 19
212 2 -13.667 -3.13278 -1.04558 19
213 2 -2.85564 -1.28831 16.8591 14
214 2 4.12436 -6.73789 14.9439 18
215 2 -2.45957 0.778819 -12.7773 19
216 2 -8.27488 -1.94856 -4.45955 25
217 2 11.4607 -10.7232 -10.7345 11
218 2 8.31659 -7.62492 -10.4175 18
219 2 1.8585 -16.692 -8.20668 12
220 2 -4.82848 -12.5674 -2.43943 13
221 2 2.73814 -8.77898 -2.06948 18
222 2 1.80348 -0.893291 -14.0789 15
223 2 -6.01681 -3.79503 4.6328 17
224 2 -14.0114 -2.25791 14.1626 13
225 2 -6.19924 -12.0244 10.0351 10
226 2 -10.4803 -8.35216 -12.3887 12
227 2 0.09061 -11.1188 -5.56536 12
228 2 9.21179 -3.53872 -15.5851 11
229 2 9.34911 -5.77054 -4.91054 15
230 2 0.99796 -15.8574 -10.3932 12
231 2 -15.0793 -8.21976 -4.9297 9
232 2 -6.46664 -5.35994 11.0564 14
233 2 -2.52355 11.6668 -1.69978 20
234 2 -5.38744 -7.041 -5.28082 18
235 2 3.30932 6.51691 9.72959 16
236 2 -2.50994 -8.9759 -18.15 19
237 2 -1.79741 2.65818 9.24705 18
238 2 -0.336483 8.67795 -5.63599 20
239 2 1.31206 -7.36345 -10.9591 18
240 2 -14.1108 5.60738 -3.97409 16
241 2 -8.27068 -5.86468 -5.59778 20
242 2 -1.10252 10.7709 -7.55351 18
243 2 10.0265 -9.02405 -7.50382 10
244 2 -11.5505 8.32773 -13.9503 7
245 2 -7.45683 -7.7996 -3.05093 19
246 2 0.637504 -9.91686 2.83833 19
247 2 -2.17255 -0.248519 -15.1735 15
248 2 13.5362 -12.4819 1.93484 7
249 2 -5.73627 -2.84747 -11.0728 19
250 2 6.39544 -8.68935 -8.2301 17
251 2 -10.8124 5.16611 -7.4238 19
252 2 11.2851 2.1789 -15.9528 11
253 2 -11.4371 -7.03931 -4.60351 15
254 2 -2.85409 -8.91162 -14.9974 18
255 2 12.5841 -9.30139 -2.06484 11
256 2 5.91525 -19.5082 0.897797 8
257 2 10.4405 -13.0106 -0.0630802 12
258 2 8.87485 3.30145 16.767 13
259 2 -13.842 9.70298 11.4797 12
260 2 8.3135 -7.63102 -1.28318 17
261 2 5.55072 -9.34204 -13.8963 12
262 2 1.36751 12.0215 -9.44784 18
263 2 -4.65325 -6.45416 -16.3309 14
264 2 7.41912 -11.5627 -9.8789 16
265 2 -6.15579 2.01491 4.56089 18
266 2 -3.8864 4.46532 7.40895 15
267 2 2.87222 -3.52461 -18.1948 13
268 2 1.08278 -3.72864 -21.7917 8
269 2 -4.28811 9.67007 11.0406 12
270 2 10.6085 9.04855 -9.46033 13
271 2 -7.12498 -7.90531 -18.6775 8
272 2 8.17078 1.0847 0.0476131 19
273 1 -16.6538 1.40872 3.40846 18
274 1 7.46824 1.6325 13.5673 21
275 1 3.87339 -10.0222 -3.19411 17
276 1 -13.6079 5.56835 6.47942 18
277 1 -8.61901 -7.96203 -8.15393 18
278 1 -2.11206 1.75015 0.671832 22
279 1 -7.99413 -2.2631 5.01424 20
280 1 -13.8122 6.17731 -2.07484 16
281 1 -10.8468 -3.75413 4.54931 19
282 1 -5.64721 -15.3566 1.56431 6
283 1 -9.20392 8.02932 -6.55257 20
284 1 -6.60937 -4.05188 2.76418 16
285 1 -17.4259 -1.16116 -3.01976 10
286 1 -16.0652 -3.46976 9.17553 11
287 1 -0.129756 -5.64095 -5.4176 17
288 1 -6.84856 10.405 -2.9576 13
289 1 -12.3356 -4.0472 -2.05937 19
290 1 -11.0314 -6.27547 6.65192 17
291 1 -5.35037 -6.18398 15.6263 18
292 1 -9.22577 -4.08547 1.70995 21
293 1 -3.02535 5.54508 11.6302 14
294 1 -3.86637 -4.40431 4.428 16
295 1 -2.76245 -0.592196 2.67848 15
296 1 -10.1145 -1.49895 -0.471471 24
297 1 -1.29479 13.1162 0.677811 17
298 1 0.825101 -3.9047 1.29164 19
299 1 -14.5566 2.79597 11.8606 12
300 1 -14.3967 8.186 12.5854 10
301 1 -3.86167 -9.28232 -19.4365 11
302 1 -10.2612 8.79505 14.3094 9
303 1 -0.904463 7.32037 12.7987 12
304 1 -7.26032 -3.39432 -0.931536 22
305 1 -0.486117 -14.9522 -11.7401 13
306 1 -11.5446 -6.97313 -2.622 17
307 1 1.70353 -7.56531 -3.08082 17
308 1 1.88599 -9.45092 8.3954 18
309 1 3.9596 8.48036 -0.038446 15
310 1 -2.04244 -3.46954 7.48545 15
311 1 -5.35077 -1.92402 3.48995 17
312 1 -11.7498 -5.63043 2.53523 22
313 1 -9.56579 -3.11547 -2.86867 19
314 1 -0.0457648 -4.17844 -1.84486 18
315 1 -5.21047 -13.8673 -9.40181 12
316 1 -12.2117 0.518516 17.3792 9
317 1 4.36986 -8.69402 -15.3532 9
318 1 7.06262 1.04924 -4.25019 17
319 1 -4.61377 -0.933589 -0.495704 17
320 1 12.9673 -0.283943 -12.8296 14
321 1 -11.9209 -0.997565 5.94784 24
322 1 -3.0087 -12.0794 12.2909 10
323 1 -0.649523 -7.22584 -0.933992 15
324 1 -7.80717 10.7301 -6.22622 12
325 1 -11.277 -3.09833 16.8616 12
326 1 -0.0937185 -5.12431 6.43913 20
327 1 5.05044 4.12846 11.9561 19
328 1 -13.9061 -1.51463 16.0583 11
329 1 -8.26869 -8.63269 5.78209 15
330 1 -11.0999 -8.08478 -8.69435 13
331 1 -3.74044 -2.30811 12.7157 18
332 1 -0.187483 -9.6462 -14.5575 14
333 1 -4.14015 -11.2118 -8.41888 19
334 1 -16.6611 -6.03423 4.63113 9
335 1 17.1438 -0.598736 0.0981013 10
336 1 4.61013 -16.5979 -4.01184 14
337 1 -5.96925 -5.38849 6.51709 14
338 1 12.7321 -1.88158 7.5603 15
339 1 5.68981 -14.366 -9.19198 12
340 1 -0.92501 4.26604 18.5144 15
341 1 -17.808 -1.70845 -0.418448 10
342 1 -9.89958 -1.56675 8.90415 16
343 1 -7.33694 -9.13218 -0.127321 20
344 1 -9.56329 -7.69549 8.48544 12
345 1 1.46064 -4.67344 4.36513 21
346 1 -15.7571 -9.95793 -4.9726 4
347 1 -0.305513 2.56721 14.7768 20
348 1 3.93406 -16.1549 3.34546 15
349 1 -4.21588 -8.17757 -6.15009 20
350 1 -13.568 -6.8632 4.68537 15
351 1 5.23958 4.12241 5.77777 17
352 1 -8.32929 -6.77898 1.46056 20
353 1 -9.41845 13.6642 8.09919 10
354 1 -3.44904 -4.78351 18.0461 13
355 1 -7.42532 -3.01667 8.99957 17
356 1 -12.7827 3.43159 -1.26451 22
357 1 -0.530739 -2.07133 16.8324 15
358 1 -6.21881 -10.1566 -7.13535 18
359 1 -10.1344 -8.75256 15.5692 10
360 1 -4.15681 -2.44646 15.8614 22
361 1 14.8808 -4.86957 -2.25323 15
362 1 -6.14871 -11.1352 5.21875 14
363 1 3.44971 -11.4372 11.1547 15
364 1 1.99842 -6.32074 -0.0193323 18
365 1 -10.804 -8.64315 3.6873 14
366 1 -13.6164 -9.0097 -1.32169 16
367 1 -13.0658 3.55288 2.25475 20
368 1 -8.25776 -5.40015 10.4 16
369 1 8.84639 -1.12942 17.5786 14
370 1 8.12269 -9.27819 15.0976 7
371 1 -14.5361 -11.7942 -2.43261 5
372 1 -13.9818 -11.2773 0.697747 7
373 1 6.51216 8.62713 -12.0963 13
374 1 -14.9609 2.25456 15.2555 6
375 1 8.63189 -11.7533 8.16078 13
376 1 -2.50106 7.19128 -5.00565 19
377 1 13.676 7.12856 -9.45967 17
378 1 2.23609 3.44793 7.20588 17
379 1 -0.315276 0.830861 3.92689 16
380 1 1.4576 -4.21612 15.8013 15
381 1 -11.5269 6.97642 -0.722861 17
382 1 11.55 -4.22369 13.6678 12
383 1 -4.96095 -13.3145 -4.16575 14
384 1 -11.7545 13.8592 5.30369 10
385 1 8.41966 11.0944 -3.52264 18
386 1 -10.5222 1.79022 -0.0349737 16
387 1 -6.68931 -8.53323 15.2499 12
388 1 -11.4738 0.114975 -5.41419 20
389 1 -2.23901 5.45319 -2.10108 19
390 1 9.34499 -3.04292 6.89479 19
391 1 -11.595 -7.24145 10.0196 13
392 1 -11.7002 7.71159 8.33425 17
393 1 0.0488648 8.25011 9.35147 15
394 1 3.84901 -5.33285 6.15434 21
395 1 -8.80085 5.44178 16.0345 15
396 2 -12.2249 9.46725 4.05355 14
397 2 -11.3881 -2.9196 -9.96284 13
398 2 -16.8307 3.08558 6.90028 13
399 2 -1.39881 0.848124 11.388 19
400 2 -1.45144 -1.10281 4.36931 18
401 2 -4.60316 10.0517 -8.52493 17
402 2 -9.59673 3.61209 16.9282 11
403 2 -8.40689 -3.24319 13.5906 19
404 2 -9.652 -9.98979 -4.475 13
405 2 -8.64381 8.24128 0.86231 21
406 2 1.78936 -5.8481 6.75196 20
407 2 3.07514 -11.0883 0.589269 19
408 2 12.6071 -11.1198 7.022 12
409 2 -8.54764 -4.58051 -2.28761 21
410 2 -10.3607 6.01348 18.2052 6
411 2 -17.8549 -4.4851 4.27028 8
412 2 -13.0995 2.01099 8.75801 15
413 2 -1.86532 -4.55408 4.76436 17
414 2 -4.54615 -9.02674 4.4555 17
415 2 -7.54821 -3.05151 -7.85337 21
416 2 -10.5335 2.82818 12.0459 17
417 2 -9.43153 -4.12813 16.8037 16
418 2 -2.52185 -11.2823 10.6418 14
419 2 8.4241 -9.63962 11.4611 14
420 2 -3.27827 -4.50953 9.49464 18
421 2 6.1215 -1.91629 -6.58551 23
422 2 2.65186 0.293996 14.8714 16
423 2 -14.6505 4.39926 8.72644 16
424 2 -7.66227 6.92446 6.85153 13
425 2 -8.62339 -9.19679 7.55812 14
426 2 -16.937 0.00778315 -1.33107 15
427 2 -9.674 -7.56472 -1.77878 19
428 2 -9.25854 -6.84816 18.9236 9
429 2 -5.75768 -2.03114 9.67372 18
430 2 -11.1934 2.02445 -12.8713 14
431 2 -13.4286 -6.31555 6.32437 10
432 2 1.07074 -6.17112 15.5102 15
433 2 -15.563 1.95643 10.2759 12
434 2 -3.74363 16.501 -0.248236 11
435 2 -4.46599 -12.1376 4.93212 16
436 2 -11.8801 -5.76939 -1.07979 21
437 2 -6.84481 -7.00507 6.03011 17
438 2 -13.1071 -2.62101 -6.00941 16
439 2 3.36727 -9.26866 14.5648 12
440 2 8.56347 -2.16824 10.7208 18
441 2 -9.99093 -8.78243 1.91838 16
442 2 -4.18228 4.50228 -9.73763 18
443 2 -11.6601 -3.26688 14.9995 18
444 2 1.52644 -4.243 9.53852 18
445 2 -9.37226e-04 -12.6362 2.76359 17
446 2 -4.53018 -4.19867 2.51148 18
447 2 -1.57532 1.72391 -2.47643 16
448 2 -14.05 2.04061 13.6668 9
449 2 -10.2249 -5.74419 1.15499 22
450 2 -8.45129 -2.01563 7.63139 17
451 2 -1.56788 0.735904 2.19549 16
452 2 -11.7004 -3.53404 2.69513 18
453 2 16.1783 7.34895 -7.64924 11
454 2 -8.88659 -1.5989 -1.69192 22
455 2 -1.39768 -11.3579 5.09602 14
456 2 -6.1194 -11.436 7.05518 12
457 2 -7.14197 -4.15419 7.28686 17
458 2 2.79963 -7.40406 11.3028 20
459 2 -12.5519 -8.30148 0.0122869 18
460 2 -7.93218 4.30077 -6.84054 16
461 2 2.754 -1.18506 12.4405 18
462 2 -16.2341 -2.68578 -7.65629 11
463 2 -11.2629 -0.038901 -0.629792 22
464 2 -9.89496 7.77384 -8.26214 19
465 2 -12.81 -6.04223 13.1916 10
466 2 5.74423 -5.72888 -1.41565 15
467 2 9.67571 -16.0435 -2.34936 7
468 2 -11.6663 -7.22822 8.1059 12
469 2 -17.2424 0.0265726 6.85588 13
470 2 0.68018 4.55687 10.3041 16
471 2 12.7596 8.5789 1.33449 18
472 2 8.15494 -0.479042 3.02599 15
473 2 -13.1012 -5.1089 1.25676 18
474 2 2.05444 -14.2709 9.08684 12
475 2 -0.0040723 -5.42029 11.9608 15
476 2 -1.28809 -14.784 -7.61496 13
477 2 10.0271 -5.66962 -13.0573 15
478 2 -6.49245 5.07967 4.58307 17
479 2 1.59869 11.4368 7.96108 15
480 2 8.99423 -8.04043 14.4197 12
481 2 14.3437 3.4362 10.3459 12
482 2 -9.21787 -4.64536 -11.5344 14
483 2 -13.3365 -6.7141 -12.4697 9
484 2 1.58725 17.8839 7.3998 8
485 2 -10.6188 0.162129 16.4698 14
486 2 0.336636 -17.1479 -5.87809 14
487 2 -14.5628 -5.12271 4.08486 18
488 2 3.38426 -10.2661 9.67805 15
489 2 -9.69891 8.6504 4.87903 11
490 2 -7.32234 -1.5507 3.40263 20
491 2 5.36265 5.75813 15.2559 16
492 2 -10.5726 -8.43638 13.6995 9
493 2 4.83663 -8.4945 -0.17486 20
494 2 -1.66905 -8.24018 0.527632 14
495 2 -11.5938 0.220772 2.59738 18
496 2 -3.01333 12.0282 1.55481 16
497 2 -11.3831 3.27315 3.70455 19
498 2 8.03118 -10.2437 3.71854 16
499 2 2.68866 2.42137 8.82876 17
500 2 -0.136043 -2.90257 6.74946 15
501 2 -7.01397 -0.097704 11.854 15
502 2 3.18244 -1.87285 3.42535 20
503 1 -1.89894 4.31977 -5.11275 19
504 1 7.5368 8.61421 11.2964 15
505 1 -12.2295 -2.46608 -13.5623 11
506 1 -9.98141 4.55807 -1.65626 21
507 1 -13.6421 -3.19182 3.11417 17
508 1 -14.5346 14.3637 5.00508 7
509 1 -4.09143 5.82282 8.8487 11
510 1 0.844008 -7.69817 -8.57332 17
511 1 -9.01941 4.14651 12.3707 18
512 1 -8.60367 -2.85537 -12.3537 16
513 1 -1.03041 12.7621 -2.41335 14
514 1 -15.5438 3.96509 -2.23145 14
515 1 -17.175 2.5662 -4.66376 8
516 1 3.50151 0.170689 -9.74729 17
517 1 -8.16676 12.3062 10.9686 12
518 1 -2.61879 -0.205893 -8.26744 18
519 1 -7.18776 -2.36261 -9.56691 20
520 1 -11.3748 3.78749 -13.634 12
521 1 -10.0617 -4.96679 -9.55718 18
522 1 -13.803 -6.43283 -0.350003 20
523 1 -9.9147 8.63319 -9.75557 16
524 1 -6.39694 14.1314 8.8575 11
525 1 -12.856 9.71723 -10.9393 10
526 1 -9.42156 13.7298 3.80281 14
527 1 -13.022 -5.23211 -13.5538 8
528 1 0.525981 6.52537 18.1318 11
529 1 -8.22567 2.95846 0.643648 18
530 1 -18.5972 0.810612 -7.86311 5
531 1 -11.8822 10.733 -1.01492 17
532 1 2.49449 -17.3818 -1.86805 10
533 1 -2.92023 -5.84722 -12.6892 17
534 1 0.28563 6.3096 3.27401 20
535 1 7.35448 -9.89586 -14.2074 11
536 1 -12.6959 -3.35135 0.660191 21
537 1 -4.05337 16.2306 1.78351 13
538 1 8.05014 13.5985 6.67128 8
539 1 -15.7989 6.87704 5.05581 12
540 1 -15.4588 -3.62103 -5.86188 13
541 1 0.0175784 -12.0175 -10.0532 19
542 1 2.81841 13.2263 -13.8082 14
543 1 2.50197 -1.37397 -18.529 11
544 1 10.5171 11.9946 -5.81549 13
545 1 -18.5837 0.823548 5.9625 10
546 1 -3.76326 -1.60494 -6.0162 17
547 1 0.912862 13.3865 8.04806 11
548 1 6.32828 -7.31471 -9.74897 18
549 1 1.54604 10.89 -11.3475 17
550 1 -14.1602 1.05151 -3.73986 18
551 1 -0.940858 -1.89356 -18.1088 15
552 1 -13.3347 1.13581 -12.8878 9
553 1 5.86606 -10.3601 -9.30795 15
554 1 -10.8769 -2.45765 -5.98828 18
555 1 -4.83767 7.66003 -0.568075 17
556 1 -9.19358 5.67414 -11.8309 17
557 1 2.1523 11.8968 -3.67967 17
558 1 0.190146 17.3539 -3.57519 14
559 1 -16.9812 -1.21726 8.23585 14
560 1 -0.574601 -2.70449 4.72348 18
561 1 -13.7242 7.7026 -4.86567 15
562 1 -14.02 8.9461 0.203937 14
563 1 -7.77595 9.96423 -11.5008 10
564 1 7.70293 -11.8022 -11.6529 11
565 1 -3.58533 -6.14095 -20.1856 13
566 1 -0.613433 8.17848 -10.1888 20
567 1 2.51705 -14.7873 -12.1254 9
568 1 -4.81252 5.3977 -11.5576 18
569 1 0.917992 3.81128 -12.4375 13
570 1 -3.48649 14.3665 6.22286 10
571 1 -7.94506 11.5426 1.18221 19
572 1 -7.98229 6.90767 12.7276 16
573 1 -7.40817 5.85548 -0.280258 18
574 1 -2.00348 16.4043 4.47353 11
575 1 1.4671 8.68815 -6.33604 18
576 1 -0.744025 15.8588 2.30413 14
577 1 -6.66236 13.8926 2.58646 14
578 1 4.78444 8.23309 -15.302 10
579 1 5.77241 -4.70755 -11.4951 20
580 1 -11.6385 7.75176 4.95588 17
581 1 -6.47976 6.21278 -9.3844 17
582 1 -11.1663 3.43789 -6.67622 17
583 1 -0.279616 -1.84056 -6.08831 19
584 1 -12.6649 0.19316 0.693582 19
585 1 -9.29301 -8.77111 -14.141 12
586 1 0.236318 5.71335 -7.45038 23
587 1 -0.64681 -6.79348 -10.6646 22
588 1 2.45929 -6.07345 -14.6625 16
589 1 -10.9937 0.49398 -14.2197 12
590 1 -3.12986 13.9992 -9.68601 11
591 1 2.91223 15.3198 -4.56036 19
592 1 -3.17885 -1.86216 -15.5434 15
593 1 10.2491 5.13558 -13.2172 14
594 1 1.00913 3.52334 -17.4562 9
595 1 -3.48243 -16.9432 -4.41495 9
596 1 2.11869 3.34737 -9.25973 16
597 1 -6.32728 11.2062 7.37861 15
598 1 7.81521 9.48345 -16.8838 8
599 1 1.29872 -9.69528 -5.33318 16
600 1 -7.25347 14.0981 -6.47607 14
601 1 -7.43419 1.1033 3.19698 17
602 1 -0.12031 13.1814 -9.52239 18
603 1 -12.8235 12.3727 -5.87079 8
604 1 -3.77328 14.0918 -6.36181 17
605 1 3.68085 6.13019 -13.4882 16
606 1 -4.61082 16.1397 -7.89721 11
607 1 4.57232 0.122227 15.6229 16
608 1 -10.1424 4.64446 4.18013 19
609 2 4.92015 -17.3576 2.42376 13
610 2 -0.691982 -11.8737 -18.4596 7
611 2 5.68426 -6.64196 -11.6967 16
612 2 -15.1851 8.92704 5.12884 12
613 2 -9.31111 -6.11222 -8.29669 15
614 2 -7.996 -0.598705 14.515 18
615 2 -6.63693 -0.318514 0.164513 20
616 2 -3.19386 2.33626 -15.3771 10
617 2 -11.1738 15.7285 0.161773 8
618 2 -7.86269 4.88897 1.44933 17
619 2 -0.669674 -2.21071 -13.712 16
620 2 -4.9633 14.389 7.50513 11
621 2 -2.61386 2.38505 -5.74774 15
622 2 2.76656 3.16409 -0.805174 20
623 2 -9.12894 4.13344 6.0606 17
624 2 -5.13482 -0.066128 16.1711 15
625 2 1.20493 9.16117 -12.3775 15
626 2 -4.62186 -1.56225 -7.7716 18
627 2 -5.14612 2.29764 -7.28518 16
628 2 -14.287 -7.26614 -2.23205 15
629 2 -2.42394 9.70943 -3.71985 21
630 2 6.44454 -10.8883 -5.8028 17
631 2 1.72201 6.7739 -7.05297 19
632 2 -1.26083 7.33919 2.46345 19
633 2 9.48667 13.8937 -2.35126 11
634 2 3.29372 -1.0143 -4.09533 18
635 2 -1.86619 6.27384 -6.95375 16
636 2 -10.9688 12.678 3.59524 14
637 2 -8.48266 10.603 -10.0822 13
638 2 -3.08364 12.7868 5.15646 13
639 2 -13.6237 4.53648 -6.51971 17
640 2 -10.8872 10.7107 0.777141 17
641 2 -10.7537 -0.922711 -6.70693 16
642 2 -13.5699 13.8393 -1.72828 11
643 2 -13.4602 0.408341 -5.54386 19
644 2 5.13741 5.12403 -5.73209 12
645 2 -12.7597 14.4122 3.93197 10
646 2 -0.0036072 5.67554 6.92662 17
647 2 2.64372 7.71431 -13.2349 15
648 2 1.77677 7.23733 4.43022 19
649 2 -14.0311 -5.04483 -9.65669 11
650 2 -11.9583 5.66947 -2.25051 20
651 2 -4.98642 1.18006 12.9084 20
652 2 9.3565 6.59964 -14.4513 13
653 2 5.8994 11.8307 2.21482 14
654 2 -17.0771 3.16646 -3.05463 11
655 2 -3.5198 7.24675 -2.44482 18
656 2 6.3885 4.06312 -13.8829 16
657 2 1.22378 2.23599 -13.2342 15
658 2 -8.40938 13.9171 1.66166 13
659 2 -16.4292 3.32174 -0.458598 10
660 2 2.09133 10.4068 -6.81477 22
661 2 12.28 4.30021 -16.6461 9
662 2 -4.738 -5.7119 -12.2965 18
663 2 0.340867 7.61118 -0.104853 20
664 2 -5.71732 10.7366 5.65693 13
665 2 -5.72741 7.20896 -10.9457 21
666 2 -3.8864 12.1138 -5.84306 15
667 2 -7.20516 -8.53179 -6.85523 20
668 2 -12.9453 7.99344 -6.62323 16
669 2 -3.7962 12.4598 -11.1004 9
670 2 -16.3336 -5.33014 -1.77187 11
671 2 -1.34851 17.2876 -8.70495 14
672 2 -10.5584 -8.46579 -6.91888 13
673 2 -9.83687 4.00851 0.2495 20
674 2 -10.7244 -6.12587 -14.4027 10
675 2 1.60983 2.70113 -7.43025 19
676 2 5.39486 8.88895 -13.5168 12
677 2 4.53924 -5.64507 -21.3121 5
678 2 -1.21231 14.7494 -9.77792 13
679 2 -12.9082 1.69484 -11.0323 14
680 2 -16.7833 0.965956 1.69388 13
681 2 1.53085 -10.5315 -10.3859 16
682 2 7.28643 -13.6282 -12.5596 8
683 2 6.7138 13.3688 5.60154 10
684 2 -2.45438 7.50607 -9.06662 19
685 2 -4.72948 14.2171 -4.2081 16
686 2 -0.197459 7.71106 16.8594 10
687 2 10.8567 5.22542 -8.04463 17
688 2 -5.84634 4.29245 -12.4424 17
689 2 1.64817 -6.04616 -17.3923 14
690 2 3.44056 18.3325 -5.16072 12
691 2 -0.106761 -8.082 -15.545 16
692 2 -5.06824 -7.40914 -19.924 11
693 2 -11.7236 6.41334 1.08136 20
694 2 2.1716 16.6059 -2.83902 14
695 2 0.293294 1.26606 -4.75665 19
696 2 -0.324005 -9.28267 -21.3194 7
697 2 -1.37891 -11.0177 -10.9524 20
698 2 0.970662 2.72909 -10.6782 13
699 2 -1.19281 5.19863 -14.6133 14
700 2 -5.14008 -4.43221 -7.02497 20
701 2 -5.2622 -2.25865 13.8317 19
702 2 8.26445 -8.03049 -4.93312 15
703 2 14.0816 2.53912 -15.0004 9
704 2 5.71613 7.85452 0.526445 15
705 2 -6.79724 -4.95953 15.2129 19
706 2 2.0719 13.0825 4.86894 14
707 2 3.11854 -0.240231 -7.85637 18
708 2 -14.7437 5.60254 -0.564464 15
709 2 -11.3894 10.4491 -12.3206 11
710 2 16.0135 0.684968 -7.39919 13
711 2 11.3163 12.2305 -0.165104 14
712 2 2.93078 9.06229 -1.64631 17
713 2 -7.80794 11.2539 -4.3004 14
714 2 -2.86402 5.12352 -11.661 15
715 2 -4.01015 4.95204 -5.12401 19
716 2 -14.0816 8.63635 -10.3757 10
717 2 -15.6428 14.1402 3.41668 5
718 2 4.25495 3.84886 7.10553 16
719 2 -10.6765 7.88658 -4.71116 20
720 2 -15.1156 7.6504 10.793 12
721 2 6.05723 -0.593462 -3.90992 20
722 2 8.85194 4.1982 -12.4295 15
723 2 2.4376 14.909 -0.149705 14
724 2 3.12453 10.7526 3.5055 15
725 2 15.9326 6.81267 6.44943 12
726 2 -8.46004 10.5574 2.69309 19
727 2 -1.13734 13.989 7.79847 12
728 1 -9.87411 5.33465 1.65625 18
729 1 -7.65645 -5.14037 13.3834 17
730 1 -18.0441 -2.57616 6.09333 9
731 1 -1.8872 16.4623 -0.890626 13
732 1 4.2166 -13.3695 4.26381 20
733 1 -6.07056 -0.362719 13.8485 19
734 1 -0.247639 4.19637 0.737805 21
735 1 -12.6757 -4.33799 -5.57061 15
736 1 -8.55104 -9.97959 2.30205 14
737 1 -10.8196 1.4409 3.97734 17
738 1 1.564 1.19733 1.25289 20
739 1 -11.1005 -6.59453 13.5765 15
740 1 -4.40442 8.46994 -9.93451 20
741 1 -10.7632 -1.65921 2.74273 23
742 1 -13.9411 -1.32184 -5.19492 18
743 1 3.66306 -4.04864 17.8244 10
744 1 -3.52204 1.88267 -2.44431 17
745 1 16.2788 3.41323 9.98771 9
746 1 -5.51239 -7.13222 0.120123 17
747 1 -10.3452 8.98493 0.878511 18
748 1 0.539401 10.7256 -1.53915 16
749 1 1.82351 3.90167 16.8155 15
750 1 0.508901 -3.99309 -7.54545 16
751 1 10.8899 0.601964 -16.4511 11
752 1 -13.9054 1.98616 -6.89418 15
753 1 -1.69213 -12.5173 8.99177 13
754 1 -4.00101 0.802726 -15.7615 15
755 1 -2.87835 9.99903 9.73123 9
756 1 -15.8522 4.35573 0.95326 12
757 1 -7.42867 7.9076 8.65983 14
758 1 7.98522 -16.7802 -2.76652 8
759 1 -4.85092 -3.96959 10.1688 17
760 1 -3.31989 -10.5254 4.24621 17
761 1 -11.0217 11.2422 9.37229 15
762 1 0.520047 -11.4659 10.8386 14
763 1 -6.63058 7.04551 -12.7615 14
764 1 9.20677 10.6115 12.5904 7
765 1 3.80581 -4.85897 -9.20442 21
766 1 -3.42862 -6.29935 8.61977 15
767 1 2.1822 19.7199 -9.09346 6
768 1 -9.0336 12.3576 -2.21158 16
769 1 -5.96563 9.08938 -7.55431 17
770 1 -4.82969 11.1704 -11.5829 11
771 1 -12.7974 15.4495 -0.635225 9
772 1 -13.5718 0.787475 3.7095 20
773 1 -13.5722 -1.93055 8.85512 20
774 1 -8.09282 -0.178821 7.18259 19
775 1 -14.2535 10.6011 9.92058 11
776 1 -2.52703 7.18643 18.0624 11
777 1 7.23469e-04 -9.15684 1.18534 18
778 1 -7.93596 8.44866 5.6274 18
779 1 2.52262 16.1611 7.63146 10
780 1 -11.393 6.9591 -7.34957 21
781 1 -8.93339 2.65398 8.89747 16
782 1 6.72212 -2.23969 -4.85378 20
783 1 -9.52577 1.76962 -2.77862 21
784 1 -11.398 -1.03119 11.7343 19
785 1 -14.2541 -6.80886 -7.31566 12
786 1 0.487427 11.6603 -6.93269 19
787 1 9.27223 8.05745 5.26958 22
788 1 -17.9002 3.80372 5.89372 10
789 1 7.27634 0.684925 19.7489 6
790 1 -6.37792 14.0724 5.80029 13
791 1 -17.4104 -2.77707 3.41655 10
792 1 -0.976224 6.11824 15.4896 16
793 1 -3.76359 -9.78394 10.9552 13
794 1 -11.4066 4.81646 17.1789 7
795 1 -5.13508 14.7541 -0.586927 12
796 1 -1.04894 15.9722 7.70951 13
797 1 -1.53831 1.10811 18.593 10
798 1 -8.52113 0.673597 10.9554 20
799 1 3.27207 13.2458 9.7393 8
800 1 -0.236999 1.30365 9.73718 21
801 1 14.6913 7.75651 -5.98951 14
802 1 1.61216 16.4702 -1.15831 12
803 1 2.34052 -0.0301582 4.7036 17
804 1 -3.93037 2.25298 13.9693 14
805 1 -6.21884 -5.81207 -11.2451 16
806 1 15.4315 3.08375 -0.848345 13
807 1 -0.872876 8.98458 3.75834 15
808 1 5.77841 9.62538 -3.8595 18
809 1 -14.2579 5.50612 -8.11259 15
810 1 -7.93434 2.07446 14.1792 20
811 1 -7.88418 -8.17198 -16.892 11
812 1 -0.0320898 16.3456 -9.68708 16
813 1 4.50784 -9.45041 16.1378 10
814 1 10.2496 -7.47352 13.432 11
815 1 -6.50192 12.6973 -3.96185 18
816 1 -4.46312 2.64957 -9.3953 18
817 1 6.57091 -6.0579 12.7235 16
818 1 2.51992 2.15192 14.3363 20
819 1 6.29536 6.15066 -4.61801 16
820 1 -8.26139 -3.34402 18.047 11
821 1 1.07107 -7.07286 11.0945 18
822 1 -2.66239 -1.82453 18.8912 10
823 1 -11.6694 9.29067 -5.33699 14
824 1 -12.8536 6.72849 14.6394 7
825 1 -9.12268 14.5992 -3.30647 11
826 1 0.374347 7.51907 6.41435 15
827 1 -4.43145 8.11972 13.0109 10
828 1 -1.39238 1.07624 -5.82442 16
829 1 10.1574 -6.43818 5.32638 17
830 1 3.85728 6.56738 14.5445 12
831 1 -7.19572 2.60176 -7.07578 16
832 1 11.2607 1.51047 -8.53836 17
833 1 -13.7157 -5.17822 11.5119 13
834 1 -8.29998 0.246105 -4.62908 17
835 1 12.7385 2.74479 -5.32183 16
836 1 -5.14603 1.46793 0.163684 20
837 1 8.32437 7.66156 -2.96493 20
838 1 2.84189 9.67237 8.10527 14
839 1 1.09778 17.775 5.22963 10
840 1 9.95218 -1.00254 3.69895 17
841 1 3.57921 -3.68518 2.79485 18
842 1 -5.72845 6.27593 17.5761 11
843 2 -11.5859 5.67071 15.4546 11
844 2 -4.31764 -5.35912 -0.468994 15
845 2 -17.8786 -2.62727 -2.12336 9
846 2 -1.60323 -5.46548 7.51546 18
847 2 -4.50275 4.72739 1.48651 19
848 2 -13.5343 5.15741 -9.76005 12
849 2 -11.97 8.45393 14.7324 8
850 2 -12.3834 -5.20692 10.0427 13
851 2 -11.6907 -1.86675 9.49104 17
852 2 -7.26241 -7.07718 -0.120148 23
853 2 -13.0152 -3.64831 -12.7215 11
854 2 -4.89074 -9.60039 -13.0001 13
855 2 -7.40754 1.82749 16.1082 14
856 2 2.15083 4.65671 -16.6028 9
857 2 -6.14521 -0.523637 6.43613 20
858 2 -11.2005 4.10596 -15.3815 7
859 2 -11.7636 -0.262517 13.706 18
860 2 8.32051 -10.3846 -0.360696 16
861 2 3.35876 -0.00806912 6.27967 18
862 2 -16.7289 5.11267 4.97756 9
863 2 -10.7643 -4.40568 -6.25559 16
864 2 -14.2979 2.04895 -8.75327 12
865 2 -10.1617 6.41986 3.4817 17
866 2 -9.134 -3.34629 9.66615 18