ITEM: TIMESTEP
400000
ITEM: NUMBER OF ATOMS
5760
ITEM: BOX BOUNDS pp pp pp
0.3546643195 33.3053356805
-0.1440261289 33.8040261289
-0.6056507547 66.4056507547
ITEM: ATOMS id type x y z Coordination
1 1 32.2473 11.0019 52.9581 22
2 1 28.1796 17.1445 58.171 22
3 1 3.96992 19.2263 52.0529 21
4 1 16.9737 0.978097 35.654 23
5 1 10.7974 32.7784 29.9502 18
6 1 7.3745 14.9768 38.6386 23
7 1 9.84084 27.0517 2.91374 17
8 1 25.8953 27.808 63.7201 20
9 1 1.72894 7.59558 11.7808 23
10 1 18.192 30.907 45.1446 17
11 1 15.2456 31.8884 3.05996 18
12 1 13.4661 4.70334 7.62168 18
13 1 27.5261 14.2925 20.4373 19
14 1 31.0401 30.0322 57.7658 21
15 1 6.33065 30.9969 7.67105 20
16 1 15.5205 9.88496 4.69045 22
17 1 24.9222 28.8891 51.5339 23
18 1 19.6146 29.9516 55.0421 19
19 1 1.98911 14.4862 27.82 21
20 1 16.3951 5.42962 50.0129 20
21 1 17.7557 31.93 -0.358517 18
22 1 4.59119 26.319 5.65874 16
23 1 21.4209 14.7933 1.407 20
24 1 23.8379 22.5358 38.275 20
25 1 3.47009 23.1091 1.73108 20
26 1 3.70607 32.475 6.33634 19
27 1 22.4859 28.4429 36.9835 18
28 1 23.0674 15.3707 54.5343 23
29 1 26.7627 15.5401 4.9025 20
30 1 4.06643 5.82266 28.7376 22
31 1 28.459 32.8072 13.0556 22
32 1 32.5458 1.64016 17.5092 19
33 1 31.0995 31.1548 13.7707 21
34 1 23.3572 29.7677 4.57599 21
35 1 11.3435 1.57279 65.5062 18
36 1 15.9079 2.33681 44.632 22
37 1 12.8019 3.62368 17.3586 21
38 1 13.2465 24.6463 39.8928 24
39 1 25.9051 6.02663 16.8722 20
40 1 8.66394 6.5066 16.1502 22
41 1 5.16974 5.70483 56.2815 20
42 1 12.8323 29.6692 29.4127 22
43 1 16.9989 16.0423 3.05639 20
44 1 12.983 13.45 30.4865 23
45 1 2.01474 29.2257 7.17811 18
46 1 32.8063 16.0402 65.6353 20
47 1 31.1592 24.5646 16.6239 22
48 1 17.102 9.91565 2.17763 22
49 1 21.0622 29.7222 45.5112 19
50 1 12.4674 10.5119 60.1273 22
51 1 26.9106 10.3316 21.2828 19
52 1 3.10107 32.5408 64.068 20
53 1 4.66895 26.9989 15.4716 19
54 1 5.76378 11.7576 24.0588 21
55 1 19.0078 4.18913 43.7291 22
56 1 28.3474 17.6652 2.48621 21
57 1 10.8144 -0.126783 21.9342 21
58 1 29.7725 12.7927 22.2324 19
59 1 9.81493 20.5074 17.3427 21
60 1 8.75532 24.8725 58.4177 19
61 1 23.4265 32.8278 66.2171 19
62 1 2.49465 33.2362 18.2124 22
63 1 24.9406 33.2544 46.5137 23
64 1 28.7521 21.2052 25.1604 23
65 1 0.421408 12.0825 26.3987 19
66 1 12.2531 1.98684 41.207 22
67 1 11.5586 24.988 61.9524 17
68 1 11.9627 17.9478 8.64822 23
69 1 22.2524 30.8739 19.9829 21
70 1 3.29462 6.64977 3.67078 22
71 1 25.5767 5.98766 63.5846 21
72 1 20.2309 31.8675 42.6378 18
73 1 9.02816 21.7091 45.771 19
74 1 27.7833 1.28418 11.5068 21
75 1 26.829 20.9057 31.2419 21
76 1 30.618 11.2949 34.0628 18
77 1 31.1992 5.64702 32.9586 22
78 1 1.76009 19.8224 22.3756 21
79 1 25.4105 16.7285 11.5254 21
80 1 2.47088 17.1417 44.1334 23
81 1 26.3997 25.0763 54.8914 22
82 1 13.758 33.6248 50.5396 23
83 1 28.6767 2.39286 14.5936 18
84 1 4.05438 8.62554 45.8602 22
85 1 12.4953 12.4531 12.1772 19
86 1 9.25576 18.0942 19.4723 24
87 1 18.5654 26.2385 10.9632 21
88 1 32.7568 30.6698 29.0353 19
89 1 29.2432 21.6374 15.8581 22
90 1 17.8604 13.8413 56.8604 20
91 1 32.1449 -0.101267 13.8888 18
92 1 18.4329 20.9203 55.0879 18
93 1 14.397 0.70724 46.6534 21
94 1 3.33579 5.31919 52.2673 18
95 1 8.67308 17.5315 62.9161 21
96 1 21.8561 8.36297 8.84131 20
97 1 0.938086 23.5981 19.5922 18
98 1 33.0436 19.7079 12.8115 19
99 1 18.0473 2.24208 57.3281 24
100 1 20.615 0.0922294 54.4385 18
101 1 5.88534 27.8562 18.7722 20
102 1 26.7615 6.62813 37.2674 20
103 1 26.9134 12.5378 64.0851 18
104 1 26.6351 10.0037 11.8007 23
105 1 6.11209 27.2003 28.4456 23
106 1 20.5103 32.2527 64.9917 17
107 1 4.06001 30.2069 55.8233 20
108 1 32.0642 28.1905 21.6327 20
109 1 30.0672 5.51777 26.3066 21
110 1 9.16792 15.1843 40.7432 21
111 1 5.28402 6.84775 11.0288 20
112 1 19.6066 10.6334 50.0067 21
113 1 22.2509 21.2316 10.4289 19
114 1 22.8836 2.58289 35.7219 21
115 1 27.287 32.3883 32.7716 23
116 1 16.3501 22.8281 12.9385 20
117 1 24.2375 31.2589 1.73173 23
118 1 3.12564 17.4007 1.65265 17
119 1 28.8874 27.343 30.1597 23
120 1 26.815 9.47197 50.5688 24
121 1 16.342 6.05535 29.7704 18
122 1 22.2673 5.4649 20.7937 19
123 1 3.37835 11.6538 11.1276 20
124 1 21.9015 26.3504 5.41598 21
125 1 18.2531 33.3063 10.4326 22
126 1 2.4759 22.3702 66.2157 19
127 1 9.54448 17.0336 26.1655 21
128 1 30.1034 31.7118 53.912 19
129 1 26.8001 25.653 0.995145 19
130 1 14.5291 21.9563 51.5977 18
131 1 29.7232 0.448507 47.5581 22
132 1 28.5559 6.12173 55.9239 24
133 1 15.4552 10.6693 34.6169 23
134 1 11.9532 0.374694 10.8703 19
135 1 26.2682 26.0299 20.409 18
136 1 11.3097 33.133 56.5188 21
137 1 14.3284 31.6504 31.467 17
138 1 29.9855 2.07482 23.3086 21
139 1 29.8303 26.6224 23.4469 21
140 1 31.3371 3.08066 7.07541 21
141 1 15.9398 23.9699 16.1423 22
142 1 0.673044 6.15635 4.05796 24
143 1 18.0368 27.1475 4.8839 19
144 1 13.5696 7.3458 5.74501 20
145 1 14.3818 17.7739 1.12259 18
146 1 17.2857 23.8075 0.322784 16
147 1 30.2498 27.9049 12.8899 21
148 1 9.74258 2.91025 30.7075 24
149 1 9.57191 28.6389 28.3565 22
150 1 10.4315 4.31774 5.35242 17
151 1 23.2793 25.1513 19.4245 21
152 1 3.05417 27.7067 63.584 22
153 1 1.13777 30.3375 19.7196 23
154 1 27.6956 13.3931 29.0099 19
155 1 6.05353 18.8057 12.7468 21
156 1 26.6436 31.4771 40.34 20
157 1 23.8381 8.99492 27.757 19
158 1 1.17548 0.452988 6.96536 24
159 1 19.7244 2.17283 64.2329 21
160 1 13.548 24.0996 0.0841451 20
161 1 28.6009 6.08445 39.1887 18
162 1 22.7148 20.9136 47.3796 19
163 1 24.8906 22.1559 60.9366 22
164 1 25.3412 3.0635 64.7527 20
165 1 14.561 18.6791 21.1028 22
166 1 24.5802 19.685 19.8171 21
167 1 6.47145 16.1015 62.043 20
168 1 26.4147 15.7403 8.61709 22
169 1 22.2199 25.5661 36.043 20
170 1 31.1824 32.6108 20.5704 18
171 1 15.1312 17.4536 10.4721 19
172 1 8.1715 24.8343 19.7177 20
173 1 20.9627 13.2362 6.51908 18
174 1 20.8201 29.3884 12.0779 21
175 1 20.2134 29.5422 1.29486 23
176 1 30.9683 7.52444 57.7826 23
177 1 21.2132 1.52054 32.7818 19
178 1 21.7546 14.8094 44.5355 20
179 1 33.2916 6.88445 43.023 20
180 1 4.77325 27.4188 25.4609 19
181 2 9.00159 13.3748 44.651 20
182 2 10.7927 21.0146 45.0145 19
183 2 32.5539 12.912 38.1009 19
184 2 17.5447 0.249423 43.4786 22
185 2 31.9242 17.1481 49.7061 17
186 2 7.40191 20.9535 17.3839 23
187 2 1.74442 1.01547 10.817 20
188 2 13.7484 10.8173 20.1924 24
189 2 6.04087 18.5642 55.675 22
190 2 21.961 27.2805 16.7057 20
191 2 24.1604 27.2106 31.7672 16
192 2 29.2837 19.6073 11.2589 23
193 2 19.072 13.0396 27.2302 20
194 2 11.8463 14.0114 24.8771 21
195 2 7.22479 13.5292 27.3202 20
196 2 12.4115 26.4269 8.88731 23
197 2 0.533439 6.25646 29.2089 21
198 2 7.08894 30.9669 1.40929 19
199 2 8.27785 27.4398 9.66942 21
200 2 10.5253 9.60805 58.0001 20
201 2 19.5822 -0.135117 5.70945 17
202 2 9.45161 15.1589 47.6277 21
203 2 2.8853 24.2162 47.3965 22
204 2 25.1275 0.489284 4.39705 20
205 2 21.6151 22.9779 31.4909 16
206 2 8.06184 20.0492 53.0211 21
207 2 2.53795 30.7745 39.5245 18
208 2 17.9691 20.4883 7.21836 21
209 2 26.5414 21.0168 60.1596 19
210 2 23.5466 4.32398 19.3 19
211 2 17.6029 29.1808 59.1598 18
212 2 0.389774 25.6267 4.34049 19
213 2 23.4299 14.1952 2.25622 19
214 2 30.513 24.9133 49.59 23
215 2 15.3156 15.1629 22.3355 19
216 2 15.4149 19.0783 0.343855 18
217 2 18.2994 26.0469 57.7847 17
218 2 21.1447 0.136106 12.7013 18
219 2 12.9173 12.7519 14.3428 17
220 2 7.85244 22.9685 18.9768 20
221 2 20.4098 7.26908 13.9282 20
222 2 8.52942 16.0516 24.6394 23
223 2 1.10343 5.65794 7.56441 20
224 2 28.1672 24.2677 58.8619 21
225 2 22.768 1.14089 34.413 23
226 2 28.2486 12.409 59.5732 20
227 2 27.093 3.59324 51.5613 25
228 2 30.4848 31.7776 0.139895 20
229 2 3.45908 7.1344 11.5445 21
230 2 7.1906 9.4255 16.1977 19
231 2 32.0176 0.30856 10.4778 19
232 2 0.387547 21.2581 43.0168 23
233 2 23.7251 13.2103 51.1418 19
234 2 27.5804 25.5994 16.0697 17
235 2 21.7108 7.60642 23.9595 19
236 2 20.1391 4.79759 24.2886 19
237 2 9.67958 13.7346 35.634 19
238 2 26.0897 5.03564 65.4871 19
239 2 4.49809 21.5663 25.4276 19
240 2 7.72932 7.41921 18.5177 19
241 2 26.8378 1.65314 43.886 22
242 2 29.7343 7.54671 21.7999 17
243 2 2.04989 29.171 12.2057 17
244 2 17.932 5.13568 40.8621 18
245 2 9.02417 30.6254 24.0696 17
246 2 6.51103 15.7632 4.96387 17
247 2 18.8192 22.9039 26.6905 20
248 2 32.9084 23.7322 48.1234 17
249 2 15.3761 14.8621 13.7899 15
250 2 16.7253 2.26796 48.8539 20
251 2 25.9346 5.02499 18.3442 17
252 2 9.9368 10.1427 30.1793 20
253 2 12.2814 5.06151 22.5575 20
254 2 2.37996 7.26766 30.8981 19
255 2 18.2731 18.0533 62.6625 23
256 2 1.55306 21.3178 0.755093 20
257 2 11.401 27.0401 20.2893 22
258 2 21.3619 1.61293 62.7819 18
259 2 4.72051 8.0746 23.4282 23
260 2 20.1971 20.4263 33.4511 19
261 2 31.0529 29.8222 12.0532 16
262 2 3.6256 25.7466 55.3141 18
263 2 4.85286 23.5962 28.2811 18
264 2 15.4868 1.17161 38.2513 20
265 2 17.7286 4.56093 21.0275 21
266 2 6.73268 28.6809 12.5289 18
267 2 30.5445 29.7716 60.6399 24
268 2 3.82396 30.5048 28.0181 20
269 2 5.941 4.69247 63.4179 21
270 2 4.2175 23.1902 55.7998 17
271 2 31.6687 23.1008 28.8757 22
272 2 12.5813 15.8217 13.1168 21
273 2 10.5382 22.3316 26.7349 21
274 2 10.3757 20.3287 1.29608 19
275 2 17.5078 15.8031 42.7806 16
276 2 23.3953 27.3375 14.035 21
277 2 8.15916 29.4934 43.8324 20
278 2 24.4249 5.98341 47.4181 22
279 2 25.3741 8.55796 5.56454 21
280 2 29.5829 23.3929 3.69994 19
281 2 20.7642 10.7388 12.9837 18
282 2 16.9137 22.914 8.92996 20
283 2 11.2351 15.6894 50.5209 21
284 2 29.7253 28.6898 56.92 20
285 2 21.9023 5.14362 12.4346 19
286 2 8.84194 25.6822 33.9387 22
287 2 17.4055 13.4086 17.6386 19
288 2 0.75835 3.09194 58.491 21
289 2 11.2253 4.91347 3.44915 21
290 2 23.2998 18.7249 33.1995 22
291 2 25.4977 27.5357 58.1151 24
292 2 33.0817 18.5852 26.5429 20
293 2 21.1925 11.5152 7.50237 18
294 2 22.9761 30.6102 8.83538 21
295 2 20.5666 11.6178 55.1034 24
296 2 12.2693 16.5147 48.5968 24
297 2 2.98021 11.5411 30.6703 20
298 2 16.7858 3.48838 38.5443 24
299 2 7.70774 8.3143 25.3117 20
300 2 30.0149 18.5972 54.2317 20
301 2 3.88555 27.935 41.2788 17
302 2 1.23129 29.2682 28.2536 17
303 2 27.3664 24.0489 2.36874 23
304 2 32.2233 25.3336 -0.0306288 21
305 2 7.90303 10.8003 28.1495 18
306 2 14.0783 16.2703 64.3086 18
307 2 11.3959 32.4971 11.0144 18
308 2 24.7321 13.6921 30.4805 15
309 2 30.0084 1.48651 29.1592 20
310 2 20.3731 17.4409 46.6829 17
311 2 20.0859 27.8717 54.6893 20
312 2 17.5614 14.2901 58.6125 20
313 2 1.10215 16.6983 18.1816 20
314 2 24.9419 3.96209 11.6647 19
315 2 30.7421 23.1308 46.9113 18
316 2 29.02 15.3521 20.6111 23
317 2 32.9569 0.884268 41.9896 19
318 2 8.61077 33.1922 25.8146 18
319 2 2.37728 17.1027 14.7682 22
320 2 24.3469 11.7227 1.64923 20
321 2 14.3953 18.5312 34.8332 22
322 2 11.1789 9.26085 65.9424 20
323 2 6.17726 1.62088 30.7868 17
324 2 32.6554 18.4646 14.7068 18
325 2 10.6388 28.8834 22.3893 23
326 2 17.4302 0.732808 26.1902 17
327 2 23.0996 2.22797 16.8274 17
328 2 21.1023 2.29332 65.8904 18
329 2 15.2292 6.77978 22.9976 18
330 2 14.0026 31.6127 49.988 16
331 2 19.872 1.99274 31.2947 21
332 2 19.19 31.8767 54.4764 22
333 2 5.73005 12.2225 31.7916 23
334 2 1.64309 26.8143 32.0904 19
335 2 27.5415 17.5999 7.02088 20
336 2 0.487553 1.49075 36.2943 21
337 2 22.9574 13.5218 55.3938 20
338 2 8.79762 18.0718 5.83851 17
339 2 21.8752 6.72201 18.8857 17
340 2 32.0615 27.1376 9.80513 18
341 2 28.1256 1.97924 47.4075 20
342 2 7.59712 24.39 50.9585 22
343 2 26.8619 17.3075 23.1504 17
344 2 27.0069 13.8241 3.64433 18
345 2 28.7393 33.4446 24.4086 19
346 2 26.4564 10.308 17.3032 20
347 2 13.1428 5.56077 51.475 22
348 2 23.2743 17.9792 65.9105 16
349 2 17.0182 29.4561 13.0484 23
350 2 19.0606 1.21938 46.7006 21
351 2 32.2119 1.97614 26.2185 20
352 2 10.8108 32.937 60.3023 17
353 2 11.4723 33.029 17.0606 17
354 2 8.70845 3.27198 44.7702 21
355 2 19.9236 13.4463 60.742 20
356 2 28.1208 20.2088 42.1525 18
357 2 23.8986 8.09063 60.0124 24
358 2 24.1811 30.1765 30.1284 15
359 2 4.65379 3.66135 41.6878 20
360 2 30.679 22.4092 25.6355 21
361 1 24.8378 14.1463 20.9142 22
362 1 18.8232 0.226362 16.4739 19
363 1 27.4164 10.4784 24.6001 17
364 1 16.776 2.70363 6.08758 22
365 1 24.6085 28.584 30.8798 17
366 1 20.3754 7.22507 35.6697 19
367 1 18.796 14.8167 17.3198 20
368 1 16.943 33.5455 59.3913 19
369 1 3.13708 24.6916 63.8412 18
370 1 12.0366 21.8256 37.8696 20
371 1 8.28812 3.13168 51.7068 20
372 1 10.4272 6.46516 21.7991 20
373 1 29.2954 3.94083 31.137 20
374 1 23.4972 23.4242 2.7678 16
375 1 7.42906 19.113 22.0938 23
376 1 8.5721 31.5704 28.0088 19
377 1 11.0669 1.97556 33.1242 22
378 1 26.5458 16.5468 0.254033 19
379 1 13.4222 9.0174 42.8481 23
380 1 25.7779 2.41438 4.29943 22
381 1 29.2842 27.4681 55.595 21
382 1 25.2456 17.8252 43.3885 19
383 1 32.7525 25.0222 22.3078 21
384 1 18.6102 21.4479 47.4445 19
385 1 18.6479 13.8722 22.6325 20
386 1 31.0086 -0.132414 61.9787 21
387 1 21.3035 33.3476 62.8635 19
388 1 16.117 15.6698 7.83882 19
389 1 19.87 30.8983 14.6576 23
390 1 21.0743 33.2576 31.8836 24
391 1 3.96241 19.4928 58.3794 17
392 1 24.8246 0.571426 19.8076 22
393 1 14.2475 23.2326 8.33873 18
394 1 18.0902 31.7373 29.268 19
395 1 30.8555 6.85159 19.8278 22
396 1 16.318 15.6169 60.6957 17
397 1 29.0801 27.1896 19.7902 20
398 1 2.09647 25.1521 48.6594 19
399 1 10.576 19.4765 36.0387 20
400 1 15.8671 6.18854 12.1737 21
401 1 4.68171 11.6054 42.619 20
402 1 21.8833 18.4369 4.1797 18
403 1 20.5948 10.9806 34.9669 22
404 1 25.5383 31.7657 13.4579 21
405 1 27.342 29.11 8.96641 20
406 1 6.15601 21.0211 25.8751 19
407 1 29.5941 23.5543 65.8714 19
408 1 32.437 1.53957 45.2466 16
409 1 28.7985 32.0893 26.0212 19
410 1 12.4786 11.7492 27.8341 20
411 1 13.7715 8.28408 33.3254 20
412 1 22.1162 5.7802 39.7721 20
413 1 11.5491 29.3428 44.3527 19
414 1 1.42289 11.8608 15.6701 17
415 1 4.38033 8.36349 38.5903 20
416 1 22.0402 24.3983 10.81 22
417 1 7.77667 29.8269 25.3758 20
418 1 12.8387 0.905995 30.5596 23
419 1 28.8054 21.9139 42.9711 19
420 1 27.8245 27.7488 50.3194 21
421 1 19.3871 18.9309 37.4635 18
422 1 19.6446 18.9382 64.0044 19
423 1 10.4246 7.44602 10.9027 21
424 1 1.91624 5.90389 14.8422 17
425 1 19.8301 23.4339 10.4536 23
426 1 10.695 24.45 38.6081 20
427 1 33.0783 18.9849 64.1001 21
428 1 7.73165 4.21651 59.0172 22
429 1 28.9502 15.482 26.8497 18
430 1 26.8946 5.93766 3.35132 21
431 1 7.70673 20.3103 34.7813 19
432 1 19.6226 15.9847 20.0374 20
433 1 1.08252 26.2321 44.9033 22
434 1 27.0315 7.95131 5.2424 18
435 1 32.1611 11.1924 45.1521 20
436 1 4.23592 4.74991 20.1814 18
437 1 31.5613 29.12 24.9328 21
438 1 32.395 6.33577 39.7003 18
439 1 26.8105 21.2384 17.26 22
440 1 17.723 27.9166 35.3384 21
441 1 17.2519 28.0807 19.9689 22
442 1 30.2235 29.7813 28.3197 19
443 1 30.4539 12.6927 1.50061 23
444 1 9.44055 26.4935 63.9118 20
445 1 16.7563 11.9342 10.0014 21
446 1 27.0827 19.9467 44.7436 18
447 1 9.26011 23.7005 17.9289 22
448 1 25.9433 7.30981 21.3048 21
449 1 6.88 18.6897 31.7982 20
450 1 15.4126 10.9533 27.3969 20
451 1 3.58597 14.9408 66.3046 17
452 1 24.6734 14.6107 34.6757 19
453 1 19.8527 16.1488 3.87236 22
454 1 16.3451 24.5616 52.5837 19
455 1 11.2492 13.366 39.8701 22
456 1 28.1671 13.1221 24.575 19
457 1 9.17635 14.7932 63.1022 18
458 1 20.2031 13.553 24.9156 20
459 1 28.1983 29.8395 57.1013 21
460 1 13.1068 12.9145 42.4517 23
461 1 6.55694 10.1056 39.2752 21
462 1 27.7389 31.7 21.0782 17
463 1 24.4434 17.6516 34.3392 20
464 1 29.2645 3.5286 21.0326 22
465 1 30.3209 19.6152 12.9207 22
466 1 28.353 8.97684 36.8304 22
467 1 11.6675 21.7656 4.93799 18
468 1 2.69603 33.5842 9.67684 23
469 1 8.00066 31.6408 0.00309835 18
470 1 3.88871 27.272 44.3121 16
471 1 2.15405 32.1168 57.6547 19
472 1 2.52611 3.06658 32.4479 19
473 1 20.6344 18.179 13.1497 18
474 1 10.9367 16.2351 2.52257 16
475 1 1.63416 2.28927 12.5269 22
476 1 33.0433 16.7876 22.6531 23
477 1 21.2883 0.310996 35.135 22
478 1 5.9168 6.12063 18.7254 18
479 1 15.4368 22.9606 29.4361 19
480 1 24.4946 5.16256 26.9046 19
481 1 17.786 3.44285 23.0822 17
482 1 31.2638 25.1649 57.046 20
483 1 20.9799 4.3201 26.5056 20
484 1 10.0029 33.5088 64.2048 19
485 1 31.0791 33.1764 23.7082 19
486 1 14.2871 16.9275 12.9676 18
487 1 4.87585 15.2483 44.684 21
488 1 7.56886 1.89233 10.3181 21
489 1 2.8371 16.2312 5.01393 21
490 1 14.6678 26.2413 18.6341 20
491 1 17.684 27.081 22.8844 23
492 1 2.92202 3.8219 58.1121 21
493 1 8.67857 32.8694 35.7077 17
494 1 27.1742 8.73628 53.7763 20
495 1 32.5949 18.9002 51.766 17
496 1 28.9921 32.764 17.8833 23
497 1 11.9673 18.5757 58.4166 22
498 1 31.2589 6.32094 47.8708 19
499 1 15.8053 23.2111 19.4031 23
500 1 2.38754 31.6458 50.1225 21
501 1 2.36918 15.4061 24.5417 20
502 1 22.8431 20.7761 1.76628 20
503 1 11.7783 18.114 27.5 19
504 1 25.5299 30.5243 5.03237 21
505 1 28.5588 16.6118 12.316 19
506 1 30.2639 12.0723 54.3256 18
507 1 1.82541 4.60588 11.4407 22
508 1 28.9257 0.628676 53.5795 18
509 1 16.1142 6.44101 41.6363 20
510 1 12.6726 5.79585 10.3484 22
511 1 14.2401 26.0344 64.6477 18
512 1 21.6514 29.6386 7.04193 23
513 1 3.96123 15.9258 63.878 22
514 1 27.7511 13.2913 33.2104 17
515 1 30.6115 12.4443 30.6704 18
516 1 19.8616 21.0963 58.2785 18
517 1 16.6499 16.1686 21.4754 21
518 1 13.6693 31.7956 8.82197 19
519 1 10.9326 2.89076 51.8127 16
520 1 1.04334 24.973 35.1418 24
521 1 17.4434 33.6481 64.2613 20
522 1 27.8574 24.8443 57.0471 20
523 1 13.5719 3.22249 64.7486 21
524 1 15.574 4.21336 15.4187 25
525 1 13.1554 28.065 12.207 19
526 1 16.5149 9.14352 42.4848 21
527 1 18.1651 26.8823 2.15922 21
528 1 30.0564 2.9324 62.8696 20
529 1 15.4137 4.94791 5.1832 21
530 1 15.2977 17.053 51.8569 18
531 1 21.9539 17.5413 62.0446 23
532 1 18.1259 22.1406 51.6892 21
533 1 2.89769 7.76099 54.2608 22
534 1 11.863 0.354558 47.4578 19
535 1 30.5955 1.9772 12.7698 22
536 1 21.8983 30.6914 23.0418 19
537 1 7.53463 3.73211 28.2854 18
538 1 5.04118 4.922 59.6616 23
539 1 11.3059 16.698 21.3851 24
540 1 22.4631 29.0975 48.9116 20
541 2 15.8657 11.8442 64.3921 20
542 2 18.3354 14.8365 3.71784 22
543 2 28.9087 10.0724 54.7781 22
544 2 9.75108 8.67407 7.59132 19
545 2 19.4883 18.4066 59.6054 19
546 2 19.4066 15.7174 48.8275 19
547 2 6.54292 6.02342 24.6137 19
548 2 13.5248 8.67042 63.1691 24
549 2 19.0756 15.3663 6.63829 19
550 2 14.5401 8.78534 9.62853 22
551 2 11.1942 23.0872 34.0668 21
552 2 6.06327 1.06568 55.3945 19
553 2 17.0047 21.883 39.765 18
554 2 18.7791 16.7999 57.0404 17
555 2 14.2281 6.17662 4.27562 19
556 2 7.33824 1.58191 5.51256 21
557 2 12.8925 18.9197 13.88 17
558 2 13.8727 24.1653 31.6208 24
559 2 17.3525 32.5144 46.0251 19
560 2 7.18092 16.0951 19.9307 20
561 2 2.09946 27.0672 29.0282 16
562 2 15.6113 2.50609 60.1679 21
563 2 6.38567 28.4548 48.8951 22
564 2 12.4225 25.9805 23.3882 20
565 2 4.55832 18.6609 1.15604 19
566 2 5.168 16.9028 64.875 17
567 2 13.0382 22.3009 46.2362 19
568 2 25.1621 4.54672 8.84062 18
569 2 23.9309 25.6874 21.3607 18
570 2 24.402 19.5038 1.9473 18
571 2 10.8249 21.1295 23.6979 17
572 2 21.0318 27.8222 8.1826 23
573 2 25.5498 22.4984 62.5903 17
574 2 11.6633 11.0737 63.0101 21
575 2 11.9803 21.95 14.0007 21
576 2 17.7939 24.3713 60.6459 19
577 2 4.24977 15.4473 40.0073 22
578 2 1.00263 12.4139 52.5624 19
579 2 32.7246 10.1386 23.1104 21
580 2 21.726 19.6284 45.2159 21
581 2 14.8943 0.344962 29.2672 19
582 2 3.80123 3.52754 65.3608 21
583 2 8.31503 7.26248 3.46881 21
584 2 13.2046 14.0712 21.1758 23
585 2 7.09968 17.2654 13.1908 16
586 2 21.2274 22.4298 11.7853 20
587 2 1.43658 14.02 15.2026 15
588 2 11.665 18.8023 34.5051 18
589 2 3.1321 32.4895 14.7567 20
590 2 0.91017 33.0735 16.3317 20
591 2 31.417 9.07592 46.192 19
592 2 30.3351 32.0119 33.4147 17
593 2 3.03657 19.8165 40.1187 18
594 2 8.46213 15.1473 29.4251 22
595 2 20.2617 19.9906 22.8557 20
596 2 31.1876 6.02005 9.83623 19
597 2 9.52489 15.5281 19.0182 20
598 2 31.8625 7.13284 24.0242 17
599 2 1.14519 32.5725 3.02014 19
600 2 9.72708 27.6782 41.3531 24
601 2 25.7023 13.9957 52.4522 19
602 2 11.4777 12.3843 44.0054 21
603 2 27.5583 21.8675 11.112 18
604 2 6.07548 19.0549 25.4424 22
605 2 29.5576 17.0759 41.3226 22
606 2 20.2383 9.52553 9.41268 18
607 2 17.7022 21.2546 12.5207 19
608 2 31.7589 30.0158 17.1343 21
609 2 15.1128 0.606058 44.2889 17
610 2 12.3312 3.72275 27.8828 22
611 2 32.983 32.0119 62.5431 20
612 2 21.4874 22.0338 54.2541 23
613 2 14.2883 11.0047 29.1761 19
614 2 31.741 31.5939 22.104 19
615 2 3.33555 14.8806 26.1225 21
616 2 17.8404 15.6544 61.7471 18
617 2 18.8026 23.3998 36.6634 17
618 2 17.5805 8.90769 44.4482 19
619 2 21.1199 29.9509 41.5621 20
620 2 20.2281 0.654151 44.1459 19
621 2 14.4272 10.0584 33.0037 21
622 2 15.8286 27.0024 43.5981 19
623 2 14.5979 22.3413 22.3973 20
624 2 23.3861 22.7495 6.84436 19
625 2 7.21272 16.83 2.60643 23
626 2 6.92208 24.1592 9.45616 19
627 2 22.9583 17.5579 60.3997 21
628 2 26.8678 15.2547 16.3397 20
629 2 0.906588 12.9868 56.2735 18
630 2 24.9362 22.3561 66.0321 19
631 2 1.88478 8.45031 55.9911 18
632 2 23.1699 0.890548 20.9088 17
633 2 5.97503 9.26644 1.04481 22
634 2 18.4904 29.5676 15.2689 19
635 2 7.63621 19.6076 14.3794 21
636 2 1.92912 0.760202 19.1889 23
637 2 5.9076 12.0375 39.2602 22
638 2 30.2903 6.4667 28.1712 16
639 2 16.6582 27.3108 11.427 22
640 2 11.1639 6.44629 26.898 18
641 2 0.845534 21.8094 40.4287 24
642 2 30.405 22.8039 0.48256 23
643 2 12.1503 15.7303 3.9491 19
644 2 15.4002 10.879 6.47273 22
645 2 16.5499 29.0017 39.4987 20
646 2 21.3898 4.06409 43.2644 20
647 2 17.2219 31.7902 1.62301 17
648 2 26.899 4.37485 60.1833 20
649 2 2.28337 4.85464 56.7642 19
650 2 33.0979 16.0803 1.35294 17
651 2 28.3937 21.9462 20.4691 19
652 2 29.5283 22.4403 60.3469 18
653 2 12.0404 25.4609 41.5785 22
654 2 2.16306 25.6712 52.6291 18
655 2 15.3074 18.4307 29.9787 21
656 2 11.8971 14.4003 8.65083 20
657 2 17.1009 6.76804 25.6361 18
658 2 24.7833 8.73914 48.8607 20
659 2 12.1044 3.7432 0.288434 21
660 2 20.6032 2.8334 59.6117 21
661 2 8.09954 19.1222 -0.0413053 22
662 2 6.74678 6.70397 1.60612 20
663 2 19.3271 6.00292 37.0333 20
664 2 16.4723 24.1136 37.7636 19
665 2 14.0591 21.1838 38.1781 20
666 2 15.6164 31.3008 60.0581 21
667 2 10.5287 24.9948 63.3526 17
668 2 15.9759 30.2347 3.48722 19
669 2 4.72911 10.9595 34.4323 19
670 2 33.1315 9.9016 2.76908 25
671 2 20.6045 30.3689 64.6499 18
672 2 29.2436 19.3348 48.1681 17
673 2 12.9107 21.4014 1.46493 16
674 2 15.6915 15.9236 40.9539 20
675 2 29.9158 18.6782 60.4557 20
676 2 27.558 9.68992 40.629 23
677 2 13.3932 13.5841 63.9671 17
678 2 20.2594 17.452 4.96273 19
679 2 20.1663 2.88437 26.0601 21
680 2 11.4443 20.2196 39.0299 18
681 2 11.2761 32.4146 47.698 20
682 2 5.01921 9.20342 56.2177 23
683 2 19.1701 8.77789 26.719 20
684 2 31.56 29.3853 37.74 17
685 2 29.586 14.199 23.7982 22
686 2 9.91396 18.0955 47.6549 22
687 2 15.0068 33.6247 24.072 20
688 2 20.6153 13.1534 39.4012 19
689 2 17.1677 19.7056 25.3634 20
690 2 28.471 16.9764 37.232 18
691 2 10.0818 6.49781 19.6644 21
692 2 12.6823 9.76668 6.9462 23
693 2 29.8553 27.586 31.8409 20
694 2 11.0663 10.1227 49.9199 16
695 2 32.2282 4.6059 5.83893 23
696 2 30.9351 2.40887 40.8451 16
697 2 5.77819 5.99431 12.9729 21
698 2 26.1759 2.31587 26.5891 18
699 2 12.1442 3.30593 50.5121 21
700 2 27.9264 13.8852 18.4996 19
701 2 6.28692 9.65578 59.2117 21
702 2 10.7744 3.50103 34.6512 18
703 2 1.89806 25.7582 22.3615 21
704 2 30.9549 26.8898 4.65882 20
705 2 1.243 32.6325 48.5803 18
706 2 2.39143 9.76978 45.3627 18
707 2 24.7771 11.8444 60.2584 19
708 2 28.9514 24.3069 61.5749 19
709 2 30.3935 3.85311 12.4922 18
710 2 19.1467 1.56736 50.0628 20
711 2 16.8626 23.3779 32.0599 20
712 2 21.571 15.6239 3.42559 20
713 2 1.76604 29.6997 4.11723 18
714 2 19.0855 6.95576 32.054 20
715 2 21.4832 17.5465 23.2139 18
716 2 21.9404 14.8607 31.5285 21
717 2 27.1974 12.0169 37.5656 19
718 2 27.139 14.9386 6.6335 20
719 2 12.2193 31.8866 7.34431 19
720 2 5.73339 33.143 52.9446 19
721 1 12.7968 6.78083 31.0865 18
722 1 15.351 10.2145 56.9223 19
723 1 19.677 1.6692 36.4909 23
724 1 11.8492 27.8127 7.49064 21
725 1 10.8962 24.5584 42.4453 22
726 1 11.9705 5.37379 63.0844 21
727 1 3.83224 11.1588 8.22888 18
728 1 6.61488 29.4149 16.8752 17
729 1 20.5041 23.2255 35.989 22
730 1 20.1152 16.2782 24.0306 22
731 1 25.7512 3.94673 19.7835 22
732 1 27.0398 32.8151 23.5214 17
733 1 4.72501 8.83151 60.1857 22
734 1 23.6803 5.61129 65.5226 21
735 1 29.1503 4.31999 52.6346 22
736 1 21.9528 5.54474 28.6533 17
737 1 12.9737 4.68604 49.7799 21
738 1 1.24173 12.0882 5.43957 19
739 1 10.7883 4.57327 23.6596 18
740 1 9.681 12.6817 53.1456 18
741 1 24.385 20.4676 66.0188 20
742 1 18.7007 7.46876 12.8323 22
743 1 5.34096 31.2193 62.5909 21
744 1 4.42954 17.2003 18.0105 22
745 1 8.99823 19.9775 5.27984 19
746 1 17.3595 28.7855 7.60643 18
747 1 4.67928 12.1939 45.7946 21
748 1 27.2642 26.7077 24.9824 19
749 1 22.8705 31.3364 29.7217 21
750 1 4.21618 11.048 15.356 18
751 1 23.1567 0.35926 16.6303 19
752 1 1.94895 2.23709 20.3259 19
753 1 24.8746 29.1763 15.5267 21
754 1 3.4976 24.064 60.4767 15
755 1 3.65219 24.4306 45.6369 19
756 1 14.4107 14.1003 56.7449 19
757 1 2.6305 23.3641 12.3391 20
758 1 26.8092 8.03262 14.0906 23
759 1 26.1982 7.83568 9.16857 22
760 1 28.5484 5.08494 6.04384 22
761 1 7.53529 31.3237 30.2379 19
762 1 8.15298 8.34229 8.90431 20
763 1 13.9763 9.62547 18.5077 22
764 1 18.4177 32.4521 61.1787 20
765 1 0.356399 23.8266 58.7456 20
766 1 28.5 5.60797 28.532 18
767 1 10.2895 0.736458 0.850498 18
768 1 6.43131 17.8593 0.723183 19
769 1 17.5075 8.28821 52.0578 23
770 1 8.77878 22.9693 5.75838 18
771 1 27.5323 28.4961 22.278 19
772 1 32.3439 26.672 14.2405 21
773 1 25.1851 19.5075 3.92379 20
774 1 20.0723 21.9541 32.351 21
775 1 28.2403 3.13668 2.55436 20
776 1 17.5846 2.51087 2.47102 19
777 1 19.6998 13.4813 3.42058 19
778 1 29.884 7.38931 23.9335 17
779 1 17.365 28.5948 66.2746 19
780 1 4.18733 25.445 52.0436 22
781 1 22.9098 3.38034 59.1733 20
782 1 18.3098 15.8199 50.4105 19
783 1 30.0616 3.65963 66.3752 20
784 1 22.9839 28.7865 9.57274 22
785 1 29.7155 29.4009 51.8947 20
786 1 29.5369 10.4735 65.167 19
787 1 23.5057 31.2488 10.5919 19
788 1 19.3275 29.2126 5.42822 19
789 1 29.8639 12.3181 9.20445 21
790 1 23.0231 9.58966 60.9888 19
791 1 18.5981 23.3317 16.5895 21
792 1 13.9431 21.6397 63.931 17
793 1 32.7141 1.3911 55.7715 17
794 1 18.7705 17.9065 15.38 22
795 1 28.5196 19.9544 19.9258 23
796 1 0.618419 6.52989 59.976 20
797 1 17.9201 30.3393 32.7013 19
798 1 9.51198 14.3219 20.387 22
799 1 27.3455 17.7174 64.414 17
800 1 6.8748 25.5542 16.691 21
801 1 21.9385 11.1048 29.6769 19
802 1 23.3862 11.7729 3.19157 17
803 1 9.44837 4.6408 9.75871 20
804 1 19.2898 4.86284 19.8378 20
805 1 4.96714 31.2606 9.56303 21
806 1 23.4094 25.205 60.2774 21
807 1 16.1404 28.1412 52.0343 23
808 1 16.5371 16.2884 65.5024 22
809 1 15.3217 3.32586 11.4197 20
810 1 20.146 26.2191 34.141 18
811 1 11.2309 8.71132 40.233 21
812 1 19.0938 4.87616 4.23465 21
813 1 11.651 9.26903 63.9419 19
814 1 1.49655 14.8805 1.00319 19
815 1 22.0148 3.16932 20.0876 21
816 1 32.3135 13.9202 28.3807 20
817 1 2.34103 6.84235 6.25096 21
818 1 4.36859 27.8263 8.86861 19
819 1 13.5746 23.2056 11.1284 21
820 1 8.07264 21.2765 19.6006 21
821 1 23.741 24.6902 13.8923 21
822 1 32.7147 14.5472 36.9541 19
823 1 1.24423 31.1329 41.4142 19
824 1 24.6684 29.4795 39.3881 19
825 1 9.90926 22.5738 28.8788 20
826 1 29.114 27.8175 58.6775 23
827 1 18.632 17.1542 47.3319 19
828 1 27.8858 29.8896 18.9542 22
829 1 27.3824 25.4475 48.3458 21
830 1 24.1056 31.5146 63.7007 19
831 1 13.4161 16.0641 17.5464 20
832 1 5.47032 31.5704 1.80576 19
833 1 5.63905 29.7421 29.2316 20
834 1 18.0772 19.5943 59.6525 22
835 1 16.423 21.485 62.6146 22
836 1 10.4956 1.07231 24.7202 21
837 1 2.47887 11.4463 23.5695 17
838 1 16.1201 20.9352 57.3318 20
839 1 11.7185 12.7859 63.6315 23
840 1 19.869 9.19624 2.80451 21
841 1 18.0008 21.1774 29.7453 20
842 1 28.4078 1.67679 33.9302 22
843 1 2.32292 27.9566 48.0657 21
844 1 10.9651 18.8997 61.3073 19
845 1 16.5644 22.8756 23.0692 21
846 1 10.3585 7.42846 43.6126 19
847 1 7.07069 15.2696 65.3822 23
848 1 29.4032 5.2302 14.1986 21
849 1 30.1552 20.376 40.5123 22
850 1 11.8654 20.5009 54.9219 24
851 1 31.602 4.03118 4.31905 21
852 1 24.4911 29.3319 58.6659 20
853 1 6.20441 0.0989108 64.2331 20
854 1 15.5807 1.08213 61.6477 20
855 1 24.5831 18.9007 60.4913 19
856 1 30.2297 33.7592 11.0632 16
857 1 6.85665 32.5811 41.4046 16
858 1 30.2138 32.8975 1.40427 19
859 1 5.55581 27.3871 40.3348 16
860 1 21.3821 9.08391 14.372 18
861 1 25.0214 24.1941 22.0855 19
862 1 6.99022 19.4839 18.3568 24
863 1 7.40032 15.2092 26.4655 20
864 1 19.0272 25.5477 51.0697 21
865 1 4.67148 4.16362 12.4529 22
866 1 30.2307 16.0401 49.4961 20
867 1 12.8307 11.1975 33.444 24
868 1 12.4461 33.5648 59.7202 20
869 1 12.4425 33.6979 6.82897 22
870 1 19.7347 10.1812 11.3579 21
871 1 17.6633 16.9265 53.1718 16
872 1 9.57187 18.7424 54.0549 22
873 1 10.5187 30.3019 31.0119 22
874 1 11.6115 8.79161 16.2244 21
875 1 25.5621 30.2946 25.024 21
876 1 3.91132 10.8543 35.9875 22
877 1 6.13847 3.60939 0.876889 22
878 1 25.8274 30.2039 48.7586 23
879 1 8.13839 10.3553 19.9374 22
880 1 9.22156 18.212 57.0898 20
881 1 6.23539 3.68006 40.8667 22
882 1 6.00469 5.55266 15.3847 19
883 1 28.2817 29.5415 32.3153 18
884 1 21.0824 3.5179 13.3714 18
885 1 31.1864 0.90995 65.758 27
886 1 10.5536 31.324 8.21 19
887 1 9.30357 5.53151 39.1876 22
888 1 27.2545 4.59008 8.87491 18
889 1 26.0186 19.4303 1.21414 20
890 1 21.2385 23.0417 13.9387 20
891 1 24.5523 0.593984 12.3443 19
892 1 21.4474 9.75666 54.9425 19
893 1 15.1821 9.7916 60.148 19
894 1 14.5679 3.87503 18.9862 21
895 1 10.8474 17.1756 5.52987 18
896 1 11.4 16.6077 31.3128 24
897 1 15.1895 29.3451 17.5602 19
898 1 2.04343 28.2938 33.4692 19
899 1 17.9367 8.58206 21.3973 21
900 1 10.6278 2.51322 27.9759 23
901 2 15.3106 27.5662 8.21211 20
902 2 31.6552 20.6558 22.4815 20
903 2 16.4253 7.72147 2.52199 19
904 2 28.6944 8.81828 64.5734 24
905 2 32.7655 25.7907 63.9664 23
906 2 18.7499 10.2566 61.5703 20
907 2 29.024 2.55676 32.4312 23
908 2 32.8647 22.3859 62.6852 18
909 2 7.26781 23.1605 12.0573 18
910 2 8.0989 20.1719 64.3379 17
911 2 1.63744 2.96702 63.4639 21
912 2 21.4861 24.4591 60.1418 20
913 2 21.9988 13.915 58.1161 19