ITEM: TIMESTEP
323000
ITEM: NUMBER OF ATOMS
2000
ITEM: BOX BOUNDS pp pp pp
-30.0 30.0
-30.0 30.0
-30.0 30.0
ITEM: ATOMS id type x y z Coordination
1 1 -14.6197 -4.17447 -2.82392 18
2 1 -8.71514 -13.5883 2.06836 14
3 1 -11.683 15.873 3.60927 7
4 2 -11.543 0.501887 -3.49113 19
5 2 -12.3278 7.33743 8.32485 16
6 2 -15.7857 -1.32681 9.40055 11
7 1 1.64248 -14.7319 -2.00584 16
8 1 -2.32004 -13.8208 -6.76708 10
9 1 5.00239 -18.0056 3.6144 9
10 2 3.17375 -12.7382 -7.02251 15
11 2 -2.5177 -6.53358 -14.9984 4
12 2 -0.181609 -11.5524 -4.71 19
13 2 4.77404 7.90353 -8.65082 21
14 1 -1.41819 5.27541 -12.9892 17
15 1 -7.90416 0.92572 -17.3862 16
16 2 -1.32335 3.23828 -12.1161 21
17 1 -11.8161 -12.5528 -5.08532 11
18 1 -13.1774 -7.69659 -10.7023 12
19 1 -16.5516 -1.77064 -1.51034 16
20 1 -13.7363 -6.76227 -7.72006 18
21 1 -16.0436 -5.47088 2.91075 16
22 1 -18.8131 -6.25337 -7.96399 8
23 1 -11.6414 -13.6469 0.884419 9
24 1 -7.4482 -7.02771 5.14518 19
25 1 -11.346 -3.175 12.5894 17
26 1 -9.00842 1.40355 -14.487 20
27 1 -14.6832 3.4354 -6.25144 18
28 1 -14.8501 1.33895 -12.2637 12
29 1 -9.16252 -5.4326 -8.88354 18
30 1 -14.2085 -3.96947 -10.3601 21
31 1 -6.79862 -6.58125 -7.49624 21
32 1 -16.6255 -3.37625 -7.25936 13
33 1 -14.4413 8.45514 -6.61201 11
34 1 -12.0139 -11.2935 -1.68476 13
35 1 -6.75368 -8.48102 10.4431 17
36 1 -17.1051 -3.19793 -4.63191 14
37 1 -17.0485 -0.080612 -5.67392 12
38 1 -15.0261 -11.9681 -8.8128 7
39 1 -2.96392 -8.14023 -9.36659 18
40 1 -16.5126 -10.2213 3.49779 7
41 1 -13.9513 -6.96793 -4.35341 18
42 1 -5.66553 -1.10936 -8.8762 21
43 1 -7.69238 -8.05713 -4.62602 20
44 1 -2.03888 -12.8627 1.47893 15
45 1 -6.74954 -12.8335 -2.95131 19
46 1 -6.53546 -13.2868 7.92288 12
47 1 -7.04128 -0.909089 -14.4808 19
48 1 -3.86368 -9.79988 -11.6323 11
49 1 -13.5039 -12.0872 3.22222 9
50 1 -6.38008 -7.19253 -10.8064 16
51 1 -1.71986 4.11207 -15.8467 13
52 1 -12.7281 -4.57586 2.32206 17
53 1 -2.32563 -2.18837 -7.6299 22
54 1 -4.88208 -8.68531 -6.79384 22
55 1 -3.99545 -6.46111 1.59048 22
56 1 -5.27216 -9.88426 -9.10592 15
57 1 -6.95988 -13.4106 -0.273978 16
58 1 -16.4153 -8.96639 -2.11096 10
59 1 -10.4416 -6.5701 -6.13566 16
60 1 -15.2585 -4.67202 -0.111416 17
61 1 -9.66061 -13.1678 -1.47538 13
62 1 7.86756 4.37689 -10.9374 17
63 1 -6.8953 4.71154 -13.5097 17
64 1 -13.2543 4.29013 -8.6842 17
65 1 -10.532 -5.51616 -15.7874 11
66 1 -9.32723 -1.18343 0.0302282 18
67 1 -7.76938 3.3446 -16.9279 12
68 1 0.535955 -4.18259 -12.4735 14
69 1 -14.3498 -1.009 -4.26195 19
70 1 -10.2164 -2.18226 -14.7497 14
71 1 -10.543 -3.05253 -6.57251 19
72 1 -13.1623 -5.29662 -13.6908 14
73 1 -11.763 -0.0545751 -5.31497 20
74 1 -11.8217 -5.57468 -2.4097 13
75 1 -13.1915 -4.6618 -6.15205 18
76 1 -12.9843 -9.691 -7.72225 12
77 1 -13.6116 -7.86335 -1.0895 17
78 1 -10.5578 0.0795332 -1.96091 17
79 1 -11.8619 5.57716 -0.977069 15
80 1 -3.34947 -6.03567 -2.18947 20
81 1 2.419 -12.3034 -12.0441 10
82 1 -5.21257 -12.9131 -8.02455 12
83 1 -3.13133 -10.4532 -7.12613 18
84 1 -10.7615 -7.89017 -3.36192 18
85 1 16.5045 -8.47054 -7.7807 12
86 1 -2.49072 1.13388 -15.8201 17
87 1 -3.16725 -12.5353 -10.2191 13
88 1 -5.34178 -12.3096 2.23921 19
89 1 6.55868 -12.3119 -9.97405 12
90 1 -4.48 -14.8212 -1.05662 14
91 1 1.80556 -14.0275 -6.70279 13
92 1 -4.03424 -16.3086 3.95006 12
93 1 0.762653 -15.1686 0.925652 19
94 1 11.1578 -12.328 -6.47796 12
95 1 -8.06326 -2.14881 -17.1596 12
96 1 -0.45184 -8.65561 -11.7139 17
97 1 -1.51778 -15.0455 -1.67148 15
98 1 -10.9844 -7.51271 -12.8537 11
99 1 -8.39131 -6.58491 -12.9517 13
100 1 -12.8494 -3.13127 -15.5012 11
101 1 9.90389 -7.74564 -17.6021 6
102 1 0.091392 -13.3781 -4.47775 18
103 1 2.97054 -9.04529 -10.0761 18
104 1 1.92225 -9.82145 -13.2808 14
105 1 6.78747 -5.22195 -9.74356 20
106 1 -4.70598 -3.55579 -2.79331 18
107 1 -9.0337 -6.52272 -0.791259 19
108 1 8.37506 -1.26953 -13.2258 19
109 1 -9.35832 -10.4861 -4.41835 18
110 1 1.24479 -3.27368 -8.49597 21
111 1 -2.02329 -8.62583 0.629204 21
112 1 4.12128 -5.47985 -7.36584 23
113 1 -15.8712 -3.69885 -12.3799 11
114 1 8.2619 5.01882 -14.4012 18
115 1 -11.2753 -0.362865 -17.2036 12
116 1 1.28008 -6.59207 -9.71519 19
117 1 -3.49193 -0.397016 -13.2512 22
118 1 5.48581 -5.07684 -14.9901 17
119 1 -1.34484 -5.21791 -9.64434 16
120 1 8.40736 -3.47309 -14.604 21
121 1 12.6519 -9.03741 -12.2168 10
122 1 -3.54893 -5.72675 -7.63384 20
123 1 -4.95483 -3.95421 -9.07259 21
124 1 -11.2582 -3.08957 -9.36611 18
125 1 -1.20052 1.27013 -4.77473 19
126 1 5.63683 -5.64982 -2.05304 18
127 1 -8.00631 -4.35849 -4.62421 18
128 1 1.75598 -7.64719 -5.12717 20
129 1 -5.40113 0.734384 -3.57467 18
130 1 -0.514485 -0.81245 2.53896 17
131 1 -5.38475 -5.63678 -4.91431 20
132 1 -2.27431 -4.30264 -4.74603 20
133 2 -9.04626 -0.624844 -14.5601 18
134 2 -14.7695 -4.82012 13.9748 10
135 2 -0.205999 -1.3685 -15.6112 12
136 2 -9.53661 -13.6807 0.529142 10
137 2 -5.58094 -11.4435 3.80916 14
138 2 -10.9099 -12.7807 -6.57053 9
139 2 -5.31111 -12.9696 6.51083 16
140 2 -12.806 -9.62693 -0.610722 16
141 2 -11.8559 3.35533 -4.37061 16
142 2 -3.87591 -1.42622 -15.5182 16
143 2 -6.81576 -13.1098 -6.79333 9
144 2 -13.491 -8.21391 -8.93072 13
145 2 -14.2341 -6.03611 -9.80826 15
146 2 -16.0744 -10.6978 -7.81955 9
147 2 -7.65017 -9.63083 9.29736 14
148 2 -16.3303 -4.50103 -3.85741 16
149 2 -13.8707 -9.62234 -6.12979 16
150 2 -14.3973 4.48608 -4.88951 16
151 2 -8.69504 -6.89053 1.16767 21
152 2 -14.7542 -4.266 2.4024 20
153 2 7.25289 -4.19296 -13.021 23
154 2 -13.4257 -2.75608 -3.89399 22
155 2 -8.04909 -7.64559 -11.3396 12
156 2 -5.89347 -14.1885 -1.81696 14
157 2 -10.717 -1.84165 -5.06947 20
158 2 -2.32218 0.105487 -17.7126 12
159 2 -2.96928 -2.60142 -5.79709 20
160 2 -2.82738 -15.5797 -0.42484 13
161 2 12.409 -3.25886 -14.2115 16
162 2 2.19588 -4.50863 -11.9122 18
163 2 -16.0474 -8.73606 -0.249492 11
164 2 7.16207 -1.682 -14.9489 23
165 2 1.12497 -2.3338 -13.6747 17
166 2 -10.9459 -7.07133 -1.12829 17
167 2 5.67399 -6.18672 -8.60049 20
168 2 -10.3084 -10.4004 -9.21836 9
169 2 -10.7603 -4.97314 -9.70633 19
170 2 -1.81429 -12.1989 -0.32053 19
171 2 -2.82163 -11.9703 -5.84838 18
172 2 -0.998038 -12.9708 6.7424 14
173 2 -12.4916 -11.3145 -4.00108 11
174 2 -1.9568 -9.25152 -8.4429 21
175 2 -12.0111 -6.84599 -4.58699 17
176 2 -6.69398 -13.762 1.83652 14
177 2 -13.7859 2.8862 -7.88262 15
178 2 -4.28793 4.43465 -16.7077 12
179 2 -6.29278 -2.55555 -13.3729 18
180 2 4.71531 9.18037 -13.839 13
181 2 -8.9742 0.301292 -5.40489 16
182 2 -6.63459 -3.63772 -16.1112 12
183 2 -10.0507 -6.38092 -14.2073 12
184 2 -6.77961 -8.63636 -8.04701 15
185 2 -11.4665 0.988776 -7.07096 16
186 2 -10.0829 2.98028 -14.2527 14
187 2 -15.3037 -2.89779 -8.7555 16
188 2 -9.71434 -2.2163 -10.4961 17
189 2 -17.4235 -1.9993 -3.23334 13
190 2 -11.1457 0.242147 -11.4014 16
191 2 -8.82412 0.649401 -1.14443 18
192 2 -17.1315 -7.61092 -9.17648 13
193 2 -17.6211 -4.10829 2.98316 10
194 2 -9.69245 -8.58803 -5.06839 13
195 2 -6.75502 2.06136 -3.65524 16
196 2 -12.6013 -3.15716 -7.21326 17
197 2 1.84328 -16.3862 -3.67664 13
198 2 -16.9317 -4.83167 8.38764 12
199 2 -11.5315 -12.9762 -1.15788 10
200 2 5.49217 -3.75526 -16.4476 17
201 2 0.38742 -13.5754 -2.62041 19
202 2 4.14555 -6.1905 -14.2467 13
203 2 -7.72533 -10.1613 -5.68499 19
204 2 3.77377 -9.57857 -8.4466 20
205 2 -13.8413 -5.91586 -2.54098 16
206 2 -4.79794 -8.11317 -2.64759 19
207 2 0.494464 -11.2218 -0.334618 18
208 2 3.82631 -13.8808 9.83805 12
209 2 -6.61817 -8.85232 2.64362 24
210 2 -4.07704 -4.08636 -13.8835 13
211 2 3.25821 2.09106 -19.2003 7
212 2 -13.8369 2.86466 4.28296 12
213 2 -8.22425 -12.1513 -4.26179 17
214 2 4.63057 -2.14317 -9.03289 22
215 2 -4.16425 -11.0078 -10.3257 12
216 2 -5.66947 -2.84386 -7.54542 19
217 2 15.1169 -9.17042 -6.86858 12
218 2 -1.39333 2.47189 -15.2751 16
219 2 -6.81208 -5.77259 -12.9008 12
220 2 -7.18854 -6.075 -4.49731 15
221 2 -2.26286 -7.13454 -1.25224 21
222 2 7.3214 -4.23953 -3.20064 17
223 2 -1.76391 -12.1304 -11.3845 10
224 2 -5.31764 -7.03672 -6.12855 16
225 2 -3.45576 -5.69476 -4.10867 19
226 2 0.181448 -6.93671 3.8748 18
227 2 -7.08937 -9.57094 -0.154558 20
228 2 -11.1472 -4.85618 -6.1109 19
229 2 -6.6718 -0.819523 -16.4738 16
230 2 -12.2972 1.05041 -16.4419 9
231 2 4.56528 2.42227 -15.0943 16
232 2 1.14127 2.09212 -14.0775 18
233 2 -12.3179 -4.91013 -15.5265 11
234 2 -11.1158 -8.50005 -11.3183 11
235 2 -4.56517 -3.57185 -11.3517 19
236 2 -9.03492 1.13428 -8.44097 15
237 2 -0.239427 -4.31405 -5.24726 20
238 2 -5.42968 -5.84684 -8.28256 19
239 2 -11.368 -3.78545 1.39463 18
240 2 -9.1401 -7.16455 -7.66018 16
241 2 -1.40491 -4.36909 -2.19058 20
242 2 -5.0553 -10.8518 -7.32603 18
243 2 1.0111 -1.51582 -4.0071 17
244 2 2.41875 -2.08547 -6.56787 17
245 2 -9.57009 -9.54283 1.43058 18
246 2 -8.87664 -2.25573 -2.8505 18
247 2 -5.99179 -3.78133 -4.15031 20
248 1 -18.5672 -8.83281 -4.6368 7
249 1 -5.14908 -9.70998 -3.56733 23
250 1 -15.7805 -8.24912 9.73758 10
251 1 -10.1516 -5.59957 4.01914 18
252 1 -14.8072 -8.99455 7.15818 13
253 1 -12.0912 2.23708 5.46647 20
254 1 -9.17107 -8.80044 9.49021 15
255 1 -15.3662 7.33041 6.1727 12
256 1 1.08715 -9.32627 -0.42952 20
257 1 -10.4394 -8.77823 12.8188 12
258 1 -7.58671 2.01962 -1.83984 16
259 1 -15.745 -9.6095 -6.30838 17
260 1 -15.2789 -2.46402 2.8184 16
261 1 -16.9924 -0.532229 1.01979 10
262 1 -1.47283 -16.4005 9.24647 7
263 1 -13.9414 -9.96139 -3.89534 13
264 1 -12.964 5.81202 6.81043 20
265 1 -16.8839 0.142138 4.667 9
266 1 -12.2722 -1.71122 1.26482 18
267 1 -13.8367 -5.03096 15.978 7
268 1 -10.1517 -8.33953 6.38511 16
269 1 -12.387 3.13123 15.7415 13
270 1 -6.84431 -6.30251 11.784 18
271 1 -10.627 -5.99948 13.2496 17
272 1 -0.0744016 11.2771 6.74016 18
273 1 -6.63584 5.21033 7.47027 20
274 1 -5.12122 -8.35909 7.82257 16
275 1 -16.0742 -7.53425 4.48414 16
276 1 -1.91341 -9.93952 3.10827 17
277 1 6.31131 -14.5602 4.78361 21
278 1 1.25665 -15.9179 5.77718 12
279 1 0.598226 -13.9119 3.10802 15
280 1 -13.3742 -7.59358 2.90535 18
281 1 -2.5557 -7.54739 9.45205 17
282 1 0.462489 -7.3648 16.632 14
283 1 -7.13116 -10.4741 4.00805 20
284 1 -9.86286 -8.06309 2.35576 19
285 1 -11.2337 -11.6752 -8.11733 9
286 1 -13.9562 -0.0346565 6.83115 21
287 1 -12.3225 -8.73251 8.57301 14
288 1 -6.42308 -16.9106 5.40843 9
289 1 -6.87065 -6.95192 1.91938 21
290 1 -1.44868 -13.999 5.46005 12
291 1 -1.14754 -7.38026 11.689 19
292 1 0.206028 -5.76541 8.77346 19
293 1 1.64745 -10.8279 16.3226 9
294 1 0.294599 -12.946 13.7576 9
295 1 -9.35675 -11.7523 6.75178 11
296 1 -9.05438 -1.82105 13.5202 17
297 1 -15.3433 -6.69632 14.0611 7
298 1 -5.52633 -5.53164 8.2354 20
299 1 -17.385 -6.34439 7.13784 10
300 1 -5.80601 -8.42629 -0.917974 19
301 1 -3.42116 -0.336229 1.34195 21
302 1 -9.46885 -2.93269 2.58742 20
303 1 -3.17551 0.316313 4.21309 15
304 1 -12.2684 -10.5051 5.42801 12
305 1 -15.793 -3.41908 9.24454 15
306 1 -13.419 -6.87639 11.2363 17
307 1 -0.967131 -2.67649 10.8903 20
308 1 -14.9662 -4.06172 12.2461 10
309 1 -13.9786 -5.87013 8.46337 19
310 1 -9.23196 -5.55841 10.6403 20
311 1 -9.82195 -10.8777 2.77661 16
312 1 -6.61486 -9.35919 12.8358 16
313 1 -3.80263 -6.98394 12.1571 16
314 1 -4.3752 -11.3028 11.2168 15
315 1 -4.0355 -14.5447 6.85223 17
316 1 -8.62097 -2.18391 16.7863 15
317 1 -2.62584 -0.367883 13.1285 14
318 1 -14.9379 2.42382 14.2545 8
319 1 -12.9418 -6.18487 5.16013 17
320 1 4.99761 -9.67844 -11.96 12
321 1 10.3784 -14.6407 2.15336 6
322 1 -4.06649 -11.5963 -0.923042 21
323 1 4.85762 -5.68413 -4.81112 22
324 1 -2.70905 -9.38025 -1.5737 20
325 1 -6.11033 -11.4328 -5.72672 21
326 1 0.723113 -10.0477 -3.31769 20
327 1 3.55843 -11.8721 14.316 9
328 1 -1.33202 -9.72754 14.0348 17
329 1 0.759494 -11.2133 4.49833 19
330 1 -10.7845 -9.0105 -0.1252 17
331 1 -2.42418 -4.03868 7.48761 16
332 1 1.54072 -8.23789 13.3384 20
333 1 -0.905581 -13.5397 10.2336 15
334 1 0.323955 -9.2832 10.0097 17
335 1 0.54685 -10.8844 1.63691 20
336 1 -8.15944 -4.73085 1.3535 20
337 1 -1.61897 -6.25802 3.74583 19
338 1 -1.70781 -5.23687 -0.336392 21
339 1 2.84879 -7.31586 -2.39488 20
340 1 -6.49936 -14.0115 4.70846 18
341 1 -4.83437 -6.19355 5.03374 21
342 1 3.47386 -13.3924 5.87372 20
343 1 -4.84691 -10.9427 5.46593 17
344 1 2.96731 -10.5184 8.3354 17
345 1 -7.16241 -10.2091 7.49059 18
346 1 1.43552 0.556401 10.1092 21
347 1 3.99684 -8.78503 15.7568 9
348 1 -2.04035 1.0067 10.4342 13
349 1 9.24904 -9.28594 4.91065 19
350 1 -2.04337 -10.3704 9.08085 13
351 1 -10.6029 -5.24548 16.8422 12
352 1 -9.62084 4.34335 14.4359 15
353 1 6.0742 -8.85397 6.66559 20
354 1 2.20967 -7.60257 10.5939 21
355 1 -6.60043 -4.12842 3.64361 22
356 1 2.31942 2.58678 -1.69191 20
357 1 -11.3554 -3.41583 -0.544589 21
358 1 -3.2518 -3.27832 4.86063 19
359 1 -2.93929 -8.5838 6.46114 15
360 1 -0.698182 -1.46289 8.4673 15
361 1 -8.81421 2.38022 8.8707 21
362 1 4.64208 -2.31223 2.94802 18
363 1 0.803907 -5.09487 12.0009 18
364 1 -1.45497 -3.69804 2.05817 20
365 1 -8.2787 -3.77258 8.26388 17
366 1 -3.63361 -4.31019 12.0037 16
367 1 -5.57182 -1.93139 14.8284 16
368 1 -4.11232 -0.32659 6.73074 15
369 1 -1.9293 10.4709 14.8002 8
370 1 -4.08379 -2.67089 9.08113 18
371 1 -11.4 -0.0853618 16.2516 12
372 1 -8.95628 -7.58834 14.9133 17
373 1 -5.90405 -8.47698 16.0896 9
374 1 6.03758 2.03632 6.88236 19
375 2 -12.5904 -13.0846 2.11005 9
376 2 -11.6016 -10.7695 3.63854 16
377 2 -14.4547 -10.5039 2.73931 14
378 2 -2.45475 -5.75619 11.2276 19
379 2 -16.8198 3.66552 7.74222 6
380 2 -8.62867 -4.5217 3.34551 19
381 2 -6.37798 -10.5649 11.3326 15
382 2 -14.3906 -6.86806 4.28702 17
383 2 1.77915 -8.9096 16.6973 10
384 2 -7.9743 -11.798 2.55067 16
385 2 -11.0021 -6.78651 5.97003 19
386 2 -10.7285 -10.3116 6.83777 13
387 2 -12.5799 -1.65343 5.93135 19
388 2 -11.6127 -6.68688 2.61638 17
389 2 -9.05446 9.13237 12.4935 16
390 2 -14.5029 -4.97817 10.3142 17
391 2 -13.1268 -3.04014 11.7849 14
392 2 -9.94016 -3.38427 17.0377 12
393 2 -11.6942 4.60304 7.52685 22
394 2 -14.8496 -8.7338 -3.08252 12
395 2 -7.32832 -2.07846 14.3015 15
396 2 -13.0197 -9.45772 6.7886 13
397 2 -7.73723 8.40031 4.009 17
398 2 -11.6041 4.75462 15.1131 14
399 2 1.91825 -12.3684 -10.1673 12
400 2 1.6147 -12.0599 2.97918 22
401 2 -6.03739 -15.6285 3.77865 13
402 2 -13.5491 -7.92192 0.985431 17
403 2 -16.1491 -7.78721 7.93217 12
404 2 3.32928 -1.81846 -18.376 13
405 2 -0.853383 -14.383 1.81309 15
406 2 4.70926 -8.9449 1.13931 16
407 2 2.9249 -2.63733 11.8041 21
408 2 1.11034 -9.18994 11.7756 16
409 2 -7.79518 -4.87944 -0.978629 17
410 2 -14.684 -0.448493 -2.29887 16
411 2 -7.82394 -12.2201 -1.68738 16
412 2 -7.10102 -9.38098 -3.29415 18
413 2 -16.7665 -8.2917 2.77784 13
414 2 -5.30757 -12.3339 -4.11222 18
415 2 -0.133082 -8.56451 0.789637 19
416 2 -5.37626 -9.59119 6.58154 18
417 2 -17.1376 -5.92356 5.21553 11
418 2 -4.03878 -9.76983 -0.134571 20
419 2 0.435997 -15.5103 -0.876114 14
420 2 -6.46081 -15.1011 6.2511 12
421 2 -17.8844 -8.96022 -3.02361 7
422 2 -10.8847 -7.71775 8.2894 15
423 2 -8.17664 -10.8041 5.41805 19
424 2 -13.8761 -7.69191 9.35193 14
425 2 -14.2201 7.2803 14.9254 7
426 2 -11.914 -4.65945 4.23086 18
427 2 -7.77789 8.09311 15.2471 12
428 2 -15.5648 -9.4648 5.27062 12
429 2 -11.747 -1.31488 -1.06345 17
430 2 -6.35454 -4.01824 1.75142 21
431 2 -3.57659 1.47928 6.09376 16
432 2 -14.4813 -7.34808 12.574 10
433 2 -3.0336 -7.10884 4.95635 18
434 2 -8.3406 -7.31366 10.3903 20
435 2 -9.77709 -4.6634 8.74096 15
436 2 -5.97863 5.00053 16.5378 13
437 2 -3.26441 -9.07147 8.44297 14
438 2 -5.5678 -6.58963 3.21413 20
439 2 -11.1416 1.76879 16.1301 10
440 2 -5.35026 -12.9519 9.25082 13
441 2 -8.05948 -11.9182 8.18017 12
442 2 -8.3659 -5.45504 12.4717 21
443 2 -10.7926 -8.14275 14.6345 10
444 2 -11.6864 -7.24133 12.2681 16
445 2 -2.51725 -8.11507 13.3841 13
446 2 -4.61818 -7.01456 9.26688 19
447 2 -1.47935 -11.797 2.93223 17
448 2 0.147736 -14.9334 4.7422 16
449 2 10.711 -2.70553 -9.71537 16
450 2 -13.1373 -11.5922 -8.52561 10
451 2 -3.0115 -9.0101 -5.6567 21
452 2 6.81689 -1.56942 -11.8523 22
453 2 2.33228 -11.8744 6.99732 17
454 2 2.40622 -10.8007 10.0403 18
455 2 4.55699 -9.89834 6.89427 20
456 2 -0.311633 -10.4834 8.62394 20
457 2 0.370728 -13.6699 9.0077 14
458 2 4.98833 -5.15163 12.7853 14
459 2 -3.36777 -13.1557 -8.28431 11
460 2 -1.44572 -12.4324 14.1785 8
461 2 -4.70927 -17.1751 5.54045 10
462 2 -4.92918 -12.6721 0.351393 18
463 2 -3.43736 -9.79467 4.66031 16
464 2 -3.7971 -16.5956 2.21189 9
465 2 -2.95952 -8.14434 2.28384 20
466 2 -4.32031 -2.98015 10.9344 17
467 2 5.47123 -9.74502 -2.49094 16
468 2 0.611803 -6.37154 6.91481 15
469 2 -5.21924 -4.17276 4.94485 21
470 2 1.44093 3.10963 0.00696802 18
471 2 -5.31886 -4.95739 12.3368 16
472 2 -2.92651 -15.7518 7.89858 13
473 2 -1.75218 -1.19817 11.5895 17
474 2 -7.365 -7.16861 16.2528 13
475 2 5.42 -14.5682 6.3285 15
476 2 -10.963 -4.86313 11.5248 18
477 2 1.61149 -11.9811 14.8084 10
478 2 -13.869 -7.13339 15.3817 8
479 2 -0.742102 -9.59984 -2.39183 19
480 2 -2.75869 -11.9557 9.92869 15
481 2 -12.0601 -4.13471 15.8093 11
482 2 -6.41435 8.84166 0.640977 19
483 2 0.189108 -9.82437 3.2935 18
484 2 1.35034 -1.5171 3.97932 20
485 2 -4.74472 -0.236525 -5.08471 17
486 2 -4.35697 -1.57682 5.48157 20
487 2 7.08691 -5.14555 4.92148 17
488 2 -3.453 -10.839 -2.9972 19
489 2 -6.36105 -6.15057 6.43945 16
490 2 -6.41056 1.49983 11.5543 12
491 2 -1.70547 -0.566606 4.15595 17
492 2 -8.66522 -8.5703 13.1037 17
493 2 0.598107 -1.39192 9.88321 16
494 2 -13.0251 -0.8941 17.1735 8
495 2 -5.80341 -9.69157 14.46 12
496 2 -4.48344 -3.41763 16.003 17
497 2 -5.21634 -1.19582 8.07862 15
498 2 -6.668 4.6311 10.8916 16
499 2 1.62722 -4.8007 9.79078 17
500 2 -10.6472 -1.10614 1.7376 19
501 2 -6.12003 10.6761 14.1549 16
502 1 -14.0552 3.89707 -11.7517 9
503 1 -16.6074 -6.07293 -5.61484 15
504 1 -7.63828 -10.1182 1.54418 23
505 1 -8.41913 -1.53998 -4.56517 19
506 1 -13.8758 -2.23084 -7.59328 16
507 1 -9.94558 4.71367 -10.3703 13
508 1 -12.735 1.99677 -3.2814 16
509 1 -15.8921 2.96944 4.02008 12
510 1 -4.5088 -9.34288 2.92058 20
511 1 -9.87806 4.38334 6.3184 21
512 1 -16.5627 1.97208 7.24708 11
513 1 -16.7835 -7.43808 0.882091 12
514 1 -11.023 6.72629 -7.66301 16
515 1 -17.8411 -4.2938 4.90239 9
516 1 -15.929 2.53568 -9.05069 14
517 1 -11.9274 14.2741 6.82383 10
518 1 -12.4731 8.77816 5.17511 18
519 1 -11.1403 8.72972 -0.180514 19
520 1 -11.3566 10.5245 -5.69973 13
521 1 -8.29289 13.8209 -3.07625 13
522 1 8.62089 12.064 -13.0394 11
523 1 -9.67716 4.01488 -12.8994 14
524 1 -0.234246 7.48764 -9.80263 16
525 1 -15.3035 -0.937632 -9.79516 14
526 1 -8.02629 -3.24789 -10.8326 18
527 1 -11.7847 -4.82626 -11.2178 17
528 1 -11.5236 1.62997 -12.3563 13
529 1 -5.58507 2.28335 -14.8791 23
530 1 -7.17424 1.6981 -8.82667 17
531 1 -13.2668 1.00255 -7.68699 13
532 1 -14.2242 -9.77176 0.873787 15
533 1 -14.0525 0.704073 -15.5063 8
534 1 -9.82179 4.55243 -4.84297 15
535 1 -14.6541 4.17093 -3.03899 13
536 1 -7.83717 7.80257 -0.276793 17
537 1 -18.029 -3.48273 1.46278 11
538 1 -10.3553 6.24141 1.65659 21
539 1 -11.6365 6.62325 4.03629 18
540 1 -9.01525 4.82665 -1.30146 16
541 1 -8.71165 -8.93873 -7.1712 14
542 1 -13.7451 7.26459 0.829502 16
543 1 -5.55925 10.1571 -7.17666 18
544 1 4.12778 5.53973 -15.1909 15
545 1 -6.31831 4.11363 -3.70456 21
546 1 -6.87359 4.07576 -10.0868 18
547 1 -0.569591 1.51706 -13.1892 19
548 1 -11.3111 -1.8853 -11.739 17
549 1 -18.2338 3.27821 -6.68072 8
550 1 -8.1475 6.80008 -11.3327 13
551 1 -7.97351 10.5844 -5.1537 23
552 1 -7.48956 7.27309 -6.12554 19
553 1 -3.56165 0.512894 -10.2152 20
554 1 -10.1764 2.55583 -7.65599 17
555 1 0.716465 9.0835 -4.51957 18
556 1 -17.4902 2.43721 -3.83635 11
557 1 -9.25052 14.4314 2.37305 15
558 1 -12.2148 8.53639 -2.76288 15
559 1 -7.47286 12.4015 4.25145 13
560 1 -13.4743 6.99693 -9.50617 10
561 1 -11.0029 11.2925 -2.83471 16
562 1 -15.2378 1.15861 -1.39374 15
563 1 -6.5692 8.69464 -3.41947 14
564 1 -7.31243 13.4778 -6.37064 12
565 1 -9.64062 10.6924 13.4696 20
566 1 -5.4424 7.32969 -12.5131 15
567 1 8.64733 12.8007 -3.27179 21
568 1 -13.8046 -1.88831 -12.6896 15
569 1 4.7843 9.01472 -11.658 21
570 1 -9.20814 0.136257 -10.1639 17
571 1 -11.2658 2.14447 -15.39 12
572 1 -0.577434 -1.41578 -13.1788 16
573 1 -1.42665 3.61967 -10.2587 19
574 1 3.27947 1.15933 -15.7428 16
575 1 -7.73926 -2.76778 -7.79563 19
576 1 -5.58059 -1.9689 -11.6629 17
577 1 -9.5499 -0.296224 -7.12126 18
578 1 -4.77801 6.2554 -5.26009 14
579 1 -1.23749 1.84726 -7.48216 19
580 1 -4.9833 4.81704 2.4547 17
581 1 -5.13103 -2.15472 -5.86876 21
582 1 -11.483 -3.10933 -3.97952 23
583 1 -4.92932 8.09798 1.82809 20
584 1 -8.192 1.56435 0.561098 21
585 1 -5.53988 -0.851542 -1.15226 20
586 1 6.35502 7.57249 -14.8967 16
587 1 5.86143 11.7989 -5.80108 18
588 1 -4.10265 3.31516 -8.90735 18
589 1 -0.644003 15.1917 -6.54521 12
590 1 5.9245 9.0834 -5.60149 21
591 1 -8.70189 5.49281 -7.91209 19
592 1 -2.86498 11.954 -2.35165 18
593 1 -8.39251 2.04778 -4.91288 18
594 1 -1.77988 8.68059 -11.9198 15
595 1 -6.67914 9.34096 -9.87265 11
596 1 1.14753 2.01081 -9.33588 17
597 1 -12.4351 5.097 -4.26442 14
598 1 1.85556 4.10124 -10.7081 17
599 1 -3.55396 6.56325 -10.1631 16
600 1 -3.06274 6.66585 0.139616 20
601 1 -10.0953 8.20949 -5.672 14
602 1 3.58639 4.74915 0.0995646 16
603 1 -4.96585 14.3853 -1.9784 11
604 1 1.54427 10.7944 0.894633 17
605 1 0.424211 11.9833 -4.92013 20
606 1 -18.3068 -0.379162 -2.30791 12
607 1 -8.54259 12.0986 -8.9111 9
608 1 -2.17242 10.3001 -5.28925 19
609 1 -6.17206 1.3221 -12.1163 18
610 1 -4.36943 5.41142 -15.125 13
611 1 3.5141 10.6002 -3.87819 15
612 1 -0.2454 11.1695 -1.76642 19
613 1 0.803107 15.3665 -9.34077 7
614 1 -1.96656 14.6458 -0.878925 13
615 1 0.589205 14.0162 -2.71106 15
616 1 1.65299 9.71204 3.53092 18
617 2 -17.7232 0.472019 -3.8817 14
618 2 -17.5228 -9.0107 -6.31039 11
619 2 -17.0573 -1.87643 -6.05646 11
620 2 -13.2669 2.32402 1.70094 14
621 2 -17.0937 2.15448 -5.52437 9
622 2 -18.5892 -6.65373 -5.99031 10
623 2 -13.2285 2.40436 -12.6774 12
624 2 -14.4344 -6.05574 -6.15851 16
625 2 -14.6745 8.21693 -4.62426 11
626 2 -14.7156 -3.16135 -1.03006 18
627 2 -9.61805 -1.94923 -8.03806 20
628 2 -13.5642 7.29014 5.6402 17
629 2 -16.5829 2.21247 5.43229 9
630 2 -17.1003 0.236999 -1.06315 11
631 2 -12.2511 7.32443 -0.685375 14
632 2 -17.3047 -2.3818 0.0821652 13
633 2 -12.6295 1.26558 7.1546 18
634 2 -13.8114 -0.102529 -13.857 14
635 2 -13.8875 9.72952 -2.15345 11
636 2 -11.3192 9.02773 -4.41843 14
637 2 -16.1668 6.93302 4.43331 9
638 2 -6.77178 7.79506 -11.0265 12
639 2 1.71664 11.3959 -11.0953 14
640 2 -16.4089 -4.70534 -11.0536 9
641 2 -13.1293 5.76689 -2.54884 14
642 2 -12.6362 6.01335 -8.15624 15
643 2 -13.8538 -0.573459 -6.31475 14
644 2 -7.50449 1.02599 -10.6385 15
645 2 -3.11897 2.85819 -7.14742 18
646 2 -16.3601 0.700821 -9.26446 10
647 2 4.36105 -4.33685 -2.98398 16
648 2 -14.1333 -3.79691 -13.29 14
649 2 -15.9483 2.61106 -2.89791 12
650 2 -9.53155 10.3274 -6.24982 18
651 2 -11.6255 -3.83666 -2.17033 17
652 2 -5.86803 0.659844 -8.20616 20
653 2 -9.82393 7.76049 1.02355 21
654 2 -8.80944 5.25354 5.04894 20
655 2 -8.88611 -2.96846 0.417964 22
656 2 -10.2767 1.43787 8.21902 18
657 2 -5.12164 14.4083 9.81878 9
658 2 -10.5731 4.57882 -8.48952 17
659 2 -16.4486 3.73978 -7.56817 12
660 2 -3.72919 6.30531 -1.53401 15
661 2 -9.41509 7.63447 -7.66824 17
662 2 -10.8701 3.4989 -11.6646 14
663 2 -8.01353 5.42213 -9.8454 17
664 2 -5.8323 3.35796 -8.74105 19
665 2 -13.9873 5.08149 -10.4723 12
666 2 3.38511 -0.270127 -12.0928 21
667 2 -4.04491 9.05185 3.2123 18
668 2 -5.27965 7.44858 -4.04644 15
669 2 -8.17523 8.56845 -4.72834 17
670 2 -3.67283 -1.07265 -11.5327 19
671 2 -16.0604 6.68375 -6.78199 10
672 2 -10.4672 6.39983 -5.49129 16
673 2 -0.989454 7.03432 -11.574 18
674 2 -6.13486 12.1645 -6.71132 15
675 2 -11.1667 12.2807 -4.66627 11
676 2 -16.368 -5.65151 0.974823 13
677 2 -1.08408 11.5468 -6.01445 17
678 2 -1.92146 14.2566 1.23784 13
679 2 -8.36315 13.8162 -4.9947 12
680 2 -8.89178 12.9375 -7.35729 11
681 2 1.68766 8.36752 -14.0937 10
682 2 -0.048039 13.7145 -9.99213 11
683 2 -6.83668 -2.06357 -10.0591 18
684 2 -15.1504 2.62422 -10.73 11
685 2 -4.36915 1.40648 -13.4583 20
686 2 -6.72398 3.848 -15.3393 18
687 2 -6.67724 1.11452 -13.9998 20
688 2 8.43778 3.70952 -12.8321 18
689 2 -5.87177 3.89945 -11.8954 22
690 2 -9.01916 2.16396 -16.417 14
691 2 -7.781 -4.4217 -9.16189 18
692 2 -12.2861 -6.25805 -12.4227 15
693 2 -3.46048 -0.815243 -8.55964 23
694 2 2.12585 -2.02109 -10.0767 21
695 2 -8.86182 3.6266 -6.26469 19
696 2 -8.20179 -3.16056 -6.02019 19
697 2 -11.2302 3.89041 -0.329067 17
698 2 -2.30295 0.124468 -5.75624 20
699 2 -12.2692 -3.75719 8.27626 19
700 2 -7.35452 5.97523 -0.471103 19
701 2 12.3137 5.49267 -11.2733 13
702 2 2.71104 8.90069 -10.9644 17
703 2 14.1358 1.10404 -13.6506 11
704 2 -5.55308 5.98611 -13.9178 13
705 2 -2.78194 2.04831 -9.87885 19
706 2 -3.70037 7.96481 -11.7657 14
707 2 7.15899 10.9215 -12.8283 10
708 2 -15.1196 -2.21622 -11.1559 13
709 2 -0.325908 9.3943 -10.6811 15
710 2 -5.13997 4.3131 -5.27406 17
711 2 0.177056 14.555 -4.97658 17
712 2 -9.82944 13.377 0.432105 16
713 2 -6.82685 8.75829 -6.97211 20
714 2 -1.33915 4.26436 -0.884348 19
715 2 3.13652 13.9912 1.24813 15
716 2 0.339243 12.018 2.38613 15
717 2 -0.977 2.71987 -5.83081 16
718 2 -4.67905 9.01416 5.97128 17
719 2 -0.532925 12.1117 -3.21144 19
720 2 10.7693 10.5858 -9.79226 12
721 2 -11.5801 -2.44434 -13.3998 16
722 2 9.93703 10.9058 -13.3969 13
723 2 2.24986 2.23172 -10.7238 20
724 2 -3.38943 11.8877 -4.35022 19
725 2 -0.601899 16.9078 2.75906 9
726 2 1.72477 17.2626 -2.42994 12
727 2 -3.53087 4.5259 -10.5323 18
728 2 3.35551 5.52145 -10.8156 19
729 2 -2.24926 14.8606 -5.93586 9
730 2 -1.89785 7.18806 -8.83641 15
731 2 -0.949471 15.3724 -2.18982 13
732 2 4.70059 7.6156 1.40995 15
733 1 -16.4753 -1.52877 7.47328 11
734 1 -15.1326 4.12017 8.45478 13
735 1 -16.7959 6.03787 2.66752 6
736 1 -17.624 -9.31983 -8.36316 9
737 1 -11.9181 6.76546 11.3903 16
738 1 -9.65008 0.619108 6.55837 20
739 1 -10.604 12.9949 4.73476 14
740 1 -15.176 5.6686 14.762 10
741 1 -9.43792 8.85015 2.7424 18
742 1 -3.75964 7.78289 -2.90146 18
743 1 -14.4209 0.24411 16.9235 6
744 1 -9.08644 8.23255 5.63159 15
745 1 -5.52983 -15.6493 1.78592 14
746 1 -14.3467 4.1172 12.0629 13
747 1 -15.0485 8.73834 3.61909 10
748 1 -12.703 11.5513 7.3045 10
749 1 -15.3396 9.55001 -3.58504 6
750 1 -7.73776 13.4446 -0.0274125 14
751 1 -4.94628 10.0921 -0.572266 19
752 1 -5.92049 9.33701 4.53219 18
753 1 -3.08421 10.5129 6.76281 19
754 1 -14.4769 1.16965 10.3835 13
755 1 -12.1559 14.3673 10.3909 9
756 1 -11.2895 11.0469 10.3519 15
757 1 -5.66178 2.18886 3.17094 20
758 1 -13.3006 3.47079 0.0273767 13
759 1 -16.547 5.58859 -8.30889 13
760 1 -13.0523 4.6514 3.11357 17
761 1 -10.4485 3.1283 1.07093 17
762 1 -13.8273 -1.77075 10.1956 18
763 1 -9.01281 1.48347 16.086 12
764 1 -5.97522 -4.88371 -0.159659 21
765 1 -4.74703 1.49402 13.0146 14
766 1 -0.436696 6.39811 10.2062 20
767 1 -8.01351 8.136 8.06808 19
768 1 -4.18772 -3.34717 1.27418 18
769 1 -9.8644 13.9561 13.8142 9
770 1 -14.044 7.27162 8.96108 12
771 1 -11.0205 0.367997 12.2796 13
772 1 -4.81477 -11.2605 14.4036 10
773 1 -11.2247 5.95906 8.72102 20
774 1 -7.01452 9.52762 15.882 13
775 1 -11.592 14.0933 0.357911 8
776 1 -13.6447 8.87764 15.0836 5
777 1 -16.0148 6.4891 -4.82644 11
778 1 -6.80834 10.4907 1.55508 20
779 1 -5.49188 5.63809 -0.686619 21
780 1 -12.3249 3.03439 8.27021 22
781 1 -10.2 11.5884 0.741904 19
782 1 -7.24986 6.5314 4.46835 20
783 1 -4.93884 13.9774 7.95534 12
784 1 -13.5291 -3.18305 6.63776 17
785 1 -2.60972 15.8737 7.87501 10
786 1 -5.29833 13.2179 1.77519 17
787 1 -9.68566 14.1701 8.33369 13
788 1 -8.85488 7.22986 13.7546 17
789 1 -1.03271 8.23399 12.1835 16
790 1 -11.2139 8.77815 8.31368 19
791 1 -5.76997 10.7689 9.94239 15
792 1 -10.1038 11.2995 16.1914 7
793 1 -13.0739 0.913296 2.95642 15
794 1 -8.85288 10.7734 9.0078 14
795 1 5.2088 -3.16152 8.80163 18
796 1 -13.5229 10.4228 -0.473129 12
797 1 -4.03547 4.2488 -12.2505 18
798 1 -10.0088 13.248 -5.86388 11
799 1 -3.97395 14.793 -5.5126 9
800 1 -13.6107 -1.83683 -1.61885 15
801 1 -1.04903 12.0082 3.5168 15
802 1 4.36199 13.7875 2.7484 19
803 1 -12.233 10.9611 2.24474 15
804 1 0.442009 13.7795 6.35033 17
805 1 -1.24132 12.5345 8.67685 18
806 1 -7.56798 4.98729 1.43852 20
807 1 5.40091 8.67968 -0.064651 17
808 1 -5.77858 -1.0456 4.2913 22
809 1 -6.78814 -1.53263 1.35704 20
810 1 -2.11628 2.31741 7.0235 15
811 1 6.56296 -0.0107242 1.7667 21
812 1 0.585604 3.48498 5.82075 13
813 1 -1.87371 4.79763 3.97493 13
814 1 -8.56477 2.03677 12.4425 18
815 1 3.2574 3.10016 5.41337 19
816 1 -11.643 0.0121766 8.35886 19
817 1 -6.62023 2.96051 10.3009 14
818 1 -12.5406 -4.51317 9.95485 23
819 1 4.01047 2.35589 8.91255 16
820 1 -7.22714 -0.425764 11.6402 16
821 1 3.83562 -0.464311 7.77106 18
822 1 -6.80127 4.19777 12.7725 19
823 1 -12.3218 6.35048 14.1659 13
824 1 -10.787 -6.00957 7.87752 18
825 1 2.28153 8.54557 11.9441 14
826 1 -8.69586 -2.35579 5.24655 19
827 1 -5.38511 10.6029 7.31206 14
828 1 -11.4349 3.89274 11.2613 20
829 1 -4.32391 3.72573 5.62832 18
830 1 -11.2702 -2.42996 7.22771 22
831 1 -2.6759 3.05507 0.860975 19
832 1 1.97282 6.23123 4.37981 16
833 1 -3.04491 8.17325 4.63149 15
834 1 -7.0816 -0.891882 7.62232 18
835 1 4.2984 11.1251 11.3665 11
836 1 -4.96762 14.5374 11.619 8
837 1 -3.89308 10.8497 2.76008 19
838 1 -9.27413 8.32201 10.9002 19
839 1 9.92447 7.47474 7.96086 16
840 1 4.48048 14.1175 10.3705 8
841 1 -8.01342 15.4476 5.30374 11
842 1 -12.2484 -1.64941 3.98478 18
843 1 -4.95038 10.8994 15.8643 12
844 1 6.31064 -1.18484 14.8355 13
845 1 7.78015 5.50771 8.3252 16
846 1 -2.02908 13.2824 -4.60341 18
847 1 4.26516 9.49669 2.71236 20
848 1 -2.74061 13.2816 5.6283 17
849 1 -2.05095 9.37268 -0.369474 18
850 1 -2.15366 15.835 2.19554 11
851 1 -4.33059 15.931 4.94547 11
852 1 -0.952692 16.8293 4.51759 10
853 1 3.43054 2.64238 2.50675 15
854 1 2.61466 15.3295 4.94999 13
855 1 6.9188 16.6949 8.33991 9
856 1 -5.94095 6.89704 10.4491 22
857 1 -1.35032 12.395 0.804875 15
858 1 -4.49424 7.22602 6.85652 23
859 1 -9.22971 3.54832 3.73035 20
860 2 -7.89315 10.3663 -9.15782 11
861 2 -16.8095 -1.01751 2.71981 10
862 2 -13.9978 8.43424 -8.48849 8
863 2 -16.7774 4.32986 2.75661 7