ITEM: TIMESTEP
396000
ITEM: NUMBER OF ATOMS
2000
ITEM: BOX BOUNDS pp pp pp
-30.0 30.0
-30.0 30.0
-30.0 30.0
ITEM: ATOMS id type x y z Coordination
1 1 -16.9556 4.92802 -5.84799 14
2 1 -5.48809 -12.3663 6.00373 17
3 1 -2.34481 -4.69162 1.88999 20
4 2 -3.36577 1.65273 -13.7254 13
5 2 -5.1695 14.09 4.55204 18
6 2 -6.38016 14.5873 1.81156 13
7 1 -1.98573 -10.5849 -5.20344 16
8 1 5.47893 -10.7103 -7.01148 13
9 1 6.053 -12.7428 -1.69055 17
10 2 -9.7649 1.69752 -6.13443 22
11 2 17.9772 -3.84731 -8.28282 13
12 2 -6.75919 -12.6158 11.0302 11
13 2 -7.26111 0.630291 -10.9412 15
14 1 3.82432 3.83548 -15.2109 15
15 1 4.84677 -14.1239 -4.14846 17
16 2 1.97781 -6.83908 -13.6088 18
17 1 -9.75597 -1.57233 0.222917 17
18 1 -13.7954 2.82716 -8.73295 17
19 1 -11.381 6.27264 -11.2438 12
20 1 -9.24654 -2.45628 -3.43688 18
21 1 -11.0953 -7.97874 14.8584 5
22 1 -8.93706 4.5653 -10.2526 17
23 1 -3.13948 -11.3818 -14.3492 16
24 1 -5.53077 -8.21872 -1.08681 19
25 1 6.70891 1.12686 9.56242 18
26 1 -15.2766 6.86878 -7.734 11
27 1 -8.06258 5.57629 -7.41473 18
28 1 0.30709 -0.634938 -15.0186 16
29 1 -7.91498 1.49207 -9.30695 18
30 1 -17.3168 -0.657689 -4.56666 19
31 1 -11.8323 -2.88799 -10.6125 15
32 1 -19.3038 1.20301 -4.64656 13
33 1 -8.33619 -2.11996 -16.1908 6
34 1 -16.3367 -0.0473054 1.77495 17
35 1 -2.73405 -7.96178 7.0468 16
36 1 -14.6335 -4.59549 -6.0839 15
37 1 -10.2202 5.04546 4.69368 16
38 1 -11.6877 -5.22091 -4.28742 17
39 1 -7.09018 -6.41852 -11.2984 16
40 1 -18.6373 -1.56538 8.5405 11
41 1 -7.8567 -5.75637 -1.90816 21
42 1 0.839374 15.2633 -2.82318 12
43 1 15.2446 -12.866 -6.23803 11
44 1 1.62534 -17.1832 2.31424 10
45 1 -12.5324 -8.09184 -7.72553 19
46 1 -6.48171 -2.97979 -2.80123 18
47 1 -4.35788 -7.27277 -10.3604 18
48 1 -13.3082 -10.734 -3.76986 16
49 1 -14.3051 3.65217 2.46489 18
50 1 -8.94149 -2.22425 -8.98215 18
51 1 -0.641109 -7.96009 -6.26575 15
52 1 -15.6155 5.95663 -1.71846 16
53 1 3.34441 -9.72626 -10.8204 18
54 1 -5.40679 1.86338 -4.49811 18
55 1 2.5354 -5.81297 -5.26252 22
56 1 -15.6467 -10.8744 0.0545761 11
57 1 -15.6855 -6.27352 -3.63454 14
58 1 -12.8513 0.714732 -10.8196 16
59 1 -16.3542 -5.88776 -0.869382 13
60 1 -10.2014 -12.9645 -6.46488 13
61 1 -15.2338 -1.78351 -6.56207 14
62 1 3.67281 -5.69498 -13.6988 18
63 1 -15.3647 -7.23163 -7.51578 14
64 1 -6.05654 -1.47196 -7.64807 16
65 1 -15.1239 -1.71175 -10.6824 7
66 1 -6.29165 2.48487 -1.45806 20
67 1 -9.90857 1.47089 -13.7989 9
68 1 -5.50234 -6.17417 -3.77572 22
69 1 -2.88834 10.7453 -3.53971 19
70 1 -10.5039 0.237253 -4.89906 17
71 1 -16.3671 1.18241 -9.23066 11
72 1 -14.828 1.81565 -0.321799 20
73 1 -20.1038 4.46316 6.24744 9
74 1 -12.1987 -3.84488 1.91437 21
75 1 1.76258 3.52057 -1.37857 20
76 1 -8.25462 -12.0114 7.52734 15
77 1 -13.2485 -5.178 -0.515489 21
78 1 -6.80065 15.2926 0.072803 11
79 1 -13.3156 7.24107 -9.22519 14
80 1 -7.7106 -9.11711 -6.23163 21
81 1 -6.0222 -11.6543 -6.16829 17
82 1 -11.3472 -12.6403 -1.3217 8
83 1 -19.6909 7.40363 -2.58335 11
84 1 3.09231 4.18124 -3.3341 20
85 1 20.0667 -2.88112 -5.54056 11
86 1 -2.04471 4.36703 -12.5327 18
87 1 8.62016 -9.88347 5.99411 12
88 1 3.70678 -4.70548 -7.94352 18
89 1 11.9784 -15.082 -6.13056 8
90 1 -15.2246 -0.019716 -3.09877 23
91 1 -4.68084 -10.7547 -0.766417 18
92 1 -3.68781 -1.66976 -0.821995 22
93 1 9.25031 -1.58871 -10.1796 16
94 1 4.8203 -14.7556 8.22565 11
95 1 -5.44336 -13.3666 -2.93204 15
96 1 -11.1994 -9.5541 -4.89805 15
97 1 -6.97093 -0.857787 2.70047 20
98 1 1.60823 -14.7625 -3.93083 20
99 1 -6.09914 -12.317 -14.6519 8
100 1 -3.86955 -3.88144 -1.72019 21
101 1 2.35306 -13.4633 -1.38713 22
102 1 -8.06634 -14.1036 -4.19984 11
103 1 13.6386 -6.54698 3.93288 13
104 1 -1.24607 -15.4197 -2.80488 18
105 1 5.74093 -1.44885 -13.7452 14
106 1 -1.39905 -9.56311 -1.90118 18
107 1 -11.6924 -7.63219 1.28504 20
108 1 4.93485 9.14398 -1.81 21
109 1 4.97295 -9.31366 -12.8144 15
110 1 -4.12313 -8.64952 -6.51459 21
111 1 -1.01068 -12.6786 -0.283002 21
112 1 2.65584 -5.4086 -10.7165 18
113 1 -11.7138 -2.29646 -6.67676 18
114 1 8.3364 6.4716 17.1073 10
115 1 -6.70598 -8.26873 -8.60023 15
116 1 7.22386 -7.64548 -13.8063 11
117 1 -0.834362 -13.3195 -6.08092 16
118 1 2.72989 0.743198 -11.8096 16
119 1 3.87189 -3.18074 -11.9122 18
120 1 1.01238 11.8976 -10.6539 16
121 1 17.6715 -1.86281 -8.17778 14
122 1 3.03621 -6.49973 2.75753 20
123 1 -4.14355 -0.485862 -3.20363 18
124 1 -9.84129 8.35351 -5.56364 16
125 1 1.28536 -2.49809 -6.8895 16
126 1 16.9471 3.56036 -0.34315 17
127 1 -7.06285 -13.6071 -7.50816 14
128 1 -0.249954 -11.8489 -15.3549 9
129 1 -10.5901 -0.708798 -11.2278 15
130 1 5.6542 5.0221 5.47289 18
131 1 4.68592 -3.50451 -5.76153 18
132 1 -1.84667 6.57912 -9.29645 16
133 2 -17.0025 -4.54538 -2.56323 9
134 2 -5.28462 -1.69915 7.80869 16
135 2 3.30953 -2.45045 -7.04294 19
136 2 3.27435 -15.1999 9.50041 11
137 2 -13.4959 2.34589 -11.9708 10
138 2 -8.44774 -1.68884 4.0241 17
139 2 1.90606 -15.1533 -0.749679 22
140 2 -12.025 -5.68532 -2.13347 18
141 2 4.28567 -2.63345 -13.9873 18
142 2 -8.89845 -8.64199 -11.943 12
143 2 -11.5581 -10.9671 -11.0316 10
144 2 -0.911687 3.57893 2.98508 19
145 2 -16.0774 -8.22759 -4.41436 17
146 2 -13.4401 -3.38843 -1.42016 19
147 2 -10.5258 0.570599 5.04047 19
148 2 -14.574 1.60507 -4.0267 19
149 2 -11.5975 -7.96285 -0.797442 16
150 2 -16.6129 3.1748 -4.97738 20
151 2 1.6498 1.6475 1.92062 18
152 2 -8.76952 7.25448 3.41341 20
153 2 -2.14421 -8.5719 -5.70565 17
154 2 -7.09771 -5.86228 8.07563 18
155 2 -12.1843 -11.0859 -0.505707 12
156 2 -11.6455 -7.92138 -11.2186 11
157 2 -17.0936 -3.92585 5.21321 11
158 2 -4.91547 -10.5424 -15.1678 12
159 2 -5.28563 1.14657 -2.77175 18
160 2 9.73376 -8.45449 -0.898605 19
161 2 8.77868 0.951571 -6.59421 14
162 2 10.32 -11.5748 -1.75231 14
163 2 -4.64813 -2.32369 -5.98709 16
164 2 13.8051 -7.98552 -12.8171 7
165 2 11.1257 -1.24625 -11.2486 14
166 2 -11.7107 8.81851 -4.44523 14
167 2 16.8831 5.06517 -1.62044 13
168 2 -15.444 -0.644173 3.26153 17
169 2 -12.9482 -10.0987 -5.74004 15
170 2 -2.54559 -5.40863 -1.45518 21
171 2 1.04111 1.75174 -1.44333 19
172 2 -8.01862 -16.4983 6.27055 10
173 2 -8.71498 -14.495 8.73053 11
174 2 -5.74062 -6.67664 -9.20033 16
175 2 -4.82365 -15.4799 -4.04799 11
176 2 -10.4119 5.07392 8.0152 20
177 2 -7.62249 5.01064 -11.5891 15
178 2 2.61316 -2.45289 -2.86588 13
179 2 -3.83878 -13.0326 -14.4258 11
180 2 -19.129 1.15238 4.84839 14
181 2 -5.56156 -0.708366 -14.6179 14
182 2 -4.4896 -6.54898 -5.68112 20
183 2 -1.75069 -10.1328 -15.4672 15
184 2 -18.4587 -9.21917 -5.36735 9
185 2 -0.650999 7.92484 -5.17741 19
186 2 -8.10699 -3.76515 1.49832 20
187 2 -4.52572 -8.92663 7.08283 16
188 2 -15.2384 -10.2453 -4.15528 12
189 2 -15.712 0.62507 5.78612 17
190 2 -16.2573 -3.30761 -6.71424 11
191 2 -12.4019 4.14513 -7.46405 20
192 2 -11.884 2.19038 -9.46221 17
193 2 -13.6587 -2.47561 -5.7852 15
194 2 -4.5511 3.31646 8.79817 17
195 2 -0.435806 1.21849 -15.0876 12
196 2 -8.63603 15.0456 0.0148295 8
197 2 -7.33287 -14.4676 0.535198 12
198 2 -12.0784 -0.975242 12.8671 10
199 2 -16.5709 -11.1216 -1.677 9
200 2 15.0769 -8.50104 -0.0452697 12
201 2 -2.89643 -12.1017 1.06018 18
202 2 3.53686 -10.5828 -12.6223 15
203 2 2.82016 -1.01703 -10.89 16
204 2 -9.68172 -10.3016 -5.74182 17
205 2 -7.57198 3.17824 -10.2734 16
206 2 6.82601 -9.60891 2.99821 13
207 2 -4.38936 -0.697304 -11.595 14
208 2 4.5695 -13.1831 7.00894 15
209 2 -13.5892 5.78755 -1.46309 17
210 2 4.82065 -5.44108 -14.9178 15
211 2 -2.54204 -1.21853 -14.245 15
212 2 -8.6871 -13.1797 -5.7441 15
213 2 -19.8992 -3.18705 -6.25238 7
214 2 -2.96367 -0.447794 -4.77312 16
215 2 -10.1281 -13.5944 -0.354258 8
216 2 -4.48544 -7.55799 -2.9627 24
217 2 0.963832 -6.32154 -10.7111 16
218 2 -7.72727 -4.58369 -12.4931 12
219 2 -13.852 -6.1844 -5.02937 15
220 2 3.76177 2.33953 -13.1664 18
221 2 2.22729 -16.2142 -5.17603 13
222 2 -5.87117 -17.1422 6.95331 9
223 2 -8.64274 0.0517665 -4.69686 16
224 2 -0.227966 4.50393 -13.4392 17
225 2 4.42545 -9.2427 -6.03723 17
226 2 -1.67903 -5.89321 -4.2941 20
227 2 -9.63177 -4.80009 -1.04648 21
228 2 -15.9692 5.04488 -11.8024 8
229 2 -7.87234 -14.7911 -8.62047 11
230 2 -19.7102 8.87941 -4.65405 8
231 2 2.04994 -3.46326 -11.3943 18
232 2 6.83529 -5.9796 -13.0559 16
233 2 -14.735 -5.33206 -7.85915 13
234 2 -20.2691 0.43299 -6.52847 9
235 2 -18.8033 -2.05164 -4.76349 12
236 2 -6.97589 2.35987 -5.76964 18
237 2 -1.33555 -7.54577 -1.83903 16
238 2 2.81385 -14.3101 -8.16216 11
239 2 0.70306 -8.24511 -16.809 13
240 2 -10.8798 -14.6112 -7.39181 8
241 2 3.86888 -1.19623 1.58388 16
242 2 -1.15713 5.8873 -0.952027 18
243 2 1.67217 2.79704 -4.65368 23
244 2 6.65538 -1.21056 2.37855 14
245 2 -13.5906 -9.21322 2.95357 17
246 2 -2.2198 -2.9675 -2.69245 19
247 2 -1.28017 -1.33762 -10.8389 17
248 1 -15.9922 -9.08867 -2.46741 18
249 1 -4.75702 -10.1742 -19.8282 5
250 1 -4.43263 -10.9497 2.52419 21
251 1 -9.14357 2.27361 3.47244 20
252 1 -19.3598 -0.54023 5.6403 12
253 1 -13.059 6.22585 3.48091 19
254 1 -5.35576 -5.10426 -0.121253 19
255 1 -8.85554 -7.13933 11.3596 18
256 1 3.34533 -8.3966 -0.0210727 19
257 1 -4.65307 -10.0585 12.9898 10
258 1 -3.2676 1.29685 -0.664094 21
259 1 -13.5402 0.75001 -5.74774 19
260 1 -19.269 7.60366 -5.96204 10
261 1 -13.6023 0.16133 9.4268 16
262 1 -7.59729 -16.3298 8.40411 11
263 1 -5.09177 3.96865 0.798201 21
264 1 -2.41982 9.80261 11.3236 14
265 1 -11.8715 -4.68555 13.5927 13
266 1 -20.4444 3.73916 0.436776 8
267 1 -9.52066 -8.76263 5.93775 17
268 1 -6.49127 6.4303 -1.45043 21
269 1 -1.37696 -2.68682 7.15118 18
270 1 3.87789 -10.9873 -0.735842 18
271 1 -14.1419 -6.37251 3.03605 16
272 1 -0.836047 11.9354 9.01193 14
273 1 -12.9497 -8.52931 8.9534 15
274 1 -16.2205 -3.89733 6.9345 13
275 1 -19.236 -1.64366 2.1267 7
276 1 -1.75706 -10.2785 10.5865 14
277 1 1.40695 -11.029 10.8413 14
278 1 -2.04817 -12.8631 -2.81481 17
279 1 -7.30459 -10.6498 4.27872 17
280 1 -2.31453 -13.1245 5.92631 12
281 1 -5.99765 -15.6026 0.953897 12
282 1 0.312475 4.40971 12.7765 15
283 1 -4.23223 -16.1739 9.81939 9
284 1 -15.0709 -10.0954 2.40885 10
285 1 -10.9272 1.24484 -7.87832 17
286 1 -4.87124 9.5487 6.77057 17
287 1 -13.3646 -5.99359 6.36032 17
288 1 -12.2382 -10.852 4.70111 12
289 1 -5.10832 -5.45884 3.9288 21
290 1 -16.8561 -10.1569 -5.18389 13
291 1 -3.03487 -8.30916 14.5969 13
292 1 0.474452 -9.30202 13.411 12
293 1 0.656065 -0.0824577 6.64336 21
294 1 -1.12139 -9.75955 4.42085 18
295 1 -8.63484 -13.2702 10.4511 10
296 1 -8.7636 0.822053 0.860232 19
297 1 -17.1966 1.28136 4.57837 17
298 1 -3.63638 -2.003 4.58734 20
299 1 -8.92651 -4.32505 12.8217 13
300 1 1.771 -12.1504 4.57197 16
301 1 -18.1814 4.81983 -1.91471 14
302 1 -12.1371 5.7611 -2.86942 20
303 1 -3.92915 1.02378 4.8703 18
304 1 -4.30987 -13.2099 -0.0549565 20
305 1 -5.86411 -5.16521 10.8876 19
306 1 4.17918 -9.25881 13.0836 13
307 1 -4.05588 -7.94815 10.0911 20
308 1 -12.3762 -8.26067 3.83323 17
309 1 -4.16871 -14.8791 3.76328 15
310 1 -0.588526 -7.44644 11.6443 18
311 1 -8.2137 -13.6896 -0.835766 12
312 1 -4.23819 -15.5957 6.99587 16
313 1 -10.534 -6.46386 8.03969 23
314 1 3.74468 -4.59595 0.0334122 19
315 1 1.57182 -13.984 1.79353 17
316 1 -9.66397 2.25408 12.4602 12
317 1 -4.18456 1.3815 10.1609 17
318 1 -5.74721 -8.24885 5.87599 19
319 1 -14.4137 -2.29027 3.46253 16
320 1 -10.248 -10.1771 -7.8475 23
321 1 2.9638 -4.07294 4.54735 20
322 1 -12.6211 -14.1092 -7.72003 7
323 1 -11.7615 2.92494 -12.3743 13
324 1 -1.62649 1.47109 -8.15305 17
325 1 -13.3887 4.28439 -0.425516 20
326 1 -1.43582 -1.01863 -2.84307 17
327 1 4.89063 -8.00939 8.67598 17
328 1 1.84876 -1.1655 12.5976 16
329 1 -9.47714 -3.78887 -12.2211 10
330 1 -9.64623 -4.70871 1.13246 21
331 1 -0.651545 8.04969 6.00889 16
332 1 5.85765 -1.02915 0.723418 17
333 1 -8.49504 -7.62037 0.558692 21
334 1 -0.861721 -15.4966 7.58241 13
335 1 -3.20167 -3.62523 -7.64237 17
336 1 -4.98923 -9.45885 -3.66762 19
337 1 0.261097 5.74499 -15.1005 15
338 1 0.312433 0.738032 0.0949415 16
339 1 5.99311 -9.80497 -10.2681 12
340 1 -7.9559 -10.8004 -9.17909 17
341 1 8.33391 -10.8527 2.90543 11
342 1 6.8571 -10.5433 0.61645 15
343 1 -6.69021 -17.3742 5.26301 8
344 1 5.72458 -9.46767 -2.35563 22
345 1 -6.81683 -10.3348 0.790514 20
346 1 4.84988 -6.10563 11.2333 18
347 1 5.33728 -9.75376 5.68903 16
348 1 -4.19179 -6.04064 14.0152 12
349 1 -5.76119 -16.3988 -2.56512 11
350 1 2.51125 -8.18486 -16.7594 10
351 1 -0.251536 -2.89844 3.56457 22
352 1 -0.962789 -6.15915 15.349 16
353 1 2.45566 -13.3333 6.76204 17
354 1 5.52843 -11.6194 7.73024 12
355 1 3.3358 -12.9471 10.0296 13
356 1 4.81127 7.27649 1.36867 19
357 1 -15.4828 6.49232 1.27592 21
358 1 1.80768 2.35009 7.23579 21
359 1 -6.72004 -12.6394 2.58009 19
360 1 -18.0849 -9.02072 -0.487763 10
361 1 -10.9525 4.08936 2.5073 21
362 1 4.50724 -4.58103 8.23187 18
363 1 2.43232 -5.7805 16.543 10
364 1 -5.22634 6.72145 9.49954 20
365 1 -7.80334 -9.1183 -2.49969 20
366 1 0.792542 -5.12668 1.62846 23
367 1 -10.0855 -1.77432 12.6075 11
368 1 -6.32655 -1.87366 13.5598 17
369 1 -6.49521 11.4739 8.95261 17
370 1 4.67416 7.04915 7.55319 19
371 1 -7.22276 -10.4716 10.7378 16
372 1 -9.69783 -3.30834 4.62648 21
373 1 -1.08621 -15.7911 2.57639 11
374 1 10.2237 5.14246 5.58787 20
375 2 -12.995 -5.8576 1.47416 22
376 2 -19.9919 3.12507 7.31258 7
377 2 -15.0789 -4.35892 3.03741 13
378 2 -13.1444 -0.960949 7.8128 17
379 2 -10.2944 2.51166 10.5298 13
380 2 -1.48748 -1.5811 18.0634 10
381 2 -6.72784 -4.24529 -1.23243 18
382 2 -15.3801 -4.43728 -0.270393 15
383 2 4.45411 -9.71591 7.57482 15
384 2 -10.2911 -11.9105 -8.91574 19
385 2 -8.72288 -11.4208 9.46593 13
386 2 -2.08269 -11.4647 4.71949 17
387 2 -9.2678 3.76932 0.255685 18
388 2 -13.6007 -11.2146 6.16657 8
389 2 -5.13775 7.90778 6.12151 15
390 2 -15.1761 1.91677 8.55924 15
391 2 -9.66001 -7.01031 5.33501 17
392 2 -10.768 -9.6245 13.8854 5
393 2 -15.6988 6.56331 6.09859 12
394 2 -11.7071 1.34747 -3.64087 18
395 2 -16.2433 4.57623 -2.5171 16
396 2 -4.47244 -10.5747 -5.16766 15
397 2 -11.9607 8.23469 8.91382 12
398 2 -0.149499 5.68031 14.0327 15
399 2 -6.33067 -13.1546 -12.8595 10
400 2 6.00252 -3.63794 -7.8933 19
401 2 -3.8874 -12.5634 -2.09017 21
402 2 -5.02868 5.08862 -0.894798 19
403 2 -12.4854 -3.82006 9.28424 23
404 2 -6.82769 -7.98619 -14.881 13
405 2 13.7512 0.132795 1.34446 15
406 2 -2.7306 5.98983 -3.17024 17
407 2 -3.55856 -4.31398 18.4065 7
408 2 3.98971 9.15958 5.22123 20
409 2 -16.5448 -1.75476 -2.79878 17
410 2 -14.6867 5.95512 -9.46445 16
411 2 -5.8814 -8.7597 -6.84682 19
412 2 -2.35521 -7.45112 -10.9674 21
413 2 -17.5226 8.01128 4.79209 10
414 2 -7.93887 -0.205281 6.73998 18
415 2 3.04765 -10.9147 -9.53532 17
416 2 -1.41117 -2.24034 15.0851 19
417 2 -17.9971 4.18288 2.87799 19
418 2 0.575092 -10.7457 3.93369 17
419 2 -0.149539 -12.9297 1.56448 19
420 2 -0.600133 -10.211 -0.0821025 17
421 2 -11.1097 -3.20131 -3.5923 17
422 2 -5.29718 -11.6087 0.731533 18
423 2 15.2851 -13.0223 -4.39559 10
424 2 -7.47651 -8.33307 4.83119 18
425 2 -11.6044 2.3941 12.731 12
426 2 -5.82272 -1.46922 -1.90613 20
427 2 -4.365 -2.37269 16.3942 11
428 2 -14.4146 2.15351 -7.09479 17
429 2 -18.4505 4.25678 0.0739598 14
430 2 1.16032 -3.22801 12.9069 20
431 2 -2.68112 2.27936 5.48653 20
432 2 -15.0285 -7.31909 -2.01882 17
433 2 -5.68365 -15.8393 4.05552 13
434 2 -5.4758 -11.7771 3.8324 15
435 2 -15.8358 -2.26412 8.25356 16
436 2 3.61546 -1.69263 12.6174 16
437 2 -5.6199 -12.113 7.95787 14
438 2 -13.7632 -2.67114 1.3284 17
439 2 -3.50387 -6.58892 8.6265 17
440 2 -3.08589 -16.0355 8.14616 11
441 2 -2.80401 1.65797 15.3791 11
442 2 -10.8621 -9.46619 3.91789 20
443 2 0.925995 -10.5267 9.02599 17
444 2 -17.1441 -7.37921 0.26812 10
445 2 3.79155 -7.34922 -4.13997 16
446 2 -10.171 -8.31626 7.66949 16
447 2 1.39146 -15.9519 7.46506 13
448 2 -5.61893 -15.4111 9.12165 12
449 2 11.5453 -4.37598 -1.12963 19
450 2 -5.98686 3.44478 -3.33284 16
451 2 -13.5172 -1.01357 -2.24416 21
452 2 6.72983 5.6547 -11.8919 17
453 2 1.68111 -8.47573 6.68103 19
454 2 2.29527 -10.3161 -4.14498 16
455 2 12.1394 -11.9419 -4.20473 16
456 2 -3.22086 -9.79578 11.0583 13
457 2 6.22686 -4.56138 5.14979 17
458 2 12.1168 -4.7516 2.01646 18
459 2 1.45007 -7.55967 3.53472 21
460 2 -0.814825 -15.3416 9.64781 12
461 2 -0.930827 -13.5989 7.21 18
462 2 1.40984 -12.9379 -11.835 11
463 2 -6.5446 -9.99646 -1.32569 20
464 2 -3.26017 -9.72221 -0.638981 24
465 2 -14.8141 -4.8993 7.56734 14
466 2 -5.02085 -3.61036 4.28163 19
467 2 -2.17214 -11.2362 -10.1031 14
468 2 -11.3156 -12.0717 3.32949 12
469 2 -2.70457 0.472168 3.22296 19
470 2 10.0759 9.63828 2.44445 21
471 2 -11.7429 -9.04241 10.5823 13
472 2 -0.00246358 -16.3502 -3.95501 17
473 2 -2.03412 12.2408 7.48631 16
474 2 8.71071 -8.39081 10.7413 9
475 2 3.00953 -8.98609 14.6609 12
476 2 -7.03529 -3.62545 6.54143 19
477 2 1.7488 -4.59409 8.24112 19
478 2 -4.87875 -5.14052 12.5811 16
479 2 -5.1656 -5.27884 -11.6109 15
480 2 -1.00436 -11.8643 10.1646 11
481 2 -6.93566 -3.49116 10.0741 20
482 2 -3.33867 3.70703 1.59757 19
483 2 -9.22895 -14.649 5.19411 12
484 2 -1.64733 2.232 0.483249 21
485 2 -0.297638 9.79735 -7.31584 16
486 2 -0.860644 -4.05095 0.833453 21
487 2 0.437157 -5.11521 -2.11254 21
488 2 -3.84167 -14.039 5.70288 14
489 2 -7.37377 -6.59038 -3.48849 19
490 2 -2.34835 -0.0967831 12.0604 21
491 2 3.26183 0.650328 3.99147 17
492 2 -1.42272 -4.62742 7.38389 16
493 2 -1.02645 4.10564 16.0578 14
494 2 -4.17102 -1.95619 13.555 18
495 2 -5.11862 -14.0405 2.15233 16
496 2 11.7093 1.80216 7.90102 20
497 2 2.03664 -14.0816 5.17387 12
498 2 -4.99942 2.34077 4.1317 18
499 2 15.5713 -2.12261 4.27433 15
500 2 -14.9181 -9.1968 -6.92766 18
501 2 -19.2517 5.74959 5.11283 11
502 1 -10.8908 -3.41746 -1.4433 19
503 1 -4.42035 10.0774 -9.71026 9
504 1 -2.23912 -3.73264 -4.33534 20
505 1 -12.1305 0.260258 -1.77291 20
506 1 -7.13598 8.535 -8.06672 13
507 1 12.5696 5.81433 -3.14858 18
508 1 -10.97 9.38336 -2.46987 21
509 1 -17.6982 4.69113 9.61948 8
510 1 -8.57686 -6.96565 3.79117 21
511 1 -18.1218 8.92331 3.16531 10
512 1 -16.1431 4.23395 4.22637 21
513 1 -16.2487 2.7607 -3.19565 17
514 1 -13.0877 2.46522 -3.29111 22
515 1 -7.1811 11.1505 5.78796 18
516 1 -17.7431 -7.39562 -5.57571 12
517 1 -1.86846 5.34699 3.24595 16
518 1 -2.42713 2.29854 2.25078 20
519 1 -1.11179 8.66836 -14.9682 10
520 1 -8.32901 14.7371 6.08858 11
521 1 0.689237 8.48445 -8.55201 20
522 1 -0.707569 -7.37347 -17.4671 11
523 1 -10.5386 5.28823 -6.84959 19
524 1 -4.07283 3.09718 -14.9187 10
525 1 -7.70491 -15.1215 4.0272 12
526 1 -14.9155 -10.4589 7.1083 5
527 1 -19.8545 -9.209 -4.01216 6
528 1 -19.3826 5.74146 -7.91781 6
529 1 -5.50203 12.4914 -1.73894 14
530 1 5.3562 5.66597 -1.38592 21
531 1 0.15098 -6.41721 -3.23547 19
532 1 -14.1028 -2.88436 8.4137 16
533 1 -12.7494 -11.622 -9.57084 11
534 1 -5.84081 -0.553419 -10.6408 14
535 1 -20.2994 10.5848 -3.61003 6
536 1 1.4054 9.37944 -12.4223 15
537 1 -15.4779 -3.44906 -1.98189 15
538 1 -16.4398 -5.56046 4.34458 12
539 1 -19.6195 10.2758 -0.466414 8
540 1 -7.84418 4.51684 1.48816 25
541 1 2.62405 -10.0046 -14.1155 17
542 1 -7.67662 5.63398 3.61353 19
543 1 -4.29193 3.99722 -2.65068 22
544 1 0.498188 15.7814 -5.94604 9
545 1 6.69513 2.73578 3.34751 18
546 1 -1.13585 -0.266661 -5.29496 17
547 1 6.34963 5.96256 -7.30321 18
548 1 -16.2388 -0.929594 6.96694 19
549 1 -4.29868 -1.41081 -13.5295 13
550 1 -0.145539 12.2474 -3.70749 19
551 1 -7.15442 2.47436 -12.1671 14
552 1 -10.4401 7.69258 2.13224 21
553 1 -2.29846 2.78469 -5.02797 19
554 1 -10.6049 -4.59146 -8.61225 16
555 1 -4.47763 6.85538 -11.0778 16
556 1 -13.2614 -8.64426 -10.4949 12
557 1 -2.63898 13.1614 -10.1802 11
558 1 -14.0605 9.0238 2.19067 18
559 1 -1.89862 -0.283061 1.19429 17
560 1 -4.90177 6.4419 -7.72128 18
561 1 -8.13974 10.336 -6.38196 12
562 1 -13.8881 -1.60034 -0.255503 23
563 1 0.108467 10.8546 2.51701 20
564 1 5.97409 1.10323 -15.9445 12
565 1 -5.0496 -3.20327 9.02707 17
566 1 -2.21943 0.532585 -14.7956 14
567 1 12.5958 -1.19867 10.8677 14
568 1 -14.1574 -8.37847 -5.15318 19
569 1 -11.4775 -6.1259 -10.6461 13
570 1 0.261066 2.93339 -16.5307 12
571 1 0.595123 2.4482 -13.8335 20
572 1 8.29837 -2.28185 2.63094 19
573 1 15.314 9.39361 -6.4829 13
574 1 4.81356 8.96423 -11.6775 20
575 1 -17.2599 3.72011 1.47042 19
576 1 -5.28076 -3.87201 -10.1304 18
577 1 -1.74748 4.57726 -7.15528 15
578 1 2.11401 -4.14918 -1.97021 17
579 1 3.20038 1.30991 -14.8173 18
580 1 -9.16081 1.63385 9.16166 18
581 1 -3.45972 3.47066 -9.65363 15
582 1 -9.02201 -11.1383 -4.19406 16
583 1 -2.31175 13.7655 -2.09253 14
584 1 -12.8969 3.65528 4.92336 20
585 1 -0.946067 11.4548 -12.5977 10
586 1 3.65528 10.3074 -5.56551 17
587 1 5.46289 11.1457 -7.42149 20
588 1 0.714561 5.62013 -11.656 17
589 1 -5.60741 8.95269 -5.60954 17
590 1 -10.0175 8.35328 -8.86369 12
591 1 -10.342 3.05928 -4.33262 19
592 1 3.05772 10.3139 -9.1129 20
593 1 2.6988 -2.66367 -9.81367 18
594 1 0.721883 11.4738 -7.08038 19
595 1 15.5139 2.62261 -13.5214 10
596 1 19.1443 1.29685 -13.5157 5
597 1 -21.2935 4.09363 -3.57556 6
598 1 6.02867 -0.731333 -10.4846 19
599 1 -6.13658 0.0933869 -0.64085 19
600 1 0.584728 6.3167 -0.196928 16
601 1 -16.0567 1.80312 -6.35738 20
602 1 -0.557393 -2.77426 -9.51686 19
603 1 -10.0292 5.66193 -0.464184 20
604 1 -4.85732 9.21853 -1.89792 19
605 1 -1.99078 12.9729 -5.76256 18
606 1 -18.0629 -3.71023 -7.05559 10
607 1 -4.68903 11.8979 -6.40991 13
608 1 4.39376 6.88349 -4.60618 19
609 1 -2.25311 -2.97241 -15.3709 15
610 1 -10.1182 2.95727 -1.01333 25
611 1 4.82083 -0.750918 3.5829 18
612 1 3.70793 10.1625 3.27126 20
613 1 -1.74979 8.71171 -10.9232 15
614 1 -11.8818 9.1879 4.64767 16
615 1 -0.0233481 2.65337 -10.4168 18
616 1 2.97198 14.0042 11.0678 14
617 2 -13.9127 4.9316 8.67481 20
618 2 -12.5613 3.66889 1.30558 20
619 2 -15.9948 -7.09851 3.25538 13
620 2 -12.9625 10.4021 1.70757 16
621 2 -14.3872 8.06277 0.44183 18
622 2 -12.9975 -0.830815 4.24708 14
623 2 -17.1874 -6.4149 -6.9715 11
624 2 -16.3984 -9.57039 1.12163 10
625 2 -13.8924 9.14677 4.47102 11
626 2 -18.0087 -0.47695 1.4085 11
627 2 -7.20083 -3.45874 -16.1322 10
628 2 -10.9842 6.88778 -6.3868 18
629 2 -9.60256 -6.77437 1.95885 21
630 2 -15.4664 2.85289 -9.93085 14
631 2 -1.98148 13.111 -3.91678 14
632 2 -9.03263 4.1976 3.10785 20
633 2 -5.40358 -5.57758 1.89043 22
634 2 -4.62471 -12.3681 -10.981 14
635 2 -8.93986 8.61043 -7.22132 15
636 2 -15.6057 10.0724 -2.57814 9
637 2 -10.7989 -3.65319 12.3966 14
638 2 -6.17173 4.71339 -7.88708 19
639 2 0.106614 1.05727 -9.26665 18
640 2 -8.26353 -12.2487 -10.5287 16
641 2 -20.491 2.4052 -4.08849 6
642 2 -17.69 1.30032 -7.40292 13
643 2 -15.0669 3.32154 0.683689 21
644 2 -13.3608 -1.96729 -10.9468 11
645 2 8.47885 13.2245 -4.77046 11
646 2 -10.9324 -3.23445 0.47998 17
647 2 18.7438 -9.47388 -7.04714 9
648 2 -10.7827 -8.3633 -6.54187 17
649 2 -14.9649 -0.0774053 0.353164 19
650 2 -13.2444 11.7341 -2.06263 11
651 2 2.73432 3.55352 3.07851 20
652 2 -1.22896 -4.0732 -12.228 17
653 2 -6.81025 15.537 7.42047 12
654 2 -5.52559 12.1499 2.0885 20
655 2 -9.28914 -1.46835 -1.71024 20
656 2 -16.1754 4.34395 10.7439 11
657 2 -4.14895 7.61603 -6.03583 16
658 2 -11.045 0.740044 -12.5494 11
659 2 -10.3368 -6.41676 -8.6843 16
660 2 12.8858 12.0471 2.03412 13
661 2 -8.09718 -0.471408 -15.3121 6
662 2 -12.5179 -4.00264 -9.19789 16
663 2 -4.69937 -4.84572 -7.74088 18
664 2 -0.185856 -6.66302 -7.52857 16
665 2 -0.604657 -2.85967 -16.0595 15
666 2 3.86475 -9.34264 -15.7162 10
667 2 -11.8105 5.17288 10.6226 22
668 2 -4.16426 15.6342 7.13648 13
669 2 -2.90376 5.88039 -7.77454 18
670 2 -5.56998 -6.10304 -17.5842 11
671 2 -19.1877 8.24158 -0.873539 12
672 2 -3.19485 4.72168 -14.3219 11
673 2 12.0747 4.96462 -13.4329 14
674 2 0.976781 11.4908 -5.0692 18
675 2 1.60766 5.44971 -2.69319 21
676 2 -8.12041 6.07569 0.167637 23
677 2 1.00299 1.55712 -12.2182 17
678 2 5.57278 6.9073 5.80399 18
679 2 -18.8937 -2.20626 3.84164 10
680 2 -12.7528 4.82866 -4.41621 17
681 2 -1.76037 3.36067 -8.43949 17
682 2 1.43976 14.6047 -8.27418 13
683 2 -15.6292 -0.214984 -5.48721 17
684 2 -17.7046 4.96491 -8.36993 13
685 2 4.23999 -5.34315 -11.7096 19
686 2 -6.16059 -2.25774 -9.54503 15
687 2 -7.71523 -1.01547 0.664451 20
688 2 1.35339 9.96858 -10.3558 20
689 2 7.55049 3.1612 -12.8227 18
690 2 -13.1879 2.06323 -1.37786 19
691 2 -10.8057 -4.54746 -11.1287 13
692 2 -19.2051 7.65574 -7.82049 5
693 2 2.47785 5.44862 -13.2846 17
694 2 -1.01655 -5.63819 -16.0828 13
695 2 -2.91799 11.757 4.64059 16
696 2 -5.25021 -5.4334 -14.9544 13
697 2 -18.7227 5.85466 -5.89602 11
698 2 -9.1446 2.35033 -3.18068 22
699 2 -9.57365 -3.83566 8.40449 15
700 2 -3.29653 13.9864 2.17056 15
701 2 14.4985 -4.55277 3.50859 18
702 2 -9.25647 4.70489 -5.43088 20
703 2 10.4439 2.97766 -14.0794 14
704 2 -10.3783 -0.0809234 -9.28337 17
705 2 -1.25481 10.0876 -13.9345 8
706 2 -8.15703 6.91516 -8.59431 15
707 2 13.4959 3.9159 -3.11134 19
708 2 -4.69506 17.9868 5.41231 7
709 2 -0.364176 9.5083 -11.672 15
710 2 -10.6514 0.192453 -0.145476 18
711 2 4.86878 9.71388 -10.0442 19
712 2 -5.96547 8.20385 -4.02678 14
713 2 -8.68199 12.2215 1.74733 18
714 2 -4.21936 -3.68013 0.321665 19
715 2 0.024786 8.39233 -0.148133 20
716 2 -3.48129 16.1409 9.75746 10
717 2 -13.927 8.17567 -7.59533 9
718 2 5.15736 -6.21691 -7.02236 18
719 2 0.207327 7.50342 -15.0304 15
720 2 3.99824 14.8671 3.51501 14
721 2 -15.5422 -0.391156 -9.65051 10
722 2 15.8854 9.25518 -10.1676 8
723 2 4.96685 5.01968 -14.2942 16
724 2 5.64311 13.2232 5.03654 16
725 2 -19.0878 10.3783 1.39762 9
726 2 -15.9408 11.8241 0.295105 9
727 2 8.15419 -12.1183 -7.7287 12
728 2 6.64717 12.4239 -11.0716 14
729 2 2.9018 12.572 12.5505 15
730 2 -2.25601 -3.91452 -9.88047 15
731 2 -10.5743 4.3165 -11.2198 14
732 2 8.76211 11.477 6.02212 18
733 1 -7.25627 -7.85021 9.30684 22
734 1 -10.9417 1.56711 6.6786 22
735 1 -9.34507 12.5899 8.42965 11
736 1 -9.45748 -7.18358 -7.11073 16
737 1 -4.70114 14.504 9.50521 14
738 1 0.362305 -2.48565 0.764223 17
739 1 -12.0706 9.97433 8.8935 8
740 1 -1.86963 10.8547 5.95754 18
741 1 -19.9197 -1.45542 -6.19001 10
742 1 -9.26678 11.8722 -1.63513e-04 14
743 1 -10.8023 -4.24 10.2826 20
744 1 -15.6544 9.50484 -0.146922 19
745 1 -8.07512 8.15876 -0.128493 23
746 1 -18.8293 -3.13282 5.39328 10
747 1 -19.9496 1.55683 8.13892 7
748 1 -13.7698 -5.5825 9.07782 17
749 1 -11.6546 12.4176 -1.38657 11
750 1 -12.1862 11.8529 2.80872 11
751 1 -2.65254 16.7996 8.14289 10
752 1 3.96367 -11.5857 -4.19994 20
753 1 -7.73312 6.87301 9.70232 18
754 1 -11.7188 -9.52674 12.3637 9
755 1 -3.90119 6.70431 12.0189 14
756 1 -10.1465 -9.79021 9.53573 15
757 1 0.947489 3.40602 2.07966 19
758 1 -8.63464 12.0147 -3.41526 10
759 1 -11.8453 0.404931 3.38714 16
760 1 -15.2223 3.3345 -11.7492 11
761 1 -12.7285 7.34377 -0.560722 20
762 1 -10.0095 -13.2937 4.06326 12
763 1 -0.103275 -4.47819 12.0876 19
764 1 -9.54275 -15.2399 7.12328 8
765 1 -7.93947 4.87813 13.3878 9
766 1 -9.64259 -1.68179 8.19611 20
767 1 -9.10873 11.4182 4.27568 14
768 1 -0.680327 -13.6317 10.5198 12
769 1 -17.9051 6.80892 6.22199 11
770 1 -15.9622 8.55825 -3.93494 8
771 1 -19.8446 1.9321 3.47664 12
772 1 -11.8848 -6.99485 11.4936 20
773 1 -6.53101 1.29366 11.4484 18
774 1 -8.56356 -0.168487 4.94596 22
775 1 -5.52811 10.5095 0.914323 19
776 1 2.77109 0.046209 9.91116 18
777 1 -19.5053 1.16558 -7.94127 6
778 1 -18.2236 7.12489 0.385638 17
779 1 -4.68616 13.5948 0.871012 18
780 1 -17.161 10.8343 1.617 8
781 1 -6.16976 4.94239 -9.73176 17
782 1 -1.42909 7.70005 -3.53199 19
783 1 -13.004 -2.49018 12.0943 15
784 1 0.40881 5.7337 -18.2965 6
785 1 9.1992 1.09759 2.8727 18
786 1 -2.85729 14.769 -7.68692 10
787 1 -13.2211 6.52922 9.93391 16
788 1 -16.0628 -2.45866 10.1242 14
789 1 12.9877 11.4513 6.66122 11
790 1 -3.00462 4.65056 9.23798 16
791 1 1.07657 16.2848 12.5516 7
792 1 -12.8368 0.69154 12.5903 12
793 1 -12.8974 -2.64882 -3.28309 16
794 1 -2.27555 15.2769 11.1329 11
795 1 3.52195 -3.26164 11.4464 20
796 1 -13.4762 9.90216 -3.08496 12
797 1 5.00926 5.26255 -12.2218 18
798 1 3.03056 13.1596 -8.4149 12
799 1 2.40753 10.8529 -2.72369 17
800 1 -16.3523 4.8581 -9.51188 13
801 1 4.42902 10.3211 6.88835 21
802 1 -5.41404 13.2163 11.5428 11
803 1 -18.9218 5.80431 3.42617 14
804 1 -18.3853 -4.11989 11.0297 5
805 1 -2.30958 6.17031 6.35139 18
806 1 -9.49486 8.19502 5.21949 17
807 1 4.49527 2.91858 7.562 17
808 1 -6.94414 -2.86653 0.334056 21
809 1 -12.053 1.62247 0.586317 18
810 1 4.71446 11.9005 9.44541 19
811 1 -2.2578 11.9505 0.134156 20
812 1 12.3589 5.25923 1.02881 18
813 1 -11.5199 9.82715 0.420782 18
814 1 -4.86306 7.23339 4.34962 15
815 1 7.5033 7.0596 0.0909673 17
816 1 -4.62579 -10.3465 8.5157 15
817 1 -3.73257 -0.446168 7.84621 19
818 1 5.62656 -2.73472 5.79372 17
819 1 -2.46157 -1.62033 10.6494 17
820 1 -3.14894 -7.64877 3.46619 18
821 1 3.48206 -1.06185 20.0181 7
822 1 2.31881 10.6051 15.8738 12
823 1 -7.22398 -1.79735 11.0158 18
824 1 -14.8631 6.34536 -12.0883 7
825 1 11.7341 11.0109 0.93488 16
826 1 -7.34173 -3.34512 3.23989 19
827 1 -2.6783 8.74774 8.4048 17
828 1 -11.8418 -0.987191 6.16955 18
829 1 -14.0687 1.93773 7.05809 17
830 1 -7.92142 -5.36475 6.37162 23
831 1 -1.23292 2.65685 -1.51197 18
832 1 8.07167 4.40584 -2.03778 20
833 1 -4.6424 4.4794 3.879 19
834 1 3.51968 -15.8451 -6.95316 10
835 1 -14.8235 2.8425 10.1424 14
836 1 -3.57416 -3.11401 12.2331 17
837 1 -15.2758 11.7553 -1.58379 7
838 1 -8.47646 4.73068 7.36203 17
839 1 14.646 8.64613 5.26045 18
840 1 -9.18993 9.52483 8.54364 15
841 1 2.14132 13.2457 14.0072 9
842 1 -11.0852 -3.81568 7.35691 19
843 1 9.43172 3.9182 14.378 20
844 1 4.65811 6.95938 11.7423 20
845 1 -3.0557 17.1633 5.60722 9
846 1 -2.14129 7.93767 -6.43899 18
847 1 -7.91757 8.93054 -3.3958 18
848 1 7.83047 7.16326 10.887 17
849 1 -2.95422 6.75903 -1.42353 17
850 1 -5.18256 7.36628 1.19302 22
851 1 -4.03715 1.53559 14.1336 15
852 1 -4.20023 12.7509 3.65711 19
853 1 -5.58726 6.08647 6.70404 18
854 1 5.92966 4.5141 1.73526 20
855 1 2.07216 12.3905 8.15715 17
856 1 -3.22648 -1.62246 15.2381 15
857 1 -7.03773 0.0365985 8.33648 19
858 1 -13.5257 7.2969 13.4781 8
859 1 -10.1353 5.22188 9.98952 18
860 2 -2.84845 2.88745 -11.4366 13
861 2 -17.543 6.85933 2.53424 16
862 2 -13.1312 -9.86697 -9.09185 15
863 2 -11.1324 -6.32919 13.939 12
864 2 -7.71043 1.6497 4.62549 18