ITEM: TIMESTEP
236000
ITEM: NUMBER OF ATOMS
2000
ITEM: BOX BOUNDS pp pp pp
-30.0 30.0
-30.0 30.0
-30.0 30.0
ITEM: ATOMS id type x y z Coordination
1 1 -14.7959 -1.57656 -3.4557 22
2 1 -14.9013 -2.11611 -0.427866 16
3 1 -15.1047 3.54216 11.5476 9
4 2 -17.7503 -6.74448 -4.43959 17
5 2 -15.2469 0.47747 8.39914 16
6 2 -16.1202 -1.31561 3.68068 12
7 1 -7.90023 -14.5399 -5.19826 13
8 1 -2.00029 -15.0418 -4.68889 15
9 1 -5.33593 -14.739 -2.99191 18
10 2 -1.00627 -14.498 -3.13989 16
11 2 2.76351 -12.8753 -10.6756 15
12 2 5.0056 -14.1261 -3.11724 19
13 2 -0.477646 6.74148 -17.4639 11
14 1 -1.85873 6.69746 -15.7932 17
15 1 -2.14509 1.14233 -18.5659 14
16 2 -2.68665 2.86753 -18.236 13
17 1 -13.9899 -9.30666 -1.52716 22
18 1 -10.7246 -8.9053 -10.3309 13
19 1 -17.1907 -5.68684 -7.86328 11
20 1 -13.0812 -6.79836 -6.73848 17
21 1 -17.3277 -7.1153 -2.49923 15
22 1 -11.7171 -9.46062 -5.43438 16
23 1 -12.5098 -7.16022 -3.47612 21
24 1 -15.9705 -11.6737 -4.78324 7
25 1 -15.6124 -6.04236 -4.98662 21
26 1 -9.50104 -1.8335 -11.831 18
27 1 -12.4002 -2.50597 -10.4967 12
28 1 -10.1714 -1.85783 -14.7439 13
29 1 -13.9401 -4.44062 -7.91688 18
30 1 -12.9249 -5.76259 -10.4437 12
31 1 -15.5672 -2.07882 -8.90233 8
32 1 -12.7895 -1.45222 -6.61388 21
33 1 -13.3104 -4.03148 -4.75299 20
34 1 -17.7693 -8.19947 -5.88079 9
35 1 -17.1128 -9.84426 -1.52209 13
36 1 -12.2392 -0.919135 -3.34373 20
37 1 -16.3164 0.806823 -3.54086 13
38 1 -13.7392 -4.59323 -1.59892 18
39 1 -5.89948 -12.2644 -10.141 16
40 1 -10.9296 -11.3501 -8.58071 8
41 1 -7.489 -9.07803 -9.00725 21
42 1 -9.42837 -11.8243 -4.88817 16
43 1 -7.93898 -14.0711 -8.44897 9
44 1 -6.52784 -11.907 -3.61946 20
45 1 -10.2577 -11.8884 -1.63989 16
46 1 -12.8472 -11.2366 0.399039 18
47 1 -5.70552 -8.80677 -12.4915 17
48 1 -9.18631 -12.2324 -11.1248 11
49 1 -8.2133 -9.87378 -12.2859 13
50 1 -10.484 -6.93563 -11.994 10
51 1 -6.69137 -6.77254 -10.3771 20
52 1 -9.51131 -6.49676 -9.0315 17
53 1 -14.6069 -9.02441 -4.06319 19
54 1 -10.1877 -8.82455 -7.38632 18
55 1 -6.51538 -6.50808 -6.93636 21
56 1 -9.80065 -6.86788 -5.02517 21
57 1 -7.73804 -9.08644 -4.83379 18
58 1 -10.4103 -9.64977 -2.88051 20
59 1 -6.755 -6.38305 -3.45902 24
60 1 -9.59758 -6.69603 -1.90067 21
61 1 -7.77876 -9.15232 -1.40307 22
62 1 -4.68768 2.84264 -18.3192 12
63 1 -7.20209 4.59972 -16.6674 12
64 1 -7.51984 -1.62619 -16.4916 13
65 1 -8.52854 1.48604 -16.296 14
66 1 -6.64367 -1.55225 -13.8606 19
67 1 -8.69851 -4.51009 -14.4893 13
68 1 -6.16042 -3.73076 -12.1606 18
69 1 -11.887 -3.96942 -13.0763 11
70 1 -6.8727 -1.63555 -10.3526 21
71 1 -9.62451 -2.25027 -8.33456 18
72 1 -7.68077 -4.19999 -8.64025 17
73 1 -10.8448 -4.1997 -6.74732 18
74 1 -6.80465 -1.23088 -6.67533 22
75 1 -9.6247 -1.4979 -5.30874 20
76 1 -7.46272 -4.10211 -5.03493 22
77 1 -10.777 -3.93207 -3.28651 21
78 1 -6.32901 -1.46136 -3.31177 20
79 1 -9.48991 -1.18774 -1.65029 19
80 1 -8.05349 -4.07913 -1.50507 20
81 1 -0.214957 -8.71752 -15.341 11
82 1 -3.99031 -11.918 -7.95651 17
83 1 2.23042 -12.2629 -12.2921 12
84 1 -6.66917 -11.8613 -6.57971 19
85 1 -0.606235 -13.0023 -12.2332 10
86 1 -4.76596 -14.7999 -6.58997 12
87 1 -0.776908 -12.4602 -6.60637 18
88 1 -3.50139 -12.5203 -4.75852 20
89 1 -3.4999 -11.8153 -11.5935 14
90 1 -4.99226 -14.8242 0.2396 16
91 1 -0.815216 -12.5774 -3.0315 23
92 1 -3.91895 -12.7595 -1.43435 21
93 1 -1.94468 -14.6645 -1.45713 17
94 1 -3.14554 -7.68184 -16.3538 9
95 1 -5.93671 -9.68718 -15.6737 5
96 1 0.871333 -10.0514 -13.2336 16
97 1 -1.70315 -13.3491 -9.51517 11
98 1 -0.774937 -6.57226 -13.4155 20
99 1 -3.58785 -6.11613 -12.5476 20
100 1 -2.18017 -9.03419 -12.3087 15
101 1 -4.627 -9.21648 -9.8456 21
102 1 -0.967145 -6.77572 -10.0856 20
103 1 -3.75881 -6.7264 -8.39661 21
104 1 -1.53278 -10.2605 -8.52101 18
105 1 -4.91735 -9.33964 -6.56274 21
106 1 -0.793497 -7.4293 -6.87503 22
107 1 -3.49657 -7.1792 -5.05107 21
108 1 -2.03032 -9.87919 -5.14938 21
109 1 -5.03968 -8.94333 -3.34739 20
110 1 -0.566196 -7.06396 -3.06467 21
111 1 -3.61581 -6.75609 -1.77201 20
112 1 -2.13903 -9.92538 -1.91126 22
113 1 -4.19117 -1.99768 -14.9523 18
114 1 -1.07941 3.61747 -17.0073 18
115 1 -5.04626 0.591585 -16.4386 18
116 1 -2.35816 -4.69902 -15.2474 15
117 1 -5.39701 -5.69826 -14.5842 12
118 1 -1.05994 -1.2772 -13.678 22
119 1 -3.54127 -1.5166 -12.0029 20
120 1 -1.95222 -4.01481 -11.684 18
121 1 -4.82213 -3.76642 -9.62346 20
122 1 -0.874211 -1.24479 -10.2412 20
123 1 -3.75874 -1.6485 -8.14559 20
124 1 -1.74707 -4.47033 -8.57015 21
125 1 -4.71327 -3.79881 -6.63558 23
126 1 -1.52466 -1.91327 -6.88738 21
127 1 -3.73604 -1.00927 -5.10316 19
128 1 -1.72859 -4.56379 -5.08591 20
129 1 -4.7082 -4.09922 -3.30949 23
130 1 -0.783957 -1.16625 -3.28386 20
131 1 -3.6536 -1.30826 -1.84149 21
132 1 -2.04132 -4.26025 -1.41066 21
133 2 -10.4866 -10.8789 -10.5259 11
134 2 -15.3731 -4.07246 -4.88994 21
135 2 -11.1113 -6.92164 -10.0849 14
136 2 -14.0163 -7.28626 -4.71542 19
137 2 -13.3847 -6.83729 -1.17074 20
138 2 -10.7847 -11.5883 -3.53327 13
139 2 -16.804 -10.9548 -3.06457 11
140 2 -12.6168 -9.35517 -3.5149 19
141 2 -11.29 4.08808 -13.5834 8
142 2 -4.19377 -5.6252 -15.8139 11
143 2 -13.5133 -6.12007 -8.63187 10
144 2 -8.77634 -2.84533 -15.1363 13
145 2 -15.8523 -4.26192 -8.3121 13
146 2 -12.7494 -4.86642 -6.47239 19
147 2 -13.5751 -1.33509 -9.50679 13
148 2 -13.3989 -1.82402 -4.75125 21
149 2 -15.2633 -3.41982 -1.94658 17
150 2 -12.5711 -5.03712 -3.19233 19
151 2 -16.9407 -6.64922 -6.4624 13
152 2 -13.5656 -1.28262 -1.70742 20
153 2 -4.01516 -12.6322 -9.70318 13
154 2 -17.8444 -4.33583 -6.34031 11
155 2 -16.3637 -9.72009 -5.43716 11
156 2 -9.42704 -9.91655 -4.85047 20
157 2 -9.29489 -9.36312 -8.9938 18
158 2 -7.83481 -12.6958 -4.92278 17
159 2 -15.2873 -10.6879 -0.699432 16
160 2 -8.61084 -13.1694 -1.42715 14
161 2 -4.36775 -9.00513 -16.0367 8
162 2 -9.53692 -8.55493 -12.0741 15
163 2 -14.605 -12.2759 -3.63135 11
164 2 -6.63803 -8.73322 -10.6557 16
165 2 -9.55951 -12.8847 -9.18571 9
166 2 -12.9402 -4.21652 -11.4467 11
167 2 -2.20797 -12.9601 -11.469 10
168 2 -10.6951 -5.59242 -13.4893 10
169 2 -7.52273 -7.0057 -8.37122 19
170 2 -11.3468 -7.49515 -6.53841 18
171 2 -6.64373 -9.86823 -6.5349 22
172 2 -12.213 -12.3319 -1.32405 14
173 2 -7.5116 -6.94223 -5.13626 20
174 2 -10.4775 -7.53511 -3.20692 22
175 2 -6.65099 -10.042 -3.40126 21
176 2 -9.68667 -10.0248 -1.14146 22
177 2 -7.68031 -7.01512 -1.74121 21
178 2 -4.93674 -2.17136 -13.0608 20
179 2 -7.97231 3.20534 -15.6507 16
180 2 -5.90156 5.04733 -14.7825 19
181 2 -8.07012 -0.0267608 -17.3598 10
182 2 -3.83632 -4.54007 -11.0601 21
183 2 -10.7624 -2.6628 -12.9755 13
184 2 -7.57073 -2.23382 -12.2231 17
185 2 -10.7935 -1.98537 -9.79446 19
186 2 -6.49549 -4.46319 -10.184 19
187 2 -9.60719 -4.50164 -8.17996 17
188 2 -7.61253 -2.05345 -8.23318 22
189 2 -10.9481 -2.24488 -6.66646 22
190 2 -6.62433 -4.45378 -6.89523 21
191 2 -9.88137 -4.9621 -4.83578 22
192 2 -7.66414 -2.0776 -5.14584 19
193 2 -10.5142 -1.79667 -3.35635 21
194 2 -7.05261 -4.42741 -3.21201 20
195 2 -9.89956 -4.60946 -1.71598 17
196 2 -7.47397 -1.93192 -1.53704 21
197 2 -6.54986 -12.7385 -8.32761 15
198 2 -11.0002 -10.58 -6.9509 12
199 2 -3.94992 -14.7566 -4.65314 16
200 2 0.531886 -11.9685 -13.4414 12
201 2 -4.74689 -12.7336 -6.21186 20
202 2 -7.38385 -15.3918 -3.43305 10
203 2 -6.5352 -14.6849 -6.52335 10
204 2 -1.61628 -11.8437 -4.68103 19
205 2 -4.68386 -12.7261 -3.03017 20
206 2 1.96437 -14.5026 -7.9228 13
207 2 -3.78568 -14.915 -1.29829 14
208 2 -2.10008 -12.1878 -1.45663 20
209 2 -6.65015 -9.80206 -13.7822 9
210 2 -4.03146 -10.1107 -11.8106 15
211 2 -5.59364 4.36801 -17.4876 12
212 2 -7.43734 -11.4984 -11.513 15
213 2 -0.69051 -8.43039 -13.2706 16
214 2 -3.84539 -9.79501 -8.11482 21
215 2 -2.00202 -7.04899 -11.8988 19
216 2 -4.98497 -7.21422 -9.70737 20
217 2 -1.16512 -9.57887 -10.4288 20
218 2 -1.93708 -12.0702 -8.05718 17
219 2 -1.8281 -6.44415 -8.42737 22
220 2 -4.70699 -6.96249 -6.67656 21
221 2 -1.12625 -9.40235 -6.69354 19
222 2 -3.71187 -8.94743 -4.86818 18
223 2 -1.74451 -6.77367 -4.84515 19
224 2 -4.80369 -6.65627 -3.14927 18
225 2 -0.792162 -9.31691 -3.12525 21
226 2 -3.9199 -9.35946 -1.67793 20
227 2 -1.81959 -6.41879 -1.80126 22
228 2 -6.43475 0.269173 -13.5464 23
229 2 -3.32689 -0.296227 -16.7124 16
230 2 -2.27623 -2.82581 -15.5509 14
231 2 -2.07598 4.14372 -15.3979 19
232 2 -6.81283 -4.59156 -13.6798 14
233 2 -1.36331 -4.63814 -13.5821 16
234 2 -4.89579 -7.22858 -13.5398 19
235 2 -1.68056 -2.06581 -11.7764 20
236 2 -4.82844 -1.56448 -9.93698 21
237 2 -0.884182 -4.52628 -10.3272 20
238 2 -3.55078 -3.88564 -8.273 20
239 2 -1.50716 -0.853078 -8.49813 20
240 2 -4.89503 -1.45072 -6.54698 21
241 2 -0.962176 -3.78869 -6.71661 22
242 2 -3.73793 -4.54309 -5.29292 23
243 2 -1.80477 -1.14245 -5.21863 22
244 2 -4.50895 -2.00966 -3.58588 22
245 2 -0.869863 -3.99437 -2.95923 20
246 2 -4.04934 -4.74139 -1.46991 18
247 2 -1.65701 -1.2143 -1.75156 21
248 1 -12.709 -12.032 -3.31854 14
249 1 -15.743 -12.3939 -2.02112 10
250 1 -12.5445 -7.33599 0.401292 20
251 1 -15.7474 -7.38989 0.193159 18
252 1 -15.6592 -10.8552 1.11678 12
253 1 -14.3245 -8.9979 2.89195 13
254 1 -15.3013 -5.92864 2.52873 12
255 1 -13.0729 -9.35383 6.3754 8
256 1 -12.4021 -5.89947 11.0255 13
257 1 -15.8144 -4.67149 10.694 5
258 1 -11.0052 -3.93537 16.5103 8
259 1 -18.4656 -5.05467 -4.68414 12
260 1 -12.3996 -1.36896 -0.276531 20
261 1 -13.3709 -4.19932 1.93386 20
262 1 -11.8717 -6.29703 3.22573 18
263 1 -18.2485 -6.03255 0.437151 7
264 1 -12.9895 -1.0345 3.16325 22
265 1 -15.2759 -1.38884 5.34824 16
266 1 -13.228 -3.81982 5.31682 16
267 1 -15.0088 -1.57943 8.25497 13
268 1 -12.5896 -1.19563 6.52842 20
269 1 -9.65299 -1.38685 15.4959 17
270 1 -13.571 -4.24198 8.7723 14
271 1 -12.5042 -1.43805 10.168 21
272 1 -12.3306 0.160922 13.2916 19
273 1 -14.8958 1.74599 14.641 8
274 1 -6.78477 -11.9588 0.623336 19
275 1 -9.55411 -11.7235 2.27029 17
276 1 -7.271 -15.0274 2.14353 11
277 1 -6.70698 -12.2141 3.73494 16
278 1 -10.3646 -11.6644 5.84791 13
279 1 -7.30345 -15.2371 5.1459 9
280 1 -9.34831 -11.8378 8.69797 12
281 1 -9.92292 -8.49868 10.3378 14
282 1 -4.74504 -9.57624 14.2192 11
283 1 -10.5399 -9.01159 0.362615 22
284 1 -6.21897 -6.21043 -0.609894 19
285 1 -9.09788 -6.52609 2.06944 19
286 1 -7.56423 -9.08126 2.11338 23
287 1 -10.3149 -9.37204 3.98367 21
288 1 -6.58335 -6.38914 3.67643 22
289 1 -9.42213 -6.70502 5.6015 18
290 1 -7.48426 -9.33641 5.14679 21
291 1 -12.4552 -11.7634 3.19064 11
292 1 -6.26827 -6.31749 7.49941 19
293 1 -9.35068 -5.7684 8.47641 19
294 1 -7.21087 -9.51745 8.42135 19
295 1 -12.1506 -6.65306 14.8404 6
296 1 -7.1597 -6.28881 11.0818 20
297 1 -9.89493 -9.172 7.55193 18
298 1 -7.26601 -9.03668 12.0347 16
299 1 -6.92527 -6.07525 14.092 15
300 1 -10.7393 -4.97087 0.375208 19
301 1 -6.67457 -1.61301 0.215495 21
302 1 -9.93115 -1.28643 1.67571 22
303 1 -7.62441 -3.838 1.85026 21
304 1 -10.5087 -3.51809 3.67758 22
305 1 -6.61252 -1.38735 3.6992 20
306 1 -9.70495 -0.819902 4.94816 23
307 1 -7.39995 -3.67168 5.52964 22
308 1 -10.6323 -3.99715 6.74916 21
309 1 -6.72601 -1.05983 7.32201 23
310 1 -9.83425 -1.39835 8.52198 21
311 1 -7.42373 -3.99578 9.18471 21
312 1 -12.2386 -0.123938 16.3635 9
313 1 -7.02234 -0.947209 10.2816 24
314 1 -9.52591 -0.829239 12.2878 22
315 1 -10.0986 -3.29026 10.3262 20
316 1 -7.61189 -3.67518 12.6733 21
317 1 -6.50659 -1.35837 13.8219 19
318 1 -4.14765 -2.75817 17.116 12
319 1 -9.96339 -6.28154 12.1367 18
320 1 -7.99463 -14.9765 -1.53071 10
321 1 -0.935531 -12.18 0.14173 21
322 1 -3.95329 -11.4661 1.57394 22
323 1 -2.08473 -14.3472 1.55285 18
324 1 -4.41684 -14.3038 6.35872 16
325 1 -0.793379 -12.1434 3.56706 21
326 1 -3.89077 -11.6255 4.87685 22
327 1 -2.0235 -14.1948 4.85805 18
328 1 -6.2498 -11.8275 9.91528 15
329 1 -1.13164 -11.8398 6.9111 22
330 1 -3.89808 -11.6083 8.67972 22
331 1 -1.62416 -14.2925 8.4818 15
332 1 1.65352 -11.462 8.2181 21
333 1 -3.99451 -14.7416 9.88838 9
334 1 -1.15664 -12.5656 10.7213 16
335 1 -4.95032 -9.37929 -0.150798 19
336 1 -0.956066 -7.25442 0.0814398 23
337 1 -3.81313 -7.19501 1.68754 19
338 1 -1.60398 -9.60701 1.70969 21
339 1 -5.07539 -9.04881 3.12132 21
340 1 -0.720581 -6.83675 3.27559 21
341 1 -3.68727 -6.7803 5.03905 21
342 1 -1.82601 -9.04323 5.21375 21
343 1 -4.26387 -9.27572 6.57881 21
344 1 -1.077 -6.37075 6.76265 19
345 1 -3.54019 -7.41465 8.84939 18
346 1 -1.40492 -9.43141 8.7987 21
347 1 -4.76968 -9.33151 10.7282 18
348 1 -0.889393 -6.99886 10.3918 20
349 1 -4.41809 -6.81501 12.4517 21
350 1 -2.16135 -9.06431 11.9414 21
351 1 -1.72556 -8.74323 15.2237 11
352 1 -0.723278 -6.5188 13.8725 17
353 1 -3.73511 -6.03087 15.8732 11
354 1 -1.41792 -11.2163 13.8494 10
355 1 -4.81239 -3.98102 0.253963 22
356 1 -0.943729 -1.46654 0.132856 22
357 1 -3.81698 -1.27879 1.7579 21
358 1 -1.71304 -4.48154 1.84634 20
359 1 -4.39024 -3.84452 3.82595 19
360 1 -0.920313 -1.60493 3.53405 23
361 1 -3.96738 -1.03399 5.23957 24
362 1 -1.48432 -3.86683 5.49926 21
363 1 -4.70157 -3.79913 6.79151 20
364 1 -0.942254 -1.31491 6.82914 23
365 1 -3.75724 -1.41591 8.57455 20
366 1 -1.6982 -3.89932 8.73376 21
367 1 -5.03198 -3.72219 10.7505 21
368 1 -0.579652 -1.43802 10.3436 20
369 1 -3.70253 -1.70432 12.1244 20
370 1 -1.92449 -3.76752 12.1372 19
371 1 -4.535 -3.81232 14.2572 20
372 1 -1.02619 -1.11899 13.7459 19
373 1 -4.27687 0.691428 16.8296 13
374 1 -1.54264 -0.939177 17.2174 12
375 2 -15.353 -8.88529 1.27831 17
376 2 -17.4671 -7.89396 -0.630352 13
377 2 -16.3767 -1.1639 0.275136 14
378 2 -12.3331 -9.41173 -0.0480943 20
379 2 -15.0932 -4.02355 2.38069 15
380 2 -15.3202 -8.27367 -2.55222 16
381 2 -13.4608 -8.92096 4.60706 11
382 2 -15.3691 -3.28615 9.49612 10
383 2 -13.8392 -10.8051 2.35315 10
384 2 -14.3085 -5.66152 10.3665 8
385 2 -17.991 -5.47653 -1.40778 10
386 2 -12.5308 -4.00639 0.338575 21
387 2 -13.2555 -6.81988 2.08679 18
388 2 -13.5038 -1.1801 1.29205 23
389 2 -13.575 -2.03389 4.98918 20
390 2 -11.6047 -10.1911 7.01367 11
391 2 -16.3303 -1.44559 6.81759 10
392 2 -12.3457 -4.50919 3.65137 17
393 2 -13.1837 0.0577612 11.497 18
394 2 -12.6463 -4.38743 7.01023 16
395 2 -13.1599 -1.43402 8.34068 22
396 2 -11.7408 -4.64497 14.9569 10
397 2 -13.2456 0.560587 14.9066 11
398 2 -14.7579 3.18719 13.5274 9
399 2 -11.2874 -11.8556 1.29743 13
400 2 -6.93743 -15.0913 0.0518088 12
401 2 -6.3148 -15.4931 3.54841 12
402 2 -7.60839 -12.8374 2.16597 18
403 2 -16.6821 -6.00253 1.27052 12
404 2 2.3449 -14.7781 -4.63413 15
405 2 -9.93179 -12.9224 7.25954 9
406 2 -9.14255 -9.70791 9.11061 17
407 2 -7.22709 -11.8325 8.32256 15
408 2 -1.90965 -12.1814 8.72399 19
409 2 -10.2644 -6.74369 0.528199 20
410 2 -7.10512 -9.97678 0.305869 21
411 2 -9.56428 -9.73863 2.11182 21
412 2 -7.65565 -7.31444 2.50448 21
413 2 -10.3363 -7.33501 3.55147 23
414 2 -6.60649 -10.0967 3.62535 24
415 2 -10.7775 -11.1786 4.10231 14
416 2 -7.5459 -7.16579 5.1719 22
417 2 -9.87344 -7.10222 7.39084 18
418 2 -6.03526 -9.69431 6.98734 21
419 2 -6.61455 -9.89194 10.2192 20
420 2 -6.9812 -6.15721 9.12323 18
421 2 -10.7855 -6.79748 10.1234 16
422 2 -6.3334 -7.40598 12.5916 17
423 2 -9.0454 -7.92312 12.0151 13
424 2 -9.28079 -4.59448 12.5488 19
425 2 -11.6179 2.27253 13.8572 14
426 2 -12.0046 -6.18791 12.9679 10
427 2 -9.08131 -3.638 15.9231 14
428 2 -10.639 -0.867693 -0.258631 18
429 2 -6.72083 -4.58537 0.0529771 20
430 2 -9.57614 -4.42726 1.93288 20
431 2 -7.71711 -1.78128 1.7716 22
432 2 -11.1021 -1.47066 3.14175 21
433 2 -6.37945 -3.71991 3.74715 19
434 2 -9.56566 -4.63498 5.38683 21
435 2 -7.85969 -1.81505 5.10997 22
436 2 -10.4054 -1.38543 6.70137 21
437 2 -6.72341 -4.48232 7.1012 20
438 2 -9.65214 -3.6937 8.53234 18
439 2 -7.70953 -1.87991 8.71734 21
440 2 -10.4303 -1.30722 10.5035 20
441 2 -6.53358 -4.69774 11.1649 22
442 2 -12.0891 -3.88215 10.3514 19
443 2 -7.75835 -2.03329 11.9468 21
444 2 -9.81898 0.875154 11.955 19
445 2 -6.04988 -2.52754 17.3792 12
446 2 -6.63845 -3.98115 14.1831 20
447 2 -10.9148 -1.30307 13.7931 20
448 2 -4.89455 -11.6403 -0.130404 17
449 2 -0.977434 -14.326 -0.00152028 17
450 2 -6.43496 -13.2495 5.15184 14
451 2 -1.66855 -11.5728 1.94212 22
452 2 -4.56963 -11.9263 3.13326 22
453 2 -0.896337 -14.2127 3.207 16
454 2 -3.78473 -14.8899 4.71734 14
455 2 -1.77255 -12.2384 5.17721 19
456 2 -4.34872 -12.0016 6.75927 22
457 2 -4.9108 -13.0257 9.52303 15
458 2 -3.56499 -14.838 7.92555 12
459 2 -0.584796 -14.8856 7.27234 11
460 2 -3.89462 -8.78183 12.5239 18
461 2 -2.14387 -14.3129 10.5024 9
462 2 -4.83178 -7.2592 -0.00564697 22
463 2 -0.6225 -9.06403 -0.104723 21
464 2 -3.73281 -9.3915 1.67042 21
465 2 -1.93191 -6.63911 1.70928 20
466 2 -4.81811 -6.90303 3.41885 19
467 2 -0.91112 -9.14215 3.55755 22
468 2 -3.80948 -9.39258 4.77956 21
469 2 -1.33203 -7.18923 5.0849 21
470 2 -4.31423 -7.13659 6.68356 19
471 2 -0.941972 -9.91184 6.78752 23
472 2 -3.42295 -9.54068 9.04207 21
473 2 -1.71797 -7.29398 8.61547 21
474 2 -4.23881 -7.14675 10.5747 19
475 2 -0.694288 -9.62953 10.6469 20
476 2 -6.74673 -10.362 13.4917 9
477 2 -1.39621 -7.39107 12.4912 17
478 2 -3.63915 -4.21817 15.9862 13
479 2 -0.272122 -9.73557 14.1941 13
480 2 -3.07491 -10.4477 14.6565 8
481 2 -4.97524 -6.17232 14.5395 13
482 2 -4.77204 -1.77363 -0.250332 21
483 2 -0.893691 -3.78244 0.331776 20
484 2 -3.8135 -4.27971 1.95507 21
485 2 -1.60142 -1.08006 1.88128 22
486 2 -4.68767 -2.05548 3.53204 23
487 2 -0.78944 -3.66324 3.69022 22
488 2 -3.42213 -4.70688 5.52077 20
489 2 -1.98216 -2.04143 5.20012 21
490 2 -4.97061 -1.77648 7.0618 22
491 2 -0.681727 -4.56024 7.12799 19
492 2 -3.64615 -3.53293 8.71032 19
493 2 -1.7275 -1.79674 8.55831 21
494 2 -5.04664 -1.33675 10.4037 20
495 2 -0.893514 -3.69704 10.5915 17
496 2 -3.71281 -3.58386 12.0188 17
497 2 -1.87293 -1.03822 11.7786 19
498 2 -3.56692 1.87383 15.3537 16
499 2 -1.47361 -3.31119 13.8628 16
500 2 -6.10198 0.917821 16.5833 13
501 2 -4.89045 -1.94706 13.4882 22
502 1 -10.9359 6.17102 -10.1146 16
503 1 -13.0859 3.34136 -9.84446 10
504 1 -17.1565 -3.8934 -1.99474 16
505 1 -12.6138 0.570611 -8.73809 17
506 1 -17.0065 -2.98163 -5.198 17
507 1 -12.7354 3.84366 -6.7532 20
508 1 -16.0275 -0.138923 -5.95398 12
509 1 -13.5357 1.47737 -5.44023 18
510 1 -16.6223 0.601521 -0.0654771 13
511 1 -12.3169 3.19215 -3.14851 20
512 1 -15.8146 3.59199 -1.71904 17
513 1 -13.6908 0.741627 -1.93638 24
514 1 -15.6139 3.70909 -5.19663 16
515 1 -17.7661 5.6163 -2.98661 8
516 1 -12.6877 8.6722 -7.90898 13
517 1 -13.9241 11.166 0.840191 12
518 1 -13.833 6.25762 -4.92689 19
519 1 -15.9545 8.42753 -3.45509 14
520 1 -13.7459 6.06292 -1.962 19
521 1 -17.5889 8.90444 1.6102 7
522 1 -3.83465 9.78307 -18.0235 8
523 1 -8.57537 6.53577 -15.4706 14
524 1 -5.19864 6.55135 -17.0305 15
525 1 -10.6737 2.87987 -11.9086 17
526 1 -7.2972 4.04564 -13.4901 20
527 1 -10.2698 6.01132 -13.3356 13
528 1 -8.32345 0.946935 -13.2038 18
529 1 -10.192 0.236027 -10.287 19
530 1 -6.52126 2.68378 -10.7003 19
531 1 -9.6899 3.686 -8.82093 19
532 1 -7.93259 0.718596 -8.28582 19
533 1 -10.6104 1.11001 -7.08506 20
534 1 -6.78478 3.42772 -6.87939 20
535 1 -9.50496 3.84287 -5.1186 20
536 1 -7.65217 1.10579 -4.8735 21
537 1 -10.0819 1.50804 -3.31813 22
538 1 -6.81732 4.21693 -3.79048 24
539 1 -9.59779 3.86748 -1.65848 19
540 1 -7.37673 1.28538 -1.69503 20
541 1 -9.61287 3.65306 -14.5732 13
542 1 -14.982 5.79257 -8.07736 10
543 1 0.942862 11.6748 -6.70711 20
544 1 -7.50926 8.74748 -13.4385 14
545 1 -4.88407 11.9998 -10.5185 9
546 1 -15.8479 8.07694 -6.52462 8
547 1 -11.5289 9.12969 -11.2888 10
548 1 -9.81842 9.43652 -8.3294 20
549 1 -7.46988 6.69023 -8.83557 17
550 1 -10.7343 6.60595 -6.67361 22
551 1 -6.84334 9.42262 -7.0731 21
552 1 -9.59967 9.1536 -5.42255 21
553 1 -7.74566 6.46961 -5.83845 20
554 1 -10.698 6.42842 -3.14482 22
555 1 -6.78669 8.47997 -3.73278 17
556 1 -17.1905 7.26722 -0.698662 12
557 1 -7.76214 6.62725 -2.02318 22
558 1 -10.6698 12.2675 -9.63061 9
559 1 -12.4477 8.90809 0.697426 17
560 1 -7.07272 12.0453 -5.21796 18
561 1 -10.8116 11.0382 -3.40742 14
562 1 -12.5258 8.67948 -4.44351 19
563 1 -8.52397 14.094 -3.38554 13
564 1 -9.80256 12.4769 -6.28305 11
565 1 -8.02019 12.047 -1.80336 20
566 1 -7.37368 0.405865 -19.0339 7
567 1 1.38943 6.01703 -17.1554 12
568 1 -4.07292 4.11575 -15.7773 19
569 1 -2.13223 1.17444 -15.5664 21
570 1 -4.88629 1.72427 -13.2164 20
571 1 -1.04527 4.35689 -13.7736 20
572 1 -4.02762 3.99192 -11.9743 21
573 1 -1.9419 1.31945 -12.1867 19
574 1 -4.68066 0.464259 -10.288 20
575 1 -0.896084 3.97551 -10.5159 19
576 1 -3.74096 3.54143 -8.58771 20
577 1 -1.67348 1.38664 -8.53688 22
578 1 -4.67432 1.06907 -6.82212 22
579 1 -1.05858 3.58019 -6.80649 20
580 1 -3.77237 3.37289 -5.46185 20
581 1 -1.59791 0.997565 -4.95145 21
582 1 -4.49265 1.43584 -3.37569 22
583 1 -1.21495 3.90626 -3.3484 21
584 1 -3.8316 4.03593 -1.99305 21
585 1 -2.10488 1.11455 -1.37773 22
586 1 -0.548745 8.43014 -18.2339 5
587 1 -6.91989 9.03263 -16.5268 9
588 1 -4.08544 8.70405 -15.4022 14
589 1 -5.31637 6.80584 -13.4001 20
590 1 -0.882801 8.78719 -13.6076 13
591 1 -3.14327 10.2426 -12.8487 9
592 1 -1.8232 7.03065 -11.9888 21
593 1 -4.66121 6.20306 -10.2853 16
594 1 -0.780901 9.34768 -9.90171 20
595 1 -3.6454 9.08679 -8.63508 22
596 1 -1.86385 6.19651 -8.50291 22
597 1 -4.7789 6.63037 -6.97582 22
598 1 -0.894516 9.63043 -6.84088 23
599 1 -4.01356 9.48863 -5.14551 22
600 1 -1.76285 6.87446 -5.27603 20
601 1 -4.69435 6.73276 -3.63057 21
602 1 -1.08548 9.79596 -3.96998 21
603 1 -3.90432 9.27023 -1.76939 22
604 1 -1.7471 6.41516 -1.97735 21
605 1 1.87309 8.58018 -11.5493 18
606 1 -6.96341 8.87603 -10.5956 15
607 1 -7.69793 11.4065 -8.8074 17
608 1 -4.84243 12.2387 -7.20962 16
609 1 -8.74874 11.4005 -11.8678 11
610 1 -2.15474 11.6383 -8.9156 14
611 1 -4.60021 15.5818 -5.1531 9
612 1 -2.08419 13.1026 -5.65831 22
613 1 -4.92486 12.6565 -3.61544 20
614 1 -3.44558 14.9667 -1.74661 14
615 1 -6.65284 14.7278 -0.433097 17
616 1 -1.71599 11.9101 -2.33819 18
617 2 -10.6573 2.90846 -7.08589 23
618 2 -15.8581 4.98729 -6.44818 12
619 2 -11.9159 1.51786 -10.2722 14
620 2 -15.7842 -1.44871 -7.20541 14
621 2 -15.4395 1.63319 -5.14578 16
622 2 -13.78 4.37764 -8.43987 14
623 2 -12.5115 0.412523 -6.71523 19
624 2 -16.1429 -1.06082 -4.23126 15
625 2 -13.0836 3.28043 -5.00589 19
626 2 -18.0736 -3.165 -3.58701 10
627 2 -12.4813 0.841362 -3.48247 22
628 2 -15.6155 1.90644 4.46122 15
629 2 -13.5806 3.825 -1.86364 18
630 2 -16.0186 4.54102 -3.52278 17
631 2 -17.3503 7.39354 -2.67942 10
632 2 -17.6152 4.60634 -1.00562 11
633 2 -15.7007 1.55 -1.5437 20
634 2 -12.5275 5.79794 -6.50178 20
635 2 -12.6037 6.55225 -3.50043 19
636 2 -13.5366 7.0442 -0.282641 17
637 2 -12.2817 10.0278 -3.23117 14
638 2 -14.8334 7.96017 -4.69625 15
639 2 -3.63826 6.61805 -16.0173 16
640 2 -11.0748 7.10632 -11.9144 9
641 2 -10.7305 10.9222 -10.9489 11
642 2 -8.58348 5.65985 -13.7789 16
643 2 -9.5355 0.602922 -14.8724 15
644 2 -9.24375 0.183122 -11.8585 19
645 2 -6.19618 7.19995 -10.1192 17
646 2 -11.3572 3.88948 -10.1526 17
647 2 -6.96113 0.403101 -10.2663 20
648 2 -9.84121 0.657877 -8.73986 19
649 2 -8.02887 2.78712 -9.12065 19
650 2 -9.51818 5.71178 -5.42503 22
651 2 -6.4738 0.899625 -6.58417 19
652 2 -9.59748 0.721038 -5.09288 21
653 2 -7.80662 3.26291 -4.86018 19
654 2 -10.4007 3.52265 -3.27249 19
655 2 -6.48021 0.757969 -3.3649 24
656 2 -9.29425 0.793834 -1.61113 21
657 2 -7.75242 3.32647 -2.09661 21
658 2 -9.06553 3.10361 -12.8839 16
659 2 -8.22816 8.35576 -14.9898 10
660 2 -5.5525 8.59331 -13.9696 16
661 2 -9.62714 11.4451 -8.15216 17
662 2 -11.493 8.53048 -9.17716 14
663 2 -14.1524 7.66936 -7.62654 12
664 2 -10.1922 11.0144 -5.24505 15
665 2 -9.22573 5.6797 -9.15871 16
666 2 -6.48628 5.92889 -7.24469 21
667 2 -10.7465 8.39728 -6.84469 17
668 2 -7.74444 8.48779 -5.57445 21
669 2 -10.4035 8.60199 -3.34127 19
670 2 -6.69322 6.40529 -3.67983 18
671 2 -9.58531 6.044 -1.58891 18
672 2 -7.53602 8.40082 -1.6941 21
673 2 -7.95671 9.21233 -8.79709 19
674 2 -6.49678 10.8106 -10.2495 16
675 2 -9.03045 12.7673 -10.7009 7
676 2 -15.3854 9.67724 -2.08651 14
677 2 -8.56588 13.4172 -5.02859 11
678 2 -6.75406 12.6798 -3.23846 14
679 2 -9.45649 11.1065 -1.73325 19
680 2 -8.64118 14.3883 -1.56033 12
681 2 -7.04034 6.74546 -16.5402 15
682 2 -2.14902 9.35657 -18.5648 6
683 2 -5.80423 -1.33207 -15.8207 14
684 2 -5.64234 3.22144 -12.6595 19
685 2 -4.26932 2.19849 -15.3109 21
686 2 -0.596285 0.791204 -14.2786 21
687 2 -3.59737 0.453667 -12.0012 21
688 2 -1.68118 3.19355 -12.0167 19
689 2 -4.50702 4.07963 -10.1141 19
690 2 -0.514689 0.612854 -11.007 19
691 2 -3.93281 1.21108 -8.72588 19
692 2 -1.78598 3.84512 -8.63838 19
693 2 -4.95575 3.24909 -7.10914 19
694 2 -0.740303 1.32012 -6.66533 21
695 2 -3.48052 1.31842 -5.05385 21
696 2 -1.93431 3.3303 -5.19282 24
697 2 -4.82189 3.61247 -3.88643 21
698 2 -1.04412 1.19195 -3.02042 20
699 2 -3.88944 0.674959 -1.47558 23
700 2 -1.94097 4.07872 -1.56741 21
701 2 2.47302 6.69456 -15.3375 15
702 2 -5.20897 9.01327 -17.139 10
703 2 3.68255 3.73859 -18.5203 12
704 2 -2.58404 9.25024 -14.4944 14
705 2 -0.916474 6.6263 -13.7481 17
706 2 -4.01045 6.21646 -12.1801 16
707 2 0.975593 8.43431 -13.8665 16
708 2 -3.59921 11.5578 -11.7086 9
709 2 -1.4324 6.20663 -10.2742 23
710 2 -3.64408 6.86694 -8.48836 18
711 2 -1.84384 9.67174 -8.49651 18
712 2 -4.75104 9.01567 -6.91463 20
713 2 -0.937409 6.70178 -6.92363 22
714 2 -3.88034 6.14023 -5.33934 22
715 2 -2.19232 9.10231 -5.3613 19
716 2 -4.7323 8.79021 -3.41746 20
717 2 -0.634361 6.5566 -3.60128 22
718 2 -4.03012 5.88071 -1.79063 21
719 2 -1.86408 9.8641 -2.00007 22
720 2 -1.78455 9.11519 -11.5256 16
721 2 -8.08194 9.76707 -11.9294 12
722 2 6.31126 10.785 -12.2303 12
723 2 -7.18571 11.4438 -6.86565 17
724 2 -0.408762 11.815 -9.94421 14
725 2 -0.959526 11.7197 -4.03728 17
726 2 -0.615565 12.9733 -7.0461 17
727 2 -4.93771 11.7246 -5.35291 16
728 2 -3.37033 17.1366 -5.04195 7
729 2 -4.58327 14.4917 -3.53985 15
730 2 -3.286 14.4542 -6.02906 11
731 2 -3.67827 11.97 -2.17043 19
732 2 -4.86378 14.4779 -0.175121 16
733 1 -16.0997 -2.23984 1.94034 15
734 1 -12.6166 3.31004 0.0789519 23
735 1 -15.6643 3.21927 1.82915 20
736 1 -13.7048 0.772391 1.33542 26
737 1 -16.2627 0.697113 3.15848 15
738 1 -12.5192 4.15504 3.03199 20
739 1 -17.001 5.48787 3.6235 11
740 1 -13.6032 1.97325 4.77954 21
741 1 -14.4551 0.881867 10.295 16
742 1 -11.9735 3.87263 6.39919 20
743 1 -17.037 0.123609 7.99555 10
744 1 -13.597 1.6331 8.0497 20
745 1 -12.6283 3.69484 9.73587 17
746 1 -16.4007 3.46715 8.08812 13
747 1 -17.8986 5.1601 0.744404 11
748 1 -16.4498 10.7008 -0.918345 10
749 1 -13.8748 6.05889 1.45887 16
750 1 -14.0388 5.78478 4.83499 19
751 1 -14.774 10.0695 3.40836 10
752 1 -12.0128 14.2933 5.3153 6
753 1 -12.4953 9.07584 3.87941 18
754 1 -17.0202 2.90162 5.27753 11
755 1 -13.7869 11.428 6.74373 9
756 1 -14.4098 8.91361 6.4213 14
757 1 -10.6206 1.05016 -0.109848 21
758 1 -6.59515 3.93497 0.0573757 20
759 1 -9.75312 4.04686 1.6538 21
760 1 -7.75945 1.60038 2.0737 23
761 1 -11.0257 1.35214 3.14065 22
762 1 -6.58212 4.01745 3.38055 22
763 1 -9.51752 3.67244 4.622 23
764 1 -7.61674 1.23739 4.95658 21
765 1 -10.6145 1.17591 7.22878 21
766 1 -6.50494 4.18796 6.82605 22
767 1 -9.5635 4.53728 7.87583 23
768 1 -7.62455 1.53595 8.40273 20
769 1 -10.4861 1.23708 10.1293 20
770 1 -6.58277 4.3482 10.0933 23
771 1 -9.71065 4.52585 11.1847 20
772 1 -8.00799 1.60308 11.731 22
773 1 -12.7942 3.59057 13.4036 10
774 1 -7.25101 4.19443 13.5827 16
775 1 -12.5484 8.80323 9.36738 12
776 1 -10.0934 1.64343 14.5235 16
777 1 -10.6032 6.14065 0.0119416 18
778 1 -6.872 9.613 -0.105769 21
779 1 -9.52968 9.11089 1.64318 24
780 1 -7.40619 6.56074 2.09384 21
781 1 -10.8943 6.60297 3.06796 22
782 1 -6.73995 9.43455 3.27485 20
783 1 -9.41705 9.5289 4.51639 19
784 1 -8.15841 6.73937 5.5459 23
785 1 -11.3648 6.38758 6.16797 22
786 1 -7.00256 9.39946 6.71097 21
787 1 -9.94992 8.9351 7.68295 19
788 1 -7.75402 7.01767 8.2061 23
789 1 -2.02586 6.65604 15.8241 13
790 1 -10.856 11.6086 6.07739 16
791 1 -10.5614 6.61472 9.65784 16
792 1 -6.63701 9.32177 13.4372 12
793 1 -17.1345 6.36314 6.52891 9
794 1 -8.62471 12.3714 8.46386 12
795 1 -7.75644 6.93938 11.6736 18
796 1 -9.64949 9.23781 -1.62614 21
797 1 -9.26198 15.0201 0.18986 9
798 1 -10.5271 11.187 -0.0973737 18
799 1 -7.64185 12.1404 1.17577 25
800 1 -13.4024 9.95368 -1.86146 19
801 1 -10.5685 12.7056 2.67807 18
802 1 -7.01721 14.8114 6.58693 8
803 1 -13.8322 6.01549 7.94282 17
804 1 -7.08901 14.9778 2.97789 15
805 1 -8.13531 12.5398 4.70613 19
806 1 -4.75316 1.19291 0.103784 21
807 1 -1.07464 3.9104 0.11191 19
808 1 -3.79584 4.39574 1.48519 23
809 1 -1.85206 0.945464 1.52472 22
810 1 -4.63501 1.50362 3.46695 22
811 1 -0.700846 3.82208 3.44408 23
812 1 -3.86919 4.22028 5.28599 23
813 1 -1.79224 1.35514 5.03794 22
814 1 -4.66103 1.5487 6.84345 23
815 1 -0.855168 4.36479 6.83647 22
816 1 -3.44631 4.69755 8.41416 24
817 1 -1.74675 1.40387 8.64448 20
818 1 -5.06469 1.06711 9.95154 20
819 1 -0.820926 3.73679 10.3043 21
820 1 -4.06159 3.68064 12.1398 19
821 1 -1.93307 1.05529 12.0437 18
822 1 1.97672 4.30519 15.3057 23
823 1 -0.992138 4.80281 13.9476 21
824 1 -6.81537 -0.760767 17.3481 13
825 1 -1.8661 8.57943 13.6798 20
826 1 -5.17225 6.61984 -0.369274 23
827 1 -1.18311 9.35008 -0.330275 19
828 1 -3.83916 8.4188 1.40109 20
829 1 -1.75485 6.30097 1.64459 21
830 1 -5.09196 6.52354 3.4669 22
831 1 -1.20403 9.01828 3.24036 21
832 1 -4.06355 9.25368 4.68942 20
833 1 -1.84809 6.66852 5.01441 20
834 1 -4.99731 7.16554 6.98464 25
835 1 -1.43842 9.53104 6.42956 20
836 1 -4.4346 9.65865 8.43341 18
837 1 -1.98375 7.25652 8.46454 21
838 1 -4.97079 6.95106 9.91155 22
839 1 -1.58069 9.67821 10.3581 19
840 1 -4.19117 9.09346 11.7308 20
841 1 -2.22504 6.56303 11.5977 19
842 1 -10.4311 8.34628 11.5668 9
843 1 -1.98732 11.058 13.7647 13
844 1 1.08701 6.97554 16.6234 17
845 1 3.238 8.91579 17.0099 12
846 1 -4.82516 12.1386 -0.578104 21
847 1 -0.719611 14.3813 -0.0785468 16
848 1 -3.85665 14.2125 1.55597 17
849 1 -2.06908 11.5777 1.45516 21
850 1 -5.01194 12.1531 2.64837 23
851 1 -0.760404 14.7183 3.28648 13
852 1 -3.9069 14.6039 4.52142 13
853 1 -2.12475 12.1808 4.87621 20
854 1 -5.31181 12.2329 6.5275 20
855 1 -2.34095 11.6625 8.43974 16
856 1 -5.35615 12.4935 9.7166 14
857 1 -2.79022 13.0476 11.1668 12