ITEM: TIMESTEP
1000
ITEM: NUMBER OF ATOMS
2000
ITEM: BOX BOUNDS pp pp pp
-30.0 30.0
-30.0 30.0
-30.0 30.0
ITEM: ATOMS id type x y z Coordination
1 1 -10.1779 5.09541 -15.2636 12
2 1 -3.77425 -9.45255 -9.2633 19
3 1 3.02557 12.0669 12.5952 17
4 1 7.64209 -11.6312 6.75988 12
5 1 -11.0115 8.75571 -1.8655 20
6 1 10.9749 -12.0178 -11.1666 9
7 1 -12.7269 3.74624 -7.42137 19
8 1 -0.267393 -7.10067 9.95691 11
9 1 -9.36321 0.369398 -10.6996 16
10 1 -13.7358 -9.97802 6.38504 15
11 1 13.6676 2.32214 -10.0069 15
12 1 -4.32981 -13.8804 1.6616 15
13 1 -13.2997 -8.31765 4.04632 12
14 1 0.73344 4.38834 16.7914 14
15 1 -0.190854 5.29387 8.17666 19
16 1 -2.00167 10.9739 -9.95581 16
17 1 1.48336 -0.647883 13.2003 16
18 1 -8.57103 -0.0613054 -16.3933 11
19 1 -13.3762 -3.8128 12.6524 14
20 1 14.1855 5.45013 8.35641 18
21 1 1.31877 10.4661 -11.3883 20
22 1 3.79844 5.18503 -13.731 23
23 1 14.6878 2.15466 12.8647 12
24 1 -13.8689 3.52177 -10.1065 16
25 1 -11.1952 10.2016 9.88998 11
26 1 6.92845 -14.8374 4.99489 12
27 1 2.36251 -13.3163 -10.6705 14
28 1 10.066 -12.9866 -0.155555 14
29 1 -7.62674 -13.8807 -5.48127 13
30 1 -12.8594 -6.5591 10.8387 15
31 1 1.8727 -7.45111 -13.2664 24
32 1 9.41345 -10.1541 -13.1182 12
33 1 -2.89859 5.01265 -17.0322 11
34 1 -0.165953 3.53533 12.6783 17
35 1 -1.44938 -12.048 6.92984 18
36 1 5.50369 -5.48769 12.031 12
37 1 -13.5168 -0.445686 1.67118 18
38 1 -16.4752 -2.1335 8.0466 16
39 1 -3.90539 13.5578 -4.11341 15
40 1 -0.782691 -14.8662 -11.503 12
41 1 1.48868 3.30008 -8.77028 21
42 1 5.13387 -5.49579 -10.6298 18
43 1 -2.53422 -3.54886 14.8078 15
44 1 -12.2458 5.92449 -1.07028 18
45 1 4.13684 11.0411 -12.3373 16
46 1 1.78508 13.41 8.0699 19
47 1 -9.24353 8.38717 -8.0098 16
48 1 -1.38131 13.4642 -1.10359 23
49 1 3.35858 -13.7259 2.28121 20
50 1 6.47016 -8.05357 -5.8104 19
51 1 5.16601 -7.12517 -17.6663 10
52 1 -9.16718 7.33832 11.0223 20
53 1 -12.2237 -4.40517 -9.3174 16
54 1 -7.58441 7.3323 -6.11376 19
55 1 -8.21974 -10.6197 7.00419 18
56 1 -2.62775 14.3775 12.1791 11
57 1 -12.2803 6.94833 -7.28447 16
58 1 -6.71317 9.85294 12.2156 16
59 1 -7.51802 -15.1844 7.61217 15
60 1 2.94226 5.99521 7.69388 19
61 1 5.60375 -16.8945 -3.61887 10
62 1 4.9317 11.0781 15.3269 16
63 1 -14.9705 1.04909 -11.6293 12
64 1 -13.3083 6.91213 -10.5497 8
65 1 4.85865 6.63356 12.4895 22
66 1 13.1182 -3.0214 -10.8217 11
67 1 8.7952 -11.6365 2.03086 18
68 1 -17.6836 -2.64347 5.07342 12
69 1 6.77988 16.4364 6.15408 12
70 1 5.02374 -2.96263 13.0404 15
71 1 -6.98539 -12.8646 5.59407 18
72 1 -11.5121 -1.8946 -0.257813 18
73 1 12.2897 2.80682 6.53541 18
74 1 -1.85773 11.9856 9.45627 22
75 1 -2.06845 -3.95878 -8.17168 21
76 1 -13.6465 8.45686 8.98732 10
77 1 -9.0406 11.0268 -2.60438 20
78 1 -3.17907 6.57012 -9.98245 18
79 1 9.11181 13.2883 -9.97884 11
80 1 8.07872 -8.78969 2.21219 17
81 1 4.28562 -11.1483 8.82322 16
82 1 -5.67703 15.6474 -4.70871 12
83 1 -9.66094 11.6981 4.31543 18
84 1 -8.48226 -4.49172 15.3693 15
85 1 -3.95466 8.12488 4.84607 22
86 1 -5.78442 -4.77882 9.9459 15
87 1 12.9143 -8.85011 -6.82605 12
88 1 -10.6642 4.55579 5.08017 15
89 1 -11.8768 -14.4955 3.1354 10
90 1 9.47369 -7.22619 -6.74566 18
91 1 5.46492 0.159294 -12.9082 18
92 1 -5.22007 -0.126003 -15.6835 12
93 1 -0.761923 12.8249 2.48019 19
94 1 -8.1327 6.56247 -9.6966 20
95 1 1.60684 10.0564 18.4072 9
96 1 -0.686255 14.91 -7.23709 21
97 1 -14.0096 11.442 0.916857 10
98 1 0.529834 10.3976 -0.261597 20
99 1 -6.1237 -8.22505 9.0114 19
100 1 14.0227 -0.127835 9.70456 14
101 1 -0.196472 -5.89334 -8.62495 16
102 1 4.93407 -7.96083 -9.08798 18
103 1 -2.74634 4.52131 9.5807 18
104 1 6.52345 -0.76721 15.4092 20
105 1 -11.5599 -8.0158 -2.18661 20
106 1 -8.79187 -8.13091 -2.344 17
107 1 10.9306 -10.1915 1.91137 15
108 1 -4.80198 9.03711 1.79606 17
109 1 7.42944 2.59786 -15.4713 15
110 1 5.99117 19.0688 -1.49081 7
111 1 -8.65633 -13.7237 11.9467 13
112 1 -11.3707 -14.3046 9.91678 13
113 1 4.58592 -9.23864 -15.5978 14
114 1 1.54337 7.2269 -6.84349 14
115 1 12.8266 -11.0654 -0.349419 7
116 1 -1.81253 -16.2672 4.86068 16
117 1 -9.47812 -10.2445 0.109099 18
118 1 16.9537 7.41081 9.83768 13
119 1 14.1967 -3.51648 -8.0496 15
120 1 -15.2639 -5.42549 4.03921 15
121 1 11.1761 9.51052 6.71414 16
122 1 15.5451 9.94309 3.81678 11
123 1 -6.7919 3.25778 16.7249 11
124 1 -4.59953 10.4132 10.1651 21
125 1 -5.58277 12.9985 -6.30967 18
126 1 -0.683604 -6.71148 -11.3349 20
127 1 7.89558 -12.5702 -11.7025 12
128 1 0.833031 15.3227 -12.6743 10
129 1 8.0092 -2.84809 12.8166 17
130 1 0.840102 -2.23838 -18.7059 10
131 1 -2.45272 9.13886 -7.30424 18
132 1 12.4179 -0.63111 -4.53852 17
133 1 -10.3228 9.19685 -5.29263 18
134 1 -8.27686 14.0534 -0.588548 15
135 1 7.11177 2.49367 -10.8348 25
136 1 9.56496 -9.55034 5.10217 12
137 1 -5.34255 4.32908 -5.80929 19
138 1 -8.03202 13.4474 9.09717 9
139 1 13.9316 9.25169 -8.85012 8
140 1 4.77213 10.5007 -2.98563 16
141 1 -3.74853 17.6444 1.28938 9
142 1 10.4131 10.0339 -1.21759 19
143 1 -2.99473 11.0762 -4.77048 18
144 1 1.54268 16.2332 -9.30041 14
145 1 3.05238 8.56879 -12.8774 18
146 1 -11.6183 -10.0687 3.04375 14
147 1 -15.2693 9.82763 -2.02568 11
148 1 -3.68749 -2.3899 -12.4128 18
149 1 0.669834 -10.1152 -15.2207 15
150 1 10.0587 13.0362 8.4751 12
151 1 -0.254715 15.2451 5.92372 14
152 1 -12.1974 -2.72407 -4.99669 15
153 1 -12.4144 12.7299 3.91919 8
154 1 15.7851 -0.609031 -3.45359 13
155 1 -10.8583 2.24663 -15.9026 10
156 1 6.42385 2.00497 17.3435 17
157 1 3.99122 17.9252 2.72177 8
158 1 -2.65869 8.64323 8.51139 21
159 1 2.09011 -8.61926 -17.1718 10
160 1 -4.80575 13.9461 9.4334 14
161 1 -2.25728 12.275 -7.26077 19
162 1 2.27661 -3.62184 13.7196 15
163 1 -10.9975 -4.61231 3.27451 16
164 1 -2.84632 -12.7946 -13.706 12
165 1 -9.54817 12.3199 -9.78843 10
166 1 -3.78927 -11.9067 5.20228 19
167 1 2.92424 -16.1586 -5.86853 15
168 1 -4.12026 12.5311 -13.2645 10
169 1 -16.3918 0.848039 9.26887 12
170 1 10.7117 9.59034 -5.30413 19
171 1 -8.17785 5.54317 15.8044 12
172 1 -0.486198 -10.6023 9.58865 15
173 1 -8.52383 2.75345 -3.18641 16
174 1 2.08382 15.9217 3.52856 14
175 1 0.457421 8.09832 8.82311 22
176 1 13.0758 4.92959 14.1112 15
177 1 -6.95113 14.0871 3.66466 19
178 1 13.0363 -6.38025 -9.17902 11
179 1 -5.69869 13.2321 11.8131 11
180 1 -5.09415 2.27049 -8.70001 18
181 1 12.3319 -6.94859 2.68851 13
182 1 -4.81811 -6.79084 4.66768 17
183 1 -16.3081 0.734633 5.96369 15
184 1 -7.71558 -10.829 3.24862 19
185 1 5.97996 7.64968 15.5281 19
186 1 -15.5434 0.185435 -3.1105 11
187 1 -3.1907 -15.6198 -0.960307 20
188 1 5.85875 -5.60051 -3.16232 18
189 1 -2.79533 11.2034 4.16818 22
190 1 5.49226 14.7615 11.7261 9
191 1 -7.70398 0.823125 -5.52998 16
192 1 -7.05 12.7409 -9.38482 12
193 1 -14.0034 -4.98074 -6.3616 13
194 1 -10.5046 -2.85921 12.6683 23
195 1 1.24211 -11.6073 3.41652 18
196 1 2.94359 -14.4833 6.4832 12
197 1 -12.2448 10.1092 3.55092 14
198 1 14.962 3.9097 5.09233 18
199 1 7.7747 4.35585 -7.72436 20
200 1 -6.15 -7.08659 -14.445 13
201 1 4.46886 -0.00547631 12.2647 22
202 1 5.50908 -16.9846 1.70093 16
203 1 -2.78758 7.67403 -13.2037 18
204 1 2.63142 -10.5409 -13.5372 16
205 1 8.39187 0.236933 -13.4805 20
206 1 3.0528 6.93625 -15.9877 16
207 1 -6.03107 -4.28175 -7.92085 18
208 1 -3.61193 16.6822 -7.8328 11
209 1 -11.248 -11.2226 11.2712 13
210 1 6.86245 15.8293 -2.60079 17
211 1 -9.14268 2.22202 15.0216 18
212 1 -7.87894 13.3429 -4.04049 16
213 1 6.78873 1.74342 9.09521 16
214 1 -4.55166 -4.95104 -13.1341 15
215 1 -4.87702 10.9891 -8.62086 15
216 1 2.04623 6.44499 -10.5309 22
217 1 -9.1523 -12.4077 8.31738 21
218 1 -9.14045 4.68444 9.33935 18
219 1 -6.45186 7.55493 9.32481 20
220 1 -0.0238958 -11.8585 -7.59218 18
221 1 -6.48155 -15.7125 0.48233 18
222 1 9.4621 -11.4603 -3.38761 16
223 1 12.1999 7.70732 15.1584 15
224 1 6.98263 10.9342 -8.77228 21
225 1 -1.12348 10.8143 -2.59531 18
226 1 -11.1259 0.977283 3.75741 13
227 1 -12.8199 12.2507 -2.50532 15
228 1 1.84794 5.72836 10.6085 15
229 1 4.41669 -19.4684 -0.556316 10
230 1 12.3405 1.75091 -2.79837 13
231 1 2.06631 8.60705 5.53415 20
232 1 -10.9435 7.35071 7.12366 17
233 1 -12.1052 -6.49583 -4.21645 20
234 1 6.83872 4.66192 -13.0097 19
235 1 2.11563 -1.97052 10.4774 15
236 1 9.26244 10.4078 -10.9703 14
237 1 1.88344 -12.4381 -2.78326 21
238 1 -2.8892 -0.249498 -9.97049 19
239 1 0.63561 -18.738 3.79372 13
240 1 8.4272 -1.21435 -5.84974 20
241 1 -10.4559 -4.5882 5.79598 15
242 1 2.97541 -15.6754 -2.61071 18
243 1 -9.00999 -4.75528 -9.15921 20
244 1 4.27637 14.243 -2.7575 23
245 1 1.93856 -3.07923 -15.0457 18
246 1 5.70929 5.06045 15.5452 19
247 1 15.5303 3.29164 1.4926 12
248 1 10.2553 -5.54087 -11.1631 17
249 1 -7.24917 -2.58308 -10.561 19
250 1 -12.0702 0.831506 -9.25425 21
251 1 -8.81074 -16.5655 10.6967 10
252 1 9.52298 0.843571 9.93647 14
253 1 3.25737 -6.3755 13.2332 8
254 1 -5.60747 -8.50405 -12.0055 21
255 1 0.129196 6.95843 -13.7361 19
256 1 3.91427 8.82588 2.36194 18
257 1 -6.4988 -8.43502 1.91869 17
258 1 1.94976 11.9872 2.29087 18
259 1 -7.6942 -3.84905 11.9875 18
260 1 -10.2902 -8.93075 -8.8707 10
261 1 -4.02673 -5.85766 -10.5032 23
262 1 -2.00461 7.78068 -15.8489 12
263 1 -5.21407 -9.58142 -6.7676 19
264 1 -4.4353 -11.152 2.15329 20
265 1 9.34051 -4.49545 -15.8554 10
266 1 13.5115 -0.534899 -8.55645 15
267 1 11.6894 4.34657 3.82439 23
268 1 -9.12569 -6.30385 10.1976 18
269 1 -3.23575 -10.0161 -0.969061 17
270 1 7.97203 4.81096 17.5353 17
271 1 -7.23924 -16.5422 4.80563 15
272 1 -0.977612 -11.9547 0.858766 17
273 1 -2.3881 16.6771 -1.81676 14
274 1 6.05863 -0.0344409 -15.6134 22
275 1 -6.36911 -3.59428 -15.4573 13
276 1 -10.6554 -8.55305 12.011 16
277 1 3.83871 7.8057 19.8198 9
278 1 1.09788 -13.1268 -0.00549273 19
279 1 -5.22643 -11.5446 -11.7767 16
280 1 -10.4893 4.66693 -9.39266 18
281 1 10.3061 5.85612 6.00051 18
282 1 -5.35955 4.50282 -9.83964 19
283 1 -0.41093 7.95018 -10.9047 17
284 1 6.88966 -13.25 -8.64873 16
285 1 -5.00281 15.1381 -1.08324 13
286 1 2.82498 11.8853 5.36101 20
287 1 10.2151 1.31295 4.24917 17
288 1 -9.60388 -0.0849786 6.46428 15
289 1 -3.20394 -5.91426 12.3038 15
290 1 -5.99084 11.3896 3.82611 25
291 1 2.64334 -4.9499 -12.2787 17
292 1 15.1801 11.0061 -2.80751 8
293 1 2.5892 -10.8229 0.456208 21
294 1 -2.79346 -0.684383 15.9739 11
295 1 -16.4286 -5.12757 6.46418 13
296 1 0.152921 -17.3423 -4.16011 16
297 1 -8.90841 8.27153 13.8005 12
298 1 -11.1363 5.22685 13.683 18
299 1 -15.2798 -4.51248 9.57379 14
300 1 -14.7376 -7.34074 7.98515 11
301 1 14.6931 -3.01708 -1.08808 13
302 1 -11.5631 -8.75842 8.78918 19
303 1 7.94571 -2.59517 -10.0689 15
304 1 10.3146 -12.6265 -5.72574 11
305 1 3.4238 17.4372 -3.22474 16
306 1 -10.2064 14.7588 -3.47924 10
307 1 10.6888 7.70002 12.4209 21
308 1 -11.5929 -1.75632 4.22058 18
309 1 6.34964 -10.3502 -3.12412 19
310 1 -4.17292 11.8764 1.47901 19
311 1 -7.50203 6.43068 6.24897 16
312 1 5.25348 -13.1572 6.8827 12
313 1 11.9351 -4.36956 5.17565 14
314 1 -2.46017 6.39781 6.90454 21
315 1 -7.67325 -4.4046 -5.58582 14
316 1 -1.58665 3.22079 15.0052 14
317 1 -3.30054 13.8451 4.60673 21
318 1 9.11406 7.49854 15.8127 19
319 1 -8.34725 14.4077 -6.8483 13
320 1 1.92331 -5.15192 -17.3972 15
321 1 6.07059 -10.1068 -12.7097 14
322 1 -11.2316 2.66188 13.0083 20
323 1 -15.8004 3.11048 2.83391 11
324 1 -7.00498 10.4965 -0.391002 19
325 1 7.90515 -2.54415 7.05247 11
326 1 -10.3637 -12.2844 1.6332 14
327 1 6.84897 -9.27122 7.9927 14
328 1 -8.10021 -10.8756 13.1261 12
329 1 -14.0351 8.2478 -0.198147 14
330 1 -0.0107189 -3.73281 9.70428 13
331 1 2.52956 -12.5578 -5.79853 20
332 1 -4.21119 -2.82659 -9.75331 18
333 1 7.44274 -2.15592 -15.3807 19
334 1 4.67651 13.991 2.96677 16
335 1 -9.31765 -1.92446 -4.46805 13
336 1 4.07505 -8.24657 -12.0495 21
337 1 9.46171 3.76388 -13.4491 14
338 1 -4.90296 -15.4159 -7.59152 15
339 1 -14.5838 -8.44321 -5.24572 11
340 1 -2.32479 -8.58273 -3.64989 18
341 1 11.2106 4.82565 17.283 12
342 1 12.475 4.53972 -3.04045 17
343 1 -7.65984 3.96563 -11.515 18
344 1 4.57639 16.7679 -0.218961 18
345 1 -14.805 -0.910749 -6.15916 10
346 1 -7.70081 9.1991 4.77222 16
347 1 -8.8425 11.7942 1.77449 18
348 1 -5.87016 4.50674 7.89934 16
349 1 10.2484 4.91121 14.7494 19
350 1 11.1084 -4.14826 -5.52597 21
351 1 8.88562 -3.79783 15.6273 8
352 1 12.4743 1.29852 -6.37996 18
353 1 -5.39763 -16.5812 -4.53793 13
354 1 0.193407 -9.58375 -4.42692 20
355 1 0.439371 10.1722 3.48353 21
356 1 -10.1035 1.92935 -6.59775 20
357 1 3.12503 -8.94141 -1.83396 19
358 1 11.4981 0.279641 7.45662 18
359 1 -10.9831 -4.47883 -6.5896 17
360 1 -6.93443 -12.0421 0.818614 19
361 1 -8.5923 -7.62805 14.372 11
362 1 -3.4476 10.4479 -1.29612 15
363 1 -12.2844 -11.4689 -2.8684 10
364 1 7.52607 10.6306 16.558 13
365 1 -9.81713 6.26014 -3.61213 18
366 1 0.402916 13.2813 -9.40575 23
367 1 6.67754 12.8711 6.20768 14
368 1 -14.8019 -9.1939 -1.70624 12
369 1 -2.14898 -7.06496 -6.47463 20
370 1 -13.0382 0.0913523 6.58035 20
371 1 -12.2882 6.98768 -4.46299 18
372 1 5.74456 -9.15755 5.18243 14
373 1 -4.00423 -13.2295 -3.60882 18
374 1 12.7359 11.6573 8.98931 14
375 1 6.49791 7.38303 -14.7528 13
376 1 -12.6369 4.19093 -12.5231 11
377 1 -1.36584 16.0992 -10.2647 16
378 1 -9.90407 5.05444 -6.67846 19
379 1 -1.79781 -13.0988 3.44154 16
380 1 13.0588 6.0903 5.66332 19
381 1 0.878733 9.55747 -15.4516 13
382 1 -4.19245 1.46221 9.87743 21
383 1 -16.3765 0.958152 -0.0729731 11
384 1 -8.25253 3.10415 7.34959 14
385 1 -4.99002 -14.4771 4.56461 18
386 1 7.2785 -9.61156 -9.65491 22
387 1 -13.6666 2.7035 5.00755 16
388 1 -14.5174 -1.70168 10.7832 15
389 1 -15.4221 8.44763 5.76238 6
390 1 -8.42723 3.31507 -17.3874 9
391 1 7.9887 -10.5411 -6.32445 19
392 1 -0.0763989 -9.47566 -12.6365 22
393 1 -4.08137 -3.39563 11.6411 18
394 1 -4.87508 3.52832 -15.9185 19
395 1 6.81218 -14.1598 1.46232 18
396 1 0.628895 12.1603 -6.57825 16
397 1 -12.9813 10.2582 6.73397 12
398 1 -5.78752 -2.51854 15.2806 15
399 1 -10.4486 -6.72045 -11.3645 12
400 1 -8.75759 -7.05172 7.48796 18
401 1 11.2961 -5.70847 9.68358 13
402 1 3.13141 0.147879 -8.74568 23
403 1 11.0576 -7.46408 7.20882 11
404 1 13.9012 8.25696 -4.48267 15
405 1 -3.46947 2.92887 12.3612 19
406 1 1.93313 12.4947 -2.52207 20
407 1 5.94671 -6.38125 8.69085 14
408 1 -2.80712 -14.9169 -5.29694 20
409 1 -4.7005 6.15089 17.3287 11
410 1 -2.90811 16.27 7.21324 10
411 1 -8.28377 -9.97231 -6.38105 20
412 1 10.5678 15.6583 1.24413 12
413 1 5.67004 7.29309 7.98288 16
414 1 -8.93493 1.29599 10.2904 19
415 1 -5.98186 -8.11589 -4.10153 21
416 1 -12.9502 4.50969 10.7388 17
417 1 -8.72812 -6.86037 -5.16995 18
418 1 -5.58832 9.69311 7.25571 18
419 1 -4.97067 -12.4526 -6.27207 19
420 1 -2.70504 -7.91284 -13.7902 20
421 1 -8.38526 -14.2418 3.00501 18
422 1 8.99402 2.21495 6.64263 16
423 1 -5.74547 -5.59589 13.8274 17
424 1 -9.71945 6.19012 -12.7384 14
425 1 7.61757 5.17535 -2.42664 21
426 1 -7.2484 -15.4055 -2.46148 12
427 1 0.102015 15.5435 0.714721 13
428 1 -0.9063 6.79861 -7.93442 18
429 1 -1.41728 9.5062 10.8003 20
430 1 -13.0482 -1.51402 -2.50881 14
431 1 0.204101 18.258 -4.01067 13
432 1 5.2093 12.9726 -5.72956 19
433 1 -6.95155 -7.40075 -8.49833 21
434 1 3.34669 1.56497 17.6104 10
435 1 1.24332 -15.7556 -8.93333 12
436 1 0.288132 -1.32886 -11.517 17
437 1 9.14269 -15.2094 2.06622 9
438 1 -10.595 8.19138 1.1195 20
439 1 2.80489 6.44324 14.988 13
440 1 8.78004 8.83286 -2.94362 19
441 1 3.5559 10.9974 0.101519 20
442 1 -8.74977 9.67343 -11.2446 12
443 1 5.16135 2.59519 -8.41099 19
444 1 -15.9707 -5.05632 -0.221602 9
445 1 2.74189 17.4202 6.00879 10
446 1 -4.67603 4.25645 -13.2181 18
447 1 11.4659 6.60622 -0.594608 20
448 1 6.23708 14.9811 -8.60045 13
449 1 8.06584 -6.31427 -0.604295 21
450 1 16.0848 0.853915 -1.19314 9
451 1 -0.244092 1.45609 -11.3642 21
452 1 -0.047715 -14.1822 5.55493 17
453 1 1.97797 -8.87985 9.54262 14
454 1 -7.63934 3.15974 -7.87985 18
455 1 -12.0181 -14.8442 6.47248 11
456 1 -0.83809 -12.1392 -10.6017 20
457 1 10.0361 15.4519 6.69444 11
458 1 1.2995 4.09891 -12.2702 20
459 1 3.47754 -0.859448 15.2932 15
460 1 -14.1592 1.57528 12.1577 17
461 1 -1.74556 -18.7403 -0.186777 14
462 1 -13.6626 -3.40314 1.98443 18
463 1 14.0652 -6.40305 -5.80894 12
464 1 10.8669 -2.54128 -3.07106 18
465 1 -4.87351 8.00357 -5.30103 17
466 1 2.37554 -9.23947 -7.39795 16
467 1 4.00968 2.90636 -11.3227 20
468 1 9.30869 -4.17701 -7.52477 16
469 1 -6.70733 0.349228 15.797 15
470 1 6.0665 16.3432 2.57329 14
471 1 -3.50674 -2.51597 -15.7518 16
472 1 6.05281 2.05612 -18.1456 15
473 1 -8.28991 -2.72932 9.52411 16
474 1 -3.12238 14.5016 1.44056 20
475 1 -8.59583 -1.32322 -13.5366 16
476 1 -15.9966 -0.0885091 3.18028 14
477 1 -2.23776 -10.4126 -16.0125 12
478 1 -6.58149 -11.2551 10.4928 17
479 1 1.12255 9.25718 -8.6098 18
480 1 16.5488 3.8472 9.98909 8
481 1 14.4828 5.79441 -0.704808 16
482 1 -9.74009 -13.2579 -1.95057 13
483 1 -0.0855538 -9.77834 -1.50296 18
484 1 -1.25093 -3.96178 -17.8149 12
485 1 -8.17101 10.1345 9.17593 16
486 1 1.82157 -3.17546 -8.71163 19
487 1 11.7558 -0.781355 -0.925399 16
488 1 3.29506 14.4115 -7.7611 19
489 1 4.18929 -8.65081 1.98283 16
490 1 13.6308 5.74604 -9.36975 16
491 1 3.55982 9.53166 13.2594 18
492 1 -11.3114 1.90333 9.59236 18
493 1 6.21767 10.5183 10.3599 15
494 1 8.42137 -0.872978 17.4063 10
495 1 0.769483 2.03014 -17.1585 17
496 1 -4.85932 -6.58063 -7.25213 19
497 1 -1.27938 -2.44665 12.0108 19
498 1 9.21055 10.7641 8.26653 18
499 1 7.33332 7.86952 -8.74871 23
500 1 -7.29765 10.6707 -6.05007 18
501 1 -0.444981 13.9174 -4.23267 20
502 1 10.8904 -3.13698 12.5126 13
503 1 10.533 2.14027 -11.3586 19
504 1 12.6088 -10.4738 -4.05529 9
505 1 12.7545 10.3064 12.8095 14
506 1 -14.4693 -7.64228 1.58214 12
507 1 -6.45347 11.8692 -11.5762 12
508 1 -0.946536 1.67548 9.88742 16
509 1 -13.3944 -1.02015 13.9644 15
510 1 -3.94642 14.1296 -9.96237 16
511 1 4.60665 -13.6458 -3.9667 17
512 1 4.59383 -2.4376 -9.97481 16
513 1 -2.51942 16.6825 -4.85458 15
514 1 -8.4122 -4.98635 -13.7555 13
515 1 4.41014 -15.7698 4.07875 18
516 1 -12.9776 -6.14585 -0.192489 17
517 1 1.03286 12.1228 -14.0471 10
518 1 -1.82236 10.0269 15.3843 14
519 1 -11.7319 -6.00748 8.21302 17
520 1 6.16419 8.02616 -2.30806 17
521 1 1.89471 -9.80698 -10.2775 21
522 1 5.06641 -8.3188 10.8787 14
523 1 -9.79907 5.68057 -0.0486818 17
524 1 4.5707 4.66899 18.4234 13
525 1 5.33904 16.0403 -5.37014 14
526 1 11.6036 -7.4721 -3.88224 16
527 1 3.72233 8.74878 10.6669 21
528 1 0.611387 5.05633 -18.4263 9
529 1 -5.73693 -14.3113 10.1535 13
530 1 8.51671 -0.206632 -17.1254 13
531 1 3.75401 14.9631 6.4159 17
532 1 9.018 4.8364 -10.3874 23
533 1 -1.10027 -2.32904 -14.2994 18
534 1 -3.73798 -10.6038 -3.94395 21
535 1 -10.3327 -3.40349 -12.0072 16
536 1 13.0216 3.42086 -0.0599816 17
537 1 15.1054 5.37117 -4.1428 11
538 1 7.62221 -6.1777 -8.77241 19
539 1 13.7144 7.31501 11.9293 15
540 1 3.55197 -10.1707 -4.60412 15
541 1 3.30662 4.27801 -17.5601 16
542 1 8.01037 13.5914 2.1227 18
543 1 -10.1334 6.97061 3.7914 18
544 1 9.80977 10.3989 14.557 14
545 1 10.3503 6.28725 -4.33271 18
546 1 14.3063 -2.39937 2.71896 13
547 1 11.3918 3.93671 -8.62827 20
548 1 7.97509 2.78821 14.4583 25
549 1 15.9619 5.24949 12.3696 9
550 1 2.80172 -5.03315 8.20248 12
551 1 12.4996 11.2572 -2.66848 17
552 1 1.65118 2.00985 15.1237 14
553 1 15.7345 -0.756858 -6.42289 14
554 1 8.18489 4.38751 10.9309 20
555 1 -7.36229 -0.463317 -8.06279 15
556 1 14.4431 5.87469 2.70409 16
557 1 9.37568 -3.62531 -0.209507 19
558 1 -12.4642 7.83031 12.1383 12
559 1 9.4455 10.5804 11.3611 17
560 1 10.464 2.07785 12.4993 17
561 1 3.31248 9.7931 7.8999 19
562 1 1.06188 14.0475 11.5471 14
563 1 -2.32639 -19.1175 2.60585 10
564 1 -5.88386 9.64766 -3.22135 17
565 1 10.9581 11.4352 -8.25836 16
566 1 9.91553 -2.46209 -12.673 17
567 1 1.11887 16.0814 -1.83329 20
568 1 -3.34729 -12.4424 -9.14744 18
569 1 10.4854 -7.03652 -14.5349 8
570 1 -14.591 3.03736 7.7134 15
571 1 -6.06326 6.54754 -11.6236 23
572 1 -4.20397 -17.2428 2.12477 17
573 1 -5.62566 -0.130031 -10.4194 14
574 1 -13.5964 1.87511 -5.36807 19
575 1 9.8503 -6.96372 4.02202 12
576 1 12.741 10.989 4.40989 17
577 1 0.561479 -9.28005 6.65274 15
578 1 -14.4395 -1.43822 -8.95022 13
579 1 2.79178 0.949168 -18.6614 11
580 1 -2.13775 6.14764 15.4216 16
581 1 6.64993 9.71011 -11.8026 19
582 1 12.8438 -0.247533 12.5267 14
583 1 9.83938 6.12337 -7.60533 21
584 1 13.2448 13.6621 2.72494 11
585 1 4.17372 -14.0909 -8.00338 13
586 1 -11.4441 -3.28679 15.5178 13
587 1 12.6634 -0.964434 4.67485 18
588 1 -0.631343 11.8341 12.9389 19
589 1 6.51421 12.9433 -11.5351 13
590 1 -13.0191 10.0715 -4.30614 12
591 1 9.33007 10.7941 2.23628 21
592 1 -9.60096 -15.5872 0.377229 14
593 1 11.7836 -4.08655 2.18506 13
594 1 8.94153 16.2981 3.56933 15
595 1 -5.64725 4.94486 10.9812 18
596 1 -9.96017 -7.77105 1.05578 18
597 1 -10.2239 -2.21629 -9.02025 19
598 1 7.32361 0.3814 12.412 18
599 1 -3.78739 -9.99114 11.1603 11
600 1 7.98089 5.71001 13.4749 20
601 1 -6.1267 13.51 0.763537 18
602 1 10.2154 4.8643 1.55795 17
603 1 8.27462 5.72489 4.10992 16
604 1 3.1188 -0.825111 -16.6592 16
605 1 -11.0339 -1.07862 9.07055 17
606 1 8.37713 0.0253038 -10.2759 19
607 1 10.6711 -10.9057 -8.43687 14
608 1 8.37354 4.97973 8.2321 16
609 1 -10.4481 -0.41422 15.2775 17
610 1 11.7789 9.16188 9.99146 19
611 1 0.133246 -2.22106 14.8591 14
612 1 -0.879162 6.13196 11.9868 17
613 1 -0.132781 -5.32382 -14.3117 20
614 1 -6.40303 1.28394 12.6408 19
615 1 5.6198 3.26007 12.0786 22
616 1 -11.1025 -17.6177 8.42483 9
617 1 13.569 8.81185 -1.24878 18
618 1 6.95924 -12.6917 -5.09718 17
619 1 7.00892 10.2599 -0.04379 17
620 1 10.6253 13.399 4.26528 19
621 1 5.64216 -1.09851 -18.9011 14
622 1 2.01202 15.1186 -4.82831 21
623 1 11.0227 8.56828 0.978 16
624 1 -6.4335 -9.88911 -1.321 19
625 1 -1.73474 -0.443891 -16.8889 13
626 1 -11.0402 11.6838 -0.237118 16
627 1 7.04108 -7.28472 -11.6172 17
628 1 10.7974 7.69474 -9.87699 17
629 1 10.2383 12.2956 -3.32161 16
630 1 7.53988 7.07682 -4.97098 19
631 1 11.6445 2.11261 14.9996 16
632 1 9.74527 -0.0895104 14.6518 19
633 1 -2.93731 -12.7459 9.90563 12
634 1 -4.75779 9.6072 -13.2852 12
635 1 3.87561 12.747 9.62802 17
636 1 7.7496 -7.79613 -14.8816 13
637 1 3.46046 0.919855 9.80829 16
638 1 6.91725 12.9084 -3.41919 15
639 1 8.46218 10.9283 4.9549 16
640 1 13.2684 -5.63 -2.59829 16
641 1 6.56963 7.40015 18.1574 15
642 1 -13.0372 -2.80438 7.41808 18
643 1 2.70799 -16.6665 0.941218 21
644 1 -9.85092 14.6364 2.50248 10
645 1 5.69975 11.1257 3.7007 19
646 1 -14.3429 -2.44343 4.68921 18
647 1 -1.64482 5.00327 18.6345 9
648 1 -4.83254 6.94658 -15.1025 16
649 1 -7.75377 7.82098 -14.0553 13
650 1 4.30807 -14.0016 -0.667473 19
651 1 8.62853 8.87194 -6.93427 18
652 1 -14.0238 4.90526 13.5282 11
653 1 4.47672 -2.7609 -13.2007 19
654 1 1.50617 -12.4076 8.19957 14
655 1 2.91832 14.0312 -0.146792 16
656 1 -4.11835 2.02182 15.5183 17
657 1 -7.33483 -6.26473 -11.119 18
658 1 -4.94439 -10.3144 -14.6908 13
659 1 -6.88812 -12.7259 -8.55878 13
660 1 -0.384917 17.9749 -7.14267 12
661 1 6.48969 -2.48387 -7.38067 18
662 1 -3.65588 11.493 7.14689 17
663 1 5.19833 -10.6257 -7.21804 19
664 1 7.06427 -17.1893 -0.353148 10
665 1 3.75506 -8.14936 7.85591 15
666 1 15.0985 2.58401 -7.40987 15
667 1 -0.147821 -14.7197 -5.65401 18
668 1 -11.717 -3.70684 10.0991 19
669 1 -4.98874 -18.4058 -0.352201 11
670 1 -7.06285 -11.1008 -4.03172 18
671 1 -11.1021 0.0966167 12.2082 18
672 1 -7.54045 -17.6019 2.21814 11
673 1 15.5828 6.07273 -7.046 11
674 1 -4.89855 16.4281 4.17469 13
675 1 -13.6391 7.91181 3.06657 15
676 1 10.1879 -0.986739 1.84761 17
677 1 -12.4341 -1.60479 -10.8249 17
678 1 -1.10436 8.65976 -5.48042 16
679 1 9.22168 2.14068 -7.50892 18
680 1 7.37764 12.1744 13.3708 12
681 1 9.45011 3.83812 -5.63399 17
682 1 -14.809 1.92104 -8.1009 15
683 1 -12.7542 -7.39748 -7.51572 13
684 1 -1.06621 7.52604 17.8199 14
685 1 5.65606 7.37577 -11.7827 18
686 1 12.7261 13.7816 6.43372 13
687 1 -3.33046 -1.0722 9.97928 17
688 1 -2.65142 -17.1843 -2.92347 17
689 1 -8.66619 -17.8854 7.54765 11
690 1 -3.3521 -6.28555 9.43553 12
691 1 15.1238 10.1399 10.0486 15
692 1 2.09945 -6.82483 -9.74773 22
693 1 -7.85525 7.65454 -1.72896 17
694 1 6.8331 8.23114 3.30266 17
695 1 -8.68765 -6.35194 3.92158 16
696 1 8.78917 7.33335 -12.2168 17
697 1 -2.31342 -17.5873 -6.54112 10
698 1 0.994538 -19.5522 1.06022 11
699 1 0.299681 -15.7545 -1.10321 19
700 1 5.69674 5.1202 -9.98748 19
701 1 8.0929 17.5329 0.322405 11
702 1 -2.67181 0.736546 -14.3671 17
703 1 -1.18048 1.11146 13.3129 17
704 1 1.30792 4.43188 -15.1911 18
705 1 -11.2337 -0.953309 -14.2889 12
706 1 -11.4326 -4.21772 -2.28906 15
707 1 2.50076 17.5289 -6.39852 13
708 1 -3.18505 -5.79243 -15.9464 14
709 1 12.1929 7.59235 -6.96437 19
710 1 10.9405 -6.74508 0.0343272 17
711 1 -6.51914 7.17572 12.721 19
712 1 6.30861 -11.0207 0.642554 18
713 1 14.6055 -5.20456 0.556899 14
714 1 13.5023 -3.00478 10.6022 11
715 1 0.411428 10.7107 7.54139 21
716 1 -12.7269 2.14502 15.442 11
717 1 -8.25553 4.85804 12.6949 18
718 1 -3.71758 -14.5356 7.17525 15
719 1 6.80841 8.88996 12.9981 22
720 1 -15.6119 -1.53907 -0.290728 13
721 1 8.54286 -8.0918 -4.02303 19
722 1 -10.729 12.6217 -5.12595 13
723 1 1.17334 -17.0975 5.84213 12
724 1 4.53766 2.36007 14.5444 19
725 1 -0.430993 12.5731 5.47782 20
726 1 3.10451 -11.7393 5.63514 19
727 1 3.05006 3.68774 11.947 16
728 1 -15.5421 -6.36361 -3.6132 12
729 1 1.5055 11.5285 14.7047 14
730 1 5.55688 13.161 -0.121364 18
731 1 -11.3449 -11.8557 5.11489 15
732 1 -4.30121 -17.7053 5.15884 11
733 1 8.28997 -4.39525 10.3404 15
734 1 13.6652 -5.40741 8.24896 9
735 1 8.4699 7.67232 6.69328 19
736 1 -0.551115 -9.20029 -9.23728 21
737 1 -2.64766 1.99298 -11.7305 17
738 1 -4.68051 -0.870372 13.4452 19
739 1 -1.50096 15.7194 3.34457 16
740 1 14.2578 1.69451 3.70399 15
741 1 3.75605 9.98374 -7.21335 16
742 1 -4.56988 8.65642 14.7515 13
743 1 7.65324 7.44333 10.4534 19
744 1 7.01175 -4.10578 -13.003 17
745 1 -4.81499 -12.8163 -0.803828 19
746 1 14.2438 0.805812 6.75922 14
747 1 2.6411 -0.928867 -11.472 18
748 1 0.942668 8.71955 15.78 15
749 1 9.68493 -14.1016 -8.51453 10
750 1 5.97067 5.18548 -16.852 13
751 1 12.2135 4.91548 -11.9319 12
752 1 16.5674 -1.93127 0.200489 9
753 1 -0.220327 -5.26905 13.0254 14
754 1 -2.54082 -10.0785 -12.2219 22
755 1 8.6125 13.1693 -0.636875 17
756 1 -13.4429 5.44193 5.05013 17
757 1 13.0596 4.59901 -6.49073 22
758 1 15.9316 7.22225 4.87733 14
759 1 4.33762 -5.39548 -14.6553 18
760 1 -7.20818 11.9789 6.59063 19
761 1 17.0683 9.45297 7.15043 11
762 1 11.1086 14.0601 -6.6215 9
763 1 3.55697 2.49439 -14.7539 22
764 1 10.547 -5.38065 -2.32041 21
765 1 -12.8042 1.25235 -1.72644 13
766 1 10.8372 7.83579 3.85634 20
767 1 -12.828 -9.43137 0.106277 14
768 1 -11.8765 9.86885 -8.41161 9
769 1 5.24444 4.83997 9.21729 21
770 1 -12.2003 -0.54617 -6.96781 18
771 1 -12.4791 5.06467 7.71287 15
772 1 -2.58426 3.25697 -8.69441 21
773 1 10.4452 -8.44976 -9.83796 15
774 1 -10.9703 -8.95337 -5.48256 15
775 1 13.4009 -7.95538 -0.762536 11
776 1 -15.064 5.59565 0.836418 11
777 1 -6.69848 -5.54771 -3.186 18
778 1 14.2431 8.48199 7.43608 21
779 1 -6.13822 -9.16333 5.92689 19
780 1 9.62851 2.0217 17.3667 15
781 1 13.6423 -2.65934 7.64476 14
782 1 7.98627 -0.956266 4.67912 17
783 1 -12.5645 4.65765 2.13433 17
784 1 1.19317 11.5293 10.3579 21
785 1 4.26575 8.68425 -9.67284 21
786 1 -0.189286 -7.83208 -16.1126 15
787 1 -6.01941 15.4039 6.91473 12
788 1 -11.751 -11.5938 8.0073 16
789 1 8.89245 12.4396 -6.19855 15
790 1 0.745459 8.99821 12.9249 21
791 1 13.8037 -3.13578 -4.74209 17
792 1 8.18133 -7.30958 10.5111 9
793 1 -1.27171 13.3068 -12.271 16
794 1 3.98564 12.1091 -9.4536 19
795 1 -6.56611 -0.884698 10.2764 20
796 1 17.0235 5.57455 7.27326 12
797 1 -0.905678 -3.34891 -10.8669 17
798 1 14.4553 11.2851 0.358478 11
799 1 -14.7722 3.17402 -2.73354 14
800 1 -4.64787 -11.7276 7.92974 24
801 1 3.58295 14.3339 -10.9189 14
802 1 6.01354 -1.27242 9.99713 20
803 1 -1.34956 -13.3264 -2.39471 21
804 1 -6.951 16.4466 1.53877 12
805 1 -15.3504 6.35733 -2.40796 13
806 1 10.9672 -1.68046 -8.11205 19
807 1 0.12722 -12.8765 -13.1507 14
808 1 -7.99136 8.55882 2.03166 17
809 1 13.7713 11.3771 -5.97392 12
810 1 -6.55821 -0.154598 7.38859 14
811 1 7.66317 -3.11666 -18.6973 9
812 1 -7.15253 -9.8198 -9.67196 17
813 1 -1.33819 -12.3523 -4.88438 20
814 1 -3.59328 11.2515 12.8597 17
815 1 7.39641 -13.0935 -1.64323 15
816 1 -2.12395 10.9673 -14.7041 13
817 1 14.9457 2.11488 -4.6371 18
818 1 8.14018 7.82998 0.435741 21
819 1 1.35802 -18.9222 -2.02045 11
820 1 4.82702 -3.30191 -16.9553 18
821 1 11.6179 1.75167 1.83537 18
822 1 -1.87878 4.51706 -13.5375 17
823 1 -2.53331 -9.08352 6.90798 17
824 1 6.24072 9.42176 -5.43477 18
825 1 6.62721 -0.0335677 -8.64029 20
826 1 -11.9381 4.05426 -3.76288 19
827 1 -16.2727 3.42231 10.6443 8
828 1 1.75848 6.42525 18.1555 15
829 1 -8.80985 -9.5268 10.2403 21
830 1 5.25878 8.9579 5.4429 17
831 1 0.806579 -15.4485 2.61913 19
832 1 2.76999 10.857 -5.18522 13
833 1 -3.50185 7.26603 11.3983 19
834 1 -8.10532 -1.04116 13.2427 20
835 1 -10.015 11.2522 7.02216 13
836 1 9.86609 3.56379 -1.25182 18
837 1 -6.26079 -8.67431 12.571 13
838 1 6.08488 -12.3966 4.13498 19
839 1 11.7147 5.82178 9.67543 14
840 1 7.81167 -5.19045 -5.18087 20
841 1 4.55012 -11.6003 -10.3606 20
842 1 -7.40139 1.46354 -13.664 15
843 1 -2.22032 2.45718 -18.1427 8
844 1 7.53483 14.8565 8.50053 12
845 1 -11.2041 -5.9359 13.8678 14
846 1 -4.91282 6.4515 -8.22662 17
847 1 -14.9774 5.22216 -5.61105 10
848 1 11.0964 12.5587 0.659673 17
849 1 -10.4527 -16.9908 4.81261 11
850 1 -1.33686 9.4463 6.15582 22
851 1 15.2045 11.8253 6.71628 13
852 1 -10.4101 -12.2964 -4.70071 10
853 1 4.51608 15.917 9.02017 12
854 1 -8.46084 -2.20702 17.4698 9
855 1 -1.81123 -14.9699 -8.70574 15
856 1 12.6472 2.49357 9.91308 16
857 1 3.50577 -18.9647 3.81293 10
858 1 4.86488 10.4113 18.492 9
859 1 -4.1702 -9.22453 4.38531 16
860 1 11.678 -0.346398 -11.3515 13
861 1 9.17492 -9.43384 -0.745047 20
862 1 1.33836 0.323183 -14.1776 17
863 1 -11.8784 1.38005 -12.5617 15
864 1 -7.1807 4.60452 -14.7885 16
865 1 -10.1219 -5.04893 -0.17349 19
866 1 -6.39902 5.74722 -3.11262 21
867 1 -5.08189 4.95972 14.5 20
868 1 10.2616 -2.5494 9.39315 15
869 1 -10.7807 -8.29953 5.95854 19
870 1 13.7924 0.00524631 1.71347 18
871 1 -0.899773 5.02144 -10.8292 18