ITEM: TIMESTEP
73000
ITEM: NUMBER OF ATOMS
500
ITEM: BOX BOUNDS pp pp pp
-30.0 30.0
-30.0 30.0
-30.0 30.0
ITEM: ATOMS id type x y z Coordination
1 1 1.31977 -16.0344 11.3953 22
2 1 9.31874 -14.6861 23.7714 19
3 1 7.25895 -11.3674 28.8382 10
4 1 9.82642 -20.2074 22.9051 21
5 1 -0.796855 -15.2742 16.9202 20
6 1 1.52316 -19.1795 9.86203 17
7 1 7.11907 -15.8548 25.3463 21
8 1 9.16793 -20.1953 13.4648 22
9 1 -3.35795 -16.3727 15.1357 17
10 1 3.42391 -11.402 8.85531 10
11 1 9.23437 -27.0762 18.0949 14
12 1 10.2811 -11.8616 20.5335 16
13 1 4.04176 -12.0037 11.643 18
14 1 6.96415 -12.7854 23.7165 22
15 1 9.04889 -9.72517 27.0384 14
16 1 -0.892981 -21.1447 16.9829 22
17 1 -4.09713 -19.4219 16.7715 15
18 1 10.6062 -17.3672 21.2853 20
19 1 10.6106 -12.2022 27.603 13
20 1 -0.967566 -21.1043 20.1084 22
21 1 1.86765 -24.5912 12.747 17
22 1 4.63345 -23.9211 11.3573 13
23 1 11.0421 -17.3671 12.1368 16
24 1 11.1373 -25.8262 23.4511 13
25 1 2.059 -7.98424 23.0203 16
26 1 7.09966 -7.71553 21.1282 20
27 1 1.36441 -22.2538 10.488 14
28 1 0.82159 -10.0451 25.1776 13
29 1 13.7764 -19.1355 18.8651 18
30 1 1.67209 -10.6444 21.5049 22
31 1 6.57402 -12.8585 9.95267 14
32 1 10.1738 -12.2915 17.924 18
33 1 2.52262 -8.03572 13.744 16
34 1 1.2657 -13.3144 10.0083 18
35 1 1.7095 -6.90978 16.9122 11
36 1 5.06582 -6.18894 19.26 17
37 1 -3.86871 -10.5155 18.8351 14
38 1 6.64719 -7.50815 27.2963 11
39 1 -1.22937 -14.9885 10.0945 19
40 1 -1.24749 -22.2959 23.013 13
41 1 -3.31702 -21.724 11.9945 12
42 1 10.5473 -28.1067 21.2442 9
43 1 -0.930513 -15.3073 20.1433 21
44 1 -3.67177 -16.2953 11.3943 15
45 1 4.93355 -26.4641 23.4799 15
46 1 10.1621 -11.9688 11.8232 8
47 1 -4.16125 -19.159 10.6784 12
48 1 3.27068 -8.43208 10.684 10
49 1 4.41614 -23.809 15.1085 22
50 1 2.13294 -5.17611 20.0677 9
51 1 -3.91105 -13.5564 20.167 16
52 1 4.57798 -7.50437 25.3158 16
53 1 9.64449 -15.4948 26.7852 14
54 1 7.17479 -27.5943 15.1259 14
55 1 13.0662 -17.0011 16.3424 20
56 1 2.289 -25.3188 20.3868 18
57 1 2.55978 -28.3717 18.0859 10
58 1 10.9259 -17.3076 24.4327 16
59 1 7.52473 -24.694 23.47 19
60 1 9.21775 -9.29101 19.698 18
61 1 -1.43112 -25.0791 21.0455 11
62 1 3.0652 -28.0429 21.7102 8
63 1 1.71412 -22.1388 15.0371 20
64 1 -0.685386 -19.6383 25.269 12
65 1 -3.3288 -16.7287 21.421 16
66 1 8.46156 -27.5298 24.1672 10
67 1 2.08627 -22.2008 21.5983 23
68 1 4.45306 -12.0684 25.3361 18
69 1 -3.58744 -19.4372 19.8458 15
70 1 0.909632 -7.77712 20.1769 15
71 1 -1.39786 -8.62872 22.9313 11
72 1 3.96871 -9.61559 27.0725 14
73 1 -0.795278 -23.7141 11.7958 11
74 1 -0.824067 -12.5358 15.3498 19
75 1 -1.0591 -18.1826 11.6837 22
76 1 14.3919 -16.9211 25.7676 8
77 1 2.39109 -18.1606 26.9275 12
78 1 1.42305 -16.2756 8.52799 14
79 1 -3.4975 -13.3552 16.952 17
80 1 4.69291 -26.5898 20.062 19
81 1 -0.864143 -12.666 25.4479 12
82 1 1.13136 -10.1778 18.4993 21
83 1 7.04732 -24.5786 12.9639 17
84 1 5.981 -4.63367 21.1075 9
85 1 -1.54286 -12.1784 11.7395 20
86 1 -3.69819 -10.6916 15.3906 12
87 1 1.60394 -27.6829 15.0358 11
88 1 9.66655 -24.6713 25.6404 10
89 1 -4.0655 -12.869 10.2317 10
90 1 0.558081 -15.4313 26.5373 13
91 1 -3.45509 -14.0756 23.3651 14
92 1 9.93723 -23.3394 12.7059 13
93 1 4.46141 -20.7615 23.6658 21
94 1 5.40853 -20.2217 26.6802 14
95 1 11.5761 -22.6493 15.2316 14
96 1 13.2123 -13.6714 16.7996 13
97 1 -0.987876 -12.2688 22.0732 20
98 1 6.53702 -15.9567 8.37432 14
99 1 10.3877 -21.4908 25.7087 12
100 1 -0.76167 -24.0019 15.0515 16
101 1 -0.660134 -18.3118 21.593 21
102 1 12.1352 -14.296 25.8119 16
103 1 15.8673 -15.4359 16.1584 10
104 1 5.8667 -7.57614 13.3328 12
105 1 -3.17556 -9.66579 8.65038 5
106 1 8.51146 -6.15954 18.8143 13
107 1 7.68717 -10.3645 11.9849 11
108 1 7.07239 -24.5961 19.7951 23
109 1 9.71086 -23.7005 18.0312 16
110 1 6.43307 -28.2991 18.5495 13
111 1 -0.71179 -11.783 8.58617 11
112 1 16.4164 -16.5272 19.2231 12
113 1 1.6818 -10.271 15.0762 19
114 1 9.40719 -25.2421 15.1503 14
115 1 -3.39542 -19.4367 23.0494 12
116 1 4.39618 -26.8404 16.2732 18
117 1 7.2639 -21.8576 11.5359 18
118 1 6.46419 -10.1699 18.1354 19
119 1 6.81765 -24.5547 16.6072 23
120 1 -0.17672 -20.8937 13.3784 21
121 1 5.33095 -17.7423 27.9823 13
122 1 6.68986 -14.7585 28.8573 10
123 1 9.46276 -17.8657 10.0352 13
124 1 -4.13257 -13.5471 13.2871 13
125 1 7.24802 -7.38769 16.1026 13
126 1 16.0136 -18.4625 16.2986 11
127 1 4.12169 -17.9719 7.97773 14
128 1 -3.71439 -10.8708 21.9738 12
129 1 7.41273 -21.9627 25.5905 15
130 1 12.03 -14.792 22.1388 18
131 1 -1.60173 -17.6256 8.83753 14
132 1 11.9478 -22.9526 24.128 13
133 1 4.54425 -23.5861 18.2439 21
134 1 12.2548 -10.8281 25.518 13
135 1 7.10559 -27.3974 21.545 15
136 1 8.21674 -18.7696 26.0363 16
137 1 14.9203 -10.0383 20.2682 6
138 1 12.8151 -11.8973 22.2737 16
139 1 4.4137 -26.5568 13.3593 14
140 1 9.76061 -11.0244 23.752 20
141 1 1.47209 -10.4096 11.788 18
142 1 4.6613 -17.5967 24.9514 21
143 1 -1.71628 -25.4859 17.2472 11
144 1 12.5268 -9.22183 22.5941 10
145 1 1.84254 -13.2883 23.3918 22
146 1 -0.717339 -12.4946 18.5665 22
147 1 11.9348 -10.322 17.4369 12
148 1 8.08117 -13.0246 26.3872 19
149 1 4.51549 -21.1034 9.65287 14
150 1 6.61339 -10.0861 25.7193 20
151 1 11.6226 -20.0902 13.6788 17
152 1 7.18106 -5.80928 23.968 11
153 1 9.76115 -23.6693 21.391 17
154 1 4.81111 -9.5512 23.332 22
155 1 10.181 -20.5533 10.7823 13
156 1 12.7076 -19.649 23.8441 11
157 1 4.06672 -14.7986 9.53599 18
158 1 1.58403 -12.5215 26.7123 12
159 1 15.1499 -14.4714 21.8215 15
160 1 4.24417 -6.15763 15.8266 11
161 1 11.7375 -14.8793 14.1189 14
162 1 3.60732 -15.0393 26.7889 16
163 1 1.8078 -22.2062 24.9639 14
164 1 -1.75582 -9.64815 16.85 15
165 1 10.3934 -6.86656 21.8499 11
166 1 -3.55616 -22.416 21.675 12
167 1 13.1871 -16.4365 19.3084 19
168 1 -2.89327 -22.8352 18.4097 16
169 1 14.4644 -13.3598 24.7167 11
170 1 12.3764 -20.4813 21.2365 16
171 1 7.15082 -10.5522 21.4329 21
172 1 -3.49664 -19.3352 13.782 17
173 1 3.55389 -9.06352 17.0725 20
174 1 9.3882 -11.4932 15.0097 17
175 1 -1.34098 -15.2659 13.2781 20
176 1 6.75519 -19.0799 9.56045 16
177 1 1.89598 -24.9778 16.6305 21
178 1 5.14719 -23.7783 21.9647 23
179 1 14.0788 -20.5118 15.4683 12
180 1 -3.37656 -16.4036 18.4152 18
181 1 -0.354154 -9.21198 10.2297 13
182 1 -3.60561 -22.5488 15.4575 12
183 1 14.7836 -17.8218 22.0165 13
184 1 -1.26267 -20.8595 10.0074 15
185 1 -1.59681 -9.29254 20.1459 16
186 1 -2.637 -16.87 25.2091 10
187 1 11.6417 -7.54983 19.6514 12
188 1 15.7515 -13.2491 18.6884 10
189 1 4.75768 -23.313 25.0282 15
190 1 9.16843 -14.7071 10.1418 14
191 1 10.0875 -8.39626 16.5607 12
192 1 8.04526 -8.20246 24.0463 18
193 1 5.77272 -9.98567 14.7506 20
194 1 13.8695 -17.5344 13.2245 11
195 1 -0.638399 -15.7239 23.335 19
196 1 12.3267 -21.9431 17.9946 13
197 1 4.10272 -6.18467 22.1726 16
198 1 3.84978 -8.93339 20.3197 24
199 1 2.23863 -24.9187 23.7156 13
200 1 11.4905 -25.8546 19.811 10
201 1 -0.0919778 -24.0479 18.7148 17
202 1 -0.538715 -9.73603 13.6431 16
203 2 -2.63496 -18.5808 21.3927 19
204 2 13.9528 -13.2128 22.989 14
205 2 -1.35026 -19.2484 13.3519 22
206 2 -3.5284 -15.4884 16.6592 15
207 2 2.93 -23.8807 25.0129 13
208 2 6.70754 -13.0089 29.4863 6
209 2 9.45962 -15.5426 21.9203 19
210 2 5.89592 -5.56135 22.7712 14
211 2 10.712 -24.0802 19.6826 16
212 2 2.01477 -18.0187 11.5041 20
213 2 8.25004 -23.2938 12.2522 16
214 2 0.311484 -8.61518 24.0937 10
215 2 13.553 -19.4196 22.1291 12
216 2 11.8242 -7.91281 21.4971 11
217 2 4.71206 -7.9197 27.4062 9
218 2 8.78201 -6.74446 23.0356 11
219 2 5.92321 -6.82832 14.9241 13
220 2 7.81695 -17.364 9.16892 13
221 2 -3.21092 -17.5494 9.84507 12
222 2 5.55464 -24.5319 23.7681 19
223 2 -3.8745 -15.4311 20.0449 15
224 2 9.21472 -25.3579 16.8809 17
225 2 2.83421 -26.583 22.9724 12
226 2 10.2053 -18.4444 13.6929 21
227 2 6.76814 -9.0058 22.8753 22
228 2 11.2373 -14.6548 24.106 20
229 2 0.0615968 -22.0627 21.6385 21
230 2 4.53281 -28.102 17.8086 12
231 2 -2.95063 -21.1731 22.8756 13
232 2 -2.26897 -24.7057 18.9625 12
233 2 -0.00101392 -24.9481 16.8288 17
234 2 1.86144 -6.64161 21.4606 13
235 2 7.18736 -14.7446 9.98638 17
236 2 12.1402 -14.9798 16.1641 18
237 2 6.60817 -9.30861 12.9532 13
238 2 -1.71689 -10.4006 15.1234 16
239 2 11.9035 -16.0969 20.6144 17
240 2 6.93054 -5.7046 19.6768 14
241 2 3.68264 -7.88223 23.765 17
242 2 8.59745 -7.4675 17.364 14
243 2 6.59926 -9.15374 16.4142 20
244 2 4.6144 -9.79311 25.2598 20
245 2 6.8447 -17.7163 25.143 19
246 2 8.27122 -20.304 10.2546 15
247 2 8.02099 -26.0756 14.1864 13
248 2 2.74733 -23.3025 11.2019 13
249 2 -2.54162 -23.9279 16.148 13
250 2 12.7597 -20.7232 19.4127 14
251 2 15.4355 -11.624 19.4104 9
252 2 -0.348535 -22.7425 10.0687 12
253 2 5.25044 -19.5128 8.6766 13
254 2 0.0742495 -24.439 13.3219 16
255 2 10.5655 -21.5192 12.5202 14
256 2 9.6061 -16.0922 11.5867 16
257 2 2.77448 -21.2669 23.4022 18
258 2 5.50384 -22.2858 10.7788 14
259 2 3.38142 -10.4496 10.5203 13
260 2 5.37713 -25.4174 12.3775 13
261 2 -0.58904 -13.1034 9.91093 19
262 2 4.03805 -12.9276 23.4453 20
263 2 -2.19232 -23.7358 21.9306 12
264 2 1.91627 -9.40627 20.0619 19
265 2 -2.88492 -21.4326 19.9226 17
266 2 -2.96855 -18.493 15.4602 15
267 2 8.23897 -23.6842 25.1251 18
268 2 14.6471 -17.0334 15.3048 14
269 2 2.45249 -20.9175 9.79974 14
270 2 9.1269 -10.6557 21.7447 22
271 2 8.56435 -9.8266 25.1194 20
272 2 5.21197 -15.8576 28.3201 13
273 2 -1.50475 -13.1913 20.3368 22
274 2 -0.337387 -16.2971 9.13403 15
275 2 14.8004 -14.2761 17.2562 12
276 2 -3.67037 -18.2382 18.3571 14
277 2 2.51849 -6.58683 15.0853 13
278 2 4.73398 -16.2053 8.39653 15
279 2 -3.5791 -9.59591 20.2635 12
280 2 10.3167 -27.3569 19.572 9
281 2 7.35883 -28.1949 16.8932 11
282 2 -0.602193 -8.19244 21.2188 13
283 2 4.96932 -24.4578 20.0484 22
284 2 6.97604 -26.4479 23.1807 14
285 2 8.73915 -11.702 27.8736 14
286 2 1.26747 -6.5986 18.752 15
287 2 -0.146218 -21.682 24.5823 12
288 2 2.16634 -26.9296 16.7604 13
289 2 1.17109 -19.2526 25.5786 13
290 2 -1.35654 -10.0069 8.84213 9
291 2 12.5089 -16.2828 13.1429 15
292 2 9.49463 -17.1621 25.8368 15
293 2 -0.58896 -16.3441 11.908 24
294 2 13.6542 -10.1668 21.4704 10
295 2 11.7731 -10.5973 23.6204 14
296 2 10.3988 -21.8704 17.8056 18
297 2 0.577481 -24.9115 20.4601 15
298 2 7.19297 -9.26124 27.6374 13
299 2 10.7482 -14.0841 27.1735 14
300 2 1.1968 -12.0952 8.54615 11
301 2 7.89942 -20.6076 23.155 21
302 2 7.82111 -14.7202 27.004 18
303 2 9.76339 -26.077 24.5438 13
304 2 -3.32785 -20.7389 10.4396 13
305 2 -0.825696 -9.88136 18.5461 19
306 2 -0.795134 -13.3332 13.6002 21
307 2 4.11462 -18.762 26.7824 15
308 2 9.63325 -7.33623 20.0294 14
309 2 -0.39561 -19.2014 9.95854 20
310 2 15.7182 -14.8327 20.0207 12
311 2 -3.55369 -9.77954 17.174 10
312 2 10.7321 -24.0412 23.0557 16
313 2 -2.2479 -18.7901 24.5107 14
314 2 -0.11364 -22.0927 14.9898 20
315 2 4.10873 -6.91402 17.7497 16
316 2 -1.48392 -10.41 21.9974 17
317 2 5.51044 -21.5256 25.179 19
318 2 -3.64646 -12.7134 22.0681 12
319 2 1.62587 -9.20563 16.8177 19
320 2 2.07121 -10.0631 26.634 11
321 2 -3.30275 -15.4251 13.3271 16
322 2 6.36189 -11.8377 15.1897 19
323 2 0.84711 -11.873 24.7726 17
324 2 6.75766 -19.0652 27.4981 12
325 2 -3.97937 -18.2232 12.2367 13
326 2 1.40752 -8.52905 10.8233 10
327 2 2.24095 -24.1421 14.7065 19
328 2 1.98342 -12.4031 11.8755 21
329 2 10.9011 -18.4844 22.9059 15
330 2 12.1107 -12.4537 17.8738 15
331 2 7.62855 -23.9972 21.6316 18
332 2 9.0936 -12.6508 16.5267 18
333 2 6.44458 -12.0751 25.5939 21
334 2 4.72707 -15.7302 25.2245 18
335 2 -3.88404 -21.2138 13.8512 13
336 2 4.77626 -24.906 16.8723 20
337 2 5.14105 -7.51606 20.8862 20
338 2 -3.41244 -15.9967 23.5001 12
339 2 -0.624798 -22.3655 18.3677 21
340 2 5.29008 -27.5215 14.8484 16
341 2 8.88576 -12.7567 24.2264 22
342 2 3.79659 -10.1712 15.4165 21
343 2 -0.857418 -10.3854 11.874 14
344 2 10.3074 -9.88516 15.5616 12
345 2 10.2452 -23.7743 14.5629 15
346 2 12.7313 -17.8379 25.0512 12
347 2 11.0026 -10.2906 26.9606 9
348 2 1.31907 -9.46887 13.4728 17
349 2 -3.08129 -14.6385 10.2781 14
350 2 -1.46968 -21.9226 12.3548 17
351 2 4.03888 -4.9759 20.627 11
352 2 4.16647 -7.93523 12.4179 13
353 2 -3.63476 -12.5137 11.9453 14
354 2 -1.68497 -13.1374 23.8096 16
355 2 4.67427 -12.9191 9.76425 18
356 2 10.9951 -18.8873 11.0416 13
357 2 -3.90467 -12.5041 15.0101 13
358 2 2.2013 -15.0854 9.88377 20
359 2 8.76853 -20.6983 26.1023 14
360 2 -0.990509 -15.9943 25.3269 14
361 2 1.92942 -20.8632 13.3678 19
362 2 -0.171751 -19.4157 20.0775 17
363 2 11.6051 -21.0713 24.392 14
364 2 -3.83536 -12.4501 18.6052 17
365 2 0.100621 -13.6919 26.779 11
366 2 4.89603 -27.5827 21.749 15
367 2 13.9466 -15.0145 25.4472 12
368 2 6.55147 -23.7547 14.8956 22
369 2 3.64079 -10.4763 21.9256 20
370 2 2.29257 -17.9166 8.57854 14
371 2 -1.46136 -16.1966 21.7154 23
372 2 11.1464 -23.4187 25.7758 9
373 2 9.48614 -12.9134 10.2418 10
374 2 13.3123 -12.2622 25.6541 11
375 2 -1.45231 -13.3946 17.0708 22
376 2 15.0094 -16.1671 22.6357 14
377 2 10.4274 -21.0474 14.9466 18
378 2 2.26306 -23.8518 18.2241 20
379 2 12.744 -21.6522 16.2941 12
380 2 11.685 -26.3649 21.6434 9
381 2 12.3599 -17.7871 18.3205 15
382 2 14.8345 -17.663 19.9077 15
383 2 3.28965 -13.2893 26.4623 16
384 2 10.7936 -13.6965 12.9054 13
385 2 -3.33683 -21.2427 16.8924 15
386 2 -0.336395 -19.4065 16.704 20
387 2 7.04493 -26.6198 19.6542 17
388 2 9.04314 -11.265 13.0424 13
389 2 16.5105 -16.8827 17.3339 12
390 2 11.533 -8.37275 17.9451 10
391 2 7.66914 -23.6382 18.0283 21
392 2 14.484 -19.5231 17.0186 12
393 2 8.70812 -28.0592 22.2684 11
394 2 2.65734 -26.9717 13.7239 11
395 2 7.17269 -9.40538 19.7162 19
396 2 6.76132 -6.94584 25.3863 15
397 2 2.87286 -24.0349 21.9741 19
398 2 2.15976 -16.3763 26.7645 14
399 2 0.994688 -12.446 21.6786 20
400 2 11.5031 -12.9229 21.3758 19
401 2 9.95718 -15.6989 14.7427 18
402 2 -3.89383 -11.1509 9.34247 8
403 2 2.9045 -27.2521 19.8033 14
404 2 10.1571 -21.722 21.5113 17
405 1 -0.952078 -18.3127 15.1927 20
406 1 4.15007 -17.6128 11.5596 22
407 1 1.89578 -18.8168 13.1814 19
408 1 4.05435 -20.788 13.2145 22
409 1 4.06448 -17.7929 14.8707 20
410 1 2.08156 -18.9401 16.651 22
411 1 4.53839 -20.8069 16.6624 21
412 2 4.17291 -18.8416 13.2473 17
413 2 1.96816 -17.8655 15.0255 18
414 2 4.83224 -21.97 14.6878 21
415 2 2.30226 -21.073 16.471 22
416 2 4.18012 -18.9139 16.6052 20
417 1 -0.33482 -18.2092 18.5058 20
418 1 2.40615 -21.9699 18.1428 20
419 1 4.45082 -18.1353 18.4688 19
420 1 2.12013 -19.3354 20.128 19
421 1 5.12496 -20.9858 19.9577 19
422 1 4.55494 -17.9608 21.7995 20
423 1 2.07798 -19.3223 23.7073 17
424 2 1.66603 -18.0823 18.6686 20
425 2 5.34214 -21.9045 18.1345 23
426 2 2.8341 -21.2185 19.7496 22
427 2 4.26608 -19.1325 20.2252 21
428 2 1.54158 -18.472 22.0354 19
429 2 5.34694 -21.8636 21.7786 22
430 2 4.86782 -18.857 23.4153 18
431 1 1.15527 -13.2014 13.6019 23
432 1 3.9936 -14.7959 13.129 20
433 1 1.46009 -15.9689 14.8675 21
434 1 4.39251 -12.2124 15.3476 21
435 1 1.98795 -13.254 16.9527 21
436 1 4.58747 -15.0582 16.8872 21
437 2 -1.00651 -16.1188 15.123 19
438 2 4.56936 -15.7064 11.5801 23
439 2 1.77053 -15.2175 13.1357 21
440 2 4.29764 -12.9165 13.3984 19
441 2 1.31932 -12.1262 15.4038 21
442 2 4.59222 -15.862 14.9492 22
443 2 1.33474 -15.3531 16.8122 23
444 2 3.99974 -13.136 16.9686 20
445 1 1.98885 -16.1384 18.5266 21
446 1 4.36722 -11.9658 18.4319 22
447 1 1.7445 -13.325 20.104 23
448 1 4.60668 -15.3772 20.1995 23
449 1 2.06979 -16.1533 21.8988 20
450 1 4.36349 -12.5928 21.6562 20
451 1 4.89153 -14.8864 23.4552 24
452 2 -1.24977 -16.4132 18.6087 22
453 2 1.26954 -12.3332 18.3797 21
454 2 3.90372 -16.0207 18.5268 22
455 2 1.10039 -15.1443 20.1908 24
456 2 3.87831 -13.7033 20.1678 22
457 2 4.01265 -16.1021 21.9919 20
458 2 1.21693 -15.0203 23.2243 20
459 2 4.63826 -9.89605 18.5792 19
460 1 6.55154 -18.702 13.0779 19
461 1 6.83203 -21.6564 14.7522 20
462 1 9.30381 -17.4413 15.0239 21
463 1 7.16826 -18.6902 16.5501 22
464 1 9.41952 -20.6291 16.5918 22
465 2 6.04073 -18.1482 11.3608 20
466 2 7.44731 -20.5325 13.0605 21
467 2 7.25964 -17.9119 14.7124 21
468 2 7.42926 -20.8053 16.4057 19
469 2 9.64037 -18.6537 16.6984 21
470 1 7.2968 -21.5942 18.1925 18
471 1 10.4592 -17.8015 18.1127 20
472 1 7.87306 -18.7589 20.2185 24
473 1 9.96958 -20.7562 19.6381 18
474 1 7.3126 -21.7353 21.8107 20
475 1 6.92944 -18.9317 23.4432 20
476 2 6.88317 -18.0317 18.3925 20
477 2 7.50135 -20.6354 19.9818 22
478 2 10.0154 -18.6995 19.8525 22
479 2 6.85612 -17.7368 21.8089 20
480 1 6.58387 -15.8437 11.5801 23
481 1 6.36943 -12.7896 13.3007 21
482 1 9.08812 -14.7824 12.9953 20
483 1 6.50407 -15.8481 14.8229 19
484 1 7.19573 -12.9848 16.5732 21
485 1 9.88976 -14.7826 16.568 21
486 2 6.8634 -14.6892 13.1355 19
487 2 6.93668 -12.076 11.6204 17
488 2 13.1961 -19.1176 14.1327 14
489 2 6.82999 -15.0631 16.5729 21
490 2 10.2416 -10.489 18.7491 18
491 1 7.42229 -15.9725 18.3537 21
492 1 7.1153 -13.3415 19.874 24
493 1 10.0794 -14.8949 20.0408 19
494 1 7.59521 -16.0323 21.8323 19
495 2 6.27476 -12.6079 18.3577 22
496 2 9.32309 -15.8422 18.1552 23
497 2 6.57522 -15.193 20.2496 22
498 2 9.23977 -13.2732 19.5959 20
499 2 6.23873 -12.1605 21.613 20
500 2 7.27749 -14.6571 23.5888 19
