ITEM: TIMESTEP
34000
ITEM: NUMBER OF ATOMS
2000
ITEM: BOX BOUNDS pp pp pp
-30.0 30.0
-30.0 30.0
-30.0 30.0
ITEM: ATOMS id type x y z Coordination
1 1 -11.6427 4.91398 -14.1603 10
2 1 -2.52423 -12.7606 -7.5646 10
3 1 1.89154 9.43545 12.976 21
4 1 7.23006 -4.32492 7.51732 17
5 1 -7.23515 12.8682 -1.28679 21
6 1 10.1727 -7.30506 -7.87768 15
7 1 -10.6748 5.67894 -4.38934 20
8 1 0.784271 -3.72738 6.71927 22
9 1 -6.07781 4.22149 -11.7082 17
10 1 -14.6026 -0.459099 12.6055 15
11 1 5.14724 8.12327 -13.7092 15
12 1 -4.356 -7.09318 1.54928 21
13 1 -14.3876 0.487042 4.01422 17
14 1 10.0784 -0.272422 11.997 15
15 1 -1.53352 6.36801 10.0885 23
16 1 -2.81057 13.409 -9.47076 17
17 1 1.27339 -3.00672 14.3183 12
18 1 -12.1781 2.59045 -8.98985 17
19 1 -18.4053 2.59151 10.8644 11
20 1 8.21095 10.2733 8.54168 19
21 1 -0.0208881 20.2015 -8.6997 9
22 1 1.27881 -3.11556 -14.7778 11
23 1 14.5774 6.88367 5.71398 13
24 1 -13.6807 10.1327 -5.17587 16
25 1 -2.67873 2.36486 -8.81284 20
26 1 -12.2708 14.8419 6.13867 16
27 1 9.13666 -5.65498 3.6381 18
28 1 3.89938 -10.0669 -3.14755 14
29 1 6.34273 -8.15652 -1.57527 19
30 1 1.24849 -8.33262 -9.57525 20
31 1 -12.0097 4.30447 10.5017 17
32 1 -1.98474 -7.70293 -12.3858 15
33 1 7.87272 -4.26619 -8.24562 20
34 1 -0.990381 4.7256 -16.8792 14
35 1 0.071891 7.16375 12.8317 19
36 1 3.89612 -12.7362 6.3168 9
37 1 13.7413 -6.83761 5.81681 5
38 1 -16.4321 10.0054 -0.595531 9
39 1 -13.7051 -3.78246 11.821 9
40 1 -11.4214 4.82971 1.60963 20
41 1 0.962261 18.4792 -2.63112 21
42 1 1.32914 -7.55989 -6.75742 20
43 1 2.66607 1.06425 -10.9387 22
44 1 4.18906 -7.82417 -7.37129 17
45 1 3.66975 0.132523 15.9299 12
46 1 -12.6274 13.3964 2.6036 13
47 1 0.531022 15.644 -12.4393 13
48 1 0.67926 13.1705 7.69212 20
49 1 -7.46298 10.8729 -10.2601 20
50 1 -4.12804 16.8356 1.99402 19
51 1 5.21673 -7.23592 -4.22893 16
52 1 5.91323 -0.974497 -3.43427 22
53 1 1.31615 -7.12778 -12.7896 12
54 1 -9.75069 16.0224 13.354 7
55 1 -15.8229 -0.578694 -1.5135 13
56 1 7.10833 1.97465 1.49184 19
57 1 -5.54387 15.4636 -1.39565 19
58 1 -16.6509 -1.25099 10.2217 17
59 1 -2.53909 13.3918 7.82357 21
60 1 -14.5183 7.03269 -5.56298 13
61 1 -7.54099 18.165 10.2753 16
62 1 -3.09279 -10.2286 7.28636 13
63 1 2.24712 10.4775 7.56042 21
64 1 6.38637 -6.68327 -9.50066 17
65 1 -0.389274 12.3912 14.0329 18
66 1 -14.4195 5.13993 -8.20685 11
67 1 -11.3817 7.84012 -12.8391 11
68 1 4.20779 10.5204 15.7959 12
69 1 8.21901 1.06664 -10.7884 17
70 1 10.22 -2.38823 3.94841 19
71 1 -12.5826 3.88165 4.77282 22
72 1 10.2533 18.6382 8.29969 9
73 1 7.51445 0.662536 12.5252 18
74 1 -9.45163 -7.28598 8.99258 10
75 1 -15.2171 8.03857 -2.32955 15
76 1 13.6427 3.96767 11.04 18
77 1 7.27625 1.90016 -3.2367 20
78 1 -0.878409 16.2901 12.3885 12
79 1 5.53064 4.52877 7.44997 23
80 1 -5.90999 -1.69992 -6.4963 23
81 1 -13.6214 16.2208 8.9958 6
82 1 -8.67378 17.0058 -4.89687 16
83 1 -9.82664 12.005 -9.53163 24
84 1 7.46154 3.91851 -5.50744 22
85 1 4.61627 13.2739 -8.97813 20
86 1 5.67146 -1.08259 1.84532 23
87 1 3.90471 -3.74231 7.14178 24
88 1 -4.01294 16.5305 -3.96199 21
89 1 -4.84601 18.1429 -0.833403 20
90 1 -12.2441 -0.00148277 6.17244 16
91 1 -4.25281 12.6771 4.75704 23
92 1 -5.57788 -0.93503 12.3815 22
93 1 13.1062 -4.5978 -0.397531 15
94 1 -9.32069 9.69349 4.22355 21
95 1 -7.98084 -5.07414 4.23709 19
96 1 12.3971 -4.47985 -6.71662 17
97 1 2.82246 7.25109 -11.2222 22
98 1 -1.47333 -1.9227 -11.1609 22
99 1 -3.13012 19.6348 2.54283 12
100 1 -8.87371 7.62183 -15.168 15
101 1 2.74289 5.21915 17.5119 13
102 1 0.950196 15.5168 -0.659423 21
103 1 -7.48034 16.6086 1.53974 22
104 1 -0.527437 16.357 2.41254 19
105 1 -5.16623 -7.27709 12.596 10
106 1 13.7182 12.3343 3.03564 12
107 1 -4.00633 -0.45806 -9.14684 21
108 1 12.664 -0.543162 -2.53152 19
109 1 -4.93671 6.41067 9.85385 19
110 1 8.67317 3.68712 11.6583 18
111 1 -9.67175 -2.1243 -1.42002 18
112 1 -12.4512 -8.36309 -6.13767 10
113 1 10.7565 -8.13377 -1.472 17
114 1 -2.37445 13.4892 2.08581 21
115 1 -4.59321 2.99241 -14.5059 20
116 1 4.56839 21.2674 -0.492545 14
117 1 -4.84643 -10.7285 4.90716 11
118 1 -6.73579 -7.6832 9.35323 17
119 1 5.54748 4.64744 -14.1538 16
120 1 5.18474 10.1292 -11.0561 21
121 1 12.6496 -8.08541 1.24175 10
122 1 -0.698616 -10.8879 4.04765 14
123 1 -7.78085 -10.4407 4.58524 11
124 1 11.1055 6.59291 11.5697 20
125 1 10.6898 0.458741 -9.81688 15
126 1 -16.4152 -2.75905 2.76826 15
127 1 5.5508 12.2919 5.45857 24
128 1 10.9348 13.4082 2.63902 18
129 1 -8.87181 12.8152 14.7209 12
130 1 -2.53683 12.0191 17.0968 14
131 1 -2.45588 15.7969 -12.8011 17
132 1 -0.509724 -0.517681 -8.63117 22
133 1 4.65289 -1.87479 -11.2927 17
134 1 1.75941 18.137 -5.65071 19
135 1 11.1184 -1.16879 9.38481 17
136 1 -3.40393 11.111 -16.2496 13
137 1 -3.96083 12.2725 -5.81792 19
138 1 7.41394 9.97091 -5.55995 24
139 1 -12.0286 14.0362 -8.5429 15
140 1 -7.90469 18.717 -0.415116 10
141 1 9.22912 5.1777 -8.24312 21
142 1 14.0959 4.28905 4.27422 13
143 1 -13.2198 10.8379 -8.05422 15
144 1 -10.9786 18.1517 10.388 12
145 1 10.9648 9.78599 -5.3464 18
146 1 9.48082 18.701 -4.89135 11
147 1 -3.19421 19.8711 5.55552 11
148 1 9.78289 18.1304 0.0679845 22
149 1 -2.47095 15.6427 -6.80444 16
150 1 -0.700665 14.0915 -15.2877 14
151 1 1.31972 9.6715 -11.7977 21
152 1 -7.46056 -1.6862 8.44555 20
153 1 -13.6364 14.5581 -0.580515 12
154 1 -10.6122 -0.216739 -10.3231 22
155 1 6.2685 -4.72132 -12.3817 17
156 1 7.86732 11.5269 11.1302 19
157 1 0.893991 11.6351 16.504 13
158 1 -12.3572 3.34902 -2.23219 20
159 1 -8.24972 18.0756 5.35681 15
160 1 12.9466 7.53293 -0.0121897 21
161 1 -11.1032 1.55159 -14.8213 8
162 1 1.27094 4.71649 13.3077 22
163 1 12.0486 17.8872 6.27156 8
164 1 -1.31495 9.5167 16.019 16
165 1 -0.11213 -4.93825 -11.1893 18
166 1 -7.08478 21.1476 5.34327 8
167 1 -0.0649251 17.0571 -8.21803 18
168 1 2.02045 -5.23077 9.15851 20
169 1 -15.4771 5.35581 1.78113 16
170 1 -0.264181 -9.99536 -11.7314 10
171 1 -8.29951 12.7016 -12.693 21
172 1 -4.49548 -4.93171 3.67752 20
173 1 3.40052 -8.11399 -0.941132 22
174 1 -5.03893 12.8436 -11.4247 21
175 1 -18.4571 1.16377 7.87192 20
176 1 11.9404 17.4619 -1.99308 11
177 1 -6.35882 7.94758 17.8807 12
178 1 -1.60761 -6.82844 13.0491 8
179 1 -7.39295 10.8327 -3.78038 24
180 1 4.78623 18.9267 2.44683 22
181 1 -1.14669 10.3746 7.16728 21
182 1 11.1368 0.982487 6.50581 18
183 1 -6.01165 18.3012 -3.65925 19
184 1 9.24041 -0.811604 -3.13337 18
185 1 -7.48795 13.0345 9.8393 21
186 1 -9.0376 10.3666 -7.19084 20
187 1 13.2617 -3.9843 4.54599 11
188 1 -9.45919 -4.34816 7.41601 20
189 1 -20.1338 0.607205 6.19097 10
190 1 -16.9425 -3.521 -0.0955707 12
191 1 9.6138 6.03438 14.6793 14
192 1 -18.5991 8.19303 3.53922 11
193 1 -2.0715 -9.51333 -0.271103 17
194 1 4.02494 -4.01694 -3.99977 21
195 1 -2.60613 15.3516 4.72498 19
196 1 -3.96906 14.0334 15.292 9
197 1 -9.15512 4.68295 -6.51846 20
198 1 -0.357716 12.7285 -12.153 23
199 1 -13.3035 -2.54432 -0.682648 16
200 1 -6.91162 -0.668099 16.0391 12
201 1 -2.0013 -12.5841 6.30153 8
202 1 6.76148 -9.98593 6.97491 12
203 1 -10.6143 17.2105 7.30033 16
204 1 16.1485 10.2468 -1.68138 13
205 1 7.48066 8.19161 -2.79506 23
206 1 -7.56819 -5.70135 -11.5623 15
207 1 1.69047 0.490085 9.99029 22
208 1 5.54401 -11.2051 4.45065 15
209 1 -4.15669 5.52414 -16.9868 15
210 1 9.56014 -4.85061 -5.81903 20
211 1 12.337 4.89842 -8.55929 16
212 1 1.1506 11.2052 -13.9381 19
213 1 -12.4878 0.183365 -2.08368 16
214 1 -5.29604 18.64 -8.82457 11
215 1 -10.0511 -3.51611 12.6063 16
216 1 10.6872 20.8391 0.221844 10
217 1 -7.97181 9.64207 16.2993 14
218 1 -5.96227 15.4013 -6.31878 18
219 1 13.817 6.61995 9.03199 17
220 1 -0.414306 1.62591 -11.4737 23
221 1 -7.37119 17.8592 -10.451 11
222 1 7.81434 10.5693 -12.5121 11
223 1 -3.50254 -7.16828 7.34575 19
224 1 -14.5465 7.72982 9.87215 15
225 1 -10.6477 12.5759 4.24308 21
226 1 -0.818036 -6.36776 -8.46559 22
227 1 -10.3196 -4.00629 1.82444 18
228 1 9.40684 -10.6994 -0.868856 13
229 1 11.7118 8.74049 14.0196 10
230 1 6.4514 10.4086 -8.41935 18
231 1 -2.48661 13.4421 -3.08924 21
232 1 -11.1749 0.652464 3.58568 20
233 1 -11.9399 16.1906 -5.74834 10
234 1 1.90384 6.09334 9.95379 22
235 1 -0.0523833 -8.83334 7.0656 20
236 1 11.1628 4.22522 -0.488483 21
237 1 2.34701 12.4401 5.24972 24
238 1 -13.0681 7.16067 6.35727 22
239 1 -9.19642 -0.974272 6.02783 20
240 1 2.30299 5.04179 -15.6489 11
241 1 3.30134 1.96296 13.284 22
242 1 4.55181 15.4915 -11.1142 13
243 1 -0.350601 -12.3892 -4.96034 12
244 1 -8.33242 0.716215 -16.738 11
245 1 -1.07268 -10.0089 9.49058 12
246 1 13.9021 7.74912 -2.90125 22
247 1 -8.53973 -2.19672 14.273 15
248 1 8.51926 -11.896 4.32151 12
249 1 -12.427 3.964 -6.04577 19
250 1 2.64075 17.9372 -0.013552 22
251 1 0.709972 -3.48347 -8.79202 23
252 1 6.34812 1.59728 15.0344 13
253 1 9.24849 10.6321 -2.74476 23
254 1 14.276 3.51556 -6.5607 15
255 1 -7.18868 1.32677 -6.37225 21
256 1 -8.98097 4.24133 -13.2049 17
257 1 -8.06366 -7.60517 6.147 16
258 1 10.8625 3.62211 4.58879 20
259 1 3.87344 1.55324 7.71123 24
260 1 -7.56603 -1.73729 -11.6162 20
261 1 -1.10373 -5.00401 4.34469 21
262 1 -0.383123 11.0565 -16.5991 12
263 1 2.69511 16.377 2.73874 21
264 1 -8.05928 -0.994867 1.1378 20
265 1 -4.30044 18.4559 10.5619 14
266 1 -10.2134 10.1359 13.9955 10
267 1 -12.1376 -1.55367 -11.9929 11
268 1 -13.3417 -6.56632 -8.18899 10
269 1 -8.54738 10.6361 -15.7681 12
270 1 -2.28476 -7.53822 -6.49382 19
271 1 -5.82864 -8.26613 3.91892 17
272 1 8.86112 -7.05839 -12.4508 8
273 1 17.3457 8.8999 -6.01363 6
274 1 13.8506 13.8919 -3.05395 11
275 1 -8.57976 -5.78669 14.5995 8
276 1 -2.32112 -3.88231 1.75316 21
277 1 12.7696 3.91936 7.33337 17
278 1 -13.2563 -2.07314 3.05044 16
279 1 3.09411 -10.8565 -0.75889 17
280 1 -3.41503 20.0023 -3.21955 14
281 1 2.273 8.73125 -15.2985 13
282 1 -2.35324 3.88705 -11.8112 19
283 1 -8.32176 0.887552 13.9274 18
284 1 2.48812 2.09506 18.4709 8
285 1 0.596272 -7.84294 3.58272 18
286 1 -2.17534 -2.06692 -14.7774 15
287 1 -11.9108 10.6253 -11.1369 16
288 1 6.26128 8.8326 10.6509 22
289 1 -9.35432 8.62068 -9.77466 18
290 1 -1.67153 9.41796 -13.5644 20
291 1 9.38049 -12.292 -4.14158 6
292 1 -3.82001 19.2908 -5.86747 11
293 1 -5.90772 14.0341 12.9358 14
294 1 8.98329 4.108 7.95571 24
295 1 -9.52649 4.4088 4.61184 20
296 1 -0.605901 -0.89229 12.4673 22
297 1 -7.3243 10.8453 1.42348 21
298 1 3.32771 -0.485707 -8.60511 24
299 1 10.1207 15.552 -5.20225 14
300 1 0.735305 -4.08841 1.68895 24
301 1 0.622375 0.055636 15.5843 14
302 1 -16.8059 8.08663 6.98888 16
303 1 -3.62412 -12.0421 -5.08335 13
304 1 -6.31524 9.47993 10.5141 20
305 1 -9.38836 15.5422 9.95428 19
306 1 -17.2921 2.10754 4.8558 19
307 1 -19.2677 -2.0673 9.00824 9
308 1 12.8544 0.681875 -5.38441 17
309 1 -10.6279 -1.1151 8.59043 20
310 1 10.1468 -1.99201 -8.00947 18
311 1 9.89646 -5.04552 -9.69307 14
312 1 2.00733 20.4609 3.27669 11
313 1 -7.03232 19.3721 -6.61906 9
314 1 3.27117 7.33953 13.0919 19
315 1 -10.0083 2.21427 6.89846 21
316 1 10.5455 -5.55486 0.476184 18
317 1 -8.94818 13.596 1.52235 23
318 1 -5.86515 14.1371 1.52257 22
319 1 4.29433 -8.11929 4.61441 20
320 1 14.4218 1.65415 2.02418 11
321 1 -4.32535 10.8423 7.37605 24
322 1 -7.71879 -0.951139 -3.50201 21
323 1 -4.96614 0.680041 15.0725 15
324 1 -6.23774 19.4403 2.70753 11
325 1 7.52333 4.12732 15.643 14
326 1 -8.78368 16.9117 -8.53681 16
327 1 -7.69636 -4.8991 -14.8093 9
328 1 5.3098 -7.58147 -12.6146 11
329 1 -9.59925 10.1936 9.10119 16
330 1 -10.581 6.82915 3.9795 24
331 1 -5.85901 2.65297 -8.91551 24
332 1 -9.33489 14.6786 -6.91849 18
333 1 14.6636 -1.00885 8.72184 9
334 1 -7.73196 -7.50383 1.7828 16
335 1 6.95732 -2.52407 4.43074 20
336 1 -8.61475 -1.36665 11.2843 21
337 1 -15.5906 12.6724 1.83138 9
338 1 -2.70194 -2.00556 10.2897 19
339 1 7.4218 -8.0182 -6.96793 15
340 1 -5.87667 8.31225 -8.69236 22
341 1 7.48764 1.84478 -15.9208 10
342 1 7.83187 20.8036 0.667893 16
343 1 -15.4742 2.67235 -0.781308 16
344 1 10.2846 2.90686 -10.276 17
345 1 4.14017 10.9369 -13.7407 14
346 1 -6.31889 -9.1676 -5.33822 18
347 1 -13.2518 1.23076 -4.77868 14
348 1 -10.9962 -1.86282 -4.58744 19
349 1 11.2751 2.35362 12.7972 15
350 1 9.63332 6.56594 -5.17867 22
351 1 -7.58142 6.95469 -11.4216 16
352 1 0.582522 18.9312 9.04832 13
353 1 -19.8241 1.62462 2.8504 9
354 1 -14.1438 11.9199 4.92823 16
355 1 -5.76951 19.8109 7.65834 16
356 1 -11.7972 7.89676 9.12739 19
357 1 8.28992 6.09578 10.9352 23
358 1 13.4457 1.81983 -9.25831 12
359 1 5.97668 -1.55307 13.3742 9
360 1 17.4072 7.26539 -3.0037 8
361 1 -7.93674 -6.77789 -8.76844 15
362 1 1.00353 -3.41755 -3.34583 23
363 1 0.943778 15.7062 4.75624 21
364 1 -7.61611 7.60681 -5.98504 24
365 1 5.54286 -5.01181 -0.603994 21
366 1 11.53 6.36141 6.06686 19
367 1 -9.38859 2.47257 -4.24442 20
368 1 -6.4036 -3.97853 1.39004 17
369 1 -5.99617 -3.43147 13.5738 14
370 1 -2.56248 15.3819 -0.281527 21
371 1 -17.7712 -4.77531 4.45312 7
372 1 5.40116 7.29239 16.2348 14
373 1 -9.18029 10.0136 -0.937194 21
374 1 4.49854 15.7323 -5.92219 20
375 1 2.15104 16.1459 8.23811 19
376 1 -15.9165 -6.00493 1.98418 10
377 1 1.07687 -1.94562 -6.4619 24
378 1 -13.4272 2.4706 7.09494 18
379 1 -7.15186 12.0838 -6.70074 22
380 1 5.76032 -7.20388 1.83756 22
381 1 -4.62496 -4.62956 -0.470267 21
382 1 3.10737 12.6917 13.6511 19
383 1 -0.391298 18.7416 -11.7675 10
384 1 -12.9805 7.94636 -8.7807 14
385 1 -4.01937 15.023 -16.0165 11
386 1 -9.2096 7.9122 -3.20961 21
387 1 -5.63908 -2.99657 10.1826 17
388 1 15.3037 9.36353 4.05552 11
389 1 -6.12901 12.7165 -14.7156 17
390 1 -6.53643 3.74218 9.55141 19
391 1 -19.92 6.80142 5.92319 8
392 1 -9.43057 7.99369 6.71454 23
393 1 -10.0704 -8.02364 3.71331 13
394 1 10.718 -5.09004 -3.0352 20
395 1 -16.9362 4.23688 7.4776 17
396 1 -16.4396 1.71913 12.9662 11
397 1 -17.5478 10.2095 5.36341 8
398 1 -1.05324 -1.35563 7.00132 20
399 1 -4.46368 0.0337735 -16.5555 15
400 1 8.12459 -9.70387 -3.57574 14
401 1 5.19693 -10.3317 -8.43115 10
402 1 -5.00279 1.00136 9.04787 20
403 1 -10.704 2.15086 -12.0933 18
404 1 5.70826 -5.32709 4.81512 23
405 1 2.88935 16.0655 -3.20798 21
406 1 -12.9256 12.9565 8.4426 13
407 1 -7.10976 1.69175 11.7456 20
408 1 -13.3258 -2.27975 -5.77689 15
409 1 -7.89657 0.932455 8.39952 20
410 1 3.84998 -7.80012 10.2012 13
411 1 2.41413 4.86068 -8.87639 23
412 1 9.09925 0.777002 4.45302 22
413 1 14.5167 11.056 -4.67963 15
414 1 -2.29561 6.86466 20.3819 5
415 1 -2.16533 17.7141 -1.62541 19
416 1 9.01575 -0.801864 1.12794 20
417 1 -3.81783 -4.81269 -7.05675 21
418 1 -9.32823 6.71992 15.919 11
419 1 -5.88138 15.525 10.0627 19
420 1 -10.7391 -9.1517 -8.37323 9
421 1 5.88344 17.7691 5.66721 20
422 1 5.45704 10.7639 7.9759 20
423 1 -9.36459 4.04705 9.72661 22
424 1 -9.13218 -4.45899 -3.72703 17
425 1 -11.38 5.25218 7.15298 20
426 1 -7.0836 -4.50989 -6.61171 21
427 1 -7.25066 16.3132 7.40212 21
428 1 -0.86247 -6.49441 -4.00059 21
429 1 -1.8872 -9.3322 -9.04889 19
430 1 -14.721 -8.77865 0.555371 9
431 1 -6.36738 -2.00371 3.46969 18
432 1 7.3823 3.67634 4.49641 23
433 1 -2.43676 -1.82159 14.3711 15
434 1 -9.0763 14.1378 -14.9154 10
435 1 7.38306 7.8132 2.60346 23
436 1 -11.3883 -9.72011 -2.4678 8
437 1 -2.65937 20.7706 -0.580795 9
438 1 -0.644342 10.9348 -8.68379 23
439 1 -3.0694 9.33241 9.88414 20
440 1 -17.4662 7.3362 0.664865 10
441 1 -4.59094 15.9639 -10.3597 17
442 1 3.14861 16.4661 -8.24515 16
443 1 -10.5711 -4.73638 -7.10889 21
444 1 2.40883 -1.01246 12.909 19
445 1 10.3657 -10.1627 -6.85141 9
446 1 1.28082 -1.61009 -10.9182 18
447 1 9.84489 -9.68121 1.99545 16
448 1 -10.2485 12.2002 11.748 13
449 1 -2.34562 6.28159 15.1019 18
450 1 7.69782 15.4846 0.115557 21
451 1 4.5358 15.8274 -0.146632 21
452 1 -6.47124 6.42575 -14.2735 19
453 1 0.939501 8.20942 -8.76926 21
454 1 2.58722 -4.90286 4.0612 21
455 1 -15.6143 -0.139728 6.95287 20
456 1 4.09275 19.824 8.15731 13
457 1 -6.02714 2.70322 -18.3603 9
458 1 7.59701 9.85849 -0.206435 22
459 1 6.59931 15.3193 -8.72427 20
460 1 7.00535 -2.01603 -0.71053 21
461 1 11.8316 10.0286 3.88254 19
462 1 -6.20226 0.899656 -14.0446 16
463 1 -1.45128 -6.83959 1.27119 21
464 1 0.743624 -7.72655 10.3173 17
465 1 -0.785221 -4.50062 11.1824 18
466 1 -7.6604 5.62969 -9.04011 19
467 1 -13.6375 -1.60824 9.432 18
468 1 2.88678 -5.94247 -10.3283 16
469 1 7.92776 16.6968 11.0142 11
470 1 -2.99625 0.45737 -13.7188 17
471 1 5.30646 4.08314 18.086 9
472 1 -12.6628 1.19812 15.0696 10
473 1 -8.50447 -9.13914 -10.8698 6
474 1 -13.7652 5.1791 -0.107267 18
475 1 13.4863 -7.1438 -1.7125 14
476 1 16.6126 8.75156 0.673798 9
477 1 -11.4114 12.9784 -12.102 14
478 1 4.03449 -2.01484 -6.01471 20
479 1 2.33096 2.87155 -13.3399 21
480 1 9.33704 1.09588 -6.7978 18
481 1 -6.14968 5.60892 14.9115 16
482 1 -0.299051 18.7203 4.3632 15
483 1 -10.4992 -3.84028 -13.352 10
484 1 8.84515 8.03603 -10.6171 21
485 1 -8.17455 5.16417 12.5236 17
486 1 0.666374 20.6627 6.84209 11
487 1 -13.8449 -3.9623 -8.30474 12
488 1 -14.3545 -0.0784222 1.0677 21
489 1 3.65568 -4.43162 -12.9076 17
490 1 -6.68864 -9.97446 7.5089 12
491 1 1.17419 13.4237 -8.94859 18
492 1 13.6491 9.23891 10.7971 13
493 1 7.26754 13.9984 -2.47229 22
494 1 -10.5654 -5.7646 -0.270309 15
495 1 2.6651 -4.61312 -1.45248 19
496 1 -1.56977 -4.72722 -14.0929 13
497 1 -10.4979 16.6155 0.370934 13
498 1 4.74133 2.3959 -8.61182 20
499 1 10.6193 2.59098 2.07127 24
500 1 6.17677 18.2954 -7.48896 14
501 1 3.7801 -1.98831 4.50554 22
502 1 12.2604 6.77071 -5.57569 20
503 1 -1.19576 15.1062 16.2961 6
504 1 -12.8227 5.19452 13.6791 12
505 1 10.3555 9.36681 9.88576 15
506 1 7.67739 -2.10138 9.79125 16
507 1 3.41917 -1.33664 -14.304 15
508 1 -8.23772 -10.7548 -7.74072 9
509 1 0.42594 3.47498 10.1145 21
510 1 8.34929 14.4392 13.9172 10
511 1 12.3594 13.3417 -5.6564 13
512 1 -10.5958 10.7889 -3.76654 22
513 1 6.05686 18.5137 -0.51676 19
514 1 14.6833 1.03996 11.9233 13
515 1 11.4221 9.26755 -11.1527 9
516 1 11.3964 -7.41346 -4.79861 17
517 1 12.0233 11.7565 9.08144 13
518 1 -12.0883 -2.9083 6.29662 20
519 1 -6.18099 15.3162 -12.8801 20
520 1 -3.12792 3.62252 10.0262 22
521 1 -14.6778 5.12569 7.99636 17
522 1 -7.16736 14.4786 -9.67329 22
523 1 2.38734 -6.75535 1.39515 22
524 1 10.4833 5.66903 -11.4538 17
525 1 -0.80674 15.8758 -3.21749 20
526 1 -11.511 -4.09397 -10.4263 17
527 1 0.515803 -9.72141 0.924198 18
528 1 -14.3846 3.01767 2.3637 19
529 1 -2.4132 7.94137 -16.4892 15
530 1 -1.64376 10.5542 12.6124 18
531 1 -10.3835 1.16944 10.22 19
532 1 5.71813 12.6252 -0.319771 22
533 1 2.94273 -4.74299 -6.86569 21
534 1 4.04284 -2.17467 9.8231 18
535 1 9.16928 4.92494 -2.42575 24
536 1 -11.9141 9.47376 4.05781 20
537 1 1.40441 2.75906 15.631 17
538 1 6.50864 20.2402 -4.57236 11
539 1 14.3564 4.99225 -0.932307 14
540 1 4.36809 17.5994 10.7628 14
541 1 -0.794722 1.72602 -15.0124 15
542 1 -12.0851 -5.72452 7.52459 10
543 1 -1.02849 5.01087 -8.8662 22
544 1 14.0794 -5.60057 -4.32946 13
545 1 1.45243 17.3024 11.2943 13
546 1 10.1535 10.2738 -7.86756 20
547 1 -4.59726 -1.79737 -11.6586 17
548 1 -3.07457 -6.78298 -1.80218 18
549 1 -10.8542 5.80202 -8.42867 17
550 1 12.3132 5.29518 2.64076 19
551 1 11.0661 13.828 -2.55296 20
552 1 6.75426 -0.740171 -8.54387 23
553 1 12.8412 4.42263 15.368 7
554 1 6.48603 -11.8539 -1.70314 12
555 1 4.01834 2.22441 -15.4763 12
556 1 9.49209 16.024 2.44587 17
557 1 -9.54179 8.03883 1.33344 19
558 1 5.39796 14.6925 11.2875 19
559 1 7.51453 13.417 2.76334 21
560 1 12.928 1.68097 -1.0513 20
561 1 7.93269 7.47171 -7.48538 22
562 1 8.29818 -7.07724 6.27316 15
563 1 12.793 -1.62925 6.85628 17
564 1 0.39831 -2.42413 9.63893 20
565 1 9.14746 16.4091 -2.57699 21
566 1 4.70903 4.40427 14.7769 20
567 1 10.9468 7.66162 -2.39796 22
568 1 5.13175 5.91804 10.4806 24
569 1 -4.44052 5.43445 -9.34904 17
570 1 10.1531 9.204 6.0508 19
571 1 7.37862 1.81938 6.65504 18
572 1 -11.4102 10.8049 7.15977 18
573 1 5.02709 15.5169 14.3269 8
574 1 14.3532 6.92659 12.85 11
575 1 2.56583 14.0398 10.5749 19
576 1 -1.05727 13.3993 10.7306 14
577 1 8.55036 5.96046 5.20659 22
578 1 -7.53372 -6.80083 -3.99712 17
579 1 -1.95 17.0719 -9.88121 15
580 1 8.26392 14.3757 -11.0619 13
581 1 13.3576 -1.53409 -8.34633 13
582 1 -0.994296 18.5304 -5.63429 22
583 1 -3.09221 -9.38159 -3.85474 18
584 1 11.5406 -2.26145 -4.68264 19
585 1 -19.6287 4.04455 7.98488 10
586 1 -3.99018 10.5162 -8.66821 20
587 1 -3.14201 -7.26522 4.54427 17
588 1 -7.67928 1.46514 -11.6232 20
589 1 -11.2804 8.0492 -6.30417 18
590 1 12.0429 -0.752321 1.02514 22
591 1 11.1068 15.3179 0.211719 19
592 1 -2.71765 -4.21498 6.38173 18
593 1 -14.4052 5.06172 -3.3514 15
594 1 0.460045 -0.540824 -13.7586 19
595 1 -2.1359 1.06339 14.2056 14
596 1 5.9914 12.9316 -12.9703 11
597 1 14.3914 -1.95393 2.57627 12
598 1 4.35876 9.65778 -5.71648 23
599 1 10.6659 15.0542 5.54666 16
600 1 -4.59093 -10.8136 -1.84473 9
601 1 -10.2149 -0.850414 16.9392 6
602 1 9.90805 7.38248 8.36304 20
603 1 -4.7732 12.1068 10.6697 22
604 1 3.13679 18.126 -11.9118 6
605 1 -14.1289 13.3555 -6.91799 11
606 1 7.50081 14.8455 5.70983 20
607 1 -14.1955 -5.89284 -0.608337 15
608 1 12.4047 4.79973 -3.26641 21
609 1 8.20122 21.8417 3.57893 9
610 1 -8.05098 11.1344 6.58185 22
611 1 -11.3464 -0.808603 0.606715 18
612 1 -12.815 -0.34809 -7.63594 15
613 1 12.7193 1.20339 9.64945 19
614 1 -8.41067 -7.21141 12.4058 11
615 1 6.61508 2.76505 9.65377 22
616 1 -9.23238 13.9653 -3.80162 21
617 1 8.90707 10.4092 2.68132 22
618 1 8.64045 9.24285 12.9283 21
619 1 4.16957 3.65647 -11.1006 20
620 1 -7.65231 4.77772 7.17471 20
621 1 7.61256 2.49909 -8.44815 21
622 1 8.23385 -5.4186 -1.61573 18
623 1 1.39067 11.5836 10.8223 21
624 1 0.881935 13.4997 2.24078 22
625 1 -7.3361 11.1799 12.4721 17
626 1 6.83801 9.10046 5.38281 23
627 1 -3.4291 1.19254 11.3178 20
628 1 -3.18205 7.57935 12.4799 16
629 1 -2.10411 -3.07566 -8.57731 20
630 1 -8.04038 7.15567 9.93041 20
631 1 5.87854 3.80582 12.1918 21
632 1 -11.7247 -6.74792 13.1087 6
633 1 12.4818 12.4528 -0.277316 19
634 1 0.863579 -9.54532 -3.88993 17
635 1 6.07612 16.9009 -2.87905 21
636 1 10.8557 20.6533 3.2456 14
637 1 9.55385 3.18581 -13.4911 11
638 1 4.07798 19.1141 -3.01347 22
639 1 1.4934 20.8276 -0.714521 13
640 1 -8.07775 -9.44146 -1.62436 15
641 1 -4.29358 -3.4624 -15.6504 11
642 1 -8.18756 16.7345 -2.01276 16
643 1 7.35582 -3.86172 -3.81137 20
644 1 2.70781 10.4724 -9.04953 21
645 1 13.0188 19.2345 0.604903 10
646 1 -11.3866 10.7632 1.71879 16
647 1 5.53362 10.8316 -2.97311 22
648 1 11.1692 4.37906 9.67858 20
649 1 13.6025 0.955632 14.7717 7
650 1 1.61907 -10.629 9.48459 12
651 1 -9.45726 14.7901 -11.0782 17
652 1 -0.785553 16.7426 6.78352 18
653 1 6.76118 -1.97461 -13.6714 15
654 1 -1.64786 4.38684 12.6874 23
655 1 2.76471 21.366 -3.29333 13
656 1 9.25961 11.4855 14.3222 12
657 1 15.4622 -3.93422 -2.90006 11
658 1 6.76765 6.61045 13.8607 20
659 1 -11.2174 -0.818356 11.9911 20
660 1 8.40398 -7.50397 0.360597 20
661 1 1.16021 1.91282 -8.58292 23
662 1 -0.798058 21.352 -3.98254 12
663 1 5.31823 16.8894 8.44301 21
664 1 -18.4797 -0.83827 12.6401 8
665 1 -3.51099 8.8271 18.8212 13
666 1 -5.86682 8.93617 -16.4926 12
667 1 -3.25738 6.32257 -14.2082 20
668 1 10.9094 -8.75874 4.86463 11
669 1 5.66602 12.8887 -5.43147 23
670 1 -15.2698 4.4426 11.5255 13
671 1 5.99246 4.89004 -8.33039 22
672 1 1.76935 -5.26634 11.968 14
673 1 2.84838 18.5995 5.20201 21
674 1 -3.58153 3.70619 15.5965 17
675 1 -6.98029 -0.510195 -9.17656 22
676 1 -0.996373 -9.94052 -6.80047 21
677 1 3.07666 -11.163 -10.2723 7
678 1 1.12326 20.6631 -6.1928 12
679 1 5.91678 0.868493 -5.89035 22
680 1 -5.84847 13.6164 7.17977 22
681 1 5.9198 -4.66958 -6.40165 22
682 1 5.80703 -14.0452 3.3261 6
683 1 2.34259 -0.737578 7.36063 22
684 1 10.2209 14.5814 -8.49159 13
685 1 -0.360098 -4.38725 -6.13248 22
686 1 -16.0203 1.90247 9.31273 16
687 1 -4.44108 -6.39949 -4.57108 19
688 1 -8.81098 -3.18614 -9.69757 21
689 1 -5.94563 2.47018 17.8868 6
690 1 1.24633 -13.765 0.48877 8
691 1 12.4593 10.3908 -2.26879 21
692 1 -2.58018 19.7533 8.28978 14
693 1 -6.31156 7.97117 7.25825 22
694 1 -15.4437 9.48203 2.61304 16
695 1 8.51089 4.76168 1.74039 22
696 1 -10.4655 1.42021 -6.87618 21
697 1 -0.636866 12.5824 -6.16831 19
698 1 11.2427 7.43562 -8.63625 16
699 1 4.75736 11.7924 11.318 19
700 1 13.0985 16.8188 2.78944 9
701 1 -12.7689 8.52775 -3.03878 17
702 1 -12.5572 -5.00326 -4.66167 13
703 1 -0.300405 5.02975 16.5404 13
704 1 6.29671 6.93601 -10.6047 21
705 1 6.34871 13.7858 8.58193 19
706 1 -1.5626 0.724766 8.87924 22
707 1 -9.69981 -9.44589 -5.05243 12
708 1 -10.7131 -9.24443 0.723282 11
709 1 -4.69402 -1.57525 6.7202 19
710 1 5.53782 9.06196 13.639 20
711 1 5.17622 1.0275 -13.1185 22
712 1 -11.1423 12.8385 -0.630668 20
713 1 4.17574 13.4251 2.4045 22
714 1 -7.68108 0.891652 4.23218 21
715 1 2.11157 13.7757 -15.12 12
716 1 -5.24226 -10.822 -8.14718 12
717 1 0.172074 -11.4447 -1.58198 15
718 1 2.03641 -6.6953 -3.86322 23
719 1 0.370919 7.12242 -13.9413 18
720 1 4.0961 15.405 5.29651 21
721 1 -7.47628 -1.91589 -15.3758 13
722 1 0.109858 1.80007 12.6689 20
723 1 -2.13232 10.6722 -11.2954 18
724 1 -8.88683 2.77091 -8.85173 21
725 1 -12.3326 2.18475 0.675411 20
726 1 4.39122 20.9457 -6.0974 9
727 1 -4.47619 -5.2418 -12.703 17
728 1 -15.139 -3.30266 -2.83356 11
729 1 7.37475 4.50337 -11.434 22
730 1 10.4671 -2.46786 -1.00384 19
731 1 -3.59207 16.0512 12.5784 12
732 1 4.09967 -3.85315 1.89573 23
733 1 15.579 0.697168 -6.85129 12
734 1 13.4426 -1.43215 11.8235 11
735 1 -2.99802 15.4965 9.54399 17
736 1 -13.4184 10.6593 10.0961 14
737 1 -14.7878 10.4417 7.50686 13
738 1 0.773118 -11.4261 6.58446 13
739 1 14.4445 9.53937 7.54228 11
740 1 6.25382 12.1719 14.0812 17
741 1 -19.5176 5.51716 2.40657 9
742 1 14.5114 2.23139 -3.77094 18
743 1 -12.9156 13.5303 -3.9655 16
744 1 -0.134768 19.3366 0.986486 17
745 1 2.06325 -6.95751 6.59385 19
746 1 5.17243 -4.67454 10.0915 14
747 1 -4.23447 16.7641 7.23945 20
748 1 -4.14192 -8.6167 9.88162 13
749 1 -9.40178 3.93321 -0.779105 21
750 1 3.44738 3.0475 10.0682 19
751 1 -17.4224 -0.120565 1.14343 13
752 1 -0.382267 9.84804 19.2363 10
753 1 4.40762 14.076 -2.95377 21
754 1 -15.5913 -3.50792 8.30122 12
755 1 -7.73793 -5.47234 -1.00473 16
756 1 4.89346 0.203816 10.6927 22
757 1 15.4243 -3.53398 6.05481 8
758 1 8.5667 16.1847 7.90491 18
759 1 -2.46414 -1.55829 -6.1591 20
760 1 -1.0567 6.97934 -11.7307 23
761 1 -7.78363 7.96671 13.2934 16
762 1 5.34367 20.4831 5.0618 11
763 1 14.7476 6.52795 2.08333 14
764 1 2.92814 12.5063 -6.67231 20
765 1 -6.09662 11.5031 16.424 11
766 1 3.42069 13.6505 7.71169 19
767 1 7.72852 -1.67347 -5.69922 20
768 1 -5.681 -7.88143 -2.2454 19
769 1 17.1081 5.77858 10.9326 6
770 1 -5.91627 -4.15573 -3.37964 21
771 1 -4.1316 5.31688 17.7703 13
772 1 6.36339 -10.713 -11.9882 5
773 1 -3.24159 13.0696 -13.6993 17
774 1 -2.43539 -3.83142 -3.51571 23
775 1 13.7651 9.11259 -6.78872 11
776 1 16.071 1.79193 -1.01369 10
777 1 8.83067 -1.35255 6.66123 23
778 1 -5.62712 -3.9951 -9.68803 19
779 1 7.7913 18.8668 2.93909 17
780 1 -15.6819 5.14449 5.28421 18
781 1 9.22773 12.2509 -4.78086 22
782 1 10.7493 7.41883 2.89505 21
783 1 5.84926 -1.0163 -16.2548 12
784 1 -9.04833 20.064 8.10755 10
785 1 15.4732 13.0177 0.0114844 9
786 1 7.94215 19.7916 -2.213 16
787 1 0.781591 4.35231 -11.1224 22
788 1 9.28573 1.43408 -0.822297 21
789 1 -10.7233 6.76599 -1.19203 19
790 1 14.0164 19.219 3.95884 8
791 1 -12.4035 -7.10468 2.12776 13
792 1 -10.7685 12.0836 -6.45017 20
793 1 3.76975 7.35735 7.50937 21
794 1 -8.69758 -1.46573 -6.7231 20
795 1 -17.2225 2.98699 1.75532 15
796 1 -2.47811 8.08571 -8.93035 22
797 1 15.7279 -0.475537 -3.71449 15
798 1 -11.1823 -2.13139 -8.48829 22
799 1 14.7354 -1.51359 -0.633252 14
800 1 -18.9272 4.37912 4.70979 15
801 1 -11.5758 -4.85583 4.26703 17
802 1 11.9638 12.4707 5.70826 14
803 1 -0.964383 -12.885 1.7068 10
804 1 8.73586 0.763338 9.83892 20
805 1 15.04 5.78283 -4.94448 13
806 1 5.79491 0.647739 4.446 23
807 1 -12.5534 7.80385 0.570334 20
808 1 0.125405 8.88291 9.92036 22
809 1 4.44197 7.78701 -8.42106 23
810 1 -3.4023 -5.78826 -10.239 19
811 1 -8.95963 14.1682 7.35437 20
812 1 -14.5813 -3.74389 5.59053 17
813 1 7.92723 12.8045 -7.81672 20
814 1 3.31971 8.84182 10.3785 20
815 1 15.0169 -2.60809 -6.12832 14
816 1 5.68781 -1.04186 7.11629 22
817 1 6.522 17.7167 -10.9383 9
818 1 1.06834 15.5492 -6.23581 20
819 1 -10.3135 2.82549 12.5888 17
820 1 14.1229 10.0908 1.43312 17
821 1 -9.53766 -0.576087 -13.5916 18
822 1 9.59659 13.1146 8.31738 15
823 1 -13.6206 7.02156 3.46985 19
824 1 -3.11863 -3.93068 12.607 17
825 1 2.78229 13.0115 -11.3895 21
826 1 5.31925 -6.75104 7.75369 21
827 1 0.193638 -7.83815 -1.03486 20
828 1 -5.98676 15.5181 4.40293 21
829 1 -11.2296 15.3034 -2.19699 14
830 1 10.8011 3.86337 -5.79117 19
831 1 4.29436 -3.62726 -9.23098 22
832 1 -7.73406 12.6574 4.06277 23
833 1 9.1045 11.5942 -10.2391 15
834 1 -6.11589 1.85542 6.42336 20
835 1 4.75458 -4.43947 -15.3854 9
836 1 -4.00587 -8.40462 -10.6753 12
837 1 -0.849642 -4.59138 -1.13995 20
838 1 -4.50966 8.29834 15.8138 18
839 1 7.76616 -8.61148 4.32975 19
840 1 -6.40463 9.49107 -13.1158 18
841 1 10.8086 9.56227 0.387838 23
842 1 5.82727 10.4877 2.57591 25
843 1 3.89151 -9.43919 1.67169 16
844 1 8.61494 -0.0391989 -13.6834 14
845 1 15.7291 3.00064 8.75086 10
846 1 -4.29373 7.24954 -11.7063 16
847 1 -0.771742 -5.75337 8.29253 17
848 1 7.49073 15.9458 -5.9385 17
849 1 5.90017 6.77669 -5.48844 21
850 1 -14.1777 12.736 -10.5214 10
851 1 -12.8895 8.42621 12.9579 8
852 1 1.10974 7.11623 15.8161 16
853 1 -7.80549 -4.67686 10.1323 21
854 1 6.13787 15.9951 2.97837 23
855 1 6.52258 -10.0992 1.05166 21
856 1 1.12773 13.6163 -3.35072 21
857 1 -4.59525 9.9413 13.0613 16
858 1 -10.5138 6.90252 11.537 17
859 1 -9.32026 15.603 4.15534 17
860 1 9.1422 6.71758 -0.270667 23
861 1 -3.934 -5.79199 9.60945 19
862 1 3.5257 -9.56411 7.44678 17
863 1 10.1072 14.0892 11.4423 10
864 1 10.6654 2.11704 -3.38154 19
865 1 2.2228 -10.5576 -6.40329 17
866 1 -7.81245 4.27446 -16.411 15
867 1 -2.99799 2.66104 -17.8784 12
868 1 1.75455 15.181 14.4795 11
869 1 -13.2853 2.12462 12.2909 16
870 1 -5.70441 10.066 -5.79972 19
871 1 -13.9526 11.4839 -2.28187 16
872 1 9.90486 20.775 6.53213 10
873 1 -5.42598 -10.2408 1.09162 12
874 1 -0.95336 12.5396 4.82932 24
875 1 8.68077 11.8898 5.20812 24
876 1 -14.3393 -7.95673 -3.0751 9
877 1 7.38678 19.055 8.84369 14