ITEM: TIMESTEP
17000
ITEM: NUMBER OF ATOMS
2000
ITEM: BOX BOUNDS pp pp pp
-30.0 30.0
-30.0 30.0
-30.0 30.0
ITEM: ATOMS id type x y z Coordination
1 1 -10.8269 3.88925 -14.3819 20
2 1 -5.93343 -11.9062 -11.9314 15
3 1 0.286875 12.7553 7.43266 17
4 1 5.14691 -11.1279 0.235581 16
5 1 -13.6477 8.17922 -4.9394 20
6 1 4.25348 -7.5844 -17.045 17
7 1 -13.6827 6.02443 -9.27398 18
8 1 -2.22755 -7.00863 7.40065 15
9 1 -6.63663 -1.70365 -22.1885 7
10 1 -15.4428 -10.5641 -0.616048 14
11 1 8.36093 1.02423 -15.8888 14
12 1 -4.92303 -13.5097 -1.5017 19
13 1 -13.532 -6.21937 -4.04904 21
14 1 -10.6963 7.02326 12.5063 13
15 1 -2.48179 11.5918 -12.21 17
16 1 -0.535963 -2.25223 8.69181 18
17 1 -9.39166 5.73227 -19.2539 10
18 1 -10.4805 -0.595135 9.05717 19
19 1 11.2476 7.15019 2.94447 13
20 1 -2.25327 8.67619 -13.7963 18
21 1 0.727029 3.402 -17.4821 18
22 1 9.78412 2.00912 10.225 17
23 1 -13.2058 3.21714 -11.0773 20
24 1 -11.3773 7.22536 6.63428 21
25 1 5.55029 -10.6992 3.65895 12
26 1 0.493584 -12.9404 -15.893 11
27 1 7.46254 -9.60918 -5.35534 20
28 1 -13.7569 -8.30495 -6.50362 22
29 1 -12.8453 -3.35068 8.21817 16
30 1 -3.12292 -6.95539 -17.1154 22
31 1 7.86951 -11.3213 -16.8372 6
32 1 -2.84618 4.43998 -19.9452 16
33 1 -3.25073 4.97252 7.14548 23
34 1 -1.98215 -12.6696 3.7991 21
35 1 0.474139 -1.66734 11.6887 14
36 1 -13.4257 -0.672284 -3.17316 18
37 1 -17.1657 -1.44415 4.62777 9
38 1 -7.63503 13.7867 -7.30555 21
39 1 -3.03027 -14.9972 -11.4552 13
40 1 3.01086 -6.57894 -13.2061 21
41 1 -0.395724 1.18001 13.6378 11
42 1 -10.4789 7.30707 -3.25597 19
43 1 4.43697 13.8155 -14.0789 10
44 1 2.77205 11.1135 7.79155 18
45 1 -13.3274 5.67011 -12.883 14
46 1 -2.25699 16.9234 -5.83358 21
47 1 0.683529 -10.6518 0.188635 21
48 1 5.34665 -7.85354 -8.08901 20
49 1 -2.2149 -5.19626 -19.7991 17
50 1 -7.98992 13.4558 9.11773 9
51 1 -15.6456 0.626152 -10.4256 15
52 1 -8.11048 7.36596 -7.63015 18
53 1 -11.1246 -11.3133 3.11858 19
54 1 -6.76374 15.8338 6.60386 7
55 1 -16.674 6.24647 -10.1742 12
56 1 -2.32988 13.0514 12.979 11
57 1 -4.76025 -16.2687 2.84116 12
58 1 -1.74675 -18.0482 -10.3596 5
59 1 6.06655 14.3216 9.30307 11
60 1 -13.5127 -1.15594 -13.3741 18
61 1 -15.635 2.98693 -13.0175 12
62 1 4.71019 10.2892 5.64564 20
63 1 10.9421 -2.89201 -13.2181 11
64 1 8.65051 -8.93524 3.15056 10
65 1 -15.8829 -4.98297 -0.14704 14
66 1 2.64691 16.9365 -0.177511 22
67 1 3.6888 -1.33363 10.2511 14
68 1 -10.8402 -14.0065 1.02596 19
69 1 8.5003 5.74653 4.91904 21
70 1 0.806517 15.1267 4.95133 16
71 1 -4.9827 -7.4135 -11.2569 21
72 1 -19.3633 8.09362 1.08101 8
73 1 -10.6904 10.0983 -4.36838 20
74 1 -5.43477 6.42363 -16.5768 15
75 1 10.8194 13.7264 -8.82356 11
76 1 6.01884 -8.69025 6.08188 12
77 1 -7.1283 16.8341 -3.79203 12
78 1 -15.4475 12.6512 -5.37543 9
79 1 -7.95751 -1.08515 10.5307 18
80 1 -8.12174 -6.89388 3.46828 21
81 1 9.49314 -4.21031 -10.3526 14
82 1 -11.1683 4.0223 2.13705 21
83 1 -13.1403 -12.1532 -0.359866 17
84 1 10.206 -7.85757 -5.00428 13
85 1 3.24234 2.31225 -15.0838 22
86 1 -6.2027 -2.17996 -17.7994 18
87 1 -2.85328 13.5065 2.81055 16
88 1 -10.6096 7.5021 -13.5417 17
89 1 5.33419 9.45352 11.293 18
90 1 -5.78506 17.1877 -9.29691 12
91 1 -15.9856 10.668 -2.75363 15
92 1 -8.46402 -10.3746 4.8014 22
93 1 12.0167 -0.899557 4.38711 12
94 1 2.75592 -9.31102 -11.7276 19
95 1 2.41495 1.02594 11.724 14
96 1 -13.9339 -7.09579 -0.147698 20
97 1 -10.4944 -8.01236 -7.5682 22
98 1 7.93802 -9.24649 -1.81847 16
99 1 5.8049 3.10328 -17.3113 14
100 1 4.19918 18.4673 -2.31479 15
101 1 -3.5448 -7.40911 10.6469 11
102 1 -10.3847 -14.5899 3.91435 12
103 1 2.40331 -7.64933 -19.2586 10
104 1 4.92761 -7.94686 -4.78218 21
105 1 -2.40521 -15.2484 4.7354 12
106 1 -10.8953 -7.93928 -1.44675 21
107 1 11.2702 4.38708 5.22357 18
108 1 10.1391 0.952858 -9.47036 16
109 1 -15.9588 -4.83126 -3.31104 16
110 1 9.82833 6.91035 0.287158 19
111 1 12.9861 11.7025 -5.42536 15
112 1 -10.4486 3.91844 12.2748 12
113 1 -11.7103 9.92856 4.927 17
114 1 -7.28531 16.7422 -12.6653 12
115 1 -2.51342 -6.96295 -13.0806 21
116 1 7.71344 -9.88627 -12.9024 15
117 1 -1.72888 12.4019 -15.0596 11
118 1 7.19648 -0.696513 11.6307 13
119 1 -0.832531 -0.926118 -19.2722 21
120 1 -6.32886 9.50981 -10.6555 15
121 1 7.91498 2.07529 -7.92283 22
122 1 -11.2606 12.2127 -10.2757 15
123 1 -11.9766 12.5999 0.963071 17
124 1 3.05614 -0.575035 -13.2689 18
125 1 8.85716 -6.30278 3.28583 18
126 1 -8.93728 10.9564 3.28436 20
127 1 10.567 7.59301 -9.4568 14
128 1 2.75867 14.0263 -4.43476 18
129 1 -4.81848 15.7146 -5.57516 21
130 1 9.25684 10.626 -8.07856 17
131 1 -0.902598 12.3164 -2.80856 19
132 1 -4.31391 11.5748 -15.3164 12
133 1 2.76029 10.9588 -16.6348 14
134 1 -13.3133 -13.3795 2.4962 13
135 1 -16.4903 9.37418 -5.37959 14
136 1 -12.2984 1.26817 -16.61 15
137 1 -3.2115 -10.3267 -18.462 13
138 1 5.05757 14.7152 1.23738 18
139 1 -1.43751 15.9698 3.15149 14
140 1 -13.1632 -0.811408 -10.0206 19
141 1 -11.5005 12.8596 4.26245 13
142 1 10.6145 -1.95913 -8.72408 16
143 1 -11.322 3.77571 -17.6836 14
144 1 4.23504 5.35127 9.23122 20
145 1 6.44589 17.0362 -7.20296 17
146 1 -5.20426 13.3121 7.06862 17
147 1 -9.25355 -6.40992 -15.673 20
148 1 -8.02742 12.7621 6.13057 18
149 1 -7.77174 11.7495 -9.23846 18
150 1 -2.14561 -1.93434 13.6503 10
151 1 -17.0267 -8.49801 -7.20659 14
152 1 -8.01447 -12.653 -15.9294 8
153 1 -9.47144 13.7648 -13.2751 11
154 1 -5.10164 -10.7956 0.579527 22
155 1 2.81943 -12.2443 -9.96427 17
156 1 -5.15526 12.6322 -10.1755 16
157 1 -16.6586 1.33136 3.05735 15
158 1 13.1033 8.98451 -7.42846 11
159 1 -7.62555 8.19994 10.7699 15
160 1 -2.34999 -12.8214 6.81955 12
161 1 0.539692 19.7201 -1.00396 11
162 1 -6.48545 10.324 5.28373 21
163 1 7.44555 4.86661 10.5074 14
164 1 -13.4648 14.4025 -1.39116 9
165 1 10.9516 -5.53361 -7.53413 15
166 1 -9.67267 10.6706 6.83148 15
167 1 12.0229 -5.21224 -4.63186 13
168 1 -15.7258 -1.95981 1.62086 17
169 1 -13.8492 -9.12802 -2.96556 20
170 1 -0.269954 14.0227 10.646 10
171 1 -16.9071 0.966946 -6.74271 15
172 1 -4.44442 -17.7433 -3.27653 15
173 1 -5.80614 9.90852 2.10725 20
174 1 3.08643 13.5742 9.46159 14
175 1 -10.6002 10.8043 -13.2594 11
176 1 -15.5785 -2.48504 -11.8815 17
177 1 -9.12047 -3.66316 11.5156 15
178 1 -2.6093 -9.78894 2.30385 20
179 1 3.18908 -13.0995 -0.261431 17
180 1 -14.7041 13.0224 1.92975 10
181 1 10.4609 3.85399 -0.623448 14
182 1 -8.16101 -6.46984 -12.4377 18
183 1 2.37259 2.44657 8.77605 20
184 1 -2.24078 -20.2764 -7.98545 7
185 1 -8.28593 4.86522 -16.6019 19
186 1 2.68802 -12.017 -14.2018 15
187 1 3.08814 0.905663 -17.6655 20
188 1 2.65883 8.10256 -18.3799 14
189 1 -7.67265 -3.23941 -11.1124 23
190 1 -8.31981 17.4705 -9.4002 10
191 1 -11.0052 -11.5349 6.42559 12
192 1 5.59919 16.1722 -4.62179 18
193 1 -6.56639 2.63749 12.8117 13
194 1 -10.3982 12.6297 -6.83621 22
195 1 5.32903 0.848758 7.22308 20
196 1 -5.65211 -8.28597 -17.51 16
197 1 -7.40667 10.5652 -13.5524 13
198 1 0.634269 3.50156 -14.4617 19
199 1 -9.42587 -10.1225 8.60249 10
200 1 -13.9652 7.55717 1.23218 19
201 1 -11.5782 -1.35147 11.429 16
202 1 -2.94246 -12.4185 -10.1199 20
203 1 -9.00658 -15.2157 -5.66328 15
204 1 6.77576 -13.0013 -5.4735 16
205 1 10.7121 7.35904 13.423 10
206 1 2.92205 11.1908 -13.0731 16
207 1 -11.9615 14.4647 -4.62302 14
208 1 -0.400648 6.66733 7.02363 19
209 1 1.33829 -15.7619 -5.02558 17
210 1 8.47615 -0.986891 -6.31059 18
211 1 -11.1298 7.00456 0.0481731 20
212 1 -10.9838 -5.26799 -6.5145 23
213 1 8.13426 4.6184 -15.6623 14
214 1 3.32723 -4.22255 8.56142 14
215 1 8.16671 10.4887 -13.1889 13
216 1 -4.87118 -2.43481 -14.8632 19
217 1 -1.19113 -16.7932 2.04722 11
218 1 5.60825 -1.70228 -11.8512 18
219 1 -13.1518 -0.999301 -0.0178926 18
220 1 -0.643614 -16.5106 -6.8111 18
221 1 -13.6148 -4.57407 -14.4087 18
222 1 3.10397 16.5662 -5.47604 21
223 1 6.81506 -1.7815 -17.2559 16
224 1 -0.673527 6.87015 10.4384 20
225 1 14.0237 5.45962 -4.01758 10
226 1 6.96868 -8.41862 -18.3263 13
227 1 -9.15803 -4.35505 -17.9847 18
228 1 -16.8605 0.526941 -13.3975 12
229 1 -7.90904 -13.0571 6.33898 10
230 1 7.98371 0.291774 8.76608 21
231 1 -5.80345 -8.10805 -14.6147 20
232 1 -1.52634 6.30286 -17.0385 18
233 1 0.984657 13.9272 -0.998128 21
234 1 -8.2745 -1.50152 6.84023 18
235 1 -16.3315 -5.39764 -13.369 11
236 1 -5.79617 -5.00147 -12.7244 20
237 1 -5.82703 6.14861 -19.8755 12
238 1 -7.57162 -6.41555 -9.25701 23
239 1 8.04374 -8.43301 -15.9036 13
240 1 10.8231 0.0948691 -12.2771 12
241 1 7.36471 4.81555 1.61565 17
242 1 -7.69684 -4.51994 8.42366 16
243 1 -5.57722 -10.5622 -3.18341 22
244 1 7.01891 7.56447 13.5677 12
245 1 -10.2497 -16.8857 -0.112708 15
246 1 -2.4937 -12.6119 -3.25858 19
247 1 -2.52124 18.6323 -7.79895 12
248 1 3.72887 4.17518 -18.8936 17
249 1 -9.00553 -2.18512 -19.8092 13
250 1 -13.8709 -11.346 5.41481 11
251 1 0.801889 12.6975 13.2084 9
252 1 -0.370366 -13.8386 -1.45358 17
253 1 -9.09597 -11.3226 -12.5831 13
254 1 -10.5906 4.54986 -11.5825 20
255 1 9.44742 10.7149 5.03404 17
256 1 -7.96724 4.88696 -13.3168 23
257 1 0.117562 6.99487 -12.8883 22
258 1 5.84021 -7.23105 -11.5878 23
259 1 -7.33255 13.7328 -1.42027 15
260 1 -0.475964 9.51671 2.76945 18
261 1 7.29422 0.163586 2.21785 18
262 1 -10.8039 0.718547 3.15114 21
263 1 -3.27427 -5.18328 12.1871 10
264 1 -8.26449 8.22572 1.91816 18
265 1 -3.99574 -7.24168 -20.2471 12
266 1 15.2709 9.73037 -4.50196 11
267 1 3.36584 -13.1352 -3.65808 20
268 1 -6.01069 0.907442 10.1973 19
269 1 -15.8267 -4.66888 3.61891 16
270 1 -1.36967 -19.3488 -4.27774 12
271 1 -12.5685 7.91327 9.39422 10
272 1 -12.6097 4.90854 10.0998 13
273 1 -15.6143 -3.32585 6.42745 12
274 1 -15.9386 -8.56976 4.91648 9
275 1 13.2771 -3.44962 -7.24725 9
276 1 -13.4652 -9.80415 8.5426 8
277 1 5.0973 -4.58616 -13.2046 18
278 1 6.15194 -12.327 -11.5295 11
279 1 -4.86586 18.8601 -4.6439 11
280 1 -14.509 8.33901 -7.55138 16
281 1 12.2879 9.31679 11.1059 8
282 1 5.51536 -11.9512 -8.29355 15
283 1 -8.31885 10.9147 0.145159 19
284 1 2.80724 -12.6813 2.48633 17
285 1 8.16828 -3.59789 1.22362 20
286 1 -7.49438 5.83814 13.4276 14
287 1 -5.29883 12.7808 3.82255 17
288 1 10.356 7.25252 10.048 17
289 1 -9.68867 14.2967 -9.67478 17
290 1 -5.62578 -5.34103 -18.7857 18
291 1 2.6996 -8.45379 -15.1087 19
292 1 -9.16865 1.48482 11.9893 21
293 1 -13.4604 1.76178 -1.86598 21
294 1 -7.58751 10.8692 -3.0675 21
295 1 4.6942 -2.02601 4.7883 23
296 1 -10.5421 -10.8833 -3.14501 21
297 1 3.17031 -7.19182 3.77841 21
298 1 -9.28411 -6.90681 9.75171 16
299 1 -16.3226 6.78026 -3.46364 18
300 1 0.440125 -10.6749 -10.3595 21
301 1 -8.66797 -0.348443 -12.8839 22
302 1 4.8855 1.3979 -20.1769 9
303 1 3.54695 13.0759 -0.440733 18
304 1 -13.6433 -0.491174 -6.65972 21
305 1 -0.807248 -9.82902 -16.6375 15
306 1 9.80472 -3.12647 -16.1819 12
307 1 -8.13813 -12.0422 -9.86235 17
308 1 -14.8701 -11.295 -6.36149 10
309 1 8.87674 4.93069 7.97339 17
310 1 10.6821 3.6964 -4.7801 18
311 1 -11.7871 0.618018 -20.1286 10
312 1 5.04706 19.8434 -4.95918 12
313 1 -15.9643 -2.22899 -8.57878 16
314 1 -10.7111 7.08087 3.34196 21
315 1 -13.2678 12.0385 -3.50651 18
316 1 4.5411 4.55955 12.9199 16
317 1 8.05522 -0.850655 -10.451 19
318 1 6.7747 2.51277 12.8404 10
319 1 7.79755 5.05747 -6.17461 22
320 1 -8.01655 -12.5177 -6.61856 19
321 1 3.32535 -10.1608 -4.75549 16
322 1 7.03419 -0.211377 5.55074 21
323 1 -10.055 -4.98508 -9.69942 21
324 1 -8.22184 -9.7295 -1.66252 21
325 1 -11.022 -5.18468 6.63893 19
326 1 -10.4517 12.6199 -2.0746 20
327 1 -11.2979 -11.395 -6.01138 14
328 1 7.69301 8.66653 8.99172 17
329 1 -11.4737 7.09846 -6.66305 22
330 1 -0.402517 13.6474 -12.9357 11
331 1 8.41329 10.1639 1.09945 19
332 1 -16.3152 -8.21585 -10.6595 11
333 1 -5.17778 -10.4633 -9.96928 23
334 1 -13.0701 -1.23677 3.27699 20
335 1 -13.1486 10.9249 -7.02794 17
336 1 5.82382 -7.44245 1.81933 19
337 1 -5.52603 -13.6188 -4.9294 17
338 1 6.76127 15.8381 3.37914 8
339 1 -0.235836 6.61183 -19.6556 12
340 1 -13.5681 3.2552 -15.0555 15
341 1 -3.9888 17.6911 -13.0609 6
342 1 -10.6957 7.19283 -9.50455 18
343 1 -2.10715 -12.7723 0.456822 20
344 1 9.85801 3.94226 2.9769 14
345 1 0.580484 8.93461 -16.487 15
346 1 -17.3186 0.979032 -3.02614 10
347 1 -7.82086 -12.7234 -0.146347 20
348 1 8.05441 -6.86849 -10.0659 20
349 1 -13.2043 1.88419 1.64931 21
350 1 -14.5823 -0.623747 5.82114 18
351 1 -18.3408 5.64041 -0.623958 11
352 1 -6.42423 1.89178 -21.5903 10
353 1 6.70332 -9.66408 -9.62579 19
354 1 -11.2141 -8.39963 -17.0042 12
355 1 -5.51551 -5.48836 7.331 22
356 1 -3.46481 0.858008 -21.6298 13
357 1 3.4643 -9.75193 1.69916 19
358 1 0.100238 13.4482 -6.00476 16
359 1 -14.5488 10.7537 3.46318 14
360 1 -5.19699 -0.572638 12.7874 15
361 1 -15.2903 -4.26795 -16.9424 13
362 1 -10.6203 -5.17611 3.61141 20
363 1 6.30593 -3.53111 9.81994 10
364 1 5.80409 -4.6616 3.17667 21
365 1 7.33876 8.54222 -7.20141 21
366 1 -5.92731 4.09542 8.22738 18
367 1 -0.824741 16.8802 -0.975561 17
368 1 -5.29884 -13.1522 -8.37489 19
369 1 -8.62939 9.50324 13.345 9
370 1 -3.31425 18.0636 1.25784 7
371 1 -13.823 -9.36395 -9.19811 13
372 1 11.5628 14.3216 -2.93359 12
373 1 3.12737 7.64104 5.71855 19
374 1 -10.5287 3.83249 5.35563 23
375 1 -11.4877 0.731718 6.53532 23
376 1 -9.66885 -4.22955 -13.0904 18
377 1 -7.7854 7.62877 4.93048 18
378 1 -7.32987 -9.26931 -11.8452 19
379 1 -12.0999 -10.5431 -13.2286 8
380 1 -10.2761 -10.8127 0.247345 20
381 1 6.70281 3.01291 4.44613 19
382 1 -6.37338 -5.49245 10.7003 16
383 1 -12.9009 6.22187 -17.1683 8
384 1 2.67295 11.0288 -9.35182 20
385 1 -10.636 -14.5175 -2.23781 16
386 1 -0.991008 18.6239 -3.87021 16
387 1 -3.08477 7.98963 9.23526 17
388 1 -16.6734 -1.83448 -4.65999 13
389 1 -2.82839 16.0914 -9.94905 14
390 1 -0.962531 15.7444 -8.17018 18
391 1 -7.69802 -3.16819 -14.7919 23
392 1 -4.46897 4.94053 14.096 11
393 1 -0.0955501 -12.8021 -12.0253 18
394 1 -1.00319 -4.37744 -16.4316 19
395 1 5.82563 -13.7091 -2.20067 13
396 1 -18.25 8.67733 -2.17508 9
397 1 3.97596 7.13926 11.5853 21
398 1 4.90674 9.65087 -4.43198 19
399 1 -10.24 7.79693 -17.0032 10
400 1 -16.9779 -7.21948 -4.82684 13
401 1 5.74018 17.9804 1.42863 14
402 1 -5.73715 3.72892 -14.5324 19
403 1 8.01033 4.78781 -3.03297 20
404 1 6.33931 15.3728 -13.237 10
405 1 12.2345 6.13097 -6.87172 14
406 1 -2.21415 -1.09925 -16.3416 22
407 1 0.730025 -12.041 5.74411 12
408 1 -2.69818 -9.8963 5.64018 21
409 1 -11.5661 1.36225 -13.3543 19
410 1 -16.412 -7.83174 1.59492 13
411 1 -2.78686 -13.3741 -17.3487 9
412 1 6.26917 11.8092 0.812424 14
413 1 -2.29488 1.74867 -14.6202 20
414 1 -0.769875 0.831342 10.2136 22
415 1 -14.0577 -0.661727 8.42003 15
416 1 1.22255 -20.4565 -6.28446 6
417 1 -13.3097 -3.93929 -1.82507 19
418 1 9.40438 -8.40265 -8.23558 15
419 1 7.75604 -0.771076 -3.28538 19
420 1 0.0296816 -7.61167 -11.4925 20
421 1 3.1993 5.5435 -12.9373 21
422 1 7.59555 -1.70632 -14.2118 20
423 1 -3.1068 1.51663 12.033 16
424 1 2.5377 14.1442 -10.7075 14
425 1 -8.81314 -6.48162 -19.2003 12
426 1 2.37961 -1.10528 -20.4715 15
427 1 -7.92786 -4.32676 5.59186 21
428 1 -3.52449 16.9466 -2.88933 17
429 1 -12.5223 -2.87964 -19.1822 12
430 1 -15.8223 1.20234 0.019526 18
431 1 -5.89171 -11.3313 -16.3503 16
432 1 -8.02481 -16.3307 4.03615 11
433 1 -2.76987 10.2304 -9.62393 19
434 1 12.692 2.57345 10.6289 9
435 1 10.1064 6.0507 -2.72843 17
436 1 -13.7555 -12.392 -4.06438 11
437 1 -8.77998 -0.88492 -16.962 16
438 1 -13.3714 7.42519 4.233 18
439 1 11.255 1.76492 -2.5752 17
440 1 0.189804 12.6317 -8.92794 17
441 1 7.97966 5.69829 -9.34354 20
442 1 2.109 7.58208 9.25267 22
443 1 -13.9293 4.78047 3.72311 19
444 1 6.37798 12.8381 6.02022 17
445 1 5.35938 2.21796 10.4568 18
446 1 -0.172609 -0.651141 -22.1648 11
447 1 -3.68081 -4.13337 9.10088 21
448 1 4.00943 15.5804 6.92817 15
449 1 2.79953 8.39204 -14.7501 19
450 1 -10.4243 9.99812 -7.93638 19
451 1 -2.55335 13.9392 -5.06027 21
452 1 9.5161 -1.69611 10.0937 10
453 1 6.28602 1.10356 -12.9643 23
454 1 9.87417 -13.8226 -6.06343 7
455 1 7.35042 11.4853 3.7127 18
456 1 -17.7599 -5.53912 -8.26248 9
457 1 -12.673 8.55701 -14.6367 10
458 1 -7.98325 -1.34101 13.9777 13
459 1 -7.39 14.5871 -11.0461 18
460 1 -0.335775 -10.6499 -6.78242 18
461 1 3.85013 -2.35189 -17.9691 19
462 1 -7.37608 17.4881 -6.09071 14
463 1 -12.8437 -2.17765 -16.6737 16
464 1 2.22565 -16.2328 1.347 10
465 1 -13.6398 -3.42326 -4.75292 19
466 1 -2.08398 10.0642 -17.1331 13
467 1 -0.705001 9.71088 6.04269 17
468 1 -13.6244 -7.09756 3.3514 19
469 1 -0.283776 -10.2179 -13.739 21
470 1 -0.797352 -5.47246 9.41495 12
471 1 -13.6924 7.61227 -1.95853 21
472 1 1.86115 3.79262 14.0352 11
473 1 1.75572 20.5545 -4.97577 10
474 1 10.3456 -1.89054 -3.68276 17
475 1 4.57193 19.6533 3.67869 7
476 1 1.911 5.44879 -20.5169 12
477 1 -6.52399 -8.40682 9.09075 15
478 1 7.82151 -4.89671 -18.6388 13
479 1 0.210375 12.5826 3.59881 19
480 1 1.87751 5.50677 -15.7792 21
481 1 -6.13033 -5.25101 -15.9818 21
482 1 -5.42775 -10.6261 -6.55432 23
483 1 -16.2611 -2.02907 -14.7632 16
484 1 11.7035 -0.665952 -1.27721 19
485 1 13.2402 -0.435212 -7.79176 10
486 1 5.71498 -4.46779 -9.87675 20
487 1 13.5188 7.26398 5.86748 11
488 1 3.15734 -9.75341 -8.01359 21
489 1 -0.301656 3.60651 -22.2832 9
490 1 8.06591 11.135 -2.32149 19
491 1 10.277 7.28271 5.73952 19
492 1 9.72911 8.15124 -6.32951 19
493 1 7.35101 -6.73622 -3.55322 24
494 1 5.12735 6.70414 -16.9168 17
495 1 6.91152 3.10817 7.61013 17
496 1 12.1852 4.89277 8.21264 16
497 1 5.36324 11.8183 -3.18069 15
498 1 -3.44417 4.77126 10.5778 18
499 1 10.2597 4.03646 -8.18254 17
500 1 9.96366 2.32163 6.88769 18
501 1 -10.5753 -1.7344 -11.3882 20
502 1 12.4553 8.53411 -4.26723 22
503 1 -14.436 1.59877 11.3106 8
504 1 11.4719 9.98708 7.5816 14
505 1 1.79982 4.81821 10.7319 21
506 1 -2.95291 7.78107 5.96192 18
507 1 0.381908 17.78 1.82431 12
508 1 -4.82395 -16.7648 -0.313885 14
509 1 -7.897 10.9238 -6.25995 21
510 1 7.46844 13.4021 -8.41014 20
511 1 7.87634 -5.34285 -16.0743 15
512 1 0.758728 18.0329 -6.25308 14
513 1 -5.2241 -13.7119 -14.4399 10
514 1 3.97719 -15.1935 -13.2633 6
515 1 -17.9894 5.0586 2.68109 9
516 1 -5.23384 6.75251 -13.3008 21
517 1 -7.34807 -15.5635 0.901348 20
518 1 -8.07944 1.87534 -15.274 20
519 1 -13.7823 2.03045 -8.39835 18
520 1 7.80421 -6.70424 0.142945 19
521 1 7.22367 13.8398 -4.77714 13
522 1 -6.16254 -8.29151 5.32368 18
523 1 -17.7651 2.74438 -10.656 10
524 1 -0.412841 -3.51077 -21.1073 14
525 1 -2.99955 7.50918 12.4333 16
526 1 6.07625 10.8549 -9.87432 17
527 1 12.3194 -0.270845 8.21991 12
528 1 5.46115 7.10939 -9.16498 18
529 1 14.8425 12.481 -2.55004 9
530 1 5.07113 -9.71772 -13.7752 17
531 1 -11.1234 -6.20097 12.0628 8
532 1 10.2603 -6.60498 -1.88618 14
533 1 -2.58646 13.4797 9.36778 12
534 1 5.73053 13.3176 -16.8025 6
535 1 -12.861 14.1253 -7.30784 12
536 1 8.49626 14.1042 -0.60032 13
537 1 -11.417 -13.6754 -4.76171 13
538 1 13.1422 -1.96949 1.1013 10
539 1 8.87364 16.2468 -3.35196 11
540 1 -8.04663 5.01834 6.27788 20
541 1 -17.0447 -7.85502 -1.69932 13
542 1 -10.5005 -1.26643 -14.7738 19
543 1 5.79317 -2.38378 7.56117 20
544 1 -3.87528 -9.94312 8.45605 12
545 1 5.94421 11.3439 8.69056 22
546 1 -4.60154 12.7877 -2.97177 20
547 1 1.53458 -4.7253 -19.1139 17
548 1 -10.9181 -1.72046 5.19198 21
549 1 5.70978 0.508768 -15.6645 18
550 1 10.9699 -11.9138 -8.93514 5
551 1 4.20861 4.38378 5.40158 18
552 1 -6.56629 -3.90356 13.1169 11
553 1 3.83353 13.1343 3.16187 21
554 1 -3.19659 -1.30517 10.5405 21
555 1 -5.71906 7.029 6.87193 21
556 1 -11.886 -5.2298 -17.4744 15
557 1 -8.57722 4.65889 10.5938 20
558 1 5.85305 5.92718 6.78467 19
559 1 -9.60008 -17.7846 2.28983 9
560 1 10.2439 8.81773 -2.06925 22
561 1 2.88406 -12.7091 -6.78626 21
562 1 2.43713 10.6932 -2.39721 21
563 1 6.12589 16.7203 -0.901849 14
564 1 5.10589 -3.3753 -20.3266 11
565 1 5.02231 13.7309 -10.2914 19
566 1 8.33635 8.12422 -4.18206 17
567 1 -11.1278 -8.16251 -4.54668 20
568 1 -3.38562 -3.21304 -17.3499 22
569 1 -8.04551 14.2857 -4.33948 20
570 1 1.84453 -4.74454 -15.9493 20
571 1 7.89239 8.81535 -10.529 17
572 1 9.94368 14.7446 -11.9211 8
573 1 11.9918 5.22123 11.77 10
574 1 10.2241 3.83248 13.2086 9
575 1 -5.45057 -11.2269 6.76159 16
576 1 -7.92333 7.70383 -14.9247 17
577 1 3.15582 13.3892 5.52477 19
578 1 6.0417 -13.9218 -16.1386 4
579 1 3.51928 16.002 -8.99921 15
580 1 8.39118 8.0732 2.7913 19
581 1 14.6284 -0.152659 -2.15047 7
582 1 3.46928 6.9564 14.6906 11
583 1 -13.1262 -3.75472 4.86513 22
584 1 4.54526 -14.7717 -5.5864 15
585 1 -5.29757 12.4145 0.35282 17
586 1 1.89779 10.9792 1.11585 19
587 1 -13.3438 -3.96929 1.78106 20
588 1 -5.61626 8.32323 13.3428 13
589 1 -3.74233 4.16924 -22.329 8
590 1 -5.52414 9.55629 -18.1 8
591 1 -0.099619 -13.3138 -5.13332 20
592 1 4.62994 13.3298 -6.8143 19
593 1 -11.0698 0.49209 14.3926 8
594 1 5.02005 -4.28739 -16.5318 22
595 1 -0.17831 -10.9764 3.27585 20
596 1 -0.0363447 15.7416 -3.26367 19
597 1 -6.71158 10.7606 8.36574 18
598 1 -13.2254 -7.33518 -12.2273 15
599 1 -11.3939 -6.82912 -14.0377 14
600 1 -10.9305 -10.2664 -10.1238 12
601 1 -4.61358 12.4872 -5.95392 18
602 1 4.05541 16.5294 3.85244 20
603 1 8.33685 -11.6227 -7.98846 15
604 1 2.7323 -16.3295 -2.43209 14
605 1 3.1262 -7.33504 6.80288 14
606 1 9.63088 2.4095 -13.7697 13
607 1 -3.00762 -12.3946 -13.4367 17
608 1 -13.5769 1.69176 4.97506 18
609 1 -7.13397 -15.5657 -8.45497 10
610 1 -7.6385 -9.38913 -8.37778 21
611 1 -13.4373 5.00623 6.49513 16
612 1 -10.0755 -16.9349 -3.78357 12
613 1 9.02244 5.48508 -12.4533 13
614 1 -2.70939 13.6683 -1.0024 19
615 1 -16.8697 10.1397 0.704563 12
616 1 8.46483 -1.08532 -0.289312 21
617 1 -16.3398 1.43404 -16.2845 9
618 1 5.71229 4.39694 -11.6246 20
619 1 8.60481 12.6583 7.03627 14
620 1 -16.084 4.07069 -8.3508 16
621 1 -12.7095 -4.29011 -11.1922 17
622 1 2.5463 9.61428 13.4538 13
623 1 2.5774 7.86266 -11.1735 17
624 1 12.3817 10.8942 -2.60995 21
625 1 -5.78017 -2.29201 8.7051 18
626 1 -7.0724 -18.0413 -5.61917 8
627 1 -7.60173 -17.5884 -1.51944 10
628 1 12.2513 9.58382 4.37145 13
629 1 -0.334809 -7.47302 -15.1177 18
630 1 -11.5871 -5.29917 0.0769832 19
631 1 6.28894 7.05549 -14.2653 13
632 1 2.4023 -15.2178 -7.93008 14
633 1 -2.21825 -19.2202 -0.500145 10
634 1 -2.50201 -15.0703 -5.16441 18
635 1 5.25916 10.1179 -14.8882 13
636 1 3.60593 21.2338 -2.21659 9
637 1 -2.04114 1.68131 -18.1042 16
638 1 -3.4428 1.70414 8.22839 21
639 1 -3.26983 7.54567 -18.4044 14
640 1 -9.00575 0.00884453 -22.418 8
641 1 -12.8231 -3.76657 -8.27408 21
642 1 3.96296 19.0332 -7.83618 11
643 1 -8.87516 -9.78236 -14.8918 20
644 1 7.98727 12.9738 -11.2208 16
645 1 7.62878 -3.49963 -4.75115 18
646 1 -8.89056 7.61322 8.512 15
647 1 5.5759 -10.6375 -3.04349 21
648 1 12.8274 -4.23898 -1.36858 11
649 1 9.68361 -1.68403 6.65859 14
650 1 -3.71266 10.63 4.29132 22
651 1 -10.7073 -3.24485 14.0516 10
652 1 -10.7405 4.02511 8.26528 19
653 1 -4.63958 -13.8047 1.82618 21
654 1 9.39163 10.6014 9.76938 14
655 1 -16.5517 -2.1317 -1.32536 15
656 1 8.16158 -6.62697 -6.60437 20
657 1 -9.60114 15.8289 -6.95118 16
658 1 0.583768 -14.1425 1.73256 17
659 1 -0.974671 4.23564 12.7353 17
660 1 -0.485086 12.4737 0.795717 18
661 1 2.81277 -10.1751 5.08924 14
662 1 -0.36957 3.77893 8.92663 18
663 1 -15.2164 -5.62955 -7.09364 20
664 1 7.6963 12.5555 12.1437 7
665 1 1.57185 14.649 2.06337 22
666 1 -13.0194 -17.6529 1.4395 7
667 1 -4.8394 -13.8321 5.1221 17
668 1 8.38767 -6.68655 6.31475 11
669 1 7.76575 -3.42293 4.91213 22
670 1 5.71383 7.48628 3.76074 19
671 1 -2.41207 -9.70024 -11.8101 20
672 1 -6.53916 -0.18829 -14.8814 15
673 1 -5.95718 0.505055 6.75144 22
674 1 -4.05965 16.5085 4.44871 9
675 1 10.9017 -4.84952 0.964906 14
676 1 -0.0101043 9.98329 -11.0154 21
677 1 -6.81955 11.6733 11.5635 12
678 1 4.97743 8.6806 8.55427 21
679 1 4.52448 -1.77453 -14.8429 21
680 1 -7.86527 -13.017 -3.40409 19
681 1 10.2008 -1.14196 2.05273 18
682 1 0.383472 -2.11422 -14.5849 20
683 1 -0.680073 9.83748 13.3244 13
684 1 10.4904 -8.7247 -11.8585 7
685 1 4.97299 6.97935 -20.1767 8
686 1 5.41507 4.30112 -15.1242 18
687 1 13.2621 -2.67244 -4.17232 12
688 1 0.0246421 -8.46475 5.25194 17
689 1 -3.45765 -10.0649 -15.2551 18
690 1 -3.42243 14.0756 -8.07272 18
691 1 -16.2755 3.51047 1.3691 16
692 1 7.00525 11.1621 -5.88186 18
693 1 12.4154 6.85738 -1.44087 16
694 1 -0.241906 -6.95094 -20.8781 10
695 1 -11.6983 9.59606 1.31721 21
696 1 11.4838 9.23706 0.328421 15
697 1 10.1208 11.0255 -5.07007 19
698 1 0.484831 0.659028 -16.4632 21
699 1 7.96296 -3.92817 -1.69588 20
700 1 -13.7172 2.13914 -5.16953 21
701 1 7.22446 7.06037 -0.409211 19
702 1 -16.6924 -10.0609 -4.04271 13
703 1 -12.4492 9.27215 -10.4725 14
704 1 1.93866 4.82926 7.15742 20
705 1 -10.5622 1.43419 -10.1721 24
706 1 -13.6063 4.71825 0.196258 20
707 1 8.58713 -4.91408 -13.2079 15
708 1 -15.5901 -4.73412 -10.465 20
709 1 8.82026 -11.8488 -3.30189 10
710 1 -15.7216 3.82094 -1.53115 18
711 1 11.4933 12.5821 3.38732 7
712 1 -8.28233 -9.44189 1.55711 23
713 1 9.04502 9.61696 12.28 15
714 1 10.1688 -4.20135 4.36631 15
715 1 -13.4748 4.76902 -3.07791 19
716 1 -3.70182 10.6142 7.50965 19
717 1 11.1174 11.6237 -13.2398 6
718 1 -8.34498 -10.1195 -18.2468 11
719 1 -2.2952 12.7859 5.81314 20
720 1 -13.5314 -6.54872 6.85546 15
721 1 4.7087 9.62499 -7.44203 20
722 1 -0.200829 9.40339 8.69258 18
723 1 12.7827 0.495652 -4.72661 16
724 1 0.501014 -4.82748 7.17274 16
725 1 -4.01941 14.508 -12.147 14
726 1 0.144503 10.2149 -14.3112 22
727 1 -8.55347 1.72808 4.7314 24
728 1 9.91773 1.3203 0.993188 17
729 1 -3.33661 -4.42552 -14.5554 21
730 1 9.73007 16.6953 -8.41124 8
731 1 -15.9651 3.54693 -4.90588 16
732 1 -7.7095 -13.0731 3.04565 20
733 1 0.495865 16.4972 -11.1377 8
734 1 2.30062 -1.14415 7.27396 18
735 1 -2.69748 -12.537 -6.51514 20
736 1 -8.88501 13.6381 1.40228 11
737 1 -17.2074 6.33406 -6.90914 15
738 1 8.52932 2.71163 -10.9158 19
739 1 -0.337491 -9.75048 -20.2014 7
740 1 -12.2747 10.078 -1.95283 18
741 1 10.0847 8.05655 -13.1952 9
742 1 4.86982 -6.18882 -19.9522 14
743 1 -12.7656 -6.53308 -9.36239 19
744 1 -0.152904 -13.4458 -8.61047 19
745 1 -14.4819 8.65578 6.37142 10
746 1 2.77832 -17.7732 -6.07793 10
747 1 -6.6222 13.3426 -13.4466 11
748 1 10.7173 1.25516 -6.32757 18
749 1 5.31311 9.54707 -1.14302 20
750 1 -3.64445 -17.9785 -5.79289 11
751 1 -3.18565 -1.60864 -20.0991 16
752 1 9.5664 1.336 4.44461 21
753 1 -7.12847 3.8717 -19.8123 11
754 1 -5.50291 -10.9731 3.9114 22
755 1 2.23118 10.7106 -6.01563 19
756 1 -14.1829 5.18993 -6.7441 21
757 1 -14.004 2.47504 8.45552 14
758 1 0.646545 7.01435 12.763 18
759 1 -10.9993 -8.5198 4.76736 18
760 1 4.09908 9.9871 2.78369 14
761 1 -2.42417 -16.0982 -2.30644 19
762 1 6.52921 17.1889 -10.005 11
763 1 -3.86367 10.4922 13.748 12
764 1 -8.58197 2.06413 8.34746 24
765 1 -14.2887 10.5025 -0.250637 18
766 1 -8.77586 -7.20817 6.61973 18
767 1 2.52925 -9.88697 -2.02713 21
768 1 7.38787 8.80974 6.32721 21
769 1 8.42142 -4.03617 -8.15559 17
770 1 3.49136 -10.9001 -17.0316 10
771 1 -4.16562 -3.83068 -21.6433 10
772 1 1.0513 1.94046 -19.9395 21
773 1 3.43586 19.8457 0.120044 12
774 1 -12.3401 -6.72314 8.91434 13
775 1 -7.91122 7.62197 -11.4394 19
776 1 -19.5925 5.37507 -9.19816 7
777 1 11.2043 14.7964 -5.74955 9
778 1 -13.7297 -15.3935 -0.481396 10
779 1 14.7716 9.41026 -1.43372 12
780 1 -8.0004 -9.76566 -5.0489 21
781 1 3.32538 15.7751 -2.20297 17
782 1 -11.1007 2.00854 9.91042 20
783 1 -3.54264 -15.4937 -8.44342 16
784 1 13.0099 1.99103 6.3112 12
785 1 -0.0138378 -17.3408 -0.912988 12
786 1 2.05884 11.1959 10.8247 15
787 1 11.808 -0.0248732 -15.2106 8
788 1 4.98187 -8.00648 -1.33539 21
789 1 1.39543 -2.34198 -17.053 21
790 1 -15.523 -0.99139 -17.8912 11
791 1 -8.96016 2.11627 -18.6044 14
792 1 -2.68983 10.6875 10.6418 15
793 1 5.6704 -5.15257 6.70221 18
794 1 -10.7409 -7.88618 1.82684 19
795 1 13.1984 2.80709 -6.49494 12
796 1 -3.63787 4.15482 -16.4622 16
797 1 10.5173 12.1656 -0.2607 15
798 1 1.84751 17.9781 5.20025 9
799 1 -14.4276 -10.012 2.41783 16
800 1 5.97557 -7.29991 -14.4252 20
801 2 -11.4879 2.36453 -15.0256 17
802 2 -8.03651 13.6951 -9.25244 19
803 2 -0.107801 -1.32404 -16.5092 20
804 2 -5.90094 5.11048 6.72658 20
805 2 4.49326 -7.83228 -12.9152 20
806 2 -5.77451 -4.03641 -14.4923 22
807 2 -0.314396 4.49717 10.7519 19
808 2 3.519 5.21069 11.7053 19
809 2 -16.3928 -9.6 -2.04397 13
810 2 -12.0283 10.1668 -9.01915 15
811 2 -2.98486 15.2277 3.39822 14
812 2 -12.86 0.737969 3.20102 23
813 2 2.04625 16.204 -10.1022 13
814 2 8.08458 3.95366 -1.36823 21
815 2 -0.58245 14.025 -7.89385 17
816 2 4.66692 8.56592 -15.6048 15
817 2 -15.2884 -5.21917 -15.1545 10
818 2 -9.44792 -2.856 -14.3895 20
819 2 -0.426213 1.60414 8.52726 18
820 2 5.31868 -6.13116 -16.0495 22
821 2 -3.05299 -13.1766 -1.37772 17
822 2 -8.84358 9.80038 -4.34134 22
823 2 -15.9905 2.07688 -8.4581 20
824 2 8.03563 4.15974 3.66626 19
825 2 7.92971 -9.69356 -17.2229 8
826 2 -14.8937 -6.35846 -5.35941 17
827 2 -13.7571 -5.06419 3.52366 19
828 2 -5.60372 -12.7396 0.298435 18
829 2 9.17054 -7.5916 4.50127 11
830 2 -2.8849 -16.5215 -10.3634 8
831 2 -1.72273 2.46 12.7888 14
832 2 -2.26375 13.3642 -13.1421 12
833 2 0.54715 -15.9894 2.15511 12
834 2 -14.9003 -9.75841 -7.43259 15
835 2 -3.06635 6.75836 10.7167 17
836 2 -11.3622 8.22831 -1.83658 20
837 2 -4.33122 6.87703 13.704 13
838 2 -6.08732 10.8993 -9.44289 16
839 2 6.72248 -12.056 -2.8208 16
840 2 -3.69428 14.5178 -9.92302 18
841 2 5.67426 17.6303 3.37692 11
842 2 4.61808 12.8191 1.07081 17
843 2 11.3834 -1.0481 -13.6002 12
844 2 -8.14497 10.3221 11.7168 10
845 2 -4.55989 2.52548 -21.5911 12
846 2 -4.00973 10.5487 -17.1602 10
847 2 6.42228 12.7803 -9.91342 14
848 2 -7.80504 -2.53633 8.40244 21
849 2 -17.0061 8.94463 -3.47258 14
850 2 7.75881 4.41753 -11.164 18
851 2 -5.3592 -7.39739 10.1864 16
852 2 -2.37413 -4.91569 -17.8916 17
853 2 -7.84808 -11.078 -16.8994 12
854 2 -16.1979 -6.94853 -0.326152 13
855 2 8.36838 12.076 0.695162 14
856 2 -5.06949 10.4315 0.318887 20
857 2 -5.55873 -9.71039 -11.6075 19
858 2 -5.30292 16.6259 5.92254 7
859 2 -0.611487 -1.0896 10.2385 17
860 2 -3.39736 -4.85686 7.1382 21
861 2 9.45715 0.301264 6.20775 19
862 2 5.93006 14.5142 -15.2565 7
863 2 -10.5133 5.02009 -6.96016 22
864 2 11.7603 3.15182 7.14027 17
865 2 8.7733 -12.7631 -5.0518 10
866 2 6.85915 -11.7359 -9.65643 14
867 2 -14.2816 6.56794 6.12237 13
868 2 3.38078 -11.3059 -3.34361 22
869 2 7.76254 -4.53225 2.91764 18