ITEM: TIMESTEP
4000
ITEM: NUMBER OF ATOMS
500
ITEM: BOX BOUNDS pp pp pp
-30.0 30.0
-30.0 30.0
-30.0 30.0
ITEM: ATOMS id type x y z Coordination
1 1 -2.44201 1.89797 -3.32121 21
2 1 2.96315 -0.0620739 6.88502 17
3 1 -4.40699 3.18696 8.19546 11
4 1 6.26176 -1.61274 1.07936 20
5 1 -7.24671 -0.252018 1.74809 21
6 1 -3.05966 -0.664412 -5.96398 17
7 1 2.16048 3.25376 6.07859 18
8 1 2.36318 -3.40799 -3.12881 19
9 1 -8.99559 2.03239 0.67118 24
10 1 1.16388 1.99506 -8.2611 12
11 1 4.04128 -5.59905 -4.59325 20
12 1 6.1113 0.0448327 6.32259 13
13 1 1.51869 6.70311 -3.66717 22
14 1 0.600272 5.02846 3.71066 20
15 1 1.49774 8.01921 9.4099 10
16 1 -8.41627 -3.23035 2.84108 17
17 1 -12.9582 -4.90937 1.36459 5
18 1 8.82132 -3.51671 -2.85203 13
19 1 7.62532 2.83919 7.00374 11
20 1 -6.68285 -7.46391 2.1739 17
21 1 -3.61065 -5.92661 -9.4263 9
22 1 2.7229 0.519817 -3.73508 17
23 1 6.81861 -4.6222 -5.49685 13
24 1 6.62155 -7.33821 2.41617 15
25 1 -5.45441 5.32349 4.36714 21
26 1 4.82404 2.01945 8.84821 12
27 1 -0.545464 9.31497 1.39602 14
28 1 -0.0520998 -5.16377 -9.37414 11
29 1 -2.91877 2.23002 5.80461 19
30 1 4.40456 -5.14035 1.86767 20
31 1 -3.92656 10.2852 2.23057 11
32 1 -5.79633 7.51368 1.63567 18
33 1 4.43933 6.04913 -6.082 14
34 1 7.33451 6.58712 -2.76916 14
35 1 -3.33741 10.1008 -4.40534 9
36 1 4.34175 -6.01989 -1.4228 18
37 1 -6.94036 1.61763 -6.86996 13
38 1 -1.78442 4.66691 -2.05337 20
39 1 -4.02502 9.1895 -0.941835 18
40 1 1.68873 8.57077 -0.896769 16
41 1 -9.31654 5.28158 0.0480307 16
42 1 -3.29027 5.43494 7.17062 16
43 1 -4.85016 3.32747 -8.65047 10
44 1 -5.29295 -4.93127 3.3572 20
45 1 -3.5681 -1.65316 1.82143 19
46 1 -6.25057 -2.85747 -2.38186 22
47 1 7.88351 -8.29624 0.0881195 13
48 1 -10.0165 -1.68269 5.47433 10
49 1 -7.42403 0.181988 -1.77331 22
50 1 -0.40754 -11.5996 1.75496 14
51 1 7.65237 1.89328 -6.18831 13
52 1 -6.00504 -2.87678 1.01408 21
53 1 -7.63252 -1.76724 -8.18079 9
54 1 1.78566 4.91588 -7.17432 15
55 1 -4.29644 4.69765 1.73485 20
56 1 -1.90939 2.67289 2.21458 22
57 1 -9.02404 0.840468 4.13788 20
58 1 1.20891 -6.6835 -2.1395 19
59 1 -0.970356 10.3053 -2.15743 15
60 1 -10.4768 -0.294407 2.04211 14
61 1 1.24623 10.114 6.90385 11
62 1 -0.571608 0.483061 7.16938 19
63 1 -0.478254 -9.02558 -2.74212 17
64 1 8.4282 -1.42076 -6.52682 11
65 1 -5.83202 -11.0807 0.795393 11
66 1 -3.1577 -10.0117 2.62155 13
67 1 3.35794 -1.25932 9.98795 10
68 1 1.10598 -6.80047 7.5843 12
69 1 4.58282 6.35142 -0.977068 21
70 1 -8.67414 -9.77956 2.9919 7
71 1 -3.72086 -12.6906 0.6438 12
72 1 -4.62799 -5.84354 0.0481969 18
73 1 -0.0169824 -4.42191 3.27317 18
74 1 -4.16615 -3.54664 -4.66044 21
75 1 3.71554 4.10385 -2.85387 20
76 1 1.97114 -6.2026 1.0599 19
77 1 -2.65932 -3.03469 4.73566 19
78 1 -9.13416 1.25611 7.21111 10
79 1 1.32636 -9.67935 0.487158 18
80 1 -4.69191 -8.05063 4.80977 11
81 1 -0.0620243 2.04722 4.27339 21
82 1 -12.4445 -1.88797 -0.289394 10
83 1 -3.77444 7.80477 5.55491 15
84 1 -6.59277 8.8855 4.39488 11
85 1 3.92495 5.92748 4.33753 23
86 1 -6.44177 6.15313 6.72395 13
87 1 -7.14086 -3.96774 -5.17391 13
88 1 5.96801 -4.57817 4.95276 13
89 1 -6.24839 1.93835 -3.93772 21
90 1 -4.81226 -2.91418 -7.67834 20
91 1 9.21508 1.00399 4.44642 11
92 1 -6.64751 3.24497 -1.00873 22
93 1 -4.75757 -3.13987 7.76294 11
94 1 -4.98327 0.274808 -9.58052 11
95 1 -10.6067 0.136282 -1.46234 18
96 1 -6.16146 -11.2942 -2.10956 10
97 1 -3.47012 -3.83105 -1.29965 21
98 1 -8.86516 6.16294 4.88909 14
99 1 3.21288 5.27436 7.64859 17
100 1 -4.60649 6.03975 -0.916779 20
101 1 -0.4663 -9.69772 -5.75712 12
102 1 -0.888723 9.29815 4.46205 14
103 1 5.29289 1.60608 -2.61462 22
104 1 -8.96716 0.243143 -4.42474 15
105 1 -10.1814 5.70627 -3.40821 8
106 1 -3.43621 -8.83814 -7.24652 9
107 1 3.35052 -8.47679 5.95107 13
108 1 -8.84735 3.68539 -5.41609 13
109 1 -4.22329 -0.103893 6.77546 17
110 1 -11.5481 4.31375 6.63743 5
111 1 0.996723 -4.66226 -6.10247 15
112 1 -2.28302 -3.33458 9.27383 10
113 1 -0.112986 -3.70174 6.67736 16
114 1 1.29671 -7.51397 -5.0808 17
115 1 8.16985 0.441299 -0.7338 21
116 1 -8.77556 3.71065 5.13134 16
117 1 3.37305 -0.452148 -8.28478 10
118 1 -0.68168 5.43768 1.1446 20
119 1 5.12076 -2.6031 7.5276 11
120 1 -5.0102 -8.98575 -4.17769 11
121 1 -5.33446 -1.51733 3.88731 20
122 1 8.35823 3.81379 4.33176 13
123 1 9.52961 5.38328 -0.98195 12
124 1 0.932089 3.05974 -4.08565 20
125 1 -0.696099 6.83573 -6.04462 17
126 1 4.13897 9.40923 1.42425 12
127 1 4.34507 2.93891 -7.35543 12
128 1 2.82991 -11.1624 3.03479 10
129 1 6.36036 4.04753 -0.872845 22
130 1 5.68665 -8.8996 -2.09277 10
131 1 -1.69759 -10.0694 -0.559981 16
132 1 -9.3197 2.87923 -2.50461 20
133 1 5.39064 6.63127 1.78277 20
134 1 11.6549 -1.04854 -1.13979 10
135 1 -1.94864 4.18008 -5.72893 19
136 1 -5.23404 7.09055 -3.85044 15
137 1 2.90173 -9.83234 -7.12183 7
138 1 0.817693 -7.59799 3.50563 18
139 1 -7.03982 -4.0152 5.3277 12
140 1 -0.724028 -12.4376 -0.912883 11
141 1 3.68212 -6.08776 -7.4633 13
142 1 2.55755 6.26676 1.30265 22
143 1 3.39971 -8.3886 2.97513 18
144 1 6.00646 -3.41703 -3.04575 21
145 1 -7.26178 -5.43995 0.24583 16
146 1 -4.69819 -6.46504 -6.32991 14
147 1 -0.0665664 -2.32219 10.1683 8
148 1 -1.68789 2.68323 9.37618 11
149 1 3.03316 -3.37917 -9.1024 11
150 1 -12.2565 3.27612 -0.622825 10
151 1 6.01091 3.86567 -4.62605 18
152 1 8.27661 -0.302029 -3.79727 20
153 1 -1.87139 1.69175 -9.51443 11
154 1 -10.7137 3.72963 2.41745 13
155 1 2.25509 -3.70902 8.78634 13
156 1 4.22217 3.88958 1.07064 19
157 1 -6.36776 -1.14413 -5.43025 18
158 1 7.69334 -4.20048 2.60332 15
159 1 -1.68057 -7.71572 1.74631 16
160 1 4.89233 3.17683 6.27536 15
161 1 0.711591 -10.2397 4.84518 10
162 1 3.98395 -2.34613 3.46565 20
163 1 5.02614 -0.945079 -2.11739 19
164 1 8.85789 2.69197 1.11246 18
165 1 7.20335 -5.28063 -0.277889 19
166 1 9.67241 5.95642 2.13755 9
167 1 -2.00556 -6.98623 -5.46981 18
168 1 0.972677 6.68299 6.00296 20
169 1 -4.18477 4.01513 -3.21439 21
170 1 -5.79196 4.76188 -6.13314 16
171 1 -2.09454 0.0903722 4.35338 20
172 1 -2.03433 -6.52839 -1.16916 15
173 1 -6.39176 -8.29624 -0.978198 13
174 1 6.13965 6.00495 5.58806 15
175 1 -2.30945 4.79213 4.1673 20
176 1 -7.31666 4.03556 2.50242 22
177 1 8.76641 5.16942 -5.46582 7
178 1 1.67504 2.06863 9.02363 15
179 1 -5.06348 -0.248501 -0.33631 20
180 1 -1.49549 -0.852907 -8.40085 17
181 1 -0.424916 4.01367 7.11104 19
182 1 7.21306 -6.6734 -3.27192 16
183 1 5.4869 8.44615 4.31807 15
184 1 2.9053 -5.13964 4.34511 19
185 1 -2.79355 7.60013 1.99699 19
186 1 5.0537 -2.81855 -6.47554 15
187 1 3.99427 -5.85653 7.10431 12
188 1 -0.300647 1.54689 -6.12177 16
189 1 3.62123 -2.85394 -0.314866 19
190 1 -6.08279 1.29274 5.21535 18
191 1 10.1507 -0.14796 1.51277 12
192 1 -0.226866 10.6745 -5.83845 8
193 1 1.16529 -1.61445 4.814 18
194 1 8.36065 2.79839 -2.9653 20
195 1 -3.13096 -0.217274 9.72686 12
196 1 -2.523 -5.64583 6.96753 14
197 1 -7.28308 7.52497 -0.969251 13
198 1 7.83081 7.42875 3.50124 11
199 1 -9.97072 -6.73015 1.70719 10
200 1 5.7394 1.2399 0.153271 18
201 1 -5.08593 -6.2119 -3.21115 18
202 1 6.60061 1.23367 3.26175 17
203 1 9.76787 -6.65 0.998828 10
204 1 1.33181 4.70605 -1.37922 23
205 1 2.2404 8.55465 3.75246 18
206 1 -9.09348 -1.83239 -0.00984916 21
207 1 -2.36371 6.79036 -3.75094 17
208 1 2.35394 7.97359 -6.84253 11
209 1 -3.64536 -0.871836 -3.00793 20
210 1 0.875949 -2.2685 -10.2743 10
211 1 -2.94613 -11.401 -3.38157 11
212 1 -2.68452 -6.17332 3.65352 18
213 1 9.25919 -3.12687 0.829347 16
214 1 -14.6869 0.646576 -0.671556 4
215 1 -2.77433 5.06392 -8.44741 8
216 1 -9.37648 -2.47443 -2.94457 14
217 1 7.81004 -1.62184 3.70877 15
218 1 -2.35936 -3.27481 -10.0279 14
219 1 -8.36757 7.02401 2.36375 14
220 1 -7.19473 -1.11716 6.73114 16
221 1 -1.76157 -3.75783 -7.01163 19
222 1 7.55644 7.94672 0.2754 12
223 1 10.7491 1.87741 -1.54214 15
224 1 -1.15644 -7.47294 5.85636 13
225 1 5.25559 0.151467 -5.52499 17
226 1 4.23272 8.00957 -3.62109 11
227 1 3.76269 8.50808 7.06029 15
228 1 1.40736 9.57338 -4.03635 14
229 1 10.9408 -0.719348 -4.11451 9
230 1 -2.41213 -4.43471 1.54899 20
231 1 -5.19454 2.03312 1.98988 16
232 1 5.87764 -8.25174 -5.79884 9
233 1 -0.791744 -4.67485 -3.86788 18
234 1 -1.76259 8.66003 8.0302 10
235 1 -3.63884 2.00156 -0.793131 20
236 1 -1.08339 7.20124 -1.04309 20
237 1 -5.43699 -11.3748 3.60995 9
238 1 5.2091 -10.0211 1.071 9
239 1 -10.6067 -4.71124 -0.416961 10
240 1 -7.1832 4.76238 -3.38375 19
241 2 -10.9585 -0.760382 0.190904 14
242 2 9.71226 4.45892 0.819017 13
243 2 1.12992 -0.725229 6.52603 19
244 2 -4.41889 -1.77291 -5.67354 19
245 2 -10.3777 1.97341 -0.923978 19
246 2 0.0386025 -8.57121 5.05126 17
247 2 2.84257 1.7923 6.9774 20
248 2 5.7148 0.438487 1.65097 19
249 2 -3.79393 -5.85554 -1.80202 21
250 2 -2.98158 7.34726 7.26764 12
251 2 -4.20215 6.65855 1.07572 20
252 2 5.22752 -2.7736 -1.54097 18
253 2 6.36871 -8.4606 -3.71029 10
254 2 -3.18172 0.283237 -9.13903 13
255 2 1.42434 -4.17693 -10.1702 9
256 2 -2.45965 -4.61326 -5.2219 19
257 2 -2.80766 -6.23069 0.989052 18
258 2 -2.57696 8.48645 4.07816 17
259 2 7.99269 -2.24439 1.85624 16
260 2 2.7968 -4.28565 0.770091 21
261 2 5.56283 5.42515 0.26099 17
262 2 -0.237367 8.18592 9.05337 8
263 2 5.89484 6.64353 3.71468 16
264 2 3.73392 7.72999 -5.40584 12
265 2 4.568 -1.04497 -6.90425 14
266 2 -7.34279 -0.219028 -7.12201 13
267 2 -0.496569 -5.73268 6.85964 16
268 2 -10.4354 -0.450656 4.17738 10
269 2 4.55809 -8.97665 -6.69931 8
270 2 -1.88019 -12.4917 0.969756 11
271 2 4.6091 -0.21017 -3.74399 17
272 2 1.41899 4.77397 6.98957 17
273 2 4.0084 -2.72607 8.87948 10
274 2 -5.03145 -9.90749 4.56822 10
275 2 2.57048 -0.987214 3.68743 14
276 2 -1.72022 -9.71098 1.3533 18
277 2 -1.43804 2.40795 -4.93187 16
278 2 -0.498265 -5.45195 -1.9109 20
279 2 -8.63652 -8.02878 2.27464 10
280 2 -5.21764 -12.2568 -0.709914 9
281 2 -5.66835 -7.869 -2.70417 11
282 2 -5.98516 7.81358 5.67175 14
283 2 5.87215 2.5698 -6.10204 16
284 2 8.09699 6.65008 -0.957749 14
285 2 1.07947 6.56309 -6.67667 13
286 2 -4.80439 4.10691 -1.26177 22
287 2 -6.99715 3.19738 -5.84289 17
288 2 7.22461 2.64456 0.123704 20
289 2 0.684813 9.35443 2.93679 13
290 2 -7.04481 4.90856 5.48851 17
291 2 -2.32215 4.91194 2.3887 18
292 2 -0.177063 9.29324 -0.73273 14
293 2 1.28547 9.61136 -6.04025 11
294 2 -2.46659 3.93422 7.93365 14
295 2 -5.39822 -1.1772 1.72173 19
296 2 1.78029 -2.36754 10.0164 9
297 2 4.01927 -4.21019 -7.73639 14
298 2 -1.53492 -10.3122 -4.20005 15
299 2 0.00767677 -4.40776 -7.65853 18
300 2 -0.402786 5.40117 -1.05094 20
301 2 -10.0818 -3.25103 -1.27619 13
302 2 9.49827 -4.90832 1.17448 12
303 2 8.47933 7.72321 1.81782 11
304 2 -0.431523 0.883158 -8.25517 15
305 2 2.3132 -1.47044 -9.33708 11
306 2 3.33839 2.24189 -3.31278 19
307 2 -4.10368 -7.06598 -8.01255 9
308 2 2.33426 -6.15194 -6.28701 15
309 2 6.97928 -2.6355 -6.09086 14
310 2 -7.22662 -4.18796 1.79233 20
311 2 -0.896874 -1.96483 -9.94653 14
312 2 1.54909 4.8461 -3.45937 17
313 2 -1.74544 -8.68362 -6.66697 10
314 2 0.86548 1.09148 -4.53555 15
315 2 -0.525152 5.45115 5.27439 20
316 2 -7.04079 -10.8076 2.55544 9
317 2 -6.59733 1.129 3.28289 18
318 2 -6.56099 6.07524 2.42343 20
319 2 -6.15796 -3.18612 3.86999 19
320 2 -3.35148 -4.39213 3.51152 20
321 2 -13.8504 2.31457 -0.816439 6
322 2 3.62951 -6.63665 5.43311 14
323 2 9.61441 -1.90035 -3.48733 15
324 2 -2.05419 -1.91148 -6.94691 16
325 2 1.88272 6.73076 4.17584 20
326 2 1.33276 9.948 8.8036 8
327 2 -1.77191 -1.54682 10.2992 10
328 2 -9.04195 4.68709 3.28147 19
329 2 -0.282781 -0.215989 3.95527 21
330 2 -6.93336 0.247793 -4.36123 17
331 2 0.948379 -3.77074 -4.45663 16
332 2 9.99328 3.61874 -1.89019 14
333 2 -12.3009 -3.55199 0.44045 9
334 2 -5.32004 5.13211 -4.34765 18
335 2 2.97535 1.47975 -8.12616 12
336 2 -8.06913 3.69227 0.557624 20
337 2 1.66946 -3.51116 3.70452 18
338 2 1.11814 4.95802 1.8803 21
339 2 6.29312 -9.36604 -0.395501 10
340 2 0.217104 -11.0112 -0.373789 12
341 2 -5.15836 9.14833 2.76177 14
342 2 -0.878058 -6.54062 3.41752 19
343 2 1.08901 -7.89964 1.45627 15
344 2 3.07471 7.17484 8.22187 12
345 2 -2.94225 10.2559 -2.19788 12
346 2 -3.36505 -4.2472 8.11243 11
347 2 -3.22091 -8.21321 3.28224 17
348 2 -3.47909 2.46618 1.33585 17
349 2 -3.33974 -1.32233 3.89626 15
350 2 -1.59123 5.5234 -7.00441 12
351 2 7.35717 -4.60389 -3.6961 15
352 2 3.0922 0.670317 9.52276 12
353 2 -6.67638 -4.06938 -0.94555 17
354 2 5.35553 6.72038 -2.75788 17
355 2 5.28202 7.78674 6.03153 12
356 2 5.89913 -7.10873 -1.89541 15
357 2 -9.12563 -5.73051 0.197076 14
358 2 -5.22441 4.94401 7.47433 12
359 2 -2.05629 -0.248084 -4.32404 16
360 2 -6.07131 -1.07269 -1.48015 23
361 2 5.95907 1.72646 7.06321 14
362 2 0.698142 3.28712 -6.77153 15
363 2 4.59756 -4.1941 3.72679 17
364 2 -0.407466 2.16466 6.1744 20
365 2 6.27005 -5.54974 1.55979 20
366 2 -0.334319 -3.79966 1.26529 20
367 2 -5.35791 3.82176 2.9838 19
368 2 -9.21362 -0.546691 -2.44969 16
369 2 -6.62687 6.53825 -2.67404 16
370 2 -9.42669 2.07128 -4.32669 16
371 2 -9.08093 -1.67835 1.93741 18
372 2 -3.15694 -6.81368 5.54591 14
373 2 4.07271 9.00265 3.20213 15
374 2 -6.78395 -2.99408 -6.97375 11
375 2 9.99439 1.15588 0.00931907 14
376 2 -8.3722 6.95068 0.396218 13
377 2 8.44836 -7.66995 1.84158 10
378 2 -5.74475 -6.70928 3.88496 13
379 2 -5.39158 -5.07194 -5.09199 16
380 2 -0.10753 10.6887 -3.86956 10
381 2 -8.3276 7.88141 4.03329 13
382 2 3.98194 5.3454 2.4167 20
383 2 -0.388896 -3.62696 8.58072 13
384 2 -9.88079 1.91361 2.52268 17
385 2 -2.94673 6.45811 -1.8365 20
386 2 -3.23524 1.65605 9.1416 12
387 2 -9.50486 5.0272 -1.89871 17
388 2 5.77841 8.55374 0.838943 13
389 2 -3.5475 5.7652 5.10238 18
390 2 -0.233457 1.71081 8.80872 15
391 2 -3.38333 -4.00755 -8.50093 17
392 2 -0.318421 6.85626 -4.04869 20
393 2 -4.7054 -10.8916 -3.59994 9
394 2 -4.34554 1.96966 -3.56146 22
395 2 7.18265 -3.32478 4.2022 13
396 2 1.44722 3.24565 4.12747 20
397 2 8.78507 1.03252 -2.54454 18
398 2 2.11518 -8.34186 7.27982 10
399 2 6.33307 0.407172 -1.46943 19
400 2 4.21194 5.04728 6.05824 18
401 2 -5.59265 1.58476 0.0380313 20
402 2 2.79386 5.66001 -0.603264 21
403 2 -4.74779 1.98344 6.64768 16
404 2 -7.70709 -2.76721 -3.77572 16
405 2 -1.62317 -8.38819 -1.45218 15
406 2 -1.24274 7.39367 0.885679 16
407 2 -10.4243 2.67033 7.25282 7
408 2 -8.67071 -2.85252 4.6893 13
409 2 -2.22708 -11.7104 -1.58962 14
410 2 4.08468 3.45281 8.24684 14
411 2 -2.58462 4.77411 -4.14172 20
412 2 -4.48529 4.78621 -7.32586 10
413 2 4.50085 4.97727 -4.45677 18
414 2 1.47806 -9.27641 -6.15792 10
415 2 8.85851 2.24282 5.7609 11
416 2 6.98221 4.10691 5.70409 13
417 2 -2.01722 10.4914 -5.56792 9
418 2 -7.59297 2.29101 -2.51629 23
419 2 -1.71178 -5.34026 -10.2897 9
420 2 -4.35843 -2.80171 -2.84027 20
421 2 -0.595724 9.28094 6.42282 14
422 2 -3.6548 8.20051 -4.03934 15
423 2 -8.75904 5.17331 -4.44501 11
424 2 -10.2023 5.1651 5.6804 9
425 2 3.68634 4.72482 -7.28429 12
426 2 4.8976 -3.78632 -4.6818 19
427 2 -4.27129 -3.59347 0.470306 22
428 2 -11.2145 4.17237 0.595896 12
429 2 -2.83625 3.24098 -9.14401 10
430 2 2.61177 -6.84256 -0.712833 13
431 2 4.64051 -1.10427 6.5953 15
432 2 -6.32978 -3.11599 6.7886 11
433 2 -0.256492 -6.34553 -4.95202 17
434 2 -9.05457 -0.741924 6.81699 11
435 2 4.66765 2.95864 -0.88595 18
436 2 5.14532 -4.43294 6.60047 12
437 2 -14.1065 -1.12603 -0.190186 6
438 2 -2.45432 0.211276 6.19173 18
439 2 0.705554 -11.1435 3.22255 13
440 2 8.28817 2.28758 3.0704 15
441 2 1.24495 -8.30274 -3.29989 12
442 2 -2.91121 9.50153 0.936195 14
443 2 -5.2905 -1.59386 -9.0741 14
444 2 -5.81062 -0.557693 5.62059 19
445 2 2.19514 -5.29183 7.83409 14
446 2 6.42806 3.1686 -2.77643 22
447 2 7.21991 0.104401 -5.34682 16
448 2 8.64233 5.56268 3.60043 12
449 2 -5.57883 8.12593 -0.625689 16
450 2 9.31447 -0.382642 3.16347 15
451 2 3.32204 -5.14233 -2.72776 17
452 2 -6.08828 -6.8835 0.395281 16
453 2 6.10405 -6.47339 -5.32612 14
454 2 5.26538 -8.52306 2.25361 12
455 2 8.14768 -3.6339 -0.85358 16
456 2 4.37351 -1.83432 1.57468 18
457 2 -2.14195 2.42691 4.15562 23
458 2 8.14049 3.44403 -5.15376 11
459 2 -11.5976 -6.20277 1.61446 6
460 2 2.9662 2.0477 1.45419 17
461 2 -8.31217 0.131551 0.135537 21
462 2 2.71923 -9.61583 4.43666 13
463 2 2.19105 8.16348 -2.75359 17
464 2 11.2744 0.37161 -2.54389 12
465 2 7.78849 6.30546 -4.50675 10
466 2 -0.706176 -3.58069 4.9653 19
467 2 2.65555 -6.57277 2.97948 18
468 2 10.5451 -1.5353 0.280514 12
469 2 3.1605 -10.2015 1.4525 12
470 2 -3.83092 -7.82392 -5.20505 15
471 2 2.725 8.25342 0.597571 16
472 2 2.41233 8.96701 5.79662 15
473 2 -4.27198 -11.4763 2.07799 13
474 2 -3.79344 -1.51308 8.51251 11
475 2 -8.03289 2.00914 5.73848 16
476 2 6.89406 -0.15196 4.60079 15
477 2 10.0092 -0.536035 -5.97112 9
478 2 -5.63639 1.61479 -8.37703 12
479 2 -6.64377 -10.0843 -0.623536 10
480 2 8.55339 -6.67114 -0.638753 15
481 2 -1.88 -2.83137 -1.36755 20
482 1 -1.88 -0.934401 -0.726407 23
483 1 -0.24 -3.77954 -0.726424 21
484 2 -1.88 -0.93461 1.2824 22
485 1 -0.24 0.0131684 -3.37638 19
486 2 -3.52 0.0135641 -1.36761 21
487 2 -0.24 0.0135641 -1.36761 22
488 2 -1.88 2.85863 -1.36755 22
489 1 -0.24 1.91046 -0.726424 23
490 1 -0.24 0.0131684 1.92362 21
491 2 -0.24 1.9103 1.28241 23
492 2 1.4 -2.83137 -1.36755 19
493 1 1.4 -0.934401 -0.726407 23
494 1 1.4 -2.83171 1.92355 22
495 2 1.4 -0.93461 1.2824 24
496 2 3.04 0.0135641 -1.36761 23
497 2 1.4 2.85863 -1.36755 23
498 1 3.04 1.91046 -0.726424 23
499 1 3.04 0.0131684 1.92362 19
500 1 1.4 2.85829 1.92355 18
