ITEM: TIMESTEP
3000
ITEM: NUMBER OF ATOMS
1000
ITEM: BOX BOUNDS pp pp pp
-30.0 30.0
-30.0 30.0
-30.0 30.0
ITEM: ATOMS id type x y z Coordination
1 1 -3.78315 -8.5152 -11.893 12
2 1 7.97939 -11.3057 4.00657 11
3 1 -10.443 7.17508 1.68872 14
4 1 -9.08098 3.42307 -6.32094 14
5 1 -0.718324 -5.00904 8.48262 18
6 1 -5.69538 0.0459554 -10.4658 15
7 1 -3.81629 -9.13424 1.86583 18
8 1 5.75723 -2.64002 6.9508 20
9 1 -1.32104 5.79464 6.80129 16
10 1 7.90469 2.27672 2.41487 20
11 1 1.92885 9.63674 -11.9195 6
12 1 2.35758 -1.0942 10.7998 15
13 1 -8.31588 1.97346 -1.5841 20
14 1 -1.77023 -3.30812 -9.60496 20
15 1 5.10743 0.461079 5.7524 20
16 1 5.08418 -4.9284 -6.91951 21
17 1 -0.325063 3.35769 9.5519 15
18 1 -3.3066 -9.45232 4.97931 17
19 1 -9.6148 0.197019 0.0929642 18
20 1 -7.49498 -1.06514 -1.80349 19
21 1 -2.8403 12.6572 -3.14973 16
22 1 -2.32677 -0.774402 -11.5607 23
23 1 5.85351 -6.61318 -12.8067 14
24 1 0.594691 -7.59347 10.1925 12
25 1 -12.8843 4.75612 0.685388 7
26 1 -2.73121 13.1326 -0.117447 17
27 1 2.73606 -14.5415 1.35221 10
28 1 6.5691 -7.14437 -6.81233 21
29 1 6.8616 2.34609 5.57666 22
30 1 -10.3308 6.06666 -5.97621 9
31 1 -2.23486 10.8773 -5.4029 15
32 1 1.13344 5.9092 5.24837 17
33 1 -5.8052 -0.485937 0.74218 22
34 1 6.61259 -2.1556 10.9274 16
35 1 -8.81645 -3.39359 2.39917 20
36 1 12.4145 1.46315 6.11983 11
37 1 9.27114 -1.7052 -2.7701 20
38 1 9.36835 1.23142 7.776 16
39 1 -8.95253 -6.01302 0.195031 19
40 1 -3.09689 -8.37671 -8.46458 21
41 1 -7.98562 12.5583 0.401469 11
42 1 -1.70309 8.24591 -4.24446 19
43 1 5.2744 -1.87014 -8.13661 18
44 1 9.63692 -5.58811 2.7531 18
45 1 4.9807 -10.0436 4.59973 19
46 1 -5.77169 7.49937 3.08907 19
47 1 -3.69093 -5.81683 8.03023 13
48 1 -7.52821 0.921015 6.06116 18
49 1 8.46129 -9.52367 -8.18354 16
50 1 4.73132 4.30478 -13.9925 9
51 1 -0.506318 13.6691 2.03626 13
52 1 -5.36057 3.62125 -10.5362 12
53 1 0.522859 6.78511 -3.2304 18
54 1 -2.58548 -11.5382 8.13403 8
55 1 -0.672777 -6.32564 -10.207 17
56 1 7.42757 -9.43311 -11.8307 11
57 1 -0.321324 0.578654 9.29312 20
58 1 -10.3385 -8.52217 -1.65032 15
59 1 8.05267 -3.24239 3.10415 21
60 1 -9.55692 -8.58995 -4.12196 17
61 1 10.1709 -8.58312 1.25261 11
62 1 -3.70185 7.51091 0.938706 21
63 1 4.55991 2.36988 -7.67633 23
64 1 8.50501 -9.06933 -1.86194 16
65 1 -6.76664 -7.82016 -1.64585 20
66 1 9.96423 11.4618 0.794254 13
67 1 10.9823 4.48215 -8.21283 17
68 1 -6.11562 11.5767 -3.31994 16
69 1 2.57801 -7.4808 -11.9217 13
70 1 -1.0107 10.3261 -2.07412 18
71 1 13.5424 0.271446 -7.78834 11
72 1 4.81809 1.55577 -13.4898 13
73 1 7.98512 -8.43588 5.13279 16
74 1 -4.57541 5.42585 -8.16235 18
75 1 9.72761 8.73591 -4.99995 12
76 1 12.9647 2.20869 -0.204455 14
77 1 0.47782 11.8094 -0.251047 18
78 1 -5.21318 -3.97927 -13.6682 13
79 1 -11.3611 -3.49889 -3.71416 17
80 1 -4.79214 6.17533 5.8371 18
81 1 -4.21748 12.9745 -6.13742 9
82 1 5.60885 -5.44269 9.92639 15
83 1 -10.2916 -5.56713 3.42381 16
84 1 -3.54397 -13.5042 1.26564 12
85 1 2.65162 10.8293 -2.79295 21
86 1 15.487 -0.507599 5.4572 6
87 1 -0.784225 -10.4889 5.58464 20
88 1 -5.0444 1.30935 -2.67507 18
89 1 1.22595 6.84415 10.2583 10
90 1 -4.09752 -2.41671 -6.74181 19
91 1 -5.55366 -6.18599 1.31792 23
92 1 -9.14472 -11.263 0.220596 9
93 1 8.27783 -6.18408 -4.11171 19
94 1 -3.52327 10.1825 3.93323 15
95 1 -3.05902 -1.3194 3.70593 19
96 1 -8.20599 -2.72865 -3.90505 18
97 1 2.46166 -10.8762 5.84344 16
98 1 7.90348 3.59672 -7.27903 21
99 1 4.06671 -2.61054 9.0592 19
100 1 -1.11577 7.5535 -11.0446 8
101 1 -4.70983 -5.23762 -9.02574 21
102 1 -5.56346 13.903 -1.49301 10
103 1 5.18431 0.706875 10.8377 18
104 1 -2.78242 7.6334 -7.78574 17
105 1 5.64437 3.33406 -9.78492 18
106 1 -7.37652 4.45544 5.54524 23
107 1 -6.79507 7.24959 8.21552 12
108 1 1.1227 -11.8665 -10.6836 9
109 1 4.76132 -6.21501 -4.20053 23
110 1 7.25484 10.0632 -7.80962 9
111 1 -2.33177 10.1769 0.913836 20
112 1 -11.7462 2.55509 -1.17689 15
113 1 3.25784 4.44703 9.07341 18
114 1 12.2012 -2.46731 -2.39349 19
115 1 4.42372 6.35617 5.9999 18
116 1 -7.87557 4.91762 2.14805 21
117 1 -11.7281 -7.13091 -4.82742 11
118 1 0.0396207 0.614078 11.602 16
119 1 4.66465 -9.90008 -0.244004 20
120 1 1.0697 -2.52841 -15.1781 12
121 1 9.39072 -3.29354 -5.77974 19
122 1 -10.0416 -0.669858 6.68943 11
123 1 -7.75419 -5.43259 -8.70972 14
124 1 -2.07872 -6.1066 0.390113 17
125 1 -1.38681 -11.2573 -0.310803 19
126 1 -7.58508 -2.65704 -11.3382 12
127 1 -9.52326 -0.0851484 -6.14561 14
128 1 5.84258 3.54218 11.2285 12
129 1 8.62851 -4.61925 10.6035 11
130 1 -1.82775 -6.44654 5.95355 18
131 1 5.19428 9.32098 -2.00116 19
132 1 -7.05423 -9.09517 0.64416 18
133 1 2.21049 14.2342 -0.405261 12
134 1 -6.1476 -5.64408 -11.3758 14
135 1 -5.10897 -11.1676 -9.67648 8
136 1 -3.72972 -7.34333 -1.90453 20
137 1 11.3809 4.68479 2.12222 16
138 1 -1.4896 -7.09761 -3.93346 20
139 1 -7.19521 -4.57608 7.18839 13
140 1 -1.45425 -10.3951 -3.18396 20
141 1 1.8126 -10.9538 -1.38076 19
142 1 2.29452 -14.3887 -1.85707 10
143 1 -6.08432 2.22876 -8.1673 15
144 1 9.1911 9.58854 2.86376 12
145 1 -2.94098 -0.999259 -9.04869 22
146 1 5.20838 9.3125 -10.4763 11
147 1 0.457895 -4.24857 5.83171 20
148 1 4.26765 13.7137 2.35883 9
149 1 9.82154 3.41088 4.21201 14
150 1 -8.20467 -0.386073 2.48306 18
151 1 0.75493 -10.5901 8.39872 12
152 1 -9.03172 7.13975 4.63161 18
153 1 3.71635 -4.72508 -13.8671 12
154 1 6.11981 -7.44512 -1.55986 22
155 1 8.48458 -5.74536 -12.0555 13
156 1 -1.66425 -4.44068 3.34162 17
157 1 -2.15012 3.30508 11.9071 17
158 1 -7.08859 2.62928 1.30001 22
159 1 7.78721 -9.48746 -5.17858 15
160 1 -1.23868 7.83891 -0.50096 21
161 1 -4.32625 4.43712 3.06667 23
162 1 0.604259 -12.2723 3.29051 16
163 1 -3.16056 6.86512 8.53986 16
164 1 -6.02625 -4.24411 -5.4884 21
165 1 -5.08515 11.892 5.49975 9
166 1 -0.959544 0.696794 -7.23986 22
167 1 -10.0455 3.0705 1.47475 18
168 1 -1.99921 -5.65827 -6.90973 22
169 1 -6.28265 7.5631 -1.94263 19
170 1 8.35604 -1.83237 6.2097 15
171 1 6.75759 -8.70934 9.26268 11
172 1 1.27035 -2.13522 8.17531 23
173 1 2.79467 -11.1794 -7.35378 16
174 1 -4.64855 -2.50978 -11.3298 20
175 1 -10.3606 -0.519393 -2.88731 21
176 1 -0.0135179 -8.1737 -1.19698 20
177 1 13.9207 -0.612666 -4.24996 11
178 1 -2.75629 4.18988 -11.3376 15
179 1 -9.76412 6.12179 7.65175 11
180 1 -10.6411 10.2145 0.124519 6
181 1 -3.29017 3.67975 8.7379 20
182 1 10.1746 -4.88728 -9.30881 16
183 1 11.5716 -2.726 -7.98235 14
184 1 -3.37758 3.93065 -2.42782 24
185 1 -0.386325 -10.6525 -8.09081 17
186 1 3.13323 8.86563 5.11376 16
187 1 -5.52221 4.42977 -5.75792 21
188 1 6.34776 -11.0033 -3.1879 17
189 1 12.8779 -0.833187 7.51634 8
190 1 -10.0889 -4.96568 -6.4834 14
191 1 -7.48189 -10.6902 -2.39779 15
192 1 -4.22899 9.7422 -2.11896 23
193 1 -8.04035 6.06317 -4.61545 15
194 1 -0.30086 -8.44093 -13.9198 8
195 1 3.06518 -11.0941 1.94985 18
196 1 -4.80587 -11.8828 -3.66688 17
197 1 -7.79211 5.33022 -8.59852 11
198 1 -0.369947 -13.987 0.618713 12
199 1 -5.51899 1.21372 8.55373 19
200 1 -5.38679 1.09224 3.54422 18
201 1 1.7358 -5.2059 -7.79783 18
202 1 2.70009 -2.35834 5.67427 23
203 1 -10.4997 1.67048 4.29821 14
204 1 -1.12993 -8.65509 8.26579 15
205 1 -2.72308 -3.37119 11.2716 11
206 1 3.18962 -7.97964 -6.52524 22
207 1 7.16287 -11.8547 0.530109 12
208 1 -0.602893 13.5138 -5.7653 10
209 1 -8.52804 -7.59607 5.72975 10
210 1 11.5087 -5.19844 7.90049 9
211 1 9.29528 4.52768 -2.73882 20
212 1 2.71793 -3.27928 -9.92613 17
213 1 10.8092 -6.78284 5.31008 11
214 1 -4.83878 -0.568707 11.5557 12
215 1 2.76186 13.949 -4.03343 12
216 1 7.01492 -5.57876 5.4698 19
217 1 -4.28464 -12.4172 -6.40645 13
218 1 1.4235 11.9657 3.21141 14
219 1 -4.9931 -1.03044 6.35961 22
220 1 -4.13247 -9.20561 -4.28783 21
221 1 -8.95086 -7.94878 -7.27547 13
222 1 -7.07511 9.13863 5.66685 11
223 1 -7.47277 -10.6249 -7.90309 8
224 1 -5.51432 -2.89027 3.15465 22
225 1 8.12384 3.48256 9.07003 15
226 1 12.8372 4.38318 -2.75028 15
227 1 2.27447 4.06777 -8.30262 20
228 1 -1.11235 4.47345 -8.20815 20
229 1 -1.19026 8.71682 9.61126 9
230 1 -14.417 -1.65514 -3.62411 6
231 1 4.99485 11.5045 -7.97773 11
232 1 -5.76489 -8.14767 -9.46955 17
233 1 0.448437 -5.46263 -15.3739 8
234 1 10.8675 5.31311 -4.6604 18
235 1 2.40352 8.13896 -0.756017 18
236 1 3.58262 -0.0725463 -9.98982 21
237 1 4.75197 -7.87816 6.31732 20
238 1 -2.9329 1.98791 -13.4494 11
239 1 12.0798 7.65329 -3.05733 10
240 1 7.41544 -4.56946 -2.231 20
241 1 1.95649 2.03753 -14.7584 9
242 1 1.38281 -9.61954 1.43354 20
243 1 4.32137 -10.4358 8.08906 10
244 1 -3.08229 2.02649 -8.59052 21
245 1 0.0830647 1.79845 -12.843 16
246 1 -12.4781 -3.51876 1.627 10
247 1 11.364 -0.590234 -5.52077 17
248 1 -5.01396 10.1107 -6.11934 15
249 1 5.17657 -9.10325 -9.03538 21
250 1 2.89262 3.22362 -10.9971 18
251 1 12.2505 -4.63459 -5.08448 11
252 1 -7.17085 -5.44259 4.46803 17
253 1 -3.54927 12.7864 2.63926 14
254 1 2.33765 9.51299 -8.83198 12
255 1 15.1182 2.7198 -3.2195 8
256 1 0.569957 -12.4689 -5.50321 16
257 1 4.12719 -6.47649 -9.19042 19
258 1 3.78319 6.85817 -3.44773 17
259 1 15.0737 -2.81055 -1.424 11
260 1 4.36247 -9.08961 -3.97625 20
261 1 -6.84646 4.35257 8.35589 16
262 1 -4.79071 -6.82705 -6.58594 18
263 1 -0.182723 -2.72412 10.808 16
264 1 8.87242 6.38978 -8.30173 12
265 1 -8.33252 9.15789 -5.00706 10
266 1 0.675798 13.3666 -2.54694 14
267 1 -2.12016 -2.22491 8.52262 20
268 1 3.15739 -11.7449 -4.24029 16
269 1 5.67821 -4.24399 -10.1382 19
270 1 -11.8787 -6.29107 -1.81945 13
271 1 -7.39738 1.63044 -4.35871 17
272 1 -8.07698 -2.54779 5.13664 19
273 1 7.72943 10.4383 -2.12052 20
274 1 4.78983 -11.7695 -10.951 8
275 1 8.00672 -6.79432 7.88189 18
276 1 7.65945 -0.379096 -4.82253 18
277 1 -12.0304 6.76853 5.0349 8
278 1 9.88852 -6.90369 -6.68035 18
279 1 1.01013 9.35542 7.14935 12
280 1 -1.90379 -2.31384 -14.4865 14
281 1 7.60331 2.68792 -12.1149 13
282 1 -2.52691 -6.26796 -14.5508 10
283 1 -2.1689 -10.3249 -6.10586 21
284 1 13.9086 0.0631981 -1.48118 15
285 1 10.0176 -8.02357 -10.6488 10
286 1 5.9824 -11.3015 -6.37064 14
287 1 7.76334 11.5848 -5.51955 14
288 1 -6.68066 4.51918 -2.74186 21
289 1 13.1782 3.48819 -6.0457 13
290 1 3.42594 -5.11871 7.58985 20
291 1 6.06118 6.00369 8.74909 11
292 1 -6.62213 -2.28135 -8.47636 18
293 1 11.2708 6.08493 -0.961629 16
294 1 11.8603 -3.98796 2.31623 13
295 1 -0.90942 11.8644 4.97581 13
296 1 3.46532 3.49198 5.26923 20
297 1 -8.04932 10.6732 -1.84866 14
298 1 -1.65654 -12.7768 -8.36364 11
299 1 -5.97338 8.2211 -7.86767 13
300 1 -4.43413 -0.684014 -14.0298 11
301 1 -12.0306 2.0158 -5.1442 10
302 1 12.263 -6.49134 2.29152 11
303 1 1.28745 -7.42976 6.9317 24
304 1 10.73 1.48096 -7.64037 19
305 1 12.9058 -1.15707 4.30612 14
306 1 8.50274 13.0901 -1.91611 10
307 1 14.9073 -4.49522 0.750051 7
308 1 -2.95784 1.2672 9.57317 21
309 1 -11.7863 -7.34344 1.31384 10
310 1 -9.78987 -2.49736 -8.35405 12
311 1 8.13014 1.33706 11.4245 14
312 1 -5.67944 11.1497 0.290796 21
313 1 9.212 6.69799 3.05765 15
314 1 5.63761 4.88624 3.00062 21
315 1 -9.05381 2.5443 7.60132 13
316 1 10.5254 -3.32596 -11.6528 11
317 1 0.13685 -7.95213 -7.31026 19
318 1 7.63874 5.47162 5.65317 15
319 1 3.34466 7.8845 8.75801 10
320 1 2.34331 -4.87672 10.5425 14
321 1 -1.74897 6.57406 11.775 11
322 1 -4.95923 2.56344 11.8158 15
323 1 -2.29419 4.93211 -5.49742 20
324 1 5.58397 9.28342 -4.98125 20
325 1 1.61046 0.802538 6.38093 20
326 1 5.75008 12.3113 -3.05273 17
327 1 -4.20045 -10.4923 -1.09622 23
328 1 8.14896 5.46366 0.0622472 21
329 1 0.45534 3.36539 6.67456 18
330 1 -5.91763 5.42451 0.0440914 22
331 1 7.91001 5.84797 -5.14931 16
332 1 3.3701 0.7961 8.44124 22
333 1 7.08335 11.2871 1.47215 15
334 1 -0.157399 -3.32666 -11.8922 16
335 1 -2.47294 7.39182 3.87562 18
336 1 10.6675 -4.91862 -2.18887 15
337 1 7.58675 8.39552 0.483677 20
338 1 -11.2582 -1.71462 3.66097 13
339 1 4.60702 -13.066 -1.42132 15
340 1 10.9218 5.32912 -11.1581 9
341 1 5.64751 -7.58875 3.58005 19
342 1 -0.148459 6.76766 2.07944 19
343 1 3.71064 -2.04944 -12.6002 15
344 1 7.59018 -6.68701 -9.32963 23
345 1 -2.14926 9.5181 6.38474 16
346 1 3.27949 -5.9387 4.73047 20
347 1 0.530141 -1.02857 -9.47401 21
348 1 -6.72905 -8.7384 -5.21396 18
349 1 -1.50759 0.447907 6.57013 19
350 1 10.9039 -0.409744 0.498566 20
351 1 -2.91087 10.4657 -8.57377 10
352 1 10.5289 2.70812 -10.9632 14
353 1 12.9417 2.74034 -9.08366 13
354 1 1.38003 7.03082 -7.94189 16
355 1 -1.85848 -1.22979 12.4873 14
356 1 -4.20656 -6.25592 4.03029 20
357 1 2.34818 -9.48616 -9.64818 18
358 1 -9.0895 5.04961 -0.626858 18
359 1 10.2811 9.834 -1.53816 15
360 1 -7.30803 -3.08271 0.303917 20
361 1 5.18522 5.89401 -8.706 17
362 1 -2.94147 0.98791 13.9895 10
363 1 -12.7424 -0.670666 -0.533207 11
364 1 9.18829 1.98355 -4.78472 18
365 1 -6.5163 -6.43869 -3.9712 19
366 1 9.40837 -3.14594 0.0686457 20
367 1 6.53802 -9.15902 1.65046 21
368 1 0.0891745 9.08089 4.3516 17
369 1 -4.8821 5.2295 10.9356 14
370 1 9.96243 2.89483 -0.241 20
371 1 11.6585 -8.01798 -4.03147 11
372 1 4.67275 8.36823 1.65758 19
373 1 1.20418 9.39391 1.41548 17
374 1 -2.65693 -12.9233 4.57852 9
375 1 -10.1997 -3.04794 -0.64959 21
376 1 2.60269 2.64638 11.2003 14
377 1 4.85114 12.6205 -0.403932 15
378 1 8.01102 -3.62777 8.3123 16
379 1 11.0403 -3.18791 4.78965 13
380 1 6.39079 8.09881 3.80591 15
381 1 -3.44281 6.17834 -2.29914 23
382 1 -0.747823 -8.83576 -11.3821 18
383 1 -1.11842 0.464453 -15.1347 13
384 1 -4.91727 -2.87436 8.89886 16
385 1 11.774 1.72692 2.9025 16
386 1 4.0723 11.378 -5.58198 17
387 1 6.68825 -2.9113 -13.0892 12
388 1 -3.4313 -14.0474 -1.43969 13
389 1 -6.23064 -0.629257 -5.12644 16
390 1 6.31403 -0.386012 -11.1985 20
391 1 1.12567 -9.36266 -4.63175 23
392 1 3.89109 -7.74248 10.5562 11
393 1 -0.946116 -7.43719 3.04274 20
394 1 10.5332 -0.32846 -9.95833 16
395 1 -7.93881 10.2801 3.24944 12
396 1 13.349 -6.01189 -1.98837 14
397 1 -14.8151 2.61067 -3.34467 5
398 1 11.3809 8.42142 0.791597 13
399 1 5.78625 2.60561 8.22333 19
400 1 -12.0597 -2.04699 -5.85293 11
401 1 -0.494165 1.97969 -10.0921 24
402 1 11.9349 -8.92072 -0.662686 9
403 1 -9.24492 -5.23363 -2.97847 20
404 1 -6.23589 -9.00174 3.83038 13
405 1 9.3516 -0.708641 2.99342 19
406 1 -10.366 4.68791 4.57396 16
407 1 7.87737 5.48509 -11.1115 10
408 1 9.6319 -10.0201 7.20866 10
409 1 -8.25473 -1.41675 8.82823 10
410 1 -3.07475 -5.71251 -11.7554 20
411 1 -6.05204 -12.522 -0.476504 14
412 1 6.52824 -0.167055 8.48625 22
413 1 -1.14692 -13.6729 -2.24301 13
414 1 8.54732 -2.44314 -9.17655 22
415 1 -7.33406 7.94975 0.675273 19
416 1 -4.75273 2.54941 6.03401 17
417 1 -2.16304 -14.0189 -5.07982 13
418 1 7.86661 7.65692 -2.60816 19
419 1 11.2848 0.824262 -2.71704 20
420 1 2.26598 -8.79119 3.93059 22
421 1 0.796079 10.2906 -5.92002 15
422 1 9.04658 -0.2657 -12.4417 13
423 1 -10.1894 4.73259 -3.01698 14
424 1 4.74838 5.73647 -5.90146 20
425 1 4.38541 10.9153 3.07858 15
426 1 2.49252 8.43685 -5.11199 16
427 1 -4.07487 4.64153 13.7455 9
428 1 7.10938 0.654027 -8.61365 21
429 1 5.34375 -12.7521 2.83876 12
430 1 -4.21449 -3.51436 6.09098 18
431 1 10.9721 1.79696 9.78286 10
432 1 7.65881 -4.33388 -7.80403 18
433 1 0.877036 5.1356 -11.8011 14
434 1 -0.89168 4.31507 3.60238 19
435 1 -2.29647 4.91619 1.23188 21
436 1 -2.04632 -10.8752 2.54707 17
437 1 7.36164 -6.21535 1.11103 19
438 1 0.821476 -0.781028 -12.3335 21
439 1 -5.33788 -4.6518 -1.83185 19
440 1 -4.48162 7.32285 -4.73247 20
441 1 9.55805 -1.13529 9.68624 16
442 1 -9.5516 -9.0293 3.11428 10
443 1 15.2146 -0.63473 1.8207 8
444 1 3.49661 6.44098 -11.3896 12
445 2 -10.8046 -0.649339 -4.91027 15
446 2 -6.37706 14.0754 0.332098 10
447 2 2.0273 -1.74103 -13.7564 13
448 2 -3.15358 5.3843 12.177 12
449 2 -5.46245 -4.22264 -7.33684 19
450 2 4.37335 -0.993073 10.1296 17
451 2 -13.2948 2.80781 -2.23184 11
452 2 11.5001 6.47422 0.784782 14
453 2 -2.19888 -3.97054 -7.72516 20
454 2 -6.91393 -9.92407 -9.59052 9
455 2 -5.72922 1.3672 1.44452 20
456 2 -1.99755 -9.08214 3.66619 19
457 2 4.27556 2.17644 11.1831 17
458 2 8.18548 -3.67267 -12.3844 16
459 2 7.72798 0.316749 2.49636 20
460 2 -3.83347 13.4864 -1.69554 14
461 2 11.731 0.750886 7.67951 11
462 2 -8.66457 -4.37985 3.9159 17
463 2 -2.11632 -13.0538 -0.202367 17
464 2 11.8249 -6.77582 7.05704 7
465 2 -11.7015 5.93747 1.36369 11
466 2 -6.95069 9.046 -1.07419 18
467 2 -2.88665 6.77536 6.2776 14
468 2 9.31677 -3.40856 -7.69438 15
469 2 -4.62035 -4.5192 -11.0874 19
470 2 3.40433 -8.17451 -10.3469 17
471 2 11.1064 -3.33732 -9.7732 13
472 2 14.2555 1.12635 -3.16287 14
473 2 -4.05994 8.39967 3.36189 21
474 2 -0.835983 -11.9805 -6.84386 17
475 2 4.26585 -9.76158 6.33318 17
476 2 10.8803 0.0992 2.34994 17
477 2 -6.58647 2.49015 -2.499 20
478 2 9.23513 9.4949 0.241817 18
479 2 6.94449 -12.9649 1.77561 9
480 2 0.759971 5.37476 2.52611 20
481 2 6.25736 9.50819 1.88717 14
482 2 0.840728 11.0733 -2.06224 19
483 2 -7.05208 2.20379 7.99171 15
484 2 1.5764 0.147894 -8.39724 21
485 2 -7.21636 3.19934 -5.53494 18
486 2 -10.1736 3.0799 3.3825 15
487 2 -6.94542 -7.00119 0.215277 19
488 2 1.13675 -9.78828 5.28292 22
489 2 0.471017 -5.58699 10.069 15
490 2 0.0473545 10.5266 5.88634 14
491 2 -7.41403 4.0837 0.275897 20
492 2 5.0315 -8.05031 -5.62652 24
493 2 9.95845 0.83104 -6.02932 19
494 2 -0.390037 -10.0844 -1.44459 18
495 2 6.11318 -5.37403 -8.52029 19
496 2 2.81101 8.83103 7.0037 13
497 2 7.44204 -10.424 -6.78744 13
498 2 6.10495 -2.22213 8.80685 19
499 2 -5.92001 -9.4455 2.03842 16
500 2 15.3677 0.0397812 0.0181293 9
501 2 2.70382 -10.159 0.166409 19
502 2 14.2116 -4.47849 -1.21339 10
503 2 -4.9544 -7.03572 -11.1499 15
504 2 -8.77963 -10.0142 1.61744 12
505 2 -0.266485 -7.56841 0.805404 17
506 2 -5.2589 -6.40739 -2.40037 20
507 2 -6.23818 11.9965 -1.46112 17
508 2 5.48005 -0.164516 -9.34914 15
509 2 12.9382 2.01314 -7.31736 14
510 2 6.53812 2.52894 -7.99377 17
511 2 -3.8346 3.52128 10.5022 19
512 2 -10.9814 5.55986 6.12716 12
513 2 -3.72913 -2.10758 7.46395 17
514 2 -8.50881 4.99774 3.91086 20
515 2 -5.35475 1.0645 -4.69036 17
516 2 11.9693 -0.75231 -8.27272 16
517 2 10.0623 -9.0524 -0.667709 10
518 2 9.5442 4.78337 -0.995971 20
519 2 1.07096 13.0683 1.24738 16
520 2 -2.52464 5.57864 3.19961 20
521 2 12.4971 3.55383 -1.22936 17
522 2 1.75662 6.53174 -4.74917 20
523 2 4.16955 12.894 -4.37374 16
524 2 -0.263698 1.78101 7.43184 20
525 2 0.0168153 -3.52736 7.58255 19
526 2 3.63115 -6.34661 -7.28907 19
527 2 -3.60614 2.7758 13.4803 12
528 2 5.94363 3.06324 -13.2108 11
529 2 -1.94475 -8.7576 6.52994 19
530 2 -0.100872 -11.0607 -4.34975 18
531 2 0.0076982 -6.47249 -8.27967 18
532 2 5.80926 -11.8897 -1.12692 15
533 2 13.351 -0.24323 -5.95116 14
534 2 -4.35968 3.26857 -12.5585 8
535 2 -0.0836832 12.8524 3.71498 11
536 2 -7.11103 -3.59118 -1.77732 22
537 2 6.57992 5.04755 -9.8328 19
538 2 2.38651 14.2928 -2.26913 14
539 2 0.0420863 6.76819 11.7841 7
540 2 2.09858 -11.8078 -5.99942 14
541 2 5.78973 4.25137 9.42783 16
542 2 12.1334 -8.1724 -2.27788 9
543 2 8.7024 6.77821 1.27246 18
544 2 -1.08814 5.56918 -11.4139 11
545 2 8.33595 -8.81864 7.90832 10
546 2 -2.85224 -11.8791 6.04051 10
547 2 6.86288 -9.05937 3.73502 18
548 2 -7.53678 10.1433 -3.71072 13
549 2 -3.51001 -11.224 -4.9371 18
550 2 -1.03964 -1.55565 -12.765 22
551 2 -1.91753 -9.11765 -12.8249 10
552 2 5.46056 12.0679 2.09863 12
553 2 -10.8046 -4.49969 -2.00667 17
554 2 -11.4977 3.55046 0.399376 13
555 2 8.96261 -2.79556 10.3295 10
556 2 -2.75187 -14.0682 -3.09774 12
557 2 1.26768 -2.25566 -11.13 19
558 2 -3.83233 -2.58488 -14.0204 16
559 2 -6.26723 -6.40302 -8.77325 17
560 2 -4.16722 -2.18674 10.7187 14
561 2 -3.40396 -6.53417 -7.87882 21
562 2 0.969593 -3.53812 -7.3518 19
563 2 6.63274 -2.83978 -8.87787 18
564 2 -10.6949 -7.46031 2.96283 10
565 2 3.65664 -4.83425 -9.61998 17
566 2 -1.50478 -9.13529 -7.90831 18
567 2 4.45917 7.19558 -9.77314 11
568 2 3.11061 12.3728 3.48432 10
569 2 11.4631 2.59372 4.59619 11
570 2 -11.2009 0.266068 -0.884117 16
571 2 -4.44553 -8.16123 4.23057 17
572 2 -2.90925 -2.36473 -10.5474 21
573 2 1.39435 7.98566 5.12248 17
574 2 -3.75948 -7.25484 1.19075 22
575 2 -4.21673 4.22992 1.05605 22
576 2 -8.84331 0.46598 8.05225 11
577 2 -3.12532 -12.8136 2.89833 15
578 2 -12.618 -2.8007 3.40999 8
579 2 -9.21646 -6.4325 -1.49075 19
580 2 -6.02677 -5.94403 3.14913 19
581 2 9.23109 -5.03172 8.57997 13
582 2 4.27421 4.77541 -7.47169 21
583 2 6.14517 11.0963 -6.47757 13
584 2 9.632 3.18296 -8.32364 22
585 2 -1.1047 12.5415 -1.66275 18
586 2 -7.94321 -4.63665 -4.312 19
587 2 -13.9617 2.63832 -5.16612 4
588 2 -2.9084 -13.6368 -6.89374 11
589 2 6.75548 -7.45289 6.33817 18
590 2 11.3058 -5.82453 3.79437 14
591 2 -6.63828 9.3623 -6.33312 14
592 2 9.82032 2.17 -2.70263 19
593 2 6.87579 -4.1626 10.1575 13
594 2 -1.1936 -4.54845 -10.8498 13
595 2 4.42819 5.91113 2.03037 15
596 2 6.03477 5.97999 4.60075 15
597 2 -1.89519 -3.63211 9.54073 18
598 2 -5.97886 5.30033 2.81403 19
599 2 9.47919 5.96122 -10.0393 12
600 2 -8.6537 -5.99453 -7.27636 15
601 2 -5.8285 -2.51408 -5.13957 18
602 2 -5.70005 0.890024 5.91419 17
603 2 8.96805 10.2828 -6.01352 10
604 2 11.6708 5.81863 -2.82646 13
605 2 12.0281 -8.04922 1.05563 10
606 2 -8.86286 1.61558 0.979158 19
607 2 -3.30164 8.3723 -0.766557 19
608 2 -4.29131 8.80412 -8.25431 12
609 2 3.64062 2.71134 -9.30861 17
610 2 -5.97404 5.98235 -4.59195 21
611 2 -8.93978 -4.26204 0.59174 20
612 2 9.06723 -5.01008 -3.05123 17
613 2 4.95453 -10.4341 1.88374 20
614 2 -5.49912 7.25984 1.05621 19
615 2 2.71104 -5.60571 2.48231 19
616 2 -9.48214 4.79131 -4.81147 14
617 2 2.8162 -7.03091 0.0350672 20
618 2 2.87694 6.39268 9.95474 11
619 2 1.77671 2.49055 -12.2421 17
620 2 3.29596 9.76684 -10.5479 10
621 2 9.32364 1.325 -11.5364 13
622 2 -2.76422 10.7683 -2.84374 20
623 2 -6.43578 -1.70938 8.87328 14
624 2 -1.64685 -6.64512 8.04595 14
625 2 -2.25653 -6.1741 3.66761 21
626 2 -13.6076 -0.838873 -2.25242 10
627 2 -6.25717 -3.58985 5.89205 19
628 2 2.15559 4.9275 -10.4194 16
629 2 9.05572 -1.69977 -4.60747 20
630 2 3.90359 -2.97675 7.16483 22
631 2 3.99719 -0.364575 -11.8999 17
632 2 7.49032 5.88699 -3.21409 18
633 2 4.6833 8.9194 3.89213 15
634 2 3.5621 -1.91593 -8.76923 18
635 2 -5.3693 -4.22651 0.865558 21
636 2 -5.41009 12.4183 -4.80948 15
637 2 -2.58299 7.63034 10.6536 10
638 2 3.66087 -14.4617 -0.354424 9
639 2 -4.77903 -14.1917 0.0417146 9
640 2 5.11374 0.886234 7.64298 22
641 2 9.16944 4.20863 -11.6863 12
642 2 3.62023 8.40012 -2.09997 20
643 2 2.95199 -10.7461 3.87867 17
644 2 4.73619 -10.6726 -7.73628 17
645 2 4.0225 5.35675 -12.7772 12
646 2 1.52504 3.31198 9.84574 16
647 2 3.30932 3.00586 7.72411 20
648 2 7.633 -5.15252 2.95118 19
649 2 0.200189 2.16937 -14.7354 10
650 2 9.01421 -5.81645 -8.1783 21
651 2 -9.16527 11.3118 -0.734129 9
652 2 5.86963 -10.0593 -10.9669 12
653 2 -1.40041 0.771203 12.8986 13
654 2 -4.54647 3.0669 -7.1294 18
655 2 8.17498 -7.66933 -5.97582 17
656 2 3.66571 13.6624 0.591401 12
657 2 11.5795 8.64827 -1.33964 12
658 2 12.0817 0.49254 -0.74042 16
659 2 -7.97756 -1.04634 -5.17998 16
660 2 -3.73878 3.70646 -4.54054 23
661 2 -3.4877 4.46368 -9.49866 19
662 2 11.4457 4.37664 -6.40349 18
663 2 -8.24898 5.65528 -2.16819 17
664 2 0.855169 -8.63369 8.65266 19
665 2 -0.206646 -1.02797 10.8848 17
666 2 2.93274 -11.4001 -10.263 11
667 2 -0.0755953 -3.90087 -13.8814 16
668 2 4.23891 11.554 -1.82158 18
669 2 7.80111 12.5551 -3.92396 11
670 2 -4.97038 -5.66333 -5.00055 21
671 2 -6.21206 -10.329 -3.94086 19
672 2 8.27043 2.32732 4.52481 17
673 2 -9.78708 9.38085 1.48457 14
674 2 3.36737 -12.9664 2.30364 14
675 2 9.27105 -1.2379 0.659463 18
676 2 0.25981 -6.23831 6.06883 22
677 2 -4.67707 -8.55749 -5.84407 21
678 2 1.04258 10.212 3.15946 20
679 2 -0.520384 10.0545 0.321225 22
680 2 -8.8107 7.91655 6.74423 12
681 2 -1.14852 -10.58 8.90416 9
682 2 -2.34453 14.0247 1.61229 11
683 2 0.418692 -14.0867 -1.18374 13
684 2 2.2961 -4.47964 5.23729 18
685 2 6.86042 1.58784 9.89158 20
686 2 -8.6567 6.47132 0.948965 19
687 2 -5.11926 5.43595 -1.72644 20
688 2 -1.39779 1.91533 10.6213 20
689 2 -4.03496 -9.54967 -9.93948 12
690 2 11.3844 -0.846767 -3.18793 18
691 2 6.59792 -8.05737 -8.49744 23
692 2 -4.81307 8.15476 -2.93003 15
693 2 -4.93928 0.993179 10.4225 16
694 2 -10.4147 2.08713 -6.097 11
695 2 11.1238 -6.43432 -5.19018 14
696 2 2.74814 10.1727 -4.51776 21
697 2 -1.99955 -0.180481 8.55028 19
698 2 1.73371 -0.00297306 8.33649 25
699 2 0.487843 8.62481 -11.448 9
700 2 -12.9421 -2.53581 -4.33383 10
701 2 -4.65585 -0.962917 -8.09642 19
702 2 -0.216196 8.78254 -5.4474 15
703 2 -4.45733 -0.588956 -12.0478 18
704 2 7.41032 -7.69014 -12.7117 10
705 2 2.47377 -9.88435 -3.45851 22
706 2 4.85022 -9.25953 9.54577 11
707 2 6.34155 -1.16121 5.43928 22
708 2 12.1468 -4.99073 -3.04342 13
709 2 0.761812 -13.6863 2.04902 10
710 2 8.68196 11.4813 2.32675 11
711 2 -1.0493 8.30045 3.20302 22
712 2 -11.5368 -7.6915 -0.390168 10
713 2 7.74836 5.5916 -6.92345 18
714 2 4.0039 -7.62522 4.29584 22
715 2 -7.38607 10.7979 1.37514 13
716 2 7.35457 1.5472 -5.05922 19
717 2 2.92708 5.52495 5.25739 18
718 2 -7.40297 0.800588 4.02754 19
719 2 3.31892 10.7036 -7.46497 14
720 2 7.55768 -1.18508 -12.6761 15
721 2 -3.8647 2.16037 7.84743 16
722 2 -3.76612 -0.690797 13.0657 10
723 2 11.7135 -1.9765 6.22299 11
724 2 10.1325 -1.46713 -11.6452 12
725 2 -7.76455 -8.07122 -3.54678 21
726 2 4.90461 -9.16365 -2.03478 21
727 2 11.7028 -3.38086 -6.23041 15
728 2 1.11968 7.34579 0.604387 21
729 2 0.946775 -7.98475 -12.5257 12
730 2 -9.22173 2.09848 5.7857 15
731 2 -7.97884 -0.889153 -0.0381636 21
732 2 5.11599 -11.3203 -4.6407 16
733 2 -0.510989 -12.2064 -9.73471 10
734 2 -0.451202 -13.6787 -4.38164 13
735 2 14.344 -1.90441 -2.85195 12
736 2 -1.78934 8.05333 -9.34201 11
737 2 6.81748 12.4512 -1.01067 15
738 2 -5.432 -11.4764 -7.65515 14
739 2 5.16699 2.3318 4.90998 20
740 2 -1.83853 4.79005 8.33484 16
741 2 -2.52983 6.55779 -4.35154 19
742 2 -2.89209 5.70405 -7.52483 18
743 2 0.472276 -9.88103 -9.92812 19
744 2 -7.83217 -12.188 -0.906737 10
745 2 -10.7278 6.6707 3.57621 13
746 2 8.2722 8.29646 -8.21912 11
747 2 0.548943 5.29266 -8.30072 16
748 2 1.72399 8.71591 -7.15324 13
749 2 -6.57505 -4.09453 -12.417 11
750 2 1.46056 -7.58244 -5.58701 17
751 2 -10.9505 -3.40015 -6.96808 11
752 2 8.20849 8.35141 3.96381 11
753 2 -2.77316 0.220882 -14.2867 13
754 2 -11.3875 -4.8325 2.083 14
755 2 8.47418 -0.582192 7.89689 20
756 2 7.37055 5.31822 7.41028 12
757 2 11.2454 1.29392 -9.39615 14
758 2 -0.381928 11.5977 -6.41315 11
759 2 -2.32139 12.9052 -5.00916 13
760 2 12.346 -2.62393 3.47444 15
761 2 -2.27001 0.708544 -9.8312 20
762 2 5.88734 10.2449 -8.99127 9
763 2 1.90709 0.869855 11.7632 13
764 2 -1.92574 -7.3971 -10.7386 18
765 2 7.26837 2.77897 12.0875 9
766 2 1.46692 2.51927 5.50099 18
767 2 6.64122 -9.00643 -0.0873288 20
768 2 9.59062 -6.20696 -10.6195 13
769 2 -6.33582 10.7295 5.5181 10
770 2 8.60294 -10.2936 5.60097 9
771 2 -3.43036 9.10823 -5.25078 18
772 2 4.61771 6.63221 7.86537 13
773 2 -9.17651 5.20439 -7.28962 10
774 2 1.17125 13.2011 -4.48547 13
775 2 -10.1532 -8.06085 -5.77552 10
776 2 2.08442 -4.8948 -14.9071 9
777 2 -5.97725 5.72184 9.13878 12
778 2 15.2107 -2.56847 0.924832 11
779 2 -3.61303 11.481 -6.96228 11
780 2 -9.15359 -1.97094 3.439 18
781 2 -7.56267 -9.06044 -6.9501 14
782 2 -2.43454 8.86075 8.1817 10
783 2 -0.742904 -6.8763 -14.8532 9
784 2 -6.52602 3.89193 -9.14551 13
785 2 -0.173097 0.18566 -10.8378 18
786 2 -0.487673 -1.32075 -15.3752 10
787 2 -7.31196 8.44478 3.83076 18
788 2 -6.29765 7.20978 6.34271 18
789 2 6.27563 10.2014 -3.39598 20
790 2 -4.84209 -12.0133 -1.72338 17
791 2 6.24775 1.68837 -10.8591 19
792 2 6.42393 -5.40887 -11.6011 15
793 2 -8.98705 -9.81596 -1.65613 15
794 2 -9.39701 7.42928 -5.00146 10
795 2 -7.78044 -6.05237 6.28321 11
796 2 -1.68421 2.42323 -11.8507 18
797 2 -1.01645 -11.9378 4.16062 11
798 2 9.89188 3.03078 9.02073 9
799 2 7.38597 -3.65403 6.39845 18
800 2 -4.47426 -1.82787 4.74836 16
801 2 11.9192 4.11286 -9.68845 12
802 2 0.682028 8.45049 8.92237 13
803 2 -2.0421 -8.80617 -4.84242 20
804 2 -11.3692 -7.68193 -3.09208 12
805 2 -7.82454 -8.41979 4.30366 12
806 2 -7.04858 -2.1161 2.55352 20
807 2 -6.22049 6.40483 -8.28442 14
808 2 -10.8971 -5.01278 -4.76784 17
809 2 -4.97127 11.9224 3.37511 13
810 2 9.06136 -6.91331 6.20195 16
811 2 11.2481 10.0619 1.6177 9
812 2 -3.02612 -10.6525 0.769896 16
813 2 -8.56448 -2.22035 6.97293 13
814 2 -8.69694 0.519648 -2.69586 20
815 2 0.765546 -1.53895 5.91418 20
816 2 3.56712 -5.9172 9.61833 16
817 2 0.855065 -7.99158 2.55675 19
818 2 9.44917 3.45255 2.19252 19
819 2 7.04208 -4.88302 -5.38101 21
820 2 -1.83844 6.72249 0.909239 20
821 2 -6.51874 -1.60716 -10.1947 14
822 2 -3.49966 -3.45497 3.1861 21
823 2 3.00688 -6.70379 6.6439 16
824 2 2.29177 -7.84114 11.2071 7
825 2 6.43722 -7.12973 9.60325 12
826 2 5.9489 4.53773 -4.98217 18
827 2 9.24179 5.23744 4.31648 14
828 2 4.77949 -3.36628 -13.1156 15
829 2 9.11702 -2.26824 4.53867 18
830 2 13.785 3.81435 -4.30128 9
831 2 10.3803 -8.11636 -8.58904 11
832 2 -2.52791 11.1163 2.69912 19
833 2 13.6696 -0.00980729 5.85142 10
834 2 -3.22326 -5.12709 6.16091 21
835 2 2.37872 -2.96806 10.2562 13
836 2 -5.20476 -4.55645 8.02234 13
837 2 2.85779 -12.6422 -2.39841 16
838 2 9.89011 -3.91159 1.65138 20
839 2 13.4658 -5.01338 1.80328 11
840 2 2.55032 -11.1056 7.66357 11
841 2 7.84823 -4.65062 -0.465909 23
842 2 -8.33283 4.99355 7.3749 15
843 2 -0.41343 4.81049 5.60198 15
844 2 9.12331 4.21954 -4.91954 20
845 2 3.98449 -6.32399 -12.7156 12
846 2 8.7423 -9.2919 -10.0372 12
847 2 3.63759 2.69254 -14.2428 10
848 2 -5.0139 1.74261 -9.89246 15
849 2 9.60791 11.8764 -0.954867 12
850 2 -9.77642 -2.36465 -2.57839 21
851 2 11.8712 3.13326 1.22033 14
852 2 -5.54877 -0.531602 -1.79017 21
853 2 5.77479 -7.23507 1.59372 19
854 2 -0.721414 8.16715 -2.68708 18
855 2 15.3591 -0.482897 3.71992 7
856 2 4.63496 7.63457 -4.90139 17
857 2 5.98705 -11.5978 4.21387 15
858 2 -11.8979 -2.35045 0.23395 14
859 2 9.37648 0.614057 10.1357 15
860 2 9.01195 -7.07137 1.33122 16
861 2 5.22123 -5.24748 4.6098 22
862 2 9.06531 9.05179 -2.95512 17
863 2 -5.53765 4.40503 6.09199 17
864 2 -9.99471 3.56827 -1.74356 17
865 2 10.5955 -3.28339 -1.45112 15
866 2 7.47963 -7.33497 -3.12896 19
867 2 -3.21905 -9.58923 -2.38112 20
868 2 6.70003 8.64914 -1.1841 18
869 2 8.11387 -10.1483 -3.29216 14
870 2 3.13065 9.22563 0.779775 18