ITEM: TIMESTEP
33000
ITEM: NUMBER OF ATOMS
2000
ITEM: BOX BOUNDS pp pp pp
-30.0 30.0
-30.0 30.0
-30.0 30.0
ITEM: ATOMS id type x y z Coordination
1 1 -12.549 1.71859 -17.076 17
2 1 -1.46117 -10.3039 -15.4808 18
3 1 4.54829 13.8746 4.41203 5
4 1 6.92145 -6.60412 8.37207 9
5 1 -9.45912 6.13803 -8.15645 15
6 1 10.6282 -12.4606 -7.56918 7
7 1 -14.7493 1.22946 -13.9103 20
8 1 0.0324979 -5.35864 10.1968 11
9 1 -15.5544 -3.2973 -18.2407 16
10 1 -21.5158 -3.58033 1.92301 9
11 1 6.7464 -0.246821 -15.2939 20
12 1 -5.02874 -17.0204 -6.30637 18
13 1 -19.8638 -7.78394 -3.24474 13
14 1 -3.45936 0.607678 6.67685 18
15 1 4.81973 -11.1024 -4.23295 19
16 1 -5.31818 8.00397 4.79593 18
17 1 -12.7601 5.53359 -16.6091 17
18 1 -2.2449 -11.5738 5.74696 16
19 1 -14.0414 -8.14768 -18.6789 14
20 1 -13.9194 3.2102 5.33975 23
21 1 7.32928 5.18271 0.726999 19
22 1 -4.54685 4.80957 -20.4554 13
23 1 -11.1033 -6.3833 -18.1129 16
24 1 8.18792 -6.47253 2.67611 21
25 1 -11.2903 -5.92008 -6.80159 18
26 1 -15.8947 9.44716 -7.75283 13
27 1 -5.13453 -1.43606 -14.7028 19
28 1 -13.1785 -1.69455 -0.13347 22
29 1 3.19891 -14.9127 2.22769 13
30 1 0.769469 -12.3828 4.15526 16
31 1 5.67867 -11.1691 -19.3751 12
32 1 9.19402 -12.0379 2.21643 11
33 1 -7.24113 -16.1922 -13.3677 16
34 1 -16.7574 -8.49314 1.92715 15
35 1 -3.90903 -9.33749 -18.1198 19
36 1 8.362 -9.43253 -19.3102 13
37 1 -15.56 5.71445 -14.981 14
38 1 -0.644588 6.43613 7.18983 20
39 1 4.9602 -4.05458 8.39587 14
40 1 12.5087 -1.1718 1.24608 17
41 1 -12.6393 -6.50723 -1.64819 19
42 1 -19.0422 1.9755 0.61125 14
43 1 -10.8704 -2.52269 -10.9776 20
44 1 -5.64319 12.4512 -10.3639 13
45 1 -3.35794 -16.7606 -18.8629 10
46 1 -2.32196 -1.93921 -16.4714 18
47 1 -1.1296 -11.361 -12.1738 15
48 1 -1.64505 -2.36671 10.3338 13
49 1 -14.0939 -1.80555 5.26298 19
50 1 7.3938 8.47032 -18.064 8
51 1 -4.04381 14.8542 2.01979 15
52 1 -8.65563 6.60038 -11.5053 20
53 1 -1.71135 12.5275 -6.08469 21
54 1 -2.15827 -13.7602 3.22286 15
55 1 3.9371 -4.04743 -12.9655 16
56 1 -1.71486 -10.66 -23.4596 12
57 1 -12.16 5.24212 9.31164 10
58 1 -11.2183 -5.62948 -10.2112 20
59 1 8.32289 -5.48475 -8.74479 17
60 1 -5.3371 7.39473 -11.0118 22
61 1 -7.25172 -10.929 -0.896712 19
62 1 -6.27932 13.2653 7.02878 13
63 1 -9.73259 1.9179 -15.3685 20
64 1 -8.07963 8.02543 5.17097 23
65 1 -1.50213 5.85043 -15.5164 17
66 1 -5.84723 -16.7275 -0.0826246 12
67 1 -0.431612 -0.32913 2.69865 16
68 1 6.27457 -17.5005 -8.15708 10
69 1 -2.24936 9.03204 9.68827 12
70 1 -15.7338 8.27699 -12.8901 12
71 1 -13.1198 8.7312 -14.2807 14
72 1 4.18971 1.05199 1.99075 19
73 1 9.38337 -6.95482 -21.087 9
74 1 1.77938 -18.3116 3.00162 6
75 1 -20.5193 -2.57522 -7.19961 10
76 1 6.13858 10.1344 -0.00558906 13
77 1 -4.38216 -4.55474 9.1515 14
78 1 -5.16668 -15.3413 2.64522 13
79 1 -12.9424 -9.42375 -0.0803745 19
80 1 6.3358 -1.82288 6.17157 19
81 1 -1.0416 2.625 -15.4935 18
82 1 -7.89922 8.24721 -0.99383 18
83 1 1.20567 -2.04703 1.6907 20
84 1 -9.8722 -8.27759 -2.77998 19
85 1 -7.7607 -5.31104 -17.9501 16
86 1 -13.8496 4.33628 2.51949 15
87 1 -6.99758 9.99665 -10.2369 22
88 1 -6.76226 4.96788 -12.9215 21
89 1 9.60879 4.41841 -17.7653 11
90 1 12.5808 5.03527 -11.3251 12
91 1 8.18029 -12.104 -4.19927 15
92 1 0.38099 -7.57584 1.49092 21
93 1 -6.95357 10.9362 -6.33817 20
94 1 -16.8449 10.5879 -2.26553 9
95 1 -11.0568 -3.69992 9.01075 16
96 1 -2.64115 8.03822 -3.5428 15
97 1 -10.2502 -3.35144 12.2193 7
98 1 8.91683 -7.0527 -6.79889 20
99 1 -15.5436 2.81899 -0.408989 17
100 1 -13.2953 -12.2516 -2.20469 15
101 1 9.31973 -7.3531 -10.2204 19
102 1 -4.93475 0.17099 -25.1384 13
103 1 -13.0967 -0.723611 -19.0212 20
104 1 -0.0162866 9.04661 -5.60734 17
105 1 -11.4736 0.752036 -12.9194 21
106 1 -1.50339 1.41033 9.11828 17
107 1 -4.96017 9.48717 -8.31966 16
108 1 -11.8271 8.82745 -11.7902 16
109 1 0.28911 11.4231 -9.17706 15
110 1 -5.10935 -12.4797 1.86794 18
111 1 11.4435 1.89719 1.25135 16
112 1 2.00273 -14.9125 -12.0552 15
113 1 7.13844 -12.2763 -10.0244 16
114 1 -1.64401 2.63978 3.31679 18
115 1 2.03768 -3.40442 9.98916 13
116 1 -14.4914 -10.1935 -6.3807 17
117 1 5.17228 -4.78596 -2.15051 17
118 1 -13.3383 -9.91891 -11.2587 19
119 1 10.2725 -5.38273 5.36776 10
120 1 -11.0046 4.81362 -2.23347 17
121 1 -1.45133 1.12958 -24.4437 13
122 1 -0.705838 9.71924 -11.8024 20
123 1 -12.9026 -11.6037 5.88432 9
124 1 -10.5244 -11.4222 3.40906 18
125 1 -0.377379 -13.4996 -22.844 8
126 1 -0.664494 3.61147 -12.6547 15
127 1 9.24287 -8.02787 -3.99809 15
128 1 -0.620968 -18.4299 1.78254 10
129 1 -6.39522 -19.5983 -4.8428 10
130 1 11.3558 7.89517 -0.47985 12
131 1 10.1522 -10.3195 -14.8102 11
132 1 -19.298 -6.43092 -6.33709 15
133 1 11.6045 2.7076 -8.96824 17
134 1 12.6804 4.5904 -0.217907 11
135 1 -6.93761 4.06076 8.92638 16
136 1 0.0864035 5.66903 -7.36674 15
137 1 -13.7008 11.5659 -0.308773 15
138 1 -16.2945 8.34623 -3.86011 12
139 1 -5.12753 -4.37402 -16.193 20
140 1 2.24408 -11.4129 -12.8195 15
141 1 -0.268859 11.5289 -15.4973 11
142 1 1.93792 -8.93717 4.19088 25
143 1 -5.64458 -3.31786 -25.1218 12
144 1 -4.3249 4.24528 -11.445 18
145 1 9.73544 0.883357 -13.1985 16
146 1 -10.9825 6.76938 -13.5509 19
147 1 -11.3176 10.3653 -2.77608 20
148 1 -0.241702 4.81976 -24.1709 7
149 1 1.00059 -13.2883 1.54042 16
150 1 -7.9831 0.278876 -17.776 19
151 1 -7.7969 2.96264 5.42603 18
152 1 6.19683 2.20096 -6.438 22
153 1 9.75659 1.70827 -6.85315 20
154 1 -7.37363 14.2073 -0.0865506 16
155 1 9.33264 6.2326 -3.49554 21
156 1 -6.72767 7.37341 -7.94344 17
157 1 -4.14989 7.24353 -13.8717 18
158 1 2.77539 2.97015 -22.6938 13
159 1 -13.4651 -9.65585 3.11432 19
160 1 -17.8383 8.56105 -10.3175 9
161 1 -15.3206 -3.54267 -15.2599 17
162 1 -1.62488 -7.78995 -23.9206 15
163 1 4.30681 4.94824 -1.23788 21
164 1 -6.12546 5.26864 2.9855 20
165 1 -11.1652 -5.65585 -3.7413 21
166 1 -13.817 0.205143 -1.77542 16
167 1 11.9283 2.69446 -4.24824 18
168 1 -13.0741 -0.759871 -10.663 20
169 1 0.551853 -7.43204 7.15286 18
170 1 2.77294 13.1555 -1.36902 19
171 1 -10.8848 9.14431 3.7462 21
172 1 -4.89034 -6.09861 -24.2933 12
173 1 -13.8588 10.3001 4.20281 10
174 1 -3.81044 10.1001 -10.8103 17
175 1 -10.0264 -10.6569 6.73084 12
176 1 -19.7285 -3.64161 -0.2012 16
177 1 -7.40248 -13.9432 -16.2258 15
178 1 -13.7652 6.14551 -13.0562 18
179 1 -7.71531 -16.6362 -5.30264 17
180 1 3.51405 -16.0244 -9.6063 14
181 1 -9.80036 8.70152 -15.5067 12
182 1 -19.0187 5.08585 0.488485 12
183 1 -3.84419 5.40932 -8.64321 19
184 1 1.72883 5.05896 -11.0768 16
185 1 -4.8809 -2.12026 8.60388 15
186 1 0.293702 -11.06 7.23965 11
187 1 -15.155 -1.95569 2.37235 18
188 1 -3.47074 15.0121 -8.10664 13
189 1 -2.94678 8.49854 2.38542 21
190 1 9.99189 -0.0652625 3.76991 15
191 1 -10.6469 7.46661 -2.5875 20
192 1 11.4669 -11.7156 -11.2566 6
193 1 -10.325 6.29991 7.20664 16
194 1 -11.0152 -0.479857 -16.0456 20
195 1 6.53794 -9.74859 -2.12725 17
196 1 -11.733 -7.54635 1.86197 21
197 1 -19.9454 2.83409 -4.94351 10
198 1 -12.1461 -17.0725 -9.63235 10
199 1 -2.55662 8.4918 6.59199 17
200 1 -17.3224 -4.98773 -2.7512 15
201 1 -10.8472 -14.2776 -4.0622 18
202 1 10.7152 -10.1188 -8.80114 12
203 1 -4.33131 7.34871 -6.10503 17
204 1 -8.66735 -2.4286 -3.09783 19
205 1 3.90768 10.395 -1.48803 20
206 1 -13.809 -4.08728 -5.56752 18
207 1 -6.21186 16.2891 -5.55042 13
208 1 -18.2247 -2.54446 -12.726 14
209 1 -11.229 -2.16046 2.51586 20
210 1 0.505703 -11.9909 -6.08037 19
211 1 5.5912 -12.6687 -1.99163 19
212 1 -19.0756 8.1105 -0.912775 9
213 1 12.4295 -3.42847 -5.32475 15
214 1 2.14503 1.3701 -16.1805 18
215 1 -7.28302 -8.40487 -23.1941 12
216 1 -0.287859 -6.15855 4.20593 21
217 1 2.95237 -18.5589 -7.76235 12
218 1 -1.87891 7.57586 -19.545 13
219 1 -1.13619 -14.3978 -19.492 14
220 1 6.496 -1.81489 -22.0776 13
221 1 0.649802 4.50272 -21.0191 14
222 1 -8.62143 -7.81363 -10.9199 22
223 1 -8.4322 13.7144 -5.66934 16
224 1 -7.42039 -9.6569 3.78954 20
225 1 4.03583 12.9729 -7.72343 11
226 1 -17.6748 -0.706389 6.09664 13
227 1 -6.4744 14.2003 -8.38576 13
228 1 9.72276 -2.85871 6.3228 11
229 1 -6.18361 -5.12508 -21.1885 23
230 1 -11.8517 5.31956 -10.3855 16
231 1 -4.84129 0.412097 -19.9968 19
232 1 -8.33768 -10.6281 1.58249 18
233 1 -15.0316 4.20936 8.28452 11
234 1 -5.64085 10.8413 5.30543 20
235 1 -2.97173 -12.5221 -13.7431 18
236 1 -6.14993 -14.0267 -10.8012 19
237 1 6.04738 -6.39004 -4.86351 19
238 1 4.40675 3.24445 8.2072 13
239 1 4.00301 7.25274 -18.6604 17
240 1 -9.44534 10.2909 -11.7994 16
241 1 -18.6074 -0.675526 -9.66535 12
242 1 -14.1034 9.97273 -5.09641 15
243 1 1.50381 -0.757119 4.69566 20
244 1 -1.71239 -17.0785 -2.11764 17
245 1 10.9304 -4.61985 -7.02242 18
246 1 -0.781065 2.65246 -2.60668 20
247 1 -11.1881 6.81323 1.31224 18
248 1 -17.2095 -5.70798 -13.9304 16
249 1 4.86241 0.47525 -22.4079 16
250 1 -2.69744 -8.36408 5.38459 20
251 1 9.4993 -4.47805 -19.0802 14
252 1 -1.53326 -13.7163 -7.81722 18
253 1 -7.88714 -2.30624 -16.3611 21
254 1 3.15257 -14.4211 -1.15581 16
255 1 5.66439 0.721647 -17.8975 19
256 1 -15.7367 -7.64782 -3.17061 16
257 1 3.73962 -14.0153 -18.2308 13
258 1 -10.3581 -10.646 -13.0716 16
259 1 6.23462 5.29849 -7.32266 21
260 1 -2.81668 -2.38193 -24.5818 15
261 1 4.16976 0.879029 5.21976 23
262 1 12.3683 4.78454 -2.6371 15
263 1 -12.7494 -8.79763 -3.38082 22
264 1 6.99368 -9.13356 -16.5152 17
265 1 -3.36054 -13.5797 -4.94356 22
266 1 -12.3582 -3.26336 -16.859 19
267 1 -16.0236 3.4559 -12.413 18
268 1 -7.65055 -12.9452 3.25325 16
269 1 5.30707 -4.89947 1.53819 21
270 1 -1.03955 -4.78597 1.93596 20
271 1 -2.12571 -9.16053 -21.2291 19
272 1 -1.52373 -12.8233 -0.00204842 16
273 1 5.08638 7.5401 -12.6544 17
274 1 2.93497 9.92216 -6.57796 18
275 1 -8.38802 -7.55969 0.517858 20
276 1 -3.83814 12.848 -0.645911 22
277 1 -7.94425 -3.1263 3.74531 20
278 1 -9.7417 -14.4216 -19.7337 9
279 1 -9.48607 -8.204 -14.4394 19
280 1 -6.97332 1.44792 -23.0527 14
281 1 -10.7899 -9.5939 -18.4811 17
282 1 -5.05727 -15.7271 -3.08593 18
283 1 3.61656 -8.52894 -21.4887 14
284 1 12.9972 -1.86165 -8.53297 14
285 1 11.034 -5.58326 -3.71397 17
286 1 -8.70473 -1.84127 -0.0233301 18
287 1 -12.0122 -11.583 -8.24713 19
288 1 0.756264 -0.0750577 9.70891 13
289 1 -1.33282 -15.6207 0.96575 20
290 1 1.25706 -16.1369 -2.93383 16
291 1 -8.34381 10.6706 -2.19119 16
292 1 -2.51755 -0.713579 -21.8297 21
293 1 -10.2309 1.18964 -19.2318 19
294 1 -18.0666 -4.97797 2.17633 14
295 1 1.65027 8.73508 7.53837 11
296 1 3.20214 -12.4255 -9.50373 14
297 1 -5.99294 -11.7887 -15.1072 21
298 1 -16.0792 0.151512 -18.754 9
299 1 7.00764 0.467003 3.12861 22
300 1 -12.2181 3.60816 -13.6437 20
301 1 -7.94628 11.3183 -14.0138 14
302 1 -10.7322 -8.24558 5.07337 18
303 1 5.95339 -14.6696 -15.6069 10
304 1 -11.0585 13.5859 -0.603317 15
305 1 -1.85076 8.43382 -7.97425 17
306 1 5.3278 2.39929 0.176303 22
307 1 -18.1685 2.43729 -2.37066 20
308 1 -11.7435 2.72869 7.90195 21
309 1 -13.1437 4.66511 -5.05042 19
310 1 3.66298 -6.02892 -18.5706 17
311 1 11.6318 7.8334 -5.68552 12
312 1 2.9861 -14.9688 -6.45416 18
313 1 -6.15599 -0.665308 5.24269 18
314 1 -21.3818 0.587438 -0.937783 13
315 1 -3.00632 -17.9659 -10.1833 14
316 1 -6.56023 5.56021 5.67154 19
317 1 -14.1969 0.83075 7.41544 19
318 1 -21.1179 -0.45544 -4.12872 13
319 1 -16.7566 -2.99117 4.77661 13
320 1 8.0229 -6.47234 -12.6074 15
321 1 -10.4652 -9.91896 -0.708261 22
322 1 8.42751 -2.00875 -19.8482 14
323 1 5.25975 -12.2837 -12.8155 15
324 1 -2.65549 17.236 -5.32853 10
325 1 -10.7432 11.3498 -5.52889 19
326 1 4.79258 7.44157 1.06971 20
327 1 -16.7339 -5.28981 -5.38257 20
328 1 4.15799 -7.82723 -11.0394 12
329 1 -8.39352 8.32655 -4.73172 20
330 1 -9.66239 5.05776 -5.22925 24
331 1 5.79128 -9.77785 6.85453 10
332 1 1.19899 -8.16242 -1.26904 22
333 1 -8.43344 4.93411 -0.172232 19
334 1 -11.5399 -7.60564 -12.2603 24
335 1 -5.02726 2.88174 7.1985 19
336 1 -0.184057 17.3315 -2.50656 8
337 1 5.80787 5.61078 5.32742 17
338 1 -9.40925 11.8541 -8.73761 18
339 1 -4.68781 -9.19997 -23.4547 15
340 1 -11.2117 1.24366 -9.79814 20
341 1 -1.3732 -8.20639 -17.7522 21
342 1 -13.5697 -5.30045 9.04133 15
343 1 -16.2865 4.09358 -6.6114 17
344 1 -10.7675 -5.2234 -15.2307 20
345 1 -10.1053 12.4785 1.59721 13
346 1 3.3922 -3.55659 -0.0959703 16
347 1 -10.0872 -15.9607 -7.05669 17
348 1 -2.70883 -10.876 2.10914 22
349 1 -13.7619 -8.5081 9.93703 7
350 1 -14.3857 6.97223 -6.87602 17
351 1 -5.92205 -6.68268 4.57294 19
352 1 -4.41685 -14.7242 -14.6412 19
353 1 -13.9635 -6.06914 -16.2583 20
354 1 4.00403 -6.06251 -23.4051 14
355 1 2.47726 12.4041 1.30542 20
356 1 -17.6856 -7.22822 -10.9598 20
357 1 1.53739 -9.08461 -16.065 18
358 1 3.6034 -2.84095 -23.1864 17
359 1 -3.91395 -16.4967 -12.3785 17
360 1 -12.3258 -8.80461 -14.7465 16
361 1 -7.78682 -10.3336 -4.3525 20
362 1 0.834071 3.72271 8.72077 16
363 1 12.0683 -7.47291 -15.3044 8
364 1 -14.7186 -0.741974 -16.2242 16
365 1 -1.23389 12.6765 -11.6609 15
366 1 -18.5345 -4.90934 -8.84596 18
367 1 -7.32963 5.6173 -2.88397 18
368 1 -13.2497 3.04931 -1.33764 17
369 1 -8.33358 2.81097 2.36354 18
370 1 10.7332 2.53836 4.69357 10
371 1 7.0367 -3.39834 -14.0448 18
372 1 7.3662 -2.64031 3.12061 20
373 1 4.86795 1.99094 -14.812 20
374 1 -0.571778 -16.4874 -10.7528 16
375 1 -7.11438 -5.69592 -14.8478 19
376 1 -6.83789 12.5826 2.67882 20
377 1 -9.43647 -1.01142 -13.1036 19
378 1 8.11454 -10.052 -7.46757 16
379 1 1.93721 -4.52435 6.65558 21
380 1 -13.5881 -3.45503 -10.404 21
381 1 -15.2847 -15.0136 -8.65771 10
382 1 -10.2037 -6.48799 7.07118 18
383 1 -8.78681 13.3677 -11.2229 13
384 1 -15.2358 -10.1832 -3.8254 16
385 1 2.75249 5.94408 9.54141 8
386 1 -13.3749 3.14417 -10.8458 21
387 1 0.813756 7.32721 -19.4369 14
388 1 3.22781 7.44378 -3.00065 17
389 1 -16.6927 -7.68813 -8.14037 19
390 1 -5.31822 -8.8272 -15.4998 18
391 1 -16.1384 0.412139 0.411041 17
392 1 -11.4056 -2.8798 -7.37287 19
393 1 -1.3574 -12.1887 -3.5753 22
394 1 -13.857 -14.5434 -10.9381 13
395 1 4.35403 14.8057 0.791953 9
396 1 8.4973 1.04353 -22.0112 8
397 1 -11.9849 11.9458 -10.285 13
398 1 -2.50496 10.2996 -14.0106 17
399 1 -14.9061 -1.27308 -3.98679 19
400 1 1.82883 -17.5709 -0.303907 16
401 1 13.5893 1.574 -6.76962 17
402 1 3.27763 4.81661 -20.3876 18
403 1 -8.63003 -4.93182 -1.81518 17
404 1 -19.2682 5.51492 -8.41996 9
405 1 -9.24271 2.05955 -0.961025 16
406 1 -9.43846 -12.2142 -2.37541 23
407 1 -3.3082 -9.12426 -12.7455 19
408 1 4.43766 -10.8973 -15.412 19
409 1 -18.0073 0.528433 -4.56555 17
410 1 -14.159 5.82698 -0.504813 16
411 1 -16.34 9.4873 0.502223 15
412 1 3.86089 -11.9207 2.22866 18
413 1 -15.5842 -5.78487 -20.0026 9
414 1 3.22038 -10.5456 -18.621 19
415 1 -0.748549 -11.0261 -18.53 22
416 1 -3.03097 -5.21341 4.79763 20
417 1 0.0360403 -14.8599 -5.09253 20
418 1 -12.5765 -3.55564 -20.2736 17
419 1 8.64584 -11.641 -0.758149 11
420 1 -2.52053 7.45465 -11.352 18
421 1 -15.5826 5.38967 -3.04749 15
422 1 -10.6925 -0.654946 11.6109 11
423 1 -15.8295 -9.30434 -16.5364 15
424 1 -20.0567 -1.43166 4.19413 10
425 1 10.2124 -9.1726 4.32581 12
426 1 5.39178 -0.488627 -5.67306 17
427 1 2.76915 -4.82802 -15.4236 16
428 1 5.1294 -7.28996 3.28954 17
429 1 4.13411 -0.148674 -8.4815 18
430 1 -4.99935 2.14544 1.40809 19
431 1 -3.21979 14.763 -10.7328 8
432 1 -1.48166 -9.37118 -0.285601 23
433 1 -5.16379 -17.1923 -15.6689 10
434 1 -10.3896 1.74122 10.2143 14
435 1 -3.43971 11.2198 6.89147 14
436 1 -16.6883 -12.6076 -10.4023 13
437 1 -2.56959 13.7534 -3.5875 18
438 1 -1.52669 10.7129 -2.98341 21
439 1 -12.9937 -4.57385 0.770255 18
440 1 -18.0896 -9.66485 -1.6081 9
441 1 -22.6912 -2.7257 -1.63709 10
442 1 -8.2425 -11.6146 -11.1499 17
443 1 -3.17977 8.00991 -0.4629 19
444 1 -9.21754 -16.2949 -11.6354 14
445 1 -4.51894 -14.4253 -20.8138 11
446 1 -4.87736 -18.7359 -2.29764 12
447 1 -9.95256 -4.84057 1.2383 17
448 1 6.79854 3.79225 -2.53562 21
449 1 -10.7796 -5.27975 3.7551 19
450 1 -15.6523 3.12514 -16.6838 12
451 1 3.78156 0.735273 -11.6877 20
452 1 -2.75409 -16.1252 -7.88814 16
453 1 -3.68365 4.03171 -14.7416 18
454 1 -4.70088 15.9733 -1.26987 18
455 1 -4.51448 2.1547 -17.1086 18
456 1 -0.436149 7.81411 4.65639 16
457 1 -16.2229 -1.61522 -10.1651 23
458 1 -6.31647 13.4663 -2.73479 21
459 1 1.62761 11.2461 -13.6823 15
460 1 -9.42016 -4.33862 -20.5033 19
461 1 3.23999 -2.14004 7.38715 20
462 1 -4.36922 -12.0699 -17.5242 20
463 1 -10.1319 -6.12892 -23.2498 12
464 1 8.32934 -14.7866 -6.2285 11
465 1 -14.9336 4.41182 -8.97565 18
466 1 -5.21478 8.56055 10.7134 12
467 1 8.56469 1.29061 -4.53618 20
468 1 5.46349 2.98321 -10.2267 20
469 1 -17.1376 5.83858 -11.9304 16
470 1 3.4702 5.70151 -15.4173 19
471 1 -1.57933 -8.56014 -3.45958 26
472 1 -19.9157 -5.54737 -11.9885 12
473 1 5.89661 13.1793 -2.34397 11
474 1 -12.9513 1.91499 -21.1974 9
475 1 13.4032 1.46214 -1.22965 14
476 1 8.31419 8.85827 -14.7766 10
477 1 4.41833 -2.71255 -10.5891 18
478 1 12.2287 -6.90821 -6.21372 10
479 1 -4.22372 2.22336 -22.9415 15
480 1 5.93359 -13.6707 0.581928 14
481 1 -6.76926 -13.6371 -0.0028151 20
482 1 -0.856573 -9.54173 3.40768 20
483 1 -9.78455 4.41247 -18.6291 11
484 1 -11.5073 -14.4527 -1.43028 13
485 1 -12.2672 -14.8751 -16.7048 10
486 1 0.228301 13.3791 -2.73084 19
487 1 6.72745 -7.97783 -22.317 9
488 1 -1.95733 3.7232 6.7431 20
489 1 -21.225 -0.123921 2.25558 10
490 1 -2.15781 -16.7021 -5.07174 21
491 1 -18.2975 -6.72 -0.460746 16
492 1 11.4326 -5.26407 -12.5102 14
493 1 1.21843 -7.72477 -8.12964 17
494 1 -7.95393 1.47199 -7.95727 19
495 1 -2.89103 -10.7133 -10.0237 22
496 1 -4.27233 6.80003 -17.0642 19
497 1 7.85215 -12.167 -17.2744 12
498 1 -6.4868 5.65307 11.1565 11
499 1 -0.0279742 14.2454 -9.07075 15
500 1 -8.23291 -1.15683 -24.9494 12
501 1 0.460463 -1.98219 -23.9237 16
502 1 -9.07651 0.184745 6.93342 19
503 1 -4.34779 11.2974 -3.37798 21
504 1 -17.981 -8.20655 -13.6592 14
505 1 -21.166 -6.06174 -8.30275 9
506 1 -6.65108 -11.404 -21.6933 16
507 1 -15.5121 -7.07287 7.4892 8
508 1 4.16677 10.7261 -9.47506 15
509 1 5.71939 -1.13255 0.847768 21
510 1 14.416 0.231083 -9.65757 11
511 1 -12.7615 -15.5653 -6.94534 13
512 1 -6.70576 -14.5121 -7.17945 18
513 1 -8.11057 -3.48272 -22.6705 18
514 1 -17.7602 7.65899 2.43075 11
515 1 7.42977 -12.0831 -14.4469 14
516 1 8.81155 -3.87408 -5.08706 23
517 1 -4.74908 12.1177 -16.1465 10
518 1 4.63962 -7.96853 -7.38959 17
519 1 6.93439 1.83416 -12.5279 22
520 1 -3.48744 -2.29609 6.15487 19
521 1 -13.8455 1.34324 1.94023 19
522 1 2.21578 2.19422 3.78742 18
523 1 -1.10452 -4.98115 7.13924 21
524 1 -12.0408 -0.437318 -23.3365 11
525 1 -5.81774 -9.04092 -10.6537 21
526 1 -3.81318 -3.22787 2.40988 20
527 1 -1.69886 15.5651 -0.950589 17
528 1 6.95454 6.0279 -20.1665 11
529 1 -9.5013 4.88459 -15.7504 20
530 1 -10.0721 13.7496 -3.22581 14
531 1 5.63525 -4.51336 5.18639 17
532 1 10.6572 4.46156 -14.3519 13
533 1 4.97939 -17.2589 -5.25718 13
534 1 4.81444 8.44417 7.11517 10
535 1 -20.1256 -9.0848 -6.38425 8
536 1 -6.63971 9.15844 -16.2716 16
537 1 -3.9975 -0.50014 0.17876 20
538 1 -18.724 1.98497 3.94401 13
539 1 1.09977 8.74464 -14.966 20
540 1 -2.98488 -14.0063 -10.8626 18
541 1 3.74966 -1.91958 -20.2933 15
542 1 -12.6219 12.6269 -3.74968 12
543 1 -10.443 -9.17984 -21.9728 11
544 1 -2.65853 -19.4015 -4.28205 13
545 1 -10.0748 -10.2398 -9.73293 21
546 1 6.19137 2.99971 -20.8842 17
547 1 -7.45622 0.499381 -14.3311 18
548 1 -9.83723 9.56399 6.96424 17
549 1 -15.4683 -11.1017 0.317785 11
550 1 0.563262 0.885489 -9.87206 15
551 1 0.149394 -10.4202 -8.84461 18
552 1 3.13407 -9.12585 7.76105 14
553 1 7.2798 -2.40168 -8.07619 22
554 1 -11.517 2.33511 -3.81798 18
555 1 -0.577858 4.76606 11.6489 7
556 1 7.60095 7.69333 -9.38912 19
557 1 7.83204 -9.83644 -11.8324 18
558 1 -2.57766 2.70358 -0.306526 18
559 1 -3.77166 -3.70145 -19.6281 20
560 1 -6.18051 -11.6639 6.00588 12
561 1 -3.6049 0.480212 -14.8329 21
562 1 1.13956 -7.72668 -23.1369 15
563 1 0.0652613 4.77512 4.22297 19
564 1 4.98604 -3.59573 -16.0859 18
565 1 -3.32572 -6.19031 -21.538 21
566 1 -11.7322 -15.7282 -13.1989 12
567 1 -16.8189 -6.35856 -16.7962 12
568 1 3.23272 1.20711 -4.63842 17
569 1 8.95988 4.46024 -5.46732 21
570 1 1.73079 -8.32911 -13.1594 12
571 1 2.40094 7.13264 4.13189 15
572 1 3.8276 -1.26958 -17.2932 18
573 1 -5.38321 -2.08441 -22.6231 20
574 1 -5.75356 10.6864 -0.302526 19
575 1 -10.419 0.78314 1.07311 15
576 1 3.21335 11.396 6.24529 9
577 1 5.88956 4.70495 -14.7904 19
578 1 10.1294 -3.35346 -1.10346 20
579 1 0.331156 0.245206 -22.3999 14
580 1 -0.527462 1.30649 5.6826 21
581 1 0.209453 -1.9811 7.4199 21
582 1 -4.71538 -9.8952 4.24786 20
583 1 12.1162 1.35256 -11.6969 14
584 1 -3.05591 -0.474754 3.47163 20
585 1 10.2219 -3.72408 -10.425 23
586 1 7.06611 -1.88405 -2.30494 16
587 1 -13.572 -5.28166 -13.0071 25
588 1 13.6481 -0.0167316 -4.23422 14
589 1 13.1461 -2.07822 -1.35408 13
590 1 -16.653 5.67323 5.25223 11
591 1 5.20408 8.28446 4.09774 13
592 1 7.06902 2.31342 5.52594 15
593 1 8.78565 9.2158 -1.52737 15
594 1 -11.4881 12.2228 5.16781 13
595 1 -0.634613 0.944914 -0.177753 15
596 1 -2.28073 -16.8324 -16.0707 13
597 1 -5.1655 13.2719 -5.94622 17
598 1 3.99159 4.14631 -12.4198 21
599 1 9.34141 -1.72833 -16.4518 13
600 1 -5.49745 18.4231 -3.69344 9
601 1 -5.57743 -11.7407 -12.3134 22
602 1 4.0798 -7.69492 -15.9991 19
603 1 -17.208 2.74385 6.52641 14
604 1 -7.00655 3.51704 -16.4299 21
605 1 -7.26551 -16.8409 -9.0824 18
606 1 -3.70525 9.84347 -17.8176 11
607 1 -16.6465 -2.38834 -6.46582 20
608 1 3.36804 -6.778 5.613 21
609 1 6.43284 7.30546 -1.42527 23
610 1 0.313861 -10.8351 -1.49445 19
611 1 -11.9725 -2.90859 -13.4661 19
612 1 -10.9736 -2.69354 -22.808 15
613 1 -9.37542 4.59883 10.234 14
614 1 -1.70895 2.42742 -21.1618 20
615 1 7.2375 -7.4827 5.57646 16
616 1 1.96777 3.15533 -14.1294 18
617 1 8.45626 7.31176 -6.96156 21
618 1 0.970748 -12.5142 -17.0333 20
619 1 -15.7511 0.936871 4.27934 18
620 1 11.0103 -3.04668 2.91036 15
621 1 -8.2105 7.81692 8.72931 15
622 1 4.86408 10.4614 -13.1151 13
623 1 -19.0636 3.09838 -10.9355 12
624 1 2.81989 2.26283 -1.46791 18
625 1 -11.3169 -13.1013 -11.1857 21
626 1 11.6622 -6.94998 2.91461 14
627 1 1.83306 11.0448 -3.63916 21
628 1 -15.222 7.17399 3.33049 14
629 1 -14.0418 -3.82668 -2.50266 16
630 1 -15.3809 -2.23446 -12.9174 21
631 1 5.7012 0.349703 8.14761 13
632 1 -7.4865 -5.72331 8.61769 13
633 1 1.98329 1.15474 7.39938 20
634 1 -7.89263 16.2764 -2.4371 12
635 1 8.18289 -1.11398 -5.5531 20
636 1 3.46725 -0.665582 -0.600757 18
637 1 2.07804 -5.28395 -20.9689 19
638 1 -14.8633 -7.44019 0.578967 20
639 1 3.23344 -0.051994 -24.4865 9
640 1 -6.6114 -8.36086 -13.3041 20
641 1 10.8063 -8.64362 -12.1321 15
642 1 0.676026 4.31202 -0.53788 15
643 1 -1.37262 -2.62799 -3.89501 25
644 1 -11.295 -0.670968 8.81447 21
645 1 7.9789 2.04655 0.0413279 20
646 1 -7.78309 -8.46434 6.56679 18
647 1 -5.37535 8.41274 7.67726 20
648 1 -3.86988 -6.46312 -18.6214 19
649 1 -11.2892 3.82014 0.676586 17
650 1 3.34041 -6.21892 9.26398 14
651 1 -8.36098 -15.5023 -2.30954 16
652 1 10.1637 9.75416 -8.27608 9
653 1 0.415997 -7.42941 -10.7084 18
654 1 -8.69091 3.26301 -13.3417 20
655 1 -2.53677 3.58092 -5.5956 19
656 1 0.481014 10.0216 1.94688 19
657 1 -0.879591 -5.89571 -19.8802 20
658 1 6.89632 10.7967 -7.91786 12
659 1 9.68134 3.23425 -11.7172 20
660 1 -10.8948 -17.0253 -4.11129 10
661 1 -1.8832 -5.38072 -24.1309 14
662 1 -14.6384 10.0492 -10.7617 12
663 1 0.932074 -5.02717 -24.0977 14
664 1 2.68167 7.0814 -6.16098 18
665 1 14.6054 3.75253 -8.8321 9
666 1 8.0273 9.08125 -12.1546 10
667 1 -11.5469 7.68331 -5.33121 21
668 1 0.60613 7.75578 -9.81928 20
669 1 8.81332 0.170871 6.949 11
670 1 11.1039 0.4013 -1.4277 21
671 1 -3.60203 -18.5093 1.21599 12
672 1 0.664453 3.34029 -18.0271 16
673 1 2.96053 9.48898 1.41244 16
674 1 0.663575 -6.39943 -16.6445 18
675 1 -0.631114 -3.04965 4.61549 23
676 1 4.67347 7.65068 -8.8491 19
677 1 9.59046 3.00937 -2.1901 20
678 1 12.2179 -6.68549 -9.7287 11
679 1 -3.81683 5.95175 8.13276 19
680 1 -12.0443 0.331807 5.37132 20
681 1 6.71428 -8.51293 -9.39382 18
682 1 -0.614618 -6.4213 -13.9629 14
683 1 -19.9018 4.81519 -2.18515 10
684 1 -3.60996 5.22518 -2.81283 18
685 1 5.28764 -9.1257 -13.18 20
686 1 1.85506 7.18123 -0.0594242 20
687 1 -20.8485 -4.46487 -4.57466 13
688 1 -3.73824 4.1334 9.82242 17
689 1 -14.8642 -1.18568 -21.7064 9
690 1 -7.39015 6.48222 -15.4945 17
691 1 -2.0116 -8.20021 -9.20877 20
692 1 3.34011 4.7273 -8.49939 15
693 1 5.09023 -11.0205 -7.25015 18
694 1 -1.4788 2.75051 -7.88933 17
695 1 -14.9668 -2.16206 7.89316 15
696 1 -2.03416 -4.94397 -16.9888 20
697 1 3.91709 -10.843 -0.676496 22
698 1 -3.06491 18.0562 -0.609849 8
699 1 -8.56248 6.9248 2.28116 16
700 1 -6.60101 -13.2657 -19.4219 15
701 1 -9.15564 -11.1233 -19.2132 18
702 1 -14.1079 -12.687 -13.2145 16
703 1 -2.08557 13.9314 -14.2209 10
704 1 -0.454414 -3.74502 -14.7169 20
705 1 -3.73194 5.07661 0.881527 19
706 1 0.183735 -10.2397 -21.7015 15
707 1 -0.614791 -18.4677 -13.1706 10
708 1 -5.67032 -8.58621 1.48193 21
709 1 9.76041 -7.09892 -17.7236 12
710 1 -0.494486 -18.6923 -7.1712 12
711 1 -20.5536 -5.34309 -2.14313 13
712 1 3.67243 -13.6318 -14.8727 17
713 1 -16.2271 -9.90982 -11.2344 15
714 1 -13.7075 1.16155 10.0747 12
715 1 0.913909 -16.0269 -8.25773 17
716 1 12.9574 4.84309 -6.2578 13
717 1 -3.8285 13.4125 4.84273 13
718 1 -15.9878 -3.11307 -0.183016 18
719 1 -18.4325 4.81514 3.56061 10
720 1 5.27561 -5.30764 -8.7452 19
721 1 -13.1566 -11.3216 -16.2277 16
722 1 -5.31002 10.2477 -13.8469 16
723 1 0.820286 -2.49168 -20.5833 16
724 1 -0.448393 10.6057 7.01933 12
725 1 6.55825 5.55965 -11.2253 19
726 1 -16.2136 -4.8545 -11.2901 21
727 1 -15.2394 -13.071 -16.6373 10
728 1 -3.50805 6.93721 12.3824 10
729 1 8.31939 6.38119 -16.6848 15
730 1 3.3841 13.1732 -4.70143 15
731 1 -6.1343 -3.73002 5.9049 18
732 1 -8.98174 -13.6887 -8.97656 19
733 1 -12.3952 -12.517 0.969605 15
734 1 -2.65956 -7.51885 1.77128 24
735 1 8.07436 8.19761 5.53665 7
736 1 -1.24205 -3.43682 -22.0449 18
737 1 -10.747 2.02791 -6.91585 17
738 1 6.13895 1.24229 -2.68525 19
739 1 -15.7402 -9.60144 4.99028 10
740 1 8.20742 2.48962 -15.6654 18
741 1 -0.412084 -14.166 -13.56 16
742 1 0.67735 -16.1661 -18.6532 14
743 1 6.12356 -14.4707 -4.40736 16
744 1 -0.161316 -0.485947 -14.6575 15
745 1 1.20962 12.9956 -6.298 16
746 1 -7.03613 -2.42946 -19.6432 22
747 1 -4.92262 3.05417 4.10186 17
748 1 -6.99128 5.69569 -18.4072 13
749 1 -18.36 3.55972 -14.0509 12
750 1 -12.5685 -8.36134 -8.5732 18
751 1 -0.509811 16.0451 -6.39952 10
752 1 7.88079 -1.0434 -11.2745 20
753 1 -8.60011 -7.70077 -19.9894 22
754 1 -10.6748 -8.64672 -6.03583 21
755 1 3.58042 3.76287 -17.412 22
756 1 3.76285 -8.86248 1.07766 21
757 1 -10.8707 3.35866 4.80642 16
758 1 3.17527 -12.1219 5.78447 14
759 1 12.8879 -4.64263 0.357579 10
760 1 0.98428 -10.2285 1.45805 22
761 1 -5.73172 8.5046 -3.31854 19
762 1 -10.8131 -2.6701 6.21096 20
763 1 -7.59925 1.339 9.65489 14
764 1 -9.43408 -13.1601 0.715029 16
765 1 6.38559 -9.15047 -5.57434 20
766 1 1.39983 12.1839 4.19417 12
767 1 -16.2159 0.532223 -7.25302 19
768 1 9.88827 -6.62326 -0.348346 17
769 1 -9.13932 9.3471 -7.78761 17
770 1 -0.216146 8.22217 -2.30734 19
771 1 2.30951 -19.8078 -5.38439 8
772 1 -4.40099 0.957753 9.1571 15
773 1 -1.73625 11.5204 3.87716 19
774 1 3.0692 -19.1044 -2.368 11
775 1 -15.9017 -4.7112 -7.93462 20
776 1 -2.28359 -7.41995 8.75038 11
777 1 -16.1843 -11.4421 -13.8846 14
778 1 -1.00536 13.3317 1.49942 19
779 1 1.04208 10.9599 -0.742383 22
780 1 -14.5336 -12.7992 -6.15674 13
781 1 -1.36762 -20.1577 -0.893079 10
782 1 7.26838 -9.00229 1.74504 21
783 1 4.84519 -9.86063 4.03365 18
784 1 -1.96214 10.6634 0.140441 20
785 1 -5.76657 1.87769 -12.459 20
786 1 -3.55654 -6.71925 -15.2577 19
787 1 -4.96879 -1.33702 -17.7931 18
788 1 -9.01076 -0.0580268 4.1095 19
789 1 -6.19939 15.6172 3.32528 8
790 1 5.99478 -7.1353 -0.292626 21
791 1 10.1721 6.59327 -12.2866 13
792 1 -11.3718 5.92324 4.42876 19
793 1 -0.760198 6.83141 1.46785 15
794 1 6.67477 -4.82338 -21.825 14
795 1 0.820581 -18.1175 -15.6042 10
796 1 -9.26855 -5.10864 -12.6264 21
797 1 8.0272 -5.36013 -2.7993 19
798 1 6.21165 -3.38895 -18.9492 16
799 1 -8.69901 10.9626 4.85091 19
800 1 5.58021 -14.2347 -7.94033 14
801 1 0.918908 6.3248 -17.0681 19
802 1 -8.8108 -13.4511 -13.5176 17
803 1 7.00309 -6.02072 -17.8127 19
804 1 4.0242 -7.82777 -2.71988 20
805 1 -3.18617 -10.7847 8.13164 10
806 1 -6.90971 -10.5117 -18.0189 21
807 1 10.8843 10.5082 -3.28716 7
808 1 -8.31574 -13.432 -5.5727 20
809 1 -13.9158 8.63175 1.30645 18
810 1 6.74275 0.957308 -9.14974 19
811 1 9.56164 5.45252 -0.845588 21
812 1 -5.62111 -8.35057 -20.3337 19
813 1 -13.5475 6.74497 6.42333 14
814 1 6.09388 2.92344 2.69514 17
815 1 11.1369 6.65578 -8.69566 16
816 1 -7.42595 3.2511 -20.6632 14
817 1 7.33123 -3.81572 -10.8349 18
818 1 -15.3625 2.35823 -4.27972 20
819 1 5.73658 8.60438 -6.71851 19
820 1 -17.6786 -11.9471 -7.15909 9
821 1 -12.3982 9.74545 -7.99232 16
822 1 2.20594 -4.20018 3.83425 20
823 1 -14.4442 -7.01971 -9.9235 23
824 1 -18.6203 -0.347659 -1.35641 18
825 1 -1.79867 0.514766 -19.0024 16
826 1 6.15117 -6.00053 -14.8931 17
827 1 -11.8451 -12.6788 -18.6234 11
828 1 10.4365 -1.99727 -3.65662 20
829 1 -18.1272 5.26124 -4.74046 16
830 1 -14.1825 -7.36562 -6.03023 22
831 1 8.17055 7.89324 1.47168 15
832 1 -2.71973 -16.8995 4.06528 8
833 1 4.21791 -1.61425 3.66621 22
834 1 7.61471 -3.56455 -0.0929445 19
835 1 0.680962 -4.4776 -2.09313 16
836 1 -17.2907 6.93475 -7.76266 14
837 1 -8.57756 13.5688 4.56709 14
838 1 -1.85918 4.25714 -18.5172 20
839 1 -1.20806 -13.868 -16.3181 17
840 1 -13.5499 12.5994 2.33881 8
841 1 -8.55743 -6.10954 3.90337 19
842 1 8.44301 4.03094 -8.82527 20
843 1 2.99678 4.23849 6.05759 18
844 1 9.74415 -4.47727 -16.0696 13
845 1 6.08609 -13.0399 3.90613 11
846 1 2.98822 9.47928 -17.1396 11
847 1 -3.25826 5.83215 -22.576 9
848 1 -13.5611 -7.00167 3.992 20
849 1 10.7923 4.98271 2.16819 13
850 1 -7.66613 -8.09607 -16.8826 18
851 1 8.21218 8.82662 -4.05164 18
852 1 -14.1155 -1.97927 -7.68435 19
853 1 -11.3127 -9.46112 8.24774 11
854 1 2.57886 12.8935 -10.9859 10
855 1 1.88089 -5.79135 0.815665 18
856 1 -6.39387 -18.6417 -11.2642 11
857 1 -11.2987 9.62977 -0.385692 21
858 1 -16.3833 1.36425 -10.3023 22
859 1 4.83063 -0.568355 -13.6538 21
860 1 1.5622 -13.169 -20.5339 13
861 1 -12.155 4.54018 -7.57599 21
862 1 5.86661 6.12391 -4.53531 21