ITEM: TIMESTEP
6500
ITEM: NUMBER OF ATOMS
3840
ITEM: BOX BOUNDS pp pp pp
0.0 34.6
0.0 35.94
0.0 36.72
ITEM: ATOMS id type x y z Coordination
100 1 6.74382 3.67974 2.69144 21
245 2 1.57183 1.01631 4.33528 22
3 1 1.72456 1.00888 2.14234 19
293 2 5.39586 0.635153 5.15662 23
54 1 4.99286 2.86709 4.86447 22
6 1 1.77939 3.07507 4.29467 21
294 2 3.54544 3.89103 4.24559 19
292 2 5.13291 2.5783 2.12848 20
51 1 5.07057 0.623222 2.15556 22
52 1 3.43976 3.79486 2.27385 20
244 2 1.46224 2.87773 2.16718 20
246 2 0.267849 4.18734 4.21518 21
342 2 6.78745 4.01189 4.68021 21
291 2 3.36792 5.63074 1.76506 22
1283 2 3.37277 0.0726574 2.60266 22
7 1 1.4857 1.0936 6.72818 19
248 2 1.80637 2.84843 6.41541 22
297 2 4.72484 1.13223 9.45782 21
10 1 1.57629 3.0069 9.03085 22
11 1 1.52521 1.08975 11.5878 23
1097 1 6.87844 0.43843 9.3017 21
55 1 5.00197 0.970218 7.10041 21
56 1 3.35587 3.99152 6.88636 19
298 2 3.33943 4.19206 8.90728 21
58 1 5.14938 2.95659 9.44545 22
59 1 5.1126 0.944551 11.5905 22
60 1 3.30325 3.73288 11.8344 21
252 2 1.69664 2.86543 11.3173 23
249 2 1.61375 1.10028 9.46979 22
300 2 5.18013 2.99806 11.5827 21
296 2 5.22295 3.07844 6.91733 20
8 1 -0.0123801 3.92109 6.09658 22
1287 2 3.20636 -0.130041 6.74156 21
250 2 0.0221073 3.8369 9.40472 22
57 1 3.35408 5.95272 9.5878 22
1335 2 6.96347 0.247244 7.46541 22
346 2 6.99166 3.84887 9.27844 21
295 2 3.84683 5.75628 6.5377 22
247 2 0.00461609 5.77672 6.75802 22
1295 2 3.59965 0.157706 16.1347 23
14 1 1.861 2.58502 14.168 24
15 1 1.81513 0.570952 16.031 21
530 1 5.29577 2.86086 18.1332 20
302 2 3.34602 4.03737 13.8389 19
62 1 5.16988 2.94921 13.9853 20
63 1 5.32051 0.628887 15.8274 21
64 1 3.65255 3.92108 15.9598 21
304 2 5.34765 2.62534 15.9887 21
301 2 5.24506 0.78977 13.7595 22
253 2 1.505 0.44908 14.0591 22
482 1 1.58252 2.87039 18.1032 23
256 2 1.80257 2.91381 16.0372 18
770 2 3.68067 3.8067 18.3105 20
529 1 3.50885 5.87547 18.3353 20
818 2 6.92492 3.97769 18.0379 23
109 1 6.84272 5.83933 13.8072 21
350 2 6.85498 3.80233 13.8609 21
254 2 -0.0803976 3.35729 13.6696 23
255 2 -0.0116727 5.60154 15.8544 21
303 2 3.39376 5.89147 15.9683 19
1053 1 3.53045 -0.0218258 13.7993 20
773 2 5.25526 1.17229 22.7706 21
1477 1 0.146762 -0.051132 23.0488 19
483 1 1.63872 1.06308 20.5561 20
726 2 0.401244 4.13914 22.9721 19
772 2 5.22588 3.42695 20.9108 23
486 1 1.90852 2.99212 22.8774 25
1525 1 3.55616 0.107014 22.6747 21
725 2 1.90929 1.17639 23.1884 22
531 1 5.60542 1.2521 20.8016 21
532 1 3.54867 3.69521 20.3296 22
774 2 3.59155 3.9294 23.0883 22
534 1 5.34883 3.14087 22.9058 21
724 2 1.73313 2.91618 20.7231 21
769 2 5.21866 1.20664 18.7041 21
1573 1 6.97312 0.0907417 23.0385 20
484 1 -0.0469376 3.80299 20.6046 23
533 1 3.24377 5.83256 22.8395 23
771 2 3.28497 5.6176 20.4857 20
581 1 6.87234 6.00687 23.2394 23
721 2 1.65671 0.913597 18.6152 20
1521 1 3.56978 0.20981 18.6976 21
487 1 1.90343 1.11266 25.2314 20
775 2 3.40084 5.86794 25.0676 23
780 2 5.42244 3.07472 29.8387 23
490 1 1.74837 3.11538 27.7252 22
491 1 1.73112 1.09575 29.5931 21
1815 2 6.92837 0.360068 25.3628 21
535 1 5.31894 1.03426 25.0908 23
536 1 3.719 3.80736 25.4045 21
779 2 3.54121 6.08042 29.9539 21
538 1 5.29825 3.15972 27.7322 21
539 1 5.28376 1.14346 29.9282 21
540 1 3.61593 4.05499 30.1174 22
776 2 5.43791 2.95466 25.0695 23
777 2 5.10455 1.28354 27.6298 20
732 2 1.72477 3.44638 29.7433 23
778 2 3.53093 3.87256 27.4445 22
728 2 1.78959 3.1442 25.3777 21
729 2 1.9027 1.08852 27.6434 20
1771 2 3.37323 0.195586 29.6469 21
537 1 3.64695 5.82765 27.6606 21
488 1 0.108525 3.86179 25.1199 22
1529 1 3.61464 -0.00988279 27.3606 23
1577 1 6.79898 0.207556 27.5165 23
584 1 7.07077 4.06234 25.1578 19
1767 2 3.5913 0.13498 25.3545 21
1481 1 0.047695 0.203725 27.447 21
2 1 1.73619 3.08789 36.5493 20
494 1 1.67291 3.12253 31.9729 19
495 1 1.53911 1.05421 34.3241 20
241 2 1.66934 0.806301 36.3343 21
592 1 6.97374 3.83854 34.391 20
542 1 5.24608 2.75968 32.1832 22
543 1 5.12949 0.829712 34.2655 19
544 1 3.33662 3.72685 34.3514 21
781 2 5.24958 0.717455 32.0366 23
784 2 5.15975 2.85312 34.2725 19
733 2 1.67349 1.33635 31.917 22
289 2 4.97094 0.961976 36.4848 19
782 2 3.60703 3.89349 32.1123 20
736 2 1.60621 3.09159 34.5268 19
50 1 5.19255 2.9959 36.8029 19
338 2 6.83525 4.03255 36.5147 20
290 2 3.43648 3.86142 36.551 17
1533 1 3.23058 0.180163 31.89 19
1089 1 6.77427 0.153905 36.7708 21
5 1 0.0724844 6.19364 4.56964 21
308 2 4.97992 8.98828 2.04209 22
19 1 1.68556 6.88182 1.95693 24
20 1 -0.10361 9.95019 2.19667 21
261 2 1.95962 6.61512 4.70861 20
22 1 1.86301 8.67475 4.42273 20
309 2 5.41053 7.2114 4.06273 22
260 2 1.79091 8.78961 2.24592 20
67 1 5.40133 7.08073 2.09526 21
68 1 3.70469 10.1662 2.66256 22
116 1 6.97904 10.0435 2.18011 21
70 1 5.31747 8.98668 4.78541 22
310 2 3.36352 9.79797 4.96468 23
307 2 3.18006 11.8245 2.01456 21
262 2 0.106569 9.61996 4.38653 21
69 1 3.52199 11.829 4.71332 22
355 2 6.7092 11.9413 2.60779 22
53 1 3.72142 5.87505 4.32793 21
18 1 1.62266 8.92524 0.253212 20
306 2 3.31667 10.0184 0.142375 23
65 1 3.34443 11.9636 -0.0116132 23
25 1 0.0758075 11.803 9.23878 22
265 2 1.75334 7.05074 9.5031 20
312 2 5.09942 8.53147 7.1671 24
26 1 1.81973 8.78358 9.25752 23
27 1 1.46856 7.09732 11.3994 20
268 2 1.63802 9.19302 11.485 20
71 1 5.33346 6.56347 7.21506 23
72 1 3.52609 9.80306 6.92054 18
23 1 2.12431 6.7733 6.80757 22
74 1 4.98581 8.80457 9.24473 19
75 1 5.23498 6.92897 11.8259 22
76 1 3.51916 10.0945 11.5448 20
311 2 3.46101 11.9111 6.98424 22
316 2 5.04519 8.97278 11.4007 21
313 2 5.17599 6.61855 9.33434 22
314 2 3.52035 9.93353 9.19783 22
264 2 1.67688 8.63215 6.60136 20
24 1 0.226292 9.87621 6.51877 20
120 1 6.58512 9.80986 6.98532 22
266 2 0.376566 9.83919 8.70822 23
267 2 0.243986 11.8456 11.3528 20
347 2 6.96097 5.81757 11.5396 22
363 2 6.8501 11.6396 11.5703 21
124 1 6.94069 9.86783 11.4345 20
73 1 3.44917 12.0349 9.1906 22
299 2 3.38678 6.07744 11.7206 20
61 1 3.18558 6.2632 13.9986 21
30 1 1.49749 9.00191 13.5645 20
31 1 1.3373 7.0396 16.1839 21
319 2 3.24264 11.8112 16.2571 21
367 2 6.74555 12.0307 16.076 23
78 1 4.99194 9.02448 13.8234 22
79 1 5.18463 7.08856 16.0159 21
80 1 3.09872 9.68936 16.1598 21
318 2 3.18025 9.96846 13.8194 21
320 2 4.89649 8.96008 16.0933 22
269 2 1.24278 7.00431 13.6097 21
317 2 5.15776 7.03119 13.8472 18
272 2 1.51375 8.86274 15.683 22
545 1 3.40662 11.3957 18.5258 20
77 1 3.42992 11.8475 14.1483 22
738 2 0.00819315 9.9343 18.1606 21
366 2 6.6089 9.84508 13.9376 21
125 1 6.54428 11.7676 13.9553 20
29 1 0.148432 12.0374 13.8157 23
128 1 6.63988 9.92217 16.0089 21
593 1 7.02201 11.7795 18.3204 21
546 1 5.08252 8.85218 18.2243 20
737 2 1.58065 6.88178 18.1468 19
549 1 3.49338 12.0142 22.8415 19
788 2 5.18135 8.8619 20.9796 21
499 1 1.71887 6.74245 20.6086 21
786 2 3.39912 9.54005 18.5036 22
790 2 3.24769 9.83679 22.7957 20
502 1 1.34818 9.03938 22.8205 22
741 2 1.53401 6.84768 22.9337 22
740 2 1.29333 8.59335 20.6938 21
547 1 5.16407 6.66619 20.6099 21
548 1 3.42976 9.65726 20.5508 19
789 2 5.09796 6.76858 22.8102 21
550 1 5.01422 8.80042 23.0419 21
596 1 6.79225 9.93315 20.7439 20
819 2 7.01803 6.00785 20.2679 22
498 1 1.36431 8.91539 18.7655 22
834 2 6.62464 9.87028 18.5438 20
787 2 3.47313 11.7961 20.5278 22
838 2 6.71155 9.97426 23.1492 21
785 2 5.11606 6.92198 18.2362 20
503 1 1.92448 7.00853 24.9769 24
823 2 6.99918 6.13519 25.4028 20
794 2 3.56542 9.98677 27.4507 22
506 1 1.90181 8.67164 27.3346 21
507 1 1.71646 6.95255 29.7293 21
793 2 5.30554 6.99713 27.7101 21
551 1 5.14808 6.92354 25.5401 21
552 1 3.12437 9.98571 25.3955 20
792 2 4.82534 8.89578 25.3508 20
554 1 5.08366 8.87997 27.9539 23
555 1 5.31977 6.84422 30.0303 22
556 1 3.43412 9.9962 29.8581 21
745 2 1.89377 6.77068 27.5903 22
796 2 5.10531 9.07354 29.8876 22
744 2 1.5075 8.87191 24.9218 21
748 2 1.93997 8.8775 29.5549 21
604 1 7.0311 9.98642 29.9769 20
489 1 -0.100397 6.0038 27.4806 23
600 1 6.74875 10.1792 25.5818 22
727 2 0.14984 6.2934 25.2734 23
795 2 3.35531 11.8471 29.6768 21
746 2 0.249056 9.73563 27.2901 24
508 1 0.115613 9.46456 29.3825 22
553 1 3.45356 12.1085 27.4501 22
791 2 3.42402 11.8378 25.3452 20
798 2 3.42734 10.0937 32.1023 20
510 1 1.8073 8.96144 32.0232 22
511 1 1.88953 6.9985 34.4847 20
800 2 5.23772 9.05521 34.54 21
797 2 5.20791 6.93148 32.1876 20
558 1 5.23018 8.97582 32.0125 20
559 1 5.1703 7.11686 34.5339 20
560 1 3.54896 9.97178 34.4425 21
752 2 1.84143 9.06504 34.1552 21
66 1 5.11812 9.16413 36.8179 23
749 2 1.67301 7.03334 31.8492 23
305 2 5.54367 7.07165 36.7484 22
257 2 1.84094 6.95439 36.5441 21
258 2 0.108545 9.8106 36.6108 21
783 2 3.63555 6.03833 34.4059 19
735 2 0.0620206 6.16265 34.2115 20
846 2 7.02764 9.86431 32.2756 21
751 2 0.180323 11.9019 34.3797 22
847 2 6.87285 11.9946 34.2773 21
49 1 3.80426 5.84362 36.5589 17
541 1 3.46977 5.70935 32.1637 22
605 1 6.84324 11.821 32.0793 21
512 1 -0.0652945 9.88418 34.3435 21
799 2 3.30997 11.8095 34.4314 20
354 2 6.87103 10.1313 36.612 20
132 1 6.8783 15.9305 2.70579 22
374 2 7.05061 15.7213 4.77391 23
35 1 1.58585 12.9779 2.11025 20
276 2 1.56149 15.0307 2.51288 24
326 2 3.34808 15.8201 4.55272 24
38 1 1.54631 14.8742 4.58928 24
323 2 3.23738 17.693 2.50396 22
324 2 5.17175 15.0003 2.78046 24
83 1 4.90448 12.9372 2.32968 24
84 1 3.41809 15.862 2.33805 20
277 2 1.9965 12.7511 4.46726 21
86 1 5.10123 14.7204 4.74546 22
325 2 5.13274 12.8209 4.55061 19
321 2 5.16193 12.9536 -0.0371318 21
34 1 1.61543 15.0976 0.145402 21
85 1 3.28781 17.7907 4.45332 22
371 2 6.7731 17.8597 2.76577 21
133 1 6.64526 17.9809 4.76594 22
273 2 1.62125 13.0891 0.226176 23
81 1 3.51471 17.9014 -0.286213 21
370 2 6.55824 15.83 0.209991 22
129 1 6.6157 17.779 0.585184 22
39 1 1.57607 12.6534 6.90474 20
328 2 5.36 14.5253 6.65949 21
332 2 5.41459 14.6773 11.4066 21
42 1 1.79576 14.921 8.94207 23
43 1 1.68533 12.924 11.607 22
315 2 3.49796 12.0266 11.2841 20
87 1 5.39223 12.4624 7.07671 23
88 1 3.54345 15.6811 6.86222 19
284 2 1.77786 14.9744 11.3625 20
90 1 5.32291 14.6579 9.3197 21
91 1 5.24752 12.7389 11.3272 20
92 1 3.68277 15.5401 11.398 23
89 1 3.58192 17.72 9.33193 23
140 1 6.9346 15.8723 11.6346 21
330 2 3.54953 15.6289 8.91218 20
329 2 5.38312 12.7604 9.16006 24
280 2 1.71368 14.587 6.81648 22
281 2 1.65487 13.009 9.23703 22
375 2 6.62244 17.8752 6.78085 20
136 1 7.0351 15.8098 6.69363 19
327 2 3.27331 17.7137 6.52813 25
44 1 0.214922 16.0903 11.0725 23
283 2 0.234701 17.8454 11.6694 22
331 2 3.61755 17.6171 11.1538 20
754 2 0.0223021 16.149 18.1439 22
46 1 1.58187 14.94 13.5409 22
47 1 1.82115 13.1255 16.1031 22
497 1 0.0790031 11.992 18.2723 20
334 2 3.35885 15.8253 13.5653 19
94 1 4.94177 14.8195 14.2034 22
95 1 5.05417 12.9066 16.2217 23
96 1 3.42877 15.9574 16.1394 23
336 2 5.02212 14.9126 16.2156 20
333 2 4.93023 12.9745 13.9781 23
285 2 1.87866 13.0752 13.8513 21
288 2 1.77607 15.1201 16.4153 23
271 2 0.0349532 12.0692 16.1282 19
801 2 4.79295 12.8252 18.26 22
144 1 6.76364 15.8647 15.8521 23
141 1 6.84901 17.8381 13.6976 19
335 2 3.48265 17.7852 16.2864 21
93 1 3.68702 17.7758 13.2047 25
382 2 6.65468 15.6084 13.8762 24
854 2 6.65696 16.0942 23.1699 19
805 2 5.01626 13.2698 22.8265 21
515 1 1.64862 12.9241 20.6662 20
806 2 3.35846 15.7994 23.0048 22
756 2 1.75626 14.9585 20.6168 20
518 1 1.59152 14.8372 22.8654 21
804 2 5.16592 15.1747 20.5746 22
757 2 1.61487 12.7809 22.9244 19
563 1 5.11763 13.0148 20.565 21
564 1 3.48999 15.7637 20.5477 21
566 1 5.20241 15.0992 22.6795 20
516 1 0.266739 16.2764 20.6044 21
612 1 6.90849 15.9177 20.5303 22
753 2 1.81564 12.8846 18.4697 22
802 2 3.52818 15.9806 18.2792 21
803 2 3.23526 17.7536 20.6299 21
565 1 3.45087 17.738 22.9286 22
597 1 6.65776 11.8892 22.9177 20
514 1 1.67569 15.0675 18.3899 22
561 1 3.4682 18.0225 18.5226 22
562 1 5.23104 14.8224 18.3681 22
850 2 6.97039 15.8808 18.4925 20
519 1 1.67942 12.904 25.0879 20
843 2 6.84088 11.8519 29.7165 22
810 2 3.07612 15.7202 27.614 25
522 1 1.42918 14.7547 27.5484 24
523 1 1.63251 12.8715 29.7415 22
809 2 5.10083 13.1916 27.5071 19
567 1 5.04174 12.8786 25.263 21
568 1 3.19332 16.0596 25.1694 21
808 2 5.06414 14.9963 25.4615 21
570 1 5.194 15.0882 27.3965 22
571 1 5.29714 13.1623 29.6429 24
572 1 3.2069 15.8162 29.9595 22
524 1 -0.00810836 15.7679 29.5876 22
807 2 3.83238 17.816 25.4207 20
812 2 4.96104 14.9656 30.0929 22
764 2 1.63285 14.7136 29.5589 21
760 2 1.68496 14.8683 25.0163 23
761 2 1.58694 12.8219 27.3245 20
520 1 -0.129187 15.7831 25.1184 19
620 1 6.9315 15.8984 29.8901 20
601 1 6.60705 11.9396 27.661 22
521 1 0.0795382 17.8868 27.3874 20
811 2 3.54365 17.8061 29.9705 20
569 1 3.61469 17.705 27.7605 22
616 1 6.55789 16.3605 25.0748 21
763 2 0.254732 17.6523 29.5733 21
759 2 0.258844 17.8649 25.4119 19
839 2 6.71514 12.0683 25.4448 20
813 2 5.1598 12.8317 32.091 19
526 1 1.51398 14.6787 32.2881 20
527 1 1.72872 12.998 34.6584 23
816 2 4.95736 14.8402 34.4528 21
768 2 1.6603 14.9213 34.3377 21
574 1 5.15979 14.7637 32.0007 21
575 1 4.94145 12.9609 34.3956 20
576 1 3.49793 16.0042 34.1995 20
814 2 3.32403 15.8899 32.0971 19
766 2 0.113548 15.8662 31.7087 23
765 2 1.62318 12.9546 31.8479 23
113 1 6.76644 11.974 36.4457 23
557 1 3.3929 11.9243 32.0623 23
624 1 6.73878 15.8324 34.3671 20
82 1 5.01367 14.8547 36.7961 19
322 2 3.45115 15.9505 36.617 22
573 1 3.63693 17.8279 31.8434 19
862 2 6.76282 16.0319 31.9868 23
863 2 6.80623 17.8741 34.426 22
621 1 6.82059 18.0591 32.4464 21
33 1 0.219551 17.6654 36.947 20
1302 2 6.75265 22.0949 4.77075 20
1252 2 5.02704 20.9064 2.23777 22
963 1 1.54207 18.7566 2.26354 20
1251 2 3.35628 23.942 2.36437 21
1254 2 3.35038 22.0362 4.91644 21
966 1 1.74338 20.7925 4.97408 20
1250 2 3.49125 21.9976 -0.0638323 22
1253 2 5.08148 18.9467 4.80682 22
1011 1 5.02646 18.9396 2.71919 23
1012 1 3.30302 21.833 2.70376 23
1205 2 1.49702 18.7943 4.50148 23
1014 1 4.90995 20.9142 5.11245 21
1204 2 1.62299 20.7219 2.40566 20
1009 1 3.53299 23.8964 0.323447 21
1010 1 5.24278 21.0099 0.273038 20
1060 1 6.69371 22.0683 2.51549 22
1249 2 5.06676 19.0451 0.0765676 20
1203 2 0.112167 23.6433 2.34465 20
967 1 1.70341 18.6366 6.83505 20
1209 2 1.93699 18.6468 9.05039 20
1212 2 1.81294 21.2338 11.3135 21
970 1 1.77677 20.6705 9.1288 19
971 1 1.76179 19.082 11.4477 20
1208 2 1.73528 20.9347 7.21815 24
1015 1 4.98308 18.6575 6.95065 20
1016 1 3.48063 22.132 7.05384 22
1256 2 5.36345 21.244 6.93657 22
1018 1 5.33791 21.0523 8.96484 21
1019 1 5.41435 19.0261 11.0032 21
1020 1 3.81099 21.637 11.2349 20
1260 2 5.51096 20.8665 11.4095 20
1257 2 5.16977 18.9705 9.08601 19
1258 2 3.39459 21.833 8.99419 19
1210 2 0.105313 21.9817 9.23829 22
968 1 0.119405 22.1075 6.77328 24
1259 2 3.72872 23.7839 11.4313 21
1303 2 6.74531 23.8615 7.18184 20
513 1 0.144446 18.3182 18.3835 22
974 1 1.88368 21.0232 13.4482 22
975 1 1.83919 18.8878 16.1621 22
1262 2 3.68551 21.6328 14.0937 23
1261 2 5.32714 18.8905 13.1064 22
1022 1 5.33535 20.8213 13.4243 21
1023 1 4.71971 19.1249 16.1272 22
1024 1 3.39523 22.2218 15.8855 22
1264 2 4.9855 20.9955 16.3295 21
1216 2 1.89548 20.8272 15.964 20
1213 2 1.90652 18.7875 13.6877 20
1263 2 3.51408 24.0697 16.2585 24
1442 1 1.89502 21.0584 18.5964 21
1021 1 3.79512 23.7302 13.654 21
1072 1 6.79526 21.8378 15.9816 22
976 1 0.15166 21.8239 15.8825 21
973 1 0.363818 23.9819 13.8621 20
1214 2 0.269855 21.908 13.7311 22
609 1 6.72984 17.9984 18.6396 22
383 2 6.60087 17.9159 15.7403 23
287 2 0.0677605 18.0936 16.0575 20
1441 1 0.129016 23.8532 18.4259 21
1732 2 5.44394 21.0738 20.6199 23
1685 2 1.92096 18.4979 23.3281 24
1443 1 1.79474 18.9331 20.7461 22
1493 1 3.40618 23.9024 22.9291 21
1684 2 1.69014 20.8018 20.9221 19
1446 1 1.72893 20.7161 23.3319 21
1683 2 0.190079 23.704 20.5705 22
1734 2 3.41432 21.9137 23.1714 19
1491 1 4.84183 18.9764 20.8276 21
1492 1 3.51713 21.9633 20.95 22
1733 2 5.00228 18.7912 22.7791 22
1494 1 5.1622 20.7879 23.0108 21
1540 1 7.21105 22.0549 20.7068 22
1782 2 6.82915 21.6409 23.0861 23
1686 2 0.0117947 21.5706 23.0348 22
1731 2 3.63278 23.9206 20.7947 18
1490 1 5.11212 21.1767 18.2786 23
1681 2 1.93325 19.0726 18.42 21
1730 2 3.4924 22.1044 18.715 21
613 1 7.05999 17.9634 22.6134 22
1682 2 0.160695 21.672 18.4978 19
1729 2 5.02208 19.1769 18.7824 20
1447 1 2.03799 18.8084 25.5894 23
1740 2 5.31884 20.8781 29.8347 20
1736 2 5.0447 21.0892 25.1953 22
1450 1 1.5691 20.9993 27.7111 20
1451 1 1.75904 18.7681 29.7453 21
1691 2 0.00420926 24.0507 30.0393 21
1495 1 5.19159 19.0962 25.5018 23
1496 1 3.28374 21.8575 25.3344 19
1689 2 2.02028 19.0123 27.6131 20
1498 1 5.13314 20.9582 27.9153 23
1499 1 5.50248 18.7392 29.9343 23
1500 1 3.60645 22.1225 29.6189 20
1738 2 3.3746 22.0374 27.6341 19
1688 2 1.84302 20.7064 25.3359 20
1692 2 1.85904 20.9112 29.7605 18
1737 2 5.24737 18.9136 27.8223 21
1448 1 0.0927598 22.2066 25.1084 22
1690 2 0.0671136 21.931 27.1622 21
1786 2 6.96093 21.736 27.572 21
1735 2 3.56021 23.9234 25.2171 21
1497 1 3.42824 24.0099 27.5034 20
1742 2 3.40633 22.1026 31.8913 23
1454 1 1.84692 20.8042 31.8042 20
1455 1 1.6917 18.9056 34.2088 20
962 1 1.89774 20.7359 36.8368 20
1741 2 5.28695 19.144 32.0594 22
1502 1 5.27444 21.2261 31.9766 22
1503 1 5.13463 19.1 34.5762 22
1504 1 3.38046 21.8067 34.5276 24
1696 2 1.86218 20.7135 34.5689 19
1694 2 0.21561 21.9731 32.1172 22
1693 2 1.92935 18.812 31.6764 19
1744 2 5.17325 21.0844 34.3367 19
815 2 3.3867 18.0737 34.4326 20
1501 1 3.49299 24.0553 32.1369 19
1201 2 1.77496 18.8511 36.6436 20
1220 2 1.72561 27.0363 2.12155 21
1026 1 5.3438 26.9902 -0.167492 21
979 1 1.64005 25.0582 2.37091 19
1270 2 3.68402 27.9206 4.75784 21
1269 2 5.08799 25.0356 4.84595 22
982 1 1.956 27.0292 4.81669 24
1061 1 6.71807 23.9967 4.7428 21
1268 2 5.20112 27.0692 2.54619 21
1027 1 4.97489 25.1382 2.78001 21
1028 1 3.37331 27.8242 2.82396 24
980 1 0.0233445 28.2461 2.28857 19
1030 1 5.4607 27.0272 5.03856 21
1221 2 1.69197 24.9717 4.42216 22
1299 2 6.7389 24.1068 2.61619 21
1265 2 5.4164 24.7866 0.159314 21
1267 2 3.71003 29.7228 2.38133 21
1076 1 6.9346 27.9923 2.39197 20
1222 2 0.410775 28.0443 4.75991 21
1013 1 3.19846 23.9359 5.15378 22
978 1 1.41379 27.0704 0.0475067 20
1025 1 3.51469 29.8326 -0.0489076 21
983 1 1.82846 25.3006 7.57837 24
1228 2 1.90472 26.7338 11.9444 19
1276 2 5.3673 26.7853 11.2959 21
986 1 1.85397 27.2612 9.49733 23
987 1 1.89079 24.9261 11.4921 23
1225 2 1.91037 25.2126 9.47081 20
1031 1 5.06223 24.9842 6.94326 23
1032 1 3.47862 27.8692 6.80066 25
1272 2 5.47321 26.8034 6.9238 22
1034 1 5.24415 26.9436 9.35751 20
1035 1 5.50257 24.818 11.2022 21
1036 1 3.58066 27.9469 11.6949 22
1017 1 3.45514 23.8546 9.19711 23
1274 2 3.60436 28.1112 9.3851 24
1255 2 3.21092 24.0934 7.06456 20
1273 2 5.20042 24.7846 9.26382 23
1224 2 1.80484 27.2012 7.01241 21
969 1 -0.248425 24.0337 9.6102 22
1207 2 0.204652 24.0557 7.40684 22
988 1 0.227527 27.9314 11.8055 21
1275 2 3.77301 29.9206 11.7785 20
1322 2 6.59626 28.302 9.07959 21
1226 2 -0.0232986 27.672 9.70248 22
1223 2 0.247419 29.8729 7.01212 23
1505 1 3.98992 29.9765 18.2979 22
990 1 1.71786 26.8121 14.04 25
991 1 1.79917 24.805 16.4775 21
1279 2 3.52889 29.9893 15.8516 24
1280 2 5.21457 26.9732 15.8451 19
1038 1 5.57043 26.7434 13.7397 20
1039 1 5.24677 24.7947 16.1527 21
1040 1 3.4995 28.0261 15.939 22
1278 2 3.67183 27.748 13.6598 20
1232 2 1.91935 27.0053 16.2557 21
1229 2 2.08971 24.7072 13.854 20
1277 2 5.252 24.8044 13.9977 19
1794 2 6.94847 27.9715 18.2233 20
992 1 0.147833 28.0221 16.0036 22
1230 2 0.122215 28.0542 13.9751 22
1457 1 0.461773 29.6332 18.5687 21
1458 1 1.95741 26.7572 18.3439 19
1231 2 0.221313 29.8236 16.166 20
1746 2 3.81789 27.7682 18.1086 24
1037 1 3.75912 29.8272 13.7597 19
1506 1 5.37975 26.7228 17.9914 22
1698 2 0.0752234 27.798 18.2678 22
1749 2 5.34311 24.9212 22.8604 19
1747 2 3.69658 29.8891 20.4796 21
1459 1 1.6836 24.8756 20.8209 20
1460 1 0.230794 27.7784 20.7129 20
1750 2 3.45035 27.6862 22.8854 22
1462 1 1.65106 26.9596 23.3383 22
1748 2 5.20908 26.8456 20.8041 21
1701 2 1.24077 25.0749 23.0235 22
1507 1 5.24872 24.8855 20.7368 21
1508 1 3.63269 27.8486 20.7782 22
1699 2 0.346878 29.8808 20.6209 20
1510 1 5.31671 26.8571 23.001 19
1509 1 3.52158 29.6869 22.6203 22
1700 2 1.93686 26.8626 20.5401 21
1556 1 6.90987 27.9075 20.5249 23
1745 2 5.45734 24.7496 18.4216 20
1697 2 1.79394 24.7864 18.4749 20
1461 1 0.274247 29.8334 22.8038 20
1557 1 6.84475 30.1048 22.6576 23
1489 1 3.68298 24.0718 18.7512 24
1463 1 1.82867 24.8193 25.2535 21
1705 2 1.74622 24.9841 27.5119 21
1752 2 4.94799 26.7327 25.2529 21
1466 1 1.57013 27.0094 27.3474 23
1467 1 1.75366 25.0246 29.9418 20
1756 2 5.38112 26.8591 29.6495 20
1511 1 5.34899 24.8897 25.6193 21
1512 1 3.46296 27.646 25.5439 21
1739 2 3.61377 24.1242 29.789 22
1514 1 5.28914 26.7345 27.4866 22
1515 1 5.2446 24.8444 29.8998 20
1516 1 3.5657 27.7341 29.701 21
1754 2 3.56113 27.6613 27.6359 23
1755 2 3.68659 29.9117 29.7243 21
1708 2 1.78785 27.3026 29.9874 23
1753 2 5.24469 24.7964 27.7045 22
1704 2 1.66573 27.0121 25.3285 20
1560 1 6.9061 28.2903 25.222 20
1468 1 0.0187408 27.9314 30.0028 20
1703 2 0.361369 29.6788 25.5959 21
1513 1 3.48773 29.9201 27.5157 19
1751 2 3.70651 29.7857 25.4758 22
1568 1 6.99065 27.711 34.4056 22
1470 1 1.72983 27.0024 32.0616 19
1471 1 1.76369 24.7459 34.5038 20
1453 1 0.0872215 24.1267 32.1153 20
1710 2 -0.00127047 28.3703 32.022 22
1518 1 5.09252 26.9231 32.1477 22
1519 1 5.23429 24.8205 34.1674 24
1520 1 3.22118 27.6865 34.5298 21
1757 2 5.29851 24.8737 32.1665 20
1743 2 3.51596 23.8448 34.365 21
1709 2 1.85933 24.9088 32.2835 21
1760 2 5.18505 26.825 34.6869 20
1758 2 3.29649 27.8362 32.4156 20
1712 2 1.37117 26.8526 34.6214 21
1517 1 3.48077 29.8288 32.5164 22
1057 1 7.04426 23.8085 36.6218 20
1266 2 3.25921 27.9101 36.4919 20
1806 2 6.71028 27.9419 32.2617 20
1217 2 1.70647 24.8369 36.4799 22
1334 2 6.75642 34.2774 4.6992 20
1285 2 5.00987 30.8833 4.73187 23
995 1 1.86076 30.7599 2.06879 23
1236 2 1.50667 32.5905 2.55421 22
1286 2 3.34962 33.6869 4.33795 23
998 1 1.57204 32.7968 4.49898 21
1284 2 5.23915 33.0985 2.38561 20
1092 1 7.01596 34.096 2.51218 21
1043 1 5.26367 31.1212 2.51702 20
1044 1 3.25179 33.9454 2.39656 20
981 1 0.14344 30.0181 4.51912 19
1046 1 5.18367 33.0646 4.56332 21
1237 2 1.80452 30.8623 4.79197 24
1233 2 1.94032 31.0179 -0.0341671 20
1330 2 6.59869 33.9993 0.0947321 20
1282 2 3.57818 33.9261 0.0400549 19
1281 2 5.18017 30.7391 0.0233584 19
994 1 1.75675 32.8194 -0.392638 21
1045 1 3.22497 35.8849 4.70258 21
1331 2 6.97554 35.9525 2.16326 21
1219 2 -0.0611421 30.2115 2.24014 23
1029 1 3.46279 29.8093 4.7684 22
1315 2 6.90075 30.1325 2.59481 23
1234 2 0.328999 33.9433 0.195616 22
1042 1 5.19565 32.7182 0.31529 22
999 1 1.84542 30.7699 7.09355 24
1241 2 1.86625 30.7648 9.26258 19
1292 2 5.32767 32.9313 11.5147 22
1002 1 1.73379 32.8225 9.15208 22
1003 1 2.07124 30.9356 11.6108 21
1244 2 1.71285 32.7991 11.373 21
1004 1 0.208121 34.0837 11.4391 24
1048 1 3.33574 33.7766 6.73173 23
1288 2 5.20167 33.0876 6.89371 21
1050 1 5.10736 33.2235 9.1674 20
1051 1 5.44324 31.0018 11.3804 23
1052 1 3.40263 33.8615 11.6671 22
1240 2 1.74696 32.7624 7.08941 21
1290 2 3.46952 33.9471 9.55374 22
1242 2 0.0918744 33.9788 9.20774 21
1289 2 5.18471 31.2208 9.13389 23
1227 2 0.246992 29.9629 11.6562 21
1033 1 3.63986 29.929 9.3741 20
1291 2 3.25396 35.9253 11.4692 20
1049 1 3.16234 35.7784 9.49296 24
1047 1 5.21605 31.0895 7.05802 20
1271 2 3.64163 29.8254 7.03362 25
1338 2 6.7131 34.3323 9.42701 19
1001 1 -0.158336 35.9007 9.14155 23
1008 1 0.102866 34.0759 16.1882 19
1006 1 1.82599 32.937 13.7827 22
1007 1 1.77497 30.8589 16.0577 21
1246 2 0.234779 34.0145 13.7311 21
1293 2 5.51554 30.8577 14.0574 21
1054 1 5.37923 32.9929 14.1746 24
1055 1 5.41171 31.0451 15.9656 19
1056 1 3.67288 33.9651 16.1661 22
1296 2 5.40648 33.1259 16.2907 22
1248 2 1.94355 33.0614 16.0962 21
1245 2 2.03467 30.9763 13.582 21
1294 2 3.68583 34.145 13.8816 21
989 1 0.216548 29.947 13.7079 20
1713 2 2.13283 30.7295 18.2317 21
1761 2 5.63477 31.2569 18.3045 23
1714 2 0.181345 33.9308 18.1356 19
1764 2 5.37078 32.817 20.9518 22
1763 2 3.48238 36.006 20.7833 20
1475 1 1.93381 30.983 20.2847 20
1718 2 0.271481 33.799 22.9452 22
1762 2 3.56329 33.6972 18.5798 20
1478 1 2.02088 32.6253 23.0073 22
1716 2 1.99548 32.9033 20.7446 19
1474 1 1.95637 32.7837 18.0485 21
1523 1 5.41319 31.0415 20.5344 23
1524 1 3.65183 33.8069 20.8955 21
1476 1 0.0815603 33.9973 20.9085 20
1526 1 5.38045 33.0967 22.9065 20
1717 2 1.916 30.7733 22.8432 21
1766 2 3.5347 34.0878 23.0486 22
1765 2 5.04378 31.0547 22.9486 19
1522 1 5.5075 33.2913 18.3816 20
1479 1 1.78285 30.9279 25.4763 21
1484 1 -0.310071 34.191 29.7017 21
1819 2 6.68586 35.9616 29.6962 22
1482 1 1.68526 32.8888 27.7184 21
1483 1 1.78506 30.7897 29.8206 22
1769 2 5.03754 31.0255 27.8512 21
1527 1 4.98053 31.2252 24.9389 23
1528 1 3.32318 34.156 25.1895 21
1770 2 3.58351 33.9085 27.8195 20
1530 1 5.09333 33.0157 27.1192 23
1531 1 5.2232 31.0527 29.776 21
1532 1 3.48445 33.8967 29.8554 22
1719 2 -0.0990599 35.8761 25.2801 21
1768 2 5.00981 33.1617 25.0836 21
1772 2 5.16864 32.874 30.2031 22
1707 2 -0.0113099 30.0879 29.908 19
1720 2 1.77615 32.9201 25.4342 20
1721 2 1.79478 30.8931 27.6769 20
1724 2 1.65767 32.9427 29.9579 19
1480 1 -0.039799 33.8927 25.4061 20
1722 2 0.183432 34.228 27.6522 22
1818 2 6.96553 33.8689 27.363 20
1580 1 6.67754 34.1042 29.6787 22
1561 1 6.78497 29.9936 27.4596 21
1488 1 -0.00827901 34.0597 34.2076 21
1486 1 1.80349 33.0026 32.1468 20
1487 1 1.87561 31.015 34.4057 20
1776 2 5.11707 32.8182 34.3232 23
1759 2 3.55033 29.7901 34.695 21
1534 1 5.07574 32.7273 32.1549 21
1535 1 5.38828 30.8432 34.6252 20
1536 1 3.49868 33.9954 34.1433 22
1775 2 3.21677 36.0079 34.0153 22
1041 1 3.28658 35.7164 36.0393 23
1725 2 1.90468 30.9626 32.336 20
1774 2 3.57349 34.0301 32.0468 20
1773 2 5.18701 30.7456 32.6026 22
1728 2 1.74715 32.8616 34.2255 23
1823 2 6.99288 36.0418 34.663 22
1584 1 6.85212 33.9116 34.4535 20
339 2 6.9791 5.79115 2.39676 20
99 1 8.81607 0.935343 2.2324 19
102 1 8.80305 2.81688 4.40568 18
1093 1 7.00811 0.342825 4.37915 21
341 2 8.80257 0.852904 4.29155 22
147 1 12.2944 0.880768 2.20483 20
148 1 10.1948 4.28316 2.26481 19
340 2 8.6007 3.0665 2.43853 21
150 1 12.0782 2.8643 4.41877 21
390 2 10.4659 3.79645 4.5034 19
389 2 12.3154 0.896256 4.4562 22
388 2 11.78 2.70601 2.17032 22
1141 1 10.4539 0.0979785 4.89712 22
387 2 10.7523 6.08122 2.27425 22
1379 2 10.5053 -0.140941 1.93568 21
101 1 7.01218 6.12287 4.73853 21
438 2 13.7062 4.28528 4.56654 23
196 1 14.2132 4.12021 2.08185 21
149 1 10.4382 5.88632 4.56838 20
146 1 11.9734 2.92314 0.152815 21
98 1 8.5145 3.1596 0.0425017 20
337 2 8.53081 1.05336 0.170693 20
97 1 7.11397 5.84267 0.187837 20
103 1 8.8307 1.26735 7.02587 22
106 1 8.82728 3.26713 9.20492 23
107 1 9.00514 1.15608 11.3046 22
151 1 12.4224 1.06468 6.69902 21
152 1 10.434 4.07935 6.72329 22
344 2 8.8745 3.15157 6.53382 22
154 1 12.3989 2.97607 8.93745 21
155 1 12.3118 0.93532 11.3716 19
156 1 10.5106 4.0109 11.3962 23
391 2 10.3625 6.06032 7.06009 21
394 2 10.6003 3.95918 9.04551 20
392 2 12.3753 3.01322 6.83641 21
396 2 12.194 2.94565 11.4289 21
345 2 8.84834 1.22204 9.07672 19
348 2 8.70956 3.25932 11.3037 21
393 2 12.5075 0.914377 9.1001 21
204 1 13.7821 4.22436 11.505 20
1383 2 10.6213 0.143841 6.91125 22
1145 1 10.7158 0.0399751 9.02213 19
1387 2 10.451 0.109353 11.3559 20
1339 2 7.38711 0.0613519 11.4488 22
343 2 7.10374 5.98788 6.95988 21
104 1 7.08859 4.06018 6.93114 23
108 1 6.82569 3.91919 11.4604 19
395 2 10.5728 5.86277 11.5052 22
110 1 8.69198 3.00615 13.6686 21
111 1 8.64909 1.20817 16.0951 21
1149 1 10.5831 0.123224 13.7504 22
158 1 12.1798 3.13962 13.7601 23
159 1 12.2207 1.22008 15.9585 20
160 1 10.4107 4.18399 16.0188 23
351 2 6.93192 6.10089 15.8338 22
1617 1 10.4055 0.1227 18.303 20
349 2 8.75668 1.11882 13.7551 20
352 2 8.90748 3.21538 15.9616 24
397 2 12.2283 1.21347 13.6809 21
398 2 10.26 3.94111 13.6329 21
1101 1 7.16468 -0.0598338 13.4774 22
400 2 12.1754 3.32892 16.0802 21
1197 1 13.9335 0.276404 14.0586 20
577 1 7.05586 5.89992 18.1956 22
446 2 13.5487 4.46924 13.6602 22
112 1 6.94269 3.86253 15.9838 19
208 1 13.7941 4.25916 16.1327 20
1391 2 10.5872 0.335309 15.963 23
157 1 10.3082 5.98298 13.9468 22
578 1 8.62832 3.00639 18.3178 20
869 2 12.3204 1.03075 22.6844 23
579 1 8.81332 1.33804 20.9379 22
582 1 8.69367 3.00763 23.1297 21
821 2 8.69941 0.999301 23.0345 22
677 1 13.7574 6.07413 22.8692 20
627 1 12.2388 1.00851 20.5401 19
628 1 10.6659 4.05636 20.6812 24
868 2 12.3009 3.15294 20.5187 24
630 1 12.2335 3.18649 22.7888 19
820 2 8.74631 3.25614 20.5709 22
1811 2 7.23179 0.20413 20.9026 20
870 2 10.5248 4.02653 22.8625 20
817 2 8.76703 1.18922 18.5509 22
865 2 12.0326 1.0603 18.1702 21
914 2 13.7163 4.08978 18.3072 19
626 1 12.0049 3.19836 18.453 22
822 2 7.17286 4.12976 23.2522 20
580 1 7.12348 4.16161 20.312 25
1859 2 10.5091 0.207893 20.5034 22
867 2 10.3874 6.15286 20.9495 23
866 2 10.2554 4.05479 18.4384 23
583 1 8.68294 0.866836 25.2342 22
586 1 9.10702 3.01643 27.3449 23
587 1 8.6576 0.908838 29.5408 20
631 1 12.2768 1.11591 25.1392 20
632 1 10.5742 4.15753 25.1147 22
872 2 12.3664 3.09209 24.9973 20
634 1 12.3469 3.04641 27.4565 21
635 1 12.2349 0.939625 29.9901 19
636 1 10.4845 3.83959 29.9947 22
876 2 12.2409 2.8619 29.7522 22
873 2 12.1368 1.16886 27.0986 22
874 2 10.7454 3.99148 27.3116 24
824 2 8.95448 3.02046 25.1562 20
825 2 8.65984 0.992467 27.4761 19
828 2 8.65713 2.85704 29.8196 21
588 1 7.25326 4.11052 30.104 21
827 2 7.15702 6.06211 30.0023 21
1673 1 13.7517 -0.0669633 27.6907 24
681 1 13.8949 6.0221 27.6868 19
826 2 7.38628 3.90567 27.4584 23
875 2 10.6245 5.68918 29.6761 22
1867 2 10.4137 0.0866481 29.6249 22
590 1 8.61793 2.85322 31.9688 21
591 1 8.61946 0.89823 34.5584 20
386 2 10.4894 3.99704 36.83 19
638 1 12.3142 2.93884 32.4068 21
639 1 12.0458 0.895501 34.655 19
640 1 10.4457 3.94212 34.5577 20
880 2 12.2396 2.81085 34.3212 22
1629 1 10.4494 0.128462 32.4541 21
829 2 8.61952 0.928817 32.0537 22
832 2 8.6783 2.92454 34.6625 22
877 2 12.2393 0.817001 31.9237 21
878 2 10.3596 3.84786 32.3042 20
589 1 7.03251 6.14149 32.2507 19
385 2 12.3959 0.858325 36.7324 21
830 2 6.95025 3.83417 32.0083 22