ITEM: TIMESTEP
447000
ITEM: NUMBER OF ATOMS
2000
ITEM: BOX BOUNDS pp pp pp
-30.0 30.0
-30.0 30.0
-30.0 30.0
ITEM: ATOMS id type x y z Coordination
1 2 -14.2091 -7.04279 -4.50087 10
2 1 -0.538926 -10.7459 -12.8784 10
3 2 -0.496709 -0.598969 -15.3785 16
4 1 3.05663 -7.76358 6.9959 16
5 2 -9.56283 -16.3306 10.1148 9
6 1 5.79637 -18.0127 0.409459 9
7 1 8.61488 2.4513 -12.9911 15
8 2 -16.3716 10.79 -2.56005 11
9 2 7.13495 -8.25738 -7.0473 17
10 1 -5.46457 -7.82102 6.57371 20
11 1 9.6137 10.1271 -4.4452 15
12 1 6.04614 -2.17353 -2.73256 18
13 2 -15.8206 -7.47137 10.6822 13
14 2 -3.19718 -18.1286 0.282814 14
15 2 -9.50227 9.19208 -3.67954 19
16 2 1.04283 8.38639 -14.4798 12
17 2 -3.18317 -1.67934 -5.13319 19
18 2 -2.67384 6.43986 -17.0293 10
19 2 12.6878 -1.33108 -8.31617 19
20 2 -15.622 -4.05124 -3.18545 16
21 2 12.6858 -9.1585 -14.0851 8
22 2 4.01117 -0.825764 -16.1488 11
23 2 10.6786 -9.01049 -7.08901 19
24 2 -12.1371 -5.92499 -1.67857 16
25 2 -0.189647 7.2707 -11.9142 16
26 2 18.1621 -7.17173 4.56031 11
27 2 -14.9114 8.16717 0.891498 17
28 2 8.65997 5.66349 -12.1074 12
29 2 7.31346 3.5269 -13.3158 15
30 2 -11.012 6.48818 -6.07297 16
31 2 -4.58367 14.035 -0.92483 19
32 2 9.68602 8.30055 -10.2876 10
33 2 4.56038 11.3868 -8.68206 15
34 2 5.41229 -3.16277 -15.3556 14
35 2 -2.2477 11.1467 -11.3976 14
36 1 -9.84715 -8.78023 -7.74526 14
37 1 12.186 7.4357 -6.45475 12
38 1 -1.94481 13.0636 -5.06811 17
39 1 -11.6927 10.7088 -9.10656 11
40 1 -0.433945 -3.52867 7.05897 17
41 1 -8.53405 -14.5814 1.26281 14
42 1 0.0453445 15.4577 -12.4664 11
43 1 -5.00703 -4.99225 -12.7722 11
44 1 -10.3431 13.824 1.31543 17
45 1 -16.6364 -0.194344 -2.6344 11
46 1 -12.0925 -0.972252 -4.54307 21
47 1 1.26378 -1.82504 -0.220532 19
48 1 0.846021 -16.0904 6.12052 12
49 1 -2.20519 -13.6122 -1.14229 17
50 1 -1.75654 -7.00675 -5.51624 20
51 1 -4.97869 1.49002 -13.5484 17
52 1 -3.7869 -5.28475 -0.691044 19
53 1 -14.1861 -3.62385 -6.66111 17
54 1 -7.25658 -11.7012 10.9088 19
55 1 6.83833 -8.39528 -5.00424 16
56 1 3.56403 -5.26673 -9.67576 17
57 1 -6.79956 10.364 -1.58538 20
58 1 3.25778 0.429622 -13.2058 16
59 1 -5.03812 3.57501 8.70625 16
60 1 -12.1847 -4.21259 -8.49887 17
61 1 -11.1557 -2.01625 0.180662 20
62 1 -2.66033 -16.1402 0.636965 17
63 1 -10.6481 -6.00153 -2.90829 17
64 1 -0.951165 6.13204 -5.39299 15
65 1 -12.6191 -5.38404 3.5597 19
66 1 -11.9707 -9.30567 12.0545 10
67 1 4.65793 -0.475387 -8.09218 17
68 1 -1.08791 -8.85733 -8.0371 15
69 1 12.5006 -12.4631 -5.75655 12
70 1 -9.03956 0.0373382 -10.0761 17
71 1 -5.63271 -7.99199 -1.45496 18
72 1 -1.37539 7.51419 -16.8039 11
73 1 -17.7153 -1.77584 1.19589 16
74 1 -3.63375 4.99691 -16.6796 11
75 1 1.33789 1.46845 -0.564165 20
76 1 -9.11866 5.33372 -9.34245 18
77 1 -11.0866 6.89515 -1.67873 20
78 1 -6.9703 -0.875264 10.0644 17
79 1 -6.5393 -13.8709 -6.83329 12
80 1 5.5579 -1.19454 -15.1052 12
81 1 -6.83506 -3.34975 0.999795 17
82 1 -12.1197 2.17722 -5.52813 18
83 1 -15.4475 6.8686 -4.82125 13
84 1 -17.4983 6.17029 -2.58168 14
85 1 -3.70302 -11.9465 10.2786 18
86 1 -19.1797 -3.01179 4.17893 12
87 1 -18.2852 -5.01118 10.4702 6
88 1 -6.44099 0.885677 -4.61069 17
89 1 -19.4249 -2.68349 7.69811 8
90 1 -7.85345 -6.92204 9.3111 19
91 1 1.58544 -1.8222 8.89983 18
92 1 -5.16895 -13.6832 12.4046 12
93 1 -1.01139 7.58436 -13.8095 18
94 1 -16.6344 -3.03998 -7.58165 11
95 1 -10.7472 8.25122 -11.9747 17
96 1 2.86579 -11.5106 -9.29381 14
97 1 -7.53122 -5.75193 -3.47266 24
98 1 -2.39057 -6.27579 6.88154 19
99 1 -0.984691 -18.4839 -1.80512 8
100 1 -13.243 8.79907 -13.0184 7
101 1 9.99522 -8.14518 13.7028 12
102 1 -9.78017 -4.33825 5.34184 18
103 1 -10.9561 -3.40675 -5.16139 22
104 1 -5.28282 -6.30083 -6.38586 19
105 1 6.78223 1.63642 -17.6297 14
106 1 -6.85865 1.46833 -11.4316 16
107 1 -5.17978 10.5154 -4.11937 19
108 1 10.2011 -3.65466 -10.1839 20
109 1 0.571699 -0.560547 -11.2632 19
110 1 -8.59023 -11.5238 -6.99747 13
111 1 -2.15659 -4.84049 9.96151 17
112 1 -3.34584 -1.70007 5.84027 17
113 1 9.85496 -8.04448 0.482014 20
114 1 4.8642 3.85116 -16.8753 9
115 1 -6.34615 4.23412 -11.2366 17
116 1 16.9828 -8.95656 4.23811 11
117 1 7.60335 -12.1137 -9.64192 15
118 1 2.83216 -17.5702 4.51262 14
119 1 0.426201 -5.1543 -15.2003 14
120 1 -4.51951 -1.60789 1.87882 17
121 1 5.44352 -14.0119 -4.36319 19
122 1 -10.5246 -10.6772 -0.959541 18
123 1 9.90242 -10.858 -4.63211 21
124 1 10.4742 -9.16068 -14.3007 11
125 1 9.50409 -6.11589 -15.2003 14
126 1 6.88158 -14.8745 -7.77932 12
127 1 -12.5915 -11.2912 3.63665 16
128 1 19.4683 -7.70609 -2.66084 10
129 1 -4.70273 -1.33984 -4.05653 19
130 1 -0.920871 -12.1566 8.97598 20
131 1 -1.01898 -13.0133 -4.48383 17
132 1 -3.30312 -3.74055 -5.96926 18
133 1 -5.19025 -17.7846 -0.0307944 12
134 1 0.53362 -14.855 -2.48526 17
135 1 2.88001 -10.9125 -1.01881 13
136 1 4.75495 -10.4509 -10.7308 16
137 1 -13.8251 -8.84504 -4.79332 7
138 1 -1.58387 -9.71817 -2.74287 14
139 1 12.9552 -7.58885 -14.9813 8
140 1 7.83874 14.1486 0.574587 18
141 1 1.41908 -11.3014 -15.7134 7
142 1 -6.27374 -3.11796 -1.83948 23
143 1 -14.0685 2.62256 0.218839 20
144 1 -8.61586 -2.5925 -3.2404 18
145 1 7.70869 3.52745 -1.70598 13
146 1 4.98027 -5.47803 6.40931 17
147 1 -13.8898 2.16207 -9.80513 20
148 2 -7.99855 -4.81642 8.26815 21
149 2 3.19629 -8.43515 -5.16978 18
150 2 1.4059 4.18344 13.6674 16
151 2 15.9198 -1.55985 -1.80923 18
152 2 -10.1968 14.9308 -7.71191 8
153 2 -10.2017 5.49219 -2.53029 19
154 2 -7.47261 15.3601 -3.56311 14
155 2 -10.5023 -0.953671 -11.0923 16
156 2 -1.53048 12.0059 -6.57265 15
157 2 -5.92159 11.4546 -5.60609 18
158 2 -6.71529 -0.039777 -14.3969 11
159 2 -11.6345 3.77451 -12.6076 13
160 2 1.20973 -4.23201 12.8451 16
161 2 -2.26508 -2.78768 -7.48632 19
162 2 -10.2941 2.22206 -1.58884 17
163 2 13.8057 -9.53747 -2.05977 19
164 2 -8.32487 5.70878 13.0725 10
165 2 -4.70407 -2.30641 -2.21488 20
166 2 -18.9858 2.5338 -4.25876 10
167 2 -6.2492 -4.09361 5.50192 19
168 2 -14.4602 4.48287 -0.0154444 17
169 2 1.61356 -0.388069 -1.81213 16
170 2 -11.1698 -7.35864 -7.55317 13
171 2 0.224066 3.94721 3.66563 18
172 2 3.24686 -0.140706 -9.37953 19
173 2 -9.4543 11.6707 -12.7533 9
174 2 -9.97253 -3.62039 -11.6889 10
175 2 0.599187 6.69008 -16.9698 10
176 2 -10.601 2.16329 -4.57691 20
177 2 -2.28133 -9.57062 4.17737 17
178 2 0.267213 -1.58519 16.1644 17
179 2 -13.1161 -1.28151 -11.1752 12
180 2 -4.79082 -6.51682 -2.21346 18
181 2 -2.60684 -5.80171 4.80555 20
182 2 -10.4799 4.20686 -9.91321 19
183 2 -8.89504 -1.52219 -13.7576 8
184 2 -5.88153 -15.5261 -6.15079 10
185 2 -13.547 -8.50666 12.6517 9
186 2 -3.56279 -5.83139 -14.186 8
187 2 -14.7563 -4.64251 0.221098 18
188 2 3.0809 -6.46956 -7.97006 17
189 2 0.04796 -1.22328 -7.65769 16
190 2 11.6429 -12.0349 -0.706905 16
191 2 -6.79052 -2.22553 -8.46199 15
192 2 -9.36228 -2.30146 -5.93387 20
193 2 -13.0487 3.86202 -3.06111 18
194 2 0.339952 -7.53955 -7.45078 17
195 2 -15.5093 9.66634 -5.93867 9
196 2 3.80856 2.14304 -12.1491 17
197 2 8.70259 -1.79009 -11.6804 15
198 2 5.83331 -6.21138 -9.07579 18
199 2 0.483614 1.09389 -9.99974 15
200 2 5.69823 -6.34445 -5.53405 19
201 2 -2.78564 0.489306 -7.73044 16
202 2 -10.3315 -4.13026 -3.04015 20
203 2 5.01209 -10.5944 2.13879 17
204 2 -3.19363 -11.1288 -8.30978 15
205 2 -16.8481 1.38342 -1.6653 11
206 2 -2.8084 -12.8546 -5.78662 17
207 2 -9.78865 -10.3689 -6.12828 10
208 2 -7.96482 -12.962 -2.26145 15
209 2 -7.92537 -6.87873 3.09674 15
210 2 -6.95465 -13.9937 10.2383 13
211 2 14.3836 -10.168 -5.96413 12
212 2 -19.8315 -1.43277 -0.337541 9
213 2 -17.4754 -3.69725 -0.335018 12
214 2 6.70083 7.11077 15.9642 10
215 2 -12.3903 -10.0843 -3.98927 11
216 2 -6.04254 -6.18828 -11.9788 13
217 2 -12.2981 9.06381 6.68561 13
218 2 -1.94691 -5.52094 -9.01007 20
219 2 7.30464 9.32094 -8.64371 14
220 2 6.47732 2.52866 -8.84156 15
221 2 4.87578 -4.30888 8.29952 17
222 2 0.170302 -5.81956 -1.70129 17
223 2 -0.939668 -11.2885 -3.58414 13
224 2 -5.43196 -4.11585 -0.121585 16
225 2 -5.00129 -4.36781 -5.35673 18
226 2 3.40818 -0.566917 15.6017 12
227 2 -2.37054 -1.26518 -20.1183 5
228 2 -1.76579 -1.03156 -12.2434 13
229 2 7.28528 -7.26733 -12.4853 18
230 2 -6.62352 -1.13117 5.37697 18
231 2 -4.76878 -18.0366 -4.94611 10
232 2 0.0129341 -13.1924 -5.99389 17
233 2 12.2345 2.88881 -1.27112 18
234 2 -7.60631 -12.7189 -5.8041 11
235 2 6.18028 5.19909 -8.64098 17
236 2 -15.6906 -3.30019 -9.08822 10
237 2 -4.59302 5.89893 -1.61684 16
238 2 -4.90654 -12.2213 -1.62823 14
239 2 3.26043 7.99799 -2.13468 19
240 2 0.892836 5.81694 -4.4569 15
241 2 0.120865 -15.1558 -4.4041 12
242 2 6.01419 -8.9233 -9.85064 16
243 2 -0.617311 1.51165 0.0776308 21
244 2 -7.26793 8.1484 -6.35775 19
245 2 -3.63097 -15.5259 -4.13432 15
246 2 10.8077 -6.67558 -1.10222 15
247 2 3.92096 -5.62655 -3.38909 16
248 2 -0.380083 2.97823 -14.2087 13
249 2 11.9791 0.672367 -13.7517 11
250 2 -2.34859 4.9871 -0.610074 12
251 2 4.12664 -6.38722 -11.4553 19
252 2 -1.28113 2.02943 -20.4551 7
253 2 -7.76655 -11.9251 15.4389 8
254 2 -10.3454 13.0654 5.8652 11
255 2 -1.61781 -4.02316 -4.92403 17
256 2 5.93719 -18.131 -2.15328 10
257 2 0.591361 -10.259 1.54139 13
258 2 0.772504 -13.1248 2.33505 16
259 2 -7.20567 -7.849 -10.3285 14
260 2 1.3823 4.53322 6.80278 21
261 2 -4.32151 -1.55213 -9.43865 16
262 2 -14.6187 8.53271 4.91923 11
263 2 -1.27371 8.94945 -15.5386 11
264 2 8.97938 -10.9231 -9.69382 14
265 2 -13.673 3.99882 -9.90218 16
266 2 -10.7277 11.7881 -3.00025 17
267 2 -1.18536 -3.68995 -14.7588 16
268 2 3.13863 -3.58427 -0.832044 17
269 2 -6.89116 -7.04219 -4.81086 21
270 2 -1.05238 -5.67405 -12.3374 17
271 2 5.07913 -2.50133 13.2095 13
272 2 -1.84833 -8.51034 0.426248 16
273 1 -14.1664 -0.854137 1.21749 18
274 1 -20.0286 4.36587 -0.558898 9
275 1 1.8515 8.31185 9.07173 19
276 1 -10.0887 0.906769 -3.07227 20
277 1 -7.27775 -16.7027 -2.01372 10
278 1 -1.53894 -0.00292391 -13.6807 16
279 1 -10.1411 5.51005 -12.8347 16
280 1 0.351362 8.86604 1.2094 17
281 1 -1.53225 -0.93979 -6.19098 20
282 1 2.00427 -7.33208 13.8772 16
283 1 5.7087 -11.5847 -0.371968 19
284 1 9.6623 -3.62053 6.92689 17
285 1 -9.47384 0.267147 14.7673 7
286 1 -1.51261 -18.2295 9.35483 8
287 1 -4.11108 -14.2258 2.25374 18
288 1 -16.7462 1.97619 2.96652 13
289 1 -6.51557 -8.31517 18.4326 6
290 1 9.83261 -16.7089 0.595377 8
291 1 -0.649917 -12.2891 12.5927 12
292 1 -11.9719 -6.66374 -5.94121 17
293 1 -19.3701 2.0025 -6.1078 8
294 1 -12.2581 -3.79454 -2.4153 21
295 1 -0.151252 -5.66636 -8.61695 23
296 1 -6.78113 1.53367 11.9802 15
297 1 -7.05116 -8.2776 15.5357 9
298 1 -6.50551 16.3923 -2.50096 12
299 1 -1.20879 -4.9215 -1.28379 15
300 1 -0.719026 8.72947 4.05484 17
301 1 -7.18909 -10.1894 -1.51338 16
302 1 -7.67786 9.17263 -4.89833 17
303 1 0.241637 6.10752 11.303 17
304 1 -9.51648 -17.9273 8.84129 7
305 1 12.3209 -7.73396 -0.648777 15
306 1 17.5048 -5.15748 3.7459 16
307 1 -15.3912 -8.85379 11.969 7
308 1 0.688235 -6.54912 18.8868 9
309 1 -1.73269 -4.61998 19.798 8
310 1 -1.21108 3.14244 -1.39964 16
311 1 -14.1707 -0.512584 -7.53043 22
312 1 -12.179 5.98617 -10.2297 15
313 1 -6.07875 -11.4205 16.0311 10
314 1 14.4799 3.01073 -6.33205 16
315 1 15.9097 4.96103 -10.8345 13
316 1 -1.64262 -9.79679 11.5904 20
317 1 3.17603 -0.699807 -2.74501 18
318 1 1.57521 -3.73828 18.7032 11
319 1 -15.1426 4.7282 1.92213 16
320 1 -2.33672 -11.2618 -10.2073 13
321 1 -4.86098 -19.161 -3.39481 8
322 1 0.71843 -6.99057 -3.25374 16
323 1 1.64197 -2.65826 11.8334 16
324 1 -17.9774 2.80179 -2.71664 11
325 1 -8.10747 -3.20121 13.0044 13
326 1 -19.0379 0.173442 3.4726 10
327 1 -1.90514 -5.08554 -13.9603 11
328 1 6.18924 -5.74803 8.9311 19
329 1 -17.4133 -3.24177 -4.049 13
330 1 15.8422 -1.26033 9.03899 8
331 1 -4.20693 -4.25423 11.761 18
332 1 -13.4854 3.92645 -11.8627 13
333 1 -11.5987 -5.94526 0.0826272 22
334 1 -3.31473 -12.9264 7.05728 22
335 1 -13.5082 -6.60232 -2.37952 16
336 1 -2.74154 1.52334 6.99633 20
337 1 4.27091 1.73654 11.8837 20
338 1 -19.875 -0.0824117 0.747894 10
339 1 -9.78839 -4.46027 -10.1212 12
340 1 7.96458 2.76305 -15.536 16
341 1 -6.89093 -9.94775 7.70551 16
342 1 -2.82457 1.03427 3.0513 20
343 1 -15.3009 -2.75586 3.25624 19
344 1 4.82472 -19.1289 -3.40179 7
345 1 -10.0194 6.11979 -4.28553 19
346 1 -12.9212 -10.9304 0.461089 13
347 1 -10.7517 8.60096 6.36943 15
348 1 -8.93637 -14.5789 10.2664 11
349 1 -4.55802 -19.8395 4.66114 10
350 1 6.56229 0.672318 14.0584 15
351 1 -6.80979 -0.39776 -8.05185 16
352 1 0.263646 10.0458 -15.0232 12
353 1 -8.85531 -7.35589 -10.5242 13
354 1 -0.619079 -3.01257 -8.31251 18
355 1 -18.0284 -5.03601 5.25758 11
356 1 -6.58634 -5.36758 15.6239 11
357 1 5.13326 15.6835 1.16949 14
358 1 -3.92895 -7.42272 11.6467 17
359 1 -5.98144 8.70965 4.19064 14
360 1 4.02284 5.44114 10.5042 17
361 1 1.51937 1.90481 14.244 19
362 1 -3.02252 13.378 7.25975 15
363 1 -10.2337 -12.101 11.3215 15
364 1 17.7119 -2.7516 -2.47353 16
365 1 -6.16218 -12.535 5.25135 14
366 1 -7.09204 -5.95237 -0.696324 19
367 1 5.95752 4.07778 15.8224 16
368 1 -0.379075 -7.45067 12.0562 19
369 1 -15.3973 -11.349 4.56197 10
370 1 4.92081 -8.27069 15.0486 7
371 1 4.64515 -6.93344 0.398243 17
372 1 -4.03611 -4.55434 5.67262 20
373 1 -13.7739 -3.53698 1.13035 21
374 1 10.8676 4.39768 5.71503 17
375 1 -5.89973 2.07023 2.38367 17
376 1 -2.74236 -11.2644 3.83084 17
377 1 -5.8089 0.599699 6.70697 15
378 1 -4.42336 3.5625 13.1031 17
379 1 -9.85745 -10.367 6.39017 16
380 1 -0.603588 0.0227579 15.095 18
381 1 -4.40145 -16.5079 2.94716 19
382 1 -8.85248 -9.45869 9.52513 16
383 1 -1.27254 -0.378872 -0.00540069 19
384 1 3.01359 2.18718 9.23598 18
385 1 15.7193 5.94921 -2.7528 13
386 1 -6.74813 -3.4861 -5.48141 16
387 1 -16.794 5.0474 4.34045 14
388 1 -7.13532 -1.90596 7.14334 16
389 1 -13.1763 -0.754337 -1.5542 17
390 1 9.38931 -13.2239 -7.26528 17
391 1 -1.50335 -2.81065 -11.7376 16
392 1 5.83402 4.5183 4.30655 12
393 1 4.81703 6.54256 1.70959 13
394 1 -4.04494 1.20326 -6.29761 19
395 1 -17.3177 9.74093 7.77804 3
396 2 -2.82686 -8.65367 21.8399 4
397 2 -18.036 1.02557 -6.70458 12
398 2 -3.13553 14.2206 -6.29022 17
399 2 -15.7253 9.16434 7.26424 8
400 2 -8.02293 -7.72653 -7.27572 19
401 2 -10.417 -3.07996 -8.53977 21
402 2 -0.746705 13.6361 3.96978 17
403 2 4.50158 7.89773 18.9768 6
404 2 -4.73352 -8.71 -13.0996 9
405 2 -18.8659 -3.29904 -2.88261 8
406 2 -11.3805 -0.267044 -6.46043 20
407 2 -13.3503 -12.4124 8.66233 11
408 2 -6.3394 -9.51282 16.8085 9
409 2 5.26377 6.49838 3.49977 11
410 2 -14.7944 -10.1542 10.3539 14
411 2 -13.5298 10.5713 -3.14574 16
412 2 -15.8412 -6.79015 2.12271 17
413 2 -12.0168 -11.5117 11.9524 13
414 2 -3.05535 -2.68826 16.0484 17
415 2 -10.5037 -5.60994 -5.34812 18
416 2 10.4385 0.956087 10.4029 12
417 2 2.04112 -4.80647 -13.2448 18
418 2 2.61396 14.5156 3.40001 15
419 2 1.03948 -11.3843 -13.6346 11
420 2 -12.6957 -8.47572 2.92315 18
421 2 -3.48994 -3.41673 10.1859 16
422 2 0.314821 -17.7248 -0.815917 15
423 2 -8.81053 0.482065 -7.9185 18
424 2 -8.9122 -10.7763 -1.44401 17
425 2 -3.98679 -11.3637 16.0489 10
426 2 2.85507 -9.47566 10.1766 15
427 2 0.744036 -4.68429 6.13039 19
428 2 -11.6726 -1.93387 2.15599 20
429 2 0.461627 -6.58299 17.0091 14
430 2 -2.93111 -12.0537 5.44923 15
431 2 6.18175 -2.58056 10.9067 18
432 2 9.23558 8.13322 6.96209 17
433 2 -10.2327 -8.30186 -10.1469 8
434 2 12.2394 -1.46673 2.53891 17
435 2 -1.77431 -0.54548 4.52598 19
436 2 -5.4665 -0.110591 -6.87853 18
437 2 -2.46181 -3.49491 6.01297 20
438 2 -12.9869 -9.70475 5.08113 19
439 2 -8.85007 -13.1966 11.9934 14
440 2 -12.7592 -1.02046 7.80793 11
441 2 -7.4932 -7.50562 11.1879 18
442 2 1.87132 -6.1122 9.06545 17
443 2 -0.239637 -18.9724 2.17779 11
444 2 -3.79643 -13.6576 13.6242 11
445 2 7.87396 -6.11722 3.3478 18
446 2 -16.6628 -4.57464 10.8779 9
447 2 -7.14778 -10.9448 -8.25363 15
448 2 6.52225 3.31311 -16.4932 12
449 2 0.765195 -3.69942 0.053633 18
450 2 12.2754 -7.99199 6.67781 18
451 2 -8.96628 -7.90334 8.23219 20
452 2 -10.723 -4.78039 3.72179 16
453 2 -18.8921 4.31292 -1.93686 13
454 2 -8.55404 4.90193 -4.82524 18
455 2 -10.717 14.9876 -2.24629 12
456 2 -16.1051 3.97215 -8.18669 12
457 2 5.01776 -7.34806 -1.56435 16
458 2 7.3927 -10.8869 -0.337296 20
459 2 -0.647788 -7.7893 19.4163 9
460 2 -1.1914 -1.09212 -2.12457 19
461 2 -15.5577 5.54857 5.67183 15
462 2 -11.8312 7.27252 2.30948 20
463 2 -0.52992 6.90464 4.37944 17
464 2 8.31032 -14.5614 6.38443 10
465 2 11.0774 4.15636 9.99264 10
466 2 -6.23668 2.87403 -12.9489 17
467 2 -2.96819 1.91758 -1.79599 16
468 2 -6.80759 -3.62529 16.5998 10
469 2 -8.31217 0.720989 6.0456 15
470 2 5.29831 -8.28704 13.2108 13
471 2 4.55373 1.39663 13.925 20
472 2 -11.3692 -5.99146 7.98827 19
473 2 -15.0738 -11.2974 6.81222 11
474 2 11.8126 -2.40183 6.3529 20
475 2 7.84986 -16.5603 -0.298445 13
476 2 2.54402 1.67166 0.751452 17
477 2 10.4387 5.82632 -15.8326 8
478 2 10.5821 -6.4355 12.504 11
479 2 10.9418 -5.37613 -7.32585 19
480 2 8.328 -0.693052 4.29401 15
481 2 -0.063082 -8.83339 10.7534 18
482 2 3.28991 -2.05131 7.88924 16
483 2 -2.15934 -7.9806 12.5495 16
484 2 -8.66898 -0.264824 3.09228 17
485 2 11.7773 13.0483 5.61162 16
486 2 0.839786 -1.42861 4.90815 19
487 2 -15.2946 1.27342 -7.60678 14
488 2 -0.747258 9.48215 8.2411 15
489 2 -15.51 -0.618387 6.79535 14
490 2 6.05284 8.05732 13.1839 15
491 2 -0.452567 -3.03507 -10.1349 16
492 2 -8.6333 -6.07357 -1.93385 22
493 2 2.96594 -12.332 8.43267 12
494 2 12.6638 -11.6673 -3.9959 14
495 2 3.2353 8.3648 15.6699 14
496 2 0.182855 15.448 1.38101 13
497 2 -7.50695 -8.07569 -0.554914 16
498 2 -14.7268 -1.01166 3.63446 18
499 2 -4.16022 -13.8951 10.6757 13
500 2 2.87274 -6.51333 1.15515 15
501 2 0.0465275 8.162 13.3684 14
502 2 -7.34648 -5.00572 13.7506 15
503 1 -11.4893 -2.48441 -11.5759 13
504 1 -17.1616 -0.624466 -5.83606 14
505 1 -7.84252 10.7523 5.00518 19
506 1 -9.01284 11.0596 -3.51768 19
507 1 -4.24865 -5.4498 -3.74542 19
508 1 3.1663 8.31824 17.5893 6
509 1 -12.8616 6.33469 -4.91348 17
510 1 -3.34616 -6.72357 -8.98527 15
511 1 -18.9232 4.75666 -5.11037 7
512 1 2.02263 -11.8892 -12.2328 16
513 1 3.53793 0.677033 -16.9865 11
514 1 -8.76969 12.0672 -14.9154 7
515 1 8.03102 -5.37947 -11.9084 22
516 1 -1.83835 14.5828 -14.5512 12
517 1 -7.91241 3.92103 14.0114 12
518 1 8.70642 7.40248 -6.74608 19
519 1 -13.7444 -12.5535 6.53967 11
520 1 -15.2129 10.2635 -4.14533 11
521 1 -6.00849 -5.93604 -10.0503 16
522 1 -8.08367 -16.0565 4.39364 10
523 1 0.225257 0.115941 -2.97506 18
524 1 -5.49 3.4328 -8.58547 14
525 1 -9.24052 -0.631688 4.93008 19
526 1 -1.30088 5.33294 3.55054 20
527 1 -4.95392 7.26538 13.3201 9
528 1 -5.44526 8.8292 10.5462 12
529 1 -1.08268 6.14366 0.122065 16
530 1 -0.0281914 3.47237 -20.6207 5
531 1 12.905 -13.2299 -1.39052 12
532 1 -19.3149 -2.9341 -1.10302 7
533 1 -10.462 2.81049 -11.2994 21
534 1 -12.667 12.1717 -3.96662 15
535 1 -13.8408 5.16423 -1.74993 18
536 1 -5.24812 12.4822 -14.2088 12
537 1 3.43161 1.01522 -5.67998 17
538 1 -9.39755 -0.304846 -6.23762 23
539 1 -12.5576 5.32141 0.953765 19
540 1 -2.30356 3.11391 -14.6752 14
541 1 6.22819 11.1513 -4.87906 18
542 1 4.76292 -10.3121 4.13895 18
543 1 -6.87805 -5.90397 12.2008 14
544 1 -8.95292 14.8808 -6.37055 12
545 1 1.73195 3.65089 -3.39781 15
546 1 -15.2828 -9.26772 -0.315172 9
547 1 -12.3297 0.362767 -11.0896 15
548 1 -2.98832 1.28971 14.9853 16
549 1 -12.7296 10.7257 -0.93744 18
550 1 -7.68818 13.6652 3.11631 20
551 1 -9.84417 13.7494 -9.17751 7
552 1 0.138232 -12.9277 -7.75423 16
553 1 -10.7598 -9.82865 -4.79216 12
554 1 6.18515 -14.0377 5.93863 11
555 1 -6.19862 3.96296 -14.6684 11
556 1 3.4769 9.48254 0.758467 19
557 1 -5.23976 2.7102 -2.62433 18
558 1 -4.66631 0.65857 -0.0399898 18
559 1 -5.00977 -7.03261 -13.7754 7
560 1 -18.6907 4.58389 1.8775 15
561 1 10.3735 2.51582 -17.6037 9
562 1 -13.5281 -9.891 7.16028 21
563 1 -14.5936 5.24284 -8.51352 12
564 1 -1.54311 -2.43042 4.15782 21
565 1 1.03629 5.79282 -18.5736 6
566 1 -11.849 7.66275 -7.69407 17
567 1 -5.93768 6.6116 -3.61107 19
568 1 -16.195 7.49564 5.87686 12
569 1 -13.1702 -6.12343 7.06827 16
570 1 0.334466 12.9145 11.1149 8
571 1 4.14051 0.390497 1.22343 15
572 1 3.35474 15.2494 5.86735 12
573 1 -0.428644 11.0838 -8.08483 18
574 1 -9.81601 -2.08304 2.66495 19
575 1 -3.60785 3.79401 4.00134 17
576 1 7.51693 -6.08922 0.147358 16
577 1 -2.55321 17.2074 -2.14454 11
578 1 -5.53371 -8.12659 -11.3782 15
579 1 1.32796 0.276118 -8.27507 17
580 1 2.21547 10.1632 5.96884 19
581 1 14.6496 7.7593 -5.1301 10
582 1 -1.17278 -7.85687 -11.2069 15
583 1 -3.183 9.40622 -14.7002 12
584 1 3.73261 -9.32741 -14.7412 12
585 1 -10.9604 0.818678 -7.87509 23
586 1 7.77683 4.43429 -8.54499 16
587 1 3.79499 -5.71466 -13.272 19
588 1 1.27463 -2.08127 -6.11017 17
589 1 -8.67323 0.302878 -13.5184 12
590 1 -11.5628 5.90123 3.55499 17
591 1 -10.9935 8.61839 -14.9629 9
592 1 -3.72987 -0.312978 -11.1016 16
593 1 10.6114 -6.38029 -9.43549 18
594 1 -15.4331 12.203 -1.44251 10
595 1 -10.7276 11.218 5.94774 12
596 1 0.997303 -4.23431 -17.6885 9
597 1 16.8662 11.8091 1.51541 10
598 1 -4.42756 6.19093 -10.1496 16
599 1 -4.84839 14.8836 -7.19455 10
600 1 2.70702 4.90936 -12.5242 17
601 1 6.8927 12.0221 -1.89028 16
602 1 2.1764 -4.70727 -7.5217 20
603 1 -5.43884 7.55547 -6.57931 16
604 1 4.47635 -2.82715 0.217679 14
605 1 -5.31037 14.8648 -13.4291 11
606 1 3.58576 7.04362 -7.90871 18
607 1 5.9396 7.53554 4.94128 13
608 1 -11.0968 11.3004 -12.4072 8
609 2 0.485896 -8.75018 13.6407 15
610 2 -3.89329 11.2646 -14.5126 11
611 2 -14.6068 -7.41618 -0.81978 14
612 2 4.65627 -13.1749 6.53156 14
613 2 -11.4185 -5.56541 -10.2042 11
614 2 -8.42619 -10.5377 12.0933 16
615 2 -7.33858 4.63346 -8.1213 19
616 2 4.92194 13.8967 5.15121 18
617 2 -1.70088 6.45276 6.93183 17
618 2 -11.9193 2.37454 7.53439 13
619 2 11.8379 -10.7973 -10.1677 9
620 2 -1.86383 -8.66894 -6.37552 16
621 2 -8.97596 2.37768 8.62552 17
622 2 13.6666 -1.71754 8.59914 12
623 2 -6.43492 2.7874 -4.76488 18
624 2 9.83405 -4.8043 -13.6742 19
625 2 -15.8532 -1.40169 -6.99835 15
626 2 -16.4483 -4.22905 -6.02575 13
627 2 4.75543 -15.0147 -8.78019 10
628 2 -8.08069 -2.31347 -1.1151 19
629 2 -17.2406 1.20331 5.15505 11
630 2 -7.38947 8.39772 -12.818 15
631 2 -0.654647 6.22509 -8.61918 14
632 2 -3.45809 8.899 -2.8979 20
633 2 -6.65148 5.8465 -14.6671 15
634 2 -4.98894 -5.8998 12.3208 16
635 2 -6.16611 -18.4231 -2.53582 7
636 2 -17.1451 5.58313 -4.67191 11
637 2 -4.24416 -2.48683 12.5738 16
638 2 -3.58042 -6.69347 -5.3122 15
639 2 -13.9184 5.43143 2.97048 18
640 2 -6.91249 2.77132 -9.77103 17
641 2 -2.69281 -4.19195 -2.29169 18
642 2 4.37996 4.318 -2.09795 16
643 2 0.551664 0.430946 -13.1617 14
644 2 -12.2584 7.40747 -14.1174 8
645 2 -2.28969 -0.156634 16.5358 15
646 2 1.87385 -3.49137 -15.8934 14
647 2 -7.81506 5.69947 9.87659 19
648 2 -15.4695 -3.55132 4.92899 17
649 2 -8.52539 1.89795 0.965191 19
650 2 15.2032 7.67714 -3.0741 8
651 2 0.932925 -5.95019 -16.7194 8
652 2 -3.68866 15.6093 4.16678 13
653 2 -7.8783 -4.40954 -6.48036 16
654 2 -12.3215 7.62197 -3.24271 19
655 2 -2.28748 6.27452 -3.92887 15
656 2 0.497068 15.6873 -10.5074 12
657 2 -9.66909 -2.03291 12.0073 11
658 2 -8.51809 -12.383 1.60957 14
659 2 1.72199 15.7869 -3.91133 14
660 2 10.0238 5.04664 7.31803 19
661 2 -4.4364 5.06517 5.65908 15
662 2 1.42804 4.15331 -11.4084 17
663 2 -8.62307 12.9976 1.50071 18
664 2 -3.60434 12.408 5.7777 16
665 2 -15.3565 8.26884 -3.33786 17
666 2 8.62424 -1.42895 -18.573 8
667 2 -10.5386 4.78362 7.39034 18
668 2 -10.9316 12.3956 -8.23002 11
669 2 -1.65258 10.102 4.86932 16
670 2 -11.8362 -12.5972 -1.60738 11
671 2 -5.12293 -7.01855 -8.25411 16
672 2 7.37494 -4.32414 -7.07118 18
673 2 -12.2364 -1.05963 5.39138 14
674 2 10.077 2.37667 -11.9379 15
675 2 -4.27629 14.7682 -9.20914 9
676 2 11.2854 0.017078 -6.40693 17
677 2 -15.4714 2.17828 1.37189 13
678 2 -3.67245 13.8301 -14.5032 13
679 2 -3.99283 3.09282 11.0331 19
680 2 0.820654 -7.53166 -10.6467 18
681 2 -5.36673 -19.0077 9.37441 9
682 2 -1.29017 9.38004 -8.77402 15
683 2 -8.50715 0.793295 -11.8279 15
684 2 5.10001 15.9575 2.77506 15
685 2 10.928 -9.58948 -0.930535 14
686 2 16.2658 -8.90388 2.1971 13
687 2 -17.0323 3.93227 2.533 16
688 2 -6.215 11.7282 0.791225 20
689 2 -12.3225 9.60848 -7.6716 13
690 2 5.4787 7.76299 -7.47169 17
691 2 -9.0882 13.0991 -5.27475 18
692 2 -13.1812 -1.91393 -0.0582808 17
693 2 -9.67329 -0.928098 0.918653 19
694 2 1.59462 5.10645 -14.7497 14
695 2 -10.7861 6.51653 10.0073 10
696 2 -1.51193 -17.6563 -3.37136 10
697 2 13.1054 2.69187 -4.95578 16
698 2 -12.778 6.12833 -8.54446 16
699 2 -18.8758 3.95763 -7.29421 9
700 2 -1.22987 -1.01609 13.4116 18
701 2 -0.785887 13.6095 9.78225 11
702 2 -13.2223 10.0405 2.32487 15
703 2 16.4611 1.13211 -9.82302 13
704 2 2.47044 -15.5317 -6.09056 12
705 2 -4.90195 14.4094 -3.67701 18
706 2 -10.8503 -7.66029 0.0868495 18
707 2 -12.8718 -2.61498 -5.48752 22
708 2 -3.92093 8.76878 -0.185826 18
709 2 -8.64399 5.18147 -11.4618 17
710 2 0.692319 -3.81717 -7.23175 20
711 2 8.25315 8.54545 -5.44207 16
712 2 15.4775 11.2515 6.38124 9
713 2 5.99001 -6.60726 1.56141 15
714 2 6.8793 0.0838753 -16.6295 16
715 2 7.32937 -6.13762 -1.58515 19
716 2 17.0326 5.31211 4.12911 13
717 2 8.31343 9.06917 0.432446 16
718 2 5.21234 6.30769 -4.84894 17
719 2 2.33994 2.85522 4.13154 19
720 2 -4.27125 9.32728 -6.06673 15
721 2 5.85831 -12.998 -2.7615 20
722 2 -14.452 -4.99223 7.96901 15
723 2 1.34385 10.0618 -11.1715 11
724 2 1.07907 11.4883 -15.6068 8
725 2 6.94708 11.2782 3.73806 17
726 2 -10.6417 -10.9676 4.3305 13
727 2 -6.49832 8.85003 -3.13189 21
728 1 -11.9046 4.03841 -7.50594 20
729 1 -13.2479 -11.4098 -2.67394 9
730 1 -13.2103 1.98725 -2.52424 16
731 1 1.95523 -2.82667 -10.7376 19
732 1 -3.31909 11.0078 4.61053 15
733 1 -11.7663 0.62596 8.91307 12
734 1 -15.5551 0.777506 -12.0762 7
735 1 0.905015 -16.6003 -5.72401 9
736 1 -8.94594 -17.0152 12.1007 6
737 1 -16.9334 9.13715 -2.28336 15
738 1 -10.4588 2.25397 11.7737 13
739 1 7.24296 14.654 6.70786 14
740 1 -1.09382 -2.80968 16.4365 20
741 1 9.53905 -5.08957 13.8611 7
742 1 -8.70473 8.78249 -1.87854 19
743 1 -11.6426 -1.94852 -7.44133 18
744 1 9.47894 15.829 -7.74541 8
745 1 -15.2518 -7.73695 8.83833 14
746 1 -0.891091 10.395 6.54224 12
747 1 -6.47632 1.46795 15.188 12
748 1 -3.80485 -1.47175 11.0216 15
749 1 -7.5202 6.69263 -12.1245 17
750 1 -5.01206 -10.299 12.4716 17
751 1 -10.0274 2.82239 7.02413 17
752 1 -9.9251 -3.90609 11.4379 12
753 1 -3.59029 13.0534 0.343046 18
754 1 -6.86565 -2.877 4.38522 17
755 1 17.1293 8.80631 1.69684 13
756 1 -16.8587 0.890446 -8.48282 13
757 1 5.24346 -15.3104 3.40163 21
758 1 -18.0296 3.68326 -8.89963 9
759 1 -6.53643 -11.4998 -10.0526 12
760 1 -9.8896 5.81067 11.9214 10
761 1 1.77285 -3.06333 5.19111 17
762 1 -15.8159 -3.90383 -1.10407 16
763 1 3.24737 3.37529 -7.21481 16
764 1 13.6865 10.022 6.65723 12
765 1 -9.89865 16.4199 3.18761 9
766 1 -7.55816 -0.752951 0.654479 19
767 1 -5.66519 8.29189 -12.1032 14
768 1 0.825159 14.0794 2.39305 14
769 1 -10.7015 -0.703515 12.0473 9
770 1 -12.5713 -5.86213 9.53748 14
771 1 -6.87284 4.35802 -5.80305 19
772 1 -14.5068 -0.975388 8.63822 11
773 1 -10.1449 -7.12695 7.10443 22
774 1 1.75639 4.9653 1.86161 17
775 1 -7.96514 7.01987 0.766612 18
776 1 5.49139 -6.55052 3.42704 16
777 1 6.36896 -11.0724 -3.06616 19
778 1 4.19069 -1.82276 3.05279 17
779 1 -15.4818 3.10735 -6.73823 14
780 1 -11.8548 2.8353 3.20491 14
781 1 -14.1631 -1.9251 -4.23105 19
782 1 15.6392 -5.8945 -9.76175 9
783 1 -12.3342 14.1912 -6.98118 8
784 1 -0.914192 12.3657 -2.17365 18
785 1 -1.02464 3.16373 12.7695 19
786 1 12.8028 11.2845 -4.28775 8
787 1 -0.84289 4.50716 -8.01569 11
788 1 -8.13308 14.9438 -15.172 6
789 1 -10.1427 9.4457 0.262394 17
790 1 -3.25435 -12.1606 14.3476 13
791 1 5.15186 8.33203 15.147 15
792 1 10.2292 -2.24602 3.05021 20
793 1 -8.37839 2.31534 4.88491 21
794 1 -4.81057 15.5176 2.63064 15
795 1 -14.1801 9.41451 -6.98195 11
796 1 6.72235 -2.89478 4.5397 17
797 1 -0.460592 -0.549783 5.98624 19
798 1 1.29047 -5.38908 16.0534 16
799 1 -0.801461 1.73365 9.65583 18
800 1 -8.59725 -8.09465 4.64928 19
801 1 -11.8046 -7.30345 -9.662 9
802 1 -2.89913 5.53077 10.6104 17
803 1 -4.90156 8.19005 -1.48936 19
804 1 -5.15147 11.9475 2.27481 19
805 1 -2.16834 -0.952501 8.36312 20
806 1 6.74764 8.73287 -0.342686 17
807 1 -16.4878 -8.61106 5.9988 14
808 1 -6.13663 12.667 9.19215 9
809 1 8.93956 16.2359 -1.69238 12
810 1 -5.50536 6.32908 8.54654 16
811 1 4.59793 6.83305 -11.453 12
812 1 14.2743 6.50862 -8.39602 9
813 1 0.534113 -6.24891 7.1607 15
814 1 0.72199 -5.70143 -11.4473 21
815 1 2.28248 15.9401 -6.41594 16
816 1 10.2285 0.34548 1.15062 17
817 1 13.7863 7.32495 7.77908 11
818 1 1.83218 13.0995 8.51696 15
819 1 16.9645 -0.395682 -8.2744 11
820 1 -11.4942 14.0038 4.77071 9
821 1 4.19099 18.4908 5.95363 4
822 1 1.73519 -9.4854 12.0798 15
823 1 -0.773616 2.40177 4.59241 22
824 1 6.60904 15.7872 -3.61083 14
825 1 -6.01051 -1.522 -13.2652 12
826 1 -3.07043 3.32557 -11.2418 17
827 1 -18.3695 7.01837 2.75596 9
828 1 -5.63674 9.17328 1.32152 16
829 1 11.6226 15.0199 -0.996941 11
830 1 -17.1454 -0.834029 6.02341 15
831 1 3.28245 4.05849 17.323 10
832 1 -6.23291 -6.09089 3.5815 18
833 1 4.37742 -3.20713 11.2044 20
834 1 -15.5946 -3.55687 6.94014 16
835 1 4.10811 -1.14549 -10.9672 15
836 1 2.10644 7.85221 14.4366 13
837 1 -9.1712 14.2171 -3.11303 14
838 1 -7.27095 16.4094 5.29517 8
839 1 14.3962 9.2531 -2.42919 10
840 1 2.22101 3.39888 12.0197 22
841 1 -2.96761 3.72883 0.881319 20
842 1 6.54972 16.9402 3.61617 13
843 2 -1.51066 -3.94645 14.8837 16
844 2 -1.82547 -8.47107 16.1531 12
845 2 -7.46318 8.6407 2.14889 18
846 2 -6.76106 -8.9751 -2.9875 18
847 2 -17.8039 0.826543 1.81724 14
848 2 -10.8716 -3.559 -0.820215 21
849 2 -8.53765 4.28029 5.09626 17
850 2 3.92799 4.03369 8.86223 17
851 2 -8.97808 -2.7512 4.43812 20
852 2 -1.94273 15.6252 -1.00283 13
853 2 -8.36092 -16.3097 2.7139 9
854 2 -13.7051 -3.9784 3.03547 18
855 2 9.76962 2.60758 -15.6117 15
856 2 -9.75546 15.6539 0.858328 13
857 2 -5.76461 7.11728 0.419673 15
858 2 -15.4027 -9.53246 4.5549 16
859 2 -14.0321 7.57723 -6.30934 13
860 2 -11.0788 -4.59726 10.1965 10
861 2 -15.78 -1.95493 1.31864 17
862 2 -6.44428 9.67342 6.02549 13
863 2 -9.59914 7.6492 -0.360806 19
864 2 -1.24215 1.6001 11.5285 19
865 2 -3.45442 5.90044 3.87551 14