ITEM: TIMESTEP
128000
ITEM: NUMBER OF ATOMS
2000
ITEM: BOX BOUNDS pp pp pp
-30.0 30.0
-30.0 30.0
-30.0 30.0
ITEM: ATOMS id type x y z Coordination
1 2 -16.2107 0.262003 -2.01727 13
2 1 -3.93009 -18.0157 -4.86124 11
3 2 -3.91675 -17.0485 -3.27319 17
4 1 -3.60608 -17.2399 0.466718 15
5 2 -3.74012 -16.9232 2.42823 16
6 1 -0.653069 -17.2036 -4.99663 13
7 1 2.83278 -16.9736 -5.12409 12
8 2 -0.731029 -17.5648 -3.31483 13
9 2 2.79806 -16.909 -3.13775 15
10 1 -0.470645 -16.6857 0.628766 16
11 1 -1.98685 -16.3017 3.15237 17
12 1 2.82722 -17.2541 0.0729634 15
13 2 -0.0962495 -16.848 2.49896 16
14 2 3.30582 -17.3191 1.86017 12
15 2 -8.18119 -4.02966 -15.6086 11
16 2 -6.33139 -1.64797 -16.2901 13
17 2 -1.58258 -4.70602 -15.689 13
18 2 -2.89341 -2.03881 -15.724 16
19 2 -4.80779 0.709943 -16.1404 12
20 2 -8.27138 4.8167 -13.0617 16
21 2 -1.81581 1.01241 -15.7516 16
22 2 -4.0115 3.34283 -15.185 15
23 2 -0.167452 3.61288 -15.541 14
24 2 -1.57696 -8.43229 -13.0545 15
25 2 1.51305 -5.58003 -16.1235 11
26 2 0.488677 -2.04727 -16.4354 15
27 2 5.11911 -4.29924 -16.4467 12
28 2 3.33255 -1.52399 -17.1907 12
29 2 6.29473 -2.0585 -15.8964 12
30 2 1.52445 0.859499 -16.1016 15
31 2 1.48485 6.54907 -15.8417 12
32 2 4.35878 7.22059 -15.8686 12
33 2 5.46724 1.13219 -15.8704 14
34 2 3.16563 3.47021 -16.3787 13
35 2 5.87574 5.51214 -13.6385 19
36 1 -15.1564 -4.69651 -8.3682 12
37 1 -12.2411 -8.6253 -8.78546 15
38 1 -13.7829 -0.958159 -13.0411 11
39 1 -13.3806 -6.05676 -10.2867 17
40 1 -14.7475 -3.00773 -10.939 12
41 1 -16.4181 -0.141437 -3.70999 15
42 1 -15.0488 -2.64167 -5.56252 16
43 1 -15.6598 -5.69142 -4.98221 12
44 1 -17.8355 -3.17382 -3.49145 8
45 1 -12.1146 -11.6127 -7.11743 11
46 1 -11.7253 1.46586 -12.2565 16
47 1 -7.8352 -11.7983 -9.83463 17
48 1 -6.20774 -15.1045 -8.95155 13
49 1 -10.738 -11.3809 -10.0208 12
50 1 -13.023 -6.27376 -6.33619 18
51 1 -11.7546 -8.37874 -5.61373 21
52 1 -12.3705 -10.0823 -3.44108 13
53 1 -13.9138 -7.49911 -3.07623 16
54 1 -12.4231 -4.27313 -12.8669 12
55 1 -13.6506 0.0455965 -9.93342 21
56 1 -11.7247 -2.80038 -10.0151 25
57 1 -11.6912 -4.69832 -7.83403 23
58 1 -13.0494 -1.81017 -7.75825 21
59 1 -12.832 -0.369422 -4.25922 20
60 1 -11.8155 -2.8823 -5.15655 23
61 1 -12.0121 -4.83488 -2.09044 23
62 1 -13.7343 -2.08148 -2.22248 21
63 1 -8.09404 -13.7857 -7.31401 15
64 1 -10.1287 -11.7236 -4.83211 17
65 1 -8.79722 -15.9024 -3.23338 8
66 1 -11.0725 -13.3978 -1.81926 8
67 1 -8.56063 -10.5241 -12.691 12
68 1 -10.26 -5.68896 -10.7827 18
69 1 -8.13804 -9.03662 -9.99427 22
70 1 -8.64234 -10.6348 -7.45424 21
71 1 -9.81482 -7.03513 -7.76542 24
72 1 -10.238 -5.31616 -4.77853 24
73 1 -8.4099 -8.62029 -4.98583 24
74 1 -8.55055 -10.3456 -2.41117 20
75 1 -10.4242 -7.5136 -2.86239 21
76 1 -7.80612 -2.20996 -15.1608 15
77 1 -8.3819 -4.06813 -13.1046 18
78 1 -10.4115 -1.71824 -12.6433 19
79 1 -10.1155 0.193403 -9.92952 23
80 1 -8.34244 -2.85142 -10.0996 24
81 1 -8.67196 -4.4501 -7.4152 23
82 1 -9.99153 -1.76366 -7.35845 25
83 1 -10.1209 -0.0756236 -4.88537 22
84 1 -8.49523 -2.83478 -4.76254 24
85 1 -8.40818 -5.03176 -2.2959 22
86 1 -10.3392 -2.1758 -2.25265 24
87 1 -6.3627 -13.4361 -11.5963 10
88 1 -6.95076 -16.8299 -5.98677 12
89 1 -6.95955 -11.3433 -5.03959 19
90 1 -5.07024 -13.8045 -4.88336 23
91 1 -5.50484 -16.2745 -2.74115 15
92 1 -6.35692 -13.3817 -2.23857 21
93 1 -11.1853 -8.65564 -11.8087 11
94 1 -5.82197 -10.2959 -12.1029 15
95 1 -7.59628 -7.17787 -12.5755 16
96 1 -7.06456 -5.79163 -10.2528 22
97 1 -4.99926 -8.52619 -10.0395 23
98 1 -5.3087 -10.7099 -7.88442 21
99 1 -6.9014 -7.80322 -7.75952 21
100 1 -6.93757 -5.85239 -5.28432 21
101 1 -5.41064 -8.63162 -4.82527 22
102 1 -4.63751 -10.4294 -2.01712 22
103 1 -6.99941 -7.73589 -2.28228 21
104 1 -5.5834 -0.405996 -17.4342 7
105 1 -4.78397 -2.55361 -15.3787 19
106 1 -5.28657 -4.75131 -13.1739 20
107 1 -6.70271 -1.20916 -12.5637 20
108 1 -6.83108 -0.155461 -9.93037 23
109 1 -5.20243 -2.81905 -10.322 20
110 1 -5.06899 -4.82372 -7.5002 22
111 1 -6.79378 -2.04014 -7.39877 23
112 1 -6.72107 0.254644 -4.81338 20
113 1 -5.16653 -2.82146 -4.65451 23
114 1 -5.22809 -5.04012 -2.46945 23
115 1 -6.99097 -2.43372 -2.002 22
116 1 -3.35826 -11.6264 -10.4715 17
117 1 -3.30645 -14.5241 -9.75284 11
118 1 -4.06159 -16.4896 -7.0275 14
119 1 -3.62187 -13.2351 -7.08495 21
120 1 -3.53946 -11.0553 -5.1845 21
121 1 -1.76507 -14.8027 -5.07817 21
122 1 -2.193 -16.6558 -2.64329 17
123 1 -3.2868 -13.6218 -2.67705 22
124 1 -3.40864 -5.19467 -15.6809 13
125 1 -6.88752 -5.5127 -15.6224 11
126 1 -1.71059 -10.3853 -13.1113 13
127 1 -3.10897 -7.52497 -12.8096 18
128 1 -3.58021 -5.80695 -10.2037 22
129 1 -1.88801 -8.55684 -10.3419 24
130 1 -1.9969 -10.4503 -7.64798 23
131 1 -3.43586 -7.34257 -7.58732 22
132 1 -3.55534 -5.58402 -5.1862 22
133 1 -1.74204 -8.3788 -4.87452 22
134 1 -1.67717 -10.6531 -1.90615 24
135 1 -3.09646 -7.58021 -2.44416 22
136 1 -3.22299 0.213431 -15.0517 19
137 1 -1.1939 -2.8475 -15.5859 19
138 1 -1.86173 -4.65164 -12.9209 23
139 1 -3.12379 -1.79528 -12.8721 21
140 1 -3.34342 -0.174498 -10.0928 23
141 1 -1.88863 -2.96981 -10.1399 23
142 1 -1.78161 -4.62589 -7.44262 24
143 1 -3.36236 -1.81324 -7.72376 21
144 1 -3.50969 0.036546 -4.60863 23
145 1 -1.74296 -2.96143 -5.0291 23
146 1 -1.85799 -5.00686 -2.28834 24
147 1 -3.4377 -2.12118 -2.1899 24
148 2 -18.2044 -2.12243 -2.04989 9
149 2 -13.4752 -5.82354 -8.14949 19
150 2 -11.7637 -7.63948 -7.38855 18
151 2 -13.9287 -2.93816 -12.6708 12
152 2 -14.6019 -4.71539 -10.1365 12
153 2 -13.7512 0.175896 -8.12249 16
154 2 -13.5277 -5.89993 -1.93588 18
155 2 -15.1385 -4.48599 -6.37247 14
156 2 -16.5566 -1.79801 -4.46561 14
157 2 -16.4131 -4.44604 -3.73137 12
158 2 -11.7221 -10.4698 -5.49836 14
159 2 -7.06676 -15.5305 -7.13473 10
160 2 -11.8047 -10.5248 -8.52496 13
161 2 -13.6391 -2.41705 -9.69095 18
162 2 -9.51932 -12.0269 -8.72331 16
163 2 -12.1911 -10.0576 0.576191 14
164 2 -13.73 -9.33295 -2.11088 11
165 2 -14.3294 -6.79593 -4.89538 13
166 2 -12.0625 -8.16406 -3.60964 19
167 2 -10.6878 -3.87892 -13.1363 14
168 2 -14.295 0.473373 -11.6811 12
169 2 -12.0102 -4.50605 -10.9094 17
170 2 -12.088 -4.6624 -5.93358 25
171 2 -13.4189 -1.86809 -5.66256 21
172 2 -11.9327 0.78821 -10.3991 21
173 2 -11.4908 -2.56318 -7.9898 21
174 2 -11.9428 -4.77132 0.0762481 22
175 2 -13.5626 -2.0405 -0.0529302 19
176 2 -13.3575 0.0735633 -2.33191 21
177 2 -12.0642 -2.90092 -2.99509 21
178 2 -6.61863 -12.8535 -6.19391 24
179 2 -10.6668 -12.9931 -6.38107 10
180 2 -10.3763 -12.687 -0.165465 13
181 2 -10.5339 -10.8453 -3.03962 18
182 2 -9.95381 -14.711 -2.41374 9
183 2 -6.96083 -13.7098 -9.92048 13
184 2 -12.2448 -7.64066 -10.5369 13
185 2 -9.11588 -7.78729 -11.2743 16
186 2 -10.1108 -10.1819 -11.3724 12
187 2 -8.63586 -10.5895 -5.38268 20
188 2 -10.0266 -7.21834 -5.58184 21
189 2 -10.0985 -5.53572 -8.43623 26
190 2 -8.70522 -8.60497 -7.83584 21
191 2 -8.39978 -10.4187 -0.523519 21
192 2 -10.1643 -7.89902 -0.187466 22
193 2 -10.4851 -5.41968 -3.04191 21
194 2 -8.34431 -8.39845 -3.17967 22
195 2 -8.60836 -4.54762 -11.0874 22
196 2 -10.1906 -1.71245 -10.6105 23
197 2 -12.0251 -0.414918 -12.9447 15
198 2 -8.50969 -1.49834 -13.4247 16
199 2 -8.49409 -4.78312 -5.25393 23
200 2 -10.0826 -1.94292 -5.15236 22
201 2 -10.3217 0.179494 -7.84692 22
202 2 -8.54651 -2.70268 -8.05768 21
203 2 -8.71876 -5.02875 -0.27812 23
204 2 -10.239 -2.0552 -0.323654 22
205 2 -10.2127 -0.224424 -2.84868 22
206 2 -8.60132 -3.08209 -2.87405 23
207 2 -5.20908 -17.4094 -5.88911 11
208 2 -7.14646 -16.1731 -4.26367 13
209 2 -7.05163 -10.2972 -8.78851 21
210 2 -4.35128 -15.2041 -8.27025 15
211 2 -4.96396 -16.3653 -0.508871 15
212 2 -7.04395 -13.4714 -0.302479 16
213 2 -7.00929 -11.8331 -2.9161 18
214 2 -5.16817 -14.5076 -3.10925 18
215 2 -7.40842 -11.3322 -11.6258 15
216 2 -6.77975 -7.723 -10.603 20
217 2 -6.76758 -5.62213 -13.6594 16
218 2 -7.2047 -9.21881 -13.028 11
219 2 -5.41074 -10.2467 -5.82712 24
220 2 -6.67386 -7.75933 -5.81326 25
221 2 -6.93725 -5.67006 -8.06669 23
222 2 -5.0169 -8.34763 -8.14819 23
223 2 -5.02246 -10.5495 -0.190924 22
224 2 -6.74417 -7.7222 -0.244189 24
225 2 -6.8948 -5.82129 -3.27399 25
226 2 -5.33626 -8.9438 -3.01145 22
227 2 -5.23763 -4.89054 -10.8349 24
228 2 -6.82366 -1.9577 -10.7541 20
229 2 -6.71949 0.701594 -13.3555 18
230 2 -5.41178 -2.66547 -13.2177 21
231 2 -5.16382 -4.72228 -5.61854 24
232 2 -6.58101 -1.65591 -5.33026 21
233 2 -7.00379 -0.0722831 -7.9616 22
234 2 -5.20418 -2.73114 -8.11391 24
235 2 -5.36012 -5.13704 -0.397663 25
236 2 -6.77111 -1.93664 -0.145827 22
237 2 -7.20814 -0.0416242 -2.91217 23
238 2 -5.09229 -2.97909 -2.66257 22
239 2 -4.12046 -13.3321 -11.0033 13
240 2 -4.4249 -10.128 -10.8515 20
241 2 -2.44368 -16.603 -5.90653 16
242 2 -3.25467 -13.0823 -5.13674 20
243 2 -3.63699 -11.6851 -8.1017 21
244 2 -2.1376 -13.7964 -8.3521 16
245 2 -2.05626 -16.701 -0.453514 17
246 2 -3.52778 -13.5162 -0.297319 23
247 2 -3.44143 -11.5332 -2.8091 22
248 2 -1.80626 -14.798 -3.04788 23
249 2 -1.83372 -10.5812 -11.209 19
250 2 -3.40247 -7.65471 -10.4449 19
251 2 -3.47151 -5.78957 -13.7215 18
252 2 -5.16971 -4.38469 -15.789 12
253 2 -1.83359 -10.5766 -5.78388 21
254 2 -3.44682 -7.58395 -5.31821 22
255 2 -3.30115 -5.48037 -8.37662 24
256 2 -1.74629 -8.28064 -8.3362 23
257 2 -1.4844 -10.6646 0.0174 22
258 2 -3.26612 -7.90326 -0.532626 24
259 2 -3.33403 -5.8854 -3.28998 23
260 2 -1.60163 -8.60142 -2.80076 24
261 2 -1.79979 -4.85624 -10.9705 22
262 2 -3.47404 -2.27181 -10.9091 21
263 2 -3.31036 0.0860227 -13.2275 25
264 2 -1.47146 -2.73081 -13.3758 22
265 2 -1.81343 -4.9292 -5.69443 22
266 2 -3.38087 -1.95608 -5.41292 25
267 2 -3.44457 0.187956 -8.00335 23
268 2 -1.69614 -2.65951 -8.11068 23
269 2 -2.09613 -5.10414 -0.43181 24
270 2 -3.39826 -2.38387 -0.24046 22
271 2 -3.57752 -0.312987 -2.86332 22
272 2 -1.28125 -3.27488 -3.16745 22
273 1 -15.5779 -4.89627 -2.19422 13
274 1 -13.8219 -9.39983 -0.188189 11
275 1 -11.9098 -8.65206 5.47409 17
276 1 -17.535 -0.800751 -0.802549 9
277 1 -15.4895 -2.67928 0.644271 15
278 1 -14.7257 -4.22711 3.44745 15
279 1 -16.601 -1.19274 2.67864 14
280 1 -16.5455 1.11753 5.62171 12
281 1 -15.4757 -2.29713 5.99716 17
282 1 -14.6209 -4.3437 9.04777 13
283 1 -12.4132 -10.1909 2.59171 12
284 1 -13.9303 -5.42513 0.29614 18
285 1 -11.9425 -8.01666 -0.511103 20
286 1 -9.98521 -11.489 5.95293 18
287 1 -13.3164 -7.2378 2.57019 17
288 1 -13.3865 -5.46052 6.43829 16
289 1 -11.6208 -10.5421 8.12654 11
290 1 -8.40492 -10.4153 7.98546 21
291 1 -13.1984 -7.83219 8.4047 10
292 1 -14.564 -1.64593 11.328 9
293 1 -9.73553 -7.66423 12.7283 8
294 1 -13.485 -0.0418785 0.259346 19
295 1 -11.9837 -2.86716 0.546069 21
296 1 -11.7157 -4.94483 3.25449 22
297 1 -13.5845 -1.78912 2.82472 22
298 1 -13.1069 0.258288 5.63562 22
299 1 -11.8902 -2.95105 5.82163 23
300 1 -11.4376 -4.68701 8.59029 21
301 1 -13.1114 -1.90198 8.32635 22
302 1 -13.5819 1.44865 10.8287 15
303 1 -11.6738 -2.88008 11.045 17
304 1 -10.3055 -10.7387 0.229609 18
305 1 -8.93275 -13.9024 0.16857 15
306 1 -10.1513 -13.0237 3.13854 14
307 1 -8.17242 -14.4627 6.11274 15
308 1 -6.44014 -13.9133 8.73728 16
309 1 -10.2285 -5.95994 0.43538 24
310 1 -8.47611 -8.72812 0.496018 24
311 1 -8.37373 -10.715 3.45114 22
312 1 -10.2213 -7.90201 3.19581 19
313 1 -9.92784 -5.95279 6.1304 23
314 1 -8.10278 -8.80833 5.38136 21
315 1 -9.48383 -13.313 9.19859 11
316 1 -9.57135 -7.53503 8.40191 19
317 1 -9.64111 -5.60448 10.7171 16
318 1 -8.0864 -9.02693 11.0367 17
319 1 -9.96172 -0.162314 0.404402 21
320 1 -8.54586 -3.0694 0.307513 22
321 1 -8.43997 -4.80441 2.99255 22
322 1 -9.96645 -1.9158 2.97948 20
323 1 -9.89558 0.0440783 5.68387 21
324 1 -8.61788 -2.9888 5.50478 20
325 1 -7.9106 -4.82458 8.11128 23
326 1 -9.74347 -1.98366 8.10201 22
327 1 -10.0677 0.046379 10.7649 22
328 1 -8.41048 -2.81149 10.7901 23
329 1 -7.85134 -4.89952 13.5048 16
330 1 -9.47336 -2.02593 14.2254 11
331 1 -6.76981 -11.5641 0.340336 23
332 1 -5.26591 -14.3975 0.360751 20
333 1 -3.75969 -17.1811 6.09927 9
334 1 -7.11906 -13.5761 2.81653 18
335 1 -6.56679 -11.7037 5.89571 23
336 1 -4.98695 -14.4996 5.74921 19
337 1 -4.69004 -14.6911 11.1446 9
338 1 -6.34559 -11.5074 10.5772 14
339 1 -7.01528 -5.87164 0.461766 23
340 1 -5.0375 -8.61543 0.200449 21
341 1 -4.99371 -10.9252 2.73628 23
342 1 -6.48317 -7.94403 2.80676 21
343 1 -6.434 -5.89706 5.51264 24
344 1 -4.94654 -9.08058 5.71407 24
345 1 -4.86267 -10.9086 8.38285 23
346 1 -6.52872 -7.71553 8.27946 23
347 1 -6.4744 -6.06334 10.8662 22
348 1 -4.81241 -8.9074 11.2107 22
349 1 4.56204 -9.0497 16.3778 9
350 1 -6.31341 -7.61572 13.7554 14
351 1 -6.71482 -0.0261704 0.480958 22
352 1 -5.01262 -3.41638 0.420165 20
353 1 -5.07132 -5.06082 3.05558 21
354 1 -6.77105 -1.93696 2.94494 22
355 1 -6.68703 -0.0420991 5.35922 18
356 1 -4.97622 -2.80501 5.45192 22
357 1 -4.7453 -4.93893 8.2157 23
358 1 -6.50507 -1.97234 8.1605 22
359 1 -6.49394 0.469785 10.5622 21
360 1 -5.00701 -3.0085 10.7028 23
361 1 -4.66418 -4.97087 13.7368 18
362 1 -6.53685 -1.8267 13.2639 22
363 1 -3.40934 -11.62 0.395734 22
364 1 -1.97028 -14.643 0.124647 22
365 1 -5.57688 -16.294 3.1597 14
366 1 -3.60184 -14.0724 2.51722 22
367 1 -3.45554 -11.8372 5.40129 22
368 1 -1.76148 -14.4381 5.30135 19
369 1 -3.27014 -13.4052 8.19944 19
370 1 -2.99601 -12.0383 10.7664 18
371 1 -1.57872 -14.1103 11.6852 11
372 1 -3.53471 -6.36934 0.340363 22
373 1 -1.6201 -8.78196 0.621437 25
374 1 -1.62619 -10.719 2.96255 23
375 1 -3.45553 -7.95775 3.12501 24
376 1 -3.38679 -6.08658 5.74595 23
377 1 -1.57578 -8.86623 5.72545 24
378 1 -1.6172 -11.0888 7.97481 21
379 1 -3.22656 -8.04044 8.29576 23
380 1 -3.06987 -5.98089 10.8172 22
381 1 -1.55274 -9.17856 10.7041 20
382 1 -1.09588 -10.9592 13.8251 13
383 1 -3.02789 -7.93095 13.325 14
384 1 -3.46354 -0.200645 0.445422 22
385 1 -1.94296 -3.35381 0.544033 24
386 1 -1.69489 -5.05371 3.34753 25
387 1 -3.24307 -1.99703 3.01049 23
388 1 -3.40286 -0.217314 5.77214 22
389 1 -1.7593 -2.85681 5.91548 23
390 1 -1.37493 -5.21124 8.36844 22
391 1 -3.2078 -2.24722 8.23695 23
392 1 -3.0625 -0.263472 10.7857 23
393 1 -1.54805 -3.04492 11.1445 22
394 1 -1.32133 -4.98693 13.7093 19
395 1 -3.24456 -2.44369 13.3726 20
396 2 -15.2795 -2.61778 2.53588 17
397 2 -13.7539 -7.74322 0.64082 14
398 2 -14.3545 -4.50087 5.15899 15
399 2 -16.3783 0.50325 3.75792 14
400 2 -16.5528 -1.0715 0.838618 14
401 2 -13.5568 -5.37695 2.28775 17
402 2 -15.0451 -3.15011 7.67322 15
403 2 -11.7323 -10.3957 6.38621 14
404 2 -9.98847 -11.7573 8.06735 13
405 2 -13.0184 -7.32633 6.31278 14
406 2 -15.0031 -4.13347 -0.565889 13
407 2 -12.1102 -8.42384 3.40511 15
408 2 -13.5464 -5.85733 8.41662 14
409 2 -11.5953 -8.62677 8.35399 15
410 2 -11.4793 -4.91443 5.50675 22
411 2 -13.4487 -2.05867 4.69728 21
412 2 -13.2759 0.219804 3.02226 19
413 2 -11.6472 -2.9314 2.42937 23
414 2 -10.9486 -4.40022 10.5535 17
415 2 -13.4917 -2.94325 10.2583 13
416 2 -13.2716 -0.115413 7.58679 20
417 2 -11.5162 -2.9557 7.70606 23
418 2 -13.3496 0.159014 12.1925 12
419 2 -9.48125 -13.24 4.86543 14
420 2 -10.4586 -11.0924 2.73563 18
421 2 -9.22871 -14.3405 2.01253 11
422 2 -8.41784 -14.0104 7.85752 13
423 2 -8.34617 -10.9372 5.61261 21
424 2 -9.90108 -7.85538 5.45065 21
425 2 -10.2174 -6.0224 2.64303 20
426 2 -8.37749 -8.55691 2.49964 21
427 2 -8.07828 -10.6655 10.5461 14
428 2 -9.26411 -7.47644 10.5153 17
429 2 -9.76437 -5.69861 8.32368 19
430 2 -8.30797 -8.46024 7.49254 23
431 2 -9.17437 -5.99907 12.9756 13
432 2 -7.68428 -8.61902 12.8888 13
433 2 -8.27292 -4.93323 5.54447 19
434 2 -10.3632 -1.69511 5.09763 21
435 2 -9.98372 -0.109309 2.34893 21
436 2 -8.48602 -2.89736 2.51285 21
437 2 -7.50913 -4.58236 10.0598 23
438 2 -10.1407 -1.89483 10.1966 20
439 2 -10.0388 -0.0939577 7.76267 23
440 2 -8.3562 -3.06284 7.45119 23
441 2 -9.89863 -0.357058 13.1462 16
442 2 -8.23082 -2.88625 12.7254 19
443 2 -5.23665 -16.3994 5.02996 13
444 2 -6.66801 -13.5572 4.9677 22
445 2 -7.14354 -11.5862 2.27386 24
446 2 -5.66259 -14.5697 2.1762 20
447 2 -6.31576 -13.4544 10.5407 13
448 2 -6.71826 -11.3983 7.85348 23
449 2 -4.7757 -14.2553 7.77051 19
450 2 -5.2739 -10.8578 4.65382 23
451 2 -6.45857 -7.95997 4.7958 23
452 2 -6.74878 -5.85296 2.46064 24
453 2 -4.88346 -8.99158 2.14646 23
454 2 -4.7048 -10.9077 10.4263 21
455 2 -6.28075 -7.94029 10.3236 23
456 2 -6.2626 -5.96451 7.66133 22
457 2 -4.76526 -9.02212 7.5688 24
458 2 -6.20312 -6.00477 12.8035 20
459 2 -4.72703 -8.36046 13.326 13
460 2 -4.6251 -4.75983 5.04659 21
461 2 -6.83193 -2.00227 4.89163 23
462 2 -6.5409 0.0699648 2.25704 22
463 2 -5.09181 -3.1105 2.33082 22
464 2 -4.63496 -5.04118 10.21 24
465 2 -6.47515 -2.12218 9.98273 23
466 2 -6.26965 0.0460788 7.70853 22
467 2 -4.79856 -3.21583 7.40393 22
468 2 -5.60678 -4.57118 15.326 14
469 2 -5.38334 -2.20369 16.7854 9
470 2 -6.6503 -0.214449 12.4307 25
471 2 -5.11832 -2.94027 12.9256 24
472 2 -2.35899 -16.235 5.20446 13
473 2 -3.30969 -13.7433 4.51537 25
474 2 -3.34699 -11.79 2.27805 24
475 2 -1.68176 -14.7748 2.11774 23
476 2 -3.02686 -14.1533 10.5824 13
477 2 -3.44612 -11.7734 7.32242 23
478 2 -1.57426 -13.8991 7.36431 19
479 2 -1.45355 -9.09897 13.0724 19
480 2 -1.68103 -10.7502 5.07693 24
481 2 -3.31273 -8.21796 5.0953 24
482 2 -3.46225 -6.08925 2.31572 24
483 2 -1.71969 -8.65982 2.60652 23
484 2 -1.37625 -11.2051 9.99227 24
485 2 -3.03559 -8.14893 10.8619 20
486 2 -3.1379 -6.27029 7.6377 23
487 2 -1.43419 -9.14372 7.79897 22
488 2 0.633289 -10.7858 14.7293 12
489 2 -3.05889 -6.03359 13.2775 21
490 2 -1.1916 -12.3231 12.4524 12
491 2 -1.53213 -5.48636 5.36832 22
492 2 -3.21246 -2.09573 4.96173 22
493 2 -3.27065 -0.106979 2.464 24
494 2 -1.53357 -3.34803 2.5923 21
495 2 -1.46614 -5.01439 10.5043 23
496 2 -3.20494 -2.21802 10.3558 22
497 2 -3.22853 -0.367336 7.57832 23
498 2 -1.54316 -3.28388 7.76625 21
499 2 -0.499419 -4.43214 15.7971 14
500 2 -3.18835 -2.7921 15.9569 13
501 2 -3.29657 -0.307846 12.7974 23
502 2 -1.25485 -3.01922 13.3042 22
503 1 -14.1829 7.80689 -6.56809 14
504 1 -14.8297 0.651364 -6.70786 16
505 1 -16.5835 7.4445 -4.20821 9
506 1 -15.1125 2.66639 -4.55834 18
507 1 -15.551 1.6772 -1.10282 16
508 1 -16.872 4.4504 -2.01593 11
509 1 -12.2675 10.2671 -8.98025 10
510 1 -14.7232 10.1101 -4.26888 9
511 1 -15.4357 6.94367 -1.57698 17
512 1 -14.9933 2.32896 -11.7668 10
513 1 -15.9888 3.21596 -8.40834 7
514 1 -11.9825 3.3875 -9.91088 18
515 1 -12.2521 1.17619 -7.20869 22
516 1 -13.5479 4.04405 -7.12269 18
517 1 -13.2937 6.33767 -4.16851 22
518 1 -11.806 2.95247 -4.19248 22
519 1 -11.6089 1.33095 -2.17104 18
520 1 -13.593 4.17333 -2.25394 20
521 1 -12.8495 5.26453 -12.4715 12
522 1 -11.942 6.91033 -7.00991 20
523 1 -14.1869 7.60889 -9.93813 9
524 1 -13.4146 9.12872 -1.61826 20
525 1 -11.8093 9.01089 -4.43014 23
526 1 -11.7135 6.69792 -1.87094 22
527 1 -13.6192 11.8187 0.638632 11
528 1 -11.7849 11.8274 -2.66911 14
529 1 -9.84212 3.92809 -12.5624 16
530 1 -8.6461 0.445398 -13.4426 16
531 1 -11.8993 8.37426 -11.8243 10
532 1 -10.1736 5.77231 -10.3436 22
533 1 -8.51001 3.04128 -9.84975 23
534 1 -8.72564 1.33625 -7.60974 21
535 1 -10.3285 4.00912 -7.23971 23
536 1 -10.1035 5.9698 -4.73463 23
537 1 -8.80708 3.07756 -4.63337 22
538 1 -8.65437 1.14583 -2.22348 21
539 1 -9.9323 4.14274 -1.80516 23
540 1 -9.47061 6.57533 -12.9616 14
541 1 -8.51713 8.90296 -9.97842 19
542 1 -8.51448 6.56415 -7.26732 24
543 1 -9.95625 9.52323 -7.52233 19
544 1 -9.9042 11.4728 -5.13653 16
545 1 -8.28176 8.72906 -4.64628 24
546 1 -8.29596 6.77363 -2.0774 24
547 1 -9.9121 9.33238 -2.0916 24
548 1 -8.22793 12.4786 -8.20857 12
549 1 -8.41262 14.5104 -5.77449 13
550 1 -8.57978 12.6924 -2.55754 18
551 1 -7.51707 5.9252 -14.5343 10
552 1 -5.41896 2.15862 -14.7004 16
553 1 -4.92222 1.14699 -12.4322 23
554 1 -6.86721 3.63218 -12.5127 23
555 1 -6.85155 5.78587 -9.84477 23
556 1 -5.28039 2.62974 -9.65107 22
557 1 -5.33464 0.858212 -7.36958 23
558 1 -6.99093 4.09849 -7.23063 22
559 1 -6.82907 6.07952 -4.4613 23
560 1 -5.27021 2.93486 -4.55451 24
561 1 -5.40561 0.55699 -2.19071 23
562 1 -6.57012 4.0922 -2.16289 23
563 1 -4.92384 6.45618 -12.5487 22
564 1 -6.91418 8.73766 -12.9196 14
565 1 -6.54333 11.5893 -10.5224 14
566 1 -5.23956 8.6815 -10.3049 22
567 1 -4.94465 7.01861 -7.7441 21
568 1 -6.66777 9.65877 -7.24539 26
569 1 -6.67768 11.5993 -4.58792 23
570 1 -5.1178 8.70817 -4.70662 23
571 1 -5.29403 7.0252 -2.06828 21
572 1 -6.68979 9.63416 -2.1762 22
573 1 -5.09197 12.3504 -7.71262 23
574 1 -5.9877 15.3557 -7.85982 13
575 1 -5.68842 14.3875 -4.92455 17
576 1 -5.05185 12.8062 -2.20555 23
577 1 -6.73579 15.4618 -2.7515 13
578 1 -3.98828 5.15987 -14.9974 13
579 1 -2.28717 2.9478 -15.4007 17
580 1 -1.60061 1.13577 -12.5843 23
581 1 -3.38219 3.75396 -12.4986 23
582 1 -3.33496 6.12446 -10.0844 21
583 1 -1.66763 3.1043 -9.95183 23
584 1 -1.80455 1.14284 -7.31442 25
585 1 -3.46004 3.48535 -7.23097 23
586 1 -3.46405 5.68958 -4.83921 20
587 1 -1.93924 2.64423 -4.68713 23
588 1 -1.87623 0.597549 -2.00119 21
589 1 -3.53702 3.75733 -2.24348 20
590 1 2.51344 8.02763 -15.8034 13
591 1 -1.72762 6.99189 -13.5706 20
592 1 -3.74547 9.61443 -13.2089 12
593 1 -3.35764 11.3364 -10.3262 19
594 1 -1.44925 8.78607 -10.7005 20
595 1 -1.69489 6.83836 -7.54801 22
596 1 -3.31686 9.59725 -7.57765 20
597 1 -3.33374 11.3864 -4.87675 22
598 1 -1.52514 8.2195 -4.62408 22
599 1 -1.72182 6.75984 -2.03215 22
600 1 -3.26422 9.63749 -2.11629 21
601 1 -1.15662 13.9041 -11.0037 15
602 1 -4.23462 14.5342 -10.7982 12
603 1 -1.45316 12.2555 -7.47017 20
604 1 -3.44466 16.8338 -6.05598 11
605 1 -3.05387 14.8819 -8.17625 18
606 1 -1.17503 14.1142 -5.03718 20
607 1 -1.64354 12.2886 -2.18503 22
608 1 -3.45948 15.3421 -2.4121 19
609 2 -15.2488 0.84453 -4.94235 16
610 2 -15.4103 8.6209 -5.38506 10
611 2 -12.7784 9.17911 -10.4211 7
612 2 -14.6338 1.55562 0.681832 18
613 2 -16.7207 5.18441 -0.323206 13
614 2 -16.6624 6.04168 -3.07784 11
615 2 -15.3402 3.08043 -2.48455 18
616 2 -14.9714 8.5699 -2.75159 15
617 2 -15.0762 7.31165 0.461513 16
618 2 -13.0905 10.5545 -3.78404 12
619 2 -15.9397 2.49548 -10.1241 7
620 2 -13.3192 3.40503 -11.7337 13
621 2 -15.0815 2.78741 -6.90741 12
622 2 -11.9669 0.925332 -5.3167 27
623 2 -13.6561 3.55425 -4.22744 16
624 2 -13.6503 6.64118 -11.6652 8
625 2 -11.8408 3.06354 -8.04176 22
626 2 -11.503 1.2662 -0.092312 20
627 2 -13.6141 4.40815 0.631426 22
628 2 -13.7498 6.32234 -2.34551 21
629 2 -11.8523 3.29494 -2.33165 23
630 2 -14.8135 7.42947 -8.17964 10
631 2 -11.5156 7.12002 -5.21748 19
632 2 -11.7651 8.78183 -7.70202 17
633 2 -13.4641 5.83896 -6.38337 16
634 2 -11.6149 7.10462 0.171016 23
635 2 -13.6126 9.78728 0.31345 17
636 2 -12.371 12.1525 -0.862222 14
637 2 -11.6868 8.6618 -2.2369 22
638 2 -9.75875 11.4081 -7.85814 13
639 2 -12.8914 11.655 2.35376 15
640 2 -8.0663 1.17843 -10.163 22
641 2 -10.26 3.70456 -10.5584 21
642 2 -8.07687 7.60867 -13.8668 11
643 2 -9.72089 1.97294 -12.8562 15
644 2 -8.47336 0.853357 -5.58883 23
645 2 -10.4483 3.98163 -5.10718 23
646 2 -10.3324 5.7034 -7.92157 22
647 2 -8.51726 3.29889 -7.79513 21
648 2 -8.37678 1.03263 -0.341973 22
649 2 -10.1941 4.4649 0.164283 21
650 2 -10.0811 5.94295 -2.64944 26
651 2 -8.02857 2.94594 -2.62356 23
652 2 -8.47607 6.48604 -10.504 21
653 2 -11.119 5.73946 -12.4284 13
654 2 -10.2289 8.8106 -11.2016 14
655 2 -8.50711 6.92433 -5.20009 25
656 2 -9.94628 9.61265 -5.47175 21
657 2 -8.29676 12.5693 -5.54035 19
658 2 -8.24749 8.42498 -8.09111 21
659 2 -8.31844 6.62807 -0.0906069 24
660 2 -9.828 9.89407 -0.295606 24
661 2 -10.0733 11.7656 -3.24825 17
662 2 -8.09037 8.56318 -2.67452 22
663 2 -7.5032 14.3698 -7.52966 12
664 2 -8.59324 12.7614 -0.54131 19
665 2 -7.51791 15.2634 -4.41107 13
666 2 -5.08596 0.845208 -10.5293 21
667 2 -6.86075 3.64343 -10.235 21
668 2 -5.71674 5.72217 -14.7742 13
669 2 -5.16574 3.10917 -12.8422 18
670 2 -4.95975 1.27804 -5.31444 21
671 2 -7.3751 4.25392 -5.16918 20
672 2 -6.56828 5.89618 -7.69622 19
673 2 -5.22387 2.81953 -7.89382 23
674 2 -5.23796 0.744594 -0.124437 19
675 2 -6.63751 3.68438 -0.354345 25
676 2 -6.75743 5.85113 -2.52298 23
677 2 -4.98736 2.53128 -2.59025 22
678 2 -5.23831 6.75128 -10.5978 18
679 2 -6.88786 9.48618 -11.0127 18
680 2 -5.11479 8.27584 -13.2226 14
681 2 -5.17116 6.72141 -5.37806 22
682 2 -6.68921 9.81965 -5.18623 21
683 2 -6.8585 11.1892 -8.44784 21
684 2 -5.06487 8.85571 -8.06878 24
685 2 -5.19175 6.6845 -0.0261244 22
686 2 -6.69607 9.8081 0.0282235 20
687 2 -6.75374 12.1969 -2.8406 21
688 2 -5.05137 8.83806 -2.32403 25
689 2 -4.80502 12.4363 -10.959 14
690 2 -5.58117 12.4061 -5.66939 22
691 2 -4.80707 14.5162 -9.10048 15
692 2 -5.01148 15.634 -6.25519 14
693 2 -5.22226 12.6265 -0.0607024 21
694 2 -6.75901 15.0358 -0.871111 15
695 2 -5.05662 14.6553 -3.08049 16
696 2 -1.88137 1.09294 -10.6729 23
697 2 -3.50637 3.67494 -10.4865 23
698 2 -3.34567 5.55556 -13.0636 18
699 2 -1.71972 3.0655 -13.5814 25
700 2 -2.01354 0.82006 -5.26194 23
701 2 -3.51547 3.88756 -5.24354 19
702 2 -3.30922 6.08187 -8.27825 23
703 2 -1.7131 3.00346 -7.95185 22
704 2 -2.09739 0.810493 -0.250516 22
705 2 -3.50828 3.95695 -0.105321 21
706 2 -3.55012 6.13161 -2.74657 22
707 2 -1.76489 3.06599 -2.77683 24
708 2 -1.79851 6.65126 -10.9839 22
709 2 -3.45296 9.28749 -10.8204 20
710 2 -1.49084 12.039 -10.4449 18
711 2 -1.85053 8.82324 -13.1561 13
712 2 -1.77434 6.46022 -5.39175 21
713 2 -3.4155 9.19843 -5.33139 21
714 2 -3.34131 11.5692 -7.8286 19
715 2 -1.68398 8.92167 -8.08628 23
716 2 -1.62207 6.93037 -0.02812 22
717 2 -2.93618 9.68354 -0.10819 21
718 2 -3.65901 11.4195 -2.66493 21
719 2 -1.43875 8.70015 -2.59539 22
720 2 -2.57687 15.3459 -10.9885 11
721 2 -1.61266 12.1293 -5.46416 20
722 2 -0.234602 15.3813 -9.953 12
723 2 -1.54473 13.9182 -7.94054 23
724 2 -1.6515 12.6572 -0.399569 24
725 2 -3.28741 15.8439 -0.495013 19
726 2 -2.35051 16.4534 -4.50338 12
727 2 -1.76732 14.3272 -2.91604 20
728 1 -16.8797 6.29225 1.13398 12
729 1 -15.248 3.52957 1.24387 18
730 1 -14.7951 1.46878 2.81228 19
731 1 -16.8783 4.22817 3.95538 13
732 1 -15.0349 3.51932 6.09712 17
733 1 -15.2739 0.35184 8.21915 13
734 1 -14.7088 8.7702 1.65414 17
735 1 -14.6195 6.53655 4.2167 20
736 1 -14.5217 9.38736 5.55818 14
737 1 -13.302 6.43528 0.783335 23
738 1 -11.9148 3.13577 0.566793 20
739 1 -11.6618 1.11389 3.05829 20
740 1 -13.408 3.9587 3.56024 24
741 1 -12.815 5.83573 6.27334 20
742 1 -11.4195 2.97086 5.97186 21
743 1 -11.7484 0.753017 8.44085 23
744 1 -13.4225 4.24925 9.048 17
745 1 -14.9943 6.88262 7.87003 10
746 1 -11.3594 3.19007 11.1154 17
747 1 -11.7434 0.607473 13.1257 11
748 1 -11.5896 13.005 2.93237 13
749 1 -11.4201 9.05955 0.861433 23
750 1 -11.3829 6.77599 3.4139 22
751 1 -12.8137 9.97804 3.64911 19
752 1 -11.6678 8.91042 5.63945 22
753 1 -11.457 7.13503 8.5781 21
754 1 -13.0219 9.74825 8.19782 17
755 1 -12.9576 12.4872 5.91684 13
756 1 -10.0235 6.29808 0.713432 23
757 1 -8.55769 3.16893 0.424022 22
758 1 -8.39826 1.24096 2.82395 21
759 1 -9.8929 4.18627 3.01216 21
760 1 -9.92816 5.96899 5.87895 22
761 1 -8.16265 3.15484 5.70514 20
762 1 -8.11069 0.938631 8.29091 22
763 1 -10.0245 3.59657 8.17935 21
764 1 -9.4975 5.72606 10.4574 19
765 1 -8.276 2.97896 10.816 22
766 1 -8.02433 0.508411 13.6542 19
767 1 -9.94304 3.66495 13.3994 14
768 1 -10.3448 11.9281 0.130259 17
769 1 -8.0345 8.47299 0.469878 21
770 1 -7.89861 7.06385 3.42625 21
771 1 -9.91548 9.80038 3.20969 25
772 1 -10.0444 12.0964 5.85534 20
773 1 -8.27376 9.12614 5.85836 20
774 1 -7.89736 7.05995 8.04735 19
775 1 -9.8667 10.173 8.28606 20
776 1 -7.94086 8.36748 10.7813 19
777 1 -10.6121 6.55947 12.619 10
778 1 -8.45597 14.4886 0.245131 13
779 1 -8.22502 12.8667 2.97702 20
780 1 -12.9523 12.2426 9.70923 7
781 1 -11.1332 9.22493 11.1699 12
782 1 -6.84224 5.58618 0.548922 24
783 1 -5.00631 2.72365 0.363507 24
784 1 -4.88448 1.01802 2.95445 22
785 1 -6.43275 3.86842 2.97115 21
786 1 -6.39031 5.66211 5.78396 22
787 1 -4.90453 2.75568 5.69793 23
788 1 -4.61148 1.006 8.16443 21
789 1 -6.35418 3.66897 8.3046 23
790 1 -6.376 5.38391 11.0355 23
791 1 -4.72051 2.73759 10.9715 24
792 1 -4.82775 0.711165 13.2767 22
793 1 -6.7432 3.32686 13.7166 19
794 1 -6.91274 11.6397 0.419847 24
795 1 -5.11552 8.61 0.414422 23
796 1 -5.07641 7.04617 3.28974 22
797 1 -6.65583 9.98578 3.16006 22
798 1 -7.0983 12.3464 5.80639 19
799 1 -4.90064 8.90609 6.10285 20
800 1 -4.95998 6.84043 8.73865 25
801 1 -6.47045 10.1092 8.68102 19
802 1 -6.18649 11.7926 10.6734 11
803 1 -4.55908 8.6798 11.508 18
804 1 -4.52282 6.10891 13.4968 17
805 1 -7.85921 6.45361 13.9282 11
806 1 -5.12732 15.1523 0.160528 17
807 1 -4.96204 12.8778 2.2612 17
808 1 -6.54594 15.1719 3.31839 15
809 1 -4.86396 15.2096 6.00815 13
810 1 -8.53306 15.0818 5.74376 13
811 1 -3.47686 5.72911 0.486194 24
812 1 -1.71085 2.82057 0.612768 22
813 1 -1.59016 0.854094 3.03492 21
814 1 -3.23839 4.1091 3.17222 22
815 1 -3.27644 5.90464 5.68559 20
816 1 -1.6939 2.63988 5.73979 24
817 1 -1.44391 0.81211 8.10726 22
818 1 -3.06977 3.98385 8.31327 22
819 1 -3.04782 5.76442 11.1546 23
820 1 -1.43925 2.82401 10.9155 22
821 1 -1.54948 0.657167 13.8657 21
822 1 -2.93558 3.37609 13.6071 21
823 1 -3.5526 11.4336 0.0313004 20
824 1 -1.34939 8.69824 0.516241 22
825 1 -1.79413 7.08311 3.27293 23
826 1 -3.4143 9.88123 3.2481 23
827 1 -3.54733 11.936 6.00458 21
828 1 -2.03652 8.83722 6.05046 23
829 1 -1.50585 6.87541 8.39979 21
830 1 -3.29557 9.9772 8.85906 23
831 1 -3.07529 11.5446 11.7282 14
832 1 -1.47343 8.73281 11.6328 23
833 1 -1.29574 6.46642 13.9622 21
834 1 -3.28648 8.53117 14.6473 10
835 1 -1.56761 16.6447 -9.87214 10
836 1 -1.86652 14.4862 0.352757 23
837 1 -1.88212 12.4218 3.19129 22
838 1 -3.21022 15.6056 3.02847 17
839 1 -2.02119 14.3047 5.98099 22
840 1 -4.50411 13.3863 8.93019 16
841 1 -8.5 13.1375 8.61098 10
842 1 -2.41135 16.1276 8.22138 11
843 2 -15.6797 -0.435587 6.32415 12
844 2 -16.8932 3.12852 5.49721 10
845 2 -16.4902 5.83632 3.16376 13
846 2 -15.6108 3.20003 3.05767 17
847 2 -14.633 -0.109502 10.1783 12
848 2 -15.2784 2.02403 7.33267 13
849 2 -14.641 6.4771 6.0218 16
850 2 -14.1817 8.57187 3.67312 18
851 2 -11.2828 1.3428 5.27252 20
852 2 -13.2656 3.98724 5.59874 20
853 2 -13.1322 5.93906 2.8554 22
854 2 -11.625 3.22643 2.87299 22
855 2 -11.6885 1.0346 10.4052 21
856 2 -13.1946 3.32557 10.5624 12
857 2 -13.2715 6.30305 8.47319 14