ITEM: TIMESTEP
133000
ITEM: NUMBER OF ATOMS
2000
ITEM: BOX BOUNDS pp pp pp
-30.0 30.0
-30.0 30.0
-30.0 30.0
ITEM: ATOMS id type x y z Coordination
1 2 -16.0912 -0.65525 -2.77921 16
2 1 -3.70452 -17.3981 -5.47326 10
3 2 -3.56015 -17.2836 -3.47563 13
4 1 -3.28532 -17.5819 0.3736 12
5 2 -3.67083 -16.8272 2.52803 15
6 1 -0.496534 -17.2711 -5.10412 12
7 1 3.01219 -17.0922 -4.87599 13
8 2 -0.3829 -16.6409 -3.21624 16
9 2 3.16539 -17.5455 -2.9837 13
10 1 -0.316782 -17.1693 0.91221 15
11 1 -2.08262 -16.485 3.61758 17
12 1 3.11183 -17.34 0.262881 13
13 2 -0.298263 -17.3029 2.77055 13
14 2 2.97402 -17.1145 1.99144 14
15 2 -8.27217 -3.68843 -13.8603 18
16 2 -6.92984 -1.60835 -15.5204 15
17 2 -1.93231 -4.36118 -15.8651 13
18 2 -3.67029 -1.39602 -16.1867 15
19 2 -5.42531 1.45524 -15.8279 12
20 2 -8.48246 4.42566 -13.881 13
21 2 -2.16476 1.71036 -16.12 15
22 2 -3.55429 4.48988 -16.118 13
23 2 0.129237 3.88091 -15.9866 14
24 2 -1.72172 -8.75213 -13.1723 14
25 2 1.39689 -4.90922 -15.7898 12
26 2 -0.370802 -1.51339 -16.2618 17
27 2 4.47244 -4.47636 -16.7839 10
28 2 2.58384 -1.65729 -16.8211 13
29 2 6.03008 -2.21369 -16.5748 10
30 2 1.41236 0.820126 -16.2475 14
31 2 1.74826 6.70341 -15.4607 11
32 2 4.782 6.92985 -15.4935 11
33 2 4.96786 0.868901 -15.8877 13
34 2 3.32279 3.67121 -16.19 14
35 2 6.19764 5.17159 -13.625 18
36 1 -15.3523 -4.59443 -7.86133 10
37 1 -11.6145 -9.29443 -9.87379 14
38 1 -13.9464 -1.37153 -12.4912 11
39 1 -13.5724 -6.76903 -10.2678 13
40 1 -14.7445 -2.61287 -9.9048 12
41 1 -16.6102 -0.605989 -4.53192 13
42 1 -14.7743 -2.59294 -5.53164 16
43 1 -14.9111 -5.79163 -3.67886 12
44 1 -17.1878 -3.65065 -3.64818 10
45 1 -11.9291 -10.9109 -7.63855 11
46 1 -11.8991 0.976874 -12.8168 15
47 1 -6.59531 -11.5154 -9.90988 22
48 1 -5.20673 -14.7363 -9.74701 11
49 1 -9.75419 -12.3426 -9.61157 12
50 1 -14.5608 -6.8355 -6.41687 12
51 1 -11.7414 -8.23835 -5.69318 18
52 1 -12.0943 -10.5311 -3.91995 15
53 1 -13.4115 -8.02142 -3.20622 14
54 1 -13.0229 -4.13658 -12.8722 13
55 1 -13.6212 0.463547 -10.1896 19
56 1 -11.6517 -2.84207 -10.2694 26
57 1 -11.3143 -5.01896 -7.86897 22
58 1 -13.0962 -1.85226 -7.62874 22
59 1 -13.4769 -0.187384 -4.85765 24
60 1 -11.4152 -2.89821 -4.95162 20
61 1 -11.324 -5.00964 -2.28812 22
62 1 -13.0423 -2.19419 -2.30592 20
63 1 -6.96474 -13.7359 -7.24013 19
64 1 -10.0612 -11.6763 -5.69666 17
65 1 -8.38007 -14.8393 -4.6079 13
66 1 -10.2064 -13.463 -2.27326 13
67 1 -8.35521 -10.9061 -12.5797 11
68 1 -10.2193 -5.95742 -10.1782 22
69 1 -7.83766 -8.9103 -10.1946 24
70 1 -8.28112 -10.4978 -7.45756 21
71 1 -9.80459 -7.89046 -7.68426 21
72 1 -9.97643 -5.56166 -5.0877 21
73 1 -8.47041 -8.67871 -5.0886 24
74 1 -8.71203 -10.972 -2.69986 20
75 1 -9.89376 -7.76349 -2.76366 22
76 1 -8.61338 -2.08553 -15.2215 13
77 1 -9.44758 -4.63281 -12.5845 18
78 1 -10.6837 -2.08802 -12.8962 18
79 1 -10.3153 0.13099 -10.1029 26
80 1 -8.2932 -2.6578 -10.0756 24
81 1 -8.28283 -4.53524 -7.6813 23
82 1 -9.79413 -1.64725 -7.47747 24
83 1 -10.2267 0.268967 -5.28443 21
84 1 -8.28371 -2.70452 -4.86869 24
85 1 -8.06314 -4.80002 -2.20195 22
86 1 -9.85631 -1.9324 -2.17466 24
87 1 -5.04842 -12.8508 -12.6385 11
88 1 -7.03864 -17.2226 -6.4182 8
89 1 -6.6255 -11.6726 -5.44769 21
90 1 -5.03715 -14.5224 -4.82621 19
91 1 -5.11347 -16.4146 -2.38739 13
92 1 -6.67669 -13.6561 -2.03443 21
93 1 -12.2069 -7.35446 -12.3833 10
94 1 -5.86397 -9.80112 -12.8959 15
95 1 -8.0015 -7.18838 -12.4638 16
96 1 -6.77045 -5.41231 -9.97542 22
97 1 -5.11273 -8.10608 -10.0918 24
98 1 -5.18478 -10.3934 -7.64694 23
99 1 -6.55093 -7.81918 -7.30219 23
100 1 -6.46998 -5.45867 -4.82613 24
101 1 -5.14102 -8.57707 -4.77189 22
102 1 -4.92592 -10.6653 -2.24353 23
103 1 -6.75506 -7.72454 -2.10015 24
104 1 -6.79987 0.380912 -15.3806 15
105 1 -5.17741 -2.58874 -15.7783 16
106 1 -5.28515 -4.72345 -12.9347 19
107 1 -7.27424 -1.89574 -12.9123 22
108 1 -6.88143 0.340828 -10.2583 25
109 1 -5.10505 -2.92588 -10.2795 22
110 1 -5.01165 -5.01165 -7.64207 25
111 1 -6.47743 -1.53233 -7.59244 22
112 1 -6.73674 -0.0125494 -4.97681 23
113 1 -5.09088 -2.79705 -4.71719 24
114 1 -4.79707 -4.75106 -2.18873 23
115 1 -6.52082 -1.92 -2.1666 21
116 1 -3.59902 -10.7179 -10.3029 21
117 1 -2.16177 -13.6261 -10.5795 16
118 1 -2.05712 -16.1825 -8.22631 12
119 1 -3.55802 -13.115 -7.64707 20
120 1 -3.31036 -11.394 -4.90211 22
121 1 -1.67332 -13.9992 -5.0096 23
122 1 -1.91096 -16.3123 -2.18783 19
123 1 -3.51202 -13.563 -2.14227 24
124 1 -3.62867 -5.30837 -15.4324 15
125 1 -7.21005 -4.95508 -15.0115 12
126 1 -1.64715 -10.861 -12.705 13
127 1 -2.99621 -7.44476 -12.73 18
128 1 -3.38075 -5.62018 -10.4722 22
129 1 -1.60516 -8.30386 -10.1094 23
130 1 -1.4456 -10.3443 -7.63701 23
131 1 -3.4322 -7.37355 -7.39424 24
132 1 -3.30495 -5.46517 -4.77035 22
133 1 -1.63027 -8.74083 -4.88339 22
134 1 -1.59703 -10.6162 -2.34196 21
135 1 -3.08378 -7.40218 -2.21816 21
136 1 -3.55202 0.56841 -16.0748 16
137 1 -1.93984 -2.37496 -16.286 15
138 1 -1.62083 -4.69687 -12.7613 20
139 1 -3.72446 -1.98282 -13.1709 23
140 1 -3.39114 -0.100592 -10.35 23
141 1 -1.79988 -2.5932 -10.4008 22
142 1 -1.73485 -4.80511 -7.54747 25
143 1 -3.51209 -1.95064 -7.68177 23
144 1 -3.5543 -0.155065 -4.80398 22
145 1 -1.44415 -2.79417 -4.72391 25
146 1 -1.32678 -4.71978 -2.04749 21
147 1 -3.40928 -2.02881 -2.27117 20
148 2 -17.5348 -3.32116 -1.57428 10
149 2 -14.7354 -6.43263 -8.44442 10
150 2 -11.1604 -8.92732 -7.97646 21
151 2 -13.1566 -2.83145 -11.345 16
152 2 -14.628 -2.84063 -7.80026 16
153 2 -14.9513 1.83569 -9.32428 15
154 2 -13.1345 -6.14288 -2.92155 20
155 2 -14.9206 -4.88723 -5.63152 13
156 2 -16.5278 -2.32211 -4.86329 13
157 2 -16.2266 -5.00835 -2.81117 11
158 2 -11.7989 -10.5155 -5.75028 17
159 2 -5.34418 -14.1193 -8.06947 18
160 2 -11.3854 -11.2166 -9.6402 9
161 2 -13.0718 -0.138874 -8.43117 21
162 2 -8.43884 -10.9383 -10.5174 15
163 2 -12.0945 -10.7541 0.297959 14
164 2 -13.1673 -11.1293 -2.81181 9
165 2 -13.5347 -7.94101 -5.32603 13
166 2 -11.531 -8.63904 -2.67284 20
167 2 -11.0354 -3.77478 -13.3193 16
168 2 -15.0348 -0.796878 -10.7835 12
169 2 -12.3111 -5.83842 -9.38075 20
170 2 -11.438 -4.66744 -5.97418 24
171 2 -13.0977 -1.83131 -5.58615 20
172 2 -11.8755 1.02138 -10.8636 22
173 2 -11.4276 -2.93806 -8.29427 22
174 2 -11.7089 -4.91498 -0.251995 21
175 2 -13.3068 -2.16171 -0.0975099 19
176 2 -13.2674 0.00795648 -2.79592 22
177 2 -11.589 -3.11301 -2.90299 21
178 2 -6.90066 -13.6492 -5.32015 17
179 2 -9.78854 -11.9945 -7.6673 15
180 2 -9.7222 -13.3866 -0.39435 14
181 2 -10.2378 -11.904 -3.611 17
182 2 -8.69405 -14.3622 -2.87337 12
183 2 -5.68787 -13.1933 -10.72 16
184 2 -13.5618 -5.71688 -11.8713 12
185 2 -10.2219 -6.67403 -12.0246 17
186 2 -12.7959 -8.32373 -11.0688 10
187 2 -8.49558 -10.5842 -5.53768 23
188 2 -10.0792 -7.36117 -5.53371 20
189 2 -9.63926 -6.04802 -8.24266 21
190 2 -7.95125 -8.93334 -8.22012 20
191 2 -8.4602 -10.7144 -0.713635 24
192 2 -10.1502 -7.89231 -0.0713118 23
193 2 -9.74671 -5.74702 -3.12244 24
194 2 -8.38752 -8.99675 -3.1897 20
195 2 -8.7539 -4.67822 -10.6292 23
196 2 -10.0036 -1.94911 -10.8255 21
197 2 -12.225 -0.898393 -13.0394 15
198 2 -9.14795 -1.28108 -13.6392 19
199 2 -8.27693 -4.48234 -5.56798 22
200 2 -10.011 -1.72852 -5.43634 23
201 2 -10.3234 0.0211335 -8.27395 23
202 2 -8.25302 -2.53114 -8.22098 24
203 2 -8.49397 -4.829 0.161586 21
204 2 -10.1364 -1.8926 -0.128049 23
205 2 -10.1101 0.18075 -3.04836 25
206 2 -8.19571 -2.97569 -2.87967 25
207 2 -5.4692 -16.4229 -5.7931 13
208 2 -8.45556 -15.7862 -6.32118 8
209 2 -6.5594 -11.7643 -7.44094 21
210 2 -3.15406 -15.1849 -9.72606 10
211 2 -4.48663 -16.3605 -0.368271 15
212 2 -6.66878 -13.7664 -0.184064 18
213 2 -6.63153 -11.4422 -2.50694 20
214 2 -4.98733 -14.5352 -2.89686 20
215 2 -6.47388 -11.5581 -12.7139 11
216 2 -6.91557 -7.23426 -10.5825 20
217 2 -6.73465 -6.00788 -13.5122 16
218 2 -7.95624 -8.9347 -12.4487 12
219 2 -4.88049 -10.2397 -5.73056 24
220 2 -6.96666 -7.53854 -5.30923 23
221 2 -6.74347 -5.90984 -7.79938 21
222 2 -4.81403 -8.35746 -8.22472 25
223 2 -5.09057 -10.6774 -0.167535 20
224 2 -6.887 -7.4606 -0.269821 22
225 2 -6.47229 -5.76637 -2.7912 23
226 2 -5.24431 -8.63055 -2.94071 21
227 2 -5.36192 -4.90574 -11.0066 22
228 2 -6.87385 -1.45027 -11.038 23
229 2 -6.94298 0.505688 -13.36 19
230 2 -5.49559 -2.8346 -13.2702 22
231 2 -4.7118 -4.56469 -5.70275 22
232 2 -6.65104 -2.00467 -5.75198 24
233 2 -6.97822 0.116116 -8.29482 23
234 2 -5.36847 -3.03767 -8.32537 21
235 2 -5.25508 -4.9214 0.232686 21
236 2 -6.71896 -2.00242 0.00461759 22
237 2 -6.70861 0.121319 -3.04551 24
238 2 -5.05268 -3.10623 -3.00243 22
239 2 -3.1571 -12.3613 -11.9221 15
240 2 -5.31274 -9.99184 -11.0196 20
241 2 -2.43967 -17.01 -6.62355 10
242 2 -3.71584 -13.2385 -5.33624 19
243 2 -3.35419 -11.0629 -8.41199 24
244 2 -1.69872 -14.1254 -7.36716 16
245 2 -1.76215 -16.2546 -0.026115 17
246 2 -3.39178 -13.3606 0.022107 21
247 2 -3.28109 -11.5468 -2.43782 21
248 2 -1.85248 -14.2713 -3.0742 23
249 2 -1.72442 -10.1508 -10.7213 19
250 2 -3.31018 -7.65894 -10.6681 18
251 2 -3.26834 -5.82871 -13.5092 18
252 2 -5.43831 -4.54884 -15.417 12
253 2 -1.72832 -10.6473 -5.83625 24
254 2 -3.40331 -7.46913 -5.41637 23
255 2 -3.42669 -5.41627 -8.38489 23
256 2 -1.77794 -8.24793 -8.04757 23
257 2 -1.4261 -10.6042 -0.158879 21
258 2 -3.29406 -7.76967 -0.161126 23
259 2 -3.22607 -5.5275 -2.82746 22
260 2 -1.94528 -8.89245 -3.0486 21
261 2 -1.55459 -5.61088 -10.9874 23
262 2 -3.59592 -1.86048 -10.8229 22
263 2 -3.22786 -0.0225674 -13.6478 22
264 2 -1.71915 -2.85048 -12.9799 20
265 2 -1.62167 -4.63605 -5.5561 23
266 2 -3.30308 -2.08492 -5.58467 24
267 2 -3.82811 0.015704 -8.2766 23
268 2 -1.64205 -2.49935 -8.52847 22
269 2 -1.31759 -4.67283 -0.0445396 23
270 2 -3.32659 -1.80236 -0.141307 23
271 2 -3.5236 -0.043167 -2.80686 22
272 2 -1.47551 -2.8958 -2.72139 23
273 1 -16.8788 -5.131 -1.02891 9
274 1 -13.3274 -11.5342 -1.13478 8
275 1 -11.7392 -9.00174 5.49746 17
276 1 -17.1591 -1.67606 -1.5663 12
277 1 -15.0008 -2.91935 0.379216 17
278 1 -15.1489 -4.74986 3.27901 13
279 1 -16.69 -1.6987 1.94912 12
280 1 -16.1872 1.18007 4.2772 12
281 1 -15.0006 -2.87954 5.80022 14
282 1 -14.8402 -4.43025 9.05849 10
283 1 -11.6368 -10.6683 2.90961 14
284 1 -13.5712 -5.71687 -0.639684 18
285 1 -11.8992 -8.80215 -0.361826 20
286 1 -10.111 -11.622 5.90795 20
287 1 -13.1014 -7.49822 2.14567 17
288 1 -13.6105 -5.98088 5.26042 15
289 1 -11.5607 -10.6987 8.20498 12
290 1 -8.52574 -10.8707 8.80189 20
291 1 -13.3372 -7.29793 8.02516 12
292 1 -13.0893 -0.217246 11.1101 16
293 1 -10.4059 -7.65931 13.9853 8
294 1 -12.8012 -0.229322 0.300702 21
295 1 -11.5487 -3.15069 0.597856 21
296 1 -11.7165 -4.67808 3.53899 21
297 1 -13.3774 -1.98279 3.13804 22
298 1 -13.1209 -0.16005 5.65201 20
299 1 -11.8153 -3.12295 5.97275 23
300 1 -11.4714 -4.53292 8.98995 21
301 1 -13.3875 -1.68646 8.58808 19
302 1 -15.0535 2.31917 10.1734 7
303 1 -11.6085 -2.68679 11.5108 15
304 1 -10.3688 -11.5887 0.109664 17
305 1 -8.25757 -14.443 0.493125 14
306 1 -10.0855 -13.0469 2.74999 15
307 1 -8.21406 -14.3467 5.33461 14
308 1 -6.82417 -13.5275 8.09562 18
309 1 -10.3138 -5.79051 0.552294 24
310 1 -8.43417 -8.40058 0.344532 22
311 1 -8.31323 -10.5699 3.2111 25
312 1 -10.3039 -7.34121 3.28872 21
313 1 -10.6376 -6.36628 6.15509 21
314 1 -8.44116 -8.83692 6.07177 21
315 1 -9.84958 -13.9622 8.40286 10
316 1 -10.3912 -7.83247 8.53037 19
317 1 -9.90617 -5.58662 11.4569 18
318 1 -8.69787 -9.14357 11.6004 15
319 1 -9.71284 -0.151127 0.728553 21
320 1 -8.29969 -2.97645 0.560446 23
321 1 -8.73921 -4.90208 3.33453 24
322 1 -10.3624 -1.90217 3.18478 21
323 1 -9.89462 -0.168518 5.6321 23
324 1 -8.38097 -2.98409 5.88721 21
325 1 -8.54034 -5.0232 7.79293 21
326 1 -9.96557 -1.63244 8.43718 22
327 1 -9.9069 -0.175156 11.1744 20
328 1 -8.29209 -2.92891 10.0953 19
329 1 -8.5259 -4.58949 14.0146 13
330 1 -9.31104 -1.38306 14.8164 11
331 1 -6.86462 -11.5203 0.0210958 21
332 1 -5.0892 -14.6772 0.399124 20
333 1 -3.95705 -17.4772 6.02513 8
334 1 -6.73289 -13.1073 3.14461 23
335 1 -6.46355 -11.4681 5.57671 24
336 1 -5.00446 -14.4296 5.93822 21
337 1 -5.10783 -14.5217 9.9089 12
338 1 -6.51641 -11.9752 11.2776 12
339 1 -6.93914 -5.82204 0.636463 24
340 1 -5.00508 -8.74088 0.144116 21
341 1 -5.24311 -10.5521 3.10751 22
342 1 -6.70227 -7.73185 3.15937 23
343 1 -6.9756 -6.19105 5.58498 20
344 1 -5.11004 -8.62446 6.0944 23
345 1 -4.98111 -10.5835 8.57136 23
346 1 -7.00078 -8.0515 8.70122 23
347 1 -6.73609 -5.69567 11.2955 23
348 1 -5.08521 -8.83626 11.3322 19
349 1 4.73011 -8.47267 15.8197 11
350 1 -6.83293 -7.80632 13.6569 13
351 1 -6.72842 -0.10717 0.453612 24
352 1 -4.937 -2.90283 0.436157 21
353 1 -5.16675 -4.42724 2.98361 21
354 1 -6.77812 -1.89878 3.38369 25
355 1 -6.65665 -0.0185167 5.86057 23
356 1 -5.15231 -2.89163 5.79125 22
357 1 -5.30901 -4.85834 8.1735 19
358 1 -6.78369 -1.97493 8.36943 22
359 1 -6.71036 0.180527 11.3314 22
360 1 -4.91822 -2.97567 11.1586 22
361 1 -4.88491 -4.86104 13.3989 17
362 1 -6.33333 -2.05837 14.2284 19
363 1 -3.15023 -11.4101 0.413394 23
364 1 -1.59319 -14.428 0.256739 22
365 1 -5.26097 -16.1862 3.11817 15
366 1 -3.41593 -13.3265 3.13733 23
367 1 -3.15258 -11.4275 5.89289 25
368 1 -1.73845 -14.4145 6.063 20
369 1 -3.29213 -13.216 8.47864 20
370 1 -3.28514 -11.5537 11.239 17
371 1 -1.80074 -14.2118 11.4661 11
372 1 -3.38661 -5.92137 0.514039 22
373 1 -1.52146 -8.55065 0.456934 21
374 1 -1.54304 -10.6594 3.01861 23
375 1 -3.44821 -7.8339 3.10464 21
376 1 -3.7597 -5.57804 5.35722 20
377 1 -1.59234 -8.41035 5.72996 21
378 1 -1.42196 -10.4592 8.22181 20
379 1 -3.50123 -7.85945 8.57706 24
380 1 -3.66762 -6.09129 10.96 20
381 1 -1.72012 -8.65864 10.898 20
382 1 -0.929481 -11.1234 13.8386 14
383 1 -3.01373 -8.13948 13.383 13
384 1 -3.45179 0.0911359 0.599554 24
385 1 -1.75442 -2.79625 0.616681 23
386 1 -1.77178 -4.83365 3.12367 21
387 1 -3.3946 -1.81613 3.25077 23
388 1 -3.33484 -0.37061 6.18973 23
389 1 -1.97165 -2.82685 5.99389 22
390 1 -1.86086 -5.03548 8.28916 22
391 1 -3.21997 -2.03809 8.93947 24
392 1 -3.38189 0.0622655 11.2794 21
393 1 -1.56427 -3.10888 11.192 20
394 1 -1.84371 -4.9401 13.5935 17
395 1 -3.09352 -2.00294 13.7656 21
396 2 -15.3205 -3.16901 2.37597 14
397 2 -12.9655 -7.35034 0.120654 15
398 2 -15.0772 -4.77433 5.20452 14
399 2 -16.437 0.0445204 2.68004 12
400 2 -16.4715 -1.7973 0.0439783 14
401 2 -13.3756 -5.81286 3.17755 17
402 2 -14.5699 -3.0465 7.80713 13
403 2 -11.8097 -10.8069 4.98102 14
404 2 -10.3632 -12.115 7.88373 13
405 2 -13.1491 -7.7261 6.0878 16
406 2 -15.1948 -4.904 -0.178144 14
407 2 -11.8394 -8.78058 3.10366 17
408 2 -13.1864 -5.52948 8.59181 17
409 2 -11.98 -8.91477 8.3049 13
410 2 -11.6396 -5.02053 5.51224 24
411 2 -13.3596 -2.14282 5.06559 20
412 2 -13.4194 -0.114551 2.3191 24
413 2 -11.9083 -2.94458 2.4782 23
414 2 -11.6535 -4.56694 11.126 12
415 2 -13.1273 -2.05197 10.405 18
416 2 -12.8829 0.166586 7.53636 22
417 2 -11.6483 -2.52674 7.88608 24
418 2 -12.8486 0.180358 12.9032 10
419 2 -9.61453 -12.9911 4.60506 16
420 2 -9.97144 -11.2332 2.05347 21
421 2 -8.43968 -14.0872 2.31399 16
422 2 -8.30762 -14.346 7.31296 13
423 2 -8.25337 -10.8188 5.39776 23
424 2 -10.0215 -7.85039 5.36826 22
425 2 -10.3721 -5.71276 2.52024 24
426 2 -8.59505 -8.41436 2.32217 21
427 2 -8.14007 -11.0608 10.6428 15
428 2 -9.65385 -8.14078 10.3018 17
429 2 -10.2526 -5.9316 8.1214 22
430 2 -8.55429 -8.82436 8.14563 22
431 2 -10.0662 -5.89362 13.3588 12
432 2 -8.74218 -8.33165 13.4148 12
433 2 -8.57627 -4.76626 5.56483 21
434 2 -10.1791 -2.03609 5.3144 22
435 2 -9.77266 0.163169 2.55108 23
436 2 -8.58711 -3.13533 2.6253 23
437 2 -8.39445 -4.48389 10.9033 22
438 2 -10.0356 -2.18302 10.499 20
439 2 -9.6574 0.233243 7.75275 23
440 2 -8.35404 -2.93329 8.03704 21
441 2 -9.87359 -0.110373 13.163 17
442 2 -8.17164 -2.64265 14.3051 13
443 2 -5.12889 -16.0577 5.07448 14
444 2 -6.57353 -13.2426 5.11949 22
445 2 -6.8214 -11.2568 2.57522 22
446 2 -5.55293 -14.4977 2.37931 18
447 2 -6.65928 -13.4688 10.116 13
448 2 -6.72256 -11.5702 7.83046 25
449 2 -5.05835 -14.1755 7.88258 18
450 2 -4.78402 -10.413 5.26187 23
451 2 -7.02644 -7.90442 5.15168 22
452 2 -6.92851 -5.72823 3.03943 21
453 2 -5.23241 -8.53089 2.24245 22
454 2 -5.17022 -10.9084 10.5092 20
455 2 -6.568 -7.64077 11.0315 20
456 2 -7.0289 -6.11459 8.21445 23
457 2 -5.1104 -8.83555 8.11351 20
458 2 -6.97452 -5.86656 13.5368 16
459 2 -5.06611 -8.49399 13.4077 13
460 2 -5.49454 -4.91768 5.52585 23
461 2 -6.65049 -2.09038 5.46186 22
462 2 -6.6264 -0.132244 2.63796 23
463 2 -5.15493 -2.61051 2.39575 22
464 2 -4.99286 -4.98197 10.2004 23
465 2 -6.463 -1.78651 10.4753 21
466 2 -6.56768 0.15868 7.82946 23
467 2 -5.00743 -2.78935 7.86548 25
468 2 -3.88258 -3.18245 15.0736 14
469 2 -5.94865 -1.68518 16.1875 14
470 2 -6.16285 0.112998 13.1858 23
471 2 -5.36135 -3.0271 12.9483 20
472 2 -2.49769 -16.1246 5.42465 13
473 2 -3.31717 -13.6075 4.92668 24
474 2 -3.50306 -11.332 2.71228 20
475 2 -1.71243 -14.0097 2.42886 22
476 2 -3.48584 -13.7731 10.6355 13
477 2 -3.42026 -11.5294 7.8542 24
478 2 -1.64185 -14.2102 7.97547 18
479 2 -1.26033 -9.37138 12.8667 18
480 2 -1.51486 -10.3997 5.3926 20
481 2 -3.60949 -7.73883 5.2536 21
482 2 -3.58177 -5.47831 2.42697 23
483 2 -1.91365 -8.61305 2.52216 23
484 2 -1.88343 -10.4822 10.232 20
485 2 -3.45133 -7.91566 10.5885 19
486 2 -3.44448 -5.17756 7.33311 20
487 2 -1.88735 -8.52703 7.79485 21
488 2 0.826238 -11.5876 13.5546 12
489 2 -3.37484 -6.15751 13.1148 20
490 2 -1.599 -12.5249 12.5646 9
491 2 -1.56146 -4.59767 5.16095 23
492 2 -3.57417 -2.30303 5.03413 23
493 2 -3.58771 0.0561893 2.5743 25
494 2 -1.70117 -2.95847 2.57365 23
495 2 -2.0059 -5.13828 10.4755 22
496 2 -2.98438 -1.87068 10.7418 21
497 2 -3.33712 0.0685295 8.05867 23
498 2 -1.64285 -2.91779 8.05455 22
499 2 -1.50321 -4.74381 15.969 16
500 2 -3.30041 -1.73668 17.3124 11
501 2 -3.10525 -0.144475 13.5277 20
502 2 -1.44626 -3.13304 13.0815 23
503 1 -15.0067 7.07757 -6.98357 17
504 1 -15.7427 0.976163 -7.75852 15
505 1 -16.915 5.97945 -4.63045 11
506 1 -15.0325 2.32997 -5.18948 18
507 1 -14.9108 0.903111 -2.2356 20
508 1 -16.7139 3.22243 -2.2991 13
509 1 -13.5924 9.80064 -6.19309 13
510 1 -15.7843 8.70638 -4.29583 10
511 1 -15.0066 5.95618 -2.08309 18
512 1 -15.2701 3.39958 -10.3544 13
513 1 -16.7017 4.52494 -7.4657 12
514 1 -12.1756 3.14284 -10.3391 20
515 1 -11.9452 1.43372 -7.55188 23
516 1 -13.8751 3.92189 -7.01811 20
517 1 -13.3124 5.95741 -4.58587 20
518 1 -11.5292 2.89077 -4.76765 23
519 1 -11.6453 1.06362 -2.03895 23
520 1 -13.6892 3.70948 -2.74054 22
521 1 -13.5282 4.48237 -12.7211 10
522 1 -11.6624 6.75269 -6.9396 20
523 1 -15.3396 6.44932 -10.2374 9
524 1 -13.2545 10.4282 -2.21885 12
525 1 -11.7317 9.02943 -4.07067 18
526 1 -11.4992 6.55309 -2.21535 18
527 1 -13.4689 11.6701 0.471047 12
528 1 -11.5006 13.4144 -1.95985 8
529 1 -10.1078 3.88976 -12.933 18
530 1 -8.61965 0.663698 -12.7758 22
531 1 -12.7084 8.92769 -9.99358 10
532 1 -10.1832 5.8299 -9.98946 19
533 1 -8.93371 2.69198 -10.2154 22
534 1 -8.59196 1.10609 -7.69927 21
535 1 -10.3514 4.01071 -7.53057 21
536 1 -9.50436 5.89645 -4.72111 22
537 1 -8.38515 2.74302 -4.83755 23
538 1 -8.44657 0.961375 -2.39595 21
539 1 -10.1501 3.87799 -2.06016 24
540 1 -10.8871 7.13023 -12.5637 13
541 1 -9.24377 8.65474 -10.2551 17
542 1 -8.49772 6.86399 -7.77367 20
543 1 -10.7829 9.46428 -7.3848 17
544 1 -10.0044 11.5105 -5.14526 14
545 1 -8.17879 8.83726 -4.72477 22
546 1 -8.35699 6.97513 -1.78226 21
547 1 -9.65703 10.2879 -1.84005 21
548 1 -8.95558 12.5453 -8.09442 12
549 1 -7.68994 14.2793 -5.56363 14
550 1 -8.30711 12.8519 -2.4336 19
551 1 -7.83844 5.92284 -14.6657 12
552 1 -5.0381 3.20568 -15.545 16
553 1 -5.21745 0.823236 -12.9764 22
554 1 -7.03416 3.53524 -13.0542 20
555 1 -7.04275 5.76944 -10.5188 21
556 1 -5.53859 2.9178 -10.3092 23
557 1 -5.3798 1.11047 -7.86108 21
558 1 -6.99736 3.92669 -7.48219 23
559 1 -6.85286 5.80503 -4.60166 24
560 1 -5.1122 2.90963 -5.2122 21
561 1 -5.23636 1.18538 -2.22318 22
562 1 -6.78479 3.95666 -2.44527 20
563 1 -5.29389 6.83035 -12.9074 17
564 1 -7.52625 8.90136 -12.9628 13
565 1 -6.73296 11.3214 -10.4577 14
566 1 -5.71521 8.60325 -10.0194 22
567 1 -5.08353 6.50926 -7.39905 22
568 1 -7.17533 9.4443 -7.34301 20
569 1 -6.67434 11.4459 -4.64562 19
570 1 -4.92302 8.50605 -4.50445 22
571 1 -5.25022 6.79293 -2.22735 22
572 1 -6.55764 9.85007 -2.04853 22
573 1 -4.57747 13.1752 -7.35273 19
574 1 -7.83553 15.3592 -8.97578 9
575 1 -4.75498 14.5558 -4.76259 16
576 1 -4.96725 12.5028 -2.01213 25
577 1 -6.50498 15.1683 -2.1827 12
578 1 -4.06703 6.30991 -15.5494 10
579 1 -1.88572 3.48093 -16.216 13
580 1 -1.94108 1.26686 -12.8762 21
581 1 -3.52268 4.05349 -13.054 21
582 1 -3.69541 5.85744 -10.1222 22
583 1 -2.06692 2.82556 -10.186 22
584 1 -2.14171 0.883308 -7.56667 23
585 1 -3.18655 4.03183 -7.78645 20
586 1 -3.44656 5.9881 -4.79222 22
587 1 -1.73866 2.91546 -4.8293 22
588 1 -1.81441 0.779546 -2.43926 21
589 1 -3.22202 3.99488 -2.027 23
590 1 3.31441 8.34861 -15.0855 12
591 1 -1.99739 7.01776 -12.7859 21
592 1 -3.93562 9.62022 -12.4291 16
593 1 -3.90962 11.7354 -9.71849 17
594 1 -1.81052 9.05586 -10.2059 20
595 1 -1.80377 6.913 -7.49411 21
596 1 -3.33878 9.70745 -7.36174 22
597 1 -3.31721 11.36 -4.69401 24
598 1 -1.51818 8.33186 -4.58551 23
599 1 -1.80567 6.85761 -2.12993 23
600 1 -3.27112 9.74162 -1.93612 24
601 1 -1.67268 13.8317 -11.5561 11
602 1 -4.78686 14.6797 -10.1642 13
603 1 -1.7012 12.0277 -7.19745 21
604 1 -1.74 18.9797 -7.7134 6
605 1 -4.43553 16.6301 -7.91233 13
606 1 -1.50049 13.9588 -4.84882 20
607 1 -1.71823 12.2108 -2.16166 22
608 1 -2.86675 14.9571 -1.96367 17
609 2 -15.4981 0.447651 -5.95331 19
610 2 -16.8513 5.99544 -6.47159 11
611 2 -14.2393 7.879 -9.92472 8
612 2 -14.5773 1.05815 -0.271865 20
613 2 -16.4713 3.98045 -0.467396 15
614 2 -17.2949 4.84972 -3.22042 10
615 2 -15.1714 2.47602 -3.33289 19
616 2 -15.1249 6.82003 -3.94051 15
617 2 -15.0279 6.85529 -0.281297 15
618 2 -13.9754 9.4673 -3.98622 14
619 2 -15.8563 4.80259 -9.34426 12
620 2 -13.6165 2.94218 -11.5128 14
621 2 -15.6958 3.18341 -6.78242 15
622 2 -12.06 1.22008 -5.66535 21
623 2 -13.3055 3.6309 -5.00021 19
624 2 -14.7113 5.23372 -11.5774 8
625 2 -12.1892 3.30463 -8.22093 23
626 2 -11.279 0.863792 -0.132299 21
627 2 -13.4223 4.01028 -0.567312 25
628 2 -13.19 5.90579 -2.71725 17
629 2 -11.7912 2.96957 -2.6599 21
630 2 -15.4086 8.97743 -6.02089 10
631 2 -11.5296 6.99636 -4.66466 20
632 2 -12.4936 8.80032 -7.8545 15
633 2 -13.4813 5.97498 -6.77194 19
634 2 -11.6604 6.463 -0.282819 20
635 2 -13.8838 9.86732 -0.609118 11
636 2 -12.7857 12.0222 -1.34925 12
637 2 -11.6152 9.34071 -1.81615 18
638 2 -10.2992 11.7445 -7.11347 12
639 2 -12.1549 11.4157 2.02204 14
640 2 -8.73498 0.946655 -10.8591 23
641 2 -10.5809 3.97769 -10.7533 21
642 2 -8.67482 7.36707 -13.8515 13
643 2 -10.3241 2.00399 -13.368 17
644 2 -8.24752 0.944819 -5.86282 24
645 2 -10.0175 3.98872 -5.22284 23
646 2 -10.4254 6.0687 -8.02354 19
647 2 -8.67977 3.06329 -8.22899 25
648 2 -8.34137 1.19045 -0.195019 23
649 2 -10.0234 4.07249 -0.00658931 22
650 2 -9.68219 5.72416 -2.88258 21
651 2 -8.58514 2.85099 -2.83303 23
652 2 -8.52757 6.91356 -10.299 15
653 2 -11.8511 5.56738 -12.5365 12
654 2 -10.9677 8.26375 -10.8092 13
655 2 -8.16809 6.84785 -5.73252 22
656 2 -10.3137 9.52031 -5.35239 20
657 2 -8.44895 12.428 -4.65469 16
658 2 -8.97891 8.88158 -8.02071 21
659 2 -8.24143 6.9823 0.270771 22
660 2 -9.419 10.4534 0.137777 20
661 2 -10.3183 12.1277 -2.65056 15
662 2 -8.32375 9.17472 -2.87311 25
663 2 -8.02145 14.0896 -7.55653 11
664 2 -9.74267 13.6455 -0.344657 13
665 2 -7.15822 14.5873 -3.89022 13
666 2 -5.04257 1.01207 -10.8898 22
667 2 -7.17171 3.12977 -11.1851 20
668 2 -5.86124 6.30703 -14.6265 14
669 2 -5.28651 3.0888 -13.4865 20
670 2 -5.115 0.726062 -5.82446 23
671 2 -6.74779 3.92544 -5.32943 21
672 2 -6.94033 5.58222 -8.3823 23
673 2 -5.36103 3.1534 -8.08478 24
674 2 -5.12967 1.11717 -0.037412 21
675 2 -6.47515 3.69105 -0.457069 23
676 2 -7.14889 5.85626 -2.70806 22
677 2 -5.03364 3.04898 -3.13033 25
678 2 -5.25799 6.77994 -10.7244 21
679 2 -7.56466 9.51806 -10.9794 16
680 2 -5.60023 8.67078 -13.028 15
681 2 -5.30922 6.78518 -5.26807 21
682 2 -6.48367 9.64684 -5.2692 20
683 2 -7.96082 12.0394 -9.41132 10
684 2 -5.4201 8.64464 -8.06125 20
685 2 -5.14564 6.76865 -0.0592986 24
686 2 -6.58989 9.62604 -0.1771 22
687 2 -6.63704 11.7436 -2.31246 20
688 2 -4.66126 8.61909 -2.67237 23
689 2 -5.37916 13.0774 -9.3989 15
690 2 -4.90297 12.5245 -5.2011 20
691 2 -6.01845 15.9808 -9.17772 10
692 2 -5.04191 15.4576 -6.43234 14
693 2 -4.82815 12.6586 -0.239365 22
694 2 -6.98462 15.3314 -0.343493 13
695 2 -4.4562 14.5712 -2.80165 17
696 2 -1.824 0.964847 -10.818 21
697 2 -3.75452 3.79619 -10.4065 20
698 2 -3.65315 6.07786 -13.2877 17
699 2 -1.81455 3.23347 -13.3358 21
700 2 -1.96006 1.00661 -5.31667 22
701 2 -3.568 4.04827 -5.74468 23
702 2 -3.51858 5.88619 -8.07978 22
703 2 -1.82421 2.69492 -8.24066 22
704 2 -1.86372 0.960839 -0.457226 24
705 2 -3.5058 3.91086 0.0590763 20
706 2 -3.37008 6.16823 -2.74379 21
707 2 -1.70267 3.11275 -2.87859 22
708 2 -1.87951 7.06679 -10.781 19
709 2 -4.40505 10.2136 -10.6676 15
710 2 -2.27026 12.3217 -10.2113 20
711 2 -2.03697 8.95967 -12.4128 12
712 2 -1.54189 6.33874 -5.46573 21
713 2 -3.14502 9.17369 -5.66429 22
714 2 -3.56985 11.534 -7.59338 17
715 2 -1.77262 8.91909 -8.22668 22
716 2 -1.79609 6.85162 0.398479 20
717 2 -3.28734 9.77062 0.0409426 25
718 2 -3.48283 11.3413 -2.75416 22
719 2 -1.28754 8.79433 -2.80014 23
720 2 -2.93977 15.1721 -10.608 13
721 2 -1.51311 11.9967 -5.23747 22
722 2 -0.893269 15.6792 -9.23605 15
723 2 -2.34358 14.1189 -6.78133 18
724 2 -1.44751 12.3301 -0.257615 25
725 2 -3.16967 15.1605 0.0299672 19
726 2 -1.14795 18.5527 -6.04811 5
727 2 -1.4051 13.9453 -2.83959 23
728 1 -16.4164 5.48353 0.433925 15
729 1 -14.8885 2.90494 0.217627 20
730 1 -14.9374 0.870857 1.70047 18
731 1 -16.5117 3.50958 2.85089 13
732 1 -14.965 2.85831 6.13506 16
733 1 -14.6167 0.634952 7.96962 14
734 1 -14.8114 8.76397 0.39364 13
735 1 -14.8865 6.85255 3.24337 16
736 1 -15.1563 8.89573 6.04511 12
737 1 -13.4386 5.77423 0.519053 22
738 1 -12.0504 3.26961 0.427231 22
739 1 -11.5945 1.0606 3.11312 22
740 1 -13.2738 3.68266 3.27248 24
741 1 -13.0357 5.72773 5.65226 20
742 1 -11.3011 2.60531 5.71466 22
743 1 -11.3632 0.949682 8.49577 24
744 1 -12.6484 3.92437 8.83081 21
745 1 -14.9164 6.38303 7.74378 10
746 1 -11.8143 2.89353 11.1655 17
747 1 -11.3373 0.665204 13.8981 11
748 1 -11.6749 12.9287 3.00409 14
749 1 -11.374 9.20461 0.296341 20
750 1 -11.5825 6.63913 3.15962 22
751 1 -12.8072 9.73719 2.98997 20
752 1 -11.7117 8.5895 5.82004 21
753 1 -11.6634 7.03029 8.44475 19
754 1 -14.104 9.83727 8.82889 12
755 1 -13.7127 11.549 5.75983 11
756 1 -10.029 5.94453 0.549514 21
757 1 -8.25614 3.00469 0.489238 24
758 1 -8.13011 0.883927 3.16858 21
759 1 -10.0083 3.67874 2.94917 23
760 1 -9.63359 5.63937 5.87418 21
761 1 -8.14753 2.99917 5.92126 23
762 1 -8.19931 1.20605 8.56586 23
763 1 -9.89931 4.05767 8.44749 22
764 1 -10.1195 6.10678 10.9821 16
765 1 -8.56821 3.6186 11.2326 21
766 1 -8.03457 1.06288 13.7877 18
767 1 -9.85205 3.83343 13.561 12
768 1 -10.2995 11.9895 0.851709 20
769 1 -8.15506 8.92205 0.708252 21
770 1 -8.40748 6.83233 2.98188 19
771 1 -9.69153 9.84813 3.37195 21
772 1 -10.0548 11.6483 5.83133 18
773 1 -8.14263 8.70708 5.45567 19
774 1 -8.25775 7.15479 8.34011 23
775 1 -9.83684 9.78744 8.36358 21
776 1 -8.04071 8.95124 11.0003 20
777 1 -8.29835 7.03945 13.1423 12
778 1 -8.68266 15.3438 0.535268 9
779 1 -8.09238 12.9845 3.212 17
780 1 -12.2102 11.8991 8.30858 13
781 1 -11.4677 9.27204 10.5624 13
782 1 -6.67584 5.86799 0.526174 24
783 1 -5.09201 2.96412 0.477007 24
784 1 -5.18787 0.980087 3.35775 24
785 1 -6.53268 3.7198 3.34991 24
786 1 -6.56056 5.48975 5.50725 20
787 1 -4.81941 2.41145 6.18544 24
788 1 -5.02585 0.87962 8.80478 23
789 1 -6.2323 4.07324 8.50762 21
790 1 -6.77686 6.18039 11.014 21
791 1 -5.06513 2.84227 10.949 22
792 1 -4.85578 1.09567 14.0481 22
793 1 -6.12667 3.9161 13.7517 18
794 1 -6.26141 11.5149 0.674536 20
795 1 -4.89355 8.83239 0.795916 25
796 1 -5.07903 6.81925 3.06112 22
797 1 -6.34483 9.92601 3.24789 21
798 1 -6.73574 11.8075 5.64981 19
799 1 -4.74005 8.73849 5.99531 25
800 1 -4.81565 6.70406 8.3894 21
801 1 -6.40165 10.0025 8.53137 23
802 1 -6.57869 11.8312 11.257 15
803 1 -5.04356 8.72669 10.7137 20
804 1 -5.02938 6.51421 14.3208 19
805 1 -6.45656 9.29894 13.8312 11
806 1 -5.18265 14.5474 0.241143 17
807 1 -5.16359 12.8174 3.1485 22
808 1 -6.56484 15.698 2.99024 12
809 1 -4.95953 14.292 5.95691 16
810 1 -7.46415 13.4223 8.14731 13
811 1 -3.45007 5.82371 0.486693 21
812 1 -2.02483 2.75681 0.614529 22
813 1 -1.49131 0.988059 3.44851 23
814 1 -3.36207 4.00075 3.13114 22
815 1 -3.39478 5.41835 5.61251 20
816 1 -1.50351 2.70319 6.1655 25
817 1 -1.53391 0.854298 8.58562 24
818 1 -3.22597 3.71057 8.7637 25
819 1 -3.19334 5.725 11.1621 24
820 1 -1.46034 2.91444 11.3402 21
821 1 -1.5571 1.04146 14.0857 22
822 1 -3.2445 3.92527 13.2895 20
823 1 -3.30861 11.812 0.657783 23
824 1 -1.48543 8.73183 0.662289 24
825 1 -1.58581 6.92712 2.94108 22
826 1 -3.07999 9.95523 3.4828 22
827 1 -3.36576 11.7953 6.12826 23
828 1 -1.725 8.27782 5.80476 23
829 1 -1.73941 6.78406 8.5291 24
830 1 -2.91525 9.60847 8.3551 22
831 1 -3.23505 11.3548 10.9892 16
832 1 -1.22662 8.44655 11.2121 24
833 1 -1.46815 6.58655 13.8293 19
834 1 -3.59213 8.90051 14.1242 15
835 1 -2.21189 16.7562 -9.87299 10
836 1 -1.271 14.4406 0.493491 21
837 1 -1.60778 12.8269 3.5331 24
838 1 -4.22707 17.1253 4.64098 12
839 1 -1.84985 14.3238 6.11941 21
840 1 -4.66074 12.6312 8.67509 19
841 1 -9.69668 12.1833 10.2878 10
842 1 -2.97522 16.4028 7.90894 9
843 2 -14.7638 0.767999 5.70741 14
844 2 -16.2043 2.9337 4.69347 11
845 2 -15.926 5.21998 2.28753 13
846 2 -14.8123 2.71169 2.18641 20
847 2 -14.1747 0.662437 9.96381 13
848 2 -15.0478 2.49762 8.23033 13
849 2 -14.5277 7.09138 5.53573 14
850 2 -14.3606 8.3399 2.1527 16
851 2 -11.3431 0.805461 5.01909 23
852 2 -13.2049 3.50708 5.24033 21
853 2 -13.3007 5.77573 2.59422 22
854 2 -11.8639 2.9167 2.38565 23
855 2 -11.275 0.969674 10.6183 23
856 2 -13.3914 3.39699 10.3449 13
857 2 -13.3979 5.55334 7.76442 17