ITEM: TIMESTEP
344000
ITEM: NUMBER OF ATOMS
2000
ITEM: BOX BOUNDS pp pp pp
-30.0 30.0
-30.0 30.0
-30.0 30.0
ITEM: ATOMS id type x y z Coordination
1 2 -15.7694 -4.01124 -8.13014 7
2 1 -9.11433 -13.0652 -7.5449 14
3 2 0.423078 -10.6991 -11.2852 16
4 1 5.94272 -13.4208 11.1905 13
5 2 -7.1974 -13.2163 3.30713 14
6 1 -3.11259 -11.9094 -7.91439 20
7 1 12.2952 -8.75483 2.14903 20
8 2 -8.76247 -9.99867 -3.68154 17
9 2 8.04296 -1.41619 -12.3853 12
10 1 7.64794 -12.7387 7.92864 14
11 1 -6.52934 -14.7743 4.29106 12
12 1 5.37115 -10.1776 -8.15143 21
13 2 7.85284 -9.57757 8.94939 20
14 2 8.48504 -5.96842 17.3422 8
15 2 -0.303181 4.65062 -5.04893 17
16 2 -9.32347 2.40336 -15.8765 15
17 2 -6.29889 -9.49664 -11.2978 17
18 2 -3.18549 1.46613 -17.7676 11
19 2 -6.50344 -8.10087 -13.6706 14
20 2 -8.80335 2.7187 -10.8377 18
21 2 -1.23804 -1.89253 -16.6206 14
22 2 -2.7026 8.18867 -13.2039 20
23 2 10.182 3.32664 -8.0681 17
24 2 -0.838751 -4.48526 -11.1839 19
25 2 -8.97509 5.11769 -13.8017 19
26 2 7.84217 -4.0636 -12.2834 20
27 2 -10.2671 -5.33466 -6.72556 16
28 2 4.06169 -2.6486 -17.1708 11
29 2 3.05952 9.16288 -14.2667 11
30 2 -1.21175 7.2016 -15.9697 12
31 2 1.70527 12.8093 -7.06669 19
32 2 5.68046 8.66622 -15.0867 11
33 2 6.86317 5.8192 -13.2684 12
34 2 1.62119 2.66186 -16.8173 14
35 2 -3.13046 10.6234 -8.19382 19
36 1 -5.75782 -3.93099 3.10286 18
37 1 1.32474 0.0112662 -10.0015 17
38 1 -9.8781 2.64872 -1.79073 23
39 1 -11.8089 0.112312 -9.39338 15
40 1 -8.98419 0.299185 -7.42589 18
41 1 -13.3615 2.07229 -2.24822 23
42 1 -10.2788 2.86491 -9.4982 17
43 1 -12.6675 3.52978 -9.82886 10
44 1 -16.6026 2.30182 0.244174 13
45 1 -6.24907 -10.3352 -6.49499 18
46 1 -16.5892 2.78672 -3.2054 9
47 1 -10.5658 -18.1113 -6.01792 7
48 1 4.12031 -12.8357 -14.3488 8
49 1 -2.69459 -8.63334 -12.5911 14
50 1 -9.91081 -8.47333 0.816133 19
51 1 -9.58891 -7.66445 -10.7502 18
52 1 -4.49735 -15.2677 1.65971 14
53 1 -17.4336 -3.85084 -0.348688 10
54 1 -5.33892 -3.33078 -5.00986 21
55 1 0.54027 2.4423 -11.7298 17
56 1 -12.1683 1.10187 -12.4288 15
57 1 -9.76062 8.60258 6.77989 20
58 1 -4.76645 1.47042 -10.3806 14
59 1 -17.5093 3.0265 3.01093 11
60 1 -13.489 -2.61801 -9.06925 14
61 1 -7.38658 -3.6206 0.331323 16
62 1 -11.6824 -7.43089 -2.86191 17
63 1 -6.78425 -13.2277 -0.710329 16
64 1 -5.01637 -7.24841 -14.2283 16
65 1 -9.62509 -5.53953 -8.541 20
66 1 -4.12882 -4.60891 -2.11237 18
67 1 -9.5724 7.13824 -11.664 16
68 1 2.15735 -3.68647 -10.2566 22
69 1 -9.32285 -12.4527 -12.724 5
70 1 -7.99484 -9.60697 -13.7563 11
71 1 -12.0186 -12.4626 -6.81996 12
72 1 -13.9714 -0.263016 -14.9586 8
73 1 -9.12015 -8.9448 -2.06212 21
74 1 -13.2274 -18.5534 -7.24187 4
75 1 -10.6815 -9.66199 -8.06446 16
76 1 -6.33822 -1.64164 -15.485 19
77 1 -11.5419 -1.36217 -16.0755 11
78 1 -6.58938 -4.63361 -15.7946 13
79 1 -6.52287 2.73474 -7.63935 18
80 1 -6.02096 -11.0389 -12.3009 12
81 1 -1.78359 -5.99986 -14.8429 13
82 1 0.636972 6.84847 -16.1159 15
83 1 -12.5067 -3.99399 -0.466466 14
84 1 -6.43381 -5.53169 -6.32946 21
85 1 -8.87432 -12.2252 3.00718 13
86 1 -7.73198 3.42853 6.09384 18
87 1 4.45495 -16.7904 -8.43249 14
88 1 -5.70122 -16.5379 -4.52605 12
89 1 -9.88539 -5.98766 -4.95276 21
90 1 -6.11205 -13.0227 -6.13668 18
91 1 -14.9333 -11.8623 2.67446 13
92 1 -12.0926 -10.1839 -1.11665 18
93 1 -5.32943 0.222757 -17.9258 15
94 1 -11.2973 -7.54935 -13.4637 10
95 1 -9.11198 -2.47284 -15.0396 18
96 1 -7.93253 -1.1688 -12.6981 12
97 1 -1.38415 -12.7635 -1.83883 20
98 1 -7.95617 -16.2991 -6.72725 11
99 1 -8.49386 -16.6562 -4.00559 12
100 1 -8.66968 -6.6709 -13.4591 15
101 1 -7.66196 -9.06832 15.2706 7
102 1 -4.71042 -8.88197 3.97104 19
103 1 -6.29052 -1.56858 -1.65883 18
104 1 -9.35015 8.79264 -8.61831 18
105 1 -6.44282 3.40826 -18.9987 10
106 1 -9.05693 -4.20547 -12.2009 23
107 1 -10.0347 3.37798 -12.4304 18
108 1 -8.69774 0.730399 -16.5564 15
109 1 2.87031 -4.12045 -17.0575 12
110 1 2.08147 -2.25357 -0.684226 21
111 1 -3.7651 -5.96595 -10.9573 20
112 1 -11.4731 6.13345 -8.32423 11
113 1 -3.14884 -8.87685 -5.87189 12
114 1 -1.41086 -3.75899 -1.00071 16
115 1 -13.3863 1.41908 -17.512 6
116 1 8.22964 -9.21939 -7.27107 18
117 1 3.24296 -17.3644 -10.824 8
118 1 2.97767 -17.9276 -5.33109 12
119 1 -2.33926 -14.773 -10.5393 14
120 1 -0.795373 -15.4458 0.29331 14
121 1 -7.56039 -11.5094 -3.27409 19
122 1 -4.02051 -15.2748 -7.65488 13
123 1 -3.82442 -11.3353 -0.716361 15
124 1 2.62198 -12.7576 -8.85116 20
125 1 3.9978 -1.33936 -10.4148 17
126 1 -3.43956 -12.045 -11.0771 14
127 1 -0.351157 -12.0616 -5.51273 17
128 1 5.30323 -12.5099 -11.6722 16
129 1 -5.28208 -8.5618 -9.41715 17
130 1 -0.123203 -12.468 -10.5492 16
131 1 0.940312 -1.91534 -4.25905 16
132 1 0.44223 -6.49189 -9.12143 18
133 1 -1.85006 -8.98893 -2.62865 17
134 1 1.89446 -15.0774 -4.86265 22
135 1 -7.30855 -10.1558 2.83104 20
136 1 0.36756 -4.21251 -14.515 17
137 1 -4.32343 -6.54918 -4.2729 18
138 1 4.18596 -15.3611 -12.1233 12
139 1 -1.33563 -0.884231 -8.63155 16
140 1 -1.83701 7.28066 -7.50583 20
141 1 -0.36109 -6.03138 -12.0834 19
142 1 -10.1455 -1.38016 -11.869 22
143 1 -7.89033 2.60454 -5.04451 18
144 1 -3.19833 -4.65374 -6.90319 14
145 1 10.873 -0.507254 -3.725 17
146 1 2.23768 -1.69815 -7.59451 19
147 1 -9.22597 -13.8991 -5.05078 15
148 2 -5.49426 -7.42308 15.4512 15
149 2 -11.0646 -6.51081 -9.99546 17
150 2 -8.56175 11.0196 -11.3109 11
151 2 -0.207417 4.23184 -8.83359 18
152 2 -10.1438 0.0767013 -1.04513 18
153 2 -13.5903 4.81608 -4.9853 13
154 2 -15.4671 -5.63455 3.0537 15
155 2 -9.89586 -0.901396 -16.8663 11
156 2 -13.7974 4.32813 -11.1169 7
157 2 -3.1409 -8.8359 7.01885 18
158 2 -11.0016 -2.91081 -15.3447 14
159 2 -9.61251 -8.4592 -13.3612 11
160 2 -1.31928 -11.8375 2.66225 19
161 2 1.68425 -1.40268 1.14375 17
162 2 -12.6165 -13.8142 -8.16203 8
163 2 -10.5103 -12.8065 -11.4824 4
164 2 -12.2813 -7.44251 14.6489 5
165 2 -11.916 2.65799 -16.6556 11
166 2 -11.8684 -0.465987 -11.2107 17
167 2 -13.8375 -1.36707 -4.66962 15
168 2 -13.61 8.29984 -0.191348 13
169 2 -5.36952 -6.85532 -10.574 20
170 2 -12.1368 -3.41941 -12.122 15
171 2 -11.9719 6.96105 -6.66009 13
172 2 -10.1462 -3.29256 -10.6789 21
173 2 -7.6588 -6.13204 -7.8666 19
174 2 -10.0015 -7.3414 -1.30639 18
175 2 -12.5221 2.56485 -4.13839 18
176 2 -14.5664 10.2759 1.75998 10
177 2 -16.337 -4.2352 -1.85248 13
178 2 -12.1799 -3.37763 -5.17664 14
179 2 -13.8203 -1.16243 -13.3666 10
180 2 -4.53047 -13.0177 -7.4514 16
181 2 -12.5987 -7.94598 -12.1099 7
182 2 -9.14228 -17.3155 -5.54847 10
183 2 -1.74448 -13.2362 -11.7586 11
184 2 -11.0514 -5.55945 -3.50707 19
185 2 -7.3184 -7.92406 -1.43604 18
186 2 -10.3574 -5.6997 -13.276 17
187 2 -7.80849 -11.4948 -13.3412 8
188 2 -15.6739 -3.53372 -5.12805 12
189 2 -7.04479 7.08739 -16.0388 12
190 2 2.49379 -15.7401 -10.8406 11
191 2 -5.16413 -9.33046 0.202427 16
192 2 -12.6014 -7.83608 5.09132 17
193 2 -11.7682 -3.46994 -8.11005 17
194 2 -14.344 -9.57727 -4.58492 10
195 2 -8.87508 -1.44532 -7.15576 20
196 2 -3.87988 4.84341 -12.7661 16
197 2 -4.20603 -4.05991 -10.7458 17
198 2 -2.12633 -7.02181 -11.5098 19
199 2 -4.95536 1.82715 -3.31654 18
200 2 -7.99496 -5.7364 -15.1025 14
201 2 -10.5446 8.71343 -11.9568 11
202 2 -4.21592 -0.796012 -1.6859 14
203 2 -6.34771 -4.72535 1.48837 16
204 2 -10.2475 -12.4622 -5.41261 14
205 2 -5.61358 -1.42032 -5.98353 18
206 2 -2.1444 -4.99763 -8.33373 16
207 2 -11.3908 -18.8937 -7.25907 4
208 2 -4.43668 -15.5158 -0.151941 15
209 2 -10.2975 -9.72947 -0.75077 16
210 2 0.0475447 -12.9613 9.90133 16
211 2 4.46268 -14.4993 1.49273 12
212 2 -15.5376 -8.62328 4.17392 15
213 2 -13.1673 -12.4316 1.99547 12
214 2 -12.6862 -6.50069 11.1288 11
215 2 -1.60548 -17.2365 -4.35915 12
216 2 -3.60213 0.612888 -14.7623 16
217 2 -10.0474 0.426912 -8.91768 14
218 2 -10.7698 1.84167 -13.2136 15
219 2 6.90485 -4.16938 -8.10464 23
220 2 -2.83908 -3.12208 -5.84094 14
221 2 -5.1635 -6.22209 -2.60405 16
222 2 2.15304 -3.09221 -5.97759 18
223 2 -2.46556 -7.63843 -4.08138 13
224 2 -2.37104 -10.9728 5.14144 22
225 2 0.134058 -3.56232 -3.65342 15
226 2 -7.45623 -14.8871 -1.22895 12
227 2 -0.90143 -2.05387 -13.0216 15
228 2 -8.22747 -6.10807 -11.4388 21
229 2 -8.14584 2.64325 -18.4176 10
230 2 -13.0272 3.00996 -0.424913 20
231 2 -5.1095 -8.38535 -4.97738 16
232 2 -5.50099 3.16676 -10.5488 17
233 2 4.27766 -0.72112 -4.50011 19
234 2 -7.98391 -9.172 -5.83745 20
235 2 -2.21167 -4.73416 0.405106 14
236 2 -9.96356 8.4634 -0.72478 18
237 2 -11.2172 -8.62443 -4.48954 15
238 2 -3.55066 -10.1242 -11.8243 13
239 2 -8.39999 -12.5372 -1.46626 15
240 2 2.64638 6.84152 -16.4649 11
241 2 -13.8389 -16.8247 -7.72995 5
242 2 -3.95831 -14.5201 -9.69547 13
243 2 3.72032 -7.5735 -4.69242 19
244 2 -13.0233 -0.0177935 -16.5645 8
245 2 -7.4324 -11.8783 -7.44827 19
246 2 -10.7029 -13.974 -0.373637 9
247 2 -5.41726 -15.6886 3.05853 9
248 2 -1.95824 -11.4078 -9.44086 19
249 2 4.05334 0.438653 -17.2167 13
250 2 4.34501 -4.17601 -6.97512 19
251 2 3.3387 -2.8028 -9.01161 19
252 2 -3.85806 -1.1672 -17.8024 13
253 2 1.70648 -9.8255 1.10828 17
254 2 -3.17271 -0.695751 -4.16634 18
255 2 -8.07422 -3.71654 -8.80845 18
256 2 -1.57613 -8.23695 -6.68547 15
257 2 -10.4543 -12.0551 -8.55675 13
258 2 -0.818702 -4.25364 6.66346 17
259 2 -2.5959 -3.5148 -2.53017 14
260 2 -11.2855 -8.25464 2.40477 15
261 2 -0.0701734 -12.0365 -7.53853 15
262 2 -0.815127 1.37579 -16.911 15
263 2 -7.52138 -3.02681 -16.2565 15
264 2 -5.41911 -5.21872 -14.0757 20
265 2 -5.61532 -1.80485 -9.05894 17
266 2 -6.86138 0.196417 2.52105 20
267 2 -6.31507 -11.6469 -4.70054 17
268 2 1.1091 -6.60767 -11.0494 19
269 2 -8.42122 -7.29346 5.10303 15
270 2 -14.0169 -5.49554 -0.192944 15
271 2 -5.61858 -4.93962 5.04313 14
272 2 6.40764 -9.17002 -9.47261 22
273 1 -7.24628 -6.0454 -2.43861 18
274 1 -11.8022 -4.31221 -10.6345 17
275 1 -2.93095 -1.30467 16.2381 12
276 1 -14.9468 -9.214 -2.61056 14
277 1 -12.4055 -10.11 -4.81436 12
278 1 -12.1517 -1.30906 -5.54174 18
279 1 -15.8658 -7.89687 -5.45335 7
280 1 -18.802 0.765401 5.80483 7
281 1 -14.8604 -5.72195 -8.33959 10
282 1 -5.03788 -14.5789 7.41691 11
283 1 -1.42646 -9.76658 8.26406 18
284 1 -14.3802 -2.40983 4.9818 21
285 1 -6.8556 -9.09279 11.23 14
286 1 -13.8005 -15.1822 -7.78773 5
287 1 -12.2513 -6.44342 1.83911 19
288 1 -15.4639 4.89848 2.20073 12
289 1 -12.3977 -7.56315 9.20183 13
290 1 1.06673 -14.2461 9.10979 12
291 1 1.209 2.48098 13.0338 19
292 1 -14.38 -7.76621 5.84838 17
293 1 -14.0712 -7.29578 -0.41311 15
294 1 -16.4741 -3.00081 -3.1431 11
295 1 -11.3756 0.277445 -2.74174 22
296 1 -6.55287 -6.7627 2.32341 18
297 1 -16.7953 -1.97062 6.55775 16
298 1 -7.68856 10.8003 -2.56428 21
299 1 -11.9545 -6.06108 5.00568 17
300 1 -7.08273 -7.12754 9.24294 21
301 1 -16.6819 -5.91639 -2.74262 10
302 1 -15.4396 4.62403 -1.3859 13
303 1 -11.3173 0.308048 9.04468 23
304 1 -5.28482 -12.1504 10.257 13
305 1 -4.44726 -11.1627 -3.61686 16
306 1 -3.58352 -11.9872 6.59629 21
307 1 -3.37199 -13.1967 12.121 12
308 1 -5.03093 -9.31114 7.14436 20
309 1 -15.1482 -5.93683 7.94872 11
310 1 -9.8034 -9.84631 -5.33861 21
311 1 -9.44919 -11.5777 0.0130584 18
312 1 -9.63057 -5.57326 -0.889405 17
313 1 -13.635 -4.8462 10.3413 13
314 1 -12.1252 -13.2209 0.524021 10
315 1 -6.83679 -2.53621 -7.38217 18
316 1 -8.25801 -10.0673 8.75557 15
317 1 -12.738 -6.69448 -10.5685 10
318 1 -5.36653 2.70832 12.4204 19
319 1 -12.1488 4.43263 4.43251 19
320 1 -11.252 -3.59217 -3.61961 19
321 1 -15.8092 -1.05571 1.69857 15
322 1 -6.54761 2.90494 -2.28748 20
323 1 -8.22799 1.96682 8.87905 20
324 1 -6.85299 -6.10858 5.85958 17
325 1 -13.5192 -11.1191 6.03268 11
326 1 -15.1117 -4.69545 1.25253 18
327 1 -12.9372 0.303819 6.33315 20
328 1 -3.06526 -4.68318 14.046 20
329 1 -8.15341 -1.15266 8.70398 19
330 1 -0.820512 1.32285 12.1597 16
331 1 -14.6128 -12.1612 -0.158292 9
332 1 -5.92735 -15.9821 -1.48557 13
333 1 -4.61029 -9.98888 12.7218 18
334 1 -3.33949 -14.4945 -1.43588 16
335 1 -16.7646 -9.92803 4.68773 7
336 1 -4.09899 -6.18293 11.6096 19
337 1 7.59379 -5.47053 15.5569 10
338 1 -7.69597 -13.2169 7.61617 10
339 1 -5.51204 -7.49985 -0.971937 17
340 1 0.00179982 -13.9052 -7.95984 17
341 1 -3.01446 -14.7503 3.92351 14
342 1 -6.65546 -12.0178 5.13841 19
343 1 -9.4981 -7.22087 3.52029 18
344 1 8.81911 -9.48769 14.5733 10
345 1 -3.76644 -3.04033 9.83611 21
346 1 -0.973307 -13.5204 13.8476 9
347 1 -13.626 0.258538 2.40513 17
348 1 -4.01331 -9.01458 10.1285 19
349 1 -0.00605165 -10.4097 12.7411 13
350 1 -10.7869 -7.76399 15.5629 7
351 1 -6.96851 5.65977 -0.953045 18
352 1 -5.9032 -0.0298399 -4.30789 21
353 1 -1.55777 -9.3529 5.78563 20
354 1 -5.76628 1.60358 1.68025 16
355 1 -7.63053 -1.61664 1.66091 18
356 1 -11.8541 -4.84881 7.95744 17
357 1 -8.42192 -2.67925 11.2904 16
358 1 1.29883 -12.9597 11.4884 17
359 1 -10.8051 -2.52436 6.03911 17
360 1 3.56388 3.86581 11.594 16
361 1 -5.60821 6.30998 15.5772 11
362 1 -4.86758 2.95966 4.00006 17
363 1 -9.40512 -14.3584 -1.72198 11
364 1 -3.33595 -8.73424 0.431898 15
365 1 -1.71421 -14.3506 7.24304 17
366 1 -0.649006 -15.7041 3.84731 10
367 1 -5.10169 -5.74019 8.94645 17
368 1 4.95867 -9.71616 17.771 7
369 1 -9.05491 -7.13082 6.97211 17
370 1 3.46693 -2.88102 11.5407 14
371 1 3.62445 -15.256 11.0904 10
372 1 2.00071 -7.95917 5.08737 17
373 1 1.53823 -7.11585 -1.84092 19
374 1 2.06496 -5.08516 3.53048 19
375 1 -1.92883 -12.54 9.71502 15
376 1 0.583905 1.8669 2.44774 19
377 1 1.63867 -6.07524 10.7774 17
378 1 -3.89172 -8.2035 15.7302 14
379 1 -9.1883 -10.4979 5.99179 14
380 1 -8.54067 -4.86522 8.60887 17
381 1 2.60735 -9.89968 10.7975 18
382 1 -11.4274 -8.85965 6.33347 16
383 1 2.23483 -8.35167 15.8535 10
384 1 -2.25777 -1.08842 7.18414 19
385 1 6.67614 4.54302 1.74458 15
386 1 -0.689938 -5.79406 5.51459 17
387 1 -2.56887 -2.85261 3.4026 17
388 1 -2.34623 -2.17008 12.9371 22
389 1 -10.2686 -4.23271 2.70456 16
390 1 -4.13126 -3.76953 6.49694 17
391 1 -8.1896 0.213653 -1.06917 18
392 1 4.54015 2.94541 14.3379 16
393 1 -2.48331 3.24436 13.8078 19
394 1 -2.96634 -11.228 14.6638 9
395 1 -12.0934 5.61541 9.62336 12
396 2 -15.6954 -6.28067 6.12309 11
397 2 -11.0369 -0.298592 -4.37332 19
398 2 -9.97044 1.83685 10.2844 20
399 2 -6.86305 4.54072 -8.28554 20
400 2 -15.3235 -9.95766 -0.90182 11
401 2 -17.8105 1.66803 1.6298 10
402 2 -7.29136 3.64618 7.8721 19
403 2 -17.9549 -1.15877 3.56775 11
404 2 -12.8424 -11.9149 -0.685842 13
405 2 -11.4091 6.13535 -12.5627 13
406 2 -16.391 -7.87361 -3.30104 9
407 2 -4.07734 -13.4521 2.83521 18
408 2 -9.55304 -8.92011 7.13796 17
409 2 -5.50027 -7.09727 3.84924 17
410 2 -6.37638 -12.8375 8.78806 12
411 2 -12.9509 -0.851739 -8.50954 9
412 2 -15.5605 3.32276 3.46744 16
413 2 -11.9507 -3.63971 3.26202 17
414 2 -10.0084 -6.40574 12.5546 13
415 2 -13.5608 -1.8076 6.5426 18
416 2 -12.0126 -0.643461 13.449 10
417 2 -6.68643 -9.0766 -7.9055 16
418 2 -4.97379 6.44728 -3.63274 20
419 2 -9.42721 -8.73735 -8.83804 15
420 2 -7.8651 -4.52799 -1.37812 18
421 2 -1.6648 -14.2547 12.1561 11
422 2 -2.92642 -13.0759 0.00651442 18
423 2 -8.88577 -14.833 -6.72463 13
424 2 -11.7924 -10.3407 4.76808 15
425 2 -3.92536 -0.152821 7.1771 17
426 2 -9.35886 -15.146 -3.37956 12
427 2 0.263403 -6.24593 12.4234 18
428 2 -12.4808 1.5365 7.86035 21
429 2 -8.06178 -2.15048 16.9251 9
430 2 -8.03804 -4.99998 10.5859 17
431 2 3.93381 -8.53007 16.6918 10
432 2 -6.9927 0.781856 17.997 10
433 2 -11.223 -5.00435 0.828022 16
434 2 -12.5286 -3.73056 9.6327 18
435 2 -12.7043 -2.89983 -2.23544 17
436 2 -10.8819 -5.98948 3.5037 14
437 2 -12.3681 2.88427 2.97951 18
438 2 -10.5214 -6.51195 8.95009 19
439 2 -8.92163 -7.91448 15.8537 8
440 2 -8.19637 -6.41829 -4.12859 25
441 2 -7.72996 6.32026 9.66038 18
442 2 -12.3541 -1.05147 9.88488 21
443 2 -3.65303 -14.1945 6.25516 17
444 2 -5.50311 -10.2498 10.6354 19
445 2 0.97226 -14.2222 0.673815 16
446 2 -15.9218 -11.2776 1.39672 10
447 2 -15.0289 -11.1865 4.6663 11
448 2 -3.08521 -9.39826 2.08667 16
449 2 -1.32208 -15.276 8.84552 10
450 2 -6.29959 -13.6249 6.11469 13
451 2 -8.52906 -10.8162 4.21523 17
452 2 -9.56899 -2.26943 4.78167 14
453 2 -3.81997 -7.04294 9.8628 21
454 2 -9.41749 0.50316 8.15875 22
455 2 0.564172 -9.61538 7.42574 20
456 2 -13.2193 -9.56757 7.08181 11
457 2 -6.47257 -9.29277 13.2751 14
458 2 -8.8688 8.17868 11.3614 12
459 2 -3.64647 -13.1901 10.1239 16
460 2 4.77404 -16.1933 9.9053 8
461 2 -13.3959 0.859185 4.55275 19
462 2 -8.16058 10.6576 -0.560619 16
463 2 0.992729 -0.628213 -5.48204 20
464 2 0.320842 -4.39812 15.1659 14
465 2 -13.3477 -6.51289 7.96363 15
466 2 -13.1645 0.10584 -2.06204 16
467 2 -4.3955 -1.06381 9.82371 16
468 2 -5.15014 -4.26939 10.2143 19
469 2 -1.03985 13.1336 11.4271 14
470 2 -0.609351 3.23556 17.9061 9
471 2 -7.81361 3.41685 15.5232 12
472 2 1.90058 -13.1608 7.25255 14
473 2 -6.17429 -15.176 -5.70435 16
474 2 6.05032 -9.8959 -3.72239 17
475 2 7.93995 -9.65165 5.07871 17
476 2 -2.52088 -6.48475 15.4574 13
477 2 -3.98649 -8.14667 12.4484 20
478 2 -3.87698 -12.705 -2.51247 17
479 2 4.31793 -11.2441 0.865352 14
480 2 5.53401 -2.31112 10.8615 16
481 2 -8.14251 -7.79678 1.88823 18
482 2 1.66795 -0.241929 6.68933 15
483 2 9.73511 -12.5195 4.66816 16
484 2 -1.33562 -7.94488 9.08818 18
485 2 -1.79195 4.69614 15.363 17
486 2 -0.157262 -7.7223 5.50847 19
487 2 1.14072 -6.93763 15.7502 11
488 2 4.03237 -10.5369 7.20573 20
489 2 -5.93397 -8.26467 8.53136 19
490 2 -4.80473 -4.89269 14.1144 20
491 2 -5.42117 -10.9869 6.11172 21
492 2 -2.95248 -7.6825 4.4285 17
493 2 1.93714 1.26059 8.73553 17
494 2 -4.0128 -2.42074 -13.088 16
495 2 5.22386 8.467 12.3871 16
496 2 10.2431 1.79049 9.78203 17
497 2 -4.03168 -1.59688 13.3565 18
498 2 -8.39626 -8.32909 10.0021 15
499 2 3.34645 -7.51099 12.3277 15
500 2 8.28716 5.17804 5.47567 13
501 2 4.28379 2.69256 16.0651 11
502 2 -0.447705 -8.69587 11.9925 16
503 1 -13.8694 4.55259 -12.9083 9
504 1 -9.87349 3.27497 -17.5177 12
505 1 -7.15757 15.6929 9.52967 6
506 1 -14.8213 5.79002 -3.88981 12
507 1 -13.8921 -3.05044 -4.3903 16
508 1 -16.2178 -9.55327 0.705106 9
509 1 -8.32874 13.5888 -4.06008 17
510 1 -5.60434 0.0945393 -7.62538 19
511 1 -9.91105 -1.16773 2.69884 19
512 1 -8.90057 -3.11872 -5.77696 25
513 1 -8.53572 -1.85694 -17.689 11
514 1 -12.1066 7.74824 -12.9964 7
515 1 -9.38535 7.1091 -5.9604 18
516 1 -7.15991 3.90598 -11.5413 18
517 1 -14.1736 2.80733 0.913283 19
518 1 0.375288 8.50726 -10.9725 18
519 1 -13.063 -2.32228 2.40577 15
520 1 -5.89165 13.9824 -2.16288 21
521 1 -11.2812 2.76136 -14.938 16
522 1 -12.0393 4.28354 -1.53864 20
523 1 -4.01794 -2.65574 -9.81605 18
524 1 -15.1287 -0.0701671 -3.83099 15
525 1 -14.5147 10.1794 6.1953 7
526 1 2.11555 20.7856 -3.30541 8
527 1 -10.0857 10.5993 -0.782965 18
528 1 -11.813 14.2478 3.28836 12
529 1 -2.77081 1.48111 -7.83331 19
530 1 -3.68205 1.8712 -19.7812 6
531 1 -11.2836 10.0929 -6.89042 15
532 1 -7.41532 16.9945 -1.85391 16
533 1 1.19456 3.02481 -4.47715 15
534 1 -12.4445 7.53084 -4.66668 15
535 1 -11.738 4.60645 -4.77026 16
536 1 -11.2595 13.6229 -5.9042 8
537 1 -0.826161 -4.76984 1.97482 18
538 1 -9.62305 5.83153 0.154764 20
539 1 -13.7404 4.83772 6.71456 17
540 1 -8.8898 9.83593 -12.7086 13
541 1 -4.16447 9.49553 -12.8048 19
542 1 -10.2097 7.97935 -2.71959 16
543 1 -13.9125 9.28054 -1.64104 13
544 1 -2.30374 16.0955 -5.57379 15
545 1 -12.3383 7.027 -0.923639 15
546 1 -10.3751 9.02756 11.0233 9
547 1 -4.044 -0.455471 -13.3065 15
548 1 -12.9097 9.2282 1.60328 15
549 1 -9.97071 16.218 -3.59463 13
550 1 -13.4668 16.9924 2.32315 6
551 1 3.9649 5.64799 -16.8507 13
552 1 -1.94818 -7.43406 -8.60064 17
553 1 -11.3075 -4.08042 -13.822 15
554 1 -8.01658 -3.2728 -2.76004 18
555 1 -4.55082 3.3119 -13.898 16
556 1 -8.11404 3.27308 -14.3651 16
557 1 -3.03341 7.54359 -15.7761 15
558 1 -4.64008 3.16105 -5.33565 22
559 1 -3.81874 1.03694 -1.18898 18
560 1 -6.60102 5.65393 -4.64077 19
561 1 -1.44045 -3.82704 -4.51313 18
562 1 -11.7279 0.211774 0.129415 19
563 1 -8.35569 0.825294 -10.0526 20
564 1 5.61341 -0.119777 -5.90005 15
565 1 -10.8798 5.19094 -14.2954 15
566 1 -10.0009 11.1569 -4.42453 19
567 1 -6.52631 8.42785 -8.20664 21
568 1 -2.82781 12.4761 -8.05207 21
569 1 -5.0249 11.2914 -0.786045 19
570 1 -3.62956 6.24719 -5.11414 21
571 1 -5.17182 8.46491 0.67065 15
572 1 -5.49359 12.2113 -7.97322 16
573 1 -6.99513 11.1275 -10.4949 13
574 1 -4.03395 9.55043 -6.76438 20
575 1 -3.62858 16.7639 -2.91198 20
576 1 -3.22788 9.28412 -3.6019 20
577 1 2.72714 14.5542 -9.35837 13
578 1 -6.98118 -2.25727 -10.3445 19
579 1 -1.95742 4.84454 -8.93002 15
580 1 -3.76346 3.97447 -10.976 16
581 1 0.342098 6.36555 -5.7365 17
582 1 -7.67063 6.59381 -14.0147 18
583 1 -9.79512 -2.68672 -8.7151 20
584 1 -2.05728 -2.90916 -11.5711 18
585 1 -6.46084 6.96914 -11.4818 17
586 1 -0.0813597 6.43439 4.35887 18
587 1 -6.46574 6.11225 -6.93658 17
588 1 -2.42083 0.989143 -4.87207 17
589 1 -4.67683 4.2022 0.826084 17
590 1 -1.24767 13.0197 -10.2694 18
591 1 1.34164 9.9038 -14.1252 10
592 1 -10.2622 10.9018 -10.4017 9
593 1 -5.71166 5.96509 -16.8102 11
594 1 -4.55834 4.98669 -8.04359 22
595 1 -6.75334 16.32 -4.53391 13
596 1 -7.75252 11.6781 -14.9883 6
597 1 1.56926 15.3383 9.7676 12
598 1 -11.6844 12.8724 0.195221 16
599 1 -3.02376 20.7321 -2.58273 8
600 1 -2.57594 12.0011 -2.64073 18
601 1 -4.03143 11.0551 -15.3219 11
602 1 0.89619 2.79262 -8.75707 16
603 1 -4.912 13.953 -10.6526 10
604 1 -1.93536 -0.101725 -17.7615 13
605 1 -8.08589 10.8663 -6.92274 15
606 1 11.2843 14.7947 -6.54727 7
607 1 -8.90202 14.7765 -0.319163 14
608 1 -4.37716 4.6435 -2.48273 19
609 2 -9.61113 5.67666 1.77378 16
610 2 -9.53849 5.21087 -17.2242 14
611 2 -6.80641 1.15151 -8.6922 19
612 2 -12.9424 -8.49628 -1.78302 17
613 2 -11.4636 2.64828 -11.2071 16
614 2 -16.1422 -3.28821 5.55603 13
615 2 -11.0912 4.29385 -8.3414 10
616 2 -5.97804 13.8404 5.6207 11
617 2 -14.0305 -2.86412 1.06792 20
618 2 -10.1509 9.66112 -3.1633 21
619 2 -10.8826 9.80997 -9.18979 14
620 2 -6.92365 -3.46884 -12.0098 23
621 2 -11.4552 5.50825 -0.139543 18
622 2 -4.27648 3.47009 6.2118 18
623 2 -12.8078 10.5934 6.86734 12
624 2 0.100998 -6.20731 -14.4006 16
625 2 -14.9314 1.12818 1.41447 18
626 2 -9.44024 0.771274 4.17324 19
627 2 -15.5968 -6.56101 -6.63847 8
628 2 -7.9967 7.96463 -12.3272 18
629 2 -14.9424 12.7462 -0.331652 11
630 2 -12.5066 3.95362 -14.1469 13
631 2 -11.4818 12.4562 -4.38736 14
632 2 -13.3628 6.31988 8.1104 12
633 2 -5.9437 7.13081 -13.6097 18
634 2 -10.3037 2.3953 0.0691984 22
635 2 -15.3899 2.5306 -1.72397 17
636 2 -12.8963 6.28163 5.50964 14
637 2 -4.00654 9.80412 -0.244197 18
638 2 -15.7649 1.7283 -4.51311 11
639 2 -13.2264 13.858 1.7953 14
640 2 -1.97634 5.45252 -7.07357 17
641 2 1.36199 3.07529 -14.2437 17
642 2 0.803873 11.5621 -13.3901 10
643 2 -3.87264 0.587022 -11.7168 15
644 2 -15.5078 -1.59868 -2.32438 12
645 2 -10.6237 15.958 -0.646746 14
646 2 -10.6526 3.88708 -2.94713 21
647 2 -5.93488 10.2658 -7.06771 16
648 2 -12.1366 3.86436 6.32872 19
649 2 -10.0797 10.4296 5.97001 17
650 2 -4.89996 8.17263 -11.434 16
651 2 -7.49773 9.95349 -9.01652 17
652 2 -9.74749 14.5044 -5.04051 12
653 2 -3.59171 5.26399 -9.67101 18
654 2 -6.0818 11.3404 -15.3105 7
655 2 -6.37916 7.74812 -0.44614 15
656 2 0.573489 9.92339 -4.68583 16
657 2 -5.79242 12.0933 0.81905 13
658 2 -13.1131 14.3465 -1.68417 14
659 2 -2.99356 11.8671 5.19525 16
660 2 -8.66012 -0.763447 10.6891 16
661 2 -12.4136 15.9649 3.26078 8
662 2 -4.0337 2.37984 0.280514 19
663 2 2.04173 17.4755 -6.73276 13
664 2 -4.93782 13.0038 -6.18403 16
665 2 -11.8484 8.39154 3.29182 17
666 2 -2.98805 4.31663 -4.13615 18
667 2 -5.75212 17.8196 -1.67573 14
668 2 0.310541 15.7677 -2.92344 17
669 2 -2.9666 1.96494 -9.48476 16
670 2 -4.55726 -5.11867 -5.63717 17
671 2 -8.78415 4.24975 -1.05003 19
672 2 2.12685 1.69023 -10.7485 21
673 2 -2.13193 -2.3577 -9.71074 17
674 2 -9.40041 -2.64898 -3.63652 19
675 2 -15.5626 6.79865 2.50313 9
676 2 -16.2669 4.70066 -3.3616 8
677 2 -9.05054 -2.79927 1.97305 16
678 2 -9.4746 6.89863 -8.5475 16
679 2 1.84266 12.0745 -1.42315 19
680 2 -2.10659 3.602 -15.2929 16
681 2 -7.75047 -6.12865 7.59088 14
682 2 -6.69293 14.5325 -3.59088 21
683 2 -9.1503 9.04501 -6.63435 18
684 2 -7.68763 6.58559 -5.93828 17
685 2 -6.10538 2.12562 -5.9499 18
686 2 -3.16523 -1.19167 3.1189 13
687 2 -11.3648 16.9681 -2.81051 8
688 2 -10.0655 13.7671 0.982955 17
689 2 -9.85867 11.3593 -6.6685 15
690 2 -10.7616 12.795 7.68145 10
691 2 -10.6202 6.26442 -3.842 19
692 2 0.0862269 4.69808 5.41736 21
693 2 -12.0733 10.9517 1.113 17
694 2 -3.42981 19.8422 -4.3467 9
695 2 -3.39148 5.02948 -0.897009 17
696 2 -5.61806 1.7213 -19.7122 8
697 2 3.95251 2.67123 -15.5307 15
698 2 -7.71545 -0.37271 -14.5219 17
699 2 1.82918 5.13744 -11.4804 18
700 2 -7.2181 -1.06166 -3.4153 18
701 2 -2.96902 15.3459 -4.06078 20
702 2 -0.229474 6.1439 -2.13996 19
703 2 9.30147 -1.21793 -7.60207 19
704 2 -7.98584 -10.9341 1.09033 18
705 2 -7.85356 6.99333 -2.15879 18
706 2 -5.55302 -3.54653 -3.16412 22
707 2 -0.313844 0.961138 -10.3502 15
708 2 -1.48506 14.9483 -9.48658 13
709 2 -6.6227 4.98439 -18.1785 9
710 2 0.612893 -0.924377 -8.25794 16
711 2 4.36986 15.653 2.15524 16
712 2 1.99266 8.37827 -1.49206 21
713 2 0.972774 7.19572 2.95726 18
714 2 -4.32898 8.78901 -15.4293 15
715 2 -1.80185 11.2482 -11.3928 20
716 2 7.21306 5.82714 10.1139 18
717 2 -4.69678 15.314 3.16079 14
718 2 -6.8674 9.42178 4.91392 15
719 2 -0.221177 6.04325 -13.5784 17
720 2 -7.96492 11.6262 -4.71848 17
721 2 3.31937 16.145 -4.74914 13
722 2 -7.28536 -0.459358 -17.8357 12
723 2 -3.74791 5.93018 -16.7301 11
724 2 -2.41731 7.5816 0.85668 19
725 2 -2.70295 17.7121 3.50809 9
726 2 -10.6082 5.7553 4.36505 16
727 2 -4.40159 9.88461 -4.91181 19
728 1 -14.0061 2.7821 4.68695 17
729 1 -12.0651 -4.52886 -6.74775 17
730 1 -12.6195 -8.85156 3.50119 19
731 1 -8.18533 -8.04453 -7.5055 19
732 1 -8.56572 9.60675 4.02661 15
733 1 -15.847 -0.472967 9.62612 12
734 1 -14.5598 2.89815 -5.22549 11
735 1 -11.4728 -12.9633 -9.79609 9
736 1 -8.97851 5.07018 3.47855 16
737 1 -14.6071 7.0694 4.1898 13
738 1 -10.0565 0.401425 11.8147 22
739 1 -13.4269 8.09274 7.65147 13
740 1 -6.52885 9.35781 6.63011 20
741 1 -14.1172 2.51699 8.73826 15
742 1 -8.29865 4.64554 14.2075 14
743 1 -7.78219 -1.36617 15.1362 16
744 1 -12.7668 10.2741 -3.93654 13
745 1 -16.2849 -4.62843 -6.4113 8
746 1 -4.48443 11.7983 11.8833 14
747 1 -10.6296 12.1467 5.72743 13
748 1 -15.9119 8.57522 1.56771 8
749 1 -12.4305 8.86609 5.1963 18
750 1 -12.392 1.30777 13.8091 7
751 1 -9.06144 15.1572 2.2692 10
752 1 -11.7553 -11.7689 3.20544 13
753 1 -7.72987 8.15053 9.29869 18
754 1 -7.06969 -6.98325 16.2769 10
755 1 2.84037 12.0292 5.39448 18
756 1 -14.1324 12.0938 1.32437 13
757 1 -0.592947 -2.75543 14.9566 17
758 1 -16.1761 -4.9108 4.83926 13
759 1 -10.9805 1.40538 3.32613 17
760 1 -8.70023 2.87356 11.2519 20
761 1 -5.98274 0.49344 5.87234 19
762 1 -13.5354 -2.04757 8.40812 22
763 1 -3.0411 12.8574 9.06694 19
764 1 -9.17648 -3.57068 16.4464 9
765 1 -8.58289 3.02654 0.740072 21
766 1 -13.4038 -1.62732 -11.8272 12
767 1 -18.5181 0.395584 2.67638 10
768 1 -2.33086 7.94606 2.68255 18
769 1 -15.5548 12.1226 -1.9426 8
770 1 -3.55718 -1.90618 -2.91277 17
771 1 -6.16205 9.04911 -15.0348 16
772 1 -1.79243 5.19645 8.36001 22
773 1 -4.21282 6.8982 7.98495 20
774 1 -3.38398 6.46843 5.11328 17
775 1 -17.0051 -3.09434 3.38905 13
776 1 2.18451 17.9052 -2.15219 17
777 1 -9.7525 -4.45208 13.1081 14
778 1 3.95819 17.8411 2.73379 10
779 1 -10.5555 11.8249 2.15916 17
780 1 -16.3863 -3.19117 9.91358 9
781 1 -6.12776 -4.53784 15.1564 13
782 1 2.98816 2.97426 1.45722 17
783 1 -9.05491 -0.493376 -3.89506 19
784 1 -10.8276 1.75702 -4.9532 14
785 1 -5.38792 -0.170424 8.36485 14
786 1 -5.3113 8.78597 3.93288 14
787 1 7.83978 5.20057 -0.983712 15
788 1 2.07514 -2.17757 6.95716 18
789 1 -12.1475 2.60903 11.4394 14
790 1 -0.814578 14.4501 1.49349 18
791 1 -7.57594 9.66949 11.823 16
792 1 -9.88596 -7.03168 10.7201 16
793 1 -2.33114 9.77793 14.5993 14
794 1 -2.76235 9.3449 9.83388 19
795 1 -8.14733 8.60716 -0.45001 16
796 1 -2.00524 6.1163 -0.360267 16
797 1 -9.24083 5.28188 -2.69328 20
798 1 -11.7985 10.9982 8.42453 13
799 1 -1.32041 6.33087 12.0879 18
800 1 -5.0923 -0.897475 3.19006 15
801 1 -15.566 0.934835 6.74803 16
802 1 -12.4264 16.213 -1.3403 10
803 1 -5.62472 6.01472 10.4498 16
804 1 -13.3457 -0.984757 11.6029 14
805 1 -3.16138 3.69599 10.8019 16
806 1 1.98584 12.9608 0.896051 18
807 1 -10.8757 6.0734 6.175 21
808 1 -5.04331 18.8639 -3.43834 12
809 1 12.1917 12.2263 -0.59266 12
810 1 -4.3655 17.1147 2.92138 10
811 1 -13.4828 -1.51575 -1.31741 17
812 1 0.657274 0.987895 -6.37648 19
813 1 -2.91882 -6.97816 7.92021 21
814 1 0.327118 -2.31413 1.95005 21
815 1 1.65112 7.70436 1.24516 19
816 1 0.869348 4.76688 9.89307 17
817 1 1.88787 2.8924 8.00001 20
818 1 5.39566 2.61489 6.41969 15
819 1 -1.10183 6.4936 15.0987 16
820 1 -7.87672 1.43851 3.56344 21
821 1 -4.65229 2.91986 15.8471 16
822 1 -0.67322 -6.27165 15.9333 13
823 1 -5.68547 16.2075 0.195913 13
824 1 8.22849 10.8341 5.04301 16
825 1 -11.4351 3.68079 0.911885 18
826 1 -14.3136 14.9783 0.459372 12
827 1 -2.66924 11.0649 0.791367 20
828 1 10.2967 6.91815 3.02534 16
829 1 -1.20464 1.90747 8.84425 19
830 1 0.372947 10.2247 1.86596 20
831 1 -4.18766 15.7115 7.61474 11
832 1 -7.71456 -2.07082 5.29425 16
833 1 6.72154 8.04694 13.3423 15
834 1 -5.66899 9.9203 15.2444 8
835 1 11.3788 10.5074 -9.20092 11
836 1 -1.12252 13.5792 9.64561 14
837 1 -5.64697 10.9402 8.72188 17
838 1 -1.33968 16.0035 7.53592 14
839 1 6.75862 13.2387 10.7343 13
840 1 -0.444316 18.0978 -3.79977 19
841 1 -10.8525 3.19513 7.55073 20
842 1 -1.73169 12.7359 6.10084 19
843 2 -7.14215 -0.939403 6.84496 14
844 2 -14.9305 -1.97365 10.5627 11
845 2 -5.42475 7.74204 6.52 17
846 2 -13.4455 -5.265 -9.57918 13
847 2 -7.28732 1.8313 12.309 16
848 2 -14.4372 -8.33063 1.20904 16
849 2 -12.5139 8.60651 -2.92173 15
850 2 -3.99187 2.29232 17.4545 12
851 2 -16.0651 -1.91312 8.23038 12
852 2 -18.2424 1.91 4.43224 8
853 2 -15.0659 0.886917 8.47511 15
854 2 -9.39158 2.50538 6.57199 20
855 2 -9.2122 -3.07372 8.9019 19
856 2 -8.50486 7.65989 4.16835 17
857 2 -16.8183 -3.63589 1.43415 11
858 2 -11.479 -4.39454 6.27291 18
859 2 -11.5114 -10.7136 -6.57452 13
860 2 -2.34219 -2.8307 15.1425 17
861 2 -12.8741 3.70548 9.82259 14
862 2 -12.5911 9.4327 -5.81668 13