ITEM: TIMESTEP
1000
ITEM: NUMBER OF ATOMS
2000
ITEM: BOX BOUNDS pp pp pp
-30.0 30.0
-30.0 30.0
-30.0 30.0
ITEM: ATOMS id type x y z Coordination
1 1 -10.8236 3.45446 -14.0364 11
2 1 -3.03534 -11.2828 -10.7983 16
3 1 5.92012 11.1374 13.1613 17
4 1 9.82213 -10.5776 5.19316 16
5 1 -11.9915 7.27215 -2.62559 18
6 1 11.4434 -7.44616 -10.1952 16
7 1 -9.54834 1.91804 -7.80346 17
8 1 -2.4807 -8.30857 11.8015 15
9 1 -7.77922 -0.309654 -12.1347 19
10 1 -14.5863 -9.4157 3.84927 11
11 1 13.377 1.64146 -10.1826 16
12 1 -3.06805 2.97453 -5.93103 18
13 1 -0.992634 -13.7124 0.0939944 19
14 1 -12.6985 -6.22454 2.93759 19
15 1 1.40804 3.18384 19.7673 8
16 1 6.33171 -3.16141 4.95215 23
17 1 1.87056 3.94132 10.3375 18
18 1 9.04175 -2.79844 1.03114 20
19 1 -1.53167 8.67802 -8.9099 18
20 1 3.94016 -4.16821 14.0347 13
21 1 -9.0991 -1.39685 -15.4708 12
22 1 -10.8821 -4.76337 11.4702 13
23 1 15.0145 5.19166 9.14946 18
24 1 2.8514 10.2748 -11.7144 20
25 1 1.41219 2.35887 -13.1433 18
26 1 16.4464 0.823343 12.4563 11
27 1 -8.30445 -1.06274 -1.4685 21
28 1 -13.5015 1.92785 -9.02962 11
29 1 -4.26363 0.44137 -8.00462 17
30 1 -9.42394 10.2991 9.8501 8
31 1 8.8225 -12.8185 3.56233 19
32 1 1.71612 -2.39949 7.4094 21
33 1 4.21493 -12.4421 -11.1488 15
34 1 11.183 -12.2022 -0.125323 17
35 1 -6.8548 -14.8063 -5.49421 12
36 1 -11.0059 -7.52666 11.3134 11
37 1 5.8871 -2.41789 -3.65963 22
38 1 1.37551 -7.99206 -12.3645 21
39 1 9.58113 -8.39784 -12.3283 17
40 1 -3.17796 2.98879 -16.171 12
41 1 1.25302 3.13136 15.5492 16
42 1 -0.326301 -13.233 5.89886 21
43 1 6.32844 -6.01794 12.4765 14
44 1 -11.6159 -1.52358 -0.237359 20
45 1 -15.0392 -2.35726 7.44765 12
46 1 -9.95659 -3.37253 -2.34137 23
47 1 -1.76336 13.9537 -1.61877 19
48 1 1.44407 -14.4936 -11.0393 14
49 1 2.51524 0.897348 -10.8733 23
50 1 6.6103 -6.75039 -12.8038 15
51 1 -1.42704 -4.81421 15.4976 8
52 1 -11.6984 4.46981 -0.345433 20
53 1 6.0306 12.1459 -12.1487 13
54 1 3.66758 12.5826 8.70501 22
55 1 -7.81363 7.55989 -6.78159 18
56 1 -1.20716 12.6066 0.931497 21
57 1 3.23613 -10.1563 4.38668 21
58 1 6.80244 -5.17988 -5.60375 20
59 1 7.65232 -5.26274 -15.7156 16
60 1 -8.53915 8.43732 12.5284 9
61 1 -13.5699 -4.8918 -8.92676 13
62 1 5.79852 2.0033 7.26764 22
63 1 -9.22301 6.72417 -4.15961 21
64 1 -7.10416 -8.643 4.26995 20
65 1 -2.50527 10.561 13.3726 10
66 1 -11.6272 4.74857 -7.92462 13
67 1 -5.66538 9.80403 12.3252 14
68 1 0.868456 6.44127 -3.34669 21
69 1 3.90614 4.26231 7.40238 23
70 1 -7.71544 -12.2402 5.87324 22
71 1 4.31578 6.37031 9.40639 24
72 1 7.88902 -16.3485 -2.61003 12
73 1 3.77284 10.8798 15.9533 11
74 1 -13.4826 -1.57352 -9.61114 18
75 1 -13.2593 1.60618 -12.5708 9
76 1 7.62904 6.01983 15.9104 20
77 1 13.0568 -3.72532 -9.18101 18
78 1 11.9035 -12.1515 3.05403 13
79 1 -15.1043 -2.15191 3.61042 12
80 1 -8.75497 -3.2045 0.547626 19
81 1 9.3251 16.6842 3.92762 11
82 1 3.95443 -4.59433 10.4595 17
83 1 -5.42816 -11.248 6.45561 16
84 1 -10.6984 -0.482119 -2.64355 18
85 1 12.8997 2.06217 8.98861 19
86 1 8.54324 -1.19622 -1.67854 20
87 1 0.374819 12.2059 9.35965 22
88 1 3.40676 0.36985 7.04125 19
89 1 -8.49062 -5.94799 -0.333029 17
90 1 -2.43318 -8.27211 -9.49642 19
91 1 -12.0275 6.45534 8.45053 10
92 1 -7.27153 14.3581 -3.29633 11
93 1 -3.81617 8.05188 -6.63602 19
94 1 3.71114 2.11261 -6.0226 22
95 1 5.47758 -0.463624 -6.33976 19
96 1 8.99738 12.4481 -6.61345 13
97 1 12.0068 -8.68263 4.67306 14
98 1 5.46263 -7.82576 9.64592 12
99 1 -4.19665 14.7376 -3.09104 14
100 1 -10.3119 12.3038 4.34193 11
101 1 -4.8341 -4.61149 15.2685 11
102 1 -2.51914 9.88171 5.61079 23
103 1 -5.12798 -3.21552 6.70253 22
104 1 12.2774 -7.84777 -3.9893 21
105 1 -8.58831 4.21157 4.87277 22
106 1 -10.7455 -14.121 1.6118 15
107 1 9.79235 -5.79127 -4.92828 22
108 1 5.28026 -0.57235 -11.453 19
109 1 -6.78349 -2.92942 -16.8262 8
110 1 5.35676 -0.265391 4.62745 22
111 1 0.34136 11.396 3.59166 21
112 1 -8.39263 4.44172 -7.07802 18
113 1 2.36533 8.65887 17.1493 13
114 1 -0.404135 12.409 -4.40749 21
115 1 -13.4983 10.8097 -0.158033 12
116 1 1.58729 9.33186 1.14599 20
117 1 -6.44872 -6.19261 7.90077 22
118 1 15.5006 -0.393202 9.59867 11
119 1 -1.02229 -6.41586 -7.79684 21
120 1 7.92866 -7.24282 -6.92358 19
121 1 -1.61283 5.17169 4.43887 21
122 1 7.2645 -3.19098 14.2572 16
123 1 -10.1837 -7.87892 -2.13266 17
124 1 7.19845 -5.44512 2.58977 20
125 1 -8.02598 -9.12225 -3.84497 20
126 1 12.5302 -9.15362 1.76939 17
127 1 -3.2728 7.87743 3.70671 19
128 1 9.33155 3.66754 -13.6175 12
129 1 7.75149 15.814 -2.31504 10
130 1 -7.00783 -12.4063 11.9376 12
131 1 -9.5933 -13.3455 9.77925 11
132 1 -2.64142 5.83408 1.82704 23
133 1 6.36256 -8.4108 -15.8403 14
134 1 5.15953 7.47364 -7.87489 19
135 1 13.646 -9.9692 -1.59457 15
136 1 -0.957897 -15.9767 7.19745 15
137 1 -6.54713 -12.2579 0.158876 18
138 1 19.1617 6.10796 10.2862 11
139 1 16.2198 -4.41187 -7.05154 13
140 1 -14.1162 -3.97021 0.526545 13
141 1 14.1792 10.7316 5.53752 17
142 1 16.7796 9.09808 4.4541 15
143 1 -6.31549 0.804703 16.9466 12
144 1 9.06838 4.95791 -0.477315 21
145 1 -2.92632 10.8487 9.97009 22
146 1 -5.39732 14.2676 -5.99001 11
147 1 -1.18993 -7.36774 -13.8228 24
148 1 9.37874 -10.5156 -10.1997 15
149 1 3.22433 13.5993 -12.7619 11
150 1 8.94323 -4.34236 11.5442 20
151 1 2.03961 -4.49034 -17.3035 16
152 1 -4.15865 8.98524 -3.49899 19
153 1 14.132 -2.52002 -6.23848 20
154 1 -10.8689 9.81154 -5.26406 18
155 1 -7.99361 11.7706 -0.982229 15
156 1 10.428 1.94763 -8.30064 22
157 1 7.30438 -10.3708 3.47198 17
158 1 -5.52868 3.27375 -8.26886 20
159 1 -4.20763 15.8263 10.2715 10
160 1 13.3799 6.79164 -7.57645 18
161 1 5.58895 10.093 -2.87557 19
162 1 -2.47281 14.9167 2.06304 14
163 1 10.8536 7.2755 -1.41783 18
164 1 -3.40222 11.484 -4.04638 20
165 1 1.54189 14.8112 -10.3245 11
166 1 2.99342 9.19069 -14.1216 13
167 1 -12.9946 -11.9107 2.70143 14
168 1 -15.122 7.20076 -1.13712 8
169 1 -3.01015 -5.05635 -12.7064 20
170 1 1.13128 -8.84038 -15.0678 23
171 1 10.614 12.6823 10.0932 13
172 1 3.72655 15.713 8.50402 12
173 1 -9.9178 -5.91608 -7.79218 20
174 1 -11.6318 12.7345 -1.16161 10
175 1 17.1227 -1.62489 -2.50794 12
176 1 -11.4048 0.77876 -14.5829 12
177 1 8.2075 0.18916 15.75 15
178 1 6.66451 14.8301 3.94223 15
179 1 -5.63767 10.9002 6.81509 18
180 1 3.31278 -10.7852 -15.7406 12
181 1 -1.60053 13.9083 10.3996 16
182 1 -2.21716 10.2802 -6.37652 23
183 1 3.0196 -6.62981 13.5692 11
184 1 -9.35525 -5.47933 3.16878 22
185 1 -1.59018 -13.2423 -12.5291 14
186 1 -7.62373 9.77878 -9.30759 13
187 1 -2.43584 -11.0136 1.78206 20
188 1 6.30413 -13.8681 -3.60843 18
189 1 -3.2456 7.06507 -10.8239 18
190 1 -15.8872 1.3016 8.60403 12
191 1 0.613056 7.88966 -0.918163 21
192 1 12.9352 7.26115 -3.7044 20
193 1 -6.98955 4.14067 16.8863 10
194 1 0.044062 -10.6118 8.093 15
195 1 -9.90667 2.0477 -1.3382 22
196 1 2.93304 13.1965 3.62531 18
197 1 0.034281 6.68634 10.3375 17
198 1 15.0167 3.74523 13.6071 13
199 1 -3.70062 13.289 5.403 17
200 1 14.5118 -6.32717 -10.2695 9
201 1 -5.09268 13.589 11.4541 11
202 1 -6.74805 -1.35536 -9.13152 23
203 1 13.0259 -6.12609 3.19155 19
204 1 -4.37008 -6.55497 5.67826 19
205 1 -14.5357 -0.253305 6.02143 17
206 1 -8.48008 -10.8046 2.33217 19
207 1 8.72424 9.03338 17.1429 9
208 1 -14.4587 -0.141333 -3.99397 14
209 1 -2.1163 -15.7469 -1.91903 14
210 1 -6.47476 -3.84449 -1.36683 22
211 1 5.72703 -8.36811 -4.81616 20
212 1 -3.11633 11.0924 3.21159 21
213 1 -6.25791 -0.0295985 2.07439 25
214 1 6.81899 12.528 10.3836 18
215 1 -4.58375 -3.00665 -3.13362 20
216 1 -6.55448 12.3314 -8.7798 12
217 1 -12.6039 -6.79072 -6.48589 17
218 1 -7.15104 -1.81262 11.8096 19
219 1 0.0560796 -10.6327 3.82129 19
220 1 4.46048 -14.8395 6.10964 14
221 1 -11.5215 9.89103 2.89691 14
222 1 15.5731 4.67265 4.71833 14
223 1 7.63754 3.55792 -2.74276 20
224 1 -5.97707 -8.77373 -14.3861 14
225 1 8.3717 1.85421 8.17101 19
226 1 7.86009 -15.4558 5.19711 11
227 1 -0.677807 6.72224 -12.1967 15
228 1 4.9259 -9.98114 -13.1437 18
229 1 9.58147 1.18508 -15.4425 11
230 1 4.62606 6.7854 -15.615 12
231 1 -6.11739 -4.64205 -8.44234 20
232 1 -2.15146 13.7224 -6.29116 16
233 1 -9.81916 -10.5351 10.4135 16
234 1 7.68896 12.8507 -1.20348 20
235 1 -7.80276 2.42727 14.6413 17
236 1 -5.09196 13.4439 -1.13575 19
237 1 7.23146 -0.899066 6.88917 22
238 1 -4.1605 -6.95695 -15.3068 16
239 1 -5.46436 10.4369 -6.37869 23
240 1 2.12428 5.98935 -8.19243 23
241 1 -10.6137 -11.2724 4.48246 19
242 1 -5.91547 5.64358 9.52463 18
243 1 -5.09304 7.84753 6.247 22
244 1 2.26182 -12.148 -7.22291 23
245 1 -4.9356 -16.5686 -0.510216 12
246 1 12.594 -13.7975 -1.84574 9
247 1 5.5033 -7.05365 -1.337 17
248 1 13.3703 6.42398 13.0764 16
249 1 8.09491 9.4156 -11.1839 14
250 1 0.116326 10.9467 -1.47866 23
251 1 -8.78639 1.54957 3.85693 20
252 1 -10.0347 10.2219 -2.43183 20
253 1 4.01333 3.13015 12.9983 20
254 1 5.36004 -17.9451 1.26533 12
255 1 12.9832 2.05276 -3.32159 20
256 1 3.5967 8.22053 7.54058 18
257 1 -10.8902 6.09594 5.54216 17
258 1 -10.2268 -8.80919 -5.56054 19
259 1 4.79266 2.35308 -13.1383 19
260 1 6.03557 0.155022 9.27034 22
261 1 8.00585 10.4848 -8.09164 22
262 1 3.59931 -11.337 -4.18183 22
263 1 1.06995 -3.73715 -8.81937 19
264 1 0.240246 -19.0123 5.42386 8
265 1 8.58 -0.637795 -6.29454 20
266 1 -10.2927 -3.9209 5.49847 21
267 1 3.93521 -16.0065 -3.1735 14
268 1 -8.74341 -6.17778 -10.2265 21
269 1 4.8163 13.5834 -2.08902 21
270 1 2.90081 -3.22289 -14.3818 22
271 1 6.99194 2.99328 17.9198 12
272 1 14.9732 4.30154 -0.527439 17
273 1 -2.85194 -5.74158 1.62205 23
274 1 10.5512 -3.27806 -9.53271 15
275 1 -1.66815 -8.37069 1.87278 20
276 1 -5.81622 -5.80938 -12.7194 19
277 1 -9.94498 -0.783392 -9.81115 22
278 1 -7.16276 -14.5586 8.28212 17
279 1 10.962 0.392566 11.2346 19
280 1 4.50394 -3.78266 7.29843 20
281 1 -3.78191 -8.40781 -11.9763 24
282 1 1.94476 -5.40141 5.27953 19
283 1 -0.148335 9.09113 -13.5065 14
284 1 7.92595 6.729 1.49466 17
285 1 -8.11946 -10.4669 -1.1277 17
286 1 3.80497 9.93285 2.71973 22
287 1 -5.09295 -0.930524 9.04995 21
288 1 -9.33639 -11.9172 -10.0137 11
289 1 -3.68047 -5.32483 -9.58172 21
290 1 -0.718539 5.13747 -14.6728 18
291 1 -5.47009 -9.90535 -6.94791 20
292 1 -4.79661 -9.1096 1.1769 19
293 1 10.9076 -4.81456 -14.7738 11
294 1 15.3767 -2.05434 -9.23506 14
295 1 12.7076 2.71383 6.14982 20
296 1 0.718143 -5.47384 -3.49933 22
297 1 -8.67122 -4.65774 9.79988 19
298 1 -1.97428 -9.69761 -1.15735 21
299 1 9.45618 3.67597 16.4517 12
300 1 -6.28912 -15.8765 5.39469 16
301 1 2.78928 4.77514 -5.67344 24
302 1 0.839605 -10.6257 0.082377 18
303 1 2.26019 17.198 -1.91518 10
304 1 7.14521 0.486053 -13.9379 14
305 1 -9.25131 -5.51881 -16.3728 10
306 1 3.76562 -5.63865 1.19308 18
307 1 -5.43608 -10.2287 14.5928 5
308 1 4.56312 6.51656 17.6829 16
309 1 5.64333 -11.8406 -1.46491 20
310 1 -1.41574 -14.8996 -9.78509 13
311 1 -9.68908 4.50417 -10.6128 17
312 1 12.1171 8.49038 5.88591 19
313 1 -5.12723 1.16037 -11.4284 18
314 1 2.07391 7.27934 -10.8475 17
315 1 -4.46639 -0.983613 4.52289 21
316 1 7.95023 -13.3492 -9.69421 13
317 1 -4.59305 16.575 0.0298424 8
318 1 4.27308 10.3777 5.98407 21
319 1 8.58188 1.28832 4.53129 21
320 1 -10.4881 -0.759617 5.20938 18
321 1 -2.47884 -5.04954 12.8459 14
322 1 -6.12266 9.62054 3.8982 17
323 1 2.22615 -5.34396 -11.4331 22
324 1 16.1515 9.4875 -3.43091 12
325 1 3.84688 -10.6396 1.57255 21
326 1 -0.976201 -2.04641 16.9619 10
327 1 -13.5952 -3.93274 4.97975 16
328 1 1.24449 -13.5777 -4.79583 20
329 1 -9.55125 5.31811 13.9819 9
330 1 -7.92645 2.83111 10.0717 19
331 1 -13.0887 -5.53198 9.23769 10
332 1 -14.6859 -8.4075 7.427 10
333 1 12.7931 -5.42484 -1.42554 20
334 1 -11.3122 -9.02853 7.23699 19
335 1 5.99804 -2.51071 -7.60226 21
336 1 12.6865 -12.259 -5.23671 12
337 1 5.11254 16.8491 -4.16434 14
338 1 -3.08945 -3.7 4.47583 21
339 1 -10.1327 12.7982 -4.46859 10
340 1 -0.0163205 0.384493 6.89702 19
341 1 13.7442 7.11945 10.452 21
342 1 -8.80105 -2.12905 3.01276 18
343 1 11.0868 -11.4508 -3.08226 20
344 1 -4.5376 8.86888 0.977736 20
345 1 -7.42048 6.49139 4.158 21
346 1 4.71559 -11.8453 6.46802 16
347 1 14.8499 -4.85128 5.01276 9
348 1 -2.88531 4.88889 10.6662 19
349 1 -2.92296 -4.56984 -5.3049 16
350 1 -2.50639 0.711126 18.0067 13
351 1 1.07659 14.6891 7.60357 21
352 1 10.682 6.96438 15.0438 14
353 1 -7.99872 12.4446 -5.87976 15
354 1 3.52164 -7.75815 -16.9324 14
355 1 -6.61561 -0.523237 -3.42898 22
356 1 8.53381 -10.3717 -14.4246 9
357 1 -9.12631 5.37812 9.07857 14
358 1 -14.7365 1.89674 2.15955 15
359 1 -3.01656 -3.27201 -7.53331 17
360 1 -2.95852 7.71059 -0.834384 24
361 1 7.07347 -4.01843 8.60401 19
362 1 -10.7495 -10.7347 0.754103 21
363 1 7.75588 -9.91704 7.49739 12
364 1 -6.24002 -9.7023 11.3437 16
365 1 -14.4734 8.11722 1.58809 11
366 1 -0.435322 -7.60598 9.3615 19
367 1 5.14145 -10.774 -6.1172 19
368 1 -5.00641 -3.08066 -10.8116 17
369 1 9.15162 -2.00664 -16.13 13
370 1 6.15795 11.9535 4.10541 21
371 1 -10.8089 -3.39605 -5.34471 19
372 1 4.60809 -7.50209 -10.8454 22
373 1 10.8876 3.6809 -10.9189 15
374 1 -3.52993 -15.8013 -6.68102 13
375 1 -13.5014 -9.64596 -5.74026 10
376 1 -1.14611 -6.44805 -0.90588 20
377 1 11.244 4.0469 13.5983 17
378 1 10.0243 2.08659 -1.79318 23
379 1 -7.69816 2.2307 -9.53441 22
380 1 5.38614 16.8648 -0.796144 12
381 1 -13.9174 -3.03025 -5.27767 14
382 1 -7.94175 7.8219 6.77903 20
383 1 -10.0255 11.4658 1.01595 19
384 1 -4.27414 4.68377 7.11573 21
385 1 8.67314 5.31274 13.1748 16
386 1 13.5462 -2.03231 -2.6167 17
387 1 9.5094 -5.25617 14.5121 9
388 1 12.8537 0.476349 -5.91471 17
389 1 -4.20786 -16.109 -3.75822 13
390 1 1.58599 2.77804 7.4879 22
391 1 -3.92964 4.70226 -1.35834 21
392 1 2.76233 -8.30674 -3.98324 20
393 1 1.08946 9.57328 6.55729 22
394 1 -8.95321 -1.04683 -6.38567 23
395 1 8.48816 -10.0348 -1.82447 19
396 1 13.6679 0.070482 7.51372 19
397 1 -8.57456 -3.32137 -7.99454 21
398 1 -5.21402 -11.8742 3.42969 23
399 1 -5.56454 -6.98765 12.8819 13
400 1 -2.9396 10.9233 -1.32762 21
401 1 -11.1643 -10.6572 -2.56201 17
402 1 7.03722 11.7193 15.4288 11
403 1 -7.68612 4.56927 -1.12894 21
404 1 1.67505 10.6485 -6.29033 20
405 1 9.09199 13.6372 4.82143 22
406 1 -13.9675 -9.80546 -2.09393 11
407 1 -2.40936 -9.66603 -6.63443 20
408 1 -12.9279 -0.141182 3.1915 21
409 1 -11.9725 7.4007 -5.4482 14
410 1 9.8091 -7.97758 3.20568 23
411 1 -3.58753 -12.4854 -1.79369 18
412 1 12.8348 12.0652 8.84015 14
413 1 5.87284 5.11274 -13.2234 18
414 1 -10.5745 1.53607 -11.0957 18
415 1 -1.86147 15.9083 -9.42754 7
416 1 -9.67055 0.931914 -4.34558 21
417 1 -1.86703 -13.7108 3.92196 20
418 1 13.7994 7.70618 3.98124 18
419 1 0.87416 7.48121 -15.8465 10
420 1 -2.96406 0.339641 7.48012 19
421 1 -14.9601 2.17745 -1.42295 13
422 1 -7.0224 4.88587 7.06116 22
423 1 -4.2347 -13.8645 5.69953 22
424 1 1.92761 -6.07253 -6.20604 21
425 1 8.01843 -8.027 -9.92078 19
426 1 -0.421389 -5.33653 7.29641 21
427 1 -12.0624 0.409678 6.86168 18
428 1 -13.5336 -0.215151 9.52781 19
429 1 -12.932 3.60206 4.50857 19
430 1 2.09582 -7.50643 8.08422 17
431 1 -7.91023 1.70806 -15.1356 13
432 1 9.26829 -8.94605 -4.84229 18
433 1 2.67698 -9.60941 -9.98795 21
434 1 -1.57398 -3.73676 10.0735 19
435 1 4.18964 -5.21282 -4.18149 24
436 1 -3.17222 0.123261 -15.76 16
437 1 7.36135 -12.4941 0.87395 19
438 1 1.59256 9.38622 -3.81419 20
439 1 -11.1326 9.45351 6.54847 13
440 1 -3.83287 -2.29324 12.5006 18
441 1 -10.2137 -9.2323 -11.4142 13
442 1 -7.61961 -4.96554 5.42622 21
443 1 9.9912 -4.97267 8.49661 17
444 1 4.78705 3.11415 -3.02953 18
445 1 -5.06638 5.3613 3.7617 24
446 1 3.18001 -0.893477 -9.0513 21
447 1 9.7787 -7.55129 6.50361 16
448 1 15.6496 6.946 -5.60356 16
449 1 -1.40766 -0.111336 12.9295 15
450 1 2.27443 12.2971 0.741969 21
451 1 7.20117 -6.10419 5.99538 18
452 1 -0.798201 -16.2952 -4.92409 11
453 1 -4.0766 6.59149 16.5653 10
454 1 0.301348 17.2277 7.02651 9
455 1 -7.7749 -11.5099 -6.52162 20
456 1 10.769 12.5849 -0.193105 19
457 1 7.55525 7.02906 10.4232 18
458 1 -5.63701 3.72554 12.6497 19
459 1 -3.0779 -7.51453 -3.30402 17
460 1 -11.0291 1.39123 10.0485 20
461 1 -7.25853 -7.44625 -6.52706 18
462 1 -4.3967 13.4997 8.03144 16
463 1 -4.2244 -12.6908 -6.29742 20
464 1 -2.86009 -9.63027 -16.5925 12
465 1 -4.03593 -14.0103 1.74589 19
466 1 -6.27214 -3.27528 3.42645 22
467 1 10.7638 -0.0500961 7.7298 19
468 1 -5.49419 -3.7997 10.0338 21
469 1 -8.55323 4.17356 -13.0039 12
470 1 8.44543 3.0726 1.41717 16
471 1 -6.32706 -14.5344 -2.09724 16
472 1 -0.0853181 5.41441 -8.82338 20
473 1 -0.0885074 15.803 0.914306 11
474 1 -3.37019 5.49918 -8.73567 21
475 1 -0.793685 9.17994 8.72125 23
476 1 -15.5158 -4.31281 -2.93993 9
477 1 2.42762 15.416 -4.43646 18
478 1 5.18909 10.8181 -6.3472 22
479 1 -6.01132 -7.52057 -9.14465 22
480 1 4.52491 0.443693 18.2332 9
481 1 3.09991 -14.794 -8.76647 13
482 1 0.0752978 -4.0121 -13.1863 20
483 1 10.3595 -15.2791 2.80821 10
484 1 -9.43688 8.89998 3.93706 21
485 1 4.85364 4.8521 15.0429 15
486 1 9.41066 6.62837 -3.94696 21
487 1 4.77575 8.0059 0.234897 18
488 1 -8.80551 7.32429 -10.299 12
489 1 2.18147 2.75922 -8.55291 24
490 1 1.67444 -8.48453 2.11559 19
491 1 -13.557 -6.47008 -1.62426 15
492 1 6.91434 16.2632 6.72214 12
493 1 -6.07649 4.77398 -11.138 17
494 1 11.7507 5.37889 1.12607 22
495 1 6.51385 13.3902 -7.95775 17
496 1 8.27044 -7.39495 0.702579 20
497 1 15.7549 1.1726 -1.56681 13
498 1 -1.76339 -2.64014 -10.6268 22
499 1 3.31576 -9.37516 -1.10235 19
500 1 2.44553 -13.2939 4.79032 19
501 1 3.22447 -10.1814 8.29205 15
502 1 -7.02234 1.37008 -6.26639 21
503 1 -11.3298 -13.9829 5.07268 12
504 1 0.731115 -11.9986 -10.1541 24
505 1 12.1685 14.241 5.19325 11
506 1 -0.0579208 1.54903 -15.5445 22
507 1 0.715372 0.664216 17.5692 13
508 1 -13.6345 1.76549 11.577 13
509 1 0.190375 -16.4016 0.706938 17
510 1 -12.7814 -3.12435 -2.62253 20
511 1 14.4147 -7.01483 -6.73672 14
512 1 11.608 -0.618121 -1.31002 18
513 1 -6.29539 6.03446 -3.10951 20
514 1 3.04827 -9.0353 -6.86429 21
515 1 3.91639 3.96383 -10.7534 21
516 1 10.9671 -3.44837 -6.54835 19
517 1 -4.21569 -1.42018 16.8001 11
518 1 8.50235 12.5814 1.63443 22
519 1 -3.36781 -4.44864 -17.0167 10
520 1 6.19239 2.95616 -18.9377 7
521 1 -7.48346 -0.865741 4.9928 20
522 1 -1.40005 13.599 4.33134 17
523 1 -7.04627 -6.04704 -15.7361 14
524 1 -14.1483 -0.469632 0.654708 14
525 1 -0.675757 -11.1167 -14.644 15
526 1 -8.17242 -9.40023 7.72593 21
527 1 0.28969 7.53796 -5.93076 21
528 1 17.9203 2.89521 9.9183 12
529 1 12.3323 2.30116 -0.0981628 19
530 1 -9.04757 -12.853 -1.02721 18
531 1 0.479587 -8.76428 -2.14374 21
532 1 -0.852353 -3.95407 -15.7899 18
533 1 -6.25148 11.4328 9.88487 15
534 1 1.93399 -6.75476 -9.0959 22
535 1 3.19855 6.37431 1.94884 21
536 1 13.3605 -0.652896 1.95409 19
537 1 3.20438 13.3752 -6.85864 19
538 1 6.23018 -9.3921 0.762041 22
539 1 16.4368 7.09947 -8.41539 8
540 1 5.05118 8.10677 14.6455 23
541 1 -8.49275 1.34727 7.40704 25
542 1 9.2415 7.41407 7.79897 20
543 1 9.36059 -2.16371 16.5306 8
544 1 0.418464 -0.731922 -12.837 21
545 1 -3.93888 -6.96985 -6.73133 22
546 1 3.27284 -1.57675 12.6612 20
547 1 10.4979 11.4385 6.88974 20
548 1 7.89158 7.32467 -8.97005 17
549 1 -7.5351 9.37656 -3.75905 16
550 1 1.22937 14.1125 -1.78188 23
551 1 12.063 -4.50249 11.6741 10
552 1 12.4218 1.20327 -13.181 10
553 1 14.902 -9.57573 -4.60226 9
554 1 14.1655 8.96507 14.0261 9
555 1 -13.4511 -9.02964 0.865571 16
556 1 -3.26313 12.4127 -8.9649 15
557 1 0.66768 -2.41867 11.8182 18
558 1 -12.9018 -0.667141 13.2715 9
559 1 -0.380426 11.5353 -8.93892 17
560 1 8.78637 -13.5446 -1.15654 21
561 1 7.96498 0.0494862 -8.89857 18
562 1 -0.64042 15.4462 -4.34499 13
563 1 -9.12177 -8.81696 -14.7844 11
564 1 3.55695 -15.9922 1.69738 17
565 1 -11.1459 -5.91455 0.190203 21
566 1 0.0622984 12.4236 -12.5697 11
567 1 -6.52508 1.62185 -1.23203 22
568 1 -1.27454 7.43427 14.5158 14
569 1 -9.53806 -6.14955 7.45853 18
570 1 5.5071 5.10172 -0.832165 22
571 1 5.41703 -10.2168 -9.35909 18
572 1 0.639735 -9.14499 11.5847 8
573 1 10.6754 -0.694044 -4.37943 18
574 1 -9.55478 5.34508 1.85198 21
575 1 4.62247 3.91082 19.3161 11
576 1 6.0014 13.8637 -4.94021 20
577 1 13.476 -5.0187 -4.75105 19
578 1 5.51403 8.45361 11.5718 18
579 1 -1.35918 1.3102 -18.575 12
580 1 -4.576 -13.393 10.6173 13
581 1 -1.9462 2.39849 -8.97872 16
582 1 6.93518 -0.541658 -16.9096 10
583 1 4.61278 14.1433 6.08717 17
584 1 7.79032 3.23619 -10.6859 18
585 1 -2.20885 -1.95485 -13.5638 16
586 1 -3.07562 -10.9232 -4.19966 20
587 1 -9.03591 -6.43325 -13.2458 16
588 1 11.264 2.58049 2.94508 20
589 1 15.0169 4.05832 -3.75802 17
590 1 8.25138 -4.63758 -8.30659 21
591 1 16.5052 6.22462 12.4671 14
592 1 7.58939 -11.2521 -4.18005 20
593 1 1.70166 4.80702 -15.9201 16
594 1 8.31615 9.87312 2.15277 17
595 1 -7.94196 2.9078 1.33303 21
596 1 13.0219 12.2455 12.5738 9
597 1 11.4312 4.48433 -2.91352 20
598 1 14.0594 -2.08601 4.88827 15
599 1 10.6759 5.29079 -8.4917 19
600 1 6.70481 2.669 14.715 20
601 1 18.4149 3.58832 12.8542 10
602 1 1.53182 -4.8854 9.92721 17
603 1 14.3533 12.0607 -3.75771 9
604 1 6.72507 1.83142 -0.705289 21
605 1 1.40484 -0.945442 14.7651 17
606 1 16.7645 -1.37777 -5.91465 13
607 1 7.18252 2.11932 11.1657 17
608 1 -7.61219 -3.34684 -11.5124 20
609 1 14.2243 4.19009 2.21312 18
610 1 10.9505 -5.74807 1.07228 21
611 1 2.28817 -6.48465 -0.863026 21
612 1 -11.5348 4.66275 11.4683 12
613 1 8.63628 10.05 9.71646 21
614 1 12.9383 1.83956 12.9695 15
615 1 5.24674 10.0048 9.42039 23
616 1 5.50927 14.5025 11.2649 11
617 1 4.28485 2.36722 9.90587 23
618 1 -0.0531146 -16.0456 3.9922 18
619 1 -6.23273 8.83333 -1.28553 17
620 1 11.7536 10.2245 -7.59049 9
621 1 13.221 -4.14825 -12.4693 11
622 1 2.76983 15.4895 0.823615 13
623 1 -1.56288 -12.2349 -8.15197 22
624 1 12.7785 -7.36837 -13.3432 9
625 1 -16.5263 2.86264 5.98396 8
626 1 -5.90116 7.2095 -8.65931 20
627 1 -3.30318 -16.9134 5.42925 14
628 1 -2.37907 0.430535 -11.0925 15
629 1 -11.9989 -0.217081 -6.02254 19
630 1 11.9489 -5.39454 6.08503 18
631 1 14.4249 10.1304 2.04498 16
632 1 1.39515 -8.29635 5.62001 21
633 1 -10.6189 -3.62722 -10.4917 22
634 1 2.24499 2.88356 -18.707 12
635 1 3.31837 -2.56244 4.82575 20
636 1 -1.79501 2.62686 14.997 19
637 1 5.77685 8.4853 -13.0012 17
638 1 13.8611 -1.16364 12.6212 15
639 1 8.31226 4.50217 -6.15375 17
640 1 14.2057 12.9397 -0.1148 12
641 1 5.42563 -13.2518 -8.3316 17
642 1 -9.88246 -2.42318 13.5784 13
643 1 12.0938 -0.162686 4.82579 18
644 1 0.117117 10.3596 11.9453 14
645 1 8.7043 12.9062 -10.2246 11
646 1 -13.3857 10.4183 -3.48655 11
647 1 10.9513 7.7814 2.50082 20
648 1 -8.32133 -16.0279 0.12608 10
649 1 15.6474 -4.01577 2.22717 13
650 1 11.1123 14.5194 2.04997 15
651 1 -0.91486 2.2826 9.625 17
652 1 -10.1557 -8.32624 2.08947 18
653 1 -11.7917 -6.78072 -10.0402 11
654 1 6.40623 -2.94872 10.9571 20
655 1 -4.41994 -7.10081 10.2555 19
656 1 11.838 9.39948 12.5616 18
657 1 -5.47857 11.6712 1.43487 16
658 1 7.01333 3.57403 5.16743 20
659 1 6.97011 -3.83857 -0.632041 21
660 1 9.7819 4.5197 6.69968 17
661 1 2.98278 -1.46148 -17.4911 12
662 1 -7.80825 -2.56859 7.34459 21
663 1 11.872 -1.77425 -14.2012 11
664 1 0.191615 -4.15122 -5.99389 18
665 1 11.2669 -9.42029 -6.82662 17
666 1 9.70002 3.25594 10.5634 16
667 1 7.08082 4.11415 8.32236 21
668 1 -9.14779 0.634217 12.646 18
669 1 14.5946 10.5638 10.8537 14
670 1 1.17572 -4.20585 14.9519 13
671 1 -0.186817 5.28745 13.2168 17
672 1 0.99668 -6.22321 -14.9052 20
673 1 -4.60974 0.951998 14.4634 22
674 1 -5.04731 2.81117 -3.55508 21
675 1 4.94779 -1.37564 15.1908 14
676 1 -10.0017 -12.0014 7.62075 22
677 1 16.2782 6.88888 -1.92572 11
678 1 9.51175 -13.6842 -4.43838 16
679 1 -0.761293 5.10484 -5.5971 18
680 1 7.31025 7.29828 -2.13548 24
681 1 11.2658 11.621 3.7842 20
682 1 4.64048 0.718024 -19.2006 10
683 1 -2.05594 -2.17639 7.19676 22
684 1 2.98671 12.3907 -3.86985 19
685 1 13.8161 7.6845 -0.203356 19
686 1 -5.12719 -9.67211 -1.92038 19
687 1 1.07828 -0.0246145 -18.8537 12
688 1 -11.0169 8.32358 0.441784 21
689 1 8.17238 -5.2655 -11.2988 14
690 1 4.87302 5.69676 4.84042 19
691 1 10.9779 7.47045 -9.96018 15
692 1 12.6963 10.2669 -1.91918 21
693 1 1.42579 5.58776 4.77927 22
694 1 -6.08292 5.85876 0.651116 23
695 1 5.87281 5.40696 -4.7317 20
696 1 10.9305 0.338632 14.4547 16
697 1 10.4645 -2.63246 13.237 20
698 1 -3.80893 -10.9518 10.2362 14
699 1 -4.3378 9.60691 -9.12822 20
700 1 6.63575 11.6203 7.09995 18
701 1 9.75306 -7.56894 -15.2692 12
702 1 1.6575 0.435112 9.70571 22
703 1 7.555 11.6629 -4.42176 19
704 1 8.87528 9.72134 5.33527 22
705 1 15.495 -7.439 -2.21698 14
706 1 7.33518 6.06124 18.9496 10
707 1 -12.7807 -6.58667 6.24904 20
708 1 5.51526 -15.0722 -0.746106 20
709 1 3.61166 -3.31662 -6.49737 23
710 1 -8.33644 13.4502 2.20149 12
711 1 1.18047 6.30508 7.6109 18
712 1 6.921 -5.31238 -2.92165 22
713 1 6.02556 8.68219 3.50734 23
714 1 -11.4424 -3.28523 2.54435 23
715 1 -3.97266 3.49496 16.5807 17
716 1 -4.382 5.52681 -13.3172 12
717 1 -5.65517 8.79055 -12.3714 8
718 1 7.07913 -15.6589 2.3383 18
719 1 9.77713 8.37989 -6.88218 18
720 1 4.71562 -5.5326 4.87318 17
721 1 -0.182815 8.17068 4.03404 24
722 1 -13.1004 3.10958 8.90732 15
723 1 5.7626 -3.61537 -13.5205 17
724 1 1.9031 -13.3369 7.62843 16
725 1 5.3643 13.5024 1.16576 19
726 1 -6.69283 6.20092 14.5854 15
727 1 -7.21741 -9.53066 -11.8837 17
728 1 -3.99215 -11.1089 -13.856 13
729 1 -4.32295 -13.86 -8.97592 14
730 1 0.81528 15.2731 -7.38151 14
731 1 4.96469 -3.60746 -10.07 22
732 1 -1.62708 12.2533 7.22515 19
733 1 7.86525 -10.4846 -7.61862 20
734 1 8.64443 -17.8552 0.489904 9
735 1 4.44095 -7.95575 6.32967 19
736 1 15.5384 0.507589 -7.84934 13
737 1 4.64697 -13.6887 -5.63392 17
738 1 -11.4477 -2.59426 8.31921 17
739 1 0.270121 -0.478457 -8.72286 16
740 1 -2.83695 -16.7814 2.484 12
741 1 -5.97153 -11.9027 -3.49524 20
742 1 -11.6088 -1.67122 11.2214 14
743 1 -6.261 -16.9859 2.69023 12
744 1 16.9312 3.80582 -7.01066 9
745 1 -2.15257 15.7497 7.59024 18
746 1 -1.01707 3.97264 6.9376 19
747 1 -12.4834 6.38107 2.72388 16
748 1 11.5577 -3.07506 2.89363 24
749 1 -13.6571 -4.05277 -11.8193 10
750 1 -1.10308 8.90521 -3.56441 24
751 1 7.02077 2.4072 -6.96671 20
752 1 9.22005 11.6919 12.457 14
753 1 10.3194 2.51049 -5.31373 22
754 1 -15.0493 -0.0981338 -6.97045 9
755 1 -8.50114 -9.27062 -8.63083 22
756 1 -1.49436 4.23072 18.0346 11
757 1 5.35026 6.83921 -10.5583 21
758 1 13.7205 12.9971 2.37674 13
759 1 -1.99133 -0.560104 10.0291 21
760 1 1.26814 -15.3998 -2.24096 17
761 1 -9.48934 -15.8682 7.06344 11
762 1 -3.19186 -5.42543 8.31489 19
763 1 16.4718 7.94434 9.96597 15
764 1 4.96571 -6.21871 -8.02519 19
765 1 -9.43428 7.05761 -1.00976 20
766 1 8.41187 6.87009 5.07161 19
767 1 -6.04494 -6.65244 2.7064 19
768 1 8.6121 6.17327 -11.8796 15
769 1 -2.27083 -13.7516 -4.79799 22
770 1 2.36647 -18.1416 2.61783 14
771 1 2.8982 -12.9007 -1.7403 19
772 1 5.01412 4.66731 -7.78029 21
773 1 8.27448 15.4681 0.986582 14
774 1 -0.75294 -2.43068 -18.4455 11
775 1 1.24451 1.32474 12.151 19
776 1 -0.68445 4.21901 -17.8237 12
777 1 -10.7116 -4.0381 -13.8883 12
778 1 -11.4634 -5.85074 -3.62037 19
779 1 4.47434 16.0836 -7.2964 12
780 1 12.6243 -3.1614 0.451574 20
781 1 -1.47436 -7.29097 -17.4316 13
782 1 -4.75748 -6.75351 -0.674679 17
783 1 11.9831 5.01112 -5.55483 17
784 1 11.3258 -7.84705 -0.411993 23
785 1 -4.99678 7.0985 11.8677 19
786 1 7.21186 -12.8108 6.61267 12
787 1 15.474 -3.89821 -0.948688 17
788 1 12.444 -1.96486 10.0353 19
789 1 2.14928 9.20623 10.2467 21
790 1 -11.4708 2.13715 14.1939 12
791 1 -7.02685 8.34274 9.61415 20
792 1 -1.71353 -13.366 8.9452 13
793 1 7.00724 0.0876821 1.8572 17
794 1 8.2608 8.27213 13.499 20
795 1 -12.1524 1.74195 0.687614 18
796 1 9.30072 -7.06276 -1.9225 20
797 1 -9.74443 10.0714 -7.61419 12
798 1 2.59744 8.29838 4.23316 20
799 1 1.74496 -16.3264 5.55783 15
800 1 3.52086 1.15679 15.3063 19
801 1 1.82528 12.5545 6.25999 20
802 1 5.36012 -7.74005 3.07096 19
803 1 -7.328 -3.24522 -4.71 19
804 1 5.39998 0.198676 12.7843 23
805 1 -15.3932 -7.67737 -4.36624 8
806 1 1.72995 9.43138 13.7104 16
807 1 5.54968 10.8024 0.620262 23
808 1 -12.7139 -10.6106 6.01541 16
809 1 -4.01247 -15.585 8.21369 13
810 1 9.74345 -5.04314 4.06941 23
811 1 9.88256 -2.37235 5.9775 21
812 1 11.7602 8.76022 9.14446 19
813 1 -2.63621 6.29762 -3.86233 22
814 1 0.311031 -9.59466 -8.68499 21
815 1 -2.0455 2.12406 -13.4561 20
816 1 -4.47676 2.57486 9.28431 20
817 1 0.870377 15.4941 3.70679 12
818 1 14.6932 1.5991 4.71616 18
819 1 3.41561 7.76148 -5.80777 22
820 1 -3.76553 5.18178 13.8536 20
821 1 10.3674 6.92518 11.1739 22
822 1 7.28166 -2.50944 -10.8154 14
823 1 -7.70004 -13.535 2.63541 18
824 1 -5.49611 -1.32221 -6.13406 16
825 1 16.1907 2.54878 7.48699 15
826 1 2.79021 -2.45245 -11.5437 19
827 1 1.49042 5.94015 15.5835 17
828 1 9.88975 -12.5986 -7.28863 14
829 1 6.64171 3.44017 -15.4294 15
830 1 -0.540179 -8.20367 -5.29998 21
831 1 13.5294 5.36731 -10.2242 12
832 1 15.8849 -1.38885 0.28682 15
833 1 0.176506 -6.16501 12.3634 17
834 1 -0.71742 -9.98786 -11.8919 22
835 1 8.67976 10.0501 -1.23401 21
836 1 -1.15482 -6.2315 4.48386 18
837 1 -15.3791 4.82006 3.60759 13
838 1 13.381 3.1641 -7.74929 19
839 1 18.4397 6.51521 4.32322 8
840 1 3.80993 -6.63991 -13.7829 24
841 1 -7.48055 13.668 5.23025 10
842 1 18.4302 7.95573 7.31996 13
843 1 10.6549 12.2571 -3.39993 14
844 1 3.85499 2.84382 -16.6077 15
845 1 10.015 -4.41237 -1.70422 20
846 1 -9.73579 -0.0463416 1.43003 21
847 1 12.3703 5.3416 4.48041 23
848 1 -13.1937 -12.4566 -0.298581 10
849 1 -10.9293 7.50758 -8.3648 12
850 1 5.98696 4.98933 12.3709 21
851 1 -11.7767 -3.17789 -7.91569 21
852 1 -10.505 3.15018 6.65478 19
853 1 -2.01884 4.23775 -11.5336 18
854 1 11.3634 -6.06091 -7.35415 19
855 1 -11.0169 -11.2524 -7.43369 10
856 1 14.4496 -6.9532 0.807797 16
857 1 -15.7611 4.99716 0.460524 11
858 1 -5.54508 -6.26695 -3.7236 19
859 1 14.9269 7.87707 7.07523 21
860 1 -4.2226 -9.02086 7.74466 17
861 1 8.26412 -0.606205 12.431 20
862 1 12.4782 -3.04411 7.60448 17
863 1 8.7072 -1.47012 3.76629 20
864 1 -11.1964 2.95414 2.87746 21
865 1 3.35934 11.6851 11.4648 18
866 1 2.75423 9.2913 -8.35852 19
867 1 0.546971 -10.0704 -17.5258 11
868 1 -2.35468 18.6275 8.97467 6
869 1 -12.7305 -10.4787 9.72833 10
870 1 10.0429 9.61383 -3.98872 20
871 1 2.91407 6.50794 12.599 20
872 1 15.8979 -4.35606 -4.07555 15
873 1 8.45184 -7.4352 9.91239 11
874 1 2.64917 12.5531 -9.78292 18