ITEM: TIMESTEP
35000
ITEM: NUMBER OF ATOMS
500
ITEM: BOX BOUNDS pp pp pp
-30.0 30.0
-30.0 30.0
-30.0 30.0
ITEM: ATOMS id type x y z Coordination
1 1 -5.37483 -6.39147 -6.13228 15
2 1 -6.06699 -6.28213 -2.94453 17
3 1 -8.62413 -7.872 2.25846 9
4 1 -6.30366 -0.71048 -9.0426 12
5 1 -7.54111 -3.21269 -6.64203 12
6 1 -5.65202 -0.812085 -6.26115 21
7 1 -9.28289 -3.75135 -3.35743 12
8 1 -6.12972 -3.2745 -4.50035 22
9 1 -8.75057 -6.03782 -0.745121 13
10 1 -5.92451 -0.65029 -2.64805 21
11 1 -8.94397 -0.813941 -1.18538 18
12 1 -6.83366 -3.546 -1.24912 22
13 1 -2.29975 -6.09429 -7.93019 12
14 1 -0.125009 -6.5176 -5.9648 18
15 1 -2.97614 -7.12127 -4.72301 18
16 1 -1.38736 -9.38485 -4.37796 11
17 1 -4.93526 -9.03062 -3.49816 11
18 1 -0.420472 -6.64425 -2.77019 22
19 1 -3.29941 -7.15329 -1.30091 21
20 1 -1.28981 -9.48027 -1.19118 17
21 1 -3.56476 -3.04907 -9.61348 11
22 1 -0.553926 -1.27791 -9.63368 18
23 1 -3.22118 -0.706475 -8.00541 21
24 1 -0.80267 -3.58504 -7.74382 21
25 1 -3.95255 -3.53843 -6.51287 22
26 1 0.0346171 -1.03094 -6.25139 22
27 1 -3.09546 -1.53027 -4.61797 22
28 1 -1.14611 -3.87856 -4.46344 22
29 1 -3.81339 -4.48377 -2.87364 20
30 1 0.0156601 -1.01824 -3.15132 22
31 1 -3.10658 -1.45446 -1.18391 21
32 1 -1.0629 -3.71376 -1.32217 22
33 2 -5.48038 -7.38999 -4.51479 13
34 2 -6.96025 -6.6456 -1.37634 15
35 2 -7.10228 -1.50202 -7.53168 15
36 2 -8.15848 -3.3005 -4.78563 12
37 2 -5.84359 -4.37212 -6.18816 16
38 2 -8.73774 -4.3251 -1.68689 17
39 2 -6.41504 -1.27893 -4.56058 21
40 2 -9.48913 -2.02146 -2.81561 14
41 2 -5.8654 -4.16731 -2.9366 20
42 2 -9.23224 -7.05661 0.676294 10
43 2 -6.93637 -1.20279 -1.17576 23
44 2 -0.38829 -6.44961 -8.18123 13
45 2 -3.4559 -6.64813 -6.61273 14
46 2 -3.24703 -9.19014 -4.43654 12
47 2 -0.884393 -7.47745 -4.62187 19
48 2 -3.41434 -6.2927 -2.98951 23
49 2 -0.146709 -9.83572 -2.74424 11
50 2 -4.54525 -8.86236 -1.65317 14
51 2 -1.14738 -7.61178 -1.24126 23
52 2 3.14283 -2.22244 -9.97028 14
53 2 -4.51614 -1.50519 -9.45022 13
54 2 0.238098 -3.03793 -9.33181 17
55 2 -2.8901 -4.27923 -8.24246 15
56 2 -1.31236 -1.6157 -7.78312 19
57 2 -4.03661 -1.70954 -6.56777 21
58 2 -0.255484 -4.528 -6.12498 23
59 2 -3.05412 -3.64905 -4.48926 21
60 2 -1.10504 -1.68598 -4.79334 23
61 2 -3.93684 -0.694082 -2.81304 22
62 2 -0.0654358 -4.7646 -2.97731 25
63 2 -3.02728 -3.50561 -1.45554 21
64 2 -1.01966 -1.74889 -1.43647 21
65 1 -9.96095 -3.34489 -0.409268 13
66 1 -6.06522 -6.46364 0.336548 19
67 1 -5.91641 -6.41178 3.66228 21
68 1 -6.09108 -7.00231 6.84518 11
69 1 -10.6394 -6.23649 1.46843 8
70 1 -6.08145 -0.785463 0.457779 22
71 1 -8.811 -1.16575 2.08625 14
72 1 -7.01316 -3.58096 2.16942 22
73 1 -8.66432 -5.70979 4.61807 13
74 1 -6.18393 -1.07431 3.85243 23
75 1 -8.71093 -2.21169 5.47934 11
76 1 -6.47821 -3.94291 5.58218 20
77 1 -5.82033 -1.47498 7.36844 14
78 1 -5.09363 -4.13842 8.83819 11
79 1 -4.53615 -9.64914 0.0814032 9
80 1 -0.423351 -6.63121 0.46859 21
81 1 -3.31424 -7.34495 1.89934 17
82 1 -1.20108 -9.46689 1.81649 14
83 1 -0.582342 -6.64839 3.6949 21
84 1 -2.97335 -7.47778 4.9451 13
85 1 -0.0600458 -9.23583 5.26961 12
86 1 0.0827185 -6.64569 7.44385 15
87 1 -4.11152 -4.28243 0.286309 20
88 1 -0.225885 -1.18414 0.256612 21
89 1 -3.32251 -1.79494 1.96233 20
90 1 -1.33851 -3.63709 1.95367 22
91 1 -4.00303 -4.5197 3.58161 20
92 1 -0.496311 -0.914069 3.72317 22
93 1 -3.28353 -1.91757 5.09806 21
94 1 -1.27959 -3.87867 5.42704 22
95 1 -3.88941 -5.13974 6.57465 19
96 1 -0.854573 -1.13679 7.00365 23
97 1 -3.22124 -1.51489 8.85096 17
98 1 -1.39237 -4.33843 8.7464 14
99 1 0.0171574 -1.96655 9.90855 15
100 2 -6.80515 -6.9866 2.03602 16
101 2 -7.19567 -6.78379 5.19145 13
102 2 -10.7183 -4.66808 0.569066 7
103 2 -6.09826 -4.31315 0.560936 19
104 2 -9.71962 -6.43864 3.1698 9
105 2 -6.8415 -1.59571 2.12555 21
106 2 -9.14616 -0.897814 4.05475 13
107 2 -6.00387 -4.52073 3.57636 20
108 2 -8.37748 -4.00504 5.09676 12
109 2 -6.54374 -2.01946 5.7331 19
110 2 -5.88122 -4.91947 7.23962 15
111 2 -5.0197 -2.24522 8.87138 12
112 2 -4.14538 -6.55215 0.318591 21
113 2 -0.239064 -10.1634 0.263635 14
114 2 -3.16593 -9.22901 1.07313 13
115 2 -1.39361 -7.40789 2.00686 21
116 2 -4.04708 -6.77245 3.54043 18
117 2 -0.480535 -10.2109 3.49954 12
118 2 -1.05334 -7.61942 5.4639 16
119 2 1.83967 -9.27126 4.90289 12
120 2 -4.26754 -7.06861 6.27952 13
121 2 -0.0576619 -5.65985 9.14846 11
122 2 -4.05952 -0.948125 0.494869 21
123 2 -0.232748 -4.55628 0.46247 23
124 2 -3.27907 -3.78635 2.03829 20
125 2 -1.26031 -1.7094 2.00362 22
126 2 -4.2943 -1.23818 3.61377 22
127 2 -0.500791 -4.46102 3.55491 21
128 2 -3.27414 -3.91387 5.11033 21
129 2 -1.40354 -1.70394 5.2492 22
130 2 -3.69925 -1.02846 6.81448 21
131 2 -0.177163 -4.69181 6.89606 23
132 2 -3.23137 -4.7089 8.37228 14
133 2 -1.32283 -2.26092 8.52323 21
134 2 -2.43656 -0.00164772 9.83756 15
135 2 1.53475 -3.09781 9.52636 15
136 1 -7.19548 2.02 -7.34149 14
137 1 -8.52399 -1.10361 -4.14217 16
138 1 -5.97647 4.55276 -5.99746 18
139 1 -8.66549 4.28606 -4.51425 11
140 1 -6.9172 1.51495 -4.59481 18
141 1 -9.85569 1.97644 -2.89097 11
142 1 -5.77254 4.71268 -2.73009 23
143 1 -8.70307 4.59027 -0.957726 17
144 1 -6.64816 1.95681 -1.03203 23
145 1 -6.53986 7.05076 -4.5166 11
146 1 -6.73734 7.06386 -1.10622 18
147 1 0.140003 1.37668 -11.339 9
148 1 -4.51864 1.93167 -9.30378 12
149 1 -0.0134373 3.96475 -9.61051 14
150 1 -3.27047 4.4749 -8.02269 16
151 1 -1.12628 1.80818 -8.02086 19
152 1 -3.87509 1.77748 -6.1894 23
153 1 -0.0653518 4.32903 -6.41103 22
154 1 -2.98739 4.09038 -4.56628 21
155 1 -0.959187 1.83225 -4.61866 23
156 1 -3.91717 1.29726 -3.03168 20
157 1 0.0167662 4.65006 -3.05916 23
158 1 -3.03773 4.08015 -1.43889 22
159 1 -1.01638 1.74745 -1.52718 22
160 1 -1.05108 6.93943 -8.21153 12
161 1 -3.85378 7.35169 -6.40355 14
162 1 -2.04361 10.1509 -4.83148 8
163 1 -1.00324 7.20215 -4.67769 21
164 1 -3.52697 6.96204 -3.20969 19
165 1 0.202137 9.73008 -2.68475 15
166 1 -2.74381 9.60371 -1.26456 13
167 1 -0.787385 7.3349 -1.17506 19
168 2 -6.26058 1.32984 -8.76774 12
169 2 -7.60808 3.14676 -5.84242 14
170 2 -5.65804 1.24438 -6.11335 20
171 2 -8.63063 0.831131 -3.9236 16
172 2 -6.91225 5.13119 -4.27989 15
173 2 -8.97738 3.72878 -2.65865 15
174 2 -5.84081 1.48611 -2.86038 20
175 2 -9.45518 1.13721 -1.1585 13
176 2 -6.47174 3.95086 -1.11473 18
177 2 -5.59168 6.63697 -6.07835 13
178 2 -5.49435 7.0055 -2.88428 16
179 2 -8.93451 6.59573 -0.986703 11
180 2 -7.40849 8.75058 -0.402921 10
181 2 -4.51483 3.71489 -9.25502 10
182 2 -0.448273 2.03394 -9.80931 12
183 2 -3.04706 1.2748 -8.02406 19
184 2 -1.1817 3.80717 -8.01905 20
185 2 -4.13037 3.92488 -6.23587 19
186 2 -0.0399771 1.02822 -6.60393 22
187 2 -2.80229 1.8166 -4.5672 19
188 2 -0.851392 3.9024 -4.56913 21
189 2 -3.81278 4.92304 -2.94098 24
190 2 0.0392337 0.965133 -2.85285 23
191 2 -2.99982 1.91896 -1.33183 21
192 2 -0.987048 3.7442 -1.52923 21
193 2 0.325717 6.55187 -9.36975 11
194 2 -2.82166 6.32736 -7.63837 14
195 2 -0.14464 6.34042 -6.52195 21
196 2 -2.87458 8.1137 -4.85477 16
197 2 0.0528429 9.25637 -4.61281 13
198 2 -1.75968 10.2318 -2.95403 12
199 2 -0.0866555 6.67605 -3.01226 21
200 2 -2.72068 7.42869 -1.41312 18
201 2 -0.0237455 9.14135 -0.940991 17
202 1 -9.48785 2.00582 0.654385 15
203 1 -5.56135 4.53367 0.510176 22
204 1 -8.04105 5.06871 2.26183 17
205 1 -6.71287 1.80188 2.36971 21
206 1 -9.75747 1.03959 3.96053 10
207 1 -5.81363 4.33895 4.01747 20
208 1 -8.54708 3.88931 5.57144 11
209 1 -6.88926 1.45505 5.64054 17
210 1 -5.91433 4.67998 7.18497 15
211 1 -5.43613 1.96935 8.86696 12
212 1 -9.25946 7.82894 0.395901 10
213 1 -6.14634 10.1394 0.0940942 9
214 1 -6.17612 7.31301 2.01812 20
215 1 -7.22048 6.85211 5.01188 12
216 1 -3.81952 1.06065 0.350409 20
217 1 -0.253581 4.37895 0.20014 24
218 1 -2.96324 3.79096 2.15298 20
219 1 -0.867975 1.82015 2.1245 21
220 1 -3.9705 0.808291 3.3835 24
221 1 -0.288806 4.20859 3.5847 21
222 1 -3.14448 3.80846 5.38165 21
223 1 -1.10516 1.75658 5.41285 23
224 1 -4.01767 0.92806 6.55391 23
225 1 -0.457831 4.01704 7.19728 19
226 1 -3.32418 4.06811 8.62967 14
227 1 -1.78698 1.51897 8.64438 21
228 1 -1.47202 0.492251 11.3872 10
229 1 -0.342969 3.7557 10.5602 11
230 1 -3.54236 6.57503 0.415535 23
231 1 0.555534 9.90363 0.565715 16
232 1 -3.79419 9.604 1.90905 14
233 1 -0.8835 7.33902 2.27103 20
234 1 -3.69308 6.57897 3.81203 22
235 1 -0.841299 10.5318 3.59828 11
236 1 -2.84902 9.44742 5.31938 10
237 1 -0.991741 6.95822 5.64438 20
238 1 -4.38029 6.88391 6.92607 13
239 1 0.651057 9.33716 6.27199 12
240 2 -9.55423 -1.76859 0.492957 15
241 2 -9.0338 3.9134 0.865196 15
242 2 -5.79024 1.26725 0.66324 20
243 2 -8.92925 0.91609 2.04722 17
244 2 -6.50557 3.77491 2.32758 21
245 2 -8.30435 5.23076 4.29994 13
246 2 -5.88458 0.930753 4.0176 20
247 2 -8.91416 2.04364 5.21657 10
248 2 -6.70526 3.45973 5.77567 19
249 2 -5.8491 0.606082 7.29142 15
250 2 -5.21797 3.88015 8.80502 11
251 2 -5.50524 6.36488 0.324626 24
252 2 -8.04245 6.87521 1.63495 15
253 2 -5.82144 9.21814 1.85457 14
254 2 -5.71668 6.5514 3.87026 19
255 2 -6.20262 6.4511 6.71822 12
256 2 -3.53305 4.52046 0.539317 20
257 2 -0.131512 0.953625 0.416656 22
258 2 -2.91249 1.85971 2.12664 21
259 2 -1.08607 3.72431 1.75908 21
260 2 -3.77562 4.69241 3.72663 21
261 2 -0.0299117 0.971376 3.77819 23
262 2 -3.12806 1.69503 4.92397 23
263 2 -1.19833 3.81041 5.40181 19
264 2 -4.01087 4.95341 6.742 19
265 2 -0.617238 0.835841 7.07869 22
266 2 -3.45796 2.06947 8.23334 18
267 2 -1.42014 3.66463 8.71859 16
268 2 -1.16472 2.24009 11.2114 10
269 2 -4.18944 9.88871 -0.137534 13
270 2 -0.0148255 6.54429 0.657368 20
271 2 -2.91616 7.51168 2.30163 21
272 2 0.136372 9.18438 2.33247 18
273 2 -2.76251 10.1864 3.44394 11
274 2 -0.083188 6.34384 3.92775 21
275 2 -3.10971 7.47945 5.59877 14
276 2 -0.890063 9.77383 5.4578 11
277 2 0.42504 7.41271 6.94515 12
278 1 1.48125 -6.35382 -8.03788 13
279 1 6.55631 -6.04842 -4.79627 13
280 1 2.83763 -6.65625 -4.54198 22
281 1 5.14751 -9.09565 -4.78144 7
282 1 1.65904 -9.37518 -2.69219 16
283 1 5.01771 -6.53804 -2.72724 20
284 1 2.40861 -6.79199 -1.12817 19
285 1 4.35013 -9.6463 -1.29128 12
286 1 2.32788 -0.903792 -11.3216 11
287 1 1.95912 -3.82008 -9.70076 14
288 1 4.94506 -2.15184 -9.41401 11
289 1 2.8126 -0.943993 -7.90099 23
290 1 4.46201 -4.60868 -7.60397 14
291 1 1.57306 -3.78991 -6.29287 25
292 1 5.91446 -1.09638 -6.14438 21
293 1 2.80971 -0.946597 -4.74567 26
294 1 4.54171 -3.71556 -4.34307 24
295 1 1.69287 -3.88294 -3.05584 25
296 1 5.3697 -1.03387 -2.86478 24
297 1 2.50508 -1.17544 -1.30719 21
298 1 4.41211 -3.846 -1.12846 20
299 1 8.29674 -6.64209 -1.36232 12
300 1 8.66163 -1.25282 -7.79318 9
301 1 6.92944 -3.91971 -6.6331 13
302 1 8.55369 -2.43717 -4.41828 13
303 1 7.15746 -3.7785 -2.5939 20
304 1 11.3505 -1.25127 -2.79653 10
305 1 8.49159 -1.41344 -1.55275 21
306 1 10.0781 -3.75806 -1.8625 13
307 2 1.82668 -6.67469 -6.25665 13
308 2 4.69703 -9.77086 -3.18061 10
309 2 4.81084 -7.2317 -4.5195 13
310 2 1.79011 -7.31862 -3.01978 20
311 2 2.51574 -10.1173 -1.06826 14
312 2 4.37646 -7.20774 -1.05619 22
313 2 2.30517 1.04934 -11.1492 10
314 2 2.62477 -4.64201 -8.1244 17
315 2 5.8804 -3.43183 -8.23638 11
316 2 1.79492 -1.73209 -6.42351 23
317 2 5.26181 -4.92492 -5.96039 18
318 2 2.62879 -4.47046 -4.72865 22
319 2 4.57514 -1.75227 -4.69934 22
320 2 1.71695 -1.60179 -3.1477 24
321 2 5.3106 -4.55957 -2.82573 22
322 2 2.56184 -4.55487 -1.33831 23
323 2 4.4457 -1.65524 -1.32404 22
324 2 7.03977 -6.52249 -2.99543 13
325 2 7.69466 -2.06181 -6.17984 14
326 2 7.76943 -4.26042 -4.61333 14
327 2 10.1342 -2.5838 -3.39995 11
328 2 7.15917 -1.89538 -2.9668 22
329 2 8.56302 -4.68771 -1.42644 16
330 2 10.4404 -2.05002 -0.893013 15
331 1 1.48198 -10.7926 0.475309 13
332 1 5.43088 -7.28944 0.616823 18
333 1 2.49764 -6.76052 2.31341 20
334 1 4.37171 -10.4247 1.8757 9
335 1 1.41347 -10.7794 3.68615 9
336 1 5.17458 -7.285 4.05386 15
337 1 2.2467 -7.33207 5.44318 18
338 1 3.78584 -6.69022 7.35279 11
339 1 1.67166 -4.18378 0.382439 19
340 1 5.65081 -1.30674 0.387124 22
341 1 2.47311 -1.94449 2.0755 21
342 1 4.45615 -4.61284 1.93342 22
343 1 1.43288 -4.52476 3.87093 21
344 1 5.45115 -1.80965 3.60332 22
345 1 2.4491 -1.83396 5.13181 23
346 1 4.3136 -4.58042 5.37117 23
347 1 1.15998 -3.47982 7.27515 21
348 1 5.40629 -1.34469 6.60357 18
349 1 2.60269 -1.52585 8.71196 19
350 1 4.60197 -4.05664 8.35518 13
351 1 1.74733 -4.95425 9.82204 12
352 1 7.89657 -6.67103 2.25248 11
353 1 7.59313 -3.99811 0.353094 21
354 1 11.1968 -1.38007 0.708121 13
355 1 8.30489 -1.05218 1.88881 20
356 1 9.63756 -3.63693 3.14275 11
357 1 7.09263 -4.64745 4.08102 17
358 1 8.40489 -1.5568 4.9978 15
359 1 7.57297 -3.27224 6.89241 11
360 2 1.7116 -7.02432 0.538459 22
361 2 5.17944 -9.35964 0.601815 10
362 2 4.44186 -6.54476 2.33434 20
363 2 1.3933 -6.66588 3.85764 20
364 2 2.46488 -10.386 2.17444 11
365 2 4.12181 -6.59891 5.3979 17
366 2 1.82526 -7.32289 7.40416 14
367 2 1.69929 -1.96115 0.233818 21
368 2 5.71903 -4.00814 0.321846 20
369 2 2.5765 -4.18343 2.3774 22
370 2 4.26275 -1.17107 1.9749 20
371 2 1.48657 -1.08896 3.66261 19
372 2 5.1728 -4.03748 3.63239 20
373 2 2.41058 -3.90792 5.61035 22
374 2 4.21985 -0.954695 4.97214 22
375 2 1.38451 -1.45208 6.95097 20
376 2 5.91551 -3.98466 6.72484 16
377 2 3.26354 -5.40674 8.67787 16
378 2 4.27486 -2.27188 7.93101 17
379 2 0.209948 -0.199442 10.6818 15
380 2 7.45604 -7.05522 0.377908 13
381 2 7.04002 -6.6894 3.90278 12
382 2 7.72585 -1.8193 0.251697 22
383 2 8.25644 -4.54887 2.2088 15
384 2 10.1354 -2.04569 2.04484 13
385 2 7.31737 -1.12982 3.54465 23
386 2 8.37673 -3.39716 4.7935 13
387 2 7.60581 -1.35347 6.74498 13
388 1 2.57843 2.23383 -9.78696 14
389 1 2.96605 4.20021 -7.75324 20
390 1 4.86987 1.22092 -7.7041 16
391 1 1.76362 1.65063 -6.41502 20
392 1 5.7235 4.55925 -6.67031 15
393 1 2.70665 4.05405 -4.44221 23
394 1 4.68363 1.63226 -4.46737 23
395 1 1.81525 1.68415 -2.90184 24
396 1 5.53055 4.53081 -2.96809 23
397 1 2.80718 4.31983 -1.31023 22
398 1 4.72125 1.68436 -1.09447 21
399 1 2.06088 6.0602 -9.49254 10
400 1 4.28466 7.63229 -7.4684 10
401 1 1.83278 6.82527 -6.43988 19
402 1 1.94255 9.66939 -5.05909 11
403 1 4.25485 6.95778 -4.6468 17
404 1 1.90621 7.12908 -2.84623 22
405 1 3.18551 10.0505 -1.47486 11
406 1 4.63529 7.16139 -1.15444 18
407 1 7.85305 1.70697 -6.13111 14
408 1 8.32665 4.15441 -4.81819 12
409 1 10.5002 2.27095 -3.65042 11
410 1 7.62599 1.48876 -2.65286 22
411 1 8.77948 4.40741 -1.0159 17
412 1 10.4273 1.24096 -0.93671 17
413 1 7.44109 6.61483 -2.58143 11
414 2 0.415937 -0.521095 -11.0442 11
415 2 1.89196 4.08289 -9.61737 14
416 2 4.77082 -0.833479 -7.85157 16
417 2 2.67127 1.21108 -8.109 19
418 2 4.59752 3.12849 -7.38379 18
419 2 1.7517 3.65726 -6.10135 23
420 2 6.02444 0.931675 -5.90339 19
421 2 2.71737 1.02064 -4.70011 24
422 2 4.70625 3.73541 -4.5075 22
423 2 1.76773 3.80068 -2.77779 22
424 2 5.65332 1.02557 -2.81382 22
425 2 2.88559 0.982801 -1.28083 24
426 2 4.80786 3.85697 -1.25794 21
427 2 2.99707 6.19933 -7.97794 15
428 2 5.20096 6.3963 -6.24149 14
429 2 2.5279 6.05421 -4.45639 23
430 2 3.10281 8.26913 -5.81619 11
431 2 2.21414 9.40192 -3.03898 15
432 2 5.30132 6.59382 -2.8154 17
433 2 2.75091 6.34378 -1.26808 25
434 2 4.55977 9.05166 -0.613908 13
435 2 8.7484 0.540852 -7.34738 8
436 2 7.3252 3.67636 -6.40784 13
437 2 8.58339 2.19888 -4.26 15
438 2 7.54695 4.62479 -3.02652 15
439 2 11.0837 0.631605 -2.87032 11
440 2 8.5407 0.451121 -1.17457 22
441 2 9.90308 2.97779 -1.83995 13
442 2 8.25979 6.29762 -0.922089 13
443 1 1.77509 1.54756 0.317033 22
444 1 5.8142 4.61767 0.410125 23
445 1 2.82582 3.51575 2.18279 22
446 1 4.65431 0.734272 2.01815 20
447 1 2.01054 0.893291 3.79195 21
448 1 5.48218 3.57949 3.62496 21
449 1 2.37953 3.53191 5.39919 22
450 1 4.40037 1.10269 5.52635 20
451 1 1.40963 0.692567 7.04343 22
452 1 5.14499 4.76502 8.10095 10
453 1 2.42709 3.84414 8.73891 15
454 1 4.45245 1.23669 8.70711 14
455 1 1.53799 1.09622 10.5235 13
456 1 1.95709 6.51275 0.5095 23
457 1 4.20441 9.90356 1.25251 11
458 1 1.77983 8.95331 3.23868 18
459 1 4.54302 6.68834 2.0931 22
460 1 1.81844 6.03832 3.86451 24
461 1 3.89109 8.47537 4.81581 12
462 1 4.63819 5.85759 5.59364 16
463 1 1.93249 6.16988 7.12033 16
464 1 7.66785 1.50294 0.441674 21
465 1 8.35251 4.44289 2.31568 17
466 1 10.4656 1.46195 2.34237 10
467 1 7.35162 1.15697 3.78786 21
468 1 7.45171 3.83381 5.92487 11
469 1 7.455 0.71542 7.05901 11
470 1 7.66714 7.22028 0.746986 13
471 1 7.35478 6.42102 4.27831 10
472 2 1.81716 3.92186 0.35074 22
473 2 5.73645 0.734114 0.392581 22
474 2 2.69497 1.52829 2.03157 21
475 2 4.58367 4.42844 1.92323 21
476 2 1.55169 4.03833 3.68632 21
477 2 5.2689 1.32362 3.70165 20
478 2 2.56068 1.48835 5.58824 22
479 2 4.31473 3.94636 5.1321 21
480 2 1.30983 4.02738 6.9467 21
481 2 5.58386 0.533817 7.25044 14
482 2 2.56458 0.493809 8.87148 16
483 2 4.29898 3.09324 8.7576 14
484 2 1.41383 2.87016 10.0253 14
485 2 2.4453 10.3874 0.432465 12
486 2 5.7965 6.74187 0.524614 19
487 2 2.31825 7.09534 2.36682 22
488 2 3.72144 9.09068 2.8452 15
489 2 2.08211 9.39824 5.11973 14
490 2 5.35868 6.89812 3.85762 16
491 2 2.87788 6.70074 5.493 21
492 2 3.53579 5.6267 8.0486 11
493 2 7.59013 3.60069 0.385125 21
494 2 11.2065 0.668145 0.735633 12
495 2 8.54644 1.13638 2.16582 19
496 2 9.97729 3.40334 2.33692 11
497 2 7.21767 4.43874 4.01275 17
498 2 7.45666 1.73975 5.56689 15
499 2 6.23675 5.23708 6.57609 12
500 2 8.32996 6.42944 2.46572 11
