ITEM: TIMESTEP
225000
ITEM: NUMBER OF ATOMS
500
ITEM: BOX BOUNDS pp pp pp
-30.0 30.0
-30.0 30.0
-30.0 30.0
ITEM: ATOMS id type x y z Coordination
1 1 -5.49417 -7.50553 -6.22612 10
2 1 -6.78554 -8.19779 -2.75407 12
3 1 -8.83976 -8.22994 1.81164 9
4 1 -5.94455 -0.0429234 -10.1748 9
5 1 -7.08138 -4.26339 -5.87469 13
6 1 -5.95072 -1.20103 -6.39059 19
7 1 -9.17395 -4.05135 -3.58705 14
8 1 -5.76971 -5.92315 -3.32439 21
9 1 -9.44655 -6.36939 -1.25148 11
10 1 -6.18702 -1.89057 -3.09893 22
11 1 -8.71837 -1.39086 -1.23943 19
12 1 -6.96647 -4.00157 -1.30616 21
13 1 -3.12845 -6.21413 -8.08016 11
14 1 -0.360382 -6.07764 -6.07142 20
15 1 -2.97465 -6.36018 -4.89348 22
16 1 -0.896592 -9.00639 -4.33835 12
17 1 -4.17011 -8.87704 -3.49646 16
18 1 -0.0702979 -6.54453 -2.7044 20
19 1 -3.22254 -6.46207 -1.19828 22
20 1 -1.62325 -8.9349 -1.3882 20
21 1 -4.85535 -3.17259 -8.68494 12
22 1 -0.63135 -1.86716 -9.50828 15
23 1 -3.1138 -0.52184 -7.98298 21
24 1 -1.93363 -3.45159 -7.44674 19
25 1 -4.34039 -3.46714 -5.70502 22
26 1 -0.283393 -1.10711 -6.35828 23
27 1 -3.02551 -0.906129 -4.45055 24
28 1 -1.31058 -3.63136 -4.37298 23
29 1 -3.89189 -3.78181 -2.4988 21
30 1 -0.462734 -0.893924 -2.9199 23
31 1 -3.28817 -0.94554 -1.1469 21
32 1 -1.30092 -3.82877 -1.19895 22
33 2 -5.79898 -8.52712 -4.62407 11
34 2 -7.46335 -6.67251 -1.54499 17
35 2 -5.94105 -3.47852 -7.07107 12
36 2 -8.75562 -3.70867 -5.22385 11
37 2 -6.40699 -5.91702 -5.29456 15
38 2 -9.2381 -4.52398 -1.50852 15
39 2 -7.02118 -1.31474 -4.79915 18
40 2 -9.27327 -2.09402 -3.14953 14
41 2 -6.04032 -4.11112 -3.05576 19
42 2 -10.0263 -7.06168 0.38815 10
43 2 -6.78936 -2.04681 -1.02885 21
44 2 -1.28935 -5.93179 -7.85397 13
45 2 -3.97486 -6.79013 -6.64122 16
46 2 -2.32403 -9.30068 -3.06881 16
47 2 -1.14763 -7.10452 -4.69516 19
48 2 -4.09904 -6.87729 -2.96451 22
49 2 0.562205 -9.77543 -3.55684 12
50 2 -5.53892 -9.32562 -1.67439 13
51 2 -1.34055 -6.9752 -1.43224 22
52 2 2.97664 -1.74347 -9.9528 13
53 2 -4.8535 -1.41596 -9.39901 12
54 2 0.566666 -3.45299 -9.31626 15
55 2 -3.43587 -4.33272 -8.0266 15
56 2 -1.51441 -1.49983 -7.84924 17
57 2 -4.05125 -1.74521 -6.43803 22
58 2 -0.394096 -4.00826 -6.22218 21
59 2 -3.15341 -4.2936 -4.43371 23
60 2 -1.10821 -1.61722 -4.48388 23
61 2 -4.36396 -1.70673 -2.93386 24
62 2 -0.0907783 -4.1102 -2.87215 23
63 2 -3.12883 -4.34954 -0.920326 24
64 2 -1.39899 -1.76715 -1.2135 23
65 1 -10.3473 -3.98925 0.269063 12
66 1 -6.32286 -6.51069 0.213629 21
67 1 -6.12866 -6.5269 3.54506 19
68 1 -5.83263 -6.50572 6.71367 12
69 1 -11.0272 -6.8151 2.08902 8
70 1 -6.13378 -1.12742 0.364688 22
71 1 -9.01286 -1.32351 2.112 20
72 1 -6.97828 -3.764 1.95001 22
73 1 -9.13027 -6.42602 5.01935 11
74 1 -5.9519 -1.15943 3.66548 22
75 1 -10.548 -4.0259 3.62824 12
76 1 -8.70799 -1.55284 5.05657 14
77 1 -5.64998 -2.1065 7.05469 15
78 1 -7.19376 -3.92971 5.10965 16
79 1 -4.56444 -9.40506 0.0160685 13
80 1 -0.250969 -6.52244 0.261128 22
81 1 -3.44577 -6.82012 1.70101 20
82 1 -1.06084 -10.309 1.21289 9
83 1 0.0747566 -7.3526 3.23273 18
84 1 -3.07476 -6.63495 5.09932 18
85 1 -0.379038 -8.04237 6.14368 12
86 1 -2.8139 -7.03284 8.43617 10
87 1 -4.30727 -3.8335 0.586325 24
88 1 -0.0804142 -1.79201 0.446555 22
89 1 -2.95153 -1.41001 1.78962 20
90 1 -1.17563 -4.31998 2.17153 23
91 1 -4.28962 -3.67749 3.78088 22
92 1 0.0643709 -1.81334 3.69382 23
93 1 -2.77493 -1.77819 5.35928 21
94 1 -0.651175 -4.65541 5.33903 23
95 1 -3.66955 -4.29146 7.05177 15
96 1 0.224239 -2.37363 6.9024 21
97 1 -2.38482 -1.05627 8.61417 18
98 1 -0.978646 -3.99151 8.80262 15
99 1 -0.0582876 -1.10252 9.96355 15
100 2 -6.92327 -7.49409 1.77974 14
101 2 -7.0491 -6.24721 5.31178 12
102 2 -10.839 -4.72142 1.96602 13
103 2 -6.1787 -4.59294 0.565256 22
104 2 -9.49613 -7.05336 3.19522 10
105 2 -7.02268 -1.79176 2.12078 21
106 2 -9.92724 -2.35133 3.57698 14
107 2 -6.15929 -4.43856 3.46572 19
108 2 -9.13864 -4.63835 4.97094 13
109 2 -8.81891 0.378312 4.96111 14
110 2 -5.68272 -4.25732 6.58546 16
111 2 -6.99186 -2.09814 5.08188 18
112 2 -4.51966 -7.33765 0.189726 19
113 2 0.143032 -8.97522 1.85744 13
114 2 -2.69397 -9.58494 0.137263 14
115 2 -1.5383 -6.32 1.93321 20
116 2 -4.20891 -6.36768 3.58036 18
117 2 0.162568 -10.4747 -0.295388 12
118 2 -1.24253 -6.95753 4.85963 18
119 2 1.36707 -7.52068 6.31125 12
120 2 -3.88539 -6.62692 6.81608 13
121 2 0.717106 -4.96294 9.28272 13
122 2 -4.22434 -1.73521 0.4428 23
123 2 -0.133571 -3.99451 0.396438 20
124 2 -2.90653 -3.59032 2.22773 21
125 2 -1.09002 -1.06676 2.21643 20
126 2 -3.96974 -1.62145 3.74953 20
127 2 0.301704 -3.77837 3.78505 23
128 2 -2.5152 -3.65443 5.59793 23
129 2 -0.864939 -1.23353 5.38291 21
130 2 -3.86063 -1.54982 7.19261 16
131 2 0.741781 -4.44224 6.77051 23
132 2 -2.64532 -5.07667 8.57836 15
133 2 -0.946137 -2.00096 8.36675 21
134 2 -5.43196 2.68539 8.75215 12
135 2 1.56166 -2.14085 9.92188 15
136 1 -7.36496 1.88787 -7.69188 12
137 1 -9.06796 -0.922673 -4.62613 12
138 1 -5.87327 4.59041 -5.72012 19
139 1 -8.54359 3.39528 -4.97569 12
140 1 -6.51111 0.943965 -4.6012 23
141 1 -9.77623 1.4247 -2.76624 12
142 1 -5.84123 3.85866 -2.70345 23
143 1 -8.75237 4.64878 -2.12272 16
144 1 -6.87647 1.41091 -1.26747 21
145 1 -7.08551 6.63087 -3.91364 13
146 1 -7.12125 7.28112 -0.469017 15
147 1 -0.387746 1.13716 -11.518 7
148 1 -4.10855 2.20115 -9.5501 15
149 1 -1.00824 4.01449 -9.46127 15
150 1 -3.35005 4.55466 -7.70798 17
151 1 -1.40161 1.86725 -7.61768 20
152 1 -4.19377 1.7816 -6.01456 22
153 1 -0.0819827 4.22708 -6.08405 23
154 1 -2.81228 4.47013 -4.82138 21
155 1 -0.807712 1.69676 -4.39881 25
156 1 -3.78919 1.43478 -3.02352 19
157 1 -0.359219 4.50186 -2.69802 23
158 1 -3.18996 4.09538 -1.09092 24
159 1 -1.37656 1.69445 -1.07816 21
160 1 -1.22488 7.08044 -7.74984 13
161 1 -3.85435 7.17797 -5.83896 12
162 1 -5.1292 9.23558 -1.94583 13
163 1 -1.02883 7.12149 -4.66168 19
164 1 -4.17132 6.55709 -2.73645 22
165 1 -1.94618 9.39639 -3.05108 13
166 1 -2.64466 9.61951 0.72587 17
167 1 -1.45993 6.84528 -1.10934 22
168 2 -6.15932 1.42856 -9.01071 11
169 2 -7.27107 3.41683 -6.38099 14
170 2 -6.00072 0.678613 -6.50489 20
171 2 -8.48304 0.852625 -4.04461 16
172 2 -7.46541 4.66109 -3.76684 16
173 2 -9.47817 3.20053 -3.38079 13
174 2 -5.85804 1.90033 -3.07832 23
175 2 -8.87938 0.739976 -1.20996 17
176 2 -6.67252 3.23805 -0.913294 20
177 2 -5.50311 6.40771 -5.00383 15
178 2 -6.42235 7.87176 -2.48223 14
179 2 -8.50626 6.06086 -0.977137 15
180 2 -6.75291 8.32788 0.973983 14
181 2 -3.11975 3.80305 -9.73107 11
182 2 -0.770209 2.04571 -9.6758 16
183 2 -3.21782 1.51732 -7.96828 18
184 2 -1.52115 3.88256 -7.35332 21
185 2 -4.2511 3.72469 -6.21152 23
186 2 -0.278965 0.839685 -6.31601 23
187 2 -2.89498 1.03447 -4.67165 23
188 2 -1.04014 3.64243 -4.37016 22
189 2 -4.0052 3.49761 -3.11211 23
190 2 -0.188916 1.05262 -2.65227 24
191 2 -3.19 0.944682 -1.29189 23
192 2 -1.1816 3.75919 -1.06906 21
193 2 -0.384846 6.10348 -9.22908 11
194 2 -2.89152 6.29824 -7.09829 15
195 2 0.405643 6.90647 -6.70737 16
196 2 -2.87895 6.4096 -4.29012 21
197 2 -0.564459 8.98171 -4.3029 14
198 2 -3.68344 8.56263 -3.16953 14
199 2 -0.193935 6.40549 -2.68546 22
200 2 -3.2531 6.13969 -1.11369 23
201 2 -1.6066 8.99504 -1.10943 14
202 1 -9.4638 1.90426 0.422228 15
203 1 -6.00991 4.04956 0.680321 25
204 1 -9.02177 4.38926 2.6515 15
205 1 -7.14704 1.43984 2.4542 23
206 1 -9.99286 1.44002 3.78954 14
207 1 -5.7804 3.97418 3.89574 20
208 1 -8.64354 3.68093 6.10721 11
209 1 -7.1927 1.01192 5.69159 19
210 1 -5.49022 4.08775 7.17362 17
211 1 -6.99433 1.52075 8.63121 9
212 1 -9.61366 5.64446 0.296546 13
213 1 -5.837 9.93887 1.22151 9
214 1 -6.7995 6.65111 2.08674 17
215 1 -6.84242 6.32653 5.63484 10
216 1 -4.06129 1.35992 0.467366 20
217 1 -0.026362 3.71606 0.528832 20
218 1 -3.04255 4.15835 2.29144 21
219 1 -1.32046 0.908412 2.55809 22
220 1 -3.95257 1.34184 3.85434 20
221 1 -0.522267 3.87191 4.25027 19
222 1 -2.70516 3.44281 5.41171 16
223 1 -1.02698 0.654117 6.12471 22
224 1 -4.17879 0.620153 7.10626 18
225 1 0.513376 4.56499 7.06772 22
226 1 -2.27475 4.85935 7.68768 16
227 1 -1.15581 1.60844 8.6385 19
228 1 -3.65603 2.58314 9.39053 11
229 1 -0.391143 4.31899 9.63581 13
230 1 -4.15977 6.76933 0.389941 22
231 1 0.231291 9.10358 -0.0317803 16
232 1 -3.33055 9.77105 3.97749 11
233 1 -1.0103 6.37675 2.10901 20
234 1 -4.10403 6.95854 3.47207 19
235 1 -0.156045 10.249 3.11768 11
236 1 -1.06458 7.90603 5.12672 16
237 1 -0.454717 7.56535 8.28364 12
238 1 -3.79847 7.51977 6.81697 11
239 1 1.65997 9.42059 5.61488 13
240 2 -9.39699 -2.26079 0.436641 16
241 2 -9.81714 3.73185 0.719479 14
242 2 -6.1579 0.783295 0.859071 23
243 2 -9.34398 1.11352 2.11012 15
244 2 -7.0619 3.4259 2.23692 20
245 2 -6.67138 4.26362 5.74104 16
246 2 -5.9461 0.781091 3.94527 21
247 2 -9.39145 3.09763 4.46651 13
248 2 -7.89978 2.28647 7.08362 11
249 2 -6.1625 -0.0896957 7.04874 14
250 2 -3.69614 4.02437 6.90703 17
251 2 -5.97482 5.97738 0.405703 21
252 2 -8.7092 6.01261 2.01244 12
253 2 -4.22673 9.69894 2.29294 12
254 2 -6.08411 6.02647 3.75721 18
255 2 -5.56315 6.61491 7.14172 10
256 2 -4.12801 3.36488 0.792033 23
257 2 -0.378831 1.64336 0.585713 20
258 2 -3.20346 0.936744 2.06812 21
259 2 -1.06915 4.36358 1.97849 20
260 2 -3.92983 3.60376 3.93094 20
261 2 -0.256046 1.6431 3.96638 21
262 2 -2.83958 1.37349 5.571 21
263 2 -1.10459 4.39186 6.11611 22
264 2 -2.25647 6.83545 7.79006 13
265 2 0.131752 1.05738 7.25589 24
266 2 -3.00502 0.854832 8.64149 15
267 2 0.363022 5.85963 8.67837 13
268 2 -2.01798 3.54952 9.14887 15
269 2 -4.6705 9.76559 -0.263797 12
270 2 0.00357369 6.87981 0.498692 20
271 2 -3.2347 6.39636 1.9481 20
272 2 -0.932446 9.97754 1.36304 12
273 2 -1.46799 9.41884 4.07409 13
274 2 -0.41301 6.68152 4.06346 19
275 2 -3.51117 7.91651 5.00011 12
276 2 0.399392 8.17005 6.54931 13
277 2 1.72929 5.80359 6.08126 20
278 1 0.231919 -5.46388 -8.94525 13
279 1 7.57255 -5.53515 -5.43363 14
280 1 2.60611 -6.879 -7.71005 10
281 1 4.93933 -7.89583 -5.49591 13
282 1 2.35674 -9.02143 -3.43778 14
283 1 2.44672 -6.19743 -4.60575 20
284 1 3.08227 -6.77401 -0.86421 20
285 1 5.07691 -8.43078 -2.41172 13
286 1 1.84447 -0.508106 -10.8791 13
287 1 2.3312 -3.76212 -9.78118 14
288 1 5.03292 -2.1169 -9.62346 10
289 1 2.67206 -0.885815 -8.08387 20
290 1 5.36815 -4.91176 -7.2852 13
291 1 1.52925 -3.72903 -6.18795 23
292 1 5.55766 -0.695972 -6.25833 18
293 1 2.28587 -1.06597 -4.65854 22
294 1 4.36767 -3.40998 -4.83659 21
295 1 1.67095 -3.58975 -2.75779 22
296 1 5.54853 -0.643173 -3.2784 21
297 1 2.52676 -0.894579 -1.32623 20
298 1 4.61113 -2.96219 -1.47249 21
299 1 5.77026 -5.53049 -2.71064 19
300 1 8.66571 -0.634515 -4.48596 16
301 1 7.46239 -2.96246 -7.21846 14
302 1 9.71763 -3.74789 -5.09926 12
303 1 6.88777 -3.15472 -4.02879 21
304 1 11.1252 -2.22077 -2.47869 12
305 1 8.40095 -1.01391 -1.07248 24
306 1 8.80907 -4.56358 -1.92838 16
307 2 1.54634 -6.10482 -6.25543 14
308 2 4.31579 -9.01511 -3.99338 13
309 2 4.47322 -6.64698 -7.06826 12
310 2 1.71413 -7.23468 -3.20599 19
311 2 1.47174 -7.31816 -0.118307 20
312 2 4.52418 -6.80138 -1.99689 18
313 2 1.50977 1.39847 -11.1963 8
314 2 2.24006 -5.561 -9.04707 11
315 2 5.70192 -3.46723 -8.49957 12
316 2 1.85586 -1.83796 -6.54366 21
317 2 6.03077 -4.18486 -5.63119 18
318 2 2.60727 -4.1224 -4.50833 20
319 2 4.21583 -1.30284 -4.68445 23
320 2 1.28762 -1.33534 -3.03616 22
321 2 5.31033 -3.70938 -3.06887 19
322 2 2.6469 -3.41785 -0.99117 21
323 2 4.69267 -0.71013 -1.33539 20
324 2 6.26885 -6.73818 -4.81811 15
325 2 10.2238 -2.03097 -4.06014 13
326 2 8.72081 -4.38545 -6.71042 11
327 2 10.1387 -3.28109 -1.38744 15
328 2 7.41527 -1.29189 -2.74434 22
329 2 8.40737 -4.30776 -3.84276 17
330 2 7.18311 -5.50389 -1.11971 14
331 1 1.60066 -9.04405 0.586003 15
332 1 5.30657 -8.98785 1.02093 12
333 1 3.0864 -6.79747 2.32969 20
334 1 3.95453 -10.8258 -0.573969 10
335 1 0.641506 -10.8289 -1.95913 11
336 1 6.23119 -7.36121 3.44548 10
337 1 2.86898 -6.81038 5.19405 13
338 1 0.87821 -6.36747 7.8259 15
339 1 1.83097 -4.06926 0.485766 22
340 1 5.4769 -1.19202 0.520405 22
341 1 2.83562 -1.3977 1.91688 23
342 1 4.42241 -4.00873 1.60673 19
343 1 2.14965 -4.4455 3.72999 20
344 1 5.83884 -1.63245 3.53002 23
345 1 2.79976 -0.86848 5.34266 23
346 1 5.31175 -5.02424 4.83262 17
347 1 2.61883 -3.94811 6.89671 21
348 1 6.07506 -1.40672 6.7135 15
349 1 2.90894 -1.347 8.72034 20
350 1 5.18022 -3.84381 7.97886 12
351 1 2.16078 -3.83485 10.0452 14
352 1 7.70474 -6.67157 0.390234 11
353 1 7.37524 -3.42297 0.81271 18
354 1 11.3954 -0.585437 0.501681 15
355 1 8.67356 -1.19423 2.00509 20
356 1 10.4545 -3.56791 0.636728 12
357 1 7.87338 -4.45837 3.35388 17
358 1 8.76859 -1.87209 5.45539 12
359 1 8.07232 -4.92326 6.25829 7
360 2 3.32169 -5.51406 0.819707 18
361 2 5.40333 -9.46613 -0.874763 10
362 2 3.4871 -8.70071 1.48933 14
363 2 1.61285 -6.2781 3.47747 21
364 2 2.65728 -10.4103 -1.98303 13
365 2 4.52272 -6.68679 3.9238 14
366 2 -0.872187 -7.38103 7.92645 12
367 2 1.61884 -0.985835 0.43223 20
368 2 5.54218 -3.08225 0.273396 20
369 2 2.61056 -3.28305 2.2391 22
370 2 4.80237 -0.682984 2.28215 21
371 2 1.67802 -0.623045 3.61638 23
372 2 6.43993 -3.25345 2.6309 17
373 2 3.44449 -4.87207 5.35285 19
374 2 4.80686 -1.1259 5.17392 22
375 2 2.08153 -1.92926 6.91875 21
376 2 6.28052 -4.50425 6.51154 14
377 2 3.43301 -4.33145 8.59205 12
378 2 4.89951 -1.93627 8.10167 16
379 2 0.0276608 0.61474 9.96959 15
380 2 6.56973 -7.54645 1.60053 12
381 2 7.19976 -5.97081 4.53493 11
382 2 7.528 -1.413 0.497527 22
383 2 8.78685 -4.37162 1.6436 15
384 2 10.4348 -1.77295 1.49594 13
385 2 7.89837 -1.09355 3.9806 17
386 2 8.66193 -3.73892 5.11872 12
387 2 7.94663 -0.825651 6.71216 11
388 1 1.42549 2.22755 -9.40154 18
389 1 2.76603 3.88082 -7.43607 19
390 1 4.60177 1.31386 -7.84129 12
391 1 1.71726 1.59531 -6.1022 23
392 1 5.77211 3.78974 -6.09918 15
393 1 2.99927 4.55047 -4.35597 25
394 1 4.07221 1.92797 -4.39405 23
395 1 1.6125 1.91684 -2.8413 23
396 1 5.59794 4.1138 -2.4999 22
397 1 2.64725 4.14937 -1.09218 21
398 1 4.70287 1.67584 -1.0664 20
399 1 1.57485 6.06969 -8.96871 12
400 1 4.80429 6.65927 -7.47551 11
401 1 2.20195 6.95519 -6.26894 17
402 1 1.25744 9.62426 -4.35876 12
403 1 4.12228 8.23312 -4.96193 13
404 1 1.6795 7.18291 -2.70762 22
405 1 3.1846 9.6526 -1.24181 10
406 1 4.55476 7.07461 -1.97281 19
407 1 8.45348 3.24158 -4.26381 13
408 1 6.59518 6.13689 -4.33619 14
409 1 9.12281 4.32029 -0.83685 18
410 1 7.36389 1.83538 -2.48163 21
411 1 12.2018 2.95063 0.672826 8
412 1 10.228 1.47155 -1.37694 16
413 1 7.38613 7.26739 -1.3434 12
414 2 -0.0442325 -0.840907 -10.8717 11
415 2 1.70556 4.09207 -9.02662 15
416 2 4.66967 -1.00729 -8.25606 14
417 2 2.48162 1.2346 -7.77826 22
418 2 4.62601 3.4807 -7.57407 16
419 2 1.78758 3.86806 -5.94846 24
420 2 4.87295 1.22896 -5.97008 18
421 2 2.14431 0.834225 -4.3641 21
422 2 4.80176 3.9264 -4.28563 22
423 2 1.80677 3.97305 -2.92843 23
424 2 5.3954 1.61373 -2.91348 20
425 2 2.63262 1.49082 -1.23428 19
426 2 4.65064 3.57256 -0.881185 22
427 2 3.11601 6.15171 -8.01716 14
428 2 5.01953 6.61341 -5.65947 15
429 2 2.74369 6.50987 -4.21716 22
430 2 2.56698 8.89713 -5.69137 11
431 2 2.28899 9.30022 -2.84471 13
432 2 6.15305 6.0822 -2.45768 17
433 2 2.90448 6.54943 -1.01116 20
434 2 4.87921 8.70604 -0.872368 12
435 2 7.21688 -1.49562 -5.81179 17
436 2 7.27233 4.50405 -5.10808 11
437 2 8.34973 1.36861 -4.18513 14
438 2 8.26594 3.70529 -2.3514 18
439 2 10.8205 -0.600377 -1.34875 14
440 2 8.54516 1.00978 -0.949336 21
441 2 11.5376 2.77038 -1.1947 9
442 2 8.77522 6.19094 -0.577096 9
443 1 1.55057 1.25912 0.535103 21
444 1 5.71639 3.8008 0.864042 16
445 1 3.10429 4.09641 2.52267 19
446 1 4.68626 1.17269 2.35157 20
447 1 1.62811 1.44675 3.87253 20
448 1 6.16061 3.50221 3.88471 22
449 1 2.91596 3.97746 5.74463 20
450 1 4.77816 1.10779 5.12634 23
451 1 2.002 1.40409 7.23942 21
452 1 6.09588 3.1516 7.16881 17
453 1 3.49678 4.52666 8.58461 16
454 1 4.5511 1.28556 9.03623 14
455 1 1.67919 1.63579 9.90271 14
456 1 1.85814 6.24948 0.514308 18
457 1 5.45772 8.67648 0.95429 13
458 1 2.60236 9.3932 2.27903 16
459 1 4.66934 6.51724 3.00968 18
460 1 1.51468 6.38549 4.00642 22
461 1 4.73758 8.70007 4.73034 13
462 1 5.55373 5.7232 6.18847 17
463 1 2.73662 7.14305 7.01397 15
464 1 7.71267 1.81448 0.598238 22
465 1 9.14973 4.24086 2.33744 17
466 1 10.6141 1.73764 2.89894 12
467 1 7.82667 0.938227 3.94302 21
468 1 8.88346 3.73582 5.74527 12
469 1 7.74342 0.813241 7.63955 12
470 1 8.78832 7.47839 1.08839 9
471 1 7.73026 6.66048 4.4664 12
472 2 1.72606 4.03703 0.581085 19
473 2 5.72086 1.86438 0.69293 22
474 2 2.89401 1.73462 2.3858 22
475 2 5.04865 4.42538 2.60313 20
476 2 1.90899 4.19468 4.02503 19
477 2 6.06966 1.50923 3.72244 20
478 2 3.06249 1.12708 5.58414 22
479 2 4.76352 3.93133 5.48415 20
480 2 2.21388 3.43347 7.44235 20
481 2 5.47723 0.920686 7.12707 18
482 2 2.87339 0.63234 8.80679 17
483 2 4.76198 3.11559 8.51459 16
484 2 1.04984 3.3137 10.4217 12
485 2 2.15687 9.42176 0.412904 15
486 2 7.28445 8.14574 0.315067 9
487 2 2.82714 6.38367 2.49052 19
488 2 4.57646 8.50334 2.57877 12
489 2 1.51797 9.62915 3.7378 14
490 2 5.65285 6.95264 4.74093 14
491 2 3.28365 8.57606 5.90271 13
492 2 4.2398 6.09187 7.56761 13
493 2 7.75607 3.86852 0.550384 20
494 2 11.4556 1.16672 1.18358 12
495 2 8.89974 0.899382 2.25507 18
496 2 11.1969 3.44263 2.34928 10
497 2 8.72795 3.0017 3.97394 14
498 2 8.03499 2.48282 6.83365 13
499 2 7.54847 5.19154 5.60488 13
500 2 8.59631 6.16783 2.60142 15
