ITEM: TIMESTEP
256000
ITEM: NUMBER OF ATOMS
500
ITEM: BOX BOUNDS pp pp pp
-30.0 30.0
-30.0 30.0
-30.0 30.0
ITEM: ATOMS id type x y z Coordination
1 1 -6.00806 -5.82474 -6.44364 13
2 1 -4.88527 -9.10255 0.338393 14
3 1 -8.84334 -7.97179 1.40668 9
4 1 -5.71828 -0.666594 -9.43844 10
5 1 -7.24017 -4.26964 -4.59252 15
6 1 -6.29845 -1.72701 -6.72068 17
7 1 -10.0798 -3.24991 -2.89225 11
8 1 -6.4885 -6.82709 -2.97407 16
9 1 -9.34714 -6.39843 -1.26553 12
10 1 -5.90382 -1.16404 -2.96121 20
11 1 -8.8024 -0.845753 -1.18224 18
12 1 -7.49329 -3.81812 -1.39799 22
13 1 -2.9688 -6.1134 -8.11962 14
14 1 -0.366551 -6.66802 -6.26109 17
15 1 -3.25034 -6.35559 -4.75713 21
16 1 -1.47811 -9.1583 -4.6048 10
17 1 -4.60036 -9.22645 -3.15083 11
18 1 -0.441499 -6.6799 -2.87592 21
19 1 -3.18762 -6.70122 -1.49411 21
20 1 -2.22379 -10.2096 -2.02146 14
21 1 -3.59527 -3.31564 -10.0492 9
22 1 0.365639 -2.38036 -9.45363 15
23 1 -2.89213 -0.667569 -7.76366 19
24 1 -1.3585 -3.49736 -7.84223 21
25 1 -4.16627 -3.4348 -6.45318 19
26 1 -0.185262 -1.04311 -6.18024 20
27 1 -3.14678 -1.22146 -4.65801 22
28 1 -1.41642 -3.87398 -4.55892 20
29 1 -4.3408 -4.16584 -3.31968 23
30 1 -0.37092 -1.06293 -2.78907 23
31 1 -3.39043 -1.04276 -1.55674 23
32 1 -1.63954 -4.1103 -1.66697 22
33 2 -3.18533 -9.83369 -4.06199 8
34 2 -7.52105 -6.69637 -1.41231 14
35 2 -6.0778 -3.74406 -6.40788 14
36 2 -8.86846 -3.40923 -4.52834 11
37 2 -6.96486 -6.3471 -4.86946 11
38 2 -9.40031 -4.16722 -1.34929 17
39 2 -6.97969 -0.831476 -4.81752 18
40 2 -9.90442 -1.26164 -2.84764 12
41 2 -6.21331 -4.50553 -2.90255 21
42 2 -9.96721 -6.28454 0.340051 12
43 2 -6.91497 -1.94161 -1.30871 24
44 2 -0.879498 -6.65134 -8.09811 12
45 2 -4.12451 -6.08611 -6.62872 14
46 2 -0.626209 -9.61708 -3.02753 13
47 2 -1.42924 -7.10237 -4.60746 19
48 2 -4.41396 -7.16402 -3.11359 21
49 2 1.695 -7.25732 -2.83352 18
50 2 -3.96611 -9.39221 -1.31859 13
51 2 -1.34786 -6.95184 -1.23492 22
52 2 5.19647 -4.1047 -9.847 11
53 2 -4.022 -1.41081 -9.28655 13
54 2 0.110708 -4.1447 -9.08524 16
55 2 -3.15594 -3.9915 -8.28936 15
56 2 -0.999931 -1.51797 -7.89608 20
57 2 -4.41431 -1.45194 -6.32348 21
58 2 -0.269168 -4.30708 -5.88348 23
59 2 -3.22153 -4.14627 -4.79811 21
60 2 -0.997431 -1.65025 -4.37698 23
61 2 -4.12898 -2.06348 -2.97756 22
62 2 -0.49975 -4.80957 -2.96416 23
63 2 -3.5186 -4.70702 -1.53985 23
64 2 -1.52911 -1.79329 -1.07592 20
65 1 -10.235 -3.45608 0.215001 16
66 1 -6.42367 -6.29149 0.0846342 22
67 1 -6.21109 -6.44966 3.09345 21
68 1 -6.46962 -6.47744 6.66137 14
69 1 -11.0946 -5.88627 1.85278 9
70 1 -6.18146 -0.944439 0.473286 22
71 1 -9.05174 -0.762499 2.13184 18
72 1 -7.45163 -3.56841 1.94153 22
73 1 -9.22297 -6.5508 4.72796 12
74 1 -6.23766 -1.38402 3.89976 20
75 1 -10.1543 -3.39619 3.69858 15
76 1 -9.15785 -0.917361 5.34519 15
77 1 -6.0869 -2.2086 7.05374 14
78 1 -7.32956 -3.94682 5.19123 18
79 1 -3.81039 -8.9864 3.3909 11
80 1 -0.606469 -6.73896 0.445138 19
81 1 -3.65367 -6.20951 1.60898 24
82 1 -1.49562 -9.79079 0.958372 12
83 1 -0.48494 -6.7492 3.36457 18
84 1 -3.53331 -6.71604 5.00368 20
85 1 -0.362808 -8.2674 6.02497 12
86 1 -3.18587 -7.4206 8.26036 11
87 1 -4.68739 -3.70631 0.0338518 23
88 1 -0.377783 -2.02259 0.463054 18
89 1 -3.1438 -1.07878 2.08821 23
90 1 -1.69702 -3.759 2.17984 22
91 1 -4.39182 -4.08383 3.7153 22
92 1 -0.0752728 -1.30975 3.74431 21
93 1 -2.95743 -1.972 5.47773 23
94 1 -1.48592 -4.87396 5.54711 19
95 1 -4.19401 -4.24659 7.22968 17
96 1 -0.0857805 -2.43259 7.20496 23
97 1 -3.15276 -1.82232 9.04049 15
98 1 -1.49875 -4.6212 8.97834 15
99 1 0.108439 -2.05627 10.4549 12
100 2 -7.25591 -7.17257 1.87505 16
101 2 -7.77437 -7.22974 5.66678 10
102 2 -10.387 -4.10402 1.93805 12
103 2 -6.48215 -4.35248 0.525739 23
104 2 -9.82379 -7.21805 2.88374 10
105 2 -6.97214 -1.69869 2.25142 23
106 2 -9.5003 -1.72656 3.67975 14
107 2 -6.5346 -4.56967 3.41107 22
108 2 -9.20004 -4.62399 4.7295 15
109 2 -8.41203 0.772351 5.04797 14
110 2 -6.10932 -4.40523 6.81824 14
111 2 -7.35717 -1.80715 5.6393 16
112 2 -4.56478 -7.1065 0.0887099 21
113 2 0.466899 -9.53367 1.65844 13
114 2 -3.33816 -9.64859 1.69012 11
115 2 -1.77373 -6.61324 1.85715 20
116 2 -4.52294 -7.01269 3.30723 17
117 2 -0.93706 -10.6774 -0.710811 10
118 2 -1.44787 -6.78457 5.05988 17
119 2 1.28677 -7.56634 6.93801 13
120 2 -4.71436 -6.99498 6.55242 14
121 2 -0.119073 -6.14452 9.74128 12
122 2 -4.21089 -1.71193 0.186379 21
123 2 -0.719173 -4.04751 0.501886 21
124 2 -3.6004 -4.25735 1.93428 21
125 2 -1.32755 -1.74171 2.34795 21
126 2 -3.9375 -1.57115 3.83654 21
127 2 -0.837933 -4.45233 3.71083 23
128 2 -3.39419 -4.65831 5.17952 22
129 2 -1.05426 -1.5068 5.74627 23
130 2 -4.02089 -2.21539 7.18518 19
131 2 -0.426138 -4.40841 7.10812 21
132 2 -3.21981 -5.38002 8.63331 15
133 2 -1.4333 -2.79103 9.39153 16
134 2 -4.86241 1.81753 9.18829 11
135 2 1.53396 -3.3452 10.4113 14
136 1 -7.15071 1.29608 -7.83312 12
137 1 -8.79528 -1.48016 -4.36879 14
138 1 -5.85348 4.23702 -6.96003 16
139 1 -8.91179 3.85981 -4.82084 11
140 1 -6.80064 1.14876 -4.86788 18
141 1 -9.38155 1.94743 -2.77143 15
142 1 -5.66243 4.33537 -2.60857 20
143 1 -8.75012 4.24243 -1.35237 16
144 1 -6.79223 1.70617 -1.12704 23
145 1 -6.72274 6.63692 -4.19698 11
146 1 -6.83578 6.95526 -1.11177 17
147 1 0.555322 0.87546 -11.1301 8
148 1 -4.49245 2.32818 -9.36319 14
149 1 -0.0611496 3.80738 -9.73324 11
150 1 -3.0459 4.85846 -8.06476 18
151 1 -1.32877 1.55048 -8.10598 15
152 1 -4.09389 1.74521 -6.14229 21
153 1 -0.671864 4.67327 -6.16944 19
154 1 -3.12206 4.4431 -4.48306 22
155 1 -1.45636 1.57235 -4.80902 22
156 1 -4.17314 1.65399 -2.89524 23
157 1 -0.179449 4.51925 -2.8426 23
158 1 -2.98297 4.66616 -1.20216 23
159 1 -1.20639 1.92989 -1.20134 21
160 1 -1.22661 7.65093 -7.43543 14
161 1 -4.33424 7.0274 -6.20035 14
162 1 -5.39986 10.3096 -1.54924 9
163 1 -1.17866 7.12139 -4.15336 21
164 1 -3.83216 7.20203 -2.6072 19
165 1 -2.13303 9.99052 -3.30658 11
166 1 -2.61456 10.5415 0.193213 11
167 1 -0.943996 6.94609 -0.644618 20
168 2 -6.01986 1.21189 -9.39612 12
169 2 -6.03008 2.15052 -6.40613 18
170 2 -7.07764 -0.527112 -7.86608 10
171 2 -8.45955 2.05451 -4.6693 13
172 2 -7.2353 4.71591 -3.94966 16
173 2 -9.91584 4.00637 -3.04111 9
174 2 -6.03532 0.760993 -2.71998 22
175 2 -8.73754 1.21221 -1.03257 17
176 2 -6.77035 3.66586 -1.18754 22
177 2 -6.08249 6.29851 -6.0348 13
178 2 -5.40169 6.27272 -2.57909 19
179 2 -8.68418 6.25863 -0.606567 13
180 2 -5.99694 8.65174 -0.823066 14
181 2 -4.73368 4.16981 -8.66228 13
182 2 -0.362936 1.90267 -9.86703 12
183 2 -3.14917 1.32713 -8.15574 18
184 2 -1.41563 3.97186 -8.38922 18
185 2 -3.88865 3.95125 -6.09664 20
186 2 -0.451401 1.06685 -6.41652 19
187 2 -3.33912 0.684104 -4.55332 24
188 2 -1.12221 3.52917 -4.5975 22
189 2 -3.84083 3.57525 -2.74655 24
190 2 -0.54347 1.14998 -3.05584 23
191 2 -3.10214 1.15824 -1.1698 21
192 2 -1.25646 4.12914 -1.24699 19
193 2 0.314424 6.90186 -8.59266 12
194 2 -2.92998 6.69705 -7.29065 14
195 2 -0.604207 6.51998 -5.98598 19
196 2 -3.0352 6.55145 -4.47504 23
197 2 -0.741517 9.0901 -4.46234 13
198 2 -4.05836 9.34087 -2.88359 12
199 2 -0.240262 6.7105 -2.4913 21
200 2 -2.94647 6.78793 -0.781055 20
201 2 -1.45137 10.553 -1.58218 11
202 1 -9.27667 2.24053 0.595079 14
203 1 -5.77551 4.16741 0.654674 23
204 1 -9.17876 5.63991 4.24392 10
205 1 -6.2009 1.54779 2.60118 22
206 1 -8.84713 2.31489 4.05358 14
207 1 -5.93895 4.09409 4.42967 19
208 1 -7.75096 4.05951 6.95257 12
209 1 -6.77524 0.955207 5.94275 18
210 1 -5.01541 5.95494 8.11019 9
211 1 -6.57738 1.19556 8.83454 8
212 1 -9.42464 5.84535 1.05099 9
213 1 -5.54757 9.23792 0.971254 11
214 1 -6.78169 6.46992 2.28042 17
215 1 -6.37371 7.03247 5.71041 14
216 1 -4.05954 1.48513 0.490508 22
217 1 -0.349608 3.87512 0.578401 21
218 1 -3.02698 3.93187 2.33405 22
219 1 -1.57917 1.77615 2.30758 19
220 1 -3.65721 0.550853 4.20432 19
221 1 -0.00331524 4.21 4.43275 20
222 1 -2.87709 3.31117 5.81091 17
223 1 -1.29679 0.238504 6.06576 20
224 1 -4.33797 0.39356 7.50611 18
225 1 0.111912 3.58476 7.50742 18
226 1 -1.98301 5.45846 7.66388 15
227 1 -1.18351 0.969051 9.03472 17
228 1 -3.55385 3.05882 9.18996 12
229 1 -0.531066 4.08049 10.3224 12
230 1 -4.10643 6.82135 0.863869 18
231 1 0.223473 10.486 -1.10234 13
232 1 -1.95146 9.74462 3.53774 13
233 1 -0.757567 6.16609 2.50281 19
234 1 -4.01688 7.04719 3.64714 16
235 1 0.0476665 9.39007 1.45388 16
236 1 -0.240453 7.78841 6.00914 18
237 1 1.34897 6.15987 8.2255 14
238 1 -3.20333 8.42054 6.3727 10
239 1 1.22528 10.5054 4.37493 13
240 2 -8.87238 -2.02902 0.423832 17
241 2 -9.57493 4.02056 0.462361 12
242 2 -5.95519 1.12619 0.594507 23
243 2 -8.94568 1.42676 2.14274 16
244 2 -6.12135 3.559 2.69565 18
245 2 -6.55663 5.47098 7.17658 10
246 2 -5.80015 0.611961 4.049 22
247 2 -8.18895 4.01266 4.86532 15
248 2 -7.22548 2.23601 7.31336 12
249 2 -6.40708 -0.202761 7.45002 15
250 2 -3.71659 4.62339 8.104 13
251 2 -6.01959 6.12487 0.46555 22
252 2 -8.53531 6.34163 2.68747 12
253 2 -5.14806 8.05964 2.39609 13
254 2 -5.7536 6.06647 4.15804 19
255 2 -4.80899 7.65677 7.00381 10
256 2 -3.67024 3.52556 0.399818 25
257 2 -0.431098 1.73857 0.723644 21
258 2 -3.34949 0.949459 2.18978 20
259 2 -0.895688 4.04562 2.4204 21
260 2 -4.03453 3.54237 4.27834 17
261 2 -0.585078 0.739068 4.01742 21
262 2 -3.31118 1.23173 5.93716 21
263 2 -1.00948 4.18113 6.03299 20
264 2 -1.70254 7.37957 7.05791 13
265 2 -0.271003 1.18032 7.32191 20
266 2 -2.4863 -0.104975 8.12627 17
267 2 -0.138749 5.16922 8.65322 13
268 2 -1.70517 2.84092 9.11468 17
269 2 -4.54802 10.792 0.0238821 8
270 2 -0.06003 7.32607 1.16088 20
271 2 -2.80627 5.97748 2.14612 18
272 2 -1.67148 10.2066 1.86241 12
273 2 -0.556123 9.488 4.85319 13
274 2 0.0404143 6.18992 4.24201 18
275 2 -3.1284 8.57184 4.48192 14
276 2 1.4233 7.46547 6.92842 15
277 2 3.04632 6.05461 5.05301 20
278 1 0.321418 -5.93038 -9.42985 13
279 1 9.60449 -4.90951 -4.72808 11
280 1 2.85058 -6.38543 -7.61567 15
281 1 5.36401 -7.32337 -5.85437 7
282 1 1.27248 -9.38851 -2.69413 13
283 1 2.43483 -6.66942 -4.3279 21
284 1 2.41768 -6.82741 -1.03939 21
285 1 5.28524 -6.80491 -2.56814 17
286 1 2.80078 -0.0702035 -10.0413 10
287 1 3.27068 -4.26829 -9.94218 11
288 1 6.89568 -4.52963 -10.0618 6
289 1 3.11278 -1.92259 -7.40493 20
290 1 5.05933 -4.20104 -7.57872 16
291 1 1.58732 -3.92753 -6.26959 23
292 1 5.32427 -1.23138 -6.03529 19
293 1 2.31616 -1.23539 -4.427 19
294 1 4.23303 -3.75951 -4.18474 21
295 1 1.53864 -3.96568 -2.54134 22
296 1 5.29991 -1.06283 -2.8411 25
297 1 2.70797 -1.30142 -0.95999 20
298 1 4.07109 -4.03345 -1.11898 23
299 1 8.65181 -6.70901 -1.83649 11
300 1 7.59625 0.493133 -5.96055 14
301 1 7.58324 -3.18281 -6.80592 11
302 1 6.99905 -4.07498 -2.90166 18
303 1 8.38816 -1.80259 -4.48474 19
304 1 11.3163 -2.73283 -5.32114 8
305 1 8.02995 -1.3221 -0.92174 22
306 1 11.568 -4.27986 -2.09179 11
307 2 1.6823 -6.80899 -6.10208 16
308 2 5.5727 -3.24751 -5.96427 18
309 2 4.91213 -6.24288 -7.25635 13
310 2 4.34388 -6.83016 -4.28948 13
311 2 1.24503 -6.90144 0.578207 19
312 2 6.69082 -6.32648 -1.32857 14
313 2 2.40197 1.58813 -10.5249 10
314 2 2.26505 -5.72625 -9.29154 12
315 2 7.22363 -4.19774 -8.3645 8
316 2 1.63718 -1.57576 -6.12362 20
317 2 2.92129 -3.78931 -7.96682 17
318 2 2.24532 -3.99618 -4.36217 20
319 2 4.22131 -1.62968 -4.42357 19
320 2 1.4189 -1.7553 -2.4746 21
321 2 5.12603 -4.56779 -2.60165 21
322 2 2.28813 -4.92018 -1.09544 23
323 2 4.38987 -2.01958 -1.28494 23
324 2 8.26803 -5.37113 -3.36563 12
325 2 8.3868 0.202334 -4.16743 21
326 2 9.36924 -3.17057 -5.92766 13
327 2 11.3692 -4.19347 -3.89937 10
328 2 7.1421 -2.11445 -2.80791 20
329 2 10.3298 -5.48614 -1.11064 12
330 2 11.3562 -2.57184 -1.26098 12
331 1 1.77394 -8.42886 2.27685 14
332 1 5.51274 -6.36453 0.085885 17
333 1 5.23118 -8.40503 3.00773 10
334 1 3.67666 -9.17416 0.0472655 14
335 1 0.90632 -10.7211 0.0489966 11
336 1 7.39944 -6.03977 2.84896 13
337 1 2.69451 -7.83313 5.37391 11
338 1 -0.0210641 -7.80514 8.76651 9
339 1 1.12241 -4.76652 0.695482 20
340 1 5.29587 -1.52886 0.83718 22
341 1 2.33013 -1.77536 2.39922 20
342 1 4.23187 -4.6786 2.20609 22
343 1 1.36751 -4.14596 3.89856 20
344 1 5.21329 -1.96696 4.13821 24
345 1 2.44348 -1.25164 5.87777 19
346 1 4.17355 -5.40179 5.136 14
347 1 1.41909 -5.45138 7.13899 19
348 1 5.62925 -1.13285 7.14619 15
349 1 2.78928 -2.42898 9.1679 15
350 1 4.48438 -4.39637 8.08094 12
351 1 1.56259 -5.26329 10.1106 12
352 1 10.1452 -5.67681 0.727965 11
353 1 6.97663 -4.09816 0.211451 21
354 1 11.3807 -1.31952 -2.69814 14
355 1 8.19338 -1.3908 1.95869 19
356 1 11.1178 -2.30414 0.54301 12
357 1 9.57949 -3.92546 2.84848 13
358 1 8.52219 -1.53742 5.30521 12
359 1 6.5737 -4.05616 5.10192 15
360 2 6.22605 -7.18032 2.01741 13
361 2 4.31272 -7.70202 -1.01631 17
362 2 3.78505 -8.56842 1.65494 15
363 2 1.11068 -7.87455 3.93037 14
364 2 2.04166 -9.71767 -1.01907 12
365 2 4.24488 -7.19655 4.43414 14
366 2 -1.47869 -8.44942 7.69647 9
367 2 1.42449 -1.37798 0.659435 20
368 2 5.01074 -4.54063 0.453175 20
369 2 2.38845 -3.85428 2.1186 20
370 2 4.19129 -1.19729 2.54362 20
371 2 1.68805 -2.16652 4.30005 19
372 2 4.73763 -3.76377 3.80098 19
373 2 2.28354 -5.42077 5.26632 20
374 2 4.40253 -0.941523 5.55848 18
375 2 1.66782 -1.55875 7.69306 20
376 2 5.60936 -4.7435 6.60779 12
377 2 2.72133 -4.89354 8.59921 14
378 2 4.53812 -1.94459 8.53672 14
379 2 0.220623 -0.177252 10.0715 15
380 2 8.24514 -5.08936 1.33335 15
381 2 8.0472 -4.76628 4.00799 14
382 2 6.845 -2.25461 0.507544 21
383 2 10.8574 -3.83358 1.49793 11
384 2 9.4036 -1.03833 0.414226 15
385 2 9.09304 -2.12373 3.6556 15
386 2 6.80357 -2.22767 5.89227 15
387 2 8.18354 0.301705 5.75184 12
388 1 3.05044 3.0847 -9.56857 12
389 1 4.54717 4.91313 -8.07735 12
390 1 4.57294 1.08443 -7.73511 16
391 1 1.20944 2.13641 -6.06188 18
392 1 6.19843 3.53736 -5.52057 17
393 1 2.86084 4.10111 -4.34828 17
394 1 4.70002 1.07556 -4.49126 19
395 1 1.10629 1.87537 -2.16384 20
396 1 5.55217 3.10589 -2.57235 20
397 1 2.85669 4.34704 -0.904708 20
398 1 4.40188 1.2202 -0.654779 22
399 1 1.97468 6.34946 -9.18285 10
400 1 3.84517 7.86152 -6.67139 11
401 1 1.51903 6.2244 -6.12559 18
402 1 1.11907 9.11104 -4.773 13
403 1 4.74585 6.96665 -3.99586 17
404 1 1.89177 6.94426 -2.90773 21
405 1 2.8817 8.92494 -1.4931 15
406 1 4.60985 6.80963 -0.88002 21
407 1 8.77446 3.60281 -4.65953 15
408 1 7.11721 6.5703 -5.95248 10
409 1 8.75084 3.42609 -0.682865 16
410 1 7.52178 1.28512 -2.44924 24
411 1 11.642 2.50133 -2.49378 8
412 1 10.1888 0.736742 -4.4668 14
413 1 7.47829 5.73163 -2.57791 14
414 2 1.0131 -0.964155 -10.3456 9
415 2 1.7888 4.53117 -9.52378 12
416 2 3.60063 -0.462914 -8.39978 13
417 2 4.31672 2.96012 -8.06157 14
418 2 6.08228 5.16338 -6.87257 12
419 2 1.33602 4.25335 -5.56329 18
420 2 5.71552 0.793582 -6.36069 15
421 2 2.70972 1.01986 -5.15836 20
422 2 4.703 3.25002 -4.36537 18
423 2 1.60911 3.86093 -2.58446 20
424 2 5.57334 0.833693 -2.43658 19
425 2 2.42897 0.767287 -0.919475 19
426 2 4.29877 3.11308 -0.768388 22
427 2 3.21769 6.23284 -7.79596 13
428 2 5.43105 7.37439 -5.58161 12
429 2 2.94946 6.17646 -4.11471 20
430 2 1.9652 8.11517 -5.92139 16
431 2 2.03785 8.80185 -3.14446 15
432 2 5.54766 6.4568 -2.43425 19
433 2 2.68784 6.21781 -1.16699 21
434 2 4.38 8.69696 -0.258437 14
435 2 7.20784 -1.27828 -6.02042 18
436 2 8.13657 5.33451 -4.48413 13
437 2 7.71562 2.43445 -5.76849 16
438 2 7.40219 3.30576 -2.12157 21
439 2 10.7012 -1.18926 -4.49581 13
440 2 8.13376 0.693802 -0.752459 21
441 2 10.2357 2.6059 -3.78688 13
442 2 8.07442 5.49254 -0.910848 14
443 1 1.402 0.917085 0.720571 19
444 1 5.45094 4.03402 0.86721 21
445 1 2.57785 3.7188 2.56513 23
446 1 4.12719 0.986367 2.27233 22
447 1 1.23147 1.57678 4.00582 21
448 1 5.58722 3.48704 4.02257 20
449 1 2.68498 4.24201 5.93174 21
450 1 4.09432 0.978986 5.28502 21
451 1 1.67509 0.462992 7.66754 22
452 1 5.57742 3.40607 7.38306 17
453 1 3.06101 3.68551 9.20613 14
454 1 4.67211 0.943822 9.16947 12
455 1 1.39574 1.18105 10.4878 13
456 1 1.73605 6.48969 0.698636 22
457 1 5.64688 9.25124 0.999858 12
458 1 2.99284 9.35164 1.47471 18
459 1 4.84815 6.87784 2.29607 22
460 1 1.92734 6.97675 3.85496 24
461 1 4.81287 9.70352 4.62678 12
462 1 4.86279 6.0228 5.74684 16
463 1 3.04726 8.50441 6.65371 10
464 1 7.60165 1.43411 0.964195 21
465 1 7.98384 3.98094 2.62065 17
466 1 10.3852 0.84845 -0.520443 15
467 1 7.66784 1.05016 4.19487 18
468 1 7.94325 4.56109 5.66344 12
469 1 7.8255 1.39801 7.10988 13
470 1 7.5886 6.23198 0.780339 14
471 1 7.41446 7.21261 3.62789 13
472 2 1.61001 4.63793 0.83392 21
473 2 5.48534 0.582233 0.726439 22
474 2 2.35195 1.32822 2.40054 20
475 2 4.50403 3.72549 2.451 23
476 2 1.60412 3.48955 4.49403 18
477 2 5.32826 1.46143 4.01164 21
478 2 2.04571 0.89627 5.52193 19
479 2 4.66984 3.91123 5.69722 18
480 2 2.24597 4.38214 7.72921 18
481 2 6.04888 0.749544 7.57529 15
482 2 2.92717 1.14747 9.20941 15
483 2 4.54648 2.84647 8.75173 14
484 2 1.14051 3.08386 10.0762 14
485 2 1.43949 9.75185 0.0689314 14
486 2 5.64502 6.00589 0.641292 20
487 2 2.95717 7.15224 2.16474 21
488 2 4.62605 9.55939 2.67809 13
489 2 1.48372 10.0402 2.5907 14
490 2 6.3533 8.02404 2.23482 14
491 2 2.56492 9.89529 5.27942 12
492 2 4.69781 8.02003 5.74132 12
493 2 7.31329 3.29512 0.915661 21
494 2 10.9932 0.573121 -2.40696 13
495 2 7.59954 0.309445 2.56114 19
496 2 10.5362 2.64158 -0.736819 11
497 2 7.75732 3.09622 4.24632 16
498 2 7.47584 3.41246 7.12131 12
499 2 6.79991 6.21718 5.37046 14
500 2 7.74255 5.72654 2.48607 14
