ITEM: TIMESTEP
377000
ITEM: NUMBER OF ATOMS
500
ITEM: BOX BOUNDS pp pp pp
-30.0 30.0
-30.0 30.0
-30.0 30.0
ITEM: ATOMS id type x y z Coordination
1 1 -3.87733 -3.32466 -6.1468 21
2 1 -4.39146 -9.46515 0.11319 11
3 1 -10.9243 -8.76587 1.89997 6
4 1 -3.31272 -0.696543 -11.1029 9
5 1 -6.96822 -3.58445 -4.81143 23
6 1 -6.0028 -0.812198 -6.23748 18
7 1 -10.4765 -3.56764 -2.98561 10
8 1 -4.58825 -8.83977 -2.96741 15
9 1 -8.33494 -5.81126 -2.5155 14
10 1 -5.48284 -0.728785 -3.07557 24
11 1 -8.7194 -0.859305 -1.65877 17
12 1 -6.91467 -3.7573 -1.17517 21
13 1 -9.30747 -6.02125 -5.71073 8
14 1 -0.0711836 -7.19236 -6.59315 14
15 1 -6.19773 -7.04929 -5.2481 12
16 1 2.75545 -7.79822 -7.2833 10
17 1 -2.15108 -7.96305 -4.3293 16
18 1 -0.219964 -6.88293 -2.30737 22
19 1 -3.14443 -6.63229 -1.03205 22
20 1 5.68217 -6.65853 -5.77995 13
21 1 -7.68548 -3.0593 -7.3742 11
22 1 0.431517 -1.76728 -8.9833 18
23 1 -2.71971 -0.812481 -7.30129 21
24 1 -1.34239 -3.64915 -7.83245 23
25 1 -3.79989 -6.04978 -5.36546 14
26 1 0.0603615 -1.11824 -5.85588 21
27 1 -2.97622 -1.10958 -4.39243 24
28 1 -1.51977 -4.24269 -4.33641 20
29 1 -4.45946 -3.52583 -2.86053 21
30 1 -0.128919 -1.73455 -2.61727 20
31 1 -2.90755 -1.06217 -1.05321 23
32 1 -1.61947 -4.05271 -0.93455 20
33 2 4.42059 -7.23394 -4.20437 16
34 2 -7.37636 -6.98953 -1.39546 14
35 2 -8.34199 -4.39736 -6.32974 13
36 2 -6.36745 -4.11245 -2.91098 18
37 2 -3.35617 -7.51077 -2.56655 18
38 2 -9.39173 -4.45051 -1.42271 13
39 2 -5.75663 1.10134 -5.82379 19
40 2 -9.52059 -1.63375 -3.11619 15
41 2 -6.16371 -1.82712 -4.68055 21
42 2 -9.61407 -8.94345 0.757665 8
43 2 -6.65337 -1.48271 -1.56614 23
44 2 -0.315435 -3.57743 -9.69975 11
45 2 -7.93448 -6.94256 -4.69673 10
46 2 7.28255 -7.46853 -2.18404 13
47 2 -1.8859 -6.97018 -5.84039 15
48 2 -6.26196 -9.27422 0.258166 10
49 2 1.33038 -8.13774 -2.18653 15
50 2 -4.57222 -8.01545 -4.74361 10
51 2 -1.59683 -7.83009 -0.739681 19
52 2 5.9966 0.0705968 -9.79072 11
53 2 -3.74785 -0.852639 -9.11375 15
54 2 -2.87125 -2.43401 -11.0198 10
55 2 -6.12384 -3.27122 -8.37731 13
56 2 -0.754182 -1.62689 -7.56397 23
57 2 -4.01725 -1.44723 -6.00615 22
58 2 -0.533207 -4.27065 -6.16413 21
59 2 -3.32109 -4.06855 -4.55461 19
60 2 -1.18611 -1.91468 -4.44624 24
61 2 -3.51814 -1.71638 -2.72495 22
62 2 -0.479143 -4.99647 -2.84981 24
63 2 -3.546 -4.49649 -1.31703 20
64 2 -0.798994 -1.9301 -0.943504 20
65 1 -9.76836 -3.37944 0.0138057 15
66 1 -6.25987 -7.11845 0.0919874 19
67 1 -6.68336 -7.54438 3.72116 15
68 1 -6.70562 -6.51743 6.62844 13
69 1 -9.25748 -6.52994 0.932628 16
70 1 -5.8388 -1.16398 0.228619 20
71 1 -8.7485 -0.717238 1.73281 19
72 1 -7.01374 -4.84267 1.97089 21
73 1 -9.54386 -6.45205 4.37473 13
74 1 -6.84933 -1.68134 3.66297 19
75 1 -9.47667 -3.62074 3.45418 16
76 1 -9.17599 -0.866029 4.87743 15
77 1 -6.35186 -0.811639 6.90272 17
78 1 -7.86253 -3.8527 5.73268 16
79 1 -0.904328 -6.73155 0.640627 18
80 1 -3.37264 -6.81076 2.08732 17
81 1 -8.10563 -9.3811 0.00689366 8
82 1 -1.69965 -9.45807 -1.79664 13
83 1 -0.643053 -7.00976 4.02719 17
84 1 -3.97762 -7.27931 5.38666 16
85 1 -1.32788 -8.32885 7.35527 11
86 1 -3.75591 -6.74916 8.63537 12
87 1 -4.19717 -4.05248 0.604951 18
88 1 -0.252438 -1.29372 1.05359 19
89 1 -3.42517 -1.29708 2.2164 20
90 1 -1.57923 -3.71706 2.76785 22
91 1 -4.67124 -4.53487 3.77091 18
92 1 -0.349551 -1.43668 4.13978 22
93 1 -3.64582 -1.78448 5.43454 22
94 1 -1.80145 -4.75293 5.68624 20
95 1 -5.07549 -3.72324 7.73007 15
96 1 -0.490603 -2.13099 7.25581 19
97 1 -3.58654 -1.40089 8.60009 15
98 1 -1.90894 -4.06656 9.02392 17
99 1 -0.813556 -1.48148 10.6915 15
100 2 -7.54419 -6.91634 1.7352 17
101 2 -7.76336 -6.97359 5.07255 13
102 2 -9.12763 -4.47208 1.6986 16
103 2 -6.25517 -4.6497 0.267002 23
104 2 -10.2028 -7.12629 2.67357 11
105 2 -6.85554 -1.28467 1.86698 22
106 2 -9.70238 -1.71988 3.27658 15
107 2 -6.71777 -3.76587 3.92585 23
108 2 -9.37369 -4.76087 5.11705 13
109 2 -9.20384 1.0613 4.8094 14
110 2 -6.46418 -4.62791 6.66584 15
111 2 -7.62616 -1.8574 5.55854 17
112 2 -4.30662 -7.48042 0.437856 19
113 2 1.09536 -6.8962 0.787455 16
114 2 -3.48654 -9.67151 -1.52515 11
115 2 -1.60488 -7.20881 2.47846 16
116 2 -4.81707 -6.85827 3.61132 16
117 2 -0.808752 -8.58167 -3.51512 16
118 2 -1.77865 -7.09103 5.81415 18
119 2 0.515662 -7.44355 7.22009 14
120 2 -4.92312 -7.20614 7.08137 12
121 2 -0.692177 -5.24889 10.319 13
122 2 -3.91533 -1.87643 0.381169 23
123 2 -0.623245 -4.72275 0.381815 21
124 2 -3.35333 -4.86775 2.15549 22
125 2 -1.27076 -1.91207 2.58537 21
126 2 -4.59041 -1.06372 4.04212 17
127 2 -0.296334 -4.47648 4.19289 21
128 2 -3.14717 -3.84268 4.74724 21
129 2 -1.459 -1.26744 5.76659 20
130 2 -4.78611 -1.93608 7.24567 17
131 2 -0.626835 -3.94997 7.27448 19
132 2 -3.54065 -4.80598 8.18035 16
133 2 -2.23897 -2.3114 9.6008 13
134 2 -4.06002 3.67907 7.11688 17
135 2 0.593952 -2.59614 11.1471 12
136 1 -3.14651 1.26093 -9.03436 11
137 1 -8.42913 -1.19963 -4.70131 16
138 1 -5.38613 4.48179 -5.91737 17
139 1 -8.39122 5.12927 -4.77474 13
140 1 -7.41981 1.8469 -4.96766 17
141 1 -9.25158 1.8392 -2.8712 16
142 1 -6.03405 3.48171 -3.06731 19
143 1 -8.52272 4.6532 -1.71476 19
144 1 -6.93212 1.50212 -1.07556 21
145 1 -6.33407 7.57387 -5.42221 10
146 1 -7.21798 7.5856 -2.64473 12
147 1 3.58796 3.22467 -9.77895 13
148 1 -0.59907 1.7869 -10.9825 10
149 1 0.46535 4.07251 -8.62193 16
150 1 -2.60852 4.25894 -7.23929 18
151 1 -0.899167 1.91282 -7.23831 22
152 1 -3.96249 1.80014 -5.78117 22
153 1 0.174374 3.67383 -5.54824 23
154 1 -2.82436 4.34469 -4.02424 23
155 1 -1.02623 1.39727 -3.98039 24
156 1 -3.84236 1.4872 -2.57541 23
157 1 -0.106559 3.9205 -2.22421 21
158 1 -2.80837 4.00323 -1.20494 20
159 1 -0.689562 1.24977 -1.07269 22
160 1 -0.712674 7.24154 -7.31187 11
161 1 -3.32701 7.28309 -5.85373 13
162 1 -5.29392 9.73847 -0.891983 13
163 1 -0.510451 7.08081 -3.85974 18
164 1 -3.6539 7.68289 -2.95765 17
165 1 -1.79551 9.82917 -1.52915 13
166 1 -9.60185 6.8185 -0.00385079 10
167 1 -1.03399 7.02845 -1.07851 22
168 2 -2.22623 0.699709 -11.2017 10
169 2 -6.85086 3.95716 -4.87357 18
170 2 -7.72544 -1.26339 -6.61066 12
171 2 -9.94495 -5.05341 -4.04274 9
172 2 -9.05896 3.64981 -3.57524 15
173 2 -8.80659 0.644466 -4.15471 16
174 2 -5.94185 1.30396 -2.78033 23
175 2 -8.76993 1.13527 -1.23752 17
176 2 -6.9674 3.46041 -1.3397 20
177 2 -4.94678 6.28764 -6.13346 13
178 2 -5.49876 7.50756 -3.65365 15
179 2 -6.71242 8.73749 -1.13169 14
180 2 -2.74633 6.09052 1.56229 20
181 2 -0.82402 2.18361 -9.01684 15
182 2 1.99061 -0.590657 -8.16228 17
183 2 -2.68088 1.24436 -7.29912 18
184 2 -0.716816 3.70733 -7.10992 19
185 2 -3.68387 3.70333 -5.82132 20
186 2 0.226524 0.80545 -5.45292 22
187 2 -3.11337 0.792665 -4.20838 23
188 2 -1.03942 3.33207 -3.68676 25
189 2 -4.04736 3.73584 -2.78535 21
190 2 0.119018 0.412378 -2.6788 24
191 2 -2.82853 0.981324 -1.08664 22
192 2 -1.14678 3.26554 -0.69079 24
193 2 0.394773 6.12448 -8.40356 11
194 2 -2.17069 6.1383 -7.41045 13
195 2 0.26495 7.50729 -5.66465 15
196 2 -2.62764 6.77301 -4.39324 20
197 2 -3.57292 9.19868 -1.66094 13
198 2 -8.27122 6.64284 -1.32203 14
199 2 0.0131417 5.78768 -2.53747 21
200 2 -7.74136 6.70331 -4.36975 12
201 2 -0.594512 8.54712 -2.33152 16
202 1 -10.0107 2.21707 -0.0496224 15
203 1 -5.84586 4.1271 0.367804 20
204 1 -8.83166 7.73459 3.03905 10
205 1 -7.05681 1.89441 1.90604 22
206 1 -10.3023 1.87223 3.29496 12
207 1 -5.61995 3.39835 3.89545 20
208 1 -8.69316 4.37688 4.73679 14
209 1 -7.66733 1.91329 5.34698 16
210 1 -4.12219 7.01774 6.9516 13
211 1 -5.7474 4.27976 6.948 14
212 1 -9.03911 4.46255 1.96974 15
213 1 -5.63369 8.86153 2.39956 13
214 1 -7.0416 7.41896 0.350589 18
215 1 -6.67208 7.1892 5.36915 12
216 1 -3.72617 1.76032 0.402038 22
217 1 -0.225549 3.9716 0.88552 22
218 1 -3.06216 4.13814 2.14195 18
219 1 -1.22841 1.5109 2.6432 22
220 1 -4.4254 0.817269 4.0181 20
221 1 -0.108579 4.19421 4.14374 22
222 1 -3.13584 3.95547 5.4449 22
223 1 -1.45058 0.83555 5.76142 20
224 1 -4.31761 1.56307 7.33819 17
225 1 -0.445309 3.49334 7.67118 22
226 1 -0.955206 7.13098 8.45036 12
227 1 -1.91949 1.36781 9.47295 16
228 1 -3.01281 4.34315 8.63544 15
229 1 -0.397162 4.20242 10.7203 11
230 1 -3.8223 6.44383 0.220144 18
231 1 0.879713 9.02313 0.603731 20
232 1 -0.049367 9.87984 3.67205 12
233 1 -1.08049 6.97044 2.21574 21
234 1 -3.76805 6.57361 3.70368 16
235 1 -2.74779 9.87289 1.57367 12
236 1 1.65752 8.41284 6.36931 9
237 1 1.59139 5.78868 6.37139 17
238 1 -1.09906 6.731 5.83174 19
239 1 3.38454 9.2614 2.63034 15
240 2 -9.21411 -1.70699 0.0180655 15
241 2 -9.59553 4.49469 0.00391761 15
242 2 -5.81574 1.10395 0.450795 23
243 2 -9.43246 1.23499 1.85409 18
244 2 -7.12676 3.83096 1.84565 21
245 2 -5.86507 6.24362 6.92957 12
246 2 -6.41475 1.63769 3.74756 22
247 2 -9.57354 3.52761 3.41394 15
248 2 -6.98762 3.81069 5.55862 16
249 2 -6.39107 1.25953 6.89202 14
250 2 -2.52677 6.29721 7.87782 14
251 2 -5.44978 7.56606 3.6995 14
252 2 -9.17502 6.38601 1.79548 13
253 2 -5.6147 6.16111 0.605084 20
254 2 -7.93787 6.21242 4.16034 13
255 2 -3.05802 7.1307 5.35545 16
256 2 -3.8662 3.83457 0.453351 20
257 2 -0.254221 0.777361 0.888003 21
258 2 -3.26384 1.17282 2.24707 20
259 2 -0.945077 3.56168 2.63636 20
260 2 -3.78651 4.23174 3.82939 20
261 2 -0.164186 0.598915 4.03864 20
262 2 -3.40918 1.2804 5.64728 20
263 2 -1.12756 4.59975 6.02967 22
264 2 0.493903 7.07286 7.13215 14
265 2 -0.159264 1.67343 6.78125 21
266 2 -3.36721 0.400315 8.70866 17
267 2 -0.284444 5.78522 9.44952 13
268 2 -1.87369 3.19994 9.3138 14
269 2 -4.57152 9.79768 1.18477 13
270 2 0.194458 7.13708 0.44179 20
271 2 -2.58603 6.13994 -1.50982 20
272 2 -1.08595 9.91803 0.338395 14
273 2 0.734367 8.6994 4.94237 13
274 2 0.205095 6.17231 3.96577 21
275 2 -7.48817 8.71702 2.06899 12
276 2 4.56987 10.0722 1.47047 13
277 2 3.02324 6.64913 5.32294 16
278 1 -4.35409 -2.73962 -9.26048 13
279 1 4.51525 -4.47077 -3.93594 20
280 1 -5.06471 -5.00751 -8.35845 10
281 1 -1.18043 -2.73283 -11.1322 12
282 1 5.58377 -6.93878 -2.51453 17
283 1 2.56682 -6.94638 -4.31288 21
284 1 2.69683 -7.73999 -0.897736 15
285 1 7.92125 -7.03715 -0.51972 15
286 1 2.32733 1.03974 -9.28942 20
287 1 0.681585 -4.81114 -8.73155 13
288 1 4.96908 -1.24889 -10.866 6
289 1 3.03333 -1.99324 -7.19796 20
290 1 1.63121 -0.243353 -11.9183 9
291 1 1.36186 -4.23638 -6.05576 23
292 1 6.12144 -2.67657 -5.57072 18
293 1 2.8941 -1.62886 -3.94724 22
294 1 3.88786 -4.71394 -7.46329 14
295 1 1.45765 -4.45034 -2.86909 21
296 1 5.60037 -1.56079 -2.18267 21
297 1 2.52443 -1.9524 -0.808981 23
298 1 4.16336 -4.4351 -0.966539 21
299 1 9.93998 -4.64522 -1.43623 16
300 1 8.12421 0.603492 -6.0299 17
301 1 8.46435 -7.34993 -3.67141 10
302 1 7.4568 -4.10846 -2.19963 24
303 1 8.51571 -4.77091 -5.04215 11
304 1 9.19074 -1.80033 -4.13518 13
305 1 10.8288 -2.73222 0.543042 10
306 1 9.73121 2.07392 -4.02792 14
307 2 -5.25155 -5.96417 -6.62004 13
308 2 0.928537 -6.41931 -7.91638 13
309 2 -0.0677311 -0.92337 -11.0874 14
310 2 4.20861 -6.70427 -7.24422 12
311 2 4.1298 -7.14706 2.52022 17
312 2 10.8429 -4.76424 0.313894 10
313 2 1.21941 1.57302 -10.9145 13
314 2 -3.43156 -3.93997 -7.97651 15
315 2 4.96801 -1.46046 -6.83901 18
316 2 1.8163 -2.16946 -5.61796 21
317 2 2.16049 -4.02558 -7.88382 17
318 2 1.56787 -7.96855 -5.49456 14
319 2 4.7218 -2.30093 -3.97555 20
320 2 1.84045 -2.32845 -2.48426 20
321 2 2.42555 -4.87993 -4.50511 23
322 2 2.33702 -4.94605 -1.14963 19
323 2 4.39185 -2.29338 -0.546872 21
324 2 10.1866 -2.60765 -1.18991 12
325 2 9.6078 2.20698 -5.7557 12
326 2 8.01785 -2.90024 -5.27626 12
327 2 9.09046 -5.17229 -3.30346 13
328 2 5.51212 -4.74531 -2.3904 22
329 2 8.18712 -5.02094 -0.554385 19
330 2 10.4436 -1.28409 1.9443 12
331 1 2.16258 -7.21403 2.56042 15
332 1 8.14766 -8.21665 2.41841 8
333 1 5.19026 -7.71587 3.99524 15
334 1 4.98993 -7.5814 0.90581 16
335 1 0.915148 -9.08521 -3.81265 10
336 1 8.59918 -6.97247 5.22647 8
337 1 1.95374 -7.67382 5.75141 13
338 1 0.105599 -6.92959 9.30499 11
339 1 1.48794 -4.89035 0.637957 20
340 1 5.50688 -1.87226 1.04401 22
341 1 2.49222 -1.8882 2.68301 24
342 1 4.48183 -5.14371 2.38073 19
343 1 1.55521 -4.31689 3.92028 21
344 1 5.29593 -2.34275 4.27072 22
345 1 2.38243 -2.48756 6.0252 22
346 1 3.91861 -5.16365 5.73219 19
347 1 0.639582 -5.33546 7.32361 20
348 1 4.98881 -2.1417 7.92751 17
349 1 1.84892 -1.78798 9.37084 16
350 1 3.23527 -4.58651 8.45143 13
351 1 0.792234 -4.49349 11.265 9
352 1 10.3049 -5.46836 2.46146 10
353 1 7.02888 -4.47013 1.15315 21
354 1 9.95283 0.663184 2.47406 12
355 1 8.63826 -2.09249 2.68101 17
356 1 8.50426 -1.72324 -0.75518 21
357 1 7.13894 -4.41815 4.24262 18
358 1 8.41174 -1.93486 6.12577 13
359 1 6.70568 -4.7519 7.30784 11
360 2 7.08069 -8.12881 3.77724 10
361 2 6.92576 -7.82102 0.93475 14
362 2 4.41558 -7.5988 -1.13847 15
363 2 1.0819 -7.9275 4.05159 11
364 2 7.41651 -6.48493 -5.01755 13
365 2 3.62618 -6.8546 5.06776 15
366 2 -1.90949 -7.45717 8.9089 10
367 2 1.95257 -1.48966 0.945564 20
368 2 5.33992 -5.44788 0.725739 22
369 2 2.35686 -4.48479 2.26305 19
370 2 4.34785 -1.76314 2.68344 23
371 2 1.38522 -2.26614 4.36894 22
372 2 5.30667 -4.40576 3.99267 21
373 2 2.29045 -4.5211 6.40561 19
374 2 4.4017 -1.80771 5.84159 20
375 2 1.42334 -1.62396 7.39651 20
376 2 4.99769 -4.1943 7.5333 15
377 2 1.70358 -5.3135 9.38011 13
378 2 3.39397 -2.64877 9.01053 14
379 2 -0.547066 0.420342 10.361 14
380 2 9.33716 -6.7473 3.51448 8
381 2 7.32084 -5.67539 5.7112 13
382 2 7.4161 -2.35211 0.647571 21
383 2 8.62814 -4.18052 2.2331 15
384 2 8.14587 0.439252 -0.837209 23
385 2 7.45225 -2.37226 4.3434 18
386 2 7.52173 -3.09325 7.30091 12
387 2 8.16604 -0.144738 5.91473 13
388 1 6.79149 1.72159 -10.2106 9
389 1 3.45255 3.32507 -6.90995 21
390 1 5.22749 0.408602 -7.68371 20
391 1 2.03503 0.969588 -6.0782 21
392 1 6.75234 3.56591 -7.99717 15
393 1 3.15794 3.60571 -3.77525 20
394 1 4.93661 0.877188 -4.56412 22
395 1 1.8979 1.22819 -2.9276 24
396 1 5.85983 2.93146 -2.07658 19
397 1 2.60742 3.08961 -0.68757 22
398 1 4.55637 0.957656 -0.793157 23
399 1 2.34097 6.1241 -7.87892 13
400 1 3.71944 8.17918 -1.97762 15
401 1 2.18188 7.899 -5.52881 12
402 1 1.29276 9.37837 -2.68558 15
403 1 4.5126 5.70982 -5.20058 17
404 1 2.05519 6.00434 -2.8303 22
405 1 3.53893 10.6513 -0.168479 10
406 1 5.0544 5.8252 -1.20177 22
407 1 6.57955 3.3369 -5.14211 23
408 1 7.01901 7.07822 -3.26117 12
409 1 7.54151 4.22964 0.269096 18
410 1 7.65803 0.625015 -2.75158 20
411 1 9.3375 2.76754 -7.39259 10
412 1 9.60417 1.80269 -0.544505 16
413 1 8.51218 4.4468 -2.29691 14
414 2 3.36179 -0.578653 -11.8088 7
415 2 2.2422 3.90615 -8.37494 17
416 2 3.5507 1.54615 -7.93692 19
417 2 5.46534 3.02935 -9.8759 11
418 2 5.25063 3.89869 -6.6375 21
419 2 2.07285 3.19974 -5.47422 23
420 2 6.27138 1.19031 -6.0612 20
421 2 3.16753 0.410074 -4.43476 24
422 2 5.01108 2.96476 -3.87343 21
423 2 1.71352 3.44329 -2.46001 21
424 2 5.59458 0.511425 -2.489 21
425 2 2.5642 1.12978 -0.6767 19
426 2 4.45081 2.95235 -0.83403 20
427 2 3.42326 6.84605 -6.4646 12
428 2 6.35644 6.66253 -5.12465 11
429 2 3.6841 5.53946 -3.47198 21
430 2 2.27829 8.05976 -3.48844 15
431 2 2.15443 9.46399 -0.771638 15
432 2 7.74878 4.2862 -6.56334 13
433 2 2.89667 6.3068 -1.08785 23
434 2 5.00176 9.62231 -1.10862 12
435 2 5.22616 -4.60831 -5.89939 17
436 2 8.56644 5.69714 -3.69665 11
437 2 7.8681 2.11311 -8.65758 12
438 2 6.75759 4.76548 -1.62835 18
439 2 7.72306 -2.14627 -2.52294 19
440 2 9.80828 2.20814 1.52829 14
441 2 8.59814 2.54442 -2.5763 17
442 2 9.93769 3.81415 -0.906448 13
443 1 1.71888 0.54294 0.842719 22
444 1 5.18098 3.76468 0.9347 21
445 1 2.4628 3.44244 2.71223 20
446 1 4.45878 0.274446 2.72779 22
447 1 1.65023 1.09037 4.13008 20
448 1 5.69318 2.9766 4.11986 19
449 1 2.45116 2.8359 6.27533 23
450 1 3.91851 0.108397 5.76785 22
451 1 1.01434 0.412474 7.77981 21
452 1 5.282 3.34521 7.35065 15
453 1 2.30608 3.88638 9.32074 12
454 1 4.18103 0.983089 9.0738 16
455 1 1.14849 1.27319 10.9911 12
456 1 2.03809 6.30944 0.740748 20
457 1 6.86772 8.80332 -1.29104 10
458 1 7.40303 7.08495 1.61808 13
459 1 4.77878 6.4117 2.24655 18
460 1 1.72364 7.20871 3.70976 20
461 1 7.02766 8.46226 4.37758 9
462 1 4.57055 5.63429 4.79963 15
463 1 6.58251 10.0432 1.58817 11
464 1 6.99467 0.693165 1.17675 24
465 1 9.5358 5.61808 3.64739 9
466 1 8.34865 3.15908 2.41384 18
467 1 7.47502 0.605674 4.297 18
468 1 7.5854 3.86432 5.96598 11
469 1 7.2629 0.775797 7.23119 13
470 1 10.3357 4.26346 0.920481 9
471 1 8.18431 5.73637 -5.53531 11
472 2 1.70127 4.13074 0.70637 20
473 2 4.98223 0.163572 0.872841 21
474 2 2.66421 1.35239 2.50316 22
475 2 4.43853 3.86605 3.0715 18
476 2 1.62556 3.23619 4.40688 19
477 2 5.05545 1.05278 4.45633 22
478 2 2.29526 0.811064 6.0571 20
479 2 5.51384 4.08432 5.74537 13
480 2 1.8186 4.33887 7.57288 16
481 2 5.38232 -0.136619 7.74119 15
482 2 2.09369 0.438379 9.37025 16
483 2 3.94566 2.79847 8.37754 13
484 2 1.07193 3.07929 10.39 13
485 2 1.38462 9.6579 2.33443 14
486 2 5.68093 7.50632 -2.06612 15
487 2 3.11619 7.44122 2.26394 18
488 2 6.10095 5.50287 0.869932 18
489 2 -1.54333 8.94887 2.87267 15
490 2 7.09324 8.5131 0.536236 13
491 2 7.67414 2.5385 4.36408 19
492 2 6.76196 10.1847 3.56177 8
493 2 8.78739 4.94706 1.69912 15
494 2 9.09371 0.113628 -3.91611 13
495 2 8.00286 -0.148844 2.59711 21
496 2 8.50318 7.18322 3.36218 11
497 2 8.85301 4.83125 5.06372 9
498 2 7.09825 2.57221 7.61354 12
499 2 5.81311 7.22695 3.60208 15
500 2 6.57515 2.59187 0.867114 21
