ITEM: TIMESTEP
143000
ITEM: NUMBER OF ATOMS
2000
ITEM: BOX BOUNDS pp pp pp
-30.0 30.0
-30.0 30.0
-30.0 30.0
ITEM: ATOMS id type x y z Coordination
1 1 -6.42849 8.18297 -13.6749 16
2 1 -3.88726 -12.3311 -10.2092 11
3 1 -0.561847 16.2782 11.3101 13
4 1 9.99182 -12.6439 1.76384 11
5 1 -9.52777 4.34435 -0.563245 20
6 1 7.2722 -9.73975 -8.47995 15
7 1 -11.6299 4.62287 -6.35015 17
8 1 0.174428 -6.30005 17.2818 12
9 1 -6.29055 -1.08392 -8.88863 22
10 1 -8.68633 -13.7746 -0.810591 14
11 1 14.8311 3.32 -9.07089 12
12 1 -8.33561 -8.81169 -0.773054 20
13 1 -6.12638 -14.1142 4.38796 15
14 1 -2.09716 7.23072 12.9853 25
15 1 2.01311 4.0576 9.78233 23
16 1 0.33306 9.87694 -11.9585 21
17 1 3.13817 -4.0845 12.9535 24
18 1 -3.34395 -6.39537 -14.1931 15
19 1 -11.703 7.00531 10.3082 12
20 1 10.1281 6.61874 3.32852 21
21 1 -5.38694 19.0449 -4.35339 7
22 1 2.02144 12.2159 -8.71959 23
23 1 7.18191 -1.81625 9.69811 21
24 1 -12.7259 6.349 -10.8408 12
25 1 -9.18793 14.3007 5.68016 19
26 1 6.70841 -12.745 6.69096 17
27 1 0.0691444 -12.5215 -11.0523 10
28 1 9.35481 -12.9076 5.06289 11
29 1 -12.6705 -10.9622 -6.49344 9
30 1 -15.7115 -5.83898 8.77517 9
31 1 -1.067 -6.94281 -5.62611 22
32 1 13.1432 -8.33078 -3.33579 14
33 1 7.23698 6.00384 -16.6279 9
34 1 4.33756 -1.71491 11.4966 22
35 1 2.04479 -13.7895 9.98487 12
36 1 -0.435852 -9.27235 11.1162 20
37 1 -13.9791 -3.23614 2.03405 20
38 1 -13.8947 -4.36559 10.4492 15
39 1 -9.63695 -1.23611 -0.947501 23
40 1 -3.60862 12.287 -5.87969 21
41 1 -5.22021 -14.2406 -5.77367 11
42 1 5.11528 1.55579 -13.5163 19
43 1 4.3886 -4.10276 -10.1635 22
44 1 -1.35661 4.11476 14.7403 21
45 1 -8.66146 16.6156 -8.37954 7
46 1 3.02178 9.73079 -10.2392 18
47 1 -9.53405 14.5836 9.03592 13
48 1 -6.76808 12.3796 -4.13878 20
49 1 -1.23107 11.9035 -0.343114 20
50 1 3.93065 -12.4913 1.25744 21
51 1 7.69092 -6.96671 -7.22705 21
52 1 1.52268 -9.89899 -12.5125 16
53 1 -7.94927 10.1122 13.4648 14
54 1 -13.1798 -2.45806 -4.80649 18
55 1 -3.21346 9.1249 -3.74547 23
56 1 -4.00484 -8.21719 16.7572 17
57 1 -3.72124 8.32194 10.4071 18
58 1 -6.88667 7.00711 -7.17022 23
59 1 -5.65375 12.4128 14.9346 13
60 1 -5.8223 -13.4904 7.88849 11
61 1 4.66386 3.61262 8.14627 23
62 1 3.93023 -12.1917 -2.10811 21
63 1 -4.48922 1.25782 17.9047 13
64 1 -13.2831 -0.153586 -9.23261 10
65 1 -10.2394 6.48997 -9.43195 17
66 1 9.42054 6.08643 10.6189 22
67 1 14.6864 -1.57967 -8.90126 12
68 1 10.4762 -8.09052 -1.33981 21
69 1 -16.4446 2.38307 3.672 16
70 1 4.12916 17.293 5.96544 13
71 1 0.133802 -4.26304 14.9487 19
72 1 -9.15719 -8.0772 12.74 16
73 1 -13.3169 2.00157 -1.37642 23
74 1 6.37136 0.297284 11.5483 20
75 1 -0.899959 14.6006 7.70334 20
76 1 4.53187 -1.74017 8.03484 23
77 1 -3.47694 -6.42931 -7.51249 22
78 1 -10.3188 3.75787 9.17949 22
79 1 -7.40139 6.77966 -0.712641 22
80 1 -3.79518 7.25236 -8.95595 23
81 1 7.95716 -1.8184 -3.3804 21
82 1 7.19044 13.8192 -8.27675 10
83 1 6.39962 -4.21859 5.01572 23
84 1 8.39082 -10.338 10.5718 14
85 1 -0.546636 12.2828 -6.73043 24
86 1 -11.9529 9.7685 0.406243 16
87 1 1.95721 -1.92115 16.2977 14
88 1 -4.62821 6.26246 7.88982 19
89 1 0.764898 0.706819 15.0737 17
90 1 13.7767 -2.83093 -3.13329 15
91 1 -10.9977 1.74967 4.2026 22
92 1 -13.2828 -10.6627 5.1571 14
93 1 6.98709 -9.50105 -5.2662 22
94 1 2.76591 -1.3208 -13.8157 21
95 1 -5.64377 -0.818103 -11.8085 20
96 1 -0.2603 9.11904 1.50329 21
97 1 -6.15974 8.82703 -16.4843 7
98 1 0.792038 6.51608 14.3852 21
99 1 -3.93709 11.76 -2.09479 23
100 1 -14.4158 9.37623 -5.31181 12
101 1 1.47078 17.596 5.1988 10
102 1 -4.62683 -6.82857 9.33844 20
103 1 6.25401 -4.30369 8.17845 25
104 1 4.64257 -4.18896 -6.87136 20
105 1 5.20304 -6.86614 -8.74114 23
106 1 -4.11002 4.37761 9.91176 21
107 1 15.6567 -0.309436 9.20396 10
108 1 -8.14465 -8.62859 2.42564 21
109 1 -10.3476 -10.7088 2.51802 20
110 1 6.00818 -9.58572 4.86998 23
111 1 -7.30794 6.64455 2.35148 23
112 1 7.75593 7.65648 -14.1102 17
113 1 4.50957 11.9705 0.221793 22
114 1 -11.9125 -2.27696 12.2137 12
115 1 -2.50081 -11.0952 15.7689 9
116 1 5.46618 -6.65498 -11.9495 19
117 1 5.05066 6.35746 -6.75177 23
118 1 6.36629 -10.11 -1.92093 22
119 1 -4.53845 -11.1332 5.743 20
120 1 -13.9878 -12.1491 0.235568 11
121 1 5.75246 13.7295 11.6502 12
122 1 11.7242 -1.45158 -8.77453 21
123 1 -13.0322 -0.624758 0.573334 21
124 1 11.65 9.43658 1.65577 18
125 1 14.5346 8.48982 -0.201192 15
126 1 -4.5785 -2.50528 18.5147 13
127 1 1.22155 6.43666 7.76569 21
128 1 -5.56685 9.70294 -5.63647 19
129 1 -5.04514 -9.30543 -5.87078 21
130 1 4.55106 -9.87243 -10.3854 17
131 1 -4.11325 12.2955 -9.29833 19
132 1 5.26467 -7.33257 13.647 16
133 1 0.24666 4.64797 -15.3881 17
134 1 -1.25386 6.8597 -7.18242 20
135 1 9.99492 0.778486 -3.20253 21
136 1 -9.98032 11.4887 -6.28258 15
137 1 -7.0894 11.8874 -0.938796 22
138 1 5.91832 3.78003 -8.40795 23
139 1 5.62472 -12.551 9.78079 13
140 1 -5.51988 9.46416 -8.62974 23
141 1 -6.18962 14.4706 4.42755 20
142 1 7.76548 11.6662 -5.60999 19
143 1 -1.13785 12.1025 2.81055 22
144 1 -6.40676 9.2409 0.825591 23
145 1 8.27592 8.74007 -3.19136 20
146 1 -0.218562 9.46275 -5.40872 22
147 1 -2.10473 15.1155 -10.5396 11
148 1 2.66481 12.3426 -12.3159 16
149 1 -9.41019 -9.17303 6.28335 18
150 1 -14.8287 9.60243 -2.21919 12
151 1 1.81522 -3.54786 -15.6972 9
152 1 2.48941 -8.77012 -15.9927 6
153 1 7.53354 15.5984 7.17481 12
154 1 -6.981 17.2805 5.1982 15
155 1 -17.3466 -2.7379 -2.61687 8
156 1 -12.205 13.2939 5.59579 13
157 1 15.5572 -0.375051 0.263489 12
158 1 -9.10918 -0.0604509 -14.2182 16
159 1 11.2015 11.8559 13.2732 11
160 1 -6.87453 17.6075 8.85995 9
161 1 -0.239093 12.9488 15.8006 10
162 1 5.74941 -7.28449 -15.3894 11
163 1 -5.72879 14.705 1.16929 20
164 1 -11.2136 14.6469 -4.29107 11
165 1 1.27865 -6.93162 13.0031 20
166 1 -9.47118 -3.32 14.8162 14
167 1 -8.57492 -5.78444 -15.7875 15
168 1 -12.9048 11.4947 -7.31361 9
169 1 -4.71289 -6.10689 6.19316 21
170 1 -1.36351 -12.2436 -2.03818 19
171 1 -3.33442 9.14323 -14.5982 14
172 1 -14.1578 2.34997 9.27743 12
173 1 5.44954 9.2235 -1.71399 21
174 1 0.656606 3.99857 16.7788 16
175 1 -5.85996 -8.96918 7.91842 20
176 1 -9.20703 3.69429 -4.21343 22
177 1 -2.77965 15.2116 2.95168 21
178 1 4.77125 3.21875 11.5141 21
179 1 12.0306 6.24213 12.2292 12
180 1 -1.20816 12.1618 9.78234 20
181 1 12.1777 3.5378 -11.1832 11
182 1 -5.61019 15.1483 13.5308 11
183 1 -4.1509 1.15045 -8.41915 22
184 1 9.42551 -9.8654 -3.19189 21
185 1 -8.39122 -3.34368 6.06725 24
186 1 -15.423 -0.522437 2.16665 19
187 1 -10.6147 -5.99463 5.90974 21
188 1 7.89959 4.96672 16.1647 17
189 1 -15.6129 -0.619868 -1.12252 17
190 1 -3.3021 -14.6056 2.88353 15
191 1 9.35873 -10.0191 3.63411 21
192 1 -3.32905 9.54974 2.95731 21
193 1 2.54781 8.67881 16.1773 16
194 1 -12.2984 -0.28865 -6.52978 16
195 1 -7.69481 9.82011 -11.7721 14
196 1 -15.465 0.0615066 -4.46728 11
197 1 -10.4523 -1.27179 9.13926 23
198 1 -8.58122 -11.1097 7.72231 13
199 1 4.35008 -11.6819 4.55317 23
200 1 -12.8317 11.9552 -3.89889 12
201 1 16.1265 -2.55201 2.21385 7
202 1 5.36047 3.46259 -5.25632 24
203 1 -6.60272 -4.54948 -16.2203 14
204 1 5.7973 -0.371485 19.028 7
205 1 -2.62792 -14.1328 6.11816 16
206 1 -8.55644 6.36771 -15.7208 12
207 1 0.988449 -9.47004 -5.66949 23
208 1 8.62414 5.40593 -12.5194 12
209 1 3.70655 9.49651 -12.9812 18
210 1 -10.1223 -2.51641 -5.93545 20
211 1 -6.49411 17.6344 -7.29579 8
212 1 -6.59655 -7.62078 18.1118 8
213 1 5.51152 8.72045 7.94237 19
214 1 -2.03192 1.32128 16.7251 16
215 1 -9.64476 7.02856 -12.4498 15
216 1 3.80171 1.12384 9.68948 23
217 1 2.56012 -6.96724 -10.3597 23
218 1 -8.40312 15.3981 -3.22233 17
219 1 1.83575 1.5977 -12.1743 22
220 1 -10.9628 -5.93965 11.9666 13
221 1 -9.52367 6.26408 7.35412 19
222 1 -3.33167 9.41611 16.0809 15
223 1 6.71974 -13.1207 -3.66969 18
224 1 -6.08132 -14.4854 1.03412 14
225 1 11.8071 -11.185 -1.571 15
226 1 8.25788 8.45433 9.94182 21
227 1 2.97827 9.35526 -6.94148 19
228 1 -0.262281 8.98482 -1.91702 23
229 1 -12.4848 4.2563 4.50881 21
230 1 -9.21552 19.3713 -2.23253 6
231 1 3.69182 0.929011 13.4702 20
232 1 2.46742 -15.2499 -0.714824 15
233 1 9.79839 1.33215 -0.115163 22
234 1 4.19351 6.59324 6.44945 20
235 1 -9.22711 3.90872 5.68773 22
236 1 -13.8736 -8.14304 -4.84522 11
237 1 4.79591 6.69674 -9.98123 20
238 1 1.8556 -1.40331 9.60118 21
239 1 9.92518 11.5478 -2.93848 14
240 1 0.634251 -9.23899 1.16308 21
241 1 -3.70097 1.92071 -12.0374 19
242 1 0.158713 -8.96881 7.62921 23
243 1 7.38888 1.03901 -5.18537 22
244 1 -10.1948 -1.00369 2.24304 22
245 1 -1.31147 -12.486 -5.60362 18
246 1 -10.0869 -3.09853 -9.209 19
247 1 5.90447 14.87 -1.69421 14
248 1 0.148223 -1.03682 -12.0833 24
249 1 -4.3079 9.34408 13.5071 20
250 1 15.5753 5.35884 2.59749 13
251 1 9.96547 -12.2262 -4.7751 14
252 1 -12.7061 -2.9137 -11.2411 16
253 1 -8.89278 -0.5278 -7.79542 18
254 1 -2.98119 -5.61924 19.0775 10
255 1 8.96475 -4.57957 10.023 18
256 1 3.81272 -6.98099 7.76848 21
257 1 -1.95126 -1.09182 -17.9693 8
258 1 2.04381 7.65859 -15.4409 18
259 1 2.58722 9.34553 -0.134217 22
260 1 -9.73649 -6.24948 -0.555081 21
261 1 -4.41936 11.6962 1.0725 22
262 1 -6.93273 -1.57455 10.8452 22
263 1 -12.9282 -3.30832 -14.1516 9
264 1 -9.27908 -5.50678 -10.9837 19
265 1 -6.80785 12.1195 -10.8121 13
266 1 -10.0833 -8.73664 -9.40675 16
267 1 -7.79396 -6.39115 4.59639 21
268 1 7.4827 -4.28507 -15.8046 9
269 1 13.2121 0.899209 -7.87369 18
270 1 10.4664 3.45779 5.02175 20
271 1 -7.79825 -6.71542 10.568 23
272 1 -5.29455 -8.94789 -2.60298 20
273 1 0.680658 6.88855 19.0549 9
274 1 -2.66597 -9.87199 12.869 16
275 1 1.01332 -11.615 8.55832 22
276 1 -0.0857235 14.5512 4.88582 20
277 1 3.95154 5.33817 -16.3516 16
278 1 -3.71048 -3.08925 -12.5368 21
279 1 -7.8529 -4.18565 17.6588 12
280 1 -0.593065 9.81513 17.7616 12
281 1 -2.58512 -8.9314 2.84269 19
282 1 -1.26558 -5.39356 -15.83 9
283 1 -10.1576 2.37213 -13.2096 13
284 1 7.1105 6.09201 4.49305 23
285 1 -2.80492 4.19658 -10.1358 22
286 1 -0.811063 12.7529 -12.5138 13
287 1 10.514 -4.06287 -10.6384 16
288 1 -8.57424 9.57594 -4.5421 20
289 1 2.10765 11.5139 16.0983 11
290 1 9.6254 1.00305 6.36877 24
291 1 -16.2166 5.08625 2.19058 14
292 1 -2.39744 -3.8958 12.9598 21
293 1 2.33296 9.0248 12.8144 18
294 1 1.54537 -4.13969 -9.19242 22
295 1 13.1774 5.66564 -5.53885 16
296 1 1.53219 -6.8963 -0.513565 23
297 1 -2.56352 1.18379 13.4993 21
298 1 -13.4985 -6.18439 7.00236 20
299 1 2.67133 -14.5683 3.20695 19
300 1 -12.2165 13.7465 8.62361 8
301 1 -10.5605 5.58662 13.514 10
302 1 -16.1785 -0.751151 5.11399 13
303 1 -13.4069 -6.01907 4.04164 20
304 1 13.4352 -6.96991 0.331122 13
305 1 -6.97023 -8.19328 14.4252 13
306 1 8.13147 -1.85393 -6.74757 22
307 1 5.02138 -16.4123 -5.81103 6
308 1 -6.22671 19.0412 2.09122 9
309 1 -7.63588 17.467 -0.620784 16
310 1 12.2143 6.38074 8.7614 17
311 1 -12.0591 -3.06999 7.34998 20
312 1 4.63931 -7.09211 -1.64415 21
313 1 -9.11742 9.04671 -0.927304 22
314 1 -7.08448 4.13234 7.832 21
315 1 1.80589 -6.91315 2.88637 20
316 1 12.0746 -4.58168 5.05512 16
317 1 -1.16258 4.10066 11.711 22
318 1 -7.70949 -3.65988 -3.95382 21
319 1 6.80429 5.49548 18.769 11
320 1 -3.7157 9.50187 6.46638 18
321 1 6.998 8.4034 16.7276 14
322 1 -6.86386 12.5862 -7.50576 18
323 1 -0.0176505 -1.12723e-04 -15.571 15
324 1 8.6428 -6.41101 -14.0925 10
325 1 -7.94294 -4.57331 12.4073 21
326 1 -14.8614 5.11047 -0.935595 19
327 1 -0.726496 -6.47315 -8.96972 20
328 1 -9.29297 9.15973 2.4073 22
329 1 6.78267 -7.11962 6.66633 23
330 1 -8.19934 -14.0797 -3.9623 12
331 1 5.19846 -14.9313 4.8805 13
332 1 -4.24511 -1.151 16.0077 22
333 1 -16.4358 7.9259 3.63202 10
334 1 -2.52475 -4.00554 9.5878 23
335 1 4.14405 -11.9284 -5.55928 20
336 1 -4.31419 -3.67164 -9.41172 22
337 1 5.74323 4.47896 -11.5725 23
338 1 5.39603 9.22343 4.52295 23
339 1 -9.31819 -0.340065 -4.23867 20
340 1 2.86768 -12.8442 -10.752 12
341 1 8.25456 1.17564 -15.5044 8
342 1 -6.38754 -7.88034 -14.861 11
343 1 -10.5233 -11.5485 -0.859047 19
344 1 -5.26348 -8.7552 1.17733 23
345 1 9.56782 5.31494 13.5391 16
346 1 14.2815 3.03341 -3.30205 15
347 1 -12.0164 -0.572009 -12.7258 11
348 1 2.27092 11.728 -5.32529 22
349 1 -12.7907 -3.58201 -7.90656 16
350 1 -14.8691 9.98139 2.2927 11
351 1 -8.67227 14.598 -0.194471 21
352 1 -1.56672 6.79166 9.62305 21
353 1 9.95917 -2.3126 11.925 16
354 1 11.1954 -1.82217 -5.00444 20
355 1 6.19418 -4.84449 15.1211 15
356 1 11.2374 3.0081 -4.94495 19
357 1 -7.01478 -11.7631 -6.12465 21
358 1 -2.16496 -9.72012 -4.42993 23
359 1 -0.623016 9.37553 8.07639 19
360 1 -15.1125 3.44278 -3.04826 13
361 1 7.03031 -6.97532 3.20225 21
362 1 10.3045 -1.95767 8.44516 18
363 1 -15.3954 -5.55001 -3.94771 10
364 1 -11.0868 -3.31822 0.593567 19
365 1 -1.75587 -7.24044 14.9064 18
366 1 -3.20945 9.31089 -0.415193 21
367 1 -9.75313 -11.7757 -8.01611 10
368 1 -0.0505837 13.3767 12.4346 17
369 1 -10.3664 1.68158 -2.18514 20
370 1 -2.68739 9.81415 -7.0218 22
371 1 -0.680384 9.59272 11.2711 19
372 1 -11.5795 -8.7097 0.127253 16
373 1 -7.9232 -8.95804 -4.21191 21
374 1 -16.0852 2.36008 0.305745 16
375 1 -12.2163 3.45308 -9.1773 15
376 1 13.1901 -1.74959 4.00829 17
377 1 1.35033 -12.1677 -3.93572 21
378 1 13.7718 8.62929 10.1247 9
379 1 9.53631 8.48133 -11.3139 13
380 1 -13.0275 3.44484 -12.2042 9
381 1 -5.1785 15.1575 -9.08416 13
382 1 -10.616 1.76257 -6.80671 18
383 1 0.220457 -9.38071 4.20842 21
384 1 17.7742 1.31652 6.71205 5
385 1 5.95138 13.1326 -13.5991 7
386 1 -3.98172 -1.28442 9.59029 20
387 1 -13.5386 6.50474 2.75195 20
388 1 -10.9202 1.40469 7.29834 24
389 1 -11.2308 -12.2217 5.14601 15
390 1 8.51866 -0.853887 -13.2661 18
391 1 -13.4756 2.54508 2.14287 23
392 1 -12.5635 6.94009 6.38076 17
393 1 -10.2276 14.4636 2.39975 18
394 1 3.18645 -9.43072 12.9143 16
395 1 -7.06687 2.11885 -13.4416 20
396 1 10.9322 -7.22424 -8.34777 15
397 1 -4.52467 -8.96061 -9.65129 21
398 1 -4.2104 -1.52114 12.9232 20
399 1 -3.58256 6.27786 -15.2626 22
400 1 3.44986 -9.20444 3.00948 22
401 1 6.31202 14.5172 -5.1051 15
402 1 -12.9368 12.9441 2.31823 12
403 1 5.70272 2.57256 16.9228 17
404 1 -7.29319 -8.04772 -11.5499 16
405 1 -14.3649 -8.99248 8.18258 11
406 1 12.779 -7.5833 3.61434 13
407 1 1.34425 1.30644 -8.53312 22
408 1 6.96633 -13.0787 -0.251407 18
409 1 12.3641 9.10085 -4.95212 12
410 1 -4.91118 2.00702 11.1012 22
411 1 4.76906 12.0552 3.5937 21
412 1 6.67273 -7.13919 10.0089 25
413 1 -7.40209 -11.5072 -2.72785 20
414 1 -4.64969 11.3306 11.6428 22
415 1 -4.22439 12.3945 4.67375 20
416 1 -6.12395 -6.49612 -9.07715 20
417 1 7.28368 11.9614 -1.79898 21
418 1 5.52753 14.3751 5.44485 18
419 1 -8.18607 1.16044 9.46187 20
420 1 -11.0478 -8.42498 -6.16878 19
421 1 -9.20924 9.80541 5.37969 20
422 1 -6.57247 -3.76148 -11.1929 20
423 1 -6.41967 9.17454 7.92553 19
424 1 -7.51495 -9.10235 -7.50044 20
425 1 -1.00127 -2.5931 -13.766 21
426 1 -16.1929 -8.38008 5.61279 11
427 1 6.27762 0.755902 8.18669 23
428 1 -5.18806 -4.36401 11.033 20
429 1 -8.61264 4.13157 -11.5956 19
430 1 7.21896 6.62022 1.65254 23
431 1 0.98625 -14.8405 -6.16394 12
432 1 2.7526 13.8984 7.08318 18
433 1 0.202256 4.43937 -8.82499 22
434 1 -8.05793 6.4026 9.80056 20
435 1 -13.9761 -8.83772 1.86057 14
436 1 -8.13548 16.5415 2.75931 15
437 1 4.7729 12.1824 -3.66099 22
438 1 -6.67943 -6.11484 -5.84962 19
439 1 4.31831 7.26911 18.1867 10
440 1 1.9396 -12.05 -7.66794 21
441 1 -0.757247 2.02545 -13.8682 19
442 1 -0.229168 -15.1421 0.831372 14
443 1 -7.14559 11.6842 5.87557 23
444 1 2.35257 8.99517 9.71241 21
445 1 5.72293 9.55275 1.55357 24
446 1 1.78832 11.8509 -1.7008 23
447 1 -5.19942 11.1167 -12.8189 10
448 1 2.79397 4.14048 -6.95443 22
449 1 -1.58878 -6.25022 4.29694 21
450 1 -17.7074 -2.661 3.54314 11
451 1 -1.72209 17.7798 8.91649 12
452 1 -7.63413 1.70259 -10.1343 18
453 1 10.5274 6.03086 -3.40643 21
454 1 -4.68397 19.0986 -0.937488 9
455 1 9.5359 -4.04756 0.427709 21
456 1 16.1884 0.0760998 3.51229 11
457 1 0.0322843 4.41993 -11.5648 21
458 1 -7.3961 -11.4744 0.65202 21
459 1 -5.36502 -11.1318 2.67103 21
460 1 6.18646 -9.62831 8.60552 20
461 1 -8.88591 4.45782 -7.74844 21
462 1 -4.29109 -12.4476 11.1338 13
463 1 -1.23555 -9.29454 -10.7167 17
464 1 8.84681 14.9384 3.72427 12
465 1 1.7025 6.89696 -12.0044 21
466 1 7.38779 -2.44253 13.5337 18
467 1 -13.9673 10.0494 5.1364 10
468 1 -2.19922 -12.1383 3.85236 22
469 1 -11.3392 -3.57183 4.25934 22
470 1 13.1557 -8.21723 -6.38366 12
471 1 12.1952 -5.09446 -1.67748 20
472 1 -4.14568 6.84384 -6.02512 22
473 1 2.04862 -6.80125 -3.76751 23
474 1 3.02307 3.67539 -10.1516 22
475 1 10.7194 -1.7564 -1.73829 21
476 1 -7.70676 1.85327 16.3138 13
477 1 2.01239 11.9645 1.50645 20
478 1 -2.84969 -0.445314 -13.7424 20
479 1 -0.818309 7.43215 -16.6087 13
480 1 -8.49495 -3.82062 9.19883 19
481 1 -9.81077 11.5315 0.623972 20
482 1 -11.7289 5.40283 -14.4402 10
483 1 -14.5211 -3.30881 5.19977 20
484 1 2.25496 -6.52242 -7.35277 20
485 1 1.56438 -8.22215 15.7399 13
486 1 1.74485 6.82027 -8.59721 22
487 1 13.266 2.99109 7.10257 16
488 1 10.0354 6.5676 -0.132911 21
489 1 -11.3782 -8.87192 -2.89871 19
490 1 -13.057 -11.5338 -2.79834 11
491 1 -4.14198 -3.23421 -15.4016 17
492 1 -4.27829 12.873 8.14962 18
493 1 2.63845 -1.17867 -10.1839 22
494 1 6.95563 -4.45048 -1.77026 23
495 1 -2.67806 17.475 -2.32687 14
496 1 3.93045 -6.77707 4.77845 22
497 1 10.83 9.06004 -8.65045 11
498 1 13.0498 -1.77796 10.4402 13
499 1 -1.47191 -1.68458 14.5507 18
500 1 1.9632 11.822 11.0802 20
501 1 4.7671 -3.25283 18.1708 10
502 1 3.11476 10.8501 -15.3766 12
503 1 -13.7278 -5.87816 -12.5592 8
504 1 3.26111 -4.73914 16.0239 16
505 1 7.84822 11.6732 4.95736 20
506 1 4.98041 11.9681 -7.22457 20
507 1 -5.59837 14.8901 -2.24797 18
508 1 -2.86643 14.1098 -3.79558 20
509 1 10.2089 -1.44548 15.1263 12
510 1 10.6924 0.830268 -10.6823 19
511 1 7.44823 -7.12803 -3.36478 20
512 1 5.43505 8.8776 11.5451 19
513 1 -12.0754 -13.5882 2.16353 12
514 1 -9.88007 13.1985 -8.47148 8
515 1 -1.73417 1.88416 9.98667 20
516 1 -13.5426 -1.1494 10.0102 15
517 1 -1.15423 12.6558 -9.26621 21
518 1 0.550784 -9.49088 -2.28043 24
519 1 5.57358 -1.37457 -8.69111 20
520 1 -0.41798 15.7972 -4.79821 13
521 1 -7.17324 -2.52204 -14.1163 22
522 1 1.17866 -12.3557 2.79751 20
523 1 -14.1219 -6.15214 -0.0089496 13
524 1 0.441772 14.8751 -7.94173 18
525 1 -6.78613 9.02587 10.8787 19
526 1 -10.915 -5.40586 8.72609 18
527 1 2.77665 14.8448 3.47885 17
528 1 4.95632 -6.99126 -5.30461 22
529 1 2.17254 -11.6556 11.4474 16
530 1 -10.5441 6.88586 3.88028 20
531 1 3.51403 3.73345 18.5608 10
532 1 -5.26369 15.7095 -5.32311 15
533 1 9.61647 -4.40461 -3.20271 19
534 1 -2.99102 14.0324 13.5076 15
535 1 -2.74058 4.57599 -17.1719 12
536 1 -6.48383 -10.3328 10.8006 15
537 1 -1.16211 1.58515 -10.1937 21
538 1 1.24343 14.4898 -10.8574 13
539 1 -3.47787 14.8783 5.97932 22
540 1 7.87754 10.9228 -9.11595 15
541 1 -8.00241 -2.24977 -17.2634 10
542 1 -4.3713 -11.858 -3.90795 21
543 1 -12.0693 -5.69826 -9.76849 15
544 1 11.2422 4.04044 -1.68963 21
545 1 15.1325 3.56187 -5.70879 14
546 1 9.2853 -10.1465 0.30133 22
547 1 5.13347 11.0158 16.6286 7
548 1 3.58266 -9.42489 -3.79353 22
549 1 -8.67157 3.74658 -15.1088 13
550 1 1.60243 12.0382 4.6216 20
551 1 -9.52967 4.06814 2.60163 25
552 1 4.82212 11.2185 9.55794 16
553 1 15.9433 7.36277 -5.74427 8
554 1 12.3781 0.80373 4.92111 21
555 1 8.50596 3.61645 -6.75371 21
556 1 3.69459 3.86717 15.0016 18
557 1 8.40777 11.8151 11.7242 19
558 1 0.3994 -4.12004 11.3492 22
559 1 11.8194 9.05033 4.69669 21
560 1 3.7087 6.72536 12.788 21
561 1 13.674 -2.41125 -6.41291 16
562 1 3.11526 -3.90315 9.48824 22
563 1 -7.32758 1.77709 -7.39083 20
564 1 16.9697 7.65179 -2.43122 10
565 1 8.51693 -9.97834 6.88567 16
566 1 -2.71781 -4.54844 15.9458 21
567 1 8.03307 14.9664 10.3323 12
568 1 10.5405 7.49856 15.3985 12
569 1 2.53899 8.99695 6.16219 21
570 1 7.75525 11.0358 8.2577 17
571 1 7.85331 3.57277 6.49161 21
572 1 1.29392 -11.6926 5.5482 22
573 1 -5.824 9.18454 -2.16736 23
574 1 9.17045 14.6548 -3.36762 9
575 1 7.51136 1.8654 -12.1907 18
576 1 -2.78115 16.9724 0.712581 14
577 1 -4.17462 -11.7666 -7.40654 20
578 1 8.36221 -6.14631 -10.6722 14
579 1 -7.90908 6.61509 14.6043 12
580 1 -6.89197 6.77581 -10.8876 21
581 1 -11.8467 -11.2952 8.37067 11
582 1 -5.96548 4.38612 -9.18018 23
583 1 -12.2083 4.43577 -2.44803 21
584 1 9.41814 -4.37309 3.1951 22
585 1 12.2742 13.3628 8.57624 9
586 1 2.81495 -9.4695 6.16968 22
587 1 -12.3969 -5.74337 -5.87304 19
588 1 -4.79555 -1.28801 -18.6386 10
589 1 1.56268 3.7919 13.0337 21
590 1 6.61839 10.2107 -14.838 14
591 1 9.06889 -5.05116 13.4766 12
592 1 14.4769 9.79815 -2.5016 8
593 1 11.5974 9.33954 7.52449 16
594 1 3.15305 -15.2064 -8.74706 9
595 1 -7.67572 1.22367 12.5534 21
596 1 13.3494 3.07714 3.75588 16
597 1 -9.43471 12.0298 7.87819 21
598 1 2.91103 15.0463 -3.11874 15
599 1 -8.61702 9.80075 -8.25897 17
600 1 8.45179 9.22478 3.28209 21
601 1 -5.63252 -14.6905 -2.42455 12
602 1 11.1338 -8.69637 6.60774 10
603 1 8.59138 9.8029 -0.0911587 17
604 1 -7.22849 11.9746 9.38058 21
605 1 -14.0595 2.45417 5.9042 18
606 1 -7.07777 -3.54149 -7.51062 23
607 1 7.64292 3.41622 9.8027 20
608 1 -0.823149 -9.32212 17.6004 10
609 1 6.07675 5.80182 14.8808 19
610 1 -6.42263 9.64906 3.94683 22
611 1 11.0479 3.37257 1.78072 21
612 1 7.99001 3.73973 3.27255 24
613 1 2.39718 2.3808 -15.3033 14
614 1 -5.92443 -3.15233 14.6374 23
615 1 8.27902 -1.74361 -10.1933 22
616 1 12.9786 -5.37411 -5.1318 16
617 1 8.97284 0.609743 9.44227 22
618 1 -5.14525 1.04341 14.8109 22
619 1 8.13374 8.78466 6.34679 22
620 1 4.39504 -1.68131 14.9678 21
621 1 -4.60642 6.1891 14.8213 17
622 1 -1.42993 -3.92886 -10.612 22
623 1 -5.90616 6.4954 12.1201 23
624 1 6.71341 5.6588 11.7953 19
625 1 -8.00928 -11.0915 4.41074 21
626 1 14.3381 8.32937 3.12609 14
627 1 1.17512 -12.0453 -0.512603 22
628 1 0.205941 14.5804 1.37993 16
629 1 10.621 15.2328 8.51137 10
630 1 5.80827 -1.46355 -15.2881 13
631 1 0.139092 16.1846 -1.23446 14
632 1 13.0996 11.9788 4.64508 10
633 1 -9.83835 -10.9991 -4.76809 17
634 1 -4.54889 1.81645 -17.7631 12
635 1 -11.5149 13.7894 -0.93509 14
636 1 10.6705 -3.36069 -14.3786 8
637 1 12.1095 3.59241 -7.79261 19
638 1 2.9311 14.7179 -0.15853 15
639 1 -10.3112 6.74832 0.829196 21
640 1 4.75246 6.59368 -3.30482 22
641 1 11.9735 -0.026682 12.898 11
642 1 10.0797 2.91994 11.9191 18
643 1 -5.53294 -11.3223 13.9973 9
644 1 -12.6684 8.01745 -7.7789 13
645 1 1.99791 17.1527 8.76919 12
646 1 7.10579 -3.92396 -11.9022 21
647 1 0.727757 1.24565 11.299 21
648 1 -6.48196 14.6099 10.5553 17
649 1 2.81571 14.0535 13.845 10
650 1 13.6089 -2.89528 0.687992 18
651 1 8.14708 10.5659 14.6407 13
652 1 -10.1064 -0.585005 12.5174 15
653 1 5.81079 -15.2505 -2.5912 11
654 1 -0.402306 -1.43901 -8.6428 24
655 1 -10.3552 11.909 3.93251 21
656 1 6.02565 14.325 1.7731 17
657 1 -12.2675 -8.19425 10.3457 10
658 1 -2.0375 3.93406 18.031 11
659 1 -5.8046 4.13872 -16.5018 13
660 1 -5.34881 4.51358 -12.4506 20
661 1 3.2293 -9.83596 -0.148344 22
662 1 7.91616 11.0655 -12.4708 12
663 1 -11.8334 10.1262 6.83814 15
664 1 4.92192 6.91533 -13.36 21
665 1 3.84871 -6.68055 11.2768 23
666 1 10.5643 12.1493 3.24485 19
667 1 -6.80592 3.81071 13.8833 20
668 1 -9.64293 -8.86898 -15.2972 9
669 1 -6.03155 -6.10939 -12.9954 19
670 1 -5.1725 -9.77041 -12.561 10
671 1 -2.7231 14.5695 -0.766836 20
672 1 7.37849 -4.31612 -8.6845 21
673 1 -0.423285 9.48417 4.97517 22
674 1 9.68211 -9.09169 -6.61953 19
675 1 5.4886 -15.3956 1.56108 11
676 1 2.51738 -9.50411 9.50067 23
677 1 11.3114 8.79723 -1.72362 19
678 1 -1.98795 -9.05026 -7.62976 18
679 1 -7.49588 -0.977049 14.2143 18
680 1 -1.74255 -11.4048 7.15192 19
681 1 -12.5198 -6.02936 -2.78737 18
682 1 -16.604 -4.80169 5.84401 14
683 1 -3.10107 -9.36382 9.29451 19
684 1 17.2185 4.85937 -3.39657 9
685 1 -10.4249 16.7509 0.109065 11
686 1 -12.4104 4.2747 7.70999 21
687 1 10.3984 -1.98484 5.36723 23
688 1 -11.1713 -6.16733 -14.8077 12
689 1 1.73656 7.06121 -5.21965 20
690 1 7.40537 0.776183 -8.94409 23
691 1 5.0596 15.1418 8.34048 14
692 1 7.17289 6.22531 -1.84792 21
693 1 -8.50405 -1.69442 -11.052 20
694 1 -9.32424 -6.12681 -7.59407 20
695 1 -9.21473 7.89081 12.1167 16
696 1 5.31443 12.0805 -10.2702 19
697 1 8.99937 14.5242 13.3555 8
698 1 -1.03475 -1.21863 11.3149 22
699 1 -2.78012 -14.4611 -0.399462 14
700 1 0.508457 -10.802 14.5847 14
701 1 1.44349 -1.26512 13.272 23
702 1 12.8557 1.9987 10.3578 13
703 1 4.4372 -9.65664 -7.39723 20
704 1 -7.23461 6.88535 -4.00785 21
705 1 7.06828 6.14337 7.87715 23
706 1 -13.4373 0.00353925 7.559 18
707 1 10.8137 6.92132 -6.52394 15
708 1 3.40257 -14.5208 -4.26031 17
709 1 2.1877 -14.798 6.09411 13
710 1 0.0698429 -15.0154 -2.80814 14
711 1 7.80342 6.60855 -8.49734 19
712 1 13.3039 5.81181 -1.95723 21
713 1 -4.18622 2.43045 -15.0293 20
714 1 3.3636 0.853277 16.5457 15
715 1 4.99685 8.24059 -16.5552 12
716 1 -0.457913 2.35705 -17.5002 11
717 1 -12.333 -0.745115 -2.72622 23
718 1 -1.09088 11.1774 -3.55555 23
719 1 -0.364547 -6.81064 -12.4976 18
720 1 -7.01452 -5.45376 1.12612 20
721 1 11.8578 5.81265 -9.7882 11
722 1 6.30243 -10.0589 1.37926 20
723 1 -8.31638 13.0522 12.7756 11
724 1 9.3761 -7.46894 8.64222 18
725 1 12.1044 -10.0636 1.71684 12
726 1 9.90312 -7.43791 11.3402 12
727 1 -1.35016 12.111 6.42447 21
728 1 -10.1006 2.81096 13.9348 11
729 1 -4.43482 3.88563 16.4963 18
730 1 -5.83013 -7.77581 12.0108 17
731 1 9.73847 0.698579 3.28914 19
732 1 -3.95569 16.7145 10.9119 13
733 1 -13.0614 -0.52286 4.06754 21
734 1 9.32875 -13.3771 -1.806 13
735 1 -9.8217 11.8621 -2.48596 19
736 1 3.70858 -12.5492 7.85486 19
737 1 9.8181 1.47333 15.1734 13
738 1 10.7131 10.8599 9.95252 15
739 1 0.973059 -6.49002 6.44211 22
740 1 -10.6613 -3.25887 -2.57913 23
741 1 -6.86963 3.75552 10.5457 19
742 1 -16.1163 -3.57 0.743235 15
743 1 7.63787 8.05792 13.3495 21
744 1 2.82878 9.29517 3.05044 21
745 1 -10.1889 -5.97864 2.70751 19
746 1 -0.764674 -12.7571 11.5659 14
747 1 9.64127 -7.16657 4.65004 21
748 1 9.29272 -4.90478 6.9593 18
749 1 11.6595 14.9154 11.7333 9
750 1 1.74801 -9.047 -9.05027 19
751 1 -2.69537 4.23861 -13.5058 21
752 1 -4.08515 3.45857 13.1388 22
753 1 -4.61341 17.5336 7.37166 15
754 1 15.1939 -0.314645 6.12492 16
755 1 5.99015 9.41155 -5.06481 18
756 1 -9.29886 9.22599 8.92195 20
757 1 4.27977 6.3087 9.80159 21
758 1 13.4164 0.600501 -11.3149 12
759 1 -4.57464 -11.111 -0.705071 19
760 1 12.307 -4.78177 2.13899 17
761 1 4.8078 1.40182 -10.3319 20
762 1 -3.38076 13.921 10.7946 18
763 1 11.823 -10.8035 -7.10814 10
764 1 8.94512 9.02904 -6.29725 18
765 1 -3.76526 -6.60141 -4.19717 21
766 1 9.13286 3.52109 -9.81397 20
767 1 12.7412 0.782381 1.51867 20
768 1 -5.03565 -5.25285 17.626 15
769 1 -2.39278 -14.5404 -7.75239 11
770 1 1.31198 11.8225 8.41201 20
771 1 -14.9446 5.27166 5.24963 16
772 1 8.13119 3.69323 -3.50539 20
773 1 16.0587 6.15121 -0.230942 12
774 1 1.67681 -4.04299 -12.325 21
775 1 -6.97378 12.075 2.3142 22
776 1 10.4292 3.00465 8.37187 21
777 1 0.713396 13.1609 -3.47605 18
778 1 3.0185 4.48379 -13.4764 20
779 1 7.44914 -7.33819 -0.182718 19
780 1 -12.2306 4.18612 0.804898 21
781 1 10.0684 6.29978 6.57952 21
782 1 -12.3478 -14.1171 -0.882213 10
783 1 -9.96025 7.37938 -5.94694 17
784 1 12.3349 0.372916 8.06854 22
785 1 -10.3281 1.21203 -9.80796 18
786 1 -10.9762 1.20722 10.9178 20
787 1 -3.31207 4.27206 -7.28025 23
788 1 10.575 -4.23597 -7.3222 22
789 1 -9.62035 -6.57761 -3.99931 21
790 1 10.4184 -6.76137 -4.67859 23
791 1 -12.1541 9.16287 -2.85357 17
792 1 -11.7811 -8.52724 3.82305 17
793 1 10.114 9.23526 12.5935 17
794 1 -7.94494 -6.6733 7.3977 18
795 1 7.28467 2.91151 13.8261 20
796 1 7.79249 -2.78713 17.3526 10
797 1 7.49707 -1.54245 6.67731 25
798 1 -10.3765 1.49786 0.875479 23
799 1 4.52402 11.6114 6.40902 20
800 1 0.257164 9.69925 -8.60901 21
801 1 2.89488 -7.27857 -13.5293 16
802 1 -3.9879 17.9083 4.01185 14
803 1 -9.38075 -9.92418 10.5451 11
804 1 3.14271 14.4358 -6.18292 19
805 1 1.04428 6.55566 11.178 23
806 1 12.8988 -4.60524 -8.43436 13
807 1 7.91947 -8.57866 13.6151 9
808 1 -2.45202 9.86348 -10.5584 22
809 1 6.29774 8.93754 -11.1623 19
810 1 -7.51062 -0.99536 7.51751 19
811 1 13.0605 5.79962 4.9183 17
812 1 -2.89158 -0.586697 -10.2173 20
813 1 10.2971 11.9338 6.49012 20
814 1 -13.011 7.20393 -0.687198 24
815 1 -2.85705 -8.8304 6.16468 22
816 1 3.97102 14.9976 -8.85098 12
817 1 6.26711 -4.24232 11.6522 23
818 1 -1.7732 -11.4533 1.02783 20
819 1 -9.29153 17.5225 -5.28042 11
820 1 -12.9836 6.56933 -4.63498 18
821 1 10.4852 0.534047 -6.98178 21
822 1 -1.40112 -12.1117 -8.96917 17
823 1 -7.14382 6.74334 6.05714 20
824 1 8.98563 14.2543 0.351443 12
825 1 -10.4621 -0.637583 5.67682 20
826 1 6.43632 3.83709 -14.6586 17
827 1 -3.36962 -6.49892 -11.0477 20
828 1 -0.351836 -15.2719 3.91757 13
829 1 -1.57142 6.75545 16.1865 20
830 1 12.9079 -11.1712 -4.41975 12
831 1 -0.376467 10.3026 -14.8652 12
832 1 13.0263 0.25993 -4.73729 19
833 1 12.8387 6.14242 0.87368 21
834 1 0.0496768 -14.2173 7.47621 15
835 1 4.47902 -4.1645 -13.8789 20
836 1 10.5627 -1.7703 1.56871 22
837 1 -0.740555 6.67624 -13.6864 22
838 1 -1.80551 -6.47017 8.1645 22
839 1 7.45887 6.21931 -5.13928 22
840 1 4.44873 0.891982 -7.25382 24
841 1 -9.94593 6.63237 -2.57154 21
842 1 -16.3568 7.67411 0.204325 14
843 1 8.19429 2.02695 17.8491 10
844 1 -9.583 -6.48391 16.2836 9
845 1 -0.234455 9.5543 14.8167 20
846 1 -9.3332 -13.2991 2.40012 15
847 1 2.86591 9.00109 -3.29935 22
848 1 -10.4226 11.6721 10.9851 12
849 1 6.93707 0.60292 14.9613 19
850 1 -6.74236 14.4936 7.64355 21
851 1 8.06739 4.01902 0.0498914 22
852 1 -1.49299 -6.54059 10.8112 18
853 1 0.972302 -6.47912 9.79357 24
854 1 11.7204 14.5913 5.22051 10
855 1 7.4408 -4.63211 -5.28199 21
856 1 5.32558 -12.5073 -9.0402 13
857 1 -10.0134 -3.29799 -13.5045 17
858 1 -6.68333 0.00661057 -16.0918 15
859 1 1.99633 14.5662 9.85604 16
860 1 -5.0682 -5.6367 14.1194 18
861 1 -2.71599 14.8172 -7.102 17
862 1 -15.9535 7.21736 -3.17871 13
863 1 7.74226 12.1907 2.06864 20
864 1 -2.84588 -14.5238 9.54619 9
865 1 -1.65449 6.7894 6.37 22
866 1 14.2929 7.7483 6.83654 9
867 1 -10.8594 -8.30183 -12.2813 12
868 1 -1.90741 11.1576 13.0463 18
869 1 -6.89486 -0.964564 17.3954 14
870 1 -6.89602 -11.6798 -9.27227 10
871 1 13.652 -2.67205 7.23867 14
872 1 6.92385 -12.6699 3.2996 19
873 1 4.72037 11.231 12.631 15
874 1 -5.38039 -3.43717 7.99091 23