ITEM: TIMESTEP
47000
ITEM: NUMBER OF ATOMS
2000
ITEM: BOX BOUNDS pp pp pp
-30.0 30.0
-30.0 30.0
-30.0 30.0
ITEM: ATOMS id type x y z Coordination
1 1 -9.31353 8.89767 -14.6752 9
2 1 -4.0229 -13.9374 -10.9087 9
3 1 6.46094 16.7126 8.56788 15
4 1 7.44949 -12.0644 5.57146 12
5 1 -9.17053 3.55559 -1.22753 23
6 1 10.5659 -7.19886 -10.4281 15
7 1 -11.3823 4.52144 -6.46281 23
8 1 -1.35775 -5.82056 10.5279 20
9 1 -6.09726 -0.357667 -9.86433 20
10 1 -6.04259 -12.1345 2.96592 20
11 1 11.193 6.32943 -9.99577 9
12 1 -8.39915 -8.51601 -0.833597 16
13 1 -12.6831 -11.1274 3.88551 12
14 1 -4.37055 4.20441 17.4017 12
15 1 1.75491 4.4226 9.41772 23
16 1 2.52429 9.11512 -10.3545 24
17 1 1.39288 -1.0855 13.0484 19
18 1 -6.05245 -5.00247 -14.7619 12
19 1 -15.3588 0.859503 12.6264 10
20 1 9.16517 7.40011 6.85524 21
21 1 -4.59471 19.7349 -7.30745 9
22 1 3.04683 12.0417 -8.63248 19
23 1 8.35519 -0.139532 12.9158 22
24 1 -10.7816 8.26582 -11.4369 11
25 1 -10.2561 10.4094 9.99953 16
26 1 6.5748 -15.1807 4.4605 10
27 1 1.02017 -12.6604 -8.13655 17
28 1 7.33502 -12.7698 2.37305 18
29 1 -9.39378 -13.0445 -4.11736 14
30 1 -13.0767 -4.32226 10.2894 15
31 1 -0.934856 -5.64753 -6.03368 21
32 1 12.0491 -6.80731 -4.83398 18
33 1 0.640061 9.8928 -15.6567 14
34 1 0.0977947 1.60933 14.4786 20
35 1 2.82088 -15.0549 6.67344 15
36 1 3.61451 -8.09669 13.5699 11
37 1 -16.5472 -3.26085 -0.340024 12
38 1 -12.7181 1.48386 10.5352 20
39 1 -9.73613 -1.20318 -1.19618 23
40 1 -5.45402 11.7408 -2.55811 20
41 1 -4.00539 -13.8699 -5.9808 15
42 1 5.54751 1.61817 -13.1728 19
43 1 4.16544 -4.28585 -10.3151 24
44 1 -1.6491 -1.32084 14.0063 19
45 1 -11.1988 11.8633 -7.03064 16
46 1 5.15552 10.2394 -12.1164 14
47 1 -3.51837 14.4654 10.3613 14
48 1 -7.96489 12.495 -3.94103 19
49 1 -2.12035 12.0969 -0.27713 17
50 1 3.20567 -13.6845 -0.159847 18
51 1 6.80449 -7.50173 -6.70219 22
52 1 3.54253 -10.3125 -13.1208 12
53 1 -8.94931 8.16051 15.4408 10
54 1 -13.1506 -4.29661 -5.29289 15
55 1 -3.8634 9.40811 -3.67263 18
56 1 -5.52897 -8.32173 7.61998 20
57 1 -3.2492 10.007 8.77327 19
58 1 -6.98818 7.20949 -7.75716 22
59 1 -4.72201 12.068 14.535 10
60 1 -5.79956 -15.8339 8.39272 9
61 1 4.25304 3.58713 7.943 21
62 1 7.18616 -14.2356 -2.59349 11
63 1 3.75435 12.1206 12.766 15
64 1 -10.2286 5.87923 -9.50505 18
65 1 -9.65942 8.93541 -8.42806 18
66 1 7.60571 3.56659 10.3837 22
67 1 10.4208 -5.02534 -12.8956 14
68 1 9.78491 -10.3634 1.56422 17
69 1 -14.6918 0.268296 7.1217 12
70 1 4.81176 16.8971 3.63556 15
71 1 2.76678 -4.28603 12.3429 20
72 1 -9.07745 -8.27795 8.82829 19
73 1 -13.6731 1.26256 -1.10303 17
74 1 9.03702 1.03226 9.98967 19
75 1 -1.00691 15.163 11.1773 13
76 1 4.40803 -1.94359 7.9214 21
77 1 -3.93374 -5.5367 -8.13007 19
78 1 -11.8984 5.2937 10.2819 24
79 1 -7.48365 6.85043 -1.096 21
80 1 -3.94795 7.51414 -9.16674 22
81 1 8.08132 -1.59015 -3.47069 20
82 1 3.03116 17.0069 -5.4882 13
83 1 6.46703 -4.74836 4.96902 22
84 1 7.42986 -7.28005 6.76742 15
85 1 -1.9026 12.9472 -8.68135 18
86 1 -11.2737 11.0957 2.46223 15
87 1 -3.02617 -2.63056 16.474 15
88 1 -4.07767 7.25082 6.96702 21
89 1 -1.14223 -4.24519 17.2841 12
90 1 13.5593 -2.12683 -2.79944 12
91 1 -10.7416 2.18499 4.05446 19
92 1 -13.5695 -9.32592 6.9136 11
93 1 5.93045 -10.8403 -7.51286 21
94 1 3.58874 -1.34543 -14.0032 23
95 1 -5.90079 1.4017 -13.8216 20
96 1 -0.495092 9.51344 1.32985 19
97 1 -5.79643 9.69135 -9.62626 18
98 1 0.955292 7.21509 15.3128 16
99 1 -3.76682 14.7718 -1.09167 20
100 1 -11.4167 8.72851 -2.25428 21
101 1 7.62051 14.9915 3.16155 21
102 1 -4.12441 -5.52758 8.54188 22
103 1 6.34344 -3.78142 8.05818 22
104 1 4.03473 -4.84924 -7.27697 20
105 1 4.21305 -6.76313 -9.45682 19
106 1 -4.28833 4.52673 9.35605 23
107 1 9.71141 5.27396 14.3425 18
108 1 -13.5613 -9.36353 -2.44855 16
109 1 -14.2926 -5.49353 -0.840036 20
110 1 12.7173 -10.2585 3.78458 9
111 1 -7.9861 7.26407 2.06862 22
112 1 7.88671 8.71834 -11.1804 12
113 1 2.3679 12.9529 1.26724 18
114 1 -8.73473 -7.09163 13.0971 19
115 1 -6.86932 -12.5895 12.5373 11
116 1 2.72043 -11.824 -10.9776 10
117 1 4.39939 6.63282 -6.51952 23
118 1 6.43364 -9.8847 -4.56626 23
119 1 -5.10923 -11.4502 6.83873 17
120 1 -11.2458 -8.97415 0.226299 20
121 1 11.2017 6.69458 12.2915 14
122 1 15.7186 -1.16148 -8.63813 8
123 1 -12.5026 -0.649076 0.909267 20
124 1 8.06191 12.2605 4.73276 18
125 1 15.7135 8.28484 5.06459 12
126 1 -5.23642 -0.273382 16.6375 15
127 1 0.96072 6.82829 7.65793 23
128 1 -6.42392 9.59893 -6.02935 19
129 1 -2.16155 -8.08526 -7.58461 21
130 1 6.97557 -6.75167 -9.48848 19
131 1 -4.6588 13.2434 -8.46618 21
132 1 9.01376 -6.07723 12.1476 12
133 1 0.909191 0.8404 -18.3187 10
134 1 -1.40382 6.65684 -7.13168 23
135 1 10.0677 1.64451 -2.97768 24
136 1 -12.9156 13.9418 -3.12722 10
137 1 -7.44237 13.7268 -1.33041 20
138 1 5.75614 3.70732 -8.72961 21
139 1 4.74 -11.42 3.33406 20
140 1 -8.03125 12.0677 -6.99613 18
141 1 -5.70951 16.4663 8.1691 9
142 1 5.88871 13.0775 -7.70145 17
143 1 0.292237 12.157 3.46493 17
144 1 -5.55595 12.9233 0.913817 18
145 1 9.4865 10.0191 -3.33327 24
146 1 -0.869172 9.28755 -5.04504 19
147 1 -4.20281 12.8559 -11.7224 15
148 1 -2.25456 10.8422 -17.6294 7
149 1 -10.9275 -11.7881 1.5593 14
150 1 -14.1166 8.96339 -3.43925 13
151 1 -1.08435 -4.24822 -15.2339 12
152 1 0.226982 -9.89387 -12.2989 13
153 1 12.7406 12.5812 8.81348 13
154 1 -7.15337 14.0889 6.0349 15
155 1 -15.1932 0.801547 -5.40738 10
156 1 -11.253 10.2571 6.04561 17
157 1 13.9845 3.42444 0.971707 16
158 1 -7.5068 4.22242 -14.7781 15
159 1 8.97834 1.5974 15.5607 14
160 1 -1.53736 17.8134 3.53668 11
161 1 -2.36228 8.09487 11.6466 21
162 1 3.05357 -6.81995 -13.4996 14
163 1 -6.4316 13.679 8.93165 18
164 1 -5.00153 14.4165 -3.91507 21
165 1 1.43201 -6.25504 15.6622 8
166 1 -8.40916 -3.53663 12.2888 21
167 1 -5.93001 -11.6908 -10.0287 17
168 1 -13.749 11.6575 -5.78048 11
169 1 -4.2255 -6.44101 5.48482 20
170 1 1.09144 -15.3493 -1.12172 21
171 1 -5.0888 10.157 -12.6557 15
172 1 -14.6433 3.07055 9.59024 14
173 1 5.87154 9.96062 -2.15236 22
174 1 -6.52108 3.81827 13.2346 16
175 1 -0.0357468 -9.43878 7.93349 15
176 1 -9.0858 4.10899 -4.33613 23
177 1 -5.51217 18.3472 3.33895 8
178 1 3.63864 6.65238 9.51148 21
179 1 12.2151 2.251 13.8205 14
180 1 -4.43222 16.6019 5.36902 17
181 1 12.6154 -2.20446 -13.26 11
182 1 -7.43122 9.98658 10.1458 20
183 1 -3.93967 1.83536 -9.66306 20
184 1 8.74398 -10.0881 -1.48822 21
185 1 -8.30616 -3.70707 5.62877 19
186 1 -16.4907 -1.29992 2.48517 10
187 1 -10.0536 -6.55332 6.52457 18
188 1 3.69803 7.10038 13.4312 20
189 1 -15.9448 -0.499407 -2.44189 13
190 1 -3.84189 -18.1173 1.6494 11
191 1 5.86174 -8.59641 -1.27903 19
192 1 -2.87921 11.2308 2.36525 18
193 1 6.56371 13.0238 14.2483 13
194 1 -11.7506 -1.19783 -6.45274 20
195 1 -9.2468 14.9813 -7.78631 12
196 1 -16.616 2.62023 -2.8844 12
197 1 -9.31329 -0.0224262 9.52935 19
198 1 -7.87365 -9.79384 5.9695 21
199 1 1.88409 -11.3048 4.93164 20
200 1 -11.3223 7.68647 1.8963 21
201 1 13.2786 3.50839 4.01908 19
202 1 5.63885 3.87287 -5.21811 23
203 1 -5.09998 -11.08 -12.8964 13
204 1 3.22559 1.84083 13.1893 18
205 1 2.33551 -11.7298 7.99358 15
206 1 -6.87536 7.19536 -16.6784 9
207 1 -1.66274 -11.5467 -6.79582 18
208 1 9.65076 3.81963 -12.1745 9
209 1 1.96265 11.2632 -12.651 15
210 1 -10.3424 -3.84282 -6.54487 22
211 1 -5.32938 17.5782 -4.542 14
212 1 -6.53089 -9.16972 12.443 17
213 1 9.77103 12.1446 14.2276 15
214 1 -4.09144 1.97283 19.1684 14
215 1 -9.78366 14.3328 -10.4532 11
216 1 2.97407 1.65693 9.76078 20
217 1 1.52993 -6.80712 -11.0898 21
218 1 -7.45344 17.6082 -5.88947 10
219 1 2.51515 1.48347 -12.1956 22
220 1 -9.83597 -12.7182 6.67911 12
221 1 -9.68238 5.3821 8.2655 20
222 1 -8.80289 2.12635 14.2487 14
223 1 0.900249 -10.0718 -5.27532 23
224 1 -3.59912 -12.5565 4.51538 18
225 1 8.95982 -10.554 -6.32912 16
226 1 10.4169 10.1499 12.0969 20
227 1 2.97267 9.66114 -7.03817 20
228 1 -0.290524 9.42375 -1.80144 17
229 1 -14.5089 1.42953 2.37961 16
230 1 -11.4229 12.8163 0.131044 14
231 1 4.53877 4.85626 11.4582 22
232 1 -0.65833 -17.3873 2.71753 19
233 1 9.8014 1.31724 0.209984 20
234 1 3.98068 6.46846 6.13938 23
235 1 -9.71595 4.31182 5.37483 19
236 1 -12.3181 -8.33653 -4.83516 18
237 1 6.08671 4.40264 -11.6702 17
238 1 1.58991 -0.440482 9.52108 22
239 1 8.66996 14.4415 -7.87772 8
240 1 0.23949 -12.1732 -0.960105 20
241 1 -3.03645 2.78884 -12.8278 19
242 1 0.144435 -14.1725 7.44892 16
243 1 7.52928 1.20983 -5.25687 20
244 1 -9.54669 -0.817158 2.42063 19
245 1 1.74213 -12.9311 -3.27058 20
246 1 -12.4425 -3.09379 -10.9768 10
247 1 9.19481 14.944 0.920918 14
248 1 0.302286 -1.01705 -12.5366 20
249 1 -1.27489 4.74135 17.0482 15
250 1 16.0538 4.74773 5.26994 11
251 1 12.0585 -5.67401 -8.10974 15
252 1 -9.40648 -1.09151 -11.2457 20
253 1 -9.08995 -0.835878 -8.15352 20
254 1 -8.0915 -9.5809 14.8789 12
255 1 7.19473 -1.64086 9.85198 23
256 1 3.10794 -4.13291 9.26376 21
257 1 -3.35893 -8.52255 -13.7928 11
258 1 -1.35575 13.156 -15.9082 9
259 1 2.51933 9.83322 -0.431322 23
260 1 -11.5152 -6.53992 -2.24865 21
261 1 -1.6356 14.3115 1.58773 20
262 1 -6.14719 -1.00897 10.3904 18
263 1 -9.49047 -3.84842 -12.7865 12
264 1 -10.0239 -4.26283 -9.49888 21
265 1 -6.70246 12.7399 -11.9272 15
266 1 -6.69335 -11.6743 -2.40812 18
267 1 -6.82297 -6.65833 4.73416 23
268 1 7.81502 -5.30487 -14.283 14
269 1 13.6685 1.25904 -8.12867 12
270 1 10.5929 3.52151 5.54726 20
271 1 -6.80443 -6.82312 10.6275 19
272 1 -2.55324 -12.9563 -0.938382 17
273 1 2.41899 9.49408 14.1058 15
274 1 -3.75821 -11.3518 12.0897 12
275 1 2.37256 -12.3744 2.2811 21
276 1 -1.39086 17.4589 -0.0948539 13
277 1 3.71571 4.21793 -16.086 12
278 1 -3.51936 -3.23963 -13.3747 17
279 1 -11.2241 -3.74131 13.5148 18
280 1 7.46723 9.43992 16.623 19
281 1 -0.100177 -9.15169 1.3831 19
282 1 -5.76427 -9.00315 -10.7901 21
283 1 -8.25306 10.9025 -9.73007 13
284 1 6.97437 6.77147 5.01342 21
285 1 -2.47978 4.95407 -10.514 21
286 1 -1.74826 10.7368 -12.7866 21
287 1 10.0264 -12.2964 -3.22166 11
288 1 -8.40778 10.8254 -1.73045 18
289 1 -1.31158 12.8335 9.27869 24
290 1 9.29981 0.62904 6.64846 19
291 1 -15.3386 6.54958 4.61676 14
292 1 -3.12739 -4.00072 12.3256 20
293 1 -6.1428 11.0326 7.44497 16
294 1 1.37644 -4.0255 -8.82587 25
295 1 11.9743 8.5544 -3.9534 17
296 1 1.79085 -6.8477 -0.536489 21
297 1 -4.21897 -0.911639 12.5457 17
298 1 -14.5219 -2.26781 5.09313 18
299 1 2.72132 -17.3582 4.68927 12
300 1 -7.09111 7.4345 12.465 21
301 1 -9.50813 5.47544 13.135 17
302 1 -15.531 -2.77267 8.07816 12
303 1 -12.3454 -5.50043 4.75602 20
304 1 10.5391 -6.27967 1.5105 15
305 1 -11.5416 -8.89117 13.9854 11
306 1 8.05126 -1.90381 -6.48447 24
307 1 4.8149 -15.1481 -3.84657 11
308 1 4.95346 17.0287 -2.27454 12
309 1 -7.91142 16.9108 -2.0006 11
310 1 9.27534 7.72721 10.1223 21
311 1 -11.3434 -3.50802 7.09398 18
312 1 4.48515 -6.25905 -3.35119 20
313 1 -9.63436 8.76589 0.089823 20
314 1 -6.88728 5.26551 7.21793 19
315 1 1.71718 -6.43934 3.0141 20
316 1 12.5442 -4.78733 8.29865 14
317 1 -1.38937 4.8835 11.0977 20
318 1 -7.82073 -3.48761 -4.79171 22
319 1 2.84016 2.71568 16.8962 15
320 1 -3.14113 9.88954 5.47273 19
321 1 10.5425 10.0248 17.0936 12
322 1 -6.32048 14.5868 -6.5817 20
323 1 1.87991 -4.49111 -15.5526 12
324 1 7.51974 -4.108 -11.5104 21
325 1 -11.2967 4.26215 14.977 11
326 1 -16.1101 4.19074 0.175755 13
327 1 -0.804043 -6.32056 -9.06506 18
328 1 -7.87654 11.2577 1.63348 17
329 1 4.67215 -6.90595 7.74793 21
330 1 -9.4242 -13.5256 -1.16666 13
331 1 4.54287 -12.9867 5.72185 15
332 1 -6.64622 -6.87969 15.6172 13
333 1 -13.2774 8.9959 3.66651 18
334 1 -2.28955 -3.32742 9.11707 20
335 1 5.57066 -12.4134 -10.8277 10
336 1 -4.56862 -3.47311 -9.65369 23
337 1 8.81223 0.407402 -14.5156 10
338 1 4.85901 9.66611 4.49169 22
339 1 -9.21354 -0.837663 -4.51462 20
340 1 5.50818 -7.83995 -13.0473 13
341 1 10.9265 0.747194 -12.7887 13
342 1 -6.12156 -12.031 -5.30987 18
343 1 -11.6582 -11.686 -1.82059 17
344 1 -5.4649 -8.99466 1.22037 22
345 1 8.63845 6.78119 17.4054 15
346 1 14.4055 3.80226 -2.42363 13
347 1 -6.77813 1.20727 -16.2368 12
348 1 1.21804 11.5739 -4.86521 17
349 1 -13.4975 -3.51644 -8.29552 12
350 1 -10.9342 7.373 5.23607 24
351 1 -10.773 17.0106 -3.72001 8
352 1 -1.90954 7.19914 9.01407 21
353 1 12.5509 -2.9439 13.0084 10
354 1 10.9661 -0.890454 -4.86247 21
355 1 3.96937 -1.88436 14.4555 15
356 1 11.781 4.07476 -3.98828 16
357 1 -6.01677 -14.7153 -0.789016 16
358 1 -1.52341 -9.13222 -4.41559 20
359 1 -0.593396 9.91978 7.68917 22
360 1 -14.6529 3.92121 -5.12536 12
361 1 6.82217 -9.45343 1.2589 17
362 1 9.70849 -1.40606 8.8814 19
363 1 -15.8447 -3.89669 -3.05292 12
364 1 -11.2324 -3.7614 0.15833 22
365 1 -5.80169 -3.20964 14.4751 18
366 1 -3.41612 9.28683 -0.642264 20
367 1 -10.0556 -10.3664 -6.3836 18
368 1 5.34186 10.3888 15.2014 13
369 1 -9.99002 1.40334 -2.67031 21
370 1 -3.21671 9.50054 -6.92018 21
371 1 1.7811 11.6713 8.17184 23
372 1 -13.8846 -10.6556 0.597383 13
373 1 -4.53542 -9.03561 -5.02461 21
374 1 -16.6172 1.40885 0.494877 12
375 1 -12.4887 7.20266 -8.33771 11
376 1 13.6639 -6.88498 3.32494 13
377 1 2.3117 -17.28 -4.3305 11
378 1 11.7191 11.2569 15.102 12
379 1 7.75439 12.1824 -10.7178 12
380 1 -9.22286 1.99752 -13.0366 13
381 1 -6.54775 15.4609 -9.86642 13
382 1 -9.47015 1.48251 -6.41474 24
383 1 -0.768063 -11.9793 6.46133 21
384 1 15.914 4.83111 9.09092 9
385 1 -0.373277 13.3052 -12.6669 13
386 1 -3.93227 -0.578709 8.78158 20
387 1 -14.4329 6.77506 1.61252 14
388 1 -10.8513 2.11818 7.78915 20
389 1 -7.12058 -13.2461 5.59958 15
390 1 9.76868 -4.22243 -9.49816 22
391 1 -17.7093 3.5408 3.43143 8
392 1 -14.6311 6.54077 9.33693 16
393 1 -11.3339 7.61022 8.66618 19
394 1 1.15101 -6.53491 12.5129 18
395 1 -4.97123 4.0802 -16.0672 17
396 1 10.4289 -9.73583 -4.21847 16
397 1 -6.84746 -9.32067 -7.7264 19
398 1 -5.96341 -3.91527 10.2266 19
399 1 -6.13942 7.47327 -14.0902 16
400 1 3.14173 -8.8152 2.77425 18
401 1 3.15096 14.3214 -6.40636 22
402 1 -8.63747 10.4563 4.36402 21
403 1 -1.37249 -0.800388 17.748 12
404 1 -10.6336 -6.99745 -12.1919 11
405 1 -11.0183 -9.8499 6.6936 18
406 1 10.9437 -7.21776 9.39225 12
407 1 1.66082 1.1638 -9.03192 25
408 1 10.1171 -6.58624 4.91193 18
409 1 12.3319 11.642 -2.97204 13
410 1 -5.34116 2.03929 11.2212 18
411 1 5.26236 12.8454 3.0171 25
412 1 9.15656 -4.43067 7.08271 22
413 1 -4.36364 -15.2399 1.59995 17
414 1 -6.17278 9.45346 15.5888 10
415 1 -5.53497 12.2225 4.33495 20
416 1 -6.79615 -6.18082 -8.88882 21
417 1 5.03885 12.3577 -0.312149 18
418 1 6.42069 14.6894 5.76791 19
419 1 -7.57605 2.73198 8.96986 20
420 1 -7.36817 -9.4036 -4.64743 22
421 1 -9.2808 7.77299 10.5788 22
422 1 -6.79281 -3.95242 -11.3845 20
423 1 -8.93121 8.82365 7.59039 19
424 1 -4.11867 -10.6638 -7.92889 20
425 1 -1.21091 -6.07111 -12.6813 15
426 1 -8.49946 -9.17302 2.48418 22
427 1 6.23413 0.72511 8.35322 21
428 1 -5.39024 -6.04793 13.1177 21
429 1 -8.30212 4.55927 -11.1534 18
430 1 6.94155 6.81394 1.60858 18
431 1 -0.767271 -15.8372 -3.61422 17
432 1 1.44507 15.9665 2.66923 18
433 1 -0.0417614 4.04156 -8.49397 24
434 1 -5.39285 7.98083 9.99482 20
435 1 -14.8592 -7.02961 -3.86617 14
436 1 -3.97927 18.254 -1.43493 11
437 1 7.34238 15.5265 -2.18944 17
438 1 -6.4787 -6.40895 -6.11477 20
439 1 5.91347 7.6749 19.5288 8
440 1 -1.73008 -14.4903 -8.4469 16
441 1 -0.206113 1.75621 -14.2207 19
442 1 1.63653 -18.7346 -0.0375757 10
443 1 -9.2202 12.0615 7.78018 17
444 1 5.62789 8.37257 11.3506 21
445 1 5.44368 9.58685 0.970882 22
446 1 2.32752 12.459 -1.98042 18
447 1 -9.65268 11.3097 -12.3089 10
448 1 2.66151 3.62549 -6.8504 23
449 1 -1.17207 -6.83353 3.96278 19
450 1 -16.7812 -4.10545 4.96318 10
451 1 0.926228 17.0756 5.52446 11
452 1 -6.67617 2.11929 -10.9944 21
453 1 10.2652 6.28539 -3.06425 20
454 1 -1.45635 20.1481 -6.27716 10
455 1 9.78654 -3.92711 -0.28318 22
456 1 15.6343 6.05193 2.58328 12
457 1 0.418367 3.98553 -11.8657 25
458 1 -2.81381 -10.3741 1.84086 18
459 1 -0.831541 -12.3246 3.47465 16
460 1 1.82051 -10.8671 13.8125 6
461 1 -8.45534 4.42321 -7.52831 23
462 1 -12.1191 -9.14501 10.2979 15
463 1 -2.16684 -8.07821 -10.6584 20
464 1 11.3218 14.6679 3.61654 10
465 1 1.77261 6.67928 -11.7341 23
466 1 3.46911 -0.139139 17.228 9
467 1 -13.6406 6.38684 12.8497 12
468 1 -2.1905 -15.1678 4.74835 25
469 1 -11.7568 -3.24204 3.34127 22
470 1 14.4767 -4.22061 -7.32424 10
471 1 11.8419 -4.27786 -5.70571 18
472 1 -4.36296 6.73757 -5.95948 24
473 1 1.63595 -6.82142 -4.10833 21
474 1 3.25196 3.87785 -9.86506 24
475 1 10.6404 -1.35585 -1.4528 23
476 1 -4.60927 -1.60106 19.4011 9
477 1 1.78545 15.6722 -0.332291 15
478 1 -2.00692 -0.276998 -14.363 18
479 1 0.970064 4.35294 -15.1069 18
480 1 -8.36134 -2.69336 8.78212 21
481 1 -9.02557 15.0833 0.781049 13
482 1 -9.35929 5.9148 -13.0942 14
483 1 -12.5621 -0.527291 4.06367 20
484 1 1.74674 -7.31032 -7.62355 22
485 1 -4.49315 -9.04951 14.1769 15
486 1 1.75457 6.72414 -8.43922 22
487 1 13.8992 2.45545 10.2955 15
488 1 9.46484 7.1385 -0.577415 17
489 1 -8.35675 -14.8162 1.06813 11
490 1 -5.48 -8.77386 -2.13712 21
491 1 -1.85845 -1.4378 -17.3968 12
492 1 -3.25253 13.0546 6.60713 21
493 1 2.71388 -1.30766 -10.4697 22
494 1 6.50704 -4.04803 -1.80475 20
495 1 -2.03905 17.6627 -8.46222 13
496 1 4.63997 -6.96358 4.63781 19
497 1 10.4023 11.6531 -5.6179 15
498 1 14.0172 -0.217194 11.322 11
499 1 -9.27442 2.44864 19.5391 9
500 1 5.19216 14.6214 11.3041 14
501 1 6.96309 -0.459848 15.5308 13
502 1 2.17053 6.97821 -15.6805 16
503 1 -9.35608 -7.31945 -6.88545 17
504 1 -0.241312 -3.98682 13.9347 20
505 1 5.41364 11.8167 6.47668 20
506 1 5.83816 9.61009 -8.38265 20
507 1 -10.9796 13.7247 -4.78891 16
508 1 -2.12493 14.8716 -6.57809 19
509 1 6.79332 -3.2246 13.2189 13
510 1 10.5483 1.45533 -9.53777 20
511 1 7.60399 -7.22091 -3.44178 21
512 1 5.2148 11.6815 9.58233 21
513 1 -15.0004 -7.33507 5.33561 13
514 1 -12.3442 14.5645 -7.59743 10
515 1 -1.88926 2.31957 9.1828 20
516 1 -11.0554 -1.86437 10.3374 21
517 1 0.439188 11.197 -9.99744 19
518 1 0.316901 -9.52289 -2.26119 21
519 1 5.15776 -1.42405 -8.56786 21
520 1 -0.608549 14.8705 -1.68754 14
521 1 -7.76231 -6.88021 -11.9581 18
522 1 4.13039 -14.4593 3.2501 20
523 1 -12.307 -6.08329 1.18541 20
524 1 -0.874643 15.4343 -10.184 12
525 1 -2.05029 12.337 12.2706 17
526 1 -9.83482 -5.2626 10.5844 19
527 1 8.06333 12.5567 -1.87543 20
528 1 3.96026 -7.95661 -6.15806 22
529 1 3.96585 -6.71463 10.7965 19
530 1 -12.6943 5.41103 3.319 19
531 1 4.24911 7.33266 16.452 17
532 1 -4.81661 16.77 -7.53044 16
533 1 9.84353 -3.87227 -3.77045 22
534 1 -2.61125 14.7805 14.2895 7
535 1 0.46005 4.32252 -17.9105 12
536 1 -5.42502 -13.0033 9.84461 14
537 1 -0.8233 1.39422 -10.9831 24
538 1 2.78757 8.92843 -14.0888 13
539 1 2.33497 13.3969 10.5671 19
540 1 7.56808 7.68143 -8.48112 19
541 1 -4.56455 -1.5252 -15.2654 13
542 1 -4.08111 -11.8228 -2.97582 19
543 1 -12.168 -0.232326 -9.31265 16
544 1 11.2699 3.55508 -1.14139 19
545 1 13.1512 6.03704 -5.29827 14
546 1 6.49 -12.9808 -5.6684 12
547 1 8.13265 7.81113 14.3368 22
548 1 3.29338 -9.50359 -3.50042 21
549 1 -2.39691 4.45028 -17.467 12
550 1 2.53105 11.7713 5.22205 20
551 1 -9.9997 4.33027 2.11096 20
552 1 8.23141 12.0726 16.8405 13
553 1 13.5563 10.5949 0.205938 13
554 1 12.3015 1.01894 5.79909 16
555 1 8.1997 3.80143 -6.87372 20
556 1 3.29392 4.86736 14.8836 20
557 1 13.6869 4.70837 11.7985 12
558 1 0.142453 -3.37157 11.0476 24
559 1 10.4102 12.4178 -0.494033 19
560 1 1.42518 4.35572 12.2867 18
561 1 13.3677 -1.29478 -6.07532 17
562 1 3.9877 -1.49239 11.3611 20
563 1 -6.95515 1.60618 -7.80465 24
564 1 15.6997 8.90947 1.50415 10
565 1 12.612 -8.77701 1.3961 11
566 1 -11.6521 1.41723 17.3712 9
567 1 11.1586 14.1354 6.84876 14
568 1 11.4302 0.432014 12.569 22
569 1 2.32584 8.9466 6.45915 18
570 1 9.47741 16.5789 7.83039 12
571 1 7.59339 3.4843 6.77136 18
572 1 0.919289 -14.5431 4.21658 24
573 1 -6.05176 9.47126 0.00853924 19
574 1 4.62143 12.0418 -3.98006 16
575 1 8.05309 2.04212 -11.1822 20
576 1 -0.134933 17.6384 -5.77376 13
577 1 -5.33936 -13.8891 -7.94311 16
578 1 8.89246 -8.62331 -12.4701 9
579 1 -12.7096 8.80111 10.7922 13
580 1 -6.28421 7.47068 -11.246 20
581 1 -9.61466 -11.8413 3.98447 18
582 1 -5.99428 4.54316 -9.24926 21
583 1 -11.8913 3.10298 -3.95955 18
584 1 9.36151 -3.84489 3.20186 18
585 1 12.479 11.8239 5.22379 15
586 1 1.46105 -6.41791 9.25365 19
587 1 -14.3573 -6.64137 -7.09985 11
588 1 3.62028 -1.13316 -17.1884 11
589 1 -2.53225 1.85951 16.2912 18
590 1 4.31247 13.1811 -10.8202 13
591 1 9.979 -2.52342 12.0806 21
592 1 11.5331 9.23345 -1.01967 20
593 1 12.3324 12.5641 11.8969 11
594 1 1.09626 -13.8143 -5.76822 20
595 1 -6.95139 0.444315 19.7604 10
596 1 12.7507 0.491922 2.50024 17
597 1 -4.56942 11.6098 11.0399 20
598 1 -2.78211 16.8213 -4.61381 17
599 1 -9.32312 9.87339 -4.60392 22
600 1 7.86069 9.34207 3.11502 20
601 1 -8.32209 -15.1434 4.17478 13
602 1 14.0966 -3.38776 3.09938 9
603 1 8.24177 9.93318 -0.544107 20
604 1 -7.44541 10.254 13.3458 15
605 1 -14.1556 2.76327 4.93358 16
606 1 -7.25363 -3.27853 -8.19641 19
607 1 5.91439 1.02432 11.5158 19
608 1 -9.93393 -10.2011 12.0976 17
609 1 6.50722 5.28699 15.4735 19
610 1 -5.37726 9.49202 3.12964 17
611 1 10.6528 2.992 2.54511 19
612 1 7.47562 3.283 3.57454 21
613 1 2.767 1.72383 -15.0795 22
614 1 -10.118 -6.40249 15.6492 11
615 1 8.12004 -1.37757 -9.61767 20
616 1 12.2481 -5.16579 -2.62763 16
617 1 9.28367 4.88627 8.80507 16
618 1 -8.94272 -0.255378 17.2388 12
619 1 7.66532 9.7365 6.71134 19
620 1 1.28639 -2.06358 16.2276 14
621 1 -2.45503 6.91356 14.8489 15
622 1 -1.10149 -3.50551 -11.225 18
623 1 -7.18184 5.22849 10.5585 20
624 1 7.5322 6.01765 11.7701 21
625 1 -10.9818 -11.4763 9.57695 12
626 1 13.145 8.89506 6.88345 18
627 1 3.78654 -11.6233 -5.46734 22
628 1 4.1363 14.5492 -2.62748 23
629 1 9.70093 16.8183 4.51537 10
630 1 6.75252 -2.35323 -15.8519 13
631 1 1.4012 14.8315 -3.79742 17
632 1 10.8517 8.82138 1.72138 17
633 1 -4.79626 -11.7592 0.376074 20
634 1 0.910576 -1.2993 -15.7291 18
635 1 -10.5849 14.7941 -2.00596 16
636 1 10.7453 -1.78066 -8.1999 19
637 1 12.6314 9.01594 -7.60218 11
638 1 10.1025 14.7743 -3.16976 12
639 1 -10.8567 5.7409 -0.435854 19
640 1 4.54427 6.02485 -3.53978 21
641 1 9.23177 2.79414 12.7217 20
642 1 10.0449 -1.87853 14.6968 12
643 1 -0.276585 -10.9837 11.2535 10
644 1 -12.463 9.13583 -5.73953 17
645 1 3.76514 16.823 7.07581 13
646 1 10.3618 -1.63502 -11.4198 22
647 1 0.521368 1.52577 11.19 20
648 1 6.43299 17.0543 0.442277 12
649 1 7.71897 13.3224 11.4664 17
650 1 13.5221 -4.77185 0.795412 13
651 1 11.3106 7.52205 15.7343 11
652 1 -10.6533 -0.324417 13.06 21
653 1 4.02553 -16.7599 -1.33332 14
654 1 -0.103959 -1.35724 -9.15382 23
655 1 -3.49336 14.3187 4.22093 19
656 1 7.8942 11.965 1.45933 22
657 1 -12.4928 -6.88995 8.27426 18
658 1 1.87343 5.20995 17.8422 15
659 1 -3.22857 8.54741 -15.8539 13
660 1 -5.19341 4.9713 -12.5985 23
661 1 2.91271 -9.58297 -0.102361 18
662 1 3.70078 15.6259 -8.79929 12
663 1 -13.8896 3.55427 12.5602 13
664 1 4.92495 7.67917 -13.1235 15
665 1 1.78391 -9.55087 10.4948 14
666 1 2.84995 14.4731 4.96361 25
667 1 -7.95548 5.47283 17.9292 9
668 1 -10.4549 -8.6625 -9.81139 12
669 1 -8.36393 -9.6364 -12.2979 13
670 1 -8.29766 -12.3232 -7.1215 14
671 1 -1.54012 19.3875 -2.95212 8
672 1 6.90208 -4.35566 -8.33362 23
673 1 0.0152531 9.9597 4.67556 21
674 1 6.33246 -9.36057 -10.8381 15
675 1 6.09013 -14.9632 0.462449 14
676 1 6.16332 -8.36671 11.3116 9
677 1 13.73 6.78677 -2.418 14
678 1 1.14255 -16.2 -7.29037 12
679 1 -13.4476 -1.8804 12.5334 15
680 1 -5.26775 -16.437 4.533 17
681 1 -9.92847 -9.16883 -2.97536 22
682 1 -15.0691 -0.032267 10.0296 12
683 1 -2.45779 -16.5815 7.17009 12
684 1 16.0078 6.02599 -0.0952348 9
685 1 -3.53207 16.9131 1.66052 18
686 1 -12.7796 5.07144 6.61703 20
687 1 10.9285 -1.96484 5.3746 19
688 1 -13.1207 -6.3784 -10.0126 12
689 1 1.56343 6.71225 -5.57107 20
690 1 7.1066 0.851169 -8.11723 23
691 1 7.87245 16.5667 11.0332 8
692 1 6.98526 7.34379 -2.53973 20
693 1 -9.65541 1.97804 -9.78491 20
694 1 -12.5041 -8.85845 -7.32147 13
695 1 -5.09636 6.35296 15.5947 15
696 1 4.97974 6.94813 -9.7023 22
697 1 10.3766 14.3386 10.0549 13
698 1 -1.23643 -0.851114 10.6752 21
699 1 -3.70919 -14.6052 -3.41793 14
700 1 -8.26838 -14.4194 10.4035 10
701 1 -3.68313 -5.79753 15.6427 12
702 1 11.2002 3.97781 11.019 21
703 1 3.1303 -10.2723 -8.26897 18
704 1 -7.152 6.67273 -4.53972 20
705 1 6.14315 6.40536 8.4669 21
706 1 -12.3282 -0.607726 7.83636 19
707 1 9.42546 9.17468 -6.1969 20
708 1 -0.948861 -18.4648 -2.65321 10
709 1 -2.73994 -18.4498 5.21197 11
710 1 -3.62655 -17.1017 -1.48764 13
711 1 8.24376 5.29366 -10.189 20
712 1 13.4669 9.92833 3.47847 15
713 1 -3.1803 1.90002 -16.0035 21
714 1 0.293633 1.97843 18.203 12
715 1 -0.735878 7.54899 -17.1521 12
716 1 -4.77754 2.30377 -18.9538 7
717 1 -12.5832 -0.453505 -3.40477 18
718 1 -2.2271 13.2599 -3.75865 16
719 1 -6.19776 -8.24716 -14.4995 13
720 1 -7.08402 -6.68106 0.91873 19
721 1 10.5993 6.94504 -7.30881 16
722 1 5.03129 -11.6429 0.536656 16
723 1 -4.38433 6.11881 12.394 22
724 1 7.58086 -8.43498 3.72047 14
725 1 13.1327 -8.24465 -2.18665 12
726 1 9.88372 -4.17223 9.64858 20
727 1 -0.436875 13.3703 6.37562 21
728 1 -12.8606 1.04826 15.0212 14
729 1 -6.42509 3.92372 19.9345 9
730 1 -2.49369 -11.7013 9.07621 17
731 1 9.61856 0.332923 3.45994 20
732 1 2.83731 9.70008 10.9618 20
733 1 -14.119 -3.04794 1.29991 21
734 1 11.6442 -10.8537 -0.666087 11
735 1 -11.6536 11.3877 -3.16358 21
736 1 0.118695 -16.8102 6.34862 15
737 1 5.71565 2.13711 17.2565 13
738 1 4.03119 13.8932 7.94934 23
739 1 1.67034 -7.01731 6.16871 17
740 1 -10.7121 -3.56202 -3.22214 19
741 1 -2.24163 1.8014 12.503 19
742 1 -15.5527 -8.20862 -0.435256 13
743 1 7.39399 9.82764 12.7482 20
744 1 2.71946 9.79455 2.68817 23
745 1 -9.8757 -5.80459 3.18578 17
746 1 -7.49864 -10.9842 9.28379 18
747 1 10.4927 -10.485 6.99355 6
748 1 12.1553 -4.5097 5.20063 18
749 1 7.90289 13.0128 8.21568 21
750 1 -0.348959 -9.70345 -8.70666 19
751 1 -2.13929 5.03535 -14.3406 19
752 1 -7.7999 -0.784401 13.4094 14
753 1 -1.14631 15.3144 4.43482 20
754 1 13.8745 3.31624 6.69333 15
755 1 6.40087 9.18891 -5.3586 19
756 1 -4.29125 9.34195 13.5476 19
757 1 8.19902 11.1042 9.75124 17
758 1 9.45689 -2.62438 -14.3017 13
759 1 -6.90279 -16.9385 1.96972 11
760 1 14.0661 -2.16091 6.41889 10
761 1 4.93614 1.13672 -10.2186 22
762 1 -0.905938 10.1744 14.1902 14
763 1 8.51092 -9.54723 -9.15438 15
764 1 9.91026 11.115 -8.66546 11
765 1 -3.96611 -6.30136 -4.50133 22
766 1 11.4465 3.72523 -7.54331 15
767 1 13.6033 -1.55143 0.164999 13
768 1 -2.20875 -7.36999 13.0905 12
769 1 -0.867265 -12.5254 -3.88493 18
770 1 4.26178 15.3827 0.964568 16
771 1 -15.884 4.86283 6.66499 12
772 1 8.25383 4.39982 -3.06102 23
773 1 14.8039 6.76841 7.34965 15
774 1 2.06084 -3.78025 -12.3363 20
775 1 -9.51833 13.0935 4.50373 15
776 1 11.9268 6.82369 9.42297 19
777 1 5.97427 16.0582 -5.27175 14
778 1 3.62206 4.46146 -12.651 21
779 1 8.06067 -6.9492 -0.226192 20
780 1 -12.5658 3.60265 0.689912 17
781 1 12.2539 6.21808 5.97396 19
782 1 -14.2689 -8.27767 1.98026 16
783 1 -9.95391 6.95783 -6.09786 22
784 1 11.9975 0.971209 8.68246 20
785 1 -12.2226 3.76687 -9.34476 11
786 1 -10.1715 2.46249 11.4373 16
787 1 -3.38697 3.75561 -7.51708 21
788 1 9.28442 -5.7394 -6.47386 20
789 1 -9.26976 -6.20547 -4.7349 17
790 1 10.1396 -6.8365 -2.30514 22
791 1 -13.0219 9.84165 0.207174 16
792 1 -11.7719 -8.41913 3.63591 20
793 1 13.286 9.51638 10.0419 16
794 1 -7.08748 -5.51827 7.85563 21
795 1 6.51528 3.30483 13.535 20
796 1 12.1367 -5.3703 11.5229 12
797 1 7.44574 -2.12302 6.36474 22
798 1 -10.7563 1.54575 0.664812 17
799 1 1.04596 15.0325 8.02081 18
800 1 0.20738 9.62056 -8.1224 21
801 1 -0.067014 -7.4909 -14.9727 11
802 1 -6.7696 14.7386 2.98478 18
803 1 -10.9517 -13.3434 12.3369 5
804 1 1.05025 17.8775 -9.2736 9
805 1 0.74362 7.55612 10.9511 17
806 1 12.8181 -4.37482 -10.8216 14
807 1 7.23726 -7.14843 9.18373 16
808 1 -2.78934 10.4866 -9.96291 21
809 1 1.61223 14.1084 -9.92043 20
810 1 -7.04914 -0.277517 7.38315 19
811 1 16.3856 8.85123 8.63944 8
812 1 -3.12701 -0.931173 -11.4152 20
813 1 10.7803 8.90571 4.9599 21
814 1 -13.4347 7.06807 -0.953082 17
815 1 -2.649 -8.80687 6.6536 14
816 1 0.6106 14.0134 -7.32757 20
817 1 6.05641 -4.57294 10.9466 18
818 1 1.74787 -16.4471 1.69677 19
819 1 -6.85988 16.8526 0.811098 12
820 1 -12.5236 6.20775 -3.6648 21
821 1 10.1575 1.05897 -6.50493 19
822 1 -2.48127 -11.59 -10.4681 17
823 1 -7.40644 7.67419 5.19466 18
824 1 7.17015 13.616 -4.95555 16
825 1 -9.45348 -0.742516 5.77632 22
826 1 5.96785 1.20275 -16.0322 11
827 1 -5.10908 -6.14704 -11.5713 20
828 1 -1.00644 -17.4945 0.0985846 15
829 1 0.211133 10.3397 10.9408 19
830 1 5.4468 -11.0378 -2.25183 14
831 1 -4.16717 12.8412 -14.4806 9
832 1 13.282 1.29221 -4.61771 15
833 1 9.76807 6.13637 3.30116 21
834 1 -1.36569 -14.4321 1.31701 17
835 1 5.01967 -4.40882 -13.5702 18
836 1 10.9541 -2.2287 1.83593 17
837 1 -0.346967 7.34731 -13.8188 19
838 1 -0.860401 -5.97992 7.07809 20
839 1 7.87577 6.36744 -5.58562 20
840 1 4.20635 1.21609 -6.85894 23
841 1 -9.88456 7.01639 -2.93183 19
842 1 -13.9832 8.05488 6.91846 15
843 1 4.76674 5.0745 17.9977 13
844 1 -12.6451 -6.65631 11.8679 12
845 1 4.94292 9.04401 7.75814 19
846 1 -7.99894 -11.4145 0.808669 19
847 1 2.64709 9.09539 -3.63179 20
848 1 -11.2032 8.56416 13.3975 11
849 1 -3.01163 4.03055 14.0673 20
850 1 -8.35554 12.5023 11.0432 12
851 1 8.54474 4.21045 0.162505 21
852 1 -3.45648 -8.89573 10.6006 16
853 1 4.64982 -9.85771 5.97115 18
854 1 10.6016 10.2888 8.03008 20
855 1 6.74159 -4.45035 -5.22929 24
856 1 3.72576 -13.4937 -8.11813 14
857 1 -6.87945 -1.12958 -13.0842 18
858 1 -1.38686 1.67806 -19.0281 10
859 1 7.03112 17.7562 5.70748 12
860 1 -11.9312 -2.0081 15.9437 11
861 1 -4.22688 12.0357 -6.01927 21
862 1 -15.7264 5.58918 -2.36947 10
863 1 10.7538 11.6281 2.19637 19
864 1 -3.08 -13.8409 7.58896 18
865 1 -1.4649 7.08487 5.8489 22
866 1 15.3288 10.8752 11.5137 6
867 1 -12.1068 -11.6934 -4.85545 11
868 1 0.406867 13.0968 13.3426 12
869 1 -9.08483 -3.26302 15.6591 12
870 1 -2.81703 -16.5176 -6.9178 8
871 1 12.8785 -2.25898 9.66037 17
872 1 4.97552 -16.9821 2.07652 11
873 1 8.55181 9.90013 19.6374 9
874 1 -5.26647 -2.93813 6.88482 24