ITEM: TIMESTEP
27000
ITEM: NUMBER OF ATOMS
2000
ITEM: BOX BOUNDS pp pp pp
-30.0 30.0
-30.0 30.0
-30.0 30.0
ITEM: ATOMS id type x y z Coordination
1 1 2.69066 -3.56573 -11.6533 15
2 1 3.61431 -12.8723 -0.925641 23
3 1 16.6317 1.70507 14.1994 18
4 1 13.2858 -10.0379 10.7472 21
5 1 -4.78947 6.52215 5.89655 20
6 1 16.9048 -14.0813 -4.18787 11
7 1 -6.25594 -0.546274 -2.59883 18
8 1 7.34649 -7.58262 16.7904 18
9 1 -3.51004 0.686345 -9.1723 17
10 1 -14.2817 -4.4521 9.08782 10
11 1 13.2758 -1.83007 -5.14445 21
12 1 7.91302 -17.2189 9.61501 9
13 1 -6.40582 -4.37124 12.7971 19
14 1 6.27817 -2.20956 22.7632 13
15 1 2.38737 2.70814 14.3928 24
16 1 1.52793 7.5614 -3.88223 20
17 1 7.87708 -3.67774 17.0323 19
18 1 -0.219355 -5.92327 -15.1209 11
19 1 -8.78725 -4.13549 14.3654 19
20 1 18.7496 8.3903 7.31465 13
21 1 7.84565 9.32445 -11.3251 10
22 1 6.27504 -3.75657 -13.3143 17
23 1 15.6253 0.826231 5.26184 18
24 1 -10.9996 0.852781 0.20834 17
25 1 1.21892 -4.51133 -5.00444 22
26 1 -7.31008 7.44875 14.4082 11
27 1 12.2759 -15.1165 7.09887 14
28 1 8.2577 -14.0628 -2.76794 20
29 1 7.13392 -13.3109 5.27008 19
30 1 -1.36832 -10.9245 -10.8086 9
31 1 -8.22991 -3.63041 17.6442 8
32 1 8.48796 -13.0665 -8.70538 15
33 1 14.9023 -10.8511 -4.95027 16
34 1 0.697431 5.04393 -13.7179 9
35 1 8.93403 0.364784 16.5477 18
36 1 6.81737 -11.6833 14.0242 15
37 1 6.90602 -7.97369 20.0243 15
38 1 -8.04406 -4.06497 7.99556 20
39 1 -8.09118 -11.9257 10.3497 13
40 1 -6.52792 -2.67639 5.57694 21
41 1 -0.799943 10.8504 0.111094 18
42 1 6.34507 -14.97 -8.41419 11
43 1 5.85153 -8.98863 -6.88822 20
44 1 6.21208 -10.262 -13.668 10
45 1 6.73952 -4.08743 19.9941 14
46 1 -6.84769 3.76025 5.60196 19
47 1 4.78848 9.1357 -12.0774 15
48 1 5.21622 12.3275 10.9028 18
49 1 -3.16338 3.74896 -4.10404 19
50 1 0.321494 12.2574 3.62565 19
51 1 11.0486 -13.9161 4.42078 20
52 1 10.4507 -7.58327 0.37548 24
53 1 7.21657 -7.9647 -11.8046 21
54 1 -6.21723 9.01715 11.4988 12
55 1 -8.27255 -4.89983 -5.30496 15
56 1 12.1232 -4.90718 5.3085 19
57 1 -4.8026 8.90622 3.37809 18
58 1 -6.29414 -13.9192 4.65815 15
59 1 1.82543 8.20413 13.759 17
60 1 -9.64446 3.85823 -4.42893 11
61 1 -4.75699 7.46965 16.4312 10
62 1 -3.34265 -14.9915 8.57684 18
63 1 7.1035 3.86115 11.6351 24
64 1 10.5797 -16.7369 -1.70195 21
65 1 7.55678 11.0956 13.5249 12
66 1 -7.4888 1.17942 -5.63564 15
67 1 -6.35332 4.40934 -5.58544 16
68 1 13.8821 3.53502 15.3248 19
69 1 11.2826 -4.40364 -11.4077 14
70 1 14.1533 -11.0554 13.4699 16
71 1 -9.50374 -7.20328 8.51739 20
72 1 15.2563 12.4575 11.4452 10
73 1 10.3274 -0.711347 21.4968 15
74 1 -4.20058 -9.09082 7.97838 20
75 1 -9.08321 -2.17978 -0.999448 19
76 1 17.7167 -3.03463 11.9493 11
77 1 11.6801 -4.61578 0.188909 21
78 1 -0.747861 10.6798 13.6167 15
79 1 10.3401 -2.33518 10.4974 18
80 1 -0.21722 -7.24033 -4.6521 21
81 1 -11.183 1.97827 15.2424 15
82 1 -6.39088 11.5171 -0.514888 17
83 1 -3.15532 6.13665 -1.42878 18
84 1 10.8189 -2.82603 -3.2814 22
85 1 11.4138 13.3244 0.139289 12
86 1 10.9147 -7.99135 5.546 20
87 1 8.82671 -11.4573 11.5622 24
88 1 -3.42434 9.88034 0.403187 19
89 1 -2.32773 16.2495 5.7866 13
90 1 -8.2081 -6.13187 11.0264 21
91 1 0.491446 5.20891 8.15856 21
92 1 1.15116 -7.96845 16.772 12
93 1 19.428 -8.32318 1.70019 16
94 1 -7.02843 -3.13186 10.0851 20
95 1 -5.17554 -16.904 4.37099 13
96 1 9.86932 -11.3186 -2.98608 20
97 1 10.7709 3.07874 -12.1268 14
98 1 6.99415 -1.8429 -10.4017 17
99 1 3.58567 11.483 8.55684 19
100 1 -2.19251 3.30491 -13.6988 9
101 1 10.9353 5.10227 22.5586 8
102 1 4.03471 9.93676 0.501774 18
103 1 -9.97729 5.54606 3.76097 12
104 1 3.698 9.61215 5.6265 20
105 1 -1.0278 -9.53255 13.1021 17
106 1 19.1677 1.65394 7.67606 15
107 1 1.63645 -8.26319 -2.09716 22
108 1 11.9774 -7.54164 -6.28961 19
109 1 -1.37012 2.46106 13.778 20
110 1 11.1761 -2.32373 16.4008 19
111 1 -4.41678 -8.80659 3.25674 20
112 1 -1.25912 -14.3168 -2.56496 17
113 1 16.5112 -12.2731 14.32 9
114 1 1.78087 6.62552 5.7914 19
115 1 7.82693 1.47913 -4.64643 23
116 1 6.78159 15.3379 6.41844 13
117 1 -5.03064 -16.8075 12.817 11
118 1 -6.21772 -14.415 10.5963 15
119 1 13.2632 -9.96317 -11.4173 7
120 1 6.36216 4.62771 -4.83703 21
121 1 14.0694 -11.7135 7.78541 16
122 1 1.81795 -19.8616 8.43818 10
123 1 -8.89577 -11.5511 5.44013 15
124 1 15.1569 8.64218 14.5413 15
125 1 17.4407 -8.58353 -1.85391 13
126 1 -12.0408 -6.47599 7.17159 11
127 1 10.3883 5.66055 8.78743 23
128 1 16.1031 6.3157 1.35055 16
129 1 2.09548 1.31378 19.0972 18
130 1 -1.21647 7.55098 13.6732 20
131 1 1.81917 12.5806 -5.36159 10
132 1 3.13048 -7.44287 -4.54333 23
133 1 12.974 -9.86012 -7.98581 16
134 1 5.79973 9.84669 -9.37597 14
135 1 12.4887 -11.4152 16.353 11
136 1 3.18006 -5.10463 -14.5628 13
137 1 0.539121 5.8924 -1.37253 26
138 1 11.8243 3.07446 -2.33144 22
139 1 -4.63324 8.63701 -2.05588 23
140 1 -4.93163 14.337 4.35777 12
141 1 10.9204 0.862345 -6.36341 17
142 1 11.5426 -10.112 13.9241 16
143 1 -9.37536 6.08643 -2.17959 11
144 1 -1.41274 12.4651 11.2435 14
145 1 12.5649 3.2822 -7.15245 18
146 1 10.4846 10.3961 0.900102 21
147 1 2.1328 12.5813 0.329233 17
148 1 12.074 9.10022 3.1246 19
149 1 2.1355 6.66793 1.18214 20
150 1 4.80404 11.9912 -7.29949 10
151 1 6.79334 6.91768 -7.15695 17
152 1 -9.64261 -8.8937 5.65187 15
153 1 -11.1402 2.39986 3.64212 11
154 1 -2.11308 -5.88675 -12.3491 13
155 1 14.0089 -13.9242 -5.24609 19
156 1 13.7269 11.0348 13.5255 12
157 1 5.76124 12.2263 16.1943 8
158 1 -10.387 1.1611 -2.67724 12
159 1 -2.93627 11.5593 3.56803 17
160 1 21.6598 -6.84481 4.65098 8
161 1 -1.79515 0.498327 -12.4122 13
162 1 9.10525 -3.32879 22.2909 12
163 1 13.9864 11.5804 3.29769 16
164 1 0.579033 5.04743 14.4509 18
165 1 9.6559 -16.1556 -7.81919 12
166 1 -4.23792 13.7773 7.01124 10
167 1 6.07274 9.03404 -2.32494 20
168 1 4.60062 -4.83174 16.525 19
169 1 -6.4447 -8.72914 9.96782 21
170 1 9.30761 -18.7703 -4.81244 11
171 1 -8.14972 6.57398 0.742359 18
172 1 0.951186 -11.8581 7.8544 20
173 1 4.99555 -14.1137 -3.07152 21
174 1 -3.96369 9.44388 -5.22159 16
175 1 -14.3025 -1.97644 11.6679 11
176 1 15.1698 7.47586 -0.855175 14
177 1 -1.34946 5.56894 16.8642 15
178 1 3.93351 -9.36192 18.3827 12
179 1 -3.11186 3.76316 0.877359 20
180 1 8.52396 14.5852 8.8082 14
181 1 3.76983 3.67675 11.5164 21
182 1 15.9156 -0.123139 17.0669 14
183 1 -4.86538 13.6433 -1.92347 14
184 1 13.6903 -11.7356 -2.51108 21
185 1 -3.98849 9.03254 14.0841 14
186 1 -5.83849 2.44882 -2.48308 20
187 1 16.9442 -10.0306 11.8418 16
188 1 -4.27945 -10.7941 11.4303 17
189 1 -12.2053 -2.80646 17.544 8
190 1 -10.9943 -11.794 0.721282 12
191 1 11.0265 1.80646 21.6949 16
192 1 -9.91006 -0.554157 2.76849 20
193 1 0.685752 -18.789 2.26733 13
194 1 8.28471 -10.5471 0.0260425 20
195 1 1.85376 8.31343 8.52006 20
196 1 10.3304 6.8227 17.5681 13
197 1 -5.65098 -3.44669 -2.65489 17
198 1 0.570614 10.9035 -3.29766 18
199 1 -7.24776 -4.48673 -0.204866 17
200 1 -0.843077 -5.50443 15.8907 22
201 1 1.3323 -15.5955 11.5821 17
202 1 9.8384 -14.7824 12.2307 11
203 1 -8.60546 6.60279 6.35004 15
204 1 18.9352 -0.418067 4.63571 10
205 1 11.7551 1.48118 0.518292 22
206 1 1.58957 -8.91134 -10.6134 18
207 1 6.06634 -3.03022 13.9891 21
208 1 4.08956 -16.9896 7.32362 18
209 1 0.552012 5.32016 -10.4667 20
210 1 11.8019 -13.6421 -3.42552 20
211 1 11.7067 -1.0362 -11.8411 9
212 1 4.26249 -0.296185 -7.18427 18
213 1 -3.11558 -5.90042 -2.68927 23
214 1 -1.56501 11.224 -5.67304 12
215 1 -5.63111 -12.0196 16.2167 6
216 1 10.4207 11.7751 8.376 19
217 1 -1.40017 2.46327 18.0199 16
218 1 -1.99181 7.0407 -4.15238 18
219 1 14.3731 -2.17651 10.6851 20
220 1 1.44216 -8.15852 -7.79883 22
221 1 -3.52042 8.33642 -8.21857 10
222 1 3.74693 6.67641 -9.135 19
223 1 -2.61332 -11.3862 8.5619 22
224 1 -13.6298 3.0388 13.3892 8
225 1 -4.6063 6.45253 11.4282 21
226 1 8.68527 -4.87459 -13.2987 14
227 1 3.33151 -17.3817 2.10797 18
228 1 16.4375 -12.6491 2.57336 13
229 1 15.0948 3.24886 17.8031 17
230 1 7.99568 8.50189 -4.30393 23
231 1 1.87294 8.88946 3.18874 19
232 1 -9.50607 -9.03277 11.2955 12
233 1 -9.78187 3.99496 0.879857 17
234 1 5.3431 2.83214 14.1569 22
235 1 10.9223 -18.1766 7.43439 9
236 1 15.887 -2.55031 3.05298 19
237 1 6.5446 5.63379 9.14983 23
238 1 -4.96363 1.35755 13.1345 17
239 1 -9.55364 -9.16652 0.59922 16
240 1 10.0276 0.642639 -10.2348 16
241 1 4.00393 -6.17381 19.7344 16
242 1 12.0236 6.2218 -8.61986 16
243 1 6.82665 -13.1664 0.310749 18
244 1 -1.4074 -2.87468 -8.49245 18
245 1 -0.294898 -19.1398 7.09506 15
246 1 17.8177 1.59505 -0.791535 16
247 1 -4.14342 -5.49743 10.7863 19
248 1 9.95073 -13.7616 9.69782 17
249 1 -6.26132 -6.24022 -2.96709 19
250 1 7.10824 11.4903 3.62012 17
251 1 9.81768 -5.89542 -7.76098 17
252 1 6.87976 2.55136 17.2301 18
253 1 15.0199 2.96799 2.59867 18
254 1 16.1103 0.219607 -4.20055 20
255 1 -5.01786 -4.79335 -5.71472 22
256 1 -9.89435 -2.56945 -3.51092 10
257 1 -0.267625 -17.9288 10.6149 11
258 1 16.3912 -1.10447 14.3918 16
259 1 9.04918 -5.50437 11.4281 24
260 1 1.75374 -10.0059 -5.29317 22
261 1 6.24315 -11.053 11.0278 20
262 1 6.39254 6.44745 -13.2478 12
263 1 7.06327 9.25647 6.01709 19
264 1 -2.70094 -7.9834 5.54987 19
265 1 1.41382 14.0125 9.2629 16
266 1 -0.969078 -3.53182 18.6563 15
267 1 -8.88104 -7.91536 -5.77368 10
268 1 -3.62141 -9.66853 -8.60676 13
269 1 2.16977 7.50018 -11.7793 14
270 1 0.408924 -11.7805 -2.60774 24
271 1 -0.408251 -14.0236 9.46226 18
272 1 12.82 -6.24389 -9.15221 12
273 1 16.2288 -1.58366 -7.388 13
274 1 15.5836 2.32094 8.55767 24
275 1 -5.65679 -7.78508 12.8204 15
276 1 2.09486 -10.395 5.82271 21
277 1 14.157 -1.91933 18.2227 13
278 1 -0.0354638 -15.8269 2.46318 20
279 1 3.95448 -19.4154 5.79104 14
280 1 -3.77279 12.9489 1.09016 18
281 1 7.5529 0.228206 -7.55152 22
282 1 3.26317 -11.1732 -8.23677 18
283 1 -1.72275 -6.34345 13.1166 21
284 1 9.4918 3.79706 17.0596 18
285 1 4.49601 -13.4193 11.84 16
286 1 7.26931 -12.7599 -5.53163 17
287 1 -6.64176 1.79473 -9.87185 11
288 1 11.4184 6.79754 11.4251 20
289 1 -4.58153 0.462678 -5.47142 18
290 1 1.80294 -2.53748 -7.58153 22
291 1 10.9604 -15.7544 1.50185 18
292 1 -6.48589 10.8817 -3.64274 13
293 1 1.70404 11.9548 11.9174 20
294 1 15.3171 -3.07246 7.30062 23
295 1 -4.51795 -3.12537 7.96642 22
296 1 4.20145 -7.06065 22.5172 6
297 1 -2.90792 3.61537 5.79402 21
298 1 9.51343 -10.586 -8.05503 17
299 1 15.3858 6.09117 -8.10706 9
300 1 5.50656 -10.5711 5.51471 20
301 1 2.37235 -1.41154 16.6492 18
302 1 -11.6797 -3.21173 10.0756 16
303 1 5.09282 -16.2049 -0.356305 22
304 1 -10.177 3.90906 12.1535 13
305 1 -3.88475 3.6421 15.6763 14
306 1 -9.51249 -0.26268 13.9303 19
307 1 -11.2161 -5.96473 10.4504 19
308 1 18.3786 -3.97997 -0.177425 17
309 1 -5.29162 -12.1184 8.71106 23
310 1 11.7105 -4.77892 -5.27083 17
311 1 15.4218 -16.8106 -5.48503 10
312 1 2.39381 14.5734 2.86508 18
313 1 -6.86262 13.671 1.1675 10
314 1 13.5488 3.29856 11.4028 18
315 1 -6.59168 -8.12162 6.06759 21
316 1 15.9749 -10.0955 4.80161 20
317 1 -1.93535 7.01127 5.44047 20
318 1 -0.924343 7.89217 8.33168 22
319 1 5.96671 -9.141 13.9076 21
320 1 17.7397 -7.46085 12.8598 13
321 1 0.529294 3.21105 11.6981 22
322 1 -3.0016 -8.02817 0.254763 18
323 1 1.57976 -4.70905 21.3122 11
324 1 0.308007 11.2937 8.31584 22
325 1 13.7297 0.643681 19.979 12
326 1 -3.19623 10.7711 -2.43562 21
327 1 4.27239 -6.92684 -11.8687 18
328 1 11.668 -12.5913 -9.78805 11
329 1 -6.2853 4.6261 14.0641 19
330 1 -6.34345 -0.414403 8.5068 19
331 1 -2.00626 -4.8136 -5.71147 21
332 1 -1.21067 9.04618 2.69637 22
333 1 12.1902 -5.5549 10.6977 20
334 1 -9.01926 -11.1394 -1.68412 14
335 1 10.7295 -8.50922 10.99 21
336 1 -3.69702 -14.3738 14.5504 10
337 1 -11.288 0.773206 6.71221 15
338 1 4.06476 -13.1621 17.1137 6
339 1 12.5072 -18.2005 -3.38885 11
340 1 -0.92801 0.152512 -7.47827 15
341 1 9.73993 -2.56536 -14.4274 12
342 1 10.0493 15.8532 6.11163 11
343 1 -5.84139 -1.93765 0.507233 20
344 1 11.1612 -12.9076 -6.65877 20
345 1 7.12636 3.41732 -7.47067 17
346 1 1.7648 -14.682 -3.61404 22
347 1 -12.3167 -7.57246 -2.74805 7
348 1 -3.22398 -14.5018 -0.0513399 16
349 1 15.1372 -5.18751 19.2701 8
350 1 14.5413 1.76781 -1.14849 21
351 1 -2.85886 5.83643 -9.27984 17
352 1 3.91273 15.6714 5.10623 10
353 1 -9.66834 -5.32007 -2.23518 14
354 1 -4.69149 8.24695 8.19222 22
355 1 -3.14554 9.82161 5.9799 19
356 1 -2.8277 3.30981 10.8262 22
357 1 11.8174 2.08036 13.0944 23
358 1 18.9502 -0.873382 -1.96043 11
359 1 8.22059 -10.8761 20.0902 7
360 1 19.6461 -4.68409 -3.99814 6
361 1 -3.60942 -14.1729 -4.18058 12
362 1 4.85148 -10.3312 0.465643 23
363 1 5.09379 8.65794 9.1937 23
364 1 -3.28583 -0.39286 -2.45767 20
365 1 10.5029 -11.8231 2.66912 18
366 1 15.6569 -4.88616 10.3258 23
367 1 -4.84269 -5.30057 -0.235337 20
368 1 -0.835481 -10.7218 4.95837 17
369 1 -5.41538 -2.15941 15.8776 16
370 1 0.210908 9.59387 5.83086 20
371 1 -8.02876 -8.47047 2.86575 18
372 1 18.3569 3.92558 17.3394 7
373 1 -4.57652 2.71832 3.17183 21
374 1 7.96789 9.89982 -7.23426 15
375 1 6.97863 11.4034 8.10551 21
376 1 -8.15498 -11.8326 1.52553 19
377 1 5.19229 -8.63867 -2.39131 26
378 1 -6.27472 -6.26567 8.37907 20
379 1 -6.6384 5.82998 3.08496 20
380 1 10.8571 -11.1165 8.56742 20
381 1 -0.812053 -17.1488 -0.468708 15
382 1 12.2899 9.09609 17.1918 10
383 1 3.76013 6.49771 -14.0592 10
384 1 -6.63968 -0.700949 -8.11409 14
385 1 2.20532 8.3272 -6.39411 15
386 1 -8.5082 3.24191 -1.28186 17
387 1 -3.33334 -13.632 11.175 22
388 1 16.5515 -1.54929 -0.429787 16
389 1 0.0156145 8.52946 -9.31924 12
390 1 -0.659862 -3.35786 13.2094 24
391 1 -8.29329 -3.37981 2.71149 22
392 1 -4.254 0.111831 10.7895 20
393 1 -3.18805 -14.553 3.33884 19
394 1 15.8876 -13.4541 -0.73895 16
395 1 -11.2753 -5.51824 4.68184 17
396 1 -13.8219 -3.614 15.0446 11
397 1 -11.7257 1.32207 11.9728 15
398 1 4.53689 -8.00471 10.5879 20
399 1 -2.61026 -2.10836 -11.193 14
400 1 13.7651 -15.2075 3.12886 11
401 1 6.141 -11.0585 -9.82538 20
402 1 1.18619 -5.87803 14.6343 21
403 1 0.573808 -3.5391 -14.3968 11
404 1 13.0025 -15.2593 10.677 9
405 1 7.07717 10.1294 0.628395 20
406 1 -9.58738 5.31927 8.91984 14
407 1 4.12896 -2.79445 19.5904 21
408 1 -4.69332 -9.30919 -2.51204 13
409 1 -2.51187 -8.11076 10.9034 19
410 1 9.86641 -8.73158 17.871 18
411 1 6.59227 -1.45694 -5.03052 26
412 1 15.1772 -7.56896 10.2712 21
413 1 16.8655 4.57447 -1.64385 12
414 1 3.69194 1.29902 16.7849 21
415 1 3.46186 11.7944 3.53787 19
416 1 12.2563 -8.50024 8.14218 21
417 1 2.60834 -14.2726 1.85529 17
418 1 -0.319944 2.72687 21.745 12
419 1 2.20901 13.5208 15.0705 9
420 1 -1.32911 -10.5042 -5.45477 21
421 1 14.0327 9.63098 5.80773 18
422 1 10.4381 3.91616 11.4015 23
423 1 -2.20079 -0.616857 13.8425 20
424 1 -1.24299 -11.0077 0.384874 22
425 1 -6.30953 -0.940137 12.7336 20
426 1 -6.18464 -9.93318 1.39968 15
427 1 -3.02096 9.16675 11.1988 19
428 1 0.269147 -13.8016 0.114731 18
429 1 2.88983 -16.3999 -8.74714 11
430 1 -3.35028 -13.2767 5.68867 20
431 1 -0.774613 -8.74746 8.17168 21
432 1 12.2839 -3.08521 8.76068 20
433 1 3.7759 -7.40805 16.2859 19
434 1 -8.47648 3.93067 -7.58853 8
435 1 12.024 1.1704 6.06059 22
436 1 -6.50657 -12.2106 -4.08875 13
437 1 1.76082 14.1503 -2.33453 11
438 1 2.97775 4.15595 -3.79686 22
439 1 3.75627 5.92863 14.4283 21
440 1 -7.90743 0.503561 5.99065 19
441 1 3.89627 12.9654 -3.64375 12
442 1 14.5085 13.3023 0.916405 9
443 1 -3.32484 -7.74096 -6.03844 15
444 1 9.20373 -2.27983 19.3389 19
445 1 11.8275 -16.958 -5.68904 15
446 1 2.98984 -5.52223 -7.26573 24
447 1 10.2667 -17.1313 4.67545 14
448 1 -6.38633 3.20991 11.641 19
449 1 2.75035 1.17828 23.0857 10
450 1 13.5 6.05014 3.44405 21
451 1 5.14874 8.67687 3.2441 20
452 1 2.06166 2.57955 -8.6821 16
453 1 5.00888 1.59987 -5.01629 24
454 1 7.37011 -11.9163 7.98224 22
455 1 -11.9055 -3.05559 3.5158 14
456 1 11.8307 11.7425 11.2228 13
457 1 3.99146 4.28485 -11.1941 20
458 1 11.8018 3.07019 3.0445 22
459 1 6.96346 13.5972 -3.06167 9
460 1 12.2318 -8.71178 2.57148 22
461 1 19.6323 0.65156 1.09489 12
462 1 -0.187461 -4.19173 -11.0827 21
463 1 4.26591 -11.5112 8.67538 21
464 1 2.12232 -14.746 14.0402 10
465 1 6.1731 -10.4328 17.1286 16
466 1 -6.3831 -2.36423 -5.67138 18
467 1 -5.10283 -15.6161 7.41417 16
468 1 0.831983 -15.8611 -6.57285 15
469 1 14.5321 11.1792 8.43679 15
470 1 4.86944 2.25336 -9.3878 16
471 1 9.39392 -5.70579 19.4232 17
472 1 -8.42678 2.45696 14.6628 18
473 1 1.15385 -18.1315 -2.70932 13
474 1 -13.1806 -8.04449 3.6566 10
475 1 18.3374 -11.2307 0.861261 13
476 1 17.3297 -2.28195 5.94682 20
477 1 -5.18692 7.0325 0.266613 22
478 1 8.27944 -8.1663 -2.23475 22
479 1 6.17926 0.0282456 -12.3621 12
480 1 13.3203 -7.48537 -0.251294 20
481 1 -4.12176 -2.76251 13.1397 19
482 1 9.1732 12.8725 5.87771 20
483 1 -2.48839 -2.85734 -14.0068 11
484 1 14.5491 -2.79001 -2.56772 19
485 1 -3.01895 -6.29042 19.0157 6
486 1 0.438892 16.5866 3.60905 11
487 1 -0.0618931 -11.2453 -8.34625 19
488 1 -9.80611 -2.4178 5.3005 19
489 1 4.6701 -13.7949 -10.7262 9
490 1 -11.6365 -3.17696 7.12485 19
491 1 8.96703 8.9861 -1.66454 22
492 1 20.3143 4.58145 8.19961 12
493 1 13.3388 4.37093 0.198546 23
494 1 -6.04884 -14.1055 2.01957 15
495 1 7.06197 -11.0899 2.80065 19
496 1 8.84263 -10.5615 -11.3836 14
497 1 -7.79515 8.58732 8.68513 13
498 1 8.12504 -4.4799 -4.65451 28
499 1 15.0574 -4.65602 -0.720823 18
500 1 8.53108 12.0497 -1.46881 17
501 1 9.01997 -8.94583 8.39014 24
502 1 14.4935 3.10478 -3.9019 18
503 1 9.64228 4.70085 20.0555 16
504 1 -3.9479 -5.63882 15.0875 20
505 1 16.0032 4.99324 11.4398 18
506 1 12.1903 -3.45374 19.5819 13
507 1 5.27827 -4.87094 -10.3451 19
508 1 -1.45105 -9.01077 -2.32996 19
509 1 3.89746 -0.392292 14.0515 20
510 1 16.0445 4.80352 15.1654 15
511 1 12.1738 6.62592 -5.06478 19
512 1 -7.29521 9.84954 1.81729 14
513 1 8.72532 12.8655 1.34406 17
514 1 13.5495 -8.54027 18.4096 11
515 1 13.1643 -0.23429 -8.07555 14
516 1 16.823 -10.5122 8.36027 12
517 1 18.9082 8.23757 13.9723 7
518 1 -13.0696 -9.23034 0.961491 8
519 1 -5.56948 6.64795 -7.12272 12
520 1 0.71431 -0.277993 13.1323 24
521 1 -4.36221 0.169712 18.091 11
522 1 4.75491 7.42053 -4.38019 20
523 1 9.34987 -14.8999 6.86431 20
524 1 9.14528 -0.378682 -12.8355 13
525 1 -0.982411 8.75753 -1.9919 19
526 1 -0.125971 -8.48846 -12.9219 11
527 1 6.11032 -14.7649 8.03191 21
528 1 -12.8977 -5.59952 1.31122 14
529 1 -0.551221 8.18357 -6.63631 18
530 1 7.10421 5.46241 18.9631 16
531 1 -10.7877 -4.76761 16.3241 12
532 1 10.1151 5.99579 3.5866 25
533 1 6.49385 -11.3555 -2.47126 22
534 1 10.0158 -5.21092 15.7248 17
535 1 13.3993 -5.99376 -3.37351 21
536 1 -6.18285 5.06805 8.95323 22
537 1 9.07115 0.185234 23.8264 10
538 1 7.25957 15.0198 0.165455 10
539 1 20.2301 -6.93425 -1.19146 9
540 1 12.5317 8.35599 13.7102 18
541 1 6.13143 3.77254 -12.3796 14
542 1 -3.37318 -18.583 7.0675 13
543 1 2.97698 -1.41388 -4.5601 23
544 1 9.57261 -7.6524 -4.93078 18
545 1 4.76963 15.143 14.797 8
546 1 12.7896 1.9342 -10.0458 15
547 1 1.77206 -5.83268 -9.63596 17
548 1 0.676605 -12.2259 2.76849 21
549 1 -4.64513 -2.82836 -8.72717 16
550 1 17.2414 -5.82047 7.40081 23
551 1 18.561 3.62522 2.6548 8
552 1 11.6259 -8.39673 -2.66362 23
553 1 19.3418 2.98321 12.8418 13
554 1 8.36356 -16.008 3.47384 21
555 1 8.00162 -5.24958 -10.1941 21
556 1 12.2042 8.27143 8.98783 19
557 1 -4.64258 0.736523 5.75308 21
558 1 16.0659 5.64973 19.4923 9
559 1 12.348 7.03294 6.12426 22
560 1 15.2767 -8.20096 6.73167 20
561 1 6.9819 6.2346 -10.5352 21
562 1 17.5564 -9.4899 15.28 11
563 1 17.3806 -0.246976 9.08233 18
564 1 7.55024 -5.71482 14.408 23
565 1 15.6191 6.63211 5.91606 21
566 1 2.43152 -1.44273 22.3362 11
567 1 20.7546 -5.64077 1.81805 13
568 1 11.936 -3.43767 12.763 19
569 1 -1.33629 1.11491 -4.75756 17
570 1 17.5921 5.17555 8.2376 21
571 1 13.8356 -5.64965 7.75233 20
572 1 -8.847 0.422276 10.6944 19
573 1 12.73 6.52939 19.8089 14
574 1 18.6225 -3.13776 8.74093 14
575 1 4.97013 6.95465 11.9171 22
576 1 3.79044 9.48808 12.2811 19
577 1 10.478 -0.134086 13.8805 22
578 1 0.7118 -16.5245 8.121 19
579 1 2.22181 8.49972 -0.883491 21
580 1 11.2723 9.3746 -2.70171 19
581 1 17.4701 -4.9352 -6.45074 10
582 1 -1.60343 14.0166 -1.05209 11
583 1 2.30946 -15.8148 -0.659079 23
584 1 16.8177 -11.287 -2.42424 15
585 1 -6.91635 -6.68706 15.6596 10
586 1 0.431621 3.29225 -4.16494 21
587 1 2.60874 -14.4583 8.3779 17
588 1 -4.25431 3.60588 -8.25395 19
589 1 -4.70108 1.08261 0.410778 21
590 1 15.1165 -12.2051 10.8779 13
591 1 15.7444 10.1473 0.54511 11
592 1 3.07421 -10.6294 11.7506 17
593 1 -14.1437 -4.49655 -1.64965 8
594 1 6.22871 -5.85518 -7.43641 23
595 1 4.20822 8.34112 18.4249 10
596 1 9.42049 6.35291 -6.66302 19
597 1 16.7051 -5.40821 14.314 10
598 1 8.33458 3.22583 -2.12157 23
599 1 13.7602 9.50402 10.9627 18
600 1 3.23413 -19.5618 -0.133223 14
601 1 1.44697 -2.0954 19.7865 15
602 1 21.0628 -6.49589 8.38635 8
603 1 3.152 10.3735 16.2518 13
604 1 14.1171 9.03376 -4.25652 12
605 1 -7.13819 7.52708 -4.22925 16
606 1 8.54605 6.69906 11.4399 18
607 1 -4.25362 -11.8874 0.768461 16
608 1 15.7608 -5.10984 4.83241 23
609 1 12.2582 14.4656 3.64059 12
610 1 -2.92752 5.16187 13.4819 20
611 1 -8.20916 -13.8711 7.41577 13
612 1 -8.20204 -3.45656 -8.06053 9
613 1 12.5556 0.612722 16.2025 20
614 1 -0.629482 -13.5945 12.4989 18
615 1 15.2801 1.25228 11.5421 24
616 1 -2.05123 14.7512 2.91786 15
617 1 14.299 4.25165 6.12757 20
618 1 12.3558 2.82543 8.46877 22
619 1 14.6413 -4.9003 -6.113 19
620 1 -2.6443 -2.50777 10.9287 22
621 1 15.2584 -7.82585 -5.79983 15
622 1 14.2971 -16.1792 -2.69519 16
623 1 6.99009 5.77799 14.4709 16
624 1 4.77677 6.71818 6.5546 23
625 1 -0.660306 0.0248281 18.0775 18
626 1 13.838 -0.362919 8.18412 19
627 1 -0.1941 -2.36707 15.7438 22
628 1 4.89019 3.82677 22.7117 10
629 1 3.0905 -10.9503 -12.3161 11
630 1 5.77134 2.40173 19.9743 19
631 1 7.30005 -0.41496 14.1974 20
632 1 -1.56161 -19.1778 4.08799 14
633 1 15.4702 8.6073 2.89936 18
634 1 13.9765 -11.8498 2.32447 21
635 1 8.65034 9.07249 3.32012 22
636 1 17.3688 9.64624 5.76055 11
637 1 11.0835 -7.63645 -9.8356 20
638 1 5.08921 13.171 1.76922 17
639 1 10.9294 9.64821 6.42002 23
640 1 -1.15055 -13.4345 -5.29855 19
641 1 4.36736 -8.33779 -9.11878 22
642 1 -6.63201 12.1456 4.35057 12
643 1 12.3865 -10.7135 0.236346 17
644 1 9.93693 3.98576 -9.16537 21
645 1 12.8513 10.8492 -1.3202 12
646 1 -4.46365 2.38971 8.59384 19
647 1 10.2288 4.40323 0.500193 23
648 1 14.0967 -3.27773 15.8561 16
649 1 15.3709 -10.3645 16.4808 11
650 1 -3.55406 -18.1409 9.92051 10
651 1 -2.02569 5.64209 -6.71313 20
652 1 6.66079 14.8447 11.7653 12
653 1 12.0699 -10.5203 -5.18666 21
654 1 8.21362 2.66729 22.5159 16
655 1 8.92952 15.0953 3.44666 11
656 1 9.96059 9.80867 12.5143 15
657 1 19.943 -8.41191 6.51221 12
658 1 19.0853 1.00268 15.5922 11
659 1 -12.3513 -0.460812 9.47484 13
660 1 5.00027 -16.2534 4.88764 21
661 1 4.77923 -4.15151 -4.8722 23
662 1 0.154351 14.42 1.10726 16
663 1 8.52326 12.4245 10.7412 16
664 1 -8.21783 -9.99148 8.42011 13
665 1 2.09161 4.9279 16.9199 21
666 1 1.21452 4.9745 -7.05044 19
667 1 1.55347 2.25738 -11.6913 12
668 1 6.51455 -18.691 3.44357 15
669 1 10.0352 6.38515 -2.32853 24
670 1 -7.65367 5.27998 17.1234 9
671 1 9.59575 -1.32367 -5.2075 19
672 1 6.96431 -13.9799 11.3593 17
673 1 1.91011 12.9857 6.11735 19
674 1 5.83012 -1.69193 16.7077 18
675 1 -1.46177 -8.22722 -9.79697 17
676 1 1.90002 -12.8852 -5.3264 17
677 1 -0.98156 -17.0004 -4.21527 14
678 1 3.79426 9.91794 -3.42547 19
679 1 9.82047 -5.65399 -2.45705 22
680 1 -1.3831 6.08935 10.8749 21
681 1 10.5618 -13.2559 -0.544208 21
682 1 7.42985 -17.6543 6.61782 16
683 1 7.52002 -8.23467 11.3379 23
684 1 17.6387 -4.98846 2.32588 20
685 1 9.86499 -15.4389 -4.43783 20
686 1 -10.756 2.66341 9.13024 15
687 1 4.48875 -20.728 2.33031 10
688 1 -4.2882 -12.1758 -6.35682 12
689 1 -2.96412 1.33948 20.6455 7
690 1 -3.2024 -11.3597 3.15987 19
691 1 17.6206 4.36263 -6.98835 10
692 1 -1.09099 14.9037 8.73435 12
693 1 -1.1235 0.681706 11.0347 20
694 1 -10.3451 3.45445 6.59421 15
695 1 13.6276 -1.85198 5.09941 21
696 1 -6.92391 -7.15471 -7.61569 10
697 1 3.82652 5.81189 -1.98178 23
698 1 12.7474 0.111177 -2.75666 18
699 1 10.3877 5.3199 14.2602 18
700 1 13.7158 5.50257 9.21805 23
701 1 -12.3833 -1.40913 -2.04753 12
702 1 -8.62665 -7.59392 -1.90241 14
703 1 4.49568 3.84919 17.4744 22
704 1 12.2916 5.25178 -11.2291 10
705 1 15.6662 7.95889 8.52551 20
706 1 4.91098 -6.53716 13.3415 19
707 1 2.28195 -18.2687 -5.52453 12
708 1 -2.88376 -17.3261 1.74187 13
709 1 0.826594 -8.23813 11.037 22
710 1 12.0485 0.466588 10.3693 24
711 1 8.01282 -7.90231 -8.89299 18
712 1 -3.34771 5.99581 2.88625 21
713 1 8.80153 7.05654 6.54133 21
714 1 -2.78267 -5.92066 7.60285 22
715 1 9.32813 7.59085 -9.23175 17
716 1 6.11261 -17.4384 -5.22318 11
717 1 6.39264 -18.4288 0.409707 16
718 1 5.55138 -14.7471 2.4706 17
719 1 10.559 3.86931 -4.65989 19
720 1 5.13807 14.4766 9.18662 18
721 1 -3.53087 3.06412 -11.0514 16
722 1 2.5928 -3.19236 14.2143 19
723 1 7.42649 2.09375 -10.3825 19
724 1 -3.27547 -1.97451 -5.11207 19
725 1 -6.14847 -6.15891 2.86638 21
726 1 3.76567 15.1244 -0.173489 11
727 1 5.91039 -6.57602 -14.2877 13
728 1 -3.30694 -11.6807 -2.52298 21
729 1 15.2719 1.65808 -6.81484 15
730 1 13.6554 -7.54324 4.49651 21
731 1 5.39298 9.0499 14.8093 18
732 1 8.88315 -10.9191 5.75901 22
733 1 17.8878 -7.98083 9.41297 14
734 1 14.0993 -6.82969 12.8194 14
735 1 1.86311 6.3811 11.2593 23
736 1 -10.8694 0.293554 18.1193 6
737 1 -6.70189 2.26878 17.311 10
738 1 -2.05338 -16.2425 12.2141 15
739 1 17.5557 3.48606 5.81511 16
740 1 13.3868 3.96545 21.2687 11
741 1 -13.8345 -2.6125 0.484934 10
742 1 15.5012 -10.3116 0.0178085 20
743 1 -8.10368 9.00308 -0.971195 16
744 1 5.56308 12.622 6.01566 20
745 1 1.60543 -20.6001 4.84831 13
746 1 12.1665 -6.4819 17.2536 15
747 1 0.333356 9.18298 11.3535 21
748 1 2.32424 -8.63364 13.4077 17
749 1 -4.5109 -3.36227 3.1107 19
750 1 8.72252 2.62471 14.1844 20
751 1 -9.73708 -5.70808 2.171 18
752 1 1.33276 8.46039 18.6979 9
753 1 8.74523 7.05796 0.658322 22
754 1 -11.4286 -10.8853 3.46974 13
755 1 -0.0956491 -13.9082 5.38118 19
756 1 9.19286 -2.98487 13.9094 22
757 1 18.7383 0.172829 12.4183 15
758 1 13.6282 5.39383 13.048 22
759 1 3.33338 -11.3255 -2.60472 25
760 1 -0.141259 -1.65838 -5.08221 19
761 1 -0.608409 -0.227959 22.712 9
762 1 1.26233 16.4692 6.71309 10
763 1 19.054 -4.6793 5.07684 18
764 1 6.84503 6.00752 -1.77933 24
765 1 -0.891776 8.35568 16.4666 14
766 1 7.2393 9.79977 10.9596 19
767 1 11.1957 -2.54127 -7.141 18
768 1 -6.38923 -12.9009 -1.18958 15
769 1 18.9497 -5.72541 10.8864 12
770 1 4.50755 -10.7886 -5.16449 20
771 1 3.98858 6.08305 19.9422 15
772 1 13.24 -15.6748 -8.07611 10
773 1 3.82394 5.24149 -5.96485 15
774 1 1.97085 -10.6854 0.189836 21
775 1 16.7546 -2.27386 -4.36794 18
776 1 17.5031 -7.55597 4.24825 21
777 1 9.26962 -11.1567 16.5579 13
778 1 3.8944 -15.8929 -5.77931 20
779 1 10.4302 11.6608 3.95185 20
780 1 -11.4107 -3.09001 13.7067 19
781 1 15.2802 5.75543 -4.83538 14
782 1 17.8345 3.16474 -3.828 13
783 1 8.29648 -10.0167 -5.19769 20
784 1 -6.71865 9.16564 5.24159 16
785 1 18.0256 6.32261 4.64925 15
786 1 12.7963 6.17665 -2.14448 20
787 1 7.62751 -3.18724 -7.34621 21
788 1 13.9888 -5.24557 2.25292 25
789 1 -6.05084 -0.240396 2.94728 21
790 1 18.169 8.48461 10.9935 12
791 1 -9.62659 -13.8849 3.76939 11
792 1 -4.14087 13.0505 -4.76209 8
793 1 8.69102 1.0199 11.2366 24
794 1 -10.6316 -2.76283 1.09393 19
795 1 -9.53206 -1.20077 8.29447 20
796 1 1.70016 1.36929 -6.14432 20
797 1 14.6293 -8.64475 -2.92494 22
798 1 -6.65071 -10.4349 -6.95169 10
799 1 19.1177 -10.4911 4.01647 9
800 1 -9.53041 -3.06375 11.8233 19
801 1 -8.37866 -5.55239 5.41326 21
802 1 21.3932 2.31698 10.4195 8
803 1 -5.9329 -12.9852 13.1105 14
804 1 6.93013 -1.0798 20.2975 18
805 1 15.4595 -6.53485 16.1476 12
806 1 10.5628 -6.42505 8.19723 23
807 1 -7.89823 2.35877 8.2473 21
808 1 5.53823 6.50477 16.6631 16
809 1 9.46519 5.94275 -11.9808 14
810 1 2.97499 -8.52277 -14.3951 12
811 1 -2.53997 10.778 8.66936 15
812 1 -10.9962 -6.03937 12.9543 15
813 1 11.8094 7.37024 0.579704 22
814 1 12.0422 3.23533 18.2143 20
815 1 16.5089 -6.82541 0.403999 19
816 1 8.87902 -8.77419 14.376 22
817 1 2.76675 10.1328 -9.60536 12
818 1 11.3185 9.15323 -6.74281 14
819 1 2.01586 -4.98496 17.6295 22
820 1 19.0665 5.6354 11.4865 12
821 1 -0.132768 -5.62857 -7.65242 21
822 1 17.0395 10.4855 12.9539 14
823 1 -7.85008 2.26027 2.76764 19
824 1 -3.86386 -10.0551 14.1933 15
825 1 6.45747 11.0675 -4.78413 17
826 1 11.1991 -6.55947 13.6903 16
827 1 3.17793 -13.4795 5.75721 21
828 1 -1.57702 12.5856 5.99187 22
829 1 -6.50559 3.72217 0.844784 20
830 1 13.1735 -1.72326 -0.366162 19
831 1 7.19969 -16.814 -2.45736 19
832 1 -2.95233 5.46649 8.08857 21
833 1 14.8124 3.52029 -8.50213 13
834 1 -0.898078 -5.20575 10.5026 20
835 1 10.4456 -8.8902 -13.3638 8
836 1 0.191215 -14.2355 -8.84119 9
837 1 3.70539 -11.3575 3.11531 21
838 1 2.39813 3.93122 20.6334 17
839 1 14.2564 -13.5777 5.4935 13
840 1 -5.14713 5.19996 -13.2439 6
841 1 18.4169 0.556554 -5.76529 9
842 1 10.4386 3.80954 6.17614 23
843 1 9.45382 -18.2235 1.64641 13
844 1 10.0873 -6.00884 -15.4773 6
845 1 15.8473 -8.44838 2.29099 21
846 1 -1.22648 2.98166 -8.399 16
847 1 2.08136 -12.0961 14.7249 12
848 1 9.70687 11.173 -4.76776 13
849 1 9.8619 0.414599 -2.20882 23
850 1 -6.23079 5.38558 -2.40083 21
851 1 -12.8127 -0.384656 14.5894 16
852 1 6.12551 1.28987 24.1249 10
853 1 -4.84168 -8.85724 17.0842 11
854 1 8.87437 8.78256 8.90764 20
855 1 1.60628 -16.9386 5.00826 21
856 1 5.03857 6.99799 1.05581 19
857 1 0.578326 5.68923 19.2056 12
858 1 -2.67576 -2.39931 15.9933 19
859 1 -7.82846 6.2168 11.409 17
860 1 13.5052 0.292746 3.03188 22
861 1 -2.2986 -8.40818 16.0524 14
862 1 9.70053 -13.7453 15.3655 7
863 1 13.6479 -0.606103 13.3401 19
864 1 16.7427 -5.79032 -3.54919 19
865 1 8.28993 -15.8673 0.255225 21
866 1 0.543437 -0.863221 -11.0855 14
867 1 3.58027 -0.770791 -10.2303 16
868 1 9.80881 9.90258 15.8778 10
869 1 -8.01317 -0.676487 17.0064 13
870 1 -1.19321 3.25561 -1.924 18
871 1 -8.25688 0.833506 0.0310811 23
872 1 12.4458 12.5374 6.14348 17
873 1 -1.36232 -16.3045 5.21991 21
874 1 3.68448 5.35744 9.21778 20
875 1 17.6416 11.0721 9.31515 11
876 1 -7.15729 -9.48834 -3.78931 14
877 1 12.1504 14.5793 8.19059 7
878 1 0.232853 1.22365 15.9103 20
879 1 3.99567 -17.7608 -2.78947 18