ITEM: TIMESTEP
1000
ITEM: NUMBER OF ATOMS
2000
ITEM: BOX BOUNDS pp pp pp
-30.0 30.0
-30.0 30.0
-30.0 30.0
ITEM: ATOMS id type x y z Coordination
1 1 -11.0315 5.5055 -14.8954 9
2 1 -5.30574 -10.7423 -9.92105 18
3 1 2.7655 11.8744 12.7977 21
4 1 8.71479 -12.0313 7.83663 10
5 1 -10.0052 8.82726 -1.83111 17
6 1 11.4516 -9.25426 -12.1186 10
7 1 -11.7258 3.78383 -6.16462 17
8 1 0.301781 -8.38553 11.1314 17
9 1 -7.88913 0.177196 -11.1861 20
10 1 -14.1542 -9.94155 6.44672 11
11 1 12.652 2.7195 -9.57718 14
12 1 -4.28948 -13.6196 1.25266 16
13 1 -13.4824 -7.88314 4.14386 16
14 1 2.11997 4.09269 16.8197 13
15 1 0.782941 3.19646 9.82896 20
16 1 -1.22469 10.0995 -10.6733 20
17 1 2.94379 -0.926268 12.7027 22
18 1 -10.0119 -0.751999 -16.508 9
19 1 -14.2191 -4.21602 12.7348 12
20 1 14.6997 4.27976 7.83183 18
21 1 1.34923 10.7028 -12.0878 20
22 1 3.52518 4.84558 -14.6067 20
23 1 15.8421 2.02785 12.6707 10
24 1 -14.3296 5.02331 -8.65166 11
25 1 -11.3264 9.30621 9.43477 12
26 1 7.0127 -14.2415 5.9988 12
27 1 3.06114 -14.7708 -11.3014 9
28 1 10.1374 -12.7544 0.852902 10
29 1 -8.86447 -14.6822 -6.62148 12
30 1 -13.0949 -6.61856 11.1405 14
31 1 1.80902 -9.28706 -12.8009 17
32 1 10.1866 -10.0368 -14.6271 9
33 1 -3.20021 5.71831 -18.4297 11
34 1 1.16203 4.618 14.1682 17
35 1 -1.28316 -12.0564 6.90888 19
36 1 5.4967 -4.4203 12.616 13
37 1 -12.8581 -0.0955651 0.415612 19
38 1 -15.6194 -1.78287 7.77556 15
39 1 -9.9931 0.453345 -1.73664 15
40 1 -2.64199 12.3974 -3.3333 23
41 1 -0.253145 -14.1442 -10.4046 13
42 1 2.52891 2.10743 -12.8265 16
43 1 4.82708 -4.87315 -10.0526 16
44 1 -2.82646 -4.52396 13.9216 16
45 1 -12.4859 8.14998 -1.5875 21
46 1 3.61944 12.0234 -12.3068 16
47 1 1.76465 15.8895 9.58556 15
48 1 -9.49983 9.1272 -8.39222 20
49 1 -0.582681 13.7015 -1.81019 20
50 1 1.80804 -13.5961 3.37306 21
51 1 7.43318 -8.47949 -5.37015 18
52 1 5.05567 -6.57246 -16.8931 12
53 1 -10.0142 9.14858 12.3408 12
54 1 -13.441 -3.74702 -8.49643 12
55 1 -7.4922 8.50553 -5.30425 14
56 1 -8.92392 -10.1415 6.48533 18
57 1 -2.85814 13.9252 11.8112 12
58 1 -12.0348 6.6774 -6.67475 20
59 1 -6.50414 10.0763 13.8392 11
60 1 -6.96989 -15.4031 8.39492 17
61 1 3.29121 4.70569 8.41807 16
62 1 5.45292 -14.959 -3.28914 12
63 1 5.04099 12.1703 15.2999 13
64 1 -14.2602 2.34706 -10.5179 11
65 1 -13.5723 7.618 -10.1354 13
66 1 5.60807 6.39859 11.8347 18
67 1 11.1105 -2.44537 -9.84723 13
68 1 9.78223 -12.9511 4.88028 13
69 1 -16.3544 -2.28794 4.35083 13
70 1 5.50192 16.2705 5.03504 18
71 1 5.50541 -2.01671 13.7084 20
72 1 -7.23123 -13.4392 5.89055 15
73 1 -11.2513 -2.70691 -0.367026 21
74 1 11.9619 3.54645 6.79393 23
75 1 -0.0305447 12.3964 8.90693 19
76 1 6.06034 -0.884081 6.92675 17
77 1 -1.31729 -7.22946 -8.43189 17
78 1 -13.1958 6.89107 8.32875 13
79 1 -8.17454 11.5171 -2.03128 20
80 1 -2.17566 6.73941 -10.0589 17
81 1 7.9445 -3.03781 -4.3573 18
82 1 8.86605 12.207 -8.69959 13
83 1 7.40648 -5.82572 2.99002 20
84 1 5.75533 -9.76872 10.769 9
85 1 -5.47728 15.0586 -5.7578 8
86 1 -10.1475 11.6508 3.11626 17
87 1 -9.04154 -4.82681 15.5967 11
88 1 -3.63696 8.28741 6.40353 17
89 1 -7.33604 -6.42435 11.0767 18
90 1 14.4457 -9.13246 -6.66236 12
91 1 -10.725 3.72299 4.21096 18
92 1 -10.467 -15.3836 3.05815 14
93 1 10.5987 -9.54376 -5.73655 20
94 1 6.36958 -1.18344 -12.3092 15
95 1 -6.18332 -0.0286327 -15.7734 14
96 1 -1.43631 12.1665 1.43169 21
97 1 -7.73602 6.10643 -9.65076 21
98 1 2.40587 9.27282 18.6051 10
99 1 1.14198 13.9963 -6.96283 22
100 1 -13.2539 10.5653 0.410476 14
101 1 2.04705 12.2376 0.400596 20
102 1 -4.94119 -8.47408 10.5339 19
103 1 13.1484 -1.10021 9.88878 17
104 1 0.949779 -5.70429 -9.28618 18
105 1 5.1048 -7.65361 -7.07715 11
106 1 -2.02895 3.30995 10.1282 16
107 1 6.31606 -1.73771 16.8579 12
108 1 -9.50669 -7.54829 -2.82979 18
109 1 -9.56312 -8.49868 -6.18955 19
110 1 10.9928 -9.85906 3.24589 13
111 1 -5.95457 8.20344 1.49943 19
112 1 7.53607 2.34932 -16.0232 10
113 1 6.03377 16.4962 -2.67008 17
114 1 -8.29277 -13.5829 12.4724 12
115 1 -10.8005 -14.0322 10.3625 14
116 1 4.40282 -9.39577 -15.676 11
117 1 5.12743 4.67778 -6.428 20
118 1 14.0469 -8.69021 -0.494332 12
119 1 -2.45327 -16.5337 5.0628 16
120 1 -9.28899 -11.2471 -1.27946 20
121 1 17.0418 7.55034 9.87535 13
122 1 13.3289 -2.91047 -7.30607 14
123 1 -16.2163 -4.70768 2.83621 12
124 1 8.92951 9.08449 5.51483 17
125 1 15.0507 10.4277 4.39658 10
126 1 -7.31237 2.32132 16.9144 9
127 1 -4.85632 8.64855 8.91382 19
128 1 -4.30727 12.4467 -6.58688 18
129 1 -0.650928 -6.80652 -12.3809 22
130 1 9.2349 -11.8655 -11.5451 14
131 1 1.0631 15.0813 -12.6622 10
132 1 7.53271 -2.81661 11.247 18
133 1 -0.888517 -3.03845 -19.092 9
134 1 -0.574806 7.48426 -7.7918 20
135 1 10.2309 1.3014 -4.5217 13
136 1 -13.9853 9.68893 -7.03634 10
137 1 -8.23738 14.3352 -1.14508 16
138 1 6.43883 1.09662 -10.3672 17
139 1 10.1022 -9.55804 6.03866 15
140 1 -5.59369 6.79623 -4.79888 18
141 1 -7.81865 13.6268 8.58007 9
142 1 13.5434 8.10429 -7.5896 14
143 1 5.69059 12.5351 -2.43956 21
144 1 -4.21325 16.1621 0.195338 15
145 1 9.34063 11.8724 0.467713 16
146 1 -1.807 9.79876 -4.30311 18
147 1 1.78758 16.1026 -9.6284 15
148 1 3.48654 10.1419 -14.674 13
149 1 -13.3537 -11.2259 2.97561 11
150 1 -15.6936 8.83305 -1.07734 9
151 1 -4.20981 -3.54231 -12.2799 19
152 1 1.31921 -11.4032 -15.4956 11
153 1 9.61086 13.4379 8.88007 16
154 1 -0.0544908 17.2859 6.8948 10
155 1 -13.4522 -2.43979 -4.64173 18
156 1 -12.5283 12.9455 4.17185 7
157 1 14.5729 -0.991323 -2.01011 13
158 1 -11.7778 1.98884 -14.9309 10
159 1 7.33204 1.61255 17.6891 14
160 1 3.99678 18.2219 2.77618 14
161 1 -0.704192 8.69313 7.42209 17
162 1 1.83113 -8.5241 -16.839 11
163 1 -3.6863 13.8332 9.07431 15
164 1 -1.12956 10.2501 -6.81615 20
165 1 2.5379 -3.97575 13.4637 17
166 1 -11.0488 -5.17037 3.39563 13
167 1 -2.90301 -13.2422 -13.5453 11
168 1 -9.24043 11.7257 -10.341 10
169 1 -2.08133 -9.70198 4.21527 19
170 1 3.11831 -16.0378 -5.45522 13
171 1 -3.57018 10.2244 -12.3088 17
172 1 -15.6509 0.547552 8.74844 11
173 1 11.0379 10.0567 -4.70294 18
174 1 -8.81444 5.40416 15.9339 11
175 1 0.307685 -11.8015 10.2507 13
176 1 -9.31657 3.43989 -1.61621 18
177 1 0.884117 17.0399 3.87723 12
178 1 0.0170154 6.26284 10.1178 16
179 1 14.6771 4.98686 13.8071 13
180 1 -6.83356 12.8481 3.8812 18
181 1 13.4677 -5.66707 -7.03531 12
182 1 -5.97763 12.3937 11.6027 10
183 1 -4.26683 2.09294 -9.20972 18
184 1 13.5066 -6.97601 2.47919 14
185 1 -5.50911 -4.72397 5.78776 15
186 1 -15.611 1.12343 4.23474 12
187 1 -7.77474 -11.1931 3.60168 16
188 1 6.6146 6.46797 15.1419 18
189 1 -12.6859 -0.488451 -2.56217 16
190 1 -3.16638 -14.3382 -0.769951 21
191 1 6.60013 -8.67365 -2.31933 15
192 1 -2.49763 9.23915 1.95129 15
193 1 4.12448 15.0675 13.4648 9
194 1 -8.60013 -1.25437 -5.09382 20
195 1 -6.37446 12.8375 -9.1659 14
196 1 -16.2871 -4.13977 -5.49255 8
197 1 -8.6191 -1.71225 10.1119 17
198 1 0.609205 -10.943 4.7302 20
199 1 3.94124 -13.8083 5.88575 17
200 1 -12.6186 10.0085 3.76539 16
201 1 14.9853 5.49625 5.13034 18
202 1 7.8454 6.68557 -2.61612 20
203 1 -6.22923 -6.19047 -13.431 12
204 1 5.54014 0.0877812 11.5126 19
205 1 6.73697 -17.054 4.08137 8
206 1 -2.73466 7.38473 -13.2755 17
207 1 2.16446 -12.2252 -12.3498 14
208 1 8.28585 0.300998 -13.3921 15
209 1 3.17448 7.1866 -16.8008 16
210 1 -7.11587 -3.40543 -7.53736 21
211 1 -1.97484 13.5393 -7.4684 18
212 1 -10.21 -11.2492 11.2778 16
213 1 8.64717 16.5043 -2.77223 10
214 1 -9.69649 -0.0624153 15.0279 15
215 1 -6.85941 13.1293 -4.65414 16
216 1 6.83251 0.724213 8.74803 14
217 1 -2.94303 -6.12521 -10.4071 19
218 1 -3.53275 10.3517 -8.69358 20
219 1 3.30842 6.07675 -9.57054 23
220 1 -8.69801 -12.6361 8.73339 20
221 1 -8.56143 6.32144 9.32431 16
222 1 -6.55259 7.98312 11.3394 19
223 1 -0.335207 -11.5121 -7.98769 18
224 1 -6.11267 -14.5784 -0.74906 17
225 1 11.8671 -12.4228 -2.27026 9
226 1 12.5315 7.65306 14.6258 13
227 1 6.08728 10.9548 -8.89893 22
228 1 1.18054 9.25806 -4.31239 18
229 1 -9.92227 1.04159 2.33621 16
230 1 -11.9364 11.2978 -2.50344 14
231 1 2.90448 5.62642 11.1756 18
232 1 4.03563 -18.023 -0.26617 10
233 1 10.2707 0.971402 -1.23156 16
234 1 2.12684 9.71166 5.91123 19
235 1 -9.74097 5.88186 5.38977 12
236 1 -12.4477 -6.70111 -4.80052 18
237 1 7.04519 5.30435 -14.4981 14
238 1 1.38766 0.247738 10.3543 19
239 1 8.84125 9.84009 -11.0012 14
240 1 1.5693 -11.3316 -3.76137 15
241 1 -1.57559 -1.62787 -13.198 18
242 1 0.157699 -18.0378 4.46858 10
243 1 7.20086 0.501942 -7.1721 14
244 1 -10.1732 -1.72109 4.05658 17
245 1 2.24926 -16.4057 -2.85017 15
246 1 -10.407 -5.36458 -9.28319 20
247 1 4.25308 14.4405 -0.913584 22
248 1 2.69385 -2.4875 -16.5297 17
249 1 5.19074 3.63895 15.859 21
250 1 14.8746 3.60787 2.26366 17
251 1 10.7603 -6.21048 -10.5937 16
252 1 -8.26506 -2.98627 -10.682 22
253 1 -11.4448 0.613127 -9.63957 16
254 1 -8.31537 -16.396 11.1213 12
255 1 10.3997 0.627511 9.01855 17
256 1 1.58805 -2.12503 8.80478 18
257 1 -6.17787 -8.30187 -11.5182 16
258 1 1.08919 8.21678 -14.6622 19
259 1 5.08719 11.0236 0.872075 18
260 1 -7.94237 -9.01716 0.887082 18
261 1 0.935184 13.1641 3.63247 21
262 1 -6.74896 -3.39177 11.3027 17
263 1 -11.436 -9.0351 -9.90259 12
264 1 -6.9145 -5.90643 -9.91009 18
265 1 -2.15125 8.41484 -16.3729 12
266 1 -6.77483 -9.48965 -6.98806 18
267 1 -2.62445 -10.786 0.985551 22
268 1 8.84586 -4.75581 -15.5728 10
269 1 12.0814 -0.142939 -8.06168 16
270 1 12.1176 3.0862 3.93274 22
271 1 -9.66084 -5.0575 10.7794 16
272 1 -3.5356 -11.1602 -2.07746 20
273 1 8.51249 4.09984 16.2761 20
274 1 -8.12596 -16.2369 4.50789 18
275 1 -0.728917 -13.3915 0.48986 20
276 1 -2.22857 16.1829 -2.1382 15
277 1 5.08409 0.398711 -15.0753 15
278 1 -6.38921 -2.38041 -13.3281 18
279 1 -10.4141 -8.12603 11.7407 18
280 1 4.79285 7.648 20.0977 8
281 1 1.7347 -11.7192 -0.149756 17
282 1 -5.2956 -13.0543 -11.7546 11
283 1 -10.4445 6.94961 -9.78454 19
284 1 10.2832 5.94063 5.59496 19
285 1 -6.47198 3.62761 -10.959 15
286 1 0.657849 7.09987 -10.8463 20
287 1 7.63265 -13.7421 -9.10258 13
288 1 -5.04274 14.9742 -2.31482 16
289 1 1.93932 12.2974 6.1052 17
290 1 13.4234 0.393325 3.33386 21
291 1 -9.58045 1.1697 5.61649 15
292 1 -2.92265 -7.51753 13.32 13
293 1 -5.93994 9.18887 3.86053 19
294 1 2.25474 -5.57343 -12.3453 20
295 1 15.6815 10.7661 -2.79993 10
296 1 2.88668 -10.7867 2.47562 18
297 1 -2.85452 -1.34072 14.7891 18
298 1 -15.9941 -4.55099 6.35914 13
299 1 -0.154172 -17.1531 -4.56214 13
300 1 -8.98026 8.42249 15.184 9
301 1 -11.3694 6.25875 14.1375 12
302 1 -14.4975 -4.16575 9.46541 17
303 1 -13.7867 -6.77772 7.2188 17
304 1 12.7942 -3.88917 -2.69038 19
305 1 -11.7407 -8.88159 8.61716 19
306 1 8.26948 -4.90254 -9.9308 18
307 1 10.3125 -13.3757 -5.62922 11
308 1 3.48157 16.1661 -3.14885 17
309 1 -9.65089 13.6693 -4.21228 11
310 1 10.923 7.83652 12.093 20
311 1 -8.33035 -2.07806 1.40381 14
312 1 9.23953 -11.419 -4.00403 18
313 1 -4.46663 11.3975 1.84186 17
314 1 -5.89567 6.2446 6.82044 16
315 1 5.08671 -11.0306 7.6955 18
316 1 14.6906 -4.73356 4.83095 8
317 1 -2.5234 6.02075 8.15277 18
318 1 -6.50264 -3.93728 -4.45007 20
319 1 -0.948932 1.05064 16.3262 11
320 1 -3.03817 12.9736 4.47748 18
321 1 9.50247 6.8513 15.3853 19
322 1 -8.91905 13.7375 -7.45396 10
323 1 -1.38092 -6.60687 -17.7005 10
324 1 6.9247 -10.1987 -13.4292 15
325 1 -9.69189 2.72647 14.0993 18
326 1 -14.2957 4.36501 3.5886 19
327 1 -4.50175 -3.76542 -9.23473 18
328 1 -5.07685 10.8623 -0.976088 19
329 1 9.43859 -1.81965 7.74721 17
330 1 -10.4299 -11.8325 1.60778 19
331 1 7.63714 -9.31056 8.3974 15
332 1 -10.2217 -10.7618 14.3642 8
333 1 -12.8698 7.79937 1.38796 17
334 1 -1.54216 -5.8432 10.684 20
335 1 2.84803 -12.9944 -6.72328 17
336 1 -6.22318 -1.03956 -9.78865 21
337 1 6.8196 -2.53886 -14.5823 13
338 1 3.14318 14.7158 4.65066 20
339 1 -9.77909 1.35689 -4.40757 21
340 1 4.6456 -7.91795 -12.684 14
341 1 9.21894 3.7939 -13.461 11
342 1 -5.62501 -15.4594 -8.22098 10
343 1 -15.2629 -7.45459 -5.21994 9
344 1 -4.64283 -8.58141 0.286086 21
345 1 11.9825 4.34594 15.8804 14
346 1 12.0651 4.04581 -1.76802 17
347 1 -9.34084 3.06218 -9.99376 17
348 1 3.50841 17.6942 -0.302095 13
349 1 -15.362 -0.555252 -5.53533 10
350 1 -8.47876 9.37985 4.5033 17
351 1 -7.35023 10.8787 1.13144 22
352 1 -5.26157 5.75627 9.53697 20
353 1 11.334 4.70606 13.5469 22
354 1 11.0339 -3.97242 -5.01117 21
355 1 8.5868 -3.27181 14.6033 14
356 1 9.6861 2.50804 -7.25303 20
357 1 -6.80353 -15.8709 -3.87231 9
358 1 0.379813 -8.07038 -5.43406 14
359 1 1.11713 10.0717 2.33739 18
360 1 -10.076 0.973534 -7.20543 18
361 1 5.36136 -10.5229 -0.0904527 17
362 1 12.1083 0.540342 5.9864 22
363 1 -10.2539 -3.69534 -5.99204 18
364 1 -5.04853 -9.17217 3.0969 13
365 1 -8.77697 -7.65222 14.8852 12
366 1 -0.436958 10.626 -1.48402 18
367 1 -11.21 -10.0809 -3.16633 17
368 1 7.49466 9.47636 15.7721 13
369 1 -8.43022 6.4627 -3.37453 17
370 1 0.588619 11.4613 -9.3482 17
371 1 6.36398 12.2374 8.13184 19
372 1 -13.6752 -7.95145 -1.6789 15
373 1 -3.07923 -9.81539 -7.04806 17
374 1 -13.9138 -0.871781 5.74231 15
375 1 -14.2836 6.7674 -4.4275 11
376 1 5.88038 -8.68761 5.151 18
377 1 -5.37138 -13.1696 -3.41756 19
378 1 11.1997 10.6752 8.42163 19
379 1 5.70811 7.56843 -15.3078 13
380 1 -12.3544 4.96546 -11.3863 14
381 1 -1.35782 15.1985 -10.3727 12
382 1 -9.07918 5.67692 -6.44922 19
383 1 -2.07546 -12.8698 3.87146 20
384 1 12.9354 6.81961 6.68543 18
385 1 1.38851 9.88934 -17.2121 11
386 1 -4.50483 -1.01231 8.83969 13
387 1 -15.2096 2.65755 1.05794 14
388 1 -7.58577 3.74371 7.50126 18
389 1 -5.15092 -14.5279 4.09444 16
390 1 6.87136 -9.92071 -10.0935 16
391 1 -12.3478 1.18094 3.58586 20
392 1 -16.433 -1.6364 11.1348 9
393 1 -15.4944 6.3274 6.78299 10
394 1 -0.293891 -6.49784 8.55411 16
395 1 -9.0668 1.79167 -15.7958 13
396 1 7.48123 -11.1358 -6.60568 23
397 1 -0.65221 -10.6027 -13.2439 20
398 1 -4.77946 -5.15135 11.5963 20
399 1 -5.02247 3.29024 -16.4974 14
400 1 7.71942 -12.1504 1.79167 16
401 1 2.37628 11.1518 -6.71931 21
402 1 -13.429 9.39845 6.59118 12
403 1 -5.87407 -3.536 14.8082 16
404 1 -12.5631 -6.07993 -11.7487 10
405 1 -10.665 -7.83066 6.28122 18
406 1 10.5035 -5.44223 10.059 12
407 1 1.66373 0.798055 -9.311 19
408 1 10.177 -5.95328 6.42808 12
409 1 13.7936 8.40271 -4.65181 18
410 1 -3.60526 1.48824 12.7223 20
411 1 2.39272 12.5349 -2.95491 23
412 1 7.86403 -7.06998 6.1771 17
413 1 -2.48291 -14.173 -3.59578 20
414 1 -3.87786 5.79353 17.0765 6
415 1 -3.02221 15.8317 6.38364 14
416 1 -9.81403 -11.3454 -7.70411 17
417 1 8.90906 16.099 1.41181 14
418 1 2.89046 8.05105 8.36085 15
419 1 -5.25364 2.27501 9.63035 19
420 1 -6.22986 -6.69504 -3.29169 18
421 1 -11.585 3.48338 10.9467 17
422 1 -8.50275 -8.35554 -9.26293 21
423 1 -6.58061 10.2854 7.35211 18
424 1 -5.93812 -12.3502 -7.35431 17
425 1 -3.46382 -7.27456 -13.1994 17
426 1 -7.84205 -14.0 2.45819 20
427 1 8.87353 1.16148 6.66535 17
428 1 -6.17842 -6.21596 13.9589 13
429 1 -11.4744 7.89496 -12.7175 10
430 1 7.56237 6.40472 0.537625 17
431 1 -8.71661 -13.7567 -2.98282 14
432 1 -1.2906 15.8933 0.703584 13
433 1 0.215704 4.10407 -9.24034 22
434 1 -1.26289 8.55993 10.4643 16
435 1 -14.0635 -3.02947 -1.3721 20
436 1 0.181101 16.6171 -4.44076 16
437 1 6.00834 12.2026 -6.02218 22
438 1 -4.42384 -7.01051 -8.16137 17
439 1 4.10364 1.13455 17.416 13
440 1 0.0547141 -14.8537 -7.81928 15
441 1 1.02078 -2.19727 -12.5753 20
442 1 8.11272 -15.0357 2.85369 14
443 1 -10.4231 9.61782 0.866877 19
444 1 3.54709 6.67477 14.4212 16
445 1 9.5899 8.46967 -1.69657 19
446 1 2.95875 9.83293 -0.752207 18
447 1 -7.69837 8.59612 -11.3516 17
448 1 2.65297 3.60058 -7.59272 20
449 1 2.10226 -8.15366 4.90989 20
450 1 -16.8595 -3.54706 -0.692499 10
451 1 2.62411 16.7859 6.59165 14
452 1 -4.49546 4.76145 -14.0614 20
453 1 13.8774 6.06134 0.322362 18
454 1 6.54292 14.5025 -8.5743 13
455 1 11.2669 -10.0402 -1.22543 21
456 1 14.8481 2.41294 -1.12493 12
457 1 0.331764 0.929611 -11.7944 20
458 1 0.166308 -9.28962 2.05732 20
459 1 0.0376797 -14.4668 5.52564 16
460 1 2.70053 -9.96071 10.1553 13
461 1 -8.40579 3.2367 -7.2636 17
462 1 -10.5494 -14.7936 6.96933 16
463 1 -2.36926 -12.1835 -10.4697 16
464 1 8.06791 14.8867 6.831 17
465 1 1.43629 4.76257 -13.0006 18
466 1 3.20691 -2.15315 16.0861 12
467 1 -13.9417 1.16344 11.5435 18
468 1 -1.88632 -18.8962 -0.922484 12
469 1 -14.3717 -3.6914 1.05768 17
470 1 15.7411 -5.6771 -5.94695 9
471 1 11.1446 -1.43865 -2.18165 18
472 1 -3.19742 8.00723 -6.47582 20
473 1 1.42299 -8.32974 -8.11479 14
474 1 3.99412 3.49466 -10.3096 19
475 1 10.5501 -4.69389 -7.78769 16
476 1 -6.57102 0.00598751 14.692 19
477 1 6.24857 15.6069 2.18656 22
478 1 -4.0001 -2.14756 -15.7507 17
479 1 4.30764 1.86749 -19.0529 14
480 1 -7.6825 -6.11789 7.74708 18
481 1 -3.18682 13.4192 -0.481432 20
482 1 -8.53218 -1.203 -13.9818 17
483 1 -15.5932 -0.722055 1.69887 16
484 1 -2.24747 -11.2025 -16.0757 9
485 1 -6.02975 -11.3099 10.5981 13
486 1 1.5612 8.7891 -8.82098 21
487 1 17.0689 3.9063 9.40361 10
488 1 15.8595 7.68477 -2.06891 10
489 1 -11.5445 -13.0314 -1.82118 13
490 1 -0.659873 -9.52158 -1.57624 19
491 1 -3.54012 -4.25952 -18.1145 8
492 1 -8.31828 9.9535 9.12468 15
493 1 2.39527 -3.28103 -10.2194 20
494 1 12.1246 -3.73578 0.403891 18
495 1 3.89474 14.8436 -7.67457 18
496 1 4.77149 -6.70779 3.6927 21
497 1 14.3602 5.1402 -8.99574 10
498 1 4.55767 9.52223 14.4604 18
499 1 -8.97331 2.89691 10.9384 19
500 1 6.29978 11.1574 10.6665 16
501 1 9.04306 -1.01111 17.1187 11
502 1 0.14469 2.0137 -15.6746 20
503 1 -6.74079 -6.41642 -6.54828 17
504 1 0.339341 -2.63436 11.1352 20
505 1 8.62005 10.2468 8.39187 19
506 1 6.31708 7.17267 -9.42858 21
507 1 -7.11644 10.8243 -7.25361 18
508 1 0.1465 12.5913 -4.89314 20
509 1 10.8553 -2.6891 12.5761 18
510 1 9.71314 2.94844 -10.5145 19
511 1 13.5825 -9.56155 -3.65539 15
512 1 12.1819 12.1177 11.3125 8
513 1 -14.0525 -8.05946 1.57219 12
514 1 -6.47848 11.2064 -11.6417 15
515 1 -1.65467 0.237259 10.3637 18
516 1 -13.249 -1.26458 11.7854 15
517 1 -3.40965 12.644 -10.5957 17
518 1 3.14379 -13.6825 -2.5385 16
519 1 5.78975 -4.25455 -7.09412 19
520 1 -2.05622 14.9672 -5.16126 17
521 1 -8.8372 -4.34875 -13.7992 11
522 1 4.57264 -13.1835 3.03432 21
523 1 -12.3405 -5.74019 0.358019 17
524 1 1.58669 12.4368 -14.9484 11
525 1 -1.12882 9.74839 15.7537 10
526 1 -11.06 -5.69862 8.43501 18
527 1 6.31746 9.46495 -2.79656 19
528 1 3.32204 -10.7595 -9.18143 16
529 1 4.6387 -6.92715 12.3797 9
530 1 -10.4715 5.93049 0.0283724 17
531 1 5.93313 4.19406 19.0503 10
532 1 5.8861 16.7805 -5.72195 11
533 1 12.1361 -7.1933 -3.83606 17
534 1 3.64863 8.78783 11.645 19
535 1 0.530073 5.66578 -19.5516 9
536 1 -5.34006 -14.3739 11.0265 9
537 1 -1.83758 2.58054 -10.3135 15
538 1 6.74611 0.549492 -17.945 8
539 1 4.91806 15.06 7.78486 16
540 1 8.90717 5.59083 -9.42325 20
541 1 -0.451959 -1.77974 -16.0759 19
542 1 -5.23186 -10.0742 -4.70148 17
543 1 -10.8939 -3.50273 -11.5258 19
544 1 11.7779 3.33026 1.05646 18
545 1 15.1221 5.01318 -2.98813 11
546 1 8.75422 -7.86779 -8.16595 20
547 1 14.3389 7.69421 11.5916 13
548 1 4.50857 -10.876 -5.90683 17
549 1 3.07079 4.68125 -18.4468 16
550 1 5.7684 13.117 4.87075 22
551 1 -8.54116 4.15315 1.96494 18
552 1 10.4639 10.2176 14.1629 11
553 1 11.5564 6.89773 -3.71592 19
554 1 16.5224 0.189381 3.18866 11
555 1 11.1226 5.4545 -7.26052 22
556 1 9.50163 2.51881 14.3858 18
557 1 17.0188 4.96357 12.0815 9
558 1 2.35616 -5.48722 9.89177 17
559 1 14.0095 13.5178 -3.32829 9
560 1 2.18008 1.21491 15.3742 18
561 1 12.3979 -0.867587 -4.84817 19
562 1 9.8319 3.27875 10.8788 17
563 1 -6.89933 0.986515 -7.79177 19
564 1 12.3777 6.23213 3.12969 21
565 1 10.5266 -4.599 2.64456 20
566 1 -12.1748 6.77877 11.5018 11
567 1 9.39481 11.3754 11.6169 17
568 1 11.6028 1.20601 12.7932 18
569 1 3.53903 11.0429 9.12687 20
570 1 1.19303 13.4864 11.4456 15
571 1 6.0659 3.32836 6.79333 17
572 1 -2.32728 -18.7239 2.46298 12
573 1 -5.14309 10.5325 -4.17382 17
574 1 11.2013 10.5384 -8.01136 16
575 1 10.0097 -3.20018 -12.5845 14
576 1 1.34642 15.4971 -1.43363 16
577 1 -2.9045 -13.2781 -6.40451 22
578 1 10.2307 -6.63309 -13.898 13
579 1 -13.5837 1.47206 6.85985 14
580 1 -4.9096 5.91497 -10.9217 19
581 1 -4.92885 -17.6112 3.0912 13
582 1 -3.98578 -0.475926 -11.633 15
583 1 -13.0808 1.26298 -4.83883 18
584 1 10.4883 -7.01192 4.0248 17
585 1 12.1201 11.4686 5.18289 17
586 1 1.08371 -9.86954 7.95918 22
587 1 -14.3287 -0.593221 -9.18079 13
588 1 1.35464 2.24165 -19.1011 15
589 1 0.52508 2.31344 12.9416 17
590 1 6.36231 8.96465 -12.553 15
591 1 13.8358 -0.443137 12.935 12
592 1 7.88794 6.04161 -6.33023 20
593 1 11.3913 13.5097 2.55442 13
594 1 4.83092 -15.0024 -8.4553 12
595 1 -11.3935 -3.0697 13.7025 15
596 1 14.2104 -1.86749 5.65127 15
597 1 -0.769077 11.6376 13.3275 16
598 1 6.22769 12.0147 -12.0903 12
599 1 -12.4131 8.73334 -4.35576 13
600 1 9.36529 10.6516 3.24379 18
601 1 -9.21881 -14.3492 0.0789337 17
602 1 14.0148 -2.85995 2.36815 18
603 1 7.62079 18.0785 3.73039 10
604 1 -4.11824 4.40023 11.614 17
605 1 -10.5046 -8.45467 0.0528525 20
606 1 -9.82758 -1.96463 -8.69087 18
607 1 8.51141 -0.333552 13.0332 18
608 1 -2.52036 -10.0763 10.6566 18
609 1 8.53544 5.47115 11.5815 18
610 1 -6.35189 13.4069 0.759632 20
611 1 8.09947 3.62875 2.2139 20
612 1 8.54969 3.3559 5.06763 20
613 1 1.3263 -0.309274 -18.2011 16
614 1 -9.82946 -2.03234 7.49394 20
615 1 5.56469 -1.8338 -9.53443 19
616 1 12.8766 -11.5126 -7.063 11
617 1 8.61066 5.2319 8.07885 20
618 1 -10.7897 0.344806 12.4944 21
619 1 10.714 7.72886 8.5274 18
620 1 0.0568544 -3.58709 15.4229 10
621 1 -1.36472 6.06067 13.1354 13
622 1 -0.386712 -4.49886 -14.1146 19
623 1 -5.9898 2.70361 13.6795 18
624 1 6.99953 3.68757 13.2722 20
625 1 -10.7578 -17.3704 9.0535 9
626 1 13.1833 8.84815 -1.57691 20
627 1 6.07471 -11.7797 -3.25497 19
628 1 7.37311 10.0233 -0.302603 17
629 1 9.29734 15.4881 4.59336 16
630 1 4.01519 -0.924307 -19.4319 9
631 1 3.68331 13.7479 -4.63868 23
632 1 11.7314 8.64549 1.21276 18
633 1 -6.88026 -9.82042 -2.08127 20
634 1 -2.1178 -0.572829 -18.2951 10
635 1 -10.4534 12.1063 -0.0934076 19
636 1 7.85541 -7.18269 -11.9058 18
637 1 10.7278 7.85376 -9.88864 13
638 1 10.5382 13.4718 -2.27211 14
639 1 -7.73201 6.3806 -0.446085 21
640 1 5.47089 7.06504 -4.79203 19
641 1 13.4522 1.99225 15.045 15
642 1 11.3271 -0.701402 14.8226 18
643 1 -3.19966 -12.9209 9.75742 12
644 1 -5.38593 8.37879 -13.0764 17
645 1 3.62806 13.2858 10.0343 19
646 1 7.41083 -7.90615 -15.3717 13
647 1 3.97776 2.1369 9.54602 18
648 1 7.51097 14.23 -3.93797 20
649 1 9.20473 12.2828 5.18568 22
650 1 15.207 -6.48708 -2.73756 14
651 1 7.26547 6.6514 18.2726 11
652 1 -12.5711 -3.14107 6.89487 19
653 1 2.04102 -15.2985 0.597804 16
654 1 0.19227 -1.85161 -9.33924 19
655 1 -9.89117 14.5106 1.42758 9
656 1 3.10024 11.2941 3.57776 20
657 1 -12.9533 -3.08445 3.40873 14
658 1 -1.01992 4.13553 17.1339 12
659 1 -4.72148 7.05868 -16.1493 14
660 1 -8.72812 7.86177 -14.3254 9
661 1 5.83345 -13.2141 -0.378828 12
662 1 7.52277 8.78869 -6.24617 16
663 1 -14.3642 4.25925 12.4529 9
664 1 3.9331 -2.28131 -13.1498 19
665 1 1.72249 -12.9839 7.9287 15
666 1 2.34686 15.5217 1.82691 20
667 1 -3.71907 1.3421 16.0855 12
668 1 -9.26597 -6.42457 -11.7468 16
669 1 -4.63554 -10.1758 -13.876 11
670 1 -7.86332 -13.7503 -9.59271 14
671 1 -0.521964 16.6517 -7.72703 13
672 1 8.20557 -5.52334 -6.81043 17
673 1 -2.90114 11.162 7.20984 18
674 1 5.54945 -12.1588 -8.92611 20
675 1 7.33255 -17.4162 0.825609 6
676 1 4.3686 -7.64285 7.48191 17
677 1 12.8803 2.87605 -6.43378 15
678 1 0.532995 -13.8364 -5.18067 22
679 1 -12.2257 -1.30147 9.35797 20
680 1 -4.2757 -17.3539 0.264584 14
681 1 -8.19299 -11.7054 -5.04316 21
682 1 -10.6535 0.891762 9.60029 16
683 1 -7.76684 -16.8446 1.10683 14
684 1 13.8727 5.58422 -5.82363 14
685 1 -5.16444 15.5349 3.73345 13
686 1 -14.8143 7.27841 3.9854 12
687 1 11.3824 -2.50803 4.33059 19
688 1 -14.2342 -2.408 -11.6645 8
689 1 2.14542 6.7902 -6.35013 20
690 1 6.94136 3.74928 -8.36662 19
691 1 6.68558 13.7553 12.958 9
692 1 10.8623 6.13165 -0.882837 19
693 1 -15.0471 2.0502 -7.18029 13
694 1 -13.1804 -6.76055 -7.9335 11
695 1 -0.55572 7.06994 17.7769 11
696 1 4.40474 6.75678 -12.2633 20
697 1 11.6946 13.8362 6.14374 13
698 1 -2.77186 -2.50015 11.0084 15
699 1 -3.45897 -17.3315 -2.70869 14
700 1 -8.44469 -18.0799 7.9654 12
701 1 -3.93771 -6.33991 8.3972 15
702 1 15.2764 10.4702 10.0823 11
703 1 3.6837 -7.5014 -10.1817 16
704 1 -6.51727 8.51688 -1.97 19
705 1 5.85808 10.3022 3.6857 18
706 1 -9.19984 -4.49856 5.98605 17
707 1 8.87558 6.65561 -12.5107 15
708 1 -3.24904 -15.8667 -5.83928 14
709 1 1.01133 -17.9398 1.06687 16
710 1 -0.655477 -16.0557 -1.06905 21
711 1 6.42378 4.73889 -11.3815 21
712 1 6.73721 18.0715 0.222288 13
713 1 -3.13141 1.14606 -16.3105 15
714 1 -0.569682 -0.628801 13.5421 18
715 1 0.761213 5.85896 -16.4235 19
716 1 -11.8969 -0.91199 -13.8034 10
717 1 -11.8782 -4.76662 -2.93033 22
718 1 2.61212 16.9884 -6.39868 14
719 1 -3.15847 -4.85099 -14.7584 17
720 1 -6.40353 -6.67612 -0.439875 16
721 1 10.464 7.89141 -6.38362 18
722 1 11.1172 -8.14866 1.46608 16
723 1 -5.69068 7.22814 14.6545 14
724 1 7.72444 -9.00674 2.97955 21
725 1 15.1866 -5.16849 -0.407997 14
726 1 12.8293 -3.54477 11.1385 12
727 1 -0.746211 10.9688 5.11745 19
728 1 -12.4158 2.57108 14.1593 13
729 1 -7.58418 5.28913 12.6885 16
730 1 -4.09999 -14.1463 7.20707 13
731 1 9.99108 0.798213 3.17029 21
732 1 7.38013 8.97217 12.9556 22
733 1 -15.9911 -0.136205 -0.955594 11
734 1 9.26248 -7.77479 -2.58358 18
735 1 -10.9739 11.4892 -5.60744 11
736 1 2.97168 -16.8207 5.34094 11
737 1 5.47815 0.633136 14.5474 21
738 1 -0.186908 14.5079 6.08817 20
739 1 3.15802 -10.9461 5.72245 23
740 1 -8.88371 -2.27008 -2.77349 18
741 1 3.97497 2.79393 12.8059 19
742 1 -14.6408 -5.22274 -3.47387 16
743 1 1.95654 11.0783 15.6636 17
744 1 4.43846 13.1397 1.77766 20
745 1 -11.5381 -11.4636 5.02732 14
746 1 -5.24919 -16.6202 6.09857 15
747 1 7.59759 -4.35246 8.60843 13
748 1 12.5131 -4.17235 7.70975 16
749 1 6.23662 8.30215 7.82416 13
750 1 0.58008 -9.84981 -10.4455 21
751 1 -2.56467 1.88702 -13.1338 17
752 1 -5.30895 -1.44044 12.7601 17
753 1 -1.76705 14.9085 2.89033 19
754 1 15.3348 2.59406 5.24793 15
755 1 4.71095 9.08999 -7.35959 19
756 1 -3.43867 10.7816 13.3737 13
757 1 8.56447 7.98001 9.90205 19
758 1 6.30449 -4.87354 -12.5893 16
759 1 -6.40574 -11.6114 0.84683 18
760 1 15.4487 0.627269 7.86291 12
761 1 3.25002 -0.650191 -10.9763 21
762 1 1.50989 7.43451 16.2872 16
763 1 9.54526 -11.6502 -8.03771 16
764 1 5.34738 4.98106 -17.0179 15
765 1 -3.03834 -7.82695 -4.40235 18
766 1 11.8173 5.12756 -11.3197 13
767 1 16.4545 -2.61531 0.675017 10
768 1 0.288315 -5.43984 12.7239 15
769 1 -2.53932 -9.45142 -11.0054 19
770 1 7.65096 13.9591 -0.786714 21
771 1 -13.1077 4.73181 6.26802 18
772 1 9.90893 4.64544 -4.32 15
773 1 16.465 8.11371 4.0683 11
774 1 2.12259 -5.80856 -16.1386 12
775 1 -8.50975 11.8225 6.37171 15
776 1 17.1658 9.58462 7.04976 12
777 1 11.1013 12.6356 -5.67404 14
778 1 3.08693 2.49767 -16.0628 21
779 1 9.79817 -4.4933 -1.81761 16
780 1 -12.7231 3.03004 -2.28805 16
781 1 12.9964 8.40867 4.24786 17
782 1 -13.0871 -11.073 -0.390635 15
783 1 -11.8091 9.81276 -9.1481 12
784 1 6.30277 3.50759 10.3095 17
785 1 -12.0317 -0.82261 -6.51909 19
786 1 -10.7242 4.24077 7.83757 17
787 1 -2.72968 4.65395 -7.80716 17
788 1 11.8355 -9.03314 -8.98846 12
789 1 -12.6848 -9.214 -6.94328 12
790 1 12.2596 -6.34353 -1.07527 19
791 1 -15.9288 6.53581 1.17345 12
792 1 -9.02143 -5.34588 -4.53338 20
793 1 14.0548 8.31881 8.89018 17
794 1 -5.72834 -8.35478 6.88486 14
795 1 10.5989 1.81226 17.1063 15
796 1 15.3196 -3.01592 8.16778 9
797 1 8.37619 -2.6871 4.45783 16
798 1 -11.5588 3.0291 1.23963 18
799 1 1.26931 10.25 10.4271 21
800 1 3.76806 8.91066 -10.4595 20
801 1 -1.28735 -8.17254 -15.136 16
802 1 -5.30798 13.2858 6.51697 16
803 1 -11.9733 -11.7603 8.08133 15
804 1 8.57003 11.4417 -5.69251 18
805 1 1.17536 9.0959 13.5859 20
806 1 14.8902 -3.5625 -4.3527 15
807 1 7.5924 -6.98896 11.0467 10
808 1 -0.709509 12.779 -12.5611 18
809 1 3.49957 12.1874 -9.29643 22
810 1 -7.60548 1.08175 8.56161 20
811 1 17.2214 6.25467 7.08132 10
812 1 -1.20667 -3.92674 -11.2026 24
813 1 13.2459 11.6954 -0.106175 12
814 1 -13.9831 4.89488 0.048964 17
815 1 -3.75582 -10.819 7.93749 14
816 1 4.24548 14.9775 -11.2074 11
817 1 4.24539 -2.21722 10.1384 14
818 1 -0.535623 -12.5706 -2.32695 19
819 1 -6.84378 16.4344 0.885411 9
820 1 -16.3068 5.96554 -2.14195 8
821 1 9.51288 -1.09144 -6.70648 16
822 1 -0.0296637 -14.749 -12.8675 8
823 1 -8.43946 6.71235 2.89977 17
824 1 14.3493 11.2923 -6.25246 12
825 1 -6.77458 -2.53165 7.1596 14
826 1 5.98069 -3.10855 -17.5461 13
827 1 -8.32739 -11.1366 -10.9911 12
828 1 -1.52181 -10.8597 -4.89825 19
829 1 -2.54022 11.0415 10.6555 20
830 1 8.64494 -11.002 -0.699417 18
831 1 -0.733706 10.4229 -14.0184 17
832 1 14.3613 1.63308 -4.34231 10
833 1 9.20514 7.02323 2.96651 16
834 1 1.19935 -19.1393 -1.96345 10
835 1 3.45166 -4.22891 -18.5596 9
836 1 11.6233 -1.1608 1.47061 17
837 1 -2.10866 4.33696 -15.3184 17
838 1 -1.769 -8.51853 7.4519 16
839 1 8.77938 11.3144 -2.27975 18
840 1 4.73664 1.56128 -7.9837 19
841 1 -10.9281 4.691 -3.41883 15
842 1 -14.5485 3.85605 9.38402 14
843 1 1.52196 6.15552 19.1939 12
844 1 -8.24998 -8.8138 9.14107 20
845 1 4.97468 10.04 6.49301 19
846 1 -0.609151 -15.7717 2.59303 19
847 1 4.46665 10.1216 -4.25814 20
848 1 -3.90003 7.75986 12.3601 20
849 1 -7.3928 0.51468 12.1424 21
850 1 -10.2108 9.14939 6.2099 17
851 1 8.83799 3.45939 -0.477768 18
852 1 -7.6572 -9.08792 12.7281 15
853 1 6.31618 -11.4394 4.7522 20
854 1 11.563 5.23203 9.18607 19
855 1 6.67799 -5.6945 -3.73281 15
856 1 5.6921 -12.621 -11.9189 14
857 1 -6.62974 1.92409 -13.6386 14
858 1 -1.49883 3.40084 -18.0872 15
859 1 7.77537 16.5481 9.61852 7
860 1 -11.8235 -5.99439 14.1894 10
861 1 -5.73229 8.32056 -9.03682 18
862 1 -14.2746 4.17303 -4.60905 15
863 1 7.38252 12.9663 2.40215 22
864 1 -10.6356 -18.2821 5.41562 8
865 1 -0.830017 7.47564 5.21477 18
866 1 13.9895 10.7461 7.08507 14
867 1 -11.4624 -12.3517 -5.60399 11
868 1 5.01948 16.9916 10.4697 9
869 1 -8.67681 -2.31655 13.2815 20
870 1 -2.3022 -16.1515 -8.28487 11
871 1 13.0322 2.08732 9.50836 15
872 1 4.14625 -16.069 2.32783 16
873 1 4.60207 10.0888 17.5895 12
874 1 -2.86467 -6.88022 5.63724 18