ITEM: TIMESTEP
15000
ITEM: NUMBER OF ATOMS
2000
ITEM: BOX BOUNDS pp pp pp
-30.0 30.0
-30.0 30.0
-30.0 30.0
ITEM: ATOMS id type x y z Coordination
1 1 -10.2229 6.07847 -14.5158 14
2 1 -6.58025 -7.5229 -10.7578 18
3 1 0.593859 17.3747 11.1191 5
4 1 9.36703 -9.61601 4.73326 15
5 1 -10.9638 11.1258 -2.33089 16
6 1 11.9017 -7.1083 -14.5897 7
7 1 -11.0357 5.07065 -4.6255 19
8 1 3.53294 0.0780554 6.51635 23
9 1 -9.96259 1.40933 -11.4812 20
10 1 -12.2617 -6.71913 3.66062 19
11 1 13.6279 3.17138 -11.3244 20
12 1 -3.5975 2.45806 -8.33151 20
13 1 -5.30238 -9.31892 -0.11337 23
14 1 -10.393 -8.92372 0.531317 19
15 1 -0.656732 4.70589 14.7393 11
16 1 8.52142 -1.19251 4.94976 21
17 1 3.75382 5.48101 5.84363 19
18 1 10.4088 -3.71534 3.36447 22
19 1 -3.93987 12.1937 -11.8285 21
20 1 -0.079424 4.68354 11.808 19
21 1 -8.95427 3.56263 -16.6845 10
22 1 -14.1179 0.805003 9.0985 16
23 1 12.2183 6.57123 7.44325 22
24 1 1.54147 13.7022 -12.7006 13
25 1 2.89166 8.59231 -13.6859 22
26 1 15.6379 1.37116 9.45394 12
27 1 -5.9357 3.20052 -3.24099 23
28 1 -11.9682 4.39402 -8.11106 19
29 1 1.37628 -0.399672 -11.7125 16
30 1 -11.0552 8.63826 4.04629 22
31 1 6.64594 -10.3164 3.02613 17
32 1 -0.519959 -3.16777 7.38257 18
33 1 4.40474 -11.3333 -14.7598 13
34 1 8.18016 -8.95251 -2.01633 16
35 1 -7.28198 -10.4937 -9.50026 16
36 1 -14.6783 -2.04213 8.9471 13
37 1 2.36224 -2.29096 -8.20872 17
38 1 -0.192145 -4.95734 -16.4969 20
39 1 9.29683 -7.31007 -15.6607 15
40 1 -2.00467 7.48312 -16.7184 18
41 1 0.189393 4.46703 8.77735 22
42 1 2.49645 -9.25952 1.70617 21
43 1 6.19312 -3.89527 11.2994 15
44 1 -13.4514 -2.14031 -0.267506 20
45 1 -19.6311 0.432728 6.42711 7
46 1 -7.83516 0.493757 -3.24524 21
47 1 -3.35907 16.4085 -8.16624 12
48 1 1.24175 -10.7193 -15.8399 12
49 1 3.36243 2.37885 -11.9969 22
50 1 5.35457 -4.10062 -13.0562 21
51 1 0.257292 -0.977184 8.29388 20
52 1 -14.8296 8.00312 -0.642035 15
53 1 1.42322 11.1406 -15.3163 16
54 1 2.6671 15.3579 6.77944 15
55 1 -8.85539 9.65647 -10.3403 23
56 1 -1.75523 14.6211 -3.32245 22
57 1 2.47515 -6.11877 3.48175 19
58 1 6.4601 -5.94722 -7.37199 21
59 1 5.73804 -3.46379 -18.5838 12
60 1 -8.48695 9.13694 12.813 10
61 1 -16.0062 -1.07851 -8.46948 11
62 1 9.44649 -0.403932 1.99966 23
63 1 -6.77251 8.13949 -6.90561 18
64 1 -7.8881 -6.91635 2.69435 22
65 1 -5.54616 16.0415 8.95974 10
66 1 -13.6466 8.17293 -7.04608 15
67 1 -6.56422 13.242 10.2715 11
68 1 0.262407 6.27137 -8.20208 23
69 1 1.76993 8.25461 5.10179 22
70 1 -5.86253 -13.9639 6.51905 13
71 1 2.4863 8.17457 1.56636 22
72 1 6.07158 -11.4544 -7.14643 17
73 1 4.62069 12.1239 11.5673 21
74 1 -14.439 5.22594 -9.31726 11
75 1 -10.5627 7.68558 -7.67538 19
76 1 3.42603 4.4799 8.17801 20
77 1 14.3541 -2.08925 -11.7955 16
78 1 9.45573 -9.82204 1.14005 14
79 1 -18.048 -1.77525 3.0531 12
80 1 -7.79947 -0.391939 0.424389 22
81 1 4.76149 16.3641 4.26219 18
82 1 4.29115 -3.43368 14.0589 10
83 1 -5.03982 -11.2765 2.76633 21
84 1 -10.421 -0.566478 -1.25658 23
85 1 9.82367 4.72744 5.80393 21
86 1 8.3394 -2.47987 -5.08394 22
87 1 -2.77201 13.1971 5.21718 22
88 1 4.73165 3.47563 3.61761 20
89 1 -5.57162 -2.77527 0.520746 19
90 1 -2.17434 -4.43657 -10.4021 20
91 1 -6.49248 8.65738 6.81468 19
92 1 -8.80703 13.454 -2.51004 18
93 1 -3.5936 5.59695 -10.1607 22
94 1 6.33769 1.23258 -10.5764 23
95 1 5.87635 -0.193602 -7.54426 20
96 1 11.1416 14.0304 -9.7052 12
97 1 7.15054 -5.28479 0.711892 20
98 1 7.62026 -8.53726 6.8857 17
99 1 -4.70262 16.0256 -4.98158 14
100 1 -9.68412 16.0598 2.76815 10
101 1 -8.52626 -1.44256 10.7371 15
102 1 -6.12339 8.27881 3.82108 23
103 1 -7.76633 -4.12225 5.69283 19
104 1 12.8011 -7.45123 -9.02222 12
105 1 -8.3425 4.74101 0.70431 17
106 1 -8.88524 -13.3365 -1.57849 13
107 1 9.51248 -7.2147 -7.93074 17
108 1 6.12978 0.330277 -14.1043 20
109 1 -6.90363 1.72005 -16.7155 15
110 1 -1.21426 11.8337 -1.24834 20
111 1 -6.5507 7.55095 -10.1166 22
112 1 0.251499 10.2842 14.6577 15
113 1 0.804306 14.9919 -5.55934 17
114 1 -13.5489 13.1108 -3.8701 14
115 1 -0.184111 9.43494 2.55421 18
116 1 -5.26069 -7.82768 7.39021 17
117 1 9.9252 -0.478824 7.97205 19
118 1 2.50615 -3.52084 -10.8247 19
119 1 5.87323 -6.58091 -10.8088 19
120 1 2.1028 1.85556 8.4441 22
121 1 3.53465 -0.572225 13.1407 16
122 1 -7.76143 -3.90263 -1.42236 15
123 1 9.6806 -6.13529 5.68165 21
124 1 -9.52717 -6.84689 -1.88587 19
125 1 10.7559 -7.05476 -0.347013 18
126 1 -5.74726 7.99817 0.340547 22
127 1 7.94477 4.95775 -16.6611 16
128 1 5.93253 19.2489 -3.7613 11
129 1 -10.0731 -12.0146 9.16908 12
130 1 -12.1215 -12.656 6.35388 13
131 1 3.13344 -5.76964 -16.5397 17
132 1 3.65816 6.66319 -9.01215 20
133 1 10.6362 -7.73847 -3.39329 15
134 1 -0.109843 -11.2039 4.55653 17
135 1 -11.1983 -10.8427 -1.74823 12
136 1 15.315 7.342 7.1325 14
137 1 14.9613 0.145162 -9.89316 20
138 1 -16.3718 -3.45147 0.713553 16
139 1 13.4198 9.40781 2.91844 19
140 1 16.1752 8.21078 1.26507 10
141 1 -7.92242 5.73812 13.1952 10
142 1 3.90161 8.86628 -1.30266 23
143 1 -1.60161 12.8571 9.44191 16
144 1 -5.85522 14.4149 -8.19989 17
145 1 -0.345543 -1.66261 -9.6577 20
146 1 10.0997 -9.81623 -13.2443 11
147 1 4.70308 14.122 -13.5347 10
148 1 6.76086 0.176344 7.91783 18
149 1 1.62006 1.09433 -20.4699 10
150 1 -2.50516 10.5936 -7.62552 22
151 1 15.0655 0.836856 -4.94553 21
152 1 -13.125 8.069 -10.0945 13
153 1 -12.8236 14.2217 -1.14051 12
154 1 8.94536 0.625468 -12.8476 21
155 1 12.0164 -8.5771 2.98807 14
156 1 -6.58689 1.8171 -10.1318 23
157 1 -10.4915 12.4103 4.72869 15
158 1 16.3349 8.81732 -9.11358 6
159 1 4.89647 10.7658 -4.13076 24
160 1 -1.34073 15.3587 -0.132924 20
161 1 7.22095 11.7978 -2.65499 20
162 1 -5.21522 10.7769 -5.9487 20
163 1 2.97404 15.6805 -10.4264 16
164 1 4.20508 9.38772 -15.9703 17
165 1 -10.8749 -11.6116 0.907627 14
166 1 -11.1828 8.94158 -4.81907 15
167 1 -4.89916 -0.468215 -11.575 22
168 1 1.24499 -7.09903 -18.07 14
169 1 10.6729 13.9904 5.09119 14
170 1 -4.57228 18.2875 3.18292 10
171 1 -12.1349 -3.01438 -4.57861 24
172 1 -9.95477 15.8452 -0.0570575 14
173 1 16.3758 -1.55333 -4.40507 9
174 1 -9.76444 3.91748 -12.7902 18
175 1 8.53953 2.00268 14.3657 10
176 1 3.547 18.2416 1.87822 13
177 1 -0.722901 10.0519 5.49831 22
178 1 2.51399 -4.36786 -19.6811 10
179 1 -6.01586 11.6433 5.22406 21
180 1 0.499491 11.9294 -8.01574 22
181 1 3.41181 -3.36263 11.0591 16
182 1 -12.8766 -2.99955 3.77916 18
183 1 -4.32765 -8.07597 -14.094 20
184 1 -6.07214 9.77356 -12.1456 21
185 1 -2.18095 -12.6562 2.18847 22
186 1 3.59272 -11.8496 -8.70991 17
187 1 -3.86455 12.6876 -16.1208 11
188 1 -18.4124 2.9518 6.25293 11
189 1 -1.36508 8.95504 -3.54052 20
190 1 11.5058 7.46083 -6.46586 18
191 1 -10.56 6.71029 11.6994 14
192 1 2.61356 -7.3364 9.46594 9
193 1 -8.54808 2.21054 -1.18557 21
194 1 1.19068 13.9808 -1.86954 20
195 1 0.107515 6.08661 5.13607 22
196 1 13.7105 5.42408 12.9273 10
197 1 -7.3428 17.7739 1.05324 10
198 1 15.7881 -3.19948 -9.41219 12
199 1 -8.1076 13.7336 7.31785 13
200 1 -3.67676 2.54825 -11.2792 22
201 1 13.9905 -2.7523 3.83289 17
202 1 -8.31427 -1.07163 7.25725 17
203 1 -18.936 1.291 3.37895 11
204 1 -7.87758 -9.73255 0.954135 22
205 1 2.8272 9.73693 12.4089 23
206 1 -16.2346 -0.539661 -4.72858 13
207 1 -1.91381 -12.4096 -3.92892 19
208 1 -5.79181 -2.91766 -6.78702 20
209 1 6.04594 -5.32313 -4.28597 21
210 1 -4.99107 13.3808 2.71596 20
211 1 -5.23565 0.156923 2.07314 23
212 1 3.63993 15.6952 10.3871 10
213 1 -8.27698 -0.646581 -6.11169 24
214 1 -7.49637 12.7999 -11.0046 16
215 1 -14.7265 -2.97382 -6.6357 13
216 1 -8.00023 1.80012 8.76974 19
217 1 -0.307344 -7.73492 0.744853 20
218 1 2.88449 -10.9793 5.59632 13
219 1 -14.6113 11.5812 0.161386 10
220 1 17.64 3.03659 4.03877 9
221 1 7.5922 2.43624 -7.98879 20
222 1 -5.71746 -5.56067 -15.9288 16
223 1 4.94654 2.08677 10.1052 20
224 1 6.37663 -13.3301 1.68899 10
225 1 -3.37908 9.56185 -14.7869 21
226 1 3.57762 -8.69439 -15.3497 17
227 1 8.77394 1.98771 -15.4367 20
228 1 3.46575 5.97485 -16.5837 21
229 1 -7.38336 -5.25923 -8.13832 21
230 1 -2.63231 13.664 -8.85866 18
231 1 -12.6218 -9.93082 8.44329 11
232 1 7.09326 17.8881 -1.16749 13
233 1 -8.08727 4.49055 10.5167 22
234 1 -6.9389 13.5792 -5.50082 17
235 1 5.148 2.77913 7.19299 20
236 1 -2.1059 -5.13244 -14.0803 19
237 1 -0.953531 10.5743 -9.96547 23
238 1 4.27424 6.05149 -11.9594 23
239 1 -9.40598 -11.0943 5.44701 18
240 1 -9.37811 1.43608 5.40613 22
241 1 -5.74689 5.68348 5.42975 22
242 1 0.847357 -9.91681 -9.62034 23
243 1 -5.11135 -14.3975 3.3698 17
244 1 8.84682 -9.58319 -5.56735 16
245 1 0.309916 -5.2155 -4.91737 18
246 1 12.7686 8.84752 12.4298 10
247 1 6.91471 11.9861 -11.1541 22
248 1 -3.77836 11.2705 -3.07958 24
249 1 -12.4162 0.383647 0.871293 16
250 1 -14.8373 10.4795 -5.42082 12
251 1 2.15369 6.48209 10.2421 19
252 1 2.92051 -14.9805 -1.93608 14
253 1 16.2186 1.39899 -2.00955 17
254 1 2.54344 11.2732 6.53195 19
255 1 -8.00069 8.54881 -1.39708 17
256 1 -10.497 -5.89021 -4.5923 20
257 1 5.49081 6.48737 -14.723 18
258 1 5.58882 -0.775818 10.5392 17
259 1 9.23151 11.03 -13.421 14
260 1 0.190933 -7.57772 -7.29187 22
261 1 -2.03869 2.47302 -17.5387 20
262 1 -0.130402 -14.7216 4.20166 11
263 1 11.7111 0.689313 -5.23581 19
264 1 -11.3605 -1.43995 5.62848 20
265 1 3.54321 -14.1911 -6.64586 10
266 1 -8.90688 -2.73221 -8.50868 20
267 1 8.57357 16.5556 -3.83027 13
268 1 -1.9296 -0.775012 -17.6038 18
269 1 4.84855 4.96005 11.579 19
270 1 16.655 3.96405 0.504929 15
271 1 -6.98381 -6.91882 -0.355965 22
272 1 12.5324 -3.96982 -13.4584 16
273 1 -0.0118673 -5.07717 1.90654 17
274 1 -10.9734 -1.51878 -11.8476 14
275 1 -8.3756 -0.00252232 -9.46492 20
276 1 -9.20631 -14.2701 7.45423 13
277 1 7.0118 4.37319 5.02493 20
278 1 9.44939 -4.40438 10.2426 14
279 1 -7.98048 -5.96523 -13.5364 16
280 1 2.18331 -6.78576 6.50174 21
281 1 -0.0812023 8.62364 -14.4967 20
282 1 7.18044 8.56105 -2.28442 21
283 1 -10.6017 -6.0253 0.961703 22
284 1 0.84922 14.6299 1.36297 20
285 1 -6.13173 -0.855247 11.8645 12
286 1 -12.9056 -6.94848 -9.22022 15
287 1 -5.88468 -3.47783 -10.2189 22
288 1 -3.63834 10.2264 -18.0302 11
289 1 -9.46149 -7.39356 -7.00167 21
290 1 -3.14583 -6.55465 -0.175357 18
291 1 9.06479 -2.6876 -18.3977 13
292 1 16.8643 2.22445 -10.988 10
293 1 11.8935 4.09326 2.85029 21
294 1 -3.20396 -2.91127 -4.9943 20
295 1 -11.5281 -4.59368 6.97915 20
296 1 -2.25913 -8.7888 -1.83757 22
297 1 9.7654 8.56445 10.5317 18
298 1 -6.31187 -10.6289 5.61207 17
299 1 -2.96856 -11.3051 -0.832124 20
300 1 1.00797 17.2717 -0.471488 18
301 1 7.96704 2.89514 -18.7695 15
302 1 -8.18704 -3.26282 -14.5319 12
303 1 -12.8012 -4.85967 9.82879 13
304 1 3.44245 8.38053 15.4887 12
305 1 0.303506 -11.0946 -2.60203 17
306 1 -4.47033 -11.4906 -13.9566 12
307 1 -5.44025 7.60268 -13.85 20
308 1 10.8577 7.0612 3.91939 20
309 1 -7.01805 4.50124 -11.1374 21
310 1 1.21117 10.7942 -12.0216 23
311 1 -3.07245 -3.75743 5.27917 18
312 1 7.27174 -12.3662 -13.2331 11
313 1 -3.76594 16.0595 -2.2305 15
314 1 2.92485 10.6904 3.9775 20
315 1 11.8375 1.98825 5.02566 20
316 1 -8.71572 1.26984 2.25706 23
317 1 -3.33765 -5.03756 8.70256 13
318 1 -12.212 10.8436 2.31105 18
319 1 4.46432 -2.27938 -15.5388 20
320 1 12.6683 11.1289 -3.84404 12
321 1 4.20763 -9.0515 -3.91755 17
322 1 -2.43035 -0.550784 13.0445 13
323 1 -16.0945 -4.17565 3.90791 18
324 1 0.578421 -15.4927 -7.57173 11
325 1 -9.27321 7.53122 8.5704 20
326 1 -5.81585 5.88446 8.5955 22
327 1 -17.6291 -2.57996 6.60643 12
328 1 -13.0978 -7.28974 7.11202 18
329 1 13.6945 -4.07013 -4.02608 15
330 1 -15.5529 -7.27575 4.78035 11
331 1 10.0866 -2.57742 -10.0182 20
332 1 9.17419 -12.1893 -7.64336 11
333 1 4.01704 19.1731 -6.43621 14
334 1 -2.72115 -3.72556 1.92795 20
335 1 -10.109 13.9817 -5.60484 13
336 1 2.07204 2.73634 5.46041 22
337 1 7.56547 9.36953 8.24679 19
338 1 -8.0221 -1.28736 3.95081 22
339 1 5.88455 -8.72206 -6.61087 18
340 1 -3.99034 10.5885 0.617866 20
341 1 -6.67648 11.0118 1.89659 22
342 1 3.76393 -8.70596 4.50255 22
343 1 12.4506 -1.99198 1.4798 20
344 1 -2.56527 4.99703 7.03325 20
345 1 -5.52558 -0.48185 -8.2863 23
346 1 -0.361141 1.79054 13.3975 16
347 1 -4.84753 15.7415 4.23739 16
348 1 9.83957 10.2124 13.4763 12
349 1 -8.16569 12.117 -8.09312 15
350 1 -0.883515 -2.85914 -19.6973 13
351 1 -9.00037 3.08863 -8.19805 20
352 1 6.31361 -7.12728 -17.2264 12
353 1 -12.0586 7.02615 6.57445 20
354 1 -13.8541 3.88389 3.66945 15
355 1 -7.8307 -1.23942 -12.3518 23
356 1 -6.64539 11.2821 -1.08682 22
357 1 11.254 -1.00288 4.87666 21
358 1 -8.48053 -12.2172 2.45604 19
359 1 11.2935 -8.56703 6.45044 13
360 1 -9.13449 -9.29203 8.00692 17
361 1 -13.7729 10.3252 -2.44177 14
362 1 0.565917 -0.0745208 4.9987 20
363 1 2.83193 -9.08721 -6.82713 19
364 1 -6.90017 1.83244 -13.3329 21
365 1 10.7215 0.538157 -17.9302 11
366 1 4.5246 15.5262 0.572741 21
367 1 -10.8935 0.396499 -4.20409 24
368 1 6.1642 -6.90319 -14.1896 21
369 1 10.9314 6.31893 -14.8325 11
370 1 -4.28156 -11.7791 -9.4496 16
371 1 -13.5251 -5.92962 -6.63894 16
372 1 -2.4922 -6.41762 -3.62286 19
373 1 10.2584 6.62069 12.8271 16
374 1 9.55594 2.97702 -4.27878 20
375 1 -8.57277 7.31775 -12.1788 20
376 1 2.62952 19.4179 -3.70509 10
377 1 -13.4126 -0.402225 -5.81953 18
378 1 -8.16324 10.7435 4.32049 17
379 1 -7.37275 14.0082 0.638842 22
380 1 -8.47996 8.09169 1.83789 21
381 1 11.4913 5.37451 10.5953 22
382 1 11.1659 -2.12562 -3.77887 20
383 1 9.05799 -1.9919 10.7945 21
384 1 12.7758 1.07734 -8.08128 25
385 1 -4.43534 -14.1028 -4.5822 16
386 1 -5.74128 5.37539 -5.12503 19
387 1 -0.145678 -4.61207 -8.63457 24
388 1 1.64958 11.4806 0.538173 21
389 1 -8.87986 2.86659 -4.53751 21
390 1 5.59616 -7.74734 -1.67147 18
391 1 12.9114 0.799838 7.37257 19
392 1 -9.34821 -2.43083 -3.71041 23
393 1 -2.64977 -6.61795 2.97802 20
394 1 -9.1218 -3.83104 8.80272 16
395 1 -5.50931 13.3917 -3.34963 21
396 1 -7.7953 -9.77913 -2.02168 21
397 1 7.22167 12.5558 13.9849 12
398 1 -9.09171 9.92887 -6.51932 14
399 1 3.50695 12.1312 -9.37489 21
400 1 6.54164 12.7952 0.526357 20
401 1 -13.1523 -6.28825 -3.82163 15
402 1 -4.37661 -6.08759 -9.20225 19
403 1 -12.5528 1.01174 3.73033 19
404 1 -13.9027 10.8805 -8.88731 11
405 1 6.95362 -7.33128 3.87514 20
406 1 -4.94315 -11.5915 -2.44624 24
407 1 11.4427 12.3994 7.22866 15
408 1 5.80507 7.98473 -17.2227 15
409 1 -12.108 5.89736 -11.8453 17
410 1 -0.867541 13.5413 -11.0641 16
411 1 -6.16835 4.48444 -8.38894 22
412 1 -2.87882 -9.38779 1.75224 25
413 1 13.2566 5.27757 5.11201 23
414 1 -0.670063 8.41157 -19.0691 14
415 1 -5.48509 0.173226 8.69102 20
416 1 -14.9698 1.43556 -0.228665 18
417 1 -6.16424 2.6525 3.67361 19
418 1 -4.21291 -14.4692 0.0203526 21
419 1 2.54116 -10.2455 -12.5712 22
420 1 8.58324 -4.45394 -13.3647 21
421 1 -0.447471 -2.24191 3.98488 20
422 1 -11.2263 2.96192 1.78422 20
423 1 -17.268 0.830257 8.96184 11
424 1 -10.8105 5.98559 3.71851 19
425 1 2.31676 -2.9521 5.51702 22
426 1 -6.22067 4.51331 -18.4247 14
427 1 8.66719 -7.51306 -11.4285 19
428 1 0.427039 -5.20811 -11.9235 19
429 1 -3.02742 -1.77599 9.82552 21
430 1 3.379 -6.43802 -5.7994 20
431 1 -4.40498 5.18023 -15.9782 20
432 1 5.0339 -10.5548 0.00547086 19
433 1 2.7783 14.7276 -7.49795 20
434 1 -13.6281 12.7287 4.35355 12
435 1 -4.85632 5.59437 11.6918 19
436 1 -12.1108 -4.21472 -10.905 13
437 1 -10.6519 -7.13194 9.34339 15
438 1 12.054 -2.62797 8.79701 18
439 1 7.63508 3.21104 -1.49668 20
440 1 -5.62286 5.41192 2.148 21
441 1 3.45381 0.768692 -9.55954 20
442 1 12.6131 -5.85969 4.61123 17
443 1 15.1465 9.55096 -6.1082 11
444 1 -2.66856 3.41013 9.32061 20
445 1 3.39557 13.4999 -4.42573 21
446 1 6.91841 -4.39447 5.40183 20
447 1 -1.97865 -10.3599 -8.35179 23
448 1 -5.51429 7.72002 13.9066 13
449 1 -5.12658 14.2571 6.50634 20
450 1 -10.5977 -9.70781 -9.32821 13
451 1 9.28596 16.3874 -0.445856 9
452 1 4.21318 13.5372 8.68054 20
453 1 -8.62294 4.29184 3.65405 20
454 1 -6.30475 -8.42644 -5.24731 18
455 1 -15.224 6.96762 7.71513 15
456 1 -10.923 -4.92547 -7.62723 20
457 1 -3.04759 10.5617 3.74669 23
458 1 -5.84169 -9.97249 -12.1948 16
459 1 -1.62537 -7.67212 -16.3999 15
460 1 -6.07212 -12.1931 0.255651 22
461 1 -5.41285 -2.68532 3.96201 21
462 1 9.31833 1.91116 3.70988 22
463 1 -6.17894 -3.95833 10.1986 11
464 1 -9.30132 5.75449 -9.75386 21
465 1 7.2337 3.72827 -5.11311 17
466 1 -7.34262 -12.7843 -7.56581 9
467 1 1.35512 4.55008 -10.2429 19
468 1 0.753095 19.5459 0.991041 9
469 1 1.0273 7.45295 -10.9995 22
470 1 -1.43428 10.0061 8.86459 23
471 1 -13.3063 -0.500966 -2.50252 22
472 1 1.02515 17.9216 -6.74574 14
473 1 8.68836 12.4318 -7.92921 22
474 1 -4.6522 -6.19518 -12.2344 22
475 1 5.34082 2.15841 13.4213 15
476 1 1.14084 -12.4886 -12.2394 14
477 1 -0.727728 -2.20336 -14.8074 15
478 1 7.91744 -12.025 -0.516784 11
479 1 -10.7692 8.87893 0.325443 16
480 1 1.41792 8.94617 8.41779 18
481 1 10.2218 8.54229 -4.11801 22
482 1 1.69847 11.3038 -2.78647 20
483 1 -8.91695 11.2598 -13.0524 12
484 1 4.87782 3.7558 -9.65969 24
485 1 2.43937 -5.88148 0.60199 21
486 1 -16.9807 -2.58058 -2.27585 12
487 1 -1.6053 18.5818 3.44683 12
488 1 -2.43277 6.74222 -13.3995 21
489 1 9.23611 5.95928 -1.51503 17
490 1 8.30098 15.9907 -9.30894 13
491 1 5.09514 -4.77524 -1.43778 21
492 1 17.6637 4.77604 -1.5819 11
493 1 0.27942 0.844838 -15.8088 17
494 1 2.98867 -6.06776 -2.90902 21
495 1 -0.00630245 -10.8847 1.31885 23
496 1 6.08378 -8.69532 9.57097 8
497 1 -8.58929 5.5979 -6.73597 17
498 1 -12.9745 -13.7571 3.12254 7
499 1 -1.47658 -13.1994 -14.5605 8
500 1 9.89059 13.8596 2.21464 16
501 1 3.73978 3.78845 -14.5853 19
502 1 1.98727 1.66198 14.808 10
503 1 -15.9863 3.66367 8.73055 14
504 1 -0.889188 -15.1324 -4.49349 13
505 1 -10.5663 -1.01326 2.33324 20
506 1 14.441 -5.267 -7.76228 12
507 1 13.3036 1.31604 -2.29254 19
508 1 -5.7609 10.7522 -9.14725 21
509 1 2.16579 -6.54329 -9.20816 18
510 1 5.94221 3.10204 -13.2764 22
511 1 14.4655 -5.50293 -11.3923 10
512 1 -10.9913 3.55973 11.175 17
513 1 5.69578 14.7939 -2.398 19
514 1 -6.09624 -0.898448 -14.8361 19
515 1 5.93588 5.61977 -19.1667 13
516 1 -5.47186 -2.61088 7.29796 20
517 1 -3.38207 13.4093 -5.94349 21
518 1 -9.75979 -0.232753 -15.5988 10
519 1 -17.4984 -0.211 0.561489 14
520 1 -4.31997 -7.83458 -16.9378 13
521 1 -7.22503 -9.84634 9.95671 11
522 1 1.57478 9.38987 -8.59606 19
523 1 16.4139 4.64245 6.6071 13
524 1 14.8406 4.14369 -3.47248 20
525 1 -7.40115 -12.7872 -4.63207 13
526 1 0.611632 -8.07375 -4.32312 24
527 1 -1.9449 0.467922 -20.2701 13
528 1 -8.9705 11.4487 9.93205 10
529 1 2.07582 -3.49833 -14.1512 18
530 1 6.0069 5.54266 -1.54971 21
531 1 11.1943 -1.02359 -1.16936 21
532 1 5.45193 14.0942 -10.733 19
533 1 7.96811 -6.03849 -2.07603 20
534 1 16.08 5.51142 -10.2859 10
535 1 1.77646 11.5994 9.97741 23
536 1 -8.72297 6.8014 5.53602 22
537 1 4.99647 13.2784 5.37656 22
538 1 10.1526 0.140425 12.7201 16
539 1 0.821593 6.27657 -17.5629 18
540 1 -2.58947 -5.78429 -6.75795 20
541 1 2.62116 -0.599526 10.1649 17
542 1 6.94938 15.3781 7.53396 14
543 1 8.35323 6.39723 -12.7942 18
544 1 -8.40837 11.1721 -3.46027 19
545 1 -0.592245 11.8285 -4.70553 20
546 1 12.1074 -2.5824 11.7916 12
547 1 11.4665 3.50152 -13.4873 18
548 1 11.533 -9.80277 -6.72646 12
549 1 11.7152 12.2607 10.5133 8
550 1 -13.0647 -4.77755 0.972089 20
551 1 -6.39934 13.5557 -13.8557 10
552 1 -0.432092 1.19429 10.1367 23
553 1 -15.1178 2.53602 11.4104 11
554 1 -4.09034 14.7417 -11.1938 12
555 1 3.22564 -12.1005 -3.32635 14
556 1 7.94681 -1.63942 -11.8745 22
557 1 -2.11951 17.0617 -5.30325 13
558 1 -5.68749 -3.72164 -13.003 21
559 1 3.37683 -12.1437 2.55718 19
560 1 -15.1477 -5.64874 -1.20588 14
561 1 1.3871 9.40129 -17.2956 18
562 1 -6.43804 2.20262 -6.53299 23
563 1 -0.454397 9.20153 11.6044 20
564 1 -14.9423 -4.74184 6.72415 18
565 1 2.29072 8.41377 -4.35108 22
566 1 0.813731 -7.34872 -14.6222 20
567 1 7.00657 -5.30754 8.24326 18
568 1 8.89189 0.325564 -5.87084 21
569 1 -12.5834 7.13403 1.31409 21
570 1 4.62739 7.4641 12.3879 17
571 1 7.29346 17.8754 -6.40894 12
572 1 12.9788 -1.97894 -9.07262 19
573 1 4.76645 9.88034 9.84584 20
574 1 -2.40186 5.46151 -18.3995 16
575 1 -6.90858 -13.0124 9.42844 10
576 1 -2.40974 0.726925 -13.2762 15
577 1 10.1157 3.72106 -16.6421 12
578 1 1.99707 14.951 4.06478 18
579 1 11.1564 8.34341 -12.6152 14
580 1 -3.21084 -3.47271 -18.1359 15
581 1 -4.63599 -8.61675 -7.92685 18
582 1 -14.3023 -1.85391 -11.2741 10
583 1 11.5714 3.71099 -1.38144 20
584 1 16.661 6.71129 -4.36194 12
585 1 8.16108 -4.42401 -10.098 20
586 1 13.1856 8.79739 9.33978 12
587 1 3.95813 -9.01343 -9.52914 20
588 1 3.11176 4.36615 -19.4878 13
589 1 3.45349 13.0017 1.85225 18
590 1 -5.96227 2.78358 0.345754 23
591 1 9.42754 13.1653 12.2472 11
592 1 11.6138 5.34436 -4.45818 22
593 1 14.9783 -0.136193 0.538783 17
594 1 13.4797 4.59717 -8.33843 20
595 1 8.72008 3.77943 11.9073 20
596 1 14.7897 5.0453 9.63523 12
597 1 5.22234 -2.86543 8.10091 21
598 1 12.0342 12.7208 -6.8423 15
599 1 1.19751 7.20898 13.4071 16
600 1 17.0487 0.355825 -7.64844 12
601 1 6.91024 4.32333 8.79211 20
602 1 -12.0622 3.09779 -10.2917 21
603 1 14.7727 6.5542 -1.41726 16
604 1 10.0023 -3.56843 0.157395 24
605 1 -0.275266 -5.31062 -1.70928 22
606 1 -10.6147 9.75679 6.9863 16
607 1 9.5474 14.251 8.72368 13
608 1 10.0506 3.45319 8.84613 20
609 1 6.46617 14.4542 2.95834 19
610 1 -0.691325 16.2037 6.02908 14
611 1 4.44834 8.307 7.02452 18
612 1 0.200559 -16.0676 -1.49349 12
613 1 -5.70616 8.76885 -3.38296 20
614 1 9.55366 9.72031 -7.29505 18
615 1 12.7694 -1.31813 -15.5771 10
616 1 1.76255 16.8351 -3.8128 16
617 1 0.117551 -9.10587 -12.7096 18
618 1 10.6174 -4.00782 -15.741 15
619 1 -18.5656 4.68135 3.14649 11
620 1 -3.05789 9.24946 -11.1358 22
621 1 -4.53035 -16.9934 1.13944 10
622 1 -4.14314 1.74591 -15.5637 18
623 1 -14.8422 2.18987 -3.60121 16
624 1 12.7461 -5.24396 1.95509 19
625 1 11.8503 11.2323 0.784111 17
626 1 0.233377 -9.138 6.64039 13
627 1 -14.0723 2.17069 -7.84948 17
628 1 -0.0116025 2.98913 -19.3224 15
629 1 5.08333 -1.97375 4.68538 23
630 1 -3.47723 8.84026 11.6804 21
631 1 6.75899 10.9065 -15.3681 12
632 1 11.4477 0.773175 10.1326 23
633 1 9.42381 6.19821 -8.11781 16
634 1 9.37699 13.0952 -0.7797 16
635 1 4.07981 -12.78 -11.9518 14
636 1 -12.3721 0.473667 11.6631 10
637 1 12.1934 0.890762 1.31406 25
638 1 -2.22448 16.8808 8.65067 8
639 1 9.89127 13.8436 -12.0178 9
640 1 -12.8987 13.213 -6.776 10
641 1 11.0467 8.1924 1.19412 22
642 1 -6.38419 -14.5551 -2.25198 14
643 1 15.089 -3.94286 0.363839 10
644 1 6.56187 17.7712 1.9571 10
645 1 -3.90249 8.40886 8.73043 18
646 1 -7.55818 -3.7398 2.03355 20
647 1 -10.9639 -1.34629 -7.14506 19
648 1 8.3249 1.32998 10.0574 22
649 1 -0.166697 -6.17479 8.79186 15
650 1 7.76164 6.70829 11.224 21
651 1 -3.80018 13.2641 -0.428353 21
652 1 9.91657 1.95363 0.0939239 19
653 1 8.32512 6.02189 2.75139 18
654 1 3.19549 0.453783 -17.609 18
655 1 -13.7303 1.59908 6.34767 17
656 1 11.5536 0.767968 -14.963 17
657 1 -3.27492 -2.99191 -8.17706 21
658 1 10.2194 -9.59757 -9.59857 15
659 1 7.59871 7.52649 5.62078 21
660 1 8.07764 9.17368 2.80163 19
661 1 -13.6465 5.63321 10.4502 15
662 1 7.83589 12.758 6.16862 22
663 1 -0.290224 -2.68953 10.7217 16
664 1 -0.592947 7.14225 7.55789 21
665 1 -4.02466 -3.33746 -15.7942 17
666 1 -8.06491 4.51719 7.08087 22
667 1 7.1595 5.09196 14.0165 12
668 1 -11.8073 -15.4879 5.3999 9
669 1 13.2706 8.52517 -3.78476 15
670 1 7.15629 -9.00328 -9.33247 20
671 1 -0.0315767 9.13049 -6.52703 22
672 1 7.12416 9.45277 -5.52102 19
673 1 8.20866 10.4927 0.190868 20
674 1 5.31494 1.95419 -19.2961 16
675 1 -0.697518 2.15687 6.89889 21
676 1 5.56695 16.3085 -8.30448 18
677 1 11.4035 7.45531 -1.94438 17
678 1 -7.54803 -5.82656 -3.51467 19
679 1 -4.70516 -0.310393 -17.5081 16
680 1 -11.9748 15.5159 -3.93286 8
681 1 10.6458 -1.96442 -13.2038 22
682 1 10.4832 5.26402 0.91692 18
683 1 11.8849 7.68852 -9.24273 16
684 1 9.72177 11.5056 -5.05844 20
685 1 -2.74049 5.04267 3.76071 22
686 1 -5.66536 5.73047 -1.60963 22
687 1 8.14033 6.47954 -4.25124 19
688 1 14.7249 3.0224 11.8047 11
689 1 13.7843 -0.0163268 11.9839 12
690 1 -4.58998 -11.0339 7.72659 13
691 1 -6.1622 10.463 -15.4285 15
692 1 0.0714246 12.994 7.16397 19
693 1 7.18611 -4.15176 -16.1386 19
694 1 6.09034 1.09717 4.93412 20
695 1 5.21843 13.2984 -7.83874 21
696 1 7.80669 12.1052 3.11638 20
697 1 10.374 -1.48079 -6.96999 20
698 1 6.80511 9.25541 14.2632 12
699 1 -13.9149 -1.73938 5.80876 19
700 1 2.39929 -12.2148 -0.47094 17
701 1 4.62221 -1.14262 -12.1661 21
702 1 -14.4333 13.7916 1.83198 12
703 1 2.56989 5.37803 3.249 19
704 1 5.06594 -2.94726 -6.17452 20
705 1 4.7104 10.1958 1.81405 23
706 1 -14.9313 -1.57077 2.35486 18
707 1 -2.00258 6.75183 13.5889 18
708 1 -5.16761 7.69662 -17.6167 14
709 1 -8.39356 8.80013 -15.0872 15
710 1 1.32351 -8.31988 -1.35986 19
711 1 8.0926 9.42022 -10.6571 19
712 1 5.19196 -4.65239 2.53536 22
713 1 -2.91026 7.62603 2.0107 20
714 1 -12.4771 8.79488 9.48909 14
715 1 6.40917 -0.617029 -17.6011 21
716 1 6.12142 -11.0289 5.92499 11
717 1 4.72649 16.0794 -5.52892 20
718 1 -3.16245 3.40567 12.8383 15
719 1 -8.75357 -4.16247 -11.2771 19
720 1 -6.74085 -8.75821 -15.0039 12
721 1 -8.80867 -8.27853 -12.0607 13
722 1 0.00703185 14.9897 -9.08656 16
723 1 5.17392 -3.51464 -9.70114 18
724 1 -1.40343 15.1537 3.47816 18
725 1 5.75092 -9.88039 -12.46 23
726 1 5.69495 -14.0874 -1.71316 12
727 1 4.25574 -8.8315 7.32069 15
728 1 15.4396 2.74121 -7.84513 23
729 1 0.952535 -12.7604 -8.44605 18
730 1 -10.9806 1.15285 8.71479 22
731 1 -0.404703 2.00751 -9.83591 19
732 1 -3.22822 -15.9974 -2.33635 13
733 1 -8.90922 -10.2645 -6.75378 15
734 1 -13.1467 3.82034 8.32507 21
735 1 -7.37102 -14.7537 1.25057 14
736 1 16.9053 5.81433 -7.59104 13
737 1 -4.62501 16.0993 0.740819 18
738 1 -4.91468 3.05974 7.28007 20
739 1 -14.9839 10.2114 3.45727 13
740 1 7.41971 -2.7935 2.42054 20
741 1 -13.6634 0.940526 -10.9808 13
742 1 4.20552 8.62421 -6.70438 19
743 1 11.1499 3.36444 -9.7926 20
744 1 6.91052 14.0921 10.9684 16
745 1 10.7333 2.97126 -7.05451 20
746 1 -12.611 2.87874 -5.01278 20
747 1 -15.0179 -4.6747 -9.50201 10
748 1 -3.10296 9.38319 15.211 10
749 1 6.18462 8.7687 -12.5715 20
750 1 10.2944 10.7601 4.40204 21
751 1 -2.51452 -0.781603 6.48785 21
752 1 -2.02447 -13.4147 -6.8367 19
753 1 -8.52083 -14.5863 4.56435 16
754 1 -2.20735 -6.49009 6.58125 16
755 1 12.9643 9.73956 6.58646 18
756 1 3.21228 -6.63743 -12.2725 21
757 1 -11.8283 7.4597 -2.03974 17
758 1 5.99189 7.32346 0.672739 18
759 1 -5.22037 -5.76185 2.12543 22
760 1 8.52084 8.12183 -15.0047 16
761 1 -0.799529 -13.5625 -10.1566 15
762 1 1.1493 -14.5575 1.57783 19
763 1 -0.641101 -13.2487 -0.347232 18
764 1 8.51726 3.12839 -11.1894 18
765 1 3.8253 17.5749 -1.27187 14
766 1 -3.36001 3.36815 -20.3979 10
767 1 0.859637 -1.54133 13.803 13
768 1 0.901181 5.72476 -13.9625 22
769 1 -13.0173 0.0563926 -13.6516 10
770 1 -12.0525 -3.94549 -1.83844 22
771 1 2.93104 18.4601 -9.09608 9
772 1 7.78983 -2.99775 -2.05781 21
773 1 -4.90423 -5.81239 -18.8442 9
774 1 -5.26582 -5.20097 -4.78568 19
775 1 14.0119 6.33906 -6.01258 18
776 1 13.7184 -6.62902 -2.29626 9
777 1 -4.48794 11.16 9.6451 18
778 1 9.76927 -6.70826 2.28328 20
779 1 12.573 -4.03316 -1.24057 20
780 1 15.222 -2.18101 9.58555 12
781 1 0.510271 12.3686 3.8872 22
782 1 -10.7517 4.98805 8.87416 18
783 1 -13.5351 9.77602 6.46749 16
784 1 -2.71293 -12.5086 5.2291 13
785 1 7.28822 2.84349 1.83957 20
786 1 7.14447 10.5259 11.4468 20
787 1 -18.0663 0.973829 -2.3438 8
788 1 10.1211 -4.5081 -7.25895 16
789 1 -11.2792 10.9917 -9.53376 13
790 1 0.937035 8.62035 -1.04891 20
791 1 3.4579 -14.4372 4.24277 8
792 1 7.1476 -1.18653 13.2989 14
793 1 -2.04224 12.518 1.98827 20
794 1 4.80316 -5.49404 5.70774 19
795 1 -6.25057 -2.44246 -3.27663 21
796 1 2.31342 2.74488 11.384 24
797 1 -14.4463 -3.69494 -3.60558 16
798 1 1.58415 12.7428 12.9686 13
799 1 4.46453 12.2265 -1.02016 21
800 1 -10.3141 -9.04722 3.32886 18
801 1 -1.99462 -17.8338 3.77364 5
802 1 11.777 -5.46094 7.93793 14
803 1 14.2172 -3.55614 6.51737 13
804 1 6.12697 10.3665 5.3985 21
805 1 -3.34974 8.03132 -5.17862 20
806 1 -1.16871 -7.26648 -10.6431 21
807 1 -1.05569 4.82923 -11.5484 21
808 1 -3.46322 0.772841 11.3422 15
809 1 -2.45941 18.1517 0.459227 14
810 1 14.6078 3.19662 2.91353 21
811 1 4.09917 9.49893 -10.6637 23
812 1 -5.38958 10.7397 12.9555 14
813 1 6.48873 12.3292 8.54677 20
814 1 8.29342 -1.65239 -15.2499 22
815 1 -5.00062 -8.41588 -3.24915 17
816 1 -2.76082 -0.233877 -9.85332 21
817 1 14.861 2.14113 6.13234 19
818 1 3.05083 0.721144 -14.5102 22
819 1 -1.68809 11.8089 12.1577 19
820 1 9.92391 -11.9867 -10.9676 10
821 1 2.92833 7.65349 -19.5202 10
822 1 -2.92674 -9.15609 -5.6804 20
823 1 11.9469 5.52252 -11.4897 17
824 1 14.317 -1.56881 -2.38054 19
825 1 2.30078 -3.9443 8.62538 19
826 1 -2.99971 -9.40042 -10.7987 17
827 1 6.3386 12.737 -5.42902 17
828 1 -0.0310719 -8.35295 3.89209 22
829 1 -15.6295 6.45513 2.68608 16
830 1 13.1595 3.03533 -5.35761 19
831 1 18.45 5.92605 1.93223 8
832 1 0.756733 -2.6081 -17.2438 18
833 1 -13.1606 16.2731 3.65324 6
834 1 15.9733 10.2035 5.29054 8
835 1 10.645 10.914 -10.1172 19
836 1 5.42723 2.56886 -16.4835 23
837 1 10.2945 -4.62232 -3.51773 21
838 1 -12.111 2.57367 -1.7108 23
839 1 13.3771 6.3542 1.75777 23
840 1 -12.6684 -7.84465 -0.170567 15
841 1 -11.0938 8.86225 -12.6465 13
842 1 5.44132 6.80347 9.29943 19
843 1 -10.5875 1.67271 -7.07327 21
844 1 -14.1205 7.27195 4.50025 20
845 1 -1.84575 7.43159 -9.56096 19
846 1 11.3538 -5.26341 -10.9806 16
847 1 -12.1317 -8.51135 -6.35682 14
848 1 12.6864 -7.1601 -5.43271 13
849 1 -14.028 4.78774 0.988495 19
850 1 -8.36117 -3.81088 -5.75319 23
851 1 10.11 8.87142 6.48924 16
852 1 -5.38822 -8.49566 2.94777 20
853 1 11.4635 2.93504 12.4367 19
854 1 15.1705 -0.720222 6.69327 13
855 1 14.0087 -0.129283 3.9981 17
856 1 -10.9272 5.23498 -0.688926 19
857 1 1.20469 14.6962 10.0682 15
858 1 7.05769 6.24326 -10.4234 18
859 1 -1.83723 -5.89925 -19.0579 13
860 1 -7.72352 13.885 3.77006 17
861 1 -13.3551 -9.90899 5.35021 12
862 1 9.29759 15.091 -6.68854 15
863 1 -2.34536 6.18048 9.81075 21
864 1 14.5356 -1.78571 -6.79202 16
865 1 8.96218 -7.4047 8.95754 15
866 1 -1.41747 11.5774 -13.5308 16
867 1 3.99271 11.3932 -13.0978 20
868 1 -6.04394 2.53546 10.8133 17
869 1 15.964 6.72949 4.08196 16
870 1 -2.64519 -2.55262 -12.4165 18
871 1 10.237 10.8564 -1.91441 19