ITEM: TIMESTEP
10026000
ITEM: NUMBER OF ATOMS
500
ITEM: BOX BOUNDS pp pp pp
-30.0 30.0
-30.0 30.0
-30.0 30.0
ITEM: ATOMS id type x y z Coordination
1 1 -3.21544 2.73471 -4.19962 24
2 1 5.42382 -2.93815 7.05297 18
3 1 5.79774 6.36388 7.54525 13
4 1 -0.910296 -3.47157 7.29016 23
5 1 -9.48062 -0.48284 -0.0625008 15
6 1 -4.20743 -1.06413 -6.81075 20
7 1 3.21162 -1.75695 9.49118 19
8 1 2.29958 -2.81369 -5.98459 22
9 1 -9.14979 -0.0703838 -3.29909 13
10 1 -0.801343 3.26181 -9.29352 15
11 1 6.01002 -7.02656 -5.5544 12
12 1 8.42486 -1.73652 6.76252 12
13 1 1.67944 7.33829 -3.81705 20
14 1 3.27372 8.75638 6.73864 14
15 1 3.43716 6.10429 9.16392 14
16 1 -9.67999 -0.887423 3.21481 13
17 1 -7.78161 -2.76012 1.30415 20
18 1 5.04884 -0.184723 -1.0649 23
19 1 3.32934 3.94776 6.83971 23
20 1 -8.806 -5.83345 -0.690493 13
21 1 -0.632646 -4.9883 -10.6487 10
22 1 4.54043 -0.497506 -5.85056 25
23 1 6.8192 -1.21946 -4.13427 20
24 1 5.74535 -5.35404 1.93753 20
25 1 0.327408 9.42813 5.62759 12
26 1 5.8283 -1.27224 4.40701 25
27 1 2.93461 4.6197 1.36064 23
28 1 -0.0772121 1.504 -4.12733 23
29 1 4.35231 -7.46638 -8.66109 9
30 1 0.727394 8.17317 8.75939 11
31 1 3.88085 -5.61399 6.64441 15
32 1 -5.27191 5.20769 2.54974 19
33 1 -2.77991 4.01828 3.45774 23
34 1 6.15977 7.139 -6.41532 13
35 1 7.74737 7.42895 -3.13136 12
36 1 -5.23127 6.56178 -7.78143 12
37 1 1.55411 -4.85001 -3.69016 23
38 1 -4.57039 4.37488 -9.68667 12
39 1 -1.40808 2.85197 -1.50361 21
40 1 -1.15711 7.7909 -2.20797 22
41 1 -2.14392 9.7115 -5.91725 11
42 1 -7.21546 4.2783 0.221172 18
43 1 1.48379 3.9957 9.02886 16
44 1 -4.59783 2.14574 -6.71422 21
45 1 -8.4122 -4.20102 4.13964 13
46 1 -2.33561 1.27759 1.3838 23
47 1 0.656329 0.209183 1.81693 23
48 1 -5.59386 0.296841 -4.40532 21
49 1 6.99357 -6.64589 -0.729203 15
50 1 -5.35222 0.022145 5.7545 21
51 1 -7.8704 1.03418 -6.59443 15
52 1 0.825656 -8.37179 1.25561 19
53 1 7.08846 3.70565 -6.02568 16
54 1 -4.58172 -3.82668 1.65189 22
55 1 -4.7755 -1.91451 -9.56715 13
56 1 1.47579 5.40725 -8.97693 12
57 1 -0.327398 3.43486 1.49702 22
58 1 -1.4095 2.17914 8.71643 20
59 1 -4.73127 1.74831 3.08603 23
60 1 1.57638 -5.86055 -8.59021 18
61 1 0.204198 10.272 -0.881126 13
62 1 -8.22924 1.74584 1.99632 17
63 1 4.49297 5.3614 4.41757 21
64 1 0.50886 -0.751341 9.16729 21
65 1 0.809953 -8.80495 -6.61517 13
66 1 5.77004 1.39376 -8.13731 15
67 1 -7.55698 -8.89339 0.346321 11
68 1 -3.33508 -6.56866 2.73587 21
69 1 2.05488 -2.37719 6.46973 21
70 1 -0.553089 -7.3973 3.93241 19
71 1 6.4435 5.7068 -0.704487 21
72 1 -5.31813 -5.73839 4.51143 19
73 1 -5.44548 -8.53056 2.57059 16
74 1 -3.34774 -5.46714 -2.31447 20
75 1 1.50256 -3.18432 1.889 23
76 1 -5.06691 -3.11131 -4.1948 22
77 1 0.806602 3.22277 -6.73909 25
78 1 0.810061 -4.91437 4.59427 23
79 1 -3.83568 -2.62039 6.7535 23
80 1 -8.49317 1.50478 5.23044 16
81 1 4.27834 -7.75953 0.44181 14
82 1 -2.52436 -4.23392 4.29829 23
83 1 -0.43299 3.93415 6.09009 20
84 1 -6.9298 -0.536473 2.82492 22
85 1 -3.58096 7.55064 2.98323 15
86 1 -4.22574 5.68374 5.59636 13
87 1 1.27067 1.34882 6.77653 20
88 1 -2.42622 6.49766 8.74736 12
89 1 -5.8806 -4.14758 -6.7179 16
90 1 4.40039 -2.05906 1.45006 24
91 1 -5.99259 2.86948 -2.5824 23
92 1 1.16933 -2.79818 -8.7368 22
93 1 6.0682 -0.215334 9.03402 13
94 1 -4.01627 3.5701 0.381215 22
95 1 -2.537 -1.3431 9.54731 19
96 1 0.411329 0.328821 -8.94302 18
97 1 -8.67756 -3.15112 -2.08727 15
98 1 -2.51084 -9.88999 2.6346 14
99 1 -3.50927 -2.31316 -1.53917 20
100 1 3.58241 1.50263 1.0537 21
101 1 -3.35862 2.52918 6.18138 21
102 1 2.34515 2.72659 3.71895 25
103 1 -2.12377 6.22627 0.613915 24
104 1 0.450564 -10.0965 -3.64712 14
105 1 2.38392 7.87711 3.5885 22
106 1 5.98507 2.11726 -3.61242 20
107 1 -8.42061 3.58071 -4.92653 12
108 1 -7.00712 5.53912 -2.60442 12
109 1 -4.00774 -10.0437 -0.123062 13
110 1 1.35394 -4.22987 9.17687 19
111 1 -5.27683 5.00208 -5.28007 18
112 1 -5.76357 -1.40974 8.94403 13
113 1 3.12786 0.830042 -3.38594 21
114 1 -6.13988 3.77672 5.8983 15
115 1 -0.261147 -5.03995 -6.27242 23
116 1 -1.17592 0.716909 11.6145 16
117 1 -1.63553 -5.04987 9.87966 14
118 1 2.4533 -7.9994 -3.58177 18
119 1 4.58358 3.10309 -1.46259 23
120 1 -1.79616 -0.0124744 6.90682 23
121 1 4.49174 -4.30168 -8.23966 17
122 1 0.691545 5.36471 -1.0345 21
123 1 4.13556 -4.72895 9.11758 11
124 1 -0.75295 -10.75 -0.336279 13
125 1 -5.05194 -2.56476 3.95051 22
126 1 3.84994 0.0570103 6.87758 23
127 1 7.73696 3.20684 0.190347 19
128 1 3.11081 6.10461 -6.31973 19
129 1 0.0460703 7.15651 -6.53278 16
130 1 3.19737 9.94594 0.66706 13
131 1 2.62394 2.2838 -8.75456 15
132 1 1.92577 -3.71939 11.954 9
133 1 2.2767 3.9039 -3.71119 21
134 1 2.84858 -6.32749 2.39616 21
135 1 -4.61137 -6.86779 0.0983485 20
136 1 -7.42017 3.97447 -7.76993 13
137 1 5.49617 3.80474 1.87585 21
138 1 8.70794 -2.17386 -1.59504 13
139 1 -1.72147 1.21515 -6.82123 20
140 1 -2.24986 10.7381 -3.23884 13
141 1 3.02939 -6.32094 -6.01923 21
142 1 2.97591 -4.32713 -0.555095 22
143 1 -7.86387 -1.87541 5.86701 15
144 1 2.47812 -9.85453 -1.22216 13
145 1 -1.38193 -7.33105 -7.98518 11
146 1 3.67529 6.52766 -1.16096 20
147 1 5.2642 -6.82195 4.21201 11
148 1 3.79906 -2.36852 -3.06331 23
149 1 -6.20478 -4.50213 -0.982531 20
150 1 -2.49064 -9.38527 -5.59157 12
151 1 1.17908 3.19904 11.7226 11
152 1 -2.168 3.82702 11.3134 12
153 1 3.62167 -0.847196 -8.95253 18
154 1 -6.34634 1.60979 0.276853 22
155 1 4.67284 8.30161 -3.97497 17
156 1 6.94708 -1.76444 -7.53452 12
157 1 2.77019 -0.71503 3.57162 20
158 1 -2.46017 4.76895 -6.89503 22
159 1 -8.10962 4.69638 3.58319 9
160 1 -0.435889 -2.70095 11.281 14
161 1 6.34209 0.553124 1.79342 24
162 1 -6.27823 1.40487 -9.33663 15
163 1 7.0643 -4.09802 4.60424 18
164 1 -1.57842 -7.96374 -0.409348 19
165 1 5.85892 3.24431 8.61731 13
166 1 -3.34374 -8.10837 5.49447 12
167 1 1.34915 2.07493 -1.01919 20
168 1 -0.171124 -1.80746 4.4419 21
169 1 7.35284 -2.62345 1.56765 22
170 1 8.88502 -0.185942 3.87967 16
171 1 4.94929 -5.61775 -3.17156 20
172 1 7.11814 4.47476 5.61432 16
173 1 -3.07857 -6.03706 -5.43729 17
174 1 5.02305 1.93022 4.36375 21
175 1 -3.51994 5.05608 -2.32098 21
176 1 -2.74514 7.04294 -5.08205 20
177 1 -2.77304 -0.70722 3.98069 23
178 1 -1.57324 -3.81229 -3.69009 23
179 1 -3.12704 -9.1248 -2.85533 15
180 1 7.88311 5.57693 2.71661 14
181 1 0.101834 6.40664 10.7269 11
182 1 -5.43843 7.31206 0.0233503 14
183 1 4.89358 4.61828 -8.3207 13
184 1 3.44821 1.36436 9.45353 17
185 1 -6.37862 -1.29006 -1.69735 24
186 1 -3.12836 1.14711 -9.69651 15
187 1 0.30044 5.60727 3.24746 21
188 1 1.42532 -6.56917 -0.787853 22
189 1 5.83395 8.92423 -0.999888 13
190 1 -0.656427 -5.52889 1.51867 20
191 1 -0.601641 8.58544 2.21864 17
192 1 -4.54648 -0.721463 0.824519 21
193 1 5.30633 -3.70615 -5.70716 22
194 1 2.11052 -0.998426 -0.602307 24
195 1 1.91459 -7.8524 4.62382 12
196 1 1.62683 0.254755 -6.11474 22
197 1 0.837073 -1.55145 -3.37338 20
198 1 -4.20419 3.91065 8.66347 14
199 1 10.1572 -2.60299 3.32555 11
200 1 0.789004 10.2743 -4.00522 13
201 1 1.85235 -0.196547 11.7477 14
202 1 8.1753 1.0 -5.88555 13
203 1 -4.10737 1.38475 9.44271 16
204 1 -4.2906 -3.80478 9.57602 13
205 1 -2.90855 9.34306 -0.0675726 15
206 1 5.16218 7.26206 1.9483 19
207 1 -7.13089 -5.93459 1.92366 18
208 1 8.21285 4.56121 -2.98566 13
209 1 -5.46867 -7.5388 -5.51804 9
210 1 7.24349 1.11415 6.41653 17
211 1 8.84342 -4.76809 1.16157 11
212 1 4.12026 2.76532 -5.9086 23
213 1 3.75228 10.1966 4.04044 10
214 1 -7.91817 -1.83737 -5.00029 17
215 1 -0.542724 4.81911 -4.16416 22
216 1 2.80376 9.06689 -5.81289 12
217 1 -7.21954 -1.56177 -8.4178 12
218 1 3.12623 -4.38697 -10.545 9
219 1 -0.551643 -7.15773 -3.34991 25
220 1 -0.899803 -0.306661 -1.01977 22
221 1 -3.49773 -5.72076 7.35227 17
222 1 6.00641 -3.57473 -1.18536 22
223 1 -9.02664 2.5601 -1.58534 13
224 1 -1.8931 6.90865 -8.35474 14
225 1 -6.2889 -7.5443 -2.08706 16
226 1 3.91051 -3.78535 3.98296 23
227 1 -0.40712 -3.52684 -0.95964 23
228 1 -1.67619 -1.72848 -10.5596 12
229 1 -1.51354 6.88839 5.12859 18
230 1 -6.9692 1.55463 8.34104 12
231 1 -2.67767 -0.553918 -4.08631 23
232 1 8.26396 2.33296 3.19633 16
233 1 9.46696 0.225088 0.848237 14
234 1 -0.297377 -6.58418 7.09586 15
235 1 -2.50028 -4.13351 -8.17621 20
236 1 5.29655 5.24546 -3.94997 21
237 1 6.24441 7.90168 4.94302 14
238 1 3.38697 11.027 -2.40943 11
239 1 7.97391 1.14423 -1.9429 16
240 1 -1.73905 -2.28395 1.53375 23
241 1 -0.54384 1.6684 4.34861 20
242 1 7.71769 -4.82818 -3.63813 13
243 1 -0.985426 -1.89255 -6.76887 22
244 1 1.67993 6.35886 6.18641 22
245 1 -3.81984 0.818653 -1.54056 23
246 1 1.04467 7.48683 0.511796 17
247 1 -6.55619 -4.45593 7.3283 12
248 1 5.46347 -8.93254 -2.73627 11
249 1 -6.92577 -5.30724 -3.95229 18
250 1 -4.00458 8.24594 -2.73853 14
251 2 -8.97047 -0.419287 4.87332 15
252 2 8.24059 1.31646 4.81705 17
253 2 -2.06164 -1.98229 7.60307 22
254 2 -2.73332 -2.46803 -7.33081 21
255 2 -8.16916 2.61382 0.0979633 15
256 2 -4.28412 -4.20459 3.52042 20
257 2 1.82948 6.54702 10.084 13
258 2 5.30345 0.330137 5.63676 22
259 2 -2.21825 -3.81298 -1.88302 19
260 2 -2.77894 6.64008 6.73705 13
261 2 -3.07875 4.97675 -0.361296 22
262 2 3.33778 -0.615776 -2.06021 22
263 2 6.52223 -5.30007 -2.15518 16
264 2 -2.10898 1.27045 -4.84646 24
265 2 -0.320271 -6.46185 -9.20499 13
266 2 -1.13311 -1.96497 -4.32585 24
267 2 -5.3395 -2.98635 -2.14438 22
268 2 -0.592226 8.3601 4.36891 14
269 2 8.22206 -3.63794 2.9189 15
270 2 2.88386 -6.22389 -4.07616 22
271 2 -1.00212 -0.542748 1.05821 23
272 2 7.10221 4.7402 1.1664 17
273 2 1.96252 9.57927 4.56955 12
274 2 5.40029 7.30827 -0.0645191 17
275 2 4.50721 8.03006 -6.04389 14
276 2 3.26206 -2.83284 -9.45075 15
277 2 -7.4978 2.22841 -8.05873 14
278 2 -2.07031 -7.12823 6.70446 15
279 2 -5.07636 -6.13442 -1.68155 20
280 2 1.19954 -6.7772 -6.78054 19
281 2 -2.41955 -9.70166 -1.11472 16
282 2 4.98507 -1.87941 -4.43287 23
283 2 4.27545 7.51158 7.83006 14
284 2 3.11094 -3.66212 10.3632 13
285 2 -7.80393 -3.79899 5.91854 11
286 2 6.15205 2.22183 2.81824 24
287 2 -2.00933 -8.52781 3.96148 14
288 2 2.34405 1.94347 -6.81921 23
289 2 -0.397418 -5.50124 -4.33971 20
290 2 -7.77652 -4.48817 0.421363 18
291 2 -6.982 -7.90929 1.85201 14
292 2 -5.25387 -8.65192 -0.422249 15
293 2 -0.419636 6.99361 -0.63176 19
294 2 2.95738 -1.22722 -7.00087 21
295 2 8.41628 1.768 1.27352 16
296 2 5.99648 5.25717 -6.95944 13
297 2 -2.93461 1.89881 -0.324507 24
298 2 -3.81825 3.6912 -5.79309 23
299 2 4.11378 3.53378 5.05535 23
300 2 -1.70806 9.90811 -1.37461 16
301 2 -3.23893 5.9328 3.9935 17
302 2 2.98196 6.52103 4.72387 24
303 2 3.05824 9.79939 -4.11 12
304 2 -0.959326 10.6246 -4.73041 9
305 2 -0.199171 3.2984 7.96809 21
306 2 -0.20884 0.507264 7.84019 20
307 2 0.274867 -4.41087 10.9688 12
308 2 1.26541 -4.45647 -10.1873 11
309 2 -0.787747 -9.82216 1.4203 14
310 2 0.513596 -3.35433 -6.93567 24
311 2 -2.48479 -0.693911 -2.02257 25
312 2 -0.291517 1.28563 -1.95416 22
313 2 -6.908 -5.23865 3.68057 18
314 2 5.5074 -4.8704 3.85209 20
315 2 7.83601 4.2662 3.91885 16
316 2 -5.87598 0.856877 -6.18068 22
317 2 3.7112 -5.81351 -9.12126 12
318 2 5.98045 1.5149 -1.58717 21
319 2 -2.01719 -5.6899 -6.95946 18
320 2 3.49683 -4.23749 -6.46857 24
321 2 4.38345 2.65688 -8.37497 16
322 2 -5.7312 -1.85373 2.02307 21
323 2 -0.10697 -1.54337 -9.55571 16
324 2 1.1781 -4.71209 -1.77813 22
325 2 3.06648 2.01979 7.56799 21
326 2 -1.21051 -8.78836 -6.85052 13
327 2 0.988164 3.49135 -9.06702 12
328 2 2.12801 -0.414177 6.0542 22
329 2 -7.8233 -7.46212 -0.893874 14
330 2 -4.69493 1.70305 4.8657 21
331 2 -1.56902 5.02095 1.99866 24
332 2 -9.0323 -2.68177 3.0197 15
333 2 -8.25951 -1.84087 -0.492953 17
334 2 -8.098 3.82188 -2.63535 12
335 2 0.548995 -6.6256 5.36053 16
336 2 8.53272 -3.40073 -0.156551 17
337 2 -0.156344 -0.168575 -7.05726 21
338 2 1.96797 5.14295 7.70058 21
339 2 4.50826 8.8769 5.28384 15
340 2 -0.161125 4.48669 11.277 14
341 2 -6.13262 4.98415 4.41185 15
342 2 1.3124 -1.73783 3.19807 21
343 2 -5.98065 -0.54008 -9.49118 13
344 2 2.15221 -3.0009 -4.02532 25
345 2 8.34134 2.94713 -1.718 15
346 2 -9.33773 0.06336 1.62547 14
347 2 -6.16041 5.18635 -8.6343 12
348 2 -1.21505 1.29312 -9.51351 14
349 2 -6.44147 1.20026 2.23454 22
350 2 2.71997 -2.7229 0.386623 24
351 2 2.20943 6.01908 0.219343 19
352 2 6.15515 -8.09316 -4.18493 12
353 2 2.43748 -9.01809 0.5772 15
354 2 -4.47433 8.72314 -1.01496 12
355 2 -0.150884 -6.8662 0.375819 21
356 2 1.10155 -7.50549 2.88548 17
357 2 6.15829 6.1016 5.65199 15
358 2 0.267902 8.46493 -3.31092 22
359 2 -4.19603 -0.580109 9.77096 16
360 2 -5.30412 -5.49155 6.38047 16
361 2 1.59265 -2.27076 8.4653 23
362 2 -2.28182 -3.21716 10.154 17
363 2 -1.2474 5.76954 -5.7032 20
364 2 1.87401 0.789114 0.413107 23
365 2 7.98432 -2.86736 -3.22912 13
366 2 2.3655 -0.0683776 9.97364 20
367 2 -8.25392 -4.99299 -2.50612 13
368 2 7.76112 6.14408 -1.90324 13
369 2 6.87388 7.15272 3.10682 13
370 2 6.18053 -5.15327 -4.83255 16
371 2 -4.61152 -7.51777 4.04886 18
372 2 1.28366 8.30163 6.97418 16
373 2 0.459721 3.33744 -4.81537 21
374 2 -4.72856 1.7141 -3.38563 21
375 2 0.57509 1.22424 11.9595 13
376 2 1.57073 3.97481 2.63018 22
377 2 3.08735 5.38316 -8.05536 16
378 2 5.64289 -3.62373 0.973265 22
379 2 2.50809 2.93302 10.291 16
380 2 5.31253 -4.68483 7.69201 11
381 2 -0.214822 -3.61574 1.16711 22
382 2 -3.59155 -0.073011 2.28711 24
383 2 -5.47176 -5.61787 1.1359 22
384 2 -5.41409 4.84043 -3.25691 19
385 2 -4.61445 2.42367 -9.31296 16
386 2 -5.34093 0.0882945 -0.776341 22
387 2 -0.393328 -5.13622 8.40359 16
388 2 4.35131 10.1315 -0.9837 12
389 2 -5.58542 -2.6297 -7.90613 16
390 2 9.92895 -0.83828 2.38416 13
391 2 -3.34539 9.35089 -4.16934 12
392 2 6.8321 -2.58415 5.73124 17
393 2 -5.50862 -3.11215 8.28689 16
394 2 -6.66015 -7.15864 -4.00946 9
395 2 1.242 11.0069 -2.3075 12
396 2 -4.91428 6.98709 1.668 16
397 2 4.20696 3.28198 0.379237 22
398 2 -0.928998 -0.904621 10.5782 17
399 2 -7.17289 4.82133 2.08152 15
400 2 -2.10015 3.76652 -3.12869 21
401 2 -0.848624 7.34122 9.29638 9
402 2 -8.60322 1.67442 -4.77942 16
403 2 4.99342 4.93054 -1.97843 23
404 2 -3.01149 4.84102 9.86485 13
405 2 3.43652 1.25728 3.10074 22
406 2 2.9032 2.58368 -2.34663 23
407 2 1.37029 0.25326 -4.15931 24
408 2 -3.34409 -0.839582 -10.0717 14
409 2 1.6571 7.62667 -5.82302 18
410 2 -2.18775 -7.12491 -2.24405 19
411 2 -1.14878 3.31085 -7.41518 23
412 2 4.26907 -1.9083 3.5125 23
413 2 -1.86068 3.21388 5.05838 23
414 2 6.64887 6.79954 -4.48243 15
415 2 -1.60839 -5.74183 3.07487 21
416 2 4.55254 1.12487 -4.77224 27
417 2 3.77706 -3.56569 6.09123 23
418 2 -5.64767 2.97521 -0.725101 21
419 2 -0.649643 1.73928 2.47847 18
420 2 -5.53176 2.68489 9.19399 12
421 2 -6.88125 -3.50353 -4.95741 17
422 2 1.12655 -7.58965 -2.29135 19
423 2 0.886607 7.2852 2.56778 20
424 2 -8.47453 2.82601 3.86316 14
425 2 -6.50769 -1.31089 4.68285 21
426 2 3.64018 -9.38017 -2.57758 12
427 2 4.84496 4.96221 8.48363 16
428 2 -4.42407 6.56752 -6.07427 16
429 2 -2.83582 6.82233 -3.12222 19
430 2 6.80235 1.96588 -6.77405 15
431 2 0.527446 -10.2791 -1.61472 15
432 2 7.39573 -0.477728 7.66942 13
433 2 5.39785 1.47352 9.25802 14
434 2 1.01328 5.38824 -3.07877 21
435 2 -7.93329 -1.0663 -6.68192 16
436 2 -1.77189 -3.72771 -10.0655 13
437 2 -3.46558 -4.27827 -4.32844 22
438 2 0.954385 9.55616 0.659753 15
439 2 0.0254925 6.46176 -8.30837 14
440 2 -6.97889 4.44723 -5.8209 16
441 2 -4.47346 4.12608 6.8636 17
442 2 0.591735 -1.87832 -1.43636 23
443 2 3.62962 4.47796 -5.07295 25
444 2 7.51329 -0.773875 -5.9307 13
445 2 -3.54022 -2.61271 0.522214 20
446 2 -6.71244 6.04034 -0.872473 16
447 2 -3.41227 5.60316 -8.74886 15
448 2 5.91728 -1.7699 -1.29804 23
449 2 -3.50794 -5.4181 9.08979 13
450 2 -6.52352 -0.349941 7.58615 16
451 2 -4.21268 -1.3979 -4.79598 23
452 2 -7.28315 2.36978 6.48579 13
453 2 4.88352 -0.197764 0.873614 19
454 2 0.877169 2.44764 5.27919 19
455 2 -9.58643 0.817653 -1.51932 13
456 2 -3.10983 1.45859 7.67778 21
457 2 -2.87452 -7.05855 0.88348 22
458 2 9.47651 -1.73936 5.10031 12
459 2 4.70321 -7.27984 -6.89654 12
460 2 0.0636797 3.68276 -0.359357 19
461 2 -3.44433 0.646706 -7.55378 22
462 2 -4.00934 -1.34656 5.49973 22
463 2 2.58845 -5.48354 8.27278 14
464 2 6.81097 3.97903 -4.1365 21
465 2 2.32976 0.323057 -9.31554 15
466 2 4.74705 -1.44136 8.30751 18
467 2 -4.13497 3.31357 2.23936 22
468 2 1.32002 -1.99422 12.0151 13
469 2 1.31855 -9.06361 -4.95954 14
470 2 -5.00665 -5.76938 -6.06084 12
471 2 -2.61963 -4.14551 6.27973 23
472 2 6.04532 -3.35371 -7.59144 13
473 2 4.79132 -7.13896 2.13554 16
474 2 7.17807 -0.894172 2.8254 22
475 2 2.17849 -4.68233 3.17698 26
476 2 -2.39926 8.34034 1.56372 17
477 2 5.46521 -0.436259 -7.61013 17
478 2 -9.14275 -2.01577 -3.4986 13
479 2 -1.26296 -0.07174 4.98529 22
480 2 -6.92676 -0.738795 -3.42336 20
481 2 3.62628 -6.98575 4.95635 14
482 2 3.53202 7.40061 -2.81978 23
483 2 8.64383 -0.333832 -0.77942 17
484 2 6.49001 9.05392 -2.87296 12
485 2 0.427375 -3.31132 5.61978 20
486 2 2.93839 -6.13362 0.466571 19
487 2 4.11234 -4.3187 -2.09911 21
488 2 5.67658 -7.77136 -1.13129 14
489 2 -3.69972 -8.14278 -4.67223 15
490 2 4.61271 5.46499 2.44385 21
491 2 3.76424 9.42499 2.3837 15
492 2 -4.33848 -9.87181 1.79799 13
493 2 -2.46351 2.00923 10.4523 15
494 2 0.0904191 5.83318 5.16318 19
495 2 6.79525 3.02023 6.97618 16
496 2 7.59546 0.733098 -3.92436 19
497 2 -1.80489 -2.41383 3.54619 23
498 2 -1.80822 8.17235 -6.94318 13
499 2 -1.50747 -9.88919 -4.0386 13
500 2 7.24447 -5.83592 0.963612 14
