ITEM: TIMESTEP
10075000
ITEM: NUMBER OF ATOMS
500
ITEM: BOX BOUNDS pp pp pp
-30.0 30.0
-30.0 30.0
-30.0 30.0
ITEM: ATOMS id type x y z Coordination
1 1 -3.12761 2.30402 -3.90542 23
2 1 5.25978 -3.24632 7.11049 19
3 1 6.21705 6.83274 6.998 12
4 1 -1.15995 -3.54216 7.0571 23
5 1 -9.21181 -0.398645 0.259542 18
6 1 -3.82596 -1.94452 -6.66635 22
7 1 3.24124 -1.98701 9.67473 19
8 1 2.41211 -3.16138 -6.15792 22
9 1 -8.45164 0.0962484 -2.95372 17
10 1 -0.562538 3.00802 -9.00821 16
11 1 6.67815 -6.88926 -5.39872 11
12 1 8.03517 -1.90383 6.60431 14
13 1 1.51218 7.09033 -3.69483 21
14 1 3.84142 9.1288 6.31118 13
15 1 3.54624 6.21572 8.73711 12
16 1 -9.91559 -0.994448 3.63961 12
17 1 -8.47261 -3.0766 1.46394 19
18 1 5.31315 0.0238848 -0.952268 20
19 1 3.8832 3.63919 6.92069 22
20 1 -9.30018 -5.72726 -0.734545 13
21 1 0.125711 -5.28616 -10.6349 10
22 1 4.79541 -0.694902 -5.79826 24
23 1 7.09846 -1.34606 -3.40901 20
24 1 5.52089 -5.42903 1.61047 20
25 1 0.918721 9.24147 5.66491 12
26 1 5.61161 -1.02122 4.31452 26
27 1 2.97638 4.90461 1.15665 21
28 1 -0.246191 1.54529 -4.10549 24
29 1 5.40466 -5.535 -8.45415 11
30 1 0.844342 7.90991 8.97653 12
31 1 3.67778 -5.60685 7.13913 14
32 1 -5.32699 5.16645 2.69771 19
33 1 -2.70809 4.31307 3.79865 24
34 1 5.81324 6.98514 -6.61509 12
35 1 7.857 7.35971 -3.60452 11
36 1 -4.75263 6.05408 -7.37827 13
37 1 1.72995 -4.64432 -3.56649 22
38 1 -4.4894 3.71025 -9.04724 13
39 1 -1.64482 2.87381 -1.35017 23
40 1 -1.21659 7.09167 -2.17809 22
41 1 -1.91003 9.86405 -5.99679 10
42 1 -7.17672 4.50509 0.104732 17
43 1 1.34768 4.62526 8.78917 20
44 1 -4.28443 1.36587 -6.76845 22
45 1 -8.53528 -4.10082 4.45091 12
46 1 -2.49879 1.11914 1.5908 21
47 1 0.251402 0.21943 1.44824 21
48 1 -5.47285 0.0615585 -4.34218 22
49 1 7.10249 -6.64509 -0.909097 12
50 1 -5.94505 0.453941 5.7955 22
51 1 -7.91218 1.32407 -6.21659 14
52 1 0.548948 -8.0976 1.20348 18
53 1 6.67868 3.81541 -6.31903 15
54 1 -4.98289 -3.43467 1.74073 21
55 1 -5.11364 -2.20808 -9.50907 11
56 1 1.63131 5.35744 -9.19915 10
57 1 -0.0508559 3.56096 1.61947 20
58 1 -1.30157 2.22275 8.78629 22
59 1 -5.14785 2.08805 3.11696 25
60 1 2.29363 -6.41928 -8.73582 16
61 1 0.468639 10.7915 -1.07584 12
62 1 -9.00118 2.37874 2.18236 16
63 1 4.42785 5.604 4.34469 24
64 1 0.508979 -0.715326 9.21567 23
65 1 1.25751 -8.60361 -6.75832 12
66 1 5.99937 1.28533 -7.96769 16
67 1 -7.43434 -8.80659 0.282823 11
68 1 -3.42715 -6.31215 2.75574 20
69 1 2.03061 -2.54874 6.75743 21
70 1 -0.701535 -7.6461 3.92875 18
71 1 6.58002 5.86114 -0.940392 19
72 1 -5.62501 -5.6732 4.5928 17
73 1 -5.2483 -8.68927 2.58013 14
74 1 -3.94181 -6.3449 -2.91196 23
75 1 1.47501 -2.91859 1.98238 22
76 1 -4.50348 -2.93056 -3.43415 21
77 1 1.08884 3.21437 -6.68424 20
78 1 0.805327 -4.85253 4.93515 22
79 1 -3.89759 -2.54229 6.78448 21
80 1 -8.76689 1.86122 5.35346 16
81 1 4.00127 -7.65909 0.648139 17
82 1 -2.60868 -4.00021 4.02566 22
83 1 -0.412313 3.90267 6.14955 22
84 1 -7.42381 -0.23219 2.81842 21
85 1 -3.26135 7.28986 2.85883 15
86 1 -3.79675 5.83202 6.149 16
87 1 1.41553 1.17216 6.58152 20
88 1 -1.66098 5.72507 8.79576 17
89 1 -6.37328 -4.1026 -6.59977 15
90 1 4.61937 -2.01581 1.68738 22
91 1 -6.08033 2.74915 -2.28468 24
92 1 1.23052 -2.53319 -10.3868 12
93 1 6.00743 -0.526132 8.75098 13
94 1 -3.96097 3.48204 0.337678 22
95 1 -2.60572 -1.59335 9.62728 19
96 1 -0.035763 0.195014 -9.20091 18
97 1 -9.07603 -2.74193 -1.72007 15
98 1 -2.28739 -9.90074 2.15808 13
99 1 -3.48959 -2.36928 -1.06648 20
100 1 3.37558 1.31747 1.19967 22
101 1 -3.57126 2.53531 6.30401 22
102 1 2.25833 2.80083 4.01085 22
103 1 -1.6505 5.95512 0.844072 23
104 1 0.537308 -9.90804 -3.91211 13
105 1 2.75874 7.97878 3.30938 21
106 1 6.16401 1.78043 -3.89056 22
107 1 -8.27552 3.49706 -4.21014 11
108 1 -6.84137 5.73067 -2.39755 12
109 1 -4.50613 -9.95142 -0.420776 12
110 1 1.12193 -4.28467 8.86561 19
111 1 -5.27553 4.29622 -4.95756 20
112 1 -5.89598 -1.19394 8.81273 15
113 1 3.11721 0.668784 -3.41844 22
114 1 -6.29137 3.90028 6.08403 15
115 1 -0.025191 -5.91905 -6.29162 22
116 1 -1.4903 0.484963 11.5088 15
117 1 -1.52215 -5.13328 10.0321 12
118 1 2.69432 -7.81766 -3.62375 17
119 1 4.29259 2.96469 -1.62656 22
120 1 -1.78699 -0.102861 7.02428 22
121 1 4.19377 -2.9474 -8.22878 18
122 1 0.71955 5.18059 -1.04989 19
123 1 4.30318 -5.19352 9.96903 8
124 1 -0.989869 -10.3901 -0.724268 15
125 1 -5.96476 -2.26976 4.42165 22
126 1 4.01489 0.0408703 6.8887 23
127 1 8.39923 3.25134 0.134788 16
128 1 3.16756 6.03055 -6.21492 20
129 1 -0.189917 7.38548 -5.84883 18
130 1 3.25056 9.75698 0.50916 15
131 1 2.74295 2.11157 -8.96141 15
132 1 1.71919 -3.90346 11.9357 11
133 1 2.39057 3.82286 -3.80698 21
134 1 2.35673 -6.39907 2.0431 20
135 1 -4.97036 -6.25043 0.392729 21
136 1 -7.61199 4.15108 -7.61284 10
137 1 5.42215 3.82287 1.5897 21
138 1 9.32528 -1.98365 -1.37163 13
139 1 -1.44862 0.764069 -6.67879 23
140 1 -1.26736 9.83362 -3.13859 16
141 1 3.58993 -6.02911 -6.17339 22
142 1 3.16973 -4.12272 -0.593876 20
143 1 -8.31009 -1.20089 6.31704 16
144 1 2.13162 -9.39229 -1.21615 14
145 1 -1.10739 -7.29785 -8.65284 11
146 1 3.88497 6.5827 -1.43512 23
147 1 4.80814 -7.05038 4.18906 12
148 1 3.94429 -2.335 -3.2231 23
149 1 -6.4542 -4.36509 -1.08503 21
150 1 -2.28497 -8.36875 -5.65462 15
151 1 0.816756 2.61601 11.5195 13
152 1 -2.03098 3.6555 11.0484 13
153 1 3.46089 -0.535674 -10.0034 14
154 1 -6.77384 1.37464 0.379652 24
155 1 4.71886 8.01334 -4.05004 19
156 1 6.56963 -1.56434 -8.13379 12
157 1 2.57868 -0.612872 3.83791 22
158 1 -2.21822 4.17008 -6.38337 23
159 1 -7.9125 5.03323 3.62626 11
160 1 -0.768142 -2.89549 11.3907 13
161 1 6.47674 0.606597 2.17547 20
162 1 -6.35255 1.36929 -9.13992 13
163 1 6.90959 -4.07606 4.17981 19
164 1 -1.70686 -6.68402 -0.33157 19
165 1 6.073 3.11292 8.56945 10
166 1 -3.40679 -8.56798 5.21857 13
167 1 1.10998 1.95629 -1.21857 23
168 1 -0.385519 -1.60721 4.39862 21
169 1 7.63751 -2.37372 1.80131 23
170 1 8.77864 -0.40594 3.9104 17
171 1 4.76186 -5.72516 -2.9253 22
172 1 7.16235 4.40849 5.30122 17
173 1 -3.3432 -5.03387 -5.95984 18
174 1 4.8016 2.16578 4.11202 25
175 1 -3.57039 5.02437 -2.25824 22
176 1 -2.80884 6.93227 -4.92794 20
177 1 -3.31068 -0.673702 4.26933 23
178 1 -1.57152 -3.74921 -3.56319 22
179 1 -2.81768 -8.9976 -2.96805 13
180 1 7.85647 5.65637 2.27274 13
181 1 0.31354 6.12499 11.3103 10
182 1 -5.35429 7.5818 0.122376 14
183 1 4.82651 4.71024 -8.54067 13
184 1 3.11389 1.54439 9.60172 17
185 1 -6.5543 -1.35841 -1.21942 23
186 1 -3.09691 0.396508 -9.03652 17
187 1 0.581135 5.67173 3.33761 21
188 1 1.3317 -6.16104 -0.76131 21
189 1 5.76343 9.28981 -1.25112 12
190 1 -0.265505 -5.0727 2.17787 20
191 1 -0.446343 8.20578 2.75014 17
192 1 -4.65012 -0.763963 1.40467 20
193 1 5.9114 -3.80477 -6.15413 20
194 1 2.50058 -1.00511 -0.473071 20
195 1 1.97529 -7.8508 4.93971 11
196 1 1.75595 -0.0518424 -6.35474 21
197 1 1.01327 -1.58042 -3.45008 21
198 1 -4.8578 4.13533 8.84594 14
199 1 9.88481 -2.81634 3.57579 12
200 1 1.31772 11.402 -4.45801 9
201 1 1.74036 -0.503797 12.2303 12
202 1 8.1759 0.548177 -6.05398 11
203 1 -3.92148 1.17914 9.25665 18
204 1 -4.20239 -3.97807 9.70836 13
205 1 -2.50862 9.23148 0.203319 15
206 1 5.21067 7.31607 1.55228 19
207 1 -7.30482 -5.75759 1.97806 18
208 1 7.91385 3.91359 -2.9302 16
209 1 -5.61225 -7.25812 -5.38321 11
210 1 7.1529 1.34563 6.17716 16
211 1 8.85878 -4.84623 1.10212 12
212 1 4.04217 2.32852 -6.25261 25
213 1 4.33579 10.3981 3.64554 9
214 1 -8.98531 -2.24116 -5.40556 10
215 1 -0.601877 4.61044 -4.09755 23
216 1 2.58463 8.93888 -6.17727 13
217 1 -6.57262 -0.936335 -7.28054 17
218 1 3.4423 -4.1227 -10.8353 11
219 1 -0.642717 -6.87965 -3.0812 21
220 1 -0.985202 -0.341776 -1.18932 23
221 1 -3.33125 -5.72911 6.82171 18
222 1 6.49405 -3.52433 -0.847603 19
223 1 -9.36885 2.66919 -1.2567 12
224 1 -1.58589 6.78789 -8.33203 11
225 1 -6.61974 -7.58252 -2.29221 15
226 1 3.67564 -3.81252 4.08136 23
227 1 -0.193539 -3.22144 -0.752494 22
228 1 -1.6199 -2.34407 -10.5631 11
229 1 -1.28672 7.05051 5.56283 16
230 1 -7.11928 1.57354 8.47687 12
231 1 -2.22857 -0.821581 -4.07452 24
232 1 8.19478 2.42967 3.20494 18
233 1 9.75155 0.126186 0.894724 14
234 1 -0.747843 -6.87985 7.15333 14
235 1 -2.09411 -4.34025 -8.14673 16
236 1 5.14611 5.01083 -4.17643 21
237 1 6.69953 8.01994 4.211 13
238 1 3.06043 9.69839 -2.67314 16
239 1 8.03377 0.952994 -1.97816 15
240 1 -1.86147 -2.04657 1.67473 21
241 1 -1.09523 1.75194 4.31964 23
242 1 7.66565 -4.29069 -3.56017 15
243 1 -0.604871 -2.47687 -6.48776 20
244 1 1.68754 6.37294 6.1417 22
245 1 -3.98595 0.597771 -1.40299 24
246 1 1.07944 7.63088 0.260306 19
247 1 -6.73099 -4.33719 7.22064 12
248 1 5.49264 -8.72103 -2.15426 10
249 1 -7.73227 -4.93573 -3.8268 16
250 1 -3.9379 8.59013 -2.84317 14
251 2 -9.32554 0.00178634 5.19413 14
252 2 8.36202 1.42812 4.64281 17
253 2 -2.19349 -1.92621 7.69508 23
254 2 -2.36719 -3.31552 -6.61087 20
255 2 -8.64091 3.02318 0.334517 14
256 2 -4.50854 -4.52362 3.36012 19
257 2 1.79754 6.27385 9.96211 13
258 2 5.42818 0.738471 5.30592 24
259 2 -1.8372 -3.51008 -1.69526 22
260 2 -2.25653 6.30709 7.11882 16
261 2 -2.86675 4.88896 -0.397473 22
262 2 3.66789 -0.710689 -1.95539 23
263 2 6.97457 -5.04807 -1.8924 18
264 2 -1.92613 1.03026 -4.72547 23
265 2 0.602347 -6.79132 -9.62005 12
266 2 -0.755635 -2.01863 -4.44608 26
267 2 -5.31467 -2.81369 -1.72462 22
268 2 -0.496818 8.49557 4.60316 14
269 2 8.31137 -3.88654 2.96459 14
270 2 3.25348 -5.99836 -4.23104 22
271 2 -1.42964 -0.409711 0.725372 22
272 2 7.17123 4.73693 0.629314 17
273 2 2.60006 9.54679 4.65916 12
274 2 5.37949 7.54818 -0.564444 19
275 2 4.10418 7.73225 -6.1955 14
276 2 3.11181 -2.46602 -9.7579 14
277 2 -7.59117 2.29164 -8.03264 13
278 2 -2.40847 -7.5879 6.50069 12
279 2 -5.44827 -6.06389 -1.58091 21
280 2 1.80723 -6.70107 -6.93964 17
281 2 -2.96058 -10.1869 -1.41412 12
282 2 5.52708 -2.35341 -4.86561 21
283 2 4.3833 7.67231 7.71218 13
284 2 3.23143 -3.5833 11.03 12
285 2 -7.52725 -3.17868 5.81594 17
286 2 6.23186 2.45089 2.53096 21
287 2 -2.12031 -9.0348 3.89651 13
288 2 2.5198 1.6443 -7.03305 22
289 2 -0.34517 -5.32144 -4.27552 24
290 2 -8.75688 -5.09282 1.049 13
291 2 -6.47147 -7.55261 1.56475 17
292 2 -5.96803 -9.07549 -1.08428 13
293 2 -0.385042 6.83188 -0.580048 19
294 2 3.36761 -1.50474 -6.93925 23
295 2 8.25305 1.58202 1.35512 16
296 2 6.16339 5.2106 -7.38277 14
297 2 -3.11622 1.84934 -0.227306 24
298 2 -3.73868 2.96922 -5.72629 22
299 2 3.83844 3.80212 4.71253 21
300 2 -1.44618 9.86097 -1.24203 15
301 2 -2.85961 6.23327 4.38476 19
302 2 3.1889 6.85387 4.7796 23
303 2 2.87425 10.0477 -4.67445 12
304 2 -0.519544 10.7305 -4.76975 12
305 2 -0.707848 4.00068 8.14929 23
306 2 -0.0970829 0.629565 7.84167 22
307 2 0.111257 -4.30591 10.6506 15
308 2 1.57474 -4.33681 -11.1844 10
309 2 -0.925265 -9.36782 0.956846 15
310 2 0.585612 -4.08445 -6.65573 18
311 2 -2.73547 -0.830355 -2.12223 25
312 2 -0.675864 1.29555 -2.20102 21
313 2 -7.41878 -5.3859 3.80483 15
314 2 5.27646 -5.07943 3.67872 17
315 2 7.92377 4.23135 3.45318 15
316 2 -5.91417 0.541024 -6.04155 20
317 2 3.83998 -5.67668 -9.6594 13
318 2 5.80672 1.52434 -1.90406 20
319 2 -2.1603 -6.20368 -7.4291 13
320 2 3.81094 -4.29306 -6.97668 19
321 2 4.73191 2.83656 -8.32494 16
322 2 -6.14852 -1.67417 2.29543 21
323 2 -0.10082 -1.2909 -10.4922 12
324 2 1.39192 -4.2677 -1.50068 22
325 2 3.0395 1.90393 7.60904 20
326 2 -0.645626 -8.38415 -7.03947 11
327 2 1.25131 3.41711 -8.64732 15
328 2 2.57368 -0.66131 5.79321 22
329 2 -8.17757 -7.48095 -1.07014 14
330 2 -4.84818 2.15741 4.98972 20
331 2 -1.27105 5.06168 2.55377 21
332 2 -8.99558 -2.64738 3.35478 16
333 2 -8.24882 -1.92828 -0.258627 20
334 2 -8.00107 3.99453 -2.26337 15
335 2 0.445648 -6.65339 5.72807 17
336 2 8.49611 -3.35193 -0.108598 16
337 2 -0.035831 -0.669973 -7.19298 22
338 2 2.43061 5.06351 7.24528 19
339 2 5.26193 9.26452 4.87897 13
340 2 -0.192724 4.22473 11.5687 14
341 2 -6.10101 5.05473 4.5466 16
342 2 0.920474 -1.08552 3.01806 20
343 2 -6.08414 -0.487886 -9.20647 14
344 2 2.41866 -2.77354 -4.27676 22
345 2 8.65599 2.69547 -1.76194 13
346 2 -9.30293 0.02391 2.11202 16
347 2 -6.0277 4.95108 -8.27476 11
348 2 -1.48526 1.38743 -9.2722 15
349 2 -7.02556 1.59707 2.35962 23
350 2 2.84015 -2.65494 0.626767 22
351 2 2.39508 6.16635 -0.203362 20
352 2 6.0735 -7.3373 -3.62552 14
353 2 2.27047 -8.53025 0.513172 15
354 2 -4.07657 8.61281 -0.831777 14
355 2 -0.270403 -6.49843 0.616572 20
356 2 1.03469 -7.77759 3.08645 17
357 2 6.49748 6.37981 5.34885 15
358 2 -0.30143 8.00969 -3.74762 24
359 2 -4.17267 -0.650864 9.38606 17
360 2 -5.36295 -5.46008 6.55799 15
361 2 1.42398 -2.43861 8.60402 21
362 2 -2.5861 -3.49402 10.7827 13
363 2 -1.38483 5.80291 -5.63625 22
364 2 1.74024 0.736595 0.233695 22
365 2 8.57881 -2.81034 -2.91367 12
366 2 2.51569 -0.226878 10.3194 17
367 2 -8.4729 -4.53875 -2.01974 16
368 2 7.60874 5.77823 -2.57474 14
369 2 6.82119 7.23482 2.54131 14
370 2 6.92834 -5.03935 -5.0477 15
371 2 -4.55073 -7.3656 3.86184 19
372 2 1.05253 8.03854 7.05253 17
373 2 0.721272 3.2778 -4.80382 22
374 2 -4.69618 1.62628 -3.1795 21
375 2 0.334961 0.970995 12.045 13
376 2 1.60534 4.05866 2.66318 22
377 2 3.22935 5.56277 -8.23599 14
378 2 5.88224 -3.34838 1.23648 20
379 2 1.93678 3.09653 9.99226 16
380 2 5.08008 -4.88751 8.34743 10
381 2 -0.367425 -3.46877 1.18934 21
382 2 -3.64331 0.315046 2.77599 21
383 2 -6.08456 -4.60314 0.716852 21
384 2 -5.29284 4.61324 -2.9178 19
385 2 -4.50827 1.9641 -8.642 16
386 2 -5.43866 -0.0235342 -0.0796497 24
387 2 -0.513403 -5.18405 7.97432 17
388 2 4.07985 10.1344 -1.10093 13
389 2 -5.49798 -2.70296 -7.47624 15
390 2 9.78189 -1.07863 2.35554 14
391 2 -3.08843 9.14388 -4.6085 14
392 2 6.443 -2.74892 5.5971 20
393 2 -5.15232 -3.21353 8.36353 15
394 2 -6.7214 -6.47379 -4.16356 13
395 2 1.42595 10.8146 -2.64777 13
396 2 -4.76231 6.99862 1.87387 16
397 2 3.89394 3.16619 0.461768 21
398 2 -0.866789 -1.04239 10.534 18
399 2 -7.01746 4.91443 1.91807 16
400 2 -2.15626 3.81781 -3.05996 23
401 2 -0.576743 6.8286 9.87453 11
402 2 -8.5024 1.61212 -4.25801 15
403 2 4.59326 4.8351 -2.34116 21
404 2 -3.0886 4.44913 9.59178 15
405 2 3.0057 1.22906 3.329 23
406 2 2.53282 2.36514 -2.33553 22
407 2 1.44311 0.213638 -4.43135 26
408 2 -3.30453 -1.82741 -9.96884 13
409 2 1.70359 7.14569 -5.64496 18
410 2 -2.20942 -7.15624 -2.20011 19
411 2 -0.944114 2.66291 -6.9613 21
412 2 4.15414 -2.03076 3.61592 23
413 2 -2.07696 3.29018 5.28196 21
414 2 6.4356 6.60571 -4.89699 15
415 2 -1.42499 -5.65609 3.69023 22
416 2 4.53444 1.05918 -4.88928 25
417 2 3.51515 -3.84568 6.1639 22
418 2 -5.81147 2.96331 -0.468258 21
419 2 -0.637218 1.83792 2.26609 21
420 2 -5.41562 2.26605 8.96731 14
421 2 -8.0392 -3.85068 -5.48296 10
422 2 1.26516 -7.42604 -2.17668 22
423 2 1.05214 7.37965 2.32833 20
424 2 -8.78494 3.27095 3.85783 13
425 2 -7.04487 -0.679845 4.66576 19
426 2 3.6822 -8.82717 -2.35691 14
427 2 5.04087 4.86987 8.06826 14
428 2 -4.48861 5.96156 -5.57098 15
429 2 -2.99084 6.91842 -2.75806 19
430 2 7.36678 2.12315 -6.62638 12
431 2 0.439218 -10.1716 -1.92402 14
432 2 7.23644 -0.407962 7.42194 15
433 2 5.39283 1.15951 9.43102 13
434 2 1.01493 5.20641 -3.14367 23
435 2 -8.36882 -0.715189 -6.44297 14
436 2 -1.28052 -4.1204 -9.96364 13
437 2 -3.58586 -4.60597 -3.9201 20
438 2 1.51559 9.5025 -0.0591698 14
439 2 -0.0211577 6.11813 -8.96984 12
440 2 -7.29446 4.07195 -5.68971 15
441 2 -4.68492 4.19195 7.06125 17
442 2 0.622876 -1.43358 -1.56927 25
443 2 3.74145 4.15317 -5.36566 23
444 2 6.47776 -0.183125 -6.80984 17
445 2 -3.54121 -2.56824 0.755481 25
446 2 -6.43808 6.31354 -0.790399 15
447 2 -3.04396 5.10671 -8.03404 15
448 2 6.48747 -1.48623 -1.67144 21
449 2 -3.16013 -5.50101 8.76935 14
450 2 -7.13267 -0.191752 7.67557 14
451 2 -4.12386 -1.49979 -4.75606 23
452 2 -7.58253 2.51362 6.70753 15
453 2 4.82393 -0.200486 1.02253 21
454 2 0.528463 2.33945 5.29921 22
455 2 -9.14196 0.831365 -1.2277 16
456 2 -2.93579 1.37479 7.66948 22
457 2 -3.14057 -6.34291 0.862863 20
458 2 9.11787 -2.10889 5.16759 12
459 2 5.46793 -6.68115 -6.80055 12
460 2 0.0917277 3.54232 -0.285394 20
461 2 -3.08999 -0.0640732 -7.00243 24
462 2 -4.63886 -1.03955 5.78301 22
463 2 2.62331 -5.4482 9.01643 14
464 2 6.62138 3.59671 -4.10009 20
465 2 1.84734 0.586786 -9.61328 15
466 2 4.53236 -1.52994 8.12533 19
467 2 -4.00664 3.52496 2.34172 21
468 2 0.806767 -2.12992 12.2647 13
469 2 1.78713 -9.0179 -4.89624 14
470 2 -5.27066 -5.49894 -6.1603 15
471 2 -2.54514 -4.06869 5.99712 21
472 2 5.99764 -3.58124 -8.19607 16
473 2 4.16102 -7.20613 2.48821 15
474 2 7.1736 -1.05481 3.00607 22
475 2 1.6483 -4.72569 3.08694 22
476 2 -2.11388 8.10126 1.58547 16
477 2 5.27324 -0.397592 -9.07651 13
478 2 -9.22245 -1.72649 -3.37938 13
479 2 -1.43062 -0.0597801 5.07509 20
480 2 -6.60892 -0.446324 -2.83424 19
481 2 3.55113 -6.79152 5.56424 14
482 2 3.19031 7.69038 -2.98453 22
483 2 9.13621 -0.0980614 -0.861652 15
484 2 6.38981 8.41396 -2.86042 12
485 2 0.334624 -3.1309 5.7009 22
486 2 3.13979 -5.70635 0.253286 19
487 2 4.26601 -3.99575 -2.54892 19
488 2 5.5126 -7.59635 -0.62591 13
489 2 -3.96971 -7.84062 -4.29487 16
490 2 4.61278 5.52198 2.18284 22
491 2 4.15021 8.99597 2.27996 17
492 2 -4.04101 -9.5919 1.5121 15
493 2 -2.29659 1.74027 10.5134 18
494 2 0.109143 5.68954 5.1946 22
495 2 6.8696 3.18422 6.78125 15
496 2 7.66069 0.44201 -4.19986 16
497 2 -2.09166 -2.2447 3.59202 23
498 2 -1.41311 8.20573 -7.09647 12
499 2 -1.17845 -8.88822 -4.19948 16
500 2 7.37283 -6.04578 1.05708 14
