ITEM: TIMESTEP
8092000
ITEM: NUMBER OF ATOMS
500
ITEM: BOX BOUNDS pp pp pp
-30.0 30.0
-30.0 30.0
-30.0 30.0
ITEM: ATOMS id type x y z Coordination
1 1 -3.13497 2.65081 -4.08312 22
2 1 6.11346 -2.75651 6.76525 17
3 1 5.32142 6.41791 7.74429 14
4 1 -1.00682 -3.8156 6.57605 23
5 1 -10.2597 -0.286453 0.66463 13
6 1 -4.24065 -1.33212 -6.97819 21
7 1 3.63146 -2.07704 9.35708 17
8 1 2.34591 -2.72337 -6.19181 23
9 1 -8.82305 0.410863 -2.5929 18
10 1 -0.393375 2.60792 -9.39079 14
11 1 6.03708 -7.13214 -5.62944 13
12 1 9.06421 -1.52437 6.44545 11
13 1 1.56817 6.92348 -3.06351 19
14 1 3.54414 8.45233 6.12955 12
15 1 2.38117 6.51551 8.82209 13
16 1 -9.74456 -1.18627 4.09148 14
17 1 -9.23582 -3.30513 1.67971 17
18 1 5.53724 -0.141663 -1.41564 24
19 1 3.01385 3.50416 7.03336 20
20 1 -9.00561 -5.87554 -0.887774 15
21 1 1.36245 -6.06597 -9.03837 19
22 1 4.80648 -0.577121 -5.68665 24
23 1 7.41178 -1.50636 -4.08752 18
24 1 6.20378 -6.23487 2.72881 14
25 1 -1.71158 9.88802 5.26803 10
26 1 5.65883 -0.515819 3.80574 18
27 1 2.52737 6.04179 2.2297 17
28 1 -0.014528 1.31552 -4.084 23
29 1 3.89333 -7.18644 -8.50219 11
30 1 -1.41986 7.57632 8.30031 11
31 1 4.851 -5.42692 5.60048 18
32 1 -5.44473 5.7639 2.78676 16
33 1 -2.92946 4.33422 3.82632 20
34 1 6.24061 6.7488 -5.78616 13
35 1 7.63154 4.69303 -3.38393 16
36 1 -5.2967 7.92472 -5.9124 10
37 1 1.72011 -4.52734 -3.53272 21
38 1 -4.89548 4.89152 -7.65167 13
39 1 -1.3057 2.9906 -1.36942 23
40 1 -1.36936 7.3636 -1.64956 23
41 1 -1.92225 9.16751 -6.99086 11
42 1 -7.94108 4.94912 1.317 14
43 1 3.90955 3.95041 9.89314 14
44 1 -4.66408 1.89795 -7.00333 23
45 1 -8.76743 -4.21742 4.6009 12
46 1 -2.37061 1.24626 1.74814 23
47 1 0.559778 0.36018 1.80485 23
48 1 -5.45989 0.0647919 -4.14487 24
49 1 6.95037 -7.05013 -0.361089 11
50 1 -6.07557 -0.445526 5.28745 22
51 1 -9.58038 1.07707 -5.76076 11
52 1 1.08682 -8.35343 1.26215 16
53 1 7.75469 3.91867 -6.55935 13
54 1 -4.28146 -4.28238 1.16573 21
55 1 -5.96107 -1.15688 -9.33557 11
56 1 1.80213 4.95889 -9.26236 11
57 1 -0.0999439 3.70586 1.78423 20
58 1 -1.14748 1.9097 8.74248 20
59 1 -4.95129 2.07882 3.16696 22
60 1 0.263023 -8.5057 -9.75511 8
61 1 0.0803456 9.98531 -1.54255 17
62 1 -8.55411 2.00091 3.04366 19
63 1 4.70275 5.36371 4.53572 19
64 1 0.687346 -0.84129 9.03424 21
65 1 1.53297 -8.30828 -6.95487 14
66 1 6.28133 0.953035 -8.11677 14
67 1 -7.39228 -8.75809 0.129498 11
68 1 -1.66509 -6.75476 1.79336 21
69 1 2.10611 -2.26116 6.29606 21
70 1 0.0861532 -7.56043 4.0262 18
71 1 6.7137 6.2304 -0.606146 17
72 1 -5.45416 -5.94161 4.39335 19
73 1 -4.93659 -8.26958 2.35555 16
74 1 -3.69895 -5.79894 -3.24842 22
75 1 1.69157 -2.55142 2.06189 23
76 1 -4.81316 -3.03083 -4.38466 23
77 1 0.670863 3.56828 -6.40094 22
78 1 1.4082 -4.89166 4.66084 22
79 1 -3.75163 -2.99626 6.34676 22
80 1 -9.42897 1.6198 6.05529 13
81 1 3.79575 -7.63498 0.186264 16
82 1 -2.37725 -4.48311 3.98517 26
83 1 -0.607058 4.00542 6.15131 23
84 1 -7.32686 -0.616919 2.56022 21
85 1 -3.38798 8.70718 2.45609 14
86 1 -5.281 5.38813 6.08542 16
87 1 1.44402 0.996152 6.5866 20
88 1 -2.87882 4.65799 7.87619 18
89 1 -6.25472 -3.5807 -6.48718 16
90 1 4.46134 -1.91253 1.02254 21
91 1 -6.4135 2.21888 -2.62714 22
92 1 -0.416014 -4.4538 -11.4135 9
93 1 6.94356 -0.367081 8.8101 12
94 1 -4.4909 3.44762 0.378754 24
95 1 -2.36761 -2.01301 9.28952 19
96 1 0.0358932 0.0397844 -9.12703 17
97 1 -9.51089 -2.69601 -1.52603 13
98 1 -1.98243 -9.62754 1.93785 12
99 1 -3.45491 -2.62247 -1.45187 22
100 1 3.65408 1.22029 1.03065 23
101 1 -3.81932 2.29737 6.39275 23
102 1 1.98868 3.07498 3.95756 19
103 1 -2.54751 5.82484 0.972213 19
104 1 0.151253 -9.76318 -4.47624 13
105 1 1.23674 9.18963 3.56052 17
106 1 6.32173 1.70031 -4.16833 21
107 1 -8.8334 3.3406 -3.49619 13
108 1 -6.59741 4.61936 -1.46455 16
109 1 -3.90781 -9.66293 -0.595979 12
110 1 1.49303 -4.32645 8.30365 20
111 1 -5.42113 4.58051 -4.57285 21
112 1 -5.61267 -1.89758 8.67888 15
113 1 3.14523 0.811472 -3.40436 28
114 1 -6.62061 2.79308 6.01477 17
115 1 -0.0101336 -5.09568 -6.51722 22
116 1 -1.25716 0.101098 11.4831 15
117 1 -1.01275 -5.49367 9.77188 12
118 1 3.49027 -8.15051 -4.43382 14
119 1 4.66629 3.0253 -1.30195 19
120 1 -1.83809 -0.35161 6.87225 20
121 1 4.745 -4.00243 -8.21365 16
122 1 0.646536 5.24576 -0.476215 21
123 1 4.30643 -5.03155 8.89741 12
124 1 -0.874806 -8.86279 -1.28047 18
125 1 -5.8129 -3.11758 3.65221 25
126 1 4.51704 -0.23427 6.5307 19
127 1 8.8104 3.45909 -0.414969 14
128 1 3.16403 5.70371 -6.60169 17
129 1 0.0818993 6.8543 -6.2746 17
130 1 2.16699 10.7461 1.02248 13
131 1 2.93501 2.00729 -9.11453 16
132 1 2.12489 -3.88717 11.3356 11
133 1 2.01325 3.94878 -3.65181 25
134 1 3.66234 -5.07968 1.93426 21
135 1 -4.96188 -6.76712 0.0592925 19
136 1 -6.90756 2.63776 -6.01562 20
137 1 5.47447 4.67387 1.59433 22
138 1 9.24046 -2.17844 -1.07236 13
139 1 -1.63195 1.18119 -6.72185 22
140 1 -2.96108 9.517 -3.97511 15
141 1 3.26532 -5.6649 -5.77092 23
142 1 3.05006 -3.83346 -0.986358 22
143 1 -8.32742 -1.70628 6.27179 16
144 1 1.70951 -9.32204 -1.97409 13
145 1 -1.95569 -5.70447 -9.06923 13
146 1 3.61584 6.12029 -0.985672 18
147 1 3.62191 -8.0665 3.44888 11
148 1 4.12231 -2.44219 -3.44845 27
149 1 -6.35032 -4.39546 -1.24252 21
150 1 -1.62391 -7.8752 -6.98234 15
151 1 1.29413 2.47557 11.5516 13
152 1 -1.83038 3.29626 10.9206 12
153 1 3.58117 -1.09482 -8.72889 18
154 1 -6.48154 1.3088 0.483513 23
155 1 5.50157 7.8902 -2.93245 13
156 1 6.99164 -2.08121 -7.39807 13
157 1 2.80114 -0.109389 3.63092 20
158 1 -2.31447 4.15166 -6.55345 22
159 1 -8.34907 4.76488 4.50547 11
160 1 -0.635275 -3.04295 11.418 12
161 1 6.67593 1.62418 1.36843 22
162 1 -7.55082 2.20773 -8.69417 10
163 1 7.87187 -4.11429 4.75556 13
164 1 -1.7972 -5.61787 -0.664277 21
165 1 6.19255 2.98035 8.04962 15
166 1 -3.00354 -8.26359 4.84472 15
167 1 1.32912 2.10218 -1.19311 20
168 1 -0.32947 -1.74898 4.16501 21
169 1 7.76719 -1.22571 0.923117 21
170 1 9.5406 0.519776 3.92743 14
171 1 4.94505 -5.70772 -2.89726 22
172 1 8.09566 3.07966 2.92688 16
173 1 -3.16099 -4.50463 -6.50025 20
174 1 4.99308 2.29084 4.21459 21
175 1 -3.38306 5.19096 -2.05136 22
176 1 -2.80284 6.74093 -4.94336 23
177 1 -3.44575 -0.939722 4.12877 22
178 1 -1.47825 -3.95987 -3.65782 22
179 1 -3.22317 -9.0521 -3.89271 14
180 1 8.52818 3.86606 5.43567 10
181 1 0.451138 4.55059 9.22091 17
182 1 -5.34651 7.21598 0.318467 15
183 1 5.57123 4.27811 -8.56657 13
184 1 3.75853 1.01386 9.5208 16
185 1 -6.19979 -1.21885 -1.79642 22
186 1 -3.16533 0.643644 -9.56646 13
187 1 -0.11417 5.78038 3.84195 20
188 1 1.19735 -6.118 -0.654828 23
189 1 4.85063 9.30846 0.00367155 12
190 1 0.106037 -4.88369 2.00107 24
191 1 -1.02414 10.5839 1.91699 13
192 1 -4.6884 -1.09123 1.17385 20
193 1 5.76722 -3.79963 -5.38198 21
194 1 2.40119 -0.914434 -1.12812 25
195 1 2.5448 -7.22289 6.59156 14
196 1 1.75494 0.23511 -6.44405 22
197 1 0.772341 -1.57991 -3.77655 23
198 1 -5.0197 3.66426 9.35071 13
199 1 10.2743 -2.12689 3.03064 11
200 1 0.35626 9.45663 -4.41913 15
201 1 1.75787 -0.474231 11.8096 12
202 1 8.64566 0.716788 -5.9791 12
203 1 -3.54175 0.850066 9.34529 18
204 1 -3.71804 -4.4115 9.44381 16
205 1 -3.60947 9.65455 -0.319824 11
206 1 5.79892 7.09998 2.01655 18
207 1 -7.43123 -6.03516 1.76187 17
208 1 10.4756 2.62731 -3.73622 7
209 1 -5.61644 -6.62622 -5.43637 13
210 1 7.39736 1.2748 5.84333 18
211 1 8.43917 -4.3687 1.6047 12
212 1 3.82566 2.40665 -6.09836 22
213 1 4.58943 9.73866 3.24671 12
214 1 -8.34177 -2.05654 -4.45172 18
215 1 -0.637075 4.77856 -3.68855 21
216 1 3.1599 8.2025 -5.13295 15
217 1 -7.36945 -0.32097 -7.0361 16
218 1 3.15246 -4.34232 -10.5617 9
219 1 -0.545004 -6.88437 -3.81629 24
220 1 -0.931756 -0.270229 -1.19336 24
221 1 -3.49273 -6.20277 6.94016 17
222 1 6.32701 -3.42704 -1.22756 20
223 1 -9.39335 2.76133 -0.173838 14
224 1 -2.0642 6.63244 -8.69 10
225 1 -6.33599 -7.56569 -2.34273 16
226 1 4.89677 -3.47954 4.16932 18
227 1 -0.0453298 -3.17417 -0.832756 21
228 1 -2.34609 -2.44975 -9.381 16
229 1 -2.61636 6.99748 5.43891 16
230 1 -6.81648 0.668589 8.35075 13
231 1 -2.40499 -0.770346 -4.16577 24
232 1 8.6131 6.11703 2.55815 10
233 1 9.93083 0.797078 0.818849 13
234 1 -0.825009 -6.77444 7.26513 15
235 1 1.15542 -2.89636 -9.01238 21
236 1 4.59871 5.02451 -3.80079 19
237 1 6.64857 7.90073 5.12767 12
238 1 3.00585 10.3956 -2.37486 12
239 1 8.80698 0.591045 -2.26402 15
240 1 -1.90649 -2.04098 1.51382 22
241 1 -0.981418 1.822 4.48438 21
242 1 7.79469 -5.10674 -3.16847 13
243 1 -1.07078 -2.03745 -6.67475 23
244 1 0.561587 7.41751 6.46845 17
245 1 -3.77923 0.880104 -1.26556 24
246 1 0.429242 7.86712 0.89262 18
247 1 -6.5384 -4.4761 7.05097 14
248 1 5.31544 -8.99111 -2.53068 12
249 1 -7.88319 -4.96417 -3.72305 16
250 1 -4.7004 7.53568 -2.49354 17
251 2 -9.7721 -0.052045 5.62477 12
252 2 8.79772 2.04859 4.48732 15
253 2 -2.37641 -2.18381 7.36285 21
254 2 -2.86696 -2.66986 -7.31643 22
255 2 -8.80024 3.10561 1.56097 14
256 2 -4.14718 -4.71073 3.28974 23
257 2 2.44532 4.62474 8.66354 16
258 2 5.66235 0.867498 5.28646 21
259 2 -1.77993 -3.82888 -1.6664 23
260 2 -2.784 6.55933 7.3294 14
261 2 -3.77683 5.10867 -0.226838 20
262 2 3.90913 -0.642956 -2.37094 26
263 2 6.6139 -5.71389 -1.89134 14
264 2 -1.92097 1.05281 -4.66797 24
265 2 -0.588783 -6.61272 -9.92105 12
266 2 -1.07918 -2.04504 -4.66927 25
267 2 -5.34057 -2.89409 -2.40141 21
268 2 -2.45885 8.60784 4.15588 14
269 2 9.06884 -3.62157 3.41768 12
270 2 3.08099 -5.97361 -3.78817 24
271 2 -1.21761 -0.246454 0.943002 23
272 2 7.22913 5.76321 1.2428 15
273 2 -0.507744 10.2969 3.84275 13
274 2 5.09075 8.76159 1.70554 14
275 2 4.41529 7.10024 -6.03332 14
276 2 3.16471 -2.89425 -9.36034 15
277 2 -8.5914 2.39782 -7.07862 12
278 2 -2.09369 -7.41461 6.22604 14
279 2 -5.15964 -5.95221 -1.93914 21
280 2 2.14534 -7.98709 -9.08935 10
281 2 -2.5337 -9.26818 -2.00171 15
282 2 5.58073 -2.04877 -4.76214 22
283 2 3.58535 7.22933 7.68539 13
284 2 3.71027 -3.87031 10.2723 11
285 2 -7.8371 -3.48946 6.32963 15
286 2 4.19524 -0.564103 2.30677 24
287 2 -1.7109 -8.19777 3.25255 17
288 2 2.1931 1.99304 -7.07312 26
289 2 -0.139371 -5.24053 -4.55688 23
290 2 -8.78158 -4.97291 0.883655 13
291 2 -6.7428 -7.84021 1.63738 13
292 2 -5.51643 -8.66906 -0.70916 13
293 2 -0.974241 6.61427 0.159355 22
294 2 3.35158 -1.11031 -6.85234 24
295 2 8.57595 2.30776 1.08757 18
296 2 6.47197 5.20434 -7.07917 14
297 2 -2.80353 2.21363 -0.00461003 24
298 2 -4.07329 3.46023 -5.78935 19
299 2 5.91731 3.02668 2.59353 21
300 2 0.110784 8.14165 -2.41507 19
301 2 -3.97925 5.55146 4.73855 19
302 2 1.81931 8.43171 5.37031 14
303 2 1.33828 10.4874 -3.07406 12
304 2 1.2756 7.59477 -5.08022 18
305 2 -0.999441 3.82837 7.98693 20
306 2 -0.179875 0.493357 7.88502 21
307 2 0.435268 -4.62671 10.4995 12
308 2 1.29938 -4.52266 -10.3606 13
309 2 -0.665852 -9.21381 0.603838 16
310 2 0.771751 -3.39874 -7.16837 23
311 2 -2.80683 -0.709241 -1.72969 21
312 2 -0.323328 1.39899 -2.14168 24
313 2 -7.11896 -4.81055 3.60972 18
314 2 6.24896 -4.82923 3.96063 16
315 2 8.40161 4.85053 3.89652 14
316 2 -6.06104 0.719316 -5.80393 22
317 2 3.94427 -5.5521 -9.30311 13
318 2 6.97929 0.222897 -2.94297 22
319 2 -1.76468 -5.83018 -7.04085 19
320 2 3.86324 -4.02674 -6.34318 24
321 2 5.36074 2.46877 -8.54279 11
322 2 -6.08067 -1.9723 2.01794 20
323 2 -0.590757 -1.81048 -9.35607 15
324 2 1.30005 -4.19813 -1.71366 21
325 2 3.12434 1.65587 7.57508 19
326 2 -0.198051 -8.63376 -7.89584 13
327 2 1.488 3.17983 -9.68743 11
328 2 2.74416 -0.391686 5.75433 20
329 2 -7.9034 -7.44645 -1.09345 14
330 2 -5.57874 1.53883 5.08802 23
331 2 -1.47599 4.91101 2.50395 23
332 2 -9.79865 -2.93258 3.42665 14
333 2 -9.80362 -2.15478 0.27508 13
334 2 -8.54134 3.75785 -1.58287 14
335 2 0.944883 -7.14001 5.6126 15
336 2 8.627 -3.25261 0.219447 13
337 2 -0.0073524 -0.289948 -6.94951 23
338 2 3.84725 3.79692 5.15458 19
339 2 4.93232 8.86189 4.88761 14
340 2 0.0667063 3.5546 10.8303 13
341 2 -6.99317 4.76102 5.68714 11
342 2 1.10387 -0.96948 3.17288 21
343 2 -7.0657 0.409016 -8.95466 14
344 2 2.21122 -2.80903 -4.23173 25
345 2 9.57009 2.54839 -2.02691 13
346 2 -9.24393 0.064227 2.29285 16
347 2 -5.42098 5.97679 -5.93996 14
348 2 -1.40127 1.16645 -9.90891 12
349 2 -6.55272 1.34428 2.27927 18
350 2 2.58891 -2.3449 0.201481 22
351 2 1.95021 6.54676 0.241985 17
352 2 5.36861 -7.83627 -4.11123 13
353 2 2.07453 -8.32602 -0.288165 14
354 2 -4.90381 8.52389 -0.964708 15
355 2 -0.0928668 -6.29222 0.664936 20
356 2 1.69702 -7.79277 2.9727 19
357 2 5.60377 6.51587 5.94043 14
358 2 -1.41078 9.26117 -5.13781 16
359 2 -3.99672 -1.06556 9.48075 16
360 2 -5.14088 -5.66089 6.22702 17
361 2 1.74819 -2.44512 8.23993 21
362 2 -2.14696 -3.88348 10.4901 12
363 2 -1.40793 5.6149 -5.49256 21
364 2 1.81137 0.645174 0.296414 22
365 2 7.73949 -2.87653 -2.55411 18
366 2 2.57012 -0.515848 10.1241 16
367 2 -8.4115 -4.21849 -1.93131 17
368 2 8.22893 5.01707 -1.28476 12
369 2 7.33281 7.46467 3.35438 12
370 2 6.39272 -5.29163 -4.54622 17
371 2 -4.70574 -7.60084 3.99162 15
372 2 -1.01836 8.56658 6.62968 11
373 2 0.208784 3.24997 -4.45692 22
374 2 -4.54946 1.54689 -3.09469 23
375 2 0.490571 0.800582 12.1059 12
376 2 1.46919 4.55645 2.94859 18
377 2 3.6533 5.00058 -8.61918 13
378 2 4.59064 -3.26757 2.39793 19
379 2 2.94592 2.45022 10.6362 13
380 2 5.26459 -4.44207 7.33038 17
381 2 -0.123291 -3.05985 1.21917 22
382 2 -4.03363 0.243423 2.61126 25
383 2 -6.04111 -5.12813 0.605123 23
384 2 -5.53032 5.72433 -2.81982 18
385 2 -6.06441 3.32292 -7.86339 14
386 2 -5.25555 0.0763983 -0.238287 21
387 2 -0.207609 -5.03296 7.86756 20
388 2 3.35666 10.3342 -0.556212 10
389 2 -6.21118 -1.79322 -7.52934 16
390 2 9.84315 -0.664046 1.99874 14
391 2 -2.16939 9.42549 -1.86464 15
392 2 8.04112 -3.14251 6.28934 13
393 2 -5.00126 -3.62835 8.16836 15
394 2 -6.78801 -6.38728 -4.07328 14
395 2 0.828671 5.08714 -2.36904 21
396 2 -4.18043 7.08572 1.76077 18
397 2 4.97069 4.75358 -0.446479 20
398 2 -0.945978 -1.17043 10.1501 18
399 2 -7.21193 5.26843 2.99696 15
400 2 -2.21668 3.83741 -3.05798 22
401 2 0.266294 6.48851 8.69018 13
402 2 -9.42982 1.59354 -3.99496 15
403 2 5.6304 7.73752 -0.871158 14
404 2 -3.26284 4.16423 9.84544 14
405 2 3.38107 1.89855 2.99238 19
406 2 2.73927 2.51718 -2.44251 24
407 2 1.6421 0.32295 -4.50136 24
408 2 -3.81779 -1.13855 -9.5147 11
409 2 1.29529 5.55199 -7.23642 18
410 2 -1.94588 -6.4363 -2.51667 18
411 2 -0.951825 2.81371 -7.54746 21
412 2 5.41336 -1.89344 5.23202 21
413 2 -2.53874 2.89978 5.10553 22
414 2 8.8844 3.80976 -4.93561 12
415 2 -1.08915 -5.66757 3.537 20
416 2 4.43147 1.11285 -4.85804 19
417 2 3.2395 -4.42279 5.10044 20
418 2 -6.00022 2.87398 -0.685954 21
419 2 -0.563814 1.94115 2.5526 18
420 2 -5.40976 1.71998 9.03683 14
421 2 -7.2876 -3.53397 -4.98244 15
422 2 1.88677 -9.02443 -5.23186 14
423 2 0.926322 7.33657 2.70464 20
424 2 -8.4633 2.71903 4.77191 14
425 2 -7.67226 -1.26048 4.41945 19
426 2 3.4424 -9.25988 -2.68741 12
427 2 5.29622 4.69203 8.76706 13
428 2 -4.53436 8.2861 -4.19327 14
429 2 -2.54619 6.69853 -2.95095 19
430 2 7.16647 1.8343 -6.4691 16
431 2 0.361174 -8.32723 -2.83132 16
432 2 8.04804 -0.0491772 7.22962 15
433 2 5.82751 1.18935 8.6735 16
434 2 3.49533 6.41723 -2.93308 22
435 2 -8.87217 -0.762558 -5.82881 15
436 2 -2.00212 -4.25015 -10.2396 11
437 2 -3.27115 -4.3701 -4.4576 22
438 2 0.400458 9.90573 0.602057 17
439 2 -0.969616 7.58222 -7.68478 12
440 2 -6.96946 3.39309 -4.25186 21
441 2 -4.61184 3.88177 7.28472 17
442 2 0.494855 -1.45091 -1.75891 24
443 2 3.39684 4.25246 -5.22133 23
444 2 7.81768 -1.09565 -6.16234 13
445 2 -3.56774 -2.50142 0.630799 24
446 2 -6.76549 5.9175 0.17612 15
447 2 -3.15373 5.34857 -8.18448 12
448 2 5.92313 -1.73769 -0.185253 21
449 2 -2.76068 -6.01105 8.80593 12
450 2 -6.66782 -0.853205 7.37707 17
451 2 -3.95739 -1.47874 -4.99384 24
452 2 -7.81839 1.95911 7.29108 14
453 2 5.21431 1.46009 -0.116525 21
454 2 0.801381 2.52349 5.58818 19
455 2 -9.37556 0.946571 -0.694801 17
456 2 -2.60456 1.37694 7.47092 20
457 2 -3.14248 -6.00494 0.534748 21
458 2 10.0313 -1.16946 4.56845 11
459 2 4.65134 -6.71065 -6.92619 17
460 2 0.287327 3.33643 -0.227608 21
461 2 -3.32654 0.758334 -7.58524 24
462 2 -4.8327 -2.13526 5.07389 25
463 2 2.5919 -5.65069 7.77143 15
464 2 5.87425 3.34727 -3.08513 23
465 2 2.18567 0.0627008 -9.11259 14
466 2 5.20141 -1.47825 8.37282 18
467 2 -4.51785 3.89726 2.46418 21
468 2 1.03914 -2.24582 11.8126 13
469 2 1.6453 -6.21071 -7.07383 25
470 2 -4.98708 -5.05343 -6.22257 15
471 2 -2.60256 -4.62913 6.08992 19
472 2 6.39115 -3.79667 -7.27688 14
473 2 4.64671 -7.13817 2.0597 16
474 2 7.13134 0.103955 2.58835 22
475 2 1.89232 -4.52336 2.58405 21
476 2 -2.64252 9.9995 1.31405 12
477 2 5.62737 -0.86304 -8.47053 14
478 2 -8.55603 -1.59787 -2.58197 16
479 2 -1.71982 -0.345871 4.76703 23
480 2 -6.80672 0.289906 -2.81019 19
481 2 3.99214 -7.24504 5.26016 13
482 2 4.11791 9.0916 -3.71534 14
483 2 9.03441 -0.29898 -0.46144 15
484 2 6.38644 5.9794 -3.911 16
485 2 0.427005 -3.05753 5.4031 20
486 2 3.16456 -5.59742 0.110565 20
487 2 4.53453 -3.78861 -2.22356 21
488 2 5.36853 -7.9904 -0.898882 11
489 2 -4.2183 -7.72464 -4.59716 15
490 2 4.47394 6.0617 2.7833 18
491 2 2.67381 10.1937 2.76714 14
492 2 -3.71003 -9.27847 1.44693 15
493 2 -2.10365 1.49652 10.4524 17
494 2 0.022334 5.72774 5.72657 22
495 2 7.15975 3.12001 6.55546 15
496 2 9.38442 1.1829 -4.23914 11
497 2 -2.3142 -2.35563 3.28479 23
498 2 -3.47189 8.031 -6.59352 14
499 2 -1.3464 -8.56802 -5.04063 14
500 2 7.3364 -5.88432 1.17471 12
