ITEM: TIMESTEP
9000
ITEM: NUMBER OF ATOMS
2000
ITEM: BOX BOUNDS pp pp pp
-30.0 30.0
-30.0 30.0
-30.0 30.0
ITEM: ATOMS id type x y z Coordination
1 1 -11.2655 4.95705 -11.7818 18
2 1 -5.37778 -10.924 -7.59261 20
3 1 -0.358701 14.6295 14.0868 12
4 1 5.80519 -9.32588 7.35407 17
5 1 -10.3205 12.4474 1.15825 15
6 1 5.98054 -10.5927 -9.82199 17
7 1 -11.641 5.11451 -3.47002 18
8 1 -0.754058 -8.49939 9.9485 17
9 1 -10.7254 -1.82064 -11.8359 14
10 1 -12.1065 -9.20002 4.27303 15
11 1 13.0786 0.867268 -9.16326 17
12 1 -5.04372 -13.3026 0.67045 21
13 1 -12.3474 -9.50276 0.787262 17
14 1 0.0104272 0.771248 17.2404 12
15 1 5.96438 -0.549015 8.12576 22
16 1 1.65783 6.5928 9.02759 20
17 1 7.95584 -2.53688 1.30655 22
18 1 2.45257 9.87739 -7.70998 17
19 1 -0.724408 -0.579376 14.0338 17
20 1 -8.62808 2.38353 -14.2547 11
21 1 -12.8382 -3.39337 12.8981 8
22 1 15.2128 6.79451 4.29591 15
23 1 2.18436 14.1092 -9.72105 17
24 1 4.31188 6.45676 -12.1311 19
25 1 12.8532 7.66216 13.3371 12
26 1 -6.78162 2.49822 -1.63695 18
27 1 -15.414 4.99 -6.86265 15
28 1 -3.5726 1.72642 -9.01314 25
29 1 -9.2757 8.22586 9.95879 20
30 1 6.66053 -15.7286 5.69238 12
31 1 1.27493 -0.171414 10.1129 20
32 1 -0.23663 -13.1256 -10.1215 18
33 1 4.17508 -10.0246 1.36685 17
34 1 -6.7193 -13.489 -7.40319 18
35 1 -8.40867 -6.04616 11.8379 20
36 1 4.15972 -8.00323 -5.61316 22
37 1 -0.997794 -8.31616 -13.5503 19
38 1 7.75471 -10.2052 -12.5683 11
39 1 -1.09499 7.83691 -15.0333 13
40 1 0.409099 5.12743 14.467 21
41 1 -0.488581 -7.83585 6.40663 20
42 1 3.81796 -1.73695 10.7373 17
43 1 -11.8369 -1.28472 2.91457 19
44 1 -15.1288 -0.784878 9.04285 16
45 1 -8.73277 -3.69454e-04 -1.94396 19
46 1 -4.00825 10.2732 -3.17396 19
47 1 -2.87684 -14.3551 -11.3856 13
48 1 2.12848 3.51874 -9.4225 22
49 1 3.85482 -4.7227 -11.2061 19
50 1 -1.48231 -3.35932 12.2793 17
51 1 -11.8178 1.64742 -2.14909 17
52 1 6.17959 13.6016 -11.4136 10
53 1 -0.959527 12.7265 6.98964 18
54 1 -11.6371 10.6375 -12.306 7
55 1 -3.80441 13.7713 -2.17558 18
56 1 -1.34852 -10.4185 1.13295 17
57 1 4.11705 -10.2048 -3.81239 25
58 1 4.25027 -5.89825 -13.9201 17
59 1 -11.3465 10.9292 11.5345 9
60 1 -13.2405 -5.3473 -7.58797 16
61 1 9.08363 0.598131 1.57626 21
62 1 -13.5578 10.7572 -5.70152 11
63 1 -6.01629 -10.7655 5.60205 19
64 1 -3.14 14.7558 13.2522 12
65 1 -15.6742 7.76594 -5.49546 16
66 1 -7.64585 9.59679 16.8391 9
67 1 1.82991 5.78224 -7.33551 20
68 1 -1.27988 8.20844 3.87147 19
69 1 -8.99484 -11.4671 7.29827 16
70 1 0.260572 7.55241 6.60645 23
71 1 2.75459 -14.4433 -6.52451 20
72 1 1.36121 10.5539 15.9939 17
73 1 -15.104 2.32646 -8.46381 15
74 1 -14.0588 4.13904 -10.9594 13
75 1 6.54057 4.58336 14.2351 22
76 1 12.1279 -2.65843 -9.60213 19
77 1 9.15354 -13.5516 6.64363 6
78 1 -16.8036 -3.98433 4.47278 13
79 1 -7.25926 -2.50944 -1.66941 20
80 1 0.956153 15.0268 3.75617 20
81 1 7.36908 -1.34369 10.768 18
82 1 -6.09509 -11.8731 3.40544 20
83 1 -11.395 -2.89678 -1.25019 19
84 1 11.4712 1.59591 5.86106 19
85 1 6.42297 0.433293 -3.16056 22
86 1 -3.75671 11.7836 10.7245 18
87 1 3.77029 1.57092 8.01313 20
88 1 -8.81594 -4.56019 5.40719 19
89 1 -4.97978 -7.46842 -9.03464 22
90 1 -12.8556 4.85306 9.16697 16
91 1 -8.04739 10.1049 -3.37992 20
92 1 -3.22067 8.02445 -8.09057 19
93 1 2.75253 -3.34343 -5.96606 21
94 1 7.84071 0.216765 -6.66132 21
95 1 10.3596 11.8203 -7.57857 15
96 1 5.86544 -8.29611 0.706256 20
97 1 5.64011 -9.09029 10.2264 11
98 1 -5.15012 15.1731 -4.99471 14
99 1 -8.85411 13.9981 4.18068 14
100 1 -9.03799 -0.26898 15.3433 10
101 1 -7.75551 6.79601 3.38369 23
102 1 -10.5409 -3.1791 10.9546 18
103 1 9.7354 -8.26854 -2.87382 17
104 1 -11.7298 1.31397 4.50673 18
105 1 -8.32473 -13.4576 1.60534 18
106 1 14.0134 -5.15047 -7.92667 12
107 1 3.47243 -2.48146 -13.9261 21
108 1 -2.87734 2.68013 -16.2465 12
109 1 -2.45776 12.6099 1.99623 21
110 1 -11.5113 8.50794 -6.96348 16
111 1 0.232957 3.76354 19.9072 6
112 1 0.019496 12.9373 -6.28689 20
113 1 -13.3572 11.4422 1.90953 10
114 1 -0.255009 8.32537 -0.832783 19
115 1 -3.72268 -8.81641 10.8277 14
116 1 15.3936 -0.203657 8.84191 14
117 1 -1.86898 -5.52213 -6.61463 23
118 1 4.06261 -7.49672 -10.7663 18
119 1 -3.09018 4.57245 7.54167 21
120 1 8.59469 1.08793 9.50738 22
121 1 -12.918 -6.74964 2.33087 17
122 1 6.37539 -2.4285 4.48386 20
123 1 -12.8624 -8.0564 -4.56039 18
124 1 8.64939 -15.2178 2.97101 10
125 1 -5.14481 11.0447 0.122742 20
126 1 10.7796 0.150343 -14.298 14
127 1 3.7017 16.5305 0.417548 17
128 1 -6.51534 -10.5448 14.2949 6
129 1 -10.7525 -13.3153 8.23469 10
130 1 2.64799 -8.65414 -13.7291 17
131 1 4.56769 7.95687 -6.08114 19
132 1 14.2728 -10.9828 -2.47204 10
133 1 0.196532 -15.3025 2.03654 18
134 1 -8.54788 -8.0701 0.282436 19
135 1 15.4527 9.55279 5.2256 11
136 1 11.7522 -7.38754 -5.61179 19
137 1 -18.2323 -3.93553 1.12867 8
138 1 9.847 9.8928 4.3238 19
139 1 13.7123 9.82406 3.08597 18
140 1 -2.65075 3.96515 14.5713 18
141 1 2.70602 7.48448 1.73498 19
142 1 -9.54526 10.0085 14.3323 12
143 1 -5.48305 12.0123 -5.21988 20
144 1 -3.80868 -8.51955 -12.023 21
145 1 4.69445 -12.1717 -12.6087 11
146 1 4.07133 16.1924 -10.9474 11
147 1 8.89473 -2.98835 12.8513 8
148 1 2.07237 1.71945 -16.1753 11
149 1 -6.10841 8.56042 -8.30944 18
150 1 12.8398 0.603731 -5.11176 17
151 1 -12.838 7.66553 -11.6154 10
152 1 -7.26621 13.2386 -1.70959 15
153 1 8.38144 3.05214 -9.1026 21
154 1 8.55154 -8.73694 5.32654 14
155 1 -6.14519 3.42911 -10.7876 21
156 1 -7.1849 9.14985 5.40379 21
157 1 14.3604 7.27082 -8.52622 12
158 1 7.41376 11.1131 -3.06515 20
159 1 -3.83187 17.1729 4.01804 14
160 1 9.31557 10.2632 0.507663 19
161 1 -3.97743 9.88278 -5.8571 18
162 1 3.8549 18.0186 -7.94906 9
163 1 4.56418 9.02544 -13.2766 13
164 1 -11.4273 -12.6447 2.2644 14
165 1 -14.5032 9.98991 -0.533717 14
166 1 -5.01671 -3.04202 -15.2218 16
167 1 0.32054 -9.93438 -15.37 13
168 1 6.56697 15.5838 8.87718 12
169 1 -0.564235 17.1565 5.47557 14
170 1 -14.6269 -3.31913 -4.95718 18
171 1 -9.2249 11.3964 5.902 17
172 1 16.01 -3.28016 -2.76689 11
173 1 -11.3763 2.38054 -13.0647 13
174 1 6.24598 5.50345 17.3167 15
175 1 5.1748 18.6817 2.97935 11
176 1 -6.61889 7.32479 7.88877 22
177 1 1.8612 -6.91512 -15.7423 14
178 1 -6.41855 13.3777 9.12148 18
179 1 -2.28983 11.3647 -8.2265 21
180 1 1.63259 -3.02162 12.8267 14
181 1 -14.6911 -3.03744 7.20801 19
182 1 -4.14503 -11.6803 -13.7546 12
183 1 -10.9632 13.315 -9.89496 6
184 1 -2.96518 -9.6786 4.81771 21
185 1 1.09332 -17.6575 -6.95921 9
186 1 -2.48769 11.7786 -11.2579 13
187 1 -16.8555 2.12889 8.0189 11
188 1 1.85047 10.9969 -1.46776 21
189 1 11.9975 13.0857 -4.39375 11
190 1 -4.76485 6.3697 13.0451 19
191 1 -3.39729 -9.7148 7.53741 22
192 1 -8.89913 7.13431 -1.29137 20
193 1 -1.31512 15.9331 2.26954 19
194 1 0.024706 7.62092 11.6398 19
195 1 12.6463 4.41639 12.6482 17
196 1 -7.12849 16.9758 4.59974 10
197 1 9.87963 -7.60356 -8.94027 18
198 1 -6.66616 14.4505 12.452 9
199 1 -7.01783 0.620154 -9.3236 20
200 1 11.0425 -9.29705 2.82983 9
201 1 -5.84198 -4.84217 6.91324 22
202 1 -16.4512 -1.05471 6.13839 11
203 1 -10.8938 -14.9558 0.463579 10
204 1 3.68025 5.38032 15.5088 21
205 1 -16.2627 -0.490516 -3.89163 15
206 1 -5.19002 -14.5123 -2.71512 20
207 1 -5.41179 -2.11901 -3.89564 22
208 1 7.07439 -9.25069 -3.44037 18
209 1 -3.17914 10.7365 4.689 18
210 1 -7.3278 1.18166 1.13423 16
211 1 1.58405 13.5411 12.1409 18
212 1 -13.0963 -0.868803 -4.36384 20
213 1 -7.91251 12.1575 -8.0312 15
214 1 -15.6837 -6.24519 -5.82854 13
215 1 -8.51684 -0.577178 10.3004 17
216 1 1.12083 -7.75819 1.14057 23
217 1 4.45416 -13.5075 6.62577 13
218 1 -12.4075 9.46046 5.17808 13
219 1 11.3295 2.93032 2.61677 19
220 1 6.59675 3.26503 -5.40027 18
221 1 -6.51995 -6.76943 -13.1508 18
222 1 6.29805 3.49902 9.16196 18
223 1 4.86883 -18.7332 1.98868 10
224 1 0.417909 11.0286 -9.21705 22
225 1 1.38823 -12.1541 -12.6758 15
226 1 10.7677 -2.56695 -12.527 11
227 1 2.18993 8.58643 -14.4904 15
228 1 -6.77095 -2.76505 -6.85845 23
229 1 -2.6562 16.4894 -7.35019 13
230 1 -10.367 -8.61819 12.5091 8
231 1 8.27674 19.5829 -0.871071 10
232 1 -4.65001 4.93662 16.9502 13
233 1 -7.563 15.9653 -3.367 10
234 1 7.46952 2.32874 6.66156 21
235 1 -4.63764 -5.79329 -11.1938 19
236 1 -5.57009 11.1178 -9.83748 18
237 1 1.9989 9.22037 -11.3981 20
238 1 -8.47228 -9.72671 4.84677 20
239 1 -8.87232 6.54844 6.36013 19
240 1 -7.93906 10.4052 8.8299 18
241 1 -1.65034 -9.32112 -7.48411 15
242 1 -6.52701 -17.1016 -3.31523 10
243 1 11.6896 -13.3145 -2.05098 10
244 1 2.93027 -5.37861 -3.7443 23
245 1 10.3956 8.78513 11.8559 17
246 1 8.14624 10.7273 -9.25915 15
247 1 -2.13654 11.3119 -0.997029 21
248 1 -12.4031 -0.393151 -0.319976 19
249 1 -15.7539 10.8767 -3.14733 11
250 1 1.13413 9.79818 8.77334 18
251 1 4.56093 -16.8075 -0.539416 16
252 1 13.2199 -1.89404 -2.80694 17
253 1 3.29577 12.0838 9.62485 20
254 1 -11.168 4.10779 6.64546 19
255 1 -8.91873 -5.65743 -2.03642 18
256 1 8.96482 2.2907 -12.1006 21
257 1 -0.303427 -1.09658 7.40202 23
258 1 6.97278 13.2065 -8.20453 18
259 1 0.91727 -7.82635 -3.83718 21
260 1 -2.9152 -2.60173 -11.991 20
261 1 1.94733 -17.6127 1.96182 15
262 1 4.78828 -0.938354 -5.42821 20
263 1 -10.0817 -1.22174 5.89942 19
264 1 1.38268 -17.2654 -0.799187 14
265 1 -9.11651 -2.08212 -9.12396 18
266 1 6.63632 15.8458 1.01148 19
267 1 2.29343 -1.01821 -16.8068 15
268 1 5.09938 2.05165 14.3419 18
269 1 14.8105 4.84935 2.51802 14
270 1 -4.16574 -4.80182 1.43438 20
271 1 9.1813 -4.68571 -10.4325 18
272 1 -2.28486 -7.64735 1.98818 18
273 1 -8.91658 -1.68277 -14.7638 12
274 1 -12.4185 3.08511 -8.50693 23
275 1 -7.21038 -13.3628 8.83348 11
276 1 11.952 0.230656 9.68935 20
277 1 7.86275 -6.9169 8.09201 14
278 1 -6.3675 -9.79708 -11.6787 15
279 1 0.884198 -5.93193 4.62813 22
280 1 -0.643742 9.4509 -12.3646 17
281 1 8.46886 13.4736 -0.37469 18
282 1 -8.28246 -6.94898 3.40123 19
283 1 0.271308 13.068 1.22107 21
284 1 -5.59417 -0.944178 8.57847 21
285 1 -11.0356 -9.32659 -9.65333 9
286 1 -5.99107 -2.56265 -12.3724 15
287 1 -3.61573 8.86395 -10.7712 21
288 1 -9.3041 -7.88733 -4.7157 18
289 1 -5.67972 -7.32665 1.07136 17
290 1 8.29462 -4.73625 -13.9883 12
291 1 14.5152 -1.21792 -7.58808 14
292 1 6.7135 7.7359 5.04791 17
293 1 -3.57358 -4.65436 -4.20409 23
294 1 -11.6959 -1.4972 9.04593 18
295 1 -4.18816 -8.48394 -1.29478 20
296 1 7.11958 8.04005 16.052 15
297 1 -4.47584 -14.8109 6.05796 13
298 1 -4.10273 -10.4014 1.81556 21
299 1 -1.51944 18.6385 -2.4735 12
300 1 9.22204 -2.1989 -16.254 6
301 1 -7.68889 -4.75848 -15.3682 9
302 1 -8.94242 -4.69934 8.62791 21
303 1 3.00398 5.85248 18.6263 13
304 1 4.30032 -5.841 -0.277547 22
305 1 -5.09159 -12.7706 -10.321 16
306 1 -12.8169 6.37563 -5.40523 18
307 1 5.34445 5.53649 7.39223 17
308 1 -10.8629 0.10266 -6.15683 17
309 1 -0.659371 8.60204 -9.44512 19
310 1 -5.63986 -7.95008 6.71236 19
311 1 3.95368 -11.6114 -6.80804 23
312 1 -4.99218 17.0775 -1.75432 13
313 1 1.83883 8.71767 4.08631 20
314 1 10.972 -0.698942 4.47712 18
315 1 -10.0503 4.08489 -0.761242 17
316 1 -2.48152 -6.75544 12.6783 9
317 1 -9.23808 8.85901 1.41796 18
318 1 1.03502 -3.32922 -11.7747 17
319 1 14.8639 9.29422 -1.29775 15
320 1 1.0805 -10.9899 0.0917548 23
321 1 -3.55034 -4.4755 14.5413 11
322 1 -16.2197 -6.39386 6.77163 11
323 1 -2.62998 -14.7583 -5.43327 21
324 1 -9.37063 7.2567 16.2123 10
325 1 -11.8857 8.43277 13.3176 11
326 1 -16.376 -4.64084 9.52386 9
327 1 -12.3585 -7.90963 9.7137 9
328 1 15.172 -5.08616 -0.311972 12
329 1 -11.3464 -9.95192 7.46037 14
330 1 9.13717 -2.5757 -8.19723 20
331 1 8.29023 -14.5586 -3.13244 13
332 1 4.87476 18.9645 -2.37375 10
333 1 -3.56389 -2.98075 4.31724 20
334 1 -9.94926 13.6071 -2.08065 14
335 1 -0.206485 4.53667 7.70008 21
336 1 12.619 13.8087 8.42659 11
337 1 -9.49027 -1.91937 0.544246 18
338 1 9.0711 -11.7498 -4.38504 18
339 1 -5.05067 15.5713 6.56458 17
340 1 -9.56243 4.06081 3.53461 20
341 1 5.90128 -8.14604 4.28839 20
342 1 11.804 -2.99005 6.56051 12
343 1 -3.1718 7.27921 6.74736 22
344 1 -7.39266 -5.02861 -4.31282 24
345 1 2.45289 -0.166256 13.4296 17
346 1 -4.0578 12.889 7.75428 21
347 1 7.66093 10.0729 13.52 14
348 1 -8.45753 13.6891 -5.01966 15
349 1 3.87596 -4.08136 -16.6552 13
350 1 -3.39625 3.28625 -6.49585 18
351 1 4.92651 -9.57816 -12.6203 14
352 1 -9.15397 2.67942 13.3413 18
353 1 -16.8736 3.54047 4.93182 10
354 1 -3.30594 -2.55482 -6.69218 22
355 1 -6.0767 7.92835 -4.0184 19
356 1 13.6072 -0.135271 6.73421 16
357 1 -13.0279 -12.308 -0.456466 12
358 1 4.60518 -6.40927 8.56568 20
359 1 -6.37909 -8.59014 12.1602 16
360 1 -12.1874 7.15251 -1.53953 21
361 1 -3.72561 -4.07177 10.0704 20
362 1 2.82549 -8.34419 -1.56485 23
363 1 -3.65173 -4.42192 -9.18123 22
364 1 10.4142 0.273137 -10.4808 23
365 1 4.14527 15.4093 3.71401 19
366 1 -8.68192 1.88902 -4.66745 20
367 1 1.52312 -6.87069 -11.8133 19
368 1 11.266 2.99407 -13.9303 11
369 1 -4.28485 -15.8354 -8.49677 13
370 1 -15.1268 -7.69326 -2.92825 15
371 1 -5.66142 -5.19444 -1.69708 20
372 1 10.4873 7.90561 15.3523 11
373 1 14.6047 3.4539 -0.970461 12
374 1 -10.8213 0.339051 -8.84927 20
375 1 -1.72634 14.6874 -0.71135 21
376 1 -16.7392 -0.145513 -7.15497 10
377 1 -10.0286 9.70143 3.99747 16
378 1 -7.4076 11.6751 2.97062 18
379 1 -6.77303 3.4565 3.56542 21
380 1 10.4172 8.82836 8.65526 20
381 1 11.2545 -0.0225659 -1.29384 17
382 1 9.82131 -0.362024 12.8186 19
383 1 10.0064 1.77644 -7.00243 16
384 1 -6.00694 -16.5509 -5.84573 13
385 1 -5.6838 6.16054 -1.56892 21
386 1 1.65262 -6.25902 -6.33904 19
387 1 -0.0661078 10.21 1.59843 22
388 1 -6.70429 2.87374 -7.28428 20
389 1 9.44259 -11.2237 3.82976 12
390 1 9.48618 4.43577 5.19391 20
391 1 -11.6969 -2.79068 -5.76311 16
392 1 -5.27479 -8.19057 3.7455 21
393 1 -8.8744 -3.24049 13.4862 14
394 1 -4.69122 14.8396 0.275578 18
395 1 -12.4824 -9.91099 -2.37842 19
396 1 4.9395 10.0512 14.9734 15
397 1 -10.1606 8.13164 -3.78945 21
398 1 3.07041 13.2147 -6.5274 18
399 1 2.37057 13.6647 6.35496 19
400 1 -18.1743 -2.66864 -2.05244 11
401 1 -4.05629 -8.13578 -6.55237 20
402 1 -9.49529 1.09303 7.58136 18
403 1 -16.2298 7.49542 -2.51297 12
404 1 3.07391 -8.39207 3.82084 18
405 1 -3.97185 -12.3242 -5.2014 20
406 1 15.258 10.9509 8.36033 9
407 1 7.39886 7.25128 -13.9395 15
408 1 -9.50238 3.45753 -9.93535 17
409 1 1.01058 15.9318 -7.52918 17
410 1 -10.1198 4.0259 -6.29352 16
411 1 -0.727457 -12.6079 3.2183 17
412 1 11.5587 6.53463 3.3633 23
413 1 1.69034 11.8353 -12.6569 12
414 1 -3.79964 1.3945 12.9671 18
415 1 -17.4976 1.6845 1.37715 11
416 1 -7.04214 -2.56011 4.60741 18
417 1 -3.36532 -12.0877 4.13649 20
418 1 -0.610264 -3.65104 -8.67702 17
419 1 9.17297 -10.5342 -9.59865 11
420 1 -2.963 -2.85221 7.23872 21
421 1 -10.3261 1.33457 1.19323 21
422 1 -17.3266 0.85639 10.9249 9
423 1 -15.287 6.49614 4.75099 12
424 1 1.42511 -9.66386 8.33165 18
425 1 -8.17262 4.90638 -13.1359 15
426 1 6.39063 -12.3186 -1.50037 20
427 1 0.259072 -8.80263 -11.0356 20
428 1 -6.20227 -6.61973 9.83234 21
429 1 6.07873 -5.06852 -5.15418 21
430 1 -4.51177 7.62002 -15.5487 10
431 1 3.34608 -13.3534 0.103357 19
432 1 -1.03267 13.0806 -3.48142 16
433 1 -13.3731 6.94193 6.68778 14
434 1 -2.47047 -1.19115 16.4404 12
435 1 -9.16275 -4.72609 -7.03276 20
436 1 -8.85145 -7.59345 6.62227 16
437 1 7.16401 -3.92397 9.328 16
438 1 8.11752 3.64602 -3.19645 17
439 1 -8.3188 0.314483 3.63184 19
440 1 3.39414 2.57914 -5.79 20
441 1 8.31699 -6.95864 2.58416 17
442 1 12.2692 10.3852 -6.01732 19
443 1 0.903824 1.72051 7.69341 22
444 1 1.24491 14.6275 -1.78572 19
445 1 5.22125 -3.3414 7.24008 22
446 1 -2.21755 -17.5285 -6.33207 15
447 1 -2.73434 6.81347 15.6171 21
448 1 -4.55316 15.7036 10.1784 14
449 1 -9.65772 -12.8749 -6.13916 10
450 1 9.29897 15.2316 3.5704 19
451 1 6.61945 8.57337 7.93465 20
452 1 -7.11461 2.11356 9.24114 22
453 1 -5.79074 -7.56674 -3.99973 23
454 1 -7.83024 5.31402 9.79447 18
455 1 -10.9574 -7.10668 -7.53636 19
456 1 -5.71926 5.74575 5.53318 22
457 1 -7.11662 -10.4063 -5.37428 24
458 1 -1.2694 -6.53329 -15.4697 19
459 1 -7.27452 -10.9578 0.445733 17
460 1 -7.36255 -3.35758 10.4066 18
461 1 5.90481 3.45185 5.06636 20
462 1 -6.42959 -2.35903 13.498 13
463 1 -10.4139 6.04658 -8.82359 20
464 1 7.63807 5.56939 -1.16971 19
465 1 -7.4797 -13.7084 -4.42074 16
466 1 -0.698314 4.37619 -8.84319 21
467 1 0.404488 17.5985 0.0906708 13
468 1 -0.159373 8.64169 -6.36391 19
469 1 -3.36471 8.5913 10.01 18
470 1 -14.6579 -1.48903 -1.94427 16
471 1 1.44212 16.9431 -3.23699 15
472 1 5.53487 11.5399 -6.38072 23
473 1 -6.8293 -4.85478 -9.45463 22
474 1 5.04603 2.58211 16.9561 15
475 1 -2.85553 -13.2952 -8.23758 22
476 1 2.27143 0.358792 -10.9972 22
477 1 5.94937 -15.8269 2.40314 17
478 1 -11.1983 6.51325 3.63281 17
479 1 2.11723 8.13956 13.9398 19
480 1 10.5807 9.37527 -3.94931 21
481 1 3.22507 10.3756 0.906117 17
482 1 -8.76337 9.05907 -8.89725 20
483 1 4.25958 5.27999 -5.72019 22
484 1 2.57616 -5.06696 2.40092 22
485 1 -12.9497 -3.20298 0.760179 18
486 1 -2.71808 15.6817 7.28228 16
487 1 -4.11811 9.78112 -13.5331 12
488 1 6.52485 7.98723 0.0303456 17
489 1 6.8877 18.1537 -6.32546 12
490 1 6.19002 -5.47858 2.12606 22
491 1 15.5698 0.318343 -1.6205 11
492 1 2.91997 3.36397 -12.4769 19
493 1 0.881294 -5.57117 -1.02811 21
494 1 1.79591 -13.8143 7.56118 10
495 1 4.07981 -11.1452 8.66102 11
496 1 -5.23418 5.99576 -6.70048 20
497 1 -10.4679 -14.9177 4.16454 10
498 1 -2.77751 -10.1865 -9.94049 19
499 1 2.97948 16.7804 5.73924 13
500 1 1.73588 6.46174 -10.4379 18
501 1 7.33074 -0.0188276 15.1895 12
502 1 -15.8615 3.50513 10.9295 10
503 1 -2.09057 -13.2141 0.160127 20
504 1 -16.4772 -5.64439 1.99778 11
505 1 14.5086 -8.87142 -5.20311 10
506 1 6.42879 -3.55305 -1.00483 21
507 1 -7.63676 5.2094 -3.82006 17
508 1 3.16997 -8.78207 -8.36955 19
509 1 4.48829 5.089 -9.01654 19
510 1 11.1644 -4.0795 -4.15614 19
511 1 -3.61604 1.6304 16.4537 15
512 1 3.5008 13.1762 0.30596 16
513 1 -4.2675 -0.53693 -17.5254 9
514 1 6.31355 3.75975 -13.3332 23
515 1 -8.64542 -2.08613 7.60199 20
516 1 -2.8835 17.5231 0.188165 15
517 1 -6.52163 0.188881 -14.6872 18
518 1 -15.1574 -1.24705 2.73013 15
519 1 -3.02963 -9.40593 -16.2275 11
520 1 -6.25876 -9.82112 8.87924 22
521 1 3.90086 12.5703 -2.88219 19
522 1 13.7626 5.50438 10.0211 15
523 1 9.68098 6.1354 1.2303 18
524 1 -11.1258 -7.25092 -1.00933 17
525 1 -0.90521 -8.29726 -1.27349 21
526 1 -0.370659 -3.18695 -14.3698 18
527 1 -12.6184 8.51448 9.68468 13
528 1 2.02113 -2.26797 -8.5708 19
529 1 3.27098 8.22376 -1.29467 22
530 1 9.58931 -3.566 -1.59322 17
531 1 1.55589 13.979 -4.42007 18
532 1 5.69969 -6.90833 -2.67368 22
533 1 12.1735 8.23894 -1.27104 22
534 1 2.84908 12.6239 14.4189 13
535 1 -8.0625 4.06455 6.60734 21
536 1 4.19923 14.1582 11.1596 13
537 1 7.83377 2.72795 16.4945 15
538 1 -0.45207 2.50333 -14.1596 18
539 1 -5.27634 -5.25473 -6.68413 22
540 1 5.07278 0.735906 11.185 17
541 1 5.55072 12.2363 7.83179 19
542 1 8.79863 7.74882 -11.1175 17
543 1 -10.8573 12.2659 -6.76383 11
544 1 -2.99961 13.5858 -6.08123 18
545 1 12.4551 -1.40378 12.3421 12
546 1 12.9088 0.315252 -11.9698 12
547 1 12.4707 -10.7298 -4.85865 14
548 1 9.3402 14.8236 9.22311 13
549 1 -13.5309 -6.07763 -0.142043 19
550 1 -9.01554 11.933 -11.5721 10
551 1 -1.42366 1.82564 9.26464 20
552 1 -15.9941 -2.01698 12.021 10
553 1 -4.43146 13.3742 -8.57451 14
554 1 1.55126 -9.72209 -5.82263 20
555 1 3.39546 0.13417 -8.09712 20
556 1 -4.20969 18.0077 -4.42135 9
557 1 -9.38153 -6.81259 -12.7436 8
558 1 3.978 -16.5222 4.58293 15
559 1 -17.7395 -3.11133 -5.54122 11
560 1 3.10465 14.6824 -12.7391 8
561 1 -6.43996 0.782934 -4.35121 19
562 1 -3.89567 9.48772 17.0292 16
563 1 -13.4269 -5.99957 7.58926 18
564 1 5.33712 7.2044 -2.7875 20
565 1 2.88806 -11.198 -9.71885 21
566 1 0.979746 -3.09955 9.5642 19
567 1 7.88407 -2.84194 -4.7189 19
568 1 -12.9666 3.74084 -0.502575 22
569 1 1.90917 3.467 17.2938 18
570 1 7.529 20.511 -3.92829 8
571 1 11.5127 -7.15814 -0.161129 16
572 1 2.0162 10.1193 12.1146 20
573 1 4.69875 6.25789 -15.0997 15
574 1 -6.10729 -11.4366 11.0626 11
575 1 -1.35758 0.25315 -11.6657 18
576 1 5.93808 -0.93654 -15.8523 13
577 1 4.14924 9.43669 9.68224 20
578 1 10.2157 5.40695 -9.09182 19
579 1 -3.54859 -5.63868 -13.8258 19
580 1 -4.18946 -9.96748 -3.94656 21
581 1 -10.0729 -4.68979 -9.6783 15
582 1 13.5097 0.884876 0.897689 13
583 1 14.3586 6.10181 -2.5612 17
584 1 9.21558 -7.21865 -5.869 21
585 1 12.2727 8.86909 5.45886 18
586 1 4.48801 -10.943 -1.33033 20
587 1 7.15211 4.89566 -15.9002 12
588 1 5.99057 13.4073 2.8513 17
589 1 -7.58897 4.7666 0.801017 21
590 1 10.2358 12.0242 10.1631 12
591 1 12.0128 7.18707 -6.31754 21
592 1 12.5687 -4.60661 -0.778472 20
593 1 13.2213 4.08773 -8.36139 17
594 1 10.5111 2.72804 11.3268 25
595 1 13.0145 8.55552 9.7252 14
596 1 -0.94419 -4.7027 7.55036 17
597 1 14.1576 8.31267 -4.60439 17
598 1 3.24395 0.483514 16.6164 12
599 1 15.3365 -0.5811 -4.38511 16
600 1 10.5812 6.13674 10.5222 23
601 1 -7.82385 -0.344603 -6.91193 21
602 1 14.4274 7.24362 0.832879 17
603 1 9.85802 -3.99966 4.2727 16
604 1 -2.30672 -5.16932 -1.47085 21
605 1 -13.5301 6.72635 11.7796 12
606 1 7.11483 12.6722 10.6654 15
607 1 9.94166 3.63761 8.51548 18
608 1 -0.857487 11.478 12.4841 17
609 1 -8.40701 11.1229 12.1379 13
610 1 3.0097 4.81618 6.59219 19
611 1 -1.0427 -17.4485 2.03696 11
612 1 -7.05394 9.74422 -5.77324 15
613 1 13.3391 10.1155 -9.62265 11
614 1 11.8665 -5.53579 -10.3354 12
615 1 4.38906 15.8376 -2.65833 15
616 1 -0.0569207 -14.3191 -6.71796 22
617 1 9.47667 -7.6824 -12.2068 12
618 1 -15.4648 1.39537 5.14248 16
619 1 -6.88135 6.40823 -9.88009 21
620 1 -3.90544 -15.8761 -0.381214 15
621 1 -5.34524 -1.81364 -9.33548 23
622 1 -14.5989 5.04091 -2.99956 21
623 1 10.8734 -12.7147 1.3529 13
624 1 8.64568 12.2331 2.60538 19
625 1 3.58071 -7.32791 11.8445 9
626 1 -15.4854 -3.28773 -7.81531 13
627 1 4.23223 0.577365 -13.7694 20
628 1 2.60173 -1.08482 7.44759 21
629 1 0.557673 4.52552 11.3402 19
630 1 7.12666 10.3555 -12.1301 11
631 1 13.0007 1.95003 14.0429 10
632 1 7.42491 9.32838 -5.11037 15
633 1 11.6899 16.5637 1.44288 10
634 1 0.339984 -11.6001 -7.62798 18
635 1 -10.8244 0.24119 12.0218 14
636 1 16.2236 2.69254 8.83872 12
637 1 -2.77241 11.931 15.3328 14
638 1 8.80741 15.7234 -6.02323 13
639 1 -10.8997 9.68592 -0.985882 22
640 1 8.54328 8.48289 2.43082 19
641 1 -9.79496 -11.0666 -0.727528 20
642 1 10.3878 -4.63526 1.25878 17
643 1 6.36318 16.9061 4.6708 15
644 1 -1.44739 6.13927 9.23192 21
645 1 -11.2703 -6.1041 4.7053 17
646 1 -12.5972 -2.59528 -9.24112 15
647 1 7.68887 5.38179 10.8989 21
648 1 -1.09397 -11.946 9.38276 14
649 1 8.15528 7.03779 13.317 18
650 1 -5.45723 13.6941 2.91427 15
651 1 9.72255 3.22743 0.073879 16
652 1 4.36412 5.64364 3.6754 19
653 1 1.25397 5.14299 -13.8155 17
654 1 -6.68644 0.532653 6.28158 20
655 1 7.3319 -0.0644068 -9.68475 18
656 1 -0.415314 -2.21115 -6.07337 21
657 1 7.01198 -10.0273 -6.49894 20
658 1 8.31179 6.5548 8.33537 24
659 1 3.73946 8.10886 6.51206 24
660 1 -7.51029 5.51028 14.3576 17
661 1 8.68042 11.4044 7.2855 24
662 1 -2.25517 -1.05324 9.99697 21
663 1 0.0462573 7.14891 16.8031 20
664 1 1.51171 -0.335803 -13.6356 18
665 1 -6.24735 3.71989 11.7976 19
666 1 9.14527 4.49431 13.2749 20
667 1 -8.12345 -15.497 7.22586 8
668 1 12.5799 10.9912 0.0507712 20
669 1 7.33018 -11.4245 1.06721 18
670 1 -1.60143 5.73572 -6.29584 17
671 1 10.1607 12.0913 -1.98008 19
672 1 9.02705 16.2131 6.58732 11
673 1 7.59318 1.3559 -15.3334 11
674 1 -3.20918 0.872711 7.32175 21
675 1 6.7795 16.5508 -1.96514 18
676 1 11.3138 8.74979 1.70864 21
677 1 -7.53975 -8.87491 -2.29514 19
678 1 -0.842437 0.720105 -17.0436 11
679 1 -12.7516 12.1747 -1.08628 14
680 1 6.51552 -8.11063 -8.45888 17
681 1 6.75543 5.63189 2.68338 20
682 1 12.3279 6.69869 -10.727 15
683 1 12.0523 14.341 -0.733672 14
684 1 -2.38863 5.61343 4.52924 23
685 1 -11.0124 6.04577 0.413015 20
686 1 7.68685 6.72141 -4.62758 21
687 1 12.1889 5.21446 15.6679 12
688 1 9.98913 2.13147 14.7827 15
689 1 -0.981516 -11.2125 6.17807 17
690 1 -6.64996 9.30498 -11.3149 16
691 1 -1.66938 14.1708 10.6063 18
692 1 6.8259 -7.34053 -14.5006 10
693 1 3.13945 2.81877 10.5244 17
694 1 9.18047 18.2027 -3.67006 13
695 1 7.45878 13.7258 5.46668 19
696 1 13.5008 -3.16919 -5.6575 18
697 1 3.7049 7.87226 17.1581 15
698 1 -12.5116 -4.2536 9.5439 19
699 1 5.87361 -13.4524 3.19966 16
700 1 -2.57486 -1.29184 -9.19576 22
701 1 -9.0946 15.473 0.984809 8
702 1 -4.74574 7.84085 3.66894 17
703 1 5.6828 -2.70099 -8.3206 21
704 1 3.09098 12.353 3.57146 21
705 1 -12.8451 1.32487 7.27699 14
706 1 1.99616 2.81097 14.3431 18
707 1 -6.87132 7.87839 -14.1704 12
708 1 -9.47686 7.77175 -11.5998 16
709 1 1.8901 -12.8453 -4.31781 21
710 1 11.1284 8.44799 -9.01567 19
711 1 4.41124 -5.51475 4.90817 20
712 1 -2.79678 9.26216 1.3494 21
713 1 -15.4189 4.24274 13.2621 6
714 1 4.44909 -1.43247 -10.8801 19
715 1 1.48692 -10.3072 11.2027 8
716 1 -1.05303 15.9692 -4.52224 20
717 1 -0.715541 2.04334 12.5858 17
718 1 -7.33402 -7.79472 -6.87891 22
719 1 -4.55893 -5.92019 -16.6933 11
720 1 -8.48908 -10.2471 -8.13968 14
721 1 0.15028 18.3031 -5.69 11
722 1 4.50504 -5.73956 -7.88573 22
723 1 -4.9487 10.3654 7.76171 18
724 1 4.47931 -13.7864 -3.55332 18
725 1 7.30207 -17.2387 -0.476057 8
726 1 2.47173 -4.67419 7.06243 20
727 1 15.5421 2.09406 -7.23187 11
728 1 0.783484 -14.2191 -1.09878 20
729 1 -14.2315 -0.00194704 12.2762 13
730 1 -0.0249796 2.92724 -11.8097 21
731 1 -3.27365 -17.4051 -3.53862 15
732 1 -11.602 -10.1453 -5.9681 15
733 1 -9.63415 2.9448 10.0819 19
734 1 -7.18845 -15.6916 -0.205423 13
735 1 14.5154 6.00244 -5.887 15
736 1 -6.66807 12.6412 5.85479 23
737 1 -5.1143 2.96109 6.99332 19
738 1 -14.4437 9.22895 3.22802 9
739 1 8.36082 -3.34091 7.03345 19
740 1 -12.6813 0.889665 -10.875 14
741 1 -1.22044 9.26001 -3.51152 19
742 1 7.30138 5.84387 -7.53532 22
743 1 4.82788 11.3587 11.9849 19
744 1 10.5069 6.11664 -3.38067 20
745 1 -16.2153 2.34912 -5.36244 13
746 1 -13.7653 -8.59808 -7.58853 11
747 1 -5.67799 7.35125 16.7921 15
748 1 4.81982 7.92649 -9.72539 18
749 1 10.6992 12.9251 5.32558 17
750 1 -2.5282 4.31909 11.1568 22
751 1 0.0115203 -15.8401 -3.97971 22
752 1 -4.1621 -12.4133 8.17695 17
753 1 -3.30109 -6.31404 8.14161 20
754 1 12.2142 11.0032 7.88963 18
755 1 1.21136 -5.53346 -9.0835 22
756 1 -7.91848 10.6879 -0.307716 19
757 1 4.69315 9.85878 3.33684 18
758 1 -12.9328 -3.86266 3.89891 19
759 1 9.4536 5.02962 -12.6931 22
760 1 2.66703 -14.3987 -10.4137 12
761 1 2.7793 -14.8071 2.31448 19
762 1 -0.803111 -12.8932 -3.45033 19
763 1 6.79945 4.87194 -10.6124 19
764 1 8.66131 18.0441 2.67691 11
765 1 -3.09384 -0.267578 -14.5296 19
766 1 0.916746 -2.30388 16.2565 10
767 1 -3.51439 5.39701 -8.98319 21
768 1 -11.506 -0.085523 -14.538 8
769 1 -13.2323 -5.3804 -3.0926 15
770 1 3.73723 18.3844 -5.10617 11
771 1 8.09508 -0.516886 -0.820366 16
772 1 -2.65986 -3.59938 -16.5952 14
773 1 -7.42372 -4.97872 0.357905 21
774 1 9.96683 4.90414 -6.35922 22
775 1 7.89169 -6.25749 -0.869691 19
776 1 -6.51278 8.24396 10.6746 20
777 1 7.07475 -11.2541 5.01818 14
778 1 14.3262 -7.95998 0.0670641 13
779 1 16.0325 -0.551404 11.6 7
780 1 -1.77994 9.91493 7.07828 18
781 1 -10.9369 5.53883 14.339 10
782 1 -10.6873 5.4687 11.5387 17
783 1 -1.12154 -14.0062 6.95355 12
784 1 11.0892 -1.22715 1.91851 17
785 1 4.81785 7.78754 13.1442 20
786 1 -16.6311 -0.993579 0.110334 13
787 1 11.6401 -9.97491 -0.914126 16
788 1 -10.8509 11.4067 -3.83999 20
789 1 0.936476 5.37516 3.86148 18
790 1 0.854179 -16.2684 5.04285 11
791 1 7.6861 1.97646 12.2223 21
792 1 1.86516 17.634 2.80352 14
793 1 2.62966 -8.09797 6.46879 18
794 1 -9.27631 -1.89704 -4.45296 22
795 1 2.87728 5.7944 12.7507 19
796 1 -16.382 -6.41672 -0.717468 10
797 1 -1.47635 10.0337 17.7035 13
798 1 5.93432 11.1394 -0.871982 17
799 1 -14.1126 -9.5727 6.93543 12
800 1 -3.13726 -14.944 2.53049 17
801 1 7.16932 -5.42212 5.29499 19
802 1 10.4564 -2.12034 9.75572 18
803 1 7.19035 10.6121 5.30553 18
804 1 -3.42352 6.43368 -3.58528 22
805 1 -1.88294 -7.30106 -9.43718 20
806 1 -5.09955 3.11792 -13.7325 19
807 1 -5.96084 -0.633248 16.9393 9
808 1 -2.36149 13.9996 4.93789 22
809 1 13.7298 1.18629 3.78739 15
810 1 1.42967 10.5058 -4.91753 18
811 1 -5.9928 9.13818 14.241 18
812 1 7.77323 9.60144 10.3094 21
813 1 6.92053 -2.92368 -11.3769 14
814 1 -6.48886 -11.3803 -2.49718 20
815 1 -4.87511 0.116209 -6.66463 25
816 1 11.8045 6.15928 7.1937 18
817 1 0.0174422 0.824999 -9.05157 22
818 1 -2.16233 6.72416 18.5765 14
819 1 6.4342 -13.1268 -5.16492 15
820 1 10.0456 6.39061 -15.0442 7
821 1 -2.17795 -7.57796 -3.92782 22
822 1 11.918 3.22732 -10.8146 16
823 1 13.9792 -5.33559 2.2657 10
824 1 1.85212 -6.40686 9.27727 16
825 1 -5.57928 -9.62815 -15.0894 10
826 1 9.26425 16.6902 -0.415362 18
827 1 -2.98628 -6.28161 4.66955 22
828 1 -14.2614 6.60754 1.36991 16
829 1 12.6194 4.37389 -4.44576 15
830 1 16.6492 9.1007 1.88199 10
831 1 -1.19213 -5.52031 -11.8122 23
832 1 -9.3992 13.537 7.58961 10
833 1 12.2422 13.0934 2.42359 16
834 1 9.61671 8.55187 -6.84516 20
835 1 3.72517 4.60322 -18.0061 4
836 1 8.63971 -6.01003 -3.7652 21
837 1 -13.9885 1.15514 1.34687 21
838 1 8.19423 2.96996 3.21214 18
839 1 -15.4329 -9.96441 -1.14764 10
840 1 -13.6767 5.89526 -8.76017 17
841 1 4.98222 6.9327 9.92579 17
842 1 -13.783 0.0399087 -7.70178 18
843 1 -14.6218 4.39688 6.80239 14
844 1 -2.87108 3.29895 -11.5472 22
845 1 10.8504 -9.72097 -6.71994 14
846 1 -14.4334 -10.3927 -4.67781 11
847 1 12.7408 -7.75655 -2.3868 19
848 1 -15.5146 3.88077 2.62607 15
849 1 -10.6485 -4.8437 -4.07636 21
850 1 12.9811 3.00434 8.23959 19
851 1 -9.69652 -10.0621 2.00681 17
852 1 9.34358 5.24778 16.8241 14
853 1 16.8257 1.03079 5.79775 8
854 1 8.47837 0.319412 4.58158 19
855 1 -11.8846 3.18019 2.36127 16
856 1 -3.73716 9.50423 13.2334 21
857 1 4.73583 11.1826 -9.49876 18
858 1 0.830149 -4.00889 -17.0032 12
859 1 -7.71269 16.1972 7.81212 11
860 1 -11.786 -12.2546 5.56665 15
861 1 8.43469 14.6635 -3.26779 16
862 1 -1.03834 8.96001 14.9968 20
863 1 14.6279 -5.72005 -4.13844 13
864 1 4.59062 -4.39508 10.918 14
865 1 -1.29739 14.264 -9.03015 19
866 1 6.23743 14.2277 -5.02449 17
867 1 -3.34361 -1.59726 12.8618 17
868 1 15.5587 3.60805 5.75047 13
869 1 -4.76986 0.437858 -11.7017 22
870 1 14.4545 12.6493 -0.247606 9
871 1 -15.3328 1.71598 -1.62276 18
872 1 -8.006 -13.4763 5.56405 22
873 1 6.94011 16.2611 -8.87069 11