ITEM: TIMESTEP
64000
ITEM: NUMBER OF ATOMS
500
ITEM: BOX BOUNDS pp pp pp
-30.0 30.0
-30.0 30.0
-30.0 30.0
ITEM: ATOMS id type x y z Coordination
1 1 24.8321 -13.3708 14.8309 12
2 1 19.2315 -5.59675 16.1953 15
3 1 14.0632 -9.61707 0.170345 22
4 1 8.4631 -8.03136 5.75985 14
5 1 19.763 -6.94873 -1.76566 15
6 1 24.808 -15.8771 5.87989 13
7 1 21.8523 -8.17694 16.7075 16
8 1 19.8313 -2.57898 15.7391 15
9 1 8.02931 -10.7367 7.29588 15
10 1 24.4296 -10.3794 6.2596 14
11 1 21.6663 -10.3401 15.0071 21
12 1 11.5999 -17.8443 11.6701 13
13 1 14.1211 -13.3994 -1.5329 14
14 1 19.8811 -13.5631 -1.02811 11
15 1 21.9266 -15.7986 11.3328 18
16 1 16.615 -0.918383 10.3437 21
17 1 20.476 3.40274 7.34106 9
18 1 14.8635 -11.5643 -3.16225 13
19 1 16.9696 -4.20289 14.8957 18
20 1 13.5798 -1.85618 11.9319 18
21 1 18.764 -1.56689 1.41962 17
22 1 21.7589 -1.22547 10.4445 16
23 1 14.3747 -1.42861 5.17082 23
24 1 14.7655 -4.62037 0.390092 20
25 1 13.796 0.971829 2.67302 13
26 1 10.7582 -1.11742 9.73826 18
27 1 16.8399 1.9693 8.56809 13
28 1 12.6334 -4.78279 -2.58899 9
29 1 13.2833 -14.7434 12.7063 23
30 1 21.8858 -17.8269 6.314 16
31 1 8.47044 -10.5502 3.57599 12
32 1 17.4285 -19.2743 10.3288 9
33 1 22.9635 -0.988849 4.5361 16
34 1 12.7374 -12.4827 1.27194 21
35 1 20.7683 -4.22998 -2.429 12
36 1 15.6405 2.14753 4.93402 14
37 1 7.88411 -6.54022 8.40365 14
38 1 20.7216 -0.197108 13.826 11
39 1 18.5177 -11.351 16.7765 18
40 1 19.4716 -18.0479 3.86566 16
41 1 21.9765 -8.69439 1.83473 18
42 1 21.3571 -11.3811 18.0958 12
43 1 20.6047 -14.2177 16.7856 9
44 1 24.1154 1.35167 4.05502 11
45 1 13.1498 -15.7598 9.53543 21
46 1 15.0065 -19.9466 7.43863 9
47 1 10.2054 -7.01012 16.408 10
48 1 8.06715 -6.11237 11.3511 11
49 1 18.9621 -19.0775 7.55273 14
50 1 8.4562 -9.03431 10.494 15
51 1 13.9281 1.78065 7.38799 16
52 1 10.8632 -9.59085 15.7014 13
53 1 14.3643 -1.83083 15.1433 12
54 1 10.2602 -12.536 3.18959 12
55 1 9.68102 -3.27843 2.93128 10
56 1 11.9019 -10.6891 -1.69855 12
57 1 24.2326 -10.613 16.6616 12
58 1 15.45 -12.8916 16.7107 14
59 1 14.1624 -8.22173 -3.16305 13
60 1 8.23379 -13.7395 5.6488 13
61 1 16.2508 -15.1431 10.9853 20
62 1 11.2592 -3.41096 15.3042 11
63 1 16.1774 -17.4973 1.87187 14
64 1 21.6728 2.4871 4.34463 9
65 1 10.1069 -5.86196 0.481002 8
66 1 7.84113 -3.24457 8.96983 11
67 1 15.6307 -14.5037 1.62344 21
68 1 22.4155 -15.9949 14.6653 9
69 1 9.16148 -1.02057 7.05997 15
70 1 13.1193 -8.0803 17.9269 13
71 1 10.7736 -6.80291 13.3529 20
72 1 12.3304 -15.2951 0.589329 10
73 1 12.4513 -16.8865 14.8835 11
74 1 18.0163 -15.7736 3.30256 20
75 1 19.3539 -10.0089 -0.125151 17
76 1 23.9475 -13.928 11.5524 18
77 1 10.7654 -17.8149 5.50339 12
78 1 8.22494 -12.6959 12.0669 11
79 1 24.4013 -7.55833 15.2244 15
80 1 26.0709 -2.64008 7.66801 12
81 1 19.1714 -4.29222 0.386288 22
82 1 15.3744 -2.78798 -2.55523 10
83 1 18.7363 1.48587 6.19959 16
84 1 21.2479 -2.10696 -0.341362 12
85 1 18.6925 -16.6011 9.73694 20
86 1 21.1003 -15.043 4.8372 23
87 1 16.6542 -17.9742 5.2789 19
88 1 8.58262 -4.35114 6.20626 17
89 1 23.7686 -7.65056 7.22992 20
90 1 12.6639 -1.6984 1.97047 14
91 1 23.5723 -13.6084 3.3913 16
92 1 10.9634 -12.6675 14.1548 16
93 1 13.7126 -19.5791 4.20574 9
94 1 14.9374 -16.5184 -0.799753 11
95 1 22.1609 -15.75 8.35366 21
96 1 11.6253 -14.7752 3.94806 18
97 1 15.6975 -10.031 18.0673 16
98 1 16.1325 -7.08656 16.8807 17
99 1 22.7219 -17.1453 3.61019 11
100 1 21.0888 -0.855753 7.39622 18
101 1 22.0714 -11.7227 0.333512 13
102 1 16.9369 -8.84157 -2.08989 17
103 1 10.4027 -3.91497 11.7113 17
104 1 18.4226 -13.621 14.3273 20
105 1 12.4519 -7.18916 -0.755226 17
106 1 25.8061 -11.7662 11.4433 9
107 1 22.513 -5.11368 16.015 16
108 1 15.8803 -15.4594 14.6049 17
109 1 24.5259 -2.74133 10.4885 13
110 1 23.6649 -4.70675 13.2437 16
111 1 23.4086 -2.19344 15.3992 7
112 1 15.2026 -5.60601 -2.09017 14
113 1 13.5863 -16.1092 6.01033 21
114 1 10.9143 2.01855 8.63196 9
115 1 25.6568 -2.11779 4.3967 11
116 1 18.9256 -8.76274 18.2133 13
117 1 16.8425 -14.2874 -2.32483 11
118 1 23.7336 3.26319 7.21622 10
119 1 21.1637 -14.7905 1.62125 17
120 1 23.5242 -13.7314 17.086 10
121 1 13.0364 -5.10633 16.9927 11
122 1 24.2556 -8.29964 11.3151 18
123 1 15.2812 -0.91751 0.414863 15
124 1 24.5993 -7.61758 3.82816 14
125 1 13.0869 -11.0796 16.602 15
126 1 12.5062 -14.5668 16.2085 11
127 1 13.9261 1.05937 10.4855 14
128 1 18.7515 1.42118 12.2029 12
129 1 9.94997 -15.4937 13.5138 13
130 1 24.0657 -10.9405 9.32495 17
131 1 11.9609 -18.4419 8.32315 14
132 1 25.7389 -5.55926 12.1658 10
133 1 24.4091 -16.7974 9.47304 10
134 1 21.7516 2.11249 9.88104 13
135 1 8.93426 -16.9791 7.92955 9
136 1 17.8808 -2.28988 -1.68625 15
137 1 11.3283 -9.53279 1.47042 16
138 1 18.3477 -15.5882 0.25129 17
139 1 12.9773 -17.6654 2.44219 14
140 1 24.2874 -13.7822 8.61362 17
141 1 8.14552 -14.2005 8.44239 12
142 1 17.654 -5.34542 -3.36117 13
143 1 11.0694 -15.0619 7.09386 22
144 1 24.1738 -10.9495 13.4381 18
145 1 16.8138 -11.8513 -0.317175 20
146 1 11.3053 -1.24201 13.471 9
147 1 8.36976 -8.71561 13.4905 10
148 1 25.2826 0.30718 6.74359 12
149 1 24.6932 -5.04767 5.85059 17
150 1 14.9961 -17.4951 12.6562 15
151 1 22.4667 -5.25102 0.726745 13
152 1 20.6671 0.374923 2.53879 13
153 1 24.2119 0.187315 9.21094 12
154 1 16.8943 -0.260442 3.30052 19
155 1 22.5585 -2.76167 2.51122 16
156 1 25.5474 -12.888 5.66303 10
157 1 17.3738 -1.21217 13.7314 13
158 1 12.2102 2.77682 5.24541 9
159 1 14.9226 -18.2613 9.61575 14
160 1 21.2189 -18.5434 9.1191 11
161 1 10.1529 -15.0939 10.7171 17
162 1 11.4814 -0.1471 4.34887 15
163 2 11.2878 -10.973 9.47909 22
164 2 20.6798 -1.43026 12.2959 18
165 2 10.2362 -10.5501 2.662 15
166 2 13.1962 -17.216 13.0752 14
167 2 13.8145 -9.86727 17.9654 15
168 2 12.3444 1.59115 9.91301 12
169 2 22.2332 -15.4103 2.96637 15
170 2 13.7351 -6.07216 -0.0407323 21
171 2 15.9082 -12.5404 -1.86305 13
172 2 17.3728 -1.93913 11.8014 21
173 2 24.7973 -12.8138 10.1984 15
174 2 24.6707 -0.170463 5.064 12
175 2 18.7922 0.252381 13.7887 12
176 2 22.0203 3.40549 8.31036 11
177 2 20.4018 -0.5635 0.896251 11
178 2 18.4689 -14.664 -1.48693 12
179 2 8.70583 -6.37023 6.64744 17
180 2 15.3173 -15.3891 12.6933 19
181 2 7.62355 -5.10723 9.59403 13
182 2 24.7543 -14.2275 4.72911 15
183 2 13.7989 -19.1591 8.38784 11
184 2 18.7569 -3.54542 14.34 19
185 2 19.3944 -13.1847 15.9478 15
186 2 12.2049 -14.5766 10.8351 23
187 2 19.0917 -18.6923 9.50442 13
188 2 10.3834 -18.1907 7.42199 11
189 2 14.8357 -19.7226 5.64723 10
190 2 11.6964 -16.0785 5.60369 16
191 2 14.2682 -0.779642 10.5173 19
192 2 22.8535 -2.97993 10.3046 16
193 2 21.8131 -5.1461 -1.2415 10
194 2 24.7385 -3.92639 11.909 12
195 2 19.1104 2.37967 8.22246 14
196 2 12.9865 -1.28858 14.1012 11
197 2 16.6652 1.30599 6.63824 18
198 2 16.7688 -1.43915 1.7295 19
199 2 16.2803 -2.16461 14.9792 14
200 2 16.8407 -8.46319 17.9957 15
201 2 21.3484 -13.6526 0.241332 14
202 2 16.5998 -16.2803 0.268977 15
203 2 8.70156 -15.1963 6.77607 14
204 2 24.5197 -15.6373 7.81906 14
205 2 20.4549 2.51066 5.77366 11
206 2 15.7492 -10.3747 0.267152 22
207 2 15.1268 -15.2868 -2.05752 12
208 2 12.5323 -10.892 0.0912394 15
209 2 19.1205 -14.809 1.67394 20
210 2 21.334 -9.71598 0.313113 16
211 2 19.0234 -8.88806 -1.77558 12
212 2 12.1753 -18.1967 3.9788 11
213 2 16.8697 -4.63595 0.484307 24
214 2 12.6694 -17.5204 10.1377 16
215 2 11.5784 -4.65012 7.20842 20
216 2 10.2439 -16.5877 11.9269 13
217 2 7.8736 -12.4776 7.73472 12
218 2 23.6166 -14.6337 13.9956 13
219 2 22.1612 0.00559435 9.15531 17
220 2 14.2786 -9.97383 15.4223 20
221 2 9.72777 -5.66039 12.3644 13
222 2 13.1893 -9.0697 -1.72537 17
223 2 25.3294 -3.07891 6.0353 14
224 2 8.82848 -13.5769 10.4271 15
225 2 10.8179 -1.85359 2.84709 12
226 2 19.4135 -6.3181 0.0292755 21
227 2 8.08509 -2.65178 7.08163 11
228 2 22.8334 -17.5714 8.9253 12
229 2 17.8954 -17.6375 2.79443 12
230 2 11.4731 -1.25863 11.507 15
231 2 20.8343 -19.2267 7.12947 13
232 2 23.4027 -3.85831 15.0571 12
233 2 14.0898 2.64192 5.64748 12
234 2 13.8784 -15.777 15.5648 11
235 2 19.532 -3.03345 -1.28706 16
236 2 19.5566 -10.577 18.3785 13
237 2 25.3407 -3.98137 9.06759 13
238 2 25.1469 -0.976455 8.17401 12
239 2 11.904 -11.5452 12.6306 19
240 2 20.7125 -4.24517 16.484 11
241 2 24.7558 -12.4532 16.3993 12
242 2 19.5178 -5.61766 -3.07919 11
243 2 19.9243 -7.62574 16.743 17
244 2 21.9669 -13.7498 11.303 18
245 2 10.2677 -5.1563 2.22744 11
246 2 12.3648 1.59004 3.80794 15
247 2 10.0956 -3.99478 4.90977 14
248 2 15.92 -18.4676 11.3596 13
249 2 24.6295 1.69339 7.82375 10
250 2 11.0862 -7.6158 0.549104 15
251 2 24.5547 -9.50659 8.14915 16
252 2 9.86343 0.402414 8.11358 10
253 2 20.9786 -15.9693 13.0477 15
254 2 11.4114 -15.1251 14.7536 11
255 2 11.3878 -12.8544 4.81604 20
256 2 15.7244 1.1517 3.28895 13
257 2 10.8598 -3.23129 13.5112 13
258 2 16.3197 -13.5358 15.0937 16
259 2 9.40096 -2.52578 9.61773 13
260 2 17.2898 -5.60725 16.2677 15
261 2 11.2476 -5.61773 -1.36506 9
262 2 22.347 0.749183 3.29211 12
263 2 13.2866 -3.78476 15.6008 13
264 2 15.2599 -9.67109 -3.02149 12
265 2 14.6477 -18.5762 2.64997 10
266 2 21.4578 -8.44821 14.4903 22
267 2 24.2554 -5.75649 4.20638 18
268 2 22.0851 -15.2788 16.5346 9
269 2 14.0553 -6.66511 16.8934 16
270 2 8.56018 -12.6253 4.20508 12
271 2 9.99142 -8.53359 14.3835 14
272 2 9.63804 -13.5834 13.0639 15
273 2 16.1999 -15.6088 2.94615 21
274 2 17.067 -3.61335 -3.01613 11
275 2 19.0073 -0.575471 3.23909 16
276 2 18.7466 -12.1142 -0.088561 20
277 2 24.6772 -9.41458 14.7947 16
278 2 23.0517 -6.81577 16.4317 13
279 2 13.6422 -3.26614 1.42543 18
280 2 12.9969 -11.967 -2.7968 10
281 2 15.0487 1.72968 8.95104 14
282 2 13.6678 -0.335945 1.05908 12
283 2 10.5472 -1.32274 5.84672 19
284 2 8.18384 -7.82574 11.972 14
285 2 23.5245 -17.1783 5.27517 12
286 2 16.0678 -1.75966 -0.931805 13
287 2 17.0684 -6.80447 -2.08981 16
288 2 22.3528 -10.2057 16.7584 18
289 2 11.4741 -8.29131 16.9684 13
290 2 9.37754 -6.99039 9.68454 17
291 2 25.2476 -12.5819 13.2832 11
292 2 8.35214 -9.50589 8.55313 17
293 2 11.2412 -5.36222 16.4147 12
294 2 18.0543 -15.7379 11.2081 21
295 2 25.1698 -6.73376 10.6952 14
296 2 18.3835 -18.0865 5.74861 16
297 2 12.0159 1.63619 7.02182 15
298 2 13.6573 -6.41245 -3.09797 10
299 2 13.5777 -12.9148 16.528 14
300 2 21.9054 -13.1477 17.8987 10
301 2 22.1435 -3.15398 0.795043 14
302 2 24.8832 -6.48208 13.7616 13
303 2 24.9718 -10.11 11.7602 14
304 2 23.1856 -11.9 2.13025 16
305 2 23.9882 -15.819 10.9672 13
306 2 23.992 -2.19379 3.60217 13
307 2 9.18151 -16.0097 9.42293 15
308 2 7.85205 -9.824 5.4348 14
309 2 20.7047 -16.5936 9.78959 20
310 2 19.2037 -0.47904 6.83177 19
311 2 24.2839 -8.51338 5.60044 19
312 2 21.4275 -1.48884 5.54297 15
313 2 24.096 -12.2242 6.93769 19
314 2 21.2162 -18.1797 4.30524 12
315 2 11.4733 -14.3288 2.01693 12
316 2 23.4956 2.65108 5.3238 11
317 2 20.2349 1.66234 11.1045 12
318 2 16.5644 -19.2618 8.65456 13
319 2 16.4651 -11.4436 16.9771 16
320 2 25.01 -6.1351 7.35474 15
321 2 21.6567 -6.76932 1.82604 20
322 2 14.2352 -4.00314 -1.76638 14
323 2 13.6228 -17.055 0.729839 12
324 2 20.8573 -16.058 6.67573 22
325 1 11.6363 -9.08473 5.05811 21
326 1 10.335 -11.7722 6.07085 22
327 1 15.6121 -14.9058 4.90709 20
328 1 16.6336 -9.21938 1.58478 21
329 1 14.1955 -10.2102 3.26492 21
330 1 16.1819 -12.0306 3.23744 22
331 1 13.3539 -12.9009 4.65659 22
332 1 16.9894 -9.15036 4.96563 24
333 1 13.9248 -10.2648 6.56955 22
334 1 16.4518 -11.882 6.50094 20
335 2 13.7085 -14.7206 4.32886 21
336 2 10.3862 -9.86369 6.28594 22
337 2 15.8175 -16.3749 6.23884 18
338 2 16.6736 -12.9158 1.61243 22
339 2 13.4257 -9.14028 1.93462 20
340 2 13.8458 -14.1488 0.39851 17
341 2 13.8466 -12.1801 2.75828 23
342 2 16.1884 -10.1035 3.37855 22
343 2 13.6327 -9.25228 4.90605 19
344 2 16.8422 -13.1032 4.64241 23
345 2 14.2882 -12.3834 6.33515 22
346 2 15.8511 -9.86677 6.42085 23
347 1 10.4405 -9.26663 8.22843 24
348 1 9.85823 -12.4103 9.28091 24
349 1 10.6397 -10.4032 11.4746 20
350 1 16.0736 -15.2556 7.75768 19
351 1 19.0657 -16.3806 12.9986 14
352 1 12.8818 -12.9007 7.77906 22
353 1 15.8868 -9.37922 8.29365 24
354 1 13.1747 -10.255 9.61425 21
355 1 15.5887 -12.3909 9.81877 22
356 1 12.6912 -12.6774 11.2204 18
357 1 16.0451 -9.4725 11.2585 20
358 1 13.6411 -10.6282 12.9511 19
359 1 16.0533 -12.8288 13.0828 20
360 1 16.3973 -9.95863 14.9711 20
361 2 10.7455 -13.1446 7.65126 22
362 2 11.4754 -11.3076 15.5757 13
363 2 12.935 -15.27 7.59875 21
364 2 15.1067 -15.9143 9.35547 22
365 2 13.5903 -9.25741 8.03504 24
366 2 16.4189 -13.1257 8.16412 21
367 2 13.6411 -12.3213 9.52522 21
368 2 16.4731 -10.5609 9.76838 20
369 2 14.0387 -9.67752 11.3933 20
370 2 16.9468 -13.4648 11.4933 22
371 2 14.1196 -12.8331 12.588 17
372 2 16.4008 -10.5992 13.2174 21
373 2 8.57417 -10.845 11.5741 14
374 1 11.0593 -5.97165 3.67179 17
375 1 11.6505 -2.95834 5.50399 21
376 1 11.083 -6.41395 6.81799 21
377 1 16.9392 -6.34016 0.147248 21
378 1 13.7888 -7.17017 1.61302 21
379 1 16.6109 -3.33707 1.8552 20
380 1 13.9585 -4.21081 3.40818 19
381 1 16.4498 -6.49102 3.15195 23
382 1 13.9739 -7.30457 4.93551 24
383 1 16.4759 -3.53692 4.81982 21
384 1 13.7515 -4.51578 6.86988 21
385 1 16.1937 -6.53148 6.73294 21
386 1 12.1503 -0.372944 7.08145 21
387 1 16.0203 -0.489695 7.04502 23
388 2 10.6289 -7.30711 4.90778 17
389 2 13.0872 -0.907052 3.74887 18
390 2 15.9599 -7.51667 1.58014 22
391 2 13.4125 -6.28514 3.41307 20
392 2 16.1054 -4.45632 3.29477 21
393 2 14.0157 -3.37129 5.21133 20
394 2 16.3027 -7.37874 4.89185 21
395 2 14.1743 -6.45646 6.71263 21
396 2 16.4697 -4.57385 6.63378 20
397 2 14.0583 -0.717085 6.95424 22
398 2 11.985 -1.98626 8.54832 20
399 1 11.0095 -3.5393 8.95159 22
400 1 11.1378 -6.48532 10.1512 21
401 1 13.487 -7.35951 8.15455 24
402 1 16.3762 -3.92298 8.46811 21
403 1 13.7088 -4.6465 10.5886 22
404 1 16.1442 -6.5753 10.0722 22
405 1 13.4864 -7.86182 11.6458 19
406 1 16.464 -3.68106 12.0111 22
407 1 13.9958 -4.55753 13.759 21
408 1 16.772 -6.81318 13.4317 22
409 1 14.0804 -7.99951 15.0307 20
410 1 13.8706 -1.64156 8.84053 21
411 1 19.2339 -2.21726 11.0549 22
412 2 11.4671 -7.67056 8.14582 21
413 2 11.772 -4.64493 10.4582 23
414 2 11.6545 -8.55821 11.1317 22
415 2 14.4436 -4.10086 8.66513 21
416 2 16.639 -7.52251 8.31237 23
417 2 14.1061 -6.64303 10.1523 22
418 2 16.9468 -4.88984 10.2782 24
419 2 14.4207 -3.41335 12.0899 20
420 2 16.8357 -7.81647 11.5418 21
421 2 12.9761 -7.03978 13.2774 19
422 2 15.8041 -5.09262 13.4424 20
423 2 16.1345 -7.95221 14.785 18
424 2 16.5348 -1.33934 5.11558 21
425 2 16.3936 -1.71154 8.55983 22
426 2 21.4098 -1.57371 15.2468 9
427 1 18.9157 -16.4133 6.49167 21
428 1 18.6059 -12.9735 1.94816 20
429 1 19.2209 -9.996 2.91424 20
430 1 21.334 -11.7316 3.48435 24
431 1 18.7149 -13.1958 4.66582 21
432 1 22.292 -9.20446 4.93135 24
433 1 19.4521 -10.5652 6.34341 22
434 1 22.131 -12.422 6.36512 22
435 2 19.2597 -15.0413 4.67651 22
436 2 18.539 -8.84285 1.11719 22
437 2 19.4157 -11.9123 3.22277 23
438 2 21.1855 -9.68944 3.46818 21
439 2 19.0348 -9.42184 4.84181 23
440 2 21.671 -13.2548 4.53243 20
441 2 18.91 -12.2319 6.43212 21
442 2 21.647 -10.6123 6.27918 22
443 2 23.6376 -8.82743 2.71254 15
444 1 18.6209 -13.5963 8.08874 20
445 1 21.5745 -9.65928 7.91719 24
446 1 18.5884 -10.6164 9.70722 24
447 1 21.4818 -12.5548 9.82279 20
448 1 18.786 -13.8131 11.1115 22
449 1 21.5425 -9.86736 11.4721 22
450 1 18.6958 -10.8809 13.0416 23
451 1 21.4186 -12.9664 13.0793 20
452 2 18.1989 -15.448 7.96646 20
453 2 17.7089 -15.5094 13.9983 14
454 2 19.2697 -9.463 8.15138 21
455 2 22.3654 -13.5367 8.27797 21
456 2 19.4337 -12.3613 9.71649 22
457 2 22.1666 -10.731 9.69849 22
458 2 19.3651 -9.73563 11.7631 20
459 2 19.5422 -12.8919 12.8505 22
460 2 22.0641 -11.0479 12.9998 19
461 2 18.6946 -10.0772 15.3482 20
462 2 24.965 -11.3562 4.59241 15
463 1 19.5529 -7.09611 1.68804 25
464 1 19.3938 -4.37907 3.61163 21
465 1 22.3209 -5.96606 3.40493 21
466 1 19.4938 -7.32672 4.79578 22
467 1 21.4371 -3.56017 5.78223 21
468 1 18.6501 -4.55769 6.60105 19
469 1 21.355 -6.3734 6.66582 22
470 1 19.3069 -1.3523 5.08411 19
471 1 24.1288 -10.6521 3.20463 16
472 2 18.731 -3.46818 1.95243 24
473 2 18.5033 -6.13324 3.09476 26
474 2 21.3214 -4.23836 3.46636 21
475 2 19.4234 -3.2523 5.17973 19
476 2 21.499 -7.17328 4.77401 23
477 2 18.9987 -6.40822 6.82534 24
478 2 22.4818 -4.84825 6.77338 19
479 2 19.9277 -1.14087 9.43964 20
480 1 18.7347 -7.70965 8.27588 23
481 1 22.6967 -4.05078 8.54471 20
482 1 18.9828 -5.04168 9.90881 21
483 1 21.4723 -7.2923 9.72495 22
484 1 18.919 -7.80253 11.7095 21
485 1 21.5734 -4.28462 10.9738 19
486 1 19.9034 -5.10653 13.195 22
487 1 22.2388 -7.18528 13.2284 22
488 1 19.6097 -8.288 14.759 19
489 1 18.4254 -1.76538 8.31468 22
490 1 19.2298 0.993983 9.46498 19
491 1 25.6874 -5.79902 9.10355 12
492 2 18.687 -3.72077 8.3884 20
493 2 21.7885 -7.7633 7.85224 21
494 2 19.3545 -7.05573 9.7931 23
495 2 21.4037 -5.35134 9.37571 17
496 2 19.5386 -4.17068 11.6287 18
497 2 22.172 -7.94666 11.5571 20
498 2 19.119 -6.77748 13.4721 21
499 2 22.0018 -5.33122 12.739 17
500 2 17.4505 0.941205 10.2109 17
