ITEM: TIMESTEP
24000
ITEM: NUMBER OF ATOMS
500
ITEM: BOX BOUNDS pp pp pp
-30.0 30.0
-30.0 30.0
-30.0 30.0
ITEM: ATOMS id type x y z Coordination
1 1 14.4629 -7.81997 9.13712 12
2 1 8.51595 -0.578043 12.8462 12
3 1 3.81588 -4.56374 -4.66778 21
4 1 -2.96926 -1.91096 -0.822375 12
5 1 8.43738 -2.13497 -7.62147 8
6 1 14.2726 -11.4604 -0.240398 8
7 1 11.0083 -2.72775 11.823 17
8 1 8.99873 2.29945 11.2185 14
9 1 -2.27566 -3.46755 1.46935 18
10 1 14.6476 -5.7302 1.20382 19
11 1 10.5045 -4.60914 9.80194 20
12 1 -0.213816 -12.9187 7.12034 10
13 1 5.08358 -7.11389 -4.29175 19
14 1 11.4584 -7.49288 -4.26084 14
15 1 10.0252 -10.1045 7.4261 17
16 1 4.14303 4.49065 7.0459 17
17 1 10.852 8.71076 3.88205 10
18 1 4.20375 -5.87764 -7.2287 11
19 1 6.09547 1.18185 10.3476 18
20 1 1.83467 2.94311 7.32417 15
21 1 7.59446 3.41849 -3.03535 20
22 1 12.3255 3.1613 5.13312 14
23 1 3.6991 3.82891 -2.67104 18
24 1 -0.320771 0.0985209 -4.98045 14
25 1 3.56787 6.73715 -0.936792 11
26 1 -2.49226 2.7388 2.95103 13
27 1 6.62923 6.57817 7.5626 17
28 1 2.14307 -0.182302 -7.26553 11
29 1 2.32797 -11.26 7.79273 18
30 1 10.8089 -13.3697 2.13798 14
31 1 -2.23805 -5.48583 -1.32129 13
32 1 5.3882 -12.7839 5.55018 16
33 1 12.4914 1.51548 -2.75391 16
34 1 1.67199 -7.46799 -4.79448 14
35 1 8.74841 1.48782 -6.98579 10
36 1 5.84486 6.80081 1.8351 15
37 1 -3.6438 -2.07247 3.96602 11
38 1 9.06342 5.36317 9.22015 14
39 1 8.12653 -5.35443 11.8549 20
40 1 8.23864 -13.9516 0.0935323 12
41 1 12.1783 -4.35605 -2.84343 18
42 1 11.3807 -5.8934 12.8379 11
43 1 9.40113 -8.55557 12.4414 11
44 1 11.5085 5.89448 4.03323 16
45 1 3.15763 -10.6561 4.36207 17
46 1 3.1158 -13.9242 3.55028 13
47 1 0.200294 -5.76961 12.1985 7
48 1 -2.41535 -1.9332 7.17405 12
49 1 8.06223 -14.1147 3.38894 13
50 1 -2.91028 -5.60849 4.30701 17
51 1 4.35782 6.49332 5.11662 15
52 1 0.382276 -1.23301 7.55272 22
53 1 3.27962 2.92741 10.306 11
54 1 0.0859278 -7.74011 -1.80949 19
55 1 -2.21028 0.917918 -2.41971 13
56 1 -0.778408 -5.0067 -5.70913 9
57 1 13.1771 -5.12003 9.75011 14
58 1 6.00582 -7.29094 11.243 17
59 1 1.80748 -3.52584 -7.4505 12
60 1 -3.57327 -7.80216 1.41909 10
61 1 6.19435 -10.3742 6.21963 18
62 1 -0.501074 1.40776 8.59952 12
63 1 5.98965 -13.0052 -1.82288 12
64 1 7.69299 6.88601 4.5847 18
65 1 -1.87676 -2.26539 -4.28613 12
66 1 -5.31479 0.868396 2.80542 6
67 1 3.20914 -8.99812 -2.55934 18
68 1 9.49187 -11.5817 10.577 9
69 1 -2.03403 3.10885 -0.00409834 12
70 1 2.22581 -2.75201 12.7334 10
71 1 -1.94153 -0.640619 10.1214 8
72 1 0.181494 -10.3158 -3.28498 9
73 1 4.72443 -9.79403 10.0343 15
74 1 8.71528 -11.0917 -1.93144 17
75 1 9.74412 -5.25629 -4.38469 17
76 1 13.2234 -9.88582 6.72934 14
77 1 0.521173 -12.3889 1.69251 14
78 1 -2.45816 -6.98646 7.60376 14
79 1 13.9556 -1.82024 10.1406 12
80 1 14.085 2.66967 2.12828 13
81 1 7.8391 0.0921457 -4.20681 18
82 1 6.1566 3.33622 -6.3707 11
83 1 9.15065 6.98148 1.4737 12
84 1 10.8772 2.93139 -4.52984 11
85 1 8.81532 -11.3117 4.45352 22
86 1 10.9929 -10.5435 0.433054 19
87 1 5.40091 -12.7022 2.14723 17
88 1 -3.06909 0.106648 0.847406 14
89 1 15.8522 -3.29878 1.84358 11
90 1 1.07333 1.78797 -3.21045 13
91 1 14.2721 -8.79576 -2.41661 12
92 1 0.12678 -6.47611 9.37594 18
93 1 3.25451 -13.8725 0.327074 11
94 1 6.02831 -10.434 -3.48075 13
95 1 11.6377 -10.0853 4.39068 16
96 1 1.3906 -10.9703 -0.742833 18
97 1 5.23464 -4.29888 12.6962 13
98 1 5.78256 -1.65039 11.7245 14
99 1 11.1709 -13.0282 -1.26893 11
100 1 11.6482 4.29371 1.31447 15
101 1 14.2534 -5.58536 -4.3139 9
102 1 4.68832 -2.47774 -7.34735 15
103 1 -1.89569 0.598513 5.86146 14
104 1 8.10275 -8.38331 9.6849 21
105 1 -0.674305 -2.02259 -7.38916 10
106 1 15.9736 -7.69649 6.25097 11
107 1 11.4557 0.24485 11.2999 16
108 1 6.45889 -11.8423 12.1564 5
109 1 13.6119 0.414676 5.18651 14
110 1 12.5558 1.07513 8.25632 16
111 1 11.8618 3.72367 10.4683 10
112 1 2.99484 1.97589 -5.31547 13
113 1 0.32014 -8.99489 1.69763 20
114 1 -0.443348 5.39444 2.61143 11
115 1 13.7442 3.53496 -1.35133 11
116 1 8.73565 -3.59644 13.9975 8
117 1 7.77483 -6.43783 -6.99173 10
118 1 13.0321 8.68282 6.11048 9
119 1 11.3541 -10.0742 -3.44076 15
120 1 11.5269 -8.75967 11.0174 11
121 1 1.38136 0.150411 10.7597 12
122 1 15.45 -5.2297 4.85597 14
123 1 5.7926 5.51804 -3.56637 11
124 1 14.2831 -3.09306 -1.20196 17
125 1 3.03192 -5.47074 11.139 17
126 1 2.7054 -8.05701 9.75372 16
127 1 1.57104 5.77355 5.24336 11
128 1 9.97072 5.05222 6.3833 21
129 1 -0.605172 -9.63154 7.93827 14
130 1 16.7431 -6.76185 2.94427 10
131 1 0.382 -14.0696 4.91931 10
132 1 13.6474 -1.93636 7.2559 15
133 1 14.1319 -11.491 3.2394 11
134 1 9.50163 7.98582 6.89884 15
135 1 -1.85166 -10.4726 2.82754 12
136 1 8.86051 4.83531 -5.45828 9
137 1 0.679837 -4.55803 -3.44301 17
138 1 8.71923 -9.80609 -5.47856 10
139 1 3.37476 -12.6227 -2.46344 11
140 1 14.0715 -8.44591 3.77827 17
141 1 -2.99415 -8.66334 4.543 12
142 1 5.25432 0.464408 -5.8981 15
143 1 -1.89071 -10.3035 -0.191189 13
144 1 15.6927 -4.73625 8.19007 11
145 1 6.99822 -4.2349 -5.99263 18
146 1 -0.782678 3.18151 5.41012 13
147 1 -2.18101 -4.18967 9.58381 11
148 1 13.0761 5.11767 7.58241 12
149 1 13.9748 -1.10082 1.03415 15
150 1 5.14835 -12.7225 8.96887 11
151 1 10.7779 -0.749364 -4.05774 13
152 1 10.248 4.30349 -1.81177 14
153 1 11.8347 7.14843 9.16921 11
154 1 6.60059 4.84991 -0.614886 19
155 1 15.0768 0.786887 -0.81998 11
156 1 15.5049 -9.34106 1.03563 11
157 1 5.56049 4.45176 10.0341 12
158 1 2.92614 5.75728 2.03212 16
159 1 3.07288 -14.3305 6.95331 10
160 1 11.2343 -13.1115 5.08066 11
161 1 0.0737926 -10.4916 5.11409 19
162 1 0.791348 4.87459 -0.507018 12
163 2 -2.46289 -1.32448 5.27354 13
164 2 12.1966 1.99439 6.5962 16
165 2 -0.0549104 -5.72274 -1.8051 19
166 2 3.20864 -12.9454 8.35528 13
167 2 4.28298 -2.53562 12.6412 13
168 2 5.1201 6.0602 6.77632 15
169 2 10.5802 -11.3465 -2.22606 12
170 2 4.36979 -2.55658 -4.6048 17
171 2 6.10832 -5.45575 -7.13807 12
172 2 5.96545 3.18815 7.1023 21
173 2 15.5643 -7.52112 4.29164 13
174 2 11.8311 4.95073 5.76719 17
175 2 7.06422 5.53823 9.11806 14
176 2 10.9756 8.90245 5.82886 10
177 2 9.57874 4.00706 -3.73043 12
178 2 9.64561 -7.21095 -3.93812 18
179 2 -1.95545 -1.55501 1.07865 17
180 2 5.37861 -11.4966 10.4971 9
181 2 -4.8641 -1.07898 2.84524 8
182 2 15.0206 -9.91244 -0.883301 11
183 2 1.18489 -13.494 3.18199 12
184 2 7.99477 1.32977 9.7651 19
185 2 7.94999 -7.32812 11.4405 16
186 2 1.91096 -10.5503 5.83285 19
187 2 7.13441 -13.3264 4.89168 13
188 2 -0.46548 -12.4099 5.19996 13
189 2 3.91844 -13.9592 2.01834 10
190 2 -0.602898 -10.9997 1.54669 14
191 2 2.3805 4.41586 6.29781 14
192 2 13.3951 3.46154 0.51304 13
193 2 9.44439 2.95801 -6.14881 11
194 2 13.9576 -1.45227 5.52532 14
195 2 9.16146 7.86766 3.05821 14
196 2 3.87186 4.38235 9.01284 13
197 2 7.53055 6.39338 0.823498 14
198 2 7.03777 4.58878 -5.11614 9
199 2 5.1475 2.86836 10.8252 12
200 2 7.21943 -3.86997 12.7928 15
201 2 10.5256 -9.33986 -5.03371 10
202 2 4.79977 -11.6248 -2.61436 12
203 2 -2.84289 -9.48977 1.38469 12
204 2 14.6859 -10.7992 1.72205 10
205 2 8.91861 4.01291 7.61138 16
206 2 6.54756 -2.51921 -6.72396 17
207 2 7.96216 -8.23358 -6.5412 9
208 2 3.51362 -6.83311 -5.51913 13
209 2 7.87432 -10.2877 -3.629 15
210 2 12.0682 -5.64195 -4.27974 14
211 2 8.79072 -4.91129 -6.02683 13
212 2 1.7237 -12.6665 0.154401 12
213 2 5.61844 0.0760208 -3.95407 20
214 2 1.21543 -14.4768 6.75663 10
215 2 -0.0522145 0.774305 1.56432 20
216 2 0.130725 -11.3016 7.94446 12
217 2 -3.6168 -7.04213 3.15533 12
218 2 12.5805 -7.98823 9.49245 15
219 2 10.0615 6.8579 8.33332 14
220 2 3.13385 -4.3666 9.45153 24
221 2 -1.31521 -0.255758 7.83409 14
222 2 0.686348 -5.96181 -4.7685 12
223 2 14.0056 0.895445 1.06022 13
224 2 -2.61825 -7.50633 5.91027 12
225 2 2.52154 2.74102 -3.65132 11
226 2 9.10848 -1.39795 -4.14815 21
227 2 -3.7673 1.45901 2.04345 10
228 2 12.2996 -12.5461 3.5741 12
229 2 7.70907 -12.8581 -1.27739 13
230 2 -0.0670241 4.64096 4.40643 13
231 2 9.74678 -13.6284 4.0304 12
232 2 12.2366 1.90967 10.0673 11
233 2 4.30824 6.61986 0.748472 13
234 2 4.07772 -8.05747 11.1677 12
235 2 7.21309 1.10478 -5.79603 17
236 2 9.76764 -5.13745 13.2307 12
237 2 13.388 2.13214 3.91821 14
238 2 12.5842 5.30346 9.54661 9
239 2 0.327122 -8.61713 6.39595 20
240 2 9.7255 0.734037 11.8088 14
241 2 14.8978 -5.86228 9.47985 10
242 2 9.1904 -0.448312 -7.33306 9
243 2 9.7525 -2.23567 13.1197 13
244 2 11.7181 -8.54386 6.63331 17
245 2 -1.8325 -1.24845 -2.59536 14
246 2 0.818674 5.53293 1.22431 13
247 2 -2.39899 1.256 -0.495651 15
248 2 6.15085 -12.0497 7.40962 17
249 2 12.9671 7.38914 7.53175 10
250 2 -0.810109 -3.6307 -4.32891 14
251 2 15.7613 -4.74084 3.07401 11
252 2 -1.71958 4.05757 1.9092 12
253 2 9.28296 -11.7902 8.53412 9
254 2 3.31721 -9.72323 8.90366 17
255 2 -0.640442 -9.76374 -1.52523 12
256 2 4.58125 6.57753 -2.65856 7
257 2 0.0891398 2.42647 6.90113 14
258 2 6.1953 -8.56042 9.28687 18
259 2 -2.17515 2.01416 4.56406 12
260 2 6.99965 -0.108468 11.8854 15
261 2 -1.41488 -1.18317 -5.94344 11
262 2 10.537 5.69855 2.1732 16
263 2 2.4459 1.39901 9.81007 15
264 2 3.59363 -4.05582 -7.06297 14
265 2 4.20667 -13.8219 -1.17787 9
266 2 10.1836 -2.76505 9.84055 18
267 2 14.8472 -1.32257 -0.908631 12
268 2 9.87302 -9.55272 10.7224 12
269 2 2.14567 -1.85207 11.1145 12
270 2 -2.39017 -6.81875 0.169994 16
271 2 -2.33336 -2.383 9.73685 9
272 2 -1.02868 -8.01149 8.6059 13
273 2 2.9569 -9.88607 -0.654595 19
274 2 4.54753 2.24408 -6.04276 13
275 2 8.348 4.09463 -1.28027 17
276 2 12.5533 -8.61858 -2.92853 15
277 2 14.2822 -3.20846 8.68733 15
278 2 12.427 -1.38989 11.2744 13
279 2 5.62149 3.5957 -3.04868 17
280 2 -0.124495 -3.99568 -7.20692 10
281 2 5.74489 6.72435 3.9367 17
282 2 2.78123 4.82575 -1.04258 16
283 2 0.01621 3.16941 -0.456384 15
284 2 -0.257759 0.286458 10.1347 12
285 2 12.4184 -11.7983 -0.376571 11
286 2 -0.906427 1.4488 -3.63106 13
287 2 4.01494 -0.760717 -6.74626 15
288 2 11.7952 -4.6836 11.3567 16
289 2 -1.10148 -5.37599 10.7156 11
290 2 -2.3148 -4.98138 8.00516 13
291 2 14.7782 -8.87422 7.09801 10
292 2 -3.21507 -3.84032 3.29542 12
293 2 1.51447 -4.40587 12.4369 11
294 2 8.18094 -10.5648 6.4409 17
295 2 13.2989 -4.42343 5.04383 18
296 2 7.16811 -13.2753 1.97034 18
297 2 3.01384 5.70621 3.93985 15
298 2 1.14555 -1.66261 -7.85737 10
299 2 1.53107 -6.65778 10.7062 15
300 2 11.0208 -7.73266 12.45 9
301 2 11.398 1.04154 -4.39315 13
302 2 13.3679 -0.585723 8.30626 13
303 2 16.0008 -5.70395 6.67125 11
304 2 14.7006 -7.02027 -3.07324 11
305 2 13.6171 -10.1839 4.7574 14
306 2 14.3154 1.84531 -2.10552 10
307 2 -1.29279 -9.25279 4.03179 19
308 2 -2.74931 -3.84604 -0.647223 13
309 2 10.7251 -11.1263 5.56046 18
310 2 10.8543 3.26907 -0.0364232 20
311 2 15.1997 -3.8894 0.298961 13
312 2 11.7345 3.38152 -2.59224 13
313 2 15.5032 -7.50172 1.81848 13
314 2 10.0756 -13.6717 0.534224 15
315 2 1.33542 -8.80593 -3.44164 12
316 2 12.4494 7.51458 4.46371 11
317 2 7.827 7.6299 6.19392 15
318 2 3.89849 -13.9784 5.32329 15
319 2 5.25874 -5.38141 11.1643 18
320 2 14.6288 -1.99541 2.42909 15
321 2 11.6298 -2.37558 -2.75893 18
322 2 1.36858 0.666071 -5.64509 14
323 2 1.57873 -11.6905 -2.64558 10
324 2 10.0706 -11.4986 2.07666 20
325 1 0.707519 -4.4922 -0.349306 22
326 1 -0.866473 -6.73382 1.20848 21
327 1 4.73493 -9.82101 -0.0258326 20
328 1 6.70331 -4.5264 -3.22826 21
329 1 3.42673 -5.16751 -1.45612 21
330 1 5.90169 -7.26729 -1.37044 20
331 1 2.51202 -7.55319 0.257427 22
332 1 6.20041 -4.6367 -0.130795 21
333 1 3.05247 -4.67802 1.82805 18
334 1 5.28866 -6.9692 1.82263 22
335 2 0.47671 -7.73287 0.367063 22
336 2 -0.405289 -4.42047 1.23559 21
337 2 5.03442 -10.9075 1.52269 17
338 2 5.78014 -5.19872 -4.6931 21
339 2 2.54086 -4.3363 -3.25613 19
340 2 5.44696 -8.67029 -3.13048 15
341 2 3.31936 -7.15788 -1.56318 21
342 2 5.57151 -5.33339 -1.78305 21
343 2 2.43557 -4.32093 -0.0395455 20
344 2 5.94558 -7.95819 0.300295 19
345 2 3.43275 -7.15114 1.9029 22
346 2 4.90076 -4.86692 1.50967 22
347 1 0.164487 -4.8523 3.04684 20
348 1 -0.500548 -7.43162 5.1737 21
349 1 -0.709743 -4.49976 6.52071 17
350 1 5.58701 -9.8503 3.01683 21
351 1 8.22068 -12.3008 7.15175 14
352 1 2.27546 -7.48332 3.42295 21
353 1 6.26571 -4.7473 3.23466 22
354 1 3.12364 -5.11534 4.73713 21
355 1 5.29388 -7.40807 5.0487 22
356 1 2.30447 -8.41463 6.56358 21
357 1 5.91141 -4.48799 6.75922 23
358 1 2.3851 -5.32495 7.93579 20
359 1 5.04198 -7.46156 8.21522 22
360 1 5.05591 -4.37899 9.45697 21
361 2 0.446852 -6.96281 2.82745 19
362 2 -0.826058 -5.56074 4.70255 21
363 2 1.85088 -9.36721 3.23289 20
364 2 5.08397 -11.0241 4.50086 19
365 2 2.02897 -4.2405 3.34272 19
366 2 6.21128 -7.83025 3.4304 22
367 2 3.41656 -7.17898 4.99789 21
368 2 5.59976 -5.44467 4.90415 18
369 2 2.77352 -4.33848 6.47707 20
370 2 6.00157 -8.44283 6.60506 23
371 2 3.18518 -7.03179 8.05205 22
372 2 5.92754 -5.52253 8.30838 22
373 2 0.304425 -5.20163 7.82178 20
374 1 0.0863958 -1.35383 -1.95387 21
375 1 0.699864 1.44142 -0.210862 18
376 1 0.169953 -1.29322 1.33073 20
377 1 6.0219 -1.86662 -4.39859 20
378 1 2.84806 -2.23545 -3.54637 18
379 1 5.7398 1.5598 -2.79455 19
380 1 3.21303 0.384121 -0.933221 21
381 1 5.34585 -1.67463 -1.32719 21
382 1 2.48312 -2.09462 -3.99661e-04 25
383 1 6.39322 1.47581 0.32718 22
384 1 3.54103 0.930073 1.81621 21
385 1 5.57602 -1.52173 1.8537 21
386 1 3.41602 3.43069 0.414602 21
387 1 6.0788 3.14609 2.5713 20
388 2 0.568935 -2.09485 -0.354213 21
389 2 0.851039 0.441683 -1.81037 19
390 2 6.51834 -2.62162 -2.69566 21
391 2 3.30711 -1.68353 -1.64472 17
392 2 5.1007 0.629656 -0.944279 21
393 2 2.50203 1.76951 0.424155 21
394 2 6.4092 -2.50969 0.0165287 21
395 2 3.16629 -1.29989 1.62363 23
396 2 5.41046 0.492675 1.84494 21
397 2 5.48531 3.27415 0.35944 23
398 2 3.904 3.85303 2.38275 19
399 1 0.628903 0.622595 3.24528 18
400 1 -0.875042 -2.42471 4.54643 21
401 1 2.36815 -2.17265 3.38165 20
402 1 5.68895 1.12795 3.82181 20
403 1 2.29499 0.333897 5.35672 19
404 1 5.05477 -1.72928 5.18336 21
405 1 3.28552 -2.63427 6.83953 19
406 1 5.24026 1.48014 7.1045 22
407 1 3.22564 -0.157876 8.76561 19
408 1 5.94237 -1.6905 8.50963 22
409 1 1.82358 -3.01284 9.74837 19
410 1 3.23762 3.27898 4.21742 20
411 1 7.10395 3.97949 5.4509 22
412 2 0.381565 -1.98558 3.22913 18
413 2 0.127801 0.278486 4.87622 19
414 2 -0.647984 -2.61842 6.61777 17
415 2 2.8426 1.26118 3.67655 18
416 2 5.84099 -2.32619 3.65187 20
417 2 2.99749 -1.41989 5.28236 20
418 2 5.78903 0.0680296 5.45284 21
419 2 3.0084 1.2552 6.82644 23
420 2 5.12594 -2.829 7.35938 21
421 2 2.02458 -1.78801 8.31202 20
422 2 5.37011 0.199186 8.82068 20
423 2 6.06014 -2.68719 9.97092 19
424 2 7.75906 4.04489 1.93485 22
425 2 5.5185 2.95279 4.581 22
426 2 9.99725 4.03062 10.2344 13
427 1 8.0657 -11.2772 1.35357 19
428 1 8.02715 -8.26033 -3.34615 19
429 1 9.14703 -5.65425 -1.40609 20
430 1 12.0111 -7.36386 -1.21675 21
431 1 8.23815 -8.39681 0.466404 21
432 1 12.0049 -4.60603 0.165604 20
433 1 9.14472 -5.37694 1.77768 19
434 1 11.1562 -7.42782 1.79701 19
435 2 8.36126 -10.2485 -0.196361 20
436 2 8.62789 -4.48626 -3.0787 22
437 2 8.12202 -7.36379 -1.46875 21
438 2 11.0943 -5.34241 -1.50881 22
439 2 8.20087 -4.42586 0.0674368 23
440 2 11.4306 -8.63922 0.255653 18
441 2 8.90056 -7.19115 1.8434 20
442 2 11.3123 -5.46084 1.68766 18
443 2 14.2692 -4.43032 -2.60997 13
444 1 8.21412 -8.2333 3.44886 23
445 1 11.765 -4.90974 3.49689 18
446 1 8.81927 -5.65012 5.11103 21
447 1 11.197 -7.45893 5.1542 20
448 1 8.20768 -8.44552 6.43638 22
449 1 12.0657 -4.52832 6.5309 21
450 1 8.07615 -6.01381 8.22954 21
451 1 11.1872 -7.3357 8.31254 19
452 2 8.02258 -10.1524 2.99364 22
453 2 8.23397 -11.6373 11.9287 7
454 2 8.17376 -4.7544 3.33261 22
455 2 12.0804 -8.15935 3.41431 19
456 2 9.11315 -7.74924 5.02695 23
457 2 10.6962 -5.6139 5.02853 21
458 2 8.10625 -4.8231 6.70803 21
459 2 9.05902 -7.74028 8.04357 21
460 2 11.6486 -5.55595 8.44957 19
461 2 8.4299 -5.02871 9.94713 22
462 2 13.4331 -6.27234 -0.339637 18
463 1 8.52991 -2.44366 -2.69345 18
464 1 8.99313 0.390734 -1.21829 22
465 1 11.2132 -1.63636 -1.11029 20
466 1 8.31842 -2.56528 0.320165 20
467 1 11.873 1.52042 0.0793587 21
468 1 8.82541 -0.0947527 1.9426 20
469 1 11.0301 -1.75437 1.94087 20
470 1 8.94067 2.99025 0.156338 21
471 1 15.0573 -5.99128 -1.67118 15
472 2 7.76893 1.43469 -2.62688 20
473 2 9.33728 -1.49851 -0.974679 20
474 2 11.1429 0.401432 -1.40256 20
475 2 8.48636 1.17601 0.504405 20
476 2 12.1137 -2.7825 0.64241 23
477 2 9.09262 -2.08671 1.91734 20
478 2 10.8061 0.282842 1.68414 20
479 2 10.8628 3.09879 3.70366 17
480 1 8.30688 -2.64446 3.56972 19
481 1 11.4277 1.27343 3.15929 20
482 1 7.80093 0.166491 5.23118 19
483 1 10.8315 -1.71222 5.1512 22
484 1 9.04904 -3.03005 6.75073 23
485 1 10.3539 1.06251 6.05047 18
486 1 8.92632 0.0211408 8.72419 20
487 1 11.1642 -1.67368 8.47374 22
488 1 8.17824 -3.02325 9.74312 21
489 1 9.12565 4.07926 3.21091 19
490 1 7.88365 2.48126 7.83233 19
491 1 13.6647 -2.61174 4.09131 17
492 2 7.62768 0.649819 3.33088 22
493 2 11.7509 -2.87303 3.63013 19
494 2 8.8136 -1.92169 5.28344 21
495 2 11.572 0.0805698 4.70341 21
496 2 8.55376 0.788869 6.87753 21
497 2 11.2662 -2.74438 7.02267 20
498 2 8.28631 -1.91401 8.29285 19
499 2 10.7781 0.178013 8.20131 20
500 2 8.72569 5.22294 4.86047 17
