ITEM: TIMESTEP
1000
ITEM: NUMBER OF ATOMS
1000
ITEM: BOX BOUNDS pp pp pp
-30.0 30.0
-30.0 30.0
-30.0 30.0
ITEM: ATOMS id type x y z Coordination
1 1 -5.16475 -8.22667 -6.63351 13
2 1 3.36348 -8.90484 7.688 13
3 1 -10.8715 8.2876 -1.16015 12
4 1 -9.55549 0.952739 -9.91706 16
5 1 -1.1597 -8.54822 10.2681 14
6 1 -9.04182 2.48887 -12.8846 12
7 1 -5.26886 -11.7747 7.02758 10
8 1 9.63979 -4.92082 4.9001 17
9 1 -2.31628 2.37471 11.4753 22
10 1 -3.3449 10.5364 -9.02205 8
11 1 -0.150613 1.92297 14.0833 13
12 1 -10.4974 0.481905 2.65426 20
13 1 -4.46371 -0.73403 -8.59598 22
14 1 4.19493 -3.05218 7.44262 19
15 1 -2.41096 3.82014 13.9887 13
16 1 0.26557 -7.12997 5.26893 23
17 1 -12.0575 -2.05121 2.98192 19
18 1 -9.36381 -0.559836 -0.106654 21
19 1 -3.82426 13.2353 -0.317514 11
20 1 -0.704476 3.26393 -10.603 13
21 1 3.37038 -5.64746 -11.4569 9
22 1 -2.82624 -5.07002 15.4514 9
23 1 -11.0631 5.88315 -3.34609 16
24 1 -3.97866 11.5905 2.54236 14
25 1 1.47286 -12.9767 2.63572 12
26 1 6.31566 -8.52634 -6.08621 13
27 1 5.47481 1.15141 5.49492 21
28 1 -9.21998 8.67811 -3.81841 13
29 1 0.873726 7.34988 -3.99383 17
30 1 0.909818 2.76584 8.60472 22
31 1 5.12608 -3.04556 11.1336 17
32 1 -12.6895 -0.565085 0.112897 15
33 1 8.1496 5.35044 8.15722 14
34 1 5.81045 -3.61217 -5.19344 19
35 1 2.16473 -0.391265 7.547 21
36 1 -7.75378 -5.60905 2.4459 23
37 1 -8.12988 -6.50962 -8.02815 15
38 1 -5.57936 10.5757 -1.41351 14
39 1 -4.11519 7.39926 -9.77503 13
40 1 3.84782 -1.1163 -5.70573 22
41 1 6.04964 -4.00721 4.97954 21
42 1 5.71363 -8.46673 9.59642 11
43 1 -4.07862 5.81311 7.97529 16
44 1 -8.54241 -4.85627 8.67649 16
45 1 -8.9602 6.05184 9.96016 12
46 1 8.14521 -8.84204 -3.3069 16
47 1 3.69959 0.277963 -11.3708 11
48 1 -2.21228 10.6113 4.40753 19
49 1 -9.09168 5.81548 -11.2037 11
50 1 0.790547 9.2069 2.79354 21
51 1 -4.67948 -5.61075 12.7793 14
52 1 0.213684 -6.66405 -6.55312 20
53 1 5.63848 -5.8524 -8.1199 14
54 1 -5.46744 2.80296 7.59991 18
55 1 -12.3944 -5.43554 0.0488568 11
56 1 7.67059 -3.7026 1.87259 20
57 1 -8.28484 -9.25409 -1.25421 18
58 1 7.01139 -9.29617 1.42215 18
59 1 -4.43713 7.86593 4.54402 18
60 1 5.13917 4.33424 -5.5413 20
61 1 10.3619 -9.15408 2.4576 8
62 1 -7.20724 -11.1406 0.997831 14
63 1 8.00308 8.02872 2.81942 17
64 1 7.72559 4.30129 -1.26108 17
65 1 2.24228 12.7299 -4.62551 16
66 1 -2.47656 -6.72815 -12.3923 8
67 1 -1.94846 8.77434 -3.48119 18
68 1 10.6827 2.42481 -3.79943 15
69 1 4.20511 2.11713 -8.95381 15
70 1 7.26123 -6.9774 4.1564 18
71 1 -6.70566 6.21288 -5.65795 20
72 1 8.24346 10.0013 -1.04317 16
73 1 11.4939 8.86219 -0.0384371 12
74 1 -2.10217 10.7432 -0.969 20
75 1 -7.3029 -0.814797 -14.1159 11
76 1 -12.5868 -3.53405 -4.62014 14
77 1 -5.94978 9.90088 10.3383 10
78 1 -3.73966 11.2842 -6.4416 13
79 1 3.17508 -3.67147 13.8583 11
80 1 -12.2852 -4.44729 4.79227 18
81 1 -2.94111 -9.4922 5.25088 19
82 1 1.24603 10.5665 0.351975 18
83 1 8.31944 10.9475 -4.13683 13
84 1 -2.71694 -10.913 7.71498 12
85 1 -10.1619 4.86924 0.101276 18
86 1 -5.08035 3.24414 10.3305 23
87 1 -6.24366 1.69527 -8.2094 19
88 1 -6.17495 -4.27483 4.83405 19
89 1 -6.91232 -9.27604 5.2852 16
90 1 2.3482 -3.66769 -5.75432 22
91 1 -6.16866 7.30026 7.68699 18
92 1 -7.69221 2.12721 4.78603 19
93 1 -7.92305 -0.277131 -3.24273 20
94 1 -2.55236 -8.8721 1.02298 18
95 1 4.64987 7.23995 -5.61229 17
96 1 4.49008 -0.698193 13.1041 12
97 1 -3.90199 4.56292 -11.5305 12
98 1 -12.7324 -3.97678 -8.0457 8
99 1 -2.6913 12.3648 -3.75223 14
100 1 3.11615 2.20701 11.8896 19
101 1 -6.34024 9.93713 -8.27415 13
102 1 2.12304 7.71421 -7.48672 17
103 1 -4.35732 -0.457313 7.33806 20
104 1 -6.30829 6.62342 11.0137 18
105 1 -5.03785 -5.33831 -9.52322 13
106 1 4.09677 10.8802 -8.37356 9
107 1 1.63494 13.198 2.21892 11
108 1 -10.7466 2.78366 4.69392 19
109 1 0.226934 5.95517 13.9622 10
110 1 12.3958 3.57904 -1.92448 13
111 1 -0.91689 5.53307 7.29331 21
112 1 -10.1638 4.02211 7.68444 13
113 1 -11.7349 -3.11277 -1.32302 16
114 1 -0.25433 -2.68556 14.7966 14
115 1 2.92887 -9.94559 -1.47361 15
116 1 -2.70556 0.561384 -10.7353 15
117 1 7.04652 -1.24777 -6.28229 19
118 1 -12.7325 -0.967192 9.75357 9
119 1 -9.98286 -8.16712 -3.51907 11
120 1 -5.98738 -6.66213 -0.515972 25
121 1 -1.80714 -6.41789 7.56801 19
122 1 -8.99377 -1.64672 -11.3751 15
123 1 -10.2348 2.80351 -7.6179 15
124 1 6.90722 2.23638 7.96152 19
125 1 6.9975 -2.84962 8.21746 21
126 1 0.667611 -2.94746 7.89178 21
127 1 4.26524 8.87386 2.60119 18
128 1 -7.8738 -8.05663 2.08139 18
129 1 0.749088 11.6184 4.65012 14
130 1 -9.92772 -4.3288 -9.57958 17
131 1 -8.57497 -8.04319 -6.00534 15
132 1 -2.49444 -6.59067 4.81625 18
133 1 10.3259 4.43596 5.74258 15
134 1 -10.5468 -3.40332 10.7917 14
135 1 -5.1471 -9.95317 3.11723 20
136 1 -3.67539 -13.0006 4.21515 13
137 1 3.56638 -8.33855 1.4064 19
138 1 -9.32592 5.05223 -5.80881 21
139 1 5.31839 9.55054 0.382504 20
140 1 -7.79738 4.46273 -8.2704 21
141 1 -0.993628 7.89399 -9.17231 16
142 1 -5.19976 -2.97656 8.32979 19
143 1 1.81992 10.2456 9.60813 12
144 1 12.6757 0.383319 4.6635 13
145 1 -8.11401 1.60121 8.31356 18
146 1 -6.22292 -4.12692 14.7651 9
147 1 -7.74682 7.75795 4.60037 16
148 1 0.294423 -4.87743 -12.2284 12
149 1 6.1462 -9.62822 -1.2359 23
150 1 9.1859 -3.78888 -5.62967 15
151 1 -15.3814 -3.18472 4.10389 11
152 1 8.97014 -10.5901 -1.19226 13
153 1 -2.3744 8.7881 1.76618 22
154 1 -9.68923 5.16463 3.81574 17
155 1 0.00931176 -8.84433 7.4807 17
156 1 -2.20132 3.01754 8.54662 20
157 1 -8.33197 -2.6038 -5.37488 19
158 1 -2.66217 8.72278 6.88656 18
159 1 -7.98813 5.75814 -3.08091 19
160 1 -13.5249 0.928781 3.81507 12
161 1 -5.53447 -2.8292 -10.8171 19
162 1 -5.72846 8.9659 1.81533 19
163 1 5.05056 -0.237294 8.20892 20
164 1 8.26705 -6.89505 7.24669 13
165 1 -1.62322 -4.30939 12.8737 20
166 1 3.81943 -8.80501 -3.86653 16
167 1 -6.86361 -3.98644 -7.86673 19
168 1 -11.975 0.0960253 -3.16993 16
169 1 -2.89107 -9.33764 -2.87503 19
170 1 11.1401 6.21767 -3.98607 14
171 1 -11.1355 4.18819 -10.8261 9
172 1 -9.66144 7.08695 6.68393 15
173 1 -10.4612 10.2015 1.20506 12
174 1 -7.08003 4.47207 8.15495 20
175 1 12.5368 0.330411 -3.3039 12
176 1 8.14974 1.68569 -6.1415 18
177 1 0.134214 -8.33292 -3.25159 22
178 1 0.745509 8.72086 6.78939 19
179 1 -10.15 -0.421234 -5.47877 16
180 1 7.62653 -12.9573 1.22174 12
181 1 10.9793 1.93717 7.52344 11
182 1 -9.60794 -5.02995 -5.25555 20
183 1 -6.91982 -12.2756 4.37319 10
184 1 -1.31215 12.0345 1.74969 17
185 1 -7.21611 7.83138 -0.447306 19
186 1 -2.89204 -10.0912 -5.76794 15
187 1 4.05458 -7.23399 4.74849 22
188 1 -2.95693 -12.138 -1.43204 14
189 1 -10.4864 7.13397 -8.76351 11
190 1 -0.671623 -11.5221 4.45675 13
191 1 -2.39415 -3.07531 7.42014 19
192 1 -9.12691 2.84272 1.6742 21
193 1 3.3859 -7.03038 -6.1543 18
194 1 -12.4061 0.821839 7.23036 12
195 1 -2.03818 -8.0138 13.0021 12
196 1 -7.19414 -3.26073 11.3324 21
197 1 5.99459 -11.0914 -3.8057 13
198 1 7.26845 -10.801 3.42884 14
199 1 2.34177 12.8522 -1.53037 19
200 1 -11.0835 -5.64972 7.75854 12
201 1 9.02378 1.60199 10.181 10
202 1 9.55658 1.62305 -0.545754 19
203 1 2.17403 -0.967795 -8.08698 22
204 1 10.4422 -4.41948 7.89547 12
205 1 -6.54759 -1.05007 13.3263 17
206 1 4.42124 12.6633 1.27159 14
207 1 5.25932 -5.96798 7.33678 22
208 1 -1.3208 -12.1794 -6.19999 8
209 1 1.88587 7.27163 11.0589 12
210 1 -6.8754 2.449 13.8252 13
211 1 -4.39539 -5.40242 -3.23532 22
212 1 -11.4912 -6.66 -7.33081 10
213 1 -7.94459 10.8324 7.47823 8
214 1 -5.73656 -8.2939 -3.46648 23
215 1 -9.47839 -0.968037 4.84307 18
216 1 7.39358 3.92432 5.43723 21
217 1 8.61605 5.35881 2.45563 19
218 1 0.631116 5.15852 -5.50328 22
219 1 -1.3413 8.20626 -6.40588 20
220 1 -2.3868 7.47608 14.4276 9
221 1 -14.4091 -2.98104 0.648732 12
222 1 4.73526 14.2344 -2.17041 10
223 1 -6.47407 -5.833 -5.71962 23
224 1 -1.25239 -2.00852 -12.2379 12
225 1 6.37732 8.35881 -2.85151 19
226 1 2.61174 7.49351 0.404641 20
227 1 2.71419 4.34133 -7.49455 16
228 1 3.72133 -10.7908 3.15739 17
229 1 -6.71744 3.93422 -11.0069 15
230 1 8.73187 7.31624 -1.37224 18
231 1 5.59492 -3.86329 -0.506176 20
232 1 -3.79565 -1.25347 -13.9226 12
233 1 0.537513 -8.77279 2.59383 20
234 1 2.51247 -4.34967 9.67092 18
235 1 -7.97057 2.69764 -5.24614 23
236 1 0.0775 6.00815 -11.226 10
237 1 -14.374 -5.62434 2.83626 9
238 1 11.1494 -0.982024 -0.320955 18
239 1 -3.04563 6.07764 -5.22115 16
240 1 0.857972 -9.95604 -6.53784 14
241 1 2.62838 3.78956 -10.5841 10
242 1 10.9791 -2.51501 -3.18228 14
243 1 -11.2976 -2.52948 7.30711 19
244 1 -5.99863 10.6747 4.47832 14
245 1 -0.863416 12.9595 -5.79985 10
246 1 13.155 7.22496 -1.83238 11
247 1 0.254335 -10.4948 -0.366135 17
248 1 1.90167 -2.67935 -11.0024 17
249 1 10.9504 -3.98553 2.40464 13
250 1 3.88481 -6.38511 -0.307361 21
251 1 -10.8176 1.58376 9.53106 14
252 1 -4.66749 -2.79561 -5.87715 22
253 1 -1.71525 -0.553219 13.4144 16
254 1 6.85568 8.59961 -9.36532 8
255 1 -6.86443 10.1302 -4.86419 13
256 1 -0.491439 12.4507 -2.04746 17
257 1 -3.01155 -0.123247 10.1436 20
258 1 4.37495 -12.7632 -1.67909 10
259 1 2.44166 -4.6858 -8.70299 20
260 1 -14.6755 -2.1456 -2.35808 12
261 1 -9.47134 2.76263 -2.66966 19
262 1 -14.2998 -4.76536 6.79809 10
263 1 6.34731 6.80232 0.34059 20
264 1 1.99671 -7.27232 -8.71392 12
265 1 4.58153 -6.00792 12.3258 11
266 1 7.19294 2.68946 -4.17021 22
267 1 -12.0729 7.18282 1.86407 13
268 1 9.66963 -6.30951 -3.25247 14
269 1 -0.668604 8.89987 12.2148 12
270 1 -1.01784 0.873829 -8.19607 20
271 1 4.08187 6.34877 -9.5538 13
272 1 -4.69682 -4.40159 -13.5844 8
273 1 -4.62109 -9.60893 -0.585819 20
274 1 10.2645 4.70087 0.0974681 16
275 1 8.64154 -6.4055 -6.52798 9
276 1 7.53933 -12.9183 -2.40061 10
277 1 3.73642 11.4241 3.55796 17
278 1 -12.2678 5.76622 5.49606 12
279 1 9.99779 8.94588 -3.21303 16
280 1 -0.0439384 -2.70868 11.3487 21
281 1 3.28427 4.75426 10.8382 14
282 1 -7.61634 -1.35313 -8.68606 21
283 1 13.439 5.00326 0.83029 15
284 1 10.3962 -1.88291 5.00159 20
285 1 -0.887876 8.83636 9.29051 18
286 1 3.67828 2.7744 8.15857 21
287 1 -4.67794 8.63784 -5.50974 16
288 1 -4.45468 -12.3903 -4.45322 10
289 1 -7.21202 6.98985 -9.30047 16
290 1 -6.59866 0.420606 -10.8727 20
291 1 -11.511 3.37295 -4.45314 16
292 1 8.73511 -0.809102 7.91314 19
293 1 -4.4014 -8.30822 7.61302 16
294 1 9.27778 8.21602 -6.27269 12
295 1 12.512 -0.955187 2.26806 13
296 1 8.81627 7.25492 5.90738 16
297 1 12.7249 -4.41407 5.41792 9
298 1 -7.88584 4.93515 13.1412 12
299 1 -11.0144 -6.46582 2.49819 16
300 1 -10.4823 -1.18597 -7.86377 13
301 1 6.42751 4.17451 10.845 12
302 1 -7.47842 10.9314 1.5353 14
303 1 11.1928 2.10108 1.77345 19
304 1 5.44627 7.37866 5.49244 21
305 1 -9.24557 -0.587566 11.1625 18
306 1 6.02897 0.257084 -9.05306 15
307 1 -3.41595 -5.76086 -7.17304 20
308 1 3.90517 8.05238 8.41471 16
309 1 3.9155 4.22924 5.40951 22
310 1 0.69494 -5.75775 13.1644 14
311 1 -4.63346 5.08512 13.5692 16
312 1 -10.3252 1.76641 12.9784 7
313 1 -1.30962 5.40424 -7.67741 19
314 1 7.15082 11.0313 2.52567 16
315 1 1.46468 15.4061 -2.94908 6
316 1 -6.27246 -11.7548 -2.13611 14
317 1 5.73049 5.14768 3.14983 21
318 1 -7.6568 6.02738 1.99993 16
319 1 5.74627 5.39225 -2.64933 23
320 1 0.12098 0.283152 10.2349 23
321 1 5.89764 13.2501 4.30918 9
322 1 0.224946 -2.49172 -8.38955 19
323 1 1.94421 5.43189 8.38026 18
324 1 5.61618 -6.39785 -3.2042 20
325 1 6.46143 10.0251 5.10161 17
326 1 -14.0607 -1.43966 6.16833 15
327 1 4.61075 -13.9568 1.52953 9
328 1 6.75331 10.0272 -6.68288 14
329 1 5.86681 -6.18503 2.38386 18
330 1 -1.21472 7.37223 4.52887 23
331 1 -2.06306 -4.21928 -14.4465 9
332 1 6.7732 -3.28514 -8.24691 11
333 1 -2.61717 10.8321 10.0851 10
334 1 1.7795 -6.36869 7.29721 18
335 1 -8.26244 -11.2946 -4.04118 10
336 1 -5.82845 4.93244 5.29099 23
337 1 7.62175 2.06443 1.91753 21
338 1 0.659647 10.3192 -3.66534 22
339 1 6.57851 3.70342 -8.2877 16
340 1 7.68969 6.54114 -4.69934 21
341 1 1.34698 8.57969 -10.0961 11
342 1 -4.06995 -2.47949 11.2176 15
343 1 -2.88013 -4.99392 10.3283 17
344 1 -1.31808 -5.29363 -9.72893 16
345 1 -8.77806 11.1243 -1.77105 11
346 1 10.3582 10.3689 2.71925 8
347 1 -9.44914 -4.36224 4.694 19
348 1 6.84187 6.31775 -7.60389 18
349 1 -4.56075 1.33403 12.9036 16
350 1 -9.54745 -3.02383 -2.73763 20
351 1 7.39316 -0.816702 -0.45037 21
352 1 -9.47544 -6.54415 -0.30771 16
353 1 9.0015 -6.34401 1.80823 18
354 1 5.61205 -9.81262 5.99101 14
355 1 -3.50462 8.49987 11.7958 15
356 1 -7.86211 2.80507 10.9283 18
357 1 8.90676 1.57724 5.06185 21
358 1 7.05295 -6.68554 -0.771673 23
359 1 2.27361 7.33088 4.44243 16
360 1 -1.13712 11.5623 7.70053 12
361 1 1.95166 -9.96389 5.15743 18
362 1 -7.69119 -3.87058 -0.731064 22
363 1 1.44522 -0.292543 13.0587 16
364 1 3.031 9.16537 -2.00501 19
365 1 7.64513 -1.33775 11.1764 11
366 1 12.1294 -1.70221 7.25986 11
367 1 6.87474 8.8229 8.3437 12
368 1 -3.86795 8.12972 -0.59483 20
369 1 -1.92485 -8.82264 -8.39889 12
370 1 -5.6063 1.77147 -13.4427 11
371 1 -9.02764 -2.26066 13.8638 11
372 1 12.4767 3.59503 3.3552 13
373 1 0.289056 10.2543 -6.68067 18
374 1 4.5635 -2.46914 -9.4243 13
375 1 -4.51537 -12.5502 1.2489 14
376 1 -5.98217 -0.413988 -5.92015 21
377 1 -2.81516 -2.88075 -8.52015 17
378 1 -2.05697 -7.58656 -5.15338 18
379 1 2.14767 -7.44965 11.086 13
380 1 0.147649 -5.60638 9.66701 21
381 1 9.29352 4.48751 -6.01619 16
382 1 -9.22211 11.6628 4.05596 10
383 1 9.24621 -4.42753 -0.757887 16
384 1 -11.4493 2.11396 0.0614662 17
385 1 11.3464 6.28371 3.06583 13
386 1 0.306365 3.64322 11.9208 16
387 1 -13.7626 -1.58723 -5.96202 11
388 1 -4.78288 4.97533 -7.94105 21
389 1 10.1704 -7.85727 -0.541461 15
390 1 -7.99433 -5.70219 -3.03062 21
391 1 -6.71809 -6.39607 11.3867 12
392 1 7.63134 -1.49471 5.07606 20
393 1 -12.2401 4.09621 2.38644 15
394 1 4.08974 10.3406 -4.95977 20
395 1 7.18125 -5.75849 10.0983 11
396 1 -6.36996 0.0251076 10.2848 24
397 1 -7.96356 -3.80235 -12.267 10
398 1 -4.59932 -8.91823 11.1419 9
399 1 3.21741 -1.11096 10.4946 22
400 1 -1.42414 -12.2283 1.69818 14
401 1 10.4189 -0.622093 -5.7714 14
402 1 -11.201 8.96341 4.35922 11
403 1 -8.38513 -1.81167 8.26851 15
404 1 -0.10407 -10.8499 -3.52411 16
405 1 13.1737 8.1212 1.91545 9
406 1 8.76237 -0.597651 2.4712 21
407 1 -6.63699 -7.07561 8.29188 14
408 1 5.82311 12.7078 -5.06351 12
409 1 5.24802 1.46692 -5.99893 23
410 1 -12.311 5.36762 -6.20299 10
411 1 2.74644 5.40375 -2.51288 20
412 1 3.98175 11.0594 7.04587 13
413 1 5.83086 11.4136 -1.88676 19
414 1 -5.92428 7.93593 13.4264 13
415 1 8.97437 -0.126262 -2.89888 20
416 1 5.15531 -12.8963 4.08272 12
417 1 5.07434 5.5609 8.23851 20
418 1 7.72589 -3.25746 -3.1408 20
419 1 -8.52104 8.2075 -6.81758 14
420 1 -2.83538 5.31642 10.5077 18
421 1 -0.356175 7.6832 -0.665464 22
422 1 -5.91515 -6.89817 4.6497 20
423 1 2.2829 -5.89221 -3.03851 21
424 1 0.389337 0.149261 -10.4292 17
425 1 -9.57625 -2.97173 1.78101 24
426 1 -5.05323 6.20809 -2.82875 18
427 1 5.50137 1.08723 10.6377 18
428 1 -8.78864 -6.7328 5.33354 16
429 1 13.2511 1.80492 0.0204499 14
430 1 -2.88461 2.58948 -8.77936 21
431 2 -12.3637 -0.716036 -4.76916 13
432 2 -2.64066 12.4538 -5.57594 10
433 2 -3.58045 -3.11914 -13.9736 10
434 2 -6.44223 6.08159 13.6335 12
435 2 -11.7283 -4.87893 -6.40128 13
436 2 2.9384 -1.82256 13.1665 15
437 2 -13.0517 -1.82165 1.20037 20
438 2 11.4101 5.06091 4.27698 13
439 2 -9.5579 -6.54025 -4.33628 18
440 2 -9.49035 2.81731 -0.540402 17
441 2 -6.75868 -7.64257 6.50922 18
442 2 1.41281 1.6543 12.8612 17
443 2 6.11504 -1.52431 -8.45026 16
444 2 8.81125 -0.38897 4.40475 18
445 2 -5.72438 8.62368 -1.31904 17
446 2 8.30835 7.21983 7.94276 10
447 2 -14.3558 -4.90592 4.68575 11
448 2 -6.96058 -11.0232 5.66317 11
449 2 10.3723 -1.69155 7.27968 15
450 2 -11.4098 8.74889 2.58844 11
451 2 -8.26513 7.14817 -4.59451 19
452 2 -7.16741 6.32989 9.16426 17
453 2 3.81498 -6.7186 -4.10219 22
454 2 -6.43502 -2.39091 -6.79356 20
455 2 2.06704 -5.87134 -7.07068 19
456 2 8.5758 -0.432337 -6.36145 18
457 2 7.33469 10.2841 -2.67546 17
458 2 -6.14716 8.65528 3.98884 19
459 2 -6.60273 -12.0741 -3.91589 11
460 2 -1.81054 -10.9327 6.02353 15
461 2 7.2476 -1.81995 2.09453 19
462 2 -11.1139 1.8305 -3.22669 15
463 2 10.2688 9.52819 -1.07274 14
464 2 6.08603 -11.5198 4.92302 11
465 2 -1.17944 7.69685 7.75658 21
466 2 6.93654 6.49692 2.15614 18
467 2 2.51535 7.2378 -2.89128 20
468 2 -9.04685 -0.64976 12.9342 16
469 2 5.40043 -0.227711 -5.79848 21
470 2 -8.18467 1.4938 -3.69991 20
471 2 -13.8164 0.485289 5.74794 11
472 2 -7.80118 -9.35067 0.540059 18
473 2 -1.91896 -4.7562 6.52826 20
474 2 -0.323679 -5.04399 11.5995 20
475 2 -4.77164 5.4065 10.6757 24
476 2 -10.8874 4.51137 5.70712 14
477 2 5.54138 -9.53044 -4.51837 15
478 2 13.1139 1.76356 -2.03115 13
479 2 -5.17001 -13.0084 3.12521 12
480 2 0.699 4.45665 7.38077 18
481 2 6.53594 -7.81936 -2.19419 24
482 2 6.14942 -1.58214 12.2794 13
483 2 -4.48489 -5.78441 4.29471 21
484 2 11.1438 2.73607 -0.158727 21
485 2 0.246821 -8.85442 4.47237 20
486 2 10.0421 -7.86389 1.22724 13
487 2 -9.15758 -3.55796 -10.9257 13
488 2 -6.18143 -9.18541 -1.73149 21
489 2 -2.877 -8.83918 -0.876178 22
490 2 -7.54503 -5.77499 -1.03332 24
491 2 -1.55016 10.2984 2.48634 20
492 2 3.70189 2.83391 -6.29235 20
493 2 8.43023 7.71033 -3.31044 18
494 2 4.80983 9.00713 -5.89173 18
495 2 -8.57893 3.08779 12.9841 10
496 2 -11.786 3.98108 0.475602 12
497 2 -5.29798 4.81169 7.10498 17
498 2 -9.97424 5.94945 8.25826 11
499 2 -6.86359 4.39662 -4.03432 20
500 2 9.67807 2.86123 -5.51522 14
501 2 9.73344 -8.91279 -1.94984 12
502 2 9.12365 7.01405 3.99303 17
503 2 2.0473 10.6667 3.97896 19
504 2 -7.98557 5.95016 4.09366 16
505 2 13.3256 8.08645 -0.0606053 9
506 2 1.40598 8.8087 0.0501546 19
507 2 0.729575 11.8691 -5.3272 16
508 2 -2.43453 5.07095 8.61321 16
509 2 6.43 -0.564447 9.49629 20
510 2 3.92546 -3.09888 -4.98763 17
511 2 -6.13078 2.49541 11.7525 19
512 2 3.86179 4.35826 -9.00879 16
513 2 -5.08313 -7.2813 12.0337 12
514 2 1.73509 -9.59247 -3.15359 16
515 2 -1.70934 -5.82374 -6.47335 19
516 2 6.42325 -13.5241 2.4953 10
517 2 9.49908 9.81574 -5.25132 11
518 2 -6.65733 5.57345 -7.30358 20
519 2 -2.52834 10.6072 8.26641 12
520 2 -10.6911 -4.9908 -0.438853 16
521 2 2.83654 9.64859 -8.83419 11
522 2 2.45945 12.0554 0.880367 17
523 2 -2.9877 5.69051 14.1999 14
524 2 5.72082 -13.0253 -2.8464 9
525 2 1.4548 5.52293 11.9705 15
526 2 7.31824 -3.21635 -0.892305 17
527 2 5.80332 5.3278 5.20478 21
528 2 -4.67003 5.58634 -10.1046 17
529 2 5.67994 -6.98817 11.1049 11
530 2 -4.43042 -10.118 7.25627 14
531 2 5.17452 -9.26034 7.74559 12
532 2 -6.578 9.25559 -6.57331 16
533 2 -3.8037 -11.1078 -2.91273 17
534 2 -2.78206 0.00497709 -8.80972 21
535 2 -6.85684 -7.30546 -6.84124 18
536 2 5.998 10.0902 6.92972 12
537 2 -11.1931 -3.36758 -3.47304 21
538 2 -12.268 2.39724 3.41382 15
539 2 8.75355 -0.369079 10.0674 13
540 2 -0.967285 -11.338 -1.85193 14
541 2 0.388572 -0.461922 -8.75114 17
542 2 -4.736 -2.36151 -9.22584 20
543 2 -9.43958 -0.992074 -9.60499 14
544 2 -7.21162 -2.81188 14.2323 10
545 2 -5.25071 -4.96353 -6.942 20
546 2 4.67305 -3.98091 -8.35766 19
547 2 6.62825 2.93825 -5.97293 20
548 2 -7.99616 -4.01574 1.26428 21
549 2 2.43435 -2.89173 -8.94198 21
550 2 -2.79895 -2.85268 -6.5537 22
551 2 -0.0543817 7.96449 -10.9932 9
552 2 0.46738 10.4061 8.3004 15
553 2 12.1657 1.64128 3.23454 15
554 2 -12.6591 -1.23317 7.69558 15
555 2 -2.86006 -7.85845 6.60008 21
556 2 -2.5804 3.54998 -10.4879 17
557 2 -3.95134 6.20663 3.8978 20
558 2 -6.22185 -6.32891 1.79551 22
559 2 -6.91486 7.70641 1.29753 17
560 2 -10.6369 -4.34019 9.12491 13
561 2 1.45456 -11.5344 4.24768 16
562 2 -10.3447 -3.05668 3.47772 19
563 2 -6.86512 -11.0755 2.82173 15
564 2 -7.79674 -5.34604 4.42005 20
565 2 6.78658 -3.50575 9.99855 16
566 2 3.4081 11.5901 -6.04845 14
567 2 7.0026 11.8411 4.36042 10
568 2 9.54101 6.37174 -5.64366 15
569 2 -2.5139 13.2928 -2.13863 10
570 2 -12.2169 -2.42252 -7.17561 14
571 2 -10.9679 0.399173 0.816249 20
572 2 -3.19738 -11.9731 -5.61178 11
573 2 3.64244 -7.02201 6.68385 20
574 2 9.55789 -5.75566 7.28438 12
575 2 -4.93183 10.6728 -4.64475 16
576 2 7.9068 2.86111 -0.0430208 21
577 2 4.50926 -4.17722 12.6718 13
578 2 2.22624 5.43833 4.87425 22
579 2 0.142635 -0.761974 14.4884 11
580 2 -9.39731 1.99154 3.55904 19
581 2 7.05479 11.4492 -5.43635 12
582 2 -11.4301 -5.38541 -8.80266 9
583 2 -10.4044 0.633643 -7.14228 16
584 2 -7.97161 -0.585827 9.6376 18
585 2 4.72654 9.84122 -1.66387 20
586 2 8.9418 5.61388 -0.58636 15
587 2 9.37328 -4.43355 1.27167 18
588 2 -8.99544 -6.71313 1.50831 21
589 2 -2.75229 8.63073 4.91998 21
590 2 -5.1621 6.94329 -4.67103 19
591 2 3.76466 2.01127 -10.7722 10
592 2 -9.3591 4.83583 2.00914 18
593 2 -15.2456 -3.15016 6.29606 9
594 2 8.04988 -12.6583 -0.739957 10
595 2 0.29438 -8.75322 -0.95745 20
596 2 -9.15012 11.1601 2.43124 11
597 2 -12.5296 5.12617 -3.99216 10
598 2 5.51798 -10.2224 2.25459 19
599 2 3.40547 4.67677 7.42466 20
600 2 -1.01874 1.37035 -10.316 13
601 2 -2.78151 8.8138 -9.59571 12
602 2 5.77873 6.96722 -9.5995 10
603 2 -2.10738 8.77607 -0.532833 17
604 2 -9.34229 -3.60341 12.1495 14
605 2 -3.06529 -3.36871 9.37026 20
606 2 -12.8314 -1.1012 -1.63118 17
607 2 -5.03642 -4.04472 6.73732 18
608 2 0.195135 8.81081 -8.00785 15
609 2 7.38757 -1.05284 -2.96472 20
610 2 2.01319 -0.188306 9.5964 23
611 2 0.271812 -1.40533 -11.3982 16
612 2 7.67279 3.66048 3.24724 19
613 2 1.98431 7.88945 7.83445 21
614 2 -10.9653 -5.6214 4.31495 18
615 2 -1.30998 10.741 -3.12381 20
616 2 -0.17325 2.1 10.5941 19
617 2 -0.210037 -13.1542 2.49272 10
618 2 -7.66261 -6.34789 9.68116 12
619 2 4.96405 1.47254 8.53524 20
620 2 7.54182 8.32918 -7.34586 14
621 2 4.81693 13.0697 2.87783 11
622 2 1.7301 -9.11355 6.91817 16
623 2 7.53221 -10.6191 -2.66369 14
624 2 -5.25839 3.27066 -12.4887 13
625 2 -0.178545 3.99641 13.8139 12
626 2 -1.20831 -0.439066 9.21114 22
627 2 5.57797 -5.98371 4.47296 20
628 2 -5.36162 -0.32502 -13.9352 10
629 2 11.9268 -1.16598 -2.32832 12
630 2 -7.35634 10.6564 -0.293562 13
631 2 3.25838 -6.37161 -9.74365 11
632 2 -4.36299 3.23658 13.9591 14
633 2 -10.7931 5.86687 -10.3214 10
634 2 8.85113 -6.29845 -1.47165 19
635 2 3.61895 9.98476 8.61493 12
636 2 8.83303 5.06709 6.40056 18
637 2 10.6015 4.72851 2.05388 18
638 2 -9.16217 -1.34716 -4.05412 18
639 2 -6.85814 6.11708 -1.52765 17
640 2 -8.90514 3.65474 -6.90654 19
641 2 11.7052 7.68761 -2.81588 12
642 2 -8.26802 10.4263 -3.7081 12
643 2 -1.8231 -6.41871 9.67886 18
644 2 -0.184461 -0.764492 12.0277 19
645 2 -3.32354 -7.93529 -7.13439 16
646 2 -3.22056 -5.74519 -13.8688 8
647 2 4.47199 13.1017 -0.728522 13
648 2 5.24052 10.4622 2.79186 18
649 2 -6.66285 -1.37783 -11.2079 19
650 2 -8.21676 -10.9061 -2.159 12
651 2 9.48145 0.782203 1.51897 19
652 2 -10.1333 9.90738 -0.588089 12
653 2 3.41446 -12.72 2.89659 13
654 2 8.24084 -3.39663 4.86863 22
655 2 -9.57515 -2.04435 6.42601 16
656 2 -8.18611 -4.86121 -6.69052 20
657 2 -1.90527 4.16459 11.8016 19
658 2 -0.0693218 8.8518 -5.03346 17
659 2 -11.0196 7.27563 5.34109 13
660 2 -1.75149 -6.22717 13.8394 14
661 2 0.101139 12.6869 3.15461 13
662 2 -0.857095 -10.1477 1.36709 19
663 2 0.577856 -3.34142 9.68191 20
664 2 4.68016 3.93443 11.6583 13
665 2 -11.7432 5.72954 3.07446 15
666 2 -0.55454 7.45904 -2.59848 22
667 2 -3.41332 2.1967 9.94555 21
668 2 -6.86702 -5.46439 -9.23544 16
669 2 11.3084 -2.24391 1.44073 14
670 2 7.86443 -8.13114 -5.05815 13
671 2 -3.91661 11.4072 -1.06384 17
672 2 -3.26887 -0.240699 12.14 17
673 2 -9.71064 4.25366 -4.1526 20
674 2 9.57151 -3.7143 -2.50132 16
675 2 4.40145 7.69536 0.925204 18
676 2 -6.46568 2.01768 8.99439 16
677 2 -1.64147 -3.75235 14.8828 11
678 2 -1.05186 5.81859 -9.56344 19
679 2 -11.6179 3.70328 -6.51042 13
680 2 -0.781982 -3.68714 -9.15554 18
681 2 -0.984284 6.37915 -6.07615 21
682 2 -7.60242 1.28141 -13.9217 10
683 2 7.46009 -5.37978 -7.52277 11
684 2 -2.91009 -6.38754 -3.64733 21
685 2 -1.40184 -9.89878 8.46866 14
686 2 3.90189 -1.24726 7.0672 22
687 2 10.3664 -2.47581 -5.01023 14
688 2 -2.25562 -12.2601 3.44576 15
689 2 7.07518 8.11337 5.00566 19
690 2 -6.72696 9.54843 8.57921 10
691 2 -12.6833 -5.47665 1.8844 15
692 2 7.23051 4.3771 -3.10416 21
693 2 2.21312 -6.26753 4.52973 22
694 2 -10.4767 10.5078 4.9501 10
695 2 5.39587 1.46899 -3.91093 21
696 2 3.94407 8.01368 4.47559 22
697 2 -10.6945 1.97124 7.59565 12
698 2 2.6758 9.87196 -3.61365 17
699 2 3.57046 -1.5789 -10.7763 15
700 2 -5.57914 -1.82738 6.61119 16
701 2 -2.08908 1.67094 13.6426 15
702 2 12.4219 0.0641131 6.47438 9
703 2 4.04475 0.131227 -9.24179 17
704 2 -8.03531 -3.92739 -3.80023 20
705 2 11.0383 0.513989 -4.37747 14
706 2 -0.765418 7.71295 2.44572 22
707 2 -0.20996 -7.5899 -8.43636 16
708 2 -8.7313 3.49089 8.97488 16
709 2 -7.46865 0.139108 4.70763 17
710 2 4.7948 -12.7882 0.0130666 13
711 2 -4.59722 -9.161 -5.08198 17
712 2 -2.88451 -12.2404 0.332273 15
713 2 12.3036 0.155875 0.829438 16
714 2 -5.9819 8.48987 -9.38855 13
715 2 4.3784 11.9025 5.35471 11
716 2 -1.45563 -9.48709 -4.17133 19
717 2 2.34243 1.48701 7.45141 21
718 2 -4.00631 7.87655 13.4534 13
719 2 -8.91623 7.76052 -8.5699 14
720 2 0.261001 -11.6664 -5.22494 11
721 2 -9.08352 -5.81795 6.95828 16
722 2 -11.2986 7.22371 0.29123 13
723 2 5.82903 10.1269 -8.5009 10
724 2 -3.29308 5.74829 -7.03278 19
725 2 4.24162 4.31221 -3.63452 23
726 2 -8.64442 -2.06158 -13.4199 8
727 2 -1.35319 -10.2788 -6.90984 14
728 2 -14.1162 -2.45197 -3.99635 10
729 2 5.67891 7.46578 7.68007 17
730 2 -4.32277 3.05551 -7.56569 19
731 2 -12.3501 -4.13469 6.75934 15
732 2 6.53831 4.76427 9.08835 17
733 2 2.49507 3.37974 9.59887 20
734 2 8.13854 4.40376 -7.64853 14
735 2 -1.69736 10.6613 -7.03326 16
736 2 -0.630513 11.6557 -0.156471 20
737 2 12.5033 -3.68043 6.97764 10
738 2 5.83024 13.1625 -3.17885 12
739 2 1.12203 -4.39272 14.4574 12
740 2 -3.21832 -5.08334 -8.88766 18
741 2 3.96468 0.51485 11.5818 17
742 2 -3.94954 7.48668 7.39889 19
743 2 6.80409 -7.2986 1.18672 22
744 2 9.40095 -5.7489 -4.90006 13
745 2 -4.20768 10.1458 10.7764 10
746 2 6.58535 -6.56035 8.51242 12
747 2 -2.86391 8.40165 -5.1653 15
748 2 -1.83251 9.17053 10.8021 14
749 2 -10.6566 6.08599 -6.86962 15
750 2 3.12086 13.7637 -3.43159 14
751 2 -9.71668 -7.16556 -7.33067 14
752 2 -0.671688 -3.66427 -13.3856 12
753 2 -4.5166 1.47876 6.58808 23
754 2 11.0997 -3.8865 4.43442 15
755 2 -4.7071 10.9855 -8.04002 11
756 2 -12.4859 0.782862 9.40212 9
757 2 -8.62837 -9.39921 -4.61415 12
758 2 0.889003 8.77013 10.7926 13
759 2 -6.00098 -4.13786 -12.2292 12
760 2 -9.13771 4.17963 -12.2213 11
761 2 2.20723 6.09687 -6.45977 20
762 2 -6.34362 0.026599 -9.14866 18
763 2 -7.72821 11.257 5.66139 10
764 2 -7.82507 7.64878 6.61182 17
765 2 0.951008 13.7938 -2.20363 14
766 2 -5.74684 -11.6496 -0.22449 16
767 2 6.50745 1.91772 -8.38208 16
768 2 7.46966 -3.11011 -6.0656 18
769 2 -7.83552 -8.08378 4.1606 17
770 2 -9.75458 5.4919 -1.73639 19
771 2 -13.0685 -2.42809 4.86658 19
772 2 -4.34805 0.159898 -6.44922 21
773 2 -0.040629 -6.80906 7.07845 20
774 2 3.61624 6.49661 10.0227 15
775 2 5.74537 -4.19892 7.15496 18
776 2 -6.18348 0.674489 13.7588 12
777 2 2.38976 7.16604 -9.46774 15
778 2 -0.801884 7.48753 13.5418 12
779 2 -9.59353 -7.80546 -1.68915 13
780 2 -7.30061 -3.47571 8.84567 19
781 2 -7.44295 3.07964 6.61909 18
782 2 -7.37602 5.32184 -9.9579 17
783 2 -9.10259 -2.24317 -7.2971 16
784 2 -5.77839 11.0319 2.36731 16
785 2 7.28926 -7.96543 5.77452 16
786 2 8.62702 9.8147 2.82681 13
787 2 -4.55144 -12.3757 5.53536 14
788 2 -14.9785 -3.72122 2.20971 11
789 2 -9.29513 -0.885991 2.13452 20
790 2 -4.62676 -0.770827 9.31571 17
791 2 2.26871 -6.52332 12.5995 12
792 2 2.23859 -9.56947 2.05974 20
793 2 10.4556 2.48691 5.84588 14
794 2 0.483998 -6.50422 -3.72676 22
795 2 -3.93961 7.74622 1.34984 20
796 2 -6.72673 1.55212 -6.35541 21
797 2 -5.9439 -1.65554 11.5279 20
798 2 2.11733 -4.33138 7.16729 21
799 2 -4.66087 -4.95021 14.8713 10
800 2 4.09425 -2.79167 9.49693 20
801 2 6.02115 5.88292 -6.08397 21
802 2 6.90983 11.0261 0.140899 12
803 2 1.9508 -4.43862 -11.9594 11
804 2 7.55544 -1.69704 6.9612 19
805 2 12.3273 5.39509 -0.81333 17
806 2 6.39558 -4.44763 -3.54829 20
807 2 -0.853363 10.9597 6.02285 16
808 2 11.6288 -1.13635 4.06177 18
809 2 -5.44789 -8.5739 9.45636 11
810 2 -2.58141 -9.00687 11.5535 9
811 2 -6.40921 -4.72677 12.3963 15
812 2 4.60512 -10.7792 -2.01273 13
813 2 8.01273 -9.64738 -0.0672102 19
814 2 8.69732 -5.90204 3.69741 19
815 2 2.38111 -6.25194 9.42327 17
816 2 5.81603 -4.17206 1.89707 23
817 2 -8.21711 5.51251 11.5295 14
818 2 5.52091 6.90947 -3.87969 17
819 2 -1.06878 -5.93153 -11.3641 10
820 2 5.10927 -7.43534 -7.07611 14
821 2 0.851271 4.39996 -10.8443 13
822 2 -6.32663 2.74497 -9.54913 18
823 2 11.7847 9.52289 1.77899 8
824 2 -9.67038 -2.31646 -0.862001 19
825 2 13.4383 3.20884 1.34345 13
826 2 -12.1699 -0.314803 3.56657 16
827 2 4.10336 -6.62648 1.9248 23
828 2 1.15825 11.1823 -1.79596 18
829 2 11.5583 4.30812 -3.46773 14
830 2 5.92247 5.31959 -0.727467 20
831 2 0.489151 -7.47527 10.1483 17
832 2 -13.7033 -3.54754 -1.07913 13
833 2 9.11187 2.10061 8.31743 15
834 2 3.83818 -9.41267 4.76068 22
835 2 13.1672 6.18482 2.16074 12
836 2 -9.27796 1.21692 11.1358 16
837 2 -10.6273 7.6884 -3.14297 12
838 2 9.46631 -0.287934 -1.05135 19
839 2 3.31025 -8.30101 -0.785856 19
840 2 -6.21786 -6.1775 -3.77487 20
841 2 1.85137 7.09157 2.36283 20
842 2 8.6204 -9.70505 2.875 13
843 2 0.624283 8.26956 4.85826 20
844 2 -4.50192 -8.63234 4.37489 20
845 2 -3.71375 -4.12664 11.8991 19
846 2 -6.11097 8.66403 11.58 11
847 2 -2.88748 -0.570993 -12.199 15
848 2 -10.6395 2.43739 -9.85213 13
849 2 -11.4338 -1.70566 10.7584 14
850 2 7.26779 2.28398 10.5391 13
851 2 -8.33253 1.52008 -11.1211 18
852 2 6.9813 1.97351 5.78101 19
853 2 8.6836 1.88497 -3.32228 20
854 2 -1.53302 3.27585 -7.74 18
855 2 7.20418 8.39328 -0.465683 20
856 2 -4.35671 -9.76654 1.42761 21
857 2 -3.08442 12.6847 1.29455 13
858 2 -3.94914 11.4729 4.28151 12
859 2 5.11674 -5.56732 -1.49485 20
860 2 2.16196 -8.5647 -6.25012 15
861 1 -6.35221 -3.03287 -3.20355 22
862 1 -2.69496 -0.334862 -5.81722 22
863 1 -1.16476 -3.85299 -6.10036 24
864 1 -1.0782 -5.5002 -3.39868 20
865 1 -3.016 -2.42368 -3.1253 23
866 2 -4.32196 -5.89469 -1.17529 22
867 2 -5.74894 -2.8912 -1.0613 22
868 2 -5.93477 -1.19914 -4.12109 21
869 2 -4.46926 -3.74603 -3.87959 21
870 2 -1.30462 -5.70576 -1.40794 23