ITEM: TIMESTEP
35000
ITEM: NUMBER OF ATOMS
1000
ITEM: BOX BOUNDS pp pp pp
-30.0 30.0
-30.0 30.0
-30.0 30.0
ITEM: ATOMS id type x y z Coordination
1 1 -6.81599 -3.72728 4.14731 17
2 1 -2.50941 -6.95929 17.6099 13
3 1 -13.1022 13.9502 9.08611 11
4 1 -10.5717 3.72398 -5.07801 16
5 1 -0.151884 -2.06445 14.3457 20
6 1 -12.0608 11.0178 -2.56749 12
7 1 -12.4535 -1.03843 8.55577 16
8 1 6.19654 -5.14611 11.0534 19
9 1 -3.24151 4.7557 19.4174 19
10 1 -12.2286 11.358 0.896416 14
11 1 -4.19867 12.1567 15.2359 20
12 1 -11.6734 7.38028 9.53011 20
13 1 -6.04971 11.0139 -1.75832 15
14 1 5.63607 -4.5939 18.333 5
15 1 2.05194 4.27802 17.6305 16
16 1 3.09943 -7.28863 12.1453 17
17 1 -8.14805 -0.521781 16.52 19
18 1 -10.6651 3.63251 11.6702 16
19 1 -6.44779 13.4204 6.29584 21
20 1 -2.53563 5.75646 -0.561686 19
21 1 -4.49978 -5.40746 -1.72398 10
22 1 -5.35824 4.94265 23.0321 11
23 1 -15.6146 9.09744 12.3022 14
24 1 -4.39576 18.9888 4.91357 14
25 1 -4.76233 -8.38219 11.6286 12
26 1 4.81706 -6.62145 4.83411 15
27 1 4.96177 10.9617 5.32359 17
28 1 -12.2811 13.8958 2.5987 9
29 1 -1.62965 16.346 1.99521 19
30 1 -5.676 3.77743 17.7283 19
31 1 -5.70626 -2.17937 18.1673 15
32 1 -15.1808 3.69974 11.0491 15
33 1 -1.89849 13.5558 10.3031 23
34 1 2.32852 -3.93374 2.90796 15
35 1 -3.00068 6.32027 15.5472 18
36 1 -16.2544 -0.190239 5.32487 8
37 1 -5.44282 -2.50066 -3.67352 10
38 1 -7.16648 12.6096 13.6379 18
39 1 -3.39822 10.4371 -3.28801 14
40 1 1.11601 5.39518 0.930812 20
41 1 -3.09552 -4.23104 12.1012 21
42 1 -3.8049 -4.85208 20.2298 9
43 1 0.211586 16.2425 16.2372 10
44 1 -12.1866 2.23799 16.0751 17
45 1 -1.88374 10.326 17.8357 20
46 1 7.28171 -3.62375 4.70776 11
47 1 2.74217 4.89145 -1.30957 18
48 1 -5.05788 17.9574 10.2407 18
49 1 -9.61616 9.18281 -4.07323 16
50 1 -2.70622 14.8049 13.3975 17
51 1 -5.14049 1.95656 20.4364 17
52 1 -1.89017 -8.08307 6.90108 14
53 1 4.88775 3.54677 -3.01446 10
54 1 -3.96351 9.27271 15.0261 20
55 1 -13.5926 5.61887 4.76943 17
56 1 7.25495 -0.793672 2.3349 10
57 1 -10.9284 -5.42757 2.50386 14
58 1 10.3434 -0.498045 10.6488 8
59 1 -7.21807 15.5878 12.6083 13
60 1 3.08808 13.2095 0.92849 14
61 1 7.47824 -1.40938 10.0745 16
62 1 -10.5131 -8.46348 3.15991 8
63 1 5.62977 15.6712 10.9356 15
64 1 1.91846 3.06428 6.17538 17
65 1 -5.37825 16.32 2.68992 14
66 1 -6.02165 2.96067 3.46835 23
67 1 -3.99815 17.539 0.0657621 11
68 1 3.15305 6.88418 0.991499 21
69 1 -4.30734 8.20212 -6.32674 11
70 1 9.00397 -2.09388 7.28289 10
71 1 -9.41771 12.0461 5.18468 20
72 1 1.65361 15.2194 13.7077 14
73 1 9.45118 12.1508 7.2696 11
74 1 -10.3942 18.389 7.11888 9
75 1 -7.94534 7.55957 -6.40176 13
76 1 -11.1893 0.467679 2.74506 21
77 1 -10.8532 8.12051 18.7251 13
78 1 -10.8702 9.91247 -0.883579 16
79 1 0.390769 -1.46111 17.1955 20
80 1 -8.64395 4.27572 8.21379 17
81 1 -5.74095 -2.70796 12.154 20
82 1 -3.39918 7.69077 9.64472 19
83 1 7.24329 12.9632 4.75084 14
84 1 -4.14973 -1.6087 15.1521 19
85 1 -8.55877 7.70395 14.7506 13
86 1 -1.8132 6.15232 21.5943 14
87 1 -6.23574 2.79338 -2.15083 19
88 1 -10.3168 -3.06631 16.546 9
89 1 -12.4713 -4.54641 13.6148 9
90 1 -4.64559 -2.53939 1.49362 14
91 1 -7.41567 11.0185 16.4176 16
92 1 -5.78029 7.34777 12.8726 15
93 1 -6.55283 1.7291 6.46164 21
94 1 -0.196583 -6.261 7.80669 18
95 1 6.95404 12.2432 1.22005 10
96 1 -0.903368 -5.21628 19.3544 12
97 1 -5.22898 5.37933 -7.2553 11
98 1 -9.37038 2.61425 -2.42999 21
99 1 -10.4823 15.8289 8.61314 17
100 1 1.88656 6.82081 16.5396 14
101 1 -8.95804 4.40166 0.113796 20
102 1 2.68965 8.75361 3.73655 19
103 1 -8.93847 6.39439 18.7335 16
104 1 -3.33197 10.5767 21.0687 10
105 1 -3.25399 3.92417 -3.59525 15
106 1 7.23616 9.97943 3.14093 16
107 1 0.947052 18.9653 10.1403 14
108 1 -8.39014 3.49006 19.6802 15
109 1 -1.43061 3.65385 16.1128 20
110 1 5.40272 3.14427 9.92358 17
111 1 -4.97602 14.3006 11.5512 23
112 1 -11.3886 5.23474 16.8764 18
113 1 -12.5138 4.06122 9.91689 23
114 1 5.18146 -6.13226 13.9939 14
115 1 4.23815 -8.75246 7.1678 10
116 1 -1.70532 6.52499 -6.8269 10
117 1 5.80385 5.72418 -0.171713 13
118 1 -13.614 6.20605 19.1233 10
119 1 -11.1114 -1.99237 -2.324 8
120 1 -7.22309 -3.06606 8.7234 17
121 1 -5.47788 -5.20627 10.1812 20
122 1 -10.0241 0.403809 -4.40377 12
123 1 -12.8535 2.51182 -3.22114 12
124 1 2.66156 2.62631 12.216 19
125 1 5.628 -2.61576 14.928 15
126 1 -0.939643 5.41085 18.1014 22
127 1 1.21618 16.3322 4.99777 22
128 1 -9.55616 -0.472012 8.80091 15
129 1 -4.40635 20.626 8.10621 9
130 1 -8.5363 4.69689 -7.65902 13
131 1 -6.33691 2.4651 -7.57704 9
132 1 -5.5699 -0.177299 12.3124 19
133 1 3.8794 11.6639 16.4954 11
134 1 -12.6043 -1.37836 16.0409 10
135 1 -10.9098 -6.73593 11.4668 10
136 1 -2.90677 -6.96277 14.5644 15
137 1 2.48116 -10.2224 2.83361 8
138 1 -0.339097 13.0307 1.18339 18
139 1 1.13896 18.4462 3.11072 12
140 1 -13.1663 5.4776 -4.79339 12
141 1 1.37381 12.3452 -1.45711 13
142 1 -4.90319 4.41121 14.487 17
143 1 -0.367418 17.2569 12.5239 15
144 1 5.4585 3.33635 13.3996 13
145 1 -16.0324 6.10882 13.333 9
146 1 -11.2061 5.03061 21.2425 9
147 1 -8.73156 6.92274 11.6151 20
148 1 -3.5559 -2.19466 -5.63839 10
149 1 2.10188 -8.43688 8.8842 15
150 1 8.02219 0.505095 5.40511 16
151 1 -10.9983 -1.84482 12.0415 15
152 1 4.97759 -7.04098 9.9036 13
153 1 -7.00127 12.0984 10.275 19
154 1 -11.4761 9.72662 11.8763 18
155 1 -4.96465 -4.59082 16.3931 15
156 1 0.325106 7.14954 19.3074 16
157 1 -13.629 -1.40822 0.524925 14
158 1 -2.40549 19.3591 10.6561 16
159 1 -9.24022 7.9818 1.0287 16
160 1 -10.65 0.979569 11.0965 20
161 1 -8.05045 -0.381514 -2.33945 18
162 1 -14.0958 12.3882 11.5919 11
163 1 3.88808 3.22568 15.4461 13
164 1 5.15632 -2.12846 12.3649 22
165 1 2.05619 -0.628367 20.2202 12
166 1 -0.551059 -8.73964 2.35574 11
167 1 -8.77012 -7.45366 0.370284 10
168 1 -13.8909 7.87319 7.36696 15
169 1 -3.5181 -9.92511 3.54981 7
170 1 8.86091 10.7137 10.1624 13
171 1 -14.7567 9.89603 -1.10043 9
172 1 -4.70205 13.2143 19.4727 14
173 1 -9.37801 7.21065 7.57304 16
174 1 -3.36744 14.6437 16.8485 14
175 1 4.35815 4.12408 1.92561 20
176 1 6.77265 9.21594 -0.499527 12
177 1 -10.8964 -6.48921 8.45244 11
178 1 -0.927124 10.2924 10.4902 19
179 1 -13.6318 7.35997 0.974968 10
180 1 3.49723 -5.61871 7.71285 19
181 1 5.42785 6.68822 14.1791 11
182 1 -11.2066 2.53831 0.46128 18
183 1 -8.45466 -4.62996 11.4949 16
184 1 -9.05625 17.6614 10.7981 9
185 1 -12.5882 13.1954 5.31195 12
186 1 -10.8669 -2.74314 0.70737 15
187 1 2.42408 -2.62013 11.9802 20
188 1 -5.97014 -5.35795 1.34606 19
189 1 -8.89669 12.8018 -1.90146 12
190 1 -4.99261 -5.00851 6.57696 18
191 1 -5.7879 3.00528 9.0924 17
192 1 -14.4576 6.76958 10.2012 16
193 1 4.67255 -2.23071 3.18161 13
194 1 -13.371 9.24623 17.6801 12
195 1 -0.210878 3.63595 20.6903 16
196 1 -4.60535 10.5905 18.011 18
197 1 4.55867 -2.92091 9.27766 21
198 1 2.67749 -4.42265 14.4381 19
199 1 -3.09188 18.2788 7.39014 20
200 1 -12.5643 -4.27955 9.91307 11
201 1 3.25799 0.519381 17.1087 19
202 1 1.83094 2.41783 -0.190636 16
203 1 -6.81593 -0.479112 -5.82814 10
204 1 1.96 0.100596 11.8345 23
205 1 -2.80317 8.1139 18.5872 19
206 1 -5.46167 16.3243 5.7148 18
207 1 -1.78412 -4.41284 15.3069 18
208 1 -2.44232 -9.5094 9.43201 9
209 1 -4.37808 17.3827 12.9989 11
210 1 -3.27932 7.08247 23.6965 7
211 1 -4.9639 -6.77484 4.2713 21
212 1 -5.45429 5.43805 -2.38429 17
213 1 -6.54286 14.3062 15.9368 15
214 1 -7.98171 -3.42185 1.17722 17
215 1 -11.7215 -5.6817 5.1318 13
216 1 6.44972 8.86224 11.6032 14
217 1 4.51531 9.64644 9.16848 18
218 1 0.782067 10.3246 4.55367 16
219 1 -4.17194 11.5484 1.20455 18
220 1 3.34736 14.5316 16.9511 10
221 1 -14.8155 4.63485 7.69073 15
222 1 -1.02153 20.8494 7.82637 11
223 1 -4.57554 -1.46318 6.45399 21
224 1 -2.61426 -1.83347 -0.329777 17
225 1 1.2285 14.277 7.34218 17
226 1 -3.82156 14.3152 4.0314 21
227 1 4.1584 6.5234 -5.05691 7
228 1 0.891082 -7.1833 4.99438 19
229 1 -13.8037 4.51576 -1.09105 14
230 1 1.77243 11.5125 9.50928 20
231 1 1.05892 -4.18589 6.01759 19
232 1 2.02155 2.21221 -3.2659 12
233 1 -1.61472 -4.08042 8.86457 18
234 1 -1.0126 0.824185 21.4664 12
235 1 -7.61202 7.42088 -1.51911 17
236 1 1.09102 8.2246 -4.6077 11
237 1 -15.4243 1.8357 8.17165 12
238 1 10.8 1.92944 7.84637 6
239 1 -9.23694 9.11826 4.02896 14
240 1 -0.18077 -7.12128 10.6748 14
241 1 2.03242 4.66813 -5.23337 11
242 1 9.22346 3.47978 5.02408 11
243 1 -13.868 0.791066 10.9065 13
244 1 -10.9339 12.5926 10.8755 17
245 1 -2.66808 16.2443 -2.58867 8
246 1 10.3088 8.67081 7.64868 10
247 1 -0.416072 -5.31331 12.5985 17
248 1 -2.23563 0.502593 -4.57742 12
249 1 6.71778 0.791729 7.99759 17
250 1 1.6888 -5.33476 10.2171 20
251 1 -15.4852 7.93237 15.2063 11
252 1 -1.48919 -4.88783 -0.482277 13
253 1 0.733774 13.1363 18.0122 16
254 1 -0.928593 19.5801 5.19158 15
255 1 -1.59303 11.737 3.40122 19
256 1 -6.35507 9.45282 1.26687 15
257 1 -5.83792 5.71195 20.232 19
258 1 2.35902 -7.48781 1.99151 11
259 1 2.26051 1.78556 3.39014 18
260 1 -12.0078 8.06066 2.94429 18
261 1 -10.5554 5.34038 3.29281 19
262 1 -10.1575 5.12277 14.0044 16
263 1 1.08992 7.47422 5.77542 21
264 1 -7.25978 -8.82474 5.21072 11
265 1 -5.60857 -6.06507 13.5773 16
266 1 -0.54664 8.41073 2.2537 21
267 1 -13.5656 10.2409 14.2632 15
268 1 4.61153 0.980106 1.56423 13
269 1 0.817069 7.33947 23.0754 7
270 1 -0.804496 2.94705 -5.5051 13
271 1 4.93715 12.0899 -1.14513 10
272 1 -2.84547 3.54621 -7.50754 11
273 1 -7.60688 -7.79219 10.0107 12
274 1 6.7162 12.3872 12.0069 14
275 1 6.86059 2.89863 -0.27441 11
276 1 6.44271 -5.1295 7.36013 15
277 1 0.807501 18.5599 7.21481 16
278 1 -10.2662 10.2571 15.9192 15
279 1 2.02405 15.9574 1.88425 15
280 1 -7.82491 0.311531 19.6281 10
281 1 -0.60501 7.76305 15.1377 17
282 1 -8.11787 5.28604 -3.98149 19
283 1 -0.663002 16.959 8.88901 21
284 1 1.2632 8.24166 9.24292 21
285 1 -0.618596 8.92768 21.1877 13
286 1 -0.784538 8.77564 7.56919 19
287 1 -7.36391 13.9307 3.60693 16
288 1 -8.21745 -6.34183 4.06631 20
289 1 -5.02383 13.4584 -1.64563 13
290 1 -7.35879 2.13236 -4.97912 15
291 1 -12.136 2.75816 4.22238 22
292 1 5.49555 5.95192 11.0985 16
293 1 -0.139318 -2.06092 11.2679 21
294 1 4.3075 14.5879 4.42249 14
295 1 8.49999 -4.52041 9.92151 10
296 1 4.17022 13.3571 8.83184 19
297 1 2.49893 -7.28788 15.6986 13
298 1 -10.4872 8.1844 23.7418 5
299 1 -11.3589 7.7788 5.71388 18
300 1 -14.2921 1.96783 -0.129809 10
301 1 3.80941 11.1474 11.9149 19
302 1 -10.9588 12.0965 13.6913 14
303 1 4.25526 8.27663 6.51908 17
304 1 3.76042 13.6918 11.868 19
305 1 -7.03839 -3.20871 15.4267 13
306 1 -1.23315 -2.45428 -3.0483 10
307 1 -0.280456 -2.61182 0.957861 15
308 1 -1.40597 12.7583 16.0909 17
309 1 2.75637 10.9623 6.83924 20
310 1 2.68782 -6.15541 19.1766 7
311 1 -6.22033 8.14162 22.4328 13
312 1 -8.80652 6.13743 22.2282 14
313 1 0.252956 7.52129 -1.19381 19
314 1 5.70156 15.7237 7.57897 13
315 1 -6.66574 12.8653 0.666749 15
316 1 -10.8006 -3.34878 7.17061 15
317 1 7.49291 9.43322 6.40291 19
318 1 -5.16991 13.35 8.732 18
319 1 1.68818 12.9839 3.80748 19
320 1 0.874287 1.39016 18.2742 21
321 1 3.06741 16.5871 8.03056 18
322 1 -6.96702 -3.92065 -1.87592 10
323 1 4.94708 13.7248 14.3387 13
324 1 -0.627872 1.58546 11.8734 21
325 1 1.2999 14.9427 10.2764 23
326 1 -11.7947 1.88629 8.12559 17
327 1 -2.72871 -6.53724 9.69587 20
328 1 -2.06041 16.8325 5.03838 22
329 1 2.57342 -1.66881 15.1506 19
330 1 -7.02747 18.0254 7.84603 18
331 1 -2.96601 2.47606 -0.525101 17
332 1 -0.624748 -5.29844 2.74596 19
333 1 0.524747 12.1397 21.2054 5
334 1 -3.28637 1.81529 14.4933 22
335 1 -13.3466 -4.42783 2.117 8
336 1 -4.63119 11.1022 11.8017 21
337 1 3.17029 5.35884 4.33403 22
338 1 -8.71511 15.4243 6.3774 20
339 1 6.14194 8.9496 -3.3345 6
340 1 4.8764 9.93052 1.38457 18
341 1 -1.54566 13.4892 -2.39628 14
342 1 -5.23438 1.38577 23.2673 6
343 1 -3.94421 -2.77238 9.24993 20
344 1 -0.544806 0.104806 -1.90318 14
345 1 -9.1694 11.3205 1.64558 17
346 1 8.26949 14.1757 9.24251 10
347 1 -14.7186 0.543565 2.63152 14
348 1 5.41033 7.76251 3.84031 21
349 1 -5.72953 11.5949 22.6466 9
350 1 -9.11193 2.78233 2.86514 21
351 1 4.76863 2.28972 6.838 20
352 1 -13.8673 -1.8642 3.82988 12
353 1 8.0073 -4.30979 13.666 9
354 1 2.72704 -10.2119 14.2682 6
355 1 -9.10319 9.81799 21.9355 9
356 1 -13.0843 2.7184 13.1625 20
357 1 1.78684 5.41046 10.8913 15
358 1 4.64215 -1.15722 7.21751 16
359 1 1.34525 12.0364 14.3975 18
360 1 -6.93347 15.0623 18.5317 8
361 1 -2.55215 -3.38012 17.9225 19
362 1 -11.4094 4.95726 6.88849 20
363 1 2.53915 2.04102 20.5518 11
364 1 -1.65169 19.4725 2.51234 12
365 1 4.16699 0.566105 10.3404 22
366 1 6.96012 6.8959 8.30101 18
367 1 6.54386 12.2273 8.01527 20
368 1 -7.34161 15.3657 9.23073 21
369 1 -3.27338 -6.93165 1.43454 16
370 1 0.00450046 10.2568 -2.3929 16
371 1 -14.1412 4.76971 15.8722 12
372 1 8.94966 7.49062 10.2256 11
373 1 -9.6238 14.1883 1.69038 12
374 1 -2.67367 3.1913 2.41965 22
375 1 -7.59225 -6.24621 7.58453 16
376 1 -14.0168 7.71312 -2.79863 13
377 1 -1.01967 0.658722 1.27805 18
378 1 -6.49155 -8.48306 2.49541 13
379 1 -3.66962 -0.313748 20.4544 13
380 1 0.601592 -4.90512 16.8095 19
381 1 8.11693 6.70843 5.18049 18
382 1 -9.50374 13.5391 16.4834 11
383 1 6.74548 5.24027 2.47786 15
384 1 -7.11659 10.7513 7.88225 18
385 1 3.25289 8.30425 11.7093 17
386 1 1.06846 10.1592 17.1825 14
387 1 -12.3984 10.5237 4.13967 16
388 1 -12.5869 9.12391 -5.00411 9
389 1 4.20311 -3.59933 5.86395 20
390 1 -9.17763 -0.478528 0.959518 16
391 1 -5.00234 1.143 17.1537 19
392 1 0.30262 1.09942 14.6498 18
393 1 -11.5145 8.33215 14.7977 18
394 1 -0.820114 16.1061 -0.349187 14
395 1 3.08881 -3.21872 17.617 16
396 1 -11.1597 0.120342 18.0187 14
397 1 -1.94481 9.18996 -0.238619 19
398 1 -1.70879 -0.0517146 16.0031 17
399 1 -1.66018 4.08356 13.4186 19
400 1 -5.1371 -7.94113 7.3974 18
401 1 7.52701 2.21384 2.47518 14
402 1 -7.75993 8.78386 18.2299 16
403 1 -13.1383 6.11882 12.526 21
404 1 1.87902 -10.9714 5.77174 5
405 1 7.52668 4.38959 7.89396 16
406 1 4.3372 0.221455 4.66375 18
407 1 -2.25223 1.95132 18.6903 20
408 1 3.87052 17.4004 4.95202 11
409 1 -0.527473 3.38257 -1.63756 16
410 1 -10.6788 6.79233 -6.6082 12
411 1 -2.06952 9.4358 5.24331 20
412 1 3.06614 17.1851 11.3518 14
413 1 -0.603223 12.0637 7.78117 20
414 1 -7.53746 11.7815 19.9149 13
415 1 6.07307 4.09722 5.02867 19
416 1 -0.370808 -8.22264 15.3585 9
417 1 2.64244 9.24073 14.2933 15
418 1 1.95293 -1.30617 5.50076 20
419 1 -10.8966 5.84484 -2.40728 19
420 1 -1.20001 14.6691 19.2801 10
421 1 -2.35193 16.1851 10.681 20
422 1 -10.4447 0.79367 14.4075 21
423 1 -0.808468 -1.89384 6.48095 19
424 1 -2.11102 0.283295 -7.61769 7
425 1 -15.3434 2.83233 5.1412 11
426 1 -11.0972 16.5106 4.05996 11
427 1 1.21547 5.00332 14.1725 17
428 1 -11.8068 -0.247113 5.41577 15
429 1 4.75951 0.631101 14.3761 14
430 1 -5.90761 8.26371 -4.00895 14
431 2 -7.14349 6.16111 -7.41092 13
432 2 -10.8889 12.6817 1.47102 14
433 2 0.814241 3.37333 -4.73294 10
434 2 0.558179 5.79605 17.4927 16
435 2 -9.89275 3.0067 -0.702948 18
436 2 -1.32921 7.42622 22.8961 10
437 2 -15.493 3.40284 9.23314 13
438 2 2.41653 13.3568 13.3609 17
439 2 -8.18883 -2.43656 4.51706 16
440 2 -11.7224 9.57102 9.93855 17
441 2 -4.39666 -1.59406 13.0747 18
442 2 0.930074 0.573514 20.9162 12
443 2 1.43766 8.91187 -2.58593 14
444 2 5.67995 0.502742 6.0757 17
445 2 -8.8947 14.8443 8.36114 20
446 2 4.49986 11.9463 7.27438 20
447 2 -13.8602 0.664215 9.03802 15
448 2 -9.26988 -2.13957 7.82959 13
449 2 2.49424 -1.2918 17.4185 14
450 2 -10.3999 6.94466 14.6375 15
451 2 -14.2518 8.16729 -0.656346 10
452 2 -7.79005 9.06287 15.9962 18
453 2 0.122917 -7.89149 8.46803 15
454 2 -8.02031 0.636748 -3.98451 15
455 2 -3.98651 -6.51238 5.89099 17
456 2 1.91078 6.80897 -0.552677 14
457 2 -1.01273 18.8982 6.8578 19
458 2 -6.20296 13.9597 10.196 22
459 2 -8.69941 -4.72943 3.21374 19
460 2 -4.08851 -9.67742 10.4222 8
461 2 4.13412 3.08539 8.28999 19
462 2 -13.2248 5.60269 0.365923 15
463 2 5.15936 12.4631 12.8107 14
464 2 -0.754187 -3.46735 12.2145 18
465 2 1.81762 15.1306 15.9541 13
466 2 6.68047 14.2351 7.86481 15
467 2 -2.6593 18.0375 1.482 17
468 2 -11.025 -1.46568 17.3501 11
469 2 3.53513 2.4577 1.90494 18
470 2 -12.4151 13.9765 7.26046 12
471 2 -11.0763 1.89669 12.7072 21
472 2 -10.1613 -7.14409 1.91221 11
473 2 -6.89589 3.25212 7.475 16
474 2 3.93243 -4.84606 18.8171 7
475 2 0.0980768 10.4454 21.5794 9
476 2 -11.9859 -0.352486 11.0309 17
477 2 1.51643 -6.18553 6.69685 18
478 2 7.25477 6.99741 3.41299 14
479 2 -3.47171 -5.39351 15.599 17
480 2 -8.01382 14.7288 17.0095 10
481 2 -0.585004 -1.01864 -0.0226226 17
482 2 -2.15261 3.73436 17.8099 23
483 2 -12.3359 -2.87465 14.767 9
484 2 3.14017 10.0844 5.03416 19
485 2 -4.07327 1.16078 12.6766 21
486 2 7.92982 -0.667888 7.68952 15
487 2 -10.0059 5.2293 -4.05689 17
488 2 -13.7303 -2.62796 2.02715 13
489 2 -8.97021 -6.94367 8.53873 11
490 2 -11.3426 -2.41168 5.23983 17
491 2 -8.57718 16.3089 11.853 10
492 2 2.11217 6.77307 -5.13747 8
493 2 -1.06229 8.14584 12.0409 17
494 2 -4.52755 13.405 0.412443 15
495 2 -6.80091 5.98935 21.8889 14
496 2 -16.4342 7.97114 13.5114 10
497 2 -3.17702 11.3301 16.7686 21
498 2 -13.232 5.44078 17.2728 15
499 2 -12.6764 12.2126 3.51325 12
500 2 9.14038 7.92118 5.91633 12
501 2 8.79383 -2.94306 9.02606 12
502 2 7.312 10.6352 11.3772 14
503 2 -2.3245 16.5953 12.7303 17
504 2 -9.1452 11.6702 16.8331 16
505 2 5.91354 8.6798 7.44862 20
506 2 -5.12309 18.1018 3.56191 12
507 2 -3.77463 16.8727 6.26705 20
508 2 -3.96537 10.8463 13.6643 16
509 2 0.708835 9.73669 9.92585 22
510 2 6.17528 3.83854 -1.82008 10
511 2 -11.0245 6.18828 22.8758 7
512 2 5.43591 7.89128 -4.69534 6
513 2 -4.81799 -5.02215 12.2832 19
514 2 2.64692 -4.01028 4.82615 18
515 2 -2.76185 -3.38328 1.21842 21
516 2 3.11547 -6.16389 9.33683 19
517 2 5.38914 13.0977 4.42787 17
518 2 -8.1116 13.0992 1.67646 16
519 2 -0.285134 13.1699 19.7968 11
520 2 -10.7926 3.82264 2.25623 19
521 2 -1.09856 4.41188 -6.678 10
522 2 -3.66691 18.5021 11.7263 12
523 2 -2.28611 9.5351 19.8583 18
524 2 1.38644 -2.18854 7.14701 20
525 2 -4.34034 8.71707 17.3696 17
526 2 7.84527 0.648471 3.59001 12
527 2 9.12166 10.1157 7.38615 12
528 2 -5.9788 11.1 0.413893 15
529 2 -1.78111 -5.51722 13.6519 18
530 2 -6.90685 -3.7645 10.81 15
531 2 -1.11665 -4.59 17.3617 20
532 2 -11.2749 10.3898 -4.06299 10
533 2 -11.17 -5.53961 6.89118 11
534 2 -1.7882 2.13721 -7.68672 8
535 2 -4.49359 2.03302 6.24599 20
536 2 2.81326 14.7119 8.53302 22
537 2 -8.47053 4.57175 1.86485 19
538 2 -14.3103 9.10455 16.07 12
539 2 5.31535 -3.54562 16.7082 13
540 2 -6.37946 -5.38914 4.76706 20
541 2 0.967932 1.2456 -1.71903 11
542 2 -5.10286 3.73539 -3.16814 14
543 2 -7.99203 3.36125 -3.57808 22
544 2 -5.30426 3.09317 23.3326 8
545 2 -6.75123 -4.18882 0.0253221 15
546 2 -2.77631 -2.80467 -4.28019 9
547 2 -0.0849823 9.10455 0.166119 20
548 2 -9.75644 10.9729 11.5989 17
549 2 -1.4627 -6.57275 1.76484 14
550 2 -4.87636 2.42489 0.167338 20
551 2 -3.63317 6.59464 -7.11236 10
552 2 -7.12319 17.5365 9.94772 15
553 2 9.94963 9.19429 9.48393 12
554 2 -8.57892 -2.41217 16.3841 14
555 2 -7.92976 5.80315 7.1557 15
556 2 -6.07296 4.82936 3.71804 17
557 2 -6.8347 11.4893 12.1592 15
558 2 -7.46929 0.509555 12.6721 18
559 2 -14.4604 8.54877 10.5003 16
560 2 -11.7298 1.86304 17.9048 15
561 2 -5.4843 1.2391 10.1686 19
562 2 -3.61601 0.127919 15.7374 19
563 2 -8.95106 -6.45024 11.1302 11
564 2 -8.64094 0.373142 10.236 17
565 2 1.36491 -2.89662 13.6903 19
566 2 -7.04865 16.1403 6.96002 19
567 2 -0.716118 14.0365 6.81354 20
568 2 7.58729 11.9026 2.94419 10
569 2 -1.00149 15.2907 -2.12231 9
570 2 -10.1366 5.02863 -6.49754 13
571 2 -14.3232 6.35343 8.4018 17
572 2 -6.6777 -1.88872 -2.26861 14
573 2 1.08748 -6.25545 11.7613 19
574 2 2.82834 -9.06929 12.7314 10
575 2 -5.58018 15.0999 4.03867 16
576 2 0.778464 4.23468 -0.579868 18
577 2 1.07073 -5.23233 18.6789 12
578 2 -3.09941 12.8579 8.91455 21
579 2 2.28985 5.05364 15.8289 14
580 2 -12.164 0.259162 15.5654 15
581 2 -4.14845 16.0178 1.33997 13
582 2 -7.03748 0.895246 -1.11816 17
583 2 -9.99999 -1.01407 -3.23857 9
584 2 -12.9089 7.93014 18.9841 9
585 2 0.746175 16.6792 7.91267 18
586 2 8.41582 12.2942 8.86364 12
587 2 3.24048 -6.68957 14.2518 13
588 2 -13.1618 -4.89697 4.00866 10
589 2 -11.9156 10.6646 14.7788 14
590 2 -12.3156 15.1872 4.84483 11
591 2 -4.66645 6.02969 -0.853053 20
592 2 -4.59789 8.45466 11.8087 21
593 2 -12.1607 -3.46774 11.6268 12
594 2 8.02092 -4.71716 11.6863 12
595 2 -2.41662 -8.91272 2.35005 9
596 2 -14.8917 6.22512 14.7968 13
597 2 -11.2756 8.96603 4.40321 18
598 2 4.13074 -8.64886 9.27889 11
599 2 -0.64506 12.5135 14.2835 16
600 2 3.67429 4.77913 -4.20062 10
601 2 -12.8132 10.6194 -0.813441 14
602 2 5.77071 10.2511 -2.07045 11
603 2 -9.95913 17.0106 5.79741 13
604 2 -8.67549 8.04001 22.7086 11
605 2 -4.13431 1.10558 18.9771 18
606 2 -9.24531 6.25025 -1.22791 14
607 2 -6.08255 2.55406 16.2136 17
608 2 -3.89583 14.9038 -2.58479 10
609 2 3.92736 5.21036 0.0423686 20
610 2 -2.41687 8.18413 14.826 16
611 2 -2.4742 4.21259 -1.84385 15
612 2 2.06663 4.63717 7.05419 21
613 2 -0.767595 12.2096 10.0304 17
614 2 -15.6923 -0.951428 3.70239 9
615 2 -2.59572 20.4498 8.73142 13
616 2 0.997275 8.60784 18.1587 16
617 2 1.98199 -11.4838 3.96402 4
618 2 -7.29306 -2.6026 13.4464 17
619 2 -1.96442 -4.17286 20.6503 9
620 2 2.34964 13.8637 2.38601 16
621 2 7.822 12.1081 6.32793 14
622 2 1.37595 -9.14048 15.1615 7
623 2 2.41034 0.774148 4.92453 19
624 2 -6.41552 8.56273 -5.93159 10
625 2 4.68491 13.5205 16.1418 8
626 2 -2.0981 6.72548 17.3959 20
627 2 1.25179 -8.94182 2.14855 9
628 2 -4.87324 3.65455 -7.56288 11
629 2 6.52326 2.69801 7.89901 16
630 2 -6.09963 12.4791 4.37697 17
631 2 -2.63435 -9.83388 5.32896 10
632 2 2.69049 13.0766 17.5811 11
633 2 -7.57771 3.37574 -6.65237 12
634 2 9.59314 1.85593 6.17599 11
635 2 -6.65267 14.4433 13.9586 16
636 2 3.94137 7.70074 13.8456 18
637 2 4.51849 9.52998 10.9571 21
638 2 -5.07147 11.2267 9.96192 20
639 2 -11.315 14.1688 9.7001 11
640 2 -14.0164 2.365 3.88105 17
641 2 1.89065 14.5723 5.16673 19
642 2 -10.5657 15.0117 2.86937 13
643 2 -4.22741 6.42414 19.4265 18
644 2 0.736383 1.21446 12.8657 18
645 2 1.53961 -6.58112 3.37039 15
646 2 -7.26715 7.86408 0.451833 18
647 2 -2.21249 19.0259 4.29628 15
648 2 4.53487 16.1443 9.15561 13
649 2 -13.2835 3.06781 0.793834 15
650 2 -11.7096 -4.48101 1.31317 14
651 2 0.483059 7.4024 7.64717 18
652 2 -11.0891 11.9858 6.09703 14
653 2 -2.6167 -8.08687 16.1449 10
654 2 4.00694 -3.81857 13.1141 20
655 2 -10.6523 3.71641 16.0817 18
656 2 -9.0027 -2.40817 -0.0353586 17
657 2 -3.22258 14.0982 14.9775 18
658 2 -7.21801 12.6542 -1.28007 11
659 2 -13.5682 3.27425 15.0704 13
660 2 -7.15676 2.1854 19.8658 16
661 2 -0.693567 18.2097 10.8104 19
662 2 -3.38447 -8.10997 8.26959 18
663 2 0.729254 -1.79079 18.8689 18
664 2 4.97899 4.80963 14.507 14
665 2 -11.3419 9.24342 17.0364 15
666 2 1.04961 12.2118 0.497328 16
667 2 -7.15236 6.93511 18.4819 18
668 2 -5.72189 -1.71236 -5.3341 9
669 2 8.57578 -0.216503 11.302 11
670 2 6.60124 -2.22961 3.82864 12
671 2 -6.87452 12.4968 7.84048 21
672 2 -3.92413 12.1197 20.477 15
673 2 -9.42543 10.8674 3.78528 18
674 2 7.48918 3.34074 3.95177 16
675 2 -1.11922 14.5881 1.08439 18
676 2 -5.28971 6.844 23.6643 10
677 2 -12.6821 4.36113 19.9999 10
678 2 -4.8203 10.0279 2.63861 16
679 2 -12.5686 3.74506 -4.61202 11
680 2 2.59215 -2.04177 2.79715 16
681 2 -3.9419 8.72624 -4.38601 13
682 2 -5.57448 9.24728 -1.84373 19
683 2 0.692768 -4.09239 1.90935 16
684 2 -6.66223 -1.56422 7.60244 18
685 2 -5.14008 -1.7818 10.3791 24
686 2 -1.66873 3.28387 11.6369 17
687 2 5.74815 6.01594 7.17876 23
688 2 -0.891526 -5.45875 9.85006 17
689 2 3.91876 15.4299 11.7683 15
690 2 -5.36363 14.4903 17.5696 13
691 2 -12.8912 -0.181338 3.46134 16
692 2 6.66461 10.1488 1.19257 14
693 2 0.75257 -6.56191 15.4894 16
694 2 -4.69336 10.0462 22.5484 8
695 2 -0.718708 6.56139 1.72278 22
696 2 -2.12393 12.0696 1.34383 15
697 2 -6.71129 10.5754 18.3215 16
698 2 -2.43005 17.2848 -0.922021 11
699 2 3.43197 3.10705 -2.14327 12
700 2 -8.74196 1.2486 15.6651 20
701 2 1.27911 3.01294 19.4114 17
702 2 1.55025 7.26286 11.0964 19
703 2 -1.39391 7.03494 -1.88185 19
704 2 -5.11626 -0.650398 2.83548 17
705 2 6.21999 0.56202 10.0427 19
706 2 -5.20644 18.8851 8.32874 15
707 2 -5.51384 -8.58001 4.12484 15
708 2 -8.5112 4.46087 17.9407 16
709 2 -14.2936 2.2543 11.9422 15
710 2 3.37146 -10.0637 6.23577 9
711 2 -6.80555 -7.4612 6.83866 15
712 2 -1.76153 -8.12192 10.3471 13
713 2 4.3184 -0.970238 15.1733 17
714 2 -10.3646 11.7272 -1.62181 12
715 2 2.45167 17.7092 9.68879 16
716 2 -4.46905 -5.90767 2.33634 19
717 2 -3.25121 13.3723 12.0825 20
718 2 -6.19292 12.1807 15.4589 19
719 2 -4.28623 11.9055 -2.5112 13
720 2 -4.20197 -3.44555 7.25664 21
721 2 -12.0869 -2.76672 8.71993 14
722 2 -13.7142 12.2706 9.62727 12
723 2 -2.60552 16.9689 8.85047 20
724 2 -8.7862 7.94992 5.84762 16
725 2 0.023749 20.0232 3.55028 8
726 2 -9.44754 8.94013 -2.09942 16
727 2 -7.08113 -7.31804 1.24752 13
728 2 -11.3342 6.89898 7.39467 22
729 2 -0.693446 15.3554 10.1895 20
730 2 -5.03365 5.15374 8.72296 19
731 2 -12.7871 3.72938 7.81477 19
732 2 -0.362257 11.4836 17.0067 14
733 2 -2.52679 10.6259 11.4207 19
734 2 5.10698 5.02008 3.66179 21
735 2 -0.324642 12.0359 -2.47456 13
736 2 0.335869 20.0552 8.55592 12
737 2 -4.37255 -3.43421 19.0864 12
738 2 -0.281396 17.1756 4.38336 21
739 2 -1.83909 -0.916527 21.2185 10
740 2 -2.52536 -0.587115 -6.06816 10
741 2 2.88867 1.05755 18.8731 12
742 2 -12.2992 12.2706 12.2139 15
743 2 4.80854 -3.92248 7.73852 21
744 2 -0.893556 -1.48263 2.42272 17
745 2 -3.06371 13.9888 18.4925 16
746 2 -0.678303 0.672214 17.2973 20
747 2 -2.35767 13.2496 4.97811 16
748 2 -6.68711 13.5771 19.7026 11
749 2 -12.0182 7.26099 -5.28745 14
750 2 0.510689 17.1981 1.60959 14
751 2 -11.8193 -1.55591 -0.590222 12
752 2 -2.27331 2.64486 -4.59684 14
753 2 -2.77513 6.03231 10.3906 17
754 2 1.9748 -3.53627 16.031 21
755 2 -9.44635 7.43438 3.04159 14
756 2 -9.03844 9.01347 19.6587 14
757 2 -8.2298 -8.46254 3.78642 13
758 2 3.51938 12.2999 10.1668 20
759 2 -1.55903 1.63062 -1.34114 16
760 2 -11.117 1.47686 -3.22196 13
761 2 3.54893 9.79083 -0.125067 19
762 2 -6.97437 4.02784 -0.327836 19
763 2 -12.1664 8.34727 12.9036 21
764 2 -7.78939 8.01497 12.9891 16
765 2 2.62553 16.7416 3.56115 12
766 2 -11.8971 -5.93612 10.2463 11
767 2 6.13525 7.55613 -0.804493 14
768 2 6.89772 4.27586 0.884248 13
769 2 -10.3759 -6.61956 4.1924 11
770 2 -14.6687 10.7838 12.5651 13
771 2 -9.28474 0.569654 18.143 15
772 2 -6.70958 6.71331 -3.09145 18
773 2 -3.49909 -4.76928 9.65499 19
774 2 -0.488736 14.5409 17.2159 14
775 2 2.96735 2.63082 16.9896 13
776 2 -3.53263 5.69853 22.302 13
777 2 4.84414 12.4359 0.837481 13
778 2 0.486563 7.46039 21.148 11
779 2 -9.91766 3.42809 7.15681 19
780 2 -2.18185 -2.41263 16.0195 19
781 2 -15.6406 1.38315 6.28062 10
782 2 -14.1922 2.79331 -1.89034 10
783 2 -10.2791 1.13421 1.15628 20
784 2 -11.7033 16.7704 7.69211 12
785 2 6.75814 -5.51725 14.3846 10
786 2 6.77014 13.9249 10.7475 15
787 2 -11.8172 -6.24383 13.0968 7
788 2 -10.114 -0.795106 13.1805 16
789 2 -15.1341 4.57735 5.71272 14
790 2 -5.03918 3.90659 19.7947 21
791 2 -5.31038 -2.52766 16.3613 16
792 2 5.85751 -4.8629 5.05158 13
793 2 6.98088 7.31675 10.1321 16
794 2 -0.75954 -4.24931 7.0414 19
795 2 -5.07629 14.6579 6.9436 20
796 2 -13.3803 5.8703 -2.77504 12
797 2 -0.931425 5.33419 20.1414 18
798 2 0.829795 -0.656015 15.4919 18
799 2 -6.62148 -0.289409 18.3188 15
800 2 2.32709 10.6189 15.714 15
801 2 6.05391 9.38912 4.75577 20
802 2 1.63407 15.9822 12.0649 14
803 2 -1.61305 -0.680236 -3.22629 12
804 2 3.61707 5.64215 10.4539 19
805 2 8.78076 6.15797 8.65177 10
806 2 5.31925 -0.343348 2.78401 15
807 2 -4.50449 20.1939 6.12696 12
808 2 6.80256 -2.82306 13.3476 14
809 2 -1.37743 2.33509 20.2013 17
810 2 -4.23235 -7.67069 13.5723 11
811 2 -6.27667 -5.00454 15.0118 11
812 2 10.875 0.893216 9.48763 5
813 2 7.75621 -3.68851 6.76841 11
814 2 6.46642 -5.68169 9.28882 15
815 2 -3.33805 -6.07669 18.8856 10
816 2 -1.14416 -0.330047 7.48737 20
817 2 -10.395 9.97422 23.3586 5
818 2 1.4569 12.1483 7.69798 19
819 2 -6.18981 -3.49439 2.30449 15
820 2 -1.7173 -3.25823 -1.39297 12
821 2 3.16275 12.6106 -1.1856 10
822 2 -9.59305 8.5614 -6.1326 10
823 2 0.39621 16.9525 14.3153 10
824 2 -12.4042 5.70188 10.7134 18
825 2 4.11019 2.09371 13.8468 17
826 2 -11.9859 4.5697 13.1683 20
827 2 -0.79594 -6.83295 5.8725 14
828 2 5.03711 16.077 5.76127 13
829 2 4.30569 8.22514 2.42171 21
830 2 0.176556 12.2112 4.05456 20
831 2 -4.42503 0.752103 21.8767 10
832 2 -14.3473 0.379396 0.591976 13
833 2 6.32491 7.04355 12.4961 13
834 2 3.71593 -7.20061 3.27577 10
835 2 5.85217 4.13216 11.4709 16
836 2 -10.5876 6.40883 18.0196 19
837 2 -13.125 9.29843 2.11054 12
838 2 8.08722 4.79269 5.8994 14
839 2 -1.29117 2.12889 14.7635 18
840 2 -10.8397 0.424566 7.4519 18
841 2 1.13318 8.82691 2.89464 19
842 2 4.79946 -7.25678 6.6175 15
843 2 -5.31871 16.0129 12.1953 16
844 2 -1.46723 -2.29354 9.7952 21
845 2 -9.23804 4.96862 20.6234 13
846 2 -7.2792 11.0418 21.604 12
847 2 -7.19438 1.09647 -6.70039 10
848 2 -13.813 9.4786 -3.47383 10
849 2 -15.3474 5.41208 11.5044 16
850 2 1.86573 4.37285 12.6204 18
851 2 -3.27679 4.55471 1.20309 17
852 2 2.31867 10.1966 12.6302 18
853 2 6.33456 1.54665 0.973452 11
854 2 -3.37895 8.32682 0.787732 21
855 2 -0.258036 9.7515 5.88674 21
856 2 -6.44701 -4.75772 7.9326 18
857 2 -9.70649 13.3368 14.4442 15
858 2 -9.86562 18.5747 8.97743 9
859 2 4.1236 -1.5591 5.4822 17
860 2 5.02324 -6.48425 11.7844 16
861 1 -7.41507 5.66219 2.91033 18
862 1 -5.21735 4.28478 0.0561046 21
863 1 1.04834 -0.452267 2.9969 17
864 1 -4.44293 0.179273 4.46292 17
865 1 -5.71664 -0.685165 -1.25143 15
866 2 -10.1948 -1.31835 2.26213 18
867 2 -10.7961 1.31847 4.49205 17
868 2 -4.19768 2.08023 3.41013 21
869 2 -7.20515 1.75884 2.35023 20
870 2 -3.20201 3.72339 14.4952 16
871 2 -6.77292 0.240201 5.34632 17
872 2 -9.919 9.7882 0.991213 17
873 2 -2.60647 1.58935 1.54381 18
874 1 -6.94111 7.6045 6.22672 16
875 1 -2.77509 0.92598 7.18121 19
876 1 -7.34623 1.55579 10.9966 17
877 1 -9.40674 2.1362 5.6883 18
878 1 -13.0586 2.47915 19.2766 7
879 1 -8.27613 -1.13282 12.8622 18
880 1 -3.25798 -4.46985 2.95643 18
881 1 -4.58571 0.711465 1.56311 18