ITEM: TIMESTEP
87000
ITEM: NUMBER OF ATOMS
500
ITEM: BOX BOUNDS pp pp pp
-30.0 30.0
-30.0 30.0
-30.0 30.0
ITEM: ATOMS id type x y z Coordination
1 1 14.5201 -14.5242 -11.3179 13
2 1 12.1542 -11.1292 -10.5861 15
3 1 6.17508 -13.6637 -27.3456 19
4 1 0.0771059 -12.3437 -21.6535 16
5 1 11.1352 -9.78143 -28.6011 13
6 1 13.0879 -21.1434 -19.4399 17
7 1 18.2552 -16.1187 -11.7137 10
8 1 13.7627 -8.61881 -11.2171 13
9 1 0.758837 -15.8693 -17.1757 14
10 1 17.431 -16.8046 -23.2187 20
11 1 17.1705 -13.277 -12.1661 14
12 1 2.7324 -20.4546 -15.5988 13
13 1 9.74803 -19.3379 -28.0198 11
14 1 18.8459 -14.0777 -21.7453 21
15 1 19.4951 -18.2519 -17.1384 13
16 1 6.31146 -5.0484 -14.7989 12
17 1 10.0116 -4.7187 -19.8977 14
18 1 8.4246 -16.428 -27.9936 17
19 1 9.10385 -11.4544 -11.9865 21
20 1 4.30745 -7.62022 -16.027 21
21 1 13.8202 -7.85133 -27.4555 10
22 1 5.68225 -6.59376 -25.4015 15
23 1 0.568547 -8.98723 -25.9656 12
24 1 4.92493 -6.28375 -22.0615 16
25 1 0.430683 -9.29799 -23.0863 15
26 1 10.3722 -8.43175 -12.2563 15
27 1 2.52416 -9.82439 -28.6736 13
28 1 8.0115 -20.4526 -9.40694 11
29 1 15.8465 -21.7796 -18.2188 15
30 1 0.751314 -14.7682 -23.4184 12
31 1 10.7269 -21.7883 -14.2142 21
32 1 15.1874 -9.6726 -25.1091 16
33 1 2.54331 -17.3982 -24.0165 16
34 1 11.2454 -7.80123 -26.384 16
35 1 9.97211 -4.70878 -23.0009 12
36 1 2.30403 -14.6665 -14.2329 19
37 1 12.4739 -5.78809 -12.434 12
38 1 9.24162 -15.1007 -7.62521 13
39 1 10.8833 -24.7882 -19.4363 10
40 1 17.3801 -15.3657 -26.1622 15
41 1 12.4084 -18.9928 -9.57632 10
42 1 13.0773 -16.9201 -12.065 17
43 1 14.8243 -6.15766 -19.7476 11
44 1 2.46914 -20.3462 -12.1661 9
45 1 8.59527 -23.5907 -16.969 12
46 1 5.01343 -15.2401 -9.96645 16
47 1 0.382725 -11.8489 -16.039 16
48 1 12.8611 -20.9049 -15.9568 21
49 1 6.09489 -18.6677 -16.7244 23
50 1 3.48801 -4.22591 -20.0601 8
51 1 5.75172 -5.47951 -18.2075 14
52 1 6.59318 -9.66602 -11.3107 12
53 1 5.97715 -17.8704 -23.4299 23
54 1 3.48642 -17.2715 -30.0724 9
55 1 15.075 -11.7871 -9.7393 10
56 1 7.27101 -17.5842 -8.06825 13
57 1 2.80718 -13.5986 -29.1708 11
58 1 0.940355 -15.9431 -20.3986 17
59 1 4.74594 -20.9634 -21.6204 16
60 1 4.06638 -8.82973 -13.1891 15
61 1 11.0905 -23.6625 -22.2421 11
62 1 7.04731 -7.85991 -14.206 19
63 1 2.25156 -16.0837 -27.0951 13
64 1 1.34864 -7.13108 -15.1893 12
65 1 7.38183 -19.0731 -26.2055 16
66 1 11.5557 -15.568 -9.93364 16
67 1 -0.135525 -12.0997 -24.5871 13
68 1 1.87674 -14.1339 -11.173 11
69 1 1.10391 -9.59281 -14.0984 13
70 1 8.9709 -5.86092 -25.4713 13
71 1 6.75341 -17.1104 -11.4851 23
72 1 13.9116 -24.2187 -19.8943 10
73 1 14.3061 -14.6424 -27.847 13
74 1 18.234 -19.1813 -13.6476 9
75 1 3.58359 -18.9888 -27.0459 14
76 1 3.48364 -17.2 -12.474 20
77 1 15.9849 -15.9365 -13.8071 18
78 1 21.0293 -10.3425 -19.2808 9
79 1 8.35364 -8.08633 -27.6829 14
80 1 5.04156 -7.39892 -28.3882 8
81 1 13.1612 -4.29794 -21.464 12
82 1 14.1694 -11.1434 -27.8155 13
83 1 9.38782 -20.9641 -17.2079 21
84 1 20.1859 -16.6399 -20.3843 14
85 1 12.9596 -23.2511 -13.2202 10
86 1 -0.522887 -10.8749 -28.008 8
87 1 19.1276 -12.6953 -24.9254 11
88 1 3.31941 -8.90323 -24.191 21
89 1 15.4203 -19.3069 -23.8768 15
90 1 4.90655 -19.0171 -10.1478 15
91 1 7.99915 -23.7591 -20.2893 11
92 1 11.6211 -16.455 -27.1181 18
93 1 11.6759 -19.0707 -13.4842 23
94 1 5.52918 -16.9093 -26.4187 22
95 1 9.04711 -11.5161 -8.74488 12
96 1 8.33401 -14.3014 -10.8872 25
97 1 15.5702 -17.92 -26.8066 12
98 1 15.1539 -9.16659 -21.7254 17
99 1 20.2128 -10.8326 -22.1774 11
100 1 5.37778 -15.316 -29.3903 13
101 1 -0.406733 -9.12573 -17.2893 14
102 1 9.52368 -17.4793 -10.0404 18
103 1 2.21214 -12.2793 -26.9699 18
104 1 16.9743 -19.7393 -16.3863 15
105 1 15.8231 -10.1291 -12.4403 16
106 1 10.83 -21.935 -10.9354 12
107 1 19.8983 -13.9256 -13.6904 12
108 1 18.3075 -8.26718 -14.4535 10
109 1 15.3712 -6.97866 -13.6041 12
110 1 2.83702 -6.60599 -25.4691 9
111 1 1.98197 -20.3451 -23.8099 9
112 1 0.945961 -10.2662 -19.3667 18
113 1 17.7046 -9.20247 -20.1237 14
114 1 12.0421 -12.69 -8.13037 10
115 1 4.72001 -11.4295 -28.2975 14
116 1 16.2579 -6.63458 -16.944 12
117 1 18.7996 -18.0728 -25.3624 9
118 1 13.7132 -20.912 -11.839 12
119 1 3.56325 -11.4028 -11.8763 17
120 1 17.0611 -13.6928 -15.7835 23
121 1 8.01038 -7.32466 -23.2033 18
122 1 19.5242 -12.3118 -17.2903 18
123 1 5.90784 -12.019 -10.1989 14
124 1 7.02324 -13.8891 -7.74008 12
125 1 1.69621 -7.13486 -18.1951 16
126 1 13.8403 -7.64966 -15.94 17
127 1 0.363216 -18.7128 -17.7715 9
128 1 17.1857 -16.671 -20.2773 22
129 1 7.15939 -20.7917 -19.7637 18
130 1 18.2764 -11.1913 -14.0781 14
131 1 16.9943 -19.3408 -19.4548 18
132 1 11.5371 -4.31415 -15.2524 13
133 1 4.80303 -20.7365 -24.7162 12
134 1 12.6688 -3.77903 -18.4547 12
135 1 3.65956 -14.543 -25.2343 19
136 1 11.5798 -13.0919 -27.9372 13
137 1 7.63666 -20.4101 -22.9595 16
138 1 18.5416 -19.3473 -22.0108 13
139 1 -0.597923 -12.8425 -18.4126 12
140 1 5.55525 -9.48689 -26.5357 18
141 1 5.93328 -22.4845 -17.3804 13
142 1 18.6357 -16.6131 -15.0515 19
143 1 6.34039 -18.3079 -28.8727 12
144 1 3.32801 -4.72811 -16.5533 11
145 1 0.26526 -12.3767 -12.6241 10
146 1 18.1728 -9.54491 -17.1708 17
147 1 20.6001 -15.6243 -23.8904 11
148 1 5.89961 -21.5438 -11.6003 11
149 1 16.002 -13.112 -25.8802 16
150 1 12.2379 -5.27786 -24.8429 12
151 1 14.0677 -4.55242 -15.254 10
152 1 14.5087 -7.00294 -23.4179 10
153 1 21.3123 -13.5672 -19.7384 13
154 1 15.5744 -21.3672 -21.1543 13
155 1 9.23999 -5.47149 -13.4184 12
156 1 9.26099 -4.74186 -16.831 16
157 1 6.92191 -21.4364 -14.5225 16
158 1 20.9175 -14.9117 -16.6876 12
159 1 1.34607 -18.0062 -14.3245 14
160 1 -0.616366 -8.34688 -20.6323 9
161 2 1.04516 -13.8912 -13.0978 13
162 2 18.611 -12.7511 -14.9533 18
163 2 0.361829 -11.6998 -26.622 12
164 2 6.05038 -20.4484 -10.1317 13
165 2 14.906 -10.0646 -10.5892 11
166 2 5.22873 -12.444 -12.2618 24
167 2 14.4753 -20.4255 -22.6682 17
168 2 6.38113 -11.7605 -27.0682 16
169 2 9.72152 -15.8082 -26.8942 17
170 2 7.59722 -5.98463 -14.0239 14
171 2 20.0071 -15.0782 -15.041 16
172 2 16.7814 -9.8275 -18.5809 19
173 2 10.5807 -6.48888 -12.3531 13
174 2 15.2664 -7.52595 -18.005 14
175 2 13.0457 -6.76709 -25.6641 13
176 2 15.2158 -15.8513 -26.533 14
177 2 2.64343 -11.7114 -28.7269 12
178 2 8.43978 -18.6376 -8.79675 14
179 2 -0.00755322 -11.0118 -17.8222 15
180 2 17.9004 -18.5612 -23.6432 14
181 2 7.44372 -20.9752 -12.4571 16
182 2 16.8598 -8.23476 -13.1709 12
183 2 12.5656 -14.6177 -11.3991 20
184 2 7.34932 -22.348 -16.066 13
185 2 10.0854 -22.5161 -16.2676 16
186 2 2.69636 -16.4792 -14.1821 19
187 2 9.19995 -24.5155 -18.7192 12
188 2 3.63768 -21.0848 -23.2452 12
189 2 4.89005 -5.59853 -15.8556 15
190 2 19.4046 -10.1061 -20.7074 11
191 2 12.1907 -11.2049 -27.7325 16
192 2 10.1273 -5.23657 -15.081 16
193 2 3.12457 -7.60549 -14.365 13
194 2 9.50707 -6.51634 -22.4905 18
195 2 10.3435 -4.87825 -24.7003 11
196 2 8.6296 -9.45188 -12.0254 15
197 2 7.5081 -15.8048 -7.367 12
198 2 12.3388 -14.9254 -28.0898 13
199 2 11.2173 -21.944 -23.0543 11
200 2 1.78078 -18.751 -22.603 12
201 2 19.3529 -18.6896 -15.2201 9
202 2 17.6038 -7.66061 -16.2285 11
203 2 6.54933 -15.6959 -27.8791 18
204 2 9.29786 -9.733 -28.0647 14
205 2 8.81976 -20.1343 -26.0069 12
206 2 14.6492 -19.2154 -25.783 13
207 2 18.752 -11.6173 -23.1524 11
208 2 5.33116 -17.1996 -29.6903 11
209 2 9.45872 -23.4984 -21.265 13
210 2 7.28325 -6.40581 -24.5217 16
211 2 8.9199 -20.8109 -19.1011 21
212 2 7.29836 -4.73782 -17.1408 13
213 2 3.50576 -19.0155 -11.4079 14
214 2 0.603537 -12.8079 -19.9305 14
215 2 12.5272 -20.9916 -10.4344 10
216 2 12.8042 -4.51293 -16.6792 12
217 2 8.90524 -13.0731 -7.46149 11
218 2 0.256437 -8.60127 -15.5896 13
219 2 3.84317 -16.4385 -25.7034 18
220 2 20.9431 -13.4645 -17.8621 12
221 2 1.99953 -19.7194 -17.3612 12
222 2 5.00691 -9.5407 -24.6961 20
223 2 14.8184 -12.7308 -27.4646 15
224 2 3.34843 -8.4524 -17.5649 23
225 2 11.5709 -19.2506 -24.4754 19
226 2 14.9052 -22.6364 -19.9205 13
227 2 3.8333 -7.77449 -21.1624 18
228 2 12.5541 -24.1915 -18.4983 10
229 2 15.128 -6.22368 -15.3649 14
230 2 0.753412 -7.62288 -22.0471 15
231 2 10.0832 -19.95 -13.9307 22
232 2 9.56981 -6.98228 -26.7772 14
233 2 11.364 -14.4246 -8.01424 10
234 2 15.338 -12.9596 -18.9392 21
235 2 11.9383 -9.49297 -11.8995 15
236 2 4.42368 -18.7989 -15.4322 18
237 2 13.9461 -7.13716 -12.3082 13
238 2 13.541 -12.2819 -8.93097 11
239 2 12.2166 -8.44416 -27.9074 12
240 2 11.2294 -11.9483 -12.1 20
241 2 17.7294 -17.1515 -13.2893 12
242 2 -0.143138 -15.2211 -21.8089 9
243 2 2.40892 -10.0427 -23.1166 22
244 2 1.89772 -7.97892 -25.18 13
245 2 11.1994 -22.6483 -12.5244 12
246 2 19.6874 -10.471 -17.8429 14
247 2 3.05968 -15.4826 -29.6168 10
248 2 21.3597 -11.7299 -20.6609 10
249 2 -0.257004 -10.2775 -24.7114 15
250 2 19.6388 -16.3348 -17.2478 16
251 2 4.28772 -20.9365 -12.7824 13
252 2 2.72364 -17.5074 -28.2035 12
253 2 6.75681 -7.40689 -21.7982 16
254 2 1.9408 -6.025 -16.829 11
255 2 9.34915 -15.5673 -9.73185 19
256 2 0.509429 -8.39302 -19.0411 14
257 2 10.9241 -11.1273 -9.17172 10
258 2 2.45258 -14.2697 -27.2047 16
259 2 11.0041 -4.15803 -21.5955 12
260 2 8.11809 -12.3243 -10.2313 19
261 2 4.92218 -13.2577 -28.9568 11
262 2 9.45974 -20.0572 -22.5726 20
263 2 17.0397 -11.484 -12.613 18
264 2 19.7323 -14.6333 -20.082 17
265 2 8.65698 -17.7789 -11.9098 20
266 2 6.26708 -9.23451 -13.0817 19
267 2 2.91306 -19.8839 -25.4432 11
268 2 0.0318203 -11.2228 -14.1046 12
269 2 0.404149 -13.8153 -16.775 15
270 2 6.62705 -21.1632 -21.5349 17
271 2 4.23889 -9.30206 -28.0995 13
272 2 13.0477 -5.49653 -22.8382 14
273 2 12.2865 -24.2149 -20.6693 12
274 2 15.6339 -14.1325 -13.0416 18
275 2 15.9849 -13.2629 -10.5497 12
276 2 4.00647 -6.62521 -26.9104 11
277 2 8.27314 -18.276 -28.1562 14
278 2 3.94086 -4.79115 -18.3889 12
279 2 3.86445 -6.60365 -23.7942 16
280 2 0.942574 -12.8137 -23.1015 17
281 2 2.76634 -10.3786 -13.4204 18
282 2 17.4764 -17.3095 -26.8074 10
283 2 -0.0547272 -10.1315 -21.3465 15
284 2 6.60357 -7.77216 -26.949 13
285 2 13.3009 -18.9887 -12.2982 13
286 2 1.85159 -12.0867 -11.1521 11
287 2 5.37078 -17.5219 -13.0217 21
288 2 16.7248 -19.899 -14.4114 10
289 2 0.460682 -17.0659 -18.8125 11
290 2 3.55409 -15.2772 -11.4298 16
291 2 9.28394 -20.9771 -10.5518 13
292 2 17.9063 -13.1055 -17.7297 21
293 2 15.3435 -20.2389 -19.1103 18
294 2 3.36974 -5.2705 -21.5416 8
295 2 0.68324 -9.5082 -27.9208 9
296 2 5.42923 -17.2513 -9.36092 13
297 2 11.4564 -17.4988 -10.0599 14
298 2 14.8152 -9.54105 -26.9751 11
299 2 18.574 -9.89862 -15.2758 12
300 2 16.7342 -15.628 -15.6698 19
301 2 17.1813 -20.3699 -21.2469 13
302 2 18.4609 -17.8601 -20.8708 16
303 2 15.5733 -11.5899 -24.761 18
304 2 0.392511 -17.5373 -15.8346 12
305 2 18.3498 -19.4217 -18.1103 16
306 2 13.8008 -4.66713 -19.6152 11
307 2 19.6183 -14.0343 -23.476 13
308 2 16.9272 -9.95249 -21.5818 16
309 2 20.9156 -16.1441 -22.1236 11
310 2 14.4757 -21.9569 -13.2548 12
311 2 5.57757 -18.9185 -27.254 17
312 2 10.7474 -4.22718 -18.1968 12
313 2 12.7305 -4.90454 -13.9209 13
314 2 1.80864 -19.7822 -13.9385 11
315 2 5.67666 -13.6715 -9.23438 13
316 2 18.8979 -14.3523 -12.0874 12
317 2 17.2459 -15.4083 -21.9617 21
318 2 3.27704 -12.0153 -25.4206 22
319 2 4.1946 -21.8301 -17.4417 10
320 2 16.1321 -21.6871 -16.341 12
321 1 3.83067 -15.3964 -22.4024 22
322 1 3.09564 -18.2073 -21.3085 17
323 1 12.5333 -20.6277 -22.8945 17
324 1 11.9299 -23.2972 -16.9451 14
325 1 9.71102 -14.2102 -25.9504 21
326 1 6.57609 -14.9114 -24.2302 23
327 1 10.0676 -20.7071 -24.4827 13
328 1 8.65921 -16.5611 -24.6806 22
329 1 9.27473 -14.5815 -22.7073 21
330 1 6.84712 -15.7552 -21.3572 23
331 1 9.11408 -17.8217 -21.6304 21
332 2 2.40588 -15.5241 -23.8804 18
333 2 4.20379 -17.4815 -23.0459 24
334 2 2.87742 -16.1038 -20.9306 19
335 2 6.3307 -19.7551 -24.2627 18
336 2 9.62854 -12.8416 -27.792 15
337 2 5.71868 -13.8357 -25.5901 18
338 2 11.4897 -18.4047 -27.5774 11
339 2 6.86387 -16.9249 -24.8341 21
340 2 8.4332 -14.4852 -24.4373 20
341 2 5.60582 -14.5711 -22.6032 23
342 2 9.83811 -16.4587 -23.0636 21
343 2 6.95321 -18.9409 -18.8827 19
344 2 8.45869 -14.9089 -20.962 23
345 1 3.8191 -15.8163 -19.1403 19
346 1 3.27394 -20.7441 -18.6241 11
347 1 3.68491 -16.7931 -16.0891 21
348 1 10.1507 -20.9503 -20.9199 20
349 1 8.847 -18.6278 -15.2886 22
350 1 5.83058 -18.1845 -20.1786 20
351 1 9.55567 -15.5145 -19.5378 21
352 1 6.68307 -15.7913 -18.0584 22
353 1 8.91086 -18.6494 -18.7341 22
354 1 8.96981 -19.793 -12.2353 20
355 1 9.42255 -15.7008 -16.1685 25
356 1 6.59595 -16.2875 -14.6859 26
357 1 5.19014 -19.4984 -13.8589 19
358 1 9.57731 -16.5759 -13.0958 24
359 2 4.18243 -19.6126 -20.2465 16
360 2 2.78972 -16.0407 -17.4934 20
361 2 7.04961 -17.7673 -21.8603 23
362 2 12.6046 -21.4949 -17.7258 21
363 2 5.8927 -16.3146 -19.7749 24
364 2 10.2005 -18.0849 -20.0516 21
365 2 7.28047 -19.6557 -15.3462 18
366 2 8.86057 -16.1985 -17.9322 22
367 2 6.3054 -16.6516 -16.599 21
368 2 9.773 -19.1989 -16.8206 21
369 2 6.57718 -15.2713 -11.2158 23
370 2 8.44448 -16.7133 -14.7122 23
371 2 4.83668 -10.3363 -10.8465 11
372 1 2.57284 -11.8677 -23.7163 22
373 1 3.43436 -9.73115 -21.3412 24
374 1 2.60808 -12.9676 -20.1309 21
375 1 8.48266 -11.3333 -27.3037 16
376 1 5.41616 -11.8168 -25.0443 22
377 1 9.12558 -9.51034 -24.8385 22
378 1 6.18128 -9.63013 -23.2067 25
379 1 8.21488 -12.3131 -23.8859 22
380 1 5.41237 -12.6377 -21.8783 21
381 1 9.1381 -9.82808 -21.6466 24
382 1 6.54449 -10.5747 -19.887 23
383 1 8.46488 -12.7043 -20.8256 22
384 1 2.47906 -6.8217 -22.2092 14
385 1 7.73028 -7.8634 -20.2471 21
386 2 3.5754 -12.5527 -22.0203 22
387 2 2.90653 -10.7355 -19.5438 22
388 2 8.84167 -11.2476 -25.3985 18
389 2 6.35305 -11.931 -23.4077 22
390 2 7.95374 -9.24041 -23.4032 19
391 2 5.59234 -9.6743 -21.2809 22
392 2 9.38726 -11.796 -22.2252 24
393 2 6.4801 -12.4935 -20.3377 22
394 2 8.31812 -9.65361 -19.9393 23
395 2 10.7965 -6.53944 -19.8516 18
396 2 6.50405 -7.14166 -18.9427 19
397 1 3.57678 -10.3604 -17.6981 21
398 1 2.95379 -13.7416 -16.9517 21
399 1 3.51047 -11.8208 -14.6712 20
400 1 5.23428 -13.1465 -18.9284 21
401 1 9.21729 -10.5339 -18.6422 23
402 1 6.59458 -10.2263 -16.7324 23
403 1 8.52754 -12.9793 -17.699 23
404 1 5.73654 -13.233 -15.8178 22
405 1 9.21598 -10.9397 -15.0786 22
406 1 6.43267 -11.2118 -13.4572 24
407 1 8.17428 -13.8664 -14.2865 22
408 1 5.3039 -14.3544 -12.5773 23
409 1 4.89871 -8.23484 -19.5452 22
410 1 7.70618 -7.56684 -17.4601 22
411 2 3.49776 -13.9568 -18.8364 23
412 2 2.31993 -11.5803 -16.3074 21
413 2 3.91326 -13.8725 -15.3522 19
414 2 5.26342 -10.3736 -18.3976 22
415 2 9.82832 -12.336 -19.1352 22
416 2 6.48545 -13.808 -17.5323 23
417 2 8.30025 -11.1231 -16.869 22
418 2 5.47098 -11.1463 -15.3241 23
419 2 9.20034 -13.7413 -16.0504 23
420 2 6.23416 -14.4234 -14.2892 22
421 2 8.18193 -11.9618 -13.7447 24
422 2 9.10161 -14.4911 -12.6507 24
423 2 9.50287 -6.79481 -17.3262 19
424 2 6.19032 -8.36442 -16.0071 22
425 2 8.82742 -8.73102 -14.7457 21
426 1 15.5783 -21.4565 -14.5889 13
427 1 12.7578 -19.191 -26.0144 13
428 1 12.0628 -14.4866 -24.1371 21
429 1 14.154 -16.2627 -24.6241 21
430 1 11.3718 -17.5092 -23.4134 21
431 1 15.4716 -14.2905 -22.2733 19
432 1 12.1943 -15.3395 -21.2474 22
433 1 14.3226 -17.4652 -21.5132 22
434 2 7.10485 -22.5324 -19.0491 14
435 2 11.6489 -13.3245 -25.7108 20
436 2 12.4383 -16.6743 -25.21 20
437 2 13.9903 -14.3646 -23.8868 20
438 2 11.1711 -14.0507 -22.3891 23
439 2 18.9064 -16.1508 -24.6489 13
440 2 12.371 -17.2229 -21.8499 22
441 2 15.3052 -17.3247 -23.5157 21
442 2 17.8304 -13.5563 -25.9759 11
443 1 11.9134 -18.6882 -20.1714 22
444 1 15.0217 -14.883 -19.54 22
445 1 12.5435 -15.9961 -18.166 22
446 1 14.6326 -18.4702 -18.4671 23
447 1 11.344 -18.0999 -16.601 22
448 1 15.9293 -16.4367 -17.2946 24
449 1 12.2936 -15.8753 -14.554 22
450 1 14.0684 -18.1911 -15.2625 21
451 2 12.1198 -20.2386 -20.9546 22
452 2 12.3549 -22.6412 -15.073 14
453 2 11.2909 -15.1347 -19.4641 23
454 2 15.5938 -17.7118 -20.1066 23
455 2 12.7832 -18.0912 -18.1661 22
456 2 14.2559 -15.2692 -17.7785 22
457 2 11.552 -16.0513 -16.4479 23
458 2 15.5536 -18.2303 -16.8399 23
459 2 12.4727 -19.1709 -15.1859 22
460 2 14.0419 -16.6213 -14.0917 20
461 2 11.3555 -16.9329 -13.339 23
462 2 16.8474 -15.5637 -18.6629 22
463 1 11.8325 -11.454 -25.6867 24
464 1 12.3892 -9.56298 -23.305 19
465 1 14.1012 -12.4224 -23.7254 20
466 1 11.3851 -12.1131 -21.9568 22
467 1 16.9115 -11.4286 -22.8319 19
468 1 12.0251 -9.91996 -20.0934 20
469 1 14.2179 -12.1637 -20.2767 22
470 1 10.9601 -7.28518 -21.5507 17
471 1 16.952 -12.2045 -19.0495 22
472 2 10.9733 -9.20039 -24.6948 21
473 2 12.4932 -11.5409 -23.7606 18
474 2 14.0483 -8.84242 -23.9248 18
475 2 11.1451 -9.215 -21.7002 20
476 2 15.4419 -12.3626 -22.019 19
477 2 12.4059 -11.8721 -20.1444 20
478 2 14.2329 -9.91232 -20.3436 21
479 2 15.247 -7.20934 -21.5504 12
480 1 11.4791 -13.1156 -19.016 22
481 1 14.784 -9.37446 -18.5494 20
482 1 11.9367 -9.77454 -16.679 19
483 1 14.193 -13.3784 -17.1919 22
484 1 11.1832 -12.9349 -15.6943 21
485 1 14.8569 -10.9162 -15.723 19
486 1 12.0068 -10.8929 -13.4757 18
487 1 14.0986 -13.209 -14.0464 23
488 1 11.0579 -13.8154 -12.5328 21
489 1 11.1464 -7.2462 -18.0254 18
490 1 10.0736 -7.32473 -15.456 19
491 1 18.6454 -14.9592 -18.3383 22
492 2 11.0247 -9.54433 -18.3473 22
493 2 14.1907 -15.3877 -21.339 21
494 2 12.4159 -13.4021 -17.3074 22
495 2 13.884 -9.48847 -16.6523 18
496 2 11.0148 -11.0733 -15.2432 23
497 2 15.2933 -12.8943 -15.7844 19
498 2 12.1927 -13.9078 -14.0208 22
499 2 14.1062 -11.003 -13.9794 20
500 2 11.8773 -7.88317 -16.1891 15
