ITEM: TIMESTEP
82000
ITEM: NUMBER OF ATOMS
2000
ITEM: BOX BOUNDS pp pp pp
-30.0 30.0
-30.0 30.0
-30.0 30.0
ITEM: ATOMS id type x y z Coordination
1 1 -19.0382 -0.248564 -24.4305 14
2 1 -6.98685 -10.9535 -22.6046 20
3 1 -6.49989 8.89163 2.28042 19
4 1 -2.79329 -11.4316 -1.11791 13
5 1 -18.2487 4.66658 -11.2808 19
6 1 1.06299 -16.8863 -18.0298 16
7 1 -23.6943 -0.682552 -14.6561 13
8 1 -14.9546 -14.978 -1.33185 21
9 1 -19.8992 -8.45988 -19.6789 16
10 1 -21.6606 -8.69218 -7.69641 21
11 1 3.35272 -9.36712 -20.6056 23
12 1 -15.8092 -19.3847 -11.6359 21
13 1 -21.3064 -8.97293 -1.23453 22
14 1 -6.51037 1.29466 2.98968 21
15 1 -2.85147 -5.95384 -4.04136 21
16 1 -6.47867 1.0873 -3.66348 24
17 1 -0.576041 -5.73398 -12.8823 21
18 1 -12.2264 5.85206 -23.6764 19
19 1 -8.27089 -6.95686 3.18895 16
20 1 -13.8027 -2.74923 -20.1191 21
21 1 -23.8972 -9.17239 0.749811 12
22 1 4.81019 -3.82371 -4.39074 13
23 1 -5.44984 -3.32102 -25.7687 20
24 1 -2.35721 -3.32967 -24.1485 16
25 1 5.1995 0.525329 -0.744181 10
26 1 -17.8786 -0.982172 -11.1623 23
27 1 -21.8874 1.49421 -14.3536 15
28 1 -15.6193 -5.50511 -19.8786 21
29 1 -21.0483 6.80007 0.0242524 11
30 1 -3.30598 -18.8869 -5.99538 12
31 1 -6.67075 -4.19674 -3.60015 24
32 1 -5.15802 -13.7322 -19.2446 24
33 1 0.725483 -17.5732 -13.2777 13
34 1 -12.609 -18.9972 -20.8034 11
35 1 -21.1717 -9.20949 1.81836 15
36 1 -2.45375 -14.8449 -26.6161 10
37 1 2.6722 -15.0929 -24.2787 12
38 1 -10.7403 4.30452 -27.0444 14
39 1 -6.81428 -4.09547 2.90084 24
40 1 -9.76637 -14.4602 -2.10355 20
41 1 -3.58081 -9.15645 0.605815 19
42 1 -24.1871 -3.53174 -2.627 14
43 1 -20.3394 -11.1076 -3.02308 19
44 1 -16.0201 -2.77392 -14.7052 24
45 1 -15.254 10.3703 -13.0457 11
46 1 -4.80805 -14.2164 -16.2068 22
47 1 -7.06828 -0.48619 -22.3909 23
48 1 -4.38909 -12.0364 -24.3409 20
49 1 -9.50935 -9.64282 -1.91389 24
50 1 -21.2355 2.427 -7.26333 20
51 1 -4.72263 7.69397 -22.0625 15
52 1 -11.3983 4.21713 -1.38878 23
53 1 -16.183 2.31449 -14.8448 22
54 1 -7.34886 6.9251 -10.3653 21
55 1 -9.86225 -19.8068 -5.09192 15
56 1 -3.89467 -11.2209 -17.6206 21
57 1 -1.34758 -11.6193 -26.325 16
58 1 -18.2561 6.74395 2.86377 14
59 1 -12.9809 -6.02847 -25.4863 19
60 1 -0.480445 -1.29179 -9.06752 20
61 1 -13.2835 1.79539 -16.4192 23
62 1 -17.8645 -11.6262 -4.99579 22
63 1 -11.8554 6.95814 -3.20242 22
64 1 -23.8947 2.89943 -8.80986 13
65 1 -14.8719 7.05256 2.02986 23
66 1 -9.40001 -0.20488 -16.9576 22
67 1 -14.7682 -17.0607 -3.55536 20
68 1 -3.023 -0.739328 -3.92324 20
69 1 -1.95042 -19.3039 -13.8043 12
70 1 -6.87453 11.6139 -0.178823 16
71 1 -18.3621 -0.112866 -17.75 19
72 1 -15.7334 7.24055 -19.896 18
73 1 -3.01055 4.98127 -3.7711 20
74 1 7.92589 -5.54265 -21.7105 11
75 1 -0.592356 -17.8717 -7.40387 10
76 1 -22.9332 -12.0955 -0.722487 10
77 1 -19.2402 -3.73701 -9.86352 21
78 1 -9.39929 6.80556 -1.60662 23
79 1 -6.10481 -8.72733 2.76108 19
80 1 -16.0443 -19.2802 -8.72811 22
81 1 -18.1173 -6.48728 -11.4468 21
82 1 5.81868 -5.47632 -6.54171 12
83 1 -1.11146 -5.95373 -19.3738 23
84 1 -14.03 4.24292 0.56845 20
85 1 -4.13421 -3.58416 -5.56969 19
86 1 -15.9071 -8.65212 -8.37032 23
87 1 -11.1187 -13.5583 -22.399 22
88 1 -17.5611 1.73502 0.435754 22
89 1 -15.2125 8.53191 -7.53697 19
90 1 -10.4356 2.31858 -18.4886 23
91 1 -1.90099 -8.32729 -17.6626 22
92 1 -0.990566 4.70136 -18.8143 19
93 1 -1.91693 -14.6469 -11.2345 21
94 1 -2.96126 -11.5497 -4.50628 16
95 1 -9.20687 13.948 -8.82633 14
96 1 -18.192 6.69491 -5.97687 17
97 1 -15.0741 -9.44825 1.91077 16
98 1 -13.9442 4.68945 -2.90692 21
99 1 -14.7092 -11.544 -0.0903888 19
100 1 3.37288 -15.1661 -18.1472 14
101 1 -18.2019 1.87461 -2.81819 20
102 1 -18.702 -20.7821 -10.2525 11
103 1 -1.98262 -14.007 -14.3804 20
104 1 -6.84046 -5.86766 -28.4983 19
105 1 -17.0052 -3.06863 -25.054 17
106 1 -11.2026 6.81381 -12.4711 22
107 1 -18.8036 2.81344 -19.4735 14
108 1 -8.03743 5.72275 2.04825 19
109 1 -8.14942 10.3702 -19.3387 18
110 1 -20.8351 8.40977 -5.97821 12
111 1 -9.92836 1.34642 -8.37207 25
112 1 -12.4741 -14.96 -3.69234 23
113 1 4.83434 -3.01476 -0.92659 13
114 1 -5.33914 -8.1986 -22.6798 21
115 1 -8.40732 -8.83596 -24.041 19
116 1 -11.5627 -1.28744 -1.96236 21
117 1 -5.53719 -6.70773 1.0794 23
118 1 -19.1776 -9.04503 -13.0455 20
119 1 1.96656 -12.1359 -11.2405 16
120 1 -19.2995 -14.2825 -13.2412 14
121 1 0.744905 -15.318 -10.007 14
122 1 -15.7544 2.21472 -7.88662 21
123 1 4.72607 -6.43217 -22.907 19
124 1 0.056651 9.97169 -12.8861 9
125 1 -14.7593 -16.9211 -6.94463 19
126 1 -17.7244 -16.6039 -5.35057 16
127 1 0.756964 -14.1168 -26.0216 12
128 1 -5.22463 -2.74256 -22.3237 20
129 1 1.69277 -12.1036 -14.4769 19
130 1 -12.9293 -19.5043 -6.9446 20
131 1 -18.6553 -16.2139 -15.0858 13
132 1 1.94055 2.02412 -2.29321 22
133 1 6.31125 -8.53999 -21.1588 11
134 1 -24.1103 -6.7484 -7.77756 18
135 1 -0.0364766 4.34829 -5.59475 22
136 1 2.88759 -0.79535 -4.17115 20
137 1 -9.70274 -4.44 4.50092 16
138 1 -4.52176 1.83648 -12.0963 22
139 1 -12.5589 1.43434 -3.41923 23
140 1 -14.2549 7.48878 -14.4683 23
141 1 -5.54064 -14.4411 -25.5036 19
142 1 0.285511 -16.9122 -24.3763 15
143 1 -5.76099 4.18534 -24.2707 21
144 1 -0.856101 -4.30833 2.99816 11
145 1 -5.48903 -9.1995 -28.6615 15
146 1 -13.2724 2.15831 -13.106 21
147 1 3.6626 -3.89935 -21.4343 18
148 1 -18.9304 2.95808 -16.1486 15
149 1 -15.6272 10.3794 -10.052 14
150 1 -2.17568 2.31775 -20.313 21
151 1 -1.64273 -14.8431 -7.7303 19
152 1 -14.1426 2.44481 -22.3425 21
153 1 -15.9036 11.1366 -3.19669 15
154 1 6.89019 1.7591 -16.4724 12
155 1 0.7655 7.91794 -16.0169 12
156 1 -12.6263 7.28126 -9.57477 21
157 1 5.29781 -1.16268 -13.07 19
158 1 -12.4016 4.84516 -14.8477 21
159 1 -6.30122 7.02369 -24.4868 17
160 1 -3.08315 6.28438 -24.0646 15
161 1 -20.8135 -11.4267 -9.80243 17
162 1 -23.927 1.5562 -5.65334 11
163 1 -13.4919 -1.80293 -27.1025 15
164 1 -10.2939 -13.4965 -29.14 11
165 1 -4.41369 11.4803 1.07964 13
166 1 -12.4298 6.96325 -6.33974 21
167 1 -23.596 -6.52532 -15.6355 15
168 1 -17.2772 4.68628 -4.1628 21
169 1 4.33814 -4.30862 -11.3919 22
170 1 -19.4596 -2.90969 -22.7514 12
171 1 -5.28429 2.01843 8.65413 8
172 1 -3.09221 12.8399 -7.61814 12
173 1 -9.75738 1.25006 -5.04906 24
174 1 -2.25464 -18.1178 -25.3647 9
175 1 -14.9625 6.93383 -1.20259 21
176 1 -8.48916 12.4495 -15.3506 14
177 1 -9.13739 -9.37021 1.20954 22
178 1 -21.7444 -8.60655 -4.72661 22
179 1 -10.2059 -15.65 -24.0146 14
180 1 -13.3298 8.4332 -17.9361 16
181 1 -10.0093 -14.553 -5.6124 19
182 1 -7.97155 -18.9675 -18.2804 19
183 1 -16.2 7.9228 -16.5354 15
184 1 -22.206 3.39003 1.02122 12
185 1 -9.4089 4.8759 -13.4777 22
186 1 -0.779877 4.84606 -15.7497 23
187 1 -15.1905 2.74977 5.27921 13
188 1 -6.4381 -14.1887 -0.40072 14
189 1 -20.4182 -0.375862 -9.4596 22
190 1 -8.65436 13.8322 -5.53106 15
191 1 -8.57683 -1.35113 -0.217815 22
192 1 -2.75935 4.53167 -0.277409 21
193 1 -15.1334 7.52591 -4.3898 18
194 1 3.22163 -14.841 -20.9972 15
195 1 -16.2615 9.88234 2.36741 12
196 1 -12.7502 -0.449283 -18.0665 22
197 1 1.45245 -9.33538 -9.89188 20
198 1 -15.2462 -11.493 -6.93108 23
199 1 -23.6784 -6.56582 -4.23407 18
200 1 -18.1743 -17.6571 -8.3911 16
201 1 -6.51804 1.23148 -0.388522 23
202 1 -25.693 -5.49502 -13.1054 13
203 1 -10.3699 -14.6737 -12.2126 23
204 1 -6.5982 -11.6412 -12.4367 20
205 1 -10.1187 9.05448 -10.5205 18
206 1 -17.5803 -6.21084 -4.7175 20
207 1 -10.2004 12.0662 0.734866 16
208 1 -15.4999 -5.62651 -16.5154 24
209 1 -10.5984 7.66098 -15.016 22
210 1 -22.4555 -8.43772 -17.5294 16
211 1 -16.851 -1.72656 1.95081 19
212 1 -8.73304 -17.3333 -3.84934 15
213 1 -6.51948 -17.01 -5.68423 18
214 1 -20.3305 4.57928 -5.60672 16
215 1 5.90716 -1.33282 -3.37342 12
216 1 -3.92321 -0.27159 -17.3285 23
217 1 -10.2978 -10.1163 29.6163 12
218 1 -3.82266 -4.11903 -2.02012 22
219 1 -4.25618 -20.6272 -9.02261 13
220 1 -12.8452 5.4859 -20.9665 25
221 1 0.508386 -14.2267 -22.8511 20
222 1 1.05872 -1.27885 -26.2149 14
223 1 -4.64871 -0.489082 -27.6701 13
224 1 -16.7941 -8.61053 -17.9841 22
225 1 -7.38197 6.91673 -13.6294 19
226 1 -17.9996 -15.7466 -1.94247 15
227 1 -1.60875 7.69385 -13.9718 20
228 1 -13.4142 -0.212773 4.79388 12
229 1 -16.9724 7.84962 -13.1654 16
230 1 0.350437 -1.49368 -6.02832 21
231 1 -14.1975 -8.59413 -23.5975 20
232 1 -13.1049 8.5049 -21.2237 15
233 1 -5.30268 1.84424 -22.1915 22
234 1 -17.8925 -11.9544 -8.62876 19
235 1 -14.4836 -1.22829 -3.20525 22
236 1 -16.3152 4.15449 2.52132 22
237 1 -8.09178 -13.4026 -20.8476 25
238 1 -12.3587 -17.1411 -12.2692 22
239 1 0.788531 -14.5594 -12.6375 18
240 1 -6.32472 -11.7289 -9.03909 21
241 1 -1.81147 8.46127 3.79017 10
242 1 -4.86216 2.39187 -15.6197 24
243 1 -9.69381 6.59258 -8.41765 23
244 1 -21.9419 -2.86324 -10.9308 23
245 1 -22.7086 5.5135 -11.156 10
246 1 -9.35374 1.33259 -1.87045 22
247 1 -8.77756 -21.6972 -17.0367 15
248 1 -0.882147 -0.646018 -15.8642 21
249 1 -3.77393 1.54614 -1.99311 21
250 1 -21.4716 1.31523 -0.626002 20
251 1 -25.289 -8.39605 -12.807 13
252 1 3.13526 -3.74207 -25.2417 13
253 1 -5.86286 -6.6587 -2.29866 22
254 1 0.620479 1.74398 -22.5686 20
255 1 -6.72035 -11.4227 -15.7157 21
256 1 -15.5908 -5.7536 -23.573 19
257 1 -12.0681 -22.7454 -8.81379 16
258 1 -2.36511 -8.45885 -21.0245 21
259 1 -18.4651 -8.86153 -3.11557 23
260 1 -3.95391 -19.261 -19.1901 14
261 1 -16.6127 -7.97208 -21.4066 21
262 1 -6.15237 9.39505 -11.9908 20
263 1 -2.19535 -9.00453 -27.4668 15
264 1 -5.47357 -1.56501 0.965449 21
265 1 4.92205 0.896981 -7.6828 18
266 1 -12.1167 -11.9827 -8.69287 23
267 1 3.69738 -9.13917 -23.9333 15
268 1 -13.142 -14.4386 -7.00753 19
269 1 -13.857 -8.1436 -19.9261 23
270 1 -21.8285 -4.02183 -13.9508 22
271 1 -17.0298 -18.8655 -2.9435 11
272 1 -0.0453964 -5.95684 -2.65827 22
273 1 -6.56637 -9.33564 -0.756122 22
274 1 -10.6344 -10.8986 -23.8521 20
275 1 -6.2268 -11.9218 -5.71621 22
276 1 -2.40691 3.39038 -26.1404 14
277 1 -6.37226 3.9814 -8.9846 21
278 1 -13.2678 -13.9009 -13.8655 22
279 1 -6.3216 4.07335 -11.8958 21
280 1 -16.8358 -6.40067 -1.44074 22
281 1 -21.4036 -11.4665 -19.7513 14
282 1 -17.36 -6.56275 -25.8621 11
283 1 -4.34284 -0.521616 -24.026 20
284 1 -17.2228 -13.6632 -21.5979 15
285 1 -15.9088 -14.2663 -8.57586 20
286 1 -1.46118 -11.8752 -23.0324 21
287 1 7.11258 -3.85472 -16.6515 14
288 1 4.16042 -3.27928 -8.46804 18
289 1 -11.0805 -13.7019 -19.0769 24
290 1 -18.1636 -9.25022 0.0637251 18
291 1 -13.7049 -13.8593 -16.9904 23
292 1 -6.64505 0.494315 6.16988 17
293 1 -12.8208 -20.0609 -10.4313 19
294 1 -15.2344 -16.6838 -10.3924 21
295 1 -5.73306 13.7009 -10.4877 12
296 1 -1.61669 -5.03082 -29.1835 10
297 1 -17.1362 -13.4551 -24.9744 11
298 1 -16.7179 -14.0184 0.472271 11
299 1 -2.63353 3.92469 5.98936 13
300 1 -7.48503 -14.3222 -10.5579 23
301 1 -20.0495 -14.3887 -19.745 10
302 1 -18.9155 -0.320628 -20.8942 17
303 1 -1.08982 1.371 -7.07575 21
304 1 -15.6587 1.58905 -25.0808 16
305 1 -11.2105 2.64276 -24.7517 21
306 1 -12.4077 -9.41573 -3.34453 22
307 1 -3.90371 -16.3273 -21.1066 22
308 1 -7.86937 11.3119 -9.66523 22
309 1 -6.9864 7.02869 -7.09886 20
310 1 2.94726 -6.30853 -4.19865 15
311 1 -19.9651 -7.00814 3.86309 12
312 1 -10.6999 -11.5339 2.056 20
313 1 -14.973 5.15551 -9.6456 19
314 1 -4.40457 -11.7294 -27.541 17
315 1 3.93742 2.23086 -17.6618 19
316 1 -7.181 -14.8871 -7.39929 25
317 1 -12.5039 -4.25363 -0.314762 22
318 1 -23.615 -6.71433 -1.44659 15
319 1 -9.47341 -17.1986 -10.99 23
320 1 -15.8232 6.19333 4.8789 14
321 1 -18.2813 4.04302 4.59476 13
322 1 -19.5698 -13.0973 -0.526727 11
323 1 -23.4114 -12.1685 -4.29824 12
324 1 4.19334 -4.0798 -14.8486 23
325 1 -19.4029 -13.8731 -3.81406 16
326 1 0.577022 -9.09862 -22.6976 22
327 1 -0.664469 -16.7967 -15.654 18
328 1 -6.27061 9.84622 -15.3075 16
329 1 -18.3829 9.98888 -11.3617 10
330 1 -1.02181 6.62816 1.59148 18
331 1 -21.289 -5.75419 -6.53195 20
332 1 -0.615392 -11.7098 -12.7697 21
333 1 -11.861 4.18747 -8.06584 22
334 1 -17.5903 -0.810344 -4.37488 20
335 1 -5.32041 -12.3644 -2.48289 21
336 1 -0.579427 -12.3671 -9.48537 20
337 1 -11.289 3.95631 -4.96301 23
338 1 -13.4657 -8.16784 -16.8473 24
339 1 -7.86215 3.50087 7.51077 12
340 1 -14.6281 7.58474 -11.0386 21
341 1 -2.45911 7.33513 6.801 9
342 1 -12.8664 9.64358 -15.7982 14
343 1 -7.52025 -11.9548 -28.9845 13
344 1 -16.5586 -2.74584 -18.1197 20
345 1 1.60326 -17.0207 -21.0897 15
346 1 -19.2505 4.42225 1.54941 19
347 1 -23.9793 -3.72756 -6.27108 16
348 1 -9.95943 -6.11372 -23.9999 21
349 1 -12.4092 4.21094 -11.4274 20
350 1 -0.0759352 -6.70083 -6.11103 20
351 1 -15.4596 -16.4936 -13.5563 24
352 1 -1.29607 -8.80476 -4.27835 20
353 1 -13.3565 -13.2159 1.45471 14
354 1 -22.2372 5.58122 -8.36445 11
355 1 -6.85349 -9.63037 -3.66355 23
356 1 -1.00704 -11.0296 -19.4878 22
357 1 -16.5038 -10.6388 -23.1112 22
358 1 -4.9963 -9.11146 -25.9313 23
359 1 -2.43848 9.65865 -7.56023 18
360 1 -24.9189 -3.41518 -15.0526 10
361 1 -2.41116 -9.14955 -24.3709 22
362 1 -1.14315 -6.3154 -22.8285 21
363 1 -15.6378 -16.5112 -16.6545 17
364 1 -22.3949 -9.07626 -14.3488 18
365 1 -12.0541 -11.9251 -11.9839 22
366 1 -2.30756 3.91746 2.93019 21
367 1 7.37865 1.58048 -10.4073 15
368 1 -15.9522 -0.373911 -23.3387 22
369 1 -6.12305 12.7749 -7.50815 17
370 1 -25.107 -2.19995 -11.8033 14
371 1 -20.2701 8.82728 -2.45902 12
372 1 -9.98704 9.14823 -7.45544 19
373 1 -15.3671 2.08835 -4.61176 21
374 1 2.39383 -0.942957 -0.719057 19
375 1 1.76724 -11.2049 -18.0008 22
376 1 -2.83167 -6.61418 2.84143 17
377 1 2.04864 -1.07518 -20.9897 19
378 1 -16.1235 -13.5091 -14.8561 23
379 1 -14.9383 -0.594158 -9.87949 21
380 1 -9.69476 -11.1039 -17.4158 23
381 1 -8.93664 4.04611 -6.83634 26
382 1 -19.1196 -3.69815 -12.6851 20
383 1 -6.9197 -16.3463 -16.0927 21
384 1 2.48082 -5.41822 -1.13302 15
385 1 -16.0525 -8.18553 -14.9071 22
386 1 -17.9427 -11.8368 -11.6735 22
387 1 -18.0472 -9.60078 3.63852 8
388 1 -12.533 9.70526 -12.1406 18
389 1 -19.7453 -13.5842 -16.24 18
390 1 -5.1858 7.79448 5.21333 14
391 1 -15.2636 -0.306268 -13.1458 22
392 1 -6.97856 5.04197 -21.8085 20
393 1 -2.96389 9.36575 -3.97515 20
394 1 -20.9782 -11.9793 -12.9863 20
395 1 -10.4933 -16.1244 -20.641 21
396 1 -21.284 -4.39536 -1.07306 19
397 1 -18.8681 1.79958 -12.9358 19
398 1 -4.39062 -14.0168 -5.76261 20
399 1 -16.2279 -19.2053 -14.7831 15
400 1 1.75896 7.37317 -3.70949 19
401 1 0.60244 2.38606 -25.9515 11
402 1 -19.7523 -3.06703 -19.3186 16
403 1 -10.496 7.49972 -18.5819 23
404 1 -15.3821 -0.450326 -16.2216 21
405 1 -10.1484 -14.7885 -9.02318 22
406 1 1.81196 1.34981 -5.75448 20
407 1 -5.38183 1.68332 -25.4059 18
408 1 -12.2297 -4.47856 -3.49837 23
409 1 -23.5838 -0.985951 -3.73158 16
410 1 -18.6162 -3.98012 -6.3322 21
411 1 -12.0629 -17.6818 -9.23683 21
412 1 -8.08169 -8.50771 -17.1428 20
413 1 -4.65247 -17.2391 -24.2144 16
414 1 -9.49498 -3.84484 -2.14382 23
415 1 -23.0262 -1.16105 -0.905678 16
416 1 -22.508 -0.117701 2.21463 13
417 1 -21.3501 2.30875 -4.19844 21
418 1 -9.10071 -12.0688 -3.62301 23
419 1 -18.3115 -5.29796 -22.2004 15
420 1 4.59657 -12.372 -19.7674 15
421 1 -8.3734 -13.4021 -24.1631 20
422 1 -9.12922 -10.2173 4.12949 14
423 1 -4.65567 -8.52246 -15.8148 23
424 1 -13.6204 1.70642 -27.2921 13
425 1 -3.83352 -16.7515 -11.2651 16
426 1 -10.3117 10.5035 -22.0515 11
427 1 -21.3496 6.04413 -3.57953 12
428 1 -12.2814 -9.1595 2.93119 15
429 1 -19.0331 -8.06714 -23.3556 14
430 1 -17.3101 -11.8828 -1.82245 23
431 1 0.0794856 -5.99999 0.721117 20
432 1 -1.72726 -3.52415 -10.9979 20
433 1 -6.98599 -5.6094 -18.8338 25
434 1 -0.424335 -12.384 -6.14248 12
435 1 1.4031 1.46442 -12.6109 22
436 1 -11.2695 -2.35186 5.63991 11
437 1 -9.20879 4.10656 -10.3454 23
438 1 -1.19894 -9.29182 -7.95147 22
439 1 -12.489 -16.6362 -15.4933 20
440 1 -13.6104 9.19247 3.85732 13
441 1 -12.8606 12.5994 -1.33372 13
442 1 -12.6815 -11.001 -18.5137 24
443 1 0.886267 8.61995 -6.3696 16
444 1 -2.86179 -1.1104 -0.144825 19
445 1 -14.3693 -1.55897 -0.10653 24
446 1 -12.4291 -10.8616 -15.2084 22
447 1 -17.2221 -0.760926 -1.50075 21
448 1 -15.1755 -10.9717 -16.5541 23
449 1 -14.5745 4.81176 -6.25481 21
450 1 -10.9435 -20.0764 -19.2788 11
451 1 -11.703 -13.0595 -25.7338 17
452 1 -15.9188 -13.511 -11.8954 23
453 1 -15.7564 -9.05367 -5.01535 24
454 1 1.58237 -4.37173 -6.16562 21
455 1 -12.8299 -11.5279 4.01826 11
456 1 -13.657 4.29692 -25.5835 14
457 1 1.704 1.18188 -9.15597 22
458 1 -16.8371 -13.5719 -18.1562 17
459 1 -10.5444 -2.71218 -18.7465 24
460 1 -11.0984 11.8376 -10.6574 14
461 1 -6.92981 -0.47836 -18.8195 25
462 1 -3.92607 7.29601 -5.80567 21
463 1 -20.9584 -6.05353 -9.64329 19
464 1 -8.79189 13.5404 -12.1753 12
465 1 -3.65709 4.88693 -17.1632 23
466 1 -15.7869 -11.0016 -19.8427 22
467 1 -3.68057 -3.77485 1.27549 21
468 1 -4.47086 -16.3512 -18.1334 21
469 1 -11.3793 -8.97474 -25.5908 20
470 1 -1.04656 -18.0792 -10.7295 14
471 1 -17.3974 7.55927 -9.10197 18
472 1 -8.43334 3.08838 4.6424 18
473 1 1.97885 4.27331 -14.0236 22
474 1 -10.3087 1.66168 -11.7404 22
475 1 -16.2935 2.14435 -17.8088 21
476 1 -5.07634 -2.87635 -19.1146 24
477 1 -3.21662 -11.4238 -7.57276 21
478 1 -24.9036 -9.51644 -9.30072 15
479 1 -10.8227 9.62385 -4.7022 19
480 1 -9.98076 -0.816374 -23.5843 21
481 1 2.74069 3.73823 -7.40195 22
482 1 -7.83481 7.61063 -19.9331 19
483 1 -1.68444 -9.26958 -10.9886 18
484 1 5.41805 -1.16343 -9.98941 21
485 1 -12.9327 -5.48555 -21.8816 21
486 1 -6.90282 -17.0035 -12.612 22
487 1 -11.0845 -18.0058 -2.01295 17
488 1 -5.73944 -11.4136 1.31884 18
489 1 -15.3331 4.21332 -20.1996 20
490 1 -18.826 -19.682 -5.98511 12
491 1 -6.1896 -18.3731 -21.2126 15
492 1 2.24259 4.01094 -10.7949 20
493 1 -11.2914 -3.06088 -22.1543 22
494 1 -5.84336 -5.9073 4.58566 10
495 1 -19.1953 -1.56014 3.37975 13
496 1 -9.38905 -23.0354 -13.8346 14
497 1 -17.7265 -6.27253 -8.26958 20
498 1 4.05057 -9.40909 -17.8296 16
499 1 2.37653 -6.34906 -11.2462 20
500 1 -15.2528 5.04995 -12.864 20
501 1 -7.08138 -10.8122 -18.9844 23
502 1 2.36997 -0.425266 -23.8634 14
503 1 1.02115 -8.63808 -16.069 23
504 1 -12.3146 -3.15939 2.85626 19
505 1 -4.36701 10.7848 -10.2821 18
506 1 -12.4338 -4.75929 -28.3997 13
507 1 -4.58138 -3.57881 -29.1784 12
508 1 -12.4868 -9.34419 -0.224861 23
509 1 -6.3798 12.0763 -13.2675 16
510 1 -16.3773 -2.91788 -21.7329 21
511 1 -23.7701 -3.02932 1.11102 10
512 1 -14.4064 -13.3161 -23.5632 15
513 1 -9.39063 -15.4673 0.563265 14
514 1 -9.5479 4.82642 -16.6715 23
515 1 -0.0661403 4.79105 -2.25657 22
516 1 4.27889 1.40907 -14.3808 21
517 1 -13.794 -19.1507 -17.207 15
518 1 -7.5934 -14.5704 -14.3362 22
519 1 -11.1192 -7.76746 -28.8429 13
520 1 -17.8292 7.89386 0.299424 19
521 1 -10.3258 -11.0361 -27.5483 19
522 1 5.02464 -6.47702 -16.7403 20
523 1 -5.22411 8.15648 -18.274 18
524 1 -4.62763 -14.3866 -9.32965 20
525 1 7.78785 -5.91708 -18.5294 12
526 1 -8.6233 9.6289 -2.67673 25
527 1 -15.2022 -3.78901 -1.63597 22
528 1 -5.60761 9.19944 -1.7897 22
529 1 -5.67498 -1.06821 4.08643 22
530 1 -11.2819 -3.32206 -25.704 23
531 1 -11.0658 -8.21199 -22.0344 23
532 1 -6.64121 -4.00441 -0.492629 23
533 1 -2.04193 10.8981 -1.49588 15
534 1 -4.01053 -0.34856 -20.758 23
535 1 -14.9798 4.32758 -16.6351 22
536 1 -10.3257 7.44357 -21.8238 20
537 1 2.12328 -3.52056 1.09248 13
538 1 1.55219 -6.34907 -21.0955 22
539 1 2.64546 -15.262 -15.2111 15
540 1 2.04667 7.06265 0.25991 12
541 1 -18.0237 -17.7919 -11.9295 16
542 1 -14.881 6.77114 -22.8993 15
543 1 -9.47248 -4.11486 1.29466 21
544 1 -22.6434 -6.25476 2.6014 10
545 1 -11.4892 10.3303 -19.2442 15
546 1 -2.30933 -18.3847 -17.1284 14
547 1 -5.1774 -8.33436 -19.3445 22
548 1 -9.55383 10.4017 -13.486 17
549 1 -16.1363 -10.0358 -26.4191 12
550 1 -9.25497 -17.6119 -7.48067 22
551 1 -23.463 -11.5067 -7.86204 14
552 1 -4.68372 5.1136 -26.9589 12
553 1 -18.32 -0.850697 -14.7153 21
554 1 -10.8888 11.2427 3.9651 13
555 1 -19.9389 -6.64547 0.0569031 22
556 1 -4.31657 7.63397 -15.3499 20
557 1 -7.68988 -17.3529 -25.5395 8
558 1 -0.826536 -8.38445 -0.890333 22
559 1 6.55348 -3.57086 -22.783 11
560 1 -18.4603 2.27223 -5.97388 21
561 1 -5.14415 5.05877 7.14453 12
562 1 -7.61954 6.88709 -16.8768 20
563 1 2.1457 -6.50086 -14.5783 22
564 1 -8.28507 3.84448 -0.0290198 23
565 1 -10.5211 -1.90207 -28.0475 13
566 1 -13.2311 -20.0319 -3.15975 15
567 1 -7.90645 -2.85424 -20.4709 24
568 1 1.52254 -3.47501 -28.5443 8
569 1 -5.88945 9.72939 -8.37054 19
570 1 5.67153 -1.10562 -21.8403 12
571 1 -13.8988 -3.00593 -23.7098 21
572 1 -10.1044 -16.1588 -17.3274 20
573 1 -19.9529 -14.18 -23.2594 7
574 1 -0.658026 -0.769152 -12.492 22
575 1 2.28241 -1.18172 -14.4363 21
576 1 0.474569 -13.6802 -16.219 22
577 1 -5.5276 3.92083 1.24342 22
578 1 -4.70124 -13.9517 -12.8197 21
579 1 -1.5857 -0.0117684 -25.9382 16
580 1 -3.41348 10.5926 -13.6674 12
581 1 -20.504 -0.599475 -5.80387 22
582 1 -5.67136 4.84506 4.41579 21
583 1 1.25917 1.99391 -15.7887 25
584 1 5.28433 -7.07678 -9.97643 14
585 1 0.962771 2.10685 -19.2637 21
586 1 0.616217 4.03465 0.905557 20
587 1 3.12794 4.71101 2.35767 10
588 1 -8.49796 -12.1474 -0.453176 22
589 1 7.15623 5.71537 -11.3102 7
590 1 -7.63103 -2.8067 6.54273 10
591 1 3.74367 -3.32588 -17.5582 18
592 1 -0.958685 1.82502 -0.448871 22
593 1 -18.4962 -5.88284 -18.1319 20
594 1 5.82428 -1.59611 -6.5437 17
595 1 1.01228 -9.06988 -12.8658 22
596 1 -20.0655 3.79007 -1.75454 20
597 1 -4.42526 13.359 -1.82804 10
598 1 -3.71544 1.38863 1.16291 22
599 1 -6.85557 6.77734 -3.69652 24
600 1 -7.6686 11.9238 2.61917 13
601 1 -0.0471042 -0.655332 -2.48438 23
602 1 -12.5349 -22.8422 -12.0086 13
603 1 -20.5329 4.55001 -13.7145 15
604 1 1.56524 4.6244 -20.8673 13
605 1 1.75255 -6.28956 -24.2263 18
606 1 -0.296136 11.5924 -6.76929 11
607 1 -7.89642 -13.7967 -17.3747 23
608 1 0.787353 -8.22436 -19.1314 19
609 1 -21.5997 -3.31244 -4.27377 23
610 1 -12.6719 0.0750209 -25.1219 22
611 1 -10.4916 -19.9132 -12.4726 24
612 1 -15.8755 -0.0625961 -19.9893 20
613 1 -25.8724 0.250029 -9.68702 9
614 1 -0.330944 -10.9804 -2.84247 15
615 1 3.48179 6.37365 -6.58533 13
616 1 -7.14473 -14.3059 -3.87811 20
617 1 -20.9415 -5.54338 -16.112 19
618 1 -7.94976 -3.31067 -27.7286 16
619 1 -9.71852 0.705874 5.64131 15
620 1 -0.357535 4.49525 -23.6397 15
621 1 1.75607 2.95378 4.16765 12
622 1 -1.19744 -0.27179 -19.0952 24
623 1 1.41628 6.44688 -9.10071 18
624 1 -1.46286 -16.5933 -19.2403 20
625 1 -20.5275 -4.13402 1.79165 18
626 1 2.0596 -8.65157 -2.47793 16
627 1 -12.0086 6.99846 0.0958126 22
628 1 -4.89386 2.42989 -18.9263 23
629 1 -19.9553 7.19744 -12.4725 15
630 1 4.26343 1.33718 -11.2407 21
631 1 -14.6834 -21.5909 -14.4148 10
632 1 5.05358 -7.07049 -13.1148 20
633 1 -7.3887 12.5988 -3.53681 16
634 1 -12.1771 1.42006 -0.0813635 21
635 1 -22.3356 -8.72435 -11.1671 22
636 1 -21.2638 -10.8758 -16.2859 19
637 1 -0.0739977 -0.684316 1.06696 17
638 1 -11.9382 -12.0497 -1.42958 21
639 1 -0.603469 1.60413 2.62428 20
640 1 -15.844 11.4567 -6.43469 13
641 1 0.886808 -3.08936 -16.0517 23
642 1 1.33464 -3.62615 -12.6928 21
643 1 -4.12648 -6.13408 -27.215 22
644 1 -18.7321 -3.69125 -2.89696 22
645 1 -4.1602 -6.14638 -24.1873 21
646 1 -10.6998 -8.13898 -18.9106 24
647 1 0.534984 -13.9146 -19.2224 24
648 1 3.18548 5.18412 -1.33168 13
649 1 -3.08056 -0.981639 -7.12543 20
650 1 -15.0605 -4.60321 1.65387 20
651 1 -3.43714 8.82441 0.814819 16
652 1 -6.31398 -11.215 4.68182 8
653 1 -9.29244 1.41784 1.63186 20
654 1 -7.23889 -11.4275 -25.7665 20
655 1 -15.0029 1.85997 -1.2722 24
656 1 -3.65902 -0.511644 6.5762 12
657 1 -15.5084 -20.0759 -4.94801 17
658 1 4.99121 4.67816 -9.04752 16
659 1 -3.89452 -16.8324 -14.683 20
660 1 -12.3125 4.8535 -18.1268 21
661 1 -3.24567 4.301 -10.4154 21
662 1 0.380355 9.45211 -9.36174 12
663 1 0.570033 -8.82843 -25.6567 15
664 1 -8.7581 -1.33268 -3.66584 21
665 1 -8.9867 4.8584 -24.3499 22
666 1 -1.17407 6.9819 -4.37736 21
667 1 -14.9708 -10.8044 -13.3573 23
668 1 -8.09737 -8.79097 -27.3246 21
669 1 -20.7993 8.34075 -9.60571 13
670 1 1.70115 -11.529 -24.5424 18
671 1 -0.355537 3.81389 -8.88209 20
672 1 -1.79132 2.07475 -17.2947 23
673 1 4.73573 4.33431 -15.8352 15
674 1 -14.8585 -0.575469 -6.57741 21
675 1 -17.7742 -1.10004 -7.73954 21
676 1 -4.37778 6.94524 -12.1544 18
677 1 -0.753143 0.233188 4.96061 11
678 1 -2.66819 -1.39948 3.21473 19
679 1 -14.0447 -18.4633 -0.887876 10
680 1 -15.9237 4.63654 -23.7795 15
681 1 -2.08433 12.807 -4.6511 13
682 1 1.75718 -11.7922 -21.2041 22
683 1 -5.74577 -1.31252 -2.26573 21
684 1 -6.32661 11.6249 -17.3032 10
685 1 -1.32172 6.74718 -7.7145 21
686 1 6.27143 -8.90952 -15.1127 12
687 1 -0.0710453 5.32957 4.41127 13
688 1 -24.3447 -9.68338 -2.53272 14
689 1 -6.77008 -19.2513 -7.27028 16
690 1 -9.82286 -5.55901 -20.6218 21
691 1 -18.0402 9.86617 -7.85004 16
692 1 -1.66158 7.02495 -10.6884 19
693 1 -3.74069 -11.1275 -14.2241 22
694 1 -4.32341 1.74565 -8.92553 20
695 1 -20.4545 -6.1825 -2.60317 20
696 1 -10.9803 4.15586 5.76954 15
697 1 -7.73095 3.42754 -26.794 14
698 1 -18.4221 2.41062 -22.9378 13
699 1 -13.3119 -14.6254 -10.4181 20
700 1 -6.68371 4.35931 -15.1946 20
701 1 -4.58632 -16.6438 -7.78496 20
702 1 -8.66666 3.98294 -3.47054 25
703 1 -19.5871 -0.726552 0.786108 23
704 1 -7.03791 -5.33835 -22.0138 21
705 1 -5.00718 -15.7966 -3.16891 10
706 1 -4.21339 7.43051 -9.27898 20
707 1 -11.4175 -0.868973 1.51092 18
708 1 -18.8504 -10.1931 -21.583 16
709 1 -13.5726 -11.0921 -25.3905 17
710 1 -13.2368 -19.3462 -14.0884 21
711 1 -9.58233 12.7978 -18.668 9
712 1 -7.81852 -8.23406 -20.6097 22
713 1 -5.76324 4.3451 -5.35193 22
714 1 -2.24953 -13.9762 -17.4996 24
715 1 -5.56318 -19.9125 -16.7121 15
716 1 -4.17375 -8.87866 -6.13607 22
717 1 4.81898 -1.13603 -16.1451 19
718 1 -7.66865 -20.2028 -13.6527 18
719 1 -17.9617 -4.39647 3.34422 14
720 1 -11.5969 -22.0901 -14.6304 12
721 1 -13.0659 -10.6341 -21.6972 22
722 1 -20.5728 -0.52032 -2.61099 19
723 1 -15.2435 -22.0009 -9.81822 15
724 1 5.61867 -0.231891 -18.8318 15
725 1 -10.7141 12.0422 -7.14307 17
726 1 -15.651 -3.58812 -4.88632 21
727 1 -24.8327 -3.28947 -9.10523 16
728 1 2.5794 -6.68194 -8.28925 21
729 1 -21.8762 -5.84188 -19.0091 11
730 1 -10.0707 10.0346 -16.6962 19
731 1 -2.28514 -2.97008 -20.7513 21
732 1 -4.34523 6.72039 2.11024 20
733 1 -1.71926 2.03798 -13.9811 23
734 1 -20.949 -1.76112 -15.919 17
735 1 -18.4541 -11.3035 -17.9564 23
736 1 -11.7376 2.34476 3.54394 21
737 1 -1.17525 -0.794938 -22.4731 19
738 1 0.181148 10.5448 -3.84807 14
739 1 -11.1602 -7.01024 -1.69225 21
740 1 -10.5695 -19.2562 -15.9511 18
741 1 -14.5216 -22.6497 -6.08669 10
742 1 -14.2916 -12.0623 -3.42387 20
743 1 2.94384 4.37558 -4.15128 18
744 1 -2.42399 -13.7674 -20.6042 23
745 1 -18.618 1.79683 -9.57804 19
746 1 -3.10279 4.48816 -7.19394 20
747 1 -15.5212 -9.41944 -1.94614 22
748 1 -2.38237 2.00228 -23.6167 19
749 1 -9.11532 -18.6061 -21.5442 15
750 1 -7.72771 -20.0727 -10.6022 21
751 1 -1.60936 -20.6977 -8.56084 8
752 1 -8.26188 -3.63236 -24.1173 21
753 1 -5.81484 9.87875 -5.06154 18
754 1 -16.2613 -0.547814 -26.7288 15
755 1 -8.5114 -6.76045 -0.213865 21
756 1 -7.73217 -0.922928 -25.8597 19
757 1 -13.023 -11.5473 -28.4806 11
758 1 -21.1656 -6.50671 -12.703 19
759 1 -7.45315 9.65742 -22.8987 12
760 1 -1.66532 -3.0792 -14.3169 22
761 1 -9.72745 -4.7728 -30.095 13
762 1 -15.0744 -11.0979 -10.1536 22
763 1 3.8008 1.69887 -20.9861 13
764 1 3.49967 -9.62229 -15.1167 21
765 1 -17.2546 7.87919 -2.38546 20
766 1 -1.8979 -15.6795 -5.06954 12
767 1 4.26524 -9.45156 -11.7757 17
768 1 0.458444 -10.7945 0.268429 11
769 1 -3.43065 2.14543 -5.44345 20
770 1 -17.2195 0.981726 3.79821 15
771 1 -14.5408 1.11046 2.13859 20
772 1 -12.2323 -21.6208 -5.31763 14
773 1 -1.3476 -3.87046 -7.3082 20
774 1 -3.7786 6.78109 -2.08226 21
775 1 -26.1067 -6.41456 -9.84594 10
776 1 -1.70939 -8.22703 -14.3949 23
777 1 -17.4235 5.45148 -14.8256 19
778 1 -7.07163 1.47343 -6.85287 22
779 1 -9.07689 -22.0088 -7.30716 12
780 1 -3.80539 -3.45337 4.76334 14
781 1 -9.42822 6.90657 -5.23787 23
782 1 -5.17497 -19.3503 -13.3235 16
783 1 -16.2471 -8.97527 -11.5766 21
784 1 -8.5852 -1.50237 2.6823 20
785 1 -23.8429 -11.4853 -11.5094 12
786 1 -8.49416 9.01351 4.27469 16
787 1 -8.11249 11.2068 -5.61891 18
788 1 -18.0477 -15.231 -10.2227 16
789 1 -10.3909 -20.1471 -9.20695 20
790 1 -3.98592 -9.21752 -2.65012 22
791 1 1.72054 -8.7979 -6.27576 13
792 1 -1.01228 1.4604 -3.80821 18
793 1 -10.4555 2.26476 -15.1016 22
794 1 -9.90398 -10.8928 -20.5861 22
795 1 -12.6744 -0.141741 -21.6003 23
796 1 -11.3639 -6.52677 1.63418 19
797 1 -10.7349 12.4773 -2.83791 15
798 1 1.41512 -3.92891 -9.244 22
799 1 -7.89395 2.22404 -20.3485 22
800 1 -10.5107 8.9611 2.20419 19
801 1 2.56786 1.59733 1.00249 16
802 1 -4.04307 -11.1028 -20.9457 22
803 1 -13.118 -16.3778 -18.8789 19
804 1 -12.7355 -5.35628 -18.5475 23
805 1 4.03536 -10.0115 -8.84129 10
806 1 -4.00878 -5.47699 -20.71 22
807 1 -13.3876 5.12115 3.69266 18
808 1 -5.44625 -13.9882 -22.5213 21
809 1 -1.39944 -1.72515 -28.5323 11
810 1 -9.62323 -11.5761 -13.869 22
811 1 4.91823 -6.7158 -19.7541 19
812 1 7.74993 -6.0801 -14.8559 11
813 1 -8.01715 -13.2007 2.40043 14
814 1 -14.2368 -13.5775 -20.4186 19
815 1 1.14125 6.9485 -12.998 19
816 1 -9.27671 -12.0308 -7.0541 24
817 1 -23.9062 2.10278 -2.20605 10
818 1 1.60551 -0.587478 -17.739 19
819 1 6.84003 -4.34522 -8.97652 10
820 1 -8.02623 -7.61948 29.4329 10
821 1 -18.6718 10.5731 -4.6678 15
822 1 8.17092 1.25436 -7.31091 9
823 1 2.01948 4.99888 -17.2908 18
824 1 0.685954 -3.44979 -22.3984 18
825 1 -0.81628 -5.47603 -16.1704 22
826 1 -21.0331 -0.613066 -12.5258 20
827 1 -0.425412 4.28143 -12.5026 21
828 1 -22.7792 -12.9858 -14.7761 11
829 1 -17.8742 5.49333 -18.1445 15
830 1 -0.948047 -3.33388 -0.591357 21
831 1 -19.4079 -8.33863 -16.3346 20
832 1 -16.9912 4.80722 -0.811353 22
833 1 -9.7589 -0.200273 -20.2645 23
834 1 4.38671 -12.4862 -22.882 15
835 1 -22.8507 -12.8836 -18.2699 9
836 1 4.30725 -12.4854 -16.6857 14
837 1 -22.9681 -0.650735 -7.42479 22
838 1 -17.9602 -10.9431 -15.0988 23
839 1 -0.676534 8.24724 -1.34337 18
840 1 -11.6958 -17.6992 -4.80681 19
841 1 -3.82272 1.89886 4.49702 21
842 1 1.97952 -8.35098 0.905645 13
843 1 -0.547948 -6.50801 -9.5529 22
844 1 -21.4078 -2.76663 -7.73158 23
845 1 -11.494 9.91688 -1.36475 19
846 1 -9.55353 4.90554 -20.0883 21
847 1 -7.45991 -14.7704 -27.2054 11
848 1 -13.2761 12.8395 -4.68003 9
849 1 -18.5266 -14.1493 -6.88043 17
850 1 -1.71409 7.25578 -17.4898 13