ITEM: TIMESTEP
27000
ITEM: NUMBER OF ATOMS
500
ITEM: BOX BOUNDS pp pp pp
-30.0 30.0
-30.0 30.0
-30.0 30.0
ITEM: ATOMS id type x y z Coordination
1 1 1.84663 -10.2409 14.1237 9
2 1 -6.79959 -2.44611 14.964 14
3 1 -12.0046 -4.46793 9.00985 18
4 1 -7.31665 -6.60477 -3.98169 14
5 1 -13.2163 -9.74599 5.97426 15
6 1 -4.45906 -4.83856 -5.68985 9
7 1 1.01219 -15.3821 2.0261 11
8 1 -2.41335 -2.58707 12.4237 18
9 1 -3.03873 -2.1826 -1.24368 21
10 1 -4.09891 -1.6627 14.7531 12
11 1 -11.5813 -12.3709 6.69711 20
12 1 1.05963 -11.8711 1.58498 21
13 1 -3.05066 -7.53175 14.9171 12
14 1 -14.4025 -12.4246 7.1902 10
15 1 -7.0204 -15.6553 0.734573 16
16 1 2.10663 -4.58879 -1.18732 21
17 1 1.66608 -10.6615 9.62938 19
18 1 -9.43212 2.89181 7.54185 13
19 1 -7.63768 0.760975 7.91427 21
20 1 -6.49537 -13.5985 -1.19365 20
21 1 -6.53331 -3.58657 11.4443 17
22 1 3.52275 -9.40427 11.5063 10
23 1 -11.7219 -1.17416 12.1365 12
24 1 -1.93957 -0.63119 -3.63492 11
25 1 3.50677 0.51114 6.23656 12
26 1 -4.76761 2.79425 -0.386063 10
27 1 -10.2425 -2.112 -1.00943 14
28 1 -6.43397 1.65219 2.31841 18
29 1 -4.75524 1.16194 4.39449 19
30 1 -12.4544 -3.03194 6.17184 17
31 1 -6.47824 -0.342857 12.2739 14
32 1 -9.84139 -4.54641 -3.19695 12
33 1 -6.211 -13.0958 9.57605 21
34 1 -0.268578 -14.1413 4.47105 20
35 1 -11.817 -10.0415 9.26559 19
36 1 -11.7607 -7.57456 1.17022 19
37 1 -4.47213 -15.2592 11.2146 15
38 1 0.642453 -3.76904 -3.6739 15
39 1 -9.54374 -13.7172 -1.44039 11
40 1 -5.18452 -1.23404 -4.51953 11
41 1 -3.61507 5.38122 7.52722 9
42 1 -13.0462 -9.73757 12.3524 12
43 1 -3.36916 0.265791 12.1772 14
44 1 -2.13854 -5.96631 12.1772 22
45 1 -1.83748 -16.7844 3.27815 16
46 1 3.19076 -2.18826 -2.09824 10
47 1 -9.03416 -13.3855 10.638 17
48 1 0.217589 -8.57424 12.3539 20
49 1 -1.16072 -11.6834 12.7568 21
50 1 0.723513 2.04551 6.30472 16
51 1 -11.7442 -12.7317 11.3237 11
52 1 -4.31416 -17.3461 8.69452 12
53 1 -10.3666 -5.67473 11.8261 21
54 1 -10.9284 -8.12664 14.4895 14
55 1 -1.32409 -17.615 6.77052 12
56 1 -14.8437 -8.90753 10.4677 12
57 1 -8.78548 -2.16524 12.3504 20
58 1 -13.3923 -1.74758 8.98556 11
59 1 -10.3183 -2.49036 14.9106 11
60 1 -11.5094 -12.19 0.822829 13
61 1 -13.6817 -1.82658 0.601381 8
62 1 -11.3539 -10.41 -1.36432 12
63 1 0.4453 -6.58392 14.3941 11
64 1 -3.14084 -9.2471 12.2554 21
65 1 -9.32339 -7.5819 -1.54944 19
66 1 -13.9843 -7.64029 7.94322 13
67 1 -6.36675 -15.4992 6.93105 19
68 1 -10.2836 -1.52994 9.31984 21
69 1 -3.124 -13.4277 -0.547731 19
70 1 -6.30564 2.20083 10.7077 13
71 1 -13.8042 -3.96097 3.123 12
72 1 -11.7406 0.00293613 0.631291 9
73 1 -4.72642 -18.0136 2.27754 13
74 1 -1.83638 -14.4405 12.0166 16
75 1 -12.9969 -0.942566 3.98116 14
76 1 -9.49178 -5.60148 16.3701 11
77 1 -13.976 -6.98795 13.0433 12
78 1 -4.6333 -15.6361 -2.25161 10
79 1 -4.53164 -12.2226 12.2082 20
80 1 0.21253 -13.6521 -0.509071 13
81 1 3.79403 -3.25044 7.13743 15
82 1 -1.10735 -6.73364 -3.88736 13
83 1 -1.6188 -16.3637 9.59546 13
84 1 -9.76946 -14.9327 8.12943 17
85 1 -14.9511 -12.3628 11.0881 9
86 1 1.23753 -3.24722 13.2271 15
87 1 4.02473 -1.65223 4.25446 13
88 1 -2.80126 -3.76167 -3.84483 19
89 1 -4.51044 0.673413 -1.92106 15
90 1 -6.47325 4.0837 8.0044 12
91 1 2.1588 -5.84317 -3.98174 9
92 1 0.162945 -13.2841 10.0092 19
93 1 1.65612 -12.6178 6.49533 17
94 1 -3.88837 -16.576 5.24689 16
95 1 -11.5625 -5.46485 -1.25264 14
96 1 3.21733 -7.7058 5.08907 17
97 1 -7.57487 0.58128 -0.823223 15
98 1 -2.02217 -15.9915 0.2882 14
99 1 -8.84453 -7.80078 12.0055 21
100 1 -6.13371 -18.3636 5.67268 12
101 1 -1.11073 -10.4549 -0.526596 19
102 1 1.39367 -16.4818 4.96091 12
103 1 -4.41829 -15.4024 1.36258 20
104 1 -6.15069 -6.19259 16.1775 11
105 1 -7.91043 -5.23023 13.7065 22
106 1 0.538276 -7.65442 -0.650634 20
107 1 -11.6259 2.23255 5.13184 11
108 1 -1.23547 0.962717 3.51557 17
109 1 4.12955 -4.00173 0.848856 12
110 1 -6.6662 -3.56328 -3.54032 16
111 1 -12.2364 -6.95962 10.3892 18
112 1 -3.00534 -12.6634 9.74847 23
113 1 -14.0228 -5.52177 1.15842 10
114 1 3.10022 -9.79066 7.31302 15
115 1 -1.23172 -4.2308 14.4763 15
116 1 -3.60777 -13.5089 14.7767 8
117 1 2.67235 -2.18562 10.5665 12
118 1 0.833251 0.130184 11.8956 11
119 1 -9.79181 -14.6105 1.88679 14
120 1 -0.870984 -0.91421 14.4004 11
121 1 -6.47481 -2.01281 -0.642 22
122 1 -8.89312 -17.1455 6.70496 11
123 1 1.23717 -0.857255 7.77209 23
124 1 -10.5078 -0.187685 6.45311 21
125 1 2.70208 0.54102 3.28391 13
126 1 -4.75688 -4.69261 14.3254 16
127 1 -4.39361 -6.86092 -3.42998 17
128 1 2.88807 -13.3524 3.37054 11
129 1 -3.36853 4.01434 9.92514 12
130 1 -8.65323 0.631794 10.5281 16
131 1 2.21302 -10.6014 -1.15233 11
132 1 1.75319 -12.8415 12.6227 9
133 1 -12.1163 -5.21263 15.2067 12
134 1 2.64441 -5.75694 11.371 14
135 1 -3.02909 2.59115 1.92903 12
136 1 2.04544 -1.46363 1.27111 21
137 1 -4.85446 -10.1969 14.7187 11
138 1 -6.3691 -9.14179 12.214 19
139 1 -11.4377 1.66127 8.83205 11
140 1 -0.917165 4.17736 7.64478 11
141 1 -13.0432 -14.2309 9.41946 10
142 1 3.51364 -7.55383 9.10877 12
143 1 -9.52359 -14.1159 4.70243 18
144 1 -0.70788 -1.7412 9.80675 21
145 1 5.60724 -8.96283 4.5857 9
146 1 -2.58869 2.18492 5.96453 15
147 1 -11.6811 -10.0776 2.59384 16
148 1 -1.56449 1.05761 -0.692127 17
149 1 -7.72434 -10.5932 -1.77581 20
150 1 -6.25226 -13.3188 -4.54661 7
151 1 -7.82717 -16.8572 3.46417 15
152 1 -7.25111 -14.2961 12.2274 10
153 1 3.8174 -9.63939 1.58004 14
154 1 -14.0208 -7.35495 4.1603 13
155 1 -8.68702 -1.04923 -3.10238 11
156 1 -12.7899 -12.8829 4.02236 13
157 1 1.35333 -4.42799 9.47142 20
158 1 -5.50442 -9.78973 -3.68012 12
159 1 -12.8525 -3.54527 12.1011 13
160 1 -7.87608 -8.61696 15.2312 14
161 1 1.52331 1.72678 9.39769 11
162 1 5.43196 -4.85997 4.26121 10
163 1 -8.45089 -10.7286 13.0003 13
164 1 0.219764 -1.65135 -1.20312 22
165 1 1.96742 0.717888 -0.605081 11
166 1 -1.48043 1.15108 9.41472 20
167 1 0.553387 1.71153 1.16707 12
168 1 5.26407 -6.94185 2.42506 12
169 1 3.63276 -7.65433 -0.810181 13
170 1 -4.53438 2.01143 8.21613 17
171 1 -8.03028 2.61071 5.19494 15
172 1 -7.25772 -16.2926 9.67884 14
173 1 0.448309 -15.2197 7.15945 15
174 1 -12.0195 -15.2088 5.98045 12
175 1 -9.56607 1.25827 3.10988 15
176 2 -14.8433 -10.3932 11.6785 12
177 2 1.01705 -1.33674 10.6573 17
178 2 -13.3995 -2.8059 4.46963 13
179 2 -7.90318 -14.7392 10.3928 14
180 2 -4.50816 -6.43404 15.1084 15
181 2 -11.4557 -2.35052 13.4582 13
182 2 0.929205 -13.4404 2.51716 17
183 2 -8.02854 -4.68347 -3.17819 15
184 2 -5.90823 -14.4763 -3.11091 9
185 2 -7.61329 1.49996 11.632 11
186 2 3.59482 -9.66803 9.44325 11
187 2 0.183519 2.55775 8.07599 14
188 2 -5.06239 0.924351 11.6421 16
189 2 -2.59633 4.0346 6.69129 13
190 2 -1.67059 -0.872512 -1.64983 18
191 2 1.932 -6.5373 -1.81739 17
192 2 -13.6209 -3.53959 1.35146 14
193 2 -5.71706 -13.6674 11.5706 20
194 2 -11.7159 -10.1923 7.17325 17
195 2 -0.202221 -15.3048 0.611276 14
196 2 -2.05183 -17.3104 5.05241 15
197 2 -2.56052 -1.0147 10.9972 20
198 2 -3.36212 -7.40242 11.3658 22
199 2 -10.9572 -14.0416 10.1619 13
200 2 -2.33372 -17.6749 8.24023 11
201 2 -13.0137 -13.9226 7.34754 14
202 2 -8.15988 -16.3044 8.08593 13
203 2 -7.46311 -16.6897 5.40505 16
204 2 -9.35499 1.5248 9.05991 16
205 2 0.320546 -3.45621 -1.37077 24
206 2 4.29585 0.318582 4.4004 8
207 2 -3.86991 -0.393826 -3.52037 13
208 2 2.80393 -3.10464 8.78984 17
209 2 -4.77487 4.40959 8.71183 11
210 2 -11.8857 -0.382974 8.33731 16
211 2 -2.9566 1.91962 3.96281 15
212 2 0.318857 1.52116 -0.582618 12
213 2 -7.1479 -1.83904 11.2596 18
214 2 -3.07747 -9.32844 14.2585 15
215 2 -1.38199 -12.6433 -0.668366 15
216 2 -3.26741 -13.7025 1.50847 20
217 2 -5.5591 -15.6041 -0.367392 16
218 2 -11.4172 -14.1543 4.55592 13
219 2 5.27188 -9.03694 2.83769 10
220 2 -2.11121 5.17251 8.96137 7
221 2 -5.91642 -7.91353 -3.9755 13
222 2 -2.95571 -5.85056 -4.40559 15
223 2 -8.71789 -15.1959 0.181064 13
224 2 -2.97742 -15.3062 -1.20572 13
225 2 3.1806 -2.77226 -0.316776 15
226 2 -13.3496 -13.622 11.2989 8
227 2 -4.8635 -12.5651 -1.01036 21
228 2 -6.4208 -16.9787 1.96778 14
229 2 -5.76891 -5.15046 -4.32489 16
230 2 -8.43224 -1.00316 8.76624 21
231 2 -10.586 -16.1904 6.86347 12
232 2 -11.2313 2.52571 7.13181 11
233 2 -11.6684 -10.8636 11.305 17
234 2 -14.6166 -12.534 9.18961 12
235 2 -1.25303 -12.1408 8.9985 25
236 2 5.06398 -6.75309 4.36673 13
237 2 -1.36916 -0.685158 8.30196 23
238 2 -7.95691 -6.78029 16.0123 12
239 2 -12.2111 -6.54387 8.36269 18
240 2 -13.4688 -5.81871 2.98083 13
241 2 2.36521 -1.36897 3.28816 18
242 2 -13.4202 -11.844 5.73011 13
243 2 -6.28328 1.85677 -1.35272 11
244 2 0.340167 -5.58975 -4.58046 12
245 2 -13.0281 -3.29745 7.97784 14
246 2 1.40157 -12.1378 -0.287191 13
247 2 -4.95379 -15.2212 4.44257 22
248 2 -10.1553 -0.822702 11.1511 18
249 2 0.431343 -16.9164 6.49294 12
250 2 -2.75125 -0.537324 13.8981 10
251 2 -6.64605 1.25735 4.22906 19
252 2 -4.68652 -10.1812 11.8388 23
253 2 -6.77879 -1.31262 -3.78945 13
254 2 3.84593 -7.1739 1.03606 16
255 2 -5.72677 -4.79604 12.6778 18
256 2 2.41868 0.386333 7.86925 15
257 2 0.185317 0.234994 13.5367 10
258 2 -12.3866 -12.1064 2.46981 11
259 2 -5.71687 -1.47268 13.8348 15
260 2 0.859512 -8.63963 14.2934 13
261 2 -3.97508 -3.0344 -5.14335 11
262 2 -6.57706 -4.54246 15.0599 15
263 2 -0.0146569 -13.671 11.857 13
264 2 -12.6346 -6.34708 -0.0782761 13
265 2 -10.2198 -4.01511 -0.373989 16
266 2 -12.1681 -1.68691 -0.443695 10
267 2 -2.68074 -12.5169 11.7349 20
268 2 -6.50753 1.9848 8.94864 18
269 2 -11.0803 -12.3061 -1.1047 13
270 2 3.08948 -7.93569 7.16282 17
271 2 -9.81803 2.30543 4.53909 13
272 2 3.66489 -9.74204 5.25616 14
273 2 -7.84095 -12.1297 8.83401 20
274 2 -9.82733 -12.8718 1.46853 20
275 2 -4.96022 2.36085 1.49574 15
276 2 -13.2432 -2.10557 10.87 10
277 2 -4.56544 -11.9671 14.2322 12
278 2 -14.1164 -7.48508 11.3061 13
279 2 -8.63699 -1.99941 14.3969 14
280 2 -11.937 0.358658 4.80524 15
281 2 1.96371 1.28835 4.95175 15
282 2 -10.4814 -4.11207 15.6813 11
283 2 -6.42107 -8.83496 14.1473 19
284 2 -9.62776 -9.70055 -1.34693 15
285 2 -4.88377 -0.907203 -0.712843 21
286 2 -6.39789 -13.5999 1.4562 21
287 2 -0.150935 -6.65378 11.9678 21
288 2 3.76412 -1.61448 6.23636 15
289 2 -0.152387 -15.2283 8.91919 15
290 2 2.13082 -4.71494 0.96364 19
291 2 -3.25935 -3.42023 14.3288 15
292 2 -9.39619 -6.39793 13.5579 20
293 2 -11.6203 -9.74433 0.791154 15
294 2 -4.20623 1.14497 6.60045 21
295 2 -12.622 -8.22363 13.4929 15
296 2 -13.2978 -8.75519 9.28077 15
297 2 -4.88474 -17.1331 6.8003 14
298 2 -1.63167 -6.31562 14.1864 16
299 2 -8.52705 -1.1743 -0.717328 17
300 2 1.95684 -0.887412 -1.79834 14
301 2 -3.14795 -16.7925 1.85523 14
302 2 2.89437 -10.7035 12.6514 10
303 2 -0.602984 -2.64986 13.3262 17
304 2 -3.30822 1.88254 -0.734488 12
305 2 -6.56393 -11.2343 -4.05798 10
306 2 -7.86538 3.81464 6.80635 11
307 2 -7.69111 0.743931 1.22289 17
308 2 -13.2701 -0.524634 2.02841 9
309 2 -13.1364 -5.36074 13.5523 13
310 2 -1.01511 -2.54264 -3.80674 15
311 2 0.586778 -9.60287 -1.2154 16
312 2 -10.6755 0.94265 1.64278 13
313 2 -9.96045 -2.54494 -2.85836 12
314 2 0.3183 -11.7348 13.7133 11
315 2 -10.976 -6.6342 15.6175 13
316 2 -9.26457 -9.47511 14.1853 12
317 2 -2.91973 -14.6738 13.3858 10
318 2 -14.0135 -7.59057 6.09105 11
319 2 -8.39947 -9.67151 11.5304 18
320 2 -2.77801 -14.9161 10.2193 17
321 2 0.6161 -4.64937 14.1808 11
322 2 2.67589e-04 -15.7972 3.79029 16
323 2 -8.77807 0.866479 6.37203 20
324 2 -9.49355 -7.84716 0.467386 25
325 2 -11.8723 -4.81806 10.9607 18
326 2 -1.329 -9.657 11.6959 19
327 2 2.58559 -3.74932 -3.37601 11
328 2 0.119909 1.17117 10.573 13
329 2 2.92186 -7.72687 11.2627 13
330 2 3.67468 -9.50046 -0.341791 12
331 2 1.64443 -12.1561 10.5862 14
332 2 2.09776 0.60261 1.36068 15
333 2 -13.0894 -9.03313 3.49731 14
334 2 -9.9713 -13.2659 7.00212 17
335 2 -0.0428257 -13.4781 6.34601 19
336 2 -1.62503 1.20209 1.64654 17
337 2 3.89164 -3.98627 5.16047 14
338 2 0.366328 -1.83882 0.824453 24
339 2 2.17642 -10.4735 2.01392 17
340 2 2.49084 -15.2494 3.89674 11
341 2 -5.36484 -18.5779 3.95979 10
342 2 -1.03844 1.0022 5.66254 19
343 2 -2.95094 2.35765 9.20161 19
344 2 -5.31361 -16.4386 9.83752 14
345 2 -8.44803 -12.813 12.4521 14
346 2 2.02634 -3.86007 11.4349 15
347 2 4.82808 -4.75625 2.44413 12
348 2 -10.2572 -6.33858 -2.63248 12
349 2 -8.9984 -15.4202 3.34073 15
350 2 2.25876 -12.268 4.59373 14
351 1 -7.9781 -12.3727 1.22683 22
352 1 -9.43589 -9.79292 1.02445 22
353 1 -6.24694 -7.76464 -1.01482 22
354 1 -4.46925 -10.4689 -0.815863 20
355 1 -4.82317 -12.4647 1.48758 20
356 1 -6.17718 -9.59861 1.63785 24
357 2 -7.69464 -13.0992 4.81342 20
358 2 -9.61311 -9.77245 3.0289 20
359 2 -7.65904 -10.598 1.11101 20
360 2 -8.10233 -12.492 -1.26097 18
361 2 -5.94915 -9.70599 -1.68791 19
362 2 -4.72757 -12.637 3.58423 20
363 2 -6.57808 -9.80761 3.70852 22
364 2 -6.37013 -7.73689 1.26227 21
365 2 -4.44309 -10.4794 1.23533 22
366 1 -9.50593 -8.06463 3.83122 21
367 1 -7.98216 -11.0568 4.19756 19
368 1 -8.29565 -12.4223 7.07296 19
369 1 -9.88246 -9.78801 6.89575 20
370 1 -10.1747 -7.552 8.56321 20
371 1 -8.35799 -10.4186 9.69281 20
372 1 -6.20011 -13.8767 4.16337 23
373 1 -6.25621 -7.63827 4.19983 23
374 1 -4.50456 -10.4556 4.34826 23
375 1 -4.64396 -12.3893 6.98025 22
376 1 -6.71055 -9.6717 6.91607 22
377 1 -6.85753 -7.60154 9.20648 22
378 1 -4.71647 -10.0256 9.53732 21
379 2 -10.0142 -9.59142 9.01786 21
380 2 -10.0423 -7.52918 6.37156 20
381 2 -8.41045 -10.7245 6.02542 19
382 2 -5.71894 -13.805 7.70831 19
383 2 -4.63771 -11.7307 8.83263 20
384 2 -6.74642 -9.61373 8.81953 22
385 2 -6.58965 -7.83706 6.22918 21
386 2 -4.70426 -10.2608 6.13881 22
387 2 -10.3494 -7.03162 10.6166 20
388 1 -7.71528 -4.84952 -1.08033 26
389 1 -8.0774 -6.90262 1.41585 22
390 1 -9.85124 -4.50009 1.34803 18
391 1 -8.1158 -1.00006 1.39997 20
392 1 -4.39833 -4.86064 -1.08169 22
393 1 -4.68225 -6.96165 1.35694 20
394 1 -6.27961 -4.36683 1.68032 21
395 1 -4.50968 -0.915805 1.4207 22
396 2 -10.9723 -7.04709 2.86681 22
397 2 -7.43686 -6.73707 -1.81977 21
398 2 -8.14016 -6.82299 3.6419 21
399 2 -10.6032 -3.81558 2.93576 19
400 2 -8.15604 -4.98376 1.43101 21
401 2 -8.75885 -0.801459 3.36059 18
402 2 -4.27968 -6.83777 -1.51431 23
403 2 -6.18717 -3.66706 -1.43782 18
404 2 -4.66648 -6.6132 3.77533 24
405 2 -6.22783 -4.01447 3.6781 19
406 2 -6.43999 -2.04231 1.41414 19
407 2 -4.68554 -5.15601 0.779319 24
408 2 -4.60803 -0.653122 3.42574 22
409 1 -11.4145 -5.52961 3.5299 23
410 1 -11.5947 -6.43699 6.47329 21
411 1 -9.79601 -2.43383 3.85171 21
412 1 -8.00588 -4.94047 3.75699 22
413 1 -8.32797 -6.44557 6.54585 20
414 1 -9.71519 -3.83395 6.7227 21
415 1 -8.30176 -4.71111 9.52712 23
416 1 -7.76072 -0.261653 5.01509 20
417 1 -6.20963 -1.90479 3.48257 21
418 1 -4.47475 -4.81729 4.2211 21
419 1 -4.89338 -6.86634 6.62624 21
420 1 -6.44776 -3.71849 5.83089 20
421 1 -6.77005 -1.80247 9.30177 22
422 1 -5.0747 -4.70856 8.89234 20
423 1 -5.198 -6.40269 11.713 18
424 1 -5.04574 -0.961604 6.54282 19
425 2 -11.3122 -4.92173 5.41178 22
426 2 -8.40319 -6.3637 8.46646 22
427 2 -10.1673 -3.77336 8.69957 24
428 2 -10.4444 -2.17273 5.90498 19
429 2 -8.32553 -4.58998 5.74474 20
430 2 -4.99842 -6.62211 8.80961 22
431 2 -6.61294 -3.72057 9.4592 20
432 2 -6.68412 -1.74948 5.57817 22
433 2 -4.94472 -4.85863 6.20116 22
434 2 -8.77177 -4.08174 11.6464 21
435 2 -5.10861 -1.22286 8.41643 20
436 1 -2.63825 -7.5906 -0.915791 21
437 1 -1.84724 -12.4687 2.04882 21
438 1 -2.78152 -9.56569 1.8108 19
439 1 0.366983 -9.31037 1.84273 23
440 2 -2.66417 -9.50918 -1.4441 16
441 2 -1.52253 -12.7488 4.00815 18
442 2 -2.78115 -9.52378 3.73601 24
443 2 -2.72185 -7.91333 1.20716 23
444 2 -1.14975 -10.8584 1.52594 21
445 2 0.332378 -9.40226 3.90075 21
446 2 0.277477 -7.41449 1.25484 23
447 1 -3.31673 -13.6719 4.39104 19
448 1 -2.85917 -7.59075 4.04709 21
449 1 -1.43925 -10.7022 4.47414 23
450 1 -1.38731 -12.2412 6.92875 21
451 1 -3.14758 -9.3962 7.01768 23
452 1 -3.07729 -7.13829 9.43855 22
453 1 -1.67184 -10.1751 9.59467 23
454 1 0.328147 -7.62439 4.55742 23
455 1 2.01232 -10.5165 4.07279 18
456 1 0.0534134 -9.33153 7.21096 22
457 1 0.112069 -7.04385 10.1058 23
458 2 -3.02878 -13.1381 6.1721 19
459 2 -3.16813 -9.10717 8.91881 22
460 2 -2.95485 -7.46101 5.9474 25
461 2 -1.38852 -10.2563 6.51651 23
462 2 -6.96597 -7.15508 11.3797 22
463 2 0.0665728 -9.53604 9.04734 23
464 2 0.255922 -7.2268 6.57961 21
465 2 1.73905 -11.0603 7.26287 16
466 1 -1.02976 -4.8561 -1.07169 25
467 1 -1.26966 -6.63814 1.94965 23
468 1 -2.97418 -4.06166 1.49119 23
469 1 -1.35904 -1.26986 1.27127 23
470 1 2.19434 -6.43431 1.71363 22
471 1 0.587584 -3.95621 1.51579 23
472 2 -0.996532 -6.63697 -1.69707 22
473 2 -2.8506 -4.11104 -1.92159 24
474 2 -1.42223 -6.34044 3.80492 21
475 2 -3.64418 -3.47253 3.05305 21
476 2 -2.8543 -2.11092 0.622651 22
477 2 -1.25223 -4.80641 1.2124 22
478 2 -1.19363 -1.02978 3.22326 22
479 2 2.12672 -6.4859 3.86705 24
480 2 0.374462 -3.70278 3.485 22
481 1 -3.02833 -1.76875 3.83458 22
482 1 -1.22015 -4.47739 4.30398 24
483 1 -1.44013 -6.43023 7.10161 25
484 1 -3.37602 -3.81866 6.60914 22
485 1 -3.32602 -1.4793 9.27916 22
486 1 -1.75976 -4.34286 9.4672 20
487 1 -1.7547 -0.832919 6.37544 23
488 1 0.340547 -2.04549 4.24879 23
489 1 2.02319 -4.52602 4.78126 23
490 1 1.75464 -6.32448 7.307 21
491 1 -0.138506 -3.52566 6.92993 23
492 2 -1.45697 -6.29965 8.90952 24
493 2 -3.38046 -3.47461 8.57148 22
494 2 -3.3669 -2.015 5.68616 24
495 2 -1.58906 -4.5935 6.31483 23
496 2 -1.86542 -4.1409 11.2499 21
497 2 2.03429 -6.14503 9.29512 16
498 2 -0.275819 -3.35955 8.94341 24
499 2 0.261636 -1.79093 6.17848 23
500 2 1.36168 -4.4166 6.50325 21
