ITEM: TIMESTEP
4500
ITEM: NUMBER OF ATOMS
2880
ITEM: BOX BOUNDS pp pp pp
0.0 33.66
0.0 33.66
0.0 32.9
ITEM: ATOMS id type x y z Coordination
1 1 0.9321 1.07642 -0.103914 22
2 1 4.84537 4.43609 -0.125483 20
3 1 1.9907 3.99943 1.61456 24
4 1 3.86725 1.73328 1.77607 20
5 1 1.16603 1.15189 3.30542 20
6 1 4.41672 4.76491 3.28637 21
7 1 1.74714 4.07016 5.15481 19
8 1 3.81786 1.69888 4.92355 21
181 2 0.814185 4.48493 -0.0961486 19
182 2 4.53523 1.03056 0.0552067 21
183 2 1.77303 1.75044 1.69166 18
184 2 3.91446 3.82454 1.5428 20
185 2 1.04292 4.61278 3.33943 21
186 2 4.7351 1.08848 3.29348 20
187 2 1.79651 1.98996 5.01938 22
188 2 3.71187 3.93037 5.05658 20
9 1 0.95924 1.17174 6.72219 22
10 1 4.48375 4.65724 6.63689 20
11 1 1.61836 3.90297 8.50134 21
12 1 3.93111 1.94843 8.24268 22
13 1 0.922627 1.0819 9.8891 21
14 1 4.44288 4.734 10.0323 19
15 1 1.93437 3.9366 11.558 21
16 1 3.85676 1.82507 11.4616 22
189 2 1.20532 4.79319 6.69035 20
190 2 4.57803 1.33314 6.60708 21
191 2 1.701 1.9662 8.35304 22
192 2 3.7428 4.05365 8.40463 20
193 2 0.980275 4.8159 10.3397 20
194 2 4.44055 0.940112 9.88108 21
195 2 1.81099 1.89113 11.4383 21
196 2 3.93155 3.75305 11.6524 22
17 1 0.963642 1.14652 12.9668 22
18 1 4.58674 4.5738 13.354 21
19 1 1.85289 3.81968 14.7267 22
20 1 3.76601 1.72536 14.7957 22
197 2 1.59424 4.65438 13.1923 20
198 2 4.56454 1.09358 13.0901 19
199 2 1.6701 1.81923 14.7255 21
200 2 3.93839 3.63032 14.9341 22
361 1 1.09098 1.06683 16.319 20
362 1 4.62696 4.59674 16.4854 22
363 1 1.77899 3.83621 18.21 23
364 1 4.05928 1.92241 18.0762 20
541 2 0.855845 4.10107 16.5444 21
542 2 4.77228 0.686108 16.6972 22
543 2 1.84962 1.72178 17.9676 21
544 2 3.76819 3.90921 18.0023 22
365 1 1.22807 0.796339 19.5534 22
366 1 4.73857 4.6587 19.6358 23
367 1 1.59578 3.76036 21.4926 21
368 1 3.61715 1.75287 21.3494 21
369 1 1.00147 1.05303 22.8538 20
370 1 4.31274 4.62671 23.0119 20
371 1 1.75743 3.56988 24.7842 21
372 1 3.69462 1.52098 24.6668 22
545 2 0.991065 4.561 19.8701 22
546 2 4.4912 0.86144 19.6731 22
547 2 1.63768 1.71684 21.2839 21
548 2 3.75608 3.74755 21.228 21
549 2 1.206 4.52262 23.1628 21
550 2 4.33426 0.874512 22.9155 22
551 2 1.73885 1.71798 24.5961 22
552 2 3.86766 3.63584 24.7062 22
373 1 0.850439 1.28822 26.3246 22
374 1 4.64243 4.31022 26.3102 22
375 1 1.7099 3.69342 27.9937 21
376 1 3.65127 1.5337 28.0405 22
377 1 0.780369 0.933364 29.6134 21
378 1 4.64327 4.45917 29.3361 21
379 1 1.55841 3.88992 31.1457 20
380 1 4.10576 2.08791 31.1703 21
553 2 0.884752 4.32898 26.3438 20
554 2 4.54723 1.00557 26.4132 21
555 2 1.7078 1.70117 28.0785 22
556 2 3.71183 3.64964 27.9725 22
557 2 0.716026 4.46155 29.5258 22
558 2 4.57367 0.970301 29.6904 20
559 2 1.48197 2.02443 31.1126 21
560 2 3.88772 4.03705 31.2584 20
21 1 0.861981 6.52976 0.202702 20
22 1 4.47158 10.041 0.102692 22
23 1 1.73067 9.4162 1.80654 21
24 1 3.84017 7.23684 1.73244 22
25 1 0.951089 6.69752 3.51976 21
26 1 4.54513 10.2989 3.26288 20
27 1 1.64078 9.63043 4.89875 19
28 1 3.71906 7.61177 5.05086 22
201 2 0.989306 9.98057 0.162784 20
202 2 4.53034 6.38455 0.233721 21
203 2 1.84146 7.26905 1.88374 22
204 2 3.66743 9.22799 1.73166 21
205 2 0.805123 10.4229 3.2779 21
206 2 4.68772 6.77898 3.33513 21
207 2 1.74543 7.64615 4.98526 20
208 2 3.5687 9.60146 4.93476 21
29 1 0.912545 6.76765 6.77584 20
30 1 4.51165 10.3493 6.58272 21
31 1 1.97207 9.66142 8.56411 20
32 1 3.8386 7.28452 8.4752 20
33 1 0.807548 6.93494 10.0988 22
34 1 4.78122 10.2025 9.84168 20
35 1 2.08479 9.50437 11.6521 21
36 1 4.13329 7.56644 11.629 21
209 2 1.19403 10.4206 6.79598 20
210 2 4.46919 6.87422 6.6268 21
211 2 1.83129 7.686 8.57121 20
212 2 4.00722 9.45466 8.33348 20
213 2 0.88412 10.3231 9.90287 23
214 2 4.75774 6.74067 10.0558 20
215 2 1.76233 7.51459 11.5366 21
216 2 4.02639 9.51139 11.6037 21
37 1 1.12158 6.44347 13.0496 20
38 1 4.80423 10.2255 13.1803 22
39 1 1.87677 9.12794 14.8925 23
40 1 3.65989 7.33485 14.8853 23
217 2 1.0556 9.96764 13.2447 21
218 2 4.59388 6.53085 13.2837 21
219 2 1.87527 7.16847 14.9984 19
220 2 3.95673 9.24051 14.6789 21
381 1 1.16117 6.22158 16.51 23
382 1 4.39542 10.0016 16.52 21
383 1 1.6983 9.15517 18.212 20
384 1 3.77431 7.27667 18.0693 21
561 2 1.01097 9.91617 16.4243 23
562 2 4.60284 6.67659 16.4107 22
563 2 1.39312 7.37129 18.0412 21
564 2 4.04473 9.19831 18.2864 22
385 1 1.30134 6.4038 19.8916 23
386 1 4.54215 10.2088 19.6994 20
387 1 2.16277 9.81036 21.3516 21
388 1 3.72011 7.44351 21.3857 20
389 1 1.17316 6.77961 23.0055 22
390 1 4.6718 10.3417 23.2339 22
391 1 1.66253 9.49789 24.6838 19
392 1 4.02314 7.38052 24.8771 21
565 2 1.35621 10.2165 19.6496 21
566 2 4.48044 6.61303 19.7039 21
567 2 1.75574 7.5946 21.3114 20
568 2 4.15514 9.47729 21.4773 22
569 2 1.14239 10.2485 22.9364 19
570 2 4.34882 6.53131 22.9552 20
571 2 1.81106 7.40835 24.7262 20
572 2 3.80773 9.44321 24.6337 21
393 1 1.02934 6.46487 26.3148 22
394 1 4.62067 10.1237 26.2874 21
395 1 1.57035 9.1756 27.9354 23
396 1 3.95942 7.3317 27.7021 20
397 1 1.18017 6.57006 29.6715 20
398 1 4.52474 10.0925 29.8868 20
399 1 1.55854 9.26122 31.3665 22
400 1 3.65939 7.23569 31.5486 21
573 2 1.1184 9.98617 26.3043 21
574 2 4.65846 6.36983 26.305 21
575 2 2.13387 6.80828 27.9167 21
576 2 3.74051 9.39007 28.092 20
577 2 0.908232 9.77141 29.5417 22
578 2 4.54174 6.55904 29.6294 20
579 2 1.56643 7.16119 31.4771 20
580 2 3.59001 9.19157 31.3534 21
41 1 1.26515 12.0814 0.0542735 20
42 1 4.43127 15.9016 -0.132052 22
43 1 1.50223 14.9789 1.41432 21
44 1 3.87851 13.2171 1.68537 22
45 1 0.845262 12.3264 3.55433 20
46 1 4.43939 15.8593 3.02238 20
47 1 1.90495 15.1828 4.7518 19
48 1 3.87216 13.0482 4.9582 20
221 2 0.849881 15.649 -0.260514 22
222 2 4.41971 12.0569 -0.00995434 21
223 2 1.85267 12.9694 1.82943 20
224 2 3.41434 15.3404 1.50562 23
225 2 0.78432 15.6397 3.06203 22
226 2 4.82487 12.2071 3.32322 23
227 2 1.88656 13.1835 5.09769 21
228 2 3.81588 15.0259 4.99575 21
49 1 1.18483 12.4599 6.78029 21
50 1 4.39856 16.1054 6.49837 23
51 1 2.03572 15.3729 8.15368 21
52 1 4.20111 13.3906 8.38731 21
53 1 1.24554 12.3128 9.99426 21
54 1 4.81812 15.9018 9.97597 20
55 1 2.20537 15.1459 11.4405 20
56 1 4.00124 12.9206 11.5368 21
229 2 1.18263 16.1629 6.54243 21
230 2 4.63064 12.5314 6.71954 19
231 2 1.96837 13.2927 8.41705 20
232 2 4.04539 15.4587 8.17204 19
233 2 1.21237 15.7801 9.86071 21
234 2 4.85677 12.1557 9.94456 22
235 2 1.80584 13.0404 11.6194 20
236 2 4.30113 15.073 11.7355 21
57 1 1.10169 12.0468 13.0463 21
58 1 4.82154 15.9364 13.2651 21
59 1 1.9492 14.6904 14.6899 21
60 1 4.04618 12.9123 14.9066 20
237 2 1.19514 15.7737 13.0504 20
238 2 4.78195 12.1621 13.2116 21
239 2 1.86659 12.7652 14.7632 18
240 2 3.95589 14.9645 14.9507 22
401 1 1.24982 12.1048 16.43 21
402 1 4.64632 15.7861 16.336 20
403 1 1.78812 14.9279 18.2104 20
404 1 3.87726 13.0772 18.3176 21
581 2 1.29829 15.7558 16.4654 19
582 2 4.4632 11.9043 16.502 21
583 2 1.67053 13.0193 18.2424 21
584 2 3.95128 14.9835 17.9633 20
405 1 0.988441 12.0925 19.7618 20
406 1 4.74268 15.801 19.7032 20
407 1 1.83282 14.9043 21.11 21
408 1 3.8849 12.9414 21.4025 20
409 1 0.891646 12.2325 22.8385 21
410 1 4.53255 15.9667 22.9496 20
411 1 1.67553 15.069 24.6676 21
412 1 3.61066 13.008 24.6681 22
585 2 0.918798 15.8544 19.693 21
586 2 4.76955 12.1462 19.798 23
587 2 1.67678 13.0083 21.3709 21
588 2 3.87513 14.7988 21.2972 20
589 2 1.22617 15.5397 22.9631 20
590 2 4.80179 12.5101 23.1212 22
591 2 1.5545 12.8784 24.7312 21
592 2 3.75145 15.1133 24.5597 22
413 1 0.963866 11.952 26.5331 19
414 1 4.51667 15.831 26.193 20
415 1 1.82437 15.0033 27.7184 20
416 1 3.75065 13.0364 27.8476 22
417 1 0.984693 11.9668 29.6333 22
418 1 4.41108 15.7964 29.5382 21
419 1 1.60622 14.8262 31.0776 23
420 1 3.82731 13.0334 31.2645 21
593 2 0.848004 15.9495 26.3179 21
594 2 4.56619 12.126 26.1336 20
595 2 1.85382 12.9676 27.9967 21
596 2 3.90143 14.9648 27.8165 22
597 2 1.08652 15.3947 29.4238 21
598 2 4.48703 12.01 29.5632 21
599 2 1.78306 12.8612 31.1058 20
600 2 3.7936 15.045 31.159 22
721 1 0.932733 17.6673 0.0198617 22
722 1 4.63257 21.222 -0.453771 21
723 1 1.9843 20.6066 1.53933 20
724 1 3.85961 18.4993 1.43153 21
725 1 1.01367 17.9607 3.21573 22
726 1 4.78384 21.3934 3.16207 21
727 1 1.96491 20.5872 4.77433 20
728 1 4.15116 18.7386 4.88578 20
901 2 1.14821 21.1918 -0.116637 20
902 2 4.54341 17.8259 -0.338555 21
903 2 1.73388 18.6565 1.64576 21
904 2 4.07018 20.7025 1.26619 20
905 2 1.17647 21.3349 3.22716 20
906 2 4.73671 17.7554 3.16356 21
907 2 2.05178 18.5499 4.75167 22
908 2 3.97619 20.6483 4.70648 20
729 1 1.2286 18.0346 6.40198 20
730 1 4.6032 21.6377 6.26831 19
731 1 1.91367 20.7079 8.20458 21
732 1 4.06572 18.685 8.308 21
733 1 1.08718 17.799 9.82897 21
734 1 4.58833 21.6438 9.78058 22
735 1 1.93901 20.9043 11.4634 20
736 1 4.06262 18.9691 11.2878 23
909 2 1.18976 21.3006 6.50807 21
910 2 4.66121 17.9761 6.70739 21
911 2 2.06131 18.5315 7.96388 22
912 2 3.87666 20.8147 8.18873 21
913 2 1.07993 21.579 9.6858 20
914 2 4.79666 17.8819 9.85498 20
915 2 2.01794 18.7059 11.1876 20
916 2 4.02111 20.8966 11.4096 22
737 1 1.31532 18.0244 13.0514 20
738 1 4.72352 21.4755 12.9771 20
739 1 1.81136 20.717 14.7974 20
740 1 3.77828 18.5576 14.4743 19
917 2 1.21947 21.722 13.1772 22
918 2 4.87348 17.948 12.7072 20
919 2 1.74035 18.704 14.5941 20
920 2 3.92384 20.5522 14.7034 22
1081 1 1.22733 17.9399 16.4939 19
1082 1 4.72575 21.4543 16.1375 21
1083 1 1.9619 20.5367 18.089 21
1084 1 4.083 18.6367 17.9052 20
1261 2 1.15278 21.5502 16.4754 22
1262 2 4.46645 17.8955 16.1332 20
1263 2 2.03654 18.5837 18.0861 19
1264 2 4.00276 20.6305 17.9654 20
1085 1 0.932202 17.7901 19.6008 20
1086 1 4.49971 21.5449 19.6074 21
1087 1 1.62438 20.6763 21.4717 19
1088 1 3.86422 18.4803 21.1108 19
1089 1 1.05099 17.7705 22.9496 22
1090 1 4.4488 21.2301 22.9135 21
1091 1 1.95189 20.5507 24.5885 24
1092 1 3.96454 18.7612 24.4784 22
1265 2 0.902398 21.1279 19.6951 21
1266 2 4.81811 17.8279 19.4007 21
1267 2 1.87266 18.6868 21.2783 21
1268 2 3.7751 20.5786 21.136 21
1269 2 0.839647 21.3838 23.031 21
1270 2 4.61424 17.8439 22.8129 20
1271 2 1.89103 18.5025 24.6513 21
1272 2 3.9637 20.6151 24.7365 19
1093 1 1.00154 18.0534 26.4194 20
1094 1 4.40182 21.4618 26.2767 21
1095 1 1.5916 20.6902 27.862 22
1096 1 3.69344 18.6092 27.8336 21
1097 1 0.910062 17.5666 29.3802 22
1098 1 4.49358 21.6267 29.5636 24
1099 1 1.68608 20.4906 31.0952 22
1100 1 3.59926 18.4663 31.1016 21
1273 2 0.897455 21.3872 26.1471 19
1274 2 4.3416 17.7618 26.1027 22
1275 2 1.54134 18.8148 27.9823 22
1276 2 3.65477 20.7028 27.9599 23
1277 2 1.01209 21.4769 29.5746 21
1278 2 4.23758 17.8873 29.4929 21
1279 2 1.69608 18.4128 31.0851 21
1280 2 3.66397 20.5994 30.9275 22
741 1 1.07781 23.1635 0.0609091 22
742 1 4.57869 27.0771 -0.156511 21
743 1 1.8427 26.0738 1.44109 21
744 1 4.07864 24.0655 1.67949 20
745 1 0.934442 23.4716 3.32822 20
746 1 4.43252 27.0763 3.05822 21
747 1 1.61374 26.4768 4.9683 20
748 1 3.64057 24.3925 5.03238 20
921 2 1.17482 27.0356 -0.171322 21
922 2 4.79616 23.1696 -0.200199 21
923 2 2.01585 23.9024 1.65051 21
924 2 3.83989 26.2211 1.38608 20
925 2 1.24622 26.9026 2.996 20
926 2 4.58081 23.4486 3.61576 20
927 2 1.62871 24.4579 4.85279 22
928 2 3.59084 26.3627 4.88086 20
749 1 0.903595 23.2896 6.4337 22
750 1 4.53338 27.1045 6.57609 21
751 1 1.62893 26.4146 8.37987 21
752 1 3.59444 24.2767 8.21979 22
753 1 1.04675 23.6372 9.99618 19
754 1 4.52332 26.9068 9.91862 22
755 1 1.79548 26.4161 11.6157 22
756 1 3.94467 24.3988 11.5315 21
929 2 1.05972 27.2201 6.69337 21
930 2 4.58068 23.7076 6.58642 20
931 2 1.62146 24.4488 7.99739 21
932 2 3.73364 26.3197 8.18271 21
933 2 0.804619 27.0566 10.151 22
934 2 4.52418 23.7566 9.92388 20
935 2 2.00474 24.4059 11.5201 22
936 2 3.70737 26.5352 11.6419 20
757 1 0.873233 23.6955 13.1232 19
758 1 4.53293 27.1335 13.3408 19
759 1 1.52241 26.2326 14.8792 21
760 1 3.61675 24.1625 14.7236 23
937 2 0.610975 27.0003 13.1733 22
938 2 4.52358 23.6009 13.1486 22
939 2 1.41679 24.2509 14.8675 21
940 2 3.48548 26.2021 14.8835 21
1101 1 0.958378 23.4706 16.5514 21
1102 1 4.44746 26.8746 16.5662 20
1103 1 1.62976 26.3646 18.1456 20
1104 1 3.95792 24.3004 18.111 19
1281 2 0.729688 27.0831 16.4537 20
1282 2 4.42609 23.682 16.4745 21
1283 2 1.73406 24.3072 18.1063 20
1284 2 3.91119 26.2451 18.2502 19
1105 1 0.7953 23.6876 19.6854 20
1106 1 4.45061 27.0871 19.8931 20
1107 1 1.61026 26.2149 21.6715 19
1108 1 3.78067 24.3706 21.4489 22
1109 1 0.797952 23.6042 23.1637 21
1110 1 4.37337 27.081 23.3177 19
1111 1 1.85937 26.2181 24.7714 19
1112 1 3.76184 24.1108 24.5464 20
1285 2 0.735995 26.7983 19.9582 19
1286 2 4.53091 23.49 19.8669 20
1287 2 1.66105 23.9686 21.4066 19
1288 2 3.54757 26.5075 21.4863 21
1289 2 1.01212 27.1293 23.1969 21
1290 2 4.29985 23.222 22.9389 23
1291 2 1.65717 24.2118 24.7342 21
1292 2 3.89436 26.0727 24.9195 22
1113 1 1.00414 23.3832 26.3736 22
1114 1 4.39592 27.1837 26.4017 21
1115 1 1.9368 26.1938 27.9988 20
1116 1 3.95136 24.3589 27.8615 21
1117 1 0.947141 23.5747 29.6281 21
1118 1 4.88011 27.0381 29.6185 24
1119 1 1.8525 26.0188 31.1881 23
1120 1 3.94747 24.1846 31.2857 21
1293 2 0.905171 26.9839 26.4635 21
1294 2 4.71167 23.5868 26.1948 20
1295 2 1.91666 24.2583 28.1063 22
1296 2 3.82399 26.4419 28.0815 21
1297 2 1.06208 26.9 29.5892 20
1298 2 4.70959 23.7601 29.6199 22
1299 2 2.06663 23.9769 31.3288 23
1300 2 3.88964 26.1239 31.1353 21
761 1 1.05563 29.2535 0.0666556 22
762 1 4.83558 32.5456 -0.047045 21
763 1 2.03985 32.0645 1.51318 23
764 1 3.94233 29.9103 1.61041 22
765 1 1.16111 29.0148 2.96005 20
766 1 4.74672 32.8062 3.23894 19
767 1 1.88268 32.0401 4.91781 22
768 1 3.812 29.8725 4.89766 21
941 2 1.01149 32.7487 -0.21454 19
942 2 4.65307 29.0614 -0.0249314 21
943 2 2.00391 30.0498 1.59743 22
944 2 4.11678 32.0253 1.67228 22
945 2 1.01104 32.7784 3.13669 20
946 2 4.47869 28.9885 3.30272 20
947 2 1.62397 30.0003 4.79345 21
948 2 3.77329 31.8897 4.75289 20
769 1 0.982172 29.3828 6.53605 19
770 1 4.64538 32.8173 6.42097 21
771 1 1.7249 32.0389 8.03183 20
772 1 3.76242 29.84 8.35954 18
773 1 1.0087 29.0983 9.72079 19
774 1 4.39768 32.6132 9.64865 22
775 1 1.63253 32.0511 11.5587 20
776 1 3.44498 29.8472 11.3576 20
949 2 1.10133 32.8872 6.44745 21
950 2 4.32728 29.2122 6.58495 20
951 2 1.62281 30.1404 8.21666 23
952 2 3.70358 31.9727 7.91773 19
953 2 1.07406 32.7189 9.87097 21
954 2 4.41657 28.796 9.7045 20
955 2 1.52849 30.001 11.6895 19
956 2 3.55472 31.8891 11.5832 21
777 1 0.949147 29.1914 13.3251 22
778 1 4.22902 32.8031 13.2219 21
779 1 1.45473 31.9708 14.7769 21
780 1 3.52618 29.8791 14.6939 21
957 2 0.784842 32.9803 13.2514 23
958 2 4.41562 29.0604 12.9519 20
959 2 1.57918 29.8484 15.03 20
960 2 3.4974 31.7802 14.7372 22
1121 1 0.762329 29.1023 16.5284 21
1122 1 4.56132 32.4211 16.4222 20
1123 1 1.78492 31.7376 18.1538 24
1124 1 3.59337 29.8869 18.073 22
1301 2 0.908793 32.528 16.7011 23
1302 2 4.33627 29.3004 16.4126 22
1303 2 1.62306 29.6513 18.1397 20
1304 2 3.74409 31.9036 18.0755 22
1125 1 1.00932 28.9013 19.92 23
1126 1 4.40231 32.6015 19.7141 21
1127 1 1.58155 31.8115 21.4662 21
1128 1 3.69212 29.802 21.434 21
1129 1 0.852575 29.2275 23.253 22
1130 1 4.75941 32.4924 22.8781 22
1131 1 1.84101 32.0244 24.6543 23
1132 1 3.64169 29.9151 24.6324 21
1305 2 1.1592 32.531 19.823 22
1306 2 4.25164 29.1036 19.6453 20
1307 2 1.52602 29.9771 21.4623 23
1308 2 3.59243 31.8557 21.4375 22
1309 2 0.847163 32.6977 23.3211 21
1310 2 4.47608 29.0977 23.0159 21
1311 2 1.67593 29.9088 24.8141 21
1312 2 3.82849 31.9424 24.4708 21
1133 1 0.915742 28.8401 26.1973 23
1134 1 4.48176 32.4388 26.2379 20
1135 1 1.71866 31.8445 28.1309 21
1136 1 3.71997 29.9109 27.8736 21
1137 1 0.955 28.9044 29.5868 22
1138 1 4.34519 32.6417 29.5754 19
1139 1 2.04879 31.7978 31.2898 20
1140 1 3.77173 29.7395 31.4223 20
1313 2 1.09094 32.7742 26.4773 22
1314 2 4.67018 29.0369 26.3322 22
1315 2 1.64577 29.7584 27.8693 21
1316 2 3.60566 31.963 27.9499 21
1317 2 0.996602 32.4537 29.7189 19
1318 2 4.53902 29.0154 29.5577 21
1319 2 1.87361 29.6583 31.3313 22
1320 2 4.0667 31.8452 31.3458 22
61 1 6.51403 1.24507 -0.136178 21
62 1 10.1027 4.42899 0.149248 22
63 1 7.2643 3.8927 1.59803 21
64 1 9.28921 1.85088 1.74227 21
65 1 6.78743 0.982031 3.32328 22
66 1 10.3264 4.42927 3.15319 24
67 1 7.544 3.94459 4.7425 21
68 1 9.74707 1.86973 5.01449 22
241 2 6.88533 4.76235 -0.140063 19
242 2 10.3424 1.13393 0.322254 20
243 2 7.41724 1.93178 1.52594 22
244 2 9.31548 3.83788 1.72241 20
245 2 6.59358 4.80748 3.48027 19
246 2 10.0534 0.81669 3.3667 23
247 2 7.46001 1.91007 4.93592 21
248 2 9.44205 3.72822 4.59082 19
69 1 6.67712 1.0862 6.5655 20
70 1 10.2156 4.48382 6.5079 19
71 1 7.51201 3.83989 8.18242 21
72 1 9.42778 1.53934 8.31223 21
73 1 6.50579 1.07285 9.7569 21
74 1 10.3214 4.46745 9.9365 20
75 1 7.10806 3.83265 11.6465 20
76 1 9.42653 1.93643 11.5858 21
249 2 6.76449 4.67786 6.57965 21
250 2 10.1857 0.996626 6.61554 21
251 2 7.4989 1.67943 8.14115 20
252 2 9.62778 3.60034 8.06688 21
253 2 6.44721 4.57782 9.78341 22
254 2 9.96709 0.866373 9.94809 21
255 2 7.37612 1.82179 11.4963 20
256 2 9.42161 3.92241 11.5921 20
77 1 6.62593 1.08226 13.1758 21
78 1 10.3467 4.7175 13.0762 22
79 1 7.4127 3.8756 14.9328 20
80 1 9.52574 1.8425 14.9216 20
257 2 6.57862 4.53578 13.2587 22
258 2 9.96851 0.935556 13.3448 20
259 2 7.34254 1.90274 14.7369 21
260 2 9.6494 3.76521 14.7257 22
421 1 6.8125 0.928553 16.4205 21
422 1 10.1665 4.59818 16.4843 22
423 1 7.51199 3.74845 18.0939 21
424 1 9.46061 1.82979 18.2991 19
601 2 6.65951 4.71807 16.7073 20
602 2 10.1912 1.08735 16.4958 19
603 2 7.45187 1.82424 18.1874 22
604 2 9.4745 3.90978 18.204 20
425 1 6.4277 1.16768 19.8669 22
426 1 10.0793 4.73833 19.7422 21
427 1 7.29398 3.82367 21.274 21
428 1 9.26586 1.88191 21.6517 21
429 1 6.39202 0.904794 23.0525 22
430 1 10.2831 4.47332 22.8059 21
431 1 7.3358 3.91305 24.3012 22
432 1 9.23392 1.66723 24.6271 21
605 2 6.82155 4.53311 19.6272 20
606 2 10.0204 0.983713 19.9828 20
607 2 7.30639 1.50637 21.4761 21
608 2 9.22457 3.99362 21.292 20
609 2 6.32704 4.64211 22.8153 20
610 2 10.0823 0.901594 23.0177 21
611 2 7.13191 1.7569 24.5071 22
612 2 9.29454 3.88071 24.4517 21
433 1 6.56787 0.908499 26.2647 21
434 1 10.1233 4.62892 26.4633 23
435 1 7.33213 3.44004 27.9825 19
436 1 9.66184 1.86763 27.8831 20
437 1 6.56075 1.0128 29.4633 21
438 1 10.2706 4.49967 29.7525 20
439 1 7.84761 3.94788 31.1115 22
440 1 9.64249 1.45764 31.0899 23
613 2 6.78438 4.40134 26.2531 20
614 2 10.1209 0.762812 26.1465 22
615 2 7.56845 1.55909 27.7258 19
616 2 9.2753 3.87042 27.9625 23
617 2 6.67375 4.4302 29.495 21
618 2 10.2507 0.653893 29.347 21
619 2 7.53482 1.66887 31.0133 20
620 2 9.83889 3.4772 31.3059 21
81 1 6.641 6.8421 0.0227781 20
82 1 10.3065 10.1927 -0.312214 20
83 1 7.53842 9.5711 1.7437 20
84 1 9.5522 7.44581 1.4998 21
85 1 6.66563 6.7266 3.35392 20
86 1 10.0107 10.2345 3.24353 21
87 1 7.20802 9.55448 5.08574 22
88 1 9.46525 7.38304 4.66971 22
261 2 6.43234 9.98978 -0.0311723 20
262 2 10.0371 6.33934 0.0959205 23
263 2 7.48752 7.47102 1.73144 20
264 2 9.52721 9.49446 1.47551 20
265 2 6.50483 10.1658 3.11878 20
266 2 10.2181 6.71765 3.09447 21
267 2 7.14849 7.49223 5.05974 20
268 2 9.17949 9.54007 4.81268 22
89 1 6.40723 6.50771 6.63892 21
90 1 10.1736 10.1928 6.4058 21
91 1 7.44396 9.29271 7.99412 20
92 1 9.35921 7.1688 7.95026 22
93 1 6.70591 6.4692 9.84916 20
94 1 9.9933 10.1275 9.61992 23
95 1 7.51187 9.56148 11.2679 20
96 1 9.59444 7.49259 11.4754 23
269 2 6.54583 10.3938 6.68999 20
270 2 10.3683 6.72483 6.31967 20
271 2 7.51551 7.08423 8.11967 20
272 2 9.39259 9.22649 8.00315 20
273 2 6.58077 10.2662 9.52247 19
274 2 10.0232 6.53775 9.89308 19
275 2 7.55801 7.58561 11.4345 22
276 2 9.54608 9.50591 11.3918 18
97 1 6.80772 6.72493 13.01 19
98 1 9.99267 10.0946 13.0064 21
99 1 7.39323 9.51846 15.0387 19
100 1 9.33554 7.45568 14.6605 22
277 2 6.97466 10.3068 13.2046 22
278 2 10.4538 6.8009 13.2174 21
279 2 7.29917 7.51213 14.7266 21
280 2 9.38554 9.41305 14.8179 20
441 1 6.77425 6.58223 16.457 22
442 1 10.3181 10.1871 16.3389 23
443 1 7.48199 9.58618 18.0353 21
444 1 9.57488 7.55586 18.2311 20
621 2 6.48031 10.1613 16.5939 21
622 2 10.2613 6.70264 16.4154 21
623 2 7.42756 7.50504 18.1077 22
624 2 9.60269 9.40866 17.9888 20
445 1 6.39481 6.77958 19.6328 24
446 1 9.97279 10.2107 19.8903 23
447 1 7.23497 9.61627 21.4246 20
448 1 9.29639 7.29743 21.6094 20
449 1 6.42159 6.70033 23.083 21
450 1 10.2445 10.2214 23.1686 21
451 1 7.18784 9.08942 24.7837 22
452 1 9.32327 7.22891 24.7456 22
625 2 6.8315 10.1874 19.5934 19
626 2 10.1163 6.75337 19.9973 21
627 2 7.36382 7.63881 21.3513 23
628 2 9.40259 9.45046 21.603 21
629 2 6.6587 10.0644 23.1215 19
630 2 10.0909 6.50193 23.0797 21
631 2 7.41809 7.06124 24.817 22
632 2 9.25352 9.25664 24.6875 21
453 1 6.77175 6.33154 26.4441 21
454 1 10.1197 10.2808 26.1795 20
455 1 7.44398 9.1388 27.9244 22
456 1 9.61913 7.46066 27.8528 21
457 1 6.68339 6.42035 29.5868 21
458 1 10.1295 10.3457 29.4796 21
459 1 7.25449 9.49514 31.1232 21
460 1 9.46944 7.59117 31.4672 21
633 2 6.6416 10.149 26.2912 20
634 2 10.3257 6.60344 26.2617 19
635 2 7.44352 7.11855 27.979 22
636 2 9.41218 9.41759 27.9302 21
637 2 6.53196 10.1246 29.54 21
638 2 10.1193 6.66303 29.7302 21
639 2 7.52854 7.42835 31.2059 20
640 2 9.16387 9.45529 30.9712 20
101 1 6.40259 12.0575 -0.209942 22
102 1 10.005 15.9152 -0.0607127 22
103 1 7.35676 14.9984 1.62261 20
104 1 9.51306 12.9467 1.45526 22
105 1 6.68274 12.2044 3.10205 20
106 1 10.1469 15.5758 3.26929 19
107 1 7.27824 15.0809 4.90993 21
108 1 9.44343 13.0812 4.94347 20
281 2 6.54647 15.9869 -0.108283 22
282 2 10.0844 12.2797 -0.383397 20
283 2 7.45225 13.0771 1.22367 19
284 2 9.33566 15.012 1.64263 20
285 2 6.43378 15.6446 3.21381 21
286 2 10.2937 12.2447 3.12509 21
287 2 7.43531 13.1271 4.64113 21
288 2 9.57416 15.0478 5.03143 19
109 1 6.72956 12.5696 6.50973 20
110 1 10.3893 15.9661 6.34063 22
111 1 7.61198 15.1796 8.17259 22
112 1 9.68016 13.2761 8.15605 20
113 1 6.74098 12.1749 9.88502 22
114 1 10.4762 15.8463 9.6822 20
115 1 7.73397 15.1148 11.5175 22
116 1 9.70804 12.9323 11.3053 20
289 2 6.98376 15.9617 6.5951 20
290 2 10.2346 12.2775 6.60008 22
291 2 7.48641 13.0733 8.13456 21
292 2 9.61497 15.2575 8.13424 23
293 2 6.90011 15.8273 9.86549 20
294 2 10.2163 12.2731 9.64495 19
295 2 7.61184 13.1413 11.3903 21
296 2 9.79934 14.8905 11.4235 22
117 1 7.00622 12.2831 13.0699 19
118 1 10.3664 15.7772 13.0407 19
119 1 7.60442 15.1117 15.062 21
120 1 9.39086 13.0416 14.4945 24
297 2 6.95128 15.8568 13.1245 22
298 2 10.2473 12.1619 12.9346 21
299 2 7.48518 13.0614 14.7636 20
300 2 9.57241 15.3529 14.7609 21
461 1 6.44755 12.1995 16.1499 21
462 1 10.1695 15.9876 16.4244 20
463 1 7.48986 14.9718 17.9553 21
464 1 9.52215 13.0163 17.8613 24
641 2 6.68913 15.9329 16.4603 21
642 2 10.2876 12.1313 16.3163 20
643 2 7.36455 12.7657 17.8888 19
644 2 9.56115 14.9648 17.9403 21
465 1 6.7988 12.19 19.6858 21
466 1 10.2338 15.8895 19.5515 21
467 1 7.44664 15.093 21.1856 20
468 1 9.54783 12.9756 21.356 21
469 1 6.74406 12.0798 22.8584 24
470 1 10.2218 15.8124 22.8697 21
471 1 7.30873 14.8978 24.4172 22
472 1 9.41079 12.8363 24.6235 20
645 2 6.81633 15.8521 19.6153 20
646 2 10.2676 12.3741 19.6316 21
647 2 7.47444 13.0361 21.2146 22
648 2 9.59103 15.005 21.1544 20
649 2 6.61471 15.6436 22.7685 20
650 2 10.3223 12.163 23.0167 21
651 2 7.38272 12.9293 24.5211 22
652 2 9.46903 15.0595 24.5852 22
473 1 6.52094 12.0938 26.1637 22
474 1 10.1961 15.8728 26.0348 22
475 1 7.36367 14.9529 27.9135 22
476 1 9.21221 12.9497 27.7211 21
477 1 6.49138 12.3448 29.5229 20
478 1 10.0224 15.8197 29.3209 20
479 1 7.30817 15.2081 31.0779 19
480 1 9.14904 13.0053 30.9236 21
653 2 6.48238 15.8347 26.0756 19
654 2 10.3717 12.3439 26.1263 21
655 2 7.31055 13.004 27.7754 22
656 2 9.25724 14.9551 27.5659 21
657 2 6.36689 16.0188 29.4656 21
658 2 9.86383 12.2726 29.3264 22
659 2 7.27022 12.9972 31.0671 21
660 2 9.29947 15.1016 31.0156 21
781 1 6.46443 17.8348 -0.187465 21
782 1 9.94462 21.4939 -0.132152 20
783 1 7.50289 20.618 1.47847 21
784 1 9.51592 18.4801 1.46276 19
785 1 6.74345 17.7448 2.99337 19
786 1 10.1236 21.5571 3.21479 20
787 1 7.38361 20.8262 4.89275 21
788 1 9.4955 18.5679 4.81862 20
961 2 6.64113 21.3881 -0.228889 20
962 2 10.1112 17.8543 -0.212477 20
963 2 7.39725 18.4499 1.36243 21
964 2 9.59082 20.5163 1.5493 20
965 2 6.74637 21.7303 3.17811 23
966 2 9.93937 17.6479 3.17656 20
967 2 7.23442 18.9003 4.79069 21
968 2 9.29035 20.6913 4.85412 20
789 1 6.91526 18.0048 6.45277 20
790 1 10.1061 21.7553 6.47823 21
791 1 7.32199 20.744 8.07049 22
792 1 9.40754 18.5937 8.26223 21
793 1 6.82033 17.9477 9.79033 21
794 1 10.2788 21.3176 9.55227 20
795 1 7.52679 20.8712 11.618 21
796 1 9.61659 18.7018 11.6524 19
969 2 6.43929 21.6698 6.4927 22
970 2 10.2044 18.0893 6.61775 19
971 2 7.39907 18.6961 8.08284 19
972 2 9.32717 20.6866 7.98623 20
973 2 6.67221 21.6179 9.86876 23
974 2 10.4149 17.8145 9.82942 21
975 2 7.51177 18.9862 11.4345 22
976 2 9.58822 20.635 11.2804 19
797 1 6.86728 17.9421 12.9897 20
798 1 10.4117 21.4465 12.8768 20
799 1 7.53335 20.7154 14.8126 21
800 1 9.52265 18.5561 14.7297 20
977 2 6.5949 21.4042 13.1866 21
978 2 10.4598 17.9797 13.1813 20
979 2 7.55799 18.6402 14.7332 21
980 2 9.6376 20.7666 14.6875 20
1141 1 6.57311 17.9111 16.3675 20
1142 1 10.2835 21.4366 16.3806 21
1143 1 7.24741 20.8146 18.0774 19
1144 1 9.39626 18.7264 18.1413 21
1321 2 6.58672 21.8008 16.3778 23
1322 2 10.2559 18.0994 16.5311 20
1323 2 7.42127 18.7911 18.0081 22
1324 2 9.2281 20.7685 18.1032 20
1145 1 6.75363 17.9626 19.7224 20
1146 1 10.0497 21.5305 19.8787 21
1147 1 7.31101 20.634 21.4398 21
1148 1 9.33169 18.647 21.3006 21
1149 1 6.59775 17.876 23.0018 21
1150 1 10.0203 21.4209 23.1179 19
1151 1 7.33786 20.8067 24.6249 24
1152 1 9.62687 18.5086 24.3826 20
1325 2 6.45599 21.4304 19.8814 20
1326 2 10.2323 17.9933 19.7471 22
1327 2 7.38751 18.6134 21.4903 20
1328 2 9.38142 20.6935 21.5101 20
1329 2 6.5241 21.4339 23.0152 22
1330 2 10.3737 17.9115 22.6829 22
1331 2 7.47245 18.6265 24.6501 21
1332 2 9.31146 20.6049 24.7873 23
1153 1 6.99194 17.7264 26.1835 22
1154 1 10.4231 20.9599 26.4109 23
1155 1 7.33643 20.7492 27.9678 20
1156 1 9.4589 18.5658 27.7888 20
1157 1 6.37317 18.2486 29.5403 22
1158 1 10.3168 21.299 29.5247 22
1159 1 7.43833 20.5774 31.11 21
1160 1 9.5267 18.7609 31.1442 21
1333 2 6.66902 21.3097 26.3352 20
1334 2 10.0877 17.9841 26.1079 20
1335 2 7.32367 18.8058 27.9892 20
1336 2 9.40227 20.5114 28.0337 22
1337 2 6.55891 21.5381 29.5403 22
1338 2 10.1118 17.8449 29.4921 21
1339 2 7.3945 18.5667 31.1297 22
1340 2 9.54273 20.6553 31.3037 20
801 1 6.72475 23.4943 0.0367273 21
802 1 10.0799 27.0867 -0.0785704 18
803 1 7.44779 26.3691 1.60068 22
804 1 9.45893 24.2446 1.48681 20
805 1 6.47356 23.8324 3.41161 20
806 1 10.0884 27.024 3.33147 21
807 1 7.46001 26.6296 4.73743 21
808 1 9.2724 24.2719 4.8599 22
981 2 6.55345 27.1394 -0.00813505 20
982 2 10.1655 23.5555 -0.227623 22
983 2 7.36021 24.3706 1.6676 21
984 2 9.32136 26.3049 1.61509 20
985 2 6.61836 27.278 3.06677 21
986 2 10.2498 23.5549 3.15799 22
987 2 7.34588 24.6575 4.98172 22
988 2 9.549 26.2317 4.92718 22
809 1 6.46332 23.6423 6.58305 22
810 1 10.2106 26.8082 6.66662 23
811 1 7.38076 26.375 8.06546 20
812 1 9.39 24.2705 8.23694 21
813 1 6.51278 23.7066 9.87371 21
814 1 10.1065 27.0148 10.0907 21
815 1 7.24323 26.2115 11.6545 22
816 1 9.27822 24.0138 11.2883 21
989 2 6.51151 27.2837 6.49356 20
990 2 10.1677 23.6208 6.42127 22
991 2 7.29298 24.1889 8.34133 20
992 2 9.45006 26.2133 8.39992 19
993 2 6.8362 27.2005 9.7229 22
994 2 10.1491 23.3353 9.69033 22
995 2 7.43029 24.3122 11.467 21
996 2 9.30048 26.1627 11.6423 20
817 1 6.4326 23.3778 13.1497 23
818 1 10.3445 26.8693 13.2179 23
819 1 7.37011 26.0657 14.7973 20
820 1 9.28805 23.9714 14.7597 21
997 2 6.49484 26.9054 13.266 23
998 2 10.2454 23.5373 13.0585 20
999 2 7.25709 24.1714 14.8003 20
1000 2 9.32887 26.1961 14.818 20
1161 1 6.66905 23.8324 16.5376 21
1162 1 9.95711 27.2007 16.3966 21
1163 1 7.27305 26.368 18.2602 20
1164 1 9.21307 24.0735 18.0355 22
1341 2 6.42285 27.0062 16.3922 20
1342 2 10.1556 23.4817 16.4092 21
1343 2 7.34844 24.3842 18.4391 20
1344 2 9.16203 26.3328 18.0035 20
1165 1 6.72274 23.5803 19.9861 20
1166 1 10.0829 27.1909 19.7468 22
1167 1 7.27383 26.2154 21.5824 21
1168 1 9.3865 24.3515 21.3016 20
1169 1 6.50177 23.4432 22.8781 20
1170 1 10.0234 27.0963 23.1385 22
1171 1 7.40541 26.6715 24.7616 23
1172 1 9.30344 24.2824 24.769 23
1345 2 6.59568 27.0505 19.9558 18
1346 2 10.0738 23.4792 19.6547 19
1347 2 7.51655 24.2847 21.4053 20
1348 2 9.43311 26.4227 21.3999 20
1349 2 6.56595 27.1453 23.0675 21
1350 2 10.1843 23.7044 23.0074 21
1351 2 7.35044 24.5206 24.6244 23
1352 2 9.30089 26.2983 24.8162 22
1173 1 6.65279 23.2151 26.2409 21
1174 1 10.3227 27.0271 26.3211 20
1175 1 7.52692 26.1537 27.7115 22
1176 1 9.69731 24.087 27.7941 19
1177 1 6.72469 23.6916 29.4116 22
1178 1 10.3053 27.0755 29.6418 21
1179 1 7.44811 26.3562 31.36 20
1180 1 9.49572 24.3768 31.0101 20
1353 2 6.53298 27.1467 26.4726 20
1354 2 10.1451 23.1054 26.1465 22
1355 2 7.72947 24.132 27.7715 22
1356 2 9.62137 26.1931 28.0044 21
1357 2 6.98014 26.9763 29.4889 23
1358 2 10.222 23.1994 29.6525 21
1359 2 7.27238 24.2703 31.1939 22
1360 2 9.42109 26.4021 31.0861 20
821 1 6.58833 29.0624 -0.133192 21
822 1 10.1565 32.5447 0.0320445 21
823 1 7.27552 31.919 1.6437 20
824 1 9.34802 29.6665 1.82916 21
825 1 6.47509 29.1164 3.39231 21
826 1 10.1355 32.5587 3.30809 22
827 1 7.60524 31.826 4.8614 23
828 1 9.47742 29.7732 5.18404 21
1001 2 6.94847 32.9809 -0.0977592 22
1002 2 10.1607 28.9418 0.0923296 21
1003 2 7.00165 29.9008 1.62506 22
1004 2 9.39944 31.6464 1.70293 21
1005 2 6.76645 32.7211 3.45337 20
1006 2 10.1073 29.0708 3.43148 22
1007 2 7.38436 29.8234 5.02735 21
1008 2 9.72035 31.7989 4.91933 20
829 1 6.70235 29.2189 6.74309 19
830 1 10.1634 32.6063 6.65398 20
831 1 7.32516 31.9314 8.26802 21
832 1 9.47079 29.8163 8.42252 21
833 1 6.37071 29.4671 9.70928 21
834 1 10.3617 32.5166 9.92655 21
835 1 7.03738 31.9584 11.4883 20
836 1 9.17333 29.7449 11.66 21
1009 2 6.55148 32.7328 6.51754 21