ITEM: TIMESTEP
340000
ITEM: NUMBER OF ATOMS
500
ITEM: BOX BOUNDS pp pp pp
-3.0000000000000000e+01 3.0000000000000000e+01
-3.0000000000000000e+01 3.0000000000000000e+01
-3.0000000000000000e+01 3.0000000000000000e+01
ITEM: ATOMS id type x y z 
1 1 -2.92078 2.02518 -5.36833 
2 1 7.57352 -3.74439 2.73273 
3 1 -0.822856 2.00355 11.4875 
4 1 5.99116 -0.892343 2.79759 
5 1 -6.94814 1.57097 1.08319 
6 1 -1.05721 -3.81183 -6.6148 
7 1 1.92714 -0.949696 7.76969 
8 1 3.96197 -1.78589 -3.98054 
9 1 -8.79326 1.44565 -1.57673 
10 1 0.980335 1.80293 -9.98375 
11 1 6.9424 -7.66389 -4.7985 
12 1 5.74403 2.30317 6.55149 
13 1 2.13466 6.64477 -4.91854 
14 1 0.899156 4.1571 6.2575 
15 1 1.43805 3.98734 9.56636 
16 1 -8.36413 -1.18133 0.807816 
17 1 -10.8569 -1.95249 2.27948 
18 1 9.15688 0.19793 -2.26899 
19 1 4.80944 -0.319383 8.47453 
20 1 -6.82064 -3.98212 2.42718 
21 1 -3.12282 -5.52758 -8.85804 
22 1 4.80227 1.2991 -5.14301 
23 1 7.25071 -1.18784 -5.01686 
24 1 8.45251 -6.09616 0.56707 
25 1 -2.43535 8.9142 3.22748 
26 1 3.94389 0.425061 5.13664 
27 1 0.452767 7.70914 2.27311 
28 1 -0.307505 1.70297 -3.93946 
29 1 2.3588 -6.89652 -8.4297 
30 1 -3.48308 3.42412 9.51909 
31 1 8.52062 -3.53092 -0.712607 
32 1 -7.28835 7.91767 3.93346 
33 1 -3.78897 3.42162 3.82722 
34 1 4.18695 5.36547 -6.76493 
35 1 6.0053 5.49611 -1.42025 
36 1 -2.74671 9.95867 -4.78298 
37 1 2.58478 -4.29852 -2.67062 
38 1 -4.72399 4.62751 -5.29149 
39 1 -1.60404 3.58213 -1.21342 
40 1 -4.4704 9.23897 -1.89171 
41 1 0.624936 7.12126 -2.24962 
42 1 -11.9423 3.48358 3.21589 
43 1 1.49813 7.05802 7.74018 
44 1 -5.53612 -0.491752 -9.11428 
45 1 -6.51219 -6.31634 4.11049 
46 1 -1.50185 2.58268 1.69415 
47 1 -2.09798 -0.722036 4.09985 
48 1 -5.3247 -1.69335 -3.33552 
49 1 4.19616 -7.46408 -1.88709 
50 1 -9.74946 0.966631 2.67989 
51 1 -9.6041 -1.87717 -4.66287 
52 1 -0.534596 -8.57488 6.03103 
53 1 6.69846 3.80049 -6.03248 
54 1 -3.98908 -2.59261 3.01642 
55 1 -5.88239 -3.55441 -8.0032 
56 1 1.86607 4.73736 -8.93934 
57 1 -0.935013 4.8878 3.70173 
58 1 -1.36648 2.1044 5.40168 
59 1 -4.16519 0.660718 2.38387 
60 1 1.30478 -6.82932 -1.91048 
61 1 -0.635064 10.4143 -1.93624 
62 1 -12.0359 0.40918 4.83876 
63 1 1.42385 9.23189 4.87024 
64 1 3.48476 -2.46628 10.2621 
65 1 1.76089 -9.45171 -3.3096 
66 1 9.73001 0.446231 -5.04313 
67 1 -4.99712 -6.38062 0.79018 
68 1 -2.4585 -6.02697 2.66936 
69 1 6.42751 -2.84677 8.03726 
70 1 3.47887 -5.45824 5.74756 
71 1 5.21762 8.41989 0.265514 
72 1 -8.05371 -6.71924 1.51557 
73 1 -3.149 -8.98382 1.62313 
74 1 -2.58623 -3.86604 0.928739 
75 1 4.26505 -3.6106 3.03813 
76 1 -4.77659 -4.8188 -2.75679 
77 1 2.11809 3.3447 -5.22575 
78 1 3.15423 -4.53948 0.226793 
79 1 -4.28357 -2.11487 6.2743 
80 1 -10.2656 0.988882 7.43494 
81 1 2.30513 -8.99345 0.0114124 
82 1 -1.88938 -3.49049 4.74065 
83 1 2.33952 1.93779 7.13356 
84 1 -9.36359 -1.16045 4.50731 
85 1 -4.66478 8.04539 1.89582 
86 1 -9.79748 6.37473 4.2188 
87 1 1.27113 2.17842 3.67898 
88 1 -3.81338 6.43969 7.74396 
89 1 -6.88672 -2.19574 -5.88565 
90 1 2.50154 -0.730884 2.45634 
91 1 -5.87625 1.48812 -4.52808 
92 1 -3.50187 -3.17334 -4.99237 
93 1 8.64061 -2.62768 5.60523 
94 1 -4.17255 2.64665 0.19895 
95 1 -2.43799 -3.47018 8.20484 
96 1 -2.78189 -2.31429 -8.68358 
97 1 -10.7492 -1.27661 -1.24087 
98 1 -3.73058 -8.30328 -1.77517 
99 1 -1.92814 -2.35797 -2.13712 
100 1 4.35184 1.93817 2.53583 
101 1 -6.47187 4.97957 5.32634 
102 1 3.93748 4.76049 7.94593 
103 1 -4.5411 6.34311 -0.922481 
104 1 1.12749 -9.26116 -6.41431 
105 1 -3.62666 11.1032 0.470008 
106 1 4.22028 4.34017 -3.63604 
107 1 -8.89185 1.2547 -4.96679 
108 1 -9.30212 4.04178 2.35192 
109 1 -3.86644 -8.21792 -6.49178 
110 1 5.12138 -8.17612 4.55928 
111 1 -7.45788 3.7741 -3.26507 
112 1 -4.04777 0.66316 8.36643 
113 1 2.6393 1.03051 -2.29944 
114 1 -7.89746 2.44455 7.20112 
115 1 1.7916 -5.84003 -5.45729 
116 1 0.322467 -3.74811 6.75276 
117 1 1.06942 -6.75388 8.62653 
118 1 3.79781 -8.2742 -5.15024 
119 1 8.91936 4.0332 -1.17108 
120 1 -6.72858 2.49552 3.94931 
121 1 3.66531 -0.449154 -8.78386 
122 1 0.0810087 5.48312 0.602127 
123 1 6.1764 -4.98662 5.43826 
124 1 -6.31342 -7.79279 -3.80434 
125 1 -6.77236 -0.939305 3.52834 
126 1 7.9164 0.206566 7.52847 
127 1 9.88152 6.35535 -2.11488 
128 1 -0.337747 3.13022 -7.15758 
129 1 -0.46513 6.12656 -7.42359 
130 1 1.9107 9.20059 -0.233947 
131 1 3.6487 2.4067 -7.78007 
132 1 0.255608 -8.89881 2.55358 
133 1 4.00902 3.44552 -0.3083 
134 1 7.09959 -7.30093 -1.63714 
135 1 -0.669881 -8.71228 -0.863085 
136 1 -6.02118 2.39348 -7.18156 
137 1 2.38595 4.83105 2.55594 
138 1 11.0082 -1.35457 -0.479561 
139 1 -0.966079 4.72968 -4.35456 
140 1 -5.18754 7.82553 -4.05234 
141 1 4.66843 -9.09694 -7.47491 
142 1 0.660244 -6.11381 1.10373 
143 1 -6.83331 -3.36029 5.17078 
144 1 -1.26056 -8.86406 -4.04463 
145 1 5.05655 -5.70329 -7.27316 
146 1 2.76311 6.02132 -0.90461 
147 1 3.02808 -6.83646 2.53421 
148 1 5.92095 -0.80298 -2.10846 
149 1 -5.84535 -3.19564 -0.144064 
150 1 -5.21013 -5.77816 -5.92202 
151 1 0.0371104 -4.08691 9.72716 
152 1 -0.75915 1.60509 8.52137 
153 1 5.4368 -2.37194 -7.30925 
154 1 -7.78238 4.14359 -0.378659 
155 1 7.01568 8.19597 -2.5732 
156 1 6.76141 2.57614 -2.73178 
157 1 -0.451091 -0.420514 2.10097 
158 1 -2.15989 0.850642 -8.38274 
159 1 -10.7005 3.88498 5.72332 
160 1 3.09318 -4.37376 8.34649 
161 1 7.19376 2.01235 3.93755 
162 1 -7.7294 -0.0363431 -7.40167 
163 1 10.2461 -3.35133 2.18757 
164 1 -1.95687 -5.71597 -0.859997 
165 1 6.67814 5.46987 6.26668 
166 1 1.98986 -8.26908 5.53744 
167 1 2.06171 1.4213 0.823908 
168 1 3.19905 -2.60611 5.377 
169 1 7.01398 1.02981 0.11799 
170 1 10.7388 5.06716 1.00963 
171 1 5.72867 -2.27607 0.380195 
172 1 8.64787 5.20216 3.70881 
173 1 -1.06658 -6.73399 -6.5865 
174 1 3.95317 3.81358 5.01272 
175 1 -3.82713 3.33912 -3.02273 
176 1 -3.37165 7.23295 -6.69069 
177 1 -1.56668 -0.934384 7.05089 
178 1 -0.115712 -4.2141 -3.87835 
179 1 -6.334 -8.89866 -0.493784 
180 1 7.12815 3.68584 1.2181 
181 1 -3.71813 6.29911 4.87297 
182 1 -6.04815 4.86785 1.8673 
183 1 7.54725 5.54454 -4.01166 
184 1 1.61649 0.788864 10.3343 
185 1 -5.89822 0.0304937 -1.10575 
186 1 0.510935 -1.15853 -8.64941 
187 1 -1.29609 4.89196 7.60625 
188 1 5.55763 -4.19873 -1.8142 
189 1 3.44925 8.58412 2.61303 
190 1 5.71195 -6.23776 1.85904 
191 1 -2.6457 5.75378 1.45981 
192 1 -3.41447 -0.92621 0.364648 
193 1 5.15189 -5.19951 -4.34018 
194 1 3.01363 -1.67003 -0.767815 
195 1 4.12553 -7.72496 7.59193 
196 1 1.5055 0.467932 -5.76187 
197 1 0.969522 -1.35493 -3.18427 
198 1 -4.80984 3.38896 6.5954 
199 1 10.7174 2.61891 3.26969 
200 1 -0.774028 8.18107 -5.01973 
201 1 0.546109 -0.863479 5.11398 
202 1 9.73023 3.58946 -4.17546 
203 1 -1.63194 -0.875513 10.1924 
204 1 -4.95166 -5.49396 6.93385 
205 1 -6.79407 9.63876 0.489242 
206 1 6.47508 7.64488 3.60435 
207 1 -9.79199 -4.68353 3.68251 
208 1 8.55505 -0.626617 1.92056 
209 1 -7.18997 -5.87447 -1.55018 
210 1 9.16798 3.19014 6.49067 
211 1 8.92554 -5.71271 -3.21577 
212 1 1.33277 3.59476 -2.05629 
213 1 5.01578 5.72858 1.9662 
214 1 -8.1509 -2.62576 -2.39052 
215 1 -2.40176 6.56302 -2.69162 
216 1 1.89504 8.01183 -7.55986 
217 1 -4.21403 -0.534318 -6.60894 
218 1 2.88728 -3.50267 -8.70745 
219 1 -2.64515 -6.47411 -4.31967 
220 1 -0.316173 0.0171237 -0.708874 
221 1 0.37602 -6.22917 4.32918 
222 1 9.25875 -2.6401 -3.27666 
223 1 -11.0591 2.16396 0.196937 
224 1 -3.18998 4.28443 -8.21709 
225 1 -7.56604 -4.80242 -4.65474 
226 1 9.48425 0.227371 4.33665 
227 1 0.448926 -3.01686 -0.433353 
228 1 0.00506249 -4.43654 -9.20596 
229 1 -8.29278 7.24255 1.32408 
230 1 -7.03072 -0.598831 7.23259 
231 1 -1.37425 -1.03495 -5.17298 
232 1 7.78045 6.74923 0.568644 
233 1 10.0953 1.70007 0.678831 
234 1 -1.43561 -6.10503 6.92834 
235 1 6.92069 0.728757 -7.33047 
236 1 5.13325 7.29878 -5.32729 
237 1 3.92557 6.85539 5.37698 
238 1 3.84486 8.42566 -2.61921 
239 1 10.9805 2.46958 -1.87947 
240 1 0.472317 -3.39601 2.69857 
241 1 -4.67966 0.596989 5.39036 
242 1 7.74711 -4.25713 -5.5984 
243 1 1.68314 -2.3388 -6.1886 
244 1 -0.828078 7.27135 5.65047 
245 1 -3.16044 0.672953 -2.3871 
246 1 -1.91819 8.85206 -0.103802 
247 1 -3.54893 -7.46061 4.90145 
248 1 5.51586 -8.80442 1.04441 
249 1 -9.57476 -4.03945 0.247055 
250 1 -7.65373 7.01203 -1.77388 
251 2 -10.4718 -0.0629403 5.79413 
252 2 10.0136 4.40501 2.60956 
253 2 2.49816 -3.83908 6.59423 
254 2 -2.54569 -2.29678 -6.45407 
255 2 -11.038 2.26014 2.04322 
256 2 -2.08725 -7.62565 5.92923 
257 2 1.1921 0.937227 8.32983 
258 2 7.59037 0.189168 3.39042 
259 2 -1.38123 -3.78802 -0.745745 
260 2 -2.42156 6.88646 6.56906 
261 2 -2.91756 5.23429 3.49624 
262 2 3.83032 -0.722006 -2.25692 
263 2 6.72574 -5.90677 -5.34016 
264 2 -3.62385 -0.532701 -8.6541 
265 2 4.20402 -7.40336 -8.23994 
266 2 -0.612828 -2.33698 -3.78619 
267 2 -2.99954 -5.94713 0.821118 
268 2 -3.80942 7.78885 3.62076 
269 2 10.1036 -1.5632 1.22603 
270 2 4.2773 -3.08405 -0.673507 
271 2 -0.0690815 1.30661 0.791959 
272 2 6.69336 7.66507 -0.735326 
273 2 0.839806 8.15962 6.33927 
274 2 7.23524 3.70578 2.97715 
275 2 3.49402 7.2981 -6.45156 
276 2 5.30165 -0.431004 -7.68378 
277 2 -6.31787 1.02194 -8.54225 
278 2 0.702576 -7.60918 7.12859 
279 2 -8.31584 2.4217 2.56812 
280 2 5.58529 -8.56022 -5.7994 
281 2 -1.80637 -8.99494 -2.20404 
282 2 5.6756 -0.72503 -4.14841 
283 2 0.534362 5.33175 8.2738 
284 2 4.60839 -3.14511 8.67244 
285 2 -6.35754 -6.07928 2.157 
286 2 2.5274 -2.62732 3.37806 
287 2 -1.27717 -9.08507 1.20501 
288 2 0.452205 2.01878 -5.61239 
289 2 1.35738 -5.62028 -3.51576 
290 2 -9.51212 -5.30124 1.75138 
291 2 -4.56388 -8.30203 0.286704 
292 2 -6.6375 -5.95889 -3.49423 
293 2 -5.15329 10.1286 -0.35136 
294 2 3.06308 1.7768 -5.96429 
295 2 9.33267 5.79568 -0.202306 
296 2 3.54693 4.19403 -8.11942 
297 2 -3.22759 2.41456 -1.45042 
298 2 -5.63794 3.43387 -3.98278 
299 2 8.36288 2.5945 0.14991 
300 2 -2.18252 10.7586 -0.835165 
301 2 -7.81038 6.22352 4.80695 
302 2 0.626159 5.74183 2.57499 
303 2 0.312022 8.87063 -1.34271 
304 2 2.47299 7.20433 -3.13567 
305 2 -3.09024 4.93856 8.53994 
306 2 -1.20486 0.16186 5.58394 
307 2 2.07658 -3.69843 9.88309 
308 2 4.6103 -3.9998 -7.84948 
309 2 0.349956 -9.39881 -4.70104 
310 2 0.894525 -4.06239 -5.78779 
311 2 -2.27946 -0.799153 -1.07695 
312 2 -1.50547 4.24098 0.688584 
313 2 -8.3385 -4.42305 -1.55914 
314 2 9.08342 -4.18942 -4.22219 
315 2 5.12129 2.19663 4.54578 
316 2 -0.812963 -2.79214 -8.93574 
317 2 2.47257 -1.84704 -8.03524 
318 2 2.44201 2.75463 -3.37625 
319 2 -3.9353 -6.51315 -7.47174 
320 2 3.6379 -5.8934 -5.56717 
321 2 8.09263 0.47676 -5.97629 
322 2 -5.86957 -2.66195 3.4111 
323 2 1.83082 -4.98592 -9.14796 
324 2 1.64229 -2.84706 -1.9074 
325 2 3.16978 4.9271 -5.16449 
326 2 0.989393 -7.29113 -6.83178 
327 2 -0.394331 0.540037 -9.16309 
328 2 -0.482959 5.26482 5.4298 
329 2 -7.51028 -7.50892 -0.0672914 
330 2 -5.83779 0.743092 3.51376 
331 2 -5.60965 4.14643 3.62631 
332 2 -7.9593 -4.9039 4.21597 
333 2 -2.71901 -3.98822 3.04091 
334 2 -10.75 0.70455 -0.928705 
335 2 3.84077 -8.71638 5.92946 
336 2 7.29936 4.4347 -2.21953 
337 2 0.212687 -1.0737 -6.49164 
338 2 3.95033 5.31221 3.74079 
339 2 3.00801 8.32271 4.4087 
340 2 -0.100666 0.0944738 10.6345 
341 2 -10.4046 4.6892 3.92561 
342 2 1.00619 0.235678 3.62525 
343 2 -4.93481 -1.70652 -5.17017 
344 2 2.2184 -1.08665 -4.68465 
345 2 11.1401 3.33551 0.0108143 
346 2 -10.1548 -2.85039 3.85409 
347 2 -4.6259 6.5113 -5.17638 
348 2 2.49101 0.927925 -9.06785 
349 2 -9.33629 2.92174 -0.297958 
350 2 4.69017 -3.83546 4.93987 
351 2 0.953569 5.39894 -1.14329 
352 2 8.05751 -7.45624 -3.30197 
353 2 1.19176 -8.97606 -1.65293 
354 2 -7.5419 8.14705 -0.275174 
355 2 -0.414749 -6.23013 2.65252 
356 2 1.85311 -8.10156 1.68404 
357 2 3.14064 6.29338 7.06353 
358 2 -1.16114 9.74935 -3.68284 
359 2 -2.43848 -2.60532 6.47833 
360 2 -5.26314 -6.30135 5.35085 
361 2 -0.794514 2.81451 3.53279 
362 2 -3.97154 -1.18221 4.61874 
363 2 1.17314 6.5118 -8.5903 
364 2 2.63983 -0.380682 0.489564 
365 2 7.0125 0.935861 -1.87206 
366 2 3.28366 -0.710427 9.49377 
367 2 -6.3402 -1.87208 -1.67958 
368 2 6.25716 5.26437 0.464672 
369 2 5.99755 6.8236 5.2568 
370 2 6.83889 -2.74402 -1.30709 
371 2 -7.57753 -2.92814 1.05968 
372 2 0.794756 2.60408 10.7715 
373 2 -2.11692 0.590458 -4.32388 
374 2 -5.16405 0.405264 -2.81848 
375 2 6.64064 -0.796977 8.36146 
376 2 2.52347 2.77739 2.34581 
377 2 0.438034 3.38264 -9.10348 
378 2 5.9843 -2.78702 2.30599 
379 2 2.56133 3.52134 8.21406 
380 2 6.8402 -5.54518 3.44758 
381 2 1.33564 -4.32114 1.22703 
382 2 -3.46872 2.40178 1.98698 
383 2 -9.79799 -1.67361 -2.82737 
384 2 -5.70857 7.42192 -2.07191 
385 2 -7.33326 1.52032 -5.91125 
386 2 -4.88359 0.527869 0.615206 
387 2 -3.1119 -5.23417 7.72039 
388 2 5.07276 7.65499 2.19435 
389 2 -6.50771 -4.38685 -6.28209 
390 2 9.993 0.99646 2.51851 
391 2 -7.89598 5.24905 1.34823 
392 2 8.81993 -4.2629 1.24088 
393 2 -5.55034 -3.73562 6.49598 
394 2 -4.11737 -4.86012 -4.73468 
395 2 -0.773211 6.56478 -3.67097 
396 2 -6.55579 8.5007 2.19699 
397 2 3.41639 5.30388 0.795331 
398 2 -0.175103 -5.16745 8.28247 
399 2 -11.9116 2.45809 4.89634 
400 2 -2.98223 7.87601 -1.40554 
401 2 -1.90704 2.44404 10.1212 
402 2 -8.61977 -0.648048 -5.77775 
403 2 3.69077 8.7458 -0.766087 
404 2 -4.91646 5.58461 6.34676 
405 2 0.267481 -1.93517 7.05089 
406 2 2.45317 2.44442 -0.847179 
407 2 0.618321 0.591782 -2.29149 
408 2 -4.15789 -3.84811 -8.81099 
409 2 0.731919 7.71511 -6.08771 
410 2 -3.02177 -6.5657 -2.41465 
411 2 -2.71158 3.7745 -4.57564 
412 2 2.66243 -0.800404 5.78959 
413 2 2.24934 2.97757 5.19197 
414 2 10.409 4.36684 -2.52856 
415 2 2.45941 -6.63802 4.44768 
416 2 5.51949 2.9533 -4.10679 
417 2 5.33174 4.16113 6.88157 
418 2 -8.72633 2.30526 -3.36662 
419 2 -0.577012 3.3132 -2.78571 
420 2 -4.54579 2.47521 8.22408 
421 2 -8.01875 -2.90121 -4.43911 
422 2 -0.159938 -6.72679 -0.696983 
423 2 -1.50192 7.32529 1.19681 
424 2 -9.66624 2.86921 6.87853 
425 2 -8.47703 -0.51012 2.64354 
426 2 -2.28435 -7.94641 -5.43652 
427 2 4.25496 1.03291 7.02874 
428 2 -3.29045 5.02895 -1.84225 
429 2 -2.37458 6.02047 -7.75028 
430 2 5.99244 5.56424 -5.41666 
431 2 2.92453 -9.45797 -6.78531 
432 2 8.70651 -0.817194 5.98667 
433 2 7.74263 2.0415 6.75025 
434 2 -2.34524 8.5677 -5.99281 
435 2 -4.58393 1.24722 -5.99748 
436 2 -1.34619 -5.17775 -8.01045 
437 2 -3.65169 -3.07857 -2.94632 
438 2 -3.39277 9.60744 1.64222 
439 2 -4.31188 9.50658 -3.85563 
440 2 -7.81788 5.12996 -1.99944 
441 2 -6.80226 2.94478 5.76475 
442 2 -0.0102186 -1.58299 0.673294 
443 2 -0.175084 4.74473 -6.11813 
444 2 6.88753 -2.71715 -6.28118 
445 2 -4.2148 -2.69721 0.897549 
446 2 -9.09516 7.63448 3.05468 
447 2 -2.39989 2.59144 -7.40953 
448 2 2.99502 -5.97432 -1.22289 
449 2 7.2884 -3.62901 6.50778 
450 2 -5.04338 -0.319613 7.00225 
451 2 -1.3914 -5.32367 -5.24202 
452 2 -8.31119 0.680417 7.65465 
453 2 5.39232 2.28482 0.926527 
454 2 5.0877 -6.52528 6.10484 
455 2 -11.1451 -0.393621 3.20787 
456 2 -2.30472 -0.0504351 8.67387 
457 2 0.388547 -8.45789 4.36797 
458 2 9.91424 2.20937 4.86138 
459 2 3.48724 -8.46465 -3.35462 
460 2 -4.62378 6.06452 0.975849 
461 2 -6.43208 -1.75486 -7.88133 
462 2 -7.61755 -1.60797 5.43495 
463 2 2.93973 -6.465 8.33546 
464 2 4.25853 5.04492 -1.77405 
465 2 5.61696 2.11836 -6.77262 
466 2 7.85305 6.85383 2.70769 
467 2 -6.12394 3.24207 0.379251 
468 2 9.17153 -3.37915 3.77598 
469 2 4.32133 -3.59335 -3.64339 
470 2 -5.55619 -4.87055 -0.817493 
471 2 -2.49532 -0.570292 2.2041 
472 2 8.94341 -0.940779 -3.94798 
473 2 6.82265 -7.09819 0.369605 
474 2 6.74961 -0.716852 0.917619 
475 2 8.55694 -5.67461 -1.28897 
476 2 -0.680381 2.94464 6.97768 
477 2 8.29135 4.23295 -5.25075 
478 2 -10.2217 -2.19757 0.467827 
479 2 4.24069 -0.0326144 3.08919 
480 2 -7.71968 0.267589 -0.317029 
481 2 5.08978 -7.93053 2.70866 
482 2 5.50113 8.30991 -3.57108 
483 2 10.552 0.547563 -0.975367 
484 2 8.44084 7.03145 -2.99679 
485 2 -0.658399 -5.02552 5.29964 
486 2 4.00641 -5.25006 1.77481 
487 2 9.93788 -2.45224 -1.56079 
488 2 4.16586 -8.478 -0.172226 
489 2 -5.30963 -7.71461 -5.37527 
490 2 1.94451 8.42369 1.41775 
491 2 -0.367271 8.65179 3.95393 
492 2 -3.16331 -7.92546 3.14803 
493 2 -1.33206 -2.71499 9.49633 
494 2 -3.40047 2.06717 5.48198 
495 2 8.22811 4.64478 5.57915 
496 2 9.86377 1.73339 -3.48242 
497 2 -0.467568 -2.20215 3.91697 
498 2 -4.94709 3.93567 -7.13827 
499 2 -5.70687 -8.39886 -2.2039 
500 2 5.62644 -6.01043 -2.56683 
