ITEM: TIMESTEP
680000
ITEM: NUMBER OF ATOMS
500
ITEM: BOX BOUNDS pp pp pp
-30.0 30.0
-30.0 30.0
-30.0 30.0
ITEM: ATOMS id type x y z Coordination
1 1 -2.99233 2.14695 -5.89228 22
2 1 7.52684 -3.74203 3.21785 17
3 1 -0.359784 2.01353 11.5907 9
4 1 6.50875 -0.471868 2.65101 19
5 1 -7.12015 2.26762 0.510833 20
6 1 -0.115318 -2.97049 -6.57271 24
7 1 1.94157 -0.351088 7.44631 19
8 1 4.48093 -2.08547 -3.32749 23
9 1 -9.25955 1.39005 -1.81676 15
10 1 0.953581 1.83383 -9.39869 13
11 1 7.1836 -7.64448 -4.89349 13
12 1 6.04089 2.84683 6.64733 15
13 1 0.343365 5.70981 -4.51837 22
14 1 0.482102 4.35364 6.76197 19
15 1 1.66043 4.18796 9.84854 12
16 1 -8.25537 -0.994333 0.317528 21
17 1 -10.7587 -1.66202 2.28335 17
18 1 10.0354 0.425043 -3.57387 14
19 1 4.82653 -0.0583767 7.91504 16
20 1 -7.26004 -4.04142 2.0978 20
21 1 -3.56717 -5.61223 -8.81469 10
22 1 4.25794 0.350804 -5.24974 21
23 1 8.73674 -1.33022 -6.48792 12
24 1 8.70808 -6.3313 1.05113 9
25 1 -1.36663 9.09137 3.59536 13
26 1 4.14128 0.768539 5.05151 19
27 1 0.73128 7.44967 2.64033 20
28 1 -0.221416 1.44552 -3.88557 20
29 1 2.19331 -6.86174 -8.02609 15
30 1 -3.38989 3.23719 9.78826 11
31 1 8.70612 -3.66254 -0.323275 16
32 1 -7.16933 7.97724 3.58588 10
33 1 -3.47957 3.61337 3.60637 22
34 1 3.90033 5.58758 -6.44432 13
35 1 6.65507 5.06126 -1.67092 21
36 1 -2.74823 9.55152 -4.84087 13
37 1 2.6189 -4.09957 -2.43253 21
38 1 -5.34053 4.56254 -5.72663 17
39 1 -1.92777 4.04647 -2.17405 20
40 1 -3.79475 9.10428 -1.47645 14
41 1 1.19448 7.24663 -2.07943 23
42 1 -12.421 1.49891 2.40832 9
43 1 1.98565 6.69121 8.28443 13
44 1 -5.15277 -0.461867 -9.57834 11
45 1 -6.51353 -6.19595 3.72632 14
46 1 -1.55375 2.11906 1.90319 21
47 1 -2.00113 -0.72332 3.57179 24
48 1 -5.10901 -1.27898 -3.51984 22
49 1 4.00152 -7.45147 -1.31601 18
50 1 -9.50902 1.27714 2.50555 20
51 1 -9.44266 -2.15304 -4.788 11
52 1 -1.13268 -9.12715 6.01672 9
53 1 6.79414 2.67895 -6.35173 13
54 1 -4.36404 -2.36742 3.01312 20
55 1 -5.66797 -3.35105 -8.50574 14
56 1 1.09077 5.15962 -7.63131 16
57 1 -0.443838 4.62185 4.0729 18
58 1 -1.53895 2.04914 5.39798 20
59 1 -4.62922 1.18104 2.31685 21
60 1 1.21422 -6.73357 -1.72488 21
61 1 -0.807436 10.1984 -2.11894 13
62 1 -12.2384 0.487902 4.83451 11
63 1 1.59439 8.8629 5.65473 11
64 1 3.41769 -2.15299 9.65054 14
65 1 1.81403 -9.70998 -2.99032 13
66 1 7.02394 -0.145917 -4.30169 21
67 1 -4.83432 -5.98095 0.419979 21
68 1 -2.33764 -5.78116 2.81384 17
69 1 6.30499 -2.90158 7.94286 13
70 1 3.04919 -5.55161 5.82122 21
71 1 5.24349 9.25232 1.06913 11
72 1 -8.36229 -6.47293 1.32309 13
73 1 -3.28875 -8.37908 1.38056 16
74 1 -2.46996 -3.34868 1.19714 21
75 1 4.53081 -3.49759 3.20179 18
76 1 -4.29081 -4.75929 -2.56412 22
77 1 2.37936 3.06285 -4.78701 23
78 1 2.90947 -4.86662 0.825619 20
79 1 -4.13753 -2.01574 6.31089 20
80 1 -10.0002 1.34368 6.99323 10
81 1 2.05826 -8.97803 0.389215 16
82 1 -1.60679 -3.43517 4.67538 20
83 1 2.68657 2.49785 7.33175 21
84 1 -9.81069 -1.68652 5.4562 14
85 1 -4.25237 9.18971 3.90734 10
86 1 -9.14451 6.22861 3.9397 10
87 1 1.42256 2.1162 4.00936 24
88 1 -3.77157 6.22794 8.1354 10
89 1 -6.24377 -3.4937 -5.17353 20
90 1 3.02671 -0.791175 2.86358 22
91 1 -5.90717 1.4312 -4.79042 21
92 1 -3.21195 -3.78487 -5.01795 22
93 1 8.87955 -2.71464 5.90968 10
94 1 -4.1571 2.68376 0.0204438 24
95 1 -2.23615 -4.00699 8.1628 16
96 1 -2.43241 -2.51671 -8.14439 18
97 1 -10.9405 -1.74587 -1.36055 12
98 1 -3.81106 -8.53884 -1.62516 16
99 1 -2.18114 -2.1149 -2.14183 21
100 1 4.46725 1.82351 1.97957 25
101 1 -5.93981 5.18738 5.09674 16
102 1 4.7296 5.16461 8.52558 11
103 1 -3.38283 5.76889 -0.569411 22
104 1 0.992485 -8.71819 -6.05867 13
105 1 -3.55236 10.6779 0.908172 11
106 1 3.64167 5.81024 -3.17751 22
107 1 -8.91209 1.12719 -5.36041 9
108 1 -10.0838 4.04482 1.50401 15
109 1 -3.62866 -8.341 -6.73888 10
110 1 5.36664 -8.29032 4.73368 12
111 1 -7.98607 3.62649 -3.51999 13
112 1 -3.92783 0.5841 8.49065 13
113 1 2.4428 0.876954 -2.29816 22
114 1 -7.8415 2.80723 6.61083 11
115 1 1.76211 -5.4957 -5.18161 23
116 1 0.455602 -3.7554 6.64551 22
117 1 0.576019 -6.58615 7.85586 18
118 1 3.89729 -8.07212 -4.71324 18
119 1 8.12257 1.881 -1.86861 21
120 1 -6.76315 2.64948 3.72036 17
121 1 3.3411 -0.376132 -8.38236 16
122 1 -0.232299 5.43706 0.515371 21
123 1 6.27937 -5.15317 5.7692 15
124 1 -6.09346 -7.74932 -3.95413 13
125 1 -7.39269 -0.832732 3.45757 19
126 1 8.09766 0.262094 7.61065 10
127 1 9.19535 6.63124 -2.51856 12
128 1 -0.376633 2.83644 -6.84522 19
129 1 -1.57137 7.25205 -6.91494 15
130 1 1.90175 9.56061 0.381987 13
131 1 3.93041 2.40165 -7.59962 18
132 1 -0.232084 -8.46365 2.76353 16
133 1 3.87457 3.57566 -0.725317 24
134 1 7.24388 -6.87758 -1.44994 14
135 1 -0.696366 -9.0122 -0.806248 16
136 1 -5.73223 2.1062 -7.64919 17
137 1 2.40779 4.55325 2.14062 21
138 1 10.5503 -1.23065 -0.591894 12
139 1 -2.20197 5.05776 -5.40302 22
140 1 -4.96194 7.06979 -3.58559 16
141 1 4.5194 -8.89457 -7.18276 9
142 1 0.304106 -6.19246 1.25466 22
143 1 -6.96277 -3.27504 5.00979 17
144 1 -1.37399 -9.20762 -4.13745 14
145 1 4.65648 -5.59006 -6.79975 18
146 1 2.92381 6.52841 -0.0266439 23
147 1 2.98759 -6.96153 2.8436 21
148 1 7.49259 -1.1113 -0.9326 21
149 1 -5.76733 -2.87661 -0.243352 22
150 1 -5.53697 -5.94455 -6.175 16
151 1 0.206933 -3.97965 9.88659 11
152 1 -0.606348 1.65091 8.64159 21
153 1 5.68496 -2.19205 -6.66874 16
154 1 -9.75567 4.70645 -1.39501 12
155 1 6.45381 8.33521 -2.02473 16
156 1 5.28323 2.86538 -3.39826 22
157 1 -0.0315693 -0.837085 1.55283 22
158 1 -2.11817 0.772003 -8.66629 18
159 1 -11.047 3.68341 4.82033 12
160 1 3.11567 -4.81872 8.66807 15
161 1 6.70476 2.30795 3.97807 17
162 1 -7.24777 -0.869698 -6.79765 17
163 1 10.185 -2.67301 2.3834 9
164 1 -2.0328 -5.90969 -0.966415 23
165 1 7.44007 5.78194 6.00715 11
166 1 1.98915 -8.68962 5.17375 17
167 1 1.76139 1.4302 0.691797 21
168 1 3.48813 -2.66187 5.84437 22
169 1 5.38685 0.64524 -0.854185 20
170 1 10.3785 5.16806 0.0800632 13
171 1 5.54208 -2.34869 0.7258 19
172 1 9.78705 5.48506 3.26283 10
173 1 -1.13262 -6.4643 -6.58229 18
174 1 3.66399 4.02989 4.86593 19
175 1 -4.56658 3.80741 -3.16485 20
176 1 -4.4678 7.35794 -6.89907 11
177 1 -1.30045 -1.09882 7.04154 21
178 1 -0.681898 -4.50764 -3.40454 23
179 1 -6.4699 -8.7078 -0.554966 11
180 1 6.89472 3.08672 0.706922 19
181 1 -2.94337 6.18359 5.31164 16
182 1 -5.63423 5.21393 1.73081 21
183 1 6.68036 5.96155 -4.66066 16
184 1 1.91831 0.687027 10.1312 14
185 1 -6.05044 0.116036 -1.2536 21
186 1 0.444122 -1.36557 -9.15204 16
187 1 -1.32261 5.86248 9.26401 12
188 1 5.43102 -4.39003 -1.23134 18
189 1 3.56469 7.68184 3.13043 18
190 1 5.76909 -6.22925 2.34034 16
191 1 -2.66631 6.65996 2.38767 23
192 1 -3.05067 -0.458735 0.370837 19
193 1 5.07559 -5.60353 -3.7877 20
194 1 2.71423 -1.65089 -0.369131 22
195 1 3.9234 -7.96064 7.47652 9
196 1 0.956263 0.251055 -6.50068 23
197 1 1.0199 -1.63469 -3.19962 22
198 1 -4.41155 3.40658 6.6103 17
199 1 10.5443 2.47281 2.70966 12
200 1 0.391631 8.92893 -5.03647 14
201 1 0.679974 -1.06434 4.99516 22
202 1 8.71428 3.80204 -4.30495 15
203 1 -1.4394 -1.03525 10.1474 12
204 1 -4.71807 -5.287 6.4742 11
205 1 -5.59918 7.99535 0.968518 16
206 1 7.05659 7.57124 3.72175 12
207 1 -9.74148 -4.51569 3.49365 12
208 1 8.85069 0.41465 1.4545 17
209 1 -7.35285 -5.76875 -1.4685 21
210 1 9.21428 3.05639 6.05172 13
211 1 9.55467 -5.89813 -2.97593 9
212 1 1.06072 3.85414 -1.76887 23
213 1 5.28558 5.13951 1.8177 20
214 1 -7.87679 -2.62045 -2.50983 21
215 1 -1.79518 7.24519 -2.83686 21
216 1 1.91364 8.08486 -7.12749 10
217 1 -4.29396 -0.756254 -6.75372 22
218 1 2.69901 -3.5865 -8.31116 17
219 1 -3.02254 -6.8365 -4.26545 18
220 1 -0.7656 0.979745 -1.18288 21
221 1 0.325726 -6.41857 4.71113 20
222 1 8.91065 -2.72495 -3.30734 17
223 1 -11.6533 2.01932 -0.7866 9
224 1 -3.22051 4.15113 -8.16494 15
225 1 -8.80521 -5.10532 -3.71726 10
226 1 9.30143 0.409791 4.54599 15
227 1 0.117542 -3.48775 -0.453042 23
228 1 -0.079796 -4.89528 -8.99771 14
229 1 -8.8315 7.17808 0.621503 12
230 1 -6.89792 -0.349661 6.65888 16
231 1 -1.80654 -1.03472 -4.9131 21
232 1 7.74046 6.87464 0.648937 16
233 1 10.5129 1.96153 -0.45964 15
234 1 -2.72511 -7.36916 7.65779 10
235 1 6.43918 0.475207 -8.41558 11
236 1 4.10455 8.39356 -4.47969 14
237 1 4.70194 7.76867 6.16607 13
238 1 3.53156 9.21021 -1.96799 14
239 1 11.152 3.94954 -3.15156 10
240 1 0.86619 -3.4176 3.20272 23
241 1 -4.6062 0.435565 5.13203 21
242 1 7.87477 -4.49744 -5.58852 13
243 1 2.86624 -2.5523 -5.84889 21
244 1 -0.604679 7.2352 6.25993 16
245 1 -3.1504 1.19938 -2.78977 22
246 1 -1.19324 8.44172 0.0645172 22
247 1 -4.13143 -7.99299 4.6505 9
248 1 5.72316 -8.76508 1.11165 11
249 1 -9.44496 -3.82434 0.00408052 17
250 1 -6.36028 5.36849 -1.03408 18
251 2 -10.7144 -0.0282451 5.92389 13
252 2 10.3244 4.22059 1.8318 13
253 2 2.45834 -4.03387 6.83108 21
254 2 -2.82702 -2.17101 -6.17229 21
255 2 -10.8344 2.08634 1.34288 18
256 2 -2.9081 -8.40087 6.03712 9
257 2 1.29664 1.29807 8.2377 21
258 2 7.91833 0.727045 3.19899 20
259 2 -1.67909 -4.20688 -1.55441 20
260 2 -2.00782 6.64216 7.4339 11
261 2 -2.37018 5.23702 3.65551 22
262 2 3.66639 -0.273054 -1.31272 20
263 2 6.56058 -5.821 -5.17698 16
264 2 -3.39036 -0.738526 -8.68509 15
265 2 4.09313 -7.10451 -7.83499 14
266 2 -0.857089 -2.43108 -3.85815 20
267 2 -2.90784 -5.32964 0.863973 21
268 2 -2.92024 7.87189 4.3161 14
269 2 9.72877 -1.28775 1.15097 17
270 2 3.97811 -3.29482 0.149038 21
271 2 -0.227369 1.23451 0.768725 18
272 2 6.37596 8.14471 -0.093089 16
273 2 1.02412 8.00141 7.33361 12
274 2 6.03728 3.17374 2.35118 18
275 2 2.41582 8.83188 -5.17248 15
276 2 5.24001 -0.884419 -8.06721 16
277 2 -5.5558 1.23817 -9.2449 12
278 2 -0.81076 -7.57299 7.28117 11
279 2 -7.96935 2.5467 2.14859 17
280 2 5.60562 -8.38608 -5.75927 11
281 2 -1.99943 -9.11381 -2.24642 15
282 2 5.55111 -1.2912 -4.70206 18
283 2 0.346019 5.34905 8.94065 13
284 2 4.60658 -3.3867 8.67017 14
285 2 -6.38284 -5.98017 1.82166 18
286 2 2.76489 -2.71024 3.57298 22
287 2 -1.54811 -9.11408 1.27621 16
288 2 0.873617 1.98532 -5.53328 24
289 2 1.14052 -5.22669 -3.29226 20
290 2 -9.2468 -4.90215 1.61902 14
291 2 -4.77912 -8.0906 0.081225 15
292 2 -7.41519 -6.37841 -3.54591 15
293 2 -5.01781 9.45573 0.042018 12
294 2 2.82701 -0.544856 -6.27043 22
295 2 9.15615 6.37774 -0.662609 12
296 2 3.362 3.71059 -6.31762 20
297 2 -3.53365 2.9939 -1.82198 20
298 2 -6.21004 3.27001 -4.40748 18
299 2 8.32518 1.86334 0.0888409 22
300 2 -2.31033 10.2498 -0.669001 12
301 2 -7.40136 6.45883 4.93758 10
302 2 0.534819 5.30491 2.4021 20
303 2 0.434855 8.91174 -1.08573 18
304 2 3.13732 7.41326 -1.80696 19
305 2 -2.86277 4.87047 9.17081 11
306 2 -1.04838 -0.00682513 5.34911 21
307 2 2.10806 -3.64781 9.84549 12
308 2 4.29023 -3.68723 -6.93103 21
309 2 0.423261 -9.5921 -4.36866 12
310 2 1.44404 -3.86591 -6.2818 23
311 2 -2.46196 -0.277314 -1.43908 22
312 2 -1.59097 5.00039 -0.545559 20
313 2 -8.76801 -4.34329 -1.88917 17
314 2 9.10643 -4.3668 -4.05015 12
315 2 4.97579 2.54593 4.86351 18
316 2 -0.54135 -2.89167 -8.52077 15
317 2 2.24371 -1.84332 -8.82063 17
318 2 3.53202 1.63632 -3.85136 22
319 2 -4.33971 -6.76111 -7.5416 13
320 2 3.68366 -6.11084 -5.07613 22
321 2 7.99441 -0.0112885 -7.52593 11
322 2 -6.33295 -2.63428 3.27577 20
323 2 1.74415 -5.18312 -8.73933 14
324 2 1.46049 -2.67905 -1.49634 22
325 2 2.01329 4.83506 -3.79996 21
326 2 0.69503 -6.80936 -6.72225 17
327 2 -0.240662 0.415361 -8.74974 15
328 2 0.165981 5.70803 5.49569 18
329 2 -7.83454 -7.29406 -0.258524 12
330 2 -5.88435 0.891585 3.71869 22
331 2 -5.44974 4.18025 3.41783 20
332 2 -7.89537 -4.80845 3.9541 13
333 2 -2.69895 -3.76519 3.07395 18
334 2 -10.984 0.204595 -1.51058 10
335 2 3.8159 -8.96316 5.76607 10
336 2 6.97083 3.46173 -2.69511 21
337 2 -0.270539 -1.11326 -6.1575 20
338 2 3.72294 5.28166 3.44881 19
339 2 3.23332 8.26951 4.96161 12
340 2 0.0605213 0.105098 10.8453 11
341 2 -10.1915 4.76397 3.33198 12
342 2 2.09917 0.26768 4.33672 21
343 2 -5.67076 -1.53294 -5.30156 21
344 2 2.64003 -2.42924 -4.01118 22
345 2 10.8269 3.76874 -1.21971 13
346 2 -10.3327 -2.76036 3.83706 14
347 2 -5.19643 6.55848 -5.36993 13
348 2 2.7519 1.31489 -8.85917 14
349 2 -10.3289 3.02639 -1.50875 12
350 2 4.71364 -4.03389 5.17284 18
351 2 1.18353 5.70561 -0.927432 24
352 2 8.18542 -7.27954 -3.25744 10
353 2 1.19197 -9.04046 -1.31566 15
354 2 -6.9438 6.75945 0.331433 15
355 2 -0.377946 -6.43785 2.99021 19
356 2 1.61813 -7.67423 1.74198 21
357 2 3.90232 6.98227 7.81159 9
358 2 -1.08338 9.83261 -3.98806 14
359 2 -2.28058 -2.81468 6.40465 20
360 2 -5.3096 -6.56227 5.13179 12
361 2 -0.549036 2.44678 3.73591 23
362 2 -3.75223 -1.19925 4.48016 21
363 2 2.55907 6.38196 -7.54087 11
364 2 1.87259 -0.43313 1.1773 22
365 2 6.95751 0.239223 -2.15878 20
366 2 3.17642 -0.346135 8.996 14
367 2 -6.30484 -1.74743 -1.91888 18
368 2 6.71962 5.26193 0.328638 18
369 2 6.49889 7.3116 5.48291 11
370 2 6.71707 -3.17034 -0.705758 16
371 2 -7.63018 -2.9054 0.328637 22
372 2 1.23677 2.63512 10.9167 10
373 2 -2.04129 0.874458 -4.58298 24
374 2 -5.06912 0.646652 -3.17121 20
375 2 6.60081 -0.968099 8.20169 12
376 2 2.46444 2.53934 2.21102 22
377 2 0.826761 3.4759 -8.43004 13
378 2 6.14789 -2.51628 2.59592 17
379 2 3.05678 4.02461 8.48299 15
380 2 6.73961 -5.45373 3.86326 15
381 2 1.03814 -4.33595 1.20872 23
382 2 -3.26772 3.00428 1.70732 20
383 2 -9.74807 -1.89999 -2.82959 16
384 2 -4.79564 5.60663 -2.25657 22
385 2 -8.62002 1.73576 -3.62808 15
386 2 -4.85372 0.854052 0.343782 20
387 2 -3.45647 -5.56302 7.92527 11
388 2 5.37153 8.09938 2.53568 15
389 2 -6.38447 -4.26981 -7.05487 12
390 2 10.7688 1.3454 1.25269 12
391 2 -9.74382 5.44719 0.303812 12
392 2 8.89419 -4.29738 1.63857 13
393 2 -5.20285 -3.48334 5.81304 17
394 2 -4.84664 -4.99392 -4.4606 19
395 2 0.0558089 7.61254 -3.6069 20
396 2 -5.4212 8.31614 2.82331 14
397 2 3.83414 4.87648 0.726611 20
398 2 -0.321616 -4.8905 8.19535 16
399 2 -12.0315 2.24587 4.13109 11
400 2 -2.5615 7.60607 -0.912958 22
401 2 -1.83817 2.27554 10.4029 13
402 2 -7.30878 1.25772 -6.4642 15
403 2 3.76678 9.60078 0.00576862 12
404 2 -4.33795 5.53 6.40258 14
405 2 0.619649 -1.77669 6.88487 23
406 2 2.22497 2.57005 -1.0493 23
407 2 0.688208 0.187212 -2.6222 24
408 2 -3.80934 -3.70281 -8.76923 15
409 2 0.0730638 7.65696 -6.62081 14
410 2 -3.50162 -6.68381 -2.40895 21
411 2 -3.4347 3.73113 -4.86085 23
412 2 3.73968 -0.809362 6.40369 21
413 2 1.96216 3.54554 5.71043 18
414 2 9.95987 5.39653 -3.77913 12
415 2 2.18436 -6.79121 4.57679 21
416 2 6.14263 1.52149 -4.97645 18
417 2 6.16737 4.63618 7.24964 13
418 2 -8.8241 -0.884096 -5.82249 12
419 2 -0.478878 2.68562 -2.25571 21
420 2 -4.27687 2.4383 8.24276 16
421 2 -8.00721 -3.41685 -4.44839 16
422 2 -0.312268 -7.03098 -0.618684 21
423 2 -0.97243 7.95196 1.86845 18
424 2 -9.70251 2.966 6.03907 12
425 2 -8.92282 -0.507508 2.12833 18
426 2 -2.10687 -8.09524 -5.49103 13
427 2 4.39804 1.74222 7.3481 18
428 2 -1.51161 5.49836 -3.53494 22
429 2 -2.90718 5.80365 -7.13659 15
430 2 4.69858 6.64495 -4.9681 15
431 2 2.87676 -9.07879 -6.16029 13
432 2 8.91464 -0.836145 5.95273 11
433 2 7.98516 1.92147 6.78368 15
434 2 -3.08427 8.57596 -6.46129 11
435 2 -4.49312 1.0943 -6.18107 24
436 2 -1.80215 -5.63083 -8.44261 13
437 2 -3.57899 -2.64293 -3.28546 19
438 2 -2.90572 9.96999 2.54726 12
439 2 -3.72806 8.58158 -3.38299 16
440 2 -7.9839 4.7188 -1.97268 14
441 2 -6.34935 3.37855 5.73037 15
442 2 -1.12257 -2.13475 0.629943 20
443 2 -0.257113 4.7884 -6.18077 19
444 2 7.53953 -2.83096 -6.40117 12
445 2 -4.23627 -2.23948 1.06688 21
446 2 -8.63291 7.46581 2.5525 11
447 2 -2.14928 2.54989 -7.7247 18
448 2 2.79514 -5.99515 -0.849998 22
449 2 7.45143 -3.75617 6.52563 11
450 2 -4.9925 -0.641466 7.2085 15
451 2 -1.92033 -5.30696 -4.75751 23
452 2 -7.94065 1.1067 7.28262 9
453 2 5.1096 2.32605 0.100822 22
454 2 5.08314 -6.80732 6.26167 14
455 2 -11.8311 -0.206989 3.01264 11
456 2 -2.02943 -0.0132672 8.49213 17
457 2 0.0348694 -8.53374 4.63166 14
458 2 10.1732 2.21195 4.52813 12
459 2 3.37016 -8.4337 -2.83379 15
460 2 -4.09871 6.00577 1.06685 21
461 2 -6.19324 -1.54014 -8.21905 16
462 2 -7.87416 -1.48671 5.33083 16
463 2 2.57647 -6.83129 7.65207 14
464 2 4.64346 4.45101 -2.31206 20
465 2 5.80119 2.19205 -7.9078 11
466 2 8.42298 6.77741 2.60333 13
467 2 -5.93651 3.74091 0.148935 19
468 2 9.10908 -2.97162 4.00029 13
469 2 4.5487 -3.92066 -2.86033 18
470 2 -5.56297 -4.75757 -1.04334 20
471 2 -2.77591 0.463532 2.25781 23
472 2 8.88481 -0.826175 -4.5507 16
473 2 6.90782 -7.14775 0.865807 13
474 2 6.20737 -0.329822 0.676675 21
475 2 8.63306 -5.51827 -0.884905 13
476 2 -0.765479 2.82477 6.93236 21
477 2 7.02689 4.38822 -5.37436 15
478 2 -10.4135 -2.10398 0.406065 15
479 2 4.81903 0.384305 3.27275 19
480 2 -7.74536 0.670862 -0.522201 19
481 2 4.85425 -8.2348 2.86822 14
482 2 5.12361 8.97591 -3.13092 11
483 2 10.6647 0.347789 -1.64161 16
484 2 7.16828 6.55177 -2.81318 17
485 2 0.298035 -4.31298 4.82075 19
486 2 4.12173 -5.25972 2.40858 21
487 2 9.15801 -2.07897 -1.6911 13
488 2 3.88175 -8.78505 0.227113 14
489 2 -4.85799 -7.88952 -5.34259 13
490 2 2.35649 8.0408 1.56343 21
491 2 0.260602 8.47572 4.40399 15
492 2 -3.31701 -7.43756 3.11649 15
493 2 -1.33268 -2.63766 9.40805 12
494 2 -3.58675 2.30495 5.09994 24
495 2 8.95318 4.77177 5.20855 13
496 2 9.72947 2.36089 -3.64892 14
497 2 -0.394129 -1.94077 3.31631 21
498 2 -4.9508 3.77164 -7.42436 15
499 2 -5.62396 -8.7413 -2.28274 12
500 2 5.49216 -6.27219 -1.82562 20
