ITEM: TIMESTEP
2000
ITEM: NUMBER OF ATOMS
2000
ITEM: BOX BOUNDS pp pp pp
-30.0 30.0
-30.0 30.0
-30.0 30.0
ITEM: ATOMS id type x y z Coordination
1 1 -10.224 6.1956 -13.0637 14
2 1 -1.41366 -10.1027 -10.4746 20
3 1 8.10636 14.0522 10.4572 16
4 1 5.47726 -5.28542 9.70528 17
5 1 -8.99564 7.91929 0.270167 22
6 1 12.0433 -8.79768 -11.4599 11
7 1 -10.8661 6.51494 -7.42228 18
8 1 1.05223 -9.08413 4.83797 15
9 1 -7.1407 -0.609689 -9.76144 23
10 1 -14.9739 -7.97401 6.4843 11
11 1 14.2198 4.26857 -8.78334 15
12 1 -5.26085 -13.1612 0.365029 23
13 1 -9.57927 -5.68269 5.54377 20
14 1 1.91532 4.28908 18.5411 11
15 1 8.79999 -1.08513 2.74119 23
16 1 1.48144 4.89355 9.76861 22
17 1 10.9954 0.770775 0.474432 19
18 1 -3.01164 10.3501 -10.153 21
19 1 2.45805 -0.339313 9.91399 16
20 1 -5.53249 -0.228307 -16.6054 12
21 1 -14.0147 3.94841 15.5853 6
22 1 12.1594 7.13082 10.0971 19
23 1 -1.42247 8.11013 -16.2044 18
24 1 2.67909 9.11053 -10.7495 18
25 1 11.9459 4.1833 11.235 16
26 1 -9.95676 2.79623 -1.24777 18
27 1 -7.74545 6.20623 -7.30545 22
28 1 -3.59664 0.0409017 -9.13138 19
29 1 -6.52972 11.1956 4.13746 19
30 1 6.9058 -11.0018 4.6001 16
31 1 4.19398 -1.02667 6.89622 18
32 1 4.76635 -12.204 -10.2228 17
33 1 12.4949 -7.57934 1.42006 9
34 1 -7.56026 -12.9647 -5.01369 14
35 1 -11.4184 -5.09516 10.4134 20
36 1 4.56891 -5.4382 -13.0387 16
37 1 8.89328 -10.1832 -11.9781 15
38 1 -10.095 4.99544 -15.7063 12
39 1 -2.05874 5.8385 16.2402 17
40 1 0.0901237 -9.42904 7.71589 17
41 1 6.45317 -1.79175 12.5305 20
42 1 -9.77873 0.695216 2.45673 18
43 1 -13.2791 -1.0529 5.67261 13
44 1 -6.12508 3.24192 -1.66973 18
45 1 -3.73977 15.3269 0.372622 23
46 1 1.83232 -11.2374 -11.6635 14
47 1 2.79436 4.20265 -9.10798 20
48 1 6.55545 -4.90803 -8.20616 19
49 1 -2.58817 -3.43446 12.2613 11
50 1 -9.54905 10.8175 4.9539 18
51 1 4.09672 12.5571 -10.2996 18
52 1 2.16943 16.5322 7.98101 16
53 1 -12.4532 11.359 -5.33599 11
54 1 5.61458 13.2161 2.94711 19
55 1 3.31438 -12.8087 0.680361 18
56 1 7.73315 -9.2386 -6.8535 18
57 1 6.24592 -5.01162 -18.2284 8
58 1 -8.49662 9.03088 9.77131 16
59 1 -9.86846 1.51472 -9.82725 17
60 1 9.25443 1.31431 4.91457 22
61 1 -5.28891 9.82361 -5.35603 18
62 1 -3.08684 -9.383 8.20309 16
63 1 -3.59467 16.4846 10.7532 13
64 1 -10.3469 9.25171 -7.84287 16
65 1 -5.06667 9.87955 12.8594 15
66 1 3.68604 7.0388 -3.5039 23
67 1 -3.88304 -13.0036 8.74898 12
68 1 6.73863 6.06123 7.11317 19
69 1 11.5943 -12.3985 -3.473 8
70 1 3.06085 13.5031 13.1707 16
71 1 -8.02392 3.24045 -12.4886 18
72 1 -9.82551 11.517 -10.3627 13
73 1 4.98308 11.8907 14.9157 17
74 1 16.4793 -4.71049 -10.768 10
75 1 9.39079 -9.69972 3.16473 13
76 1 -11.1899 -3.78522 5.19046 21
77 1 -5.46084 0.946656 1.07531 23
78 1 5.48443 16.9501 6.17278 16
79 1 4.53876 -0.219064 14.8895 15
80 1 -5.866 -10.9466 6.458 21
81 1 -8.05973 -0.205191 -0.977581 21
82 1 13.9883 3.36936 9.3701 19
83 1 8.88281 -0.0666514 -1.57704 23
84 1 0.0775789 12.3167 12.5839 18
85 1 0.814296 -0.378654 7.11521 18
86 1 -5.55028 -5.21049 1.0593 19
87 1 -3.22558 -6.50337 -7.45063 19
88 1 -10.992 8.15417 5.86517 17
89 1 -4.58895 9.77493 1.85254 24
90 1 -2.6956 6.93838 -9.67672 19
91 1 6.03583 0.44401 -6.50408 23
92 1 10.1272 7.42899 -9.09981 20
93 1 6.09723 -5.98393 -2.3933 20
94 1 3.25784 -8.08559 9.42152 13
95 1 -5.97392 18.5532 -3.80067 9
96 1 -8.4638 16.6118 4.18442 12
97 1 -7.99324 -2.04698 12.5113 16
98 1 -2.39404 13.5274 6.06964 19
99 1 -8.76284 -4.986 11.4302 15
100 1 14.3679 -4.57146 -8.69274 13
101 1 -9.59727 3.54943 2.75762 20
102 1 -10.4817 -13.6458 3.84708 13
103 1 10.1718 -4.68603 -6.96743 17
104 1 4.34796 3.08712 -11.1365 17
105 1 -4.93135 -2.87775 -14.789 13
106 1 -0.870691 16.2653 1.93865 23
107 1 -6.07473 6.53187 -5.179 20
108 1 3.46532 13.2165 16.835 10
109 1 0.882627 14.4524 -7.27056 18
110 1 -9.40534 14.1494 -1.41197 15
111 1 8.33202 11.075 1.71697 18
112 1 0.296813 -3.31482 13.1011 11
113 1 16.5604 1.77123 8.87029 15
114 1 0.953236 -2.79046 -6.40815 18
115 1 4.097 -8.85155 -11.6726 20
116 1 0.150981 4.75171 6.88533 21
117 1 7.18489 1.67908 12.4358 22
118 1 -8.96975 -3.3779 -0.794467 20
119 1 8.77055 -3.05454 -0.269897 18
120 1 -11.7568 -9.60927 -3.25556 11
121 1 9.73478 -6.8601 2.02146 19
122 1 -6.98891 6.46687 5.70684 19
123 1 3.43395 6.14513 -15.9441 12
124 1 3.71938 19.6638 -3.06415 10
125 1 -10.5034 -7.60769 12.1235 13
126 1 -11.2648 -12.2109 8.20832 12
127 1 7.18845 -7.262 -16.9702 12
128 1 4.65253 9.07231 -6.02706 19
129 1 12.037 -6.92685 -1.30468 16
130 1 0.211879 -13.1541 2.63502 20
131 1 -13.1904 -6.69575 -2.76661 9
132 1 16.44 6.48764 12.6012 9
133 1 14.6074 -2.55757 -12.2817 10
134 1 -14.6238 -2.8003 0.123631 15
135 1 10.4335 8.46829 3.73167 19
136 1 14.8043 10.1641 6.24229 13
137 1 -6.57172 3.8066 15.9081 16
138 1 11.0905 10.4804 -1.54245 17
139 1 -5.57096 10.5167 9.66484 19
140 1 -2.01338 13.7522 -5.14126 18
141 1 1.6793 -10.2097 -9.07594 17
142 1 9.56425 -10.182 -8.48863 18
143 1 1.06572 13.8224 -9.8743 17
144 1 8.52299 -2.98359 14.4494 8
145 1 0.207927 -1.57283 -16.927 14
146 1 -0.899203 10.0638 -3.52444 22
147 1 13.2991 -0.756694 -10.1443 18
148 1 -9.55737 14.8871 -6.78386 12
149 1 -8.68727 17.3218 -1.45043 13
150 1 7.03144 4.20396 -12.8993 15
151 1 10.6373 -7.2587 5.56301 12
152 1 -3.75594 4.44541 -11.5346 20
153 1 -7.51589 14.7234 9.16314 14
154 1 15.2143 17.2541 -3.52147 5
155 1 3.60143 9.34112 -0.819071 22
156 1 -4.11698 18.0846 1.94839 16
157 1 8.33428 10.7743 -2.49065 22
158 1 -4.65168 12.8752 -5.28001 19
159 1 3.58051 16.2437 -8.09019 13
160 1 2.10992 12.2553 -12.6245 12
161 1 -6.40994 -6.14911 3.99696 17
162 1 -12.7968 12.7762 -2.49315 9
163 1 -2.24519 -2.91108 -10.9734 20
164 1 -0.687532 -7.9806 -15.3866 11
165 1 10.9588 14.2047 5.57539 19
166 1 0.159587 15.5889 4.7935 22
167 1 -13.4251 -0.044814 -9.14033 15
168 1 -10.3016 15.6752 1.17378 12
169 1 14.0606 0.486688 -5.06709 18
170 1 -12.5464 3.81449 -13.449 9
171 1 11.6135 1.18057 16.4055 9
172 1 4.4463 18.6398 3.81802 13
173 1 0.845975 13.6675 6.51865 18
174 1 3.68875 -6.90449 -16.8696 13
175 1 -4.33464 13.7213 8.23735 18
176 1 -5.43623 15.1096 -11.3782 13
177 1 1.59236 -0.838324 13.393 15
178 1 -8.3827 -4.99159 2.23572 18
179 1 -0.765933 -10.5397 -13.3816 14
180 1 -8.85572 17.0199 -5.05965 11
181 1 -2.63605 -11.6284 6.03081 22
182 1 7.10127 -16.6833 -5.50605 7
183 1 -3.3621 14.1365 -13.4476 12
184 1 -14.0645 1.93546 10.3099 10
185 1 0.578912 9.10322 -1.0466 21
186 1 10.4976 7.60332 -3.24764 19
187 1 -4.93554 6.77058 14.5746 16
188 1 -0.428296 -7.62306 10.2316 12
189 1 -8.89982 5.07917 -0.0888372 19
190 1 1.15101 18.6527 3.72865 17
191 1 -1.80466 9.60519 10.8459 16
192 1 13.1832 5.79245 13.6984 15
193 1 -3.23748 15.6628 3.83723 22
194 1 12.0726 -2.67925 -5.07935 18
195 1 -5.45403 12.6847 11.2947 16
196 1 -2.04718 2.65797 -6.58958 25
197 1 13.4392 -4.67814 2.10371 11
198 1 -4.83007 -4.18159 9.50358 14
199 1 -12.4806 -0.792558 2.60284 16
200 1 -9.714 -8.96758 5.23036 12
201 1 5.08454 8.16986 15.5518 18
202 1 -12.403 0.534982 -6.12368 17
203 1 -3.41908 -15.6574 -1.01755 15
204 1 7.17986 -9.6124 -1.72648 15
205 1 -1.83287 14.0505 10.9579 15
206 1 -7.57069 2.35197 0.837928 21
207 1 7.35121 16.8106 10.7117 10
208 1 -6.10421 0.565944 -3.71235 20
209 1 -7.79924 13.8479 -9.94659 14
210 1 -10.2864 -4.28335 -11.8089 12
211 1 -9.85477 -2.00106 9.61908 15
212 1 -1.67338 -8.52871 5.76219 18
213 1 5.28447 -13.374 6.83356 9
214 1 -11.4796 12.4823 0.929512 12
215 1 17.0713 4.08058 4.21712 14
216 1 7.82289 3.66611 -6.85373 20
217 1 -5.80138 -7.66811 -13.3964 11
218 1 4.10009 -0.0567007 12.3591 19
219 1 6.90889 -15.0966 0.565067 13
220 1 -5.7066 8.22884 -14.3764 18
221 1 2.21234 -7.1948 -14.5647 14
222 1 9.53882 2.16625 -11.6078 13
223 1 2.40676 9.44527 -15.843 13
224 1 -8.35092 -5.15389 -6.70281 20
225 1 -2.71077 17.5432 -4.44385 11
226 1 -11.1774 -10.8291 10.7422 8
227 1 5.55907 16.5841 -2.19984 19
228 1 -9.99096 1.04611 12.7612 18
229 1 -3.60687 10.7335 -3.24105 18
230 1 8.69197 0.723286 10.3477 21
231 1 0.357613 -7.59189 -9.33369 18
232 1 -3.92925 11.5416 -7.46149 20
233 1 0.299921 10.7426 -9.22075 17
234 1 -13.3657 -12.9899 5.88727 9
235 1 -7.58588 3.61666 7.12518 17
236 1 -6.08409 7.67657 8.84128 20
237 1 1.5941 -8.81543 -6.38457 18
238 1 -4.78218 -19.0476 -0.404119 5
239 1 10.9678 -8.1524 -5.96118 18
240 1 4.46987 -4.21446 -4.28891 19
241 1 10.261 6.21225 15.1486 13
242 1 7.60427 9.19459 -5.98419 20
243 1 1.22273 17.3944 -0.674421 17
244 1 -9.76535 -2.67776 3.54312 22
245 1 -7.37454 10.4882 0.55764 20
246 1 4.84633 10.4406 9.43035 21
247 1 3.20862 -15.1037 -1.35985 19
248 1 13.6868 2.57443 -2.76089 19
249 1 3.65816 4.67945 7.31874 21
250 1 -10.8883 7.10821 3.04174 18
251 1 -14.428 -4.10901 -4.81307 11
252 1 6.05769 8.85741 -15.5363 14
253 1 5.79285 0.219171 9.54885 22
254 1 9.4644 11.0768 -8.07349 18
255 1 1.74669 -10.4112 -3.60723 20
256 1 -1.5767 1.65554 -10.4672 20
257 1 -1.68267 -15.2538 1.99131 15
258 1 8.98348 0.509736 -7.37046 19
259 1 -5.96723 2.84812 3.98024 21
260 1 1.5683 -15.3899 -3.52555 18
261 1 -12.5894 -2.23797 -7.13588 15
262 1 4.47457 13.1246 -3.75528 21
263 1 3.67286 -4.30181 -16.2677 15
264 1 7.69113 6.64764 17.0242 12
265 1 15.926 5.79889 2.28857 14
266 1 -6.29765 -9.78527 0.754946 18
267 1 11.6456 -2.27757 -12.6842 13
268 1 -1.15384 -10.08 2.44554 18
269 1 -7.51983 -3.01507 -9.24584 22
270 1 -5.35705 3.19803 -14.3248 21
271 1 -8.18965 -12.4724 8.87929 12
272 1 10.2966 -1.62069 10.844 14
273 1 6.98546 -3.92669 6.77651 18
274 1 -8.11005 -6.20882 -10.2015 17
275 1 2.39321 -5.92105 4.39283 18
276 1 3.97971 8.48957 -13.4849 17
277 1 5.81008 12.0528 -0.707339 19
278 1 -5.44224 -3.24986 3.72742 21
279 1 5.32186 15.866 3.00119 19
280 1 -6.2918 -4.7319 6.75602 19
281 1 -10.8626 -4.23061 -8.94182 14
282 1 -4.68586 -5.25922 -10.7487 19
283 1 -1.35296 11.5385 -15.3807 14
284 1 -2.89761 -10.3348 -5.04514 16
285 1 -4.11018 -7.8215 2.78904 19
286 1 9.31061 -1.28432 -14.5465 10
287 1 16.8779 2.42822 -2.553 15
288 1 14.2826 4.37835 6.77564 21
289 1 -2.67459 -5.09659 -3.83553 17
290 1 -8.56099 -4.90078 8.28008 17
291 1 -4.46258 -7.59231 -0.133354 14
292 1 9.07175 3.35408 16.7829 11
293 1 -7.78469 -15.3349 3.93209 16
294 1 -3.0696 -10.1321 0.478809 17
295 1 2.37488 16.4572 2.15014 19
296 1 5.71995 0.151542 -15.6911 11
297 1 -5.12558 -2.49337 -12.1726 20
298 1 -14.3193 -6.06926 12.0585 16
299 1 2.15711 10.2286 17.6759 14
300 1 0.529944 -12.4237 -1.35075 19
301 1 -5.49123 -10.6826 -12.1023 13
302 1 -9.05465 7.79445 -10.369 20
303 1 8.54845 3.30861 7.32054 23
304 1 -4.07726 3.63874 -9.14376 24
305 1 1.05079 7.26987 -9.06981 19
306 1 -3.80809 -4.95536 5.63866 19
307 1 8.40084 -15.7561 -8.55508 6
308 1 -5.64597 17.4036 -1.02223 16
309 1 1.77675 10.3988 1.80196 21
310 1 15.8964 7.00209 5.8044 13
311 1 -7.65379 -2.57171 5.61512 19
312 1 -8.56373 -0.762993 14.9265 12
313 1 -6.9656 16.7411 7.40866 12
314 1 3.58917 -4.52336 -9.76125 19
315 1 17.5136 15.3844 -1.64656 5
316 1 9.46888 -8.8432 0.507035 16
317 1 -4.78796 0.538734 15.7255 14
318 1 -16.0406 -4.2532 9.8838 10
319 1 4.20874 -17.0834 -4.01611 12
320 1 -7.57224 8.17761 14.8214 9
321 1 -10.0963 9.25379 13.0363 10
322 1 -14.4549 -1.31888 9.14314 12
323 1 -13.8022 -6.11716 8.86353 18
324 1 17.0447 -0.520212 -4.6999 13
325 1 -15.579 -8.03894 9.58815 12
326 1 9.82259 -0.399282 -10.0072 17
327 1 12.8434 -9.38126 -8.04991 10
328 1 0.761372 18.3943 -4.17131 10
329 1 -6.29749 11.6309 -2.33961 19
330 1 9.71466 9.31532 9.3608 20
331 1 -3.88383 -0.0497346 4.29681 20
332 1 4.40871 -12.7339 -2.7311 12
333 1 -5.65327 13.4175 2.77114 20
334 1 -2.78418 8.76084 4.12743 22
335 1 5.83481 -9.87254 7.65645 14
336 1 16.1446 -0.582776 5.43649 13
337 1 -0.0107907 7.28012 10.9269 17
338 1 -6.50829 -2.12351 -6.29415 23
339 1 -3.59143 3.80788 14.516 23
340 1 -1.98196 18.1907 4.16169 15
341 1 8.48795 11.2392 15.8291 10
342 1 -7.45459 14.7057 -3.66451 21
343 1 -0.743942 -4.54269 -12.4101 13
344 1 -5.62265 3.62263 -6.95582 21
345 1 8.53741 -9.21219 -15.2236 11
346 1 -5.8902 4.53012 13.1792 21
347 1 -14.2122 0.0964159 -0.192862 14
348 1 -4.67158 -2.52266 -8.83516 21
349 1 -2.55647 9.02962 -0.878795 24
350 1 7.31033 -0.192064 6.88895 20
351 1 -12.3626 -12.0371 2.36338 12
352 1 9.40194 -4.59873 4.38339 20
353 1 -13.2225 -8.47231 12.6921 8
354 1 -12.2754 10.9344 3.97824 9
355 1 -2.23215 -0.19228 6.9913 18
356 1 6.41419 -9.69584 -9.74585 18
357 1 -6.68545 2.48425 -9.24955 21
358 1 6.37182 1.04055 -12.359 14
359 1 2.34436 19.2128 6.38308 10
360 1 -9.34534 1.32836 -4.13873 23
361 1 8.76934 -7.71063 -9.86663 21
362 1 9.74169 5.85267 -12.7598 14
363 1 -4.89396 -13.5789 -7.10061 11
364 1 -12.619 -5.49978 -6.17996 12
365 1 -4.36908 -10.7528 -2.07497 21
366 1 13.1735 4.23169 15.8037 8
367 1 10.4635 3.10407 -1.91697 22
368 1 -8.9282 0.230904 -12.5101 16
369 1 4.18032 18.0658 0.221323 18
370 1 -15.0307 -0.873978 -5.57594 14
371 1 -5.16673 8.33922 5.37587 19
372 1 -6.54853 14.5084 -0.407992 20
373 1 -3.0274 10.1931 7.72291 18
374 1 7.86117 8.49152 13.7717 17
375 1 15.0289 -1.92574 -6.74693 16
376 1 11.9193 -2.95824 13.0423 7
377 1 14.9748 1.52279 -9.16264 11
378 1 -5.13587 -13.8427 -3.37803 13
379 1 -2.82282 7.01372 1.58983 22
380 1 3.69432 -7.70362 -3.71923 19
381 1 0.513708 8.52785 4.59822 21
382 1 -11.0196 7.25963 -2.33762 19
383 1 3.43991 -14.7915 -6.3229 11
384 1 13.0655 -1.24284 6.52774 16
385 1 -11.3992 -1.77643 -4.14506 18
386 1 -4.84807 -8.31731 5.64 19
387 1 -11.8168 -4.79595 13.535 11
388 1 -1.85133 13.1669 2.39256 20
389 1 -10.2966 -7.42234 -4.65055 18
390 1 10.0175 12.7517 13.5632 10
391 1 -9.16629 9.92348 -1.94872 17
392 1 -1.28247 12.059 -12.1256 19
393 1 8.12683 14.2432 5.21673 20
394 1 -12.2068 -4.69724 -0.968428 18
395 1 -0.403547 -12.2866 -5.27296 18
396 1 -11.4409 -1.70476 13.3938 11
397 1 -13.0662 10.3695 -1.72766 14
398 1 4.12308 -8.97409 4.35314 20
399 1 -2.51312 -12.9083 -2.63405 20
400 1 10.4385 12.707 7.99204 18
401 1 4.80024 11.9659 -15.4311 9
402 1 -10.6803 9.24337 -12.3553 12
403 1 0.745531 16.5241 -9.53632 9
404 1 -7.59106 6.85671 -2.69942 21
405 1 -3.21669 -14.0234 3.85723 18
406 1 14.3506 8.45491 1.6192 19
407 1 -2.18584 8.84689 -13.3016 19
408 1 0.490013 2.38073 9.04016 22
409 1 -12.0969 4.32528 -1.43507 18
410 1 -4.59967 5.96773 3.82861 22
411 1 -6.4765 -12.6196 3.62252 18
412 1 2.93084 -5.6153 -6.64507 17
413 1 7.41859 -6.97268 -13.3009 20
414 1 -1.26033 2.11233 6.57992 22
415 1 -14.6141 4.10468 -2.76664 10
416 1 -13.1784 1.3525 13.0719 12
417 1 -11.5775 11.0566 7.4952 12
418 1 -0.428963 -3.32608 6.99002 21
419 1 -7.06319 6.17785 -12.8148 20
420 1 11.8557 -6.64562 -9.05926 19
421 1 4.1401 -12.3407 -13.3618 12
422 1 -6.76413 -0.128338 11.0861 19
423 1 5.08323 -9.68788 -4.56687 20
424 1 -4.17531 9.83385 -16.3036 14
425 1 6.52086 -13.9381 3.74162 11
426 1 0.840023 12.7438 -4.88061 20
427 1 -9.93106 10.0783 2.30062 16
428 1 -6.91225 -1.32759 8.91837 17
429 1 -12.4752 -1.29836 -12.0654 12
430 1 -11.0978 -6.5108 7.42897 20
431 1 9.68438 -5.33856 7.05107 16
432 1 8.81512 5.92118 -1.09144 20
433 1 4.13317 1.14227 -8.95064 20
434 1 7.44672 -6.38873 8.15775 14
435 1 14.0818 10.039 -6.40804 13
436 1 -3.92822 1.70729 11.9238 21
437 1 2.50184 15.6895 -2.24732 21
438 1 7.42955 -3.33269 2.99657 20
439 1 -5.9877 -8.37868 -7.07114 17
440 1 -2.38935 7.64351 18.6897 8
441 1 -6.67335 16.2307 11.4711 8
442 1 -9.66847 -10.1409 -5.89606 13
443 1 9.27035 14.8619 2.25926 22
444 1 7.2128 9.21078 7.64397 24
445 1 -6.98877 -0.245387 3.20775 19
446 1 -6.75808 -10.2513 -4.2995 18
447 1 -14.5249 7.00751 10.7455 8
448 1 -7.76304 -7.09409 -4.28396 19
449 1 -7.73377 9.75781 6.7037 19
450 1 -7.25264 -11.4854 -7.7755 14
451 1 3.30013 -7.68607 -9.00083 19
452 1 -4.07758 -10.3949 2.95655 20
453 1 -4.8995 1.53844 6.61726 20
454 1 10.1847 0.75804 7.97124 22
455 1 -6.63133 1.37776 13.9717 21
456 1 -4.66537 7.86635 -11.8534 21
457 1 12.5747 6.25008 3.83419 22
458 1 -9.32908 -10.948 2.25927 19
459 1 2.67309 6.28492 -6.53269 22
460 1 1.41322 20.3634 -1.41568 8
461 1 -0.683653 6.20047 -6.77483 22
462 1 -0.848768 12.173 15.4607 10
463 1 -16.387 -2.1341 -2.58246 10
464 1 -0.127349 15.9771 -4.71515 16
465 1 8.68449 13.7897 -7.91307 15
466 1 -5.47811 -5.08666 -7.84256 20
467 1 4.19988 5.28426 16.1063 19
468 1 2.50128 -13.2825 -8.4631 13
469 1 -0.485676 -5.98911 -6.58487 19
470 1 7.99094 -12.1532 1.34151 13
471 1 -8.67026 13.4956 2.3932 20
472 1 5.48371 6.59232 13.0116 24
473 1 13.7565 5.84941 -3.0827 21
474 1 2.14441 12.0775 -1.54877 20
475 1 -7.1521 9.88633 -11.7276 17
476 1 4.21696 3.54005 -6.32352 24
477 1 2.89383 -7.82643 1.3751 20
478 1 -11.0205 -5.60708 1.9974 22
479 1 -0.57429 18.3146 6.77112 13
480 1 0.419912 9.77992 -13.5443 17
481 1 16.0953 9.30651 -1.18332 12
482 1 6.63544 15.7761 -7.12223 15
483 1 7.46614 -3.43454 -2.26589 21
484 1 16.2755 3.54348 0.473937 14
485 1 0.632927 4.06835 -11.2337 21
486 1 4.66547 -8.7437 -0.940189 17
487 1 0.230068 -11.6302 5.35321 20
488 1 2.47524 -5.25151 10.7994 17
489 1 -8.57325 4.58134 -9.80585 19
490 1 -13.9819 -10.2061 4.47242 10
491 1 1.82002 -6.56362 -11.4778 15
492 1 11.5301 16.7519 4.27723 10
493 1 1.21613 4.44074 -14.2376 12
494 1 2.40478 2.60306 15.237 16
495 1 -11.2246 2.84881 10.2482 13
496 1 -0.534625 -15.1879 -0.84768 19
497 1 -10.755 -0.0371919 -1.56188 19
498 1 18.6191 -5.31208 -7.8614 5
499 1 12.0499 -0.506203 -2.26258 21
500 1 -2.76697 8.87432 -6.5773 22
501 1 -1.31526 -7.80599 -4.54036 18
502 1 4.63445 6.20658 -11.1451 18
503 1 11.7072 -0.813473 -7.5778 14
504 1 -4.81636 2.1137 18.6065 8
505 1 7.94243 17.3166 4.17811 13
506 1 0.719734 -1.83749 -13.1243 18
507 1 1.64896 4.18957 -18.37 10
508 1 -4.27023 -0.411999 9.3519 17
509 1 -4.05366 11.8613 0.253119 23
510 1 -7.41554 0.898549 -14.564 18
511 1 -12.904 1.57923 -2.45647 20
512 1 -1.62869 -7.44767 -12.3367 16
513 1 -6.8981 -7.82123 12.1593 9
514 1 0.855385 9.07711 -6.49576 23
515 1 17.419 4.12935 10.9225 10
516 1 16.9421 12.3787 0.439661 8
517 1 -8.74141 -14.2453 -1.68043 10
518 1 1.61158 -9.11863 -1.30628 17
519 1 -2.36357 -4.62898 -16.72 11
520 1 -7.67092 12.1517 8.01423 16
521 1 2.24964 -1.41283 -8.97089 19
522 1 5.73647 10.1567 2.03188 21
523 1 15.3829 -2.52971 -3.31494 16
524 1 6.36306 11.2403 -8.60556 18
525 1 7.10898 -5.56225 0.821919 19
526 1 14.2306 7.8145 -8.7509 12
527 1 6.04609 14.7261 13.3049 13
528 1 -12.3072 0.734377 8.2404 13
529 1 6.44117 13.0553 7.48581 18
530 1 7.9186 0.700343 15.8535 17
531 1 -2.05994 3.22152 -13.9608 20
532 1 -5.38247 -4.55137 -4.97774 20
533 1 -0.85668 -0.931385 9.31425 14
534 1 9.04819 11.0638 5.72003 22
535 1 9.04219 8.54176 -14.4933 12
536 1 -5.44596 16.0002 -5.41718 16
537 1 -0.998262 11.8612 -0.946947 21
538 1 11.766 1.18223 10.6519 21
539 1 9.02925 4.6616 -10.2277 17
540 1 12.9517 -5.96437 -6.08852 13
541 1 13.1889 11.4192 12.6677 9
542 1 -12.5886 -6.7501 4.36522 19
543 1 -7.30364 11.0708 -8.10967 22
544 1 1.33952 2.2715 12.4542 16
545 1 -13.3336 4.22577 12.642 14
546 1 -4.60054 14.9801 -8.34309 18
547 1 5.51621 -11.643 -7.20653 15
548 1 6.23941 -1.00153 -9.18196 21
549 1 -2.61513 17.1759 -1.30756 17
550 1 -7.75545 -2.19135 -14.8266 13
551 1 3.63602 -12.4156 3.69928 22
552 1 -9.6062 -4.41669 -3.54295 17
553 1 -4.51503 12.9578 -16.4949 9
554 1 -7.75108 4.02655 -5.0177 18
555 1 -2.47593 8.73328 14.0827 15
556 1 -14.1306 -4.68362 6.00874 15
557 1 7.45382 7.33097 -3.79362 21
558 1 4.9799 -9.58264 -15.4636 13
559 1 6.45221 -5.06179 12.7012 10
560 1 7.61419 1.46047 -3.99703 23
561 1 -12.6734 8.06314 0.435122 11
562 1 3.60731 7.4132 18.474 11
563 1 5.26645 16.7051 -4.77359 15
564 1 11.2355 -5.82257 -4.09407 19
565 1 1.97371 10.9235 11.1469 22
566 1 -2.45913 6.50568 -18.3894 8
567 1 -6.07568 -9.48422 9.3428 12
568 1 -0.808139 4.53005 -9.11393 23
569 1 4.32792 3.27057 -14.2537 14
570 1 3.3658 12.9967 8.11353 21
571 1 5.38415 8.24567 -8.79176 16
572 1 -1.72445 -2.5172 -14.8928 20
573 1 -3.79633 -10.7678 -8.64421 20
574 1 -10.5595 -2.24444 -13.4582 12
575 1 12.5959 4.16224 -0.298755 21
576 1 16.0508 7.9057 -4.34893 13
577 1 11.4294 -3.30819 -9.94103 19
578 1 13.9269 8.42313 11.9686 13
579 1 8.00715 -7.89908 -4.5642 17
580 1 -1.23797 4.60581 -16.6627 19
581 1 12.7638 11.7874 -3.3811 16
582 1 -7.61248 5.54071 2.85173 21
583 1 10.1583 9.0165 12.7174 20
584 1 12.9522 8.60349 -1.46439 21
585 1 18.433 1.62187 5.88522 9
586 1 7.57406 7.77679 -11.4334 18
587 1 7.33839 4.9463 11.9051 19
588 1 15.0808 3.50361 12.8038 15
589 1 2.8334 -3.93241 7.32499 20
590 1 11.5224 17.2034 -2.89772 9
591 1 3.01428 5.33962 12.7192 20
592 1 17.8219 4.85073 -4.65557 8
593 1 9.70757 3.40563 10.1273 22
594 1 -7.29801 0.962585 -6.68486 21
595 1 14.3417 6.44494 -0.244882 19
596 1 11.9946 -2.84072 4.24774 16
597 1 -11.9532 9.80997 10.1629 10
598 1 7.39257 11.453 9.96418 18
599 1 12.0223 2.10466 5.58175 23
600 1 -0.442163 11.7729 9.13588 19
601 1 4.27247 16.1811 11.1899 12
602 1 5.54702 2.13828 6.91717 21
603 1 -1.72691 -12.3959 0.608591 21
604 1 -5.64904 8.96875 -1.38735 22
605 1 11.317 8.97583 -7.06242 19
606 1 12.3705 0.433284 -13.0612 11
607 1 4.26288 14.1955 0.116719 20
608 1 -3.28508 -12.2435 -11.978 13
609 1 8.86579 -3.68201 -12.768 16
610 1 -12.2363 2.71638 4.18064 17
611 1 -5.74179 5.90581 -9.54381 21
612 1 -4.67172 -16.6278 5.0543 10
613 1 -4.95689 0.90595 -11.3898 19
614 1 -9.36937 3.05212 -7.21204 20
615 1 10.4115 -3.55386 1.59032 19
616 1 10.2984 11.9778 3.27078 22
617 1 0.738854 -5.99124 8.2254 19
618 1 -14.1615 1.85672 -11.4068 8
619 1 0.428746 1.55207 -17.5639 8
620 1 -1.54351 3.6398 18.4673 16
621 1 5.22347 13.4535 -13.0353 13
622 1 13.1645 0.788484 14.1028 12
623 1 12.7608 6.00205 -6.76949 20
624 1 14.6908 14.3126 0.192358 13
625 1 6.81232 -14.1801 -11.3107 11
626 1 -11.0106 5.74849 14.6142 11
627 1 13.8885 0.0364767 3.11654 20
628 1 -2.56849 11.4191 12.957 15
629 1 9.18718 16.6018 -9.64755 7
630 1 -9.37328 11.7848 -5.71558 16
631 1 11.365 9.9542 1.43191 20
632 1 -9.20282 -13.6787 1.26728 17
633 1 12.4645 -4.29883 6.90624 10
634 1 3.89279 14.2705 5.75962 19
635 1 -3.59456 7.24983 9.48065 23
636 1 -9.46868 -8.24335 1.50466 15
637 1 -9.30915 -0.645485 -7.34839 22
638 1 10.1197 2.02714 13.1895 19
639 1 -5.35521 -6.94528 8.58317 20
640 1 4.96267 9.86519 12.5508 22
641 1 -3.97415 14.0961 -2.72451 20
642 1 9.13901 5.91124 2.93208 22
643 1 7.51198 3.26018 3.8672 20
644 1 -0.661527 0.940725 -13.7379 15
645 1 -8.94411 1.33931 5.28617 18
646 1 3.16309 -1.61119 -14.9457 17
647 1 -3.24388 -3.02283 -6.0462 19
648 1 13.2407 -5.46245 -12.3352 13
649 1 6.97237 3.17352 9.43216 19
650 1 6.03573 6.05397 3.84964 18
651 1 -13.5702 7.77119 13.3628 8
652 1 12.0029 9.81445 6.98749 21
653 1 -1.71672 -1.38017 14.8117 10
654 1 1.26755 8.715 13.112 20
655 1 0.657661 -4.00557 -9.95949 16
656 1 -1.19482 5.36096 8.7786 22
657 1 7.20503 7.66682 10.633 24
658 1 -10.4925 -14.806 6.74738 11
659 1 10.5064 10.0801 -4.71292 21
660 1 10.1247 -10.9319 -5.53539 14
661 1 -2.66755 7.44025 -3.88795 23
662 1 5.43328 11.5557 5.26938 21
663 1 12.2854 13.9937 2.39856 17
664 1 3.3848 1.24165 -16.8622 11
665 1 -3.08654 6.8032 6.73199 19
666 1 4.72354 13.5995 -7.03509 19
667 1 13.959 10.8628 -0.957996 18
668 1 -11.0021 -11.7247 -0.220537 15
669 1 -2.02782 1.04958 -16.2811 16
670 1 -11.0348 14.3073 -4.38804 13
671 1 9.23335 -5.01364 -10.2534 20
672 1 7.37777 7.34202 1.33619 18
673 1 9.77168 10.8147 -11.6966 13
674 1 10.2584 13.4446 -3.64355 19
675 1 -0.0485856 11.493 4.29523 18
676 1 -4.19551 6.16814 -1.80106 18
677 1 9.30623 4.34679 -4.50861 18
678 1 9.67394 -0.251885 13.9433 16
679 1 10.161 6.08257 11.8427 17
680 1 -3.97835 -6.30028 11.5944 13
681 1 -4.44127 11.3238 -13.117 22
682 1 5.07506 12.9661 10.6832 22
683 1 9.36161 -5.38483 -15.5489 11
684 1 3.66308 2.50513 10.2165 22
685 1 8.72057 15.7479 -4.77453 16
686 1 2.06589 10.2231 7.78905 19
687 1 16.5495 -4.47102 -4.97644 9
688 1 5.6386 10.509 17.7003 11
689 1 -10.0619 -1.25903 6.94393 19
690 1 6.66882 -15.1592 -2.45758 14
691 1 -0.385194 -0.874086 -10.7392 20
692 1 -5.3393 14.055 5.81515 21
693 1 2.30614 2.37595 6.5766 23
694 1 8.04791 -2.57279 -7.50204 18
695 1 2.74858 10.8406 5.01345 20
696 1 -10.8218 -2.36659 0.95981 20
697 1 0.874638 1.17726 17.6331 8
698 1 -7.28699 11.1966 -16.0743 10
699 1 -9.7869 12.4905 -13.8304 8
700 1 8.78178 -12.356 -1.65647 13
701 1 9.7898 6.61499 -6.4931 22
702 1 5.94867 -5.45666 4.26132 23
703 1 0.885323 13.6703 0.93868 18
704 1 -13.48 8.00488 8.15211 9
705 1 3.62051 -1.96871 -18.0209 9
706 1 2.79063 -11.1651 7.27722 15
707 1 7.46361 17.2873 0.32046 12
708 1 -2.44462 1.69388 16.6 14
709 1 -7.90472 -4.80525 -13.2182 12
710 1 -3.35634 -9.90306 -14.54 9
711 1 -5.29938 -13.4858 -9.75423 11
712 1 -1.93435 15.9102 -7.22023 16
713 1 4.72027 -1.94411 -6.83531 19
714 1 -3.74019 11.2561 4.62423 18
715 1 7.80775 -12.6778 -8.50755 17
716 1 11.0398 -9.99519 -1.72567 13
717 1 4.52635 -6.99423 7.1213 19
718 1 16.5036 2.5426 -6.42162 12
719 1 3.23633 -11.4028 -5.503 14
720 1 -5.04507 -2.13678 6.96607 19
721 1 0.750547 1.61117 -9.21486 22
722 1 -5.34087 -15.3613 2.09883 16
723 1 -7.37716 -11.6417 -1.45887 19
724 1 -8.70042 1.08386 8.69901 18
725 1 -7.01501 -16.6592 0.605337 10
726 1 12.4234 9.23773 -9.75772 14
727 1 -5.7206 17.9631 4.71862 12
728 1 -4.67443 4.34789 7.47868 21
729 1 -13.2775 5.02163 1.68288 11
730 1 13.0841 -1.63247 0.49836 18
731 1 -12.6636 0.352951 -14.9432 7
732 1 -0.928842 11.8591 -6.72248 18
733 1 10.7405 3.57931 -7.65974 17
734 1 7.37855 11.9171 12.6326 21
735 1 12.5503 3.74638 -5.19428 17
736 1 -13.3316 4.49071 -10.1228 8
737 1 -10.3065 -1.53622 -10.0603 18
738 1 0.227376 7.10509 18.7153 14
739 1 5.76502 9.94438 -11.708 20
740 1 13.5363 12.7404 5.05994 15
741 1 -1.12723 3.90957 12.046 18
742 1 -1.63498 -18.7177 -1.93441 8
743 1 -6.39734 -14.2744 6.95982 16
744 1 -0.839251 -4.17008 9.88918 16
745 1 14.4897 10.1247 9.46624 11
746 1 5.37513 -7.3575 -6.45411 19
747 1 -6.28727 6.79919 0.52213 20
748 1 7.58466 8.88108 4.18495 19
749 1 -12.3381 -3.31569 7.98513 20
750 1 8.01926 11.5665 -14.09 12
751 1 0.218876 -14.7782 -6.49546 11
752 1 2.23067 -18.2372 -1.30794 9
753 1 1.57528 -16.2828 0.754035 14
754 1 6.03679 4.85253 -8.80452 18
755 1 7.22366 13.8687 -2.70627 19
756 1 -7.70848 2.66203 -16.5499 13
757 1 -0.394571 4.07581 14.7521 16
758 1 1.55004 7.13677 -12.5544 16
759 1 -10.0931 1.97332 -15.0898 13
760 1 -7.97446 -1.6896 -4.00388 22
761 1 3.05763 15.8063 -5.19143 17
762 1 9.17787 3.888 0.752802 18
763 1 -3.35726 -4.99872 -13.7714 16
764 1 -6.60465 -5.68102 -2.19235 17
765 1 15.3626 5.67435 -5.79203 16
766 1 15.7734 -4.77436 0.804736 8
767 1 -7.00707 5.57652 9.98661 21
768 1 7.2967 -7.87726 5.6799 18
769 1 17.4389 -2.54425 -1.04802 9
770 1 15.3327 -0.813334 11.7137 7
771 1 -1.43587 15.2705 8.11228 18
772 1 -8.49402 5.98354 13.0881 17
773 1 -9.02517 6.99879 7.69302 14
774 1 -3.15434 -15.6826 8.01989 10
775 1 11.1329 3.36115 2.94319 21
776 1 2.08455 10.9402 15.032 19
777 1 -13.4277 -1.58366 -2.46897 19
778 1 8.58055 -6.65045 -1.81378 19
779 1 -6.90956 13.641 -6.9603 19
780 1 4.70584 8.5085 4.73275 19
781 1 2.32722 -14.2075 5.94177 11
782 1 5.27865 2.50398 16.5516 15
783 1 2.44833 13.4562 3.66652 21
784 1 5.42838 -10.6626 1.93543 18
785 1 -5.97022 -2.59436 -1.34956 20
786 1 4.9236 2.91217 13.0084 25
787 1 -15.5303 0.753201 -3.25821 12
788 1 -2.9445 14.695 13.9322 8
789 1 7.75043 13.2458 0.530739 19
790 1 -12.3506 -8.96874 1.67106 14
791 1 -1.12576 -14.7592 5.45392 15
792 1 9.1146 -5.00538 10.4257 9
793 1 13.2952 -2.34215 9.93475 12
794 1 9.69989 7.72401 6.1461 24
795 1 -0.939246 14.8712 -1.02598 17
796 1 -1.72782 -8.7971 -7.0695 15
797 1 -7.29398 5.28102 -16.1234 13
798 1 -6.2255 -4.69072 13.5179 8
799 1 -0.89618 18.922 1.07339 13
800 1 14.0097 3.42752 2.51817 18
801 1 5.38208 10.3347 -3.44879 20
802 1 -4.31044 4.79609 17.7373 15
803 1 9.25232 6.49882 8.95999 22
804 1 5.84279 -6.70885 -10.0925 20
805 1 -7.0962 -9.38349 3.91709 20
806 1 -4.40934 0.199855 -6.47336 22
807 1 15.2067 2.18008 5.92545 21
808 1 5.98264 -3.695 -10.576 19
809 1 1.60753 7.06509 15.4958 19
810 1 9.42998 -12.9335 -10.9474 12
811 1 0.889964 7.29269 -17.7929 9
812 1 -4.35059 -8.17204 -3.48123 17
813 1 11.1728 8.15304 -12.2974 14
814 1 15.2374 -0.125727 -1.71914 16
815 1 3.2221 -3.07709 12.8674 15
816 1 -4.0058 -7.69104 -10.4773 17
817 1 9.08499 15.5283 -1.32571 18
818 1 -0.504511 -5.77383 4.66589 15
819 1 -12.9829 5.42098 4.80929 12
820 1 12.6424 8.23678 -4.5097 21
821 1 13.2278 9.4829 3.89003 18
822 1 3.53435 -1.76838 -11.6366 18
823 1 -8.51825 13.8486 5.44519 15
824 1 15.1152 6.36725 9.24305 21
825 1 12.315 15.127 -4.22916 12
826 1 6.33618 6.71102 -14.298 13
827 1 11.0368 -3.66346 -2.18888 20
828 1 -13.3574 6.20076 -4.60771 12
829 1 9.79582 4.93772 5.37255 24
830 1 -13.6962 -5.58183 1.15115 12
831 1 -5.7831 12.3289 -10.1262 20
832 1 4.71713 5.74371 9.76767 23
833 1 -13.9865 3.07152 -7.57993 10
834 1 -9.99506 5.04871 5.34816 19
835 1 -4.01788 5.64764 -14.4553 22
836 1 10.21 -6.83018 -12.2815 17
837 1 -10.2204 -7.58434 -7.9085 13
838 1 13.861 -4.90162 -2.24058 15
839 1 -14.0787 7.10321 -2.05169 11
840 1 -9.18429 -8.99885 -1.44068 18
841 1 13.1037 7.37796 6.20631 21
842 1 -7.72298 -8.35852 7.65174 16
843 1 7.51093 4.13545 14.8223 21
844 1 16.2987 -1.27391 8.87472 12
845 1 11.3668 -0.427907 3.59454 22
846 1 -11.9164 1.83911 0.909129 18
847 1 1.54715 14.6448 10.1182 18
848 1 2.46472 11.8475 -6.8659 20
849 1 0.742753 -4.40355 -16.1397 15
850 1 -3.86753 16.9663 6.8156 19
851 1 -13.9292 -10.6571 7.77738 11
852 1 7.35057 12.4686 -5.18459 22
853 1 2.7226 7.58083 10.4949 20
854 1 16.5108 -1.74198 -9.33698 10
855 1 4.31261 -2.44271 10.2048 18
856 1 -2.20874 15.1067 -10.7308 12
857 1 7.88039 13.206 -11.0309 16
858 1 -6.14219 2.42441 9.61439 22
859 1 17.0092 4.24388 7.56205 17
860 1 -1.28428 -2.83709 -8.13308 18
861 1 11.2401 13.1755 -0.430102 23
862 1 -11.6637 3.29365 -5.20271 18
863 1 -0.272021 -13.5977 8.36537 10
864 1 6.29126 15.5676 -10.3069 11
865 1 7.6796 -1.9446 9.28073 18
866 1 -1.34789 -15.1756 -3.57146 15
867 1 -6.92521 16.2175 1.75396 19
868 1 -11.385 9.32243 -4.49786 17
869 1 12.1569 2.83022 -10.5572 14
870 1 2.15058 -10.2801 -15.2953 10
871 1 -7.47876 8.34564 3.21878 25
872 1 12.1785 12.7529 -6.49271 14
873 1 -2.75786 2.17066 9.35302 23
874 1 6.71279 -1.5443 -12.8538 15
875 1 -7.25247 -8.98876 -9.81012 12