ITEM: TIMESTEP
28000
ITEM: NUMBER OF ATOMS
2000
ITEM: BOX BOUNDS pp pp pp
-30.0 30.0
-30.0 30.0
-30.0 30.0
ITEM: ATOMS id type x y z Coordination
1 1 -14.7767 7.08559 -6.23404 13
2 1 -7.52812 -10.2714 -9.40547 13
3 1 -0.903044 13.1977 13.2594 18
4 1 5.55403 -11.2957 10.0182 10
5 1 -11.6639 8.54844 1.29311 22
6 1 3.96246 -5.67587 -10.5074 17
7 1 -20.8937 2.91365 -3.06073 9
8 1 0.647759 -0.929086 12.5715 23
9 1 -6.90479 0.244484 -11.8586 16
10 1 -17.0119 -4.34572 9.59499 11
11 1 11.7102 6.13793 -5.58546 16
12 1 -10.0637 -10.3009 -0.428612 19
13 1 -16.907 -3.80435 3.20528 13
14 1 -4.22739 3.41488 20.2044 17
15 1 -2.6427 7.42064 9.95224 20
16 1 -2.04277 14.4794 -8.18613 16
17 1 1.22393 4.03972 17.6362 18
18 1 -9.31127 2.79888 -11.8571 10
19 1 -14.9527 0.0286524 14.6869 17
20 1 12.9321 3.98007 4.47207 15
21 1 0.689969 12.2513 -8.05889 18
22 1 1.7909 9.29992 -8.08542 18
23 1 12.8265 2.42846 13.6661 11
24 1 -16.7864 4.15973 -6.8679 12
25 1 -4.55623 -3.11741 -2.98075 23
26 1 -12.6956 3.5373 11.3393 19
27 1 4.61981 -12.2429 7.38179 17
28 1 -2.42811 -11.451 -9.95326 9
29 1 5.829 -10.6364 2.49281 16
30 1 -15.3314 -9.90676 -3.119 9
31 1 -16.0888 -1.75731 17.0608 8
32 1 0.304167 -6.72857 -8.1305 17
33 1 3.68452 -10.3054 -1.75374 19
34 1 -5.93652 6.45113 -13.752 10
35 1 0.0838984 7.29018 18.8089 15
36 1 -1.88185 -11.5818 7.72761 19
37 1 4.69064 -1.46321 17.2851 17
38 1 -12.748 3.25398 6.10845 23
39 1 -18.7938 2.85763 5.82422 15
40 1 -13.9066 4.18321 2.96078 22
41 1 -5.45966 17.2489 -0.261215 13
42 1 -4.88312 -12.2087 -8.30306 11
43 1 -2.33883 3.09673 -8.64903 22
44 1 3.55446 -2.88461 -4.847 21
45 1 -5.01419 -0.848895 15.5658 22
46 1 -12.5566 9.3645 6.9796 20
47 1 2.92258 19.0251 -6.0997 8
48 1 0.643014 17.8869 9.68615 14
49 1 -12.2733 7.22689 -1.46449 22
50 1 -2.4245 16.511 4.29762 13
51 1 1.63933 -7.50229 5.62309 22
52 1 4.84104 -5.16357 0.0241243 20
53 1 6.69948 -3.75459 -12.4135 10
54 1 -12.3572 12.0649 14.7626 10
55 1 -19.4408 -3.53386 -8.3239 8
56 1 6.27445 0.252863 7.70215 19
57 1 -13.1833 10.2309 -0.128559 21
58 1 -8.66885 -7.64482 8.41882 18
59 1 -7.77045 16.5998 12.0596 10
60 1 -13.8988 8.30074 -3.58927 16
61 1 -4.90989 8.82502 16.1018 17
62 1 -13.8889 -5.53902 6.86743 21
63 1 0.813373 6.61223 10.2672 19
64 1 8.18297 -12.404 -1.75352 9
65 1 3.60811 12.2504 12.2867 18
66 1 -11.9722 1.04728 -10.0277 14
67 1 -12.7875 2.13762 -6.5448 19
68 1 1.24128 10.1868 13.7059 20
69 1 8.677 -1.74552 -7.22988 16
70 1 6.847 -8.87852 8.22799 14
71 1 -16.1721 3.04008 7.20098 19
72 1 7.67359 17.8021 4.80116 10
73 1 -0.924499 -3.37693 19.9273 10
74 1 -14.1621 -8.03906 3.81565 22
75 1 -11.6539 0.948868 -1.99425 20
76 1 10.0962 6.21322 7.49848 20
77 1 -4.64617 16.4819 13.3863 12
78 1 4.61854 0.584964 10.5511 20
79 1 -6.21369 -5.67072 -2.98788 21
80 1 -14.0396 6.96806 12.1323 18
81 1 -8.67291 12.8766 -0.699494 17
82 1 -1.61201 6.61752 -5.61677 25
83 1 6.47241 0.475731 -2.4347 18
84 1 7.52161 15.3217 -8.61846 9
85 1 8.98753 -4.10217 7.66575 12
86 1 0.0107801 -12.6535 9.29448 16
87 1 -7.32301 17.7099 -2.48813 11
88 1 -12.4574 10.073 12.3928 18
89 1 -13.0865 -3.38746 17.428 12
90 1 -5.88584 8.65519 7.38577 20
91 1 -7.51908 -2.04329 13.9671 19
92 1 12.2661 -0.769731 -3.43558 11
93 1 -13.3898 5.71447 14.2229 18
94 1 -15.7516 -7.03892 8.52956 14
95 1 8.56643 -5.30835 -3.18042 17
96 1 4.35576 -4.17167 -7.45064 19
97 1 -4.26915 1.31662 -14.7799 10
98 1 -1.64772 12.624 4.84491 19
99 1 -13.6236 10.2318 -6.4894 8
100 1 -5.05449 8.34049 19.0466 9
101 1 -3.12517 11.6636 -3.72137 19
102 1 -17.6734 10.894 4.51882 12
103 1 0.0764941 11.7344 2.27334 18
104 1 -7.57333 -5.17501 7.22612 18
105 1 12.932 2.83843 9.99344 13
106 1 -0.681093 -6.9144 -5.3098 17
107 1 -4.22252 -3.48837 -8.57811 19
108 1 -6.09012 6.88355 10.1398 20
109 1 -0.928065 -0.251468 19.0558 18
110 1 -13.4419 -6.8056 1.29131 19
111 1 -12.2193 -7.04771 -3.91093 22
112 1 7.8289 -8.06195 5.068 16
113 1 -3.87848 9.32464 4.98312 22
114 1 3.0988 11.6653 -9.53554 15
115 1 2.29591 19.9813 0.382613 11
116 1 -12.6913 -8.28265 13.1005 11
117 1 -13.8591 -9.07353 9.74701 11
118 1 4.83043 -8.33573 -9.52986 12
119 1 3.1138 5.8988 -2.7535 22
120 1 7.21017 -10.9729 5.57498 11
121 1 -4.55725 -17.6237 4.00214 9
122 1 -14.6523 -4.71119 2.68931 22
123 1 13.7263 13.558 11.6386 12
124 1 15.309 5.05356 -8.21088 11
125 1 -18.3468 -3.24798 6.23395 10
126 1 8.22248 9.39205 13.3273 18
127 1 16.3467 13.0252 2.72378 9
128 1 -6.39015 1.22415 20.9452 12
129 1 -7.29073 12.3839 10.9364 18
130 1 -8.82666 14.882 -2.90286 14
131 1 -6.61896 -4.87294 -8.3727 19
132 1 6.84379 -9.95751 -0.940611 16
133 1 -4.41574 10.9424 -11.9352 12
134 1 1.94477 -1.29015 19.7968 11
135 1 -0.621518 2.46027 -13.7097 13
136 1 -3.46494 10.0398 -0.703153 20
137 1 10.1841 3.9551 -0.662909 21
138 1 -17.666 5.08817 -0.250051 14
139 1 -10.3741 11.6436 1.27133 18
140 1 13.1471 6.39305 -10.3842 9
141 1 4.84172 -7.90312 5.0794 23
142 1 -7.60403 2.91559 -4.0498 20
143 1 -9.89606 12.0479 13.0706 17
144 1 12.5839 14.6139 -5.40971 7
145 1 5.28408 11.2536 -0.788753 23
146 1 -7.51172 16.575 2.64162 11
147 1 5.61424 13.8704 0.958296 16
148 1 -4.89579 15.0118 2.01405 16
149 1 -2.42648 17.4422 -7.78621 8
150 1 1.59448 2.00996 -12.1035 17
151 1 -14.0749 0.946813 1.45466 19
152 1 -17.7271 8.04813 4.22597 14
153 1 -6.17956 -0.302364 -8.32198 19
154 1 1.52598 -7.68845 -11.3431 12
155 1 8.73752 15.0852 12.3358 15
156 1 3.13243 18.7753 3.71913 12
157 1 -14.928 -0.314152 -1.14837 16
158 1 -16.2145 13.1224 2.53774 14
159 1 16.5418 3.8897 -1.49585 14
160 1 -11.6494 5.33156 -10.8764 7
161 1 4.63567 4.25386 19.8228 12
162 1 4.57628 16.3904 8.76516 17
163 1 0.854064 12.759 10.732 22
164 1 2.19679 -3.29586 -8.41552 22
165 1 -5.67665 13.1412 8.08868 16
166 1 -3.53487 14.4587 -1.16649 15
167 1 2.21784 1.33737 16.4586 19
168 1 -11.4574 -1.51341 9.63842 21
169 1 -6.94883 -10.1247 -12.9911 8
170 1 -10.3249 12.1504 -3.26381 16
171 1 -5.8157 -5.68088 10.0369 21
172 1 2.64067 -14.6119 -4.21884 7
173 1 -2.09494 13.2485 -5.62565 17
174 1 -13.2232 -0.225735 11.7785 23
175 1 7.18835 16.1843 -0.477245 11
176 1 -2.69632 6.25434 20.865 11
177 1 5.51605 -8.31385 11.0383 16
178 1 -14.1668 5.91154 0.849244 19
179 1 -2.76578 17.181 8.04242 14
180 1 -0.682163 10.3666 10.8959 19
181 1 11.8376 5.99347 14.4805 12
182 1 -9.25227 15.3337 6.4221 11
183 1 10.1537 -3.14096 -4.9193 16
184 1 -6.65774 14.046 13.3415 17
185 1 -9.19924 3.34196 -7.59287 15
186 1 11.771 -3.62039 7.01373 11
187 1 -10.5303 -6.03006 7.13467 18
188 1 -18.0558 5.94549 6.91734 14
189 1 -12.5734 -2.37167 6.92456 22
190 1 6.85147 9.13039 16.1439 11
191 1 -20.3244 5.27808 -1.16398 10
192 1 -8.46475 -12.4073 4.4813 21
193 1 2.11125 -7.62117 0.103267 21
194 1 -4.04754 11.6101 6.60866 17
195 1 3.88013 16.1177 12.5203 14
196 1 -14.8161 0.200934 -5.75146 16
197 1 -8.4177 12.5801 -5.68507 13
198 1 -17.3894 1.3128 -4.26701 14
199 1 -17.5847 -2.6858 14.6395 8
200 1 0.242537 -8.76527 8.24742 20
201 1 2.04219 -7.67045 10.0414 18
202 1 -12.2474 14.0087 2.70144 17
203 1 15.429 4.08625 2.1117 14
204 1 4.95654 3.22293 -2.78856 19
205 1 -7.30288 -6.67185 -12.7376 14
206 1 2.15982 -3.93954 13.1715 18
207 1 2.59559 -10.9554 10.3826 16
208 1 -12.0311 7.80022 -8.02755 13
209 1 1.15181 -11.8603 -11.2587 7
210 1 8.34587 6.62102 -5.32686 21
211 1 -0.564333 7.50352 -10.4857 18
212 1 -12.8871 -2.0338 -2.63822 15
213 1 -6.17822 15.7515 -4.57496 13
214 1 -13.4016 -5.07853 14.6974 15
215 1 5.65653 20.0994 -0.595351 5
216 1 -9.06046 -1.27869 20.6669 10
217 1 -12.6197 12.9981 -0.918426 17
218 1 9.70466 4.49807 9.88314 20
219 1 -4.64671 -1.76498 -11.1274 20
220 1 -4.2867 8.08197 -3.65667 19
221 1 2.20908 2.82594 -9.14457 18
222 1 -9.50088 -9.04865 13.2666 10
223 1 -9.15049 9.34721 12.0956 19
224 1 -10.0588 11.9585 16.5471 12
225 1 -4.20918 -7.80569 -12.505 15
226 1 -10.6047 -11.7462 7.13381 16
227 1 4.707 -7.98613 0.582783 19
228 1 9.52344 10.9695 15.3362 12
229 1 4.58702 13.2233 -5.6961 19
230 1 -5.29852 12.1931 -0.360281 16
231 1 -10.9513 6.14858 6.03118 18
232 1 -13.0458 10.9516 3.36817 21
233 1 -0.863644 7.3651 13.2252 22
234 1 0.87956 -16.239 1.33696 8
235 1 11.334 2.66546 2.18722 23
236 1 0.98182 8.94466 7.91364 22
237 1 -14.8032 8.94681 5.08198 18
238 1 -18.7756 -0.737187 -1.668 16
239 1 5.14989 9.40776 -10.0821 12
240 1 3.20192 -1.72037 10.5989 20
241 1 8.87152 12.0589 -8.70523 9
242 1 0.698506 -8.71318 2.88336 22
243 1 -8.23246 0.93831 -6.30483 19
244 1 -2.40497 -16.6849 6.44526 12
245 1 7.37184 -2.16171 -4.02085 17
246 1 -9.75229 1.2948 10.2338 22
247 1 1.66025 -13.6457 -1.20582 15
248 1 -12.2519 -7.44273 -6.91168 13
249 1 1.6711 14.404 -2.55893 21
250 1 2.17477 -1.26145 -10.5496 20
251 1 2.67715 6.4695 18.6486 18
252 1 14.4671 1.3941 3.03107 13
253 1 6.2389 -6.75943 -7.84172 17
254 1 -5.44101 -4.53219 -12.0211 21
255 1 -14.06 4.22084 -8.68698 11
256 1 -7.53369 -10.5377 10.1176 16
257 1 7.43016 2.075 13.1684 17
258 1 4.02471 -5.25344 10.5771 20
259 1 -10.958 -10.0312 -8.89285 6
260 1 -1.16399 -6.95154 11.6242 17
261 1 -4.72495 8.98415 -9.24626 17
262 1 3.14076 9.90757 5.38722 22
263 1 -9.31538 -4.1913 4.78069 21
264 1 -2.88776 13.5051 9.00631 17
265 1 -5.25698 0.211095 13.2084 20
266 1 -18.176 -5.39442 -5.12474 14
267 1 -7.73244 -3.5671 -13.8272 10
268 1 -5.29056 9.44905 -14.774 7
269 1 -7.05529 -12.5881 -5.60492 10
270 1 -4.76959 -7.20075 5.22132 23
271 1 9.77675 -5.50267 -7.44896 12
272 1 14.8955 8.10301 -8.60151 9
273 1 13.6269 8.08296 6.20448 19
274 1 -7.49588 -6.28477 17.0008 16
275 1 -8.72282 -7.98202 0.758077 19
276 1 6.04189 5.99572 17.9477 12
277 1 -5.20339 -10.8418 7.81103 22
278 1 -8.19107 -10.4515 2.04485 22
279 1 0.0826891 18.7084 2.34674 16
280 1 6.9824 0.321776 -9.42888 17
281 1 -5.13652 -2.04806 -14.2322 16
282 1 -9.80332 -4.51663 15.6067 19
283 1 -1.94257 3.23622 18.5078 23
284 1 0.165076 -10.4528 -0.87523 22
285 1 -5.0614 -10.089 -11.0221 14
286 1 -5.64719 3.46066 -9.72041 15
287 1 14.9146 10.2781 4.38974 18
288 1 -8.3548 7.01567 -6.11215 17
289 1 -2.51258 6.41251 -8.61142 18
290 1 3.43496 -11.6943 -6.26422 11
291 1 -12.6474 16.0501 -1.44449 8
292 1 1.26889 13.1758 5.00759 21
293 1 13.3874 0.318195 7.8554 10
294 1 -9.76648 -3.61698 11.1197 18
295 1 -6.13717 -8.27109 12.2481 21
296 1 -9.16235 8.69528 6.47924 17
297 1 -0.991382 -4.05377 -7.74936 21
298 1 10.6882 11.3024 -2.80204 17
299 1 1.72014 -11.1154 7.00422 22
300 1 -1.82745 -2.50976 16.2622 20
301 1 -14.8217 -1.58286 9.66136 21
302 1 -4.50139 -13.9001 3.20839 14
303 1 -10.8113 8.579 18.563 12
304 1 -10.4255 4.86828 18.593 8
305 1 -15.8335 1.23676 9.94957 19
306 1 -14.71 -5.92981 11.5152 16
307 1 11.7392 1.05954 -0.430284 21
308 1 -13.4203 -7.51626 16.3059 9
309 1 10.1071 3.96313 -6.57176 15
310 1 10.195 -6.06831 -0.961109 13
311 1 3.86353 17.605 1.47895 14
312 1 -14.9422 14.6354 0.512566 10
313 1 7.01447 12.1802 11.864 17
314 1 -12.3055 1.35402 3.61619 22
315 1 7.7099 -4.99452 0.360527 18
316 1 -6.29318 13.449 4.61234 15
317 1 -10.8649 9.60176 10.1985 14
318 1 3.80951 -7.19037 13.1158 11
319 1 9.76781 0.481221 7.62524 20
320 1 -5.8794 9.43756 11.3709 22
321 1 -8.40434 -5.31481 -0.0981645 18
322 1 -6.65386 1.41446 16.0207 21
323 1 -5.60186 15.9742 7.459 14
324 1 3.06458 9.84568 18.0979 10
325 1 -10.5994 19.0766 -1.25553 5
326 1 3.43318 0.172214 -14.5172 11
327 1 3.30199 -10.6452 -11.3473 8
328 1 -10.0132 2.73111 16.3194 19
329 1 -14.4486 0.494778 6.95432 20
330 1 -3.2489 -5.06822 -6.39333 19
331 1 -7.1905 9.64265 4.67546 22
332 1 8.48858 1.17933 10.2716 19
333 1 -18.3665 -4.01451 0.307461 12
334 1 7.29111 -5.31962 10.659 12
335 1 -9.99921 -7.85542 15.662 14
336 1 -16.8595 13.6035 5.92837 9
337 1 0.145276 -3.90263 15.0839 16
338 1 -1.71452 -8.05578 -10.6156 14
339 1 -4.75972 1.13571 -6.68854 20
340 1 9.16902 6.55245 -7.83692 17
341 1 5.72283 13.2567 4.56074 19
342 1 -15.5113 2.78562 -3.63051 17
343 1 5.17919 -6.6293 -4.93022 17
344 1 8.46115 9.478 -6.81957 17
345 1 -12.9151 -11.8685 -0.347472 10
346 1 -16.6074 -3.668 -2.40239 16
347 1 -6.97019 -9.83226 5.40971 20
348 1 9.37561 7.10173 14.4874 19
349 1 8.21592 6.83161 -0.568377 19
350 1 -10.3747 3.87606 -1.52829 20
351 1 5.21133 16.4599 4.51461 18
352 1 -20.391 3.04796 -6.55738 11
353 1 -13.1818 7.78081 9.56072 19
354 1 -11.0856 12.4955 5.72598 16
355 1 -7.57953 3.71153 9.72451 17
356 1 3.6471 4.11403 15.8473 21
357 1 8.02415 3.44442 -3.26115 18
358 1 2.90261 1.43212 19.3772 15
359 1 10.1405 5.69953 -2.63874 21
360 1 -13.0133 -9.00697 -1.55558 18
361 1 -1.21202 -7.78155 0.369168 19
362 1 -0.249892 9.53388 4.88715 20
363 1 -13.1578 5.10361 -3.85584 21
364 1 6.30805 -9.86427 -3.78257 16
365 1 9.8404 -1.29316 13.4022 14
366 1 -17.4199 -2.14944 -5.41159 16
367 1 -11.7012 -6.46338 4.38435 21
368 1 -4.86678 -5.33051 19.1377 11
369 1 -3.50374 11.1994 2.42761 19
370 1 -14.4877 -9.07289 0.953011 15
371 1 0.602071 9.73058 16.4866 13
372 1 -11.4372 9.23764 -4.5689 20
373 1 -0.137829 17.3004 -4.71007 16
374 1 4.40262 14.1701 7.28486 20
375 1 -14.0823 -5.41298 -1.39204 19
376 1 -3.9838 -7.88097 -0.0755809 20
377 1 -19.7264 0.133944 4.25079 10
378 1 -16.3185 10.1881 2.09884 17
379 1 2.28199 -5.29727 8.23566 19
380 1 -10.4604 -9.75288 5.02519 23
381 1 11.5367 16.0848 12.6918 8
382 1 2.17017 14.3052 -10.272 10
383 1 -11.747 5.11869 -6.80506 17
384 1 -2.96373 16.0685 -5.16998 15
385 1 -10.0531 10.0215 -1.77192 20
386 1 -2.5889 -8.5959 7.92919 23
387 1 11.5328 9.11801 7.80941 21
388 1 -1.7494 9.63802 -13.0775 8
389 1 -5.50656 3.37435 12.7018 21
390 1 -19.4604 5.28337 4.21866 11
391 1 -10.8954 4.15344 13.702 20
392 1 -6.05038 -8.13335 8.2739 23
393 1 1.11271 -4.59011 -5.51324 20
394 1 -10.9434 4.59958 9.06484 17
395 1 -17.5195 -1.35064 8.5111 14
396 1 -15.4401 9.98249 10.3938 11
397 1 -2.59456 -4.33367 10.3867 19
398 1 -5.72555 6.54648 -9.71403 15
399 1 8.11407 -7.73221 -5.1632 20
400 1 -5.70497 -9.21427 -8.19108 17
401 1 -4.53301 -3.45531 13.7521 21
402 1 -6.24801 3.36072 -12.4392 15
403 1 4.84924 -12.7428 4.56572 14
404 1 0.297251 11.7153 -3.12907 22
405 1 -13.1209 12.4699 10.9739 13
406 1 -6.41092 -3.16218 20.8414 10
407 1 -15.1812 1.14348 -9.37102 11
408 1 -9.86056 -0.574048 12.5306 22
409 1 10.8528 -1.76355 9.92741 14
410 1 -0.21134 3.91326 -5.71008 21
411 1 5.61518 -6.4518 8.06579 20
412 1 15.6996 9.46053 -2.7296 13
413 1 -8.73295 -0.594926 16.136 23
414 1 -1.9927 16.5807 0.824658 19
415 1 6.89572 -2.20492 9.71876 15
416 1 -7.92675 -10.8802 -3.22129 19
417 1 -6.95945 3.21059 18.2929 19
418 1 -7.86563 16.2376 9.51465 10
419 1 -13.2773 -9.49816 -5.53282 13
420 1 12.4508 12.3457 4.43523 16
421 1 2.65882 9.82437 10.6769 21
422 1 -10.7939 7.11559 12.1582 20
423 1 -8.75312 -8.415 -2.02412 18
424 1 -14.8612 3.44167 15.9734 9
425 1 -14.9561 -4.57998 -4.9431 20
426 1 -7.74431 9.93661 8.97171 16
427 1 -7.59193 -6.24718 -5.29039 22
428 1 -2.66229 -3.74841 -12.8759 19
429 1 -11.3503 -9.42128 2.2208 19
430 1 -9.27261 -2.69101 7.41218 20
431 1 8.10869 3.47447 7.50239 21
432 1 -4.32826 -6.80543 15.814 15
433 1 -5.08942 6.91024 -6.4759 23
434 1 5.78198 5.79705 3.28241 20
435 1 -15.3627 -11.7128 3.63438 10
436 1 0.87025 17.3628 -1.06869 21
437 1 -3.75424 9.63437 -5.83917 20
438 1 -3.81188 6.14143 18.1119 17
439 1 -22.1434 5.36388 -4.46017 6
440 1 1.10488 19.3994 -3.07637 10
441 1 3.63888 14.7136 -8.05153 18
442 1 -8.34602 -2.86591 -6.09997 19
443 1 1.09905 5.25667 20.6578 13
444 1 1.77036 -11.5119 -4.26571 16
445 1 -2.71938 -1.732 -5.98501 23
446 1 1.61279 -12.2447 4.18794 17
447 1 -14.7437 15.6791 4.00926 10
448 1 3.95483 6.97934 15.5643 18
449 1 8.30844 9.01504 3.3005 19
450 1 3.87188 11.9497 2.35359 19
451 1 -10.2711 3.17397 -4.53327 22
452 1 5.22785 2.12969 -8.22977 17
453 1 -1.19945 -7.07184 5.46328 24
454 1 -17.0887 1.84826 -0.635346 18
455 1 4.75194 18.946 6.51515 10
456 1 -8.42975 6.12644 -11.7 12
457 1 12.2367 9.05809 1.99651 17
458 1 3.24591 16.0977 -4.58587 18
459 1 7.67534 -5.15899 5.52416 21
460 1 16.3479 3.80227 -5.06244 11
461 1 -2.76478 -0.112214 -8.65581 20
462 1 0.0485246 -12.9421 0.919565 14
463 1 -5.02092 -16.9373 7.82432 9
464 1 3.95928 -3.31163 14.8012 13
465 1 -12.4172 0.4412 -4.35769 18
466 1 -11.9989 -6.83683 10.0927 17
467 1 -4.71459 -6.88319 -5.43057 16
468 1 6.00408 16.9316 11.6001 11
469 1 -1.63231 9.34153 -8.40389 20
470 1 5.133 1.0997 15.2966 17
471 1 -16.4113 5.76712 13.576 12
472 1 -7.61512 -13.7251 2.05551 16
473 1 -15.5814 -3.40639 6.20087 20
474 1 13.2683 4.03297 -0.701697 21
475 1 8.61296 1.18902 0.0756274 21
476 1 -8.12454 9.15437 -4.11666 22
477 1 -0.00342561 -6.01022 -2.06911 20
478 1 1.94258 6.89124 -5.50474 23
479 1 12.0904 -4.07813 -2.42407 14
480 1 -11.3612 -0.643057 17.9587 14
481 1 13.3696 11.3546 1.63536 20
482 1 -2.52155 -0.186947 -12.9884 18
483 1 7.16483 2.39754 -12.0437 13
484 1 -7.86656 -1.24581 9.93648 17
485 1 -9.76874 16.2365 -0.501423 15
486 1 -11.061 -2.17214 -9.80466 13
487 1 -20.6716 2.84979 2.0751 8
488 1 -4.94323 -5.36133 -15.3626 11
489 1 -6.68099 -9.07039 15.1189 12
490 1 -1.73007 8.80088 -3.1974 22
491 1 13.2391 5.07719 11.4576 12
492 1 15.6536 9.31065 1.02742 15
493 1 -16.9923 -9.09878 2.40554 11
494 1 -2.57393 -8.80788 2.71237 20
495 1 3.4562 -4.90211 -12.9747 13
496 1 -7.02289 11.8552 16.1796 12
497 1 0.227257 -1.48402 -5.5554 21
498 1 9.31744 0.187975 2.39075 24
499 1 5.75193 16.0378 -6.41907 11
500 1 4.04257 -5.04627 5.4029 22
501 1 16.1309 9.95543 -5.76693 8
502 1 -1.51589 16.009 15.2608 9
503 1 -12.4121 -2.97381 12.1005 19
504 1 6.67058 9.23693 10.4383 20
505 1 6.12832 1.2428 18.8885 14
506 1 1.54573 5.23462 -12.8687 11
507 1 -9.60206 -5.7462 -3.71303 20
508 1 -0.872613 1.71412 12.6647 22
509 1 9.48862 10.3771 10.1871 22
510 1 4.64862 8.86215 -2.46723 23
511 1 -6.9045 9.68076 -1.00448 21
512 1 2.07919 12.4792 -0.328627 20
513 1 10.4232 -1.07382 16.8764 10
514 1 11.7907 8.34051 -7.80966 12
515 1 7.83331 -7.95634 1.36717 18
516 1 10.1068 12.3774 12.8113 19
517 1 -13.7209 -3.14268 0.33716 15
518 1 -9.50931 9.4957 -7.51259 13
519 1 -2.52941 4.56764 13.5378 23
520 1 -16.9604 -0.27902 12.2879 14
521 1 -6.6704 12.0535 -3.39327 19
522 1 -5.28233 -8.78107 -2.88422 20
523 1 5.01445 1.26062 -5.25861 19
524 1 -3.78006 17.062 -2.63479 15
525 1 -9.14051 -4.98572 -10.2287 13
526 1 -2.26444 -11.998 2.35037 15
527 1 -18.5493 1.51329 1.32794 14
528 1 -0.679942 11.9008 -10.4559 12
529 1 -1.91792 8.026 15.5582 18
530 1 -15.4811 -2.93135 12.4579 17
531 1 4.82447 8.74826 2.82896 22
532 1 -6.43164 -10.5309 -0.479341 22
533 1 6.90097 -2.76338 15.1275 15
534 1 -12.1703 7.15709 3.75644 23
535 1 -1.30949 3.83578 22.3318 11
536 1 3.2174 11.4159 -3.10424 24
537 1 10.0908 -1.85421 -0.0559016 19
538 1 4.86119 12.2912 9.94653 21
539 1 4.56733 2.89008 -13.2827 14
540 1 -9.06179 -6.58979 11.1871 16
541 1 -1.64555 1.3244 -6.01014 22
542 1 6.39078 7.02281 -8.29604 18
543 1 2.34945 16.0132 6.96641 21
544 1 5.07341 10.2107 -7.51632 17
545 1 -0.820867 -2.26553 -11.1184 22
546 1 -9.58848 -8.55947 -5.95603 18
547 1 -12.7362 -3.93717 -7.28843 12
548 1 8.52631 5.96314 2.326 18
549 1 14.9304 6.33938 -0.33619 13
550 1 6.94022 -4.21506 -5.84698 22
551 1 9.1238 14.4698 15.0864 10
552 1 6.55359 -6.36835 -1.9845 23
553 1 4.57889 4.76877 -11.0895 13
554 1 9.79913 16.8651 7.51432 9
555 1 -10.6582 3.95688 3.65429 23
556 1 6.26426 16.6972 15.2399 6
557 1 9.7167 9.85784 0.277557 21
558 1 6.28528 4.19242 5.68348 24
559 1 11.5147 8.87774 -3.97489 18
560 1 0.875012 4.46199 13.1569 20
561 1 15.2897 11.3102 10.6913 10
562 1 6.61488 -5.95203 13.9044 12
563 1 10.0384 15.2537 0.984215 10
564 1 0.30128 1.90351 20.8589 14
565 1 13.7635 6.5645 -2.93245 18
566 1 7.72087 5.81664 11.5912 20
567 1 -10.7022 0.0727294 -7.35554 20
568 1 11.1405 9.97409 4.90339 22
569 1 8.48132 -1.48505 5.21627 19
570 1 -12.4027 9.2672 16.0897 13
571 1 6.67829 13.4864 16.295 8
572 1 6.7191 4.17319 15.4551 19
573 1 2.62221 11.5857 8.16182 19
574 1 -7.08877 8.38371 14.0012 17
575 1 6.72673 3.52879 10.1825 19
576 1 -6.65075 -16.5767 2.58196 10
577 1 -10.6104 16.6769 3.35493 9
578 1 5.43921 14.4354 -2.44996 19
579 1 3.51895 -0.311677 -8.071 22
580 1 -1.25677 18.7227 -1.32771 11
581 1 -5.58222 -13.2684 -0.156111 13
582 1 6.83595 -3.93838 -8.75182 19
583 1 -14.1284 4.44203 8.47347 19
584 1 -6.62291 10.1058 -6.45505 19
585 1 -9.41275 -15.2483 4.28905 13
586 1 -7.90437 -2.59326 -10.8543 15
587 1 -17.8914 4.08876 -3.14715 16
588 1 9.37732 -6.29917 3.16852 17
589 1 15.3769 6.67537 3.50911 11
590 1 -1.51585 -3.22908 12.8837 20
591 1 -21.0959 -0.467976 -7.70094 7
592 1 4.36665 0.947248 -11.0432 22
593 1 -3.03563 2.10836 15.0478 25
594 1 5.71494 13.0225 -9.51097 12
595 1 12.2685 2.01746 17.1901 8
596 1 4.67757 6.84089 -5.48072 22
597 1 14.1781 14.3868 5.98519 12
598 1 5.41934 -13.4917 -2.5531 10
599 1 -15.9978 -4.74128 17.068 9
600 1 15.0245 1.33401 -0.230772 14
601 1 -2.06949 17.5489 12.2891 12
602 1 7.6763 13.9555 -4.52605 15
603 1 -15.5428 8.18017 -0.136434 17
604 1 9.98629 11.894 7.72847 20
605 1 -12.5254 -8.82141 7.50596 21
606 1 11.5476 0.654574 4.82264 22
607 1 3.97039 16.4387 -1.14836 17
608 1 -8.2473 5.80177 12.5472 19
609 1 -12.6632 -3.951 4.30062 19
610 1 -9.52009 -0.451855 -3.93121 21
611 1 6.08107 7.25956 13.5853 20
612 1 -3.46595 -9.39404 13.1808 15
613 1 4.81811 10.1032 13.1534 19
614 1 -6.90384 11.5332 2.00666 21
615 1 8.05533 8.91822 7.3719 21
616 1 6.51806 6.10389 8.44605 25
617 1 6.51154 -0.240932 -13.4161 11
618 1 -12.5625 1.55729 8.87432 19
619 1 9.99085 4.85185 -11.3032 9
620 1 9.37096 -9.15525 -2.30389 12
621 1 10.0303 4.39233 13.3816 18
622 1 4.54933 6.98962 10.568 19
623 1 -9.36419 1.18861 18.5554 17
624 1 11.0083 9.20129 12.7439 18
625 1 -6.54811 -3.27743 16.4358 20
626 1 -2.14724 5.48164 16.3742 19
627 1 0.800668 -5.16884 -10.5438 17
628 1 -7.53419 4.10098 15.0267 16
629 1 4.88316 4.38381 13.0808 20
630 1 -10.2368 -9.8354 10.1144 16
631 1 13.045 10.0085 -1.33959 21
632 1 -1.6621 -8.69548 -2.74087 19
633 1 2.70657 9.78227 -0.121149 22
634 1 9.96917 14.3877 9.39617 18
635 1 2.75042 -2.52123 -15.6761 8
636 1 -1.63562 14.5581 2.78253 19
637 1 15.185 12.406 -0.275309 14
638 1 -17.398 -6.77085 1.28954 14
639 1 0.818425 -1.06748 -13.3791 17
640 1 -10.5468 9.64674 4.06571 21
641 1 5.8518 -1.61693 -6.22009 19
642 1 6.64833 11.6318 -3.80937 18
643 1 8.18681 11.8412 5.42014 20
644 1 -8.54855 7.25653 3.68087 20
645 1 4.5171 7.15396 0.399946 24
646 1 9.48399 4.01364 16.2096 14
647 1 9.32239 0.889135 18.4851 12
648 1 -3.79597 -8.74542 10.5053 22
649 1 -6.74335 11.822 -9.29869 11
650 1 0.682553 17.1299 13.7693 9
651 1 3.48075 -8.56612 -5.89341 16
652 1 2.67043 1.79286 12.9824 24
653 1 4.36053 18.5963 -3.58296 11
654 1 7.64292 14.5814 6.81235 21
655 1 13.1955 -1.85909 -0.627964 13
656 1 3.22617 12.1309 15.6074 11
657 1 -14.281 -1.54131 4.28546 22
658 1 3.45308 -14.7441 5.92281 13
659 1 0.573155 -0.0514859 -8.15128 18
660 1 -10.1948 14.2786 11.4222 12
661 1 1.44349 18.7517 6.93388 9
662 1 -17.1799 -1.04038 1.59568 19
663 1 -4.10043 0.959007 18.4468 22
664 1 -7.01238 8.81922 -11.6757 14
665 1 -10.2753 6.46742 -3.82859 19
666 1 -5.46623 -11.016 2.39069 22
667 1 8.4097 9.06843 -2.79305 21
668 1 -13.1867 6.32745 17.3787 12
669 1 0.661687 -4.17729 -12.7712 19
670 1 -2.60338 -14.8159 8.55655 13
671 1 1.18411 15.8515 1.528 19
672 1 -3.61821 -2.15539 19.078 18
673 1 -7.71203 -7.35421 -8.37527 18
674 1 -9.56355 -8.4366 -11.4736 10
675 1 -6.06066 -9.21314 -5.18226 16
676 1 -1.3258 14.2094 -2.98667 21
677 1 5.37173 -3.26136 -2.56417 20
678 1 -3.71614 12.5282 11.9702 20
679 1 2.91637 -5.73005 -3.06425 19
680 1 4.25985 -15.8681 3.04984 9
681 1 0.486854 -4.04803 10.6299 22
682 1 15.8598 6.95267 -5.96685 12
683 1 -0.974531 -12.1522 -3.31721 13
684 1 -17.2492 0.0879188 5.96523 15
685 1 -12.5634 -14.276 5.05755 8
686 1 -10.7277 -9.86276 -3.9479 14
687 1 -11.4491 -1.81914 14.9597 18
688 1 -15.7253 -8.86553 5.90144 13
689 1 15.2368 14.9952 -2.89003 5
690 1 -0.14387 15.5736 4.79566 18
691 1 -13.5959 13.7602 5.52391 14
692 1 8.3974 1.38322 5.20876 20
693 1 -13.5051 -1.15504 -7.54234 16
694 1 -0.0195302 14.1408 0.364459 19
695 1 13.3791 3.43606 -6.09828 14
696 1 7.26713 14.7078 9.43147 18
697 1 6.32849 6.32472 -2.22251 22
698 1 -15.4442 5.89472 -2.59224 17
699 1 -20.6846 -0.223498 -4.04497 8
700 1 -6.67613 6.17413 16.4512 15
701 1 3.95192 4.93744 -7.95746 21
702 1 12.4602 14.2263 7.81461 19
703 1 -2.74494 -1.01899 13.4499 24
704 1 -11.4571 -12.8641 2.79344 14
705 1 -8.17593 -10.8912 7.5131 19
706 1 -3.88561 -6.24223 12.6044 17
707 1 11.9767 11.5872 9.95009 19
708 1 -2.51849 -8.35905 -6.89264 18
709 1 -8.73824 9.2148 0.97678 19
710 1 6.06112 9.57994 5.44782 20
711 1 -10.7686 -1.55757 4.52182 18
712 1 5.85313 9.24831 -5.12213 18
713 1 -9.51817 -12.7825 0.128709 14
714 1 0.951941 -16.1255 4.40316 12
715 1 -3.96194 -9.9171 5.31117 22
716 1 3.27096 3.84207 -5.40848 20
717 1 3.36097 14.6916 3.4256 16
718 1 -4.03839 1.63449 -10.9932 21
719 1 -0.0543689 2.85466 15.5386 21
720 1 -2.42669 6.22975 -12.944 12
721 1 -9.26503 0.445881 -9.67488 16
722 1 -11.2315 -3.43823 -4.18921 20
723 1 1.48708 13.9767 -5.21482 20
724 1 -1.78445 -4.63338 -15.39 6
725 1 -10.6156 -4.69192 1.96073 21
726 1 11.9909 13.3053 -0.733667 17
727 1 11.7096 -4.3004 1.37779 12
728 1 -4.59466 3.87956 16.4887 22
729 1 2.29789 -10.9577 1.06692 16
730 1 12.2563 -4.92807 4.66142 8
731 1 10.8806 0.545171 11.3881 13
732 1 -0.667237 11.5742 7.97024 23
733 1 -12.3584 1.22277 15.6769 14
734 1 -15.2445 8.01333 15.1568 10
735 1 -5.76053 -13.2841 9.58275 13
736 1 7.63029 7.07056 5.51115 19
737 1 -2.18068 10.9339 14.6891 15
738 1 -17.4712 3.74326 2.51737 21
739 1 6.2778 -5.59121 3.45278 18
740 1 -16.1354 11.5223 -0.574117 11
741 1 -1.1612 -9.79882 11.3947 12
742 1 7.20627 -0.116943 16.164 18
743 1 -4.22868 10.1364 9.5934 24
744 1 -0.815358 -10.1958 5.33087 21
745 1 -10.3906 -1.58292 -1.34135 15
746 1 2.3559 7.23618 13.144 21
747 1 -19.3495 -3.43576 -3.13637 11
748 1 -7.68862 10.4517 18.58 10
749 1 8.06778 14.563 3.20686 14
750 1 -16.7391 -6.0987 4.99968 17
751 1 -3.14407 -13.413 5.85741 18
752 1 1.72884 -2.53577 17.3285 16
753 1 10.3978 -6.83636 6.56456 11
754 1 6.6551 11.6921 7.84178 21
755 1 -3.405 -6.19073 -2.87128 22
756 1 -6.35095 4.42053 -6.31624 18
757 1 -6.75566 -0.653511 18.6017 21
758 1 -2.52037 14.6235 6.73434 19
759 1 11.2506 7.00029 4.62532 18
760 1 1.50216 8.66804 -2.92695 24
761 1 -8.62967 8.67666 16.9291 18
762 1 2.47139 15.1514 10.273 21
763 1 8.52789 3.86108 -9.15311 18
764 1 -12.8064 -11.0965 4.94437 18
765 1 11.917 3.0995 6.91515 18
766 1 1.76062 1.25463 -5.9154 20
767 1 0.785628 6.4921 15.8341 21
768 1 1.63524 -8.2893 -3.2053 18
769 1 2.63673 6.95347 -9.93087 15
770 1 -6.02771 -7.88925 2.3623 20
771 1 13.7643 11.9665 -3.69223 17
772 1 13.5941 -1.16247 5.14509 8
773 1 -0.169059 -0.207715 15.6992 17
774 1 -1.98172 -11.6099 -6.44084 10
775 1 7.13228 11.5646 1.82138 20
776 1 -16.6877 4.46725 10.1026 13
777 1 16.6389 6.76564 -3.27273 11
778 1 16.7119 11.9885 6.19747 10
779 1 0.682259 -9.80778 -6.62165 12
780 1 -6.21649 10.9935 13.4291 20
781 1 13.0195 15.971 9.74135 11
782 1 9.38152 16.3424 -5.69601 10
783 1 0.430848 5.92252 -8.08818 21
784 1 8.01218 -2.89652 2.50189 20
785 1 -15.901 4.91265 5.10399 20
786 1 9.93715 12.24 2.81244 16
787 1 -18.74 -6.7012 -2.16768 12
788 1 -13.7723 11.7376 -3.45597 10
789 1 2.93845 4.1769 10.7042 21
790 1 -17.4258 -0.533375 -8.15044 12
791 1 -14.1144 6.60621 6.53444 19
792 1 -6.70114 6.06531 -3.57143 23
793 1 10.8096 -6.43978 -4.22048 13
794 1 -15.484 -6.98107 -3.50892 20
795 1 12.4044 -0.873232 1.9541 16
796 1 -15.0394 7.64621 3.09193 22
797 1 -11.2697 -6.86959 -1.04256 18
798 1 15.6754 14.2137 8.71607 11
799 1 -6.69559 -13.9315 6.36003 14
800 1 8.13319 4.1314 18.9914 10
801 1 10.3675 1.25897 14.8557 20
802 1 9.8269 4.00813 4.60575 21
803 1 -16.2916 7.55808 9.31646 12
804 1 -1.21093 15.138 10.7691 18
805 1 2.98809 9.85622 -5.77771 19
806 1 -2.14054 -5.42507 -10.2235 18
807 1 -8.24282 12.3261 7.02393 15
808 1 -13.232 -4.2462 9.83097 20
809 1 6.45058 9.05111 0.388227 22
810 1 -3.18136 9.13969 12.577 19
811 1 14.1516 1.91692 -3.49145 13
812 1 9.21308 -3.71464 12.558 12
813 1 -5.04133 13.3278 -6.37615 17
814 1 -0.409617 9.44826 -5.79044 19
815 1 -8.50795 2.14038 13.4458 20
816 1 15.8217 8.93842 8.25674 10
817 1 -5.59518 -3.5376 -5.81733 19
818 1 13.1358 14.4206 2.19736 14
819 1 -18.115 7.30406 1.27808 14
820 1 -2.45715 -4.93042 17.7671 11
821 1 0.66778 16.2959 -7.75439 13
822 1 3.83348 -0.701758 13.5982 20
823 1 -7.14382 -14.212 -2.40547 9
824 1 -8.6583 14.2436 2.21393 17
825 1 -16.6551 10.3962 7.2423 12
826 1 9.29369 0.218775 -4.19256 13
827 1 -4.44969 -6.23902 -9.40951 18
828 1 -14.2159 12.0974 7.89147 18
829 1 9.66336 15.0004 -2.20075 12
830 1 -11.2241 0.472398 6.79287 19
831 1 8.358 -1.62998 -10.85 10
832 1 -10.2253 -5.12202 -7.30879 18
833 1 -3.02272 -10.849 -0.70901 19
834 1 -3.99653 13.6743 15.2253 14
835 1 6.13035 -13.961 1.15485 9
836 1 -3.46705 11.9219 -8.35521 18
837 1 11.2518 2.70015 -3.59772 19
838 1 4.28347 7.13301 5.66751 21
839 1 -1.60865 -15.3004 3.59356 15
840 1 4.82229 -2.54271 -10.1146 22
841 1 11.4916 7.38786 -0.297338 16
842 1 -3.1545 3.31042 -12.6458 19
843 1 -3.16508 -11.6344 10.0251 19
844 1 8.35351 12.2226 -1.47908 21
845 1 6.62472 3.85726 -6.32621 19
846 1 -11.733 3.03779 1.05154 22
847 1 -15.0045 2.82759 12.6677 17
848 1 -2.81713 0.606554 21.1835 13
849 1 -6.80856 -3.80869 11.2125 19
850 1 4.63155 9.04277 8.36278 24
851 1 0.0387545 -14.0608 6.40485 17
852 1 -0.00394587 10.2344 -0.2033 20
853 1 -4.60559 6.68068 13.132 23
854 1 -11.6557 1.375 13.1267 18
855 1 -11.3073 13.8194 8.20724 11
856 1 6.65912 3.89018 -0.253002 21
857 1 -5.02052 -11.8893 12.3912 11
858 1 3.60193 -8.93687 7.96502 21
859 1 13.3386 8.79289 9.69027 17
860 1 6.64313 -1.63245 0.210896 19
861 1 4.43011 -12.0255 -9.35244 8
862 1 -16.1883 -3.81997 -7.64937 13
863 1 -0.69652 0.855988 -10.8015 21
864 1 3.67024 18.873 9.99962 11
865 1 -10.5168 -5.99481 17.947 11
866 1 -8.70267 6.89592 -1.93604 21
867 1 -14.0818 3.12848 -0.756369 21
868 1 10.5963 11.5804 -5.78325 13
869 1 -7.37039 -16.4345 5.9726 10
870 1 -2.32164 8.83436 7.56322 20
871 1 13.788 11.1698 7.11934 24
872 1 -15.8736 -8.22273 -6.03848 12
873 1 -0.12176 14.3015 7.97821 22
874 1 -8.2746 -3.2253 18.4997 17
875 1 -4.50883 -12.0548 -3.24351 15
876 1 10.8543 7.25722 10.8525 20