ITEM: TIMESTEP
16000
ITEM: NUMBER OF ATOMS
2000
ITEM: BOX BOUNDS pp pp pp
-30.0 30.0
-30.0 30.0
-30.0 30.0
ITEM: ATOMS id type x y z Coordination
1 1 -12.743 8.96312 -8.06433 11
2 1 -7.26002 -12.1867 -9.48513 12
3 1 1.10676 13.6614 11.5279 18
4 1 5.57501 -9.28536 8.41715 14
5 1 -13.0899 8.22411 0.933481 20
6 1 8.38014 -4.88397 -10.8401 13
7 1 -16.4289 2.3808 -4.82899 16
8 1 1.2871 -1.30802 12.3232 19
9 1 -7.44403 -1.51621 -13.0542 18
10 1 -15.6876 -6.64636 8.04134 12
11 1 12.2866 5.44567 -6.49565 18
12 1 -6.7381 -11.6055 -0.029084 22
13 1 -14.6425 -5.6338 2.72488 19
14 1 -4.68614 4.48701 19.9095 11
15 1 -1.70117 6.33148 9.13603 22
16 1 -2.3125 12.3259 -8.31599 13
17 1 1.34744 5.55962 18.1536 16
18 1 -8.81584 2.2607 -13.8478 9
19 1 -15.7029 -0.618934 16.1365 10
20 1 13.6901 2.13652 5.62532 14
21 1 0.707385 12.3989 -9.12478 13
22 1 2.17029 8.90597 -8.96717 24
23 1 12.6808 5.29838 13.2631 13
24 1 -16.127 4.26212 -7.1901 10
25 1 -5.07683 -2.88984 -5.03158 22
26 1 -11.6532 7.28591 10.5776 18
27 1 5.56853 -12.652 7.63949 9
28 1 -1.32983 -11.4007 -10.0401 12
29 1 8.29681 -10.7647 -1.46055 15
30 1 -11.9152 -10.9943 -5.00138 11
31 1 -14.1611 -3.58876 16.8231 11
32 1 0.380266 -6.95022 -8.60966 15
33 1 4.38541 -8.00553 -4.40996 19
34 1 -5.43324 7.01978 -13.6333 9
35 1 1.704 12.4154 16.7863 10
36 1 -0.812005 -11.1286 8.1332 22
37 1 5.09444 -0.517662 16.9618 11
38 1 -11.3951 2.90913 5.50621 20
39 1 -20.3109 2.18266 8.79474 6
40 1 -11.6187 3.04393 0.511756 21
41 1 -5.43573 17.8055 0.964636 12
42 1 -3.04132 -12.8382 -7.97197 12
43 1 -2.52573 3.93528 -11.2844 17
44 1 3.65129 -3.44315 -6.41396 20
45 1 -3.86479 -1.28494 17.0681 17
46 1 -12.4885 8.00117 4.52054 22
47 1 5.89856 16.2384 -7.38009 10
48 1 -0.0838512 18.1869 7.64767 12
49 1 -11.6705 5.81441 -1.92837 24
50 1 -4.38442 18.1754 4.40107 12
51 1 2.78736 -8.12154 4.06202 20
52 1 5.2401 -5.97282 -0.416967 19
53 1 6.0382 -4.79359 -13.1856 13
54 1 -11.3917 9.15995 13.2769 13
55 1 -16.2889 -4.42628 -6.71674 14
56 1 6.76205 -0.856479 6.31764 21
57 1 -11.772 11.5936 -0.903416 19
58 1 -8.27592 -8.37948 7.04033 20
59 1 -6.72783 17.5531 10.7466 9
60 1 -14.822 7.6087 -5.26025 14
61 1 -3.67446 11.9091 14.0719 14
62 1 -10.8688 -9.16512 5.40201 20
63 1 1.71595 6.05938 9.59399 21
64 1 6.92649 -11.9984 -4.33291 14
65 1 4.50247 13.8682 12.0522 16
66 1 -10.6425 0.693971 -8.67117 20
67 1 -13.2001 5.83329 -7.48787 16
68 1 2.00447 9.8542 12.022 22
69 1 10.2128 -2.96859 -9.5776 12
70 1 7.20959 -10.6969 5.987 15
71 1 -16.5189 2.39622 4.32085 14
72 1 8.44116 17.954 4.54358 10
73 1 -0.685639 -2.22449 18.2928 12
74 1 -13.2778 -8.71515 4.0087 19
75 1 -12.6645 0.192086 -0.0774015 20
76 1 10.3915 4.54354 7.62291 23
77 1 -6.89864 16.5333 14.1713 7
78 1 4.72448 -0.00250571 9.02745 22
79 1 -6.55315 -5.76414 -6.14449 19
80 1 -16.4989 6.78541 11.4581 10
81 1 -8.79395 11.228 -1.34022 21
82 1 -0.388113 6.99998 -6.70009 20
83 1 6.73364 -0.666842 -3.67153 21
84 1 12.3531 14.6889 -6.48849 10
85 1 9.33654 -4.53485 6.8083 18
86 1 0.847913 -11.9328 10.1513 13
87 1 -8.92237 14.4704 -3.1544 17
88 1 -9.41768 9.10642 9.98085 16
89 1 -11.9266 -3.20357 18.3914 10
90 1 -4.82465 8.5916 6.29046 21
91 1 -6.59738 -3.98912 11.8906 20
92 1 13.0789 -6.74348 -3.74085 12
93 1 -11.8768 4.24243 11.1176 20
94 1 -12.7966 -8.67173 7.2721 23
95 1 8.34508 -3.44941 -4.20247 24
96 1 4.32918 -0.513998 -8.51745 20
97 1 -5.88017 0.847286 -14.5984 13
98 1 -1.15902 12.0394 3.69054 21
99 1 -14.0651 10.5208 -5.39962 8
100 1 0.203739 8.91931 17.3571 11
101 1 -3.19227 12.1115 -3.01434 17
102 1 -18.6016 10.0786 3.71428 9
103 1 0.486401 11.0239 0.964902 23
104 1 -6.9852 -5.72176 6.76507 21
105 1 13.7631 2.9298 9.17896 12
106 1 -1.92161 -4.8411 -7.20206 21
107 1 -0.686464 -3.37319 -9.63701 19
108 1 -5.22408 6.4551 8.49116 20
109 1 -1.11697 0.475314 17.3647 15
110 1 -13.6543 -5.77322 0.103252 19
111 1 -12.1618 -8.02344 -4.26342 19
112 1 10.2933 -9.91617 4.29341 8
113 1 -2.84499 9.25739 3.92665 21
114 1 5.62223 9.7812 -10.4163 19
115 1 2.74502 21.5193 -0.617468 10
116 1 -11.3393 -10.0625 11.5772 15
117 1 -13.1711 -11.067 9.04677 12
118 1 4.742 -7.20578 -12.9986 9
119 1 3.59125 5.70557 -4.23476 23
120 1 8.30043 -8.53375 1.84019 16
121 1 -5.31533 -16.1281 6.98282 10
122 1 -16.8633 -9.20169 2.13818 9
123 1 15.3244 12.1333 10.9701 9
124 1 15.5148 -1.09475 -6.7526 5
125 1 -16.9287 -3.47141 7.34825 14
126 1 9.90749 8.13024 9.69122 20
127 1 15.5365 11.7027 5.234 18
128 1 -5.30294 0.879046 19.273 13
129 1 -7.17822 10.8237 11.649 15
130 1 -7.10953 13.3495 -1.96061 19
131 1 -3.51188 -5.49596 -9.75551 18
132 1 6.6867 -9.39826 -4.26134 15
133 1 -1.35793 11.8296 -11.6689 11
134 1 1.45275 0.589993 18.0692 15
135 1 -0.251881 3.9326 -15.3777 10
136 1 -2.85792 9.40824 -1.3721 18
137 1 10.661 3.36463 -1.37884 19
138 1 -16.2228 3.6122 -1.54283 17
139 1 -9.54039 11.6773 1.63224 18
140 1 12.5073 2.93608 -9.11462 12
141 1 5.28265 -7.74744 5.8048 18
142 1 -7.86714 2.96361 -4.6076 19
143 1 -10.347 11.9312 11.4589 11
144 1 15.7213 10.2582 -5.20521 11
145 1 5.92846 12.2064 -2.3227 16
146 1 -6.28746 16.0027 3.69743 17
147 1 9.87398 14.2528 1.98607 13
148 1 -5.56229 14.2735 1.15544 21
149 1 -0.397817 14.9894 -6.52237 13
150 1 1.41959 5.77984 -13.5044 14
151 1 -13.4683 -2.39243 2.66233 20
152 1 -18.2835 6.37794 3.78614 13
153 1 -4.96153 -1.80156 -11.8645 19
154 1 1.24814 -6.65303 -13.0524 10
155 1 9.46576 15.6658 10.6792 11
156 1 2.64825 19.458 2.84273 14
157 1 -14.0294 -1.80648 -1.61912 18
158 1 -15.3571 12.0812 3.00558 11
159 1 16.9157 2.54427 -1.41944 12
160 1 -11.0397 2.29683 -10.7987 16
161 1 6.33265 5.4382 18.8243 10
162 1 2.95742 17.8405 7.59964 12
163 1 1.91371 11.8362 9.4382 21
164 1 2.99286 -3.71015 -13.1515 15
165 1 -5.78653 12.1148 8.71816 19
166 1 -4.21501 15.0881 -2.2299 17
167 1 2.05422 0.345286 15.0585 19
168 1 -11.8393 -3.04441 5.88713 22
169 1 -2.86235 -9.82164 -13.5887 9
170 1 -10.1833 15.1576 -5.64792 7
171 1 -3.5759 -7.74938 9.2413 18
172 1 1.79316 -12.9603 -3.2701 14
173 1 -2.6973 10.721 -5.83223 19
174 1 -13.1274 0.206772 10.6808 19
175 1 10.9468 14.6693 -1.55538 12
176 1 -3.02331 7.58119 19.1827 11
177 1 1.4574 -6.86176 11.9641 13
178 1 -14.2166 5.7572 -0.678259 22
179 1 -2.26426 16.9182 6.38969 15
180 1 0.543615 8.95346 8.74509 20
181 1 12.1097 8.57024 14.6917 12
182 1 -8.62535 15.1119 6.15462 13
183 1 9.92777 -3.24581 -6.99414 14
184 1 -7.561 14.1407 12.1073 13
185 1 -8.30682 3.13931 -8.72335 17
186 1 13.2194 -3.78097 6.50735 12
187 1 -9.92281 -6.02931 6.02324 21
188 1 -18.0181 4.88408 6.99955 13
189 1 -13.3135 -6.06534 5.65256 21
190 1 6.63594 10.8277 15.1353 17
191 1 -18.2781 2.28199 0.143311 15
192 1 -4.24403 -14.0716 4.09858 21
193 1 3.37427 -7.99621 -1.79806 21
194 1 -3.2193 11.2153 6.31201 22
195 1 4.73216 17.2946 10.9606 11
196 1 -12.9826 0.746143 -6.36195 19
197 1 -8.3236 13.1712 -6.59974 16
198 1 -16.326 -0.721299 -5.64001 17
199 1 -16.3619 -3.16386 13.9075 11
200 1 1.04706 -8.84774 7.0933 22
201 1 2.40341 -9.37849 9.44034 15
202 1 -13.1334 11.3571 6.03323 15
203 1 13.843 2.67961 2.36805 17
204 1 5.71733 2.62223 -3.87761 19
205 1 -6.95177 -7.84239 -14.2098 9
206 1 2.83883 1.34466 11.5799 22
207 1 2.10493 -12.1241 7.15333 17
208 1 -9.60533 9.65435 -8.8367 15
209 1 2.41101 -9.66138 -12.7882 11
210 1 8.95859 6.17772 -7.7799 18
211 1 0.191355 8.71651 -12.0721 17
212 1 -12.708 -2.62294 -4.95079 23
213 1 -6.23629 14.7723 -4.88074 14
214 1 -12.0857 -6.40216 12.1666 19
215 1 5.06515 20.0235 -2.22704 9
216 1 -9.822 2.91325 18.4142 11
217 1 -12.2861 14.7039 -2.30882 11
218 1 9.78837 2.7075 10.2627 17
219 1 -6.58198 -3.22995 -15.1021 9
220 1 -4.41432 9.08063 -4.07097 20
221 1 2.15782 2.083 -8.53229 19
222 1 -8.6682 -8.3416 11.8086 17
223 1 -8.18056 8.24699 12.7165 19
224 1 -6.60213 10.8512 14.9127 13
225 1 -0.521739 -9.28067 -11.3671 15
226 1 -12.2293 -14.7919 5.73489 8
227 1 6.60682 -8.30809 -0.393237 18
228 1 9.99332 10.8321 14.6648 12
229 1 6.69715 14.4771 -4.48329 16
230 1 -6.36835 9.85152 -2.41697 22
231 1 -10.2685 5.98114 6.16428 18
232 1 -15.1154 9.61963 3.52925 20
233 1 -0.161523 7.09197 11.995 19
234 1 1.27776 -15.5226 1.22017 13
235 1 9.55962 1.88267 1.47079 19
236 1 2.03124 7.91608 6.35871 24
237 1 -14.4524 8.53971 6.77848 20
238 1 -19.4954 -4.61389 -0.825844 10
239 1 8.68285 8.96823 -9.80385 13
240 1 3.05204 -2.29441 9.85744 19
241 1 13.1014 11.7618 -6.82915 15
242 1 1.74171 -9.21101 1.66874 20
243 1 -7.29104 -1.02357 -6.98637 20
244 1 -2.73231 -14.567 6.65108 13
245 1 9.70698 -1.10654 -4.48173 19
246 1 -8.30037 1.02654 9.27204 21
247 1 3.40227 -15.4807 -1.78029 9
248 1 -10.9273 -9.17526 -10.9798 13
249 1 5.98553 15.8727 -1.56284 12
250 1 1.25334 -1.82413 -15.9409 12
251 1 3.40929 7.569 17.9569 12
252 1 13.7967 -0.190777 2.02367 17
253 1 8.55412 -5.55567 -7.87269 17
254 1 -10.4586 -6.04514 -9.67769 22
255 1 -12.6691 3.24193 -8.80331 17
256 1 -8.52481 -11.6895 11.0608 14
257 1 7.75229 3.09822 12.5928 18
258 1 5.50473 -3.87391 10.8212 18
259 1 -7.54411 -9.36405 -11.4445 17
260 1 -0.422995 -7.99626 9.50538 21
261 1 -4.03356 6.04114 -8.9846 12
262 1 3.60199 8.93824 3.83118 20
263 1 -8.31491 -4.88963 3.68912 23
264 1 -0.423404 13.8422 5.60489 19
265 1 -6.49941 -0.554091 11.8792 21
266 1 -13.9319 -5.92725 -8.68311 14
267 1 -6.93352 -5.08932 -12.5635 18
268 1 -4.82233 10.927 -12.6261 8
269 1 -5.70836 -12.5161 -6.45146 14
270 1 -3.82343 -7.38442 3.92908 20
271 1 5.62533 -4.58671 -9.06876 16
272 1 14.824 5.24286 -7.70837 10
273 1 14.8981 8.43589 5.42997 21
274 1 -7.82029 -4.80817 14.565 15
275 1 -8.62041 -9.12575 0.426515 18
276 1 6.48967 8.84144 17.666 11
277 1 -5.93508 -11.1096 8.03465 19
278 1 -4.1118 -12.2408 2.12253 18
279 1 1.03386 21.952 2.10039 8
280 1 8.07934 0.811426 -12.0724 12
281 1 -4.28129 -1.33515 -14.9822 17
282 1 -11.3294 -2.97586 14.6235 20
283 1 -1.68962 5.05648 17.5509 18
284 1 1.19924 -10.9262 -1.38953 19
285 1 -4.43778 -10.6729 -10.5949 17
286 1 -6.31643 0.414128 -9.69252 18
287 1 12.8056 10.1526 3.57011 19
288 1 -10.0712 8.10328 -6.41983 16
289 1 0.297698 6.66068 -10.5779 19
290 1 4.27056 -12.8492 -7.87592 10
291 1 -9.19468 14.0355 0.525317 18
292 1 1.72005 11.5986 4.34914 21
293 1 13.7239 -0.69993 5.37082 13
294 1 -10.5285 -2.25423 8.90937 20
295 1 -6.99019 -7.31517 9.4437 19
296 1 -7.63433 8.68696 6.43837 22
297 1 2.34526 -4.39443 -9.66391 18
298 1 13.4591 11.1944 -0.32481 14
299 1 5.58235 -9.65233 3.31647 15
300 1 -2.54825 -4.14053 16.5975 12
301 1 -14.2943 -3.96437 8.82919 19
302 1 -1.66221 -13.2871 -1.98451 16
303 1 -6.07971 8.92726 17.6007 9
304 1 -9.78525 5.08908 16.4476 18
305 1 -14.6052 -0.646748 7.664 21
306 1 -13.8534 -8.11347 10.2732 16
307 1 11.9132 -1.11978 -1.64899 16
308 1 -13.5482 -5.09534 14.0889 15
309 1 10.1936 1.17351 -6.70391 16
310 1 9.61006 -10.6725 -4.90834 9
311 1 3.61432 18.1405 -0.374922 17
312 1 -13.3371 14.1492 0.949067 10
313 1 8.42413 9.69253 12.2046 21
314 1 -11.603 0.870932 2.6482 19
315 1 8.71096 -5.26823 -1.25411 20
316 1 -4.58524 12.4215 3.56453 20
317 1 -8.99638 6.20015 8.71905 20
318 1 3.98035 -7.30574 10.7152 14
319 1 10.9349 -1.52974 6.77544 16
320 1 -3.32014 9.27624 8.56402 21
321 1 -8.4881 -4.9234 -2.12664 18
322 1 -5.4931 0.891797 14.7395 21
323 1 -4.80093 14.7633 6.26678 18
324 1 4.68058 11.1692 18.0936 10
325 1 -11.1331 16.2815 -0.0811525 10
326 1 3.70588 0.633011 -14.2828 13
327 1 4.73627 -10.2644 -10.2797 11
328 1 -11.0374 2.89003 13.8521 22
329 1 -13.4434 2.99931 7.54944 22
330 1 -5.06845 -3.86721 -7.98565 22
331 1 -6.57971 9.44037 3.96546 19
332 1 8.88466 -0.576199 9.41542 17
333 1 -17.2947 -6.31658 1.11071 15
334 1 6.43124 -5.74601 8.21699 19
335 1 -11.1325 -7.98978 14.5643 10
336 1 -16.8043 10.8555 6.06604 14
337 1 0.828166 -4.20697 15.6715 12
338 1 0.369937 -9.71517 -8.24458 15
339 1 -5.39648 1.33729 -6.73042 20
340 1 11.6694 -0.0112005 -9.77648 11
341 1 4.31004 14.3016 3.14382 19
342 1 -11.4127 0.347844 -3.06171 18
343 1 6.03594 -5.31349 -5.93412 18
344 1 11.2795 8.36644 -8.22633 13
345 1 -10.3044 -12.9875 -2.60127 11
346 1 -14.2737 -5.2856 -4.62812 19
347 1 -5.0997 -9.21009 2.08847 21
348 1 8.66531 7.78869 14.8692 15
349 1 9.43951 6.38848 -1.46274 21
350 1 -9.45931 5.82293 -4.28043 21
351 1 4.60052 20.6484 1.59548 11
352 1 -18.1133 1.0813 -6.81847 10
353 1 -12.4133 6.41844 8.33783 19
354 1 -9.62496 9.58805 4.24058 18
355 1 -7.11476 3.68328 8.46779 19
356 1 4.71769 5.62632 15.0733 16
357 1 9.05088 1.85778 -3.67113 18
358 1 3.62294 2.26808 17.5122 15
359 1 10.8011 4.34556 -4.57763 21
360 1 -11.4932 -10.496 -1.59026 16
361 1 0.295652 -8.21211 -1.30503 21
362 1 0.486467 9.03169 3.79091 24
363 1 -11.3734 2.92742 -4.31195 19
364 1 4.0452 -11.4403 -5.00599 19
365 1 11.662 -2.44627 9.59378 10
366 1 -15.7623 -2.62944 -4.22899 15
367 1 -9.71646 -7.87512 3.41316 22
368 1 -5.34796 -4.80203 17.3263 11
369 1 -3.063 11.313 1.25801 18
370 1 -11.7941 -8.30916 1.19209 17
371 1 3.55369 11.3762 14.8946 18
372 1 -13.6844 8.86209 -1.8971 21
373 1 3.07493 15.8108 -5.62551 11
374 1 5.61555 13.907 6.10855 17
375 1 -14.8614 -7.16127 -2.91537 15
376 1 -2.50939 -7.81685 -2.12627 21
377 1 -16.8498 1.87682 6.95295 18
378 1 -18.4663 8.2292 0.499792 7
379 1 3.05574 -5.77698 7.5225 19
380 1 -9.03548 -10.6308 2.74504 18
381 1 12.8615 14.2653 10.2953 14
382 1 3.67987 11.8151 -8.89883 13
383 1 -11.1555 5.83504 -9.98272 11
384 1 -3.36082 14.1147 -5.30529 19
385 1 -10.7291 8.70774 -1.98191 19
386 1 -1.94126 -8.90836 6.36641 21
387 1 11.8321 6.72035 5.9081 16
388 1 -2.61447 9.07608 -11.9421 15
389 1 -3.65603 1.49698 11.3356 22
390 1 -19.1953 2.86611 4.08109 11
391 1 -8.6485 4.45184 11.7422 19
392 1 -4.92619 -8.82017 6.43762 19
393 1 0.638549 -4.59066 -6.91341 19
394 1 -10.2789 3.58223 8.45209 21
395 1 -15.8509 -2.4716 10.4126 20
396 1 -15.6213 9.85848 9.68567 11
397 1 -1.89876 -4.75269 9.3994 21
398 1 -7.80507 1.8742 -11.3575 19
399 1 8.58714 -7.90787 -6.542 12
400 1 -5.49937 -7.31257 -10.0007 16
401 1 -3.50993 -3.77174 12.4691 17
402 1 -5.99302 3.7403 -14.2371 12
403 1 5.37604 -12.9161 3.55819 13
404 1 0.320481 11.1275 -3.39925 19
405 1 -12.5003 11.0237 10.2326 13
406 1 -8.73133 -3.23676 17.2423 14
407 1 -14.6604 -3.22211 -10.1393 11
408 1 -9.44952 -1.4245 11.093 20
409 1 8.72732 -5.14541 10.2561 11
410 1 0.711321 4.09939 -6.68755 22
411 1 8.20985 -7.79471 6.31204 14
412 1 12.8414 9.32424 -4.05134 17
413 1 -8.78642 0.679465 13.7479 21
414 1 -1.974 17.6573 1.67852 15
415 1 7.25609 -2.88542 8.01867 18
416 1 -7.13564 -13.28 -3.54362 15
417 1 -6.83988 3.57049 17.4016 17
418 1 -5.80833 15.5628 8.92701 16
419 1 -10.8021 -11.5599 -8.48327 12
420 1 13.6396 15.5527 3.11883 9
421 1 3.77132 8.86255 9.29536 21
422 1 -11.0076 6.34444 13.6271 19
423 1 -7.01864 -7.00883 -3.46793 19
424 1 -13.755 2.54659 13.5499 18
425 1 -11.7537 -6.10731 -6.63011 19
426 1 -6.33004 8.91273 9.80885 23
427 1 -6.6672 -9.03023 -5.39991 19
428 1 -2.25992 -4.04087 -12.8671 17
429 1 -9.20814 -12.6772 0.287128 17
430 1 -8.74483 -2.48635 6.12795 20
431 1 8.3931 1.50661 6.67907 17
432 1 -4.52366 -6.59662 14.938 11
433 1 -7.00999 6.87372 -8.0355 16
434 1 6.63928 5.22613 0.773652 19
435 1 -11.8329 -13.4349 0.508292 11
436 1 0.984631 15.6729 -1.08671 14
437 1 -3.70129 7.30497 -6.33864 19
438 1 -2.70006 5.98827 14.0861 21
439 1 -18.2849 1.13892 -2.91665 14
440 1 0.487771 18.791 -1.05541 10
441 1 4.87556 13.1967 -6.11799 14
442 1 -7.45751 -5.70164 -9.41274 20
443 1 4.03887 4.0598 19.2573 11
444 1 1.43166 -13.7558 -6.90158 9
445 1 -2.10098 -1.77592 -6.98557 21
446 1 5.93666 -11.734 0.759438 16
447 1 -12.4805 11.0719 2.43632 17
448 1 5.544 8.39132 14.1596 19
449 1 7.98451 7.32999 1.88239 19
450 1 4.07273 11.0951 1.53319 21
451 1 -9.89056 4.18213 -6.63969 16
452 1 5.79473 3.98763 -8.75295 18
453 1 -0.723734 -7.64127 3.92718 21
454 1 -16.2707 -0.408138 0.673808 19
455 1 5.67718 20.2959 5.27148 9
456 1 -7.62372 5.49507 -11.3566 15
457 1 10.8362 7.25857 0.821306 18
458 1 5.34727 17.3175 -3.83984 12
459 1 8.49139 -5.99463 4.0622 18
460 1 15.2788 6.7396 -1.82815 16
461 1 -3.17081 1.32513 -9.15796 21
462 1 3.22122 -12.0919 0.934729 19
463 1 -3.24968 -13.688 9.07806 16
464 1 2.75158 -4.06108 13.054 16
465 1 -9.60836 1.28203 -6.06943 18
466 1 -9.73343 -10.4657 8.8927 22
467 1 -3.59142 -7.53328 -6.34518 21
468 1 9.1758 16.6231 7.79584 12
469 1 -1.14648 9.6306 -8.80765 20
470 1 4.10945 2.52704 14.199 19
471 1 -15.794 4.20995 12.7988 10
472 1 -5.0671 -15.881 1.21764 14
473 1 -13.8193 0.362981 5.1108 20
474 1 13.0557 1.81315 -0.795643 23
475 1 8.54098 -0.171116 -1.06485 21
476 1 -9.52882 11.3255 -4.0066 20
477 1 -0.453189 -6.00734 -4.37667 23
478 1 2.57374 7.37166 -6.5755 20
479 1 9.5163 -6.15272 -4.01086 18
480 1 -9.61178 -0.575951 18.8634 12
481 1 11.1701 10.8966 0.977537 18
482 1 -1.62005 0.783378 -15.2485 17
483 1 7.43142 3.74383 -11.4454 14
484 1 -7.13557 -2.10384 8.98741 24
485 1 -7.26294 16.2023 -0.737103 14
486 1 -9.31025 -3.36692 -11.9375 13
487 1 -18.2397 -0.219023 2.49519 10
488 1 -3.72086 -6.74689 -13.0605 15
489 1 -7.57192 -7.87497 14.4548 10
490 1 -0.920941 8.33619 -3.98052 24
491 1 15.3518 5.91135 9.84283 12
492 1 16.6087 7.88181 0.197124 9
493 1 -14.607 -11.7066 2.53593 10
494 1 -1.87977 -8.87164 1.22217 20
495 1 0.111176 -3.94864 -14.8056 15
496 1 -5.27469 14.1582 14.3889 9
497 1 0.836182 -1.61376 -8.02034 18
498 1 10.5908 -1.01297 1.08054 17
499 1 10.9605 17.6891 -5.32607 8
500 1 4.92977 -4.17643 5.26246 21
501 1 14.8041 7.24302 -4.84118 17
502 1 -1.74929 13.8735 13.5813 13
503 1 -12.4273 -2.83438 11.1054 21
504 1 6.51565 8.88428 9.42127 23
505 1 6.74521 1.88112 18.9389 10
506 1 4.57823 5.29144 -11.9615 19
507 1 -10.4025 -5.28168 -4.52167 19
508 1 -0.585354 1.37484 11.2152 23
509 1 8.56156 11.2009 9.4476 18
510 1 5.90348 8.4249 -4.1419 19
511 1 -8.37308 8.94914 -4.16837 20
512 1 2.44174 12.306 -1.24308 20
513 1 9.33123 0.504922 13.033 16
514 1 13.2234 5.64507 -11.2327 7
515 1 9.97557 -7.79682 -0.787196 15
516 1 9.93941 12.7909 11.4805 17
517 1 -16.2372 -3.87853 0.781086 17
518 1 -9.96197 11.1829 -6.70242 14
519 1 -1.63722 4.50714 11.6621 23
520 1 -15.5596 0.383256 13.0313 16
521 1 -6.02975 12.065 -3.92726 21
522 1 -3.96457 -9.75179 -3.96133 17
523 1 5.5419 0.581598 -6.47755 15
524 1 -3.39527 17.1003 -4.75375 8
525 1 -9.89647 -7.19469 -12.6651 13
526 1 -0.350087 -12.5412 1.05791 18
527 1 -19.6652 -1.00127 -0.940687 13
528 1 1.97789 11.1872 -11.8737 11
529 1 -1.46488 9.42187 13.5242 21
530 1 -15.7426 -5.40894 11.3788 13
531 1 5.11743 8.24059 1.58598 23
532 1 -3.33253 -10.7906 -0.375564 19
533 1 4.26201 -3.86719 16.0062 9
534 1 -12.0374 5.69732 1.99578 20
535 1 -1.32407 5.10075 20.5238 11
536 1 3.59748 11.4987 -3.75975 20
537 1 10.0277 -2.91293 -0.892173 19
538 1 5.52915 12.3019 9.08102 20
539 1 3.6612 3.44283 -14.4203 13
540 1 -10.447 -7.24836 9.19101 21
541 1 -0.592492 1.20628 -7.14715 21
542 1 10.2622 6.71511 -11.4889 9
543 1 5.00423 16.6498 5.48995 19
544 1 10.4894 11.2974 -7.87435 11
545 1 -2.01069 -1.36959 -13.5525 18
546 1 -6.79562 -10.4538 -2.55168 19
547 1 -12.5846 -5.8639 -11.4668 9
548 1 10.4993 4.12712 1.55408 20
549 1 16.1445 4.82483 1.08645 13
550 1 6.54907 -2.3321 -6.78603 19
551 1 12.6803 11.4156 12.5537 11
552 1 6.48242 -6.23909 -3.17601 23
553 1 6.99745 6.94805 -11.7764 14
554 1 9.54514 14.6485 5.19024 13
555 1 -10.079 3.7445 3.46546 23
556 1 7.31307 15.3205 12.9857 12
557 1 10.3899 9.47037 -1.55337 20
558 1 9.66888 3.28667 4.65758 21
559 1 11.9515 6.88601 -3.37635 22
560 1 2.10699 5.92613 13.6121 18
561 1 15.8855 8.66955 9.46095 14
562 1 4.30837 -6.1565 14.0389 8
563 1 13.5154 14.4018 -0.271756 12
564 1 0.647522 3.00984 19.8024 14
565 1 15.4555 1.15014 -3.8056 13
566 1 8.31998 5.70343 9.71662 21
567 1 -10.107 -1.53361 -5.65583 21
568 1 10.4582 8.67636 3.97887 20
569 1 10.3186 -3.70289 4.34815 18
570 1 -8.95336 8.40151 15.5608 13
571 1 7.02974 12.3749 12.4238 18
572 1 7.92811 5.29251 14.5659 18
573 1 4.01911 10.6003 6.70515 21
574 1 -3.80944 11.2443 11.2458 19
575 1 6.63967 2.77517 9.20867 16
576 1 -4.3547 -16.8652 3.64682 11
577 1 -8.79276 16.1795 2.50281 12
578 1 8.71629 16.2328 -3.47449 15
579 1 4.89153 1.10073 -11.035 15
580 1 -2.67567 17.325 -1.4241 12
581 1 -1.98565 -10.0946 -6.66114 18
582 1 9.28979 -3.27514 -13.0826 8
583 1 -14.258 4.43551 10.5951 19
584 1 -7.30334 9.58259 -6.65787 22
585 1 -7.30114 -16.4499 4.02581 12
586 1 -7.43179 -2.63561 -9.76069 18
587 1 -14.6343 0.720555 -2.92706 21
588 1 11.9708 -8.39312 2.07534 12
589 1 13.6998 7.22393 1.86662 18
590 1 -0.381566 -4.01856 12.3444 18
591 1 -17.3804 -1.96308 -8.93015 9
592 1 2.03934 2.75267 -11.6 16
593 1 -1.50124 1.98971 14.3826 21
594 1 6.54201 12.7795 -8.66098 9
595 1 12.0988 2.34365 11.8965 14
596 1 6.01241 6.47907 -6.46055 24
597 1 15.8118 14.9151 5.04621 9
598 1 4.79589 -14.4496 -4.82775 12
599 1 -12.9289 -0.77993 16.6477 14
600 1 16.3446 1.31982 0.825739 10
601 1 -1.05672 14.7553 10.4239 17
602 1 9.82293 13.3215 -5.58758 13
603 1 -16.1651 7.22091 -2.11369 13
604 1 11.9575 12.9457 4.86523 16
605 1 -11.7259 -11.9594 6.48576 18
606 1 14.7318 -3.05068 3.69817 10
607 1 4.70855 16.9582 2.06088 14
608 1 -6.07003 6.18165 12.1704 18
609 1 -11.7113 -5.30894 3.21819 22
610 1 -8.84452 -4.24388 -7.38806 22
611 1 6.74603 7.147 11.869 22
612 1 -5.35897 -8.04058 12.1206 14
613 1 5.35038 10.3339 12.282 22
614 1 -6.08123 11.3341 0.524738 17
615 1 8.67819 7.83016 7.05735 17
616 1 7.33334 4.72919 6.67521 21
617 1 6.63462 3.59509 -13.9252 13
618 1 -11.9012 0.177817 8.07057 18
619 1 10.8066 3.16907 -11.4826 9
620 1 11.9012 -6.25633 -6.43187 12
621 1 10.2232 5.37174 12.5536 19
622 1 5.08028 5.8919 9.12526 19
623 1 -10.0746 1.2808 16.2013 19
624 1 12.7696 7.98244 11.4633 16
625 1 -5.14633 -2.17185 14.4111 19
626 1 -0.279388 5.15969 14.5529 21
627 1 0.880783 -2.30619 -12.1314 15
628 1 -7.26851 3.64531 14.5399 23
629 1 4.71649 4.44587 11.6981 23
630 1 -10.4646 -13.5444 8.57547 12
631 1 13.493 8.28562 -0.986707 18
632 1 -1.258 -8.69475 -4.69776 19
633 1 3.81239 9.34339 -1.42214 23
634 1 10.4959 13.654 8.2644 17
635 1 6.50043 1.19585 -15.6496 8
636 1 -0.786718 14.3126 1.90495 18
637 1 15.7318 10.0335 2.49201 12
638 1 -14.3164 -9.6276 -0.273649 14
639 1 1.44045 1.57878 -16.0749 10
640 1 -10.1425 8.68105 1.99784 18
641 1 7.36413 -1.84689 -9.92854 19
642 1 7.21671 11.2767 -4.36686 16
643 1 6.03629 13.2744 0.568737 15
644 1 -8.38132 6.63077 3.08934 20
645 1 5.53013 6.58404 -1.40338 21
646 1 11.2707 5.37315 15.6138 12
647 1 11.3651 1.91041 14.7748 9
648 1 -5.3449 -13.34 11.1512 13
649 1 -6.93313 10.6939 -9.35721 14
650 1 1.49005 17.3471 10.0647 13
651 1 6.11112 -7.33758 -10.1468 13
652 1 1.21549 3.73217 12.1053 22
653 1 8.00898 19.174 -4.59329 7
654 1 6.12313 12.1634 4.40793 20
655 1 13.5357 -3.79522 -2.07215 12
656 1 5.66957 13.6793 15.7002 12
657 1 -14.8138 -3.22338 5.63543 19
658 1 2.00076 -13.326 3.46151 19
659 1 -0.00211523 0.413354 -9.98122 17
660 1 -9.10132 11.9933 6.52301 16
661 1 0.285517 16.832 5.31583 17
662 1 -19.7051 -3.51114 1.84547 9
663 1 -4.06346 2.95887 16.2014 18
664 1 -6.12666 8.64055 -10.9772 17
665 1 -12.5021 6.63825 -4.27933 19
666 1 -2.44468 -14.6896 1.15387 18
667 1 9.10879 7.00018 -5.26424 18
668 1 -12.4743 4.55565 16.1527 12
669 1 -1.33083 -1.54349 -17.0511 9
670 1 -1.62451 -12.9077 11.5156 11
671 1 1.75223 13.4665 1.96957 19
672 1 -6.51277 -1.88701 18.6799 12
673 1 -8.56481 -9.2201 -8.54949 22
674 1 -6.2553 -11.4756 -13.2188 8
675 1 -8.79292 -11.3057 -6.17291 15
676 1 -1.36757 15.5872 -3.34055 16
677 1 4.93361 -3.41382 -3.87198 21
678 1 -3.16108 13.7248 8.84884 17
679 1 2.78351 -5.98037 -4.43366 21
680 1 4.73698 -15.2594 0.959895 12
681 1 0.755268 -5.22626 9.4185 18
682 1 16.2331 4.59602 -4.40586 11
683 1 -1.12237 -12.5573 -4.56107 17
684 1 -18.5181 -0.787542 8.82705 9
685 1 -10.0708 -14.8191 2.84057 13
686 1 -9.58852 -9.50102 -3.83214 19
687 1 -11.8872 -0.428308 13.8212 21
688 1 -14.2096 -11.6982 5.61488 11
689 1 18.204 8.47461 -3.01988 5
690 1 -0.876339 19.1268 3.83383 10
691 1 -14.5837 12.5799 8.43611 9
692 1 8.12714 0.407631 3.42612 18
693 1 -13.4625 -0.199266 -10.0918 13
694 1 -1.06427 12.6299 -1.09592 17
695 1 13.3648 1.68242 -6.60986 17
696 1 6.27664 15.5006 9.71104 17
697 1 7.47809 5.04253 -3.19543 18
698 1 -14.8078 4.9666 -4.33922 17
699 1 -16.894 -1.91275 -1.62289 18
700 1 -4.6985 5.81725 16.6558 19
701 1 5.47743 7.08357 -9.11809 23
702 1 13.7931 14.9004 6.87179 14
703 1 -2.39515 -0.944494 12.492 17
704 1 -7.32005 -13.2405 2.70773 21
705 1 -8.57836 -11.3596 5.9805 21
706 1 -5.17405 -4.75745 9.18203 20
707 1 11.7558 10.6377 9.20073 16
708 1 1.1612 -7.93377 -5.91523 17
709 1 -7.44738 8.51318 0.392907 21
710 1 6.95819 8.85293 4.3485 22
711 1 -10.1756 -2.42269 2.99403 22
712 1 7.43287 9.13823 -7.43937 20
713 1 -7.76476 -15.0222 -0.688185 12
714 1 -0.0479146 -15.7459 5.01438 11
715 1 -1.84603 -11.9433 4.09053 13
716 1 4.04582 3.85435 -6.34809 20
717 1 1.5443 16.5987 1.7664 19
718 1 -4.05027 1.20889 -12.0397 23
719 1 1.19086 3.32464 15.857 22
720 1 -1.85345 5.83413 -12.7848 17
721 1 -10.0828 -0.084688 -11.7303 12
722 1 -12.3743 -4.33769 -2.24213 17
723 1 1.31696 13.9459 -4.21715 13
724 1 -3.13161 -3.89574 -15.5498 15
725 1 -9.55155 -5.72879 0.971367 22
726 1 14.8939 13.6824 -5.55484 11
727 1 10.3935 -5.90186 1.54934 21
728 1 -3.9325 3.86993 13.3636 20
729 1 4.2464 -10.8401 -2.26014 22
730 1 12.8559 -5.53605 3.31604 16
731 1 11.301 -0.741277 11.7743 11
732 1 0.360201 11.2692 6.39763 22
733 1 -12.7258 1.74723 16.5803 14
734 1 -13.7227 6.96148 13.4627 13
735 1 -7.45298 -13.5052 8.50284 16
736 1 8.92703 6.00061 3.95149 22
737 1 0.0892296 10.8864 14.8513 17
738 1 -14.8081 2.66227 0.776305 18
739 1 5.56371 -6.42651 3.36077 22
740 1 -15.6051 8.75539 0.112906 16
741 1 -3.97179 -10.8074 9.58799 18
742 1 7.76697 1.7297 15.66 14
743 1 -1.42141 11.9158 8.84492 20
744 1 0.733786 -10.5642 4.627 17
745 1 -9.8737 -2.25339 -2.10005 18
746 1 3.96647 7.51338 11.9326 21
747 1 -17.6658 -5.38977 -3.67052 9
748 1 -2.20208 8.01319 15.8585 20
749 1 7.46651 14.8622 3.37978 17
750 1 -16.7029 -6.62375 4.77069 11
751 1 -3.41035 -11.8093 6.42248 18
752 1 2.67197 -2.09 17.5731 11
753 1 10.9121 -6.96564 5.31443 14
754 1 7.02058 10.7325 6.63924 18
755 1 -3.68053 -5.49721 -4.526 20
756 1 -5.38359 3.64886 -9.11304 16
757 1 -7.16858 0.00448153 16.4382 20
758 1 -3.1076 15.3347 4.02482 19
759 1 12.7048 4.72978 3.85334 19
760 1 2.22777 8.6515 -3.98121 22
761 1 -5.39219 8.7873 13.5825 23
762 1 3.20078 14.8341 8.37694 18
763 1 7.06989 1.10101 -8.89738 16
764 1 -11.458 -11.6302 3.30986 20
765 1 11.3159 0.952489 7.68847 19
766 1 1.89152 0.143325 -6.32793 18
767 1 1.55974 7.80144 15.2055 21
768 1 1.59899 -9.6646 -3.77301 21
769 1 3.50693 7.72164 -11.3894 18
770 1 -4.86106 -8.52746 -1.12253 21
771 1 13.6123 9.2474 -7.41166 10
772 1 13.9052 -3.2456 0.595042 14
773 1 -0.986719 -1.87395 14.9896 20
774 1 -5.21474 -9.82702 -7.95873 18
775 1 7.76505 10.088 1.9955 21
776 1 -17.7381 4.43159 9.7286 12
777 1 13.7047 3.92889 -3.54358 20
778 1 17.4422 9.65345 6.5116 10
779 1 3.11437 -7.50235 -9.60719 19
780 1 -7.97871 13.9502 8.91432 14
781 1 15.9866 14.7935 8.64003 8
782 1 12.4059 15.6897 -3.59291 12
783 1 3.12875 5.36218 -8.58131 22
784 1 8.35545 -3.92128 1.66138 18
785 1 -13.744 3.69549 3.54129 20
786 1 9.33756 11.7455 3.65785 18
787 1 -17.082 -8.5197 -1.36924 10
788 1 -14.6551 11.7864 -2.30491 10
789 1 2.59111 3.18166 9.01236 20
790 1 -13.8717 -1.90403 -7.3045 19
791 1 -14.0006 5.49693 5.98594 17
792 1 -6.22881 6.17505 -4.14551 16
793 1 13.0339 -9.57188 -5.38955 5
794 1 -14.6953 -7.50209 -6.57975 12
795 1 12.9412 -6.65362 0.0779349 13
796 1 -15.0951 7.04762 3.34203 20
797 1 -11.5805 -7.47711 -1.24469 18
798 1 17.1149 11.664 8.83375 10
799 1 -5.98467 -10.9814 4.42843 20
800 1 8.40613 4.08221 17.3799 12
801 1 9.96341 -3.376 12.7192 9
802 1 10.9658 0.746353 4.1647 17
803 1 -15.7391 7.07283 8.67742 16
804 1 0.521869 14.6664 8.04103 21
805 1 4.27155 9.52248 -6.74966 22
806 1 -1.49825 -6.67975 -14.9661 11
807 1 -6.11506 11.7631 6.26031 20
808 1 -11.9992 -5.12819 8.65391 24
809 1 7.29229 9.24687 -1.1306 18
810 1 -0.516196 11.2533 11.7893 21
811 1 14.7956 -0.421851 -1.46138 13
812 1 7.94718 -1.80598 11.7629 16
813 1 -5.09574 12.2183 -7.2059 15
814 1 0.924167 9.78101 -6.55111 19
815 1 -6.92368 2.1721 11.7668 21
816 1 17.1766 6.61944 6.84666 9
817 1 -4.37651 -1.3219 -8.96717 15
818 1 15.0305 12.9668 2.249 14
819 1 -16.8745 4.40588 2.19937 15
820 1 -2.54026 -6.68728 12.2292 15
821 1 2.38625 16.0653 -8.82865 6
822 1 4.34756 -1.27043 12.6518 16
823 1 -5.05112 -13.4622 -1.58922 17
824 1 -7.69415 13.4206 3.54857 18
825 1 -17.4587 7.92416 6.39863 14
826 1 11.6411 -3.44661 -4.06173 16
827 1 -2.66671 -8.0606 -9.53506 21
828 1 -10.768 9.86962 7.59334 15
829 1 13.0501 12.5274 -2.93125 15
830 1 -10.6309 -2.16948e-04 5.36409 19
831 1 6.32934 -2.09517 -14.6511 10
832 1 -9.21228 -7.12785 -6.8547 22
833 1 -1.31238 -10.3929 -2.64923 19
834 1 -4.21426 15.2869 11.9059 16
835 1 6.70572 -14.0245 -1.58597 13
836 1 -4.34897 9.57168 -8.77851 20
837 1 12.1517 1.20057 -4.0295 19
838 1 5.27162 6.41252 3.77536 24
839 1 -1.33395 -17.4195 2.38084 7
840 1 4.4307 -2.31779 -11.3645 16
841 1 12.7948 4.92825 -0.0436737 22
842 1 -3.3116 3.97693 -14.7718 13
843 1 -0.518131 -9.29281 11.8635 11
844 1 8.86633 12.1951 -0.338448 15
845 1 7.34476 3.31993 -6.86868 16
846 1 -9.76816 3.50558 -1.98265 23
847 1 -15.677 1.40419 9.63056 16
848 1 -2.26825 1.79486 20.1392 10
849 1 -8.86614 -4.70613 9.40621 19
850 1 5.32077 7.87591 6.75515 20
851 1 0.0358093 -14.6425 7.97819 13
852 1 0.586667 8.98463 -1.39302 21
853 1 -3.44726 7.63244 11.3353 20
854 1 -10.5084 1.36725 11.2482 22
855 1 -11.2187 13.625 8.39924 12
856 1 6.97657 3.00697 -1.12826 19
857 1 -5.87978 -10.7647 12.6089 11
858 1 3.7022 -10.9463 5.43121 21
859 1 13.0137 8.25119 8.47802 17
860 1 7.00481 -3.0658 -1.33438 23
861 1 2.13221 -11.8846 -10.1258 12
862 1 -11.6546 -2.52508 -8.43364 19
863 1 -1.21999 2.04896 -12.3455 19
864 1 6.29662 18.3968 7.5469 13
865 1 -12.6551 -6.32455 17.1346 7
866 1 -8.15906 6.8456 -1.93058 19
867 1 -13.222 3.21317 -2.37045 20
868 1 10.6644 11.0156 -3.66632 13
869 1 -8.61791 -14.8201 5.8905 14
870 1 -1.21344 8.19729 6.4898 22
871 1 13.62 11.4757 7.13946 18
872 1 -12.2065 -8.9735 -7.9623 17
873 1 2.48978 14.349 5.69434 20
874 1 -8.7428 -2.23923 14.0602 20
875 1 -4.01861 -14.4091 -4.63892 10