ITEM: TIMESTEP
59000
ITEM: NUMBER OF ATOMS
2000
ITEM: BOX BOUNDS pp pp pp
-30.0 30.0
-30.0 30.0
-30.0 30.0
ITEM: ATOMS id type x y z Coordination
1 1 -15.0997 0.375073 -25.5802 16
2 1 -11.5868 -11.8961 -15.1638 21
3 1 -0.522323 7.78427 3.44144 17
4 1 1.55258 -15.719 -4.15514 18
5 1 -17.4247 7.54839 -15.3596 20
6 1 1.15444 -10.7269 -21.0899 22
7 1 -13.0976 -1.58265 -19.5677 18
8 1 -5.60792 -13.8185 1.57965 16
9 1 -17.3604 -5.69062 -20.5881 18
10 1 -20.8378 -12.6422 -3.97554 17
11 1 7.16202 -1.04403 -19.6758 16
12 1 -14.2671 -2.70097 -10.2497 21
13 1 -11.4487 -17.3518 -9.6357 20
14 1 -21.87 -13.8995 -6.88279 12
15 1 -3.96398 -1.38514 5.70029 19
16 1 0.083311 -10.0679 -2.51036 19
17 1 -9.62822 -3.35194 -2.77165 21
18 1 1.08475 -6.96415 -7.76931 23
19 1 -7.76581 5.41006 -16.7507 21
20 1 -0.734696 -6.93439 1.76336 23
21 1 -14.7556 -4.93971 -25.9877 16
22 1 -16.9402 -6.7791 0.456153 20
23 1 3.91897 3.9803 -1.80316 22
24 1 -3.63254 6.79737 -22.3929 16
25 1 -4.0891 1.518 -18.6648 19
26 1 6.34186 -2.24491 2.00756 11
27 1 -17.5549 -5.04122 -7.2939 19
28 1 -19.9595 0.560619 -18.8349 16
29 1 -9.25655 -7.60413 -17.8505 23
30 1 -18.3563 5.60198 -3.97687 22
31 1 0.744861 -18.4475 -3.81763 9
32 1 -3.50411 -3.95693 -2.50488 23
33 1 -6.50005 -17.2644 -20.7367 13
34 1 4.4625 -18.6568 -9.22617 8
35 1 -14.7562 -20.6646 -13.8023 10
36 1 -18.8734 -9.28622 0.52114 15
37 1 -4.01671 -8.33452 -15.6511 25
38 1 -8.88912 -12.7047 -19.5581 19
39 1 2.78479 -10.5483 -23.5146 15
40 1 -8.01062 0.356119 -24.9836 20
41 1 -4.1696 0.56415 1.12516 20
42 1 -13.4687 -14.2839 -9.96424 20
43 1 -0.634002 -11.1107 0.714848 15
44 1 -19.3447 -2.23942 -8.10859 20
45 1 -22.582 -6.56098 -4.16042 15
46 1 -18.8253 -5.99184 -10.383 20
47 1 -8.28907 6.87986 -12.9299 18
48 1 -9.8931 -16.6453 -21.7509 13
49 1 -6.13128 -5.85576 -21.637 17
50 1 -5.25942 -16.8087 -15.7535 19
51 1 -6.70903 -8.68669 3.33312 16
52 1 -19.5201 3.56186 -12.8131 18
53 1 3.72315 6.54902 -19.5498 13
54 1 -5.65975 8.7917 1.64685 13
55 1 -15.3209 0.585816 -20.4869 18
56 1 -13.2181 11.4329 -1.20965 11
57 1 -1.46562 -16.6535 -5.46141 18
58 1 -0.900501 -10.1586 -18.1533 22
59 1 -6.3811 -14.0875 -24.4134 13
60 1 -17.1805 4.59186 0.790394 16
61 1 -20.6669 -10.1164 -17.9882 15
62 1 -0.495904 -2.04671 -5.41638 22
63 1 -14.8075 4.53785 -14.1301 18
64 1 -13.3102 -15.8505 -7.42488 22
65 1 -10.2271 5.83161 4.19706 14
66 1 -22.4771 0.0978823 -16.516 10
67 1 -15.2643 3.20045 3.08152 13
68 1 -4.22755 1.42766 -12.9615 21
69 1 -5.24755 2.55651 -2.42816 20
70 1 -15.8035 -19.9039 -5.37052 15
71 1 -5.98096 2.59514 3.08776 24
72 1 -0.235596 -15.5102 -13.5512 22
73 1 -0.975597 5.91703 6.37985 14
74 1 -13.3896 -0.801262 -22.4349 18
75 1 -18.0312 -1.60689 -19.9954 21
76 1 -0.903808 0.5271 0.698706 22
77 1 0.927511 -4.87686 -16.0112 21
78 1 4.13887 -17.3066 -5.82593 9
79 1 -23.6345 -3.70941 -5.1447 14
80 1 -15.6143 -5.95538 -9.7622 21
81 1 -2.1581 6.17977 -5.73935 22
82 1 -2.13957 -9.39011 2.99175 17
83 1 -16.6485 -14.5625 -9.85264 21
84 1 -18.7725 -8.38402 -7.93171 19
85 1 7.93687 -0.157662 -3.4754 15
86 1 2.54463 -2.12324 -15.6231 22
87 1 -8.84782 7.37717 1.39959 17
88 1 -0.359875 -3.77025 -2.61266 22
89 1 -15.5126 -7.97205 -7.75062 19
90 1 -13.3894 -10.2429 -12.7599 20
91 1 -20.3595 5.99667 -0.489392 11
92 1 -15.5799 9.79143 -14.1619 11
93 1 -8.37056 4.56686 -19.8431 20
94 1 -0.748799 -4.08694 -13.2805 24
95 1 -2.34809 -5.28844 -15.8068 25
96 1 3.06772 8.99513 -17.2072 12
97 1 2.95713 -9.494 -8.22777 22
98 1 -3.50513 -13.5004 -4.65354 21
99 1 -12.0487 8.35361 -18.2722 17
100 1 -15.9545 10.2704 -1.44919 11
101 1 -13.9625 -4.52079 -2.4907 21
102 1 -12.7212 4.46092 -7.05595 22
103 1 -9.50092 -9.28066 3.81552 15
104 1 2.32035 -9.6988 -18.5805 23
105 1 -14.2553 0.987458 -7.55407 23
106 1 -19.0229 -18.5732 -6.2347 10
107 1 0.908147 -10.9727 -16.0299 21
108 1 4.65586 -7.64929 -23.5595 11
109 1 -11.2705 -2.02582 -28.6379 10
110 1 -2.0481 -5.10375 -5.55758 23
111 1 -7.76606 9.93759 -7.83336 18
112 1 -12.938 2.75069 -15.2887 18
113 1 -7.86566 1.79967 7.35767 14
114 1 -7.88443 8.65508 -16.4227 19
115 1 -17.2067 9.44118 -8.95775 15
116 1 -7.63227 2.99482 -5.92315 21
117 1 -11.7095 -12.6529 -2.22868 19
118 1 6.77606 -5.90951 -2.9861 15
119 1 -7.405 -10.3515 -18.1459 20
120 1 -2.33365 -10.983 -15.3742 24
121 1 -10.8882 -1.79858 0.253912 21
122 1 -1.09293 -7.01787 5.16919 15
123 1 -19.5853 -10.2606 -13.0519 25
124 1 -0.235392 -7.95948 -5.01504 24
125 1 -16.6912 -10.3294 -13.2699 22
126 1 4.59369 -10.5314 -10.7291 17
127 1 -11.1995 2.7733 -10.9179 23
128 1 5.02493 1.49679 -19.5896 20
129 1 -2.63962 8.81904 -16.3768 20
130 1 -15.0055 -15.12 1.6791 15
131 1 -17.8235 -14.7752 0.695455 13
132 1 -12.4934 0.309563 -10.5382 20
133 1 -1.14252 -13.8036 -22.7577 13
134 1 -2.54368 -1.23333 -13.2624 20
135 1 3.5653 -13.4251 -10.7873 19
136 1 -11.4736 -18.448 -1.83928 18
137 1 -18.3772 -13.3636 -6.97452 20
138 1 5.00076 4.00277 1.08861 16
139 1 4.68771 -7.16602 -18.2765 25
140 1 -22.3734 -5.07801 -10.8712 14
141 1 3.63586 5.06391 -8.22567 20
142 1 6.82155 4.98931 -7.20786 15
143 1 -12.9532 -3.93092 4.22664 14
144 1 1.00756 0.780792 -11.1868 20
145 1 -15.0237 6.85223 2.79468 9
146 1 -12.7314 5.75639 -16.6641 21
147 1 -10.2585 -9.46904 -19.8916 20
148 1 4.40312 -16.1451 -17.2755 14
149 1 -5.43682 13.3068 -19.2306 8
150 1 4.11355 -7.18608 -1.17923 18
151 1 -8.49899 -8.34955 -25.7589 17
152 1 -11.6198 4.2578 -19.4344 18
153 1 4.04847 0.874663 -11.4257 23
154 1 -16.4108 4.56391 -16.7745 20
155 1 -14.1295 8.67627 -10.7731 19
156 1 -0.912986 -4.26054 -18.5822 20
157 1 3.68667 -13.7394 -4.8537 15
158 1 -10.9922 -4.80288 -18.0455 24
159 1 -10.971 8.84163 -0.597691 18
160 1 2.15492 3.84448 -16.7001 20
161 1 0.52074 9.66608 -11.3028 16
162 1 -11.5586 11.1816 -12.4514 12
163 1 8.57039 5.06911 -10.4122 11
164 1 -9.6869 5.69583 -10.9748 21
165 1 -7.07573 10.8878 -18.7794 19
166 1 -4.82604 9.4258 -20.721 16
167 1 -23.629 -13.8434 -3.59041 5
168 1 -23.0413 6.24765 -11.0401 10
169 1 -12.452 -6.85554 -20.4874 21
170 1 -7.21014 -16.7816 -23.7281 9
171 1 0.43137 8.75612 -2.50102 18
172 1 -7.50566 10.9055 -2.8831 19
173 1 -17.1423 -8.77358 -10.6559 24
174 1 -16.5423 8.55499 -5.86655 20
175 1 7.52956 -6.42489 -14.0244 18
176 1 -16.8175 -0.756832 -23.042 19
177 1 1.93984 -6.19786 2.91403 14
178 1 -6.79355 12.3474 -7.15013 14
179 1 -8.61424 2.44488 -2.57984 23
180 1 -8.71773 -11.3303 -22.3748 18
181 1 -14.3659 8.94709 0.1994 13
182 1 -9.42191 4.13566 -13.8759 20
183 1 -4.84057 -11.1639 3.65132 12
184 1 -20.3144 -11.3808 -7.20387 19
185 1 -14.4219 -15.062 -18.8412 15
186 1 -9.76925 1.36559 -19.0877 18
187 1 -6.54862 -13.4585 -4.29168 24
188 1 -1.4178 -18.4105 -13.2106 18
189 1 -11.3564 6.0451 -23.9951 10
190 1 -23.1761 -1.85495 -2.50687 12
191 1 -2.34053 0.456699 -15.698 23
192 1 1.05032 6.94812 -16.154 20
193 1 -13.6688 -1.09788 5.6359 14
194 1 -8.13802 -18.393 -1.59249 18
195 1 -16.2219 -1.97995 -7.73913 21
196 1 -8.81941 11.8153 -5.44693 17
197 1 -7.01211 1.96645 0.31039 23
198 1 4.64173 -0.875343 3.98577 11
199 1 -14.6652 6.98157 -8.09362 20
200 1 8.19813 -4.84011 -19.8267 13
201 1 -11.2977 7.2669 -3.39164 16
202 1 -12.793 -5.35689 -15.6111 18
203 1 4.51685 -6.61066 -8.36068 22
204 1 -15.7401 -5.61462 -4.92313 23
205 1 -20.661 -3.24534 -5.29814 18
206 1 -15.0921 -13.2951 -6.75509 21
207 1 -1.34259 -3.55448 6.26501 12
208 1 -19.2255 -0.223361 -11.2152 20
209 1 -10.0213 -20.0338 -8.91059 18
210 1 -13.897 -4.65762 -12.5195 22
211 1 -0.667112 -9.66119 -13.1097 24
212 1 -14.1559 2.89524 -9.98809 17
213 1 -15.8124 -2.10876 -1.75288 20
214 1 0.417961 10.7559 1.90774 9
215 1 -18.5233 -3.55269 -14.5767 20
216 1 -11.2013 6.62255 -21.0165 16
217 1 -21.2059 -8.03546 -15.2648 18
218 1 -17.1419 -4.63877 -1.91689 21
219 1 -6.7057 -15.1065 -1.27526 25
220 1 -2.75082 -19.3643 -4.06923 12
221 1 -17.8648 9.5434 -3.61871 16
222 1 9.56332 -1.37501 -5.88926 11
223 1 -4.02094 -2.60116 -15.6732 22
224 1 -14.6479 -7.6253 -27.2043 10
225 1 -3.16361 -1.95774 0.230836 22
226 1 -1.60827 -16.6986 -10.5071 19
227 1 -8.25241 5.49389 -24.2274 14
228 1 -1.98647 -17.8768 -18.9758 11
229 1 1.33799 -6.73135 -18.7855 18
230 1 1.18391 0.0684728 -22.4793 22
231 1 -14.8609 -10.0148 -16.259 23
232 1 -10.0815 9.68724 -19.9193 14
233 1 -18.3108 -14.6724 -2.02007 17
234 1 3.9345 8.36779 -14.3649 17
235 1 -17.8372 -4.95991 4.17186 9
236 1 -14.8101 8.51323 -17.1822 16
237 1 0.254583 -2.43253 0.350436 22
238 1 -13.8288 -10.1256 -25.505 12
239 1 -13.9226 5.67229 -22.4663 10
240 1 -5.10428 -0.815399 -17.8306 19
241 1 -16.6563 -17.5663 -0.475724 12
242 1 -17.0895 2.45626 -3.87625 19
243 1 -13.1752 4.69664 -3.49821 18
244 1 -7.51759 -16.0063 -18.3619 18
245 1 -14.6811 -17.3241 -9.9879 21
246 1 4.46113 -10.5913 -16.413 22
247 1 -3.80436 -9.91004 -7.51333 25
248 1 0.264426 2.20276 2.72814 19
249 1 -2.12709 5.19748 -20.4175 16
250 1 0.459232 6.83113 -11.0201 18
251 1 -18.1702 6.53793 -7.43206 22
252 1 -20.1817 8.67667 -10.9251 13
253 1 -6.10809 -1.71238 -0.246869 18
254 1 -3.63211 -19.7153 -9.89063 16
255 1 6.06291 -1.39062 -16.0709 19
256 1 -7.42096 -0.314983 -2.1303 20
257 1 -18.3262 3.39577 -6.21412 23
258 1 -22.3498 -8.15128 -12.4418 16
259 1 0.488601 -1.26698 -19.385 20
260 1 -3.50158 -7.70388 0.765659 20
261 1 5.77256 4.20481 -21.6205 9
262 1 -3.57974 -15.9404 -12.8215 20
263 1 -12.1514 -3.8802 -20.7191 18
264 1 -4.24396 -20.8967 -6.88951 12
265 1 5.84556 -3.32751 -18.5602 19
266 1 -20.5002 -9.03002 -9.9622 21
267 1 -4.62771 -19.1906 -13.4811 14
268 1 -20.3463 -1.77523 -16.5419 19
269 1 -5.83454 10.1518 -13.7324 20
270 1 -8.41103 -5.81718 -23.769 20
271 1 -1.00714 0.422351 5.04504 22
272 1 9.31734 -1.29584 -11.5777 12
273 1 -10.2846 -10.1777 -7.13538 23
274 1 5.13406 -5.5272 -20.6963 16
275 1 -8.586 -12.9728 -7.2362 25
276 1 -16.4897 -8.37547 -24.6431 14
277 1 -20.0469 -1.31789 -21.8633 11
278 1 -10.754 -17.0004 -4.08954 23
279 1 2.73143 -4.11786 -2.67258 16
280 1 -0.486326 -8.08824 -0.706976 21
281 1 -14.0061 -11.5141 -22.0429 18
282 1 -6.56172 -9.8076 -2.05525 23
283 1 -6.15605 0.171906 -22.6144 22
284 1 1.11664 8.13312 -8.26479 19
285 1 -13.7687 -10.5337 -7.08646 21
286 1 -7.93199 7.19778 -9.05473 23
287 1 -15.8159 1.84835 0.19238 18
288 1 -19.0838 -12.5368 -20.0339 12
289 1 -13.8716 -9.60376 -19.1814 21
290 1 -6.95635 3.46709 -26.5417 13
291 1 -14.4737 -12.8345 -13.8949 20
292 1 -17.7027 -13.1491 -12.6393 19
293 1 1.45283 -8.00239 -25.3859 10
294 1 2.85781 -2.92486 -20.7803 15
295 1 6.30525 -3.43929 -8.14021 22
296 1 -7.08676 -10.4672 -12.8848 22
297 1 -15.279 -7.6081 -2.26969 22
298 1 -11.8104 -13.1984 -12.0967 24
299 1 1.00196 2.48982 -0.495449 20
300 1 -10.5349 -21.9467 -6.29467 15
301 1 -8.46604 -18.7959 -6.90127 21
302 1 -10.3311 6.74171 -15.0432 22
303 1 -0.258167 -1.20206 -25.8623 17
304 1 -17.6083 -6.10071 -25.9686 10
305 1 -2.06678 -10.8038 -10.2452 24
306 1 -20.9225 -13.827 -1.407 12
307 1 -2.13477 0.933112 7.54611 12
308 1 -3.48019 -13.5982 -10.5652 19
309 1 -12.2406 -12.7613 -19.7893 19
310 1 -13.8893 -2.37378 -16.9605 17
311 1 4.73673 -2.06049 -3.60405 16
312 1 -9.41837 0.202397 -21.9294 22
313 1 -6.12925 8.35832 -23.6282 13
314 1 -12.0385 -7.37964 -2.58335 19
315 1 6.08901 -13.3087 -16.7394 12
316 1 -11.754 10.1339 -9.77633 16
317 1 -4.45253 7.48611 -8.53485 19
318 1 6.1166 -1.66427 -6.00921 21
319 1 -21.4151 0.331353 -8.55635 19
320 1 -7.65325 -11.9928 3.66334 13
321 1 -12.9273 7.52413 -5.68696 20
322 1 -4.54763 -4.98043 -24.1916 22
323 1 7.00018 6.03441 -13.0902 18
324 1 -1.94815 -12.7038 -7.6273 23
325 1 -8.51261 -5.73443 3.21105 17
326 1 -18.9054 -7.95646 -2.09725 22
327 1 -3.51572 -19.0851 -16.2876 13
328 1 -14.7263 0.0339885 3.17822 19
329 1 -17.7949 -0.9393 4.27322 11
330 1 -19.9419 -6.60498 2.28556 11
331 1 -20.9624 -10.3748 -1.60486 13
332 1 4.39045 -6.75267 -13.6573 19
333 1 -19.3333 -12.1905 0.62946 12
334 1 -0.674871 -7.96423 -15.9895 22
335 1 6.90115 -9.71522 -18.4318 13
336 1 -7.60378 12.7168 -12.754 11
337 1 -10.2138 -7.92324 -4.55642 21
338 1 -19.2526 9.26871 -14.1256 10
339 1 -6.87953 -3.85037 -2.45172 21
340 1 0.038717 7.04994 0.248454 20
341 1 -17.3341 -8.51115 -4.90412 20
342 1 3.2115 -15.2165 -13.6196 19
343 1 -14.4016 10.1754 -4.30905 16
344 1 -17.5854 0.920342 -8.37824 22
345 1 -3.07288 -15.6586 -2.66054 18
346 1 6.5751 -9.31509 -8.80708 12
347 1 -14.1078 1.36138 -2.82349 20
348 1 -12.4603 -7.79426 -17.602 21
349 1 -10.3622 -2.72194 5.78562 13
350 1 -10.8603 10.7046 -3.36846 20
351 1 2.28858 1.32871 4.77416 18
352 1 -14.4726 5.99086 -19.4596 17
353 1 -9.23764 -6.17332 -27.4657 13
354 1 -10.8462 -2.42961 -15.5844 21
355 1 -0.62936 -16.2353 -21.6343 10
356 1 -21.2928 2.23419 -0.395032 13
357 1 -21.8001 2.68758 -5.80801 16
358 1 -10.8554 -8.35238 -15.3588 20
359 1 -15.8474 5.78038 -10.6812 21
360 1 1.54271 -6.60124 -2.36693 20
361 1 -20.1639 -15.9726 -8.15479 15
362 1 -1.83554 -10.7483 -4.81831 24
363 1 -14.9906 -12.922 -1.10346 21
364 1 -21.1445 6.67112 -8.66662 15
365 1 -11.6556 -9.78083 1.76746 16
366 1 -11.0157 -17.0171 -16.6496 19
367 1 -14.2593 -4.94302 -18.3554 21
368 1 -2.93509 -6.26064 -26.1958 12
369 1 -3.79768 8.81782 -5.55566 20
370 1 -22.6804 -2.73125 -8.10789 16
371 1 0.915232 -17.9382 -18.9469 9
372 1 4.69857 -0.215393 -22.2751 13
373 1 -16.0296 -15.6009 -15.3742 21
374 1 -22.2081 -10.637 -15.3288 12
375 1 -8.81337 -11.2005 -9.97369 23
376 1 1.36121 -1.58292 4.94655 15
377 1 5.64732 2.1879 -8.57631 23
378 1 -9.46863 -1.56454 -18.5654 17
379 1 -5.70888 11.6611 -10.368 18
380 1 -20.283 -5.21907 -13.1044 22
381 1 -15.8541 5.54591 -5.43776 24
382 1 -13.0362 5.66555 -10.7556 21
383 1 -10.8736 -0.186921 -2.68105 22
384 1 1.92104 4.86092 0.513993 23
385 1 0.961809 -7.02719 -13.3026 25
386 1 4.19498 -8.44017 2.21237 11
387 1 9.22684 -3.43082 -13.6634 16
388 1 -15.7422 -20.7367 -10.7045 12
389 1 -4.02221 -0.715929 -2.64967 22
390 1 -7.7 1.34407 -13.1099 18
391 1 -5.398 -13.1646 -12.8102 22
392 1 -8.04681 5.39488 -3.88031 19
393 1 -21.4041 -2.26071 -13.7047 13
394 1 -1.82075 -12.8835 -12.8653 19
395 1 2.71031 -1.75144 -6.14586 22
396 1 -15.5878 -8.59569 -21.2706 20
397 1 -16.5486 -16.3094 -7.40951 17
398 1 -16.8625 -11.9547 1.90344 13
399 1 -11.1684 8.15727 -12.6545 21
400 1 -20.8891 -13.3358 -13.737 16
401 1 2.05821 4.12211 6.56434 12
402 1 -16.8292 2.31372 -14.8831 18
403 1 -7.4127 7.68339 -19.7644 22
404 1 -3.05244 4.67007 -2.82121 17
405 1 -21.9821 -10.8927 -11.8164 12
406 1 -9.19768 -18.317 -14.2005 15
407 1 -19.0785 -5.69798 -4.27468 20
408 1 -17.404 6.74861 -18.4643 14
409 1 -5.10598 -10.9566 -4.97827 22
410 1 -10.3196 -16.2028 -12.2012 19
411 1 2.97801 9.8554 -0.423713 11
412 1 -0.860207 1.55247 -24.8194 14
413 1 -10.9311 -2.20254 -22.7738 17
414 1 -9.96664 6.42061 -18.3659 20
415 1 -16.0626 -1.87063 -12.8598 15
416 1 -7.9217 -16.4516 -4.18172 22
417 1 3.87354 0.785863 -5.88198 23
418 1 -2.34881 4.09606 -23.5107 15
419 1 -11.3656 -4.53469 -0.749738 21
420 1 -21.2402 -2.3131 -11.0524 17
421 1 -16.0355 -0.103092 -5.13256 19
422 1 -6.7708 -15.4445 -6.88345 21
423 1 -5.51008 -11.2102 -15.6022 23
424 1 -4.1739 -15.5564 -22.3392 13
425 1 -4.97032 -6.66764 -1.99696 25
426 1 -23.5347 1.83241 -3.22086 11
427 1 -19.382 -5.33895 -0.50349 22
428 1 -21.6817 4.41246 -2.69123 16
429 1 -11.6918 -12.8012 -6.89521 23
430 1 -14.0892 -1.84591 -27.5702 13
431 1 -4.43397 -15.7393 -18.9497 22
432 1 -10.3674 -14.6122 -17.4903 16
433 1 -6.59696 -7.48127 0.583362 22
434 1 -4.24223 -10.1555 -12.9158 23
435 1 -9.87372 -3.64779 -25.635 19
436 1 1.74852 -16.6104 -10.5935 20
437 1 -4.40259 5.66991 -16.3374 18
438 1 -20.5553 7.74415 -3.61077 14
439 1 -12.137 -7.4729 3.7188 15
440 1 -18.6999 -9.07191 -20.4904 17
441 1 -15.2107 -11.0116 -3.94812 20
442 1 1.62948 -12.9575 -2.19857 13
443 1 -0.344973 -2.09458 -10.7044 20
444 1 -12.5351 0.104504 -5.16355 21
445 1 -5.84432 -7.14523 -18.3455 19
446 1 1.6849 -10.6406 -5.02242 22
447 1 8.59155 3.07615 -12.7161 16
448 1 -7.02445 -3.31945 5.42323 16
449 1 -4.68545 9.1821 -11.4103 16
450 1 -0.387636 -9.86922 -7.74223 25
451 1 -12.1432 -18.925 -14.1486 15
452 1 -12.4875 1.97567 4.71297 18
453 1 -4.73342 9.99261 -1.28951 17
454 1 -17.5019 -14.7474 -17.9271 14
455 1 0.793398 13.0504 -5.976 10
456 1 -4.30516 3.61275 0.459873 23
457 1 -18.8961 3.46561 -1.28498 18
458 1 -15.7942 -7.78872 -13.6893 22
459 1 -23.0315 0.129436 0.0550738 11
460 1 -16.2062 -7.72896 -17.9354 22
461 1 -9.41665 7.25422 -6.22131 19
462 1 -9.63216 -15.0258 -14.5353 20
463 1 -10.8263 -9.69063 -27.7344 8
464 1 -11.3944 -18.2741 -6.65785 23
465 1 -14.1689 -4.47854 -7.7051 21
466 1 1.36018 -1.57595 -3.38967 20
467 1 -13.0384 -7.02249 0.182703 21
468 1 -15.6045 2.719 -23.0572 14
469 1 2.27477 3.81458 -11.1543 22
470 1 -16.7341 -17.8703 -12.6637 17
471 1 -2.53036 -1.38359 -18.2654 24
472 1 -9.73112 14.235 -7.62316 9
473 1 -5.64535 0.587759 -15.5708 21
474 1 -10.1248 5.31016 -0.865793 20
475 1 -21.9487 2.83308 -10.6938 11
476 1 -7.08167 11.5188 -16.054 13
477 1 -4.06429 7.39597 -13.6546 20
478 1 -17.4698 -12.5734 -15.4996 24
479 1 -3.66698 1.29071 5.09464 20
480 1 -9.83906 -20.2606 -16.6201 10
481 1 -10.2346 -8.4375 -22.7118 20
482 1 1.8781 -18.2882 -7.02633 16
483 1 -19.0656 5.72825 -10.6457 21
484 1 -2.55582 2.93948 2.99778 23
485 1 4.97628 2.47011 -13.8996 20
486 1 3.76773 6.65288 -11.4578 21
487 1 -7.94699 2.63554 -22.4534 14
488 1 -2.38535 -7.15383 -18.5304 24
489 1 -8.41918 -10.8846 -4.58602 22
490 1 -23.5427 -7.72204 -9.60732 11
491 1 -5.27953 11.2524 -4.61578 21
492 1 -13.3062 -2.86603 -24.8126 21
493 1 2.17826 1.96752 -14.1199 23
494 1 -2.4808 11.1954 -19.2621 13
495 1 2.52324 -4.30201 -13.4676 22
496 1 6.21956 -3.7648 -13.5929 21
497 1 -4.48418 -1.40466 -20.6558 21
498 1 -5.12041 -12.9129 -7.52798 24
499 1 -0.151359 -15.8582 -1.56095 12
500 1 -3.34062 -15.9293 0.00628251 14
501 1 -17.1428 -1.62182 -17.4053 16
502 1 -10.0193 -15.3334 -1.69612 22
503 1 -12.2352 -17.0042 -19.4497 12
504 1 0.729685 11.7134 -3.34879 15
505 1 -5.8409 -1.58534 -25.3309 22
506 1 -1.98664 -4.94355 0.0594926 22
507 1 -22.2305 -2.80345 0.542342 13
508 1 -13.3288 -20.095 -8.42813 18
509 1 -13.8128 -8.2756 -4.94411 20
510 1 7.66583 -7.69125 -20.6537 12
511 1 4.79239 -4.63596 -10.8705 20
512 1 -9.19291 2.89825 -16.5051 17
513 1 -6.9643 -14.1933 -15.3896 21
514 1 -0.812044 -2.41501 -22.4258 19
515 1 2.99341 -7.73467 -21.0068 21
516 1 -8.91654 -2.5253 3.0042 19
517 1 -1.92985 11.4013 -10.4721 14
518 1 -11.977 -4.8481 -27.7825 14
519 1 -4.51313 -2.78281 -27.4193 14
520 1 -13.4167 -10.1156 -1.36371 20
521 1 -11.5072 7.32275 -8.64114 22
522 1 -14.8292 -5.55122 -22.6828 20
523 1 -23.4166 -0.356908 -5.62239 11
524 1 -12.5038 -14.9431 -21.961 12
525 1 -11.8957 -14.3675 1.12937 17
526 1 -0.63749 3.24475 -16.001 21
527 1 7.33717 2.35934 -1.43977 15
528 1 7.26227 1.50291 -11.125 18
529 1 -19.1646 -15.4874 -11.7064 15
530 1 -6.90676 -14.0822 -9.95226 22
531 1 -16.6167 -2.56897 -25.7629 13
532 1 -13.8305 5.82361 0.266153 16
533 1 -1.90405 -10.5383 -20.7686 21
534 1 -4.11363 3.40023 -10.9136 22
535 1 2.86906 -7.61875 -10.7739 23
536 1 -2.03064 8.33099 -19.5426 16
537 1 1.51437 -12.493 -7.75635 21
538 1 3.83666 1.38388 -16.5689 21
539 1 -4.84744 3.15817 7.69078 12
540 1 -19.9355 2.29103 -3.6567 20
541 1 -1.77527 10.338 -0.882292 17
542 1 0.928818 -9.14245 3.38588 13
543 1 -3.13791 0.408026 -27.1443 13
544 1 -10.4566 -10.3278 -12.4301 22
545 1 -5.11816 -4.6986 0.340804 21
546 1 -2.35065 7.88956 -2.53908 19
547 1 6.97358 5.6659 -19.2669 12
548 1 -18.9063 3.58305 -18.7566 14
549 1 -5.8775 4.39056 -13.825 21
550 1 5.35885 -5.12322 1.97537 13
551 1 1.85003 -5.93529 -23.3351 14
552 1 0.339646 -13.5751 -10.1027 21
553 1 5.31573 7.42049 1.67041 12
554 1 -21.9777 -8.7228 -6.92522 12
555 1 -15.9644 3.87007 -20.2832 19
556 1 -8.37498 0.0989824 1.82477 18
557 1 -19.5544 -3.202 2.98881 17
558 1 -9.14359 8.36645 -22.7666 13
559 1 4.70123 -16.1783 -11.5521 12
560 1 -0.859954 -2.27457 -16.1115 20
561 1 -12.2477 9.03169 -15.3869 18
562 1 -18.4469 -6.67848 -22.7632 15
563 1 -0.041285 -15.794 -7.64266 20
564 1 -18.5789 -11.6125 -10.3406 23
565 1 -7.54042 10.9545 -21.4414 12
566 1 -17.6617 -2.86471 -10.9302 19
567 1 -7.30499 4.39047 5.04363 16
568 1 -16.877 -10.0417 -1.60212 18
569 1 -0.811424 3.61758 -10.2624 20
570 1 -3.80764 -14.1821 -15.4606 24
571 1 -3.21654 -12.6993 1.33657 14
572 1 4.29172 -0.981117 -14.0714 24
573 1 -19.4114 3.26244 -9.04748 22
574 1 -4.43626 -2.57823 8.05322 11
575 1 -2.75233 10.7907 -13.9417 16
576 1 2.51555 -7.81542 -15.9577 24
577 1 -3.00997 6.02287 1.85885 20
578 1 -4.55399 1.80578 -24.6047 20
579 1 -13.3484 -17.5926 0.466179 13
580 1 -7.87537 -4.3256 -18.3634 20
581 1 2.44718 -2.48793 -26.8991 7
582 1 -5.62499 7.58267 -3.11209 21
583 1 -0.0577062 3.05086 -21.6659 16
584 1 -12.0246 -5.3763 -23.7557 18
585 1 -14.9696 -14.7865 -12.3922 22
586 1 -16.7156 -10.6642 -18.454 22
587 1 7.60474 -0.281567 -7.89095 16
588 1 7.35446 0.0967231 -13.7741 18
589 1 2.12918 -15.2742 -20.441 11
590 1 5.23096 2.43944 3.37578 10
591 1 2.7542 -13.4199 -16.1274 22
592 1 -2.32322 -3.50655 -25.1044 19
593 1 -0.68567 10.9616 -7.83574 17
594 1 -14.0083 -2.49672 -4.91408 20
595 1 3.69843 5.68416 3.87601 14
596 1 5.43601 4.32843 -10.9169 25
597 1 7.93744 -6.51885 -8.67432 14
598 1 7.43409 -4.74535 -16.8038 21
599 1 1.6495 -4.93037 0.149405 21
600 1 7.11593 0.995659 1.34231 10
601 1 -9.97315 -7.17906 1.03405 21
602 1 3.68641 5.02189 -14.141 20
603 1 -0.587051 -4.06395 -8.28339 19
604 1 -3.91634 -4.80153 5.9783 15
605 1 10.2129 -3.39736 -17.428 10
606 1 2.9204 -0.938985 -0.89733 16
607 1 -15.8114 -5.25328 -15.5443 18
608 1 2.59338 1.9782 -8.21145 21
609 1 3.05742 -9.37744 -13.4877 23
610 1 -5.4953 -11.1113 -10.0589 25
611 1 -19.9473 -0.893656 1.60789 18
612 1 2.60755 8.25664 1.80627 15
613 1 7.75235 -4.61413 -0.421561 12
614 1 -6.03796 6.60326 -5.97033 21
615 1 -3.63829 7.39502 4.93528 12
616 1 -5.8553 0.580517 -4.95999 21
617 1 -7.51981 -21.6754 -6.91318 13
618 1 -12.0114 5.29524 -13.2296 18
619 1 7.40129 8.54106 -14.2613 10
620 1 -0.673318 -7.91929 -20.7921 21
621 1 -9.33259 12.3257 -10.6489 15
622 1 -9.24402 -18.3925 -19.4895 12
623 1 1.70242 -13.6718 -23.0537 9
624 1 -20.043 0.149773 -5.80748 19
625 1 -11.6388 0.172085 -17.037 21
626 1 -6.30857 -19.8031 -4.24257 15
627 1 -13.0864 -8.22074 -22.9369 19
628 1 -20.9638 0.49434 -13.8924 13
629 1 4.8305 -12.3059 -7.93611 15
630 1 0.520594 4.83431 -7.81015 22
631 1 -6.52467 -16.778 1.04928 12
632 1 -21.9738 -2.00819 -18.9535 10
633 1 -6.89707 -4.86096 -26.2799 18
634 1 -1.75894 -6.61963 -2.62628 22
635 1 -10.1017 1.74954 -0.0841385 23
636 1 2.62527 -0.177038 -25.0349 11
637 1 6.89743 -7.47749 -0.0114889 10
638 1 5.15374 6.57532 -16.4372 17
639 1 1.60033 10.2594 -6.30986 17
640 1 -1.91481 -16.7009 -16.1558 21
641 1 -13.7512 -11.9629 1.52294 16
642 1 4.66549 -4.57547 -5.31361 19
643 1 -13.0243 5.2228 4.51369 14
644 1 0.421133 8.03585 -18.9822 15
645 1 -17.575 5.36576 -13.4544 21
646 1 3.27824 9.29865 -9.51502 18
647 1 -17.7255 -17.9049 -9.50148 15
648 1 6.04005 -7.38046 -11.3986 18
649 1 -1.48685 14.0851 -4.0901 9
650 1 -12.7715 0.744631 0.183836 21
651 1 -17.1498 -10.7539 -7.82646 21
652 1 -19.0776 -7.04014 -18.037 19
653 1 -2.24338 -1.13037 2.98465 20
654 1 -8.92003 -13.7368 1.15567 18
655 1 -1.52812 4.33438 -0.137759 22
656 1 -14.1765 7.51818 -13.6742 22
657 1 0.987171 1.18054 -5.40189 19
658 1 -0.467659 -7.79322 -10.1886 24
659 1 -2.24578 0.754849 -5.04535 23
660 1 -2.89499 -4.83242 -20.9816 21
661 1 -16.8582 -1.13163 1.31175 23
662 1 3.07524 2.50046 -22.46 10
663 1 -8.86192 -11.5279 -15.2593 21
664 1 3.73045 -12.5231 -18.7608 19
665 1 -0.830414 3.67532 -4.67322 19
666 1 -4.72234 3.57056 -5.65261 17
667 1 -18.2676 -1.12135 -3.37292 16
668 1 0.940751 6.41593 -5.24727 20
669 1 -3.94381 -8.43827 4.99966 13
670 1 -11.8525 2.96785 2.50595 21
671 1 -7.05241 -8.61891 -23.1614 17
672 1 -15.7864 -3.04087 3.8986 19
673 1 2.20997 1.54903 -2.84684 20
674 1 -13.588 -15.675 -1.68267 23
675 1 5.64906 3.74337 -16.9174 16
676 1 1.7293 -18.2275 -13.1528 14
677 1 -8.8169 0.259141 -15.5955 19
678 1 0.628504 4.34476 -13.172 20
679 1 -0.622508 8.86348 -5.12535 20
680 1 -1.28371 -3.04838 -27.8806 10
681 1 -8.52927 -7.08379 -1.92017 23
682 1 -9.36437 10.0374 -13.8619 20
683 1 6.2298 7.3355 -9.77846 15
684 1 -15.1542 -11.6937 -10.4129 22
685 1 -8.06893 -2.02303 -27.088 16
686 1 -17.4163 8.21656 -12.1333 20
687 1 -3.37603 -11.4127 -23.176 17
688 1 -4.499 1.64754 -7.65789 22
689 1 9.54104 5.41558 -14.3288 9
690 1 5.3606 9.18425 -11.9934 13
691 1 -9.09881 0.27304 -5.26877 22
692 1 -14.6168 0.919496 -13.0043 20
693 1 -0.919256 1.78689 -12.8961 20
694 1 1.22368 -0.533818 2.1096 21
695 1 3.14421 -2.69742 1.98184 16
696 1 -9.93874 -16.8703 0.690206 15
697 1 -11.3789 0.324434 -24.4966 18
698 1 -2.68993 9.41152 2.3312 15
699 1 -0.207829 -11.3894 -25.2392 11
700 1 -1.1056 -0.612616 -2.20756 18
701 1 0.241089 12.051 -13.4042 10
702 1 -1.91301 8.16194 -8.22023 21
703 1 6.38566 -8.14527 -15.7273 20
704 1 1.21738 0.928883 7.50449 11
705 1 -21.614 -7.3757 -0.617018 13
706 1 -6.88224 -19.7656 -9.50797 17
707 1 -9.43929 -6.03666 -20.3027 20
708 1 -11.8096 13.2693 -9.28578 8
709 1 -7.00726 5.01551 -0.780037 23
710 1 -3.82854 -7.93047 -21.9923 22
711 1 -3.96845 7.1065 -0.365711 21
712 1 -23.7178 -5.51185 -7.27504 12
713 1 -7.15059 -0.202216 4.59828 17
714 1 -12.4297 1.65649 -21.2178 15
715 1 -13.3561 3.34248 -25.2309 13
716 1 -3.39181 -15.705 -8.16372 20
717 1 -1.76963 -0.268424 -21.1533 18
718 1 -3.50247 -8.05959 -5.12217 24
719 1 -9.82608 4.42309 -8.3318 20
720 1 -19.1734 0.533545 -0.677728 19
721 1 0.617165 -5.05634 -21.0227 21
722 1 -4.83871 -18.0092 -1.91883 14
723 1 -4.46844 10.6859 -8.15811 19
724 1 -11.0964 0.336127 7.14748 13
725 1 -17.252 -11.0907 -22.4483 12
726 1 -11.5154 -11.5512 -23.0121 15
727 1 -14.0848 -12.6526 -17.2928 18
728 1 -10.0001 10.8468 -17.1395 12
729 1 -0.455448 -9.05274 -23.5919 20
730 1 -10.8716 9.65393 -6.40581 21
731 1 -3.5467 -12.9945 -20.3391 19
732 1 0.070772 -19.4115 -10.4126 13
733 1 -3.51337 -9.60788 -2.1368 24
734 1 9.93837 0.0961106 -18.3902 10
735 1 -4.96812 -16.9323 -10.6802 18
736 1 -21.5582 -4.33604 -2.57777 17
737 1 -4.4154 -4.36852 -18.4684 23
738 1 -14.1768 -17.0924 -4.84755 20
739 1 -14.5065 -17.56 -16.3067 13
740 1 -12.855 -1.84256 -2.07172 22
741 1 -17.1272 -20.852 -7.89668 10
742 1 9.34601 -1.18325 -15.8722 14
743 1 -14.01 9.56894 -7.49551 18
744 1 -10.6911 2.95285 -5.12519 19
745 1 -19.7886 8.9853 -6.43405 11
746 1 3.28655 -7.6514 -5.64 18
747 1 -20.0808 -4.47174 -20.1968 15
748 1 -5.19155 8.25086 -17.9554 17
749 1 0.64069 -1.04272 -13.7136 22
750 1 1.90202 7.34419 5.11679 11
751 1 5.84916 -1.50212 -11.3611 22
752 1 -18.4843 1.68957 -21.3348 15
753 1 -18.153 -9.31771 -15.7717 24
754 1 -8.06906 -1.56789 7.63725 10
755 1 -4.94718 4.89623 -19.2634 21
756 1 2.86204 9.10619 -3.88083 15
757 1 -8.34871 -4.61319 0.353523 20
758 1 -12.4109 -20.7979 -11.2323 11
759 1 -14.841 -18.6966 -2.36652 15
760 1 -9.96699 -9.73865 -1.55974 23
761 1 6.72165 5.77736 -1.0494 11
762 1 -4.04481 -10.1341 -18.4566 21
763 1 -13.4113 2.30565 -18.4416 19
764 1 -2.59727 6.49953 -11.1047 19
765 1 -11.7362 -10.7282 -4.4374 22
766 1 10.5054 3.13758 -16.1587 8
767 1 -7.30683 -20.9827 -14.2654 11
768 1 -8.96599 -20.9518 -11.5339 10
769 1 -8.14243 -16.8959 -9.63472 20
770 1 -1.17614 1.97655 -18.7336 21
771 1 -2.91453 12.7521 -6.7069 13
772 1 -7.69902 -2.76892 -23.6324 24
773 1 -5.5963 -5.70541 3.52946 19
774 1 -2.90132 -0.692208 -23.9345 20
775 1 -17.7433 -3.68934 -22.9926 17
776 1 -17.0561 -5.04243 -12.7628 19
777 1 -4.36461 10.9221 -16.8811 18
778 1 1.19037 -5.05131 -10.4933 21
779 1 -11.5534 -7.3795 -25.9566 17
780 1 -12.0324 -11.242 -9.69025 23
781 1 0.509453 0.435008 -16.8076 24
782 1 7.58753 -11.3197 -15.9779 12
783 1 -18.0665 1.55565 2.31716 16
784 1 3.23645 -15.4031 -7.92765 22
785 1 6.64247 -9.41403 -13.1871 15
786 1 7.97979 -4.49654 -6.0325 16
787 1 -8.51539 7.77928 -1.90665 19
788 1 -16.845 -3.7505 1.23932 21
789 1 -15.4896 4.08197 -1.91192 21
790 1 -12.5215 -19.9935 -4.31018 17
791 1 3.03118 -3.94634 -7.99031 22
792 1 -0.135606 5.19586 3.28789 21
793 1 -20.7269 -5.18218 -8.39258 18
794 1 -2.38998 -12.8538 -18.0049 21
795 1 -20.7619 6.74008 -13.6463 18
796 1 -6.32385 4.52393 -8.55114 23
797 1 -4.53455 -18.215 -7.67841 16
798 1 -2.85134 -5.48579 3.10459 21
799 1 -7.3489 9.06261 -4.97945 22
800 1 -4.92566 -16.3657 -4.82743 20
801 1 -18.957 -7.5378 -12.772 23
802 1 -5.38904 -2.61519 3.0802 20
803 1 -21.4022 -4.91164 -16.2552 13
804 1 -4.09904 4.59766 5.07077 18
805 1 -5.95284 6.18686 -11.1073 23
806 1 -19.9175 -15.3332 -4.78472 17
807 1 -9.96503 -16.0583 -6.8299 23
808 1 3.14599 -9.90404 -2.30243 15
809 1 4.92932 -10.5119 -5.02672 14
810 1 0.567606 4.82123 -2.38809 23
811 1 -11.1581 1.2599 -13.4443 22
812 1 -5.78404 -12.7372 -18.1119 21
813 1 -4.63848 -2.61014 -22.8335 20
814 1 -11.4769 -4.3512 2.13781 21
815 1 -12.1736 12.3425 -6.05397 13
816 1 9.14099 -3.35822 -8.83844 14
817 1 -0.918617 11.4939 -16.6245 16
818 1 -10.3779 3.60666 6.16328 15
819 1 5.46361 1.12825 -3.10708 19
820 1 -6.52458 -10.8667 -24.6131 17
821 1 -13.8599 -17.2573 -13.1521 18
822 1 -12.2727 -7.46388 -12.7951 20
823 1 6.27664 -7.51597 -5.91398 17
824 1 -8.56151 -3.28321 -21.0341 21
825 1 -8.7338 4.04627 1.9393 24
826 1 6.24523 -15.0399 -14.8176 11
827 1 -1.34474 -5.99348 -23.4306 19
828 1 -8.48752 -13.1964 -12.2767 23
829 1 8.09052 6.09939 -16.6262 11
830 1 7.95495 -4.67603 -11.1389 16
831 1 -5.03523 -10.3183 0.640913 23
832 1 -12.8488 -14.9828 -15.097 21
833 1 3.06647 11.3155 -12.1273 13
834 1 -4.81792 -12.52 -1.6764 22
835 1 -20.8208 5.87459 -5.84606 17
836 1 3.75617 -1.00434 -18.1484 21
837 1 7.25235 1.53662 -5.92393 20
838 1 -5.73151 -10.8813 -21.1214 22
839 1 -15.1746 7.07084 -2.85344 22
840 1 5.17165 3.6665 -5.65559 19
841 1 -1.12785 6.97839 -14.0742 19
842 1 2.44741 -2.96213 -23.4742 15
843 1 1.05283 -10.626 -10.671 21
844 1 -17.8562 -0.243669 -14.6014 18
845 1 2.31099 3.90861 -5.43739 23
846 1 -21.3318 -13.341 -10.2241 13
847 1 -16.0205 1.35544 -18.0045 16
848 1 -1.96533 2.07408 -2.23538 20
849 1 -17.4408 -4.53379 -17.7873 19
850 1 -22.4947 3.67635 -8.14021 12
851 1 -7.00786 -1.14851 -20.143 19
852 1 4.88009 -10.4443 -21.1711 14