ITEM: TIMESTEP
54000
ITEM: NUMBER OF ATOMS
500
ITEM: BOX BOUNDS pp pp pp
-30.0 30.0
-30.0 30.0
-30.0 30.0
ITEM: ATOMS id type x y z Coordination
1 1 -13.4288 -2.04624 -10.2143 12
2 1 -19.3636 7.93935 -7.38605 11
3 1 -25.5529 7.99892 -12.5923 20
4 1 -22.5212 3.13089 -25.892 14
5 1 -28.3309 2.28086 -19.1506 17
6 1 -18.8678 6.40493 -25.9938 18
7 1 -15.5834 -4.50144 -21.9102 14
8 1 -18.2867 5.34242 -10.6836 21
9 1 -18.2292 8.29211 -23.3577 20
10 1 -17.0147 8.96788 -10.0232 16
11 1 -27.9694 0.757501 -16.1503 21
12 1 -12.4129 0.98033 -21.5103 14
13 1 -17.2898 2.41676 -7.592 15
14 1 29.013 0.6007 -16.9932 10
15 1 -20.4786 -2.27639 -26.0364 13
16 1 -13.668 6.45329 -22.9413 21
17 1 -11.2069 -0.815751 -12.6125 11
18 1 -18.5531 11.9348 -10.6736 15
19 1 -22.1226 11.9978 -15.8779 17
20 1 -17.5707 -0.458701 -25.2021 12
21 1 -21.1629 6.10107 -10.1933 20
22 1 -10.9405 2.16473 -13.011 16
23 1 -23.9121 10.9152 -12.972 15
24 1 -17.8638 11.5097 -25.4888 13
25 1 -17.047 13.8139 -21.7781 9
26 1 -19.7259 11.62 -23.4818 20
27 1 -23.5905 6.9998 -23.0431 21
28 1 -22.1689 11.9929 -21.0779 15
29 1 -20.9265 10.6871 -18.239 22
30 1 -28.7129 6.09768 -16.1405 15
31 1 -20.4596 9.61087 -11.3287 17
32 1 -24.7868 6.22306 -26.001 15
33 1 -27.0284 -3.25418 -11.104 9
34 1 -15.1227 -2.63862 -17.7386 21
35 1 -28.6206 2.53801 -13.5287 14
36 1 -26.2224 2.67532 -21.7952 19
37 1 -26.5831 -5.14164 -14.4747 10
38 1 -15.1291 6.92003 -25.9651 15
39 1 -24.9736 -4.77999 -22.0315 10
40 1 -20.2794 9.56421 -25.8197 16
41 1 -20.805 13.6213 -18.1783 15
42 1 29.9138 5.46258 -13.1899 10
43 1 -15.2196 11.7893 -11.3846 13
44 1 -16.5462 2.6864 -10.7961 19
45 1 -18.4508 -5.10865 -22.0364 16
46 1 -12.1621 9.65426 -22.578 11
47 1 -24.3597 -5.89261 -16.0902 12
48 1 -12.4412 1.15833 -9.68215 14
49 1 -16.6885 -2.3566 -9.79547 14
50 1 -16.3886 13.795 -15.5624 14
51 1 28.9988 -2.7853 -15.7971 8
52 1 -17.9755 -5.11257 -15.6518 19
53 1 -23.5247 3.433 -9.35029 19
54 1 -26.6599 3.41084 -9.70103 11
55 1 -15.6749 -7.1338 -16.8534 12
56 1 29.3494 0.144292 -13.727 13
57 1 -20.6374 11.5021 -7.71619 7
58 1 -28.8571 7.72464 -13.0872 10
59 1 -21.6909 8.6177 -8.84809 16
60 1 -25.7637 -1.97803 -23.283 12
61 1 -27.6898 6.57506 -23.8927 10
62 1 -22.845 -4.09586 -24.228 13
63 1 -13.2014 8.81189 -14.9682 20
64 1 -19.7984 -0.353517 -6.53996 11
65 1 -24.6551 1.50628 -24.0523 16
66 1 -29.3453 -1.1259 -18.7325 13
67 1 -21.5096 -5.59257 -14.8793 14
68 1 -26.6322 10.4936 -12.9036 12
69 1 -20.1449 -5.77525 -25.5747 12
70 1 -20.9776 12.5841 -12.9512 16
71 1 -28.3446 8.39981 -18.873 11
72 1 -25.3723 9.11901 -24.2114 15
73 1 -20.095 -8.79544 -23.9373 6
74 1 -13.6146 0.351042 -12.2871 18
75 1 -26.7982 8.78808 -21.4673 16
76 1 -24.2529 2.36612 -6.96793 10
77 1 -24.4672 9.9702 -10.0848 13
78 1 -17.6891 -4.12533 -25.155 10
79 1 -21.8997 -3.16635 -7.9871 12
80 1 -15.3509 -1.81558 -23.6734 13
81 1 -10.7144 6.44033 -15.5631 14
82 1 -16.4333 5.10529 -27.4049 11
83 1 -16.3437 -6.1819 -13.4052 9
84 1 -24.5937 -4.28462 -18.9589 16
85 1 -26.0728 -0.868506 -11.8284 18
86 1 -16.4073 5.76238 -7.09839 9
87 1 -11.7827 13.7914 -18.5612 5
88 1 -17.045 9.05024 -27.1933 10
89 1 -21.4267 12.2709 -26.4224 9
90 1 -19.8187 14.8292 -15.5172 11
91 1 -13.4219 4.41438 -25.6412 13
92 1 -14.4645 -4.83151 -15.6351 12
93 1 -13.0774 -1.85105 -15.2957 17
94 1 -18.152 -3.21316 -12.2686 19
95 1 -27.3189 3.86347 -24.3981 9
96 1 -10.2084 5.9829 -18.0374 17
97 1 -22.936 10.5602 -24.1697 19
98 1 -19.7244 -7.93171 -20.6021 12
99 1 -28.1872 1.27232 -11.205 13
100 1 -18.8921 -7.02103 -17.168 14
101 1 -16.0254 1.1207 -23.0029 21
102 1 -13.8119 -5.09496 -19.1235 9
103 1 -16.6467 -6.84663 -19.6505 14
104 1 -20.768 2.20632 -6.73654 14
105 1 -22.5442 5.76184 -7.79537 13
106 1 -14.2822 3.75868 -22.5952 22
107 1 -26.7901 10.8663 -18.8334 13
108 1 -17.1937 10.5655 -17.873 21
109 1 -12.8149 7.46328 -20.1285 19
110 1 -22.0043 6.27807 -26.5027 16
111 1 -29.7744 3.01612 -15.6073 17
112 1 -18.5627 0.382094 -9.59062 21
113 1 -27.6817 5.45461 -21.1223 16
114 1 -10.6421 0.268477 -15.4075 12
115 1 -14.0789 3.74376 -8.55221 12
116 1 -19.8593 -2.58186 -9.30624 16
117 1 -11.4369 11.865 -15.7563 10
118 1 -11.7559 10.4905 -12.8442 10
119 1 -21.6888 -5.80095 -22.1664 14
120 1 -12.4337 7.64947 -11.5086 14
121 1 -21.3776 8.17776 -23.2455 22
122 1 -22.2405 -6.90591 -17.9381 12
123 1 -17.0087 11.0514 -14.0462 21
124 1 -26.9028 9.27114 -15.6659 18
125 1 -13.6591 10.348 -19.6486 21
126 1 -19.354 5.1821 -7.00452 14
127 1 -19.5739 3.46148 -25.9336 15
128 1 -13.4208 -2.12217 -20.6825 14
129 1 -17.6083 13.4393 -13.2207 13
130 1 -26.844 5.06126 -11.9922 15
131 1 -13.0231 1.14113 -24.8355 13
132 1 -15.2985 0.596849 -9.43287 15
133 1 -24.7794 6.58162 -9.54252 17
134 1 -12.3845 4.00217 -11.2368 13
135 1 -19.1561 12.053 -20.2053 17
136 1 -14.3619 11.2399 -16.4288 21
137 1 -23.3537 -0.55615 -6.73564 12
138 1 -21.5626 0.325917 -9.67925 26
139 1 -25.0778 11.8118 -15.9203 13
140 1 -13.403 13.2358 -14.1844 11
141 1 -28.1698 -1.81639 -14.37 19
142 1 -9.70639 3.84138 -15.4403 11
143 1 -27.4816 -3.92408 -16.9837 14
144 1 -15.4033 6.28485 -9.92051 16
145 1 -9.48778 3.53762 -20.8802 9
146 1 -17.7655 14.6434 -18.0799 12
147 1 -28.2445 -0.152769 -21.5554 12
148 1 -16.3122 11.5615 -23.3409 14
149 1 -22.846 -1.12975 -23.9586 17
150 1 -15.8481 2.84554 -25.5311 15
151 1 -19.6158 -5.17192 -18.9974 20
152 1 -24.492 -4.48256 -12.2492 12
153 1 -12.0871 2.82643 -17.2723 17
154 1 -29.8509 5.28848 -18.5898 11
155 1 -23.229 9.212 -26.6561 11
156 1 -27.204 -2.85839 -20.2113 14
157 1 -10.1016 5.48404 -12.4336 10
158 1 -20.754 0.326797 -25.9244 14
159 1 -22.1257 11.9951 -10.1242 12
160 1 -25.3835 0.512164 -9.25819 15
161 1 -14.7879 13.3592 -18.9479 15
162 1 -11.8112 9.05489 -17.2471 15
163 1 -23.8501 -2.42 -9.85655 15
164 1 -15.0391 8.72168 -22.8532 20
165 1 -13.7586 12.4361 -21.283 12
166 1 -13.942 9.7675 -9.99534 10
167 1 -14.3724 10.1787 -25.5705 11
168 1 -10.7254 6.19885 -21.2919 14
169 1 -11.4852 3.53313 -23.3693 14
170 1 -18.3538 8.15329 -12.4098 21
171 1 -23.6996 11.2012 -18.7343 18
172 1 -21.4957 -3.0171 -11.8395 20
173 1 -14.9572 -3.5012 -12.4244 14
174 1 -26.5236 -0.962096 -17.6108 18
175 1 -25.3311 11.7358 -21.8683 12
176 2 -29.4505 1.06627 -12.5308 14
177 2 -11.856 5.99605 -11.9056 13
178 2 -28.9134 6.90023 -18.11 12
179 2 -24.2895 -5.07995 -14.1173 11
180 2 -20.761 6.42497 -7.97976 15
181 2 -22.2291 10.6466 -8.81891 10
182 2 -15.0101 -2.4624 -22.0341 14
183 2 -23.3528 4.82432 -25.7519 13
184 2 -19.2861 -4.03432 -25.8586 10
185 2 -21.9523 11.2773 -12.0649 18
186 2 -11.7405 0.934458 -11.7531 17
187 2 -17.768 14.0657 -20.0595 11
188 2 -19.2701 12.9366 -12.268 14
189 2 -16.0758 14.1017 -17.5689 13
190 2 -16.0536 11.2428 -25.4162 12
191 2 -12.7902 4.98899 -24.0182 16
192 2 -28.0719 4.9426 -23.0844 10
193 2 -21.8573 -3.19457 -10.0705 16
194 2 -27.5779 2.07247 -14.9061 20
195 2 -14.0509 -3.11629 -19.2929 14
196 2 -17.2623 -7.80316 -17.758 13
197 2 -17.1869 7.24029 -10.961 15
198 2 -15.5775 2.39391 -8.61611 16
199 2 -26.4294 -4.67816 -12.5138 9
200 2 -16.0497 -6.29008 -15.313 13
201 2 -27.7434 -3.71571 -15.0385 12
202 2 -23.9157 -5.82895 -18.2348 11
203 2 -23.1724 -4.70547 -21.6699 12
204 2 -26.1556 10.9302 -14.6442 13
205 2 -15.1431 6.74414 -23.9186 20
206 2 -13.0406 13.0957 -19.7075 10
207 2 -18.6673 9.79596 -26.7608 13
208 2 -9.84007 5.16354 -14.2342 12
209 2 -19.1302 14.0733 -17.1307 17
210 2 -29.4083 6.90165 -14.5925 10
211 2 -18.9012 11.2479 -18.5641 19
212 2 -16.4254 9.85826 -22.4054 20
213 2 -21.2798 7.76153 -10.8077 24
214 2 -19.1026 1.4301 -7.63447 16
215 2 -16.7366 -2.22512 -24.6419 14
216 2 -17.735 -3.52297 -20.5043 19
217 2 -19.5131 -0.854154 -25.1183 13
218 2 -27.5757 -2.48961 -18.3947 16
219 2 -9.72001 5.22778 -19.9896 11
220 2 -14.6471 12.6737 -15.3921 15
221 2 -20.8214 2.07316 -26.196 13
222 2 -17.2376 6.8743 -26.7534 13
223 2 -21.6435 -5.62953 -24.2035 13
224 2 -16.9659 -4.76162 -23.4378 13
225 2 -11.7882 7.76546 -21.8946 15
226 2 -27.4413 -2.08876 -12.6327 14
227 2 -17.7509 1.02958 -24.0164 19
228 2 -19.902 -7.5598 -25.3171 5
229 2 -20.4587 5.19987 -26.1682 14
230 2 -23.6155 11.0482 -14.9962 19
231 2 -25.8061 -4.61658 -17.0225 13
232 2 -25.3024 11.9201 -17.899 13
233 2 29.6588 -1.80795 -14.3466 11
234 2 -29.0907 0.847625 -17.9495 18
235 2 -16.5937 -2.34998 -13.0038 20
236 2 -10.3053 4.60083 -22.4489 11
237 2 -16.6047 9.45145 -13.2339 19
238 2 -24.665 0.508986 -7.57251 12
239 2 -27.4852 8.82584 -13.5252 12
240 2 -27.1172 1.45843 -20.6364 16
241 2 -13.075 8.6917 -18.6754 20
242 2 -28.6159 4.2655 -19.7789 13
243 2 -22.0192 11.9827 -23.1045 14
244 2 -15.1976 4.83985 -26.1373 15
245 2 -28.5936 6.02658 -12.0962 11
246 2 -14.6412 0.0816324 -23.8062 17
247 2 -18.2623 -4.9238 -17.6804 23
248 2 -23.781 8.83306 -13.1839 20
249 2 -15.5247 -5.42854 -20.3475 16
250 2 -15.6906 10.1957 -10.3746 14
251 2 -20.921 12.8258 -19.87 13
252 2 -26.8729 0.268757 -10.307 14
253 2 -22.4904 10.8425 -25.952 14
254 2 -11.438 2.70636 -20.538 16
255 2 -20.0202 4.81271 -11.1137 21
256 2 -11.5105 13.3638 -16.8754 9
257 2 -13.2299 11.0526 -11.4244 11
258 2 29.4617 -1.43048 -17.1598 12
259 2 -18.4429 9.84744 -10.9595 16
260 2 -12.6042 3.08059 -9.6059 14
261 2 -21.7152 8.05898 -26.3984 16
262 2 -19.8239 9.70674 -7.67765 12
263 2 -10.5452 3.59175 -12.1244 12
264 2 -25.9381 4.46701 -20.9479 21
265 2 -24.7623 7.4851 -21.3835 22
266 2 -26.592 8.0681 -23.3443 14
267 2 -19.9629 -0.611714 -10.2874 24
268 2 -18.3784 14.0541 -14.8412 13
269 2 -24.7517 -3.50945 -23.6972 12
270 2 -11.022 4.40442 -16.792 14
271 2 -26.6483 10.5979 -20.8848 14
272 2 -11.7177 0.902789 -16.8736 13
273 2 -22.9254 -2.50532 -12.8989 19
274 2 -25.7947 -4.05228 -20.4596 15
275 2 -19.7733 10.773 -21.6168 19
276 2 -25.3035 10.859 -11.5459 11
277 2 -20.3741 -2.08373 -7.54227 12
278 2 29.8885 3.71299 -13.8771 12
279 2 -20.0379 11.949 -9.45488 11
280 2 -26.9057 9.29421 -17.7841 15
281 2 -15.3814 12.6852 -21.9957 14
282 2 -23.28 7.43245 -8.3876 12
283 2 -21.7332 0.500319 -6.5521 13
284 2 -24.7812 -0.523984 -23.9147 13
285 2 -19.7505 9.15298 -24.1245 21
286 2 -20.3667 -4.32999 -21.4012 18
287 2 -13.631 3.96815 -12.7274 18
288 2 -12.5562 10.4174 -16.1343 17
289 2 -14.54 -5.14272 -13.62 13
290 2 -13.826 4.99998 -21.2166 22
291 2 -17.9421 6.81922 -7.02761 10
292 2 -23.0656 3.84765 -7.58434 16
293 2 -26.4866 -0.976201 -21.7903 16
294 2 -20.5896 10.6779 -16.1023 20
295 2 -25.9831 5.14454 -10.1997 13
296 2 29.5618 1.27376 -15.3516 13
297 2 -19.9005 -6.05147 -15.7564 15
298 2 -20.3703 3.59777 -7.93063 17
299 2 -23.1085 8.58351 -23.9794 20
300 2 -12.7693 10.8295 -21.3611 13
301 2 -18.4682 -6.33374 -20.1669 16
302 2 -13.5508 -0.358008 -9.36783 12
303 2 -13.908 7.93937 -10.4062 13
304 2 -19.9151 11.8635 -25.4298 12
305 2 -21.835 -2.52435 -24.9352 12
306 2 -21.2397 13.5715 -14.8411 13
307 2 -23.8149 10.7751 -20.5697 17
308 2 -27.4689 7.36434 -20.3673 18
309 2 -24.8797 8.08701 -10.5011 16
310 2 -15.1011 8.63234 -26.4673 11
311 2 -13.8222 2.40921 -25.9779 11
312 2 -24.9572 10.9771 -23.5361 12
313 2 -24.6377 8.04549 -26.364 12
314 2 -14.9832 -3.31276 -10.6256 12
315 2 -25.1993 2.66277 -8.94719 13
316 2 -27.3046 2.96714 -12.0645 16
317 2 -18.3839 -2.9851 -10.3044 15
318 2 -29.7578 4.4788 -16.9028 16
319 2 -23.4447 -2.0697 -7.91086 12
320 2 -17.7203 -5.12881 -12.8475 14
321 2 -17.287 4.16029 -6.94211 11
322 2 -14.4521 -5.79062 -17.4766 12
323 2 -22.1241 12.2314 -17.978 18
324 2 -26.1783 2.48543 -23.7203 13
325 2 -23.1167 -0.798018 -10.3747 21
326 2 -16.9807 -0.500784 -9.77173 19
327 2 -13.6976 9.85151 -23.7656 15
328 2 -12.1134 11.9841 -14.0377 10
329 2 -10.0612 1.91052 -14.6883 12
330 2 -12.098 1.69464 -23.2374 14
331 2 -13.1192 -1.5735 -12.0307 14
332 2 -15.105 11.3712 -18.5968 18
333 2 -29.6299 -1.18012 -20.6873 8
334 2 -26.7079 -0.794696 -15.6426 17
335 2 -14.827 -2.95477 -15.6036 17
336 2 -18.027 12.6081 -23.1324 12
337 2 -10.2681 7.72801 -16.9261 12
338 2 -14.8121 7.52687 -21.2606 22
339 2 -13.345 -0.222648 -20.25 16
340 2 -13.6914 0.942556 -14.1336 19
341 2 -20.4877 -7.78491 -22.4131 10
342 2 -17.362 11.0717 -15.8723 20
343 2 -16.0822 12.4298 -12.9789 13
344 2 -22.5219 -6.95028 -16.1882 10
345 2 -25.3159 -2.42805 -10.9203 15
346 2 -14.754 5.67276 -8.25003 10
347 2 -12.0509 6.26898 -18.8973 21
348 2 -26.4267 5.60127 -25.2616 11
349 2 -20.438 -7.27406 -18.7955 15
350 2 -13.7981 -1.05757 -16.819 17
351 1 -22.8191 -3.09899 -20.804 20
352 1 -24.9595 -0.280086 -20.6888 22
353 1 -21.6461 1.84391 -23.1882 22
354 1 -19.7444 -0.573073 -23.0805 19
355 1 -19.5937 -2.78211 -20.472 18
356 1 -21.697 -0.0670134 -20.573 24
357 2 -22.9578 -3.00381 -18.7995 21
358 2 -24.8335 -0.498991 -18.5333 21
359 2 -24.5641 1.70203 -21.0158 19
360 2 -23.2884 -1.35509 -21.2516 20
361 2 -21.3736 0.0659298 -23.7877 18
362 2 -19.9671 -2.79322 -18.5023 20
363 2 -21.4745 0.137892 -18.4726 19
364 2 -21.7133 1.84952 -21.0469 21
365 2 -19.7637 -0.982667 -21.0084 17
366 1 -25.2056 1.70529 -18.7126 19
367 1 -23.0092 -1.01821 -17.9336 21
368 1 -23.2125 -2.78945 -14.9275 19
369 1 -25.0547 0.163144 -15.2337 20
370 1 -25.3696 2.10434 -13.1055 18
371 1 -23.0872 -0.570404 -12.4659 21
372 1 -21.4969 -3.90987 -17.6522 23
373 1 -21.8822 1.98556 -17.9344 23
374 1 -19.8734 -0.707616 -18.3028 21
375 1 -20.035 -2.76958 -14.8642 23
376 1 -21.6944 0.438245 -15.0311 24
377 1 -22.0883 2.52933 -12.036 23
378 1 -20.1159 -0.464522 -12.3166 24
379 2 -24.9883 0.204021 -13.0909 23
380 2 -24.9614 2.02248 -15.3531 18
381 2 -23.1877 -0.797211 -15.8647 20
382 2 -21.5043 -3.80041 -15.6607 20
383 2 -19.9839 -2.34948 -12.6899 21
384 2 -21.5746 0.721106 -12.8999 22
385 2 -22.0166 2.24129 -15.924 21
386 2 -19.9596 -0.629656 -15.1974 21
387 2 -21.8336 2.14972 -10.1553 22
388 1 -23.268 4.67581 -23.6958 21
389 1 -23.315 3.03148 -20.7237 20
390 1 -24.6083 5.7433 -20.4258 19
391 1 -23.6945 8.74152 -20.324 21
392 1 -20.1714 5.11933 -23.3276 21
393 1 -20.0878 3.21893 -20.7845 21
394 1 -21.871 6.20961 -20.5825 24
395 1 -20.0913 8.95098 -20.8897 21
396 2 -26.5822 2.84983 -17.8518 22
397 2 -23.2706 2.57802 -24.0167 18
398 2 -23.6111 2.6933 -18.5281 24
399 2 -24.5811 6.21332 -18.4289 21
400 2 -23.1536 4.68236 -21.6439 21
401 2 -23.3348 9.16755 -18.4659 21
402 2 -19.9879 3.09427 -23.7142 20
403 2 -21.7473 6.0934 -23.5639 21
404 2 -20.2683 3.15677 -18.807 23
405 2 -21.8652 6.06435 -18.7733 24
406 2 -21.9323 7.88968 -21.3938 21
407 2 -19.8222 5.26771 -21.2282 22
408 2 -20.2749 8.81115 -18.5972 23
409 1 -26.6491 4.76415 -18.3349 20
410 1 -26.5229 3.09409 -16.1282 21
411 1 -24.9623 7.87828 -17.7412 21
412 1 -23.6871 4.56547 -18.2548 23
413 1 -23.3794 3.20542 -15.0083 22
414 1 -25.2324 5.82573 -15.0928 21
415 1 -23.478 4.9068 -12.351 22
416 1 -23.4166 8.87755 -15.1251 21
417 1 -21.9669 7.78227 -17.8469 23
418 1 -20.2853 5.13203 -18.1346 22
419 1 -20.3307 3.24298 -15.4689 22
420 1 -22.0311 5.85741 -15.5207 21
421 1 -21.9533 7.88949 -12.7623 22
422 1 -19.9816 5.15315 -13.1704 22
423 1 -19.8965 3.22204 -9.79359 23
424 1 -19.8968 9.07034 -15.3384 21
425 2 -26.9122 5.17886 -16.2306 18
426 2 -23.7629 3.03957 -12.8191 21
427 2 -25.39 6.04713 -13.202 22
428 2 -25.1596 7.99779 -15.7131 19
429 2 -23.812 4.76386 -16.1567 24
430 2 -19.9766 3.19029 -13.579 24
431 2 -21.998 5.89672 -13.6008 23
432 2 -21.851 7.84686 -15.7888 21
433 2 -20.2985 5.15101 -16.0957 24
434 2 -23.0837 5.14528 -10.4586 20
435 2 -20.2717 8.8263 -13.2949 18
436 1 -18.1489 2.74282 -23.444 21
437 1 -16.6907 -1.98992 -20.7722 22
438 1 -18.1956 0.662006 -20.5107 24
439 1 -14.9394 0.72568 -20.0451 19
440 2 -17.5909 3.94477 -26.331 15
441 2 -16.6807 -1.92294 -18.389 21
442 2 -18.6928 0.729657 -18.7813 24
443 2 -18.3348 2.4677 -21.4622 22
444 2 -16.4801 -0.276164 -20.8979 20
445 2 -15.6505 1.43689 -18.2664 20
446 2 -14.8089 2.07447 -21.3804 20
447 1 -18.0745 -3.0788 -17.7794 18
448 1 -18.4629 2.65726 -17.8741 22
449 1 -17.0914 0.0660456 -17.8113 19
450 1 -16.7579 -2.35928 -15.0123 24
451 1 -18.2476 0.373244 -14.9936 24
452 1 -18.747 2.07138 -12.5837 24
453 1 -16.7414 -0.404041 -12.3394 25
454 1 -15.3076 3.11941 -17.5151 18
455 1 -12.7087 -0.0711702 -18.2459 14
456 1 -14.8489 0.676954 -15.6407 19
457 1 -14.6645 2.76251 -13.6481 18
458 2 -18.475 -3.26355 -15.6924 23
459 2 -18.4702 0.360403 -13.0623 23
460 2 -18.6984 2.18006 -16.0401 24
461 2 -16.6575 -0.408502 -15.5878 21
462 2 -18.6964 2.24449 -10.4953 23
463 2 -15.3079 0.883115 -11.4688 23
464 2 -15.1532 2.78987 -15.468 17
465 2 -11.3702 -1.18697 -14.5108 11
466 1 -16.7331 5.5124 -23.6489 25
467 1 -16.5999 3.33124 -20.7013 22
468 1 -18.2425 6.1503 -20.8351 21
469 1 -16.9736 9.41308 -20.6906 20
470 1 -12.5438 4.2742 -19.9843 21
471 1 -15.4715 6.10593 -20.3182 24
472 2 -15.7446 3.27169 -23.7484 20
473 2 -18.6627 6.27481 -23.9231 18
474 2 -16.571 3.9215 -18.8713 23
475 2 -18.5781 6.09816 -18.4703 22
476 2 -18.2275 8.05672 -21.4317 20
477 2 -16.567 5.08532 -21.5352 19
478 2 -16.6608 8.96227 -18.8825 22
479 2 -13.6476 4.01068 -17.7435 17
480 2 -15.1773 6.4353 -18.2667 20
481 1 -18.5497 7.95829 -18.2694 21
482 1 -16.6652 5.44036 -17.542 20
483 1 -17.2029 3.25758 -14.9968 21
484 1 -18.6287 6.26332 -15.4678 20
485 1 -15.3262 8.13546 -12.3215 21
486 1 -16.6373 5.38407 -13.1334 21
487 1 -18.8603 12.288 -16.041 20
488 1 -14.9976 8.3612 -17.9352 22
489 1 -13.3221 5.90241 -17.3145 20
490 1 -13.1146 5.79427 -13.5253 17
491 1 -16.6909 8.76793 -15.2044 19
492 2 -16.7894 3.22535 -12.9286 20
493 2 -18.3228 6.35312 -13.3211 22
494 2 -18.1656 8.01093 -16.0971 21
495 2 -17.1203 4.86712 -15.8544 21
496 2 -16.3836 4.68681 -11.0666 18
497 2 -14.8867 6.51493 -13.2487 21
498 2 -12.6744 8.80657 -13.1682 16
499 2 -15.0302 9.21485 -16.1667 21
500 2 -12.7235 6.91166 -15.3593 20
