ITEM: TIMESTEP
88000
ITEM: NUMBER OF ATOMS
500
ITEM: BOX BOUNDS pp pp pp
-30.0 30.0
-30.0 30.0
-30.0 30.0
ITEM: ATOMS id type x y z Coordination
1 1 -25.6381 0.398813 -21.3496 11
2 1 27.9356 8.66117 -18.599 16
3 1 22.545 10.1101 -23.7603 20
4 1 24.3035 5.51552 23.4568 15
5 1 19.2448 3.92572 -28.6428 18
6 1 29.1055 8.73536 23.1801 14
7 1 -28.8564 -4.30193 26.4611 11
8 1 29.7622 7.71667 -21.1528 21
9 1 29.5418 10.146 26.1154 21
10 1 -29.1227 10.1859 -19.4637 10
11 1 19.0514 1.95838 -26.4385 17
12 1 -24.4544 3.46627 27.4409 17
13 1 -29.5421 4.36328 -17.6037 14
14 1 17.5033 6.97264 -29.2201 11
15 1 25.7669 -0.758843 25.6811 15
16 1 -23.9538 6.56632 24.3229 10
17 1 -23.3318 -0.57503 -24.4889 6
18 1 29.1215 12.6603 -23.6882 22
19 1 25.3939 14.1945 -26.6541 17
20 1 -28.6334 1.57825 26.0117 16
21 1 26.2114 8.62299 -20.9427 21
22 1 -23.6251 5.16342 -23.898 13
23 1 23.5594 13.5127 -23.6654 15
24 1 -29.5739 13.9186 24.5816 11
25 1 -29.1485 16.6029 27.251 10
26 1 28.1695 13.4944 26.7434 19
27 1 22.5842 10.1173 25.8523 21
28 1 25.5225 14.8802 27.8211 13
29 1 27.2121 13.2827 -29.3769 20
30 1 19.2529 7.89352 -26.9972 19
31 1 27.9301 11.1589 -20.5048 18
32 1 23.0665 8.51285 22.8149 12
33 1 22.0002 0.603755 -19.5945 9
34 1 -27.0011 -1.08582 -28.4918 17
35 1 21.8122 1.31285 -22.5492 18
36 1 20.9331 4.98155 28.6803 20
37 1 21.0692 -0.259719 -25.2848 19
38 1 -26.1021 8.36712 24.7695 18
39 1 25.771 -5.0269 26.039 11
40 1 25.7189 10.7994 22.5774 12
41 1 26.1401 16.1365 -28.7942 15
42 1 16.9223 5.48722 -25.8592 9
43 1 -28.1873 14.9857 -21.9286 10
44 1 -28.8704 5.16212 -20.65 21
45 1 29.19 -6.60593 -28.9481 9
46 1 -23.7815 12.9489 27.8368 12
47 1 22.6302 -3.3983 -26.479 14
48 1 -24.958 3.35513 -21.4351 14
49 1 -28.8085 -0.387243 -20.4164 12
50 1 -28.9179 17.236 -26.7705 13
51 1 17.9969 -0.762112 -26.2262 11
52 1 29.2547 -3.5472 -25.3055 15
53 1 24.1769 5.72518 -20.4163 21
54 1 20.9769 7.4006 -24.0315 23
55 1 -28.9636 -3.86132 -27.8152 13
56 1 18.3575 1.024 -23.3636 9
57 1 28.3737 14.5692 -21.1141 12
58 1 18.5119 9.35701 -24.1628 12
59 1 25.0279 10.9853 -18.9855 13
60 1 22.7806 0.743212 26.2189 14
61 1 20.23 9.88943 24.3918 12
62 1 23.6558 -2.73918 25.803 10
63 1 -25.881 11.1689 -25.7077 20
64 1 27.6644 2.54817 -17.756 13
65 1 22.7943 4.03048 25.4486 16
66 1 18.0932 0.503471 -29.4836 12
67 1 25.9231 -2.92895 -25.6967 16
68 1 20.5843 12.5529 -23.5116 12
69 1 28.0157 -3.19975 26.609 17
70 1 26.3945 15.0305 -23.8264 13
71 1 19.6862 9.95084 -29.6167 18
72 1 21.4319 12.9474 24.5962 10
73 1 28.6391 -6.03597 27.8065 13
74 1 -25.0139 1.74761 -23.9453 16
75 1 20.6437 10.9781 27.5926 17
76 1 20.1235 7.93044 -18.612 8
77 1 22.6165 11.8338 -21.2053 14
78 1 29.8039 -1.31605 25.6454 13
79 1 25.3332 0.694055 -19.0236 11
80 1 -27.0435 -1.20406 26.099 13
81 1 -23.6217 9.67497 -26.0602 14
82 1 -27.3431 6.75217 22.58 12
83 1 -28.3308 -4.00485 -23.8088 8
84 1 23.0334 -1.97814 -29.1146 19
85 1 22.7742 3.43807 -20.1991 17
86 1 -29.0715 7.4788 -17.487 13
87 1 -24.1556 14.4995 -29.5712 12
88 1 28.2229 11.5412 23.8614 15
89 1 26.6633 14.0651 24.0756 10
90 1 27.8668 16.7952 -26.2808 14
91 1 -25.6947 4.80018 23.4177 13
92 1 -26.4802 -1.97075 -25.6348 13
93 1 -25.1327 0.182186 -26.9266 13
94 1 29.276 -1.30843 -22.9901 20
95 1 21.3531 7.05615 24.5974 14
96 1 -22.7909 8.39195 30.1374 12
97 1 24.4657 12.9363 25.8686 15
98 1 26.126 -5.91826 29.5035 14
99 1 17.946 6.53721 -22.4396 10
100 1 27.6634 -3.87493 -27.8179 18
101 1 -26.1698 2.04891 24.2355 15
102 1 -27.3422 -3.18879 28.9742 14
103 1 29.3032 -3.3907 29.3727 20
104 1 24.9507 5.26322 -17.5959 13
105 1 24.7697 8.33746 -17.2309 12
106 1 -27.3306 5.22 26.0876 25
107 1 20.7147 13.0927 -29.3042 10
108 1 -29.2928 13.6847 30.0965 19
109 1 -25.1005 10.0197 28.6666 17
110 1 26.4659 7.90285 23.0666 15
111 1 18.8691 4.24221 -23.9361 16
112 1 29.6315 2.70207 -20.2573 19
113 1 19.2981 8.43189 27.4483 12
114 1 -24.1445 3.40778 -26.5936 15
115 1 -26.4569 5.48934 -19.0407 12
116 1 27.9336 -0.0350775 -20.2656 16
117 1 -23.9055 13.6239 -25.893 11
118 1 -25.657 13.021 -23.2077 13
119 1 22.8763 -4.52653 28.3305 11
120 1 -24.6917 9.75251 -22.934 15
121 1 26.0847 9.83596 26.0604 22
122 1 24.3802 -4.46437 -28.4915 13
123 1 -29.3748 11.6906 -25.9046 16
124 1 20.4303 11.1182 -26.5223 17
125 1 -26.5297 12.629 28.9694 21
126 1 27.7535 5.81748 -16.9502 11
127 1 29.7802 5.82086 22.0746 10
128 1 -25.5522 0.0958457 28.3802 17
129 1 29.7034 15.7438 -24.0869 15
130 1 20.6594 9.50886 -21.8358 14
131 1 -23.5779 0.532773 25.5797 9
132 1 -27.4353 2.32634 -19.3137 13
133 1 22.9985 8.77349 -20.3011 18
134 1 -25.3395 6.49455 -22.1368 14
135 1 28.3784 15.1053 29.1743 18
136 1 -26.512 14.7564 -27.8491 16
137 1 22.4064 5.77805 -17.7681 12
138 1 26.2299 3.00212 -20.5858 20
139 1 22.0829 13.8855 -26.3704 14
140 1 -26.8355 15.3776 -24.7842 12
141 1 19.6375 3.42932 -21.0163 15
142 1 -22.485 6.56646 -27.0176 13
143 1 20.0632 -1.77765 -28.207 15
144 1 -27.2566 8.10261 -20.9309 16
145 1 -24.6406 6.82978 27.911 19
146 1 29.1482 17.6446 -29.3746 12
147 1 19.8607 1.93511 27.423 10
148 1 -28.1097 13.7803 26.7324 18
149 1 24.8962 1.86642 23.9499 12
150 1 -28.9825 3.39931 23.0209 15
151 1 25.657 -3.15077 28.62 22
152 1 23.6326 -1.72505 -23.693 14
153 1 -23.8868 5.12752 -29.8214 17
154 1 17.96 4.47319 28.7658 8
155 1 22.2567 10.957 22.135 10
156 1 20.8707 -0.398811 28.9127 14
157 1 -22.0582 8.29616 -24.1314 8
158 1 27.3473 4.197 23.7629 16
159 1 25.5998 13.4991 -20.9605 12
160 1 20.9556 6.03644 -20.9206 19
161 1 -28.2814 16.1475 -30.0413 14
162 1 -24.3971 11.517 -28.77 16
163 1 24.2742 -0.864132 -21.1176 12
164 1 -26.0649 11.6644 25.9883 16
165 1 -25.6717 15.6298 27.5308 11
166 1 -28.7456 12.3363 -21.2856 14
167 1 -28.083 11.0348 24.0583 13
168 1 -22.9695 9.36114 26.6559 11
169 1 -22.8096 3.21198 24.543 9
170 1 28.7699 10.0632 -22.9421 21
171 1 23.4649 14.4793 -29.388 13
172 1 26.7038 -1.63518 -22.7684 15
173 1 -27.4463 -0.611376 -23.1257 17
174 1 21.0988 1.24624 -28.59 22
175 1 22.0388 13.9875 27.722 13
176 2 18.9622 2.64205 -22.511 11
177 2 -23.2419 9.82529 -23.9977 11
178 2 18.8669 8.21187 -28.9699 14
179 2 22.9452 -1.65776 -25.5701 17
180 2 26.7317 7.46074 -17.6399 14
181 2 24.3112 12.2165 -20.407 14
182 2 -27.0796 -1.17445 28.6883 14
183 2 24.4409 7.15344 22.8094 15
184 2 29.9934 -3.06457 26.025 15
185 2 25.3451 13.9436 -22.8419 14
186 2 -23.8995 3.24507 -23.2096 15
187 2 29.7694 16.3128 28.8291 16
188 2 28.1796 14.7026 -23.1495 14
189 2 29.6038 16.9367 -25.5868 13
190 2 -27.9829 12.7173 25.1179 13
191 2 -23.489 4.84958 23.703 9
192 2 20.2671 8.42837 25.7915 13
193 2 26.2187 -0.846843 -21.1754 17
194 2 19.3975 3.93577 -26.5682 19
195 2 -25.163 -0.31353 26.3462 12
196 2 29.2047 -4.51866 -28.6782 16
197 2 29.7438 11.1532 -20.675 17
198 2 -27.9352 4.06432 -18.9195 15
199 2 20.2451 0.841084 -23.6046 15
200 2 -28.7463 -3.98285 -25.9195 10
201 2 19.8125 -1.28607 -26.3566 14
202 2 23.8007 -3.61456 29.9031 17
203 2 27.5015 -5.38675 26.3187 12
204 2 20.7553 12.5622 -25.331 14
205 2 -26.4834 10.3992 24.6372 11
206 2 -24.3397 14.9577 28.5982 8
207 2 27.2618 9.71423 23.2001 15
208 2 -22.2406 8.13821 -26.186 11
209 2 27.6853 17.0555 -28.2616 15
210 2 19.241 9.69404 -26.1454 14
211 2 29.028 14.148 -29.1512 19
212 2 -28.5764 13.0779 28.3419 24
213 2 26.8667 10.1396 -21.9255 21
214 2 29.3163 3.13558 -18.3515 15
215 2 -28.2199 2.1666 24.2891 12
216 2 29.5085 -1.37183 29.2731 20
217 2 27.9129 -0.980067 26.3103 17
218 2 21.4086 -0.668793 -29.2565 18
219 2 -23.3478 8.34479 28.3863 13
220 2 -29.3889 17.1724 -28.5559 15
221 2 29.3361 4.24785 23.0548 13
222 2 -25.732 6.59675 23.8421 13
223 2 25.5912 -3.05245 25.9394 13
224 2 -28.6129 -0.353378 26.415 16
225 2 -24.3108 10.9897 27.1588 14
226 2 21.3303 2.17632 -20.62 14
227 2 29.485 2.38281 25.9335 18
228 2 -29.8255 -4.96343 28.0729 13
229 2 28.2163 6.80888 22.6091 13
230 2 23.8147 13.5228 -25.676 16
231 2 21.741 -3.10777 -28.1947 11
232 2 22.0252 14.08 -28.3137 13
233 2 17.7181 0.889899 -25.1085 12
234 2 18.9415 2.01806 -28.6653 18
235 2 -29.2486 -0.224402 -23.8078 21
236 2 -23.9004 8.32665 25.2164 10
237 2 -29.3045 11.5461 -23.8044 19
238 2 21.0001 6.20248 -18.9561 12
239 2 19.6543 10.7545 -23.2898 12
240 2 19.5286 3.61215 28.1351 11
241 2 -26.1746 11.7771 -29.2689 20
242 2 20.6771 7.54568 28.4662 18
243 2 26.1939 13.9393 26.1567 15
244 2 -27.609 4.8903 22.5551 12
245 2 19.4319 7.96956 -23.0453 17
246 2 -24.2072 1.92181 24.1953 9
247 2 27.4617 -3.81684 28.6394 20
248 2 23.8861 11.4231 -24.1083 19
249 2 -27.5226 -2.96881 26.8422 11
250 2 -28.1671 10.0305 -21.0672 16
251 2 26.3415 15.7255 29.3034 14
252 2 19.1002 5.55342 -21.2878 13
253 2 26.3636 12.4641 23.162 11
254 2 -24.4171 5.06519 28.3907 15
255 2 27.8716 7.71305 -20.6094 18
256 2 -24.5394 14.1241 -27.6121 13
257 2 -27.3116 13.3442 -22.3048 12
258 2 17.9846 -0.54403 -28.0156 11
259 2 -29.6129 14.4035 -21.0044 10
260 2 -25.563 5.01071 -20.6969 14
261 2 24.1415 10.2557 22.3126 12
262 2 26.8515 10.2526 -18.9542 13
263 2 -22.6947 6.72844 -23.4407 12
264 2 22.935 8.36467 25.0416 20
265 2 22.337 10.2207 28.2335 20
266 2 20.7783 11.401 25.4785 16
267 2 27.6519 1.92052 -21.1979 19
268 2 -27.2331 16.031 -26.5439 11
269 2 24.0116 -0.670606 26.4883 15
270 2 -23.0113 6.87338 -28.9804 12
271 2 20.6005 12.9554 28.7397 12
272 2 -24.2718 3.29768 -28.5697 15
273 2 25.2389 -2.60084 -23.7059 13
274 2 22.6262 -3.94944 26.6133 8
275 2 27.8112 13.2221 28.5756 18
276 2 22.1899 13.0754 -22.4147 13
277 2 27.1072 1.10854 -18.7982 12
278 2 17.6634 5.68227 -24.1103 13
279 2 27.3328 12.9444 -20.6071 14
280 2 20.8231 11.3142 -28.4836 17
281 2 -27.3499 16.1104 28.3427 13
282 2 23.7295 9.55831 -18.2567 13
283 2 23.5166 4.65446 -18.7726 14
284 2 23.3074 2.17999 25.0899 15
285 2 27.6834 10.9928 25.7309 21
286 2 25.9684 -1.21545 28.7409 20
287 2 -25.817 5.73051 -23.8986 17
288 2 -24.1955 11.6957 -26.6686 15
289 2 -27.2536 -2.40208 -24.0908 12
290 2 -27.9211 8.56081 25.4343 19
291 2 -29.9946 8.5071 -18.8792 16
292 2 23.8437 6.76044 -16.9278 9
293 2 21.4521 1.21505 27.7572 16
294 2 26.9655 13.259 -27.5032 18
295 2 21.0573 8.16812 -20.5256 15
296 2 17.1663 6.93628 -26.9957 11
297 2 27.6707 -3.51161 -25.9056 16
298 2 26.5131 4.34749 -17.6375 15
299 2 24.3852 11.082 26.1313 18
300 2 -24.2522 12.7826 29.7173 14
301 2 27.8657 -6.6995 29.4809 11
302 2 -25.843 2.12234 -20.2922 13
303 2 -25.3894 8.30888 -21.8078 13
304 2 28.4751 13.5188 24.7567 13
305 2 26.1032 1.2424 25.1237 15
306 2 26.5033 15.8181 -25.5665 14
307 2 23.8871 14.3791 28.5656 12
308 2 19.1052 10.0661 28.5387 11
309 2 22.4802 9.99105 -21.6295 18
310 2 -29.8777 11.094 24.4819 16
311 2 -26.514 4.06515 24.904 16
312 2 22.5237 13.5072 25.9374 12
313 2 21.9152 12.5416 22.8375 9
314 2 -27.1892 -0.463588 -21.3213 13
315 2 22.5465 4.94043 -21.5269 21
316 2 20.7895 4.83154 -24.2064 20
317 2 29.4669 -0.534999 -21.1959 17
318 2 18.2116 5.4793 -29.6824 13
319 2 23.6864 -0.397717 -19.2826 8
320 2 29.8949 -2.91006 -23.6087 13
321 2 29.5363 5.93166 -17.1324 12
322 2 -27.6789 -2.98872 -29.0767 14
323 2 24.6152 15.2547 -28.0935 12
324 2 21.5604 5.28446 24.8378 11
325 2 24.4994 2.24638 -19.8745 19
326 2 -29.042 1.42864 -20.0476 15
327 2 -25.8458 13.7233 27.0591 14
328 2 -25.4387 14.0674 -24.7249 11
329 2 -23.6158 5.12958 -26.2826 16
330 2 -23.1458 2.27385 26.3217 10
331 2 -24.2865 0.213433 -22.8248 11
332 2 -27.8465 14.6137 -28.9858 17
333 2 19.2198 0.605451 28.9707 11
334 2 21.0744 1.40517 -26.4555 23
335 2 -27.2457 -0.353427 -26.7598 17
336 2 -29.3673 15.1273 26.0482 11
337 2 -24.1876 9.70186 -29.3925 17
338 2 -27.0492 10.5159 27.6621 20
339 2 -25.4533 2.23297 28.5385 15
340 2 -25.2692 2.07305 -26.041 19
341 2 24.9513 -5.32793 27.7545 15
342 2 29.4093 13.3946 -25.4858 16
343 2 -28.4753 15.3284 -23.7648 15
344 2 24.4423 -3.87973 -26.6004 15
345 2 23.584 0.0486855 -22.6465 18
346 2 -27.7201 6.61021 -18.1612 10
347 2 -26.2834 7.80129 27.932 20
348 2 21.2205 9.29831 22.9378 11
349 2 26.177 -4.40183 -29.0568 18
350 2 -25.0732 -0.0899924 -28.8779 13
351 1 24.4886 -0.111868 28.4733 21
352 1 22.7032 2.47354 28.9222 22
353 1 25.7679 4.45666 26.2456 22
354 1 27.9466 1.1414 25.9954 17
355 1 27.7412 -0.466175 28.6288 19
356 1 26.1733 2.4157 28.9097 20
357 2 24.1433 -0.324485 -28.3932 20
358 2 22.7138 2.31045 -28.9378 22
359 2 22.6155 4.15365 27.8886 21
360 2 24.3575 1.68504 28.7912 17
361 2 25.5646 4.16011 23.527 13
362 2 27.7566 -0.134724 -29.0543 19
363 2 26.1618 2.50811 -28.8825 21
364 2 25.6919 4.05858 28.1141 20
365 2 27.7321 1.33893 28.0572 21
366 1 22.5101 4.25032 -28.4546 22
367 1 24.5236 1.53297 -28.9726 22
368 1 24.3733 -0.63817 -26.4395 20
369 1 22.7049 2.34405 -25.9128 23
370 1 22.5862 4.36168 -23.4832 20
371 1 24.3988 1.36304 -23.8343 18
372 1 26.0696 -0.956204 -28.7938 23
373 1 25.6937 4.50051 -28.519 22
374 1 28.0199 1.89298 -28.7724 21
375 1 27.6537 -0.231893 -26.0578 22
376 1 26.1887 2.59244 -25.9787 20
377 1 25.7118 4.54319 -23.0235 21
378 1 28.0154 1.28053 -23.0171 19
379 2 22.7113 2.44344 -23.9472 18
380 2 22.5246 4.66052 -26.5461 21
381 2 24.5019 1.32583 -26.0477 21
382 2 26.4858 -1.46221 -26.872 18
383 2 27.6455 -0.513656 -24.0922 22
384 2 26.0756 2.3772 -23.871 20
385 2 25.8397 4.41739 -26.5105 22
386 2 27.6877 1.58809 -26.5607 23
387 2 25.8356 4.71688 -21.0625 19
388 1 24.1076 7.30813 25.9553 21
389 1 23.9609 5.65258 28.6914 22
390 1 22.4128 8.4053 28.3636 21
391 1 24.1511 10.7887 28.4108 17
392 1 27.7037 7.07522 26.079 24
393 1 27.518 5.27186 28.9065 21
394 1 25.7873 7.91839 28.6635 21
395 1 27.6176 11.2409 28.3056 18
396 2 20.8653 4.92106 -29.4191 21
397 2 24.1868 5.36387 25.5968 19
398 2 24.201 5.27596 -29.3157 24
399 2 22.3965 7.92711 -29.1189 22
400 2 24.0024 7.4729 28.1053 23
401 2 24.1779 10.4497 -29.5728 17
402 2 27.531 4.6007 25.7225 19
403 2 26.0235 7.83832 25.8185 18
404 2 27.8005 5.70023 -29.3211 23
405 2 25.9906 8.0014 -29.1939 22
406 2 26.0175 9.84812 28.0911 20
407 2 27.6425 7.22989 28.1731 21
408 2 27.2947 11.1165 -29.3618 18
409 1 20.6603 6.95252 -29.3774 19
410 1 20.7046 5.28234 -26.2788 21
411 1 22.4918 10.1501 -28.8925 18
412 1 24.3472 7.3437 -28.6315 23
413 1 24.1923 5.38411 -25.9137 24
414 1 22.4095 8.09442 -27.0965 20
415 1 24.3597 7.5783 -23.1984 22
416 1 24.328 11.2084 -26.4 20
417 1 26.0265 9.95954 -28.9705 20
418 1 27.7988 7.19686 -28.2365 24
419 1 27.3985 5.43529 -25.7648 23
420 1 25.673 8.46132 -26.3128 20
421 1 25.9595 10.3317 -23.5487 19
422 1 27.6909 7.55155 -23.9915 21
423 1 27.538 5.92989 -20.678 20
424 1 27.4597 11.3408 -26.1466 21
425 2 20.9879 7.2879 -26.1374 19
426 2 24.299 5.41157 -23.8919 20
427 2 22.7373 8.22957 -23.8776 21
428 2 22.4243 10.2358 -26.8651 21
429 2 24.0401 7.28338 -26.6704 23
430 2 27.1716 5.81613 -23.6627 19
431 2 25.556 8.55289 -24.4228 22
432 2 25.946 10.4744 -26.9408 24
433 2 27.5867 7.4595 -26.1666 21
434 2 24.6286 7.49303 -21.0101 20
435 2 27.8532 10.6565 -24.4926 16
436 1 29.3012 4.16259 25.8339 20
437 1 -28.8857 -0.545668 28.6611 21
438 1 29.213 2.61046 28.0941 19
439 1 -27.242 3.1326 28.7853 17
440 2 -29.118 7.38659 22.7521 13
441 2 -28.6286 0.0943534 -29.1732 21
442 2 29.6003 2.61579 -28.7839 18
443 2 28.9164 4.51675 27.9702 19
444 2 -28.8305 2.11284 28.0811 21
445 2 -26.9937 3.14908 -29.1732 20
446 2 -27.5106 4.9338 27.993 20
447 1 29.5736 -0.827964 -28.7796 21
448 1 29.492 4.6908 -28.8519 22
449 1 -28.6286 2.04704 -28.9228 20
450 1 -28.8611 0.0170776 -25.7633 22
451 1 29.337 2.64755 -26.5553 21
452 1 29.3789 4.425 -23.1273 23
453 1 -28.8345 1.78421 -23.5768 20
454 1 -26.7637 4.89854 -28.3029 20
455 1 -25.1886 1.96775 -29.5611 16
456 1 -27.2116 2.33327 -25.9806 17
457 1 -27.3508 4.43142 -24.2414 19
458 2 29.6196 -0.876585 -26.577 21
459 2 29.4232 2.63979 -23.3905 20
460 2 28.8036 4.7325 -26.8061 21
461 2 -29.0497 1.93401 -25.809 20
462 2 29.2384 5.07895 -21.1513 17
463 2 -26.9328 2.28976 -23.6884 19
464 2 -27.537 4.20474 -26.2846 18
465 2 -24.7787 -1.28174 -25.5921 11
466 1 -29.2939 7.44187 24.8432 21
467 1 -29.4084 5.75181 27.7436 24
468 1 29.0756 8.38013 29.015 22
469 1 -28.8146 11.0264 28.5789 19
470 1 -27.1931 6.48288 29.1406 17
471 1 -27.8988 8.73674 27.3735 20
472 2 -29.586 5.93907 25.9453 19
473 2 29.0795 8.40247 25.2155 20
474 2 -28.787 5.58421 -28.365 21
475 2 29.211 8.61266 -28.9965 20
476 2 29.4045 10.2103 28.109 20
477 2 -29.2234 7.48664 28.7588 23
478 2 -29.3788 11.6885 -29.4936 21
479 2 -25.6107 6.35311 -29.4073 20
480 2 -27.1658 8.10088 -28.4482 17
481 1 29.038 10.4486 -29.0436 22
482 1 -28.941 7.70549 -28.8379 20
483 1 -29.2026 5.62324 -26.3235 20
484 1 29.1726 8.6054 -26.3278 21
485 1 -27.5903 10.2359 -23.1687 19
486 1 -28.9341 7.20143 -24.0258 18
487 1 28.7156 14.1919 -27.1085 21
488 1 -27.6762 11.1535 -28.3587 19
489 1 -25.1028 7.92628 -28.2743 21
490 1 -25.8606 7.47666 -24.6583 22
491 1 -27.6554 8.57603 -26.2545 17
492 2 -29.0846 5.43089 -23.6959 20
493 2 29.3401 8.01918 -23.3374 22
494 2 29.2874 10.5895 -26.9187 22
495 2 -29.3363 7.64221 -26.2043 21
496 2 -28.4861 6.86115 -20.8635 20
497 2 -27.3665 8.62483 -24.1608 19
498 2 -25.7097 11.0589 -23.7103 17
499 2 -27.6456 10.8111 -26.4882 16
500 2 -25.498 8.47389 -26.1817 19
