ITEM: TIMESTEP
6000
ITEM: NUMBER OF ATOMS
1500
ITEM: BOX BOUNDS pp pp pp
-30.0 30.0
-30.0 30.0
-30.0 30.0
ITEM: ATOMS id type x y z Coordination
1 1 -2.57114 -16.4295 -3.49466 15
2 1 9.38612 -14.9476 4.03817 12
3 1 -10.8057 5.43674 -6.45331 15
4 1 -12.7593 2.67098 -5.45366 19
5 1 2.01889 -10.0798 12.715 11
6 1 -9.09365 -1.77938 -10.5597 14
7 1 -4.30443 1.74668 -3.21828 18
8 1 -3.69805 -14.4263 2.32805 22
9 1 -12.7969 -5.27733 6.81565 15
10 1 1.71368 3.39682 13.7788 14
11 1 5.91081 -3.81019 7.87987 21
12 1 -1.11722 3.46168 12.1726 20
13 1 3.87947 -7.23425 2.38597 18
14 1 -3.85466 4.84506 -6.56492 20
15 1 2.64812 0.35318 12.9601 19
16 1 12.6949 3.24699 8.39221 11
17 1 -0.335936 9.53664 -10.1155 13
18 1 5.35486 3.76935 -11.9191 17
19 1 -9.41272 -2.2743 -0.0447653 19
20 1 -1.67003 -1.54927 -11.5823 22
21 1 7.38474 -16.8174 1.89627 9
22 1 2.84634 -4.51033 8.616 18
23 1 7.90195 -10.4093 2.43385 20
24 1 -2.59314 -13.6448 -8.00116 18
25 1 3.71266 -4.9584 -5.92129 19
26 1 1.97647 -4.34664 -15.3321 13
27 1 -2.1244 2.12475 14.8912 10
28 1 -0.899204 -11.5385 8.18628 18
29 1 10.646 -7.65102 13.7284 8
30 1 -6.8978 -5.21668 5.26391 20
31 1 -13.3147 -1.36062 -2.11083 17
32 1 -0.498026 8.98575 -0.473575 18
33 1 1.66774 2.1864 -8.53231 19
34 1 6.14359 -1.5192 -16.6002 14
35 1 -0.209148 -2.45596 13.867 14
36 1 -12.917 5.17003 -3.8029 10
37 1 -0.875947 12.0822 6.55007 17
38 1 -7.06051 3.55411 -5.81158 17
39 1 1.48404 11.7172 -0.485587 17
40 1 1.4382 -12.9058 4.00136 22
41 1 2.57534 -10.4103 -8.19482 19
42 1 -6.25066 9.96637 11.2469 9
43 1 -7.63603 -6.67914 -13.6189 11
44 1 8.87552 -3.52318 7.33303 19
45 1 -9.80913 3.95652 -3.42688 20
46 1 -5.67041 -12.993 7.19197 12
47 1 -11.6861 3.49735 -8.94315 12
48 1 4.90436 3.09081 -5.22644 22
49 1 4.35199 3.964 6.76424 20
50 1 2.30902 1.04034 7.43622 19
51 1 5.08152 -15.4635 -2.75523 15
52 1 6.55993 2.61217 13.521 17
53 1 5.25276 -4.78323 -9.69578 20
54 1 9.7223 -12.7224 0.753739 15
55 1 -7.54836 -6.99993 1.85534 16
56 1 6.01877 -4.2519 13.4755 18
57 1 -7.67152 -10.668 6.12156 16
58 1 -5.90251 -5.52766 -0.397719 19
59 1 15.9981 -1.85633 8.67961 6
60 1 8.22265 -4.03639 -3.91853 23
61 1 -2.12843 7.15358 8.82041 15
62 1 6.47117 0.679607 7.07476 21
63 1 -9.08766 -2.82832 8.10566 18
64 1 -4.34894 -8.38487 -7.09815 21
65 1 -5.99179 4.88643 -3.38584 20
66 1 -1.46654 0.8188 -8.76688 20
67 1 6.83868 -1.66564 -2.96799 20
68 1 5.69999 -2.37395 -5.63463 20
69 1 9.80595 -10.3224 5.88796 16
70 1 10.2826 -12.2063 3.5121 16
71 1 -5.70604 9.87914 -6.85847 15
72 1 -11.1358 8.99328 5.06056 10
73 1 -5.035 8.50126 8.42469 17
74 1 -8.04519 -8.32101 9.96015 15
75 1 12.3585 -5.74898 -7.81028 9
76 1 -9.7648 6.35851 7.10235 17
77 1 4.34279 -9.20628 -5.00778 19
78 1 0.221361 6.83711 -15.4602 10
79 1 -0.476182 -3.12601 -16.9704 9
80 1 3.54351 8.60092 -1.44962 16
81 1 -4.33047 0.18226 -10.2212 17
82 1 -1.35889 13.3122 -5.13254 11
83 1 -0.862071 7.59338 2.13714 20
84 1 -2.41735 -5.41319 13.7767 16
85 1 -0.997612 -8.3316 -7.68945 21
86 1 5.04585 -7.46788 -7.91568 19
87 1 -0.872851 2.6318 5.44591 21
88 1 -8.02138 -10.4188 -2.98328 19
89 1 12.2861 -6.5309 -0.16514 18
90 1 -6.98396 -8.93937 -6.61912 19
91 1 7.07348 -12.609 5.08187 20
92 1 -5.69005 5.29403 2.05039 17
93 1 6.23754 0.995575 -12.7896 15
94 1 7.30529 5.73343 -10.2691 20
95 1 9.25898 -11.4313 -2.1956 18
96 1 1.06746 -18.2548 1.15302 10
97 1 -7.83734 -13.1648 -2.809 15
98 1 -11.9715 -2.53512 5.82361 20
99 1 10.2528 9.23911 8.44963 10
100 1 5.41015 3.262 0.130476 24
101 1 -6.59841 11.6007 8.30794 14
102 1 -5.22621 7.37223 -5.37584 18
103 1 -0.139559 -5.91838 -10.0731 18
104 1 8.96624 -4.95079 13.9852 16
105 1 -0.04667 5.21666 -5.51824 20
106 1 10.2546 -4.29417 -6.57953 20
107 1 -7.96016 7.78316 -6.10515 15
108 1 -7.43831 12.8896 2.95639 10
109 1 11.8546 1.18315 -11.2923 12
110 1 5.74822 -8.05827 4.56392 19
111 1 -10.1978 1.91073 -13.6818 9
112 1 6.21321 8.15437 0.486025 17
113 1 9.36877 8.38396 -0.782915 19
114 1 -3.63992 8.76989 0.576619 22
115 1 -2.69917 -4.35877 -10.5337 23
116 1 3.32252 10.5847 3.56004 18
117 1 -16.4628 -3.67122 -5.45871 9
118 1 14.3975 -4.42095 -2.36085 15
119 1 1.68434 7.16833 6.92474 15
120 1 -3.02464 8.26966 -6.38216 19
121 1 6.19261 -6.20684 10.689 19
122 1 -12.6283 -7.44879 5.08566 10
123 1 -5.65112 -9.29413 4.2961 19
124 1 1.52288 -15.7582 -2.88573 17
125 1 -6.79133 5.67571 -11.4691 11
126 1 -0.896754 7.04039 -3.74739 21
127 1 12.7977 8.95455 -4.08843 10
128 1 1.72584 -12.9505 12.277 12
129 1 -6.24035 0.960085 -0.269152 18
130 1 3.05169 15.8202 1.69987 10
131 1 4.17162 5.54794 9.93908 18
132 1 0.211086 11.2817 2.7876 18
133 1 -3.11879 -2.06665 -8.52989 22
134 1 11.0828 -9.74744 -0.116491 13
135 1 -4.26058 -6.11142 7.7892 18
136 1 -12.2653 3.08438 3.83437 18
137 1 -9.94551 -10.0835 7.36591 14
138 1 -15.1519 1.06663 -2.46766 12
139 1 -0.359115 -16.1046 3.08425 18
140 1 -3.40288 -7.19192 -2.33704 21
141 1 6.48033 -12.2059 -0.800569 23
142 1 -4.3714 12.8358 6.03947 10
143 1 -6.08326 -2.74404 7.29897 20
144 1 -8.03429 -2.15995 -5.52156 22
145 1 -6.35488 3.86173 -8.66213 19
146 1 -13.5211 -3.63439 -5.0892 18
147 1 -11.7879 -1.21634 11.7572 11
148 1 -2.27934 -9.02659 8.36736 17
149 1 4.34349 -14.6279 10.4529 12
150 1 11.6952 -0.359707 0.0276885 20
151 1 6.92113 0.795101 -5.4062 20
152 1 9.6898 0.644717 13.132 20
153 1 -2.50107 6.69483 -14.629 12
154 1 7.61103 -3.27268 -9.35685 16
155 1 -7.61492 -7.71609 -10.3105 14
156 1 -3.75961 9.56844 -9.68308 14
157 1 -7.02506 10.1789 -0.162696 16
158 1 8.33614 -1.36309 13.0307 22
159 1 0.624141 -9.17225 -10.2435 20
160 1 -2.39932 6.43569 -9.26166 19
161 1 5.40841 6.81205 -8.78204 21
162 1 -6.66891 -1.09985 1.28997 17
163 1 -2.78113 9.70669 12.6236 9
164 1 3.01375 -14.267 -10.7482 6
165 1 -5.7081 -16.0558 4.39224 10
166 1 7.74523 -13.3083 -3.87148 14
167 1 5.4767 -8.06098 -0.755125 19
168 1 6.67473 9.29721 -5.77017 19
169 1 0.938456 6.0623 -0.939508 21
170 1 -12.8604 0.11356 5.86723 18
171 1 4.20218 3.11115 11.5564 20
172 1 14.5424 -0.17613 2.30529 12
173 1 6.86356 5.70521 8.03942 16
174 1 -9.5759 1.89209 5.59682 21
175 1 -14.9595 -5.48345 -3.0857 12
176 1 9.24754 3.67122 -11.8675 17
177 1 4.93859 -2.72574 10.8499 22
178 1 10.5983 8.34544 -9.37331 11
179 1 3.56357 -10.1717 -1.8738 20
180 1 -3.05832 -3.45828 -14.6753 17
181 1 11.5588 -1.26613 -7.61647 17
182 1 -8.32019 -1.037 5.76965 20
183 1 0.70066 -14.0322 0.395695 18
184 1 -12.0539 -5.5131 -7.79243 14
185 1 0.724136 13.2704 -3.35214 12
186 1 4.23077 0.39888 -18.556 10
187 1 7.69541 4.33633 15.9311 7
188 1 14.3037 0.732439 -1.03953 17
189 1 -3.35365 -7.01396 2.67325 17
190 1 9.66967 -2.87803 -13.0251 13
191 1 -3.63465 -12.2429 4.10088 18
192 1 -6.32051 -1.82162 -10.7375 18
193 1 -10.5715 -7.00095 -11.9252 7
194 1 11.5045 -2.54196 13.4684 13
195 1 4.67698 -6.81968 7.66002 22
196 1 -3.40136 -7.368 -10.3217 20
197 1 4.05118 -5.35614 4.77163 18
198 1 2.37143 7.333 -8.84761 18
199 1 6.53656 5.53835 2.14151 20
200 1 -9.66513 -7.85379 4.91898 17
201 1 2.11909 9.68711 0.930491 14
202 1 -8.06572 -1.3657 12.8409 11
203 1 -11.8337 -9.0438 -6.90228 11
204 1 -4.46086 -4.72781 -8.22327 21
205 1 -4.85536 -9.86913 -4.40427 20
206 1 -3.93795 -14.0838 -0.988353 18
207 1 10.9559 2.32242 5.97572 19
208 1 -3.54156 -5.98973 -5.37407 20
209 1 -9.86447 -3.41209 12.6734 9
210 1 3.11031 -17.5879 -0.983463 13
211 1 -1.15213 -13.1528 3.31956 21
212 1 -2.3989 13.365 -1.84827 13
213 1 1.27217 0.611389 -12.9237 17
214 1 -5.93462 -4.05312 -14.1723 13
215 1 0.708674 -11.159 -0.693742 22
216 1 -3.19985 -9.84867 -11.9428 12
217 1 -10.6242 1.31016 -10.4338 18
218 1 9.44763 3.98998 3.06643 20
219 1 -2.93497 0.975288 -12.7001 19
220 1 -3.51478 2.81486 -9.45238 15
221 1 -3.17181 -3.65049 9.74531 21
222 1 -6.63044 9.97837 -3.51339 14
223 1 3.94274 8.49555 6.49269 22
224 1 9.78141 -3.5214 4.01554 17
225 1 -3.35691 2.03979 7.13683 21
226 1 -1.8142 -7.30872 11.0078 17
227 1 -8.10685 9.11924 7.25534 18
228 1 5.18032 -4.00951 -15.0436 17
229 1 6.84709 -13.2546 2.13533 24
230 1 -0.649253 0.855322 12.7767 21
231 1 -10.568 -10.1828 10.4377 8
232 1 13.0508 -9.56168 -5.55853 9
233 1 7.00569 -5.23855 -6.46525 23
234 1 9.24602 -10.55 -5.45815 17
235 1 -1.68514 -7.37219 5.74861 17
236 1 -7.76285 7.24557 -2.94097 16
237 1 3.60307 -1.47102 8.03641 21
238 1 9.86895 6.87801 10.8265 9
239 1 -10.1873 -5.48667 -0.0611352 16
240 1 6.37362 -11.5927 -6.36062 19
241 1 -5.23912 11.5435 2.03567 20
242 1 -9.36339 4.69724 2.47113 17
243 1 7.33529 -12.3213 9.98158 12
244 1 11.3542 -6.57286 5.18724 12
245 1 -0.611577 5.98116 4.76889 19
246 1 -5.45008 -3.94863 -2.91123 20
247 1 -2.44197 -1.32107 14.775 13
248 1 -0.290344 14.1722 1.50225 15
249 1 -9.15751 2.51852 -7.6668 21
250 1 -9.19471 6.50173 10.0431 10
251 1 -12.9213 5.84613 6.19062 12
252 1 -1.24216 -5.26585 -7.6391 20
253 1 -6.06787 8.69174 2.41282 23
254 1 7.90242 -3.59178 10.6847 21
255 1 -6.72358 -12.5879 3.39146 15
256 1 6.8721 -9.72382 7.05362 23
257 1 -9.50459 6.1884 -1.21656 11
258 1 3.17379 -5.86962 11.4922 20
259 1 6.14616 -12.7707 -9.98301 7
260 1 -1.07863 -1.04716 -14.4091 17
261 1 7.31292 -1.52862 -14.2135 14
262 1 3.71051 16.0361 5.1105 7
263 1 -8.24224 -3.76916 2.5626 19
264 1 5.50684 -6.99582 -13.0432 10
265 1 -5.99645 -15.5351 -2.73097 16
266 1 -14.2855 -8.8658 -2.02177 7
267 1 -1.20629 -8.98589 0.0541385 21
268 1 11.7613 1.84729 -2.71398 24
269 1 -8.38864 -0.477331 -13.3032 17
270 1 -14.4126 -2.63614 -7.84472 13
271 1 -8.57937 7.25977 4.42286 21
272 1 -9.44646 9.93235 2.28867 15
273 1 -3.47696 6.97949 3.70878 18
274 1 11.7339 -4.16842 -4.12225 20
275 1 14.0624 -0.597489 -9.37004 10
276 1 -4.47688 3.66912 -0.731029 20
277 1 1.32707 -12.6161 -3.40536 21
278 1 4.57834 5.8897 4.87436 19
279 1 -9.77956 -1.5545 -3.02811 19
280 1 2.9356 -13.5705 -1.40393 17
281 1 13.4038 -2.24751 10.9218 11
282 1 -9.46773 -5.05155 -5.01226 20
283 1 -8.67348 -10.8366 2.60514 15
284 1 -2.99337 9.76067 3.61761 18
285 1 -11.2499 -9.48407 -3.31004 15
286 1 -14.0222 5.39319 2.43393 11
287 1 2.1388 12.537 -5.9346 13
288 1 9.33577 12.7115 4.36954 13
289 1 -12.0302 -6.81566 -1.78325 17
290 1 -0.342975 -14.5439 -5.30347 23
291 1 -12.4991 -1.75508 8.66099 17
292 1 -15.9229 3.48446 -4.417 6
293 1 -0.432626 -10.7448 5.41607 18
294 1 -5.52845 -16.6592 0.751936 12
295 1 3.38859 5.60991 -11.8539 15
296 1 -10.3967 0.219161 -5.5911 18
297 1 1.93411 -16.2055 4.63946 12
298 1 13.0767 5.16979 2.23249 19
299 1 -1.87469 -0.130541 9.42651 20
300 1 -10.245 -1.83039 3.54642 18
301 1 -5.9265 0.702286 5.71587 23
302 1 -2.48986 -15.851 5.18779 15
303 1 2.4992 -7.055 -7.01254 20
304 1 6.67425 -8.38983 -10.5999 16
305 1 1.15679 -6.95325 9.31147 18
306 1 -12.339 1.18171 9.21857 18
307 1 -1.15367 -5.12451 7.68382 17
308 1 8.61224 -10.331 -8.9065 13
309 1 -0.15322 -12.4953 -10.3878 14
310 1 -0.13194 -4.78613 10.8525 21
311 1 2.10954 -6.72585 -3.42626 22
312 1 -6.50962 1.87095 -13.9956 14
313 1 5.91289 -15.7821 3.57282 13
314 1 -4.23731 12.0774 -4.70439 15
315 1 -7.14051 -4.34042 14.2947 9
316 1 -6.42402 -8.03241 7.22059 18
317 1 13.1785 -9.88223 11.2695 5
318 1 8.63039 1.15854 1.13179 21
319 1 -7.5417 1.6577 3.42436 17
320 1 3.46113 -0.025111 -5.4574 23
321 1 9.12402 -12.8992 7.22325 13
322 1 12.079 6.98556 -1.21466 16
323 1 -3.80312 4.46237 10.4052 18
324 1 3.51586 5.67461 0.0639017 21
325 1 7.90662 -6.90419 8.21334 16
326 1 -3.72295 -14.4244 -5.09393 22
327 1 -4.62274 13.5819 0.557713 11
328 1 -5.09424 -15.5065 -7.88118 10
329 1 1.50602 2.64499 10.7113 22
330 1 -3.38227 -1.28269 7.12087 20
331 1 -5.54029 -9.27018 -1.7317 19
332 1 -11.7112 4.32973 9.75928 11
333 1 -9.26197 -8.03611 -4.49041 17
334 1 -6.88052 6.28083 7.45287 19
335 1 -2.78654 -10.4489 -9.20582 23
336 1 -0.125257 -9.60191 -14.0725 12
337 1 -3.53919 -17.881 3.11701 12
338 1 -3.33341 -4.38379 5.451 22
339 1 11.8371 -2.8826 6.55478 14
340 1 -7.76476 -7.13744 12.2268 11
341 1 -9.39148 4.03591 -11.2067 16
342 1 10.31 4.62602 -2.5887 19
343 1 -7.261 -14.534 -0.077729 13
344 1 1.88853 2.93192 -5.46587 22
345 1 2.18784 14.98 -1.03714 10
346 1 0.574857 4.80702 -8.66989 21
347 1 3.05811 8.60277 9.85779 13
348 1 -16.35 0.157683 -5.6128 9
349 1 5.41151 6.49298 -4.97091 21
350 1 -5.79474 -9.7355 -9.63934 15
351 1 -1.91386 -16.5791 -7.61654 9
352 1 -0.496534 2.07274 -14.4366 17
353 1 -8.34609 7.27342 1.24919 19
354 1 5.06669 5.52602 13.5658 14
355 1 7.91245 7.75169 -3.57906 19
356 1 6.42227 6.18243 -1.3751 20
357 1 -8.58623 5.58286 -8.57198 15
358 1 4.00165 4.24167 -9.40687 24
359 1 1.97089 -9.32696 3.97087 19
360 1 -12.7353 -3.73109 0.379738 15
361 1 -7.36766 1.06446 -10.5231 19
362 1 13.8829 4.37874 -0.760483 17
363 1 7.04454 -7.58436 1.95408 18
364 1 11.5934 2.79771 0.81464 21
365 1 4.70378 1.22899 -7.77046 19
366 1 1.39883 -10.8477 1.86688 23
367 1 -0.530424 -16.7604 7.89424 11
368 1 4.94819 -11.6369 11.5043 13
369 1 -9.06819 -0.760985 -8.09276 20
370 1 1.05097 -14.0669 -8.01154 16
371 1 -0.493438 2.27142 -11.253 18
372 1 2.90619 -4.92067 14.7308 11
373 1 -9.33051 -4.2091 5.74362 19
374 1 13.181 -3.6227 -10.0999 10
375 1 15.1631 -2.42866 -0.151023 12
376 1 -2.43706 6.10597 -0.48599 19
377 1 2.08091 -11.0674 -12.972 8
378 1 1.81499 3.44541 -11.5951 19
379 1 8.82648 -1.73779 -6.4302 17
380 1 -6.098 1.33431 12.4647 13
381 1 5.04461 15.5253 -1.44584 7
382 1 -4.04334 -6.56349 -13.3124 17
383 1 -5.22534 -5.7675 10.8755 14
384 1 -4.51383 11.0817 -1.20365 19
385 1 -6.03893 -1.2274 -15.5495 13
386 1 -12.9636 -1.2301 2.47255 16
387 1 -3.31442 -11.9132 9.83398 14
388 1 -0.150582 8.23414 -7.36507 19
389 1 14.9236 2.82364 1.38867 14
390 1 -8.70205 -11.5378 0.213933 14
391 1 -1.55564 -10.0398 2.69238 17
392 1 -9.00382 12.3306 10.817 4
393 1 1.80911 -4.10947 -9.34432 18
394 1 3.54147 4.33369 2.64155 21
395 1 12.9872 -1.98311 3.90585 19
396 1 5.32541 12.6146 -7.0419 12
397 1 4.72337 -11.4006 3.99579 21
398 1 -6.18242 3.45023 8.04371 16
399 1 7.24519 4.63548 11.1122 19
400 1 -1.32363 4.19119 -16.6184 11
401 1 -6.5627 -5.26963 -6.14563 19
402 1 0.518915 -7.13695 13.2672 14
403 1 8.01514 11.7896 6.90537 11
404 1 6.90866 5.94506 -13.4099 14
405 1 -5.19802 7.2562 -8.72374 19
406 1 -1.79131 10.0699 -2.48408 18
407 1 12.1191 1.44395 11.6925 12
408 1 12.9015 1.68048 -7.96933 14
409 1 -8.30683 -8.18977 -0.814726 20
410 1 -1.46933 -1.94939 11.1107 20
411 1 0.17149 11.0493 -6.26141 15
412 1 -1.37426 -13.923 -2.29794 21
413 1 6.93573 2.48201 -9.91536 21
414 1 -2.53584 11.1606 -7.30362 16
415 1 -8.85696 -3.07849 -15.4466 9
416 1 2.91306 -14.9816 7.65247 14
417 1 -16.1831 -2.30571 -3.07177 10
418 1 -6.25495 -1.17411 -2.56705 22
419 1 -2.7154 -8.9582 13.2678 10
420 1 4.09148 4.17791 -2.79768 21
421 1 1.46922 -7.24673 -13.0039 17
422 1 6.56298 -8.94727 9.87135 16
423 1 10.2237 -0.991034 -3.24828 20
424 1 -9.43924 0.943957 -1.10519 17
425 1 11.3167 -9.12061 -2.9993 16
426 1 5.34834 8.39405 11.6613 8
427 1 2.26629 -0.278784 -8.21357 17
428 1 1.34649 14.1247 4.32098 16
429 1 9.3937 6.75788 -12.0894 12
430 1 3.8961 -0.946689 -13.7223 17
431 1 -5.10278 -11.6089 -6.97375 21
432 1 -10.1134 -4.74735 -13.3763 10
433 1 15.6535 2.3259 -2.42859 10
434 1 13.3218 4.7791 -3.83436 16
435 1 7.96173 -5.23844 -12.133 16
436 1 4.70498 -12.9647 -3.71399 22
437 1 7.83779 9.20393 3.50931 18
438 1 -11.9959 2.96403 6.58679 21
439 1 10.1717 5.82833 0.905096 20
440 1 13.8805 -4.70871 5.38652 16
441 1 10.2339 2.42029 -8.91179 15
442 1 7.6909 0.746753 15.8602 13
443 1 3.84252 -8.9568 9.54675 21
444 1 9.21044 -0.746593 5.43671 16
445 1 2.978 -2.40236 14.2456 15
446 1 13.6148 -2.20131 -6.25559 13
447 1 11.4703 0.274285 8.93167 14
448 1 -7.8164 -4.31881 -8.41761 18
449 1 13.8671 7.60119 0.9241 12
450 1 13.755 -7.48753 2.89213 10
451 1 2.21231 -7.76319 -0.0627943 20
452 1 9.7222 4.20956 8.28839 18
453 1 4.58989 10.7175 8.56641 14
454 1 7.12265 0.715853 3.62104 21
455 1 -4.14434 7.86451 -3.00109 23
456 1 11.1741 6.24565 -5.06028 20
457 1 12.216 -1.74671 -12.1723 11
458 1 4.96668 13.6315 -3.52439 11
459 1 -2.18041 -11.6272 -5.17968 19
460 1 -14.7981 0.997879 7.53968 12
461 1 -6.91389 4.64613 -14.1616 9
462 1 -2.02513 -19.5716 0.877621 7
463 1 -5.80806 -1.78741 -7.92051 20
464 1 -13.7721 0.798214 -8.38917 13
465 1 12.4218 -11.635 6.04348 7
466 1 10.5845 5.72692 4.52586 20
467 1 2.36289 -11.6223 9.83754 19
468 1 -11.6014 -3.72555 -10.906 12
469 1 0.532689 -8.8384 7.56202 18
470 1 -4.40444 4.1379 13.1423 13
471 1 7.45655 8.42045 -10.3466 14
472 1 6.92627 4.32025 -7.36761 19
473 1 2.6168 -14.8608 -5.42823 15
474 1 11.7835 -7.0952 10.3601 10
475 1 11.1556 10.8088 3.21361 11
476 1 13.735 -7.66781 -2.12711 15
477 1 -6.10102 7.15265 5.1251 20
478 1 -10.9635 -5.57293 3.40162 19
479 1 -13.1251 -0.498138 -5.21571 19
480 1 9.63701 -2.02355 15.6914 10
481 1 -0.873038 -10.8888 11.2119 17
482 1 9.91787 4.17995 11.6337 12
483 1 -2.00801 11.73 0.995379 21
484 1 8.3297 3.62979 -0.336495 19
485 1 8.0844 3.53841 5.65544 21
486 1 5.24188 2.97738 -16.6583 10
487 1 -10.0419 0.179032 7.96161 19
488 1 9.71267 0.743927 -13.0312 13
489 1 0.136087 -6.07155 -5.10332 21
490 1 7.4583 -8.38272 -6.66229 20
491 1 8.64351 1.12897 8.06776 18
492 1 5.64859 3.49363 3.86225 21
493 1 13.2055 5.26759 6.19333 12
494 1 1.75659 -3.37477 12.3176 19
495 1 -0.669382 2.34352 8.83878 21
496 1 1.82114 -2.08835 -11.4611 18
497 1 -2.44847 4.7879 7.28788 17
498 1 3.85251 0.859265 15.4921 12
499 1 12.3872 9.94218 -0.996772 12
500 1 5.18326 -14.1143 -6.87935 10
501 1 -2.96664 -0.259255 -5.75538 19
502 1 5.82308 11.6012 0.988519 13
503 1 7.95881 13.5724 -1.67755 13
504 1 0.0424687 -2.23551 7.7765 22
505 1 4.62838 9.84862 -3.53644 19
506 1 11.1717 8.18127 2.02632 22
507 1 -4.87606 -12.2319 -3.40208 21
508 1 3.16365 -2.1223 -17.2012 13
509 1 -10.6421 7.32644 -4.49506 10
510 1 9.86518 -7.74968 -10.7598 12
511 1 10.9706 0.749924 2.85373 18
512 1 9.94197 5.52467 -8.66536 17
513 1 10.0098 10.8729 -2.78601 15
514 1 2.06058 3.1454 4.96035 20
515 1 -7.77967 3.70388 -0.0459545 21
516 1 7.14691 4.11607 -3.15436 20
517 1 -1.08789 -14.1253 10.4244 14
518 1 -4.01742 6.88458 -12.2783 14
519 1 2.7621 12.1799 6.38954 15
520 1 7.96218 -1.02784 9.72091 21
521 1 6.93325 9.98335 -1.63532 18
522 1 9.35737 14.1592 1.85189 7
523 1 13.4077 -6.59474 -5.30087 10
524 1 -13.1582 -4.12891 3.75893 14
525 1 3.88156 -17.8558 2.41041 11
526 1 -0.204369 -3.95091 -12.3699 24
527 1 1.53647 4.0812 8.01256 17
528 1 6.5599 -6.84177 -3.55654 20
529 1 5.17466 13.4066 3.92442 14
530 1 -15.6825 0.454029 3.8085 11
531 1 5.21523 -15.5012 0.254521 16
532 1 8.03693 6.54163 -6.50747 18
533 1 5.09089 -10.1834 1.47389 22
534 1 0.611394 9.11091 4.95602 21
535 1 7.6449 -4.77209 -15.173 9
536 1 1.35019 -15.6427 10.5757 11
537 1 4.83166 8.04519 3.18379 20
538 1 -3.51769 0.499866 12.6934 19
539 1 -9.33084 -8.67517 -8.33754 11
540 1 4.00621 -2.57559 -8.32075 17
541 1 -3.31676 10.7382 8.55662 16
542 1 2.41947 -12.0851 -6.22408 20
543 1 3.62114 -8.90616 6.58036 19
544 1 -0.349067 -17.8763 -4.90871 10
545 1 -11.397 -4.35222 9.41523 15
546 1 -0.0995313 -2.41643 -8.72488 22
547 1 -6.59264 -13.2031 -5.63164 19
548 1 -9.74964 0.550966 11.255 11
549 1 12.3448 5.55795 -7.59661 12
550 1 -4.89763 3.81411 4.62805 20
551 1 -11.7257 8.03985 1.75112 7
552 1 9.048 -4.96979 1.06126 21
553 1 1.21805 9.5376 -3.79174 19
554 1 9.10944 -0.112546 -9.32229 13
555 1 10.6509 0.677322 -5.46954 19
556 1 -11.9939 -1.37181 -9.96962 14
557 1 -11.8769 -6.34671 -5.02002 17
558 1 3.12893 8.87529 -6.24491 24
559 1 -4.35598 1.64867 9.7865 19
560 1 -5.10188 -6.60227 13.5147 14
561 1 2.82142 -7.57035 -10.6111 18
562 1 -4.85302 1.45116 -7.40003 17
563 1 7.0309 14.8559 4.74265 10
564 1 -9.24171 -6.25145 7.52851 20
565 1 8.07112 2.99889 -14.9275 11
566 1 0.0202928 -18.4545 -1.99824 11
567 1 3.63249 1.2999 -11.0481 19
568 1 -1.0151 -6.05079 -15.016 14
569 1 1.62566 -0.400131 10.0779 21
570 1 0.899759 4.6629 -14.0196 20
571 1 -6.64474 -6.90879 -3.57129 21
572 1 7.08851 -5.7409 -1.10682 22
573 1 -1.99784 -10.8894 -2.46074 19
574 1 9.15732 3.56172 -5.17235 18
575 1 8.4967 -8.34319 -1.20908 18
576 1 -4.2762 7.49751 13.1533 8
577 1 12.3498 -10.7456 2.60414 9
578 1 15.3261 -5.9447 0.480999 10
579 1 10.8017 -11.6111 9.03217 8
580 1 7.28903 9.33872 7.42883 16
581 1 -6.93672 4.61585 11.9508 9
582 1 -2.77317 -13.7843 7.45498 17
583 1 10.6756 -2.01252 1.80583 18
584 1 7.90573 6.62503 13.4669 11
585 1 -14.7302 2.23451 1.35247 10
586 1 6.8106 -10.286 -3.37698 20
587 1 5.79669 10.9694 5.19047 15
588 1 5.675 -1.57323 15.3918 11
589 1 1.10941 10.0001 8.09857 16
590 1 1.80424 -11.6289 6.72831 21
591 1 -8.52977 -4.077 -2.30815 17
592 1 5.21227 0.369197 9.89998 20
593 1 1.82568 7.08298 2.55017 18
594 1 -7.25343 -11.3966 9.26525 12
595 1 10.4785 -4.1468 10.5878 17
596 1 8.54932 -7.35985 4.96421 14
597 1 6.22444 3.01367 8.61953 20
598 1 -2.64803 4.26611 -3.08048 22
599 1 -0.707667 -11.5083 -7.33128 22
600 1 -3.58229 1.43222 -15.7432 12
601 1 -3.97593 -3.28809 12.9959 17
602 1 -2.25688 13.2699 3.54752 15
603 1 15.9283 -2.55744 5.24814 9
604 1 5.26296 10.3178 -8.44402 13
605 1 -0.595067 5.47133 9.5836 20
606 1 10.343 8.41143 5.26175 19
607 1 5.43415 -2.96589 -11.9726 16
608 1 -5.13384 -11.6531 1.13789 19
609 1 -4.55698 -2.98947 -5.53782 22
610 1 14.0382 -1.04332 6.45586 12
611 1 2.8907 -4.93867 -12.5292 19
612 1 1.19905 -9.42242 -5.25794 22
613 1 16.1993 -3.33193 2.63525 10
614 1 3.48012 -7.95209 13.7159 10
615 1 -6.00742 -4.9617 -11.4071 16
616 1 7.30792 11.7467 -4.02572 13
617 1 -0.128521 -5.37494 4.68981 17
618 1 -10.4618 1.28942 2.24394 18
619 1 12.0703 3.23403 -5.76561 18
620 1 7.09992 1.17948 -17.8255 8
621 1 -7.87666 10.565 4.77984 18
622 1 2.39726 3.03612 -17.1602 11
623 1 10.2255 -5.77343 -2.23521 21
624 1 -11.7665 -0.522283 0.0807524 19
625 1 12.2874 10.6283 5.7531 10
626 1 -10.8355 -9.62849 -0.44069 14
627 1 8.2668 1.69877 11.1093 24
628 1 -11.2039 -2.99979 -6.9864 20
629 1 -7.70086 4.19919 5.42061 21
630 1 -1.08593 2.63718 -5.84844 20
631 1 8.05658 -6.07619 -9.1571 20
632 1 -9.41474 -10.9141 -6.01745 13
633 1 10.2198 -7.80624 -7.59616 19
634 1 -11.523 3.26335 0.948719 12
635 1 -11.8435 -4.05391 -2.75638 21
636 1 -10.4666 -8.62412 1.95891 15
637 1 10.9534 -5.62125 7.6348 14
638 1 6.9304 -4.83175 4.39227 20
639 1 -14.4125 3.93349 8.51946 9
640 1 -0.902994 11.4983 10.1828 8
641 1 3.692 5.90484 -15.4933 9
642 1 -5.35411 10.1374 5.57261 20
643 1 10.5227 9.24356 -5.8694 14
644 1 2.04133 5.95316 12.0285 15
645 1 7.10874 -7.33906 14.2179 10
646 1 2.12467 10.5711 -8.76829 12
647 1 -4.83407 -1.35628 10.2654 18
648 1 -1.11879 -7.4201 -12.3358 19
649 1 -15.3674 -0.725949 0.0167637 12
650 1 0.0878455 -14.4391 6.29773 19
651 1 5.88316 -0.257331 12.5506 22
652 1 -2.46336 -16.3566 0.369905 17
653 1 -15.0537 3.06909 5.00854 16
654 1 14.1377 0.578174 -4.78644 13
655 1 -5.86267 6.9227 -0.646475 20
656 1 -7.35647 0.0269149 8.30172 20
657 1 -4.52886 -12.737 -10.3764 12
658 1 -0.167607 -8.60062 -2.50769 21
659 1 8.27321 -14.7094 -0.958432 14
660 1 -1.45265 9.02305 -12.8371 11
661 1 11.9171 -3.37436 -1.37391 21
662 1 14.2637 2.64019 4.59382 10
663 1 13.3912 -1.23877 -2.88318 19
664 1 -3.92611 3.71657 -14.5407 17
665 1 -4.83549 -10.4674 7.81139 16
666 1 8.01487 11.0771 -7.98938 9
667 1 8.71635 1.50358 -2.45476 23
668 1 -7.42062 0.489866 -5.72923 18
669 1 3.54772 5.348 -6.423 22
670 1 -10.8325 -6.43987 11.7434 9
671 1 7.30528 6.86009 5.53118 19
672 1 3.96988 -14.1563 5.17317 15
673 1 2.46447 6.99183 -3.8915 20
674 1 0.174152 8.54324 11.4185 14
675 1 -9.10699 3.58176 8.45551 20
676 1 9.10234 -2.83109 -0.865106 22
677 1 -4.99141 -8.45711 10.4537 20
678 1 5.11882 -12.2921 8.04441 19
679 1 -5.1041 -2.28331 4.47182 22
680 1 11.7932 6.84617 7.90617 14
681 1 9.16411 -7.14397 -4.62929 20
682 1 -11.5775 -1.68371 -13.7456 10
683 1 -2.36233 4.54872 -11.9241 21
684 1 -11.6078 1.45068 -2.99856 18
685 1 9.04895 11.2367 0.758323 17
686 1 -2.1699 8.30613 6.36467 17
687 1 -6.96852 -12.9931 -8.34825 11
688 1 -2.37489 4.05701 2.6131 21
689 1 10.6126 -1.21853 11.0935 19
690 1 -2.05591 -12.033 0.672113 22
691 1 10.9334 -4.97232 -10.9752 12
692 1 3.43328 -12.8594 1.56921 19
693 1 1.67384 -0.0571527 -16.0822 15
694 1 -4.28632 -1.93771 -12.7217 19
695 1 -4.74032 -8.06985 0.8023 18
696 1 -7.81878 1.86798 -3.18624 19
697 1 -1.32216 6.29784 12.5157 16
698 1 8.90997 -6.71736 11.3005 17
699 1 -11.7165 -7.48171 8.55551 13
700 1 12.1409 -4.71731 2.19671 18
701 1 0.329091 6.55331 -11.3717 17
702 1 13.5551 7.81065 4.56753 14
703 2 -10.4812 -0.544301 -9.70713 18
704 2 -3.49592 6.73548 -7.66001 20
705 2 0.338091 0.633279 -8.27232 18
706 2 -6.19778 -1.57935 8.67018 19
707 2 -8.40354 -3.76214 -6.42981 15
708 2 2.48227 -1.54962 12.4149 20
709 2 -6.2108 -10.8212 -2.97158 20
710 2 -11.4062 3.79463 -7.09245 15
711 2 -0.460799 13.6361 3.44745 15
712 2 -6.22728 -1.26902 5.44706 19
713 2 10.5396 0.76311 4.68415 19
714 2 -3.10669 -2.08365 -6.4936 22
715 2 -12.1008 -7.26991 -7.27466 9
716 2 -6.18973 -1.10204 -0.698126 21
717 2 -1.16313 -9.44084 6.69715 18
718 2 7.92552 0.353244 12.6552 21
719 2 4.1043 -6.617 -9.18096 18
720 2 3.72577 -13.4833 6.88873 21
721 2 7.89847 -1.01857 3.93866 19
722 2 -7.78805 6.88437 -1.07892 18
723 2 -14.5768 -0.0407963 -6.54246 11
724 2 13.0803 3.06576 6.51702 12
725 2 7.89851 -10.4782 -7.01537 16
726 2 -9.114 -10.3779 -1.32622 18
727 2 -10.5851 -1.45101 6.87234 25
728 2 0.429648 -14.9959 4.40348 17
729 2 11.6414 -11.3199 4.26746 11
730 2 -0.92525 -17.9414 -6.70454 8
731 2 4.57828 -3.90131 14.6318 15
732 2 2.34941 10.6244 -6.81043 20
733 2 -12.3885 -9.28335 -1.71398 10
734 2 2.77771 1.84068 14.313 15
735 2 -9.71069 5.87016 -3.29585 16
736 2 -3.01431 3.22908 13.875 14
737 2 -11.7704 3.27542 -3.67622 14
738 2 9.89912 -13.7745 2.54435 16
739 2 -2.70057 5.26657 9.15863 18
740 2 0.22328 12.9845 -6.44447 11
741 2 1.2204 -11.9106 -7.80804 18
742 2 -4.65273 -1.33403 -9.43648 24
743 2 1.40453 -4.30688 -11.2412 17
744 2 10.6337 -1.11012 -5.87289 20
745 2 -4.61977 9.1733 11.8033 11
746 2 9.1299 -1.13054 -13.5018 13
747 2 -3.06687 8.15095 -13.1073 12
748 2 12.4758 8.48147 -2.23568 14
749 2 -8.18901 -3.2951 13.1706 9
750 2 -10.8575 9.01104 3.131 14
751 2 13.3355 1.67867 -5.96255 19
752 2 1.8252 -5.50109 -13.9278 16
753 2 -11.7922 -2.5392 10.4173 16
754 2 13.1541 7.05581 2.75081 15
755 2 -3.82177 8.44683 5.26082 17
756 2 -0.316417 -10.7397 -5.30726 21
757 2 -5.09204 10.0194 3.12196 20
758 2 6.36673 -10.6522 10.6848 15
759 2 7.10465 -7.98647 6.42707 19
760 2 -11.011 -0.608991 1.89875 16
761 2 12.5736 -7.43525 -6.87292 12
762 2 8.29003 -11.51 -3.91266 18
763 2 6.57748 5.45057 4.20192 22
764 2 5.55045 -13.5171 4.087 17
765 2 10.1211 -8.31791 5.63465 14
766 2 -5.20887 -3.00357 14.2549 12
767 2 14.6089 -6.00345 -1.20427 12
768 2 1.84802 1.12371 4.3995 21
769 2 10.7093 7.62093 9.33511 10
770 2 -5.12437 3.08172 9.72781 15
771 2 5.90111 10.9902 7.17832 14
772 2 12.1311 -8.3775 -1.03646 15
773 2 4.21689 8.8073 -8.72904 16
774 2 -7.77718 -2.4076 -9.33973 17
775 2 -6.08009 1.71412 7.46788 19
776 2 7.23211 -1.20318 -5.47357 17
777 2 -7.19009 -0.977591 -6.88803 19
778 2 -11.3114 -4.04262 4.798 19
779 2 -9.94142 -7.69248 0.247333 17
780 2 15.8449 -4.24435 4.40268 9
781 2 1.94549 -8.58234 8.54005 18
782 2 -2.01445 -3.48943 14.3033 12
783 2 8.88889 -4.52716 -13.7111 13
784 2 7.23495 2.46716 15.3075 11
785 2 0.726742 5.95359 7.89511 17
786 2 -8.28571 -2.1349 1.38886 15
787 2 1.0289 -10.9684 -11.411 15
788 2 11.6721 -2.50802 -3.14958 20
789 2 -6.45759 9.71611 9.06916 15
790 2 -3.17637 -12.585 1.94673 18
791 2 9.68337 -8.82176 -9.39417 12
792 2 7.09577 0.439717 -2.89682 19
793 2 -1.25104 3.23922 7.25391 18
794 2 6.96128 -7.67616 -8.35784 20
795 2 6.12012 -5.81678 8.57152 20
796 2 -5.95449 -9.76202 6.08607 18
797 2 13.9589 1.1162 -3.09434 16
798 2 -4.26395 -12.5093 8.29878 13
799 2 9.87711 8.485 -10.959 9
800 2 -8.83672 -9.22102 6.12567 15
801 2 12.4456 -5.0565 -9.45873 12
802 2 0.736818 -16.0957 -4.59208 17
803 2 13.4819 -6.1194 1.22432 12
804 2 -2.72764 8.30382 2.43518 22
805 2 12.2237 3.59195 -8.04734 13
806 2 -4.25761 -6.3087 -7.03565 21
807 2 -2.6671 -5.72185 6.79601 17
808 2 2.02298 -8.04221 2.205 16
809 2 -4.25252 -6.90747 -0.6646 20
810 2 0.562256 8.34131 1.403 19
811 2 -9.24244 8.74587 5.76896 16
812 2 4.04912 -1.229 -6.80776 20
813 2 10.7088 7.44781 0.140552 19
814 2 3.49289 2.87865 -6.67093 20
815 2 -5.42615 5.93701 13.0187 10
816 2 -1.39147 5.83221 -15.8588 11
817 2 -13.2202 3.67559 1.6558 12
818 2 0.271904 3.89272 4.43765 19
819 2 -8.25016 6.33606 5.9228 19
820 2 -6.07904 0.791347 -3.03669 17
821 2 8.84793 13.2292 0.221875 11
822 2 12.6396 5.3304 -5.73115 17
823 2 11.2866 -10.4389 -5.34114 13
824 2 -11.0045 -4.77816 12.3352 9
825 2 6.95699 0.435694 1.77314 20
826 2 3.55498 6.63171 3.31034 21
827 2 -5.72369 6.20887 -13.2472 12
828 2 -5.79021 7.03859 1.49337 18
829 2 11.1634 -5.49837 9.57358 14
830 2 -9.37328 -7.77301 -10.5324 9
831 2 7.15781 4.22423 -11.4857 21
832 2 9.78251 9.29213 3.07117 18
833 2 -9.53106 -7.7691 11.1521 12
834 2 2.06866 5.3654 1.40373 21
835 2 -4.07218 10.034 -7.91433 15
836 2 -3.75162 8.55315 -4.70738 22
837 2 10.414 -3.72793 14.559 11
838 2 -0.86562 7.48906 10.2976 16
839 2 9.95571 -5.82172 -7.90088 21
840 2 -3.12407 0.364065 14.556 11
841 2 -1.43926 -7.1642 13.117 13
842 2 -10.2996 -0.84023 -1.0825 19
843 2 -3.05969 -7.94105 -12.0104 16
844 2 1.12964 -13.3317 -5.44953 21
845 2 3.28733 1.27345 -9.1867 19
846 2 14.8001 1.67767 2.91301 12
847 2 -0.142117 3.54524 10.302 22
848 2 5.6153 2.93876 -8.40952 23
849 2 -8.07648 -7.39997 8.33215 21
850 2 0.0985762 -4.89378 -16.0897 11
851 2 -0.660264 -10.9919 0.624899 20
852 2 0.679057 -7.55155 -6.64298 20
853 2 5.50689 -16.8827 1.97992 14
854 2 12.0731 7.85325 -5.44772 12
855 2 -2.63017 0.116133 -14.5285 18
856 2 -4.77826 11.4817 7.31094 13
857 2 -8.45576 -8.206 -2.69452 18
858 2 -5.84537 -3.25472 -12.3712 20
859 2 4.95081 5.80098 -10.4427 20
860 2 2.55189 10.1495 -0.72249 14
861 2 -3.1683 -18.1809 1.17986 12
862 2 15.8429 -1.58891 6.83523 9
863 2 -0.179763 2.42955 13.8539 15
864 2 -7.19052 -14.4805 -3.93354 14
865 2 -0.729096 -15.3916 1.31181 20
866 2 4.28002 -0.959118 14.1398 16
867 2 5.46561 5.69769 6.70421 18
868 2 13.6875 -1.31943 -4.67797 17
869 2 7.0888 5.85581 14.9309 9
870 2 11.1006 10.0154 -4.23323 13
871 2 -13.3361 -0.308261 8.04478 16
872 2 7.33757 -7.46179 0.211337 18