ITEM: TIMESTEP
3000
ITEM: NUMBER OF ATOMS
1500
ITEM: BOX BOUNDS pp pp pp
-30.0 30.0
-30.0 30.0
-30.0 30.0
ITEM: ATOMS id type x y z Coordination
1 1 -4.12296 -8.06624 -7.37845 17
2 1 6.40164 -9.59175 5.11822 18
3 1 -13.0385 8.37725 -1.78282 11
4 1 -12.373 2.49368 -8.85221 15
5 1 1.47307 -9.6781 9.82815 11
6 1 -8.81455 0.487221 -9.96737 17
7 1 -5.92363 -14.467 2.23063 11
8 1 -13.7766 -9.86958 3.60499 9
9 1 -0.543525 5.16471 16.326 9
10 1 6.21579 -3.6341 4.92236 19
11 1 0.348837 1.19851 9.76512 20
12 1 -1.54394 9.6842 -8.23326 16
13 1 3.4427 0.211615 10.8094 20
14 1 10.4773 5.32239 9.01632 16
15 1 2.18356 10.2631 -11.4624 12
16 1 4.17926 5.24853 -14.4512 16
17 1 -8.92668 2.18159 1.36792 17
18 1 -4.66696 -0.677609 -9.67335 17
19 1 6.14199 -13.0043 7.26946 10
20 1 8.55087 -13.6103 1.87165 9
21 1 -8.9287 -14.9863 -8.77594 7
22 1 1.88001 -6.89697 -11.9577 16
23 1 0.518415 4.95118 13.2004 21
24 1 -2.16628 -12.5417 6.11654 19
25 1 7.35614 -3.39793 13.6636 8
26 1 -12.4762 -1.38198 0.440248 23
27 1 -8.5994 -0.607285 -0.758848 20
28 1 -7.70775 13.5852 -2.97159 16
29 1 0.102708 2.37868 -10.9406 22
30 1 4.25073 -4.49282 -8.30044 19
31 1 -1.64597 -3.47721 11.0386 17
32 1 -12.6064 5.16285 -0.275888 13
33 1 -0.278401 15.5745 8.25145 9
34 1 -7.23243 6.88592 -9.99072 14
35 1 0.680611 13.6759 -1.69316 17
36 1 2.37493 -14.1064 2.1762 19
37 1 4.14265 -8.8206 -4.76094 21
38 1 -8.87962 8.90252 6.62912 14
39 1 -14.3204 -5.98871 -9.45505 10
40 1 6.35072 3.37892 4.77662 19
41 1 -9.13066 8.64214 -4.25575 15
42 1 -9.20371 -10.4775 6.28674 12
43 1 -11.2871 6.09087 -7.61477 9
44 1 1.52075 8.29946 -3.80088 19
45 1 4.45858 6.08519 4.99741 18
46 1 7.679 -13.3168 -4.99202 11
47 1 3.51525 5.35472 12.3741 19
48 1 11.3649 -5.43238 -10.7568 12
49 1 8.40401 -11.6373 4.99008 10
50 1 5.45648 -1.52085 12.1785 16
51 1 -8.27864 -13.1353 5.33957 9
52 1 -9.06186 -2.6885 1.87567 23
53 1 12.0286 3.14977 6.98096 12
54 1 10.9588 -2.3675 -3.1604 20
55 1 -2.01559 13.4355 10.0931 11
56 1 2.93252 0.0522841 7.15314 19
57 1 -6.69718 -3.95083 3.86007 20
58 1 -1.89328 -5.58595 -8.34994 20
59 1 -10.2157 9.88267 -1.03038 19
60 1 -1.78329 3.40439 -8.56115 18
61 1 4.74496 -0.940831 -5.99113 23
62 1 6.56507 -5.544 1.89565 17
63 1 7.45133 -10.1907 7.8797 17
64 1 -7.99059 14.8457 -6.32049 7
65 1 -9.5712 12.2792 1.99639 16
66 1 -3.70527 6.80289 5.37385 15
67 1 -7.28511 -5.55188 9.52902 16
68 1 13.03 -8.39341 -6.15349 11
69 1 -11.2803 4.36423 6.1648 18
70 1 9.30547 -7.27495 -4.66912 20
71 1 5.85224 0.960661 -12.4791 20
72 1 -4.16195 -0.481343 -18.0007 10
73 1 0.0150255 11.7233 1.20175 18
74 1 -6.94067 3.47864 -8.59824 22
75 1 -0.361982 16.0222 -5.16438 8
76 1 0.905988 8.83707 1.38156 18
77 1 -6.39515 -8.22465 7.41325 23
78 1 -1.3413 -2.3808 -8.70329 22
79 1 4.01185 -7.40681 -7.79616 21
80 1 -1.85678 2.63814 7.20105 18
81 1 -9.01993 -6.43171 -1.27385 19
82 1 8.10498 -2.78732 3.41924 18
83 1 -8.23994 -9.95216 -4.82799 19
84 1 7.26772 -10.7422 2.3329 17
85 1 -5.42856 8.04255 1.54568 19
86 1 8.74842 2.23408 -12.5394 15
87 1 1.54938 4.57045 -5.86241 24
88 1 10.2032 -8.93363 0.237709 14
89 1 -1.55785 -16.9822 2.61731 9
90 1 -7.04773 -9.0254 -1.23128 19
91 1 -15.3287 -5.05002 3.67419 13
92 1 8.38111 9.39427 5.37783 19
93 1 7.81588 5.87373 -0.382673 18
94 1 -4.57426 12.3792 8.66679 14
95 1 -4.52349 11.6892 -2.45999 20
96 1 -0.55083 -4.81571 -10.8849 18
97 1 9.37078 -2.20587 11.816 15
98 1 -4.50132 6.32883 -7.80616 18
99 1 11.291 0.0753439 -5.48065 20
100 1 -7.77565 6.54798 -6.77905 19
101 1 -7.07995 13.7442 0.846716 18
102 1 6.59584 5.03724 -9.89421 17
103 1 9.15673 -8.30406 3.33274 18
104 1 -5.67574 4.04671 -5.98138 19
105 1 6.05759 10.7506 -0.849163 21
106 1 13.2752 10.1234 -2.07548 11
107 1 -4.25796 8.67647 -2.07281 17
108 1 -5.75267 -1.56953 -15.0509 10
109 1 1.13175 16.1287 5.93794 10
110 1 -12.2929 -1.95032 -6.01459 18
111 1 16.9085 -0.960034 -3.48751 10
112 1 -1.28247 10.1855 8.90886 22
113 1 -3.77151 9.32682 -6.78001 17
114 1 3.58366 -2.95424 9.77324 19
115 1 -13.0224 -6.99868 3.39713 21
116 1 -3.41247 -10.5013 3.4196 20
117 1 2.15679 -13.5616 -4.10769 14
118 1 -3.7638 9.93408 -13.1044 6
119 1 -0.170672 7.90402 -1.29806 19
120 1 10.9122 7.94832 -4.07931 20
121 1 -1.6049 -11.4673 9.74096 8
122 1 -10.0849 4.06677 -0.0119326 19
123 1 2.87947 16.0383 3.12922 9
124 1 2.1936 6.90082 6.90839 18
125 1 -9.97316 15.4 1.78647 8
126 1 -5.94941 1.70472 -11.0981 17
127 1 12.8437 -6.37299 2.07415 16
128 1 -5.24935 -5.50407 6.69878 22
129 1 -16.6611 0.82995 4.64596 10
130 1 -7.72931 -12.1305 2.35028 16
131 1 -13.9126 0.428043 -2.84007 16
132 1 -2.91276 -12.6111 -2.0159 20
133 1 4.01762 -7.78265 -1.96055 16
134 1 -2.92419 9.85402 6.44045 14
135 1 -10.8335 1.6564 4.45565 17
136 1 -9.75993 -4.15289 -7.20248 15
137 1 -6.39539 12.114 -7.37346 7
138 1 -14.8746 -4.69427 -6.04629 16
139 1 -11.3998 -1.83459 11.2861 12
140 1 -0.194073 -11.7097 3.79817 22
141 1 3.02804 -17.1362 6.59449 7
142 1 15.7433 5.05719 3.68184 10
143 1 5.46914 5.27616 -5.62761 18
144 1 3.41089 2.43213 8.54638 13
145 1 -0.0899284 8.20428 -11.3676 16
146 1 10.9571 -0.296901 -13.0762 9
147 1 -7.95071 -3.97613 -8.91409 17
148 1 -5.55219 13.5395 -4.47939 15
149 1 -10.4232 12.171 -3.97167 13
150 1 8.15953 1.54109 7.67832 16
151 1 -3.86651 -7.23639 -10.684 19
152 1 -4.56244 10.0655 -9.58689 12
153 1 0.30242 5.52968 -8.70586 22
154 1 -11.6476 4.87297 9.1366 11
155 1 -7.06136 9.72105 9.01293 11
156 1 0.0317846 -11.995 -8.5346 14
157 1 -6.56952 -14.8051 -1.05668 12
158 1 8.43811 -11.3693 -0.308269 15
159 1 4.35513 10.0948 -9.08765 16
160 1 -0.827836 10.8695 -1.49336 21
161 1 -12.8243 0.565867 2.52938 19
162 1 1.62954 6.56168 10.2827 17
163 1 13.7902 -0.59386 -3.51878 21
164 1 3.08452 8.58411 4.50951 18
165 1 -11.3355 6.6838 3.50956 15
166 1 -13.3626 -6.6164 -3.89937 18
167 1 8.9857 4.1723 -10.7057 19
168 1 5.27134 -0.469959 8.29606 14
169 1 7.41914 9.44929 -10.3669 10
170 1 2.90922 -10.1891 -1.86466 17
171 1 -6.58749 -2.67022 -11.1307 17
172 1 8.28045 -0.482927 -7.07645 18
173 1 -10.4773 -1.20756 6.31154 17
174 1 1.62043 -16.1103 -2.25808 12
175 1 -10.5368 -6.61976 -8.86198 14
176 1 6.73006 15.2071 -1.78194 9
177 1 -0.0231087 -1.96477 -15.3518 18
178 1 2.59206 3.43067 15.642 10
179 1 13.9707 3.34196 1.55976 19
180 1 -5.39773 -6.61769 -1.44735 22
181 1 8.51353 -6.57349 -11.1308 11
182 1 -11.4018 -3.34666 -13.2483 8
183 1 -11.7011 0.930401 -11.3688 13
184 1 9.63509 0.829829 10.8477 17
185 1 6.16915 -4.17279 7.95202 21
186 1 -6.51928 -9.56138 -10.4555 11
187 1 1.17879 -6.63338 5.00236 20
188 1 2.60953 6.02458 -10.8553 17
189 1 6.52426 10.1491 2.0959 15
190 1 -6.65542 -5.87319 0.90259 19
191 1 2.74879 11.4171 2.90265 18
192 1 -8.84611 -3.10436 11.9278 13
193 1 -13.0304 -8.22864 -7.67617 13
194 1 -6.26504 -5.99043 -11.1007 17
195 1 -6.31317 -7.86389 -4.68954 18
196 1 -1.47071 -8.47512 1.67926 21
197 1 12.3027 5.21489 3.69788 18
198 1 -10.1354 -3.91775 9.34309 13
199 1 -3.40812 -11.6207 -5.12173 19
200 1 -2.11711 -11.5246 0.781469 20
201 1 -10.6469 14.8822 -4.42264 8
202 1 5.83493 2.75725 -14.9898 15
203 1 -5.0216 -4.44211 -13.131 13
204 1 2.44364 -12.9692 -0.771638 19
205 1 -4.75246 -12.7888 -10.4755 8
206 1 -9.58796 4.2336 -8.66719 16
207 1 11.6719 8.4844 7.76065 17
208 1 -4.76713 4.15489 -15.0199 14
209 1 1.9029 7.87685 -8.68211 18
210 1 -2.29336 -2.88271 7.03659 19
211 1 -9.28709 13.7177 -0.560496 17
212 1 2.7187 11.0819 6.73768 22
213 1 10.5312 0.0309485 5.67058 18
214 1 -11.243 1.77809 8.18623 16
215 1 -4.36704 -6.82203 9.34713 19
216 1 -5.64726 8.48726 4.66839 17
217 1 3.57083 -3.78627 -11.4809 22
218 1 1.36564 -11.0915 1.28895 20
219 1 -3.40417 -0.0265486 13.5606 13
220 1 -13.9844 -7.08535 6.00833 9
221 1 16.8319 -4.03213 -3.18949 9
222 1 8.70587 -2.86039 -8.25093 17
223 1 9.2666 -10.9005 -3.36937 14
224 1 -11.9865 15.5862 -1.05825 7
225 1 11.3957 7.96464 11.6301 11
226 1 -8.45815 -0.828252 4.24582 22
227 1 7.41106 -8.42278 -2.85776 20
228 1 -3.65173 10.4226 3.68904 16
229 1 -5.58862 4.41858 4.71757 18
230 1 4.99365 -10.7642 7.01088 19
231 1 13.8947 -4.50698 4.93948 12
232 1 -1.41335 7.43545 8.73964 17
233 1 -8.36362 -1.99847 -3.96106 19
234 1 -2.91827 2.69269 15.943 9
235 1 -3.85527 13.9326 2.53056 18
236 1 -6.4807 0.640889 -4.23412 22
237 1 -6.30449 4.44067 9.98006 20
238 1 -15.6282 1.91019 2.23535 15
239 1 -3.31912 -3.74166 -5.81783 22
240 1 -6.78767 10.3168 0.327271 20
241 1 9.18588 -3.06968 6.38742 20
242 1 -8.62346 -9.24656 0.956645 20
243 1 7.08935 -7.52839 7.31784 21
244 1 -13.931 7.49731 1.6398 11
245 1 -0.645522 -6.69489 10.3463 12
246 1 2.52422 -13.5203 -7.86062 11
247 1 -4.52785 -4.77591 -8.83486 19
248 1 7.63593 0.329672 -14.686 12
249 1 4.74963 14.1254 4.77167 15
250 1 -11.2078 -1.58732 -2.49232 19
251 1 4.66824 -6.2089 -10.8983 15
252 1 -7.10716 -15.8478 -6.16195 9
253 1 -15.8164 -5.03187 -2.75084 14
254 1 -3.75249 -9.55712 -0.441198 21
255 1 12.9625 2.89067 -4.4264 22
256 1 -8.42471 1.93492 -12.6583 15
257 1 -9.84534 0.424149 -4.25794 19
258 1 -8.22461 6.02051 5.4495 18
259 1 -6.17861 11.3274 3.1612 20
260 1 -6.09175 6.49359 7.48672 22
261 1 13.4816 -3.43496 -2.89821 19
262 1 13.9909 -0.953861 -7.44592 16
263 1 1.17721 -8.53134 -3.705 22
264 1 0.0752182 11.3745 4.2393 18
265 1 -9.29257 1.4359 -6.89308 19
266 1 5.56542 -10.5686 -1.5617 17
267 1 13.0538 -0.0761874 7.79584 13
268 1 -12.1646 -5.41815 -6.8299 21
269 1 -5.20717 -9.02214 1.87894 18
270 1 -3.40384 11.0173 0.0414896 18
271 1 -11.6769 -8.86767 -2.05885 14
272 1 -10.3726 6.14519 -2.43371 17
273 1 -0.107223 13.1693 -7.1693 11
274 1 5.72351 13.2657 7.33995 13
275 1 -14.4932 -8.00766 -1.63646 15
276 1 -1.16074 -9.72955 -5.70436 23
277 1 -14.1023 -1.40397 5.32034 15
278 1 -13.0943 3.83279 -6.67927 13
279 1 4.95018 -7.84459 3.71855 20
280 1 -6.5313 -12.6267 -4.1987 22
281 1 5.42638 6.68316 -12.1421 17
282 1 -9.08728 3.9596 -5.89989 17
283 1 -2.72484 -13.8231 3.36187 17
284 1 13.9513 7.32591 5.93344 10
285 1 -3.61178 -0.220062 7.21098 17
286 1 -15.4034 0.271159 0.443352 14
287 1 -7.3076 2.09068 4.71404 22
288 1 -5.12803 -13.2802 4.88418 13
289 1 3.04607 -3.87917 -5.98547 24
290 1 7.03749 -5.89139 -8.20271 17
291 1 -11.4911 -1.54333 3.78925 20
292 1 1.15059 -7.36762 8.09839 21
293 1 7.02597 -8.72542 -6.5297 21
294 1 0.244696 -10.5209 -11.91 12
295 1 0.114581 -3.8247 8.63894 17
296 1 1.3158 -6.80909 -6.06261 20
297 1 -2.42243 2.92005 -17.3391 14
298 1 5.32475 -12.7045 0.525598 18
299 1 0.0596808 10.4069 -5.41351 19
300 1 -3.83422 -2.8056 13.3163 11
301 1 -8.00176 -6.17273 5.10559 18
302 1 11.0376 -6.96665 10.0046 9
303 1 9.30384 3.34529 -0.64027 18
304 1 2.34761 -0.224578 -11.1665 20
305 1 10.1488 -7.71316 6.6283 15
306 1 14.1648 8.11012 -5.18738 11
307 1 -1.39367 2.67069 12.5523 17
308 1 3.13625 12.4435 -0.50219 16
309 1 7.92323 -5.93943 5.03315 24
310 1 -3.59946 -14.429 -5.30012 15
311 1 -2.50672 15.9312 5.44258 10
312 1 -12.1276 -11.8922 -6.349 8
313 1 4.04744 8.16317 9.62686 19
314 1 -4.16191 3.07574 11.0873 17
315 1 -7.11626 -5.32446 -3.61171 19
316 1 -9.32127 3.82618 10.4653 17
317 1 -10.6629 -8.77694 -6.56973 15
318 1 -5.1815 13.767 5.30364 14
319 1 -5.88857 -13.5981 -7.72899 14
320 1 -0.926751 -8.20274 -12.5675 12
321 1 -9.98588 -13.7294 0.145589 10
322 1 -6.5826 -2.64524 6.69096 19
323 1 8.93815 2.596 5.05646 18
324 1 -5.694 -4.69929 11.8123 13
325 1 -10.7227 3.85516 -13.1322 6
326 1 10.7874 4.82634 -3.07815 18
327 1 -8.81218 -14.7685 -2.62683 11
328 1 1.77604 2.81962 -8.49262 20
329 1 0.834647 16.1473 0.38825 8
330 1 -4.1742 3.27504 -9.90622 18
331 1 -3.11196 10.6645 11.1118 13
332 1 -14.8617 -1.85785 -4.47306 14
333 1 5.57802 12.3482 -6.11231 10
334 1 -7.1308 -6.71145 -7.70462 19
335 1 -0.651267 -14.651 -7.24837 13
336 1 -0.478442 -1.84914 -11.3752 21
337 1 -11.566 9.38023 2.66657 11
338 1 1.53419 7.14865 14.2407 12
339 1 10.1028 7.2572 -1.4599 17
340 1 3.1341 8.11321 -0.869595 18
341 1 -7.44405 4.64178 -11.8769 12
342 1 4.01638 4.78072 -8.31979 21
343 1 2.41307 -9.11943 5.15049 19
344 1 -14.8632 -5.3224 0.30869 18
345 1 -5.02096 5.50281 -17.486 8
346 1 11.3679 6.4315 1.244 20
347 1 9.83041 -6.0197 1.48344 18
348 1 16.5264 2.26803 -0.0309675 9
349 1 -0.191298 0.209441 -13.1578 20
350 1 1.46695 -8.56725 2.28125 25
351 1 -0.36252 -15.1758 5.20412 11
352 1 4.02078 -8.36216 8.69752 20
353 1 -6.03339 1.09292 -7.77902 21
354 1 -1.3576 -13.2005 -10.706 11
355 1 1.09466 4.89748 -12.5719 21
356 1 2.14776 -0.845294 12.9109 15
357 1 -12.7525 -3.41194 1.90851 22
358 1 13.6338 -4.58297 -5.96738 14
359 1 11.8341 -1.83015 -0.12481 19
360 1 -5.79509 8.06084 -4.70565 19
361 1 1.55965 -9.47651 -7.37 17
362 1 4.19164 3.13198 -11.0702 22
363 1 11.7386 -6.07464 -7.24709 16
364 1 -9.03871 0.755259 12.7057 15
365 1 8.57002 13.9251 2.64977 12
366 1 -2.24838 -3.73961 -16.9997 9
367 1 -4.10905 -3.62334 9.65062 21
368 1 -1.9858 13.8741 -0.447223 16
369 1 -8.50544 -3.76947 -13.4143 13
370 1 -15.1996 -1.5997 2.46375 15
371 1 -7.86633 -11.3626 9.25741 10
372 1 -1.21831 7.12548 -6.79013 18
373 1 13.6841 3.1541 -1.77681 17
374 1 -9.03369 -11.2655 -2.17998 17
375 1 -0.0899504 -9.99249 -0.875047 18
376 1 -7.73357 11.9874 6.93528 12
377 1 2.04745 -2.69425 -8.72187 21
378 1 12.324 -4.86085 -0.697215 20
379 1 2.48626 13.5078 -5.83012 15
380 1 4.5523 -9.24146 0.940028 21
381 1 -8.32508 3.23279 7.93331 22
382 1 7.39094 10.4976 8.6389 17
383 1 0.217954 2.42386 -16.7288 14
384 1 -6.594 -4.03654 -6.143 21
385 1 1.2537 -4.22695 11.8717 14
386 1 10.1324 11.6027 7.38434 16
387 1 6.14359 7.21439 -7.7782 20
388 1 -6.94579 9.06305 -7.05191 13
389 1 -0.31129 13.5337 -4.19803 17
390 1 10.5351 -4.59089 12.6948 7
391 1 11.694 2.01698 -10.7617 13
392 1 -15.9676 -7.56211 1.71995 10
393 1 0.875348 -1.7815 10.1478 19
394 1 -2.29483 11.2353 -4.40797 17
395 1 4.94028 -13.4807 -2.71626 18
396 1 4.96908 -0.815367 -10.3389 17
397 1 -2.97919 14.5849 -3.18214 13
398 1 -9.96397 -6.41892 -12.6203 7
399 1 2.429 -16.3766 3.62795 11
400 1 -13.0853 -3.9179 -2.06473 20
401 1 -8.90263 2.79876 -3.03841 21
402 1 -10.6129 -6.11705 7.42935 14
403 1 5.97176 7.52613 -1.86399 20
404 1 2.16389 -8.59582 -10.2741 15
405 1 4.77415 -11.1143 10.1133 12
406 1 6.73559 2.46256 -5.79293 18
407 1 -9.65458 7.3466 0.66042 19
408 1 8.35215 -3.76304 -3.41202 17
409 1 3.17696 9.3162 12.1367 14
410 1 -2.37174 0.676394 -10.8158 19
411 1 2.94659 14.3789 7.84597 13
412 1 9.3557 2.61453 -8.18843 19
413 1 -2.40242 -2.42701 -13.7357 16
414 1 -5.71521 -10.3333 -6.67819 19
415 1 -14.1533 -2.36248 -11.0179 10
416 1 11.4761 3.18938 0.707981 16
417 1 14.8712 5.62362 -3.42621 11
418 1 9.44936 -4.74184 -5.85771 17
419 1 5.88819 -10.793 -4.00645 18
420 1 10.9385 12.6303 5.03121 12
421 1 -9.3131 4.25174 3.61553 17
422 1 11.8361 6.68337 -6.4558 18
423 1 15.5723 -0.0265219 2.44168 14
424 1 11.5822 4.1938 -8.71421 18
425 1 9.08653 3.32373 14.7895 8
426 1 2.59427 -4.81636 7.99552 17
427 1 1.41686 1.74129 13.1609 18
428 1 15.9877 -2.42389 -6.28415 13
429 1 8.42841 3.64126 10.41 12
430 1 -7.60362 -1.29841 -7.02299 18
431 1 14.479 7.08502 2.29212 16
432 1 11.2527 -3.32795 2.42735 21
433 1 11.0657 1.78925 13.552 9
434 1 1.53853 9.39105 9.34199 23
435 1 6.80783 4.63198 7.47432 16
436 1 -7.43678 10.4975 -2.8403 20
437 1 11.5336 9.48564 -7.34352 9
438 1 9.31294 -3.59818 -11.5066 11
439 1 3.79711 15.6354 -1.41607 11
440 1 -2.82415 -11.8019 -7.77602 18
441 1 -14.803 1.63982 7.06237 11
442 1 -4.32991 7.38712 -14.8557 11
443 1 -3.76564 -14.2461 0.48705 15
444 1 -4.73061 1.47941 -15.932 12
445 1 -12.0501 1.1887 -5.54692 16
446 1 11.1951 -5.80246 4.76217 18
447 1 13.1246 10.6829 6.27642 11
448 1 0.49331 -10.9915 7.3081 17
449 1 -13.5973 -2.99272 -8.26838 15
450 1 -2.2639 6.14225 14.2424 16
451 1 5.55603 9.59681 -12.4648 9
452 1 8.30616 6.41563 -5.04566 21
453 1 4.87092 -12.9364 -6.01401 15
454 1 13.5286 -1.36323 4.60605 18
455 1 10.023 10.3769 3.18802 19
456 1 14.4151 -3.30941 2.01481 18
457 1 -3.12318 4.94908 8.23945 16
458 1 -11.867 -6.16578 0.141808 19
459 1 -10.1883 -2.08069 -10.8878 16
460 1 7.60678 0.138582 13.9582 12
461 1 -2.67972 -8.85162 7.36169 20
462 1 6.49574 5.40462 13.8299 11
463 1 -4.95945 14.7259 -1.09422 13
464 1 9.29009 4.70114 2.42209 17
465 1 10.392 5.45809 6.3198 17
466 1 2.02987 -0.115565 -17.0853 10
467 1 -9.19866 -0.808915 9.12737 17
468 1 7.73784 0.569688 -9.72853 17
469 1 -1.73833 -6.93843 -5.49552 19
470 1 9.87496 -10.17 -6.44843 16
471 1 8.5463 6.59776 11.3591 17
472 1 7.29948 6.27277 5.65801 19
473 1 11.6391 11.4615 9.88935 11
474 1 4.80426 -4.921 11.9712 10
475 1 -2.2438 5.57083 11.3959 20
476 1 -0.598789 -4.29149 -13.894 14
477 1 -6.93318 3.9255 13.1596 14
478 1 5.48095 2.45607 12.1124 15
479 1 13.5646 7.19525 -1.01494 16
480 1 7.95266 -11.7673 -7.77255 10
481 1 -1.61217 4.59725 -6.07174 19
482 1 8.10661 9.14262 -2.74511 19
483 1 11.4315 14.5261 8.17132 5
484 1 4.46268 13.0053 -2.93773 16
485 1 12.3676 9.17851 1.16325 17
486 1 -5.18091 -10.2183 -2.95679 21
487 1 -1.20828 -0.472149 -18.1209 12
488 1 -11.7192 11.951 -0.769629 11
489 1 6.38542 -3.38901 -10.0586 17
490 1 6.14974 5.41193 2.50289 19
491 1 11.2117 7.06295 -9.70382 11
492 1 10.7499 10.6845 -2.09598 16
493 1 -7.07804 5.23397 0.877808 18
494 1 7.76098 4.40621 -3.01304 23
495 1 -5.02109 -10.2767 8.8443 16
496 1 -1.16377 8.09229 -14.1095 13
497 1 4.30772 11.3986 9.51587 14
498 1 1.46128 3.237 6.96993 17
499 1 7.70958 12.3581 -3.17826 15
500 1 7.92146 12.6209 5.33328 15
501 1 13.5517 -6.66173 -3.68162 13
502 1 -12.4302 -3.85333 6.48247 15
503 1 1.19087 -16.3347 0.958237 15
504 1 -0.392171 0.613416 -8.63981 21
505 1 5.97993 -6.45366 -5.13517 22
506 1 4.86771 11.315 4.29441 16
507 1 -10.8558 -5.10664 4.3073 19
508 1 4.12114 -15.9494 0.197753 13
509 1 8.35687 9.06213 -7.14218 15
510 1 -0.447955 7.57122 4.22644 19
511 1 5.13513 -0.571958 -16.0494 10
512 1 2.84589 -13.8154 7.934 13
513 1 5.97576 16.1461 1.68037 9
514 1 -5.84913 1.15237 14.0845 13
515 1 -9.63024 -8.81005 -10.1031 10
516 1 6.51718 -3.38655 -5.9469 17
517 1 -2.19478 13.1029 6.63941 19
518 1 4.55116 -10.937 -7.98542 15
519 1 4.396 -6.63018 6.3185 22
520 1 -0.673089 -14.6982 -4.10239 15
521 1 -12.6301 -0.528388 8.39456 15
522 1 -9.27377 -13.4731 -5.22006 18
523 1 -12.1726 1.73097 11.2072 10
524 1 14.5625 4.74838 -6.44172 11
525 1 -5.56242 3.04146 7.19073 21
526 1 -14.4342 6.87325 4.34277 11
527 1 9.89057 -0.862498 1.51904 14
528 1 -2.12725 8.19749 -4.25173 17
529 1 10.9938 0.050965 -8.64653 18
530 1 10.2488 3.82337 -5.42884 21
531 1 -14.5278 0.787875 -8.97142 10
532 1 -15.928 -7.58777 -6.52519 10
533 1 7.4089 4.62016 -13.5456 14
534 1 -2.36606 -0.107063 10.0213 19
535 1 -2.00328 -5.5613 7.8365 18
536 1 1.53133 -5.53006 -8.97151 23
537 1 -7.287 7.41938 -1.49912 20
538 1 8.94326 7.54121 2.7241 17
539 1 -8.89808 -3.62868 5.74405 18
540 1 8.87455 7.39174 -12.3132 11
541 1 -2.09239 -16.1022 -2.15148 11
542 1 6.08049 2.33118 -8.74977 20
543 1 -2.37784 0.260864 -15.5842 21
544 1 -0.811838 -0.81246 14.112 10
545 1 1.15765 5.50562 -15.4099 16
546 1 -10.4973 -3.68958 -0.140243 18
547 1 8.16619 -0.181188 -0.569893 17
548 1 -7.06082 -3.22053 -0.894924 20
549 1 9.25058 6.18023 -8.13302 20
550 1 12.9512 -8.16191 -0.559675 11
551 1 -5.78128 6.20389 11.7626 17
552 1 3.92123 -11.0357 3.41476 18
553 1 14.8094 -5.81931 -0.953322 14
554 1 11.9067 -3.76904 10.4533 11
555 1 0.808304 12.3996 7.97335 19
556 1 -8.53113 6.89324 9.08823 15
557 1 -5.58719 -13.3631 7.60906 11
558 1 8.07342 2.10437 2.08038 20
559 1 6.11965 8.1457 11.5666 14
560 1 -15.0529 -2.19879 -1.03827 16
561 1 8.98153 -5.64593 -1.51882 17
562 1 4.2174 8.38205 1.77445 17
563 1 4.37762 0.892519 14.1113 13
564 1 1.10021 13.5765 4.62984 17
565 1 2.72773 -12.7265 5.06555 18
566 1 -10.3978 -4.56022 -3.37307 19
567 1 2.10128 3.20619 10.8125 16
568 1 5.3082 13.2405 1.45022 18
569 1 -10.4564 -11.1118 3.10156 15
570 1 9.0017 -5.46851 8.51819 18
571 1 12.0624 -5.63044 7.77716 12
572 1 7.57176 7.30116 8.24526 20
573 1 -0.993807 -7.99788 -9.12051 20
574 1 -1.50176 2.98304 -13.6424 23
575 1 -6.42897 -1.66025 12.0195 19
576 1 -0.882242 14.7317 2.66796 14
577 1 12.5647 0.312014 2.58197 17
578 1 3.01532 10.3788 -6.46121 19
579 1 -2.74622 8.39195 13.0065 14
580 1 9.36854 10.0221 10.5721 13
581 1 5.59496 -2.41354 -13.1348 12
582 1 -5.82215 -11.7351 -0.0689206 20
583 1 -4.93129 -1.34756 -6.40077 21
584 1 14.0159 1.73705 4.76981 14
585 1 2.18981 -1.73057 -13.8482 18
586 1 -2.40053 -8.37194 -2.96053 22
587 1 15.8509 -2.44854 -0.611538 13
588 1 4.048 -6.10773 9.9577 17
589 1 -3.11237 -10.7925 -11.9625 11
590 1 8.28058 12.623 -0.326073 18
591 1 -1.98992 -6.0645 5.07599 21
592 1 -15.9998 3.90993 5.49159 12
593 1 12.8937 2.08541 -7.49675 18
594 1 2.46786 -4.69704 -14.1791 9
595 1 -9.11811 10.2777 4.68302 16
596 1 2.94014 3.23436 -16.6212 12
597 1 9.29399 -3.0808 -0.151392 19
598 1 -10.9997 1.0489 -1.45177 18
599 1 11.7016 8.21184 4.35076 20
600 1 -12.6914 -9.24102 1.12754 16
601 1 5.52808 5.67529 10.1115 17
602 1 -11.8747 -0.441996 -8.99183 18
603 1 -14.5303 5.10284 7.48618 8
604 1 -4.40761 4.95541 -11.9326 15
605 1 9.52113 -7.56516 -8.1089 15
606 1 -13.1966 -9.83437 -4.89913 13
607 1 11.3912 -8.50734 -3.15339 16
608 1 -16.8123 5.4641 2.11049 7
609 1 -9.20585 -6.57792 -4.95785 17
610 1 -7.54633 -9.05388 3.65533 19
611 1 12.2129 -2.77145 7.10149 16
612 1 7.28041 -0.355267 5.74749 18
613 1 -12.5486 3.86033 2.87518 18
614 1 0.0316256 11.1071 12.1256 11
615 1 3.29263 7.00418 -6.41531 20
616 1 -8.2832 13.4527 4.33325 14
617 1 9.54704 11.5082 -5.44251 9
618 1 -0.131237 8.12635 11.8188 19
619 1 7.03077 -8.35254 10.0333 11
620 1 1.16858 11.4994 -8.6645 14
621 1 -5.62508 -0.541085 9.68934 15
622 1 -3.15581 -3.34681 -10.8303 18
623 1 -13.2508 1.9033 -0.381906 17
624 1 -5.12758 -10.6267 5.60312 19
625 1 7.85399 -1.79589 9.11185 17
626 1 -0.981236 -11.28 -3.21568 18
627 1 -12.4643 3.4268 -3.28238 17
628 1 13.0163 -3.65913 -8.61387 13
629 1 -8.10734 8.14291 2.88719 19
630 1 -7.05133 0.146273 7.13298 19
631 1 -8.2619 -11.6764 -8.20724 14
632 1 0.431856 -11.9662 -5.82069 21
633 1 7.28945 -14.5506 -1.39382 11
634 1 2.34743 7.94686 -13.6363 16
635 1 15.6741 1.10452 -5.78964 12
636 1 8.97655 9.15579 0.0908837 22
637 1 11.7911 0.895696 -1.76115 19
638 1 -2.05209 5.10782 -15.3521 16
639 1 -1.07067 -8.85135 4.96171 18
640 1 6.34847 10.1978 -4.60076 18
641 1 3.79979 0.479522 -8.4941 18
642 1 -12.7432 6.34561 -4.3145 9
643 1 4.75891 8.15833 -4.562 20
644 1 -9.40845 -8.95182 9.0727 10
645 1 4.97426 9.00737 6.98234 18
646 1 -0.480587 -14.1947 0.858891 16
647 1 1.90653 10.8086 -3.12636 17
648 1 -4.36565 8.09457 9.83137 15
649 1 -7.34723 1.24699 10.5675 19
650 1 8.81885 1.73713 -3.15587 18
651 1 -6.2823 -8.18707 10.9691 12
652 1 4.68452 -15.1324 4.7617 12
653 1 10.3861 5.45378 13.4357 10
654 1 11.2198 -2.52935 -5.77125 22
655 1 -8.75152 -0.794505 -14.0898 9
656 1 -3.26339 7.21887 -10.2012 18
657 1 -15.1679 1.74653 -5.51487 10
658 1 11.5431 12.6728 0.827649 8
659 1 -0.189554 9.59041 6.15358 18
660 1 -11.4509 -12.2444 -2.97638 13
661 1 -2.05386 8.51015 1.13375 18
662 1 12.2728 2.20497 10.3186 11
663 1 -4.27759 -7.34776 4.60159 20
664 1 12.2064 -1.94793 -10.8895 11
665 1 7.05147 -8.05882 0.39284 20
666 1 2.58952 2.41559 -13.3953 20
667 1 -7.781 1.9895 -15.9316 8
668 1 -9.39724 -6.421 2.0506 19
669 1 -7.38194 5.46854 -3.60671 19
670 1 -5.6814 7.48524 14.5579 6
671 1 12.2473 -0.695539 11.3881 10
672 1 -10.3757 -8.55914 3.85837 19
673 1 14.7939 -0.0727887 -0.148805 18
674 1 -1.35397 5.47405 -11.1042 19
675 1 15.5294 4.97126 -0.061931 13
676 2 -10.5388 -0.280664 -10.3361 15
677 2 -6.53493 12.183 -2.92798 18
678 2 1.17905 -0.986794 -12.5464 21
679 2 -2.98705 6.44962 9.39231 18
680 2 -8.91505 -5.64485 -8.32529 19
681 2 1.70886 0.0150132 10.6285 21
682 2 -14.0889 -8.16547 2.29336 17
683 2 -12.427 5.72124 -6.29153 11
684 2 1.46293 15.5291 7.81029 11
685 2 -10.2397 -0.012264 4.46907 17
686 2 10.4648 5.59642 3.78674 19
687 2 -14.3262 -8.52591 -6.32084 12
688 2 -9.06955 2.64586 -0.555398 19
689 2 -1.47541 -10.4929 3.77669 19
690 2 3.63908 2.26279 11.3492 18
691 2 7.57774 0.922011 -11.5621 17
692 2 3.1819 -15.9345 1.85116 12
693 2 -9.21076 10.5454 -3.52831 14
694 2 -14.3371 1.71143 -7.32772 12
695 2 12.2401 6.20249 5.96494 15
696 2 9.30135 -11.957 -6.26939 10
697 2 -7.44927 -11.0294 -1.0753 21
698 2 -11.4075 -4.14251 7.99399 14
699 2 -4.28342 -14.9385 2.79082 10
700 2 10.8626 -7.31823 8.16742 13
701 2 -1.77308 -15.127 -5.77795 13
702 2 3.82302 -0.15482 12.574 15
703 2 -1.04756 12.2844 -5.60025 19
704 2 -10.8242 -10.4426 -2.13453 14
705 2 -0.22438 6.21198 14.5525 14
706 2 -10.1779 7.98335 2.41064 16
707 2 -1.95675 4.22166 15.4681 13
708 2 -6.1314 8.58546 -2.71855 18
709 2 7.93499 -12.4766 3.28591 13
710 2 -1.30868 8.74567 7.37104 17
711 2 0.950383 14.5283 -5.53195 10
712 2 4.3688 -7.02356 -4.01453 21
713 2 -4.18253 0.639793 -11.0657 13
714 2 3.01848 -1.24063 -9.22137 20
715 2 9.28462 -0.721857 -8.99522 16
716 2 -4.42292 7.9758 11.8299 16
717 2 2.00062 3.80475 -15.1455 17
718 2 -3.09261 8.36845 -13.8319 12
719 2 11.4964 8.70935 -2.33715 20
720 2 -6.99917 -3.37254 12.5162 12
721 2 -12.9337 8.10199 3.54961 11
722 2 12.687 -1.4736 -8.9285 16
723 2 0.96624 -8.54814 -11.9573 13
724 2 -15.8913 -5.67249 1.87985 11
725 2 11.4073 11.1436 2.14223 15
726 2 -5.75576 9.3669 2.9973 15
727 2 -6.02336 -8.26045 -6.7684 17
728 2 -4.7207 12.3757 3.67481 16
729 2 5.55645 -8.91601 7.77401 19
730 2 9.10578 -2.70145 1.751 19
731 2 -11.7414 2.91737 -0.401432 18
732 2 9.9851 -9.3112 -4.22532 18
733 2 7.69401 -11.5861 -3.94735 20
734 2 8.21864 9.49513 2.01898 18
735 2 4.52834 -12.4564 2.25558 20
736 2 12.1621 -4.51486 6.17597 16
737 2 -5.25352 -0.49343 13.2795 14
738 2 13.2851 -6.47362 -1.7927 16
739 2 1.22864 8.51812 5.60876 21
740 2 10.0953 7.24623 12.6536 10
741 2 -8.43062 8.69231 8.30961 12
742 2 4.57484 9.80639 2.99349 17
743 2 14.0342 -6.8794 0.673367 11
744 2 4.37082 4.54892 -3.97513 23
745 2 -12.3679 -2.37235 -11.8903 12
746 2 -5.42879 4.17233 12.1228 16
747 2 5.87318 0.495624 -9.39131 19
748 2 -8.26173 -0.5705 -5.20402 18
749 2 -15.4121 0.292623 5.99408 11
750 2 -8.01392 -7.78192 -0.176274 17
751 2 15.1477 -1.77851 1.0484 15
752 2 1.22524 -9.08861 7.05379 18
753 2 -2.40767 -1.58799 13.8551 10
754 2 10.3841 -2.06768 -12.1239 11
755 2 2.76024 1.82685 14.6251 13
756 2 0.0101958 7.38583 10.0804 18
757 2 -9.03046 2.26159 3.62566 19
758 2 2.6454 -8.28936 -6.14374 18
759 2 12.9133 -1.96033 -4.36085 21
760 2 -7.92235 11.4598 3.8319 19
761 2 -1.41922 -11.4962 -1.22259 21
762 2 9.76256 -6.61448 -6.27707 22
763 2 4.01813 7.57546 6.15382 17
764 2 7.25457 -8.0083 -4.64202 19
765 2 8.02688 -3.71456 7.98943 15
766 2 -3.41094 -5.51783 3.93496 20
767 2 11.7114 -1.45702 2.0089 17
768 2 -8.92607 -9.11399 5.16877 17
769 2 10.2088 7.99034 -11.1995 8
770 2 0.710502 -8.37468 4.35056 20
771 2 13.4261 -6.53368 -6.09403 12
772 2 -0.308333 -16.3441 -2.52411 10
773 2 10.4315 -5.06677 -0.0610594 19
774 2 -8.88207 14.0283 2.52818 13
775 2 12.6293 0.394932 -6.96841 17
776 2 -4.88445 -3.20001 -6.68217 19
777 2 -7.68094 -6.24741 3.21214 23
778 2 -5.15995 -8.75726 -1.33395 22
779 2 -6.99896 -9.32481 -3.44569 19
780 2 -2.99149 10.1849 1.97808 18
781 2 -10.4587 10.9624 3.2438 11
782 2 3.6911 2.55197 -9.13305 22
783 2 9.45975 5.08867 -1.66995 21
784 2 4.81891 5.12946 -10.4766 16
785 2 -6.48851 6.06554 13.5302 8
786 2 -3.53633 1.41069 -17.8205 11
787 2 -12.6323 5.54868 1.70462 15
788 2 -2.51872 3.77111 11.6748 15
789 2 -11.7798 4.84336 4.48951 15
790 2 9.30552 12.7355 4.15129 13
791 2 11.4175 2.20136 -5.98376 20
792 2 11.2737 -8.79052 -1.41366 15
793 2 -12.0036 -0.111136 10.6931 11
794 2 9.57393 3.17843 1.20813 18
795 2 0.995109 10.488 2.82081 20
796 2 -5.42743 10.6654 -7.93908 9
797 2 -4.93281 5.53388 6.1454 17
798 2 10.9047 -5.38969 11.0213 11
799 2 -10.7872 -8.66682 -8.47969 12
800 2 5.80194 5.58483 -13.8051 13
801 2 13.7628 9.03166 -0.285046 13
802 2 -12.8013 -5.6988 4.88597 17
803 2 -0.574792 9.14335 -0.0864632 19
804 2 -6.5505 13.4163 -6.15953 10
805 2 1.947 9.9683 -4.85987 17
806 2 11.2604 0.956092 11.7593 12
807 2 2.31209 7.48179 8.63596 18
808 2 12.5889 -8.23921 -4.34065 14
809 2 -1.7751 1.03131 13.2447 15
810 2 4.59398 -4.58087 8.78441 15
811 2 -15.3867 0.44462 -1.48774 12
812 2 -5.06556 -10.9488 -11.2349 9
813 2 6.74397 -12.5379 -6.5753 14
814 2 4.29485 0.44032 -11.6365 20
815 2 14.8744 3.06435 -0.301375 16
816 2 -4.40211 1.62925 15.0194 10
817 2 6.0537 5.12696 -8.15703 19
818 2 -7.52696 -9.53467 10.2667 11
819 2 -1.53977 -0.866351 -14.2772 20
820 2 1.86175 -8.40658 -1.55224 23
821 2 -1.05426 -5.50055 -6.39053 22
822 2 5.24611 -14.4017 -0.362717 14
823 2 12.2329 8.31268 -5.63581 12
824 2 -3.90501 5.70619 -13.6543 19
825 2 -3.43093 14.2332 5.89999 11
826 2 -8.88079 -2.70016 -0.418958 19
827 2 -7.77679 1.6679 -10.9932 17
828 2 3.16928 9.207 -7.84826 19
829 2 0.913119 11.714 -0.761556 18
830 2 -8.6255 -15.0715 -0.722003 8
831 2 14.8989 3.51239 3.23248 15
832 2 0.515317 3.22417 12.6892 20
833 2 -8.45299 -15.2656 -4.65141 11
834 2 3.89868 -13.2542 -4.4099 16
835 2 0.816216 4.01227 16.0869 11
836 2 3.09623 12.4101 8.14584 14
837 2 15.5681 -0.520733 -6.73167 13
838 2 5.39395 4.16196 12.9776 15
839 2 9.95805 10.3362 -6.79169 11
840 2 -12.7407 -1.97013 6.95175 11
841 2 8.18813 -3.63695 -1.68547 17
842 2 4.85511 15.6704 3.39266 11
843 2 7.35345 6.72273 3.75824 18
844 2 -5.33387 6.63607 -16.1223 8
845 2 5.31184 -7.59264 10.0694 14
846 2 -10.524 15.0555 0.0310156 11
847 2 -1.63309 -10.6919 6.74554 18
848 2 8.79959 -8.87311 7.13436 18
849 2 -10.5469 -12.991 -6.30951 12
850 2 -3.37461 8.59372 -8.72919 16
851 2 -8.15062 -10.0641 -9.52766 12
852 2 -5.15624 -10.9315 -4.56856 19
853 2 -1.4492 1.42864 -12.404 18
854 2 -0.0413108 -11.6707 -10.4187 12
855 2 9.37863 10.6899 8.82246 16
856 2 -11.9371 -5.34905 -2.54986 22
857 2 -15.3912 2.39564 4.51211 13
858 2 10.5416 -1.78454 6.47876 16
859 2 -15.2956 5.59181 5.58751 9
860 2 -2.69531 -12.896 -3.86041 19
861 2 -3.71652 7.41305 14.5444 11
862 2 1.28963 0.776722 -9.71085 23
863 2 -7.43084 -2.2481 -14.3833 11
864 2 6.91799 8.12636 -12.0593 13
865 2 16.6313 -1.77944 -1.96358 10
866 2 -6.29751 -5.44499 -8.9446 20
867 2 -11.9786 5.07545 -2.81027 14
868 2 -9.96487 11.6643 -0.271585 17
869 2 -1.01261 -1.48076 10.7255 20
870 2 -1.97813 -6.46254 -3.62143 20
871 2 2.76293 -5.58453 -7.21041 21