ITEM: TIMESTEP
3000
ITEM: NUMBER OF ATOMS
500
ITEM: BOX BOUNDS pp pp pp
-30.0 30.0
-30.0 30.0
-30.0 30.0
ITEM: ATOMS id type x y z Coordination
1 1 -5.50896 0.0815469 -5.87066 17
2 1 7.72148 -2.28522 4.1627 20
3 1 -2.57373 5.98556 7.5131 10
4 1 6.61016 0.351124 5.87109 22
5 1 -7.56454 -1.04629 1.11406 19
6 1 -3.07054 0.631897 -7.81469 15
7 1 0.338156 -1.61545 7.72086 21
8 1 5.16207 -0.801671 -5.10803 22
9 1 -9.566 0.188569 -1.44059 18
10 1 2.99603 -0.482491 -8.18378 17
11 1 3.59445 -6.26505 -6.57203 10
12 1 3.86739 -1.21927 7.08445 24
13 1 0.953587 5.837 -5.19757 17
14 1 -0.626947 5.4314 4.1456 21
15 1 3.85516 5.96569 8.77865 15
16 1 -8.00938 -3.098 2.7778 15
17 1 -11.0358 -5.08718 0.703205 8
18 1 9.10882 -3.06423 -6.19753 12
19 1 5.97662 1.62694 8.94103 13
20 1 -7.76113 -6.22667 4.09441 8
21 1 -5.36409 -5.52264 -7.53518 17
22 1 7.9772 0.856345 -5.3613 18
23 1 5.46882 -1.3326 -9.89512 9
24 1 6.60151 -7.04566 2.99954 14
25 1 -5.1768 7.9909 4.80402 13
26 1 3.28607 1.45082 5.22847 21
27 1 0.605213 8.54293 2.63293 16
28 1 -2.83385 -5.36008 -9.59589 10
29 1 -2.73384 1.44089 6.88273 16
30 1 5.44176 -3.9352 5.18617 23
31 1 -6.82557 7.32945 1.86322 16
32 1 -6.42176 4.11977 3.07123 19
33 1 2.71985 6.6447 -7.73217 12
34 1 7.74767 5.12108 -0.425358 13
35 1 -1.91465 6.4555 -4.12901 15
36 1 0.681244 -6.14428 -2.05273 23
37 1 -8.63476 2.55494 -8.62442 9
38 1 -5.74524 9.27029 -1.01402 8
39 1 1.68552 4.46981 -0.655288 21
40 1 -9.24722 1.82941 1.03502 20
41 1 3.70733 8.55678 7.22973 14
42 1 -5.71048 3.12894 -8.0 14
43 1 -6.34731 -7.17199 6.99987 9
44 1 -3.22583 0.132733 -3.23016 22
45 1 3.88412 -5.79515 -2.72194 15
46 1 -9.35715 -0.118398 3.75662 17
47 1 -10.3213 -1.8136 -4.51768 11
48 1 -1.02735 -10.2979 3.52452 13
49 1 6.365 3.98347 -5.85079 18
50 1 -5.11567 -2.83226 2.28637 21
51 1 -8.76446 -6.16986 -7.22808 10
52 1 1.60198 3.27349 -7.98125 16
53 1 -4.11161 1.92501 3.77526 18
54 1 4.94088 -2.45517 -2.50457 22
55 1 0.223467 9.6981 -1.55363 7
56 1 -12.1647 1.52732 2.74976 8
57 1 0.894251 9.21949 5.81063 12
58 1 2.85113 0.517538 9.43057 14
59 1 2.97481 -8.8589 -0.942922 12
60 1 7.74193 -0.661646 -7.69649 13
61 1 -5.49841 -8.73227 1.48038 15
62 1 -2.09315 -10.4342 0.144162 16
63 1 5.1334 -2.29904 9.46019 10
64 1 1.3272 -6.10731 6.64404 20
65 1 5.66119 8.0397 0.344093 12
66 1 -7.28574 -8.88589 3.87675 9
67 1 -3.97201 -10.5495 2.61275 12
68 1 -5.32811 -6.70349 -1.38326 18
69 1 -0.124011 -4.10553 4.31283 20
70 1 -4.4235 -5.42262 -4.608 18
71 1 5.02813 7.07496 -6.05389 12
72 1 2.99164 -3.90998 -0.655561 22
73 1 -2.95513 -4.98655 4.6009 21
74 1 -10.2852 0.854108 6.30087 8
75 1 3.91752 -9.00986 2.39849 14
76 1 -4.31854 -5.68 1.22069 19
77 1 -0.55166 1.53967 4.67582 20
78 1 -10.4978 -1.89625 1.41336 13
79 1 -4.61455 9.88054 2.43236 9
80 1 -8.20255 6.19849 4.61859 12
81 1 -2.34589 8.46338 6.79915 10
82 1 -7.2446 -3.26909 -5.68472 20
83 1 4.63483 -1.11259 3.91263 20
84 1 -6.31838 0.248488 -3.03567 19
85 1 -6.66014 -2.73834 -8.72423 8
86 1 7.52662 -1.22295 8.82155 10
87 1 -7.09398 2.71143 -0.657829 19
88 1 -2.88101 -2.86399 7.12988 19
89 1 -5.87346 0.466168 -9.73148 10
90 1 -12.539 -3.1958 -2.09781 11
91 1 -4.96606 -10.0862 -0.81591 12
92 1 -6.00721 5.23955 6.61209 13
93 1 2.25177 3.7086 4.74768 20
94 1 -5.84061 6.00215 -0.506564 18
95 1 -0.729063 -7.95617 -4.34559 14
96 1 -2.73783 9.57516 0.716827 10
97 1 4.7506 2.76597 -2.48914 19
98 1 -12.1411 -0.503662 -2.85577 9
99 1 -9.66325 3.05546 -2.79028 17
100 1 -3.65735 -8.45785 -6.03904 13
101 1 4.02954 -6.84294 5.19387 17
102 1 -7.85554 4.63475 -5.65379 12
103 1 -4.84799 -0.417098 7.81617 14
104 1 -8.7604 3.86102 7.4114 8
105 1 -1.80771 -5.97638 -6.76492 18
106 1 -1.03272 -4.77359 7.47843 18
107 1 0.0432443 -6.85714 9.27453 8
108 1 2.51005 -7.87481 -3.73971 11
109 1 6.59799 2.02603 -0.0965513 19
110 1 -6.43716 1.2309 2.36371 16
111 1 1.28065 -1.55063 -5.69448 23
112 1 -0.759705 5.83928 1.05604 16
113 1 6.80849 -6.04581 6.33263 13
114 1 -9.88832 -7.42876 -4.88579 9
115 1 -5.96112 -3.84425 5.353 15
116 1 9.09989 2.35223 7.94339 11
117 1 10.0142 2.53244 -0.925158 11
118 1 -0.344642 5.8876 -9.15752 8
119 1 -0.454287 7.78928 -7.05581 9
120 1 2.15307 7.76604 -0.281374 16
121 1 4.98705 4.51047 -8.508 11
122 1 1.59948 -7.75542 3.82042 19
123 1 4.35243 3.0567 2.14769 21
124 1 6.65457 -4.15694 -1.07302 17
125 1 0.591119 -9.27941 1.17255 17
126 1 -8.35021 1.73311 -5.66037 16
127 1 1.90823 6.50409 6.02819 20
128 1 11.2147 -2.66833 -3.36777 9
129 1 2.16336 0.923086 -5.6595 19
130 1 -3.2726 5.82471 -7.51203 13
131 1 3.89286 -3.73731 -5.04005 19
132 1 0.17821 -5.842 1.54144 18
133 1 -6.06914 -3.71603 8.17517 10
134 1 0.12932 -9.7623 -2.17298 16
135 1 0.768079 -5.95538 -8.84123 9
136 1 2.40442 5.66532 2.17748 25
137 1 3.49127 -5.46398 2.51402 20
138 1 6.49772 0.474021 -2.37423 19
139 1 -8.46974 -2.5439 -2.31882 21
140 1 -7.0591 -8.82765 -6.85772 8
141 1 0.597266 -0.845658 10.5146 12
142 1 -1.1767 0.774607 8.72912 14
143 1 1.71762 -2.26882 -10.2428 8
144 1 -11.4911 2.39178 -0.361515 13
145 1 4.7099 5.54003 -0.174796 21
146 1 10.762 -0.641377 -5.97425 11
147 1 -0.485107 1.85949 -5.97083 21
148 1 -9.34094 2.92698 4.47772 20
149 1 1.84047 -3.92748 9.02867 15
150 1 8.69038 2.28199 5.20751 16
151 1 -8.54029 -0.955776 -8.06465 11
152 1 8.88425 -4.92098 5.2053 12
153 1 -2.13685 -7.4546 -0.773712 23
154 1 3.39693 3.50206 7.72875 15
155 1 1.42603 -9.1606 6.61657 8
156 1 2.88933 -3.63262 5.07517 21
157 1 6.23293 1.18781 3.26772 22
158 1 8.1069 3.10453 2.1136 14
159 1 6.95844 -1.65211 0.338651 21
160 1 8.81627 -0.0403826 2.79861 19
161 1 -1.55805 -5.33565 -3.13271 17
162 1 7.13393 4.72051 8.78401 14
163 1 -5.81863 2.81668 -3.68038 22
164 1 -3.41379 3.66431 -6.06788 17
165 1 -1.78559 -1.50872 4.70526 22
166 1 -3.44771 -3.83946 -0.761558 20
167 1 -5.73174 -8.41661 -3.59999 14
168 1 5.62248 3.76368 5.50736 19
169 1 -3.31423 4.42352 5.35258 16
170 1 -8.53114 4.83718 1.25727 19
171 1 7.98862 3.50253 -3.21402 18
172 1 0.984939 1.19114 7.24356 19
173 1 -5.31536 -1.14158 -0.849512 21
174 1 -0.0256334 0.120205 -8.46562 18
175 1 0.581909 6.94756 8.16455 12
176 1 7.03122 -3.83808 -4.36833 14
177 1 5.57681 6.79766 5.99798 16
178 1 4.82755 -3.14253 1.70606 20
179 1 -3.8706 5.10778 1.88988 15
180 1 2.85199 -3.82503 -7.96338 15
181 1 4.10424 -5.10804 7.85528 15
182 1 2.98431 3.73033 -5.47657 22
183 1 -6.0809 2.18114 6.22044 21
184 1 10.551 -2.51644 3.17502 11
185 1 0.288718 5.85367 -2.36018 17
186 1 10.0386 2.71268 -5.00649 10
187 1 -3.136 -0.969467 9.91333 10
188 1 -3.53985 -6.36461 7.69595 13
189 1 -10.6915 5.52423 -1.45926 11
190 1 8.12815 5.52266 5.9014 12
191 1 -7.7316 -6.57121 0.880829 16
192 1 10.1276 -3.73667 -0.489018 12
193 1 -6.60199 -4.12144 -0.495208 20
194 1 9.69391 -0.822853 5.96055 16
195 1 7.81314 -4.8002 1.90645 15
196 1 3.46875 8.08486 3.53003 14
197 1 -10.4399 -4.2903 -4.60355 15
198 1 -4.48035 5.41168 -4.00286 17
199 1 6.58914 6.66428 -3.49451 12
200 1 -5.04997 -3.01362 -3.14556 20
201 1 -0.651674 -3.0724 -8.25977 17
202 1 -2.82258 -10.067 -3.24034 13
203 1 -2.1653 -7.89605 2.70496 21
204 1 8.51102 -1.97459 -2.74941 22
205 1 -13.3827 -0.377839 -0.0282572 10
206 1 -1.73984 3.00389 -8.97285 13
207 1 -7.37851 -5.33762 -3.46377 17
208 1 8.06552 -3.63959 7.41528 13
209 1 -3.75689 -2.797 -7.35848 19
210 1 -8.54614 7.59813 -0.90133 10
211 1 -7.57475 -1.00097 6.47292 14
212 1 -1.56201 -1.09236 -5.65044 21
213 1 5.61238 5.89878 2.93733 16
214 1 10.4115 -0.861249 -0.0498466 13
215 1 -0.944634 -7.60414 5.28001 20
216 1 5.21712 1.31415 -7.26589 17
217 1 3.55994 5.57463 -3.69393 19
218 1 6.66738 7.45636 8.98589 9
219 1 3.42065 8.62686 -2.67809 8
220 1 10.2134 0.515692 -2.84998 16
221 1 -4.78017 -0.930489 5.03238 21
222 1 5.98702 -3.64764 -7.24321 15
223 1 0.234159 -4.29907 -5.30183 21
224 1 -2.08567 8.0823 4.0996 14
225 1 -3.08655 4.84198 -1.2165 17
226 1 -4.24258 -8.66759 4.73505 15
227 1 5.57164 -6.87917 -0.0237154 14
228 1 -10.2027 -5.66939 -1.61451 12
229 1 -7.6984 5.46106 -3.0131 17
230 2 -12.5065 0.123268 1.58298 12
231 2 8.48318 1.70965 3.40615 15
232 2 1.06795 -2.27157 9.48893 14
233 2 -3.38946 -1.10016 -6.74116 16
234 2 -12.0799 0.940537 -1.43211 13
235 2 -2.51313 -6.88821 4.3195 16
236 2 4.20004 2.09973 8.94788 16
237 2 6.64448 -0.60112 3.9536 22
238 2 -3.46017 8.20397 5.24786 14
239 2 -4.10898 4.4263 3.66884 18
240 2 5.536 -2.67867 -5.01377 16
241 2 -5.02356 0.870259 -7.66445 17
242 2 -1.15363 -5.73343 -8.60631 12
243 2 0.118067 -4.11102 -3.3735 19
244 2 -3.14572 -5.85231 -0.618194 19
245 2 -5.74961 8.75634 3.14796 13
246 2 9.07156 -3.78179 3.57419 17
247 2 6.64823 5.30096 4.46258 15
248 2 -0.832361 8.59091 5.5071 15
249 2 7.48579 6.47745 7.37427 11
250 2 6.34253 5.90831 -5.23178 13
251 2 6.43993 0.0425669 -6.57532 17
252 2 -8.88882 0.817328 -7.23278 11
253 2 0.861956 -7.77722 7.72572 12
254 2 -9.09549 -0.816503 0.0497575 19
255 2 3.38136 -6.23768 -4.63302 13
256 2 -2.84081 -9.67217 3.56828 15
257 2 8.19403 0.0170361 -3.36326 21
258 2 2.26783 5.54391 7.90806 13
259 2 4.06514 -0.749445 9.09046 16
260 2 -7.51498 -7.99517 5.55166 9
261 2 4.19844 -2.31864 5.47807 21
262 2 -0.889786 -10.436 1.51504 14
263 2 1.26748 2.89202 -5.79355 19
264 2 -1.07222 -7.04011 -2.39765 18
265 2 -7.42959 -7.47693 2.52077 12
266 2 -5.54697 -8.18589 -0.376398 15
267 2 -5.53577 -6.52448 -3.31617 17
268 2 -4.49921 9.78215 0.34692 9
269 2 3.87695 0.151833 -6.19468 19
270 2 8.57309 3.10106 0.240991 14
271 2 4.73744 6.36653 -7.8049 10
272 2 -6.73093 1.28149 -4.65273 17
273 2 6.18144 2.37631 1.74337 18
274 2 -1.35021 9.61482 -0.506693 8
275 2 -6.22172 6.47511 5.13338 14
276 2 -0.781118 6.97321 2.79459 17
277 2 1.77395 8.75097 -1.79282 9
278 2 4.58342 7.34888 -3.41315 14
279 2 -1.19298 7.21983 8.03695 11
280 2 -4.65948 -0.110993 3.31403 18
281 2 0.805226 0.468459 9.08012 13
282 2 0.976039 -4.10011 -9.29672 11
283 2 0.950814 -8.81769 -3.64141 13
284 2 -0.620921 -2.77604 -6.14643 21
285 2 -9.4269 -5.88548 -3.59975 16
286 2 8.35717 -4.17474 -0.0072645 16
287 2 4.00631 3.00147 4.24309 21
288 2 -1.65873 0.946241 -9.00899 12
289 2 0.479545 -1.61861 -8.91017 15
290 2 2.6281 1.70627 -3.6791 21
291 2 -7.13542 -6.7608 -7.49976 11
292 2 2.23497 -6.40916 -7.80022 9
293 2 6.62866 -2.08298 -8.38935 14
294 2 -7.24607 -4.4111 4.11991 12
295 2 -2.64891 -3.72431 -8.52691 13
296 2 3.08802 6.11431 -5.78541 17
297 2 -2.3826 -8.84085 -4.78356 15
298 2 1.58808 1.14143 -8.08391 18
299 2 -1.62699 5.53748 5.73766 15
300 2 -6.03159 -5.81709 0.305245 17
301 2 -9.27227 -1.89872 3.12304 12
302 2 -7.92744 5.93165 2.75285 13
303 2 -5.50516 -5.3134 7.58345 13
304 2 -3.72354 -3.79658 1.46843 20
305 2 -13.3731 -1.57048 -1.50726 9
306 2 5.04774 -5.90873 6.46389 17
307 2 10.2632 -2.14188 -1.77638 14
308 2 0.343259 0.0156083 -5.86944 21
309 2 3.64964 7.4335 5.70868 16
310 2 1.69609 7.98927 7.19449 11
311 2 -1.38981 -0.86887 10.3243 9
312 2 -8.29404 0.581908 2.20235 20
313 2 0.610365 2.9487 3.98392 20
314 2 -7.77788 -2.51507 -7.31906 13
315 2 2.09229 -3.1667 -6.00654 22
316 2 10.5824 0.741193 -0.932319 11
317 2 -11.6428 -3.30894 1.38363 11
318 2 -3.98684 3.22802 -4.29444 20
319 2 4.82906 0.222633 -8.85834 11
320 2 -7.47277 3.08572 1.38918 17
321 2 -0.332319 -5.77247 5.27689 22
322 2 0.868237 4.64549 1.35683 23
323 2 5.48428 -5.72165 -1.60418 14
324 2 1.39178 -9.64142 -0.636494 15
325 2 -6.8024 7.7636 -0.378601 14
326 2 1.57588 -5.97362 2.98447 22
327 2 2.00179 -9.05309 2.38313 15
328 2 5.56803 5.75562 9.34122 12
329 2 -1.29639 5.21656 -3.04182 17
330 2 -3.01324 -4.72481 6.62199 19
331 2 -3.96323 -7.50479 2.01961 20
332 2 -3.18673 -1.14038 5.94386 22
333 2 0.962428 6.7969 -8.18811 11
334 2 9.29056 -1.53324 -7.0895 11
335 2 1.94866 -0.810641 6.93385 21
336 2 -8.81079 -3.08142 -4.32902 14
337 2 6.54582 6.3715 0.501709 11
338 2 4.79745 5.04371 6.9951 20
339 2 7.48605 -3.87497 -6.39715 11
340 2 -9.24536 -6.10263 0.0196816 10
341 2 5.21212 8.02059 8.07069 11
342 2 -5.00412 -3.06102 -1.20453 24
343 2 6.88823 0.398206 7.82001 17
344 2 -0.0609962 3.91532 -8.51071 15
345 2 6.71678 -3.12604 1.95776 19
346 2 2.23784 2.59266 6.43564 20
347 2 4.12081 -4.8754 4.15778 24
348 2 -6.17944 2.06351 4.09081 20
349 2 -11.7084 -2.67842 -3.58084 11
350 2 -9.1718 6.40108 -2.34531 13
351 2 -7.9311 3.32594 -7.04734 11
352 2 -5.97293 -0.209436 0.863114 21
353 2 -1.96394 -6.31017 8.79941 13
354 2 5.24278 7.68347 2.5813 12
355 2 -8.74802 -8.16725 -6.08384 8
356 2 10.9569 -0.810694 -4.16592 14
357 2 -9.63998 5.75289 0.0361133 16
358 2 7.71566 -6.48919 4.61135 13
359 2 -4.47231 -7.83267 6.66242 11
360 2 -3.91966 -6.30225 -6.37181 18
361 2 1.50904 5.03395 -3.49165 19
362 2 -8.85803 4.40736 5.44004 13
363 2 4.50424 4.88811 1.73502 21
364 2 0.654184 -5.20341 8.57083 13
365 2 -10.5213 1.55323 4.20285 12
366 2 -4.59212 5.63679 -2.04658 18
367 2 -0.755127 1.14547 6.80167 17
368 2 -10.1064 -0.666339 -3.05499 16
369 2 4.16099 7.46681 -0.690866 16
370 2 -4.26533 5.25197 6.96976 13
371 2 -1.02591 -2.78097 7.44975 22
372 2 -5.45418 -3.64605 -7.56104 14
373 2 -2.10764 2.54208 -6.98997 20
374 2 -3.87025 -10.6138 0.675272 14
375 2 -5.69506 1.8485 -2.02034 18
376 2 7.20973 -3.85701 5.46658 18
377 2 1.69291 5.57623 3.94435 18
378 2 9.81206 2.59678 -3.02983 14
379 2 2.74606 -8.20403 5.55938 15
380 2 6.54497 2.45418 -1.91406 17
381 2 8.30428 3.64384 6.70813 15
382 2 -8.77356 2.0656 -1.20623 22
383 2 -6.12482 0.331676 6.72625 16
384 2 -9.83982 -5.15181 -6.13573 11
385 2 -0.930318 -7.93935 0.961821 22
386 2 -2.52965 4.52319 0.819439 18
387 2 -9.37198 2.19679 7.26729 10
388 2 -6.87793 -2.96998 1.31414 20
389 2 -1.67184 -9.79412 -1.51406 15
390 2 4.76651 0.208179 6.21595 20
391 2 -6.22718 4.69936 -4.30863 16
392 2 -1.69463 6.71625 -7.87589 12
393 2 4.40073 3.99419 -4.17994 20
394 2 -0.908208 -5.98543 -5.10449 16
395 2 8.51848 -1.88243 6.95095 14
396 2 7.50797 2.93406 9.27348 7
397 2 -0.502121 7.13547 -5.33349 11
398 2 -4.83208 -0.930361 -3.91096 18
399 2 -4.54648 -6.13039 -9.20682 9
400 2 -6.00747 -4.02665 -4.49384 17
401 2 -2.80406 9.32903 2.71542 11
402 2 -3.26526 5.99872 -5.43565 14
403 2 -8.75014 3.54435 -4.1859 14
404 2 -6.90262 3.63564 6.98716 13
405 2 3.30227 4.33572 -7.96217 16
406 2 3.19642 -2.20911 -9.05512 14
407 2 -10.8681 3.81782 -1.66591 14
408 2 -4.31133 4.23304 -7.66513 14
409 2 3.44843 -3.91095 -2.9191 20
410 2 3.86003 -3.81187 9.34413 10
411 2 -6.90215 -2.80579 6.931 11
412 2 -3.17533 -4.12989 -3.76556 21
413 2 -8.94506 -0.177371 5.48659 12
414 2 8.57847 -5.41399 7.17898 10
415 2 -10.9506 2.3695 1.53122 17
416 2 -2.94895 0.286304 8.36415 15
417 2 0.180324 -8.96517 4.63628 16
418 2 9.435 -1.00597 4.15089 15
419 2 2.72438 -7.24911 -2.1705 15
420 2 -5.38186 6.04281 1.42829 17
421 2 -7.12884 -0.974536 -9.66034 9
422 2 -5.06172 -2.74804 4.19205 17
423 2 2.69872 -4.79213 6.64602 18
424 2 3.79568 4.00983 -1.04748 20
425 2 5.59322 3.11148 -7.38915 13
426 2 11.1207 -2.2688 1.33739 10
427 2 -7.11824 4.56029 -1.27471 20
428 2 6.75106 -3.04383 8.77649 13
429 2 4.84111 -0.440077 -3.0345 21
430 2 -8.16149 -4.514 -1.94277 19
431 2 4.48081 -4.60071 -6.78511 12
432 2 6.42059 -6.12368 1.44864 14
433 2 8.54845 -0.823689 0.967137 20
434 2 5.14946 -2.82449 -0.442507 18
435 2 -1.99537 2.19949 3.53356 21
436 2 7.81383 2.76619 -5.11474 16
437 2 -11.7633 -4.65523 -1.34004 10
438 2 6.71154 2.03186 4.99808 20
439 2 -7.11415 -1.07772 -1.88819 20
440 2 4.84144 -7.73765 3.5918 15
441 2 0.716886 6.33097 -0.420201 18
442 2 6.28132 0.0757064 -0.428013 19
443 2 7.47638 5.3707 -2.36418 14
444 2 -2.01912 -3.29188 4.06295 20
445 2 0.647295 -5.59832 -0.263208 20
446 2 9.48394 -3.1924 -4.20402 12
447 2 4.47617 -8.42834 0.407353 11
448 2 -5.71949 -8.79275 -5.58699 12
449 2 2.20984 7.87844 1.62619 16
450 2 1.7432 8.85296 4.21047 13
451 2 -5.62927 -9.71237 3.22376 11
452 2 -4.49073 -2.14147 8.66467 14
453 2 -4.09351 2.35015 5.94078 18
454 2 9.60608 1.05733 6.37281 12
455 2 9.98422 0.9865 -5.73788 11
456 2 -6.84473 2.16392 -9.29451 10
457 2 -4.54366 -9.57667 -2.51727 13
458 2 6.80489 -2.99315 -2.60046 19
459 1 -1.77936 -2.75571 -3.04185 22
460 2 -1.66528 -2.86936 -1.02117 21
461 2 -1.56134 -0.905749 -3.65941 19
462 1 -2.03689 -0.944836 -0.484016 23
463 1 -0.178269 -3.72977 -0.215982 22
464 1 -1.97824 -2.92424 2.018 21
465 2 -2.27131 -0.939963 1.49912 25
466 2 -0.189876 -3.85381 1.92849 18
467 1 0.0807199 0.273591 -3.23068 23
468 1 -1.97607 3.24542 -3.51394 22
469 2 -3.58789 -0.0851121 -1.37374 21
470 2 -0.571744 0.0686899 -1.36553 25
471 2 -2.43426 2.96015 -1.66174 20
472 2 -0.482937 2.10756 -3.91764 21
473 1 -4.13249 1.78383 -0.90819 19
474 1 -4.0325 0.0505538 1.47828 20
475 1 -0.810981 1.90755 -0.697276 24
476 1 -0.560575 -0.0928849 2.1723 25
477 1 -2.11506 2.75245 1.74402 20
478 2 -3.72605 2.02914 1.02185 24
479 2 -0.314897 -0.400038 4.26481 21
480 2 -0.451183 1.66474 1.19685 23
481 1 1.58507 -2.85466 -2.88925 23
482 2 1.41578 -2.7912 -0.848745 22
483 2 1.49858 -1.09007 -3.51559 24
484 1 1.06509 -0.849474 -0.510229 22
485 1 1.49833 -2.96963 2.13071 23
486 1 1.42632 -0.909841 4.92143 22
487 1 4.47985 -0.768092 0.0488192 22
488 2 1.30646 -2.73676 4.18587 23
489 2 1.08738 -1.00911 1.53488 23
490 2 3.08653 -3.83094 1.34956 19
491 2 4.24701 -1.25546 1.90942 18
492 1 3.05804 0.0111898 -2.77364 22
493 1 1.17685 3.02811 -3.29868 23
494 2 2.86585 0.00520482 -0.77939 22
495 2 0.880357 2.82996 -1.24779 22
496 1 2.4064 1.91213 -0.718214 20
497 1 2.76292 0.0248808 2.02636 22
498 1 0.884613 2.77946 2.08715 22
499 2 2.84121 -0.0475619 4.05095 26
500 2 2.54794 2.08009 1.16382 23
