ITEM: TIMESTEP
5000
ITEM: NUMBER OF ATOMS
1000
ITEM: BOX BOUNDS pp pp pp
-30.0 30.0
-30.0 30.0
-30.0 30.0
ITEM: ATOMS id type x y z Coordination
1 1 -2.10488 -7.72056 -10.3519 15
2 1 7.23327 -9.39779 8.28429 11
3 1 -9.2103 8.57358 -1.98516 14
4 1 -10.0644 5.54508 -7.27402 12
5 1 0.36433 -7.54562 12.7926 15
6 1 -6.11175 0.171957 -13.7054 14
7 1 -3.84283 0.59343 -5.87421 21
8 1 -5.15229 -10.2255 0.212653 16
9 1 1.76274 0.425902 6.69079 19
10 1 2.18242 3.73273 8.55904 22
11 1 5.29758 -0.772784 3.6873 21
12 1 -1.11166 11.6362 -7.8538 13
13 1 2.37373 0.435205 14.3129 8
14 1 -8.63587 -1.15473 2.26071 17
15 1 -2.92559 -1.23288 -7.98017 21
16 1 -0.555797 -1.43531 7.29365 19
17 1 1.68551 -4.38301 -6.28639 19
18 1 0.975475 3.91903 14.4013 9
19 1 -3.57751 -11.0145 8.27084 10
20 1 -11.7124 1.54102 2.60343 17
21 1 -6.4855 1.6709 -1.19299 14
22 1 -2.71288 11.7709 -2.4385 20
23 1 2.78581 1.56151 -9.61993 21
24 1 4.31824 -4.65265 -11.7145 19
25 1 0.429923 -3.85623 13.7673 11
26 1 -9.23695 5.34593 0.198206 19
27 1 -0.739945 13.8096 -1.35058 13
28 1 0.366896 -11.6276 2.64407 10
29 1 6.4645 -6.56575 -2.84497 18
30 1 4.50706 1.23517 5.4037 15
31 1 -8.70906 11.3426 -4.04746 13
32 1 -0.324824 4.42924 -5.96177 18
33 1 2.84926 6.15491 4.10062 18
34 1 3.53888 7.00692 9.93643 19
35 1 -8.5861 -2.74047 4.90631 19
36 1 3.92243 -2.75419 13.0459 10
37 1 -11.5176 1.0761 -0.848027 13
38 1 13.062 0.824203 5.31816 11
39 1 8.44468 -2.39396 -4.33364 17
40 1 1.6105 3.4769 5.7908 19
41 1 -6.61391 -4.06146 2.50452 20
42 1 -4.69032 -3.39585 -9.10518 18
43 1 -7.71412 10.7261 -0.880708 15
44 1 -2.47941 9.17019 -7.56988 19
45 1 5.05241 1.67281 -7.63135 19
46 1 5.39356 -2.33882 -5.99819 21
47 1 6.58181 -8.54457 1.93636 22
48 1 5.84907 -9.5304 11.4222 9
49 1 -5.26715 7.14884 6.62544 19
50 1 -4.05453 -5.42087 11.3484 16
51 1 -11.3052 4.72674 6.27581 12
52 1 7.20644 -8.28669 -6.7081 12
53 1 6.61137 -1.75132 -12.4907 15
54 1 -0.857873 11.9132 1.23456 15
55 1 -9.42439 5.52229 -10.8438 10
56 1 1.76572 11.9155 -0.957769 15
57 1 -5.25322 -5.78161 8.26708 20
58 1 -1.91452 -3.35768 -9.95421 17
59 1 5.57851 -6.92106 -9.39079 18
60 1 -0.947429 4.44437 7.78861 20
61 1 -9.5261 -4.689 -2.71218 17
62 1 8.32747 -1.78958 2.18255 22
63 1 -9.38283 -7.28542 -0.770303 13
64 1 10.829 -9.8454 3.15287 10
65 1 -4.65219 5.98903 0.999825 16
66 1 3.21784 6.42374 -6.01442 16
67 1 9.76751 -9.60769 0.118505 12
68 1 -6.8227 -7.05096 1.28414 20
69 1 9.39699 6.89218 9.22515 11
70 1 5.63762 3.96806 0.441702 20
71 1 -5.29343 13.6202 -4.67079 14
72 1 -0.9423 -5.86095 -13.0555 11
73 1 -0.31165 7.44429 -5.52803 22
74 1 10.3094 3.11767 -6.04383 16
75 1 5.4696 1.87787 -11.8047 17
76 1 8.61436 -8.82872 5.09875 14
77 1 -5.33101 3.4911 -7.72046 18
78 1 2.77343 10.1608 -3.12684 22
79 1 9.27839 10.6722 -1.7346 12
80 1 -2.79148 11.5279 -5.14959 15
81 1 -6.44276 -3.15991 -14.9162 6
82 1 -12.6901 -3.76282 -5.28487 10
83 1 -4.7176 10.5411 7.73023 15
84 1 -1.57126 14.132 -4.55 15
85 1 2.08767 -4.57396 11.103 21
86 1 -11.9674 -6.22916 2.54647 13
87 1 -1.3683 -8.5514 6.8509 19
88 1 -0.039157 9.57336 -0.934965 20
89 1 9.46294 7.99471 -8.58015 9
90 1 -1.50139 -9.47719 10.871 13
91 1 -7.02336 4.92611 -2.22221 17
92 1 -1.04625 7.39411 9.68425 17
93 1 -2.25404 1.17683 -10.6411 21
94 1 -5.03586 -3.89496 5.58181 23
95 1 -8.03221 -7.51394 7.08165 16
96 1 -7.24004 -3.85345 -4.02697 19
97 1 5.23714 -9.58102 -2.47501 16
98 1 -3.32839 8.89704 5.3134 20
99 1 -9.07425 1.14819 4.15668 15
100 1 -7.1161 1.10529 -7.1165 21
101 1 0.721658 -10.2407 5.21709 16
102 1 5.48779 5.51402 -7.84558 21
103 1 3.41769 0.815239 10.1579 16
104 1 -5.52999 9.60128 -9.65665 11
105 1 -8.25087 -2.06058 -8.23568 19
106 1 -7.29703 13.6828 -2.04486 14
107 1 5.6168 3.01606 8.07948 17
108 1 -4.5948 12.0652 -7.51684 12
109 1 2.4185 6.19516 -9.40883 20
110 1 -8.79806 5.84813 8.56961 10
111 1 -7.32433 9.706 7.60545 13
112 1 -0.490123 -10.6705 -9.72532 13
113 1 3.53626 -7.0251 -1.63105 19
114 1 4.67085 10.626 -9.16626 11
115 1 -4.14584 9.27753 -1.36179 20
116 1 -9.31913 2.1404 0.997177 16
117 1 2.13678 6.86275 12.5704 12
118 1 11.5487 2.6729 -3.21159 16
119 1 4.17592 5.85944 7.42768 19
120 1 -9.7594 7.37242 3.51031 14
121 1 -12.1718 -6.20953 -2.99315 13
122 1 1.94985 -2.0891 8.91839 17
123 1 2.8415 -11.1635 -3.84322 13
124 1 -0.205908 -0.871184 -15.186 9
125 1 7.51502 0.24556 -6.62219 21
126 1 -12.9089 -4.29816 5.2298 12
127 1 -6.60995 -7.47397 -6.42417 17
128 1 -2.82494 -8.42757 3.82206 16
129 1 -0.876365 -6.72681 0.44431 20
130 1 -6.85299 -0.310441 -9.91381 21
131 1 -10.6298 1.63501 -7.75885 12
132 1 10.1756 1.42743 10.4135 11
133 1 4.44657 -5.05962 9.71244 18
134 1 1.95864 -4.16925 7.33916 18
135 1 7.45217 9.0171 0.674781 19
136 1 -6.16141 -6.82238 4.42282 18
137 1 1.22793 10.1594 1.84485 15
138 1 -4.1288 -4.16784 -12.2102 13
139 1 -4.95402 -9.2098 -10.779 9
140 1 -3.8625 -7.53453 1.37092 21
141 1 12.3671 3.47016 4.06152 18
142 1 -3.51612 -4.9143 -2.89228 19
143 1 -6.54197 -3.6138 10.7144 16
144 1 -3.04001 -10.5648 -1.793 17
145 1 -1.53324 -9.67416 0.933236 16
146 1 0.778534 -8.84723 -1.83363 19
147 1 -8.55646 2.26615 -12.1573 12
148 1 11.403 6.11474 6.17768 12
149 1 -5.49318 3.75195 -11.3496 17
150 1 -0.112292 6.8947 -11.2802 12
151 1 -2.78424 -3.80162 8.22411 21
152 1 1.84784 10.7135 4.53258 14
153 1 11.0005 2.57026 6.72703 17
154 1 -11.5904 1.98364 6.19482 15
155 1 -2.59588 -4.11171 13.6065 12
156 1 -8.64869 11.5711 5.42789 14
157 1 2.33233 -6.47253 -13.4171 11
158 1 3.7238 -10.9603 2.98562 17
159 1 7.25401 -3.3705 -9.56371 18
160 1 -3.89768 -5.09212 3.51426 22
161 1 -0.259677 1.48144 9.2261 20
162 1 -11.642 -1.6619 6.96084 14
163 1 6.46647 -11.12 -5.27888 10
164 1 -5.83642 10.266 4.61181 19
165 1 -6.60698 7.7371 3.82001 19
166 1 4.24373 -10.0583 8.70442 12
167 1 -1.87753 6.87269 6.8945 20
168 1 -6.78784 -4.71934 -7.16113 17
169 1 -3.29552 12.3756 3.72699 11
170 1 -6.21067 2.62281 -3.8801 20
171 1 -13.6684 2.82253 4.41181 10
172 1 -5.7587 -1.76167 -6.63588 22
173 1 -6.17147 12.532 3.02435 19
174 1 8.09859 -1.22055 9.23764 17
175 1 6.64239 -4.89379 7.2536 17
176 1 -1.08271 -5.41492 11.1639 19
177 1 1.6697 -10.4875 -7.04067 18
178 1 -4.37356 -1.31093 -11.4444 21
179 1 -11.5951 -1.79371 -3.25773 16
180 1 -3.18153 -7.36832 -1.79317 20
181 1 13.0955 4.98951 -4.16256 11
182 1 -5.52016 3.04926 -13.9961 8
183 1 -9.93799 8.49039 6.37733 11
184 1 -8.70549 13.267 1.14399 11
185 1 -5.77073 4.54881 7.48026 19
186 1 10.576 -0.108946 -5.47522 13
187 1 9.95035 2.11183 -8.80288 13
188 1 -4.20969 6.1584 -1.73252 18
189 1 1.46721 -8.2149 -4.60497 16
190 1 0.373743 7.82411 3.66174 20
191 1 -9.2222 2.8684 -5.47905 16
192 1 8.43555 -11.0413 -2.26253 9
193 1 10.617 0.152029 8.02632 15
194 1 -10.1175 -4.45281 -5.85699 14
195 1 -5.38059 -9.59438 3.45102 16
196 1 -3.67727 12.7323 0.449022 15
197 1 -8.43734 8.71233 -5.44645 14
198 1 -0.503077 -8.46783 -7.24921 20
199 1 5.54383 -9.16775 5.14939 19
200 1 -5.83924 -11.6519 -2.47722 11
201 1 -7.31331 6.53964 -8.67041 15
202 1 -2.8255 -11.294 5.04982 9
203 1 -5.41847 -1.93465 7.75684 18
204 1 -8.7016 5.39899 5.36966 15
205 1 0.214156 -6.05008 -9.54667 16
206 1 -1.14697 -3.91996 5.05415 21
207 1 -13.1617 -0.856275 4.43895 14
208 1 -0.627365 -5.8699 8.28069 17
209 1 -7.08445 -0.441965 12.3223 8
210 1 4.61085 -8.55455 -5.29849 19
211 1 2.90082 -13.2067 0.672744 9
212 1 4.40925 12.915 -3.08592 11
213 1 -7.67238 -6.67768 9.94914 10
214 1 9.52662 -3.51253 6.56968 17
215 1 7.52463 0.703754 0.0309411 17
216 1 -6.36186 2.01955 5.08305 15
217 1 2.82064 -1.7128 -7.65461 20
218 1 8.88234 -6.29195 7.22832 11
219 1 -3.56916 2.45104 10.5745 18
220 1 0.00133315 9.88924 -4.48715 21
221 1 7.02958 -3.89841 4.29573 16
222 1 -2.7697 -14.1389 -7.50303 6
223 1 3.34517 9.05561 7.62132 18
224 1 -6.65209 4.09571 10.5011 9
225 1 -3.57546 -7.86241 -7.74864 20
226 1 -9.35507 -7.35609 -3.95837 14
227 1 -6.73306 13.2932 6.40923 12
228 1 -6.22854 -10.6637 -8.12278 8
229 1 -7.45355 -4.04665 7.37873 21
230 1 8.03059 1.58833 6.23154 19
231 1 6.05215 4.57644 -2.14225 19
232 1 -0.876837 5.62828 -8.36694 19
233 1 -3.3159 6.98999 -10.0843 15
234 1 -2.01115 9.70124 8.78878 14
235 1 -13.8512 -3.48234 -1.73101 10
236 1 2.94883 12.0391 -6.33182 15
237 1 -5.48715 -6.12824 -9.682 13
238 1 1.66413 -3.10059 -13.1976 17
239 1 8.85969 8.76471 -4.81352 17
240 1 1.85513 6.48714 0.800408 16
241 1 2.45718 4.01313 -7.58403 21
242 1 3.20216 -7.89744 3.82034 20
243 1 -3.53602 5.5244 -12.7511 11
244 1 10.6635 8.37312 0.368311 17
245 1 6.88025 -5.56768 0.379225 18
246 1 0.948015 0.474747 -12.2911 23
247 1 4.0332 -7.59062 1.01781 13
248 1 2.24443 -10.3186 11.4061 13
249 1 -8.32076 3.22014 -8.80327 17
250 1 3.04234 3.1221 -13.3529 12
251 1 -14.0965 -0.165923 1.83503 10
252 1 10.3125 0.32863 -2.50466 17
253 1 -3.77292 8.74499 -4.72371 21
254 1 2.78719 -7.09323 -7.71639 18
255 1 4.25593 4.58746 -10.9984 20
256 1 8.53723 -2.43234 -7.19182 15
257 1 -10.1768 -2.7601 9.88847 10
258 1 -4.19288 14.7904 -1.97653 13
259 1 0.227795 8.45876 -8.59323 15
260 1 13.0817 6.25728 -0.40803 15
261 1 -0.159471 -10.8288 -3.91596 16
262 1 1.77256 -3.36979 -9.83162 18
263 1 5.81294 5.29689 2.77759 15
264 1 12.6711 -0.00856658 -0.859272 12
265 1 6.16046 -11.7071 0.0880613 13
266 1 -8.77693 2.81733 7.16677 17
267 1 -4.35691 -5.10945 -5.84264 22
268 1 -1.3256 0.252219 11.9533 15
269 1 5.43153 7.96503 -10.1025 13
270 1 -7.33407 11.5412 -6.94739 10
271 1 0.962448 15.2938 -4.27071 8
272 1 0.253235 4.80253 10.4257 21
273 1 3.01088 -10.4088 -0.73823 17
274 1 5.33109 -0.883823 -9.36111 21
275 1 -11.4424 -4.86329 -0.338759 16
276 1 -7.59297 5.5592 -5.51689 21
277 1 -10.763 -4.70367 6.86724 15
278 1 4.26553 7.46159 -2.32052 18
279 1 2.8359 -9.56743 -9.56549 15
280 1 7.24968 -3.72862 11.3425 12
281 1 7.00357 1.86789 -2.8201 20
282 1 -10.0959 7.8844 0.706345 12
283 1 9.23568 -5.85282 -4.75079 11
284 1 1.31867 9.7251 10.3226 11
285 1 -0.490426 2.85894 -12.7793 14
286 1 7.30554 4.96867 -10.5666 11
287 1 -2.76287 -3.21363 -14.5593 10
288 1 -5.03211 -9.47226 -4.37473 17
289 1 14.726 4.23533 1.75301 11
290 1 8.67985 -6.33081 -8.95137 9
291 1 5.12785 -9.85028 -8.66864 14
292 1 8.9318 11.5352 0.956441 10
293 1 -7.25701 4.73383 2.63054 15
294 1 11.2534 8.00357 -2.94494 14
295 1 1.77286 -6.95765 9.43205 20
296 1 7.01007 2.24325 3.70681 19
297 1 7.97309 4.20513 11.2912 12
298 1 -8.30888 -1.28568 -5.12609 17
299 1 13.441 6.81466 2.62458 10
300 1 10.2764 -2.59881 3.56952 18
301 1 -0.331632 -6.66339 -2.62799 17
302 1 1.69486 11.9386 7.19842 9
303 1 7.05153 4.68188 6.07476 18
304 1 -5.60449 10.835 -3.34827 20
305 1 -3.24128 -11.2352 -9.53061 13
306 1 -6.53202 7.44946 -11.635 10
307 1 -7.55065 -2.19712 -12.1486 13
308 1 -11.3239 1.13346 -4.1018 12
309 1 10.4042 -6.12449 4.10782 11
310 1 1.68415 -7.08818 6.21965 23
311 1 3.99018 -5.27297 5.44775 19
312 1 8.28645 6.29387 -6.33099 18
313 1 12.9948 -1.47882 2.53048 13
314 1 10.0089 7.51622 3.33606 15
315 1 10.0186 -4.43617 1.38724 15
316 1 -3.34115 5.56666 9.12869 17
317 1 -9.55971 -7.71913 2.29435 12
318 1 -9.75486 -0.427938 -10.3624 10
319 1 6.80535 1.29759 10.4572 17
320 1 -6.02272 14.9393 0.655797 11
321 1 9.75276 1.75083 2.35255 15
322 1 9.12945 4.21698 4.32876 17
323 1 -10.9587 0.798732 8.55189 8
324 1 8.03268 -0.0600791 -10.5208 16
325 1 -1.80468 -4.94673 -7.30987 17
326 1 6.60313 5.83979 8.79252 18
327 1 5.56864 7.72475 5.40294 17
328 1 1.52637 -1.01573 11.9289 18
329 1 -1.73813 3.61612 12.3734 15
330 1 -4.62544 1.92686 13.4202 9
331 1 -3.41519 5.97105 -6.91586 19
332 1 5.98088 10.4033 -1.41893 17
333 1 -2.8081 -0.33696 9.37287 18
334 1 0.678192 14.4538 -7.05766 10
335 1 -5.89989 -8.13556 -1.5867 23
336 1 8.26461 6.13851 1.09898 21
337 1 -3.22608 3.50327 5.59028 18
338 1 -6.69719 7.47321 0.408234 19
339 1 5.37489 7.28679 -5.10765 20
340 1 4.32844 3.95426 11.1263 16
341 1 9.44864 7.67233 6.32835 13
342 1 0.455482 -0.376339 -9.20055 21
343 1 1.2303 6.70506 7.08848 22
344 1 4.22694 -5.1352 -4.76192 19
345 1 4.97275 9.51074 2.73897 14
346 1 -13.7281 -3.66869 1.91155 14
347 1 -0.0955848 -11.5724 -0.722873 14
348 1 6.59908 9.41019 -7.12178 13
349 1 5.88286 -6.66617 3.4163 14
350 1 -4.48211 9.01958 1.68803 20
351 1 5.04586 -3.40565 -14.4013 9
352 1 4.2502 -4.21283 -8.07521 21
353 1 -1.77901 11.3774 6.03652 14
354 1 4.54725 -7.45044 7.111 18
355 1 -0.78162 1.91004 -7.77317 21
356 1 -7.60085 -10.0954 -5.5548 9
357 1 -3.9786 1.77738 7.10604 17
358 1 10.0033 -0.0085634 4.58004 22
359 1 1.17796 12.3624 -4.25264 18
360 1 9.8761 5.12058 -8.77639 12
361 1 8.40632 4.98658 -3.92852 21
362 1 3.20128 6.788 -12.7107 11
363 1 -1.3326 -2.6882 10.7049 20
364 1 -3.07487 -7.52452 12.718 9
365 1 4.46925 -8.06043 -12.0081 11
366 1 -6.49403 8.06525 -2.52905 23
367 1 7.70307 10.0434 3.94315 12
368 1 -8.78089 -5.61298 4.72235 20
369 1 7.00039 2.63768 -8.96755 21
370 1 1.47905 2.24073 12.1079 18
371 1 -11.4137 -1.74217 0.576635 17
372 1 7.90673 -2.49947 -1.13433 20
373 1 -6.2694 -4.61183 -1.08681 18
374 1 11.5912 -7.35477 1.10476 11
375 1 7.15886 -11.1224 3.60928 11
376 1 0.0577951 9.29229 6.5189 21
377 1 -4.3859 -1.25369 12.7559 13
378 1 11.0697 -0.99992 1.07835 20
379 1 9.23582 -5.66509 -1.37238 16
380 1 5.267 7.07155 0.117017 19
381 1 -1.79239 9.66194 2.62126 18
382 1 1.33998 -9.64529 8.40479 16
383 1 -8.56923 -2.24647 -1.00754 17
384 1 -0.59933 6.40474 13.4523 10
385 1 3.46983 9.19292 0.18772 16
386 1 6.90974 -6.51004 9.92748 17
387 1 11.6638 -1.59163 6.16908 14
388 1 6.32456 8.35328 8.14482 14
389 1 -1.88254 7.50632 -3.04224 19
390 1 0.90038 -8.36989 -11.717 14
391 1 -2.56103 0.756439 -13.829 15
392 1 -6.00352 0.949607 9.05079 19
393 1 13.6021 1.18339 1.93676 14
394 1 1.70984 11.3503 -8.9402 13
395 1 6.9463 -5.60067 -12.1162 12
396 1 -7.63951 -10.1513 0.603065 12
397 1 -4.66923 1.36729 -8.92686 17
398 1 3.21412 -1.35474 -11.1417 21
399 1 -2.11744 -7.6143 -4.95363 22
400 1 3.34862 -7.53539 12.5076 12
401 1 -0.337698 -6.69613 3.8526 18
402 1 10.8132 6.08047 -5.58905 17
403 1 -8.26867 14.7814 3.90674 8
404 1 10.3788 -2.48309 -2.20763 13
405 1 -9.37741 3.26941 -2.292 15
406 1 10.9642 5.02574 1.60033 23
407 1 5.68546 6.50758 11.5236 12
408 1 -11.4346 -1.01278 -6.67153 14
409 1 -2.75564 4.07574 -10.1977 19
410 1 11.1001 -7.82643 -2.06853 9
411 1 -6.44731 -6.26469 -3.48794 19
412 1 -7.09612 -9.63922 9.26657 8
413 1 7.67864 -1.45933 5.87733 20
414 1 -11.0742 4.83669 2.62926 15
415 1 2.08601 9.61266 -11.405 12
416 1 6.52948 -6.62588 12.9124 9
417 1 -8.11472 -1.21032 9.16445 15
418 1 -1.54158 -1.47475 -12.1335 18
419 1 -5.14209 -8.97508 7.05394 20
420 1 5.18466 -1.96714 9.54203 13
421 1 -2.93375 -12.7908 -4.43311 11
422 1 10.5319 -1.06311 -9.10194 8
423 1 -8.36851 10.2498 2.48913 16
424 1 -7.38461 -0.727778 6.03618 16
425 1 -1.78189 -10.9849 -6.80285 17
426 1 7.90973 7.77081 -2.60127 20
427 1 10.8464 5.49676 -1.35538 18
428 1 -3.46306 -7.91597 9.13066 17
429 1 5.67709 10.5973 -5.05863 17
430 1 6.94662 3.50396 -6.19548 16
431 1 -9.62945 6.1211 -3.58273 16
432 1 1.78099 6.59151 -3.30179 17
433 1 4.69095 10.6066 5.49832 12
434 1 2.89315 9.31673 -6.37905 20
435 1 -4.76198 7.65067 9.55018 12
436 1 9.03963 3.60909 -0.923733 21
437 1 3.67664 -11.2563 5.82813 11
438 1 -5.55099 -1.26766 3.73571 19
439 1 9.1528 3.91681 8.56124 19
440 1 7.2217 -5.03969 -6.32571 18
441 1 -6.09146 8.71907 -6.46274 20
442 1 -2.58209 6.53036 3.78498 19
443 1 -1.78599 7.57188 0.400799 19
444 1 -3.02972 -6.50132 6.43967 21
445 1 7.55517 -8.46704 -1.05213 19
446 1 4.31385 0.0490593 -14.1992 12
447 1 -10.0619 -4.00007 1.9128 19
448 1 -4.85917 5.84822 -4.5066 18
449 1 10.7464 -2.17664 9.74672 9
450 1 -11.4058 -7.63307 5.47515 9
451 1 12.7093 3.04432 -0.796147 16
452 1 0.610577 3.27491 -10.2536 22
453 2 -10.4591 -0.0814847 -8.61528 15
454 2 -5.69953 14.2671 -2.99756 12
455 2 2.73876 -0.333059 -12.9954 17
456 2 -5.22314 5.95855 8.69613 16
457 2 -8.47312 -3.58437 -6.88037 16
458 2 3.06606 2.37649 11.1712 18
459 2 -12.5289 -2.44232 5.45248 11
460 2 10.3502 3.4816 2.90701 19
461 2 -3.99172 -1.24114 -6.30557 22
462 2 -8.77047 -8.99539 -4.66588 10
463 2 -7.40912 3.04281 -2.42099 17
464 2 -2.1207 -6.89226 8.19845 20
465 2 4.0671 6.37087 12.1214 9
466 2 6.34634 -2.16672 -10.6447 18
467 2 7.01864 -1.92737 3.91794 19
468 2 -7.13278 11.9249 -3.00312 15
469 2 12.1103 4.37133 6.09588 14
470 2 -12.364 -5.93902 6.1842 11
471 2 -0.880144 -11.1812 4.74666 12
472 2 10.9845 -2.41179 7.84173 13
473 2 -10.1091 9.10109 2.71 12
474 2 -5.75178 8.755 -4.53436 19
475 2 -3.5229 6.80664 5.66477 16
476 2 5.41657 -8.06452 -3.56055 18
477 2 -2.54847 1.15783 -8.66751 19
478 2 -0.344986 -4.2426 -9.96119 20
479 2 8.56069 -1.86703 -9.06854 16
480 2 9.93012 9.39367 -3.01875 12
481 2 -5.39522 8.98771 6.11586 18
482 2 -4.89744 -10.7781 -9.48217 8
483 2 4.09599 -10.0977 10.7317 12
484 2 9.83602 -1.90486 5.19109 19
485 2 -10.1701 2.66566 -3.89845 15
486 2 9.16532 7.82232 1.46215 17
487 2 5.2872 -11.1068 4.55957 13
488 2 -0.40566 6.35102 8.14787 19
489 2 4.84975 6.4714 4.12391 15
490 2 1.74751 7.92064 -5.55835 17
491 2 -5.595 2.60738 9.87467 16
492 2 4.28821 0.378326 -10.3045 24
493 2 -10.2294 -1.19475 -4.8813 17
494 2 -13.2958 1.11877 3.61016 12
495 2 -4.39513 -7.14231 3.48143 21
496 2 1.65067 -6.76496 4.19792 16
497 2 -1.02155 -3.76072 12.5113 15
498 2 -1.77779 8.64308 6.66628 22
499 2 -9.74412 0.800171 2.26858 15
500 2 4.18839 -6.06303 -8.24032 19
501 2 10.4565 1.64191 -4.63614 17
502 2 -3.39902 -9.70143 0.300981 20
503 2 4.7554 -2.24402 -7.90365 22
504 2 2.97434 7.21959 7.89096 20
505 2 7.40406 -6.42076 -1.27891 19
506 2 6.05802 -3.96184 9.153 15
507 2 -3.12229 -4.03875 5.01696 20
508 2 14.0631 2.69863 0.857837 13
509 2 -0.39858 -7.8473 -0.965132 19
510 2 10.6257 -6.11176 2.21228 13
511 2 -5.06298 -4.57942 -10.6106 14
512 2 -7.68402 -6.77368 3.12688 18
513 2 -2.72985 -6.49311 0.102649 21
514 2 -5.88087 -7.85623 -4.64889 21
515 2 -5.2046 13.4277 1.31864 15
516 2 3.05946 2.04102 -7.55018 21
517 2 6.88206 9.1354 -4.75187 17
518 2 3.85234 6.52009 -10.5726 17
519 2 -5.40842 0.439178 12.858 11
520 2 -10.3969 6.23378 1.68972 11
521 2 -2.93605 4.3052 10.8282 18
522 2 -10.6686 5.57183 4.33656 15
523 2 -6.86548 4.76437 -8.10356 21
524 2 10.8401 3.68742 -8.04939 11
525 2 9.61534 -9.44994 -1.84142 12
526 2 9.09069 1.6672 0.563439 19
527 2 -0.879248 9.91035 0.828182 21
528 2 -9.01818 10.186 6.52447 11
529 2 10.0318 10.0994 -0.222637 12
530 2 0.862444 9.6123 -2.6461 20
531 2 0.367493 12.9251 -7.94227 12
532 2 2.37504 4.86128 6.80775 19
533 2 0.137794 -2.03966 9.76344 23
534 2 2.855 -3.15249 -11.456 20
535 2 1.73021e-04 3.23574 11.4615 20
536 2 5.92987 3.54775 -10.5902 17
537 2 -5.8726 -5.70698 10.5069 15
538 2 -0.135771 -7.80528 -5.26594 24
539 2 -0.252091 -4.50097 -6.18892 18
540 2 1.57678 -12.0854 -0.685977 12
541 2 12.1736 7.03837 -4.29327 12
542 2 -4.61203 6.63935 -11.5111 14
543 2 -2.47248 10.6506 4.41715 18
544 2 -7.5875 -3.80797 -2.08522 16
545 2 3.91938 9.96794 -10.7652 10
546 2 0.062961 14.3438 -3.13458 14
547 2 -0.990555 4.47317 14.0475 11
548 2 1.35144 -10.7924 -5.10485 16
549 2 6.21639 4.69324 10.7547 16
550 2 9.11209 -3.67983 -1.15542 16
551 2 5.96942 9.51854 4.28758 13
552 2 -6.83415 8.21513 -9.92438 13
553 2 6.85068 -5.52711 11.5089 11
554 2 -2.43602 -10.0336 9.40577 13
555 2 8.44111 -8.3316 6.9987 14
556 2 -5.7856 12.4612 -6.12431 14
557 2 -6.56087 -10.7683 -4.00037 10
558 2 -0.322339 -0.460391 -11.072 25
559 2 -0.835998 -7.57345 -11.988 14
560 2 5.59788 7.38129 9.78333 17
561 2 -13.0328 -5.03156 -1.68946 13
562 2 -11.797 3.36604 2.0245 15
563 2 9.06019 -2.55013 10.5385 10
564 2 -4.01009 -11.98 -2.93479 11
565 2 0.731489 1.54245 -9.34371 20
566 2 -7.08269 -1.39919 -14.1109 9
567 2 -8.37589 -1.715 -10.1877 12
568 2 -2.32679 -1.06906 11.1742 19
569 2 -2.92658 -3.63627 -8.25423 18
570 2 2.41711 -3.75114 -8.13723 18
571 2 6.58117 0.463103 -8.83555 21
572 2 -5.83048 -4.85047 4.00022 20
573 2 2.03001 -1.34168 -9.44814 20
574 2 1.67846 4.8127 -5.82376 20
575 2 -1.49295 -7.23965 -8.61778 18
576 2 1.64232 7.68764 -12.005 11
577 2 2.87185 10.9979 6.02612 11
578 2 12.8461 1.42295 3.66311 17
579 2 -12.6487 -4.46388 3.28594 13
580 2 -3.27354 -9.81445 6.45604 17
581 2 -0.248072 3.78215 -8.05721 18
582 2 -3.20905 4.6825 3.77635 17
583 2 -6.55603 -5.07685 0.778411 21
584 2 -6.0856 6.39636 2.16883 17
585 2 -8.11672 -3.33486 9.72651 14
586 2 0.610085 -9.54739 10.3529 13
587 2 -13.6325 -1.78593 2.77878 11
588 2 -5.51543 -7.82395 0.358878 20
589 2 -7.18174 -5.79299 8.0629 19
590 2 7.55888 -5.97799 8.44084 16
591 2 3.34794 11.5865 -8.11772 13
592 2 5.45225 8.87983 0.822628 18
593 2 11.5992 4.34012 -5.24467 13
594 2 -2.7952 13.2543 -1.35861 16
595 2 -8.824 -5.39698 -4.29888 18
596 2 -11.9811 0.0919303 -2.41274 10
597 2 -3.01211 -13.7973 -5.80043 6
598 2 5.47888 -9.18619 7.45204 17
599 2 10.4514 -8.22852 4.17173 11
600 2 -8.12118 10.4873 -5.59408 12
601 2 8.48316 0.87322 -2.25407 20
602 2 2.00769 -3.05286 12.1814 15
603 2 -0.887224 -0.739862 -8.03298 18
604 2 5.89397 6.26349 6.53534 20
605 2 3.32823 10.3311 3.24761 12
606 2 0.442081 0.373732 11.7649 19
607 2 -7.52851 4.31182 4.52046 15
608 2 4.88438 8.91641 -6.05699 20
609 2 -6.69233 -6.46066 -8.24932 14
610 2 -7.8003 -0.579721 -6.83064 20
611 2 -9.90166 -0.681734 9.32926 10
612 2 5.65438 11.4051 -3.06948 12
613 2 7.14518 3.16042 -1.21696 18
614 2 8.14927 -8.81505 0.69066 20
615 2 -11.9768 0.0815371 0.971953 16
616 2 -3.00009 7.91871 2.48904 20
617 2 -3.83287 7.81915 -6.46288 18
618 2 5.63345 3.59066 -7.73975 21
619 2 -6.20215 6.3843 -1.30187 19
620 2 -8.9414 -4.49184 6.30323 15
621 2 7.78084 -11.0908 -4.01517 10
622 2 4.01286 -8.74797 -0.867301 17
623 2 -7.75475 11.2957 3.7531 17
624 2 3.65709 -8.96468 2.40936 18
625 2 -9.50457 5.31776 -5.33196 16
626 2 2.52615 -10.4299 4.57704 15
627 2 3.66495 4.99374 9.43746 21
628 2 4.54066 2.05604 -13.4341 11
629 2 -0.772417 9.93475 -8.23958 13
630 2 8.51673 3.7266 -9.6095 16
631 2 -3.71063 10.7708 -0.178453 18
632 2 -6.89361 -0.123621 10.2664 13
633 2 -1.21437 -4.50044 6.9616 20
634 2 -1.54084 -8.07826 2.38533 16
635 2 -13.0822 -2.85692 -3.56739 11
636 2 -5.96548 -2.13572 5.44097 20
637 2 2.56702 3.84654 -9.71962 19
638 2 7.29946 -1.95715 -2.76704 19
639 2 3.41024 -1.07138 10.1818 17
640 2 -6.58341 -1.78345 -1.25867 16
641 2 5.31638 -1.45929 -14.0822 11
642 2 6.17579 6.56836 -2.06175 21
643 2 5.20719 9.20189 6.79766 14
644 2 4.49281 -1.7822 -4.43657 20
645 2 -6.37377 -2.16936 2.11815 19
646 2 -3.41367 13.3182 -4.32947 15
647 2 -0.270321 6.35416 11.3382 16
648 2 -0.278845 -10.9841 0.990062 14
649 2 -4.51108 -7.21725 7.57068 22
650 2 6.07702 1.87218 6.65955 16
651 2 8.27246 8.69651 -7.11613 13
652 2 2.01464 10.3758 -0.116151 16
653 2 2.67176 -10.6275 7.57741 13
654 2 5.93205 -9.80417 -6.81386 13
655 2 1.50434 2.59086 -12.1003 15
656 2 5.37842 -4.8846 3.97557 19
657 2 1.28897 5.81627 13.8871 11
658 2 -0.307226 0.64707 7.33663 20
659 2 6.7947 -8.27738 3.83501 17
660 2 -0.570712 0.734835 -13.4577 14
661 2 10.3843 -0.984282 -7.16638 12
662 2 -8.25186 11.3159 0.90571 15
663 2 1.4393 -7.11848 -8.7861 21
664 2 1.69012 2.06782 14.2071 10
665 2 -9.19072 5.82448 -8.86609 12
666 2 10.3767 -5.93355 -2.95031 11
667 2 1.94663 7.72703 2.38983 18
668 2 11.6019 6.88563 2.23514 16
669 2 13.6571 4.64339 3.26295 13
670 2 -6.81273 -2.04713 -4.25579 18
671 2 -3.80162 7.11596 -3.31541 20
672 2 -7.42364 1.6454 -9.16044 23
673 2 11.6577 7.33166 -1.03579 15
674 2 -9.1265 10.495 -2.15281 14
675 2 0.137417 -6.39972 10.3638 19
676 2 5.48844 -3.23771 12.0339 14
677 2 -0.0262231 -10.248 -7.90947 16
678 2 1.18075 -1.89725 -14.4034 13
679 2 3.99587 9.3977 -1.68622 18
680 2 7.57928 8.92167 -1.16189 22
681 2 -6.15206 -3.05615 -7.87241 19
682 2 -7.79563 -7.29942 -2.18237 20
683 2 10.1479 -0.752926 2.7105 20
684 2 -6.15653 9.72492 -1.65806 18
685 2 2.09992 -12.1929 2.34927 13
686 2 8.80669 -3.77759 2.83705 19
687 2 -4.78642 -3.80228 7.46749 19
688 2 -3.30193 -6.39968 -6.66716 19
689 2 2.11156 8.00206 11.0419 16
690 2 1.75436 10.7933 -5.39264 19
691 2 -8.3217 7.60175 4.84004 19
692 2 -3.77861 -2.726 13.5365 10
693 2 0.368986 12.4964 -0.138602 13
694 2 -0.920997 -10.6372 -2.28338 15
695 2 1.10867 -5.94943 7.68858 19
696 2 8.47459 2.17965 10.9222 12
697 2 -8.51505 3.99514 1.36292 14
698 2 -2.05385 8.30306 -1.37375 18
699 2 0.325401 3.38687 9.0628 20
700 2 -4.43073 -7.65137 -9.60845 15
701 2 11.116 -1.40703 -0.737429 16
702 2 8.18352 -7.16881 -5.77821 13
703 2 -3.7232 10.4603 -3.56879 22
704 2 -2.92335 1.82218 12.3653 14
705 2 -7.19456 2.18447 -5.50915 18
706 2 8.48295 -4.09457 -5.18963 14
707 2 6.51743 5.85774 0.907087 18
708 2 -2.93886 4.6115 7.48887 19
709 2 -2.28009 1.61638 9.45426 18
710 2 -3.74443 8.68245 -9.39476 14
711 2 -11.0016 0.881047 -6.22052 12
712 2 -4.88975 -0.791018 -9.19084 22
713 2 0.428395 6.67414 -9.28275 19
714 2 -6.09799 -0.535844 -11.8812 17
715 2 5.00663 -6.36724 -11.2078 14
716 2 -2.45995 -6.7375 -3.3218 19
717 2 2.95499 -8.03212 8.20346 18
718 2 -4.22964 4.69251 -5.9392 18
719 2 4.11842 -0.660103 5.22939 16
720 2 8.11171 -4.40113 -8.08107 17
721 2 -2.02199 -7.36342 5.22593 21
722 2 10.5543 6.74126 7.65589 10
723 2 -5.12159 12.218 4.47808 18
724 2 -9.22846 -3.98444 3.6895 16
725 2 9.90811 4.55725 -2.58749 25
726 2 2.36721 -3.84678 5.32933 20
727 2 -7.7352 13.8051 2.62676 13
728 2 5.85507 1.09118 -5.92873 18
729 2 6.93484 4.14749 3.97499 18
730 2 -12.7318 3.57756 5.79048 12
731 2 1.4245 9.57699 -9.78213 15
732 2 6.1109 -3.93721 -12.8029 11
733 2 -5.60063 0.789614 3.9066 19
734 2 -4.52399 -0.158575 8.37769 18
735 2 11.4423 0.585099 6.19553 18
736 2 6.81824 0.232193 -11.8705 14
737 2 -6.13159 -5.3528 -5.05826 19
738 2 2.8163 -6.41891 0.0502514 18
739 2 9.76471 0.472859 -9.72123 12
740 2 -4.61052 7.78484 0.15818 16
741 2 2.53338 -8.21147 -12.4226 11
742 2 -9.5694 4.82427 7.16138 14
743 2 -11.18 -3.29567 8.3494 13
744 2 4.79339 -10.7036 -4.35345 12
745 2 -2.19219 -9.70924 -10.0777 16
746 2 -1.5893 -11.4899 -5.09952 16
747 2 11.7657 1.4911 -1.586 17
748 2 -5.87954 10.5749 -7.96927 13
749 2 7.86791 10.5861 2.22343 12
750 2 -2.57085 -12.3115 -8.02146 11
751 2 1.94389 1.28927 8.54795 18
752 2 -2.88717 7.46073 9.14738 17
753 2 -1.25161 6.05552 -6.5089 18
754 2 -8.63659 3.57415 -10.7602 12
755 2 1.27776 -10.1107 -10.4486 11
756 2 -5.41478 -9.88959 8.81564 11
757 2 -8.63421 8.029 -0.139067 17
758 2 5.75151 9.25633 -8.75413 13
759 2 -2.9074 5.42387 -8.76898 17
760 2 6.36539 5.93993 -6.26149 17
761 2 -4.72054 -3.15209 -14.0847 12
762 2 2.95301 -8.21037 -6.12403 19
763 2 -11.2738 -2.91084 -6.36235 12
764 2 8.0911 7.64919 7.98888 15
765 2 -4.39232 1.38348 -14.2583 12
766 2 -10.9343 -7.18899 3.54373 13
767 2 10.1207 2.05483 8.50341 15
768 2 7.23503 4.09868 8.01683 19
769 2 10.0937 6.52358 -7.4574 14
770 2 -1.25128 11.5685 -4.14181 18
771 2 -0.33935 15.0743 -5.57309 9
772 2 12.7541 -1.11591 4.59592 14
773 2 -5.05438 1.38428 -7.10385 18
774 2 4.41784 12.307 -4.91375 12
775 2 2.85316 -1.21029 13.6822 9
776 2 -2.8885 -2.61788 -11.3318 18
777 2 5.04274 2.15887 9.74396 15
778 2 -0.621581 6.40381 3.62946 22
779 2 11.1187 -9.2255 1.32023 10
780 2 7.18482 -7.58334 -8.32794 12
781 2 -2.95128 11.4307 7.73391 13
782 2 5.34498 -8.17273 12.4024 10
783 2 -1.59318 8.6873 -4.77851 18
784 2 0.295916 11.4841 5.72616 11
785 2 -7.45223 7.32151 -6.43042 17
786 2 2.49153 12.0717 -2.66282 18
787 2 -10.6404 -6.2347 -1.69136 13
788 2 3.53681 -4.86026 -13.6483 13
789 2 -7.97627 1.26444 5.81601 15
790 2 11.2804 -2.6852 2.02506 14
791 2 -2.63817 11.6901 -6.85669 16
792 2 -10.2174 1.87514 7.36449 13
793 2 -6.31771 -9.25654 -7.05504 13
794 2 2.17393 10.2982 8.50267 14
795 2 -2.28692 -4.68368 -13.0775 12
796 2 -6.59959 2.21246 -12.4985 13
797 2 3.46986 5.87063 -7.8062 18
798 2 -1.45385 2.99238 -11.0912 20
799 2 -7.98379 13.8922 5.30583 8
800 2 -6.58143 11.439 6.66631 13
801 2 1.95302 13.8942 -5.60787 13
802 2 -6.58839 -10.8229 -0.870864 13
803 2 8.57564 1.72973 -7.34434 21
804 2 5.48632 -4.39247 -6.18939 17
805 2 -6.45396 -7.94316 5.95493 18
806 2 -9.23012 7.99259 -3.64238 14
807 2 -9.63752 -7.44804 6.09938 13
808 2 -1.99094 6.1693 -11.672 13
809 2 4.5625 -5.52128 7.34144 19
810 2 8.81132 5.27646 10.1552 12
811 2 1.66447 -1.59271 7.19714 16
812 2 -7.54547 -2.07932 7.4806 20
813 2 6.54533 6.72408 -10.5695 10
814 2 -0.459167 9.23111 9.92366 11
815 2 -3.20282 -4.03512 -4.61026 18
816 2 -8.61812 -8.48316 0.780961 15
817 2 -8.18356 -8.23824 8.87359 10
818 2 -11.0477 1.78451 4.36585 19
819 2 -7.77766 6.24391 -11.5446 9
820 2 -11.8803 -5.34651 -4.72624 12
821 2 -5.14509 15.904 -0.766568 8
822 2 7.21629 -3.43556 6.26764 16
823 2 9.75321 6.28968 4.74273 17
824 2 -6.17814 -9.82119 1.7627 13
825 2 -10.6776 -5.66368 1.24784 16
826 2 -10.0332 2.26165 -0.784341 15
827 2 -2.89788 -1.87406 7.45974 20
828 2 0.461728 -5.70004 13.4468 13
829 2 0.462147 -8.73483 6.63981 17
830 2 8.57736 1.25881 4.46909 20
831 2 1.58312 -6.86533 -2.95592 16
832 2 -5.72826 9.13989 3.05834 18
833 2 -2.94999 -0.12148 -12.0161 18
834 2 -8.71951 -0.931725 4.46889 15
835 2 2.76341 -4.17279 9.07819 19
836 2 -3.19009 -5.76188 13.1728 12
837 2 3.29485 -6.17291 10.7099 19
838 2 8.79922 4.23335 -5.78669 19
839 2 9.3031 3.6847 6.2827 19
840 2 7.67413 -5.64203 -10.4701 10
841 2 -6.59908 5.93215 -3.75458 19
842 2 8.59583 -0.154105 7.37918 21
843 2 4.95139 -5.31398 -2.93145 16
844 2 -5.0821 -5.88937 -2.03771 21
845 2 12.1383 4.57738 0.14897 18
846 2 7.51351 -1.50431 -5.89202 19
847 2 0.0327897 9.76948 3.31613 17
848 2 13.0913 -0.217015 0.810749 12
849 2 -3.4832 -7.40989 10.9395 15
850 2 1.82642 -8.58131 12.4443 12
851 2 -5.97622 -2.1569 11.593 12
852 2 2.2069 -9.46152 -2.89541 20
853 2 5.57766 -6.61192 1.49768 19
854 2 9.88854 -5.25079 5.86742 15
855 2 7.45903 -1.35557 0.57602 19
856 2 -1.2971 -8.17592 12.4292 12
857 2 5.6592 -3.86913 0.488694 21
858 2 -8.87059 7.40006 7.74262 11
859 2 -0.654125 3.62901 5.6116 20
860 2 8.30769 6.96703 -4.31719 19
861 2 0.758303 -5.014 -13.3251 14
862 2 4.48579 -8.69242 -10.1337 14
863 2 3.26737 4.79465 -12.6919 12
864 2 -4.24992 4.04414 -13.1946 12
865 2 9.03222 9.17954 5.13086 10
866 2 -10.3383 -3.05582 -1.91881 19
867 2 14.2032 5.87632 0.89755 10
868 2 -9.65457 -2.10959 0.702734 15
869 2 8.92949 -10.475 4.01878 12
870 2 -0.245473 6.59095 -3.50351 18
871 2 12.4253 4.2018 -2.49063 14