ITEM: TIMESTEP
60000
ITEM: NUMBER OF ATOMS
500
ITEM: BOX BOUNDS pp pp pp
-30.0 30.0
-30.0 30.0
-30.0 30.0
ITEM: ATOMS id type x y z Coordination
1 1 17.1281 -16.2972 0.0541289 11
2 1 12.1336 -7.8411 -0.226604 13
3 1 7.23958 -11.065 -5.33482 21
4 1 11.3828 -13.2666 -18.4302 20
5 1 4.55674 -12.8516 -9.23749 14
6 1 13.7408 -11.829 -20.8273 11
7 1 18.5265 -21.9482 -13.6827 15
8 1 15.6499 -9.65769 -2.74186 22
9 1 15.8784 -8.63485 -16.3424 18
10 1 15.6224 -7.16021 -0.895306 12
11 1 6.14567 -15.5998 -7.67002 17
12 1 24.6594 -15.3547 -15.418 9
13 1 15.8648 -12.9571 0.0922286 15
14 1 7.20629 -18.2758 -8.33902 14
15 1 13.2986 -19.9304 -17.1345 14
16 1 18.5818 -15.149 -15.5866 22
17 1 20.9013 -16.5786 -4.94016 17
18 1 10.8675 -3.51182 -6.28299 11
19 1 11.8778 -4.06803 -9.62135 14
20 1 16.583 -19.1917 -17.912 12
21 1 12.0905 -10.0017 -2.62614 23
22 1 22.0165 -14.8637 -1.90278 10
23 1 7.35797 -7.50097 -3.35462 16
24 1 15.7566 -5.45682 -18.9371 12
25 1 21.3958 -5.10693 -7.06265 14
26 1 14.3165 -5.95498 -15.8009 17
27 1 7.09156 -9.58208 -18.6 8
28 1 12.0637 -5.1807 -13.2916 18
29 1 13.7784 -5.8651 -10.9503 23
30 1 5.95758 -9.94352 -7.77167 17
31 1 12.2495 -3.98387 -3.16704 9
32 1 9.37879 -10.769 -19.7167 12
33 1 7.10664 -19.5802 -5.80615 12
34 1 19.4659 -20.2147 -10.0611 16
35 1 4.45585 -15.6405 -4.71177 12
36 1 6.25928 -14.0721 -11.9316 18
37 1 12.1007 -22.733 -4.00625 14
38 1 17.6995 -7.99684 -18.4915 16
39 1 9.88854 -20.3231 -15.8939 14
40 1 14.8334 -8.53558 -20.3557 11
41 1 16.1056 -2.93721 -10.5215 10
42 1 4.66279 -12.9142 -2.67651 11
43 1 15.7201 -5.59443 -3.12773 17
44 1 17.1913 -12.2299 -3.06905 20
45 1 17.1664 -24.6241 -14.2163 8
46 1 18.9748 -4.72052 -19.0492 7
47 1 12.0364 -21.5462 -7.31238 18
48 1 18.8 -14.0109 -1.29019 17
49 1 14.6915 -18.376 -1.63831 19
50 1 18.5242 -4.48497 -8.44655 17
51 1 8.32436 -21.8776 -8.01761 9
52 1 14.6553 -22.9271 -6.0268 14
53 1 10.7502 -12.9261 -2.54037 21
54 1 9.30357 -15.8916 -2.91142 17
55 1 17.3175 -24.2149 -8.29594 9
56 1 4.74342 -18.9112 -3.22548 7
57 1 10.3904 -7.18085 -2.82224 23
58 1 5.77218 -6.97825 -5.77445 9
59 1 9.77276 -5.21194 -1.31129 10
60 1 7.80718 -17.369 -16.1488 13
61 1 7.2289 -11.3829 -15.7458 15
62 1 11.0113 -17.3628 -17.0891 17
63 1 19.6398 -11.8476 0.305676 11
64 1 12.229 -17.1702 0.786488 9
65 1 9.80053 -15.7503 -18.9481 10
66 1 7.51089 -16.8637 -11.0776 17
67 1 14.04 -22.8201 -9.21353 16
68 1 9.15361 -8.03348 -5.60966 21
69 1 15.3923 -22.5848 -13.0287 16
70 1 13.8514 -5.27538 -5.56033 20
71 1 5.46268 -11.4063 -12.8264 14
72 1 9.21501 -8.72631 -16.2908 20
73 1 15.8465 -21.1061 -15.3411 18
74 1 17.491 -19.4685 -1.28577 10
75 1 6.82937 -8.75642 -13.8223 14
76 1 11.16 -10.7837 0.177333 12
77 1 7.58001 -13.1224 -2.17596 17
78 1 19.5119 -17.132 -17.9593 13
79 1 12.8499 -21.3644 -1.28482 14
80 1 22.2864 -17.8651 -15.3527 10
81 1 22.4467 -10.38 -8.88495 14
82 1 17.0389 -13.1635 -20.3936 10
83 1 17.5642 -22.1643 -5.31002 14
84 1 10.6217 -23.0846 -10.2252 13
85 1 8.39156 -18.6677 -2.83672 19
86 1 19.1043 -9.58933 -2.2101 17
87 1 22.8222 -8.55001 -11.3388 12
88 1 16.1403 -10.9381 -18.6431 19
89 1 12.876 -6.27363 -18.7098 13
90 1 13.9544 -2.6372 -7.46672 11
91 1 22.6145 -9.22932 -15.0899 13
92 1 19.1442 -23.6657 -11.3237 10
93 1 20.9001 -18.9432 -7.43958 16
94 1 16.1708 -19.8111 -4.63767 19
95 1 7.94992 -13.1131 -18.1623 15
96 1 22.5135 -14.5198 -10.4377 16
97 1 11.1089 -5.4158 -16.1127 14
98 1 18.8616 -18.8553 -15.3603 17
99 1 6.07294 -16.1955 -1.86139 12
100 1 15.9729 -24.4515 -10.8956 12
101 1 16.3771 -17.5596 -15.079 21
102 1 19.6848 -21.974 -6.83466 10
103 1 14.1976 -19.3543 -12.7934 21
104 1 12.4129 -13.6212 -0.245558 13
105 1 8.6905 -8.29516 -0.801817 13
106 1 18.5717 -13.893 -18.3578 17
107 1 6.94018 -6.40502 -11.2519 12
108 1 17.3555 -5.70028 -10.9778 20
109 1 20.8497 -12.1505 -15.5071 18
110 1 12.5387 -10.1395 -18.34 20
111 1 4.71685 -9.92128 -4.41524 14
112 1 15.6126 -15.2605 -2.24005 18
113 1 6.42353 -14.2474 -15.1309 15
114 1 22.4965 -16.211 -7.69709 13
115 1 17.344 -9.93093 0.508975 10
116 1 15.426 -22.0452 -2.82622 12
117 1 22.927 -8.17271 -5.96841 11
118 1 21.5526 -8.50854 -2.68809 12
119 1 12.5981 -21.6556 -14.6828 17
120 1 18.7476 -5.99399 -2.18118 11
121 1 12.3928 -8.44257 -15.891 20
122 1 9.60653 -22.4243 -13.4221 12
123 1 20.6403 -7.70526 -8.26161 19
124 1 7.50733 -7.50753 -8.31766 17
125 1 20.7516 -5.65038 -10.5567 14
126 1 14.3464 -10.5376 -0.261138 16
127 1 14.7018 -13.8619 -18.3315 20
128 1 21.0063 -19.8022 -12.6811 13
129 1 16.7089 -3.75435 -5.85994 14
130 1 8.52853 -5.07906 -5.08797 14
131 1 21.341 -15.2382 -16.7365 13
132 1 19.7485 -17.3369 -2.15255 13
133 1 9.20097 -10.2053 -2.6644 21
134 1 20.6827 -12.2197 -2.68653 17
135 1 15.7687 -5.01195 -13.3705 17
136 1 21.0251 -7.69073 -13.367 17
137 1 11.3495 -18.7683 -1.96026 21
138 1 12.4429 -15.8616 -2.27262 19
139 1 8.85645 -4.76949 -8.6248 14
140 1 19.753 -3.62517 -4.97322 11
141 1 7.58533 -16.8517 -5.14703 18
142 1 22.3529 -14.0274 -5.19595 13
143 1 8.97142 -19.8562 -10.2049 17
144 1 19.6337 -8.37418 -5.62572 22
145 1 22.8205 -16.806 -12.7453 14
146 1 15.3927 -4.71766 -8.60402 20
147 1 5.93022 -17.1233 -13.4998 13
148 1 17.5456 -5.80668 -16.1311 17
149 1 9.41589 -14.5193 -15.7317 21
150 1 16.5404 -16.5224 -19.2141 13
151 1 12.5259 -23.982 -12.0282 11
152 1 9.97078 -20.583 -5.1474 18
153 1 21.0505 -13.7304 -12.9534 20
154 1 5.67918 -13.2794 -6.02686 16
155 1 10.3534 -7.61301 -18.5682 12
156 1 8.19866 -19.3159 -13.8601 15
157 1 20.9234 -11.0574 -6.30825 19
158 1 12.8902 -15.545 -19.6876 13
159 1 6.11866 -10.3749 -1.86157 13
160 1 9.95475 -20.0686 0.380834 8
161 1 21.576 -5.88949 -4.19291 12
162 1 22.3736 -11.1839 -12.6175 18
163 1 10.1268 -21.7748 -2.07555 13
164 1 19.5072 -8.70591 -16.3719 19
165 1 20.5898 -6.18489 -16.2444 13
166 1 18.3068 -6.05767 -5.27449 21
167 1 19.1315 -4.98846 -13.5189 14
168 1 24.5622 -13.9846 -13.0207 11
169 1 23.5701 -12.4186 -16.1743 11
170 1 15.7393 -8.08956 -5.40411 22
171 1 10.4441 -5.92078 -11.2742 17
172 1 13.2059 -19.9252 -4.45317 24
173 1 19.3027 -19.3388 -4.51134 17
174 1 4.62892 -16.223 -10.3312 11
175 1 8.66381 -5.83597 -14.0357 13
176 2 5.05241 -17.071 -3.24744 10
177 2 22.1898 -7.95118 -4.33319 11
178 2 5.38687 -12.3143 -10.9421 12
179 2 10.3693 -21.9279 -3.91604 16
180 2 13.8686 -12.5067 -0.458907 17
181 2 9.26141 -8.30327 -3.56431 22
182 2 19.0974 -19.8413 -13.6125 18
183 2 11.1099 -11.5048 -19.1754 14
184 2 16.9105 -19.2772 -15.969 18
185 2 12.1546 -4.51471 -5.03936 16
186 2 22.8394 -15.6083 -6.00019 12
187 2 21.3145 -4.32061 -5.45582 9
188 2 13.7642 -5.27484 -3.38708 17
189 2 17.5925 -3.27474 -9.48338 12
190 2 17.7683 -7.86446 -16.3095 20
191 2 22.3854 -10.9441 -15.7822 12
192 2 7.53496 -13.2713 -16.3414 15
193 2 13.5526 -22.9514 -2.56538 12
194 2 7.63649 -13.0472 -5.79295 22
195 2 18.955 -23.9648 -13.2708 9
196 2 16.1544 -24.3378 -12.7358 12
197 2 15.394 -7.90219 -3.45193 21
198 2 15.8791 -14.9037 -0.442532 16
199 2 10.0772 -21.008 -7.16852 17
200 2 18.111 -23.1621 -6.98341 9
201 2 7.21065 -20.341 -7.63828 11
202 2 12.1905 -22.2286 -9.14199 14
203 2 10.848 -23.1163 -12.099 13
204 2 9.10107 -4.22013 -6.81801 12
205 2 19.3928 -11.003 -16.308 18
206 2 20.2365 -5.58613 -8.63983 16
207 2 14.4352 -6.79545 -19.6174 12
208 2 22.432 -9.823 -6.73086 13
209 2 14.8728 -2.54593 -9.19089 12
210 2 7.6652 -6.81989 -5.88597 15
211 2 15.5012 -4.64264 -11.3476 16
212 2 20.6726 -5.79829 -14.2104 14
213 2 12.1407 -8.17367 -3.45902 23
214 2 11.035 -12.3955 -0.563527 15
215 2 17.736 -17.7838 -18.3177 16
216 2 15.8368 -20.7201 -12.6164 18
217 2 14.4658 -18.7925 -17.9221 15
218 2 7.68988 -18.6125 -10.3678 17
219 2 22.041 -18.3774 -13.5891 12
220 2 18.5799 -4.18242 -6.52542 15
221 2 11.3714 -16.4728 -18.9468 12
222 2 15.3316 -12.5215 -19.6605 15
223 2 10.5412 -21.9329 -15.1052 13
224 2 20.5557 -17.7142 -16.5 12
225 2 19.2296 -9.2014 -18.1859 13
226 2 5.70022 -19.7303 -4.58688 8
227 2 14.5363 -15.9216 -18.9911 15
228 2 14.2879 -20.9786 -15.9889 15
229 2 12.9678 -13.3501 -19.6218 13
230 2 11.0551 -7.38254 -6.44651 22
231 2 9.25861 -21.6711 -9.75515 13
232 2 7.35367 -5.75519 -9.25879 12
233 2 6.08364 -15.9271 -5.81839 18
234 2 3.94197 -14.5479 -9.90254 8
235 2 17.6242 -18.8916 -5.56406 20
236 2 24.3117 -15.8472 -13.6086 11
237 2 17.6323 -8.21589 -5.46309 21
238 2 11.5125 -18.7992 0.0596781 12
239 2 5.819 -8.37084 -4.29487 16
240 2 6.36392 -16.1952 -15.2328 13
241 2 22.5907 -8.95708 -13.2378 12
242 2 5.77206 -13.7761 -7.85232 19
243 2 12.7916 -5.64021 -16.903 14
244 2 18.0825 -12.0403 -19.0925 14
245 2 5.77434 -8.05678 -7.54711 11
246 2 22.9041 -16.094 -15.7847 12
247 2 19.5073 -21.7482 -11.348 12
248 2 10.526 -3.87694 -2.27837 8
249 2 17.724 -24.1139 -10.0413 10
250 2 16.9452 -5.93683 -1.70186 12
251 2 11.9589 -4.77457 -11.4599 14
252 2 9.59609 -19.6133 -1.53872 14
253 2 12.0889 -7.99052 -18.8137 16
254 2 24.6781 -13.5769 -14.969 8
255 2 13.8215 -10.5654 -3.18012 23
256 2 21.2257 -7.01935 -6.34978 18
257 2 20.0502 -7.45494 -2.43621 13
258 2 6.10609 -16.712 -9.28167 15
259 2 13.5798 -6.95101 -0.763108 15
260 2 20.7543 -13.2444 -0.797521 11
261 2 13.8277 -10.1515 -19.9429 12
262 2 12.5767 -9.80738 -0.596459 19
263 2 18.5835 -18.7003 -2.81775 13
264 2 5.66522 -13.2477 -13.6709 13
265 2 12.4147 -9.0522 -13.7514 18
266 2 8.83779 -11.0949 -14.93 19
267 2 14.2265 -16.7692 -2.64035 20
268 2 15.0887 -3.94401 -6.68198 16
269 2 8.45985 -18.9727 -15.7723 13
270 2 22.1571 -10.4485 -10.8364 16
271 2 8.64071 -6.06723 -12.1676 15
272 2 22.1325 -16.2223 -11.2224 16
273 2 11.4475 -19.1117 -5.14606 21
274 2 9.4434 -20.4773 -13.0402 17
275 2 13.9545 -5.85858 -13.5117 19
276 2 8.67927 -6.04491 -3.15782 12
277 2 13.0352 -19.8984 -2.46184 18
278 2 4.75684 -11.1061 -2.81702 12
279 2 10.446 -6.83239 -0.698444 12
280 2 6.9321 -8.346 -11.7894 14
281 2 19.1567 -5.39311 -11.6612 18
282 2 9.59066 -9.85878 -0.482805 15
283 2 12.1873 -15.725 -0.345624 15
284 2 9.29736 -16.255 -17.0029 16
285 2 14.246 -7.89178 -15.7756 19
286 2 12.6918 -20.0452 -13.6295 22
287 2 18.9689 -13.2564 -3.16966 19
288 2 22.1965 -8.42328 -8.92123 16
289 2 19.1759 -20.8435 -5.50436 12
290 2 20.7859 -11.8943 -13.464 19
291 2 15.8572 -11.1715 0.844942 11
292 2 7.04556 -8.52339 -1.63411 13
293 2 5.77424 -16.0753 -11.9912 14
294 2 13.9061 -5.91947 -8.8828 20
295 2 6.2555 -14.2473 -2.06821 12
296 2 4.78559 -13.8101 -4.36912 16
297 2 14.9891 -23.4623 -7.8527 13
298 2 17.8896 -12.6936 -0.0477108 16
299 2 10.3986 -7.17822 -16.654 14
300 2 19.3091 -5.25463 -17.1869 13
301 2 17.1304 -22.4469 -14.4217 14
302 2 21.2877 -16.3368 -2.97352 15
303 2 16.104 -9.28336 -0.841787 18
304 2 15.893 -5.27753 -16.9156 16
305 2 11.6442 -19.1687 -16.1004 17
306 2 12.0522 -3.13848 -7.96145 13
307 2 10.7334 -5.96206 -14.4367 17
308 2 6.29168 -10.4961 -14.256 15
309 2 7.53983 -11.3012 -2.91455 22
310 2 16.2706 -9.02207 -19.0978 15
311 2 19.5523 -15.2672 -17.3741 15
312 2 7.35987 -9.53429 -16.6875 14
313 2 9.02513 -8.98109 -19.1478 10
314 2 18.6421 -15.9005 -0.930771 13
315 2 9.39943 -13.9555 -2.93591 18
316 2 7.56026 -16.8851 -2.76487 16
317 2 16.0432 -20.0918 -2.61481 16
318 2 5.51507 -10.9652 -5.97786 16
319 2 11.1308 -21.6123 -0.668317 10
320 2 15.8193 -21.9655 -4.75062 15
321 2 18.8835 -10.1079 -0.325429 13
322 2 16.8644 -17.513 -13.1823 20
323 2 10.5807 -5.55042 -9.23742 18
324 2 9.28687 -13.9365 -19.432 13
325 2 10.7349 -11.1215 -3.3702 22
326 2 16.2791 -17.943 -0.702762 10
327 2 17.4652 -5.91266 -19.2111 11
328 2 19.5507 -5.56205 -3.98913 17
329 2 22.0293 -13.5373 -3.33717 12
330 2 22.0901 -13.5384 -16.4346 13
331 2 22.0896 -14.5226 -8.48397 15
332 2 21.2056 -7.33699 -11.276 14
333 2 7.72862 -17.6197 -13.2185 15
334 2 8.20662 -17.1931 -7.06823 16
335 2 20.043 -20.4445 -8.11282 14
336 2 17.4443 -5.50253 -14.1059 17
337 2 22.8458 -13.3629 -12.1968 13
338 2 19.1071 -8.64507 -13.4945 22
339 2 19.3713 -14.6125 -13.9064 19
340 2 20.6471 -18.2949 -5.53928 17
341 2 13.8687 -24.3044 -10.6494 11
342 2 16.9678 -5.85526 -8.86846 20
343 2 16.7653 -5.13888 -4.61937 16
344 2 12.8784 -22.4215 -5.88891 14
345 2 8.5316 -19.4654 -4.59943 18
346 2 20.8498 -10.2305 -2.87909 13
347 2 21.3033 -8.04388 -15.743 12
348 2 7.9695 -11.2671 -18.5816 12
349 2 13.4049 -22.7532 -13.2772 16
350 2 21.0012 -19.3218 -10.7339 13
351 1 11.102 -19.5873 -12.6754 22
352 1 9.65716 -16.542 -12.8717 23
353 1 12.6725 -14.3817 -15.509 21
354 1 14.1882 -16.9705 -17.2851 19
355 1 12.8896 -18.0103 -14.663 21
356 1 12.7016 -16.2521 -12.6194 24
357 2 10.9439 -19.2205 -10.5242 21
358 2 9.52497 -16.0946 -10.9461 22
359 2 9.40473 -14.9924 -13.9323 22
360 2 11.1889 -17.6811 -13.1884 22
361 2 12.7141 -16.4235 -15.9789 21
362 2 14.1589 -19.2868 -10.5304 23
363 2 12.6532 -16.3908 -10.4631 21
364 2 12.4829 -14.3529 -13.4329 24
365 2 13.8877 -17.5698 -13.0991 19
366 1 9.16379 -14.3269 -10.1151 22
367 1 10.9513 -17.2843 -10.3019 20
368 1 10.9857 -18.7653 -7.15592 21
369 1 9.57468 -15.9964 -7.51842 22
370 1 9.17895 -14.2907 -5.36366 20
371 1 11.223 -17.2001 -4.82209 22
372 1 12.4919 -20.0915 -10.2208 21
373 1 12.5308 -14.5084 -10.3916 25
374 1 14.3123 -17.4411 -9.9744 22
375 1 14.3843 -18.7913 -6.99087 22
376 1 12.6908 -15.9168 -7.60207 22
377 1 12.3146 -13.9463 -4.80971 22
378 1 14.4441 -16.5794 -4.5423 22
379 2 9.47239 -16.3168 -4.82317 21
380 2 9.34827 -14.2084 -8.11372 22
381 2 11.0644 -17.0431 -8.08882 22
382 2 12.7639 -19.7244 -7.57871 20
383 2 14.596 -18.7717 -5.04694 19
384 2 12.7636 -15.7468 -5.6206 25
385 2 12.5243 -14.0679 -8.34876 23
386 2 14.3151 -16.9271 -7.8519 22
387 2 10.9128 -17.1002 -2.92104 21
388 1 10.7051 -11.3471 -15.4926 20
389 1 10.8066 -13.7122 -12.9469 23
390 1 9.03588 -11.5377 -12.9955 19
391 1 10.7475 -7.78213 -13.4971 20
392 1 13.7598 -11.4961 -15.8026 22
393 1 14.3034 -13.491 -13.2104 22
394 1 12.4859 -10.6556 -12.9085 26
395 1 14.0387 -7.88005 -13.5738 21
396 2 7.82061 -13.6133 -10.987 22
397 2 10.965 -13.4583 -16.4588 22
398 2 10.9887 -13.422 -10.854 23
399 2 8.96249 -10.5604 -11.3744 23
400 2 10.9766 -11.7768 -13.5153 19
401 2 8.34856 -7.68003 -14.6062 15
402 2 14.0599 -13.4541 -16.444 21
403 2 12.2102 -10.2685 -16.4874 20
404 2 14.159 -13.5838 -11.1171 23
405 2 12.2285 -10.6363 -10.954 22
406 2 10.6315 -7.88248 -11.569 24
407 2 14.2402 -11.4708 -13.8505 23
408 2 13.8525 -7.81289 -11.35 23
409 1 7.16296 -11.8129 -10.6182 19
410 1 7.95409 -12.8968 -7.63883 22
411 1 8.87151 -8.79573 -11.1119 19
412 1 10.5753 -11.52 -10.4014 25
413 1 11.0696 -13.069 -7.66001 23
414 1 9.11694 -10.2356 -7.85013 23
415 1 10.6025 -11.1554 -5.36603 26
416 1 11.2166 -7.04378 -8.24351 20
417 1 12.2497 -8.75497 -10.6757 22
418 1 13.8005 -11.6543 -10.5468 23
419 1 14.0661 -13.1256 -7.57333 25
420 1 12.4497 -10.2702 -8.26506 22
421 1 12.4611 -8.21311 -5.53297 22
422 1 13.9496 -10.8057 -5.46769 22
423 1 14.0221 -12.3398 -2.56304 21
424 1 14.1735 -7.6298 -8.083 21
425 2 7.35558 -11.2328 -8.4526 22
426 2 10.6701 -13.0798 -5.78463 22
427 2 8.98532 -10.1017 -5.78386 23
428 2 8.5313 -8.72672 -9.04521 22
429 2 10.7523 -11.2318 -8.48233 22
430 2 13.8526 -12.8179 -5.6938 22
431 2 12.3427 -10.045 -6.03121 24
432 2 12.458 -8.41529 -8.77751 23
433 2 14.0473 -11.3724 -8.43622 24
434 2 12.721 -13.9059 -2.79939 22
435 2 14.0746 -7.27643 -6.00683 22
436 1 15.688 -14.3653 -15.6618 22
437 1 17.3804 -19.3186 -12.5628 24
438 1 15.4863 -16.2833 -12.4782 24
439 1 19.085 -16.346 -13.1361 23
440 2 15.3309 -16.1377 -15.7163 22
441 2 17.7585 -19.3566 -10.7422 19
442 2 15.9173 -16.3948 -10.604 22
443 2 15.6621 -14.7493 -13.6032 24
444 2 18.3415 -16.9791 -15.0046 21
445 2 18.9102 -16.4821 -11.1397 23
446 2 17.3012 -13.6398 -16.2246 19
447 1 15.8059 -20.0818 -9.91847 15
448 1 15.7767 -14.3456 -10.5142 24
449 1 17.5491 -17.3616 -10.0673 23
450 1 17.7554 -19.0362 -7.43829 22
451 1 16.0752 -16.087 -7.68696 22
452 1 15.5247 -13.6637 -5.43945 20
453 1 17.5961 -16.9855 -5.36369 17
454 1 18.8293 -14.5559 -10.4577 24
455 1 20.7348 -17.2895 -10.4039 20
456 1 19.3528 -15.9311 -7.90448 21
457 1 19.3811 -13.8008 -5.08711 20
458 2 15.9814 -19.7023 -7.96472 19
459 2 16.1141 -15.6026 -5.37452 20
460 2 15.5982 -14.2297 -8.47728 24
461 2 17.8299 -17.0533 -7.96168 22
462 2 15.563 -13.3517 -3.17566 21
463 2 19.1564 -15.8502 -5.61535 24
464 2 19.0535 -14.1993 -8.49288 24
465 2 20.9444 -17.2927 -8.34987 19
466 1 17.5432 -11.64 -15.9779 21
467 1 17.7332 -13.7401 -13.3048 24
468 1 15.9878 -10.8846 -13.2537 22
469 1 17.4763 -7.60293 -13.5743 21
470 1 19.6091 -10.9938 -18.3502 12
471 1 19.1761 -10.8492 -13.2473 24
472 2 17.3136 -14.7807 -19.4911 11
473 2 15.7758 -10.6084 -16.575 22
474 2 17.4941 -13.5642 -11.3164 25
475 2 15.6939 -10.8927 -11.4172 22
476 2 15.8869 -8.89478 -13.4156 22
477 2 17.5411 -11.8129 -14.0136 21
478 2 17.089 -7.42934 -11.4702 20
479 2 20.4888 -13.4302 -10.8342 22
480 2 18.6548 -10.6928 -11.2316 22
481 1 15.5054 -8.90762 -11.132 23
482 1 17.4792 -11.8883 -10.4609 23
483 1 17.3956 -13.3908 -7.65765 23
484 1 15.8132 -10.278 -8.1215 23
485 1 13.7273 -7.13601 -3.02069 21
486 1 17.5494 -10.4193 -5.46831 20
487 1 17.4422 -7.57369 -8.28068 22
488 1 19.0409 -8.59094 -11.13 22
489 1 20.3997 -11.5937 -10.6864 21
490 1 20.8364 -13.221 -8.02906 21
491 1 19.0763 -10.2106 -8.5505 23
492 2 17.5141 -12.8215 -5.65694 20
493 2 15.7664 -10.4128 -6.27281 24
494 2 15.9574 -8.62908 -8.88763 23
495 2 17.695 -11.5646 -8.48843 22
496 2 17.5235 -10.312 -3.53601 19
497 2 21.0248 -12.8168 -6.12219 19
498 2 19.2572 -9.98849 -6.6277 19
499 2 18.9546 -8.37936 -9.12036 23
500 2 20.8396 -11.1436 -8.55254 18
