ITEM: TIMESTEP
8000
ITEM: NUMBER OF ATOMS
2000
ITEM: BOX BOUNDS pp pp pp
-30.0 30.0
-30.0 30.0
-30.0 30.0
ITEM: ATOMS id type x y z Coordination
1 1 -11.8376 1.5439 -15.1988 8
2 1 -0.617775 -10.5979 -8.7501 19
3 1 3.41016 13.4263 10.3087 13
4 1 8.8232 -12.6734 5.90189 9
5 1 -10.7615 10.2649 -4.05174 17
6 1 11.3521 -10.8456 -9.72452 16
7 1 -11.0087 6.05334 -7.03586 18
8 1 -0.991216 -8.86589 11.8262 13
9 1 -7.20442 0.277106 -10.8233 16
10 1 -10.9318 -11.0816 8.18898 14
11 1 14.9855 0.55145 -11.3056 10
12 1 -3.51899 -0.245487 -6.15768 21
13 1 0.00106594 -14.1894 1.78057 19
14 1 -11.1383 -12.6295 1.47052 16
15 1 -2.60979 -1.4837 13.178 19
16 1 5.85113 -1.90344 3.81551 22
17 1 0.74005 5.90214 9.57592 23
18 1 8.43043 -1.82443 2.31099 18
19 1 -2.92043 6.91967 -11.5125 21
20 1 0.653098 -2.61877 14.5225 16
21 1 -5.98884 2.98566 -17.2627 12
22 1 -11.8297 -5.40147 13.4789 11
23 1 13.0028 4.2588 8.41263 20
24 1 3.34418 9.41747 -13.3744 19
25 1 2.87051 5.79125 -13.0261 19
26 1 13.6567 1.12164 12.2268 15
27 1 -6.12433 0.0628238 -0.566002 20
28 1 -10.6803 3.2627 -8.53889 17
29 1 -1.92071 -1.16883 -10.5758 18
30 1 -11.9252 6.31146 11.0002 12
31 1 5.20506 -15.8932 1.68432 18
32 1 1.83483 0.864589 7.37821 20
33 1 4.3123 -17.0088 -9.51924 14
34 1 10.3639 -12.0809 1.59678 17
35 1 -6.64591 -15.6689 -3.77903 10
36 1 -11.5434 -6.56242 11.1264 17
37 1 5.4591 -5.49187 -4.43731 22
38 1 0.959042 -8.54069 -12.4205 19
39 1 6.29946 -11.9545 -13.1383 17
40 1 2.88771 8.66409 -17.7409 9
41 1 -1.67691 0.677466 14.2389 20
42 1 1.69555 -13.3778 9.23856 13
43 1 6.84252 -4.64278 10.6445 21
44 1 -12.806 -3.97121 2.27561 17
45 1 -15.7944 -4.28104 9.17806 14
46 1 -7.68262 -4.64724 -1.7016 22
47 1 0.128516 12.7466 -2.56485 18
48 1 0.546661 -15.9699 -10.7091 14
49 1 3.89835 1.61275 -9.32928 17
50 1 4.65977 -7.5945 -13.0993 22
51 1 -2.90051 -6.38809 11.3487 19
52 1 -10.7352 3.69568 0.496106 21
53 1 3.96167 10.8306 -15.4914 12
54 1 2.47052 12.7723 7.21225 16
55 1 -9.69855 10.2618 -6.89634 18
56 1 1.0792 13.4684 0.257045 22
57 1 1.44915 -12.4639 3.30512 20
58 1 8.19271 -10.2042 -5.89905 14
59 1 7.41642 -6.1758 -14.6321 16
60 1 -9.79357 7.65151 12.7144 12
61 1 -9.82625 -4.93549 -9.05024 16
62 1 10.1011 1.75791 1.4626 17
63 1 -5.61434 6.33651 -2.97123 21
64 1 -7.63596 -11.778 6.05889 17
65 1 -1.65506 11.4819 12.2366 10
66 1 -13.4652 7.30136 -8.37094 7
67 1 -8.78028 7.70233 16.1319 9
68 1 -1.30953 4.99751 -5.24456 21
69 1 3.00258 5.77938 4.19853 22
70 1 -2.65697 -17.227 9.06778 11
71 1 3.36941 3.62873 8.92015 20
72 1 3.18544 -17.8728 -5.90565 8
73 1 0.502639 7.90559 17.6817 9
74 1 -12.5509 0.838954 -9.32704 9
75 1 -9.73008 2.53581 -11.3767 18
76 1 6.20674 6.59737 13.0027 21
77 1 10.8855 -5.10022 -10.7772 21
78 1 8.97769 -14.9029 3.42213 11
79 1 -17.212 -5.28207 6.27594 8
80 1 -10.3904 -1.48324 3.27739 25
81 1 5.81534 12.2988 1.83185 20
82 1 3.32074 -4.47685 11.2153 19
83 1 -4.75935 -17.9698 4.688 18
84 1 -8.39642 -1.70716 0.47938 23
85 1 13.3434 1.37715 6.31271 19
86 1 7.79948 -3.94481 0.0340481 17
87 1 -1.84533 9.276 9.51084 22
88 1 3.9778 -3.17021 8.58614 18
89 1 -5.10941 -6.47459 2.75685 17
90 1 -2.04448 -8.9901 -11.6379 17
91 1 -13.1121 7.58216 7.91599 13
92 1 -7.45046 8.63457 -2.45728 19
93 1 -2.93133 8.47513 -8.37076 17
94 1 4.51674 -0.762919 -4.6659 18
95 1 5.21185 -3.21504 -6.38371 20
96 1 10.9321 11.309 -9.50096 14
97 1 11.8997 -11.0631 4.75326 11
98 1 6.62683 -10.6287 7.60575 18
99 1 -5.46448 13.4954 -4.29803 16
100 1 -11.4916 9.20854 3.67543 15
101 1 -6.72518 -5.77217 14.6978 14
102 1 -4.58106 4.64919 5.93877 16
103 1 -5.99856 -7.16158 12.0738 22
104 1 14.2258 -9.62288 -6.24393 11
105 1 -8.98348 0.829406 5.80532 21
106 1 -11.3714 -15.6563 3.43361 8
107 1 10.7816 -6.17057 -7.2755 20
108 1 4.86465 -2.4362 -12.1442 20
109 1 -4.0426 -1.26708 -15.4102 20
110 1 7.72201 0.945465 3.51189 21
111 1 -0.736914 12.4632 2.82763 21
112 1 -6.35304 6.82074 -6.21854 18
113 1 0.448355 4.68713 18.1433 12
114 1 0.7671 13.7621 -5.52994 18
115 1 -14.1434 7.78082 1.25169 13
116 1 1.25761 9.77541 1.83822 18
117 1 -4.99309 -10.1021 7.39143 19
118 1 14.7868 -1.29274 10.0352 11
119 1 4.90403 -8.4134 -9.85071 18
120 1 2.64073 -6.40191 -5.65583 19
121 1 -2.2123 3.81958 9.10641 17
122 1 7.94298 -2.0343 12.7473 24
123 1 -10.0025 -6.53489 -1.38123 17
124 1 4.86477 -4.78447 2.73245 22
125 1 -6.23744 -10.8954 -4.82687 23
126 1 13.7662 -10.877 2.09944 8
127 1 -8.19431 8.51756 3.91567 21
128 1 6.71697 2.39802 -14.0019 20
129 1 9.48603 13.5671 -4.58889 14
130 1 -6.42838 -13.4149 12.5393 10
131 1 -9.14559 -15.5047 11.4648 10
132 1 -5.58419 2.72718 0.90464 22
133 1 3.99692 -10.3231 -15.5846 16
134 1 3.59762 3.52992 -6.71143 19
135 1 12.2252 -11.578 -0.637586 12
136 1 -0.801001 -18.2915 5.91843 14
137 1 -8.46997 -9.79444 -2.09723 23
138 1 15.9221 5.34224 8.48999 10
139 1 13.2602 -4.48054 -8.50245 19
140 1 -13.6454 -5.79739 6.61715 18
141 1 10.8343 11.2696 6.27356 17
142 1 16.9197 9.83029 4.44474 12
143 1 -6.57282 -0.0333645 16.0606 15
144 1 10.2298 6.50416 -3.90111 20
145 1 -3.10475 9.0819 6.66643 14
146 1 -4.54398 10.617 -6.18732 16
147 1 -0.635987 -7.16743 -9.44736 22
148 1 8.79299 -13.2883 -11.1111 15
149 1 2.75477 12.0595 -12.2509 13
150 1 9.46658 -2.0781 10.0964 16
151 1 4.23557 -2.42883 -19.2139 15
152 1 -0.349793 6.55004 -0.846937 21
153 1 12.19 1.28639 -4.30923 20
154 1 -12.3577 8.8388 -5.90449 14
155 1 -7.34038 14.1249 -1.55136 13
156 1 10.3548 -1.99369 -10.4758 16
157 1 12.4155 -9.35409 8.05587 8
158 1 -5.55141 3.86543 -7.96794 21
159 1 -7.71396 11.3168 8.09471 13
160 1 15.2497 6.90059 -10.9502 9
161 1 11.2677 9.21977 -3.4066 19
162 1 -5.06914 15.4462 1.01942 10
163 1 13.2878 9.60458 -1.68803 15
164 1 -1.276 9.98127 -3.96567 19
165 1 1.89495 11.0218 -9.93851 19
166 1 4.48468 6.75548 -10.961 19
167 1 -9.04176 -14.0364 3.68426 20
168 1 -13.5104 7.39049 -2.21188 10
169 1 -4.91704 -1.72988 -11.5115 19
170 1 1.19081 -11.1301 -17.3567 13
171 1 8.08168 11.4457 11.9677 15
172 1 0.243975 16.4507 5.95737 13
173 1 -10.2902 -2.83182 -2.79059 20
174 1 -12.2031 10.4115 1.08517 10
175 1 16.5799 -2.38408 -4.24222 13
176 1 -8.49991 3.1379 -16.8277 9
177 1 5.80995 -0.836365 15.4375 17
178 1 6.34074 14.471 3.92009 15
179 1 -1.14323 11.3454 6.94268 21
180 1 3.25125 -8.64118 -18.661 12
181 1 -2.79856 12.2723 9.28362 15
182 1 -0.145239 10.7954 -7.29712 22
183 1 5.32096 -7.08052 12.7359 12
184 1 -9.38274 -4.48614 3.24056 21
185 1 -2.22043 -11.482 -17.0067 9
186 1 -6.84741 9.60659 -8.1327 19
187 1 -1.8599 -13.1796 4.46384 18
188 1 4.92462 -14.4781 -3.84705 21
189 1 -4.26391 11.384 -12.0613 12
190 1 -15.4586 -0.728656 9.48614 12
191 1 0.263644 7.23597 -3.27314 24
192 1 10.9423 7.18443 -6.89129 19
193 1 -7.58906 5.13091 15.4514 13
194 1 0.289119 -11.1142 8.50575 17
195 1 -5.84479 3.38539 -2.28977 20
196 1 3.1482 14.6703 4.39442 17
197 1 1.19445 8.54635 11.2013 19
198 1 15.1407 3.07288 13.2675 9
199 1 -5.93823 10.5605 2.12168 17
200 1 15.2325 -6.48365 -6.55178 12
201 1 -4.72462 9.79746 9.36757 16
202 1 -4.54931 0.285713 -8.60759 20
203 1 14.5953 -7.51461 3.07108 11
204 1 -4.55155 -4.45177 6.707 18
205 1 -14.5376 -2.71574 6.6231 19
206 1 -8.52659 -11.0884 2.40764 16
207 1 6.76004 4.32404 15.0031 22
208 1 -13.089 -1.19189 0.42651 18
209 1 -4.53247 -17.9012 1.39282 13
210 1 -6.25714 -2.50439 -2.59836 21
211 1 5.64018 -8.10895 -6.22086 16
212 1 0.618623 8.57498 8.23365 20
213 1 -5.91118 0.334018 2.4446 23
214 1 6.94612 14.2174 10.7654 10
215 1 -8.32444 0.0167544 -2.81056 21
216 1 -6.34056 12.0849 -9.87102 13
217 1 -11.5914 -4.97508 -6.34859 12
218 1 -8.34437 -1.45642 11.9045 21
219 1 -1.00824 -10.9273 2.51718 23
220 1 3.62911 -15.0393 7.66347 13
221 1 -12.7885 5.69185 -0.410686 19
222 1 14.3141 4.49358 5.02667 19
223 1 6.54137 2.1913 -5.43287 20
224 1 -2.58596 -6.52947 -13.1242 20
225 1 4.5164 0.205687 8.22862 21
226 1 7.45503 -17.9867 2.17905 9
227 1 -0.212343 5.73447 -11.721 18
228 1 2.75502 -16.321 -12.9816 9
229 1 11.1164 -1.61269 -13.5726 12
230 1 4.30473 7.39437 -15.2825 13
231 1 -5.45788 -3.1859 -5.80148 18
232 1 -2.04773 12.6162 -5.45886 14
233 1 -9.70826 -12.1556 12.2833 9
234 1 9.09074 11.6435 -6.86167 20
235 1 -9.61145 2.50695 16.283 10
236 1 -4.26058 10.481 -3.14791 22
237 1 8.65138 1.12887 10.5443 23
238 1 -5.31813 -4.09 -13.8309 17
239 1 -0.559118 8.68647 -10.2375 22
240 1 4.65374 3.50588 -11.5992 21
241 1 -6.89062 -13.0198 8.45286 14
242 1 -6.87804 2.30567 7.08063 19
243 1 -6.31148 9.81573 6.48295 20
244 1 2.68812 -11.862 -4.97411 18
245 1 -3.73789 -20.479 1.57318 9
246 1 8.88056 -10.0241 -1.00053 21
247 1 2.19106 -8.74122 -0.749114 20
248 1 11.7961 5.11949 15.9638 11
249 1 4.86001 5.27391 -4.73866 18
250 1 -0.0145345 10.2524 -1.00921 22
251 1 -8.79023 0.845511 2.49782 19
252 1 -9.58684 6.34907 -0.533814 16
253 1 3.53467 6.3109 11.0826 19
254 1 5.27963 -19.0851 0.289829 11
255 1 13.6936 -1.70001 -3.90479 22
256 1 5.72544 5.99756 6.31955 19
257 1 -9.8875 3.84176 6.57666 20
258 1 -7.86377 -8.04435 -4.00648 21
259 1 10.1705 3.32497 -10.2861 21
260 1 0.308835 -5.71879 10.9889 16
261 1 9.76587 9.70662 -11.6687 13
262 1 -0.411306 -11.394 -5.76668 22
263 1 -2.18707 -3.67977 -14.8138 17
264 1 1.12203 -19.0161 3.05904 14
265 1 8.47379 -2.45954 -7.66564 19
266 1 -11.6433 -6.75658 1.5078 18
267 1 7.81493 -16.1456 -2.86522 19
268 1 -6.76038 -8.73514 -9.57016 15
269 1 7.05969 12.2931 -4.56929 23
270 1 2.72923 -4.57305 -13.3839 23
271 1 7.27029 0.930844 13.2982 23
272 1 16.8177 -0.560081 -2.39436 15
273 1 -6.16817 -9.75289 1.02679 18
274 1 10.853 -7.56239 -13.3238 10
275 1 -3.65713 -8.82679 2.7001 19
276 1 -5.8912 -6.28743 -11.3078 13
277 1 -7.9267 4.40649 -12.9369 17
278 1 -6.05691 -16.101 10.8699 10
279 1 10.6362 0.166958 12.384 21
280 1 5.43058 0.660132 5.4848 20
281 1 -2.8697 -10.1376 -13.8249 11
282 1 1.58411 -10.1848 5.19689 19
283 1 1.11766 3.69553 -13.9277 17
284 1 6.57297 8.95935 0.8238 19
285 1 -4.08396 -11.5874 4.49719 17
286 1 3.21671 10.9862 -0.324949 22
287 1 -6.8805 -4.10165 11.9348 21
288 1 -10.0623 -8.71438 -9.84112 9
289 1 -4.14301 -7.28231 -9.65584 18
290 1 0.162479 7.81139 -17.2566 10
291 1 -3.33334 -11.168 -6.25311 22
292 1 -3.91089 -12.5604 1.72883 21
293 1 7.21266 -9.15278 -11.5864 22
294 1 15.8078 -2.45597 -9.60788 11
295 1 12.1897 2.04482 3.81902 21
296 1 -4.6797 -4.91808 -2.42402 20
297 1 -10.0122 -3.53024 9.37962 18
298 1 -3.27991 -10.1851 -0.0937624 21
299 1 6.55734 1.81532 16.8285 17
300 1 -4.43205 -21.558 4.71561 8
301 1 2.11896 2.22226 -4.50917 17
302 1 -0.154722 -11.2925 0.250703 21
303 1 0.305886 16.1642 -0.771228 13
304 1 7.79557 -3.15743 -10.9898 21
305 1 -4.89516 -5.72968 -18.5962 5
306 1 6.73213 -7.44953 3.54362 21
307 1 -9.72094 -8.44955 13.9349 10
308 1 0.512109 1.93507 16.3508 16
309 1 3.69866 -12.4073 -2.19845 21
310 1 -2.9857 -12.8579 -13.4909 9
311 1 -8.83455 7.88858 -7.785 16
312 1 11.1976 4.9898 6.33982 18
313 1 -3.50248 1.66926 -10.5508 23
314 1 -0.553882 5.51609 -8.56943 21
315 1 -4.45506 -4.30331 10.1361 19
316 1 7.71868 -16.1911 -9.51433 12
317 1 -3.99601 13.4145 -1.31702 18
318 1 2.60303 11.3333 3.09768 20
319 1 11.8978 -1.09131 6.16125 17
320 1 -8.61652 -2.97165 5.92132 23
321 1 -3.11182 -10.4471 13.4553 9
322 1 -5.07054 7.8089 3.25582 19
323 1 2.18446 -7.82338 -15.8307 19
324 1 13.1817 6.78815 -3.67638 20
325 1 4.9771 -10.6976 0.556381 17
326 1 -1.06119 -4.8806 13.8493 17
327 1 -15.5786 -7.33053 7.96747 11
328 1 4.8353 -18.1217 -2.76377 13
329 1 -7.92751 5.39297 12.1638 18
330 1 -10.6169 5.36918 14.407 12
331 1 -14.3365 -6.38113 10.7821 12
332 1 -11.8825 -7.55031 8.16032 21
333 1 10.5675 -6.06363 -3.6352 17
334 1 -10.3581 -9.40354 10.8621 16
335 1 8.05704 -5.34574 -9.24325 21
336 1 11.0674 -14.4624 -4.10384 11
337 1 5.75782 14.7637 -3.11565 17
338 1 -2.13389 -2.73365 5.99117 16
339 1 -8.92552 13.0757 -4.03547 11
340 1 3.42295 2.9777 5.64514 21
341 1 13.4515 6.79406 6.4753 18
342 1 -12.0921 -3.6417 5.21157 21
343 1 11.36 -9.34582 -3.31828 15
344 1 -3.64529 12.9345 2.2144 19
345 1 -7.34847 6.51575 5.96203 19
346 1 6.17934 -13.1659 5.61438 16
347 1 10.66 -4.09622 3.06084 17
348 1 -2.01047 6.31532 7.83004 19
349 1 -8.02707 -4.11256 -7.48106 17
350 1 -0.606159 -0.678598 16.8955 13
351 1 0.418807 12.7268 5.18421 19
352 1 9.5 2.24976 14.2722 20
353 1 -9.38008 11.6943 -9.86224 12
354 1 3.90809 -5.86841 -19.4756 12
355 1 -7.80746 1.76782 -8.49207 19
356 1 9.17728 -10.367 -12.2921 17
357 1 -8.79705 4.0897 9.72426 18
358 1 -14.6707 1.89116 3.65358 15
359 1 -3.35061 -2.96084 -7.82534 20
360 1 -4.65459 8.33723 -0.103938 22
361 1 10.0183 -4.21677 6.47887 18
362 1 -9.77514 -15.2233 1.22823 15
363 1 9.43609 -10.5077 9.87526 8
364 1 -7.761 -10.1415 12.6404 14
365 1 -7.9287 5.83195 2.2528 20
366 1 -1.44916 -4.92105 8.88284 17
367 1 6.21232 -16.0668 -6.19939 14
368 1 -3.50631 -4.57192 -10.5824 22
369 1 8.88283 -2.81409 -15.8629 14
370 1 3.46851 14.1484 1.89354 20
371 1 -9.44383 1.14855 -5.21613 19
372 1 3.66876 -10.3548 -12.5137 22
373 1 10.1167 3.78874 -13.6655 16
374 1 2.15573 -16.5176 -3.50051 17
375 1 -9.79884 -5.29772 -4.22935 21
376 1 -2.39767 -7.11841 -1.82231 20
377 1 9.86593 2.31539 17.154 10
378 1 15.3284 3.83399 -3.37466 18
379 1 -6.06869 3.01864 -10.798 22
380 1 6.19359 14.7048 0.00740718 15
381 1 -13.657 -2.63047 -2.52974 12
382 1 -10.0447 6.3186 4.71895 19
383 1 -7.82485 8.85778 0.662101 21
384 1 -6.10253 5.36344 8.60311 19
385 1 9.28669 5.67778 13.719 20
386 1 10.8022 -3.62738 -5.6426 19
387 1 8.70445 -5.52189 13.2501 14
388 1 14.6615 1.20103 -4.56845 17
389 1 -6.65628 -17.1217 -0.566286 11
390 1 6.61801 3.29827 6.80293 20
391 1 -3.04561 5.52128 0.608731 21
392 1 0.388785 -8.27378 -3.40566 23
393 1 -0.317001 9.56276 4.38892 17
394 1 -7.1506 3.54206 -5.31707 17
395 1 5.94152 -7.82981 -1.60938 19
396 1 12.4474 -3.53503 10.2876 15
397 1 -8.42317 -2.62065 -4.89307 24
398 1 -8.23557 -12.289 0.0631424 19
399 1 -6.29021 -8.73778 15.0492 9
400 1 -2.49855 11.3322 -0.292026 19
401 1 -9.69009 -11.3178 -4.56188 16
402 1 5.74836 7.17803 16.0341 12
403 1 -11.3716 6.53333 -3.65552 22
404 1 1.92254 7.94587 -8.43923 21
405 1 7.2 11.8332 5.75135 21
406 1 -10.9939 -8.07903 -3.87503 15
407 1 -2.9362 -9.02486 -8.01864 22
408 1 -12.7812 -3.49681 8.77915 19
409 1 -14.1663 5.94933 -5.47309 13
410 1 6.79965 -8.06821 6.17701 19
411 1 -4.15465 -15.5989 -2.6146 15
412 1 15.2245 11.0649 9.95021 8
413 1 6.83954 8.76521 -14.1835 15
414 1 -12.697 2.63526 -12.4205 8
415 1 0.0458938 13.6921 -8.71302 12
416 1 -8.71634 7.52477 -4.64648 18
417 1 -1.37464 -13.3088 7.97064 20
418 1 14.858 4.01093 2.20556 20
419 1 0.167498 7.40287 -13.5384 18
420 1 -4.54579 0.406435 8.24697 16
421 1 -11.9637 1.2343 2.2246 17
422 1 -9.74685 6.75095 7.93664 19
423 1 -4.10874 -15.1514 2.96338 18
424 1 0.180935 -8.41534 -6.51602 17
425 1 8.48884 -10.9918 -9.22999 19
426 1 -0.0720279 -4.9451 5.70641 20
427 1 -13.9226 -0.888178 4.28085 19
428 1 -13.8182 -3.27892 11.7331 15
429 1 -15.248 4.84652 2.42154 14
430 1 -0.385507 -7.76765 7.42324 20
431 1 -6.29785 5.83221 -16.2413 9
432 1 10.5514 -12.4948 -6.8413 15
433 1 1.0509 -11.2572 -14.4635 15
434 1 0.610834 -2.92551 11.831 17
435 1 4.02035 -9.13116 -3.6275 17
436 1 -2.77657 0.993199 -17.5053 16
437 1 6.16747 -14.0998 -0.947497 20
438 1 4.11641 13.1909 -5.29908 19
439 1 -13.6636 6.59371 4.62685 14
440 1 -4.49602 -0.929857 18.5074 11
441 1 -11.1456 -5.70942 -11.7082 7
442 1 -10.9807 -10.9391 4.73018 16
443 1 9.78174 -4.9317 9.87336 19
444 1 5.92792 3.83668 -2.12405 17
445 1 -2.02342 5.77451 4.07493 19
446 1 2.39102 -2.53002 -7.60071 16
447 1 9.3795 -9.44961 5.27526 21
448 1 14.6874 6.29303 -8.10668 16
449 1 0.349034 3.15891 10.7251 22
450 1 4.22756 12.849 -1.72385 20
451 1 7.82957 -5.62078 7.59179 18
452 1 0.981441 -14.3435 -5.23716 18
453 1 -5.13558 7.34667 15.8567 10
454 1 -2.75916 15.3264 7.57667 10
455 1 -5.80924 -11.4871 -8.08757 20
456 1 13.8437 11.8935 -0.0385626 12
457 1 8.61977 7.60039 10.983 19
458 1 -5.62931 1.88874 10.1287 20
459 1 -4.91762 -8.32647 -3.05053 21
460 1 -10.5002 1.69287 8.51425 17
461 1 -4.92473 -8.38206 -6.03085 21
462 1 -9.21518 9.21596 6.54545 17
463 1 -1.02279 -16.2279 -3.2026 16
464 1 -1.10334 -8.58472 -15.8591 17
465 1 -5.71715 -14.3278 5.28501 16
466 1 -6.88019 -5.58208 4.85939 17
467 1 9.03428 3.76994 3.90382 20
468 1 -3.20653 -7.23921 13.7811 16
469 1 -10.7054 4.49037 -14.6711 11
470 1 12.2241 4.00968 -2.85548 20
471 1 -7.58226 -13.1185 -2.98146 19
472 1 0.351018 3.28071 -7.13236 18
473 1 0.528632 15.4931 2.68127 17
474 1 -3.7281 6.17436 -7.7705 23
475 1 -1.28552 6.63276 11.4651 20
476 1 -15.7335 -5.31366 -2.70796 8
477 1 3.74017 16.1323 -5.70098 10
478 1 7.70038 11.1096 -10.0094 19
479 1 -4.14978 -11.3831 -10.7023 14
480 1 2.32379 -0.368027 15.2176 17
481 1 3.9812 -13.8946 -7.03855 17
482 1 0.897034 -5.99688 -11.6385 18
483 1 8.42267 -15.0793 0.835976 14
484 1 -11.5028 6.94933 2.40407 21
485 1 4.17458 3.17735 12.33 22
486 1 8.68617 9.49374 -4.76653 21
487 1 2.70303 8.27113 -1.54622 22
488 1 -7.94639 9.00992 -10.5303 18
489 1 6.2553 -0.281655 -7.48453 17
490 1 -1.7065 -10.2362 5.63208 23
491 1 -13.7943 -8.26162 -1.76691 12
492 1 3.54026 17.1307 3.85224 8
493 1 -2.1902 6.79007 -15.0253 16
494 1 12.3236 4.64555 0.705682 19
495 1 9.37402 14.5058 -7.91914 13
496 1 10.175 -8.8052 2.24873 19
497 1 19.1825 0.0767229 -4.76366 9
498 1 1.59799 -0.111998 -9.93595 16
499 1 1.92056 -9.12248 1.85362 20
500 1 0.842143 -14.2872 5.9487 20
501 1 3.07328 -9.45423 7.50156 16
502 1 -8.16801 5.40182 -9.82006 18
503 1 -8.11994 -15.8454 5.81365 14
504 1 1.00342 -11.7735 -11.5002 14
505 1 9.58107 14.6623 4.59822 11
506 1 3.20841 1.00242 -12.705 18
507 1 4.40671 -3.06562 14.6105 12
508 1 -13.4266 0.203905 11.7525 13
509 1 0.908313 -18.53 -1.74451 12
510 1 -14.8613 -7.11009 0.314904 11
511 1 14.9197 -3.30946 -6.74108 16
512 1 7.79017 -2.59206 -3.94558 22
513 1 -2.81434 5.2042 -2.487 20
514 1 2.64402 -10.3706 -7.82571 16
515 1 5.91636 0.0724255 -11.1968 20
516 1 8.02133 -5.60902 -6.11884 22
517 1 -2.14166 1.38167 18.7195 11
518 1 9.15524 12.8137 1.40988 17
519 1 -1.86663 -2.4884 -17.7545 16
520 1 6.40321 1.66972 -17.0579 9
521 1 -9.44295 -8.5068 6.12856 19
522 1 -1.67587 14.4271 0.0334333 18
523 1 -7.03617 -1.64417 -14.0953 17
524 1 -16.6146 -1.3584 3.7703 9
525 1 0.0853823 -9.9507 -19.7926 10
526 1 -4.14782 -12.6819 10.1335 16
527 1 4.61251 6.99513 -7.41602 20
528 1 15.0602 1.82057 9.24287 15
529 1 17.9171 2.31487 -1.03874 11
530 1 -10.4513 -13.3564 -1.85992 11
531 1 1.01288 -11.2942 -2.76151 22
532 1 1.22298 -3.73181 -18.9475 14
533 1 -10.805 9.25942 9.52813 12
534 1 0.221739 -5.35842 -6.97069 19
535 1 5.03671 4.11641 0.583578 21
536 1 11.4596 -3.14199 -2.20992 18
537 1 2.7196 11.7976 -7.19463 20
538 1 4.38273 -7.95776 4.77757 16
539 1 16.818 3.80099 -10.1423 12
540 1 3.728 5.05239 14.5885 19
541 1 -12.367 2.15459 5.70822 19
542 1 6.86664 9.46262 9.29738 19
543 1 8.01517 -3.32202 15.4154 11
544 1 1.86574 0.786251 -15.2646 19
545 1 -5.74183 -5.87986 -7.87317 21
546 1 1.69188 -1.95244 9.34938 21
547 1 8.03928 8.62079 5.22766 18
548 1 9.82653 7.06539 -9.3957 18
549 1 -6.95238 12.8739 -6.99149 13
550 1 1.91042 10.9142 -3.94536 20
551 1 11.7574 -5.50224 12.1972 11
552 1 8.65794 0.840104 -11.5728 18
553 1 12.5277 -11.5656 -5.05068 10
554 1 11.5673 7.85091 14.847 13
555 1 -12.5148 -9.57043 2.44252 11
556 1 -7.73706 10.4487 -13.0359 9
557 1 -0.784231 0.553417 8.52921 18
558 1 -10.881 -2.43659 12.7872 18
559 1 -2.73171 11.6898 -9.60352 13
560 1 9.40392 -13.1526 -1.46114 16
561 1 5.37286 -2.64388 -9.50162 21
562 1 -1.94072 14.9765 -3.3273 12
563 1 -6.50552 -3.10078 -16.6369 12
564 1 5.02087 -15.5417 5.19948 15
565 1 -13.3157 -11.313 -0.527208 9
566 1 0.755317 9.98389 -15.2008 11
567 1 -5.75878 0.842219 -4.35271 21
568 1 -3.1626 6.90803 13.6823 16
569 1 -11.5246 -7.09223 4.22425 22
570 1 5.45455 6.78283 -1.50332 20
571 1 3.1349 -13.6945 -12.5335 17
572 1 6.28067 -9.46423 10.8269 15
573 1 7.33333 0.487381 -3.43182 20
574 1 -9.62963 3.21194 3.68038 21
575 1 3.16658 2.24681 17.6268 9
576 1 6.30239 13.0457 -8.03084 17
577 1 12.6802 -6.85268 -5.4139 20
578 1 3.96039 7.64859 8.37442 19
579 1 2.12642 5.10174 -16.9205 12
580 1 -4.29928 -15.0834 8.51534 14
581 1 -1.08816 0.0683773 -7.97946 20
582 1 8.97381 0.696114 -14.8193 15
583 1 5.61417 12.6377 8.4397 18
584 1 9.89495 0.207178 -8.74102 19
585 1 0.877885 -2.82321 -15.4911 24
586 1 -3.83542 -12.8142 -3.13458 18
587 1 -9.55985 -2.93342 -11.01 13
588 1 15.0976 2.30849 -0.941542 19
589 1 17.7228 2.96391 -4.46366 12
590 1 7.7054 -7.97964 -8.09139 21
591 1 14.2629 6.54603 13.3396 14
592 1 5.44158 -12.327 -5.79734 16
593 1 3.62864 3.35031 -15.2362 15
594 1 10.0268 10.1921 0.525048 20
595 1 -6.96916 3.11077 3.42634 18
596 1 8.59691 6.90809 16.6283 12
597 1 15.4864 6.41416 -4.75686 13
598 1 15.0599 -1.25347 1.15153 13
599 1 12.2946 2.23639 -8.56919 18
600 1 7.66402 3.62812 11.7575 19
601 1 14.0662 4.29004 11.1928 17
602 1 1.91149 -5.82029 8.34573 19
603 1 14.2185 9.35709 -5.20761 14
604 1 7.34181 0.85782 0.125473 20
605 1 -2.92717 -2.59811 16.061 17
606 1 16.9806 -0.774151 -7.0904 14
607 1 10.802 3.28286 11.362 17
608 1 -6.86719 -3.43455 -10.3537 19
609 1 17.8262 2.90125 2.09104 10
610 1 9.63427 -6.78541 4.30012 18
611 1 -0.857606 -8.00413 0.632174 20
612 1 -12.2055 4.63381 8.88434 14
613 1 10.5955 7.89793 7.93757 15
614 1 12.5439 2.19288 15.4726 10
615 1 3.49482 10.265 9.26382 22
616 1 0.888284 11.7927 9.78081 20
617 1 7.48819 0.642398 7.74453 19
618 1 -0.822897 -19.8685 0.355596 12
619 1 -7.39384 10.3133 -4.82387 20
620 1 12.725 8.26367 -11.5596 11
621 1 13.2514 -3.67606 -11.3975 13
622 1 3.74747 16.2829 -0.684062 13
623 1 0.665343 -13.2392 -8.38705 17
624 1 10.1606 -7.9494 -10.4212 22
625 1 -15.3661 0.474836 6.1735 15
626 1 -5.8083 6.61286 -10.1749 21
627 1 -1.52459 -20.6928 4.11513 13
628 1 -4.63378 -0.359795 -18.3631 11
629 1 -11.8211 0.39616 -3.759 15
630 1 12.4219 -8.30406 5.4063 16
631 1 15.4299 11.5439 6.3707 10
632 1 3.46371 -12.1708 6.58406 23
633 1 -11.5049 -2.22152 -5.37718 16
634 1 3.91789 0.150604 -17.7926 11
635 1 4.97387 -5.10764 6.4704 20
636 1 -4.82898 4.12988 14.7065 17
637 1 5.24471 10.9235 -12.1044 16
638 1 13.0794 -2.03494 12.9573 12
639 1 9.59169 2.68905 -7.17482 18
640 1 15.3505 11.7337 2.47467 11
641 1 2.36968 -16.31 -8.25497 12
642 1 -8.11687 -2.65877 14.3975 15
643 1 13.3604 -1.64692 3.81594 19
644 1 -0.0656551 8.56983 13.9415 17
645 1 8.99961 13.3427 -11.1407 9
646 1 -10.9781 8.80263 -1.50543 19
647 1 8.3138 10.7088 2.84677 19
648 1 -6.70054 -14.5341 2.13131 19
649 1 13.4771 -4.21097 1.3993 13
650 1 12.0184 14.8024 1.59554 8
651 1 -4.63707 3.92619 11.4196 19
652 1 -8.48373 -7.54062 3.25083 20
653 1 -12.1148 -2.735 -8.70349 11
654 1 6.32493 -1.42884 10.3909 19
655 1 -2.38213 -9.9495 9.01994 22
656 1 8.21604 8.94177 14.0069 15
657 1 -7.13659 13.611 1.78606 15
658 1 10.2015 1.62587 -1.56439 18
659 1 4.62954 -7.71305 1.58553 21
660 1 7.84371 4.14233 1.12261 16
661 1 4.1406 -2.06642 -15.4527 22
662 1 -8.64117 -0.743626 8.29018 19
663 1 9.69689 -4.6404 -13.2325 15
664 1 -1.93579 -7.85069 -4.74355 22
665 1 10.8881 -9.51366 -7.2782 21
666 1 8.94715 3.63665 8.6985 19
667 1 6.13746 6.59474 3.34957 19
668 1 -9.48226 0.107224 14.6031 15
669 1 10.9852 10.7382 13.4063 9
670 1 2.31398 -5.3118 14.0976 12
671 1 -1.68744 3.01618 13.2201 21
672 1 0.0961208 -5.65157 -14.9225 22
673 1 -2.53109 1.5134 10.68 22
674 1 -2.77425 2.42308 -3.64025 21
675 1 6.05858 2.12607 10.1251 19
676 1 -8.64905 -16.9798 8.49857 11
677 1 14.6826 5.39426 -1.0024 16
678 1 7.79152 -12.6051 -3.67706 16
679 1 -2.58901 2.79256 -7.07977 23
680 1 8.13171 8.13936 -1.89854 21
681 1 11.8092 11.9682 2.96732 17
682 1 7.12752 -1.23871 -17.2004 14
683 1 0.325723 -1.88689 6.90577 20
684 1 2.33235 14.957 -2.88275 19
685 1 13.0792 8.46273 1.26832 19
686 1 -5.83882 -11.0003 -1.88094 20
687 1 1.18547 -0.82387 -17.8659 13
688 1 -9.81186 11.4935 -1.1931 14
689 1 7.88098 -6.91439 -11.5631 25
690 1 5.52122 3.65778 3.72505 21
691 1 12.0092 5.95015 -12.6244 13
692 1 12.3784 12.3321 -3.44672 13
693 1 -1.88268 3.47592 5.94044 16
694 1 -8.17708 2.16639 -0.0934303 19
695 1 2.6224 5.31129 -2.50265 20
696 1 10.3354 -0.645848 14.9536 17
697 1 10.4684 -3.03777 13.1374 19
698 1 -1.25761 -12.126 11.3621 14
699 1 -5.15929 8.61142 -13.1147 17
700 1 8.8012 11.8469 8.54979 13
701 1 6.91872 -9.76368 -14.6727 15
702 1 2.52825 1.0085 10.7842 19
703 1 5.83439 10.5092 -6.55088 21
704 1 10.9596 6.21092 3.78342 18
705 1 14.1263 -8.07241 -3.0962 14
706 1 5.65148 4.6613 17.385 14
707 1 -9.60643 -5.51487 6.77561 21
708 1 2.10187 -15.8552 2.53359 19
709 1 -0.652202 -3.86858 -9.49945 19
710 1 -6.62981 11.3144 -0.999947 19
711 1 1.44234 4.1792 7.24719 17
712 1 8.14142 -7.26999 0.507957 18
713 1 4.91491 9.7234 3.4237 20
714 1 -14.7356 -5.84551 3.46334 14
715 1 -5.11218 2.85499 17.6934 13
716 1 -5.87645 5.68899 -12.7606 18
717 1 -8.47309 7.22571 -13.4179 13
718 1 2.61648 -12.9758 0.319035 17
719 1 7.46109 5.4352 -6.26963 18
720 1 2.22833 -6.10336 3.75904 18
721 1 0.650822 6.88882 2.31732 19
722 1 -13.3921 3.60021 12.2477 12
723 1 5.36482 -4.155 -14.0555 18
724 1 4.61924 -11.9571 9.37711 12
725 1 6.99578 12.1248 -0.948748 23
726 1 -3.52973 0.619188 16.0964 22
727 1 -8.04907 -4.62046 -13.3659 13
728 1 -2.27336 -8.15466 -19.2341 10
729 1 -2.53484 -12.7512 -8.52263 20
730 1 3.02682 14.572 -8.93079 9
731 1 5.03532 -5.95619 -8.12005 22
732 1 -3.63106 10.6482 4.52146 20
733 1 5.92582 -13.9002 -9.86552 17
734 1 7.81295 -18.8939 -1.22276 9
735 1 5.10906 -6.76241 9.14482 19
736 1 15.8108 1.51706 -8.83656 13
737 1 6.02307 -11.1911 -2.46982 16
738 1 -11.1579 -1.04845 10.1189 21
739 1 1.90661 0.320008 -6.40777 19
740 1 -3.42037 -18.5789 -1.5573 11
741 1 -4.57187 -14.706 -6.34524 15
742 1 -10.5784 1.10405 11.7747 18
743 1 -8.65824 -17.8318 2.4175 10
744 1 15.6674 4.04262 -6.83251 17
745 1 -5.10641 14.1149 4.70992 14
746 1 -4.59777 2.00916 5.13367 18
747 1 -14.1249 2.61749 0.418818 17
748 1 11.6005 -1.05205 -0.610501 19
749 1 -9.94265 -1.23187 -13.6666 9
750 1 -0.518505 7.88245 -6.57817 22
751 1 12.266 -0.954103 -6.7421 17
752 1 5.09899 12.113 12.8476 10
753 1 9.09252 3.64714 -4.3923 19
754 1 -13.1646 3.4815 -6.84017 12
755 1 -9.15956 -6.61872 -6.69261 17
756 1 -2.48462 3.95488 16.4621 16
757 1 7.75867 5.14892 -10.712 14
758 1 13.1383 9.84902 8.14336 20
759 1 -2.06938 -2.16265 9.40574 21
760 1 -1.95946 -13.0647 -0.878196 18
761 1 -5.85861 -17.525 7.87573 16
762 1 -3.78222 -7.28781 8.58993 19
763 1 12.969 9.65967 12.1169 13
764 1 4.77356 -11.5287 -9.72531 17
765 1 -6.5395 5.88602 -0.152239 20
766 1 9.41831 7.31936 1.34176 19
767 1 -8.71545 -6.88549 9.67254 19
768 1 9.01615 6.80118 -12.7992 16
769 1 -0.820021 -17.3521 -5.88158 11
770 1 2.13421 -21.0307 0.52137 8
771 1 -1.41951 -16.6971 0.568751 19
772 1 6.77611 2.94357 -8.9928 19
773 1 9.87764 13.8612 -1.1179 12
774 1 -0.958666 -0.878276 -14.8127 21
775 1 -0.42247 0.0219707 11.3229 19
776 1 -2.80213 4.2407 -16.8441 14
777 1 -6.21801 0.466074 -15.6538 16
778 1 -11.0368 -3.623 -0.311487 22
779 1 6.88208 15.2164 -5.74651 13
780 1 8.26248 -1.33886 -1.37903 21
781 1 -1.65026 -5.61151 -17.785 15
782 1 -5.55869 -7.66041 -0.506169 23
783 1 12.233 5.66961 -9.58969 20
784 1 14.6261 -8.81626 0.52848 10
785 1 -7.57836 7.67826 10.0511 16
786 1 7.01808 -12.8425 2.36558 20
787 1 14.229 -6.12665 -0.378241 14
788 1 11.9801 -5.77372 8.10881 14
789 1 3.02361 8.8925 6.05111 19
790 1 -12.2231 2.1864 14.4298 11
791 1 -7.52876 1.93518 12.3084 14
792 1 0.180737 -16.6685 8.20607 12
793 1 10.962 -0.552238 2.86142 18
794 1 5.50142 8.75834 11.4217 18
795 1 -14.7159 -3.58464 0.406507 12
796 1 8.13713 -7.5838 -3.85057 18
797 1 -11.7512 12.4293 -6.97471 7
798 1 3.75471 7.56454 1.44279 19
799 1 2.29087 -17.4503 5.41458 16
800 1 4.39906 -0.316357 12.9142 18
801 1 4.16024 12.315 5.46894 21
802 1 5.53709 -10.6656 4.16685 18
803 1 -7.42632 -5.0444 1.06381 20
804 1 1.24392 1.99116 13.53 20
805 1 -13.1171 -6.60091 -4.54491 9
806 1 0.0830165 5.93769 15.2524 18
807 1 5.30229 10.0046 -2.89059 20
808 1 -10.2932 -14.1909 6.41971 13
809 1 -3.45585 -19.6572 7.37814 11
810 1 9.53667 -7.78355 8.33995 18
811 1 13.2902 -5.15865 4.76874 16
812 1 8.34954 6.26133 5.98943 17
813 1 -2.57919 8.21986 -1.66844 22
814 1 2.19352 -7.52436 -9.21308 20
815 1 -3.38399 0.556065 -13.1564 17
816 1 -4.35092 -4.58202 13.7496 19
817 1 -2.17245 14.1656 4.63627 17
818 1 15.6136 1.07311 3.72813 15
819 1 1.89527 5.88781 -5.80186 22
820 1 -6.494 7.69764 13.6777 13
821 1 11.9462 6.637 10.3608 16
822 1 5.07286 -5.54557 -11.028 21
823 1 -5.32282 -14.3629 -0.647012 20
824 1 -7.15783 -0.683861 -6.34931 18
825 1 15.4252 -0.579991 6.89416 14
826 1 2.52509 -4.48434 -10.3216 19
827 1 1.2954 5.33229 12.5019 19
828 1 10.306 -14.5451 -8.87527 11
829 1 6.46197 5.33349 -13.7403 19
830 1 -2.06454 -10.2735 -2.83077 23
831 1 13.3932 3.3858 -11.4829 16
832 1 14.7867 -3.10478 -1.09888 18
833 1 2.99964 -7.88896 10.7362 13
834 1 -1.84448 -14.1409 -10.9808 14
835 1 9.04692 11.7341 -2.62565 17
836 1 -0.37433 -7.61326 4.23614 21
837 1 -14.1664 4.61689 6.65401 13
838 1 12.3597 4.7121 -5.9773 23
839 1 16.8559 6.17072 3.90934 12
840 1 5.28714 -7.72635 -16.9982 15
841 1 -9.23244 11.4067 2.47318 15
842 1 15.9791 8.57179 6.95115 17
843 1 11.7427 10.3 -6.34234 15
844 1 7.07261 -1.01405 -14.1042 19
845 1 10.7966 -5.67694 0.0177754 13
846 1 -10.4904 -0.0507063 -0.836263 21
847 1 11.1786 9.20519 3.25549 18
848 1 -13.2573 -10.5098 -3.70019 8
849 1 -10.694 5.9246 -10.1907 13
850 1 6.34814 5.68578 9.60121 21
851 1 -10.2345 -0.590109 -7.83019 14
852 1 -11.4388 -0.958504 6.46727 21
853 1 -3.58278 4.32083 -10.197 20
854 1 13.0754 -7.58211 -8.66763 15
855 1 -8.52748 -9.51388 -6.94928 16
856 1 11.9441 -8.32134 -0.558406 17
857 1 -16.2946 1.2334 1.37913 10
858 1 -6.28661 -5.68793 -4.58047 22
859 1 13.4047 9.90145 4.75716 21
860 1 -6.65762 -7.28173 6.99304 17
861 1 8.2828 -0.4997 17.4924 11
862 1 13.8131 -3.46366 7.38618 12
863 1 7.72892 -4.27052 4.76561 22
864 1 -12.2749 4.17963 3.4197 23
865 1 3.17655 10.5308 12.615 12
866 1 7.11253 8.26569 -11.085 18
867 1 0.727216 -6.83919 -19.64 12
868 1 -4.28111 12.4491 6.72945 19
869 1 -10.4841 -14.0548 9.36612 11
870 1 7.85107 8.38069 -7.91559 19
871 1 2.43416 8.14228 14.9502 15
872 1 14.3796 -5.10101 -3.84465 19
873 1 8.57891 -7.33708 11.2683 16