ITEM: TIMESTEP
3000
ITEM: NUMBER OF ATOMS
500
ITEM: BOX BOUNDS pp pp pp
-30.0 30.0
-30.0 30.0
-30.0 30.0
ITEM: ATOMS id type x y z Coordination
1 1 6.59165 -0.784708 5.89505 12
2 1 2.05762 6.12839 6.31485 20
3 1 7.87306 -0.747075 3.06201 17
4 1 -7.54634 -0.515973 0.270335 18
5 1 -1.34034 1.46996 -11.8024 12
6 1 0.0729387 0.149096 5.87564 19
7 1 -8.32551 -1.49748 -2.05581 22
8 1 2.18058 2.54505 -11.4214 13
9 1 3.9493 -6.59926 -2.26384 20
10 1 6.62091 4.86933 3.57202 16
11 1 0.276854 6.92709 -7.68405 21
12 1 4.65564 6.00253 7.51061 13
13 1 -10.5218 -6.07144 1.21577 10
14 1 -11.432 -5.38501 -2.06232 11
15 1 7.84528 -2.85368 -3.70768 16
16 1 5.62895 1.46872 3.72798 21
17 1 -7.40567 -6.3121 0.442544 16
18 1 -2.57988 -4.03464 -9.59943 18
19 1 4.85204 -0.745642 -8.1833 16
20 1 8.29943 -8.38789 -0.672241 10
21 1 -6.52341 10.6299 1.65994 10
22 1 -0.457064 7.58676 -2.01664 23
23 1 -0.622756 -3.64539 -12.1797 10
24 1 1.04442 4.81776 8.52004 12
25 1 6.5446 -3.85483 2.44429 19
26 1 -4.32233 4.64831 1.18713 24
27 1 4.62818 5.2444 -7.23063 15
28 1 7.90087 8.46019 -4.25361 10
29 1 -0.58751 9.93801 -7.63111 11
30 1 -4.82892 5.05177 -7.24039 19
31 1 -0.64914 10.3762 -2.30323 15
32 1 2.32597 8.79505 -5.83302 17
33 1 -7.64273 1.97646 -1.84892 21
34 1 0.745044 9.04998 5.38856 10
35 1 -4.66207 1.16064 -10.6501 12
36 1 -8.42832 -3.04555 1.40648 17
37 1 4.87841 -7.54732 -5.42428 13
38 1 -5.95067 4.71264 4.13873 13
39 1 -7.16021 0.0396605 -4.50046 21
40 1 1.50916 -10.1416 4.39275 11
41 1 6.36819 1.92532 -7.34838 17
42 1 -3.80251 -3.87647 -6.50109 21
43 1 2.87976 5.65981 -10.0563 13
44 1 1.38758 -8.8313 1.49835 19
45 1 2.62667 10.6123 -2.78175 13
46 1 -7.44608 2.33921 2.01588 14
47 1 1.76603 10.7487 2.44252 10
48 1 3.17512 -0.0580396 6.29408 16
49 1 1.96756 -8.45185 -3.98792 14
50 1 8.35147 -0.58338 -8.37568 9
51 1 -2.10188 -9.05779 0.915135 21
52 1 -1.76711 -10.0614 4.48372 12
53 1 4.50501 -3.7885 6.46148 15
54 1 5.63483 -6.7487 6.4825 10
55 1 7.12857 8.87656 -0.35866 11
56 1 -4.57278 -8.58258 2.42874 14
57 1 -4.02204 -11.6316 0.745409 10
58 1 -3.69001 -5.92123 -3.94587 21
59 1 -2.73274 -7.99345 7.40528 12
60 1 -6.53756 -3.74066 4.19633 13
61 1 2.55991 -10.1512 -1.40593 11
62 1 -7.89482 -0.805175 3.71159 10
63 1 -3.92719 11.118 -0.494356 10
64 1 -8.7004 8.71255 0.665164 9
65 1 -1.15861 6.76725 6.45548 13
66 1 -6.61402 -2.11264 -6.78168 11
67 1 -8.27424 2.38229 -5.77684 18
68 1 -5.89911 -5.74165 -6.00759 11
69 1 8.3374 1.96937 4.1585 11
70 1 -1.17423 -5.21801 6.68605 21
71 1 -4.21903 -0.887239 -8.71661 17
72 1 -11.2437 -2.28442 -3.37929 12
73 1 -3.86267 -9.9986 -2.76633 12
74 1 -6.90188 8.20482 3.60728 11
75 1 -3.72743 5.42939 -3.97538 22
76 1 -0.0754384 -7.67604 -6.91191 16
77 1 0.851925 8.85747 0.0772191 17
78 1 -9.6355 -0.944155 -6.41499 10
79 1 -9.16498 4.352 -3.66728 11
80 1 -3.23063 -9.49574 -6.52695 9
81 1 6.90445 -6.52503 3.85305 12
82 1 -8.69754 4.48421 -7.23198 8
83 1 -4.40328 -5.10988 7.02764 10
84 1 -7.69935 5.80441 1.87992 15
85 1 -0.687103 -6.79954 -10.1797 10
86 1 -1.88907 -2.43257 6.64358 16
87 1 1.99954 -5.00923 7.13026 18
88 1 5.02197 -5.15639 -7.29774 11
89 1 7.90984 0.0669547 -2.12803 19
90 1 4.01415 0.0340244 -10.9616 12
91 1 7.7355 -3.76246 5.44537 11
92 1 -5.85088 -8.63807 -4.18951 9
93 1 -4.74026 -1.38359 3.76453 17
94 1 7.02205 3.88428 6.12535 11
95 1 9.18163 5.00966 -4.70403 14
96 1 1.17676 3.89088 -7.19449 21
97 1 -2.50179 7.16463 -9.28181 11
98 1 5.5011 8.76886 -2.82548 17
99 1 4.7804 2.99726 -9.4173 14
100 1 3.6661 -7.30946 3.75697 14
101 1 5.87252 -3.87947 -0.926801 18
102 1 -0.373601 -11.3012 1.72691 12
103 1 -6.57885 3.27796 -8.82591 11
104 1 9.6366 -0.780842 -5.26318 14
105 1 -2.40033 7.52949 -6.08818 17
106 1 1.74314 -4.97104 -8.30843 15
107 1 -5.03929 -6.7181 4.72353 13
108 1 -0.449297 -9.92415 -1.49842 16
109 1 -0.536772 -2.1257 -8.88555 17
110 1 2.70861 7.77895 -2.12111 19
111 1 4.50363 -8.69372 0.253512 14
112 1 -3.31857 -6.87433 -7.92846 14
113 1 1.1101 -4.21022 10.0691 10
114 1 0.466534 -1.31001 8.99339 10
115 1 4.57248 -3.41863 -9.70067 11
116 1 -10.228 0.816877 -3.70313 13
117 1 5.58483 6.19927 -4.5738 18
118 1 6.46035 -0.258595 -5.18856 22
119 1 -0.226247 4.34972 -10.0766 18
120 1 -8.94597 6.39323 -0.994986 9
121 1 1.18843 -2.8364 6.36762 21
122 1 -7.60408 0.598831 -8.42551 11
123 1 8.98975 -5.65141 1.19087 13
124 1 3.82447 4.85228 3.90303 22
125 1 3.50668 -9.682 7.38432 6
126 1 9.52153 3.25549 -1.66594 14
127 1 8.15648 5.64305 0.319548 11
128 1 -0.667962 -4.35587 -7.06422 25
129 1 6.5359 7.55961 5.22064 10
130 1 -1.8486 4.78285 -7.12247 23
131 1 -0.444169 3.53028 5.98829 19
132 1 -5.59311 -9.30639 -0.291947 13
133 1 5.5074 6.42852 1.27811 19
134 1 -3.75138 10.3141 3.27427 9
135 1 -6.00176 4.80711 -1.72687 19
136 1 7.40754 4.7158 -7.37035 15
137 1 3.31195 3.53599 6.52172 16
138 1 1.01269 -0.97583 -12.2244 13
139 1 1.38191 1.8816 8.29526 13
140 1 7.62807 -5.39419 -5.76563 11
141 1 3.7877 9.27344 0.135141 17
142 1 5.90351 -6.59108 0.830164 18
143 1 -1.63029 10.198 1.1803 11
144 1 2.41558 -5.45027 -5.04829 20
145 1 3.51245 -6.98881 8.53703 11
146 1 0.695374 0.907094 -9.58553 19
147 1 -4.36477 7.43251 2.97449 15
148 1 9.42817 0.0214068 0.54193 15
149 1 1.13082 11.5326 -4.88617 11
150 1 9.52792 2.28743 -6.92866 13
151 1 -1.97458 -3.73772 9.28184 12
152 1 0.00214087 -6.76138 9.32581 11
153 1 -3.10432 9.06783 -3.25466 13
154 1 5.59091 9.69048 2.57171 12
155 1 -8.11333 -7.99738 3.15757 7
156 1 9.24744 -2.96432 -0.771044 12
157 1 -5.724 -6.58446 -1.72069 17
158 1 7.85954 2.81695 1.05906 17
159 1 7.94772 -8.14034 -4.39776 9
160 1 3.47074 7.49381 3.32878 21
161 1 -9.02016 -4.35376 -4.34499 14
162 1 0.268935 8.35603 -4.47712 22
163 1 2.81842 8.74733 -8.59882 8
164 1 -3.9741 2.01277 -7.03471 20
165 1 1.99412 -4.33002 -11.3848 10
166 1 -1.61422 -8.66632 -4.32339 15
167 1 1.05368 -6.61112 3.93259 20
168 1 7.73852 -5.9092 -2.07913 19
169 1 -10.7797 -2.64802 -0.145456 12
170 1 -2.82712 3.46888 -9.68927 17
171 1 -7.10731 -3.9723 -1.49298 21
172 1 9.732 -3.10234 2.69727 10
173 1 -2.28669 -1.27387 -11.316 13
174 1 -6.16441 8.98095 -1.47537 10
175 1 -6.35487 1.26815 5.11613 9
176 1 7.48493 6.29011 -2.09111 15
177 1 11.4053 2.23024 -3.78345 9
178 1 0.23574 -8.34694 6.663 15
179 1 3.09202 1.2233 -7.26895 21
180 1 2.49363 5.63299 -4.35095 21
181 1 4.11001 9.01778 5.70352 12
182 1 5.95722 8.21588 -6.5566 12
183 1 8.09572 2.12998 -4.47526 19
184 1 6.83935 -2.86552 -7.00791 17
185 1 -1.31143 7.5914 3.19656 16
186 1 -4.11793 7.02845 -0.785962 16
187 1 -2.22843 -7.04138 3.75086 19
188 1 5.8818 -9.03825 -2.43838 14
189 1 -9.33714 -6.90225 -2.24741 11
190 1 -7.0266 5.63864 -5.09517 12
191 2 -7.83296 -2.68313 3.31524 13
192 2 8.63769 4.79646 -1.20836 13
193 2 -3.38206 0.229825 -7.57358 18
194 2 -7.27783 0.118416 -2.52648 20
195 2 -1.71617 -9.02267 6.08842 12
196 2 2.74952 1.69832 6.85666 15
197 2 8.88156 -1.07389 -1.06966 12
198 2 -5.30844 9.15539 3.30207 10
199 2 5.5638 -5.98026 -1.57868 19
200 2 -3.91857 -0.634174 -10.8188 11
201 2 -0.0476242 -5.22987 -11.1084 11
202 2 -3.66499 10.9024 1.58525 10
203 2 9.22183 -3.78082 0.92747 15
204 2 7.3055 8.87241 -2.14559 10
205 2 -0.710055 7.89545 5.00682 12
206 2 5.77595 9.59484 0.656663 11
207 2 3.03597 7.5476 -10.049 8
208 2 4.47663 -1.61233 -9.89778 13
209 2 -9.0895 0.669413 -5.28043 16
210 2 5.34742 -6.97019 4.73055 12
211 2 -7.6181 0.341114 2.24296 16
212 2 3.22774 -4.99715 -6.83933 18
213 2 -2.18653 -11.813 1.57226 9
214 2 2.36288 7.96248 5.31414 17
215 2 2.73662 -3.55887 5.85903 18
216 2 -3.86404 -6.0327 3.00757 18
217 2 -0.117271 -10.8418 3.67877 12
218 2 -8.8688 -6.93351 1.61829 11
219 2 -4.09102 -10.7869 -1.05307 10
220 2 -5.33143 -8.59702 -2.10383 14
221 2 -1.87591 10.4835 -0.802334 14
222 2 3.22387 -0.774607 -7.32904 18
223 2 8.3654 6.63507 -4.08853 14
224 2 2.98143 4.77993 -8.0325 17
225 2 -6.7901 1.93525 -4.60112 20
226 2 9.19013 2.19806 -0.074824 13
227 2 1.06771 9.03678 -1.89659 19
228 2 -7.83617 9.26445 2.2565 10
229 2 2.58669 10.2271 -4.79483 14
230 2 4.03343 8.78421 -6.98981 11
231 2 -2.83848 8.59495 2.93036 12
232 2 2.00936 -6.22885 9.21449 11
233 2 2.98735 -4.4793 -9.79133 11
234 2 0.713899 -7.15299 -5.0309 16
235 2 -2.12748 -5.88766 -8.87537 13
236 2 -7.79767 -5.94533 -1.51984 17
237 2 7.77213 -6.10239 -3.91568 13
238 2 6.90224 7.0369 0.0432894 15
239 2 -0.166082 2.56229 -10.7819 16
240 2 2.09911 0.341319 -11.0782 13
241 2 -4.3513 -5.49026 -6.97304 15
242 2 0.745674 -3.18824 -7.75893 17
243 2 6.90007 -0.875323 -6.86032 17
244 2 -5.20742 -2.90291 2.90493 18
245 2 1.2184 -2.96776 -12.5622 8
246 2 -1.43478 -8.70816 -6.34415 11
247 2 1.09418 2.02665 -7.80896 19
248 2 -4.36588 5.60882 3.20419 19
249 2 -5.66677 -7.3293 0.448581 17
250 2 -5.40177 5.88327 -0.106245 19
251 2 -6.13001 -7.64246 3.35914 13
252 2 -11.4968 -3.36823 -1.86069 12
253 2 6.76427 -5.34767 5.83366 11
254 2 7.92247 1.90018 -2.56602 21
255 2 -0.7416 -0.308013 -11.6597 13
256 2 2.51431 5.88788 2.768 17
257 2 1.33396 10.0765 4.06397 9
258 2 -0.740039 -5.08123 9.71137 11
259 2 -8.97593 6.84436 0.9763 10
260 2 -8.04083 -1.07519 -7.59093 13
261 2 10.0336 3.53187 -3.70878 11
262 2 -10.0768 -4.22889 1.48279 11
263 2 -3.24642 6.21535 -7.34912 18
264 2 3.93561 2.19247 -10.8448 12
265 2 -8.2579 5.09241 -2.28442 11
266 2 6.27605 -6.30448 -6.53003 11
267 2 -0.416393 -10.0309 0.403221 17
268 2 -5.78707 10.6867 -0.183419 10
269 2 1.60431 -8.5485 3.51025 17
270 2 2.96156 -9.75406 0.528137 12
271 2 4.90768 7.72814 6.56412 11
272 2 0.812913 11.185 -3.05605 13
273 2 -1.22804 -6.93904 7.99034 13
274 2 -1.98629 -7.27227 0.22001 20
275 2 -6.21785 -0.503226 4.68643 10
276 2 -0.0236035 5.2097 -8.27305 22
277 2 9.52492 0.0315129 -7.05729 12
278 2 1.36064 -3.07678 8.32375 16
279 2 5.64231 5.48143 -2.68079 18
280 2 5.15827 8.60783 4.1692 12
281 2 -10.643 -6.43478 -0.758584 10
282 2 2.78048 5.26847 7.83969 12
283 2 4.90873 0.0452836 4.94611 15
284 2 1.79095 4.48948 -11.0023 10
285 2 2.23537 4.26758 5.20035 21
286 2 7.48379 -5.81423 2.35052 14
287 2 -10.7697 -1.92486 -5.16653 10
288 2 -5.28423 4.83496 -5.14155 19
289 2 -6.85586 4.90914 -7.45851 10
290 2 4.53807 -8.20474 7.41151 9
291 2 3.961 9.35296 -1.76241 16
292 2 -4.79618 -2.16572 -7.50451 16
293 2 8.01125 -1.05764 -4.19563 16
294 2 -4.25029 8.60594 -1.81044 14
295 2 8.40451 -6.51874 -0.224077 14
296 2 -0.486536 -3.66169 5.7027 21
297 2 -5.45065 -6.74078 -4.45282 15
298 2 -0.202027 10.7178 -6.03047 12
299 2 -7.73415 8.28839 -0.858522 13
300 2 0.478295 -6.44717 6.15633 21
301 2 -7.38647 1.4028 0.0553622 16
302 2 -3.49122 7.60562 -4.52026 16
303 2 0.0750795 3.37709 7.86714 14
304 2 -9.91086 -0.825799 -2.97054 15
305 2 2.24319 7.52449 -4.42243 23
306 2 0.507376 6.41071 7.48419 11
307 2 0.596403 0.238128 7.87404 14
308 2 -2.32494 -3.15598 -7.8207 20
309 2 -2.07591 5.24939 -9.90613 13
310 2 -2.05198 -9.15594 -2.36446 16
311 2 6.02213 -0.0623488 2.49622 25
312 2 8.55979 3.65367 -6.09207 15
313 2 4.37804 -7.50334 1.95654 15
314 2 6.12643 1.89236 -5.1741 21
315 2 5.11108 6.28714 3.1511 19
316 2 -5.23175 2.996 1.64465 20
317 2 -6.95106 -4.12463 -5.46575 14
318 2 1.08823 -9.69528 -2.72339 12
319 2 -1.13489 8.80458 -3.46527 17
320 2 -7.89669 4.02116 2.35414 13
321 2 -6.69923 -4.17048 0.553258 21
322 2 -4.11318 -9.63358 -4.74319 12
323 2 5.14001 4.0191 6.70869 14
324 2 -2.28208 2.7719 -7.76461 21
325 2 4.47145 4.84204 -5.31985 19
326 2 0.353242 -6.08415 -7.88264 17
327 2 8.54288 1.29786 2.23997 13
328 2 6.75065 3.0272 4.43752 15
329 2 1.10261 8.86947 -7.72832 14
330 2 -7.95956 2.45704 -7.74813 11
331 2 -1.55107 -2.85701 -10.5727 17
332 2 0.158888 10.2879 1.31981 14
333 2 -1.51022 8.26936 -8.12528 11
334 2 -8.59869 4.40304 -5.37068 12
335 2 -6.70302 6.404 3.77394 11
336 2 -0.241064 7.05258 -5.85453 21
337 2 5.77063 -3.7582 -8.33932 11
338 2 -9.39802 2.58888 -2.96729 12
339 2 -2.95297 2.09923 -11.1482 12
340 2 6.20201 -2.72372 6.09 13
341 2 -3.80656 -6.91384 6.35525 11
342 2 -2.02037 -6.84406 -4.54359 20
343 2 -5.59262 2.74532 4.40936 14
344 2 7.76829 -3.01293 3.61567 17
345 2 -8.815 -2.10376 -0.43527 19
346 2 -2.85545 -4.04801 7.38294 12
347 2 1.72799 -9.69792 6.59221 9
348 2 9.32306 -1.32482 1.93181 11
349 2 3.35748 -7.18253 -4.18426 14
350 2 -0.841288 7.41167 -0.106186 21
351 2 -6.25084 1.30933 -9.60261 11
352 2 -5.55812 -4.91308 5.2724 11
353 2 3.97439 -5.34911 7.46093 13
354 2 4.47036 1.30476 -8.51344 18
355 2 6.94368 5.79737 5.38219 11
356 2 7.82954 0.445438 4.99413 12
357 2 7.34616 -3.49843 -5.3849 14
358 2 7.96277 -8.659 -2.37048 10
359 2 5.59447 -4.41619 0.749461 19
360 2 -1.55971 5.16657 5.76587 15
361 2 5.94052 3.97635 -8.15455 13
362 2 -10.1198 -5.6553 -3.50058 9
363 2 -8.15187 -3.33237 -2.83585 21
364 2 6.4097 -8.51584 -0.134549 13
365 2 5.90435 8.06306 -4.60919 15
366 2 10.2815 0.940323 -4.42456 11
367 2 7.12833 6.65905 -6.98222 12
368 2 2.55814 -5.69269 3.2958 19
369 2 7.67816 -3.68479 -1.96322 15
370 2 4.15541 -8.855 -1.87848 15
371 2 -3.70214 -8.69526 -8.12146 7
372 2 2.62908 7.79884 0.314111 18
373 2 3.72117 10.1486 2.02346 12
374 2 -2.60008 -8.68617 2.93674 18
375 2 -1.16182 -2.15316 8.43701 13
376 2 7.87206 4.89134 2.05589 13
377 2 7.98068 1.32257 -8.16591 15
378 2 -4.62163 3.56599 -8.53341 16
379 2 -4.67048 -10.0413 1.38499 10
380 2 6.14184 -8.32739 -4.19602 12
381 1 -5.52214 -2.97684 -4.19134 24
382 1 -2.03432 -1.15204 -6.99059 21
383 1 -0.411132 -5.82101 -4.2121 21
384 1 -1.96136 -2.89837 -4.04117 25
385 2 -3.99261 -5.95436 -1.70796 21
386 2 -5.46847 -3.0482 -2.27208 23
387 2 -5.59627 -1.15973 -4.92129 20
388 2 -3.66325 -3.93877 -4.57009 21
389 2 -0.839488 -5.76934 -2.18762 22
390 2 -2.20406 -2.82903 -2.10406 22
391 2 -2.0486 -1.29493 -5.01253 22
392 2 -0.298094 -4.09928 -5.3029 25
393 1 -5.72086 -0.911241 -2.01629 24
394 1 -3.84389 -3.96869 -1.48652 23
395 1 -4.47311 -5.93334 1.06905 22
396 1 -5.32337 -2.98731 0.956256 23
397 1 -3.62216 -4.12862 3.22428 16
398 1 -2.15065 -7.01111 -1.55748 22
399 1 -2.30929 -0.948431 -1.58662 23
400 1 -0.615924 -3.87037 -1.50884 24
401 1 -1.00902 -5.88314 1.21671 22
402 1 -2.05497 -2.81084 0.829001 22
403 1 -1.84791 -0.779595 3.37935 20
404 1 -0.588276 -3.69161 3.76518 23
405 2 -5.75441 -0.893924 0.0141891 24
406 2 -3.81513 -4.24716 0.557926 23
407 2 -0.856473 -5.92753 3.39542 17
408 2 -2.16159 -2.87292 2.71686 23
409 2 -2.13745 -0.955697 0.404809 24
410 2 -0.775533 -4.28229 0.36743 22
411 2 -1.44955 -1.15656 5.25711 18
412 1 -3.7597 -0.139068 -4.57637 22
413 1 -5.25595 3.14741 -4.20742 20
414 1 -0.74329 1.74466 -7.40734 21
415 1 -0.386603 -0.228322 -4.6005 21
416 1 -2.06795 2.93703 -4.74388 22
417 1 -0.519321 5.43625 -4.5664 25
418 2 -4.00992 -0.256852 -2.63672 24
419 2 -5.41171 2.86531 -2.15187 21
420 2 -3.75093 1.97108 -5.2554 23
421 2 -3.98251 5.56428 -2.09732 17
422 2 -0.431995 -0.33416 -8.27454 21
423 2 -0.773005 -0.0823453 -2.55894 25
424 2 -2.14534 2.99421 -2.45086 22
425 2 -2.26276 4.78092 -5.19529 21
426 2 -0.60434 1.56014 -4.99262 23
427 2 -0.625611 5.76806 -2.69596 24
428 1 -3.71263 1.92037 -2.05926 23
429 1 -3.90741 -0.339767 0.667096 23
430 1 -5.51901 2.2495 0.00423789 21
431 1 -4.23587 1.82077 3.20918 19
432 1 -2.00595 4.78982 -1.76533 23
433 1 -0.721566 1.62668 -1.56244 24
434 1 -0.4776 -0.0487101 0.866261 23
435 1 -2.29996 2.81417 0.734049 22
436 1 -2.2605 4.82854 3.77214 20
437 1 -0.495949 2.00732 3.09656 20
438 1 -0.845786 5.63247 0.899907 21
439 2 -3.50346 -0.0756838 2.81899 21
440 2 -3.72928 1.46268 0.0959528 21
441 2 -0.069449 0.0567398 2.72724 23
442 2 -2.29404 2.83807 2.81717 22
443 2 -2.46755 4.61971 0.122666 22
444 2 -0.794594 1.78209 0.327213 23
445 2 -0.328925 1.87811 5.17008 19
446 2 -0.750726 5.46899 2.77284 21
447 1 1.73238 -1.73854 -7.0674 22
448 1 0.956767 -3.12783 -4.31814 22
449 1 4.17462 -2.69368 -4.06123 19
450 2 2.2342 -6.02962 -1.6982 19
451 2 0.939442 -2.91032 -2.41813 23
452 2 1.39809 -1.25928 -4.81953 20
453 2 2.8009 -3.77169 -4.1464 17
454 2 4.24724 -2.84409 -1.8923 18
455 2 4.64369 -0.984138 -4.45866 21
456 1 0.596024 -6.7744 -1.1272 21
457 1 0.892166 -1.10686 -1.90964 25
458 1 2.5095 -4.0103 -1.84288 23
459 1 2.43401 -5.65596 1.07455 22
460 1 1.02607 -2.87835 1.0332 24
461 1 1.26371 -1.0239 3.49944 23
462 1 2.91271 -3.95362 3.84844 20
463 1 4.60209 -0.858938 -2.04322 18
464 1 4.06516 -2.93801 0.828352 20
465 1 4.34316 -0.984248 3.27513 21
466 2 0.922526 -6.99407 0.78275 20
467 2 0.942546 -2.89409 3.16549 25
468 2 1.12401 -1.1378 0.157031 25
469 2 2.39802 -3.92908 0.345512 20
470 2 1.55909 -0.929279 5.52304 22
471 2 4.09606 -2.85325 2.97902 19
472 2 4.02186 -1.10486 0.158302 21
473 1 2.86976 -0.00888166 -4.55628 20
474 1 1.06 2.47744 -4.4567 22
475 1 4.52296 2.87954 -4.29687 21
476 2 2.45778 -0.0986687 -2.58826 23
477 2 0.835908 2.7594 -2.13632 22
478 2 0.982446 4.45184 -5.212 22
479 2 2.67952 1.69682 -5.40534 21
480 2 2.67741 5.7136 -2.43038 21
481 2 5.92172 0.218119 -1.35304 19
482 2 4.24395 2.6012 -2.47301 22
483 1 1.03156 4.74971 -1.93825 23
484 1 2.6376 1.75309 -1.81296 21
485 1 2.67679 0.150111 0.520754 23
486 1 1.09442 2.60738 0.820311 23
487 1 1.02374 4.95178 3.64664 23
488 1 2.7711 1.97475 3.61346 23
489 1 2.45974 5.80773 0.880094 22
490 1 4.34699 4.71801 -1.62466 20
491 1 6.03624 2.21602 -1.57404 20
492 1 5.71991 0.0868277 0.749448 19
493 1 4.35384 3.0411 1.13898 24
494 2 2.83188 0.180923 2.56739 24
495 2 1.33942 3.14548 2.79253 21
496 2 0.882226 4.77869 0.18746 23
497 2 2.87364 2.17431 0.15773 23
498 2 4.4151 3.10919 3.22542 20
499 2 4.15889 4.93616 0.528825 21
500 2 6.03648 2.2171 0.400592 19
