ITEM: TIMESTEP
6000
ITEM: NUMBER OF ATOMS
2000
ITEM: BOX BOUNDS pp pp pp
-30.0 30.0
-30.0 30.0
-30.0 30.0
ITEM: ATOMS id type x y z Coordination
1 1 -8.55007 3.82724 -13.8029 16
2 1 -3.75802 -9.93115 -9.64956 21
3 1 2.63258 11.9016 12.6303 18
4 1 7.80138 -9.83694 7.45251 12
5 1 -10.2866 9.30701 0.0378905 24
6 1 12.0231 -10.5602 -11.5098 8
7 1 -10.9023 2.8781 -6.273 20
8 1 -1.11548 -6.26908 10.3681 16
9 1 -9.1698 -0.630501 -10.5668 21
10 1 -13.6199 -9.3817 6.43338 13
11 1 14.5078 2.66504 -11.0014 10
12 1 -4.71886 -13.0618 3.25962 18
13 1 -12.6159 -7.5033 4.75017 18
14 1 2.08961 4.11569 16.7907 17
15 1 0.266382 3.71186 10.1183 20
16 1 -1.06277 9.55699 -9.45531 25
17 1 2.54635 -0.184981 12.8444 22
18 1 -9.37437 -0.663215 -14.9009 13
19 1 -12.6666 -3.18595 12.1486 14
20 1 14.4693 3.50115 7.94511 17
21 1 1.97771 10.9069 -11.2649 22
22 1 3.73893 5.18333 -13.5982 17
23 1 14.7418 2.2662 12.9017 16
24 1 -14.1129 4.26765 -8.3862 14
25 1 -1.66995 -2.51593 -8.66329 20
26 1 -11.3047 10.6029 9.89377 12
27 1 7.19349 -12.5914 6.39478 14
28 1 1.55051 -12.3119 -11.0461 17
29 1 9.91639 -11.2154 0.812341 12
30 1 -4.3938 -13.5816 -5.54136 18
31 1 -11.5338 -5.60771 9.9513 17
32 1 1.69631 -6.78115 -12.7541 19
33 1 9.4977 -10.0562 -12.8779 15
34 1 -2.32273 4.54258 -16.7223 15
35 1 0.128532 4.20374 13.4599 17
36 1 -0.129936 -11.0106 7.10625 22
37 1 5.81433 -4.29779 14.4573 15
38 1 -12.3132 0.272867 4.01648 16
39 1 -16.3373 -1.27689 8.25372 12
40 1 -9.4372 1.46967 -2.0064 18
41 1 -3.80592 12.2786 -2.72431 19
42 1 -0.77237 -14.4105 -10.8686 12
43 1 1.95498 1.29012 -11.1322 18
44 1 5.64141 -4.27019 -10.4884 20
45 1 -2.59119 -3.72772 13.5087 16
46 1 -11.827 6.44321 -0.279551 19
47 1 4.4065 12.5014 -12.7139 15
48 1 -0.457438 15.1436 8.81123 16
49 1 -9.15508 8.48736 -7.48126 17
50 1 -0.569074 11.3773 0.565558 20
51 1 1.85433 -11.6922 2.16577 19
52 1 7.66164 -7.72197 -5.79999 18
53 1 5.32964 -6.75131 -17.2105 13
54 1 -9.09792 8.781 11.5741 17
55 1 -13.0652 -4.42388 -9.59649 13
56 1 7.97303 -0.96897 4.41613 23
57 1 -7.5674 8.3374 -4.56141 19
58 1 -7.75841 -11.2954 7.16246 19
59 1 -2.69021 14.4701 13.4382 11
60 1 -13.0054 6.81503 -6.7505 13
61 1 -6.5368 10.2413 12.5666 16
62 1 -4.40931 -14.697 7.60857 19
63 1 3.23793 5.45713 7.18603 18
64 1 6.94905 -15.7478 -2.63172 10
65 1 5.14652 10.3104 16.8177 17
66 1 -13.6206 1.5383 -10.4582 10
67 1 -12.7161 7.37223 -9.66838 8
68 1 4.94409 6.51288 12.0781 21
69 1 13.8677 -3.41188 -11.1444 11
70 1 9.23312 -10.5398 4.07447 14
71 1 -17.0607 -1.80452 5.13272 11
72 1 5.53502 15.7815 6.5641 18
73 1 5.36012 -1.88492 13.1151 20
74 1 -5.69796 -12.4073 6.0823 20
75 1 -10.2594 0.132713 1.18295 20
76 1 11.8585 2.31707 7.25633 19
77 1 -1.47784 12.7192 10.5893 21
78 1 6.21429 0.125329 7.18601 21
79 1 -3.04035 -6.72467 -8.20334 15
80 1 -13.1423 8.0012 8.71294 14
81 1 -9.09229 12.4424 -0.79264 20
82 1 -4.15431 6.20109 -7.81559 19
83 1 8.34708 -1.27574 -6.0877 21
84 1 9.59369 13.4487 -8.59902 11
85 1 9.21919 -4.38827 4.46686 21
86 1 5.94668 -9.64096 10.786 12
87 1 -4.59984 13.9576 -5.3184 17
88 1 -11.1061 12.6406 4.44176 14
89 1 -8.42774 -4.47918 15.1274 13
90 1 -3.99579 7.4603 4.79493 21
91 1 -6.10898 -4.40726 9.48617 18
92 1 13.9853 -8.33924 -5.90818 13
93 1 -9.5354 4.37992 5.54572 20
94 1 -10.6767 -13.9002 3.97703 13
95 1 10.9408 -8.07705 -5.12753 21
96 1 5.52339 0.806308 -11.8256 17
97 1 -5.85065 -0.297446 -15.6013 13
98 1 -1.65476 13.1156 2.84905 21
99 1 -7.07525 5.7478 -8.98057 19
100 1 1.8198 8.80139 18.3812 11
101 1 -0.750491 14.0604 -5.23859 20
102 1 -13.7744 11.5357 0.384075 11
103 1 1.48125 8.67151 1.96374 24
104 1 -5.38344 -7.51056 9.3969 17
105 1 13.4037 -1.83754 10.3961 14
106 1 -0.0804281 -4.93215 -10.1352 15
107 1 5.24414 -6.68797 -8.48041 17
108 1 -2.52696 5.04501 10.0547 18
109 1 6.47213 -0.949688 16.4155 16
110 1 -11.7556 -6.44104 -0.799297 21
111 1 -7.74031 -8.82992 -2.95968 22
112 1 9.15983 -8.14058 1.796 19
113 1 -1.70592 8.72492 2.0345 22
114 1 7.6609 2.80288 -15.0331 12
115 1 6.89681 16.9064 -1.81226 10
116 1 -7.27906 -13.6412 11.7026 12
117 1 -10.0152 -14.3559 9.56014 12
118 1 3.71225 -8.30835 -14.1889 17
119 1 5.53874 7.03948 -5.62905 20
120 1 10.9288 -8.78423 -1.58063 20
121 1 -0.881519 -15.4473 6.17556 15
122 1 -6.01425 -9.0301 0.409359 21
123 1 16.9804 6.7248 9.99944 12
124 1 13.4619 -2.72101 -8.20608 13
125 1 -16.18 -4.64514 3.06166 11
126 1 9.04591 7.03162 6.43025 18
127 1 14.8413 8.69291 4.51353 14
128 1 -6.47003 3.74541 17.0937 9
129 1 -4.9457 11.2338 9.85145 22
130 1 -4.94413 10.911 -5.4249 21
131 1 -0.799045 -5.69823 -12.8608 19
132 1 8.52228 -12.0684 -11.4374 9
133 1 1.27769 13.8877 -10.5011 17
134 1 8.08045 -3.73105 12.1153 16
135 1 1.25856 -2.31946 -18.7522 14
136 1 -1.46655 7.76368 -5.19366 18
137 1 9.65511 -0.647595 -3.30942 19
138 1 -10.666 8.11039 -5.03614 21
139 1 -8.63326 15.1727 -1.57077 13
140 1 8.26104 2.28292 -10.0173 21
141 1 7.76274 -7.20072 4.30631 18
142 1 -5.57537 4.53169 -6.13854 21
143 1 -7.12721 12.7632 8.55998 17
144 1 13.8023 8.61863 -8.10056 13
145 1 4.35587 11.8691 -3.36248 21
146 1 -3.57997 15.6541 0.860921 17
147 1 9.42724 10.1007 -0.790727 15
148 1 -2.18677 9.46775 -3.21251 22
149 1 1.89495 16.695 -9.42832 11
150 1 3.42032 9.74392 -13.8823 16
151 1 -12.9444 -11.1192 3.63027 11
152 1 -13.2783 8.83643 -1.25361 17
153 1 -6.40636 -4.79745 -11.2291 21
154 1 1.25981 -10.4654 -15.621 13
155 1 8.99317 12.8313 9.74529 12
156 1 1.09532 17.108 7.22474 12
157 1 -11.5181 -4.01806 -3.23185 23
158 1 -11.2445 12.3345 1.59653 18
159 1 15.5345 -1.2829 -2.94003 12
160 1 -10.9084 1.62899 -15.3184 10
161 1 7.34329 1.88704 17.8947 13
162 1 5.41195 16.7759 3.32286 17
163 1 -4.21949 8.28327 8.37605 20
164 1 2.34023 -8.00726 -17.1934 12
165 1 -3.82601 13.9875 8.85215 17
166 1 -0.463533 10.7075 -5.89807 22
167 1 2.56797 -3.33978 13.2255 17
168 1 -11.2034 -4.02064 3.75152 18
169 1 -3.06881 -13.2185 -13.4163 10
170 1 -8.75595 11.1235 -8.63388 15
171 1 -2.74944 -10.0296 4.90519 23
172 1 3.55621 -16.1285 -4.52551 10
173 1 -3.71294 10.935 -10.5891 15
174 1 -15.0593 1.6686 8.70068 15
175 1 12.0822 9.06887 -2.57835 19
176 1 -8.95319 5.6836 16.3631 9
177 1 -0.248022 -9.41312 9.89669 12
178 1 -10.3274 3.45289 0.353108 17
179 1 2.19346 16.4839 3.95987 15
180 1 -0.936019 7.45507 9.56055 21
181 1 14.7011 4.68119 15.2602 12
182 1 -6.51043 13.6755 0.485106 22
183 1 13.6085 -6.34509 -8.89169 11
184 1 -5.40397 13.5715 11.9218 12
185 1 -5.49542 1.67643 -8.02759 17
186 1 12.8992 -7.06279 2.23615 13
187 1 -7.38645 -7.487 6.47407 18
188 1 -15.8612 1.12236 5.82276 16
189 1 -7.28746 -9.72629 4.08585 19
190 1 6.24001 6.80786 15.4422 18
191 1 -15.5103 0.232424 -2.22604 13
192 1 -2.63899 -14.7241 0.125122 20
193 1 5.7796 -8.28222 -3.08918 20
194 1 -2.94137 10.4222 3.97526 16
195 1 5.2333 11.5865 13.7434 14
196 1 -10.1352 -0.917181 -3.86126 20
197 1 -5.7369 12.5168 -8.13562 15
198 1 -14.7386 -4.37672 -6.12453 10
199 1 -9.13981 -1.60688 11.7354 19
200 1 0.540329 -9.7145 4.49041 21
201 1 4.81178 -13.4753 8.91056 10
202 1 -13.3842 10.636 3.66495 13
203 1 14.4689 5.42697 4.46924 18
204 1 6.28494 4.29122 -5.12972 17
205 1 -6.50084 -6.56695 -14.2852 13
206 1 4.79239 0.671426 10.0532 19
207 1 6.46394 -15.2264 4.00704 12
208 1 -1.41609 6.57951 -11.7013 21
209 1 3.67278 -9.76962 -11.6756 15
210 1 10.0925 -1.63218 -14.6253 13
211 1 3.28204 7.14526 -15.8972 15
212 1 -6.80383 -3.72086 -5.81877 23
213 1 -2.96489 15.6772 -6.64252 12
214 1 -9.15203 -11.6067 10.4662 17
215 1 6.76178 13.0432 -2.35514 18
216 1 -9.38245 2.3211 16.3762 11
217 1 -6.55862 12.7757 -3.06712 21
218 1 7.64845 1.60218 10.4541 19
219 1 -3.71796 -5.46187 -13.4003 21
220 1 -3.26618 9.54189 -7.42573 19
221 1 3.56885 6.39526 -8.43579 21
222 1 -6.62328 -13.2039 8.97557 18
223 1 -7.18715 4.82441 7.63339 18
224 1 -6.97826 8.13441 9.63182 22
225 1 0.428508 -10.1897 -8.2462 21
226 1 -5.45408 -14.5381 0.573709 20
227 1 10.2957 -11.9937 -2.26662 12
228 1 12.6582 7.20368 15.2417 15
229 1 6.03993 9.32795 -7.99973 21
230 1 1.20192 9.0423 -3.36464 19
231 1 -10.3138 1.83907 3.70787 21
232 1 -11.5734 11.3905 -1.95747 18
233 1 1.97397 7.1514 10.7936 19
234 1 4.39102 -18.2589 0.957123 12
235 1 9.6539 2.00333 -1.35351 17
236 1 3.09929 7.50802 4.71312 20
237 1 -10.4167 6.7734 4.90922 17
238 1 -10.1077 -6.64608 -3.83094 21
239 1 6.67211 4.4511 -12.2538 18
240 1 3.57603 -2.18529 10.0959 22
241 1 8.92179 10.4052 -10.0771 16
242 1 2.41136 -8.52075 -3.07349 20
243 1 -0.932878 -0.579535 -11.384 18
244 1 1.31472 -18.0115 5.83156 12
245 1 9.29263 -0.948132 -8.68971 17
246 1 -8.333 -0.939007 4.44218 21
247 1 4.24008 -16.2286 -1.00052 13
248 1 -10.0219 -6.32673 -8.7002 21
249 1 4.52289 14.6694 -1.68749 22
250 1 1.26791 -3.03462 -15.3757 22
251 1 5.09298 3.83354 15.5579 22
252 1 14.2591 2.82752 1.91515 14
253 1 11.0471 -5.21028 -10.4299 16
254 1 -7.63741 -5.06144 -8.25996 21
255 1 -10.7715 2.20619 -9.1218 23
256 1 -6.69936 -15.8897 9.7526 15
257 1 10.5497 1.73607 9.63006 19
258 1 4.65198 -2.81075 7.1926 23
259 1 -5.35714 -8.16967 -12.0128 22
260 1 3.24207 -5.55355 7.48667 21
261 1 1.11188 6.86435 -13.8202 21
262 1 4.82838 8.57205 1.19956 17
263 1 -6.77925 -7.29174 2.16057 18
264 1 1.75173 12.4362 2.25991 22
265 1 -6.91039 -3.61997 12.7452 18
266 1 -9.41328 -8.9046 -9.27586 13
267 1 -3.33317 -5.65554 -10.7115 22
268 1 -1.88985 7.23543 -15.192 19
269 1 -5.2669 -9.75964 -6.76255 19
270 1 -1.62653 -8.56456 2.12714 20
271 1 9.49131 -4.67185 -14.8715 15
272 1 14.8444 -0.324753 -9.6508 11
273 1 11.7204 4.27286 4.62359 19
274 1 -8.75731 -5.78173 11.0987 19
275 1 -4.02019 -11.908 0.293744 21
276 1 8.17341 4.53426 16.7671 19
277 1 -5.75302 -15.7704 4.98118 17
278 1 -0.998964 -11.8977 0.965715 19
279 1 -1.55427 17.1018 -1.35294 11
280 1 10.1947 1.33965 -13.5715 14
281 1 -6.0936 -3.72375 -15.3727 14
282 1 -10.4237 -8.36814 11.9437 12
283 1 4.60365 7.34127 17.4763 18
284 1 1.86607 -12.0646 -2.44765 20
285 1 -4.67037 -11.955 -11.353 15
286 1 -10.8881 5.519 -8.56201 20
287 1 10.3095 5.52296 9.00248 22
288 1 -4.11423 5.01866 -10.7495 17
289 1 1.1556 7.51464 -10.7361 19
290 1 6.55643 -12.0528 -8.63179 16
291 1 -5.02793 15.6825 -1.99324 15
292 1 0.340787 10.3976 4.0503 23
293 1 14.4784 -2.48857 5.15384 15
294 1 -9.06062 1.33714 6.20399 18
295 1 -4.24046 -5.5125 11.7348 17
296 1 -6.12264 10.2598 3.78792 17
297 1 4.57611 -4.91728 -13.6352 19
298 1 14.963 10.4517 -2.10025 10
299 1 3.58794 -9.64379 -0.0725992 24
300 1 -2.49142 -0.711046 14.5636 17
301 1 -15.979 -4.1321 6.20013 13
302 1 0.0779969 -16.7345 -4.05052 10
303 1 -9.20834 8.33413 14.3385 10
304 1 -10.9007 6.10112 13.5328 16
305 1 -14.2023 -3.77832 8.9253 16
306 1 -14.4549 -6.8532 8.07044 13
307 1 15.0892 -3.71847 -1.47959 18
308 1 -11.3485 -7.91509 7.99284 21
309 1 8.47068 -3.3733 -9.87499 20
310 1 10.1592 -12.2045 -5.39302 16
311 1 3.8136 17.8479 -2.97313 13
312 1 -8.56038 10.4712 -2.73119 21
313 1 11.726 7.00267 12.3259 21
314 1 -8.58695 -2.55367 2.14731 21
315 1 8.74222 -9.40188 -3.61344 21
316 1 -4.72781 12.9991 3.33828 20
317 1 -7.30933 7.46118 5.71305 18
318 1 4.83069 -10.4756 7.84695 20
319 1 13.0278 -4.9796 4.46729 16
320 1 -0.148903 5.81555 7.32297 22
321 1 -6.54006 -5.76632 -3.37278 22
322 1 -0.864795 1.98888 15.4359 17
323 1 -2.98991 14.3492 5.38364 17
324 1 9.40757 7.61379 16.708 16
325 1 -8.04721 13.7673 -6.16731 11
326 1 0.868925 -5.49771 -18.2301 15
327 1 6.94839 -9.20898 -13.2892 14
328 1 -9.226 3.52296 13.1899 20
329 1 -15.6873 3.14924 3.95911 13
330 1 -4.70496 -4.01915 -8.43873 22
331 1 -5.25247 8.83366 1.61522 19
332 1 7.51518 -2.60762 7.34849 19
333 1 -9.82421 -11.0159 2.45402 18
334 1 7.24504 -7.80229 9.33646 16
335 1 -8.13276 -10.0888 12.7832 14
336 1 -13.4365 8.7636 1.49437 14
337 1 -0.797078 -3.3923 10.5234 16
338 1 2.82672 -11.4103 -6.17286 21
339 1 -7.03602 -2.17388 -7.99557 19
340 1 6.83238 -3.2482 -16.0254 16
341 1 3.98584 13.8487 4.53342 18
342 1 -11.7849 -1.17406 -1.42999 21
343 1 5.28172 -7.38427 -11.4863 22
344 1 9.7666 4.71107 -13.3389 12
345 1 -4.66327 -15.9755 -7.47093 11
346 1 -14.0933 -8.208 -4.84436 9
347 1 -2.8875 -9.97429 -1.06349 18
348 1 11.8343 4.27188 17.0251 11
349 1 11.702 2.35924 -3.22472 19
350 1 -7.97592 2.76605 -10.4982 20
351 1 4.67014 17.465 0.296327 17
352 1 -13.4088 -1.29112 -4.53641 17
353 1 -9.53863 8.45297 7.75209 19
354 1 -8.30325 11.9217 2.39165 19
355 1 -3.76169 5.44386 7.39797 20
356 1 11.1307 5.00481 14.4488 19
357 1 8.12757 -3.146 -3.44879 19
358 1 8.59345 -3.2269 14.9607 15
359 1 11.0079 0.816797 -5.6079 17
360 1 -6.43915 -15.205 -4.41292 13
361 1 0.579592 -7.64494 -5.51623 17
362 1 4.13353e-04 7.63109 4.33102 18
363 1 -8.53264 1.89545 -4.85354 19
364 1 5.55827 -11.5864 -2.10413 17
365 1 12.1359 -0.881795 7.99942 19
366 1 -10.1507 -3.74303 -6.09236 20
367 1 -4.60456 -9.96117 2.72679 17
368 1 -8.09264 -7.51768 14.5155 13
369 1 -3.15311 10.1981 -0.611374 17
370 1 -10.6532 -9.96409 -2.65703 14
371 1 8.21072 9.79207 18.3022 11
372 1 -9.73312 7.47097 -2.51108 22
373 1 0.298517 12.0923 -8.49494 20
374 1 4.81232 12.8303 7.70287 16
375 1 -13.6488 -9.03701 -1.61707 12
376 1 -2.06658 -9.87577 -6.67767 21
377 1 -13.2545 -0.961935 7.26217 20
378 1 -12.9109 6.27698 -3.75776 15
379 1 4.06938 -8.74445 5.91736 19
380 1 -4.35938 -13.9371 -2.37166 21
381 1 11.8195 11.118 10.0128 13
382 1 5.75903 7.48296 -13.5287 16
383 1 -11.6835 4.46175 -11.5381 15
384 1 -1.28207 14.9681 -8.923 14
385 1 -9.01504 5.38562 -5.46458 18
386 1 0.222483 -12.0465 4.25465 17
387 1 12.4939 6.71266 6.82427 20
388 1 0.383323 9.3102 -15.6271 13
389 1 -5.38381 0.372504 10.397 19
390 1 -16.3081 0.661926 2.62919 11
391 1 -5.06648 2.78158 7.62723 23
392 1 -2.30465 -12.7127 5.46027 19
393 1 7.71496 -8.9532 -10.453 23
394 1 -12.4047 2.12477 6.58242 20
395 1 -14.1017 -0.880335 10.4636 15
396 1 -13.8281 6.75995 6.58284 12
397 1 -0.425132 -5.47808 7.37564 23
398 1 -8.31667 1.92306 -16.6003 11
399 1 9.09467 -9.69099 -7.42089 22
400 1 0.394289 -9.38105 -12.4752 21
401 1 -3.92015 -2.90837 10.915 19
402 1 -4.94314 2.79525 -15.7453 14
403 1 5.55291 -11.4909 1.34085 21
404 1 2.13942 12.5361 -5.79199 21
405 1 -12.7874 10.5715 7.08873 12
406 1 -5.37237 -2.89085 15.3602 15
407 1 -11.5369 -6.46746 -11.2919 10
408 1 -8.73903 -5.6532 8.21307 20
409 1 8.222 -4.57576 9.70097 18
410 1 3.33203 0.0581965 -8.6365 23
411 1 9.30406 -6.56389 7.62018 13
412 1 14.235 8.39894 -4.70173 15
413 1 -2.84874 2.1852 13.059 20
414 1 1.89717 13.2238 -1.15136 19
415 1 6.40822 -5.51386 6.8877 20
416 1 -0.974955 -12.7771 -5.70412 17
417 1 -4.19621 6.22525 17.4908 10
418 1 -2.32797 16.642 7.0153 12
419 1 -8.71798 -11.598 -7.49781 11
420 1 9.6117 14.5518 2.10187 14
421 1 4.49568 7.10162 8.8355 20
422 1 -7.413 2.43225 9.98603 21
423 1 -5.14566 -8.80503 -3.80643 22
424 1 -11.7521 4.62153 11.3011 18
425 1 -7.96732 -7.52707 -6.05484 20
426 1 -6.33708 9.71768 6.74499 19
427 1 -4.61101 -12.8139 -7.82301 18
428 1 -1.2689 -8.25963 -14.8205 20
429 1 -7.79006 -14.1622 3.80701 18
430 1 -6.69773 -4.45498 3.51936 19
431 1 9.73155 0.0316612 6.61247 15
432 1 -5.31718 -6.02808 14.8619 13
433 1 -9.41156 5.68176 -11.2621 16
434 1 8.0149 4.75469 -1.21903 20
435 1 -7.16376 -13.9634 -1.84781 20
436 1 -0.245007 15.0203 1.08703 18
437 1 -0.498222 6.175 -8.27612 23
438 1 -2.03973 10.1132 10.0269 22
439 1 -15.3838 -3.20444 -2.87281 14
440 1 0.601846 17.6931 -3.72879 13
441 1 5.61415 11.7368 -6.28178 20
442 1 -6.02612 -7.64971 -8.98112 26
443 1 4.07351 1.56376 17.6125 13
444 1 1.087 -13.2216 -8.37402 20
445 1 2.00458 -3.19605 -12.257 19
446 1 7.61418 -12.9909 3.20024 15
447 1 -10.5528 9.27996 3.33188 17
448 1 2.6012 5.73403 13.5703 19
449 1 9.47549 7.32473 -0.765367 17
450 1 1.9337 10.4519 -0.688059 20
451 1 -8.24842 8.32202 -10.1411 16
452 1 2.13562 3.33275 -8.44334 19
453 1 3.61546 -9.69248 3.50332 22
454 1 -14.7791 -5.98305 -0.216917 15
455 1 3.67018 18.3503 5.8761 10
456 1 -2.6322 4.14794 -13.6603 19
457 1 10.8736 5.12805 -1.7894 21
458 1 6.30435 14.1837 -8.34834 15
459 1 7.78439 -5.5941 1.31223 21
460 1 15.2813 2.01083 -1.91717 11
461 1 -0.837259 1.68659 -13.2746 18
462 1 1.05357 -8.76657 1.34389 20
463 1 2.24451 -15.0317 4.52567 21
464 1 2.5799 -10.8739 10.6636 12
465 1 -8.54032 3.75697 -7.89442 20
466 1 -8.89752 -14.5258 6.82725 20
467 1 -1.49621 -11.4427 -10.7931 24
468 1 7.72789 13.2295 6.58159 17
469 1 1.84218 4.60671 -10.8912 22
470 1 3.54422 -1.53567 15.5486 14
471 1 -13.7548 2.38806 11.9848 13
472 1 -1.21755 -17.3629 0.791579 14
473 1 -12.4339 -2.10164 1.53527 20
474 1 12.9978 -5.27557 -5.8271 16
475 1 12.2349 -2.44441 -2.83842 15
476 1 -4.58923 7.59285 -4.78946 21
477 1 3.96457 -7.96521 -5.55843 18
478 1 5.31292 3.0174 -9.25194 16
479 1 8.80581 -4.33541 -6.8825 16
480 1 -5.79224 0.717615 15.7859 16
481 1 6.24183 14.7897 0.647989 22
482 1 -3.47767 -2.43961 -16.5658 16
483 1 5.78691 2.39296 -17.75 10
484 1 -4.94779 -2.75594 7.3705 17
485 1 -3.1954 13.1443 0.572048 15
486 1 -7.70135 -1.94401 -12.9514 17
487 1 -13.674 0.770903 1.12939 16
488 1 -1.32552 -10.9234 -14.7378 17
489 1 -5.80577 -10.7023 10.5688 21
490 1 1.4825 9.59662 -8.42067 21
491 1 16.3413 3.37216 10.1648 11
492 1 13.283 3.8558 -0.565683 17
493 1 -9.18065 -11.8032 -0.973097 19
494 1 0.26012 -9.62339 -1.28082 20
495 1 -1.8382 -3.23633 -18.7376 11
496 1 -8.25188 10.5842 9.01981 19
497 1 1.69259 -2.48245 -8.97458 21
498 1 11.8214 -2.821 0.392851 15
499 1 2.99469 14.5941 -7.65936 22
500 1 4.9007 -6.46222 4.29899 20
501 1 14.6284 5.51084 -9.30625 13
502 1 4.24947 8.92448 14.3012 23
503 1 -9.84764 3.07214 8.57759 17
504 1 2.6999 11.3295 9.05902 18
505 1 8.82537 -1.26674 17.9146 8
506 1 0.669858 1.28601 -15.9529 20
507 1 -5.21046 -6.46592 -5.86118 22
508 1 0.910736 -1.18547 10.1486 19
509 1 7.88848 10.214 7.91412 14
510 1 7.76173 8.0278 -9.78547 18
511 1 -8.70143 11.0529 -5.70728 18
512 1 -0.334687 12.1761 -2.87114 19
513 1 11.2162 -3.40507 12.8612 12
514 1 11.1084 2.65582 -10.8041 19
515 1 12.1404 -10.4834 -4.37429 15
516 1 13.1266 9.78404 12.9116 12
517 1 -13.6945 -8.4082 2.02925 14
518 1 -6.45537 10.7146 -10.945 9
519 1 -3.54182 2.38893 9.99471 17
520 1 -13.1724 -0.523882 13.6561 11
521 1 -2.64442 12.6162 -7.75116 20
522 1 4.24069 -12.8388 -3.99098 18
523 1 6.52984 -0.802042 -9.41124 21
524 1 -2.25087 15.1614 -3.13166 16
525 1 -8.97684 -4.77071 -13.5719 12
526 1 4.65198 -13.0383 3.38719 19
527 1 -13.2573 -5.39204 2.08654 20
528 1 0.71068 12.4029 -14.0768 10
529 1 -1.24381 8.95206 14.7642 17
530 1 -11.681 -5.02266 6.80302 21
531 1 6.29492 7.3869 -1.79344 20
532 1 2.32013 -8.09168 -8.41439 17
533 1 3.2408 -6.86329 13.5116 7
534 1 -10.1037 5.96605 2.097 20
535 1 5.17913 4.31557 18.4086 14
536 1 4.81674 14.5194 -5.20646 18
537 1 9.99607 -5.51179 -4.30048 17
538 1 4.24961 9.34533 11.3025 20
539 1 -0.259756 2.71146 -18.294 12
540 1 -4.2478 -13.9141 10.869 14
541 1 -3.32458 -0.0167415 -8.58068 22
542 1 7.8718 0.154183 -16.2575 11
543 1 2.29608 14.2637 7.82178 22
544 1 9.18334 5.10816 -10.0101 21
545 1 -1.4099 -2.78336 -13.8157 18
546 1 -3.20681 -11.2882 -3.89699 23
547 1 -9.50822 -3.72982 -11.0522 21
548 1 11.4356 2.23046 0.99826 16
549 1 14.4409 4.56845 -3.25057 15
550 1 8.10241 -6.42675 -8.87377 21
551 1 14.8952 6.60806 12.3077 16
552 1 6.2835 -10.479 -5.43214 22
553 1 2.56973 3.7748 -16.4935 18
554 1 7.57836 12.6522 3.45452 13
555 1 -8.20453 3.10832 2.08096 19
556 1 10.4431 9.80001 15.3289 11
557 1 12.5399 5.76102 -5.008 18
558 1 16.1534 -0.156639 2.66588 11
559 1 11.2701 5.99472 -7.53938 20
560 1 8.76585 2.48958 14.3208 20
561 1 17.1894 4.62416 13.0431 9
562 1 1.94659 -4.66576 10.0251 20
563 1 12.9049 12.3626 -2.88308 15
564 1 2.49169 1.4152 15.5152 16
565 1 16.1599 -0.619896 -6.51641 10
566 1 9.84362 3.93974 11.8272 23
567 1 -8.1093 0.650891 -7.7257 19
568 1 13.0117 6.04683 1.34259 22
569 1 10.9775 -4.39637 2.44888 22
570 1 -12.1831 8.44662 12.1807 11
571 1 9.79244 10.658 12.4153 11
572 1 11.4009 1.58748 13.0724 19
573 1 1.34038 8.66795 7.30165 22
574 1 0.204189 14.5276 12.2342 11
575 1 6.61376 4.04266 7.20159 18
576 1 -1.266 -17.9836 3.86284 13
577 1 -5.3868 9.17627 -2.51873 22
578 1 11.9691 11.4116 -8.44477 15
579 1 10.648 -2.59882 -11.8242 18
580 1 1.70939 16.6055 -1.00939 16
581 1 -1.88133 -13.1091 -8.51933 19
582 1 11.0913 -7.34084 -13.0055 12
583 1 -16.9591 3.82077 7.1371 8
584 1 -4.48266 7.83316 -10.2223 20
585 1 -3.25096 -15.7662 2.85771 17
586 1 -6.12005 -0.203667 -10.2469 19
587 1 -12.1591 1.1318 -3.98105 21
588 1 10.4935 -7.19919 4.16705 15
589 1 11.7224 10.0577 4.94177 13
590 1 1.52434 -8.36469 7.33945 19
591 1 -13.0273 -2.29145 -7.19706 14
592 1 2.93569 1.11735 -18.7029 13
593 1 -2.1514 5.9988 15.4525 18
594 1 6.37984 9.54895 -12.3675 16
595 1 13.7713 -0.917873 13.3561 10
596 1 8.36946 6.80327 -7.08992 20
597 1 12.8971 14.1744 2.33881 6
598 1 4.30902 -14.3146 -7.13227 13
599 1 -10.8731 -2.99859 14.6473 14
600 1 14.3641 -2.94348 2.37068 20
601 1 -0.597948 11.5189 13.2071 18
602 1 7.02742 12.6417 -11.0175 13
603 1 -13.3493 9.94722 -4.76298 12
604 1 9.87728 10.0362 2.39681 13
605 1 -8.84 -14.6017 1.01578 13
606 1 15.7559 -5.49269 1.81813 10
607 1 8.47467 15.782 4.57748 13
608 1 -5.6839 5.45691 10.369 22
609 1 -9.70359 -6.11203 1.85686 18
610 1 -10.0086 -2.79547 -8.48069 20
611 1 8.52998 -0.129607 12.4756 20
612 1 -3.26372 -9.10865 10.4607 17
613 1 8.3124 5.97823 13.7925 22
614 1 -6.34753 10.6925 0.227561 20
615 1 10.2716 4.90481 1.68214 19
616 1 8.22235 4.90275 3.91811 20
617 1 2.70642 -0.78827 -16.5529 18
618 1 -9.8938 -0.248798 8.54833 18
619 1 8.91369 -0.235253 -11.5898 18
620 1 12.2259 -10.1223 -7.80605 15
621 1 7.38412 4.84583 9.49414 19
622 1 6.21128 6.91964 6.49929 20
623 1 -10.1104 0.336532 14.6176 17
624 1 10.8821 8.34492 8.72203 19
625 1 -0.0713593 -1.68093 14.5335 13
626 1 -0.542639 6.61676 12.3397 21
627 1 -1.27467 -5.15421 -15.8779 21
628 1 -5.787 3.01693 12.7102 18
629 1 6.56458 3.39786 12.1848 20
630 1 -8.82264 -17.1924 7.93903 10
631 1 13.4276 7.1063 -1.70605 17
632 1 7.73093 -12.7142 -4.08431 18
633 1 6.42546 9.87641 -1.33317 16
634 1 10.4838 13.225 4.52428 13
635 1 5.58593 -0.874311 -17.5221 14
636 1 2.14317 14.9697 -3.95091 21
637 1 12.2896 8.97438 0.869561 18
638 1 -5.8016 -11.1742 -1.5849 23
639 1 -0.93866 -0.724069 -16.454 21
640 1 -11.8135 13.9037 -1.15512 11
641 1 8.39872 -6.20083 -11.9207 21
642 1 11.2624 8.37087 -9.5469 16
643 1 9.70688 13.6688 -2.60004 13
644 1 -6.83702 5.63833 0.852372 18
645 1 8.13797 7.0626 -3.96577 19
646 1 13.4651 1.57723 15.7567 14
647 1 10.7047 -0.699531 14.9962 16
648 1 -1.11322 -11.9084 10.8554 12
649 1 -4.40078 8.92425 -13.0719 12
650 1 4.72573 13.7521 10.8178 13
651 1 8.6813 -7.54831 -15.527 12
652 1 2.01513 1.33892 10.3934 17
653 1 8.01554 12.9904 -5.68966 18
654 1 5.28107 9.65168 7.03049 15
655 1 15.6404 -6.03603 -3.70123 11
656 1 7.52508 6.67463 19.2402 11
657 1 -10.8982 -1.28463 5.86879 20
658 1 3.17899 -15.482 1.8404 18
659 1 -0.189163 0.0139476 -8.5358 22
660 1 -9.58615 14.7553 1.54088 14
661 1 4.47621 11.4407 3.04483 11
662 1 -13.8812 -2.52033 4.26477 16
663 1 -1.64998 3.77859 18.1468 10
664 1 -5.01563 6.10581 -14.9919 14
665 1 -7.05447 7.04281 -13.0344 11
666 1 4.06387 -13.3599 -0.362641 20
667 1 9.0003 10.0976 -6.75439 21
668 1 -13.8871 5.32324 13.0718 10
669 1 4.36891 -2.38973 -14.4453 20
670 1 1.91692 -12.9522 8.56348 14
671 1 2.86763 15.1228 1.28035 21
672 1 -3.77857 2.70941 15.7252 18
673 1 -8.12015 -7.10099 -11.0611 19
674 1 -4.31563 -10.151 -13.9694 11
675 1 -6.98128 -13.8758 -9.3713 9
676 1 0.507414 16.6097 -7.05182 13
677 1 6.11229 -3.14101 -7.64239 15
678 1 -3.66223 11.7187 7.20251 19
679 1 5.77644 -9.15589 -8.13359 18
680 1 7.2497 -15.8878 0.92074 11
681 1 4.08669 -7.80435 9.39106 16
682 1 16.0219 2.41645 -7.74366 11
683 1 1.53641 -14.1563 -5.24676 18
684 1 -10.98 -2.80155 9.19615 17
685 1 -4.85812 -16.8118 -1.26491 12
686 1 -6.20677 -11.3377 -4.70049 21
687 1 -10.0755 1.21963 11.5563 20
688 1 -6.58146 -16.8676 2.18969 12
689 1 15.2057 5.85046 -6.57489 13
690 1 -4.74441 16.5259 3.8149 9
691 1 -13.0549 6.89603 3.34988 18
692 1 9.62492 -0.423957 2.1874 17
693 1 -12.1515 -1.00501 -9.63265 20
694 1 1.63568 7.45608 -5.58746 23
695 1 10.0866 3.1357 -7.40073 21
696 1 7.66468 10.428 15.1887 16
697 1 9.84853 4.92954 -4.75006 21
698 1 -13.5825 1.20602 -7.35461 14
699 1 -12.5964 -6.09043 -6.01969 19
700 1 -0.291688 6.33894 17.6063 16
701 1 4.68098 6.75943 -10.5928 20
702 1 10.7426 12.1779 6.9216 12
703 1 -2.4849 -0.268196 10.2565 18
704 1 -1.74189 -16.2079 -2.19884 15
705 1 -6.04352 -18.0751 7.15757 8
706 1 -3.07445 -5.36815 7.67741 17
707 1 14.9002 9.47638 10.3214 13
708 1 3.03317 -5.35714 -10.4121 18
709 1 -7.3635 8.12213 -0.572047 20
710 1 6.64754 7.96894 3.90656 15
711 1 -8.73058 -3.94404 5.75656 18
712 1 8.99584 7.52344 -12.3051 15
713 1 -3.28948 -16.8739 -5.4528 10
714 1 1.43596 -18.4093 2.51263 13
715 1 0.900952 -14.8736 -0.532201 20
716 1 6.80166 4.65644 -8.2039 19
717 1 8.17724 17.5448 1.37935 10
718 1 -3.15472 -0.315059 -13.9897 15
719 1 -0.351923 0.656988 12.5024 19
720 1 0.122796 6.30555 -17.3541 13
721 1 -11.3622 -1.11119 -12.5668 12
722 1 -13.58 -3.30216 -0.820379 19
723 1 3.19034 17.1071 -5.98429 12
724 1 -3.47041 -5.95396 -16.5756 12
725 1 -9.10942 -9.1967 0.407384 19
726 1 11.6867 8.95918 -5.85445 19
727 1 10.8988 -6.2776 0.149544 20
728 1 -6.76376 7.01508 12.842 19
729 1 5.6668 -8.081 1.89416 20
730 1 13.9076 -6.63216 -0.456881 14
731 1 11.3767 -4.12978 9.71315 15
732 1 -0.452434 11.5234 7.38334 20
733 1 -11.917 2.65343 13.8504 17
734 1 -8.69904 5.60361 10.5731 20
735 1 -1.81148 -13.819 8.62755 16
736 1 9.96434 1.8332 3.77455 19
737 1 7.20841 8.79155 12.5039 17
738 1 -15.7952 -1.42473 0.115693 11
739 1 8.3129 -6.62048 -1.7708 22
740 1 -11.4528 12.6333 -4.90078 10
741 1 2.91865 -16.2182 7.64038 9
742 1 5.49886 1.01397 13.7146 22
743 1 0.488093 13.9033 5.65403 22
744 1 3.04964 -11.7738 5.81843 21
745 1 -8.48292 -3.27001 -3.00789 19
746 1 3.5962 3.08186 12.5427 21
747 1 -13.8416 -6.1991 -3.1998 18
748 1 1.76191 10.6447 15.5218 14
749 1 4.81618 11.9065 -0.0466766 22
750 1 -10.5767 -10.43 5.17431 17
751 1 -2.95039 -17.1909 7.01742 10
752 1 5.08027 -4.82423 10.3801 18
753 1 11.3304 -3.87577 6.71875 17
754 1 7.34535 7.69034 9.01143 19
755 1 -0.921125 -8.02965 -9.68292 22
756 1 -3.54301 1.96225 -11.4085 18
757 1 -5.45577 -1.1619 12.8988 17
758 1 -1.45886 16.1733 3.72353 16
759 1 13.3711 1.9714 4.96134 12
760 1 3.30883 10.0748 -6.43943 19
761 1 -4.64655 8.46634 14.6321 14
762 1 9.1069 6.82169 11.1571 18
763 1 7.24846 -2.77408 -12.9927 19
764 1 -7.1883 -12.0734 1.50997 24
765 1 14.8111 0.255555 7.61859 12
766 1 4.14967 -1.62573 -10.8664 19
767 1 1.23591 7.47691 15.3014 19
768 1 9.35649 -12.7591 -7.91793 11
769 1 5.47319 5.07267 -15.8854 14
770 1 -2.02768 -8.66048 -4.22629 19
771 1 12.3479 5.62921 -11.1271 13
772 1 17.0109 -2.6671 0.404094 11
773 1 0.160951 -4.89207 13.0284 14
774 1 -2.36455 -8.36061 -12.0196 20
775 1 8.12232 12.2914 0.546464 17
776 1 -12.6732 4.18983 4.70179 17
777 1 13.3133 3.24454 -7.08671 16
778 1 17.0018 6.79989 4.32408 9
779 1 2.38293 -5.58132 -15.6826 20
780 1 -7.81286 12.6137 5.63132 17
781 1 16.396 8.70032 7.36607 14
782 1 11.0788 13.0491 -5.6375 15
783 1 3.59417 1.84637 -14.2714 15
784 1 9.54578 -3.9685 -0.995673 20
785 1 -16.3932 2.77702 0.417871 14
786 1 11.1407 7.00235 3.67137 18
787 1 -12.1135 -10.8019 0.127308 11
788 1 -11.9967 10.3413 -7.64085 12
789 1 4.49397 4.0702 9.98478 17
790 1 -10.9789 -0.0250563 -6.85183 22
791 1 -11.7492 5.36508 7.88974 18
792 1 -2.85233 3.13553 -8.34602 18
793 1 10.8648 -8.22981 -10.1102 18
794 1 -10.9832 -8.54395 -6.00624 12
795 1 12.9975 -7.07813 -3.0985 16
796 1 -15.1732 5.46106 1.70563 13
797 1 -8.27956 -6.66288 -0.795648 20
798 1 13.8289 6.8675 9.35488 22
799 1 -5.15363 -9.10736 7.05695 19
800 1 10.0835 1.79074 17.1443 14
801 1 14.5398 -3.39848 7.92279 11
802 1 11.1985 -1.8564 4.48386 22
803 1 -12.8798 3.83223 1.73037 20
804 1 0.57574 9.77372 10.3923 19
805 1 4.28268 9.55501 -10.6014 19
806 1 -0.890556 -8.37667 -17.3191 11
807 1 -5.47951 14.86 6.2144 16
808 1 -11.4241 -11.3033 8.12581 11
809 1 10.0226 11.3131 -3.89954 18
810 1 1.66576 9.22997 12.9971 22
811 1 14.6916 -3.09013 -4.71292 16
812 1 6.56064 -6.36656 12.3361 14
813 1 -0.854899 11.8153 -11.0458 15
814 1 3.87811 12.4355 -9.05802 24
815 1 -7.79788 -2.29415 8.95182 19
816 1 15.8049 5.64376 7.28561 15
817 1 -3.68044 -2.63333 -11.1448 18
818 1 14.2103 11.4773 0.618372 10
819 1 -14.2029 2.83756 -1.52773 12
820 1 -3.44428 -11.2073 8.13871 24
821 1 4.34218 15.1565 -10.9799 13
822 1 6.52539 -1.7321 10.1059 22
823 1 -1.26046 -12.9169 -2.08508 21
824 1 -6.57063 16.4366 0.952571 11
825 1 -14.6488 5.49447 -1.56988 14
826 1 11.3871 -2.53571 -5.9442 15
827 1 -0.0642663 -13.0886 -13.5491 11
828 1 -7.83733 8.72417 2.86068 19
829 1 14.2599 11.3986 -5.7818 11
830 1 -6.54438 -0.00704773 7.37272 20
831 1 7.70049 -5.47919 -17.506 7
832 1 -6.99866 -10.6098 -9.9162 18
833 1 0.146298 -10.7017 -4.3423 20
834 1 -3.69225 10.9674 13.053 17
835 1 7.78282 -13.3558 -0.467784 15
836 1 -1.21615 9.39539 -13.0633 21
837 1 14.3004 1.36476 -4.8128 14
838 1 6.30147 5.93615 1.24045 17
839 1 1.24316 -17.9005 -0.770868 12
840 1 4.0933 -3.63726 -17.4511 18
841 1 12.8181 -0.491863 2.50586 19
842 1 0.207515 4.42335 -13.6184 18
843 1 -1.66953 -8.28363 7.56388 21
844 1 6.73739 9.33974 -4.92071 23
845 1 7.37604 1.17263 -7.18457 21
846 1 -10.3851 4.45173 -2.9808 17
847 1 -14.2551 4.65017 9.46262 15
848 1 1.75002 5.42731 19.2353 9
849 1 -8.22992 -8.95786 9.26616 19
850 1 2.66502 11.7014 5.9172 21
851 1 -0.499512 -14.7341 2.6206 18
852 1 4.52941 8.57413 -3.38198 21
853 1 -3.73496 7.95114 11.5835 20
854 1 -7.58696 0.519635 12.736 20
855 1 -10.2388 12.5297 7.63794 13
856 1 8.28075 2.17143 -4.3169 19
857 1 -5.53159 -8.158 12.4565 13
858 1 6.27409 -10.2338 4.76312 20
859 1 12.7766 4.17614 10.0264 21
860 1 6.31841 -5.62221 -3.63994 21
861 1 3.59258 -11.8466 -9.09192 15
862 1 -7.72698 0.825013 -13.0764 20
863 1 -2.96042 1.0289 -17.0987 14
864 1 6.69283 15.3668 9.14841 11
865 1 -10.3694 -5.70596 13.1676 13
866 1 -6.05516 8.56368 -7.42028 18
867 1 -13.9223 3.6402 -4.9073 13
868 1 11.6646 12.0606 -0.343975 18
869 1 -9.12301 -16.7213 4.86089 10
870 1 -1.62921 8.66474 6.65767 21
871 1 13.3171 9.87565 7.51019 15
872 1 -9.08488 -12.7511 -4.3488 12
873 1 3.84382 16.7213 9.15218 11