ITEM: TIMESTEP
30000
ITEM: NUMBER OF ATOMS
2000
ITEM: BOX BOUNDS pp pp pp
-30.0 30.0
-30.0 30.0
-30.0 30.0
ITEM: ATOMS id type x y z Coordination
1 1 -9.61724 2.96302 -13.4473 11
2 1 -5.00588 -11.7491 -8.55765 20
3 1 3.26974 11.4231 13.813 8
4 1 10.2872 -14.8671 4.61158 20
5 1 -15.0173 2.80454 -6.97517 18
6 1 11.9977 -11.0114 -6.41612 11
7 1 -11.9309 2.52445 -5.59287 19
8 1 -4.2021 -10.6709 12.0919 11
9 1 -12.0525 0.727819 -13.721 8
10 1 -15.9991 -9.63946 0.243927 13
11 1 14.4387 -0.722699 -11.0179 9
12 1 -4.74518 0.573861 -5.5534 22
13 1 -4.51943 -16.7557 0.354699 16
14 1 -13.4721 -8.02762 2.96539 17
15 1 1.15104 0.217591 18.1363 14
16 1 6.32752 -3.27509 7.5455 21
17 1 0.406351 1.19854 11.4256 21
18 1 7.37422 -4.97567 1.48641 23
19 1 -5.39336 8.11025 -7.13778 17
20 1 3.97852 -7.72194 12.13 16
21 1 -7.0933 -4.38175 -15.4402 16
22 1 -12.5628 -6.31959 11.1938 12
23 1 15.7366 2.73908 12.0448 15
24 1 2.57441 9.64532 -13.6128 10
25 1 1.1919 1.11325 -12.5537 18
26 1 11.68 -1.35906 13.666 16
27 1 -10.5325 0.0853811 -0.796502 20
28 1 -14.9692 0.635014 -9.19223 14
29 1 -4.9816 -1.96298 -7.59805 17
30 1 -13.6155 8.80091 7.64306 10
31 1 8.91072 -14.4675 7.34328 11
32 1 0.159086 -2.10102 8.12443 20
33 1 3.17963 -15.4093 -8.85986 17
34 1 9.67967 -12.4345 2.912 20
35 1 -7.96133 -16.5638 -4.83181 9
36 1 -11.6036 -9.66541 10.1547 14
37 1 3.73042 -3.67794 -3.12765 20
38 1 1.14276 -6.44609 -13.9954 18
39 1 10.6092 -9.70871 -9.12151 16
40 1 -3.63369 0.869715 -14.3671 18
41 1 -0.288117 2.60021 13.8471 21
42 1 -2.38574 -15.0533 8.53514 15
43 1 8.85554 -6.21854 15.1831 12
44 1 -14.4681 -2.68807 1.61753 20
45 1 -17.3185 -7.78049 2.82191 13
46 1 -10.4579 -3.97474 -2.10111 17
47 1 -3.48332 12.648 -0.200761 14
48 1 0.299899 -17.3126 -8.85978 12
49 1 1.06679 -1.58293 -11.1832 17
50 1 6.03574 -7.77133 -10.9652 19
51 1 -2.47949 -5.74282 15.7559 17
52 1 -14.8207 3.00673 -3.24669 18
53 1 2.75722 7.64168 -9.09837 19
54 1 5.27969 10.4306 6.36223 21
55 1 -9.4105 6.2813 -5.50893 18
56 1 -0.00847598 10.4179 3.97068 19
57 1 -0.206395 -14.2353 4.41964 20
58 1 3.68123 -3.68154 -8.39555 21
59 1 5.29852 -7.70402 -14.7105 14
60 1 -9.55025 5.20593 9.76795 15
61 1 -16.2354 -5.4185 -8.74734 14
62 1 3.90322 -3.04877 8.42434 22
63 1 -10.7793 7.66148 -2.64956 17
64 1 -6.54719 -13.1883 4.90684 20
65 1 -3.2486 11.2643 12.986 10
66 1 -13.546 3.76984 -9.66835 10
67 1 -6.36995 9.86863 12.9353 13
68 1 -1.38606 5.09045 -2.97323 22
69 1 2.57428 2.82748 8.92405 20
70 1 -8.84994 -15.1816 3.6407 20
71 1 4.09528 6.25715 12.7914 17
72 1 8.757 -17.9577 0.230142 11
73 1 0.441193 9.38251 15.3167 10
74 1 -14.3464 -2.65328 -8.74535 20
75 1 -16.7989 -2.27039 -10.7854 11
76 1 7.0074 6.50136 14.6743 18
77 1 9.69634 -7.92421 -4.41265 19
78 1 12.7976 -11.6939 3.15169 11
79 1 -16.5221 -4.51522 2.40281 14
80 1 -8.71858 -4.80951 0.851907 21
81 1 9.69351 15.3872 4.72064 11
82 1 4.59493 -10.6769 12.3949 11
83 1 -8.21544 -12.8019 7.71852 20
84 1 -8.60996 -2.24544 -1.43989 20
85 1 12.6132 -0.257446 8.2224 21
86 1 8.88143 1.31274 -1.05303 20
87 1 -2.78729 10.6684 7.21367 16
88 1 4.70722 -5.49497 7.35644 21
89 1 -8.2094 -8.40873 2.1984 23
90 1 -4.2098 -5.08673 -11.0845 20
91 1 -13.5592 5.44817 10.2995 12
92 1 -10.8023 11.7322 -3.11414 14
93 1 -5.87348 7.93135 -3.81502 19
94 1 1.60092 0.716599 -5.75316 21
95 1 3.91022 -1.95147 -5.77787 19
96 1 8.08158 10.4812 -8.58878 11
97 1 10.7214 -11.7428 6.06044 12
98 1 3.84561 -9.31577 9.38975 20
99 1 -7.71797 13.3482 -2.99823 11
100 1 -10.6682 10.3856 3.74402 15
101 1 -5.99885 -5.10046 15.3749 13
102 1 -2.31604 8.29326 5.49036 20
103 1 -5.03952 -5.22672 10.257 20
104 1 8.23588 -6.29688 -2.07345 23
105 1 -10.822 3.14506 5.27414 20
106 1 -11.9489 -18.7127 0.274452 12
107 1 5.19096 -6.83701 -2.98406 23
108 1 5.72164 -2.53067 -11.3969 21
109 1 -7.81302 -5.38524 -12.4348 22
110 1 4.38008 -2.07838 4.8722 21
111 1 0.551701 9.8417 6.94644 15
112 1 -9.01402 3.317 -5.37112 17
113 1 0.469922 6.59603 17.8477 11
114 1 -2.82739 11.7429 -3.37313 16
115 1 -12.458 7.78396 -6.44908 15
116 1 1.63025 9.19496 1.70239 21
117 1 -7.15872 -8.11169 7.82438 19
118 1 15.4565 -1.8389 8.5025 10
119 1 -4.56834 -8.53017 -9.03743 19
120 1 4.82622 -9.08399 -8.11278 18
121 1 -3.35275 4.12108 5.112 20
122 1 2.40292 -4.42656 13.062 17
123 1 -12.8087 -9.07388 0.399255 19
124 1 6.33054 -4.75848 4.66613 24
125 1 -10.163 -11.4517 -5.59526 18
126 1 11.7724 -12.4669 0.46857 16
127 1 -5.37819 6.40423 4.49634 17
128 1 7.34072 0.198732 -10.9139 17
129 1 7.65947 14.4931 -0.937164 11
130 1 -8.63839 -14.2092 10.6904 11
131 1 -12.8752 -13.9898 6.8142 13
132 1 -4.95393 4.24806 2.31653 21
133 1 4.7887 -10.9559 -13.3417 16
134 1 2.6853 8.97629 -6.10619 19
135 1 11.6771 -12.1122 -2.97165 14
136 1 -2.21101 -18.558 7.41564 11
137 1 -7.86311 -16.2944 0.967732 17
138 1 12.8068 4.03106 11.3318 20
139 1 10.0682 -4.71864 -3.78698 24
140 1 -16.7276 -4.0781 -0.361661 16
141 1 12.7006 7.61582 4.17825 17
142 1 15.3946 6.56625 4.14038 10
143 1 -4.04988 -0.533604 15.6855 16
144 1 4.9861 5.66632 0.583749 19
145 1 -9.73935 8.4077 12.533 9
146 1 -9.00164 12.6039 -6.11156 12
147 1 -2.00347 -5.79735 -13.7364 21
148 1 8.89037 -12.2654 -8.11917 15
149 1 0.998403 11.6385 -11.1326 11
150 1 10.0967 -7.24214 12.4477 11
151 1 -2.65446 -6.38297 -17.9136 10
152 1 -7.8121 6.17761 -2.09789 21
153 1 11.6653 -2.17034 -5.16243 23
154 1 -14.0988 6.16461 -3.8221 17
155 1 -10.0056 13.2803 -0.751104 11
156 1 7.74847 0.633638 -7.20475 21
157 1 4.57363 -12.7616 4.2136 21
158 1 -7.67374 -0.168149 -6.26053 17
159 1 -3.61674 11.2839 10.0154 15
160 1 11.5615 4.77877 -9.26757 16
161 1 0.819573 7.6847 -3.25996 21
162 1 -3.17045 14.8859 3.59003 10
163 1 7.61933 6.71647 -0.626178 21
164 1 -8.61551 9.03474 -3.07323 14
165 1 0.605666 13.6568 -9.53316 10
166 1 1.56554 6.71203 -14.692 13
167 1 -14.3737 -12.9927 0.5192 14
168 1 -16.7228 4.43224 -1.99186 11
169 1 -6.49702 -4.51359 -9.35783 16
170 1 -2.30226 -7.24851 -10.8906 21
171 1 10.4345 12.0674 10.1093 12
172 1 4.59945 13.4079 7.38713 18
173 1 -11.0326 -4.45302 -10.8231 20
174 1 -13.5515 12.0394 -1.14326 10
175 1 14.8383 -3.99931 -2.79145 16
176 1 -12.3606 -3.01748 -12.8595 15
177 1 7.78539 2.16938 14.4051 18
178 1 6.03212 15.8798 3.94089 13
179 1 -5.64981 10.0877 5.20845 21
180 1 1.80888 -11.5902 -11.9743 15
181 1 -3.67846 8.27722 12.0276 22
182 1 -3.4306 9.72422 -5.10715 18
183 1 -0.10596 -7.01079 12.1385 19
184 1 -6.42292 -4.71903 6.44101 18
185 1 -1.2403 -12.796 -11.5394 17
186 1 -7.47683 8.2196 -9.7661 15
187 1 -3.34664 -13.3618 0.121465 20
188 1 5.23502 -17.5349 -0.637917 15
189 1 -2.20131 4.28894 -9.92891 19
190 1 -14.1738 -2.57633 6.9173 14
191 1 -0.587566 6.36088 -4.02542e-04 22
192 1 8.62562 3.84245 -3.76607 22
193 1 -7.54565 6.59793 13.0389 15
194 1 0.707466 -11.7016 9.62307 19
195 1 -11.7141 -1.42338 -2.93633 19
196 1 3.26815 14.887 4.99211 14
197 1 -0.0593559 4.25501 9.18961 22
198 1 14.6459 4.15473 14.7163 14
199 1 -4.72849 7.89627 7.26594 18
200 1 11.7845 -6.77789 -10.0199 13
201 1 -6.08616 12.3707 10.8657 10
202 1 -10.0278 -3.77204 -8.11278 20
203 1 11.8111 -7.35624 3.99145 14
204 1 -4.43653 -10.8357 5.36809 17
205 1 -13.6083 -5.13363 3.62117 17
206 1 -10.4726 -10.5991 -0.0710159 19
207 1 6.38149 7.79589 16.9859 11
208 1 -17.6454 -3.26972 -7.63269 9
209 1 -3.10316 -19.4353 -1.00609 14
210 1 -6.59346 -6.34449 -0.420839 19
211 1 3.76019 -10.0993 -3.57447 20
212 1 -1.68126 8.32491 1.97004 20
213 1 -7.96405 -2.1338 2.61854 16
214 1 7.40587 11.9545 11.6781 12
215 1 -4.74601 -4.37809 -5.04925 20
216 1 -6.96068 11.3794 -8.89808 10
217 1 -15.6946 -5.90654 -5.41748 17
218 1 -6.70593 -3.87898 12.6379 16
219 1 1.68273 -11.6348 4.02226 21
220 1 3.73761 -16.97 7.76076 11
221 1 -14.3218 9.67194 0.928344 12
222 1 15.1947 1.15213 4.20847 12
223 1 6.54433 1.66462 -3.97873 21
224 1 -6.18374 -12.4466 -12.9353 16
225 1 6.66901 -1.26739 10.0327 20
226 1 8.87438 -18.3619 4.1637 14
227 1 -1.09137 2.26833 -14.7124 23
228 1 0.757191 -9.0472 -11.3357 18
229 1 7.7272 0.369885 -14.9695 9
230 1 5.28834 4.94911 -14.1346 13
231 1 -7.631 -4.29256 -6.78049 18
232 1 -5.5093 12.1915 -5.47002 14
233 1 -10.3751 -15.3916 8.30417 13
234 1 5.14903 8.91915 -0.351476 19
235 1 -7.23198 0.900698 15.1493 10
236 1 -6.62054 12.3897 0.251322 16
237 1 7.30849 -4.76242 10.0987 20
238 1 -5.77111 -9.97827 -14.6108 14
239 1 -6.49088 5.48694 -6.05129 18
240 1 1.54272 4.68664 -8.67188 22
241 1 -14.1584 -15.9707 1.05201 8
242 1 -6.81132 5.03144 8.13524 17
243 1 -8.19245 8.7581 7.20182 20
244 1 0.588595 -13.7333 -6.36539 22
245 1 -5.8736 -21.0984 -0.278668 10
246 1 10.8481 -15.2058 -0.959372 11
247 1 3.89199 -8.50996 -0.895625 21
248 1 13.4234 7.13225 14.9114 13
249 1 8.48585 7.91615 -10.8503 14
250 1 -0.403865 12.5703 -1.60275 20
251 1 -10.9608 0.311983 5.76678 22
252 1 -10.8435 9.63687 -0.750512 17
253 1 2.85871 1.73469 12.5066 23
254 1 3.33943 -17.2825 2.0676 20
255 1 12.7581 0.0489484 -3.06023 19
256 1 2.66596 5.81534 10.5516 18
257 1 -12.8069 5.49226 4.98829 17
258 1 -12.5683 -8.73537 -5.96629 18
259 1 1.96987 3.91394 -14.2689 18
260 1 5.14294 -3.42584 11.4587 17
261 1 5.46674 8.19722 -9.04354 22
262 1 2.0914 -12.7315 -3.87862 21
263 1 0.151698 -5.93293 -11.3451 22
264 1 1.3337 -19.4903 6.74138 10
265 1 6.59976 -3.05584 -7.16211 21
266 1 -11.6959 -4.86476 5.96799 20
267 1 -1.46862 -16.2911 -0.224198 22
268 1 -9.48615 -6.32281 -9.12077 22
269 1 3.05924 10.0697 -1.62336 21
270 1 -0.594545 -4.15079 -16.2565 20
271 1 7.30801 1.43261 17.3113 15
272 1 14.4257 1.8812 0.405462 15
273 1 -4.56023 -7.02171 1.98923 22
274 1 10.2735 -3.51684 -7.39057 21
275 1 -2.95125 -9.72934 1.64499 22
276 1 -6.15631 -7.60158 -10.8583 20
277 1 -11.8515 -1.61807 -8.90674 19
278 1 -7.45323 -15.7547 6.55653 19
279 1 9.14066 -0.849512 12.1055 17
280 1 1.432 -4.94712 7.55558 21
281 1 -6.69096 -10.2864 -10.6474 20
282 1 0.728381 -8.38456 4.30347 20
283 1 0.0890969 8.43541 -12.7075 14
284 1 8.09163 5.27863 1.40389 20
285 1 -10.8589 -10.0114 -2.73297 20
286 1 4.3726 10.0712 2.57235 19
287 1 -4.4492 -2.94496 8.13939 19
288 1 -8.86727 -11.8777 -8.77947 18
289 1 -5.0961 -5.97426 -7.82108 16
290 1 -3.16957 6.93216 -11.4896 16
291 1 -6.91579 -11.6073 -6.26848 22
292 1 -8.24643 -12.1524 -2.73198 17
293 1 7.19936 -5.29579 -13.6946 19
294 1 12.5309 -2.44003 -8.65411 18
295 1 12.934 2.66957 5.95025 21
296 1 -1.34005 -7.23394 -2.9402 20
297 1 -9.19235 -7.65363 9.90642 19
298 1 -6.35342 -11.8474 -0.340297 19
299 1 8.55321 4.95512 17.4558 12
300 1 -7.16777 -17.679 4.02581 15
301 1 0.0317559 3.65834 -5.12718 21
302 1 0.823707 -14.9086 1.82783 19
303 1 2.69841 13.2913 -1.12238 18
304 1 4.04997 0.502403 -11.7043 15
305 1 -11.1396 -6.54734 -12.4902 18
306 1 2.26481 -6.82398 1.55982 22
307 1 -5.17232 -13.6406 10.6169 11
308 1 2.55685 3.69857 16.9944 17
309 1 3.45717 -13.9827 -1.73304 19
310 1 -0.51407 -14.9977 -9.5395 14
311 1 -10.6715 2.58263 -11.107 14
312 1 8.11095 5.93164 4.6854 20
313 1 -6.32002 0.258297 -8.98872 19
314 1 -2.09439 5.42989 -6.86038 17
315 1 -5.91087 -2.05061 5.03341 22
316 1 6.66131 -13.6278 -6.04205 16
317 1 -1.63845 11.5727 1.95998 21
318 1 3.88236 7.7813 8.12887 22
319 1 5.79635 1.09982 4.43533 22
320 1 -11.6461 -2.57919 4.1424 22
321 1 -2.77868 -5.47181 12.0276 18
322 1 -4.74138 10.0704 1.52482 18
323 1 2.8555 -6.58791 -9.07617 25
324 1 12.153 5.70149 -3.53786 15
325 1 2.80734 -12.5672 1.68404 21
326 1 -0.448826 -4.36416 17.5007 14
327 1 -18.0337 -6.98397 -0.0946472 10
328 1 0.33969 -13.6784 -0.857687 24
329 1 -9.81403 1.7647 11.5367 13
330 1 -12.492 0.714853 8.02481 19
331 1 -14.3121 -7.99744 9.12456 13
332 1 -15.7326 -10.56 5.21096 13
333 1 11.4895 -6.7702 -2.20244 20
334 1 -10.2445 -9.83653 7.25161 21
335 1 5.54154 -0.63628 -8.12493 20
336 1 8.94366 -13.7678 -3.4728 11
337 1 4.78877 14.9832 -2.06124 11
338 1 -3.91514 -5.09881 4.93582 24
339 1 -13.7935 9.62491 -3.96485 11
340 1 0.446758 0.579333 8.33594 22
341 1 13.4356 2.63155 9.16764 20
342 1 -8.87816 -4.76542 4.59622 20
343 1 8.5374 -11.1635 0.257319 17
344 1 -6.77535 6.8514 1.65452 21
345 1 -8.26524 7.7383 4.22164 19
346 1 5.05055 -14.6092 6.52688 17
347 1 11.4006 -5.98993 7.27941 12
348 1 -1.06593 5.80912 6.53563 17
349 1 -4.55368 -7.33594 -3.10156 18
350 1 -1.38404 -1.4853 16.1025 23
351 1 2.6804 11.9194 4.74815 19
352 1 10.0497 8.04116 15.183 13
353 1 -9.72685 10.6056 -8.83383 11
354 1 3.09033 -9.80447 -16.2489 10
355 1 -7.05948 -4.45563 -2.57615 23
356 1 7.48592 -11.941 -11.7993 14
357 1 -11.7679 3.83184 8.24243 19
358 1 -17.2032 -1.00881 0.848376 13
359 1 -2.41991 -8.37227 -6.92172 18
360 1 -3.82972 6.21383 0.959781 18
361 1 6.10629 -7.88245 8.20733 20
362 1 -13.8068 -10.9947 2.62156 20
363 1 7.55131 -13.0341 5.24588 19
364 1 -8.2026 -10.5422 10.0711 16
365 1 -15.2455 3.71878 1.10706 14
366 1 -1.06507 -9.40626 11.4481 17
367 1 4.10798 -14.5213 -5.43898 18
368 1 -9.14835 -1.33517 -10.0999 16
369 1 6.21357 -2.13294 -14.0682 15
370 1 5.81389 8.22169 4.61311 17
371 1 -12.7191 -5.65045 -4.13057 17
372 1 4.13884 -10.6045 -10.3815 24
373 1 9.56199 2.44287 -10.2736 21
374 1 -2.62542 -16.9421 -7.39191 12
375 1 -14.9865 -8.13191 -7.98628 13
376 1 -2.69556 -7.5381 -0.5952 21
377 1 11.9452 4.31893 16.4963 12
378 1 7.21981 3.67582 -1.21677 21
379 1 -9.5975 0.993981 -7.83996 18
380 1 5.57896 16.4461 0.852478 9
381 1 -18.6505 -1.67933 -4.84678 8
382 1 -10.9231 7.90724 6.15492 19
383 1 -11.7931 11.5371 1.02786 14
384 1 -9.11446 5.36485 6.1124 18
385 1 8.56331 5.23647 12.741 19
386 1 9.31681 -4.02246 -0.632974 20
387 1 7.42085 -3.507 16.2826 11
388 1 10.8733 0.179027 -7.67017 20
389 1 -6.69219 -17.807 -1.55659 14
390 1 -1.95047 2.66572 8.0096 21
391 1 -6.20143 3.62332 -0.279675 25
392 1 0.694554 -10.0425 -3.72842 23
393 1 2.7845 8.7827 5.40152 22
394 1 -10.7578 -0.744883 -5.53193 20
395 1 5.50647 -11.5866 -0.411688 25
396 1 13.8325 -1.19948 5.58875 16
397 1 -10.29 -6.43464 -6.17091 20
398 1 -8.33418 -11.8002 2.46886 20
399 1 -4.63409 -7.26266 13.565 15
400 1 -5.3655 11.0559 -2.50751 19
401 1 -12.8747 -11.6233 -4.53978 14
402 1 2.85376 8.17236 16.4077 10
403 1 -8.61709 3.24371 -2.34717 16
404 1 0.239866 10.1116 -4.74655 18
405 1 8.5296 10.8883 7.05398 17
406 1 -14.1489 -10.849 -1.76158 17
407 1 -3.69797 -11.5397 -5.84935 24
408 1 -12.4464 -0.0250908 2.07649 20
409 1 -15.2359 5.99458 -7.39496 10
410 1 4.9784 -6.85877 2.22156 22
411 1 -6.10831 -14.7755 -1.37205 17
412 1 13.2294 11.5298 8.31996 8
413 1 3.67642 3.39422 -11.543 23
414 1 -14.245 -1.09805 -11.5351 15
415 1 -2.0948 14.3415 -7.18478 8
416 1 -11.8882 1.93192 -2.86792 21
417 1 -1.30668 -13.022 1.954 21
418 1 14.3831 5.77055 7.07245 15
419 1 -0.977664 5.45708 -14.7914 13
420 1 -3.10558 -0.0833699 7.36765 22
421 1 -17.6017 -1.62315 -1.67769 14
422 1 -7.36993 0.181327 11.2353 16
423 1 -3.14745 -14.0325 5.2133 22
424 1 -1.15579 -5.24784 -5.57352 19
425 1 7.12253 -10.3069 -9.22873 17
426 1 -0.438714 -7.17232 7.02602 19
427 1 -13.8369 -0.382637 4.92168 21
428 1 -14.8152 -5.40312 9.05101 7
429 1 -13.7418 2.30765 3.72609 21
430 1 1.28837 -8.27301 9.62587 23
431 1 -8.41118 -0.0401646 -13.5813 17
432 1 5.86619 -9.15231 -5.23504 19
433 1 2.05084 -9.5603 -8.84222 20
434 1 -3.78249 -2.76791 12.0468 18
435 1 2.05658 -7.11936 -2.64533 22
436 1 -5.72921 -1.16229 -15.324 17
437 1 2.94875 -15.22 3.74139 21
438 1 -2.21115 8.23402 -2.67807 21
439 1 -13.2443 6.0687 7.58332 14
440 1 -3.67053 -3.42382 14.5881 22
441 1 -9.40388 -11.829 -11.3157 14
442 1 -7.67867 -9.77031 4.90053 20
443 1 7.91023 -10.0767 7.04093 16
444 1 3.38214 1.80107 -3.42068 21
445 1 -6.38215 3.32481 5.28613 21
446 1 2.31811 -0.874808 -8.14617 18
447 1 6.46243 -10.7331 3.24583 19
448 1 14.7291 3.83198 -4.66402 13
449 1 -0.659265 -3.84051 13.5962 25
450 1 2.09335 11.933 1.3159 18
451 1 4.66409 -11.152 6.73447 24
452 1 -1.52445 -17.8067 -3.89763 16
453 1 -3.1647 5.90209 16.9572 13
454 1 1.44729 14.2517 8.25226 11
455 1 -9.75054 -13.9243 -6.35024 11
456 1 9.54038 12.2231 -0.28552 14
457 1 6.42034 6.64687 10.7987 22
458 1 -5.22734 2.19577 13.1308 16
459 1 -5.95087 -10.1557 -3.27045 20
460 1 -11.2613 -2.1514 8.06978 19
461 1 -7.11677 -6.74833 -4.36694 21
462 1 -4.3485 13.1352 8.18383 13
463 1 -4.97322 -16.6391 -4.18723 17
464 1 -3.08513 -11.7825 -14.0339 12
465 1 -4.99139 -15.8469 3.67535 16
466 1 -5.94327 -7.04959 5.02599 19
467 1 9.33447 -2.78552 8.82855 17
468 1 -2.16283 -7.43091 9.39352 17
469 1 -8.02833 1.6213 -10.8909 19
470 1 6.76118 2.6713 1.92232 19
471 1 -9.54187 -16.9147 -1.35382 16
472 1 -4.79594 5.72165 -8.42468 22
473 1 -0.261037 14.3968 0.876621 15
474 1 -7.58976 5.7078 -8.75704 18
475 1 -1.86092 8.20689 8.48079 19
476 1 -17.86 -4.69439 -3.01945 11
477 1 1.74366 14.7135 -3.63659 15
478 1 5.54108 11.515 -1.68013 19
479 1 -8.68246 -9.0728 -8.39956 19
480 1 2.60841 -2.68286 18.7082 9
481 1 3.18167 -18.3826 -7.08737 9
482 1 0.508718 -3.37389 -13.4834 18
483 1 12.4802 -14.6216 1.84335 14
484 1 -13.559 8.50624 4.37666 12
485 1 4.85895 1.50155 14.8093 22
486 1 5.46867 4.79789 -3.49433 21
487 1 1.87741 4.58743 1.86047 20
488 1 -9.25575 6.07707 -11.2506 13
489 1 -0.27755 1.55752 -8.00342 19
490 1 0.787499 -9.71422 1.93047 24
491 1 -16.5772 -7.29798 -2.58618 12
492 1 7.88482 15.012 7.20069 11
493 1 -5.4319 3.38958 -10.5426 20
494 1 9.88277 2.71871 1.0361 20
495 1 5.18964 12.3273 -9.51107 8
496 1 7.29985 -8.20192 0.0516909 21
497 1 14.7066 -1.16168 -1.00017 14
498 1 -2.72363 -3.75679 -7.97968 22
499 1 2.19258 -10.835 -0.774415 21
500 1 -2.04043 -16.3139 3.0169 21
501 1 3.58739 -12.6617 9.48782 13
502 1 -8.25103 0.396991 -3.30883 23
503 1 -11.0637 -16.416 1.69722 17
504 1 -1.86504 -12.6196 -8.28077 21
505 1 11.5047 10.8157 6.01549 15
506 1 0.00820287 -0.65803 -15.9102 18
507 1 -0.686669 -1.91785 19.0703 13
508 1 -14.9666 -1.13091 11.7891 5
509 1 -1.12047 -19.2045 1.60746 16
510 1 -14.7922 -3.19656 -3.0935 17
511 1 13.626 -8.39642 -7.18365 13
512 1 12.4079 -3.10906 -1.82509 21
513 1 -9.78567 6.20156 0.114689 18
514 1 3.56177 -11.559 -6.67632 23
515 1 4.84618 4.71803 -8.62164 22
516 1 7.38763 -6.56786 -5.52627 20
517 1 -3.64631 -3.62632 17.4886 11
518 1 7.02592 11.6912 1.15339 19
519 1 -6.00556 -7.40606 -16.5888 13
520 1 2.10789 1.78513 -16.8956 15
521 1 -8.58383 -2.14675 7.13839 20
522 1 -3.16369 12.1142 4.88981 17
523 1 -8.03592 -7.59046 -14.2657 15
524 1 -13.7561 -0.493726 -0.780823 22
525 1 -1.44999 -9.50587 -13.1715 17
526 1 -11.8771 -14.4691 4.65538 18
527 1 -3.70326 6.22621 -4.99249 21
528 1 12.5236 1.89363 14.3767 17
529 1 11.0033 -0.333115 -0.0316936 20
530 1 -12.2793 -16.3373 -1.6581 12
531 1 -1.03128 -10.8122 -1.08759 23
532 1 1.24777 -10.7257 -14.4611 13
533 1 -8.6529 10.2208 10.4676 14
534 1 -0.184818 -8.02619 -5.36424 20
535 1 2.4512 2.98615 4.62671 18
536 1 11.4785 -1.16964 3.32923 19
537 1 6.232 11.1783 -6.77049 18
538 1 4.24049 -9.41495 1.75643 21
539 1 14.7251 4.05741 -8.22203 10
540 1 2.49643 3.9569 14.1548 20
541 1 -9.51786 0.39675 8.47877 18
542 1 8.07467 4.35073 9.31598 22
543 1 8.5239 -0.808673 14.8031 18
544 1 -1.46435 -3.96105 -11.2732 22
545 1 -6.13479 -8.70746 -6.2376 20
546 1 1.44974 -2.18544 10.9924 20
547 1 10.0447 8.00422 6.90338 16
548 1 7.78006 7.98029 -7.09039 19
549 1 -11.7068 11.196 -6.18991 11
550 1 0.667714 16.876 -1.44211 7
551 1 10.799 -4.52014 10.9991 15
552 1 11.3788 -0.515845 -11.0106 15
553 1 14.5332 -7.01949 -4.10933 14
554 1 14.6739 8.97652 12.3953 12
555 1 -13.1437 -5.24001 0.362751 16
556 1 -2.38706 12.2829 -9.78959 13
557 1 1.75778 -2.89754 15.3792 24
558 1 -15.3812 -7.68892 5.61962 12
559 1 -3.72027 11.2047 -7.76317 14
560 1 7.89196 -14.647 -0.632131 19
561 1 8.32662 -2.10593 -9.20448 21
562 1 -1.37069 14.8665 -3.69614 10
563 1 -8.95927 -10.0856 -13.5235 13
564 1 0.707325 -17.505 4.01807 19
565 1 -10.3377 -7.50998 0.11451 22
566 1 -1.53287 9.92012 -10.8624 14
567 1 -7.61287 0.770421 -0.410582 21
568 1 -2.65992 5.32073 14.0168 23
569 1 -9.3506 -7.26548 5.30789 23
570 1 3.46223 3.90199 -1.11902 20
571 1 1.36525 -12.4659 -8.7696 20
572 1 1.34422 -9.88469 13.1834 9
573 1 9.62923 -1.50004 -2.42469 20
574 1 -10.0545 3.36725 -0.00228241 22
575 1 4.29453 0.52985 18.0844 14
576 1 7.08722 12.458 -3.98499 15
577 1 12.6251 -4.86724 -5.1435 19
578 1 6.13223 9.64749 12.4115 20
579 1 -3.00697 -1.54748 -16.5184 14
580 1 -7.16365 -16.6182 9.22444 10
581 1 -1.12355 -0.710445 -9.16134 21
582 1 4.6875 -0.282182 -16.7406 13
583 1 6.68895 13.0029 4.60037 22
584 1 8.37645 5.0178 -8.79384 22
585 1 -4.30179 -3.29272 -13.5889 21
586 1 -3.64794 -12.6687 -2.58473 20
587 1 -12.1992 -9.45581 -12.1701 13
588 1 8.91877 0.0612842 2.63827 23
589 1 15.4673 1.67407 -2.56165 13
590 1 11.0125 -6.61339 -6.96155 21
591 1 15.91 5.9754 12.4228 12
592 1 6.13227 -12.3554 -3.1742 21
593 1 0.334111 4.70007 -17.3881 11
594 1 7.47041 8.28803 1.86411 21
595 1 -9.69795 1.30667 2.31278 22
596 1 12.2609 9.62884 10.8225 16
597 1 11.4004 2.75739 -2.19638 19
598 1 14.4842 -3.74008 3.50512 10
599 1 10.2377 2.86238 -7.0497 20
600 1 5.64728 4.33191 16.1204 20
601 1 15.0117 -0.0433189 14.1277 9
602 1 -0.256757 -4.84805 9.90166 23
603 1 10.4485 7.80778 -4.05473 15
604 1 5.35348 1.28989 -0.865976 18
605 1 1.68083 0.857861 15.2475 25
606 1 15.6113 -4.17214 -6.04462 12
607 1 5.89529 0.0768566 12.8229 23
608 1 -9.68249 -3.77905 -14.5219 10
609 1 11.8403 1.6743 2.78043 21
610 1 7.80948 -8.04249 2.92698 21
611 1 0.551389 -8.33535 -0.839629 20
612 1 -12.9877 2.75024 12.2758 11
613 1 11.2183 7.21659 12.5697 21
614 1 10.2362 1.20298 16.0272 14
615 1 6.11601 9.75594 9.54614 21
616 1 4.18728 12.51 10.7028 16
617 1 5.61779 1.73065 10.1732 20
618 1 -1.36264 -19.7949 4.676 14
619 1 -6.43016 8.95372 -0.84215 17
620 1 10.759 7.74383 -8.57968 15
621 1 9.86288 -6.73645 -13.1651 9
622 1 2.24438 15.1555 1.86404 14
623 1 -2.24327 -14.6606 -5.74024 22
624 1 8.69734 -7.56167 -10.6352 18
625 1 -16.0971 -2.00175 4.06067 13
626 1 -10.4942 7.4117 -8.73669 17
627 1 -4.51174 -18.8499 4.69573 14
628 1 -5.52369 0.252111 -12.2603 22
629 1 -13.3427 -2.89746 -5.71228 21
630 1 9.70651 -8.18417 5.97245 15
631 1 15.4643 8.11535 0.961567 6
632 1 1.51178 -10.3753 6.90254 21
633 1 -9.46671 -8.39721 -11.1557 21
634 1 -0.302682 1.51226 -18.3161 10
635 1 3.22319 -5.11525 4.50786 21
636 1 -2.39791 2.87265 11.3612 21
637 1 5.81602 8.57997 -13.4906 10
638 1 13.7599 -2.60988 11.6372 11
639 1 7.06425 3.92892 -6.34836 21
640 1 12.563 7.43659 -0.390273 17
641 1 5.62811 -17.0931 -6.51223 10
642 1 -9.6811 -5.08845 11.5563 17
643 1 10.6181 -3.34732 5.87015 20
644 1 -0.457953 9.23138 11.9371 17
645 1 4.84531 9.47447 -11.3528 17
646 1 -14.1987 8.34072 -1.52218 15
647 1 11.1409 5.44759 4.20375 16
648 1 -8.80362 -20.1005 -0.0244673 12
649 1 13.7355 -6.35469 2.43268 14
650 1 10.6309 12.8552 2.96811 11
651 1 -2.8059 0.0670669 13.0897 23
652 1 -10.593 -9.53136 3.18655 24
653 1 -12.9901 -6.52551 -10.1499 19
654 1 6.53441 -6.56082 12.7698 15
655 1 -5.48716 -8.02875 10.3616 17
656 1 11.7745 10.0769 13.6657 13
657 1 -7.45992 10.7423 2.14735 18
658 1 4.33939 2.85887 6.72087 21
659 1 5.40253 -4.35408 -0.769791 20
660 1 7.71627 -1.39438 5.41878 19
661 1 1.46918 -5.177 -17.6753 12
662 1 -8.92155 -4.33025 8.39384 18
663 1 8.98134 -2.4462 -12.6313 14
664 1 0.709214 -3.60236 -8.73497 21
665 1 12.4533 -9.12448 -4.1521 14
666 1 8.36653 2.32153 11.7138 20
667 1 7.58144 0.991134 7.69759 20
668 1 -8.97114 -1.89633 13.4021 13
669 1 12.876 6.87128 9.57563 18
670 1 1.13234 -6.14079 14.9912 14
671 1 -2.276 8.55894 14.1187 15
672 1 -0.16381 -8.06704 -16.0545 16
673 1 -7.3656 3.84183 11.2705 16
674 1 -5.60131 1.38294 -2.89281 19
675 1 4.86903 -1.06936 15.692 18
676 1 -12.7306 -10.9217 5.54933 20
677 1 13.9776 4.57631 -1.06797 15
678 1 7.15497 -9.60444 -2.71843 20
679 1 -3.63969 3.21831 -5.49028 22
680 1 4.03191 7.05153 -3.43257 24
681 1 9.35208 10.1486 4.21184 16
682 1 1.51461 -1.57078 -17.5629 14
683 1 -1.71115 -4.03861 6.89509 18
684 1 2.34164 11.6988 -3.80719 19
685 1 12.3003 4.88129 1.33941 18
686 1 -9.36719 -13.9659 -0.30274 15
687 1 -0.880719 -2.93209 -18.8738 10
688 1 -14.3256 6.87097 1.76008 12
689 1 7.75713 -5.45728 -8.43802 20
690 1 4.90725 4.59393 3.44212 21
691 1 9.78005 5.73714 -11.4149 13
692 1 7.71637 10.1316 -1.86259 19
693 1 2.8167 0.260535 6.22103 19
694 1 -8.33829 4.38453 2.70706 22
695 1 5.19543 7.0497 -5.81152 16
696 1 10.3728 -3.3771 16.4813 11
697 1 11.4857 -4.86287 14.1967 10
698 1 -2.65404 -12.1152 9.85839 17
699 1 -5.06984 9.70736 -11.3306 10
700 1 8.75693 7.76611 10.3344 19
701 1 7.46171 -9.11546 -13.7729 11
702 1 3.22381 -0.262577 9.84028 24
703 1 5.3175 9.70097 -4.51191 23
704 1 7.24004 7.23188 7.62168 24
705 1 14.2747 -9.9662 -1.6792 11
706 1 6.17889 3.43422 19.0784 10
707 1 -12.515 -7.81781 5.63769 20
708 1 4.91842 -14.6581 1.17541 22
709 1 2.15031 -4.82733 -5.8855 21
710 1 -9.45666 13.5488 2.55405 10
711 1 -0.283456 3.53085 5.75663 21
712 1 5.04888 -5.45913 -6.08864 21
713 1 3.27639 6.9854 2.93709 20
714 1 -10.7935 -6.06915 2.79561 24
715 1 -5.8996 4.57471 14.7362 15
716 1 -4.30816 3.46114 -13.788 12
717 1 -6.1202 5.96513 -12.084 13
718 1 11.3908 -17.7958 3.15014 9
719 1 9.51134 5.91568 -6.00862 17
720 1 3.03875 -7.63513 6.50737 22
721 1 0.280498 6.69816 4.36842 19
722 1 -14.939 1.939 9.67137 13
723 1 5.79694 -5.05175 -10.7902 20
724 1 0.963903 -15.0849 9.24504 11
725 1 4.68463 13.4166 2.36624 19
726 1 -10.5865 5.08347 12.2869 13
727 1 -7.04131 -14.145 -10.0731 12
728 1 -3.61097 -10.7056 -11.3042 21
729 1 -5.28694 -14.5913 -7.06845 14
730 1 0.668494 13.4785 -6.11545 15
731 1 2.94051 -4.0 -10.9702 20
732 1 1.01971 8.27804 9.3627 18
733 1 5.83951 -13.0481 -8.90837 16
734 1 6.65894 -16.9164 2.24006 18
735 1 6.41753 -10.8168 10.0128 12
736 1 15.3914 -1.69885 -7.48978 13
737 1 3.67187 -17.6762 -3.96876 13
738 1 -11.444 -5.93739 8.32113 19
739 1 -2.56604 1.31024 -11.2364 22
740 1 -3.91053 -20.7732 2.27908 13
741 1 -6.01456 -13.6367 -4.16644 20
742 1 -12.1776 -3.19318 12.4354 9
743 1 -7.16461 -20.4737 2.79537 10
744 1 16.6041 1.21661 -6.43741 10
745 1 -1.7884 13.8329 7.04104 12
746 1 -8.30688 2.5415 6.88268 19
747 1 -12.0021 4.68988 2.29132 18
748 1 9.7959 -5.93727 4.04203 20
749 1 -15.9562 -3.47291 -14.1015 9
750 1 -4.30359 6.37551 -1.38763 23
751 1 4.63081 1.97995 -6.85028 21
752 1 9.25717 9.734 12.4036 17
753 1 9.99744 1.05424 -4.61496 21
754 1 -16.4465 -0.287118 -6.36464 14
755 1 -9.11358 -8.93727 -5.83579 20
756 1 -3.40148 2.7654 15.732 16
757 1 3.40275 6.29558 -11.3633 19
758 1 11.0329 9.91664 1.84289 15
759 1 -1.41343 -1.53122 10.9766 18
760 1 -0.310369 -20.1187 -2.2224 7
761 1 -10.5686 -16.8501 5.25601 14
762 1 -4.45812 -5.94226 7.85985 15
763 1 15.5527 8.00907 9.86488 12
764 1 2.64341 -8.20308 -6.28393 22
765 1 -13.549 5.43377 -1.32297 16
766 1 4.87438 6.19361 5.91619 19
767 1 -5.78693 -9.9707 2.81919 22
768 1 6.30066 5.77594 -11.3805 21
769 1 -0.366607 -15.2355 -3.30217 19
770 1 1.89075 -20.2687 3.62913 12
771 1 2.16707 -16.5961 -0.655495 20
772 1 3.32947 4.11193 -5.87193 22
773 1 8.10587 14.3747 2.10497 17
774 1 -3.86454 -4.45122 -16.1452 16
775 1 -0.0186899 -0.839051 13.9489 19
776 1 -2.9649 3.62867 -16.8046 10
777 1 -13.9293 -6.64674 -13.9183 8
778 1 -13.0641 -7.88389 -1.95805 18
779 1 4.03131 12.5046 -5.67606 15
780 1 11.5865 -4.14099 1.66916 16
781 1 -3.07145 -8.46975 -15.614 14
782 1 -5.03602 -9.06433 -0.431352 20
783 1 13.042 1.12729 -5.2691 22
784 1 10.4836 -9.60306 2.15376 19
785 1 -11.2358 8.2981 9.66705 15
786 1 10.2369 -17.5302 6.57353 9
787 1 15.5041 -7.0114 -0.908026 10
788 1 9.7773 -0.117937 9.32584 20
789 1 -1.75957 6.37585 10.964 20
790 1 -12.5 0.0501287 10.6578 18
791 1 -6.93221 11.0921 7.81286 16
792 1 -0.709446 -13.1871 7.03387 21
793 1 5.64797 -0.871873 2.64035 20
794 1 8.09783 10.0135 15.1107 10
795 1 -13.9322 0.0638603 -4.18797 22
796 1 10.8517 -9.79023 -1.51757 20
797 1 -13.022 9.97008 -9.08324 7
798 1 2.33977 5.37353 7.09836 22
799 1 0.566595 -16.6129 6.96879 16
800 1 4.11724 -4.10973 15.8428 10
801 1 3.11706 11.0299 8.18388 23
802 1 3.8298 -9.47747 4.05821 20
803 1 -9.98331 -3.99464 -4.64033 22
804 1 3.15542 -1.18164 13.0474 22
805 1 -14.8803 -8.5817 -4.72694 15
806 1 0.563998 6.95759 14.3221 19
807 1 2.2366 6.82945 -0.557889 22
808 1 -15.0069 -13.558 3.69625 14
809 1 -4.43068 -16.7639 6.8587 14
810 1 6.26542 -7.55246 5.46305 23
811 1 8.39187 -5.37334 6.89957 22
812 1 10.7966 4.84001 10.4138 23
813 1 -5.1896 3.91598 -3.5997 21
814 1 -0.171391 -10.7493 -6.3637 21
815 1 -1.33201 -0.705807 -12.7511 19
816 1 -4.25427 0.540544 10.21 18
817 1 -0.136288 14.5709 3.57846 14
818 1 10.4184 -0.054897 5.63315 20
819 1 0.513335 6.54399 -5.86773 18
820 1 -5.17737 8.01054 14.7552 15
821 1 10.8551 4.10827 13.8726 19
822 1 9.68805 -4.70999 -10.7812 18
823 1 -11.3892 -13.0158 1.93158 19
824 1 -7.64426 -1.9497 -4.28099 18
825 1 15.5404 1.04955 7.17836 15
826 1 -3.98401 -1.8306 -11.1345 21
827 1 -0.565985 4.12861 16.0591 18
828 1 8.87539 -11.3778 -5.01127 17
829 1 7.38078 2.77913 -12.7962 15
830 1 -2.4827 -10.1502 -3.6275 19
831 1 12.5346 2.71847 -11.1372 11
832 1 14.3036 -4.38082 0.364652 12
833 1 -1.77989 -8.68516 14.2746 13
834 1 -1.08245 -9.62244 -9.41856 20
835 1 10.3487 8.91311 -1.23491 18
836 1 -2.65316 -8.1974 4.18483 20
837 1 -15.282 0.89175 1.71817 18
838 1 14.0413 1.38925 -8.36446 16
839 1 16.5109 3.70476 5.90393 12
840 1 3.46528 -7.76509 -12.2263 20
841 1 -8.24689 11.0175 4.76919 18
842 1 15.7396 4.5648 9.57395 14
843 1 10.4541 11.474 -3.31103 9
844 1 5.20007 2.18477 -15.3082 11
845 1 10.1084 -7.00149 0.894726 21
846 1 -11.0148 -2.87256 1.08166 18
847 1 9.23007 2.57016 4.53812 21
848 1 -13.8815 -13.95 -2.64615 10
849 1 -10.1284 4.17672 -8.58563 21
850 1 5.70764 3.89526 12.3442 25
851 1 -12.6327 -5.40862 -7.70332 22
852 1 -14.2649 2.97597 6.82262 16
853 1 -3.40831 2.06407 -8.46067 21
854 1 8.54 -9.05434 -7.00562 18
855 1 -11.5733 -9.45715 -9.12381 16
856 1 13.511 -9.30886 1.13108 14
857 1 -15.7025 1.4289 -1.16464 18
858 1 -8.01498 -8.761 -1.47379 21
859 1 10.4421 4.90347 6.60814 18
860 1 -4.86682 -13.7534 7.6901 21
861 1 7.67173 -3.85222 13.3954 19
862 1 12.4447 -3.06786 8.90356 16
863 1 8.62408 -2.93148 3.07452 19
864 1 -12.6818 2.47498 0.292063 21
865 1 3.0262 9.44133 11.0332 19
866 1 -2.80865 8.17228 -8.37176 18
867 1 -4.80264 -6.76028 -13.7003 23
868 1 -1.21288 13.5731 10.2085 9
869 1 -13.783 -11.0248 8.21192 12
870 1 9.59216 10.5898 -5.60308 11