ITEM: TIMESTEP
30000
ITEM: NUMBER OF ATOMS
2000
ITEM: BOX BOUNDS pp pp pp
-30.0 30.0
-30.0 30.0
-30.0 30.0
ITEM: ATOMS id type x y z Coordination
1 1 -11.5482 3.08753 -9.79883 12
2 1 -3.14802 -11.494 -4.35982 23
3 1 1.8276 10.684 12.1202 16
4 1 6.08671 -13.921 6.91077 12
5 1 -15.0104 3.45101 -0.473383 15
6 1 10.6499 -4.90222 -11.9553 11
7 1 -11.0364 1.21398 -4.45845 19
8 1 -5.85156 -13.9591 15.0276 11
9 1 -4.81925 -2.66515 -9.46682 14
10 1 -16.4952 -9.18617 6.31123 16
11 1 9.84094 -0.173726 -4.63445 19
12 1 -5.68646 -13.8287 3.51017 21
13 1 -18.5009 -6.42067 6.15617 11
14 1 -2.35244 0.786904 13.0187 19
15 1 -1.64727 3.1743 10.3547 16
16 1 -5.8843 7.52466 -5.87493 21
17 1 8.93409 0.761346 15.2241 15
18 1 -8.71105 -4.28229 -13.476 11
19 1 -11.9227 -6.43414 14.2234 16
20 1 13.1856 -5.30093 2.26722 11
21 1 -2.99415 5.97254 -7.65681 21
22 1 -1.51341 0.370583 -8.45722 17
23 1 13.6858 2.00266 13.6512 10
24 1 -17.44 1.2097 -4.58961 12
25 1 -9.46896 -1.57392 -5.27392 21
26 1 -13.1307 5.78485 13.5454 9
27 1 0.224549 -13.3902 13.4519 10
28 1 5.85323 -14.5112 -9.44507 15
29 1 5.17991 -11.7162 2.64929 19
30 1 -9.67897 -10.7898 -4.61064 17
31 1 -15.9047 -8.02497 8.93109 13
32 1 0.253838 -15.7142 -5.78254 20
33 1 5.05604 -9.26986 -5.3173 24
34 1 -4.62071 3.293 -15.2574 10
35 1 4.77742 10.6994 19.0101 12
36 1 -2.39424 -14.8678 13.0347 12
37 1 6.23769 -7.15506 8.93326 21
38 1 -18.893 -3.40598 6.46484 15
39 1 -17.8895 1.95207 6.50843 17
40 1 -11.0288 0.259325 2.41673 17
41 1 -4.59816 9.2794 5.97251 20
42 1 -0.588616 -16.6732 -2.20532 20
43 1 -0.557832 -10.4826 -7.71848 19
44 1 4.97004 -5.94915 -4.49355 19
45 1 2.41932 -3.54175 20.3282 10
46 1 -9.37095 7.38177 6.90244 21
47 1 -0.158433 9.43524 -6.35925 16
48 1 3.23465 14.5135 10.658 11
49 1 -9.50602 6.14132 -6.28984 16
50 1 -1.17794 15.5095 0.59743 12
51 1 0.975843 -14.3952 3.26011 23
52 1 4.82295 -8.10228 -2.32515 19
53 1 4.76994 -7.47421 -12.8688 17
54 1 -3.98212 8.15866 19.6566 8
55 1 -16.4992 -7.37474 -5.16961 15
56 1 6.13227 -4.63298 7.47099 22
57 1 -12.5431 7.83146 -0.853444 16
58 1 -9.14771 -11.9976 5.89426 20
59 1 -1.57795 13.7903 8.45762 13
60 1 -14.493 1.22981 -9.70235 11
61 1 -7.87428 7.04761 14.0477 19
62 1 -13.3595 -13.2747 -0.510561 16
63 1 1.92143 2.33535 10.9567 20
64 1 5.26673 -16.0226 -2.81669 13
65 1 1.81767 9.45379 15.203 16
66 1 -15.6293 -1.28491 -10.1614 9
67 1 -12.5583 2.43101 -7.24678 14
68 1 3.21601 7.33287 13.6042 19
69 1 9.76752 -2.18924 -11.5937 16
70 1 3.91599 -14.4359 2.08116 20
71 1 -15.1657 0.360072 7.15231 18
72 1 11.0988 12.9614 11.2532 15
73 1 2.54453 -3.0626 13.9823 14
74 1 -15.0686 -12.6092 1.60295 15
75 1 -14.6136 -1.79856 5.12935 19
76 1 13.9859 0.633625 10.6529 11
77 1 -5.52551 8.94204 13.892 15
78 1 4.23239 -3.87399 10.1594 17
79 1 -6.52008 -11.288 -4.62515 19
80 1 -13.324 2.6901 12.4269 12
81 1 -11.7315 7.79339 -4.11315 11
82 1 -0.992026 4.20256 -5.20579 21
83 1 3.34798 -3.11453 -3.34766 19
84 1 7.6716 8.28879 -6.92584 16
85 1 9.07364 -7.24469 10.8624 10
86 1 -0.735334 -15.0218 6.13366 20
87 1 -3.99481 11.8412 -2.11403 20
88 1 -8.2658 7.46609 10.5595 20
89 1 -9.63681 -6.88321 12.4207 21
90 1 -2.89222 7.7373 8.78265 18
91 1 -7.85627 -9.59287 11.8677 21
92 1 11.372 -8.45473 -3.44173 12
93 1 -10.9575 4.03805 6.40275 22
94 1 -12.5093 -12.7279 5.15813 15
95 1 9.17863 -9.18853 -7.1141 20
96 1 3.756 -2.46357 -9.28047 19
97 1 -11.2712 -1.83908 -13.7278 8
98 1 0.286578 10.3713 7.66765 21
99 1 -12.2297 4.50453 -4.73739 17
100 1 -1.40158 2.1643 21.366 12
101 1 -1.87744 12.5807 0.526444 21
102 1 -15.0348 4.86926 3.19257 19
103 1 0.563165 8.41178 2.99052 22
104 1 -7.63279 -9.33041 6.63019 21
105 1 13.1869 0.645398 8.00362 16
106 1 -1.1512 -12.3466 -5.61982 23
107 1 -1.42954 -7.52999 -11.1254 20
108 1 -2.61582 4.49233 13.3685 19
109 1 3.07131 -0.993162 21.2671 12
110 1 -14.5682 -11.0148 -1.89581 19
111 1 -5.53286 -5.18215 -4.13932 20
112 1 4.02073 -12.1994 5.16614 17
113 1 -3.59438 6.1814 6.02056 21
114 1 2.254 5.81898 -9.30232 21
115 1 5.31076 12.6361 -2.764 18
116 1 -8.89969 -14.1521 8.81438 19
117 1 -10.7574 -14.5041 6.40324 14
118 1 6.37026 -8.63136 -14.807 10
119 1 3.30433 2.12158 -2.30972 23
120 1 7.44077 -13.96 -2.31611 14
121 1 -7.14086 -19.9375 7.52171 10
122 1 -15.7588 -9.18384 0.44623 19
123 1 13.5814 3.68371 10.8525 17
124 1 11.8781 -4.80801 -7.30719 15
125 1 -15.9197 -5.3276 7.1493 18
126 1 13.6516 8.0862 8.79711 16
127 1 14.3158 6.98632 3.02635 17
128 1 -0.682662 -3.05748 18.3501 14
129 1 2.70931 3.96004 18.7252 17
130 1 -0.290348 11.3394 -3.57058 18
131 1 2.19082 -7.70016 -10.0382 19
132 1 3.89204 -9.84969 -11.2094 22
133 1 -1.60302 11.8773 -7.71758 12
134 1 3.92707 5.47736 16.7634 17
135 1 0.93778 5.43657 -12.2662 10
136 1 -2.98043 6.68839 -0.0555594 20
137 1 8.7874 -1.17144 -1.94383 21
138 1 -17.4541 7.96016 -3.63979 6
139 1 -7.90818 10.7115 0.0709848 15
140 1 11.2267 -5.5089 -4.23389 16
141 1 5.24396 -11.7706 10.6043 11
142 1 -8.10361 0.939305 -3.6206 21
143 1 -10.9784 7.57713 11.9561 15
144 1 12.8889 13.824 -2.26493 5
145 1 7.07794 5.64693 0.935367 19
146 1 -6.98826 13.1741 2.53904 10
147 1 9.22546 9.10968 0.109024 18
148 1 -4.34551 11.6084 3.31958 20
149 1 -2.31154 13.0424 -5.24433 14
150 1 -2.93942 5.71478e-04 -11.737 21
151 1 -14.867 -5.31106 1.54177 19
152 1 -16.2574 8.7065 -0.298771 14
153 1 -0.293014 -2.45042 -16.4065 8
154 1 2.53077 -12.877 -12.4735 16
155 1 9.03333 15.7741 10.5515 9
156 1 -2.68071 14.2632 3.44539 15
157 1 -14.2222 -2.51509 -3.39382 14
158 1 -12.5666 6.3483 4.87134 20
159 1 13.8019 2.72289 -1.65127 18
160 1 -6.64682 -1.64884 -13.5936 13
161 1 10.3074 5.25111 19.993 10
162 1 8.40147 14.6212 7.45143 14
163 1 5.35835 7.96663 11.196 21
164 1 3.90355 -7.03174 -16.4194 8
165 1 2.74889 10.5824 8.43942 22
166 1 -4.47463 10.0099 0.298699 20
167 1 -1.07385 -5.77176 15.963 16
168 1 -14.4202 -10.119 3.2829 15
169 1 -2.96974 -15.1794 -10.0164 9
170 1 -4.98233 9.93969 -8.62992 14
171 1 -4.14552 -14.9008 6.15681 18
172 1 2.92997 -15.0046 -4.9562 18
173 1 -2.57774 8.89805 -2.54916 18
174 1 -18.511 1.37417 9.53044 9
175 1 14.8869 3.9409 1.32942 16
176 1 -4.96836 4.96571 17.8774 20
177 1 -11.1195 -11.5753 8.19798 21
178 1 -16.2941 -2.69026 1.68421 20
179 1 -4.451 12.291 6.65638 16
180 1 -0.537886 6.28022 11.1606 17
181 1 16.1518 3.89948 11.5152 8
182 1 -7.61198 12.7351 7.18617 13
183 1 11.9766 -7.41396 -9.31029 10
184 1 2.07138 13.691 8.16692 16
185 1 -6.51654 1.55939 -5.85232 23
186 1 9.55914 -4.49054 2.11573 20
187 1 -10.8613 -9.06949 6.9792 20
188 1 -17.6256 -5.56562 0.672881 20
189 1 -16.8548 -12.4727 -1.14671 11
190 1 11.7254 4.07364 14.364 17
191 1 -17.2478 -1.13466 4.84976 20
192 1 -2.16464 -18.8779 0.825812 17
193 1 3.54575 -10.9424 -0.72588 20
194 1 -1.38009 8.50232 5.1948 22
195 1 5.6134 15.7004 13.2623 7
196 1 -11.1939 -4.23641 -6.06542 22
197 1 -5.13916 10.1862 -4.9512 20
198 1 -18.8819 -4.06765 -4.3463 11
199 1 -9.65282 -8.33591 15.5565 15
200 1 -2.63383 -12.1632 6.05559 22
201 1 -2.21612 -9.04304 14.9991 15
202 1 -12.34 10.1577 4.03329 13
203 1 14.1194 1.64795 2.99861 15
204 1 5.29805 -2.08697 -6.12836 19
205 1 -12.5415 -6.34818 -10.2322 14
206 1 0.485172 -0.881768 12.9651 21
207 1 0.695224 -14.8617 9.51361 15
208 1 -3.97214 4.34026 -5.23974 22
209 1 5.21511 -12.6149 -12.9858 11
210 1 4.74234 6.13233 -7.42582 19
211 1 -0.685621 7.82172 -12.3938 12
212 1 -12.1284 -6.33579 -3.01623 19
213 1 -7.51329 11.3979 -3.31749 18
214 1 -13.5607 -11.325 10.7617 13
215 1 2.94773 11.0672 -2.17309 18
216 1 -3.21275 -0.957982 15.3671 18
217 1 -10.3887 10.0616 -1.43722 14
218 1 10.6231 -4.33007 12.1521 9
219 1 -6.98988 -6.85966 -12.1615 12
220 1 -4.40311 6.02321 -2.79532 20
221 1 4.47961 3.05985 -7.68659 19
222 1 -6.15053 -14.0573 9.35636 22
223 1 -16.0391 3.69939 8.91796 13
224 1 -11.8919 5.65556 8.59363 24
225 1 0.612248 -10.4313 -11.0253 20
226 1 -8.01735 -17.2694 -1.19128 12
227 1 4.70182 -13.3952 -0.740503 19
228 1 12.3557 6.96811 11.3616 16
229 1 5.66618 12.6184 -8.55343 8
230 1 -6.26129 6.89651 0.0062117 20
231 1 -11.5372 3.28047 4.12005 22
232 1 -17.5707 6.08955 1.89802 12
233 1 -0.485672 7.14588 14.4724 19
234 1 1.68796 -19.6433 -0.477396 12
235 1 8.10669 -1.08116 2.70865 22
236 1 2.24625 4.31108 8.36618 21
237 1 -14.3059 5.31707 10.8744 13
238 1 -20.9156 -6.86761 0.126474 12
239 1 7.51968 5.65506 -4.78915 18
240 1 -2.97154 -4.87979 12.8433 21
241 1 5.85116 7.25234 -9.8148 12
242 1 0.607482 -12.1789 0.957503 18
243 1 -6.60433 0.150241 -10.746 19
244 1 0.846183 -18.4408 5.92116 16
245 1 8.8547 -2.91575 -6.79381 19
246 1 -7.54146 -6.17924 9.82239 21
247 1 5.28745 -18.5791 2.87497 8
248 1 -12.8602 -6.49332 -7.30694 18
249 1 4.69113 13.5218 2.37017 12
250 1 1.94526 -7.87699 -6.18892 23
251 1 7.07286 6.44216 21.7463 9
252 1 15.1218 0.745208 5.3482 12
253 1 7.01699 -7.43219 -7.55441 22
254 1 -6.72599 -8.60034 -4.3624 19
255 1 -13.8894 -4.53283 -13.3978 5
256 1 -10.5186 -16.5741 9.80352 8
257 1 9.15051 -2.01247 10.6585 22
258 1 2.38858 -6.23984 9.20202 23
259 1 -13.4262 -11.9753 -4.929 19
260 1 -0.521303 -12.0703 8.64888 21
261 1 -4.60332 3.91342 -8.13696 25
262 1 3.57858 5.43311 5.70484 21
263 1 -9.3404 -7.50865 3.27952 20
264 1 -0.0745462 14.1806 5.82319 14
265 1 -11.3935 -0.416293 14.4792 18
266 1 -13.7763 -8.63925 -5.21212 19
267 1 0.301035 -16.1596 -9.18511 10
268 1 -2.93833 6.31181 -14.7645 7
269 1 -4.97392 -13.235 -1.92473 23
270 1 -4.34259 -11.1483 3.67008 22
271 1 3.31453 -4.72497 -7.30657 19
272 1 12.189 -2.49094 -5.97694 15
273 1 12.0305 2.15055 5.74759 15
274 1 -10.2952 -2.89742 16.7195 14
275 1 -9.46417 -11.7268 0.453769 22
276 1 9.99994 4.51628 17.2151 17
277 1 -5.92786 -17.8198 5.90544 21
278 1 -1.09306 -17.2643 3.58683 24
279 1 1.36573 11.9413 0.144839 20
280 1 7.44024 4.0751 -7.45382 19
281 1 -5.58872 -4.46144 -13.8392 12
282 1 -7.02681 -8.3017 17.4282 11
283 1 4.12785 4.98829 21.667 10
284 1 1.35935 -13.3853 -3.07344 18
285 1 -6.30996 -14.7768 -7.81388 12
286 1 -7.36089 -0.581743 -7.53683 18
287 1 9.84231 0.439775 8.4754 22
288 1 -5.89926 9.05159 -2.27073 19
289 1 -2.13049 2.9603 -10.0109 20
290 1 8.22823 -14.4174 -7.51692 9
291 1 -4.28714 15.3341 -1.79196 10
292 1 2.42703 8.27478 5.88352 24
293 1 10.0263 -3.20711 7.68125 18
294 1 -12.4763 -6.29963 7.19443 17
295 1 -4.07368 -9.99332 12.4933 21
296 1 -8.28669 5.10298 8.38991 20
297 1 4.32852 -5.23678 -10.9177 18
298 1 13.3184 11.1789 3.73036 13
299 1 2.09837 -14.4154 -0.578114 19
300 1 -4.05942 -6.44979 15.3656 17
301 1 -15.0112 -7.0126 4.68207 20
302 1 -0.05326 -22.311 0.538849 7
303 1 -8.51057 4.51912 17.0697 16
304 1 -6.65118 7.62428 17.362 11
305 1 -17.2042 -4.45866 10.3265 10
306 1 -15.7127 -11.2431 8.1342 10
307 1 10.0274 -11.3998 3.82387 13
308 1 -8.68596 -12.0155 13.6538 13
309 1 9.13649 -5.93065 -5.9362 20
310 1 9.34433 -8.54985 -10.0023 14
311 1 2.25112 14.0389 -3.08674 17
312 1 -10.5942 10.6927 1.25868 12
313 1 7.34079 6.79423 16.6523 20
314 1 -11.6612 -1.73466 4.56701 21
315 1 8.74136 -11.3956 6.94587 12
316 1 -7.46182 9.99157 8.27892 21
317 1 -6.99897 3.2098 10.9729 20
318 1 2.03262 -11.5981 10.743 19
319 1 7.17396 -9.93988 4.14595 21
320 1 -2.89851 12.6983 11.4762 10
321 1 -9.40915 -6.97663 -2.21655 20
322 1 -4.2488 4.81543 21.7508 9
323 1 -3.47479 10.7886 8.83756 19
324 1 7.82674 11.7976 15.9217 15
325 1 -6.25522 12.8565 -0.640155 15
326 1 6.02672 -4.77165 -14.2519 14
327 1 6.94603 -10.1149 -11.4325 16
328 1 -8.25314 -0.224662 17.7513 16
329 1 -13.4983 9.8336 0.750848 12
330 1 -6.89811 -8.40639 -9.29006 15
331 1 -2.81447 7.44179 12.3347 19
332 1 7.55092 -4.35807 9.85393 21
333 1 -20.4804 -8.92621 1.87148 11
334 1 -0.0145022 -9.72648 12.8242 15
335 1 -13.2682 -13.3436 8.49514 11
336 1 -18.6232 3.07439 0.172796 13
337 1 1.55862 -6.65111 12.4997 18
338 1 4.74309 -12.5763 -6.85358 24
339 1 -5.16699 -1.67116 -6.23341 22
340 1 9.14876 -4.42953 -15.1595 7
341 1 0.592436 13.9524 3.31796 16
342 1 -13.3667 -1.21811 2.38175 18
343 1 2.97719 -10.2305 -7.8097 20
344 1 9.01823 5.43604 -9.54803 16
345 1 -1.79525 -20.0428 -1.67946 12
346 1 -15.5696 -4.19676 -1.42496 21
347 1 -6.09568 -11.9044 0.60356 19
348 1 11.8208 7.02048 17.0244 11
349 1 8.68335 2.72678 0.404521 20
350 1 -9.42954 2.7679 -6.59766 20
351 1 8.00745 14.545 -1.75991 11
352 1 -12.2672 -1.14698 -6.39437 20
353 1 -14.2759 0.016295 10.5581 13
354 1 -9.1982 7.14126 4.31597 17
355 1 -6.54832 -0.105614 9.96708 19
356 1 7.23533 9.79865 18.0737 14
357 1 7.17296 -0.600006 -4.75389 20
358 1 2.5226 0.38034 18.8511 24
359 1 6.97929 1.86995 -2.47475 22
360 1 -5.63391 -19.1135 -3.52879 8
361 1 -0.631236 -10.9034 -3.0953 18
362 1 -0.0287704 5.9264 5.64048 21
363 1 -14.329 2.22284 -4.5403 15
364 1 4.40047 -12.8233 -3.70117 23
365 1 12.0745 -2.06788 9.95068 14
366 1 -17.1335 -1.72526 -6.20416 11
367 1 -10.0909 -10.1217 2.78574 18
368 1 -10.0654 -12.3104 10.7982 14
369 1 -2.88275 8.26515 2.78661 19
370 1 -11.0304 -12.2044 -2.33075 19
371 1 4.79411 12.6984 16.8736 12
372 1 -11.3885 6.16415 1.49716 18
373 1 -1.83539 6.94457 -4.94501 20
374 1 3.08759 10.6798 3.23592 15
375 1 -16.3526 -10.4731 -4.27787 14
376 1 -3.83528 -10.1303 -7.11687 21
377 1 -19.8804 -1.90293 9.90671 10
378 1 -15.7207 1.8125 4.47756 17
379 1 1.93078 -9.6015 7.59119 20
380 1 -3.89816 -14.7736 0.624601 19
381 1 13.7181 9.93899 11.9594 12
382 1 -0.705393 3.89156 -7.55504 17
383 1 -9.93892 0.320233 -8.67706 21
384 1 -5.51072 13.6487 -4.64083 12
385 1 -9.16702 3.90843 -3.94079 21
386 1 -7.63503 -11.4936 8.69194 19
387 1 15.6587 3.41531 8.23555 12
388 1 -2.10356 9.58949 -9.91473 11
389 1 -5.76078 0.559137 13.1201 18
390 1 -19.7456 -0.7616 6.8961 10
391 1 -7.61262 3.49158 14.1495 17
392 1 -7.68534 -15.2628 4.99771 16
393 1 6.54178 -7.28922 -10.5882 18
394 1 -11.9437 0.638168 7.28667 21
395 1 -14.8167 -5.17139 13.5151 10
396 1 -14.6514 5.8007 7.86387 15
397 1 -2.39023 -9.02028 9.08567 23
398 1 -11.1943 -4.13823 -11.548 15
399 1 0.314506 -13.0645 -8.58545 18
400 1 -2.72848 -16.1386 -7.19143 13
401 1 -5.21047 -2.01974 18.1517 10
402 1 -7.25762 2.76348 -8.72801 24
403 1 2.04141 -17.2308 3.22696 21
404 1 0.724793 8.0726 -2.49657 21
405 1 -10.4953 9.71022 9.51841 17
406 1 -8.34463 -1.15551 14.1879 18
407 1 -11.6189 -11.112 -7.03245 18
408 1 -9.14136 -8.38467 9.46721 20
409 1 7.14402 -1.80153 17.0433 9
410 1 -1.67216 -1.7985 -6.22566 19
411 1 7.34299 -8.23899 6.96754 18
412 1 12.1645 3.15033 -5.25711 13
413 1 -5.07119 -2.98158 13.9956 18
414 1 -0.954456 11.062 2.7481 19
415 1 5.50286 -2.94155 13.5517 16
416 1 -8.61184 -13.5704 -5.39284 17
417 1 -2.47289 1.89424 15.2251 17
418 1 -6.14527 12.0329 10.7456 11
419 1 -8.14178 -9.42951 -6.77599 19
420 1 10.0892 11.8323 2.86699 21
421 1 3.98655 5.09502 10.892 23
422 1 -9.70405 2.16751 19.6653 9
423 1 -8.08269 -10.0686 -1.89949 20
424 1 -9.09327 1.23985 12.1457 15
425 1 -5.87486 -7.2238 -6.98851 19
426 1 -5.12709 8.45712 10.118 15
427 1 -4.30029 -8.26058 -4.26367 21
428 1 -8.96733 -12.4082 -8.54665 12
429 1 -6.83444 -18.953 2.45983 12
430 1 -9.25009 -6.02602 7.09933 19
431 1 7.47519 -2.11472 7.94746 22
432 1 -7.45416 -3.24324 16.3203 19
433 1 -8.85979 5.40639 -8.85326 16
434 1 6.90737 1.94245 2.65409 19
435 1 -12.239 -14.4927 2.23221 9
436 1 6.5918 14.0291 4.81706 14
437 1 -4.9756 2.56903 -11.082 23
438 1 -4.48916 2.90703 11.2244 19
439 1 -15.2801 -1.09582 -0.72912 20
440 1 5.10639 14.8676 -0.671303 13
441 1 3.23925 11.137 -8.98046 11
442 1 -1.73821 -4.40937 -9.85708 18
443 1 5.80164 1.91443 17.9739 15
444 1 2.8609 -15.052 -8.27457 15
445 1 0.317667 -1.72888 -8.6057 17
446 1 7.87189 -13.2928 4.52354 14
447 1 -9.94322 6.85286 -2.07629 20
448 1 2.82766 2.57516 16.3721 19
449 1 9.03263 4.05757 3.22619 20
450 1 4.09336 7.70457 3.50555 19
451 1 -5.87957 6.51004 -8.6433 19
452 1 7.79425 1.73717 -9.74072 19
453 1 -0.726291 -11.4815 3.28666 24
454 1 -13.6607 -7.24463 -0.883849 19
455 1 3.13344 15.0037 5.32782 12
456 1 -4.78606 0.900243 -13.9657 17
457 1 12.0577 2.12057 0.650172 18
458 1 4.14338 13.8095 -5.81635 13
459 1 7.90508 -10.4165 9.95675 10
460 1 9.08166 2.67255 -4.87429 22
461 1 -2.45108 -4.57531 -15.412 10
462 1 -1.12285 -14.537 1.02294 24
463 1 -2.56748 -17.3581 10.9073 11
464 1 3.68658 -8.61297 10.3181 18
465 1 -11.5061 -0.779861 -2.55917 18
466 1 -16.0944 -11.4343 4.62683 14
467 1 -2.7783 -17.7054 -4.32599 13
468 1 7.56259 10.5188 11.047 20
469 1 -7.14848 5.8098 -3.36719 22
470 1 -0.043249 2.67301 18.6413 22
471 1 -14.6452 -0.096898 13.8416 12
472 1 -2.1594 -22.45 3.31589 8
473 1 -16.3767 -7.75491 -1.95912 18
474 1 9.7198 -6.7769 0.0280986 16
475 1 6.52356 -3.53768 -3.46861 20
476 1 -11.2989 4.51881 -1.56554 20
477 1 -4.55418 -10.3536 -1.68952 19
478 1 0.196021 0.931681 -5.55077 22
479 1 8.08703 -8.6342 -1.43262 23
480 1 -11.3475 0.0389748 17.5928 13
481 1 9.87008 6.1405 0.0849446 20
482 1 -3.86407 -7.04312 -13.6892 12
483 1 -0.0463782 0.421554 -11.5929 18
484 1 -5.76012 -7.24 11.9584 19
485 1 -8.80077 7.68563 0.65071 18
486 1 -12.5104 -2.14998 -9.26973 15
487 1 -19.1538 -2.51373 2.88446 11
488 1 -1.17874 -12.8225 -12.5052 11
489 1 -8.08007 -14.3147 12.0446 13
490 1 -1.58585 5.73643 -2.52321 21
491 1 10.0685 4.70821 11.3679 19
492 1 12.3203 8.17607 0.870723 17
493 1 -12.5529 -10.8231 0.511147 19
494 1 -3.00849 -11.7664 1.10607 22
495 1 3.199 -9.9812 -14.4385 14
496 1 -9.41089 4.83166 11.7155 16
497 1 0.0198146 -4.76363 -7.07811 20
498 1 14.6046 -1.32156 2.29702 12
499 1 2.88589 9.74579 -4.68063 16
500 1 4.10892 -9.6754 5.00614 18
501 1 10.4119 6.50139 -4.92838 20
502 1 -3.37662 2.50901 18.3334 16
503 1 -10.3459 -0.523996 9.5636 15
504 1 5.86466 9.77341 8.28266 17
505 1 6.63977 4.45356 19.3056 18
506 1 8.83187 1.01936 -12.8609 11
507 1 -3.42164 -13.0835 -7.39798 21
508 1 -3.24652 -3.70634 16.3688 17
509 1 9.55718 5.70532 5.98441 17
510 1 5.7832 3.2288 -4.66001 23
511 1 -2.99225 8.84873 -6.89798 18
512 1 2.68957 9.02805 0.599113 21
513 1 8.61713 2.45886 18.6064 13
514 1 13.053 3.58415 -8.95811 10
515 1 9.55481 -11.9001 -1.67358 12
516 1 9.54865 9.31615 16.2051 15
517 1 -20.0454 -5.79536 3.54489 13
518 1 -6.28283 5.11261 -11.3079 15
519 1 -0.0391504 -4.45556 12.8297 22
520 1 -13.3276 -2.2072 12.6249 15
521 1 -4.9478 12.4902 -7.34966 12
522 1 3.74674 -16.7699 -0.131928 17
523 1 6.66429 -1.78982 -9.56142 20
524 1 -1.00538 14.1016 -1.93768 15
525 1 -10.3333 -10.547 -10.323 8
526 1 3.64677 -14.4937 10.5618 9
527 1 -17.067 -4.596 4.00423 21
528 1 0.184909 11.2194 -10.4923 9
529 1 -1.88185 5.0908 19.8958 15
530 1 -14.389 -4.96357 10.4521 17
531 1 5.30509 4.7162 3.18812 21
532 1 1.87462 -11.5479 -5.64152 24
533 1 2.14502 -5.60785 15.2985 14
534 1 -13.5395 2.24864 1.60578 16
535 1 5.07195 7.60466 19.2031 14
536 1 4.16259 8.23025 -2.1811 19
537 1 6.29701 -10.7518 -2.93513 21
538 1 7.02756 8.95092 13.823 22
539 1 -2.29104 0.406515 -15.987 10
540 1 -6.14118 -12.1253 12.2427 22
541 1 -4.43956 0.575482 -8.35867 22
542 1 5.85067 0.895667 -12.334 16
543 1 5.00236 10.8001 5.94358 22
544 1 4.22059 0.776425 -9.48007 16
545 1 -3.07812 -10.1925 -13.3055 10
546 1 -5.27186 -13.8833 -4.70107 18
547 1 -15.0719 -7.50281 -8.42537 12
548 1 10.7992 0.980217 3.30385 16
549 1 14.5097 6.57913 -1.43221 13
550 1 8.88182 -5.11318 -2.37691 19
551 1 9.79806 6.17427 14.5818 21
552 1 6.22614 -10.0469 -8.30973 25
553 1 1.82501 8.60416 -11.518 13
554 1 9.47189 12.0341 9.17209 20
555 1 -9.75492 0.885065 4.98808 25
556 1 6.60729 6.04664 13.1718 22
557 1 12.334 4.74281 -0.317715 20
558 1 9.55415 -1.24803 5.49506 20
559 1 5.78372 4.53716 -10.2449 17
560 1 5.01564 9.56585 15.4974 21
561 1 11.5123 3.22058 8.96985 16
562 1 5.55552 -6.67728 14.5612 10
563 1 11.8089 13.9048 0.886492 8
564 1 1.22349 0.280605 16.2739 19
565 1 13.1756 -3.15185 -3.59415 13
566 1 8.49685 1.445 10.7453 20
567 1 -6.73935 -2.54655 -3.74662 19
568 1 11.391 9.11014 3.18323 20
569 1 11.5619 -2.08107 2.69637 18
570 1 -10.7426 5.30792 15.0792 12
571 1 10.2099 10.3041 12.1344 21
572 1 10.7071 6.67882 8.36239 19
573 1 2.98012 6.66917 8.58388 17
574 1 -5.74879 6.10738 11.8908 21
575 1 6.02701 -1.35368 10.936 20
576 1 -0.687224 -20.573 6.35861 12
577 1 -8.81889 8.83874 -4.34926 18
578 1 7.50082 11.0082 -2.02694 15
579 1 2.99934 -0.417778 -11.7454 19
580 1 2.02992 15.0506 0.0959296 12
581 1 -2.42134 -14.7004 -3.74454 21
582 1 12.2199 -2.50934 -9.77764 10
583 1 -17.1954 -0.86359 11.1985 10
584 1 -7.78753 11.5424 -6.78379 13
585 1 -4.1678 -21.2856 6.42314 10
586 1 -6.86048 -4.37558 -7.79234 20
587 1 -17.7219 -1.47125 -2.94146 17
588 1 6.8503 -7.55139 2.16761 17
589 1 14.3794 4.26669 5.25603 13
590 1 -1.95463 -7.47893 11.9468 22
591 1 -14.8321 -3.43412 -7.70444 12
592 1 5.022 -2.22921 -12.925 19
593 1 1.76624 -2.47229 17.0187 19
594 1 4.19307 6.77298 -4.90335 18
595 1 10.7489 0.692499 11.9952 17
596 1 2.64793 3.61104 -5.09998 21
597 1 12.9788 11.6013 8.83067 13
598 1 4.14973 -12.156 -9.91264 20
599 1 -11.0683 -9.29219 12.2247 17
600 1 11.2096 -4.24325 4.70512 16
601 1 3.08698 12.5403 14.2822 13
602 1 5.69766 9.73696 -4.38278 17
603 1 -14.2818 5.96348 -2.75576 16
604 1 11.0378 10.917 5.97511 17
605 1 -9.68503 -14.6662 0.00375832 17
606 1 13.2084 -0.943475 -0.855146 17
607 1 10.0864 14.1419 4.96247 13
608 1 -6.01226 1.97809 16.034 18
609 1 -11.7619 -7.20769 4.81293 19
610 1 -9.23466 -6.21894 -6.86739 17
611 1 4.50504 3.72215 13.6989 20
612 1 -5.06491 -15.4186 12.3811 13
613 1 7.22748 4.57109 10.4947 19
614 1 -6.39323 8.30004 2.28086 17
615 1 8.49538 3.4066 8.14287 21
616 1 6.28677 0.791193 7.97004 22
617 1 -0.321872 -2.41184 -12.0887 18
618 1 -8.53663 -2.86681 10.0676 18
619 1 10.7012 3.51272 -11.9378 11
620 1 11.6734 -8.5474 -6.49827 12
621 1 7.4777 7.20065 8.83291 20
622 1 5.36671 2.09476 11.3467 22
623 1 -9.72097 -6.0892 17.2597 13
624 1 15.4639 6.73045 6.87904 14
625 1 -5.39426 -5.4789 18.1249 10
626 1 -1.35011 -0.013208 18.3571 16
627 1 1.3488 -8.1747 -13.165 18
628 1 -10.3196 -3.16323 12.7932 18
629 1 2.41994 1.60645 13.5411 20
630 1 -10.3092 -19.5671 8.13551 6
631 1 11.5958 5.55759 3.05614 16
632 1 5.53012 -15.1902 -6.17592 16
633 1 3.5879 6.28492 0.295767 21
634 1 10.5109 9.01343 9.36209 21
635 1 2.60885 2.78007 -10.8663 15
636 1 5.04806 15.8326 -3.35783 11
637 1 16.4859 9.41041 4.0042 8
638 1 -7.10134 -14.5066 1.08603 19
639 1 0.864098 -0.643008 -14.6839 13
640 1 -6.613 6.26202 5.21943 19
641 1 9.16311 -5.87534 -9.04817 19
642 1 11.7915 8.05811 -2.09776 18
643 1 10.8642 12.7079 -4.77946 7
644 1 -7.93594 3.57275 4.66309 19
645 1 5.47094 3.13052 0.136997 23
646 1 8.43115 -1.69656 13.7756 18
647 1 11.8126 1.8621 16.5853 8
648 1 -1.71266 -11.3225 11.2662 19
649 1 -6.7727 4.681 -6.39571 22
650 1 4.2677 11.7106 10.9107 18
651 1 7.30378 -4.20411 -12.1296 17
652 1 -0.108786 2.62163 14.7534 22
653 1 7.12271 13.3139 -5.33807 13
654 1 5.94031 7.56655 5.78651 21
655 1 11.3933 -9.74296 -0.810182 13
656 1 8.85077 8.205 19.7734 12
657 1 -13.111 -2.39118 8.3194 16
658 1 3.02091 -12.4111 8.21561 17
659 1 -3.34728 -1.93717 -13.6603 13
660 1 -7.05486 10.3445 4.94356 16
661 1 6.33717 13.3145 10.2357 20
662 1 -18.9829 -9.48591 -0.528432 14
663 1 0.208685 -0.935395 21.1967 13
664 1 -9.37339 0.116818 -12.0407 12
665 1 -9.03068 3.69451 -11.5354 11
666 1 6.53548 -16.0061 3.86078 10
667 1 11.8548 11.0552 -2.54409 11
668 1 -9.13186 1.73099 15.4051 18
669 1 2.21906 -2.69083 -12.4251 20
670 1 -3.38999 -12.2027 13.5364 15
671 1 1.24264 10.9932 5.42459 23
672 1 -6.04461 1.15733 19.4425 12
673 1 -10.648 -7.87129 -5.40011 19
674 1 -10.0336 -7.91762 -11.1688 13
675 1 -14.0749 -14.9305 -3.57641 8
676 1 4.45679 11.7478 0.460538 16
677 1 7.33428 -7.96442 -4.35056 21
678 1 -2.06721 9.91164 14.4976 10
679 1 -0.562641 -8.69174 -5.26842 21
680 1 6.05977 -15.6358 0.56445 16
681 1 0.600678 -9.12352 10.1366 24
682 1 12.5375 0.576236 -3.74858 12
683 1 0.578567 -17.3509 0.735991 21
684 1 -18.3129 2.88191 3.33365 12
685 1 -11.3668 -14.2865 -6.06691 10
686 1 -8.12927 -13.7588 -2.36784 23
687 1 -12.7698 2.48955 8.94237 19
688 1 -11.27 -14.9397 -2.91958 14
689 1 13.4416 5.11083 -3.79913 16
690 1 5.22505 13.2947 7.61148 17
691 1 -12.3598 8.53269 6.61605 15
692 1 7.8183 -4.00137 5.09356 23
693 1 -4.52021 -6.34347 -9.57557 16
694 1 -0.676081 9.53533 -0.523867 19
695 1 11.5749 6.24642 -9.88763 11
696 1 5.69304 12.3075 13.5162 17
697 1 5.1892 -0.62641 -2.65321 23
698 1 -16.4793 -5.60848 -6.65149 12
699 1 -12.0615 -5.56837 1.54227 19
700 1 4.43088 2.17661 20.1498 13
701 1 4.91691 4.75988 -2.41331 22
702 1 14.887 6.93926 12.3307 13
703 1 -4.7 -10.8677 16.2526 10
704 1 -4.1473 -16.8976 2.4579 18
705 1 -8.02697 -17.2409 7.9472 15
706 1 -5.77138 -9.24185 9.59791 21
707 1 10.7149 11.9388 14.6976 10
708 1 2.43402 -9.5871 -3.89322 18
709 1 -7.82008 5.4655 2.4471 20
710 1 6.82793 4.56306 6.05954 22
711 1 -10.2731 -4.93051 4.44902 22
712 1 10.4507 8.13158 -7.52601 12
713 1 -5.37903 -19.0701 -0.485963 12
714 1 2.67204 -15.1748 6.11954 17
715 1 -1.07633 -18.9805 9.12843 9
716 1 1.19725 1.38414 -8.95612 18
717 1 8.48001 14.3474 2.22892 11
718 1 3.38559 -2.54755 -15.2677 11
719 1 -2.35659 -2.13243 12.2989 21
720 1 -0.715882 6.38406 -9.37036 21
721 1 -12.591 -9.33274 -9.17358 11
722 1 -13.1415 -2.9739 -0.22659 21
723 1 1.29324 12.7947 -5.80987 11
724 1 -1.36511 -7.58107 -14.9739 13
725 1 -10.6989 -8.4338 0.242856 21
726 1 8.40379 11.1366 -6.31098 11
727 1 9.64666 -5.92081 7.36419 17
728 1 -5.22952 4.74398 8.33336 18
729 1 2.47557 -11.7965 2.73847 21
730 1 11.6199 -8.75652 2.62451 11
731 1 7.68889 -4.47451 13.0165 17
732 1 0.155777 7.28245 8.21434 19
733 1 -13.0229 -2.69082 15.4188 13
734 1 -12.7194 2.63851 15.3763 13
735 1 -4.4948 -17.0756 8.67478 14
736 1 8.64155 1.768 5.37819 20
737 1 1.62925 9.08087 19.5271 9
738 1 -16.5318 1.97469 -1.76302 19
739 1 8.83594 -9.80227 1.10646 19
740 1 -18.4989 0.220843 -1.32219 13
741 1 -8.54676 -18.7041 4.9593 12
742 1 6.19224 0.789176 13.2953 18
743 1 -0.85397 9.36468 11.2245 19
744 1 -2.61917 -14.6508 9.31143 18
745 1 -9.93098 -4.15542 -0.951322 20
746 1 1.94452 4.83671 12.9285 18
747 1 -18.5161 -6.33987 -2.67198 14
748 1 -0.290904 8.11727 17.2505 14
749 1 7.03918 10.0451 3.74786 17
750 1 -18.2942 -11.3054 1.92263 11
751 1 -2.25732 -17.8137 6.55672 18
752 1 5.33321 -4.36993 15.9504 12
753 1 6.24419 -8.83873 12.0636 12
754 1 8.61374 8.43689 6.44189 18
755 1 -3.65281 -4.49997 -7.27864 17
756 1 -0.141035 -5.4604 -12.998 16
757 1 -6.79504 -6.26007 15.1833 22
758 1 -2.01434 11.5189 5.78549 22
759 1 12.7343 -2.0068 6.21025 15
760 1 1.70809 5.34634 -2.42213 21
761 1 -3.88186 7.61394 16.207 16
762 1 1.88203 11.0386 17.4751 14
763 1 7.78042 -1.55399 -14.067 12
764 1 -9.51612 -13.3451 3.50984 21
765 1 12.7917 -6.96718 -0.586326 11
766 1 1.21241 -4.71802 -10.5245 16
767 1 0.977014 5.56151 16.0026 20
768 1 7.07523 -11.7193 -5.75426 19
769 1 5.0782 9.47575 -7.43316 16
770 1 -1.5372 -13.0479 -1.69316 21
771 1 6.89432 0.731039 -6.99446 22
772 1 10.2124 -2.89999 -3.56031 21
773 1 1.03038 -8.17082 14.995 12
774 1 -6.09298 -11.6729 -8.92985 15
775 1 8.22294 7.05632 3.79699 17
776 1 -17.2782 4.8059 5.69176 13
777 1 10.2377 2.73914 -8.2245 18
778 1 16.7264 7.34115 1.17587 6
779 1 4.21483 -7.67986 -8.23364 21
780 1 -8.72361 12.3221 9.97189 11
781 1 11.9194 8.3516 13.6934 15
782 1 11.6764 10.9702 0.49864 15
783 1 3.70659 0.790235 -5.53974 22
784 1 7.93588 -2.9657 -0.155713 22
785 1 -12.9465 1.02823 4.70356 22
786 1 8.55871 11.4526 5.34266 19
787 1 -18.9112 -4.04581 -1.08533 12
788 1 -16.0106 4.80661 -4.45968 13
789 1 2.6666 -0.438163 10.7757 19
790 1 -16.1146 1.29838 -7.3996 10
791 1 -16.2515 -2.67208 8.57905 20
792 1 -5.84553 2.96465 -3.11585 24
793 1 9.72559 -10.308 -4.0116 18
794 1 -14.2669 -5.30946 -4.19773 20
795 1 10.7008 -8.95965 6.03338 12
796 1 -14.6994 6.38332 0.784255 17
797 1 -11.9393 -9.58497 -2.5026 22
798 1 17.5935 9.08508 7.39818 6
799 1 -2.45103 -14.3402 3.43762 23
800 1 7.18003 3.79337 15.8966 20
801 1 4.11325 -0.382106 15.6564 20
802 1 9.30136 -7.0003 4.19145 18
803 1 -14.601 8.10615 3.13435 13
804 1 2.11161 8.19358 10.9836 21
805 1 8.26172 7.76816 -2.18144 17
806 1 0.134499 -11.6149 -14.5259 10
807 1 -8.78957 10.0928 12.5498 11
808 1 -12.8984 -8.45046 9.29371 18
809 1 9.09116 4.31534 -1.96696 19
810 1 -2.12844 5.00944 16.557 19
811 1 10.5459 1.9108 -2.08831 23
812 1 4.55883 -6.03501 11.5122 19
813 1 -8.322 8.80848 -7.69844 13
814 1 1.18582 6.30174 -6.23319 19
815 1 -7.20654 -4.36178 12.6038 20
816 1 17.2789 5.94358 9.77599 10
817 1 -1.70636 -7.55681 -7.84157 18
818 1 13.772 9.55179 5.96747 16
819 1 -17.5069 0.314513 1.71939 15
820 1 -5.96149 -12.4125 6.53725 22
821 1 1.62582 8.85837 -8.60495 15
822 1 4.6821 -1.7345 18.0711 13
823 1 -3.72052 -19.4054 4.07088 15
824 1 -9.46233 11.9028 4.16557 11
825 1 -16.9116 5.70676 -0.97771 18
826 1 11.284 -3.40329 -0.561287 22
827 1 3.3813 -15.5295 -11.162 10
828 1 -13.8649 3.752 6.12124 21
829 1 13.0028 8.53746 -4.89629 10
830 1 -10.4867 -2.74777 6.95428 20
831 1 -4.20521 -9.03084 -9.98473 16
832 1 -2.78259 -11.7806 -9.89961 16
833 1 -2.66143 -16.923 -0.964667 21
834 1 0.206355 12.5297 10.2529 15
835 1 8.66409 -13.8144 1.08662 10
836 1 -3.22278 5.59869 -11.1657 17
837 1 12.5722 5.67744 -6.83615 13
838 1 4.9672 2.3759 5.6305 22
839 1 0.121089 -20.3806 2.89519 16
840 1 6.06068 -4.58749 -7.83924 21
841 1 10.2803 -0.418877 0.517389 20
842 1 -8.98369 -5.20857 -10.1908 16
843 1 -4.26578 -11.8608 9.40402 22
844 1 6.1947 8.81764 0.2006 20
845 1 9.34219 -0.667172 -8.93646 16
846 1 -9.79236 1.69694 -1.1929 18
847 1 -13.3307 7.97617 9.93733 12
848 1 1.67758 1.72359 22.1031 11
849 1 -13.3921 -10.1232 6.09695 21
850 1 5.08931 4.07339 8.63189 22
851 1 0.594238 -16.4245 11.8339 8
852 1 0.127618 6.51726 0.163146 20
853 1 -5.17742 5.31393 14.493 20
854 1 -9.76008 2.64677 8.35582 19
855 1 -10.7278 11.7428 6.9614 12
856 1 6.74861 -0.0724114 -0.0526556 23
857 1 -6.39254 -9.06716 14.3652 18
858 1 1.08513 -12.3965 6.03216 23
859 1 8.94963 7.45811 11.6864 23
860 1 6.84204 -5.58899 -0.571397 22
861 1 8.31069 -11.7198 -9.00565 15
862 1 -9.47877 -3.17998 -8.60402 19
863 1 0.616635 -5.63614 -15.7043 12
864 1 8.47575 13.4748 12.5539 18
865 1 -13.9818 -8.08204 11.8807 12
866 1 -7.66032 4.07514 -0.790761 20
867 1 -13.342 1.19874 -1.92373 17
868 1 8.05232 12.0101 0.741751 16
869 1 -8.82908 -16.621 2.04204 14
870 1 -1.80565 5.0503 7.79331 18
871 1 12.5813 7.38403 5.50811 18
872 1 -15.3432 -10.3549 -7.19452 12