ITEM: TIMESTEP
10000
ITEM: NUMBER OF ATOMS
500
ITEM: BOX BOUNDS pp pp pp
-30.0 30.0
-30.0 30.0
-30.0 30.0
ITEM: ATOMS id type x y z Coordination
1 1 7.35104 -5.92231 2.14494 20
2 1 0.168646 2.80066 5.41042 19
3 1 12.4146 -3.58489 2.01101 9
4 1 -9.63447 -3.11897 -1.35961 12
5 1 -2.07091 0.309781 -11.3246 15
6 1 3.9703 -2.43509 4.36038 23
7 1 -6.61465 -0.799686 -3.46923 21
8 1 1.24773 0.197031 -11.1362 16
9 1 6.70042 -8.84775 -5.54097 13
10 1 6.07106 -0.761363 3.14211 20
11 1 0.25983 4.94426 -7.9332 20
12 1 3.13344 2.46891 6.23485 14
13 1 -6.63982 -2.4271 -0.70952 19
14 1 -8.08609 -3.7721 -4.1816 17
15 1 6.24755 -7.15659 -13.2117 7
16 1 5.78345 -3.60555 7.02095 11
17 1 -6.00136 -8.4052 0.0185951 18
18 1 -3.53825 -8.3634 -10.5096 11
19 1 5.27363 -3.75435 -8.63236 23
20 1 6.36763 -8.04882 0.12466 18
21 1 -6.94889 4.6068 0.967024 13
22 1 1.81287 5.9679 -1.33531 14
23 1 0.497179 -6.41901 -8.52946 21
24 1 -3.51438 2.11447 6.26016 12
25 1 8.25791 -5.27375 -1.01265 19
26 1 -3.78468 4.72783 1.86897 15
27 1 4.10802 3.18812 -5.65544 21
28 1 7.91855 4.73961 -4.02748 15
29 1 -1.79869 7.15618 -7.01528 10
30 1 -4.90325 2.07864 -8.16876 12
31 1 -2.58102 4.88714 -4.4121 18
32 1 2.27321 5.91085 -5.31577 17
33 1 -8.83389 -0.0743195 -1.81122 15
34 1 0.900502 5.39517 6.25442 10
35 1 -2.81528 -0.722955 -8.24796 22
36 1 -4.39701 -8.59244 3.21917 15
37 1 8.11789 -5.97439 -6.82742 13
38 1 -9.06998 -1.06078 3.83413 12
39 1 -6.11451 -2.6159 -6.18435 22
40 1 0.10502 -11.371 3.14681 13
41 1 6.40452 3.18762 -7.70757 12
42 1 -5.30589 -5.33818 -11.5821 11
43 1 3.10668 2.31392 -12.4661 9
44 1 -1.74487 -10.6471 -0.216612 19
45 1 -2.48128 7.87437 -3.5482 9
46 1 -10.4089 -0.128427 0.705886 9
47 1 4.50939 4.88392 6.52851 9
48 1 7.7146 -3.43231 4.44292 19
49 1 4.98239 -11.6292 -5.46808 11
50 1 7.89414 -1.24725 -8.76185 14
51 1 -4.52878 -9.5112 -3.428 21
52 1 -1.57133 -8.77285 2.02528 20
53 1 6.01691 -6.14363 4.83352 15
54 1 3.36135 -8.01419 4.94727 13
55 1 6.56679 7.15817 -2.51259 10
56 1 -5.13655 -11.2981 -0.83202 16
57 1 -3.77706 -13.7156 -1.16892 10
58 1 -2.68616 -8.38869 -6.11789 22
59 1 -1.7459 -5.00896 5.29696 14
60 1 -7.82686 -3.66896 1.68842 18
61 1 3.34766 -12.1008 -2.55718 12
62 1 -8.07238 -5.41832 -1.20544 15
63 1 -5.04514 5.91534 -1.63555 13
64 1 -4.96906 2.15999 1.45792 20
65 1 -2.3902 4.14252 4.648 13
66 1 -8.74915 -8.30926 -8.47854 7
67 1 -5.99376 -0.864777 -9.00537 15
68 1 -2.56467 -6.14694 -8.66397 20
69 1 8.6222 -2.7179 1.52132 23
70 1 0.45069 -6.37248 6.86339 10
71 1 -2.47528 -2.84831 -11.1415 14
72 1 -8.70028 -5.21551 -9.95692 9
73 1 -2.55964 -12.7023 -4.2168 14
74 1 -6.84181 0.740429 5.48251 12
75 1 -4.4918 2.3348 -2.86817 19
76 1 1.97419 -11.254 -6.90013 15
77 1 3.50288 7.02349 4.11515 9
78 1 -5.96008 -6.37765 -9.11554 19
79 1 -9.5257 2.1499 -3.83403 12
80 1 -3.07074 -11.8625 -9.78659 8
81 1 5.91212 -11.6738 2.67534 10
82 1 -8.03175 0.335001 -5.87164 14
83 1 -4.78815 -5.24444 4.70971 17
84 1 -8.03956 1.84123 2.3059 17
85 1 2.46092 -8.75118 -9.32883 15
86 1 0.28327 -2.82141 5.07312 18
87 1 0.230116 -8.28022 4.53007 16
88 1 3.83754 -8.50318 -5.75884 21
89 1 8.79859 -0.291225 -1.32355 20
90 1 3.12453 -2.34557 -11.0684 16
91 1 7.61199 -9.05649 2.95534 9
92 1 -4.45281 -11.3534 -6.32614 13
93 1 -8.48847 -4.42061 4.45246 9
94 1 9.95382 -1.22397 3.76552 12
95 1 11.1905 3.24626 -4.05511 9
96 1 2.02179 2.38308 -8.32655 22
97 1 1.65455 4.80837 -10.6661 13
98 1 4.54396 6.69979 0.484766 13
99 1 5.73318 0.577786 -10.8895 9
100 1 1.19329 -11.1523 -0.381413 17
101 1 7.71781 -4.05049 -4.23024 16
102 1 -0.796629 -13.8722 -1.35952 9
103 1 -7.41377 -2.9566 -9.88666 14
104 1 10.3623 -3.20503 -6.16012 13
105 1 -2.88427 3.86435 -7.15528 13
106 1 4.81399 -10.5333 -7.91821 10
107 1 -6.66769 -6.41394 1.96734 18
108 1 0.270495 -11.8767 -3.97998 16
109 1 3.33767 -5.626 -10.9523 20
110 1 3.91737 5.25548 -2.90257 17
111 1 3.3809 -12.6371 1.14905 11
112 1 -5.34674 -9.60189 -8.36916 12
113 1 1.97725 -3.61195 7.61317 10
114 1 1.51361 -0.0405874 7.75458 11
115 1 5.05495 -8.70313 -10.6355 10
116 1 -9.19839 -2.63718 -7.38483 11
117 1 5.60831 5.71775 -5.66228 16
118 1 6.65339 -2.69009 -6.30714 22
119 1 -0.285602 3.11055 -12.3682 11
120 1 -5.87396 0.577822 -0.639471 18
121 1 3.37663 -5.03571 5.43283 16
122 1 -4.97783 -1.62181 -11.9364 10
123 1 10.3692 -5.97566 0.405835 14
124 1 7.79478 -0.864887 6.43016 9
125 1 2.64373 -11.3462 4.16605 11
126 1 10.7833 2.41477 -1.2687 14
127 1 9.90581 0.833592 1.18476 12
128 1 -0.860968 -9.3763 -9.09778 13
129 1 6.26123 2.18 5.01116 14
130 1 -1.3215 2.24772 -8.95187 21
131 1 -0.980593 0.169894 5.41973 15
132 1 -6.1989 -11.9948 -3.56291 12
133 1 4.75805 2.20861 2.47201 20
134 1 -5.76759 3.51706 3.9688 16
135 1 -2.90865 3.29257 -0.399936 19
136 1 8.78589 4.03255 -6.6301 9
137 1 4.85003 -0.472266 6.51725 16
138 1 0.653176 -3.30081 -12.4658 10
139 1 1.93991 0.19977 4.66464 18
140 1 8.93267 -4.09326 -8.94146 11
141 1 7.45499 5.99742 0.333458 11
142 1 5.94742 -10.9595 0.160707 12
143 1 2.58048 5.06253 2.35973 16
144 1 3.71574 -6.45155 -8.03011 22
145 1 5.18981 -11.0563 5.72517 6
146 1 -4.16862 -0.156973 4.38325 20
147 1 10.6123 -3.15264 -0.904235 17
148 1 1.43495 7.67292 -8.61466 8
149 1 8.75403 6.69807e-04 -6.14049 18
150 1 -3.28065 -2.61736 5.42223 13
151 1 -2.61579 -8.05116 5.27764 11
152 1 -7.43935 4.04742 -2.08168 12
153 1 9.63415 5.4811 -1.68275 11
154 1 -8.24735 -11.1878 -0.815336 9
155 1 10.573 -0.729422 -3.73247 14
156 1 -7.86707 -9.10791 -2.92922 12
157 1 11.8151 -0.83318 -0.423514 12
158 1 7.00456 -6.88182 -3.07766 16
159 1 5.65818 5.17906 3.04931 14
160 1 -7.98618 -5.57634 -6.62913 18
161 1 -0.0650429 5.09012 -3.35849 18
162 1 4.8693 3.94059 -10.6902 9
163 1 -4.44328 -3.58442 -8.76656 23
164 1 4.78985 -4.11639 -13.4698 5
165 1 -1.04353 -11.6293 -7.04729 13
166 1 1.90446 -9.34607 1.86743 20
167 1 10.3393 -5.38442 -3.27898 10
168 1 -10.1484 -1.26483 -4.42957 13
169 1 -2.15364 4.25638 -10.8403 10
170 1 -5.98356 -8.05371 -6.0208 19
171 1 10.2608 -4.60963 3.35587 12
172 1 -0.4558 -5.50965 -11.2391 12
173 1 -9.825 2.93153 -0.169797 12
174 1 -6.08297 -2.54965 4.88439 18
175 1 7.50841 2.87551 -1.09553 19
176 1 8.6634 1.40107 -9.26066 10
177 1 -3.35478 -11.8886 2.21313 13
178 1 3.50141 -0.738847 -8.60898 20
179 1 8.79451 1.72835 -3.32912 19
180 1 7.88052 3.42682 2.32211 11
181 1 3.89404 5.16118 -8.22811 18
182 1 11.0756 -1.15793 -7.66107 9
183 1 6.68213 -6.33509 -10.083 13
184 1 -0.26511 5.29524 3.49853 13
185 1 -1.75531 6.26856 -1.12236 13
186 1 -6.50289 -10.3895 2.40543 10
187 1 5.00275 -9.57826 -2.83914 18
188 1 -6.09969 -6.31029 -3.91209 18
189 1 -6.40859 3.04653 -5.29345 11
190 2 -8.30369 -3.7155 -0.0660108 15
191 2 8.95507 1.53413 -1.23443 21
192 2 -2.76317 -2.59954 -9.13753 22
193 2 -9.09245 -3.47329 -9.10414 10
194 2 -4.76976 -10.8173 3.20036 9
195 2 3.82156 -3.97292 6.81716 13
196 2 8.51111 -3.33715 -0.32037 19
197 2 -4.47182 -2.20417 3.80965 18
198 2 6.66845 -6.99058 -5.85125 15
199 2 -3.2635 -1.1227 -11.1713 13
200 2 1.16181 -5.0636 -11.9553 12
201 2 -2.31478 5.23866 2.96239 13
202 2 11.5249 -5.33776 2.0238 10
203 2 8.17463 6.1223 -2.63366 12
204 2 -0.554706 4.52382 5.45232 14
205 2 8.69557 4.43313 -0.393433 15
206 2 5.26186 4.18788 -8.92606 13
207 2 5.73092 -5.51137 -13.6167 6
208 2 -6.48557 -1.31907 -10.7765 10
209 2 1.14362 -9.72595 3.66973 14
210 2 -8.70183 -2.94205 3.50522 11
211 2 5.63119 -9.95895 -6.37027 14
212 2 -2.41275 -14.2207 -2.71721 9
213 2 4.89999 3.04136 5.78159 12
214 2 6.7492 -4.77599 5.94499 12
215 2 -6.7163 -10.9184 0.496161 12
216 2 -0.489361 -12.1302 -0.471531 16
217 2 -7.56694 -8.98849 -0.914346 14
218 2 -5.03035 -12.9755 -2.20932 12
219 2 -7.58669 -11.1038 -2.65213 11
220 2 -3.94386 7.05827 -2.79602 8
221 2 3.80089 -2.71926 -9.25439 18
222 2 11.1563 4.20438 -2.44436 11
223 2 5.24345 2.25519 -11.526 7
224 2 -6.27798 -0.506683 -5.65645 17
225 2 10.6786 -1.39155 -1.93877 17
226 2 0.00556642 5.14336 -1.18737 15
227 2 -5.58699 3.845 1.92193 16
228 2 2.05632 6.0892 -3.43161 13
229 2 2.39178 5.97586 -9.18796 14
230 2 -1.64256 1.97193 4.85653 19
231 2 0.554651 -4.42708 6.44674 11
232 2 3.46204 -7.59639 -10.683 14
233 2 0.557778 -11.918 -5.90206 13
234 2 0.812063 -8.28975 -8.70968 17
235 2 -6.40038 -8.67205 -4.01026 14
236 2 8.45701 -5.43042 -3.11595 16
237 2 8.83924 2.01286 1.75654 13
238 2 1.53827 -1.59478 -12.2149 11
239 2 3.73822 -4.02961 -11.931 14
240 2 -0.939867 -5.23612 -9.18478 19
241 2 4.1767 -9.33983 -9.1194 13
242 2 7.35114 -3.22516 -9.13924 14
243 2 -3.42547 -8.09104 1.44365 25
244 2 2.1464 -5.42843 -8.81051 21
245 2 -1.41494 -11.1065 -9.02975 10
246 2 -1.30415 0.247403 -9.32595 19
247 2 -3.01099 2.89283 1.64702 18
248 2 -4.61053 -9.31961 -1.31192 22
249 2 -4.02238 3.41178 4.97521 16
250 2 -6.04181 -8.48867 2.15936 15
251 2 -9.11162 -2.5289 -3.04603 15
252 2 3.63986 -9.83218 5.27089 12
253 2 8.5563 0.0395035 -4.25026 18
254 2 -1.09298 -3.84761 -12.0038 10
255 2 3.17519 3.19797 1.83596 19
256 2 7.15015 5.24088 1.91039 12
257 2 3.111 0.266545 6.3583 16
258 2 -6.71195 1.18557 1.08467 19
259 2 -4.4718 -5.52607 -8.40722 19
260 2 10.9457 1.3448 -3.46956 14
261 2 -7.90696 -5.43318 -3.19108 16
262 2 -5.05702 3.16775 -6.71184 13
263 2 4.1327 -0.532173 -10.6333 12
264 2 -4.36124 1.94383 -1.0339 21
265 2 6.50339 -8.73528 -3.61451 15
266 2 1.65873 -11.2167 -3.07046 16
267 2 -6.80045 5.05659 -0.717627 11
268 2 1.81403 -11.9752 2.42753 12
269 2 2.93124 -12.1579 -0.696344 14
270 2 6.35055 0.192884 5.18208 15
271 2 -2.34898 8.18232 -5.42652 7
272 2 -4.07707 -7.07329 4.43736 14
273 2 -1.29962 -9.10745 -0.958627 22
274 2 -1.25451 -6.67137 5.73868 12
275 2 3.09623 3.79291 -11.3432 12
276 2 10.0253 -2.66751 -8.16382 12
277 2 5.68732 -3.15427 3.90915 24
278 2 7.18115 3.12234 -3.12433 20
279 2 4.1521 6.03549 2.08889 14
280 2 -6.65896 -6.48264 -0.116282 19
281 2 2.49768 4.13389 6.45649 12
282 2 8.24176 -4.42571 2.88919 20
283 2 1.12317 1.8751 -12.0641 13
284 2 1.81345 2.08236 4.39784 25
285 2 6.85484 -9.79739 1.20818 12
286 2 -8.42558 -6.47836 -8.43055 11
287 2 -7.90242 2.08017 -5.26965 13
288 2 -6.9685 -5.03978 -10.5752 12
289 2 -1.32326 -8.89415 4.04208 14
290 2 5.86086 6.89454 -0.860068 10
291 2 -6.85888 -8.5973 -7.98948 11
292 2 11.006 -4.02039 -4.51909 10
293 2 -9.63 3.36521 -2.09699 10
294 2 10.2573 -5.05329 -1.29797 12
295 2 -8.31057 -5.49464 2.95196 10
296 2 -4.44671 -9.14575 -6.65218 16
297 2 0.966783 4.78679 -6.2234 19
298 2 -8.61278 3.54118 1.24376 13
299 2 1.60289 -7.29118 5.36598 13
300 2 -11.0207 1.52121 -0.214074 9
301 2 -6.15978 3.42845 -3.33271 13
302 2 0.491698 1.12511 6.46814 13
303 2 -6.23865 -2.55854 -8.12163 20
304 2 5.55575 6.1249 -3.72552 15
305 2 -5.17119 0.902694 5.92215 13
306 2 3.60641 -0.653563 3.85888 20
307 2 -4.88305 -7.25676 -10.6985 11
308 2 0.606796 3.64275 -9.14447 20
309 2 -1.1518 -9.39774 -6.50859 21
310 2 6.56342 -2.21779 1.77135 21
311 2 9.77635 3.68153 -5.15944 13
312 2 4.58239 -11.9863 4.13581 8
313 2 6.97271 -0.912388 -6.89076 20
314 2 6.13111 3.25466 3.13751 12
315 2 -4.67922 0.398191 2.53349 24
316 2 -6.23395 -6.13371 -5.79401 19
317 2 -1.50892 -11.2813 -3.54924 18
318 2 -1.59626 6.05073 -3.21298 15
319 2 -9.25952 0.0815925 2.34596 13
320 2 -6.27385 -2.13561 1.68777 21
321 2 -2.82496 -12.1986 -6.08532 13
322 2 6.35301 -1.9196 6.82581 12
323 2 -0.179464 4.75113 -11.3387 11
324 2 5.20582 1.95057 -6.65096 18
325 2 3.71675 -11.7373 -6.80147 9
326 2 11.0999 -2.81949 3.11388 10
327 2 8.78956 -1.80714 4.932 14
328 2 -0.270767 6.86781 -7.77465 9
329 2 -4.5701 0.333306 -8.22384 18
330 2 -2.04514 -7.79324 -9.41855 17
331 2 1.68057 5.89617 4.37233 13
332 2 -2.70571 5.70526 -6.21012 16
333 2 -9.43983 -1.01435 -6.1471 14
334 2 -7.33724 2.27557 4.12651 15
335 2 1.9557 0.410924 -9.04504 17
336 2 4.90312 -5.59791 -9.2794 18
337 2 -9.23747 0.308415 -3.67846 12
338 2 -1.79213 2.16373 -11.4798 11
339 2 7.30651 -7.43844 3.86558 12
340 2 -6.5142 -4.40439 5.08639 14
341 2 -7.03138 -0.840966 4.40041 18
342 2 6.98356 -10.5424 3.84368 9
343 2 -9.85133 -1.40205 -0.680383 12
344 2 -3.46588 -4.36233 5.97165 11
345 2 -1.55681 -10.7715 2.0187 19
346 2 11.9856 -2.57214 0.43718 13
347 2 2.26745 -9.37898 -6.46094 19
348 2 -3.61055 5.34021 -0.506964 16
349 2 -4.6092 -3.49354 -11.0215 15
350 2 -4.8918 -5.23151 2.32761 19
351 2 4.28604 -6.37093 4.39259 17
352 2 7.46261 0.223328 -10.1885 9
353 2 9.38652 -0.883372 1.85933 19
354 2 8.60243 -6.80548 0.667732 14
355 2 6.43841 -7.46574 -11.3772 9
356 2 5.10709 -9.20883 -0.731145 17
357 2 6.79155 -6.60837 -0.973061 19
358 2 -2.67624 -0.804068 5.69951 14
359 2 8.09827 2.76532 -8.10824 10
360 2 -8.78916 -3.87128 -5.99856 13
361 2 -6.99377 -0.643024 -1.69726 16
362 2 5.22451 -12.6013 1.25162 9
363 2 3.80913 5.10181 -6.30242 17
364 2 10.6346 -0.999539 -5.67697 12
365 2 6.96756 4.56064 -6.11952 13
366 2 3.49777 -8.02281 1.85522 17
367 2 8.35019 -6.02854 -8.68852 10
368 2 4.70665 -11.2879 -3.63217 13
369 2 -4.12801 -10.1151 -9.88787 10
370 2 3.52535 5.2494 -0.83775 17
371 2 4.75771 5.79299 4.7403 12
372 2 -3.24143 -12.1026 0.244136 14
373 2 1.86033 -1.89977 7.99681 9
374 2 11.4166 1.16204 0.0964945 11
375 2 9.467 0.205778 -7.9877 11
376 2 -2.97524 3.25935 -9.02668 14
377 2 -4.82709 -11.1674 -4.4702 17
378 2 8.41309 -4.246 -6.2707 20
379 1 -4.56337 -5.39042 -6.3089 22
380 1 -1.08622 -3.36218 -8.38258 22
381 1 0.534069 -8.39208 -6.485 19
382 1 -1.22668 -5.24197 -5.80061 21
383 2 -3.08215 -8.27529 -3.95506 20
384 2 -4.92667 -5.31342 -2.90702 18
385 2 -4.04336 -3.50365 -6.12634 23
386 2 -3.03396 -6.51122 -6.25844 18
387 2 0.23005 -8.49529 -3.70556 21
388 2 -1.57711 -5.33506 -3.92343 24
389 2 -1.32547 -3.43678 -6.42278 23
390 2 0.267504 -6.20291 -6.37472 23
391 1 -4.92903 -3.41833 -3.33579 24
392 1 -3.08637 -6.45478 -3.27723 21
393 1 -3.24072 -8.27004 -0.598353 21
394 1 -4.87454 -5.23977 -0.862387 21
395 1 -4.76284 -3.22974 2.14775 22
396 1 -3.36345 -6.13859 1.80992 19
397 1 -1.7351 -9.35618 -3.27329 18
398 1 -1.32114 -3.49667 -3.20459 23
399 1 -0.144972 -6.63065 -3.2403 21
400 1 0.099207 -8.10994 -0.0295388 23
401 1 -1.64746 -5.23116 -0.603263 22
402 1 -1.23956 -3.12385 2.19769 21
403 1 0.0168053 -5.9585 2.15405 20
404 2 -4.99229 -3.1825 -1.15697 21
405 2 -3.17705 -6.13709 -1.00938 23
406 2 0.276791 -7.98778 1.90063 20
407 2 -1.75522 -4.82705 1.48271 21
408 2 -1.26911 -3.19087 -1.2725 22
409 2 0.0382283 -6.2462 -0.903258 23
410 2 -1.2089 -3.62598 4.10009 19
411 1 -2.65808 -2.39934 -5.39999 22
412 1 -4.51603 0.275809 -5.62824 22
413 1 0.335822 -0.668699 -8.44839 20
414 1 0.353183 -2.3835 -5.76828 25
415 1 -1.25618 0.650449 -5.72473 22
416 1 0.111343 3.02587 -5.85017 21
417 2 -6.44306 -2.74706 -4.3081 25
418 2 -3.26089 -2.25457 -3.45345 20
419 2 -5.11858 0.46173 -3.48734 19
420 2 -2.92439 -0.536251 -6.12086 19
421 2 -2.31483 3.2071 -3.80747 20
422 2 0.626388 -2.52438 -8.54747 20
423 2 0.178799 -2.47948 -3.74538 22
424 2 -1.29406 0.197643 -3.6551 23
425 2 -1.46973 2.2464 -6.70752 25
426 2 0.536937 -0.615762 -6.24407 24
427 2 0.396505 3.1943 -3.64518 22
428 1 -2.97878 -0.449365 -2.68967 24
429 1 -3.06287 -2.57871 -0.552157 20
430 1 -6.43887 -0.461567 2.49447 20
431 1 -3.31793 -0.47188 1.39281 19
432 1 -1.0497 2.04212 -2.98562 22
433 1 0.401775 -0.511465 -2.84743 25
434 1 0.39054 -2.40288 -0.307691 26
435 1 -1.32524 0.388449 -0.387733 22
436 1 -1.82923 1.87184 2.82182 25
437 1 0.0890597 -0.464852 2.37327 22
438 1 0.706225 3.40919 -0.429383 19
439 2 -2.89694 -2.35963 1.32126 21
440 2 -2.92711 -0.574397 -0.732736 21
441 2 0.372488 -2.09842 1.5382 23
442 2 -1.57102 0.351065 1.71487 22
443 2 -1.15122 2.60436 -0.919882 23
444 2 0.537519 -0.603077 -1.01295 22
445 2 0.286257 -0.909234 4.4497 21
446 2 0.526956 3.98371 2.2587 17
447 1 2.16993 -3.57239 -8.38731 22
448 1 1.91345 -5.14083 -5.57462 22
449 1 5.28657 -5.52961 -5.64668 22
450 2 3.44538 -8.44105 -3.57302 20
451 2 1.49815 -5.29455 -3.68923 19
452 2 2.15036 -3.34458 -6.32952 25
453 2 3.50503 -6.60049 -6.03149 19
454 2 5.53459 -5.33959 -3.742 21
455 2 5.55563 -4.03874 -6.59672 22
456 1 1.73191 -9.30085 -3.24688 21
457 1 1.95051 -3.54239 -3.02258 23
458 1 2.84862 -6.66655 -2.86813 19
459 1 3.52552 -8.25741 -0.132294 21
460 1 1.60998 -5.2209 -0.306989 24
461 1 2.08199 -3.29797 2.41776 22
462 1 3.96738 -6.28393 2.39612 22
463 1 5.24296 -3.34107 -3.06224 21
464 1 5.00635 -5.69257 -0.732732 20
465 1 5.51989 -3.79268 1.83074 21
466 2 1.81721 -9.24273 -0.111101 21
467 2 1.63423 -5.00358 1.73824 20
468 2 1.88394 -3.59827 -1.10486 24
469 2 3.08735 -6.35762 -1.04465 23
470 2 2.33293 -3.36394 4.20884 19
471 2 5.1792 -5.63043 1.18097 22
472 2 4.99405 -3.64351 -1.16904 22
473 1 3.77453 -2.56714 -5.86481 22
474 1 2.32508 0.38536 -5.83664 21
475 1 5.64532 0.117222 -5.96224 19
476 2 3.47898 -2.40174 -4.06435 25
477 2 2.26534 0.494617 -3.86743 25
478 2 2.15449 2.36908 -6.55226 21
479 2 3.74819 -0.900372 -6.39686 21
480 2 4.0621 3.30158 -3.59709 20
481 2 6.68161 -2.46851 -4.01447 20
482 2 5.31943 0.407175 -3.45277 21
483 1 2.29226 2.46584 -3.09307 23
484 1 3.64594 -0.597309 -3.0642 24
485 1 3.37764 -2.49376 -0.609001 24
486 1 1.94866 0.510989 -0.678694 21
487 1 1.44572 2.30839 2.32789 18
488 1 3.40654 -0.416608 1.92679 21
489 1 3.7331 3.20903 -0.232689 21
490 1 5.48721 2.30253 -2.92452 21
491 1 7.02996 -0.74484 -3.35535 21
492 1 6.74286 -2.5035 -0.455045 19
493 1 5.25792 0.206671 -0.375939 20
494 2 3.72413 -2.5875 1.47466 23
495 2 1.57966 0.342896 1.49022 25
496 2 2.04899 2.533 -1.25456 23
497 2 3.26922 -0.560788 -1.21358 23
498 2 5.32681 0.504077 1.50358 19
499 2 5.56546 2.197 -0.821074 18
500 2 6.75323 -0.785212 -1.10374 22
