ITEM: TIMESTEP
21000
ITEM: NUMBER OF ATOMS
2000
ITEM: BOX BOUNDS pp pp pp
-30.0 30.0
-30.0 30.0
-30.0 30.0
ITEM: ATOMS id type x y z Coordination
1 1 -11.1348 5.75711 -12.4857 15
2 1 -8.47976 -5.80159 -8.99261 18
3 1 1.54136 22.429 9.50225 6
4 1 5.10722 -9.43791 4.00963 12
5 1 -11.911 10.8651 -0.184568 18
6 1 8.82966 -5.14495 -10.2514 19
7 1 -17.8674 8.29127 -3.97196 10
8 1 -3.47837 -3.78009 10.7707 21
9 1 -14.1603 3.69239 -12.3016 11
10 1 -11.3952 -7.30422 5.40915 17
11 1 9.1247 5.92133 -10.2734 19
12 1 -1.63643 -7.66245 2.7545 18
13 1 -10.6836 -7.29221 -0.243353 18
14 1 3.66241 9.24794 18.5655 11
15 1 -0.620774 16.1959 -7.47919 17
16 1 5.00749 -0.450975 11.2055 20
17 1 -13.0179 5.61077 -10.2142 17
18 1 -10.0132 2.26838 11.0194 22
19 1 8.4555 10.9577 10.0512 16
20 1 -1.68374 11.8914 -10.0595 18
21 1 -1.1446 6.3794 -16.8312 9
22 1 15.3082 7.41096 12.7146 9
23 1 -12.6412 9.74211 -6.69319 15
24 1 -8.91839 13.8554 13.0236 15
25 1 7.723 -10.1293 1.29308 10
26 1 -1.25313 -11.778 -11.9478 10
27 1 7.37069 -6.86282 5.59908 12
28 1 -8.03053 -9.01925 -9.94049 13
29 1 -14.5519 -3.4309 13.5561 5
30 1 0.957091 -3.13872 -11.8508 18
31 1 4.55196 -7.63067 -13.4982 13
32 1 -5.70692 10.5528 -16.2414 6
33 1 -0.521747 4.71861 17.9167 10
34 1 -0.514106 -11.3517 6.3625 14
35 1 3.38548 0.611043 13.5808 18
36 1 -15.3095 2.47928 2.67567 16
37 1 -17.2097 5.59252 7.88915 16
38 1 -5.29578 16.7291 -4.87812 20
39 1 -1.70686 -12.8884 -8.6114 10
40 1 8.57225 -4.2309 -13.496 12
41 1 -4.76028 -2.15605 13.6494 15
42 1 -14.3734 7.53385 0.517619 18
43 1 -0.604916 14.4996 -16.9692 6
44 1 -2.22115 17.2036 5.53661 15
45 1 -12.5812 13.3665 -6.35608 15
46 1 -1.56314 17.0606 -0.486311 18
47 1 -0.0992528 -8.82898 4.60448 20
48 1 8.39675 0.583897 -8.15835 16
49 1 2.24582 -7.35781 -15.0933 13
50 1 -10.6296 6.11242 13.2722 16
51 1 -11.5052 -2.59887 -7.58618 20
52 1 -9.03682 11.2781 -4.99155 19
53 1 -10.1956 -5.0883 7.32199 20
54 1 -1.96697 19.0519 13.2986 12
55 1 -14.9026 7.74346 -5.45609 20
56 1 -7.63171 16.1744 14.0183 8
57 1 0.0141002 -9.76364 10.1846 13
58 1 4.76694 -9.60598 -4.42313 19
59 1 3.54717 16.7762 13.5396 14
60 1 -17.8712 7.11173 -7.29976 11
61 1 -5.15705 14.9937 -2.21279 21
62 1 4.95362 9.75995 12.618 16
63 1 12.898 5.13425 -6.50357 13
64 1 11.8603 -7.12123 0.997772 10
65 1 -15.5481 -1.66693 6.93932 14
66 1 7.23693 19.186 6.54625 11
67 1 5.03187 3.3615 13.6852 19
68 1 -1.29884 -8.16184 6.93528 21
69 1 13.0582 5.39677 8.27267 16
70 1 -3.64322 19.6359 11.1716 11
71 1 -4.79532 -2.70112 -9.1368 18
72 1 -19.4124 9.03178 7.81751 5
73 1 -9.69664 13.9751 1.35159 15
74 1 -3.60919 11.8149 -7.77773 19
75 1 8.91927 13.4337 -6.85526 14
76 1 3.50658 -3.27265 10.1685 17
77 1 -3.7687 19.4143 -5.73431 18
78 1 -10.1922 14.0352 5.17839 13
79 1 -10.5322 -0.910162 11.9135 17
80 1 -6.96179 13.6835 5.80999 22
81 1 -6.94369 -3.78644 10.9362 20
82 1 10.1272 -7.98671 -3.91683 17
83 1 -13.5312 5.80764 3.58001 20
84 1 -7.41062 -12.3837 1.266 13
85 1 10.7893 -4.12795 -5.05706 20
86 1 2.93246 5.42133 -8.0288 19
87 1 -7.21422 1.18818 -14.463 14
88 1 -1.66597 15.373 2.58869 21
89 1 -9.01249 8.8083 -7.18401 24
90 1 -1.67017 11.4048 18.1818 8
91 1 0.277619 19.833 -6.79133 17
92 1 -13.7348 13.6099 5.0662 12
93 1 -3.46456 -5.21613 13.6765 12
94 1 10.6605 3.60848 10.1749 14
95 1 4.41026 -3.55195 -9.26067 15
96 1 8.32316 0.973909 16.686 13
97 1 -9.36752 -4.45162 0.285802 21
98 1 -10.0585 -5.40269 -3.03664 23
99 1 11.5058 -4.3849 2.74694 16
100 1 4.95929 7.29927 -13.5975 17
101 1 6.47083 18.1014 -2.73361 18
102 1 -11.3275 -7.32267 12.2619 10
103 1 -9.62539 -9.95559 10.152 13
104 1 6.03477 -10.2841 -11.8351 11
105 1 13.3013 -8.55358 -1.91203 9
106 1 -2.56009 -12.8345 3.77524 16
107 1 -8.01496 -8.37097 -2.54398 21
108 1 14.4646 10.9208 8.41342 12
109 1 13.9083 1.96892 -4.6159 10
110 1 -15.7445 0.0519138 4.36984 12
111 1 9.62328 14.096 6.2334 23
112 1 13.5662 13.5557 4.86207 11
113 1 -9.82614 11.0982 17.4529 6
114 1 -8.05785 10.8218 11.4792 18
115 1 -6.84886 14.4557 -5.56263 21
116 1 -3.73236 -8.8938 -12.7734 13
117 1 7.67375 -7.50554 -12.4383 13
118 1 3.8506 9.08845 -10.6444 18
119 1 11.782 -1.33776 10.8417 8
120 1 3.8457 2.79544 -18.4909 4
121 1 -3.49834 13.617 -5.19272 19
122 1 7.78267 7.07412 -5.37297 21
123 1 -11.3705 15.7776 -1.15062 13
124 1 -6.09399 18.2577 -1.45193 17
125 1 4.60815 7.55363 -7.50079 22
126 1 5.017 -6.3356 5.27223 15
127 1 -8.98675 16.5162 10.7217 9
128 1 11.4214 8.33467 -5.90214 20
129 1 5.05859 16.5218 -0.67885 19
130 1 -4.09891 20.8258 -0.241019 13
131 1 6.72575 14.3529 0.707232 20
132 1 -2.00481 17.195 -5.76689 20
133 1 1.74062 21.0032 -8.98063 8
134 1 -2.52038 12.3026 -15.6928 10
135 1 -13.539 -6.02798 0.32618 16
136 1 -14.637 13.078 -0.0863381 8
137 1 -9.75733 -3.05961 -10.9498 17
138 1 -3.34304 -3.58433 -14.3168 15
139 1 7.32808 16.0067 7.83426 19
140 1 -1.33606 21.2036 1.20697 13
141 1 -13.6084 -0.243851 -1.93166 17
142 1 -8.29602 14.9251 3.45866 17
143 1 14.0086 2.57368 -0.754998 13
144 1 -9.23411 5.60911 -10.3178 22
145 1 4.95955 5.63262 16.4422 17
146 1 4.02152 20.0547 0.562462 16
147 1 -3.55581 11.962 8.14378 20
148 1 0.388107 -5.05137 -16.742 9
149 1 -3.13338 18.2404 8.77468 15
150 1 3.65507 18.9938 -8.03534 17
151 1 0.7319 -3.46009 11.6327 19
152 1 -13.094 0.116714 1.37233 21
153 1 -4.79008 -6.74805 -15.3498 8
154 1 -9.4168 14.355 -7.67471 14
155 1 -4.86148 -5.94004 5.49055 22
156 1 3.80871 -10.7113 -7.08322 20
157 1 -3.77453 17.888 -8.88004 15
158 1 -16.4185 2.18675 6.2853 14
159 1 12.4454 8.62653 -2.59856 17
160 1 -11.8578 4.83508 10.5435 22
161 1 -1.80951 -6.62208 10.8497 15
162 1 -0.93613 20.2942 4.65636 12
163 1 -2.09423 10.7773 11.1108 20
164 1 12.8385 7.90485 14.3416 10
165 1 -7.07587 16.4643 5.73354 15
166 1 12.2604 -1.19749 -5.35334 16
167 1 -3.82583 16.4308 13.6449 14
168 1 13.3011 -1.6206 3.15369 11
169 1 -17.9775 5.5688 3.49878 11
170 1 -8.13791 -6.69534 5.18571 21
171 1 8.31285 12.2116 15.2157 13
172 1 -14.7089 2.54864 -3.30369 17
173 1 -2.68886 -10.8747 -1.81401 17
174 1 -3.58982 14.1961 5.79042 22
175 1 3.04781 18.8414 10.9113 14
176 1 -7.45213 11.9469 -7.35602 18
177 1 -14.8052 -1.27585 -6.83782 14
178 1 -12.8137 1.31203 10.6246 18
179 1 -1.72356 -5.51526 5.60474 21
180 1 2.30899 -10.4027 4.26742 15
181 1 -13.0251 11.5503 7.36526 16
182 1 14.1806 0.0871881 5.26055 11
183 1 -9.2326 0.154097 -12.2236 13
184 1 1.2637 5.62955 11.1462 22
185 1 5.11416 -10.528 -1.48343 19
186 1 -3.42639 8.67787 -10.8376 22
187 1 -0.23573 -9.09039 -13.7071 12
188 1 5.3542 3.58097 -14.1426 12
189 1 3.70397 10.8763 -13.9758 12
190 1 -6.72027 0.455323 -7.53285 16
191 1 -2.20517 20.1765 -8.12285 12
192 1 -10.7682 -10.1219 5.90813 12
193 1 10.2585 15.2372 -4.99737 14
194 1 -4.37009 2.91362 16.5183 13
195 1 -6.9099 20.1508 -4.65019 12
196 1 6.83351 5.88666 8.49575 18
197 1 -1.91327 -3.7407 -10.8017 19
198 1 -4.8743 11.3698 -10.1359 16
199 1 0.0410506 11.403 -7.89504 21
200 1 -4.78456 -8.32814 7.3704 19
201 1 -10.138 6.23235 7.99972 22
202 1 -6.78659 5.68664 13.8268 17
203 1 -0.626593 -5.9176 -13.6083 15
204 1 -3.16514 -9.21674 4.6852 20
205 1 9.76808 -10.3153 -6.898 13
206 1 9.82493 9.71433 16.3987 9
207 1 5.66486 15.9399 -15.2598 7
208 1 -0.189054 14.2826 0.395234 22
209 1 -11.7158 17.9013 -4.0251 11
210 1 -0.0411548 8.04875 10.9241 19
211 1 3.6277 -13.1767 -1.04947 12
212 1 11.5297 0.883366 -2.99188 14
213 1 -13.9471 8.81221 6.11562 19
214 1 -11.2093 -2.06688 -4.00764 20
215 1 0.452294 13.6783 -12.3403 14
216 1 1.61094 -0.474821 11.0512 20
217 1 6.39595 13.603 -10.2495 15
218 1 -3.03184 2.81781 -10.2386 21
219 1 1.26537 -13.9738 -3.69733 14
220 1 6.75208 5.22476 -7.95694 21
221 1 -11.734 -0.697504 4.20395 19
222 1 1.48703 -7.69206 -3.41211 18
223 1 -9.66465 0.186127 -9.0098 20
224 1 8.89013 16.2441 -8.77043 10
225 1 2.85757 2.0141 -12.7131 18
226 1 3.94121 8.49869 15.5717 23
227 1 15.6036 3.33619 3.74557 10
228 1 12.4958 -1.93629 -8.76783 10
229 1 -10.5391 2.62524 -10.9635 18
230 1 -18.0402 3.91794 -7.19882 11
231 1 -8.68272 -12.2023 8.15144 12
232 1 8.33597 2.93034 7.7286 19
233 1 -4.58683 -2.01555 -12.3696 18
234 1 -2.22812 10.7292 -13.1275 16
235 1 1.5055 15.1988 3.01203 25
236 1 -8.29385 -0.857891 10.5389 18
237 1 -8.91503 -4.26487 -5.54355 17
238 1 -11.7469 -1.18648 -10.1651 14
239 1 -6.27152 9.18477 -12.8102 18
240 1 -8.72888 -7.32946 -5.36689 20
241 1 6.24485 -2.20659 -11.8757 20
242 1 11.2629 3.4186 -8.97861 14
243 1 12.3138 8.09585 7.31679 23
244 1 -10.1518 -4.37909 10.4937 20
245 1 -1.93131 -8.03844 -3.35001 18
246 1 7.24164 9.00167 16.3796 14
247 1 -6.93324 -10.1957 6.15567 22
248 1 -0.00481967 -8.84506 -1.24952 17
249 1 -3.25867 17.8524 -2.60494 19
250 1 8.07341 5.93963 -13.4249 13
251 1 -13.3123 0.666445 -11.9569 13
252 1 -11.8252 -7.02255 9.31255 16
253 1 3.46947 12.9348 18.5649 10
254 1 3.8448 -7.04432 -1.22447 19
255 1 -2.47657 -10.6493 -10.0363 14
256 1 -15.3947 10.6039 -5.50539 13
257 1 9.21323 9.3069 7.88814 18
258 1 -7.21979 6.39249 -7.70904 20
259 1 -4.80198 13.3625 -13.0943 10
260 1 7.10359 -11.4831 -9.00398 13
261 1 -9.18653 17.6865 -5.66754 16
262 1 -0.355483 14.3276 5.56692 21
263 1 8.39644 5.06677 5.73877 22
264 1 -13.6994 2.83895 5.2512 21
265 1 -1.58377 -0.665029 10.8938 20
266 1 -12.0822 9.08106 8.01333 17
267 1 3.55158 -1.15329 -10.6119 20
268 1 15.0696 9.38117 3.20033 14
269 1 1.68786 -8.14319 1.54584 18
270 1 -1.02292 3.02238 15.6811 15
271 1 -13.7694 -2.31652 5.07367 16
272 1 -1.11038 -12.4423 -5.38024 15
273 1 -8.71847 11.6728 14.7726 15
274 1 -13.7722 5.98212 13.0182 15
275 1 -14.6813 -3.11526 9.08372 11
276 1 -13.7749 -4.99186 6.77539 14
277 1 15.1303 -0.530912 0.290432 9
278 1 -14.3149 -5.28427 10.3362 10
279 1 7.82034 3.39339 -5.68489 19
280 1 12.463 -8.59287 -7.86897 8
281 1 3.73108 20.22 -2.44032 14
282 1 -8.03085 15.8961 -2.69619 20
283 1 10.577 9.11994 10.5982 18
284 1 8.16551 -4.826 -2.51036 21
285 1 -14.2136 11.0104 2.32686 19
286 1 4.55567 -6.27117 11.0833 13
287 1 13.2172 2.94772 4.8297 18
288 1 1.23843 0.973801 16.6389 11
289 1 -4.98354 14.427 8.93086 22
290 1 6.72789 14.2212 16.9399 9
291 1 -6.54813 19.1118 -7.45626 10
292 1 -6.26423 -4.01788 -14.1962 16
293 1 1.9235 -10.1796 -12.2511 12
294 1 -9.89287 0.825614 13.946 14
295 1 -17.2049 7.91953 5.15674 16
296 1 -6.72192 13.9171 0.188456 21
297 1 9.83459 0.45187 9.58484 15
298 1 -9.05595 -8.66452 7.26676 23
299 1 5.40341 -2.29065 7.96431 18
300 1 -9.99124 -3.98811 13.2326 15
301 1 -16.648 12.1159 3.29758 10
302 1 1.0171 -10.3318 -8.60877 19
303 1 -9.03603 3.61556 -7.55585 19
304 1 7.58901 2.86981 -12.8131 14
305 1 -0.0796348 19.3167 10.4521 17
306 1 -12.1577 3.15141 -2.29789 17
307 1 3.82274 -9.53202 -10.0422 18
308 1 13.4989 3.33998 -11.7271 8
309 1 -7.06042 -11.3238 -5.69603 13
310 1 -17.4674 -3.04761 -4.4947 10
311 1 10.1693 7.45259 14.3527 18
312 1 11.7843 5.2542 -0.853515 18
313 1 -11.4517 6.87916 -7.83235 18
314 1 1.72223 20.68 2.81752 15
315 1 -17.3614 2.21882 -5.10555 15
316 1 -9.71562 8.23443 5.7531 21
317 1 -10.1945 11.6832 2.89814 19
318 1 -7.08885 8.14501 11.2028 18
319 1 8.29153 9.45784 13.2865 21
320 1 8.45071 -1.79302 -3.3325 17
321 1 9.25857 -2.27558 7.53356 16
322 1 10.6327 3.6633 -12.4569 16
323 1 -11.1784 -8.23573 -4.99515 16
324 1 -12.5187 5.41804 -5.15549 21
325 1 1.51718 -5.78078 -5.44737 21
326 1 12.2304 -1.20652 13.8356 8
327 1 -11.9524 -0.0420241 -6.42765 15
328 1 -8.45476 -8.58675 3.49337 20
329 1 -12.6611 -2.9704 11.3723 15
330 1 -2.82699 14.0323 -0.258126 21
331 1 -12.5256 -7.99267 -2.209 16
332 1 3.50227 14.2916 15.3825 16
333 1 -12.2715 8.65632 -1.61019 19
334 1 4.89419 15.947 -9.92895 18
335 1 1.17618 14.8422 7.29265 20
336 1 -14.5703 -6.22909 -4.27692 11
337 1 -9.58848 -10.5427 -4.00382 14
338 1 -15.3708 5.21781 5.61914 19
339 1 -14.9221 12.2084 -2.65021 13
340 1 4.00611 -11.5241 1.58849 18
341 1 -4.42587 -11.4201 -4.07636 17
342 1 9.20721 16.8866 4.87646 13
343 1 4.98013 13.1854 -15.3155 11
344 1 -14.9263 8.24663 -8.60174 11
345 1 -1.28992 22.1979 -5.38873 9
346 1 -10.7743 8.38017 -4.29519 20
347 1 -3.48297 -11.0679 7.26315 14
348 1 13.22 10.4837 5.09861 17
349 1 -2.14993 14.3922 -13.5289 12
350 1 -17.5528 1.57317 -1.97365 14
351 1 -5.70779 -7.93041 2.73926 20
352 1 5.09403 -6.29054 -10.4712 17
353 1 -14.7457 3.36567 8.40188 22
354 1 -15.8294 0.524653 9.8374 12
355 1 -16.1491 12.1347 7.19096 9
356 1 -7.68795 4.08906 -12.4874 20
357 1 8.20908 -5.97362 -5.23351 19
358 1 4.62816 -4.13858 -12.8509 22
359 1 -4.59876 -0.509185 10.7125 20
360 1 -5.77404 4.01965 -14.7374 16
361 1 7.28177 -14.926 4.79533 5
362 1 0.871868 20.4752 -0.489789 15
363 1 -15.8791 9.96139 9.52344 10
364 1 -9.13942 6.4912 16.4511 10
365 1 -11.4996 -4.99765 -9.50645 15
366 1 -8.60393 -2.41629 7.98636 21
367 1 8.0047 -0.841495 11.3547 16
368 1 3.08014 -5.17037 8.11895 22
369 1 10.6417 10.9265 -1.57866 19
370 1 -1.81188 3.24856 13.1841 18
371 1 1.9032 17.1671 -0.395465 24
372 1 1.58239 -11.4082 -4.04383 18
373 1 -10.7231 8.82216 14.3902 13
374 1 -0.222705 17.7207 7.90653 17
375 1 -9.72675 -6.87868 -11.5238 12
376 1 9.64757 17.9528 -2.61521 12
377 1 2.87103 11.8186 7.90212 19
378 1 -8.67272 5.12761 11.3157 22
379 1 -10.4517 8.18103 10.8791 19
380 1 -8.0484 -2.36598 -8.20887 19
381 1 -6.67056 11.8896 8.30251 18
382 1 -5.18598 -8.4193 -3.31215 18
383 1 -4.16054 -5.34102 -11.3293 18
384 1 -7.62754 -6.99138 -0.353852 20
385 1 10.0135 6.28361 8.80309 22
386 1 -6.55718 0.654041 14.3579 14
387 1 -12.0483 11.3394 -3.81381 21
388 1 8.80905 8.96071 -3.72793 19
389 1 -11.7798 -5.17381 -5.78823 22
390 1 -0.0918285 18.3295 -2.60204 19
391 1 -2.56108 16.4341 11.2993 22
392 1 -16.3638 -0.304554 -3.76228 15
393 1 2.28381 22.1068 -5.29886 8
394 1 5.33067 17.2024 -6.31333 20
395 1 -10.6465 -7.33627 -8.05511 15
396 1 -1.02169 7.89154 16.728 15
397 1 -3.52284 -9.11814 -5.78023 16
398 1 -1.87341 -0.593383 -10.7831 19
399 1 9.5277 -8.44242 -0.492474 15
400 1 -10.5018 13.0579 9.45896 12
401 1 1.32126 8.74616 14.2388 18
402 1 8.87424 11.5052 0.651825 20
403 1 -10.7402 11.5037 -8.37774 13
404 1 -14.9332 -3.95535 2.78976 12
405 1 4.37503 19.5056 4.81373 18
406 1 -5.22774 6.4981 -12.4323 21
407 1 10.1809 8.39979 0.29521 19
408 1 7.11499 16.8872 -11.868 13
409 1 13.2841 4.74258 1.75671 17
410 1 -1.44057 1.83989 -12.6792 15
411 1 4.72425 -12.556 5.39957 9
412 1 -0.0162684 -5.13399 8.37022 21
413 1 -15.0053 5.20672 -7.48198 20
414 1 -15.4224 -11.6177 2.06491 8
415 1 -3.75173 -4.9341 -7.97498 19
416 1 4.24769 16.4787 5.35729 20
417 1 -0.0189757 8.64159 -9.55005 21
418 1 0.0251228 0.596893 13.7759 16
419 1 -15.3671 5.83529 10.3299 19
420 1 3.85163 -13.0589 -5.18677 14
421 1 -13.9805 2.74916 -0.112814 20
422 1 12.9947 -5.39622 -7.65316 13
423 1 10.3627 -2.59705 -1.16663 16
424 1 3.78487 -4.93421 -7.14146 16
425 1 2.8042 5.16004 -12.3849 16
426 1 14.0153 -3.29317 -5.55655 10
427 1 -7.50211 2.6172 16.9214 8
428 1 7.3766 20.1506 -0.29963 13
429 1 -8.677 8.19594 -13.115 15
430 1 1.576 7.16057 -14.811 16
431 1 -10.1258 0.70418 8.29419 22
432 1 -0.00481071 18.1089 1.78456 18
433 1 -8.07254 3.35457 -16.0382 9
434 1 -18.416 4.61093 0.158568 12
435 1 -4.39562 -7.76134 -9.96357 15
436 1 -8.26067 -6.99653 10.2001 21
437 1 0.129326 13.8156 -5.27862 17
438 1 15.1101 8.33302 5.96436 14
439 1 13.7667 6.2625 4.32316 19
440 1 -10.6767 -10.8059 -1.63181 15
441 1 2.0004 -2.78216 -18.152 8
442 1 -5.52003 13.6763 14.4002 18
443 1 8.46971 -2.57578 2.3947 19
444 1 6.93875 19.0443 -8.5133 12
445 1 11.3813 6.48406 -12.2344 9
446 1 1.28069 10.838 10.9319 22
447 1 -11.4299 5.14103 5.36206 20
448 1 3.61064 13.0079 11.0494 16
449 1 4.52249 1.37431 16.4894 14
450 1 -0.152442 4.91335 -13.6907 19
451 1 3.47653 2.73563 11.1568 22
452 1 2.00914 16.2291 10.3593 20
453 1 3.77293 12.5796 -11.3666 19
454 1 -9.96141 12.8139 -2.08689 20
455 1 -2.17361 15.2723 -2.89852 23
456 1 11.4557 0.00492055 16.4527 9
457 1 7.63778 8.63589 -12.0473 14
458 1 13.3405 -3.10463 0.0795592 10
459 1 9.53972 13.7072 9.51087 20
460 1 -12.9726 -4.67689 -2.43062 19
461 1 -6.9812 15.9223 -9.01073 11
462 1 -15.2628 2.6253 12.4566 14
463 1 -3.93555 15.2885 -7.98504 17
464 1 11.311 -5.34453 -1.78283 16
465 1 5.86292 0.56555 -9.82983 22
466 1 -4.21789 21.4785 -3.5657 12
467 1 -8.90518 -1.91773 -14.5408 10
468 1 5.77645 -8.26082 0.799332 13
469 1 -14.7891 -2.776 -0.495013 19
470 1 1.23279 14.2074 -9.4042 17
471 1 -2.29081 8.31978 13.2864 19
472 1 -11.4356 -2.15469 8.1414 20
473 1 10.0181 -3.06317 -7.80539 19
474 1 0.0502961 -5.72116 13.2384 10
475 1 -11.7672 11.1792 4.97518 17
476 1 2.39445 6.65869 17.2643 15
477 1 8.63586 17.9466 -5.91178 12
478 1 5.88662 -0.0884335 -4.82287 20
479 1 0.012371 13.7536 10.4385 18
480 1 -4.39826 1.79918 -16.5552 11
481 1 -7.23208 -12.111 11.6232 9
482 1 8.44844 0.525356 -11.3759 16
483 1 3.24282 17.7767 7.53859 18
484 1 6.2762 10.4556 -9.56909 18
485 1 -0.457906 -1.81868 -15.0608 16
486 1 -5.14882 -5.91171 -5.29792 17
487 1 -16.8122 1.04552 -11.4144 9
488 1 10.1314 8.26439 5.63862 22
489 1 15.6888 5.50058 -1.05297 10
490 1 5.54232 1.96495 -7.10265 21
491 1 12.1316 11.1894 10.0106 17
492 1 5.10778 -6.26593 -4.64717 22
493 1 2.14873 7.80805 -12.2511 17
494 1 8.89809 18.326 1.6586 12
495 1 11.6143 14.4467 10.8674 12
496 1 17.1674 7.83787 1.23932 6
497 1 10.0256 2.04773 5.43173 16
498 1 7.21862 8.09887 -8.55795 19
499 1 7.36498 3.5337 14.4176 19
500 1 14.1835 10.246 12.1583 11
501 1 13.3469 10.5223 -4.03582 10
502 1 4.94435 6.05183 19.6181 7
503 1 13.5347 4.50593 -3.59862 15
504 1 6.71357 8.42379 10.7859 19
505 1 -10.5352 2.7286 -4.94714 20
506 1 14.1194 12.6748 2.21758 10
507 1 -11.6856 11.2198 10.5079 13
508 1 7.97927 15.696 11.0088 12
509 1 10.8364 4.48902 13.3706 15
510 1 -0.38596 11.9399 8.17717 21
511 1 -0.514893 21.5855 12.4532 8
512 1 -1.8062 -13.3976 1.38107 13
513 1 -6.9523 12.3429 -3.00642 21
514 1 10.76 8.8716 -9.54947 12
515 1 11.3114 0.254636 -12.4149 10
516 1 -1.47663 21.4732 -2.23547 11
517 1 -2.03971 -8.2953 -8.13944 16
518 1 9.90168 -2.49466 -11.2192 13
519 1 -18.2966 10.556 5.21965 13
520 1 -6.91138 8.13849 -9.92397 24
521 1 -5.01025 -14.2903 3.03643 9
522 1 -9.99834 8.76787 -9.93604 14
523 1 -15.6033 4.73046 -4.71526 20
524 1 7.45612 -6.59436 9.76467 7
525 1 11.2148 16.602 -0.482673 10
526 1 1.63056 -9.20346 12.7148 8
527 1 -14.6114 -0.0929259 -8.96919 16
528 1 1.62371 0.305579 -16.0602 15
529 1 -3.35234 10.7925 15.696 15
530 1 2.15348 13.9453 -15.0296 13
531 1 12.6176 1.55173 13.2042 9
532 1 4.98592 11.2776 -4.1347 21
533 1 11.1675 13.7367 0.705477 16
534 1 6.88221 -12.1776 -5.98677 16
535 1 -12.4037 3.048 13.7186 15
536 1 11.6127 -0.282249 7.2445 15
537 1 -1.94507 15.1756 15.4786 13
538 1 3.55985 15.3518 -12.7213 17
539 1 -13.02 14.5988 -3.01016 13
540 1 6.65074 11.752 2.42075 19
541 1 -7.08358 -11.5608 -2.18844 18
542 1 12.7547 -3.28787 5.55642 10
543 1 6.18293 20.4905 3.0482 14
544 1 -3.95068 8.079 10.9261 18
545 1 -11.9682 -3.36244 1.93538 20
546 1 -11.9674 3.1769 -8.11114 18
547 1 5.2241 5.4797 11.2561 21
548 1 -6.64752 -8.70334 12.9426 9
549 1 6.40327 6.43988 14.1152 21
550 1 -6.37018 18.1589 2.90696 11
551 1 -1.52451 3.49565 -15.4855 13
552 1 -11.5781 3.15468 7.91489 24
553 1 8.07512 3.41667 -9.9682 17
554 1 10.1627 -6.86527 -7.62615 18
555 1 4.75788 9.96988 9.03112 17
556 1 -13.0528 9.18572 12.4281 12
557 1 4.58854 15.0342 8.47349 20
558 1 -1.67743 -2.67822 12.8565 15
559 1 -0.306936 6.18006 13.4487 16
560 1 1.04376 -0.524963 -12.2386 16
561 1 -5.4814 2.63207 13.3674 18
562 1 3.25048 6.04254 13.5819 18
563 1 -8.34358 -11.8248 4.14339 16
564 1 13.506 7.77233 0.309597 16
565 1 8.42743 -10.2107 -3.77544 14
566 1 3.02866 13.9718 0.369979 21
567 1 6.40002 17.621 2.55362 22
568 1 2.25346 3.59976 -15.374 15
569 1 1.01539 16.6972 -4.9912 18
570 1 10.1584 11.9707 3.5576 21
571 1 -6.74423 -5.00472 -2.72602 21
572 1 -2.01811 0.384908 -16.7974 9
573 1 -8.80648 18.9878 -2.60702 10
574 1 7.19049 -2.32589 -9.03656 22
575 1 9.02732 11.4105 -11.4161 10
576 1 7.94607 12.6137 -3.75817 20
577 1 10.0474 3.41053 16.2936 12
578 1 6.86468 3.61173 17.7257 12
579 1 -3.0408 -9.44434 9.89907 14
580 1 -8.23071 10.7389 -10.613 14
581 1 0.599833 17.8118 12.9666 17
582 1 6.00797 -5.83047 -15.0373 13
583 1 5.99791 13.2943 -6.60013 17
584 1 6.69305 14.4338 5.7461 19
585 1 12.8451 -6.69534 -4.58439 14
586 1 4.83916 11.4316 16.6478 16
587 1 -17.3514 1.64796 0.813914 11
588 1 -2.19492 -13.9976 -2.79688 10
589 1 -8.04921 16.6641 0.544218 15
590 1 5.29213 15.0799 2.79658 20
591 1 -16.3982 -1.20951 2.12303 13
592 1 -4.8683 7.18121 15.4258 12
593 1 -6.80268 7.19381 -15.5641 13
594 1 -9.31133 5.40681 -14.6377 14
595 1 0.421114 -10.9511 1.77842 20
596 1 3.81244 12.3741 -7.72282 20
597 1 -13.9465 7.83097 9.88497 18
598 1 1.75922 -4.35516 -14.3326 17
599 1 3.42299 -9.70879 10.3116 11
600 1 3.47319 17.9876 2.46609 19
601 1 -2.71761 5.51204 17.7218 10
602 1 -7.16106 -3.62076 -11.5078 17
603 1 -8.99218 -5.09022 -13.7522 11
604 1 -6.33567 -8.41279 -7.22226 14
605 1 3.37373 19.6521 -5.59669 17
606 1 -5.96834 14.9437 11.5203 19
607 1 7.18313 -8.29402 -2.3609 19
608 1 8.96304 -11.9334 3.8106 4
609 1 1.94848 -8.19838 7.43932 16
610 1 10.0511 5.74491 -7.37886 20
611 1 -0.296582 -9.14782 -6.00526 17
612 1 -12.9518 0.371338 6.91751 22
613 1 -5.40348 -11.0129 3.6731 20
614 1 -5.62536 -9.8699 -0.542964 20
615 1 -17.707 2.90653 9.94506 12
616 1 -11.0297 -11.7565 2.9699 11
617 1 10.3532 6.37204 -4.05259 18
618 1 -4.01756 20.2841 3.25331 10
619 1 -16.5398 10.3871 0.47537 14
620 1 8.64643 -0.467001 5.13883 19
621 1 -17.5815 0.742828 -8.40494 9
622 1 6.14904 9.745 -5.86725 19
623 1 5.2957 16.0591 11.6294 13
624 1 -19.0192 5.6014 -4.55817 11
625 1 -14.3412 -3.32239 -4.81974 17
626 1 -6.13252 11.2009 16.1615 12
627 1 1.01627 10.8121 -12.3779 17
628 1 11.902 16.662 5.57806 11
629 1 -5.18965 5.17374 11.3946 20
630 1 0.415439 -12.4879 -0.998313 17
631 1 -4.32402 -12.4821 10.0367 7
632 1 11.0263 11.314 7.09306 22
633 1 1.47299 -2.67855 -7.96948 19
634 1 5.28015 10.9748 5.51789 21
635 1 -10.3821 -3.36819 5.08413 17
636 1 7.58012 14.4743 -13.345 13
637 1 -4.90594 -13.1262 -0.957063 16
638 1 0.79449 -13.0812 4.7811 13
639 1 2.37038 -9.82897 -0.780042 17
640 1 3.27664 14.2874 -4.7301 21
641 1 9.6501 14.2908 -2.09106 18
642 1 -4.69219 -1.01722 -15.3631 12
643 1 -3.19513 0.723729 13.4446 18
644 1 -1.18222 9.02076 -16.1569 10
645 1 -7.60928 2.84662 -9.88122 17
646 1 -11.4011 -1.31849 -0.431268 17
647 1 0.534817 16.8952 -12.9995 10
648 1 2.97466 -1.60149 -13.832 21
649 1 6.9859 10.9797 -1.65383 18
650 1 7.21306 -3.62879 5.61881 18
651 1 -11.2564 12.1545 12.8162 12
652 1 6.77539 -4.85351 2.8022 16
653 1 10.1162 -3.60822 5.17974 16
654 1 13.5495 4.89483 14.2984 8
655 1 -1.60664 14.7455 8.53087 21
656 1 -16.1059 8.47366 12.5125 11
657 1 -8.2311 9.23002 8.53739 21
658 1 1.77616 -6.72203 10.6325 20
659 1 5.84242 14.0187 13.5196 15
660 1 -17.1794 -1.35438 -1.30132 15
661 1 11.246 -6.69865 4.41229 9
662 1 -10.2951 14.3662 -4.53135 23
663 1 3.85151 -14.4236 3.22816 10
664 1 2.09743 3.31925 18.233 8
665 1 1.24201 17.269 4.7156 21
666 1 1.51139 -6.46529 5.48375 21
667 1 1.44592 3.40626 13.7102 21
668 1 -15.9865 -4.653 -1.92282 14
669 1 0.717021 16.5469 16.092 10
670 1 8.40005 16.784 -0.576694 18
671 1 -13.1911 -9.4753 2.78439 12
672 1 -5.77003 -13.2138 6.09505 12
673 1 6.68932 0.420604 8.71932 19
674 1 9.12907 -5.79152 7.2938 12
675 1 6.55605 12.2618 7.7316 18
676 1 -1.17213 -7.97343 -10.7714 19
677 1 -2.09233 5.76531 -10.1091 22
678 1 -8.07833 -2.22437 14.1624 11
679 1 -4.99941 15.1248 3.39718 19
680 1 11.6001 5.44854 6.01383 23
681 1 3.37324 17.2784 -3.25699 22
682 1 -2.84387 13.6742 12.1913 22
683 1 8.81496 14.2194 12.9538 11
684 1 5.6078 6.75044 -10.758 21
685 1 -8.81343 -10.113 0.77839 20
686 1 14.7279 5.3996 6.55463 18
687 1 0.4927 2.0269 -10.7866 17
688 1 2.53984 11.5104 14.0571 14
689 1 7.16303 -8.12759 -9.54979 18
690 1 -1.17956 7.78031 -12.8759 20
691 1 7.50746 11.6546 -13.9359 9
692 1 13.8728 1.33602 2.3724 13
693 1 5.64239 -2.24997 13.4217 9
694 1 -0.707233 -5.18719 -8.07031 19
695 1 6.81893 15.6539 -4.4432 20
696 1 -19.2301 8.89187 2.32843 11
697 1 11.562 11.1095 -7.2696 10
698 1 12.1607 10.8364 0.970076 17
699 1 4.07003 -0.478018 -16.9226 9
700 1 -5.90643 17.4717 8.93867 14
701 1 12.8682 14.2195 7.78148 15
702 1 10.6915 11.7888 -4.75998 19
703 1 4.86336 3.56651 -9.97652 19
704 1 9.03643 -5.42071 0.721414 20
705 1 -15.5121 5.30158 1.23176 20
706 1 8.10113 11.0401 5.0506 21
707 1 -12.8203 -9.85166 0.389168 15
708 1 -11.6903 16.0602 -7.50108 8
709 1 3.13148 7.94649 10.4112 20
710 1 -13.6201 2.20228 -6.16452 17
711 1 -13.3815 5.93393 7.45163 21
712 1 7.19967 -5.73476 -7.84699 21
713 1 -13.8363 -4.71153 -7.79355 11
714 1 13.6835 -9.93457 -5.15976 5
715 1 -15.9512 8.49258 2.95816 22
716 1 10.7007 11.4275 12.6996 16
717 1 -6.65786 -5.33682 7.93116 22
718 1 8.46636 6.1897 16.6755 15
719 1 12.4985 6.93835 11.358 21
720 1 -12.0721 8.45869 2.66893 22
721 1 -0.230205 14.6235 13.2083 16
722 1 2.74719 15.5205 -7.23427 19
723 1 3.69839 -4.71503 -16.1156 14
724 1 -5.08433 18.8186 6.17841 10
725 1 -15.837 -10.8932 5.75503 2
726 1 8.9933 10.1001 -7.11986 19
727 1 -0.707273 11.7626 13.9921 19
728 1 13.2115 -1.67555 -2.29007 12
729 1 6.33469 0.584717 13.9816 17
730 1 -0.720628 18.5042 -9.87735 14
731 1 2.00142 16.9884 -10.2656 18
732 1 -6.77994 1.97812 10.5968 20
733 1 12.9802 2.47232 7.85763 14
734 1 -4.30123 0.890841 -12.9968 16
735 1 13.0016 16.1092 2.46396 10
736 1 -17.164 4.63026 -1.96706 17
737 1 -5.17907 -6.63072 11.09 18
738 1 4.21235 18.6827 -11.2204 11
739 1 7.10497 2.38998 11.0576 17
740 1 1.22126 -13.0583 -7.05078 14
741 1 -4.3335 17.5803 1.12773 18
742 1 -17.4979 7.48732 -0.921404 14
743 1 10.6974 2.07554 -5.73662 14
744 1 1.26867 -7.56181 -9.17381 13
745 1 -8.27334 10.8309 5.55469 20
746 1 14.5197 6.93898 -4.11959 12
747 1 5.85406 -2.72157 -15.3883 14
748 1 -6.44109 -7.08365 -12.6784 15
749 1 -1.71761 -6.17921 -5.3957 19
750 1 -4.3514 13.9921 17.1732 8
751 1 3.68873 -7.92247 -7.5328 21
752 1 -3.52651 14.6991 -10.5052 14
753 1 9.14247 -0.871075 -6.27856 16
754 1 8.4008 8.9761 2.79115 21
755 1 6.23293 -13.3771 -3.26593 10
756 1 5.46058 0.19363 -13.1381 14
757 1 10.0307 5.80417 2.54405 20
758 1 -3.73653 7.98426 -14.913 16
759 1 -3.39014 -5.6805 8.51727 20
760 1 5.13755 14.056 -2.0534 21
761 1 -14.2765 5.86846 -2.4167 22
762 1 -18.4982 6.56794 10.836 7
763 1 1.05837 10.4492 16.5075 18
764 1 -6.84538 -9.52283 9.70191 19
765 1 3.40464 13.7533 5.36307 18
766 1 -3.22655 -10.5576 1.29139 18
767 1 0.894437 15.0142 -2.24836 22
768 1 -5.10276 11.3394 11.2557 19
769 1 -9.00384 3.94066 14.6389 15
770 1 -8.17321 15.1472 7.99689 13
771 1 -7.00052 -6.03272 13.4034 11
772 1 5.32424 -8.01698 8.16115 14
773 1 8.78811 6.09648 11.6287 19
774 1 6.70715 -3.22689 -6.00008 23
775 1 3.78617 -11.932 -9.86183 13
776 1 -11.2721 3.08321 -13.9064 13
777 1 -3.08821 4.46588 -12.842 16
778 1 5.62417 18.3991 9.1592 13
779 1 -13.4336 -0.336659 13.552 11
780 1 -6.0093 9.19186 -7.47942 20
781 1 -15.095 9.2538 -2.19538 16
782 1 8.91978 14.4526 2.67836 16
783 1 -12.3821 -13.0311 0.707091 9
784 1 10.5459 16.1789 8.69969 14
785 1 -9.85773 -10.2502 -7.13607 12
786 1 4.59072 21.4657 7.84001 11
787 1 -6.2505 5.50502 17.1846 12
788 1 -4.45713 -12.039 -7.13198 11
789 1 15.0944 8.08689 9.10759 14
790 1 1.78543 -13.689 1.50925 14
791 1 0.981601 13.5002 17.5608 10
792 1 13.5512 0.915769 -10.6347 7
793 1 5.85224 -5.23433 -0.55589 21
794 1 0.676272 4.81589 -10.4467 18
795 1 -14.9833 2.95567 -9.72008 17
796 1 -5.50282 5.20175 -9.8293 20
797 1 -5.98897 9.36569 13.3629 16
798 1 8.78914 -1.44973 14.5668 11
799 1 -9.40584 -5.55796 2.57634 20
800 1 10.701 0.547126 2.03131 13
801 1 -2.31327 8.87848 -7.99246 21
802 1 11.7959 8.25216 3.55508 19
803 1 1.96678 20.9485 6.43904 12
804 1 -13.6333 -6.34601 3.58681 12
805 1 6.61702 -8.74055 -6.67178 22
806 2 -11.4902 4.75878 -7.1744 20
807 2 -7.15396 14.3889 -2.05993 20
808 2 -0.815089 3.57194 -10.3553 22
809 2 -2.39377 10.2568 13.9748 15
810 2 1.68691 -9.22145 -10.4638 17
811 2 -8.05118 -2.40471 -6.1331 18
812 2 1.77866 7.0337 12.7509 17
813 2 1.70917 5.19951 18.0176 12
814 2 -14.108 -12.7772 1.57611 9
815 2 -18.1724 6.48193 -3.10113 11
816 2 -0.549829 18.3529 5.17843 15
817 2 -14.0491 5.58128 -0.0110065 23
818 2 -0.0327281 19.8733 -8.65662 14
819 2 8.29168 9.18659 5.28622 18
820 2 -2.55035 16.6833 -7.86423 18
821 2 9.71829 14.9676 -6.92604 12
822 2 -16.2518 1.42468 -9.8065 12
823 2 -11.4903 -3.00065 -9.67541 16
824 2 3.53951 9.53239 13.7556 19
825 2 6.46725 4.32697 -10.185 19
826 2 3.56237 -11.2858 -0.36281 16
827 2 -11.0106 14.3607 -2.33299 17
828 2 -18.806 7.42611 -5.61094 10
829 2 14.7845 7.74957 4.17464 16
830 2 7.52043 -7.53933 -7.79913 21
831 2 -12.7847 -7.80769 -0.264699 17
832 2 -13.445 -1.17968 -0.00544674 16
833 2 -1.76862 -11.3289 2.29135 18
834 2 8.20921 -0.906487 8.50112 19
835 2 -5.64079 -10.569 -6.90271 12
836 2 1.7034 0.208386 14.8931 13
837 2 2.33376 18.0391 -4.94511 18
838 2 2.04401 -13.9993 3.39344 14
839 2 -13.113 -6.58641 -3.22417 18
840 2 -5.22327 9.65905 15.2917 12
841 2 -11.9732 14.0022 5.40442 11
842 2 -0.573393 4.43315 14.2991 17
843 2 -8.73374 11.3092 -2.92225 23
844 2 4.97858 -6.20096 7.43062 20
845 2 -3.4152 17.693 -4.71404 18
846 2 10.3058 16.2715 6.56999 14
847 2 6.3933 19.8743 4.87175 12
848 2 4.61733 3.16979 -5.83956 21
849 2 -4.71493 13.3432 12.255 18
850 2 7.03737 4.28534 -13.83 12
851 2 -8.41058 9.85577 -12.2985 10
852 2 10.4124 6.83899 -5.91276 15
853 2 -9.04345 -0.707265 13.2581 14
854 2 -16.6867 11.6324 5.33282 13
855 2 11.5415 4.00269 -7.17128 10
856 2 -10.4047 -5.47898 12.0994 15
857 2 4.14303 -6.08559 -12.3794 17
858 2 2.42481 -1.261 -16.7113 15
859 2 -13.2744 -4.82367 1.96078 14
860 2 6.41815 12.8692 -2.50954 18
861 2 -6.71339 12.0747 4.92166 24
862 2 -6.79429 -4.94619 -4.79632 16
863 2 -1.37839 18.8877 9.244 14
864 2 5.95973 4.57132 14.8769 20
865 2 1.6846 -2.36435 10.3326 21
866 2 15.6491 7.9112 10.9199 9
867 2 6.18252 17.734 -9.98656 15
868 2 -15.6108 4.46885 -2.82375 22
869 2 13.8804 12.5922 7.9046 11
870 2 11.2626 -6.31559 -3.32801 18
871 2 6.74785 -5.03723 -6.0937 16
872 2 -7.4241 11.0531 13.348 20
873 2 9.62972 -4.3136 2.0129 20
874 2 9.45653 -6.69806 5.38724 11
875 2 14.1893 14.5379 3.01463 9
876 2 -8.58149 1.75905 15.2226 12
877 2 12.7017 -4.81316 -5.61547 14