ITEM: TIMESTEP
19000
ITEM: NUMBER OF ATOMS
1000
ITEM: BOX BOUNDS pp pp pp
-30.0 30.0
-30.0 30.0
-30.0 30.0
ITEM: ATOMS id type x y z Coordination
1 1 -8.57474 -11.6595 -6.95636 10
2 1 3.8076 -12.4521 10.3718 12
3 1 -11.0146 5.72382 1.38686 17
4 1 -7.79835 -1.87911 -10.2394 18
5 1 -1.95204 -11.7919 12.4933 12
6 1 -10.8119 -2.30984 -11.9576 6
7 1 -5.66674 -14.1048 3.99344 15
8 1 8.48457 -3.54719 6.91092 14
9 1 -0.708881 -1.24556 12.6839 20
10 1 8.20307 -1.45427 4.92621 17
11 1 -6.77368 5.79005 -6.44693 17
12 1 -6.90437 -2.80105 13.217 20
13 1 -10.9574 -2.31189 2.75359 19
14 1 -5.27655 -4.86332 -6.08282 20
15 1 -0.17069 -1.23749 8.2397 22
16 1 -4.46111 2.23762 13.9592 16
17 1 -2.58981 -12.2979 4.99184 18
18 1 -13.7375 -1.72671 0.980256 19
19 1 -15.0969 3.30918 -2.34519 9
20 1 -3.09124 9.8698 -2.99687 11
21 1 -2.94044 3.6175 -8.97096 21
22 1 -0.471015 -10.1221 -9.27445 11
23 1 -8.01993 -1.43122 17.0294 8
24 1 -14.9776 3.52395 0.86628 14
25 1 -4.20627 11.4481 -0.25776 9
26 1 2.73035 -14.0534 7.68068 11
27 1 2.58788 -12.7715 -3.5302 10
28 1 2.8718 -0.94921 6.90059 23
29 1 -6.25569 3.33167 -4.38175 20
30 1 -0.389983 3.37557 -1.19625 22
31 1 0.928896 0.468098 10.4362 20
32 1 -10.0414 -4.54912 4.69463 21
33 1 -1.3637 -5.33891 15.0872 15
34 1 -10.6116 -5.00269 0.951718 20
35 1 4.44759 -0.100952 9.45447 16
36 1 5.16772 -1.56635 -4.95202 20
37 1 2.93363 -1.50061 10.509 19
38 1 -7.9643 -7.01388 0.756078 21
39 1 -5.86276 -12.5984 -8.91279 10
40 1 -8.56317 10.1321 0.425443 10
41 1 -6.19234 2.67769 -7.78858 17
42 1 3.53959 -5.24983 -8.03387 18
43 1 8.89004 -8.37293 10.2058 13
44 1 1.15275 -11.2347 12.5249 12
45 1 -5.33333 7.44195 11.0213 17
46 1 -9.56492 -8.55392 11.8902 9
47 1 -13.6321 5.46214 6.63271 12
48 1 2.80353 -9.25428 0.00655249 20
49 1 -1.20616 -1.50006 -11.9517 16
50 1 -5.71137 9.91855 8.86736 11
51 1 -9.01538 6.90492 -1.27955 15
52 1 -0.121948 6.29167 3.74346 18
53 1 -4.83335 -13.1108 7.1858 13
54 1 -6.05917 -7.38471 -7.97801 21
55 1 0.383741 -4.32607 -9.68255 18
56 1 -4.59032 1.62329 10.5096 23
57 1 -14.1609 -12.2028 -2.80117 5
58 1 5.8964 -9.33278 5.09787 21
59 1 -13.5787 -9.80619 3.05535 13
60 1 8.31816 -11.7541 8.8368 12
61 1 -5.01032 3.90217 5.49655 20
62 1 1.98113 -0.149545 -11.2446 20
63 1 13.5838 -9.48346 3.52184 4
64 1 -10.2359 -7.36506 6.31556 22
65 1 6.36015 4.57413 5.1629 16
66 1 5.13607 3.76224 -1.47203 20
67 1 -5.034 7.60087 -5.01403 13
68 1 -3.0137 -6.61354 -9.3409 20
69 1 -1.69403 6.49721 -4.69086 20
70 1 5.41869 -8.29533 -3.45397 19
71 1 -0.368752 1.61601 -13.2372 12
72 1 7.95956 -11.6057 6.01232 14
73 1 -8.09118 0.387026 -7.63361 17
74 1 -0.28704 9.23887 0.240521 15
75 1 6.29075 7.71009 -1.9807 10
76 1 -2.15808 7.01547 1.63296 18
77 1 -10.8377 -10.2555 -8.65958 8
78 1 -13.3425 -4.43102 -3.65153 19
79 1 -11.3249 4.29705 11.2261 9
80 1 -2.08852 6.85098 -1.36481 19
81 1 -2.49847 -7.10245 16.7705 8
82 1 -14.7778 -4.84791 5.69096 9
83 1 -3.52574 -12.4507 2.07582 19
84 1 1.02714 6.10913 0.315133 21
85 1 7.45862 3.09567 -6.5872 11
86 1 -2.29209 -11.5758 8.63763 18
87 1 -10.821 0.611285 0.735946 20
88 1 -5.55551 4.44142 15.1165 12
89 1 -5.37049 -1.96732 -8.03845 21
90 1 -7.50937 -6.59933 7.55969 20
91 1 -9.81428 -11.3061 7.52322 12
92 1 1.37769 -11.6188 2.14758 20
93 1 -11.7986 5.97297 4.65852 20
94 1 -9.88461 -1.88838 6.28054 21
95 1 -11.4912 -2.21033 -0.625126 20
96 1 0.980512 -13.7287 4.47057 14
97 1 3.25168 0.946114 -1.65351 20
98 1 -0.416488 -2.55808 15.3922 12
99 1 -3.57057 0.330821 -8.08171 18
100 1 -13.784 -5.02487 -7.10079 12
101 1 -6.44276 9.12478 -1.59439 13
102 1 1.65241 -0.0202524 13.9493 17
103 1 -9.12039 6.81972 -4.53386 9
104 1 1.62179 5.25051 -5.94989 16
105 1 -8.6669 4.45474 6.77951 18
106 1 -12.4229 3.1028 8.54442 14
107 1 -0.285287 -14.3516 -4.62287 12
108 1 5.6484 -7.8585 2.00096 24
109 1 3.95465 2.43807 -6.22347 18
110 1 -2.39807 10.1123 2.92326 14
111 1 -14.6808 0.571342 2.83842 15
112 1 -1.92539 4.65813 13.5404 14
113 1 6.05463 -4.62426 -2.96389 20
114 1 0.954525 4.75884 8.72854 18
115 1 -15.678 8.55906 3.66829 5
116 1 -10.3872 -8.5067 -0.352394 20
117 1 0.245588 -3.40237 10.5458 21
118 1 -3.51938 -12.5748 -4.22473 18
119 1 -6.32164 -5.69547 -13.3426 10
120 1 6.09404 -2.90503 -7.99486 12
121 1 -15.5714 -0.852225 5.98843 9
122 1 -9.15622 -9.47269 -4.69455 16
123 1 -7.69322 -9.75329 2.45147 20
124 1 -4.78054 -10.555 4.41685 21
125 1 -11.9049 -7.97611 -7.40064 13
126 1 -10.738 0.670032 -5.96237 16
127 1 6.0119 -2.95816 11.1357 13
128 1 2.09403 -3.44593 7.71374 18
129 1 1.2876 -6.39764 9.03895 17
130 1 4.46391 5.66434 0.563527 23
131 1 -12.467 -9.98209 6.34748 13
132 1 0.0150655 9.63071 5.58302 12
133 1 -5.84557 -8.42779 -4.42427 23
134 1 -12.3011 -10.4158 -5.24736 13
135 1 -8.71395 -14.2862 -1.33814 10
136 1 8.94547 1.57549 5.08605 12
137 1 -0.413724 -7.50075 -7.7311 19
138 1 -10.768 -1.70186 12.5624 13
139 1 -3.85354 -13.3773 -0.931704 20
140 1 -0.570103 -14.477 1.48305 14
141 1 -1.3293 -15.9569 -1.54696 12
142 1 -11.0826 1.08354 -2.65821 23
143 1 4.62229 7.22346 3.53727 14
144 1 -10.584 -1.3604 -8.98237 14
145 1 -4.82141 7.9567 -11.4283 6
146 1 -1.31582 -6.14579 11.2852 20
147 1 -0.442914 7.9131 10.9302 15
148 1 6.06229 1.63613 6.77304 16
149 1 -10.4947 0.820995 7.2191 19
150 1 -6.36731 -8.28897 11.2675 17
151 1 -9.18941 6.89085 11.3136 10
152 1 -3.20979 -4.85429 -12.2803 12
153 1 4.42705 -11.0445 1.59276 20
154 1 4.86541 -7.28059 -9.25535 7
155 1 -9.99762 -1.82523 9.47335 21
156 1 8.35631 -9.35931 6.8243 20
157 1 -8.96737 7.25342 5.4913 18
158 1 -10.8386 3.21807 5.43758 21
159 1 0.180753 -12.5059 10.1066 15
160 1 -2.24818 5.07879 10.0858 18
161 1 -11.7462 -2.22227 -3.77688 20
162 1 -6.26855 9.46922 5.37376 16
163 1 -8.67109 -1.22589 -2.36484 21
164 1 -14.5357 3.67273 3.76418 14
165 1 -14.4723 -6.89284 -5.1915 11
166 1 -4.99077 6.75505 3.41055 19
167 1 5.89065 -7.69573 12.3694 11
168 1 3.17002 -6.1737 11.1683 12
169 1 -3.91976 -7.00577 12.4787 19
170 1 -3.17939 -16.0394 -4.15356 12
171 1 -8.9546 -7.13081 -8.92483 16
172 1 -14.603 -1.81555 -2.28344 14
173 1 -5.6243 -10.8842 0.966885 21
174 1 8.71731 -2.91196 -6.38819 8
175 1 -5.45201 6.04037 -9.10681 15
176 1 -12.8285 8.26004 5.92591 10
177 1 -10.89 8.47384 2.72836 15
178 1 -7.31659 2.29723 12.4044 18
179 1 5.80355 -10.8312 -4.34316 13
180 1 6.21778 -6.62325 -0.603789 19
181 1 -6.05315 3.53086 2.0944 22
182 1 -5.2987 -11.1133 -2.44953 20
183 1 -2.93266 7.463 5.17371 21
184 1 -12.2324 2.93915 -4.77825 12
185 1 7.2222 -10.121 2.7704 17
186 1 7.49561 -0.617927 7.78412 14
187 1 -7.99366 -3.853 -7.93096 17
188 1 -8.24434 -13.695 5.36183 9
189 1 -8.35856 10.0299 3.49619 13
190 1 -13.8471 6.64475 2.56937 17
191 1 -3.44336 -7.48663 -5.89573 21
192 1 5.08178 -11.1342 7.59967 16
193 1 -11.9547 -11.5053 1.46337 13
194 1 -9.54314 3.96997 -2.90464 22
195 1 -1.08456 -13.6463 6.71468 13
196 1 -5.09902 -1.85105 9.15499 22
197 1 -5.38828 4.42482 8.77865 19
198 1 -0.635009 -8.36063 -4.25455 21
199 1 -4.70359 -4.83256 11.2596 18
200 1 -14.038 -2.44986 4.15702 15
201 1 -4.66648 -7.4504 9.10849 19
202 1 -6.96357 -4.34019 16.0347 12
203 1 -0.391594 -11.2018 -2.89155 15
204 1 4.3409 -12.5035 -0.83231 11
205 1 -0.129979 9.09744 -5.29851 8
206 1 -7.88999 -9.97487 5.40814 18
207 1 6.9959 -10.61 11.5188 13
208 1 5.9104 -1.89812 2.0571 21
209 1 -1.00258 1.35365 -9.58734 20
210 1 9.54988 -6.60847 7.57152 13
211 1 -8.09094 -0.443126 13.744 19
212 1 -3.43012 10.5347 6.5715 14
213 1 4.25451 -10.0734 12.5963 9
214 1 -5.71782 -14.7071 -3.5075 13
215 1 0.479787 6.19659 13.7808 10
216 1 -6.7846 -0.240699 11.0855 19
217 1 -7.06461 -9.32186 -1.04624 20
218 1 -11.5071 -5.61783 -5.24391 20
219 1 -10.9928 5.85628 8.1442 16
220 1 -8.14203 -12.2387 -3.51234 14
221 1 -9.36817 -4.84882 7.83362 22
222 1 5.56892 -2.48564 8.49742 17
223 1 6.14092 1.26124 -0.118471 23
224 1 -2.7274 1.38907 -4.77198 18
225 1 -3.71075 4.52849 -5.8306 20
226 1 -5.46308 7.18787 14.1913 8
227 1 -14.7501 -7.03447 -1.1915 10
228 1 3.89083 7.85215 -4.33632 8
229 1 -8.18965 -6.6481 -5.68441 17
230 1 -7.28954 -2.6566 -13.0101 10
231 1 7.32829 4.40874 -3.27332 12
232 1 1.98976 7.34704 6.11315 19
233 1 -0.0102964 1.1544 -6.61096 20
234 1 0.347304 -10.7094 4.50632 23
235 1 -6.31022 2.39309 -10.4856 13
236 1 7.83757 4.5422 -0.508269 15
237 1 -0.843626 -10.786 0.794804 18
238 1 -2.64579 -2.5887 -9.4895 18
239 1 3.23599 -9.11572 3.66631 23
240 1 2.62575 -9.50361 10.067 19
241 1 -8.40852 -1.77114 -6.2997 20
242 1 -3.28471 1.48568 -11.913 14
243 1 -12.6707 -6.9063 4.76724 16
244 1 8.65138 -4.04113 -1.42302 16
245 1 -6.2655 6.2063 -2.9476 20
246 1 2.53878 -9.9118 -3.90879 19
247 1 -1.30575 4.18277 -12.1184 14
248 1 4.00558 -10.1439 -6.98326 10
249 1 -12.9431 -6.6952 7.85159 14
250 1 -5.41787 11.7583 3.70811 10
251 1 -3.21914 6.96735 -7.33893 14
252 1 2.40296 0.116938 -8.24248 21
253 1 -2.92955 -10.1131 -4.33888 20
254 1 -0.00351901 -1.48652 -8.56465 22
255 1 10.0764 -7.12055 -1.08893 11
256 1 2.99619 -9.2508 6.7848 21
257 1 -13.7372 1.4286 6.18202 15
258 1 -11.8425 -8.35222 -3.11803 17
259 1 -2.53988 -3.41325 12.546 20
260 1 4.80845 2.88526 -8.86828 10
261 1 -9.01557 4.53719 3.50767 18
262 1 -1.01677 11.4579 -2.35893 9
263 1 2.80404 -3.08897 13.319 13
264 1 1.50587 -13.8068 -0.29835 12
265 1 2.32313 -1.87791 -12.8905 12
266 1 -13.5921 -4.36295 -0.5595 17
267 1 -8.11036 1.21569 -1.254 21
268 1 -10.859 -6.70591 9.49353 17
269 1 2.46386 3.80266 0.0899451 20
270 1 -0.44515 -12.5469 -6.48137 12
271 1 -1.41785 -9.83723 15.0142 10
272 1 3.20081 -4.40182 -4.34874 19
273 1 -11.9664 3.31063 2.19512 22
274 1 8.60513 -9.71699 -2.78283 10
275 1 -4.6996 4.82563 11.9959 19
276 1 -2.56803 -1.3217 -6.09196 21
277 1 1.18018 5.49665 -10.0179 9
278 1 -3.9725 -10.4608 -10.4335 10
279 1 -8.8512 -11.6472 -0.0645821 18
280 1 8.04127 -1.54228 0.0911269 19
281 1 2.52337 -7.4867 -5.5285 19
282 1 5.96583 -9.83564 -1.06771 16
283 1 2.28142 10.6503 -0.250017 11
284 1 -12.1594 0.518549 4.03791 20
285 1 5.94882 0.846692 -3.62569 23
286 1 -2.92603 -9.3161 10.7483 21
287 1 4.02683 2.62863 13.712 11
288 1 -10.1988 -4.89662 -7.74529 18
289 1 8.61923 1.5602 -1.821 14
290 1 8.39127 -6.86062 4.52465 20
291 1 -1.73384 2.28423 11.6961 20
292 1 2.78563 2.54542 10.6894 16
293 1 -5.23288 6.55067 0.121576 18
294 1 -5.25413 -10.4301 -6.35374 19
295 1 -9.69487 4.08854 -6.25425 14
296 1 -8.60565 -4.93727 -11.1572 16
297 1 -13.6687 0.725123 -3.86466 16
298 1 5.94803 -8.52507 9.18939 21
299 1 4.10329 -6.45291 7.7826 16
300 1 6.42166 0.491778 -7.17809 15
301 1 6.46824 -4.92272 3.61708 18
302 1 1.89739 9.45825 8.60069 11
303 1 8.90494 -4.93028 1.10796 19
304 1 -4.45412 -0.905719 12.6809 19
305 1 -11.6432 -9.7691 9.83593 11
306 1 -13.3526 -2.36219 -8.7926 7
307 1 -5.4243 -7.14636 15.3714 13
308 1 -5.34237 9.38739 1.76708 20
309 1 2.13131 5.08191 11.9193 16
310 1 3.67955 1.50461 4.929 20
311 1 -12.4309 -3.72435 7.39807 18
312 1 3.33993 1.23373 -13.7263 9
313 1 -2.98404 -9.57751 -7.68958 19
314 1 4.76739 5.01009 11.0986 10
315 1 3.59363 3.96679 6.69863 18
316 1 -7.78712 -6.50687 13.6137 15
317 1 -7.99051 1.98387 15.5295 12
318 1 -12.711 -0.580077 8.5765 15
319 1 -8.10763 1.20207 -4.428 24
320 1 5.28326 8.98811 0.668616 12
321 1 -2.53004 -0.790405 10.2256 24
322 1 0.641759 9.05127 -2.65295 17
323 1 -10.4361 -11.0273 4.24589 15
324 1 2.78748 4.66107 3.37204 21
325 1 -7.59883 1.69512 5.54944 20
326 1 -7.96738 1.79829 2.29416 19
327 1 4.30864 4.90301 -4.94106 14
328 1 4.92824 -0.531048 12.5311 12
329 1 2.41219 8.15008 11.5242 10
330 1 0.610041 -4.70086 -6.46964 17
331 1 -1.39785 1.97429 8.74253 23
332 1 2.30326 -6.81727 -2.63618 18
333 1 -0.256002 7.09651 7.72098 18
334 1 -14.7996 -5.20672 2.35247 11
335 1 3.156 -13.8667 2.32795 14
336 1 0.173732 5.86992 -2.40155 20
337 1 6.45507 -6.11627 6.36572 22
338 1 -3.34475 7.42108 8.75725 21
339 1 -3.65475 -7.43145 -12.2399 11
340 1 -0.508911 -6.77132 -11.0901 12
341 1 -7.75631 6.34884 8.86956 15
342 1 -0.187978 -8.14621 12.8299 13
343 1 -10.9314 -11.2939 -2.02202 18
344 1 -7.71506 2.47434 8.90336 18
345 1 5.4614 -1.3674 5.20095 20
346 1 -3.52505 4.37938 -2.84733 20
347 1 2.18479 3.53893 -12.3135 13
348 1 7.84965 -1.51878 -3.06775 16
349 1 -0.595384 4.66516 -7.52003 19
350 1 -12.0128 -3.87156 10.1203 14
351 1 -9.76838 -4.8556 11.8685 16
352 1 -2.41685 -4.56929 -7.11738 20
353 1 -8.98081 3.96812 0.184286 21
354 1 4.97798 7.96485 6.5382 11
355 1 -7.61161 -7.05511 3.99284 22
356 1 2.95184 -2.77612 -9.74652 20
357 1 -9.7073 1.07158 10.5952 19
358 1 -13.1471 -7.43672 1.05615 17
359 1 6.09219 -4.11566 0.419344 18
360 1 -13.8463 -10.1777 -0.403271 13
361 1 10.287 -9.91546 3.69538 15
362 1 6.24539 -12.8496 3.21443 10
363 1 -2.71742 8.31857 12.6461 11
364 1 -10.3234 2.75893 13.3159 12
365 1 6.91212 0.76131 3.39995 20
366 1 8.34315 -7.88941 1.46591 17
367 1 0.838188 3.51923 5.36922 17
368 1 -3.02546 10.5076 10.0662 10
369 1 -3.62467 -15.5276 1.35588 11
370 1 -11.0256 -5.61109 -1.7954 21
371 1 -4.25509 -4.3517 14.8761 14
372 1 2.30491 8.35792 2.17403 18
373 1 0.374825 -5.07091 17.5088 5
374 1 7.2874 -5.61517 9.55958 15
375 1 0.659382 2.77889 13.0981 17
376 1 -3.16123 4.48708 0.198065 19
377 1 -7.27357 -10.1768 -9.33135 15
378 1 -5.54358 -4.57863 -10.0142 24
379 1 -9.41426 -3.75965 14.8741 13
380 1 9.22675 0.811283 1.52745 12
381 1 -0.586829 3.58545 -4.47654 19
382 1 0.855365 -10.1659 -6.02556 15
383 1 -9.12023 -13.2676 2.42698 15
384 1 -9.52344 -3.81331 -4.04325 19
385 1 2.9192 -5.18742 -11.4743 10
386 1 -3.36808 -9.70866 -0.392479 24
387 1 -4.60547 -10.3122 13.5699 12
388 1 -1.97326 -9.04657 5.68506 23
389 1 4.77728 -0.053151 -10.4809 12
390 1 -7.77019 6.96914 2.16216 23
391 1 7.77587 -6.55864 -3.42045 16
392 1 -13.7913 0.871894 -0.69328 17
393 1 8.68769 3.72063 2.75883 11
394 1 -1.74351 0.839639 14.7186 12
395 1 -14.8745 -3.08317 -5.33709 12
396 1 -5.63822 0.269482 -5.94507 22
397 1 11.9035 -6.94034 1.57679 9
398 1 -8.67311 -7.20448 -2.50274 20
399 1 -6.40984 -14.0014 1.46169 16
400 1 9.99649 -4.45723 4.89469 12
401 1 -17.1944 6.27093 1.50272 5
402 1 1.65271 3.02275 -8.90044 17
403 1 -0.578075 -8.5554 8.60308 17
404 1 -7.65614 -3.4603 9.96405 20
405 1 -6.17244 -7.6222 -10.9198 15
406 1 -6.2241 -10.1202 7.81107 17
407 1 0.913552 -5.21573 12.779 15
408 1 -4.61934 -16.4706 -0.997252 10
409 1 5.97382 -5.15256 -6.00456 16
410 1 -5.7454 6.93587 6.59671 18
411 1 -7.7639 -1.02359 7.74005 19
412 1 -3.49083 -13.9737 -6.67972 11
413 1 5.5464 3.61093 2.05352 18
414 1 8.94192 0.0449239 -5.09494 11
415 1 0.418034 -10.8921 7.86855 18
416 1 3.00224 7.71859 -1.31605 19
417 1 2.421 -2.38265 -6.47691 19
418 1 -12.1273 3.14615 -0.858745 18
419 1 2.93043 0.109474 -4.97264 19
420 1 3.75642 6.92648 9.07398 16
421 1 2.22304 3.19652 -3.38232 21
422 1 -8.49832 5.32373 13.9846 11
423 1 4.96447 -1.67525 -1.31947 23
424 1 3.49164 -11.8365 5.19798 20
425 1 6.21076 5.05305 7.70442 10
426 1 6.40955 -8.15759 -6.77048 11
427 1 -4.8857 4.29902 -11.8606 12
428 1 -2.00688 4.72486 6.92959 20
429 1 -2.77492 3.83095 3.58521 21
430 1 -4.67339 -11.445 10.201 11
431 1 11.0904 -11.1544 6.392 7
432 1 -4.73067 -1.10907 -11.0951 16
433 1 -10.5613 -7.40186 2.55952 19
434 1 -6.29524 3.55548 -1.23903 21
435 1 4.84048 -4.55279 13.3831 8
436 1 -8.33677 -8.70608 8.81971 19
437 1 10.0672 -2.68133 2.19536 10
438 1 -2.38584 6.14957 -10.472 13
439 2 -10.6178 -0.0867826 -7.65076 12
440 2 -8.07015 8.86696 -0.862178 13
441 2 -6.82169 -4.01653 -14.1994 7
442 2 -9.20478 3.68482 14.753 10
443 2 -11.4743 -4.26385 -3.66722 20
444 2 -5.95727 -3.4622 14.7294 18
445 2 -11.6971 1.41765 5.85263 18
446 2 4.32506 5.64776 2.50738 19
447 2 -3.25216 -10.8859 -6.42326 20
448 2 -12.6705 -6.99905 -4.3477 18
449 2 -8.56521 1.06141 0.729535 21
450 2 -1.47542 -9.89832 7.51124 22
451 2 -0.348015 -0.64144 14.5435 14
452 2 3.10362 -3.36021 -11.8807 12
453 2 5.13292 -6.10097 4.58968 21
454 2 -8.19135 3.60288 2.09451 20
455 2 7.45764 3.0213 5.80237 12
456 2 -12.3838 -8.18227 8.99273 12
457 2 -5.02673 -14.9745 2.35202 13
458 2 6.91548 -11.1427 7.68096 17
459 2 -13.6693 5.09531 4.64011 18
460 2 -5.63048 4.43128 -2.9292 23
461 2 -5.08604 9.42671 10.5872 11
462 2 3.92731 -7.34037 1.4325 19
463 2 -6.27716 -1.71746 -6.1807 22
464 2 -0.234337 -8.42169 -6.13936 20
465 2 5.1705 -6.1564 -7.21283 15
466 2 4.54188 7.07847 -2.54263 15
467 2 -7.68305 6.25354 6.93215 18
468 2 -11.803 -9.804 -6.92252 13
469 2 0.301923 -9.76633 13.7951 9
470 2 5.43862 -4.00174 2.15911 19
471 2 -14.2891 0.0798357 -2.38746 15
472 2 4.29472 8.47465 2.01409 12
473 2 6.59811 -11.6789 1.93761 14
474 2 -4.31894 5.63378 10.1185 17
475 2 3.18411 8.42494 7.5718 12
476 2 -0.316312 5.02204 -5.57379 20
477 2 -9.87251 -0.967203 7.84618 19
478 2 3.3635 -0.863966 -9.70983 17
479 2 -9.33759 -3.64512 -6.51623 19
480 2 -14.1707 -0.207561 7.07879 15
481 2 -8.99489 -9.92305 3.91224 18
482 2 1.07057 -9.73616 6.31963 19
483 2 -6.97002 -6.16105 15.3488 12
484 2 -4.40987 7.54475 12.5796 14
485 2 -12.4524 -1.57389 3.76068 18
486 2 3.26786 -8.06421 -3.51746 19
487 2 6.00554 -1.09888 -3.15794 22
488 2 -3.16343 -15.2356 -0.775807 14
489 2 1.09607 8.69544 10.1066 12
490 2 8.79059 -9.17475 2.74642 14
491 2 3.32698 -4.78013 7.04448 20
492 2 -5.78533 -9.81415 5.88694 20
493 2 9.14586 -1.123 1.72147 15
494 2 -4.98394 -12.8411 0.531835 20
495 2 9.81871 -4.41114 2.93035 15
496 2 -2.55041 -7.87922 -8.15493 21
497 2 -13.5751 -10.6343 1.41466 10
498 2 -5.63698 -9.65441 2.635 24
499 2 -8.63699 -8.08903 -0.61428 21
500 2 -8.35722 9.11941 5.2762 14
501 2 -0.889911 -2.63917 -10.1371 18
502 2 5.97399 4.05638 0.208321 20
503 2 1.19964 5.35144 -7.81408 12
504 2 -8.73923 1.51501 13.5282 17
505 2 -16.3551 4.74764 1.60598 7
506 2 -7.76337 1.71063 10.7239 17
507 2 -13.8585 7.948 4.39541 11
508 2 -11.2696 3.08693 -2.91045 20
509 2 7.23181 -3.79832 -6.81568 11
510 2 13.0623 -8.17746 2.25134 5
511 2 5.81295 0.338694 1.60714 22
512 2 -2.12357 10.1041 5.18769 14
513 2 -10.0659 5.21662 12.4747 10
514 2 8.09634 1.20172 -6.26698 11
515 2 0.486514 4.05059 0.396163 20
516 2 -3.97415 7.10689 -9.86365 12
517 2 -2.44563 1.23738 10.3337 23
518 2 -0.8754 -6.47828 16.6799 8
519 2 -1.14618 -1.00777 -7.36461 22
520 2 -7.76425 0.0810946 16.057 8
521 2 3.45767 -0.104342 -12.4764 12
522 2 -7.64728 -8.35926 12.6742 15
523 2 -0.943608 -10.0936 -0.955202 16
524 2 -2.6541 -8.15917 -4.3019 18
525 2 7.08571 -11.4862 4.45724 17
526 2 5.59627 3.19633 -7.22898 11
527 2 -8.35124 3.13903 -4.86514 20
528 2 -5.3433 8.34673 7.76847 18
529 2 -11.0072 -6.89923 0.704193 19
530 2 0.784248 -0.0213425 -9.71013 20
531 2 -2.65582 10.7897 -1.49404 11
532 2 -6.21084 2.58981 14.7154 15
533 2 1.8204 -7.9586 -1.15353 18
534 2 -1.79096 -3.44134 14.2216 15
535 2 8.72462 -7.94348 -2.29045 15
536 2 0.229101 7.59578 4.82717 14
537 2 -5.00848 2.53517 -12.0103 11
538 2 -2.29458 -9.09277 16.8015 6
539 2 -6.16935 -8.79707 9.46436 18
540 2 5.68406 -11.6934 10.4742 13
541 2 -1.88298 5.60968 -2.87323 17
542 2 -9.65934 -12.6351 -1.81527 12
543 2 -3.77851 -3.32045 -11.0823 16
544 2 -9.05825 -10.7022 -8.52755 11
545 2 3.40492 6.54247 11.1257 13
546 2 -10.5582 -7.50907 -2.07282 19
547 2 -13.4578 4.60573 2.21535 16
548 2 0.692385 -1.63425 10.1711 19
549 2 -4.14943 -12.692 -2.58771 17
550 2 -3.35043 -2.75089 -7.22695 23
551 2 -7.33332 -6.06184 -11.8211 13
552 2 -11.4772 -2.4182 -10.3185 11
553 2 -8.48894 -3.23001 16.4346 10
554 2 -5.1389 -8.55859 -6.55452 20
555 2 -0.13274 -10.8897 -7.35097 14
556 2 2.00842 -5.98035 -6.37047 19
557 2 -8.08121 -7.74578 5.75417 22
558 2 1.38352 -2.94772 -8.25059 19
559 2 -5.04403 -10.4436 -4.35668 17
560 2 3.02929 6.36154 -5.14565 12
561 2 0.935812 7.50479 12.3774 11
562 2 8.20544 0.39059 6.44149 14
563 2 -14.4774 -5.65273 4.08514 10
564 2 -4.72452 -12.3502 3.76658 18
565 2 -3.68211 0.285663 -5.92627 22
566 2 -4.98709 4.97554 6.80969 20
567 2 -8.49607 -7.78291 2.46525 21
568 2 -8.78883 3.36751 5.17263 18
569 2 -9.33389 -7.17205 8.05372 20
570 2 -0.75866 -12.4765 4.87444 19
571 2 -14.9504 -0.558184 4.17459 12
572 2 -12.2967 -10.5878 4.46449 12
573 2 -10.6567 -3.77095 6.6376 20
574 2 3.16669 -6.83384 9.42327 16
575 2 2.41767 8.39152 -3.09979 14
576 2 2.68449 5.77577 -0.481975 21
577 2 6.31974 -1.44685 -6.69471 17
578 2 -0.875413 10.0868 -3.68255 12
579 2 -10.7641 -1.46645 -2.3485 21
580 2 -13.8368 -2.51641 -0.797463 16
581 2 -7.5261 -13.9109 -2.67571 11
582 2 3.68435 -9.58651 8.49212 19
583 2 7.13004 -7.75203 10.7438 11
584 2 -6.17081 7.0416 -1.31849 18
585 2 6.25974 -2.15334 -0.149157 22
586 2 3.00159 -4.92752 12.7992 13
587 2 -1.13823 -4.14584 -5.34822 16
588 2 2.92521 3.28282 4.80702 18
589 2 -2.60999 4.37302 11.688 17
590 2 0.796534 -3.25235 12.7906 20
591 2 -7.93633 0.55466 3.70515 19
592 2 2.96006 3.62323 -5.11682 16
593 2 -10.2726 -8.22729 -8.78361 11
594 2 -8.83813 -5.09408 -2.653 17
595 2 -9.43248 -3.86005 10.0098 21
596 2 3.72735 9.39477 -0.235502 14
597 2 5.96025 4.13174 -4.65767 14
598 2 7.42418 -5.26795 0.00384595 23
599 2 -12.7782 -8.11727 2.84148 17
600 2 -4.8759 7.91156 5.15458 20
601 2 -5.95589 3.75851 -6.2206 20
602 2 0.0807475 2.33993 -8.20391 20
603 2 -11.5852 1.29973 2.43376 21
604 2 -12.0843 -2.22233 9.02889 16
605 2 4.15473 -10.4768 -0.36648 18
606 2 -4.52193 -16.0504 -2.66226 11
607 2 -11.3749 8.23452 4.59985 13
608 2 -2.70152 -10.4287 4.40533 18
609 2 -14.3563 2.32081 -3.78204 10
610 2 0.310765 -12.6311 0.752339 17
611 2 -1.06447 2.52798 13.7252 17
612 2 -2.78475 -0.405602 -11.8776 15
613 2 -5.41054 6.90427 -7.18174 13
614 2 1.93405 3.76461 -10.4763 16
615 2 -5.73867 10.0737 0.139278 13
616 2 -11.068 -3.32903 11.7237 13
617 2 -5.17056 -6.61684 10.8491 18
618 2 -4.64397 -9.79546 11.5454 16
619 2 -14.3113 -5.4261 -2.15451 17
620 2 -1.77103 -3.74298 10.7138 20
621 2 -5.49756 6.0572 -11.0791 10
622 2 4.81101 -3.90089 -1.34574 19
623 2 0.536529 -4.40955 8.7124 18
624 2 -4.70507 -5.96724 -12.6914 12
625 2 3.67713 3.11844 2.05439 20
626 2 2.84037 -1.17102 12.8323 18
627 2 -10.4922 -6.55026 4.64137 17
628 2 -4.52744 8.85048 -3.34658 12
629 2 -3.39787 0.446349 13.9226 16
630 2 2.58588 -9.9561 1.78483 20
631 2 -6.07808 -13.4666 5.86999 14
632 2 5.1695 -1.3714 10.4427 12
633 2 3.18939 2.03975 -8.19792 19
634 2 1.22595 6.85484 2.40561 21
635 2 1.85268 -11.9267 4.13251 18
636 2 2.96462 -13.4065 -1.82255 9
637 2 -2.79195 1.70702 -9.07589 19
638 2 -3.64844 -4.89193 12.9031 19
639 2 0.4012 0.747741 8.63791 20
640 2 2.66968 -7.44403 5.79077 19
641 2 -4.30875 -0.955062 -9.29363 20
642 2 6.72937 -9.93838 -2.86254 13
643 2 -9.39915 9.28596 2.07221 13
644 2 -0.982871 -5.14376 -8.12308 19
645 2 -6.28846 -0.568265 13.0164 20
646 2 -8.36385 3.48209 -1.57928 21
647 2 10.181 -7.43975 0.878226 13
648 2 1.74066 6.52521 8.03232 21
649 2 6.94793 4.39641 3.30984 15
650 2 8.70289 3.9873 1.04824 11
651 2 -10.6518 -1.27881 0.983697 19
652 2 -11.8608 1.20269 -0.838215 20
653 2 -8.73142 0.129763 -5.73884 20
654 2 7.24274 3.07185 -1.65432 14
655 2 -9.32954 5.97722 0.472911 18
656 2 -4.88503 -11.6334 8.41291 13
657 2 -0.261385 1.02177 11.8543 19
658 2 0.687317 -12.3274 -4.3537 13
659 2 -4.92147 -6.30699 -9.5208 19
660 2 1.3259 9.43554 1.01533 13
661 2 3.80101 7.71095 5.06018 12
662 2 -6.85517 -5.74661 -6.82347 19
663 2 -13.0705 -11.2481 -1.77382 12
664 2 6.72396 -1.46642 3.69268 19
665 2 -4.88565 4.59294 3.50932 22
666 2 4.32726 -12.6028 3.47648 18
667 2 3.87707 -8.12049 11.6756 14
668 2 -5.56187 -6.61617 7.4581 21
669 2 -7.72844 -8.11846 -4.65709 17
670 2 -3.87865 4.42147 14.0045 13
671 2 0.625166 3.89094 -2.88942 20
672 2 -12.2843 6.87404 6.90266 12
673 2 -4.87958 -8.28625 13.748 15
674 2 -4.13098 10.6856 2.87743 13
675 2 -2.59218 -14.1979 1.78358 18
676 2 -2.48603 -7.75437 9.02369 22
677 2 5.1943 -2.79346 12.9819 10
678 2 -11.0915 4.32581 3.57407 19
679 2 -5.37686 4.46194 0.486131 21
680 2 -2.70145 -1.4711 12.1933 22
681 2 -6.74245 -10.8678 -7.43208 16
682 2 9.64638 -5.49267 -1.37924 13
683 2 5.12918 -4.25991 -4.61928 21
684 2 -5.99153 7.36254 1.96233 20
685 2 -9.2177 -1.91882 13.9688 15
686 2 -9.21753 0.871471 -2.76297 20
687 2 6.79014 -7.05534 -4.97713 15
688 2 0.547081 4.39343 3.67871 19
689 2 -5.34077 2.84086 12.1113 21
690 2 -4.83891 -0.567697 10.7149 19
691 2 -3.04283 4.81669 -11.7537 14
692 2 -13.7898 -2.64054 -3.86219 16
693 2 -13.4828 -6.97599 -6.811 12
694 2 -3.33047 3.20477 -4.72671 19
695 2 -11.9547 -4.58895 -7.25407 18
696 2 3.94005 -11.4302 -3.91269 16
697 2 -2.77279 -10.6455 1.35063 19
698 2 -0.267732 -12.3641 11.9193 11
699 2 8.79648 -4.95855 8.38818 13
700 2 2.64401 -9.27017 -6.04691 17
701 2 2.07349 -13.3291 9.4467 12
702 2 8.5645 1.71215 3.12496 15
703 2 -11.6923 4.52998 9.51746 12
704 2 -13.7083 -8.37826 -0.667128 13
705 2 8.62731 0.557476 -3.33936 10
706 2 4.01667 -12.7171 7.40435 12
707 2 -9.05578 6.68175 3.54952 19
708 2 3.33053 -2.0538 -4.68843 18
709 2 2.85048 0.874694 6.77048 23
710 2 -14.5069 1.99894 4.41095 16
711 2 -1.63743 7.98801 -6.25169 10
712 2 0.661878 -1.26223 -12.3694 15
713 2 -7.60018 -1.44512 9.51979 21
714 2 -9.98233 -0.610351 11.4784 18
715 2 6.35225 -3.87592 9.63865 14
716 2 1.5647 1.59095 -12.5184 15
717 2 -9.92017 -6.3789 -6.45161 18
718 2 5.0176 -8.93969 -8.13025 9
719 2 -2.14013 6.55722 3.57016 19
720 2 -0.127016 -8.25407 -9.57102 13
721 2 -16.0968 7.37207 2.51681 7
722 2 -15.0453 -3.04213 5.79513 10
723 2 3.96831 -12.7728 1.02549 15
724 2 -4.92004 -13.7358 -7.86371 8
725 2 -4.02379 -14.3336 -4.76531 13
726 2 7.66538 -3.50323 -2.85624 20
727 2 -5.44922 3.77124 -9.24471 17
728 2 1.77073 4.01033 10.0193 19
729 2 -8.86403 -11.4839 -5.16793 14
730 2 2.8842 0.505523 10.5225 20
731 2 -6.62582 5.7625 14.386 11
732 2 -9.36423 5.98796 -2.89868 14
733 2 -2.38212 -10.4303 -9.52501 11
734 2 -8.24707 -10.2895 7.73055 15
735 2 -11.9444 7.17195 1.81135 14
736 2 5.92049 7.2582 -0.186358 14
737 2 -5.78111 0.727233 -7.6805 17
738 2 2.3152 0.658928 -3.16972 21
739 2 -7.30929 -7.80455 -9.61787 16
740 2 -2.04846 -11.5029 -3.70678 20
741 2 -14.2228 -2.87184 -7.12971 7
742 2 2.25726 1.71683 13.48 15
743 2 -8.87261 -5.0259 -9.36682 18
744 2 -11.9771 -8.14775 5.98735 17
745 2 5.79749 0.0811499 8.06473 14
746 2 5.30669 1.16812 13.6426 6
747 2 3.80061 3.04593 -13.0571 6
748 2 -7.03589 6.89867 -4.48429 15
749 2 -1.95162 8.92655 1.41968 16
750 2 9.42578 -2.80719 5.32845 13
751 2 -8.22011 -2.42911 -3.97642 18
752 2 -3.63757 6.28732 -5.41758 18
753 2 -6.39988 -3.8819 11.8319 19
754 2 -7.19348 -10.7612 -2.3999 21
755 2 0.696091 -3.41738 16.753 7
756 2 -1.83914 6.7007 6.70953 20
757 2 9.5744 -10.409 5.50428 15
758 2 5.66227 -9.45481 -5.5541 14
759 2 -7.29652 7.08992 10.5936 14
760 2 0.679985 -10.0558 9.58581 20
761 2 -3.40682 6.49619 0.327833 17
762 2 -2.19441 9.24995 11.2252 12
763 2 -6.20879 1.41068 -4.28951 22
764 2 0.45125 10.6216 -1.2504 12
765 2 -13.3638 -11.7488 -4.47718 7
766 2 -2.2005 -6.33172 -11.4616 13
767 2 -8.16581 1.30408 7.49803 21
768 2 7.30142 -6.52751 2.48889 20
769 2 -8.64689 5.7769 -6.10633 12
770 2 -13.6528 3.45693 7.15505 14
771 2 -10.6833 -9.74556 -3.61408 18
772 2 1.2696 4.59413 13.5218 13
773 2 -5.74818 -10.967 -9.85271 12
774 2 -7.91272 1.93078 -9.04545 11
775 2 -0.778744 1.68132 -4.22595 19
776 2 0.0125917 3.6084 -13.5435 9
777 2 -10.6322 4.63996 6.53553 19
778 2 -9.6664 6.77482 9.2129 13
779 2 -0.206938 7.5895 -4.02794 16
780 2 -10.4428 -12.0392 2.35914 14
781 2 5.80917 1.00454 -9.01549 11
782 2 3.69564 -5.78979 -9.80612 12
783 2 -9.19846 -11.9029 5.77541 13
784 2 -11.1114 4.03339 0.396216 20
785 2 -11.7208 -10.5717 7.95722 12
786 2 -2.62172 5.00372 -7.68867 19
787 2 -0.938352 -12.881 8.44846 14
788 2 3.81382 3.80718 12.0576 12
789 2 6.04972 -6.68846 8.21047 17
790 2 -10.0424 -6.77386 11.3282 16
791 2 -0.725448 5.48467 -10.6566 14
792 2 -1.42249 6.40005 13.4186 14
793 2 -10.4629 -10.7047 0.0502258 18
794 2 -9.86309 -9.05523 10.1093 13
795 2 -7.35234 4.34691 8.94406 14
796 2 -11.1255 2.76244 -6.17796 13
797 2 -14.3057 -5.02023 -5.20774 12
798 2 -5.09714 11.271 5.6228 12
799 2 6.04383 -9.50361 12.4957 11
800 2 5.08745 5.45498 9.27954 14
801 2 -8.12706 -13.5956 0.538283 13
802 2 -14.4907 -3.06622 2.23199 14
803 2 -14.439 0.0245841 0.984437 16
804 2 -4.53598 -3.67696 9.30379 22
805 2 -0.815057 -6.09685 13.2731 16
806 2 1.11347 -14.1842 2.61272 12
807 2 5.52664 0.75052 4.86302 23
808 2 6.61175 -8.51828 0.379185 19
809 2 -2.50364 4.0397 5.28537 20
810 2 -3.83362 -5.81491 -5.96651 20
811 2 -13.131 -5.46262 6.4129 14
812 2 0.538324 -6.25073 10.8819 18
813 2 -8.79139 -4.66274 13.4774 16
814 2 -2.18803 -7.66989 11.5828 17
815 2 1.68605 -0.364925 -6.53597 19
816 2 5.11712 3.11968 7.42151 15
817 2 1.21829 -5.36455 -10.8594 12
818 2 8.44636 -7.99536 8.22578 16
819 2 4.57984 0.761774 -5.19789 21
820 2 6.16251 -6.93291 -2.5267 20
821 2 0.772039 9.39491 7.1553 10
822 2 6.97472 -2.20053 6.51942 18
823 2 -3.05044 -12.8562 6.65094 13
824 2 -2.56534 -10.8378 13.9484 12
825 2 -7.50652 -4.81967 8.05435 17
826 2 0.2283 -15.2632 -0.312473 9
827 2 9.93567 -11.9776 7.83708 7
828 2 9.66498 -6.06879 5.83051 12
829 2 -2.73958 -11.2364 10.6549 15
830 2 7.455 -4.98307 5.15518 19
831 2 -11.8495 1.18143 8.663 16
832 2 -5.15495 2.51733 8.62455 17
833 2 4.10612 -3.36968 -8.33258 18
834 2 -4.36775 -8.74436 -11.3256 14
835 2 -1.47556 -14.0995 -6.35485 12
836 2 -1.3705 1.99196 -11.7873 18
837 2 -6.41475 -1.54162 -11.7864 12
838 2 -1.19581 6.76383 9.53384 16
839 2 -11.5133 -4.15613 -0.592618 22
840 2 8.16964 0.738408 -0.130218 16
841 2 -9.77187 -2.29926 4.31826 17
842 2 5.22012 -9.52799 3.30136 22
843 2 -0.0271014 7.42098 -0.872173 19
844 2 8.58418 -1.90277 -4.83474 12
845 2 3.32118 2.87484 -1.65982 20
846 2 3.06213 -11.0485 11.8093 14
847 2 -14.2876 -5.76165 0.536317 13
848 2 6.01586 -5.84294 12.6641 11
849 2 8.48205 -10.1378 10.1857 11
850 2 4.3354 -10.2875 5.94821 16
851 2 5.7152 6.2913 6.13438 14
852 2 -10.5203 -4.39293 2.66362 16
853 2 -14.0322 2.86199 -0.804182 15
854 2 9.04592 -3.23508 0.402238 12
855 2 12.2302 -10.1832 4.9095 5
856 2 -5.05977 -9.61323 -1.17739 20
857 2 1.47269 3.92197 7.04061 19
858 2 7.45974 -8.44371 5.49171 22
859 2 -1.13751 3.95955 8.93806 18
860 2 -7.62005 -13.7902 3.31703 12
861 2 1.05476 -13.7946 6.71425 12
862 2 -10.5062 2.62044 11.4828 13
863 2 -9.03027 -3.19119 -11.8989 13
864 2 -12.013 0.733321 -4.70539 16
865 2 -11.8064 -5.22974 8.59257 17
866 2 -3.35958 -5.91428 15.7214 14
867 2 -8.49751 -1.22355 -8.72881 17