ITEM: TIMESTEP
10000
ITEM: NUMBER OF ATOMS
2000
ITEM: BOX BOUNDS pp pp pp
-30.0 30.0
-30.0 30.0
-30.0 30.0
ITEM: ATOMS id type x y z Coordination
1 1 -9.54839 5.34793 -16.6825 12
2 1 -1.98043 -8.96102 -8.88538 17
3 1 -0.0199002 12.6868 12.704 9
4 1 6.50424 -7.63063 8.91158 14
5 1 -11.9007 9.10848 -0.126406 16
6 1 9.30392 -8.80509 -13.7244 14
7 1 -14.4876 2.34153 -4.60136 20
8 1 -1.27172 -5.28253 15.5146 9
9 1 -6.96268 0.24024 -11.5718 17
10 1 -11.2143 -10.8214 7.16936 15
11 1 12.482 1.23046 -10.5143 13
12 1 -4.58313 4.24356 -5.84777 20
13 1 -8.2086 -11.6414 2.38596 19
14 1 -12.0814 -3.1754 1.24813 24
15 1 -0.0360104 5.16924 12.4916 18
16 1 5.59108 -3.38489 3.42253 14
17 1 -2.26004 3.88578 9.93798 18
18 1 10.3331 -4.29876 0.210434 20
19 1 -2.31556 10.0186 -15.0464 14
20 1 0.836737 -0.104265 9.3047 18
21 1 -10.9291 -0.165801 -16.1433 13
22 1 -13.1851 -3.63175 12.2342 11
23 1 9.15482 -0.578296 5.9902 20
24 1 1.8344 9.39087 -10.4681 19
25 1 -0.458575 4.29115 -14.7634 21
26 1 5.66809 -0.1986 9.70527 18
27 1 -11.412 -0.410646 2.83929 18
28 1 -11.7249 6.03031 -11.0107 12
29 1 -4.93313 -1.21282 -9.22728 14
30 1 -12.0864 9.9112 7.79506 16
31 1 4.19754 -15.0531 4.25394 13
32 1 -2.46873 -0.662113 5.54374 20
33 1 3.68234 -13.3708 -11.9662 17
34 1 6.16065 -6.99472 -6.06962 19
35 1 -9.32034 -8.77271 -0.0703068 17
36 1 -8.84349 -8.66467 7.8784 16
37 1 3.92064 -1.0117 -7.48714 20
38 1 4.59839 -4.44923 -13.2512 21
39 1 8.48746 -13.4817 -15.5733 11
40 1 -4.61527 -0.243725 -17.3569 14
41 1 -3.3066 6.08801 12.4304 22
42 1 3.52677 -12.9674 9.4939 13
43 1 2.17624 -6.45036 14.4195 15
44 1 -16.1398 1.55637 0.524429 19
45 1 -15.0117 -5.16084 8.01922 18
46 1 -8.40011 2.15431 -2.52088 21
47 1 -2.71513 12.294 -4.45036 19
48 1 -2.71057 -13.8993 -13.5874 10
49 1 2.49887 -4.86831 -11.5412 24
50 1 5.11627 -5.89526 -15.8501 20
51 1 0.548298 -4.02745 13.1056 18
52 1 -14.2063 5.38818 -3.6884 22
53 1 3.51369 11.2979 -13.6431 10
54 1 1.23027 15.5222 4.84139 13
55 1 -11.1472 11.5548 -11.2141 10
56 1 -6.67722 17.2775 -3.57129 12
57 1 -1.00537 -8.77492 -3.3806 21
58 1 5.96918 -7.70964 -9.49694 21
59 1 7.30836 -7.74999 -15.6445 14
60 1 -13.0829 10.3721 12.9711 8
61 1 -19.4087 -2.16873 -7.55152 9
62 1 3.22588 -1.56999 2.30704 21
63 1 -9.34408 5.71108 -6.41944 19
64 1 -11.6831 -5.46724 3.60181 21
65 1 -5.70233 15.6112 9.38914 11
66 1 -13.5421 4.3376 -8.57127 16
67 1 -7.16483 12.4879 14.6226 12
68 1 -0.793289 5.97353 -10.0392 17
69 1 0.8275 3.71961 4.37723 22
70 1 -4.85511 -12.5476 2.59542 18
71 1 -0.430838 6.05842 6.82917 22
72 1 4.06803 -13.9648 -4.08951 20
73 1 3.44105 11.9163 11.0429 15
74 1 -16.166 2.13836 -8.44623 13
75 1 -14.3763 7.31211 -7.61786 10
76 1 -0.9627 8.64481 8.32764 18
77 1 11.933 -4.13661 -8.64319 13
78 1 7.94028 -9.8716 3.71245 13
79 1 -17.1247 -2.85782 8.33639 12
80 1 -13.7209 -3.15514 4.5481 23
81 1 4.58286 15.5077 4.00983 18
82 1 4.62092 -4.04734 16.2232 11
83 1 -8.51698 -12.7644 5.57395 17
84 1 -10.9302 1.4632 -0.67038 18
85 1 8.49774 1.54228 7.5319 19
86 1 7.74918 -1.14008 -0.853981 19
87 1 -3.77648 15.8494 7.73782 12
88 1 3.32571 -1.97842 5.38295 20
89 1 -8.56534 -6.57738 2.1917 20
90 1 -8.10557 -8.71005 -8.88946 19
91 1 -14.9016 9.08662 7.11218 11
92 1 -9.11676 16.2662 -5.30231 11
93 1 -3.73922 7.28774 -11.0153 18
94 1 7.22728 0.957845 -3.72527 19
95 1 2.79988 1.92149 -5.88827 21
96 1 6.42019 12.8786 -6.61385 17
97 1 4.99982 -6.13858 -3.1036 20
98 1 6.96469 -5.74041 11.3172 12
99 1 -6.31785 15.8257 -6.82377 12
100 1 -7.88555 13.8548 5.72007 17
101 1 -6.26017 -2.7994 13.8686 11
102 1 -5.57822 8.87622 4.87253 18
103 1 -4.0639 -8.23161 6.47604 21
104 1 13.7355 -8.33521 -6.75661 10
105 1 -13.2756 4.09363 4.46255 19
106 1 -11.044 -12.029 3.51322 17
107 1 11.1371 -10.6873 -6.81774 12
108 1 3.08585 -1.82888 -12.4974 19
109 1 -9.18851 -2.69866 -15.0333 18
110 1 0.499895 0.823417 6.06057 20
111 1 -0.0272114 10.098 0.222182 19
112 1 -6.88954 9.12062 -13.1106 18
113 1 -4.19608 4.68672 18.1022 8
114 1 -1.81793 11.903 -7.52911 22
115 1 -15.0894 8.06794 1.18072 15
116 1 -1.5667 7.97843 2.95482 20
117 1 -1.16962 -6.84379 11.7493 20
118 1 10.4389 1.10974 9.21235 17
119 1 -0.338398 -3.75969 -8.24481 22
120 1 5.54433 -7.07813 -12.6284 21
121 1 -6.43104 5.78283 9.39895 17
122 1 8.72502 0.912863 17.4141 5
123 1 -14.094 -5.48985 -4.82118 19
124 1 2.39477 -4.58127 0.810084 19
125 1 -7.6808 -8.34109 -5.75456 17
126 1 7.81175 -11.3056 -0.682679 14
127 1 -5.13331 11.3325 0.0376688 23
128 1 0.618683 1.35961 -14.2702 21
129 1 6.48463 16.9169 -1.25029 15
130 1 -2.72501 -13.4781 11.8517 8
131 1 -5.98777 -14.9075 5.67577 11
132 1 -7.75588 4.50298 -4.38902 19
133 1 3.88102 -10.2925 -17.2505 12
134 1 4.30478 8.39709 -8.96092 24
135 1 9.79515 -9.08094 -1.98496 15
136 1 -1.51906 -15.7916 3.78116 13
137 1 -9.0117 -8.80048 -3.48124 19
138 1 13.0662 3.83252 7.9986 13
139 1 14.8868 -2.10869 -6.33536 13
140 1 -16.4366 -1.74491 5.25951 18
141 1 8.71797 8.21206 2.90241 18
142 1 13.6286 8.43938 5.62189 12
143 1 -6.15055 0.824371 15.3681 13
144 1 3.62961 5.8942 -3.47751 22
145 1 -6.63371 10.3505 10.035 18
146 1 -5.14791 14.065 -11.2414 12
147 1 -0.186255 -6.92902 -12.4478 21
148 1 10.9183 -11.1884 -13.5038 11
149 1 0.438027 13.7078 -9.06604 18
150 1 2.63064 -1.64594 14.4003 19
151 1 0.0172797 -2.34351 -20.2242 8
152 1 -6.41796 7.32414 -7.76673 19
153 1 11.402 4.3273 -4.04877 16
154 1 -12.6158 10.6597 -8.04183 12
155 1 -7.41517 11.2854 -2.65264 19
156 1 4.48848 2.61361 -12.0447 17
157 1 6.07521 -9.18961 -0.247533 19
158 1 -10.9676 3.20375 -8.75407 18
159 1 -9.67129 13.0079 13.4964 10
160 1 14.3192 7.03086 -8.6399 12
161 1 6.66596 12.8317 -3.72398 18
162 1 -4.04192 18.5023 -1.60339 10
163 1 14.2767 7.49226 1.94518 18
164 1 -5.08844 12.4806 -5.62978 21
165 1 -1.36612 18.4038 -4.24726 11
166 1 2.14897 8.97389 -15.7888 11
167 1 -13.9154 -10.8618 5.49582 11
168 1 -16.242 6.76772 -1.28159 15
169 1 -6.14344 2.61516 -17.2202 16
170 1 -0.437932 -12.0724 -15.0654 15
171 1 4.00919 14.6655 9.50395 12
172 1 -0.401649 16.8457 2.34518 14
173 1 -16.0951 -3.47176 -3.56353 21
174 1 -10.5102 13.7394 4.15235 14
175 1 13.9047 -0.801496 -2.90592 15
176 1 -12.597 -0.386255 -12.8924 15
177 1 5.06045 1.24595 17.7538 11
178 1 5.87852 15.6854 1.23734 17
179 1 -4.62368 9.161 7.99832 21
180 1 -1.59825 -9.15244 -14.6918 14
181 1 -6.54506 16.3784 6.56579 9
182 1 -3.99099 9.89563 -8.40597 21
183 1 2.08798 -5.57178 11.1466 18
184 1 -15.2941 -3.82497 2.47975 18
185 1 -9.83854 -10.8745 -13.9979 9
186 1 -8.39954 13.7279 -12.5063 10
187 1 -1.31 -11.9635 1.5672 19
188 1 1.63163 -14.8886 -5.67247 17
189 1 -8.24418 10.5297 -10.5964 18
190 1 -15.5702 0.383869 8.7766 14
191 1 0.343364 7.43802 -4.60536 21
192 1 7.67852 9.65493 -4.60276 16
193 1 -14.5193 7.01717 12.8523 10
194 1 -0.0513293 -8.71181 14.0638 13
195 1 -7.5943 2.32596 0.734798 20
196 1 3.37888 15.017 -0.632873 21
197 1 0.612545 10.5686 10.2666 20
198 1 8.01088 7.38442 6.67444 17
199 1 -4.43338 13.8495 1.56847 18
200 1 12.5873 -6.86992 -9.83533 12
201 1 -7.4331 13.3386 8.60154 15
202 1 -5.48574 2.57537 -10.9266 18
203 1 7.52618 -6.43986 -0.984639 18
204 1 -5.39821 -4.86721 2.178 22
205 1 -14.1642 -1.81655 7.79657 20
206 1 -10.4115 -4.4118 -1.81912 18
207 1 3.14392 4.8758 9.1054 20
208 1 -17.3485 1.46773 -2.30774 19
209 1 -8.83601 -11.8501 -4.02768 13
210 1 -7.72498 -0.584661 -3.64818 19
211 1 5.60545 -4.4064 -7.90767 19
212 1 -2.06251 12.3935 0.573898 18
213 1 -7.57133 -1.18451 2.21542 20
214 1 1.52575 12.5917 8.90481 16
215 1 -15.1922 -0.474447 -7.25776 19
216 1 -6.48379 11.6754 -8.34659 18
217 1 -16.227 -3.70853 -6.27488 16
218 1 -11.5739 -1.33681 10.8086 17
219 1 -4.29928 -10.342 1.06659 26
220 1 3.47347 -11.8917 4.32677 16
221 1 -11.8442 7.01452 5.60813 18
222 1 11.0885 0.515253 4.00811 20
223 1 3.73063 5.84943 -6.63062 20
224 1 -9.57737 -4.99854 -13.0595 19
225 1 0.773318 3.02265 10.7833 19
226 1 6.43595 -13.0253 4.1692 13
227 1 -3.27798 5.06221 -12.8062 24
228 1 3.85 -15.6016 -14.0441 10
229 1 6.89129 3.30445 -14.6904 14
230 1 3.90066 8.18085 -12.2433 18
231 1 -9.16752 -2.80822 -8.50335 19
232 1 -1.83457 14.8913 -6.7735 16
233 1 -8.87666 -12.3741 8.83987 11
234 1 6.73416 15.6145 -4.48558 14
235 1 -10.7513 4.72912 15.2311 10
236 1 -8.88869 11.4683 -4.86167 19
237 1 5.24949 -2.55992 7.4212 15
238 1 -7.31545 -8.97272 -14.838 13
239 1 -8.71114 11.6955 -16.0901 9
240 1 -0.549025 2.56215 -19.8977 10
241 1 -2.65502 -11.1792 5.04076 16
242 1 -9.40755 6.00489 7.12063 19
243 1 -9.86098 10.0555 9.03948 18
244 1 6.43717 -12.315 -9.99438 21
245 1 -6.71587 -11.5021 -0.0686601 20
246 1 10.8201 -13.0695 -4.89144 9
247 1 -3.83674 -9.92238 -1.87508 21
248 1 8.0816 10.2599 13.1597 8
249 1 3.73166 11.8328 -9.19003 21
250 1 -1.85592 8.89601 -2.40225 20
251 1 -10.9364 3.24173 1.98713 20
252 1 -13.4302 6.34154 -0.528586 15
253 1 -2.90674 9.37741 10.7193 21
254 1 2.35171 -14.6641 -1.87659 19
255 1 13.296 5.42549 -1.98203 17
256 1 0.0813041 8.90748 5.51549 21
257 1 -10.3023 4.52752 4.59063 23
258 1 -12.0463 -6.16009 -7.70625 18
259 1 4.59458 6.45481 -14.8736 16
260 1 -0.11727 -2.25212 7.2097 21
261 1 6.07513 10.6817 -11.7621 16
262 1 3.34419 -7.77993 -7.93252 21
263 1 -4.52469 0.0298758 -13.348 17
264 1 4.03149 -15.7477 0.385305 13
265 1 10.2619 -0.405289 -8.65246 17
266 1 -11.8716 -3.99605 9.2131 17
267 1 7.63649 -13.9747 -4.81604 18
268 1 -11.0956 -3.80669 -5.0891 21
269 1 4.18519 11.8073 -1.50648 19
270 1 2.70116 -6.79226 -14.656 23
271 1 6.76559 6.93339 15.0059 8
272 1 13.5071 1.05007 2.4728 15
273 1 -7.99903 -5.85483 -3.78343 22
274 1 10.7313 -8.01054 -7.99092 18
275 1 -2.04526 -6.1672 -1.64594 22
276 1 -6.95815 -2.57766 -13.5955 19
277 1 -12.592 -2.24712 -7.60322 17
278 1 -4.11506 -9.96805 8.45118 20
279 1 4.25845 -4.44144 13.0809 17
280 1 2.28266 -10.0202 13.405 11
281 1 -7.00026 -6.22308 -13.01 16
282 1 0.468615 -7.66722 2.7338 18
283 1 -3.14968 5.6893 -16.0873 23
284 1 3.44588 6.88776 -0.637776 20
285 1 -8.54663 -3.75355 0.754815 23
286 1 4.04064 10.2567 0.87889 19
287 1 -3.1358 -6.77476 14.1253 12
288 1 -11.3918 -8.26112 -10.0808 16
289 1 -9.35003 -6.37429 -9.75459 17
290 1 -5.28533 7.09043 -17.6367 17
291 1 -10.9002 -6.91686 -4.60823 21
292 1 -6.51312 -8.6323 -1.44991 19
293 1 10.7944 -1.86258 -10.9464 16
294 1 15.1259 0.859775 -8.70193 12
295 1 7.60904 3.28894 0.107917 19
296 1 -5.02206 -4.64671 -4.21778 22
297 1 -8.26009 -2.64214 11.4535 17
298 1 -3.63541 -12.8541 -0.737289 20
299 1 5.99377 2.68314 9.4758 18
300 1 -7.95586 -16.3335 1.18313 9
301 1 -1.14457 -11.2884 -1.39892 17
302 1 1.38523 18.8452 -4.22402 12
303 1 8.36052 -4.59611 -16.3446 8
304 1 -6.8631 -5.68103 -15.852 14
305 1 8.06434 -5.05174 -5.1638 21
306 1 -11.7593 -8.23477 5.24689 17
307 1 0.263636 3.44629 14.8205 17
308 1 2.83532 -12.1317 -6.59962 21
309 1 -12.224 -11.1327 -11.8423 10
310 1 -9.93608 8.50864 -12.0655 14
311 1 5.68198 3.71673 4.11216 19
312 1 -6.88788 2.62212 -13.5708 18
313 1 -1.82813 7.20967 -13.7748 18
314 1 -6.71302 -3.6566 8.36325 16
315 1 8.59333 -13.2485 -12.6941 17
316 1 -8.14338 13.2826 -0.797672 17
317 1 4.54178 11.584 4.66885 19
318 1 8.45051 0.671335 1.37749 21
319 1 -13.6531 0.156019 5.64095 20
320 1 -3.5193 -4.279 10.0159 19
321 1 -6.34537 11.7839 3.59591 18
322 1 4.4621 -9.00921 -14.7824 20
323 1 14.965 7.52184 -1.36888 15
324 1 0.892342 -6.86302 -3.24411 24
325 1 -0.332215 -0.653265 12.4902 18
326 1 -16.6453 -5.24793 5.53708 12
327 1 -1.32214 -15.019 -4.28065 14
328 1 -11.0308 7.83449 12.9019 19
329 1 -13.1124 9.10649 10.2769 16
330 1 -14.2735 -8.12213 10.2247 8
331 1 -11.8108 -7.58554 8.7252 17
332 1 15.7471 -3.26808 -3.91802 12
333 1 -8.87056 -9.16787 4.7556 17
334 1 6.87036 -1.95591 -11.7805 16
335 1 8.93374 -14.1733 -7.7286 11
336 1 4.29141 17.2104 -3.55999 17
337 1 -2.27549 -6.60137 4.78057 18
338 1 -11.4403 13.0288 -5.41425 14
339 1 -3.43232 1.20845 7.74197 19
340 1 3.65276 3.6194 12.0906 19
341 1 -13.7258 1.42588 3.26342 19
342 1 8.35933 -10.8845 -4.34123 19
343 1 -4.39864 10.3804 -2.8708 21
344 1 -5.82275 9.25847 1.67601 16
345 1 5.58983 -13.2993 6.94386 10
346 1 10.7597 -5.7235 3.16325 15
347 1 -5.63309 6.51369 6.18328 23
348 1 -10.069 -0.659679 -5.92867 18
349 1 -3.18055 -0.127428 14.4799 13
350 1 -1.21938 17.7351 -0.966972 15
351 1 3.11183 6.62496 11.4854 17
352 1 -8.34607 13.5956 -7.18287 16
353 1 -0.85398 -5.32538 -18.3326 12
354 1 -9.32236 2.79989 -6.35822 20
355 1 6.99236 -10.696 -16.4848 11
356 1 -12.1348 2.711 10.8219 17
357 1 -19.4607 3.46649 2.54537 10
358 1 -3.60447 -3.58261 -9.43135 22
359 1 -9.38116 10.8739 5.67432 17
360 1 2.59019 -3.2025 8.87579 19
361 1 -11.4192 -6.40439 0.512901 19
362 1 7.17888 -10.179 6.45184 11
363 1 -0.643704 -11.9214 14.0014 9
364 1 -14.4564 4.70063 1.51761 19
365 1 -2.24899 -4.28876 6.9798 18
366 1 3.48007 -13.7288 -8.67183 18
367 1 -7.06731 -4.11717 -11.0903 21
368 1 6.22994 1.04142 -16.9957 8
369 1 8.05812 10.8418 6.56398 22
370 1 -13.8725 0.519872 -1.90532 22
371 1 3.06406 -12.225 -15.0431 17
372 1 8.35087 6.09437 -14.3571 11
373 1 -5.52567 -13.3117 -8.23271 9
374 1 -18.6016 -0.945551 -4.72998 14
375 1 -4.82605 -7.13456 -2.90939 22
376 1 9.5932 3.97258 12.6911 9
377 1 14.9354 5.56902 3.99916 15
378 1 -8.98794 3.19016 -11.6683 19
379 1 3.795 19.1084 -1.54114 9
380 1 -16.9745 1.85781 -5.64572 18
381 1 -8.65134 7.56235 4.48015 20
382 1 -10.5086 14.2177 0.515144 13
383 1 -4.29623 6.93675 2.89538 19
384 1 10.5791 0.996044 12.5408 11
385 1 12.4073 -3.06129 -4.73132 21
386 1 3.16045 -1.15921 17.2636 11
387 1 13.7552 0.533161 -5.79423 18
388 1 -5.7909 -13.3893 -2.85448 17
389 1 -7.28166 8.56206 -1.61996 18
390 1 1.60963 -9.48795 -9.26444 21
391 1 -2.66364 10.9288 2.83784 21
392 1 -11.2212 1.43218 -3.77634 19
393 1 -0.96779 -11.3558 -6.03696 20
394 1 8.77742 -3.70958 5.39053 21
395 1 -13.0486 -1.58565 -4.77608 19
396 1 -6.10508 -10.762 4.39141 21
397 1 -4.42185 -7.24067 11.2454 15
398 1 -8.68133 10.6481 0.603637 19
399 1 -13.0309 -7.5671 -2.29641 11
400 1 2.3496 8.3562 14.7574 14
401 1 -8.68979 7.85784 0.753826 16
402 1 0.707705 17.1089 -6.0829 12
403 1 9.41424 13.4388 6.59885 14
404 1 -14.9891 -5.64 -1.25221 16
405 1 -5.33857 -7.02001 -9.35875 20
406 1 -11.2836 -1.7628 6.48896 20
407 1 -11.6097 9.95251 -4.94003 15
408 1 4.18039 -9.0623 4.23004 19
409 1 -5.56577 -10.7571 -9.29025 18
410 1 12.3745 6.07741 6.18646 16
411 1 6.65055 7.1505 -11.1527 20
412 1 -12.2706 2.87854 -11.6764 14
413 1 -1.83006 14.0752 -10.0064 13
414 1 -6.31895 9.66232 -5.08486 19
415 1 0.63588 -14.8453 0.775042 16
416 1 8.76611 5.2178 4.67046 15
417 1 1.24993 7.06824 -13.4097 21
418 1 -6.25388 -0.176422 8.92089 22
419 1 -18.1293 1.18745 3.36595 14
420 1 -7.87744 3.25015 5.98323 20
421 1 -2.42562 -8.95974 2.91002 22
422 1 -0.0502073 -6.68436 -9.67587 21
423 1 5.87099 -12.9102 -13.7184 21
424 1 -2.33268 -3.48816 4.02418 21
425 1 -15.6615 2.66483 6.07194 15
426 1 -15.5036 -1.84387 10.555 14
427 1 -14.2561 10.2165 2.60176 13
428 1 1.54072 -4.54691 5.95855 16
429 1 -7.08196 4.79743 -18.7094 13
430 1 7.67849 -9.60286 -8.26311 20
431 1 -1.2826 -10.5183 -11.5932 19
432 1 -4.9495 -2.03185 7.0152 21
433 1 2.41053 -4.92358 -8.82765 19
434 1 -9.5603 2.77931 -17.6713 10
435 1 6.95193 -8.4056 -3.56462 19
436 1 0.773955 13.8689 -5.41253 22
437 1 -13.5281 11.9349 5.23879 10
438 1 -6.46956 0.505365 12.2909 23
439 1 -11.5498 -4.10402 -10.1759 15
440 1 -8.18835 -7.27515 12.2791 8
441 1 7.45998 -5.85201 7.76012 17
442 1 4.26649 3.99919 -0.443721 20
443 1 -7.2734 5.38915 -1.69993 19
444 1 4.36915 2.84124 -8.24493 20
445 1 11.3218 -5.14465 6.28511 12
446 1 14.6496 6.08362 -4.91418 15
447 1 -7.69491 2.9141 13.5528 19
448 1 1.83013 9.14256 -2.109 23
449 1 3.45174 -8.07015 -0.833225 19
450 1 -1.42142 -14.7154 -7.37446 14
451 1 -4.56247 6.75192 14.793 18
452 1 -2.85731 16.4808 4.80221 11
453 1 -13.2906 -8.4567 -6.80345 14
454 1 11.079 12.3341 -2.30199 15
455 1 -2.88986 10.4228 5.83193 15
456 1 -10.6882 2.9549 8.11631 18
457 1 -5.08843 -6.99564 -5.96345 19
458 1 -14.5819 3.50606 9.16041 18
459 1 -8.89886 -5.71204 -6.83179 19
460 1 -4.94479 14.0195 4.66982 17
461 1 -8.97459 -10.5305 -10.8722 19
462 1 -4.49687 -7.30752 -14.2009 16
463 1 -11.6212 -8.74122 2.32634 21
464 1 -10.1614 -3.09371 3.84319 18
465 1 3.1004 1.2366 7.65775 18
466 1 -2.79963 -9.75888 13.3225 12
467 1 -8.27258 5.58326 -13.3211 17
468 1 8.71721 3.31524 -4.3599 21
469 1 -13.2272 -9.08241 -0.139167 15
470 1 1.31673 6.68622 -8.3871 20
471 1 1.5646 18.0405 1.14003 12
472 1 -3.43569 6.60591 -7.78733 20
473 1 -4.44742 12.9009 8.49037 18
474 1 -15.7701 -0.71562 -3.99248 18
475 1 -0.317764 12.1635 -2.8411 18
476 1 5.87818 13.4039 -9.13917 12
477 1 -10.87 -10.28 -7.13881 12
478 1 -1.64084 2.64631 12.8414 24
479 1 0.829839 -12.5517 -7.84094 21
480 1 -4.43028 -3.86081 -12.8869 18
481 1 5.14306 -11.4132 1.99701 19
482 1 -12.9727 13.5428 2.46295 10
483 1 -2.74261 1.63705 16.5403 13
484 1 8.07621 10.875 -1.72393 21
485 1 1.64147 8.56731 1.65508 19
486 1 -9.70856 11.6256 -13.6877 12
487 1 4.87495 5.70714 -9.4773 22
488 1 0.866942 -6.8421 0.194557 19
489 1 -18.2906 -1.90972 2.63373 12
490 1 2.49825 13.4916 5.87563 20
491 1 -7.82833 -0.0540687 -16.6499 13
492 1 9.74906 4.89179 -1.38316 19
493 1 3.21364 15.722 -9.27964 11
494 1 7.00668 -3.43091 -2.55089 17
495 1 17.2907 2.1652 -0.296839 12
496 1 0.599527 0.81655 -10.8773 19
497 1 2.45528 -12.8428 1.3546 21
498 1 0.58305 -14.3906 8.81907 10
499 1 4.59165 -10.3902 10.7452 10
500 1 -6.26676 5.66136 -11.2442 20
501 1 -11.0224 -13.4434 6.31778 10
502 1 1.18676 -9.44589 -12.5997 22
503 1 7.17019 16.7507 4.15065 12
504 1 -3.54571 4.26417 -18.671 14
505 1 1.75513 -3.48435 16.55 11
506 1 -14.9347 1.79506 11.6788 12
507 1 -0.166131 -16.6895 -1.76226 11
508 1 -18.5916 -1.68976 -1.0002 12
509 1 14.4006 -5.24041 -7.19501 13
510 1 11.7759 1.18965 -2.89809 19
511 1 -8.03201 7.84311 -4.37497 18
512 1 3.0975 -7.94724 -11.0501 23
513 1 1.74747 3.70922 -9.11506 21
514 1 9.54238 -7.27144 -10.9215 20
515 1 -3.66406 -3.36406 12.9075 10
516 1 6.35985 13.9057 -1.19501 21
517 1 -3.93958 -5.31219 -16.4375 17
518 1 1.71513 2.45134 -16.8921 18
519 1 -12.4598 -5.08059 6.65532 19
520 1 -4.27811 13.7015 -1.77302 16
521 1 -13.0051 -3.19076 -16.0378 5
522 1 -15.6971 -0.720298 2.99219 19
523 1 -4.05831 -10.8664 -14.0754 16
524 1 -2.22694 -7.17164 8.74362 19
525 1 0.276489 9.9204 -13.7686 17
526 1 12.2801 1.43883 6.25162 16
527 1 13.7372 9.36546 -3.22471 14
528 1 -14.4221 -11.9015 2.05737 8
529 1 0.115193 -7.06247 -6.82546 23
530 1 -3.14182 -2.99103 -18.4353 13
531 1 -10.8783 7.29387 9.70298 17
532 1 4.06033 -2.89642 -4.33877 21
533 1 -0.51928 7.01652 -0.114512 19
534 1 10.7819 -1.84516 -1.6804 18
535 1 3.02418 13.6913 -6.75848 19
536 1 2.36018 -4.19487 -2.54552 18
537 1 11.5708 2.24154 -7.5343 16
538 1 -3.13503 8.36836 16.8915 11
539 1 -11.0431 1.35436 5.36088 22
540 1 2.79185 10.1331 7.19501 19
541 1 7.45681 -3.98387 13.9543 11
542 1 -4.3524 -2.56911 -15.2531 21
543 1 -5.9843 -4.48543 -7.72795 19
544 1 -3.51446 0.550918 11.4454 19
545 1 7.09091 14.9821 8.5762 13
546 1 8.81718 5.71109 -9.5757 18
547 1 -8.66482 7.02184 -9.65354 18
548 1 -0.686176 15.6056 -3.26939 16
549 1 9.70992 -2.54347 11.8497 9
550 1 7.74093 0.228712 -14.5254 12
551 1 13.0716 -8.03174 -3.18802 11
552 1 10.9827 8.96535 11.6068 10
553 1 -17.2406 -4.61125 -0.200107 13
554 1 -6.16565 12.7949 -13.8154 13
555 1 -5.82203 1.15876 5.56143 22
556 1 -12.2061 -0.729405 13.8497 9
557 1 -4.69573 11.0217 -11.3127 19
558 1 4.61375 -15.6735 -6.51919 15
559 1 4.9165 -2.35521 -10.1113 19
560 1 -4.25736 13.431 -8.29789 17
561 1 -12.3906 -3.07988 -12.6634 12
562 1 2.17768 -16.0209 3.3201 14
563 1 -15.2734 -2.5234 -0.45821 19
564 1 -3.01687 8.81331 -18.1379 10
565 1 -10.3636 4.72456 -3.3765 20
566 1 -4.89679 11.3228 12.8784 17
567 1 -9.23803 -5.48083 9.24972 17
568 1 6.40976 5.60583 -1.93371 19
569 1 5.17087 -13.3605 -16.6731 12
570 1 3.95288 -7.70045 11.366 17
571 1 7.24253 3.73143 -11.3749 18
572 1 -11.3278 6.27753 1.85738 24
573 1 5.23982 4.41918 16.8668 12
574 1 1.62019 16.9619 -1.71372 17
575 1 8.39598 -6.27489 -7.73733 20
576 1 -0.373556 7.97534 11.6945 18
577 1 2.40362 3.94148 -14.1908 20
578 1 -1.29935 -11.4605 7.74011 14
579 1 -2.497 1.36616 -9.641 18
580 1 5.19751 -2.12649 -15.4062 15
581 1 1.65895 12.6044 0.200557 17
582 1 8.18861 2.2949 -8.49075 20
583 1 -1.85382 -0.213361 -15.0553 16
584 1 -5.66031 -10.3028 -4.8877 21
585 1 -9.27999 0.195243 -13.1558 19
586 1 13.7955 1.95454 -0.476073 20
587 1 16.4237 4.9015 -2.24332 13
588 1 7.64604 -4.62206 -10.7928 17
589 1 10.4154 9.0907 6.82567 21
590 1 4.86435 -9.53556 -5.71521 21
591 1 2.15923 6.01034 -17.2453 17
592 1 7.79352 13.9098 2.79597 19
593 1 -8.7511 1.84003 3.49568 19
594 1 6.3831 4.48697 12.4469 19
595 1 9.58638 6.6545 -3.39731 18
596 1 15.5211 -3.3046 1.34633 9
597 1 11.5263 7.57396 -10.8903 12
598 1 6.24422 4.7334 7.17714 18
599 1 13.3038 1.49369 10.8471 6
600 1 4.68115 -7.0231 5.81113 15
601 1 12.9896 9.95379 -0.260945 15
602 1 3.2149 5.39071 2.54457 18
603 1 3.86279 2.30258 14.9447 20
604 1 15.0222 2.40063 -3.18043 16
605 1 5.56537 1.42722 6.18182 18
606 1 -12.1448 1.22644 -6.68208 21
607 1 11.0839 3.0797 1.12194 19
608 1 9.05276 -1.9704 -4.17881 19
609 1 -1.91888 -6.27508 -4.87799 20
610 1 -15.2187 7.11483 9.41802 12
611 1 6.29129 13.0673 11.8412 9
612 1 9.4444 -5.01246 9.4426 11
613 1 -0.247721 11.7715 5.24444 19
614 1 -1.7341 14.1479 9.6925 13
615 1 2.8921 1.05936 4.02567 19
616 1 -2.34513 -15.6389 0.757727 16
617 1 -12.0458 7.12374 -3.06734 13
618 1 9.7867 11.5698 -7.60334 11
619 1 6.71608 1.01314 -10.5636 19
620 1 2.8197 11.4782 -4.48974 18
621 1 -2.5376 -11.9471 -8.36941 17
622 1 10.3062 -9.67839 -16.5485 8
623 1 -17.4417 4.85105 4.70745 11
624 1 -5.25675 7.76235 -14.3358 20
625 1 -8.9425 -13.7252 -1.33111 13
626 1 -8.54839 0.641838 -9.1434 16
627 1 -18.1774 4.05322 -0.0206649 13
628 1 8.88837 -7.50404 1.06142 16
629 1 13.6875 11.414 2.92283 8
630 1 1.41701 -11.3189 9.50513 16
631 1 -17.3352 -0.551684 -9.80678 13
632 1 2.10464 0.206964 -18.9311 10
633 1 3.22722 -9.73162 7.69773 16
634 1 -6.66589 9.63766 15.3802 14
635 1 6.34974 8.81484 -14.3932 13
636 1 7.87682 1.87046 11.2437 18
637 1 12.1569 5.93398 -8.30557 18
638 1 9.42376 13.4894 0.0558885 17
639 1 1.33723 -9.58495 -5.8277 21
640 1 -9.96714 2.0388 13.4183 19
641 1 11.2726 -2.01699 6.81189 13
642 1 -2.82898 12.5881 11.8677 14
643 1 3.26402 14.0248 -11.8764 10
644 1 -8.61764 8.96221 -7.23064 20
645 1 9.31686 11.0258 4.22747 19
646 1 -11.1891 -13.234 0.827428 12
647 1 12.9822 -3.59468 -1.031 20
648 1 9.29244 16.0656 1.24628 12
649 1 -5.48816 8.1233 11.134 23
650 1 -10.3972 -1.73539 0.32286 20
651 1 -9.79157 -2.24267 -11.3027 20
652 1 8.85333 -0.743746 14.1685 12
653 1 -1.59469 -9.98753 10.5322 19
654 1 7.4647 7.21099 11.9023 14
655 1 -7.13227 14.2527 -3.75115 22
656 1 6.50662 8.69354 -0.0552291 17
657 1 5.59457 -4.51456 0.0158436 17
658 1 3.42065 3.59695 5.93223 22
659 1 -1.98182 -3.82189 -14.5004 18
660 1 -8.8041 0.316785 7.1242 19
661 1 3.98488 0.885702 -14.9695 19
662 1 -2.56243 -6.22117 -7.81918 22
663 1 11.302 -13.5213 -11.0745 8
664 1 2.97391 8.60485 4.40942 19
665 1 2.03572 5.96408 6.09759 19
666 1 -7.24023 4.24094 16.4266 13
667 1 11.4284 11.5773 9.07768 10
668 1 0.0867646 0.194549 15.9633 14
669 1 -2.62734 9.06622 13.4159 19
670 1 1.54704 -4.32987 -15.0983 21
671 1 -8.72701 3.49922 10.1722 19
672 1 5.24511 0.996486 12.4334 18
673 1 -10.3003 -15.6431 3.84267 10
674 1 16.7137 5.34585 0.823623 14
675 1 6.00656 -12.761 -6.75283 20
676 1 -3.74041 4.12569 -9.89358 20
677 1 9.42881 13.5984 -4.98808 16
678 1 10.6212 13.2406 3.32689 13
679 1 -0.738927 -2.74355 -16.7775 19
680 1 0.0706055 -2.84156 10.5636 19
681 1 5.12668 10.096 -5.91684 21
682 1 11.9525 9.01127 3.00729 17
683 1 -7.65143 -6.28347 -1.05679 19
684 1 -1.59458 2.07037 -17.0474 15
685 1 -10.497 11.8158 -1.97584 18
686 1 6.98305 -9.86565 -11.7529 18
687 1 5.9118 6.32015 1.47702 17
688 1 11.7681 9.52157 -8.33365 15
689 1 11.5544 7.36495 -0.262764 20
690 1 -5.15096 4.0714 4.48512 18
691 1 -7.72487 13.843 2.31151 16
692 1 6.52842 7.04529 -4.89044 18
693 1 5.76973 -1.30444 14.5579 18
694 1 3.20432 -1.21225 11.6837 18
695 1 0.944165 -13.0627 11.9947 12
696 1 -8.23696 8.38144 -17.8037 13
697 1 -0.824932 14.3221 6.78573 15
698 1 8.0693 -5.58211 -13.3928 20
699 1 0.614946 3.14677 8.0144 22
700 1 3.96431 16.8612 -6.08924 13
701 1 5.01616 8.47211 6.75103 22
702 1 14.9823 -5.62794 -1.27887 12
703 1 3.56313 5.7783 14.1332 16
704 1 -15.9687 -5.19998 11.3105 8
705 1 5.97217 -14.1067 -1.94564 16
706 1 -1.65426 -1.57838 -10.6265 17
707 1 -9.61766 15.4359 -2.88469 13
708 1 -2.01969 3.74656 6.68762 17
709 1 6.70003 -1.73764 -5.55791 19
710 1 5.68594 9.23395 3.20319 16
711 1 -9.49168 -1.85312 8.70905 19
712 1 -6.88322 5.77888 13.4122 17
713 1 -6.15286 5.09785 -15.217 20
714 1 -9.19229 8.27313 -15.0645 14
715 1 2.84762 -9.35304 -3.68999 20
716 1 9.05111 8.84853 -9.87918 18
717 1 2.6832 -5.12961 3.56687 19
718 1 -3.2856 8.75381 0.0791763 17
719 1 -15.8317 4.94154 12.0145 10
720 1 9.18251 -2.28396 -13.6687 11
721 1 3.40564 -15.3724 7.04311 11
722 1 -0.117917 15.0759 0.145485 18
723 1 -6.10656 7.18732 17.1377 11
724 1 -9.84311 -8.48555 -12.9749 13
725 1 -6.65464 -11.6488 -12.891 12
726 1 -4.34979 -12.0954 -11.0417 17
727 1 -0.76133 10.3071 -4.883 21
728 1 7.45681 -1.75628 -9.21852 16
729 1 -7.51624 8.16146 7.94981 20
730 1 5.84987 -11.4826 -3.14016 22
731 1 9.09268 -13.778 -2.13279 11
732 1 1.84723 -7.64439 5.90899 18
733 1 15.1106 3.72036 -9.46493 9
734 1 4.30001 -10.6108 -8.9941 23
735 1 -11.4155 -6.08381 11.7415 11
736 1 1.59017 -2.0549 -9.98293 22
737 1 -5.62959 -14.7523 0.0770194 18
738 1 -7.91044 -11.504 -6.47204 16
739 1 -12.315 0.576257 8.35403 22
740 1 -10.6305 -10.9502 -1.4714 14
741 1 13.3441 3.30086 -5.69186 15
742 1 -3.59176 16.6364 1.25187 15
743 1 -7.46476 5.15786 2.95437 19
744 1 -13.9374 7.10264 3.53554 19
745 1 9.18467 1.41116 -1.73465 21
746 1 -17.303 -3.90742 -9.31372 9
747 1 -2.99622 8.37022 -5.09715 20
748 1 13.7555 -2.08528 -9.05462 12
749 1 4.96752 11.788 7.48685 24
750 1 6.87408 7.53019 -7.6578 25
751 1 -15.7703 4.94489 -6.60741 14
752 1 -15.2168 -6.71281 -8.1213 10
753 1 -2.67198 4.66044 15.6643 16
754 1 -1.64162 10.0239 -10.6638 18
755 1 11.8992 11.6466 5.49977 15
756 1 -5.78436 3.40413 7.84027 19
757 1 -3.42523 -16.1655 -2.06858 12
758 1 -7.30344 -14.3204 2.71777 17
759 1 -4.79318 -4.63732 5.36873 20
760 1 10.6618 6.23857 9.33016 14
761 1 4.31151 -10.5116 -12.1109 20
762 1 -13.1246 11.9293 -0.0172218 8
763 1 7.03853 11.4225 1.53691 19
764 1 -6.95433 -7.09073 5.67965 18
765 1 8.99095 9.16914 -12.9319 10
766 1 -4.11659 -13.8721 -5.13813 13
767 1 0.604462 -13.4563 3.73633 16
768 1 1.04087 -12.5047 -3.91941 23
769 1 -1.08827 9.02901 -7.71701 19
770 1 9.17901 15.2477 -2.28818 14
771 1 -6.65046 -3.1999 -17.5478 11
772 1 -5.03657 3.29118 10.7478 21
773 1 -0.969086 5.42094 -18.701 15
774 1 -14.7748 -2.41753 -10.5676 13
775 1 -12.8985 -2.66676 -2.16044 20
776 1 -4.23021 15.3433 -4.56611 16
777 1 6.00073 1.69242 -1.10464 18
778 1 -0.414814 -6.71156 -15.5093 16
779 1 -7.21194 -3.31724 -2.06518 22
780 1 9.78357 8.41748 -6.32425 20
781 1 10.9641 -5.45037 -3.08223 20
782 1 -9.02672 7.16667 15.2049 13
783 1 5.19686 -7.03979 1.64208 18
784 1 13.5519 -5.06076 1.96936 12
785 1 8.42841 -1.98568 8.70379 16
786 1 -3.46816 6.30551 8.62914 20
787 1 -12.8314 4.17341 13.5914 12
788 1 -10.0042 5.06444 12.4655 19
789 1 -4.38951 -13.5563 8.51537 12
790 1 5.49092 0.91604 2.17342 17
791 1 4.77305 9.36024 12.7768 12
792 1 -19.704 0.331952 0.52628 11
793 1 9.97628 -7.75257 -4.52597 19
794 1 -10.0199 11.3403 -7.80137 17
795 1 0.612032 6.48286 3.36843 20
796 1 0.490056 -15.8902 5.8172 10
797 1 1.82082 2.09916 17.7122 10
798 1 -1.58032 13.8128 3.07345 19
799 1 0.439461 -10.3038 4.43583 20
800 1 -10.0766 -1.07452 -2.35753 21
801 1 0.411012 6.09708 9.81112 21
802 1 -16.8125 -6.46435 -3.62788 8
803 1 -0.920807 7.02678 15.571 17
804 1 4.22659 12.9716 2.12436 20
805 1 -14.9403 -9.05813 2.86406 12
806 1 -4.43114 -16.5731 2.87956 11
807 1 6.45293 -1.33428 4.70644 18
808 1 8.35904 -7.05568 4.72568 16
809 1 7.7394 12.2438 9.07652 15
810 1 -5.35688 6.94219 -4.57956 24
811 1 1.57757 -12.1138 -10.5278 18
812 1 -1.91626 2.26727 -12.3796 20
813 1 -2.68755 -1.79332 9.19146 18
814 1 2.40375 14.8076 2.30136 20
815 1 8.1912 1.66452 4.46959 19
816 1 1.69726 10.6061 -7.34971 22
817 1 -7.91919 10.2313 12.4001 20
818 1 5.69161 9.52026 9.52191 17
819 1 11.1861 -4.6404 -12.1041 12
820 1 -7.07223 -8.87461 1.9437 19
821 1 -5.91143 1.64002 -7.48805 16
822 1 11.3214 -2.53166 3.84269 21
823 1 -1.0237 -4.08765 -11.2988 23
824 1 -1.69432 11.4908 8.43176 20
825 1 9.5837 -15.5159 -10.7102 9
826 1 4.11286 3.90251 -16.8769 16
827 1 -3.16118 -9.13438 -6.3141 19
828 1 10.6617 4.66161 -11.5433 10
829 1 16.9434 -1.32858 -1.45146 8
830 1 -0.0262943 -5.30807 8.63123 21
831 1 -5.6511 -9.06001 -11.5466 20
832 1 10.7381 9.47189 -3.10948 19
833 1 -2.36313 -6.12888 1.93075 24
834 1 -16.8115 8.00205 4.58972 12
835 1 9.81186 5.12773 -6.72409 18
836 1 11.289 5.9029 3.32818 19
837 1 2.0837 -7.03271 -17.813 13
838 1 -10.6899 13.0205 7.575 15
839 1 13.1417 3.46917 4.43518 19
840 1 12.1321 11.6025 -5.3505 12
841 1 0.240338 -2.22314 -13.3395 21
842 1 6.05262 -1.84133 1.15631 19
843 1 -15.2997 3.13674 -1.67407 18
844 1 9.08148 5.6199 1.3834 16
845 1 -14.0533 -5.98793 1.34287 18
846 1 -11.5611 7.61092 -7.713 17
847 1 2.40867 7.93967 8.57623 21
848 1 -19.378 0.773405 -7.46235 9
849 1 -12.5811 4.82641 7.83672 19
850 1 -1.30301 4.22255 -7.78531 19
851 1 10.2687 -9.98239 -10.3833 15
852 1 -14.5645 -9.67844 -10.0575 7
853 1 11.7404 -6.75353 -0.788166 15
854 1 -12.3264 3.68928 -1.21738 21
855 1 -7.70582 -3.22875 -5.59154 19
856 1 5.70185 6.39281 9.48303 17
857 1 -5.06319 -7.98259 3.32576 22
858 1 7.05216 1.80257 14.7332 17
859 1 14.1248 -2.79343 4.58541 7
860 1 8.13659 -4.78276 2.25997 20
861 1 -9.21763 4.42003 -0.0636971 19
862 1 -0.199296 10.1746 14.943 13
863 1 2.92151 5.60898 -11.2575 19
864 1 1.54578 -9.33466 -15.7896 18
865 1 -9.43736 14.3385 10.5945 9
866 1 -6.06571 -6.75472 9.0069 17
867 1 3.74954 14.4021 -3.49348 18
868 1 0.314157 9.00336 17.5436 7
869 1 14.2995 -5.64509 -4.54365 14
870 1 4.03121 -6.07433 8.5384 21
871 1 -2.3826 12.6147 -12.8447 14