ITEM: TIMESTEP
29000
ITEM: NUMBER OF ATOMS
1500
ITEM: BOX BOUNDS pp pp pp
-30.0 30.0
-30.0 30.0
-30.0 30.0
ITEM: ATOMS id type x y z Coordination
1 1 -15.8783 -5.25765 -8.39764 14
2 1 0.530855 -11.2973 5.1326 22
3 1 -19.4658 10.0819 3.81874 14
4 1 -18.3081 1.83829 0.350251 20
5 1 -6.15391 -7.24577 14.0553 20
6 1 -14.1778 -0.262847 -4.59083 17
7 1 -4.86496 -10.0978 1.15304 17
8 1 -21.3332 -10.7635 1.9017 11
9 1 -9.71609 1.18453 16.085 14
10 1 -11.9259 -0.874428 18.3401 10
11 1 -16.0646 13.6331 -6.92155 12
12 1 -1.10072 -6.13959 7.89034 17
13 1 0.695613 8.95137 14.8625 7
14 1 -19.2382 12.8327 -4.94819 12
15 1 0.0590521 6.58973 -5.76116 18
16 1 -7.0846 -1.0146 -9.25436 21
17 1 -3.14436 -16.0808 4.46425 11
18 1 -12.8535 -11.6072 11.5641 12
19 1 -11.5636 -13.2862 -2.86512 12
20 1 -6.47122 -6.75634 -9.78089 14
21 1 -5.69398 7.68931 12.7861 19
22 1 -4.02263 -10.9992 9.30678 22
23 1 -0.811356 -8.11081 12.166 16
24 1 -23.4317 -6.52951 4.30811 12
25 1 -20.7888 -0.561247 -0.382459 18
26 1 -12.6724 18.5033 2.71057 12
27 1 -11.8266 5.27119 -11.4269 13
28 1 -5.15654 -9.16755 -9.86402 9
29 1 -12.0298 -0.0338281 13.8743 17
30 1 -19.2762 4.38584 1.76107 18
31 1 -9.34689 13.9989 13.1606 11
32 1 -17.6871 13.5653 -1.43723 15
33 1 -10.4145 13.7041 1.23009 16
34 1 -6.864 -10.0436 8.36379 21
35 1 -3.19715 -9.14105 -6.91064 14
36 1 -14.0101 -0.919651 11.7563 15
37 1 -21.595 -4.44307 -4.13822 14
38 1 -1.12561 -1.04977 10.5832 17
39 1 -22.9267 5.20724 -7.29788 8
40 1 -15.481 -10.5738 10.9 17
41 1 -22.3965 11.1291 -4.36833 11
42 1 -5.72034 2.92427 12.6385 14
43 1 -8.66235 -15.4034 8.86376 12
44 1 -5.34994 4.00318 16.5624 10
45 1 0.704735 -5.01635 -2.11415 19
46 1 3.87661 -8.13363 8.18413 9
47 1 -1.68787 -10.7225 13.0753 13
48 1 -11.1733 -10.3735 13.3182 16
49 1 -24.2685 -1.30801 5.55384 12
50 1 0.870249 5.05347 12.3059 21
51 1 6.2258 -4.75598 4.97786 11
52 1 -8.97375 15.4549 10.0494 11
53 1 -2.18946 1.71397 5.91426 16
54 1 -12.7138 -5.30375 -7.13055 14
55 1 -12.7016 15.092 1.64506 17
56 1 -10.9545 6.89533 -6.04973 17
57 1 -3.07499 -1.14348 -4.03078 19
58 1 0.454329 -17.1827 4.61627 8
59 1 -0.695381 -8.08688 4.8754 19
60 1 -11.1524 14.2887 -5.02467 19
61 1 -16.3514 14.036 1.92352 16
62 1 -16.2337 10.3043 7.82282 21
63 1 -16.0084 -5.50275 14.2172 15
64 1 4.01608 -8.6182 1.40013 18
65 1 -21.8369 2.59922 0.422412 16
66 1 2.77169 -4.50541 0.589307 19
67 1 -5.41178 3.95815 -7.77123 19
68 1 -12.5294 -2.06441 -11.9262 14
69 1 -9.1815 17.6422 7.52419 11
70 1 -18.8778 2.70906 -6.65877 18
71 1 -13.4257 15.8883 -6.32514 10
72 1 -5.81973 10.2246 -0.416053 16
73 1 -9.88947 -9.37225 9.58748 21
74 1 -2.17587 -0.0299487 -7.20313 16
75 1 -1.22803 -4.68606 -8.63603 13
76 1 -11.4469 4.27267 10.4889 18
77 1 -18.0291 -10.8676 2.55337 19
78 1 -19.6849 -9.7612 -5.86183 13
79 1 2.64388 -1.67998 9.9701 13
80 1 -13.8295 5.05071 5.78941 18
81 1 -2.86445 6.04654 -7.68945 14
82 1 -2.69434 11.1659 -4.88791 16
83 1 3.23733 -2.83007 6.17228 18
84 1 -12.2097 -14.1183 8.19154 15
85 1 -13.4682 -8.47208 2.50865 21
86 1 -19.5555 -10.3692 8.04244 11
87 1 1.06458 10.7956 9.88643 15
88 1 -9.62768 10.6788 4.68404 18
89 1 -8.36195 15.3479 1.39383 19
90 1 -12.082 -4.58383 -9.9088 14
91 1 -1.21024 0.0506617 14.5907 10
92 1 -13.9899 5.92883 -2.65517 18
93 1 7.037 7.78373 0.57114 9
94 1 -20.8178 10.7244 -6.24715 10
95 1 -14.4204 16.5052 -1.78827 11
96 1 -1.4468 -3.63017 -3.70306 18
97 1 3.30712 -6.16023 5.36121 16
98 1 -17.0545 5.31204 -0.731823 18
99 1 0.33951 16.024 1.82016 16
100 1 1.21266 11.7259 5.0144 18
101 1 -15.2424 8.05884 -0.222599 19
102 1 -10.6027 -3.45132 -13.1131 11
103 1 -3.20349 15.9742 10.547 10
104 1 -22.0669 -9.53368 -0.684813 13
105 1 3.78189 -3.20767 2.90293 20
106 1 -14.7588 11.074 5.09143 17
107 1 -12.3548 15.0335 -2.73777 17
108 1 -5.57625 -10.4292 13.1813 17
109 1 -19.586 -3.94171 2.07549 17
110 1 -11.257 -5.10624 14.9579 18
111 1 -4.8657 -13.9436 -1.24516 15
112 1 -11.804 10.5235 -9.88024 11
113 1 -5.95679 7.35639 -8.65123 15
114 1 -8.26659 -9.67799 12.6526 18
115 1 -17.0471 0.470562 7.10705 17
116 1 -2.78595 17.7771 7.48271 11
117 1 -9.06764 9.93043 10.7825 19
118 1 -15.1089 14.8616 4.84547 13
119 1 -13.8373 2.64629 -3.18562 16
120 1 5.59602 -2.32316 9.02105 8
121 1 -14.2989 -5.68702 8.97178 18
122 1 -23.582 -3.34621 3.57015 17
123 1 -15.96 -12.9187 4.92501 19
124 1 -24.2127 0.37509 0.116089 15
125 1 -9.72403 -7.72838 3.15226 19
126 1 -4.41913 -6.73694 0.0905018 22
127 1 -8.00535 10.8896 7.60543 17
128 1 -21.3968 -3.44581 -0.303387 19
129 1 -15.111 11.0199 -5.82762 20
130 1 -23.7958 -1.10448 -5.24524 5
131 1 -16.089 -3.10672 15.1696 13
132 1 -10.1794 -7.13059 12.0559 20
133 1 -6.01143 -13.5422 7.81374 15
134 1 3.25194 6.00759 8.66623 16
135 1 -2.93221 4.49913 -4.33917 22
136 1 -6.39808 -7.491 16.9674 9
137 1 -10.091 7.88873 -11.6664 12
138 1 -3.97994 1.31299 -5.41755 18
139 1 -19.1269 -6.15829 -4.29383 17
140 1 -22.7048 14.4003 -2.92834 7
141 1 -15.5386 8.84183 -3.52653 20
142 1 1.33669 -0.13673 12.9274 12
143 1 -14.67 -10.6598 -7.40375 9
144 1 -14.8678 11.1188 -8.7118 9
145 1 -6.75613 6.66506 -12.0698 11
146 1 -13.8542 7.88493 8.06324 17
147 1 -16.1562 10.7115 11.0357 13
148 1 -8.53248 -5.82432 -4.6041 14
149 1 -12.4851 -11.345 7.90986 22
150 1 -7.70018 -13.2795 0.703049 19
151 1 -9.80082 9.1713 -8.29442 17
152 1 -7.89294 11.8386 2.7777 16
153 1 -22.4611 -4.54277 6.3567 16
154 1 -3.74636 6.64646 10.0838 17
155 1 -0.032655 5.39924 -2.46773 18
156 1 -5.79775 5.62812 7.61305 18
157 1 -16.6901 4.10781 11.1438 17
158 1 -17.3102 -7.27616 2.64496 17
159 1 2.91916 6.55478 -3.54024 14
160 1 -2.92525 0.809606 9.51948 18
161 1 1.94498 2.80667 -2.80247 16
162 1 -9.77656 -14.8157 3.07373 16
163 1 -13.9348 1.934 -7.13674 16
164 1 -2.94592 -3.15519 -6.43739 13
165 1 -13.06 -3.54384 10.1169 19
166 1 -13.9239 -16.7334 1.102 14
167 1 -17.609 -7.71659 -1.987 14
168 1 -2.23707 18.4813 1.10785 9
169 1 -7.66242 -3.56494 -10.5615 14
170 1 -8.23341 4.12113 17.3212 12
171 1 4.70686 3.47258 1.26083 20
172 1 4.28342 -7.94655 -3.84139 9
173 1 -15.8184 -8.64397 -8.89512 11
174 1 -19.6371 0.539543 -5.20134 14
175 1 -3.75961 -8.95211 11.6106 20
176 1 -1.03559 -11.2132 10.3084 20
177 1 -10.3894 -7.73075 -2.40265 17
178 1 -9.36286 -0.940194 7.56404 24
179 1 -9.93794 14.0524 -7.55006 9
180 1 -0.722082 11.4982 -2.66364 15
181 1 -16.0728 -3.18619 7.40383 16
182 1 -6.62126 6.92447 10.2703 16
183 1 -16.3201 -3.38985 11.5912 16
184 1 -18.473 -10.8744 -0.517113 17
185 1 -14.0304 -2.32601 -8.65911 19
186 1 -14.5665 -12.4063 -4.51847 11
187 1 -15.8863 -8.70434 0.681374 20
188 1 -1.35501 6.87875 3.42554 23
189 1 -19.4179 -1.88679 10.5776 13
190 1 -12.9492 -11.1133 -0.142573 16
191 1 -7.00951 -6.25048 1.92169 19
192 1 -5.82928 14.6321 2.73561 14
193 1 -2.26486 0.92971 -11.2262 11
194 1 -13.0722 -5.39262 -12.5059 9
195 1 -12.6216 -13.4642 2.54953 22
196 1 -15.5332 -10.6857 -1.96106 16
197 1 -19.8855 -0.394276 -8.11131 10
198 1 0.912578 3.42358 7.91546 21
199 1 -16.9243 2.17859 -10.0942 12
200 1 -14.5386 13.8454 -4.51408 18
201 1 -13.0553 -0.519667 8.61844 21
202 1 -7.84309 14.87 -4.76951 11
203 1 -3.4769 14.6363 7.18158 17
204 1 2.78483 2.58826 13.4761 11
205 1 -17.0346 0.71871 10.525 15
206 1 -8.97801 -7.03228 16.2864 15
207 1 -18.1885 6.87178 1.82635 21
208 1 -10.6449 3.75693 -7.08872 20
209 1 -3.63035 -5.86878 5.87853 19
210 1 -13.9389 5.58985 15.6049 14
211 1 -16.4243 -11.5802 7.74337 20
212 1 2.01205 -7.32477 -0.0514463 17
213 1 -4.75248 -10.1384 -4.29644 15
214 1 -4.01352 -12.9681 1.91217 17
215 1 -18.744 9.0617 -1.43691 18
216 1 -3.72626 12.8596 10.0375 16
217 1 -16.3691 1.02725 3.57052 21
218 1 4.04648 -12.5436 1.25268 7
219 1 -12.3367 10.1811 4.00942 20
220 1 -10.988 11.5157 9.20801 16
221 1 -0.722361 -14.4455 6.61452 14
222 1 2.5851 -8.87198 4.86217 19
223 1 -11.1763 6.44889 17.5107 9
224 1 -17.1108 -1.73402 -4.20124 15
225 1 -10.6283 5.12029 14.8708 17
226 1 -11.573 13.511 4.45843 18
227 1 -15.9254 3.12291 14.156 14
228 1 -17.8366 3.16821 8.68804 17
229 1 -9.03638 -3.28657 -6.12184 16
230 1 -17.0742 12.699 4.76191 16
231 1 3.21512 0.408405 7.05838 19
232 1 -18.4983 -12.9383 10.2135 9
233 1 1.43957 -14.1159 4.77861 14
234 1 -15.8992 9.65378 2.60543 21
235 1 -7.93462 -4.25254 14.2407 16
236 1 -1.37594 -8.07907 0.79581 19
237 1 -20.918 -6.56757 -6.74141 13
238 1 -4.85367 -3.47363 -9.9462 17
239 1 -2.82715 12.3189 5.28965 16
240 1 -18.117 -1.60941 4.46011 22
241 1 -7.86447 1.82729 -12.6959 10
242 1 -8.65177 -9.04395 -8.7466 9
243 1 -19.0902 -1.13055 1.73483 25
244 1 -13.0638 -11.3016 5.07289 16
245 1 3.76877 8.99475 9.18167 10
246 1 -16.1648 -0.0500252 -6.85381 16
247 1 -25.0086 -2.71115 0.582801 13
248 1 -16.1345 6.07114 7.3736 18
249 1 -15.245 16.8709 1.7028 11
250 1 -11.5059 11.6412 11.9214 19
251 1 2.07673 1.47922 1.69926 18
252 1 2.83877 -2.3654 -2.93318 15
253 1 -3.08366 -6.50129 -11.3788 7
254 1 -11.1436 9.29966 6.56331 19
255 1 -16.5521 -0.864995 -0.289816 16
256 1 -2.55032 -7.12527 3.03655 21
257 1 0.917217 -6.71167 9.88544 13
258 1 -17.4021 -5.60642 0.181918 19
259 1 -17.3189 -7.19157 5.99341 14
260 1 -14.0487 12.4775 2.409 19
261 1 -21.7905 -8.3145 -3.83013 13
262 1 -20.7741 10.3385 0.653678 14
263 1 -9.3465 14.6062 -1.82564 22
264 1 -1.10586 7.85361 12.0073 18
265 1 -21.384 -7.79566 2.81433 13
266 1 -5.11488 -1.34975 -7.35318 16
267 1 -22.39 -2.18602 8.6289 12
268 1 -20.0069 5.40817 -0.7689 18
269 1 -4.42428 -5.0435 8.72062 18
270 1 -10.1455 -10.1942 5.93949 19
271 1 -8.27199 4.63042 -6.90137 23
272 1 -23.0484 11.5536 -0.857341 11
273 1 -2.70863 -13.6497 8.72457 14
274 1 1.02424 14.7203 7.66947 11
275 1 -10.9993 -0.716055 10.4726 18
276 1 -21.6736 4.5362 6.75517 14
277 1 -13.8643 2.11126 10.9701 13
278 1 -10.0949 -13.2803 11.4466 12
279 1 -0.203721 -7.69098 -7.72922 9
280 1 -20.326 5.27174 9.83449 9
281 1 -6.7222 -5.09223 11.1065 20
282 1 0.230658 -13.2924 -1.09676 15
283 1 -9.5262 -10.8169 -2.47953 16
284 1 -15.7411 -7.25934 11.5061 17
285 1 -3.04658 -5.66924 -1.58721 18
286 1 -13.7251 3.69072 -9.83599 11
287 1 -4.38543 -13.2266 -4.68988 10
288 1 -8.61586 11.8329 -8.80651 11
289 1 -7.98464 -4.27641 17.5567 10
290 1 -20.7954 -6.66889 6.5521 16
291 1 1.10881 -12.8347 8.38724 15
292 1 -9.969 0.0270605 -7.08503 16
293 1 3.58305 -10.9732 3.4634 13
294 1 6.72223 10.5945 2.3564 8
295 1 -12.9118 4.63198 13.2537 16
296 1 -6.99786 11.8089 -2.91788 18
297 1 -2.01912 -4.40532 4.08227 20
298 1 -18.5473 -16.5542 5.44936 6
299 1 -12.0983 16.7635 6.20914 15
300 1 -17.2392 -11.31 -6.45162 10
301 1 0.0254053 9.73136 7.184 16
302 1 -15.8622 7.67804 10.5393 16
303 1 -16.6993 -4.6704 -2.93729 18
304 1 -13.0802 10.0714 9.43703 20
305 1 -13.5175 -8.16288 -1.14714 17
306 1 -14.5758 13.0638 10.0978 14
307 1 -9.98783 -8.76359 -5.95384 15
308 1 -9.23699 -5.93343 -7.93995 19
309 1 -16.8046 -14.363 1.18408 14
310 1 -19.4958 0.585288 8.95542 17
311 1 0.566755 -4.52381 12.0133 14
312 1 -11.0591 -5.58368 18.0793 11
313 1 -18.0571 10.0238 -7.86604 11
314 1 -1.32496 10.2306 4.03486 22
315 1 -14.6989 -19.3852 2.51678 4
316 1 -9.84153 16.3237 4.58565 18
317 1 -8.20613 6.21623 -4.21118 20
318 1 -6.15374 10.6588 10.9106 19
319 1 -20.3459 -7.10309 -0.602889 17
320 1 -5.34469 9.09179 -3.87271 17
321 1 -23.0548 -2.17964 -2.55759 15
322 1 -10.6952 -13.2755 -0.43022 17
323 1 -11.8746 -0.0635853 -14.1781 7
324 1 -14.6351 14.1438 -0.692917 20
325 1 -8.87676 9.37038 16.3877 10
326 1 2.87154 5.00268 -0.751784 20
327 1 -6.49478 7.46929 4.79949 20
328 1 -20.3132 7.71312 -8.06429 12
329 1 -6.31227 3.26908 -4.76936 20
330 1 -8.22832 -6.80402 8.46789 21
331 1 -22.4063 -1.09284 1.98533 17
332 1 -16.1297 -3.40398 -12.15 10
333 1 1.16554 7.21525 1.44645 17
334 1 0.302507 -9.47216 2.21849 23
335 1 9.56696 -1.24104 0.264203 5
336 1 -16.6805 4.09804 -7.65568 17
337 1 -12.3001 -6.15768 4.18465 16
338 1 -1.69266 -11.2311 7.19507 21
339 1 -3.93325 -13.2825 11.4684 11
340 1 -19.0103 3.68969 -3.40837 16
341 1 -12.702 -7.93493 -4.74108 12
342 1 -7.04585 3.74643 -9.76737 18
343 1 -10.2844 -2.17387 15.8384 21
344 1 -19.5211 -2.55653 7.34735 19
345 1 -4.09684 -5.85886 -7.42999 15
346 1 7.70227 -3.43367 2.68208 12
347 1 -16.2135 1.87097 -2.0689 17
348 1 -5.86579 -10.9941 -1.83412 17
349 1 1.06987 7.2788 -7.95022 7
350 1 0.375764 -3.18357 2.55755 17
351 1 -13.0119 2.15657 16.1894 11
352 1 -2.76888 14.2737 1.76856 19
353 1 -15.2388 -0.910239 -10.7207 11
354 1 -18.1629 -6.0809 11.5664 15
355 1 -14.7056 19.0239 4.51539 7
356 1 -20.9176 -3.22723 -6.74583 12
357 1 -19.2616 6.98351 7.11749 16
358 1 -2.18268 -8.5393 9.21166 20
359 1 -12.2598 12.412 -0.583321 21
360 1 0.583916 -0.570713 -3.29511 18
361 1 -18.9657 -7.60284 8.55573 13
362 1 -9.68354 -4.59242 -1.62588 17
363 1 -18.4078 8.50834 9.07643 13
364 1 -6.76603 1.20595 -7.42175 21
365 1 3.10239 -11.6108 6.86014 16
366 1 -8.14974 9.79795 -5.6772 16
367 1 0.515941 -12.5089 2.05654 19
368 1 -21.2147 -0.480317 6.06271 16
369 1 -3.29137 9.46277 10.3816 21
370 1 -9.4768 6.05208 -9.10108 18
371 1 -13.484 -9.53132 -10.4908 8
372 1 -4.73246 -2.49641 10.5881 22
373 1 2.16229 13.0858 1.9179 14
374 1 3.46616 7.90638 -1.27715 15
375 1 -18.1139 6.1235 -6.52223 15
376 1 -7.1676 17.9689 0.0200214 9
377 1 -1.28188 -5.72797 13.6465 12
378 1 3.52625 1.10703 -4.56719 12
379 1 -20.5237 -2.83661 4.45402 19
380 1 -8.71085 1.37998 10.3288 18
381 1 -16.6276 11.8563 -3.00694 19
382 1 -10.9046 -13.3906 5.52891 19
383 1 -4.42816 -7.43608 -3.02904 14
384 1 -3.26423 13.3825 -7.7747 6
385 1 -11.7699 -9.08241 -7.97611 13
386 1 -10.2282 -16.3688 6.16745 11
387 1 -21.5169 -8.85664 5.24875 11
388 1 -20.0993 -0.022935 12.817 10
389 1 -4.45084 8.07588 1.4175 20
390 1 2.0321 -14.9155 1.91712 9
391 1 1.14781 -12.778 11.6606 6
392 1 -2.80458 -0.0166177 -1.46008 17
393 1 -20.2953 7.26832 -4.12517 18
394 1 3.82464 -9.57464 -1.83853 14
395 1 -5.94199 13.3063 7.64693 13
396 1 -12.8096 11.9613 -3.97865 21
397 1 -0.85271 10.6634 12.5775 11
398 1 -1.19624 3.14215 -6.55773 15
399 1 -8.82638 -1.0184 -11.8165 13
400 1 -14.1282 -13.7793 -0.0911078 19
401 1 -25.6887 -0.706905 -2.02259 9
402 1 0.762821 5.40308 6.2502 18
403 1 7.81983 2.8137 2.69967 10
404 1 -1.207 -10.365 -5.19003 16
405 1 -2.85535 -11.4711 -2.73313 21
406 1 -3.50411 17.9349 4.79952 11
407 1 -18.186 5.13658 5.27752 18
408 1 3.28585 1.37419 -0.983825 22
409 1 3.52602 3.63863 6.46108 21
410 1 3.21917 -1.46015 -5.54502 10
411 1 -0.672327 12.4976 7.15318 22
412 1 1.04357 -2.8151 14.0663 9
413 1 -10.3858 -3.11223 12.4432 18
414 1 5.78307 -0.704707 -1.29561 14
415 1 -3.71359 2.24878 14.3621 14
416 1 -18.1513 -4.04927 -6.31469 18
417 1 5.98605 6.3559 6.92887 11
418 1 5.16347 -3.80093 -0.298088 16
419 1 -4.20525 -0.999794 13.5554 13
420 1 -9.3318 17.9114 1.87132 13
421 1 -0.171633 2.34325 10.4919 18
422 1 -15.073 11.0593 -0.338695 22
423 1 0.387253 9.02084 -4.27307 15
424 1 -6.33061 -5.37415 -1.08597 17
425 1 -6.01828 15.1726 -2.22542 12
426 1 -7.71179 -13.4632 -2.32013 12
427 1 -21.8816 6.05207 1.14526 11
428 1 -15.5626 7.75309 -6.65038 18
429 1 -9.23602 -11.9714 3.01431 20
430 1 -12.4538 1.94498 -12.2556 9
431 1 -24.4097 2.86398 -2.03049 9
432 1 2.31694 -0.845656 3.94265 20
433 1 3.23219 11.9235 7.77363 12
434 1 -4.89234 -4.25876 12.8835 14
435 1 -20.0993 -2.12186 -3.86192 17
436 1 -11.5731 7.80776 14.3744 19
437 1 -2.46973 7.3736 -3.85356 19
438 1 0.481127 9.0924 -1.38661 19
439 1 -1.56707 -8.72463 -2.41439 18
440 1 5.66435 -0.399051 4.59294 20
441 1 -0.694481 13.5797 10.4063 12
442 1 5.43074 -8.79275 5.25939 10
443 1 -14.2774 9.14721 14.0346 12
444 1 -17.8879 -10.2197 5.10172 19
445 1 -15.2644 -2.98744 -5.92377 18
446 1 -0.222286 2.87197 13.9558 14
447 1 -12.4086 -8.11984 6.87482 21
448 1 -0.834607 6.20641 15.1204 10
449 1 -10.9791 19.3595 5.06641 9
450 1 4.11223 6.31261 1.81414 17
451 1 -3.48379 11.1161 7.56646 18
452 1 -10.6635 3.25182 -14.2203 8
453 1 -21.6247 2.13537 10.9213 10
454 1 1.56377 3.87122 -6.99439 10
455 1 1.68182 -11.0882 -3.77537 12
456 1 2.12287 5.12338 14.9896 10
457 1 -0.764715 6.46651 9.20897 17
458 1 3.66113 2.21231 9.9762 12
459 1 -5.49804 -7.4358 8.90246 22
460 1 -7.50239 9.01716 13.8066 18
461 1 -9.08153 4.23765 -11.6617 15
462 1 -15.1677 -0.133291 15.1823 12
463 1 -3.37261 -7.97674 14.7819 12
464 1 5.70117 8.19068 3.53881 13
465 1 -4.22266 -12.8986 5.20324 18
466 1 -15.9152 3.01042 -5.0837 17
467 1 0.431607 13.5603 -0.297198 17
468 1 -0.655011 13.1641 3.23758 24
469 1 -5.63634 11.9237 -5.76636 11
470 1 4.08672 10.6779 3.48212 10
471 1 -20.5279 -11.1789 -3.22193 12
472 1 1.35088 0.482003 -7.39674 13
473 1 -18.0879 11.7524 1.36837 16
474 1 -2.66047 -2.4248 -11.2221 11
475 1 2.71522 10.1755 -2.64779 10
476 1 -3.75182 11.1835 2.07127 19
477 1 -16.2557 3.23143 6.0277 21
478 1 -10.1238 12.0629 -3.09056 22
479 1 -6.31116 -16.1988 6.33503 10
480 1 -12.406 6.95294 -8.78413 17
481 1 -5.76131 13.7311 12.1461 11
482 1 -2.42932 3.75919 11.4148 18
483 1 -2.12313 14.227 -3.16502 11
484 1 1.379 15.2884 4.60306 14
485 1 5.3834 -5.94559 1.89833 15
486 1 -18.7858 -9.17475 11.2254 10
487 1 -12.6859 -15.9543 4.30322 14
488 1 -10.488 -2.3889 -9.22934 18
489 1 -6.06769 17.8051 6.53661 11
490 1 -20.4634 -4.91808 9.2757 14
491 1 -1.91622 -11.1669 0.191284 19
492 1 -0.965059 11.3124 0.434605 19
493 1 -4.91453 1.21565 -9.7844 16
494 1 -6.46477 -15.2917 2.67603 10
495 1 -0.725153 18.2366 3.61525 9
496 1 -15.2752 -1.67309 18.2563 9
497 1 -18.2916 -7.48894 -7.4858 10
498 1 -6.55802 -0.119593 -4.42768 21
499 1 -12.8832 11.3056 7.2131 17
500 1 -0.672475 -13.4224 -5.07967 10
501 1 -6.69225 -11.6679 10.4514 19
502 1 -6.25826 -10.59 4.86744 18
503 1 -13.5516 -4.31444 19.6744 7
504 1 -15.1126 -15.7029 -1.63124 9
505 1 -19.007 3.1321 12.432 11
506 1 7.41156 4.3525 -0.379024 11
507 1 -15.9779 6.51911 13.254 13
508 1 -24.2411 2.67636 2.94293 10
509 1 0.781074 -5.26606 5.26532 18
510 1 -10.0664 8.88029 -4.11313 18
511 1 6.80301 1.08897 -0.230849 16
512 1 -0.64327 13.3981 -5.86408 8
513 1 -21.871 2.74075 -4.5613 11
514 1 -19.8821 -13.3119 4.13186 8
515 1 -1.40977 9.17694 -6.75831 10
516 1 -9.1594 3.07393 12.4877 15
517 1 -9.62289 -4.08191 9.74359 19
518 1 -6.71986 -4.43704 -7.7551 17
519 1 -15.125 6.5106 2.7695 19
520 1 -1.74861 15.2718 4.93616 19
521 1 -15.4409 -8.4652 7.95228 17
522 1 6.34987 5.9969 -2.22967 9
523 1 -14.6198 -14.1704 6.54646 20
524 1 -2.94211 9.61864 -1.85146 19
525 1 -16.1949 5.5736 -3.99373 18
526 1 -7.76712 5.30895 14.1919 18
527 1 -5.18167 6.37945 -5.64816 20
528 1 -17.4952 -2.86474 -0.814101 19
529 1 -2.48933 -1.63138 0.991645 15
530 1 -18.6774 -4.87483 5.38737 18
531 1 4.65066 8.75611 6.7694 12
532 1 -4.27721 -4.51446 2.87586 19
533 1 -10.959 14.404 7.70502 18
534 1 -1.45647 -13.7991 3.96527 18
535 1 8.36184 -0.485232 3.17895 12
536 1 0.580433 0.244891 8.25297 17
537 1 -8.06405 13.6628 5.41662 17
538 1 -11.8984 8.73126 11.4178 20
539 1 -7.78956 -12.9105 5.36664 19
540 1 0.746042 1.58451 5.48239 18
541 1 -6.20057 7.20364 16.0615 12
542 1 -24.1393 1.74671 5.36206 11
543 1 1.44572 -6.44925 2.5777 21
544 1 -4.19795 8.92747 4.56133 21
545 1 -3.75266 6.17046 13.1852 14
546 1 -6.06791 16.5227 9.35856 13
547 1 -1.72614 -14.3673 0.509411 14
548 1 -18.4939 0.16145 -2.42789 17
549 1 -8.45729 -0.76358 13.311 19
550 1 -6.99012 17.7533 3.32653 13
551 1 -15.1454 -13.7462 9.82893 13
552 1 -2.1625 -2.89273 12.6861 18
553 1 -0.763783 -2.31718 5.92334 18
554 1 1.81434 8.04677 11.5043 15
555 1 -7.51895 -10.2752 -4.55081 16
556 1 -13.1219 8.64769 -5.61584 19
557 1 -14.3383 -4.49739 17.1964 13
558 1 -11.2092 17.1978 -0.265565 13
559 1 5.83011 2.31747 7.06297 14
560 1 -10.4274 10.2601 -0.714527 15
561 1 -10.8112 10.4686 14.1234 16
562 1 -5.77224 11.7018 4.98586 18
563 1 -0.0980202 -1.62095 -10.2165 12
564 1 -17.9479 -14.1208 7.74027 10
565 1 -11.8475 -1.9129 -5.62928 19
566 1 8.14141 0.332602 6.20736 11
567 1 -4.00142 4.53412 -10.3842 14
568 1 -11.1596 -11.2158 -5.4358 11
569 1 8.85597 3.43502 5.56086 8
570 1 -8.32833 -10.1373 15.5901 11
571 1 -13.5783 -4.53317 -4.29463 14
572 1 -3.96365 13.1588 -0.641127 16
573 1 -23.3859 5.52544 4.26431 8
574 1 3.58967 11.2231 0.297542 11
575 1 -5.12184 -0.935346 -12.2627 12
576 1 -14.056 15.343 7.94994 13
577 1 -0.794519 4.07901 -9.45436 13
578 1 3.47559 -5.38462 -2.63809 17
579 1 -22.7633 -5.30798 1.15813 16
580 1 1.70175 8.251 4.23841 15
581 1 -13.741 -18.9531 -0.690226 5
582 1 -2.36026 8.33428 6.86989 18
583 1 -22.5166 7.70528 -5.9708 11
584 1 -22.5789 2.11301 8.01382 10
585 1 -10.8204 4.55266 -4.03999 20
586 1 -1.36718 -6.89684 -4.96466 19
587 1 -22.6444 -5.88325 -1.86671 11
588 1 6.23647 -7.23731 -0.918274 10
589 1 -20.2303 6.57178 4.10417 16
590 1 -17.5491 -10.8209 -3.26416 15
591 1 -12.8482 -8.86336 10.2073 20
592 1 2.32142 -4.22462 8.48298 16
593 1 -1.52538 3.95396 4.80171 20
594 1 -25.6378 -0.489659 2.76941 12
595 1 -8.44234 11.7743 13.7497 14
596 1 -10.9453 10.8512 -6.2313 19
597 1 -16.9758 13.4774 7.79451 12
598 1 -4.75154 16.6787 0.351393 17
599 1 -3.85909 10.267 13.5676 12
600 1 -3.03715 -5.73824 11.3019 26
601 1 -7.1491 9.4818 -11.2151 9
602 1 -13.2376 -6.07109 12.7527 20
603 1 -15.2376 -6.39123 -11.0718 10
604 1 -22.5004 5.61921 -2.80166 11
605 1 -7.38879 -12.6817 13.1814 11
606 1 -1.13673 -3.80791 9.22922 17
607 1 -15.488 -11.9062 2.37138 22
608 1 -21.3988 8.27399 -1.15723 14
609 1 5.65816 2.74967 -2.79262 12
610 1 -18.8448 10.7845 6.84874 12
611 1 -18.9096 -3.20199 13.433 10
612 1 -17.5499 -1.99678 -9.08591 15
613 1 -7.099 -8.65359 -1.39746 20
614 1 -2.49825 -10.0685 3.79857 22
615 1 -13.7214 5.53811 -6.20696 20
616 1 5.77599 4.88641 4.18166 16
617 1 -1.44798 8.82845 1.52423 18
618 1 4.26336 -0.263949 1.81104 20
619 1 -12.4742 12.7009 -7.45431 17
620 1 -9.31745 -12.1654 8.51342 20
621 1 -2.11605 6.74988 -0.373054 21
622 1 2.98961 -1.67196 -0.376807 19
623 1 -19.5555 1.58085 3.1788 14
624 1 -14.7227 -8.8385 14.0796 11
625 1 -5.77099 8.79098 7.91082 19
626 1 -15.5177 -15.5147 3.77254 14
627 1 -8.12544 12.1817 -0.0110414 15
628 1 -12.0743 14.7121 10.7194 14
629 1 -13.2617 -3.14375 14.2325 17
630 1 0.0225604 3.79602 0.5455 19
631 1 -11.2954 -8.14716 14.9754 14
632 1 -8.1052 -8.2825 6.01008 18
633 1 -6.86216 1.88127 15.0535 15
634 1 1.39635 -4.45924 -5.32098 14
635 1 -19.6165 4.65118 -9.23496 10
636 1 -18.2681 9.56451 -4.91019 19
637 1 -21.0823 14.2129 0.338999 10
638 1 -1.92498 15.9037 -0.608816 14
639 1 -9.48895 6.97982 9.24678 15
640 1 -17.7912 -13.9735 -3.06456 9
641 1 -12.7659 9.07658 -1.72377 20
642 1 3.91895 5.43007 11.9943 11
643 1 -10.123 -5.33753 5.99723 20
644 1 0.186568 -2.1239 -7.00002 15
645 1 -2.37533 -14.3944 -2.46756 12
646 1 0.641829 1.17211 -9.82079 9
647 1 -18.132 -0.457131 -11.2007 9
648 1 -14.8066 -5.91952 5.71231 17
649 1 -20.3473 12.0094 -2.17064 19
650 1 -7.35822 -1.25727 16.32 10
651 1 0.686553 -9.37448 7.981 19
652 1 -15.477 -9.17122 4.71302 19
653 1 7.7942 -2.57083 6.0165 9
654 1 -9.59638 1.96911 -9.11413 14
655 1 3.88644 1.99176 3.90674 20
656 2 -18.6613 7.46408 -5.17816 19
657 2 -14.7685 7.09545 -4.27714 17
658 2 -11.7048 3.83844 -12.5284 10
659 2 -8.90487 10.2775 14.8657 13
660 2 -20.9832 -6.5131 -3.62108 16
661 2 -6.32477 5.3716 16.4152 11
662 2 -21.5749 -5.7657 -0.182902 16
663 2 -22.4595 12.5194 -2.63556 11
664 2 -7.56463 13.4626 12.962 11
665 2 -21.2615 4.12143 8.39291 12
666 2 -2.60092 5.069 3.5472 17
667 2 -19.7621 -3.76212 -4.86152 18
668 2 -14.2874 3.5097 6.72407 18
669 2 -9.38346 -13.414 4.41417 17
670 2 -4.06783 4.23446 12.6429 17
671 2 -5.62968 0.310208 -5.91193 19
672 2 -14.0472 -14.506 8.58418 11
673 2 -16.3823 10.1551 4.38967 20
674 2 -25.0587 1.12586 -1.31993 10
675 2 0.296439 4.7016 14.838 11
676 2 -5.32674 -5.79171 2.35788 20
677 2 -15.9771 -10.9556 5.32897 19
678 2 -20.5395 -1.04122 7.81231 16
679 2 -7.47166 -12.14 8.68129 19
680 2 -0.411016 -9.90205 6.02265 20
681 2 -13.5528 -15.2648 2.44153 18
682 2 -2.81918 -0.973839 14.6022 8
683 2 -7.9745 15.3035 -2.91934 12
684 2 -18.3169 -12.0177 4.19497 15
685 2 -12.2819 6.51305 15.6089 15
686 2 -19.2131 10.4063 2.07842 16
687 2 -12.3728 4.06781 15.1673 15
688 2 -14.2381 12.596 0.42385 18
689 2 0.35322 -15.6284 6.01253 12
690 2 -9.76646 8.0276 11.0249 18
691 2 -10.5601 14.2862 -3.22294 18
692 2 -4.05399 -10.0209 -8.52828 8
693 2 -4.837 3.23812 -9.59808 17
694 2 -3.71551 -1.62781 -0.908764 17
695 2 -11.4987 10.4166 10.7027 19
696 2 1.58029 5.75565 -7.17162 12
697 2 -16.188 9.52727 -6.4806 19
698 2 -1.13382 10.4328 -1.18383 19
699 2 -13.4896 -1.17314 14.0517 18
700 2 -22.9787 3.20915 6.40711 11
701 2 1.79489 -2.41692 -6.24293 12
702 2 0.166974 -11.7025 -4.69862 13
703 2 -21.4175 -8.86274 0.983178 13
704 2 2.2662 11.4331 3.40922 16
705 2 -10.9419 8.87329 4.54093 17
706 2 -7.66317 -11.3894 4.01989 17
707 2 -12.3636 15.3559 8.71607 13
708 2 -2.78232 -11.982 10.4131 18
709 2 -2.48303 -5.54864 8.81021 18
710 2 -24.2893 -2.26119 -1.14398 14
711 2 -2.96076 -2.25585 5.82314 15
712 2 2.10266 -15.3907 3.80183 10
713 2 -0.0734921 16.7432 4.47048 14
714 2 -15.3954 -17.4303 2.8425 10
715 2 1.96493 -1.02481 8.31724 17
716 2 -10.4187 -1.18735 13.5688 17
717 2 5.6202 -5.3614 -1.34765 13
718 2 -7.69094 7.17329 12.6352 18
719 2 4.19671 10.3378 7.59287 9
720 2 -12.8506 12.923 10.8825 15
721 2 -5.57282 8.81831 3.32694 21
722 2 7.63355 1.92725 6.44604 11
723 2 -11.9235 12.5252 -5.53562 22
724 2 -18.5682 -6.03337 -6.2588 15
725 2 -17.8332 -2.65683 11.1755 14
726 2 2.2371 -3.99822 -3.68107 15
727 2 -17.5075 2.49174 3.09186 17
728 2 -19.7772 -1.67784 5.62343 17
729 2 -21.481 -9.66596 3.4565 12
730 2 4.43259 1.41756 8.35732 14
731 2 -7.84834 -3.2125 9.69955 20
732 2 -9.98086 -0.423112 16.8332 13
733 2 -3.04279 -4.6 -10.7258 10
734 2 -0.0588573 11.7083 11.0542 11
735 2 -14.5936 10.7192 6.80041 20
736 2 -17.5415 1.22073 8.77855 15
737 2 -8.12665 -11.6184 1.5197 18
738 2 4.594 6.57999 -2.72289 11
739 2 -14.4171 15.1285 2.81199 15
740 2 -12.2449 -12.6496 4.17454 22
741 2 -5.05113 -6.36237 -1.72846 12
742 2 -6.97758 2.09739 11.0041 19
743 2 -0.256891 -14.2544 -3.1715 11
744 2 -0.248255 4.87957 7.88212 15
745 2 -10.9423 -8.43155 10.65 18
746 2 3.65344 4.57276 10.0655 14
747 2 -17.5636 -7.85689 11.725 14
748 2 0.145895 4.01348 -5.73523 15
749 2 -13.2956 -12.6289 6.85908 17
750 2 2.74841 -6.5969 -3.99326 13
751 2 -7.66406 -11.5673 -2.80482 16
752 2 4.20487 -4.39106 4.97426 15
753 2 -17.5063 6.84132 5.99376 19
754 2 7.68004 -3.76594 4.51427 11
755 2 -22.036 -1.76979 -4.69672 13
756 2 -19.4846 -9.0807 9.42274 11
757 2 -16.6946 -5.69742 4.89433 18
758 2 -13.7339 -12.2189 1.32369 19
759 2 -12.2076 16.9489 1.72287 17
760 2 -17.5296 11.5374 7.92493 16
761 2 4.87558 10.9281 1.70812 11
762 2 -8.49737 8.59779 -12.2061 7
763 2 -15.7159 -1.55809 16.2921 12
764 2 -15.5921 3.17046 -9.37401 11
765 2 -22.1834 0.296188 0.259707 17
766 2 -10.1098 8.57071 13.6391 22
767 2 -20.092 6.03454 1.05 17
768 2 1.08601 13.7543 5.90194 15
769 2 8.67975 1.38292 3.20818 11
770 2 2.03975 -2.72978 3.23874 20
771 2 -14.7482 -3.40664 18.5855 10
772 2 -5.64453 13.368 -1.66288 18
773 2 -19.1292 11.0125 -0.556148 18
774 2 -14.2746 16.176 6.07554 10
775 2 1.16207 -7.38293 4.35174 18
776 2 -16.4008 -4.37444 -1.09127 17
777 2 -3.6234 10.1747 -3.54066 16
778 2 5.41131 4.23474 6.91373 15
779 2 -18.8181 -6.94638 6.94616 19
780 2 -11.284 8.90598 -5.93876 19
781 2 -14.9728 15.0728 -7.10557 8
782 2 -3.06561 17.2609 0.0274998 10
783 2 0.88729 7.15463 15.0623 11
784 2 -5.87606 9.09434 9.97074 21
785 2 3.09335 -9.6217 -3.72701 11
786 2 -13.7642 -1.28876 19.2991 7
787 2 2.68727 -7.13301 9.44554 9
788 2 -17.4691 -1.90673 0.968169 22
789 2 -13.6836 -5.59196 -10.308 17
790 2 -1.49021 -17.0986 4.56234 8
791 2 -3.53461 -4.12553 -8.10724 16
792 2 7.21188 3.74219 4.46118 14
793 2 -15.1075 7.67947 14.8912 9
794 2 -1.86161 4.39944 -7.92331 18
795 2 -14.2153 -9.71063 12.0394 16
796 2 -12.591 5.41978 -9.66099 15
797 2 -10.7232 -14.1042 1.52058 17
798 2 -2.75065 -14.0514 5.21497 15
799 2 6.78389 4.05097 -2.06358 10
800 2 -18.9608 0.643176 -6.91419 11
801 2 -12.5578 9.25398 7.81189 20
802 2 -12.1112 -7.26269 2.52056 17
803 2 -18.6838 11.2297 -6.50046 14
804 2 -3.01294 14.6368 -1.55404 15
805 2 -11.7791 11.357 -2.20097 20
806 2 -16.8932 -13.3362 9.49499 13
807 2 6.77861 -2.24178 7.42445 9
808 2 -8.75647 2.56153 16.3318 15
809 2 -19.6375 -15.3399 4.15952 4
810 2 0.431348 -14.1909 0.619952 16
811 2 -7.3497 0.167119 15.1446 15
812 2 -5.08233 6.84287 14.5542 14
813 2 6.60806 -4.28238 1.33573 13
814 2 -0.236063 -11.5766 12.0893 9
815 2 -1.26606 10.5015 2.06692 17
816 2 -17.6154 3.34718 13.6008 9
817 2 0.307399 3.62344 5.15239 20
818 2 -2.237 14.2351 3.4337 19
819 2 -2.55844 4.98546 9.7608 18
820 2 -11.9614 -4.01932 -12.0256 11
821 2 -3.61315 -7.38489 4.74971 19
822 2 -16.5453 14.0534 6.02516 11
823 2 -5.20573 -9.48576 8.77551 19
824 2 4.54985 -9.18075 3.65167 14
825 2 -13.7299 -18.7845 1.11738 6
826 2 -21.6571 14.7528 -1.4287 6
827 2 -13.3734 -9.86074 -8.69258 9
828 2 -9.65927 -12.8381 -2.0974 13
829 2 -7.09951 3.04696 -7.59053 20
830 2 -15.254 -8.29882 -10.6978 9
831 2 -3.8611 11.0739 4.05917 18
832 2 -16.0716 -2.09649 3.96634 20
833 2 -23.6387 -3.79953 1.61424 14
834 2 0.9658 0.638703 3.42709 18
835 2 -22.9021 -2.55014 6.5727 16
836 2 -4.44611 -13.0561 8.89486 16
837 2 -12.3357 9.51617 13.8482 15
838 2 -7.00061 5.37308 -5.4448 18
839 2 -8.71508 -1.87513 -10.0077 14
840 2 -3.40642 -1.21697 -6.26527 15
841 2 8.73667 -1.75852 1.7898 10
842 2 -17.8586 -6.22764 -3.05786 15
843 2 -18.086 7.73727 0.0342868 20
844 2 -12.4554 16.8142 -1.91964 13
845 2 -11.5803 -3.93357 13.4932 19
846 2 -17.3577 4.59105 -5.33054 19
847 2 -5.8254 -6.35464 -7.44804 18
848 2 -9.29524 2.8785 -13.045 10
849 2 -7.40468 18.8068 1.81804 11
850 2 -4.71757 -4.59075 10.7222 19
851 2 -0.459085 -6.39851 -8.84541 10
852 2 -0.285262 3.59709 11.9047 16
853 2 -4.53323 7.22769 -4.11407 19
854 2 -10.3094 -6.34448 -1.04564 19
855 2 -8.37666 10.3056 -7.47843 14
856 2 -5.36152 12.5773 10.9081 15
857 2 0.469651 6.65401 11.099 17
858 2 -20.6248 -4.6216 5.33317 18
859 2 -18.7342 5.06066 3.48202 18
860 2 -9.7497 -13.5559 9.42084 13
861 2 -8.8898 3.21301 -1.90928 22
862 2 -13.2125 -5.31599 10.4969 22
863 2 -15.873 7.54635 8.71606 21
864 2 -17.4979 -3.81656 14.1228 11
865 2 -6.49713 -9.45338 6.4932 22
866 2 -21.7389 12.2192 0.595843 11
867 2 1.10078 2.24605 -8.02094 13
868 2 -24.8761 -1.82726 3.78967 12