ITEM: TIMESTEP
33000
ITEM: NUMBER OF ATOMS
2880
ITEM: BOX BOUNDS pp pp pp
0.0 32.8
0.0 34.14
0.0 31.8
ITEM: ATOMS id type x y z Coordination
39 1 4.90278 0.636272 3.36302 26
6 1 2.3816 2.88195 5.33022 23
3 1 1.97514 0.621684 3.17911 21
218 2 3.0717 4.40271 4.7203 21
182 2 -0.0135606 3.72035 5.42143 22
42 1 5.40622 2.66978 5.8426 24
184 2 1.88846 2.65372 2.21335 21
183 2 0.986513 5.43542 2.37389 20
217 2 5.4249 0.798992 5.25779 23
40 1 3.32335 4.05679 2.79427 22
220 2 4.98908 2.86989 2.58081 25
181 2 1.48233 0.642894 5.13815 21
38 1 5.33303 2.84261 0.697453 23
2 1 2.57275 2.33241 0.499397 20
4 1 0.346059 3.58619 2.06803 22
219 2 3.68731 5.67709 1.88355 23
745 1 0.108376 0.0286799 0.327921 23
7 1 1.56646 1.00347 8.37491 23
188 2 1.71309 2.80358 7.16281 24
222 2 3.51033 3.66345 10.589 22
10 1 2.17713 2.6047 11.3321 20
224 2 4.77776 3.06036 7.61017 23
44 1 3.05908 3.79393 8.3769 22
221 2 5.23176 0.9451 10.2866 21
9 1 -0.0155858 5.46413 11.1844 23
45 1 2.41698 5.01966 11.3202 20
43 1 4.552 1.19002 7.96678 24
46 1 5.02018 2.94321 11.2029 24
185 2 1.90012 1.15591 10.396 23
186 2 0.6459 3.45055 10.51 21
223 2 3.44402 5.5541 7.64267 22
753 1 0.244394 0.262011 11.0301 23
187 2 0.0441965 5.55505 7.75082 22
789 1 3.58288 0.143924 10.6972 26
11 1 2.02854 0.72443 13.6719 23
227 2 3.13146 5.59231 13.0878 25
363 1 1.76797 0.984311 18.8747 22
48 1 3.56771 3.43098 13.8501 23
189 2 1.5321 0.386527 15.5338 24
579 2 3.67105 5.48142 18.2263 23
580 2 4.53666 2.5009 18.6065 24
228 2 5.2467 2.66495 13.0041 27
225 2 4.61886 1.04826 15.8252 24
226 2 3.03072 3.65154 15.7122 24
544 2 1.66928 3.01307 18.4336 24
398 1 4.22332 2.8338 16.7309 22
362 1 1.52477 2.96531 16.4181 26
47 1 5.16554 0.94803 14.0437 25
192 2 2.22572 2.5449 13.1597 25
12 1 0.45656 3.61368 13.6045 23
364 1 -0.0117171 3.82354 19.0275 24
190 2 0.238493 3.93159 15.5347 21
397 1 3.15104 5.63933 15.9233 22
543 2 0.267144 5.56099 18.5023 24
1323 2 3.30495 0.243896 18.1657 23
935 2 0.267823 0.0527592 12.9032 26
578 2 2.87029 4.12087 21.5021 21
366 1 1.62258 2.63067 21.3164 23
367 1 1.23865 1.02443 24.124 23
548 2 1.231 3.0179 23.4731 23
403 1 5.03112 0.408318 23.9346 21
399 1 4.77833 0.718204 19.1065 22
402 1 4.39516 2.7724 21.7973 24
404 1 3.15377 3.40466 24.4412 24
583 2 3.41458 5.01938 23.8141 23
541 2 0.919126 1.10485 21.2295 23
577 2 3.90971 0.693279 21.1266 24
1327 2 3.06003 0.452863 23.7424 23
400 1 3.39596 3.81167 19.5057 25
582 2 3.51014 3.37118 26.3217 22
370 1 1.57454 3.17627 27.1267 22
588 2 5.42012 2.58955 29.0991 21
552 2 2.11027 2.67713 28.8704 23
407 1 4.768 0.766692 29.1178 20
371 1 2.16102 0.848517 29.741 23
545 2 1.45599 1.00622 26.6475 22
408 1 3.80279 3.3952 29.6096 23
546 2 0.00214769 3.93811 26.0384 25
1149 1 3.24773 0.0974066 26.585 23
585 2 5.02883 1.09834 31.7337 23
587 2 3.89356 5.28733 29.0769 23
549 2 2.32471 0.355157 31.6885 21
581 2 5.13115 0.53147 25.9622 24
586 2 3.62256 3.69563 31.4368 24
405 1 3.55773 5.41037 26.7028 24
551 2 0.576148 5.30969 28.7695 22
406 1 5.2336 2.47628 26.8932 26
372 1 0.576732 3.6259 29.8957 23
37 1 4.16485 5.59261 31.8154 24
561 2 2.35131 6.50094 -0.0130977 23
232 2 4.63225 8.42539 2.04702 25
15 1 2.46437 6.91633 2.46156 21
193 2 1.41538 6.31329 5.36017 24
230 2 3.20972 9.6426 5.42803 20
229 2 4.94262 6.6986 4.80418 21
196 2 1.64613 8.66464 2.3129 24
51 1 5.27244 6.53841 2.84902 23
18 1 1.50952 8.50743 5.25892 21
52 1 3.25163 9.47732 3.2083 22
14 1 2.0153 8.51113 0.207078 23
54 1 4.66238 8.45815 5.47618 23
231 2 3.45494 11.2104 2.31376 23
41 1 3.30141 5.64124 5.84499 24
16 1 0.240527 9.84496 3.02777 24
50 1 4.98051 8.57531 0.194579 24
1 1 0.361018 6.07325 0.546356 19
19 1 1.94971 6.73321 8.42969 20
233 2 4.98544 6.00956 10.845 22
234 2 3.37981 9.50755 10.9928 21
22 1 1.69191 8.59544 10.9998 24
57 1 3.69736 11.1507 10.6635 22
56 1 3.21631 9.72223 8.35104 22
200 2 1.80062 8.67119 7.7663 23
236 2 4.61372 8.42814 8.84494 19
55 1 5.02535 6.61806 8.82674 25
58 1 4.70853 8.33031 11.5038 23
197 2 1.44893 6.65509 10.5211 24
199 2 0.183497 11.2449 7.58216 25
237 2 4.54811 6.85703 15.7309 20
374 1 1.12513 8.14252 16.2166 24
239 2 3.51393 11.1664 12.9731 24
410 1 5.117 8.55236 15.7156 19
201 2 1.46781 6.39457 15.4394 24
409 1 3.08614 10.9971 16.0136 21
556 2 2.21376 8.43111 17.8927 24
375 1 1.81906 6.59194 18.4427 23
204 2 1.76106 8.17911 12.8911 22
238 2 3.3697 9.26761 15.5165 23
411 1 4.79326 6.73184 18.8485 22
591 2 3.06608 11.2752 17.9785 21
60 1 3.42391 9.33908 13.5711 24
240 2 5.2078 8.29466 13.1946 21
59 1 4.98755 6.42813 13.488 21
23 1 1.25516 6.34593 13.5768 24
376 1 0.309656 9.50576 18.7582 23
592 2 5.03384 8.62236 18.7612 22
203 2 0.14232 11.1523 12.8615 23
560 2 2.02737 8.47146 23.6252 22
378 1 1.82487 8.37287 21.6159 21
379 1 1.85278 6.64871 24.1513 25
596 2 4.72315 8.61893 23.549 22
415 1 4.57515 6.51205 23.9441 21
554 2 0.312442 9.22304 20.9736 24
414 1 4.53221 8.51425 21.0411 22
416 1 3.70198 10.1362 24.3461 24
553 2 1.48723 6.7349 20.3989 24
590 2 2.79042 10.1104 21.0625 22
589 2 4.69715 6.48571 20.941 22
547 2 0.0918853 6.07797 23.8785 22
380 1 0.378359 9.52525 23.8533 23
401 1 3.05073 6.06709 21.7886 24
412 1 3.27233 9.47445 19.0492 24
419 1 5.0713 6.71081 29.2768 23
382 1 1.37903 8.12843 26.2439 23
383 1 2.39102 6.32759 29.4792 24
384 1 0.544018 9.10642 29.6219 20
563 2 0.0422996 11.335 29.0522 22
558 2 0.280625 9.74166 26.1212 24
557 2 1.84387 6.41375 26.2575 23
420 1 3.15393 9.49067 28.953 19
593 2 5.08891 6.75232 25.7891 23
594 2 3.41427 9.71609 26.1208 21
564 2 1.64249 7.92133 28.8197 24
418 1 4.75203 8.41282 26.721 22
600 2 4.85798 8.55194 28.7193 22
562 2 0.101271 9.39839 31.5813 21
598 2 3.60452 9.47766 31.2486 25
369 1 0.0657537 5.80798 26.7846 23
205 2 1.73087 12.6689 4.30185 24
53 1 2.82024 11.4744 5.63545 21
27 1 2.04051 12.3956 2.27433 23
208 2 1.93544 14.6264 2.54619 22
242 2 3.71419 15.4507 4.67271 23
62 1 4.643 14.279 0.560292 23
244 2 4.99916 14.4676 2.50466 21
66 1 4.79228 13.8854 5.23235 23
609 2 4.6657 12.4664 0.289951 19
64 1 3.42675 15.507 2.90302 22
13 1 0.116724 11.5628 0.109013 21
63 1 4.83668 12.3339 2.74127 23
30 1 2.09749 14.4137 4.94886 22
26 1 1.63029 14.5015 0.656413 22
195 2 0.0402217 11.7509 2.00391 21
241 2 4.78503 11.9052 4.80378 22
65 1 3.14972 16.6144 5.95304 25
17 1 0.21804 11.5912 5.34353 20
49 1 3.13883 11.501 0.0781019 23
31 1 1.5794 12.1071 8.13336 23
32 1 0.590432 15.5012 8.26259 24
67 1 5.15786 12.4976 8.05714 21
34 1 2.357 13.9913 10.8812 21
70 1 5.32548 14.6723 10.6337 20
68 1 3.86987 15.1306 7.89787 22
212 2 2.21222 14.3958 7.03555 23
245 2 5.14314 12.9301 10.2382 22
209 2 1.99801 12.3627 10.1095 23
246 2 3.37 15.2964 9.61774 23
235 2 3.66953 11.4707 7.65361 21
210 2 0.344577 15.0747 10.7523 18
69 1 3.36205 16.9462 10.7226 23
33 1 0.287774 16.8443 10.949 23
21 1 0.176605 11.6373 10.9887 25
214 2 0.319215 14.9202 15.4312 25
386 1 1.89474 13.687 16.1558 23
568 2 1.56102 14.0817 18.172 22
387 1 1.45313 12.2986 19.0215 23
213 2 1.33215 11.8308 15.4604 24
422 1 4.85284 14.2915 15.8414 21
72 1 3.37513 15.2304 13.6918 23
35 1 1.56977 12.2536 13.4557 23
388 1 0.0514861 15.232 18.3313 19
250 2 3.20599 15.2263 15.6689 22
249 2 4.13042 12.6384 15.4593 22
604 2 4.99057 14.1111 17.9163 24
215 2 -0.00839687 16.9045 13.1256 21
423 1 4.31194 12.1647 19.0416 22
251 2 3.4894 16.9205 12.8137 24
424 1 3.2941 15.0146 18.6474 22
252 2 4.77723 14.271 12.7623 23
71 1 4.8903 12.1144 13.7993 21
567 2 0.469661 17.0502 18.1466 24
36 1 0.015771 14.7808 13.4388 24
216 2 1.72628 14.3602 12.883 25
602 2 3.31014 15.2253 20.8251 25
390 1 1.4381 14.2847 21.6602 24
391 1 1.0867 12.9641 24.3012 23
601 2 4.64217 12.18 20.9448 24
572 2 1.48312 15.0696 23.8687 23
608 2 5.08559 14.4674 23.3027 23
427 1 5.14148 12.6761 24.127 22
428 1 3.37335 15.0777 23.7711 22
565 2 1.33979 12.4383 20.9992 23
426 1 4.77921 14.0621 20.9584 20
595 2 2.63281 11.7023 24.229 24
413 1 3.01831 11.9572 22.0263 24
607 2 3.24882 16.837 23.4408 20
431 1 5.07388 12.3647 29.1547 24
394 1 1.79861 14.6562 26.4196 23
395 1 1.55556 12.6145 29.3049 22
576 2 1.64255 14.5609 28.4234 23
605 2 5.22463 12.4454 26.0166 21
612 2 4.62808 14.5576 28.5844 21
430 1 5.07702 14.5285 26.5396 21
432 1 3.20372 15.3925 29.189 24
417 1 2.69747 11.6114 26.4477 21
610 2 3.31631 15.0475 31.4101 23
599 2 3.14463 11.4399 29.114 20
569 2 0.847979 12.8214 26.4658 20
573 2 1.62832 12.6654 31.4268 21
570 2 0.137452 15.4522 25.8552 23
574 2 0.134906 15.1319 31.461 23
396 1 0.473011 15.451 29.4108 24
429 1 3.38201 17.0967 26.2262 23
606 2 3.36569 14.4966 25.5791 21
937 2 4.9653 17.8421 4.69541 24
726 1 1.51416 19.7151 5.80618 21
723 1 1.4162 17.9612 3.26198 25
761 1 3.04442 22.7679 5.70153 21
938 2 3.12979 20.5808 5.17854 22
722 1 1.68214 19.8959 0.495157 24
940 2 4.49452 20.0866 2.37529 22
758 1 4.78806 20.1262 0.583512 22
762 1 4.62048 19.494 5.78064 23
760 1 3.02179 20.8737 3.22878 24
904 2 1.32296 20.0652 3.08765 20
901 2 1.5567 18.0595 5.19848 26
759 1 4.66148 18.2271 2.77995 24
243 2 2.88002 17.3586 2.24271 24
25 1 -0.108718 17.3892 0.238954 22
727 1 2.05165 18.2325 8.1952 26
908 2 1.80737 19.9708 7.62499 21
944 2 5.2612 20.2123 7.38176 21
730 1 1.98162 20.2377 11.4369 24
728 1 0.210117 21.0304 8.38545 22
764 1 3.39109 20.7564 8.58015 24
942 2 3.57063 20.9631 10.4509 24
766 1 4.75074 19.4224 10.7972 24
905 2 1.95704 18.2387 10.8008 20
247 2 3.67796 17.4121 7.56839 23
763 1 5.2947 18.1209 8.30056 25
906 2 0.0581722 20.6463 10.5268 22
943 2 3.0846 22.7713 7.81991 24
211 2 0.388139 17.5706 7.59472 22
941 2 5.20977 17.6215 10.4436 20
1117 1 2.98199 22.4197 16.4399 23
909 2 1.49581 17.8343 15.6378 21
910 2 0.49162 20.6469 16.445 24
948 2 5.30809 20.1614 12.9351 24
1118 1 5.05443 19.8008 15.8168 19
768 1 3.63529 20.614 13.6676 23
1081 1 0.141152 22.3929 16.0546 24
1264 2 1.59448 20.102 18.4847 23
1300 2 5.09719 20.0322 18.5797 25
946 2 3.34215 20.7698 15.5102 24
1082 1 2.06083 19.6469 16.3647 22
767 1 5.26959 17.6607 13.4132 23
912 2 2.02715 19.8044 13.1655 22
731 1 1.75799 17.8532 13.671 23
947 2 3.94383 22.5119 12.9916 25
1120 1 3.38897 20.9853 18.9405 22
603 2 3.26001 17.1425 18.7358 22
945 2 4.88941 17.974 15.5534 25
911 2 0.227604 22.5113 13.4413 23
732 1 0.401517 20.5091 13.773 22
1119 1 5.13421 17.8342 18.8703 21
421 1 3.13889 17.2616 16.5094 24
1083 1 1.6879 18.3972 19.1738 25
1085 1 0.367066 22.4874 21.478 21
1086 1 1.63402 20.1267 21.3549 22
1087 1 1.4114 17.7563 23.789 20
1122 1 5.02619 20.0581 21.2256 22
1268 2 1.84762 19.7786 23.5162 24
1304 2 5.29276 20.6339 23.1684 21
1297 2 4.93867 18.2124 20.8796 22
1124 1 3.60174 20.626 23.9404 23
1261 2 1.24711 18.274 21.2084 20
1298 2 3.21856 21.2122 20.8772 23
1123 1 4.60978 18.5487 23.8769 20
425 1 3.3172 17.2444 21.5361 22
1267 2 0.633612 22.515 23.3429 23
1303 2 3.40337 22.6445 23.8119 23
1088 1 0.495954 20.776 24.5086 22
1269 2 1.4872 18.2094 30.8797 21
1090 1 1.72375 20.0955 26.7404 21
1091 1 1.71803 18.4294 29.0435 22
1306 2 3.16015 20.7594 31.6496 23
1272 2 1.22193 20.8306 28.6712 23
1301 2 5.03546 18.6162 26.307 22
1308 2 4.47753 20.1264 28.5275 23
1128 1 3.34007 21.2845 29.6169 22
611 2 3.34768 17.4048 28.1693 23
1126 1 4.99235 20.2654 26.827 23
1302 2 3.09935 21.3693 26.1775 24
1127 1 4.61844 18.4442 29.3265 22
1265 2 1.64064 17.8842 26.04 24
575 2 0.0638297 17.1684 28.9956 22
1305 2 4.59626 18.1996 31.4073 23
1266 2 0.0917504 20.8686 26.2001 23
61 1 3.04466 17.1958 31.8071 23
913 2 1.43346 23.7144 4.89004 24
734 1 1.22261 26.226 0.379443 22
735 1 1.29257 23.8037 3.02914 23
774 1 4.90585 26.1485 5.44233 22
725 1 0.0984202 22.926 5.96281 23
738 1 1.52258 25.9249 5.42623 23
916 2 1.38492 25.6694 2.21937 24
939 2 2.94384 23.5398 2.20161 22
952 2 5.1811 25.9328 2.72174 24
772 1 3.23925 26.5739 2.82043 24
950 2 3.31909 26.7482 4.64864 25
771 1 4.79956 23.882 3.12744 24
770 1 4.77404 26.0745 0.725328 24
949 2 4.41336 23.757 5.0223 23
757 1 3.31638 23.2387 0.434431 23
1317 2 4.87086 24.27 0.0946745 21
1318 2 3.02577 26.5365 0.08572 20
739 1 1.68432 24.0047 8.54503 22
920 2 1.31735 26.0642 7.47109 23
741 1 0.160248 27.9238 10.8204 18
742 1 1.50315 25.4204 11.1471 24
778 1 4.4586 26.2608 10.9521 22
776 1 3.03796 26.6455 7.84832 23
775 1 4.48408 23.9528 8.3204 23
954 2 2.65741 26.1758 9.53024 23
917 2 1.69981 23.629 10.603 23
956 2 4.58805 25.9538 7.38751 24
953 2 4.53907 24.3153 10.3825 23
777 1 2.95864 28.1477 10.9594 25
765 1 3.46167 22.7415 11.2384 26
907 2 0.0472804 22.9327 8.4318 20
1275 2 0.279124 28.3748 18.3966 22
1276 2 1.31211 25.4424 18.2532 24
1312 2 4.53041 25.7338 18.3288 23
779 1 5.08185 24.0965 13.5996 24
921 2 2.0326 23.6998 15.6822 22
957 2 4.45086 23.3331 15.216 24
1299 2 3.06372 22.8825 18.221 24
960 2 4.60903 25.8066 12.7722 25
1129 1 3.59235 28.3202 16.3189 24
958 2 2.84208 26.6448 15.7423 21
1132 1 2.88902 26.4424 18.4009 24
924 2 1.85482 25.5175 12.896 25
743 1 2.02462 23.3542 13.5283 24
1094 1 1.17871 25.2734 16.2166 25
780 1 3.25608 26.2857 13.769 21
959 2 3.22351 28.3609 13.5369 24
1130 1 4.27076 25.3814 16.2569 23
1096 1 0.0277765 26.6776 18.9711 25
1135 1 4.82436 23.9089 24.4745 25
1098 1 1.54929 25.8761 21.6646 23
1099 1 1.38698 23.8375 24.1285 23
1121 1 3.06053 23.1231 21.8326 24
1310 2 3.12623 26.8456 20.8144 25
1134 1 4.56912 26.1345 21.5263 23
1316 2 4.94633 25.7479 23.7744 22
1136 1 3.457 26.9418 24.5203 22
1273 2 1.27403 24.1513 20.7931 23
1280 2 1.50551 25.9663 23.6496 24
1309 2 4.39589 23.9954 21.1221 22
1095 1 1.4272 23.6277 18.9712 23
1131 1 4.44936 23.5472 19.3283 23
1284 2 1.54894 25.8709 29.005 23
1102 1 1.51685 25.6062 27.0795 23
1103 1 1.29048 23.7979 29.1902 19
1277 2 1.09883 23.8309 26.1536 25
1314 2 2.83965 26.7779 26.4587 21
1307 2 3.51712 23.3118 28.6711 22
1319 2 3.25349 28.2108 28.9077 24
1140 1 3.17224 26.5714 29.983 25
1278 2 0.0643936 26.8384 26.55 21
1139 1 5.31135 23.9775 29.8295 21
1313 2 4.58399 23.856 26.3833 23
1320 2 4.89296 25.8275 29.2202 21
1138 1 4.34033 25.6081 27.4112 24
1281 2 1.805 23.0872 31.1181 22
1125 1 2.92936 22.9312 26.8871 24
746 1 1.6014 30.9953 0.0554752 21
927 2 0.226499 33.8244 2.96547 20
747 1 1.96686 29.4806 2.93045 24
782 1 5.17613 31.0156 0.706185 24
783 1 4.96353 28.9734 3.29506 24
750 1 1.66134 31.2667 5.43145 25
928 2 1.61437 31.1775 2.36905 24
925 2 1.81709 29.24 4.97981 24
781 1 3.66319 33.9831 0.921895 22
784 1 3.33153 31.8526 2.89557 23
962 2 3.49193 32.0495 5.0365 24
964 2 5.27814 31.6718 2.50298 23
769 1 3.05341 28.5285 0.47996 22
961 2 4.7648 29.7564 5.19125 23
951 2 3.40319 28.6127 2.4282 24
963 2 3.45808 33.7502 2.62556 22
749 1 0.166436 33.6876 5.89247 23
748 1 0.080778 32.1145 2.97028 26
785 1 3.33945 33.7617 5.94529 22
773 1 3.29491 28.6654 5.85807 25
915 2 0.0463162 28.5214 2.50664 24
1330 2 3.45508 32.1624 0.041584 22
930 2 0.758795 32.6139 10.4572 24
751 1 1.44929 29.4553 8.52344 24
966 2 3.78591 31.8881 10.0102 23
754 1 2.10948 31.5226 11.0156 21
752 1 0.0956735 32.2084 8.61454 23
788 1 3.20509 31.8292 8.20763 24
932 2 1.31362 31.3526 7.84592 23
965 2 4.34416 29.3818 10.049 21
929 2 1.6984 29.368 10.4002 24
787 1 4.92285 29.4345 8.26584 21
790 1 4.67813 30.8283 11.0224 24
967 2 3.1366 33.7712 7.64318 23
931 2 0.0579393 34.0206 7.8215 24
955 2 3.18905 28.7072 7.62017 23
1106 1 2.01399 30.4208 16.1826 25
1288 2 1.72701 31.163 17.892 25
791 1 4.59944 29.2609 14.0623 22
792 1 3.57783 32.1439 13.7601 26
933 2 0.756063 29.226 15.3077 21
971 2 3.36391 34.0153 12.9622 27
1287 2 0.167802 34.0899 18.0509 24
972 2 5.26801 31.0722 13.2538 21
969 2 4.77975 30.1551 16.3186 21
970 2 2.98784 32.1994 15.4963 22
1141 1 2.99687 34.0507 16.3219 26
934 2 0.31451 31.8971 15.7918 23
1324 2 4.90516 31.3755 18.3572 24
755 1 1.54989 29.1735 13.2867 21
1144 1 3.21667 32.4738 18.4994 25
756 1 0.562407 32.268 13.7152 25
1143 1 4.67919 29.6373 18.9905 25
936 2 2.03457 31.3201 12.8846 23
1142 1 4.84799 31.8875 16.0196 22
1108 1 0.403124 32.1169 18.8262 23
1311 2 3.18582 28.5457 18.039 24
1147 1 4.8773 29.3269 24.1972 23
1110 1 1.64609 31.6491 21.587 25
1111 1 1.44057 29.3469 23.2882 21
1133 1 3.15823 28.511 21.2237 23
1322 2 2.39729 32.7061 20.1933 22
1321 2 4.7678 29.6796 21.0017 22
1146 1 4.5794 31.7018 21.7856 27
1148 1 2.79566 32.5045 24.0013 23
1285 2 1.52836 29.7056 21.1257 23
1292 2 1.0654 31.2413 23.2581 24
1328 2 4.38357 31.6299 23.5872 23
1286 2 0.112763 32.6302 20.8729 22
1315 2 3.1525 28.7989 23.4984 24
1145 1 2.28517 34.1328 21.777 21
1097 1 -0.0196209 28.5231 21.3054 24
1107 1 1.59977 29.5575 19.2067 25
1326 2 3.00311 32.4694 25.9823 23
1114 1 1.88553 31.6145 27.3115 19
1115 1 0.661629 28.7289 29.9926 21
1151 1 4.59906 29.4967 29.413 22
1325 2 4.6241 29.6436 26.1382 22
1293 2 1.27875 29.0827 31.5308 20
1296 2 1.51227 31.45 29.3355 22
1152 1 3.40202 32.0859 29.5318 23
1289 2 1.17121 29.8515 26.8853 21
1329 2 4.87637 29.5361 31.3159 24
1150 1 4.45143 31.5256 26.9004 23
1137 1 2.89357 29.133 27.3186 24
1332 2 5.30208 31.2728 28.7194 24
1331 2 3.28748 33.8273 28.6704 24
1290 2 0.265449 32.5146 26.1769 21
1295 2 0.341235 34.0076 29.4976 20
253 2 8.14921 1.26713 5.38863 22
75 1 8.27388 0.560258 3.63949 25
658 2 9.71522 4.00254 0.0327793 22
76 1 6.74699 3.24134 3.04703 21
256 2 8.47505 1.85467 2.33843 22
78 1 8.33041 3.14414 5.24524 24
254 2 6.70064 3.98991 5.05117 22
112 1 9.36778 3.68441 2.84085 22
290 2 9.85862 3.77118 4.58872 24
74 1 8.23541 2.63378 0.641243 23
622 2 6.92001 3.91024 0.186093 22
113 1 9.88408 5.53101 5.32599 24
857 1 9.97571 0.459261 5.87711 21
255 2 6.8992 5.55452 2.20979 25
853 1 9.88897 0.0515663 0.775513 21
79 1 8.21575 1.25974 8.29237 24
80 1 6.49743 4.30633 7.97849 23
294 2 9.7171 3.92475 10.1684 25
82 1 8.16139 2.88284 10.9323 24
116 1 9.4106 3.85689 8.24639 23
260 2 8.06605 2.89049 7.37168 25
257 2 8.75269 1.22134 10.1618 21
258 2 6.69314 3.46949 10.2914 23
295 2 9.59454 5.56963 7.39601 23
1003 2 6.43162 0.320458 8.05018 24
1039 2 10.203 0.121593 7.80848 23
81 1 6.69147 5.42322 11.0664 22
861 1 9.91588 0.268013 10.752 24
83 1 8.00842 1.0765 13.5524 22
84 1 6.6708 3.83387 13.7005 20
120 1 9.96261 4.30901 13.6408 25
261 2 8.06191 1.64605 15.5224 22
262 2 6.0639 3.87133 15.9335 23
616 2 8.16985 2.9163 18.4188 23
1177 1 6.4981 0.45363 16.4291 23
298 2 10.0253 3.89376 15.9743 21
434 1 7.75062 3.2172 16.3683 24
264 2 8.57507 3.08868 13.0965 22
1043 2 9.82892 0.162973 12.7449 23
1359 2 6.7799 0.067585 18.4674 24
1395 2 9.47754 0.179683 17.9759 26
435 1 8.23481 0.937719 19.1489 21
1213 1 9.74353 0.244991 15.9179 24
433 1 5.81197 5.61993 16.6858 21
436 1 6.15077 3.16162 19.092 22
620 2 8.28578 2.90986 24.1555 19
438 1 8.08344 2.94263 21.5752 23
439 1 7.84648 0.947967 24.395 23
440 1 6.38386 3.76711 24.1 23
650 2 10.002 3.6676 21.0909 21
476 1 10.0347 3.42051 24.4521 22
613 2 8.29404 1.18633 21.3183 21
614 2 5.76789 3.62271 21.0056 22
655 2 9.69793 5.50332 24.1763 21
437 1 6.33849 5.499 21.3809 22
1181 1 6.3533 0.0373387 21.4759 22
472 1 9.74797 3.73458 19.2002 24
584 2 5.82935 2.24974 23.5462 22
473 1 9.37086 5.33464 21.6522 19
615 2 6.04175 5.25467 19.2136 19
659 2 9.53139 5.24249 28.8698 23
442 1 8.30052 3.21547 26.4926 25
443 1 7.95432 1.13356 29.1355 21
444 1 6.76841 4.07644 29.5178 24
624 2 8.07863 2.96884 28.5888 23
480 1 9.65801 3.57601 29.4601 21
617 2 8.11637 1.28241 26.3387 21
618 2 6.14567 3.81321 26.1197 24
1221 1 9.92735 0.242995 27.0039 23
654 2 10.1248 3.95885 26.4084 23
1367 2 6.30535 0.159004 28.7487 21
623 2 6.4516 5.55965 28.5199 24
621 2 8.05488 0.693774 31.5659 21
477 1 10.196 5.66613 26.6614 21
73 1 6.75867 6.038 0.338857 25
302 2 10.2166 9.65808 4.82242 23
87 1 8.15087 6.52192 3.1054 22
88 1 6.67168 9.46423 2.58319 21
268 2 8.4956 8.26664 2.57584 21
90 1 8.67623 8.55171 6.09025 21
265 2 8.09532 6.67457 5.07612 22
124 1 9.94584 9.22077 3.00658 22
266 2 6.35169 9.25087 4.9975 20
86 1 8.20198 8.52378 0.447921 24
634 2 6.62718 9.62756 0.309901 20
109 1 9.46061 5.8903 0.42733 21
77 1 6.37615 5.90245 5.61888 24
89 1 6.61128 11.0931 5.00947 21
121 1 9.87728 11.246 0.0191225 21
291 2 10.1272 5.78653 2.35581 23
91 1 8.27887 6.77334 8.27449 22
92 1 6.44198 9.32494 8.40636 23
306 2 9.89063 9.34404 10.2113 23
94 1 8.24553 8.49249 11.0744 23
259 2 6.91069 6.00811 7.25997 25
272 2 8.3507 8.40925 7.81871 22
269 2 8.04869 6.65135 10.3181 25
270 2 6.23861 9.60609 10.6727 21
307 2 9.61814 11.0179 7.267 22
117 1 9.90701 5.92129 10.5966 21
128 1 9.78553 9.59255 8.3453 22
129 1 10.382 11.2849 11.1246 24
127 1 10.9178 6.85965 8.0795 24
447 1 7.71234 6.85917 19.0457 20
469 1 9.94121 5.78626 16.3363 21
132 1 10.064 9.5598 13.2581 23
273 2 8.61917 7.0929 15.7454 20
274 2 6.51169 9.98414 15.6297 22
446 1 8.30278 9.1232 15.9137 21
96 1 6.49972 9.69319 13.4347 21
310 2 10.2158 9.52733 16.1201 22
628 2 8.27504 9.05914 17.9754 22
95 1 8.17649 6.29672 14.0302 23
484 1 9.82297 9.61619 18.9592 22
651 2 9.28745 5.93995 18.6377 20
276 2 8.20768 9.21903 12.8618 22
299 2 9.64205 6.06299 13.1371 21
448 1 6.67832 9.65428 18.635 20
263 2 6.64862 5.73118 13.292 24
481 1 9.96174 11.3841 16.5157 23
662 2 9.92374 9.38819 20.8115 24
450 1 8.23499 8.58577 21.6863 22
451 1 8.05809 6.36826 24.1995 24
452 1 6.59917 9.02272 24.2448 22
632 2 8.29434 8.38057 23.6661 22
488 1 9.66852 9.83065 24.3219 23
625 2 8.04242 6.79655 21.1078 23
626 2 6.45365 9.29693 21.3386 22
631 2 6.45825 11.0537 23.7222 22
449 1 6.15686 11.1536 21.4926 23
619 2 6.30309 5.7405 23.4897 23
636 2 8.23459 8.47956 28.8351 26
454 1 8.64335 8.51113 26.8617 20
455 1 8.56833 6.7815 29.0932 24
456 1 6.73308 9.17554 29.6925 25
453 1 6.55495 11.262 26.5581 23
492 1 9.81912 9.29942 29.4962 23
629 2 8.15242 6.72409 26.4517 21
630 2 7.19765 9.82695 25.9547 24
666 2 10.1416 9.76423 26.3414 23
597 2 5.48748 6.85119 31.1224 24
633 2 8.19399 7.21276 31.0801 24
670 2 9.59616 9.46809 31.4083 23
635 2 6.36401 10.9516 28.8662 22
671 2 9.8395 11.3442 29.484 21
441 1 6.63696 5.81248 26.6288 26
277 2 8.33363 12.2895 4.46597 22
85 1 6.52625 11.8918 0.491937 24
99 1 8.65102 12.3138 2.65482 20
100 1 6.85108 15.1957 2.64669 24
280 2 8.96364 14.0118 1.72356 21
102 1 8.4261 14.5165 5.31252 20
314 2 10.2222 15.4512 4.91573 24
136 1 10.1899 15.0723 2.5644 23
278 2 6.58471 15.1111 4.47893 22
125 1 9.87422 11.5768 5.37617 21
267 2 6.74267 11.6036 2.28099 20
303 2 10.7098 11.7761 1.72871 21
101 1 6.75906 16.9531 5.15315 21
103 1 8.49065 12.4264 8.47811 22
104 1 7.15643 14.8526 7.86747 20
318 2 10.1472 14.7038 10.2997 22
106 1 8.51399 14.1367 11.5661 22
140 1 10.0128 15.3502 8.21712 22
284 2 8.74423 14.0393 7.10751 20
281 2 8.49171 12.1117 10.6563 21
282 2 7.06112 15.2664 10.0372 25
319 2 10.3988 17.0179 6.97167 22
248 2 5.54705 14.458 6.8111 24
93 1 6.4378 11.594 10.9195 22
283 2 6.52988 17.0378 7.78104 23
141 1 9.89042 17.1161 10.6684 22
271 2 6.70927 11.5147 8.28868 19
287 2 6.69606 16.5861 12.5483 23
285 2 8.21325 12.5985 16.0107 21
459 1 8.08585 12.3602 19.0007 24
144 1 10.3887 15.5362 13.9093 22
108 1 6.75844 14.952 13.5534 24
286 2 6.62549 15.419 15.621 22
640 2 8.38522 14.1676 18.2987 23
458 1 8.23804 14.4018 16.4313 24
322 2 9.75613 15.5345 15.8101 22
663 2 9.74366 11.4749 18.6655 21
627 2 6.01372 11.5951 18.2243 22
107 1 8.47896 12.305 14.0268 25
288 2 8.92291 14.0283 13.3365 22
639 2 6.91385 16.8149 18.4828 20
275 2 6.7355 11.703 13.4625 22
311 2 10.6461 11.4184 12.9537 22
460 1 6.5852 15.0769 18.6356 22
445 1 6.29824 11.7307 16.294 23
644 2 7.89651 13.987 23.6704 21
462 1 8.50981 14.271 21.7194 22
463 1 8.08352 12.1574 24.0193 23
464 1 6.59258 15.4395 23.5948 20
674 2 10.0052 15.3667 21.0292 24
500 1 9.62452 14.9551 24.2927 23
637 2 7.96941 12.7615 20.9358 21
638 2 6.64105 15.0937 20.6733 22
485 1 9.58996 11.4234 21.518 23
679 2 9.4477 16.8944 23.8989 24
667 2 9.80063 11.7257 23.4211 22
496 1 9.96259 15.2419 19.1971 27
678 2 9.96689 15.1101 27.0743 20
466 1 7.81688 14.2405 27.0768 20
467 1 8.0851 11.9989 29.0966 20
468 1 6.35749 15.1475 29.2993 21
646 2 6.57128 15.0947 31.5972 21
504 1 10.1068 14.8889 29.2545 22
682 2 9.87022 15.7417 31.2079 22
642 2 6.61177 15.5886 26.2448 23
648 2 7.71875 13.8149 29.1064 21
641 2 8.17468 12.6734 26.3095 22
489 1 9.74172 11.43 26.9118 24
645 2 8.05641 12.3262 31.2859 24
98 1 8.57901 14.338 31.6463 19
976 2 7.70844 19.8839 2.43227 22
315 2 9.97812 17.1468 2.50529 23
795 1 8.0583 17.834 2.7164 21
796 1 6.28538 20.933 3.30957 24
794 1 7.90913 20.2929 0.626262 21
798 1 7.80524 20.1265 5.70958 23
974 2 6.91696 21.4777 5.07191 21
832 1 9.72463 20.7962 3.55254 24
1010 2 9.42925 20.9832 5.41629 23
137 1 9.75251 17.3273 4.84437 21
973 2 7.92932 18.558 4.46798 24
279 2 6.40235 17.1487 2.5416 23
975 2 6.00985 22.5995 2.59312 20
829 1 9.77026 22.6481 0.238758 21
1011 2 9.01215 22.2798 2.87213 21
133 1 9.66575 17.2095 0.638991 24
799 1 8.61136 17.9249 7.81671 23
800 1 6.68823 21.0074 8.30408 22
1014 2 9.44649 20.8075 10.1273 21
802 1 8.0054 19.7962 10.6008 24
836 1 10.2724 20.6368 8.4252 23
980 2 8.19422 19.6484 7.97343 21
1015 2 10.0237 22.3969 7.60089 24
978 2 6.34504 20.9054 10.3532 23
977 2 8.50472 17.9238 9.80097 23
105 1 6.99237 17.0892 10.6992 21
323 2 9.84856 17.1879 12.4873 23
984 2 7.83839 19.9186 13.7033 18
803 1 8.42735 17.9139 13.7153 24
675 2 10.0385 17.1421 18.5788 23
981 2 8.35146 17.4567 15.6926 22
804 1 6.36721 21.4427 13.5907 23
982 2 6.40829 21.0296 15.7512 23
1154 1 8.12632 20.0037 16.1191 21
1018 2 9.77602 20.9713 15.4106 23
1020 2 10.959 19.9925 12.828 22
840 1 9.51386 20.963 13.5079 23
1336 2 8.63278 19.9333 18.1657 23
1192 1 10.1203 20.8293 18.8613 24
457 1 6.56713 17.1804 16.5819 24
1155 1 8.27559 18.0382 18.7937 26
493 1 10.0996 17.1237 16.6436 22
1189 1 9.33758 22.7295 16.2841 22
1370 2 9.91082 20.7136 20.6671 24
1158 1 8.63385 19.6277 21.5793 24
1159 1 8.28373 18.2137 24.1106 23
1160 1 6.84945 21.0331 24.2371 24
1340 2 8.63975 20.4003 23.32 23
1196 1 10.068 21.0893 24.5832 25
1333 2 8.39555 18.2104 20.6213 24
1334 2 6.87609 20.8156 21.1698 21
461 1 6.71295 17.184 21.0748 22
643 2 6.45936 17.4831 23.3578 22
1193 1 9.84239 22.5581 21.7147 24
497 1 10.2189 17.1322 21.6364 22
1157 1 6.31937 22.7203 21.5442 22
1156 1 6.83126 20.8301 19.1047 22
1342 2 5.89793 21.601 31.4062 22
1162 1 7.80212 19.7866 26.8922 22
1163 1 8.08035 18.1689 29.8467 23
1164 1 6.36004 20.9988 29.758 25
1374 2 9.66686 20.8211 26.4757 24
1200 1 9.52941 20.6484 29.6203 22
1337 2 7.73943 18.1994 25.9741 22
1338 2 6.59415 21.7856 25.9959 25
1344 2 7.63192 19.8841 29.033 23
1341 2 7.98004 18.5462 31.7897 21
465 1 6.35573 17.2905 27.3231 20
647 2 6.19249 17.2809 29.5773 19
501 1 9.86918 17.0608 26.752 21
683 2 9.39584 17.377 28.6569 23
1379 2 9.87271 22.6882 29.28 22
1343 2 6.26601 22.6464 28.8858 24
1378 2 9.79285 20.7844 31.7064 23
97 1 6.35505 17.1815 31.5632 20
1022 2 9.93903 26.5241 5.02567 23
797 1 6.08751 23.0585 5.68659 23
807 1 7.80564 23.6026 3.12133 25
808 1 6.81595 26.8031 3.08752 22
988 2 8.0333 25.7069 2.52135 22
810 1 8.26564 25.9252 5.61417 21
986 2 6.59807 26.7344 4.9706 26
844 1 9.68984 26.6589 3.13611 22
985 2 8.0876 23.9777 5.79239 20
806 1 8.10831 25.6063 0.529633 22
1024 2 10.8603 25.5497 2.00501 22
1023 2 10.3324 28.42 2.4365 22
845 1 9.71573 28.3922 5.49827 21
793 1 6.41868 23.2844 0.248927 23
809 1 6.44958 28.5062 5.49667 23
833 1 9.6548 22.9328 5.73398 21
990 2 6.15941 26.3219 10.0594 25
812 1 6.29569 26.619 8.0327 26
992 2 8.06179 25.7761 8.10992 18
814 1 7.77239 25.9637 11.0612 26
848 1 10.1453 26.5302 8.7513 24
1026 2 9.89818 26.5121 10.9073 22
989 2 8.3083 24.117 10.2517 21
801 1 6.3274 22.8392 10.6758 23
811 1 8.37791 23.798 8.43976 22
979 2 6.27971 23.0255 8.03827 21
983 2 6.4642 23.2136 12.6311 23
1027 2 9.85944 27.9457 7.47626 22
837 1 9.65769 22.7542 11.0552 24
815 1 8.06948 24.2481 13.4046 22
1166 1 7.96232 25.8312 16.4589 22
852 1 9.79312 26.8171 13.6107 22
993 2 7.72269 23.8006 15.6788 24
996 2 8.22278 26.2069 13.3686 26
994 2 5.74884 26.5378 15.755 24
816 1 6.4367 26.4572 13.8408 23
1030 2 9.8855 26.182 15.6569 21
1348 2 7.84927 25.1905 18.2843 20
1168 1 6.43447 26.7397 18.254 23
1371 2 10.1172 22.7669 18.4636 23
1335 2 6.58285 22.88 18.3251 23
1383 2 9.63449 28.1549 18.2917 23
1032 2 10.695 25.2701 13.246 20
1201 1 9.85297 28.437 16.2064 23
1019 2 9.29919 22.8543 13.0236 21
1153 1 6.02438 23.247 16.2751 23
1167 1 8.27569 23.5251 18.9576 24
1204 1 8.79715 26.8404 19.1453 19
1382 2 9.13332 26.3715 20.7584 22
1170 1 7.08786 25.3748 21.7783 21
1171 1 7.89455 23.474 24.4744 23
1172 1 6.30478 26.875 24.2779 23
1352 2 7.85843 26.3112 23.4455 23
1208 1 9.61745 26.5712 23.6459 21
1345 2 8.07419 23.534 21.0729 22
1346 2 6.21386 26.6309 20.6567 21
1207 1 10.8877 23.9945 24.4968 22
1206 1 10.7716 25.4263 21.0353 22
1375 2 9.63401 22.8809 23.6961 23
1339 2 6.24274 23.0199 23.4361 22
1351 2 6.31433 28.4703 23.2211 26
1386 2 9.2463 26.5597 25.5501 23
1174 1 7.54228 25.8905 26.5025 25
1175 1 8.23297 23.8417 29.7299 23
1176 1 6.53179 26.8993 29.5478 23
1356 2 7.86018 25.4339 29.0191 24
1212 1 9.54103 26.2844 29.238 23
1349 2 8.13594 23.8543 26.3341 22
1161 1 6.33554 23.3074 26.9582 22
1350 2 5.99161 26.9951 26.4513 25
1353 2 8.30991 23.4923 31.6652 24
1391 2 9.37097 28.2363 28.7828 24
1354 2 6.44368 26.2753 31.6855 22
1390 2 9.51963 26.4118 31.4852 22
1197 1 9.45103 22.8287 27.2139 23
1034 2 10.2678 32.572 5.27409 23
997 2 8.40755 29.5346 5.27345 24
819 1 8.39326 29.182 3.22218 22
820 1 6.99875 31.9717 3.0287 23
822 1 8.59002 31.719 6.13685 24
818 1 8.39673 31.464 0.240971 24
998 2 7.30132 32.395 4.95067 23
856 1 10.2571 31.6775 3.39858 24
1000 2 8.53883 30.9002 2.45014 24
1035 2 10.0801 33.7676 2.61077 23
786 1 5.42636 31.5947 5.44718 24
987 2 6.81979 28.7626 2.30103 24
821 1 6.84575 34.0907 6.11256 22
805 1 6.4943 28.9079 0.634738 23
999 2 6.65696 34.0145 2.61028 26
817 1 6.38287 33.9408 0.690323 23
841 1 9.7 28.5887 0.633881 24
823 1 8.0598 29.292 8.45939 21
824 1 6.61762 32.4222 8.63146 22
1004 2 8.39952 31.5934 8.46802 23
826 1 8.51783 31.0968 10.6507 20
860 1 9.98537 32.5873 8.50059 21
1038 2 10.3322 32.1927 10.4676 21
1001 2 7.9903 28.9401 10.7959 22
1002 2 6.17002 32.2243 11.048 19
1008 2 8.26208 31.5332 12.3066 24
968 2 5.7858 32.1126 6.98436 19
991 2 6.54313 28.8707 7.56078 24
813 1 6.13075 28.4402 10.8649 22
825 1 6.6043 34.1052 10.9324 24
849 1 10.0445 28.4507 10.8572 24
1031 2 9.72881 29.0601 12.5422 23
1180 1 6.69973 32.2506 18.6572 23