ITEM: TIMESTEP
31000
ITEM: NUMBER OF ATOMS
2880
ITEM: BOX BOUNDS pp pp pp
0.0 32.8
0.0 34.14
0.0 31.8
ITEM: ATOMS id type x y z Coordination
39 1 4.44525 1.08317 3.2126 24
217 2 4.84825 0.884621 5.20449 20
3 1 1.5449 0.678267 2.8867 24
218 2 3.51949 3.55842 5.06681 22
5 1 0.176988 5.5822 5.69431 24
6 1 1.67933 2.37751 5.63486 24
184 2 1.53043 2.63887 2.66613 21
2 1 1.53928 2.70205 0.355253 23
42 1 5.24088 2.88242 5.8127 22
40 1 3.35438 4.02946 3.18373 24
220 2 4.76294 2.90192 2.44969 22
181 2 1.9958 0.313976 4.90659 20
38 1 4.90316 3.04856 0.520309 25
183 2 0.264314 5.63658 2.67699 22
963 2 3.21933 0.0143877 2.3135 23
182 2 0.203811 3.59958 5.01764 25
1 1 1.07491 5.28234 0.631857 20
586 2 3.04889 4.00375 0.220256 18
7 1 1.42108 0.880312 7.53497 24
188 2 1.58915 2.92335 7.45356 20
222 2 2.67656 3.97007 10.091 21
10 1 1.70656 2.44852 10.8956 23
8 1 0.020527 3.6645 8.49979 23
44 1 3.27038 3.73704 8.21819 22
221 2 5.08449 1.01009 9.92009 25
46 1 5.20138 2.80902 10.9019 24
185 2 1.7503 0.543571 10.7554 20
43 1 5.03326 0.863085 7.90755 21
224 2 4.6119 2.47445 7.67195 23
789 1 3.50517 0.545695 10.833 24
11 1 2.07861 0.998664 13.6511 23
228 2 4.82383 2.7098 12.842 24
225 2 4.86203 0.761443 15.0669 26
48 1 3.67864 4.1907 13.4235 25
189 2 2.36038 1.38693 15.7453 23
544 2 1.72396 3.16838 18.8127 21
12 1 0.388413 4.15617 13.5152 21
47 1 5.30735 0.980305 13.3734 24
398 1 5.095 2.61224 16.0166 21
226 2 3.80885 3.98166 15.6323 20
400 1 3.54512 3.93102 19.0116 20
192 2 2.01741 3.11589 13.0557 23
362 1 2.02797 3.16156 15.7907 20
1323 2 2.84478 0.0568295 18.3811 23
580 2 4.95889 2.94869 18.2175 22
399 1 4.54019 1.00437 18.8531 22
190 2 0.326445 4.23224 15.1623 26
364 1 0.0981224 4.12429 19.0441 23
971 2 3.61389 0.153815 12.7516 23
1105 1 0.346894 0.339008 15.8392 23
935 2 0.542777 0.162881 13.0017 22
578 2 3.2669 3.61359 21.0122 20
366 1 1.67235 2.95958 21.4287 21
367 1 1.82574 1.27455 24.5506 21
548 2 1.87541 2.56806 23.3234 23
577 2 5.0713 0.59678 20.7481 21
584 2 5.12724 3.13538 22.8088 23
402 1 5.07007 2.79831 21.2396 23
404 1 3.4815 3.41165 23.9005 21
368 1 0.453168 3.83297 24.1737 22
541 2 1.8501 0.375039 20.9564 22
403 1 5.17319 0.890112 24.1074 22
583 2 3.62338 5.49041 23.6641 22
1327 2 3.42351 -0.10058 23.8394 21
363 1 1.39074 1.06171 19.1572 22
582 2 3.15504 3.16618 25.8004 21
370 1 1.92797 2.73053 27.0484 22
372 1 0.0997372 3.61563 29.4692 23
552 2 2.16793 2.3882 28.8793 22
407 1 4.45592 1.05973 29.5421 22
371 1 1.25145 0.860661 29.4369 24
406 1 4.92189 2.47604 26.9666 25
408 1 3.18599 3.77961 29.8402 25
545 2 2.14934 0.806199 26.7525 20
405 1 2.94959 5.43456 25.8845 20
588 2 4.86926 3.02215 28.9219 21
550 2 0.0963432 3.80555 31.3692 22
585 2 4.47868 1.34718 31.6571 22
546 2 0.208865 4.25385 26.1834 23
581 2 5.36044 0.811295 26.1357 22
587 2 2.45495 4.82468 27.8758 17
551 2 0.0210737 5.61106 29.302 25
549 2 1.72803 0.74369 31.5513 23
51 1 4.91481 7.02267 3.24885 24
54 1 4.98466 8.72507 5.51928 23
15 1 1.85433 6.86305 3.25836 21
193 2 1.66493 6.55434 5.14247 24
230 2 3.34562 9.59715 5.35964 25
232 2 4.95238 8.78158 2.45425 23
196 2 1.89652 8.61678 2.37392 24
229 2 4.90858 6.97639 4.97455 25
18 1 1.89685 8.56989 5.95977 24
52 1 3.05503 9.64688 3.02225 24
219 2 3.55087 5.85905 2.53084 23
231 2 3.27834 11.3735 2.43112 22
194 2 0.325398 9.34377 5.22109 24
41 1 3.3104 5.74086 5.84807 26
50 1 4.84657 8.53919 0.48232 24
37 1 3.5102 5.79755 0.437407 23
19 1 1.82239 6.67914 8.37743 22
236 2 4.69087 8.5933 7.63269 23
234 2 3.32203 9.37964 10.3048 20
22 1 1.49093 8.64234 10.5105 21
233 2 5.11297 6.60003 10.8406 22
56 1 3.01775 9.75914 8.41388 24
200 2 1.37125 8.44217 7.91934 22
60 1 3.40606 9.90996 12.3127 19
55 1 5.10631 6.70747 8.30783 23
9 1 -0.0143131 5.39837 10.8755 22
197 2 1.94202 6.51126 10.1652 22
191 2 0.0020143 6.24732 12.6691 22
204 2 1.36572 8.99211 12.4069 20
223 2 3.54137 6.02511 7.61049 24
21 1 0.033797 11.8303 11.1149 24
45 1 3.49117 5.57233 10.7713 22
23 1 1.83985 7.37617 13.4887 22
361 1 0.0776668 6.07416 16.2278 22
412 1 2.67481 9.50387 18.6449 21
375 1 2.03692 6.63635 18.6365 20
201 2 1.48764 7.22964 15.3237 22
240 2 4.78669 8.9612 12.7537 22
556 2 1.17233 8.22289 18.1357 23
237 2 4.98235 6.78302 15.9227 23
592 2 4.7734 8.80074 18.1227 20
238 2 2.92038 10.0452 15.9697 20
59 1 5.05421 7.00356 13.7814 23
227 2 3.38889 6.02808 13.4747 21
411 1 5.17309 6.93054 18.6445 22
374 1 1.5973 8.79089 16.3295 24
543 2 0.327313 5.88417 18.3373 23
410 1 4.54549 8.92686 16.0882 22
397 1 3.29181 5.90493 15.7737 20
202 2 -0.0667245 10.0568 15.4806 26
579 2 3.61482 6.15931 17.7313 20
555 2 0.443468 11.0568 18.0845 22
560 2 1.74384 8.76868 23.5496 21
378 1 1.7061 8.55765 21.507 22
379 1 1.39932 6.99297 24.3329 20
380 1 0.152917 9.56329 24.1507 24
415 1 5.30755 6.27647 24.1732 20
414 1 5.0218 8.54006 21.1542 22
596 2 5.39762 8.60006 23.9268 21
416 1 3.3942 9.3652 24.1059 22
553 2 1.74457 6.56635 21.5646 21
590 2 3.24459 9.10845 20.5932 22
589 2 5.18932 6.72929 21.5357 20
547 2 0.233618 5.70421 24.2862 21
401 1 3.64629 5.62635 21.606 22
595 2 3.59143 11.3124 23.5952 24
554 2 0.118399 9.33702 20.8823 22
559 2 0.427628 11.2244 23.6986 22
561 2 2.26387 6.73502 31.0521 20
382 1 1.68359 8.66673 27.2555 22
383 1 2.32376 6.7821 29.138 21
598 2 3.34102 9.20513 31.6143 21
558 2 7.8206e-04 9.53725 26.1888 24
418 1 5.00906 8.40606 26.0315 17
557 2 1.74461 6.97191 26.4329 22
420 1 3.25165 9.75161 29.7631 23
593 2 4.94649 6.14963 26.0555 20
594 2 3.40693 9.40381 26.4315 23
564 2 1.69376 8.97651 29.1785 20
419 1 5.13802 6.84827 29.5943 23
600 2 4.6744 8.49958 28.8597 23
597 2 4.9267 6.83531 31.5006 23
599 2 3.62544 11.2838 28.6892 22
369 1 0.173373 6.09374 27.4595 23
384 1 -0.167324 9.61646 29.7019 20
417 1 3.60415 11.1276 26.9019 23
381 1 0.0602935 11.5526 26.5645 24
14 1 1.60996 8.32406 31.6238 20
205 2 1.29906 12.2683 4.87609 24
62 1 5.29687 14.3708 -0.107339 23
27 1 1.26292 11.9436 3.07389 22
208 2 2.08652 13.8644 2.64072 22
242 2 2.98804 15.5456 5.37742 22
241 2 4.64624 12.6375 5.24642 22
244 2 5.05727 14.3777 2.48487 22
206 2 0.328145 15.1868 4.63035 25
66 1 4.72114 14.7506 5.21077 21
64 1 3.37948 15.2788 2.34234 24
30 1 1.72913 14.1271 5.31771 22
63 1 4.78415 12.2999 3.24602 25
26 1 2.05424 13.9004 0.815381 22
28 1 0.146203 15.1748 2.67872 23
53 1 3.16659 11.6282 5.46743 23
49 1 3.50246 11.0076 0.478771 23
610 2 3.30912 15.3503 0.189708 19
29 1 0.139203 17.0522 5.69058 22
31 1 1.82416 12.8047 8.2648 21
248 2 5.26541 14.3471 7.19092 22
235 2 3.23394 11.7797 7.61395 23
34 1 1.48654 14.3273 10.945 21
67 1 4.98435 12.5096 7.94877 20
68 1 3.5974 15.0862 7.71528 20
212 2 1.83238 14.6772 8.29872 24
239 2 3.59561 12.4963 12.2488 21
209 2 1.7614 12.2913 10.2946 25
246 2 3.9755 15.4467 11.2703 20
70 1 5.31481 14.3815 11.4788 20
32 1 -0.0727579 15.2081 8.47391 23
211 2 0.0867542 16.9198 7.52008 25
199 2 0.270221 11.9676 7.39099 23
57 1 3.72414 12.1868 10.2762 19
216 2 0.962032 14.5231 12.8588 21
386 1 1.41382 14.9678 15.8901 23
203 2 0.147932 11.7423 12.9766 21
409 1 3.30351 11.688 15.6938 22
213 2 1.66551 13.0927 15.1627 22
422 1 5.29227 14.5366 15.9645 21
72 1 2.93649 15.5979 13.5731 22
35 1 1.85435 12.3304 13.3613 21
568 2 1.84207 14.4012 18.0565 22
250 2 3.48975 15.7999 15.7251 18
249 2 5.14039 12.6093 15.8522 21
424 1 3.26737 15.4982 18.608 24
71 1 5.4665 12.528 13.5897 21
252 2 4.93938 14.5307 13.7903 18
604 2 4.83066 14.7406 18.094 21
423 1 4.62129 12.8145 18.9579 22
591 2 3.24144 11.5081 18.6477 21
387 1 1.93855 12.7099 18.9372 23
602 2 2.97186 14.6082 20.3822 21
390 1 1.3901 14.1718 21.5032 24
391 1 1.90744 12.557 23.977 22
427 1 5.06339 12.1948 24.331 24
572 2 1.72951 14.376 23.5322 20
608 2 4.71386 14.1204 23.5762 23
425 1 3.2306 17.1649 21.0802 20
428 1 3.48416 15.3068 24.3623 22
565 2 1.71287 12.025 21.0251 23
426 1 4.81276 14.4108 21.7394 25
601 2 4.9457 12.5096 20.8712 24
566 2 0.0759063 15.2701 20.7745 22
392 1 0.065289 14.9016 24.852 23
413 1 3.53697 11.1342 21.2554 23
607 2 3.19155 16.7102 23.0746 22
570 2 0.116433 15.0386 26.7639 25
394 1 1.88076 14.37 27.2785 26
395 1 1.61505 12.83 29.4671 24
576 2 1.41614 14.6074 29.5932 23
573 2 1.5584 12.3867 31.417 23
612 2 4.78326 14.7123 29.3629 25
430 1 5.35146 14.1616 27.3067 24
432 1 2.96427 15.3179 29.716 22
569 2 1.63035 12.7924 25.8849 23
431 1 4.35437 12.8358 29.828 23
606 2 3.55937 14.7333 26.3759 24
611 2 2.56859 16.7872 28.6402 22
605 2 4.70296 12.6037 26.1028 23
429 1 3.12659 17.059 26.363 21
609 2 4.2504 12.6518 31.7228 22
563 2 0.484871 11.6353 28.5559 26
61 1 2.94494 17.2304 -0.049613 23
722 1 1.59682 20.1246 0.435853 22
723 1 1.72582 18.0929 2.85643 24
243 2 3.27523 17.188 3.00624 22
938 2 3.04642 21.1707 4.79798 26
726 1 1.71294 20.0649 5.539 22
65 1 3.09821 17.5677 5.10816 25
940 2 4.84933 19.9054 1.89201 26
725 1 0.278249 22.682 5.78723 22
760 1 2.91142 20.8336 2.87691 23
904 2 1.53015 19.7453 2.1792 26
901 2 1.30096 18.315 4.9853 23
759 1 4.94321 18.3221 2.88157 23
762 1 4.62448 19.8719 5.28752 22
902 2 0.136006 21.1361 4.88214 22
937 2 5.05723 17.9104 4.75198 24
939 2 2.92323 22.5523 2.22588 23
761 1 3.77463 22.921 5.66109 24
758 1 4.44256 19.837 -0.0366985 22
727 1 1.39645 18.2853 8.10311 21
908 2 1.97784 19.9624 7.52114 23
763 1 5.43965 18.095 7.95031 22
730 1 1.41979 19.579 11.2471 23
941 2 5.05288 18.1533 10.0171 22
764 1 3.64226 20.7816 8.33201 23
942 2 2.8765 20.6517 10.085 23
765 1 3.16021 22.3629 10.9069 24
905 2 1.6469 17.7827 10.4348 22
247 2 3.86716 17.2721 7.51834 22
944 2 5.05674 20.1918 7.15577 23
728 1 0.534863 20.6351 8.42746 24
69 1 3.33789 17.1385 10.9965 25
766 1 4.71925 19.8249 10.588 23
729 1 -0.0820835 22.5444 11.355 23
943 2 4.04388 22.2464 7.49296 24
945 2 5.34823 18.591 15.4785 21
909 2 1.41201 17.7693 15.9029 21
1081 1 0.582636 22.6237 16.6361 21
251 2 3.09815 17.468 13.2751 21
1118 1 4.95276 20.2285 16.3497 21
768 1 3.43543 21.3188 13.4236 24
1264 2 1.79281 20.1515 18.3705 24
1300 2 5.27037 20.2051 18.3914 22
948 2 4.9613 20.1324 12.8469 24
946 2 3.30901 21.0755 15.4217 25
1082 1 1.74233 20.0804 16.2456 22
767 1 4.82662 17.9529 13.1892 24
421 1 3.54465 17.6305 15.9967 22
731 1 1.45104 18.2319 14.0386 24
912 2 1.86567 20.2419 12.9306 24
1120 1 3.47239 20.8821 19.0531 23
603 2 3.15735 17.3921 18.1086 24
1119 1 4.97046 18.3448 18.6693 24
732 1 -0.0504993 20.7486 13.6272 21
1299 2 3.05805 22.6917 18.2102 25
911 2 0.0440271 22.5675 13.3587 23
1122 1 5.20214 19.6694 21.589 22
1086 1 1.86339 20.295 22.0106 23
1087 1 1.51116 17.2901 23.8952 21
1123 1 4.81046 17.6296 24.2843 24
1268 2 1.72068 20.0535 23.9252 19
1304 2 4.81069 20.1 23.5695 21
1297 2 4.79848 18.1094 20.7561 25
1124 1 3.41627 20.8313 24.627 24
1261 2 1.27471 18.1602 21.1145 21
1298 2 3.70213 21.1397 21.0565 22
1262 2 0.246299 20.4191 21.2641 20
1121 1 3.38729 22.5873 21.9657 24
1267 2 0.203058 22.5997 23.4485 23
1084 1 0.096809 20.5495 19.0541 24
1083 1 1.67897 18.367 18.9513 21
1305 2 4.64017 17.7994 31.3502 25
1090 1 1.39519 19.8238 26.7699 24
1091 1 1.5816 18.2269 29.1317 24
1269 2 1.19354 18.0968 31.4303 25
1272 2 1.56737 20.1652 28.8444 24
1301 2 4.49023 18.1619 26.2822 22
1308 2 4.65167 19.5489 28.6459 22
1128 1 3.2832 20.9971 29.3278 21
1127 1 4.79974 17.7193 29.0067 23
1306 2 2.81095 20.7275 31.0571 21
1302 2 2.98148 20.9277 26.5684 21
1126 1 4.79636 19.927 26.8466 21
1265 2 1.47663 17.9642 25.7336 24
393 1 0.190104 17.107 27.002 22
913 2 1.91957 23.6562 5.70369 20
773 1 3.3602 28.2933 5.13947 22
735 1 1.71506 23.9343 2.68103 23
903 2 0.116057 22.7521 2.78573 23
949 2 5.40449 23.9923 4.61234 22
738 1 2.23287 26.2284 6.23488 20
916 2 0.76318 25.273 1.8777 20
951 2 3.55192 28.4053 2.43228 23
952 2 4.88513 25.5342 1.90488 20
772 1 3.52097 26.5196 2.60199 21
950 2 3.0443 26.4257 4.45135 19
771 1 5.12136 23.4405 2.76272 24
734 1 1.21514 25.6074 -0.0291361 18
774 1 4.74967 25.6365 5.97472 23
914 2 0.580522 26.5903 5.44824 21
736 1 0.0545365 26.304 3.45858 23
757 1 3.11371 22.8914 0.317402 26
770 1 4.25651 25.2934 0.0978267 23
769 1 3.23936 28.4626 0.425165 21
739 1 1.71173 23.2947 8.34468 24
920 2 2.31795 25.3783 8.27748 21
924 2 1.50758 25.7106 12.6664 22
742 1 2.06453 25.2524 10.6809 22
955 2 3.44121 28.273 7.35104 23
776 1 3.81982 26.6546 8.44902 23
956 2 5.4115 25.4101 7.73963 22
954 2 3.73394 26.0841 10.368 23
917 2 1.66052 23.3678 10.4514 23
777 1 3.52274 28.3346 11.0591 23
953 2 4.71294 23.3439 10.2971 24
918 2 0.726545 26.7462 10.1016 20
740 1 0.636539 26.7977 8.27372 22
1130 1 5.10322 25.2554 16.216 23
1276 2 1.72022 25.0343 18.409 21
780 1 3.71752 26.3605 13.6695 25
1117 1 3.33474 23.0613 16.3558 23
921 2 2.01943 24.0942 15.7073 23
957 2 5.13406 23.3431 15.5712 23
1132 1 3.35374 26.3178 18.6555 25
1312 2 4.95684 25.299 18.2163 23
922 2 0.171175 26.7566 15.4731 23
958 2 3.84418 26.3325 15.7767 22
1129 1 2.78286 28.4003 15.9682 20
779 1 4.82871 23.5526 13.577 24
743 1 1.52029 23.92 13.878 23
1094 1 1.76195 25.664 16.6592 22
960 2 5.05802 25.5398 12.7544 22
1263 2 0.34889 22.654 18.6283 21
959 2 2.89155 28.375 13.2033 20
947 2 3.16021 23.1361 12.8383 23
1311 2 2.95871 28.4534 18.0407 22
744 1 -0.187867 26.3858 13.4469 25
1303 2 3.36647 23.9832 23.5047 20
1098 1 1.13311 25.4616 21.3759 22
1099 1 1.27475 23.6865 24.0555 21
1134 1 4.80316 26.0089 21.3446 23
1310 2 2.71615 26.0843 20.7099 22
1309 2 4.87083 23.5882 21.0426 25
1316 2 4.72984 26.7837 22.9828 20
1136 1 2.95518 26.3707 23.9142 23
1273 2 1.69331 23.5142 21.4885 20
1280 2 0.966089 25.5444 23.4346 20
1133 1 3.05431 28.2378 21.2895 22
1135 1 5.06594 23.9621 24.413 22
1095 1 2.05289 23.449 19.4598 23
1131 1 5.26926 23.8196 19.2896 25
1284 2 1.70315 25.7987 29.2962 18
1102 1 1.35799 25.7415 26.799 22
1103 1 1.44386 24.0283 28.9443 22
1277 2 0.926845 23.5626 25.9253 22
1314 2 2.77614 26.6858 26.1511 21
1281 2 1.72422 23.8481 31.2126 25
1320 2 4.9196 25.5038 29.1701 21
1140 1 3.27962 26.6286 29.6761 24
1318 2 3.06885 26.5332 31.631 21
721 1 0.0406102 22.7125 31.8347 22
1313 2 4.85163 23.9295 26.1827 22
1137 1 3.19802 28.4528 26.5969 25
1138 1 5.16855 25.674 27.223 22
1139 1 5.05123 23.6386 29.349 24
1317 2 4.71202 23.5345 31.2522 22
1307 2 3.05477 23.1521 28.4113 23
1125 1 2.67282 23.0218 26.46 22
749 1 0.268779 33.435 5.14191 23
961 2 5.34301 29.1732 5.45649 20
747 1 1.49321 29.5944 2.8969 22
926 2 0.0346864 31.6225 5.02338 24
783 1 5.26784 29.5873 2.7998 22
750 1 2.033 30.8227 5.83115 25
928 2 1.7968 31.0784 2.39327 25
925 2 1.74521 29.2708 4.8083 23
785 1 3.58391 33.8271 5.79874 25
784 1 3.23403 32.1242 3.28675 24
962 2 3.11544 32.0999 5.24349 24
782 1 4.74719 31.4039 0.193604 24
746 1 1.66145 31.6409 0.523087 23
964 2 5.03831 31.7798 2.2391 22
781 1 3.38301 34.0246 0.36966 23
737 1 -0.185844 28.7001 5.29713 23
751 1 2.24486 29.4011 8.20553 22
787 1 5.21902 29.1901 7.94831 22
966 2 3.92754 32.8165 10.2337 20
754 1 2.42517 31.6017 10.8964 25
968 2 5.1813 31.1692 7.47114 23
788 1 3.77673 32.3388 8.12083 23
932 2 2.10294 31.3343 7.5764 22
790 1 5.11037 31.5572 11.1389 25
929 2 2.08874 29.2317 10.0262 22
965 2 5.13178 29.467 9.9926 23
752 1 0.343073 31.9177 8.08994 22
930 2 0.46977 31.7481 10.2087 23
753 1 0.121282 33.6835 10.7194 22
931 2 0.115791 33.5825 7.1166 25
919 2 0.748567 28.666 7.02092 24
967 2 2.85276 33.9803 7.8401 24
936 2 1.69652 31.2794 12.6213 24
741 1 0.5381 28.5413 10.7887 21
1106 1 1.59883 31.3718 16.103 22
1142 1 5.14159 31.3154 16.1092 22
791 1 4.29862 29.7402 13.4153 21
792 1 3.23409 32.4212 13.2373 22
933 2 1.51549 29.6562 15.3609 21
756 1 -0.318292 32.2218 13.3896 24
1324 2 4.93634 31.3833 18.1929 24
1107 1 1.39349 29.7237 18.387 23
972 2 4.69798 31.5292 12.9946 21
970 2 3.05167 32.1294 15.2936 25
969 2 4.58277 29.7184 15.3572 25
1143 1 5.00482 29.5402 18.8118 25
1141 1 3.21264 33.9622 16.182 23
755 1 1.28067 29.5166 13.6266 25
1288 2 1.63235 31.604 18.2329 24
1108 1 -0.0143799 32.5838 18.5643 22
1321 2 4.81574 29.0744 20.754 22
1110 1 1.27035 31.3604 21.3331 22
1111 1 1.26134 29.5828 24.1895 23
1146 1 4.69496 30.976 21.5271 21
1322 2 3.08967 31.9139 20.9153 23
1315 2 2.98955 29.4458 23.2437 20
1145 1 3.50104 33.8163 21.8447 22
1148 1 3.32506 31.6794 23.9599 18
1285 2 1.59649 29.4361 20.6519 23
1292 2 1.39152 31.5276 23.8985 22
1328 2 4.95813 30.6968 24.0046 21
1147 1 5.08526 28.9871 23.5881 21
1144 1 3.6522 32.3957 19.1752 24
1326 2 3.08987 31.8942 25.8983 23
1114 1 1.58698 30.9192 26.7707 22
1115 1 1.35837 29.4663 29.9431 27
1151 1 4.37446 29.1884 29.1996 20
1289 2 1.36039 29.1413 26.1312 25
1149 1 3.74233 33.8009 26.7691 22
1296 2 1.23465 31.1045 28.7388 23
1152 1 2.93022 32.1939 29.0886 22
1332 2 4.71264 31.1482 28.6435 23
1325 2 4.60879 29.2302 25.9043 24
1150 1 4.68605 30.9281 26.5849 20
1293 2 1.10184 29.8242 31.8417 23
1331 2 2.94093 34.0815 29.0155 21
1116 1 -0.392559 31.9672 29.6986 23
1330 2 3.41888 32.2395 30.9323 24
1329 2 4.70787 29.592 31.6293 22
1113 1 0.224503 33.8733 26.6444 22
1319 2 2.92621 28.5899 29.6657 19
253 2 8.38864 1.39607 4.83299 23
999 2 6.22228 0.360996 2.04635 23
74 1 8.26094 2.81255 0.167953 21
76 1 6.75389 3.994 3.19496 25
256 2 8.19908 2.94261 2.58017 23
78 1 8.51909 3.36114 5.73025 25
254 2 6.71848 4.24542 4.99124 24
112 1 9.80541 3.66166 2.82605 22
290 2 10.044 4.07649 4.89446 23
75 1 8.12145 1.05156 2.80048 20
821 1 6.84197 0.552981 5.23844 21
857 1 10.0387 0.304994 5.63309 23
853 1 9.48411 -0.232456 0.449589 24
291 2 9.57717 5.56393 2.21227 22
622 2 6.60712 4.01572 0.00323244 22
79 1 8.04838 1.77912 8.44502 23
80 1 6.96315 4.23116 8.49343 25
294 2 9.84478 4.29995 10.3533 23
82 1 8.19629 3.31703 10.7778 21
116 1 9.72288 3.99615 7.94559 22
260 2 8.14655 3.1437 7.42873 25
257 2 8.55771 1.63014 10.2687 23
258 2 6.39015 3.92341 10.2828 22
1003 2 7.0414 0.434286 7.65627 24
861 1 9.97353 0.378712 10.2964 22
1039 2 9.80815 0.843162 7.91666 19
825 1 6.62567 0.399371 10.7692 24
1007 2 6.92006 -0.0021369 12.5861 25
83 1 8.32087 1.34831 13.4982 24
84 1 6.49762 3.8296 13.5852 22
120 1 10.0461 3.94255 13.1775 20
261 2 8.1407 0.355062 15.3418 23
262 2 6.57089 3.41717 15.5672 22
616 2 8.25699 2.60352 18.3219 22
1213 1 9.53235 0.0561816 16.5802 21
298 2 10.2539 4.33242 15.1814 21
434 1 8.41548 2.58788 16.3601 24
264 2 8.21259 3.30328 12.9226 25
436 1 6.77525 3.65554 18.7491 19
1359 2 6.35801 0.151225 18.1251 24
1043 2 9.87672 0.175382 12.9159 24
615 2 6.54298 5.78208 18.2021 21
651 2 9.91066 4.92565 18.3597 22
433 1 6.21471 5.3125 16.0767 23
435 1 8.4177 1.02394 19.1112 23
620 2 8.01846 2.78119 23.7871 20
438 1 8.51239 2.45876 21.7483 24
439 1 8.17508 0.813945 24.0468 23
440 1 6.36702 3.91952 23.9082 27
650 2 9.90797 3.94465 21.3484 22
476 1 9.76729 3.95231 24.102 23
613 2 8.09701 0.601736 21.2226 22
614 2 7.08633 3.46588 20.8344 22
437 1 7.20869 5.36179 21.1677 23
619 2 6.93927 5.63112 23.2544 24
472 1 10.0908 3.7513 19.4516 22
621 2 8.12392 1.12838 31.2623 24
442 1 8.12849 3.03001 26.4351 23
443 1 7.95121 1.26658 29.1755 22
444 1 6.46074 3.69154 29.305 20
624 2 8.14355 3.18716 28.4836 23
480 1 9.69153 3.82483 29.106 22
617 2 7.80451 1.08124 26.1419 21
618 2 6.40533 3.64788 25.9741 24
623 2 6.64768 5.57848 29.1236 20
654 2 9.83503 4.07192 25.9058 24
1403 2 9.80211 0.555971 28.8359 24
441 1 6.38558 5.52708 26.805 21
658 2 10.0961 3.94792 31.3247 24
1221 1 9.64533 0.505605 26.8724 22
113 1 9.84333 5.90544 5.61106 24
302 2 9.69735 9.52516 5.11508 22
87 1 8.06176 6.35733 3.1616 21
88 1 6.28941 9.99934 2.5536 19
268 2 7.8119 8.49103 2.40509 22
90 1 7.96554 8.76287 5.52488 22
265 2 8.04313 6.78317 5.54537 23
124 1 9.67317 9.39586 2.6587 21
266 2 6.53076 10.0297 4.71444 24
255 2 6.5026 5.93876 2.26796 23
86 1 7.61586 9.01376 0.0981621 22
109 1 9.6265 5.58098 0.0923202 22
303 2 9.72251 11.3332 1.89157 25
77 1 6.46262 6.1384 5.74177 23
73 1 6.80802 5.97266 0.409458 23
91 1 8.48374 6.86984 8.12248 23
92 1 6.35939 9.49169 7.67071 24
306 2 10.0228 9.42815 10.32 23
94 1 8.32483 8.76145 10.9891 24
128 1 9.57526 9.75227 8.3944 24
272 2 8.01093 8.55267 7.55524 24
269 2 8.04457 6.87255 10.3053 22
270 2 6.9402 9.62439 10.0093 22
117 1 10.1059 6.16199 10.8661 23
295 2 10.1562 5.71603 7.33308 23
299 2 10.06 5.73444 12.6672 24
81 1 6.76931 5.7113 11.2 22
271 2 6.69685 11.2326 7.43286 22
129 1 10.4376 11.223 10.7694 24
259 2 6.78788 5.91048 7.76003 23
58 1 5.1811 8.74999 10.7829 23
311 2 10.1633 11.0481 12.7703 23
469 1 10.0399 5.95718 16.5142 24
448 1 6.34259 9.674 18.7861 24
132 1 9.59373 9.62874 13.8338 22
273 2 7.74464 6.57358 15.4244 20
274 2 6.06102 9.89112 15.9653 20
446 1 7.40572 8.46207 16.1811 23
96 1 6.31893 9.462 13.7164 22
310 2 8.96023 9.41746 15.6107 23
628 2 7.7305 8.2039 18.1099 23
95 1 8.17517 6.38399 13.7219 23
263 2 6.44086 5.93522 13.2495 22
276 2 7.88579 8.46469 12.9367 24
447 1 8.31389 6.52443 18.8992 23
663 2 10.6069 10.8891 18.0899 19
627 2 6.55545 11.4534 18.2949 22
481 1 9.97855 11.3381 16.2415 23
662 2 9.6689 9.54886 20.7729 25
450 1 8.08119 8.66033 21.544 24
451 1 8.21963 6.78523 24.1858 23
452 1 6.74572 10.0469 24.0007 21
632 2 8.2595 8.54173 23.4212 23
488 1 10.0671 9.59688 23.7553 24
625 2 8.41613 6.98824 20.7922 25
626 2 6.5522 9.63816 20.7543 21
655 2 9.59307 5.77134 23.398 25
485 1 10.0102 11.6762 21.2677 21
473 1 10.0333 6.07466 21.5286 24
484 1 9.41179 9.18071 18.5996 21
636 2 8.1004 8.94474 28.6209 23
454 1 8.18498 8.55685 26.7704 21
455 1 8.09871 6.8785 29.5057 25
456 1 6.66882 9.95977 29.3667 21
670 2 9.26767 9.71099 31.1448 22
492 1 9.57466 9.81089 29.3337 24
629 2 7.6349 6.81146 26.2873 24
630 2 6.7523 9.78912 26.0801 22
666 2 9.78416 9.78148 25.6378 24
634 2 6.30387 10.1387 31.3843 25
659 2 9.89135 6.16055 28.8849 22
477 1 9.29031 5.76069 27.046 22
633 2 8.12508 7.26576 31.4085 23
121 1 9.94191 11.3889 31.9777 25
277 2 8.41119 12.73 5.1177 21
267 2 6.87077 11.7217 2.14816 24
99 1 8.69242 12.3215 2.96718 23
100 1 6.7805 15.2159 2.89809 22
280 2 8.2904 14.0676 2.48927 24
102 1 8.07074 14.4967 5.73036 24
314 2 9.49065 15.4831 4.89776 23
136 1 9.78745 15.3397 3.03079 23
278 2 6.20733 15.6459 4.71601 26
98 1 8.35691 13.9922 0.330514 24
279 2 6.34307 17.1157 2.21292 21
101 1 6.68112 17.4072 5.57768 23
85 1 6.68911 11.8399 0.325078 22
89 1 6.6628 11.8614 5.25938 22
315 2 9.5082 17.019 2.56362 21
97 1 6.1905 17.0588 0.0672504 22
125 1 9.84789 11.5753 5.75722 25
103 1 8.22139 12.2967 8.06035 23
104 1 6.5521 14.911 8.49903 23
318 2 10.0716 15.2299 10.3658 25
106 1 8.78744 14.2902 10.8489 23
140 1 9.51196 15.4113 8.49307 23
284 2 7.89071 14.0006 7.54471 22
281 2 8.67195 12.408 10.7941 23
282 2 7.07988 15.2745 10.3985 20
141 1 9.90472 17.1709 11.0055 25
283 2 7.54159 16.8381 8.10236 23
93 1 7.01046 11.2204 10.9033 23
307 2 9.90619 11.6391 7.75643 23
245 2 5.63681 12.2484 9.70063 23
285 2 8.5918 12.592 15.6655 24
459 1 8.13689 12.5581 19.1801 24
144 1 9.94105 15.3161 13.6702 24
108 1 7.23447 15.2851 13.8267 22
286 2 7.20642 15.8524 15.5711 23
640 2 7.93939 14.315 18.3168 22
458 1 8.12756 14.3699 16.3996 23
322 2 9.91981 15.0641 16.8481 21
445 1 6.79698 11.5779 16.2756 21
275 2 6.88497 11.4936 13.0759 24
107 1 8.64054 12.4949 13.0529 19
288 2 8.45417 14.5064 12.7118 22
496 1 9.5766 15.1403 18.8925 22
460 1 6.27791 15.2515 18.7599 23
323 2 9.80689 16.9481 12.9163 24
493 1 9.76815 16.9748 16.0721 25
639 2 6.69084 16.8579 18.0352 25
644 2 8.33115 14.62 23.5315 22
462 1 7.87151 14.5973 21.278 23
463 1 8.44741 12.3133 24.4314 23
464 1 6.71386 15.1663 24.261 24
674 2 10.0308 15.3993 20.5402 25
500 1 9.93136 15.2499 23.5826 22
637 2 8.14889 12.2759 20.9695 22
638 2 6.38498 15.4378 20.9347 24
643 2 6.30469 16.8356 23.3744 24
449 1 6.43738 11.4981 21.2497 21
631 2 6.93044 11.9906 23.2231 23
667 2 9.97052 11.4857 23.1663 22
678 2 9.41662 15.1615 26.5041 21
466 1 8.07254 14.3076 27.3585 24
467 1 7.90956 12.4383 29.3373 23
468 1 6.64451 15.5224 29.5088 22
489 1 9.66696 11.8823 26.903 21
504 1 10.2259 15.2948 29.6104 25
646 2 7.09451 15.1992 31.5905 22
642 2 6.22215 15.4009 25.8732 24
648 2 8.36865 14.6163 29.1248 24
641 2 7.62823 12.498 26.2094 21
635 2 6.12157 11.6925 29.2602 24
645 2 8.41174 12.1081 31.1596 22
682 2 9.96285 15.7258 31.6844 22
683 2 9.72233 17.0142 28.6829 24
671 2 9.79293 11.81 28.6474 25
453 1 6.11934 11.6601 27.0496 22
976 2 8.07351 19.7374 2.91008 21
133 1 9.6059 17.4519 0.587679 24
795 1 7.81191 17.8483 3.21957 22
796 1 6.42215 21.0691 2.84699 23
975 2 6.35389 22.4332 1.67931 24
798 1 8.37459 19.9575 5.19673 22
974 2 6.43394 20.4964 4.8029 24
832 1 9.61286 20.8781 2.60682 23
1010 2 9.74059 21.0197 4.84796 23
1011 2 10.1293 22.7706 2.13946 22
794 1 7.82125 20.2813 -0.257822 20
973 2 8.39437 18.1023 5.33413 22
797 1 6.70924 22.7711 5.30685 23
137 1 10.132 17.1479 5.56245 22
833 1 9.64902 22.8172 5.2839 21
799 1 8.55483 18.164 8.31753 23
800 1 6.54088 20.4256 8.39857 23
1014 2 9.99709 20.842 10.8691 21
802 1 8.11477 19.8297 10.7106 23
836 1 9.94403 20.6052 8.03645 26
980 2 8.41853 19.9963 8.11617 21
977 2 8.42561 18.0678 10.3997 24
978 2 6.37585 21.0271 10.2885 23
979 2 6.99144 22.3815 7.3412 24
319 2 10.5797 16.9982 7.88293 21
1015 2 10.3523 22.2501 7.07686 22
105 1 6.73429 17.3069 10.7198 25
984 2 7.77017 20.2174 12.6079 23
675 2 10.2967 17.1251 17.9057 26
803 1 8.12648 17.6485 13.458 20
840 1 9.61502 20.7336 13.3596 23
981 2 8.56408 18.4925 15.1033 23
804 1 6.33659 21.2654 13.532 23
982 2 6.82936 20.9 15.9795 20
1154 1 8.31598 20.0156 16.2422 26
1018 2 10.0465 21.2763 15.9416 20
1192 1 10.0952 20.944 18.4784 22
287 2 6.47892 17.0164 12.9157 24
1336 2 8.58243 19.7743 18.6267 25
1153 1 6.50978 22.9807 16.6567 25
1019 2 10.0605 22.5658 13.2709 23
1155 1 8.27864 17.8381 18.2846 24
457 1 6.91103 17.6856 15.6847 20
1156 1 6.56204 21.2059 19.3078 23
1370 2 9.96828 20.8257 20.4757 22
1158 1 8.45335 19.6335 21.0452 23
1159 1 8.22884 17.9158 23.659 20
1160 1 6.72196 20.5586 24.1385 22
1340 2 8.424 19.7582 23.3655 24
1196 1 10.1854 20.2842 24.2913 22
1333 2 8.20573 17.7351 20.6703 22
1334 2 6.73855 20.8604 21.0627 24
1339 2 6.41419 22.6829 23.9481 20
1375 2 10.1067 22.1348 23.6876 22
497 1 10.0809 17.143 21.2302 25
1157 1 6.30675 22.8349 22.0059 23
679 2 9.8898 17.1628 23.0562 25
461 1 6.32108 17.195 21.3924 23
1378 2 9.70841 20.8987 31.4283 22
1162 1 8.28649 19.6997 26.9285 23
1163 1 8.27136 17.6991 29.4271 22
1164 1 6.3345 20.4952 29.0422 19
1374 2 9.96176 20.4768 26.4728 24
1200 1 9.51606 20.849 29.3438 22
1337 2 8.11891 17.8961 25.918 24
1338 2 6.54419 20.2932 26.6615 22
1344 2 8.12471 19.691 29.2077 23
1161 1 6.56618 22.3636 26.551 22
1342 2 5.90478 20.6191 30.9152 22
1341 2 7.9268 17.6219 31.3979 23
1379 2 9.70865 22.6913 28.432 23
1343 2 6.46699 22.3718 28.7852 23
1197 1 9.92888 22.5203 26.6031 20
465 1 6.45951 17.2136 26.6398 23
793 1 6.57513 22.5366 31.4563 23
501 1 9.59647 17.2814 26.6406 25
647 2 6.44739 17.2555 28.6418 24
1022 2 9.61434 26.8636 4.82433 24
805 1 6.51388 28.6067 0.0904069 21
807 1 8.37491 23.5927 2.71161 22
808 1 6.442 26.6011 2.60848 23
988 2 8.0684 25.3898 1.96939 23
810 1 7.82166 25.541 5.38781 24
986 2 5.99223 26.3082 4.79095 22
844 1 9.51818 26.6546 2.91019 23
806 1 7.63169 25.0692 0.140935 24
985 2 8.2663 23.8954 4.59153 25
829 1 9.97449 22.7078 -0.0493016 22
987 2 6.61914 28.3343 2.84314 24
809 1 7.10922 28.0409 4.97826 19
845 1 9.44977 28.0457 6.25602 18
841 1 10.172 28.3223 0.328483 22
990 2 7.09166 26.5628 10.5316 20
812 1 7.01303 26.4886 7.92326 20
992 2 8.28667 25.3065 7.20441 24
814 1 8.72329 25.3883 10.8389 23
848 1 9.73563 26.871 8.51133 23
1026 2 10.1909 27.0406 10.3058 21
989 2 8.52315 23.4158 10.3327 23
983 2 6.65658 22.8281 12.609 23
811 1 8.72542 23.4184 7.73073 23
991 2 7.06598 28.3125 7.4876 24
837 1 10.1966 22.6156 10.9169 23
1028 2 10.9777 25.8047 7.59619 25
801 1 6.72318 22.6555 10.6744 23
778 1 5.24804 25.2581 11.0216 21
775 1 5.24373 23.3893 8.35778 23
815 1 8.17017 23.5459 13.2245 22
1166 1 8.13876 25.5769 15.879 22
852 1 9.67014 26.2037 13.6638 21
993 2 7.89956 23.711 15.3945 24
1383 2 9.91887 27.888 18.7048 22
994 2 6.62583 26.6057 15.426 23
816 1 6.66972 26.9402 13.4095 22
1030 2 10.1837 26.6424 15.8174 22
1348 2 7.9925 25.425 17.8127 24
1168 1 6.45604 26.3396 18.6352 24
1189 1 9.79798 23.0642 16.1465 23
996 2 7.98773 25.5979 12.8765 21
1165 1 5.87701 28.3123 16.0809 23
1335 2 7.17813 22.8761 18.3703 23
1204 1 9.63793 25.8604 18.7514 24
1031 2 9.51648 28.4714 13.0945 21
1347 2 6.4923 28.4356 18.0054 23
1371 2 10.0185 22.8686 18.1714 21
1201 1 9.32968 28.2613 16.5105 23
1382 2 9.45737 25.823 21.3161 21
1170 1 7.61305 25.8154 21.8605 21
1171 1 8.11798 23.7599 24.4704 21
1172 1 6.40975 26.575 24.2055 20
1352 2 7.50839 25.2583 23.4363 20
1208 1 10.1398 26.4879 24.0451 20
1345 2 7.82541 23.4438 21.0434 22
1346 2 6.44258 26.3244 20.4183 25
1205 1 10.125 27.6573 20.8229 22
1167 1 8.46921 23.584 19.1772 23
1387 2 10.0969 28.0881 23.2773 22
1169 1 6.32236 28.3677 20.6286 18
1193 1 9.74694 22.6588 21.7276 25
1386 2 9.65083 27.0578 25.8958 24
1174 1 8.25352 25.6773 26.728 24
1175 1 7.88946 23.429 28.6185 22
1176 1 6.63734 26.3994 29.5773 22
1356 2 8.05175 25.8232 28.5951 23
1212 1 9.72769 26.3707 29.6075 24
1349 2 8.24537 23.6939 26.3488 20
1350 2 6.04708 26.5234 26.0382 23
1355 2 5.9947 28.061 28.6064 20
1353 2 8.31548 23.4429 31.359 23
1354 2 6.44757 26.4856 31.4768 22
1209 1 9.83616 28.6539 26.9072 23
1390 2 9.91287 26.4672 31.4044 23
1391 2 10.068 28.1227 29.2851 22
1034 2 10.4404 32.5971 5.27352 20
997 2 8.42033 29.559 4.85093 22
819 1 8.21399 29.4174 2.52201 20
820 1 6.54081 32.753 2.67943 22
822 1 8.53243 31.4027 5.31831 20
1023 2 9.99885 28.7329 1.89258 23
998 2 6.79479 32.6127 4.95742 23
856 1 9.91692 32.1597 3.09034 22
1000 2 8.11911 31.328 2.20718 24
786 1 5.76488 30.8831 5.5612 22
818 1 7.91492 31.0183 0.198675 23
1035 2 9.70432 33.9232 2.40058 23
817 1 6.65174 34.1473 0.201614 22
823 1 8.43736 29.7411 8.49781 23
824 1 6.27871 32.6097 8.12584 22
1004 2 8.32129 31.6721 8.09085 20
826 1 8.19263 31.8508 10.821 22
860 1 9.94679 32.3832 8.61919 22
1038 2 10.0895 32.367 10.7351 22
1001 2 8.06868 29.4544 10.1762 22
1002 2 6.57867 32.6192 10.1164 24
813 1 6.66204 28.5034 10.868 23
1027 2 10.1418 28.7613 7.92271 22
849 1 9.86096 28.899 11.0738 23
1008 2 8.23889 31.6158 12.5812 23
1179 1 8.43102 29.1492 18.8355 23
1177 1 6.13042 34.1564 16.1842 23
864 1 9.37453 32.737 14.0915 20
828 1 6.45409 32.517 13.391 25