ITEM: TIMESTEP
28000
ITEM: NUMBER OF ATOMS
2000
ITEM: BOX BOUNDS pp pp pp
-30.0 30.0
-30.0 30.0
-30.0 30.0
ITEM: ATOMS id type x y z Coordination
1 1 -6.8513 8.87376 -12.544 17
2 1 -5.0225 -4.46104 -7.56021 20
3 1 -0.34646 13.0994 14.9088 12
4 1 9.15146 -4.87084 9.63388 17
5 1 -10.5766 9.53528 2.34776 15
6 1 13.4105 -7.39355 -7.8855 15
7 1 -9.38942 9.02363 -6.58273 13
8 1 5.93001 -3.30566 16.5134 10
9 1 -9.5454 -2.31605 -11.9492 14
10 1 -12.3151 -7.8338 10.3972 10
11 1 14.6435 0.589689 -9.70375 20
12 1 -3.3382 -10.101 2.68277 19
13 1 -10.9469 -5.94991 3.36679 20
14 1 0.491271 3.2019 19.1754 9
15 1 9.54111 -3.28704 7.29037 20
16 1 1.78193 4.2087 10.138 19
17 1 4.97639 9.22589 -13.5101 13
18 1 4.06042 2.09453 10.0845 22
19 1 -5.1335 5.06206 -15.4782 24
20 1 -8.56778 -2.47231 15.1505 14
21 1 14.9801 8.79517 3.08973 22
22 1 0.0718389 6.92673 -14.0968 19
23 1 3.52705 3.7124 -15.9041 20
24 1 16.0307 3.16566 12.8118 11
25 1 -6.89681 -2.67699 2.47839 21
26 1 -8.56727 5.50826 -6.77154 15
27 1 0.242583 -1.30024 -9.59292 22
28 1 -4.89247 8.64356 16.3326 15
29 1 8.68426 -7.97641 10.0263 15
30 1 4.29494 -1.27374 8.65114 19
31 1 -0.777899 -11.0401 -9.61819 17
32 1 9.86853 -8.60617 0.634146 19
33 1 -3.58804 -15.0155 -5.3743 11
34 1 -9.14122 -4.88176 13.5066 18
35 1 4.06182 -3.46351 -19.945 9
36 1 10.6676 -9.09041 -12.6719 10
37 1 0.14841 3.8138 -19.5522 13
38 1 0.772011 1.43911 11.1586 19
39 1 4.25969 -7.16812 14.7035 13
40 1 6.59189 -2.141 13.8426 21
41 1 -11.89 0.250477 8.47834 19
42 1 -10.2737 5.41196 10.0228 13
43 1 -5.8158 1.19072 -4.61934 25
44 1 1.10077 13.0183 0.199359 19
45 1 -0.427655 -8.8772 -15.6052 12
46 1 0.635428 1.39346 -7.80531 21
47 1 5.98338 -4.38235 -7.81511 19
48 1 0.570514 -2.11134 13.1648 17
49 1 -11.1599 -0.552305 2.47019 20
50 1 8.2593 8.77826 -12.8431 12
51 1 2.81998 17.3157 9.3472 8
52 1 -1.08756 14.4725 -11.6754 9
53 1 4.52996 12.0077 -0.00714549 17
54 1 7.47119 -10.2774 3.45131 20
55 1 9.17198 -8.01743 -4.76992 20
56 1 9.47098 -3.29421 -14.8928 19
57 1 -4.32893 8.54272 5.78721 18
58 1 -11.4936 -2.13223 -9.1111 9
59 1 7.30356 4.66944 6.58174 19
60 1 -4.90254 7.11056 -4.25636 18
61 1 -4.87411 -11.0633 5.16034 21
62 1 2.19258 13.9592 12.0081 15
63 1 -9.45474 1.83146 -3.6803 18
64 1 -2.92351 9.01069 11.0155 16
65 1 3.19535 8.83019 -5.21846 22
66 1 -2.76232 -13.1568 8.32777 14
67 1 3.31989 6.62031 6.40106 20
68 1 10.7997 -13.8623 -5.65836 10
69 1 7.24281 12.7545 17.9428 9
70 1 -6.96144 5.37972 -11.9425 19
71 1 -6.64459 12.3481 -6.66684 11
72 1 5.02747 5.48031 10.7305 22
73 1 12.0206 0.491229 -4.69422 23
74 1 12.09 -11.3439 0.140941 13
75 1 -12.3591 -2.43198 9.86072 15
76 1 3.77424 14.6775 3.84175 19
77 1 8.42552 -2.03851 16.0498 11
78 1 -3.72146 -10.2242 7.05702 19
79 1 -7.1267 -3.35625 -0.896598 21
80 1 12.8652 1.88542 4.38736 23
81 1 8.90225 -4.3894 -3.27823 19
82 1 0.219403 9.93152 9.99567 14
83 1 6.07794 -0.715577 11.0631 21
84 1 -4.76054 -4.691 2.24499 22
85 1 -1.80891 -5.53214 -12.0794 16
86 1 -8.61222 11.9793 8.115 11
87 1 -4.72362 10.0669 -3.28269 17
88 1 -3.87421 7.47299 -7.41183 18
89 1 6.87583 -1.74883 -6.15554 22
90 1 12.1921 13.657 -6.94067 12
91 1 12.5497 -9.78334 2.46083 13
92 1 4.34927 -10.1959 14.2495 8
93 1 -0.452997 15.7489 -4.9336 13
94 1 -5.18806 15.28 4.78306 17
95 1 -2.35981 -2.91397 14.6791 19
96 1 -3.03911 5.95765 3.4925 19
97 1 -1.45207 -4.50027 17.3087 10
98 1 14.7931 -5.99426 -5.37414 16
99 1 -8.42027 7.84095 3.15254 18
100 1 -6.88772 -10.9167 2.10996 20
101 1 12.5652 -8.6625 -5.09293 16
102 1 6.62145 0.608482 -8.39897 19
103 1 -5.72016 2.07274 -17.3251 16
104 1 2.86746 11.5117 2.56517 21
105 1 -5.18095 7.16717 -13.6741 21
106 1 4.60348 10.4296 18.4452 15
107 1 3.52314 11.0647 -12.2336 13
108 1 -10.1132 12.3709 1.31702 13
109 1 4.94394 9.07334 0.936543 19
110 1 -5.04861 -8.99377 16.1372 8
111 1 14.5998 3.82702 9.88978 15
112 1 0.962846 -4.5355 -8.16503 21
113 1 6.46422 -7.02243 -6.0517 22
114 1 1.4175 4.13933 6.71267 22
115 1 6.50525 3.34216 15.1181 16
116 1 -4.90639 -7.87986 -2.5253 18
117 1 8.06476 -6.43186 4.09718 21
118 1 -7.10634 -9.4075 -3.14428 18
119 1 11.5793 -8.77254 -1.8793 21
120 1 0.195576 6.05907 5.05149 19
121 1 9.04215 6.02523 -16.5218 10
122 1 10.2799 16.8748 -5.62187 8
123 1 -9.37902 -11.3153 12.2375 12
124 1 -4.1551 -9.15321 10.0855 18
125 1 12.2018 -4.55134 -16.9018 7
126 1 6.36933 3.72321 -3.18617 21
127 1 14.5955 -6.96188 -1.82125 17
128 1 -0.825426 -11.2665 9.39974 20
129 1 -8.66112 -10.6338 -0.72581 12
130 1 15.822 6.59215 12.9333 14
131 1 16.2555 -2.12814 -9.86172 14
132 1 -13.9618 -5.78885 4.5352 10
133 1 11.6869 9.23782 7.00732 21
134 1 14.73 12.2703 1.25288 22
135 1 -6.0761 3.90934 15.7002 16
136 1 11.2804 8.42245 -1.53759 17
137 1 -1.02839 14.5302 10.9566 12
138 1 -0.184727 13.5875 -2.85058 18
139 1 7.98968 -5.77765 -16.3792 13
140 1 10.5181 -12.7111 -9.07983 10
141 1 0.0148286 9.93518 -12.1914 21
142 1 7.28299 0.901445 14.2934 22
143 1 4.61904 2.68326 -19.3029 14
144 1 4.31534 12.0067 -3.21621 20
145 1 15.2207 2.38807 -5.48174 18
146 1 -6.50417 8.48051 -6.72743 19
147 1 -3.9411 14.9201 -0.909574 17
148 1 9.96082 -1.12522 -12.3931 20
149 1 10.2244 -8.91857 5.41166 14
150 1 -4.63182 3.64534 -6.17052 20
151 1 -4.12295 16.0146 10.0579 11
152 1 13.5594 9.74944 -9.73295 9
153 1 3.96993 11.2099 -8.01851 16
154 1 0.76994 18.7435 0.180292 9
155 1 15.4164 10.9488 -3.98806 15
156 1 1.81442 9.77635 -3.11009 18
157 1 1.14963 12.9956 -12.0316 13
158 1 6.69037 5.79594 -11.9538 21
159 1 -9.86992 -10.1337 9.24326 15
160 1 -9.50606 11.9379 -1.94608 14
161 1 -8.35518 2.33809 -15.7549 12
162 1 7.29992 -11.253 -13.3432 9
163 1 5.36918 11.4063 12.5235 20
164 1 1.65818 15.6666 6.00894 19
165 1 -9.5867 -5.56808 -7.55553 16
166 1 -7.28609 14.2846 -0.155371 15
167 1 17.663 7.33345 1.69264 16
168 1 -8.08216 5.43005 -14.6599 15
169 1 10.8738 0.855515 16.1597 11
170 1 7.19868 16.8205 0.662276 14
171 1 -1.91244 9.17228 8.15497 20
172 1 6.97825 -4.30465 -19.4119 9
173 1 -5.27094 17.1449 6.92688 11
174 1 1.48317 12.7425 -4.85229 19
175 1 4.31089 -0.173893 13.0576 20
176 1 -7.68289 -5.22829 3.90121 21
177 1 1.09041 -6.60586 -17.4585 12
178 1 -0.895537 13.2251 -6.86067 16
179 1 0.267206 -17.473 5.66617 9
180 1 2.10987 -15.2538 -7.29084 10
181 1 -5.352 10.8217 -11.3096 17
182 1 -12.2085 0.772496 12.0122 14
183 1 7.61639 9.3852 -1.35258 17
184 1 12.3146 11.8759 -4.17133 14
185 1 -2.2935 3.99099 17.2768 12
186 1 1.54997 -8.0465 12.7912 19
187 1 -10.5513 4.65016 4.20928 16
188 1 3.39181 17.1253 -0.29554 15
189 1 -0.889215 6.28501 12.0049 19
190 1 14.5356 3.60402 14.9589 13
191 1 -1.85631 10.3366 4.90467 19
192 1 13.5748 -7.13148 -10.8705 12
193 1 -0.590804 16.1523 8.63939 14
194 1 -1.95716 0.711577 -9.68153 18
195 1 15.1267 -4.87648 0.0651938 15
196 1 -4.42201 -5.144 5.73485 23
197 1 -12.0745 4.57677 6.69492 12
198 1 -7.71252 -8.76197 8.00933 20
199 1 7.11557 7.62252 11.0012 20
200 1 -12.8584 1.64711 0.564206 12
201 1 4.44986 -11.6445 2.75088 19
202 1 7.32582 -7.62323 1.01821 21
203 1 1.43055 8.96141 3.97266 18
204 1 -8.31044 0.9365 3.49664 17
205 1 5.42734 14.3735 13.6198 11
206 1 -9.30149 -3.82169 -2.6219 17
207 1 -3.20622 11.9046 -5.81954 18
208 1 -14.4868 -5.81453 -3.8408 8
209 1 -6.66018 -5.91532 10.0342 20
210 1 4.6603 -9.75846 5.24166 19
211 1 6.54976 -12.1341 6.21278 18
212 1 -7.48078 14.1021 2.71913 14
213 1 16.1885 2.48758 5.09642 16
214 1 9.83579 0.719413 -7.0157 20
215 1 -3.82181 -6.23746 -16.9467 10
216 1 6.61507 2.21455 11.9227 21
217 1 7.10231 -13.2408 2.68522 18
218 1 -2.35596 5.75138 -13.7442 19
219 1 3.51162 -11.3757 -13.14 13
220 1 5.66362 1.18509 -15.3372 18
221 1 3.2137 6.52987 -15.6221 19
222 1 -8.11991 -2.56639 -7.84533 19
223 1 2.03749 16.947 -6.12739 13
224 1 -7.07222 -9.53929 10.9915 19
225 1 15.977 15.917 -3.13579 5
226 1 -4.36845 1.08062 12.2751 20
227 1 -3.33247 12.1558 -1.68148 18
228 1 9.81495 2.53556 6.68082 22
229 1 -6.4158 -3.79858 -16.0845 11
230 1 0.185367 10.0429 -6.32339 24
231 1 4.68657 5.6782 -9.61609 20
232 1 -1.49245 -5.46414 12.7894 17
233 1 -10.2251 2.13943 5.6694 15
234 1 -7.57867 4.11615 4.70657 16
235 1 2.78327 -9.25462 -10.7936 21
236 1 -1.77927 -12.514 3.46069 17
237 1 8.19701 -12.4288 -2.33019 17
238 1 14.9913 6.5448 15.7136 11
239 1 7.32706 6.29495 -8.09307 23
240 1 4.25675 9.08319 -1.82821 21
241 1 -7.70171 0.0177164 0.797325 20
242 1 -6.39994 13.4344 -3.18924 14
243 1 1.8875 7.34494 10.4004 16
244 1 5.73399 -14.9587 4.81176 10
245 1 13.2272 -2.27765 0.406193 19
246 1 4.05281 9.70128 5.64368 18
247 1 -6.39861 6.83653 5.31648 20
248 1 -13.4025 -7.53903 -2.2273 13
249 1 12.1528 5.37343 -12.5604 15
250 1 6.75154 1.38406 8.55279 20
251 1 10.9122 11.7585 -10.1127 11
252 1 4.26329 -7.7791 -0.935125 20
253 1 1.3432 -1.63672 -12.9811 17
254 1 3.70392 -11.1983 10.8093 15
255 1 11.7222 2.99584 -4.26657 21
256 1 -10.2494 -2.3117 7.21566 24
257 1 7.08403 -16.1402 1.74053 11
258 1 -7.1129 -8.44684 -10.7882 12
259 1 8.57623 16.1826 -2.35222 12
260 1 5.97964 -2.2915 -15.5118 15
261 1 9.976 7.85068 13.0851 20
262 1 16.6839 4.15177 2.225 15
263 1 -5.88821 -8.02528 3.63921 20
264 1 14.6652 -0.979289 -12.569 12
265 1 3.58624 -12.45 5.29251 22
266 1 -7.35259 -2.87067 -13.5274 14
267 1 -10.1471 0.962223 -7.75971 16
268 1 -5.21585 -13.849 11.055 10
269 1 11.4592 -6.63559 11.8335 10
270 1 4.13157 -3.8744 7.59674 20
271 1 -4.3584 -4.43068 -11.0369 21
272 1 1.1652 -8.28543 9.71142 22
273 1 1.43097 4.32107 -13.2883 19
274 1 8.63086 6.46012 3.27177 21
275 1 -6.62141 -6.52769 6.42732 18
276 1 6.98115 14.3982 2.14422 14
277 1 -4.7539 -3.23159 12.4214 20
278 1 -7.28248 -11.3342 -9.20662 12
279 1 -2.09862 -2.80868 -13.5408 21
280 1 -3.28375 7.01427 -16.7209 14
281 1 -4.33755 -10.3642 -10.9957 12
282 1 -1.97663 -8.38204 -0.945042 20
283 1 12.5294 -3.23158 -13.9908 14
284 1 16.6992 3.54821 -8.48127 10
285 1 13.1034 -1.29206 3.38002 25
286 1 -3.8986 -5.62163 10.9678 17
287 1 -3.97969 -10.6737 -0.892148 20
288 1 9.5007 3.94056 16.3918 14
289 1 -3.9355 -13.8664 4.14703 19
290 1 -0.447834 -11.0685 0.245041 19
291 1 2.68379 14.7785 -2.09845 18
292 1 4.41048 -1.27731 -12.3802 18
293 1 -3.75618 -2.72154 -16.2649 17
294 1 -6.72218 -6.38584 13.0054 19
295 1 5.34968 7.69179 19.8948 10
296 1 4.81425 -9.88571 0.721097 19
297 1 0.529993 -7.56405 -9.68182 20
298 1 -5.91024 7.48838 -9.8396 20
299 1 10.9987 5.0423 7.70023 19
300 1 -4.96801 1.17594 -8.04683 20
301 1 1.76289 8.648 -8.67107 20
302 1 -1.76369 -3.81475 7.39441 19
303 1 7.21327 -12.4664 -7.91824 17
304 1 -1.02849 16.2539 -1.38409 15
305 1 0.620719 14.8648 3.50194 21
306 1 9.16123 -2.72094 11.8075 15
307 1 -7.4677 -1.66123 5.13812 18
308 1 -1.59682 -2.76317 11.3504 20
309 1 -2.79627 11.8227 9.78862 17
310 1 9.13712 -2.91772 -17.5907 12
311 1 16.6544 9.91382 0.169506 18
312 1 10.7749 -13.1396 -2.57746 13
313 1 0.448949 -2.29599 16.6266 14
314 1 -13.1768 -5.46629 7.98508 12
315 1 -0.974086 -13.6073 -4.41169 17
316 1 -6.02882 6.67304 8.00341 16
317 1 -9.03389 3.60472 15.0784 15
318 1 -11.2613 -2.15015 13.5001 12
319 1 -11.4788 -4.92445 12.1773 10
320 1 10.0206 -1.63541 -4.46942 19
321 1 -9.25527 -7.46065 11.2046 18
322 1 11.5842 -0.628848 -9.60525 19
323 1 9.9078 -6.5638 -1.13226 23
324 1 4.27179 16.5358 -7.74776 11
325 1 -8.06128 8.38822 0.116204 16
326 1 11.1827 4.93954 13.4074 19
327 1 -10.1482 -3.11949 3.79064 19
328 1 6.54321 -9.67275 -5.04097 16
329 1 -2.29386 8.56546 2.47693 18
330 1 -4.78979 3.14375 3.15118 18
331 1 6.49625 -10.2434 8.79107 16
332 1 13.7054 -6.16471 6.1035 12
333 1 -0.0495452 6.61471 7.98767 18
334 1 -7.01208 -5.0398 -5.61405 22
335 1 2.50038 0.17679 18.2149 12
336 1 -1.68827 14.042 0.711681 18
337 1 12.2986 5.74287 16.5532 12
338 1 -2.87087 14.7346 -3.98565 13
339 1 0.986715 -2.03491 -18.9223 13
340 1 -8.23125 0.302352 -6.15281 21
341 1 7.3907 -8.30798 -12.6161 18
342 1 -4.80687 4.07664 12.885 20
343 1 -13.2665 2.39313 3.94918 15
344 1 -2.44581 -2.60928 -7.72855 19
345 1 -0.487007 10.4739 -1.03373 19
346 1 11.8593 -0.0935766 6.27887 19
347 1 -7.75003 -10.3901 4.49903 17
348 1 7.3841 -5.65431 7.37298 23
349 1 -8.01838 -9.27079 13.8513 12
350 1 -9.89117 1.34 -0.512727 17
351 1 -1.1257 -1.14501 8.75246 20
352 1 4.8353 -14.8474 -6.57053 14
353 1 -5.29113 -1.6711 -8.29178 19
354 1 9.90871 6.82919 -13.7733 16
355 1 6.79648 13.8927 5.52189 18
356 1 -10.2954 0.487542 -10.8534 15
357 1 5.59747 -4.29127 -11.1276 20
358 1 11.528 4.43458 -9.54388 16
359 1 -1.00564 -16.3668 -3.4227 9
360 1 -10.3278 -10.3907 -5.83645 11
361 1 4.04626 -8.3262 -4.23329 19
362 1 17.9949 8.51267 12.9369 7
363 1 17.4675 2.26862 -2.88635 13
364 1 -4.10776 3.79639 -12.0393 19
365 1 5.39484 14.8471 -1.5396 18
366 1 -11.4291 0.525141 -4.92976 13
367 1 -6.95728 10.1093 5.18306 22
368 1 -3.13198 10.523 0.739044 21
369 1 -2.97859 6.25792 6.39888 18
370 1 11.5272 2.29096 11.2631 17
371 1 10.2608 -2.97017 -7.35093 20
372 1 11.7049 -3.81877 13.695 13
373 1 12.5772 1.83313 -7.72018 24
374 1 2.56558 -15.8889 -4.02756 13
375 1 0.647689 -7.01115 -6.37148 19
376 1 2.13365 9.02281 0.926373 21
377 1 -7.83909 -0.410289 -2.53107 22
378 1 3.17074 -11.7411 -5.72276 18
379 1 16.2699 -0.649755 4.95252 12
380 1 -7.11329 -2.55586 -4.32143 20
381 1 -0.987983 -6.91685 6.18998 19
382 1 -5.97119 -1.80397 16.9831 11
383 1 -0.289553 11.4289 2.33258 22
384 1 -10.3186 -8.32988 -2.84909 17
385 1 8.67587 10.6378 16.8184 14
386 1 -6.0599 6.14112 -1.48223 17
387 1 -1.63962 9.25998 -8.86464 23
388 1 11.2044 10.7095 9.90525 18
389 1 -12.3278 -8.44378 3.6839 12
390 1 0.806972 -10.1446 -4.68121 18
391 1 -7.40751 -2.28837 12.2901 19
392 1 -10.111 4.20016 -0.465133 14
393 1 4.68618 -7.02075 2.76697 22
394 1 -4.25794 -14.4831 -1.57116 16
395 1 10.6499 13.1994 11.979 12
396 1 12.4354 6.05878 -16.0328 7
397 1 -9.40217 7.43693 -8.6337 13
398 1 -3.33129 12.5138 -13.2015 13
399 1 -4.83015 4.33448 -8.99061 17
400 1 -1.07814 -10.061 5.15434 19
401 1 14.8139 8.81517 6.25169 15
402 1 6.19017 6.53201 -14.5616 16
403 1 -2.66031 1.34046 6.46992 18
404 1 -14.3403 -0.543043 4.18165 12
405 1 -7.53871 2.87391 1.51184 20
406 1 -5.45709 -13.939 6.37249 16
407 1 3.81451 -5.28925 -5.91507 20
408 1 10.2023 -5.64207 -9.46652 18
409 1 -11.8995 -0.253446 5.42771 20
410 1 -10.1769 0.643546 14.2017 15
411 1 -9.8982 6.76716 6.95097 15
412 1 1.05738 -4.13821 9.19824 21
413 1 -8.60374 5.37718 -17.3256 9
414 1 10.2172 -8.20468 -7.8481 21
415 1 1.42975 -10.2479 -8.02677 20
416 1 -3.54581 -6.16823 15.2702 14
417 1 5.79673 -4.2186 -4.10693 22
418 1 -4.87924 10.33 -14.9228 13
419 1 5.9588 -12.8454 -0.00743849 20
420 1 8.57451 9.41603 -6.16623 22
421 1 -10.3834 10.1722 6.68325 11
422 1 -2.71026 -0.833467 17.2173 11
423 1 -7.40338 -5.56129 -12.8185 13
424 1 -7.67312 -3.90047 6.99179 20
425 1 12.2881 -5.02223 8.4938 17
426 1 10.9939 1.74113 -2.0921 19
427 1 -0.294858 -3.74788 -11.5522 18
428 1 12.3665 -6.78188 0.730448 22
429 1 17.0672 7.5785 -1.64148 17
430 1 -1.72916 3.32055 11.7739 20
431 1 7.97577 12.3828 -2.61548 17
432 1 6.66711 -6.14238 10.0304 20
433 1 -4.34979 -9.45975 -7.88836 18
434 1 0.482469 9.94106 16.2157 17
435 1 -1.87183 16.4476 5.99571 16
436 1 -5.07522 -13.019 -8.04438 10
437 1 11.2519 13.7688 4.38577 17
438 1 4.56239 8.85971 8.85887 17
439 1 -7.69846 4.25854 8.38581 19
440 1 -4.13018 -10.0696 -4.69417 21
441 1 -6.82373 6.71038 14.3482 16
442 1 -9.82312 -4.90107 -10.9039 11
443 1 -5.85864 9.26461 10.3309 10
444 1 -1.8731 -6.14564 -8.63655 18
445 1 0.72288 -10.2359 -12.4368 16
446 1 0.146812 -12.6684 6.5132 18
447 1 -4.24263 -1.48468 6.86693 21
448 1 12.2409 -3.19557 5.90033 22
449 1 -4.51467 -4.91395 17.7843 10
450 1 -7.99163 10.5858 -9.33542 15
451 1 8.88271 7.15818 0.467613 17
452 1 -6.13469 -12.5015 -0.103863 13
453 1 1.00843 3.68363 -6.12292 24
454 1 2.47278 17.384 2.8135 13
455 1 1.29041 3.97488 -9.21039 21
456 1 -0.93506 6.12797 14.9021 17
457 1 -12.0858 -0.267533 -2.2675 11
458 1 4.17561 17.1645 -3.86647 12
459 1 8.69151 8.96387 -9.26466 21
460 1 -7.26862 -5.74639 -8.94415 20
461 1 5.41145 5.97576 13.9705 19
462 1 1.90521 -13.1077 -10.6879 12
463 1 6.41909 -5.14938 -13.8518 19
464 1 8.76911 -11.0617 0.86986 20
465 1 -9.56432 12.3543 4.56725 14
466 1 1.68073 6.96473 14.4318 19
467 1 13.0606 9.41569 0.714896 18
468 1 7.67179 11.4041 0.724176 18
469 1 -5.18916 12.7133 -8.82657 11
470 1 3.6854 2.80126 -8.25454 23
471 1 4.66833 -6.60307 5.9658 22
472 1 -13.6803 -1.30799 1.03998 10
473 1 4.84255 16.0564 7.11972 11
474 1 -2.90173 -0.0827425 -15.5896 17
475 1 12.2017 7.21829 4.76675 21
476 1 5.45214 8.68738 -10.5613 19
477 1 10.7185 -7.49703 3.24139 16
478 1 15.5811 11.8058 4.96473 14
479 1 -2.9525 -2.09891 -10.6995 21
480 1 2.43151 -9.44934 2.68179 18
481 1 2.63359 -11.642 8.55658 19
482 1 4.22438 -4.65001 13.4877 14
483 1 -6.90847 2.68383 -10.8797 21
484 1 -7.42531 -11.705 6.86006 17
485 1 0.628738 -12.415 -7.26191 16
486 1 10.5256 15.534 9.75813 10
487 1 2.7526 0.402394 -9.16543 23
488 1 5.73684 -0.351917 16.8899 15
489 1 -12.4601 3.40981 9.5401 12
490 1 1.13343 -15.1859 0.798832 15
491 1 -9.73797 -1.84793 0.31846 22
492 1 16.0449 -3.1194 -6.27308 12
493 1 10.2645 -1.46756 -1.94642 20
494 1 -4.43344 3.99434 -3.01121 23
495 1 4.22629 -9.00545 -7.92488 18
496 1 3.88358 3.26675 -10.9558 18
497 1 12.9356 -3.1973 -4.78743 21
498 1 -1.51318 -0.148407 12.8385 18
499 1 9.44254 16.3143 3.33747 12
500 1 -2.03846 -1.26887 -18.5673 10
501 1 8.80799 -0.264894 -15.5176 17
502 1 -6.91934 -2.29231 9.35259 22
503 1 -1.9064 13.7817 4.21836 20
504 1 -8.04655 0.183031 -13.0962 21
505 1 -14.1757 -2.14819 7.24273 15
506 1 2.35079 -9.7527 -15.7847 11
507 1 -6.17449 -11.9576 13.6261 9
508 1 0.687777 11.5603 -9.26983 20
509 1 14.8527 1.42428 7.5666 17
510 1 15.888 3.51684 -0.472169 19
511 1 -4.92704 -12.2447 -3.41625 15
512 1 2.09052 -9.4469 -1.99406 19
513 1 -4.74813 -4.9934 -13.955 20
514 1 -6.53094 14.7076 9.21949 13
515 1 3.78994 -6.02087 -8.74563 23
516 1 14.5355 1.97807 -2.81048 20
517 1 7.19027 10.9976 -8.48258 15
518 1 10.3026 -11.5837 3.38536 13
519 1 17.4832 8.73465 -4.85269 13
520 1 4.08433 8.51252 12.266 19
521 1 -9.31507 1.6592 9.90194 20
522 1 7.77736 13.7023 11.4695 16
523 1 9.92992 -0.645724 13.9153 21
524 1 3.10178 1.36732 -13.4644 20
525 1 -4.57893 -4.49985 -3.83947 23
526 1 1.8466 -0.954961 10.6112 17
527 1 6.25092 11.9272 9.44159 20
528 1 6.99949 3.37731 -9.67368 20
529 1 -2.52225 8.62468 -5.34575 20
530 1 2.71706 13.8195 -7.49314 18
531 1 13.2946 -3.45992 10.8354 16
532 1 14.4505 3.9997 -9.90914 16
533 1 11.6575 -6.27202 -3.68735 18
534 1 14.879 9.15808 14.171 11
535 1 -13.381 -4.65783 -0.56607 10
536 1 -2.28584 11.8008 -10.255 18
537 1 1.03089 1.36344 8.40648 19
538 1 -7.81964 1.82751 12.9461 18
539 1 -3.12907 8.65767 -12.3529 23
540 1 9.11593 -11.51 -5.74085 20
541 1 5.41809 -1.83203 -9.39298 17
542 1 1.07744 18.171 -2.85639 11
543 1 -6.36043 -0.376744 -15.9622 17
544 1 3.91523 -14.7242 2.39947 19
545 1 -9.69902 -5.23919 0.235753 17
546 1 1.73566 9.56777 -14.8703 13
547 1 -7.30246 2.62721 -1.81009 22
548 1 0.737279 3.86983 13.8705 18
549 1 -9.32185 -4.07433 9.86205 19
550 1 5.96621 6.70112 -1.13561 21
551 1 5.92187 -10.2498 -10.8563 22
552 1 6.56443 -7.92225 13.1821 13
553 1 8.98212 2.03826 -4.24115 21
554 1 -3.97934 11.3422 6.67321 14
555 1 2.69346 13.6326 15.2298 11
556 1 6.49747 13.9734 -8.13057 16
557 1 11.6346 -5.28636 -6.74585 16
558 1 2.14769 11.2234 13.5366 18
559 1 2.90692 5.0832 -18.5372 16
560 1 -3.00711 -11.9543 11.7404 16
561 1 -0.873645 4.16945 -11.0499 19
562 1 7.43259 -1.70102 -20.3918 9
563 1 9.31932 11.8913 6.94784 21
564 1 9.80489 3.6087 -7.62232 21
565 1 2.25166 -5.36096 -11.6391 17
566 1 -1.57886 -11.9658 -2.5241 19
567 1 -10.9571 -7.7017 -8.38057 11
568 1 11.654 6.55101 1.5466 20
569 1 19.3259 8.26088 -0.0536931 10
570 1 8.62701 -4.67331 -6.3089 18
571 1 17.2463 5.65446 10.5839 12
572 1 7.55067 -9.2994 -7.69837 19
573 1 5.90162 4.87305 -17.2793 15
574 1 8.51733 12.4141 3.60409 18
575 1 -6.42103 5.90674 1.79145 19
576 1 9.67137 7.79042 17.5099 13
577 1 15.3253 7.11938 -5.55262 14
578 1 15.6688 -1.92529 1.72205 15
579 1 15.0372 6.57085 -8.80984 11
580 1 13.7827 -1.08982 8.43961 19
581 1 13.9024 0.488269 10.7736 21
582 1 4.48237 -8.30372 8.47033 21
583 1 15.9749 13.408 -1.50785 14
584 1 4.04032 1.69569 15.6532 19
585 1 17.2976 0.285592 -7.51528 12
586 1 12.0973 8.77021 16.1446 12
587 1 -7.32934 0.209137 -9.66146 22
588 1 12.8771 11.2332 3.88352 19
589 1 10.0417 -3.35596 3.67944 20
590 1 -5.17797 11.9165 14.9173 7
591 1 12.7413 7.9466 12.2326 16
592 1 11.3631 -1.02649 11.5133 20
593 1 5.05527 11.8087 4.09331 20
594 1 3.71321 12.778 7.2407 22
595 1 6.46817 6.64704 8.19838 18
596 1 -1.27918 -15.6711 2.7452 16
597 1 -1.20511 11.5666 -4.00422 23
598 1 11.2184 14.6224 -2.78366 16
599 1 9.56019 1.59299 -10.1459 21
600 1 7.0647 16.0926 -5.97816 14
601 1 3.99529 -12.6726 -8.46795 19
602 1 14.2291 -3.70967 -10.9011 13
603 1 -14.1051 1.49712 6.88194 13
604 1 -3.02114 6.03126 -10.1417 19
605 1 2.50225 -12.2584 0.318358 22
606 1 -4.58836 0.220628 -11.2626 22
607 1 -10.8977 3.95665 -6.32179 14
608 1 14.3775 -8.92406 0.244517 12
609 1 15.6344 12.3094 8.30872 11
610 1 2.00501 -6.69637 7.37808 21
611 1 -9.90055 3.74708 -9.53906 17
612 1 2.407 1.27749 -17.4387 20
613 1 -0.457192 1.86255 17.0328 14
614 1 11.3444 8.56383 -11.2501 14
615 1 14.8609 -2.822 13.9142 9
616 1 8.46646 7.40848 -3.32556 21
617 1 13.7271 15.0501 7.49376 13
618 1 5.2841 -13.5609 -11.0637 10
619 1 -4.62166 -0.691868 14.6118 19
620 1 10.7585 -5.77145 6.09234 21
621 1 -2.63621 11.725 12.8099 17
622 1 9.5411 6.40641 -11.061 18
623 1 -11.0116 9.80545 -3.59422 12
624 1 11.0662 11.7089 1.59814 20
625 1 -7.48586 -13.8735 4.18871 12
626 1 14.2279 -6.78426 2.89218 14
627 1 10.0899 15.1002 6.7222 16
628 1 -1.49645 3.71214 8.10302 20
629 1 -11.6261 -9.42253 0.161885 10
630 1 -6.54041 -2.46342 -10.9023 21
631 1 10.6303 -0.482956 8.57755 19
632 1 1.38327 -5.3334 15.1542 14
633 1 7.83951 4.86356 12.6244 21
634 1 -4.56157 13.4764 1.93118 19
635 1 10.1164 3.84892 1.71854 22
636 1 13.5596 3.68091 2.30299 22
637 1 9.73266 2.53658 -16.5253 13
638 1 -8.77359 0.271191 6.81471 17
639 1 2.74708 -3.10677 -10.1558 19
640 1 -2.45327 -5.29037 -5.94424 21
641 1 11.9905 -11.1998 -6.78663 13
642 1 8.57633 4.35507 9.40152 18
643 1 7.58821 3.74409 3.4215 20
644 1 -7.48388 6.21047 17.1774 11
645 1 8.45698 10.6733 11.6215 22
646 1 2.91237 -1.37995 15.7127 15
647 1 -5.73806 3.46946 10.1769 20
648 1 -1.77474 -6.33731 -15.1463 19
649 1 -4.24091 5.86612 15.707 17
650 1 9.74022 2.53347 13.4527 23
651 1 -5.56065 -11.9069 8.85168 21
652 1 16.815 13.6988 2.89133 10
653 1 7.8316 -14.3368 -5.12076 16
654 1 -2.26512 5.66461 -5.73469 21
655 1 10.5343 11.4652 -1.39546 22
656 1 12.498 12.1509 6.4483 21
657 1 7.1246 1.47217 -18.288 13
658 1 4.28734 14.4074 -5.12999 21
659 1 8.13549 9.72778 8.72044 20
660 1 -9.66823 -8.54819 2.22676 18
661 1 2.46157 2.26762 -20.7943 11
662 1 -6.54815 11.5429 -0.518693 17
663 1 11.3187 -3.14957 -11.4153 15
664 1 11.0263 4.05621 4.31665 22
665 1 9.99145 7.08994 -6.56381 21
666 1 14.7092 15.3272 0.266921 10
667 1 -5.40864 8.55973 2.75243 21
668 1 9.42953 4.60828 -1.98799 21
669 1 15.383 0.158173 13.4671 13
670 1 13.0986 -1.33106 15.7187 10
671 1 -3.44074 -9.33108 13.7562 12
672 1 -0.241005 7.47106 -10.879 20
673 1 4.5211 11.4773 15.7854 18
674 1 13.5861 -6.07991 -13.9297 7
675 1 4.25624 3.79688 7.81581 20
676 1 9.57987 15.2212 -7.97393 10
677 1 10.6081 9.69929 3.9079 18
678 1 15.3153 -3.21013 -2.73745 17
679 1 7.15653 4.95073 17.9075 10
680 1 -9.86855 -5.75041 6.54067 22
681 1 1.49838 -14.8999 4.53451 15
682 1 3.60707 -2.73916 -7.21032 22
683 1 -5.15093 16.5184 1.62704 12
684 1 3.25873 6.74025 2.93306 19
685 1 8.45012 -9.43697 -2.34649 18
686 1 6.73294 9.22872 3.40624 20
687 1 -12.7171 -3.31175 4.97446 18
688 1 6.47122 7.87975 17.2365 21
689 1 -5.2671 4.57648 -18.8928 12
690 1 -1.5306 9.54082 -14.6807 16
691 1 4.81117 -13.7486 -3.66291 17
692 1 11.9587 10.1452 -6.95441 18
693 1 7.1343 -2.36413 8.86917 20
694 1 0.0784879 6.49562 1.93454 21
695 1 -11.2206 3.92959 12.7674 12
696 1 3.30547 -0.872797 -15.8659 16
697 1 4.90075 -8.58467 11.3091 19
698 1 3.89302 14.5774 1.26679 19
699 1 -2.33245 3.10546 14.3395 19
700 1 -4.28757 -7.11962 -9.7059 14
701 1 -1.02398 -4.36433 -17.724 13
702 1 -2.55042 -12.1224 -6.58067 16
703 1 1.02221 15.6267 -9.24492 13
704 1 6.44517 -7.01335 -2.95712 21
705 1 -0.148671 13.9003 6.89098 14
706 1 6.76794 -7.57796 -9.48404 23
707 1 9.34449 -14.3416 0.285717 14
708 1 3.17139 -6.3554 10.4954 19
709 1 17.5568 5.12394 -3.57621 14
710 1 9.04689 -15.7329 -2.74373 13
711 1 -9.94615 -1.17761 10.7856 19
712 1 -2.30716 -16.768 -0.108242 12
713 1 -5.57024 -7.88791 -5.46243 20
714 1 -6.70289 0.154563 11.2361 17
715 1 -4.69345 -16.636 4.49103 10
716 1 14.1494 8.29279 -2.78971 20
717 1 -3.53077 18.4168 3.64968 11
718 1 -4.80451 3.37406 6.47419 20
719 1 -11.7317 9.97813 -0.484289 10
720 1 12.2614 1.12193 1.21528 19
721 1 -8.78256 -7.70745 -5.30842 23
722 1 5.81508 9.82149 -4.2755 18
723 1 6.51919 3.90811 -6.61853 23
724 1 8.09334 11.8539 14.495 18
725 1 12.8842 4.96189 -6.74966 23
726 1 -11.0765 7.00024 -4.57086 11
727 1 -12.4189 -8.17767 -5.77459 12
728 1 2.65876 8.53041 17.887 14
729 1 5.8517 2.96942 -13.2538 15
730 1 12.3827 13.2883 9.1542 17
731 1 -2.8415 1.60012 9.78687 21
732 1 -1.65183 -8.88824 -7.09868 19
733 1 -2.78072 -15.94 6.7506 11
734 1 -1.12844 -5.7781 9.67645 19
735 1 14.3567 12.0865 11.5422 10
736 1 4.45709 -7.51441 -12.3117 19
737 1 -4.83703 8.34617 -0.568014 21
738 1 5.93268 7.39904 4.99625 17
739 1 -4.52417 -4.10154 8.83712 22
740 1 11.4359 7.21103 -8.51221 19
741 1 5.73225 -16.6383 -3.20707 12
742 1 2.42671 -14.6969 7.39539 15
743 1 2.95757 -15.0994 -1.27059 15
744 1 10.1169 1.72053 -12.7316 18
745 1 10.4481 16.9136 0.0550969 12
746 1 -5.75754 1.97151 -14.098 20
747 1 1.36431 0.820766 14.5663 20
748 1 0.105729 4.25731 -16.6252 22
749 1 -9.67085 6.46601 -11.8287 9
750 1 -7.93291 -6.20938 -2.61796 20
751 1 3.97408 13.1311 -9.94762 14
752 1 9.00932 -4.81088 1.06079 20
753 1 0.496818 -3.08692 -15.377 17
754 1 -4.68657 -8.02856 0.803187 20
755 1 15.2881 10.6255 -7.148 10
756 1 12.5866 -4.18399 2.26983 22
757 1 -2.42021 10.1959 14.9969 16
758 1 9.49783 -10.5831 7.77205 10
759 1 15.4133 -0.146966 -1.05137 15
760 1 9.26238 1.25056 11.1739 18
761 1 1.33396 11.9131 5.27187 23
762 1 -7.39339 0.822369 15.9357 15
763 1 -3.70666 8.06523 13.2463 19
764 1 0.674022 -11.3528 12.1398 14
765 1 9.78997 0.750847 3.8467 25
766 1 6.91338 8.46604 13.646 18
767 1 -12.2201 -3.97383 2.09296 17
768 1 12.1254 -4.41991 -1.51359 20
769 1 -7.94078 10.8605 -4.22368 13
770 1 5.94503 6.02276 1.74136 22
771 1 2.28408 -13.8613 10.329 11
772 1 8.54198 6.35197 15.5692 19
773 1 1.28223 12.8615 8.95884 16
774 1 1.95101 -9.34154 6.3874 20
775 1 -4.73436 -5.25078 -0.886133 20
776 1 3.62078 3.40001 13.018 22
777 1 -12.3812 -3.1027 -3.98485 11
778 1 1.68471 12.3662 18.1854 10
779 1 8.8281 14.0201 0.180933 22
780 1 -8.46397 -13.3564 9.50003 9
781 1 -0.113959 -16.1542 8.46966 7
782 1 11.2312 -7.61416 8.37995 16
783 1 15.6475 -2.05456 10.7562 10
784 1 9.08705 7.97182 6.30577 24
785 1 0.261099 6.88097 -4.70088 20
786 1 5.89556 -8.42056 -15.1169 13
787 1 -1.52441 0.0937999 -12.684 23
788 1 -4.20812 -1.151 10.0408 20
789 1 -0.617703 18.2027 3.44737 12
790 1 15.8077 1.31534 2.48056 18
791 1 0.0913451 6.47563 -7.42977 21
792 1 -0.482966 9.14116 12.5921 19
793 1 10.7699 10.7286 14.3195 12
794 1 9.41542 -5.88553 -13.0379 16
795 1 -3.15546 -12.8762 0.952393 21
796 1 -4.05055 -1.36374 -5.54351 21
797 1 14.829 -3.85727 3.78545 17
798 1 7.07704 0.862757 -11.8788 17
799 1 2.16823 4.03305 16.3525 15
800 1 11.8471 -9.92764 -9.87138 15
801 1 12.7069 2.95481 -15.0898 11
802 1 -1.78931 -7.55861 -4.48679 19
803 1 12.5295 1.83181 -11.5423 21
804 1 12.6193 3.98793 -0.673983 20
805 1 4.19224 -3.17694 11.0617 18
806 1 3.2162 -6.51956 -14.9875 18
807 1 12.4423 16.3691 2.88001 10
808 1 2.10339 -6.9133 4.15993 22
809 1 -11.7305 7.79966 4.78785 12
810 1 8.74722 4.99541 -5.16392 21
811 1 15.4464 5.89944 4.38649 17
812 1 2.47335 -3.97635 -16.9889 15
813 1 -5.71344 11.7556 8.83049 13
814 1 16.5722 7.27383 7.82919 11
815 1 15.1529 13.6318 -5.38659 9
816 1 8.47587 3.8595 -13.2608 19
817 1 12.9837 -1.19133 -2.4719 20
818 1 -11.1675 -5.90634 -4.52612 18
819 1 14.3026 14.2897 4.39095 17
820 1 -10.3524 -11.5434 2.19571 11
821 1 -4.36565 10.185 -8.00438 21
822 1 11.6448 4.98081 10.4807 15
823 1 -9.9714 -2.40613 -5.54221 18
824 1 -7.72689 8.93416 8.23631 16
825 1 -1.88018 3.66817 -7.9214 22
826 1 15.5726 -4.9816 -8.60544 11
827 1 -7.70197 -8.60717 -7.82132 19
828 1 15.3483 -9.11498 -3.51605 9
829 1 -10.6897 6.76597 1.46828 14
830 1 0.555829 -6.94372 -2.81456 19
831 1 10.6999 7.87828 9.87946 18
832 1 -3.16229 -7.7886 4.27304 17
833 1 12.7569 1.45545 13.7463 19
834 1 14.9738 -3.19453 7.17862 13
835 1 10.3478 -1.21214 1.74269 20
836 1 -7.56661 10.955 2.04709 20
837 1 3.67636 8.67197 15.3719 19
838 1 2.88355 7.23798 -11.7645 18
839 1 5.06015 -5.17167 -17.0818 16
840 1 -3.1219 14.1291 7.57038 19
841 1 -4.79444 -7.40299 8.23413 18
842 1 9.47945 12.4317 -7.63785 16
843 1 -3.86738 13.9588 12.0245 11
844 1 16.1016 -0.954448 -4.46086 14
845 1 7.39235 -5.02438 13.5897 13
846 1 0.316655 7.01757 -17.5012 12
847 1 5.57109 8.99205 -7.41058 19
848 1 -5.9931 1.21582 8.28969 21
849 1 16.7701 4.49145 7.32891 12
850 1 -4.59056 -1.63179 -13.4028 24
851 1 16.5942 16.3678 5.73995 5
852 1 -12.2899 4.36458 1.36648 11
853 1 -1.63552 -8.92029 8.11416 16
854 1 -0.847508 12.9559 -14.8454 7
855 1 7.94742 -0.647299 6.46774 20
856 1 -1.03306 -14.7504 -1.25861 17
857 1 -1.94336 17.4285 1.09284 13
858 1 -11.3234 7.03826 -1.26726 13
859 1 8.48536 -1.1007 -9.34022 20
860 1 1.03724 -7.42742 -13.0628 18
861 1 -4.48494 11.4821 3.71268 18
862 1 18.3877 10.996 -2.22651 10
863 1 -5.53735 0.655507 5.27576 20
864 1 8.57897 -3.70549 -11.0062 15
865 1 -3.29004 -8.8534 -13.9038 9
866 1 1.64818 -12.3487 -2.32477 17
867 1 -2.89107 5.58969 9.78057 19
868 1 13.3379 -11.551 -3.45377 10
869 1 -2.65267 3.67913 -17.2516 19
870 1 18.6546 4.82034 -0.496409 10
871 1 13.6139 11.1747 -1.51956 17
872 1 4.03787 -17.3002 0.829216 9
873 1 5.13954 -0.238399 -19.6931 12
874 1 12.0823 6.13211 -3.97579 20
875 1 0.0791268 1.12845 -18.3289 15
876 1 1.5484 -5.24399 11.949 18