ITEM: TIMESTEP
16000
ITEM: NUMBER OF ATOMS
2000
ITEM: BOX BOUNDS pp pp pp
-30.0 30.0
-30.0 30.0
-30.0 30.0
ITEM: ATOMS id type x y z Coordination
1 1 -8.30799 7.71446 -12.6275 18
2 1 -5.3891 -4.77223 -7.77962 20
3 1 2.13337 13.1189 13.9251 13
4 1 8.36621 -10.4039 9.83328 10
5 1 -11.991 9.48351 2.50726 13
6 1 12.9887 -8.33103 -6.63147 16
7 1 -10.7101 9.1358 -6.84835 13
8 1 4.00563 -6.44086 15.6972 10
9 1 -9.61933 -2.15591 -10.0367 21
10 1 -11.533 -7.25605 8.9502 13
11 1 14.5139 0.466215 -11.0544 11
12 1 -2.8398 -10.427 2.51653 22
13 1 -10.8484 -4.56819 2.42983 24
14 1 0.508846 3.59634 17.0931 10
15 1 8.88855 -4.21078 7.09848 20
16 1 1.44622 4.574 10.0635 18
17 1 2.89505 12.8348 -10.6735 14
18 1 3.35661 1.49343 10.6332 23
19 1 -5.27302 2.57447 -16.9896 14
20 1 -10.4231 -0.502381 14.1924 10
21 1 14.7525 7.28222 4.32826 15
22 1 -0.466382 10.5069 -13.9369 15
23 1 2.13517 4.27907 -13.8238 17
24 1 13.4443 2.71256 14.6437 18
25 1 -7.35315 -2.27019 2.23557 20
26 1 -10.2612 6.30388 -7.73449 17
27 1 -2.26306 -1.92033 -8.42316 20
28 1 -8.55814 10.0127 13.6056 9
29 1 7.88726 -9.81477 6.44583 16
30 1 4.16376 -1.07055 8.5596 23
31 1 -2.30509 -10.7945 -9.66239 18
32 1 9.11937 -10.7057 0.589752 18
33 1 -5.03296 -14.6981 -5.23603 11
34 1 -10.5955 -3.37077 12.2691 16
35 1 3.56758 -4.48676 -19.5621 10
36 1 8.90926 -8.4258 -11.903 16
37 1 -1.72957 4.36507 -19.3459 10
38 1 0.496071 2.29818 11.7632 22
39 1 1.87297 -9.97698 11.919 14
40 1 7.1677 -5.60617 14.2167 12
41 1 -12.7997 -1.77706 8.05504 21
42 1 -11.7077 1.11543 7.89034 17
43 1 -5.31089 0.788885 -5.12033 18
44 1 0.566327 12.4503 -0.562229 14
45 1 -1.90017 -12.3288 -15.544 10
46 1 0.184877 1.81484 -8.22429 19
47 1 8.70427 -2.97945 -7.80791 17
48 1 0.685882 -3.05418 11.9431 17
49 1 -11.5493 1.42332 1.79004 19
50 1 5.57877 9.41405 -13.7153 14
51 1 2.08661 16.1988 8.87457 9
52 1 -2.26175 15.9648 -8.65345 11
53 1 3.6043 11.8127 -0.0121882 19
54 1 7.24898 -8.63134 1.60331 21
55 1 10.1637 -8.13986 -3.9076 19
56 1 8.60475 -4.71744 -16.947 12
57 1 -5.20615 8.93278 5.2255 18
58 1 -10.4572 -0.614498 -7.59375 16
59 1 6.98002 4.69817 6.51856 19
60 1 -5.08515 7.08974 -4.62528 18
61 1 -5.47271 -11.4013 4.64541 20
62 1 1.14184 13.54 11.4049 18
63 1 -10.1828 5.3803 -5.12418 15
64 1 -4.57916 13.1294 12.7053 8
65 1 3.00425 8.85428 -4.45762 16
66 1 -2.69228 -13.8646 10.685 14
67 1 3.21015 6.7191 6.51391 20
68 1 10.5501 -12.9525 -5.03911 15
69 1 7.13209 10.9415 15.3684 20
70 1 -10.5063 3.23001 -9.33766 15
71 1 -8.13872 10.2774 -8.01128 15
72 1 6.40188 6.98477 11.6878 17
73 1 12.697 -1.07363 -6.44038 19
74 1 10.2518 -13.5723 1.29513 9
75 1 -15.5108 -1.56615 9.39519 10
76 1 4.00549 16.93 2.60006 18
77 1 5.64205 -3.66273 16.1653 12
78 1 -4.93659 -12.0948 8.37251 20
79 1 -7.81674 -2.26088 -1.15564 18
80 1 11.9977 1.72207 4.6368 18
81 1 9.41144 -3.55721 -2.07687 20
82 1 -0.166732 10.9608 10.1043 17
83 1 7.61677 -1.42056 10.2371 23
84 1 -5.23446 -4.4912 2.12044 20
85 1 -5.56832 -8.00991 -9.76113 16
86 1 -9.80973 11.0605 6.65149 16
87 1 -5.30207 9.89502 -3.89331 16
88 1 -5.1245 6.78954 -8.15487 19
89 1 6.80818 -1.1209 -6.28053 14
90 1 11.0665 11.437 -7.17751 17
91 1 11.3282 -9.39215 1.31805 13
92 1 6.71463 -11.5822 12.2731 8
93 1 -1.98198 17.061 -5.73244 11
94 1 -6.90414 14.3766 3.42296 17
95 1 -3.01414 -3.25245 14.9764 15
96 1 -2.64245 6.33612 3.26839 22
97 1 -1.49701 -6.05811 15.5035 10
98 1 14.8266 -5.91503 -5.67759 14
99 1 -8.22506 6.18279 2.6297 21
100 1 -6.32353 -10.1752 1.8017 22
101 1 12.24 -10.5311 -4.29574 16
102 1 5.76887 1.90289 -7.9695 18
103 1 -5.76925 -0.48018 -18.0773 11
104 1 2.48183 11.6389 3.04505 19
105 1 -4.69113 6.97518 -12.9677 19
106 1 1.87611 9.8901 20.0433 10
107 1 0.299646 14.4994 -10.2503 15
108 1 -11.3152 12.4073 0.654786 13
109 1 4.42857 8.78605 1.69943 21
110 1 -6.36092 -8.0867 15.8278 12
111 1 12.5261 3.89097 9.80924 18
112 1 -0.893287 -4.42644 -9.35603 16
113 1 4.50963 -6.46947 -6.75932 20
114 1 1.58444 4.37801 6.45124 21
115 1 5.8092 2.3322 16.3292 14
116 1 -5.44859 -6.84426 -2.85434 19
117 1 8.07293 -5.59376 4.05881 18
118 1 -7.8982 -8.90319 -3.94242 18
119 1 12.2734 -8.79116 -1.24509 13
120 1 0.236897 6.88239 4.66373 24
121 1 9.73976 8.61024 -16.0161 8
122 1 10.186 16.4447 -5.33807 11
123 1 -9.31813 -11.7508 12.9893 10
124 1 -6.65348 -11.1965 10.9942 21
125 1 8.62597 -6.16806 -15.0047 14
126 1 6.73167 4.04326 -3.31967 19
127 1 14.8669 -5.19628 -2.1661 14
128 1 0.539383 -13.3071 10.8834 13
129 1 -8.48036 -11.1971 -1.77903 10
130 1 12.8755 5.12373 13.004 20
131 1 14.2585 -2.1979 -8.76607 16
132 1 -13.8598 -5.48781 3.98717 15
133 1 11.877 9.23538 6.76846 19
134 1 15.4611 12.5051 3.71985 18
135 1 -8.39652 4.09845 16.8821 12
136 1 9.11467 10.5146 -1.06297 22
137 1 -2.33051 13.1051 10.0625 19
138 1 -1.36471 14.5189 -3.38849 19
139 1 3.12153 -4.65528 -16.4026 15
140 1 8.66256 -12.2388 -8.16743 15
141 1 -1.45948 11.3822 -10.7262 18
142 1 7.03172 -2.51041 12.7346 21
143 1 2.37211 2.24799 -18.1616 15
144 1 3.89255 11.8883 -3.26475 16
145 1 14.7745 2.62129 -5.02244 14
146 1 -7.39015 8.06756 -6.52791 18
147 1 -6.3174 15.8256 -1.91197 13
148 1 8.4265 0.460566 -12.9664 17
149 1 10.3708 -8.1774 4.65389 15
150 1 -5.21287 3.90514 -6.09154 21
151 1 -5.7546 13.2693 9.85621 12
152 1 13.4215 9.25282 -9.1517 11
153 1 5.41102 14.1384 -7.49185 20
154 1 -0.542513 18.3289 0.437021 11
155 1 14.823 13.1935 -1.72933 17
156 1 -1.13543 11.0174 -2.30401 14
157 1 3.24648 15.3149 -10.5346 15
158 1 4.25299 10.2973 -16.1334 8
159 1 -9.94495 -9.20796 6.8728 14
160 1 -9.72278 11.6799 -2.30282 13
161 1 -6.71827 1.37981 -14.9502 19
162 1 4.32005 -11.0077 -12.3776 11
163 1 7.06207 11.1237 12.02 19
164 1 0.860536 17.7806 3.47682 12
165 1 -11.5045 -3.02175 -6.71506 14
166 1 -8.28956 14.2122 -0.342968 14
167 1 17.4961 6.68523 2.54605 13
168 1 -10.2159 2.9214 -16.5053 8
169 1 6.97026 -0.880699 17.7773 9
170 1 5.45169 17.076 -0.179408 14
171 1 -1.81269 8.7689 5.57767 18
172 1 6.75354 -4.20139 -19.6111 9
173 1 -6.08348 15.6272 7.17469 12
174 1 0.753443 13.0472 -5.06165 15
175 1 4.1739 -1.1764 11.398 21
176 1 -8.17981 -3.96239 4.57726 21
177 1 -2.87124 -9.00524 -15.7453 12
178 1 -4.4454 15.07 -7.60884 9
179 1 -0.535296 -15.8997 5.43692 16
180 1 1.83882 -13.5205 -5.33371 17
181 1 -4.97675 11.3486 -11.6625 8
182 1 -13.3285 0.89678 10.4065 13
183 1 7.19237 8.64931 -0.126867 18
184 1 13.2803 11.5268 -4.47683 21
185 1 -2.3774 4.98731 15.0786 17
186 1 -0.487449 -8.14284 13.6179 13
187 1 -10.1986 4.61857 0.978491 18
188 1 2.72996 17.4614 -0.769137 15
189 1 0.476428 7.77653 10.4074 20
190 1 13.5912 3.84698 17.7389 12
191 1 -3.34294 10.9748 3.86251 18
192 1 13.2761 -6.83115 -8.85091 16
193 1 -3.67383 15.2413 8.52476 14
194 1 -3.8467 0.896964 -8.65864 19
195 1 15.2939 -3.98673 0.617583 14
196 1 -4.99551 -5.08446 5.49958 20
197 1 -10.0442 4.72543 7.07253 15
198 1 -8.10578 -8.71877 9.12646 20
199 1 8.4873 8.60633 10.7051 18
200 1 -14.8139 1.66099 0.180688 11
201 1 1.38088 -12.2982 1.27262 17
202 1 7.73696 -6.14577 -0.275968 18
203 1 -0.0543309 9.7612 3.62075 20
204 1 -8.6061 1.13855 3.63481 21
205 1 7.38266 13.9631 13.4814 10
206 1 -10.6625 -1.83754 -3.3995 18
207 1 -5.3389 11.7008 -6.17425 17
208 1 -14.7605 -5.95081 -2.35662 8
209 1 -7.53631 -4.38439 10.6373 20
210 1 2.74283 -10.1393 4.1235 18
211 1 7.07294 -12.7853 5.51637 14
212 1 -9.90866 14.6882 2.27892 12
213 1 17.6575 2.94856 7.19847 11
214 1 9.73582 -0.0169004 -6.85868 20
215 1 -4.93459 -6.38599 -16.3381 9
216 1 5.80046 0.967742 12.4373 21
217 1 6.91619 -12.547 2.00907 19
218 1 -1.92068 6.0394 -13.2005 15
219 1 1.59119 -10.0001 -12.2412 16
220 1 5.57909 2.58716 -13.8529 21
221 1 3.06536 7.29189 -17.1035 13
222 1 -7.90493 -2.72073 -7.42692 22
223 1 0.588938 18.9884 -6.33413 8
224 1 -9.36853 -8.87311 11.6461 16
225 1 13.4939 14.9539 -3.80725 11
226 1 -4.01165 4.18413 11.7741 24
227 1 -3.71831 13.2234 -2.14824 19
228 1 9.25507 1.77379 6.96325 18
229 1 -6.79553 -4.82738 -13.6887 12
230 1 0.319026 10.5473 -6.07253 15
231 1 3.09187 7.00012 -10.0119 20
232 1 -2.8976 -6.01665 12.6347 17
233 1 -10.4759 3.68001 3.93461 21
234 1 -7.15584 3.84648 5.24224 23
235 1 0.363335 -9.14814 -9.43681 19
236 1 -1.52343 -11.7388 -0.321602 21
237 1 7.30165 -11.7635 -2.70439 16
238 1 12.8128 6.46292 16.378 13
239 1 5.53522 8.41697 -8.54777 21
240 1 4.114 8.75634 -1.55703 21
241 1 -8.74876 0.0493583 0.575766 21
242 1 -7.05804 13.1305 -3.47856 12
243 1 3.63723 7.12851 9.93671 18
244 1 5.11933 -16.2974 4.27936 9
245 1 13.1061 -0.318283 -0.00310185 18
246 1 3.40388 9.22288 4.7078 20
247 1 -5.21179 6.12858 4.58231 21
248 1 -13.6127 -8.55101 -1.35341 10
249 1 9.86864 4.23335 -10.9555 16
250 1 6.14841 1.19015 8.66445 21
251 1 9.15847 9.03488 -8.58617 14
252 1 4.54925 -7.46225 -0.236646 18
253 1 1.13134 -1.25721 -12.9742 22
254 1 3.03167 -11.8875 9.28305 16
255 1 11.9355 1.44995 -5.14419 20
256 1 -9.59593 -1.13161 6.10457 22
257 1 5.82531 -14.5422 0.586503 19
258 1 -11.1708 -8.99946 -9.63565 10
259 1 10.9651 16.4647 -2.67716 11
260 1 3.00265 -0.954142 -16.1718 22
261 1 8.3609 8.19545 13.9154 21
262 1 16.7394 4.37576 3.62351 11
263 1 -4.8713 -7.88012 3.6404 21
264 1 12.4629 -2.01678 -11.3183 14
265 1 -1.59746 -11.9191 8.64998 19
266 1 -9.03526 -3.52205 -12.7883 13
267 1 -9.05386 2.86111 -7.05928 15
268 1 -5.95595 -13.2267 12.4001 11
269 1 9.13252 -3.83939 10.7986 21
270 1 3.42379 -3.42995 7.48274 21
271 1 -4.03675 -5.1184 -10.6476 20
272 1 2.33192 -8.5956 9.20725 18
273 1 1.43586 7.05258 -13.3628 16
274 1 9.36025 6.80138 3.22661 21
275 1 -7.44761 -7.17576 6.05487 18
276 1 6.38256 14.4754 2.12148 20
277 1 -5.09608 -2.75095 12.1275 18
278 1 -7.77375 -10.6184 -8.69683 16
279 1 -2.14158 -2.30312 -14.6526 17
280 1 -5.90309 5.91335 -15.99 12
281 1 -6.93296 -12.5965 -11.2983 9
282 1 -1.72493 -8.22141 0.274229 20
283 1 11.3068 -4.79315 -14.1226 11
284 1 15.6325 3.86013 -7.43742 9
285 1 13.4298 -1.16995 3.33692 19
286 1 -5.8015 -7.66229 11.3445 20
287 1 -4.21757 -10.2395 -0.690382 18
288 1 8.29086 1.64922 17.5376 11
289 1 -3.53441 -16.6307 4.7365 13
290 1 0.770735 -13.3185 -2.18093 22
291 1 2.32592 14.399 -2.57634 15
292 1 5.83573 -0.873111 -14.8822 19
293 1 -3.90666 -2.85346 -16.8877 12
294 1 -8.21741 -5.95871 13.0883 18
295 1 2.55911 6.86887 20.789 7
296 1 4.01962 -10.4068 1.56247 21
297 1 -2.37613 -7.79276 -11.1353 17
298 1 -8.05763 6.99751 -10.0922 22
299 1 9.48817 3.76932 8.55244 15
300 1 -6.93989 3.31286 -9.03519 19
301 1 0.935194 8.91652 -10.4266 17
302 1 -2.72354 -3.93399 7.65244 22
303 1 6.36619 -13.582 -9.24479 11
304 1 -2.9364 16.8996 -2.30248 15
305 1 2.15839 14.7665 3.93668 17
306 1 11.629 -2.42516 9.56816 18
307 1 -7.0524 -1.55056 5.23242 20
308 1 -2.46084 -3.80114 10.716 18
309 1 -2.34338 12.4622 6.95212 17
310 1 5.71217 -6.4414 -17.2076 12
311 1 15.1149 11.6739 0.565279 19
312 1 10.2784 -10.9295 -2.23646 20
313 1 0.263966 -1.5786 15.7977 13
314 1 -13.8861 -4.50654 7.32904 14
315 1 -0.769913 -15.1901 -5.69899 12
316 1 -5.04806 7.88348 8.02879 19
317 1 -10.5084 4.4972 14.4345 13
318 1 -13.3712 -1.44337 12.3933 13
319 1 -13.0644 -4.19997 10.3817 15
320 1 10.1763 -1.19172 -4.51115 20
321 1 -10.5253 -6.70966 11.8231 14
322 1 8.94055 -0.86426 -10.1109 16
323 1 10.866 -6.33202 -0.884605 19
324 1 6.89532 16.1274 -6.264 16
325 1 -7.11305 7.88174 -0.464088 17
326 1 10.5312 3.23751 15.3681 20
327 1 -10.1582 -1.72056 2.73895 24
328 1 6.81274 -8.41037 -4.83351 18
329 1 -1.31401 8.8273 1.48834 14
330 1 -4.29516 3.47883 3.37608 22
331 1 6.2059 -12.1492 8.84931 14
332 1 13.8046 -7.94248 5.18491 6
333 1 -0.302928 7.00133 7.86433 20
334 1 -7.86411 -6.02457 -5.81339 22
335 1 2.60021 0.659316 15.7743 15
336 1 -1.41091 14.4608 -0.27117 18
337 1 9.98555 5.32051 18.171 10
338 1 -4.30705 14.3134 -4.69392 16
339 1 1.12193 -1.06673 -19.3948 11
340 1 -7.66191 -0.440927 -6.05916 17
341 1 6.31609 -8.41905 -13.2175 15
342 1 -7.43438 4.01141 11.0876 22
343 1 -13.3584 3.85967 2.47851 15
344 1 -2.69559 -4.80512 -6.38687 18
345 1 -2.48058 11.5611 0.367929 20
346 1 10.4107 -0.505188 5.14357 19
347 1 -8.355 -9.55624 4.32374 15
348 1 9.81012 -5.89176 9.26982 15
349 1 -9.63767 -8.72006 14.5458 9
350 1 -10.1083 2.41757 -1.33561 17
351 1 -1.41798 -1.1836 8.93699 22
352 1 5.99296 -12.8686 -5.67255 19
353 1 -5.70293 -1.71519 -9.67916 20
354 1 7.81301 6.16072 -13.627 19
355 1 5.8099 15.386 4.86171 18
356 1 -12.104 0.440809 -10.1337 11
357 1 6.32145 -3.05379 -12.3115 20
358 1 12.518 3.56947 -10.7938 18
359 1 -2.89349 -16.503 -3.64059 12
360 1 -10.8616 -8.37483 -3.5381 18
361 1 2.10215 -7.44461 -4.35375 23
362 1 15.6066 6.49397 17.2421 6
363 1 16.0519 4.17588 -2.09945 13
364 1 -6.9541 4.30217 -13.044 17
365 1 7.9875 17.8556 -2.97117 10
366 1 -13.3089 0.759561 -3.2102 15
367 1 -8.6854 9.41723 4.1446 20
368 1 -5.23108 10.5516 -0.825448 15
369 1 -2.89225 6.31575 6.73248 21
370 1 11.3744 2.57367 12.0162 19
371 1 10.1188 -3.82631 -5.58175 18
372 1 9.76913 -3.8408 13.764 15
373 1 13.2948 1.21327 -8.14528 19
374 1 0.509862 -16.1452 -3.24075 14
375 1 -0.510224 -6.50056 -6.88951 18
376 1 1.79037 9.84414 0.904279 18
377 1 -8.25598 -0.172642 -2.96097 19
378 1 4.08434 -9.65295 -5.22654 19
379 1 16.3142 -0.185434 8.47604 9
380 1 -7.93087 -3.23763 -4.29457 21
381 1 -2.62855 -7.26922 6.20754 19
382 1 -5.72661 -2.02776 17.1248 9
383 1 -0.522888 12.8982 2.74557 23
384 1 -7.65014 -8.23749 -0.555916 20
385 1 9.92399 12.1784 17.4157 5
386 1 -8.08632 7.2013 -3.84151 21
387 1 -1.80095 9.22678 -8.40127 19
388 1 11.4619 10.3735 9.5817 18
389 1 -12.3193 -7.88197 2.43701 13
390 1 -1.39455 -9.73575 -6.38881 20
391 1 -8.00025 -0.955346 11.9538 20
392 1 -10.2716 7.04231 -1.61573 18
393 1 5.07388 -7.74191 3.8397 16
394 1 -4.8361 -15.554 -1.72114 16
395 1 11.1057 14.1034 11.4248 13
396 1 11.7335 7.73435 -13.9191 8
397 1 -10.556 6.32838 -11.4559 14
398 1 -2.84764 13.9785 -10.9485 12
399 1 -5.95727 5.62224 -10.6721 16
400 1 -1.03414 -11.4653 5.23935 14
401 1 15.5732 10.4796 6.62253 13
402 1 0.84712 9.47739 -17.1391 10
403 1 -2.23922 1.34488 6.80863 21
404 1 -14.0191 0.432445 2.90337 14
405 1 -7.64905 3.14404 1.46895 25
406 1 -5.74923 -14.0719 5.80224 15
407 1 2.18279 -4.77181 -5.20247 19
408 1 10.0008 -6.46023 -9.86411 20
409 1 -11.5558 0.714514 5.06409 19
410 1 -12.1216 1.6724 13.7725 11
411 1 -8.63781 6.63754 5.56753 18
412 1 0.754458 -3.62389 9.0332 20
413 1 -7.95189 3.83214 -17.3037 10
414 1 9.1038 -8.97908 -8.52799 19
415 1 2.21408 -5.87616 -9.11574 21
416 1 -5.54226 -5.59673 13.7205 21
417 1 5.23293 -6.38818 -3.81774 20
418 1 -6.71059 8.79414 -15.2516 11
419 1 3.33244 -12.7987 -0.291357 19
420 1 8.24659 10.1808 -4.75683 20
421 1 -11.5226 8.21766 5.31149 12
422 1 -2.8559 -0.209795 15.8763 11
423 1 -8.66027 -6.98873 -11.3114 9
424 1 -7.67562 -3.94343 7.32709 19
425 1 12.3818 -4.84486 8.77049 14
426 1 11.489 2.07013 -2.02403 21
427 1 1.31559 -4.41282 -12.2442 15
428 1 12.2536 -5.44721 4.35741 17
429 1 17.3308 8.48611 -2.08075 12
430 1 -1.47268 5.03229 11.7959 20
431 1 6.76435 13.388 -1.71229 19
432 1 6.71984 -4.91904 11.5281 17
433 1 -4.9731 -10.4732 -7.59467 15
434 1 -2.77973 8.43792 15.6808 13
435 1 -2.55871 17.2426 6.3289 11
436 1 -6.12177 -13.7757 -8.2356 13
437 1 9.51095 15.334 3.91106 17
438 1 5.8736 9.11348 9.21556 21
439 1 -7.57907 5.05947 8.81236 21
440 1 -3.75106 -10.3309 -3.78527 17
441 1 -7.9254 6.33507 13.7392 20
442 1 -9.43232 -4.63885 -8.06861 14
443 1 -8.40203 10.5735 9.77281 12
444 1 -3.60675 -7.95944 -8.14974 20
445 1 1.58339 -11.8927 -14.4353 13
446 1 -2.95435 -13.7855 4.07873 19
447 1 -4.10676 -0.447201 6.7113 19
448 1 13.4247 0.0403001 6.7143 19
449 1 -4.28971 -5.21878 17.0539 9
450 1 -9.97682 9.92247 -10.2758 10
451 1 9.11342 6.7253 -0.0121941 21
452 1 -6.80838 -13.6953 -0.0882306 10
453 1 0.938222 4.06107 -6.22024 22
454 1 1.11224 15.6854 1.03939 19
455 1 0.231553 6.45698 -8.51109 18
456 1 -0.849477 7.93798 13.1511 20
457 1 -11.7923 0.421994 -0.922797 17
458 1 2.8194 18.0997 -4.17998 11
459 1 6.69763 10.2643 -10.1287 17
460 1 -7.14727 -4.26435 -10.6709 19
461 1 4.42339 5.591 15.4357 17
462 1 -0.130659 -13.0927 -11.7328 10
463 1 5.47485 -5.8257 -14.4429 17
464 1 5.77436 -11.268 -0.49861 21
465 1 -10.3572 12.0988 3.79168 15
466 1 2.40689 7.48383 13.0004 18
467 1 10.6796 9.35013 1.26611 17
468 1 6.51399 11.6992 0.768245 16
469 1 -7.35569 9.68411 -11.6578 14
470 1 2.90605 3.33145 -7.89536 18
471 1 3.86982 -6.5504 6.4903 23
472 1 -13.727 -1.5276 -1.15588 13
473 1 3.26565 17.2142 5.95378 11
474 1 -2.85215 1.0126 -15.8813 21
475 1 12.1765 6.29638 5.53482 15
476 1 6.73657 14.1549 -10.6527 9
477 1 10.3012 -6.81737 2.10986 19
478 1 16.6734 9.578 3.04428 15
479 1 -1.41879 -2.55265 -11.4768 21
480 1 0.467451 -9.06299 2.65501 19
481 1 3.14462 -11.9993 6.40607 19
482 1 2.41495 -6.41634 13.6545 15
483 1 -8.18667 2.05454 -11.3511 19
484 1 -7.38933 -11.5551 7.01121 17
485 1 -0.0929948 -12.1123 -7.51788 16
486 1 10.4209 13.5868 8.72388 15
487 1 3.30592 -0.0520867 -9.25509 18
488 1 4.54445 -0.776495 14.6451 18
489 1 -10.7484 3.40105 9.80869 18
490 1 1.36896 -15.6377 0.21095 17
491 1 -11.6472 -3.27312 -0.0449977 15
492 1 16.5042 -3.18004 -6.75003 8
493 1 10.0068 -0.913218 -1.45625 23
494 1 -4.74314 4.02527 -3.09807 20
495 1 1.70014 -7.73542 -7.04356 16
496 1 3.70256 3.95732 -11.37 17
497 1 12.8154 -3.31833 -4.45977 16
498 1 -1.27979 -0.386444 12.4233 20
499 1 6.88099 17.4165 2.82123 11
500 1 0.250634 -0.956552 -16.2847 20
501 1 7.813 0.825811 -15.7092 13
502 1 -5.2711 -3.07503 9.38096 19
503 1 -3.45282 13.8958 2.67326 20
504 1 -10.5009 -0.52432 -12.5136 13
505 1 -13.9938 -0.0125407 6.10721 14
506 1 0.00812265 -9.96048 -16.0929 14
507 1 -7.18758 -10.4587 14.3169 12
508 1 0.361532 11.4758 -8.54499 20
509 1 15.5535 2.82448 9.12627 16
510 1 15.2165 3.87835 1.34383 15
511 1 -6.18967 -12.1883 -2.98374 17
512 1 0.993984 -9.84404 -0.576255 22
513 1 -4.28266 -6.22382 -13.4228 16
514 1 -8.41225 13.4204 8.37869 10
515 1 5.40112 -4.46662 -9.30996 19
516 1 14.6554 1.74195 -1.78418 17
517 1 5.74077 11.1407 -6.42147 17
518 1 9.18454 -10.7069 3.3264 17
519 1 15.7325 10.2143 -3.75773 14
520 1 5.09503 8.88842 12.9402 19
521 1 -9.13423 1.92582 6.70962 19
522 1 7.55048 14.1897 10.3238 17
523 1 8.44333 -1.94399 15.4637 14
524 1 2.26384 1.22201 -11.4032 18
525 1 -5.2533 -4.67593 -5.0822 19
526 1 1.2221 -0.38978 10.1974 20
527 1 6.18664 12.1094 8.76335 16
528 1 5.35954 5.13639 -9.14012 18
529 1 -2.89675 8.83082 -6.10728 19
530 1 2.31934 13.4894 -7.84308 18
531 1 12.501 -3.35782 12.3488 14
532 1 15.2666 3.70456 -10.6329 9
533 1 12.1568 -6.52117 -4.18181 19
534 1 14.147 7.86745 13.8341 11
535 1 -13.3171 -5.54507 0.784338 15
536 1 -2.71051 12.5905 -8.1382 16
537 1 0.638335 1.7982 8.40958 24
538 1 -5.72984 1.50336 11.6178 20
539 1 -3.03169 7.04367 -10.2752 17
540 1 8.74515 -10.6775 -5.64964 21
541 1 5.90071 -1.6811 -9.58108 20
542 1 0.00758451 18.0772 -3.01227 12
543 1 -7.03106 -1.7694 -15.5566 11
544 1 4.52026 -13.1855 3.79058 20
545 1 -11.2111 -6.58 -0.747755 23
546 1 2.18291 10.9614 -14.4816 11
547 1 -7.05483 2.24693 -1.57874 19
548 1 1.47627 4.83256 13.9156 20
549 1 -10.3518 -4.39832 9.47947 18
550 1 7.12885 7.15288 -2.87897 24
551 1 3.59272 -8.77247 -9.75123 17
552 1 5.60814 -8.34129 13.4433 11
553 1 8.70324 1.41797 -3.26109 21
554 1 -6.64605 11.4027 3.62688 17
555 1 1.7451 11.6938 17.19 13
556 1 6.45822 16.7482 -9.23981 11
557 1 10.8955 -6.07219 -7.09151 18
558 1 3.56853 11.1227 10.9568 16
559 1 0.896776 5.43142 -17.5317 13
560 1 -2.55362 -12.1514 12.7284 11
561 1 -0.405287 4.24171 -9.56627 18
562 1 7.37618 -1.83618 -17.6178 13
563 1 7.46834 13.6756 6.71357 22
564 1 10.4578 2.25221 -7.93958 17
565 1 0.7285 -7.21902 -11.8321 20
566 1 -3.02768 -13.4689 -2.3855 20
567 1 -11.5449 -9.47579 -6.4777 9
568 1 12.1001 6.19378 1.85975 21
569 1 18.7228 9.08277 0.712442 10
570 1 7.75528 -6.20473 -7.19336 16
571 1 15.4848 5.19822 14.4928 14
572 1 6.28471 -10.4875 -7.88959 19
573 1 4.28133 4.24283 -16.3792 18
574 1 7.72086 12.6433 4.0591 18
575 1 -6.99135 4.94403 -0.743764 20
576 1 8.28249 8.22256 16.9868 12
577 1 12.929 8.37233 -3.93569 19
578 1 15.8387 -2.38628 2.67494 13
579 1 14.5697 6.48905 -8.07571 13
580 1 13.3428 0.095324 10.5094 22
581 1 14.8022 2.82923 11.9151 16
582 1 5.27279 -9.51007 6.70805 21
583 1 16.7044 15.2688 -1.41468 9
584 1 3.2985 2.63287 13.7238 19
585 1 16.0019 -0.0272246 -7.44367 13
586 1 10.3324 5.97449 14.1788 17
587 1 -8.40246 0.267836 -9.38497 23
588 1 13.1649 11.2701 4.37334 16
589 1 9.6934 -3.36533 3.81629 20
590 1 -6.18755 9.6667 12.0095 16
591 1 11.1293 8.55684 12.2096 18
592 1 15.1848 -0.42925 12.9443 12
593 1 4.84856 12.5221 4.80488 19
594 1 3.86011 10.5819 7.19309 17
595 1 7.19718 6.0832 8.67544 21
596 1 -1.08325 -17.2115 2.23412 14
597 1 -2.60756 11.4951 -4.71011 18
598 1 11.9355 14.0615 -5.98577 12
599 1 11.186 1.2511 -11.0971 18
600 1 5.38929 16.4265 -3.08837 17
601 1 3.58095 -12.4085 -7.14645 14
602 1 12.507 -4.98823 -11.1937 15
603 1 -12.7815 3.21687 5.18856 16
604 1 -2.42596 2.79657 -11.6195 19
605 1 -0.840291 -13.9327 2.41248 18
606 1 -5.35084 1.69156 -10.8715 19
607 1 -15.2882 2.40006 -5.18692 6
608 1 13.7593 -6.78929 1.04002 13
609 1 14.343 10.6155 9.08889 13
610 1 0.253851 -6.23841 7.68819 19
611 1 -12.302 3.20797 -12.188 11
612 1 0.258623 1.76265 -15.58 17
613 1 -0.111306 2.49943 14.6906 17
614 1 9.66537 8.38779 -11.7141 12
615 1 15.1536 -2.92247 14.5927 8
616 1 9.62165 7.08271 -4.73799 19
617 1 14.2155 12.721 6.57345 16
618 1 2.91337 -13.7075 -9.74147 7
619 1 -5.78762 -0.38506 14.106 17
620 1 11.944 -2.87906 5.85749 21
621 1 -1.22157 12.63 13.1771 14
622 1 6.70087 7.65292 -11.2741 18
623 1 -11.1969 8.96643 -3.98111 16
624 1 9.3199 12.8283 0.873806 18
625 1 -6.97078 -13.5604 2.44885 10
626 1 15.4616 -4.72796 4.14883 9
627 1 8.24456 16.3369 7.44678 11
628 1 -1.86651 4.04079 8.35086 19
629 1 -10.8498 -9.75717 -0.437541 11
630 1 -7.49702 -1.00599 -12.4594 19
631 1 10.2448 -0.934708 12.0594 20
632 1 1.51895 -4.54437 17.0371 9
633 1 7.07748 4.14383 13.8599 20
634 1 -5.52442 13.3733 0.591577 23
635 1 9.6595 4.07034 1.66816 22
636 1 13.2338 4.34373 3.33951 21
637 1 7.46459 4.35636 -15.9637 14
638 1 -7.28994 -0.536892 8.56395 22
639 1 3.69478 -2.48502 -11.4228 17
640 1 -2.93541 -6.75247 -4.86117 20
641 1 11.3936 -10.7838 -7.35662 14
642 1 6.47407 3.60931 10.1867 21
643 1 7.06674 4.16546 3.34479 22
644 1 -8.82505 7.43744 15.9991 11
645 1 9.88871 11.1713 12.708 21
646 1 2.54596 -2.93405 14.3163 18
647 1 -4.6831 5.38579 9.16175 18
648 1 -1.80611 -5.04974 -12.7652 20
649 1 -6.33441 3.91656 13.8178 20
650 1 9.01213 0.999461 13.6821 18
651 1 -6.55188 -14.4194 9.0582 11
652 1 17.0812 15.4777 1.93046 9
653 1 8.48393 -14.992 -6.49983 10
654 1 -1.97846 5.92258 -6.90659 22
655 1 10.208 12.29 -3.6593 17
656 1 10.7627 12.4617 5.78246 21
657 1 5.27577 1.39414 -17.4511 17
658 1 3.79115 14.764 -5.26497 18
659 1 8.80279 10.597 8.17495 19
660 1 -7.17323 -6.69436 2.78592 23
661 1 -0.759883 1.31724 -18.3309 16
662 1 -7.94426 11.0905 1.14051 22
663 1 9.53995 -3.37508 -11.4348 20
664 1 9.57811 4.50721 5.15596 19
665 1 11.4951 6.74101 -8.92612 14
666 1 14.4717 15.9279 1.35691 11
667 1 -5.2415 5.81178 1.40312 20
668 1 9.72247 4.89454 -2.51665 20
669 1 14.4053 0.288781 16.3472 9
670 1 12.0698 -2.36697 15.4369 10
671 1 -3.92821 -8.80633 13.6793 14
672 1 -1.69558 8.54785 -12.7106 16
673 1 4.69584 12.6062 15.5079 10
674 1 11.6204 -7.84556 -13.4766 9
675 1 4.38691 4.03902 8.16967 23
676 1 9.18821 14.4765 -7.95089 13
677 1 9.70624 9.66612 4.74235 19
678 1 16.7519 -3.67675 -3.33881 11
679 1 5.70195 7.32585 19.361 9
680 1 -10.9879 -4.22028 5.67762 19
681 1 3.15423 -15.2564 2.39361 20
682 1 2.8981 -2.91297 -8.0239 13
683 1 -7.07425 16.5829 1.50163 13
684 1 3.24012 6.13935 3.09802 22
685 1 7.16223 -8.5083 -1.85934 19
686 1 7.52594 9.4101 2.96329 17
687 1 -12.5951 -2.27467 4.77809 20
688 1 3.02271 8.75114 15.4878 21
689 1 -5.01049 5.36916 -19.978 6
690 1 -3.48833 9.21244 -15.8456 10
691 1 3.97103 -12.5106 -3.46569 22
692 1 11.8291 8.64161 -6.57313 19
693 1 6.02712 -4.00379 8.52032 23
694 1 0.741541 6.70014 1.69674 20
695 1 -12.5205 4.12263 11.8643 9
696 1 2.98889 1.1988 -14.4019 24
697 1 5.08402 -9.50549 10.6108 18
698 1 3.97249 14.7147 -0.234322 20
699 1 -3.02374 2.30798 13.5115 22
700 1 -8.34583 -9.55646 -11.0286 9
701 1 -2.13759 -5.07528 -15.9491 16
702 1 -2.74323 -13.5721 -7.75783 14
703 1 0.691725 17.2243 -9.02065 11
704 1 8.21514 -5.85895 -4.0299 18
705 1 -1.02149 14.3176 5.22877 17
706 1 6.04458 -7.79855 -9.4689 17
707 1 8.71137 -13.8909 -1.0405 18
708 1 4.11669 -6.7906 9.37262 15
709 1 14.8242 7.16838 -2.01008 17
710 1 7.75652 -15.0194 -3.67753 14
711 1 -10.7635 -0.558607 10.6521 17
712 1 -2.77065 -18.134 -0.709211 11
713 1 -5.55324 -8.40951 -5.69742 19
714 1 -8.5316 1.65146 9.51286 18
715 1 -4.04028 -19.193 1.83205 7
716 1 13.9806 10.0099 -1.62346 19
717 1 -5.00944 17.0031 3.94731 14
718 1 -4.1772 3.48828 6.29739 21
719 1 -12.0437 9.6997 -0.9638 14
720 1 11.3384 1.64225 1.44151 18
721 1 -11.4527 -6.65751 -7.03363 16
722 1 6.3928 10.1991 -3.0439 19
723 1 6.803 5.51763 -6.29197 17
724 1 11.8267 13.1617 14.7885 7
725 1 8.92751 3.71852 -5.5362 14
726 1 -12.8348 6.69844 -4.82496 11
727 1 -13.32 -6.2623 -4.51123 14
728 1 0.120274 8.81219 17.7085 13
729 1 4.83007 6.04609 -14.0864 20
730 1 13.8328 13.3342 9.81407 12
731 1 -2.18721 1.80997 10.2934 20
732 1 -1.09226 -12.4262 -4.80705 17
733 1 -3.33867 -14.4878 7.39677 15
734 1 -2.91981 -6.30122 9.33301 20
735 1 13.0153 10.83 12.2581 13
736 1 3.96585 -6.57079 -11.9017 18
737 1 -5.0763 6.58634 -1.62948 19
738 1 5.96306 6.91542 5.0321 20
739 1 -5.93075 -6.04027 8.60594 18
740 1 13.2836 6.67563 -11.5421 14
741 1 4.82777 -15.8027 -4.89149 11
742 1 2.30603 -16.302 5.83973 12
743 1 3.81441 -15.4042 -1.47222 18
744 1 7.25319 4.27269 -11.8036 16
745 1 8.16328 16.8942 -0.543598 13
746 1 -4.9475 0.624674 -13.395 18
747 1 1.99394 0.171595 13.0666 24
748 1 -1.24998 3.6139 -14.8289 17
749 1 -10.0147 4.81621 -13.5029 15
750 1 -8.50016 -5.6684 -2.59071 19
751 1 3.57445 16.9795 -7.6048 16
752 1 9.71089 -4.12323 0.740621 20
753 1 0.747119 -3.91922 -17.2897 12
754 1 -4.45016 -7.20218 0.20831 20
755 1 14.7087 9.84291 -6.53371 11
756 1 12.2986 -3.72887 2.05884 22
757 1 -5.57156 10.8155 16.1656 6
758 1 7.04504 -6.76812 7.16218 19
759 1 15.8969 -1.53391 -0.853592 13
760 1 8.6283 1.9396 10.7678 19
761 1 1.13583 12.4192 5.54476 17
762 1 -8.52884 2.34827 14.0632 18
763 1 -3.40995 7.92873 10.8489 19
764 1 -0.602413 -10.6136 11.2328 14
765 1 8.76175 1.40823 3.46886 23
766 1 5.62444 8.64536 16.2986 15
767 1 -13.4427 -2.56262 2.17844 13
768 1 12.7624 -3.2091 -1.05431 20
769 1 -8.08092 10.3694 -4.48108 16
770 1 6.22431 6.5722 1.74464 21
771 1 1.17961 -13.9533 8.00556 17
772 1 7.85816 5.02475 16.6367 13
773 1 -0.0957142 14.5822 7.79333 17
774 1 1.30557 -9.01944 6.14694 18
775 1 -5.72514 -4.33022 -1.27678 19
776 1 4.31252 4.41873 12.1419 21
777 1 -14.0561 -2.85998 -4.1209 13
778 1 -0.882497 10.5465 15.5493 14
779 1 9.21704 13.6847 -1.83336 17
780 1 -9.44786 -11.5455 9.51749 12
781 1 -0.697734 -16.0053 8.35971 11
782 1 10.7657 -7.42118 7.02794 14
783 1 15.2615 -3.33224 10.7483 12
784 1 9.18624 7.49531 6.52647 19
785 1 0.795131 6.80608 -5.21867 21
786 1 2.94515 -8.2932 -14.6622 15
787 1 -1.81423 0.252798 -12.8878 18
788 1 -4.04144 -0.484195 10.1248 18
789 1 -1.91631 16.377 2.86333 18
790 1 14.9509 1.23324 3.15366 15
791 1 2.11908 8.69036 -7.21595 19
792 1 -3.27621 10.6828 13.6786 16
793 1 10.5997 9.81019 15.7141 13
794 1 7.13 -5.80369 -12.18 20
795 1 -4.17051 -12.8921 0.962191 24
796 1 -4.61515 -1.60682 -6.66919 22
797 1 16.2231 -0.962751 5.43677 11
798 1 5.29162 -0.0981265 -11.9581 19
799 1 0.0321977 6.54486 15.8466 17
800 1 11.6063 -9.60136 -10.2412 10
801 1 10.7008 5.39556 -16.4558 9
802 1 -1.24847 -8.73764 -2.83412 18
803 1 12.4517 4.29991 -13.7018 13
804 1 12.8988 4.12894 -0.397156 20
805 1 3.89359 -3.83086 11.047 21
806 1 -0.404094 -7.01398 -14.8929 16
807 1 10.6097 15.9674 0.913605 13
808 1 1.10115 -6.32175 4.27303 17
809 1 -13.5065 6.5083 3.68336 11
810 1 11.7563 4.74606 -6.48969 16
811 1 16.7301 5.89306 6.25007 13
812 1 3.99589 -3.12512 -13.9652 16
813 1 -7.38875 9.56304 7.33321 17
814 1 16.7351 8.4279 9.04762 10
815 1 15.7442 13.0501 -5.35443 11
816 1 6.40279 7.42738 -16.3992 13
817 1 13.1485 -0.77355 -3.09303 18
818 1 -10.7827 -4.96558 -4.20978 19
819 1 13.1305 14.6264 4.63087 14
820 1 -9.4562 -8.23571 1.69407 17
821 1 -5.40745 9.37151 -8.99278 17
822 1 9.25624 5.68353 11.1154 21
823 1 -13.6263 -0.250928 -5.83412 10
824 1 -10.3266 7.91081 8.07615 11
825 1 -3.4384 4.13247 -8.57686 18
826 1 15.5666 -4.26999 -10.0755 7
827 1 -9.06703 -8.31352 -6.88873 18
828 1 14.6982 -8.38971 -3.94212 12
829 1 -12.5032 6.96914 0.518212 17
830 1 0.99055 -7.27947 -1.65709 21
831 1 11.4216 7.22052 9.29142 16
832 1 -3.23409 -10.2125 5.64052 17
833 1 10.545 0.137334 16.8645 12
834 1 14.4318 -2.40038 8.27366 15
835 1 10.3971 -0.723757 2.12731 21
836 1 -9.6604 8.7036 1.13566 18
837 1 1.12197 10.1022 13.028 17
838 1 3.78204 9.32363 -11.3947 18
839 1 0.989367 -6.78688 -17.3817 10
840 1 -4.63831 13.7517 5.69273 19
841 1 -5.20265 -8.8244 8.25569 20
842 1 8.21086 11.5833 -7.84015 16
843 1 -4.46599 10.5472 8.59596 17
844 1 16.5579 -0.0883418 -4.02737 10
845 1 8.15592 -7.47683 11.7528 12
846 1 -0.419711 7.46918 -15.7703 17
847 1 3.7058 10.6399 -8.61053 20
848 1 -5.85879 2.09946 8.65077 20
849 1 17.6239 5.66205 9.09027 10
850 1 -4.63231 -2.98107 -12.3625 19
851 1 16.2538 15.6074 5.12709 7
852 1 -14.9876 5.21984 0.64014 9
853 1 -1.13854 -9.32058 8.13154 18
854 1 0.447772 13.5164 -12.6538 12
855 1 7.92043 -1.2383 6.97497 20
856 1 -1.41311 -15.0901 -0.713464 22
857 1 -4.18018 16.561 0.397483 16
858 1 -13.8941 7.41154 -2.12019 12
859 1 8.11345 1.48376 -9.90206 18
860 1 -1.33884 -9.9611 -13.0729 20
861 1 -5.37019 8.49908 2.09433 20
862 1 17.8162 11.7504 -1.49143 12
863 1 -5.31233 1.24805 4.99782 19
864 1 8.42416 -2.9451 -14.2385 16
865 1 -3.57528 -11.1373 -12.612 13
866 1 1.12346 -10.5053 -3.40255 18
867 1 -2.11444 9.80313 8.37685 19
868 1 11.5818 -13.8486 -2.40518 10
869 1 -1.8896 7.14291 -18.3982 10
870 1 16.9641 6.12065 -0.23556 12
871 1 11.6496 12.4918 -0.188429 21
872 1 4.41868 -17.7287 1.14799 10
873 1 4.8184 -1.5732 -19.1641 12
874 1 11.8328 6.5875 -1.78098 18
875 1 -2.5231 -0.614589 -19.0608 13