ITEM: TIMESTEP
35000
ITEM: NUMBER OF ATOMS
1500
ITEM: BOX BOUNDS pp pp pp
-30.0 30.0
-30.0 30.0
-30.0 30.0
ITEM: ATOMS id type x y z Coordination
1 1 -5.91077 -13.6607 -13.1005 16
2 1 2.00856 -13.9143 1.03913 14
3 1 -14.721 5.04091 -8.39247 11
4 1 -6.81828 1.91593 -16.8418 21
5 1 -3.96962 -5.54209 0.82197 18
6 1 -8.54233 -6.1845 -22.2147 14
7 1 -4.0227 -15.5584 -9.99649 19
8 1 -14.1307 -10.4327 -5.90868 16
9 1 -2.50005 0.176464 3.97017 19
10 1 6.97298 -5.04545 -5.46906 22
11 1 4.5146 3.05544 7.84904 6
12 1 8.5364 -1.90068 -6.32542 20
13 1 -2.61591 9.4878 -17.1397 13
14 1 4.29577 -4.71549 6.40645 11
15 1 5.40399 3.61152 3.64532 14
16 1 -3.26163 3.15475 -16.5711 22
17 1 0.918437 9.94314 -18.1061 9
18 1 -9.17458 -2.87616 -9.29517 20
19 1 -0.998517 -2.16012 -13.5293 18
20 1 -0.296961 -13.6672 1.51144 11
21 1 -0.956552 -5.44939 -1.03625 19
22 1 6.92567 -12.6169 -6.59211 11
23 1 -10.5855 -15.7794 -11.6311 16
24 1 3.02618 -8.08377 -8.67025 21
25 1 3.5656 -5.71033 -19.0342 21
26 1 1.33063 -3.038 7.693 7
27 1 -1.54634 -13.3217 -4.21042 18
28 1 2.3826 -1.41681 -3.89263 19
29 1 -7.31313 -0.195818 -3.61168 20
30 1 -10.9961 -0.759949 -11.0975 19
31 1 -9.04549 10.0602 -10.6224 18
32 1 -1.27792 1.4193 -18.6886 21
33 1 0.163684 -12.3908 -20.6038 7
34 1 -6.48788 -3.88154 2.56369 18
35 1 -11.9825 1.6865 -10.4027 18
36 1 0.245705 7.08072 6.98079 16
37 1 -13.229 9.34796 -10.497 12
38 1 1.90353 17.6823 -6.33065 5
39 1 -5.98351 -15.2289 -2.42856 9
40 1 2.09337 -12.4116 -9.95335 19
41 1 -9.72446 0.119 4.78086 15
42 1 -14.0737 -6.69899 -16.1608 15
43 1 6.86236 4.82819 -2.75624 20
44 1 -7.55451 9.65453 -16.3673 11
45 1 -6.20873 -7.31926 1.55392 17
46 1 -9.06625 7.34604 -14.5987 17
47 1 -2.16286 -0.809977 -15.9906 21
48 1 -2.50404 5.37674 -3.73251 18
49 1 -2.97285 2.66023 8.25825 13
50 1 4.01614 -8.59064 -13.5304 19
51 1 0.487186 -2.26075 3.25469 19
52 1 6.52692 -2.11439 -24.0702 12
53 1 5.11035 -13.1343 1.16623 11
54 1 -9.9319 -2.13215 -5.78277 19
55 1 1.79336 -6.96459 6.14464 13
56 1 -4.19163 -5.54986 -3.18893 21
57 1 -12.4101 0.209099 -15.8839 13
58 1 4.38311 2.49161 -1.86986 19
59 1 0.655337 -4.66249 -5.71528 19
60 1 -1.23005 13.4682 4.28165 10
61 1 1.82633 -4.67055 -2.66494 19
62 1 -9.42347 -4.32104 -0.151943 20
63 1 -5.61066 -9.40783 -14.7872 20
64 1 -10.4209 9.58364 2.9273 11
65 1 -11.6376 6.44513 -15.7232 15
66 1 -2.77067 6.52941 -11.19 20
67 1 5.32054 -4.29421 -10.7557 21
68 1 14.3487 -5.84707 -7.64109 9
69 1 7.44891 -5.27246 -1.32948 17
70 1 -4.92426 12.1961 -4.21971 18
71 1 -12.7016 6.68523 -1.91076 13
72 1 -7.32865 4.81193 1.5483 14
73 1 -9.02737 -6.16223 2.28893 21
74 1 10.1449 -6.69968 -14.4121 16
75 1 -14.8511 2.96995 -1.76184 8
76 1 6.83263 -6.51035 -13.4165 20
77 1 -0.127781 2.56628 -15.3785 21
78 1 -1.74239 0.0538999 -21.3183 18
79 1 -6.22542 9.25501 -5.14423 21
80 1 -8.90422 -0.657063 -20.9472 13
81 1 -2.41098 13.9381 -9.44626 15
82 1 2.1055 8.25166 -3.84515 20
83 1 -7.85763 -0.872522 1.91348 22
84 1 0.139069 -5.20078 -14.4428 18
85 1 0.266767 -7.33119 -16.782 17
86 1 -4.5507 6.46447 4.48697 17
87 1 -12.0552 -10.2995 -10.208 18
88 1 8.51214 -7.00285 -7.69919 17
89 1 -16.6087 -11.7941 -12.0115 5
90 1 -0.139204 -12.96 4.86663 8
91 1 -13.6203 -1.31824 -9.44215 18
92 1 7.58332 0.832696 -23.1921 13
93 1 -1.81697 9.05946 -12.7291 20
94 1 5.45353 -7.90227 -10.9665 19
95 1 -4.98684 -8.8394 -6.96579 21
96 1 -0.447647 -15.545 -15.3368 12
97 1 -15.2856 -8.50186 -2.79384 13
98 1 4.83178 4.91171 5.3361e-04 17
99 1 8.64702 3.8211 -4.71154 21
100 1 -0.604725 12.9874 0.621383 15
101 1 -9.25234 12.674 -10.3442 14
102 1 -0.990228 -8.39113 -19.1015 18
103 1 10.8307 -4.49894 -0.3156 15
104 1 -2.76186 6.06858 -14.0755 17
105 1 9.20058 -7.31721 -19.7067 10
106 1 -2.70063 12.0253 -14.7027 14
107 1 -9.68701 10.7783 -5.06209 13
108 1 0.847748 3.04357 -18.2076 19
109 1 4.74678 -10.8518 3.47681 15
110 1 -8.81448 10.4595 -13.3219 16
111 1 2.34675 9.61464 -9.71469 18
112 1 8.11614 5.0475 -13.7523 21
113 1 -14.9033 10.5548 -12.3781 7
114 1 -12.9115 -5.58029 -20.7877 17
115 1 3.46096 11.6407 5.09003 8
116 1 -13.4431 -4.05553 -18.4647 16
117 1 13.9562 1.66284 -9.98609 12
118 1 -5.97801 7.18699 7.3262 11
119 1 -6.97051 12.6678 -12.371 11
120 1 3.33523 -6.40653 -0.564476 19
121 1 -14.8586 -9.62368 -9.58818 15
122 1 3.6242 -12.4443 -1.27939 14
123 1 3.73943 -11.5852 -17.8881 17
124 1 -9.96521 1.58389 -19.769 10
125 1 1.26246 8.92378 -12.2674 22
126 1 10.3594 6.69603 -11.6952 13
127 1 -12.3708 -12.3584 -1.31333 15
128 1 -11.4274 -0.238711 -7.91075 19
129 1 2.93497 11.461 0.435738 20
130 1 0.599133 0.364237 4.5072 21
131 1 -6.03946 13.2868 -1.22325 11
132 1 -14.9297 1.47993 -12.9217 12
133 1 7.66534 -9.77423 -9.83991 18
134 1 -7.12361 -6.08036 -0.990353 20
135 1 -13.4057 -6.17111 -3.4754 23
136 1 -11.9923 -15.2003 -6.05089 16
137 1 -13.1216 -7.18538 -12.3494 14
138 1 -10.0775 -10.897 -3.26273 20
139 1 -9.89356 -7.08414 -12.0589 18
140 1 2.48631 -10.3225 -15.1764 17
141 1 -1.14547 -0.0248713 1.24358 20
142 1 -9.02271 0.697507 -0.875557 17
143 1 0.0664609 10.8699 -14.0792 17
144 1 -8.90109 7.02543 -18.0524 12
145 1 -14.1204 -14.7327 -12.1861 13
146 1 -12.081 1.60908 -2.2111 18
147 1 0.823957 -11.8079 -1.07488 17
148 1 -6.45285 -12.3561 -3.06722 20
149 1 7.82737 2.19529 -1.98515 19
150 1 1.43679 0.263325 -13.7948 15
151 1 5.7022 1.69639 -4.63419 22
152 1 -5.04011 -4.28466 -18.7323 17
153 1 9.49157 -4.5923 -21.1862 10
154 1 -10.4243 -6.84406 -17.1096 16
155 1 -11.3741 9.68906 -14.8242 12
156 1 -1.64636 11.3449 -7.37012 23
157 1 3.70281 8.78348 -1.23502 14
158 1 -4.56161 -13.5836 -18.2449 12
159 1 -5.62787 7.58096 -17.9731 13
160 1 1.29934 5.04991 -20.7542 13
161 1 -3.29451 1.14267 -0.230114 20
162 1 -4.95993 12.7117 4.20905 13
163 1 1.8947 -7.44346 -11.5327 20
164 1 -6.70948 -18.0371 -10.7777 11
165 1 5.54194 -14.0162 -15.894 9
166 1 6.02856 -11.4298 -12.2917 18
167 1 2.98125 3.07529 -13.1108 20
168 1 -3.74297 14.3465 -7.04593 10
169 1 -12.6045 -1.37917 -5.10278 18
170 1 4.1845 8.65345 6.53291 9
171 1 10.4108 3.58684 -10.0411 17
172 1 6.75003 7.8002 -2.25714 16
173 1 -11.0616 10.5242 -8.70607 16
174 1 -9.49893 -11.3541 -7.19229 20
175 1 6.235 4.28485 -23.1454 10
176 1 0.501013 -1.75139 -1.22927 24
177 1 7.0864 3.67761 -17.2306 19
178 1 1.79706 -13.63 -4.41158 19
179 1 -10.2577 -10.156 -22.296 8
180 1 7.94197 -0.266035 -16.14 21
181 1 -14.6648 -5.45912 -0.230823 12
182 1 -8.34643 -13.6733 -5.17048 18
183 1 -12.2372 -9.24152 -16.093 14
184 1 8.1469 10.2314 -3.84109 11
185 1 -1.90775 -6.16052 -22.1252 13
186 1 1.40776 0.989537 -3.21761 20
187 1 11.6588 -2.06603 -8.35137 18
188 1 -11.5666 -6.06408 -6.45729 18
189 1 2.72859 -2.68577 -25.0398 10
190 1 -6.54283 -10.7318 -11.9466 20
191 1 -10.3104 -3.93181 -19.3378 16
192 1 -14.9543 -9.78752 -19.1397 12
193 1 5.94941 -2.4614 4.11145 16
194 1 6.28749 -1.88097 -4.47161 21
195 1 -2.02521 -9.76259 -15.706 19
196 1 4.88913 -8.76739 -5.87464 17
197 1 3.19566 7.60454 -19.5042 11
198 1 -0.549615 3.177 -6.58957 20
199 1 -7.47749 -9.27895 -2.41909 18
200 1 -6.65152 10.4427 -2.39895 19
201 1 -12.3128 -1.01602 3.43853 10
202 1 -9.37861 -17.1859 -16.8148 10
203 1 -13.2997 -12.3828 -18.078 12
204 1 -12.1285 -11.7637 -8.00274 22
205 1 -3.97237 -8.56596 3.28208 15
206 1 13.1173 -8.54974e-04 -7.48398 13
207 1 -5.81016 -4.3807 -11.1346 21
208 1 -11.28 -8.51948 1.95531 17
209 1 -2.26091 -10.8004 -5.55786 19
210 1 1.07333 -17.5161 -7.78136 9
211 1 -0.0225924 15.0558 -7.76776 15
212 1 4.2156 -0.0691583 -24.1203 12
213 1 -13.6557 -14.4971 -20.1815 8
214 1 -0.214656 -14.1784 -12.3444 18
215 1 -9.02625 -13.105 -13.5425 20
216 1 -13.6364 -9.03936 -22.5418 12
217 1 -1.5272 -0.452769 -2.71723 18
218 1 -5.70612 2.90692 -14.1752 17
219 1 3.46043 0.243409 -19.7657 17
220 1 -7.49951 -3.92645 -3.41568 23
221 1 2.4809 13.4475 -8.81803 13
222 1 0.552449 9.59245 1.658 16
223 1 11.121 0.535296 -10.5359 21
224 1 -14.5621 -3.36032 -4.86572 17
225 1 -2.29633 -11.1861 0.547426 12
226 1 -1.81129 2.46215 2.34902 21
227 1 3.31678 -10.3202 -21.2102 9
228 1 2.70726 -10.305 6.0499 9
229 1 -0.454084 -10.1549 6.11659 10
230 1 -12.6822 -11.8477 -4.51075 17
231 1 4.99773 -1.47862 -21.2894 20
232 1 7.24392 -4.9653 -16.0464 18
233 1 7.87965 -7.8447 -16.2931 19
234 1 -8.75409 -4.23574 -11.5539 21
235 1 -7.92877 10.0522 -7.80266 17
236 1 3.18009 -0.136099 -0.661972 22
237 1 5.64746 1.73455 0.829115 18
238 1 -13.8075 1.27414 -4.72654 16
239 1 7.83407 -12.6358 -13.6239 9
240 1 -0.91657 7.67157 -2.83803 20
241 1 -8.40255 0.565442 -10.8506 21
242 1 2.84612 -9.72268 0.661813 13
243 1 8.30453 -3.88363 -3.48881 18
244 1 -12.356 7.03612 1.68912 12
245 1 -10.4325 -3.50253 -16.3187 19
246 1 4.94458 -5.53231 -3.15888 23
247 1 -3.34825 13.0854 1.68479 15
248 1 -5.94548 4.74093 -16.532 17
249 1 -10.4644 3.22385 6.51231 11
250 1 -15.4469 -1.00835 -1.87646 10
251 1 -8.4116 -9.27538 -17.3965 17
252 1 -10.7737 7.53831 -9.51182 20
253 1 1.78573 -3.95712 0.581313 21
254 1 -14.6937 -12.7676 -10.0326 14
255 1 5.1669 -8.83915 -3.05767 19
256 1 -10.3497 8.04731 -6.3995 18
257 1 -6.75496 -6.84059 4.36173 15
258 1 0.594474 -10.7392 -12.2803 22
259 1 -5.20561 -5.53712 -14.6439 19
260 1 6.62386 9.01575 -18.6302 7
261 1 -2.52532 12.3167 -1.69844 18
262 1 -11.4922 -1.14241 -18.821 12
263 1 -0.113586 -3.69099 -23.2647 12
264 1 -5.71366 -17.4527 -7.86147 12
265 1 -11.8467 -5.68961 -14.7328 17
266 1 -4.29285 -7.80212 -1.41079 18
267 1 13.858 1.52393 -13.0233 11
268 1 -8.16037 -6.34655 -19.2074 16
269 1 -8.04087 -1.39807 -13.2129 19
270 1 -5.30559 10.1315 2.8206 19
271 1 -11.6593 11.4591 -12.0299 12
272 1 -10.4134 6.62314 4.85924 11
273 1 9.2671 -0.906401 -13.2127 18
274 1 5.40929 1.91151 -15.3263 20
275 1 -4.89915 6.2059 -6.3193 19
276 1 0.44623 -9.95923 -9.17107 21
277 1 -7.74872 7.78524 4.5587 12
278 1 -7.74409 5.78935 -8.72769 20
279 1 7.74912 -7.2595 -4.7236 19
280 1 9.90492 -4.80351 -6.48397 20
281 1 -8.5572 -1.03869 -16.5659 17
282 1 -7.93209 -7.8029 -6.68552 19
283 1 0.173341 7.48642 -19.0137 11
284 1 -12.7819 -7.97263 -18.4578 17
285 1 -8.92805 6.62818 -11.7336 19
286 1 2.23139 11.8975 -11.7697 15
287 1 3.12188 9.93332 3.24341 17
288 1 -16.1735 -2.96147 -9.57618 13
289 1 -8.89958 -9.50633 -11.1583 18
290 1 -13.542 -5.01186 -9.24591 17
291 1 -14.0439 8.17772 -13.8495 13
292 1 6.65907 -11.5421 -1.52715 11
293 1 -8.3305 -16.5469 -6.03675 11
294 1 2.41318 7.569 -15.3202 16
295 1 -8.66978 4.41435 -14.5772 21
296 1 -7.54532 -15.5848 -9.9239 17
297 1 11.9198 1.32741 0.416952 7
298 1 -2.24564 -2.89893 -0.0109716 16
299 1 -13.9133 -2.96212 -15.0995 16
300 1 -11.691 8.28251 -3.84113 11
301 1 -6.89197 -13.8461 -7.54828 24
302 1 -1.94367 -8.29986 -7.82665 19
303 1 2.94333 -8.43476 -18.7046 18
304 1 -10.1457 -12.1647 4.71385 5
305 1 -8.86115 -5.05105 -6.55633 19
306 1 -2.85215 -7.61086 -5.31814 19
307 1 2.26269 -13.7938 -15.3815 15
308 1 -2.29846 -10.848 -18.9947 14
309 1 -0.89655 -4.91536 1.97771 21
310 1 7.81091 -12.7642 -10.131 13
311 1 -11.9254 -2.33674 -21.732 11
312 1 2.51374 -13.0135 3.71537 11
313 1 -0.796432 14.1845 -12.5913 10
314 1 -8.6628 -2.89185 4.44601 15
315 1 -11.6694 -5.48155 -0.0208194 22
316 1 7.74991 -8.53809 3.99831 10
317 1 15.5027 -0.780477 -12.0577 10
318 1 -9.94204 6.30976 -0.747859 17
319 1 2.76299 -2.77708 -18.6777 21
320 1 11.3267 -4.17517 -3.44652 16
321 1 14.7493 -3.45464 -13.2768 14
322 1 -4.13481 -0.443397 6.74849 17
323 1 -0.837261 11.5599 -11.2187 22
324 1 10.6319 -8.02118 -5.01068 13
325 1 -0.694554 -15.6942 -9.43223 17
326 1 -4.98093 8.75378 -0.517937 17
327 1 -11.6404 -16.1589 -14.3496 13
328 1 -1.57319 3.90726 -0.3473 20
329 1 -5.60466 4.63106 9.36 10
330 1 -4.74872 -6.77898 -9.16669 16
331 1 -12.5068 4.14641 0.441503 16
332 1 -12.653 -15.2728 -17.056 11
333 1 -6.4862 14.0165 1.67384 9
334 1 -5.26736 -12.6784 -10.2272 21
335 1 -4.05727 -11.9295 -14.9958 15
336 1 -7.34465 -10.5904 -5.31286 23
337 1 -11.1525 -3.91114 -3.15122 18
338 1 8.68737 -0.175186 0.400453 18
339 1 -9.12917 -11.4402 -0.595635 14
340 1 -4.39135 0.219134 -18.0642 20
341 1 9.05116 7.73404 -5.38751 15
342 1 -11.2559 -12.9668 -10.8203 19
343 1 0.790403 -0.797493 -16.5539 19
344 1 0.873294 15.8717 -3.80456 9
345 1 -3.53124 6.10765 -17.1445 15
346 1 -1.61264 5.34609 3.29627 23
347 1 -10.4537 -11.4337 -16.0109 18
348 1 1.38376 5.80364 -12.6404 17
349 1 -10.1016 -13.7418 -17.4721 18
350 1 -2.85751 -11.2949 -12.2858 19
351 1 0.0840698 -8.59535 -14.0001 19
352 1 -10.8137 9.5976 -0.286273 14
353 1 -1.93537 -2.92244 5.95271 16
354 1 6.33256 11.9407 -1.12745 13
355 1 -3.13438 9.10688 -9.04858 19
356 1 -6.8306 1.92943 -19.9899 17
357 1 5.73368 -3.41633 -14.4766 19
358 1 0.880882 -10.4257 -4.77149 18
359 1 -15.7752 -4.79569 -6.82636 13
360 1 1.36545 -0.19796 -23.0253 16
361 1 9.45571 5.8672 -7.80787 19
362 1 3.27516 -16.3113 -5.38983 8
363 1 13.7212 -7.21193 -13.8674 9
364 1 6.31533 -3.95908 -20.6253 19
365 1 -2.96975 -14.1302 -7.17211 21
366 1 -5.44133 -15.3393 -5.23294 17
367 1 2.22086 -7.64939 -3.93911 19
368 1 -8.99928 4.46168 -17.8914 16
369 1 0.895524 -14.6734 -18.0512 10
370 1 2.85897 3.13178 -23.3641 11
371 1 -3.81899 -5.41829 4.29823 19
372 1 -15.9621 -6.22628 -9.94124 13
373 1 10.987 -2.93487 -15.7559 17
374 1 8.13805 1.44263 -10.3474 20
375 1 -3.33884 9.36004 -3.38563 18
376 1 -3.50857 -15.8894 -15.5961 10
377 1 6.39074 0.154638 -18.5903 19
378 1 9.13678 1.30433 -19.1301 15
379 1 -7.3377 -0.486892 6.74261 13
380 1 7.13763 10.9635 -6.84625 9
381 1 -7.30381 -8.7174 -21.1373 14
382 1 -7.04282 -2.21201 -0.924577 17
383 1 -4.95623 11.0501 -6.92239 17
384 1 -16.2724 -8.56444 -22.1565 8
385 1 -11.6416 3.31004 -13.4221 19
386 1 -10.4153 -5.84307 4.52714 10
387 1 -5.85941 11.8763 -15.5871 9
388 1 9.43249 0.398221 -7.7188 22
389 1 -11.7501 -10.3804 -12.8261 17
390 1 0.393542 -12.7455 -7.1277 21
391 1 -8.2156 12.3862 3.23873 11
392 1 -0.14004 -4.04988 -16.7773 21
393 1 -0.62636 8.44236 -9.43917 22
394 1 10.2039 -5.17112 -17.5412 15
395 1 5.06896 7.53768 -4.62156 17
396 1 -2.68343 -16.0984 -3.60526 12
397 1 -9.54926 5.57536 -3.36408 18
398 1 2.6617 2.83499 5.3937 18
399 1 -9.04381 -3.29338 -23.6163 10
400 1 -6.84253 -7.29044 -13.0595 20
401 1 4.21035 -2.63229 -1.82296 21
402 1 3.78645 13.5409 -2.13539 12
403 1 0.0561826 2.8886 -12.3094 18
404 1 -8.69313 12.6386 -3.00853 11
405 1 -8.18964 13.2903 -6.9414 9
406 1 5.2051 -4.272 1.06489 19
407 1 11.3588 0.190917 -15.2974 14
408 1 -13.0944 -14.8644 -9.35714 15
409 1 -5.55438 1.95002 6.69222 17
410 1 -4.7782 9.10217 -14.4012 20
411 1 2.95314 -10.5971 -6.92662 20
412 1 3.83646 -6.65508 -21.6454 15
413 1 -5.61712 12.4824 -9.48123 16
414 1 -12.8947 -11.3073 -21.4081 12
415 1 -0.74256 -14.744 -1.72863 17
416 1 -15.0752 -7.1876 -5.20918 18
417 1 -5.75491 0.703581 -12.3261 18
418 1 -12.4647 -8.14675 -1.76438 21
419 1 0.50394 11.4005 -8.47268 20
420 1 3.19716 -13.0167 -12.7486 14
421 1 6.14441 -7.6433 -0.33184 17
422 1 2.50803 1.99141 -9.95728 16
423 1 -12.9463 7.50631 -7.57299 13
424 1 10.7453 -5.07932 -9.39772 14
425 1 -0.788269 4.90699 8.49893 8
426 1 -3.55349 0.957013 -14.9028 19
427 1 -2.24561 10.0709 0.0479598 17
428 1 10.518 5.30047 -19.1662 8
429 1 -3.97436 -8.5126 -20.7666 14
430 1 -7.96541 -12.2023 -19.0343 15
431 1 -10.2735 -14.2283 -21.0458 10
432 1 11.3767 2.78357 -7.84622 16
433 1 13.4863 -3.51991 -10.4533 16
434 1 2.74347 -2.86135 -21.9147 22
435 1 8.51672 -9.27015 -13.3012 16
436 1 1.58374 6.26116 -1.63379 17
437 1 -10.1656 5.08161 -7.31156 17
438 1 11.0237 3.4181 -12.8575 17
439 1 12.3014 -8.8118 -7.58559 10
440 1 5.33936 6.90738 -17.2116 14
441 1 3.38838 -0.93553 2.88688 20
442 1 -4.78823 -1.09431 1.28063 19
443 1 -2.64911 -7.59983 6.54288 12
444 1 10.1676 5.66156 -15.6289 12
445 1 9.49117 7.01421 -2.80534 14
446 1 -6.33228 -1.25121 -18.7951 19
447 1 11.3324 1.83874 -5.09636 16
448 1 10.3424 -10.5465 -10.2468 11
449 1 0.517379 -8.061 -6.66457 19
450 1 5.64321 -1.63607 0.678398 22
451 1 2.49558 6.51179 8.87842 9
452 1 1.33308 -0.0278035 -7.28657 19
453 1 -4.11265 13.0914 -12.6072 14
454 1 4.51333 5.43923 -21.3447 14
455 1 8.95186 -2.21894 -18.0785 17
456 1 4.00979 4.56244 -3.5306 16
457 1 -2.18399 -16.7567 -12.492 11
458 1 -13.9566 0.627814 0.0477708 14
459 1 -4.19132 2.64581 -19.6319 18
460 1 -10.0973 -7.98115 -4.81304 22
461 1 -10.8431 -7.82786 -21.2972 14
462 1 -16.2127 -2.48793 -12.9808 10
463 1 9.06255 -10.1978 -7.44706 15
464 1 6.55488 0.715547 3.4261 12
465 1 4.32106 -11.7132 -4.42467 19
466 1 -11.5368 -5.16443 -23.1641 12
467 1 2.7112 6.74155 1.81399 20
468 1 -5.0835 1.45669 10.0131 8
469 1 6.94029 7.40904 -14.9021 15
470 1 2.00524 5.01518 -15.8164 16
471 1 0.0628531 -12.1031 -15.1212 19
472 1 12.0319 -2.19533 0.916679 11
473 1 6.72749 12.6686 -3.65375 9
474 1 12.2154 -4.88724 -13.3637 18
475 1 -3.37647 -2.63479 2.88602 21
476 1 -8.00525 -10.1604 2.16431 15
477 1 -5.76818 -1.87429 -16.185 19
478 1 5.03917 -7.71909 2.34513 19
479 1 1.67831 -7.05776 2.22177 18
480 1 3.01617 5.9644 5.23577 17
481 1 -11.4569 6.2597 -12.8483 21
482 1 10.5947 3.48241 -1.8008 13
483 1 5.21516 2.9718 -7.17187 18
484 1 -2.10325 -5.71491 -19.1923 23
485 1 -16.6021 -5.06566 -3.00038 13
486 1 3.87594 -1.21251 -15.3073 18
487 1 -3.94925 -8.36922 -12.4555 18
488 1 6.43366 -9.51906 -18.8897 16
489 1 6.33451 9.57765 0.942523 14
490 1 0.297581 4.08411 -2.40975 21
491 1 2.19742 3.8649 0.247548 20
492 1 -4.88153 -5.22226 7.10169 9
493 1 -8.99549 2.18997 8.0533 9
494 1 0.937064 -6.46477 -19.8177 15
495 1 -11.0736 -3.71672 2.68039 13
496 1 8.48903 -3.41463 1.83752 15
497 1 13.1641 4.49488 -11.2367 9
498 1 3.36316 -4.49453 -16.3301 18
499 1 -7.52474 -3.83415 -14.4276 19
500 1 1.87557 4.34318 -7.81781 20
501 1 1.12374 10.2565 -1.47089 19
502 1 -9.63792 3.60746 -0.0612312 18
503 1 -0.744101 10.8914 -4.39978 20
504 1 7.29025 6.03363 0.979913 11
505 1 -4.83447 -12.0581 -6.39507 19
506 1 0.786907 -1.19132 -20.1214 21
507 1 -14.5922 6.64019 -11.6258 14
508 1 4.89831 -8.26691 -16.4985 16
509 1 2.34231 2.5098 -5.1123 20
510 1 8.14935 3.39697 -20.7178 14
511 1 7.66508 6.37216 -20.9235 11
512 1 -3.13039 6.5933 -0.841214 20
513 1 -7.76049 6.49998 -5.08757 17
514 1 3.18215 7.07627 -7.30892 18
515 1 -8.66303 -8.62801 3.97687 14
516 1 -1.82167 4.37943 -19.7526 15
517 1 1.84799 9.46655 8.04611 8
518 1 -5.34622 1.75896 2.36196 21
519 1 2.90464 14.665 -5.14675 16
520 1 6.58445 6.02565 -6.3888 18
521 1 11.7625 -8.10262 -10.7363 13
522 1 -16.3959 -8.67268 -7.64895 10
523 1 -4.35662 -9.62204 -3.98853 19
524 1 -7.13508 -7.07819 -16.3187 16
525 1 -4.03344 2.79719 4.76391 21
526 1 3.80316 -5.68589 -13.3257 20
527 1 4.39187 3.78528 -9.70912 17
528 1 -11.2129 -1.14801 -2.52627 18
529 1 -0.109197 -15.6719 -5.63201 19
530 1 9.46772 2.5847 -16.1659 14
531 1 0.923913 -4.6817 -11.2101 18
532 1 -2.43125 10.9145 3.7075 19
533 1 0.385669 -3.95591 -19.9333 20
534 1 -1.90928 -7.97334 1.24958 20
535 1 0.579718 13.2454 -2.68413 15
536 1 1.61332 0.973636 7.52055 12
537 1 -7.46022 -12.0039 -15.9682 20
538 1 0.77628 -1.26202 -10.6795 17
539 1 -0.831254 2.9118 5.70279 19
540 1 6.3566 -11.0817 -15.9153 14
541 1 -2.54129 -10.962 -2.16985 17
542 1 -1.05304 -7.9082 -11.2097 20
543 1 -11.6188 1.4327 1.83921 17
544 1 2.50595 1.84899 -16.3486 18
545 1 -7.17789 -15.809 -15.3266 15
546 1 -13.7007 -2.80002 0.822998 16
547 1 13.9218 -1.47712 -15.3116 12
548 1 -5.26139 4.43687 -0.655985 18
549 1 -15.683 3.43384 -10.2897 11
550 1 8.29619 0.95058 -5.00563 22
551 1 -5.03938 9.95932 -11.5203 18
552 1 4.68454 -5.23468 -23.824 12
553 1 8.1077 2.1282 -13.4256 18
554 1 -12.6639 4.93153 -10.1891 20
555 1 -9.16544 -9.64853 -14.3207 21
556 1 1.52832 12.2669 -5.83212 18
557 1 -5.2572 -3.08977 5.45544 17
558 1 -8.53828 -17.5837 -13.622 10
559 1 3.67187 -10.1662 -10.721 20
560 1 -6.33938 -1.77634 -10.414 21
561 1 3.12018 1.66837 1.87773 20
562 1 -15.2552 -5.63127 -13.4139 13
563 1 8.77162 7.75292 -18.0796 12
564 1 -2.52424 -16.6712 -7.12133 13
565 1 -0.902491 8.38195 -15.5204 19
566 1 -7.26975 -3.60775 -20.9833 15
567 1 1.18387 3.88354 3.01029 22
568 1 0.804117 2.19949 -21.0008 17
569 1 -13.2164 -8.10336 -7.6156 19
570 1 5.34409 -5.95357 -8.26683 20
571 1 -8.27035 -12.7986 -10.6288 20
572 1 11.7466 -1.96308 -12.9736 20
573 1 7.17882 -1.40884 -10.2682 22
574 1 -7.98031 4.3627 4.6775 14
575 1 5.02521 -11.3361 -9.15884 20
576 1 14.4907 -6.48975 -11.4065 11
577 1 8.82254 -9.09979 -2.08139 13
578 1 1.53194 12.8742 2.78665 14
579 1 -8.61724 5.60882 7.49587 12
580 1 -5.60184 -11.7415 -0.177949 13
581 1 9.90431 -2.28528 -10.6363 20
582 1 3.44311 -3.91744 3.0935 20
583 1 -12.265 -3.9499 -11.5533 22
584 1 3.47263 -6.08006 -6.18971 19
585 1 0.570171 9.11225 -6.36711 20
586 1 6.51753 -5.41411 3.87201 15
587 1 -8.14131 10.0641 0.621874 15
588 1 -2.12729 -11.0991 3.22985 11
589 1 -10.5185 -5.91248 -9.2463 20
590 1 -0.374741 -4.78558 5.011 16
591 1 4.03755 10.6863 -3.21446 18
592 1 -10.6059 -13.782 -3.0199 13
593 1 3.30146 -13.1549 -6.87859 17
594 1 12.9374 -1.87457 -2.21585 12
595 1 5.36625 7.14611 3.39691 12
596 1 -6.03368 7.56406 -11.0483 20
597 1 -2.49247 -4.58835 -9.39415 20
598 1 -5.7941 5.85476 -13.4851 19
599 1 0.746727 1.5797 -0.292071 20
600 1 -2.15557 13.8284 -4.81226 13
601 1 13.7721 -4.14977 -1.30905 9
602 1 -1.96056 -1.93524 -18.7554 24
603 1 -1.10465 10.588 6.5719 11
604 1 4.29322 0.309655 5.4391 19
605 1 6.46374 -6.4526 -18.6202 18
606 1 -5.13301 -16.4723 -12.6783 13
607 1 -10.6028 -2.27554 -13.7386 20
608 1 9.25724 -7.70362 0.742425 9
609 1 -2.42391 -7.09809 -14.4271 19
610 1 -6.89921 -10.4702 -8.4141 21
611 1 13.493 -5.112 -16.1526 11
612 1 4.60317 -8.06102 5.1558 13
613 1 -2.12765 -13.2826 -17.0242 16
614 1 6.07763 8.58993 -7.97056 14
615 1 -13.547 -3.15768 -2.10661 22
616 1 -14.9773 -1.21373 -6.92751 13
617 1 4.964 4.79251 -15.1491 18
618 1 1.14805 -10.5335 -18.5135 17
619 1 -9.09989 8.67786 -2.71202 20
620 1 4.44841 3.39337 -18.6023 19
621 1 7.72534 -4.50718 -9.12432 19
622 1 -12.5152 2.62634 -7.50932 18
623 1 5.07346 12.8377 1.65065 10
624 1 -14.5763 -13.5806 -6.64955 12
625 1 -5.59326 -0.0694815 4.46738 21
626 1 -16.0937 -6.48234 -19.3673 11
627 1 -12.1287 4.2895 -4.22804 13
628 1 -9.58967 3.00991 -11.6301 23
629 1 6.5259 -6.88261 -21.2778 14
630 1 -12.0788 -13.1494 -14.6276 16
631 1 7.86425 -10.1522 -4.59947 15
632 1 -13.9243 4.58291 -14.5827 12
633 1 -10.6951 -8.40378 -8.30339 17
634 1 -9.97624 -6.76023 -2.52759 21
635 1 13.1769 -5.86795 -5.27367 11
636 1 11.0902 -1.46987 -5.23276 19
637 1 -16.3929 2.20853 -6.96489 7
638 1 -2.39489 7.81155 5.81099 18
639 1 -0.902614 5.54399 -16.9676 18
640 1 -8.9119 13.3341 -0.215324 11
641 1 4.88189 5.69451 -12.7013 21
642 1 -3.09849 5.07579 6.4799 19
643 1 6.97607 -10.1389 1.22527 14
644 1 4.40684 8.6763 -12.5979 15
645 1 -8.28706 1.85153 2.38619 21
646 1 -5.34085 -10.4654 -18.3418 18
647 1 -13.3896 -0.917923 -13.0262 19
648 1 -11.7183 -11.3629 1.68969 12
649 1 10.2548 0.186496 -2.54775 17
650 1 -3.7769 -10.3161 -9.45046 17
651 1 -16.4733 -0.0107514 -10.6803 11
652 1 8.15246 -1.57624 -20.8949 17
653 1 -7.35476 7.15767 -0.555216 16
654 1 -3.89648 4.55855 1.90232 18
655 1 -7.69502 -14.8818 -19.2475 9
656 1 -1.60492 -12.8247 -9.79307 20
657 1 2.60577 -15.3676 -10.4078 8
658 1 3.09112 10.5379 -15.0278 10
659 1 6.55508 -0.735175 -13.3418 18
660 1 0.717843 5.78298 -5.32454 20
661 1 8.42389 -3.81751 -13.0755 22
662 1 -3.74185 -7.23012 -16.9084 17
663 1 -1.42638 -8.19316 -2.71145 19
664 1 3.92899 11.3059 -6.88009 14
665 1 6.02045 2.04011 -21.0995 17
666 1 -10.3672 1.98186 -16.5842 15
667 1 5.00925 1.36168 -11.5781 18
668 1 -13.9636 -9.82929 0.348576 10
669 1 0.37088 7.50887 3.72726 19
670 1 0.855461 -17.2444 -3.09209 9
671 1 5.65568 5.96994 -8.98916 17
672 1 -4.60418 9.49865 5.73132 14
673 1 -11.322 -1.49932 0.395591 19
674 1 9.79218 9.04581 -8.8102 10
675 1 -0.354369 -7.73467 4.24464 17
676 1 -3.63482 -13.4205 -1.57548 16
677 1 -8.54529 3.08792 -2.84666 17
678 1 2.49906 -1.75335 5.87698 18
679 1 9.10851 -6.53506 -10.6593 20
680 1 -2.51628 -2.87547 -21.5913 14
681 1 -4.83746 0.056504 -21.8729 11
682 1 -14.5799 -6.16406 -23.7112 7
683 1 10.8552 4.89025 -5.19544 15
684 1 -0.263532 6.10019 0.867524 24
685 1 -9.91107 -14.4818 -8.45984 19
686 1 -5.1512 6.99121 -3.20583 20
687 1 6.81648 -0.398816 -2.1278 21
688 1 -9.3876 -8.10435 0.142945 22
689 1 5.77043 -2.88194 -17.6804 21
690 1 2.54807 -14.8487 -1.67037 13
691 1 -5.23127 -6.00882 -21.5755 15
692 1 -6.43258 5.37495 -19.9376 12
693 1 -12.6669 -8.66841 -4.49245 22
694 1 -9.829 1.1583 -14.0695 18
695 1 -10.3843 4.54543 3.06886 15
696 1 7.99689 -2.93828 -1.00333 18
697 1 -13.426 -15.0934 -3.47685 8
698 1 13.628 -3.25912 -5.01872 11
699 1 -3.13826 -3.88539 -16.2133 21
700 1 7.90116 7.77548 -11.417 17
701 2 -9.22851 -3.63783 -13.3944 19
702 2 -8.64361 13.5069 -8.69896 11
703 2 -0.484387 -10.1992 -14.5213 18
704 2 -1.59249 6.15132 6.86381 18
705 2 -9.02346 -12.0632 -17.3137 17
706 2 6.01497 -7.38496 3.94426 15
707 2 -9.50162 -15.3379 -10.2422 16
708 2 -15.6175 3.2997 -8.3261 10
709 2 -2.78325 9.75384 5.75282 17
710 2 -12.9621 -4.17492 -3.70176 19
711 2 5.6272 5.16822 1.8958 13
712 2 -3.10618 5.00197 -12.6091 17
713 2 -13.1565 -14.8906 -13.916 11
714 2 -12.0238 -2.21461 -12.4552 19
715 2 -10.471 -4.39805 -5.83506 19
716 2 2.85799 -5.52317 2.41727 18
717 2 4.80295 -3.18739 -24.2595 11
718 2 -5.43524 -13.4522 -1.52637 12
719 2 7.98358 0.100473 -6.59366 20
720 2 -1.50768 12.7144 -3.1245 16
721 2 -9.13277 -5.12623 -20.3593 19
722 2 8.79944 0.466948 -1.53474 17
723 2 8.60099 -6.51412 -17.6727 15
724 2 -13.9972 -14.7701 -5.20134 9
725 2 -8.18113 -7.43335 -2.04583 21
726 2 -11.4507 -11.7292 3.41677 8
727 2 13.3051 -7.37448 -6.7718 9
728 2 -1.99429 -16.1249 -14.4034 12
729 2 3.87371 -4.1896 -3.02524 21
730 2 -8.25594 1.08473 -20.5022 12
731 2 -9.57975 -12.4692 -4.07401 18
732 2 -4.27365 0.986509 5.37089 19
733 2 -12.3559 8.89918 -8.96697 15
734 2 3.85446 1.63444 6.72183 13
735 2 -6.06876 12.2908 -2.71578 15
736 2 4.29343 -12.8619 2.71442 12
737 2 1.07353 7.97764 -2.19538 18
738 2 3.50701 5.82255 -8.55653 18
739 2 0.0209421 -12.1344 -8.85343 20
740 2 -2.71522 -3.15628 -13.2023 20
741 2 -0.56665 -7.13527 -15.1645 19
742 2 3.72093 2.65928 -11.2045 16
743 2 -7.40234 1.44912 7.21163 17
744 2 -1.04181 8.37351 -17.7512 12
745 2 -8.1473 5.55981 -19.0878 12
746 2 14.4983 0.713215 -11.3725 10
747 2 -12.2251 -2.22302 2.00759 16
748 2 -14.7726 5.20429 -10.4562 13
749 2 5.08879 -6.17738 -20.3819 17
750 2 1.59052 -11.9479 -13.9534 18
751 2 -15.8248 -10.7305 -10.8283 10
752 2 8.09105 0.25412 -13.9594 18
753 2 -8.28118 11.5452 -11.6608 15
754 2 -0.688904 -14.4154 -16.9738 13
755 2 -2.31359 12.6001 0.206513 13
756 2 0.503786 -13.9326 -0.248194 15
757 2 11.6291 -3.37273 -9.72382 16
758 2 -12.9649 -3.33061 -9.83303 16
759 2 7.23321 -10.8715 -14.1028 15
760 2 2.35576 -10.7942 -16.9992 16
761 2 2.88209 7.11513 -0.602044 16
762 2 7.57222 -10.7398 -2.85529 12
763 2 5.06062 -12.54 -5.91913 15
764 2 -8.6562 -1.23725 5.51128 13
765 2 11.0252 -6.55172 -10.4608 17
766 2 1.83525 12.4336 4.86488 10
767 2 7.20681 -3.81171 3.05335 13
768 2 -10.7467 0.312479 3.19667 15
769 2 3.01222 10.9118 -1.3981 21
770 2 9.43522 -4.78406 -8.24971 20
771 2 -0.333537 5.8849 -19.9229 14
772 2 -13.4279 -12.5644 -20.1392 10
773 2 -12.5372 -0.105374 -3.64682 19
774 2 6.89423 -2.75656 -16.1283 20
775 2 -6.58796 0.371316 -9.79125 17
776 2 -15.8898 -6.88415 -3.35059 14
777 2 -10.4766 -12.7172 -8.56842 20
778 2 8.7161 -7.96947 -9.47204 19
779 2 -8.12624 -2.63527 2.61534 18
780 2 0.565185 -4.624 -0.942418 19
781 2 -1.77536 -4.39095 -22.5481 12
782 2 4.92369 -1.21368 -1.11328 23
783 2 -5.16509 0.755763 0.450395 20
784 2 -4.21503 4.92032 -4.76487 19
785 2 6.15229 -3.17888 -9.52782 19
786 2 12.9117 -1.47863 -6.25465 12
787 2 -11.0551 8.46749 1.32768 12
788 2 -2.27652 -14.3005 -2.71492 15
789 2 4.05124 -9.93813 -19.5193 16
790 2 5.08476 -1.80987 -13.9626 22
791 2 1.27463 2.43711 1.27836 21
792 2 13.1123 -7.62878 -11.9355 10
793 2 6.60943 -2.98508 -6.14879 23
794 2 -11.595 -10.2659 -4.3405 20
795 2 7.01353 1.02475 -11.7464 16
796 2 -10.2035 -4.89447 -1.95431 23
797 2 12.8892 3.08798 -12.4318 12
798 2 0.0277105 -13.4895 -5.44035 20
799 2 9.75419 -3.54111 -17.0359 13
800 2 1.73528 -13.8103 -11.3818 17
801 2 11.623 -9.06011 -9.3422 12
802 2 -1.29749 10.8668 -9.27235 21
803 2 2.54554 -7.32445 -20.3845 15
804 2 -7.69286 -10.9636 -10.1818 17
805 2 -13.58 -6.32232 -14.4108 14
806 2 0.664427 -8.99882 -3.46963 16
807 2 -6.0616 -5.53888 -9.68274 19
808 2 -7.49108 8.42425 -17.8557 11
809 2 -11.5835 8.86146 -1.77817 14
810 2 -0.171134 -4.33369 -12.832 17
811 2 5.79672 5.00478 -16.9674 18
812 2 4.947 7.97819 -18.6347 12
813 2 -6.69314 5.86308 8.37669 9
814 2 -1.7095 -3.62892 -20.0398 20
815 2 -12.4092 6.09153 -0.106738 14
816 2 -7.55074 -4.15766 -1.3463 13
817 2 -16.0715 1.74079 -11.4736 9
818 2 -1.58655 2.00141 -12.2544 17
819 2 -1.55815 8.97805 -4.42208 18
820 2 14.8717 -2.39732 -11.257 11
821 2 7.49717 -2.14503 -2.6771 22
822 2 -13.1529 -4.59104 0.56651 15
823 2 2.15688 0.170937 -9.0152 17
824 2 0.728907 16.6184 -7.27944 10
825 2 -5.5152 5.61003 -18.3679 15
826 2 -13.5516 2.88505 -3.14157 12
827 2 9.97335 -1.49038 -7.66625 23
828 2 -13.7814 -14.6277 -18.3334 8
829 2 6.38757 5.95011 -22.2749 10
830 2 9.82009 7.6245 -10.1726 10
831 2 -11.0365 -7.22496 -0.836176 19
832 2 2.05192 7.28181 -5.55082 16
833 2 -5.17287 12.0815 -11.3761 14
834 2 1.23469 8.05439 -8.99828 20
835 2 6.52206 0.0479072 1.31599 17
836 2 3.90476 3.0258 0.472669 19
837 2 10.1773 -5.41501 -19.4329 10
838 2 1.57716 -1.00537 7.61397 10
839 2 7.21422 -5.73202 -3.65749 21
840 2 -12.6425 0.081418 -10.3554 17
841 2 -5.29737 -15.8028 -14.3909 14
842 2 4.31646 -11.9439 -11.7917 18
843 2 2.2748 -4.46386 -19.2964 20
844 2 10.4551 -3.53954 1.18177 11
845 2 -3.87222 0.780434 8.45753 11
846 2 0.249452 -2.2592 -18.0604 19
847 2 -2.97159 -9.7948 2.2926 13
848 2 -7.61047 -4.34314 -22.8888 10
849 2 0.119966 -13.9255 -14.2461 18
850 2 -2.02533 -11.6681 -15.9764 17
851 2 6.29644 -11.683 0.436529 14
852 2 10.5947 3.95242 -14.7822 14
853 2 2.07152 3.79132 -21.8397 13
854 2 -4.25958 6.62032 6.59605 14
855 2 -8.67493 -6.65788 -5.20924 18
856 2 -15.0712 -8.09904 -23.5338 7
857 2 2.85711 6.2806 -20.7609 12
858 2 -2.37417 13.4002 -13.1012 12
859 2 -6.44798 -5.76684 2.64832 20
860 2 11.8962 -5.26773 -1.55445 13