ITEM: TIMESTEP
123000
ITEM: NUMBER OF ATOMS
1500
ITEM: BOX BOUNDS pp pp pp
-30.0 30.0
-30.0 30.0
-30.0 30.0
ITEM: ATOMS id type x y z Coordination
1 1 -13.3242 2.2198 -6.20279 16
2 1 -13.8134 -3.8232 -6.3043 14
3 1 -13.879 -5.24467 -3.69737 15
4 1 -15.5785 -2.62874 -3.32182 11
5 1 -11.7771 -6.88971 -5.78046 15
6 1 -10.6645 -9.79574 -5.56564 16
7 1 -11.2669 -12.2182 -3.418 9
8 1 -12.5267 -8.78468 -3.37932 13
9 1 -12.7024 1.5602 -8.94229 13
10 1 -10.3068 -4.59313 -10.611 10
11 1 -11.4598 -5.51382 -8.12641 13
12 1 -11.8608 -2.16 -8.73872 17
13 1 -12.5134 -0.495383 -6.34328 18
14 1 -10.7439 -3.39606 -6.11234 22
15 1 -10.5969 -5.50782 -3.45715 24
16 1 -12.4159 -2.23403 -3.72078 23
17 1 -8.89858 -13.9644 -2.80477 12
18 1 -9.30703 -8.12587 -9.37195 13
19 1 -6.8597 -10.7925 -10.6633 12
20 1 -6.60523 -13.7632 -8.34699 11
21 1 -8.51731 -11.1552 -8.45094 14
22 1 -9.09207 -6.84771 -6.09713 21
23 1 -7.50056 -9.31617 -5.93629 19
24 1 -7.29492 -11.5262 -3.17887 21
25 1 -9.0196 -8.46877 -3.12629 22
26 1 -4.50848 -5.85041 -13.3343 11
27 1 -5.53211 -2.73273 -13.6631 16
28 1 -8.16364 -1.82821 -11.1527 17
29 1 -7.05095 -4.65981 -11.2378 17
30 1 -7.00909 -5.96531 -8.13612 19
31 1 -9.00365 -3.10775 -8.4854 22
32 1 -9.09388 -0.680081 -6.36449 22
33 1 -7.19605 -3.55197 -5.81942 23
34 1 -7.24418 -5.47149 -3.32956 21
35 1 -9.07142 -2.45588 -3.41363 23
36 1 -5.83875 -12.4064 -5.86455 20
37 1 -6.09825 -14.4901 -2.87502 14
38 1 -5.94896 -7.65944 -10.7965 18
39 1 -3.68306 -9.61528 -10.9446 14
40 1 -3.93433 -11.6018 -8.16031 19
41 1 -5.81139 -8.69885 -8.07734 23
42 1 -5.70853 -6.5569 -5.55005 23
43 1 -3.86758 -9.30053 -5.98352 19
44 1 -3.97129 -11.5029 -3.19879 23
45 1 -5.73966 -8.44994 -3.11532 24
46 1 -0.909454 -5.68469 -12.9528 18
47 1 -2.34501 -2.91625 -13.8558 17
48 1 -4.92434 -1.23949 -10.9179 23
49 1 -3.61319 -4.4116 -11.1941 21
50 1 -4.1333 -5.66531 -8.50111 23
51 1 -5.73271 -2.66084 -8.33363 23
52 1 -5.55394 -0.749139 -5.82781 24
53 1 -3.75163 -3.70397 -5.724 23
54 1 -3.83883 -5.84389 -3.31407 23
55 1 -5.65891 -2.91611 -3.18496 22
56 1 -2.46756 -12.3344 -5.40805 22
57 1 -0.883389 -15.5703 -5.28272 12
58 1 -2.45321 -14.6745 -2.98225 15
59 1 -0.428247 -9.81065 -10.8508 15
60 1 -2.71948 -7.05728 -10.6626 19
61 1 -0.873637 -11.7776 -8.11851 21
62 1 -3.05994 -14.7067 -7.39367 12
63 1 -2.1646 -8.84295 -8.48108 19
64 1 -2.42971 -6.6048 -6.07514 20
65 1 -0.652275 -9.73285 -5.49572 23
66 1 -0.77867 -11.6397 -3.15568 21
67 1 -2.36244 -8.45785 -3.20549 22
68 1 2.55232 -5.84416 -13.3395 16
69 1 3.03201 5.27913 -13.5418 14
70 1 -2.11107 -0.720599 -11.4672 20
71 1 -0.787667 -3.34544 -10.6613 22
72 1 -0.280312 -5.46796 -8.49792 24
73 1 -2.55749 -2.62179 -8.3949 25
74 1 -2.27513 -0.730965 -5.91102 23
75 1 -0.485052 -3.9284 -5.51015 23
76 1 -0.751977 -5.7268 -3.31321 22
77 1 -2.07572 -2.69921 -3.37092 21
78 2 -12.7678 -5.27964 -6.55265 13
79 2 -8.07317 -14.1474 -7.19503 11
80 2 -15.2051 -2.30258 -1.36856 15
81 2 -15.2381 -0.884761 -3.9086 10
82 2 -14.5521 -3.82641 -4.52421 13
83 2 -9.95342 -11.1007 -6.80858 13
84 2 -10.0586 -6.28 -9.48049 13
85 2 -9.89069 -12.2124 -2.03231 13
86 2 -9.9498 -13.1016 -4.42832 12
87 2 -12.4435 -6.84619 -4.13829 19
88 2 -7.66322 -14.9255 -3.8724 12
89 2 -10.4665 -5.31362 -6.2394 20
90 2 -12.4826 -2.40474 -6.71644 18
91 2 -11.9707 -0.312368 -9.18224 11
92 2 -10.7445 -3.54914 -9.16084 15
93 2 -10.5987 -5.39339 -1.19094 21
94 2 -12.2276 -2.52532 -1.6004 25
95 2 -12.1048 -0.352415 -4.27214 22
96 2 -10.8348 -3.62623 -4.15372 22
97 2 -7.39586 -11.243 -6.76156 21
98 2 -7.41514 -13.8725 -1.15771 15
99 2 -8.09272 -7.76164 -7.49538 19
100 2 -10.1352 -8.07018 -5.02101 15
101 2 -8.42636 -9.85507 -9.84343 12
102 2 -6.9384 -11.2992 -1.16261 20
103 2 -9.16627 -8.83423 -1.17741 21
104 2 -8.84018 -6.59988 -3.19576 20
105 2 -7.32307 -9.60173 -3.85708 20
106 2 -6.03229 -6.1878 -12.238 13
107 2 -8.81498 -3.69633 -11.3973 11
108 2 -7.34996 -5.45254 -6.3123 21
109 2 -8.91781 -2.66296 -6.49076 21
110 2 -10.1604 1.99333 -9.94855 16
111 2 -7.27498 -4.25634 -9.07517 21
112 2 -7.23083 -5.37741 -1.30693 23
113 2 -8.68165 -2.65855 -1.38537 21
114 2 -9.01836 -0.644406 -4.16845 24
115 2 -7.26155 -3.48563 -4.05046 21
116 2 -6.82001 -12.2245 -9.34338 12
117 2 -4.55212 -15.2483 -2.26874 14
118 2 -5.84642 -12.6217 -3.79855 19
119 2 -1.5443 -15.5602 -7.73253 8
120 2 -5.66366 -9.48922 -11.0785 12
121 2 -4.17395 -11.4839 -6.10242 20
122 2 -5.46719 -8.3044 -6.09117 21
123 2 -5.78551 -7.10701 -8.99775 20
124 2 -3.90449 -9.68701 -8.86974 19
125 2 -4.31864 -11.5565 -1.21055 23
126 2 -5.56067 -8.22655 -1.21198 23
127 2 -5.78834 -6.61323 -3.42962 20
128 2 -3.67429 -9.66066 -3.77077 21
129 2 -2.98322 -6.20228 -12.2401 18
130 2 -6.23939 -3.11332 -12.0268 17
131 2 -5.407 -0.821489 -14.1962 13
132 2 -4.22083 -4.03885 -13.5321 14
133 2 -4.22503 -5.41865 -6.33518 22
134 2 -5.63415 -2.56023 -6.41633 23
135 2 -5.60007 -0.80982 -9.17759 21
136 2 -4.23783 -3.58874 -9.30077 21
137 2 -3.71264 -5.45388 -1.39868 21
138 2 -5.28908 -2.84522 -0.607277 18
139 2 -5.43413 -0.904901 -3.71478 23
140 2 -3.9292 -3.80509 -3.92684 25
141 2 -2.43257 -13.0164 -8.01058 13
142 2 -5.08074 -14.1708 -7.28482 13
143 2 -2.1536 -14.6234 -1.0418 17
144 2 -2.43328 -12.72 -3.46842 17
145 2 -0.855858 -15.1975 -3.6225 15
146 2 -2.09794 -8.72371 -10.9624 17
147 2 0.588532 -7.07926 -12.9297 16
148 2 -0.523101 -11.7961 -5.54468 21
149 2 -2.12001 -8.5613 -6.6148 24
150 2 -2.65133 -6.67412 -8.85608 22
151 2 -0.72939 -9.95795 -8.96906 21
152 2 -0.59961 -11.833 -1.22194 24
153 2 -2.54353 -8.6369 -1.08156 21
154 2 -2.35656 -6.82573 -4.12975 25
155 2 -0.588373 -9.68048 -3.50287 22
156 2 -0.837609 -5.4245 -10.557 20
157 2 -2.44965 -2.88784 -11.5913 21
158 2 -2.42929 -0.921403 -13.9238 16
159 2 -0.650157 -4.00045 -14.0202 15
160 2 -0.554573 -5.59424 -6.3594 21
161 2 -2.03031 -2.71787 -6.42924 23
162 2 -2.20227 -0.853945 -9.09082 22
163 2 -0.855365 -3.68005 -8.55919 19
164 2 -0.360179 -5.79149 -1.34188 24
165 2 -2.15376 -2.84148 -1.14957 22
166 2 -2.17782 -0.943444 -4.03556 25
167 2 -0.552978 -3.93451 -3.6695 24
168 1 -7.90609 -15.4774 -5.62137 10
169 1 -9.3283 -12.8322 -6.03375 15
170 1 -15.2239 -0.495833 -0.914988 14
171 1 -13.8075 -3.72281 -0.922716 18
172 1 -14.0756 -5.51703 1.73377 13
173 1 -15.1726 -2.46562 1.77945 13
174 1 -15.2395 -0.79267 4.48233 14
175 1 -13.9305 -3.96072 4.46548 17
176 1 -12.37 -6.13243 4.9777 20
177 1 -12.1342 -6.63664 -0.938149 18
178 1 -10.8643 -9.48923 -0.48422 16
179 1 -10.3517 -11.035 2.31087 13
180 1 -12.0099 -8.11315 2.53669 16
181 1 -11.5428 -7.98752 8.15808 13
182 1 -10.882 -9.48383 5.30083 18
183 1 -8.59537 -8.38159 7.22153 22
184 1 -12.2301 -0.754635 -0.701267 25
185 1 -10.2068 -3.60095 -0.837259 22
186 1 -10.7206 -5.23887 2.06109 23
187 1 -11.9679 -2.64264 1.66618 22
188 1 -12.3512 -0.405405 4.44259 21
189 1 -10.4303 -3.63143 4.88377 23
190 1 -7.81173 -4.84644 12.7522 11
191 1 -8.76205 -0.521449 9.68552 15
192 1 -9.17269 -6.37951 10.4762 18
193 1 -13.4175 -5.26373 7.79291 10
194 1 -8.56614 -12.3297 -0.518938 14
195 1 -8.58007 -12.3403 4.84751 13
196 1 -9.10716 -6.64607 -1.07328 20
197 1 -7.13989 -9.21779 -0.368517 24
198 1 -7.04454 -11.1865 2.01676 19
199 1 -8.77587 -8.4735 2.18757 24
200 1 -8.97242 -6.5019 4.69934 23
201 1 -7.22864 -9.39587 4.55601 22
202 1 -7.06127 -10.9446 7.41605 18
203 1 -10.0622 -11.3513 8.04202 10
204 1 -8.69789 -9.96906 10.4267 12
205 1 -3.80996 -12.3686 10.3942 12
206 1 -8.84046 -0.57278 -0.901268 22
207 1 -7.13145 -3.50093 -0.532621 22
208 1 -7.17913 -5.64804 2.14676 24
209 1 -8.86036 -2.54711 2.08581 24
210 1 -8.85315 -0.5979 4.51386 23
211 1 -7.29479 -3.78724 4.79389 23
212 1 -7.36803 -5.43422 7.46775 22
213 1 -8.88722 -2.26323 7.27182 21
214 1 -5.65714 0.981023 13.1891 11
215 1 -7.44815 -3.43033 10.0565 21
216 1 -6.76777 -8.45717 11.9731 15
217 1 -10.4846 -3.99207 10.0238 13
218 1 -5.7744 -12.8227 -0.250631 20
219 1 -3.93225 -15.6474 -0.546408 12
220 1 -4.02 -15.0716 5.34158 12
221 1 -5.32073 -12.2341 4.61542 18
222 1 -5.51912 -14.2361 2.35765 13
223 1 -5.57572 -6.41134 -0.601422 22
224 1 -4.27077 -9.50452 -0.622956 21
225 1 -3.76684 -11.3758 2.06445 22
226 1 -5.40911 -8.35735 2.29868 25
227 1 -5.53186 -6.55186 5.26381 24
228 1 -3.62955 -9.11677 4.71734 24
229 1 -5.51618 -13.646 8.18853 13
230 1 -5.27048 -8.5522 7.71356 21
231 1 -6.52953 -12.0038 10.8864 11
232 1 -3.91383 -9.10359 10.6333 20
233 1 -4.65689 -10.2951 12.9944 11
234 1 -5.37189 -1.00131 -0.702158 21
235 1 -3.68185 -3.71068 -0.300989 24
236 1 -3.86997 -5.64974 2.28093 21
237 1 -5.52818 -3.0428 2.32168 21
238 1 -5.68508 -0.557646 4.25168 20
239 1 -3.95413 -3.72574 4.80138 21
240 1 -3.70451 -5.71643 7.53592 23
241 1 -5.46464 -2.63771 7.218 19
242 1 -4.3432 -3.7195 10.1719 21
243 1 -2.17938 -6.33248 10.0673 22
244 1 -5.66032 -6.34177 9.76172 20
245 1 -4.78178 -6.3882 12.9238 16
246 1 -2.36123 -12.6024 -0.509064 24
247 1 -0.833521 -15.346 -0.0457225 17
248 1 -2.3565 -14.4723 2.40654 20
249 1 -2.22873 -12.331 5.12737 25
250 1 -0.923911 -15.0359 5.41977 17
251 1 -3.72348 -11.0296 7.1329 22
252 1 -0.447455 -12.7248 10.8826 13
253 1 -2.0121 -6.61735 -0.669923 23
254 1 -0.988448 -9.68635 -0.693068 21
255 1 -0.784332 -11.5677 2.09401 21
256 1 -2.37099 -8.23371 1.87929 22
257 1 -2.00712 -6.47298 5.03961 25
258 1 -0.475527 -9.49264 4.91566 26
259 1 -0.143914 -11.2985 7.45135 21
260 1 -2.06281 -8.43111 7.80155 23
261 1 -0.65635 -3.96776 10.3791 20
262 1 -0.403414 -9.24949 10.1149 17
263 1 -2.33039 -14.2409 8.426 15
264 1 -2.03351 -1.00853 -0.496774 23
265 1 -0.473474 -3.68436 -0.709961 23
266 1 -0.485398 -5.84319 1.96321 22
267 1 -1.93266 -2.88773 2.0069 23
268 1 -2.37499 -0.901468 5.0708 23
269 1 -0.401686 -3.73475 4.74605 24
270 1 -0.421774 -5.7684 7.65111 24
271 1 -2.16438 -2.82839 7.75855 24
272 1 -2.0537 -0.780395 9.78221 20
273 1 0.349903 -2.11749 12.7672 14
274 1 -3.05617 -8.30984 13.6223 11
275 1 -1.34383 -5.47312 13.6181 11
276 2 -13.2469 -5.38222 -1.73215 18
277 2 -11.6623 -10.4999 -4.20124 13
278 2 -11.9958 -8.56798 -1.55977 14
279 2 -15.101 -2.55344 3.74522 15
280 2 -15.2443 -0.827594 1.02346 14
281 2 -13.7657 -3.60336 1.1641 17
282 2 -14.5012 -1.03185 6.32883 12
283 2 -13.6532 -4.18396 6.24425 14
284 2 -10.1381 -10.9454 4.23172 15
285 2 -11.9288 -8.09652 4.39735 17
286 2 -12.6521 -6.66826 1.17035 17
287 2 -10.5986 -9.26039 1.52327 17
288 2 -13.852 -5.70091 3.77275 13
289 2 -10.1426 -9.48153 7.42454 16
290 2 -10.7124 -5.42382 3.95647 24
291 2 -12.0261 -2.37761 4.26641 24
292 2 -12.1863 -0.634587 1.56283 22
293 2 -10.377 -3.47695 1.14129 22
294 2 -12.2077 -6.47417 6.83395 17
295 2 -10.1577 -7.26571 9.18231 14
296 2 -11.9538 -0.517879 6.6179 18
297 2 -10.4363 -3.47448 6.62667 22
298 2 -8.3027 -11.1806 9.13612 13
299 2 -8.85123 -11.6462 1.18535 17
300 2 -7.00888 -11.2909 4.10939 21
301 2 -8.83299 -12.1124 6.76388 13
302 2 -8.84842 -8.35201 4.13006 23
303 2 -8.86448 -6.58997 1.71671 20
304 2 -6.90472 -8.94836 1.44525 20
305 2 -5.37211 -12.8194 9.78597 12
306 2 -7.38955 -10.3727 11.8167 11
307 2 -9.08297 -6.53908 6.66719 23
308 2 -6.87014 -9.07095 6.66584 20
309 2 -4.80211 -10.967 11.0813 12
310 2 -7.09382 -5.71661 4.36089 24
311 2 -8.89484 -2.68061 4.16788 24
312 2 -8.79669 -0.774181 0.971459 25
313 2 -7.26983 -3.68751 1.38433 23
314 2 -9.22923 -2.30089 9.58754 15
315 2 -5.9786 -0.361632 11.7345 15
316 2 -8.72992 -0.338345 6.59445 21
317 2 -7.13162 -3.44929 6.79599 21
318 2 -9.50535 -4.79778 11.6583 11
319 2 -8.04559 -8.17671 10.545 15
320 2 -5.24063 -14.3336 4.18651 14
321 2 -5.54459 -12.3566 1.60655 20
322 2 -4.33257 -14.9092 0.994042 14
323 2 -5.49501 -11.8265 6.5724 20
324 2 -3.91258 -11.0746 4.50993 21
325 2 -5.41399 -8.18129 4.24618 23
326 2 -5.57253 -6.46758 1.38266 24
327 2 -3.75393 -9.65345 1.37946 22
328 2 0.207792 -10.9988 9.84249 20
329 2 -5.28406 -8.1732 9.44277 24
330 2 -5.44868 -5.98975 7.21229 23
331 2 -3.47054 -8.97674 6.88674 21
332 2 -6.80493 -6.31401 12.5909 13
333 2 -2.70856 -10.0968 13.3966 12
334 2 -3.77607 -5.59371 4.26671 24
335 2 -5.80021 -2.44778 4.18224 22
336 2 -5.5845 -1.03969 1.69229 20
337 2 -3.7972 -3.76204 2.40609 18
338 2 -3.78771 -5.54285 9.68979 24
339 2 -5.7145 -2.66908 9.21256 26
340 2 -5.49836 -0.745748 6.29818 25
341 2 -3.79029 -3.73491 6.7911 22
342 2 -3.87445 -14.4656 7.28383 15
343 2 -4.68714 -8.25528 12.4357 17
344 2 -7.58435 -5.53327 9.38082 22
345 2 -0.974729 -4.04319 12.5245 13
346 2 -2.48871 -14.2396 4.67857 17
347 2 -2.26551 -12.7584 1.3584 24
348 2 -0.782759 -15.4251 2.22106 13
349 2 -1.91814 -11.8528 6.88152 20
350 2 -0.659326 -11.4003 4.09434 24
351 2 -2.04114 -8.30638 4.05956 22
352 2 -2.21501 -6.46075 1.39517 23
353 2 -0.791312 -9.71726 1.43134 24
354 2 -0.792698 -14.8426 7.2633 15
355 2 -2.2849 -8.53464 9.8473 21
356 2 -2.08944 -6.70868 6.97671 24
357 2 -0.661837 -9.3459 6.9491 23
358 2 0.535763 -8.17571 11.5236 18
359 2 0.00240228 -11.8464 12.3697 12
360 2 -0.400769 -5.63462 4.11806 24
361 2 -1.98599 -2.59637 4.46222 22
362 2 -1.76067 -0.863365 1.4821 24
363 2 -0.38303 -3.85641 1.34019 24
364 2 -0.461635 -5.84882 9.69841 23
365 2 -2.2479 -3.09438 9.8606 23
366 2 -2.51239 -1.03484 7.64604 20
367 2 -0.540528 -3.95977 7.46413 21
368 2 -1.9645 -12.987 9.87592 14
369 2 -1.3383 -7.43001 13.8465 11
370 2 -3.21556 -5.66517 13.2497 12
371 2 2.32001 -2.41044 13.587 12
372 1 -13.2027 4.1859 -9.5852 12
373 1 -14.0358 6.62402 -8.08769 9
374 1 -13.8872 0.335504 -3.48949 20
375 1 -15.3981 3.3305 -3.4597 12
376 1 -12.3315 9.65911 -7.77024 6
377 1 -14.5682 6.44425 -4.67515 11
378 1 -11.0263 2.78693 -11.6257 9
379 1 -10.097 0.462055 -9.11916 20
380 1 -12.648 7.57909 -10.3974 8
381 1 -11.8937 5.33265 -6.18624 19
382 1 -10.5686 2.14389 -6.1281 25
383 1 -10.4443 0.402303 -3.40705 22
384 1 -12.1991 3.16138 -3.26749 21
385 1 -9.8858 6.25528 -8.68831 15
386 1 -10.3044 8.11691 -6.06742 16
387 1 -10.7155 6.45487 -3.35541 21
388 1 -12.514 9.07551 -4.31604 14
389 1 -10.6982 12.0299 -2.97769 12
390 1 -7.19731 0.112704 -13.7674 12
391 1 -8.1285 3.44637 -13.2118 12
392 1 -9.76062 6.18404 -12.0139 11
393 1 -6.84804 1.4358 -11.0396 20
394 1 -7.29724 0.0588181 -8.70918 21
395 1 -8.83655 3.311 -8.83407 18
396 1 -8.84753 5.04902 -6.01874 23
397 1 -7.28556 2.18258 -6.03705 21
398 1 -7.13785 0.0709904 -3.41174 22
399 1 -8.85154 3.01743 -3.60128 22
400 1 -7.0299 6.24469 -13.6635 10
401 1 -6.82294 8.01627 -11.1611 16
402 1 -6.84198 5.9576 -8.57058 19
403 1 -8.703 11.1584 -6.04477 15
404 1 -7.22442 13.5221 -6.15505 13
405 1 -6.99619 8.00251 -5.77802 22
406 1 -7.09934 5.92192 -3.44565 22
407 1 -8.81622 8.9088 -3.76506 22
408 1 -5.18126 14.9931 -3.82972 12
409 1 -10.7047 13.593 -5.86032 6
410 1 -6.52662 12.1428 -3.39042 19
411 1 -3.79426 0.228109 -14.1926 15
412 1 -5.36757 2.58026 -13.2707 15
413 1 -5.25681 5.18821 -11.3882 18
414 1 -3.64565 1.83538 -11.4775 20
415 1 -3.76209 0.173446 -8.56618 22
416 1 -5.50615 2.98555 -9.26698 18
417 1 -5.45035 5.3784 -5.81884 19
418 1 -3.58683 2.2033 -5.5703 22
419 1 -3.50316 -0.199411 -3.11378 22
420 1 -5.37342 3.07134 -3.35846 21
421 1 -3.21748 6.48047 -13.7978 15
422 1 -4.68431 10.9882 -10.8263 14
423 1 -3.53664 7.74954 -10.9349 24
424 1 -3.40999 6.03958 -8.44104 23
425 1 -5.27498 8.58661 -8.40469 19
426 1 -5.27629 10.5469 -5.52046 22
427 1 -3.66729 7.94361 -5.55736 24
428 1 -3.50147 5.81053 -3.51761 23
429 1 -5.37694 8.76726 -3.03183 24
430 1 -3.65204 11.7396 -8.21545 17
431 1 -3.72161 13.7553 -6.43264 15
432 1 -3.32458 11.5987 -3.10917 23
433 1 -8.84005 14.5194 -2.84055 13
434 1 -0.579814 -0.206988 -13.7822 18
435 1 -2.15709 3.12229 -13.9584 16
436 1 -1.93515 4.84443 -11.0396 25
437 1 -0.281072 1.84263 -11.1962 23
438 1 -0.359214 -0.0947333 -8.66605 25
439 1 -1.97595 2.99006 -8.26411 22
440 1 -2.06613 5.17362 -5.79813 22
441 1 -0.412255 1.82024 -5.79837 23
442 1 -0.546235 -0.180634 -2.89279 24
443 1 -2.07002 2.93709 -3.33748 22
444 1 -0.0726751 5.66604 -13.6354 14
445 1 -4.85858 9.2625 -13.6112 11
446 1 -2.3585 9.67921 -12.9408 11
447 1 -0.232491 7.48677 -11.0963 19
448 1 -0.236577 6.05719 -8.52602 21
449 1 -1.8126 8.9802 -8.63647 18
450 1 -1.83405 10.694 -5.93547 21
451 1 -0.299502 8.00126 -6.09117 20
452 1 -0.12371 5.87653 -3.40905 21
453 1 -1.89834 8.90328 -3.57907 19
454 1 0.0165486 11.8241 -8.75565 16
455 1 -0.235347 13.6091 -5.8674 16
456 1 -0.148935 11.807 -3.06021 21
457 1 -2.01203 14.38 -3.9472 14
458 2 -13.6067 0.729934 -7.35013 13
459 2 -12.5662 2.8912 -10.6652 8
460 2 -13.809 0.645239 -1.49184 21
461 2 -15.2625 3.54523 -1.62074 12
462 2 -13.0966 5.93137 -9.76777 9
463 2 -14.0613 2.15731 -4.2318 17
464 2 -13.0781 8.38547 -8.78577 9
465 2 -15.781 5.44395 -3.48809 10
466 2 -13.8508 6.06844 -6.43031 14
467 2 -8.67155 -1.16025 -9.25011 19
468 2 -10.6365 0.402659 -7.16794 24
469 2 -12.0763 3.49532 -6.59918 17
470 2 -10.7178 7.03501 -10.7197 9
471 2 -7.41917 1.93967 -9.33421 17
472 2 -10.6281 -0.117073 -1.47753 22
473 2 -11.7956 3.13144 -1.39402 21
474 2 -11.8955 4.89792 -4.14242 22
475 2 -10.5339 2.25332 -4.03769 22
476 2 -10.2755 6.33739 -6.73796 18
477 2 -11.9892 9.3972 -6.02005 12
478 2 -6.00387 7.36505 -9.60274 15
479 2 -10.4405 5.98501 -1.5907 23
480 2 -13.9499 7.90474 -3.63984 13
481 2 -8.92749 14.6095 -0.788354 11
482 2 -10.468 8.18102 -4.16982 21
483 2 -12.18 10.8832 -2.71438 11
484 2 -6.98435 -0.483942 -11.8047 16
485 2 -7.95561 6.9064 -12.0945 13
486 2 -9.90781 3.96095 -12.8361 10
487 2 -7.29036 0.0750387 -6.56496 21
488 2 -8.9108 3.11464 -6.54916 21
489 2 -6.03328 7.77836 -13.8894 11
490 2 -8.41942 5.13368 -8.50933 14
491 2 -6.78914 -0.296953 -1.4887 21
492 2 -8.56907 3.05805 -1.32236 23
493 2 -9.10753 5.03504 -3.83265 22
494 2 -7.21357 2.0338 -4.09486 23
495 2 -7.2259 1.76142 -13.1441 13
496 2 -7.02777 6.06728 -6.40102 22
497 2 -8.62405 9.16229 -5.77699 13
498 2 -7.00991 11.6773 -5.62532 16
499 2 -3.26533 11.1782 -12.0718 12
500 2 -7.31695 5.96358 -1.53575 24
501 2 -8.63493 8.44116 -1.51626 20
502 2 -10.2495 13.8172 -4.00012 10
503 2 -6.90117 7.64699 -3.82841 21
504 2 -9.09974 11.1183 -2.92648 18
505 2 -6.85095 11.631 -1.53321 19
506 2 -3.87707 13.6044 -3.4542 16
507 2 -3.7799 0.0612503 -11.7765 23
508 2 -5.29228 2.8618 -11.3302 17
509 2 -6.76789 4.69484 -12.8238 14
510 2 -3.75899 2.23253 -13.7701 12
511 2 -3.68793 0.336151 -6.42284 20
512 2 -5.19785 3.34433 -6.16114 21
513 2 -5.28195 5.08833 -9.251 22
514 2 -3.72626 1.89512 -9.3172 23
515 2 -3.77678 0.0386837 -0.858584 20
516 2 -5.14692 3.0069 -1.28618 20
517 2 -5.34404 5.05853 -3.71106 23
518 2 -3.74243 1.95275 -3.52832 22
519 2 -3.47084 5.97977 -11.7191 22
520 2 -1.86815 8.6732 -11.4871 19
521 2 -3.68481 6.20975 -6.28971 21
522 2 -5.33013 8.69926 -6.32531 21
523 2 -4.90384 9.24186 -11.6887 16
524 2 -3.35217 7.87215 -8.96538 22
525 2 -3.50967 5.7847 -1.46384 22
526 2 -5.2096 8.60201 -1.06415 20
527 2 -5.15471 10.6029 -3.57566 20
528 2 -3.78569 8.05059 -3.63779 23
529 2 -9.0002 13.1198 -6.46439 7
530 2 -3.73589 11.5651 -1.10258 20
531 2 -6.72715 13.9475 -2.76754 14
532 2 -1.97019 14.1354 -6.02611 14
533 2 -0.0859896 -0.12066 -11.3875 21
534 2 -1.76647 2.93744 -11.622 23
535 2 -1.71051 4.90817 -14.0517 12
536 2 -0.67359 1.69893 -14.399 14
537 2 -0.561353 0.0147282 -6.64668 25
538 2 -1.86625 3.24237 -6.29009 20
539 2 -2.00453 4.80183 -8.78279 22
540 2 -0.303747 2.02494 -8.9027 21
541 2 -0.0897154 -0.115327 -1.09445 24
542 2 -1.87339 3.1019 -1.19458 23
543 2 -1.61594 4.69919 -3.87885 21
544 2 -0.447313 1.76937 -3.64854 23
545 2 -0.307779 5.64685 -11.732 22
546 2 -3.19967 8.37549 -14.1265 10
547 2 0.16333 5.93519 -6.47767 21
548 2 -2.01054 8.87462 -5.99941 20
549 2 -0.0780193 11.7198 -11.2251 10
550 2 -0.208417 7.93664 -8.96284 22
551 2 -0.390857 5.81558 -0.968702 18
552 2 -1.46721 8.67505 -1.36446 23
553 2 -1.65349 10.8272 -3.82196 24
554 2 -0.23447 7.83188 -4.14457 24
555 2 -5.10426 10.4328 -8.89401 16
556 2 -2.26112 13.0375 -9.27773 12
557 2 -2.00154 10.7734 -8.06235 19
558 2 -0.296408 12.0909 -1.10082 21
559 2 -3.68251 11.7744 -6.2665 20
560 2 -0.18515 13.554 -3.9644 17
561 1 -15.4014 5.51184 -1.70407 10
562 1 -13.7519 2.72319 -0.944478 18
563 1 -13.8305 0.418165 2.02734 19
564 1 -14.0395 2.38056 4.56671 15
565 1 -12.4934 3.47735 7.08614 14
566 1 -13.9354 0.406433 7.39039 11
567 1 -12.4244 -2.47462 6.34067 17
568 1 -13.4374 8.20643 -1.84372 17
569 1 -13.6054 6.56278 0.737747 15
570 1 -13.7695 8.57527 3.85462 12
571 1 -10.3145 5.40224 7.80358 18
572 1 -12.0905 5.03171 -0.99131 20
573 1 -10.3603 1.95831 -0.853039 23
574 1 -10.6313 0.190442 2.04201 23
575 1 -12.0103 3.09785 1.67278 21
576 1 -12.1402 5.17619 4.50046 19
577 1 -10.3532 2.26742 4.66543 25
578 1 -10.5741 0.56066 7.29805 19
579 1 -10.0828 2.27211 9.70892 13
580 1 -10.4098 8.37536 9.14646 12
581 1 -7.29124 2.50717 9.83178 19
582 1 -10.6056 -5.36993 7.40187 19
583 1 -12.5128 11.1616 -0.982562 10
584 1 -10.19 7.6884 -0.880783 22
585 1 -10.4256 5.61349 1.5632 22
586 1 -12.0426 8.75772 1.17297 20
587 1 -12.0802 11.479 3.71016 8
588 1 -10.4031 7.72489 4.10278 21
589 1 -12.1406 6.96697 6.46089 16
590 1 -11.7996 10.0164 6.6255 14
591 1 -8.73927 11.1132 8.297 12
592 1 -10.2318 11.7079 1.59672 16
593 1 -8.90651 4.81726 -0.921806 23
594 1 -6.93781 2.12408 -0.705516 24
595 1 -7.12601 0.280182 1.81327 23
596 1 -8.82951 2.74938 1.9461 21
597 1 -8.74435 5.02454 4.65155 23
598 1 -6.82288 2.33177 4.49593 23
599 1 -7.08135 0.47498 7.26518 22
600 1 -8.76708 3.41037 6.80593 20
601 1 -8.82441 5.21513 10.1976 18
602 1 -5.27094 -0.774472 9.97694 22
603 1 -6.14044 -1.97994 12.6753 10
604 1 -8.42048 3.70954 12.885 9
605 1 -8.37092 10.5344 -1.23224 18
606 1 -7.13005 7.80023 -0.765462 23
607 1 -7.04424 5.82249 1.58539 21
608 1 -8.80987 8.80187 1.65546 21
609 1 -8.83594 10.9777 4.26417 20
610 1 -7.27187 7.93227 4.27929 22
611 1 -7.03053 6.04922 6.93169 24
612 1 -7.2306 11.9929 6.13633 17
613 1 -7.2355 8.20626 9.55118 19
614 1 -7.15662 6.94627 13.0154 10
615 1 -9.53789 14.8937 1.02 9
616 1 -7.11341 11.6098 1.43651 22
617 1 -5.25435 13.7926 7.65965 9
618 1 -8.60618 8.52012 6.77185 22
619 1 -5.18567 4.91687 -0.881815 22
620 1 -3.25025 1.97242 -0.662311 22
621 1 -3.6911 0.0113161 2.16048 21
622 1 -5.14434 3.00474 1.93747 20
623 1 -5.46909 5.26163 4.16819 21
624 1 -3.5913 2.19011 4.87518 22
625 1 -4.16066 -0.00403933 7.53805 20
626 1 -5.33927 3.05156 7.48381 23
627 1 -5.36919 5.38674 9.67685 15
628 1 -3.8799 2.11434 10.1353 21
629 1 -2.4992 -2.84849 12.0742 14
630 1 -2.35765 0.746322 12.6099 16
631 1 -5.37155 10.4887 -0.703839 21
632 1 -3.19961 7.79831 -0.890184 22
633 1 -3.66602 5.86344 1.73758 23
634 1 -5.49942 8.7197 1.53754 21
635 1 -5.38009 10.726 3.89568 20
636 1 -3.70102 8.02132 4.30453 22
637 1 -3.86163 5.97045 6.86869 21
638 1 -5.6704 9.05382 6.94781 24
639 1 -5.56326 11.5208 9.28996 14
640 1 -4.15753 8.34867 8.96384 21
641 1 -4.88084 4.04265 13.4659 10
642 1 -5.38836 9.26085 11.5605 14
643 1 -3.17616 13.4246 -0.894219 16
644 1 -3.60986 11.6956 1.52506 19
645 1 -7.61039 13.9033 3.63848 13
646 1 -3.88687 13.719 4.36699 18
647 1 -3.58906 11.8047 6.32941 19
648 1 -1.99896 4.93519 -0.311333 25
649 1 0.0446633 1.85264 -0.55869 23
650 1 -0.50353 0.240991 2.3783 24
651 1 -1.81794 2.8731 2.24902 23
652 1 -2.37468 4.76908 4.48487 20
653 1 -0.270144 1.86133 4.8509 22
654 1 -0.217143 0.0782587 7.34058 19
655 1 -1.68267 3.12194 7.16391 21
656 1 -2.25777 5.35164 9.31266 17
657 1 -0.575229 2.09058 10.086 22
658 1 0.679492 1.70862 12.4408 17
659 1 -3.53646 6.99275 13.6139 10
660 1 -1.95606 10.2785 -0.61987 21
661 1 -0.0070019 7.77026 -0.490953 23
662 1 -0.364517 5.98731 1.86917 23
663 1 -1.89376 8.6002 1.7383 22
664 1 -2.1266 10.6332 4.37626 23
665 1 -0.353496 7.61665 4.28276 19
666 1 -0.528398 6.32584 6.97722 23
667 1 -2.1445 8.86257 7.06198 24
668 1 -2.59304 11.1805 9.56773 15
669 1 -1.0831 7.79186 9.94965 19
670 1 -1.08789 3.98553 13.0738 15
671 1 -2.5421 9.34228 12.1506 10
672 1 -7.32384 13.7311 -0.822301 15
673 1 -0.4021 14.0333 -0.496698 15
674 1 -0.132657 11.4461 2.007 25
675 1 -1.95954 14.6032 2.19528 16
676 1 -0.234184 13.6187 4.49164 17
677 1 -0.30501 11.7038 7.14614 20
678 1 -1.98713 14.779 6.12834 10
679 1 -0.130913 6.85099 12.522 13
680 2 -13.922 0.49754 4.03323 18
681 2 -13.6964 2.17948 6.53306 14
682 2 -13.8538 6.21519 -1.2416 19
683 2 -13.4591 2.09762 0.983112 18
684 2 -11.767 -4.68051 9.00545 12
685 2 -10.2176 0.36267 9.21576 13
686 2 -13.845 7.97 1.83784 11
687 2 -12.7683 9.33489 -0.446171 13
688 2 -10.3302 0.325334 3.90971 22
689 2 -12.3855 3.28822 4.01161 19
690 2 -12.258 5.08961 0.939208 19
691 2 -10.4234 1.97723 1.05719 25
692 2 -8.99512 3.05983 11.0481 11
693 2 -10.1795 6.56616 9.04218 15
694 2 -12.1972 5.22563 6.60917 18
695 2 -10.9317 2.50839 6.83537 21
696 2 -6.73869 2.77276 13.2596 10
697 2 -10.5291 5.86598 3.61098 21
698 2 -12.7062 10.0072 4.80702 12
699 2 -11.4256 10.3674 2.01564 16
700 2 -10.3465 7.60834 1.02729 21
701 2 -8.76287 9.08207 3.67262 21
702 2 -12.701 7.20397 4.43196 14
703 2 -10.1685 12.3509 3.69489 15
704 2 -7.2486 0.447744 4.10352 22
705 2 -8.60747 3.1324 4.18554 21
706 2 -8.78964 4.44761 0.990991 22
707 2 -7.14126 2.21551 1.32227 22
708 2 -7.04002 0.505576 9.65484 20
709 2 -9.27237 3.81406 8.7162 17
710 2 -8.79597 5.38449 6.50979 23
711 2 -7.02257 2.40738 6.83325 22
712 2 -4.36545 -2.47246 11.8179 17
713 2 -6.8445 8.33296 11.7284 13
714 2 -3.96655 1.86355 12.2421 14
715 2 -7.23863 6.077 3.80482 22
716 2 -8.67594 10.7146 0.898204 23
717 2 -11.0396 12.0816 -0.146117 13
718 2 -7.09451 7.67216 1.55459 22
719 2 -6.88229 6.2993 8.96372 22
720 2 -11.8411 9.20618 8.25848 9
721 2 -10.3669 8.19033 5.91494 22
722 2 -6.93379 7.87264 6.32273 22
723 2 -6.88442 12.1642 8.25323 11
724 2 -5.69956 14.1538 3.55357 15
725 2 -8.99249 14.5024 2.6245 11
726 2 -8.51082 10.4616 6.34501 18
727 2 -7.00806 11.9366 3.95899 17
728 2 -3.60575 0.334793 4.03369 21
729 2 -5.08541 3.45799 3.84841 22
730 2 -5.23608 4.94742 1.02235 23
731 2 -3.59004 1.98671 1.42442 23
732 2 -3.82255 0.366649 9.4328 22
733 2 -5.66241 3.53007 9.55983 19
734 2 -5.74179 4.69343 6.49678 23
735 2 -4.27484 1.77568 6.4947 20
736 2 -6.91257 -3.45441 11.7685 15
737 2 -8.76461 8.86121 8.52673 17
738 2 -4.03262 8.94658 13.3635 8
739 2 -1.83319 -1.03921 11.7616 18
740 2 -3.66274 6.18063 4.04871 20
741 2 -5.43419 8.78649 3.63442 23
742 2 -5.14182 10.6261 1.18071 21
743 2 -3.50656 7.64736 1.09251 23
744 2 -3.82068 6.46975 8.99852 20
745 2 -5.91955 9.63211 8.84258 21
746 2 -5.29929 10.9154 5.82853 24
747 2 -3.88675 7.94332 6.68768 21
748 2 -8.62767 5.74805 12.3029 10
749 2 -3.91494 10.1939 10.6805 13
750 2 -3.47829 11.7752 3.50363 23
751 2 -3.29011 13.6758 1.18479 16
752 2 -1.90532 14.7507 -1.53738 14
753 2 -3.93678 12.1939 8.2863 19
754 2 -3.81849 14.1543 6.40396 11
755 2 -0.441023 -0.250525 4.4995 21
756 2 -1.79744 2.95922 4.36741 21
757 2 -2.09739 4.91856 1.85963 20
758 2 -0.352009 2.05539 1.35341 25
759 2 -0.421396 0.266896 9.38499 25
760 2 -2.50878 3.43151 9.56847 19
761 2 -2.26196 5.00946 7.0025 20
762 2 -0.23423 1.80931 6.6737 21
763 2 7.18294 1.42028 12.5571 14
764 2 -5.61284 6.46529 13.7473 9
765 2 -2.76632 5.00376 13.3153 10
766 2 -1.11506 2.1932 12.0093 17
767 2 -0.528496 5.4137 4.16622 22
768 2 -1.97596 8.61222 3.84596 22
769 2 -1.8088 10.501 1.25179 21
770 2 -0.240487 7.9491 1.40519 23
771 2 -0.361276 6.0095 9.2208 22
772 2 -2.26931 9.15017 9.15748 22
773 2 -1.99884 10.6795 6.48442 21
774 2 -0.649208 7.93031 6.39329 25
775 2 9.65087 6.89955 12.7197 10
776 2 -1.78309 7.58958 11.8765 16
777 2 0.622401 3.46082 13.9654 8
778 2 -0.278981 11.6696 3.95952 21
779 2 -2.12063 14.9618 4.13544 13
780 2 -6.32685 13.3872 0.721918 18
781 2 -0.20121 14.8569 1.61651 13
782 2 -0.788135 11.8886 9.29109 12
783 2 -0.866448 13.2906 6.32903 15
784 1 1.2221 -12.8427 -5.44751 21
785 1 -0.14271 -14.612 -8.30778 10
786 1 0.965033 -14.8617 -2.73296 17
787 1 1.69998 -8.35162 -13.3423 11
788 1 0.507876 -6.84979 -10.8112 23
789 1 2.56949 -10.2485 -11.3895 12
790 1 2.46152 -11.9988 -8.41895 15
791 1 0.813508 -8.78756 -8.22768 23
792 1 0.844846 -6.85374 -5.75978 23
793 1 2.6596 -9.77925 -5.9523 22
794 1 2.5811 -11.6059 -3.08431 24
795 1 1.07132 -8.77009 -3.0149 22
796 1 5.6826 -7.17158 -13.4631 9
797 1 0.913426 -3.19021 -14.2576 14
798 1 1.49568 -1.14867 -10.9598 21
799 1 2.37577 -4.30716 -10.954 23
800 1 2.84585 -6.15734 -8.53785 20
801 1 1.12256 -3.10849 -8.07851 25
802 1 0.790031 -0.991711 -5.82874 23
803 1 2.54655 -3.93562 -5.88978 22
804 1 2.718 -5.76779 -3.24255 22
805 1 1.18179 -2.75207 -3.20281 23
806 1 4.49552 -12.305 -6.19553 17
807 1 4.11825 -14.3597 -3.56516 12
808 1 3.81958 -7.55158 -11.3589 20
809 1 6.16597 -9.45281 -11.1673 14
810 1 6.09155 -11.453 -8.75951 12
811 1 3.93695 -9.02321 -8.36751 24
812 1 4.46721 -6.99118 -5.86718 22
813 1 6.07085 -9.56734 -5.66978 25
814 1 6.18726 -11.7215 -2.97351 19
815 1 4.2855 -8.70051 -3.29511 21
816 1 7.61853 -6.81275 -11.1636 16
817 1 4.2895 -3.1689 -13.7909 14
818 1 4.66679 -1.34844 -11.1943 22
819 1 6.28902 -4.15793 -11.3453 17
820 1 6.11058 -5.8312 -8.51089 23
821 1 4.73776 -3.31353 -8.47642 22
822 1 4.34715 -1.12877 -5.88939 22
823 1 5.96287 -3.67299 -5.78504 23
824 1 6.22071 -5.89425 -3.02894 21
825 1 4.31483 -3.07158 -3.08613 21
826 1 7.91218 -11.8473 -6.11954 15
827 1 11.2882 -6.26646 -11.5046 10
828 1 7.49166 -8.65794 -8.00171 19
829 1 7.77204 -6.55166 -5.74462 23
830 1 11.1541 -6.19857 -5.80233 20
831 1 9.61826 -11.4012 -3.39687 14
832 1 7.81731 -8.8773 -3.32494 24
833 1 9.45957 -4.07788 -10.8164 19
834 1 7.91955 -1.15546 -11.3417 20
835 1 10.3568 -1.28205 -13.307 9
836 1 9.34671 -5.98831 -8.25801 23
837 1 7.78676 -3.05122 -8.34704 23
838 1 7.74743 -0.864814 -5.71789 24
839 1 9.51489 -3.61509 -5.74779 23
840 1 9.70177 -6.23908 -3.24726 24
841 1 7.71366 -2.97012 -3.01113 25
842 1 9.67721 -8.87512 -6.04264 20
843 1 11.6281 -11.6978 -5.72003 7
844 1 11.3339 -9.30442 -3.29728 15
845 1 12.5062 -2.85422 -11.0847 11
846 1 12.2521 -7.21245 -8.30639 9
847 1 12.7332 -1.30662 -7.9725 13
848 1 10.9111 -1.00582 -5.94793 22
849 1 11.6865 -4.10446 -8.27488 18
850 1 13.0857 -3.67238 -5.9607 17
851 1 11.3884 -3.18347 -3.10408 24
852 1 13.0774 1.55936 -5.95975 17
853 1 14.5113 -3.27916 -2.96993 12
854 2 0.808009 -12.7735 -8.60711 13
855 2 2.43569 -9.82151 -9.29533 21
856 2 2.64324 -15.5791 1.66215 15
857 2 1.51249 -13.0778 -3.50454 20