ITEM: TIMESTEP
131000
ITEM: NUMBER OF ATOMS
1500
ITEM: BOX BOUNDS pp pp pp
-30.0 30.0
-30.0 30.0
-30.0 30.0
ITEM: ATOMS id type x y z Coordination
1 1 -13.919 2.13496 -6.19834 15
2 1 -13.2788 -3.99714 -6.14031 16
3 1 -13.426 -5.67702 -3.6225 16
4 1 -15.2098 -2.91453 -3.62955 12
5 1 -12.5357 -7.49413 -5.88157 11
6 1 -11.1675 -10.2942 -7.84099 10
7 1 -10.3937 -10.0751 -5.27766 17
8 1 -11.7104 -8.09749 -2.72622 17
9 1 -13.5753 0.303343 -8.88046 12
10 1 -10.2536 -4.47917 -10.3498 11
11 1 -10.6694 -5.31664 -7.7288 18
12 1 -12.1558 -2.471 -8.8169 15
13 1 -12.5976 -0.633141 -5.68849 19
14 1 -10.5911 -2.88833 -5.39054 24
15 1 -10.195 -5.4293 -3.36931 22
16 1 -12.4055 -2.39864 -3.50912 21
17 1 -10.9064 -11.7276 -3.50529 11
18 1 -9.51788 -7.71625 -8.60051 15
19 1 -7.01526 -10.4457 -11.1376 9
20 1 -6.30319 -13.3758 -9.06114 11
21 1 -10.3597 -9.62681 -11.1464 5
22 1 -8.65684 -6.35406 -5.75436 21
23 1 -7.53291 -9.19423 -5.93288 22
24 1 -7.32368 -11.272 -3.60601 22
25 1 -8.91501 -8.49938 -2.94449 24
26 1 -4.47827 -5.9083 -13.122 12
27 1 -5.36724 -2.74482 -13.3105 15
28 1 -8.63686 -0.955526 -10.2436 18
29 1 -7.28115 -4.14835 -11.2057 17
30 1 -7.50782 -5.58325 -8.74809 19
31 1 -8.63091 -3.01763 -8.07926 24
32 1 -8.85425 -0.486198 -5.87753 20
33 1 -7.05921 -2.95725 -5.67848 24
34 1 -7.30959 -5.39397 -3.10861 25
35 1 -8.79059 -2.38076 -3.16147 23
36 1 -5.90142 -12.4817 -6.31265 18
37 1 -5.978 -14.111 -3.17007 10
38 1 -5.61821 -7.10843 -10.6406 16
39 1 -3.84194 -9.61885 -11.0543 11
40 1 -3.6229 -11.7527 -8.36998 15
41 1 -5.89793 -8.67484 -8.17412 20
42 1 -5.7538 -5.89971 -5.69899 23
43 1 -3.83337 -9.47408 -5.76426 24
44 1 -3.79115 -11.5341 -3.12121 23
45 1 -5.55829 -8.42518 -3.54759 20
46 1 -0.707095 -5.90578 -13.5064 16
47 1 -2.46929 -2.97863 -13.9307 15
48 1 -5.4115 -1.06409 -10.9411 23
49 1 -3.92375 -3.88033 -10.8763 24
50 1 -3.73376 -5.61399 -8.31873 20
51 1 -5.38726 -2.74235 -8.0702 26
52 1 -5.18566 -0.667306 -5.66456 23
53 1 -3.97168 -3.70609 -5.83634 22
54 1 -3.97201 -5.70462 -2.94608 23
55 1 -5.52342 -2.71649 -3.24208 22
56 1 -2.02263 -12.3432 -5.88497 24
57 1 -0.848462 -16.2352 -5.94678 7
58 1 -2.60176 -14.8263 -3.18493 16
59 1 -0.384946 -9.69838 -11.2261 15
60 1 -2.13959 -6.73742 -10.866 18
61 1 -0.448124 -11.541 -8.72966 17
62 1 -3.24126 -14.8633 -8.485 8
63 1 -2.04193 -8.80901 -8.71069 20
64 1 -2.23025 -6.67892 -5.90766 20
65 1 -0.516952 -9.58081 -5.85911 22
66 1 -0.465295 -11.5986 -3.14363 21
67 1 -2.21872 -8.52153 -3.18796 23
68 1 2.6181 -6.14721 -13.9275 13
69 1 3.4342 5.48549 -14.0599 13
70 1 -1.80269 -1.07316 -11.2618 22
71 1 -0.347236 -3.84435 -11.2825 22
72 1 -0.495933 -5.65515 -8.62357 21
73 1 -2.09059 -2.88498 -8.22684 25
74 1 -2.16438 -0.637845 -5.58729 23
75 1 -0.357547 -3.91139 -5.75799 24
76 1 -0.58534 -5.83492 -3.22061 24
77 1 -2.34246 -3.16687 -3.3804 22
78 2 -12.6093 -5.71301 -6.63216 12
79 2 -7.61921 -13.2279 -7.50413 10
80 2 -15.3363 -2.62434 -1.70034 14
81 2 -14.5011 -1.11303 -3.82922 16
82 2 -13.631 -3.92557 -4.18185 18
83 2 -10.6036 -9.23669 -9.34642 9
84 2 -9.39502 -5.97317 -9.15553 16
85 2 -9.35358 -11.4585 -4.38801 16
86 2 -9.46097 -10.6796 -7.00022 15
87 2 -12.3947 -7.08935 -3.99244 17
88 2 -6.76463 -13.1556 -4.63259 13
89 2 -10.2747 -5.02544 -5.72487 24
90 2 -12.3204 -2.46746 -6.64787 20
91 2 -12.0311 -0.683018 -9.11495 12
92 2 -10.6554 -3.50254 -8.58204 18
93 2 -10.4923 -5.45931 -1.16355 22
94 2 -12.1979 -2.33837 -1.13682 25
95 2 -11.9692 -0.622312 -3.56952 22
96 2 -10.5596 -3.30273 -3.31799 22
97 2 -7.1554 -11.0178 -6.22364 18
98 2 -10.239 -11.4019 -1.46842 15
99 2 -8.13492 -7.84448 -7.12589 22
100 2 -10.8639 -8.56969 -6.65778 16
101 2 -8.58914 -9.68579 -11.62 7
102 2 -7.26615 -12.0026 -1.44834 17
103 2 -8.68663 -8.22464 -0.895045 19
104 2 -8.75913 -6.62081 -3.66034 21
105 2 -7.07839 -9.53871 -3.80625 20
106 2 -6.06882 -5.69681 -11.8729 12
107 2 -8.80569 -3.10471 -10.5227 13
108 2 -7.28573 -4.95473 -6.59344 20
109 2 -8.86271 -2.44003 -5.82377 22
110 2 -10.2575 1.94505 -9.165 19
111 2 -6.76486 -3.82347 -8.83797 25
112 2 -7.21331 -5.65726 -1.01027 23
113 2 -8.74195 -2.48902 -1.17667 23
114 2 -9.00399 -0.496506 -3.84 23
115 2 -7.34671 -3.5862 -3.64454 23
116 2 -7.07826 -11.6613 -9.74502 12
117 2 -5.91558 -14.5908 -1.14354 13
118 2 -4.08967 -13.768 -3.1062 15
119 2 -1.96135 -15.4408 -7.40593 8
120 2 -5.92191 -8.97731 -10.4717 12
121 2 -4.20753 -11.3633 -6.49779 18
122 2 -5.70495 -8.81915 -6.16919 18
123 2 -5.58527 -6.64729 -8.77852 19
124 2 -3.31268 -10.2083 -9.07569 16
125 2 -3.85616 -11.4501 -1.0059 18
126 2 -5.63994 -8.57946 -1.3527 24
127 2 -5.90515 -6.59222 -4.05988 24
128 2 -3.89365 -9.34248 -3.57105 19
129 2 -3.80317 -6.67282 -11.627 16
130 2 -5.64045 -3.17413 -11.3636 18
131 2 -5.50682 -0.792892 -13.954 14
132 2 -4.16351 -3.99248 -13.8971 12
133 2 -3.8882 -5.6962 -6.2873 21
134 2 -5.37655 -2.50504 -6.02953 23
135 2 -5.49129 -0.733453 -8.9382 21
136 2 -3.85097 -3.81696 -8.6352 18
137 2 -3.89109 -5.85095 -1.13916 24
138 2 -5.23881 -2.8105 -0.984236 23
139 2 -5.16504 -0.812186 -3.39054 24
140 2 -3.9791 -3.88019 -3.6901 22
141 2 -1.89454 -13.0363 -8.61761 13
142 2 -4.56317 -13.5604 -8.3916 11
143 2 -2.5607 -15.5914 -1.36945 11
144 2 -1.98255 -12.2596 -3.99993 18
145 2 -1.83725 -15.3493 -4.71059 12
146 2 -2.07964 -8.84436 -11.0066 14
147 2 0.737239 -6.77924 -14.0119 11
148 2 -0.534088 -11.312 -6.56822 23
149 2 -2.10757 -8.56843 -6.13574 19
150 2 -2.04941 -6.55916 -8.99487 22
151 2 0.0467693 -9.86236 -9.193 19
152 2 -0.873213 -11.8185 -1.20127 19
153 2 -2.14362 -8.46253 -1.10362 21
154 2 -2.20094 -6.53305 -3.80478 23
155 2 -0.557263 -9.6162 -3.72027 23
156 2 -0.479189 -5.84066 -11.6007 18
157 2 -2.20182 -3.19585 -11.4613 23
158 2 -2.4457 -1.28771 -13.9961 15
159 2 -0.715459 -3.85485 -13.421 14
160 2 -0.476991 -5.82655 -6.519 22
161 2 -2.04352 -2.64518 -5.96895 22
162 2 -2.15067 -0.915437 -9.08287 22
163 2 -0.558443 -3.67166 -8.98236 23
164 2 -0.245124 -5.80585 -1.19196 24
165 2 -2.24444 -2.86439 -1.33769 22
166 2 -2.06342 -0.234249 -3.6951 19
167 2 -0.279806 -4.0326 -3.49468 18
168 1 -8.65536 -12.7302 -5.9401 13
169 1 -7.77732 -10.7074 -8.17292 19
170 1 -15.8008 -0.875348 -0.452982 14
171 1 -13.9499 -3.39842 -0.774439 20
172 1 -13.8586 -5.81943 2.22034 14
173 1 -15.9852 -3.26946 1.96985 12
174 1 -15.3272 -1.06474 4.5594 12
175 1 -15.009 -3.98118 5.03905 11
176 1 -13.0096 -6.88722 4.81835 14
177 1 -12.293 -6.14475 -0.533985 18
178 1 -11.0628 -9.75551 -0.291977 16
179 1 -10.1326 -11.2521 2.37064 15
180 1 -11.68 -7.83363 2.25665 16
181 1 -10.7037 -7.6985 7.95221 15
182 1 -10.3761 -9.47247 4.74832 17
183 1 -8.3796 -8.34212 7.05833 19
184 1 -12.3627 -0.495252 -0.649056 23
185 1 -10.5178 -3.31196 -0.792508 21
186 1 -10.3681 -4.94219 2.19263 18
187 1 -12.2729 -2.81943 1.72197 18
188 1 -12.1642 -0.869129 4.46569 21
189 1 -10.0014 -3.18084 4.58505 20
190 1 -9.13829 -4.32881 12.5493 8
191 1 -8.91822 -0.123487 9.71258 16
192 1 -9.19026 -6.45763 9.70851 15
193 1 -13.0685 -5.38207 7.99759 10
194 1 -8.91209 -12.5881 -0.780033 13
195 1 -8.96317 -12.1128 5.37337 13
196 1 -8.95761 -6.44596 -0.953977 21
197 1 -7.22586 -9.53853 -1.14613 19
198 1 -7.3079 -11.6557 2.43582 17
199 1 -8.63599 -8.62216 1.23418 20
200 1 -8.74408 -6.58591 4.12097 20
201 1 -7.05024 -9.26545 4.64233 20
202 1 -6.82906 -11.0685 7.66811 20
203 1 -10.1865 -10.7778 8.01042 13
204 1 -9.02312 -9.57371 10.5928 15
205 1 -6.35383 -11.3483 11.1671 14
206 1 -9.06533 -0.584524 -1.00443 25
207 1 -7.08288 -3.63941 -0.763685 22
208 1 -7.03052 -5.40022 1.82056 21
209 1 -8.76803 -2.20466 1.98939 24
210 1 -8.70252 -0.477293 4.84112 23
211 1 -6.98255 -3.33636 4.39193 23
212 1 -7.26555 -5.34016 7.21972 22
213 1 -8.78926 -2.22499 7.16142 23
214 1 -3.13408 0.703289 12.376 16
215 1 -7.29395 -2.92275 9.96885 19
216 1 -6.94276 -8.15143 12.2822 11
217 1 -10.2652 -3.51755 9.63539 14
218 1 -5.51402 -12.6408 -0.518383 19
219 1 -4.3082 -15.5593 -0.268504 12
220 1 -3.78085 -15.2971 5.1314 12
221 1 -5.61858 -12.4611 5.27963 19
222 1 -5.62688 -14.4276 2.64887 15
223 1 -5.70159 -6.70333 -0.408587 23
224 1 -3.87771 -9.57867 -0.808972 20
225 1 -4.28982 -11.4996 1.97407 19
226 1 -5.61521 -8.62602 2.23541 20
227 1 -5.35729 -6.55128 4.85297 23
228 1 -3.8378 -9.57497 4.8427 23
229 1 -5.41055 -13.5748 8.96491 14
230 1 -5.20986 -8.66584 7.25166 19
231 1 -8.62582 -12.5334 9.54183 11
232 1 -4.29866 -9.64018 10.2378 19
233 1 -4.32657 -9.86589 13.3231 11
234 1 -5.59961 -0.678597 -0.960933 21
235 1 -3.7403 -4.05166 -0.65401 23
236 1 -3.83358 -5.83488 1.98517 21
237 1 -5.05015 -2.45038 1.5197 19
238 1 -5.41755 -0.680244 4.49342 21
239 1 -3.78287 -3.33273 4.5613 22
240 1 -3.86229 -5.45862 7.49569 24
241 1 -5.43827 -2.48518 7.3913 23
242 1 -4.01527 -3.46303 10.2204 20
243 1 -2.51475 -6.41462 10.1539 18
244 1 -5.94858 -6.25921 9.61049 17
245 1 -3.89389 -6.64576 13.1928 12
246 1 -2.28342 -12.583 -0.213425 25
247 1 -0.740127 -16.0372 -1.07029 12
248 1 -2.25033 -14.4558 1.92621 16
249 1 -2.31333 -12.0455 4.67152 22
250 1 -1.07569 -14.4322 5.64342 16
251 1 -3.88126 -11.1018 7.89606 23
252 1 -2.76736 -12.6075 10.7247 14
253 1 -2.06804 -6.6177 -0.714536 22
254 1 -0.726602 -9.64256 -0.591759 24
255 1 -0.633085 -11.588 2.0856 22
256 1 -2.24527 -8.27327 1.95923 23
257 1 -2.40137 -6.70975 4.71886 23
258 1 -0.626885 -9.35403 4.66784 21
259 1 -0.801528 -11.5331 7.54831 20
260 1 -2.3946 -8.30939 7.52245 23
261 1 -0.633905 -3.89136 9.58632 21
262 1 -1.33211 -9.62589 10.0362 19
263 1 -2.12346 -15.0963 8.47699 11
264 1 -2.43743 -0.69008 -0.920403 22
265 1 -0.41353 -3.38213 -0.510568 23
266 1 -0.524637 -5.69196 2.23544 23
267 1 -2.0789 -2.77004 1.7922 21
268 1 -1.99477 -0.426406 4.98498 23
269 1 -0.609841 -3.41901 4.48154 20
270 1 -0.557227 -5.59522 7.15902 20
271 1 -2.41861 -2.69746 7.31868 21
272 1 -2.0434 -0.989131 10.3728 21
273 1 1.05822 -3.0701 12.6094 16
274 1 -2.04674 -8.82023 15.0776 10
275 1 -0.887572 -5.77844 13.2527 14
276 2 -13.4199 -5.09703 -1.70343 17
277 2 -10.424 -8.86502 -3.86725 19
278 2 -12.0763 -8.10264 -0.936753 15
279 2 -15.7828 -2.78534 3.92789 12
280 2 -15.567 -1.38585 1.47091 14
281 2 -14.3975 -4.20957 1.02424 15
282 2 -15.0119 -0.833558 6.54283 11
283 2 -13.9764 -4.32793 6.79019 11
284 2 -10.2147 -11.6615 4.12876 12
285 2 -11.7854 -8.25367 4.14756 16
286 2 -12.0082 -6.01221 1.83033 17
287 2 -10.6124 -9.28854 1.57021 15
288 2 -14.7211 -5.55447 4.04582 10
289 2 -10.5471 -9.32243 6.75735 15
290 2 -9.88073 -5.04341 4.32038 21
291 2 -11.8392 -2.73083 3.68431 23
292 2 -12.1232 -0.923159 1.45613 21
293 2 -10.545 -3.32633 1.17929 23
294 2 -12.0042 -6.47421 6.68391 15
295 2 -10.1147 -8.46407 9.49146 12
296 2 -12.1337 -0.773425 6.48422 19
297 2 -10.1822 -3.23939 6.49271 21
298 2 -9.69608 -11.1892 9.92228 10
299 2 -8.94935 -12.1757 1.33822 13
300 2 -7.47806 -11.6876 4.55843 18
301 2 -8.64193 -11.758 7.5954 16
302 2 -8.82324 -8.43973 4.57352 23
303 2 -8.82358 -5.95871 1.8283 20
304 2 -7.0666 -9.76082 2.04788 18
305 2 -6.93495 -12.6748 9.85355 13
306 2 -7.58153 -10.156 11.7969 13
307 2 -8.89722 -6.38179 7.09708 19
308 2 -6.87616 -9.40312 6.61435 21
309 2 -4.19156 -11.1986 11.2303 16
310 2 -7.03463 -5.57194 4.45082 20
311 2 -8.62904 -2.28543 4.06428 22
312 2 -9.03193 -0.371973 1.89476 20
313 2 -7.1621 -3.1947 1.22231 22
314 2 -8.9641 -2.06344 9.12256 19
315 2 -8.63182 1.39776 11.2041 10
316 2 -8.98228 -0.284841 6.606 21
317 2 -6.89035 -3.52656 6.52835 24
318 2 -9.80383 -4.87919 10.9174 10
319 2 -7.09254 -7.13863 10.797 14
320 2 -5.33338 -14.4602 4.53329 11
321 2 -5.84925 -12.7057 1.39873 19
322 2 -4.17469 -15.0714 1.62203 14
323 2 -5.4251 -12.4166 7.31977 18
324 2 -4.12486 -11.3299 4.02818 22
325 2 -5.5015 -8.20201 4.06084 21
326 2 -5.77052 -6.8255 1.53425 20
327 2 -3.75478 -9.36028 1.46292 23
328 2 -2.29453 -11.1827 8.9923 19
329 2 -5.82447 -10.3218 9.40337 20
330 2 -5.59908 -6.83278 6.99842 22
331 2 -3.57302 -9.54817 6.82605 24
332 2 -4.99991 -8.13814 13.0252 12
333 2 -2.59365 -10.1928 13.8203 10
334 2 -3.67994 -5.6976 4.16457 21
335 2 -5.44664 -2.41707 3.8899 23
336 2 -5.64629 -0.684913 1.7903 20
337 2 -3.55561 -3.96231 1.9305 21
338 2 -4.20982 -5.49049 9.67864 20
339 2 -5.46755 -2.41021 9.25998 25
340 2 -5.36677 -0.790736 6.63534 24
341 2 -4.07494 -3.68007 6.74719 22
342 2 -2.6083 -15.4344 6.73303 9
343 2 -2.5948 -7.02648 14.6912 9
344 2 -7.22485 -4.76785 9.23856 19
345 2 -0.608866 -3.86111 12.9889 13
346 2 -2.20817 -14.5113 4.15834 16
347 2 -2.41807 -12.4009 1.75499 20
348 2 -0.513529 -15.0578 1.36982 14
349 2 -1.6023 -12.7393 6.35602 20
350 2 -0.471059 -11.5016 4.05405 22
351 2 -2.39827 -8.46107 4.04434 24
352 2 -2.12698 -6.39864 1.3403 23
353 2 -0.787659 -9.40205 1.26514 22
354 2 -0.690012 -13.6562 8.60361 11
355 2 -3.05664 -8.49941 9.46875 20
356 2 -2.20162 -6.58371 6.74411 24
357 2 -0.915428 -9.77879 6.60969 22
358 2 0.93629 -6.39052 13.5679 12
359 2 -0.347473 -10.512 11.3236 14
360 2 -0.664753 -5.3244 4.13265 23
361 2 -2.23995 -2.27822 4.74273 24
362 2 -2.6886 -0.899951 1.17573 24
363 2 -0.422053 -3.43409 1.4068 21
364 2 -0.776529 -5.88627 9.28164 20
365 2 -2.25588 -2.83059 9.55257 22
366 2 -2.1437 -0.760064 7.20606 21
367 2 -0.665524 -3.65481 7.20591 20
368 2 -3.66574 -14.1414 9.57151 10
369 2 0.0568306 -9.40472 14.3584 10
370 2 -2.32349 -6.35058 12.051 17
371 2 2.50562 -3.95719 11.8718 17
372 1 -12.9603 3.65683 -8.24755 16
373 1 -15.6294 5.9916 -7.54539 8
374 1 -13.7486 0.399057 -2.98655 21
375 1 -15.2569 3.33699 -3.3738 12
376 1 -13.606 8.40543 -6.94414 11
377 1 -14.0577 6.27601 -4.03142 17
378 1 -11.5041 3.07363 -10.4634 13
379 1 -10.5493 0.344433 -8.1358 20
380 1 -13.172 6.18607 -9.90568 8
381 1 -12.497 5.5282 -5.89474 20
382 1 -10.8755 2.34585 -5.58162 23
383 1 -10.5573 0.401707 -3.34734 23
384 1 -12.1595 3.4047 -3.04156 22
385 1 -10.5229 5.48552 -8.3006 18
386 1 -10.6307 8.10195 -6.78748 14
387 1 -10.4452 6.08529 -3.20757 23
388 1 -11.8598 9.19507 -3.71122 16
389 1 -10.27 11.9084 -4.66567 14
390 1 -7.29278 -0.0396358 -13.3606 12
391 1 -8.91831 3.07765 -13.7273 10
392 1 -8.81619 4.93353 -11.1523 18
393 1 -7.23797 1.75214 -11.306 20
394 1 -6.90703 0.0559734 -8.03222 25
395 1 -8.72793 2.97022 -8.42191 21
396 1 -9.04586 4.83536 -5.7021 23
397 1 -7.25798 2.16604 -5.85962 22
398 1 -7.01874 0.0752336 -3.4338 23
399 1 -8.73555 3.08473 -3.17062 24
400 1 -7.05005 6.1278 -13.6007 12
401 1 -7.40132 8.3503 -11.3557 13
402 1 -7.1734 6.09529 -8.6045 21
403 1 -7.84405 10.198 -6.3798 19
404 1 -7.65906 13.1398 -6.18847 12
405 1 -7.13483 7.68092 -6.30034 21
406 1 -7.187 5.9468 -3.18987 24
407 1 -8.69655 8.89155 -3.38943 21
408 1 -4.51139 13.9222 -5.05872 11
409 1 -8.08903 14.4487 -3.69641 12
410 1 -6.96717 11.5559 -3.57362 22
411 1 -3.77663 -0.00841099 -13.7999 17
412 1 -5.69202 2.92799 -13.9246 16
413 1 -5.67126 4.7469 -11.2276 23
414 1 -3.94963 1.92215 -11.5812 21
415 1 -3.89422 0.296748 -8.46675 22
416 1 -5.31205 3.22869 -8.5069 23
417 1 -5.47249 5.13698 -5.96645 21
418 1 -3.89972 2.26275 -6.06526 22
419 1 -3.78024 0.393475 -3.28526 23
420 1 -5.22213 3.0876 -3.3734 22
421 1 -3.32228 6.14614 -14.0622 16
422 1 -5.09432 10.7313 -11.3685 13
423 1 -4.02467 7.35294 -11.1065 20
424 1 -3.87923 5.84064 -8.6323 21
425 1 -5.69017 8.88758 -8.60575 20
426 1 -4.99817 10.8272 -6.2856 22
427 1 -3.77633 8.11051 -5.91997 21
428 1 -3.88787 6.09141 -3.42067 22
429 1 -5.49265 9.03085 -3.31886 22
430 1 -3.29173 11.5912 -9.0245 15
431 1 -6.16482 12.5424 -8.50114 11
432 1 -3.24612 11.7284 -3.14956 24
433 1 -10.3184 13.9497 -1.10575 11
434 1 -0.5618 0.0349634 -13.9257 17
435 1 -2.1186 2.74102 -14.0714 15
436 1 -2.19303 4.646 -11.5608 23
437 1 -0.422288 1.95122 -11.3849 22
438 1 -0.761283 0.0932641 -8.21925 23
439 1 -1.91407 2.94059 -8.64906 23
440 1 -2.1491 5.00834 -5.87812 21
441 1 -0.33282 1.92807 -5.89178 25
442 1 -0.147415 0.11621 -3.29859 21
443 1 -1.91881 3.13509 -3.21081 24
444 1 -0.152748 5.62612 -13.7839 15
445 1 -4.86384 8.63623 -13.9052 11
446 1 -1.44497 9.25097 -14.0019 10
447 1 -0.452194 7.39265 -11.4246 19
448 1 -0.508495 5.49435 -8.75134 22
449 1 -1.63675 8.62722 -9.20415 20
450 1 -1.86522 10.7731 -5.88849 22
451 1 -0.3566 7.58795 -5.81312 23
452 1 -0.20294 5.76034 -3.42252 22
453 1 -1.96571 8.66398 -3.30725 24
454 1 0.152454 11.1139 -8.74501 17
455 1 -0.273592 13.2778 -6.27264 15
456 1 -0.258919 11.973 -3.19451 22
457 1 -1.28138 14.6012 -3.42289 12
458 2 -13.9433 0.368525 -6.92205 15
459 2 -12.9296 2.00946 -9.33474 11
460 2 -14.1916 0.157094 -0.907682 17
461 2 -15.0599 3.48833 -1.55047 14
462 2 -14.1441 5.19537 -8.55268 13
463 2 -13.8147 2.13183 -4.18947 18
464 2 -13.4449 7.51544 -8.4536 12
465 2 -15.5526 5.35947 -3.27407 11
466 2 -14.5698 6.83539 -6.00714 11
467 2 -8.7248 -1.04339 -8.2812 20
468 2 -10.7045 0.396835 -6.29633 22
469 2 -12.5137 3.57386 -6.18256 20
470 2 -11.6171 4.86789 -9.48588 15
471 2 -6.93758 2.07884 -8.94846 20
472 2 -10.607 0.500716 -1.15653 22
473 2 -12.2958 3.55659 -1.00973 22
474 2 -12.5218 5.04819 -3.90694 22
475 2 -10.5556 2.61786 -3.68336 21
476 2 -10.5777 6.25263 -6.48117 18
477 2 -12.0963 8.60486 -5.53639 15
478 2 -7.22697 7.87328 -9.51025 17
479 2 -10.2609 5.72369 -1.09453 19
480 2 -13.4242 7.73117 -2.96437 14
481 2 -9.97843 14.0467 0.782839 11
482 2 -10.4738 8.1145 -2.87092 20
483 2 -11.4123 11.2294 -3.12884 12
484 2 -7.34149 -0.377213 -11.3229 16
485 2 -7.28067 5.91465 -11.7943 17
486 2 -9.68909 3.5377 -11.9489 11
487 2 -6.94722 -0.0640253 -6.10776 22
488 2 -8.96058 3.07174 -6.41276 21
489 2 -5.45524 7.02753 -13.6506 11
490 2 -8.7373 5.00069 -9.29659 18
491 2 -7.18272 0.286847 -1.28626 23
492 2 -8.74141 3.07264 -0.776607 19
493 2 -8.94864 4.81211 -3.59504 20
494 2 -7.0095 2.13695 -3.72589 24
495 2 -7.5988 1.70902 -13.3811 10
496 2 -7.37076 5.84659 -6.56154 22
497 2 -9.05457 8.62515 -6.29248 17
498 2 -9.24176 13.4469 -5.09486 11
499 2 -3.33129 9.83474 -13.3785 12
500 2 -7.12811 5.97843 -1.26382 24
501 2 -8.24778 8.8603 -1.36095 23
502 2 -8.65192 14.5584 -1.80748 11
503 2 -7.07815 7.90736 -3.76253 23
504 2 -8.50537 10.6959 -4.51613 23
505 2 -6.84926 11.8699 -1.69317 21
506 2 -2.98739 13.7801 -3.81248 14
507 2 -3.844 -0.231234 -11.5023 22
508 2 -5.71135 2.79524 -11.8257 22
509 2 -7.86781 4.39149 -14.1618 11
510 2 -3.90106 2.22359 -13.7892 16
511 2 -3.68296 0.192722 -6.4133 24
512 2 -5.73488 3.21109 -6.3777 23
513 2 -5.59519 5.05518 -9.11686 21
514 2 -3.74409 2.15571 -8.70459 20
515 2 -4.04845 0.324494 -1.23962 22
516 2 -5.45862 2.88118 -1.55526 24
517 2 -5.57365 5.14513 -3.7405 20
518 2 -3.59977 2.06013 -4.19067 21
519 2 -3.78336 5.67941 -11.9289 23
520 2 -2.11582 8.04649 -11.1367 21
521 2 -3.82216 6.06007 -6.64773 24
522 2 -5.74741 8.8539 -6.71456 21
523 2 -5.74469 8.88433 -11.6826 15
524 2 -4.01861 7.68032 -9.13724 21
525 2 -3.93129 5.78747 -1.31052 22
526 2 -5.20248 9.09734 -1.44304 23
527 2 -4.82918 10.8557 -4.11514 23
528 2 -3.92714 7.94493 -4.03738 23
529 2 -5.71572 12.8419 -6.10514 16
530 2 -3.40285 11.7869 -1.02524 19
531 2 -6.33477 13.8993 -4.15296 14
532 2 0.0235819 13.5737 -4.39062 19
533 2 -0.435207 -0.0118629 -11.8243 21
534 2 -2.26544 2.58415 -11.3892 20
535 2 -1.99016 4.99569 -14.0112 13
536 2 -0.400887 1.91937 -13.7291 17
537 2 -0.504615 -0.0358657 -6.44395 23
538 2 -1.97716 2.98536 -6.44762 24
539 2 -2.31831 4.64324 -9.42143 25
540 2 -0.251349 2.32575 -9.33788 22
541 2 -0.547246 0.0806298 -1.05294 24
542 2 -2.04798 3.01194 -1.27197 23
543 2 -2.14961 4.86766 -3.91337 23
544 2 -0.381275 2.25011 -3.8595 23
545 2 -0.0659158 5.43728 -11.6365 21
546 2 -0.671558 7.53303 -14.1593 11
547 2 -0.608381 5.60321 -6.80288 23
548 2 -1.96675 8.81702 -5.91013 19
549 2 -0.568195 10.4347 -12.6786 11
550 2 -0.110026 7.30734 -9.22267 18
551 2 -0.495894 5.80372 -1.43292 25
552 2 -2.10309 8.86601 -1.23847 23
553 2 -1.68172 10.6161 -3.77388 22
554 2 0.261241 7.50833 -3.89032 20
555 2 -5.40804 10.8874 -9.16844 16
556 2 -3.55143 12.0022 -11.3013 9
557 2 -1.57519 10.7358 -9.48143 17
558 2 -0.498806 11.5746 -1.35528 23
559 2 -3.23123 11.3227 -6.99145 19
560 2 1.36703 14.3144 -6.75887 9
561 1 -15.617 5.46517 -1.34755 11
562 1 -14.2747 2.2678 -0.351992 16
563 1 -14.001 -0.276345 2.06064 18
564 1 -13.8322 1.92256 4.66492 16
565 1 -12.4552 3.50848 7.28399 15
566 1 -13.6966 0.286329 7.24503 12
567 1 -12.1635 -2.81297 6.90606 17
568 1 -13.6655 8.10563 -1.11639 14
569 1 -13.9567 6.21179 1.50568 13
570 1 -13.6966 8.20818 4.17276 13
571 1 -10.3919 6.24199 6.30495 20
572 1 -12.236 5.03109 0.0386113 22
573 1 -10.5409 2.37189 -0.491438 20
574 1 -10.6885 0.355714 1.90884 23
575 1 -12.351 2.72017 2.22467 18
576 1 -12.0863 4.90347 4.22827 19
577 1 -10.2723 2.22438 4.40939 20
578 1 -10.7474 0.811014 7.25702 20
579 1 -9.99278 2.69155 10.5749 9
580 1 -11.5437 8.69379 8.43499 14
581 1 -6.87065 2.48669 10.0021 20
582 1 -10.4905 -5.22725 6.40056 21
583 1 -11.282 10.4616 -1.54794 18
584 1 -9.95407 7.81244 -0.800639 22
585 1 -10.3159 6.56692 2.15935 21
586 1 -11.9592 9.00398 1.37234 19
587 1 -12.0597 11.4143 4.16544 13
588 1 -10.5886 8.36471 4.86835 24
589 1 -13.6189 6.67021 6.89134 11
590 1 -13.3141 9.99703 6.78377 12
591 1 -10.2675 11.6503 6.89455 14
592 1 -10.1698 12.1961 1.17256 16
593 1 -8.61075 4.92599 -0.287024 24
594 1 -6.90907 2.07909 -0.851105 20
595 1 -7.3872 0.329791 1.81351 23
596 1 -8.48796 3.1216 1.82379 21
597 1 -8.76471 5.1512 4.4202 20
598 1 -6.94491 2.50629 4.589 21
599 1 -6.91212 0.520322 7.07432 20
600 1 -8.87404 3.07954 7.08478 21
601 1 -8.97925 5.69273 8.49271 15
602 1 -5.5484 -0.394731 10.1595 21
603 1 -6.05311 -2.54429 12.8079 10
604 1 -7.52731 1.04615 12.7399 10
605 1 -8.38635 10.6481 -0.84701 22
606 1 -6.77406 8.00368 -0.718857 24
607 1 -6.98269 6.08256 1.9899 24
608 1 -8.47356 9.11707 2.17705 23
609 1 -9.01686 11.4757 3.95512 17
610 1 -7.26398 8.10975 4.52935 23
611 1 -6.84536 5.94747 7.26 22
612 1 -7.20758 11.9524 7.56577 14
613 1 -8.53022 7.44914 10.7742 10
614 1 -8.16101 10.9182 12.4157 6
615 1 -8.541 14.64 1.9579 14
616 1 -7.11342 11.8807 1.70837 23
617 1 -5.09129 13.3406 9.87414 10
618 1 -8.65329 8.8574 7.51154 21
619 1 -5.32573 4.76644 -0.811105 21
620 1 -3.51326 2.01157 -0.489821 23
621 1 -3.91226 0.0598371 2.10925 21
622 1 -5.22637 3.15572 1.9591 22
623 1 -5.23721 5.14233 4.69048 24
624 1 -3.68802 2.11239 4.94889 25
625 1 -3.83592 0.0728685 7.45599 24
626 1 -5.18875 3.2551 7.61692 21
627 1 -5.72961 5.56869 10.1364 20
628 1 -3.61052 2.84203 9.96597 20
629 1 -2.40211 -3.00554 12.9471 14
630 1 -0.463835 0.156807 12.8646 15
631 1 -5.25364 11.1016 -0.751447 21
632 1 -3.73852 7.91107 -0.759083 25
633 1 -3.71826 5.91915 2.01857 24
634 1 -5.27316 8.95989 1.9114 24
635 1 -5.43842 10.7767 4.88718 21
636 1 -3.76593 8.05472 4.76684 24
637 1 -3.59099 6.04529 7.60314 23
638 1 -5.66477 8.87968 7.14176 20
639 1 -6.92822 10.6745 10.0563 16
640 1 -4.21162 8.37809 9.88908 18
641 1 -5.02767 3.9556 12.5276 13
642 1 -4.79571 10.5698 12.3976 11
643 1 -3.40873 14.0343 -0.92919 15
644 1 -3.65841 11.7758 2.05846 23
645 1 -7.12135 13.6579 4.20303 14
646 1 -4.0238 13.7495 4.32332 15
647 1 -3.95803 11.8831 7.13906 19
648 1 -2.10863 5.01202 -1.01232 21
649 1 -0.50797 1.92553 -0.537446 26
650 1 -0.916507 0.22085 2.25605 23
651 1 -1.9135 2.97423 2.14707 23
652 1 -2.29179 5.05983 4.85954 23
653 1 -0.262536 2.57325 4.65997 22
654 1 -0.504981 0.209197 7.30174 23
655 1 -2.0185 2.98656 7.51987 25
656 1 -2.22129 4.93752 10.5319 23
657 1 -0.289676 1.91317 9.93886 20
658 1 2.44929 0.357727 12.8295 14
659 1 -3.83772 7.11433 12.1983 13
660 1 -1.86709 10.7281 -0.574537 23
661 1 -0.379445 7.63688 -0.804874 21
662 1 -0.527018 5.7008 2.05672 24
663 1 -1.94323 8.58716 2.04123 24
664 1 -2.17791 10.8497 4.9391 22
665 1 0.0822102 7.66787 4.9471 22
666 1 -0.730708 5.88524 7.44858 23
667 1 -2.35096 8.80882 7.51105 23
668 1 -1.55931 12.7269 11.0915 9
669 1 -0.969406 7.71502 10.488 20
670 1 -2.14931 3.53157 13.7175 11
671 1 -2.42981 10.3512 10.6388 17
672 1 -6.89974 13.9183 -0.923387 16
673 1 -0.120409 13.5808 -0.431453 20
674 1 -0.248872 11.2719 2.37159 22
675 1 -1.77061 14.8947 1.85622 13
676 1 -0.874322 13.8385 4.45119 14
677 1 -0.493074 11.715 7.57157 20
678 1 -2.16904 14.1257 8.07102 9
679 1 0.0428366 6.11852 12.8979 10
680 2 -13.8699 0.133785 3.94958 17
681 2 -13.7489 2.09526 6.88112 10
682 2 -14.1249 6.48243 -0.249894 13
683 2 -13.6904 1.84435 1.29029 18
684 2 -11.6729 -3.9304 8.43716 14
685 2 -10.3557 0.772736 9.16959 15
686 2 -13.2212 7.62225 2.36565 16
687 2 -12.1031 8.94666 -0.505672 18
688 2 -10.5641 0.35763 3.73365 24
689 2 -12.3088 2.74782 4.20401 19
690 2 -12.5855 4.90924 2.08008 15
691 2 -10.4274 2.32235 1.25717 22
692 2 -6.22708 2.50232 11.9271 14
693 2 -9.94431 7.43018 9.52329 13
694 2 -12.0561 5.3559 7.11814 17
695 2 -10.7672 2.69775 6.52807 20
696 2 -6.51698 -0.836759 12.1821 14
697 2 -10.4553 6.26576 4.33003 20
698 2 -12.3236 9.54619 4.80491 18
699 2 -11.9766 10.9183 2.06513 16
700 2 -9.79668 8.35025 1.36615 21
701 2 -9.09378 9.38489 3.94988 22
702 2 -13.1741 6.51315 4.95731 16
703 2 -10.4647 11.6778 5.15203 14
704 2 -6.84105 0.524345 4.73331 21
705 2 -8.61145 3.34975 4.06847 23
706 2 -8.82351 5.23972 1.75564 20
707 2 -6.93703 2.25142 1.45848 22
708 2 -6.55784 0.801183 9.09362 23
709 2 -9.58458 3.59309 8.76148 17
710 2 -8.69779 5.44313 6.51951 22
711 2 -7.05884 2.5294 6.9348 20
712 2 -4.31125 -3.34214 12.1129 15
713 2 -6.46712 10.9949 12.2244 9
714 2 -1.78484 1.37464 13.8601 8
715 2 -6.80059 6.20794 4.03383 23
716 2 -8.73166 10.8496 1.23262 23
717 2 -10.18 11.758 -0.85406 17
718 2 -7.00852 7.88705 1.50889 23
719 2 -7.35456 6.36561 9.39729 18
720 2 -13.2777 8.453 7.84382 11
721 2 -10.3442 8.40945 6.69452 21
722 2 -7.33626 7.95895 6.39827 22
723 2 -6.61944 12.4239 9.24186 12
724 2 -5.69473 14.4015 3.45349 13
725 2 -8.89807 13.4645 3.69558 13
726 2 -8.81937 10.7796 7.96295 15
727 2 -6.97535 11.7524 3.6914 21
728 2 -3.70839 0.341046 4.15072 22
729 2 -5.21891 3.42002 4.06411 23
730 2 -5.49762 5.21967 1.14998 23
731 2 -3.59208 1.88588 1.62439 20
732 2 -3.45745 0.647046 10.1524 21
733 2 -5.38251 3.73091 9.3689 20
734 2 -5.12248 5.21951 6.83395 23
735 2 -3.64628 1.98685 7.05461 21
736 2 -7.39574 -3.50754 12.0004 13
737 2 -12.0814 11.2536 7.4976 9
738 2 -4.32675 8.77332 11.8153 14
739 2 -2.13099 -0.977683 12.2217 15
740 2 -3.75484 6.35588 3.93946 22
741 2 -5.35313 9.07759 3.78008 24
742 2 -5.39128 10.9228 1.32207 20
743 2 -3.72035 7.93739 1.27304 23
744 2 -3.87257 6.16037 9.60463 25
745 2 -5.70896 9.10774 9.08932 23
746 2 -5.61669 10.9136 6.68394 21
747 2 -3.85823 8.08547 6.66423 24
748 2 -8.29191 9.81651 10.9288 11
749 2 -3.48188 11.843 11.0953 14
750 2 -3.87225 11.8397 4.12158 20
751 2 -3.40238 14.3431 0.857869 14
752 2 -1.55768 14.2475 -1.45179 15
753 2 -3.96967 13.4434 8.42643 12
754 2 -2.3357 13.3854 6.27751 12
755 2 -0.459451 0.585102 4.24231 21
756 2 -2.28587 3.12171 4.11493 23
757 2 -1.9896 5.178 1.22145 26
758 2 -0.526257 2.13388 1.58431 22
759 2 -0.498324 -0.0447103 9.61239 24
760 2 -1.77238 3.2151 9.53224 21
761 2 -1.98576 4.77564 6.7719 24
762 2 -0.419631 1.89178 6.52472 23
763 2 6.32178 2.03755 12.3407 16
764 2 -5.27113 5.85091 11.977 14
765 2 -3.25316 3.60954 11.7662 18
766 2 -0.156321 1.56557 11.8871 20
767 2 -0.584936 5.81816 4.43809 22
768 2 -1.72539 8.75301 4.10456 22
769 2 -2.16547 10.5561 1.69176 21
770 2 -0.36913 7.67151 1.22065 26
771 2 -0.667252 6.09612 9.43369 22
772 2 -2.24769 8.89064 9.38648 21
773 2 -2.38972 10.646 6.76122 21
774 2 -0.283556 7.70105 6.74231 23
775 2 10.0069 7.7711 11.9426 11
776 2 -1.86036 6.93079 12.3912 15
777 2 -0.248407 4.38433 13.5657 11
778 2 -0.690986 11.6674 4.21392 23
779 2 -2.347 14.8764 3.71423 12
780 2 -6.92917 14.2541 0.949162 18
781 2 -0.280182 13.4299 1.56439 20
782 2 -0.580174 11.1232 10.7787 10
783 2 -0.974932 12.9187 9.17993 12
784 1 1.41589 -12.8125 -6.12122 19
785 1 -0.13496 -14.2135 -8.01985 12
786 1 0.82711 -14.7175 -3.89214 16
787 1 1.74093 -8.67833 -13.7508 11
788 1 1.1163 -6.89391 -11.0784 23
789 1 3.04793 -10.2983 -11.3433 16
790 1 2.87261 -11.9897 -8.57133 14
791 1 1.4451 -8.70098 -8.59074 22
792 1 0.914231 -6.88619 -5.70283 25
793 1 2.92404 -9.72082 -5.74604 25
794 1 2.76549 -11.6262 -3.14545 23
795 1 1.23004 -8.81585 -3.08907 23
796 1 5.08196 -8.54789 -13.2968 10
797 1 1.02622 -2.95182 -13.6562 20
798 1 1.28211 -0.971761 -11.0318 21
799 1 2.96529 -3.81915 -11.361 19
800 1 2.92168 -6.16052 -8.39792 23
801 1 1.29579 -3.1909 -8.45531 21
802 1 1.15498 -1.27884 -6.03581 20
803 1 3.06567 -3.89195 -5.76897 23
804 1 2.62797 -6.04182 -3.13513 23
805 1 1.27651 -2.91682 -2.9351 24
806 1 4.52698 -12.3153 -6.03768 19
807 1 4.19104 -14.5075 -3.52241 14
808 1 4.58042 -6.62655 -10.9403 22
809 1 6.41097 -9.47397 -10.7869 15
810 1 6.3099 -12.0126 -8.23122 13
811 1 4.6854 -9.2814 -8.34049 25
812 1 4.46114 -6.59447 -5.77918 22
813 1 6.09223 -9.61401 -5.69454 24
814 1 5.93766 -11.8387 -3.11362 20
815 1 4.6719 -8.72243 -3.14931 23
816 1 7.87945 -6.57387 -11.81 12
817 1 4.08806 -2.83713 -13.8939 14
818 1 4.61283 -1.01121 -11.097 22
819 1 5.9865 -3.82344 -11.13 18
820 1 6.32243 -6.23052 -8.7552 22
821 1 4.48196 -3.23629 -8.61346 21
822 1 4.65479 -1.12337 -6.04033 24
823 1 6.13518 -4.20991 -5.81467 25
824 1 6.1021 -5.93557 -3.21652 23
825 1 4.77186 -3.0248 -3.02149 23
826 1 8.15568 -12.2695 -5.64854 16
827 1 11.2952 -6.11513 -10.7989 10
828 1 8.09239 -9.01339 -8.08997 15
829 1 7.94465 -6.93242 -5.91547 21
830 1 10.8666 -6.88652 -5.10601 19
831 1 9.38892 -12.4088 -2.43977 14
832 1 7.93878 -9.17898 -2.91559 23
833 1 9.49376 -3.79258 -11.1917 18
834 1 7.92206 -0.865771 -10.9756 20
835 1 10.4477 -1.0684 -12.5836 9
836 1 9.57972 -5.87092 -8.24133 21
837 1 8.03382 -3.1216 -8.38176 23
838 1 8.02416 -1.13958 -5.75365 23
839 1 9.54909 -3.85716 -5.43475 24
840 1 9.4302 -5.9749 -2.96003 23
841 1 7.88838 -3.02246 -2.92188 23
842 1 9.62662 -9.55682 -5.44532 19
843 1 11.2172 -12.7866 -5.36144 7
844 1 11.343 -8.84404 -2.82211 14
845 1 12.8721 -3.14551 -10.8297 9
846 1 12.3022 -7.52476 -7.54449 9
847 1 13.7004 -0.887859 -7.53091 9
848 1 11.3077 -1.24392 -5.56014 23
849 1 11.1391 -3.06183 -8.32851 22
850 1 12.6829 -4.43989 -5.62852 14
851 1 11.0127 -2.8706 -2.70751 24
852 1 13.011 1.60407 -5.63477 16
853 1 14.3426 -2.87411 -3.11602 15
854 2 1.17397 -12.9408 -8.02825 13
855 2 3.12393 -10.011 -9.55088 21
856 2 3.00268 -13.7692 -0.67891 20
857 2 1.21758 -12.6055 -3.79169 22