ITEM: TIMESTEP
3000
ITEM: NUMBER OF ATOMS
500
ITEM: BOX BOUNDS pp pp pp
-30.0 30.0
-30.0 30.0
-30.0 30.0
ITEM: ATOMS id type x y z Coordination
1 1 -4.30145 2.4789 -5.03609 19
2 1 3.63826 -0.884093 6.06668 21
3 1 -2.50965 5.8242 8.2272 20
4 1 7.85662 -3.51487 2.83922 21
5 1 -9.12418 -2.31239 2.3982 19
6 1 -4.22956 -1.46727 -8.06178 14
7 1 -0.448392 1.4174 8.46031 22
8 1 2.30125 -4.00459 -4.34498 19
9 1 -8.63012 -0.427251 0.545429 23
10 1 0.806161 1.721 -8.22827 13
11 1 2.42339 -5.84807 -2.03041 23
12 1 6.25749 0.148578 2.91948 22
13 1 0.554285 5.14653 -5.33889 23
14 1 -0.490104 4.71149 5.57223 22
15 1 2.81735 7.17013 8.065 10
16 1 -10.7465 -5.11843 0.92973 10
17 1 -11.6062 -1.61264 0.9224 13
18 1 7.33627 -1.12481 0.720672 19
19 1 2.79545 0.231675 11.3607 11
20 1 -8.11261 -5.94623 0.501427 13
21 1 -3.40518 -4.64809 -4.40595 18
22 1 4.61614 -0.376129 -5.10156 19
23 1 4.69028 -5.87839 -4.34504 16
24 1 7.38542 -5.96817 6.44045 13
25 1 -5.42604 6.59002 7.18215 15
26 1 2.79183 2.09146 8.37209 16
27 1 -0.29646 8.19067 0.411109 20
28 1 -1.98763 -3.94652 -7.48574 11
29 1 -1.63465 6.12415 11.112 13
30 1 5.13705 -5.58536 3.46459 24
31 1 -4.03925 9.26424 3.07315 11
32 1 -3.69218 6.61989 2.68933 20
33 1 1.50417 7.28356 -7.69298 12
34 1 5.86006 9.01951 -0.283779 16
35 1 -1.25294 11.1935 -4.74451 10
36 1 -7.07311 4.54708 -7.62755 11
37 1 -1.87153 10.9428 0.558221 12
38 1 -0.514735 6.21499 -2.47958 24
39 1 -8.51372 6.02604 1.10916 11
40 1 -0.463353 8.62105 8.28875 14
41 1 -4.35187 4.16198 -7.77034 18
42 1 -5.80551 -6.74325 5.12077 9
43 1 -4.82079 -2.07282 -2.39914 21
44 1 3.58821 -8.59628 -2.46267 15
45 1 -7.05132 0.707277 3.1963 21
46 1 -6.90265 0.780844 -1.60246 19
47 1 -0.106385 -10.6232 1.4885 15
48 1 5.98661 2.68265 -5.04605 13
49 1 -6.47851 -4.06816 -4.75774 16
50 1 3.12265 4.18483 -6.5683 11
51 1 0.721059 -6.73956 0.700743 21
52 1 1.59786 12.0125 -0.52997 11
53 1 -9.9468 0.933978 3.60819 16
54 1 0.287248 10.9004 6.18871 10
55 1 2.09282 -1.03001 8.85751 19
56 1 0.682456 -8.98839 -2.14282 19
57 1 7.22242 -0.563024 -6.39948 10
58 1 0.175041 -8.06105 3.49435 21
59 1 2.4028 -11.249 3.73729 11
60 1 5.13126 -0.357637 8.7485 14
61 1 2.76373 -3.6047 5.86727 19
62 1 3.25891 7.88052 0.230083 21
63 1 -6.11548 -8.11637 2.00641 12
64 1 -5.36758 -10.6464 0.659109 11
65 1 -2.38585 -6.20383 0.644761 18
66 1 2.63518 6.12543 -2.63911 20
67 1 2.12177 -5.17127 2.58176 20
68 1 -3.63325 -2.96195 7.3183 16
69 1 -10.575 -1.24056 5.699 14
70 1 4.46151 -8.87428 2.64818 16
71 1 -2.72009 -8.51617 2.02867 17
72 1 -2.56749 3.20975 10.4899 20
73 1 -11.695 -3.05739 3.41961 11
74 1 -0.971754 9.46027 3.75219 15
75 1 -6.50056 6.4826 4.14343 17
76 1 -7.24865 3.78441 9.2952 11
77 1 -7.87135 -1.68129 -3.51512 18
78 1 -7.64892 1.41653 -4.29025 21
79 1 -7.42495 -1.79699 -6.97913 13
80 1 7.23163 -0.151339 6.58575 15
81 1 1.09775 -2.8965 10.7131 12
82 1 -5.86941 1.23848 -7.44249 15
83 1 -10.1705 0.557916 -1.87666 17
84 1 -6.34672 -8.46385 -1.33246 14
85 1 -6.57546 4.06942 6.83655 21
86 1 -3.58419 3.24354 7.55147 22
87 1 -3.88289 6.4507 -2.48989 20
88 1 -1.0343 -11.4896 -3.4908 11
89 1 1.32533 7.03865 6.12848 19
90 1 3.75101 3.36828 -3.16353 20
91 1 -10.0422 -0.240914 -4.84695 11
92 1 -8.75734 3.59314 -1.83523 17
93 1 -2.41028 -12.5341 -0.632194 12
94 1 4.58011 -5.29118 8.03153 13
95 1 -5.47215 5.60678 -4.85748 17
96 1 -5.28497 -1.52074 9.98217 13
97 1 -8.11187 1.2003 6.12148 18
98 1 -1.40422 -8.17891 -3.88514 11
99 1 -0.984479 -1.92892 8.34901 20
100 1 -0.642391 -7.04724 6.23144 14
101 1 4.35907 -3.62596 -1.98909 21
102 1 4.88334 5.21561 -0.711124 20
103 1 -5.35585 3.34211 3.5942 24
104 1 1.2482 -0.743848 -4.66182 19
105 1 6.76681 -3.10992 8.38581 11
106 1 -6.13758 -6.91445 -4.1401 9
107 1 -8.5863 -3.64798 5.27743 15
108 1 4.86021 1.88687 5.69904 19
109 1 7.66762 6.67024 -0.093851 10
110 1 -1.24472 4.14535 -7.70706 15
111 1 -1.28348 8.16547 -6.88204 16
112 1 4.711 11.4568 -1.77798 11
113 1 5.9195 6.39811 -3.17536 15
114 1 4.98329 -9.17494 5.1402 9
115 1 7.48321 -6.4926 1.10211 16
116 1 2.44208 -9.57451 0.541843 15
117 1 -9.30552 4.14148 -4.76045 9
118 1 9.04498 1.02713 -0.794033 13
119 1 -2.32967 5.30128 -5.0425 21
120 1 -4.14701 8.90138 -3.91798 11
121 1 -0.729796 -5.81397 -2.07377 21
122 1 4.35523 -6.58228 0.223458 21
123 1 -6.163 -3.78892 7.71434 12
124 1 1.20043 -11.6678 -0.919244 11
125 1 1.05209 -3.95246 -7.21758 13
126 1 2.78464 6.45843 3.45469 20
127 1 7.47445 -7.14254 3.91156 14
128 1 9.27829 -1.62933 -3.50851 10
129 1 -2.04073 -1.21118 -4.92274 20
130 1 0.129645 2.88844 11.2537 11
131 1 -3.82983 4.29892 13.1366 7
132 1 4.50724 -3.071 -6.56009 11
133 1 -10.2695 3.04786 0.715587 12
134 1 1.72183 9.32048 -2.14679 20
135 1 8.09467 0.928338 -3.91324 14
136 1 -2.44745 0.942929 -7.56573 18
137 1 -8.65584 3.69281 3.57012 16
138 1 1.67111 -4.95955 8.396 16
139 1 7.50386 2.73454 4.2928 14
140 1 -8.94739 2.17453 -7.42136 9
141 1 9.69423 -5.7148 3.90184 9
142 1 -2.47574 -9.59443 -0.847796 21
143 1 2.58802 4.55248 6.2809 18
144 1 1.87194 -9.41913 6.26121 11
145 1 6.0911 -3.15991 5.60327 20
146 1 7.96936 7.21196 3.51659 9
147 1 5.93197 -4.03623 0.558137 22
148 1 5.65283 5.18233 4.95925 17
149 1 -3.54708 -6.9642 -1.62657 16
150 1 3.66214 9.97304 6.86595 11
151 1 -5.48994 3.68356 -2.3533 22
152 1 -4.55003 7.23092 -7.05731 12
153 1 -3.23189 0.543102 8.52706 23
154 1 -6.93897 -3.12613 0.176371 20
155 1 4.7664 7.82188 5.52241 13
156 1 -3.73274 4.98898 5.21557 25
157 1 -7.24658 2.96781 0.821912 22
158 1 5.30153 9.54555 -3.96031 10
159 1 0.501735 4.86283 8.704 20
160 1 -6.22559 -1.57347 5.42245 21
161 1 -0.789892 -1.3436 -8.86659 12
162 1 -5.1079 1.73214 11.1195 14
163 1 6.40557 -1.04194 -2.51905 21
164 1 4.34937 11.8141 1.44458 9
165 1 2.73614 -6.74193 5.41322 18
166 1 -2.20672 8.08197 5.93081 17
167 1 1.63391 -7.34598 -5.0785 12
168 1 4.08713 -3.00388 10.4244 12
169 1 -0.920232 2.10619 -5.41696 24
170 1 -6.70592 1.1682 8.67431 16
171 1 9.55194 -0.515807 2.58428 13
172 1 0.59663 8.32578 -4.43773 21
173 1 7.47274 3.84748 -1.9733 15
174 1 -2.101 -0.319938 10.8769 13
175 1 -1.29453 -5.05186 9.28651 10
176 1 -5.46857 5.28499 0.33486 22
177 1 4.71069 9.2268 3.09714 18
178 1 -8.62383 -6.61784 3.3486 9
179 1 10.2952 4.46934 3.87054 5
180 1 -5.38139 -5.28932 -1.31094 21
181 1 9.87896 1.61219 5.28769 8
182 1 6.23878 -6.46532 -1.86392 18
183 1 1.47723 10.1602 1.66853 17
184 1 -10.8055 -2.32529 -1.97151 12
185 1 -1.78256 9.66467 -2.36098 15
186 1 1.109 10.4014 -6.67995 12
187 1 -5.18196 -0.591047 -5.42624 21
188 1 1.75084 -1.14822 -7.16401 14
189 1 -4.44797 -11.4785 -2.13556 9
190 1 -1.01589 -10.3458 4.71627 12
191 1 8.54781 -3.55493 -0.801403 13
192 1 -13.175 -0.123933 3.86984 6
193 1 -1.70618 6.52843 -9.24828 9
194 1 -8.52045 -4.81602 -2.16223 12
195 1 9.0757 -2.22362 5.21228 11
196 1 -5.41083 -4.54488 -7.93624 7
197 1 -6.32643 8.16597 1.35058 11
198 1 -8.37516 -1.38617 7.98519 12
199 1 5.48346 6.0453 1.89771 17
200 1 6.8864 2.85149 1.03239 16
201 1 -4.164 -3.98203 4.21027 18
202 1 2.6496 1.62672 -5.33608 20
203 1 3.42419 7.58469 -5.37298 16
204 1 2.60422 11.1125 4.30393 10
205 1 2.50953 11.7308 -4.10801 13
206 1 5.79269 1.49217 -1.67154 20
207 1 -4.98966 1.55571 5.92516 24
208 1 7.18339 -3.94738 -3.56471 14
209 1 -0.293775 -4.15792 -4.52861 19
210 1 -4.76938 5.77218 10.0293 14
211 1 -3.185 7.98054 -0.243557 20
212 1 -2.88498 -6.99564 4.53612 14
213 1 6.56769 -9.34572 -0.518642 8
214 1 -6.06724 -2.33238 2.53474 20
215 1 -7.41867 6.23389 -2.11053 14
216 2 -10.4762 -2.9854 4.854 12
217 2 6.40684 6.93362 4.95453 13
218 2 2.67922 -1.60914 10.6473 13
219 2 -5.92252 -0.594135 -7.46687 14
220 2 -10.1506 2.19785 -1.01482 14
221 2 -1.80927 -8.44107 5.30581 13
222 2 1.09484 2.64289 8.67086 18
223 2 7.64448 -1.10073 2.56099 18
224 2 -6.01176 5.12512 8.40231 15
225 2 -3.55132 6.60433 6.77937 21
226 2 4.40339 -5.67081 -1.66389 22
227 2 -4.04762 2.2914 -7.4742 19
228 2 -1.82592 -4.47304 -5.58265 15
229 2 -1.00748 -9.51001 2.81955 18
230 2 -2.69039 8.35838 4.02264 16
231 2 9.94184 -0.140797 4.22383 12
232 2 3.58917 7.90583 2.11707 17
233 2 1.37548 8.30498 7.91919 14
234 2 3.21467 10.8495 2.51775 14
235 2 1.9773 8.66966 -6.34157 14
236 2 5.79698 -1.84204 -6.20118 12
237 2 -9.48168 1.7893 -5.51915 11
238 2 0.973671 -7.8962 5.47126 14
239 2 -8.74531 -0.169002 2.6658 24
240 2 0.484042 -8.47838 -4.22016 13
241 2 -3.77746 -11.507 0.192322 11
242 2 5.12235 0.339882 -3.26378 23
243 2 4.25395 8.05571 7.32672 11
244 2 5.39662 -2.2853 9.33396 15
245 2 -4.36706 -5.66151 4.70404 14
246 2 1.86487 -10.7541 2.02137 14
247 2 -6.95773 -7.55529 3.74259 9
248 2 -5.14601 -9.86395 -0.898288 13
249 2 -6.22901 -2.1439 -4.61713 18
250 2 -2.6056 10.3692 2.23154 12
251 2 2.70666 -0.242085 -5.7446 18
252 2 5.5781 7.03774 0.106121 15
253 2 2.48125 5.91586 -6.63307 13
254 2 -5.68392 5.62961 -2.70272 17
255 2 9.58083 6.23523 3.72583 5
256 2 0.143071 11.2085 0.404192 14
257 2 -6.46428 5.51297 5.828 15
258 2 2.14919 11.2057 -2.37806 14
259 2 4.08422 10.8999 -4.28889 12
260 2 -3.52235 4.48504 9.10902 23
261 2 1.79222 1.87977 11.645 9
262 2 2.78391 -2.91484 -7.14272 13
263 2 0.701006 -12.2112 -2.61044 8
264 2 0.848843 -2.61733 -4.94105 17
265 2 -7.10864 -4.83725 -0.642006 17
266 2 6.52589 -5.65981 -3.61159 11
267 2 4.28509 5.10102 3.52631 18
268 2 -2.69342 -0.727288 -8.78325 13
269 2 0.613749 -0.120565 -8.25723 15
270 2 -2.17888 -6.87708 -2.90293 19
271 2 1.30598 -5.42216 -5.73656 15
272 2 8.1561 -0.723983 -4.76295 13
273 2 -9.39213 -5.72788 2.11174 12
274 2 -0.412997 -3.18161 -8.16489 12
275 2 1.13372 5.1121 -3.43988 24
276 2 -2.73392 -11.6487 -2.535 10
277 2 -0.945067 2.19824 -7.52387 15
278 2 -4.83016 1.48866 8.0501 24
279 2 -7.19104 -7.64674 0.381732 13
280 2 -6.50149 0.444075 5.37894 23
281 2 -4.73305 5.16425 3.51443 19
282 2 -8.10071 -5.42612 4.6943 11
283 2 -12.4375 -1.38573 2.83505 11
284 2 3.707 -8.28809 6.27045 11
285 2 6.24443 -0.0232228 -0.38883 20
286 2 -3.12859 -0.0667451 -5.93057 18
287 2 -0.799028 6.7614 5.01753 23
288 2 2.143 10.967 6.32787 9
289 2 -1.54753 1.57691 10.2949 17
290 2 -7.1268 2.56102 2.72613 24
291 2 -8.3781 0.314779 -2.88531 19
292 2 7.3964 6.53985 1.8563 14
293 2 -10.4783 -3.10801 1.53129 16
294 2 -4.72052 7.31674 -5.0427 13
295 2 -0.482531 -0.0413913 -4.9621 18
296 2 -6.74733 6.66274 0.157104 16
297 2 3.26058 -5.28728 6.68617 16
298 2 -0.534255 6.13621 -0.376208 23
299 2 3.32832 -7.22793 -3.94326 16
300 2 2.34566 -9.84574 -1.46694 15
301 2 -5.66235 8.08459 3.70101 12
302 2 0.489595 -6.26262 2.65816 21
303 2 5.80094 -8.09368 3.71386 15
304 2 1.88987 5.563 7.63865 15
305 2 0.781191 11.0517 -4.67361 13
306 2 -1.79556 -3.57922 8.01892 17
307 2 -2.53437 -6.54571 2.69796 19
308 2 -2.89797 -1.18999 7.68367 22
309 2 -0.159738 7.31347 -8.42745 12
310 2 8.38746 -0.153737 -2.23286 15
311 2 0.217711 -0.336108 7.86779 23
312 2 -5.1721 -2.74871 -0.683969 15
313 2 5.48322 10.1061 1.32465 11
314 2 4.21457 9.58643 4.90332 12
315 2 7.27603 -5.00926 -0.765434 17
316 2 -9.82172 -5.35477 -0.771089 11
317 2 -1.59201 7.36055 9.56008 13
318 2 3.40976 0.348345 9.21774 14
319 2 1.88128 2.61548 -6.85689 14
320 2 9.40602 -3.81169 4.10461 15
321 2 -0.649282 4.54107 10.8481 15
322 2 6.24411 -5.25057 5.11598 21
323 2 -10.7832 -0.792404 -3.33947 11
324 2 -5.51833 3.4181 -0.267428 24
325 2 -8.59331 4.07003 -6.4898 10
326 2 -1.62715 -5.44618 5.27058 18
327 2 3.53953 11.6967 -0.335472 14
328 2 -8.48015 -1.32263 -5.43041 14
329 2 7.94991 -3.1268 0.929308 16
330 2 -4.40768 8.39671 1.40417 16
331 2 8.47724 -5.99401 2.60531 16
332 2 -5.02733 -3.27326 5.92258 17
333 2 -7.27587 -5.45303 -3.45559 13
334 2 -0.376781 8.3523 -2.77625 21
335 2 -7.86034 5.6882 2.88603 15
336 2 5.69578 4.32286 1.16761 18
337 2 0.225989 -4.45985 10.251 9
338 2 -10.0574 2.58451 2.6361 13
339 2 -3.3369 8.37975 -2.43453 13
340 2 -3.43027 5.43561 11.3703 10
341 2 -7.17234 2.64465 -2.29785 19
342 2 5.56941 9.66628 -2.08753 13
343 2 -6.44622 2.50437 10.2791 13
344 2 -2.00716 2.1594 7.73303 22
345 2 -6.71867 -3.63537 -6.82343 11
346 2 0.00983795 7.01408 -5.91647 20
347 2 -2.73812 -7.94473 -0.100363 21
348 2 -4.04173 4.28542 -4.79846 18
349 2 4.25948 -2.64112 4.93244 19
350 2 -0.869389 5.20286 7.34564 23
351 2 7.17612 5.80211 -1.78001 12
352 2 4.07296 -10.3621 3.98799 10
353 2 6.00446 0.953537 -6.06523 11
354 2 3.01778 6.65313 5.4243 18
355 2 -7.12852 0.864439 0.425575 22
356 2 -6.93004 -0.598225 9.15264 16
357 2 -8.9912 -2.95825 -2.47077 16
358 2 0.590514 -8.93994 0.600445 19
359 2 -0.0704983 8.51881 2.27857 18
360 2 -8.56302 2.63558 5.18704 17
361 2 -7.49277 -2.42733 3.8372 18
362 2 -0.697905 -11.6214 -0.104908 15
363 2 2.98607 2.69083 6.57447 15
364 2 -2.10162 5.38589 -3.2777 22
365 2 -2.7569 7.31188 -7.76847 13
366 2 5.37508 7.6802 -4.43817 9
367 2 -1.25303 -9.66151 -2.37999 18
368 2 5.20385 0.370005 6.99395 16
369 2 5.88813 3.37698 5.34535 13
370 2 -0.847576 10.1165 -6.48063 11
371 2 -6.04657 1.42733 -5.45996 21
372 2 -3.91674 -3.38886 -7.76863 14
373 2 -5.18373 -0.274518 -1.73936 21
374 2 -0.940502 9.4745 6.73434 12
375 2 -2.71173 10.1493 -4.14485 11
376 2 -8.46045 4.98349 -3.24817 11
377 2 -7.70963 2.52255 7.64926 15
378 2 -1.09006 4.26463 -5.92906 21
379 2 4.08581 -4.2665 -5.12262 18
380 2 -8.84534 4.28694 0.319375 16
381 2 -2.72488 4.98112 -8.5135 12
382 2 2.53436 -5.9239 0.481807 22
383 2 2.43171 -1.85305 7.10524 20
384 2 -4.70899 -2.95442 8.82321 12
385 2 -3.43396 -3.07887 -3.41342 19
386 2 -9.35219 -0.289556 6.6968 14
387 2 6.45843 -4.87826 7.78126 10
388 2 -11.3272 0.00734643 4.55089 13
389 2 -3.96811 0.206036 10.2934 15
390 2 0.867736 -10.5906 5.03399 11
391 2 9.37839 2.89401 4.08019 10
392 2 0.920442 -6.9201 -2.34285 21
393 2 -1.58852 9.29111 -0.43925 17
394 2 -6.88438 2.65864 -8.10848 10
395 2 -7.62123 -2.76195 7.029 14
396 2 3.17541 -4.3831 9.12146 14
397 2 7.807 2.4126 -0.748991 14
398 2 4.13642 3.24462 -5.1093 15
399 2 7.98809 1.23675 5.5519 14
400 2 -3.87592 6.22175 -0.410694 21
401 2 7.51281 -2.12582 6.57417 15
402 2 2.53828 -4.04077 -2.46241 20
403 2 -3.77383 -5.31043 -0.322905 19
404 2 5.93406 -2.88667 -2.86186 22
405 2 3.93642 -8.35542 0.925511 17
406 2 5.81101 -3.59475 2.99386 19
407 2 5.41879 -5.89438 1.55759 24
408 2 -3.81422 2.87414 11.7549 13
409 2 4.53175 5.04994 -2.67838 18
410 2 -10.1841 -0.9912 -0.393511 17
411 2 -7.71033 -1.92429 1.23388 16
412 2 9.00503 -6.32006 5.60953 7
413 2 2.33089 7.92113 -3.63748 23
414 2 9.38836 0.169153 0.878095 11
415 2 3.03966 5.68104 -0.572448 20
416 2 0.0620325 -5.83114 7.8555 12
417 2 3.27416 -5.68888 3.96074 20
418 2 8.71054 -3.28132 -2.73176 10
419 2 5.49981 -8.61437 -1.92069 11
420 2 -5.07071 -5.38848 -4.87591 14
421 2 1.63275 8.75932 0.0293907 18
422 2 0.38509 10.7788 4.37703 10
423 2 -4.65861 -9.11751 1.91586 14
424 2 -0.470794 -1.34773 10.3832 15
425 2 -4.70219 3.3077 5.7117 24
426 2 6.23965 2.0625 2.63655 18
427 2 7.21186 2.55976 -3.49654 16
428 2 -5.60753 5.66739 -7.33271 11
429 2 -5.32481 -7.36152 -2.41114 14
430 2 7.54694 -8.1393 0.331769 12
431 1 -2.11877 -2.39923 -2.17976 22
432 2 -0.649752 -5.3736 -0.069734 24
433 2 -1.98587 -2.36874 -0.293954 23
434 2 -2.12657 -0.529136 -2.84925 22
435 2 -0.684979 -3.96182 -2.51749 20
436 1 -5.17083 -0.106955 0.508585 24
437 1 -3.7214 -3.2237 0.336997 21
438 1 -1.79517 -0.464169 0.574035 22
439 1 -0.431958 -3.61431 0.357392 23
440 1 -1.31252 -5.23322 3.07949 22
441 1 -2.45142 -2.32135 2.99234 19
442 1 -2.68291 -0.742974 5.85065 22
443 1 -0.967451 -3.75673 5.9023 19
444 2 -5.43637 -0.158712 2.62118 21
445 2 -4.29738 -3.0654 2.56083 21
446 2 -2.14132 -2.39707 4.96943 21
447 2 -2.07052 -0.365757 2.61927 22
448 2 -0.682025 -3.40209 2.37281 25
449 1 -3.36001 0.797286 -1.90168 20
450 1 -0.449606 0.471793 -2.68868 20
451 1 -2.29848 3.41529 -2.52846 24
452 2 -3.38289 0.643053 0.157632 21
453 2 -4.026 2.47067 -2.93458 20
454 2 -0.271713 0.490401 -0.481923 24
455 2 -2.22484 3.25704 -0.601977 24
456 2 -0.795737 2.33846 -3.5073 23
457 1 -3.64404 2.55726 0.35128 23
458 1 -3.75174 0.710576 3.03298 23
459 1 -2.25664 5.21974 0.195125 20
460 1 -0.471033 2.53037 0.42851 25
461 1 -0.520618 0.564107 3.29738 24
462 1 -1.78114 3.52533 3.14367 24
463 1 -1.79821 1.9613 5.76757 24
464 1 -0.323 6.53318 3.01134 19
465 2 -3.31704 0.764526 5.05329 22
466 2 -3.48709 2.58494 2.57139 23
467 2 -0.14322 0.472418 5.38229 21
468 2 -1.91485 3.68489 4.97283 24
469 2 -2.08732 5.5606 2.18057 24
470 2 -0.220032 2.45528 2.41363 25
471 1 1.20037 -2.55609 -2.10163 23
472 2 1.31813 -2.69796 -0.0856351 22
473 2 1.53767 -0.745068 -2.72566 20
474 2 4.40321 -2.60418 -0.358063 23
475 1 1.23456 -0.764874 0.271051 23
476 1 2.75448 -3.79002 0.414181 22
477 1 0.872144 -2.37716 2.98144 23
478 1 0.641752 -1.33332 6.16272 18
479 1 4.41121 -0.799122 0.334302 23
480 1 4.30699 -2.39017 3.0461 22
481 2 0.917282 -3.15618 5.48605 22
482 2 1.06476 -0.497012 2.26454 23
483 2 2.61492 -3.44857 2.50941 23
484 2 4.64293 -0.610809 2.22114 19
485 1 2.9387 0.575478 -2.19802 22
486 1 0.543279 3.23835 -2.50055 23
487 2 2.8691 -0.26249 -0.526819 20
488 2 1.04671 3.46933 -0.543254 23
489 2 2.11061 2.18171 -3.18072 22
490 2 3.98349 2.56084 -1.2313 22
491 1 1.21997 5.25247 0.23036 20
492 1 2.68472 2.42624 0.0897191 22
493 1 2.93988 0.198802 2.76116 21
494 1 1.48368 3.37201 3.04528 22
495 1 1.6711 1.73638 5.36582 20
496 1 4.46615 3.35076 2.64439 20
497 2 2.79822 0.264253 4.66701 20
498 2 1.28164 3.76306 5.01275 24
499 2 1.24378 5.4127 2.39604 22
500 2 2.87997 2.12559 2.30097 23
