ITEM: TIMESTEP
32000
ITEM: NUMBER OF ATOMS
2000
ITEM: BOX BOUNDS pp pp pp
-30.0 30.0
-30.0 30.0
-30.0 30.0
ITEM: ATOMS id type x y z Coordination
1 1 -6.2715 6.84776 -18.0031 11
2 1 -4.845 -8.30861 -10.3475 22
3 1 1.38678 13.1321 11.6508 14
4 1 8.04628 -7.61625 0.708949 16
5 1 -11.6177 12.1731 -4.95683 16
6 1 12.2185 -8.59676 -15.2429 13
7 1 -8.11043 3.835 -12.5132 20
8 1 1.98596 -5.34484 7.62893 16
9 1 -6.14471 2.34395 -14.8161 17
10 1 -13.1187 -7.75419 2.19488 11
11 1 13.9656 1.89725 -15.9616 11
12 1 -2.33656 3.65891 -9.3227 22
13 1 -1.9871 -11.4669 -1.88208 13
14 1 -12.5702 -7.93169 -1.60166 9
15 1 1.26816 3.99359 13.7145 17
16 1 9.9134 -2.06619 0.22097 14
17 1 1.96066 4.5651 5.97505 22
18 1 6.70467 1.62653 -0.177168 20
19 1 0.0852646 10.8071 -12.0562 17
20 1 3.0582 -0.402117 9.00237 20
21 1 -8.1825 0.495113 -18.3512 13
22 1 -11.8033 -0.450996 7.9009 15
23 1 13.026 10.4825 4.79486 18
24 1 -1.15152 13.9315 -20.3804 5
25 1 6.8042 5.95181 -16.9201 22
26 1 15.6637 2.89558 6.28384 12
27 1 -6.18095 4.64191 -4.58932 19
28 1 -11.5573 7.65558 -8.37168 12
29 1 -1.33345 -0.128999 -11.6158 21
30 1 -7.31862 13.9721 7.58882 10
31 1 6.34069 -10.7479 0.264797 19
32 1 0.71458 1.21649 3.30377 20
33 1 4.02081 -12.4003 -15.8795 12
34 1 10.3519 -9.62051 -4.18487 13
35 1 -4.69787 -13.7062 -12.0746 13
36 1 -11.0589 -3.58903 6.45393 18
37 1 7.35538 0.987979 -10.093 24
38 1 2.94121 -7.83884 -16.7761 18
39 1 10.2567 -5.86618 -16.1928 20
40 1 -0.593585 4.0328 -20.383 19
41 1 2.37198 5.54 11.1679 18
42 1 -1.31999 -12.207 4.57364 19
43 1 11.0238 -1.27283 6.65928 16
44 1 -10.6808 1.17284 -2.55038 19
45 1 -15.2109 0.783475 3.21404 13
46 1 -11.5472 4.48775 -6.88399 22
47 1 -5.1111 12.7582 -6.27618 20
48 1 0.915612 -11.3662 -16.774 11
49 1 5.66557 3.2601 -15.1233 24
50 1 6.41089 -4.164 -13.5822 21
51 1 -2.29988 -1.37269 12.9093 11
52 1 -11.0607 7.24987 -5.62318 18
53 1 3.88768 14.2907 -17.0539 15
54 1 1.18743 13.203 5.99753 15
55 1 -6.54949 10.8257 -12.6097 21
56 1 1.55927 16.405 -3.07467 18
57 1 3.75436 -11.4158 -1.2457 20
58 1 8.84903 -2.51175 -9.53678 22
59 1 5.32419 -6.76047 -22.0804 10
60 1 -7.89783 11.1988 6.73643 17
61 1 -11.2927 -2.94851 -11.5807 15
62 1 6.87177 8.13688 -1.25372 18
63 1 -5.50794 11.0573 -9.32252 21
64 1 -6.88189 -7.77553 2.66507 20
65 1 -0.209242 17.9135 6.30915 11
66 1 -9.04966 8.37827 -9.50836 20
67 1 -2.66312 11.9975 8.13921 19
68 1 3.46132 11.6232 -7.17114 21
69 1 6.94784 8.12008 1.51017 22
70 1 -3.49918 -12.8746 6.02563 11
71 1 4.48232 4.24394 3.55222 19
72 1 8.13798 -13.6901 -8.45851 13
73 1 4.56604 13.4624 12.1582 10
74 1 -12.5939 5.60229 -11.7605 10
75 1 -7.56582 7.15676 -12.5067 18
76 1 8.6313 9.74607 8.90228 21
77 1 12.7146 -0.492937 -17.2229 12
78 1 11.7054 -8.57779 -0.917569 10
79 1 -14.9668 -0.130566 -0.114835 14
80 1 -5.03703 5.93731 -1.87644 18
81 1 5.82632 17.6995 0.380996 19
82 1 2.48902 -1.58295 11.0788 13
83 1 -5.28213 -11.0942 -1.97654 17
84 1 -8.2568 -1.4064 -3.70132 17
85 1 12.5431 8.61289 1.5372 19
86 1 9.07666 -0.926032 -6.54166 21
87 1 2.58877 15.0268 2.71276 20
88 1 5.38553 -0.121572 7.00507 20
89 1 -5.43485 -2.76886 -3.28047 20
90 1 -1.1308 -3.94914 -12.8116 19
91 1 -12.6886 9.90747 6.44045 10
92 1 -8.59218 11.7291 -4.64432 21
93 1 1.54508 9.23771 -8.36298 21
94 1 5.9899 3.47141 -8.41099 22
95 1 8.33844 4.54218 -9.41945 21
96 1 10.9888 14.449 -10.1335 18
97 1 5.53721 -4.72011 0.137469 20
98 1 8.04929 -7.30327 5.73151 13
99 1 -5.7069 14.6567 -8.94033 21
100 1 -10.8744 14.2869 2.69489 10
101 1 -7.77658 -2.69158 12.2106 9
102 1 -4.46419 14.2834 3.24549 17
103 1 -7.31837 -3.45365 5.8022 21
104 1 14.5744 -7.34217 -9.36121 12
105 1 -9.48937 6.08307 0.428404 20
106 1 -8.96916 -14.835 -0.256262 8
107 1 11.3646 -5.33798 -10.5537 22
108 1 6.1475 -1.5727 -15.1051 22
109 1 -3.25994 2.22329 -19.6071 16
110 1 6.34481 1.51099 3.20232 18
111 1 -4.67988 13.9895 -0.299182 21
112 1 -3.25279 8.05399 -12.9825 19
113 1 1.20337 9.58047 11.6709 20
114 1 4.53835 17.1295 -9.20857 20
115 1 -14.6516 11.4886 -2.82242 7
116 1 1.4978 9.25217 -2.00174 20
117 1 -4.22727 -8.70211 0.78528 20
118 1 12.6382 7.07247 3.53752 17
119 1 4.38542 -1.40931 -12.5748 20
120 1 4.93186 -6.85449 -13.8156 19
121 1 1.85624 4.97467 2.98824 20
122 1 4.50062 0.576534 13.0448 12
123 1 -7.71602 -4.99382 -4.28473 20
124 1 6.26509 -1.93583 -1.47704 18
125 1 -5.46845 -5.34187 -5.78693 20
126 1 8.32703 -6.12697 -2.08882 19
127 1 -8.05063 8.4374 -0.233039 18
128 1 10.4596 4.9364 -18.6813 10
129 1 7.6206 16.3437 -9.47263 19
130 1 -5.97373 -10.3723 7.39296 12
131 1 -7.58964 -10.4711 3.33384 18
132 1 -4.10433 9.24562 -1.35742 18
133 1 5.89239 -8.51187 -19.7793 17
134 1 11.8499 8.06656 -13.5349 19
135 1 10.3378 -7.12821 -7.14254 20
136 1 -0.785555 -14.2555 1.80425 15
137 1 -6.97159 -8.15287 -3.46457 20
138 1 15.5553 7.82624 5.56145 14
139 1 12.6156 -0.196694 -13.9144 20
140 1 -12.6319 -2.49084 0.836524 18
141 1 9.35198 12.644 -1.60603 20
142 1 15.4719 12.9037 0.748918 12
143 1 -5.42443 5.90141 11.3315 17
144 1 6.55239 6.12024 -7.16802 21
145 1 -3.26649 11.5872 5.03962 16
146 1 -2.86542 15.3184 -10.1428 18
147 1 2.04528 -5.66169 -13.9148 17
148 1 9.81517 -10.3931 -16.4675 13
149 1 0.660295 13.25 -17.6356 17
150 1 8.51849 0.165156 8.88366 17
151 1 -0.771364 -0.266531 -24.3443 10
152 1 -1.65834 9.3747 -6.77163 21
153 1 12.2861 0.756024 -10.5486 20
154 1 -11.555 10.1638 -10.8163 12
155 1 -6.19784 14.3941 -4.26773 20
156 1 13.527 5.15364 -13.8619 21
157 1 7.94688 -4.29538 1.20667 18
158 1 -2.24255 5.69549 -11.7484 21
159 1 -5.26655 17.4424 2.68073 12
160 1 14.1648 10.3842 -11.7417 17
161 1 2.83801 14.7417 -7.71635 19
162 1 -4.64157 17.5103 -8.66821 11
163 1 13.7508 5.71919 -4.65698 22
164 1 -1.74025 12.3948 -5.14633 20
165 1 3.89708 16.2523 -14.7841 18
166 1 5.74189 11.666 -16.8448 20
167 1 -9.74697 -9.53778 -3.12177 16
168 1 -11.236 15.5711 -6.03341 8
169 1 -3.80975 -2.31266 -18.885 21
170 1 2.5132 -7.98726 -20.5047 15
171 1 7.06058 14.4581 4.97608 18
172 1 0.329073 14.1139 0.688653 18
173 1 -10.7516 -0.668774 -8.76734 23
174 1 -12.7215 15.0176 -0.480768 7
175 1 16.6447 -1.93944 -8.10948 11
176 1 -9.42955 3.56394 -18.5005 9
177 1 4.76779 5.45046 13.3293 17
178 1 2.96386 19.1651 1.01861 12
179 1 -2.88275 8.8525 3.88536 19
180 1 2.55896 -4.77918 -21.3602 18
181 1 -4.39303 13.9701 6.32584 18
182 1 0.17024 11.8447 -6.99954 17
183 1 7.85006 -1.8416 7.2187 17
184 1 -10.6586 -4.37836 0.0949733 19
185 1 -1.75704 -10.589 -18.5412 11
186 1 -5.17847 12.8169 -11.4585 20
187 1 -1.32984 -8.91382 0.446427 18
188 1 5.43539 -14.1481 -9.88213 13
189 1 -1.39146 12.3695 -15.2186 15
190 1 -15.3092 3.84666 4.60019 14
191 1 4.51856 9.10625 -9.57094 23
192 1 13.4645 9.18115 -6.00101 15
193 1 -6.86712 4.68459 8.46789 21
194 1 2.4107 -8.81504 6.94517 14
195 1 -9.73547 4.00677 -3.93674 22
196 1 2.86617 18.2634 -1.7599 17
197 1 2.72907 7.12987 4.5891 21
198 1 14.5011 8.30509 7.98675 15
199 1 -1.95711 15.7159 -0.99915 19
200 1 14.3182 -3.51656 -13.5826 13
201 1 -5.22301 11.7915 8.76702 16
202 1 -2.90603 2.53816 -12.1469 19
203 1 14.22 -5.83347 -0.973332 15
204 1 -3.24668 -4.33595 2.24228 16
205 1 -14.2093 2.85954 1.23625 16
206 1 -7.58783 -9.37245 -0.310186 22
207 1 11.1193 11.2027 7.56102 22
208 1 -12.889 1.34254 -7.68033 19
209 1 0.361186 -12.5036 -5.27591 18
210 1 -4.38123 1.81047 -7.08766 19
211 1 5.83829 -4.95681 -7.05873 24
212 1 -3.57203 10.3305 1.46922 18
213 1 -4.3907 1.35577 -0.0827292 20
214 1 3.65992 14.9867 9.66395 11
215 1 -7.43553 -0.345081 -8.70289 19
216 1 -4.5956 16.4089 -12.0784 13
217 1 -12.9505 -2.26646 -8.54236 11
218 1 -10.3696 1.90147 6.75352 16
219 1 0.264598 -11.6188 6.98577 9
220 1 3.0097 -10.0258 1.54299 22
221 1 -8.9963 11.5645 0.55103 16
222 1 17.3947 5.19594 0.560726 11
223 1 8.40318 6.7626 -11.4962 19
224 1 -6.62846 -2.27261 -19.7024 11
225 1 6.84111 2.60662 6.51659 24
226 1 8.92536 -14.0551 -0.969532 10
227 1 -0.378824 8.11426 -12.6277 25
228 1 1.36766 -8.96713 -14.2818 16
229 1 10.6197 1.46052 -17.73 16
230 1 3.8266 9.51847 -17.2917 15
231 1 -4.58747 -7.80659 -13.3267 18
232 1 -3.31367 14.8486 -6.40921 21
233 1 -8.72021 -8.67218 5.54729 19
234 1 7.54586 18.3691 -6.69758 13
235 1 -8.53349 4.37189 11.496 12
236 1 -7.71647 13.0259 -7.25201 20
237 1 8.08848 5.02887 7.39109 22
238 1 -1.96122 -5.06247 -17.6668 21
239 1 -3.14552 10.6553 -11.812 18
240 1 3.56992 5.35788 -15.4006 17
241 1 -4.50204 -10.5552 3.44502 21
242 1 -7.94918 8.39971 5.04268 20
243 1 -5.14374 9.65645 6.69773 17
244 1 1.96548 -10.8892 -11.5069 18
245 1 -4.49555 -16.17 -5.65666 9
246 1 8.84826 -10.8406 -7.80785 18
247 1 3.16651 -8.91048 -8.91385 20
248 1 13.4444 10.2279 9.64959 15
249 1 8.79166 8.91771 -13.226 18
250 1 1.5487 6.89112 -3.65549 21
251 1 -6.33749 2.81668 -2.01872 17
252 1 -11.9255 13.1055 -2.30596 14
253 1 3.33614 6.63969 8.03143 23
254 1 6.20937 -13.2482 -6.10224 19
255 1 15.1528 2.83772 -3.87222 19
256 1 2.28266 11.6273 3.91661 18
257 1 -11.5276 8.28998 0.797592 18
258 1 -7.86873 -2.64103 -6.87709 20
259 1 9.11345 7.65499 -18.2891 14
260 1 6.00574 -1.75315 9.83331 13
261 1 10.5387 11.1462 -14.8109 16
262 1 4.20374 -8.45111 -11.6163 17
263 1 2.08001 2.59051 -16.0027 22
264 1 2.7157 -13.5562 0.818405 16
265 1 10.2852 3.13846 -10.6832 20
266 1 -7.96749 -3.9707 2.34259 21
267 1 2.66193 -15.595 -8.81487 9
268 1 -7.91486 -0.503879 -14.3408 20
269 1 3.51764 14.1703 -4.69935 22
270 1 3.65725 0.505224 -18.3096 17
271 1 7.89503 2.94207 10.1195 20
272 1 17.4949 2.81554 -1.59221 9
273 1 -2.75811 -4.32907 -1.12219 17
274 1 9.48841 -3.30341 -12.8711 19
275 1 0.104888 -4.01861 1.34978 18
276 1 -6.15324 -1.77873 -12.4061 18
277 1 -9.35269 2.6934 -15.0819 14
278 1 -8.98189 -11.5495 5.51432 9
279 1 10.2929 5.54908 4.99527 23
280 1 9.44285 -1.89809 3.19816 18
281 1 -4.83014 -5.11654 -18.4136 14
282 1 4.2882 -3.3301 2.72834 19
283 1 1.26129 5.17251 -16.9543 19
284 1 7.102 10.871 -7.44026 20
285 1 -5.28045 -6.05233 -2.23137 20
286 1 2.68229 12.9507 -1.71943 22
287 1 -7.01912 -0.785653 4.10405 23
288 1 -7.00306 -6.84051 -11.0009 21
289 1 -4.10277 -2.77154 -15.2569 21
290 1 0.614768 9.76961 -17.5986 17
291 1 -4.36036 -5.83134 -8.46825 20
292 1 -1.20854 -9.11228 -4.17076 21
293 1 11.0218 -6.14093 -20.4844 11
294 1 15.412 -1.1668 -11.0052 12
295 1 11.9059 5.14562 0.828546 22
296 1 0.598512 -3.80369 -6.33664 20
297 1 -9.96138 -1.01996 5.20105 19
298 1 -3.20602 -11.3431 -4.78562 17
299 1 10.3172 7.39006 12.8069 13
300 1 -6.01944 -11.7343 0.616061 19
301 1 3.35295 6.34161 -8.58249 22
302 1 1.07514 -10.7742 -2.58949 16
303 1 0.90337 18.6326 -7.87635 13
304 1 6.91065 1.09208 -16.5327 21
305 1 -5.32716 0.526126 -20.235 14
306 1 3.49435 -4.85619 -5.05679 22
307 1 -9.78636 -6.33418 7.93381 13
308 1 1.59042 9.12676 15.1076 9
309 1 3.81412 -9.84096 -3.35115 19
310 1 -4.22071 -10.0742 -15.8109 11
311 1 -5.86717 8.20414 -10.7805 18
312 1 9.72593 9.19369 -0.72634 23
313 1 -1.82507 4.27703 -14.6657 23
314 1 1.42891 10.7228 -14.691 18
315 1 0.326394 -2.9521 5.22881 18
316 1 7.31548 -11.6871 -14.5596 18
317 1 -4.57112 17.201 -1.25132 13
318 1 4.62683 12.8225 0.491744 21
319 1 11.9583 3.16436 -1.80586 22
320 1 -9.21055 1.73923 3.79487 22
321 1 -2.9061 -2.19646 9.62198 16
322 1 -6.39362 10.7307 4.2258 20
323 1 4.46964 -5.00237 -18.6741 21
324 1 15.2616 9.73657 -8.16969 15
325 1 1.42413 -8.24395 -0.96271 22
326 1 -3.20508 0.644974 11.3036 19
327 1 -15.4368 -2.31718 2.56461 10
328 1 0.327683 -12.9416 -9.68608 18
329 1 -8.46003 7.88243 11.0738 12
330 1 -11.0766 6.38955 10.6569 10
331 1 -13.725 -1.64668 5.24648 14
332 1 -13.7309 -4.80253 4.29916 13
333 1 13.722 -4.42163 -4.24983 20
334 1 -11.4946 -6.61028 4.95785 16
335 1 6.91698 -1.62653 -11.5303 18
336 1 10.5382 -11.9113 -10.2011 13
337 1 4.39433 19.6463 -8.18642 12
338 1 -3.44655 -1.5752 0.556455 16
339 1 -11.2779 13.3229 -8.10952 15
340 1 0.860887 2.74593 8.4533 18
341 1 9.94767 11.9744 4.73212 21
342 1 -10.3538 -1.33427 -1.09459 22
343 1 8.77308 -6.02987 -9.06474 17
344 1 -0.841421 12.5687 -1.94147 17
345 1 -1.01106 6.35211 2.65807 17
346 1 6.34808 -9.43188 2.91661 16
347 1 13.719 -3.58019 0.35391 15
348 1 -0.711097 3.34984 5.89206 17
349 1 -5.94829 -3.85294 -10.5301 20
350 1 -0.684042 3.03097 10.9638 22
351 1 0.477334 16.9827 1.54013 15
352 1 10.8724 9.90921 11.2065 18
353 1 -8.64938 16.8634 -12.2747 9
354 1 1.37076 -3.42297 -24.1436 9
355 1 -6.42864 2.37784 -8.84732 19
356 1 9.02469 -7.99708 -18.323 18
357 1 -9.34107 5.08451 6.3259 19
358 1 -10.8981 4.08706 -1.36148 21
359 1 -2.00985 -2.72025 -9.80563 21
360 1 -6.41817 10.8215 0.417552 17
361 1 8.91579 0.822592 1.42724 17
362 1 -8.88554 -12.1764 -2.01206 19
363 1 6.16055 -6.2259 2.97162 19
364 1 -6.75548 -6.84717 7.72297 16
365 1 -13.1757 8.43766 -2.2115 11
366 1 0.257588 -2.05246 8.34814 15
367 1 -1.25178 -10.6865 -6.64622 20
368 1 -4.3196 0.147759 -14.0864 23
369 1 8.8073 -1.5618 -18.1036 18
370 1 5.26176 20.3005 -1.4244 11
371 1 -10.1434 5.41027 -9.90983 20
372 1 9.01538 -8.11326 -14.3149 19
373 1 11.0848 8.72766 -16.682 16
374 1 -4.55264 -10.785 -12.9842 14
375 1 -8.79392 -3.44528 -9.81362 20
376 1 -1.71743 -5.7132 -4.20024 18
377 1 13.4049 7.38676 11.2127 13
378 1 14.1603 3.77612 -7.17888 21
379 1 -4.03472 6.47094 -16.0142 22
380 1 4.96009 19.3744 -5.06571 12
381 1 -12.913 3.49787 -9.25991 16
382 1 -9.04348 9.18468 2.54306 21
383 1 -7.1021 16.6247 -2.92745 13
384 1 -3.15152 6.08316 5.48096 18
385 1 8.99326 6.70089 10.0674 21
386 1 11.4605 -1.56817 -8.56153 19
387 1 9.9846 2.78721 6.84727 21
388 1 14.6929 1.73228 -12.7503 15
389 1 -2.51909 -14.5206 -9.85808 13
390 1 4.12538 6.52258 1.93883 21
391 1 -4.24964 9.32044 -5.01713 19
392 1 3.02237 -5.9172 -8.36672 19
393 1 2.0441 11.0468 0.527122 20
394 1 8.85216 3.28578 -6.41808 23
395 1 -9.49555 2.63266 -6.92987 15
396 1 4.56079 -7.75833 -5.72207 22
397 1 10.3026 3.51858 3.37289 19
398 1 -9.04126 0.0372672 -11.0045 21
399 1 -4.67977 -8.44151 -4.91913 18
400 1 -7.84875 -5.10537 9.97948 10
401 1 -4.15936 11.9153 -3.39863 19
402 1 -8.69881 -8.62693 -6.29643 15
403 1 8.20863 11.9421 11.4828 14
404 1 -8.55613 11.7058 -9.85689 24
405 1 -0.0935297 14.0223 -11.8118 15
406 1 5.48927 15.6663 2.56338 20
407 1 -10.8812 -3.22097 -7.09812 19
408 1 -2.92883 -5.80269 -11.6117 20
409 1 -12.1323 0.755259 3.52062 18
410 1 -9.84922 11.4208 -13.222 11
411 1 4.19631 -7.75019 4.91712 19
412 1 -2.57322 -13.2955 -7.38213 21
413 1 13.3698 14.3088 5.50203 14
414 1 5.72747 8.35541 -18.5125 15
415 1 -10.5074 7.74755 -12.7943 13
416 1 -2.99369 14.3941 -13.6185 15
417 1 -4.94745 5.35764 -10.5547 20
418 1 0.63004 -11.4276 0.562638 20
419 1 12.4562 11.5349 -0.00763927 20
420 1 2.13973 8.50668 -19.9615 12
421 1 -2.4792 0.850127 7.93545 21
422 1 -14.7815 3.46496 -6.23357 10
423 1 -5.52781 7.42714 2.37359 17
424 1 -2.38285 -11.1358 1.51657 17
425 1 3.7453 -2.80542 -9.38263 20
426 1 7.46878 -11.4161 -18.3416 10
427 1 1.32283 -1.75786 2.15274 18
428 1 -11.5645 3.82888 1.9387 23
429 1 -13.6708 1.60783 6.17052 16
430 1 -12.6383 9.58325 3.24952 14
431 1 -2.1326 -2.04488 6.44758 21
432 1 -6.46151 3.18028 -18.9614 13
433 1 7.05155 -9.86792 -11.6851 18
434 1 -0.157536 -7.81589 -17.1496 19
435 1 -5.41277 1.78159 8.47693 15
436 1 5.88692 -6.54913 -9.97268 20
437 1 -2.21521 5.27836 -17.9531 18
438 1 7.02747 -9.03762 -2.46863 19
439 1 3.88855 12.3933 -13.9839 19
440 1 -10.2512 10.7006 5.15336 14
441 1 -5.80642 -0.451339 13.5636 10
442 1 -8.665 -3.36159 -13.0358 17
443 1 -5.6586 -5.04342 0.689766 16
444 1 12.6655 -3.69308 5.20811 12
445 1 8.93222 3.78864 -3.21336 23
446 1 -3.5085 7.17069 0.817082 19
447 1 4.33994 0.899391 -11.4129 24
448 1 13.1862 -5.41423 2.2525 9
449 1 15.6091 7.74125 -13.6166 15
450 1 -0.290427 5.54438 8.37067 19
451 1 0.952162 14.1281 -5.62452 17
452 1 6.34609 -1.6188 1.53987 21
453 1 1.78932 -12.8291 -13.7093 11
454 1 -5.29839 9.01102 10.7209 14
455 1 -2.87053 17.5699 1.38451 10
456 1 -8.43662 -8.46769 -9.43688 16
457 1 9.90472 16.6695 -1.73301 15
458 1 8.56287 7.86529 6.40872 21
459 1 -6.79173 2.7939 5.72603 20
460 1 -2.06739 -4.46702 -7.35813 23
461 1 -11.0134 7.72866 6.05345 20
462 1 -7.84236 -5.52181 -7.89283 23
463 1 -6.43718 15.9554 4.97811 15
464 1 -1.66142 -7.2643 -9.49559 21
465 1 -0.503982 -2.99658 -19.94 23
466 1 -6.31914 -14.6262 -1.09475 15
467 1 -6.04211 -2.0707 1.52576 19
468 1 7.62882 4.01348 4.16712 23
469 1 -4.89074 -3.46855 11.5464 11
470 1 -6.55897 9.10675 -15.0675 16
471 1 8.02711 9.06713 -5.21286 19
472 1 -5.34946 -14.3546 -8.68592 13
473 1 5.85702 6.5948 -10.3054 19
474 1 1.35553 19.3459 -4.45531 13
475 1 0.534055 6.93083 -10.0094 21
476 1 -0.643854 10.2778 6.08753 19
477 1 -13.3024 -2.46901 -4.70814 18
478 1 -0.391349 17.2303 -10.1287 13
479 1 7.82025 16.362 -14.6058 14
480 1 -5.51171 -4.87168 -13.6228 16
481 1 4.05567 3.36156 15.1091 11
482 1 4.86228 -9.63428 -14.0896 21
483 1 0.265809 -3.94141 -16.2511 19
484 1 9.39655 -10.806 -0.865052 16
485 1 -7.38337 13.1395 -1.53175 21
486 1 4.01084 7.99782 10.7237 20
487 1 5.46472 7.22993 -3.96788 20
488 1 6.1879 12.3351 -5.17782 22
489 1 -5.86438 16.1987 -14.3602 10
490 1 6.45865 3.70488 -11.7515 20
491 1 -0.79555 -6.28244 -1.57212 18
492 1 -15.5322 -2.25264 -2.86247 8
493 1 4.10843 15.2375 5.81016 14
494 1 -2.38834 10.3432 -20.6274 8
495 1 11.6623 6.14283 -2.06191 24
496 1 9.73203 16.9984 -11.9113 10
497 1 6.41458 -4.0759 -4.19354 21
498 1 17.2054 4.7096 -5.15306 13
499 1 3.47528 3.5052 -13.0713 19
500 1 1.74198 -6.74802 -4.64694 22
501 1 1.87474 -12.3656 3.37846 16
502 1 5.27738 -6.50723 7.58499 14
503 1 -7.68441 5.35861 -9.94916 19
504 1 -9.57072 -11.6546 1.08473 15
505 1 1.40098 -10.8775 -19.8968 10
506 1 8.40803 16.7787 2.10625 17
507 1 2.02206 8.23987 -14.5494 18
508 1 7.6292 6.17911 13.4762 14
509 1 -15.209 4.03494 8.29676 10
510 1 1.56067 -15.9686 -4.69263 11
511 1 -12.8334 -0.690509 -1.8505 20
512 1 14.7187 -4.35726 -10.1786 16
513 1 12.0064 -1.81882 -5.01442 19
514 1 -2.70756 12.5633 -8.74384 19
515 1 3.50963 -4.46424 -11.9935 23
516 1 6.35176 6.58703 -13.719 22
517 1 14.2868 -6.9811 -12.7593 10
518 1 -6.11853 2.50675 12.122 14
519 1 6.31999 15.8807 -5.83805 22
520 1 -2.57487 1.61098 -22.3055 12
521 1 6.38169 -0.215958 -19.7629 19
522 1 -4.50658 -2.6027 4.74652 19
523 1 -3.49046 14.6789 -3.36479 21
524 1 -5.46225 -0.302273 -17.008 22
525 1 -13.5644 2.46378 -1.71584 17
526 1 1.30231 -5.37845 -18.9107 21
527 1 -5.10937 -7.93098 5.2641 21
528 1 2.2255 12.006 -10.0038 20
529 1 16.6569 4.13472 3.85413 11
530 1 16.4057 6.95858 -2.65962 13
531 1 -7.44074 -11.1058 -5.11365 16
532 1 0.411811 -7.08498 -7.17825 20
533 1 -1.21954 -2.77937 -22.939 14
534 1 -3.80455 14.3938 8.96473 10
535 1 6.03126 -4.02461 -10.0732 22
536 1 8.29449 6.19613 -4.24386 22
537 1 15.9654 -6.01116 -4.02991 14
538 1 4.06334 19.2696 -13.2692 11
539 1 2.90343 -5.57795 -1.76975 21
540 1 16.045 11.1266 -14.0373 7
541 1 5.28854 10.7017 12.2233 15
542 1 -8.58612 4.37247 3.16173 22
543 1 4.81435 9.58919 6.08168 19
544 1 6.42377 3.32913 12.4687 16
545 1 2.73813 1.39307 -21.2617 15
546 1 -2.38022 -0.834925 -6.90574 22
547 1 3.12753 -1.36101 5.14985 19
548 1 8.03259 13.5186 1.92531 22
549 1 7.56636 9.00712 -15.9917 20
550 1 -8.15597 15.1672 -9.62861 19
551 1 -1.08195 17.1806 -6.19985 15
552 1 14.1193 -0.564952 6.16631 12
553 1 11.3731 3.85001 -16.1432 16
554 1 11.6026 -8.98658 -8.89279 14
555 1 12.854 13.174 9.04096 13
556 1 -12.6053 -4.70766 -2.29185 14
557 1 -4.43752 10.8827 -14.6998 18
558 1 2.60623 1.87009 11.2071 20
559 1 -13.5895 1.49922 9.87702 10
560 1 -2.39385 8.96164 -15.7677 18
561 1 6.00006 -10.987 -8.56072 21
562 1 7.14163 0.910705 -13.5783 20
563 1 -7.06888 16.4434 -6.49321 12
564 1 -6.34893 -3.15505 -16.5227 14
565 1 8.0822 -12.9975 1.62592 10
566 1 -9.9318 -3.78378 -3.48219 20
567 1 3.10534 11.7117 -19.1321 10
568 1 -4.94507 4.7086 -7.68671 17
569 1 0.241151 11.5004 8.75052 18
570 1 -10.9165 -3.77864 3.61369 20
571 1 7.92263 14.9765 -3.14565 20
572 1 -1.56563 -8.84157 -12.1641 20
573 1 6.91111 -4.55045 7.65714 13
574 1 9.90798 0.99714 -8.32258 24
575 1 -9.6729 10.4001 -1.98259 20
576 1 5.34099 8.57439 14.9215 9
577 1 6.85251 19.0279 -10.7027 10
578 1 12.1304 -4.30517 -7.48671 18
579 1 6.82809 7.54214 8.2393 20
580 1 1.78146 5.74943 -21.7699 11
581 1 -2.69944 -10.2524 6.60405 16
582 1 0.204774 3.07362 -11.8766 22
583 1 8.84056 -1.74634 -20.8477 14
584 1 2.025 17.4627 4.01578 13
585 1 13.3075 10.9944 -14.6768 14
586 1 0.934907 -0.285579 -16.3359 23
587 1 -4.62967 -11.2824 -8.21365 19
588 1 -9.36878 -2.07074 -16.2746 11
589 1 14.6381 5.44896 -1.37709 21
590 1 16.7369 7.26061 -9.99825 10
591 1 11.6586 -5.56183 -13.5928 21
592 1 14.7484 11.2754 6.93676 14
593 1 6.91604 -8.1465 -7.45571 20
594 1 4.68616 4.2541 -21.4393 12
595 1 5.89897 13.0111 -1.96757 23
596 1 -7.8737 5.74728 -2.42194 18
597 1 12.5837 13.0068 12.2867 6
598 1 13.2892 6.29725 -7.97327 17
599 1 15.8727 0.129318 -2.71889 13
600 1 14.9282 9.46311 -17.0882 10
601 1 12.8425 1.61567 7.66135 11
602 1 17.4077 5.77565 6.65835 11
603 1 7.34905 -3.80171 4.42883 20
604 1 12.6084 12.1943 -6.56246 18
605 1 9.2536 6.03367 -0.880833 20
606 1 1.97692 0.863478 13.9098 12
607 1 15.3468 1.31905 -9.05392 18
608 1 9.71252 4.15941 13.1386 11
609 1 -6.20498 1.63783 -11.9206 22
610 1 12.6779 8.68539 -1.27185 17
611 1 9.69888 0.756548 -1.8732 19
612 1 1.02105 -3.84697 -2.89668 16
613 1 -10.8093 9.12678 9.10738 11
614 1 10.9717 15.2017 6.82917 11
615 1 11.888 8.39915 6.29311 19
616 1 4.17742 9.28969 0.0839776 19
617 1 2.33474 17.2902 7.13996 9
618 1 6.56296 4.79823 1.30409 23
619 1 0.0410745 -15.7243 -0.93199 10
620 1 -6.75879 9.46117 -7.09921 20
621 1 12.6406 13.4164 -12.9421 11
622 1 11.0688 -3.71055 -18.5767 15
623 1 3.30836 16.8247 -5.75015 21
624 1 -1.97313 -11.8758 -13.5341 12
625 1 6.40038 -6.56776 -16.1358 20
626 1 -8.72169 1.84631 0.143621 21
627 1 -0.528878 7.0902 -15.7892 17
628 1 -3.34834 -15.4722 0.317729 12
629 1 -1.81046 -0.41869 -17.2044 19
630 1 -12.2978 0.213076 -11.0 15
631 1 10.7957 -5.6737 -0.449603 17
632 1 10.7523 14.8564 0.367548 20
633 1 1.30314 -6.30936 4.24553 19
634 1 -10.6247 3.12276 -12.2597 17
635 1 4.77033 1.01466 -23.1703 10
636 1 3.78872 0.466979 1.99796 19
637 1 -2.31303 9.00113 11.3193 16
638 1 9.37541 14.0442 -12.9774 19
639 1 15.1574 -0.696483 1.09075 11
640 1 10.5242 7.02532 -8.99992 18
641 1 13.7532 15.3812 -1.29044 10
642 1 4.73438 -12.2129 -12.2801 15
643 1 -11.0947 -0.456204 10.8604 11
644 1 13.3812 0.109485 -0.661324 14
645 1 0.651394 15.0314 8.85623 13
646 1 6.46941 16.6296 -17.3134 7
647 1 -10.4173 13.7622 -11.5149 15
648 1 11.7499 13.7646 -3.81226 16
649 1 -7.44514 -14.5293 -3.95648 12
650 1 13.8141 -2.27568 -2.39304 17
651 1 8.3449 19.3003 0.143123 10
652 1 -4.3483 7.19266 8.65847 20
653 1 -8.38299 -6.58918 -1.25285 19
654 1 -4.78454 4.63302 -13.7558 20
655 1 13.7789 5.12554 5.51332 20
656 1 -3.04805 -6.98638 7.31214 14
657 1 11.241 5.42837 8.16619 21
658 1 -4.37817 17.5121 -5.33516 14
659 1 11.6877 3.67139 -4.56926 22
660 1 8.76224 -1.81982 -3.37007 20
661 1 7.10596 7.34599 4.33711 22
662 1 1.58602 -1.11862 -21.8876 16
663 1 -6.65065 -0.251097 -1.18826 20
664 1 8.60309 3.39323 -16.5186 18
665 1 0.827837 -4.57077 -9.76469 19
666 1 12.5634 -9.3815 -11.7176 13
667 1 7.86273 10.8451 6.31156 21
668 1 7.38265 10.6819 3.36483 22
669 1 -11.2782 2.70482 11.4993 10
670 1 9.99917 11.4863 1.42292 22
671 1 -0.0153219 -0.0618485 10.6278 20
672 1 -0.325721 6.74282 5.56805 19
673 1 2.25002 -2.48292 -18.7546 20
674 1 -3.9563 3.72236 6.74864 19
675 1 -2.18225 6.68211 -8.39218 23
676 1 5.25782 5.02913 10.0282 20
677 1 -8.51051 -13.999 2.888 11
678 1 16.1335 7.1391 -6.89002 15
679 1 8.96501 -8.48779 -10.0478 18
680 1 0.839483 5.58445 -13.4334 21
681 1 4.65048 8.93885 -6.43932 21
682 1 11.4997 17.4794 0.895476 11
683 1 6.92241 -1.66646 -22.8264 10
684 1 -2.02717 1.23216 1.42144 21
685 1 3.45663 14.6238 -11.1667 20
686 1 16.0312 10.1515 -4.35008 11
687 1 -2.84856 -8.69383 -7.26033 21
688 1 0.490556 2.46819 -22.5801 13
689 1 -9.53386 14.6866 -2.9183 13
690 1 11.5819 -2.87321 -15.3498 20
691 1 7.53523 10.6201 -2.75519 19
692 1 8.28957 13.4306 -16.0757 14
693 1 10.2083 11.6903 -8.1096 21
694 1 -2.07422 3.28711 3.42487 20
695 1 -6.49379 7.64887 -4.85767 15
696 1 7.97282 8.55092 -8.61839 19
697 1 14.6993 5.44335 8.72005 12
698 1 10.784 2.20932 10.1451 13
699 1 -0.135458 -8.09319 7.27693 16
700 1 -3.61728 15.2263 -16.49 8
701 1 5.44898 9.67302 9.25897 18
702 1 8.37335 -6.72051 -21.3472 11
703 1 3.42619 2.00535 5.08285 18
704 1 7.84258 12.9758 -10.1044 19
705 1 7.18543 15.2041 -0.38081 24
706 1 15.7359 -4.87876 -7.15064 15
707 1 7.19595 8.72361 12.07 18
708 1 -9.74549 -1.30143 1.95413 20
709 1 6.37423 -15.0495 -3.37315 13
710 1 1.51429 0.460656 -13.2389 23
711 1 -9.84549 15.6228 -0.190543 15
712 1 1.65935 8.88329 1.99342 19
713 1 6.37448 -1.27855 -7.93869 21
714 1 7.55552 17.7142 -3.14389 17
715 1 -11.6243 1.15617 0.536683 21
716 1 -2.26161 4.41907 13.0995 12
717 1 -0.665176 7.2255 -20.5355 11
718 1 -4.75292 10.4872 -17.6157 14
719 1 4.3438 -10.9422 -6.27064 19
720 1 12.5417 9.55295 -9.15229 16
721 1 3.49512 -2.30636 0.259772 20
722 1 -1.2103 9.21552 0.0414105 21
723 1 -13.6067 7.33573 8.45229 13
724 1 7.95924 -4.38977 -18.9479 22
725 1 3.32802 -10.2599 4.60294 14
726 1 4.72805 15.3514 -2.56731 21
727 1 -3.67959 3.78048 9.92647 19
728 1 -3.37395 -2.56943 -12.1507 21
729 1 -2.82252 -8.11441 -17.7042 13
730 1 -6.70912 -10.2506 -11.8604 11
731 1 1.8059 19.8127 -10.6526 10
732 1 8.9294 -6.35731 -12.1942 15
733 1 -2.26517 13.0865 0.919623 16
734 1 6.34777 -9.33942 -16.7038 19
735 1 9.1725 -12.1115 -5.44853 11
736 1 4.14801 -4.57336 5.16965 17
737 1 16.2733 4.85794 -11.3538 14
738 1 2.42113 -12.1946 -7.60048 21
739 1 -6.35225 1.56885 2.03833 21
740 1 3.23265 3.36533 -10.1821 20
741 1 -1.3362 -16.1659 -4.21199 8
742 1 -6.15262 -8.4598 -7.51639 21
743 1 -11.6454 3.92166 4.70322 22
744 1 -4.53678 -15.8132 -3.05166 10
745 1 13.4476 4.18358 -10.9323 20
746 1 -0.0156031 18.2027 -0.984317 14
747 1 -4.75895 3.43233 3.45435 18
748 1 -12.2768 11.0915 -0.265076 16
749 1 10.9253 -3.26492 -2.20737 16
750 1 -10.3668 -0.89435 -13.5917 14
751 1 -0.556298 15.117 -8.25014 18
752 1 11.8116 2.64308 -13.2495 22
753 1 10.5323 14.0212 9.84177 13
754 1 10.1567 6.28904 -5.98642 20
755 1 -7.12561 5.24108 -15.8877 20
756 1 -10.0588 -5.85933 -10.89 13
757 1 -0.0140483 6.93015 12.9409 16
758 1 5.13141 9.21722 -14.4016 16
759 1 10.22 14.5538 3.74971 16
760 1 -5.16173 -1.12455 7.29202 17
761 1 0.127715 -15.2381 -7.42104 13
762 1 -6.02491 -13.2087 4.17934 14
763 1 -5.52636 -5.62445 4.76831 20
764 1 15.7288 12.862 4.14456 11
765 1 4.56521 -4.49976 -15.6175 20
766 1 -9.17309 9.12355 -4.81371 17
767 1 7.12496 11.1279 0.183604 21
768 1 -7.97877 -3.73845 -1.2978 20
769 1 8.46336 10.6833 -18.5327 11
770 1 -1.99417 -11.154 -10.1417 19
771 1 3.2312 -15.4514 -2.0145 11
772 1 3.48555 -12.7802 -4.09575 21
773 1 9.09411 2.89797 -14.0237 21
774 1 9.92602 17.396 -8.3682 11
775 1 2.46996 3.49706 -19.216 21
776 1 -0.838047 1.56363 13.4194 13
777 1 4.08755 6.16926 -18.738 17
778 1 -10.9921 0.559798 -16.7166 9
779 1 -10.8092 -0.380802 -5.23566 18
780 1 5.41016 16.988 -12.1771 16
781 1 10.1716 1.08637 -4.66843 23
782 1 -3.26435 -1.1651 -21.6396 13
783 1 -2.96959 -2.70779 -4.75356 18
784 1 13.5856 7.35047 -11.2117 21
785 1 13.2556 -8.21799 -3.43275 13
786 1 -7.65585 7.99423 8.20577 20
787 1 5.16093 -6.65456 -2.85222 21
788 1 16.5401 -3.66517 -1.96697 11
789 1 15.191 -2.54996 3.57188 10
790 1 -0.706525 15.0184 3.83259 20
791 1 -11.6791 3.86582 8.66217 19
792 1 -6.31026 5.79514 5.55644 22
793 1 -2.3559 -8.5435 3.96387 17
794 1 13.2299 0.932651 -3.95044 18
795 1 4.35792 10.2035 2.67326 19
796 1 -15.4454 0.0842896 -5.36347 10
797 1 9.05926 -4.33453 -5.96394 20
798 1 -7.34539 13.8793 -12.7504 20
799 1 4.34617 10.0659 -3.3323 19
800 1 4.85185 -12.3218 2.14549 18
801 1 5.41671 1.44386 9.93176 19
802 1 3.53592 15.5728 -0.187414 22
803 1 0.675837 -9.25013 3.87061 19
804 1 -7.05555 1.58763 -5.3449 18
805 1 3.9756 3.1041 7.93165 19
806 1 -13.4713 -5.03206 -6.39892 10
807 1 -0.840066 11.5303 12.7375 10
808 1 8.78572 14.3036 -6.84774 23
809 1 -11.1039 -9.83141 -0.38002 15
810 1 -3.87107 -13.8666 2.45321 16
811 1 10.0134 -5.80972 3.77266 14
812 1 12.4491 1.57537 1.33114 19
813 1 8.60305 13.0516 7.52228 17
814 1 1.98615 9.20268 -5.70966 21
815 1 -1.34869 -6.5199 -14.4377 19
816 1 0.198141 0.35566 -19.5776 19
817 1 -3.68374 0.188338 3.6741 20
818 1 -1.90171 17.2638 -3.65916 16
819 1 14.3594 3.18161 0.261156 15
820 1 2.5481 9.21087 -11.6545 20
821 1 -3.89195 11.9086 11.3517 10
822 1 11.2353 8.08122 9.38069 20
823 1 8.11903 -3.45026 -15.8099 22
824 1 -5.38601 -13.2583 -6.0154 13
825 1 -4.2918 -0.243256 -9.91837 20
826 1 14.7403 0.894428 3.78329 14
827 1 2.67144 -2.44498 -15.0784 22
828 1 0.859646 7.75599 9.71394 20
829 1 10.003 -10.3349 -13.3059 16
830 1 7.17467 5.86174 -20.1003 12
831 1 0.387495 -9.57774 -8.97546 21
832 1 13.1964 6.61789 -16.252 13
833 1 16.2494 -2.56586 -4.6697 14
834 1 4.40377 -3.09724 7.9601 18
835 1 -2.81616 -4.83159 -20.8686 14
836 1 10.4878 16.8193 -5.41414 13
837 1 3.05618 -6.2256 1.47373 21
838 1 -13.8233 6.02385 2.41965 16
839 1 10.678 5.73324 -12.0218 22
840 1 15.5544 7.79112 0.768806 15
841 1 5.98183 -3.80501 -20.7148 18
842 1 -7.72673 14.0773 1.62724 17
843 1 16.5673 10.4453 1.85351 10
844 1 11.8714 14.6511 -6.78631 14
845 1 4.08659 0.811334 -14.971 21
846 1 10.7343 -6.31491 -4.07655 20
847 1 -12.7227 1.90263 -4.60063 18
848 1 12.1108 10.7106 -3.62902 19
849 1 -11.0722 -6.80692 -4.49477 15
850 1 -6.72755 12.603 -15.6065 10
851 1 5.47247 5.61119 6.16947 22
852 1 -9.74045 2.63571 -9.73539 21
853 1 -10.7278 6.73557 3.35118 22
854 1 -0.991437 1.38793 -14.3786 21
855 1 12.8707 -5.76904 -17.2795 10
856 1 -10.5074 -6.39987 -7.42244 15
857 1 13.2599 -7.0927 -6.12569 17
858 1 -13.2082 5.59187 -0.506146 16
859 1 -4.8789 -2.64577 -8.13072 21
860 1 12.6667 12.8682 3.02666 20
861 1 -3.3476 -8.81097 -2.47227 18
862 1 12.2937 4.76321 11.229 14
863 1 13.1191 3.16167 3.55864 19
864 1 9.58732 3.52119 -0.0686294 24
865 1 -10.7077 7.07506 -2.43717 20
866 1 1.59986 8.86315 7.16373 20
867 1 1.17343 14.1695 -14.2527 15
868 1 0.0703185 -5.91254 -22.3796 14
869 1 -8.36126 16.6697 2.94733 14
870 1 -10.2505 -8.93427 2.88069 18
871 1 10.7531 11.6018 -11.597 20