ITEM: TIMESTEP
494000
ITEM: NUMBER OF ATOMS
500
ITEM: BOX BOUNDS pp pp pp
-30.0 30.0
-30.0 30.0
-30.0 30.0
ITEM: ATOMS id type x y z Coordination
1 1 -6.53394 -4.93883 -7.22478 8
2 1 -1.79093 6.03433 -4.84782 20
3 1 -1.07454 -6.04008 -5.65331 18
4 1 -9.37838 3.55759 -6.00482 9
5 1 -1.26545 -5.93817 -0.477509 19
6 1 -4.30155 -6.69488 0.00264407 17
7 1 2.6183 -8.45172 -1.2249 16
8 1 -2.73935 -8.45434 -2.97672 11
9 1 3.38858 -3.5722 1.70383 17
10 1 -8.81301 1.81409 2.08948 15
11 1 -10.1156 -1.35168 1.71027 14
12 1 -3.65203 -0.913423 -4.02838 19
13 1 -6.75818 -2.40989 -4.5456 15
14 1 0.868386 -6.34964 -2.86106 21
15 1 -0.622813 -7.69359 2.96403 14
16 1 -0.41907 -0.47043 -9.54181 14
17 1 1.62695 -6.34355 0.899111 20
18 1 1.51652 -5.52146 -8.76775 10
19 1 1.8833 -6.12628 -5.69845 16
20 1 -10.7724 -3.68027 0.545816 9
21 1 3.51326 -4.90403 -1.5604 23
22 2 -4.07416 -7.65697 -4.35928 10
23 2 -7.93651 6.36685 -5.81173 13
24 2 -7.77533 -0.740615 -4.54182 14
25 2 -4.86828 -1.62697 7.03111 19
26 2 -10.8427 -2.9965 2.49638 12
27 2 -5.55016 -1.22528 -3.01864 17
28 2 -6.27703 -1.44923 3.61815 18
29 2 -5.73681 -6.34297 -6.5297 10
30 2 -7.26886 -3.20269 -6.47438 9
31 2 -5.78208 -3.74589 -0.312505 19
32 2 -1.96583 0.12764 -8.71298 16
33 2 0.494771 -3.00694 -4.9316 23
34 2 1.40637 4.59152 -9.44372 15
35 2 -7.44562 -4.55563 2.61136 19
36 2 -5.11385 -5.2686 -3.09213 14
37 2 1.16887 -0.15525 -4.15768 19
38 2 -4.92713 -3.21808 -7.78618 14
39 2 2.7301 -5.41031 -3.51081 22
40 2 6.77852 -5.43807 3.97959 18
41 2 -7.7778 -5.96802 -0.906457 15
42 2 -0.614252 -3.72461 -0.0368418 20
43 2 10.2325 -4.86452 4.98576 13
44 2 -2.1952 -8.49648 -1.20947 12
45 2 6.91948 -4.39723 -4.78529 14
46 2 0.295268 -5.53699 -6.8388 18
47 2 -2.48478 -6.66661 -7.30585 11
48 2 -2.21162 -2.17483 -3.18263 20
49 2 -1.28097 2.84771 -1.06419 18
50 2 6.95029 1.9165 -3.78013 16
51 2 4.52459 -3.22724 -2.48524 17
52 1 -1.63788 -6.33253 -8.72435 10
53 1 -3.08559 -1.05074 1.46426 20
54 1 -7.64881 -2.74173 2.93533 21
55 1 -6.94111 -5.36954 -2.45344 11
56 1 -6.58278 2.17579 -4.46507 20
57 1 -4.62563 -0.318086 3.3837 21
58 1 -3.31263 0.696622 12.9116 9
59 1 -5.22149 -1.68254 -0.622684 17
60 1 -7.98456 -5.78636 4.18507 15
61 1 -1.80845 0.134961 4.40823 23
62 1 -1.51088 -3.85618 -3.75995 21
63 1 7.56435 -3.90791 3.1535 19
64 1 -3.20338 -9.50636 0.438348 8
65 1 -1.65223 2.56906 6.0231 21
66 1 5.29475 -6.59959 4.21105 18
67 1 0.410832 -3.25121 -6.94635 24
68 1 -6.70421 -8.17235 1.22297 13
69 1 -3.14183 -7.6742 8.59759 11
70 1 -9.2992 -6.96499 -0.530966 8
71 1 -1.93637 6.26547 -0.990583 18
72 1 1.00436 3.5944 6.19821 19
73 1 -2.3038 -9.26856 5.47004 11
74 1 -0.345394 -3.98844 1.69812 18
75 1 -5.22548 -5.73986 3.82983 15
76 1 -6.54818 3.15125 8.51142 11
77 1 4.3219 -7.78254 6.97431 14
78 1 0.986577 -4.06666 -1.27909 21
79 1 0.131783 -3.00108 5.43532 19
80 1 -9.71427 -6.21276 2.20892 12
81 1 2.66864 -6.83988 3.41201 18
82 1 -6.27114 -5.93191 7.21205 11
83 1 -5.97354 -2.50017 8.38343 16
84 1 4.91744 -6.33081 1.02227 21
85 1 4.11457 -8.73393 1.46122 12
86 1 -1.0599 -6.11206 5.97244 15
87 1 2.18474 5.65553 9.22497 13
88 1 -6.55169 -5.27955 0.964165 19
89 1 3.85329 -9.42961 5.07378 12
90 1 -5.12774 -2.22227 5.26403 20
91 1 2.32858 0.0178028 9.93677 14
92 1 -3.45025 -7.37888 2.63809 16
93 2 -10.2119 -5.47198 0.417434 11
94 2 -6.44413 -6.2214 5.42778 11
95 2 -3.14521 -5.34247 -0.286367 19
96 2 -4.52075 -7.73921 4.0983 14
97 2 -5.28094 3.67096 10.2015 11
98 2 -6.33835 4.29495 4.0007 16
99 2 -9.86951 0.485773 1.08484 12
100 2 -7.82654 -1.25819 7.20923 13
101 2 2.3675 -4.1921 0.146305 21
102 2 -2.83394 0.899857 -2.95185 19
103 2 -7.3221 -0.969027 -0.423371 18
104 2 -0.598301 -10.0983 5.7653 6
105 2 -7.00718 1.5035 1.3336 22
106 2 -6.72949 1.2166 8.71753 14
107 2 -9.9718 -5.49424 3.97508 11
108 2 -7.17845 -3.70636 -2.82851 13
109 2 2.06375 1.71057 10.571 14
110 2 -8.34627 -7.29039 1.54905 11
111 2 -2.07753 7.98699 -0.077057 13
112 2 -1.11862 -4.42493 5.1251 17
113 2 8.55212 -7.33182 4.75461 12
114 2 -0.755814 -5.94243 1.79428 17
115 2 0.523902 -4.25015 9.79725 15
116 2 -3.47737 -8.80689 7.03483 11
117 2 -5.63413 9.69276 -8.95203 8
118 2 1.47593 2.66713 4.59694 19
119 2 3.37432 9.74652 0.0160949 10
120 2 -2.06374 -4.25775 12.1569 8
121 2 -2.51875 -2.96381 2.49419 21
122 2 -3.4689 -2.53149 -0.484461 15
123 2 -1.05121 4.13478 10.5044 14
124 2 7.77364 -6.40604 -2.01952 10
125 1 -4.4409 5.78773 -9.63829 13
126 1 1.31633 -0.74877 -2.30983 18
127 1 -8.87936 -0.441067 -5.85398 9
128 1 -4.89979 0.669474 -6.68241 19
129 1 -2.30986 5.0122 4.9394 20
130 1 0.528135 0.632568 -7.06052 19
131 1 -8.00419 5.43528 -1.35387 13
132 1 -2.33599 -0.721736 -7.09961 18
133 1 -6.9887 8.43422 -9.35588 11
134 1 -6.17144 2.73042 -10.32 11
135 1 -6.80264 -0.51268 1.46887 20
136 1 -0.580367 0.0728367 11.8166 13
137 1 -7.92373 -2.75326 -0.998797 18
138 1 -6.60578 -0.53115 -9.70419 11
139 1 -2.93589 3.52741 -10.7763 13
140 1 -7.15193 4.46134 1.81234 12
141 1 4.21579 10.6886 1.41904 7
142 1 5.29016 -5.24431 -5.10917 17
143 1 -3.44231 0.988416 -9.64804 14
144 1 -6.29303 7.24591 -5.94003 18
145 1 0.422737 -1.58523 -12.1025 8
146 1 2.77183 -0.558181 -5.2513 24
147 1 -0.388284 4.03593 -5.4633 18
148 1 -4.41151 4.36024 -5.40902 16
149 1 -4.30484 -2.56934 -9.70628 12
150 1 1.65239 7.15557 1.77753 16
151 1 0.0447107 5.27881 -10.5079 11
152 2 -5.05209 -0.836478 1.40818 19
153 2 -3.59783 1.96009 -8.03467 18
154 2 1.49572 3.24556 0.376268 18
155 2 -4.50254 2.52062 -0.61961 18
156 2 1.39509 -0.275867 -0.540398 18
157 2 -8.00009 3.38972 -4.73109 17
158 2 -6.81119 6.9488 -8.31382 15
159 2 -8.04934 3.68547 -7.63172 14
160 2 -5.10103 2.54503 -5.45098 17
161 2 -4.66129 1.28389 4.51983 21
162 2 -3.66829 7.21284 -8.6426 17
163 2 -2.76427 -4.69374 -9.14872 10
164 2 -6.8931 5.67663 -2.95527 16
165 2 2.08 -1.5739 -10.9377 11
166 2 5.17738 -0.745877 -0.273493 18
167 2 -7.95288 9.04745 -7.75641 8
168 2 -7.02924 0.0301171 -6.74553 15
169 2 -4.74636 3.88954 -3.30087 18
170 2 6.33782 7.77817 0.0104218 10
171 2 -4.01545 -0.86052 -5.93481 19
172 2 -8.92586 3.78078 1.76213 12
173 2 -3.92501 4.92977 12.3696 8
174 2 3.85776 -1.24807 -8.99091 13
175 2 -0.1999 5.93808 -5.9856 18
176 2 1.6173 8.38903 -6.63318 13
177 2 -0.602553 -8.30447 -3.21515 13
178 2 -5.27397 8.82364 -6.3678 14
179 2 6.60043 -0.352114 2.18931 16
180 2 4.57812 -0.0705862 -6.24401 18
181 2 -6.62793 1.75158 -2.3276 20
182 2 -0.890184 3.84401 -11.413 9
183 2 3.87711 7.60692 -1.77009 15
184 2 0.742755 8.31335 -0.949757 11
185 2 -4.11658 8.84222 -3.2375 10
186 2 0.18344 0.38651 -11.8362 10
187 2 -1.17866 5.77068 -2.74834 17
188 1 -5.71693 -1.76275 -7.18851 15
189 1 -1.50139 1.21648 1.21308 19
190 1 0.58406 4.72261 3.92873 21
191 1 -8.6669 7.61648 -7.20824 9
192 1 -6.87437 5.01193 -8.15265 15
193 1 -7.95213 1.65093 -7.62362 14
194 1 -6.34051 2.01654 -0.414738 22
195 1 -4.95275 3.08559 12.354 8
196 1 -4.07544 0.0293558 6.94023 20
197 1 -8.90689 2.56081 -2.99575 15
198 1 -6.35479 5.31696 6.00543 11
199 1 -9.21472 -0.205748 -0.738376 15
200 1 -0.196087 4.00159 1.02395 18
201 1 0.526509 -6.01455 8.92968 10
202 1 -2.26224 7.1914 1.62058 17
203 1 -2.22898 1.52422 -4.64745 24
204 1 4.46022 0.452203 6.00985 17
205 1 -5.09187 5.19456 -0.66757 15
206 1 -7.9379 -0.488633 4.62738 17
207 1 5.28084 4.259 -0.854559 19
208 1 -0.999776 -0.189361 8.52474 19
209 1 -3.87812 5.36033 7.63495 16
210 1 -6.01654 0.593292 10.3186 11
211 1 2.56697 8.90947 -1.47161 12
212 1 -4.27363 5.38346 10.5916 10
213 1 -7.00819 -0.155184 -2.41374 17
214 1 -6.4121 2.3445 3.9514 18
215 1 -0.839193 5.80761 9.80393 11
216 1 -4.36524 2.2405 -2.51302 18
217 1 -1.90295 3.93911 12.1284 11
218 1 3.9315 -1.64073 -1.43652 18
219 1 -0.191669 8.92485 0.524646 11
220 1 0.402 -1.48634 0.72831 17
221 1 7.68697 4.41271 2.78817 11
222 1 -10.4526 -3.42867 4.39671 12
223 1 -8.722 -2.81497 7.03008 8
224 1 -1.25867 2.77619 9.21948 17
225 1 1.47583 -2.89493 10.8601 13
226 1 -3.15002 3.86072 0.869785 20
227 1 5.27711 7.38115 -6.13217 13
228 1 -4.4996 5.34127 3.39987 17
229 1 -1.07372 7.62332 3.94312 12
230 1 2.97984 6.37717 6.2584 12
231 1 -4.75923 -7.74742 6.00387 10
232 1 -9.46729 3.04578 -0.0944879 13
233 2 0.222569 2.77632 7.56555 23
234 2 -0.980109 1.1039 10.064 16
235 2 -4.6524 -8.33379 1.24515 12
236 2 -9.73967 1.70511 -6.65214 10
237 2 -9.09887 1.59091 -1.34758 14
238 2 -6.75992 4.74613 0.149957 16
239 2 -6.89437 -3.97348 7.44091 13
240 2 2.50058 4.15883 10.2628 10
241 2 -9.67891 -2.24646 -0.0499094 11
242 2 -4.89985 6.27723 5.52807 12
243 2 -4.40124 5.44154 1.37803 16
244 2 -1.71988 3.02467 2.08055 22
245 2 5.54466 -5.46146 -0.855949 19
246 2 -0.899678 -7.86546 4.93278 14
247 2 -8.65148 -1.01861 2.87766 17
248 2 1.09411 5.44278 2.33317 17
249 2 -0.549099 8.00894 2.09178 12
250 2 3.84699 3.91675 3.29869 16
251 2 -2.96823 3.96133 6.7698 17
252 2 -3.69492 3.84206 4.51709 21
253 2 -8.75897 -2.61523 5.0772 14
254 2 0.496929 6.38352 8.67168 12
255 2 -7.23648 1.34679 5.45493 15
256 2 4.5085 0.811932 4.07353 18
257 2 -2.23413 2.11119 12.4709 10
258 2 5.44675 -6.76366 -3.99947 14
259 2 -2.81693 -0.749852 8.17571 17
260 2 4.22545 6.97755 5.04459 9
261 2 2.68122 -8.71907 6.48526 12
262 2 -0.577846 -2.37287 7.50502 17
263 2 6.41952 4.5008 4.14866 10
264 2 -1.56802 7.06638 5.73414 13
265 2 -4.96539 6.02254 -5.47308 18
266 2 -8.9013 4.00907 -2.01973 12
267 2 -4.65074 -6.63003 7.7123 11
268 2 -5.76752 4.14313 7.27757 15
269 1 3.63855 -7.41091 -4.02748 13
270 1 0.913456 -9.43627 -4.15268 10
271 1 0.0643801 2.42538 -12.4425 8
272 1 5.94705 6.13305 -9.11755 10
273 1 -1.13417 -3.85451 -10.1272 14
274 1 -4.30925 -5.86624 -4.86638 14
275 1 -0.572033 8.83147 -9.58643 10
276 1 -4.03626 -7.6819 -6.72292 9
277 1 -4.33235 -4.09108 -1.57801 18
278 1 10.1866 -3.36824 -3.02785 10
279 1 7.2578 1.76438 -2.07172 20
280 1 -2.28244 3.25741 -7.663 19
281 1 -5.09337 6.00328 -3.12927 18
282 1 -1.96675 -1.79637 -1.19379 23
283 1 -0.506059 -1.48312 -4.64762 20
284 1 -2.7317 -3.6464 4.32678 17
285 1 0.845136 1.6843 -3.98411 19
286 1 1.49531 6.43833 -5.92172 18
287 2 -2.3969 -4.85088 -5.13103 17
288 2 5.75892 -7.15989 2.48374 18
289 2 2.92279 -0.381948 5.63827 18
290 2 3.49702 -8.82219 3.30775 15
291 2 3.37431 -5.09955 -6.0038 15
292 2 4.04634 -8.04541 -2.30061 15
293 2 3.92569 3.05322 -8.72324 14
294 2 -4.97787 -0.837944 -8.95362 14
295 2 5.2982 -2.48462 7.02557 14
296 2 -2.74519 0.566268 2.64452 18
297 2 1.95721 7.20863 -3.64919 15
298 2 -0.339824 -5.1293 -2.38099 19
299 2 3.50431 -5.34349 1.89445 16
300 2 0.655959 -2.13796 2.48282 16
301 2 -0.599191 -2.23281 -10.6314 14
302 2 -0.0831513 -5.45875 -9.66079 10
303 2 4.38456 3.03221 -4.54558 22
304 2 10.1098 1.75292 1.20082 15
305 2 12.3193 -1.61737 0.162742 11
306 2 1.51606 8.89079 -9.49552 7
307 2 -1.64132 -2.45118 -7.10887 22
308 2 -4.71337 -4.05262 4.45237 20
309 2 0.880737 -6.77549 -0.821739 19
310 2 1.49812 -9.20936 -2.40789 11
311 2 9.39005 -2.54363 -4.55955 11
312 2 1.98755 -3.75211 -7.88989 15
313 2 1.59685 -2.46643 -2.10365 22
314 1 9.13663 -0.462112 -4.03056 13
315 1 6.35779 -4.02175 6.12973 13
316 1 5.77444 -7.1737 -2.10781 14
317 1 7.74051 -5.29997 -0.159816 16
318 1 7.24153 0.218142 3.93873 19
319 1 10.7012 -2.77237 1.22339 16
320 1 -0.141092 -8.36122 -1.36257 13
321 1 2.65968 2.68251 -5.11195 23
322 1 -3.04111 -3.86683 0.962497 20
323 1 -0.139589 6.41369 6.89413 16
324 1 4.75128 -0.858525 2.91543 16
325 1 -3.49641 -5.40749 8.62896 15
326 1 4.47957 -2.45987 8.76293 12
327 1 2.65174 -2.06118 5.02569 15
328 1 -3.85033 -1.17169 9.97446 16
329 1 2.78272 -5.13223 6.44068 18
330 1 6.28393 -5.73861 8.63619 10
331 1 5.39011 -1.53723 -7.53461 11
332 1 7.58561 -6.91586 2.87663 14
333 1 11.4128 -3.10519 4.65227 11
334 1 2.77349 8.66061 -5.04692 12
335 1 6.33819 -3.68374 -1.59385 17
336 1 5.12858 -1.9654 -3.79959 18
337 1 10.9247 1.70156 -2.40162 13
338 1 7.4 1.67754 7.50924 11
339 1 3.67466 6.34318 -3.0393 16
340 1 1.2797 -0.368972 3.31682 19
341 1 -1.26093 -2.70447 12.3219 9
342 1 1.39751 0.842979 6.21313 21
343 1 2.14742 -3.47364 -3.80282 22
344 1 -2.43105 -2.29582 7.03218 19
345 1 -3.54202 2.37928 3.11946 22
346 1 9.14141 -1.61975 -1.3338 16
347 1 -3.22525 -5.58648 11.7232 5
348 1 9.89451 -5.25055 2.88295 14
349 1 7.24498 -8.64581 5.6492 11
350 1 9.95739 0.216269 5.97029 14
351 1 8.90837 -5.81005 5.92669 13
352 1 9.71838 1.95761 3.39612 15
353 2 9.53714 -3.52517 2.76589 19
354 2 9.10725 -1.69512 0.874382 18
355 2 3.64637 -2.2167 -5.15302 21
356 2 4.85996 -4.18705 8.83755 11
357 2 -2.787 1.14069 6.29332 19
358 2 -5.23433 -6.22696 1.88568 17
359 2 2.40634 -5.99571 8.1962 13
360 2 8.49725 0.152299 -2.22309 19
361 2 3.54802 -7.47778 0.227475 16
362 2 -2.86696 -3.75449 8.05965 18
363 2 -2.25046 -0.950305 12.2382 10
364 2 3.28576 -6.23748 4.98785 17
365 2 -1.9533 -8.46672 1.59101 15
366 2 0.318203 0.825611 2.10956 19
367 2 7.02737 -3.49209 0.455894 17
368 2 0.347959 -1.65033 11.5253 14
369 2 5.82079 2.79523 6.90545 10
370 2 7.57157 -2.78208 4.99397 20
371 2 7.41023 -5.62596 7.05285 14
372 2 -5.67991 -1.30233 9.6497 11
373 2 -0.957085 -6.24184 7.77981 15
374 2 -4.96098 1.19859 11.5552 11
375 2 1.83456 -7.8411 -4.81595 13
376 2 5.45125 -8.57054 5.56797 14
377 2 -2.25498 7.91835 -5.28861 15
378 2 2.24444 1.53342 -6.79232 19
379 2 5.01643 -7.05927 8.37057 11
380 2 -1.90597 -0.201454 0.0219516 19
381 1 5.72511 0.931153 0.487806 17
382 1 -1.96435 6.23518 -8.30256 18
383 1 3.35222 -3.3152 -6.68063 18
384 1 -0.694593 8.31155 -6.42755 15
385 1 2.07395 3.73609 -1.59887 17
386 1 -3.76183 8.93912 -7.964 15
387 1 -8.46704 5.27541 -4.25873 13
388 1 9.06657 -1.79241 4.11448 21
389 1 0.0724178 2.19812 3.55899 20
390 1 1.17529 3.74587 -7.804 15
391 1 8.21243 -3.33102 -5.8112 10
392 1 2.45128 -2.54587 -9.54414 15
393 1 -1.34723 3.99856 -2.63188 19
394 1 7.54173 5.07864 -6.94397 12
395 1 7.81227 -5.52228 -3.5475 12
396 1 5.80272 4.20405 -4.62069 20
397 1 5.75448 2.85523 -8.88319 9
398 1 -3.16692 -3.94394 -7.22818 20
399 1 11.9369 1.34352 0.447223 11
400 1 4.19334 4.76169 -7.24253 20
401 1 3.35018 0.802525 -8.32192 18
402 2 6.88594 4.3642 -8.67392 8
403 2 -2.67966 4.58245 -9.25506 14
404 2 2.07093 4.74827 -6.43995 16
405 2 6.09548 2.93238 -6.63596 15
406 2 9.0526 0.00811545 3.71805 19
407 2 3.36182 -2.03506 3.3624 14
408 2 -1.60061 9.00516 -8.01646 11
409 2 12.9587 0.648783 1.97459 11
410 2 -2.42971 4.37179 -5.90861 17
411 2 -5.65241 4.4056 -9.68064 11
412 2 -1.66049 5.31393 0.717612 20
413 2 -0.46768 2.94094 -3.88076 17
414 2 2.05172 2.17812 -11.4907 11
415 2 -0.998048 6.84272 -9.71255 14
416 2 -0.471153 2.99246 -7.20627 18
417 2 9.85153 1.36636 -4.32004 11
418 2 4.26293 -0.265329 -2.94772 21
419 2 3.32154 4.93494 7.53989 14
420 2 5.3731 2.14721 -1.18367 15
421 2 -7.31661 1.26609 -9.569 11
422 2 10.7245 -1.55027 5.91253 11
423 2 8.51015 -3.57955 -1.93622 17
424 2 -4.51194 2.25352 -11.0025 11
425 2 4.37724 9.04006 -6.22339 9
426 2 6.72233 6.85928 -7.35272 10
427 2 1.4376 -0.206614 -8.67389 17
428 2 10.8852 -1.74724 -2.18785 13
429 2 12.3773 0.925103 -1.38508 10
430 2 9.46185 3.38168 -2.10385 13
431 2 4.11792 6.44422 -8.16824 16
432 2 -1.13697 0.312029 -5.50367 20
433 1 2.97381 3.76811 -10.3654 12
434 1 2.10266 1.03172 0.551218 19
435 1 -7.16803 0.57138 7.05741 16
436 1 7.0518 3.02255 5.31953 15
437 1 2.01971 2.59773 8.82695 15
438 1 4.36793 3.21415 7.78598 12
439 1 6.99949 -1.7753 0.923431 19
440 1 1.33003 -2.08277 7.91763 17
441 1 4.70439 5.35552 3.95298 15
442 1 3.59287 -5.73434 9.52603 11
443 1 -6.45833 10.0285 -7.34292 9
444 1 4.61854 7.10198 0.600448 18
445 1 -3.81116 9.2447 -5.06016 12
446 1 2.90313 4.44759 1.51861 17
447 1 2.79225 7.77968 -8.47732 12
448 1 7.19259 -1.54967 6.59047 13
449 1 -3.73873 7.62761 5.11956 10
450 1 -2.34357 1.1943 -1.02878 16
451 1 -4.39777 2.59138 6.24241 20
452 1 7.52186 6.13954 0.36034 10
453 1 5.80444 7.20376 -2.13607 13
454 1 3.45439 2.09817 3.40384 19
455 1 -1.04162 -3.81334 8.85899 19
456 1 0.793869 -8.9152 6.07023 14
457 1 4.49024 8.42072 3.88806 8
458 1 4.33794 1.53773 -2.9086 21
459 1 0.342827 7.10951 -2.51237 16
460 1 -3.56295 8.34361 -1.55795 10
461 1 8.82857 5.19115 -2.89869 10
462 1 2.85566 2.86787 11.6591 5
463 1 12.5321 -0.993803 -1.60018 10
464 1 5.87813 1.23238 -5.34564 18
465 1 2.11688 0.385947 -11.3658 12
466 1 12.9155 1.31248 3.75003 8
467 1 12.8048 -1.37368 1.7833 11
468 1 8.75558 2.72225 -4.55519 13
469 1 9.21678 0.078113 1.346 19
470 1 9.11076 3.31355 -0.243319 14
471 2 0.00443778 0.310772 4.97491 20
472 2 3.67757 1.19339 1.41134 15
473 2 1.23094 5.60581 5.89318 16
474 2 3.44286 1.59714 7.30986 16
475 2 -0.935164 3.65514 4.61308 22
476 2 -3.00289 -1.70476 5.05671 20
477 2 3.7666 4.56883 -1.88385 17
478 2 5.7024 5.55161 0.443746 16
479 2 5.04572 6.00672 -4.56549 19
480 2 -3.16691 7.44215 3.28274 12
481 2 -3.85483 6.20452 -1.81931 18
482 2 8.00747 4.60396 -4.57805 13
483 2 3.66195 7.01942 2.29647 13
484 2 8.5394 0.0906751 7.32984 12
485 2 1.85959 -3.37168 6.42484 18
486 2 2.63212 -1.88533 9.32286 14
487 2 8.70846 3.26457 4.08403 11
488 2 6.73956 -2.32798 -6.83506 11
489 2 10.9844 1.14717 4.68389 12
490 2 1.23728 -7.59771 2.86254 14
491 2 7.50926 6.08831 -1.96773 15
492 2 6.80408 0.107911 5.70792 16
493 2 2.50136 2.31594 -3.19007 16
494 2 8.34952 4.3616 1.00861 11
495 2 3.80261 10.0582 3.16563 7
496 2 -2.8353 5.75659 9.34861 12
497 2 -2.71473 -6.4094 10.0262 11
498 2 0.917971 -0.123755 8.47348 19
499 2 8.37364 -6.18629 1.45642 12
500 2 11.98 -2.42483 2.96987 13
