ITEM: TIMESTEP
377000
ITEM: NUMBER OF ATOMS
500
ITEM: BOX BOUNDS pp pp pp
-30.0 30.0
-30.0 30.0
-30.0 30.0
ITEM: ATOMS id type x y z Coordination
1 1 -9.30294 -1.70878 -6.59803 9
2 1 -4.76983 -2.72872 -8.60846 14
3 1 -5.46607 -6.67204 -6.20229 15
4 1 -8.21229 -2.78022 -3.69229 15
5 1 -3.24492 -6.006 -8.44208 19
6 1 -5.05758 -8.41504 -3.7046 12
7 1 -1.57749 -6.71496 -5.39666 20
8 1 -2.17188 -8.65055 -9.91385 10
9 1 -5.57241 -1.35359 -5.9054 19
10 1 -3.70264 -4.08696 -6.0468 20
11 1 -3.58383 -5.70444 -3.25105 21
12 1 -5.31674 -3.23253 -3.26424 22
13 1 -4.72302 -9.12514 -7.63044 8
14 1 -1.28236 -9.60477 -7.64035 10
15 1 -2.39386 -9.01977 -3.69476 15
16 1 -0.124425 -6.40596 -8.64439 18
17 1 -1.75529 -2.99998 -8.65677 17
18 1 -2.38098 -1.11449 -6.46415 22
19 1 -0.360934 -4.22723 -6.67209 21
20 1 -0.0081071 -6.42262 -2.64143 22
21 1 -1.60984 -3.18585 -3.72445 25
22 2 -5.05398 -7.03652 -8.27246 11
23 2 -8.54246 -3.29512 -5.50831 13
24 2 -6.88078 -5.77165 -5.27572 15
25 2 -7.88148 -2.28122 0.310859 16
26 2 -10.2031 -0.775204 -5.09146 10
27 2 -7.32621 -3.89815 -2.38753 16
28 2 -4.09549 -9.45615 -2.54211 13
29 2 -5.41775 -8.57194 -5.57862 11
30 2 -1.77283 -6.99876 -9.39598 14
31 2 -2.97239 -9.64091 -8.04304 9
32 2 -5.49629 -3.3423 -6.62835 17
33 2 -5.76399 -1.12676 -8.66701 10
34 2 -3.54315 -4.04479 -8.54682 14
35 2 -3.44836 -5.88891 -1.04443 20
36 2 -4.6878 -2.98842 -1.21965 22
37 2 -6.12102 -1.549 -3.94588 18
38 2 -3.60418 -4.03715 -4.00341 22
39 2 -1.51472 -8.49091 -6.161 15
40 2 -2.08783 -9.58416 -0.367849 14
41 2 -1.65473 -6.65238 -3.59563 19
42 2 -2.8488 -5.68299 -6.53391 20
43 2 -0.671236 -9.2229 -3.11674 13
44 2 2.0849 -7.36849 -9.0611 10
45 2 -1.88526 -2.90584 -6.50509 21
46 2 -2.12549 -0.945549 -8.892 15
47 2 -0.00638428 -4.36949 -8.70719 18
48 2 -0.0125455 -6.11602 -0.658148 21
49 2 -1.65757 -3.12569 -0.790709 22
50 2 -1.83169 -1.51409 -3.20233 22
51 2 -0.0225785 -3.89612 -3.1508 23
52 1 -7.37562 -4.32742 -6.32807 13
53 1 -6.92529 -5.59465 -3.327 14
54 1 -8.84429 -0.917842 -0.632062 16
55 1 -7.03355 -3.51022 -0.638054 19
56 1 -6.4594 -5.54586 2.25757 15
57 1 -8.1085 -2.23343 2.1198 17
58 1 -8.33563 -0.371843 4.58097 15
59 1 -6.95135 -3.21891 4.47574 15
60 1 -7.44569 -2.10605 7.43824 13
61 1 -4.345 -2.1948 8.38933 16
62 1 -5.15267 -6.60682 -0.526309 20
63 1 -4.26368 -10.0163 -0.884008 10
64 1 -4.98007 -8.70162 1.91102 14
65 1 -5.03697 -6.69839 4.78067 16
66 1 0.861907 -7.74198 3.25097 13
67 1 -4.82401 -1.10576 -0.481446 21
68 1 -3.29621 -3.95056 -0.48321 23
69 1 -3.28307 -5.78341 2.52096 25
70 1 -5.27734 -3.05346 1.8033 21
71 1 -5.25566 -0.720237 4.90504 20
72 1 -4.19159 -3.56996 5.2597 20
73 1 -3.4364 -7.6635 7.23157 10
74 1 -6.1354 -5.036 7.33781 13
75 1 -6.37208 0.471753 9.53605 12
76 1 -0.682299 -2.10244 12.4971 10
77 1 -2.28777 -7.45983 -0.422907 23
78 1 -0.226182 -9.97359 -1.41617 12
79 1 -1.63157 -9.22415 1.52188 15
80 1 -2.40281 -9.11205 4.01836 13
81 1 -0.254942 -5.43924 7.53033 18
82 1 -3.35267 -5.17994 7.9941 19
83 1 -2.00174 -1.17336 -0.463272 21
84 1 0.100899 -3.74375 -1.24291 21
85 1 -0.638973 -5.52367 1.0581 21
86 1 -1.90985 -2.78679 1.73541 19
87 1 -1.87054 -0.235434 5.25438 19
88 1 -0.278416 -3.56651 4.22781 21
89 1 -2.169 -6.29338 5.50413 16
90 1 -1.80053 -2.39355 6.96397 16
91 1 2.23629 0.0466913 8.16175 17
92 1 -1.24435 -2.76363 9.87648 17
93 2 -8.71159 -0.475283 2.60733 15
94 2 -6.16128 -5.00309 0.378511 17
95 2 -5.96112 -5.03896 5.26627 16
96 2 -7.71462 -1.84234 5.60426 16
97 2 -9.32239 2.51586 2.97965 15
98 2 -7.57772 -3.89698 2.71934 12
99 2 -9.10378 0.888028 5.79244 15
100 2 -5.75845 -3.47155 8.15117 13
101 2 -4.689 -8.42772 0.00302875 15
102 2 -5.2686 -6.91181 2.83948 16
103 2 -5.3979 -6.58131 -3.08613 16
104 2 -4.74812 -6.37544 7.1415 13
105 2 -3.45448 -9.52836 2.66565 13
106 2 -5.24527 -2.63798 3.84851 20
107 2 -4.83022 -1.13441 1.37333 23
108 2 -3.50447 -4.10921 1.35684 22
109 2 -3.31188 -3.35197 6.82393 22
110 2 -4.69062 -0.365874 9.41129 15
111 2 -5.47534 1.49467 7.01232 19
112 2 -3.48519 -5.36888 4.33824 22
113 2 -1.78399 -6.36019 7.50878 14
114 2 -1.8477 -7.11539 1.52956 20
115 2 -0.569682 -8.7183 3.22952 12
116 2 -2.97142 -8.02531 5.29208 14
117 2 -0.448571 -5.41558 5.37604 20
118 2 -1.31678 -2.08378 5.08253 17
119 2 -1.51058 -0.923531 1.51277 23
120 2 -0.472005 -4.08998 2.25405 21
121 2 0.329792 -3.04138 11.1013 13
122 2 -0.424158 -3.56968 8.06803 20
123 2 0.37315 1.5387 9.22085 14
124 2 2.4226 -1.14549 6.84937 16
125 1 -10.0452 2.06141 -1.21714 12
126 1 -7.54662 -0.330155 -9.01682 9
127 1 -6.71002 4.22225 -5.65493 16
128 1 -8.46656 1.91436 -7.38353 10
129 1 -6.93765 -0.0540506 -3.06899 18
130 1 -10.411 -0.26548 -3.47983 10
131 1 -8.21734 6.23396 -4.5259 10
132 1 -3.99046 0.100564 -8.72765 14
133 1 -5.5687 2.89381 -8.58604 14
134 1 -5.32373 7.48374 -5.93304 13
135 1 -4.0712 1.57771 -5.85302 18
136 1 -3.13569 -0.417409 -2.8148 23
137 1 -5.14024 2.41652 -2.88746 20
138 1 -4.40456 5.34766 -8.32772 14
139 1 -3.59497 9.26302 -4.05231 15
140 1 -3.93709 5.94266 -3.30579 20
141 1 -5.40718 10.8722 -1.74148 7
142 1 -0.686648 0.270865 -9.32942 15
143 1 -1.99521 2.85548 -8.09917 20
144 1 -3.10937 4.37759 -5.40434 22
145 1 -0.624902 1.35643 -5.63433 22
146 1 -0.166913 -0.459105 -3.35986 22
147 1 -2.45111 2.69424 -2.88464 23
148 1 -1.22699 5.99456 -8.71049 12
149 1 -1.42217 9.35094 -6.92124 10
150 1 -1.08481 5.20189 -2.94636 22
151 1 -0.545578 8.40928 -4.17929 22
152 2 -8.94688 -1.44252 -2.56037 14
153 2 -10.0209 1.66161 -3.01177 13
154 2 -8.77893 -0.112694 -7.78308 9
155 2 -6.92134 1.51591 -8.74167 10
156 2 -6.42373 0.0847012 -1.14949 20
157 2 -9.45225 3.56187 -0.296455 13
158 2 -6.95674 6.30458 -5.75241 13
159 2 -6.94214 1.95501 -3.26527 16
160 2 -8.19625 2.92351 -5.92435 13
161 2 -8.0231 4.65825 -3.55555 14
162 2 -7.22305 5.84861 -0.57491 15
163 2 -4.04201 -0.234296 -6.63621 20
164 2 -5.75074 4.31329 -7.27084 14
165 2 -3.79823 2.39946 -8.34618 15
166 2 -3.45461 0.0926552 -0.984485 20
167 2 -4.71566 2.82265 -0.795712 19
168 2 -4.89562 3.31696 -4.88222 18
169 2 -3.96281 1.07207 -3.86052 21
170 2 -4.04821 6.44789 -6.94487 16
171 2 -3.93999 6.06904 -1.17152 19
172 2 -4.69096 7.45304 -4.01365 17
173 2 -3.8064 10.5352 -2.62971 10
174 2 -0.606761 -0.379781 -6.33454 22
175 2 -2.28569 2.62224 -5.7866 18
176 2 -2.45393 4.68031 -8.72834 15
177 2 -0.434745 2.03974 -9.02231 14
178 2 0.015185 -0.059885 -1.37248 23
179 2 -1.95013 3.02061 -0.615907 21
180 2 -2.93407 4.49216 -3.06452 21
181 2 -0.664578 1.98731 -3.18163 21
182 2 -2.12787 7.94433 -3.19419 18
183 2 -1.52366 5.44986 -5.59147 23
184 2 -0.658073 5.87335 -0.837109 20
185 2 -1.6395 9.32422 -0.631846 14
186 2 0.592233 8.58731 -5.93185 17
187 2 -2.6348 8.83191 -5.57148 15
188 1 -8.58481 2.57235 -3.97927 15
189 1 -9.79324 0.861992 1.78032 15
190 1 -9.38024 2.64231 4.66389 13
191 1 -8.51115 4.74614 -1.52213 13
192 1 -6.37514 1.60907 -0.0997885 21
193 1 -6.43581 0.239545 2.28133 22
194 1 -8.70881 3.48216 1.5369 15
195 1 -7.83298 5.4582 4.6072 15
196 1 -6.16143 2.142 5.37389 20
197 1 -9.29144 0.719789 7.70008 11
198 1 -6.68734 7.3515 -1.98617 15
199 1 -7.14883 6.1412 1.40416 15
200 1 -4.42724 5.41301 4.9056 16
201 1 -2.63716 4.35415 7.47397 16
202 1 -5.2021 4.83703 -0.429318 19
203 1 -3.30937 1.72217 0.0079444 22
204 1 -3.3909 0.207555 2.4904 21
205 1 -5.02028 3.2537 2.48947 21
206 1 -9.03869 4.24795 7.52118 9
207 1 -3.07373 2.55352 4.99937 20
208 1 -3.4833 -0.381168 11.1634 12
209 1 -6.81148 2.84256 8.38854 14
210 1 -3.61783 2.69536 10.2786 13
211 1 -3.2501 7.87971 -1.32358 22
212 1 -3.81288 6.42747 1.94928 21
213 1 -5.31746 8.65754 0.962526 14
214 1 -5.77568 7.72474 4.00006 14
215 1 -6.03202 6.26393 7.35613 9
216 1 -2.42721 4.82388 -0.23527 20
217 1 -0.494273 1.76296 -1.08443 23
218 1 0.0917101 0.203106 2.35841 22
219 1 -1.69127 3.40493 2.29456 21
220 1 -0.697583 5.00466 5.69514 20
221 1 0.266273 2.14091 4.55134 20
222 1 -0.6197 1.80367 7.48389 20
223 1 -3.7197 0.851038 7.52689 20
224 1 -0.742284 3.85986 10.2127 11
225 1 -0.461541 0.504962 10.8423 15
226 1 -1.98333 10.3504 -2.24755 12
227 1 -0.0404037 8.06352 -0.946729 19
228 1 -0.0650666 5.91356 1.08921 19
229 1 -1.55723 9.068 1.28801 16
230 1 0.0995877 9.31769 4.63552 9
231 1 -0.512583 7.51602 7.796 10
232 1 -2.10791 7.81804 4.44207 14
233 2 -8.7515 2.42998 8.61165 10
234 2 -9.63649 0.616712 0.0644309 15
235 2 -6.75294 0.87652 4.05666 19
236 2 -9.09557 4.41107 5.47529 10
237 2 -8.04026 5.03864 2.69753 15
238 2 -6.0313 2.04955 1.66934 19
239 2 -7.86779 -0.757325 8.56303 12
240 2 -7.23812 4.73309 7.94862 11
241 2 -5.99993 9.19808 -1.21962 12
242 2 -3.43428 0.4298 4.45961 20
243 2 -4.88167 3.618 4.50829 20
244 2 -5.12045 5.00561 1.50451 23
245 2 -3.41046 2.2159 2.05584 20
246 2 -2.59351 1.36634 10.8917 12
247 2 1.09371 4.48904 10.1125 10
248 2 -5.54882 2.29556 9.59417 12
249 2 -2.43779 -0.677706 7.13978 18
250 2 -3.7108 7.33044 3.77749 15
251 2 -6.40192 7.73408 2.09323 12
252 2 -3.32167 8.15355 0.898159 19
253 2 -4.0409 5.84442 6.91443 15
254 2 -6.22095 6.24056 5.10399 14
255 2 0.0833243 0.041548 4.47461 21
256 2 -1.49098 3.28335 4.42455 20
257 2 -1.94513 5.25323 1.5972 19
258 2 -0.256569 1.98302 1.939 20
259 2 0.516347 -0.386157 12.232 11
260 2 -1.21447 5.70889 7.58412 17
261 2 -2.56541 2.36386 6.71276 19
262 2 3.66702 2.17175 10.5648 11
263 2 1.13328 5.21768 5.39094 18
264 2 -1.34 8.96394 3.20574 12
265 2 -7.75628 7.49889 -3.27496 9
266 2 0.243983 7.92372 0.78215 16
267 2 -2.34799 3.74047 9.26744 12
268 2 -0.87266 7.95993 5.8726 12
269 1 1.32212 -9.016 -9.95798 7
270 1 1.8076 -6.16491 -5.65762 19
271 1 1.06804 3.47223 -8.67728 14
272 1 2.95562 -5.92017 -8.67639 13
273 1 1.02326 -2.73932 -9.57825 14
274 1 0.894004 -1.46177 -6.12709 25
275 1 3.05881 -3.91976 -6.61435 20
276 1 3.24673 -5.99446 -2.86131 23
277 1 1.64909 -3.33756 -3.78059 22
278 1 4.8971 -7.0613 -5.82936 16
279 1 7.44224 -8.96794 -3.02851 13
280 1 4.21629 -2.37821 -8.81026 13
281 1 4.21326 -0.725505 -6.55326 19
282 1 6.1725 -3.9135 -5.92646 18
283 1 6.23972 -5.8629 -3.1958 20
284 1 4.47309 -2.95643 -3.21622 23
285 1 9.83575 -3.39649 -6.21736 10
286 1 7.77584 -3.04204 -3.53659 26
287 2 -0.502822 -9.21069 -9.37521 8
288 2 1.36576 -8.9541 -0.840399 15
289 2 -0.158551 -6.06205 -6.49656 20
290 2 1.80718 -6.94866 -3.80296 20
291 2 3.50759 -5.97307 -6.71757 15
292 2 1.38444 -3.28552 -5.90442 19
293 2 1.1648 -1.04393 -9.8564 13
294 2 2.50044 -3.47218 -8.73779 17
295 2 3.02041 -5.84879 -0.782041 22
296 2 1.73578 -2.95266 -0.60418 21
297 2 1.33424 -1.15955 -4.15524 23
298 2 3.24494 -4.2104 -3.62369 22
299 2 3.23343 -9.1332 -2.6688 15
300 2 6.48763 -9.94497 -4.20247 8
301 2 6.50752 -5.73444 -5.74915 13
302 2 4.48762 -2.76628 -6.8711 19
303 2 4.49764 -0.510281 -8.5851 12
304 2 6.09714 -5.75298 -1.18932 23
305 2 4.62665 -2.82874 -1.45138 24
306 2 4.68964 -0.840301 -4.30207 23
307 2 7.74609 -7.02646 -3.1994 16
308 2 4.77497 -6.95867 -3.73366 20
309 2 6.01803 -3.87373 -3.94254 22
310 2 9.43663 -7.39868 -0.11618 14
311 2 8.10924 -3.18844 -1.74769 21
312 2 10.6291 -5.00275 -1.92075 11
313 2 9.89461 -5.0391 -4.95593 10
314 1 1.60973 -7.08829 -0.0695531 21
315 1 4.6615 -8.95191 -3.68311 14
316 1 3.07372 -9.70467 -0.916335 10
317 1 1.72643 -5.88074 5.69172 17
318 1 4.16901 -8.39195 3.59577 12
319 1 1.59512 -7.09441 8.97589 7
320 1 1.32008 -1.11759 -0.579501 22
321 1 3.13238 -4.06703 -0.183843 23
322 1 2.84628 -5.66266 2.53525 21
323 1 1.40034 -2.87814 2.28188 23
324 1 1.6882 -0.957899 4.89222 21
325 1 3.67096 -3.44017 4.76776 21
326 1 3.54715 -4.61658 8.19668 13
327 1 1.58898 -2.65775 8.08193 19
328 1 2.46316 -0.789538 13.1166 8
329 1 2.23791 -4.00127 10.9924 13
330 1 4.64761 -6.78298 -0.0281753 19
331 1 9.25913 -6.77566 -1.98222 14
332 1 1.29433 -8.71986 -3.1126 15
333 1 5.57388 -6.62856 4.99925 13
334 1 4.38713 -1.08595 -0.648556 22
335 1 6.41038 -3.83583 -0.879277 23
336 1 9.01901 -9.16835 0.278103 9
337 1 4.92953 -2.87317 2.09575 20
338 1 5.14307 -0.504144 4.64968 17
339 1 6.96427 -3.03985 4.75556 14
340 1 6.20792 -9.5479 -0.266446 13
341 1 4.95862 -1.7528 7.71884 17
342 1 3.34445 -1.25242 10.24 15
343 1 8.36377 -6.23427 -5.06397 14
344 1 7.56279 -8.27422 3.06838 12
345 1 8.17119 -0.926634 -1.194 19
346 1 11.0025 -4.58043 -3.54036 11
347 1 9.25055 -5.7991 1.13025 14
348 1 6.44758 -5.74533 2.1481 19
349 1 9.74234 -0.892897 4.31618 10
350 1 8.76747 -2.52129 1.92007 16
351 1 7.66983 0.265958 6.33083 16
352 1 9.89487 -3.61157 -0.906833 14
353 2 5.99069 -8.17775 4.06546 9
354 2 1.05277 -6.51806 1.89825 19
355 2 4.21912 -6.94451 2.05618 20
356 2 -3.26934 -3.81181 9.30854 15
357 2 5.12486 -2.27385 4.08369 17
358 2 1.5749 -2.89358 4.3657 18
359 2 1.26913 -0.853842 1.30208 22
360 2 3.22363 -3.86503 1.73676 21
361 2 1.44196 -6.65583 7.21497 10
362 2 -1.94687 -1.26073 11.5751 9
363 2 0.621316 2.50028 6.56263 19
364 2 2.92696 -4.46005 6.17211 20
365 2 4.60394 -8.75513 -0.337757 16
366 2 7.82923 -9.17084 -1.42457 11
367 2 2.8143 -7.05986 4.30312 14
368 2 6.00045 -4.96271 4.30551 17
369 2 6.38247 -1.48181 6.32327 14
370 2 4.69488 -1.09343 1.29053 21
371 2 6.36852 -4.11143 1.1681 21
372 2 2.32914 -5.4304 9.67751 10
373 2 9.58902 0.568456 5.76495 10
374 2 1.46839 -1.17888 9.31483 18
375 2 7.32469 -8.90899 1.26922 13
376 2 8.10949 -6.60377 2.41956 12
377 2 8.26951 -1.0923 0.732269 17
378 2 9.24493 -3.92074 0.974165 13
379 2 8.34088 -2.00084 3.86442 14
380 2 10.6161 -2.38085 -4.61898 12
381 1 2.5209 -0.020326 -9.14842 14
382 1 0.341758 4.84462 -5.77624 22
383 1 3.30843 4.55731 -6.30986 22
384 1 2.45569 1.74439 -6.00401 21
385 1 2.95633 -0.182549 -3.43069 21
386 1 1.09084 2.76077 -3.58952 24
387 1 1.34089 7.1123 -7.2797 17
388 1 2.15824 9.58847 -6.37719 10
389 1 2.25252 6.07591 -3.65754 20
390 1 -2.51524 6.95132 -5.92658 20
391 1 5.62954 1.03398 -8.2232 13
392 1 4.51095 4.35666 -9.20313 9
393 1 4.52637 7.04099 -6.61366 15
394 1 5.89344 3.59846 -6.81719 15
395 1 6.4723 -0.0526864 -3.73203 19
396 1 4.30035 2.5869 -3.9899 18
397 1 6.79861 6.25386 -4.7112 12
398 1 4.35256 8.68495 -3.96918 15
399 1 7.61215 -1.48245 -6.33891 15
400 1 9.63297 -1.00725 -3.8362 13
401 1 7.9376 3.06764 -4.59412 13
402 2 2.32423 -4.82793e-04 -6.95562 20
403 2 0.983393 2.96193 -5.56744 21
404 2 0.414283 5.2474 -7.92073 16
405 2 2.80346 3.68381 -8.61129 16
406 2 2.96574 0.01886 -1.38991 23
407 2 1.30118 2.95139 -1.18244 20
408 2 0.61501 4.86472 -3.42738 16
409 2 2.67265 1.4812 -4.0099 19
410 2 3.05304 8.20522 -7.45961 11
411 2 -1.18958 7.54187 -7.60423 13
412 2 3.03572 6.08255 -1.89518 17
413 2 -0.290788 10.1282 -3.15237 12
414 2 3.05184 9.86713 -4.64485 13
415 2 5.4041 7.44119 -4.93233 13
416 2 7.93873 -3.47188 -5.80919 15
417 2 4.84006 5.21404 -7.2942 13
418 2 5.55238 2.91692 -8.48372 10
419 2 6.3091 -0.221802 -1.36551 21
420 2 4.54477 2.99208 -1.99892 19
421 2 2.25222 5.99938 -5.59573 20
422 2 6.38757 1.92129 -3.82537 16
423 2 4.21759 3.19296 -5.70653 19
424 2 7.46893 6.61872 -2.98098 13
425 2 6.20079 7.34012 0.211239 14
426 2 4.89671 8.5844 -2.1635 15
427 2 6.74789 -0.0257611 -6.98316 13
428 2 9.39394 0.227695 -2.33621 16
429 2 9.01553 3.51521 -3.20928 12
430 2 6.98749 4.32952 -5.33268 14
431 2 7.93119 -1.26234 -4.2921 17
432 2 8.09663 4.66914 -0.58091 15
433 1 1.17817 4.84918 -1.36644 22
434 1 3.2228 1.97012 -1.05594 21
435 1 3.20193 0.0894356 1.93538 21
436 1 1.80738 2.7479 1.58642 20
437 1 1.93808 4.917 3.63393 17
438 1 3.47105 1.92479 4.14823 20
439 1 4.93079 1.49742 8.52771 19
440 1 2.22111 3.50144 6.48292 21
441 1 2.12874 5.82037 9.16986 14
442 1 1.82413 2.74516 9.97969 16
443 1 1.657 10.3068 -2.86122 11
444 1 3.33492 8.01591 -1.29378 18
445 1 3.11796 5.84301 1.12571 20
446 1 1.51617 8.76628 1.86469 16
447 1 3.76788 8.24729 4.1736 15
448 1 4.76672 4.48306 8.46142 21
449 1 2.27834 6.55773 6.24511 19
450 1 4.69588 4.91007 -1.46077 18
451 1 6.10332 1.87146 -1.7018 20
452 1 6.55006 -0.191699 0.76156 18
453 1 5.07944 3.11417 1.21841 21
454 1 4.77495 4.76987 4.5372 24
455 1 6.9945 1.91102 3.51741 17
456 1 5.08928 2.75048 11.2767 8
457 1 4.7397 7.96268 7.59932 10
458 1 6.36283 7.56661 -1.67146 14
459 1 6.84665 5.61599 0.797174 17
460 1 4.96964 8.39672 0.93153 14
461 1 6.59443 7.62151 4.00581 13
462 1 5.63189 2.6385 6.27341 20
463 1 8.74494 5.23829 -2.29064 11
464 1 9.95777 2.05255 -2.15487 12
465 1 9.96144 0.975221 1.17744 13
466 1 8.19279 2.9829 0.449115 18
467 1 7.0806 5.9129 6.9195 12
468 1 10.1523 1.97295 4.33067 8
469 1 7.58212 3.12686 8.6266 10
470 1 7.38236 4.59583 3.92778 15
471 2 3.13564 0.136134 3.9646 20
472 2 1.97144 2.76024 3.75389 21
473 2 1.58361 4.94081 1.76949 19
474 2 3.50191 1.72984 1.1135 22
475 2 4.12435 -2.83257 9.04034 13
476 2 3.86539 6.17223 8.31885 13
477 2 3.75659 3.45096 5.3456 19
478 2 3.9423 3.0376 7.62396 20
479 2 3.65949 5.9622 3.38599 21
480 2 1.95408 8.90556 3.90027 12
481 2 1.71622 8.49362 -1.82546 16
482 2 3.25414 8.07961 0.887207 17
483 2 1.24971 7.28788 8.23417 11
484 2 3.7416 7.51858 6.09938 16
485 2 6.02744 1.12732 4.99708 18
486 2 6.03911 3.38568 2.78402 17
487 2 4.82482 5.08189 0.421889 21
488 2 6.58549 1.94317 0.538167 19
489 2 4.33256 -0.071643 9.00804 16
490 2 2.92728 -2.06694 11.9585 9
491 2 6.42012 7.48608 7.35972 8
492 2 6.11716 3.33327 9.84056 11
493 2 6.34409 5.9275 5.10498 17
494 2 5.24418 8.56214 2.92197 13
495 2 7.52381 6.06191 2.71908 14
496 2 9.79444 0.584616 3.02504 12
497 2 6.49782 4.21195 7.43723 16
498 2 8.39447 2.97184 4.30929 13
499 2 9.91176 2.30765 -0.229549 11
500 2 6.83438 1.53086 7.70085 13
