ITEM: TIMESTEP
30000
ITEM: NUMBER OF ATOMS
2000
ITEM: BOX BOUNDS pp pp pp
-30.0 30.0
-30.0 30.0
-30.0 30.0
ITEM: ATOMS id type x y z Coordination
1 1 -4.50809 2.78919 -9.00734 19
2 1 -2.78488 -11.8736 -1.70547 19
3 1 7.0701 15.8781 15.6875 10
4 1 10.2548 -6.89323 11.5487 16
5 1 -10.1051 9.53522 -1.04412 15
6 1 14.3555 -5.53757 -5.44339 14
7 1 -12.5795 0.486714 -4.80596 11
8 1 0.480996 -2.97722 15.8246 15
9 1 -7.86892 0.816116 -4.82925 21
10 1 -14.1037 -7.51138 10.8639 10
11 1 12.8098 2.62489 -12.271 9
12 1 0.540247 -13.0045 5.69106 18
13 1 -15.1135 -4.55056 5.59131 12
14 1 5.04174 1.80939 16.0685 20
15 1 -1.90027 3.90152 13.1419 19
16 1 0.899258 9.1094 -5.89792 20
17 1 3.46779 -0.877622 16.5977 14
18 1 -12.0393 3.04535 -7.05052 11
19 1 -11.9316 -2.43697 12.7183 17
20 1 20.4577 9.55954 5.8439 6
21 1 4.24163 9.39172 -5.79719 19
22 1 9.25154 7.88644 -10.1312 15
23 1 14.6449 -0.090862 15.967 15
24 1 -9.59335 5.57419 -3.39065 21
25 1 -6.15039 11.5472 11.7105 14
26 1 8.13044 -9.66441 12.4941 21
27 1 6.46326 -8.06973 -5.71211 18
28 1 14.9895 -8.79939 9.67387 8
29 1 -5.57053 -15.1139 -0.789939 11
30 1 -9.99314 -4.98039 13.0618 19
31 1 0.846333 -4.73824 -13.1617 13
32 1 13.5287 -8.11175 -5.41653 14
33 1 5.94187 8.33394 -10.7668 14
34 1 -0.288197 2.66753 17.5836 13
35 1 5.80227 -15.3968 7.95081 13
36 1 10.8065 -13.9739 10.7924 10
37 1 -8.48822 1.61701 5.0032 20
38 1 -12.796 0.428994 12.629 18
39 1 -1.27571 12.5636 -1.03351 19
40 1 2.70941 -13.1639 -6.99602 7
41 1 2.34704 2.37712 -8.09183 23
42 1 6.0953 -12.5631 -7.38794 10
43 1 -5.24318 0.0492601 16.0182 21
44 1 -11.4871 7.33475 4.15568 16
45 1 10.2108 14.7048 -6.75445 14
46 1 7.37644 15.9515 11.1876 14
47 1 -5.25822 8.69471 -3.45329 19
48 1 5.50632 12.493 -0.757326 23
49 1 3.8936 -11.5305 3.4638 21
50 1 6.86648 -6.36204 -2.24456 21
51 1 6.39618 -5.78135 -14.2133 15
52 1 -4.89604 11.9805 14.4559 14
53 1 -13.3426 -3.12975 -5.19544 7
54 1 -6.55906 9.76836 -0.764551 19
55 1 -3.4382 -6.94385 11.0445 21
56 1 -3.37091 14.038 12.5865 14
57 1 -8.31159 7.73623 -9.11294 10
58 1 -2.56723 15.7112 9.88254 16
59 1 1.48166 -17.9712 4.34165 10
60 1 7.22163 -12.6497 6.60602 20
61 1 5.13035 9.50484 12.3653 19
62 1 -5.27913 7.30526 -11.0548 14
63 1 -10.5957 6.14099 -6.92825 12
64 1 6.60979 6.70264 13.3958 20
65 1 15.4982 -2.89749 -7.9964 9
66 1 10.5699 -11.277 13.2252 12
67 1 -13.7277 0.959887 9.32963 15
68 1 7.73372 19.3745 4.86707 10
69 1 3.28518 -7.21026 15.9908 14
70 1 -2.97022 -13.1861 13.4882 9
71 1 12.7124 -0.856241 17.545 11
72 1 3.70322 6.70183 19.2393 11
73 1 -1.2505 -5.10868 -4.8429 21
74 1 -10.3238 9.65535 9.13201 13
75 1 -6.62189 9.49926 3.2359 20
76 1 2.57067 6.22803 -5.73296 20
77 1 11.7611 12.6841 -1.11704 19
78 1 10.3366 -5.18689 8.3108 18
79 1 11.9494 -4.1869 11.838 21
80 1 -1.18725 16.7034 -1.45821 13
81 1 -11.9348 9.50533 6.07824 12
82 1 -3.13277 -6.80347 16.8821 10
83 1 -1.57284 12.9948 9.74706 24
84 1 0.202344 -5.28131 13.8253 20
85 1 12.2401 -9.07963 -2.44454 19
86 1 -6.68003 4.85975 9.91564 20
87 1 -3.16488 -11.6239 9.49401 21
88 1 10.0238 -8.00829 -0.479898 21
89 1 7.96855 1.37941 -9.989 19
90 1 -4.70186 -5.57017 -11.4629 13
91 1 1.64928 12.528 4.53501 19
92 1 -4.17802 6.35233 -5.48081 21
93 1 10.1216 13.5986 15.7215 14
94 1 1.84836 12.642 -0.700345 21
95 1 -10.0164 11.0256 4.18902 14
96 1 -2.48752 -7.91263 14.2962 17
97 1 18.3313 -0.696964 11.0576 18
98 1 13.2191 -5.23802 -11.916 10
99 1 1.73686 1.77036 15.8202 18
100 1 -6.84258 -5.72693 3.34093 20
101 1 -6.47757 -7.82582 0.526628 24
102 1 14.016 -12.4566 11.156 6
103 1 14.2221 0.731816 -7.77953 12
104 1 10.6001 19.0701 -0.209179 14
105 1 -6.039 -13.3202 11.6202 12
106 1 -1.74802 -10.4395 6.0052 22
107 1 7.79528 -7.53593 -11.8938 15
108 1 13.9426 -5.43329 8.19802 14
109 1 2.88204 -15.0208 12.5685 6
110 1 -6.44971 -7.86754 5.93895 22
111 1 16.1959 10.6233 10.6514 15
112 1 19.0056 -0.770096 -3.75407 11
113 1 -10.8027 -3.0876 9.19951 19
114 1 11.7183 8.99015 7.34292 19
115 1 13.4763 18.8742 3.36737 8
116 1 -5.65433 1.22473 20.6811 10
117 1 -0.209365 12.756 12.4654 17
118 1 -4.44539 13.5113 -4.83528 16
119 1 1.76906 -4.97546 -4.95531 23
120 1 10.2582 -8.89737 -9.28681 11
121 1 3.71688 15.2422 -6.33586 13
122 1 9.88751 -6.5931 16.4733 10
123 1 -1.86341 0.155841 -10.2438 18
124 1 0.439508 11.3104 -3.41601 21
125 1 13.6201 -0.397824 -2.83431 23
126 1 -7.63719 14.5643 -3.17724 11
127 1 -4.67639 12.9595 3.52414 19
128 1 8.56091 3.38382 -7.43022 21
129 1 11.5054 -8.22241 8.81531 21
130 1 -3.08943 3.42836 -5.89372 21
131 1 -5.67311 16.3188 9.8894 8
132 1 14.5611 2.79331 -5.08703 20
133 1 9.26265 13.8891 -3.56112 21
134 1 -1.26469 16.9371 4.2833 12
135 1 15.1389 13.5273 5.00323 15
136 1 -0.915043 14.6039 1.54983 18
137 1 7.20488 17.3913 1.84814 21
138 1 6.16708 5.04693 -11.7016 16
139 1 -10.3321 -12.0059 8.68837 9
140 1 -12.1008 9.5579 2.23612 9
141 1 -0.977407 -3.67694 -7.5345 22
142 1 7.97785 -4.72297 -10.7784 19
143 1 8.58451 12.8098 10.6374 21
144 1 1.76389 13.1635 9.6567 20
145 1 -9.98536 -1.88032 -0.423649 22
146 1 -13.0119 8.9781 9.64265 8
147 1 15.6123 0.768762 -0.0919796 19
148 1 -9.83419 1.6757 -9.94174 10
149 1 6.45994 -1.03217 17.1122 14
150 1 6.56329 16.0761 4.84185 19
151 1 -0.16399 10.3231 10.0249 21
152 1 6.34673 -2.81641 -12.6073 19
153 1 2.36192 14.3671 14.0491 14
154 1 -2.16792 14.4351 -7.14897 10
155 1 5.05378 -2.02326 13.8832 23
156 1 -11.902 -4.50028 6.04624 19
157 1 -2.76847 -6.31938 -6.96951 21
158 1 -4.72326 11.9026 -7.9502 15
159 1 0.0407532 -11.1414 9.19122 19
160 1 4.53708 -15.1188 -1.73418 11
161 1 3.75115 10.5009 -9.48611 17
162 1 -11.92 1.82017 16.7373 13
163 1 15.5748 12.6672 -0.159619 17
164 1 -5.85511 4.17084 18.8902 12
165 1 0.233056 -12.7205 11.8734 14
166 1 2.08269 14.6865 6.78813 17
167 1 1.56452 9.45198 12.1654 19
168 1 17.1321 6.02451 13.2071 14
169 1 -5.34941 15.7889 3.63603 12
170 1 14.7548 -3.42533 -3.0271 20
171 1 0.791721 13.7255 16.2179 11
172 1 17.3222 -4.78387 8.84927 9
173 1 -13.7613 -2.21078 10.6152 15
174 1 -6.39117 -5.38404 8.50003 22
175 1 16.1657 2.8785 14.4843 14
176 1 -13.3933 -2.69987 -0.696859 10
177 1 0.171349 -11.5005 3.10528 18
178 1 0.152478 11.707 7.3023 23
179 1 8.93382 14.8625 13.1261 15
180 1 -4.38147 13.7834 -9.99842 5
181 1 -9.68764 4.51694 -9.34099 13
182 1 -8.16904 -2.15294 12.3115 18
183 1 1.61804 -8.18201 8.26087 19
184 1 8.16857 -12.5417 15.1324 11
185 1 -6.82063 14.8426 0.00156235 15
186 1 20.0335 6.63715 7.8123 11
187 1 -4.17348 -7.98973 -9.63606 12
188 1 6.91308 0.712425 13.4999 20
189 1 10.7424 -13.1972 6.04843 10
190 1 -1.05384 11.7509 -6.73688 18
191 1 10.3697 -5.63498 -14.0758 9
192 1 10.2665 0.416371 -7.66469 20
193 1 15.8647 10.9091 -6.10751 6
194 1 -2.68773 -2.25207 -4.68249 21
195 1 -4.56702 15.527 -2.48419 13
196 1 -5.98368 -7.75784 15.2039 9
197 1 8.77164 21.7712 -1.4699 9
198 1 -9.11482 0.397024 19.4763 11
199 1 -8.63396 12.2516 -0.62998 15
200 1 10.1655 0.385319 13.5513 21
201 1 3.43714 -6.33305 -8.049 19
202 1 -2.69945 11.4232 -3.18037 18
203 1 7.96349 6.78329 -13.2575 10
204 1 -0.397184 -11.0568 14.6537 14
205 1 -9.79309 5.26654 10.1073 20
206 1 -7.08464 7.65614 11.1752 18
207 1 1.20174 -11.0898 -5.08028 15
208 1 -2.27221 -13.6606 5.38053 16
209 1 9.93712 -11.3213 3.26167 16
210 1 16.7251 3.21306 11.6162 17
211 1 9.00001 6.04876 -4.8686 24
212 1 0.494472 11.5442 1.73868 21
213 1 -8.65963 3.95783 7.6709 18
214 1 -9.65458 11.8059 -3.79275 11
215 1 3.12722 6.63818 13.6633 21
216 1 2.15991 -16.5368 -0.101006 9
217 1 13.9666 0.486532 2.47413 23
218 1 -6.59663 6.44853 6.51292 18
219 1 -10.9201 -8.41928 -2.58655 8
220 1 4.03836 1.92503 -13.4092 17
221 1 3.21683 0.950055 13.4296 22
222 1 10.8843 8.52548 -4.82874 20
223 1 7.20766 -7.81212 0.438819 20
224 1 0.588208 -0.243005 -8.2644 21
225 1 1.88665 -14.0397 9.7557 15
226 1 10.3143 -0.404535 -2.60995 21
227 1 -10.7722 -0.489831 10.8538 20
228 1 3.63435 -11.6026 -1.97206 18
229 1 -9.17917 -6.14583 -7.54405 10
230 1 9.72505 14.5413 2.53608 20
231 1 0.233223 -2.32561 -10.6501 25
232 1 12.0544 7.29535 15.6629 22
233 1 15.4732 3.49358 2.84463 23
234 1 9.21885 3.43112 -12.6014 14
235 1 -5.77623 0.470409 -6.95043 20
236 1 -9.65648 0.0875285 -2.73288 20
237 1 -3.60836 -14.8529 10.5814 12
238 1 18.1037 -3.89629 12.3124 7
239 1 -1.11899 -9.24361 -9.67311 13
240 1 2.73143 8.25264 -8.12661 21
241 1 -3.38864 -7.60009 6.05973 22
242 1 3.73092 12.0854 1.77713 20
243 1 -8.91733 -2.44363 17.9385 14
244 1 -6.38404 -5.88223 -1.94346 19
245 1 -4.3272 -2.47892 -7.25131 18
246 1 7.65528 9.46296 -5.73062 21
247 1 -7.5864 -12.8429 -2.85854 8
248 1 12.1609 -2.45489 -12.5133 11
249 1 17.5403 4.52579 -7.79352 9
250 1 12.0741 3.22096 7.45765 19
251 1 -13.3939 -4.89049 13.4858 12
252 1 -1.6641 -8.76605 3.40663 21
253 1 11.7968 1.54871 16.1923 22
254 1 -8.06942 -11.0765 1.52114 15
255 1 1.57377 -10.1774 5.54872 21
256 1 1.50281 15.9666 -0.500527 17
257 1 7.06208 3.18389 -14.2959 12
258 1 0.18148 -6.731 -7.60609 22
259 1 -10.2006 -5.49155 8.48536 19
260 1 1.22045 9.07266 19.3984 12
261 1 5.00385 -8.27047 2.51407 23
262 1 -4.48115 -13.0674 -3.29331 13
263 1 -8.2373 8.83639 -3.16927 19
264 1 13.8812 4.12971 10.6291 19
265 1 -6.6827 1.11455 -12.3784 9
266 1 5.92226 6.35775 -5.34732 21
267 1 10.831 -8.10294 -5.50119 19
268 1 0.92749 17.1988 -4.50491 8
269 1 5.5552 13.4353 9.63428 17
270 1 11.5821 1.8747 10.908 23
271 1 -8.39767 2.1042 10.6162 21
272 1 -2.59101 -3.07831 16.5458 15
273 1 -7.12335 10.2023 9.3385 18
274 1 8.45459 -3.60518 -7.56029 18
275 1 14.0755 12.6938 -3.3604 13
276 1 12.5285 -11.5674 8.62758 15
277 1 -3.66232 1.50537 18.6281 15
278 1 -12.2618 -1.01478 6.91651 16
279 1 0.875437 -14.5447 -1.12718 13
280 1 -6.95271 9.03308 13.5487 16
281 1 -4.89608 6.88866 17.803 15
282 1 -12.2171 -5.21711 10.7937 23
283 1 -12.0727 -8.02697 13.2509 11
284 1 13.8685 -1.98751 0.578538 17
285 1 -12.127 -10.4867 11.223 11
286 1 6.37957 -5.66897 -8.02407 19
287 1 12.843 -12.5014 -2.85321 8
288 1 10.8205 17.9089 2.63818 17
289 1 -2.46314 2.73212 -11.5911 17
290 1 9.16292 8.91527 20.7437 8
291 1 -10.6192 0.883189 7.95643 19
292 1 8.70521 -8.12976 2.94719 20
293 1 -3.36014 12.4872 6.59485 20
294 1 7.19392 -6.81959 16.2299 13
295 1 15.2862 -3.21936 3.85906 14
296 1 0.179272 6.49825 13.0267 21
297 1 6.65272 4.89476 16.2247 22
298 1 -3.68299 16.4578 6.9826 14
299 1 10.1559 10.4675 16.0539 20
300 1 -4.93434 12.4385 -1.66639 24
301 1 0.54912 3.10428 -13.092 19
302 1 6.77782 -2.39446 -15.1956 9
303 1 -5.58847 5.58718 12.8188 16
304 1 -12.9463 3.75326 7.98548 13
305 1 -3.20418 9.87859 4.54388 24
306 1 10.0972 -1.24882 11.0735 24
307 1 -8.37621 -10.5752 5.92469 18
308 1 8.61617 -4.0035 11.2443 23
309 1 -8.57243 -8.09882 13.7952 12
310 1 -13.2457 4.50254 4.51431 13
311 1 0.09734 1.04826 13.3982 19
312 1 5.72826 -13.4763 -4.68987 10
313 1 -4.78528 0.200053 -10.1707 17
314 1 8.71128 0.00856273 -13.4083 14
315 1 5.33253 12.8826 4.51859 20
316 1 -8.31852 1.10298 -0.403558 21
317 1 2.8433 -6.94135 -13.5134 10
318 1 11.1946 5.40275 -7.72667 21
319 1 -2.10796 -15.0451 -1.48471 13
320 1 -7.12562 -3.07707 -7.06308 20
321 1 13.5877 3.81262 16.3579 16
322 1 17.8036 6.09262 2.66028 12
323 1 -2.56154 5.6463 -8.45839 17
324 1 9.1711 20.9569 1.86652 10
325 1 -11.8288 -4.8345 0.355251 17
326 1 -4.8367 7.5205 9.25794 19
327 1 -8.18232 13.824 2.905 13
328 1 -3.45435 7.96572 12.3773 17
329 1 11.8215 3.70626 13.1745 22
330 1 11.8523 -4.87394 -0.433324 15
331 1 1.80547 -2.37411 13.2306 20
332 1 15.9586 2.26952 -2.75807 17
333 1 -1.42644 -9.93084 -7.02186 18
334 1 3.45815 11.9373 7.06326 19
335 1 -7.94349 3.14097 -2.70766 23
336 1 10.5341 -13.6866 0.788264 10
337 1 15.1461 1.00633 10.886 20
338 1 -6.32823 0.0856228 -2.5598 26
339 1 -1.74201 -8.47289 8.36628 18
340 1 -6.63668 -4.58899 13.8686 20
341 1 -1.39862 12.7688 4.39831 20
342 1 -7.26399 -8.69796 -3.82813 12
343 1 2.82313 3.21782 19.2482 10
344 1 -8.96189 8.58815 1.07497 19
345 1 2.99867 14.3883 -8.92274 12
346 1 6.99003 10.2317 10.0154 21
347 1 -12.9713 -6.6452 7.42464 14
348 1 1.78643 -9.20945 -2.60588 20
349 1 -9.76786 1.54081 13.5885 23
350 1 -11.0178 8.57699 -3.68684 12
351 1 5.17017 -7.76572 7.9152 21
352 1 -3.41181 -14.0505 1.40568 19
353 1 10.921 14.642 10.6145 17
354 1 15.5411 7.26251 -5.39983 15
355 1 -9.21568 3.61987 -5.96538 20
356 1 1.30335 14.4053 -3.23043 17
357 1 -6.02593 5.64389 -3.35291 22
358 1 3.29601 -10.817 8.34125 19
359 1 14.6151 8.95456 7.17089 19
360 1 6.42398 9.68773 -8.49396 17
361 1 -9.76173 4.19721 4.93968 20
362 1 2.62636 -14.551 3.96886 18
363 1 16.9706 -2.88677 -5.32731 13
364 1 -12.9296 8.33388 14.2708 7
365 1 -15.3005 -4.39363 8.59736 11
366 1 -8.45442 7.71229 8.20811 21
367 1 -7.35577 2.69941 -8.3783 19
368 1 5.57411 -10.3499 -4.29807 19
369 1 -5.48041 -11.1099 -5.30962 11
370 1 -5.15518 -1.96846 13.8079 22
371 1 3.13081 5.21829 -13.3262 14
372 1 9.69612 -11.2094 9.42828 19
373 1 6.14972 17.3413 -3.68098 17
374 1 -13.7014 5.05162 10.2032 11
375 1 6.218 4.26242 20.0979 12
376 1 -7.58945 -4.47289 -9.83688 14
377 1 -6.82983 -7.10925 11.3699 20
378 1 15.0865 -4.55771 12.7268 12
379 1 13.3927 -6.82094 11.2566 15
380 1 16.0035 9.33694 3.58758 16
381 1 -2.97285 4.71995 17.5318 17
382 1 7.15724 11.4787 -2.87225 20
383 1 -0.0180276 -12.0437 -2.41181 18
384 1 -1.4378 12.616 15.3356 17
385 1 1.89272 17.3003 8.35358 12
386 1 -5.64183 -8.55429 -6.84737 14
387 1 9.03877 14.7709 8.30821 18
388 1 8.50345 7.24044 10.4896 23
389 1 -6.91258 0.821085 13.2006 19
390 1 -3.00205 -7.56374 0.570629 21
391 1 -13.9846 3.03567 14.8917 9
392 1 -7.77451 -3.25946 -2.51973 20
393 1 -7.55431 13.5748 8.68369 11
394 1 -1.40739 -8.9123 -1.87148 22
395 1 -1.53282 -3.60853 -12.2352 12
396 1 -4.75664 -10.7352 6.86804 18
397 1 10.1795 4.24174 10.6453 21
398 1 -0.0071392 -6.63105 16.5546 14
399 1 -7.51051 6.58989 -6.22767 20
400 1 12.2099 6.97314 5.131 25
401 1 -6.11327 -11.2761 4.08643 19
402 1 3.38087 19.9528 0.96737 12
403 1 7.20641 11.981 13.4067 20
404 1 -10.2627 0.27183 2.27194 22
405 1 0.491224 17.5548 1.9323 16
406 1 10.4869 11.5611 -5.82072 18
407 1 -4.42394 -4.79513 -4.61998 21
408 1 8.70181 7.47683 15.9493 22
409 1 2.51806 -7.99225 -10.0556 16
410 1 0.503704 2.72397 -10.078 20
411 1 11.9042 -10.3067 5.89138 12
412 1 -6.87453 12.0422 5.219 19
413 1 8.79492 5.96056 18.7518 19
414 1 12.4291 8.65599 1.69883 23
415 1 7.19264 11.6203 2.20291 21
416 1 -5.95741 9.83591 -6.33256 13
417 1 -8.40295 -2.6511 3.2378 21
418 1 3.33466 16.0411 4.73258 18
419 1 -2.19968 8.39286 -11.5247 11
420 1 13.2478 9.84439 4.16092 20
421 1 6.74138 15.2134 -6.79759 13
422 1 17.2382 3.95536 5.69658 20
423 1 4.41824 3.33972 -10.6753 18
424 1 1.51498 -9.68187 11.3388 20
425 1 5.55823 -10.1504 15.1891 16
426 1 -6.09641 3.5229 -5.60969 24
427 1 -0.90056 -13.9824 8.53063 16
428 1 4.38264 -9.77312 -7.53357 17
429 1 10.2644 12.1295 7.89059 17
430 1 3.10274 9.55032 -12.9194 10
431 1 5.62283 1.32309 19.0882 11
432 1 -6.93374 3.07648 15.805 22
433 1 3.86525 -13.0738 6.81872 20
434 1 -10.0765 -1.33189 5.84952 22
435 1 10.1774 -6.20641 -2.61978 17
436 1 11.972 1.06759 -0.396373 22
437 1 3.02948 -7.83424 -5.06933 21
438 1 5.41573 2.63625 -7.69421 21
439 1 11.7029 -11.1205 -5.6043 9
440 1 -6.46111 -3.01951 16.8071 13
441 1 11.6405 16.049 -2.08879 17
442 1 -4.76319 4.37375 -12.652 9
443 1 15.0003 4.90392 -10.4283 9
444 1 -5.25795 -4.36861 11.1356 20
445 1 2.35926 14.3688 2.728 19
446 1 -9.80646 -3.18191 -8.76123 12
447 1 -11.6226 1.75059 5.53855 17
448 1 1.58709 -4.95299 -10.1539 20
449 1 1.85558 -9.6507 16.8081 12
450 1 8.55127 8.32206 -2.9065 19
451 1 15.3851 -0.983973 12.7993 17
452 1 15.8828 5.22809 0.178831 19
453 1 -8.49795 -8.86358 3.47804 15
454 1 -1.65517 2.48497 -14.5094 10
455 1 -10.6915 7.78489 11.8316 15
456 1 12.1021 -2.69229 3.11005 20
457 1 4.01802 15.1885 -1.37558 20
458 1 17.9404 2.04995 -5.44691 10
459 1 4.92157 13.0077 15.5102 19
460 1 -7.66981 4.013 13.053 21
461 1 12.2523 9.34273 12.7791 15
462 1 12.9669 -0.7596 10.728 21
463 1 2.24099 -1.12962 -12.7979 21
464 1 -2.9498 -5.87526 -1.9191 22
465 1 1.70248 3.63906 12.9346 21
466 1 14.4066 7.56048 18.5469 9
467 1 11.1277 3.23136 -5.96514 21
468 1 -3.12637 9.50164 -0.698157 19
469 1 3.78391 17.2048 1.19026 22
470 1 12.7543 -9.53971 11.8629 14
471 1 11.793 2.2563 -9.19305 16
472 1 12.174 -10.656 0.44618 16
473 1 18.7683 3.98934 15.4404 5
474 1 -8.76366 -10.0446 -1.43433 12
475 1 2.34109 12.3981 -11.2412 10
476 1 -11.0007 -1.23314 15.09 17
477 1 -1.67836 14.2639 -3.75975 15
478 1 8.03699 -9.3357 6.63603 19
479 1 7.0302 -2.20302 -5.39476 21
480 1 3.46834 18.0157 -2.51154 14
481 1 -6.14099 -2.40803 -11.2814 12
482 1 7.45075 -12.6774 11.8142 16
483 1 -13.5708 -4.27438 2.58301 11
484 1 8.37428 12.3722 -7.571 13
485 1 -0.189631 10.2873 16.7009 19
486 1 -8.4758 -4.57763 10.6458 20
487 1 4.96927 -8.68518 -12.1285 12
488 1 3.62234 -4.72544 13.7443 20
489 1 -8.15689 7.36153 4.56455 20
490 1 10.6244 -1.3285 15.8453 18
491 1 9.11475 17.8216 -2.19652 15
492 1 9.2406 -6.38746 -8.12888 20
493 1 7.29992 8.58785 18.6376 17
494 1 2.76999 7.58403 -11.0749 19
495 1 -6.48414 -11.1148 9.22624 20
496 1 8.9117 4.99303 -10.0512 20
497 1 5.0096 17.399 7.49988 13
498 1 17.8195 4.8545 -4.84124 16
499 1 -3.13023 -3.02151 -10.1163 20
500 1 -1.38808 -11.2091 0.922062 18
501 1 -11.7505 -5.74117 -4.78516 9
502 1 13.8474 4.04586 5.23841 22
503 1 15.3302 8.95168 0.58973 17
504 1 5.00711 -5.14221 -10.8113 22
505 1 16.2932 8.75168 13.4386 13
506 1 9.16941 -11.3347 -0.0114972 17
507 1 4.32413 2.81005 -16.1499 9
508 1 8.37953 17.8389 7.46783 11
509 1 7.69587 12.9369 16.7534 15
510 1 13.8767 11.5683 1.57738 22
511 1 13.3747 1.39313 13.1866 22
512 1 15.0218 5.17588 -3.19207 20
513 1 8.67216 -9.76855 15.9355 10
514 1 17.6599 0.620899 13.9728 15
515 1 -1.29139 -2.00313 13.6525 19
516 1 12.5825 15.5326 -4.6273 12
517 1 4.92899 7.44471 16.0576 18
518 1 18.3246 0.500518 -0.45827 14
519 1 10.1538 4.54687 16.2484 22
520 1 -4.22182 1.0346 -4.88147 23
521 1 15.638 6.88048 4.44736 20
522 1 -3.513 10.1445 8.88069 19
523 1 12.0395 9.03236 18.6763 12
524 1 14.232 1.83322 18.7035 11
525 1 8.66372 9.35707 12.7957 20
526 1 5.5835 15.5095 13.5614 15
527 1 4.52128 -17.1237 2.87937 11
528 1 -4.68997 8.53059 1.90648 22
529 1 8.77746 12.7006 -0.0257779 20
530 1 14.6554 -1.98316 -11.3303 7
531 1 7.18675 15.131 -1.23677 20
532 1 -2.62114 -10.8084 -5.00799 18
533 1 11.1595 -7.04179 -10.8352 11
534 1 -7.37543 6.51125 16.1703 16
535 1 -0.461872 8.24432 -8.52323 22
536 1 -5.97163 -13.7779 2.4154 14
537 1 -7.60854 -0.735925 -9.30413 19
538 1 -9.86994 3.75802 -0.757152 23
539 1 12.2715 -4.46953 5.78199 18
540 1 13.5391 12.0878 6.83984 19
541 1 3.46494 -7.13334 11.0854 19
542 1 -9.11419 -8.13118 0.472292 16
543 1 12.8321 7.4336 -9.33844 10
544 1 0.974365 6.0728 18.6373 16
545 1 10.3617 9.06111 -7.44748 16
546 1 10.9555 -4.40688 14.6329 15
547 1 12.1217 2.91417 -2.85136 23
548 1 13.9631 17.7054 6.8349 6
549 1 10.0844 -12.0501 -2.86291 13
550 1 -8.3076 -5.854 16.5061 10
551 1 18.9872 0.624636 5.00432 11
552 1 3.92552 11.9667 12.4293 18
553 1 12.7898 6.18941 -5.4965 19
554 1 -6.41891 11.7926 1.64225 22
555 1 12.068 13.3448 3.87235 16
556 1 -10.1127 -7.41507 6.1395 17
557 1 13.509 0.683954 8.54923 20
558 1 4.56265 18.2382 3.78462 18
559 1 -4.7668 2.46434 14.424 19
560 1 -11.1066 -9.30712 8.22098 16
561 1 -6.3222 -1.71488 -4.94964 22
562 1 14.8176 -2.95136 9.75535 17
563 1 5.07485 -13.2734 10.2034 16
564 1 9.58718 -0.362991 18.4445 14
565 1 -2.71731 11.492 1.47325 20
566 1 5.23561 0.349141 -10.7339 21
567 1 -6.37629 -1.00408 10.6466 19
568 1 10.3324 -2.21747 -5.24388 18
569 1 11.9727 -3.7002 -3.50364 18
570 1 14.9432 11.5112 13.0881 10
571 1 -11.785 -1.74458 18.4093 9
572 1 14.172 5.77965 13.7577 18
573 1 -1.68882 -0.114219 16.064 20
574 1 -0.910865 9.32496 14.0649 19
575 1 3.70245 -2.19945 -10.3617 20
576 1 -2.1132 2.47063 15.7329 20
577 1 12.118 5.07016 18.7239 17
578 1 -5.23269 -8.39887 9.23243 21
579 1 16.8741 10.8811 5.65136 14
580 1 8.5329 -13.9672 3.46758 15
581 1 12.6776 14.9113 0.763432 21
582 1 12.0842 7.11049 10.9294 20
583 1 11.9239 5.53848 -11.2688 14
584 1 10.811 11.0703 -2.79082 18
585 1 13.4576 6.09219 7.96864 19
586 1 -4.815 -8.82229 3.65496 21
587 1 0.428973 7.15546 -13.4741 11
588 1 -3.85738 14.4815 0.291765 20
589 1 8.34413 -9.76006 -6.63311 16
590 1 13.0979 10.0214 -1.2156 22
591 1 15.2993 15.053 1.84053 13
592 1 12.5852 6.47554 -0.398666 22
593 1 12.0808 -1.68286 13.4499 19
594 1 10.943 2.28288 19.3686 15
595 1 6.83369 -10.978 3.99555 22
596 1 5.77534 12.9464 -9.20154 11
597 1 6.62645 12.0049 7.41251 20
598 1 9.35693 -2.75712 -12.7807 16
599 1 13.3844 17.8061 0.0114237 13
600 1 8.20435 13.249 5.27072 17
601 1 15.3681 -4.8589 0.39038 13
602 1 8.73452 3.35042 18.3702 17
603 1 -14.4337 -1.48948 4.20358 11
604 1 8.24168 -13.697 8.70004 13
605 1 -9.21924 13.2768 6.22222 10
606 1 7.12015 9.8941 5.23749 21
607 1 -12.703 -0.428872 1.33201 13
608 1 2.71286 11.439 17.7765 14
609 1 -5.43393 10.3643 -10.1051 11
610 1 -2.63203 9.33407 -5.78888 21
611 1 3.81587 -13.846 0.820806 19
612 1 10.391 5.86103 -2.15824 21
613 1 -11.5677 4.3705 13.0514 18
614 1 8.24516 -1.34385 -9.82226 19
615 1 5.18444 -9.89227 11.7732 21
616 1 5.81194 14.5046 2.08465 18
617 1 -1.99268 7.21317 19.5749 10
618 1 -5.43044 -5.31697 -8.13557 18
619 1 -1.56047 -5.69571 -10.1947 19
620 1 -4.43876 -9.06323 -1.95971 18
621 1 6.52206 20.0597 -3.02011 11
622 1 5.16988 -4.85122 -4.95849 22
623 1 -0.97598 14.7832 7.3885 23
624 1 8.69709 -5.28539 -5.22207 20
625 1 6.54133 -10.282 9.09141 23
626 1 6.63972 -4.8517 14.1088 17
627 1 15.7663 -0.282247 -5.20439 20
628 1 6.9762 -11.9504 -1.80254 20
629 1 -10.9079 -4.2955 15.7647 12
630 1 -6.37256 -13.3445 6.40568 12
631 1 -4.3652 -10.5206 0.969313 21
632 1 -14.0879 -0.531534 15.5493 8
633 1 -1.87111 -16.1704 4.04213 13
634 1 16.8959 12.7274 2.63299 11
635 1 1.21312 18.3426 5.16571 13
636 1 -11.2841 6.78421 -0.796811 18
637 1 15.4453 3.22603 7.98126 23
638 1 -9.46294 -5.50511 -1.52845 20
639 1 3.60927 11.4132 -4.0248 19
640 1 12.3367 0.511007 -5.6666 23
641 1 9.30557 10.9209 18.5389 15
642 1 14.1658 3.08762 0.0651431 22
643 1 -11.3833 2.83047 -3.40963 18
644 1 -11.1003 -3.13552 -2.75912 19
645 1 1.92541 11.2227 14.6817 20
646 1 7.55616 6.3784 -8.25455 21
647 1 13.9608 13.0728 10.4287 14
648 1 -2.39597 -0.743838 19.4488 7
649 1 5.88769 -14.4027 3.99729 17
650 1 -0.512173 -17.0449 7.3761 12
651 1 0.840184 -8.31475 13.8884 19
652 1 13.4147 9.91876 9.61906 18
653 1 -0.133345 -8.24699 -4.72151 22
654 1 -8.39888 9.97249 6.33949 22
655 1 8.47913 9.2183 7.8078 21
656 1 -8.56978 -2.3136 8.3973 25
657 1 13.9058 7.96234 -2.85422 17
658 1 0.296083 -14.2236 1.94271 21
659 1 7.05421 -17.0129 5.57874 9
660 1 2.32085 -15.7283 7.18981 16
661 1 7.13457 3.60809 -5.34114 21
662 1 5.80519 20.3932 2.10835 13
663 1 -0.727805 5.83642 -11.0108 18
664 1 0.0340398 5.24091 15.471 23
665 1 1.22025 4.40046 -15.5727 9
666 1 -10.0018 -1.9627 -5.19258 19
667 1 -8.38276 -4.801 6.08239 23
668 1 6.59883 21.9896 -0.185752 10
669 1 -0.667692 -0.290277 -12.8679 18
670 1 19.1317 5.90286 -1.74687 8
671 1 16.7375 0.268969 2.80865 15
672 1 -4.10083 8.98367 15.1038 17
673 1 8.85967 -7.98716 9.50691 17
674 1 14.2876 -1.3027 5.80419 20
675 1 19.3211 -1.90238 8.16275 10
676 1 3.25677 10.6157 9.67644 21
677 1 -9.75236 4.48034 15.9307 12
678 1 -6.80315 10.0592 16.6451 10
679 1 -3.1769 -17.5473 9.19349 7
680 1 6.65702 10.263 16.0965 21
681 1 -11.6715 3.01097 2.39792 20
682 1 13.9642 -5.97566 3.49986 13
683 1 -6.89654 11.6807 -4.96824 15
684 1 5.24544 -12.6353 13.3017 15
685 1 8.53233 1.51355 16.3574 23
686 1 0.381165 15.6186 9.96036 16
687 1 5.14778 -10.2269 6.108 21
688 1 5.08606 3.69236 13.3972 22
689 1 -11.4183 -2.78747 3.07431 19
690 1 9.86136 4.62537 21.5052 9
691 1 9.72858 16.1693 0.15436 18
692 1 -8.17063 -8.06129 8.49686 20
693 1 -3.77701 -16.9504 6.6281 8
694 1 8.61235 -2.21361 14.103 21
695 1 17.704 -2.2148 14.3906 8
696 1 10.0581 6.42347 13.1856 19
697 1 -3.40479 -7.69609 -4.53734 18
698 1 -1.12447 2.69926 -8.15481 21
699 1 3.37589 4.52458 15.8691 19
700 1 -1.06347 17.7247 7.49006 12
701 1 17.1806 6.22212 7.42303 16
702 1 5.51456 8.55714 -3.28166 22
703 1 1.56011 7.97026 16.0304 24
704 1 15.296 6.83031 16.1308 13
705 1 6.72952 -0.21609 -7.51285 22
706 1 -3.35729 -11.5169 3.37835 20
707 1 19.9486 2.03205 10.5848 9
708 1 5.1979 -2.68322 -7.82811 22
709 1 -1.58854 7.60769 16.4126 21
710 1 11.3796 -5.02256 -5.63621 21
711 1 14.8305 4.67143 -7.2612 15
712 1 13.5621 9.60567 -6.00674 13
713 1 15.4647 1.46985 5.47475 22
714 1 5.39279 -7.79929 13.4668 18
715 1 1.43655 -9.61312 -7.78892 18
716 1 13.1612 12.9322 -6.55026 11
717 1 -11.7187 2.57219 10.8698 17
718 1 19.0504 2.80866 -2.67501 14
719 1 18.5811 10.2994 8.15104 10
720 1 3.95955 -3.65924 -14.0779 15
721 1 -5.44396 14.3833 6.6572 17
722 1 15.5239 7.00106 10.1821 18
723 1 10.608 9.07069 -0.462737 22
724 1 2.02426 0.665545 -10.9071 23
725 1 10.5721 -5.58634 2.42016 19
726 1 -8.09702 2.74114 2.128 22
727 1 10.2523 6.31203 7.23047 20
728 1 -10.1743 -5.8524 2.72543 17
729 1 -5.48019 5.74355 -8.45009 21
730 1 8.30083 3.72908 13.4674 23
731 1 -11.9951 0.55254 -1.07021 15
732 1 -8.34473 2.94629 18.5087 14
733 1 -0.491473 6.36522 -5.41705 21
734 1 15.0671 -6.50214 -2.19521 11
735 1 -8.57727 -4.678 -4.56681 17
736 1 14.0077 -7.89365 0.485572 10
737 1 -13.6384 6.20041 1.31027 9
738 1 -8.36892 -4.8652 0.621269 23
739 1 10.1493 11.8772 13.0712 18
740 1 -1.90705 -10.4208 12.1602 18
741 1 8.75363 -3.41208 17.3814 11
742 1 18.3825 0.830579 7.85009 20
743 1 11.8258 -2.45242 8.37752 22
744 1 -11.4715 6.37736 7.25211 18
745 1 12.3267 14.2901 13.4453 9
746 1 5.31115 12.4718 -6.33471 21
747 1 0.820044 -2.09912 -15.1209 12
748 1 -4.71737 13.2132 9.50099 20
749 1 -8.34032 -10.5001 11.3298 15
750 1 10.864 11.4419 1.71771 20
751 1 5.91389 11.5552 19.6948 10
752 1 16.5414 -1.68344 -1.86095 15
753 1 16.2038 -0.551939 8.67761 20
754 1 -0.191954 13.6554 -9.71174 8
755 1 5.64227 14.1416 -3.77636 16
756 1 -3.03493 0.656036 12.9562 21
757 1 18.3985 4.41651 9.25463 17
758 1 1.97493 -3.17951 -7.93809 23
759 1 15.0313 15.6052 -1.52235 14
760 1 -9.29237 5.58708 2.2893 21
761 1 3.02542 -10.8148 13.8617 16
762 1 9.30328 16.579 -5.02441 13
763 1 3.77062 -3.65657 16.4271 14
764 1 2.00675 -10.7986 0.941342 19
765 1 -2.94383 16.5709 1.76921 11
766 1 -12.9188 3.68047 -1.23873 13
767 1 13.7127 -2.55603 -5.96468 18
768 1 6.79775 -9.52822 -9.2846 13
769 1 -5.23753 9.36981 7.04035 21
770 1 16.5199 8.06805 -1.88003 14
771 1 1.35146 1.21073 -15.7084 15
772 1 -4.00624 -10.8087 -8.18969 9
773 1 5.09518 -8.86291 -1.82656 21
774 1 3.6755 15.5177 16.5932 9
775 1 12.1568 -8.54923 3.61634 14
776 1 1.86947 12.4891 -6.08669 17
777 1 18.1062 2.99966 0.831765 12
778 1 10.38 9.60122 4.40134 18
779 1 -1.02381 -16.6729 1.13589 11
780 1 3.50627 -0.911853 -15.5644 11
781 1 14.0044 6.02265 2.39997 21
782 1 0.9415 5.43748 -8.64179 20
783 1 -0.409657 -7.3363 11.5766 20
784 1 7.05612 9.70159 -0.4333 21
785 1 8.68503 0.688644 -4.96841 23
786 1 -7.9083 6.58326 -0.851612 21
787 1 -9.82633 6.82488 14.4133 12
788 1 -3.85202 5.61466 14.9856 20
789 1 -5.37765 -9.86701 11.7828 17
790 1 10.4518 10.0769 10.2971 20
791 1 5.56277 -10.6112 0.750994 21
792 1 6.18722 18.4751 -0.542221 21
793 1 -2.51131 11.3617 12.1581 21
794 1 -8.46344 0.36102 16.2102 21
795 1 -14.3262 6.11734 13.4105 8
796 1 -3.22206 -4.92276 14.0615 20
797 1 6.70698 -6.81806 11.0198 22
798 1 18.0665 7.89898 10.5015 13
799 1 8.54006 -9.31335 -3.15346 20
800 1 12.6694 -6.14581 -8.40023 13
801 1 -9.87498 -0.285804 -7.1729 17
802 1 0.890377 9.82515 -10.9963 15
803 1 13.3993 14.8721 7.77097 13
804 1 -1.20248 -9.4161 17.6897 10
805 1 -1.06895 8.41561 -3.21389 21
806 1 -12.5839 5.42156 -4.53674 12
807 1 9.50636 16.4789 4.80052 19
808 1 -6.61363 -15.3742 8.67487 7
809 1 13.4357 9.83049 16.1304 11
810 1 -6.17955 -11.6389 -0.824964 19
811 1 11.4805 16.0042 5.80611 16
812 1 -6.63132 -1.20043 18.8416 14
813 1 1.78161 -10.3621 -11.6455 7
814 1 19.9941 3.22994 7.02471 10
815 1 4.34257 -18.0962 5.71826 9
816 1 4.28754 9.21786 18.3482 15
817 1 11.2609 -0.0222656 -11.1513 15
818 1 10.4758 -7.49176 5.42455 18
819 1 3.47218 0.0251773 -7.79952 22
820 1 -7.13374 4.30139 -10.9795 13
821 1 -4.5035 7.9509 -7.89243 18
822 1 -3.1863 11.063 17.1567 11
823 1 12.5383 -6.94513 13.9895 13
824 1 -10.6192 -7.63319 11.0031 21
825 1 17.6838 -2.27462 6.11525 13
826 1 3.98229 5.58079 -8.36266 20
827 1 16.4328 13.2643 7.84142 10
828 1 3.9843 15.8813 10.8724 14
829 1 -15.4072 -1.60572 7.23879 11
830 1 6.99567 -13.5706 0.788335 15
831 2 -8.13557 -2.58561 -9.77931 15
832 2 -0.78152 13.2123 -7.85142 10
833 2 0.363069 -2.28765 -8.32123 22
834 2 -1.44285 7.52777 11.9025 21
835 2 6.25672 -7.70851 -7.75651 18
836 2 -4.7177 -4.9074 -2.37656 18
837 2 7.146 4.90383 17.9598 18
838 2 4.93561 -2.16187 16.0889 16
839 2 -10.1223 -7.48787 9.02703 21
840 2 -10.9702 6.73495 -4.25632 16
841 2 3.35613 12.2705 10.567 17
842 2 -9.77785 2.41512 6.77014 18
843 2 9.30338 16.4847 2.43297 17
844 2 11.9594 7.03388 7.68279 20
845 2 5.2118 14.3012 -5.66594 19
846 2 13.4996 15.8658 -2.87944 13
847 2 -11.9843 2.28979 -5.19345 14
848 2 -7.95854 -5.39088 -2.66978 17
849 2 8.1789 1.68175 12.7236 24
850 2 8.52321 -3.2727 -5.42967 21
851 2 7.72277 -15.3994 4.6228 12
852 2 -5.92798 9.73946 1.34023 21
853 2 -11.4041 0.509358 -3.13713 18
854 2 11.9835 3.98127 10.4565 18
855 2 14.6056 -6.54036 -0.112726 10
856 2 -6.37694 -7.77079 3.751 19
857 2 -12.3837 -8.63885 11.2822 12
858 2 4.31749 -12.4677 8.68813 17
859 2 15.5686 -4.50053 8.60088 11
860 2 4.4392 -9.13571 -5.62859 19
861 2 2.58048 5.27045 18.722 12
862 2 2.27061 13.9927 -7.08178 15
863 2 5.80413 -17.1875 7.01846 10
864 2 -5.99795 -12.2167 -3.97884 14
865 2 6.73197 6.75224 15.4024 18
866 2 -6.0745 14.4061 9.23016 12
867 2 -3.74032 6.91332 19.3492 10
868 2 -5.32963 8.60315 -1.51918 19
869 2 6.48975 -6.70695 14.4339 18
870 2 -1.59099 9.30523 8.95705 21
871 2 0.599716 9.49172 -3.90761 24
872 2 12.6657 13.7275 11.8024 11
873 2 5.10449 -3.06818 -5.85223 22
874 2 11.5865 17.2811 4.24004 16
875 2 13.8515 -4.57769 -4.04117 15
876 2 1.88264 15.2921 15.5429 9
877 2 7.45979 8.25003 -9.40028 17
878 2 1.48868 13.8736 -10.1909 8
879 2 15.4342 12.3594 6.51219 14
880 2 -1.30026 -3.70501 13.1658 20