ITEM: TIMESTEP
19000
ITEM: NUMBER OF ATOMS
1500
ITEM: BOX BOUNDS pp pp pp
-30.0 30.0
-30.0 30.0
-30.0 30.0
ITEM: ATOMS id type x y z Coordination
1 1 -1.17774 -13.7071 -6.92744 19
2 1 8.37346 -9.54251 5.38608 18
3 1 -7.80981 6.09549 -0.310655 19
4 1 -2.37264 1.76224 -13.0094 18
5 1 2.41582 -8.59885 7.53468 18
6 1 1.70827 -1.85987 -16.9488 18
7 1 -1.20767 -15.635 -1.08717 14
8 1 -13.1437 -7.41388 -2.63865 5
9 1 0.847697 1.44989 15.23 8
10 1 9.66457 -4.25765 6.7635 18
11 1 1.36212 5.77118 9.48463 19
12 1 9.83604 -0.344565 -0.867251 18
13 1 0.268216 10.9084 -7.44758 20
14 1 7.43981 -5.6841 9.71922 13
15 1 12.7363 1.22043 -1.00794 20
16 1 -0.439672 9.52912 -17.1396 10
17 1 3.82325 6.67988 -16.076 17
18 1 -6.91323 -0.386126 4.54576 18
19 1 2.42181 -2.02477 -10.1378 20
20 1 6.57163 -13.9734 1.62431 15
21 1 2.74682 3.22558 5.74843 18
22 1 11.0406 -8.34269 0.0288735 14
23 1 -5.5263 -17.2392 -7.85245 17
24 1 11.1971 -5.85835 -4.78077 22
25 1 7.17356 -5.48183 -8.74493 20
26 1 4.0257 4.32777 11.0054 19
27 1 1.6554 -12.3639 -1.38168 19
28 1 7.36722 -5.23196 6.75255 18
29 1 -10.6127 -3.88205 1.33053 13
30 1 -3.65539 3.31486 -3.38411 18
31 1 0.00245627 11.4495 -4.18888 20
32 1 1.96353 3.94809 -10.9071 15
33 1 11.0416 -8.98911 -14.7612 12
34 1 4.33587 -4.62402 11.1211 12
35 1 -8.87338 1.34713 -4.20576 19
36 1 3.12361 10.8388 9.94829 10
37 1 -11.4234 3.69454 -8.0026 10
38 1 3.84839 15.7483 -6.21113 13
39 1 1.95973 -16.3666 -0.238486 9
40 1 6.16906 -7.32546 -3.06352 23
41 1 -0.978212 1.98809 12.9559 18
42 1 -6.57048 -11.6022 -11.0118 10
43 1 8.53304 -0.435699 2.37736 23
44 1 -3.87702 5.21358 -16.8644 15
45 1 -5.45292 -12.7854 0.194609 17
46 1 -6.68177 9.1782 -10.0246 13
47 1 -0.411655 1.88147 -10.8472 20
48 1 6.62057 3.50925 -0.73677 21
49 1 -0.0387295 5.53156 6.59931 18
50 1 7.10851 -15.3712 -3.14173 12
51 1 9.11051 7.36068 10.2921 10
52 1 11.5894 -2.70675 -16.4543 13
53 1 12.998 -9.05494 3.33247 12
54 1 -11.6203 -1.94122 5.19141 9
55 1 10.1636 -7.16173 7.9275 13
56 1 -4.0454 -8.9312 3.23001 17
57 1 -4.9535 0.29192 -3.08735 16
58 1 9.86917 3.96002 10.2218 17
59 1 8.38408 -5.34786 -3.21706 18
60 1 -2.28046 9.61911 9.74271 9
61 1 4.74545 5.01688 4.16752 20
62 1 -6.83184 -3.77747 5.16586 19
63 1 0.773854 -7.22508 -12.4461 16
64 1 -4.8099 13.4339 2.56596 14
65 1 -2.75394 7.92083 -17.9549 11
66 1 7.90458 4.95264 -10.5091 18
67 1 9.96142 -12.9238 -6.50303 10
68 1 8.93092 -3.99344 3.99705 19
69 1 5.3589 -10.551 4.10285 18
70 1 1.41816 16.7065 -8.16646 7
71 1 -9.25221 10.1553 1.97456 11
72 1 -6.78671 8.41816 2.15777 22
73 1 -0.528316 -8.62253 8.02238 15
74 1 14.3277 -8.22998 -10.2724 14
75 1 -11.2442 4.21202 1.31534 9
76 1 17.063 -5.65953 -6.53313 11
77 1 6.50518 4.89211 -14.1798 17
78 1 -0.82396 -4.15217 -16.526 20
79 1 -1.88887 9.10677 0.220882 20
80 1 -5.55598 8.73525 -12.4545 11
81 1 6.37625 10.0562 -12.1382 13
82 1 1.37975 9.26775 2.07716 21
83 1 -4.66673 -5.97046 5.88355 20
84 1 -0.00992313 -10.4604 -13.6571 15
85 1 9.92943 -10.5705 -9.12261 16
86 1 0.752507 3.08705 7.55563 21
87 1 -3.245 -4.37437 -6.04745 18
88 1 7.8036 6.47786 4.88772 21
89 1 -3.30455 -9.04671 -10.2967 14
90 1 7.28261 -9.24284 1.90108 17
91 1 -3.78237 5.72721 -0.744399 19
92 1 9.07446 1.60619 -19.71 10
93 1 1.16128 6.95133 -7.47777 15
94 1 14.9338 -7.3806 1.27078 13
95 1 2.22931 -12.3721 4.00106 18
96 1 -3.08079 -15.9825 -9.25473 20
97 1 -10.0723 -5.79944 6.65821 8
98 1 9.24696 2.55941 1.00796 19
99 1 7.38194 6.17005 -3.21306 16
100 1 2.40673 11.2874 6.46298 17
101 1 -2.7938 13.8765 -7.3795 11
102 1 -0.658919 -6.68293 -14.6605 18
103 1 11.498 -2.34153 8.63421 13
104 1 -1.42782 6.91909 -12.535 16
105 1 13.4306 -5.24023 -15.8682 9
106 1 -7.76035 11.7484 -8.40886 8
107 1 -0.898056 17.2209 -0.331452 13
108 1 11.3841 3.08254 -14.7859 15
109 1 8.42755 -5.99587 1.03447 18
110 1 -2.13868 11.6337 -2.42393 20
111 1 9.89717 9.96634 -11.8627 12
112 1 13.8674 9.57817 -0.543473 11
113 1 -7.93995 8.80605 -7.24393 11
114 1 -3.76099 -3.40152 -18.5109 8
115 1 9.76648 14.9384 4.54169 9
116 1 -8.95576 -4.55942 -6.45941 16
117 1 17.5743 -3.47863 -8.99778 10
118 1 -5.11293 8.48961 4.67964 22
119 1 3.50476 14.0815 -8.7216 12
120 1 8.80305 -7.00118 3.91478 21
121 1 -7.71278 -4.50461 -1.996 14
122 1 -2.3591 -10.6225 1.78483 19
123 1 3.82741 -15.4702 -12.0681 8
124 1 0.186228 13.7119 -9.24623 15
125 1 4.55934 7.24896 -11.2988 12
126 1 13.0191 7.74619 -10.0064 13
127 1 -2.72204 -10.5674 5.13086 11
128 1 -3.32088 6.9148 -4.24501 20
129 1 3.63764 11.3352 -3.00635 18
130 1 -1.032 4.64556 14.7263 9
131 1 -3.58797 10.752 5.45132 17
132 1 0.305014 -10.8663 -9.66403 17
133 1 13.484 -8.05068 -1.77142 15
134 1 -3.86874 -4.61655 -0.298269 17
135 1 -7.84618 -6.80438 0.836596 16
136 1 -6.04691 -10.4853 -2.06341 17
137 1 -4.44862 -3.51464 -2.73684 20
138 1 0.285206 -13.6976 1.19947 18
139 1 -6.17664 -4.62627 -4.63215 15
140 1 7.85045 -8.68248 -0.620736 18
141 1 -4.74034 10.5773 2.22731 21
142 1 -4.74637 2.09563 3.65405 20
143 1 -1.67757 11.8412 -9.36543 15
144 1 -8.77193 3.79526 -10.2522 16
145 1 -5.82087 -13.9391 -8.39922 19
146 1 -9.87539 2.24891 10.9931 7
147 1 1.80273 -6.86658 5.54839 22
148 1 5.36627 -13.8923 3.90498 12
149 1 15.7272 7.64243 2.00323 11
150 1 6.4264 2.50975 -12.1019 19
151 1 8.03943 -2.90638 0.924123 19
152 1 6.46987 3.7427 -20.0152 10
153 1 7.64511 -2.08715 -9.08798 19
154 1 -7.43863 -0.375951 -12.7331 12
155 1 -8.15155 11.0804 -4.94823 9
156 1 -1.68261 17.0949 -5.15229 8
157 1 8.20018 -1.35289 8.12493 15
158 1 1.36134 -11.9553 -15.5148 11
159 1 -5.05853 11.498 -10.9667 10
160 1 0.783676 7.09204 -14.855 16
161 1 -4.6046 2.44199 10.0592 16
162 1 0.0369959 10.5683 8.52854 15
163 1 3.14181 -10.1864 -7.78821 21
164 1 -8.16898 -15.4722 -7.92646 11
165 1 9.87573 -14.3193 -3.4359 8
166 1 5.88103 -4.50293 2.00387 18
167 1 13.8244 -0.0917592 -9.19693 19
168 1 2.21797 13.9131 -2.84938 16
169 1 -9.86576 0.829747 3.07388 14
170 1 1.72256 7.14564 0.164475 23
171 1 12.2182 -5.07055 -7.22022 16
172 1 6.90068 15.2983 -2.40943 13
173 1 -8.50805 8.71772 5.29139 15
174 1 -4.31087 -13.8132 -11.3689 23
175 1 5.30431 9.69117 -15.2631 11
176 1 3.93475 -1.29565 5.5268 17
177 1 14.7719 5.53246 -11.6957 11
178 1 9.82584 -9.35862 -5.93269 20
179 1 6.16408 -9.10193 -18.3502 11
180 1 9.99318 -1.09066 -7.11671 18
181 1 -8.36485 -9.13479 3.33611 11
182 1 -1.95944 -15.9576 -4.45882 15
183 1 -5.49173 -7.94202 -13.1234 12
184 1 8.91834 13.8962 -3.85196 12
185 1 7.88961 -6.15864 -13.5441 20
186 1 8.67555 1.34273 11.0497 16
187 1 17.6607 -1.90724 -6.25113 14
188 1 -3.54972 -10.4773 -7.45937 14
189 1 12.5871 -3.1781 -12.3091 17
190 1 -1.99973 -7.45843 -1.16845 19
191 1 -4.41232 -3.69968 -11.7209 17
192 1 -0.752707 -9.56245 -19.4186 6
193 1 13.2889 7.37974 4.55723 16
194 1 6.632 3.17657 12.2657 13
195 1 1.43426 -12.9284 -12.601 18
196 1 1.50846 -8.16045 0.308714 22
197 1 4.55757 6.7967 -19.3145 9
198 1 4.82478 7.98573 2.47399 22
199 1 -7.06883 -7.37916 -2.49909 16
200 1 1.94625 16.2694 1.08421 13
201 1 -4.05596 -3.7453 8.25837 21
202 1 -6.31472 -3.02131 -13.4116 9
203 1 -2.44036 -3.28939 -14.2969 17
204 1 -8.45702 -7.93219 -5.24224 15
205 1 -0.293203 -7.79759 3.17184 22
206 1 13.93 0.142141 2.10147 21
207 1 1.97389 -5.55397 -7.09442 17
208 1 -3.54268 -7.18342 8.25889 16
209 1 1.73407 -9.91365 -3.90624 19
210 1 3.96271 -9.41901 -2.08368 19
211 1 2.69929 12.994 -5.50305 21
212 1 4.70699 3.73275 -16.765 21
213 1 -2.44291 -6.79223 -18.1872 11
214 1 4.89223 -14.9047 -9.35764 15
215 1 -1.16897 -16.1312 -11.9813 13
216 1 -7.4448 -0.579481 -15.6429 10
217 1 4.71355 7.42576 5.9318 17
218 1 -2.65367 1.42735 -8.96324 18
219 1 -3.96452 4.34572 -13.5882 16
220 1 0.159065 2.72797 4.12088 18
221 1 -2.60326 15.501 1.09131 13
222 1 1.35136 12.1946 3.38113 22
223 1 12.7164 -2.31902 -5.30207 22
224 1 -8.12539 3.69239 7.15475 15
225 1 0.814245 -6.13269 8.65453 17
226 1 -2.8586 12.3824 0.635284 19
227 1 9.30293 -7.94579 -12.4331 19
228 1 4.26538 -14.5779 -4.07348 17
229 1 2.51256 -0.521232 13.9512 10
230 1 -5.82688 -8.92932 6.06703 13
231 1 13.8615 -0.107653 -11.6266 17
232 1 7.5426 -6.31203 -6.01892 17
233 1 7.07988 -13.7552 -5.76056 14
234 1 -9.30065 -2.13461 3.25045 18
235 1 -3.56546 16.2882 -2.2946 13
236 1 6.06729 0.594672 8.72286 19
237 1 12.3425 3.42793 1.68178 17
238 1 -5.41002 -1.28667 -0.567992 19
239 1 13.2566 -4.48469 -2.4825 18
240 1 0.741513 9.42154 -1.72984 17
241 1 -1.49008 6.61056 -1.27879 23
242 1 3.7181 -12.4663 1.60859 19
243 1 13.5213 -0.0510338 5.18234 14
244 1 -4.75651 5.91439 2.51832 18
245 1 -5.05193 -8.76202 -5.68569 14
246 1 3.26163 -1.52971 10.415 17
247 1 -0.842224 12.3 5.84609 16
248 1 -3.37391 3.81675 -9.87858 19
249 1 -7.75904 -3.12203 9.85014 13
250 1 -10.0024 3.77157 -1.90672 13
251 1 4.75909 -4.26273 -9.39464 21
252 1 -6.0998 7.31411 -2.3705 19
253 1 8.70446 9.07904 7.01773 22
254 1 -4.24212 -14.81 -6.18295 19
255 1 11.2331 -10.3797 5.74609 13
256 1 -8.93776 6.38331 -3.6549 13
257 1 4.31588 -6.90408 8.55712 18
258 1 6.28412 -11.9925 -13.3579 11
259 1 -2.40357 -6.26018 -10.9865 17
260 1 8.50553 1.85107 -13.8368 17
261 1 4.22787 13.2895 -0.228291 20
262 1 -8.89274 1.80425 -7.30284 17
263 1 9.86107 0.678967 -16.7456 17
264 1 -7.61334 -15.0301 0.55303 11
265 1 -9.96481 -9.03943 -7.90513 10
266 1 3.05461 -6.56843 -1.42829 21
267 1 10.8354 -0.874967 -10.3129 19
268 1 2.73612 -1.45145 -13.8967 18
269 1 -6.75696 3.99944 -5.29615 20
270 1 -7.00212 11.2826 3.83469 15
271 1 -6.7333 10.4008 7.23651 10
272 1 -7.32475 0.140721 11.7468 12
273 1 19.5538 -3.47627 -3.89986 4
274 1 15.7482 -2.7248 -12.5336 11
275 1 -3.84106 4.18303 -6.48457 20
276 1 5.2785 -9.18504 -5.48276 22
277 1 0.0921877 16.7806 -3.12215 17
278 1 -2.23582 6.31435 -7.7067 18
279 1 10.8547 -5.25265 -1.07049 17
280 1 16.2423 -0.957905 4.48452 18
281 1 -6.4314 3.33975 -8.52952 19
282 1 -4.14371 -6.70317 -3.1963 19
283 1 3.74845 8.26308 -7.24106 19
284 1 -7.58164 -8.39819 -10.8501 11
285 1 -3.47055 9.11741 -7.37665 17
286 1 0.126029 9.68085 -13.0365 15
287 1 10.5646 7.21439 2.23131 18
288 1 -10.9706 -7.17584 -5.57266 14
289 1 1.7913 -13.1033 -8.79928 21
290 1 -11.0033 -2.40425 8.02258 8
291 1 -8.29826 5.93838 -7.88424 17
292 1 4.43085 -5.2489 5.75573 20
293 1 -4.30212 -14.9341 -1.03852 16
294 1 1.86924 12.1564 -11.2293 11
295 1 -5.28236 6.23407 -8.14638 18
296 1 -4.62491 -12.5175 -3.36613 17
297 1 12.4279 0.473394 -6.22145 20
298 1 2.13631 -0.3247 2.70058 21
299 1 -7.40851 -1.70234 -3.22459 19
300 1 -5.07973 4.42078 6.95545 16
301 1 -1.18357 -12.8536 3.71862 12
302 1 4.48591 -5.69727 -6.08892 21
303 1 9.4888 -11.2133 -12.6479 11
304 1 -2.64553 -6.74689 2.2201 18
305 1 -8.78702 2.74257 1.07605 19
306 1 0.640029 -4.6726 3.89351 18
307 1 5.62415 -16.2973 -6.49074 12
308 1 6.57313 -6.10987 -16.2587 19
309 1 1.82564 -0.399344 8.43308 20
310 1 7.23295 -10.7817 -6.62621 14
311 1 -4.83799 1.701 -15.6496 20
312 1 10.0112 -9.57513 2.94141 17
313 1 2.5981 11.0146 -8.53659 17
314 1 -0.347606 -2.7158 9.1856 22
315 1 -7.89381 -6.72244 5.24465 16
316 1 5.79419 -1.27365 11.1614 16
317 1 11.1244 2.17797 -3.67059 21
318 1 -4.57479 9.02198 -0.693649 19
319 1 3.83246 0.708688 -11.3438 16
320 1 10.1005 -0.903691 5.20645 20
321 1 14.7078 2.84232 -7.67455 18
322 1 0.368341 -3.66063 11.999 15
323 1 3.79158 6.55437 -5.14405 17
324 1 10.8252 -2.40473 1.72931 20
325 1 -3.7623 -17.7509 -3.33958 10
326 1 3.47241 14.3633 2.452 15
327 1 -6.67976 -15.7698 -11.2373 11
328 1 11.7948 2.88788 6.18839 18
329 1 -5.51474 -0.834789 9.89449 20
330 1 1.10314 -7.809 -8.74645 16
331 1 -8.22721 -1.41067 6.80256 17
332 1 -1.90259 -6.69782 -7.98494 17
333 1 -2.66984 14.7257 5.37205 8
334 1 -6.49872 -17.7379 -5.32997 12
335 1 4.0229 -4.14081 -16.7059 18
336 1 -2.85726 -9.95174 -3.59065 19
337 1 -7.22132 0.238512 1.67863 20
338 1 14.4797 5.10138 5.93349 12
339 1 -1.32166 -1.55259 3.15025 17
340 1 -5.18988 7.19305 -15.0748 15
341 1 12.2297 3.67047 -5.83512 22
342 1 -6.72919 -14.7766 -5.16012 16
343 1 -0.0534458 4.19931 -13.2815 22
344 1 4.14127 16.9602 -2.84165 12
345 1 -3.05548 9.75227 -14.9933 11
346 1 4.42735 12.1224 3.92428 14
347 1 -6.59361 -3.45807 -8.11505 19
348 1 9.88172 12.5717 -7.14821 11
349 1 -5.22577 -14.332 -13.9757 9
350 1 -0.824447 -13.8369 -10.8813 19
351 1 3.78764 -7.29759 -17.8345 17
352 1 -6.29401 13.7095 -2.93652 12
353 1 -1.09021 -1.27028 14.0381 10
354 1 10.2677 -1.9779 -3.86943 17
355 1 2.1521 9.87544 -5.33451 19
356 1 1.31158 3.96993 -16.2725 22
357 1 6.23732 -4.56887 -11.3618 17
358 1 0.297736 -2.8723 1.36698 16
359 1 -4.79146 -5.90206 -9.11308 17
360 1 -2.45937 2.44656 -18.4659 13
361 1 14.8278 3.29243 -1.3111 18
362 1 9.87427 -7.94368 -2.72041 20
363 1 18.9602 -0.491663 -0.344811 13
364 1 5.14175 -0.936713 -16.4669 20
365 1 4.85756 -13.0752 -7.05313 20
366 1 1.01786 -15.0627 -3.37892 14
367 1 5.86997 -8.16129 6.27351 21
368 1 -8.43399 7.01064 -11.2499 11
369 1 4.88679 -11.3456 -16.7516 11
370 1 6.10056 1.36131 -18.3967 18
371 1 5.20152 -2.89399 13.025 9
372 1 -10.6961 -1.62114 -5.07437 15
373 1 11.8401 -6.22147 -13.2164 21
374 1 15.2994 -0.308582 -6.49831 21
375 1 -0.412981 13.9856 -5.00973 20
376 1 4.41402 -7.21094 -8.46172 19
377 1 11.5472 -0.0509736 -13.7307 19
378 1 12.8062 -11.4239 -8.87758 10
379 1 -2.74679 0.555028 5.0385 18
380 1 9.95631 11.3402 -1.61271 13
381 1 1.84096 -4.38911 -18.9345 11
382 1 -7.97029 2.57318 4.19468 20
383 1 1.85046 18.4774 -1.45697 10
384 1 -3.05244 -0.999566 -10.9136 20
385 1 -9.16734 -1.66951 -0.377287 17
386 1 -0.223421 -6.49448 12.8546 8
387 1 3.17683 4.11305 -6.90433 16
388 1 14.1182 -7.40819 -5.16727 15
389 1 -11.476 -10.8341 -5.0127 8
390 1 -1.48359 -13.0885 -3.78417 22
391 1 -3.31034 12.1664 7.87163 10
392 1 2.82661 -9.35739 -10.717 19
393 1 5.72206 8.88833 -8.90131 15
394 1 16.7842 -7.10758 -9.76574 10
395 1 7.6956 11.0551 -9.23649 17
396 1 6.18612 -11.3298 -0.466542 15
397 1 -2.66285 2.80497 7.45984 19
398 1 9.99451 12.0178 6.09317 13
399 1 -4.3466 0.070882 -17.6172 12
400 1 -2.55495 -12.7434 -9.01177 19
401 1 4.07735 2.10827 8.97889 19
402 1 11.3504 10.1233 6.92143 15
403 1 1.78383 6.86184 -10.8844 17
404 1 -5.72363 10.8103 -2.99374 18
405 1 -5.25917 11.8422 -6.23916 15
406 1 13.9269 -2.45724 6.43958 13
407 1 13.4321 2.74618 -12.8927 16
408 1 -9.0836 -11.8464 -3.26698 11
409 1 1.40834 2.01712 10.5235 18
410 1 -0.464078 9.00955 -9.42573 18
411 1 7.50723 -10.3159 -3.25117 19
412 1 10.055 -5.73968 -15.6659 18
413 1 2.01492 17.7393 -4.82338 10
414 1 -3.69715 -5.80549 -15.5599 13
415 1 4.59269 -13.515 -1.11421 18
416 1 -10.4035 -8.95631 -2.30265 11
417 1 -0.0181758 2.62251 -6.94474 18
418 1 -5.02876 -7.73541 -0.0248957 19
419 1 10.6946 5.77474 -3.78588 19
420 1 9.92551 -7.19365 -8.32859 17
421 1 7.18697 -8.62301 8.97566 13
422 1 7.78881 1.0017 -2.99452 20
423 1 -2.83886 3.8385 1.31799 17
424 1 15.2358 -3.8018 -4.0621 18
425 1 6.17825 9.28547 9.53643 14
426 1 2.15693 -4.88613 -14.794 18
427 1 7.28816 13.3083 3.97515 11
428 1 11.9835 5.60345 -12.184 17
429 1 9.57704 -8.421 -17.4845 8
430 1 -2.03015 -11.477 -11.2747 20
431 1 -6.81187 -5.73255 -11.1315 14
432 1 17.5641 2.23526 -2.25198 11
433 1 16.8879 -0.696554 -10.0392 11
434 1 10.1504 -3.64571 -13.6055 18
435 1 12.0896 -8.88923 -11.2092 18
436 1 4.23704 5.51234 1.00282 16
437 1 -9.17885 6.01728 2.71245 19
438 1 16.8149 6.75183 -4.44868 7
439 1 15.9916 -2.89989 -1.37127 21
440 1 5.97744 1.20617 -14.6029 19
441 1 13.142 7.7196 7.94289 10
442 1 2.14438 -3.69358 7.50851 19
443 1 7.34045 0.217063 13.6768 10
444 1 13.8109 -2.09912 -14.5944 13
445 1 5.88726 11.6691 1.56852 16
446 1 -4.21271 1.40365 -5.71125 19
447 1 16.0598 4.52654 -5.98758 16
448 1 15.915 -4.70141 1.3367 18
449 1 4.89549 -8.36145 0.56457 20
450 1 14.8736 2.48059 5.1146 17
451 1 7.15338 6.49241 7.63619 18
452 1 10.2733 5.21006 3.84044 19
453 1 6.65254 13.7262 -7.5783 12
454 1 2.63202 9.26915 -17.1808 11
455 1 10.9798 3.53366 -18.0128 9
456 1 7.16485 7.73732 -5.76596 17
457 1 -2.41225 -18.3781 -6.83884 10
458 1 -8.05156 5.26702 10.3683 5
459 1 -1.11264 5.58272 -16.5295 19
460 1 -7.91022 -12.6038 3.1676 7
461 1 -1.05969 -3.66866 -11.3439 18
462 1 -11.656 0.797592 -5.95813 12
463 1 11.2927 -7.47609 5.28618 21
464 1 12.9562 9.31651 2.46995 15
465 1 0.793798 -10.786 1.28666 20
466 1 -4.4504 -0.932092 -13.8649 18
467 1 9.44552 4.26812 7.03496 19
468 1 4.49357 1.00179 11.4995 21
469 1 10.8732 10.1026 -9.3011 13
470 1 2.8379 1.41547 -16.4762 19
471 1 -0.18773 -18.1416 -9.73698 11
472 1 18.9898 -0.0470731 3.3716 12
473 1 6.85333 11.7222 -1.62512 16
474 1 18.4464 -3.19246 3.18228 12
475 1 -1.04589 4.06226 10.2414 20
476 1 -6.43835 -12.0064 -5.9825 14
477 1 -7.68618 -0.378446 -6.10983 20
478 1 12.278 2.02132 11.5022 8
479 1 -0.969751 -5.36422 6.41456 22
480 1 6.92774 4.09526 9.31266 18
481 1 -8.48869 9.23971 -1.19574 15
482 1 14.2144 2.11866 -3.93181 24
483 1 11.1344 1.59215 3.74446 17
484 1 3.25245 -0.938163 -19.3555 11
485 1 -9.73561 1.39664 7.10549 12
486 1 6.32983 -3.51338 -14.384 18
487 1 0.964983 -9.0694 -6.604 20
488 1 13.9687 -5.42517 -10.2778 20
489 1 5.56981 11.3478 7.0082 15
490 1 1.67969 6.69206 3.45409 20
491 1 10.5313 9.84195 3.54729 17
492 1 2.51349 -7.55558 11.0407 12
493 1 -0.960975 6.88137 11.6052 13
494 1 5.93388 -9.0984 -14.5227 18
495 1 -5.4478 -5.06674 10.7954 13
496 1 13.3564 0.382161 8.60912 11
497 1 17.6286 1.80552 -5.69953 11
498 1 7.31339 -12.5068 -10.3039 13
499 1 -3.021 -3.45239 -8.94263 21
500 1 7.61653 8.97621 0.118538 13
501 1 11.408 11.515 1.06831 11
502 1 -2.81248 -3.99215 3.06148 17
503 1 5.31294 11.0031 -6.14646 21
504 1 12.1398 4.09213 -1.48614 20
505 1 -1.10966 -10.9655 -5.91175 19
506 1 -2.18714 -0.782459 -16.2748 16
507 1 -3.51401 14.1801 -4.60391 18
508 1 7.99705 -2.58181 -11.7491 17
509 1 7.3427 5.11381 1.78129 17
510 1 13.4121 4.80679 -8.86731 18
511 1 13.5684 6.26405 -6.42904 17
512 1 -0.996877 6.2992 1.88427 18
513 1 -2.87182 9.11298 -2.6839 21
514 1 6.39025 5.78942 -7.96159 20
515 1 -2.56703 -7.8873 5.75323 17
516 1 0.71611 7.28864 -18.179 13
517 1 12.3042 12.6259 4.15747 11
518 1 6.1869 2.89055 6.55937 19
519 1 10.2912 14.7892 -0.788682 9
520 1 9.46244 6.12253 -0.57383 20
521 1 14.6011 -6.36957 -12.7508 13
522 1 -11.249 -5.74276 -0.484676 11
523 1 3.19872 -15.445 2.58659 12
524 1 2.38263 -9.11606 -15.2662 20
525 1 -2.36781 7.67631 6.64732 15
526 1 9.49238 -3.70339 -5.78227 17
527 1 3.56197 9.64802 0.550529 19
528 1 -11.8636 -3.74706 -5.6355 9
529 1 5.36135 -16.2353 0.465298 11
530 1 9.43268 3.88825 -8.1138 19
531 1 2.86011 -4.54926 0.223631 18
532 1 8.10399 11.5194 -5.06322 17
533 1 7.32958 -1.27418 -18.8098 11
534 1 4.74386 -10.4863 7.85452 15
535 1 5.43994 14.1181 -4.53469 18
536 1 -3.53017 4.28735 12.6744 13
537 1 0.547502 -7.27097 -17.5013 17
538 1 6.53005 2.14278 -7.82219 16
539 1 0.20063 9.06753 5.41808 20
540 1 6.05 -9.93007 -9.09054 18
541 1 2.93727 -6.62919 2.32995 23
542 1 3.44781 -17.5259 -9.00883 10
543 1 -8.84756 -0.232762 9.19877 14
544 1 -0.0363567 -1.26758 -12.7285 17
545 1 -6.68022 -16.7502 -2.31269 11
546 1 -5.27808 -2.37175 12.7461 10
547 1 15.991 2.40859 -10.7333 11
548 1 -4.59111 -2.1471 5.70899 20
549 1 -6.96363 11.5703 -0.093239 15
550 1 11.4013 -6.27623 2.18251 24
551 1 -1.63938 11.9515 -12.2441 13
552 1 12.566 -8.1487 -7.91983 19
553 1 8.77211 0.712875 -10.171 16
554 1 -7.9803 -0.475575 -9.40969 15
555 1 -4.55601 -11.2824 -13.6345 12
556 1 -3.11936 9.14596 -10.6497 16
557 1 2.55913 -5.91027 13.7025 8
558 1 -0.570588 -10.219 -1.63401 17
559 1 -1.70735 -13.4464 -13.9308 16
560 1 -5.67503 3.91358 -0.709793 15
561 1 11.7188 15.5252 1.95469 8
562 1 -7.99583 1.10699 -1.06401 17
563 1 9.51113 4.96237 -14.5793 18
564 1 2.27752 -15.2979 -6.52499 16
565 1 4.83137 1.54473 -5.77273 18
566 1 5.71538 -5.03283 -18.9276 9
567 1 3.43764 4.72898 7.65515 21
568 1 -0.508401 4.50217 -19.4639 10
569 1 -1.70167 -4.7149 -3.00711 20
570 1 11.3859 2.10407 -8.81819 20
571 1 -7.09467 -3.40167 0.782453 18
572 1 9.99262 2.89468 -11.4317 19
573 1 4.80359 -4.09429 -3.57938 21
574 1 -4.31443 0.797818 13.1091 12
575 1 13.581 -3.66987 1.23472 20
576 1 12.5576 -9.54605 -4.28307 14
577 1 15.3136 -3.49957 3.90585 16
578 1 0.509706 15.1595 4.45801 11
579 1 -2.81713 -3.16177 10.8319 17
580 1 -3.3393 -14.2222 1.76099 13
581 1 13.6521 -0.532971 -3.24821 21
582 1 4.33439 6.97921 9.71922 15
583 1 -8.36833 -6.5182 -8.31269 16
584 1 16.1446 -6.05109 -1.4529 13
585 1 5.66105 9.20581 -3.55108 17
586 1 5.75314 -2.40279 7.84141 18
587 1 0.325584 14.0462 1.38636 19
588 1 1.99373 -12.2287 7.45003 8
589 1 0.0365983 -4.61136 -9.00819 18
590 1 7.06345 -0.458799 5.63065 17
591 1 4.45485 16.7752 -0.0220642 11
592 1 -2.70971 -12.5416 -0.948009 20
593 1 6.42374 -2.22649 4.1335 20
594 1 16.6333 -1.40648 1.51072 23
595 1 8.63976 10.9179 9.25452 10
596 1 -0.953656 6.2222 -10.1059 18
597 1 3.82325 -10.3457 -13.6334 17
598 1 0.357809 1.23926 -17.9264 17
599 1 -1.75685 -0.456025 11.266 16
600 1 8.24852 15.7965 1.53366 8
601 1 17.0236 1.56762 1.97012 17
602 1 -6.60758 5.01371 -14.6756 13
603 1 1.72143 8.5893 10.8604 12
604 1 10.6603 6.71254 8.15217 17
605 1 8.4194 -1.39476 -15.1809 20
606 1 -0.00242853 -16.0116 -8.54146 18
607 1 -0.327287 -1.08287 -9.65496 22
608 1 17.797 3.09738 4.59848 8
609 1 1.98582 -4.64406 -11.8926 15
610 1 0.324149 -7.67024 -3.10041 19
611 1 14.1732 -6.17152 3.82532 17
612 1 8.27039 -11.2029 7.60352 9
613 1 -3.79585 -17.7389 -11.1534 11
614 1 11.1293 8.78482 -0.826653 15
615 1 -6.78436 -9.50504 0.555741 15
616 1 -10.911 3.4813 4.59886 10
617 1 12.8074 8.66792 -12.3451 10
618 1 8.52828 -3.61149 -17.2979 11
619 1 1.6069 11.7613 0.481804 17
620 1 8.22076 3.9482 -17.0308 18
621 1 16.0201 -8.99366 -7.21704 9
622 1 -9.93184 4.17549 -5.39641 16
623 1 12.6822 6.06912 0.861393 22
624 1 -8.37103 -12.3565 -0.204355 12
625 1 0.989889 5.27844 12.2795 17
626 1 -9.20063 -3.78433 -10.3616 11
627 1 -7.47791 6.82239 7.34487 11
628 1 -8.5969 7.25565 -14.6724 6
629 1 8.93168 -5.21958 -10.866 20
630 1 -7.02411 -9.31836 -7.69553 14
631 1 10.6737 -11.0007 -1.88196 12
632 1 -11.5939 -2.71861 -2.17256 11
633 1 -2.51869 -8.65801 -13.4031 16
634 1 -1.9722 -5.72322 10.2453 18
635 1 11.9813 -3.99739 4.6382 22
636 1 15.3944 0.112226 -0.828875 22
637 1 -11.7892 7.6982 1.52681 5
638 1 2.15874 8.28048 7.57734 21
639 1 7.66232 8.39127 -14.1955 13
640 1 -1.37252 10.997 2.86536 20
641 1 11.9893 8.99042 -7.18764 12
642 1 3.71465 2.99761 13.8472 12
643 1 13.3816 -5.14102 6.85706 14
644 1 3.92932 4.11756 -13.4315 19
645 1 -1.16062 0.908889 8.56443 20
646 1 4.42625 -6.67327 -14.5295 18
647 1 -11.0091 0.887653 -2.16369 13
648 1 0.367122 -9.84215 5.48867 19
649 1 10.3258 1.15146 8.10208 20
650 1 4.01369 -11.8828 -10.8173 16
651 1 -9.54133 -1.7327 -7.64998 17
652 1 11.413 -5.72024 -10.1075 18
653 1 -4.45001 13.7902 -1.12276 18
654 1 -6.62929 5.65901 4.29293 20
655 1 2.451 -10.1804 -17.9493 11
656 1 1.70128 -12.6775 -5.71642 23
657 1 8.58665 -16.2806 -0.502287 7
658 1 3.17359 9.71483 -12.8895 12
659 1 12.2589 -3.00147 -9.38393 18
660 1 10.7633 7.47688 5.48186 18
661 1 18.8719 -3.57186 -0.320463 12
662 1 3.09772 2.87453 -19.0656 16
663 1 2.66933 -9.48923 3.17167 20
664 1 12.3953 8.77782 -3.9103 10
665 1 5.73418 -1.21038 -13.0433 16
666 1 -6.68846 7.47768 -5.18579 15
667 1 9.60899 7.10439 -12.1048 15
668 1 -6.39793 -5.56016 7.75563 16
669 1 6.78084 9.50938 4.82248 16
670 1 4.43133 -11.4541 -3.61077 19
671 1 8.84453 7.88216 -8.79803 17
672 1 -3.65171 5.75566 9.44643 13
673 1 -3.35455 -1.02417 8.09153 20
674 1 14.0007 5.91385 -3.06979 19
675 1 0.789543 0.0523492 5.42687 18
676 1 8.68112 -12.5377 4.14573 11
677 1 -0.701724 -2.0077 6.43343 21
678 1 12.6932 3.73196 8.72106 14
679 1 5.62403 -7.43124 -11.2683 18
680 1 -8.96975 2.25494 -13.5364 8
681 1 -6.23775 4.53032 -11.235 16
682 1 -5.2811 1.20983 -11.1711 18
683 1 17.7289 4.83945 0.237349 10
684 1 -2.90559 8.26092 3.40949 18
685 1 -8.55743 -14.8401 -2.66798 9
686 1 -1.02335 14.7041 -1.32385 20
687 1 15.4915 4.44445 2.98058 15
688 1 -5.5958 -5.38803 2.94005 18
689 1 14.4479 -3.18515 -7.21182 19
690 1 5.29495 -7.21927 3.4662 16
691 1 1.12714 1.57511 -14.0951 20
692 1 -2.03041 2.23324 -15.7846 23
693 1 -2.10212 -7.61266 -5.10634 17
694 1 -2.80525 10.5577 -5.00348 18
695 1 -5.83114 0.957117 7.18663 18
696 1 5.72771 1.53978 3.53571 18
697 1 -9.71763 -5.73806 3.09825 14
698 1 16.6213 -0.405777 -3.47172 19
699 1 6.97917 6.89837 -16.5009 14
700 1 15.6398 6.80742 -0.948767 12
701 2 -2.3128 2.6647 -10.7631 19
702 2 -1.84236 15.1614 -5.05252 15
703 2 8.09982 -6.78324 -7.86908 16
704 2 -3.15876 6.84708 8.20933 11
705 2 -7.84776 -10.2823 -11.4626 8
706 2 8.76562 -5.55647 8.34589 12
707 2 -11.736 -5.49048 -6.17185 8
708 2 -9.12751 2.07737 -2.20894 15
709 2 5.79107 11.3234 5.01421 16
710 2 -10.6592 -1.02223 6.71753 12
711 2 4.13002 2.77493 4.14786 18
712 2 3.22183 -0.0984949 -9.67342 15
713 2 -7.9978 -8.38207 -8.97704 12
714 2 -8.52493 2.75132 -5.47119 20
715 2 -6.33867 -5.94516 4.87425 15
716 2 1.55052 4.52116 6.90561 16
717 2 12.4676 4.30598 -13.6366 14
718 2 3.95549 -15.6099 -0.378769 14
719 2 7.02069 1.66794 5.09714 15
720 2 3.98037 11.5359 0.737833 21
721 2 -7.58798 0.423122 -7.81713 16
722 2 8.69267 3.61958 2.46752 18
723 2 10.5127 -10.417 -11.2971 16
724 2 -5.26024 -13.5868 -4.73114 14
725 2 -3.92871 -5.03997 1.71115 16
726 2 -8.65303 -10.9745 3.53589 8
727 2 12.0424 -6.2594 4.11525 19
728 2 3.00915 -10.7897 -15.9441 15
729 2 4.05441 -0.702266 12.5679 14
730 2 1.043 8.39771 -16.4098 14
731 2 -3.53079 -14.5169 -8.27288 20
732 2 -0.600009 5.95963 13.2917 12
733 2 -5.27755 8.75057 0.966373 22
734 2 -1.25718 -2.31134 12.1199 14
735 2 -1.06217 10.4176 -5.65937 20
736 2 8.78565 -15.6189 -2.22211 8
737 2 -4.7943 4.37886 1.247 20
738 2 9.136 10.5112 -10.2147 14
739 2 11.7822 -6.36252 -8.52187 20
740 2 -3.88113 -0.0486001 -15.3154 18
741 2 4.53559 -11.6768 -12.7047 17
742 2 9.40388 -5.85043 -5.32926 17
743 2 -0.401952 1.06973 11.2103 15
744 2 6.18297 10.333 -10.4045 14
745 2 3.26846 5.56119 -10.9817 14
746 2 17.7322 5.27675 -5.35582 6
747 2 -1.39931 -5.13802 12.0876 12
748 2 -6.02104 12.7713 -1.15768 14
749 2 13.6309 -3.33646 -16.1794 8
750 2 5.75166 -11.0757 -15.1489 13
751 2 -8.44287 -13.2054 -1.87144 14
752 2 15.9089 0.347641 1.12555 19
753 2 -3.29765 8.7238 5.28888 14
754 2 -0.951604 -15.5066 -10.1249 20
755 2 -1.35426 13.4752 1.00679 21
756 2 7.49326 -11.2829 5.80258 15
757 2 10.2396 3.5069 5.26801 18
758 2 -3.41783 -4.82116 -4.04168 21
759 2 11.5863 -5.52811 -2.76292 21
760 2 5.78264 -16.2349 -4.62798 11
761 2 11.8084 7.19649 -3.02548 15
762 2 9.31685 -8.9767 1.16646 17
763 2 7.87519 -1.5966 -0.504326 18
764 2 -4.38051 -3.68168 12.0162 14
765 2 14.3228 -4.20516 -11.8995 17
766 2 4.28336 5.57304 5.96365 18
767 2 14.3236 8.14735 3.02694 14
768 2 -2.44863 3.55298 14.0385 9
769 2 5.38599 10.7201 -2.50166 20
770 2 11.9707 -9.42161 -1.94637 12
771 2 -0.224432 5.72566 -11.8045 18
772 2 -6.79946 -7.26332 -12.07 11
773 2 -9.05187 -2.21599 8.59614 14
774 2 7.54973 0.36499 -15.2284 17
775 2 -8.8312 2.59779 -11.7251 12
776 2 -11.2456 -4.0504 -0.933078 11
777 2 -7.69822 -15.5211 -1.20848 12
778 2 16.5424 -7.32676 -6.36672 9
779 2 0.730029 -12.1704 2.92078 18
780 2 0.745128 -0.468882 14.4909 10
781 2 7.66229 0.458171 -19.2811 10
782 2 7.76904 1.77869 12.6646 12
783 2 2.25303 13.0572 1.88833 22
784 2 -5.83743 3.51914 3.66102 21
785 2 8.32834 -12.1666 -6.64946 16
786 2 15.2234 -4.602 -2.33846 14
787 2 -7.03809 8.66758 6.74385 13
788 2 -0.834203 -10.5128 0.196799 17
789 2 10.0234 -6.76519 -10.9019 18
790 2 9.3912 3.83368 -9.99573 18
791 2 1.2815 1.91081 5.71081 20
792 2 13.5821 -4.22967 -8.57959 18
793 2 5.29153 -0.459299 4.0189 17
794 2 1.015 -10.7681 -2.47948 20
795 2 11.1527 -1.62743 -8.54015 22
796 2 -1.92471 -8.76539 2.2767 19
797 2 15.4168 6.22472 -5.7116 13
798 2 1.12889 -6.51327 3.63046 21
799 2 12.6493 -7.21448 -11.012 19
800 2 -2.88434 -17.6471 -5.01823 13
801 2 17.1804 -4.90779 -0.14387 14
802 2 -2.2832 13.0961 6.69286 11
803 2 14.2498 -1.36633 -7.71075 18
804 2 -0.225667 -12.967 -8.99273 22
805 2 -9.59791 -7.43047 -6.90661 13
806 2 -3.76445 -8.48364 -4.26149 20
807 2 0.0693547 -3.69457 -3.22804 15
808 2 -8.23444 10.3059 0.391247 14
809 2 -8.18609 9.38573 3.39748 17
810 2 0.315375 -2.92409 -9.94711 20
811 2 13.6855 4.39461 -7.02283 17
812 2 2.15968 3.64289 -12.9666 18
813 2 -3.89435 -6.019 9.73926 16
814 2 3.11253 -0.581494 -16.1606 19
815 2 -2.81195 10.4484 1.70686 18
816 2 -2.38328 0.874023 6.90869 21
817 2 -10.9094 2.77287 2.76385 13
818 2 -5.78201 4.71765 -7.06671 19
819 2 10.1954 15.9734 0.836938 8
820 2 15.9119 2.53573 -6.36057 15
821 2 13.5104 -8.8478 -6.53555 15
822 2 -9.76047 1.60927 9.07786 11
823 2 12.4483 1.45868 2.30385 16
824 2 2.85565 11.1895 4.25617 18
825 2 -6.01891 4.35607 -13.0602 16
826 2 -2.53522 13.2666 -1.49059 16
827 2 15.2395 0.5891 4.15709 18
828 2 -4.19852 -2.86119 -13.4516 16
829 2 9.82175 3.82306 -13.1418 19
830 2 13.5247 5.5749 -1.01589 16
831 2 -5.11441 -4.16761 6.52654 20
832 2 6.73077 9.67142 -5.22912 14
833 2 0.769267 6.80339 -9.32664 17
834 2 6.98011 8.03996 -7.84756 16
835 2 10.7516 2.99175 8.19524 19
836 2 7.0315 10.2066 7.86099 16
837 2 15.4897 -6.48386 -11.1213 10
838 2 -2.31741 0.602991 12.8353 13
839 2 9.10111 -2.16096 2.76692 19
840 2 -11.0936 -0.748157 -6.94 13
841 2 -3.32395 -10.9211 -9.8023 18
842 2 2.50846 -11.0958 -9.58668 22
843 2 2.10981 -3.08054 -13.3368 17
844 2 17.0914 3.27244 2.47654 14
845 2 1.70986 -2.17337 9.36124 14
846 2 4.00408 -0.399856 -12.8601 17
847 2 -0.883304 -7.3119 9.4227 16
848 2 8.10337 -4.90413 -15.4748 16
849 2 4.58551 -17.0444 -7.69969 9
850 2 4.51286 -6.67533 -12.5608 20
851 2 2.371 -14.3589 -4.57399 17
852 2 15.0046 3.37738 -9.4416 14
853 2 -0.989504 8.34236 -18.5816 11
854 2 -1.80147 16.845 -3.23723 13
855 2 -2.36323 -6.22 -6.33446 18
856 2 -5.98919 0.240081 -16.7217 11
857 2 5.05145 10.0614 -13.4288 11
858 2 4.87085 14.7128 -7.52859 12
859 2 -2.58986 -11.7439 3.80963 12
860 2 14.9809 -2.14092 5.07822 17
861 2 0.0819552 2.97664 14.3027 13
862 2 -4.90216 -14.6495 0.876706 12
863 2 5.61233 -14.5637 -2.28512 17
864 2 2.61811 1.41924 14.3091 11
865 2 8.54931 14.9655 3.19407 8
866 2 13.0926 5.06318 -10.7503 17
867 2 -1.76932 8.18376 10.6554 11
868 2 11.7736 9.51084 -11.0235 14
869 2 -7.39956 -8.82186 5.02777 10
870 2 11.6427 -3.89339 -5.61054 21