ITEM: TIMESTEP
20000
ITEM: NUMBER OF ATOMS
1500
ITEM: BOX BOUNDS pp pp pp
-30.0 30.0
-30.0 30.0
-30.0 30.0
ITEM: ATOMS id type x y z Coordination
1 1 -2.14794 -13.0511 -7.26136 15
2 1 7.69902 -7.86585 4.92146 20
3 1 -7.35026 6.43734 -0.158079 20
4 1 -3.60697 1.81053 -12.6945 18
5 1 2.32899 -10.234 7.54727 13
6 1 1.88925 -1.44088 -16.1367 16
7 1 0.546657 -14.2871 -1.87727 15
8 1 -13.1017 -6.53223 -4.05975 10
9 1 0.763449 1.42908 16.035 7
10 1 9.73277 -3.07894 5.94153 20
11 1 2.72315 5.29941 9.61422 15
12 1 10.9857 -0.283502 -0.189796 19
13 1 -0.401044 12.39 -6.19274 16
14 1 6.37313 -2.96409 7.95313 17
15 1 13.67 1.42885 -0.345566 19
16 1 -0.823273 9.06699 -16.8311 10
17 1 3.94937 6.2237 -14.5998 18
18 1 -7.26711 -0.706141 4.58909 16
19 1 1.64292 -1.2617 -11.2517 21
20 1 8.51472 -13.3439 1.11305 11
21 1 3.49634 1.76979 5.44635 21
22 1 11.6189 -9.17344 0.0643352 12
23 1 -5.18928 -15.396 -9.07001 16
24 1 10.7327 -4.64109 -6.2076 22
25 1 6.09598 -5.27823 -8.76219 21
26 1 3.86731 2.77284 10.9607 18
27 1 2.70897 -11.54 -1.22948 21
28 1 7.70881 -5.5326 6.50761 17
29 1 -9.96319 -4.7695 0.0936236 12
30 1 -3.97795 4.59272 -3.70926 19
31 1 -0.0362345 10.3013 -4.07564 22
32 1 1.98559 4.37011 -9.22596 17
33 1 10.4349 -11.2723 -13.8719 8
34 1 4.82544 -5.62199 9.90691 13
35 1 -7.8676 1.30413 -4.3338 20
36 1 3.637 10.6807 9.46246 11
37 1 -10.4236 4.03147 -5.34818 11
38 1 4.43456 15.7453 -6.90719 11
39 1 3.16487 -14.8283 -0.464351 14
40 1 6.62551 -7.32769 -3.16379 21
41 1 -1.14493 1.50555 13.1212 19
42 1 -7.29852 -11.5985 -13.5321 10
43 1 9.35359 0.473976 2.3953 20
44 1 -4.67932 5.66537 -18.1348 13
45 1 -5.57894 -10.2326 0.0282086 18
46 1 -6.62835 8.8626 -10.5777 14
47 1 -0.972781 1.43035 -11.7022 21
48 1 6.91604 3.41598 -1.24972 19
49 1 1.604 6.01224 6.25422 17
50 1 8.89944 -15.255 -5.61182 11
51 1 10.3595 7.50491 11.3384 8
52 1 13.286 -3.14807 -15.9143 10
53 1 13.0871 -8.28691 3.54707 12
54 1 -12.1614 -1.36063 5.70006 9
55 1 10.301 -5.40037 8.36866 9
56 1 -4.97356 -8.51037 3.28355 19
57 1 -3.82924 1.26995 -2.19629 18
58 1 11.322 4.09765 10.0253 13
59 1 7.72683 -3.93444 -3.8775 19
60 1 -1.79865 7.52242 9.84354 10
61 1 5.20321 4.47278 4.29297 18
62 1 -7.52603 -3.67859 6.70004 19
63 1 1.0435 -7.44791 -11.8673 15
64 1 -4.59274 13.368 1.97292 13
65 1 -3.41713 9.02148 -17.9699 9
66 1 7.70048 5.2029 -10.9363 20
67 1 9.3929 -12.7663 -7.91599 14
68 1 9.15007 -2.74296 2.68185 22
69 1 4.54697 -12.9257 4.35632 14
70 1 1.31772 15.3407 -7.74978 14
71 1 -9.24791 9.98707 0.85811 9
72 1 -5.7166 7.66704 2.35486 17
73 1 0.325869 -9.22914 9.64669 12
74 1 14.9116 -9.85225 -10.329 12
75 1 -11.4912 3.68804 0.725698 10
76 1 16.9348 -6.07649 -6.93686 12
77 1 6.67742 4.97663 -13.9324 19
78 1 -0.247964 -2.71822 -17.7832 9
79 1 -1.65069 8.9353 -0.265663 22
80 1 -5.15553 8.12314 -12.8056 15
81 1 6.49141 9.06416 -12.2929 18
82 1 1.23877 8.6782 2.18746 18
83 1 -4.13385 -5.24932 5.84096 19
84 1 -0.197409 -9.20498 -14.3947 17
85 1 9.27748 -9.66405 -8.24739 15
86 1 0.687724 2.61596 7.03442 23
87 1 -3.38835 -4.6472 -6.18668 16
88 1 7.10525 6.86144 3.17785 16
89 1 -2.96383 -9.28611 -10.3644 17
90 1 8.43399 -8.96568 1.45857 20
91 1 -3.55566 6.64416 -0.390995 21
92 1 9.35048 -0.69603 -18.6827 12
93 1 0.913197 5.27162 -6.62759 19
94 1 15.9018 -7.21423 1.3097 11
95 1 2.178 -12.8889 2.37083 16
96 1 -2.78189 -14.0397 -10.3341 20
97 1 -9.74098 -6.0565 6.99996 9
98 1 9.57252 2.49714 0.0388451 21
99 1 7.53546 6.01153 -2.83588 17
100 1 2.16691 11.6699 7.13723 15
101 1 -2.09126 14.3948 -7.2666 14
102 1 -1.04282 -6.46656 -15.7994 17
103 1 12.2566 -1.88381 9.29434 9
104 1 -1.25458 6.9894 -12.252 16
105 1 13.7434 -5.90406 -14.5762 11
106 1 -7.40572 11.3475 -9.20154 10
107 1 -0.0157249 16.0343 -0.937435 13
108 1 12.0903 3.17061 -14.3556 14
109 1 8.5584 -5.52339 0.0473273 21
110 1 -3.08611 12.0057 -3.97266 22
111 1 9.44812 10.4405 -13.1002 10
112 1 12.3103 9.2674 -0.646739 15
113 1 -9.12321 8.59282 -7.92135 9
114 1 -5.84953 -2.55537 -16.6748 10
115 1 9.6749 14.8895 4.98083 9
116 1 -8.65428 -3.77406 -5.61256 19
117 1 19.3913 -5.38983 -9.43709 5
118 1 -3.13967 8.17199 3.95777 17
119 1 3.25105 14.1308 -10.1151 11
120 1 8.47482 -5.64467 3.51226 19
121 1 -6.59146 -3.51214 -0.093454 20
122 1 -2.33363 -9.57811 1.1168 18
123 1 1.28293 -17.8467 -9.08202 11
124 1 0.566662 12.9226 -9.66437 14
125 1 4.60902 6.41093 -11.7481 19
126 1 14.5507 6.87155 -10.8033 7
127 1 -2.71015 -10.5647 3.95256 11
128 1 -4.36511 6.57432 -5.83887 20
129 1 3.7519 11.084 -2.88687 22
130 1 -1.75234 4.25672 14.8521 9
131 1 -3.59559 11.0503 4.63572 17
132 1 -0.690598 -9.64294 -9.13614 14
133 1 14.844 -7.54392 -1.16554 14
134 1 -3.51142 -4.33413 0.651549 19
135 1 -8.15506 -5.74382 2.09726 14
136 1 -7.36996 -8.97642 -2.42876 21
137 1 -3.98475 -4.04202 -2.52815 17
138 1 0.241282 -14.248 0.98849 10
139 1 -7.42222 -4.87259 -3.33713 16
140 1 9.07041 -8.24715 -1.79773 16
141 1 -4.29857 10.3305 1.54174 19
142 1 -5.23269 1.86431 3.00249 19
143 1 -3.19673 12.4071 -8.87587 16
144 1 -8.40274 3.70524 -10.6347 13
145 1 -7.19397 -12.51 -10.435 16
146 1 -7.82017 1.50425 9.94466 13
147 1 1.90752 -6.35507 5.32717 17
148 1 7.4348 -13.8068 4.50975 8
149 1 15.0844 8.49842 0.7887 11
150 1 7.24014 2.75102 -12.4523 23
151 1 10.8729 -3.24214 0.715021 18
152 1 6.69929 4.65435 -17.6609 17
153 1 8.72788 -2.5339 -8.73492 22
154 1 -8.17549 -1.95134 -11.5512 13
155 1 -7.83712 11.484 -5.79186 10
156 1 -0.88589 16.6286 -5.61757 13
157 1 8.79409 -1.42013 8.30867 15
158 1 1.23446 -10.382 -16.4123 16
159 1 -4.47259 11.3017 -11.8059 12
160 1 -0.446108 6.68694 -15.2807 18
161 1 -5.06228 2.24662 9.76353 18
162 1 0.149484 9.93393 8.12109 13
163 1 2.94419 -9.56387 -8.58057 20
164 1 -8.18454 -14.9169 -8.94579 11
165 1 10.8962 -13.1895 -5.18004 9
166 1 6.13393 -4.32746 1.37911 20
167 1 13.767 -0.76274 -8.82671 19
168 1 3.8925 14.2795 -2.611 21
169 1 -12.1478 1.99404 4.04545 8
170 1 1.63033 7.03635 -0.223542 21
171 1 13.0773 -5.00321 -7.21363 17
172 1 6.95172 14.7112 -1.96916 15
173 1 -8.94276 9.4723 4.39347 8
174 1 -3.17123 -13.9907 -13.6012 13
175 1 4.97382 9.56156 -16.1771 8
176 1 4.83913 -0.812699 5.95234 19
177 1 16.7132 4.27355 -10.4565 8
178 1 9.22089 -6.7966 -4.71787 21
179 1 6.21493 -8.72571 -17.3167 14
180 1 9.20396 -1.87399 -5.3533 19
181 1 -7.75227 -10.4564 4.50839 6
182 1 -2.0019 -16.0023 -3.18409 13
183 1 -5.1077 -6.83291 -12.3633 18
184 1 7.80884 14.088 -5.4756 13
185 1 8.2739 -5.72062 -13.1929 21
186 1 10.1666 1.28935 12.2645 6
187 1 18.7865 -1.32229 -5.89273 13
188 1 -4.10064 -10.7639 -6.21741 20
189 1 12.1852 -3.37379 -10.4404 20
190 1 -1.45073 -6.15965 -1.2895 18
191 1 -5.56285 -3.51249 -11.1984 17
192 1 -0.346797 -11.3812 -18.4703 8
193 1 14.6807 7.34165 3.86533 11
194 1 6.45091 2.03606 12.841 11
195 1 0.928482 -12.3973 -13.3953 10
196 1 0.324104 -8.06149 0.134878 19
197 1 4.72867 5.8457 -19.8136 8
198 1 4.4096 8.40102 2.03991 18
199 1 -8.32598 -6.55824 -0.77918 20
200 1 1.89602 15.8287 1.61531 13
201 1 -2.2052 -2.92761 8.85446 18
202 1 -5.91504 -3.50027 -13.8969 15
203 1 -2.55482 -4.11305 -13.5606 19
204 1 -8.15266 -7.45746 -5.2275 18
205 1 0.123533 -8.7753 3.32251 21
206 1 14.7694 0.498754 2.02926 20
207 1 1.31223 -4.26061 -6.05095 17
208 1 -3.40046 -7.46645 8.04609 15
209 1 1.83049 -9.89654 -3.92292 21
210 1 5.12966 -8.12976 -0.184867 20
211 1 2.26221 12.0053 -5.29321 17
212 1 3.83106 3.43261 -15.9131 18
213 1 -1.38198 -8.95592 -17.1938 12
214 1 3.49104 -15.4787 -9.94276 14
215 1 -0.49892 -16.4101 -11.8268 10
216 1 -7.21428 -0.369776 -14.7893 13
217 1 5.61669 6.65045 7.03885 17
218 1 -3.52186 0.999389 -7.85008 15
219 1 -3.46726 5.07654 -14.7001 21
220 1 1.54725 3.16706 4.41274 18
221 1 -1.81275 14.1404 -0.18311 16
222 1 1.78969 11.3899 3.81953 22
223 1 13.2493 -2.69102 -4.66648 23
224 1 -6.64535 3.86827 7.50724 18
225 1 0.734742 -5.83385 8.30821 15
226 1 -1.18445 11.3402 -1.25852 22
227 1 9.18117 -8.12989 -11.2187 17
228 1 5.52991 -13.9711 -5.23307 17
229 1 1.41185 -0.395013 13.88 15
230 1 -5.41447 -8.91762 6.4283 13
231 1 15.6389 -1.34785 -11.3828 13
232 1 6.64771 -7.4921 -6.35044 23
233 1 6.30443 -14.5014 -7.68248 18
234 1 -10.964 -1.23212 3.0803 8
235 1 -3.10338 16.9761 -2.59886 8
236 1 6.24763 0.0759278 8.62284 18
237 1 14.0758 3.86182 1.91471 17
238 1 -3.91328 -1.76696 -1.04313 20
239 1 13.6338 -4.92169 -2.58754 17
240 1 1.32319 9.04703 -2.43326 19
241 1 -0.885406 6.10096 -1.93613 22
242 1 5.24935 -12.6175 0.698388 17
243 1 13.561 1.01087 4.61568 18
244 1 -3.83096 5.02002 2.76804 19
245 1 -5.05189 -9.26779 -4.80485 19
246 1 3.59365 0.212962 11.3275 20
247 1 -0.81256 12.3692 5.72452 16
248 1 -3.06579 4.85657 -10.8191 18
249 1 -7.22583 -3.64819 9.73759 14
250 1 -9.16763 3.43203 -2.14877 16
251 1 3.77723 -3.60858 -8.37465 20
252 1 -6.23553 6.65865 -2.74511 18
253 1 8.91203 8.00819 6.33442 19
254 1 -4.62175 -14.2997 -4.86618 22
255 1 11.8882 -9.92188 6.62987 6
256 1 -9.26076 6.29639 -3.15798 13
257 1 4.5531 -7.35826 7.21787 20
258 1 6.63353 -10.6623 -12.1471 18
259 1 -3.17085 -6.43668 -10.4008 19
260 1 10.1619 0.816939 -13.6974 23
261 1 4.48127 12.8675 -0.0754604 21
262 1 -8.41257 2.60773 -7.42217 18
263 1 12.1605 -0.0706652 -16.661 12
264 1 -7.79815 -14.1122 -0.919781 12
265 1 -10.2972 -8.96649 -6.05115 14
266 1 2.3982 -7.35164 -1.29381 18
267 1 11.0946 -0.462718 -10.7768 17
268 1 3.8726 -1.52664 -13.0092 19
269 1 -5.70851 2.92763 -6.31365 18
270 1 -6.68188 10.8572 3.03953 16
271 1 -6.03305 10.4382 6.32813 10
272 1 -7.51617 -0.853459 12.9495 6
273 1 21.1899 -2.08384 -3.23718 7
274 1 17.6332 -4.18471 -12.1728 9
275 1 -3.13289 4.30375 -7.61036 18
276 1 3.91197 -9.24087 -5.89509 17
277 1 1.23214 16.4669 -3.47138 16
278 1 -1.77654 7.21987 -8.42888 19
279 1 10.5689 -3.90998 -2.30856 19
280 1 17.1673 0.858358 5.20268 14
281 1 -5.67468 2.60637 -9.76338 21
282 1 -5.24267 -6.68782 -2.4796 17
283 1 2.92597 7.59689 -8.79889 19
284 1 -6.12051 -8.94101 -11.0441 16
285 1 -5.0221 8.65278 -8.31157 20
286 1 0.203326 9.53885 -12.9405 12
287 1 11.1847 7.96035 1.29324 22
288 1 -11.9691 -6.03924 -6.64349 9
289 1 1.2422 -12.2705 -9.77432 16
290 1 -10.274 -2.69522 8.92555 10
291 1 -8.34364 5.48094 -7.92469 12
292 1 5.19454 -5.14065 4.87893 22
293 1 -4.8936 -14.8297 -2.08198 16
294 1 3.29868 10.4006 -11.3507 15
295 1 -6.16461 5.69325 -9.51523 19
296 1 -6.39272 -12.2405 -3.1482 19
297 1 12.1443 0.565757 -5.78586 21
298 1 1.69649 -0.0467839 3.06572 21
299 1 -6.82092 -1.79809 -2.80161 22
300 1 -4.43098 3.88649 5.63297 20
301 1 -0.478954 -12.265 3.33853 16
302 1 4.80994 -5.04838 -5.24397 26
303 1 10.2345 -11.3441 -10.7727 12
304 1 -2.19875 -6.77943 2.1233 19
305 1 -8.33865 2.64879 0.454033 18
306 1 0.466712 -3.6599 4.05144 19
307 1 5.92722 -17.2359 -5.43097 7
308 1 7.11238 -5.86691 -15.9706 21
309 1 1.63946 -0.671537 6.66414 18
310 1 6.77788 -11.1017 -6.44765 17
311 1 -3.84208 2.97237 -17.1871 17
312 1 10.5588 -8.79577 3.72528 14
313 1 3.3556 11.2098 -8.32483 18
314 1 0.454449 -3.61589 9.49615 13
315 1 -6.673 -6.41373 5.29941 15
316 1 5.07722 -2.63105 10.5598 15
317 1 11.6689 2.53723 -3.2394 24
318 1 -5.14019 8.67743 -1.08401 19
319 1 5.08773 0.850495 -11.4165 22
320 1 11.374 -1.19998 4.99826 19
321 1 15.0743 2.35491 -7.5252 22
322 1 0.28439 -4.27768 13.2344 10
323 1 3.59333 5.76528 -6.31748 19
324 1 12.7285 -1.65357 2.38488 22
325 1 -4.38106 -17.4788 -3.48857 10
326 1 4.07024 14.0996 2.84261 16
327 1 -6.56205 -14.8092 -12.079 13
328 1 11.685 3.24104 6.70185 18
329 1 -5.01906 -0.376099 10.546 16
330 1 1.98785 -6.45664 -9.47333 17
331 1 -11.6329 -4.10836 6.57782 8
332 1 -1.34536 -6.49588 -7.82268 17
333 1 -1.74536 13.1658 3.23741 16
334 1 -6.58141 -16.2269 -6.31444 16
335 1 5.35293 -3.76709 -17.0024 18
336 1 -3.68737 -9.73504 -2.69364 18
337 1 -8.46913 0.981911 2.38006 18
338 1 14.6209 5.25798 6.47232 12
339 1 -1.80575 -1.10946 1.92815 18
340 1 -5.50875 7.97337 -15.8232 14
341 1 12.3776 3.79615 -6.1988 20
342 1 -8.52894 -13.842 -5.3733 14
343 1 -1.31234 4.04952 -13.1056 17
344 1 4.84367 16.8809 -3.67982 13
345 1 -3.42848 10.3033 -14.8236 10
346 1 4.57167 12.0855 5.63239 15
347 1 -6.02012 -5.40642 -6.48144 19
348 1 9.42108 12.8075 -8.09384 11
349 1 -4.96058 -12.405 -16.0488 8
350 1 -1.09079 -11.6522 -11.9586 16
351 1 4.32655 -6.79458 -18.0532 13
352 1 -5.67613 12.4172 -3.5028 12
353 1 -1.53166 -1.08646 13.7427 11
354 1 10.599 -0.525357 -3.21313 18
355 1 3.04648 8.92033 -5.41192 20
356 1 0.14927 3.47317 -16.421 18
357 1 6.09101 -3.00247 -11.2972 26
358 1 0.779438 -2.45465 1.9469 16
359 1 -4.37476 -7.85225 -7.50902 20
360 1 -3.8581 1.84044 -20.2322 8
361 1 17.004 4.92509 -4.19076 14
362 1 11.7838 -6.70691 -1.17494 18
363 1 19.3732 0.558374 -0.39066 10
364 1 6.95352 -0.397473 -16.8717 22
365 1 3.96402 -12.0702 -7.18263 21
366 1 2.74901 -12.7371 -3.90128 18
367 1 3.99197 -8.56235 4.64216 20
368 1 -8.05384 6.12433 -12.7448 12
369 1 8.0912 -8.98142 -14.9259 14
370 1 6.29576 1.86475 -18.1693 14
371 1 5.33518 -3.94216 13.3915 7
372 1 -9.68863 -1.67737 -3.0588 18
373 1 12.7573 -8.47126 -12.4702 13
374 1 15.1055 -0.512958 -5.91878 23
375 1 -1.22069 13.9771 -3.21738 19
376 1 4.33525 -6.63308 -7.46342 18
377 1 13.397 0.379044 -14.1483 11
378 1 12.3632 -11.3377 -8.14847 12
379 1 -3.80708 0.380499 5.19354 18
380 1 9.29893 10.592 -1.71428 15
381 1 2.43466 -4.21375 -18.004 13
382 1 -7.22074 3.458 4.52487 18
383 1 3.06644 17.6473 -1.36392 10
384 1 -3.30148 -1.05628 -11.3621 16
385 1 -8.73588 -1.27124 0.174382 20
386 1 0.902754 -7.30909 11.6493 11
387 1 3.41202 2.69002 -6.88881 20
388 1 15.7391 -5.33074 -4.16756 17
389 1 -12.5808 -9.96146 -4.83058 9
390 1 -1.36216 -13.0853 -4.35381 17
391 1 -3.91933 13.0568 7.04413 6
392 1 3.92549 -9.08977 -11.5133 17
393 1 5.59563 9.32234 -8.66532 19
394 1 17.1313 -7.64775 -9.82669 11
395 1 7.32609 11.0776 -10.2271 15
396 1 7.55742 -10.49 -0.559428 14
397 1 -2.65762 2.78908 7.35804 20
398 1 8.50561 11.4282 6.02077 16
399 1 -5.74864 0.433265 -17.544 11
400 1 -4.97675 -11.4569 -8.86471 18
401 1 3.11574 1.26901 8.4354 19
402 1 11.6576 10.2431 6.53464 13
403 1 1.75588 5.09873 -12.4156 17
404 1 -5.42173 9.59193 -4.24957 18
405 1 -5.21034 13.0441 -6.80348 14
406 1 14.9328 -1.08767 6.88167 14
407 1 14.9651 2.50618 -12.7565 9
408 1 -9.58354 -11.3606 -4.08668 15
409 1 0.549862 0.913337 10.7499 18
410 1 0.333615 9.69443 -9.91363 21
411 1 7.81579 -9.62928 -3.96881 16
412 1 10.3661 -5.38873 -15.5267 12
413 1 2.74708 17.3597 -5.74106 10
414 1 -4.20292 -5.70333 -15.6136 12
415 1 5.02985 -13.415 -1.99787 18
416 1 -10.3827 -7.99881 -3.08804 15
417 1 -0.226869 1.6551 -7.91202 19
418 1 -4.92282 -7.42529 -0.156629 22
419 1 11.0816 6.05353 -4.66877 16
420 1 9.46992 -6.37033 -8.30714 21
421 1 8.00986 -8.57265 8.15016 11
422 1 8.30189 1.44221 -2.98572 19
423 1 -1.93557 3.94106 0.87464 19
424 1 18.6272 -4.49981 -3.87242 14
425 1 7.26605 9.43191 11.0568 10
426 1 0.861796 -4.51454 -13.8414 16
427 1 7.27664 13.0691 3.88562 14
428 1 11.627 5.00398 -11.0628 18
429 1 8.9692 -10.7321 -16.9221 5
430 1 -4.28512 -11.7059 -12.1163 21
431 1 -6.22892 -6.46091 -9.28381 16
432 1 17.1114 2.98932 -2.65563 14
433 1 16.7861 -0.560461 -8.34571 14
434 1 11.6128 -3.83835 -13.194 16
435 1 12.8155 -12.1021 -11.9409 8
436 1 4.80946 5.85854 0.776394 20
437 1 -8.84675 6.45008 3.31288 14
438 1 16.484 7.82434 -4.97866 12
439 1 15.3816 -2.57558 -2.56603 19
440 1 8.11001 2.02876 -15.6066 22
441 1 13.5986 7.71094 7.0987 12
442 1 3.19231 -2.34941 4.77211 17
443 1 7.62084 -1.0549 11.7698 12
444 1 14.786 -4.00036 -12.7473 14
445 1 5.07801 11.147 2.63419 17
446 1 -5.52272 0.290168 -5.23181 18
447 1 15.2732 5.747 -6.56151 16
448 1 17.5783 -4.50848 2.13815 14
449 1 3.30621 -9.63093 1.83168 21
450 1 14.6542 2.18696 7.2517 15
451 1 7.82143 6.23657 9.09954 16
452 1 10.6639 4.36057 2.21817 19
453 1 5.65765 12.7279 -8.36855 15
454 1 2.30306 8.17287 -16.5528 12
455 1 10.3024 1.91098 -16.7715 13
456 1 8.19734 8.38474 -6.74056 14
457 1 -2.81798 -15.795 -6.43998 14
458 1 -7.04266 4.78802 10.4566 10
459 1 -1.66654 6.07857 -18.1209 16
460 1 -8.46518 -12.1725 1.78561 8
461 1 -0.597832 -4.60112 -11.0057 17
462 1 -10.2225 0.513959 -6.67086 11
463 1 11.4055 -6.68431 5.47218 19
464 1 12.7789 9.70878 3.14057 15
465 1 0.125239 -11.3919 1.07965 17
466 1 -4.1169 -0.648703 -14.2134 19
467 1 9.19549 4.99698 6.70255 16
468 1 5.15616 -0.778041 13.6592 13
469 1 10.5298 11.0674 -10.6535 11
470 1 4.29892 0.99676 -15.2054 24
471 1 -1.82279 -17.1808 -9.22797 12
472 1 19.2015 1.17905 3.40638 8
473 1 7.01313 12.2186 -3.10236 21
474 1 18.3007 -1.78437 5.05781 10
475 1 -0.529148 3.44695 9.86358 19
476 1 -6.47951 -13.224 -7.15108 16
477 1 -8.11318 -0.964398 -5.83164 19
478 1 12.551 1.7812 10.0361 13
479 1 -1.01127 -5.24307 6.70223 19
480 1 6.58425 3.28282 9.54742 12
481 1 -8.16917 9.14539 -2.06888 15
482 1 14.9955 2.71824 -4.5946 22
483 1 12.1523 1.48179 2.3517 21
484 1 3.83611 -0.474861 -17.9166 14
485 1 -9.31785 1.73069 6.77935 13
486 1 6.53233 -2.7193 -13.9886 17
487 1 0.780076 -8.61205 -6.57733 17
488 1 15.0426 -4.27177 -9.44526 18
489 1 6.1983 11.4044 8.13909 12
490 1 2.19474 5.82693 2.74497 21
491 1 9.45748 9.02236 3.43606 19
492 1 3.65097 -8.45537 10.3478 11
493 1 -0.593578 5.81331 11.4887 12
494 1 5.73115 -7.88632 -14.1898 20
495 1 -4.52314 -5.74854 10.9195 11
496 1 11.4436 0.427424 7.69678 21
497 1 17.5991 1.80717 -5.98855 13
498 1 6.69385 -13.1924 -9.87834 12
499 1 -3.42211 -3.65752 -8.73992 19
500 1 7.74892 8.28334 0.170828 21
501 1 9.9219 10.777 0.91006 17
502 1 -2.35608 -3.46408 3.74833 17
503 1 5.66174 10.6958 -5.47489 21
504 1 14.7886 4.02495 -1.48439 18
505 1 -1.2505 -10.2064 -4.53638 20
506 1 -3.03488 -0.708991 -17.4968 15
507 1 -3.74014 14.9744 -5.05482 14
508 1 9.43312 -2.21781 -12.4133 21
509 1 7.26796 4.05391 1.64574 20
510 1 13.725 4.49504 -9.2548 16
511 1 13.1668 7.7309 -7.07978 14
512 1 -0.666001 6.66716 1.45616 22
513 1 -2.29367 8.97344 -2.85768 20
514 1 5.63791 6.05006 -8.40953 20
515 1 -2.93374 -7.85849 5.08336 18
516 1 1.41277 5.80238 -18.3805 14
517 1 10.4432 11.8353 3.83005 15
518 1 6.65605 1.68617 6.0271 17
519 1 9.66558 13.7551 -0.510817 9
520 1 8.98779 5.87851 0.561305 18
521 1 15.5818 -7.22125 -12.8235 11
522 1 -11.1168 -4.81595 -2.79085 15
523 1 5.70678 -16.1623 3.18199 7
524 1 2.16355 -7.2724 -15.5956 21
525 1 -2.03762 7.6001 7.04214 12
526 1 8.26857 -4.55744 -6.71702 19
527 1 4.73733 9.51991 -0.869541 17
528 1 -11.4856 -3.43915 -5.52452 12
529 1 6.72147 -15.4777 0.103874 11
530 1 9.17916 3.93446 -8.46559 18
531 1 3.14211 -4.62796 -0.23568 19
532 1 8.96626 10.9301 -4.98025 15
533 1 6.50307 -1.76285 -19.3922 13
534 1 6.00108 -9.94945 6.55455 15
535 1 5.12409 13.6519 -4.99503 20
536 1 -3.19666 4.34428 12.1133 12
537 1 0.471782 -6.56341 -18.282 13
538 1 6.42951 2.20877 -8.50156 18
539 1 0.133998 8.93951 5.38141 19
540 1 6.10349 -9.68415 -9.17263 20
541 1 3.15163 -6.41095 2.77 20
542 1 4.35841 -17.8067 -8.56492 9
543 1 -8.52249 -1.00688 7.28273 16
544 1 -0.751093 -1.67095 -13.4204 19
545 1 -7.33155 -16.1145 -3.10837 14
546 1 -5.76825 -3.17307 12.3794 10
547 1 15.5465 1.53132 -10.604 12
548 1 -4.61289 -2.74674 6.7757 16
549 1 -7.19913 12.0988 0.197686 11
550 1 10.8523 -6.47155 2.26827 21
551 1 -1.79439 11.5092 -11.7192 13
552 1 11.8459 -8.41391 -6.74468 18
553 1 8.08426 0.264111 -10.4307 19
554 1 -7.64527 -0.574966 -8.5287 17
555 1 -4.66522 -9.44112 -14.4644 13
556 1 -3.06137 9.07022 -10.2712 19
557 1 3.32915 -5.88009 12.6746 8
558 1 0.0281193 -11.1524 -1.59822 18
559 1 -1.82373 -11.5393 -15.3126 16
560 1 -4.89975 4.25116 -0.827762 16
561 1 11.8404 14.3234 2.30452 7
562 1 -6.88943 0.666821 -0.849073 20
563 1 9.67782 4.761 -13.9707 19
564 1 2.78705 -14.7799 -7.08547 17
565 1 6.13536 1.31781 -5.53984 18
566 1 6.71262 -5.39501 -18.6164 11
567 1 3.85446 4.12256 7.34362 20
568 1 -1.44194 3.39577 -18.5811 14
569 1 -1.46785 -4.56906 -3.86699 18
570 1 11.5051 2.06252 -8.77317 18
571 1 -7.1176 -3.44288 3.585 15
572 1 10.2572 2.59066 -11.4041 18
573 1 3.9514 -2.83605 -3.31223 19
574 1 -3.87608 1.72966 12.8267 11
575 1 14.4814 -4.19375 0.694885 20
576 1 13.8243 -7.53401 -4.30877 16
577 1 15.6792 -2.59698 3.70993 17
578 1 1.66192 14.1055 4.72265 12
579 1 -2.62145 -3.63016 12.0224 16
580 1 -2.81748 -15.7392 -0.162572 7
581 1 13.6299 0.463775 -3.06947 20
582 1 4.95803 7.86442 10.7305 12
583 1 -8.75395 -7.36989 -8.11734 13
584 1 17.5934 -6.0773 -1.23447 12
585 1 6.78496 8.9716 -2.99553 21
586 1 3.32391 -3.47565 8.24951 13
587 1 0.901481 13.2945 1.65304 20
588 1 -1.1123 -10.9298 7.05213 11
589 1 -0.230873 -3.67837 -8.60006 15
590 1 8.46285 -0.640566 5.69944 20
591 1 4.67702 16.059 0.0317168 14
592 1 -2.95049 -12.0842 -1.92723 16
593 1 6.452 -2.15881 4.02182 18
594 1 17.478 -1.39177 1.77813 16
595 1 9.45037 9.76933 8.94305 13
596 1 -0.705585 4.02247 -10.0518 19
597 1 4.12836 -10.3582 -14.3593 13
598 1 -0.714617 0.779881 -18.3289 11
599 1 -1.72028 -0.896179 10.5485 18
600 1 8.37834 15.1893 1.3413 9
601 1 16.6934 2.46548 1.33902 18
602 1 -6.62881 5.28876 -15.2392 12
603 1 1.60157 8.0929 10.2153 15
604 1 11.1516 7.1565 8.17483 19
605 1 9.39049 -1.87511 -15.5159 22
606 1 -0.0289191 -15.1762 -8.43984 15
607 1 -0.860866 -0.975315 -9.72637 20
608 1 16.4128 4.16872 4.17479 12
609 1 3.4364 -4.54928 -11.1389 18
610 1 0.272172 -7.63944 -3.35898 18
611 1 14.428 -5.69833 3.46839 15
612 1 8.83387 -11.5609 7.35367 8
613 1 -3.47047 -16.8249 -11.9644 11
614 1 9.95671 7.36724 -2.21719 21
615 1 -8.20643 -9.10729 1.17946 16
616 1 -9.87669 3.78127 3.71041 13
617 1 11.9573 8.25972 -12.2301 9
618 1 9.37609 -3.75345 -18.1156 9
619 1 1.79275 11.093 0.362464 19
620 1 9.02515 4.37601 -16.4158 13
621 1 15.0284 -9.07434 -7.27124 10
622 1 -7.74209 4.62298 -4.84691 20
623 1 12.147 5.05213 -0.456932 18
624 1 -8.31349 -11.4483 -1.14252 13
625 1 1.28004 3.75914 12.6475 15
626 1 -8.22005 -3.63442 -8.86524 18
627 1 -5.54737 7.26667 8.12668 11
628 1 -8.74957 6.12115 -16.2912 5
629 1 9.43935 -4.99198 -10.7422 21
630 1 -7.04635 -9.30902 -7.32627 15
631 1 11.2848 -9.55774 -4.07717 11
632 1 -11.829 -2.15455 -1.2482 8
633 1 -2.29052 -7.1905 -13.4195 18
634 1 -1.68338 -5.68078 10.2785 16
635 1 11.8312 -4.23325 3.46298 20
636 1 16.0775 0.443007 -1.35178 20
637 1 -10.3159 6.94711 5.08222e-05 10
638 1 2.98425 7.66147 8.00751 18
639 1 8.00113 7.82618 -15.4153 13
640 1 -1.22859 10.1552 2.37737 21
641 1 10.5193 10.0568 -7.55036 13
642 1 3.55623 2.01693 14.1615 13
643 1 13.0391 -3.7517 6.48371 15
644 1 3.98057 3.44523 -12.8089 17
645 1 -0.523022 0.164332 8.33625 21
646 1 4.1936 -4.95917 -13.7123 17
647 1 -10.0141 0.747753 -1.05891 16
648 1 0.285875 -8.87843 6.11018 20
649 1 8.78759 2.41803 8.1866 18
650 1 4.33861 -12.0889 -11.115 16
651 1 -10.4985 -2.26237 -8.60617 11
652 1 12.0576 -6.57974 -9.45173 16
653 1 -3.85651 12.0748 -0.801119 18
654 1 -7.19225 6.45834 5.59632 13
655 1 2.7493 -9.18107 -18.6125 12
656 1 1.19047 -12.1226 -6.78319 20
657 1 8.37633 -13.471 -2.70709 12
658 1 3.06828 8.59938 -13.1543 15
659 1 11.6626 -1.89514 -7.36112 19
660 1 11.6723 6.6546 4.61554 17
661 1 18.5887 -3.00957 -1.19502 14
662 1 3.3431 3.11733 -18.4131 14
663 1 1.72331 -10.8661 4.62738 18
664 1 11.4427 9.26959 -3.95505 14
665 1 7.39362 -0.371397 -13.6561 22
666 1 -7.11055 7.85295 -5.70301 20
667 1 9.21884 7.62973 -12.782 16
668 1 -6.24526 -5.92538 8.04451 16
669 1 6.1878 8.89191 5.047 17
670 1 5.05596 -10.4489 -3.2612 20
671 1 8.30997 8.01896 -9.70864 18
672 1 -3.8387 5.00109 9.16589 18
673 1 -3.87767 0.0779961 8.16424 19
674 1 14.2539 6.23622 -3.30666 18
675 1 -1.05935 0.733927 5.0855 21
676 1 7.72361 -10.906 3.8444 14
677 1 -1.57016 -1.90837 6.00356 19
678 1 14.0492 4.92546 9.24455 12
679 1 6.20864 -6.82233 -11.3968 19
680 1 -9.76895 0.758907 -12.3314 7
681 1 -5.60233 4.2452 -12.2298 18
682 1 -6.62639 0.834226 -11.5969 16
683 1 17.1614 6.82836 -1.7039 14
684 1 -0.696217 6.09736 4.28036 20
685 1 -10.5051 -14.7151 -3.53455 6
686 1 1.2042 13.2561 -1.89835 21
687 1 16.565 6.00294 1.72338 11
688 1 -4.98708 -5.59709 2.97742 20
689 1 16.3977 -2.90295 -6.5046 16
690 1 5.91978 -7.07093 2.49345 18
691 1 1.69953 1.14557 -13.8258 16
692 1 -1.59028 1.68291 -14.995 19
693 1 -2.81963 -7.31302 -4.86825 17
694 1 -2.65636 10.0786 -6.55569 21
695 1 -6.32532 0.970684 6.99589 18
696 1 6.06675 1.39797 3.0734 18
697 1 -10.7132 -4.38978 3.70014 12
698 1 17.9779 -0.356103 -3.2074 17
699 1 6.01077 6.96057 -16.8148 15
700 1 14.8346 9.04004 -2.64551 12
701 2 -2.57953 2.83872 -11.626 20
702 2 -0.222496 15.151 -6.92271 17
703 2 7.4953 -6.32804 -7.62651 22
704 2 -3.74762 7.15931 7.64119 13
705 2 -6.97819 -10.1809 -12.3431 10
706 2 8.80618 -4.33873 7.37292 16
707 2 -12.8423 -4.91592 -5.5661 9
708 2 -8.57437 1.61161 -2.4484 19
709 2 6.46448 12.2303 6.3661 11
710 2 -10.9338 -2.13442 7.18467 11
711 2 5.48037 2.36694 4.53234 18
712 2 3.66223 -0.108334 -10.5343 18
713 2 -8.66043 -8.87549 -7.039 13
714 2 -7.11992 2.9446 -5.01896 20
715 2 -6.85824 -5.39969 3.66346 19
716 2 2.41093 5.79866 7.80102 15
717 2 14.057 2.69812 -14.3573 7
718 2 5.14959 -14.3638 -0.252754 15
719 2 8.35589 1.26237 6.2021 20
720 2 4.19285 11.055 0.847455 18
721 2 -7.90085 0.915073 -7.05612 19
722 2 9.08198 3.93629 1.0936 17
723 2 9.24394 -9.65266 -10.2414 16
724 2 -6.42194 -13.3908 -5.12613 21
725 2 -3.01581 -5.01718 2.71709 16
726 2 -8.29776 -10.5652 2.76425 9
727 2 12.5363 -6.19137 3.67294 17
728 2 0.419529 -8.70091 -15.9544 20
729 2 3.19207 -0.757486 13.0297 15
730 2 0.385517 7.47853 -16.9104 12
731 2 -5.96256 -13.2746 -8.88222 19
732 2 -0.849908 4.77186 13.0313 12
733 2 -5.10699 8.85943 0.819872 20
734 2 -1.32077 -3.04798 13.5482 11
735 2 -0.542495 10.1865 -5.95963 20
736 2 9.7209 -13.9838 -3.96741 8
737 2 -3.71005 4.47893 0.630865 17
738 2 8.89595 11.6428 -11.6621 10
739 2 11.6275 -6.51726 -7.47065 17
740 2 -2.68161 -2.30151 -14.1328 15
741 2 4.42721 -10.6697 -12.4713 14
742 2 9.20537 -4.96255 -5.01579 21
743 2 -0.119187 -0.471182 12.1059 18
744 2 6.76277 9.35013 -10.4312 17
745 2 2.93072 4.12582 -11.1846 18
746 2 17.2633 6.27208 -5.36502 10
747 2 -0.342965 -4.63736 11.3626 15
748 2 -5.78791 12.2808 -1.2679 14
749 2 14.4494 -3.97334 -14.7733 11
750 2 6.26909 -9.58552 -13.7728 16
751 2 -8.00023 -11.1816 -3.00118 18
752 2 15.6843 1.35526 0.442087 19
753 2 -1.51774 7.88219 4.98316 19
754 2 -0.178498 -16.5297 -9.93696 14
755 2 0.306227 11.9748 -0.468102 20
756 2 8.0502 -12.0303 5.43115 11
757 2 10.6055 2.56387 3.02558 18
758 2 -3.13719 -3.80215 -4.61 17
759 2 11.9529 -5.28164 -2.29686 19
760 2 6.90902 -15.5008 -5.84678 12
761 2 13.2301 8.62395 -3.66421 14
762 2 9.55833 -9.0249 -0.292349 16
763 2 6.88483 -1.51412 -0.352138 19
764 2 -4.32707 -4.32776 12.164 11
765 2 16.1128 -5.4627 -12.4874 13
766 2 4.78193 5.25707 6.02859 16
767 2 14.4806 8.7569 2.61234 13
768 2 -2.84267 3.18557 13.6844 10
769 2 5.47324 10.428 -2.87539 18
770 2 13.1357 -8.19919 -0.729621 13
771 2 -0.105626 4.9001 -11.8376 19
772 2 -7.03225 -8.20106 -9.30202 15
773 2 -8.03615 -2.62261 8.45906 14
774 2 9.37793 0.359535 -15.471 21
775 2 -9.20933 1.99368 -10.9554 12
776 2 -11.1715 -3.91347 -1.01708 12
777 2 -7.00939 -15.8414 -1.11538 9
778 2 15.3983 -7.35439 -6.31269 14
779 2 0.332571 -13.5682 2.58072 12
780 2 -0.154588 -0.135122 15.0474 11
781 2 7.59582 -0.0427828 -18.8452 16
782 2 8.5639 0.447924 12.5412 9
783 2 2.48226 12.8931 2.55713 19
784 2 -5.12682 3.76475 3.24949 18
785 2 7.85691 -13.5793 -8.38882 14
786 2 17.1973 -5.29486 -2.93608 15
787 2 -6.03381 9.09365 7.58508 8
788 2 0.12618 -9.91221 -0.0472435 17
789 2 10.3357 -6.66885 -10.2286 17
790 2 9.10803 3.91046 -10.5763 19
791 2 -0.139516 2.49222 5.15428 22
792 2 15.582 -4.42967 -7.65162 14
793 2 5.80033 -0.320697 4.23019 21
794 2 1.66479 -11.4884 -2.89152 22
795 2 9.94652 -2.70609 -6.98162 18
796 2 -2.70085 -8.46206 2.83714 17
797 2 14.8402 7.75372 -6.07736 12
798 2 1.74616 -5.06456 3.68506 19
799 2 12.6189 -8.10343 -10.7063 14
800 2 -3.43338 -15.9639 -4.65098 14
801 2 17.9742 -4.29501 -0.048515 15
802 2 -2.29256 13.0599 6.09782 9
803 2 15.3116 -1.64721 -7.59674 19
804 2 0.709499 -10.9548 -8.52252 18
805 2 -10.7017 -7.26711 -6.80536 15
806 2 -4.07349 -8.02428 -3.41571 19
807 2 0.519099 -4.15444 -4.50792 21
808 2 -7.89692 10.4967 -0.685547 12
809 2 -8.31785 9.89993 2.61648 13
810 2 -0.168168 -2.63835 -10.3081 17
811 2 14.279 3.95949 -7.20314 17
812 2 3.20343 2.36937 -14.3214 18
813 2 -3.25646 -6.67475 9.8429 12
814 2 3.23503 -0.222386 -15.9476 15
815 2 -2.41201 10.6736 0.400884 21
816 2 -2.66941 0.952588 6.76653 22
817 2 -11.2465 3.2733 2.60135 10
818 2 -7.97797 7.05055 -7.23462 14
819 2 10.2725 14.7222 1.04435 9
820 2 15.6375 1.25892 -6.13056 20
821 2 13.2488 -9.78063 -7.45249 16
822 2 -8.5166 0.780692 8.31056 13
823 2 14.0082 1.99732 3.1738 21
824 2 4.8631 10.347 4.54707 18
825 2 -5.23197 5.44614 -13.9668 15
826 2 -2.16572 12.7074 -1.99335 20
827 2 15.342 0.773771 5.71457 17
828 2 -4.64087 -4.84348 -12.8369 16
829 2 10.6596 4.14788 -12.5785 15
830 2 13.4516 5.59305 -1.77335 19
831 2 -5.62198 -4.27895 7.01051 17
832 2 7.99581 9.0689 -4.75899 21
833 2 1.66658 6.2159 -8.55013 18
834 2 6.68507 7.94058 -7.89207 18
835 2 9.97417 3.60339 6.04416 17
836 2 7.58773 10.6032 9.47222 13
837 2 15.9799 -8.26231 -11.4751 9
838 2 -2.66682 0.303505 13.1294 14
839 2 10.2064 -1.43262 1.23754 25
840 2 -9.96302 -0.556924 -8.1594 14
841 2 -4.63709 -10.4639 -10.5731 15
842 2 3.31608 -10.693 -10.2216 16
843 2 4.05512 -3.24107 -13.3531 17
844 2 16.0216 4.12337 1.80325 14
845 2 -0.404056 -1.90877 9.24478 17
846 2 5.25969 -0.090447 -13.4778 21
847 2 0.273703 -7.06279 9.93578 16
848 2 8.63842 -5.11801 -17.0716 14
849 2 4.98501 -17.9983 -6.59085 8
850 2 5.16439 -6.32965 -13.1374 19
851 2 3.44129 -13.7466 -5.37976 16
852 2 16.0241 2.70258 -9.20582 13
853 2 -1.70178 7.98933 -18.5776 11
854 2 -2.55669 16.7331 -4.3791 12
855 2 -3.02314 -6.4558 -6.58563 19
856 2 -6.92078 0.70208 -16.3083 10
857 2 4.70805 8.53431 -12.2679 14
858 2 4.93483 13.9901 -6.9856 18
859 2 -1.51955 -10.8268 2.17734 14
860 2 16.6681 -1.16477 6.05363 10
861 2 -0.423709 2.83703 15.3504 10
862 2 -3.2036 -13.9652 -1.19082 14
863 2 6.56859 -13.3149 -3.46103 16
864 2 2.23218 0.982622 14.9268 14
865 2 8.21157 14.737 3.14594 10
866 2 12.113 3.76767 -9.40762 17
867 2 -0.253647 7.68936 11.0757 10
868 2 10.6542 9.43595 -11.7919 11
869 2 -6.36941 -8.81344 4.69656 14
870 2 12.4461 -3.45184 -6.41707 19