ITEM: TIMESTEP
4000
ITEM: NUMBER OF ATOMS
1500
ITEM: BOX BOUNDS pp pp pp
-30.0 30.0
-30.0 30.0
-30.0 30.0
ITEM: ATOMS id type x y z Coordination
1 1 -7.03827 -10.1642 -6.41952 16
2 1 4.35717 -9.8991 7.66365 14
3 1 -10.8921 7.3793 -0.484235 23
4 1 -6.48345 -0.307409 -12.0263 23
5 1 0.1936 -7.32092 8.79139 21
6 1 -5.1627 -2.20205 -14.4213 17
7 1 -2.99321 -15.444 -0.753658 14
8 1 -14.2187 -9.93715 0.112943 16
9 1 0.835444 -1.3928 14.8197 13
10 1 6.27128 -4.17481 6.25918 18
11 1 2.13845 6.11709 10.6555 17
12 1 7.87146 -2.31944 1.29126 17
13 1 -2.61884 7.74057 -9.92969 20
14 1 5.45953 -4.12231 12.2809 11
15 1 14.2143 4.07888 3.43579 11
16 1 -1.32923 9.75436 -13.0515 18
17 1 0.813367 8.28984 -15.7776 12
18 1 -8.9517 -2.20903 -1.54059 19
19 1 -2.53468 -2.80422 -8.86618 22
20 1 5.68942 -11.8308 4.82597 17
21 1 -0.670532 -1.14132 6.99646 17
22 1 9.16788 -13.9238 1.40344 8
23 1 -7.7623 -12.5358 -9.23978 12
24 1 3.17854 -5.83729 -3.9398 22
25 1 4.06705 -4.6018 -12.4287 20
26 1 1.04995 0.315534 12.1468 18
27 1 -3.34591 -11.6272 1.12338 15
28 1 2.54207 -5.00257 10.109 19
29 1 -12.0212 -3.82636 1.2276 17
30 1 -7.78709 0.0395218 -3.99498 15
31 1 -7.05899 9.72895 -2.15784 18
32 1 -1.47579 2.23151 -13.2663 19
33 1 2.69111 -10.158 -12.6983 9
34 1 1.32519 -5.08414 13.3693 12
35 1 -13.0878 3.28209 -3.45492 15
36 1 5.2022 12.1742 10.5144 7
37 1 -13.0462 9.59867 -4.40049 10
38 1 -0.19915 12.8294 -5.42675 16
39 1 1.04137 -14.5345 5.15437 11
40 1 4.86367 -6.92538 -6.41879 22
41 1 -5.39425 0.914274 15.0611 10
42 1 -13.2976 -8.941 -9.09337 14
43 1 8.47309 0.119325 3.75136 19
44 1 -7.05286 6.12585 -13.4263 13
45 1 -7.45112 -12.2748 4.28456 17
46 1 -8.9726 6.33251 -8.95818 19
47 1 -2.54478 2.54063 -9.35192 22
48 1 1.24229 5.32415 3.07691 22
49 1 -0.427429 4.28205 6.83802 19
50 1 7.16206 -11.0912 -3.49168 15
51 1 4.33566 6.20998 13.9628 10
52 1 11.6327 -2.65292 -14.1494 11
53 1 9.07126 -9.09268 5.16832 14
54 1 -8.69696 -3.55679 0.82345 20
55 1 6.46553 -4.29406 9.38123 17
56 1 -6.86008 -8.21153 4.87136 20
57 1 -11.0272 -0.500234 -4.08155 21
58 1 10.6331 1.53739 5.64696 20
59 1 6.44338 -3.31757 -1.00987 20
60 1 -1.98017 8.98272 11.8399 9
61 1 4.3499 1.83843 7.08137 22
62 1 -8.45322 -5.08434 4.29547 19
63 1 -4.04916 -6.05589 -8.93809 20
64 1 -7.04279 8.67662 0.179561 16
65 1 -3.74663 7.80584 -14.0968 14
66 1 6.81668 0.83204 -6.7359 18
67 1 6.2844 -5.28903 -3.9354 21
68 1 10.9872 -6.76217 4.25867 15
69 1 2.24731 -11.4624 10.246 13
70 1 -6.53606 13.5919 -5.54126 14
71 1 -10.3787 7.49091 5.03598 9
72 1 -4.31159 7.29543 5.46943 18
73 1 -7.68491 -8.76163 9.88697 15
74 1 13.3169 -8.58129 -7.012 10
75 1 -11.6164 0.643574 4.19418 22
76 1 8.40788 -5.51203 -6.06304 19
77 1 3.94355 2.32668 -11.4588 19
78 1 -5.80593 -1.43449 -18.2745 10
79 1 -2.73777 10.6235 1.77252 20
80 1 -9.57738 1.15296 -15.0326 9
81 1 1.5572 13.086 -8.11434 11
82 1 1.86149 11.4871 1.22701 17
83 1 -3.83924 -7.31972 4.94379 19
84 1 -0.52918 -5.81717 -9.0669 19
85 1 8.31736 -12.7176 -6.44323 6
86 1 -2.93444 1.465 6.31429 19
87 1 -6.79732 -6.33544 -3.12884 21
88 1 6.3085 -2.53299 4.23345 18
89 1 -10.5787 -7.1 -3.44437 18
90 1 4.81015 -8.17287 1.58378 19
91 1 -7.93526 5.06556 0.733919 23
92 1 8.48132 2.07632 -15.6648 9
93 1 0.787449 4.42971 -7.21609 20
94 1 10.324 -8.28737 -1.12957 18
95 1 -2.59112 -14.2707 7.03698 12
96 1 -8.18638 -11.5998 -3.84656 22
97 1 -14.5285 -8.88618 3.44894 13
98 1 9.96606 4.61683 6.23431 21
99 1 7.67844 5.75941 -2.41352 18
100 1 -0.748068 12.0712 10.618 9
101 1 -8.85905 11.0487 -4.89322 17
102 1 -2.90416 -6.22317 -11.6069 17
103 1 10.6428 -2.00809 10.2151 14
104 1 -3.88272 8.26226 -6.69715 17
105 1 13.9 -2.75763 -10.973 13
106 1 -8.08099 7.62261 -6.04855 20
107 1 -0.623263 14.2229 -0.261015 16
108 1 5.86973 3.37058 -9.16615 14
109 1 6.28966 -8.71434 5.37308 17
110 1 -6.02501 8.02668 -4.03279 19
111 1 3.97729 8.8579 -5.44063 20
112 1 10.416 7.51736 -0.655618 17
113 1 -10.5558 9.84822 -6.65397 12
114 1 -7.15507 -3.44322 -16.7992 12
115 1 2.29387 13.1236 8.87572 13
116 1 -13.5947 -0.643953 -6.30945 13
117 1 15.4139 -0.663756 -4.56624 16
118 1 -5.04258 8.94572 8.01947 12
119 1 -3.97086 11.5913 -7.72508 17
120 1 3.63608 -4.14813 7.19197 19
121 1 -12.0417 -11.2869 3.389 14
122 1 -4.54336 -10.2522 5.60267 16
123 1 2.0881 -13.1509 -5.97745 13
124 1 -5.75737 7.76264 -8.5859 20
125 1 1.88602 10.4636 -7.05969 18
126 1 12.5359 8.16362 -8.70859 9
127 1 -3.40537 -11.7453 10.3476 10
128 1 -7.86543 2.04553 -1.57613 20
129 1 3.05149 14.0055 0.523132 14
130 1 3.25606 8.62033 12.3224 11
131 1 -6.74543 14.1976 2.40701 9
132 1 -9.04046 -5.46308 -6.06262 20
133 1 13.5937 -9.24769 -1.07713 11
134 1 -5.56377 -4.96546 4.42322 21
135 1 -11.2343 -4.62105 5.0759 15
136 1 -9.88843 -12.5392 1.73474 20
137 1 -11.9447 -1.95732 -1.69109 20
138 1 -4.37371 -14.3849 2.05894 14
139 1 -5.23964 -3.29021 -3.67642 21
140 1 4.90668 -8.93732 -3.51838 20
141 1 -2.91199 10.0267 5.31087 17
142 1 -7.96134 0.954426 3.76715 19
143 1 -4.05607 5.13095 -8.62493 22
144 1 -9.34437 5.05463 -11.6547 13
145 1 -12.8255 -10.7631 -7.12565 12
146 1 -12.0469 -1.45792 9.70347 13
147 1 -1.37711 -9.16117 6.88105 17
148 1 0.0182229 -13.201 7.43933 13
149 1 16.1216 0.714819 3.29925 12
150 1 5.70561 -0.00601124 -9.17971 18
151 1 5.59028 -1.9028 7.93513 18
152 1 3.58793 6.87172 -15.331 13
153 1 8.03478 -1.86016 -11.4152 16
154 1 -11.2386 -3.18143 -11.2634 16
155 1 -7.03479 10.6062 -7.79565 14
156 1 -6.97892 13.3809 -2.56906 11
157 1 6.80118 0.921903 9.21 19
158 1 -3.99544 -7.39025 -14.4543 13
159 1 -7.9643 8.30461 -10.976 11
160 1 1.74445 5.38414 -11.6075 17
161 1 -6.16192 2.62881 9.03028 15
162 1 -4.19158 13.0902 8.80024 4
163 1 -0.362273 -10.1189 -7.05903 17
164 1 -10.0501 -13.8986 -6.39173 11
165 1 10.6867 -11.1077 -3.04975 9
166 1 4.74164 -6.22923 -1.18051 19
167 1 6.99751 5.40082 -7.25643 16
168 1 -2.43868 7.76811 -3.87082 20
169 1 -13.7583 -1.6162 3.08174 15
170 1 1.28856 7.70119 7.31614 21
171 1 10.9142 1.31429 -1.85687 17
172 1 2.59538 7.97516 3.69812 19
173 1 -11.0542 5.43603 2.32071 17
174 1 -9.69964 -11.0654 -7.19179 15
175 1 4.83753 6.36626 -12.5889 15
176 1 2.66406 -0.595448 7.11864 16
177 1 8.42438 7.70714 -8.74822 16
178 1 3.14307 -11.9273 -3.46799 17
179 1 -5.59746 -6.17591 -16.5759 14
180 1 8.22715 -1.96146 -8.37913 15
181 1 -10.7358 -9.0282 7.90769 17
182 1 -1.66104 -14.7003 -3.67109 16
183 1 -8.93756 -6.39786 -12.6167 18
184 1 5.50257 12.378 -5.4726 13
185 1 4.72086 -4.54052 -15.842 16
186 1 6.49953 1.25422 15.4619 6
187 1 16.1693 1.52013 -2.81554 16
188 1 -5.18961 -7.04688 -0.7725 22
189 1 8.5202 -7.4377 -11.1286 13
190 1 -3.97312 -5.88401 1.6895 22
191 1 -5.70467 -4.72795 -13.0132 17
192 1 -8.57143 -3.75176 -10.7393 20
193 1 14.1819 2.23628 5.76745 17
194 1 8.93065 0.10076 12.2038 15
195 1 -4.17417 -10.3661 -11.3582 13
196 1 1.56402 -6.68407 3.2229 20
197 1 1.09425 5.29648 -16.6358 13
198 1 2.43185 6.32585 0.380085 18
199 1 -8.67451 -9.92997 3.18105 18
200 1 -1.32203 16.1436 2.85244 11
201 1 -9.23858 -5.15605 8.89228 16
202 1 -11.5256 -5.51364 -13.2045 13
203 1 -3.29399 -3.09889 -12.4473 18
204 1 -8.15705 -8.13794 -4.78701 19
205 1 -2.3574 -8.72262 2.20695 20
206 1 12.8865 1.56392 3.08277 20
207 1 -3.48041 -6.28911 -3.70853 21
208 1 -10.1864 -7.03598 11.1747 13
209 1 -3.57001 -9.79347 -0.764589 21
210 1 0.221881 -11.5139 1.78125 17
211 1 -1.90461 13.0463 -2.60937 15
212 1 3.21688 3.49033 -14.9122 15
213 1 -3.6976 -4.13043 -16.5856 11
214 1 2.434 -12.8438 -0.726023 17
215 1 -4.4965 -11.8896 -8.42848 18
216 1 -7.28984 -0.401047 -15.4509 19
217 1 7.89932 3.10321 7.54069 19
218 1 -4.59473 2.53897 -11.5365 21
219 1 -2.75405 4.93706 -12.0309 21
220 1 -5.14704 -2.06737 4.58829 21
221 1 -4.33765 13.0396 -0.217977 16
222 1 0.928173 10.7158 3.97585 16
223 1 12.068 -1.6348 0.060501 16
224 1 -13.3989 -0.104635 6.86948 11
225 1 -7.79721 -7.70194 13.1205 11
226 1 -5.44263 7.92284 2.64881 19
227 1 3.38858 -7.24605 -14.5219 16
228 1 2.30043 -13.1376 2.82746 18
229 1 -0.466909 -4.37631 16.6791 6
230 1 -13.3703 -9.33209 6.11859 11
231 1 14.0954 -2.21212 -7.86445 15
232 1 6.10122 -3.98349 -6.86995 19
233 1 11.1705 -11.0434 -6.27122 9
234 1 -7.3978 -6.95365 1.89672 21
235 1 -8.97649 11.4627 0.360019 12
236 1 3.0496 0.117928 10.2297 19
237 1 11.0098 5.55697 9.0199 14
238 1 -7.89599 -0.725599 1.19688 20
239 1 12.5753 -8.45046 -4.03202 14
240 1 -2.88049 7.84802 2.17256 21
241 1 -4.59845 5.04452 1.65509 19
242 1 -1.91776 -11.78 5.55047 17
243 1 11.8983 -5.39629 6.92561 16
244 1 -5.13325 5.76736 8.16328 16
245 1 -8.98091 -1.95597 -6.09695 19
246 1 -1.66977 -2.04231 11.9012 18
247 1 -2.28125 16.0714 5.52042 9
248 1 -6.15927 4.80465 -11.181 26
249 1 -9.04892 0.935614 10.5064 15
250 1 -15.9148 0.512316 1.8265 9
251 1 -3.86582 -3.63691 -6.81852 18
252 1 -8.32058 6.48826 -2.32029 20
253 1 10.1977 2.28354 9.16328 17
254 1 -12.0776 -11.9599 -0.981433 14
255 1 5.03885 -6.558 7.52219 20
256 1 -12.8592 6.86727 -2.48619 17
257 1 0.723015 -8.59957 12.2591 12
258 1 -1.06302 -11.3429 -10.2431 13
259 1 -6.78451 -3.75201 -7.46165 18
260 1 5.65107 0.986881 -14.3292 16
261 1 5.10535 13.8871 3.04678 11
262 1 -12.021 2.27521 -6.11172 14
263 1 8.25087 -0.970102 -14.7952 13
264 1 -9.16154 -15.6631 0.236453 11
265 1 -14.9324 -8.4134 -5.73162 10
266 1 -2.11401 -6.6341 -0.915564 23
267 1 9.89473 2.48916 -6.68248 14
268 1 -2.7684 -0.151937 -11.4038 18
269 1 -10.3875 0.442635 -7.87769 17
270 1 -7.14872 7.82803 5.92227 18
271 1 -8.24641 10.7113 3.23876 14
272 1 -7.44103 6.82955 9.47051 11
273 1 11.7971 -3.48301 -5.26216 16
274 1 12.3385 -0.329993 -6.60633 13
275 1 -4.44165 5.26167 -4.22382 21
276 1 1.4861 -8.91338 -3.17342 19
277 1 -0.523992 13.1145 2.54068 17
278 1 -5.86151 1.94839 -3.7768 22
279 1 7.74273 -10.0624 2.17039 16
280 1 12.9176 -3.98133 9.91002 12
281 1 -13.8103 -1.21231 -9.72301 8
282 1 -6.86139 -9.70597 -0.960801 20
283 1 -1.11283 10.5596 -6.79487 20
284 1 -12.33 -6.32152 -7.3399 17
285 1 -8.12201 4.85553 -4.8131 21
286 1 1.44181 10.9866 -11.0352 15
287 1 8.39982 9.34531 5.71171 14
288 1 -15.1414 -7.50513 -2.02034 11
289 1 -3.83511 -9.87588 -6.46545 19
290 1 -13.6212 -6.68969 6.4347 14
291 1 -11.5857 7.13378 -6.23614 12
292 1 3.30963 -9.56679 4.38844 18
293 1 -5.79527 -15.6392 -0.292222 13
294 1 3.32933 12.4106 -13.4116 6
295 1 -6.71134 2.52612 -9.83434 22
296 1 -5.06175 -12.6792 -1.5511 19
297 1 14.5379 3.82149 -1.17947 18
298 1 -3.54517 -1.18143 6.84871 21
299 1 -14.2217 -1.53976 -3.73956 16
300 1 -8.89273 5.51979 7.1632 16
301 1 -4.80614 -14.1634 5.28296 14
302 1 -0.620355 -4.16919 -6.34351 22
303 1 5.14322 -7.63545 -11.8499 18
304 1 -4.20161 -4.71064 6.96148 18
305 1 -10.3187 -1.5332 3.24457 19
306 1 -2.32353 -6.06934 8.66018 19
307 1 2.57719 -10.0709 -6.02647 18
308 1 0.596195 -7.79432 -13.9011 13
309 1 -5.60446 -3.03997 12.4738 19
310 1 3.77311 -9.93321 -0.966469 18
311 1 -6.54859 2.82602 -16.9455 14
312 1 8.60691 -12.4335 3.88842 10
313 1 -1.14513 13.1352 -8.87279 11
314 1 -4.81538 -6.25905 14.0782 12
315 1 -7.4845 -6.35641 7.2452 17
316 1 8.98104 -4.0024 11.7839 11
317 1 9.2259 3.51676 -2.23884 20
318 1 -6.36786 5.13972 3.80098 17
319 1 1.79271 1.13705 -13.2347 21
320 1 10.7097 -8.50223 7.54638 12
321 1 15.1552 1.50611 -7.19108 14
322 1 -3.30691 -2.44165 15.5094 10
323 1 0.721835 9.65212 -4.19417 21
324 1 8.31707 -5.90608 5.84387 20
325 1 -5.01589 -15.1238 -3.43967 13
326 1 -1.09667 14.3368 9.08927 9
327 1 -11.2776 -10.5885 -10.0633 12
328 1 4.21294 2.82513 10.1443 18
329 1 -9.0601 -1.95807 8.97598 17
330 1 -5.48699 -6.25502 -6.11945 21
331 1 -11.9492 1.82868 9.14146 11
332 1 -10.2519 -8.35097 -7.27867 19
333 1 -4.4308 13.6629 5.7047 12
334 1 -6.85446 -14.5249 -5.54794 14
335 1 -2.01749 -7.09877 -16.1923 12
336 1 -8.07131 -13.1953 -1.32406 20
337 1 -10.9145 -1.92163 6.13394 15
338 1 13.0002 0.879891 7.56815 16
339 1 -6.88556 -3.8415 10.2592 20
340 1 -8.99986 1.77678 -11.4381 17
341 1 11.9606 3.88376 0.925112 19
342 1 -10.9799 -13.3283 -3.36502 16
343 1 0.610089 2.72013 -10.8755 18
344 1 1.13991 12.734 -1.85363 19
345 1 -4.56731 8.02224 -11.9284 19
346 1 3.05693 10.3926 7.07734 18
347 1 -11.1697 -3.24158 -4.45846 18
348 1 7.33625 10.5671 -8.73175 11
349 1 -6.03312 -7.37081 -11.6789 18
350 1 -2.51849 -14.6117 -9.00693 11
351 1 1.99689 -6.5323 -11.3751 19
352 1 -11.1757 9.60591 1.51951 10
353 1 2.80778 3.25177 12.534 15
354 1 9.17323 5.48868 1.5092 17
355 1 -1.31869 7.90803 -1.1798 19
356 1 -4.60687 4.69357 -14.5181 19
357 1 2.5584 0.284921 -9.18959 20
358 1 -0.980205 -6.42307 5.53887 21
359 1 -13.3245 -6.84314 0.999585 17
360 1 -1.26512 1.533 -20.4529 5
361 1 14.6443 5.13463 -3.84266 14
362 1 7.07804 -8.65922 -0.364284 20
363 1 15.338 -0.877131 -1.08886 16
364 1 3.19086 -2.30088 -14.3918 20
365 1 -0.490647 -9.45944 -1.00989 18
366 1 -1.68594 -13.7835 3.62812 13
367 1 2.49141 -7.82278 6.47173 20
368 1 -10.8164 3.18083 -9.75993 10
369 1 -1.66539 -9.31492 -13.1298 9
370 1 1.00265 -0.133996 -15.3969 14
371 1 2.14129 -2.65208 11.8515 17
372 1 -12.2017 -8.01838 -0.602648 19
373 1 11.2483 -4.5127 -11.3258 13
374 1 9.48486 0.345639 -4.76669 18
375 1 -5.91155 11.1525 1.08992 18
376 1 1.44337 -6.72758 -6.29049 19
377 1 8.17998 1.41593 -10.7663 13
378 1 11.347 -6.11207 -7.75291 14
379 1 -5.90178 -0.734111 9.90841 21
380 1 8.46132 10.2752 -0.414188 14
381 1 -0.317286 -4.93018 -17.4406 14
382 1 -6.62336 -3.00723 7.36927 20
383 1 -4.26169 14.5672 -3.30704 10
384 1 -8.48306 -4.01089 -13.9098 17
385 1 -10.8698 1.41594 -1.83108 18
386 1 -5.12168 -9.11411 11.562 14
387 1 -1.0464 7.92859 -6.96208 19
388 1 13.7059 2.01267 -3.32662 20
389 1 -14.3067 -12.8705 -1.68059 8
390 1 -1.46226 -12.4911 -1.28869 20
391 1 -6.01561 11.0897 5.37415 11
392 1 1.11563 -2.72461 -9.03029 20
393 1 2.53588 5.94747 -3.96827 21
394 1 15.0489 -3.89631 -4.77179 11
395 1 4.72354 10.3111 -7.92266 17
396 1 1.34776 -8.9514 1.04425 20
397 1 -6.71802 3.16552 6.22006 16
398 1 5.99519 9.54251 8.12392 15
399 1 -3.51919 3.91195 -18.8662 11
400 1 -6.92069 -6.30392 -8.96991 19
401 1 1.22753 -1.98323 9.28787 18
402 1 8.01972 6.30215 7.29363 21
403 1 1.92756 7.61495 -7.21424 22
404 1 -11.9444 12.1575 -4.86606 8
405 1 -5.59224 10.6403 -5.19098 18
406 1 11.9095 -2.00467 6.19529 16
407 1 11.4831 3.84291 -11.9147 11
408 1 -14.2914 -12.3122 1.8736 9
409 1 -2.81133 3.66185 9.70326 17
410 1 -2.63627 10.8323 -11.0313 13
411 1 8.43202 -13.1939 -2.10391 8
412 1 10.0202 -6.00282 -13.9519 9
413 1 -3.2264 13.5684 -6.07451 13
414 1 -9.3504 -5.87315 -16.3178 10
415 1 3.95495 -15.309 4.27388 11
416 1 -10.1929 -9.76593 -2.10685 19
417 1 -4.35202 2.27905 -6.2755 21
418 1 -7.87864 -9.886 7.15811 14
419 1 2.24508 8.0124 -1.83401 19
420 1 5.06005 -11.886 -6.15642 13
421 1 5.26191 -7.10463 10.3976 11
422 1 6.32278 0.0398745 -4.08291 20
423 1 -9.48396 3.59971 3.93847 20
424 1 10.0744 -2.62862 -1.51327 18
425 1 2.69077 12.0979 11.8538 9
426 1 -0.410039 -1.46303 -13.9122 16
427 1 3.35514 13.2996 5.81965 14
428 1 9.31473 4.76654 -9.93371 19
429 1 1.16974 -7.74284 -17.2828 10
430 1 -5.53108 -9.21113 -8.99158 16
431 1 -13.6972 -5.38165 -10.5462 12
432 1 16.007 2.11992 0.0549234 13
433 1 17.9479 0.671423 -5.802 8
434 1 6.46394 -3.1669 -13.6355 19
435 1 7.95772 -8.47461 -4.83828 17
436 1 3.98289 5.78832 3.09126 22
437 1 -9.68675 1.92443 1.42201 23
438 1 11.6822 7.25811 -4.01677 15
439 1 13.7011 -3.73237 0.798416 15
440 1 8.41126 4.33189 -12.9201 14
441 1 13.1449 2.27904 10.7768 11
442 1 -0.732686 -3.89138 10.1729 18
443 1 4.07132 -1.15646 13.285 13
444 1 13.2697 1.03632 -10.9333 10
445 1 7.59493 4.82815 10.3297 20
446 1 -7.38976 -0.642493 -9.23163 23
447 1 14.4566 7.07942 -2.26508 11
448 1 11.276 -5.6295 -1.11923 15
449 1 1.29433 -6.47475 -0.953037 19
450 1 14.1046 -0.87441 10.1301 13
451 1 4.04291 7.49073 8.03228 18
452 1 6.05801 2.93544 4.58799 20
453 1 -3.39108 10.1197 -2.02677 18
454 1 3.39712 9.81897 -14.1612 13
455 1 10.3177 0.868865 -13.0024 14
456 1 3.86426 10.7765 -2.25204 20
457 1 -3.6963 -15.1954 -6.45665 15
458 1 -14.9922 1.27662 4.12036 10
459 1 -1.95614 6.2495 -16.7649 13
460 1 -9.07348 -14.3895 6.24713 7
461 1 -5.67967 -2.82855 -10.3946 20
462 1 -15.4829 1.66377 -4.64284 9
463 1 9.00413 -7.49531 1.61627 15
464 1 13.0896 5.92387 6.37045 11
465 1 -0.279734 -9.05249 4.11126 20
466 1 -8.49926 -1.53743 -12.8928 20
467 1 7.07059 0.156441 6.20424 18
468 1 -0.800736 2.86991 11.7085 18
469 1 5.85985 9.40086 -11.5663 14
470 1 2.9689 4.85691 -9.08061 18
471 1 0.00842216 -15.8122 -6.34896 9
472 1 14.7681 -0.758882 5.50803 14
473 1 6.33257 8.17327 2.92381 19
474 1 13.4343 -6.64994 1.68504 11
475 1 -3.8804 2.94805 13.2379 11
476 1 -10.7587 -8.97781 1.60836 19
477 1 -10.7836 -2.99299 -8.56128 21
478 1 9.60935 -0.412387 15.1779 6
479 1 -2.61532 -7.61043 12.0371 17
480 1 6.76595 7.14234 12.9953 10
481 1 -10.4238 8.74199 -3.32799 21
482 1 12.9032 0.731737 0.374751 22
483 1 10.0536 2.93809 3.1363 15
484 1 2.59766 -2.38568 -17.6339 13
485 1 -12.7961 -4.11169 7.88895 14
486 1 4.87566 -2.66143 -9.4324 20
487 1 -2.11767 -6.81089 -6.36344 22
488 1 9.68819 -8.44291 -7.42105 14
489 1 5.50476 4.46123 7.30665 21
490 1 2.9557 5.17756 5.85153 21
491 1 10.3828 8.01496 7.90357 13
492 1 -0.661642 -6.24035 14.457 10
493 1 0.505188 2.11729 14.6032 12
494 1 3.2931 -7.14805 -9.04432 15
495 1 -8.64994 -0.111686 14.6384 8
496 1 12.6453 -0.15153 13.7162 6
497 1 16.0189 3.26691 -5.58215 11
498 1 4.0614 -10.955 -9.14439 12
499 1 -5.69353 -0.570852 -6.51173 20
500 1 6.79559 7.09279 -0.0725569 19
501 1 7.16429 10.8969 2.79936 14
502 1 -2.60067 -4.02665 4.66241 19
503 1 2.1939 12.4278 -4.51851 16
504 1 12.9621 7.11361 0.88882 10
505 1 -5.25259 -9.22419 -3.58837 20
506 1 -4.05314 0.80102 -14.352 17
507 1 -11.9804 10.5597 -1.60557 12
508 1 6.89973 -6.6305 -14.6273 12
509 1 6.05279 4.27328 1.37794 19
510 1 10.3491 7.01337 -11.474 11
511 1 11.3764 5.51241 -6.94463 17
512 1 -2.77195 4.2028 4.48786 17
513 1 -5.89998 4.55652 -1.69607 20
514 1 5.92807 6.35567 -4.50749 21
515 1 -3.4785 -8.58068 8.71258 20
516 1 -0.931452 7.03446 -14.1165 17
517 1 6.45094 11.8843 7.00534 11
518 1 1.07042 1.98413 6.39246 17
519 1 7.01131 11.2207 -2.3986 15
520 1 9.01079 7.90545 2.43696 17
521 1 13.8938 -5.19515 -8.04562 12
522 1 -14.2069 -5.34119 3.36579 12
523 1 3.11108 -15.7248 1.42574 13
524 1 -0.461059 -4.66538 -11.5859 15
525 1 -2.22615 7.13462 7.56532 16
526 1 2.7699 -4.10748 -6.61144 20
527 1 4.43671 9.47815 0.36814 18
528 1 -13.6485 -3.88339 -1.493 16
529 1 6.15691 -12.0376 -0.200409 17
530 1 9.26605 5.82459 -4.91376 20
531 1 2.89615 -5.28898 1.46912 22
532 1 -0.487155 10.6813 -0.764286 22
533 1 6.07007 -1.6946 -16.7323 13
534 1 -0.639264 -9.95837 10.4229 18
535 1 4.25264 13.4493 -2.77138 14
536 1 -1.75844 0.517756 14.1951 14
537 1 -7.69451 -8.34317 -14.7533 12
538 1 4.31763 -1.06139 -6.80586 22
539 1 -0.643667 9.68805 7.48732 13
540 1 6.15338 -9.38728 -7.31965 16
541 1 0.323479 -4.20126 7.37387 18
542 1 1.14077 -14.6694 -2.77558 13
543 1 -12.2329 -4.74813 10.9162 10
544 1 -0.437807 -0.224643 -9.77573 18
545 1 -8.95084 -15.6569 -3.56906 10
546 1 -7.75883 -1.02726 12.276 18
547 1 12.3575 3.41708 -8.97193 13
548 1 -6.70097 0.376408 6.26999 20
549 1 -13.4868 6.85902 0.891295 10
550 1 10.8702 -3.96018 2.13956 21
551 1 -5.42142 10.473 -10.4064 14
552 1 11.2308 -3.14895 -8.26047 19
553 1 7.33783 3.32272 -4.47182 22
554 1 -7.62051 1.83508 -6.76056 20
555 1 -12.263 -8.4458 -11.9217 12
556 1 -0.0361251 8.99579 -9.59368 19
557 1 -3.25323 -4.51608 12.6868 16
558 1 -6.81332 -12.0293 1.2616 18
559 1 -2.05172 -8.74312 -8.96107 19
560 1 -10.2353 4.10901 -1.14071 21
561 1 4.30617 10.6185 4.21444 18
562 1 -10.2278 -6.19034 2.16615 19
563 1 6.9061 6.08138 -10.9308 18
564 1 0.335857 -15.2909 -0.0205945 12
565 1 2.69688 2.10606 -6.39818 18
566 1 1.75456 -5.20333 -19.7079 6
567 1 -0.715468 1.36017 8.61666 15
568 1 0.517233 2.44422 -17.4351 10
569 1 -10.8007 -5.15329 -1.52374 23
570 1 8.04065 -0.395721 -2.20472 15
571 1 -6.81388 -4.78455 -0.912754 18
572 1 14.724 5.35234 -7.63709 9
573 1 8.08843 -2.63208 -5.23899 18
574 1 -7.13039 2.09398 12.078 16
575 1 6.75224 -5.06498 1.86108 18
576 1 15.416 -7.20908 -4.04478 7
577 1 10.6459 -5.85394 9.64412 11
578 1 0.916668 15.2853 6.15779 12
579 1 -4.20439 -0.173304 12.469 18
580 1 -5.64518 -14.1925 8.39428 9
581 1 9.55595 1.86663 0.700632 17
582 1 6.75147 3.91913 12.9617 13
583 1 -13.3806 -6.00201 -4.21711 13
584 1 9.71607 -5.51249 -3.53497 16
585 1 -0.166067 8.65321 1.5201 19
586 1 7.34152 -1.71641 11.435 17
587 1 -1.02466 12.7598 5.47298 16
588 1 -0.701522 -13.6866 10.3611 8
589 1 -8.95014 -4.27963 -3.65393 19
590 1 5.83301 0.903531 12.496 15
591 1 5.7089 12.1937 0.0898754 16
592 1 -7.32847 -14.7565 2.8549 15
593 1 4.4593 -5.97555 4.29055 19
594 1 9.50582 -3.38411 5.05014 21
595 1 5.99582 6.7279 10.1549 18
596 1 -2.43356 4.04795 -6.36133 18
597 1 1.35911 -9.36826 -9.80634 13
598 1 -2.28959 3.53234 -16.0258 17
599 1 -2.93763 0.213013 9.70938 17
600 1 1.52559 14.1625 3.53721 15
601 1 17.9052 -0.528038 0.789082 5
602 1 -0.971111 5.30362 -9.33301 21
603 1 -1.38582 6.18839 10.3393 15
604 1 9.6169 6.7862 11.2067 12
605 1 6.41175 -4.92126 -11.2606 16
606 1 -3.1848 -11.9913 -4.4273 18
607 1 -3.96594 0.0330531 -8.93903 23
608 1 15.9557 -3.06528 9.54161 6
609 1 1.99786 -2.18593 -11.5208 20
610 1 -1.90147 -9.10145 -3.57987 22
611 1 14.6549 -6.29242 -1.82742 13
612 1 2.64408 -8.54182 9.89548 17
613 1 -5.96637 -14.6803 -8.51648 9
614 1 8.50998 8.62883 -3.34451 18
615 1 -9.92492 -6.98102 5.68722 19
616 1 -13.0982 3.36029 2.46893 16
617 1 5.05666 7.42442 -8.08874 22
618 1 8.36146 -4.13054 -16.0189 11
619 1 -4.01111 13.267 2.93887 19
620 1 6.51816 5.0608 -14.789 8
621 1 8.07972 -5.5335 -1.1783 20
622 1 -9.78858 2.18069 -4.2847 20
623 1 11.2018 7.92635 4.87393 12
624 1 -10.3577 -14.4486 3.44618 13
625 1 2.6538 4.57768 8.53161 17
626 1 -13.6077 -3.96755 -7.7539 11
627 1 -12.0934 3.17502 5.57809 13
628 1 -6.42991 4.91509 -7.31075 19
629 1 7.10984 -10.0422 -10.5513 9
630 1 -13.4026 -9.68877 -3.38072 19
631 1 11.0594 -10.6888 1.13126 10
632 1 -14.2087 1.32989 -1.01746 16
633 1 -10.7494 -6.25408 -10.0454 20
634 1 -7.59683 -4.98519 13.0544 14
635 1 12.7407 -4.06893 4.34311 15
636 1 10.6935 -1.16876 2.89246 20
637 1 -13.3007 4.29734 -0.772192 16
638 1 0.94761 9.19971 10.1524 15
639 1 3.48307 7.94056 -10.3795 21
640 1 -4.47098 16.9006 3.2708 7
641 1 9.92772 8.69985 -6.02264 13
642 1 0.611461 5.41922 13.345 13
643 1 7.96575 -7.66244 8.51858 14
644 1 4.15834 11.9799 -10.0025 13
645 1 -3.73662 -3.36659 9.58922 21
646 1 1.17837 -4.80569 -14.2994 17
647 1 -15.1115 -1.47402 -0.441224 13
648 1 -5.47468 -11.1143 8.32177 14
649 1 9.47707 -0.348058 7.78523 17
650 1 -0.987932 -13.1721 -7.33718 16
651 1 -12.183 0.0543861 0.746642 22
652 1 10.9969 -1.47171 -11.0711 17
653 1 -8.93247 7.83338 2.36077 18
654 1 -9.51903 1.59883 6.89242 19
655 1 -8.00951 -9.3272 -11.1548 14
656 1 0.0169833 -11.8888 -4.22279 20
657 1 6.09666 -14.203 2.89808 13
658 1 1.48316 8.12859 -12.6995 19
659 1 11.3477 3.3716 -4.2221 18
660 1 7.17537 5.86882 4.58095 19
661 1 12.8649 -0.853688 -3.75671 17
662 1 -0.362089 -1.99006 -17.5227 9
663 1 0.96847 -10.3158 7.56648 19
664 1 6.53 9.86352 -5.49951 19
665 1 4.89012 -0.939151 -12.015 20
666 1 -10.7865 5.42432 -3.44583 20
667 1 3.90329 4.87123 -6.59738 17
668 1 -12.482 -7.6873 9.37509 10
669 1 5.08217 8.09461 5.57388 20
670 1 0.399741 -16.6012 3.07874 9
671 1 5.92959 8.339 -2.31192 22
672 1 -4.12471 6.03022 11.6372 10
673 1 -9.76875 -2.83387 12.3915 15
674 1 11.6809 5.25947 -2.16374 22
675 1 -4.90243 -6.31275 10.6234 22
676 1 2.69831 -11.7233 5.58606 16
677 1 -7.83121 -2.14085 4.6283 15
678 1 10.3327 3.95776 12.1171 10
679 1 6.53603 -6.87015 -8.61695 21
680 1 -4.78293 1.60988 -19.9473 8
681 1 -7.34299 2.86785 -13.2649 18
682 1 -10.141 -0.981779 -10.3448 16
683 1 11.6003 5.69021 3.17393 17
684 1 -0.824833 6.78128 4.6691 18
685 1 -10.7626 -10.3209 -4.93223 18
686 1 -4.66842 7.79312 -0.893679 21
687 1 15.9359 0.620301 8.45108 10
688 1 -5.28874 -8.92403 2.20132 20
689 1 9.03256 -4.24593 -8.81806 18
690 1 4.21061 -11.3764 1.69212 18
691 1 3.69124 0.633122 -16.7702 13
692 1 -4.14767 0.880484 -16.9933 16
693 1 -9.11677 -7.07879 -0.52123 21
694 1 -9.82631 4.22632 -6.64129 18
695 1 -9.19559 4.03291 10.2907 11
696 1 8.5795 -2.96493 8.31698 18
697 1 -10.5588 -11.8442 6.00117 14
698 1 13.6823 -1.47123 2.56919 18
699 1 0.406416 4.53731 -13.5361 19
700 1 17.4549 4.75438 -1.41805 8
701 2 -9.47401 -1.79311 -8.17014 18
702 2 -7.89398 12.8461 -4.1175 12
703 2 3.90943 -6.59801 -10.9676 18
704 2 -2.71 7.26113 11.5751 9
705 2 -8.25639 -6.81192 -10.2398 17
706 2 7.24576 -3.25093 12.8049 12
707 2 -14.243 -12.4249 0.140341 10
708 2 -12.4883 4.91249 -2.82796 18
709 2 3.56845 12.9677 10.3686 7
710 2 -12.0825 -2.48244 3.4513 17
711 2 3.84795 3.08758 8.34452 19
712 2 -1.80576 -3.25842 -7.36165 21
713 2 -12.9017 -9.9858 -10.6044 9
714 2 -11.6563 1.49269 -3.67683 22
715 2 -2.5361 -5.85131 6.90217 21
716 2 1.55748 4.19032 6.89349 21
717 2 7.39333 -0.173404 -10.4041 17
718 2 1.71264 -16.4227 4.65059 8
719 2 6.58073 1.21245 4.14605 20
720 2 -0.968968 14.773 1.50349 13
721 2 -8.52321 -0.757792 -11.0093 21
722 2 12.6081 1.25385 4.92954 22
723 2 7.98941 -8.86674 -6.6905 19
724 2 -10.4516 -12.8389 -0.10248 18
725 2 -6.94402 -10.2729 8.94916 12
726 2 -4.39032 -14.8784 7.23152 10
727 2 9.99908 -5.16721 5.01545 14
728 2 -1.98515 -12.9519 -9.30591 12
729 2 3.82482 -3.00824 12.3695 14
730 2 -0.964749 7.34401 -9.05732 20
731 2 -10.7412 -11.1863 -3.26517 17
732 2 1.09863 3.97815 14.2928 10
733 2 -10.5183 10.7839 -0.506337 13
734 2 -3.74051 0.371479 14.4473 13
735 2 -5.41963 9.81236 -3.33834 18
736 2 8.55004 -13.3088 -0.367875 9
737 2 -4.46552 5.01873 4.01933 17
738 2 3.11048 11.4622 -8.27499 17
739 2 4.68674 -6.92081 -3.79739 17
740 2 -2.26968 -1.08727 -9.81218 21
741 2 1.26423 -7.14324 -9.63091 18
742 2 8.0945 -2.08609 -0.947821 15
743 2 -1.37561 2.52101 13.5639 14
744 2 2.36357 11.0771 -12.9759 11
745 2 -3.09544 6.69754 -12.2596 21
746 2 10.5561 7.11478 -5.53104 16
747 2 -7.91151 -3.58088 11.8204 17
748 2 -11.8931 7.90961 1.16006 14
749 2 9.63157 -1.955 -9.81612 15
750 2 -3.60647 -10.1259 -9.43221 15
751 2 -14.398 -10.3397 2.35838 13
752 2 11.4128 2.26106 -0.200845 21
753 2 -9.47546 9.63615 2.13277 15
754 2 -6.12261 -12.759 -8.4668 14
755 2 -2.92233 16.4305 3.67911 9
756 2 1.48067 -9.54946 10.825 14
757 2 12.6917 -3.78687 6.11007 15
758 2 -11.5088 -0.126457 -1.18211 19
759 2 11.4347 -9.9748 -0.827591 12
760 2 11.6654 -10.1612 -4.60746 11
761 2 7.60923 6.31869 2.82656 17
762 2 7.99226 -14.0592 2.88347 10
763 2 5.87556 -4.51654 4.38165 20
764 2 -9.13439 -1.40618 13.7709 10
765 2 14.8675 -3.83577 -6.71995 12
766 2 5.52114 8.26317 9.25326 16
767 2 13.8324 4.31638 5.47819 14
768 2 -5.39428 1.96621 13.1562 12
769 2 5.60953 11.5488 3.37689 17
770 2 14.8238 -8.19254 -2.43712 9
771 2 -1.13834 4.95564 -7.42163 17
772 2 -12.4917 -4.52578 -11.6888 13
773 2 -10.4455 -0.521669 10.1146 13
774 2 6.59939 -1.01447 -7.5878 20
775 2 -7.64229 0.858194 -8.49238 22
776 2 -13.0673 -5.21173 5.051 13
777 2 -9.50277 -14.1017 -4.59106 15
778 2 14.3284 -2.1369 -0.128686 13
779 2 -4.20404 -9.93062 9.93113 17
780 2 -1.98321 -3.10151 16.2908 6
781 2 6.36988 -0.0777437 -15.6502 15
782 2 7.94303 -0.0224019 15.8152 6
783 2 -1.0346 8.00243 6.27951 16
784 2 -8.02738 -0.844716 3.29021 20
785 2 6.48964 -9.43192 -4.18807 17
786 2 11.8011 -4.54628 -6.77306 17
787 2 -7.87435 10.585 5.0204 12
788 2 -3.77222 -9.67771 1.31767 19
789 2 8.43029 -8.75277 -9.48388 13
790 2 5.94592 1.70637 -5.0263 21
791 2 4.44259 3.43638 5.51943 21
792 2 8.72178 -6.94618 -4.46413 16
793 2 2.74292 -4.964 3.42788 21
794 2 -8.15012 -12.9652 2.51164 19
795 2 10.1614 1.9811 -3.40772 21
796 2 -10.0141 -10.4878 7.01875 12
797 2 8.00337 5.71556 -8.78387 18
798 2 -2.04812 -7.9896 4.41716 19
799 2 13.3611 -3.40852 -9.23804 14
800 2 -1.8335 -15.1176 -7.19374 12
801 2 13.6202 -5.60595 0.0926934 14
802 2 -5.06134 12.4434 4.32506 16
803 2 12.2167 -1.47244 -8.07149 16
804 2 -5.38213 -7.45518 -9.12621 19
805 2 -14.6068 -8.18048 -3.64949 10
806 2 -2.34631 -6.59528 1.04794 22
807 2 -3.91992 -5.83976 -1.79139 22
808 2 -6.79969 7.61657 -1.72611 17
809 2 -9.94379 6.55352 3.49116 16
810 2 1.28202 -1.12081 -10.0148 19
811 2 7.53585 4.82974 -5.4596 19
812 2 0.422245 8.98451 -7.41893 16
813 2 -8.56521 0.620151 12.4783 14
814 2 1.15567 -4.021 -18.291 10
815 2 -10.9356 5.39346 -0.272149 19
816 2 -5.32526 -2.40673 9.98195 22
817 2 -13.7171 1.74682 5.65938 13
818 2 -6.07927 4.21396 -9.10881 22
819 2 7.02077 10.9676 0.920593 15
820 2 15.2898 5.04256 -5.73809 10
821 2 11.4081 -6.98413 -2.58582 16
822 2 -12.8047 -3.12124 9.99216 10
823 2 9.65395 1.19707 2.57741 19
824 2 1.09731 9.92214 2.06125 18
825 2 -7.68205 4.52943 -12.4727 17
826 2 -8.0154 7.03084 0.645214 19
827 2 12.4197 -5.63075 8.84068 9
828 2 -9.01814 -7.59146 -15.7461 8
829 2 4.49467 5.3887 -14.5233 11
830 2 13.1611 6.25308 -3.36255 14
831 2 -10.7584 -8.38323 9.73496 12
832 2 0.292444 8.7185 -2.17602 21
833 2 -2.63434 9.5023 -6.86388 20
834 2 2.37716 9.51124 -5.22227 19
835 2 14.0397 0.983896 9.41153 12
836 2 1.67634 7.87684 11.1329 17
837 2 13.4411 -7.00521 -8.00319 10
838 2 -0.426746 -0.941687 12.9505 16
839 2 2.14302 -3.92085 8.67827 18
840 2 -14.0325 -1.92444 -1.95627 16
841 2 -5.5759 -15.0711 -6.64316 11
842 2 1.54706 -8.85539 -6.85669 18
843 2 6.72725 -6.32622 -12.6733 16
844 2 16.5509 0.61965 1.51611 12
845 2 -2.79999 -0.664952 11.3837 16
846 2 5.12196 1.10365 -12.4732 15
847 2 -6.91031 -8.70995 11.5995 11
848 2 2.09297 -6.77361 -18.9197 6
849 2 1.63552 -12.8519 -3.31419 19
850 2 -0.171714 -5.99524 -7.08312 19
851 2 4.64635 -14.948 2.28089 11
852 2 14.156 3.27241 -8.04465 13
853 2 -2.43187 6.99693 -15.1961 17
854 2 -6.31506 9.36256 1.84886 20
855 2 -7.38596 -6.66976 -1.34626 20
856 2 -9.10244 -0.714137 -14.3948 12
857 2 4.96947 9.52208 -13.3444 13
858 2 -1.5048 12.8523 -6.89237 14
859 2 -3.57784 -8.66066 6.88325 19
860 2 14.5966 -4.14875 10.1343 6
861 2 -0.137064 0.326083 15.1822 9
862 2 -9.10531 -15.1029 -1.62144 11
863 2 6.48769 -12.5114 -2.21285 10
864 2 2.24845 -0.865475 13.494 14
865 2 2.39464 14.3491 7.27404 11
866 2 11.4733 7.5772 -10.1009 10
867 2 2.75612 4.2115 10.542 15
868 2 9.58662 8.97655 -7.97597 10
869 2 -8.51642 -8.23145 6.35465 18