ITEM: TIMESTEP
10000
ITEM: NUMBER OF ATOMS
500
ITEM: BOX BOUNDS pp pp pp
-30.0 30.0
-30.0 30.0
-30.0 30.0
ITEM: ATOMS id type x y z Coordination
1 1 12.9114 -4.03987 4.19591 8
2 1 5.95766 5.60197 7.13314 13
3 1 1.14255 1.40741 -12.8361 11
4 1 -5.31372 2.64653 -4.79675 14
5 1 9.11933 2.56546 -11.0817 13
6 1 11.1742 -6.20498 -6.04383 10
7 1 11.7555 2.55631 5.13071 11
8 1 7.79348 7.73775 5.42767 13
9 1 -5.07793 0.156487 -2.83391 14
10 1 14.06 0.902185 -2.65234 14
11 1 9.33712 0.195285 5.36521 16
12 1 -3.11698 -6.45632 1.10371 11
13 1 4.37204 -2.69019 -9.642 13
14 1 11.9131 -0.911546 -8.02164 10
15 1 12.5866 -5.167 -0.970929 11
16 1 1.5709 11.3939 2.68715 14
17 1 6.87907 11.3483 -0.0400346 16
18 1 3.69543 0.930083 -11.4731 14
19 1 3.05644 7.47212 6.99662 13
20 1 -0.13346 7.64706 2.61889 13
21 1 4.37075 4.66503 -9.84805 18
22 1 12.6437 6.05133 0.00539292 18
23 1 1.46735 9.14121 -8.40123 13
24 1 -2.6487 4.38804 -9.02311 13
25 1 3.23199 10.1261 -5.76747 16
26 1 -4.92021 5.03867 -2.21548 13
27 1 4.91452 12.5216 2.38081 12
28 1 3.29546 5.779 -7.54484 18
29 1 -0.791737 -5.24935 3.09556 16
30 1 9.06016 -9.09848 -5.38796 10
31 1 -1.57358 -1.23205 -7.8385 17
32 1 3.12394 -7.23841 0.338333 15
33 1 9.71209 6.71571 -7.5816 15
34 1 0.844876 -3.28368 -9.2223 12
35 1 6.96146 8.9229 -11.3824 10
36 1 5.34394 10.9794 -3.07667 18
37 1 -5.52204 4.26328 1.42599 12
38 1 7.07094 10.8988 4.4573 11
39 1 7.49946 -0.245042 7.19913 14
40 1 5.7678 -8.86835 -5.33467 13
41 1 9.8015 1.4852 -8.18017 15
42 1 10.5885 -2.68429 6.65062 12
43 1 6.67985 -3.40036 5.34775 18
44 1 11.5401 8.26473 -1.56098 14
45 1 -1.8268 -4.07349 -0.301758 21
46 1 1.15288 -8.46088 -2.28789 13
47 1 -1.76926 0.552658 5.67171 16
48 1 -3.67327 2.49466 3.28937 18
49 1 7.51492 -8.44729 -2.16403 13
50 1 -4.87069 0.679311 0.825889 13
51 1 3.7507 10.1785 4.2681 14
52 1 -1.71832 4.72453 2.35629 20
53 1 0.915399 9.23289 5.55478 11
54 1 -3.6338 -3.06862 -6.87835 11
55 1 -4.57066 7.1184 -7.85026 11
56 1 2.70726 -2.03362 -11.6791 12
57 1 12.12 -0.745743 3.79072 16
58 1 4.76081 -2.00778 7.16546 16
59 1 -0.235659 3.77339 -11.4407 12
60 1 -4.42772 -0.375851 -6.03957 14
61 1 0.738803 -4.68547 -0.261544 18
62 1 -2.55731 8.66421 3.92925 8
63 1 3.55298 -7.02794 -6.78711 14
64 1 3.35832 11.3235 -0.391358 16
65 1 -3.3618 1.89283 -7.41679 16
66 1 -5.93192 7.12574 -5.30953 8
67 1 1.33695 -4.5177 -6.47813 17
68 1 6.8911 -6.06915 3.29686 12
69 1 -3.8529 8.04376 -2.54424 15
70 1 0.682528 6.08862 7.19646 12
71 1 -3.96594 5.71283 4.01687 13
72 1 -1.70969 -4.96494 -7.57466 12
73 1 2.62127 -4.34844 6.94914 10
74 1 7.12328 -6.94512 -7.18822 15
75 1 8.65342 -0.540234 -9.82486 20
76 1 10.3582 -6.4359 2.80372 8
77 1 -0.689937 -6.98054 -4.84493 17
78 1 -4.24348 -0.830857 3.86053 14
79 1 14.3492 1.5832 3.07474 12
80 1 10.9957 8.58509 -4.73282 13
81 1 5.92288 3.74564 -12.1782 15
82 1 3.60997 8.57027 -10.5918 11
83 1 8.23203 10.7411 -3.18914 15
84 1 7.98133 5.57821 -13.3727 8
85 1 6.3479 -6.28294 0.0909548 16
86 1 8.59235 -4.29263 -5.0996 21
87 1 4.36401 -7.79304 -2.56438 16
88 1 -5.5086 4.2346 -7.81242 10
89 1 14.5835 3.69219 -2.20361 13
90 1 -1.12585 7.95829 -7.4731 14
91 1 11.7226 -3.51803 -6.79427 15
92 1 -1.93984 -1.99287 4.15496 17
93 1 1.99446 -8.84028 -5.32572 14
94 1 5.90428 -5.80433 -9.68985 9
95 1 10.2338 -4.56659 -2.45913 19
96 1 -0.437452 -4.36078 -3.26517 18
97 1 4.44263 1.31872 8.8418 11
98 1 3.2782 4.17435 6.80886 18
99 1 11.3905 -3.55334 -10.4136 7
100 1 7.97512 7.97315 -2.91173 21
101 1 12.6377 -0.582951 -4.73216 13
102 1 2.39081 4.23585 -12.1521 12
103 1 -3.76496 6.31188 0.832258 15
104 1 8.14794 -2.66164 7.94983 9
105 1 -1.30177 1.08657 -9.92881 14
106 1 11.176 -3.57075 1.14411 19
107 1 10.0367 5.54957 5.11539 14
108 1 5.04531 -5.43139 5.31647 15
109 1 11.0788 3.26603 1.43749 21
110 1 13.0105 5.05836 3.14806 11
111 1 9.85554 8.25166 3.69542 13
112 1 0.567699 5.79603 -9.24853 17
113 1 2.28345 -6.14365 -3.90867 18
114 1 -0.845343 9.31251 -2.74897 16
115 1 8.06231 9.15434 -5.68185 18
116 1 6.65887 2.92062 8.61655 9
117 1 6.23008 -0.755201 -11.8722 11
118 1 10.2328 11.8348 -0.596976 10
119 1 9.07997 -4.88861 -8.41753 15
120 1 8.83302 -5.61241 5.39992 12
121 1 -1.88271 7.34975 6.29472 9
122 1 15.7692 0.904897 0.0246007 10
123 1 4.42801 10.5888 -8.7027 12
124 1 10.8156 4.56667 -9.55877 10
125 1 1.48499 -0.790418 7.20911 14
126 1 0.486042 -2.56208 5.41536 16
127 1 -0.119293 12.025 -0.08665 10
128 1 8.8192 8.55983 0.272045 21
129 1 -4.075 -4.4613 3.63354 7
130 1 12.7117 0.587589 -0.0552074 20
131 1 -2.03994 -6.67923 -1.52299 15
132 1 14.3702 3.58723 0.884194 15
133 1 10.0872 -7.25228 -3.3405 13
134 1 8.29289 13.1829 2.16556 9
135 1 -5.31818 -3.06516 -4.27626 12
136 1 9.63554 7.65535 -10.8198 10
137 1 1.32824 -0.0460361 -9.90732 19
138 1 7.84823 -3.4902 -10.6232 13
139 1 0.544242 -6.86412 -7.9224 11
140 1 12.2456 -2.24106 -1.83216 17
141 1 -6.14998 -1.8886 -1.53722 9
142 1 4.96228 6.49875 -12.6262 10
143 1 -3.31448 -5.56036 -4.66357 14
144 1 13.9053 -2.2988 1.3048 11
145 1 6.49019 1.87625 -9.76276 19
146 1 -2.44966 9.35388 0.486375 11
147 1 -1.53667 4.12601 5.40748 17
148 1 12.3949 9.47093 1.23636 11
149 1 12.8985 5.92051 -3.23127 15
150 1 2.10501 -6.20552 4.03352 11
151 1 7.7377 5.33691 -9.82825 21
152 1 7.56751 9.98805 -8.84222 11
153 1 10.12 11.3389 2.82535 13
154 1 6.11696 11.6911 -6.04463 13
155 1 12.5175 6.06498 -6.55039 11
156 1 13.2871 -3.78216 -4.12691 10
157 1 4.56299 7.20948 4.6051 18
158 1 1.84181 11.3674 -3.12901 17
159 1 0.447967 -7.57835 1.02433 13
160 1 9.59059 -6.70329 -0.217911 13
161 1 -4.924 -4.85831 -1.49915 13
162 1 -3.07097 9.20074 -5.01793 13
163 2 -4.72519 2.38013 1.77895 16
164 2 11.5142 5.17165 1.54945 18
165 2 -2.78047 0.37483 -6.12887 17
166 2 0.861539 -6.63289 2.74133 14
167 2 4.33767 2.91126 7.99934 14
168 2 3.2145 11.0588 1.51068 18
169 2 9.80081 -4.96415 -6.6522 15
170 2 1.34976 4.84015 -7.61613 19
171 2 4.49364 -1.42201 -11.2555 15
172 2 1.80013 10.3314 4.23721 13
173 2 12.8394 -3.24993 0.245595 15
174 2 12.05 7.82687 0.327677 14
175 2 5.20151 11.3298 3.76161 14
176 2 9.87086 12.3498 1.24702 10
177 2 8.56117 9.1566 -10.16 10
178 2 10.1207 -0.452553 -8.19078 16
179 2 -4.31113 3.43361 -6.61299 14
180 2 1.92674 -5.25207 5.58233 12
181 2 -4.84918 5.00705 -0.309846 14
182 2 12.4236 -4.63271 -5.48383 11
183 2 0.116512 -9.01918 -4.32944 9
184 2 7.19801 9.12968 3.84834 19
185 2 6.65341 -2.20415 7.04255 16
186 2 -1.27272 -1.50176 2.31493 24
187 2 4.73574 -7.35347 -0.467314 14
188 2 -3.37726 -5.6963 -0.683112 13
189 2 2.65669 -7.94403 -3.25145 17
190 2 -1.8923 -6.3011 -3.46032 15
191 2 1.49547 11.8036 -1.14783 15
192 2 10.9753 7.11117 -6.00464 12
193 2 6.22986 5.38618 -13.4298 9
194 2 11.4851 5.26773 -1.74842 21
195 2 5.09637 11.4081 -1.10863 18
196 2 -0.594397 8.54708 4.50181 13
197 2 6.68351 10.9927 -4.34105 15
198 2 5.83977 9.43715 -9.32627 13
199 2 4.1341 8.50619 5.87835 15
200 2 6.41128 1.03885 8.63253 12
201 2 11.7498 -2.6633 -8.85564 12
202 2 5.15562 -6.25919 -7.83324 13
203 2 -4.57023 -4.67632 -3.35813 13
204 2 12.13 -4.21212 -2.64983 12
205 2 9.49478 7.71238 1.91019 21
206 2 5.61692 1.21198 -11.6015 15
207 2 7.81217 -1.76758 -11.2447 11
208 2 2.43587 -3.15625 -10.2644 10
209 2 7.6009 -6.03107 -8.66788 11
210 2 12.214 -1.77886 -6.18709 12
211 2 8.12774 1.347 -10.0567 15
212 2 1.83216 -7.7518 -7.17493 13
213 2 3.63129 7.47087 -8.86643 17
214 2 -1.31806 -7.21027 0.664437 12
215 2 -1.74245 9.5478 -6.26268 12
216 2 -2.83631 -5.76319 2.74167 10
217 2 -4.92517 -2.26742 -5.88527 11
218 2 8.69823 -6.17883 3.56106 11
219 2 8.48509 12.0594 3.91095 9
220 2 1.3144 4.5213 6.35634 16
221 2 -4.96854 5.8246 2.42649 10
222 2 0.0932998 -1.48864 -9.26989 14
223 2 12.2485 7.93768 -3.47883 14
224 2 -5.6 -0.121012 -0.975377 11
225 2 0.583898 7.59397 -8.73211 15
226 2 6.34875 3.76886 -10.0257 17
227 2 -5.16339 7.19695 -3.43406 12
228 2 10.4177 -7.65635 -5.29346 11
229 2 4.01049 -8.55394 -5.59775 12
230 2 -0.859065 9.82447 -0.755611 14
231 2 8.60149 -9.30675 -3.49761 9
232 2 9.56957 7.39283 5.31268 11
233 2 3.31412 10.8845 -3.86534 18
234 2 1.91161 -2.51757 6.74819 13
235 2 5.14644 8.09978 -11.9014 10
236 2 9.26768 -1.26446 7.26814 11
237 2 9.39328 9.36561 -4.2211 15
238 2 10.994 9.60481 2.80656 11
239 2 -5.64432 -3.47751 -0.527381 12
240 2 6.3559 6.53062 5.26439 20
241 2 13.3521 -1.93667 3.04429 11
242 2 8.37492 4.04682 -12.1187 13
243 2 6.79405 4.04435 6.96584 14
244 2 9.56769 -2.32296 1.59927 16
245 2 -2.47851 0.223347 -8.68459 11
246 2 -1.30088 6.61013 -6.12502 20
247 2 -5.85015 5.66598 -6.59393 9
248 2 -0.559566 -4.30958 1.3886 19
249 2 11.3683 10.2228 -0.463389 12
250 2 0.610859 1.57465 -8.6849 21
251 2 15.2109 2.1371 -1.66583 11
252 2 -2.23809 8.39027 -3.54342 16
253 2 10.2968 -5.39324 1.02759 12
254 2 -0.795423 -3.74364 4.37244 15
255 2 -3.13127 -4.67189 -6.34755 10
256 2 4.49242 11.03 -6.81895 16
257 2 -1.56464 8.85202 2.10551 12
258 2 4.12476 -3.81681 5.79381 16
259 2 -2.85121 7.37955 -0.652456 15
260 2 4.09009 6.02043 6.77525 15
261 2 -2.03503 3.23301 -7.67983 18
262 2 9.29857 7.84599 -1.33326 20
263 2 1.27534 7.66159 6.4542 13
264 2 2.69428 2.35468 -12.4022 14
265 2 3.24237 -5.38342 -5.81084 17
266 2 10.0462 1.97434 4.63974 15
267 2 12.5138 4.86997 -4.8637 13
268 2 6.98187 -5.34136 5.21935 12
269 2 -1.17814 5.65572 6.53092 13
270 2 -2.16273 -3.02369 -8.34548 9
271 2 -2.94993 4.19178 3.99725 16
272 2 -3.72636 -2.69348 4.42877 11
273 2 0.690369 -5.4152 -4.7026 21
274 2 1.64306 4.22544 -10.338 17
275 2 9.5059 6.00105 -9.67631 12
276 2 8.24918 -2.59033 -8.58697 18
277 2 12.8736 0.951958 4.19544 10
278 2 11.754 5.01711 4.82285 12
279 2 2.65858 10.1094 -9.42763 9
280 2 1.79852 -0.328321 -11.8479 12
281 2 0.477297 12.2168 1.64245 9
282 2 1.65111 9.89848 -6.61656 14
283 2 -4.67201 8.2805 -5.98321 11
284 2 -3.22305 7.24596 4.99897 12
285 2 9.76573 -4.01999 -10.0061 11
286 2 -3.92697 5.55003 -8.65576 12
287 2 3.83851 5.38381 -11.5057 14
288 2 11.8702 -3.14077 5.35211 10
289 2 -1.08312 2.38312 5.88663 15
290 2 -4.41244 -0.698704 2.00129 13
291 2 11.7711 -5.43762 3.36685 9
292 2 -4.8281 3.54747 -3.12416 11
293 2 -0.612206 -0.919272 5.43384 18
294 2 3.97547 -5.89266 3.57754 14
295 2 15.5368 2.10999 1.59628 10
296 2 6.03047 -7.72753 -3.5265 18
297 2 0.362804 10.3256 -3.92209 15
298 2 -0.369206 1.95689 -11.5518 13
299 2 -2.96617 0.695163 4.1875 17
300 2 9.06676 -4.17847 6.53977 11
301 2 8.316 7.20567 -12.2305 10
302 2 13.8264 3.37578 2.63637 12
303 2 14.2523 -0.439444 0.809507 15
304 2 13.1237 -0.866957 -2.90386 14
305 2 11.2106 -6.44966 -1.58747 10
306 2 11.4567 5.5414 -8.12591 10
307 2 -4.99996 -1.67399 -3.11995 14
308 2 -5.06105 0.880076 -4.8875 13
309 2 7.97701 -7.43481 -0.585491 13
310 2 6.6082 8.00058 -6.49053 19
311 2 13.1215 2.67105 -2.70345 17
312 2 7.59169 10.5713 -6.99182 13
313 2 11.2907 -0.434397 -0.739125 20
314 2 7.52816 -8.47251 -6.33947 9
315 2 0.455889 -4.95257 -8.25711 12
316 2 8.34151 11.3425 -1.43823 16
317 2 6.6127 12.5711 1.59358 13
318 2 1.53778 -8.026 -0.578733 13
319 2 3.9675 -0.354143 7.35156 13
320 2 14.0714 4.88855 -0.556471 15
321 2 9.96808 2.93364 -9.37546 14
322 2 -1.04384 4.75076 -10.0266 13
323 2 -0.954218 -6.70422 -6.76685 12
324 2 8.97036 -5.61235 -3.46185 19
325 1 -1.76764 0.868481 -4.70456 22
326 1 -2.77214 -1.8443 -2.5081 18
327 1 4.60683 -4.33476 -4.98765 20
328 1 4.07276 0.333422 -8.2843 19
329 1 1.03794 0.76192 -6.46828 23
330 1 3.07944 -1.71698 -6.20259 18
331 1 -0.0737837 -1.89692 -4.68373 18
332 1 4.01651 0.611105 -4.89451 20
333 1 1.14051 0.544882 -2.90739 23
334 1 3.06713 -2.14855 -3.18641 19
335 2 -1.14377 -2.51643 -3.38463 18
336 2 -2.44481 0.0929206 -2.75027 21
337 2 3.67643 -4.8081 -3.30986 20
338 2 4.55951 -1.53863 -8.20612 18
339 2 3.06161 1.15829 -9.59661 21
340 2 5.86692 -3.87259 -9.84025 14
341 2 1.22099 -2.51266 -5.89557 18
342 2 2.78535 0.0808283 -6.39497 21
343 2 0.133913 0.246256 -4.70792 19
344 2 4.31121 -2.29347 -4.67341 21
345 2 1.33452 -1.66866 -2.8885 19
346 2 3.23234 0.177269 -3.12007 20
347 1 -1.31077 0.919523 -1.38521 21
348 1 -2.62129 -1.38359 0.908803 20
349 1 -1.46737 0.391615 2.52624 22
350 1 4.13774 -4.78396 -1.45524 20
351 1 4.29525 -5.02721 1.80342 16
352 1 0.138338 -1.69125 -1.00681 24
353 1 4.22242 -0.212543 -1.34075 23
354 1 1.62771 0.366574 0.694594 20
355 1 3.06638 -2.46634 0.242481 20
356 1 0.323766 -2.54632 2.10385 21
357 1 4.11481 -0.233694 2.15832 19
358 1 1.21387 0.019422 4.06673 22
359 1 3.53843 -2.33471 4.41976 22
360 1 3.86495 0.904443 5.72974 20
361 2 -1.84806 -2.42376 -0.985708 21
362 2 -2.53011 0.701342 0.757034 20
363 2 -0.602016 -5.347 -1.45695 20
364 2 2.84832 -5.2097 0.143387 18
365 2 0.32879 0.175481 -0.555013 24
366 2 4.33724 -2.64723 -1.14845 20
367 2 1.20405 -2.92384 -0.123829 20
368 2 3.43968 -0.0826887 0.474792 20
369 2 0.685904 0.453839 2.31567 18
370 2 4.31407 -3.19969 1.76465 18
371 2 1.78402 -1.9037 3.64909 20
372 2 4.36532 -0.605866 4.17566 19
373 2 1.89047 0.719053 5.83602 21
374 1 -2.66581 4.32203 -5.76528 22
375 1 -1.61728 6.43982 -4.05733 19
376 1 -2.78081 3.38029 -2.82721 21
377 1 2.20846 2.87541 -9.20525 22
378 1 -0.0527365 3.28217 -7.79822 21
379 1 5.51494 7.68938 -7.96181 19
380 1 0.729909 5.9029 -5.74322 18
381 1 2.70668 3.3971 -6.06223 21
382 1 0.0462904 3.46008 -4.19639 25
383 1 3.71672 6.4028 -4.22334 19
384 1 1.12743 6.28927 -2.48933 20
385 1 3.25822 3.02711 -2.88581 20
386 1 0.0453453 9.84757 -5.72926 14
387 1 3.19521 8.87548 -2.67763 21
388 2 -2.19621 2.93415 -4.62924 21
389 2 -2.8254 5.55733 -2.81944 19
390 2 3.45795 3.33981 -7.90522 21
391 2 0.652816 2.70559 -5.82281 21
392 2 2.75037 5.38453 -5.58892 18
393 2 -0.142127 5.46081 -3.75464 19
394 2 3.82501 2.66827 -4.68563 20
395 2 0.943273 2.3867 -2.90828 22
396 2 2.86054 5.76127 -2.5344 21
397 2 3.57149 8.29973 -4.83689 21
398 2 1.10585 8.27562 -2.11906 21
399 1 -1.66414 5.74218 -0.839585 20
400 1 -2.35555 2.63804 0.719806 20
401 1 0.587658 3.40224 -1.09807 22
402 1 3.8828 5.95671 -0.993299 21
403 1 1.32836 6.04965 0.946939 21
404 1 3.42142 3.13571 0.440686 22
405 1 0.62362 2.63111 2.34468 21
406 1 4.45148 6.07124 2.19899 20
407 1 1.50585 5.26218 4.28667 22
408 1 3.7394 3.55845 3.8364 20
409 1 1.10367 2.57642 5.89966 18
410 1 0.953465 8.98746 -0.369758 21
411 1 3.37986 8.9841 1.15582 19
412 2 -1.34162 2.68898 -0.967078 19
413 2 -2.32342 4.55413 0.697194 23
414 2 -1.4606 2.49574 2.43891 19
415 2 0.559118 5.33898 -0.801751 21
416 2 4.07954 3.12014 -1.29291 21
417 2 1.31119 2.56127 0.626888 18
418 2 3.25928 5.59628 0.740963 22
419 2 -0.2558 5.54682 2.93017 19
420 2 4.11383 2.22141 2.3006 21
421 2 1.74942 3.15013 3.95566 19
422 2 3.27266 5.74927 3.71767 21
423 2 4.84892 2.94603 5.23856 22
424 2 3.81912 8.76853 -0.833933 21
425 2 1.55342 8.03045 1.41806 20
426 2 4.19296 8.39962 2.70749 19
427 1 6.77272 -5.61362 -3.6059 19
428 1 6.35711 -2.51109 -7.99208 22
429 1 7.06444 0.597889 -6.51808 23
430 1 9.16679 -1.65167 -6.83305 19
431 1 6.38111 -2.33444 -4.89736 21
432 1 9.95158 0.92342 -4.88069 20
433 1 6.89063 0.0624476 -3.23416 22
434 1 9.10936 -1.57483 -3.22756 20
435 2 6.5883 -4.23752 -4.83784 18
436 2 5.93145 1.24462 -7.97804 21
437 2 7.16362 -1.48905 -6.42183 20
438 2 8.78247 1.27914 -6.45127 20
439 2 6.04314 0.879253 -4.79323 22
440 2 9.37261 -2.46885 -5.19168 20
441 2 7.09026 -1.99136 -3.24747 22
442 2 8.83155 0.465462 -3.43232 22
443 2 11.8173 1.13022 -5.0304 15
444 1 6.26368 -3.07143 -1.61165 24
445 1 9.57296 0.287366 -1.30321 22
446 1 6.74699 -0.292037 0.269447 22
447 1 8.94794 -2.46434 -0.307187 18
448 1 6.39869 -3.07302 1.68607 18
449 1 9.45382 0.0344934 2.11991 20
450 1 6.32384 -0.497298 4.02449 22
451 1 8.9274 -2.26804 3.3313 20
452 2 6.47683 -5.22737 -1.73151 20
453 2 6.2774 -5.2163 1.6961 18
454 2 6.1817 0.474776 -1.44846 23
455 2 9.89214 -2.63772 -1.92213 20
456 2 6.96894 -2.31373 0.0093305 20
457 2 8.69582 -0.0233753 0.377373 20
458 2 6.31873 0.0521108 2.02481 21
459 2 6.98622 -2.49132 3.67892 22
460 2 9.89176 -0.789303 3.87281 17
461 2 7.37799 0.638071 5.48013 21
462 2 12.2396 2.54272 0.0502359 22
463 1 5.40161 3.33518 -7.70581 20
464 1 6.74028 5.80204 -6.21503 18
465 1 8.40402 3.21367 -6.329 17
466 1 5.90071 2.89356 -4.49534 21
467 1 10.028 5.37279 -4.65639 21
468 1 6.83985 5.21454 -2.68259 21
469 1 8.83341 2.54871 -3.06228 23
470 1 5.63273 8.21209 -4.60795 22
471 1 12.1701 2.8322 -4.4871 14
472 2 5.39726 5.69009 -7.89275 15
473 2 6.64124 3.8581 -6.09227 20
474 2 8.74979 5.44902 -6.21741 16
475 2 5.89844 6.44959 -3.80202 20
476 2 10.0496 3.28393 -4.4939 18
477 2 6.88671 3.25492 -2.97743 23
478 2 8.63857 6.21017 -3.41213 20
479 2 6.32326 9.07051 -2.87692 23
480 1 6.08168 2.34898 -1.35537 22
481 1 9.59549 5.81787 -1.58675 24
482 1 6.90537 5.00396 0.520609 21
483 1 8.41966 2.86326 0.180549 22
484 1 5.96275 2.06854 2.37058 21
485 1 9.6055 5.84233 1.76011 21
486 1 6.77337 5.231 3.73219 22
487 1 8.74001 2.96093 3.65967 19
488 1 6.58618 2.59859 5.67245 20
489 1 5.84621 8.30234 -0.829296 22
490 1 6.06241 8.73614 2.45045 22
491 1 11.3563 3.2913 -1.69301 24
492 2 5.75394 5.9445 -0.947993 22
493 2 9.45149 2.30827 -1.31674 22
494 2 6.36432 3.18779 0.745318 22
495 2 8.85417 4.81258 -0.0817117 23
496 2 6.35862 6.13134 1.92339 21
497 2 9.5515 2.09873 1.64046 22
498 2 6.78392 3.2158 3.72383 20
499 2 8.75254 5.0636 3.82754 20
500 2 6.72448 9.14311 0.53786 17
