ITEM: TIMESTEP
30000
ITEM: NUMBER OF ATOMS
2000
ITEM: BOX BOUNDS pp pp pp
-30.0 30.0
-30.0 30.0
-30.0 30.0
ITEM: ATOMS id type x y z Coordination
1 1 -10.9885 5.90323 -8.26104 19
2 1 -3.70586 -12.2145 -8.33147 14
3 1 2.97856 13.9405 11.4643 15
4 1 6.01599 -10.7289 5.16103 19
5 1 -13.4883 6.81885 -2.72629 18
6 1 7.57665 -2.05515 -9.31538 17
7 1 -12.2452 6.96196 -5.41979 18
8 1 -4.64441 -2.73614 9.76037 18
9 1 -7.32137 1.80524 -8.43253 19
10 1 -10.8177 -5.356 2.76703 20
11 1 11.8691 4.07406 -10.3654 16
12 1 0.445746 -13.4427 -4.72327 16
13 1 -18.6946 -8.91411 3.93645 7
14 1 0.48464 7.38053 15.8583 17
15 1 -0.655612 4.85073 7.70376 19
16 1 4.34912 11.71 -10.2373 16
17 1 0.779657 8.79177 13.1405 23
18 1 -7.31739 -2.0497 -12.8471 15
19 1 -16.8829 -0.913997 10.9073 8
20 1 12.6801 1.3836 2.14339 20
21 1 0.922974 7.35346 -13.7059 18
22 1 6.51795 9.75542 -9.48623 17
23 1 11.7425 5.41306 10.9241 21
24 1 -14.8602 6.96105 -6.4994 11
25 1 -2.23239 -2.09678 -8.32894 21
26 1 -13.067 9.3583 6.68782 13
27 1 5.92961 -13.9324 6.12548 10
28 1 1.04696 -6.94694 -9.27916 20
29 1 9.53374 -10.3422 0.983879 18
30 1 -8.24385 -12.8427 -4.02865 15
31 1 -15.1186 -3.56711 10.7512 12
32 1 -1.31705 -10.6711 -9.40114 20
33 1 7.93705 -7.29505 -9.05401 17
34 1 -5.59685 8.39911 -14.9526 9
35 1 4.21969 3.41175 16.0561 19
36 1 -2.58072 -12.1504 5.37627 21
37 1 3.85149 -7.22117 10.6403 19
38 1 -10.1195 -0.561174 9.34014 20
39 1 -15.51 4.29535 5.38918 11
40 1 -10.7055 3.63392 -0.568586 21
41 1 -6.47884 12.9137 2.70034 20
42 1 1.21828 -10.0341 -10.1616 21
43 1 2.51836 3.21862 -11.5456 19
44 1 4.87605 -1.38865 -4.46464 20
45 1 -0.0277082 -5.81122 15.5931 10
46 1 -11.5358 7.93487 -0.195312 22
47 1 4.16279 12.3066 -7.43616 16
48 1 -1.12292 15.0426 12.1536 9
49 1 -8.62985 10.9515 -6.74142 17
50 1 -1.77475 15.1422 -1.6036 14
51 1 0.603738 -13.0453 4.55892 19
52 1 5.52663 -6.07221 -3.26261 19
53 1 3.81433 -10.1897 -12.0783 14
54 1 -6.73747 6.50503 13.4882 15
55 1 -15.6124 -4.13624 -7.24394 10
56 1 7.19753 -1.7272 4.67829 21
57 1 -7.90697 14.6912 -5.10766 17
58 1 -12.213 -9.80447 6.02905 16
59 1 -6.78749 16.6566 9.66759 11
60 1 -14.016 6.03562 -9.14066 10
61 1 -5.88248 11.3343 12.8087 11
62 1 -5.26306 -6.45693 13.5204 14
63 1 2.38458 4.95461 8.73932 23
64 1 6.91782 -15.4017 -1.71788 11
65 1 3.27684 13.6929 8.5415 19
66 1 -11.9928 4.29125 -10.3519 14
67 1 -13.3489 2.92976 -8.09919 16
68 1 4.17336 8.91604 12.5418 17
69 1 15.8234 -1.61322 -10.7784 9
70 1 9.10559 -10.2243 4.1375 13
71 1 -16.4455 -0.824487 5.20098 12
72 1 5.89719 18.7067 2.17181 11
73 1 2.67322 -0.858276 13.0568 21
74 1 -14.3234 -11.4003 1.45751 14
75 1 -16.8947 -1.57717 1.12608 20
76 1 10.1113 2.73545 6.04217 19
77 1 -6.62735 14.4635 7.98534 19
78 1 5.10616 -0.864122 7.31303 21
79 1 -1.45062 -8.44276 -11.8351 17
80 1 -12.9636 8.70541 10.2784 12
81 1 -9.83227 7.14058 -2.5996 19
82 1 -1.65517 10.2945 -6.48502 16
83 1 7.21923 -2.86719 -2.75082 22
84 1 11.2622 10.4294 -10.4646 8
85 1 13.3887 -7.27447 4.38881 8
86 1 3.62517 -10.1066 10.984 15
87 1 0.173022 16.9504 -4.64966 13
88 1 -10.3571 10.0604 8.55457 18
89 1 -11.3741 -1.46666 15.2437 13
90 1 -4.46863 7.10306 5.07267 22
91 1 -8.0774 -6.57849 6.73629 20
92 1 11.2889 -6.34637 -3.65286 18
93 1 -9.30282 3.87929 7.4851 22
94 1 -7.18092 -15.4483 6.84512 18
95 1 11.6884 -5.69079 -7.66287 11
96 1 5.2073 -1.24631 -11.2765 19
97 1 -5.50736 -0.179245 -15.1735 10
98 1 -3.62153 15.2279 3.38973 17
99 1 -11.444 4.66139 -3.21504 21
100 1 2.45504 11.8127 13.5407 22
101 1 1.24556 16.6536 -7.74882 14
102 1 -11.0109 13.75 -1.57578 15
103 1 1.25617 10.4503 -0.389305 20
104 1 -6.16407 -6.73346 3.49329 21
105 1 14.3023 2.63877 13.6373 7
106 1 -1.0916 -4.71343 -9.31374 19
107 1 -0.254097 -0.802228 -10.8872 22
108 1 -4.20758 5.51617 7.20719 20
109 1 1.49451 -3.64292 16.1707 12
110 1 -11.2064 -4.73474 -3.72277 16
111 1 -5.71972 -7.96535 -3.97421 20
112 1 7.41528 -8.44659 2.11731 19
113 1 -2.40652 8.69536 3.58345 20
114 1 8.72275 3.54736 -12.7055 16
115 1 0.424455 19.1286 0.763668 13
116 1 -9.50738 -9.34814 7.59945 20
117 1 -8.65907 -12.6665 7.24226 21
118 1 2.82669 -12.7886 -9.93126 13
119 1 4.8049 4.75095 -5.07856 21
120 1 9.37186 -10.3101 -5.20252 14
121 1 -6.02709 -14.0154 9.59574 16
122 1 -16.5153 -10.0617 -1.2919 12
123 1 14.872 3.93775 7.1944 13
124 1 16.233 -3.86339 -5.35912 8
125 1 -17.8183 -3.44424 3.1319 15
126 1 8.7487 8.51642 5.63969 18
127 1 16.9668 7.06057 7.50876 11
128 1 -2.07656 -5.58864 13.1242 12
129 1 -2.74011 10.5258 10.0294 16
130 1 -7.33796 17.4156 0.156793 14
131 1 -1.08343 -5.80697 -12.7381 17
132 1 5.37072 -12.7599 -6.21283 18
133 1 2.96964 14.5689 -9.51667 14
134 1 7.32772 -5.24065 13.1345 12
135 1 -0.176805 2.60485 -16.8006 10
136 1 -1.20894 8.67578 -1.87373 19
137 1 11.2759 -0.794166 -5.22827 18
138 1 -16.1915 4.95032 -3.59758 14
139 1 -9.74712 16.6292 3.00563 14
140 1 9.804 0.00146661 -8.41263 21
141 1 5.60457 -6.23429 7.41402 20
142 1 -7.72694 2.81634 -5.02242 19
143 1 -9.5438 15.3921 7.60084 13
144 1 15.9379 7.16551 -3.1281 12
145 1 8.17584 10.6571 -0.643383 16
146 1 -7.79172 18.8993 3.77108 13
147 1 10.2847 6.58804 3.9462 15
148 1 -3.94332 17.0319 -0.820118 15
149 1 0.775655 12.9745 -7.63998 16
150 1 -1.78041 4.87084 -14.2017 18
151 1 -13.0308 -7.63376 2.12137 17
152 1 -15.1936 7.61304 -1.01847 15
153 1 -4.48894 -2.70522 -13.5245 14
154 1 0.825237 -10.708 -12.6671 16
155 1 9.53205 14.9727 5.58216 11
156 1 0.61553 18.5327 3.91676 15
157 1 -12.5259 0.916877 -6.41639 18
158 1 -9.52361 10.0712 -1.88608 18
159 1 17.3314 4.65287 2.34096 11
160 1 -7.94441 7.55359 -13.1716 15
161 1 5.68233 3.53094 19.479 11
162 1 3.36684 19.1676 0.601809 12
163 1 0.600461 7.82564 7.9065 22
164 1 3.36848 -5.03532 -15.7146 16
165 1 -3.5172 9.8953 6.02318 20
166 1 -0.628769 12.6256 -4.62087 14
167 1 4.81181 -3.98353 13.492 18
168 1 -9.96858 -7.94337 1.56816 19
169 1 -1.69636 -11.9071 -14.3194 6
170 1 -10.4351 13.4174 -10.5541 5
171 1 -4.87532 -10.0433 3.40255 21
172 1 1.1606 -18.1949 -1.14875 11
173 1 2.26129 11.7978 -3.75466 16
174 1 -11.1223 0.368482 12.6375 17
175 1 10.9436 6.73855 -3.60931 15
176 1 -3.22727 0.455907 17.4569 11
177 1 -1.65549 -8.87132 13.818 12
178 1 -17.2236 5.43382 -0.241564 10
179 1 -2.34317 19.4555 5.53521 14
180 1 3.76387 7.90032 8.38503 19
181 1 10.7121 8.22532 16.1512 10
182 1 -7.49256 17.6265 6.80525 14
183 1 13.77 -4.23542 -9.19839 15
184 1 -8.09435 13.3058 5.61074 23
185 1 -5.54908 4.00981 -7.41831 22
186 1 14.1797 -5.28441 -0.677242 11
187 1 -10.6211 -3.70867 10.2592 18
188 1 -17.6038 0.667824 3.13077 11
189 1 -18.5678 -5.2657 5.70027 9
190 1 10.2952 3.62552 12.5074 20
191 1 -14.0901 4.13298 -0.540653 23
192 1 0.845089 -14.6573 1.19387 19
193 1 3.93774 -8.55776 -3.99585 20
194 1 -3.39142 12.0992 2.98443 22
195 1 2.38194 11.1507 7.63475 20
196 1 -10.4113 2.3161 -9.13027 18
197 1 -5.89541 12.4335 -4.75221 15
198 1 -16.0912 -7.51151 -4.02329 12
199 1 -12.2168 -4.04452 13.1144 16
200 1 -0.567845 -9.47926 6.6919 20
201 1 2.62002 -10.8351 6.85133 23
202 1 -9.14027 10.0877 5.68135 17
203 1 13.7318 7.63737 2.55402 21
204 1 7.09336 4.06341 -6.56692 19
205 1 -9.91417 -3.65927 -11.7038 13
206 1 1.74963 0.669509 10.376 20
207 1 7.74133 -13.3234 3.26997 11
208 1 0.938074 7.74913 -10.793 16
209 1 1.98625 -7.26677 -12.4381 19
210 1 8.68903 9.36716 -7.44694 15
211 1 -0.336395 10.0121 -12.6156 14
212 1 -7.58146 -2.68162 -6.24323 21
213 1 -1.84866 16.5663 -7.096 13
214 1 -13.2954 -5.5772 9.94088 15
215 1 4.96645 18.6815 -5.9893 10
216 1 -3.89315 1.79043 15.073 16
217 1 -8.53479 15.3218 -2.41234 15
218 1 10.2541 -0.966094 9.31635 17
219 1 -4.33374 -6.24942 -11.7005 16
220 1 -2.02183 10.7792 -3.07829 18
221 1 2.78754 1.779 -14.7774 17
222 1 -5.86618 -12.4714 5.96203 22
223 1 -7.79355 7.68112 9.77347 15
224 1 -3.91561 5.28719 12.9918 18
225 1 -1.90688 -7.55775 -8.41421 21
226 1 -9.05939 -13.3952 -0.678661 14
227 1 8.76767 -11.723 -2.22568 13
228 1 11.0321 10.0113 13.0035 12
229 1 9.42214 14.0523 -8.35511 12
230 1 -3.69426 8.18613 -5.84 19
231 1 -9.12224 4.46919 5.16539 19
232 1 -9.38167 12.4983 -4.19315 20
233 1 -1.07108 7.62964 10.7047 20
234 1 1.50675 -15.9377 4.20754 14
235 1 11.4916 0.965767 -2.60576 19
236 1 2.70598 6.84624 5.40515 19
237 1 -12.4967 11.6138 3.97959 12
238 1 -16.1697 -7.07339 -1.03868 15
239 1 6.50876 6.66348 -11.2204 19
240 1 1.04287 -4.22646 13.0077 20
241 1 9.00219 8.46363 -11.9368 13
242 1 1.63253 -9.22074 -1.35194 20
243 1 -3.974 -0.220161 -10.7135 21
244 1 -5.6913 -17.3684 8.68017 11
245 1 14.0829 -1.27597 -5.31307 12
246 1 -7.32358 -1.00748 8.78132 17
247 1 5.44669 -14.2969 0.939209 11
248 1 -12.701 -8.22144 -8.79965 14
249 1 1.42571 15.3903 0.0570358 18
250 1 5.59298 -3.01171 -16.624 10
251 1 1.33288 2.15223 19.0169 8
252 1 14.6756 4.84142 3.51866 21
253 1 13.8677 -3.40152 -11.6794 12
254 1 -8.06654 -0.881604 -9.76098 18
255 1 -12.4594 0.450656 -10.4033 12
256 1 -9.04722 -12.0341 10.9426 14
257 1 11.0152 2.81069 15.5487 13
258 1 3.79069 -3.82491 7.60724 19
259 1 -9.09708 -9.37214 -9.87694 11
260 1 4.73046 -8.80291 7.92559 21
261 1 -2.56933 8.36961 -10.6095 16
262 1 5.95489 11.4481 2.98755 17
263 1 -8.10678 -5.4985 0.929676 22
264 1 -4.06813 15.8515 9.44001 13
265 1 -9.7447 -6.98474 10.3297 17
266 1 -15.6771 1.64208 -5.37103 12
267 1 -6.10137 -3.89654 -11.178 19
268 1 -3.00877 5.39709 -11.2665 21
269 1 -5.96047 -11.0659 -4.87484 15
270 1 -2.68462 -8.4945 0.915734 19
271 1 5.04533 -6.10126 -12.4014 18
272 1 12.5185 1.49372 -9.64221 18
273 1 9.86905 3.7196 3.08397 20
274 1 -8.31915 -6.07622 12.9857 16
275 1 -7.96528 -8.15769 -0.823204 21
276 1 4.6893 6.19444 17.2854 10
277 1 -7.08358 -12.4258 3.75347 20
278 1 -3.26734 -12.5858 -0.82297 19
279 1 -2.34862 19.5184 -0.842012 10
280 1 9.57762 -2.37939 -14.1685 16
281 1 -7.89059 5.03327 -13.9221 12
282 1 -13.9733 -1.61553 13.3364 11
283 1 5.43332 12.6046 13.6176 12
284 1 2.60232 -11.2755 -3.70893 16
285 1 -8.49652 -11.4468 -6.81684 14
286 1 -12.9438 8.66628 -7.64218 14
287 1 15.7137 9.68562 10.0059 7
288 1 -7.65668 8.97293 -4.60296 17
289 1 -0.952436 7.02113 -7.94403 17
290 1 8.24995 -14.9709 -7.86236 8
291 1 -9.07071 19.4239 1.14798 8
292 1 -0.236323 11.1772 2.6295 19
293 1 11.3064 -1.00465 4.33829 16
294 1 -12.088 -1.31736 4.50271 22
295 1 -7.30279 -5.14814 9.18001 17
296 1 -7.85309 7.93792 5.51187 20
297 1 2.03415 -0.678227 -12.1778 19
298 1 17.0047 9.38508 -1.25092 12
299 1 4.54017 -10.2314 -1.5052 18
300 1 -3.48748 -5.70328 10.1145 15
301 1 -15.5779 -5.30362 4.65757 14
302 1 -2.0491 -19.4478 -1.60119 5
303 1 -0.72898 10.6711 15.3367 12
304 1 -8.09786 9.02102 13.936 11
305 1 -17.4374 -0.233056 8.23561 7
306 1 -14.7743 -9.17305 3.97682 16
307 1 11.3944 -4.69928 -1.21482 20
308 1 -12.8017 -8.4262 9.58919 16
309 1 11.0337 -5.31096 -12.8111 11
310 1 10.404 -8.61659 -7.09563 16
311 1 2.23574 19.0436 -5.76455 12
312 1 -10.5269 16.0017 -4.34431 9
313 1 8.27065 11.0987 14.286 9
314 1 -11.0271 0.467633 1.57874 20
315 1 7.51775 -8.28708 -3.5985 17
316 1 -8.05765 10.7661 1.09463 18
317 1 -4.33442 7.86452 11.0983 18
318 1 2.11125 -12.3478 9.95996 13
319 1 12.0007 -6.54038 1.39752 18
320 1 -1.97492 8.11644 7.49888 19
321 1 -8.28848 -4.98444 -3.18359 23
322 1 -3.48119 -2.0166 15.4442 16
323 1 -1.34218 13.5465 4.97941 20
324 1 10.044 7.17872 13.4338 18
325 1 -6.02077 16.5223 -3.34937 13
326 1 3.11328 -1.61203 -15.0163 19
327 1 6.57813 -12.8867 -10.1989 11
328 1 -4.78592 2.65208 11.9674 17
329 1 -13.7768 1.56115 5.43647 16
330 1 -5.517 -1.08492 -8.35725 19
331 1 -5.44921 8.52676 2.04792 20
332 1 12.3994 -2.53907 9.45875 11
333 1 -16.0761 -8.89421 1.59905 18
334 1 7.40624 -9.83162 7.49187 12
335 1 -11.6244 -10.6158 11.8624 10
336 1 -14.47 6.53201 4.61358 15
337 1 0.655652 -7.37274 11.9183 19
338 1 2.01135 -11.6572 -7.48501 19
339 1 0.11564 0.885708 -7.9621 21
340 1 13.0935 -0.57421 -13.4955 9
341 1 -3.24373 16.3348 5.90063 20
342 1 -12.8518 1.16519 -0.920147 22
343 1 6.18942 -4.69391 -9.63031 14
344 1 11.8476 2.91971 -13.4847 10
345 1 -6.85742 -15.4235 -2.58582 10
346 1 -13.3351 -9.01048 -3.11977 16
347 1 -4.8911 -9.67722 -1.01515 21
348 1 7.71311 6.01402 18.243 12
349 1 11.289 3.82786 -4.45464 20
350 1 -6.82195 7.61481 -7.6211 21
351 1 8.71558 15.6539 -3.21536 15
352 1 -15.038 -2.17137 -4.5752 17
353 1 -7.63648 5.81476 8.01769 20
354 1 -7.02685 15.8797 3.99114 18
355 1 -6.27988 2.53465 8.16761 18
356 1 8.09798 5.08071 15.3797 21
357 1 9.28024 1.7152 -5.55312 22
358 1 4.60515 -1.54867 15.8993 15
359 1 10.0938 0.546701 -11.6005 21
360 1 -9.14161 -10.8694 1.18188 17
361 1 0.553428 -7.981 -4.25028 19
362 1 -0.764339 6.97149 4.97385 21
363 1 -10.9607 3.17284 -5.43756 20
364 1 8.07116 -14.1351 -4.00796 13
365 1 14.3675 -0.134674 10.9092 7
366 1 -10.4923 -1.12128 -8.75577 16
367 1 -12.5953 -9.60273 -0.21778 17
368 1 -11.3491 -7.27433 12.2906 14
369 1 -4.9905 11.4564 0.558983 19
370 1 -10.4774 -7.42299 -1.65667 19
371 1 3.71468 12.463 16.7163 8
372 1 -8.44409 4.33423 -2.80826 23
373 1 -2.46286 13.6777 -7.18157 17
374 1 2.89265 10.7242 2.62459 19
375 1 -16.127 -5.0628 0.532015 19
376 1 -4.25583 -4.36495 -8.77083 20
377 1 -11.255 1.20276 6.77161 18
378 1 -14.284 9.51246 -4.22022 11
379 1 4.04765 -7.70795 4.37769 18
380 1 -6.55675 -12.4881 -1.56118 16
381 1 9.22008 14.6006 8.49137 9
382 1 1.1092 11.5469 -10.0 15
383 1 -11.4874 6.8933 -11.6444 11
384 1 -0.524105 15.0242 -9.98151 14
385 1 -8.53233 5.46545 -5.55246 22
386 1 -1.77126 -9.48951 3.97111 19
387 1 13.3825 2.27893 10.3863 12
388 1 -3.87149 9.96134 -12.255 16
389 1 -0.0164275 2.23236 22.4599 2
390 1 -19.1109 0.202874 -0.607954 9
391 1 -4.41022 -0.266387 8.39238 18
392 1 -8.26417 -7.86053 4.16118 19
393 1 2.97381 -5.14077 -9.00099 18
394 1 -10.8952 2.11462 4.30138 21
395 1 -13.9431 0.817629 9.67053 13
396 1 -14.3826 6.46854 8.10852 13
397 1 -2.00143 -6.2746 7.01613 19
398 1 -8.23093 1.52103 -14.2785 13
399 1 9.90505 -7.80131 -11.1258 12
400 1 -3.94472 -9.3959 -7.08858 21
401 1 -7.90404 -3.34824 11.0822 16
402 1 -6.32247 5.78424 -10.7597 21
403 1 4.5438 -12.0201 7.78714 15
404 1 6.34525 7.77949 -4.91535 16
405 1 -10.805 14.3724 4.39179 13
406 1 -10.186 -4.72167 14.9496 14
407 1 -12.4912 -6.81243 -6.19149 18
408 1 -11.2575 -6.38384 7.98149 18
409 1 7.47247 -2.28051 13.9212 12
410 1 3.45323 6.13142 -10.6686 19
411 1 7.04672 -7.37758 4.99693 22
412 1 15.6788 11.0522 -4.19457 9
413 1 1.93333 -9.73171 13.8117 9
414 1 -3.62914 13.9447 0.656081 16
415 1 6.92855 -3.15143 7.13316 21
416 1 -2.10357 -11.7049 -3.59361 17
417 1 -1.28843 3.48976 17.0804 13
418 1 -1.57949 17.7347 7.67627 13
419 1 -13.8684 -9.72436 -5.88873 12
420 1 9.41186 15.1895 -0.4053 16
421 1 2.19429 6.73276 10.9432 23
422 1 -8.99847 4.74952 10.8813 15
423 1 -8.85967 -7.75239 -4.09949 18
424 1 -11.0787 2.23581 10.3983 17
425 1 -9.50791 -5.82132 -6.25593 19
426 1 -5.607 8.7078 7.78315 19
427 1 -0.299696 -10.0476 -6.6462 17
428 1 -6.41454 -10.5489 -9.57913 14
429 1 -9.1228 -11.0928 4.80764 19
430 1 -8.15717 -4.25105 4.04385 22
431 1 12.3497 0.376717 7.5339 18
432 1 -2.64014 -1.32545 12.1987 16
433 1 -7.44261 10.0602 -9.29217 22
434 1 8.30536 4.37789 -0.459109 20
435 1 -3.84737 -12.8896 3.07724 21
436 1 2.74355 21.0018 2.91065 9
437 1 -0.18388 4.78706 -11.7994 18
438 1 1.43617 9.96013 10.2592 19
439 1 -16.876 -0.674554 -2.94054 15
440 1 0.749497 19.1276 -2.31284 13
441 1 6.00317 17.0428 -3.86924 15
442 1 -6.31294 -5.37324 -5.86721 23
443 1 4.35483 1.6852 14.1784 17
444 1 3.83375 -17.2715 -7.51811 6
445 1 -0.588523 2.07993 -10.4112 19
446 1 5.97144 -11.434 1.59053 19
447 1 -11.6297 10.9284 0.849984 17
448 1 6.39567 9.93577 11.5406 19
449 1 11.0674 9.55702 -1.18607 18
450 1 4.81767 10.506 -0.149716 21
451 1 -9.72552 8.398 -7.35526 19
452 1 4.35517 1.0955 -13.086 19
453 1 0.369793 -8.70484 1.22559 22
454 1 -14.6617 -1.49525 -1.21269 18
455 1 3.42076 17.7503 3.59408 16
456 1 -5.35223 8.50599 -10.8567 21
457 1 13.4252 7.5851 -0.358389 17
458 1 2.94077 16.132 -4.95471 17
459 1 8.67513 -4.7707 5.54212 19
460 1 14.5117 4.29161 -5.52904 15
461 1 -2.21404 -0.703623 -13.6071 21
462 1 0.148181 -12.4433 -0.898682 19
463 1 -2.97876 -15.9715 9.29408 12
464 1 1.5847 -8.93986 9.05812 20
465 1 -8.21997 4.9167 -8.94252 18
466 1 -7.0412 -10.8073 8.66297 20
467 1 -0.627952 -13.4373 -9.83935 16
468 1 6.87855 16.7911 4.7072 13
469 1 -4.14045 6.66262 -8.40017 23
470 1 7.29003 2.0634 15.2259 17
471 1 -13.135 6.5921 12.8037 10
472 1 -4.9483 -17.8109 5.10629 13
473 1 -16.0908 1.31427 0.140388 19
474 1 12.0759 -1.40095 -1.6842 17
475 1 9.33677 -3.03349 -0.570796 17
476 1 -7.19357 12.5272 -1.91343 18
477 1 4.03411 -6.07478 -6.27323 17
478 1 5.93811 5.89901 -8.11434 17
479 1 9.98576 -3.52527 -3.54967 20
480 1 -6.16465 -0.17516 15.7837 10
481 1 15.3692 11.089 0.577815 15
482 1 -2.83373 1.67896 -15.2436 12
483 1 6.95577 2.33071 -15.2463 13
484 1 -6.45511 -3.30626 6.22152 19
485 1 -5.46327 19.7695 1.18791 12
486 1 -6.78542 -8.67067 -12.2411 9
487 1 -15.0237 -2.70544 3.06129 17
488 1 0.340849 -8.94955 -14.811 11
489 1 -6.28203 -11.3604 11.4652 14
490 1 0.417908 8.6287 -4.87228 16
491 1 12.1865 4.89993 5.631 19
492 1 16.5709 7.77832 1.23382 15
493 1 -14.1331 -12.1381 -1.6073 10
494 1 -1.4934 -9.56814 -1.63347 18
495 1 0.894343 -2.89583 -17.361 10
496 1 -9.02912 12.6314 8.77786 19
497 1 0.890605 -1.76018 -8.07505 20
498 1 11.1661 -1.97358 1.00971 18
499 1 4.22483 17.6213 -8.89833 9
500 1 5.3174 -6.16814 2.07412 21
501 1 14.1965 6.81755 -6.32649 13
502 1 -0.27165 12.4529 12.949 15
503 1 -11.999 -2.60628 7.69502 18
504 1 5.1486 9.82871 6.01079 19
505 1 6.25582 0.956149 17.6693 13
506 1 9.51979 2.91362 -9.16823 21
507 1 -2.90824 -5.71442 -6.6869 18
508 1 -1.91233 1.48932 10.5221 20
509 1 8.22642 14.0985 2.98186 18
510 1 6.41682 10.0787 -5.56367 19
511 1 -4.00832 13.1003 -2.3623 13
512 1 -2.12837 10.3658 0.60976 22
513 1 9.3567 0.582131 13.1691 12
514 1 9.44167 0.825108 -14.6364 15
515 1 12.6047 -9.07899 -5.95005 11
516 1 13.1718 8.22591 10.8504 13
517 1 -17.3767 -7.02281 2.96409 16
518 1 -5.75624 13.1638 -8.0016 15
519 1 0.415109 3.6259 10.6495 22
520 1 -12.6809 3.64954 13.4502 11
521 1 -4.65517 15.573 -6.2431 15
522 1 2.56255 -11.6173 0.931035 19
523 1 6.55908 0.978325 -8.06161 22
524 1 -2.48998 17.0705 -3.75184 13
525 1 -7.76665 -4.05965 -8.6432 19
526 1 -0.637531 -16.9281 1.17599 17
527 1 -16.3648 -3.96651 -2.74042 15
528 1 -2.11243 12.7545 -11.3707 14
529 1 -3.59607 13.3383 11.2384 13
530 1 -13.9146 -7.39315 6.96573 17
531 1 8.59754 7.15627 -2.00789 18
532 1 2.40462 -8.39801 -6.9114 21
533 1 1.38112 -5.3616 9.88017 17
534 1 -10.4999 5.72148 2.9879 21
535 1 3.56913 7.02257 14.5129 19
536 1 4.31148 15.4878 -2.39314 17
537 1 8.59236 -5.99503 -2.49397 19
538 1 7.57735 11.9568 5.74387 16
539 1 -5.10832 5.83873 -15.3259 11
540 1 -4.52041 -11.5415 8.35977 20
541 1 2.71238 0.699238 -9.74881 24
542 1 4.7818 4.34798 -13.4445 16
543 1 1.56611 15.1482 3.81582 19
544 1 12.5344 9.52428 -4.91944 15
545 1 0.516283 -6.04559 -15.3819 13
546 1 -3.53116 -14.372 -3.44118 15
547 1 -11.1659 -6.89131 -10.5607 9
548 1 10.0595 1.79715 0.553088 16
549 1 11.7678 3.67952 -1.39352 19
550 1 9.37649 -4.39854 -10.7246 16
551 1 11.0901 11.8041 9.56186 15
552 1 6.69964 -11.1617 -3.72332 17
553 1 1.61216 4.94035 -15.0565 15
554 1 8.79556 17.0291 2.18188 11
555 1 -8.97884 3.37311 1.87871 22
556 1 7.28028 6.79871 12.7728 18
557 1 13.4581 9.74713 -8.01048 11
558 1 9.07167 0.538745 6.71851 19
559 1 10.6365 6.16199 -12.5 12
560 1 2.74481 4.7674 12.6537 19
561 1 12.2389 10.2788 7.65037 18
562 1 6.66898 -8.09319 10.465 15
563 1 15.174 13.4512 -2.16117 11
564 1 1.19479 2.39813 13.0555 19
565 1 13.1288 1.35871 -6.50813 22
566 1 8.24578 3.56057 8.31882 19
567 1 -3.77109 0.97379 -7.81744 22
568 1 15.1363 5.02162 0.119922 20
569 1 12.0009 -9.71792 2.31602 10
570 1 -11.4429 9.34498 12.6 9
571 1 9.54023 8.55625 10.5073 21
572 1 11.9771 5.32332 14.282 13
573 1 4.17623 12.4126 5.57614 22
574 1 -4.66744 12.1417 7.97314 18
575 1 10.3314 -1.99606 6.67016 19
576 1 -1.48765 -17.6323 4.61724 13
577 1 -8.58257 14.7209 0.761363 16
578 1 10.3947 14.8352 -5.83023 12
579 1 8.01162 -5.5281 -13.136 14
580 1 -0.0761508 12.2349 -1.19043 19
581 1 0.87815 -15.0414 -7.65918 12
582 1 6.55322 -9.50058 -14.2037 8
583 1 -11.2288 6.74076 8.1117 16
584 1 -4.11298 10.7992 -8.48678 16
585 1 -3.01458 -18.0171 7.24223 12
586 1 -5.07628 3.19461 -9.77247 20
587 1 -16.6081 2.3991 -2.44619 15
588 1 9.89768 -6.84202 3.44282 22
589 1 10.0036 12.1381 0.917262 19
590 1 -1.10557 -3.87533 10.3152 19
591 1 -11.8009 -2.65153 -5.86024 18
592 1 4.28119 -2.57631 -8.22561 17
593 1 -8.4096 -2.36529 16.4958 12
594 1 6.15311 9.90168 -12.329 12
595 1 7.05699 2.96659 11.3525 19
596 1 11.1046 7.19989 -7.08972 19
597 1 14.2329 10.7208 4.34052 17
598 1 4.82299 -10.5786 -8.66637 20
599 1 -6.73461 2.60822 14.306 13
600 1 14.522 -0.733313 3.4615 13
601 1 -6.83496 13.432 10.8311 15
602 1 5.76815 14.304 -9.00982 14
603 1 -11.4893 10.8362 -5.65973 17
604 1 11.9727 16.1091 1.22391 8
605 1 -9.61798 -13.8408 2.65166 18
606 1 14.5984 -4.18124 2.71722 11
607 1 6.85393 17.711 -0.818056 13
608 1 1.88617 -0.445927 16.6151 15
609 1 -13.3524 -4.7896 1.30364 16
610 1 -8.92911 0.705593 -5.81155 20
611 1 5.60585 4.36144 13.3639 19
612 1 -5.66633 -8.34638 11.0917 18
613 1 8.72385 11.6606 10.8629 15
614 1 -11.8434 14.6181 1.40969 10
615 1 7.18523 7.16366 8.18024 22
616 1 7.72661 5.12284 5.34526 19
617 1 -0.545955 6.11171 -16.7752 10
618 1 -12.2606 -1.82144 10.8649 18
619 1 7.3655 1.15121 -11.3075 20
620 1 12.732 -9.77109 -9.79151 9
621 1 4.9664 6.66977 10.9489 20
622 1 5.5102 4.36802 8.9943 20
623 1 -9.46148 0.652394 16.0245 12
624 1 12.1657 7.59735 7.88469 19
625 1 -0.0514051 -2.15634 14.3297 19
626 1 -0.875669 0.6332 15.3891 17
627 1 1.04774 -3.74678 -10.8998 20
628 1 -5.95399 4.75047 10.1439 20
629 1 3.59768 -3.22135 10.9246 18
630 1 -11.921 -12.6897 4.55732 10
631 1 10.2523 6.98879 0.832318 17
632 1 4.97088 -13.9695 -3.56547 18
633 1 11.1377 12.0347 -6.67057 16
634 1 12.1897 13.4986 7.14853 13
635 1 8.54246 -1.00193 -16.6985 9
636 1 4.08892 12.7897 -1.0064 17
637 1 12.2488 10.2884 1.58167 20
638 1 -12.4529 -13.9025 0.559118 7
639 1 -0.218594 -0.639337 -15.5519 17
640 1 -6.73515 8.91811 -0.342178 20
641 1 10.8562 -2.7601 -7.14969 18
642 1 8.17897 12.2408 -10.6072 12
643 1 9.15072 12.0275 -4.63694 18
644 1 -7.25471 5.68791 2.89263 24
645 1 8.20773 4.49597 -4.32747 21
646 1 10.5099 5.77104 17.2267 12
647 1 6.35529 0.438281 12.7205 19
648 1 -4.81376 -7.57901 8.23762 17
649 1 -9.71599 9.86847 -11.3447 14
650 1 -0.899142 21.1589 2.8502 10
651 1 9.5312 -10.4712 -10.1769 12
652 1 3.97388 2.87801 10.9619 25
653 1 7.88259 16.7637 -6.23401 10
654 1 4.66308 7.89553 2.18626 21
655 1 13.9873 -6.41113 -6.54335 11
656 1 7.28676 7.62924 16.1917 14
657 1 -16.2137 -5.18314 7.89849 10
658 1 2.54279 -14.2016 -2.12703 17
659 1 -0.179924 -2.90716 -13.1945 19
660 1 -9.32791 12.0018 3.08894 23
661 1 4.12372 15.6612 1.22344 19
662 1 -20.5043 -4.84454 1.16383 6
663 1 -1.62311 6.48979 14.9269 16
664 1 -6.69824 10.2865 -13.0352 13
665 1 -10.6241 11.2007 -8.87566 14
666 1 2.33729 -17.9292 1.54853 9
667 1 13.9835 10.1322 -2.13951 18
668 1 -9.70689 5.78828 14.1409 11
669 1 5.68393 -0.235698 -15.5132 16
670 1 0.0863349 -11.1659 11.6578 14
671 1 -0.45119 13.7803 1.69327 18
672 1 -5.41928 -9.32354 14.2632 10
673 1 -10.7299 -9.41866 -6.83276 17
674 1 -3.37185 -11.9919 -10.9828 12
675 1 -5.69354 -13.973 -5.74441 12
676 1 1.08114 14.6421 -2.58287 15
677 1 5.99293 -3.61729 -5.75201 16
678 1 0.456584 12.7508 10.0143 19
679 1 8.97811 -5.58379 -6.5227 14
680 1 3.4467 -12.5831 3.64333 16
681 1 1.30003 -7.18682 6.82386 20
682 1 14.1743 4.80848 -8.81485 13
683 1 3.79516 -16.5653 -1.4184 13
684 1 -13.1567 -4.20143 4.93397 16
685 1 -7.92137 -16.9425 3.72025 9
686 1 -8.61461 -10.4477 -2.57307 18
687 1 -9.35072 3.05843 13.318 17
688 1 -3.2085 -14.9363 0.420287 18
689 1 18.0002 5.85717 -0.697791 10
690 1 -4.79845 18.3561 3.9526 15
691 1 -12.7634 8.4711 2.79303 15
692 1 11.708 -3.94612 4.36257 14
693 1 -11.4181 -4.49487 -8.50328 18
694 1 5.30581 8.14348 -1.59549 23
695 1 15.4189 1.5157 -9.3758 8
696 1 5.9698 14.4587 7.11556 16
697 1 14.1037 4.84775 -2.77368 14
698 1 -14.1892 4.05765 -5.56202 17
699 1 -14.3247 -4.66941 -4.74906 16
700 1 2.36081 9.44973 15.6926 17
701 1 6.86648 3.93742 -10.3516 19
702 1 15.3482 13.2236 5.53088 8
703 1 0.628938 -1.68137 10.6213 16
704 1 -6.55509 -14.8013 1.37874 17
705 1 -8.95573 -15.364 9.4171 10
706 1 -5.50759 -5.90863 6.22247 21
707 1 9.0881 9.86793 7.84416 18
708 1 4.69903 -7.55915 -8.70781 18
709 1 -4.92021 9.95648 -3.21559 19
710 1 1.2486 8.3783 2.43701 19
711 1 -9.31856 -2.50924 2.33568 20
712 1 7.75821 6.72204 -14.4899 11
713 1 -0.989277 -15.3083 -2.30676 16
714 1 -0.835368 -15.4 6.8314 16
715 1 -1.26117 -14.448 3.45561 23
716 1 2.96205 6.74598 -6.80528 17
717 1 3.78175 18.57 -2.42946 15
718 1 -2.35373 2.46448 -12.2748 24
719 1 1.18384 4.32221 16.0074 16
720 1 -2.42282 7.9601 -14.2363 16
721 1 -9.92243 -0.678279 -12.2888 14
722 1 -11.8794 -2.12187 0.329645 17
723 1 5.04277 13.296 -4.74828 14
724 1 -1.89276 -3.96156 -15.8235 12
725 1 -10.543 -4.55156 -0.33332 20
726 1 7.44567 12.5203 -7.34397 19
727 1 10.0672 -7.86244 -0.411298 20
728 1 -2.57474 4.80098 10.3962 20
729 1 3.33214 -8.88215 1.60245 19
730 1 14.7491 -2.32035 0.386671 11
731 1 9.85094 -3.06713 11.8272 13
732 1 0.572012 10.7169 5.38012 18
733 1 -12.111 11.8883 10.5731 8
734 1 -9.28317 10.6813 10.8861 16
735 1 -3.55913 -14.7231 6.31896 23
736 1 6.85965 6.83351 0.0383612 18
737 1 5.29079 10.0459 15.4013 14
738 1 -18.4479 -3.43906 -0.617858 13
739 1 6.94092 -8.84115 -0.81353 20
740 1 -11.9992 10.748 -2.71686 12
741 1 -3.41087 -10.2924 12.467 11
742 1 4.41979 -0.326935 10.313 19
743 1 -1.33609 14.8146 8.56057 19
744 1 -1.2842 -11.6437 1.94016 20
745 1 -9.2991 -1.75505 -3.61227 19
746 1 8.48713 5.72184 10.6746 24
747 1 -12.3662 -0.298834 -3.51018 16
748 1 0.590129 13.9475 16.1557 6
749 1 6.52406 13.4395 0.236038 18
750 1 -11.9727 -9.96327 2.54407 18
751 1 -1.75147 -9.79659 9.83999 15
752 1 5.42798 -7.60218 13.1834 14
753 1 8.38522 -6.89196 8.28314 15
754 1 10.3308 11.4974 4.47618 17
755 1 0.105899 -5.89593 -6.22128 22
756 1 -1.85205 3.80436 -8.69429 21
757 1 -6.40058 -4.87477 15.6087 10
758 1 -2.66222 18.5262 2.13322 17
759 1 7.16651 8.99483 2.70543 15
760 1 3.49513 9.08437 -3.90608 19
761 1 -4.41587 8.59716 14.4199 11
762 1 5.9404 11.6969 8.44012 19
763 1 7.76223 -1.50492 -12.4887 20
764 1 -10.3882 -3.93866 5.9372 18
765 1 13.5639 2.37378 4.73734 18
766 1 3.87533 -0.247558 -6.7274 16
767 1 -2.00282 3.12469 13.4073 19
768 1 6.62881 -9.26582 -6.72928 18
769 1 4.14353 7.40782 -14.155 14
770 1 -2.68019 -8.08245 -4.56477 21
771 1 11.7218 7.49439 -10.1016 15
772 1 14.0883 1.01444 -0.859653 13
773 1 3.05588 -6.13693 13.4198 16
774 1 -6.1235 -7.16048 -8.88731 19
775 1 4.18587 13.9971 2.80471 19
776 1 -13.9115 3.62969 7.65798 14
777 1 9.51554 9.03819 -4.68406 18
778 1 16.1937 2.07921 4.68932 12
779 1 3.28661 -3.676 -12.6688 18
780 1 -6.64318 10.525 9.72348 21
781 1 14.3547 12.8498 8.81164 10
782 1 13.5803 12.7722 -5.61924 13
783 1 8.77676 5.75429 -8.70535 18
784 1 8.37407 -5.93404 0.939558 21
785 1 -12.5537 3.053 1.57626 19
786 1 12.415 9.06896 4.8824 19
787 1 -19.2761 -8.17614 0.210751 9
788 1 -10.3047 13.5778 -6.881 11
789 1 3.7315 1.92807 7.87067 22
790 1 -13.2256 -1.45244 -7.53808 13
791 1 -11.9248 4.41809 5.7745 22
792 1 -5.00982 5.75659 -5.37759 21
793 1 14.351 -6.95926 -10.7294 8
794 1 -16.0874 -7.76508 -7.31971 10
795 1 14.6808 -6.76662 -3.94966 11
796 1 -16.1052 6.29392 1.81504 11
797 1 -11.4748 -11.5238 -4.42205 11
798 1 14.4071 7.11327 5.73132 20
799 1 -5.33072 -12.2352 0.821308 17
800 1 8.92208 2.80121 18.133 11
801 1 9.54393 -4.49331 8.87922 15
802 1 9.01982 0.0721629 2.5245 21
803 1 -11.2358 7.75668 5.08917 18
804 1 1.31179 15.8725 8.98172 14
805 1 2.06305 10.0629 -6.47323 16
806 1 3.455 -8.40629 -14.6034 16
807 1 -6.0041 10.8043 4.27998 22
808 1 -18.389 -2.63523 7.67436 8
809 1 9.63853 12.828 -1.81383 17
810 1 1.15634 13.8019 6.797 22
811 1 14.5379 1.52248 -3.62104 12
812 1 6.36404 -5.33836 10.4125 24
813 1 -3.76804 14.8763 -9.30061 13
814 1 4.00048 8.90492 -8.52139 17
815 1 -9.14651 -1.71969 13.0516 20
816 1 14.6137 5.55102 9.34316 14
817 1 -2.4757 -3.49293 -11.9182 22
818 1 13.5644 13.243 2.08829 12
819 1 -12.8529 6.27324 1.17091 18
820 1 -6.58188 -9.27835 5.79998 23
821 1 3.11344 9.52277 -12.0182 15
822 1 6.92224 -2.41361 10.2742 20
823 1 -4.77439 -17.4816 -0.219536 9
824 1 -4.69369 13.334 5.30391 21
825 1 -15.9743 3.73376 2.34536 16
826 1 13.7132 -3.75838 -3.57188 17
827 1 -4.04855 -8.96113 -10.0116 20
828 1 -9.29646 8.46339 2.52631 24
829 1 11.9393 14.1456 -3.1543 13
830 1 -8.40779 -1.02301 5.77363 18
831 1 11.447 -2.1609 -10.6244 17
832 1 -7.6797 -8.78445 -6.82184 19
833 1 3.40613 -15.6502 -5.06452 14
834 1 -7.11224 11.0603 6.86264 21
835 1 8.53893 -13.0132 0.380922 11
836 1 -5.69423 12.7595 -11.0207 14
837 1 11.5688 4.30607 -7.24266 19
838 1 6.25219 4.93253 2.21627 21
839 1 -4.42872 -16.6805 2.67893 15
840 1 6.22277 -6.59534 -15.649 12
841 1 12.4925 4.53119 1.86412 23
842 1 0.250307 1.34592 -12.8106 22
843 1 -3.7753 -9.39127 6.71129 23
844 1 6.03733 11.1971 -2.78613 17
845 1 13.192 -1.33877 -8.33337 19
846 1 -10.4439 1.62529 -2.84406 25
847 1 -14.4764 4.33382 10.8441 10
848 1 3.90254 0.222609 19.1236 9
849 1 -11.8833 -7.02335 4.75307 21
850 1 5.47431 6.78595 5.5854 20
851 1 -1.29295 -12.7493 8.61144 17
852 1 2.61177 7.56796 -0.470292 20
853 1 -2.10979 8.73075 13.1348 19
854 1 -8.23141 1.21655 10.9906 18
855 1 -11.1393 12.2953 6.36207 16
856 1 8.61686 2.45785 -2.45145 19
857 1 -11.0671 -11.7047 8.52099 12
858 1 1.86935 -10.1191 4.10742 17
859 1 10.307 5.31299 7.86048 17
860 1 8.18311 -1.28998 -5.84188 17
861 1 6.7614 -9.69994 -11.0644 16
862 1 -6.26925 0.689472 -11.9871 17
863 1 -5.11158 3.17238 -12.7705 17
864 1 3.35534 15.8766 5.65694 17
865 1 -0.718749 -2.04313 17.7811 11
866 1 -6.68868 6.90274 -2.58877 19
867 1 -13.7715 3.07976 -3.10803 22
868 1 12.414 12.9024 -0.581877 20
869 1 -9.90131 -14.7802 5.79129 13
870 1 -1.08952 11.115 7.73509 21
871 1 15.3421 10.0471 7.3588 18
872 1 -14.8332 -6.14717 -9.55019 10
873 1 0.0913609 16.6239 5.81487 18
874 1 -5.97538 -3.30305 13.1542 16