ITEM: TIMESTEP
15000
ITEM: NUMBER OF ATOMS
2000
ITEM: BOX BOUNDS pp pp pp
-30.0 30.0
-30.0 30.0
-30.0 30.0
ITEM: ATOMS id type x y z Coordination
1 1 -9.83395 4.76941 -15.3061 13
2 1 -9.23253 -14.0174 -6.65118 12
3 1 1.51043 12.6613 14.7744 14
4 1 4.41691 -10.6526 8.34084 13
5 1 -10.6478 7.10309 -3.13441 21
6 1 10.8727 -7.62743 -11.8104 11
7 1 -12.3589 3.64031 -7.29987 23
8 1 -1.45327 -6.74619 9.67451 18
9 1 -6.78072 -1.71593 -10.3777 22
10 1 -13.019 -11.2924 6.27565 15
11 1 12.8582 5.71153 -9.2281 13
12 1 -7.78508 -10.9306 -2.17643 20
13 1 -16.2292 -9.67042 5.32089 11
14 1 -2.26728 2.34894 17.7959 10
15 1 1.70003 3.8522 8.27925 21
16 1 -4.53343 9.46745 -11.1139 16
17 1 1.24011 -1.50941 11.283 20
18 1 -7.41421 -2.61445 -16.148 12
19 1 -16.5578 -1.80969 10.2971 13
20 1 10.6621 5.24857 6.86069 19
21 1 3.24944 9.73546 -10.1668 19
22 1 -1.03805 8.93438 -16.5871 12
23 1 11.3436 3.75865 12.0395 15
24 1 -13.6507 1.52277 -8.94435 19
25 1 -11.2571 10.0839 10.1654 13
26 1 4.28921 -12.6767 5.67707 15
27 1 3.39654 -13.8124 -9.30866 15
28 1 6.71224 -12.2926 3.08583 17
29 1 -9.51346 -13.1574 -3.94636 19
30 1 -17.6404 -5.03734 8.39191 10
31 1 3.16871 -5.508 -10.9361 21
32 1 12.0775 -9.19698 -8.81057 8
33 1 -7.27145 9.95195 -15.9889 9
34 1 -0.393762 4.11176 12.3807 20
35 1 -2.0612 -11.4787 6.39639 22
36 1 5.59608 -5.88145 12.4019 15
37 1 -15.8015 -0.624017 -1.63704 18
38 1 -13.4833 1.95414 8.28568 22
39 1 -9.71791 -0.694196 -2.11975 20
40 1 -4.39175 12.0774 -3.15111 22
41 1 -4.11273 -15.0947 -10.206 12
42 1 4.21781 3.09596 -14.4909 16
43 1 3.86349 -3.04197 -11.7959 21
44 1 -8.8168 -4.05906 13.5073 11
45 1 -14.1575 6.15925 -2.60345 20
46 1 2.16817 15.4177 -10.7597 19
47 1 -1.69901 9.71209 7.17797 21
48 1 -9.72211 9.55293 -5.17503 23
49 1 -1.19005 12.9558 1.46206 20
50 1 0.619745 -12.6321 1.60459 21
51 1 5.60131 -6.45265 -6.0769 22
52 1 4.11478 -4.59793 -14.3911 20
53 1 -10.008 7.53934 13.8844 12
54 1 -13.0829 -3.29395 -5.75489 20
55 1 -3.78759 9.67312 -4.66049 21
56 1 -11.3287 -8.14272 10.7735 14
57 1 -5.60401 9.4102 12.0759 17
58 1 -13.8887 6.6892 -7.85879 13
59 1 -8.42149 8.61203 10.3515 18
60 1 -8.36277 -14.9963 9.21146 14
61 1 4.8983 3.92014 6.91 20
62 1 4.77343 -13.5711 -2.8489 19
63 1 5.60157 13.6326 15.3563 8
64 1 -12.3231 -0.258599 -11.2964 20
65 1 -10.9957 9.04566 -8.45182 13
66 1 3.41423 8.44958 10.816 19
67 1 11.9112 -6.20904 -8.78887 14
68 1 7.49258 -7.20463 7.71779 19
69 1 -18.9257 -2.25366 3.24536 13
70 1 5.51918 16.1751 3.44391 15
71 1 4.06607 -3.78496 14.5028 8
72 1 -8.2682 -8.85536 5.16555 20
73 1 -12.5911 -1.0817 -3.54758 20
74 1 9.36465 0.871969 8.48299 21
75 1 -2.92762 12.45 8.06772 19
76 1 4.58082 -1.20811 6.60863 22
77 1 -2.89305 -7.22427 -7.08094 21
78 1 -13.4668 8.62563 8.9652 12
79 1 -9.14945 12.2743 -3.79345 16
80 1 -5.0227 6.93667 -9.57636 23
81 1 8.04378 -1.17263 -4.81229 21
82 1 7.70764 15.5562 -8.16787 13
83 1 6.43746 -3.90177 2.9733 19
84 1 5.47244 -9.40617 11.2342 10
85 1 -4.07629 12.5842 -6.55551 21
86 1 -4.79427 13.1779 5.75879 16
87 1 -8.47229 -0.611254 13.367 15
88 1 -5.00378 6.61886 6.82639 19
89 1 -6.4293 -5.53675 13.5701 13
90 1 13.4476 -6.38186 -3.28826 13
91 1 -13.4457 1.89754 0.951477 19
92 1 -11.8683 -13.5288 3.74848 15
93 1 8.5913 -7.54395 -6.60923 20
94 1 2.23359 -1.47219 -14.1109 17
95 1 -4.35656 -1.9046 -15.199 18
96 1 -0.992593 9.66047 0.0614046 20
97 1 -8.65465 7.06521 -10.9117 16
98 1 -0.271549 10.8861 16.378 8
99 1 -2.05814 15.1921 -3.74736 20
100 1 -11.7286 10.0354 1.52724 10
101 1 2.32473 9.99849 1.72633 20
102 1 -7.09833 -7.78667 10.1023 24
103 1 10.1555 -1.88835 10.1844 19
104 1 4.24742 -4.10927 -8.48466 21
105 1 3.13593 -7.04903 -8.33916 18
106 1 -4.28504 4.11776 8.19885 22
107 1 4.46099 -1.63917 12.7724 20
108 1 -15.0397 -6.82792 -1.70559 19
109 1 -12.9741 -8.12182 -2.71716 20
110 1 6.71423 -10.7177 5.87939 14
111 1 -7.8268 7.20183 1.99845 18
112 1 6.73488 9.07321 -13.9285 13
113 1 5.61121 19.0575 1.7776 11
114 1 -9.20264 -13.6316 12.1423 9
115 1 -10.6807 -13.8511 6.7821 18
116 1 1.71903 -7.59698 -11.2658 19
117 1 4.0983 6.99091 -8.50772 19
118 1 9.21468 -9.0147 -1.78178 20
119 1 -5.82736 -16.6306 7.6817 11
120 1 -9.74028 -5.60821 -1.8105 16
121 1 14.5983 9.17617 8.17909 15
122 1 12.6151 -3.20753 -10.4242 11
123 1 -16.8521 -4.21874 -0.758118 16
124 1 10.1729 9.48887 3.9129 18
125 1 13.3637 8.29414 2.55413 19
126 1 -8.43248 4.73136 14.7883 15
127 1 0.647417 9.21266 8.81904 18
128 1 -4.55692 9.69084 -7.74294 19
129 1 -5.93437 -11.7065 -9.4206 21
130 1 7.48615 -9.69445 -10.9524 18
131 1 0.50798 10.8803 -8.62862 19
132 1 6.04431 -3.92805 10.2841 20
133 1 0.903538 -0.620086 -17.9496 12
134 1 -1.90054 7.39143 -8.38506 19
135 1 9.05982 1.83064 -4.92846 20
136 1 -13.3443 8.26838 -4.5774 22
137 1 -7.49343 14.0501 -2.08667 14
138 1 5.23305 4.26815 -9.98944 17
139 1 4.68634 -11.2451 -0.156474 24
140 1 -7.81193 7.75111 -8.05594 23
141 1 -5.77631 12.8958 8.12197 13
142 1 12.8081 8.53908 -7.88698 13
143 1 1.09072 12.2566 -5.73704 20
144 1 -4.37094 12.1934 0.0537923 17
145 1 7.41569 9.04514 -1.14565 19
146 1 -0.710767 9.50539 -6.33686 21
147 1 2.69313 18.3199 -11.7538 9
148 1 -0.985582 12.0977 -15.7361 10
149 1 -13.459 -10.786 2.885 17
150 1 -11.984 11.1713 -5.91166 12
151 1 -8.56277 -3.83919 -12.1578 20
152 1 -1.01439 -12.1952 -15.9246 5
153 1 8.74956 15.9855 5.16986 11
154 1 -1.83664 18.016 6.14348 10
155 1 -13.3234 0.134489 -5.73739 23
156 1 -8.60326 11.1421 2.06626 14
157 1 13.5279 3.19687 -4.39817 15
158 1 -7.12895 3.22128 -13.4837 21
159 1 4.71998 0.495048 14.787 15
160 1 3.54652 18.21 4.24626 14
161 1 0.290847 6.88649 13.6302 22
162 1 -0.802767 -8.69888 -15.31 10
163 1 -3.57893 10.9701 11.2683 14
164 1 -3.41405 15.953 -7.0098 20
165 1 2.88685 -4.97926 11.4342 18
166 1 -14.0936 -4.58796 4.58742 16
167 1 -1.19484 -9.96026 -12.1585 19
168 1 -6.44068 16.68 -5.97786 10
169 1 -4.66254 -6.65585 5.02703 20
170 1 3.89826 -15.5432 -5.53528 14
171 1 -1.79449 10.0271 -14.0245 18
172 1 -14.7218 3.1867 5.89263 18
173 1 8.76889 12.7653 -4.70713 16
174 1 -6.0409 2.37846 13.0434 21
175 1 -0.838788 -9.79967 8.77628 17
176 1 -9.26332 4.70214 -2.32812 21
177 1 0.34972 18.6625 3.17716 13
178 1 3.17597 6.01447 8.69273 19
179 1 11.2647 7.55971 12.3223 16
180 1 -6.23822 15.8116 0.343577 9
181 1 9.67969 -3.97163 -8.29506 19
182 1 -7.71823 11.5333 10.7237 12
183 1 -4.96974 1.53445 -10.253 22
184 1 13.9032 -5.60809 2.12807 9
185 1 -8.55783 -3.65938 5.07391 21
186 1 -18.5195 -2.04988 0.159331 14
187 1 -9.63423 -6.6384 4.0033 21
188 1 6.54193 5.78771 13.545 22
189 1 -15.732 0.896704 -3.76508 14
190 1 -2.73249 -16.4916 0.157754 16
191 1 3.95727 -6.00823 -3.64707 19
192 1 -3.51113 10.3409 2.01818 22
193 1 4.03807 11.0449 13.0892 22
194 1 -10.2775 1.3097 -7.28236 20
195 1 -3.77376 14.6473 -9.52706 19
196 1 -16.6112 -2.59664 -6.39402 16
197 1 -10.379 -0.736726 8.43294 19
198 1 -2.32942 -8.94017 5.15913 22
199 1 0.723406 -12.2112 4.66795 23
200 1 -13.4356 7.46921 1.68003 14
201 1 15.3768 7.04441 4.24955 13
202 1 5.11886 4.58211 -6.64439 20
203 1 -8.79001 -7.03054 -12.6784 14
204 1 2.16488 3.6262 12.8836 22
205 1 1.78461 -14.6677 4.79883 15
206 1 -1.09822 7.54723 -12.0201 19
207 1 5.50587 -11.3135 -13.0234 11
208 1 8.31103 5.43998 -11.015 18
209 1 -5.03638 9.01952 -18.5778 7
210 1 -8.19636 -6.47683 -6.48594 22
211 1 -4.03211 18.1937 -5.10497 16
212 1 -12.7773 -7.72341 8.4445 18
213 1 9.39338 16.1489 -2.59258 10
214 1 -11.8712 5.15145 15.0333 9
215 1 -0.249337 13.9358 -9.99712 23
216 1 3.53139 1.45338 8.39265 24
217 1 -5.94376 -6.43017 -12.0641 20
218 1 -1.18651 19.7338 -6.93005 12
219 1 0.438731 1.67461 -13.6688 19
220 1 -8.62126 -12.0075 9.18244 19
221 1 -9.6704 2.9396 8.53168 18
222 1 -9.68032 5.34399 12.0535 18
223 1 -2.27723 -11.0551 -8.74968 21
224 1 -6.25685 -13.0374 -3.0031 18
225 1 7.55429 -11.7837 -2.10356 15
226 1 10.0757 10.8036 12.3832 12
227 1 3.144 13.764 -7.97746 21
228 1 -0.476218 9.50106 -3.39835 21
229 1 -12.9949 -0.739344 0.138403 21
230 1 -12.2114 10.5865 -3.20166 15
231 1 4.86778 3.81582 10.5741 25
232 1 2.95046 -17.9348 1.31787 9
233 1 9.23466 0.523273 -1.23765 19
234 1 3.61161 6.41036 5.38948 21
235 1 -9.72585 4.31642 5.09814 20
236 1 -15.4553 -7.73883 -5.79632 16
237 1 6.77938 5.65932 -13.5714 14
238 1 1.79054 -1.21145 8.10634 21
239 1 8.94795 12.278 -10.0929 11
240 1 3.61225 -8.87347 -5.84692 19
241 1 -4.36172 0.936277 -13.8364 20
242 1 -3.31831 -15.6999 6.7649 14
243 1 6.94827 2.21639 -6.93735 21
244 1 -9.82327 -0.390068 1.59223 20
245 1 4.61312 -16.7745 -2.04036 10
246 1 -12.0015 -3.86772 -9.51356 22
247 1 2.33798 15.9158 1.91154 16
248 1 -1.29591 -1.26958 -13.9105 19
249 1 -0.214395 4.73779 15.7502 17
250 1 12.4729 6.13987 3.23068 18
251 1 6.97151 -3.34558 -10.1996 21
252 1 -6.83755 -0.876311 -12.8271 22
253 1 -9.74784 -1.70474 -10.3943 21
254 1 -5.20842 -10.6251 9.76641 19
255 1 7.94944 -2.00574 7.66141 19
256 1 3.21285 -4.15284 8.35615 23
257 1 -9.90706 -9.79863 -11.9717 11
258 1 2.55689 9.64724 -15.9341 11
259 1 -0.378157 11.913 -1.85742 18
260 1 -9.79798 -6.3478 1.00917 20
261 1 -0.66738 16.0225 0.47793 17
262 1 -10.605 -2.4271 11.2616 21
263 1 -13.6999 -7.58852 -8.51555 14
264 1 -10.6216 -7.26522 -7.64368 21
265 1 -3.78464 9.89768 -16.3626 14
266 1 -7.29892 -9.50793 -5.21818 17
267 1 -5.72221 -9.16129 3.05116 20
268 1 6.57236 -3.6124 -17.2587 12
269 1 10.4788 3.69059 -9.08062 19
270 1 10.5488 3.58004 3.38769 21
271 1 -11.6638 -4.09351 8.97112 22
272 1 -5.92139 -9.88268 -0.471133 20
273 1 4.60755 12.2162 18.4522 5
274 1 -7.96695 -12.7147 3.22576 21
275 1 -1.37271 -11.2323 -0.356269 19
276 1 -0.785666 19.5409 -0.292898 11
277 1 6.11385 2.77385 -16.0131 10
278 1 -8.00019 -5.19993 -14.8945 11
279 1 -15.2367 -6.88772 10.4293 10
280 1 2.76881 8.33028 15.1839 18
281 1 0.312144 -8.96408 -0.341487 18
282 1 -7.38413 -14.1821 -8.61893 15
283 1 -7.49118 9.38834 -10.0322 18
284 1 6.01059 7.13725 3.12917 19
285 1 -3.43756 5.68036 -11.7989 20
286 1 0.526083 10.5138 -12.2273 20
287 1 8.0178 -11.6464 -7.90322 15
288 1 -4.92361 14.7856 -4.18058 20
289 1 -0.0243945 15.3958 12.6321 10
290 1 9.22034 0.279324 5.1254 22
291 1 -10.9041 1.83909 3.08151 18
292 1 -4.72157 -6.1303 11.5146 20
293 1 -7.57198 7.38672 5.12498 20
294 1 0.687574 -3.70287 -9.70019 20
295 1 13.1681 11.0608 -2.03216 12
296 1 1.82194 -11.5156 -1.87718 20
297 1 -4.54256 -2.1559 11.4274 20
298 1 -17.408 -4.67706 2.05611 13
299 1 4.21079 -12.3197 -6.24765 16
300 1 -9.13877 10.0706 12.8437 11
301 1 -13.3516 6.6 11.7423 15
302 1 -17.8375 -2.29522 7.03056 13
303 1 -12.6022 -5.74491 6.23254 20
304 1 13.4616 -2.69486 -2.30707 19
305 1 -14.7901 -10.0412 8.45691 13
306 1 7.70432 -1.1553 -8.22813 21
307 1 8.94774 -10.4413 -5.25411 15
308 1 3.85149 18.9807 -1.50444 9
309 1 -6.03472 12.1172 -9.79073 16
310 1 5.31133 10.497 9.82746 20
311 1 -11.3414 -4.03208 3.20566 21
312 1 6.60936 -9.1752 -7.78902 18
313 1 -6.5863 9.78405 3.3976 18
314 1 -6.8815 4.16649 6.83271 22
315 1 3.01794 -9.39329 4.12776 18
316 1 11.7858 -2.83157 3.18594 12
317 1 -1.03697 3.69068 9.70465 20
318 1 -8.15001 -3.94216 -4.82185 20
319 1 2.14405 2.68504 15.588 15
320 1 -4.09441 9.87398 5.50529 19
321 1 8.53166 8.10938 12.865 20
322 1 -3.60112 18.2831 -8.31527 11
323 1 1.09968 -3.8527 -15.8706 13
324 1 7.95851 -8.57765 -13.7813 12
325 1 -11.6898 3.84203 11.0173 19
326 1 -16.6681 1.42249 0.439163 12
327 1 -5.80049 -6.5454 -8.45829 21
328 1 -7.21681 6.63379 -1.591 20
329 1 6.1465 -3.91893 6.61162 19
330 1 -13.872 -11.2086 -0.213458 14
331 1 8.03794 -9.91916 9.12753 13
332 1 -8.58956 -7.59142 12.357 13
333 1 -12.5755 8.59231 -1.16862 17
334 1 -2.88835 -3.78869 8.52453 23
335 1 2.10055 -10.7155 -7.78975 22
336 1 -4.83761 -4.35098 -9.98799 19
337 1 9.72491 1.07083 -15.0029 11
338 1 3.53412 13.1449 2.52419 19
339 1 -10.0824 -1.30171 -5.61037 23
340 1 5.82659 -6.71135 -15.4721 13
341 1 9.85034 1.83674 -11.7123 18
342 1 -6.30716 -11.9667 -5.67508 24
343 1 -14.6933 -10.4351 -3.74986 14
344 1 -8.60567 -9.61083 1.78823 22
345 1 9.87827 5.24244 14.4493 14
346 1 10.3377 3.32866 -3.12315 21
347 1 -10.3739 1.8992 -9.95114 19
348 1 0.60975 14.2297 -3.1284 15
349 1 -18.0848 -5.21827 -6.11618 11
350 1 -10.8354 7.30505 6.7983 19
351 1 -9.36765 9.23871 -1.36057 21
352 1 -2.06471 6.77116 8.67147 20
353 1 10.7945 9.06824 9.85873 19
354 1 10.6953 -1.60381 -6.52795 19
355 1 7.25184 -2.90615 12.8641 16
356 1 10.9394 3.81832 -6.09668 21
357 1 -7.88817 -12.5379 0.426141 20
358 1 0.37841 -7.51284 -6.39336 16
359 1 1.32885 10.0255 5.74333 18
360 1 -15.0522 2.98864 -6.41147 15
361 1 6.50453 -9.09649 -0.708393 19
362 1 10.7591 -1.13899 6.71201 18
363 1 -10.4084 -4.07715 -7.1744 17
364 1 -6.92297 -5.8276 3.12627 19
365 1 -12.6566 -4.65152 12.063 12
366 1 -3.57362 9.62187 -1.73886 21
367 1 -11.131 -10.6888 -2.01843 18
368 1 5.3787 13.3627 11.8697 16
369 1 -10.5821 1.44322 -3.68427 20
370 1 -1.26127 14.4265 -6.95476 21
371 1 3.66714 11.9496 5.48743 18
372 1 -12.3852 -8.46349 0.316598 17
373 1 -2.11754 -9.71464 -5.58707 22
374 1 -16.531 -0.366943 4.67235 14
375 1 -15.3098 10.7304 -5.53318 8
376 1 6.93969 -6.60806 4.80322 18
377 1 -2.11144 -11.7379 -3.35076 17
378 1 13.9113 11.2196 4.48793 18
379 1 4.68113 12.3432 -13.8346 13
380 1 -14.0839 2.7007 -12.4557 10
381 1 -1.23006 17.0293 -9.53723 16
382 1 -9.28552 4.61602 -8.43732 22
383 1 -2.02004 -11.1036 3.37007 23
384 1 12.5357 8.07623 5.97496 20
385 1 -3.17237 14.6431 -12.7345 7
386 1 -4.36768 -1.33742 8.21323 19
387 1 -15.7889 3.79003 -2.4775 16
388 1 -11.0743 1.59486 6.26159 18
389 1 -6.84641 -9.54702 7.19285 17
390 1 5.9322 -6.82104 -9.46284 20
391 1 -15.747 5.56246 4.08279 12
392 1 -16.1718 0.408902 7.65736 18
393 1 -13.0703 7.48387 4.85472 12
394 1 -2.0233 -6.6215 6.65848 24
395 1 -8.57399 1.437 -14.941 15
396 1 6.26197 -14.3789 0.11742 14
397 1 -0.61223 -8.98066 -9.14472 20
398 1 -6.25307 -4.14601 9.94071 20
399 1 -5.27931 3.03764 -16.5048 15
400 1 3.58668 -8.86829 1.27707 21
401 1 -1.77702 12.211 -4.55021 22
402 1 -11.2143 10.0235 6.8326 13
403 1 -5.74395 -2.20838 14.2485 11
404 1 -11.397 -6.65958 -10.7734 18
405 1 -12.825 -8.51694 5.37866 24
406 1 11.144 -4.50371 7.90839 11
407 1 0.597727 2.44109 -9.93752 19
408 1 9.52642 -8.6653 5.68502 15
409 1 13.2613 8.72562 -4.61138 15
410 1 -5.37124 1.24646 10.0334 20
411 1 1.73742 12.7645 0.145626 17
412 1 9.24612 -4.3135 2.33037 19
413 1 -4.52518 -15.9001 -3.00174 14
414 1 -4.93739 3.89829 18.7854 11
415 1 -3.89423 15.8917 8.29632 12
416 1 -7.9159 -9.83736 -8.02159 21
417 1 10.1255 13.2327 -1.75959 17
418 1 3.63756 9.17389 7.27458 20
419 1 -7.72396 1.10035 7.95454 23
420 1 -7.579 -6.3493 -3.28959 21
421 1 -11.5192 0.710365 10.78 18
422 1 -3.40528 -11.8073 -11.3075 17
423 1 -8.25745 6.45032 8.23546 16
424 1 0.0678697 -11.9591 -6.03634 16
425 1 -6.33773 -9.71217 -11.9891 15
426 1 -8.39473 -12.2885 6.25636 19
427 1 6.52033 0.972063 6.71595 23
428 1 -9.20409 -5.18082 10.7605 19
429 1 -13.798 4.86984 -10.3798 13
430 1 6.36873 6.15008 -0.0811928 21
431 1 -7.68884 -15.3788 -1.76667 13
432 1 -2.6208 14.0377 -1.44819 23
433 1 -1.06312 5.30231 -10.0572 21
434 1 -3.20156 7.04972 12.1598 17
435 1 -17.2553 -8.0274 -3.92267 10
436 1 -1.82111 17.3064 -2.15127 18
437 1 5.70002 14.8623 -4.88643 17
438 1 -4.49571 -9.27437 -6.84202 21
439 1 4.1826 5.31459 15.9287 17
440 1 -1.04911 -15.5574 -8.43381 9
441 1 -2.14687 2.86493 -15.3925 20
442 1 4.33651 -14.6511 2.49107 15
443 1 -9.79468 9.9392 4.74549 16
444 1 1.19467 9.65488 11.9294 15
445 1 4.86911 9.93312 -3.18705 20
446 1 2.38988 9.83606 -1.13679 20
447 1 -11.4867 6.4931 -9.65772 15
448 1 2.11739 4.62419 -8.61677 20
449 1 1.37068 -6.26238 4.66306 22
450 1 -17.5061 -7.63973 0.0576632 9
451 1 1.13951 17.2504 6.27896 15
452 1 -8.25826 1.04724 -11.7078 21
453 1 10.0563 7.04404 -4.41786 24
454 1 3.45916 19.5582 -8.8943 9
455 1 8.20997 -5.41224 -1.49705 21
456 1 12.1519 5.65888 -3.17804 22
457 1 -1.06122 4.96344 -13.7035 20
458 1 -3.03252 -8.55341 1.55116 23
459 1 -0.423277 -13.7952 7.11777 13
460 1 1.45671 -6.56244 8.29953 21
461 1 -11.5267 -1.33063 -8.1091 20
462 1 -10.8609 -10.1997 7.69023 19
463 1 0.648343 -12.7288 -9.27153 16
464 1 10.9162 15.4525 1.20682 12
465 1 1.17597 7.64611 -13.3689 20
466 1 1.73852 -1.04555 14.8869 14
467 1 -17.0941 3.90066 8.37203 10
468 1 -3.59116 -16.7659 2.6975 14
469 1 -13.9962 -3.45568 1.27637 18
470 1 14.0536 -4.19795 -7.54226 12
471 1 14.8948 0.848594 -2.93516 13
472 1 -4.7436 6.94429 -6.29181 22
473 1 -0.432836 -6.1084 -9.10774 19
474 1 1.6638 4.58281 -12.2038 19
475 1 11.2278 -0.67832 -3.7465 19
476 1 -9.7797 1.50161 15.8916 7
477 1 8.75582 17.8934 1.05966 8
478 1 -1.91809 -4.94687 -14.9856 15
479 1 2.02036 4.49344 -15.1795 17
480 1 -8.51591 -3.28496 8.05113 22
481 1 -2.38681 12.2769 4.25454 22
482 1 -9.61365 -1.63011 -13.6236 16
483 1 -15.8008 -1.49484 1.76964 20
484 1 -0.916013 -6.67717 -12.0228 20
485 1 -11.0512 -11.0737 12.5311 7
486 1 1.53083 7.4731 -10.2192 23
487 1 13.0412 4.1186 8.70377 15
488 1 9.48713 7.14015 -1.1746 16
489 1 -10.1714 -13.3521 -1.18237 15
490 1 -2.26848 -9.32125 -1.86854 19
491 1 -2.18569 -2.78938 -16.8736 11
492 1 -5.56158 9.60936 8.97643 18
493 1 1.2415 -0.564919 -11.7765 18
494 1 12.2814 -7.77691 -0.332978 13
495 1 0.51939 19.9633 -8.94603 10
496 1 4.37702 -6.55306 3.14953 21
497 1 11.1453 10.2487 -4.87339 14
498 1 3.31076 14.2901 13.6706 14
499 1 -8.98049 1.54776 11.4047 20
500 1 2.85759 12.4861 10.1705 16
501 1 7.64925 -0.666636 15.4135 11
502 1 -4.40035 5.57866 -18.1376 12
503 1 -7.9546 -8.33067 -10.1011 20
504 1 0.200429 -3.44914 13.0297 13
505 1 9.59445 12.6494 5.73321 19
506 1 6.52898 10.9952 -11.6981 15
507 1 -7.51065 13.9302 -5.71636 14
508 1 -0.222741 17.1201 -5.31874 21
509 1 7.69139 -7.60262 11.4107 11
510 1 10.1613 4.15684 -13.5099 11
511 1 10.4174 -6.30611 -2.40081 19
512 1 10.7381 12.2595 9.22329 16
513 1 -16.1984 -6.89468 3.98601 14
514 1 -7.65378 9.62607 -13.3704 12
515 1 -2.62058 1.39224 8.41694 20
516 1 -16.1119 1.80586 10.7351 14
517 1 -1.88821 11.7956 -11.831 17
518 1 0.427288 -9.31891 -3.88962 16
519 1 4.85421 -1.08486 -10.1042 17
520 1 1.04674 17.6383 -2.26233 14
521 1 -12.0318 -3.55716 -12.6315 14
522 1 3.49886 -11.6087 2.35949 19
523 1 -14.0683 -3.33036 -2.10218 20
524 1 0.645713 13.3056 -13.7682 15
525 1 -1.34146 10.3841 13.7292 15
526 1 -10.0892 -7.00561 7.86221 20
527 1 5.47626 11.9051 -5.33135 19
528 1 2.08484 -11.2054 -11.4879 14
529 1 4.76786 -6.72755 9.42266 20
530 1 -15.5247 5.02125 0.772997 18
531 1 5.51777 6.79728 11.2777 21
532 1 1.78243 18.7352 -6.24849 12
533 1 11.9498 -3.88208 -4.88083 19
534 1 -2.17585 14.1117 10.4901 13
535 1 0.510982 2.44449 -17.031 14
536 1 -5.63524 -13.3447 10.9852 11
537 1 -1.87362 2.32196 -11.8294 21
538 1 1.68862 6.11494 -17.2939 10
539 1 3.94405 16.6092 7.58807 11
540 1 6.89893 7.67122 -9.48625 21
541 1 -4.95474 -5.23215 -16.3435 9
542 1 -4.92018 -9.85296 -3.44287 17
543 1 -14.429 -4.99516 -10.7336 13
544 1 10.256 3.60565 0.233245 21
545 1 15.1376 5.78655 -3.17196 11
546 1 7.23909 -7.83327 -3.39153 24
547 1 13.3127 10.4375 10.8572 11
548 1 4.90842 -11.4304 -10.3642 17
549 1 -1.26651 5.40458 -17.2149 14
550 1 4.91213 13.8383 -0.426297 14
551 1 -9.3021 4.12119 1.77637 19
552 1 8.47749 13.4815 11.1766 14
553 1 14.2202 8.4788 -2.00895 14
554 1 13.1525 2.97781 1.70325 16
555 1 6.95258 6.87806 -6.4703 20
556 1 4.8348 3.39939 13.5 21
557 1 12.5445 6.57937 10.0276 15
558 1 0.303017 -3.8828 9.71173 20
559 1 9.8759 10.966 -2.00382 19
560 1 3.12083 6.3782 12.8524 21
561 1 12.3053 0.61449 -9.68778 15
562 1 7.99649 -1.21858 11.2694 21
563 1 -7.40848 2.32553 -8.71857 19
564 1 15.1508 6.16915 0.149781 8
565 1 10.5969 -6.9637 2.78826 12
566 1 -10.8455 7.28315 10.2299 18
567 1 8.52141 10.9392 8.41511 20
568 1 10.5796 0.954834 11.463 16
569 1 0.711261 6.78425 6.86816 23
570 1 5.34154 14.0941 9.19528 16
571 1 7.699 3.87121 4.81853 21
572 1 -2.31386 -13.9663 1.67018 23
573 1 -6.56594 9.4391 -3.16694 21
574 1 9.12379 8.61284 -7.07108 17
575 1 10.927 -1.53615 -13.0037 13
576 1 2.45682 20.1033 1.48949 9
577 1 -6.37661 -15.0943 -5.4622 16
578 1 9.71659 -4.3067 -11.5776 17
579 1 -14.6638 6.47141 6.94863 14
580 1 -8.8723 4.31054 -11.499 21
581 1 -4.3841 -13.5351 3.66267 21
582 1 -5.85983 3.95947 -10.7404 19
583 1 -13.3838 1.49931 -2.20182 20
584 1 7.86199 -6.88679 1.18339 20
585 1 16.415 10.244 3.28274 12
586 1 0.764391 -9.15276 6.41595 22
587 1 -17.3933 -3.18293 -9.26312 9
588 1 3.85345 -2.00662 -16.8459 15
589 1 -2.31423 1.79328 14.9668 16
590 1 2.65653 13.1478 -15.8675 8
591 1 12.1684 0.875139 9.28782 18
592 1 8.20173 9.76277 -4.13108 19
593 1 9.87232 11.9894 1.46119 20
594 1 5.91844 -14.2837 -7.83095 12
595 1 -13.5195 -1.10925 11.9589 14
596 1 12.66 1.01558 3.40926 15
597 1 -1.81028 13.1497 13.8199 10
598 1 5.69091 13.8901 -10.3681 17
599 1 -11.0469 6.61642 -6.43269 20
600 1 7.57678 11.9353 0.387481 20
601 1 -9.91747 -15.0995 2.08549 11
602 1 13.9603 0.0862137 0.111013 14
603 1 8.29788 14.782 0.541357 18
604 1 -4.91397 6.88459 9.94759 21
605 1 -12.55 -5.67263 -1.3507 20
606 1 -8.44984 -5.37445 -9.44224 19
607 1 6.37495 1.20733 9.55819 22
608 1 -3.24364 -8.59445 10.6226 17
609 1 7.47371 3.87208 11.4985 20
610 1 -6.69452 10.2861 0.00541635 18
611 1 8.9142 6.78208 1.89742 21
612 1 7.56085 4.21618 2.11522 22
613 1 2.88789 0.946538 -16.1536 17
614 1 -13.5177 -1.32303 8.99265 25
615 1 7.65802 -0.652281 -11.6516 20
616 1 12.3443 -7.07946 -5.96305 13
617 1 6.25513 6.51461 6.68418 21
618 1 -11.8 1.32841 13.8557 11
619 1 9.39035 8.24234 6.88015 20
620 1 -1.85203 -1.55641 13.494 15
621 1 -2.62913 5.03983 14.6655 17
622 1 -2.11766 -3.50845 -11.3756 20
623 1 -7.06459 3.73315 9.96518 20
624 1 6.92939 1.27847 12.8676 23
625 1 -11.2159 -16.5106 4.68372 8
626 1 16.4087 11.3253 -0.281102 6
627 1 6.98803 -13.1991 -5.17031 15
628 1 7.05579 13.6717 -2.6286 20
629 1 8.51206 13.9216 3.16634 17
630 1 6.81253 -0.331073 -15.3653 20
631 1 1.06668 16.2653 -7.91748 16
632 1 10.6071 9.05272 0.647994 19
633 1 -9.02072 -8.38582 -1.07962 18
634 1 -1.62649 -0.121833 -16.6701 17
635 1 -9.82076 12.2729 -0.32594 12
636 1 6.51884 -6.16098 -12.1996 22
637 1 12.4533 8.41074 -11.3819 12
638 1 8.10492 17.6898 -5.68784 9
639 1 -10.1402 6.12229 -0.108425 19
640 1 3.95916 6.9709 -4.88863 19
641 1 9.69232 1.91491 14.8615 12
642 1 10.0949 -1.29021 13.9131 10
643 1 -2.69329 -12.0632 9.8232 11
644 1 -7.00229 6.92516 -12.9937 19
645 1 3.27262 13.7392 7.63508 17
646 1 8.8218 -5.54764 -14.126 13
647 1 0.66068 1.73111 10.1096 25
648 1 4.51612 16.6063 -3.12568 14
649 1 6.32087 12.0472 3.90047 17
650 1 14.281 -1.36562 -5.2228 14
651 1 7.75556 5.95818 16.1657 9
652 1 -11.752 -3.04677 6.28389 20
653 1 -0.274013 -13.7434 -1.02287 20
654 1 -1.32763 -0.792353 -10.3611 23
655 1 -6.27219 13.5245 2.94192 16
656 1 4.75263 10.0925 0.350744 20
657 1 -19.2997 -4.67009 5.59233 6
658 1 -2.85486 5.6255 18.0362 14
659 1 -7.07141 6.06013 -16.9967 11
660 1 -9.88612 7.68612 -14.4592 10
661 1 6.42324 -9.81386 -4.58626 20
662 1 5.76355 11.9808 -8.60751 16
663 1 -16.529 5.03724 11.6307 9
664 1 7.04788 2.60421 -12.7891 22
665 1 2.13074 -9.32278 9.65402 13
666 1 -0.333955 15.3665 3.44907 20
667 1 -5.1526 1.51663 16.5626 12
668 1 -10.8284 -9.49798 -9.26863 17
669 1 -6.08418 -13.2549 -11.4248 12
670 1 -10.1414 -11.3455 -6.92006 18
671 1 -1.20347 19.7987 -3.84943 12
672 1 6.73446 -3.78929 -6.77858 16
673 1 -1.07909 9.55782 3.7352 19
674 1 4.66406 -8.43524 -12.383 19
675 1 3.29612 -14.3201 -0.264944 24
676 1 3.95839 -7.41537 6.448 17
677 1 14.0161 2.72924 -7.63694 14
678 1 1.55374 -14.1197 -6.89879 16
679 1 -14.7405 -2.85446 7.43014 18
680 1 -5.47985 -14.5108 0.771449 20
681 1 -9.88229 -8.76439 -4.1418 19
682 1 -13.6835 -0.197617 5.8388 18
683 1 -6.52909 -15.4254 3.61317 14
684 1 13.1612 5.45381 -6.26637 16
685 1 -3.49382 17.4354 0.927112 13
686 1 -12.7139 4.23277 2.54717 18
687 1 10.6151 -1.42169 0.0688961 18
688 1 -14.3662 -2.30008 -9.31101 20
689 1 1.18104 7.01624 -6.63897 23
690 1 6.60409 1.33894 -9.94011 20
691 1 7.07748 10.3852 11.5 18
692 1 6.93 6.95141 -3.24078 21
693 1 -15.4539 -0.146825 -7.88462 13
694 1 -14.8669 -4.55842 -7.79518 21
695 1 -4.41814 7.76419 18.3848 9
696 1 9.08732 9.04694 -11.6677 15
697 1 11.7686 14.122 3.82803 10
698 1 -1.19543 -0.860496 9.73221 22
699 1 -1.77911 -16.8282 -2.40999 12
700 1 -6.79154 -13.846 6.16197 21
701 1 -4.76431 -6.31185 8.75803 20
702 1 14.2194 12.5941 9.01031 11
703 1 2.2679 -7.04473 -13.9565 15
704 1 -7.93722 7.27177 -5.0273 18
705 1 6.72833 9.2333 5.12548 17
706 1 -12.9997 -0.612311 3.16365 19
707 1 10.543 7.22394 -13.7352 11
708 1 0.507536 -17.0063 -5.42136 11
709 1 -0.656479 -18.5139 1.14583 8
710 1 0.945227 -17.1518 -1.09009 17
711 1 8.15724 4.9688 -8.12101 22
712 1 7.12319 18.4319 -1.18566 9
713 1 -5.35846 0.604433 -16.8444 13
714 1 0.201686 0.604041 13.3691 17
715 1 -4.92782 11.088 -13.334 14
716 1 -10.8265 2.62047 -13.3263 17
717 1 -14.9586 -5.29649 -4.25809 24
718 1 3.1428 15.5873 -5.52949 18
719 1 -5.54134 -3.64097 -13.1626 22
720 1 -7.07269 -6.86036 0.199819 21
721 1 10.0094 7.30137 -9.60196 21
722 1 9.10339 -9.5065 3.04858 12
723 1 -6.43868 6.7656 17.2722 12
724 1 6.15878 -9.22677 2.84944 20
725 1 14.5099 -3.35983 0.867398 14
726 1 13.5365 -1.76737 8.71458 10
727 1 -1.17626 14.9682 6.21666 20
728 1 -14.2181 3.65953 12.9717 14
729 1 -6.78989 8.59908 14.9021 12
730 1 -4.83418 -13.0762 7.71499 18
731 1 9.11486 1.3492 2.26181 18
732 1 5.73754 8.53775 14.4008 19
733 1 -18.0157 -2.53006 -3.65725 10
734 1 10.3806 -3.08271 -2.78876 21
735 1 -9.05528 11.3649 -7.77589 16
736 1 -1.00335 -14.5062 4.39826 18
737 1 3.64616 0.839898 11.4368 19
738 1 2.41367 14.8056 5.1294 23
739 1 0.169149 -8.93619 2.90134 22
740 1 -11.0299 -4.29333 -3.77869 18
741 1 -2.41567 1.58292 11.7394 22
742 1 -16.5991 -9.96033 -1.48351 11
743 1 3.61384 11.3795 15.7246 14
744 1 1.0636 11.8503 3.28578 20
745 1 -10.4429 -10.4783 4.19692 19
746 1 -5.52769 -17.8686 4.91796 8
747 1 9.74246 -5.51001 5.62143 13
748 1 13.5992 -2.50065 5.9645 8
749 1 9.13961 14.5696 8.24325 13
750 1 -3.62571 -8.28994 -10.1732 22
751 1 -4.41263 4.81392 -14.7114 20
752 1 -7.66716 -1.48508 9.90189 21
753 1 -3.9276 14.1908 1.7752 18
754 1 13.6714 4.01308 4.78132 18
755 1 2.77242 10.1484 -7.13241 19
756 1 -4.29177 8.21519 15.2072 15
757 1 8.92034 6.26167 10.1439 22
758 1 7.0072 -3.16194 -13.9157 21
759 1 -10.8724 -11.3028 1.27299 20
760 1 11.2979 2.60081 6.13985 20
761 1 3.46394 2.5917 -11.5535 19
762 1 -1.15354 7.60898 16.2856 15
763 1 10.3606 -12.0567 -10.3915 8
764 1 4.10535 9.40275 -12.5448 19
765 1 -5.11742 -6.85493 -5.30791 21
766 1 13.0636 5.22307 -12.4156 8
767 1 15.9389 -2.35868 -1.58093 9
768 1 -2.19659 -4.71504 11.9266 13
769 1 -3.45363 -13.4835 -5.34465 17
770 1 3.31608 13.3367 -3.33609 20
771 1 -15.4347 2.0747 3.11937 17
772 1 7.73567 4.45313 -4.63734 23
773 1 17.0136 8.87012 6.20686 9
774 1 0.876355 -4.55361 -12.5449 21
775 1 -7.45253 11.4077 5.28938 17
776 1 16.2665 11.7173 6.44349 12
777 1 10.9779 13.3896 -7.5554 8
778 1 4.38441 7.28289 -15.1872 14
779 1 6.20592 -3.56471 -3.49949 22
780 1 -12.6078 4.41767 -0.907624 17
781 1 9.10994 6.76645 4.78988 19
782 1 -16.1988 -9.81849 2.25658 11
783 1 -7.04567 14.2631 -8.50202 10
784 1 7.54641 4.04672 8.1438 22
785 1 -8.19948 -3.14816 -8.06332 19
786 1 -11.7532 4.67936 7.56166 22
787 1 -3.61707 4.37429 -8.46889 22
788 1 9.05489 -7.38151 -9.92936 18
789 1 -13.0632 -9.81425 -6.36406 15
790 1 15.1738 -5.72489 -0.657107 10
791 1 -17.212 6.26342 -2.12767 7
792 1 -12.7416 -6.5348 -5.17018 19
793 1 11.2209 10.7452 7.11263 18
794 1 -7.2466 -6.08928 6.68051 22
795 1 7.079 3.07496 15.5129 16
796 1 14.0202 1.23199 6.63538 12
797 1 7.68687 -1.88023 4.71779 18
798 1 -10.5858 2.0946 -0.646119 22
799 1 0.492246 12.5157 7.28614 15
800 1 4.09318 6.80547 -11.4502 18
801 1 -3.40293 -8.12963 -13.9412 10
802 1 -3.44318 15.8143 4.21386 12
803 1 -12.0995 -12.0923 9.44706 10
804 1 5.59868 17.4384 -6.84899 13
805 1 1.41535 5.66217 10.5409 19
806 1 13.7339 -1.19281 -8.20745 13
807 1 10.8271 -7.95894 8.1652 10
808 1 2.71554 12.7498 -11.1688 22
809 1 4.12038 14.9788 -12.6324 15
810 1 -7.14806 -1.01145 6.16962 21
811 1 15.072 5.89971 6.92686 11
812 1 -3.67718 -0.777245 -11.8723 20
813 1 13.6792 10.4444 1.08755 12
814 1 -12.4453 4.12105 -3.99742 23
815 1 -5.50404 -11.13 5.2075 21
816 1 4.41828 16.6228 -9.56627 16
817 1 4.56303 -1.646 9.83412 19
818 1 1.85376 -14.7357 -3.28892 17
819 1 -4.60893 16.6843 -2.23364 16
820 1 -15.3299 9.55661 -2.13588 11
821 1 9.76814 1.17586 -8.13488 20
822 1 -1.92076 -13.4586 -12.515 8
823 1 -10.3251 6.51997 3.19639 19
824 1 11.2429 10.5828 -9.46239 13
825 1 -9.91462 -1.37413 4.55591 21
826 1 6.49598 -0.389215 -18.4014 8
827 1 -9.24153 -12.4962 -9.9526 12
828 1 -4.15497 -13.5174 -7.82326 18
829 1 -1.81583 9.11302 10.5788 15
830 1 3.82031 -8.67966 -2.80333 17
831 1 -0.595696 15.9146 -12.6327 10
832 1 12.4339 1.04332 -6.04579 18
833 1 7.6337 9.37345 2.02672 20
834 1 -3.47439 -13.8254 -1.38188 19
835 1 9.32591 -2.03153 -15.8488 11
836 1 11.0644 -4.00087 0.0732453 18
837 1 -2.93638 6.8617 -15.3628 20
838 1 -4.27206 -8.5944 7.47228 20
839 1 5.39614 9.20372 -6.23698 18
840 1 3.94694 1.59685 -8.63057 20
841 1 -9.51994 3.947 -5.38189 20
842 1 -14.4624 4.86622 9.52461 19
843 1 2.07523 6.41471 17.0121 12
844 1 -8.45212 -10.3561 11.8533 14
845 1 4.378 9.60765 3.72718 19
846 1 -4.5679 -11.579 1.60604 20
847 1 2.18976 9.27984 -4.70706 17
848 1 -6.55291 5.61628 12.6585 19
849 1 -3.95738 3.93103 11.2775 20
850 1 -8.22464 10.9168 7.74273 16
851 1 7.56315 3.83828 -1.50371 21
852 1 -5.58072 -8.91262 12.9933 12
853 1 2.06355 -12.5319 7.54528 12
854 1 6.69765 8.26907 8.76157 17
855 1 8.89393 -5.17327 -5.02975 19
856 1 7.06881 -12.9071 -10.4156 12
857 1 -12.5293 5.66889 -13.2997 9
858 1 -2.45925 2.88898 -18.2873 13
859 1 6.28252 14.2441 5.6419 18
860 1 -15.0569 -3.74414 10.3688 15
861 1 -6.70415 10.4489 -5.94743 19
862 1 -14.8637 5.47656 -5.32534 14
863 1 10.4939 15.6989 -5.80724 10
864 1 -8.75032 -16.3293 6.90781 10
865 1 -2.20007 6.89347 5.11961 24
866 1 13.5601 13.6818 6.45289 9
867 1 -12.3137 -12.7126 -4.61988 10
868 1 2.05735 15.1253 10.307 12
869 1 -4.87073 0.173439 13.3854 17
870 1 -1.92266 -16.1928 -5.41814 13
871 1 10.2513 3.91533 9.4813 19
872 1 0.942916 -15.9601 2.10483 17
873 1 4.80044 8.47241 17.9114 10