ITEM: TIMESTEP
8000
ITEM: NUMBER OF ATOMS
2000
ITEM: BOX BOUNDS pp pp pp
-30.0 30.0
-30.0 30.0
-30.0 30.0
ITEM: ATOMS id type x y z Coordination
1 1 -6.33277 3.75264 -15.2522 12
2 1 -0.0223832 -11.3354 -4.37446 20
3 1 5.09827 9.29037 10.3891 17
4 1 8.45371 -12.3138 5.31285 12
5 1 -8.12888 9.10416 1.85205 21
6 1 13.4604 -8.1499 -9.39626 14
7 1 -9.70766 1.80076 -7.11426 21
8 1 1.95166 -7.26211 9.39221 20
9 1 -4.76195 3.10295 -11.5045 19
10 1 -12.8526 -8.97271 6.29889 14
11 1 11.4843 3.06896 -9.40701 17
12 1 -2.07392 -11.8643 1.76965 17
13 1 -12.9288 -4.89296 3.29026 20
14 1 2.13165 4.22484 16.0577 18
15 1 0.779942 3.71183 10.1327 19
16 1 -1.72298 8.95634 -9.48976 17
17 1 0.293112 -1.71549 15.279 15
18 1 -8.68134 -1.15432 -16.0606 13
19 1 -12.4298 -2.83695 11.479 15
20 1 13.2033 4.21607 9.05356 19
21 1 0.637622 11.2198 -10.8226 17
22 1 2.27086 1.53511 -16.0571 21
23 1 15.6743 1.25452 8.96841 15
24 1 -12.6523 3.80929 -7.45802 11
25 1 -2.04819 -4.34564 -8.58049 17
26 1 -12.2584 9.6474 9.26373 12
27 1 8.06254 -16.1412 5.27089 5
28 1 2.35179 -10.617 -9.97903 19
29 1 5.79987 -11.7174 -2.30445 19
30 1 -5.67302 -13.8349 -5.72153 16
31 1 -13.7551 -6.477 11.1278 11
32 1 3.22957 -9.08132 -12.6391 16
33 1 12.0203 -10.9649 -11.3267 10
34 1 0.669221 6.69609 -17.5097 12
35 1 2.463 2.91726 12.5872 16
36 1 -0.0865754 -9.59308 9.63926 19
37 1 4.21361 -4.80361 12.9332 12
38 1 -13.9199 2.57881 4.80496 23
39 1 -16.0754 -2.11402 7.73481 14
40 1 -9.56308 0.053969 1.49048 21
41 1 -2.1647 13.2945 -3.04565 22
42 1 0.219644 -14.4454 -10.3061 15
43 1 2.12732 -2.16389 -11.205 19
44 1 5.86974 -5.5717 -11.6238 21
45 1 -3.7941 -2.62738 13.7641 15
46 1 -9.44149 6.39823 0.379761 21
47 1 3.46071 11.4629 -10.7584 15
48 1 -0.792504 11.1169 8.48328 20
49 1 -5.47377 7.48153 -7.36764 21
50 1 -2.67077 13.7271 0.259395 20
51 1 6.76162 -11.9725 0.611444 19
52 1 6.18363 -5.80988 -3.44778 21
53 1 6.9493 -6.35927 -17.2541 14
54 1 -10.0264 10.304 12.1337 9
55 1 -13.2664 -5.33349 -9.11566 9
56 1 7.75336 -2.83499 1.89606 22
57 1 -6.95281 11.6489 -2.9339 21
58 1 -8.96694 -8.35428 6.38098 19
59 1 -2.32876 9.29659 11.9359 17
60 1 -12.9492 6.97159 -8.394 12
61 1 -7.71075 8.21279 14.2088 11
62 1 -7.87142 -14.7374 4.77783 21
63 1 3.01444 5.33914 7.33455 23
64 1 4.63701 -13.9313 -4.06525 21
65 1 5.73619 14.6092 12.9921 9
66 1 -13.4824 0.509529 -8.44942 11
67 1 -12.0002 6.58263 -11.2336 9
68 1 6.23761 7.23869 13.2522 15
69 1 13.7388 -2.26462 -11.258 10
70 1 9.98815 -11.1127 1.98285 15
71 1 -18.4095 -4.70016 2.55332 10
72 1 8.49257 15.6067 6.84212 13
73 1 6.07318 -2.46331 17.1194 11
74 1 -10.2844 -12.9489 4.10291 19
75 1 -12.3537 -0.810663 -0.479299 21
76 1 12.547 1.26775 10.2533 20
77 1 7.9016 -2.86128 -3.70426 20
78 1 -3.79838 11.035 10.0143 18
79 1 6.6532 0.0960188 7.25675 21
80 1 -4.54116 -5.36052 -7.97906 17
81 1 -13.8409 6.48346 9.53132 14
82 1 -8.96319 10.0264 -1.12249 21
83 1 -4.29088 8.3488 -10.9155 18
84 1 7.90918 -1.1061 -6.33408 23
85 1 9.61367 13.5416 -7.72385 11
86 1 6.46438 -5.86475 1.45255 20
87 1 8.07621 -8.83498 7.83738 16
88 1 -6.11324 14.306 -5.33164 12
89 1 -9.3331 14.8816 3.25635 11
90 1 -9.22743 -5.85304 10.5175 16
91 1 -3.66374 7.54389 4.77537 23
92 1 -6.14709 -5.58666 10.5698 16
93 1 13.1955 -9.34978 -5.57563 16
94 1 -10.1219 -0.0414254 7.08898 17
95 1 -11.725 -14.2449 1.32827 14
96 1 8.43681 -6.79636 -6.88182 17
97 1 5.07565 -0.381239 -11.7299 21
98 1 -5.49111 -1.1679 -17.9809 10
99 1 0.0156305 12.72 5.40677 18
100 1 -6.69556 5.31519 -10.1182 19
101 1 5.05872 9.0144 16.8401 11
102 1 0.162238 11.4816 -3.34806 19
103 1 -10.8287 9.7499 1.00286 17
104 1 -0.0640739 11.5928 2.24521 21
105 1 -3.57693 -7.89055 12.4514 10
106 1 16.1247 1.7494 5.49934 13
107 1 -1.70691 -6.69247 -7.59908 22
108 1 6.14747 -7.32046 -8.51537 20
109 1 -2.09791 4.30039 10.1588 21
110 1 6.73877 0.350622 17.6617 10
111 1 -9.32333 -6.75638 -1.948 16
112 1 -8.08579 -8.16048 -4.96755 18
113 1 12.3024 -8.75966 1.2004 14
114 1 -1.65178 8.73117 2.02489 21
115 1 3.05673 -0.317388 -13.9623 23
116 1 4.91507 16.7589 -0.465024 13
117 1 -7.92515 -13.2213 8.1421 18
118 1 -10.438 -13.9185 7.66215 14
119 1 7.43027 -9.33135 -15.9125 11
120 1 3.39679 5.82595 -8.23332 17
121 1 12.4552 -11.3974 -0.473176 12
122 1 -1.5186 -16.6163 5.04664 13
123 1 -8.62357 -8.49566 0.888368 16
124 1 16.2142 6.36711 8.88663 13
125 1 14.7758 -6.12857 -7.76861 14
126 1 -15.9595 -5.18778 2.68091 18
127 1 9.5337 6.57653 5.08126 19
128 1 14.2086 7.85174 2.49863 16
129 1 -6.13176 4.52753 18.2472 9
130 1 -5.46853 9.25294 12.0274 15
131 1 -3.51861 13.5256 -6.26363 18
132 1 -0.206203 -7.30813 -10.5392 19
133 1 8.96082 -11.9696 -10.8448 15
134 1 1.73581 16.426 -11.3469 7
135 1 7.00544 -4.79018 11.4323 20
136 1 -0.0224805 -3.19101 -18.7454 10
137 1 -3.53351 7.91282 -5.83665 22
138 1 8.8047 4.21234 -7.14933 18
139 1 -11.1351 9.1255 -6.96096 19
140 1 -8.20222 14.5778 -2.7243 15
141 1 6.20917 -0.0573424 -8.93738 23
142 1 9.61046 -9.39561 4.60825 14
143 1 -8.43341 4.59741 -6.90553 20
144 1 -7.5861 14.5523 8.51499 10
145 1 13.8869 8.41014 -7.31157 10
146 1 6.10196 12.7347 -3.22145 20
147 1 -5.04885 17.9222 0.0575563 8
148 1 7.96838 9.45099 -2.56955 19
149 1 -2.12488 8.993 -3.43927 21
150 1 1.45256 15.3896 -8.26393 14
151 1 3.61723 9.5057 -13.3212 15
152 1 -11.3417 -6.80106 3.97964 19
153 1 -11.7682 7.40154 -2.28256 14
154 1 -5.31457 -2.31881 -15.5845 18
155 1 2.80496 -11.2602 -15.353 9
156 1 12.8371 11.5891 10.2192 12
157 1 0.755782 16.2197 7.38321 10
158 1 -13.1373 -0.405405 -3.05881 17
159 1 -9.71939 12.4126 0.598266 16
160 1 16.3634 -1.48959 -3.8277 11
161 1 -9.82744 2.13705 -15.4528 9
162 1 6.96431 1.14282 14.4159 16
163 1 9.31412 17.9672 2.88184 10
164 1 -4.04193 7.86643 8.89444 21
165 1 4.44902 -8.39022 -16.7501 11
166 1 -4.56745 15.0292 7.89807 14
167 1 -0.757542 10.3959 -6.9216 21
168 1 2.28882 -2.44132 12.8475 19
169 1 -10.2008 -5.43994 6.46532 22
170 1 -2.32264 -12.483 -13.1655 15
171 1 -6.95327 9.74267 -9.13568 18
172 1 -2.71377 -9.28135 4.21107 20
173 1 2.82659 -16.3452 -4.30453 15
174 1 -3.8285 12.7848 -13.9851 7
175 1 -14.898 0.820844 8.30872 18
176 1 10.3892 9.47154 -4.85874 20
177 1 -7.45136 5.79518 16.0413 15
178 1 0.453647 -7.81299 12.0268 10
179 1 -6.87856 6.10123 -4.52912 19
180 1 4.79413 17.2275 4.99817 8
181 1 -0.247653 5.67507 7.29139 23
182 1 15.7387 3.37526 14.4525 10
183 1 -6.49428 16.3334 2.52515 14
184 1 12.3398 -5.03785 -10.0637 15
185 1 -6.94423 11.9373 11.2391 11
186 1 -5.08178 4.9618 -6.87938 21
187 1 13.8371 -5.51303 1.83332 15
188 1 -5.73882 -7.71271 7.91134 16
189 1 -15.6706 -0.317223 5.67358 19
190 1 -9.83903 -9.90106 3.47575 19
191 1 7.69282 4.97425 13.295 14
192 1 -13.7797 2.49772 -1.11621 11
193 1 -1.14872 -15.1939 0.0795341 18
194 1 4.64971 -8.21712 -3.53957 23
195 1 -1.80372 10.4915 4.53483 21
196 1 6.12441 12.1834 9.60566 17
197 1 -8.65214 -0.25639 -5.80324 20
198 1 -5.90427 12.4309 -8.46967 15
199 1 -12.16 -2.83615 -3.87476 16
200 1 -9.35319 -0.970768 12.6384 22
201 1 0.224016 -13.742 4.96211 20
202 1 2.86212 -12.4523 5.38806 22
203 1 -12.4251 9.30106 3.94182 14
204 1 16.1051 4.5145 1.01108 10
205 1 8.20431 2.35682 -4.29509 19
206 1 -4.64766 -7.79413 -12.8281 13
207 1 3.51017 -1.62689 9.72332 19
208 1 6.29872 -17.5825 2.64478 11
209 1 -2.13673 7.42892 -12.2483 18
210 1 5.75707 -11.8274 -10.0386 14
211 1 9.78954 0.524899 -14.5273 19
212 1 3.19751 5.15704 -16.3253 14
213 1 -6.9117 -3.49164 -5.89409 21
214 1 -1.12358 12.9843 -5.79522 20
215 1 -9.53585 -11.3329 10.2779 14
216 1 8.11658 16.4159 0.221784 11
217 1 -9.46721 3.75347 16.387 15
218 1 -8.72002 12.2568 -4.93776 17
219 1 9.30374 -1.16098 7.38025 20
220 1 -3.13549 -5.5458 -11.3091 15
221 1 -3.73226 10.4947 -7.76386 23
222 1 2.49137 4.86098 -11.0307 21
223 1 -7.61881 -11.4266 5.27156 18
224 1 -12.1788 5.24358 7.43926 18
225 1 -7.63579 8.28463 8.247 14
226 1 1.38939 -11.987 -7.80568 19
227 1 -4.56265 -14.516 0.433506 26
228 1 9.00914 -11.8043 -1.75216 18
229 1 13.4684 6.32639 15.0031 12
230 1 5.0702 8.86836 -8.1224 17
231 1 -1.66259 10.5185 -0.949035 20
232 1 -11.5676 -2.25355 2.14641 22
233 1 -13.2047 10.0528 -1.33844 10
234 1 2.45988 7.10964 10.2214 20
235 1 5.10458 -19.8517 1.14593 9
236 1 11.976 -1.01777 -1.44679 15
237 1 3.05234 7.73567 4.53178 23
238 1 -9.48273 5.09351 8.97282 17
239 1 -12.2386 -6.42367 -4.44845 12
240 1 6.45634 4.73512 -15.5173 13
241 1 6.06321 -1.72278 13.0357 17
242 1 9.59902 10.7146 -10.1543 13
243 1 3.05821 -11.1926 -4.3238 21
244 1 -2.58228 -0.127025 -14.2449 15
245 1 0.994624 -18.937 5.11396 9
246 1 13.8718 -2.5547 -8.47708 13
247 1 -8.55396 -2.58916 6.89561 18
248 1 5.62781 -16.959 -3.23673 11
249 1 -9.57253 -3.21416 -7.59573 18
250 1 4.52319 12.8461 0.100517 16
251 1 2.79686 -2.63371 -16.5994 19
252 1 4.72848 3.77816 13.4298 20
253 1 13.494 4.30243 -1.19918 17
254 1 8.83271 -1.58171 -9.17359 19
255 1 -8.21769 -3.68294 -10.2467 19
256 1 -9.71674 0.0884242 -9.98491 16
257 1 -7.67619 -16.2459 7.39735 11
258 1 11.0746 -1.3459 9.74489 21
259 1 4.94085 -2.85327 7.20329 20
260 1 -2.64816 -8.75362 -9.85819 17
261 1 2.49737 -9.5144 7.00776 21
262 1 4.61597 6.73567 -13.9675 19
263 1 3.78933 9.27425 2.02703 22
264 1 -6.47275 -5.60816 2.00076 20
265 1 2.1478 15.5796 4.05947 14
266 1 -7.6163 -4.16448 14.4414 10
267 1 -9.44734 -9.14757 -10.4395 13
268 1 -7.31944 -6.58527 -10.6298 16
269 1 -1.02381 9.6084 -15.9685 11
270 1 -2.90868 -10.221 -7.00924 17
271 1 -4.54575 -11.5038 2.84403 22
272 1 9.80986 -6.56753 -15.8539 11
273 1 14.128 0.320826 -8.64084 12
274 1 10.6187 3.81421 3.31035 21
275 1 -8.89211 -8.31609 9.04218 17
276 1 -1.36547 -8.66501 1.4692 19
277 1 10.1612 5.82463 15.2211 10
278 1 -6.75638 -17.5638 1.11976 13
279 1 2.07294 -15.5031 0.951458 17
280 1 -2.4748 16.4291 -1.45401 16
281 1 6.42884 -1.50678 -14.3062 19
282 1 -5.05132 -5.78597 -15.0859 12
283 1 -11.5609 -8.40804 11.0119 13
284 1 4.73856 5.26219 16.8512 14
285 1 1.41991 -11.8218 1.97736 17
286 1 -4.25972 -11.2115 -10.1549 15
287 1 -8.76204 6.74623 -8.7853 20
288 1 8.86745 5.19846 7.43443 20
289 1 -5.01127 2.59165 -8.62674 20
290 1 0.194328 7.71972 -11.3507 20
291 1 4.68912 -15.8385 -6.54213 14
292 1 -5.66047 16.5983 -2.5196 14
293 1 1.32497 12.9793 7.90743 14
294 1 12.4755 0.44033 7.39169 21
295 1 -8.7247 -0.903926 4.23817 20
296 1 -0.744623 -4.55945 13.1182 12
297 1 -6.58788 5.84175 1.96056 21
298 1 3.49869 -7.86231 -9.62925 21
299 1 14.1501 9.6332 -4.40845 14
300 1 1.58094 -8.75313 1.21474 21
301 1 -3.23373 0.549799 12.7655 20
302 1 -17.6034 -3.07303 5.11312 11
303 1 -0.233587 -17.0186 -2.61244 14
304 1 -9.97099 7.52803 11.5051 17
305 1 -12.1061 5.7733 15.6915 10
306 1 -14.5404 -3.99558 9.20954 14
307 1 -15.4051 -7.45707 8.25435 9
308 1 15.4176 -4.65803 -3.61334 14
309 1 -11.0352 -10.7352 8.03965 16
310 1 6.88971 -3.14301 -11.2405 19
311 1 10.9969 -14.0423 -9.35125 7
312 1 1.57153 16.8978 -1.82358 13
313 1 -10.7963 12.4435 -2.26012 14
314 1 8.81348 6.01507 11.0113 18
315 1 -10.3748 -3.68078 4.16341 19
316 1 10.1071 -9.00524 -1.60738 22
317 1 -4.59239 8.8865 2.01107 21
318 1 -5.4916 11.1669 4.20539 18
319 1 5.93625 -10.3723 9.95286 11
320 1 12.882 -6.12073 6.33073 12
321 1 -3.23188 5.94428 7.15578 20
322 1 -6.5374 -6.17285 -3.16999 20
323 1 -2.09251 0.49124 15.3486 14
324 1 -3.52973 14.0835 4.28542 20
325 1 11.1994 8.54187 16.5589 12
326 1 -8.72226 10.8031 -7.67453 13
327 1 2.80996 -5.37714 -17.6391 10
328 1 8.49622 -10.2652 -12.5941 13
329 1 -10.0731 4.54975 13.5463 17
330 1 -10.3317 1.66089 3.71212 20
331 1 -4.95903 -2.54636 -8.88212 18
332 1 -4.7369 10.4746 -0.655556 22
333 1 6.51306 -5.35759 6.8798 22
334 1 -9.6073 -12.3745 0.941736 20
335 1 8.22546 -6.77109 3.98429 21
336 1 -6.8468 -11.4499 10.7657 13
337 1 -13.0598 7.49304 0.97605 13
338 1 -2.0646 -4.47599 10.122 19
339 1 4.21999 -12.3271 -7.41355 21
340 1 -3.28572 -0.349108 -8.64359 19
341 1 9.66572 -3.24333 -15.0402 15
342 1 7.46988 15.1419 3.80972 16
343 1 -10.3204 0.0852161 -3.60507 20
344 1 5.99808 -7.80553 -13.9575 19
345 1 7.25623 4.22115 -13.0797 18
346 1 -3.53528 -15.451 -7.56358 12
347 1 -12.2386 -9.75682 -3.54234 9
348 1 -4.03626 -9.43448 -0.0749505 18
349 1 12.247 3.54606 14.2206 17
350 1 12.3516 1.39903 -2.57689 21
351 1 -10.5411 4.29042 -9.4556 18
352 1 3.29394 18.2087 2.04582 9
353 1 -15.5254 -0.607323 -1.39564 13
354 1 -8.37972 10.6002 5.29449 19
355 1 -6.97093 11.6732 0.176236 19
356 1 -6.24246 6.08827 7.21033 22
357 1 10.9087 3.56415 11.0376 18
358 1 13.1047 -3.84792 -6.17338 19
359 1 7.50117 -4.15986 14.6054 15
360 1 12.0047 2.03105 -6.43052 21
361 1 -5.06516 -16.7636 -4.74044 11
362 1 0.778831 -7.79288 -5.40556 18
363 1 2.08697 10.4962 4.93696 19
364 1 -6.75453 1.95818 -6.04137 24
365 1 6.8685 -9.0606 -1.04322 20
366 1 11.9632 -3.43884 7.40214 20
367 1 -8.66399 -3.1129 -3.23437 22
368 1 -5.50548 -8.82705 1.95047 20
369 1 -7.14308 -8.6405 11.7429 13
370 1 -3.28242 11.8562 1.83761 18
371 1 -11.0765 -9.64587 -0.124511 18
372 1 8.22456 9.61909 15.9875 11
373 1 -8.63097 4.75566 -1.41587 18
374 1 -0.929241 12.6407 -8.94805 20
375 1 5.31806 11.5819 7.16011 18
376 1 -13.3443 -8.06963 -1.32163 13
377 1 1.61901 -5.93541 -8.15011 23
378 1 -12.6307 -2.10536 6.80371 22
379 1 -8.71533 7.13206 -2.59128 20
380 1 6.2365 -9.51438 5.14497 18
381 1 -4.02408 -14.9238 -3.04293 18
382 1 10.5137 10.4626 8.23519 19
383 1 6.94808 9.21829 -14.7489 9
384 1 -9.98779 3.29167 -11.9735 13
385 1 -1.28811 16.2419 -9.96413 12
386 1 -8.53016 7.86136 -6.07686 23
387 1 -2.18326 -12.3381 5.43913 20
388 1 12.7321 1.47391 4.67035 19
389 1 0.400843 7.76499 -14.4231 16
390 1 -4.5982 1.64191 10.2682 19
391 1 -14.7713 -0.0387509 2.18734 21
392 1 -8.38742 3.13438 7.30106 19
393 1 -7.11534 -12.4093 2.62471 21
394 1 10.6224 -9.92369 -5.3943 16
395 1 -12.3114 -0.256389 4.39627 19
396 1 -15.1232 -0.736065 10.8751 13
397 1 -15.0564 4.05807 6.95057 15
398 1 -0.151592 -5.22862 7.94737 23
399 1 -6.59289 1.12065 -16.5739 12
400 1 8.9715 -12.3248 -5.86602 12
401 1 -0.550248 -9.68199 -12.2753 20
402 1 -3.23505 -1.45296 10.2057 19
403 1 -4.1239 2.37464 -17.7565 11
404 1 5.43461 -12.1998 3.94885 15
405 1 1.93339 10.6996 -5.56681 22
406 1 -12.8972 7.92268 6.58985 13
407 1 -6.68459 -0.796066 15.7302 16
408 1 -10.396 -5.87413 -9.97261 17
409 1 -7.28058 -5.18402 8.21891 18
410 1 8.18708 -6.40753 9.23982 19
411 1 3.30448 0.282792 -8.86498 19
412 1 9.75188 -6.66274 6.82485 19
413 1 12.6169 7.24059 -3.55604 17
414 1 -1.40829 3.78791 13.6492 21
415 1 0.519124 13.3491 -0.792632 18
416 1 9.71479 -4.98471 1.46189 21
417 1 -1.11255 -13.6834 -2.59376 16
418 1 -4.07274 4.89346 15.6504 17
419 1 -1.78381 15.2464 6.33286 17
420 1 -5.73311 -8.79465 -8.37388 17
421 1 10.3352 14.2889 2.60214 16
422 1 6.11725 6.64419 5.95647 19
423 1 -6.8375 2.87343 10.3278 17
424 1 -4.6878 -8.97073 -3.2535 22
425 1 -9.52452 2.30552 11.1348 21
426 1 -9.48358 -5.93888 -5.44989 15
427 1 -6.17211 12.0543 7.83266 18
428 1 -3.06557 -11.6212 -4.12752 19
429 1 -3.68405 -9.76541 -15.1777 10
430 1 -5.95606 -12.0894 -0.252436 17
431 1 -5.03997 -6.89295 4.59314 19
432 1 7.73937 -1.26715 4.67754 23
433 1 -4.7231 -5.07805 13.5198 11
434 1 -9.11023 6.10639 -11.1363 12
435 1 8.27449 2.43353 1.64492 21
436 1 -6.36609 -15.7961 -1.74937 14
437 1 -0.155766 16.2238 0.666256 14
438 1 0.288618 5.89566 -8.5746 21
439 1 -1.07512 7.27184 9.54406 22
440 1 -11.9507 2.91355 1.56138 16
441 1 -0.313014 18.1118 -2.50698 9
442 1 6.35985 14.1566 -6.27869 16
443 1 -7.61881 -5.96219 -7.51308 19
444 1 4.21693 1.82543 17.2699 12
445 1 3.08554 -13.8745 -10.2676 14
446 1 -0.348196 -4.34773 -11.2865 20
447 1 9.36202 -14.0285 0.374923 10
448 1 -9.3373 7.10163 6.27084 19
449 1 3.56441 6.34135 14.3976 17
450 1 9.48686 7.11194 -2.38576 23
451 1 2.00258 10.7361 -0.181117 22
452 1 -5.71106 6.24525 -12.7985 13
453 1 1.74594 2.96475 -8.68636 20
454 1 3.24117 -9.54418 3.56029 18
455 1 -17.2277 -3.94723 -0.246484 12
456 1 5.2406 13.8824 5.31915 16
457 1 -1.51847 4.32625 -16.4995 17
458 1 8.08814 4.17208 -1.29981 24
459 1 6.93885 15.9958 -8.22986 8
460 1 7.86694 -6.33749 -1.1385 22
461 1 17.2734 -1.01066 -0.75302 8
462 1 -0.615068 -1.08077 -11.6814 17
463 1 0.382984 -9.9966 4.4077 21
464 1 0.839371 -14.8858 7.82916 12
465 1 3.12331 -9.89916 10.7271 12
466 1 -8.01175 2.36501 -9.58382 18
467 1 -12.6428 -17.5337 2.41986 5
468 1 -3.21878 -14.5401 -10.491 14
469 1 12.0057 14.2697 7.75401 12
470 1 0.0283271 1.35679 -13.575 21
471 1 3.12929 -0.872039 17.8359 11
472 1 -14.5346 2.05473 12.38 12
473 1 -0.288835 -18.1688 0.118585 15
474 1 -14.5869 -2.78259 0.766046 21
475 1 15.9849 -9.46732 -7.53128 8
476 1 14.6325 0.404261 -0.59196 15
477 1 -6.46717 9.72861 -5.66277 24
478 1 4.00315 -6.52152 -6.28971 21
479 1 3.35457 3.65149 -13.801 18
480 1 9.65409 -3.9027 -6.29722 20
481 1 -7.36241 2.25892 16.8798 13
482 1 6.10742 12.3615 2.47814 18
483 1 -3.25128 -4.15966 -17.5052 14
484 1 7.37256 2.39726 -16.295 13
485 1 -8.49178 -3.24819 10.4751 18
486 1 -3.26193 15.6949 2.17975 20
487 1 -9.50613 -4.24801 -13.9133 9
488 1 -16.781 1.64289 3.24978 13
489 1 -0.729998 -10.7356 -15.0246 12
490 1 -4.39895 -12.586 8.89015 13
491 1 1.56021 9.16569 -8.55486 23
492 1 17.2652 4.21094 7.10414 10
493 1 10.9776 4.43544 -3.70439 19
494 1 -8.43422 -12.2651 -2.2854 15
495 1 3.84323 -9.7074 -0.653708 19
496 1 -0.350048 -5.12358 -16.5974 15
497 1 -9.5413 11.9354 9.2336 13
498 1 4.00704 -4.60579 -9.44588 19
499 1 13.1957 -4.22502 -1.22395 18
500 1 2.90703 13.7986 -5.51864 19
501 1 5.01133 -6.87571 4.52289 19
502 1 11.6008 5.21515 -7.07909 20
503 1 6.39459 10.3388 12.8245 18
504 1 -11.0635 -0.83247 9.59375 20
505 1 11.1739 8.62267 10.6564 16
506 1 8.6328 -1.29054 15.2403 16
507 1 0.808899 -0.971611 -16.0423 20
508 1 -4.43597 -7.59209 -5.90389 22
509 1 1.63296 0.559707 10.2724 23
510 1 11.9207 5.81856 11.5999 19
511 1 5.90688 5.81551 -10.6022 21
512 1 -9.98629 9.75411 -3.97959 21
513 1 3.29467 11.7089 -3.09304 21
514 1 10.0259 -5.46007 12.8317 12
515 1 9.99595 3.26142 -12.3138 13
516 1 11.8541 -12.0007 -3.42954 12
517 1 15.8098 9.93308 9.15384 8
518 1 -13.7362 -8.09722 2.01382 15
519 1 -5.00777 11.3319 -11.3991 12
520 1 -1.14902 0.948532 10.0272 22
521 1 -12.4136 -0.325491 12.9749 19
522 1 -3.44373 13.9781 -9.49797 13
523 1 3.49435 -12.6742 0.0793318 18
524 1 8.24515 0.471084 -11.4338 22
525 1 -3.30791 15.9222 -4.20185 15
526 1 -6.86286 -3.43754 -13.3261 13
527 1 3.99709 -14.5539 2.46558 18
528 1 -15.9512 -6.66141 0.410463 12
529 1 1.29986 10.4857 -13.6577 14
530 1 0.834038 7.78335 13.9311 19
531 1 -11.5502 -7.20578 8.13832 21
532 1 6.66471 7.2353 -0.802942 21
533 1 3.2574 -9.13574 -6.80665 22
534 1 4.32284 -4.57694 10.0916 19
535 1 10.0064 -0.726062 -4.17227 19
536 1 -10.3675 7.73761 3.38872 19
537 1 6.78907 3.59706 15.8558 15
538 1 5.77502 17.0048 -4.7919 8
539 1 12.9233 -6.2184 -3.99032 20
540 1 9.38005 11.7624 10.9396 16
541 1 1.1848 3.17161 -17.9845 12
542 1 -4.54705 -16.4456 5.64027 13
543 1 0.325578 -5.47167e-04 -8.81616 22
544 1 10.5316 0.133652 -17.1456 7
545 1 3.96127 14.2612 8.28672 12
546 1 7.64679 2.88432 -9.76967 21
547 1 -2.45977 -4.98162 -13.9976 23
548 1 -1.55989 -9.7079 -2.12201 18
549 1 -12.2948 -4.06775 -12.2717 11
550 1 11.9581 0.953525 1.92809 19
551 1 16.0077 4.32631 -2.37947 9
552 1 7.08826 -4.17988 -8.55484 17
553 1 14.9046 5.71925 12.4051 14
554 1 7.79266 -8.4881 -3.74198 18
555 1 4.61513 2.57824 -17.1386 16
556 1 9.75702 10.2127 2.78007 15
557 1 -8.84152 3.22767 1.00137 18
558 1 12.5537 8.69617 13.176 14
559 1 9.59612 8.76204 0.133636 20
560 1 14.7101 -3.45669 4.79566 13
561 1 9.1655 5.59001 -10.526 15
562 1 10.2661 0.600366 12.4599 24
563 1 16.0837 3.50079 10.6475 12
564 1 1.08351 -4.78659 10.839 20
565 1 12.7914 12.2317 -2.06759 13
566 1 1.36957 1.40124 15.5319 17
567 1 13.5435 0.351919 -5.53482 15
568 1 7.11661 3.02181 9.39745 19
569 1 -7.35962 -1.03747 -8.22744 18
570 1 10.9448 3.35069 0.0705471 22
571 1 9.57319 -4.26717 4.91752 24
572 1 -12.347 7.52022 12.1214 14
573 1 10.6367 10.8617 13.9357 12
574 1 13.9254 2.29631 12.0797 18
575 1 0.704283 8.0383 7.75494 20
576 1 -0.15288 11.9955 11.0881 14
577 1 7.84806 2.82337 6.33814 18
578 1 -1.42777 -18.992 2.91834 14
579 1 -4.03369 11.5476 -4.11391 23
580 1 11.7786 11.5075 -7.99797 12
581 1 10.9593 -5.20019 -12.8541 14
582 1 0.665982 14.9486 -3.51899 20
583 1 -1.11264 -13.2742 -6.75435 17
584 1 11.4161 -7.5359 -10.7072 15
585 1 -12.1309 1.1782 10.4276 15
586 1 -1.82946 5.07932 -11.148 19
587 1 -2.39825 -14.5938 2.92883 20
588 1 -6.21329 -1.54605 -11.4164 15
589 1 -8.37974 3.52636 -3.85321 23
590 1 11.6082 -6.75507 3.74459 16
591 1 13.624 9.94855 -0.500055 14
592 1 0.105393 -8.488 6.30149 22
593 1 -13.7874 -2.25132 -7.32038 10
594 1 1.96863 0.464274 -18.7399 11
595 1 -1.80825 6.13471 12.4869 22
596 1 6.54369 10.1784 -11.5345 17
597 1 13.5347 -1.11962 12.3109 16
598 1 6.51163 5.92854 -7.42634 14
599 1 15.9023 9.76219 1.5647 8
600 1 2.24631 -16.2758 -7.85844 11
601 1 -10.9893 -2.39945 14.7854 13
602 1 14.5439 -0.524717 5.21593 14
603 1 -0.238262 11.1735 14.1641 10
604 1 6.55771 12.5267 -9.08434 16
605 1 -12.7459 8.2617 -4.75021 13
606 1 9.08201 9.5775 5.5894 16
607 1 -8.10033 -14.5336 0.0698264 19
608 1 12.2154 -3.89935 3.77041 19
609 1 10.5331 16.0479 5.27458 11
610 1 -4.64416 5.0774 9.75786 16
611 1 -10.0373 -5.70676 1.61348 20
612 1 -11.9479 -2.49615 -9.56718 15
613 1 7.91292 -0.402021 10.3957 19
614 1 -2.32371 -11.1275 10.9436 10
615 1 8.18256 2.32427 12.3414 21
616 1 -4.7915 13.6286 -1.51696 24
617 1 9.05032 5.90885 1.77143 20
618 1 7.60193 4.37241 4.10339 24
619 1 4.77087 -0.481086 -16.5864 18
620 1 -6.85574 0.223883 7.0602 16
621 1 11.7946 -1.812 -14.0686 11
622 1 11.0804 -10.3844 -8.52488 17
623 1 5.78678 5.88898 8.95803 18
624 1 1.32103 8.57352 1.77122 23
625 1 -11.2014 0.333817 15.9158 13
626 1 11.4866 3.74554 6.75969 19
627 1 -1.1172 -2.09825 12.3751 21
628 1 1.08312 5.37826 12.6574 20
629 1 0.243072 -6.81548 -13.7148 17
630 1 -7.10978 3.76457 13.9072 18
631 1 4.91859 1.29855 10.656 16
632 1 -10.7263 -16.3868 5.40422 13
633 1 14.2575 7.57639 -1.08144 15
634 1 5.77513 -10.8528 -5.32592 19
635 1 5.45114 10.0073 -1.39305 17
636 1 13.1144 13.9952 4.62274 11
637 1 7.88646 -0.84328 -16.7566 15
638 1 3.90602 15.0468 -2.72777 18
639 1 7.26799 10.3883 1.02562 21
640 1 -8.52216 -14.6294 -3.75082 10
641 1 0.817955 -3.61566 -13.7753 20
642 1 -9.61479 11.3239 2.91849 18
643 1 8.36883 -7.57943 -9.82801 16
644 1 8.50692 7.54135 -8.84562 19
645 1 9.25117 12.2827 -2.59305 17
646 1 -8.2676 5.03285 3.7555 18
647 1 6.38527 5.64771 -3.64879 18
648 1 13.3679 0.590419 14.9228 12
649 1 11.8634 -2.5435 14.2722 14
650 1 -2.58376 -14.8556 7.7143 11
651 1 -4.20353 10.3347 -16.5 5
652 1 2.54616 11.0937 9.65035 18
653 1 8.72726 -7.53824 -12.9367 19
654 1 3.5262 0.27067 14.454 22
655 1 7.41408 15.3929 -2.50223 12
656 1 11.0747 11.8889 5.73133 18
657 1 15.0619 -7.68941 -4.68118 13
658 1 8.29341 5.92032 17.1135 9
659 1 -13.5341 -5.02481 6.95516 18
660 1 4.84618 -15.3746 -0.512352 18
661 1 1.38148 -2.65518 -8.58944 22
662 1 -8.11222 14.8741 -0.0200981 14
663 1 8.1961 12.2253 5.18155 17
664 1 -14.3399 -2.71902 4.34971 20
665 1 -1.51725 2.80591 16.6401 12
666 1 -2.05017 7.66648 -17.7668 9
667 1 -3.46137 5.94394 -14.2909 16
668 1 6.94239 -14.796 2.32616 15
669 1 7.58927 9.62054 -7.47628 18
670 1 -14.0846 5.17819 12.7942 13
671 1 6.78161 -4.65589 -14.5411 19
672 1 3.30156 -12.811 8.63493 12
673 1 -0.579052 14.8095 3.1399 18
674 1 -4.45751 1.30471 17.6692 8
675 1 -8.31174 -8.22824 -12.8485 8
676 1 -5.41232 -12.3265 -13.2212 8
677 1 -6.14981 -13.456 -9.00481 9
678 1 -0.419539 15.9052 -6.43243 15
679 1 6.29627 -4.12711 -6.15784 19
680 1 -5.09814 9.46045 6.42222 20
681 1 7.41689 -10.393 -7.90252 18
682 1 7.16502 -17.037 0.166691 14
683 1 3.01303 -5.60369 7.10289 22
684 1 14.1437 3.7655 -8.07372 11
685 1 1.45095 -13.8723 -5.38813 20
686 1 -10.8121 -3.94138 8.82523 19
687 1 -3.01907 -17.4009 1.13927 16
688 1 -6.50662 -10.6518 -5.52558 18
689 1 -9.24766 1.19225 14.4424 22
690 1 -5.44 -15.2749 2.965 21
691 1 14.2265 3.76764 -4.71388 16
692 1 -3.93189 16.9373 4.77779 13
693 1 -4.97097 3.03846 7.26167 19
694 1 -13.0669 5.75154 3.92587 18
695 1 10.2083 -1.32919 1.67063 17
696 1 -12.5255 -0.343335 -12.1492 10
697 1 -0.0612794 7.6196 -5.77941 22
698 1 9.3068 1.33763 -7.67921 21
699 1 8.28122 13.5747 13.3144 10
700 1 11.551 9.38002 -1.96914 22
701 1 -14.8082 1.01043 -5.88487 9
702 1 -11.1878 -7.7837 -7.56057 12
703 1 -0.306823 5.75006 16.0202 16
704 1 5.6265 1.40652 -14.2047 23
705 1 13.6148 11.5206 6.80976 14
706 1 0.631184 -2.08375 10.0167 23
707 1 -3.20943 -17.5274 -2.00921 14
708 1 -7.94294 -18.414 4.33707 12
709 1 -3.91747 -5.465 7.71827 18
710 1 13.6795 8.59933 7.69945 17
711 1 6.09063 -9.26057 -11.2484 20
712 1 -6.59768 7.50467 -0.43734 21
713 1 6.70437 7.52288 2.97431 19
714 1 -6.63745 -3.84493 4.84287 22
715 1 7.57647 7.05385 -12.6251 15
716 1 -1.7954 -15.5824 -5.04332 15
717 1 1.87512 -19.5456 1.71477 15
718 1 1.94577 -14.095 -2.01211 19
719 1 4.963 2.3992 -10.5765 21
720 1 6.247 18.763 2.10449 10
721 1 -2.15397 -1.82977 -16.2725 17
722 1 -0.00909208 1.13524 12.9973 20
723 1 0.0139618 4.99725 -13.614 18
724 1 -11.4781 -1.98768 -14.3384 10
725 1 -12.4361 -5.70233 -0.0414071 16
726 1 2.15197 17.0089 -5.06117 13
727 1 -3.23454 -6.93729 -16.3865 14
728 1 -7.69719 -9.40737 -2.19138 18
729 1 10.6568 8.64237 -7.80006 16
730 1 11.2714 -6.54224 -0.97221 23
731 1 -6.89881 6.64205 10.4976 18
732 1 5.22158 -8.63308 1.91701 19
733 1 14.6837 -6.91627 -0.998592 16
734 1 12.0064 -4.26453 11.2058 16
735 1 -2.10204 8.83289 7.13125 20
736 1 -11.7955 2.90831 14.4199 17
737 1 -11.8334 4.94489 10.9359 19
738 1 -5.36057 -13.1672 6.14924 20
739 1 9.51474 1.25358 4.67805 20
740 1 9.25787 8.38236 13.1039 20
741 1 -17.4611 -1.36977 1.13595 10
742 1 9.98538 -6.63166 -4.14861 21
743 1 -12.3483 11.5155 -4.49408 10
744 1 2.65077 12.1515 3.06026 18
745 1 3.24156 -15.4396 5.34084 11
746 1 3.38779 -3.13345 15.4788 14
747 1 -3.45728 12.1411 6.78907 22
748 1 0.173607 -11.5751 7.47688 22
749 1 -8.40177 -0.957325 -0.991701 24
750 1 3.84196 3.86666 10.1574 17
751 1 -14.0069 -4.22935 -2.08261 18
752 1 3.28352 12.627 13.0925 13
753 1 4.47212 8.86529 -4.0344 16
754 1 -12.8549 -11.4086 1.9445 13
755 1 -4.55908 -18.471 3.64192 12
756 1 6.95618 -2.71133 9.39457 21
757 1 11.1554 -7.27934 9.62728 13
758 1 7.85727 7.99642 7.70086 17
759 1 0.471623 -9.05777 -8.59076 21
760 1 -3.54476 0.159975 -11.114 18
761 1 -6.28349 1.1084 12.9775 22
762 1 -0.242991 17.4672 4.07192 12
763 1 14.5669 2.14494 2.51508 14
764 1 2.68736 7.95785 -6.0179 18
765 1 -4.71824 7.62156 16.5328 11
766 1 3.59131 8.63246 7.21997 21
767 1 10.2773 -2.85295 -11.2387 15
768 1 -5.69122 -12.5202 -2.75099 20
769 1 16.6955 -1.10065 7.22058 8
770 1 2.25336 -5.21548 -11.5431 19
771 1 2.58557 10.4962 15.1063 12
772 1 8.69215 -14.9569 -8.8185 9
773 1 3.52852 8.66942 -15.9464 10
774 1 -1.90439 -8.41428 -4.65737 20
775 1 12.2258 6.44529 -9.80343 11
776 1 15.9307 -3.33144 -0.739413 13
777 1 5.87938 -7.64849 11.6381 12
778 1 -0.708683 -11.9602 -10.3161 19
779 1 7.99231 13.7645 0.0562575 17
780 1 -17.2746 1.72494 6.60142 12
781 1 8.91858 6.34264 -5.15206 16
782 1 13.3994 4.77688 2.24549 18
783 1 3.79088 -5.81681 -14.7855 17
784 1 -9.11562 13.3971 5.99204 15
785 1 16.1198 8.49304 5.19805 10
786 1 11.6655 12.8026 -5.30436 14
787 1 2.31093 1.54941 -11.8468 22
788 1 9.98889 -3.00677 -0.692924 19
789 1 -10.4786 2.22133 -1.66218 20
790 1 11.4082 7.23609 2.9105 15
791 1 -11.8617 -12.2477 -1.22544 11
792 1 -10.9505 9.20963 -9.86804 10
793 1 4.69514 3.05018 7.14804 22
794 1 -11.4494 -0.587659 -6.02634 18
795 1 -11.8625 2.03698 7.13353 19
796 1 -2.14119 2.55253 -8.59776 22
797 1 11.6963 -7.22333 -7.45058 19
798 1 -8.19034 -9.17885 -7.72847 16
799 1 12.9019 -8.72952 -2.77318 20
800 1 -16.4765 4.5254 4.45052 10
801 1 -10.8363 -3.23226 -0.413342 19
802 1 13.8019 6.54473 5.85839 17
803 1 -4.92671 -9.63672 5.31544 18
804 1 10.1877 0.864399 15.0148 13
805 1 14.2971 -1.76491 9.74523 14
806 1 6.50788 -3.79094 4.03975 20
807 1 -10.6063 4.09504 5.04843 17
808 1 0.183727 9.21267 11.4344 22
809 1 3.46239 8.10321 -10.8282 19
810 1 -0.423814 -8.16647 -16.0874 10
811 1 -6.44883 14.733 5.15632 16
812 1 -12.4075 -11.9481 5.2715 10
813 1 8.33058 11.9513 -5.05896 17
814 1 3.29222 8.79314 12.4193 18
815 1 16.4408 -4.21196 -6.57965 8
816 1 4.81842 -7.57017 8.54287 18
817 1 -1.08247 14.1991 -12.0842 12
818 1 2.1937 12.4165 -8.2251 19
819 1 -6.08785 -2.00225 12.5728 19
820 1 16.282 4.83516 4.41256 13
821 1 -3.40364 -2.47841 -12.8544 20
822 1 13.2971 12.0104 1.92593 11
823 1 -14.687 3.93401 1.63929 13
824 1 -0.26247 -13.3342 9.42518 12
825 1 4.26222 14.291 -9.98562 9
826 1 9.05115 -2.63021 12.2969 21
827 1 0.74488 -11.8725 -1.10673 17
828 1 -5.67951 13.1032 2.03607 22
829 1 -11.6028 4.67452 -2.70454 15
830 1 11.4962 -1.35546 -7.00337 17
831 1 1.43825 -12.0295 -12.7504 15
832 1 -6.81325 7.95076 4.67066 23
833 1 14.6093 12.6382 -6.38433 6
834 1 -4.95946 -2.73474 7.61755 18
835 1 8.98966 -3.83814 -17.7985 10
836 1 -7.21665 -10.5383 -10.7176 16
837 1 1.3023 -8.81549 -2.7173 20
838 1 -2.38373 8.44522 14.7206 13
839 1 7.46792 -14.9567 -2.10425 13
840 1 -1.59332 10.7493 -12.5901 16
841 1 15.3596 1.13801 -3.33652 14
842 1 6.37866 5.07106 2.10308 19
843 1 3.04554 -18.5387 -1.3151 14
844 1 5.61527 -3.29413 -17.4708 15
845 1 11.5785 -1.1581 4.72789 23
846 1 -2.67915 3.03603 -13.6815 19
847 1 -1.65861 -7.25239 9.43749 17
848 1 4.97347 11.2554 -6.19605 17
849 1 6.48368 1.72023 -6.2386 19
850 1 -11.4054 5.94004 -6.08807 16
851 1 -15.3818 3.19368 9.73343 14
852 1 2.30135 7.90557 16.8913 12
853 1 -6.81499 -10.425 8.0689 18
854 1 6.0612 9.80442 4.68713 20
855 1 0.532091 -16.4932 3.39314 20
856 1 1.61529 8.49132 -2.9155 22
857 1 -5.22289 6.51011 13.4733 19
858 1 -7.96917 -0.152823 10.2368 17
859 1 -11.6677 11.4321 6.55994 11
860 1 9.68494 1.80243 -1.79352 19
861 1 -5.27422 -10.6541 12.8252 7
862 1 5.58535 -11.1833 6.89953 16
863 1 11.4864 6.48401 8.34189 18
864 1 11.256 -3.55248 -3.40512 19
865 1 5.41532 -15.2278 -9.22765 13
866 1 -5.70065 0.765333 -13.6969 18
867 1 -1.13725 1.43942 -16.7167 17
868 1 6.81427 14.9865 10.1157 11
869 1 -11.7734 -5.79642 13.6546 9
870 1 -3.48973 5.96416 -9.01812 20
871 1 -11.5745 2.41538 -4.83384 19
872 1 10.8003 11.9911 0.630878 17