ITEM: TIMESTEP
8000
ITEM: NUMBER OF ATOMS
2000
ITEM: BOX BOUNDS pp pp pp
-30.0 30.0
-30.0 30.0
-30.0 30.0
ITEM: ATOMS id type x y z Coordination
1 1 -7.64646 6.85801 -14.14 15
2 1 -3.35184 -10.7634 -9.34189 19
3 1 2.84744 12.642 15.436 13
4 1 7.96422 -11.9343 5.97468 17
5 1 -9.72932 9.36366 3.42003 15
6 1 11.1882 -7.74709 -9.05514 15
7 1 -13.8318 5.04128 -4.54499 16
8 1 -0.518354 -7.42121 10.9645 18
9 1 -9.10752 1.2356 -9.45004 16
10 1 -13.0091 -9.45796 7.16313 16
11 1 12.7469 2.02687 -7.72685 21
12 1 -4.35511 -11.4146 1.54401 19
13 1 -14.694 -6.58051 1.24021 15
14 1 -0.0778145 4.19071 13.9605 21
15 1 0.44224 3.94272 10.251 20
16 1 -0.885834 13.098 -8.70059 20
17 1 -1.01171 0.642516 13.6568 19
18 1 -7.36883 0.236692 -15.0695 16
19 1 -11.8931 -2.81289 12.2073 16
20 1 15.5079 5.70661 9.80218 17
21 1 0.20812 11.1125 -10.6927 20
22 1 1.32464 5.13618 -14.2854 19
23 1 15.9421 2.34185 13.5157 8
24 1 -15.5568 5.41739 -7.09416 9
25 1 -1.80438 -2.68701 -8.52562 25
26 1 -11.3711 10.666 9.78711 15
27 1 9.01348 -14.5354 3.18732 10
28 1 3.07348 -12.9322 -8.70905 13
29 1 10.8591 -12.9837 0.136633 10
30 1 -8.98678 -13.1258 -4.92658 13
31 1 -11.604 -5.76079 10.6151 18
32 1 -0.125252 -8.0021 -13.2017 20
33 1 8.85276 -7.41603 -11.7148 16
34 1 -2.99511 7.13478 -17.512 12
35 1 -0.0634209 6.4757 11.6426 20
36 1 -1.83047 -11.2385 6.46451 20
37 1 3.7861 -4.89586 13.6886 10
38 1 -10.2344 1.16767 2.20363 21
39 1 -16.0095 -1.05334 7.77566 12
40 1 -8.7331 -0.70833 -1.37274 20
41 1 -3.43774 13.0605 -1.15621 18
42 1 -0.84694 -13.9792 -11.8336 9
43 1 0.741926 2.79931 -8.4964 23
44 1 2.53362 -2.73239 -11.23 20
45 1 -2.3211 -2.77723 12.4907 17
46 1 -14.4153 5.1745 0.949677 17
47 1 1.59048 13.3072 -11.9362 12
48 1 3.54747 15.3274 11.0184 11
49 1 -2.68092 8.86065 -5.61133 20
50 1 1.19983 11.0775 -1.71559 17
51 1 1.20491 -11.9397 4.84187 21
52 1 8.42026 -9.31537 -9.03813 19
53 1 4.47206 -5.83041 -15.6332 15
54 1 -9.20246 10.6588 11.5918 16
55 1 -14.7853 -3.00294 -7.02401 10
56 1 5.84179 0.52022 8.36287 20
57 1 -9.20624 6.85836 -4.18397 19
58 1 -8.35805 -9.04721 7.94481 20
59 1 -1.5021 14.4849 12.2074 13
60 1 -13.4702 8.00102 -5.90512 11
61 1 -6.21037 11.5059 13.3675 11
62 1 -4.109 -16.4418 9.27214 10
63 1 -0.267585 5.62601 7.43654 21
64 1 2.42279 -14.5654 -3.90393 17
65 1 6.0248 13.8637 16.0554 10
66 1 -13.2563 4.69588 -9.65096 9
67 1 -7.81366 6.44407 -10.3819 21
68 1 5.84449 6.57842 11.1153 21
69 1 13.7803 -2.45418 -11.0861 10
70 1 11.2483 -12.0722 4.8717 10
71 1 -17.1486 -1.87838 4.67846 10
72 1 7.18897 17.9437 5.11403 12
73 1 3.63788 -2.37739 12.8708 15
74 1 -7.78369 -11.1235 5.9066 17
75 1 -11.6819 -0.554053 -0.0502696 24
76 1 10.7913 2.96397 6.70345 20
77 1 6.54637 -5.5423 -3.59615 22
78 1 0.434088 16.4593 10.6403 12
79 1 6.00661 -2.28269 7.14882 19
80 1 -5.81441 -8.30038 -9.71054 22
81 1 -16.6099 7.87148 8.65709 13
82 1 -7.89015 9.64258 0.566995 19
83 1 -1.75777 8.05532 -11.3738 18
84 1 6.90709 -3.42035 -5.92295 20
85 1 7.88207 11.3816 -7.67164 16
86 1 6.42039 -5.86749 1.76327 16
87 1 4.03556 -10.8984 11.3352 9
88 1 -4.63928 13.7778 -4.71943 18
89 1 -11.2658 11.326 4.63761 19
90 1 -7.43099 -3.57189 15.3921 14
91 1 -6.66017 8.05559 3.55802 21
92 1 -5.81053 -5.53641 10.4409 20
93 1 13.1235 -7.07636 -5.90594 14
94 1 -10.3782 2.99145 4.23854 21
95 1 -13.0127 -12.9326 7.00497 9
96 1 10.2285 -7.00015 -6.62042 21
97 1 3.97389 0.0727002 -12.1679 15
98 1 -6.28609 0.128805 -18.0345 8
99 1 -0.435371 13.2047 -0.463281 17
100 1 -7.75259 6.7871 -6.73889 19
101 1 2.71707 9.09442 16.7706 18
102 1 -1.71794 15.6729 -6.36982 17
103 1 -13.6849 10.597 2.86468 15
104 1 1.52421 8.70025 1.9846 20
105 1 -6.66725 -6.5129 7.56129 23
106 1 18.5365 1.49547 10.6375 5
107 1 -0.839418 -5.33184 -8.37222 22
108 1 3.58467 -5.44686 -9.22168 20
109 1 -4.5608 4.85119 9.80934 20
110 1 3.84854 0.602284 16.2908 11
111 1 -11.0998 -4.52124 -3.36382 21
112 1 -8.41911 -8.74463 -3.60662 20
113 1 11.4765 -9.99643 1.88364 13
114 1 -3.47616 7.69262 4.55453 19
115 1 9.11353 3.68337 -12.8931 15
116 1 6.96871 17.3012 -0.790414 12
117 1 -5.14847 -10.9107 12.205 14
118 1 -7.60252 -12.0141 9.78784 17
119 1 1.61044 -6.61305 -16.3106 18
120 1 4.67105 6.2491 -8.3511 17
121 1 9.71406 -10.2158 -1.1446 18
122 1 -1.70468 -13.6861 4.30359 20
123 1 -8.83426 -8.41853 1.19361 20
124 1 17.4348 9.99014 7.53963 6
125 1 15.4383 -3.21905 -8.95609 11
126 1 -14.1328 -5.13971 3.92083 16
127 1 9.61388 10.0592 6.97633 19
128 1 12.1849 7.60454 6.3066 21
129 1 -5.09028 5.55484 14.986 17
130 1 -2.26257 13.9763 9.24468 19
131 1 -6.00945 10.8401 -5.53054 18
132 1 -2.20788 -5.85482 -11.7627 20
133 1 10.6559 -10.6857 -10.7288 7
134 1 4.40909 17.6601 -4.05586 12
135 1 7.06653 -6.91077 10.5073 14
136 1 -1.70906 -1.92385 -17.6336 16
137 1 0.21072 7.84431 -5.85194 19
138 1 12.7018 -0.819277 -4.89632 20
139 1 -10.3639 8.91049 -6.78619 14
140 1 -8.95844 14.2407 1.96251 14
141 1 9.26021 0.866214 -8.94544 21
142 1 9.34652 -9.71213 5.29037 19
143 1 -5.71792 4.11515 -5.83853 21
144 1 -9.2114 13.8988 7.82532 14
145 1 12.478 8.62468 -7.32293 11
146 1 5.93278 10.6231 -5.19812 20
147 1 -4.90189 16.6834 4.13611 14
148 1 14.3406 11.8109 -1.69478 9
149 1 -5.58152 8.39687 -4.47603 18
150 1 3.41937 17.4861 -7.40699 12
151 1 3.9269 11.3799 -10.5251 16
152 1 -14.1907 -11.0139 4.20164 11
153 1 -13.6943 10.4365 -0.163593 10
154 1 -5.00246 -1.30195 -13.8677 19
155 1 0.135472 -9.40712 -16.2371 10
156 1 9.91374 14.3302 10.5063 11
157 1 -3.55839 18.46 6.81244 10
158 1 -9.42196 -3.83697 -6.83617 18
159 1 -12.5171 13.3945 1.72995 13
160 1 16.8132 2.96697 -3.83827 14
161 1 -8.94869 3.58624 -13.7507 13
162 1 6.91847 1.89523 16.7504 10
163 1 7.02333 18.9878 1.864 8
164 1 -5.10454 9.08973 6.85759 20
165 1 2.56467 -5.38801 -18.9358 9
166 1 -5.93706 14.4798 8.49048 17
167 1 -2.84981 12.5624 -6.5987 21
168 1 0.705672 -2.71644 12.5545 23
169 1 -12.5004 -3.68042 1.45543 22
170 1 -4.05087 -12.0456 -12.1882 11
171 1 -6.1059 9.28558 -8.20752 20
172 1 -3.9004 -9.7683 3.86064 20
173 1 4.0107 -12.2601 -4.52326 19
174 1 -5.46731 13.5564 -12.1537 10
175 1 -14.6059 2.17256 8.70548 17
176 1 9.47001 10.0336 -1.41762 20
177 1 -7.91656 4.80506 13.5504 16
178 1 -1.7979 -10.4417 12.2642 13
179 1 -8.55229 5.06955 -1.01149 21
180 1 1.56021 16.8177 2.75073 14
181 1 -0.77736 9.96443 11.1288 19
182 1 14.4616 5.4807 12.9376 13
183 1 -6.01307 13.477 2.55353 17
184 1 14.9405 -5.10792 -5.70982 12
185 1 -4.75365 14.5359 11.749 11
186 1 -7.25948 1.7079 -5.91118 19
187 1 10.6803 -6.30246 3.02477 14
188 1 -8.33168 -6.57207 5.3844 20
189 1 -15.9219 1.45468 5.64727 13
190 1 -7.00966 -9.13499 4.15282 19
191 1 4.68963 6.49693 16.6097 18
192 1 -12.8214 2.61979 0.11648 19
193 1 -4.56016 -13.4956 -0.385011 21
194 1 5.43437 -8.27531 -3.45927 21
195 1 -1.26493 10.4478 4.28258 18
196 1 4.70585 15.4124 14.0235 9
197 1 -9.88498 0.0448272 -4.87606 22
198 1 -3.86831 13.9167 -9.13051 17
199 1 -14.0148 -4.86493 -3.95594 13
200 1 -10.7526 -0.328652 11.2784 21
201 1 -0.741603 -8.79488 4.82656 20
202 1 5.65698 -12.3755 8.68519 11
203 1 -14.2043 12.5029 4.63251 10
204 1 16.0573 4.03488 6.23131 12
205 1 4.75971 4.68434 -5.82942 24
206 1 -8.6941 -5.93615 -14.3525 12
207 1 3.887 -1.37869 10.5208 18
208 1 6.1483 -16.6422 1.44676 8
209 1 -1.76258 6.98133 -14.3089 15
210 1 3.41284 -7.89845 -11.6757 23
211 1 9.5174 0.214347 -12.5473 16
212 1 2.35886 6.17316 -16.9698 15
213 1 -10.8913 -4.2139 -8.88533 20
214 1 -4.34392 16.108 -6.63558 11
215 1 -9.108 -10.7376 11.2791 12
216 1 9.87656 15.7036 -0.287848 14
217 1 -6.42739 2.18432 15.4387 15
218 1 -7.84162 13.5453 -3.78253 13
219 1 6.23309 3.33829 10.262 21
220 1 -7.31238 -2.84251 -12.8088 20
221 1 -0.709069 9.18001 -8.97266 18
222 1 2.45565 5.22417 -10.8735 21
223 1 -5.90862 -9.8816 8.7457 19
224 1 -9.58772 6.07275 7.59823 16
225 1 -7.55891 6.26492 9.83017 18
226 1 1.56147 -11.5421 -12.0413 14
227 1 -5.214 -14.1841 2.176 19
228 1 10.1733 -11.8879 -3.9267 13
229 1 13.4422 8.40257 14.9155 7
230 1 10.995 6.15948 -6.96118 17
231 1 3.20021 11.6923 0.669503 20
232 1 -8.55034 3.26804 1.26713 20
233 1 -10.863 11.187 0.712246 19
234 1 1.29762 7.65459 9.3666 21
235 1 0.944618 -14.2869 2.33564 19
236 1 10.783 1.65818 -5.08725 21
237 1 1.08488 8.99239 6.5112 19
238 1 -11.2709 6.95248 3.9667 17
239 1 -9.78968 -6.40997 -5.04175 17
240 1 7.79236 6.86182 -13.5764 11
241 1 1.20431 -0.752444 9.92896 20
242 1 9.38405 8.40509 -8.12001 15
243 1 2.99899 -9.10797 -5.57448 22
244 1 -2.35586 -1.51826 -11.2771 24
245 1 -0.127048 -17.3367 5.09717 11
246 1 8.63915 -0.284926 -5.39487 19
247 1 -8.84886 -2.29366 7.30073 23
248 1 3.4544 -12.7225 -0.867199 16
249 1 -12.9239 -6.68924 -9.97495 8
250 1 4.22298 15.9035 -1.80143 21
251 1 -1.0104 -0.845707 -13.7951 21
252 1 5.32393 4.66183 13.1069 17
253 1 16.0619 3.92798 2.61473 10
254 1 9.74302 -5.41081 -9.38751 17
255 1 -7.98938 -2.91003 -9.68625 21
256 1 -13.1064 1.78457 -9.09915 13
257 1 -5.65588 -14.1017 8.15174 18
258 1 8.57953 1.80301 9.89393 18
259 1 4.16454 -4.88903 7.65929 17
260 1 -7.24849 -8.14995 -11.7991 18
261 1 2.16016 -7.17557 8.21174 17
262 1 2.69652 9.78861 -12.3879 16
263 1 6.03373 12.2837 2.21326 24
264 1 -7.10065 -5.40605 2.34181 18
265 1 0.716488 12.0318 2.24876 20
266 1 -8.26995 -2.48363 11.2054 22
267 1 -12.1471 -9.10024 -6.99278 12
268 1 -6.27672 -5.43089 -11.9057 22
269 1 -1.58294 9.82232 -15.67 10
270 1 -4.97112 -10.3365 -6.42734 22
271 1 -2.27149 -8.58917 1.51187 19
272 1 7.11983 -3.93317 -15.7432 13
273 1 14.3012 0.101587 -9.00342 12
274 1 11.1636 4.89545 4.97958 18
275 1 -10.4584 -3.22641 9.33652 20
276 1 -3.85132 -9.73401 -1.06454 19
277 1 8.54447 3.99276 15.42 16
278 1 -7.08021 -14.3425 4.94257 18
279 1 -0.870827 -11.6238 2.30721 21
280 1 -3.57543 16.5382 -0.883495 14
281 1 7.23916 -0.515049 -15.1916 16
282 1 -5.48657 -3.2587 -18.8803 9
283 1 -9.81065 -7.48319 12.2859 13
284 1 5.25859 8.28879 18.9086 10
285 1 0.918536 -11.2215 -3.03791 21
286 1 -6.55086 -11.1519 -10.1656 14
287 1 -11.9154 7.75357 -9.12024 10
288 1 9.44273 8.56915 4.42344 19
289 1 -6.06034 2.54714 -9.02746 19
290 1 1.08418 7.78388 -11.1289 18
291 1 -5.08016 -2.77319 7.12824 22
292 1 4.69808 -11.9284 -12.9315 9
293 1 -6.62147 15.2169 -1.85842 12
294 1 0.934088 11.7311 5.9062 20
295 1 9.37875 1.51503 4.57058 20
296 1 -8.73831 -1.04202 4.41659 20
297 1 -1.48535 -7.07068 14.2932 10
298 1 -6.44905 11.2867 8.11045 19
299 1 1.95543 -5.59213 -13.5534 20
300 1 11.979 13.8747 -1.60274 13
301 1 3.17286 -9.4002 -1.77949 17
302 1 -1.03263 -1.43217 15.7842 14
303 1 -15.3763 -3.98288 7.14232 12
304 1 0.0105536 -17.0649 -3.7993 10
305 1 -11.2016 8.76418 7.39224 20
306 1 -12.6228 5.81925 12.4929 14
307 1 -13.9046 -3.03454 9.88008 15
308 1 -13.6323 -6.38265 8.39873 16
309 1 14.4887 -3.60719 -3.29341 15
310 1 -11.6678 -8.9554 10.2998 10
311 1 6.80429 -0.490031 -8.0968 19
312 1 5.77508 -15.0827 -4.41996 11
313 1 1.98861 18.2574 -1.95484 11
314 1 -10.0099 13.2513 -2.0374 10
315 1 8.03745 7.74183 9.51828 24
316 1 -11.4391 -1.51921 2.9221 21
317 1 7.71093 -8.22565 -6.12114 21
318 1 -5.08193 11.4168 4.53522 20
319 1 -8.7895 5.48753 4.18415 23
320 1 8.83731 -10.9207 8.0832 11
321 1 10.395 -2.51688 3.45531 17
322 1 -3.44336 6.01515 7.01143 19
323 1 -6.63212 -3.78632 -6.04386 20
324 1 -2.19849 2.38352 15.9834 14
325 1 -2.57887 13.6291 4.18984 16
326 1 10.9361 6.4188 16.7349 10
327 1 -6.78721 13.0043 -7.26509 15
328 1 0.386012 -3.42486 -18.5241 16
329 1 4.86545 -4.68728 -12.5796 22
330 1 -9.51834 2.04973 11.9996 19
331 1 -16.4028 3.60142 3.36864 13
332 1 -4.08344 -5.47641 -9.28772 22
333 1 -4.78767 9.14742 1.54558 19
334 1 8.99556 -1.24208 8.00593 20
335 1 -11.1717 -12.6118 3.17975 18
336 1 6.99308 -5.17475 7.68043 20
337 1 -6.23542 -8.729 15.1852 7
338 1 -15.7 7.97629 2.44929 11
339 1 -3.43614 -3.84673 9.87024 20
340 1 3.50778 -10.4025 -10.2611 16
341 1 -5.15099 -2.61856 -8.75478 22
342 1 9.78442 -2.28312 -14.1203 14
343 1 4.592 14.3905 1.40986 19
344 1 -12.2472 -0.793178 -2.88243 21
345 1 7.81834 -4.51769 -11.8826 24
346 1 12.1582 5.14861 -12.0671 11
347 1 -5.04102 -13.753 -5.08729 14
348 1 -13.2719 -8.12308 -3.67682 14
349 1 -5.29104 -6.60205 -1.34837 18
350 1 11.5761 3.869 15.3073 11
351 1 13.6347 1.9882 -4.0337 17
352 1 -7.40118 4.05997 -11.3169 20
353 1 3.931 17.381 0.821478 13
354 1 -13.0293 0.306604 -5.83831 18
355 1 -8.24777 8.87216 6.20232 20
356 1 -7.62143 11.342 3.25915 18
357 1 -6.60315 6.40076 6.9066 22
358 1 8.19526 5.83216 12.7259 19
359 1 11.7823 -4.14226 -5.05113 20
360 1 7.13561 -3.7023 14.418 8
361 1 15.9907 3.69299 -7.16161 11
362 1 -7.25527 -15.9188 0.661705 14
363 1 0.528328 -11.4962 -8.90686 20
364 1 -1.83816 8.68163 1.66264 20
365 1 -8.54426 3.33472 -3.76888 22
366 1 6.738 -9.70154 -1.1937 18
367 1 12.1534 0.559911 8.59255 16
368 1 -10.4397 -7.47693 -8.50159 19
369 1 -6.18298 -8.92919 1.12003 19
370 1 -7.35028 -5.88814 13.5377 16
371 1 -2.13228 10.4483 -0.585193 20
372 1 -10.5374 -8.73517 -1.3263 20
373 1 7.46456 11.0624 15.2082 17
374 1 -10.2095 7.83795 -1.10004 20
375 1 2.83725 14.3824 -9.14388 18
376 1 2.76985 14.1448 4.25349 19
377 1 -13.4244 -8.86445 -0.482288 14
378 1 -2.58948 -8.31299 -8.1669 18
379 1 -9.98245 1.09185 6.82135 21
380 1 -13.6242 7.83341 -2.59657 14
381 1 7.25601 -8.47619 7.23783 22
382 1 -3.39553 -11.9951 -3.52357 19
383 1 11.8855 11.581 10.3047 11
384 1 4.15042 7.45522 -13.9606 15
385 1 -10.6795 4.88628 -10.9706 14
386 1 0.981384 17.853 -8.61027 12
387 1 -10.6326 5.42912 -6.59939 16
388 1 -2.5073 -14.6249 1.47332 21
389 1 13.3849 5.358 8.02512 19
390 1 0.574756 8.03166 -18.8497 6
391 1 -4.88182 1.70443 9.40495 23
392 1 -16.1892 2.47574 0.449785 11
393 1 -7.1498 2.05602 4.4246 23
394 1 -4.47596 -12.6729 5.48856 22
395 1 6.18056 -6.88878 -10.8306 20
396 1 -11.9363 0.377088 4.83809 17
397 1 -14.0066 -0.336279 10.4698 14
398 1 -17.5164 10.4661 7.1259 7
399 1 -0.275719 -5.40631 7.30709 19
400 1 -4.87473 2.21019 -15.5029 19
401 1 9.02391 -14.6528 -5.95867 9
402 1 -1.04366 -11.2399 -12.9023 14
403 1 -5.69219 -2.98978 12.873 19
404 1 1.52995 -6.48545 -6.30927 23
405 1 -3.67065 3.63952 -17.5592 10
406 1 9.45062 -11.7107 2.79767 15
407 1 -0.612761 11.5906 -4.40916 18
408 1 -14.2578 9.79778 8.81757 12
409 1 -4.29338 -3.10432 15.7441 14
410 1 -10.7408 -3.83285 -11.7997 17
411 1 -12.3822 -6.7716 5.81106 16
412 1 9.65622 -5.16808 9.64659 13
413 1 3.17235 -0.138755 -8.87512 24
414 1 9.9078 -8.66021 9.34701 11
415 1 14.2814 8.49725 -1.62482 13
416 1 -2.88839 7.36681 10.994 19
417 1 5.59253 13.4038 -1.04569 24
418 1 6.46716 -3.97918 4.46223 19
419 1 -0.358125 -13.7212 -2.81421 18
420 1 -3.72698 7.39092 16.7115 13
421 1 -3.22009 16.5827 9.73257 12
422 1 -9.93619 -11.1866 -7.3091 14
423 1 10.3857 13.8756 2.62159 18
424 1 2.93192 6.04842 6.78682 20
425 1 -8.63315 3.47285 7.13576 20
426 1 -5.08608 -8.84894 -3.90507 19
427 1 -10.4042 4.75955 10.1325 19
428 1 -7.79523 -8.76557 -6.46343 22
429 1 -9.02284 10.42 8.48953 17
430 1 -6.93177 -14.3288 -2.84195 14
431 1 -2.15623 -6.71068 -15.3851 17
432 1 -12.1693 -15.2231 4.30954 7
433 1 -7.07352 -3.68767 4.80945 24
434 1 7.97396 4.69746 4.66964 21
435 1 -4.86193 -5.52374 15.4207 12
436 1 -6.2957 9.08178 -11.2407 17
437 1 6.33733 5.65587 1.84925 23
438 1 -7.93405 -13.4798 -0.318245 16
439 1 -1.51111 17.3547 1.63549 12
440 1 -0.019579 6.17784 -8.39635 22
441 1 -0.938754 11.0223 7.99357 17
442 1 -13.6721 -3.1846 -1.44405 17
443 1 -1.76597 18.2568 -3.64899 8
444 1 2.41598 11.4432 -4.76105 19
445 1 -7.66741 -6.23479 -8.57322 21
446 1 3.33543 4.04083 15.7823 18
447 1 -0.0171146 -14.8591 -8.54649 12
448 1 -0.0898081 -3.46283 -11.2205 19
449 1 7.98157 -14.0914 0.359102 14
450 1 -14.3162 8.92549 5.77343 19
451 1 3.70263 6.69078 13.9013 20
452 1 9.25343 6.509 -3.07772 22
453 1 5.84907 10.5137 4.34084 20
454 1 -5.94741 11.4844 -9.96148 13
455 1 3.52661 3.58835 -8.44058 20
456 1 2.8479 -9.14759 4.37428 20
457 1 -15.9815 -7.67668 -1.30863 9
458 1 4.67115 16.0632 3.88671 16
459 1 -4.80211 8.03164 -14.0552 15
460 1 7.34841 8.89474 2.35881 22
461 1 6.06955 15.4749 -6.26025 13
462 1 8.98951 -8.5297 1.51309 20
463 1 16.2828 1.66421 -0.346436 11
464 1 -1.29396 2.0063 -11.1091 24
465 1 1.26785 -8.54986 2.07874 22
466 1 2.32079 -12.3773 7.58483 15
467 1 1.29536 -9.98858 10.1164 15
468 1 -8.2694 4.27351 -8.25749 18
469 1 -9.983 -14.2161 8.59852 9
470 1 -4.04609 -9.18675 -11.5335 20
471 1 9.05541 16.1108 7.76939 11
472 1 -1.23451 4.8438 -10.6406 20
473 1 1.77031 -1.33135 15.1981 14
474 1 -13.4342 2.79902 11.7643 18
475 1 -0.618643 -16.5272 1.70902 18
476 1 -15.0476 -2.68967 1.83681 16
477 1 15.6751 -2.15814 -5.91977 12
478 1 10.3178 -0.0252384 -2.44452 19
479 1 -4.53703 7.03041 -6.45826 20
480 1 5.21149 -8.18882 -8.36343 21
481 1 2.44774 2.30706 -10.9014 19
482 1 8.99639 -2.18173 -8.91312 22
483 1 -4.12834 0.271087 15.9963 15
484 1 7.50171 14.9968 1.66618 18
485 1 -4.0977 -0.492962 -16.5214 14
486 1 8.16367 3.93664 -15.8907 10
487 1 -6.88432 -3.59465 8.65182 20
488 1 -3.3825 15.0545 1.96779 17
489 1 -8.95235 -0.598835 -11.6602 22
490 1 -16.791 0.175554 2.98386 14
491 1 -2.79219 -9.91049 -14.7936 14
492 1 -6.84806 -8.28314 11.2107 19
493 1 0.901557 10.9903 -7.22408 17
494 1 18.1064 4.43035 8.91083 9
495 1 15.6023 6.12453 0.421085 12
496 1 -10.1881 -10.8644 0.397851 18
497 1 -0.228341 -9.30323 -0.613604 20
498 1 -2.4033 -4.43019 -20.1916 8
499 1 -7.90513 13.1985 10.5361 12
500 1 1.90811 -3.02873 -8.6413 21
501 1 9.53754 -4.10239 -1.0803 16
502 1 0.646595 13.7643 -5.84088 17
503 1 4.62384 -6.54678 4.76673 22
504 1 15.3389 6.75145 -8.11859 8
505 1 3.67749 9.71129 11.4076 17
506 1 -11.8275 3.96611 7.10628 20
507 1 4.64566 12.471 9.78289 15
508 1 7.00149 -0.323082 14.9592 15
509 1 2.98844 2.63453 -13.8506 17
510 1 -5.24571 -6.88445 -6.75527 19
511 1 -0.33277 -3.67042 9.90236 18
512 1 7.69157 13.5402 7.26727 21
513 1 8.73638 5.4082 -10.73 17
514 1 -8.4065 9.51898 -3.44849 17
515 1 -3.76334 11.115 -3.50846 19
516 1 8.49304 -3.46469 11.0092 13
517 1 11.1302 2.61385 -10.5229 16
518 1 10.9862 -9.25901 -4.56955 18
519 1 13.8625 7.97545 11.2071 12
520 1 -15.6421 -9.25656 2.23423 11
521 1 -1.91461 13.7437 -12.0715 13
522 1 -1.14201 1.32548 10.6548 17
523 1 -12.8391 0.20716 13.7194 13
524 1 -1.07565 15.5209 -9.11777 12
525 1 6.87114 -12.2961 -2.39726 19
526 1 5.05352 -2.50372 -8.95233 20
527 1 -2.27298 15.4373 -3.58992 17
528 1 -9.2739 -2.57603 -14.5581 13
529 1 4.44123 -14.559 2.42088 15
530 1 -10.4153 -6.13506 0.926015 20
531 1 -0.800266 10.7963 -13.4076 16
532 1 -1.97746 8.89797 13.8516 21
533 1 -11.8669 -3.37871 6.06393 20
534 1 4.70393 8.21782 -2.76191 23
535 1 1.65921 -8.47855 -8.63366 20
536 1 2.67855 -7.78508 12.0146 14
537 1 6.38283 2.06004 -6.04906 22
538 1 -12.5928 7.35086 0.579969 18
539 1 7.45727 5.32842 18.0259 10
540 1 5.08883 13.6855 -3.62214 19
541 1 9.66692 -6.33066 -3.59853 18
542 1 6.10344 10.4877 8.43366 21
543 1 1.63054 2.75954 -16.446 21
544 1 -3.88095 -12.6326 10.0742 13
545 1 -3.37613 0.292513 -8.75026 21
546 1 9.76612 1.23279 -15.261 9
547 1 -0.27185 14.4644 2.88359 21
548 1 9.6045 3.4518 -7.62444 20
549 1 -3.51986 -3.73844 -14.2288 19
550 1 -1.78562 -8.80715 -4.15962 18
551 1 -13.5512 -3.23447 -10.0182 12
552 1 11.426 1.91503 -0.00660243 16
553 1 14.2508 5.13179 -2.38847 19
554 1 12.0009 -3.69949 -8.62451 22
555 1 9.86126 8.28105 11.7139 18
556 1 5.81783 -10.4069 -6.13699 19
557 1 5.5477 4.06489 -18.0879 11
558 1 9.30416 11.7163 1.05802 19
559 1 -11.106 4.83095 1.73054 24
560 1 10.042 8.71844 14.5307 13
561 1 7.31651 7.21043 -0.225483 23
562 1 12.8856 -0.859866 2.77092 16
563 1 12.2742 3.92023 -5.22075 19
564 1 7.66941 2.23542 13.507 21
565 1 17.5839 4.18771 12.0477 9
566 1 3.38069 -4.7669 10.4894 20
567 1 10.234 14.8571 -3.75625 14
568 1 1.06966 1.75042 16.3145 12
569 1 15.2804 1.38142 -6.3357 14
570 1 8.90093 4.98388 9.86062 24
571 1 -8.08818 -0.92864 -7.42186 18
572 1 12.8103 4.79807 1.04201 20
573 1 7.96539 -2.71764 1.84522 22
574 1 -12.5115 9.19533 12.5394 11
575 1 9.74369 11.7014 12.6458 13
576 1 10.5501 3.54254 12.6591 20
577 1 4.36074 12.943 6.69453 23
578 1 1.63327 14.6013 13.297 12
579 1 4.55505 2.88282 7.23671 22
580 1 -3.02034 -17.6372 3.39815 12
581 1 -5.90776 10.1611 -1.90121 16
582 1 9.66914 8.75548 -5.44882 20
583 1 10.4107 -2.90073 -11.637 20
584 1 -0.2862 16.6144 -1.36259 18
585 1 -2.31333 -12.2328 -6.98939 18
586 1 9.85501 -5.37117 -14.3728 9
587 1 -15.5034 4.88565 6.82162 19
588 1 -3.15598 11.0189 -9.75896 20
589 1 -6.10764 -16.8883 3.45342 15
590 1 -5.69372 -0.509523 -10.9113 17
591 1 -11.6889 2.92937 -4.10537 20
592 1 8.18244 -6.49687 4.44331 21
593 1 14.4127 10.1612 4.83897 11
594 1 0.874042 -9.68116 7.62155 19
595 1 -14.4821 -0.417415 -9.1743 13
596 1 0.551357 -0.353321 -16.8148 16
597 1 -2.39523 6.02779 13.8785 20
598 1 6.9019 10.3058 -10.4649 12
599 1 13.5026 1.19806 11.2364 11
600 1 7.83153 5.45553 -7.40823 16
601 1 12.5613 12.8259 4.4739 13
602 1 1.29236 -15.5755 -6.53344 12
603 1 -9.52465 -1.49946 14.2149 17
604 1 13.1989 1.67147 5.01572 14
605 1 -0.190593 11.8789 14.1104 12
606 1 4.33725 11.8359 -7.82793 21
607 1 -11.3218 9.64123 -3.90114 14
608 1 12.0608 9.77239 -2.82013 17
609 1 -10.3825 -14.135 0.835144 11
610 1 11.7058 -3.34658 1.09229 15
611 1 9.68606 15.6901 4.99737 15
612 1 -7.50456 3.23638 9.98744 21
613 1 -8.74317 -3.1833 1.56074 20
614 1 -11.2423 -0.585368 -7.78809 18
615 1 7.07154 -0.567706 11.1765 16
616 1 -3.71746 -7.53439 13.1875 17
617 1 7.08168 8.05563 14.3752 20
618 1 -2.67351 12.0991 1.67618 20
619 1 8.03911 2.59488 1.74026 22
620 1 6.13154 5.59137 7.49343 27
621 1 3.52003 1.13012 -18.71 12
622 1 -8.70522 -0.125472 9.39183 24
623 1 6.94985 -1.85936 -11.298 19
624 1 11.902 -9.95722 -7.69217 13
625 1 8.14135 2.82486 7.60205 20
626 1 4.54483 8.00724 9.27286 21
627 1 -9.46981 1.12254 14.9339 15
628 1 9.20105 10.7693 9.4113 19
629 1 -0.84219 -4.03585 14.9894 13
630 1 -3.97548 9.99521 9.93114 18
631 1 -0.417429 -3.89807 -15.3929 19
632 1 -5.64567 3.02978 12.496 19
633 1 5.02373 1.67431 12.3955 20
634 1 -7.95597 -15.5949 9.28812 11
635 1 14.1893 9.46036 1.04966 12
636 1 8.35489 -9.38632 -3.3899 19
637 1 5.95888 10.0802 -0.430025 22
638 1 6.46049 14.0302 4.35912 21
639 1 7.08736 1.473 -17.621 11
640 1 1.49046 14.4309 -3.20608 21
641 1 9.32825 5.51594 1.80336 22
642 1 -6.98674 -9.72062 -1.24742 22
643 1 -1.53097 2.00091 -17.1259 16
644 1 -7.92325 12.2638 -0.313475 15
645 1 7.47787 -6.0133 -8.27606 18
646 1 12.9069 6.46087 -9.29981 12
647 1 7.46752 15.1754 -3.10112 16
648 1 -6.71337 5.55623 2.07777 21
649 1 3.95091 8.0799 -5.90355 23
650 1 12.731 1.64485 13.8982 12
651 1 9.58872 -2.49805 14.4425 8
652 1 -3.78928 -7.68782 9.87507 20
653 1 -7.15438 10.9706 -14.174 8
654 1 1.91725 14.5018 8.2547 15
655 1 6.32515 -7.5189 -13.9551 15
656 1 3.075 2.05621 9.72183 21
657 1 7.33238 11.4404 -2.77127 20
658 1 9.20544 12.2739 4.64541 21
659 1 12.5281 -6.28763 -2.9604 17
660 1 7.95138 8.50581 17.5507 12
661 1 -13.932 -1.89623 4.4123 19
662 1 2.95816 -11.4987 2.8101 19
663 1 -0.606835 0.518687 -8.88766 23
664 1 -8.88255 11.9387 6.02112 19
665 1 3.27312 11.3452 3.72463 21
666 1 -13.4286 1.07451 2.53657 22
667 1 -1.65061 5.5841 16.857 15
668 1 -5.95413 5.67696 -16.6156 10
669 1 -4.47413 6.08493 -11.5967 20
670 1 5.68196 -11.7658 0.995123 16
671 1 7.0739 7.25189 -5.448 23
672 1 -10.608 6.60447 14.1723 12
673 1 2.72035 -1.02112 -14.4777 17
674 1 -0.463812 -12.0889 9.32746 16
675 1 2.02742 14.7367 -0.0134541 20
676 1 -4.11382 3.72258 17.5332 9
677 1 -9.39987 -6.14521 -10.8896 18
678 1 -5.09127 -7.46538 -13.9555 15
679 1 -6.91229 -12.6696 -6.80909 12
680 1 0.888582 17.3337 -5.02633 17
681 1 4.89324 -6.89928 -6.11943 19
682 1 -3.64481 12.5317 7.09959 17
683 1 5.88862 -12.9007 -10.0763 10
684 1 5.02735 -14.5633 -1.65312 14
685 1 4.55612 -7.90478 9.00075 18
686 1 15.9201 5.57121 -4.77715 11
687 1 0.930316 -12.2083 -5.6375 19
688 1 -12.1389 -1.19379 7.88338 20
689 1 -4.19791 -16.9919 0.370951 13
690 1 -5.98748 -11.6625 -3.35369 21
691 1 -11.628 1.77146 9.59795 21
692 1 -9.4913 -15.4565 3.28605 12
693 1 12.5574 6.79681 -4.00419 21
694 1 -6.61729 14.5008 5.57061 15
695 1 -5.44578 3.11721 6.95325 21
696 1 -17.1682 7.68624 5.53838 10
697 1 9.72025 -0.237134 1.44865 17
698 1 -11.8614 -0.937935 -11.8167 12
699 1 -1.43129 8.64954 -3.10863 20
700 1 8.9744 4.35579 -5.13783 21
701 1 7.76818 13.9815 13.1694 10
702 1 6.32278 5.28642 -3.11254 22
703 1 -16.0862 2.96145 -8.19778 8
704 1 -13.2197 -6.30863 -5.97217 15
705 1 -0.733672 9.09677 17.6184 9
706 1 5.4634 5.10048 -12.2771 17
707 1 11.05 13.8162 7.04918 15
708 1 -2.08026 -0.968768 10.0179 22
709 1 -2.33697 -15.5248 -2.01827 16
710 1 -5.55434 -16.7841 7.17745 14
711 1 -3.57657 -5.72491 7.57603 23
712 1 15.0458 11.3685 9.85515 9
713 1 0.785107 -6.41575 -11.1106 20
714 1 -6.76151 7.56002 -0.369875 20
715 1 6.07553 7.3647 4.32755 18
716 1 -9.9519 -4.53404 3.65878 21
717 1 10.779 7.9639 -11.5746 9
718 1 -1.80125 -14.6368 -5.1777 17
719 1 0.981711 -19.5387 2.36436 5
720 1 -1.76794 -12.317 -0.522725 20
721 1 7.14624 3.1529 -9.61773 17
722 1 9.05806 17.5801 2.14687 13
723 1 -2.94475 1.15406 -13.8899 21
724 1 -2.43574 3.46822 11.9955 20
725 1 -0.598643 5.45024 -17.6256 16
726 1 -10.2346 0.293392 -14.4457 13
727 1 -11.715 -2.48057 -6.12119 17
728 1 3.26889 15.0778 -5.5884 19
729 1 -3.43098 -5.00358 -17.6638 15
730 1 -8.74807 -6.30201 -1.6789 23
731 1 11.4725 6.63237 -0.906736 21
732 1 11.2137 -6.92634 -0.138291 17
733 1 -7.68761 7.82228 13.426 16
734 1 6.1963 -9.54111 5.01982 17
735 1 11.9247 -3.1938 -2.03577 17
736 1 11.2973 -1.77091 10.0083 11
737 1 -1.81223 8.12658 8.50314 21
738 1 -11.6993 3.31432 14.4549 11
739 1 -9.97812 7.99693 11.21 19
740 1 -2.36062 -13.8824 7.97101 17
741 1 7.76272 -1.0979 5.00919 22
742 1 6.57835 9.97697 11.6293 20
743 1 -14.6483 -0.205402 -0.366954 16
744 1 7.71944 -6.99122 -0.682647 21
745 1 -9.52209 12.2074 -5.57669 11
746 1 3.11081 7.70177 4.10546 20
747 1 0.720104 -14.7681 7.40773 11
748 1 2.2095 0.414337 12.6615 17
749 1 0.616879 15.1354 6.16456 14
750 1 3.92849 -10.1984 6.79675 19
751 1 -8.62025 -3.0449 -3.77654 23
752 1 2.38163 3.51763 12.697 19
753 1 -12.5197 -6.03843 -1.25767 23
754 1 4.35891 9.57464 14.2777 18
755 1 8.59369 13.5399 -1.08241 18
756 1 -10.3193 -9.67746 4.92636 20
757 1 -3.53051 -15.7544 5.62634 18
758 1 9.20973 -3.69258 5.92717 18
759 1 10.0501 -6.88135 6.8034 14
760 1 6.91122 8.74597 6.81965 21
761 1 -0.406132 -8.71675 -10.4442 20
762 1 -3.97895 3.06382 -11.8126 20
763 1 -3.7304 0.543886 12.5802 17
764 1 -1.57565 16.8722 4.59685 17
765 1 11.2463 2.25116 2.96917 20
766 1 1.69889 8.29946 -3.54944 19
767 1 -4.89473 8.60235 13.4475 19
768 1 9.41979 6.30491 6.89932 21
769 1 5.34159 -1.97823 -13.5842 17
770 1 -7.94695 -11.3729 3.11564 17
771 1 14.336 2.87933 8.81238 12
772 1 1.04079 -0.32104 -11.5787 20
773 1 0.79963 7.01834 15.4771 21
774 1 8.7947 -11.3241 -6.96673 15
775 1 4.44879 4.62078 -15.5179 17
776 1 -1.66705 -6.78192 -6.06141 18
777 1 14.2073 3.52799 -9.75421 12
778 1 14.0119 -1.32145 -0.633143 15
779 1 1.09099 -5.35093 12.6456 17
780 1 -5.9172 -4.22036 -15.3909 15
781 1 9.73012 11.5494 -4.7857 16
782 1 -12.8618 6.49494 6.68238 19
783 1 11.1975 4.01014 -2.52113 23
784 1 14.6929 6.5464 3.74815 14
785 1 2.74498 -3.82571 -16.0454 16
786 1 -10.829 14.4657 4.4197 12
787 1 14.6242 8.8983 8.09492 16
788 1 8.99088 15.0484 -7.2855 7
789 1 4.85438 1.37161 -16.1237 18
790 1 8.66805 -2.47446 -3.31582 22
791 1 -10.3898 2.10638 -1.13398 20
792 1 11.7562 10.553 2.26405 17
793 1 -12.0108 -9.60984 1.873 19
794 1 -9.14678 9.91021 -10.5188 9
795 1 3.13631 4.78125 9.68749 21
796 1 -10.4 2.17311 -6.7082 20
797 1 -13.0085 7.37565 9.46956 18
798 1 -5.03708 5.20124 -8.75382 20
799 1 13.6291 -5.73055 -9.14385 12
800 1 -10.4896 -9.91428 -4.38684 18
801 1 12.9062 -9.1878 -2.41015 8
802 1 -14.115 6.34386 3.55312 20
803 1 -6.68877 -5.63365 -4.17081 18
804 1 11.2558 7.07517 9.31179 19
805 1 -4.63933 -9.11048 6.38977 21
806 1 10.2377 0.882566 15.2728 16
807 1 11.4307 -1.01072 6.24409 16
808 1 12.4738 -4.15928 4.9588 9
809 1 -13.3688 3.50372 4.4237 18
810 1 2.22241 10.9807 9.20997 20
811 1 4.76447 7.95343 -11.3679 18
812 1 -0.780658 -7.00743 -17.9827 12
813 1 -3.846 15.4908 6.85133 20
814 1 -10.6567 -11.0697 8.12008 16
815 1 5.71478 9.13901 -8.1195 20
816 1 1.17094 9.028 12.9691 17
817 1 15.9707 -0.376462 -3.32791 15
818 1 7.15271 -9.9209 10.5275 13
819 1 1.88931 16.8607 -11.0274 8
820 1 2.35517 8.80736 -8.33369 21
821 1 -5.30697 -1.15093 9.98025 22
822 1 16.5648 6.6298 6.49519 12
823 1 -4.33677 -3.51825 -11.3518 18
824 1 10.3157 8.11019 1.28016 19
825 1 -13.7316 1.52266 -2.58849 17
826 1 -2.75608 -10.003 9.22658 20
827 1 6.47303 13.5853 -9.10346 12
828 1 5.85742 -3.81483 10.4323 18
829 1 0.0795352 -9.77076 -6.60162 18
830 1 -6.40743 16.6006 1.09562 10
831 1 -15.4589 4.86567 -1.97198 12
832 1 11.2777 -1.04132 -6.97316 21
833 1 3.1745 -9.11318 -14.4994 15
834 1 -8.98381 6.79373 1.37699 22
835 1 12.3057 12.1892 -4.65501 9
836 1 -6.74414 0.112607 6.79181 22
837 1 4.81617 -1.36213 -17.1 14
838 1 -8.69297 -9.81419 -9.02666 14
839 1 1.51915 -8.49325 -3.28038 21
840 1 -3.02008 11.6155 13.1305 13
841 1 8.90938 -14.7023 -2.90965 11
842 1 1.5932 8.88076 -15.557 13
843 1 17.7952 4.37294 -2.01359 8
844 1 4.48229 9.0216 1.88473 22
845 1 1.38438 -15.1526 -0.92274 14
846 1 3.61961 -1.9939 -20.2213 6
847 1 8.8905 4.23376 -0.824812 22
848 1 -4.12835 11.5711 -13.6791 11
849 1 -1.11503 -7.62015 7.95708 18
850 1 7.04211 8.80928 -3.00867 21
851 1 5.41454 1.20909 -9.85513 17
852 1 -11.9755 4.90584 -1.40548 22
853 1 -15.0856 5.28173 10.1091 12
854 1 2.18793 6.69902 18.2069 12
855 1 -10.117 -5.7465 7.36677 19
856 1 3.60366 9.74711 6.42944 18
857 1 2.21751 -14.9383 4.82178 16
858 1 4.0096 11.0523 -2.73999 19
859 1 -6.31632 8.35561 10.3608 21
860 1 -6.89057 0.549151 12.3237 22
861 1 -12.138 12.1833 7.13085 15
862 1 8.33885 2.07675 -3.16851 22
863 1 -8.4279 -5.49659 10.2644 20
864 1 4.73623 -12.4394 4.81771 20
865 1 11.9925 5.65609 11.4866 19
866 1 9.44469 -3.71139 -6.15844 21
867 1 6.65674 -9.81927 -11.5207 15
868 1 -5.99381 1.41419 -12.909 20
869 1 -1.00456 3.82825 -14.1954 19
870 1 6.7134 14.899 10.0726 12
871 1 -10.4497 -4.64048 14.0775 13
872 1 -3.46776 7.95151 -9.14815 18
873 1 -15.4034 2.59972 -4.8983 11
874 1 12.6894 14.2353 1.04564 10
875 1 -9.19939 -16.6549 5.88508 11