ITEM: TIMESTEP
2000
ITEM: NUMBER OF ATOMS
2000
ITEM: BOX BOUNDS pp pp pp
-30.0 30.0
-30.0 30.0
-30.0 30.0
ITEM: ATOMS id type x y z Coordination
1 1 -9.40824 6.46907 -10.6975 16
2 1 -3.94644 -10.0968 -7.87054 18
3 1 1.60892 13.7062 12.489 12
4 1 5.77507 -11.5208 5.86155 12
5 1 -10.7634 8.33114 -0.203495 20
6 1 8.48414 -5.43763 -10.6511 17
7 1 -13.7149 3.31122 -5.78702 16
8 1 -2.11389 -1.34744 9.53155 17
9 1 -8.45066 -1.21529 -10.3875 18
10 1 -13.9258 -8.65386 5.71009 17
11 1 13.5592 4.54272 -8.74456 19
12 1 -4.70976 -11.0381 2.512 21
13 1 -16.6829 -7.43654 6.56938 10
14 1 -0.15431 4.07876 15.1946 15
15 1 -0.692826 6.29879 7.72303 22
16 1 -2.44363 11.5964 -8.97722 19
17 1 3.89784 5.65817 15.0513 20
18 1 -9.92416 -1.06037 -14.8499 12
19 1 -15.5441 -2.7384 11.5455 8
20 1 15.4632 4.65187 6.82869 15
21 1 -1.33865 10.9828 -12.1146 16
22 1 3.69601 7.60493 -11.0321 24
23 1 13.0792 5.11016 11.8289 15
24 1 -16.2368 4.18592 -6.88545 7
25 1 -3.19307 -2.37699 -7.88611 21
26 1 -11.6767 8.64618 9.94961 14
27 1 5.64367 -14.241 4.12108 15
28 1 1.52245 -13.348 -11.4467 10
29 1 8.8944 -11.3394 0.421068 15
30 1 -9.33384 -11.8591 -6.55113 10
31 1 -12.5169 -5.47345 10.6158 14
32 1 0.539224 -7.92127 -10.4511 21
33 1 6.07939 -8.98083 -10.7287 17
34 1 -4.95562 4.89046 -14.7793 11
35 1 5.31253 8.21767 16.6978 22
36 1 -1.85904 -11.5161 7.06584 19
37 1 3.52075 -3.12057 11.8659 22
38 1 -14.1368 0.582712 2.44298 20
39 1 -17.5146 3.02231 7.8596 11
40 1 -10.3908 2.56202 -0.354522 23
41 1 -4.53698 14.6177 0.715897 19
42 1 -2.11764 -14.0452 -11.6044 11
43 1 -0.263268 2.28283 -10.7429 21
44 1 4.55178 -2.97084 -8.12779 20
45 1 0.620939 -2.10308 16.5181 11
46 1 -12.6647 9.2739 1.22612 20
47 1 4.13824 11.9455 -7.69386 18
48 1 -0.741097 14.7265 7.52625 13
49 1 -11.5818 6.54121 -7.80215 17
50 1 -1.94942 16.5435 -0.680612 11
51 1 2.20471 -11.1602 2.55253 16
52 1 6.34162 -6.80297 -2.44977 18
53 1 5.60061 -5.12758 -13.8875 14
54 1 -8.75656 7.07268 14.3642 12
55 1 -12.4384 -4.41074 -8.71396 18
56 1 7.5535 -0.593223 5.30191 18
57 1 -11.5846 10.2288 -3.23607 22
58 1 -8.11898 -9.66447 4.67234 20
59 1 -6.07964 16.4361 9.4122 7
60 1 -13.9304 8.39706 -7.51971 11
61 1 -6.35212 9.53656 13.4082 16
62 1 -9.59027 -12.261 4.79248 20
63 1 2.66542 5.69861 7.67714 23
64 1 6.66504 -13.3059 -5.11063 12
65 1 6.49523 13.7459 14.2054 10
66 1 -13.8441 4.22721 -9.27554 13
67 1 -12.9136 7.82946 -11.4425 6
68 1 3.90907 9.21919 11.0895 18
69 1 13.1386 -1.70645 -11.1876 12
70 1 7.55378 -10.9926 3.49875 15
71 1 -18.6214 0.707242 6.66117 8
72 1 6.60849 17.9825 5.51078 9
73 1 3.44983 -3.24606 16.1333 11
74 1 -12.4089 -11.5963 5.1366 19
75 1 -12.4195 -0.302236 0.494679 17
76 1 10.2919 4.27899 6.0404 20
77 1 -9.57348 14.3818 9.82616 11
78 1 5.85135 0.0950634 7.73526 18
79 1 -4.29164 -6.48456 -7.89023 21
80 1 -13.4437 5.66052 10.2063 19
81 1 -9.45828 10.9071 -0.872032 22
82 1 -0.306074 6.54551 -7.93142 18
83 1 7.75131 -1.83187 -4.96195 22
84 1 8.45431 12.1181 -10.6887 9
85 1 9.58802 -2.45587 5.27504 18
86 1 2.66654 -10.0198 10.1894 13
87 1 -8.40391 16.6262 -5.66886 8
88 1 -9.56693 10.0259 6.40169 18
89 1 -11.1007 -3.27765 16.3989 9
90 1 -4.06665 8.25899 4.64299 21
91 1 -6.71171 -5.01198 9.80636 18
92 1 12.4184 -4.99214 -5.31196 13
93 1 -9.15957 3.28967 8.06888 23
94 1 -13.3518 -13.6592 2.79002 9
95 1 9.01849 -4.91896 -4.87768 21
96 1 4.47627 -0.885064 -10.9378 22
97 1 -7.36717 -0.445152 -13.2083 23
98 1 -0.310836 11.6247 2.33638 21
99 1 -11.2158 8.28915 -5.45933 21
100 1 2.40235 9.16862 15.7363 17
101 1 -1.3584 13.5108 -6.32538 21
102 1 -14.9242 10.9392 2.31645 13
103 1 1.97053 10.803 0.426903 23
104 1 -6.35692 -6.43844 4.63007 19
105 1 12.6405 3.77895 9.24903 18
106 1 -0.84517 -5.23448 -8.32376 22
107 1 0.28887 -4.95851 -11.3147 17
108 1 -3.88983 6.26089 7.64868 21
109 1 2.83127 -1.55203 18.9018 6
110 1 -13.1143 -5.2059 -0.474451 19
111 1 -7.40036 -6.95792 -6.60461 18
112 1 9.08847 -8.3252 2.25317 18
113 1 -2.15244 9.05216 1.95344 22
114 1 8.29117 5.06566 -14.1343 16
115 1 4.59148 18.7979 -2.12899 11
116 1 -9.65564 -11.9638 10.5149 11
117 1 -10.2549 -13.3975 7.77587 13
118 1 4.72643 -7.48964 -14.2768 11
119 1 5.04213 4.80982 -5.94661 22
120 1 9.75464 -8.49487 -0.792288 18
121 1 -6.37814 -18.3021 5.70524 8
122 1 -15.1042 -7.91487 0.240715 11
123 1 16.8324 9.36814 9.40008 10
124 1 14.6185 -0.62 -8.65562 13
125 1 -18.4004 -1.7962 4.15977 11
126 1 10.1045 10.6534 6.16013 22
127 1 16.4603 12.246 3.59405 13
128 1 -2.05187 -0.0323217 15.7411 16
129 1 -5.86256 10.3004 9.94863 20
130 1 -5.83583 12.7245 -4.29011 21
131 1 -1.4951 -6.43686 -12.7043 18
132 1 9.4395 -11.2557 -9.08062 8
133 1 -0.31521 12.6225 -10.3573 13
134 1 6.33306 -1.79488 14.2047 15
135 1 0.377696 2.85497 -16.3485 14
136 1 -2.01655 9.25334 -2.93864 21
137 1 10.6866 2.94379 -3.14468 21
138 1 -14.6309 5.61623 -3.85147 11
139 1 -9.80423 14.4721 0.0392021 15
140 1 10.214 -0.599806 -8.88446 20
141 1 6.6662 -6.05569 7.93918 16
142 1 -6.9632 2.71649 -5.56142 20
143 1 -10.313 11.0837 9.62959 13
144 1 12.3434 10.8769 -6.04965 16
145 1 5.83913 12.1071 -2.39081 16
146 1 -5.22421 16.5996 3.82648 11
147 1 11.5749 10.2286 0.2462 18
148 1 -4.26745 12.3363 -2.39772 19
149 1 0.756094 15.235 -8.7794 12
150 1 -0.159686 5.23462 -13.7925 17
151 1 -15.0485 -5.05838 2.04561 21
152 1 -16.138 8.26979 1.41912 16
153 1 -5.23449 -2.55344 -13.4073 20
154 1 0.751279 -8.1608 -13.8672 15
155 1 10.0309 13.1973 8.75265 14
156 1 -0.160726 17.1375 5.47758 14
157 1 -12.689 -1.69008 -4.57898 16
158 1 -13.4094 12.9416 -0.0683469 12
159 1 15.8361 1.29526 -1.27302 16
160 1 -10.6849 4.26286 -14.8475 7
161 1 7.13197 4.41187 19.515 13
162 1 4.68898 18.1792 2.72969 12
163 1 2.23382 11.4103 8.73191 18
164 1 2.93237 -5.68072 -16.4049 9
165 1 -4.22346 10.956 7.24093 18
166 1 -3.19116 11.3143 -5.34531 20
167 1 3.41257 -1.05494 13.9415 17
168 1 -13.4746 -5.86134 4.70904 22
169 1 -3.27226 -11.8691 -13.9491 11
170 1 -9.19273 10.8701 -6.19188 18
171 1 -4.95529 -9.12277 5.61096 22
172 1 2.26893 -15.6848 -5.2943 10
173 1 -1.14015 9.02941 -8.33898 18
174 1 -14.3616 2.6896 9.34145 21
175 1 11.1823 10.4079 -3.23662 19
176 1 -7.88135 3.57986 15.5224 18
177 1 -0.355548 -9.3579 10.921 11
178 1 -12.303 5.49368 -0.950352 19
179 1 -2.29159 15.7388 4.79242 16
180 1 1.22226 8.63729 8.10735 20
181 1 13.2437 7.88215 14.1349 12
182 1 -8.71626 14.1368 6.65202 15
183 1 12.6591 -2.86938 -8.40059 15
184 1 -6.61238 13.7771 9.56132 17
185 1 -4.97827 3.44958 -7.82478 24
186 1 13.4399 -5.48196 2.97059 12
187 1 -10.0885 -6.39626 4.59832 19
188 1 -16.9028 3.09178 4.37522 13
189 1 -12.1255 -8.36394 3.22066 19
190 1 9.61677 6.87133 14.9583 23
191 1 -14.3433 3.10541 -2.13443 14
192 1 -4.6911 -13.8646 1.20149 18
193 1 4.46134 -9.15612 -2.14078 16
194 1 -2.3271 11.0666 5.06934 18
195 1 4.48141 13.7848 11.0348 15
196 1 -8.2044 -1.4006 -5.31429 20
197 1 -7.50529 13.5704 -6.77413 12
198 1 -17.6236 -2.64579 -4.42448 9
199 1 -10.5702 -2.73994 10.5501 17
200 1 -1.53076 -9.425 4.8212 20
201 1 2.91107 -13.4564 6.33418 15
202 1 -12.8081 11.2172 4.88681 18
203 1 17.4945 5.35808 3.63792 12
204 1 6.3185 1.48305 -5.48512 20
205 1 -7.0652 -7.86417 -12.4835 17
206 1 2.83278 -1.11655 10.4173 16
207 1 2.79521 -13.6125 3.68997 19
208 1 -3.16542 8.18103 -10.9201 17
209 1 2.60683 -10.1861 -12.3437 17
210 1 8.64774 3.73305 -11.109 17
211 1 2.04298 7.67552 -13.9647 13
212 1 -8.22091 -4.38853 -5.42977 23
213 1 -5.3618 15.4098 -6.81092 12
214 1 -10.436 -9.32608 9.85977 16
215 1 7.57733 18.3057 -3.30508 9
216 1 -8.25709 1.94738 17.5699 14
217 1 -9.28103 16.0122 -2.27563 11
218 1 10.2674 2.84608 8.39593 18
219 1 -5.33516 -5.62681 -14.2158 15
220 1 -3.17114 7.87996 -5.86142 20
221 1 2.97451 2.26603 -10.9047 23
222 1 -8.28085 -10.4588 7.74263 17
223 1 -9.81996 6.08735 10.6843 18
224 1 -8.07237 8.81751 10.4769 18
225 1 -0.791964 -10.1832 -7.77606 16
226 1 -11.55 -15.0435 -1.09046 8
227 1 7.41169 -10.3323 -2.40801 15
228 1 11.3595 9.87216 13.2121 16
229 1 8.12676 13.424 -7.29172 13
230 1 -5.20746 9.0534 -3.91686 21
231 1 -9.11711 5.41553 5.30447 27
232 1 -15.8921 11.34 -0.896333 9
233 1 1.55621 6.59979 10.8304 20
234 1 4.6652 -19.4131 1.77105 4
235 1 9.68167 2.1337 -0.419059 21
236 1 2.31238 7.82674 5.05178 22
237 1 -12.7618 8.31408 6.7392 22
238 1 -18.249 -3.21139 -0.347047 10
239 1 8.07129 7.01976 -11.6354 17
240 1 0.571915 -1.15553 12.0306 20
241 1 12.3757 10.4047 -9.72575 8
242 1 1.97968 -9.82369 -0.300769 17
243 1 -4.29469 -1.16508 -10.8136 20
244 1 -2.38898 -16.7858 6.27837 12
245 1 12.3184 -0.391716 -5.92615 21
246 1 -7.27188 0.433224 7.75044 19
247 1 2.4534 -16.2233 -1.59159 12
248 1 -11.6904 -7.41534 -10.1362 16
249 1 3.713 15.5812 -3.41378 19
250 1 0.536288 -1.9058 -13.3381 23
251 1 4.29788 5.36426 18.1926 15
252 1 16.7118 3.5159 0.611474 12
253 1 11.257 -4.66687 -10.6306 9
254 1 -9.42994 -5.2246 -11.4714 19
255 1 -11.4556 0.235503 -10.3192 17
256 1 -7.53532 -13.7206 8.40649 14
257 1 9.79449 3.47679 11.705 19
258 1 3.76918 -2.88482 7.99256 22
259 1 -7.89213 -11.1569 -11.9276 13
260 1 0.318866 -9.03913 7.51302 19
261 1 0.194482 7.85966 -11.0569 20
262 1 4.15255 9.09138 2.57196 22
263 1 -7.85098 -5.26651 2.39174 20
264 1 0.0803038 13.3502 4.58137 21
265 1 -7.17935 -1.84922 10.3042 18
266 1 -14.1004 -6.83733 -7.87416 8
267 1 -6.09626 -6.09075 -10.5903 18
268 1 -3.71868 8.10864 -15.9503 9
269 1 -5.86585 -9.63443 -5.64549 19
270 1 -2.9566 -8.05559 2.49558 21
271 1 5.74874 -3.49988 -11.1405 19
272 1 14.5982 1.86123 -10.2189 13
273 1 14.426 7.12483 4.79255 22
274 1 -9.27818 -6.22695 11.2424 20
275 1 -7.43913 -8.96185 -0.75277 22
276 1 8.7401 7.315 18.0167 16
277 1 -7.64666 -13.5831 3.29548 20
278 1 -1.90761 -10.751 1.64088 19
279 1 0.201608 18.568 -0.242644 8
280 1 8.251 1.18911 -14.6323 18
281 1 -6.73597 -3.08331 -15.8644 13
282 1 -12.1918 -7.89347 12.5616 10
283 1 3.00967 9.32857 18.7682 10
284 1 1.77626 -11.3765 -3.13727 14
285 1 -5.25152 -13.2419 -12.4895 11
286 1 -11.325 2.9538 -8.27051 21
287 1 11.4425 8.01782 6.94247 22
288 1 -8.39251 7.33239 -5.87322 22
289 1 2.22706 4.92199 -11.2247 22
290 1 7.52436 -12.2452 -11.6054 9
291 1 -6.43848 15.7 -3.37704 12
292 1 2.41416 11.8339 3.43035 23
293 1 12.7974 2.59075 5.8775 17
294 1 -10.8648 -3.19781 4.75698 22
295 1 -3.63718 -6.445 12.0678 10
296 1 -7.43435 8.02309 5.302 23
297 1 2.2867 -2.89952 -11.0202 20
298 1 16.5096 11.5323 -2.06447 13
299 1 5.77177 -11.7587 1.26159 20
300 1 -2.28003 -1.73046 13.7051 18
301 1 -16.5828 -4.65445 4.96184 17
302 1 -3.2238 -16.7288 -3.30259 9
303 1 -6.19971 6.51133 15.8899 12
304 1 -11.0087 3.29148 18.0134 10
305 1 -16.178 -0.36887 8.67002 15
306 1 -15.1358 -5.10846 8.08114 13
307 1 12.6122 -2.948 -0.671618 16
308 1 -13.2691 -7.71205 8.01818 14
309 1 9.87102 -2.53261 -6.83045 21
310 1 9.64603 -8.44697 -6.88549 12
311 1 4.96788 18.2757 -4.99066 11
312 1 -11.4659 13.1641 -2.27371 14
313 1 8.01382 9.11932 13.6445 20
314 1 -10.6728 0.970473 2.59537 22
315 1 8.48844 -8.25343 -4.22468 15
316 1 -4.01226 11.7502 0.673269 22
317 1 -6.94005 6.05371 8.39573 25
318 1 3.5028 -10.5981 7.75072 14
319 1 12.0798 -4.29651 5.6459 11
320 1 -2.28822 9.15005 7.9533 20
321 1 -7.55308 -5.43044 -3.06835 18
322 1 -3.49751 1.48105 12.6887 20
323 1 -3.9958 13.2029 3.68079 18
324 1 7.93372 9.74929 16.4945 18
325 1 -9.10319 12.6857 -3.75335 17
326 1 3.41734 -1.97525 -16.5768 14
327 1 5.73243 -10.1097 -13.9332 9
328 1 -9.16508 0.62938 14.7501 23
329 1 -13.9263 2.93497 4.81201 21
330 1 -6.76967 -3.25524 -10.7722 18
331 1 -5.90927 9.13013 1.94132 19
332 1 10.2542 -1.23895 9.22657 14
333 1 -16.2023 -7.34288 3.66028 16
334 1 6.11022 -8.82883 7.87715 14
335 1 -9.42072 -9.14326 12.8568 13
336 1 -17.5209 8.14697 4.5033 7
337 1 1.35371 -4.20962 10.1337 21
338 1 2.48303 -11.7543 -9.0146 17
339 1 -3.24526 0.489776 -8.20798 21
340 1 10.1974 -1.19297 -13.3354 14
341 1 1.43569 17.3752 2.60988 15
342 1 -10.73 0.28936 -2.63578 20
343 1 5.55277 -6.21774 -9.25299 21
344 1 11.0282 5.79157 -12.917 10
345 1 -5.84865 -12.5136 -6.62556 14
346 1 -14.7265 -4.66651 -4.7182 15
347 1 -4.00697 -9.34019 -0.103517 23
348 1 10.8585 9.5947 16.1085 11
349 1 9.49826 6.01471 -2.73944 21
350 1 -8.21568 4.58784 -7.91885 21
351 1 5.92908 16.8199 0.0476621 15
352 1 -16.7682 -0.161688 -7.0108 7
353 1 -9.9304 7.08513 7.64462 24
354 1 -7.77405 12.0439 1.59688 19
355 1 -5.67978 3.12623 7.49186 22
356 1 6.58288 4.8366 16.2198 21
357 1 9.22524 1.01492 -5.47365 25
358 1 4.7465 -0.198252 16.2814 13
359 1 12.3107 3.13112 -6.02237 21
360 1 -8.01402 -13.7681 -3.97512 14
361 1 0.3351 -8.51677 -4.20554 19
362 1 0.942125 8.68028 2.53455 23
363 1 -10.7711 1.3579 -5.2733 19
364 1 3.74807 -12.4924 -1.5618 16
365 1 12.1888 0.596568 8.83462 13
366 1 -10.7852 -3.80163 -6.46279 18
367 1 -9.48876 -8.11691 1.49284 20
368 1 -10.4514 -6.23266 14.5384 13
369 1 -1.33156 10.7012 -0.485947 22
370 1 -10.6946 -9.0422 -1.80828 14
371 1 7.67397 12.8323 16.7836 9
372 1 -10.327 6.73204 -2.99262 21
373 1 0.779758 11.1942 -7.34335 20
374 1 5.39584 13.4027 5.21528 23
375 1 -13.0984 -7.46347 -2.51522 13
376 1 -1.19023 -7.58007 -7.0199 22
377 1 -13.7007 1.10561 7.14739 19
378 1 -14.1963 9.17096 -1.53866 20
379 1 4.61794 -6.59777 5.43991 18
380 1 -5.81128 -12.2486 -1.04991 22
381 1 13.0306 13.9892 9.3264 10
382 1 4.58971 10.8293 -10.9695 14
383 1 -13.1678 4.71189 -12.6216 8
384 1 -2.44098 15.2941 -8.91878 12
385 1 -10.354 4.55425 -5.65721 19
386 1 -3.07183 -12.6736 4.17762 18
387 1 12.4494 5.1459 6.93045 19
388 1 -0.660734 9.81519 -15.1114 9
389 1 -2.58721 1.65314 9.76099 19
390 1 -14.9151 3.53294 1.62074 19
391 1 -7.41696 3.60942 10.5567 23
392 1 -6.00584 -11.9824 5.76148 19
393 1 2.30674 -5.9136 -8.67449 20
394 1 -10.9624 2.71872 4.88534 23
395 1 -11.9384 0.0800201 9.66006 19
396 1 -15.0317 8.50432 8.73386 11
397 1 -0.845675 -5.89362 7.36773 22
398 1 -8.0196 1.79888 -15.113 13
399 1 7.28183 -7.31296 -6.32114 19
400 1 -2.23296 -8.5784 -10.0217 19
401 1 -4.13961 -4.1344 10.4289 19
402 1 -5.85532 2.90751 -12.8042 18
403 1 5.45755 -16.6731 2.20237 13
404 1 3.17151 10.5516 -4.60681 19
405 1 -13.518 11.1655 8.14935 13
406 1 -8.80463 -4.09196 14.184 15
407 1 -12.6227 -5.63363 -11.732 12
408 1 -8.85364 -4.00804 8.02815 18
409 1 8.63166 -2.46453 13.0947 11
410 1 1.24633 2.94994 -8.47888 21
411 1 6.97437 -8.35127 5.17002 14
412 1 15.5325 9.50349 -4.12413 16
413 1 -5.51195 0.684848 16.2764 17
414 1 -1.33664 13.5619 -1.16333 20
415 1 7.56642 -3.02951 8.39181 18
416 1 -2.03587 -13.8422 -5.24267 15
417 1 -5.63652 4.16961 17.3621 13
418 1 -5.64036 15.0833 6.56664 15
419 1 -9.24915 -10.032 -8.73342 17
420 1 10.1545 14.411 1.56664 13
421 1 4.1698 8.53933 8.22952 20
422 1 -10.2845 3.05043 12.8963 21
423 1 -5.68726 -9.17575 -2.63617 18
424 1 -11.4033 3.44193 10.5386 24
425 1 -9.65714 -6.51049 -8.20778 23
426 1 -6.05126 8.72033 7.43188 21
427 1 -2.80269 -9.62077 -5.07639 21
428 1 -4.04892 -7.63511 -16.1273 10
429 1 -6.22836 -16.2884 2.00489 19
430 1 -7.60611 -3.37621 4.83817 19
431 1 9.62758 1.85049 5.03313 21
432 1 -4.61069 -4.14921 12.9808 14
433 1 -6.0137 7.02432 -8.53842 18
434 1 7.56191 4.86716 -0.195427 22
435 1 -8.67346 -13.5862 0.551701 16
436 1 2.7617 16.4698 -0.546178 16
437 1 -1.52584 5.2997 -11.3782 18
438 1 -1.03387 7.50097 11.3153 20
439 1 -16.0793 -0.625723 -3.33904 13
440 1 1.63976 17.7156 -3.35989 13
441 1 6.70648 10.3129 -6.85284 20
442 1 -5.92915 -4.23903 -6.863 20
443 1 4.51979 2.01232 18.8404 11
444 1 1.43896 -13.7999 -7.08929 12
445 1 -0.89502 -2.20658 -9.45878 22
446 1 7.7434 -14.1889 1.58161 13
447 1 -11.0658 11.9515 1.89185 18
448 1 4.83358 8.63167 14.1573 19
449 1 9.98738 7.7288 0.0296276 21
450 1 4.72328 10.5513 -0.326591 20
451 1 -11.3936 9.42048 -8.73984 13
452 1 6.01656 1.69055 -9.58416 20
453 1 0.588563 -8.5771 2.2121 19
454 1 -15.0117 -2.2309 0.417988 21
455 1 2.92241 19.046 5.01425 8
456 1 -6.87029 5.23981 -10.2674 19
457 1 12.7773 7.65037 -1.67973 21
458 1 7.03563 16.4359 -6.67023 9
459 1 9.1686 -5.59978 4.10806 20
460 1 15.2093 6.25644 -3.71743 19
461 1 -1.87952 -0.232704 -12.4141 18
462 1 0.0973901 -12.5864 -0.205538 21
463 1 -1.40882 -14.8976 8.40802 13
464 1 0.89624 -6.9746 9.74826 16
465 1 -8.24358 1.11667 -7.68794 20
466 1 -12.6149 -11.1605 8.41993 11
467 1 -3.90166 -11.1958 -10.2436 19
468 1 8.17323 15.2549 5.70015 13
469 1 -3.48238 5.91468 -8.51423 20
470 1 2.66164 1.48089 12.9325 19
471 1 -13.8929 3.16078 12.7364 16
472 1 -3.90199 -16.6975 0.378005 19
473 1 -12.8138 -2.47852 1.98192 21
474 1 12.3579 -0.0222936 -2.93963 20
475 1 9.32697 -0.330188 -2.87757 21
476 1 -8.52196 9.47314 -3.52257 20
477 1 1.2846 -6.23496 -5.91165 19
478 1 3.6094 5.7232 -8.29785 20
479 1 10.8499 -2.78092 -3.32267 20
480 1 -7.74902 -1.16837 15.7132 16
481 1 9.80857 12.4326 -1.4919 15
482 1 -5.30107 -0.828792 -16.2789 12
483 1 5.96021 3.33258 -15.7549 17
484 1 -5.70834 -2.65037 7.26859 21
485 1 -7.44417 16.0544 0.554427 10
486 1 -8.44008 -3.4757 -13.4168 19
487 1 -17.3302 0.508783 1.90528 15
488 1 -2.13162 -8.95655 -13.8297 15
489 1 -7.10308 -9.84414 11.5983 13
490 1 0.0853091 8.40995 -5.27946 19
491 1 15.1536 6.43942 9.40515 14
492 1 16.4375 8.11884 -1.58129 18
493 1 -12.7578 -10.1594 0.602304 11
494 1 -1.25723 -9.51784 -1.30851 18
495 1 -0.235595 -3.45467 -16.5686 11
496 1 -8.09047 11.9267 11.4968 12
497 1 1.87478 -2.68529 -7.98402 20
498 1 11.064 -0.592729 0.242301 19
499 1 3.31991 15.9516 -6.71052 14
500 1 6.29972 -6.34538 2.42647 22
501 1 14.8795 6.95537 -6.85001 14
502 1 -0.0161753 11.1686 14.0845 16
503 1 -10.5985 -1.76223 7.18168 18
504 1 7.00106 9.39408 7.79609 23
505 1 7.38793 2.12998 17.4136 11
506 1 5.17417 1.40235 -12.475 21
507 1 -5.03604 -6.5685 -4.8607 21
508 1 0.759951 1.85036 10.6087 16
509 1 7.87418 12.7145 6.46889 20
510 1 7.3275 7.66121 -5.40768 20
511 1 -6.49919 10.2826 -6.65703 20
512 1 1.81937 12.5026 -1.66742 18
513 1 9.51694 0.114021 12.7553 15
514 1 12.1702 3.91419 -11.2781 16
515 1 11.8665 -8.23309 -3.79514 12
516 1 12.0092 12.5888 11.4766 11
517 1 -19.0971 -4.9667 3.16879 11
518 1 -7.91611 9.9065 -9.64097 15
519 1 -0.982691 4.32889 10.3594 17
520 1 -14.6561 0.382986 11.3602 14
521 1 -4.58124 12.6952 -7.7679 18
522 1 4.18505 -14.7514 -2.99067 14
523 1 6.7338 -0.490145 -7.91459 26
524 1 -3.207 14.7465 -4.25412 15
525 1 -10.3852 -6.71227 -13.5678 12
526 1 -2.12585 -13.7341 1.28489 19
527 1 -17.6846 -0.39173 -0.805914 11
528 1 1.69758 10.2791 -12.5641 12
529 1 -3.43844 11.4589 14.5135 12
530 1 -13.4543 -2.92122 9.64967 20
531 1 6.80319 7.88651 -0.3308 19
532 1 1.82784 -9.72888 -6.06328 17
533 1 2.73175 -6.49176 11.6575 13
534 1 -10.7483 6.24506 2.07654 23
535 1 5.83903 7.50593 19.5361 12
536 1 5.18791 13.346 -5.04397 17
537 1 10.6292 -5.15205 -1.65213 19
538 1 5.35646 12.1818 8.49635 21
539 1 2.42681 4.79176 -15.9594 12
540 1 -5.13579 -10.6444 8.4782 16
541 1 -0.0325211 0.386961 -8.04076 20
542 1 9.5993 3.95421 -16.2686 7
543 1 2.48104 13.4318 6.57733 22
544 1 10.178 4.80849 -8.37994 22
545 1 -2.2655 -3.37964 -13.0233 19
546 1 -4.7818 -12.1854 -4.07726 20
547 1 -11.4736 -3.40438 -14.1958 11
548 1 11.1252 4.89588 -0.426252 21
549 1 14.9436 4.82298 -0.846465 18
550 1 7.20621 -4.38211 -7.46054 21
551 1 14.8298 9.32095 11.4259 13
552 1 6.51365 -10.1945 -5.35947 14
553 1 5.01086 5.44805 -13.8108 18
554 1 8.61149 12.9786 3.22342 21
555 1 -8.57403 3.45524 2.25605 24
556 1 9.27972 11.8983 13.9802 13
557 1 13.4585 8.51911 -5.05642 19
558 1 11.4781 2.36204 2.5927 20
559 1 11.4266 5.90923 -6.2378 21
560 1 4.93547 3.39198 12.8737 20
561 1 14.4042 8.70191 7.68975 21
562 1 3.99044 -7.45636 9.16486 17
563 1 14.6277 14.1598 -2.34917 10
564 1 1.08696 0.689164 15.6589 16
565 1 14.3795 2.00361 -6.97294 17
566 1 7.63243 4.64394 10.9429 21
567 1 -6.20347 -1.55269 -8.0631 21
568 1 13.7175 7.36671 1.20826 21
569 1 11.6659 -2.30801 2.90873 18
570 1 -9.86986 5.28022 16.5402 11
571 1 8.36602 10.9259 10.727 16
572 1 9.33764 6.69668 12.2493 20
573 1 4.41256 10.4972 5.83046 25
574 1 -2.44827 10.3896 11.3754 22
575 1 7.10249 3.12682 7.27604 21
576 1 -1.77403 -18.2447 2.62583 11
577 1 -6.87971 13.3746 -0.969448 20
578 1 10.5862 13.4725 -4.92095 13
579 1 7.41781 -1.13305 -13.0586 21
580 1 -0.424186 15.1198 -3.24474 15
581 1 -0.96236 -12.5852 -8.8645 14
582 1 8.29054 -3.63537 -12.5918 16
583 1 -12.2094 4.35203 7.22527 21
584 1 -4.31376 9.84209 -8.16454 18
585 1 -4.76624 -19.2212 2.9577 9
586 1 -6.20588 1.31486 -9.84343 21
587 1 -13.9406 0.903261 -4.01522 17
588 1 11.4046 -7.39835 4.46596 11
589 1 13.9931 10.4385 2.62378 22
590 1 -1.33048 -4.44016 10.382 17
591 1 -13.6035 -1.52757 -8.16015 14
592 1 3.46431 1.42395 -16.7808 16
593 1 -3.36225 2.86015 15.2221 17
594 1 6.91451 9.45714 -10.2593 18
595 1 12.6118 1.97163 12.202 13
596 1 6.81436 5.49575 -8.87288 22
597 1 12.7086 13.2451 3.15364 14
598 1 4.59848 -13.9772 -7.36679 13
599 1 -11.9958 -1.23897 15.1398 16
600 1 14.2135 0.266094 1.8455 14
601 1 -1.77653 13.9134 13.2998 11
602 1 6.17767 13.1134 -9.5456 11
603 1 -15.0123 9.41117 -4.5163 11
604 1 10.9901 11.3614 3.54384 22
605 1 -11.9069 -16.9568 1.52229 9
606 1 14.9541 -1.93752 2.88463 11
607 1 6.70751 15.2182 2.91951 17
608 1 -5.10597 4.47323 13.3585 17
609 1 -11.1968 -5.08954 2.32827 20
610 1 -8.71513 -3.81304 -8.48563 18
611 1 6.80136 5.86389 13.2658 20
612 1 -3.33196 -9.95059 10.782 13
613 1 6.95991 7.80618 10.0843 23
614 1 -6.52941 10.4661 -1.5674 18
615 1 9.2037 7.74177 5.10625 19
616 1 7.32888 4.96829 4.67797 23
617 1 3.27803 3.09794 -14.0238 23
618 1 -10.6547 1.25212 7.46482 21
619 1 11.2893 2.56953 -14.3515 12
620 1 8.88702 -7.82572 -9.59493 15
621 1 8.00201 6.54955 7.41665 20
622 1 5.6584 5.96417 7.88762 24
623 1 -10.3798 -0.0890605 17.8129 12
624 1 11.9824 8.10479 10.7788 18
625 1 -0.320672 1.07349 13.3719 17
626 1 -1.69894 5.42107 13.583 17
627 1 2.00585 -4.32856 -13.9785 18
628 1 -6.92083 1.81882 13.4284 19
629 1 5.97473 1.96931 10.1508 16
630 1 -8.35799 -15.2793 5.5393 14
631 1 14.1807 10.2647 -0.714786 20
632 1 3.9961 -12.5406 -5.26821 19
633 1 5.04936 8.85251 -3.247 18
634 1 11.207 13.1981 6.17856 19
635 1 5.59341 0.0970554 -15.518 15
636 1 4.16201 13.7783 -0.112867 23
637 1 16.547 10.2978 1.11361 15
638 1 -10.0609 -11.8773 -1.13357 14
639 1 0.955347 -0.367567 -16.2263 15
640 1 -9.23301 8.90695 2.51765 21
641 1 7.8196 -2.52707 -9.49449 20
642 1 12.0044 8.0718 -7.90581 21
643 1 9.34137 15.5789 -1.48648 14
644 1 -7.40577 6.39308 2.41462 24
645 1 6.50331 5.67301 -3.19029 22
646 1 11.6761 4.8951 14.5129 15
647 1 8.41817 3.75078 14.3622 19
648 1 -0.598474 -12.0986 10.3436 13
649 1 -6.52543 10.0715 -13.0254 9
650 1 2.33543 15.2773 9.38516 15
651 1 6.77479 -6.75495 -12.0673 15
652 1 2.97914 3.69136 10.1962 22
653 1 9.14744 16.2809 -4.32297 10
654 1 5.38803 12.0012 2.76119 22
655 1 13.4979 -4.9299 -3.15841 13
656 1 6.44164 10.2719 18.9419 12
657 1 -12.6077 -0.435411 4.84117 18
658 1 3.27058 -13.901 0.492299 17
659 1 1.15301 -0.366862 -10.3369 24
660 1 -9.19966 11.2688 4.45647 20
661 1 3.61937 14.8817 3.13215 18
662 1 -17.0871 -2.95043 2.24614 16
663 1 -2.61151 6.03033 16.5485 12
664 1 -5.60732 6.78416 -13.2131 17
665 1 -8.68379 8.41777 -12.4029 10
666 1 -0.983556 -15.3673 -1.05587 15
667 1 9.79908 8.24517 -5.28475 18
668 1 -13.7048 4.20012 16.575 7
669 1 2.72011 -0.206458 -13.2582 23
670 1 1.23699 -12.7103 8.56173 14
671 1 1.40436 14.0143 1.46207 20
672 1 -4.61851 -2.67734 16.362 9
673 1 -9.0529 -8.26066 -10.6135 18
674 1 -5.87064 -9.89952 -14.4738 12
675 1 -7.05711 -12.1056 -9.35459 12
676 1 -0.0155164 16.2433 -6.0938 14
677 1 6.25753 -4.59749 -4.60968 22
678 1 -3.33769 13.3018 10.4625 15
679 1 4.5823 -7.24781 -6.39038 20
680 1 5.97689 -16.0348 -0.715688 12
681 1 2.30334 -5.71348 7.4918 18
682 1 15.9622 3.94344 -5.48212 11
683 1 -1.23695 -16.2155 -6.59007 9
684 1 -13.7298 -2.94986 6.32083 18
685 1 -6.29804 -18.5305 0.082616 9
686 1 -7.90916 -10.7426 -3.33085 16
687 1 -11.6511 0.61488 12.5635 19
688 1 -9.78829 -18.1554 -0.198395 7
689 1 17.734 7.44697 -5.19524 8
690 1 -2.02938 16.9806 2.19236 14
691 1 -15.4066 10.2998 6.14817 12
692 1 8.82175 0.0477277 2.87406 23
693 1 -12.4761 -2.42596 -11.2419 12
694 1 -0.139112 11.714 -3.91478 23
695 1 11.35 1.95744 -8.48113 18
696 1 7.2573 13.9845 10.2672 13
697 1 8.63453 4.70838 -5.71854 23
698 1 -13.8661 1.51487 -8.16101 14
699 1 -13.0756 -1.98472 -1.99408 20
700 1 0.445548 6.70072 17.2285 14
701 1 8.78574 7.7528 -8.40551 21
702 1 14.5551 12.5074 6.74161 13
703 1 -4.86841 -1.26145 10.904 17
704 1 -6.015 -15.2775 -1.55698 17
705 1 -8.81838 -17.907 3.38626 11
706 1 -4.3549 -5.60504 7.47361 20
707 1 12.6196 10.74 8.65965 21
708 1 3.02475 -8.83457 -9.25249 21
709 1 -7.48159 8.04292 -0.78738 21
710 1 7.98628 8.22372 2.57806 22
711 1 -9.17795 -2.34198 2.44724 23
712 1 10.1861 9.3539 -11.1722 12
713 1 -5.06809 -15.349 -5.35034 11
714 1 0.0430639 -16.6847 3.708 13
715 1 -2.7833 -15.6515 3.57582 19
716 1 4.82292 2.79749 -7.88944 22
717 1 6.53406 15.2959 -2.13484 17
718 1 -4.64342 0.732626 -13.9353 16
719 1 1.83936 4.67819 13.1704 21
720 1 -2.52658 7.0442 -13.9107 16
721 1 -12.9802 -0.247519 -13.0903 8
722 1 -11.5152 -4.88575 -3.05709 19
723 1 2.01438 13.8316 -6.06659 20
724 1 -3.4375 -4.08566 -16.0707 14
725 1 -9.44968 -6.00583 -1.33272 19
726 1 9.54612 10.4182 -7.66465 20
727 1 10.7337 -5.9524 1.28018 18
728 1 -4.40265 4.33057 10.4419 19
729 1 4.13932 -8.76479 1.87294 14
730 1 14.9702 -5.06396 -0.213253 11
731 1 11.8845 -1.32224 11.828 9
732 1 0.763563 10.6792 5.59853 23
733 1 -12.5769 1.9226 15.8952 15
734 1 -11.8759 5.74954 13.0236 13
735 1 -4.43673 -16.1285 8.82365 8
736 1 9.69047 5.48458 2.00482 19
737 1 3.43837 11.7853 13.7769 16
738 1 -15.4062 0.955518 -0.446164 17
739 1 8.01483 -5.47086 0.143215 21
740 1 -14.0022 12.0425 -3.36665 12
741 1 -4.26515 -13.4547 8.48427 13
742 1 7.06678 0.989927 13.6779 16
743 1 -0.746447 11.8245 8.16264 19
744 1 -0.435365 -12.8781 3.52763 18
745 1 -9.46489 -2.60896 -2.76749 23
746 1 4.04182 5.86128 11.0633 20
747 1 -15.5387 -4.44003 -2.21255 16
748 1 -1.29702 8.4003 15.1353 17
749 1 7.21024 13.4517 0.178226 22
750 1 -14.5213 -10.6068 3.08457 13
751 1 -5.31312 -15.1109 5.55017 19
752 1 5.62578 -4.76053 13.8837 10
753 1 9.24896 -7.65385 7.58307 8
754 1 7.62766 10.4691 4.34905 21
755 1 -2.7147 -5.08129 -5.62486 23
756 1 -3.86695 3.05454 -10.2797 19
757 1 -5.34456 -0.904903 13.683 20
758 1 -1.63567 14.5549 2.02242 22
759 1 12.6129 5.10622 3.30855 15
760 1 4.29749 7.3996 -5.88356 19
761 1 -3.37987 8.08132 12.8856 15
762 1 5.71838 11.5333 11.9099 16
763 1 8.11458 0.910613 -11.1974 19
764 1 -10.3445 -11.306 2.20997 23
765 1 15.6308 2.45427 3.73283 13
766 1 3.40328 0.153628 -7.77852 23
767 1 1.13708 7.35551 13.6431 20
768 1 4.76535 -10.9994 -7.69975 20
769 1 6.08686 8.16513 -13.6501 9
770 1 -2.78593 -7.68684 -3.3922 21
771 1 13.3573 7.22324 -10.8004 9
772 1 15.4304 -1.38467 -0.932477 14
773 1 0.770277 -3.50389 13.3557 14
774 1 -4.74747 -8.19665 -11.7127 18
775 1 8.17882 10.5857 1.05082 21
776 1 -14.7254 5.22755 7.33071 15
777 1 12.5787 5.51124 -3.83068 19
778 1 17.3359 8.62463 3.19818 15
779 1 2.55715 -7.12673 -11.5798 16
780 1 -7.02064 12.0457 7.33403 17
781 1 15.6522 12.4437 10.891 7
782 1 12.3961 15.4965 -4.28081 8
783 1 5.24586 4.58923 -11.1684 21
784 1 9.59665 -3.20219 0.83886 20
785 1 -12.0826 3.52491 2.20329 20
786 1 11.7652 8.57726 3.46876 22
787 1 -17.43 -5.98091 0.146113 11
788 1 -12.6288 10.8123 -6.11879 12
789 1 4.09659 2.96603 7.31447 21
790 1 -11.0358 -0.971558 -7.78175 22
791 1 -12.2335 5.61888 4.95145 21
792 1 -5.38224 5.77887 -5.80126 22
793 1 10.4263 -5.23468 -7.83771 17
794 1 -11.9264 -7.0095 -5.2769 15
795 1 12.9209 -7.51504 -0.490832 13
796 1 -13.726 6.57367 1.27626 22
797 1 -9.40856 -7.98027 -4.59829 18
798 1 15.9585 10.161 5.1165 16
799 1 -7.59573 -11.0799 1.94679 19
800 1 9.48295 4.24446 17.1807 12
801 1 9.63644 -4.80564 9.81002 9
802 1 11.8587 -0.653915 5.18683 14
803 1 -14.2171 8.10063 4.11933 18
804 1 -0.650569 14.8604 10.3754 12
805 1 5.20998 8.23796 -8.55915 20
806 1 -0.470714 -6.16284 -15.5962 13
807 1 -5.99925 10.7459 4.49538 18
808 1 -10.975 -8.85366 6.14716 20
809 1 8.08269 9.02516 -2.83645 18
810 1 0.791221 10.528 11.4434 18
811 1 15.2449 0.427922 -4.26414 14
812 1 5.59605 -5.20504 10.3752 17
813 1 -4.46527 10.828 -11.1472 15
814 1 2.28315 8.80013 -8.10465 21
815 1 -5.96795 1.43262 10.4442 19
816 1 17.0324 7.45376 6.46797 15
817 1 -3.43585 -4.08268 -10.5336 19
818 1 15.1288 13.1615 0.843236 12
819 1 -15.5052 5.57286 -1.06681 14
820 1 -5.1627 -7.80468 9.83199 17
821 1 2.53662 12.8038 -10.5572 11
822 1 6.36509 -1.74151 10.805 21
823 1 -2.61142 -12.3593 -1.1195 18
824 1 -8.26835 14.431 3.12674 15
825 1 -16.5004 5.63536 2.21438 12
826 1 14.3998 -2.13694 -5.25702 12
827 1 -0.315183 -11.1286 -12.3388 15
828 1 -11.069 8.37074 4.49407 22
829 1 14.54 12.5205 -4.90453 9
830 1 -9.11862 -0.406351 5.33623 23
831 1 7.90922 -2.20019 -15.734 8
832 1 -6.13712 -8.97842 -8.77848 20
833 1 -1.00474 -11.408 -3.76042 14
834 1 -5.28745 12.4959 12.6096 14
835 1 6.99259 -13.4164 -1.64519 14
836 1 -3.7929 11.1252 -14.931 9
837 1 13.9393 2.75518 -3.4418 22
838 1 5.61615 5.92332 2.13635 19
839 1 0.684389 -15.865 1.46862 17
840 1 4.39614 -2.09584 -13.65 23
841 1 13.0521 2.1474 -0.582548 18
842 1 -2.28887 3.1779 -13.561 20
843 1 -2.57574 -8.30136 7.81741 22
844 1 8.02242 11.6439 -4.033 16
845 1 8.16481 2.46177 -7.86358 22
846 1 -8.96049 3.29053 -2.75259 22
847 1 -16.5741 5.91367 9.54154 8
848 1 2.42329 3.92107 16.8015 13
849 1 -8.04283 -7.52798 7.53811 19
850 1 5.65441 7.82384 4.95662 24
851 1 1.06609 -15.5957 6.62402 13
852 1 1.03377 9.39528 -2.17809 19
853 1 -4.1846 7.98353 9.77656 18
854 1 -9.13518 0.83412 11.0004 23
855 1 -11.2863 12.6036 7.16017 13
856 1 7.64204 2.68165 -3.09584 23
857 1 -6.75384 -6.30739 13.2326 12
858 1 1.20189 -10.7282 5.49604 19
859 1 9.74025 9.4964 8.77315 20
860 1 8.10797 -3.40878 -2.3053 22
861 1 5.08192 -11.805 -10.6136 16
862 1 -8.96264 2.38833 -10.8945 22
863 1 -1.97761 0.359126 -15.1496 18
864 1 5.53696 15.0077 7.89473 18
865 1 -12.3803 -4.16544 13.0687 16
866 1 -7.10457 6.02068 -3.37607 22
867 1 -11.607 3.24863 -3.31683 19
868 1 12.477 15.3699 -0.840372 9
869 1 -10.7921 -14.4627 3.43481 15
870 1 -0.992965 8.13481 5.43155 23
871 1 12.7121 10.5172 5.53158 23
872 1 -11.3444 -8.98474 -7.26255 13
873 1 3.18535 16.5398 6.10351 15
874 1 -9.3372 -1.93595 12.5712 17