ITEM: TIMESTEP
4000
ITEM: NUMBER OF ATOMS
500
ITEM: BOX BOUNDS pp pp pp
-30.0 30.0
-30.0 30.0
-30.0 30.0
ITEM: ATOMS id type x y z Coordination
1 1 -3.55761 2.69211 -5.78695 21
2 1 6.83976 2.76258 6.16764 16
3 1 -0.908958 3.56316 7.11698 19
4 1 9.12721 -4.18147 1.11979 9
5 1 -6.54081 2.11453 1.40618 16
6 1 -3.74602 0.453089 -8.30373 13
7 1 1.06404 -2.73239 5.6651 16
8 1 -0.750918 -5.97398 -6.79134 19
9 1 -11.7335 1.56503 -0.608148 11
10 1 1.80567 3.44931 -11.783 9
11 1 4.89987 -6.25091 -4.64932 15
12 1 5.80542 -1.29876 5.4573 16
13 1 0.704508 5.05019 -3.45344 18
14 1 3.19649 4.35967 2.79098 16
15 1 4.30851 6.82764 6.74184 16
16 1 -7.33007 -1.32492 0.164151 18
17 1 -9.528 -2.85629 1.40659 16
18 1 5.99924 -1.56673 -3.10531 20
19 1 4.9042 3.90897 8.94409 12
20 1 -8.14672 -6.25418 1.81063 13
21 1 -3.85822 -5.61754 -7.55018 14
22 1 5.19852 1.65428 -4.50527 16
23 1 6.78945 -0.625417 -5.75784 12
24 1 5.84149 -6.43761 5.00523 14
25 1 -4.93587 10.0648 5.71471 10
26 1 5.42629 0.704817 8.45845 14
27 1 -0.418429 11.4087 1.95974 14
28 1 -1.29205 1.91028 -3.95402 13
29 1 0.109404 -4.23706 -8.8385 12
30 1 -3.12022 1.45661 5.85209 19
31 1 4.49271 -3.4692 2.81995 17
32 1 -5.94393 6.4522 0.395959 16
33 1 -3.43285 7.14429 3.27257 17
34 1 2.00802 9.50468 -6.38212 8
35 1 6.12499 6.14342 1.56344 18
36 1 -3.31332 8.87333 -4.06064 14
37 1 1.98975 -5.35987 -2.2282 18
38 1 -5.59639 3.95026 -7.7139 12
39 1 -3.27878 4.67183 -1.64506 19
40 1 -3.58977 9.3785 0.0438911 15
41 1 1.11419 9.39929 0.465091 24
42 1 -8.47421 5.73342 -2.24083 12
43 1 1.19879 3.58984 9.68247 11
44 1 -3.35964 -0.374083 -11.1813 11
45 1 -6.23224 -6.31614 4.41056 15
46 1 -1.36231 -0.917976 3.52812 18
47 1 -6.49014 -1.42922 -2.81918 21
48 1 7.81164 -6.75011 -3.23754 8
49 1 -7.89456 -0.708994 3.43287 19
50 1 -12.349 0.386948 -3.6612 13
51 1 -2.94061 -12.0085 3.28269 8
52 1 3.94042 3.93739 -6.63543 12
53 1 -5.40009 -4.18878 -1.68462 16
54 1 -6.46694 -4.96261 -8.29891 12
55 1 -0.368797 4.45682 -10.3204 9
56 1 -0.792255 4.91494 2.63735 15
57 1 -3.55087 2.35914 3.47424 16
58 1 -3.52763 3.49139 0.873117 17
59 1 4.19761 -7.38221 -2.25529 16
60 1 -1.28672 10.2697 -1.53236 18
61 1 -10.7332 3.01564 3.01832 9
62 1 1.52255 8.30058 5.52911 14
63 1 2.80455 -0.375442 6.87236 14
64 1 1.72866 -8.57398 -1.60853 15
65 1 7.7842 -3.9414 -4.97715 10
66 1 -3.93886 -8.95434 1.82106 17
67 1 0.176343 -7.33033 4.77363 19
68 1 7.15719 -1.99842 7.96442 13
69 1 4.08954 -8.63971 6.33069 11
70 1 2.97181 11.9726 1.43953 11
71 1 -4.89903 -5.67551 1.28847 14
72 1 -5.97308 -11.5723 2.82225 10
73 1 -3.35127 -6.73804 -0.561822 18
74 1 1.19143 -4.37025 3.01413 18
75 1 -6.89758 -5.21052 -3.98087 21
76 1 2.5178 6.4587 -5.41933 16
77 1 -0.127499 -5.84723 0.0853344 19
78 1 -4.45324 -3.06768 9.34044 8
79 1 -9.82528 -2.1366 5.8778 8
80 1 0.521646 -10.8899 3.91025 12
81 1 -1.87144 -6.6658 2.41035 19
82 1 0.383873 0.901774 5.364 19
83 1 -10.8701 -0.434413 3.48281 13
84 1 -5.80945 10.8435 2.36289 9
85 1 -7.72462 8.9715 4.84076 10
86 1 1.65439 4.88921 4.97967 20
87 1 -1.64169 5.55648 8.9232 11
88 1 -9.60058 -2.50714 -4.65923 21
89 1 7.40672 -4.30812 4.31676 12
90 1 -6.45746 1.42632 -5.84694 20
91 1 -9.08712 -2.86853 -8.02118 11
92 1 11.2457 -1.20669 7.36522 5
93 1 -5.96722 4.28474 -1.23699 20
94 1 -1.76171 2.73291 10.7293 12
95 1 -7.06447 -1.90213 -5.70303 20
96 1 -11.4792 -2.48508 -1.96813 10
97 1 -4.64123 -10.1902 -0.63052 10
98 1 -3.8131 -6.55639 -4.49921 19
99 1 1.95828 1.81424 3.22687 16
100 1 -5.42906 6.62483 5.52158 13
101 1 7.32051 6.16546 5.24035 15
102 1 -4.9757 7.2413 -2.32146 18
103 1 -0.397164 -8.03839 -3.79775 18
104 1 -0.550764 8.76408 3.39716 21
105 1 2.02697 3.44644 -0.487697 18
106 1 -10.9368 2.27024 -6.28204 12
107 1 -11.2458 5.1518 -1.76681 8
108 1 -1.2901 -11.707 -5.25251 6
109 1 3.54796 -11.1634 5.63763 9
110 1 -8.89992 3.23797 -7.94721 8
111 1 -4.57499 -0.388492 7.94257 15
112 1 3.46362 3.77949 -3.23358 19
113 1 -5.91593 3.50422 5.46641 13
114 1 -2.443 -8.46048 -6.23066 18
115 1 -2.13353 -4.32857 7.72912 12
116 1 -3.06088 -6.53909 5.59006 17
117 1 -1.62773 -5.94181 -2.58373 16
118 1 7.45694 0.864514 0.509652 19
119 1 -3.93308 3.05701 9.40374 12
120 1 2.25722 0.671696 -10.449 12
121 1 -1.77707 7.50529 1.01486 19
122 1 6.6173 -4.7369 7.83567 7
123 1 -6.5617 -9.3544 -3.8052 9
124 1 -6.27394 -3.44169 2.98348 16
125 1 8.32784 0.632649 7.1538 17
126 1 9.95803 4.40584 1.69466 9
127 1 1.96135 5.94444 -8.72721 12
128 1 -0.349816 6.67518 -6.78979 15
129 1 3.99424 10.9707 -1.33471 13
130 1 3.81708 3.57536 -9.80009 10
131 1 0.937039 -9.03181 6.8011 15
132 1 4.96729 3.21592 0.242686 20
133 1 3.33268 -5.63552 0.735939 18
134 1 1.06448 -8.17643 1.59751 20
135 1 -8.14181 0.417929 -7.49978 14
136 1 4.91766 4.51172 4.46911 15
137 1 9.9123 1.75536 -0.914024 11
138 1 -1.98801 5.86275 -4.52199 19
139 1 -6.04907 7.12849 -5.35117 11
140 1 1.88638 -6.88252 -4.96072 15
141 1 3.06651 -6.82477 3.46751 23
142 1 -9.53165 -5.07125 3.78011 10
143 1 0.647027 -9.24628 -7.09454 11
144 1 -1.20136 -7.48573 -9.53135 8
145 1 2.51874 6.71077 -1.38593 19
146 1 5.69782 -9.7416 3.57204 12
147 1 2.82668 -1.8898 -4.38233 17
148 1 -8.48882 -3.40403 -1.56329 18
149 1 -8.64194 -5.39526 -6.17976 14
150 1 0.421286 -2.02111 8.86866 12
151 1 -0.630161 0.97228 8.43888 17
152 1 2.8771 -1.99617 -8.50788 9
153 1 -10.2442 2.78017 -3.00365 16
154 1 4.81435 8.05042 -9.8161e-04 16
155 1 8.09429 1.22978 -3.31578 11
156 1 -0.800293 1.43036 -10.972 12
157 1 -8.45071 2.22758 4.05452 15
158 1 3.86226 -2.70606 7.38736 12
159 1 4.61296 -0.380799 1.75316 20
160 1 -11.0907 -0.577137 -6.68282 13
161 1 6.16456 -6.38226 2.39253 16
162 1 -1.25791 -8.99391 -0.390663 16
163 1 8.89782 4.44342 7.87231 11
164 1 -0.388726 -6.74332 8.11281 9
165 1 -1.67332 -3.59925 2.75337 12
166 1 4.64446 0.550854 -1.3898 22
167 1 7.13664 0.470802 3.6232 16
168 1 5.77981 -2.02576 -0.0532257 18
169 1 10.4441 4.78419 10.8651 4
170 1 -6.15102 -7.82127 -6.3556 14
171 1 6.47288 7.15957 8.37244 9
172 1 -5.32007 4.61802 -4.50089 20
173 1 -3.89699 6.3222 -7.49827 14
174 1 -2.00052 -1.66375 6.30717 20
175 1 -4.18818 -3.30337 -4.21484 15
176 1 -7.53865 -9.3991 1.31069 10
177 1 4.20392 7.26557 3.57768 20
178 1 -2.74809 4.70682 5.01808 18
179 1 -8.63247 4.13912 0.812973 18
180 1 5.18136 5.50533 -1.38437 16
181 1 3.46104 2.49565 6.04313 17
182 1 -7.59006 1.51068 -1.33956 17
183 1 -3.29382 -2.8399 -8.27332 14
184 1 1.70582 5.20129 7.78555 14
185 1 4.40795 -3.59129 -2.76083 20
186 1 0.729164 12.2467 -0.768732 11
187 1 4.52488 -8.73928 0.792902 14
188 1 -1.4542 10.3001 5.32623 10
189 1 2.66443 -4.25925 -6.01555 15
190 1 2.4279 -5.72097 6.13747 15
191 1 -1.00834 4.38723 -6.99562 16
192 1 0.479333 -4.12122 -4.42322 16
193 1 -6.46431 1.17511 7.28247 12
194 1 10.0097 1.42112 2.71602 13
195 1 0.0538832 7.95673 -4.49452 21
196 1 1.92707 -1.44064 2.34886 19
197 1 6.74132 4.34135 -4.01501 10
198 1 -2.60745 -0.370589 10.3015 11
199 1 -3.96551 -3.7485 5.43562 17
200 1 -7.60355 7.83462 2.36924 10
201 1 2.69712 10.3666 3.7779 14
202 1 -8.00905 -8.82407 4.30586 8
203 1 9.59808 -1.10072 1.21728 13
204 1 -7.09444 -7.12691 -1.5325 16
205 1 10.9498 2.23344 8.69259 8
206 1 6.0271 -5.32625 -0.802314 15
207 1 -0.775042 4.86582 -0.791531 16
208 1 1.62104 7.16756 1.92741 20
209 1 -9.80489 -0.568296 -1.51961 21
210 1 -0.985357 7.37761 -2.00666 23
211 1 -0.904156 11.3935 -4.1666 9
212 1 -8.62505 0.334087 -3.98189 21
213 1 -0.107776 -1.6048 -10.5755 10
214 1 -3.65205 -9.31312 -3.84806 14
215 1 -1.95033 -9.42273 4.58497 16
216 1 8.36895 -2.6664 -1.27273 11
217 1 -9.45927 0.513424 1.31346 21
218 1 -3.27352 3.09307 -9.3849 13
219 1 -9.52956 -6.55618 -3.33237 11
220 1 9.18776 -1.4176 4.83069 12
221 1 -5.64964 -2.03299 -8.64585 12
222 1 -7.99664 5.65419 3.56628 13
223 1 -6.80269 -2.2188 6.04807 14
224 1 -3.88417 -0.672346 -5.29232 19
225 1 5.37586 9.93249 1.74596 10
226 1 7.62113 3.50394 3.11489 18
227 1 -2.63088 -9.30302 7.60092 10
228 1 4.652 0.809204 -7.96835 10
229 1 4.33435 8.33062 -3.58707 13
230 1 4.01414 9.61312 7.1668 8
231 1 1.4555 9.63803 -3.22259 18
232 1 7.71393 3.56615 -0.688946 17
233 1 -2.164 -3.41745 -1.39749 13
234 1 -4.1076 -1.10718 4.22184 19
235 1 5.21705 -3.14143 -6.26819 15
236 1 -1.36073 -2.48717 -6.32439 13
237 1 -1.9759 7.25981 6.34151 13
238 1 -4.69065 1.59898 -3.0912 16
239 1 -3.18222 10.5969 2.85505 15
240 1 -4.82494 -9.25716 4.8308 16
241 1 2.80336 -11.12 2.34993 10
242 1 -11.8493 -4.41416 -5.00263 7
243 1 -9.0053 5.13925 -4.90918 12
244 2 -11.3413 -1.18829 5.21321 7
245 2 9.69591 -0.718147 3.16563 13
246 2 -0.920162 -2.69569 7.56117 17
247 2 -4.18147 2.4642 -7.60178 18
248 2 -11.6431 3.00641 -1.71122 10
249 2 -3.4257 -8.63256 6.05574 12
250 2 4.94761 2.49283 7.10429 16
251 2 7.58074 -2.44924 4.78739 17
252 2 -5.15314 -4.98911 -4.15445 20
253 2 -1.72437 5.38751 6.94097 14
254 2 -2.41093 5.5374 3.43425 19
255 2 4.08644 1.03021 -3.19168 16
256 2 6.71029 -5.50398 -4.7841 10
257 2 -4.28686 -1.19545 -9.75521 10
258 2 -0.423955 -6.17218 -8.7085 12
259 2 -2.94548 -2.67481 -5.34658 14
260 2 -5.23994 -5.65769 -0.596671 16
261 2 -4.72544 10.8374 3.90945 12
262 2 8.19282 -5.50587 2.41433 12
263 2 4.54375 -2.21448 1.40194 16
264 2 4.27862 11.0771 2.60661 11
265 2 -0.825566 8.09397 5.0962 15
266 2 1.4728 11.0921 2.20179 14
267 2 3.0023 8.12093 -4.86007 14
268 2 3.39617 -0.149813 -9.11 10
269 2 -9.85803 1.22962 -7.3193 13
270 2 1.00109 -6.9796 6.76084 14
271 2 -7.67991 1.04048 2.43797 19
272 2 3.26331 -5.67729 -5.1946 19
273 2 -4.61459 -12.7601 3.30534 7
274 2 2.44733 -3.526 -3.19288 19
275 2 2.29053 6.63548 6.32056 18
276 2 4.72616 -0.753739 6.8213 16
277 2 -6.36683 -8.17186 5.07496 10
278 2 1.41733 -2.54177 3.86406 18
279 2 -3.35928 -9.77105 3.27605 16
280 2 -1.74607 2.9928 -5.68038 14
281 2 -0.100851 -9.17043 -2.09542 14
282 2 -8.41851 -6.8751 3.59655 11
283 2 -3.16893 -8.94278 -0.375387 15
284 2 -7.90574 -8.17259 -2.93931 10
285 2 -4.98687 7.93321 -0.567528 15
286 2 5.21102 0.427125 -6.1516 16
287 2 8.08654 5.12706 1.99871 11
288 2 0.598768 8.28818 -6.62626 13
289 2 -4.78194 3.28418 -2.2568 16
290 2 -5.33454 2.76244 -4.77296 17
291 2 5.37907 -0.576736 3.51186 14
292 2 -1.3187 10.5956 3.39357 14
293 2 -6.06555 8.47636 5.61654 12
294 2 -1.04592 5.63291 0.839014 19
295 2 0.805004 7.98711 -2.42571 22
296 2 0.681163 10.6384 -4.92954 11
297 2 0.0991085 4.92567 8.94235 12
298 2 -2.92234 0.576385 3.80007 16
299 2 2.06386 -1.54518 8.19539 12
300 2 1.08674 -2.65689 -9.35751 12
301 2 0.25783 -7.69433 -5.69354 17
302 2 -1.11981 -8.72813 -7.76506 10
303 2 -2.14047 3.08402 -0.806697 15
304 2 -10.3197 -5.51735 -4.91575 11
305 2 7.44405 -4.14877 -0.737271 15
306 2 1.99795 8.32445 3.61692 16
307 2 -1.76455 -1.24118 -11.0724 10
308 2 0.443884 0.0746914 -10.9724 11
309 2 4.62552 3.68178 -4.88721 14
310 2 -5.29767 -6.80514 -7.87123 10
311 2 0.651156 -4.71501 -6.27552 16
312 2 7.06093 -2.41728 -5.86309 10
313 2 -6.25793 -5.3149 2.66474 15
314 2 -1.5096 -3.22063 -8.0989 16
315 2 2.76386 5.30971 -3.86844 17
316 2 -2.51482 -10.2443 -5.10682 13
317 2 -0.0640702 3.07157 -11.7087 10
318 2 -3.44844 6.7791 5.11962 14
319 2 -7.54603 -7.60666 0.435844 12
320 2 -4.91761 2.9578 2.16613 17
321 2 -4.48643 5.05264 -0.0748758 18
322 2 -10.04 -3.90924 4.99478 9
323 2 -1.90295 -5.38919 -0.866823 18
324 2 -11.7356 -0.495665 -2.08121 14
325 2 3.88507 -6.76282 5.53148 17
326 2 8.13772 1.50579 -1.33073 15
327 2 -3.31734 -0.830377 -7.22223 16
328 2 4.69847 5.35073 2.6486 19
329 2 2.93163 9.79841 5.7086 9
330 2 -0.866309 -0.700216 9.28696 12
331 2 -8.61387 3.75343 2.94729 16
332 2 0.227539 0.878076 3.48005 17
333 2 -12.403 -0.0836874 -5.53056 9
334 2 -0.0862334 -1.92202 -4.71996 14
335 2 7.67913 1.65652 2.3226 21
336 2 -9.55167 -1.12325 2.16382 16
337 2 -5.33559 5.52643 -6.37844 15
338 2 3.02514 2.23703 -10.903 10
339 2 -9.53545 5.09184 -0.750831 11
340 2 -0.455421 -5.15829 2.1811 16
341 2 2.66989 7.80521 0.4633 20
342 2 6.01344 -6.8213 -2.80925 12
343 2 3.44618 -8.67399 -0.824787 14
344 2 -7.03654 9.66707 3.05306 9
345 2 0.152927 -9.18575 4.79681 17
346 2 1.09199 -9.84542 2.338 14
347 2 5.32967 5.63378 8.30671 14
348 2 0.183425 11.0625 -2.57169 14
349 2 -3.85888 -3.46135 7.34595 16
350 2 -3.54927 -6.98629 1.59588 16
351 2 -1.97734 3.26104 2.43538 16
352 2 -3.87981 -0.461289 6.20509 20
353 2 0.326541 5.50973 -8.09745 11
354 2 4.51936 -1.80347 -1.69557 23
355 2 2.0252 1.1339 6.27571 15
356 2 -8.84062 -1.48183 -3.16542 21
357 2 5.30179 8.12012 2.1357 13
358 2 5.17076 8.30914 7.79396 9
359 2 7.75297 -2.83974 -3.32348 17
360 2 -9.44721 -4.82227 1.74598 12
361 2 2.82723 4.07908 8.88964 11
362 2 -3.5049 1.10052 -4.57673 16
363 2 -6.28452 0.457567 -2.41053 18
364 2 7.11461 -0.28517 8.26948 11
365 2 3.15855 3.38934 4.41487 17
366 2 1.88196 4.74543 -10.31 10
367 2 5.34221 -4.87774 3.65722 15
368 2 0.868377 3.97114 6.38899 19
369 2 6.12436 -7.89065 3.55693 15
370 2 1.4109 -5.90779 4.38943 17
371 2 -6.98087 3.02286 -0.275831 20
372 2 -11.2503 -3.11875 -3.72564 16
373 2 -7.35987 5.99504 -4.58065 12
374 2 -7.22081 2.47967 -7.39605 12
375 2 -6.42793 -2.72357 -1.18742 16
376 2 -0.682842 -8.66537 7.68916 12
377 2 2.61116 11.8427 -0.517603 12
378 2 -8.3931 -4.69247 -8.02455 12
379 2 10.2544 0.761662 0.746404 12
380 2 -7.43333 5.91239 1.66601 15
381 2 5.33213 -6.2753 0.677379 16
382 2 -4.77012 -5.34454 5.06595 16
383 2 -7.46253 -6.5965 -5.83714 15
384 2 -1.92747 7.59604 -3.87618 19
385 2 -8.68378 7.4294 3.93667 9
386 2 3.0109 2.93504 1.29022 17
387 2 -1.83439 -6.1016 7.09206 13
388 2 -10.1778 1.36842 3.84396 12
389 2 -2.11556 8.65164 -0.853988 18
390 2 -0.382061 2.31743 9.78 14
391 2 -11.2442 1.87582 -4.37683 14
392 2 5.06785 9.99273 -0.185878 11
393 2 -2.55174 4.33259 9.80823 11
394 2 -0.507199 -0.797741 5.26536 21
395 2 1.20045 4.99557 -1.08141 18
396 2 -7.47222 -1.51762 -7.77998 16
397 2 0.304099 5.78373 -5.19506 18
398 2 -5.18822 -9.95824 -2.54033 10
399 2 -2.25138 6.12942 -6.70371 16
400 2 7.34034 0.901889 5.39303 19
401 2 1.27985 5.27035 2.83161 20
402 2 9.63889 3.49251 0.0740369 13
403 2 2.73959 -9.79772 6.87737 10
404 2 6.81937 -0.0849852 -4.00192 13
405 2 5.24145 6.46099 5.11394 17
406 2 -9.26082 1.29871 -2.38193 18
407 2 -1.08044 5.48572 -2.67988 16
408 2 -4.82303 2.03522 7.89067 13
409 2 -7.65859 -3.61265 -5.16123 21
410 2 -0.610322 -7.55377 0.620353 17
411 2 -3.18151 8.58783 2.10208 18
412 2 -6.9986 2.13616 5.41877 15
413 2 -6.95919 -1.96647 1.99145 15
414 2 -0.0451463 -10.6424 -6.27411 7
415 2 6.72335 4.16238 4.93866 19
416 2 -6.49278 6.10323 -1.73966 17
417 2 -4.50778 5.05362 -8.76461 10
418 2 4.37487 7.16958 -1.6724 17
419 2 -2.30054 -7.75914 -3.91908 18
420 2 11.7026 0.523789 7.983 4
421 2 7.73367 5.86606 7.14482 12
422 2 -2.34441 10.496 -3.19396 12
423 2 -7.61097 0.126324 -5.58573 18
424 2 -4.93671 -3.78088 -8.28059 13
425 2 -5.48349 -1.70047 -4.52811 20
426 2 -3.02426 10.1869 6.39759 9
427 2 -4.92721 8.03691 -4.12346 13
428 2 -9.45646 3.78645 -6.29494 11
429 2 -6.59488 5.25227 4.91359 15
430 2 2.96084 5.24298 -7.26162 13
431 2 3.53905 -3.00699 -7.25959 12
432 2 -3.72618 -3.25477 -2.38752 15
433 2 -10.0129 4.99971 -3.39129 10
434 2 -1.50319 3.87189 -8.86366 15
435 2 1.47263 -5.3145 -0.486411 19
436 2 5.55356 -3.07714 7.98481 11
437 2 -6.22946 -0.77426 7.12179 12
438 2 -2.73337 -6.54456 -6.4878 19
439 2 -8.10742 -1.68622 5.07888 16
440 2 5.43394 1.01594 0.223683 20
441 2 6.91354 -5.14357 6.12163 10
442 2 -10.9274 1.90205 1.15274 15
443 2 -3.98743 -1.34224 9.40667 12
444 2 -1.37867 -11.6238 4.11578 8
445 2 11.4383 6.06578 11.5623 2
446 2 2.39222 -7.50302 -3.15257 15
447 2 -4.34282 10.6738 1.05956 9
448 2 -10.2716 -2.10905 -6.5257 17
449 2 -5.30495 -2.61174 4.48021 15
450 2 2.37904 -3.78203 6.57024 14
451 2 3.96985 3.69741 -1.36184 21
452 2 4.13729 2.61328 -8.14505 11
453 2 10.1279 4.16388 9.23175 6
454 2 -3.82488 5.47199 -3.66123 21
455 2 9.58871 -0.73367 6.69228 11
456 2 -0.0290064 -5.42515 -3.25536 19
457 2 -8.29871 -5.19046 -2.45354 18
458 2 4.62833 -2.5578 -4.5055 20
459 2 4.39955 -10.1805 2.05028 12
460 2 9.43362 -2.70095 0.27928 10
461 2 2.99698 -4.68445 2.48485 16
462 2 -1.3287 1.79763 6.99766 22
463 2 6.99932 4.69107 -2.08745 13
464 2 -9.95076 -2.3129 -0.439117 15
465 2 2.81944 0.413694 2.25935 18
466 2 -8.2084 0.291356 -0.171295 22
467 2 4.78282 -9.91401 5.05766 11
468 2 3.27119 9.57065 -2.34886 14
469 2 10.0962 3.17255 3.34284 9
470 2 6.18048 4.79223 0.283253 16
471 2 -1.94959 -7.40208 4.25715 18
472 2 2.86863 -7.39744 1.67 18
473 2 7.48695 -1.09142 -0.114813 19
474 2 2.42998 -11.5575 4.14472 11
475 2 -5.11518 -7.95058 -4.48192 15
476 2 -0.265515 10.913 0.203637 15
477 2 -0.14038 8.24988 1.60827 21
478 2 -7.40768 -10.0298 3.04387 10
479 2 -3.11744 1.43745 10.2839 11
480 2 -4.13401 3.11013 5.30852 18
481 2 8.28178 2.70396 7.46512 13
482 2 7.81974 2.66926 -4.67439 9
483 2 -2.57559 -2.73387 4.36422 16
484 2 -2.8546 1.21744 -10.0518 12
485 2 -5.51557 -9.93901 0.974736 12
486 2 4.07267 -5.28312 -1.59952 17
487 1 -0.189113 -1.18911 -2.84 16
488 2 -0.955889 -1.95589 -1.195 13
489 1 -0.189113 -1.18911 0.45 17
490 2 -0.955889 -1.95589 2.095 17
491 1 -0.955887 1.61589 -1.195 15
492 2 -0.189111 0.849111 -2.84 14
493 1 -0.955887 1.61589 2.095 16
494 2 -0.189111 0.849111 0.45 20
495 1 2.61589 -1.95589 -1.195 23
496 2 1.84911 -1.18911 -2.84 18
497 2 1.84911 -1.18911 0.45 17
498 1 1.84911 0.849113 -2.84 19
499 2 2.61589 1.61589 -1.195 19
500 1 1.84911 0.849113 0.45 21
