ITEM: TIMESTEP
19000
ITEM: NUMBER OF ATOMS
1500
ITEM: BOX BOUNDS pp pp pp
-30.0 30.0
-30.0 30.0
-30.0 30.0
ITEM: ATOMS id type x y z Coordination
1 1 -6.08629 -8.46108 -6.4748 15
2 1 8.49139 -8.72522 8.92932 14
3 1 -15.4501 11.6774 -0.328724 10
4 1 -11.7678 5.38899 -5.02151 20
5 1 0.494459 -9.86249 15.9169 10
6 1 -9.86893 2.67852 -5.14518 20
7 1 -7.02533 -8.56448 3.36452 18
8 1 -13.3075 -6.20084 7.13157 16
9 1 -2.33306 4.24 17.0251 20
10 1 -5.56345 3.69857 15.4383 19
11 1 0.029523 12.9082 -7.93812 14
12 1 1.34234 -1.71559 14.9734 17
13 1 11.5563 3.89243 11.2023 14
14 1 -5.29607 12.1955 -9.2759 12
15 1 2.97083 4.64169 -9.6243 19
16 1 -3.76482 -3.41372 -4.71788 22
17 1 6.0568 -14.4565 6.10297 8
18 1 8.22238 -12.6285 4.81038 12
19 1 -6.5364 -13.6236 -3.28288 7
20 1 -0.727117 -1.34674 -11.3115 20
21 1 -2.96038 6.81707 19.0654 10
22 1 -0.794241 -8.78987 9.50838 17
23 1 4.11986 -3.96344 14.9845 14
24 1 -14.8132 -3.7203 8.51141 14
25 1 -12.4344 2.47832 0.435617 20
26 1 -8.46423 12.3934 1.68685 19
27 1 -0.698307 2.09943 -6.57989 21
28 1 -0.109 -6.51555 -9.35953 18
29 1 -2.65929 -4.81355 17.9686 11
30 1 -14.3782 10.1273 7.77242 16
31 1 -1.49416 12.6753 11.6692 12
32 1 -10.1059 12.9655 -5.4206 13
33 1 -6.84211 9.51937 2.3343 17
34 1 -0.60868 -9.35285 6.34571 18
35 1 6.0988 -9.75695 -6.19789 11
36 1 -12.2419 3.03574 15.0401 16
37 1 -14.5632 -2.38641 -5.23853 13
38 1 2.85235 -0.118069 9.39562 21
39 1 -12.4174 5.61462 -8.44439 12
40 1 -11.0006 -8.98101 13.4639 14
41 1 -12.6626 7.99148 -6.36745 14
42 1 0.505267 4.34358 12.1742 19
43 1 4.75146 -13.2476 3.42375 21
44 1 5.41919 5.11388 16.6263 17
45 1 10.1369 -2.37467 -4.35102 14
46 1 6.89363 -11.4442 7.87032 13
47 1 3.66425 1.63741 18.3892 10
48 1 -8.42442 -10.3651 14.3918 12
49 1 -13.9927 -1.49702 3.80293 17
50 1 11.3624 2.08055 14.1531 9
51 1 6.16283 0.0621477 -1.71745 23
52 1 -3.3702 9.40664 14.3762 12
53 1 3.25268 -1.33045 12.4937 22
54 1 -6.82862 -3.18459 -6.75886 21
55 1 -9.54427 10.0953 0.113422 21
56 1 -2.64915 10.5744 -7.92485 25
57 1 4.73422 -2.6407 -3.41793 21
58 1 9.69843 -10.6372 2.87407 13
59 1 3.20983 -6.42182 9.83105 20
60 1 -3.77734 12.8607 -5.47412 16
61 1 -12.3427 11.3796 -0.250064 21
62 1 -9.39995 12.1629 9.73183 11
63 1 -6.12278 -9.44777 15.5938 11
64 1 7.80311 -7.82493 -2.67942 16
65 1 -12.7831 11.7083 4.73365 16
66 1 5.94349 -5.69804 1.48821 22
67 1 4.67087 2.32344 -6.46343 20
68 1 -8.31648 -0.405813 -10.1804 18
69 1 -6.39217 12.1254 7.68564 19
70 1 -11.5505 9.76365 -8.79417 9
71 1 -5.73245 10.3603 -5.47947 23
72 1 -2.63926 10.0833 3.59235 19
73 1 -9.0209 -3.60662 11.4733 17
74 1 -2.47832 -6.16587 -6.80638 23
75 1 -0.693575 -3.64276 -6.87267 22
76 1 -5.6664 4.22938 11.7139 18
77 1 -15.3362 -10.9506 -2.1591 9
78 1 -12.0135 -9.11309 -0.26033 20
79 1 6.11486 -5.82888 5.36557 19
80 1 -9.37008 7.56578 4.96437 21
81 1 4.55578 1.62174 -10.0327 13
82 1 2.08398 10.913 -2.65148 22
83 1 10.8819 -4.81736 6.50134 14
84 1 -2.15619 -12.3908 3.93735 15
85 1 -9.77742 -8.44941 1.72227 18
86 1 -12.4858 -3.60064 6.68667 21
87 1 8.97959 10.2121 11.0932 12
88 1 -8.04345 9.55847 11.2581 16
89 1 -3.0838 12.8752 -2.39585 21
90 1 -4.33668 -3.94444 -8.00491 21
91 1 5.41946 1.84994 12.8856 21
92 1 -6.29617 7.31117 -3.04137 19
93 1 8.01608 3.02321 -1.90957 23
94 1 -12.017 10.5985 -5.28965 14
95 1 -10.949 14.6839 -3.03412 12
96 1 8.62092 6.4774 -7.14576 13
97 1 6.76188 -7.32112 11.8513 9
98 1 -11.2739 4.67486 -1.55965 21
99 1 5.06813 12.2614 1.40427 17
100 1 8.01727 7.89322 2.12697 19
101 1 -4.88991 10.0686 -2.07989 16
102 1 -4.03409 -3.43179 -13.2851 14
103 1 -0.431686 13.3992 7.93739 17
104 1 -15.045 -7.69402 -0.890301 12
105 1 15.5359 1.37697 -0.247814 9
106 1 -5.93676 9.63264 8.91182 19
107 1 -2.12428 15.8424 -2.93446 9
108 1 1.32412 -6.20629 13.9243 16
109 1 -12.0707 -3.42262 3.24501 23
110 1 -5.10982 -6.58017 11.3236 21
111 1 -0.595915 -13.8353 -0.316282 15
112 1 -2.89222 14.3177 -8.6824 10
113 1 4.8505 11.2275 -1.34297 20
114 1 -0.699179 -10.0907 12.7544 15
115 1 -12.3802 2.31987 3.61759 22
116 1 -3.77474 14.2502 8.04689 10
117 1 -0.801381 7.15328 13.6369 19
118 1 -12.3394 14.1843 6.85109 9
119 1 -8.6543 5.01342 -3.5995 22
120 1 13.2212 -3.50844 3.6875 10
121 1 -8.72458 -4.00297 8.22954 21
122 1 -14.3789 -0.645108 6.48643 18
123 1 -8.78505 -9.11499 11.5249 20
124 1 -15.889 3.07523 0.431032 11
125 1 -3.64517 -14.5797 1.34083 11
126 1 3.33705 -5.82465 -0.115119 24
127 1 -2.87833 9.50537 6.7941 20
128 1 -10.966 -0.658432 -1.78271 22
129 1 -3.90026 7.16828 -7.90971 20
130 1 -14.1229 -5.29097 -3.79636 18
131 1 -11.5723 -0.316242 16.175 12
132 1 -2.16587 -5.9468 9.83671 19
133 1 3.54443 -12.2085 10.2817 9
134 1 14.9323 -1.30349 9.31203 9
135 1 3.21458 5.65989 -3.21137 22
136 1 2.68175 4.05171 16.4702 20
137 1 -2.39878 8.83083 -10.9248 12
138 1 5.5069 -2.70308 -10.3191 13
139 1 -14.2014 -5.64066 -6.65009 9
140 1 -6.67643 12.6511 -3.4721 20
141 1 -9.39086 12.2361 -1.5392 22
142 1 10.6185 1.5306 9.01945 17
143 1 -5.62812 -5.44648 -11.6036 15
144 1 -6.73384 7.50295 -6.29247 22
145 1 -1.12761 7.72503 -6.60847 18
146 1 -8.69132 4.10375 10.0147 16
147 1 -12.4999 5.82129 15.2585 12
148 1 -2.89152 -11.0775 -3.7697 18
149 1 -6.41351 -12.3783 8.04661 18
150 1 7.65467 -13.5241 1.64963 11
151 1 4.8751 11.1198 -4.48244 16
152 1 -3.37281 11.018 0.332533 19
153 1 -15.1041 1.79208 5.10835 15
154 1 2.21832 7.03103 12.1169 19
155 1 8.68341 5.8894 -3.20398 19
156 1 -0.699052 6.39164 10.2892 19
157 1 -11.2642 4.86455 8.42152 22
158 1 -10.9223 -6.00817 -1.9622 20
159 1 7.39857 3.35419 -8.81854 11
160 1 0.261333 -0.786841 11.8154 19
161 1 3.72718 6.23266 -11.2423 12
162 1 -0.537288 -8.24143 0.0759302 21
163 1 -6.91244 2.28613 -6.64536 19
164 1 5.79817 0.10622 -4.80609 19
165 1 -12.0732 -4.05965 10.0484 20
166 1 -3.55524 -13.8101 -2.01258 15
167 1 -15.3541 -7.49316 -3.28655 10
168 1 4.04356 13.1862 4.6703 13
169 1 -0.306143 -0.507681 -8.19287 18
170 1 2.71878 4.92663 19.4973 11
171 1 11.2836 2.29213 3.13576 17
172 1 6.41368 -6.42291 -5.1882 18
173 1 -7.21852 -3.31619 -9.68118 19
174 1 -12.9446 -2.34113 -9.53546 9
175 1 5.58113 -1.07513 14.6905 15
176 1 2.26527 -3.8175 11.6403 19
177 1 -5.07167 -6.58443 -8.60009 19
178 1 -0.124673 -2.75723 9.63034 21
179 1 0.220019 9.63463 -8.66413 16
180 1 4.90546 7.62637 3.9555 18
181 1 -8.42058 -6.44804 6.35565 20
182 1 -0.214706 10.9946 5.53855 20
183 1 -8.42053 -3.15132 15.2506 16
184 1 -9.35308 -8.27346 -4.89754 16
185 1 -9.21141 -2.46094 -4.94869 22
186 1 -6.76925 -8.43378 -3.05099 21
187 1 -6.1385 -9.29215 6.43197 22
188 1 8.90271 5.9138 6.63094 19
189 1 -10.4646 -6.5356 15.5028 13
190 1 -6.46084 -9.29703 0.163159 17
191 1 -3.66133 -9.0609 4.46881 20
192 1 -3.74032 15.0362 3.92373 11
193 1 1.08622 -2.22232 -14.0654 12
194 1 -7.42143 -3.89154 -13.1747 11
195 1 -4.63547 -10.8437 2.2604 19
196 1 -3.58007 -8.00957 -4.67061 21
197 1 -14.3861 0.0493019 -10.4339 8
198 1 5.84562 4.95973 8.45071 22
199 1 -8.51317 2.90222 -11.7147 11
200 1 -3.91603 7.17291 -4.55574 23
201 1 -7.92105 -1.22133 9.93061 23
202 1 -7.95302 15.4918 -4.02886 11
203 1 0.10741 9.47095 8.63678 20
204 1 7.89248 2.80677 7.81196 23
205 1 -12.4633 2.38277 6.77408 20
206 1 -0.235973 -7.80573 17.7957 9
207 1 -12.4486 7.95424 6.8923 21
208 1 -4.64872 -5.22004 -15.2829 6
209 1 -0.250248 -9.33831 2.86229 20
210 1 -3.6228 1.31065 15.3489 20
211 1 -14.9356 -2.62559 11.643 11
212 1 13.2174 -2.90382 7.08914 17
213 1 3.68703 -6.88213 -6.24941 16
214 1 2.63766 -13.9115 -1.64471 14
215 1 -11.6489 9.63519 -2.61645 21
216 1 6.94843 9.605 13.9935 14
217 1 -11.3339 -0.744563 5.22834 22
218 1 5.48665 -13.8418 -1.49805 11
219 1 -8.49362 10.0623 6.65552 20
220 1 -5.89503 7.60968 10.2423 19
221 1 3.75781 -9.27249 11.0403 16
222 1 15.2348 -0.544728 2.72578 13
223 1 -4.2021 6.50341 15.6475 17
224 1 -9.32168 -3.68071 -1.44907 23
225 1 -2.29736 1.11074 18.523 12
226 1 -8.34769 12.5195 5.08538 20
227 1 -9.74339 1.67918 14.9437 16
228 1 -12.6796 7.14282 9.88064 17
229 1 -6.52262 -2.75752 -3.05507 21
230 1 -10.1288 10.9534 3.47192 21
231 1 5.96285 -0.14209 8.53138 20
232 1 -8.52152 -11.9345 9.89733 14
233 1 8.81283 -7.15358 5.86441 18
234 1 -11.1932 13.4916 1.68522 18
235 1 -3.15072 -3.74687 14.8326 22
236 1 -0.208028 -8.69571 -3.08538 23
237 1 -8.69613 -0.101776 -6.72975 20
238 1 0.582526 -4.54037 -11.6963 10
239 1 4.0377 13.671 12.1436 11
240 1 -14.3396 -0.236508 -0.223336 16
241 1 -1.83791 -2.83661 -15.2908 8
242 1 1.08923 -11.6299 -7.45195 12
243 1 -14.4527 -5.76287 2.63357 17
244 1 -6.66846 -14.6892 5.87686 11
245 1 13.9302 7.51108 5.46153 10
246 1 -8.36528 4.98125 -6.69517 18
247 1 -15.4807 -2.79025 -1.99763 11
248 1 -11.5003 9.42692 9.68838 17
249 1 -13.0757 14.6083 3.55782 8
250 1 -9.98567 6.67597 13.0713 15
251 1 9.08419 -0.219351 -0.450901 20
252 1 9.40912 0.362272 -6.31255 15
253 1 -2.55087 -6.04589 -3.49142 21
254 1 -3.1321 7.77212 8.75331 22
255 1 -12.1153 1.86436 -3.43992 22
256 1 2.66471 -8.33469 1.54402 21
257 1 8.03408 1.88512 11.0298 18
258 1 -14.0514 -0.0476573 -3.37694 16
259 1 -8.68156 -9.13069 8.27289 21
260 1 -6.36721 14.5125 5.47213 15
261 1 -15.0739 -12.1444 0.687769 6
262 1 -15.0112 9.35898 -3.23916 12
263 1 0.197884 14.302 -2.28477 17
264 1 4.22506 11.7048 14.7852 12
265 1 -14.7977 -8.75762 2.00713 11
266 1 -5.71742 -5.61477 -5.15313 22
267 1 -14.8464 3.53779 13.6418 11
268 1 -17.0581 9.94747 5.76673 10
269 1 6.71211 -5.68055 8.4295 15
270 1 -8.43885 -11.1592 6.10696 17
271 1 2.61049 7.03718 -8.30355 17
272 1 -14.1922 3.99547 -2.67075 16
273 1 -3.50199 -9.74995 7.69789 20
274 1 9.28236 4.54235 9.6491 18
275 1 -5.05007 -1.10785 11.691 21
276 1 -16.6795 6.94963 5.40523 14
277 1 -9.68527 1.66079 8.21673 20
278 1 -5.14853 -12.8176 11.007 10
279 1 8.79807 -7.84586 -7.76558 5
280 1 -13.9888 4.01629 10.8371 19
281 1 -2.77065 -3.69527 11.3293 23
282 1 6.71908 -10.6996 -2.77765 13
283 1 -0.586497 -9.38058 -9.50215 12
284 1 -6.06556 -3.76907 13.0756 25
285 1 0.423157 -5.80694 -1.99663 22
286 1 -2.90327 3.12225 -11.6825 13
287 1 3.53281 -10.948 2.83685 21
288 1 2.7878 10.1773 0.53912 19
289 1 -5.84465 -3.39645 17.0299 12
290 1 -7.97201 -6.86895 13.2725 21
291 1 6.46758 -3.83535 12.6443 11
292 1 2.12492 2.38522 -4.63615 23
293 1 5.76042 -3.02159 3.26127 21
294 1 11.3092 6.52207 1.71029 15
295 1 -2.45858 4.01997 13.9894 21
296 1 -2.61264 14.6485 0.0906188 16
297 1 3.48001 -5.81107 6.32628 23
298 1 -5.5369 -11.3077 -1.5864 18
299 1 -11.2278 11.1897 7.18847 18
300 1 -5.31537 -10.8008 -4.61564 17
301 1 5.22596 7.98693 10.2998 22
302 1 -9.48441 1.62986 11.9319 22
303 1 -8.08649 -6.54825 -0.577623 20
304 1 -16.0647 6.35123 12.103 8
305 1 -13.4838 -13.1087 -2.55433 10
306 1 -9.14865 7.52269 8.69221 20
307 1 -2.48673 -12.7603 -5.65247 11
308 1 -2.24473 -4.28906 -10.144 19
309 1 -9.75093 -8.65577 5.23849 22
310 1 -10.7998 -1.19576 8.32128 21
311 1 12.0939 -3.4353 9.66082 8
312 1 -8.17021 -5.75226 17.8283 8
313 1 -10.7256 6.09901 -10.9266 11
314 1 6.09764 5.26032 1.45996 20
315 1 -9.18371 -13.2519 0.510561 10
316 1 -3.3731 12.5522 5.75539 22
317 1 -1.09954 7.7513 -3.13778 21
318 1 -1.56456 9.55269 17.2775 11
319 1 -15.0162 -2.97383 1.35107 17
320 1 3.20708 13.7989 -2.08961 13
321 1 -11.1235 -5.55362 -5.10877 19
322 1 -11.484 -15.4808 -1.08739 5
323 1 -2.82551 0.0532195 -10.0408 21
324 1 -13.1657 14.2543 -0.632274 10
325 1 -0.235722 6.55012 18.5156 13
326 1 5.33294 8.6033 0.399413 21
327 1 1.95821 7.87942 5.50094 24
328 1 -6.96323 12.8165 -6.66728 15
329 1 0.167897 5.50424 -4.74828 22
330 1 0.0653912 -5.87173 7.85287 20
331 1 -15.4813 -4.26327 5.46121 13
332 1 -5.61359 4.67313 -11.4741 15
333 1 9.0199 5.58438 0.0331834 17
334 1 3.27811 -5.83349 3.39474 22
335 1 13.8185 3.1874 -2.41962 10
336 1 -3.98645 1.90229 -8.05683 21
337 1 -5.36719 -6.21378 5.03059 20
338 1 -0.457969 -13.7957 6.63118 9
339 1 3.99322 -5.56477 12.9378 15
340 1 -9.45378 7.90034 -4.79113 22
341 1 -3.40645 -9.53525 -7.74544 17
342 1 0.0404451 4.55408 -7.86782 20
343 1 -3.76445 -1.35264 16.9234 17
344 1 -15.2814 1.84096 8.70805 13
345 1 7.59677 -2.60322 -6.11392 16
346 1 11.9531 0.339165 1.25625 15
347 1 -9.72021 7.49836 -1.61241 21
348 1 0.36913 -5.32555 -4.7305 19
349 1 2.9807 4.98975 -6.1235 22
350 1 10.5858 -3.04466 -0.827477 16
351 1 -6.64311 1.8376 13.8947 17
352 1 2.06136 14.8014 7.00782 13
353 1 -2.90401 -0.0311382 -13.2705 13
354 1 -10.7473 -6.931 8.52782 23
355 1 -9.86602 14.8705 4.39597 14
356 1 -9.88415 -2.20248 -11.7366 12
357 1 -16.2324 5.11269 8.65014 11
358 1 -5.69412 -9.55994 12.8622 19
359 1 3.11092 13.8531 0.611982 15
360 1 13.0211 3.80902 0.237743 15
361 1 -12.312 -8.80284 6.93126 14
362 1 -3.39999 -8.36492 1.54842 18
363 1 -12.5841 7.90902 12.4225 13
364 1 -0.0244794 -0.467669 -5.01679 20
365 1 10.3747 -9.15331 5.68694 10
366 1 -1.28067 13.9798 -5.38748 13
367 1 5.52871 -8.21168 3.51159 20
368 1 -12.1931 1.74194 10.057 21
369 1 5.11479 9.20977 16.5757 13
370 1 -2.1273 5.44418 -10.4461 18
371 1 -8.3877 -5.11973 -3.80875 22
372 1 -0.317371 -3.73056 13.0429 20
373 1 5.86363 11.2075 11.7228 16
374 1 6.01763 4.981 -4.81 18
375 1 -8.84076 10.6681 -4.68563 18
376 1 -5.76587 15.7394 1.82226 9
377 1 6.21198 -0.956812 11.0422 16
378 1 9.12102 0.164237 -3.49022 18
379 1 -15.1424 -7.61838 5.15695 11
380 1 -3.71857 1.55205 12.1219 22
381 1 -3.20073 9.60125 -5.05539 21
382 1 5.25659 -15.2913 0.87309 10
383 1 1.98136 -2.58025 -5.34593 20
384 1 -5.50478 15.311 -1.65351 16
385 1 -9.13574 -6.20675 -10.2252 8
386 1 2.68581 -13.1898 6.03112 14
387 1 -12.1511 -2.46895 0.268355 22
388 1 -13.7431 -1.86513 13.9766 11
389 1 2.15188 7.58179 2.10594 20
390 1 5.40294 -8.31905 -0.501262 19
391 1 2.72468 -6.94989 16.2229 10
392 1 6.33185 5.39698 -1.50224 21
393 1 -12.3255 7.88037 0.176686 21
394 1 8.43876 -9.15113 -0.0177988 12
395 1 2.09519 7.15084 15.1313 22
396 1 -9.95405 7.31254 -8.29306 19
397 1 1.41563 12.6791 13.4766 13
398 1 5.83445 0.163573 -8.19876 17
399 1 -0.938023 2.07771 -9.97831 20
400 1 -6.13034 -13.5334 0.28354 16
401 1 -12.8918 3.06472 -10.2285 9
402 1 12.0428 5.04525 4.79772 19
403 1 10.6936 2.35762 -0.666483 21
404 1 2.64712 -8.4178 -8.87423 10
405 1 4.29638 -11.795 -3.08297 17
406 1 -1.06365 14.7044 5.37255 14
407 1 -11.731 5.37131 4.9397 21
408 1 10.3905 7.47178 4.32148 20
409 1 14.5856 -0.0315145 5.75253 15
410 1 10.491 3.3918 -7.38581 10
411 1 7.25605 6.32678 15.3116 12
412 1 0.477677 -7.11517 11.4832 17
413 1 0.666378 1.38496 16.9545 17
414 1 9.10278 -5.9246 -0.498112 18
415 1 8.30077 1.0295 13.798 15
416 1 -11.4837 0.0803381 -5.27544 23
417 1 14.8208 5.34354 2.52853 10
418 1 9.07495 -4.47196 1.86036 16
419 1 6.72509 1.9055 16.5575 13
420 1 -0.12624 10.1543 14.7561 12
421 1 4.98565 1.794 9.87696 22
422 1 -5.80249 12.7059 -0.137859 19
423 1 4.77836 8.3083 -2.73181 20
424 1 6.83287 -5.04769 -8.39894 12
425 1 0.863945 15.9053 0.156182 8
426 1 -0.341346 -12.5136 -4.01756 17
427 1 -15.9761 7.78062 8.18232 14
428 1 -8.36922 8.936 -10.0395 15
429 1 -5.12167 -11.7134 5.24302 18
430 1 -9.80751 -2.546 -8.26208 18
431 1 -15.3335 2.53686 -4.95749 11
432 1 8.01181 -2.83364 7.69257 18
433 1 10.6 7.37829 10.4065 13
434 1 -2.29416 -6.61399 13.1988 22
435 1 -14.5563 0.0594666 -7.36324 12
436 1 -4.47495 3.74703 18.4302 14
437 1 2.7748 10.9073 -7.44155 15
438 1 7.43428 8.25437 -5.2158 14
439 1 2.17726 -13.773 -4.51461 7
440 1 12.5155 -0.196195 8.07119 20
441 1 9.06379 10.5167 7.29761 14
442 1 14.4445 2.60324 4.67535 16
443 1 -8.83946 4.46675 14.1741 18
444 1 -12.2104 -8.25783 3.2778 21
445 1 -8.69108 -0.0599229 -3.48854 21
446 1 6.16556 4.82061 11.6758 19
447 1 2.36841 -11.3696 13.7522 8
448 1 3.3282 4.07645 13.8075 19
449 1 -9.11912 14.2365 7.73801 12
450 1 9.1085 4.66412 3.11476 19
451 1 5.01292 8.33842 6.96453 22
452 1 0.783866 0.766911 -13.3414 13
453 1 -15.6034 0.648763 11.8843 12
454 1 8.23773 -1.93994 -8.87366 8
455 1 6.70213 -10.6567 2.29806 22
456 1 7.80404 7.25071 12.0388 17
457 1 3.04221 4.69253 10.1942 21
458 1 12.1241 5.43736 8.17602 15
459 1 -0.450378 -1.93216 17.5711 10
460 1 -6.56541 6.88545 13.6911 19
461 1 -4.99181 -1.8345 -11.1209 18
462 1 -8.65704 -1.215 17.4069 13
463 1 2.63173 1.28523 14.8206 22
464 1 12.5122 9.61678 2.96571 9
465 1 1.72896 -10.9616 -1.39786 19
466 1 -5.38994 9.71739 -8.85081 17
467 1 3.27713 10.6652 10.1693 20
468 1 6.02251 11.2477 5.43253 16
469 1 0.241453 11.9657 -0.296714 19
470 1 12.3718 11.0369 5.85278 8
471 1 -7.35642 -12.8409 3.36351 16
472 1 3.89269 -0.296683 -12.872 11
473 1 -13.3228 12.7772 -3.59477 12
474 1 3.68519 -5.35018 -9.23355 14
475 1 11.0125 5.39078 -5.21036 10
476 1 9.72797 10.4857 3.66922 16
477 1 -11.4641 5.34692 1.70973 19
478 1 1.90914 7.96166 -1.76473 18
479 1 -3.25224 -9.63929 11.4566 17
480 1 -8.36451 5.45229 -10.2119 18
481 1 -4.70071 10.396 11.8133 14
482 1 2.29955 1.77395 11.6972 21
483 1 6.8248 13.4417 -0.506951 12
484 1 4.71598 12.6551 8.3279 14
485 1 8.50059 -7.25603 3.05425 23
486 1 -10.5887 -6.48821 11.4563 18
487 1 2.55902 -13.8074 1.54445 15
488 1 -3.04731 -1.12819 -6.71424 21
489 1 0.768856 10.3572 11.6738 18
490 1 -13.8748 -1.12884 9.59389 17
491 1 0.551215 -11.706 1.29995 17
492 1 4.87755 8.13314 -6.56084 17
493 1 1.31794 -3.15034 -8.52322 20
494 1 1.08683 -11.0222 10.8068 15
495 1 -1.26943 12.776 3.34833 16
496 1 -5.7211 1.20886 17.0317 17
497 1 -11.2901 -5.35832 -8.01638 13
498 1 3.20091 -5.51658 -3.7412 22
499 1 -3.33971 11.6781 9.30425 19
500 1 4.86898 -8.63348 -3.64169 20
501 1 2.53804 -9.84792 7.96584 20
502 1 1.19915 -11.6741 4.09296 20
503 1 -11.783 -3.34547 16.2135 11
504 1 -12.0048 -9.81739 -2.82179 14
505 1 -12.9474 1.18152 13.0292 20
506 1 12.5831 -5.06786 0.462895 11
507 1 -11.4982 4.29978 12.1092 22
508 1 -12.4773 7.55914 3.93836 17
509 1 12.3956 -0.536553 4.13728 18
510 1 -3.48662 7.73811 -1.58473 21
511 1 12.6303 0.0245566 -4.5007 10
512 1 7.6296 8.18657 -1.61022 18
513 1 -14.9754 5.99446 -4.79392 10
514 1 -13.9697 -5.33511 -0.47874 17
515 1 0.493351 6.92653 -10.7304 14
516 1 -2.17553 -1.00064 13.6706 22
517 1 -5.77447 -3.68112 9.95634 22
518 1 2.31698 -9.72645 -5.0893 19
519 1 -9.47954 7.69356 1.99289 22
520 1 6.61445 10.555 8.48255 19
521 1 -11.4308 -6.0636 5.07876 22
522 1 5.71671 6.35761 -8.30303 14
523 1 -3.28153 -14.985 4.76131 11
524 1 2.30704 8.5741 -4.88985 22
525 1 -5.58897 1.59396 -10.6678 17
526 1 -0.480155 1.3133 14.0242 21
527 1 0.742393 4.04523 -12.198 13
528 1 -11.9689 -2.8953 -3.09889 21
529 1 6.54748 -0.252206 1.66934 22
530 1 -9.0195 -5.74323 3.27803 19
531 1 11.5206 6.25098 -1.78347 11
532 1 5.10571 -8.50904 7.53347 20
533 1 -8.94522 6.64746 15.9822 15
534 1 4.7989 -10.6196 5.3949 19
535 1 13.2813 -1.35485 -0.605515 10
536 1 11.1001 -5.84511 3.69854 14
537 1 -2.2435 9.17616 11.2208 19
538 1 -10.8803 4.74633 17.7186 9
539 1 -2.3363 -12.0241 9.61042 15
540 1 8.36888 1.64541 4.88407 18
541 1 3.301 7.14752 17.964 12
542 1 -17.6483 3.85121 3.83771 10
543 1 7.47897 -9.59651 5.56514 19
544 1 3.27336 9.83019 4.16649 19
545 1 8.75415 3.55469 16.2432 11
546 1 -5.78772 9.98902 5.19508 23
547 1 0.322975 -11.7573 7.80653 14
548 1 -11.5908 -0.138447 1.75179 23
549 1 0.363195 4.37931 15.5829 19
550 1 1.88956 14.1377 3.431 10
551 1 -11.1954 -9.73326 10.2578 12
552 1 8.76797 -0.19179 6.88783 19
553 1 8.27672 -4.16134 4.96528 21
554 1 8.09001 8.05654 8.81344 19
555 1 1.31827 -6.77301 -7.06136 17
556 1 -6.1399 4.40294 -8.4335 21
557 1 -5.69989 -0.994332 14.8301 20
558 1 -8.42495 14.6673 -0.184506 14
559 1 13.8932 2.59901 8.04763 14
560 1 -0.864502 10.2799 -2.27275 18
561 1 -7.57039 4.56824 17.8494 14
562 1 3.93545 9.40244 13.0496 21
563 1 2.74372 -2.66752 -11.3536 13
564 1 -6.99052 -15.5006 2.52052 8
565 1 -5.88016 -0.491551 -4.7905 20
566 1 12.6672 0.599002 11.2584 11
567 1 3.00503 -0.392148 -6.50244 19
568 1 -5.4589 -5.55598 -1.92533 23
569 1 16.6062 2.05737 2.9186 7
570 1 -0.192699 -4.93961 16.4793 16
571 1 -0.983701 -9.64115 -6.16597 21
572 1 7.43966 13.3978 3.18894 10
573 1 -14.3483 5.16342 6.07063 22
574 1 7.91205 2.59988 -5.05187 21
575 1 -3.14143 -7.78534 -10.7223 11
576 1 -15.6336 13.173 6.53462 6
577 1 3.57339 3.42807 -13.1149 11
578 1 4.99533 -2.93963 -0.092967 21
579 1 -14.752 0.717244 2.34873 16
580 1 7.56395 8.70027 5.41638 19
581 1 -10.5478 -11.207 3.04261 12
582 1 5.29138 6.78254 13.7098 22
583 1 -12.634 2.5082 -6.91077 20
584 1 -15.757 9.0763 10.9923 10
585 1 -5.5322 4.69612 -4.88103 20
586 1 5.5224 -5.29166 -1.85142 23
587 1 -12.6841 -7.55958 -5.45047 12
588 1 8.96151 -4.87998 -3.44859 15
589 1 -13.4285 10.1269 2.09919 16
590 1 -9.44754 -9.29518 -1.72073 16
591 1 -5.60607 -9.28087 10.0147 22
592 1 10.8483 -1.76812 6.80753 18
593 1 6.01731 -0.0410805 4.85852 22
594 1 -14.5567 5.1754 3.4493 21
595 1 1.53676 13.596 10.0273 15
596 1 -0.0720512 10.1419 -5.37889 22
597 1 -10.5719 10.2939 12.5299 10
598 1 7.58969 11.3597 -2.85126 10
599 1 2.11461 10.2527 16.3601 14
600 1 6.68401 -10.488 11.0297 9
601 1 2.44965 12.7339 -5.23881 12
602 1 -12.543 -5.47528 13.5409 10
603 1 -5.51973 -0.978821 -8.26269 21
604 1 -17.1046 6.5395 2.40709 12
605 1 -2.99599 -9.58316 14.9133 15
606 1 5.27646 -2.90032 6.60067 21
607 1 -2.19131 -10.9217 -0.4347 20
608 1 -15.766 8.79819 0.0633379 15
609 1 12.5228 -3.33017 -2.69522 11
610 1 -16.7708 10.1387 2.22522 10
611 1 -11.4285 -1.04518 11.2237 22
612 1 -8.22958 -6.44048 -6.92546 16
613 1 -3.3353 -8.36451 -1.97244 22
614 1 4.63151 -11.1723 0.0245248 23
615 1 -1.89213 11.817 -10.3039 13
616 1 11.0993 2.61722 -3.94354 17
617 1 6.26125 5.20063 4.93449 19
618 1 8.99956 -0.973434 3.33739 19
619 1 -5.71133 7.44593 -9.91153 16
620 1 -4.83083 -6.82894 14.1327 18
621 1 7.78617 11.0379 0.842817 16
622 1 5.19974 2.84651 -3.11903 22
623 1 -14.4403 5.56192 0.056216 18
624 1 -9.26286 -8.79502 16.23 12
625 1 2.25054 7.79959 8.67544 18
626 1 -4.28809 -14.4668 8.2142 12
627 1 0.439771 9.87573 2.44274 18
628 1 -6.26418 7.91018 17.421 8
629 1 -8.3946 -1.02963 13.1134 19
630 1 8.52048 1.78061 1.51794 19
631 1 -2.67306 -7.24989 16.1675 15
632 1 2.56629 -8.84393 4.773 20
633 1 -0.165207 3.91893 18.9645 13
634 1 7.43118 -2.87589 -1.94585 19
635 1 -9.35405 2.34265 -8.3552 20
636 1 -8.32497 10.4324 -7.58515 19
637 1 -14.6989 8.85043 4.81205 20
638 1 2.26159 11.243 6.80409 18
639 1 -3.67484 7.00343 12.1423 22
640 1 -11.4619 -12.4378 -0.300096 15
641 1 -5.1773 11.9856 3.09075 19
642 1 9.40991 3.93502 13.3857 14
643 1 -4.96493 -6.61666 8.53495 22
644 1 4.83557 -3.63075 -6.83892 21
645 1 2.59877 -8.36623 -1.66043 22
646 1 1.9058 2.0675 -8.29524 18
647 1 -11.1887 -0.0570211 -9.088 20
648 1 -11.4315 -5.61234 1.39829 20
649 1 -13.4303 7.35893 -2.32654 19
650 1 -9.02691 1.69946 18.5369 10
651 1 4.88824 -3.08583 9.63518 21
652 1 -7.86697 -6.54477 9.71348 22
653 1 11.4816 2.37637 6.27832 21
654 1 -2.83944 4.87157 -6.58157 20
655 1 11.2706 8.35755 7.08709 13
656 2 -11.7145 2.25264 -5.31696 20
657 2 -3.63497 12.813 -0.14967 17
658 2 -0.513457 -2.39443 -8.38501 18
659 2 -7.62534 6.56621 17.5499 11
660 2 -7.8753 -8.08929 -6.48966 14
661 2 -0.400092 4.93061 17.402 17
662 2 -13.9428 -7.81901 6.5741 13
663 2 -13.2466 10.2941 -3.38193 16
664 2 -0.142933 11.6479 12.7665 14
665 2 -15.1795 3.68533 8.92274 15
666 2 5.10377 4.57411 6.66648 19
667 2 -13.518 -10.9017 -2.89798 12
668 2 -11.4412 2.08342 1.93524 20
669 2 -2.98342 -5.76179 7.94845 21
670 2 0.26804 1.97468 12.1041 20
671 2 3.01347 -2.56304 -7.27446 19
672 2 4.18063 -14.3805 6.21867 8
673 2 -9.09916 10.6503 1.93931 21
674 2 -14.5387 1.89379 -6.80875 12
675 2 8.06114 4.77696 8.01348 19
676 2 4.12007 -14.6221 -0.452799 13
677 2 -7.23142 -12.7938 6.39203 15
678 2 -13.8518 -3.51195 12.9603 11
679 2 -3.96531 -12.9904 9.36981 12
680 2 5.9991 -3.96268 8.17685 19
681 2 -2.54231 -8.95963 -0.120333 21
682 2 1.60093 3.47401 18.8574 13
683 2 -2.73417 13.7033 -7.07618 14
684 2 -14.8672 -10.6363 1.52976 10
685 2 -3.05753 5.02833 18.4411 14
686 2 -10.7196 10.8006 -1.19534 20
687 2 -5.87708 3.82756 17.3123 17
688 2 -5.7099 12.663 -5.28506 18
689 2 2.05623 -12.3229 2.39966 19
690 2 -2.39088 7.2811 10.2728 19
691 2 -4.61417 9.35916 -3.89968 20
692 2 2.60196 -6.29318 -1.86887 24
693 2 1.46718 -3.05679 -12.4721 14
694 2 4.94781 -0.559212 -3.25782 22
695 2 -4.4835 7.23886 17.9253 13
696 2 1.55264 2.54396 -13.1339 10
697 2 -6.44019 6.03109 -10.6027 16
698 2 4.74504 10.3023 0.692028 21
699 2 -7.58798 -4.32046 16.7083 13
700 2 -16.6666 11.7184 6.615 8
701 2 8.96129 -0.812352 -7.87312 9
702 2 7.9209 -8.7238 -6.54835 8
703 2 -14.2404 -4.50085 6.91139 18
704 2 11.0248 10.4023 7.03864 10
705 2 -5.01226 7.15603 8.53995 22
706 2 -5.32764 -8.87373 -4.61911 19
707 2 -9.31135 11.0454 11.262 9
708 2 3.52365 -8.4639 9.30532 18
709 2 9.36872 -5.37713 3.69653 17
710 2 -15.5816 5.50571 1.81681 15
711 2 9.14771 -9.00454 1.80652 13
712 2 6.56232 -13.8665 0.226705 13
713 2 6.19942 8.74025 8.31204 20
714 2 6.60445 -14.0711 3.92758 14
715 2 14.9892 -0.905997 7.42923 11
716 2 -6.90064 -1.73147 16.2216 18
717 2 12.9554 -3.6507 -0.8484 9
718 2 -0.726726 4.99495 13.7649 22
719 2 8.79669 7.86324 10.3702 16
720 2 -10.5916 5.88761 16.3358 14
721 2 3.47706 7.24585 7.10766 21
722 2 12.3297 -4.9202 2.45453 9
723 2 0.175085 7.53031 -4.58132 21
724 2 -11.0137 -3.49346 -4.77446 20
725 2 -8.72024 0.882651 13.6874 18
726 2 5.95055 2.84686 -4.94737 19
727 2 -12.1134 5.63328 -0.0285394 20
728 2 -12.4765 5.13611 10.0533 18
729 2 -11.3825 -10.7268 -1.30651 15
730 2 13.7219 -2.69496 9.16301 9
731 2 -1.82514 -3.70034 9.54377 19
732 2 -3.49225 -0.75544 15.0695 20
733 2 4.47546 -2.04703 -11.9086 9
734 2 6.891 7.69289 14.0645 16
735 2 -6.13787 6.86862 11.9138 17
736 2 -11.5931 1.40927 5.33172 21
737 2 8.56479 -3.22131 -4.61801 14
738 2 7.69319 5.96236 -4.79831 19
739 2 -13.6243 12.6919 6.02196 12
740 2 -5.34746 -8.75653 1.67805 17
741 2 7.87188 -6.40323 -8.32605 7
742 2 -0.693187 4.40025 10.092 18
743 2 5.97915 -12.3436 -2.34676 11
744 2 2.12583 -0.150583 11.3574 21
745 2 -5.8852 -5.7466 9.89536 23
746 2 6.04881 2.07464 4.80888 22
747 2 -10.6129 -8.67332 11.7292 16
748 2 8.63271 2.56846 -7.07439 15
749 2 -7.13766 -14.6729 4.16186 10
750 2 7.87561 -6.48938 -3.77298 14
751 2 3.54921 -13.4624 -3.3773 12
752 2 8.51807 -2.85448 2.98145 15
753 2 -12.6189 10.0202 7.00986 17
754 2 13.812 0.220209 0.177454 13
755 2 -9.17977 -6.27058 -5.11229 22
756 2 -11.2399 -7.05825 6.72591 21
757 2 -9.55148 -5.23763 5.17241 21
758 2 -9.69476 -6.53752 0.975245 21
759 2 -9.20422 13.5351 3.18614 17
760 2 -14.2853 12.7921 -0.790585 11
761 2 11.0557 6.03532 0.00971905 15
762 2 3.09562 8.35555 -6.89784 19
763 2 -9.81264 0.257436 17.0794 12
764 2 -9.37624 4.95584 -11.7669 10
765 2 -14.2396 6.76539 4.53399 20
766 2 -7.20201 3.59732 14.499 18
767 2 -12.6955 2.81056 11.7219 19
768 2 5.2051 11.1955 9.68544 16
769 2 10.5638 -0.312136 -4.68191 15
770 2 12.183 -4.37128 4.92615 14
771 2 -9.96808 -2.52259 16.6112 12
772 2 -3.67843 10.4925 5.33373 21
773 2 -10.4719 9.61198 -4.29336 18
774 2 -7.35568 8.09314 9.26157 16
775 2 10.4425 -0.204533 7.73462 18
776 2 -9.89192 -6.52763 -8.53854 11
777 2 2.0089 5.15264 -7.87173 19
778 2 10.7955 5.90375 3.47868 19
779 2 -8.69904 -6.28227 11.4413 20
780 2 -3.74963 10.926 2.29539 19
781 2 -8.85967 11.9708 -6.45059 15
782 2 4.61621 12.9807 -0.57459 17
783 2 6.88331 3.64262 16.5057 12
784 2 -6.67062 3.97761 10.0668 19
785 2 9.09265 -7.70922 -1.05381 12
786 2 -4.21388 1.57664 18.086 15
787 2 0.629837 -2.94347 11.7177 21
788 2 -14.5126 1.69532 0.766255 14
789 2 -6.30662 -0.310106 -10.1039 18
790 2 1.28071 -13.671 0.123537 12
791 2 4.77248 0.327641 -6.47485 20
792 2 13.217 5.62252 1.28682 12
793 2 -7.18105 0.959152 18.0136 11
794 2 3.95294 1.49263 -11.8528 11
795 2 -9.85483 -6.46076 17.1678 9
796 2 -6.46206 2.98694 -11.6707 14
797 2 -2.33988 -9.11121 -3.56163 20
798 2 3.52965 -11.9225 4.71941 20
799 2 7.83223 8.45299 -3.48041 13
800 2 -11.567 -1.30873 -10.6584 14
801 2 -6.64152 10.2898 7.02866 19
802 2 -11.0989 -3.51236 1.6613 20
803 2 -9.70821 4.52696 -5.14118 23
804 2 -0.511113 12.2639 -2.07944 20
805 2 -3.09291 9.71184 -0.98518 19
806 2 -9.74181 -10.9844 10.5442 11
807 2 13.3234 -0.176484 9.80782 14
808 2 -3.67503 4.33411 15.5534 18
809 2 -11.4962 -7.80121 -1.59345 21
810 2 3.80013 -9.23246 -0.0791269 20
811 2 -0.840104 2.31154 18.0772 13
812 2 2.16925 13.3686 11.9228 13
813 2 10.7319 -3.75168 -2.69218 15
814 2 2.28236 5.17774 14.9588 23
815 2 5.86891 10.5357 -2.71298 17
816 2 -14.9578 1.82815 12.9401 13
817 2 8.2549 -0.286411 5.17479 19
818 2 0.0496934 15.0426 7.00114 11
819 2 3.22662 7.32867 10.4265 19
820 2 -2.77114 -1.53662 -14.3064 11
821 2 5.81586 -5.73458 12.3842 14
822 2 -12.6483 14.7305 1.79816 10
823 2 -3.01029 -5.63169 11.4976 22
824 2 6.1896 -10.2023 3.97931 22
825 2 -7.9275 -13.9754 1.5703 11
826 2 -11.7373 12.2916 -4.50676 15
827 2 -7.53238 -5.21854 -10.4523 14
828 2 -6.31143 -11.8048 -3.24969 14
829 2 -2.53348 2.71465 -6.86022 19
830 2 -6.36147 -5.37127 -7.17414 22
831 2 5.0167 9.98975 14.7957 16
832 2 -14.6755 -1.07069 -1.92974 17
833 2 -12.2795 4.54815 3.16372 21
834 2 6.19861 -3.82906 4.87522 22
835 2 -15.3093 9.2389 9.12019 13
836 2 -5.48332 -14.867 1.48116 12
837 2 -9.27814 3.75748 18.6303 10
838 2 1.81782 4.65049 -4.57733 20
839 2 -6.81543 -0.844956 -6.65399 23
840 2 4.83982 5.6721 -6.21745 21
841 2 15.9145 0.839261 1.60492 9
842 2 -8.8624 -2.98361 -6.76613 20
843 2 -15.09 10.5656 1.24175 14
844 2 -12.5853 14.3056 -2.2399 10
845 2 -6.42726 -0.998745 13.1448 19
846 2 -15.0207 -4.06039 -5.7964 7
847 2 0.0174515 -3.51092 -5.21219 22
848 2 1.81593 -0.513929 -4.82612 22
849 2 2.07526 9.88584 8.6321 18
850 2 0.562833 -9.01791 11.1881 21
851 2 -1.33058 0.065298 -6.54039 22
852 2 2.93638 2.23946 16.6191 17
853 2 6.13863 1.92986 -8.99674 10
854 2 -3.57483 -6.01327 -1.82151 21
855 2 0.911953 11.2615 -8.18947 15
856 2 2.25797 11.7196 14.8794 15
857 2 12.0371 2.33171 10.5631 15
858 2 -14.7703 0.543307 10.0994 18
859 2 -16.1348 5.46104 6.62233 14
860 2 -2.58093 -9.48545 9.46347 20
861 2 -3.47453 4.54308 -4.86923 20
862 2 -6.36407 -5.46909 6.66081 24
863 2 -8.30694 7.76519 6.68043 19
864 2 -9.66521 -1.83261 11.6729 17
865 2 0.0705534 -9.78927 8.16346 19
866 2 -11.5371 7.99351 -1.81231 21
867 2 2.17341 -5.77352 -5.4562 21
868 2 -14.664 -1.76944 7.90078 15
869 2 6.18953 -2.82662 11.164 18
870 2 -8.10938 -10.9427 8.03553 18
871 2 -8.07037 -8.63264 6.3554 22
872 2 11.3781 -3.4656 7.7665 11