ITEM: TIMESTEP
17000
ITEM: NUMBER OF ATOMS
2000
ITEM: BOX BOUNDS pp pp pp
-30.0 30.0
-30.0 30.0
-30.0 30.0
ITEM: ATOMS id type x y z Coordination
1 1 -11.4129 5.71542 -9.75066 9
2 1 -3.84145 -10.2502 -5.87275 23
3 1 2.87516 13.7833 11.1006 17
4 1 5.49136 -5.06239 7.52496 20
5 1 -11.4949 9.51815 1.18792 21
6 1 6.30323 -6.94422 -7.90837 16
7 1 -15.6195 2.2532 -7.92306 13
8 1 0.782934 -1.03286 11.6549 21
9 1 -9.22169 -1.01038 -9.20617 18
10 1 -15.1982 -8.18629 8.44211 9
11 1 14.6771 8.09233 -5.42759 12
12 1 -5.17383 -10.0915 3.34618 18
13 1 -15.2322 -8.62866 5.44968 12
14 1 -3.95201 6.5806 15.9825 21
15 1 -1.20604 6.71642 9.53321 19
16 1 -1.64683 11.7433 -10.5374 14
17 1 0.77651 5.28727 18.3717 17
18 1 -9.76065 -0.925357 -12.6623 15
19 1 -17.002 -1.10417 8.32718 19
20 1 13.6381 4.38509 5.49212 14
21 1 -0.378997 9.98774 -12.117 13
22 1 1.62193 8.11252 -7.10744 23
23 1 11.6875 9.3013 12.0727 16
24 1 -13.6881 4.44196 -7.47479 17
25 1 -4.2867 -2.40801 -7.06796 18
26 1 -10.972 8.35199 9.07879 17
27 1 5.27555 -10.5618 5.76 18
28 1 3.24964 -12.2739 -9.98798 11
29 1 7.99893 -11.0903 1.91346 15
30 1 -8.85227 -13.0594 -1.41812 13
31 1 -11.7423 -3.63078 9.62593 19
32 1 0.202892 -7.01694 -9.49976 19
33 1 3.85476 -9.72338 -5.42902 21
34 1 -5.82822 3.75062 -14.0882 10
35 1 7.37347 4.78177 16.3093 21
36 1 -4.21245 -11.5414 11.3886 14
37 1 2.03267 -2.26196 14.3503 19
38 1 -15.3329 0.981821 2.91432 19
39 1 -17.0487 4.04377 8.75046 13
40 1 -11.7833 3.52562 0.422693 18
41 1 -5.16095 15.5572 2.27645 16
42 1 0.0183127 -13.2638 -9.26755 15
43 1 -1.5183 3.17723 -10.348 18
44 1 2.8624 -2.61102 -7.59401 22
45 1 0.980385 -2.47883 16.7383 14
46 1 -16.1556 10.9139 3.23926 9
47 1 3.47243 13.2225 -8.09028 14
48 1 0.307643 16.719 12.6806 8
49 1 -15.9835 8.82314 -6.63242 10
50 1 -2.3193 18.0688 0.743309 11
51 1 0.219078 -10.788 2.37126 21
52 1 4.89642 -4.73394 -1.6053 20
53 1 4.10758 -5.77155 -13.8286 13
54 1 -13.8026 7.50808 14.113 6
55 1 -12.6553 -5.33723 -5.35659 20
56 1 6.28911 -0.0415595 5.56046 23
57 1 -12.0172 13.7927 -4.37078 15
58 1 -8.13031 -9.31491 5.7469 22
59 1 -2.2856 14.2497 13.8628 13
60 1 -16.592 5.58481 -8.43773 8
61 1 -11.2387 10.0449 13.6874 12
62 1 -11.1636 -10.4404 9.09704 22
63 1 1.71576 6.3043 9.43718 20
64 1 3.48316 -11.8873 -2.321 20
65 1 3.762 13.1265 17.6245 10
66 1 -13.0399 1.45151 -5.68818 22
67 1 -14.2167 7.50182 -8.37276 9
68 1 4.71926 9.66233 12.7543 16
69 1 10.4929 -1.93518 -9.58262 11
70 1 7.89263 -8.71106 4.32798 20
71 1 -19.3958 -0.608918 6.65908 17
72 1 3.64609 19.0727 9.91861 14
73 1 3.10142 -4.7509 15.5082 13
74 1 -13.1184 -12.4241 13.6307 6
75 1 -13.9346 0.996873 0.0119144 20
76 1 7.97516 5.23286 9.35544 20
77 1 -9.83056 12.3937 11.2331 13
78 1 4.52178 -0.0704693 9.14863 19
79 1 -4.71964 -7.46078 -6.46205 22
80 1 -13.5171 7.14543 10.6137 11
81 1 -9.43421 12.2872 0.601801 20
82 1 -3.00479 9.31087 -7.1639 21
83 1 6.44625 0.0351489 -3.58383 22
84 1 6.35215 12.1191 -7.38443 17
85 1 9.42426 -5.59614 3.54689 23
86 1 1.92182 -8.50386 9.81587 17
87 1 -7.68062 17.2456 -1.95402 13
88 1 -8.23289 10.4688 9.25319 22
89 1 -10.9494 -3.61451 15.6777 14
90 1 -5.08075 8.84685 7.41003 19
91 1 -7.16551 -1.33474 8.59106 21
92 1 13.1405 -2.47472 -4.13108 16
93 1 -10.5478 4.8748 8.77929 19
94 1 -12.3487 -12.5751 4.33266 15
95 1 11.0995 -4.08593 -4.9331 15
96 1 3.16547 -0.656577 -9.58289 23
97 1 -6.79776 -0.644504 -11.354 19
98 1 -2.34231 16.1919 2.96249 14
99 1 -12.2072 8.66273 -1.3484 16
100 1 0.151887 8.73502 19.6453 8
101 1 -3.22558 15.0881 -3.22282 18
102 1 -13.0203 12.9126 1.97596 16
103 1 1.52784 11.9311 0.070118 18
104 1 -6.74585 -6.07229 6.64861 16
105 1 12.6966 0.976948 10.1772 11
106 1 -2.22442 -5.28244 -6.41161 20
107 1 1.06688 -3.6555 -9.62801 20
108 1 -5.5037 8.80098 10.8759 22
109 1 2.67243 -0.347152 19.8283 11
110 1 -15.79 -1.5099 0.204893 18
111 1 -10.371 -7.45106 -3.17234 23
112 1 10.6071 -8.75306 2.20435 13
113 1 -4.13902 9.89135 3.98815 20
114 1 6.02919 4.92085 -10.8589 19
115 1 6.74779 20.3778 -1.926 10
116 1 -8.27824 -9.63515 13.8386 13
117 1 -12.9292 -13.1172 10.4249 11
118 1 2.38391 -9.98082 -11.3597 13
119 1 3.75544 5.28657 -3.94396 23
120 1 10.417 -8.08184 -1.45215 15
121 1 -6.88733 -16.2331 8.69024 12
122 1 -16.1965 -3.72362 2.56015 16
123 1 15.5799 14.4729 6.01388 8
124 1 12.3246 -1.41576 -6.93551 14
125 1 -20.4689 -2.22724 8.47315 9
126 1 9.55528 12.2617 7.84916 20
127 1 12.4962 13.5427 5.73833 21
128 1 -2.88485 0.68291 18.4166 12
129 1 -6.99633 11.077 12.3549 18
130 1 -6.12477 13.9461 -2.23451 24
131 1 -4.60658 -5.52934 -9.04962 22
132 1 6.88801 -11.5837 -6.32155 11
133 1 0.461778 14.0095 -8.61095 13
134 1 5.95584 -0.608543 21.5073 4
135 1 -2.69277 2.69421 -14.7137 12
136 1 -2.3541 9.34722 -2.10811 22
137 1 10.004 3.21415 -1.88623 21
138 1 -15.3677 6.71175 -2.91474 19
139 1 -10.5377 14.322 2.98091 13
140 1 6.91066 1.16806 -6.16577 20
141 1 6.5369 -5.15905 4.17868 18
142 1 -8.99763 3.47966 -4.5822 19
143 1 -7.45208 16.7388 8.79033 9
144 1 11.6215 13.1689 -4.80088 13
145 1 5.55922 12.0081 -1.51341 21
146 1 -3.69981 14.2862 5.46433 20
147 1 10.5647 10.4332 2.2832 22
148 1 -3.53065 14.3651 0.0921664 20
149 1 0.874965 16.8179 -8.38042 8
150 1 -0.270587 4.85049 -16.6423 9
151 1 -20.182 -1.98213 1.77238 9
152 1 -18.8544 9.16917 2.28417 9
153 1 -9.91433 -4.85978 -7.3983 23
154 1 -0.247221 -8.43458 -12.1471 20
155 1 6.55833 14.8265 12.9449 15
156 1 1.43803 19.9991 7.50776 12
157 1 -12.1131 -2.17993 -4.78407 20
158 1 -11.7677 11.8477 -1.67119 19
159 1 15.4949 5.74481 -2.74169 15
160 1 -12.2618 0.84722 -13.2942 10
161 1 8.50923 2.01422 17.3308 14
162 1 8.30232 18.0175 7.45895 14
163 1 2.11608 11.4805 8.86569 18
164 1 1.51317 -5.75704 -14.8964 12
165 1 -5.88919 11.1954 9.21332 18
166 1 -3.78868 12.2602 -2.431 19
167 1 2.06234 0.790805 14.5618 16
168 1 -13.7294 -4.19788 4.5163 20
169 1 -2.78954 -13.5283 -11.1024 10
170 1 -9.92051 13.1145 -7.21424 12
171 1 -4.86267 -8.43034 5.37449 20
172 1 2.8251 -15.7017 -4.15396 10
173 1 -2.27434 11.6052 -4.93742 19
174 1 -16.3786 1.27446 11.0614 13
175 1 15.3667 12.4321 -0.574295 9
176 1 -7.89901 4.22457 17.4599 16
177 1 -0.978551 -6.45155 11.0101 18
178 1 -13.4242 7.12413 1.39914 18
179 1 -0.824011 17.3394 8.02503 14
180 1 -0.59311 10.1098 8.46013 16
181 1 11.3612 8.71026 15.8573 12
182 1 -6.73454 15.4328 4.38055 16
183 1 8.22926 -2.20896 -6.49684 21
184 1 -5.13233 15.219 11.5568 10
185 1 -6.63768 4.4446 -7.25222 21
186 1 12.1486 -4.07532 3.45394 15
187 1 -8.92023 -4.26459 8.34367 16
188 1 -18.9932 2.91811 6.3376 13
189 1 -11.1558 -8.66371 6.50107 16
190 1 10.3484 4.89912 15.6201 15
191 1 -15.5935 4.59429 0.446856 24
192 1 -4.79675 -13.3166 2.97314 22
193 1 2.14927 -9.34854 -2.63449 20
194 1 -1.67105 13.8939 7.61546 18
195 1 3.42585 14.1881 14.7435 14
196 1 -10.4609 0.846362 -4.28809 22
197 1 -8.63429 15.6444 -4.92512 15
198 1 -16.5459 -2.77653 -3.33664 12
199 1 -9.9939 -5.44897 12.2005 18
200 1 -1.81243 -9.03891 5.81922 21
201 1 1.72854 -10.8958 8.25861 15
202 1 -11.5484 12.5702 5.40257 15
203 1 12.0323 6.05499 3.77769 17
204 1 5.12267 2.46181 -3.90866 23
205 1 -8.71766 -8.38196 -9.38049 15
206 1 3.89992 -2.49601 11.9056 17
207 1 2.95139 -11.5782 4.06576 19
208 1 -4.50487 9.16489 -9.86291 20
209 1 1.65814 -8.27826 -14.1964 13
210 1 8.41388 2.69088 -12.8758 12
211 1 1.99287 4.50511 -11.886 19
212 1 -8.5582 -4.5156 -1.94215 19
213 1 -5.89946 16.615 -5.05328 12
214 1 -9.94768 -8.45518 11.2918 19
215 1 6.35139 19.2512 1.64732 13
216 1 -8.03115 0.722465 18.7918 9
217 1 -10.8864 16.4565 -2.68297 11
218 1 9.06161 2.68912 10.7073 18
219 1 -5.82611 -8.11972 -11.2483 18
220 1 -4.15525 9.34598 -4.35773 20
221 1 1.44153 2.4986 -9.73157 21
222 1 -11.729 -7.13373 9.0509 17
223 1 -10.697 4.8809 12.6609 16
224 1 -8.70929 8.6216 11.9344 18
225 1 2.63381 -7.9069 -7.82608 22
226 1 -7.47608 -15.0301 0.925964 19
227 1 6.20266 -11.493 -0.904656 15
228 1 8.69107 10.4334 16.6073 13
229 1 5.98492 15.0083 -5.61993 16
230 1 -6.00735 10.3925 -1.81681 17
231 1 -10.5974 6.71647 6.29721 24
232 1 -14.4991 11.1506 -0.526869 15
233 1 -2.33704 8.25089 13.9268 18
234 1 6.24642 -15.7844 1.12354 5
235 1 8.06471 2.8676 1.03466 21
236 1 1.85887 8.59458 7.17457 22
237 1 -12.1885 12.2738 7.69289 12
238 1 -20.3872 -5.17037 2.51103 9
239 1 5.56316 8.17155 -11.9902 14
240 1 8.23256 -2.80478 11.0246 15
241 1 9.86084 12.0178 -7.8035 12
242 1 1.52168 -9.47516 0.50035 19
243 1 -7.06289 -1.08153 -7.76868 20
244 1 -4.2016 -13.6075 8.22498 15
245 1 12.4277 0.619224 -4.9131 18
246 1 -8.41661 1.80535 8.31535 20
247 1 3.59678 -15.3077 -1.35444 12
248 1 -12.46 -8.16076 -6.44012 12
249 1 5.19697 17.5618 -1.42401 20
250 1 -2.23406 -2.10706 -10.5454 21
251 1 4.13759 3.82892 16.9694 17
252 1 14.7845 6.69507 0.684782 15
253 1 9.78313 -5.08547 -7.81353 12
254 1 -7.46887 -5.80634 -4.50561 23
255 1 -11.1637 -1.36631 -7.26318 21
256 1 -10.7442 -11.3786 12.4298 15
257 1 10.844 6.43695 13.1182 14
258 1 2.91851 -2.57348 8.3949 20
259 1 -6.41188 -9.95671 -8.29873 23
260 1 -0.360087 -7.75468 8.48189 22
261 1 -0.733357 8.41245 -9.35246 23
262 1 3.67489 9.46111 3.62351 19
263 1 -8.24667 -4.09628 2.36053 19
264 1 0.269465 14.5418 10.1088 19
265 1 -8.8458 -2.39341 10.9796 18
266 1 -15.3918 -5.22139 -6.0277 10
267 1 -7.27813 -5.30191 -10.1843 20
268 1 -3.15195 8.26359 -11.8138 16
269 1 -6.9281 -9.06765 -4.65514 23
270 1 -3.1473 -7.35564 2.45499 22
271 1 4.50356 -3.45942 -10.9222 22
272 1 10.6501 2.89576 -5.66072 18
273 1 11.8083 7.19535 6.91925 18
274 1 -7.00879 -5.38118 11.1146 16
275 1 -9.52417 -10.0752 3.26691 21
276 1 6.28682 3.75677 19.4384 14
277 1 -7.06519 -16.1129 4.00119 19
278 1 -2.48991 -11.01 3.13775 22
279 1 0.587635 17.599 3.10907 16
280 1 7.03239 -0.394231 -14.4908 11
281 1 -6.5238 -3.90483 -12.7979 16
282 1 -13.0415 -5.49524 13.9219 16
283 1 3.01834 3.0033 19.5088 15
284 1 1.34062 -12.9466 -0.82788 19
285 1 -4.725 -12.1424 -8.55967 15
286 1 -9.81668 7.17671 -6.51058 19
287 1 12.0481 12.6906 9.33898 21
288 1 -7.06319 8.01013 -6.93891 19
289 1 -0.918031 6.75397 -6.85008 23
290 1 3.94639 -12.2985 -6.91566 15
291 1 -4.50927 16.8729 -1.49433 15
292 1 1.92395 13.108 3.69433 20
293 1 12.5767 1.25888 6.64949 12
294 1 -11.7196 -2.40656 6.32988 22
295 1 -4.09873 -5.6833 11.6084 17
296 1 -7.97904 9.27031 6.0025 19
297 1 3.73698 -5.12593 -9.04469 20
298 1 13.7106 15.314 0.977148 12
299 1 4.08903 -14.9206 3.48555 12
300 1 -0.531678 -4.43518 14.1386 15
301 1 -17.9819 -3.39055 6.99216 17
302 1 -3.61158 -16.2761 -1.68082 16
303 1 -6.94503 7.18461 17.1491 15
304 1 -10.893 2.4192 17.8037 10
305 1 -19.1101 1.51876 9.21395 10
306 1 -15.8341 -5.52114 6.66316 14
307 1 11.4991 -0.614483 3.61149 19
308 1 -10.0082 -7.11597 14.6877 11
309 1 10.0959 -0.649324 -4.40711 23
310 1 9.40862 -10.9258 -0.824222 9
311 1 1.80397 17.534 -5.01395 12
312 1 -13.014 14.494 -1.15493 12
313 1 4.788 7.61541 15.915 19
314 1 -12.1001 1.49606 2.53649 22
315 1 10.1079 -9.83545 -4.26797 7
316 1 -4.48446 12.7496 3.18775 21
317 1 -8.1716 7.96487 8.74603 22
318 1 4.2947 -7.64644 7.00496 18
319 1 11.2686 -5.77814 6.26756 12
320 1 -2.36807 9.04187 11.1383 19
321 1 -12.387 -1.71674 0.228525 18
322 1 -5.44752 2.80472 18.275 14
323 1 -1.76035 12.6927 4.20329 21
324 1 6.52187 6.77569 19.0306 13
325 1 -9.21894 14.3988 -1.67357 20
326 1 1.76315 -2.89854 -14.6923 14
327 1 4.93244 -10.1373 -8.62629 14
328 1 -9.27476 2.82047 14.2354 20
329 1 -17.1445 3.45562 3.32451 18
330 1 -8.65212 -2.36537 -5.78939 23
331 1 -6.71005 10.1591 2.88915 19
332 1 6.01342 -0.533738 12.0783 17
333 1 -15.4986 -6.6655 2.30158 12
334 1 8.34296 -6.12244 6.86595 18
335 1 -11.6438 -9.13386 13.8432 13
336 1 -8.79731 16.8177 6.23785 9
337 1 1.67989 -3.66489 10.8632 18
338 1 -2.0775 -11.7797 -7.48156 19
339 1 -5.63371 1.61281 -6.87171 22
340 1 8.60925 -2.7283 -13.0596 10
341 1 2.97913 19.2162 4.22899 12
342 1 -12.321 0.591703 -2.01726 19
343 1 4.25177 -6.27206 -6.16951 18
344 1 8.28956 3.63838 -8.58693 18
345 1 -4.2465 -15.783 1.20577 16
346 1 -14.886 -2.2859 -5.7477 15
347 1 -8.91806 -8.94197 0.592305 22
348 1 5.79869 10.1125 17.9484 14
349 1 8.74481 6.18148 -1.08583 22
350 1 -8.64467 7.55061 -9.64633 12
351 1 3.76191 19.6976 0.704655 10
352 1 -16.468 1.54205 -5.11182 12
353 1 -13.5165 5.37007 7.91445 19
354 1 -8.10345 12.6536 3.77164 21
355 1 -7.06674 4.43924 8.99786 22
356 1 5.03401 5.07246 13.8507 17
357 1 7.56774 4.49389 -4.81719 18
358 1 3.74992 -1.85173 17.3954 15
359 1 8.54535 2.06592 -3.16904 19
360 1 -6.91446 -16.5428 -1.63571 12
361 1 -1.14255 -7.9518 -1.99165 21
362 1 -0.291202 10.1441 2.95265 19
363 1 -11.7786 5.01293 -5.11 17
364 1 4.62882 -8.86333 -0.254939 20
365 1 10.479 2.86213 8.09562 21
366 1 -13.781 -2.95204 -2.60102 20
367 1 -10.159 -6.76959 3.59245 19
368 1 -7.81374 -4.3051 14.6441 14
369 1 -2.97722 11.8088 0.787294 21
370 1 -13.4004 -5.14376 1.15281 17
371 1 2.93522 10.2485 18.8641 9
372 1 -11.5241 7.50976 -3.4901 19
373 1 -0.301097 14.8859 -4.44242 16
374 1 6.06578 12.7257 8.19488 17
375 1 -15.7271 -5.25745 -0.886584 14
376 1 -1.27062 -8.2647 -6.99968 21
377 1 -16.3525 1.21752 5.82467 19
378 1 -16.5011 8.07014 0.605721 17
379 1 3.12709 -5.74349 4.93553 19
380 1 -6.14036 -11.7762 -2.9848 17
381 1 11.339 15.584 10.8499 13
382 1 4.66724 11.2307 -10.3028 12
383 1 -10.8331 2.27753 -11.2152 16
384 1 -2.01362 15.1707 -7.44861 12
385 1 -7.96363 9.31241 -4.3881 20
386 1 -3.58192 -11.5227 6.1632 21
387 1 13.349 3.73698 8.58363 13
388 1 0.524315 6.87069 -14.0386 13
389 1 -5.37832 3.24904 11.566 19
390 1 -18.842 5.51895 1.86302 14
391 1 -8.88343 3.28385 11.0817 20
392 1 -8.2058 -10.7791 10.6925 20
393 1 1.40044 -5.18645 -6.15878 19
394 1 -12.0517 3.92593 5.29527 18
395 1 -14.4252 -2.16926 10.4713 20
396 1 -15.4879 6.86649 8.06509 14
397 1 -2.36726 -4.69709 8.53305 21
398 1 -8.72877 2.06526 -13.1729 13
399 1 7.24661 -5.30396 -4.58274 18
400 1 -2.90908 -7.15987 -11.5822 21
401 1 -5.36483 -2.42241 11.1187 21
402 1 -4.5185 1.61686 -12.6483 18
403 1 6.63465 -13.6011 3.95137 12
404 1 1.29684 11.6434 -6.04092 21
405 1 -13.5124 9.96118 7.70362 16
406 1 -5.09808 -4.64717 16.6678 12
407 1 -12.4561 -4.0465 -7.94444 14
408 1 -10.4373 -0.807069 7.95294 20
409 1 9.56333 -3.0283 8.17143 13
410 1 -0.133737 3.71933 -7.5545 23
411 1 7.14943 -9.15938 7.5415 14
412 1 14.5636 11.1525 -3.86226 14
413 1 -5.35639 -1.54295 17.7213 13
414 1 2.62159 15.8572 4.55932 17
415 1 6.81545 -1.84941 7.81201 19
416 1 -4.61288 -13.8987 -2.27703 17
417 1 -2.9236 3.88694 16.9817 17
418 1 -4.4217 17.1475 7.61494 11
419 1 -8.36911 -11.0387 -6.41862 12
420 1 10.5155 17.5188 5.08917 12
421 1 1.20102 8.85644 10.8267 18
422 1 -9.2253 6.12515 14.5834 18
423 1 -7.50594 -7.46041 -1.81969 20
424 1 -12.1619 2.98909 10.8727 16
425 1 -12.1521 -5.12211 -2.07003 17
426 1 -6.3346 12.1103 6.43273 23
427 1 -3.13007 -10.7667 -2.50967 18
428 1 -3.59026 -9.09323 -13.6479 13
429 1 -6.28611 -17.8103 6.28916 12
430 1 -8.88649 -2.32817 5.43677 19
431 1 8.12402 2.4617 5.87899 19
432 1 -5.43738 -6.02775 13.7991 13
433 1 -7.31655 10.9782 -9.55091 14
434 1 6.70806 5.9035 0.898589 22
435 1 -8.83188 -13.032 3.75448 20
436 1 3.95919 16.8966 2.02096 21
437 1 -2.66433 6.16895 -9.58821 22
438 1 -3.94588 6.1263 11.9536 19
439 1 -15.808 3.06011 -2.33024 21
440 1 2.11462 18.9156 -1.85768 13
441 1 6.64472 14.6813 -2.86215 17
442 1 -6.31887 -4.19513 -6.83548 23
443 1 1.95166 0.178506 16.9449 21
444 1 0.0769581 -14.5314 -5.45321 12
445 1 -1.82413 -4.55209 -9.47747 20
446 1 7.91519 -11.5513 5.33846 12
447 1 -13.158 10.8644 4.50458 19
448 1 3.72236 7.28147 12.7642 13
449 1 8.92276 8.27431 0.388405 20
450 1 3.87435 11.8504 1.43362 19
451 1 -10.8517 10.7662 -5.2721 19
452 1 3.08409 2.03822 -11.9063 22
453 1 -0.238094 -7.99941 3.17634 21
454 1 -17.4674 1.20032 0.62559 17
455 1 4.87789 18.5848 7.63675 17
456 1 -5.98299 5.81859 -9.56711 20
457 1 12.5312 11.9277 -0.146092 21
458 1 4.9399 17.8802 -4.17408 15
459 1 7.8546 -7.52546 1.54867 20
460 1 12.8413 7.84837 -3.59376 21
461 1 -3.99164 -0.0147982 -9.55646 22
462 1 -1.99643 -13.2971 0.819902 20
463 1 -1.80979 -11.1468 8.81285 20
464 1 3.66787 -6.09005 9.94867 20
465 1 -9.8402 4.12514 -7.88498 19
466 1 -12.8855 -7.60601 11.3456 14
467 1 -0.223132 -9.93527 -9.32041 19
468 1 8.46661 16.8971 10.4773 13
469 1 -4.42957 7.05471 -7.16991 22
470 1 -0.20376 1.12657 11.5993 20
471 1 -13.1783 2.52848 13.5469 15
472 1 -4.31157 -15.2594 5.48255 17
473 1 -13.5724 -1.64723 2.99758 20
474 1 11.4378 0.0136546 -1.95609 21
475 1 8.35714 0.516981 -1.055 20
476 1 -9.4254 10.3749 -2.14191 18
477 1 -0.609744 -5.2998 -4.12879 18
478 1 2.36932 5.04273 -7.09742 23
479 1 10.8568 -2.82981 -1.24543 21
480 1 -7.82153 -2.5484 17.2541 12
481 1 10.3883 13.268 1.40341 17
482 1 -4.03773 -3.15107 -15.1025 13
483 1 5.8475 3.15695 -13.8882 14
484 1 -7.24688 0.0988998 11.7141 19
485 1 -10.5271 16.4739 0.037749 11
486 1 -8.78951 -6.77088 -11.9282 10
487 1 -18.5505 0.646941 3.68006 15
488 1 -2.67885 -10.2385 -11.1245 19
489 1 -6.85008 -11.6645 12.9317 13
490 1 -0.617788 8.70249 -5.17473 24
491 1 12.6769 6.80658 10.1499 13
492 1 14.8726 9.8796 1.45712 13
493 1 -14.5891 -11.0268 4.50706 9
494 1 -2.06171 -9.0996 0.441963 21
495 1 -1.25454 -3.94623 -15.2696 14
496 1 -12.1346 10.5756 10.729 11
497 1 -0.925856 -1.61607 -7.29254 23
498 1 10.0053 -0.357712 1.22642 19
499 1 3.98657 17.1167 -7.43736 10
500 1 4.73835 -6.17643 1.66796 18
501 1 8.86227 9.91574 -5.55771 19
502 1 -2.16938 10.7664 17.169 12
503 1 -13.7389 -0.0601291 8.29612 18
504 1 7.02628 9.52239 9.22214 20
505 1 5.19166 1.36028 14.3664 16
506 1 3.67545 -0.0308627 -14.607 15
507 1 -4.29502 -8.59094 -2.95356 21
508 1 -1.9043 1.26043 14.1033 16
509 1 8.61575 13.8529 10.1911 20
510 1 4.64907 7.69175 -6.88798 17
511 1 -8.875 13.021 -4.30912 18
512 1 4.02142 12.0452 -4.25378 21
513 1 9.23314 -3.41432 14.1451 7
514 1 10.6316 5.71836 -9.51155 13
515 1 12.5194 -5.21597 -2.40765 16
516 1 7.79034 12.6666 15.3991 12
517 1 -17.8894 -5.73492 4.92415 11
518 1 -7.03355 13.796 -7.20642 14
519 1 -2.67321 3.09361 11.9333 18
520 1 -15.4492 -3.86021 13.0822 12
521 1 -5.68674 10.7362 -6.91253 20
522 1 -0.615733 -11.141 -0.871823 22
523 1 4.63914 -0.614967 -6.95638 23
524 1 -1.12703 17.3032 -2.12602 13
525 1 -10.9267 -6.95171 -9.08639 14
526 1 -1.55482 -18.3613 -0.210784 8
527 1 -20.7334 -0.104433 -0.430994 6
528 1 1.80341 7.67356 -11.7091 19
529 1 -5.67061 9.80932 16.5264 12
530 1 -17.1489 -3.94509 9.65861 13
531 1 5.1674 8.50747 1.17156 21
532 1 -1.15573 -9.75349 -4.49291 18
533 1 4.763 -5.51712 12.6691 13
534 1 -11.7926 8.09042 3.61309 18
535 1 5.25438 1.1035 17.8256 18
536 1 3.81164 13.9843 -0.58651 20
537 1 12.8867 -0.60642 0.452205 21
538 1 5.97988 11.9646 11.3361 16
539 1 2.97193 3.1632 -15.7799 12
540 1 -6.54089 -13.2353 9.90445 16
541 1 -2.44171 1.31086 -7.391 25
542 1 8.5186 -0.0381788 -11.58 12
543 1 -0.495761 15.423 5.20864 22
544 1 8.03483 6.69977 -7.44801 17
545 1 -3.8531 -4.60011 -12.2098 21
546 1 -5.29137 -9.03848 -0.0694024 21
547 1 -9.96452 -3.34307 -10.1612 16
548 1 10.3655 5.45627 0.961856 20
549 1 12.2978 5.73052 -1.41161 21
550 1 5.85917 -3.97896 -7.5596 21
551 1 11.5591 12.4957 16.0686 8
552 1 4.4063 -6.94929 -3.22227 18
553 1 3.99019 5.41385 -13.6757 18
554 1 5.11042 14.5029 5.82391 17
555 1 -10.1955 4.73125 3.07456 17
556 1 5.47148 11.3228 15.4398 19
557 1 11.2037 9.18188 -1.07435 18
558 1 10.3974 3.35126 3.3026 22
559 1 12.2111 6.30469 -6.64406 14
560 1 1.23671 4.08593 12.584 15
561 1 10.572 8.85966 8.74498 17
562 1 6.64169 -7.03685 9.63805 13
563 1 12.1376 17.6359 -0.707853 7
564 1 -0.898108 -0.938226 18.991 12
565 1 17.0258 2.86669 -3.48221 8
566 1 6.16862 7.50706 11.2982 19
567 1 -8.8861 1.28411 -6.55094 22
568 1 12.2319 7.63521 1.4496 19
569 1 13.9432 -3.43735 6.25141 6
570 1 -11.024 4.69767 15.8599 13
571 1 10.1368 10.9737 10.3988 15
572 1 7.72529 6.26423 13.1636 18
573 1 3.96341 11.2027 6.08456 19
574 1 -3.66337 10.6599 12.6365 18
575 1 6.31941 1.81108 9.05068 20
576 1 -2.71946 -17.3603 6.82526 5
577 1 -7.21151 15.3963 0.430748 21
578 1 8.18231 17.3836 2.33612 14
579 1 5.5506 -0.0777711 -12.1232 19
580 1 1.09134 17.7603 0.501813 14
581 1 -1.66018 -14.6787 -7.75808 11
582 1 8.33718 -3.67757 -9.88413 15
583 1 -15.5494 4.55648 5.93061 18
584 1 -3.92948 12.5159 -8.40689 21
585 1 -9.11068 -18.1956 5.9067 8
586 1 -7.88447 2.22683 -9.38538 19
587 1 -17.8346 4.55322 -4.20008 11
588 1 10.6135 -8.59431 5.32051 10
589 1 11.5097 10.6237 5.92283 20
590 1 -2.02176 -2.89126 10.9806 22
591 1 -14.0048 -0.0282973 -7.82873 16
592 1 1.14525 0.504206 -16.1758 10
593 1 -4.15198 2.81705 15.0767 17
594 1 7.64368 10.4149 -10.1288 12
595 1 11.1383 2.52488 12.9183 13
596 1 3.90645 6.94847 -9.96866 20
597 1 11.0807 15.5834 7.42378 16
598 1 2.11267 -14.9968 -7.76512 9
599 1 -13.6439 -2.4347 15.5295 11
600 1 13.1286 2.1662 3.80451 13
601 1 -1.56878 11.6218 14.1553 16
602 1 3.98646 10.6212 -7.21323 18
603 1 -16.7939 9.18388 -2.82588 11
604 1 8.56686 11.9772 4.12716 19
605 1 -11.0408 -16.4709 1.67892 4
606 1 14.5851 -1.77222 2.87193 12
607 1 7.07616 20.1639 9.63576 8
608 1 -3.80947 8.19837 18.6978 14
609 1 -11.1156 -4.43174 3.54957 19
610 1 -10.3558 -4.10393 -4.27416 20
611 1 6.06649 4.14434 11.4365 18
612 1 -3.65051 -8.89703 10.824 17
613 1 8.22368 9.86805 12.9475 16
614 1 -6.14441 12.2662 0.609775 23
615 1 8.1469 7.73206 6.98275 20
616 1 6.71363 4.88617 6.17932 19
617 1 -2.53847 6.26282 -14.8626 10
618 1 -11.831 2.16005 7.90636 19
619 1 8.11096 7.00541 -10.2081 17
620 1 6.85461 -8.45143 -5.14807 18
621 1 9.33616 7.56631 10.9654 19
622 1 5.25633 6.10858 8.48546 20
623 1 -11.8833 -0.141137 17.1861 9
624 1 12.4775 11.7586 13.9453 12
625 1 -1.18185 -1.49383 13.9585 21
626 1 -1.19265 4.78072 15.3648 21
627 1 -0.673771 -4.71274 -12.4103 21
628 1 -7.26588 1.20836 15.7087 13
629 1 3.60176 1.5195 11.5277 18
630 1 -11.7139 -13.1372 7.5216 17
631 1 13.0968 12.0109 2.79958 20
632 1 0.625239 -11.8134 -3.79143 16
633 1 4.10125 10.2905 -1.60066 22
634 1 7.46488 14.8668 7.1151 19
635 1 4.52324 -3.06043 -13.7178 12
636 1 6.817 15.0846 0.0752429 16
637 1 14.666 11.0795 4.9561 13
638 1 -10.1391 -12.5782 1.32484 17
639 1 -1.60501 -0.676633 -14.8975 13
640 1 -10.1985 10.7826 3.65104 22
641 1 6.46154 -1.40639 -9.32965 18
642 1 10.8834 11.0107 -3.24704 22
643 1 9.48124 19.1424 0.0238553 10
644 1 -8.47628 7.30633 3.54213 21
645 1 5.25136 7.00103 -1.69069 21
646 1 8.79518 7.4824 16.8641 12
647 1 7.69476 2.53684 13.8452 20
648 1 -0.215708 -9.81462 11.2188 15
649 1 -4.26692 11.3101 -11.1878 12
650 1 0.708238 19.8003 10.6648 7
651 1 4.66588 -7.37581 -11.2077 17
652 1 -0.860685 5.96119 12.5062 19
653 1 7.86812 17.5803 -2.19914 12
654 1 5.25952 11.955 3.91484 18
655 1 15.3495 -2.90071 -2.45943 10
656 1 3.73205 6.26076 18.3428 16
657 1 -12.9592 0.544032 5.51727 18
658 1 1.23155 -13.4111 2.34926 19
659 1 -0.0998425 0.215135 -9.2686 19
660 1 -3.44384 11.5216 6.55395 19
661 1 1.58365 14.0522 7.57485 17
662 1 -20.6213 -2.31441 4.46637 10
663 1 -5.12076 5.53075 19.7136 10
664 1 -6.10441 7.21685 -12.3254 12
665 1 -9.00424 10.4508 -7.15445 19
666 1 1.39113 -17.6798 -1.35852 7
667 1 9.55983 7.82168 -3.28251 20
668 1 -14.4847 0.916589 16.2951 8
669 1 0.0402481 2.94851 -14.0246 17
670 1 4.62532 -10.5244 9.01727 10
671 1 1.8455 14.5749 1.45792 18
672 1 -2.4556 -2.28661 16.5006 15
673 1 -9.50907 -8.4031 -6.41463 20
674 1 -5.80769 -11.2128 -11.4244 10
675 1 -5.60461 -12.6068 -5.52376 14
676 1 3.42036 15.6696 -3.17487 18
677 1 4.82423 -3.08901 -4.4319 18
678 1 -3.18983 12.5086 9.50626 18
679 1 1.93741 -4.54451 -2.77826 19
680 1 5.36283 -9.72647 2.53228 18
681 1 1.65053 -5.33839 7.63728 20
682 1 13.4891 4.59721 -4.44957 14
683 1 -1.01524 -14.1644 -2.26549 18
684 1 -14.4439 -3.18536 7.85737 20
685 1 -7.23354 -17.928 1.29898 10
686 1 -11.2516 -10.6285 -0.804328 13
687 1 -13.1234 0.50721 11.4705 16
688 1 -10.5125 -15.5675 4.83823 15
689 1 14.8293 9.25016 -1.80062 17
690 1 2.14178 17.3214 6.84417 18
691 1 -10.4306 15.0014 8.63766 11
692 1 8.29176 0.436974 3.12482 21
693 1 -11.9609 -0.989797 -10.5003 18
694 1 -1.11299 12.4117 -1.75992 19
695 1 9.86407 0.643518 -7.32727 16
696 1 5.97451 15.1862 9.96491 17
697 1 6.69558 7.15137 -4.55434 21
698 1 -15.5841 5.05242 -5.42775 17
699 1 -15.0439 -0.409974 -2.96108 19
700 1 -1.45732 5.62684 19.2612 13
701 1 6.25195 10.0538 -4.72228 19
702 1 14.0741 14.8694 9.21086 11
703 1 -3.58526 0.0189168 11.368 22
704 1 -5.2341 -19.4972 -0.998722 7
705 1 -10.3994 -15.8809 8.11863 10
706 1 -5.3366 -4.77428 8.67324 19
707 1 14.2663 13.8331 11.7287 11
708 1 1.36112 -8.08439 -5.04954 20
709 1 -8.14743 9.092 0.508519 21
710 1 7.32742 9.21034 3.30541 21
711 1 -10.7638 -1.34108 2.82236 21
712 1 10.3653 8.76841 -8.36647 15
713 1 -8.69846 -10.4741 -3.1026 16
714 1 -1.47229 -13.988 3.7961 19
715 1 -1.3635 -14.2331 7.46293 12
716 1 3.56774 2.19626 -7.0185 23
717 1 5.67444 14.5267 2.44206 19
718 1 -6.68067 -0.261904 -14.6148 12
719 1 -0.483871 2.38173 16.9001 17
720 1 0.567323 6.1689 -9.50323 22
721 1 -13.2971 -2.51714 -12.921 7
722 1 -13.0371 -7.55816 3.86091 18
723 1 0.639478 15.449 -1.56465 16
724 1 -4.29259 -6.30706 -14.2998 13
725 1 -12.3247 -9.72264 2.1 16
726 1 8.64144 12.8445 -4.83445 16
727 1 10.8526 -5.86073 0.508143 17
728 1 -7.18763 5.90589 11.7377 19
729 1 2.84224 -8.03279 2.71635 19
730 1 15.8155 -1.20316 0.38201 12
731 1 11.3523 -2.15964 11.4231 10
732 1 0.931833 11.0562 5.44032 20
733 1 -15.7107 -0.521184 13.7317 12
734 1 -10.945 8.33361 15.9331 10
735 1 -9.67928 -14.1221 9.89412 14
736 1 8.36549 5.72847 4.09884 23
737 1 2.60125 11.2985 13.8586 16
738 1 -18.6005 2.93476 -1.12722 12
739 1 8.48186 -4.64759 -0.204146 17
740 1 -14.2809 10.4276 -3.87893 16
741 1 -5.63456 -10.4582 8.23019 25
742 1 6.96034 -0.679486 15.4401 16
743 1 -0.833977 11.7237 11.3654 19
744 1 -0.146799 -12.1248 5.32104 18
745 1 -10.1868 -5.71404 0.277833 21
746 1 4.15902 9.06049 9.24681 21
747 1 -18.4447 -3.50473 -0.259405 15
748 1 -0.757803 7.74905 16.962 19
749 1 6.77696 17.4691 5.05288 16
750 1 -14.1625 -11.291 7.73955 10
751 1 -7.21886 -13.9797 6.34322 21
752 1 6.77371 -1.30618 18.5779 10
753 1 8.48142 -3.01289 5.59094 21
754 1 7.12017 10.9951 6.41589 18
755 1 -4.14192 -5.23334 -4.07451 21
756 1 -4.69221 3.08575 -9.26424 19
757 1 -3.66393 -2.94771 14.1133 17
758 1 -1.39904 18.256 5.73714 12
759 1 10.0832 5.08014 6.52456 19
760 1 3.20852 8.89932 -4.39821 22
761 1 -8.07972 10.2985 14.7668 11
762 1 2.34926 9.3132 16.0936 18
763 1 5.60798 1.64319 -9.01914 19
764 1 -10.0539 -11.8513 5.58733 21
765 1 13.5334 4.08439 1.75017 17
766 1 1.32262 0.60572 -6.96885 23
767 1 1.76199 6.30236 15.4701 21
768 1 5.63011 -11.3837 -4.14157 15
769 1 7.18474 6.16156 -13.2685 11
770 1 -3.20607 -6.84716 -1.37449 20
771 1 11.8464 9.98184 -5.64655 18
772 1 15.0691 0.364055 -1.85295 16
773 1 1.53654 -6.70687 12.822 12
774 1 -3.71912 -8.74866 -8.86613 20
775 1 7.12634 11.2401 1.09914 22
776 1 -18.2229 6.06654 5.01399 12
777 1 10.3719 5.43279 -4.40988 18
778 1 13.1201 9.69482 7.96057 16
779 1 2.13359 -6.64589 -11.878 19
780 1 -7.91749 13.6148 9.65664 18
781 1 13.4074 16.6289 4.96338 12
782 1 10.8975 14.2705 -1.97406 14
783 1 3.81586 4.19892 -9.51574 19
784 1 9.67938 -3.13962 2.43022 19
785 1 -13.6356 3.67662 2.39668 18
786 1 10.0916 8.34338 4.54609 18
787 1 -18.8294 -6.8404 -0.38749 5
788 1 -12.3954 8.85071 -6.21063 13
789 1 3.11388 3.39062 9.28236 21
790 1 -12.9515 3.54236 -3.59043 16
791 1 -13.8115 7.08489 5.69643 18
792 1 -6.59955 6.48606 -4.59704 23
793 1 9.93411 -6.90705 -4.75246 15
794 1 -13.6801 -8.06598 -3.91587 11
795 1 13.5231 -3.9284 0.290605 18
796 1 -15.4071 6.57445 3.22071 22
797 1 -11.9938 -7.68075 -0.538065 16
798 1 15.3348 12.4756 8.14839 13
799 1 -6.49087 -11.6836 5.18585 21
800 1 9.2851 5.08302 18.9743 10
801 1 9.84645 -0.18792 9.23057 17
802 1 9.7045 0.0639145 5.84847 18
803 1 -15.9197 9.09273 5.87366 16
804 1 0.774154 13.996 13.5961 17
805 1 2.78086 14.3579 -5.57195 18
806 1 -1.5049 -7.66495 -15.0081 12
807 1 -5.19724 14.3555 8.93302 16
808 1 -10.6496 -5.36767 6.3579 18
809 1 6.95964 9.30037 -2.05397 20
810 1 0.241305 9.02914 14.0152 19
811 1 15.8254 3.4832 -0.105753 13
812 1 5.62781 -3.80561 10.0702 18
813 1 -4.25566 13.9077 -5.64916 16
814 1 -0.4968 10.7207 -7.75735 18
815 1 -4.71232 0.0419874 14.0731 14
816 1 13.6148 11.1768 10.5877 14
817 1 -5.39247 -2.92216 -9.83901 22
818 1 11.2323 14.8678 3.62504 19
819 1 -17.6025 5.84733 -1.34416 16
820 1 -6.22569 -8.4583 11.0274 20
821 1 1.69499 9.7971 -9.30859 18
822 1 5.82358 -2.74802 14.5795 14
823 1 -7.082 -11.6339 1.48086 20
824 1 -8.89514 16.7078 2.5656 10
825 1 -19.7039 9.30035 5.15432 5
826 1 15.6592 -0.448608 -4.89223 9
827 1 0.069267 -11.1785 -12.1728 13
828 1 -10.794 9.64984 6.31428 20
829 1 13.7686 14.1229 -2.38925 12
830 1 -10.279 0.785902 5.45618 20
831 1 6.4194 -5.10372 -11.4024 16
832 1 -7.7278 -6.6133 -7.40777 20
833 1 -4.25554 -11.811 0.389337 19
834 1 -4.9029 13.3121 14.2003 9
835 1 3.6089 -12.2271 0.688648 19
836 1 -2.51287 14.7729 -10.5063 9
837 1 12.8893 2.16818 -2.25937 17
838 1 5.05378 6.28919 3.81423 20
839 1 -1.08467 -15.727 0.558882 16
840 1 1.27208 -1.36344 -11.9581 17
841 1 11.9789 2.09097 1.02917 24
842 1 -4.07569 5.06281 -12.3003 20
843 1 -3.59277 -7.90802 7.83005 19
844 1 9.21598 11.7464 -1.38862 20
845 1 5.88179 4.26618 -7.09691 21
846 1 -9.93922 4.9421 -2.19841 20
847 1 -15.0121 4.63997 11.0964 13
848 1 -0.207074 2.00584 19.6846 15
849 1 -7.70209 -8.48318 8.63423 15
850 1 4.98774 8.46817 6.42116 21
851 1 1.83563 -13.6429 5.93083 14
852 1 0.974124 9.98483 -2.63215 20
853 1 -5.84924 8.18576 13.5498 21
854 1 -10.0627 0.604427 12.5947 15
855 1 -9.05473 12.7939 6.6779 17
856 1 6.53465 3.89619 -1.1074 21
857 1 -4.85011 -9.64706 13.9945 10
858 1 1.57151 -8.04839 6.03671 20
859 1 9.8018 13.9302 13.4177 13
860 1 9.18431 -3.41573 -3.26742 18
861 1 1.43357 -10.9166 -6.66136 20
862 1 -11.7023 1.99905 -8.05284 18
863 1 -4.37352 -1.62524 -12.8994 23
864 1 4.64246 16.6344 12.2895 10
865 1 -14.311 -5.18986 10.7838 17
866 1 -8.15521 7.32 -1.91239 21
867 1 -13.1215 5.52658 -1.53428 20
868 1 12.3925 18.1313 2.19677 11
869 1 -8.6613 -11.5046 7.80812 21
870 1 -1.70817 8.4787 5.86921 18
871 1 8.22107 15.1291 4.12013 19
872 1 -11.2143 -10.3447 -4.34363 13
873 1 3.81283 15.592 8.37551 14
874 1 -9.24393 -1.04788 14.7004 16
875 1 -3.24258 -13.9199 -4.57592 17