ITEM: TIMESTEP
8000
ITEM: NUMBER OF ATOMS
2000
ITEM: BOX BOUNDS pp pp pp
-30.0 30.0
-30.0 30.0
-30.0 30.0
ITEM: ATOMS id type x y z Coordination
1 1 -11.2612 4.91302 -9.24946 15
2 1 -4.37366 -10.2854 -8.31584 17
3 1 1.70135 12.7561 12.3407 18
4 1 5.69877 -8.28284 4.53412 18
5 1 -10.915 8.437 -0.888888 18
6 1 8.67451 -6.23879 -7.61896 18
7 1 -18.2139 2.70365 -7.20006 7
8 1 0.6914 -0.613638 10.5738 17
9 1 -9.56126 -0.429371 -8.80378 21
10 1 -14.6631 -8.74078 7.09906 14
11 1 13.7528 5.69025 -6.22738 15
12 1 -5.64238 -10.3149 1.65309 23
13 1 -17.0521 -8.33207 5.88168 8
14 1 -0.299526 5.6106 16.0165 19
15 1 -0.934392 6.51891 8.24562 21
16 1 -1.55862 11.2043 -10.5846 15
17 1 2.59426 6.29853 15.6318 19
18 1 -8.30104 -1.13785 -13.4505 14
19 1 -18.3166 -0.626125 10.3604 12
20 1 14.4907 3.99163 4.86843 13
21 1 0.534088 9.08154 -12.7947 12
22 1 3.56128 9.23507 -10.051 16
23 1 12.9651 5.21869 12.7576 14
24 1 -15.1445 3.6245 -9.94758 10
25 1 -2.45366 -2.74366 -7.51399 17
26 1 -11.7856 10.3933 11.1659 15
27 1 5.10493 -11.0245 5.94445 13
28 1 2.27338 -13.709 -10.0025 12
29 1 8.45818 -11.0015 0.454117 13
30 1 -7.77567 -13.0235 -4.29828 19
31 1 -14.6526 -6.50825 11.0914 13
32 1 1.47752 -6.4705 -10.7121 18
33 1 6.38648 -8.81621 -8.50162 16
34 1 -6.25681 4.70326 -14.2067 14
35 1 5.30248 7.12424 17.6204 23
36 1 -2.34751 -9.98212 7.44671 18
37 1 4.94503 -1.35593 13.8324 17
38 1 -14.8368 0.83771 2.35027 22
39 1 -16.0484 3.1593 8.41925 15
40 1 -11.5715 3.45352 -0.7165 19
41 1 -5.08547 16.3811 0.654071 14
42 1 -0.825688 -13.8742 -10.0418 14
43 1 -0.217932 2.6638 -9.55066 19
44 1 4.05523 -2.92555 -7.6868 22
45 1 -0.725902 -3.32663 16.2963 14
46 1 -15.0328 9.28787 0.528632 16
47 1 1.94441 13.8806 -9.96962 12
48 1 0.0352517 16.3179 8.63925 14
49 1 -13.2876 4.61763 -5.50894 18
50 1 -2.02732 16.636 -0.509019 11
51 1 0.991492 -11.6743 2.24034 20
52 1 5.16823 -6.43423 -1.68656 17
53 1 4.96241 -4.68671 -13.1153 15
54 1 -8.67141 9.05465 15.7638 13
55 1 -11.6852 -3.46369 -9.27905 20
56 1 7.1763 -0.760686 5.90677 20
57 1 -12.3259 13.0069 -4.43764 16
58 1 -8.6903 -8.80546 5.67283 24
59 1 -4.06415 15.9136 12.5891 9
60 1 -15.9624 5.66842 -7.04394 13
61 1 -6.9856 11.2543 16.0587 10
62 1 -10.1699 -11.4785 5.77281 20
63 1 1.94378 6.03884 7.86842 19
64 1 5.73243 -15.2181 -3.07558 11
65 1 5.99656 12.475 16.452 10
66 1 -12.8919 2.76348 -7.7743 16
67 1 -14.0408 6.77813 -9.28768 8
68 1 2.02251 10.0867 11.3699 16
69 1 12.5762 -1.454 -10.1309 10
70 1 6.38498 -9.93102 2.07289 18
71 1 -17.7731 0.984831 6.46683 15
72 1 4.76177 17.6407 9.48461 14
73 1 2.15094 -2.28449 15.9198 15
74 1 -12.8843 -11.5674 6.48618 12
75 1 -12.617 0.114737 -0.456367 21
76 1 10.2711 4.88748 6.14098 19
77 1 -7.26356 13.3039 13.4436 13
78 1 5.32097 0.0688308 8.29984 20
79 1 -4.1193 -7.08461 -8.24317 20
80 1 -12.1319 7.29748 11.2552 12
81 1 -9.82436 11.4423 -0.391823 19
82 1 -1.19277 7.23504 -7.33724 19
83 1 8.57673 -1.37772 -6.28493 18
84 1 8.36151 12.5326 -9.09075 12
85 1 9.64225 -5.14062 2.83522 21
86 1 2.47151 -9.72129 10.6241 11
87 1 -9.06041 15.281 -4.18363 15
88 1 -8.84067 9.60261 8.80947 20
89 1 -11.2778 -4.05984 15.2222 11
90 1 -4.48242 8.45161 5.73465 23
91 1 -6.78016 -4.39475 8.81962 20
92 1 12.4097 -4.5603 -5.13843 15
93 1 -9.34598 3.94528 8.59901 21
94 1 -12.1472 -14.5229 4.96103 9
95 1 9.40788 -4.09372 -4.73881 21
96 1 4.80308 0.0388806 -10.175 21
97 1 -5.19309 -0.55111 -12.7173 17
98 1 -1.20628 11.8852 3.54138 20
99 1 -13.5364 8.14251 -1.72947 21
100 1 -0.253074 8.8872 18.1764 11
101 1 -1.44166 13.5271 -4.87059 19
102 1 -13.6069 12.7374 1.27036 15
103 1 0.608785 11.5777 0.513713 19
104 1 -6.99363 -6.0438 5.37357 22
105 1 14.2907 2.95838 8.6106 10
106 1 -0.541796 -5.29475 -7.90338 22
107 1 0.760436 -3.25098 -9.93396 21
108 1 -4.37318 6.48589 8.58065 23
109 1 1.85184 -1.47854 18.8498 8
110 1 -14.0106 -4.5861 1.97268 20
111 1 -8.13715 -9.16854 -4.87623 18
112 1 8.85943 -8.29607 1.93382 17
113 1 -2.58848 9.43149 2.29659 20
114 1 6.32634 4.45942 -13.1425 21
115 1 4.61759 17.1853 -2.51137 15
116 1 -10.6936 -10.0962 11.528 15
117 1 -9.82429 -10.2799 8.57919 20
118 1 4.5028 -8.39044 -12.3645 13
119 1 4.56378 5.59632 -4.09831 22
120 1 10.1328 -8.65836 -2.58713 13
121 1 -5.26569 -17.082 7.46102 15
122 1 -15.7738 -6.65354 0.683806 14
123 1 15.9203 17.9406 8.82107 4
124 1 15.5505 -0.659836 -8.08925 11
125 1 -20.411 -0.877592 7.85892 10
126 1 9.87371 10.2523 8.10355 16
127 1 16.8539 13.3907 5.81259 9
128 1 -2.90684 -0.565048 16.0628 15
129 1 -6.51908 11.1099 10.7813 23
130 1 -6.56941 13.0972 -3.53955 24
131 1 -1.75216 -6.15159 -10.6109 21
132 1 8.77631 -11.2497 -8.06446 9
133 1 -0.889882 14.1557 -10.9763 11
134 1 5.44375 -2.65396 18.5359 7
135 1 -0.711874 2.36803 -14.7166 16
136 1 -2.76072 9.26753 -2.77132 20
137 1 11.158 3.65545 -2.19615 20
138 1 -14.9293 4.95089 -2.43521 21
139 1 -10.5839 13.2035 2.61125 17
140 1 9.7728 1.20333 -7.22739 17
141 1 6.97833 -6.31103 3.55091 19
142 1 -7.55375 3.30881 -5.50699 19
143 1 -9.44983 12.0678 11.2851 14
144 1 12.9378 12.976 -6.30772 10
145 1 5.9121 12.4073 -2.32768 16
146 1 -5.5725 15.8354 3.99725 13
147 1 11.9176 11.8775 2.4301 20
148 1 -4.39346 14.0652 -1.07491 18
149 1 0.298871 16.0547 -8.00653 12
150 1 0.671684 4.80833 -16.3989 12
151 1 -16.2472 -2.65033 3.00903 21
152 1 -17.5797 8.00266 2.03299 11
153 1 -7.29429 -2.89206 -10.7813 18
154 1 0.93684 -8.93818 -14.1552 14
155 1 9.66135 14.015 10.5556 11
156 1 2.16421 18.2032 7.19466 11
157 1 -13.622 -0.838123 -4.16667 21
158 1 -12.9197 11.8649 -1.68755 20
159 1 15.5341 5.39403 -1.73482 21
160 1 -10.9166 1.01008 -13.4858 11
161 1 7.51808 4.77481 18.78 16
162 1 4.65011 15.0705 6.59155 16
163 1 2.15978 11.5881 8.50076 19
164 1 2.83785 -6.69684 -14.6182 10
165 1 -4.64889 12.1818 8.93397 22
166 1 -3.76552 11.9449 -3.66749 23
167 1 2.03046 0.221178 13.8115 17
168 1 -14.4162 -3.4425 5.15283 21
169 1 -2.94032 -13.732 -12.4244 9
170 1 -11.0212 11.319 -6.89023 10
171 1 -4.86125 -8.9361 5.63476 23
172 1 2.08748 -14.2136 -4.03705 16
173 1 -2.15147 10.7005 -7.06272 18
174 1 -17.2666 2.31911 11.5417 10
175 1 14.1125 11.4923 -1.30751 18
176 1 -7.13617 3.88529 16.5218 20
177 1 -0.68433 -6.33459 11.1679 16
178 1 -13.0005 5.76612 0.0842807 20
179 1 -2.74558 16.5578 6.10217 15
180 1 0.616656 8.96638 7.63077 18
181 1 13.3641 7.56625 14.6485 10
182 1 -8.6058 14.8155 5.16533 11
183 1 13.1538 -1.86063 -7.07412 16
184 1 -5.97923 14.0563 10.6104 14
185 1 -5.55079 4.34883 -7.57301 23
186 1 14.0899 -4.96274 2.47936 12
187 1 -10.312 -5.79608 5.3118 19
188 1 -17.6274 3.52062 5.24493 14
189 1 -12.0863 -8.80687 4.71583 19
190 1 9.72415 2.38424 17.0285 10
191 1 -14.5397 2.47796 -0.074807 22
192 1 -4.0776 -14.1575 3.11632 23
193 1 2.49736 -8.39486 -2.1429 18
194 1 -3.27691 11.2962 6.44231 24
195 1 4.77648 14.27 13.5377 13
196 1 -9.08801 -1.15739 -4.96698 19
197 1 -7.95646 13.689 -7.15873 15
198 1 -15.3771 -3.05912 -4.43828 15
199 1 -10.6041 -2.56944 11.2864 19
200 1 -1.39945 -8.94654 4.7362 19
201 1 2.18348 -11.1013 7.49947 17
202 1 -12.7822 12.0612 4.60222 14
203 1 14.5601 5.82915 1.80035 19
204 1 6.0364 2.75017 -4.73657 20
205 1 -7.65006 -8.49486 -12.0648 12
206 1 4.03676 0.24344 10.6809 23
207 1 2.19369 -12.583 4.99149 21
208 1 -3.9442 8.64715 -11.1966 15
209 1 2.86524 -11.5477 -13.5483 9
210 1 8.05042 4.59792 -10.6008 22
211 1 2.58506 5.60623 -12.1942 17
212 1 -7.60421 -3.85104 -4.91664 21
213 1 -6.15998 15.797 -5.94736 11
214 1 -9.07405 -8.04947 10.3524 20
215 1 6.61397 17.7253 0.209885 11
216 1 -7.31452 0.409809 18.3129 13
217 1 -10.6966 15.7738 -2.39222 13
218 1 9.07572 2.42467 10.478 17
219 1 -4.64859 -6.18981 -11.9645 18
220 1 -3.68391 8.49377 -5.58772 25
221 1 2.66787 2.89202 -9.74056 19
222 1 -11.5939 -7.83586 7.6562 20
223 1 -9.42924 6.23249 10.3283 15
224 1 -8.52643 9.57386 12.3572 17
225 1 1.48982 -10.204 -10.4728 19
226 1 -12.6691 -14.6756 -1.13933 8
227 1 6.58966 -11.976 -1.85109 17
228 1 11.4249 9.80346 16.5505 9
229 1 6.74116 15.6318 -7.90012 11
230 1 -6.01428 9.58281 -2.91963 19
231 1 -9.52213 5.72863 5.73805 19
232 1 -15.8461 12.1006 -0.698763 11
233 1 0.461607 7.63105 10.8819 17
234 1 5.26819 -15.7812 3.23201 11
235 1 9.21129 2.79961 0.503348 19
236 1 1.98795 8.11796 5.15443 19
237 1 -13.3456 9.9423 7.27439 14
238 1 -19.0603 -3.64131 2.14711 13
239 1 6.06236 7.11945 -11.8035 16
240 1 5.97204 -2.75286 10.8285 20
241 1 11.5554 10.2569 -8.27498 11
242 1 1.10955 -9.72124 -0.242471 20
243 1 -6.45744 -0.580307 -9.66683 11
244 1 -2.33914 -15.9455 8.3597 9
245 1 13.196 0.337455 -4.82992 17
246 1 -8.06594 0.983939 8.04196 19
247 1 2.27109 -15.8856 -1.53443 12
248 1 -12.1424 -6.5165 -8.07218 15
249 1 3.89007 14.7322 -2.3524 18
250 1 -0.438314 -1.71316 -13.1945 21
251 1 4.31555 4.3036 16.5375 21
252 1 17.9328 6.07645 0.68281 9
253 1 10.5281 -3.59751 -8.06741 16
254 1 -9.10846 -5.53621 -8.21401 17
255 1 -12.926 -0.702191 -9.13081 19
256 1 -7.72556 -11.9899 9.91098 14
257 1 12.5071 2.99593 14.6896 9
258 1 3.58389 -2.58964 7.98937 23
259 1 -6.67901 -10.9275 -10.0066 14
260 1 0.649703 -7.95599 8.50236 21
261 1 -0.400449 7.83434 -10.8103 18
262 1 3.91119 8.8967 3.22791 23
263 1 -8.47051 -4.81301 2.60623 22
264 1 -1.62474 13.5427 7.53585 20
265 1 -7.52618 -2.42096 11.5318 19
266 1 -14.6515 -5.38545 -7.18471 11
267 1 -7.19693 -6.1755 -9.85594 19
268 1 -1.459 7.19849 -14.5797 14
269 1 -5.42679 -10.9705 -5.40371 16
270 1 -3.48131 -8.29878 2.60082 17
271 1 6.25041 -3.09048 -10.6502 22
272 1 15.2802 2.65973 -7.75989 12
273 1 14.8617 8.04457 5.38276 15
274 1 -8.86518 -5.25538 11.2278 21
275 1 -8.81969 -10.1564 3.38517 22
276 1 7.23778 7.67639 20.4564 12
277 1 -7.00512 -13.3596 1.80534 21
278 1 -2.48936 -11.8085 2.60418 22
279 1 0.487994 16.6863 0.367272 13
280 1 8.0064 -0.104974 -15.2987 12
281 1 -6.21119 -3.54399 -13.159 15
282 1 -13.4243 -6.26903 13.7161 12
283 1 2.12992 6.62828 18.6878 19
284 1 2.5305 -12.5005 -0.590468 17
285 1 -4.08319 -12.2445 -10.4399 15
286 1 -9.55593 6.12212 -5.35301 16
287 1 13.3988 10.1946 7.81742 18
288 1 -6.37065 7.47962 -7.4167 18
289 1 0.842549 5.72455 -9.55663 15
290 1 6.61246 -13.1632 -8.81713 10
291 1 -6.44388 15.8173 -2.48887 16
292 1 2.21435 11.709 3.5111 20
293 1 12.5388 2.12661 5.9952 16
294 1 -11.317 -2.86814 4.74546 16
295 1 -3.42448 -4.88316 9.93068 19
296 1 -7.71737 8.86034 5.27483 23
297 1 3.72338 -4.65046 -9.77529 20
298 1 14.3986 13.6506 0.418452 16
299 1 3.9188 -13.2884 2.67451 15
300 1 -2.19078 -4.51593 13.2447 17
301 1 -17.6748 -2.85288 5.71726 22
302 1 -4.05631 -16.6394 -1.76045 14
303 1 -6.57856 6.87446 15.0675 16
304 1 -9.76053 3.22483 18.6061 9
305 1 -18.7699 2.62691 8.93324 9
306 1 -16.7919 -5.56384 8.11484 14
307 1 11.3559 -1.80776 2.20139 17
308 1 -12.0563 -7.08782 10.31 20
309 1 10.8569 -0.757404 -4.90376 16
310 1 11.0977 -11.2595 -4.92501 6
311 1 2.91438 16.3239 -4.9323 14
312 1 -13.876 14.6194 -1.57153 12
313 1 7.79164 8.29484 14.1693 19
314 1 -11.4261 1.23173 2.67549 20
315 1 8.65158 -10.4714 -4.3437 14
316 1 -4.25223 12.0366 2.27589 16
317 1 -7.7418 6.74755 8.19683 21
318 1 4.10047 -8.30941 8.03897 16
319 1 11.9725 -4.08954 4.56275 13
320 1 -3.53903 9.22441 8.9838 22
321 1 -10.3582 -5.50145 -0.521739 16
322 1 -5.0933 1.31949 16.0916 16
323 1 -2.61904 13.7453 4.87813 20
324 1 9.33291 10.5333 19.4716 7
325 1 -9.86119 12.9976 -2.60747 22
326 1 2.29134 -3.4975 -14.6265 15
327 1 5.50508 -10.4711 -11.1121 11
328 1 -7.72483 1.06072 13.7633 15
329 1 -14.2996 2.89379 4.98312 18
330 1 -7.78742 -2.59197 -7.21832 17
331 1 -5.97492 9.511 2.83488 21
332 1 8.4649 -1.04019 9.36633 21
333 1 -16.2793 -5.81448 3.90179 17
334 1 6.85435 -7.53333 7.12636 13
335 1 -13.8359 -9.49257 12.5215 9
336 1 -11.9831 14.2251 6.90518 9
337 1 2.47493 -3.35131 10.4661 20
338 1 0.934022 -11.5121 -7.43849 20
339 1 -3.94432 0.777471 -7.71989 21
340 1 10.0687 -1.31102 -12.1838 12
341 1 2.7142 17.8002 3.60456 15
342 1 -11.193 0.600346 -3.14753 17
343 1 5.26634 -6.43591 -6.95603 19
344 1 9.73325 4.24447 -8.42043 21
345 1 -6.52738 -14.6626 -1.26934 18
346 1 -14.3129 -2.35286 -7.25519 18
347 1 -8.4647 -8.52636 0.285344 21
348 1 9.08363 7.59425 17.9792 16
349 1 9.73461 6.4138 -2.33133 19
350 1 -8.14577 5.58432 -8.84505 21
351 1 3.47408 18.5466 0.281763 10
352 1 -16.7235 0.146038 -5.63746 13
353 1 -11.4014 7.29923 7.7258 19
354 1 -7.67982 11.4636 1.58595 18
355 1 -6.19438 3.82182 8.6391 23
356 1 7.56052 5.54148 15.856 21
357 1 8.80748 4.10364 -4.57789 18
358 1 4.80921 -0.68314 16.791 15
359 1 12.079 3.19459 -5.79455 21
360 1 -9.46436 -15.7114 -3.13123 12
361 1 -0.177307 -7.77855 -2.67943 19
362 1 0.561751 9.33489 2.93303 19
363 1 -10.6818 3.34891 -4.56871 21
364 1 4.37586 -10.2543 -0.445262 20
365 1 11.8228 0.623309 8.81691 12
366 1 -13.1749 -3.89365 -3.98186 17
367 1 -10.2831 -7.63616 2.46382 22
368 1 -10.9595 -7.21331 12.9879 14
369 1 -2.63852 11.3489 -0.00618327 20
370 1 -15.4476 -8.2634 -2.11524 8
371 1 6.10125 9.48345 16.7955 18
372 1 -11.516 6.30561 -2.72722 23
373 1 -0.716188 13.1235 -8.17952 21
374 1 5.15917 12.439 7.84107 17
375 1 -15.9647 -5.52867 -3.02503 14
376 1 -0.729252 -8.35417 -7.77213 18
377 1 -14.5631 0.750352 7.62794 16
378 1 -16.8877 8.1338 -1.44288 12
379 1 3.26962 -7.16321 3.87436 18
380 1 -6.78023 -11.3598 -1.36637 19
381 1 11.1767 15.1954 7.51952 12
382 1 6.48191 10.3798 -10.5084 13
383 1 -12.6409 3.7489 -11.5536 12
384 1 -2.56487 15.5437 -7.18277 15
385 1 -7.88217 8.83207 -5.27298 19
386 1 -3.84029 -11.817 5.79008 23
387 1 13.8348 5.89829 7.24103 16
388 1 1.64026 8.13489 -15.5779 9
389 1 -4.03196 2.58684 10.3134 18
390 1 -16.0134 4.02812 2.46229 19
391 1 -7.99074 3.00958 11.2915 16
392 1 -6.94411 -10.177 7.25648 20
393 1 2.27457 -5.50605 -7.65558 21
394 1 -11.3942 3.08717 5.23253 21
395 1 -15.6841 -2.82684 10.5967 17
396 1 -14.7832 7.05127 7.47843 11
397 1 -1.29552 -5.15237 7.58943 21
398 1 -7.62345 2.55078 -13.5971 14
399 1 7.11625 -6.44395 -4.31611 19
400 1 -1.72474 -8.76869 -11.9145 20
401 1 -4.72506 -2.39184 10.6845 18
402 1 -5.07078 2.66598 -12.4982 17
403 1 5.48083 -16.3389 7.11064 5
404 1 2.42557 10.4048 -4.5269 19
405 1 -14.0127 9.71906 9.49388 12
406 1 -8.44422 -3.82563 13.8128 13
407 1 -14.3549 -6.12592 -10.5881 10
408 1 -9.70651 -2.80988 8.83062 19
409 1 8.35065 -4.89325 9.54884 13
410 1 1.0078 3.11379 -7.03838 22
411 1 8.49491 -8.75716 5.12197 13
412 1 13.7653 10.8124 -5.04032 14
413 1 -5.81557 -1.89252 17.1088 11
414 1 0.671344 14.2799 2.69196 19
415 1 7.03908 -3.10733 7.5852 18
416 1 -3.98414 -13.1037 -3.28765 21
417 1 -2.2624 2.96447 16.7006 15
418 1 -5.12124 14.3325 6.55183 17
419 1 -8.40567 -11.3584 -7.46457 13
420 1 9.48369 16.2749 3.39503 16
421 1 3.57949 8.69058 8.82784 20
422 1 -8.60635 4.58369 14.0512 19
423 1 -7.88418 -6.63049 -2.76307 18
424 1 -10.9023 2.68274 10.3621 17
425 1 -10.2357 -5.87535 -5.26236 19
426 1 -6.16112 9.79937 7.32702 21
427 1 -2.41435 -7.74429 -5.38085 18
428 1 -3.79083 -8.35213 -13.759 15
429 1 -5.24869 -16.3524 1.1962 16
430 1 -8.3387 -3.03789 5.52124 20
431 1 9.22669 1.80888 5.18574 19
432 1 -5.23176 -5.03127 12.8798 17
433 1 -6.78482 8.38211 -10.1982 17
434 1 7.64607 5.38867 0.693322 21
435 1 -8.51465 -11.7038 0.715194 20
436 1 3.21137 15.925 1.20539 18
437 1 -2.59704 5.88046 -11.7165 16
438 1 -2.69315 7.58721 11.187 16
439 1 -16.7064 -0.802935 -2.18173 16
440 1 1.0273 17.6449 -2.40299 11
441 1 6.91838 13.691 -5.47159 16
442 1 -5.78938 -4.79013 -7.59673 21
443 1 3.07103 1.64322 18.0939 12
444 1 0.534653 -15.0668 -6.95625 12
445 1 -1.44137 -1.89941 -9.77316 17
446 1 7.32442 -13.2775 2.46674 10
447 1 -12.1482 10.1008 2.13083 19
448 1 4.82756 7.26007 14.3076 22
449 1 8.966 8.47391 1.40248 18
450 1 3.62849 11.0896 0.58584 21
451 1 -11.8217 9.69231 -4.09272 18
452 1 5.29104 1.32167 -12.2688 19
453 1 0.319772 -8.17118 2.5772 20
454 1 -16.0164 -1.04721 0.722451 21
455 1 4.61168 19.3323 6.39242 8
456 1 -5.98869 5.34522 -11.0089 20
457 1 11.7098 10.0238 -0.469637 15
458 1 6.23776 16.9888 -5.0317 9
459 1 7.77053 -5.59095 0.585231 23
460 1 15.5944 7.67461 -3.82121 10
461 1 -2.44759 0.325098 -10.9951 19
462 1 -1.12614 -12.278 -0.198991 15
463 1 -2.87388 -13.0575 8.7887 15
464 1 2.28823 -6.27533 11.0936 15
465 1 -9.59152 2.40696 -7.59268 18
466 1 -13.0831 -10.0288 9.61643 13
467 1 -1.54666 -10.4148 -9.81349 19
468 1 7.79231 16.2388 8.60959 15
469 1 -3.97908 6.64885 -8.86806 20
470 1 4.66098 1.47224 13.7028 20
471 1 -12.2552 4.53869 12.9369 12
472 1 -2.77469 -17.2501 3.15036 14
473 1 -12.8503 -1.82538 2.37436 26
474 1 12.0998 0.71155 -1.75526 20
475 1 9.26688 1.12924 -3.87051 20
476 1 -9.43594 9.35997 -2.687 19
477 1 0.267881 -5.78774 -4.98185 19
478 1 4.00077 5.74684 -8.95913 21
479 1 9.27296 -0.0203702 -1.43163 16
480 1 -8.77028 -1.84003 16.4378 11
481 1 11.2058 12.5931 -0.415993 18
482 1 -2.635 -1.91362 -15.9856 12
483 1 8.22809 3.56884 -16.0113 10
484 1 -7.12884 -1.72568 8.396 17
485 1 -10.924 15.2252 0.30033 13
486 1 -9.59491 -4.45696 -12.2162 15
487 1 -19.6032 1.5614 3.34746 8
488 1 -2.47679 -10.9721 -14.2436 13
489 1 -8.33613 -10.3581 12.3228 9
490 1 -0.263372 8.4769 -4.85403 20
491 1 15.3636 5.5983 10.4071 9
492 1 17.6258 9.63659 0.302548 8
493 1 -11.9182 -10.2701 1.95676 13
494 1 -1.74603 -9.28038 0.444992 22
495 1 -0.80467 -4.25308 -15.8534 12
496 1 -9.88195 11.2652 14.366 14
497 1 1.05032 -2.1485 -7.14148 21
498 1 10.4194 0.909317 1.9175 18
499 1 3.85972 16.575 -7.80692 9
500 1 4.9489 -7.63007 1.11881 18
501 1 12.8281 8.72964 -6.26387 16
502 1 0.373346 11.9091 15.8203 13
503 1 -12.9984 -1.9018 8.5099 18
504 1 6.55461 9.41845 8.25052 21
505 1 6.54983 2.06203 17.1771 15
506 1 5.04715 1.56808 -15.2191 17
507 1 -5.72524 -6.52854 -5.11227 18
508 1 -1.14899 1.28486 11.9857 19
509 1 7.45102 13.051 8.30804 20
510 1 5.72287 9.05291 -4.62995 21
511 1 -8.70052 11.861 -5.11103 22
512 1 2.84556 11.4629 -2.12775 22
513 1 10.4619 0.231245 12.9119 13
514 1 13.3004 4.31309 -10.2979 8
515 1 13.2858 -7.46908 -2.91512 10
516 1 9.47189 11.2677 13.076 14
517 1 -19.2119 -5.25448 4.46585 11
518 1 -8.30453 10.7802 -8.23975 17
519 1 -0.745341 4.58396 10.6407 20
520 1 -15.1206 0.151571 11.6995 12
521 1 -5.78249 11.1809 -5.89276 21
522 1 -0.866425 -13.0755 -4.60205 17
523 1 6.40685 0.172514 -7.13249 17
524 1 -4.0812 14.7615 -4.16923 18
525 1 -10.9601 -7.54476 -11.8011 9
526 1 -2.23407 -14.6993 0.508732 20
527 1 -18.1424 -0.654359 2.42996 18
528 1 3.70666 8.92367 -12.8407 12
529 1 -2.53847 11.7193 14.5579 15
530 1 -19.4296 -3.46727 7.85549 10
531 1 5.96613 8.47992 0.724474 20
532 1 0.391767 -9.25954 -5.12247 18
533 1 4.14071 -4.67634 12.4725 15
534 1 -11.2276 6.86757 3.02034 19
535 1 4.69445 5.78437 20.8828 10
536 1 4.10922 12.8756 -4.83455 17
537 1 13.3975 -2.0057 -0.224424 14
538 1 4.87249 11.6947 10.7107 22
539 1 5.28823 4.28494 -17.5403 9
540 1 -4.73975 -10.3127 9.08371 20
541 1 -0.709373 0.235447 -7.38385 21
542 1 8.35391 2.37594 -13.3235 18
543 1 1.59429 13.752 6.29682 20
544 1 8.69169 6.9478 -8.47476 19
545 1 -2.74196 -3.21425 -12.3516 20
546 1 -5.16351 -8.72461 -0.222527 20
547 1 -12.1995 -4.51741 -12.0913 11
548 1 10.6839 5.24224 1.51152 19
549 1 12.6588 6.05215 -0.479642 19
550 1 7.47843 -3.8145 -7.8994 20
551 1 12.4397 10.1519 13.7264 12
552 1 5.84221 -9.46144 -3.13312 18
553 1 3.87962 6.44775 -15.1363 13
554 1 7.73448 14.5748 5.41621 17
555 1 -9.47324 4.06841 2.96087 22
556 1 8.92863 11.2188 15.5992 13
557 1 13.0476 8.26835 -2.55325 19
558 1 11.3038 3.38373 3.56509 20
559 1 10.4371 6.40656 -5.81193 21
560 1 3.57175 4.12481 13.493 17
561 1 11.7084 7.75141 7.42181 17
562 1 5.31389 -7.89448 11.2751 8
563 1 13.5518 17.1435 0.0536434 8
564 1 -0.31074 0.153234 16.5504 15
565 1 17.291 0.793478 -5.78353 10
566 1 8.51639 4.96125 9.36947 16
567 1 -7.23762 1.13559 -7.14822 22
568 1 12.6426 8.0721 1.94542 20
569 1 11.9713 -0.350885 4.93422 17
570 1 -9.93366 5.90139 16.1711 13
571 1 8.04252 11.1475 10.8337 18
572 1 9.89987 5.22991 12.8271 19
573 1 3.85054 10.1043 5.71652 23
574 1 -3.85257 10.5172 11.7101 20
575 1 7.64776 2.37098 7.31603 19
576 1 -2.85899 -18.3153 6.07124 9
577 1 -7.93815 14.0467 -0.53579 19
578 1 11.2435 16.5191 -2.33905 9
579 1 7.37302 -0.261091 -12.0984 22
580 1 -1.41343 15.0659 -2.52561 16
581 1 -2.22703 -11.5538 -6.04748 17
582 1 9.17862 -4.54711 -10.6788 13
583 1 -12.6968 4.10772 7.85119 17
584 1 -4.87322 10.3563 -8.70068 21
585 1 -5.58054 -18.1763 4.21475 13
586 1 -6.90904 2.30729 -9.78467 19
587 1 -16.4825 2.33194 -2.33236 16
588 1 11.4308 -7.12181 4.44966 12
589 1 13.3711 11.0261 4.91334 16
590 1 -1.3783 -2.69786 10.7969 20
591 1 -15.5937 0.381213 -8.17359 14
592 1 2.35236 1.84086 -16.8797 11
593 1 -2.03866 3.66958 13.923 17
594 1 8.84377 7.81941 -11.5649 12
595 1 12.1539 2.55388 11.3173 13
596 1 5.2218 8.2007 -7.87024 18
597 1 13.3922 13.7936 6.04019 16
598 1 3.57199 -13.8999 -7.02431 15
599 1 -14.1627 -1.89313 13.7945 12
600 1 14.1162 1.24848 3.03033 17
601 1 -1.28425 14.0401 13.9189 12
602 1 5.1224 12.7556 -8.2759 17
603 1 -14.8223 7.62537 -4.20826 17
604 1 9.00139 12.1274 3.86367 15
605 1 -11.6228 -16.2277 1.71301 9
606 1 14.1158 -1.89884 2.81213 15
607 1 7.89455 18.1751 5.8083 9
608 1 -3.79904 6.12624 14.9448 16
609 1 -11.3549 -4.88031 2.3058 21
610 1 -11.4425 -2.40735 -6.16665 18
611 1 7.02686 5.83373 12.334 21
612 1 -5.19532 -8.18422 11.7245 12
613 1 6.37419 8.54781 11.4939 21
614 1 -5.9204 11.7865 -0.760341 18
615 1 8.63655 7.6427 6.37684 19
616 1 7.44451 4.99427 5.97879 23
617 1 3.50601 3.33519 -14.4236 19
618 1 -11.2559 0.727807 8.12212 19
619 1 10.8668 4.67999 -11.6737 12
620 1 9.75142 -9.09371 -7.31587 11
621 1 9.8788 8.17324 12.4733 17
622 1 5.90312 6.26712 9.03151 16
623 1 -9.33696 1.47426 16.0195 15
624 1 14.0334 8.32454 11.0744 16
625 1 -0.440538 -1.65244 13.9789 17
626 1 0.945378 5.52472 13.4153 22
627 1 0.365297 -5.24725 -13.1668 19
628 1 -5.52823 3.46448 13.913 23
629 1 5.69117 3.23554 10.9379 18
630 1 -9.79376 -13.568 8.28734 12
631 1 15.011 10.7821 1.76144 19
632 1 2.42855 -11.2503 -3.36754 18
633 1 4.45497 8.64115 -1.89522 21
634 1 12.228 12.5729 8.42477 17
635 1 5.42357 -1.79181 -14.3468 17
636 1 5.66163 14.2056 1.36547 15
637 1 17.1794 12.2788 2.70113 13
638 1 -10.3019 -12.8738 -2.46098 16
639 1 0.463759 -1.10128 -16.8768 11
640 1 -9.02604 9.68631 2.85596 20
641 1 8.92568 -0.866902 -9.53217 20
642 1 11.118 10.6758 -3.28499 19
643 1 9.84692 16.1831 0.155503 14
644 1 -8.01239 7.02429 3.02846 24
645 1 6.38719 6.48651 -1.952 22
646 1 11.2664 5.184 16.2777 13
647 1 6.95384 3.47214 13.7576 19
648 1 -1.03586 -10.1304 10.2626 14
649 1 -6.77612 11.5007 -11.0338 6
650 1 2.48665 15.7738 11.3094 15
651 1 6.45354 -6.76715 -10.8728 16
652 1 1.69757 3.07861 11.9667 17
653 1 7.35717 15.134 -2.45148 15
654 1 5.52141 11.9168 3.14111 20
655 1 14.2072 -4.09926 -2.49014 14
656 1 3.83723 9.07067 19.6231 11
657 1 -12.7751 -0.236641 5.4027 21
658 1 1.72536 -14.8906 1.61879 16
659 1 1.51603 -0.111966 -9.96522 20
660 1 -9.2823 11.9844 5.71625 17
661 1 3.67559 15.107 4.19842 17
662 1 -20.6712 -2.20022 4.59773 10
663 1 -4.54816 4.79737 17.6406 10
664 1 -4.86613 7.41304 -13.6781 11
665 1 -9.72706 8.03007 -8.38791 16
666 1 -0.413532 -16.7668 0.4236 9
667 1 9.20096 8.95812 -4.80899 16
668 1 -12.0559 3.45743 15.5501 10
669 1 2.0816 -0.104084 -14.777 18
670 1 0.32564 -12.4802 10.0557 10
671 1 1.84173 14.0608 -0.505349 19
672 1 -4.06304 -3.90032 16.3176 10
673 1 -9.8455 -8.23095 -9.29384 14
674 1 -5.68832 -11.0225 -12.973 11
675 1 -5.98363 -13.2289 -7.32135 13
676 1 -0.655586 17.0109 -4.84121 11
677 1 6.00637 -3.4196 -5.31533 19
678 1 -2.81352 13.2612 10.9829 22
679 1 3.60922 -6.12337 -4.62919 17
680 1 5.09764 -14.5048 -0.436 16
681 1 2.01283 -5.20731 7.59453 17
682 1 15.9088 3.19236 -4.77463 18
683 1 -1.45422 -14.921 -2.62259 15
684 1 -16.1793 -2.3881 7.98433 17
685 1 -9.23276 -14.7957 0.0183368 18
686 1 -9.28751 -10.0958 -2.15087 16
687 1 -12.6801 -0.276791 11.8041 17
688 1 -8.11018 -16.7536 2.70855 13
689 1 14.7403 8.7137 -0.486035 21
690 1 0.25264 16.3451 5.0451 18
691 1 -12.9635 13.1342 9.80444 9
692 1 9.4633 -1.51078 4.36818 17
693 1 -14.2936 -2.42913 -10.9809 14
694 1 -0.722971 11.9016 -2.41732 19
695 1 13.3133 1.22194 -8.63013 18
696 1 6.22453 14.8024 10.7085 18
697 1 6.88075 6.75391 -5.40157 20
698 1 -15.62 2.92035 -5.25545 19
699 1 -14.4821 -3.19883 -1.26894 18
700 1 -1.55516 6.03871 18.9752 10
701 1 6.89135 10.8251 -6.68465 19
702 1 15.442 14.5096 8.35818 12
703 1 -3.23193 -0.349632 10.7526 18
704 1 -7.09925 -17.4199 -1.72252 11
705 1 -7.85365 -16.3274 6.33329 13
706 1 -4.71674 -5.31635 7.36192 19
707 1 13.9062 11.6963 10.6263 12
708 1 3.81282 -9.61825 -5.96082 16
709 1 -7.58964 8.58921 -0.127114 22
710 1 7.20238 8.7099 4.02392 23
711 1 -9.8026 -1.85617 2.69766 23
712 1 9.42726 9.76258 -9.40997 14
713 1 -6.22197 -15.5158 -4.65927 15
714 1 2.98272 -15.6077 4.73079 13
715 1 -2.47087 -14.8748 5.94202 17
716 1 4.42397 3.1278 -6.75213 20
717 1 8.66335 14.1527 1.7899 18
718 1 -5.61116 -0.33568 -15.5693 8
719 1 0.922724 2.92363 15.5499 19
720 1 0.150797 4.98425 -13.4956 18
721 1 -10.4519 -1.55032 -11.4008 18
722 1 -12.5165 -7.26148 -0.0698848 14
723 1 1.11357 13.612 -4.72148 20
724 1 -3.8344 -5.00648 -14.9286 11
725 1 -12.3202 -10.8496 -0.906574 10
726 1 9.89573 12.1046 -6.34376 17
727 1 11.41 -6.30848 0.479812 15
728 1 -3.67914 4.65688 11.6354 18
729 1 3.10056 -9.67958 2.7667 21
730 1 16.1137 -2.81575 0.684852 11
731 1 8.94828 -2.16327 12.2158 15
732 1 -0.21484 11.316 6.13992 24
733 1 -14.5579 1.90393 13.8286 9
734 1 -11.0317 8.13194 13.7502 12
735 1 -7.79821 -15.7846 9.7415 9
736 1 8.96389 6.50966 3.57596 22
737 1 3.23407 12.0514 14.5878 15
738 1 -17.7242 1.80294 0.27883 15
739 1 9.76842 -6.0118 -2.21909 16
740 1 -15.0524 10.3441 -3.6199 13
741 1 -5.72619 -13.8015 8.22607 17
742 1 7.57504 0.0791688 14.9756 15
743 1 -1.07611 11.1451 9.30696 19
744 1 -0.487578 -11.5822 4.82304 20
745 1 -9.91998 -3.59172 -2.84999 17
746 1 3.5521 6.63643 11.5412 18
747 1 -17.044 -3.7636 0.450026 16
748 1 -1.35007 8.51749 15.2382 13
749 1 6.33512 16.6295 3.10491 18
750 1 -14.9554 -8.98095 3.49664 12
751 1 -6.23372 -14.9917 4.96673 19
752 1 7.33033 -5.22895 17.0101 4
753 1 9.07328 -5.47916 6.42433 14
754 1 6.96173 10.621 6.09232 18
755 1 -2.96369 -5.28607 -5.4361 24
756 1 -3.88813 3.09182 -9.98957 19
757 1 -4.53638 -2.60196 13.6411 15
758 1 -2.31502 16.0227 2.75662 14
759 1 12.3209 6.47436 4.24345 20
760 1 3.09158 7.63317 -5.9075 17
761 1 -5.38668 9.36936 13.6729 17
762 1 6.08929 11.0743 13.5574 18
763 1 7.8358 2.12849 -9.55147 21
764 1 -10.7623 -13.1193 2.83988 18
765 1 15.8011 3.50003 1.11962 14
766 1 3.10475 0.333521 -7.0202 21
767 1 1.5422 8.93475 14.2251 18
768 1 5.43719 -11.8956 -4.60237 17
769 1 7.4907 6.49177 -14.6779 10
770 1 -4.02782 -7.25862 -2.99201 16
771 1 11.8928 7.11834 -9.0108 15
772 1 15.2039 -0.910496 -2.4719 16
773 1 0.970253 -4.91789 13.657 12
774 1 -4.74773 -8.61961 -10.9163 21
775 1 6.98872 11.2564 0.609941 17
776 1 -16.3985 6.41544 4.55438 14
777 1 12.968 5.58218 -3.54142 21
778 1 17.7853 9.23891 5.87337 7
779 1 3.39214 -8.16194 -8.88629 20
780 1 -7.40051 12.6064 7.54388 18
781 1 13.5765 17.8272 6.40149 5
782 1 10.7284 14.7552 -4.42885 13
783 1 5.49121 3.58054 -9.78073 17
784 1 10.0061 -3.68188 0.137005 15
785 1 -13.0931 4.05212 2.34823 22
786 1 10.5824 9.56845 3.4993 16
787 1 -19.3515 -4.91198 -1.28742 5
788 1 -12.6058 7.42571 -5.81123 17
789 1 3.91388 2.65449 8.5689 17
790 1 -12.4138 0.701987 -6.38589 20
791 1 -13.5537 5.62312 4.5326 20
792 1 -5.87606 5.99628 -5.13708 20
793 1 10.7184 -6.98793 -4.97323 15
794 1 -13.5191 -7.40218 -4.95193 12
795 1 14.8521 -6.12276 -0.101527 9
796 1 -14.0998 7.20512 1.76802 21
797 1 -10.6902 -7.94514 -2.97613 16
798 1 15.9112 11.8907 8.86066 11
799 1 -6.51664 -11.9029 4.60559 18
800 1 9.98865 5.23358 19.4974 9
801 1 11.0901 -2.49152 10.4507 10
802 1 10.4858 -1.21703 7.13052 15
803 1 -14.6171 8.8824 4.14835 18
804 1 0.292005 13.9155 10.3613 19
805 1 2.61742 11.5401 -7.59745 16
806 1 -1.06837 -7.24817 -14.2431 16
807 1 -6.05019 11.7003 5.11189 18
808 1 -13.2652 -6.14579 5.15299 20
809 1 7.64575 9.27016 -2.05812 20
810 1 -1.00616 10.0232 12.3659 17
811 1 17.1614 2.17098 -2.65671 11
812 1 4.82518 -5.23239 9.24087 22
813 1 -4.21536 13.2679 -6.95125 21
814 1 1.57335 8.42225 -7.76132 18
815 1 -4.70377 0.544439 12.6214 14
816 1 16.0307 9.02349 9.19854 11
817 1 -4.03939 -4.41405 -9.86667 19
818 1 14.5044 13.6264 3.12155 16
819 1 -16.7968 5.2361 2.68772e-05 15
820 1 -6.23017 -7.5623 8.57779 19
821 1 0.91455 10.6567 -10.4848 16
822 1 6.54247 -3.00622 14.26 14
823 1 -3.88742 -12.2062 -0.0320539 18
824 1 -8.14092 15.0935 2.00038 14
825 1 -19.5249 6.79497 4.79794 5
826 1 15.2237 -2.05087 -4.89782 12
827 1 0.0102486 -12.1694 -12.623 15
828 1 -11.3407 8.71291 5.2338 21
829 1 13.6176 14.0403 -3.19375 12
830 1 -10.0454 0.251291 5.23696 19
831 1 8.22058 -3.10111 -13.6529 13
832 1 -7.26463 -8.35406 -7.39146 20
833 1 -2.21612 -10.5089 -2.81064 18
834 1 -4.60956 12.7992 13.3692 19
835 1 8.20196 -14.1175 -1.01304 9
836 1 -4.03145 13.3041 -10.0553 12
837 1 14.4525 2.82526 -2.208 21
838 1 5.65289 6.38972 3.08937 22
839 1 -0.980209 -14.12 3.48577 18
840 1 3.83875 -1.97822 -12.1266 18
841 1 13.0755 3.45675 0.466344 22
842 1 -3.01855 4.85559 -14.7301 14
843 1 -2.99344 -7.43882 9.14011 17
844 1 8.76275 12.2881 -2.78556 18
845 1 6.71385 4.95325 -7.07675 22
846 1 -9.34001 4.15476 -2.17335 20
847 1 -13.9781 3.78081 10.3147 13
848 1 1.53058 4.25522 19.1973 12
849 1 -8.53335 -5.91029 8.06551 19
850 1 5.18281 7.66624 6.41041 23
851 1 0.274841 -13.9644 6.91722 17
852 1 0.348013 9.18791 -2.12094 22
853 1 -6.42957 8.31447 9.99791 20
854 1 -9.729 0.0595226 11.2571 17
855 1 -11.0498 11.325 8.02899 19
856 1 7.63649 3.61731 -1.99207 21
857 1 -8.02349 -7.48885 13.2662 13
858 1 1.46669 -9.20712 5.69293 20
859 1 11.5619 9.55484 10.4719 20
860 1 7.67546 -1.48092 -3.70509 19
861 1 4.14177 -11.2499 -8.50624 17
862 1 -9.77962 2.43913 -10.4534 19
863 1 -3.48525 1.41081 -14.5626 12
864 1 5.4824 17.362 12.0774 9
865 1 -13.5291 -3.8911 11.6747 18
866 1 -7.63779 6.69704 -2.60471 24
867 1 -13.1013 2.66677 -3.06876 22
868 1 12.467 15.3302 2.00583 17
869 1 -8.68769 -14.0224 5.01425 18
870 1 -1.49627 8.52118 5.03443 20
871 1 10.881 13.8288 3.97317 17
872 1 -10.7383 -8.83539 -6.38364 16
873 1 3.01513 14.5627 9.09842 20
874 1 -10.4015 -1.41134 14.4212 15