ITEM: TIMESTEP
417000
ITEM: NUMBER OF ATOMS
500
ITEM: BOX BOUNDS pp pp pp
-30.0 30.0
-30.0 30.0
-30.0 30.0
ITEM: ATOMS id type x y z Coordination
1 1 -3.22135 -5.79789 -5.81566 20
2 1 -3.17486 -6.72784 -1.43984 15
3 1 -10.8823 -6.21346 2.31559 9
4 1 -4.40214 -0.104405 -10.6994 12
5 1 -8.15929 -5.65468 -4.51467 13
6 1 -4.10993 -0.397796 -7.56239 21
7 1 -9.79471 -2.8955 -3.35111 14
8 1 -4.82663 -7.86844 -3.43378 14
9 1 -9.64542 -5.69808 -0.927296 13
10 1 -6.55342 -1.09179 -2.50344 20
11 1 -6.08089 2.74026 -0.163145 15
12 1 -7.62479 -3.72423 -1.41615 20
13 1 -7.91961 -8.1781 -2.78668 9
14 1 0.377026 -4.38941 -10.4281 11
15 1 -6.15321 -7.61566 -6.03636 9
16 1 3.69058 -5.64577 -9.84768 6
17 1 -5.24699 -2.95163 -10.3494 11
18 1 -0.535872 -6.88361 -3.0708 16
19 1 -2.64506 -8.47593 -5.10334 7
20 1 3.24623 -5.06921 -4.8734 16
21 1 -6.05251 -5.09255 -7.52702 12
22 1 -1.89924 -0.68224 -9.22667 21
23 1 -6.22602 1.70798 -7.53468 13
24 1 -1.52238 -3.29681 -7.5249 20
25 1 0.230505 -5.71783 -6.70464 15
26 1 -0.969186 -0.548112 -6.02309 20
27 1 -3.13281 -0.836417 -4.27017 19
28 1 -1.32095 -3.27202 -4.25752 22
29 1 -4.33591 -4.01402 -2.86778 19
30 1 -0.0581188 -0.967407 -2.62419 23
31 1 -3.19296 -1.12146 -0.863199 21
32 1 -1.5184 -4.22098 -1.17209 21
33 2 3.77982 -6.90768 -3.92118 12
34 2 -2.7376 -7.32662 -3.45521 15
35 2 -6.86531 -5.8457 -5.99224 14
36 2 -6.47117 -3.67179 -2.96619 18
37 2 -1.57342 -6.40107 -6.03465 15
38 2 -9.90382 -1.94797 0.997605 15
39 2 -2.31222 7.02783 -9.91294 11
40 2 -8.59849 -3.89003 -4.33922 13
41 2 -6.10895 -4.28242 -9.32841 10
42 2 -6.05489 -8.06349 -1.88178 12
43 2 -7.39226 -1.62216 -0.952998 18
44 2 -1.08947 -4.63969 -8.88287 13
45 2 -7.20961 -7.59981 -4.44335 9
46 2 6.80819 -7.43854 -1.7807 12
47 2 -3.54862 -4.27706 -7.25003 18
48 2 -10.9032 -6.64424 0.211781 7
49 2 1.0141 -7.92824 -2.88905 14
50 2 -4.47719 -8.13256 -5.2463 9
51 2 -1.27621 -6.91279 -1.25671 15
52 2 1.66387 1.7688 -8.5664 20
53 2 -6.90782 0.0503647 -6.90736 11
54 2 -2.90175 -1.15499 -11.0479 14
55 2 -3.58819 -3.70027 -10.3695 12
56 2 -2.50936 0.866748 -8.02311 20
57 2 -6.76158 -1.0579 -4.25061 17
58 2 -0.165494 -3.74841 -6.18645 20
59 2 -3.46766 -3.85267 -4.48791 19
60 2 -1.30876 -1.29578 -4.31767 23
61 2 -4.56579 -1.04838 -2.30531 17
62 2 -0.393464 -4.73147 -3.06495 22
63 2 -3.66895 -4.78519 -1.05136 17
64 2 -1.4269 -1.87036 -1.13187 23
65 1 -9.62727 -0.86982 -0.788005 15
66 1 -6.76429 -6.59451 -0.306013 16
67 1 -6.61452 -8.00926 3.04429 10
68 1 -5.79085 -6.85251 5.98765 12
69 1 -10.8792 -3.34361 0.661676 12
70 1 -6.14299 -0.843113 0.482243 19
71 1 -9.52197 -0.483997 2.58365 13
72 1 -7.89752 -4.35751 1.89895 21
73 1 -8.92835 -6.51026 5.03619 11
74 1 -6.09149 -2.10053 3.75237 20
75 1 -9.80844 -3.45791 3.49923 15
76 1 -8.52776 -0.81376 5.47312 15
77 1 -5.31387 -1.32958 6.62304 18
78 1 -7.41719 -3.93108 5.74 16
79 1 -0.75322 -8.44918 -0.124831 11
80 1 -3.59627 -7.54166 1.86076 15
81 1 -5.54995 -9.01003 -0.190848 10
82 1 -0.415882 -8.93469 3.53653 13
83 1 1.56182 -6.50936 3.39803 18
84 1 -3.38563 -8.17865 4.92877 11
85 1 -0.282303 -8.60836 6.66896 13
86 1 -2.80429 -6.83661 8.01925 13
87 1 -3.82565 -3.83423 0.558544 17
88 1 -0.356447 -1.53214 0.410559 19
89 1 -3.33199 -1.15029 2.16818 20
90 1 -1.23027 -4.18559 2.1187 17
91 1 -4.50675 -4.47775 3.63929 20
92 1 0.0662254 -1.00405 4.2977 19
93 1 -2.70496 -2.07127 5.23555 19
94 1 -1.49804 -5.32058 4.93051 18
95 1 -4.0045 -4.43888 7.05553 14
96 1 0.407449 -3.62868 7.4243 16
97 1 -2.32151 -1.55099 8.16415 18
98 1 -1.22054 -4.5588 9.56326 12
99 1 0.529325 -1.49864 9.99718 14
100 2 -9.95278 -3.77879 -1.23343 15
101 2 -7.31637 -7.38874 4.74165 10
102 2 -9.81756 -4.48747 1.98003 14
103 2 -7.27374 -4.89984 0.112961 15
104 2 -10.0442 -7.09396 3.65173 9
105 2 -6.77248 -0.864498 2.40221 18
106 2 -9.35363 -1.80363 4.12899 14
107 2 -6.35247 -3.71736 3.02953 18
108 2 -9.0944 -4.67425 5.00302 13
109 2 -8.39852 1.04671 6.15192 11
110 2 -5.96469 -4.9842 6.53535 15
111 2 -6.96955 -1.9657 5.53501 16
112 2 -6.64015 -7.99148 1.04843 11
113 2 0.817824 -9.34628 0.136398 11
114 2 -3.71454 -8.10907 -0.0233982 14
115 2 -1.6914 -8.28558 2.36294 15
116 2 -4.74085 -7.90247 3.51403 13
117 2 1.58748 -8.57834 3.44804 16
118 2 -1.46781 -8.4992 5.24697 12
119 2 1.38029 -8.47378 6.39818 15
120 2 -4.00804 -7.23365 6.64703 13
121 2 0.320716 -5.61861 10.2999 11
122 2 -4.44084 -1.91843 0.477869 20
123 2 -0.345325 -4.31539 0.22597 17
124 2 -3.25567 -4.85304 2.23047 17
125 2 -1.69087 -2.28501 1.90578 18
126 2 -3.94041 -1.04196 4.14244 21
127 2 -0.329355 -5.39132 3.28705 16
128 2 -3.31999 -4.17807 5.15576 19
129 2 -0.869653 -1.42726 5.97155 19
130 2 -3.93655 -2.43192 6.96653 17
131 2 0.150056 -4.52864 5.7502 17
132 2 -2.73336 -4.89599 8.38717 14
133 2 -1.00179 -2.61056 9.0522 14
134 2 -3.21106 3.59885 7.30396 19
135 2 1.94863 -2.57568 10.7458 13
136 1 -6.79937 -1.67697 -7.69403 12
137 1 -6.9743 -2.97326 -4.68838 19
138 1 -2.6115 5.19839 -6.57631 21
139 1 -5.05253 4.06752 -5.91351 17
140 1 -7.631 2.75014 -3.29385 15
141 1 -7.92172 0.074278 -5.1815 12
142 1 -5.21241 4.28372 -2.67071 16
143 1 -9.92862 0.830079 -2.59197 11
144 1 -4.60684 4.91292 0.641577 17
145 1 -4.72272 8.09139 -6.18251 13
146 1 -8.53362 5.56773 -1.84494 12
147 1 0.464052 -1.53578 -11.2206 13
148 1 -1.69907 1.63125 -10.9323 12
149 1 -3.8879 6.01126 -9.21438 11
150 1 -3.41283 2.5733 -8.63535 19
151 1 -0.416598 1.44959 -7.89567 20
152 1 -2.83931 1.795 -5.62657 22
153 1 3.61195 3.2993 -1.112 20
154 1 -2.24781 4.92817 -3.85424 19
155 1 -1.03702 1.8361 -3.67316 22
156 1 -4.1802 1.28303 -2.22258 20
157 1 1.05462 4.32189 -2.73112 22
158 1 -1.902 4.34874 -0.787997 23
159 1 -0.812683 1.83128 -0.780763 23
160 1 -2.17278 8.37964 -8.43966 12
161 1 -0.476186 7.20086 -6.30216 18
162 1 -4.37509 9.55552 -3.20522 15
163 1 2.59675 8.8074 -5.13087 10
164 1 -7.2654 5.49052 -7.46013 9
165 1 -6.90364 11.0597 -2.11224 6
166 1 -9.53155 2.6769 -0.864735 12
167 1 0.780046 7.1359 -0.935915 15
168 2 -5.05461 -1.44457 -9.15169 19
169 2 -4.42899 1.68311 -6.87195 18
170 2 -6.0488 -3.03091 -6.31032 19
171 2 -8.88006 -6.9512 -2.06684 12
172 2 -8.42426 1.23052 -3.7012 13
173 2 -9.64851 -1.15741 -2.80559 14
174 2 -5.83221 2.35664 -2.41514 16
175 2 -5.3937 4.44998 -1.0239 19
176 2 -1.72918 6.72437 -4.14101 21
177 2 -6.58021 3.63254 -7.32977 9
178 2 -6.05582 6.45571 -6.42576 11
179 2 -6.9191 6.24006 -2.75689 13
180 2 -6.12392 7.61017 1.18765 13
181 2 -0.486987 0.240708 -10.9048 16
182 2 -3.12799 4.25341 -8.24997 16
183 2 -3.01161 3.86554 -5.38832 18
184 2 -0.661644 2.75818 -9.64247 16
185 2 -3.60912 6.99645 -7.44447 16
186 2 -0.655296 1.86867 -6.01282 24
187 2 -2.88402 0.942392 -3.48203 19
188 2 -0.571357 3.67085 -3.95596 20
189 2 -3.12219 5.02879 -2.11776 17
190 2 0.0985579 0.900051 -2.33694 20
191 2 -2.70228 0.9781 -0.524772 22
192 2 -0.214524 3.51087 -1.45501 21
193 2 -0.128166 8.32366 -8.76668 11
194 2 -0.675917 5.3851 -6.82712 22
195 2 -1.70561 8.90806 -6.76406 15
196 2 0.955345 6.1089 -2.50732 17
197 2 -5.04894 11.3587 -1.88054 9
198 2 -9.23286 3.90169 -2.47995 11
199 2 7.18228 -0.924597 -0.943167 17
200 2 -6.00497 4.04317 -4.32567 19
201 2 3.09564 8.04264 -3.46353 12
202 1 -9.93101 2.85122 2.72084 12
203 1 -6.20286 6.63776 -4.30866 11
204 1 -9.77584 5.68604 1.16974 11
205 1 -6.79138 1.12557 2.42054 15
206 1 -9.38707 5.53027 4.76428 10
207 1 -5.84302 3.81616 3.80337 20
208 1 -7.20556 6.29924 1.98574 17
209 1 -6.88495 1.65102 7.10497 10
210 1 -3.16105 5.85852 6.67735 14
211 1 -6.61303 5.06393 6.83616 11
212 1 -7.94884 2.51249 4.96621 13
213 1 -5.09278 8.71649 2.41238 10
214 1 -7.16635 7.99354 -0.468278 10
215 1 -6.32045 7.27051 5.26744 11
216 1 -3.31371 1.84601 1.13325 21
217 1 1.14299 3.85744 0.750251 23
218 1 -2.4068 4.05254 2.4477 19
219 1 -0.438456 1.41835 2.39744 22
220 1 -4.11848 0.887721 4.29643 19
221 1 0.389432 4.23538 3.88357 19
222 1 -2.39377 3.16266 5.43495 20
223 1 -1.0498 0.761902 6.05729 20
224 1 -3.78498 1.3328 7.2433 17
225 1 0.381671 3.41704 7.06846 21
226 1 -0.476048 6.62561 8.15536 12
227 1 -1.01861 1.37054 9.54892 15
228 1 -2.77487 3.96277 9.10755 13
229 1 0.32494 4.66142 10.3978 12
230 1 -3.26708 7.10368 -2.61194 18
231 1 -0.4581 7.83946 -3.2261 17
232 1 -1.64709 10.078 -1.09904 17
233 1 -4.26883 10.1183 -0.339854 16
234 1 -3.9599 6.14673 3.79875 18
235 1 -1.946 9.6703 2.19881 13
236 1 -1.7313 6.37541 0.773446 21
237 1 2.57524 5.34879 8.17076 14
238 1 -0.908607 7.53588 4.74134 12
239 1 -1.50898 9.98967 -5.29062 11
240 2 -9.78135 0.856828 -0.529203 13
241 2 -9.6936 3.56564 1.00541 13
242 2 -5.33434 1.32486 0.898659 20
243 2 -8.93426 1.28891 2.40355 16
244 2 -6.08796 4.59586 1.96789 19
245 2 -5.10153 6.10765 6.59978 12
246 2 -6.40209 1.88819 4.02316 17
247 2 -9.24541 3.68827 4.34375 13
248 2 -7.80719 6.19665 5.49157 11
249 2 -5.29945 0.396044 7.25923 15
250 2 -2.36489 5.75965 8.84903 10
251 2 -6.49269 3.24104 6.24082 15
252 2 -8.67824 6.61916 -0.254197 11
253 2 -4.78148 8.0713 -4.2763 12
254 2 -9.74873 6.06918 3.12036 8
255 2 -2.43618 6.50415 5.16515 18
256 2 -2.74574 3.5046 0.696084 22
257 2 0.751292 1.88848 0.741778 22
258 2 -2.74193 0.844694 2.74546 19
259 2 -0.688174 3.23716 2.33179 21
260 2 -3.89249 4.16737 4.02355 21
261 2 0.343186 1.12954 4.20195 20
262 2 -2.73146 1.31684 5.66504 19
263 2 -0.608738 3.04223 5.68218 20
264 2 3.27013 6.20274 6.43452 12
265 2 -0.131466 1.61414 7.73527 21
266 2 -2.51288 0.46575 8.16993 17
267 2 0.835837 5.46888 8.89448 13
268 2 -1.18615 3.34608 9.89313 13
269 2 -6.90527 9.55624 -1.34995 9
270 2 -2.36481 11.8843 -0.977182 14
271 2 -3.02069 8.68834 -1.78788 16
272 2 0.408336 9.33762 -4.77633 12
273 2 -3.30772 6.08488 1.90954 21
274 2 -0.137507 5.55681 0.203367 21
275 2 -5.33709 7.58821 3.78051 13
276 2 1.26553 12.4522 -0.164992 8
277 2 1.13124 6.06125 3.80112 17
278 1 -4.21469 -2.89868 -6.09681 20
279 1 3.2044 -2.03323 -3.54618 20
280 1 -3.0503 -4.78079 -9.11197 14
281 1 -2.62428 -2.906 -11.7205 12
282 1 4.97615 -7.7111 -2.56541 13
283 1 2.23981 -7.69484 -4.4858 9
284 1 1.81391 -9.00023 -1.72033 12
285 1 8.32753 -7.93447 2.39422 11
286 1 -0.879189 4.25933 -8.84804 19
287 1 3.0199 -2.8284 -9.29353 13
288 1 4.55631 -0.396421 -8.55954 14
289 1 4.48126 -2.12642 -6.41509 16
290 1 1.62157 -0.586862 -8.04634 21
291 1 1.29692 -2.63909 -6.09235 19
292 1 8.64904 -0.0697861 -5.81221 11
293 1 1.07258 1.2792 -5.09285 21
294 1 6.22225 -3.94613 -8.46051 8
295 1 1.32946 -4.02552 -2.86512 21
296 1 5.84074 -2.18105 -2.43964 16
297 1 2.79986 -1.58892 -0.506937 16
298 1 4.33535 -4.69399 -1.19446 20
299 1 9.92674 -5.52815 0.474858 10
300 1 4.78652 0.0023196 -4.54533 22
301 1 7.21471 -8.85029 -0.342013 11
302 1 7.39753 -5.58573 -2.53536 15
303 1 7.3114 -2.81327 -4.898 15
304 1 9.65141 -4.02342 -3.40134 10
305 1 10.6619 -3.1554 -0.831422 12
306 1 7.32711 2.76757 -5.08201 16
307 2 -0.623828 -1.33126 -8.04839 21
308 2 2.19048 -4.5372 -9.64262 11
309 2 -0.726797 -3.04842 -11.2897 13
310 2 5.41436 -5.33463 -8.96508 6
311 2 3.88293 -8.77548 1.57622 17
312 2 9.52486 -4.01112 4.75842 14
313 2 -3.68818 1.74416 -10.6972 12
314 2 -2.97675 -1.397 -6.37734 18
315 2 5.02139 -2.21333 -9.15142 13
316 2 0.948084 -0.262871 -6.12145 18
317 2 2.74337 -2.16687 -7.31896 17
318 2 1.90861 -6.19483 -5.79384 12
319 2 4.96743 -2.19065 -4.24306 18
320 2 1.31647 -2.08424 -2.19514 20
321 2 2.13759 -3.37099 -4.50224 18
322 2 2.42599 -4.52894 -1.39537 19
323 2 4.12953 -1.58319 -1.94896 19
324 2 9.33034 -4.5041 -1.33805 13
325 2 5.25416 2.73635 -5.52136 17
326 2 7.9966 -1.21091 -4.11754 20
327 2 8.74319 -6.76684 1.00322 14
328 2 6.25223 -4.37569 -1.53681 18
329 2 4.88925 -5.8107 0.464894 18
330 2 11.907 -1.81494 0.195698 9
331 1 4.08934 -5.17227 2.41779 18
332 1 5.3208 -9.10021 2.7006 14
333 1 2.71483 -8.25268 5.04711 15
334 1 3.39603 -7.30255 0.329547 18
335 1 2.04752 -9.37181 1.57548 13
336 1 5.42082 -8.83335 6.13358 11
337 1 2.66819 -9.32785 7.59473 9
338 1 0.354911 -7.57231 9.57764 11
339 1 1.43831 -4.79651 0.141063 18
340 1 6.19925 -2.41583 1.80383 17
341 1 3.61669 -1.62184 3.52469 18
342 1 5.72278 -3.39894 4.86635 22
343 1 1.62116 -3.96105 4.6291 18
344 1 9.29177 -5.93426 5.1664 10
345 1 2.90502 -2.0384 6.70679 21
346 1 3.81439 -5.44503 6.19082 22
347 1 1.82032 -4.35114 10.877 11
348 1 5.92971 -2.3659 7.54331 16
349 1 3.09794 -0.908122 10.3229 13
350 1 3.57124 -6.89581 9.06345 15
351 1 4.54173 -3.38063 9.87562 12
352 1 8.8964 -3.66206 3.00401 19
353 1 6.60754 -6.35558 0.920601 20
354 1 10.2724 -2.04515 4.72316 11
355 1 12.1535 -2.53188 1.96143 8
356 1 9.82282 -0.988808 -3.31114 15
357 1 6.5563 -6.45165 4.26105 21
358 1 8.72706 -3.48227 6.7259 14
359 1 6.49192 -5.59945 7.82792 15
360 2 5.69793 -8.38907 4.47801 14
361 2 6.77932 -8.59189 1.49042 13
362 2 3.51139 -8.31418 -1.52947 14
363 2 2.9904 -5.63241 4.42542 19
364 2 7.82325 -4.02908 -3.71396 13
365 2 3.85218 -9.43531 6.10693 11
366 2 -1.04415 -7.68146 8.13695 10
367 2 1.44951 -0.960128 0.585228 19
368 2 5.91561 -5.87157 2.76971 20
369 2 2.38076 -5.74817 1.51192 17
370 2 4.41373 -3.05259 2.63081 16
371 2 1.77894 -1.90062 4.47435 18
372 2 5.7407 -5.10583 5.76228 20
373 2 2.54068 -3.90637 6.69034 18
374 2 4.42642 -1.68126 5.45004 21
375 2 1.91665 -1.17067 8.27631 18
376 2 2.22815 -8.24957 9.15828 10
377 2 3.39702 -5.25202 9.99812 12
378 2 4.60298 -1.5275 9.08571 14
379 2 0.225395 0.297082 10.5354 14
380 2 10.8608 -3.82118 1.16563 12
381 2 4.80109 -6.9795 7.45829 17
382 2 8.68373 -7.15973 4.12613 12
383 2 8.23835 -1.91855 3.55811 15
384 2 10.0951 0.0561419 -1.80458 16
385 2 8.4855 -5.53464 6.95318 10
386 2 5.64637 -4.20815 8.62002 15
387 2 6.41492 -0.0817715 7.12266 15
388 1 4.7936 2.14115 -10.0494 8
389 1 -0.46601 7.04127 -10.1907 11
390 1 5.88725 1.48249 -6.76976 14
391 1 2.96969 2.53347 -7.27022 22
392 1 2.14263 4.82734 -10.325 11
393 1 0.270771 3.73216 -5.75427 20
394 1 5.23891 0.156593 -0.811587 19
395 1 1.97413 1.06435 -2.21713 22
396 1 6.18256 5.53537 -2.12798 14
397 1 3.49115 3.06374 -4.21069 20
398 1 6.14197 3.7129 0.588025 18
399 1 0.956169 9.1985 -7.658 10
400 1 4.53064 8.97192 -2.14018 10
401 1 3.06884 11.8625 -0.797445 7
402 1 -3.60297 12.1558 -2.50126 9
403 1 3.44607 6.25797 -2.9531 16
404 1 8.93707 6.11039 0.927079 11
405 1 3.74327 9.34865 0.772708 12
406 1 5.56976 7.01359 0.221702 15
407 1 2.98222 6.1889 -7.15849 12
408 1 8.91021 4.51784 -2.32497 13
409 1 10.2644 2.97665 0.292079 13
410 1 7.30558 -0.228823 -2.82806 23
411 1 1.12289 2.00711 -10.3603 14
412 1 11.2707 -0.00231606 -0.272006 13
413 1 8.03407 -3.04325 -0.620264 20
414 2 1.7353 -1.54532 -9.8764 15
415 2 0.336898 5.11484 -10.1003 11
416 2 5.08625 -0.242081 -6.43718 20
417 2 3.21315 3.03014 -10.4965 9
418 2 4.05726 5.67985 -4.58134 15
419 2 1.83239 3.26931 -5.93968 20
420 2 7.67844 1.40234 -6.32446 11
421 2 3.03877 1.09713 -4.43914 18
422 2 6.45267 1.8639 0.122489 18
423 2 2.56876 3.28621 -2.68927 21
424 2 7.92761 -3.1708 1.2278 17
425 2 3.10386 0.744301 -0.631353 19
426 2 6.44353 4.30974 -3.71506 15
427 2 3.96326 10.1422 -0.890981 11
428 2 7.65806 1.93286 -3.11567 21
429 2 7.95049 5.90808 -1.44748 11
430 2 -0.261601 8.74245 -1.55819 16
431 2 -2.71079 10.5514 -3.43634 14
432 2 2.60691 5.68584 -8.7817 11
433 2 4.8286 7.76368 1.6516 13
434 2 5.4292 7.39967 -1.67789 13
435 2 6.11069 -3.14332 -6.62841 13
436 2 5.2302 0.640598 -2.83493 23
437 2 4.56782 1.67096 -8.32584 12
438 2 7.0639 5.39199 1.11196 16
439 2 10.5817 -2.49221 -2.47606 13
440 2 9.36163 -0.136724 5.45519 14
441 2 9.81094 3.25333 -1.49072 13
442 2 10.5385 1.12703 1.03647 12
443 1 2.11784 0.678388 1.42691 21
444 1 6.06237 2.50641 -2.39783 22
445 1 3.60488 3.95223 2.61854 18
446 1 5.16193 1.10229 2.58756 19
447 1 2.28904 1.35103 4.40544 20
448 1 6.54272 2.91293 4.39133 18
449 1 5.10091 5.83426 6.11558 13
450 1 4.90897 0.179627 5.55078 24
451 1 1.60051 0.525168 7.59105 24
452 1 3.69636 2.83073 6.61776 17
453 1 3.3362 2.71876 9.5745 16
454 1 5.08354 0.467422 8.58423 17
455 1 1.50255 1.48052 11.2536 12
456 1 1.36004 7.79803 2.67088 17
457 1 9.86731 3.96129 3.33594 11
458 1 2.69753 10.3088 4.15653 6
459 1 4.30558 7.6544 3.53829 14
460 1 1.83392 7.03645 5.4598 15
461 1 0.543604 9.54402 0.12237 17
462 1 6.68786 2.72139 7.6508 13
463 1 -0.636098 12.6078 0.140537 8
464 1 7.56723 0.120987 0.4304 19
465 1 6.66868 5.41182 2.99715 14
466 1 10.5237 0.475297 2.86289 14
467 1 7.61584 -0.123794 4.00204 21
468 1 9.76792 1.86586 5.68781 10
469 1 8.32651 0.0303804 7.13435 13
470 1 10.0633 1.73326 -2.73184 13
471 1 5.44559 4.78912 -5.32197 12
472 2 3.04248 3.75333 0.731121 15
473 2 6.37945 -0.454195 1.97584 14
474 2 3.47617 0.455355 3.00313 19
475 2 5.49078 3.4565 3.07582 15
476 2 2.07964 3.08901 3.57531 18
477 2 6.06293 1.15084 4.3071 20
478 2 3.12637 0.909106 6.16966 21
479 2 5.48084 3.61743 6.40685 18
480 2 -0.22023 7.35348 6.4142 12
481 2 5.01817 2.5993 8.46555 13
482 2 3.53825 0.878268 10.3631 13
483 2 2.32921 3.44443 7.94747 16
484 2 1.62558 3.25071 11.0263 10
485 2 -3.66204 9.59718 1.44246 12
486 2 2.01433 7.89844 -6.6848 11
487 2 2.69525 9.95414 2.21695 11
488 2 -0.970817 10.5803 0.639982 12
489 2 -0.853202 7.88547 2.88883 16
490 2 5.1802 4.17959 -1.00338 18
491 2 6.9858 -2.96107 6.12691 19
492 2 2.98801 8.48429 4.75615 11
493 2 10.194 4.55906 1.40332 11
494 2 10.1072 0.650064 -4.35515 11
495 2 11.2842 -1.38776 3.08463 13
496 2 5.38263 6.24616 4.11598 14
497 2 8.01241 4.22267 3.74912 13
498 2 8.54306 1.97692 7.11176 11
499 2 1.42225 7.82403 0.678317 15
500 2 9.95528 2.01686 3.82783 12
