ITEM: TIMESTEP
77000
ITEM: NUMBER OF ATOMS
500
ITEM: BOX BOUNDS pp pp pp
-30.0 30.0
-30.0 30.0
-30.0 30.0
ITEM: ATOMS id type x y z Coordination
1 1 -5.87488 -6.26957 -5.70644 16
2 1 -5.91085 -6.47914 -2.60665 19
3 1 -8.92988 -7.76257 2.00905 11
4 1 -6.36568 -0.915002 -8.97633 12
5 1 -7.86913 -3.46531 -6.61184 11
6 1 -5.98166 -0.854917 -5.84238 22
7 1 -9.42478 -3.56531 -2.98482 13
8 1 -6.92994 -3.42038 -3.9878 19
9 1 -8.76711 -6.33837 -0.872688 14
10 1 -5.89931 -0.825554 -2.56167 23
11 1 -8.72139 -0.791274 -1.12276 21
12 1 -7.00217 -3.7239 -1.19794 23
13 1 -2.83203 -6.03044 -7.7688 12
14 1 -0.290612 -6.0653 -5.98193 18
15 1 -3.06718 -6.7473 -4.59839 18
16 1 -1.5047 -9.08238 -4.7206 10
17 1 -4.86534 -9.17343 -3.60713 10
18 1 -0.239653 -6.36837 -2.98908 22
19 1 -3.4042 -7.39637 -1.36628 21
20 1 -0.518137 -9.19384 -1.65611 16
21 1 -4.38134 -3.52108 -9.75985 10
22 1 -0.618607 -1.90314 -10.1116 12
23 1 -3.2465 -0.951546 -8.11799 18
24 1 -0.944374 -3.68468 -7.95616 20
25 1 -4.17071 -3.82384 -6.31131 20
26 1 -0.00193517 -0.805994 -6.44575 21
27 1 -3.08058 -1.45479 -4.57186 19
28 1 -1.2267 -3.48894 -4.56538 21
29 1 -3.98089 -4.23248 -2.95342 22
30 1 -0.0780085 -0.860211 -3.03551 23
31 1 -3.09643 -1.56009 -1.1483 18
32 1 -1.10547 -3.85341 -1.37823 21
33 2 -5.87807 -7.62576 -4.34118 12
34 2 -6.83518 -6.78816 -1.01341 16
35 2 -7.16414 -1.73984 -7.50799 15
36 2 -8.77574 -3.45828 -4.77271 12
37 2 -6.13584 -4.28058 -5.6852 16
38 2 -8.93599 -4.3244 -1.23489 16
39 2 -6.75363 -1.54583 -4.10765 21
40 2 -9.33809 -1.54765 -2.8076 15
41 2 -5.96655 -4.32547 -2.76256 20
42 2 -9.97258 -6.63367 0.662076 10
43 2 -6.85753 -1.68456 -0.893943 23
44 2 -0.834269 -5.84043 -7.92352 12
45 2 -3.98631 -6.37274 -6.37364 13
46 2 -3.36663 -8.89466 -4.5644 11
47 2 -1.1447 -7.18945 -4.64317 19
48 2 -3.86481 -6.27942 -2.85568 20
49 2 0.0229248 -9.17568 -3.47183 10
50 2 -4.49931 -9.24598 -1.80513 12
51 2 -1.33937 -7.41949 -1.37406 23
52 2 3.09961 -1.54008 -9.72034 15
53 2 -4.49722 -1.5607 -9.52428 12
54 2 0.275722 -3.57999 -9.43737 12
55 2 -3.89007 -4.40701 -8.26928 13
56 2 -1.23715 -1.57643 -8.32836 18
57 2 -4.20702 -1.54172 -6.31042 20
58 2 -0.296742 -4.00242 -6.23572 20
59 2 -3.16788 -3.67978 -4.59047 21
60 2 -1.03417 -1.46352 -4.82719 22
61 2 -3.89714 -0.62647 -2.83059 19
62 2 -0.28274 -4.32083 -3.05852 22
63 2 -3.07393 -3.7262 -1.24108 20
64 2 -1.14225 -1.80295 -1.54047 22
65 1 -9.60433 -3.36309 0.321788 16
66 1 -6.02209 -6.5241 0.784324 18
67 1 -5.94137 -6.98799 3.81079 17
68 1 -6.11738 -6.88154 6.9488 11
69 1 -10.8445 -5.61467 2.18622 8
70 1 -5.78157 -1.15758 0.771461 21
71 1 -8.82106 -0.582758 1.91736 19
72 1 -6.66022 -3.76335 2.20235 21
73 1 -8.88322 -5.97173 5.02771 13
74 1 -6.5603 -0.965093 3.85564 22
75 1 -9.47142 -2.96538 3.92008 14
76 1 -6.39402 -3.91698 5.33891 20
77 1 -6.1503 -1.49032 7.23539 13
78 1 -5.44999 -4.2543 8.82442 10
79 1 -4.32021 -10.0223 -0.0171568 8
80 1 -0.502785 -6.61316 0.489252 23
81 1 -3.11318 -7.6835 1.86502 17
82 1 -1.19323 -10.1479 1.51113 13
83 1 -0.260935 -6.88586 3.76038 20
84 1 -3.14304 -7.98983 5.27954 14
85 1 -0.371388 -9.80683 4.9736 10
86 1 -0.398298 -7.19129 6.78103 15
87 1 -3.85735 -4.56252 0.211748 24
88 1 -0.273505 -1.03299 0.330601 22
89 1 -2.86771 -1.90394 2.19271 21
90 1 -1.10386 -4.02937 2.09544 20
91 1 -3.90704 -5.14554 3.54542 21
92 1 -0.177937 -1.24134 3.80668 22
93 1 -3.70671 -2.01557 5.26205 23
94 1 -1.30593 -3.92944 5.13979 20
95 1 -3.63421 -5.28635 6.99202 17
96 1 -1.01369 -1.0857 7.07797 21
97 1 -3.64933 -1.37437 9.13095 18
98 1 -1.74971 -3.99954 8.28279 18
99 1 -0.442893 -1.76121 10.2801 15
100 2 -7.1221 -7.37438 2.1307 14
101 2 -7.17451 -6.94285 5.36009 12
102 2 -9.87594 -3.9801 2.14572 15
103 2 -5.93249 -4.54744 0.375665 20
104 2 -9.89968 -6.7467 3.58418 10
105 2 -7.01442 -1.79616 2.17918 23
106 2 -9.25976 -1.06663 3.71598 13
107 2 -5.82222 -4.68012 3.51056 19
108 2 -8.34004 -4.18364 4.9829 14
109 2 -5.87644 -2.00724 5.48713 19
110 2 -6.01759 -4.91544 7.1077 15
111 2 -5.22164 -2.39691 8.61873 15
112 2 -4.06548 -6.68038 0.277047 19
113 2 -0.0853682 -10.1222 -0.0611848 13
114 2 -3.0638 -9.5249 1.20647 13
115 2 -1.42934 -7.18943 2.1259 20
116 2 -3.98749 -7.20337 3.71373 18
117 2 -0.155826 -10.3435 3.11851 12
118 2 -1.17677 -8.16798 5.21208 15
119 2 1.45253 -9.29881 5.0631 12
120 2 -4.27295 -7.00661 6.57009 15
121 2 0.259972 -3.89608 8.44854 17
122 2 -3.85893 -1.01309 0.676147 20
123 2 -0.279367 -4.68355 0.404593 21
124 2 -2.947 -4.07422 2.04808 22
125 2 -0.597523 -1.79493 2.02218 19
126 2 -3.80722 -1.04318 3.57708 20
127 2 -0.195892 -4.70819 3.62929 20
128 2 -3.22194 -4.07684 5.20793 21
129 2 -0.676052 -2.1697 5.42381 25
130 2 -2.89224 -0.888531 6.65141 22
131 2 -1.46047 -5.49469 6.71126 16
132 2 -3.59314 -4.67918 8.69708 12
133 2 -1.80129 -2.19135 8.71186 19
134 2 -3.91992 -0.0588363 10.3711 14
135 2 1.37011 -2.5785 10.3196 14
136 1 -7.23173 1.90602 -7.19933 13
137 1 -8.68995 -0.811274 -4.41552 15
138 1 -5.63506 4.4567 -6.58941 16
139 1 -8.20654 4.7113 -5.00874 11
140 1 -7.23642 1.95234 -4.28599 20
141 1 -9.65888 2.09653 -2.73801 13
142 1 -5.64858 4.4227 -2.59881 23
143 1 -8.29854 4.70012 -1.44723 17
144 1 -6.67179 1.93135 -1.07627 23
145 1 -6.27896 7.30613 -4.23018 12
146 1 -6.43857 7.33536 -1.12928 19
147 1 -0.00416698 1.08642 -11.3065 9
148 1 -4.69391 2.08347 -9.23746 13
149 1 -0.196395 4.01372 -9.57001 14
150 1 -3.11731 4.76749 -7.90862 16
151 1 -1.3328 1.88472 -7.89505 18
152 1 -4.18911 1.73129 -6.40079 22
153 1 -0.249024 4.64536 -6.43354 24
154 1 -2.81129 3.90883 -4.52728 21
155 1 -0.925789 1.78288 -4.74643 21
156 1 -3.7453 1.35038 -3.10802 19
157 1 0.10422 4.48773 -2.88619 23
158 1 -2.86711 3.79067 -1.1421 22
159 1 -1.03043 1.81085 -1.34525 24
160 1 -1.11195 7.12712 -8.16076 12
161 1 -3.92816 6.82263 -6.19333 16
162 1 -3.58915 9.28134 -4.93128 10
163 1 -0.642066 7.49442 -4.59075 20
164 1 -3.47007 6.50805 -2.90916 20
165 1 -1.00681 10.4896 -3.27131 10
166 1 -3.06898 9.38204 -1.41299 15
167 1 -0.875122 7.1371 -1.30387 24
168 2 -6.25037 1.03464 -8.73956 12
169 2 -7.40913 3.3838 -6.07052 12
170 2 -6.09317 1.18781 -5.8702 20
171 2 -8.97629 1.00774 -4.09323 16
172 2 -6.47001 5.61363 -5.14927 14
173 2 -8.74047 3.80486 -3.40272 14
174 2 -5.93448 1.28811 -2.9061 23
175 2 -8.69465 1.3173 -0.991056 19
176 2 -6.53304 3.96273 -1.0583 20
177 2 -5.09663 8.31771 -5.29552 10
178 2 -5.43431 6.32 -2.56686 17
179 2 -8.3114 6.52383 -1.14364 15
180 2 -7.48609 9.03166 -0.370791 9
181 2 -4.88534 3.36029 -7.82966 17
182 2 -0.585786 1.93338 -9.76745 12
183 2 -3.23308 1.02061 -7.97241 17
184 2 -1.43501 3.95705 -7.89929 21
185 2 -3.72863 4.74305 -5.97577 18
186 2 -0.0348128 1.14127 -6.41646 20
187 2 -2.96482 1.80477 -4.93316 20
188 2 -0.829193 3.91872 -4.562 23
189 2 -3.63096 4.34109 -2.83289 20
190 2 -0.203909 1.14892 -2.97068 22
191 2 -3.02932 1.87937 -1.22193 21
192 2 -0.742485 3.68083 -1.33861 22
193 2 0.00212947 6.1176 -9.35209 12
194 2 -2.88769 6.59428 -7.91228 12
195 2 -0.159031 6.69039 -6.4902 18
196 2 -2.62012 7.25338 -4.70433 22
197 2 0.211658 9.23425 -4.38601 14
198 2 -2.8187 9.83131 -3.28853 12
199 2 -0.10783 6.43488 -3.01272 22
200 2 -2.76477 7.16474 -1.26218 20
201 2 -0.795687 9.35142 -1.56657 16
202 1 -9.71812 2.05721 0.545816 14
203 1 -5.72434 4.46002 0.72359 25
204 1 -8.54959 5.03017 2.14724 18
205 1 -6.9151 1.75148 2.15899 25
206 1 -9.82997 0.748952 3.93641 11
207 1 -5.78513 4.01259 3.96977 23
208 1 -8.50257 3.55085 5.46376 13
209 1 -6.61767 1.27167 5.7376 17
210 1 -5.78085 4.06624 7.42973 16
211 1 -5.11634 1.21994 9.26881 14
212 1 -9.03825 7.8755 0.00196874 10
213 1 -6.1085 10.2263 0.174457 9
214 1 -6.47463 7.65011 1.98964 18
215 1 -7.05893 6.44117 5.03742 14
216 1 -3.93695 0.987444 0.534215 22
217 1 -0.0333177 4.38991 0.606084 21
218 1 -2.98524 3.6711 2.12851 21
219 1 -1.07839 1.51131 1.99496 22
220 1 -3.92424 0.750689 3.55027 23
221 1 -0.256696 4.06509 3.66892 20
222 1 -3.1294 3.82346 5.29553 22
223 1 -1.18827 1.57012 5.33984 22
224 1 -3.75161 0.883245 6.82366 24
225 1 -0.247806 4.56091 6.90364 19
226 1 -3.19234 3.58867 8.60831 15
227 1 -1.35302 1.56768 8.68062 23
228 1 -2.58627 0.67341 11.4213 10
229 1 -0.810771 3.67989 10.6553 11
230 1 -3.64824 6.4722 0.432867 21
231 1 0.12789 10.0407 0.0117793 13
232 1 -3.74534 9.41055 1.87245 16
233 1 -0.981863 7.39523 2.12052 23
234 1 -3.92406 6.63303 3.51519 22
235 1 -0.828429 10.2742 3.12676 12
236 1 -2.8106 9.24722 5.15138 11
237 1 -1.04333 6.95907 5.30111 20
238 1 -4.10093 6.26342 6.64615 14
239 1 1.14539 9.43841 5.34465 13
240 2 -9.40603 -1.58413 0.508729 16
241 2 -9.11156 3.91583 0.489395 16
242 2 -5.97887 0.905037 0.499098 22
243 2 -8.92753 1.36605 2.17006 18
244 2 -6.74947 3.60099 2.23583 20
245 2 -8.13368 4.81368 4.20073 13
246 2 -6.04221 0.900069 3.80998 23
247 2 -8.85233 1.56831 5.19029 12
248 2 -6.35633 3.25446 5.6091 20
249 2 -5.83749 0.550728 7.23522 18
250 2 -5.33588 3.07782 9.00983 11
251 2 -5.56755 6.54063 0.56577 24
252 2 -8.24559 6.81638 1.57066 15
253 2 -5.80385 9.582 2.00864 12
254 2 -5.84642 6.63053 3.52956 19
255 2 -6.19208 6.01024 6.71244 12
256 2 -3.84947 4.32968 0.547272 20
257 2 -0.280003 0.884172 0.324115 21
258 2 -3.13233 1.77215 2.05753 23
259 2 -0.887373 3.49217 2.08631 23
260 2 -3.82629 4.74686 3.65759 24
261 2 -0.526849 0.827815 3.73753 21
262 2 -3.33905 1.92613 5.10073 23
263 2 -1.17152 3.61738 5.28385 21
264 2 -3.71921 4.3519 6.93693 16
265 2 -0.553934 0.747638 7.05368 21
266 2 -3.29567 1.61312 8.46931 21
267 2 -1.22845 3.70501 8.64874 17
268 2 -1.96482 2.44087 11.3938 11
269 2 -4.26431 10.1317 -0.220252 14
270 2 0.0305875 6.55898 0.311284 22
271 2 -2.91936 7.49309 1.89488 23
272 2 -0.473867 9.27348 1.70945 16
273 2 -2.64683 9.83713 3.38981 13
274 2 -0.27953 6.23264 3.5305 22
275 2 -3.22741 7.23764 5.311 16
276 2 -0.748442 9.13066 5.63005 13
277 2 0.234639 6.49455 6.59432 16
278 1 1.18927 -5.89489 -8.29586 11
279 1 6.70607 -5.89175 -4.77704 15
280 1 2.7712 -6.1967 -4.73898 20
281 1 5.98883 -8.39009 -4.19989 8
282 1 1.9026 -8.73096 -3.28329 17
283 1 4.89632 -6.12611 -2.64809 21
284 1 2.42208 -6.2785 -1.02754 22
285 1 4.7149 -9.4896 -1.17245 13
286 1 2.4895 -0.61663 -11.3139 10
287 1 2.06839 -3.22779 -9.51101 15
288 1 5.23941 -1.78519 -9.62851 10
289 1 2.95193 -0.733057 -7.94469 21
290 1 4.52922 -4.45498 -7.80208 15
291 1 1.71026 -3.6178 -6.32829 22
292 1 6.25986 -0.975366 -6.45544 19
293 1 2.92893 -1.02437 -4.77258 23
294 1 4.58296 -3.475 -4.79042 22
295 1 1.60889 -3.61265 -3.00788 23
296 1 5.31285 -1.06156 -3.1191 21
297 1 2.68393 -0.970933 -1.35367 24
298 1 4.40785 -3.71236 -1.30306 23
299 1 7.42185 -6.19785 -1.60454 16
300 1 9.4201 -1.21566 -7.60426 6
301 1 7.42598 -4.05714 -7.39086 12
302 1 9.60962 -3.86813 -5.43232 10
303 1 7.3387 -3.52431 -3.09107 21
304 1 11.2022 -1.44611 -2.96619 10
305 1 8.63947 -1.15982 -1.21507 22
306 1 10.267 -3.72619 -1.97711 13
307 2 1.57361 -6.23592 -6.34444 15
308 2 5.45146 -9.4872 -2.77791 9
309 2 4.49668 -7.02922 -4.42557 14
310 2 1.67359 -6.70558 -3.17252 19
311 2 2.749 -9.14311 -1.50573 16
312 2 4.24234 -6.54794 -0.945747 20
313 2 1.97606 1.17822 -11.2286 10
314 2 2.75588 -4.66954 -8.34537 16
315 2 5.93858 -3.50603 -8.72784 10
316 2 1.79395 -1.48231 -6.55819 21
317 2 5.79976 -4.54551 -6.26043 16
318 2 2.7964 -4.10596 -4.82461 21
319 2 4.91029 -1.48249 -5.00936 21
320 2 1.95131 -1.5988 -3.0907 23
321 2 5.3367 -4.14123 -3.0808 21
322 2 2.43284 -4.20194 -1.24087 22
323 2 4.59861 -1.7081 -1.36015 23
324 2 6.62071 -6.98811 -3.11652 13
325 2 8.96643 -2.97507 -7.0577 9
326 2 8.14212 -4.70085 -4.60667 14
327 2 10.5174 -3.08784 -3.91625 11
328 2 7.20659 -1.46563 -2.66616 21
329 2 8.40859 -4.36319 -1.50342 15
330 2 10.5904 -2.13964 -1.18769 15
331 1 1.78177 -9.67832 0.10045 16
332 1 5.27686 -6.96959 0.662121 20
333 1 2.29816 -7.43739 1.97455 21
334 1 4.63039 -9.62251 2.067 9
335 1 1.76401 -10.4004 3.3686 12
336 1 4.72067 -6.87075 3.95941 17
337 1 2.32051 -7.62 5.23351 17
338 1 3.21944 -6.5826 7.62675 11
339 1 1.60484 -3.67193 0.492437 20
340 1 5.61948 -1.21848 0.159358 20
341 1 2.61928 -1.71996 1.8792 21
342 1 4.75726 -3.5917 1.79624 20
343 1 1.80359 -4.57228 3.73282 22
344 1 5.76179 -1.65881 3.70053 20
345 1 2.70186 -1.67889 5.26469 21
346 1 4.64585 -4.41444 5.51716 22
347 1 1.04842 -3.24925 6.74601 22
348 1 5.21498 -1.39083 7.41035 18
349 1 2.29879 -1.30098 9.16029 17
350 1 4.6469 -3.8811 9.09267 10
351 1 1.69912 -4.36829 9.70741 12
352 1 7.71735 -6.58933 2.22028 13
353 1 7.52947 -3.95504 0.338401 21
354 1 11.2555 -1.45486 0.39077 13
355 1 8.48521 -1.24012 2.01191 20
356 1 10.3182 -4.00037 2.81462 10
357 1 7.09997 -4.5854 4.07401 16
358 1 8.62827 -1.84626 5.53058 14
359 1 7.3579 -3.52037 7.5761 9
360 2 1.32288 -7.28347 0.248931 21
361 2 5.41106 -9.19758 0.563457 12
362 2 4.19603 -7.50807 2.30922 19
363 2 1.77728 -6.71298 3.5861 19
364 2 2.60775 -9.6053 1.83946 16
365 2 4.05444 -6.57125 5.73147 14
366 2 1.40365 -6.98355 7.00708 15
367 2 1.60213 -1.71838 0.0484911 20
368 2 5.53331 -4.0357 0.187286 21
369 2 2.83062 -3.96165 2.20309 22
370 2 4.56116 -1.40345 2.00795 20
371 2 1.73188 -0.939286 3.6212 21
372 2 5.60392 -3.54982 3.54554 22
373 2 2.79898 -3.76043 5.39454 22
374 2 4.53201 -1.05498 5.33184 21
375 2 1.67424 -1.42632 7.18316 20
376 2 5.54913 -4.07042 7.32379 14
377 2 3.1951 -4.94158 8.91555 13
378 2 4.08242 -2.11145 8.66184 18
379 2 -0.79893 0.255057 10.0867 18
380 2 7.13103 -6.55883 0.390873 13
381 2 6.51372 -6.40658 3.72178 12
382 2 7.6054 -2.01594 0.403135 22
383 2 8.5638 -4.6508 2.63349 13
384 2 10.24 -2.29049 1.90086 13
385 2 7.85956 -1.141 3.96011 18
386 2 8.02748 -3.79671 5.59174 12
387 2 7.43866 -1.45221 7.08542 12
388 1 2.57073 2.32426 -9.78749 16
389 1 3.03288 4.39671 -7.8275 18
390 1 4.9116 1.45055 -7.70204 18
391 1 1.82353 1.86236 -6.51561 20
392 1 5.81181 4.51194 -6.1663 18
393 1 2.79276 4.48199 -4.53776 23
394 1 4.61288 1.72551 -4.44076 23
395 1 1.78355 1.73566 -3.14215 23
396 1 5.80081 4.45172 -2.91147 20
397 1 2.80907 4.36248 -1.2531 23
398 1 4.80189 1.70132 -1.24329 22
399 1 1.88588 6.18181 -9.76289 10
400 1 4.23168 7.52597 -7.19205 10
401 1 1.72257 6.81178 -6.03634 20
402 1 2.21747 9.46312 -4.74811 11
403 1 4.9189 7.19206 -4.23333 17
404 1 1.98771 7.11666 -2.7381 22
405 1 3.06081 9.72196 -1.23207 12
406 1 4.76084 7.15531 -0.981999 20
407 1 7.87414 1.50001 -6.22717 13
408 1 8.74098 3.75678 -4.74988 11
409 1 9.81208 1.77242 -2.6129 13
410 1 7.47999 0.765899 -3.16645 19
411 1 9.39587 4.12551 -0.311107 14
412 1 11.8177 1.56832 -0.956866 11
413 1 7.87199 6.33013 -2.66359 9
414 2 0.570623 -0.937203 -10.9101 11
415 2 1.7657 4.10178 -9.49787 15
416 2 5.07595 -0.665128 -8.01964 14
417 2 2.95448 1.28267 -7.97885 19
418 2 4.93821 3.50396 -7.68241 16
419 2 1.92082 4.0457 -6.25658 24
420 2 5.78279 1.09759 -5.90135 19
421 2 2.87518 0.983017 -4.76628 24
422 2 4.86998 3.71175 -4.52701 23
423 2 2.22568 3.57279 -2.72635 22
424 2 5.48285 0.888506 -2.92075 20
425 2 2.58828 1.08094 -1.31284 23
426 2 4.90413 3.57319 -1.23934 19
427 2 2.91723 6.23487 -7.89367 15
428 2 5.3784 6.39259 -5.91335 15
429 2 3.09083 6.38424 -4.24147 23
430 2 2.94476 8.486 -6.13723 11
431 2 2.7676 8.92294 -2.84849 15
432 2 5.97587 6.55386 -2.5187 14
433 2 2.84821 6.38093 -1.20519 24
434 2 4.57936 9.00796 -0.478913 13
435 2 8.06335 -0.390788 -6.70712 11
436 2 7.79776 3.59498 -6.33697 10
437 2 8.66435 1.95093 -4.22962 12
438 2 7.69162 4.5383 -3.40811 16
439 2 11.2971 0.360678 -2.40165 12
440 2 8.47198 1.01488 -1.32044 20
441 2 10.5651 3.05092 -1.32259 14
442 2 8.69576 5.86508 -1.13586 11
443 1 1.81734 1.83232 0.395818 22
444 1 5.46742 3.83954 0.521151 19
445 1 2.77277 3.64006 2.26848 20
446 1 4.66059 0.871611 1.80312 20
447 1 1.68614 1.10598 3.62899 20
448 1 5.47543 3.43665 3.68881 21
449 1 2.51309 3.41181 5.67396 19
450 1 4.45833 1.00276 5.46252 20
451 1 1.43482 0.653366 7.16406 23
452 1 4.91631 5.12841 8.52426 10
453 1 1.94485 3.87412 9.18828 14
454 1 4.21577 1.57864 8.83336 16
455 1 1.0634 1.12423 10.5296 15
456 1 1.89357 7.2303 0.500674 22
457 1 5.35974 8.91357 1.24114 13
458 1 2.37815 9.60683 2.3391 16
459 1 4.61558 6.44329 2.27813 23
460 1 1.81708 6.28487 3.84775 21
461 1 4.48558 8.47558 4.59363 14
462 1 4.93931 5.54903 5.87903 19
463 1 2.0589 7.00187 6.93477 14
464 1 7.75108 1.54785 0.465469 21
465 1 8.488 4.20642 2.39903 16
466 1 10.4303 1.47917 1.60416 14
467 1 7.61018 0.943475 3.79141 18
468 1 7.33842 3.58888 6.0458 14
469 1 7.3027 0.518013 7.07389 12
470 1 7.5894 6.47757 0.529071 13
471 1 7.45622 6.47782 3.89735 11
472 2 1.85935 3.8878 0.428365 21
473 2 5.86157 0.700714 0.0662775 22
474 2 3.09121 1.49068 1.93598 19
475 2 4.57577 4.32181 2.09881 20
476 2 1.77206 4.22212 3.86621 22
477 2 5.66741 1.49238 3.58007 23
478 2 2.50673 1.31032 5.38915 20
479 2 4.3821 3.85271 5.21346 21
480 2 1.64571 3.94879 7.31295 19
481 2 5.3249 0.855382 7.35671 16
482 2 2.40574 0.702427 9.07309 18
483 2 4.01254 3.46257 9.00238 12
484 2 0.895694 3.04486 10.3961 12
485 2 1.9739 9.39579 0.343819 18
486 2 5.79716 7.02867 0.747375 17
487 2 2.8214 6.68664 2.30291 20
488 2 4.40097 9.23129 2.89999 11
489 2 1.13088 10.4468 3.68048 11
490 2 5.55799 6.79849 4.28303 17
491 2 2.31615 7.94201 5.14354 17
492 2 3.67321 6.16475 7.40854 13
493 2 7.39692 3.5413 0.823819 22
494 2 11.592 0.346173 0.541523 14
495 2 8.81696 0.745869 1.96539 17
496 2 10.1522 3.34738 1.69496 11
497 2 7.46029 4.50175 4.34978 15
498 2 7.54736 1.71881 5.56511 14
499 2 6.1473 4.54923 7.22539 12
500 2 8.25097 6.19343 2.23799 11
