ITEM: TIMESTEP
268000
ITEM: NUMBER OF ATOMS
500
ITEM: BOX BOUNDS pp pp pp
-30.0 30.0
-30.0 30.0
-30.0 30.0
ITEM: ATOMS id type x y z Coordination
1 1 -5.9897 -6.51718 -6.14977 11
2 1 -5.33389 -9.18909 0.644229 14
3 1 -8.58899 -8.25161 1.48961 10
4 1 -5.30863 -0.563567 -9.84317 10
5 1 -7.62401 -4.25379 -4.71595 15
6 1 -5.96892 -1.57246 -6.48104 17
7 1 -10.4564 -3.51142 -2.79276 11
8 1 -6.2981 -6.46509 -2.77743 17
9 1 -9.27209 -6.48825 -1.25714 10
10 1 -6.23644 -1.22811 -3.04858 21
11 1 -9.05801 -1.10935 -0.96686 20
12 1 -7.40979 -3.93627 -1.20614 21
13 1 -3.22736 -6.20849 -8.28715 13
14 1 -0.232791 -6.17464 -6.38352 21
15 1 -3.12714 -6.50126 -4.7263 22
16 1 -1.54372 -8.88922 -4.95258 12
17 1 -4.3483 -8.98796 -2.82105 12
18 1 -0.0819704 -6.55235 -3.47229 22
19 1 -3.24256 -6.58848 -1.32316 22
20 1 -1.44218 -9.20663 -1.90294 20
21 1 -2.91741 -3.47937 -10.3056 11
22 1 -0.241496 -1.78378 -9.53598 15
23 1 -3.06122 -1.03854 -7.76521 22
24 1 -1.44658 -3.63597 -7.8081 20
25 1 -4.3743 -4.13351 -6.4581 19
26 1 -0.240844 -1.24327 -6.21053 21
27 1 -3.00073 -1.23265 -4.52259 22
28 1 -1.43885 -3.96241 -4.33206 21
29 1 -4.33968 -3.85869 -3.16699 21
30 1 -0.177033 -1.13484 -2.93304 22
31 1 -3.31996 -1.18413 -1.42839 22
32 1 -1.35584 -3.73062 -1.2882 21
33 2 -2.60952 -9.33995 -3.39214 13
34 2 -7.47202 -6.46396 -1.09621 14
35 2 -6.12465 -3.79392 -6.00196 16
36 2 -9.08912 -3.36541 -4.12571 13
37 2 -7.10609 -6.19433 -4.72719 12
38 2 -9.91201 -4.57306 -1.25795 13
39 2 -7.18116 -0.961917 -4.87375 16
40 2 -10.2271 -1.72808 -2.48386 13
41 2 -6.18353 -4.38772 -2.86789 19
42 2 -9.85757 -7.07308 0.486697 10
43 2 -7.32101 -1.95558 -1.47925 24
44 2 -1.18366 -5.8857 -8.01246 15
45 2 -4.10065 -6.70035 -6.41651 13
46 2 0.0708002 -9.14111 -4.18559 10
47 2 -1.20254 -7.07696 -4.94957 19
48 2 -4.33416 -7.1288 -3.02048 19
49 2 1.89176 -7.19566 -3.56108 19
50 2 -4.6361 -9.60376 -1.07267 13
51 2 -1.24793 -7.25021 -1.83779 22
52 2 3.99009 -2.20058 -10.9711 10
53 2 -3.68178 -1.81232 -9.57414 15
54 2 -0.991749 -3.65426 -9.90683 14
55 2 -3.5543 -4.13397 -8.34303 16
56 2 -1.24514 -1.67259 -7.93332 18
57 2 -4.02272 -1.66845 -6.25331 22
58 2 -0.38428 -4.39006 -6.02741 20
59 2 -3.33418 -4.49731 -4.77379 21
60 2 -0.995301 -2.06309 -4.62425 22
61 2 -4.32737 -1.93102 -3.27489 22
62 2 -0.343211 -4.63842 -2.73481 24
63 2 -3.19597 -4.496 -1.39044 22
64 2 -1.18038 -1.72155 -1.25104 22
65 1 -10.5201 -3.89578 0.39799 13
66 1 -6.32706 -6.23739 0.399824 18
67 1 -6.08731 -7.70824 3.36563 16
68 1 -6.20299 -6.70031 6.66077 13
69 1 -11.0762 -6.48515 1.95213 9
70 1 -6.23587 -1.48689 0.0358009 23
71 1 -8.80024 -1.193 2.24167 20
72 1 -7.26313 -3.59601 2.05524 19
73 1 -8.85979 -6.9723 4.81693 11
74 1 -5.73372 -1.44953 3.22649 22
75 1 -9.79215 -4.00967 3.78929 14
76 1 -9.08325 -1.25117 5.59855 11
77 1 -6.09811 -1.52964 7.2678 15
78 1 -7.3607 -3.85928 5.43599 16
79 1 -1.85054 -9.09752 1.67959 16
80 1 -0.596963 -6.50956 -0.0457888 19
81 1 -3.65129 -6.65864 1.74333 20
82 1 -3.3641 -10.9227 -0.0596494 10
83 1 -0.73812 -6.75149 3.52342 16
84 1 -3.58216 -7.79498 5.08338 15
85 1 -0.562734 -7.49768 6.38338 15
86 1 -3.51084 -7.38612 8.24525 12
87 1 -4.30693 -3.79016 0.386761 24
88 1 0.00111159 -1.20486 0.266099 22
89 1 -3.01528 -1.02097 1.97841 24
90 1 -1.54721 -4.03857 2.22845 22
91 1 -4.70618 -4.38496 4.04043 21
92 1 -0.327387 -1.74472 3.78949 21
93 1 -3.2623 -1.79934 5.63148 22
94 1 -1.63888 -4.7682 5.55471 20
95 1 -4.50953 -4.01949 7.26634 17
96 1 -0.47541 -2.13782 7.10538 24
97 1 -3.25305 -1.43255 9.06077 13
98 1 -1.80687 -4.26384 8.57443 16
99 1 -0.56657 -1.72436 10.7609 13
100 2 -6.69104 -7.92929 1.4695 14
101 2 -6.94731 -7.3548 5.08159 12
102 2 -10.6596 -4.64742 2.12073 12
103 2 -6.09289 -4.43135 0.498621 18
104 2 -9.66143 -7.50346 3.16502 10
105 2 -6.92784 -1.65963 1.7972 19
106 2 -9.3748 -2.24506 3.89077 14
107 2 -6.36464 -3.39329 3.53218 18
108 2 -9.05839 -4.89692 5.14129 13
109 2 -8.75927 0.64508 5.23385 13
110 2 -5.67297 -4.88808 6.01851 19
111 2 -7.56618 -2.12412 6.30076 15
112 2 -4.52947 -7.02551 0.115764 21
113 2 -0.0920883 -9.69143 1.684 15
114 2 -3.67453 -9.55718 1.39438 13
115 2 -1.62902 -7.11434 1.65037 18
116 2 -4.44504 -6.89808 3.4953 20
117 2 -1.44109 -10.5413 -0.417002 10
118 2 -2.05679 -6.79258 5.08199 18
119 2 1.15359 -7.05572 7.40707 13
120 2 -4.54717 -7.62634 6.63779 12
121 2 -0.554176 -5.33197 9.63166 14
122 2 -4.02482 -1.83687 0.355998 20
123 2 -0.614817 -4.37319 0.359432 21
124 2 -3.7159 -4.4327 2.19028 21
125 2 -1.46506 -2.05925 1.78803 22
126 2 -3.75109 -1.0942 3.88668 18
127 2 -0.371873 -4.38618 3.79193 18
128 2 -3.39046 -3.69057 5.458 22
129 2 -1.31679 -1.22029 5.33985 21
130 2 -4.61955 -2.27603 7.89107 13
131 2 -0.639327 -3.98383 7.0229 22
132 2 -3.31541 -5.40099 8.13027 16
133 2 -1.81949 -2.42019 9.41325 15
134 2 -4.24559 3.30785 6.99084 19
135 2 1.14888 -2.28502 10.6814 12
136 1 -6.54546 1.116 -7.89095 12
137 1 -9.32549 -1.28064 -4.12564 11
138 1 -6.35724 3.74361 -5.75032 15
139 1 -9.30117 3.62252 -4.32865 11
140 1 -7.19208 0.91515 -4.53767 15
141 1 -9.99617 1.54639 -2.44892 14
142 1 -5.95141 4.47146 -2.82907 23
143 1 -9.02174 4.47561 -1.08997 18
144 1 -6.84198 1.57902 -0.962296 24
145 1 -7.16873 6.27329 -4.19461 11
146 1 -6.77374 7.10049 -0.680789 18
147 1 1.31464 1.06066 -9.62948 12
148 1 -4.00212 2.11598 -9.96095 13
149 1 -1.03222 3.96455 -9.53903 12
150 1 -3.28871 4.66824 -7.51831 18
151 1 -1.31292 1.66366 -7.74993 18
152 1 -4.14109 1.58606 -6.06075 22
153 1 -0.440379 4.2351 -6.10742 24
154 1 -3.09586 4.0892 -4.34238 24
155 1 -1.17945 1.54558 -4.34651 24
156 1 -4.2605 1.36668 -2.81349 22
157 1 -0.359639 4.0387 -2.42251 22
158 1 -3.49205 4.07147 -1.15201 22
159 1 -1.42933 1.18713 -1.06303 21
160 1 -1.24404 6.99546 -7.46084 11
161 1 -4.30072 7.05292 -5.65598 13
162 1 -4.50755 10.0773 -1.22409 10
163 1 -1.17446 6.64989 -4.08488 21
164 1 -4.05657 7.10944 -2.76211 20
165 1 -2.01617 9.7499 -3.1494 9
166 1 -2.52503 10.2895 1.61027 15
167 1 -1.16835 6.57164 -1.23576 20
168 2 -5.38618 1.29256 -9.29203 10
169 2 -6.26236 1.769 -6.03444 15
170 2 -6.46137 -0.72065 -8.1752 12
171 2 -8.93538 1.67904 -4.05352 14
172 2 -7.65864 4.44962 -4.1348 14
173 2 -9.61256 3.51886 -2.52275 12
174 2 -6.20908 0.90958 -2.56121 21
175 2 -8.85735 0.915819 -0.786338 18
176 2 -6.97706 3.49648 -1.14893 25
177 2 -6.01627 6.50324 -5.61193 12
178 2 -6.19074 6.48269 -2.48625 19
179 2 -8.80351 6.59781 -0.558797 14
180 2 -5.42048 8.62432 -0.262539 14
181 2 -2.90429 3.67886 -9.67635 11
182 2 -0.14278 2.10253 -9.42793 17
183 2 -3.10815 0.792606 -8.43555 19
184 2 -1.55791 3.49299 -7.52184 21
185 2 -4.33167 3.67674 -6.02702 20
186 2 -0.221939 0.780642 -5.90179 23
187 2 -3.15446 0.929141 -4.56578 23
188 2 -1.19467 3.55157 -4.21364 23
189 2 -4.37679 3.45546 -2.90989 23
190 2 -0.247426 0.89679 -2.77529 23
191 2 -3.36181 0.691206 -1.1189 23
192 2 -1.4809 3.33101 -0.893668 22
193 2 -0.239562 5.644 -8.65367 13
194 2 -2.97904 6.46297 -6.88032 13
195 2 -0.230238 6.22225 -5.92858 18
196 2 -3.37988 6.05579 -4.15468 21
197 2 -0.606847 8.64232 -3.78383 15
198 2 -3.64403 8.99804 -2.83025 14
199 2 -0.0831963 5.88403 -2.68919 21
200 2 -3.44599 6.13506 -1.10235 23
201 2 -1.25034 8.60262 -1.53306 18
202 1 -9.96962 1.64553 0.65118 15
203 1 -6.24296 4.29372 0.444059 22
204 1 -8.92293 4.34872 2.07196 18
205 1 -6.63881 1.21342 2.222 20
206 1 -9.3071 2.02417 3.91886 15
207 1 -6.49029 3.76031 3.93292 20
208 1 -8.95338 5.84428 4.31852 11
209 1 -6.95366 1.34036 5.76987 17
210 1 -3.92883 6.6903 7.45722 13
211 1 -6.0316 4.0986 7.23865 14
212 1 -9.86027 7.36028 0.863107 8
213 1 -5.83726 9.62575 1.37066 11
214 1 -6.83061 6.75534 2.55952 21
215 1 -5.19556 5.88622 5.00988 17
216 1 -4.20977 1.57615 0.551373 23
217 1 -0.38317 3.91862 0.841563 19
218 1 -3.5369 4.68437 2.31528 23
219 1 -0.971689 1.37457 2.09758 19
220 1 -3.98678 1.1102 3.86464 23
221 1 -0.181507 3.53845 4.26937 19
222 1 -3.01929 3.61936 5.39822 21
223 1 -1.37714 0.690112 5.43711 22
224 1 -4.09749 1.47107 7.29688 19
225 1 -0.510201 3.57036 7.36363 22
226 1 -1.7192 6.8215 9.60888 10
227 1 -1.14938 1.09281 8.91863 19
228 1 -3.26006 3.88322 8.91922 16
229 1 -0.419741 4.10276 10.9868 12
230 1 -4.24868 7.12795 0.47748 23
231 1 -0.02985 9.77685 -0.510246 15
232 1 -0.476575 9.08756 3.77175 17
233 1 -1.1408 6.61371 2.20796 17
234 1 -3.65682 7.90928 3.7462 17
235 1 0.832939 11.6071 1.59582 9
236 1 -0.0509547 8.3502 7.14221 11
237 1 1.18952 6.07755 8.68535 13
238 1 -1.62477 6.32966 5.55224 19
239 1 1.8888 10.4025 5.1806 11
240 2 -9.59525 -2.20477 0.55498 17
241 2 -9.86597 3.79988 0.553867 15
242 2 -5.84573 0.534892 0.558389 24
243 2 -8.90759 0.987711 2.0368 17
244 2 -7.06133 3.25786 2.09188 24
245 2 -5.72278 5.96312 6.99034 12
246 2 -5.92806 0.590737 3.88709 23
247 2 -9.08209 3.88876 4.03872 13
248 2 -7.00604 3.25481 5.8233 16
249 2 -5.70718 0.246141 6.91882 17
250 2 -3.03303 5.64701 8.98497 14
251 2 -5.92116 6.11458 0.721904 21
252 2 -9.07647 6.63107 2.52212 12
253 2 -5.53731 8.11414 2.58366 16
254 2 -6.99509 5.76394 4.08734 16
255 2 -3.54686 6.9865 5.53339 16
256 2 -4.16232 3.98362 0.658298 20
257 2 0.0359021 0.737894 0.418388 22
258 2 -3.12023 1.0563 1.98723 20
259 2 -1.07622 3.50777 2.5471 21
260 2 -4.32546 4.37727 4.00013 20
261 2 -0.361393 1.08382 3.86214 21
262 2 -3.05497 1.5157 5.62079 20
263 2 -1.23967 4.39374 5.71486 22
264 2 -0.763261 6.61635 7.45645 17
265 2 -0.300499 1.62303 7.06094 21
266 2 -2.94877 0.345548 8.40715 18
267 2 -4.2716e-04 5.61783 10.1096 12
268 2 -1.40832 3.03284 9.17082 16
269 2 -4.11429 10.759 0.675026 9
270 2 -0.40389 5.98635 0.691636 19
271 2 -2.98719 6.69576 2.43031 19
272 2 -0.910769 11.0691 0.796807 9
273 2 0.366612 9.29986 5.56981 13
274 2 -0.47587 6.90636 4.05194 21
275 2 -2.35687 9.215 3.07908 15
276 2 1.72994 7.63302 7.88961 12
277 2 3.0934 6.17897 5.54395 19
278 1 -0.0803716 -5.15928 -9.57137 13
279 1 9.29518 -5.16912 -5.45966 8
280 1 2.77445 -6.23563 -8.17097 13
281 1 6.09112 -6.2613 -6.64794 12
282 1 1.54606 -9.16606 -3.00804 13
283 1 3.006 -6.51121 -4.87892 16
284 1 2.44218 -6.4397 -1.85924 19
285 1 5.71475 -6.47195 -3.4322 17
286 1 2.91606 -0.56877 -11.5378 9
287 1 2.95541 -3.52583 -10.0552 13
288 1 5.79238 -2.33935 -10.1075 7
289 1 2.36652 -1.23301 -8.0067 18
290 1 4.84075 -3.93773 -7.54818 20
291 1 1.61227 -3.69337 -5.86089 21
292 1 5.86667 -1.43396 -6.01017 19
293 1 2.87399 -0.778636 -4.65566 24
294 1 4.52802 -3.71766 -4.35129 21
295 1 1.77331 -4.02875 -2.93324 23
296 1 5.5072 -1.34305 -2.66084 24
297 1 2.74991 -1.05067 -1.23073 23
298 1 4.53468 -3.86882 -1.06089 24
299 1 8.69678 -7.0509 -1.69848 8
300 1 7.66799 1.19604 -5.85974 16
301 1 7.86402 -3.10633 -6.91658 12
302 1 7.39775 -3.95608 -3.00084 19
303 1 8.47035 -0.931196 -4.14176 21
304 1 10.7742 -1.79923 -5.84443 8
305 1 7.83296 -1.22411 -0.980106 19
306 1 10.2882 -4.37601 -1.24788 11
307 2 1.79774 -6.06899 -6.47336 15
308 2 7.88865 -6.12002 -6.19463 11
309 2 4.55029 -5.88689 -7.97751 12
310 2 4.79851 -6.76716 -5.24416 13
311 2 1.30888 -7.41636 -0.313341 18
312 2 6.90061 -7.01381 -1.66352 11
313 2 2.81687 1.27302 -10.7411 10
314 2 1.85357 -4.96103 -9.48433 14
315 2 6.66333 -2.99603 -8.58782 11
316 2 1.89633 -1.59133 -6.05152 20
317 2 3.40003 -2.84318 -8.25884 15
318 2 2.64466 -4.33389 -4.34727 22
319 2 4.64649 -1.66122 -4.50684 21
320 2 1.77354 -1.30471 -2.86341 23
321 2 5.51056 -4.56696 -2.91278 20
322 2 2.58282 -4.34226 -1.322 20
323 2 4.36583 -1.76836 -1.13291 23
324 2 9.09468 -5.03887 -2.66739 13
325 2 8.26707 1.09007 -4.07089 19
326 2 7.75799 -1.1986 -6.06939 13
327 2 9.72742 -3.44001 -6.18819 11
328 2 7.47923 -1.96006 -2.83957 20
329 2 9.7831 -6.15564 -0.426248 8
330 2 11.2306 -2.61511 -1.79283 12
331 1 1.03649 -8.95936 2.93223 12
332 1 5.72437 -7.05292 -0.0431575 14
333 1 4.18968 -8.18706 3.18345 11
334 1 2.75474 -8.5649 0.0870135 13
335 1 0.528147 -10.6103 0.0368593 11
336 1 7.15224 -6.02366 3.24529 14
337 1 2.23312 -7.80998 6.00278 10
338 1 0.182165 -7.21047 9.2107 11
339 1 1.31832 -3.84445 0.190853 21
340 1 5.31949 -1.40124 0.760006 18
341 1 2.73554 -2.04629 2.17152 20
342 1 4.1093 -4.75227 1.84761 20
343 1 1.43997 -4.08721 3.60716 19
344 1 5.27688 -2.73956 4.01409 21
345 1 2.39296 -2.10072 5.73699 23
346 1 4.14191 -5.55843 5.05772 17
347 1 1.09826 -4.84239 6.66831 20
348 1 5.63738 -1.62015 7.63096 15
349 1 2.51238 -1.48811 9.20491 16
350 1 4.01607 -4.03238 8.04565 14
351 1 0.972009 -4.25033 9.8983 15
352 1 10.3274 -5.56714 1.40629 9
353 1 7.22471 -4.11885 0.673925 20
354 1 11.613 -0.976907 -2.53217 11
355 1 9.42739 -0.624301 2.35591 13
356 1 11.4824 -2.14331 0.249633 9
357 1 9.03533 -4.06854 4.01953 13
358 1 8.3603 -1.39381 5.35682 11
359 1 6.71204 -4.31013 6.10232 12
360 2 5.8101 -7.36587 2.37625 13
361 2 4.0342 -6.9711 -0.723971 15
362 2 2.59628 -8.6032 2.02209 11
363 2 0.476203 -7.81249 4.63425 16
364 2 1.76871 -9.90461 -1.27546 12
365 2 3.58232 -7.35684 4.73394 12
366 2 -1.54063 -7.79477 8.28824 10
367 2 1.80979 -1.72725 0.190115 21
368 2 5.45149 -5.02518 0.39815 17
369 2 2.28403 -4.03748 1.80853 17
370 2 4.79166 -2.51449 2.23798 17
371 2 1.46023 -1.88203 3.68008 21
372 2 5.22785 -4.96195 3.44012 20
373 2 2.48932 -4.44603 5.29635 21
374 2 4.30669 -1.78343 5.41776 19
375 2 1.35014 -1.31929 7.46984 24
376 2 5.00836 -4.90177 6.67088 15
377 2 2.3385 -4.48139 8.53767 15
378 2 4.13781 -2.36688 8.67238 14
379 2 -0.375076 0.0960333 10.2223 15
380 2 8.59111 -5.03175 2.22749 13
381 2 7.9701 -5.46976 5.05634 11
382 2 6.91846 -2.31793 0.319673 15
383 2 10.8343 -3.75618 0.745357 11
384 2 10.548 -0.613829 0.821658 12
385 2 9.07539 -2.0715 3.71051 12
386 2 6.83093 -2.36208 5.87807 17
387 2 7.94777 0.13973 6.02316 12
388 1 3.884 2.62649 -9.81185 10
389 1 4.41192 5.37781 -8.05725 12
390 1 4.70608 1.37097 -7.1471 15
391 1 1.6151 1.62294 -6.08624 20
392 1 7.03501 3.6188 -8.1015 10
393 1 2.40135 3.73831 -4.10239 17
394 1 4.74066 1.8244 -4.31977 20
395 1 1.6633 1.17802 -2.80696 22
396 1 5.66007 4.29383 -2.2014 23
397 1 2.76405 3.98237 -0.69648 25
398 1 4.50179 1.39997 -0.781436 22
399 1 1.51552 4.9837 -8.27723 13
400 1 3.87631 8.22598 -6.1716 9
401 1 1.9143 6.46291 -5.6447 19
402 1 1.18121 9.56213 -3.9928 11
403 1 4.20595 5.82994 -4.13251 18
404 1 1.6284 6.69973 -2.38077 22
405 1 2.98678 9.68486 -1.03381 12
406 1 4.76216 7.26052 -0.647941 18
407 1 8.60695 4.06369 -4.60637 16
408 1 6.85645 6.24587 -5.98627 13
409 1 8.70838 4.14097 -0.750218 17
410 1 7.39368 1.58145 -2.21146 25
411 1 11.5904 3.21838 -2.44452 7
412 1 10.3654 1.23875 -4.04241 15
413 1 7.51503 6.8135 -2.59589 12
414 2 1.4865 -1.00163 -9.96531 13
415 2 3.08329 4.19341 -9.11049 12
416 2 2.89293 0.814289 -7.39512 20
417 2 5.53044 2.35516 -8.51976 11
418 2 6.10485 5.03711 -7.12565 13
419 2 1.19028 3.38688 -5.56367 18
420 2 5.72563 0.7626 -5.7341 18
421 2 2.80255 1.32108 -4.52403 19
422 2 4.70215 3.6853 -3.82819 20
423 2 1.54231 3.30317 -2.3123 22
424 2 5.5532 0.777135 -2.50662 24
425 2 2.70683 1.0026 -1.1305 22
426 2 4.53153 3.20881 -0.501536 22
427 2 3.11028 6.57216 -7.14393 13
428 2 5.08967 6.82191 -5.34241 13
429 2 2.4505 5.70792 -3.88954 20
430 2 2.49315 8.69397 -5.1417 11
431 2 2.00875 10.0845 -2.46326 9
432 2 5.41218 6.34191 -2.44877 18
433 2 2.68427 6.31626 -0.736443 21
434 2 4.63481 9.17304 -0.500268 13
435 2 5.98878 -3.77817 -5.79853 19
436 2 7.86196 6.14713 -4.30783 12
437 2 7.92581 3.17819 -6.36389 12
438 2 7.49708 3.52676 -2.33256 19
439 2 10.6857 -0.725555 -4.41739 11
440 2 8.51363 0.524784 -0.8006 21
441 2 10.2648 3.29628 -4.01474 12
442 2 8.12079 6.07498 -1.08338 14
443 1 1.88136 1.3823 0.456871 22
444 1 5.48561 4.10333 0.981809 21
445 1 2.55359 3.64949 2.6693 21
446 1 4.50249 1.24681 2.42592 21
447 1 1.5572 0.666961 3.71496 20
448 1 5.55712 3.35781 4.41094 20
449 1 2.6607 4.1326 6.0618 18
450 1 4.43409 0.252428 5.5192 19
451 1 1.28433 0.570198 7.15537 19
452 1 5.71978 4.08491 7.66198 14
453 1 2.63972 3.63582 9.30808 14
454 1 4.40019 1.06815 8.89117 13
455 1 1.35749 0.951657 10.9575 12
456 1 1.63362 5.85349 0.850015 18
457 1 5.64907 9.73893 1.27587 12
458 1 2.36464 8.89992 2.16472 19
459 1 4.35341 6.96836 2.34351 22
460 1 1.54936 6.0634 4.33406 22
461 1 5.07328 8.95181 4.31248 12
462 1 5.19941 6.15577 5.42161 15
463 1 2.83482 8.02915 6.45654 14
464 1 7.49936 1.415 1.09707 21
465 1 8.56211 4.00968 2.81333 12
466 1 10.3623 0.998472 -0.318464 15
467 1 7.41853 1.24128 4.40919 17
468 1 8.30001 4.39322 6.40025 10
469 1 7.24791 1.19399 7.34311 14
470 1 7.28977 6.55039 0.550772 17
471 1 7.45765 7.23166 3.30104 13
472 2 1.51099 3.67835 0.632553 19
473 2 5.53283 0.513824 0.829647 22
474 2 2.42691 1.44213 2.29409 22
475 2 4.44745 3.41706 2.42813 19
476 2 1.5518 3.88371 4.46569 19
477 2 5.47853 1.28469 4.18548 17
478 2 2.37179 0.39508 5.44103 17
479 2 4.61106 3.89757 5.877 19
480 2 1.61613 4.51979 7.75169 18
481 2 5.40974 0.477569 7.45491 17
482 2 2.62479 0.51246 9.62295 13
483 2 4.49987 2.97881 8.89098 11
484 2 1.14279 2.93042 10.4169 13
485 2 1.58903 9.96214 0.530842 12
486 2 5.20648 6.12833 0.825729 21
487 2 2.25051 6.71387 2.4871 20
488 2 4.18345 9.00723 2.55827 16
489 2 1.25505 10.2598 3.12831 13
490 2 6.93854 8.27695 1.50784 12
491 2 3.52711 9.2314 5.20416 14
492 2 5.66116 7.16244 3.91496 17
493 2 7.37699 3.6661 1.13821 20
494 2 11.1839 1.01026 -2.34387 13
495 2 8.32001 1.28456 2.60503 16
496 2 10.4407 3.0746 -0.836829 12
497 2 7.82864 3.5593 4.6985 16
498 2 7.51446 3.12624 7.57755 12
499 2 6.6483 5.4303 6.25221 10
500 2 8.12621 5.88941 2.1604 12
