ITEM: TIMESTEP
55000
ITEM: NUMBER OF ATOMS
1500
ITEM: BOX BOUNDS pp pp pp
-30.0 30.0
-30.0 30.0
-30.0 30.0
ITEM: ATOMS id type x y z Coordination
1 1 -15.7548 0.631525 -6.83392 9
2 1 -13.9586 -3.99001 -6.4883 10
3 1 -13.6809 -6.44659 -4.64796 14
4 1 -15.2051 -3.95318 -3.5976 10
5 1 -12.8735 -7.54682 -7.56571 11
6 1 -8.96536 -12.4864 -6.64926 9
7 1 -10.5181 -11.5381 -3.98531 12
8 1 -10.6903 -8.57726 -6.15637 17
9 1 -12.1758 -0.609152 -11.8004 10
10 1 -12.0001 -2.57786 -8.79934 17
11 1 -12.1291 -6.73121 -10.9725 7
12 1 -10.5188 -5.5781 -8.82533 19
13 1 -12.2329 -0.691994 -6.00029 22
14 1 -10.5775 -3.16856 -6.00969 21
15 1 -10.3158 -5.3951 -3.31739 22
16 1 -12.3614 -3.04645 -3.40679 23
17 1 -5.55724 -12.4346 -6.32621 19
18 1 -8.85742 -6.21054 -11.4503 13
19 1 -12.167 -10.8854 -6.31958 8
20 1 -6.6174 -11.0123 -9.32319 14
21 1 -8.65228 -8.30087 -8.59613 17
22 1 -8.93489 -6.07915 -5.73034 19
23 1 -7.36794 -9.50236 -6.4186 18
24 1 -7.3614 -11.3383 -3.59725 20
25 1 -8.35178 -8.07209 -3.44439 23
26 1 -5.45342 -2.48395 -14.3362 14
27 1 -10.6049 -3.78843 -11.2038 15
28 1 -8.83284 -0.156016 -11.2298 18
29 1 -7.32838 -3.33668 -11.7227 18
30 1 -7.22119 -5.35384 -8.70053 23
31 1 -8.68052 -2.32709 -8.65845 21
32 1 -8.61658 -0.67169 -6.1963 20
33 1 -7.10988 -3.54644 -6.05405 24
34 1 -6.69467 -5.43251 -3.16473 21
35 1 -8.85794 -2.73462 -3.21999 23
36 1 -3.44127 -15.0146 -7.01718 10
37 1 -4.82671 -14.1889 -3.75591 15
38 1 -5.50036 -5.87026 -11.2634 17
39 1 -3.73046 -10.1133 -10.8159 11
40 1 -3.98472 -12.3251 -8.64783 13
41 1 -5.47526 -8.21281 -8.73909 21
42 1 -5.31781 -6.5831 -6.16191 23
43 1 -3.60966 -9.41922 -6.19611 21
44 1 -3.91982 -11.291 -3.40081 22
45 1 -5.60423 -8.64747 -3.39123 20
46 1 -3.44619 -5.37261 -14.0695 13
47 1 -2.10944 -2.60819 -14.3329 17
48 1 -5.6766 -0.756317 -11.8279 20
49 1 -3.65502 -3.39339 -11.493 21
50 1 -3.45596 -5.27568 -8.64254 23
51 1 -5.53865 -2.75268 -8.86986 24
52 1 -5.0742 -0.799541 -6.21664 22
53 1 -3.76244 -3.44946 -6.09028 23
54 1 -3.13063 -5.43086 -3.36523 21
55 1 -5.05333 -2.89296 -3.35276 22
56 1 -2.15128 -12.6573 -6.1063 20
57 1 0.0198494 -14.8665 -6.64385 13
58 1 -1.88468 -14.2553 -3.64826 20
59 1 -0.811611 -7.31829 -13.6272 12
60 1 -2.47165 -6.99547 -11.3222 19
61 1 -0.377439 -9.61105 -11.3781 14
62 1 -0.354979 -11.4084 -8.67806 17
63 1 -1.92213 -8.63493 -8.82006 20
64 1 -2.00589 -6.38842 -6.23345 23
65 1 -0.464738 -9.50449 -5.93629 25
66 1 -0.426858 -11.5279 -3.15558 23
67 1 -1.983 -8.77815 -3.49897 22
68 1 -0.238586 -5.24288 -15.4746 11
69 1 0.00544404 -1.33137 -16.1324 8
70 1 -1.96729 -0.707016 -11.7462 20
71 1 -0.727723 -3.82635 -11.3657 21
72 1 -0.288704 -5.60634 -8.78326 23
73 1 -1.89713 -2.49693 -8.8287 22
74 1 -2.03738 -0.943063 -6.33397 24
75 1 -0.104691 -3.66688 -6.16514 22
76 1 -0.168888 -5.54419 -3.44535 24
77 1 -1.88928 -2.66803 -3.21463 24
78 2 -13.3041 -6.00421 -6.53139 14
79 2 -13.4639 -6.2426 -0.781606 15
80 2 -15.0197 -5.69316 -3.02628 10
81 2 -14.0331 0.276731 -6.14254 14
82 2 -13.7019 -4.47978 -4.55416 16
83 2 -12.1212 -9.28301 -7.39649 10
84 2 -10.7356 -11.8525 -6.68934 8
85 2 -9.67194 -11.2652 -1.90132 16
86 2 -11.4861 -9.97774 -4.72727 14
87 2 -10.5338 -7.40682 -4.58871 19
88 2 -8.60739 -12.1969 -4.70122 13
89 2 -9.9686 -4.769 -7.10678 20
90 2 -12.5455 -2.71723 -6.93732 16
91 2 -12.463 -0.877279 -9.67249 16
92 2 -10.2692 -3.12845 -9.40312 20
93 2 -10.3735 -5.75366 -1.338 22
94 2 -12.4027 -2.97588 -1.51371 22
95 2 -12.0245 -0.991468 -3.89474 20
96 2 -10.4268 -3.63583 -4.0953 21
97 2 -7.15503 -11.4645 -7.07586 17
98 2 -4.60332 -13.8594 -7.51894 12
99 2 -8.76676 -7.93512 -6.67926 20
100 2 -10.749 -5.60934 -11.4422 9
101 2 -8.54424 -6.6477 -9.70532 18
102 2 -6.96671 -11.3817 -1.5316 20
103 2 -8.64929 -8.54122 -1.49765 22
104 2 -8.3907 -6.11634 -3.60029 18
105 2 -7.26299 -9.45883 -4.17697 21
106 2 -7.25632 -5.22137 -12.2837 12
107 2 -11.4564 -2.34499 -11.8829 8
108 2 -6.97035 -5.4664 -6.46837 21
109 2 -8.72567 -2.56142 -6.72396 23
110 2 -8.81473 -0.396133 -9.45737 23
111 2 -7.28591 -3.61081 -9.68886 23
112 2 -6.79134 -5.48315 -1.14319 21
113 2 -9.13762 -2.53932 -1.27827 21
114 2 -8.7069 -0.915261 -4.27291 23
115 2 -6.94568 -3.46537 -3.83876 21
116 2 -7.06446 -9.21288 -9.17631 13
117 2 -4.61194 -14.262 -1.80843 15
118 2 -5.41726 -12.4082 -4.06839 18
119 2 -3.37643 -14.5799 -5.06882 15
120 2 -12.07 -6.72561 -9.08742 11
121 2 -3.82427 -9.00888 -9.27891 17
122 2 -5.36349 -8.58032 -6.73407 20
123 2 -5.5056 -6.33012 -9.43167 20
124 2 -2.14226 -8.97407 -11.8486 13
125 2 -3.44407 -11.5018 -1.22678 22
126 2 -5.51596 -8.67234 -1.28703 24
127 2 -5.26912 -6.68781 -3.99205 22
128 2 -3.9302 -9.42817 -3.98495 20
129 2 -3.81387 -5.89943 -12.2125 17
130 2 -5.50551 -2.79518 -12.0029 17
131 2 -5.76508 -0.65791 -14.1855 12
132 2 -4.03535 -3.62675 -14.3607 12
133 2 -3.73813 -5.35705 -6.63952 20
134 2 -5.44775 -2.64208 -6.7567 24
135 2 -5.48288 -0.877013 -9.19046 23
136 2 -3.57314 -3.57455 -9.5209 22
137 2 -3.6553 -5.62924 -1.57808 23
138 2 -5.07445 -2.87791 -1.4306 22
139 2 -5.14512 -0.902338 -3.93931 22
140 2 -3.46377 -3.56712 -4.00087 24
141 2 -3.76979 -11.4489 -6.76574 22
142 2 -4.88061 -11.313 -9.7465 10
143 2 -1.60582 -14.531 -1.63663 19
144 2 -2.38632 -12.1299 -4.10741 24
145 2 0.143463 -14.1791 -4.38184 18
146 2 1.17891 -8.72724 -11.7909 15
147 2 -1.85351 -6.08702 -14.5422 11
148 2 -0.460055 -11.4754 -6.77463 22
149 2 -2.15306 -8.45937 -6.7036 23
150 2 -2.24104 -6.63861 -9.34853 21
151 2 -0.334633 -9.59529 -9.44267 19
152 2 -0.283209 -11.7267 -1.25664 21
153 2 -1.61226 -8.49167 -1.43579 23
154 2 -1.86929 -6.72758 -4.14839 22
155 2 -0.266721 -9.26478 -3.98115 20
156 2 -0.510692 -6.0521 -12.1123 20
157 2 -2.0858 -2.49663 -12.4444 23
158 2 -1.77823 -0.79772 -15.1363 14
159 2 -0.206123 -3.31595 -15.2157 13
160 2 -0.0379218 -5.53334 -6.79858 22
161 2 -1.66964 -2.85424 -6.91119 23
162 2 -1.91268 -0.814967 -9.75354 23
163 2 -0.531343 -3.81871 -9.40086 22
164 2 -0.435038 -5.76705 -1.4968 25
165 2 -2.02226 -2.59686 -1.11151 23
166 2 -1.95151 -1.05577 -4.42225 25
167 2 -0.343039 -3.67014 -4.221 25
168 1 -14.6261 -7.14859 -1.88816 10
169 1 -11.8252 -8.446 -3.46112 17
170 1 -14.7515 -1.30823 -1.14343 13
171 1 -13.8189 -4.16374 -0.701837 18
172 1 -13.3348 -5.91763 2.17623 17
173 1 -15.1934 -2.906 1.73108 12
174 1 -15.0373 -1.23883 4.79544 13
175 1 -13.7312 -3.85733 4.36739 16
176 1 -13.4653 -5.96688 6.55544 9
177 1 -11.763 -6.88303 -0.526317 20
178 1 -10.2964 -9.78724 -0.86039 17
179 1 -9.90469 -11.91 1.86011 13
180 1 -12.0513 -8.92076 1.93152 13
181 1 -11.5217 -7.0881 4.65937 19
182 1 -10.0502 -9.96607 4.37767 16
183 1 -11.6943 -9.06499 6.85739 9
184 1 -11.864 -1.09264 -0.926967 22
185 1 -10.4098 -3.77048 -0.714929 23
186 1 -10.3314 -6.10158 2.0462 20
187 1 -11.8836 -2.95534 2.08167 25
188 1 -12.104 -0.954955 4.57186 22
189 1 -10.345 -3.82234 4.50191 22
190 1 -10.1084 -5.93348 7.19616 20
191 1 -12.0557 -3.06491 7.14223 17
192 1 -11.8803 -1.28339 10.2622 17
193 1 -10.4944 -3.72556 9.76078 15
194 1 -8.40569 -12.6339 -0.973719 13
195 1 -8.3829 -12.6242 4.6622 13
196 1 -8.47375 -6.45232 -0.749751 22
197 1 -7.13431 -9.38695 -0.955409 22
198 1 -6.80352 -11.7888 2.05508 21
199 1 -8.70788 -9.11296 1.81733 21
200 1 -8.69708 -6.98264 4.5388 21
201 1 -6.97749 -10.0039 4.6929 22
202 1 -6.4227 -12.1895 7.43837 14
203 1 -8.6259 -9.07811 7.35527 16
204 1 -8.54247 -7.07299 9.45746 15
205 1 -6.76511 -9.3769 10.6435 17
206 1 -8.56396 -0.82426 -0.75616 22
207 1 -6.70329 -3.59376 -0.493104 23
208 1 -6.79084 -6.04154 1.67986 19
209 1 -8.61217 -2.88938 1.94334 23
210 1 -8.55303 -0.983554 4.60299 23
211 1 -7.18686 -4.05185 4.37264 22
212 1 -6.98076 -5.63473 6.62886 23
213 1 -8.6649 -2.99736 7.26564 25
214 1 -8.7612 -1.00301 9.63232 22
215 1 -7.13186 -4.21211 10.0501 20
216 1 -6.90172 -5.87043 12.4469 13
217 1 -8.76682 -2.93156 11.947 13
218 1 -5.15085 -12.5791 -0.870245 20
219 1 -3.59767 -15.4462 -0.845301 13
220 1 -5.25657 -14.4923 1.91556 15
221 1 -4.89585 -12.707 4.80633 19
222 1 -3.60173 -15.4432 4.5564 12
223 1 -4.99709 -6.76608 -0.731157 23
224 1 -3.48057 -9.66534 -0.759538 21
225 1 -3.2985 -11.6992 1.91472 22
226 1 -5.09246 -8.69363 1.89472 20
227 1 -5.14088 -6.82861 4.82833 22
228 1 -3.24491 -9.70473 4.64402 22
229 1 -3.33162 -11.7776 7.02399 21
230 1 -5.02708 -9.01883 7.41099 22
231 1 -5.6919 -6.8172 9.64973 21
232 1 -4.04978 -10.4346 9.81336 22
233 1 -5.96824 -8.48427 13.201 11
234 1 -5.1654 -0.7902 -0.856053 22
235 1 -3.38539 -3.90322 -0.562612 22
236 1 -3.49004 -5.68492 2.16421 24
237 1 -5.23893 -2.80231 1.99929 24
238 1 -5.28141 -1.09193 4.68859 22
239 1 -3.89341 -3.90174 4.81641 24
240 1 -3.51343 -6.00861 7.28674 23
241 1 -5.36168 -3.23472 7.35715 23
242 1 -5.16746 -1.31793 10.0957 23
243 1 -3.71973 -4.24272 9.78173 19
244 1 -0.28259 -6.43799 12.2318 14
245 1 -3.65564 -5.891 12.3115 17
246 1 -2.10936 -12.5421 -0.640353 22
247 1 -0.303622 -15.5289 -0.672381 15
248 1 -1.8324 -14.8032 1.84298 18
249 1 -1.82385 -12.8533 4.45244 22
250 1 -0.167883 -15.4315 4.81624 12
251 1 -4.96729 -11.0427 12.6721 10
252 1 -4.76942 -13.4188 9.80345 11
253 1 -2.13315 -6.6314 -1.07157 20
254 1 0.0536806 -9.65693 -0.411461 22
255 1 -0.0717578 -11.7326 2.30414 23
256 1 -1.83511 -8.72888 2.06737 23
257 1 -2.21868 -6.76028 4.80516 23
258 1 -0.0259743 -9.84109 4.50394 22
259 1 -2.29302 -14.5484 7.45257 14
260 1 -1.8254 -8.96617 7.37198 23
261 1 -2.05817 -7.49457 9.65937 20
262 1 -0.409768 -9.72462 10.4133 16
263 1 -2.20538 -8.72646 12.6664 12
264 1 -2.18247 -0.733493 -0.552001 25
265 1 -0.584251 -3.90113 -0.323278 24
266 1 -0.29228 -6.17427 2.03806 23
267 1 -1.96665 -2.70845 2.10028 22
268 1 -1.85617 -0.978676 4.66676 22
269 1 -0.516181 -3.73058 4.79797 23
270 1 -0.150211 -6.06818 7.69041 21
271 1 -1.97794 -3.12664 7.48315 24
272 1 -2.23254 -1.05718 10.2167 23
273 1 -0.235934 -4.4575 9.88224 20
274 1 0.961687 -3.15643 12.79 21
275 1 -1.90266 -3.20452 12.5491 19
276 2 -11.5943 -8.63441 -1.40862 17
277 2 -13.6661 -7.85865 -3.46907 11
278 2 -13.1216 -5.88045 4.17471 16
279 2 -15.1329 -2.67028 3.65502 13
280 2 -15.0268 -3.12286 -1.82872 13
281 2 -13.4245 -4.03131 1.64399 18
282 2 -13.584 0.0295681 3.99146 19
283 2 -13.5294 -4.11234 6.45598 14
284 2 -9.7561 -11.8192 3.66863 13
285 2 -11.6686 -8.85519 3.82659 16
286 2 -11.9475 -6.89847 1.73445 17
287 2 -10.4383 -10.091 1.28884 17
288 2 -11.8341 -7.05613 6.69584 14
289 2 -10.039 -9.50319 6.30617 15
290 2 -10.0052 -5.67742 4.07227 22
291 2 -11.9945 -2.77301 4.11173 22
292 2 -11.4544 -1.08735 1.37444 22
293 2 -10.2819 -4.09148 1.3848 20
294 2 -9.76649 -5.57245 9.16127 16
295 2 -12.0828 -2.79414 9.16962 15
296 2 -12.0237 -1.11136 6.61187 22
297 2 -10.1953 -4.21933 6.82766 23
298 2 -7.02031 -3.98706 12.0769 16
299 2 -8.38626 -12.4813 0.997644 16
300 2 -7.74219 -13.0098 6.36003 8
301 2 -6.57551 -11.8876 3.9309 19
302 2 -8.44374 -8.93531 4.19311 21
303 2 -8.67558 -6.56249 1.31274 22
304 2 -7.01281 -9.41902 1.23505 22
305 2 -6.67826 -10.0412 12.4461 10
306 2 -8.29133 -9.07983 9.40357 13
307 2 -8.44383 -7.20441 6.46457 24
308 2 -6.61173 -10.072 6.89054 20
309 2 -6.92502 -7.011 11.079 14
310 2 -6.71859 -6.07086 4.14648 21
311 2 -8.60274 -2.82149 3.97582 22
312 2 -8.21429 -1.19252 1.23126 22
313 2 -6.85738 -3.91709 1.44549 19
314 2 -7.00291 -5.48701 8.6377 22
315 2 -8.57778 -3.08238 9.62038 21
316 2 -8.57035 -1.05705 6.93481 20
317 2 -7.02283 -3.68452 6.44931 23
318 2 -10.7647 -2.39616 11.8907 11
319 2 -5.225 -6.77402 12.9122 13
320 2 -4.83212 -14.3907 3.77947 13
321 2 -5.18957 -12.7103 1.33338 20
322 2 -3.70748 -15.2494 1.14161 15
323 2 -4.89449 -11.8608 8.42407 17
324 2 -3.34275 -11.7245 3.97967 23
325 2 -5.02503 -8.6048 4.20987 20
326 2 -4.93059 -6.8425 1.18778 22
327 2 -3.46691 -9.74121 1.29268 22
328 2 -3.17346 -14.336 9.09039 9
329 2 -5.15633 -8.80387 9.38123 22
330 2 -5.08202 -7.01347 6.71316 22
331 2 -3.24329 -9.67588 6.60974 23
332 2 -4.23285 -9.30951 13.0968 12
333 2 -4.84281 -11.8349 11.0419 12
334 2 -3.7505 -5.79098 4.17507 23
335 2 -5.32647 -2.92088 3.84382 23
336 2 -5.50848 -0.870161 1.20908 24
337 2 -3.2893 -3.99788 1.39236 23
338 2 -3.38229 -6.03707 9.35183 22
339 2 -5.40351 -3.32126 9.45869 23
340 2 -5.39851 -1.24342 6.72337 23
341 2 -3.64703 -4.11449 6.77518 21
342 2 -1.37299 -2.74316 14.3693 11
343 2 -2.12681 -7.09394 11.7109 17
344 2 -3.69478 -3.94927 12.0828 17
345 2 -0.317699 -4.56552 11.8982 19
346 2 -1.9358 -15.3246 3.72477 16
347 2 -1.61721 -12.7189 1.60626 19
348 2 -0.264754 -15.8112 1.15113 13
349 2 -2.03795 -12.3303 8.25768 19
350 2 -0.0138012 -12.0095 4.17189 22
351 2 -1.62326 -8.7177 4.18961 21
352 2 -1.95738 -6.68794 1.07518 24
353 2 -0.0289267 -9.72775 1.50619 22
354 2 -3.49261 -13.7884 6.07467 16
355 2 -2.18602 -9.77154 9.164 21
356 2 -1.72033 -6.67665 6.7483 22
357 2 -0.101413 -10.0976 6.58671 23
358 2 1.62869 -6.43534 11.6449 15
359 2 -0.648368 -13.7968 6.01845 16
360 2 -0.487517 -5.98733 3.93819 21
361 2 -2.32559 -2.88449 4.12395 22
362 2 -2.02949 -0.665383 1.5477 23
363 2 -0.432904 -3.5682 1.60804 22
364 2 -0.310166 -6.45002 9.6582 20
365 2 -2.38176 -2.8036 9.3019 22
366 2 -1.76888 -1.28644 6.59407 22
367 2 -0.327513 -4.07319 6.83013 23
368 2 3.19024 -4.34277 12.189 19
369 2 -1.18041 -10.3314 12.0897 11
370 2 -2.26674 -1.13159 12.451 20
371 2 0.920152 -1.24167 12.0097 21
372 1 -13.801 0.479088 -9.26176 11
373 1 -13.2085 1.88316 -6.16065 19
374 1 -13.0133 0.674156 -3.23009 17
375 1 -15.323 3.33881 -4.70508 12
376 1 -13.1644 9.30399 -6.10138 9
377 1 -14.0993 6.07064 -4.61038 11
378 1 -8.42555 4.93413 -11.458 15
379 1 -10.5637 0.371509 -8.58803 22
380 1 -12.0478 3.31053 -8.4204 13
381 1 -11.7148 4.94377 -5.9595 23
382 1 -10.1826 2.04417 -6.17437 23
383 1 -10.3332 -0.0636946 -3.4789 22
384 1 -11.9716 3.31135 -3.46295 21
385 1 -12.5259 7.30356 -8.85396 11
386 1 -10.4355 7.96689 -6.2524 21
387 1 -10.33 5.75496 -3.39024 23
388 1 -11.946 7.79968 -3.64593 19
389 1 -10.7703 11.3287 -3.91314 11
390 1 -6.92926 0.720148 -14.012 14
391 1 -10.2736 2.07334 -11.0802 14
392 1 -9.94227 8.31019 -11.4396 8
393 1 -6.93203 2.18418 -11.1918 24
394 1 -7.00173 0.110666 -8.55873 24
395 1 -8.4273 3.16577 -8.72243 24
396 1 -8.4063 5.05262 -6.11862 22
397 1 -7.03882 2.09678 -5.8149 22
398 1 -6.96039 0.062475 -3.60039 23
399 1 -8.6096 2.95382 -3.59401 22
400 1 -6.30671 4.26343 -13.7713 13
401 1 -10.0797 5.9122 -8.77467 21
402 1 -6.83577 5.8582 -8.73095 21
403 1 -8.85903 8.7315 -8.88344 17
404 1 -8.32292 10.6035 -6.38719 17
405 1 -6.83067 7.5219 -6.02591 22
406 1 -6.71975 5.87241 -3.26136 23
407 1 -8.76937 8.79796 -3.7762 22
408 1 -6.08662 12.5105 -8.34599 12
409 1 -6.63512 13.8399 -6.11288 12
410 1 -7.20881 11.8753 -3.61368 19
411 1 -3.76266 -0.0200971 -14.405 16
412 1 -4.77451 2.67903 -15.5501 10
413 1 -5.0735 5.30722 -11.4465 22
414 1 -3.68339 2.22415 -11.6275 23
415 1 -3.73982 0.195404 -9.06127 21
416 1 -5.13081 3.22947 -8.49663 23
417 1 -4.95502 4.83479 -5.91235 24
418 1 -3.55712 1.8979 -6.37908 21
419 1 -3.51051 -0.173764 -3.28565 24
420 1 -5.15482 2.77856 -3.28339 24
421 1 -3.2865 6.03032 -14.2501 13
422 1 -6.33808 10.0075 -10.7086 11
423 1 -3.71249 7.9763 -11.2898 17
424 1 -3.50876 5.89544 -8.44521 25
425 1 -4.92636 8.44878 -8.34536 21
426 1 -5.45925 10.7849 -5.87519 23
427 1 -3.34218 7.9166 -5.81139 22
428 1 -3.61706 5.63271 -3.36946 22
429 1 -5.09117 8.90538 -3.40121 20
430 1 -3.51143 11.4089 -8.51621 21
431 1 -3.88834 13.3757 -5.89646 18
432 1 -3.54279 11.5789 -3.23977 23
433 1 -5.49764 14.7156 -3.21014 13
434 1 -0.188857 0.627321 -13.9946 20
435 1 -2.20842 3.28005 -13.9084 17
436 1 -1.49994 5.07635 -11.6272 21
437 1 -0.19832 2.08047 -11.2061 24
438 1 -0.386869 0.194015 -9.02061 21
439 1 -2.14503 3.16769 -8.91219 22
440 1 -1.69387 4.87622 -5.92599 23
441 1 -0.543744 1.95752 -6.19725 22
442 1 -0.384012 -0.223465 -3.7007 21
443 1 -2.02445 2.76386 -3.3527 23
444 1 0.24943 5.91291 -14.1848 12
445 1 -7.11746 7.73727 -11.8155 14
446 1 -1.37528 11.571 -10.5778 9
447 1 -0.0915562 8.27666 -11.418 17
448 1 -0.418074 6.06776 -8.89397 22
449 1 -1.74303 8.53267 -8.57754 21
450 1 -2.0006 10.704 -5.99241 21
451 1 -0.30523 7.85073 -5.91606 24
452 1 -0.46089 5.67173 -3.06211 22
453 1 -1.98807 8.63264 -3.15081 23
454 1 0.151244 12.2057 -8.21991 16
455 1 -0.59294 13.3428 -5.98249 14
456 1 -0.481135 11.19 -3.08979 23
457 1 -2.23234 14.377 -3.38338 15
458 2 -15.6673 -0.0480868 -8.60345 7
459 2 -13.1811 1.82242 -8.24036 15
460 2 -13.4835 0.154227 -1.47289 18
461 2 -14.9127 4.8221 -3.59858 11
462 2 -13.4363 2.21084 -4.17035 21
463 2 -15.9999 2.41022 -6.0947 8
464 2 -12.08 8.45256 -7.22061 14
465 2 -13.806 5.41447 -0.487921 15
466 2 -13.3668 7.82871 -5.09572 12
467 2 -10.686 0.537127 -11.8169 10
468 2 -10.4598 -0.033845 -6.71936 23
469 2 -11.8065 3.15652 -6.32434 19
470 2 -11.8282 5.26177 -8.52118 13
471 2 -10.1729 2.20726 -8.98647 20
472 2 -10.2229 -0.0109907 -1.52195 23
473 2 -12.1546 2.84426 -1.41905 21
474 2 -12.192 5.31088 -4.11361 20
475 2 -10.4564 2.09203 -3.68066 21
476 2 -10.0946 5.6517 -6.60009 22
477 2 -11.7363 10.1723 -4.88892 14
478 2 -10.6138 7.88279 -9.52505 13
479 2 -10.4273 5.84858 -1.27098 21
480 2 -12.3954 8.42248 -1.51292 17
481 2 -8.86288 10.7177 -4.41389 17
482 2 -10.2356 7.77262 -4.32597 23
483 2 -10.6459 11.0249 -1.85803 15
484 2 -7.16061 0.121595 -12.1184 18
485 2 -8.63532 2.94979 -11.3302 17
486 2 -6.38856 2.47418 -14.5519 13
487 2 -6.74892 0.322596 -6.65466 25
488 2 -8.60764 3.08766 -6.36786 20
489 2 -8.43526 4.98842 -9.41234 23
490 2 -6.7364 2.15881 -8.9627 20
491 2 -6.96756 0.114542 -1.37659 25
492 2 -8.35567 2.98384 -1.58765 24
493 2 -8.59471 5.04677 -3.9378 22
494 2 -6.8409 1.93751 -4.00033 21
495 2 -6.76932 5.67071 -12.3826 17
496 2 -6.70768 5.60833 -6.71911 23
497 2 -8.78091 8.74703 -7.03651 20
498 2 -8.42412 9.46336 -10.7473 10
499 2 -6.82744 7.91911 -8.66839 20
500 2 -7.25696 6.02301 -1.33188 20
501 2 -8.73566 8.65167 -1.62769 21
502 2 -6.93789 11.8683 -6.77825 15
503 2 -6.57272 7.92036 -3.97795 21
504 2 -4.9903 13.8936 -7.75937 12
505 2 -7.29062 11.8313 -1.43362 17
506 2 -6.74832 13.78 -4.3127 13
507 2 -3.88426 0.167742 -12.0724 23
508 2 -5.35914 3.05311 -12.1575 22
509 2 -4.44108 4.49011 -14.5322 13
510 2 -3.34425 1.74151 -14.7031 15
511 2 -3.46736 0.138262 -7.04105 25
512 2 -5.19876 2.94718 -6.38166 21
513 2 -5.13867 5.03762 -9.42285 24
514 2 -3.73454 2.16379 -9.59185 23
515 2 -3.70117 0.458387 -1.45159 22
516 2 -5.60096 3.01136 -1.2939 23
517 2 -5.11389 4.79503 -3.8918 23
518 2 -3.5456 1.76772 -4.11676 25
519 2 -3.58291 6.31148 -12.2572 18
520 2 -8.90483 6.78392 -11.8411 12
521 2 -2.90675 6.2226 -6.59066 21
522 2 -5.10651 8.70964 -6.44129 23
523 2 -5.2459 11.1596 -9.42593 16
524 2 -3.40051 7.94249 -9.23292 21
525 2 -3.74167 5.73943 -1.34865 24
526 2 -5.31485 8.83592 -1.29165 23
527 2 -5.51752 11.0803 -3.96727 21
528 2 -3.5016 7.56989 -3.85305 22
529 2 -3.78009 11.5647 -6.34497 23
530 2 -3.57527 11.5615 -1.24289 23
531 2 -5.26475 14.1568 -1.04189 15
532 2 -3.96229 13.6972 -3.7381 17
533 2 -0.146392 0.17464 -12.0664 21
534 2 -1.79521 3.12954 -11.9462 23
535 2 -1.5727 5.27108 -14.0765 12
536 2 -0.194371 2.47154 -14.4533 15
537 2 -0.416292 0.0333815 -6.66819 23
538 2 -2.06709 3.12472 -6.73255 22
539 2 -1.92647 5.12445 -9.63805 25
540 2 -0.567617 2.09783 -9.2409 23
541 2 -0.387009 0.0861713 -1.46403 24
542 2 -1.90409 2.91114 -1.31718 24
543 2 -1.87656 4.69512 -3.98972 23
544 2 -0.504102 1.83021 -4.28206 23
545 2 -0.0367844 6.4004 -12.1418 18
546 2 -5.36326 8.68718 -11.6246 11
547 2 -0.0449544 5.83219 -6.91698 25
548 2 -1.70847 8.96744 -6.71613 23
549 2 -2.83701 12.8596 -9.76182 11
550 2 -0.0799879 8.02773 -9.52861 21
551 2 -0.0417873 5.67876 -1.19819 21
552 2 -1.96146 8.75704 -1.03434 23
553 2 -2.03798 10.405 -3.88091 22
554 2 -0.424297 7.62885 -3.61411 22
555 2 -0.292201 11.5615 -6.57767 20
556 2 -2.33632 14.0773 -6.8451 14
557 2 -1.84205 10.4585 -9.32071 17
558 2 -0.388946 11.5501 -1.2458 24
559 2 -2.12806 13.7153 -1.59561 17
560 2 -0.412761 13.5512 -4.06877 19
561 1 -14.8305 4.31066 -1.6118 15
562 1 -13.5928 1.85994 -0.44314 19
563 1 -13.8161 0.123099 2.17091 20
564 1 -15.219 2.93601 1.6491 13
565 1 -13.7706 1.73313 4.93767 16
566 1 -15.3289 4.67883 4.25982 8
567 1 -12.9767 0.0254867 7.90678 17
568 1 -13.7035 7.31354 -0.517647 14
569 1 -13.5416 5.69216 1.77293 19
570 1 -13.389 7.71866 3.66452 12
571 1 -13.5864 1.99898 10.0687 9
572 1 -11.802 4.60892 -0.716892 23
573 1 -10.451 1.91694 -0.995537 24
574 1 -10.0919 0.0454456 1.76322 21
575 1 -11.9055 2.91851 2.04731 24
576 1 -12.046 4.92057 4.81728 19
577 1 -10.2521 1.8639 4.38469 19
578 1 -10.2201 -0.115672 7.07253 21
579 1 -11.608 2.72696 6.84983 19
580 1 -11.9608 4.77116 8.8885 11
581 1 -10.6693 1.84511 10.1635 19
582 1 -10.1239 -0.392603 12.9144 11
583 1 -12.3773 10.3994 -1.24763 11
584 1 -10.3251 7.8645 -0.732515 23
585 1 -10.239 5.72129 2.05323 24
586 1 -11.818 8.73051 1.81202 19
587 1 -11.9124 10.8741 4.08619 9
588 1 -10.2932 7.81389 4.77883 22
589 1 -10.286 5.8492 7.33369 17
590 1 -9.24996 9.10293 7.60181 16
591 1 -10.1268 7.451 10.035 13
592 1 -10.3283 11.741 1.30632 13
593 1 -8.7316 4.93994 -0.913291 23
594 1 -6.88862 1.87471 -0.526492 25
595 1 -6.90972 0.0825744 2.18323 24
596 1 -8.93203 2.83901 1.96892 20
597 1 -8.62711 4.73266 4.65787 24
598 1 -6.75503 1.92426 4.76701 23
599 1 -6.95623 0.0632167 7.081 23
600 1 -8.56859 2.62519 7.56697 23
601 1 -8.50171 4.6853 9.91751 18
602 1 -7.04462 1.73039 10.1206 21
603 1 -5.26018 -2.98669 12.2946 16
604 1 -8.84147 2.62989 12.3696 11
605 1 -8.76359 10.757 -1.16175 18
606 1 -6.96119 7.84201 -0.553571 24
607 1 -7.3434 5.5647 1.79427 20
608 1 -8.69622 8.81784 1.81012 22
609 1 -8.72976 10.7232 4.70116 19
610 1 -7.09985 7.85646 4.38608 22
611 1 -7.13463 5.57472 7.45946 22
612 1 -7.28414 7.55462 9.82205 22
613 1 -5.94794 8.69823 12.6729 12
614 1 -8.29494 6.20283 12.9767 11
615 1 -7.07617 13.7606 -0.597648 13
616 1 -6.90157 11.6341 2.09552 21
617 1 -6.63172 13.5048 4.67064 14
618 1 -7.07308 11.7523 7.3535 16
619 1 -5.32972 4.93634 -0.687922 23
620 1 -3.7026 2.1529 -0.639576 25
621 1 -3.84259 -0.0596124 2.00944 25
622 1 -5.34995 2.91815 1.91298 23
623 1 -5.33643 4.84872 4.59362 24
624 1 -3.65925 1.77165 4.83028 24
625 1 -3.99154 -0.0332933 7.38108 22
626 1 -5.03661 2.93215 7.38245 23
627 1 -5.3042 4.66989 10.1679 19
628 1 -3.7135 1.84747 10.4065 25
629 1 -3.74563 -0.0729511 13.1463 14
630 1 -6.76333 -0.135496 12.5242 15
631 1 -5.43983 11.0695 -0.685153 21
632 1 -3.60609 7.64322 -0.589287 23
633 1 -3.83147 6.13446 1.96079 23
634 1 -5.39151 8.95772 1.90122 21
635 1 -5.12813 10.8292 4.86444 23
636 1 -3.96147 7.8611 4.62835 22
637 1 -3.65243 5.96463 7.34634 24
638 1 -5.37282 8.61373 7.3106 22
639 1 -8.17324 10.2766 10.2976 12
640 1 -3.9591 7.70116 10.2 25
641 1 -4.78349 6.39941 13.2389 11
642 1 -5.59982 10.5929 9.83763 17
643 1 5.29762 16.2683 -0.483504 8
644 1 -3.73681 11.4735 2.1211 23
645 1 -4.99569 14.3049 2.2069 15
646 1 -3.43946 13.6463 4.94976 17
647 1 -5.11984 13.9042 8.18594 10
648 1 -1.94197 4.84911 -0.66892 21
649 1 -0.353793 1.91299 -0.683541 22
650 1 -0.302558 0.0382299 1.98567 23
651 1 -2.34535 2.99104 1.96986 23
652 1 -1.95118 4.93016 4.66973 25
653 1 -0.55203 2.00896 4.75184 24
654 1 -0.437434 -0.0873465 7.50724 24
655 1 -2.09038 2.8786 7.49444 24
656 1 -2.25809 4.81942 9.99642 22
657 1 -1.02613 1.77861 10.1477 20
658 1 -0.572481 0.039084 12.5987 17
659 1 -3.45248 3.64294 13.0845 10
660 1 -1.97417 10.8452 -0.418034 24
661 1 -0.00787732 7.47582 -0.326126 23
662 1 -0.356163 5.72009 1.88413 22
663 1 -1.92082 8.75883 2.08168 24
664 1 -1.94042 10.7216 4.69625 23
665 1 -0.256829 7.69835 4.52927 23
666 1 -0.512203 5.77693 7.62419 25
667 1 -1.83663 8.72999 7.43725 22
668 1 -2.36565 10.76 9.76155 16
669 1 -0.558911 7.92946 9.77389 24
670 1 -0.54093 5.98529 12.0085 13
671 1 -2.43664 9.07761 12.5119 13
672 1 -0.296491 13.4789 -0.718719 19
673 1 -3.53636 13.5637 -0.496993 20
674 1 -0.139095 11.6984 2.15117 24
675 1 -1.81286 14.0392 2.0979 17
676 1 -0.378892 13.691 5.01245 18
677 1 -0.276876 11.756 7.39517 19
678 1 -3.70952 11.2456 7.25052 19
679 1 0.181592 13.7468 8.85129 10
680 2 -14.657 -1.21849 0.991355 16
681 2 -15.2722 4.85446 2.32979 12
682 2 -15.2635 2.88776 -0.251336 13
683 2 -13.4885 1.98543 1.70419 19
684 2 -13.1849 1.55869 6.91695 18
685 2 -14.9711 2.96421 4.48357 12
686 2 -13.6287 5.82932 4.12936 15
687 2 -13.533 7.80284 1.58926 14
688 2 -10.0314 -0.13092 3.5604 23
689 2 -11.8021 2.85066 4.79906 17
690 2 -12.111 4.50795 1.1389 24
691 2 -10.2021 1.96009 0.876944 23
692 2 -10.4169 -0.138441 9.03055 26
693 2 -12.1959 2.96885 9.44308 13
694 2 -11.6893 4.71698 6.83987 16
695 2 -10.1117 1.7108 6.73097 23
696 2 -12.9949 0.18658 9.80683 12
697 2 -10.5593 5.89714 4.08445 23
698 2 -11.6323 9.04849 3.73764 16
699 2 -11.8466 10.2893 0.776897 15
700 2 -10.4186 7.47495 1.2743 24
701 2 -9.14739 8.92188 9.53027 14
702 2 -9.6935 7.51155 6.57807 18
703 2 -10.1848 11.3529 3.58299 13
704 2 -6.7356 -0.108125 4.1853 21
705 2 -8.51867 2.62722 4.29752 22
706 2 -8.88458 4.78239 1.02462 24
707 2 -7.10339 2.03676 1.55762 21
708 2 -7.06495 0.0246692 9.22877 23
709 2 -9.09543 2.97339 9.44502 22
710 2 -8.66976 4.94685 6.57009 22
711 2 -6.68033 2.16641 6.84875 22
712 2 -8.53665 -1.06364 11.9522 19
713 2 -10.477 5.89472 9.28891 16
714 2 -7.16822 1.59324 12.1392 16
715 2 -7.13745 5.62486 3.71432 24
716 2 -8.53928 8.84935 3.78989 22
717 2 -8.77229 10.5563 0.985934 22
718 2 -7.00576 7.65969 1.50662 21
719 2 -6.91313 5.64139 9.54463 23
720 2 -8.62315 7.30084 11.1875 13
721 2 -8.40406 10.4518 6.57403 17
722 2 -6.36876 7.09467 6.51266 20
723 2 -6.4992 6.97468 13.4788 9
724 2 -6.77282 11.575 3.93336 21
725 2 -6.88191 13.4319 1.50553 15
726 2 -7.15706 11.4818 9.17328 15
727 2 -6.29531 13.748 6.69319 12
728 2 -3.57595 -0.201796 4.00688 25
729 2 -5.07921 2.90193 4.08689 21
730 2 -5.43267 4.97135 1.24236 24
731 2 -3.88159 1.88773 1.28192 22
732 2 -3.86837 -0.0404962 9.46049 23
733 2 -5.48979 2.81553 9.38783 23
734 2 -5.28146 4.822 6.41988 24
735 2 -3.69635 1.74732 6.85996 23
736 2 -4.97768 -1.12116 12.1253 16
737 2 -8.90442 4.51191 12.1043 14
738 2 -10.2262 1.33002 12.1887 15
739 2 -4.91662 4.68488 12.1125 16
740 2 -3.52049 5.86049 3.84053 22
741 2 -5.33204 9.02931 3.995 23
742 2 -5.4501 10.6531 1.10376 24
743 2 -3.59458 7.97801 1.36909 22
744 2 -3.7252 5.75326 9.59479 23
745 2 -6.6219 9.95104 11.465 12
746 2 -5.5729 10.5656 6.86082 22
747 2 -3.38697 7.67267 6.5682 24
748 2 -4.24409 8.08191 12.1546 15
749 2 -4.06796 11.3965 9.31647 17
750 2 -3.45613 11.6659 4.20692 24
751 2 -5.12571 14.3825 4.07964 14
752 2 1.35275 13.868 -1.56924 16
753 2 -5.72123 8.21365 9.2086 22
754 2 -3.81786 13.2269 6.74793 17
755 2 -0.396034 0.0635732 3.96594 25
756 2 -2.19432 2.85118 4.08502 22
757 2 -2.3779 4.85153 1.13832 22
758 2 -0.48506 1.98999 1.4285 23
759 2 -0.774892 0.0559168 9.44604 23
760 2 -2.35367 2.93831 9.50981 22
761 2 -2.21499 4.76209 6.85359 22
762 2 -0.415335 1.88627 6.69612 24
763 2 0.974659 -0.0485319 15.1975 13
764 2 -2.14276 4.96174 12.2958 18
765 2 -3.52036 1.78688 12.4355 16
766 2 -0.181236 1.57072 11.7919 21
767 2 -0.515926 5.80625 4.02342 22
768 2 -2.0997 8.51628 4.31847 22
769 2 -1.89552 10.713 1.71118 21
770 2 -0.395254 7.5406 1.516 21
771 2 -0.65707 5.98293 9.60278 22
772 2 -2.5086 8.68133 9.39497 23
773 2 -1.66633 10.4986 7.01343 24
774 2 -0.233044 7.50393 6.61326 23
775 2 1.90989 7.23307 11.8275 14
776 2 -1.8163 10.6867 11.6924 13
777 2 -0.832286 7.88313 12.0092 16
778 2 -0.193371 11.6472 4.10932 25
779 2 -1.87709 14.2007 3.92441 16
780 2 -0.275566 13.6058 1.33965 18
781 2 -3.55425 13.6979 1.41369 19
782 2 -0.353881 11.7457 9.44605 17
783 2 -0.154162 13.8088 7.07704 16
784 1 0.705255 -12.1682 -5.33616 22
785 1 4.9315 -14.3777 -3.30132 16
786 1 3.40319 -15.4866 -6.46233 9
787 1 2.9568 -8.6215 -12.336 13
788 1 1.13472 -6.78986 -11.1628 22
789 1 3.0774 -11.0632 -9.78209 17
790 1 2.16437 -13.0351 -7.85449 15
791 1 1.28338 -8.55916 -8.85648 21
792 1 1.08776 -6.79685 -5.94726 23
793 1 3.05202 -9.86302 -6.30201 23
794 1 3.28143 -11.3748 -3.32618 23
795 1 1.48734 -8.51845 -3.20593 24
796 1 2.73078 -6.25969 -13.9977 14
797 1 1.37422 -2.88025 -14.0304 21
798 1 1.09479 -1.1169 -11.324 22
799 1 2.90768 -3.9946 -11.3909 22
800 1 3.01588 -5.66495 -8.51791 24
801 1 1.3308 -2.61015 -8.68102 23
802 1 1.361 -0.905385 -6.38889 25
803 1 3.12046 -3.97853 -5.91396 23
804 1 2.89039 -5.95899 -3.23681 21
805 1 1.42721 -3.00113 -3.164 24
806 1 4.13538 -12.6635 -5.7173 20
807 1 8.38257 -14.6819 -3.17699 10
808 1 4.99557 -6.94991 -11.6324 16
809 1 5.81624 -10.0463 -10.756 10
810 1 5.90545 -12.977 -8.69025 9
811 1 4.49795 -8.38905 -8.69327 22
812 1 4.79558 -6.95364 -5.88711 24
813 1 6.18297 -9.75942 -6.13076 19
814 1 6.64865 -11.5539 -3.16738 22
815 1 4.62579 -8.55756 -3.30181 24
816 1 8.16601 -6.80426 -11.1918 14
817 1 4.46657 -2.98242 -13.5138 15
818 1 4.6997 -1.2151 -11.1697 24
819 1 6.03873 -3.81446 -10.914 18
820 1 6.55007 -5.52182 -8.54253 22
821 1 4.54599 -2.79868 -8.15796 23
822 1 4.6835 -0.745256 -5.90204 23
823 1 6.36352 -4.08923 -5.92717 21
824 1 6.36601 -5.79795 -3.33748 21
825 1 4.66057 -3.22495 -3.49962 20
826 1 7.77455 -12.9963 -5.73043 15
827 1 11.5126 -9.1928 -7.6113 12
828 1 8.11714 -8.7173 -8.48601 17
829 1 8.30972 -6.8201 -5.85733 23
830 1 9.30114 -9.79256 -5.52068 20
831 1 10.1696 -11.8856 -3.79035 15
832 1 8.09146 -8.35578 -2.77718 20
833 1 9.29473 -3.85342 -12.5977 9
834 1 8.17289 -1.24929 -11.1679 18
835 1 11.4216 -5.07477 -10.9912 12
836 1 9.99401 -6.01004 -8.5582 19
837 1 8.05427 -2.98331 -8.21565 20
838 1 8.32608 -1.12478 -5.61505 23
839 1 9.95084 -3.8303 -5.70721 22
840 1 9.80409 -6.03618 -2.97061 23
841 1 7.9982 -2.77578 -3.25272 20
842 1 9.57596 -11.9909 -7.94745 8
843 1 11.5838 -6.85828 -5.36508 18
844 1 11.518 -9.07981 -3.07084 14
845 1 11.2706 -1.52239 -10.8982 14
846 1 13.1499 -6.34547 -8.31111 10
847 1 11.5653 -3.26671 -8.08718 20
848 1 11.7025 -1.27877 -5.42425 22
849 1 13.2482 -4.34205 -5.36396 14
850 1 13.0294 -5.90862 -2.79318 16
851 1 11.5913 -3.06233 -2.78488 23
852 1 15.1389 2.15222 -8.10704 10
853 1 14.7681 -2.72598 -3.09799 13
854 2 -1.63996 -14.4062 -7.29008 14
855 2 1.31202 -12.0734 -9.48831 11
856 2 1.17604 -14.5875 -1.59213 16
857 2 1.50845 -11.8955 -3.53535 20