ITEM: TIMESTEP
291000
ITEM: NUMBER OF ATOMS
1500
ITEM: BOX BOUNDS pp pp pp
-30.0 30.0
-30.0 30.0
-30.0 30.0
ITEM: ATOMS id type x y z Coordination
1 1 -4.04637 -4.10191 -13.4708 10
2 1 -14.3295 -6.40227 5.95331 14
3 1 -11.3562 -6.62177 -2.95997 17
4 1 -16.712 -1.26791 -0.460691 13
5 1 -13.1761 -2.46802 -6.66496 20
6 1 -6.64358 -10.3155 4.85763 16
7 1 -4.88628 -6.2699 -0.287359 17
8 1 -8.67203 -0.972401 -4.75588 20
9 1 -3.83864 5.35617 -15.1284 9
10 1 -9.55933 -4.14015 -3.73232 19
11 1 -9.49463 0.139855 -13.027 12
12 1 -3.7832 -3.32512 -10.5834 20
13 1 -8.8485 4.63228 -8.65209 19
14 1 -17.0117 -3.84717 -6.67528 9
15 1 -7.42511 -12.775 -8.12632 7
16 1 -11.2914 -5.99482 0.768018 15
17 1 -5.0822 -13.4808 -2.43526 17
18 1 -3.80197 7.35542 -10.9406 14
19 1 -7.31162 -9.28245 -7.41546 14
20 1 -4.32995 -8.44292 -6.97178 18
21 1 -6.81196 -10.6126 -2.99727 19
22 1 -6.62259 -12.5281 -5.05056 14
23 1 -2.97574 -8.84301 -10.2183 13
24 1 -2.3376 -12.2012 0.432738 17
25 1 -9.38096 -6.67736 -5.56959 20
26 1 -5.82718 12.4753 -8.04646 14
27 1 -7.15912 -0.876944 -7.95508 21
28 1 -0.154869 7.18022 -10.0418 17
29 1 -5.01395 -7.22174 -12.6992 10
30 1 0.498879 -9.96489 -9.59943 17
31 1 -5.34439 -3.16751 -8.16037 19
32 1 -6.87636 -3.3635 -5.68923 19
33 1 -9.60863 -6.91828 -8.79172 11
34 1 -9.47834 -9.40116 -3.81442 16
35 1 -16.8986 2.1104 -5.01114 14
36 1 -1.58535 -17.5606 -4.07205 8
37 1 -5.10169 -13.0128 3.73529 16
38 1 -14.4957 -4.76743 -8.18781 9
39 1 3.65258 3.38655 -13.6712 16
40 1 -6.0585 -7.93474 -3.85455 20
41 1 -0.240808 -10.1657 -4.46451 18
42 1 -9.51849 -11.1785 -5.83278 11
43 1 -2.10845 -10.2552 -7.51544 16
44 1 0.561654 -14.8424 -4.59527 16
45 1 -5.0565 -10.2937 2.21421 19
46 1 -1.97823 4.06235 -13.7591 17
47 1 -1.86387 7.49665 -12.8103 13
48 1 -11.7549 -4.89669 -6.11126 21
49 1 -7.36235 -2.24749 -2.62265 16
50 1 -12.7185 -2.96162 0.975627 14
51 1 -1.98559 -1.02923 -9.81815 16
52 1 -5.25382 -0.204473 -1.988 15
53 1 -1.86314 -3.85089 -5.15706 16
54 1 -4.35782 -2.94437 1.64548 15
55 1 -4.56428 -2.94395 -1.28296 16
56 1 0.332753 -16.6196 -1.30257 12
57 1 5.78851 -12.147 -6.37955 13
58 1 -3.86942 -12.3615 -6.84923 13
59 1 2.53492 -7.75094 -6.5646 18
60 1 0.305225 10.7929 -10.3505 12
61 1 -7.94552 -14.5728 -3.87212 8
62 1 3.00272 -9.74711 -12.3097 10
63 1 -4.2054 -0.514745 -12.5856 17
64 1 -1.6875 -6.39405 -12.9109 12
65 1 0.286068 -5.19196 -7.02131 21
66 1 -6.87449 -4.49557 2.02557 14
67 1 -6.53531 -5.28697 -2.58575 17
68 1 -9.5125 2.51789 -14.0657 10
69 1 -7.39703 3.1844 -10.5005 19
70 1 -6.38971 1.01952 -12.8491 18
71 1 -3.01853 -6.3037 -8.07829 18
72 1 -7.91197 -4.19865 -9.05423 21
73 1 4.14173 -2.63957 -11.0576 19
74 1 -3.4638 -0.852481 -7.41529 16
75 1 3.04869 -10.4351 -6.31416 20
76 1 1.99353 -9.57411 -1.78065 17
77 1 -1.50349 -1.33168 -3.55398 17
78 2 -15.1276 -0.227135 -4.92452 20
79 2 -10.5138 -9.65967 -5.37792 14
80 2 -17.1446 -2.68603 -5.2363 11
81 2 -13.4743 -1.21541 0.154107 16
82 2 -3.60959 -10.3934 -6.41217 17
83 2 -5.03938 -11.4512 -4.02865 18
84 2 -12.3643 -12.3833 2.20854 10
85 2 -4.58072 -6.77993 -6.66546 18
86 2 -10.6047 -6.44716 -1.17916 12
87 2 -9.31005 -10.9446 3.38228 20
88 2 -3.93115 -7.95791 -4.44316 16
89 2 -4.44157 -4.93211 -1.9325 17
90 2 -8.99474 9.37389 -1.56558 14
91 2 -8.54082 4.14749 -14.2121 9
92 2 -9.3112 -0.973175 -11.4701 15
93 2 -13.1977 -1.84252 2.63842 14
94 2 -7.44066 -9.16114 -4.41876 20
95 2 -16.4586 4.46914 -2.29139 18
96 2 -8.10016 -8.91324 0.123932 18
97 2 -0.0491553 -10.1563 -6.62286 18
98 2 -8.17672 -2.9997 2.32381 16
99 2 -4.26374 -15.4766 0.0104588 14
100 2 -5.7529 1.81235 -14.4622 14
101 2 -12.7599 -6.42795 -5.69956 16
102 2 -1.83182 -14.1318 1.39715 16
103 2 -14.094 -10.3915 4.68399 13
104 2 -11.1939 -10.7669 -0.587086 12
105 2 -8.94293 -10.2176 -2.1488 17
106 2 -4.67928 -8.33548 -8.87534 15
107 2 -9.6442 5.90697 -7.42475 18
108 2 -8.15974 -11.1978 -7.28946 9
109 2 -12.6201 -4.03552 -8.17865 15
110 2 -11.7898 5.12801 -8.79182 14
111 2 -10.6264 -6.4385 -7.16701 15
112 2 -14.8942 -4.32802 -4.04476 17
113 2 -7.00178 -6.8141 -1.82871 17
114 2 -11.4611 0.476837 -4.54811 17
115 2 -14.9583 -6.97946 -3.59378 12
116 2 -1.01584 -6.79908 -11.3101 15
117 2 -3.05022 -14.7254 -5.48931 15
118 2 -2.20932 -9.85029 -0.839233 14
119 2 -7.38488 -8.99133 3.6397 17
120 2 -16.5899 -1.36068 -2.28121 17
121 2 0.215278 -4.21392 -9.20828 17
122 2 -5.79029 -13.1315 -6.82058 11
123 2 -7.92676 -3.61154 -12.0014 10
124 2 7.61992 5.086 -11.9408 12
125 2 -5.41662 -8.59028 1.38769 16
126 2 -3.25909 -2.70108 3.22515 14
127 2 1.2693 -5.04431 -3.8888 19
128 2 -3.31136 -13.9268 -2.59818 17
129 2 -7.56835 -8.08058 -8.83058 14
130 2 -6.47379 -5.83426 -10.4955 16
131 2 -10.5256 1.79629 -12.7146 10
132 2 -6.44798 -0.635779 -3.60022 19
133 2 -5.98447 -6.02687 -4.58326 17
134 2 -6.21027 -1.89985 -0.933045 18
135 2 -2.63468 6.04312 -13.9542 13
136 2 -9.67047 -4.84054 -9.33075 15
137 2 -0.0144951 -5.45526 3.18844 15
138 2 -9.21616 2.2484 0.446978 20
139 2 -2.05476 -5.65886 -4.90374 18
140 2 0.418691 2.0681 -0.358055 20
141 2 -9.09977 -12.289 0.691253 15
142 2 -5.88116 -14.3741 -3.92137 13
143 2 -0.101538 -16.5241 -4.52545 10
144 2 -3.09352 -7.66588 -12.1488 12
145 2 5.95289 -7.79802 -3.35517 18
146 2 1.27169 -15.6328 -0.0193582 14
147 2 2.67009 -4.3301 -11.7663 20
148 2 -1.51118 -16.5152 -0.976056 12
149 2 -8.13664 -2.00044 -6.27523 19
150 2 -5.87506 -0.606491 -11.6835 19
151 2 -0.30586 1.40809 -14.715 15
152 2 -0.565851 -0.536561 -1.99393 19
153 2 -11.4346 -4.73654 -4.01065 19
154 2 -6.8417 -4.54587 -7.39429 19
155 2 3.37682 -8.96679 2.58807 20
156 2 -2.13351 -4.56086 -13.028 13
157 2 15.0083 1.9743 -2.87368 16
158 2 5.69751 5.9592 -14.3848 8
159 2 -3.63644 -4.60904 -8.92813 16
160 2 1.52517 -6.38177 -12.7973 15
161 2 -8.91557 -4.47567 -5.60084 19
162 2 1.14928 6.14536 -10.7747 18
163 2 2.47688 -3.02561 -15.2382 10
164 2 -0.699561 -0.513861 2.17408 19
165 2 1.7072 1.94526 5.83283 18
166 2 -7.79533 -3.97355 -2.98675 17
167 2 -1.36611 -6.62203 -2.59487 16
168 1 -17.5439 -2.3834 -3.29636 10
169 1 -14.6111 -8.38226 -2.42346 9
170 1 -19.5403 -5.52639 2.90822 6
171 1 -14.3115 -6.04952 2.13359 16
172 1 -11.9948 -8.57623 -5.25276 13
173 1 -16.2334 -4.3711 0.0453596 11
174 1 -13.7646 7.26414 -2.35074 17
175 1 -18.4453 -2.35496 1.90976 11
176 1 -17.3068 -7.29139 2.19053 11
177 1 -16.3353 -5.44309 -3.56806 12
178 1 -15.2894 -2.24691 -4.73916 19
179 1 -11.3099 -12.1526 0.783696 11
180 1 -13.0554 -3.76553 -3.04639 16
181 1 -6.09129 -15.4111 -0.271704 11
182 1 -7.75593 -14.908 2.98131 12
183 1 -17.0694 -6.36847 5.42607 10
184 1 -15.0608 -1.48624 1.84162 14
185 1 -11.9628 -8.41711 3.10617 18
186 1 -14.5732 -5.79066 -5.364 16
187 1 -6.49424 -8.94566 7.73693 13
188 1 -13.2289 -9.47105 6.20445 14
189 1 -9.33104 -6.19778 3.46187 19
190 1 -10.9117 -6.83795 6.41782 18
191 1 -13.5265 -2.04657 4.69923 12
192 1 -15.0438 0.191959 6.10397 14
193 1 -12.4812 -6.89787 9.31651 9
194 1 -12.179 -9.66544 -1.33295 12
195 1 -8.75091 -13.0034 5.22608 14
196 1 -6.11111 -7.53708 2.8601 16
197 1 -1.73963 -14.1809 -1.51319 19
198 1 2.19717 -10.4221 1.16827 19
199 1 -8.13614 -11.8723 2.36102 20
200 1 -8.90923 -9.367 5.09363 18
201 1 -1.8174 -15.4559 7.01179 10
202 1 -3.72209 -12.6564 7.60386 9
203 1 -1.7875 -9.60651 8.00205 16
204 1 -4.80347 -10.3671 10.1251 14
205 1 4.20622 -3.19908 8.75667 18
206 1 -9.02538 0.964226 2.02947 19
207 1 -7.60291 -1.46621 0.655865 19
208 1 -8.88057 -7.52708 -1.65521 19
209 1 -7.43288 -5.06635 8.23912 13
210 1 -6.3334 -0.905325 9.6678 19
211 1 -2.62395 -0.686482 2.84064 19
212 1 -5.0955 -6.86107 9.95629 15
213 1 -11.1386 5.02785 7.58347 12
214 1 -8.10962 -9.59415 10.5669 8
215 1 -7.18277 1.65815 11.2807 12
216 1 -4.58289 -6.68912 6.8221 13
217 1 -7.00341 -4.28054 11.3891 15
218 1 -9.1494 -10.5635 -0.490672 15
219 1 -3.18167 -15.8433 4.09195 9
220 1 -0.0246841 -14.7638 1.23002 14
221 1 -2.5956 -13.4085 9.92413 8
222 1 -2.27639 -5.02994 10.257 17
223 1 -2.08762 -13.0248 -3.98871 18
224 1 -2.36268 -13.346 3.14787 18
225 1 -11.1782 -13.682 3.20684 11
226 1 1.41909 -5.76126 4.96372 18
227 1 -6.48291 -8.65213 -0.429782 17
228 1 0.584642 -13.6564 10.816 12
229 1 1.17974 -12.0578 3.27836 18
230 1 -3.40667 -16.9104 -1.50955 10
231 1 -0.957067 0.682846 13.9335 11
232 1 -10.4847 -9.38332 8.1157 13
233 1 -2.34595 -8.34479 11.133 16
234 1 -5.00898 2.50153 -6.71376 14
235 1 -1.40391 1.06446 -1.16098 19
236 1 -2.79102 -6.31862 4.09984 14
237 1 -5.58323 0.405607 2.42236 19
238 1 -6.23382 -1.28242 12.8771 13
239 1 0.145434 -3.40796 3.42914 16
240 1 -7.19865 2.19074 8.45439 20
241 1 1.66411 -8.78195 6.68766 17
242 1 -2.91525 6.28678 13.5203 12
243 1 -3.75389 1.48004 8.99872 11
244 1 -1.03615 -7.98086 5.22654 17
245 1 -2.20248 2.60701 11.6152 16
246 1 2.4518 -7.0105 -4.03579 20
247 1 -3.84436 -10.2048 5.66103 18
248 1 -1.71 -14.2634 -6.91289 9
249 1 4.76638 -11.1037 8.62406 12
250 1 7.86048 -12.6054 5.13171 12
251 1 4.56145 -10.3222 3.54938 18
252 1 3.89973 -6.84843 8.79026 18
253 1 0.339517 -4.35571 0.325809 16
254 1 -1.57199 -1.83409 -0.497441 19
255 1 -3.51933 -9.9336 -4.57736 17
256 1 -4.10519 -14.1991 1.5997 15
257 1 0.0334488 -5.62462 11.7984 17
258 1 -0.624429 -10.4667 -0.576255 18
259 1 -8.4677 -13.6652 -0.488122 13
260 1 -0.623357 -11.3026 5.59039 18
261 1 -5.06317 -4.38246 13.3041 13
262 1 2.61794 -10.9784 11.454 8
263 1 2.85132 -5.66779 11.1476 16
264 1 -1.72233 2.32918 2.26421 19
265 1 1.55522 0.719254 -1.1057 17
266 1 -3.48543 -8.00466 1.73995 17
267 1 -0.221385 0.362714 3.96564 16
268 1 4.63437 3.24535 7.39464 18
269 1 -4.59149 -3.00576 5.02081 15
270 1 -0.60132 -1.85433 11.5389 19
271 1 -6.76225 -6.84251 12.5966 9
272 1 -2.01482 -4.38439 13.3238 15
273 1 -1.54567 -7.57707 13.9389 9
274 1 1.82584 -0.154782 12.35 17
275 1 -4.90119 -7.99955 14.5157 7
276 2 -13.9555 -9.03731 -0.702443 8
277 2 -16.5361 3.19368 0.0854482 16
278 2 -16.1023 -5.31707 6.67842 10
279 2 -8.51578 4.96906 3.15441 21
280 2 -9.4907 -2.03157 -3.2682 20
281 2 -16.4617 -3.00396 8.51713 9
282 2 -13.3039 3.23921 -3.78875 20
283 2 -13.7557 -5.64338 3.9211 15
284 2 -7.04594 -12.4517 4.09572 17
285 2 -2.88047 -11.218 6.75382 12
286 2 -15.7176 -5.23273 -6.77092 12
287 2 -11.878 -10.5182 7.24331 13
288 2 -16.2063 -8.99045 2.03769 10
289 2 -10.6086 -4.97887 6.50653 19
290 2 -10.1295 -7.63106 4.48996 16
291 2 -3.44572 -7.4432 -0.262928 16
292 2 -16.8283 -0.21083 6.92408 9
293 2 -13.6899 -8.02584 2.21942 15
294 2 -4.09895 -9.13922 11.2042 14
295 2 -17.0551 -4.35877 -1.97512 11
296 2 -7.55254 -4.16166 6.30754 16
297 2 -16.0343 -7.90487 5.15785 13
298 2 -6.87437 -0.360858 11.5295 14
299 2 -7.41306 -14.6111 1.03807 13
300 2 -3.30752 -16.8899 -3.34624 11
301 2 -11.6592 -12.74 4.7848 11
302 2 -12.8378 -7.68282 6.03943 16
303 2 -7.6457 -10.0103 6.4845 17
304 2 -6.0073 -6.42555 8.12937 10
305 2 -3.13461 -7.85475 14.4856 8
306 2 -6.32825 -9.93949 9.33189 12
307 2 -9.45289 -12.62 6.85217 12
308 2 -12.8158 -8.7751 -3.16806 12
309 2 -3.71479 4.53437 12.3646 13
310 2 -2.61733 -7.04568 5.9504 13
311 2 -10.2259 -7.22904 1.8845 14
312 2 -19.5695 -3.7189 2.19581 7
313 2 -4.96798 -4.49859 0.562136 17
314 2 -13.294 -5.3437 8.18702 11
315 2 -12.2674 -4.78332 1.72529 14
316 2 -9.29291 -10.2091 9.19096 11
317 2 -12.3861 0.887907 8.18261 16
318 2 -5.48829 -1.52775 6.77578 17
319 2 -9.45649 -14.157 3.25112 14
320 2 -1.51378 -14.5042 4.32363 16
321 2 -2.4156 -14.0371 8.25556 11
322 2 1.00487 -9.53356 -0.187044 20
323 2 -1.13316 -9.02475 12.556 12
324 2 -0.997455 -14.5034 10.4233 9
325 2 0.792014 -12.5421 5.2007 15
326 2 -4.22793 -7.1229 3.24707 19
327 2 -5.83971 -9.73561 -1.84965 18
328 2 -5.75872 -6.23558 14.1184 9
329 2 -1.83233 -5.87772 12.2548 14
330 2 5.96283 -3.81641 8.37067 18
331 2 -6.32938 -6.02242 11.0741 12
332 2 0.124167 4.76415 7.71125 15
333 2 -2.73846 -10.5101 1.3009 19
334 2 -0.378591 -9.39698 6.35069 18
335 2 -1.37405 8.19348 4.30057 16
336 2 -2.58373 6.74128 6.80059 15
337 2 -5.2074 1.23455 -0.965596 20
338 2 -2.20592 -3.10007 10.6904 20
339 2 -1.74075 2.31063 13.4553 13
340 2 -3.57179 1.48879 7.05351 12
341 2 -0.693286 -4.79587 8.67636 17
342 2 5.348 -6.77778 2.30543 19
343 2 0.869416 -11.8846 11.5766 9
344 2 -5.81982 2.03801 12.4007 11
345 2 -1.29374 -9.02056 9.7248 12
346 2 5.38777 -4.01029 1.91416 20
347 2 -4.87956 -14.9297 3.62777 12
348 2 3.91108 -11.6285 0.833617 17
349 2 5.23444 -7.05503 7.34253 16
350 2 0.806655 -10.2387 2.69688 22
351 2 -4.7687 -10.9103 4.05895 18
352 2 -4.6379 -12.4527 1.6621 17
353 2 1.10439 -6.74485 10.8605 19
354 2 6.7495 -10.2127 2.30749 17
355 2 -2.88742 -16.6002 5.82313 7
356 2 -1.43357 -12.0241 3.94634 18
357 2 0.288419 -15.1594 6.9765 12
358 2 1.71666 -10.0478 9.97994 14
359 2 0.361306 -3.09028 5.3225 17
360 2 -5.388 -2.15346 -6.4484 15
361 2 -3.87333 1.10661 3.3868 19
362 2 5.41214 4.50447 -6.99741 20
363 2 2.51494 -0.573019 0.0671934 18
364 2 1.66077 1.72463 9.66324 18
365 2 -5.54847 -3.04704 12.1787 15
366 2 0.436711 7.27029 9.64837 16
367 2 -10.1036 -4.21438 3.53702 20
368 2 5.82724 -2.97803 11.3872 13
369 2 -3.5378 -11.737 9.6176 12
370 2 -0.140774 -4.10182 12.7015 17
371 2 3.77312 -1.39204 9.40433 20
372 1 -8.9844 8.27511 -10.796 11
373 1 -15.5286 0.162167 -3.09527 17
374 1 -12.3636 2.19572 -2.21394 19
375 1 -9.79638 -2.74329 -11.9876 11
376 1 -14.9457 0.581683 -7.20265 11
377 1 -18.0195 3.30909 -2.59793 11
378 1 -10.5804 2.46358 -10.9656 16
379 1 -6.80526 -5.02369 -12.1704 11
380 1 -10.3 1.83164 -5.48924 17
381 1 -13.3861 9.46592 -8.51466 10
382 1 -13.2431 4.60277 0.109291 19
383 1 -12.3049 3.14665 2.06946 18
384 1 -15.6912 1.55867 -0.22459 20
385 1 -15.2634 3.78521 -6.86767 13
386 1 -11.5593 6.48898 -7.34992 17
387 1 -4.49493 8.46068 -1.32262 15
388 1 -2.18543 13.3992 -0.962888 21
389 1 -13.3355 -0.340834 -1.88144 19
390 1 -6.60535 6.66649 -9.47884 18
391 1 -16.2495 5.51398 -3.92932 19
392 1 -6.20197 -6.10435 -6.55616 20
393 1 -7.86631 2.17305 -7.86063 18
394 1 -11.3518 -4.07471 -9.75888 12
395 1 -11.7679 3.26523 -7.95805 18
396 1 -7.48874 10.2893 -2.46402 19
397 1 -9.33714 1.21172 -1.22836 16
398 1 -10.1952 -0.980151 -1.82004 17
399 1 -8.42845 3.85763 -2.68194 20
400 1 -3.55452 2.1834 -10.727 18
401 1 -13.134 1.78027 -5.27371 20
402 1 -9.77684 -3.26169 -6.88072 21
403 1 -8.89314 11.5368 -9.75104 13
404 1 -13.8963 12.3418 -6.76946 8
405 1 -12.1893 15.5464 -8.18615 10
406 1 -7.22598 12.9414 -4.8368 18
407 1 -8.80858 6.32819 -1.43889 18
408 1 -9.55468 0.0585563 -9.79691 16
409 1 -11.4528 -1.5467 -4.05652 19
410 1 -14.9721 2.85513 -2.98075 21
411 1 6.47265 4.46289 -13.5778 11
412 1 -9.86733 9.86881 -7.40085 19
413 1 -5.13776 4.59602 -9.0709 18
414 1 1.08306 2.36259 -9.4585 17
415 1 -7.30309 -1.62096 -11.1424 20
416 1 -5.48571 0.117783 -9.93866 19
417 1 -5.05017 3.87874 1.62225 19
418 1 -6.88286 2.30303 -0.469981 21
419 1 -2.50657 1.29411 -4.55359 18
420 1 -5.54893 5.40656 -0.826602 20
421 1 -6.76181 3.48665 -14.6487 12
422 1 -10.8397 5.49726 -10.4395 10
423 1 -9.10773 13.2349 -7.23092 18
424 1 -4.26513 6.67029 -3.66601 16
425 1 -9.89807 14.6176 -10.5465 9
426 1 -14.0031 7.04877 -5.45232 14
427 1 -3.13996 10.3965 -5.30401 19
428 1 -5.74295 4.45582 -3.99065 15
429 1 -4.83298 11.016 -3.13851 17
430 1 -16.1435 8.43635 -0.96229 15
431 1 -10.2316 15.3095 -5.14862 10
432 1 -3.5977 16.6616 -2.52866 13
433 1 -12.3146 13.7633 -1.72031 7
434 1 8.03256 2.211 -10.4541 13
435 1 -1.3034 -2.87825 -12.8493 14
436 1 -8.26472 5.76901 -12.7843 14
437 1 -1.68971 4.34847 -4.90788 14
438 1 -1.94962 3.35949 -7.77353 15
439 1 -0.537359 -2.74797 -8.52748 20
440 1 -7.38607 6.85737 -4.0377 20
441 1 -3.78068 9.51383 -8.16023 16
442 1 3.95679 -5.16195 -7.97404 18
443 1 -5.39312 7.24184 -6.68254 17
444 1 1.41889 9.04682 -13.619 10
445 1 -5.05215 4.27599 -12.1823 21
446 1 -8.67789 7.63229 -6.78996 19
447 1 2.7832 7.29848 -6.27301 16
448 1 -0.206006 2.0644 -12.7486 21
449 1 -6.06199 9.82859 -10.3744 12
450 1 2.52695 13.3554 -7.26791 12
451 1 -1.78942 4.7729 -11.0239 19
452 1 1.78199 5.36934 -9.0723 18
453 1 0.871659 14.4115 -0.50141 22
454 1 5.83397 12.3508 -6.31177 16
455 1 3.5679 9.3171 -2.76135 19
456 1 -2.56624 11.846 -8.61507 13
457 1 -12.8783 4.59962 -4.9126 20
458 2 -9.65749 6.57923 -11.2661 12
459 2 -9.7209 3.68034 -10.0909 17
460 2 -8.77016 1.255 -4.97975 19
461 2 -16.2219 0.0731976 1.01347 15
462 2 -16.3448 5.82034 1.94909 15
463 2 -15.1204 -2.9372 -7.03321 12
464 2 -8.50943 -12.7293 -4.68693 13
465 2 -16.7199 10.285 -3.95034 8
466 2 -18.5532 6.59118 -0.0473371 10
467 2 -7.72061 1.18025 -10.1115 21
468 2 -6.17829 1.10229 -7.26206 18
469 2 -10.7202 -1.96897 -9.38331 16
470 2 -5.39463 -5.70824 -13.3824 9
471 2 -1.84345 -1.5851 -7.75983 18
472 2 -7.46633 8.04862 2.29819 19
473 2 -16.6625 2.16302 3.36127 12
474 2 -14.3738 1.19143 -1.65934 19
475 2 -11.9256 1.2767 2.40649 15
476 2 -11.6947 3.33676 -5.79669 19
477 2 -3.04408 3.6423 -11.7938 19
478 2 -14.504 5.22584 -5.93965 16
479 2 -10.1824 9.8108 0.855706 12
480 2 -9.56397 2.91681 -7.35549 18
481 2 -12.2321 6.50379 -4.29388 17
482 2 -8.77825 12.4713 1.50322 11
483 2 -4.50131 8.73051 0.780234 17
484 2 1.54773 -9.24662 -11.0699 13
485 2 2.41034 5.00861 -13.2119 18
486 2 -2.9459 3.34991 -15.347 15
487 2 -7.63078 1.74932 -2.29424 19
488 2 -13.2906 -1.76209 -3.10911 17
489 2 -6.63345 4.44027 -2.16349 19
490 2 0.895658 -7.27217 -5.56768 19
491 2 -4.12045 -0.88462 1.29839 18
492 2 -8.71688 -0.647176 -0.670715 19
493 2 -14.1643 3.31622 1.54096 18
494 2 -5.53861 6.29003 -4.98141 15
495 2 -13.7135 2.39067 -7.16699 18
496 2 -5.65504 10.1579 -1.49785 18
497 2 -8.18328 8.53546 -4.91663 17
498 2 -16.162 -5.76995 1.35807 10
499 2 -13.2026 13.9508 -7.76024 8
500 2 -2.61512 12.6795 -2.93972 19
501 2 -11.1001 12.8087 -3.14659 13
502 2 -11.3769 0.890587 -9.99149 13
503 2 -9.58988 4.63149 -1.47989 17
504 2 -10.5832 8.37362 -6.56601 16
505 2 -8.63066 4.58392 -4.44203 19
506 2 -12.8417 6.53303 3.01652 13
507 2 -10.0821 11.9235 -8.02943 13
508 2 -5.03941 10.8322 -5.2215 20
509 2 -7.77686 16.0607 -7.10002 10
510 2 -0.189632 7.63204 -13.4348 12
511 2 -5.86619 2.99817 -5.15203 17
512 2 -5.02416 5.89906 -10.5362 17
513 2 -7.54312 11.2362 -3.99321 17
514 2 -1.46204 2.5218 -5.83202 16
515 2 -0.52818 -2.79549 -4.11504 19
516 2 -8.77711 1.712 3.84662 18
517 2 -2.66422 10.6736 -7.27169 16
518 2 -3.08686 -1.58808 -1.82549 18
519 2 2.4497 2.75092 -14.9645 13
520 2 -8.10549 1.12873 -13.4611 15
521 2 -3.5596 7.64591 -6.92686 14
522 2 -11.5036 0.527192 -1.46076 17
523 2 -9.52555 9.71126 -9.55173 13
524 2 -4.22553 9.04629 -10.0449 15
525 2 -8.95351 6.96735 0.254258 18
526 2 -10.0318 12.9956 -10.1611 10
527 2 -12.9934 11.3114 -8.18663 10
528 2 -7.06615 13.3578 -6.98102 15
529 2 -13.5173 11.2854 -5.24501 12
530 2 -12.0511 11.6574 -0.245435 9
531 2 -15.0365 7.10223 -3.83568 16
532 2 -13.2199 8.22168 -7.19575 13
533 2 9.3302 7.59889 -8.77358 15
534 2 -6.99541 4.50312 -8.94586 19
535 2 -7.05926 8.23768 -10.6197 13
536 2 9.83113 10.0359 -7.31317 13
537 2 -3.93558 3.73343 -8.00143 15
538 2 -9.5975 -7.23055 -3.84361 21
539 2 -7.02226 4.57168 -12.1465 19
540 2 -5.4025e-04 4.16979 -13.3964 18
541 2 -0.104277 4.36891 -3.79821 19
542 2 -1.65506 10.5188 -4.18099 21
543 2 -9.09087 13.9446 -4.66677 14
544 2 -5.39994 6.92409 -2.04601 17
545 2 4.67799 -1.26205 -12.1525 18
546 2 -16.7072 1.83886 -3.0069 14
547 2 -4.29431 12.3979 -8.91112 12
548 2 12.2356 7.46854 -9.22452 11
549 2 -0.235804 3.89731 -10.517 17
550 2 3.51718 2.45074 -11.989 19
551 2 -2.69765 1.93581 -2.63729 20
552 2 0.220499 11.1548 -6.30618 21
553 2 5.99139 13.0819 -4.6405 13
554 2 -0.0915732 10.7967 -0.883631 21
555 2 1.63936 10.2174 -12.0662 11
556 2 -5.67417 13.5357 -3.61078 20
557 2 -6.96912 7.63731 -7.74124 21
558 2 0.184775 17.0992 0.616706 15
559 2 -0.773021 12.1126 -9.42926 12
560 2 0.768973 9.04374 -9.56294 16
561 1 -17.8628 0.854164 2.81457 10
562 1 -19.1885 6.42562 -1.89834 9
563 1 -18.1161 -1.47036 5.00119 8
564 1 -14.2986 -9.45977 1.04235 13
565 1 -7.30337 -1.84464 6.93866 21
566 1 -11.8977 8.52899 -5.24192 17
567 1 -13.0631 -11.9813 3.81442 12
568 1 -10.1544 3.74265 0.0738359 21
569 1 -10.1085 -2.73014 2.07307 18
570 1 -10.0577 2.70877 4.25405 18
571 1 -11.0862 -11.973 6.17926 15
572 1 -13.6064 10.8346 -1.02339 10
573 1 -8.697 8.8379 0.620961 17
574 1 -12.5013 1.22185 4.32341 17
575 1 -16.0182 3.60013 2.01615 14
576 1 -13.8885 7.7044 0.375757 12
577 1 -12.137 -4.34784 3.66676 18
578 1 -17.4248 -4.16965 7.24613 7
579 1 -7.86113 -1.81871 3.82495 18
580 1 -13.6707 3.49678 5.72115 15
581 1 -15.6357 -9.3606 3.84862 14
582 1 -8.51029 -8.49498 1.98695 18
583 1 -15.0681 11.613 -3.99127 7
584 1 -9.21405 12.8345 -3.13709 15
585 1 -16.459 3.11006 5.03631 9
586 1 -12.2839 -0.380322 -8.88462 12
587 1 -16.4612 8.40722 -4.29705 9
588 1 -7.4782 3.47915 3.0061 19
589 1 -8.69799 4.82332 7.02728 17
590 1 -8.89883 8.72073 3.80275 18
591 1 3.33392 12.4618 1.14711 22
592 1 -4.5838 15.7405 0.334035 14
593 1 -16.8242 4.92792 -0.429841 18
594 1 -3.83037 0.924406 0.351674 19
595 1 -10.9614 -1.07818 6.56934 19
596 1 -9.66447 10.9672 2.04981 12
597 1 -13.7362 2.10492 8.33225 10
598 1 -16.328 -0.971215 8.94697 8
599 1 -12.7286 -1.05818 8.93415 13
600 1 -9.31273 0.148457 8.89278 18
601 1 -9.59791 -2.96138 9.29702 16
602 1 -9.39746 -3.79633 5.84539 18
603 1 -12.101 -3.73746 7.13701 15
604 1 -14.9991 -4.24402 8.51991 10
605 1 -9.80817 8.66318 -3.47992 16
606 1 0.292389 15.9054 2.033 22
607 1 -4.53411 14.2379 3.70647 14
608 1 -1.92044 13.0015 1.91196 18
609 1 -7.9523 13.6525 0.213178 10
610 1 -6.11819 3.12697 6.09898 13
611 1 -9.1822 6.16286 4.48549 18
612 1 -10.9847 2.35414 7.90005 18
613 1 -17.4478 7.0818 1.19005 11
614 1 -2.81848 5.45019 10.4367 16
615 1 -10.7818 5.47681 -3.0782 17
616 1 -11.0696 6.29526 1.74139 18
617 1 -10.8568 10.1731 -1.10735 16
618 1 -6.08249 8.94565 1.62574 19
619 1 -6.37767 14.2164 -2.06295 14
620 1 -7.0913 1.45537 -4.04508 19
621 1 2.23947 -2.63955 5.82812 19
622 1 -3.80442 7.02192 2.1618 19
623 1 -2.55311 1.30347 5.52055 11
624 1 -12.0446 -0.37784 1.27634 15
625 1 -1.29572 5.42251 6.40869 13
626 1 -5.20751 0.263863 5.8486 17
627 1 -6.50827 5.50635 9.19323 14
628 1 0.766261 10.9092 9.68708 13
629 1 9.609 -1.54083 14.2174 11
630 1 -8.2739 -11.586 8.12827 12
631 1 -1.34863 15.2401 -2.87879 16
632 1 -1.18771 11.3876 -2.6329 22
633 1 -0.112735 11.0447 0.956278 23
634 1 -5.9796 6.10907 4.09685 16
635 1 -7.04575 7.37045 6.59074 15
636 1 -3.26275 15.7198 6.15987 11
637 1 -0.410117 8.20487 2.49745 16
638 1 -8.02922 6.3578 1.83972 19
639 1 -3.42835 12.9198 7.05008 16
640 1 -1.16532 13.5385 8.09192 10
641 1 -3.84053 -1.92356 11.2004 19
642 1 -4.57617 11.3591 3.52774 19
643 1 8.00863 10.7898 -7.63953 10
644 1 -11.6834 11.7217 -4.5296 16
645 1 -11.6594 12.568 -8.83126 14
646 1 -11.8886 6.89377 4.5776 10
647 1 -5.03174 10.0597 6.26695 16
648 1 -2.15883 8.90765 -3.16956 18
649 1 2.83735 6.40255 -3.32294 17
650 1 3.28791 3.83991 1.33144 18
651 1 -2.9807 3.49838 -1.83366 20
652 1 -4.02156 7.35259 8.15226 13
653 1 1.85557 3.46122 8.73785 17
654 1 4.38669 6.02454 7.48642 15
655 1 -0.968225 5.61491 3.41706 18
656 1 -2.86372 9.87676 0.465778 21
657 1 -0.65824 3.87487 13.9046 15
658 1 8.93664 1.76936 13.8174 12
659 1 -3.23753 8.26019 5.34011 14
660 1 -8.79069 17.0331 -8.41008 8
661 1 2.04561 11.2651 -5.77624 21
662 1 -2.41206 5.05101 0.538249 14
663 1 4.61555 14.214 3.51521 12
664 1 2.23054 16.5627 4.57466 11
665 1 0.629532 11.6312 6.28534 19
666 1 -0.728379 8.26332 11.5252 15
667 1 -0.677569 14.6796 5.20999 17
668 1 -8.34625 0.661447 5.66541 20
669 1 -1.21452 17.7937 4.9208 9
670 1 2.03128 8.00738 8.75346 19
671 1 -7.47596 11.7911 3.04469 13
672 1 2.37297 8.95942 -8.58398 19
673 1 -6.29026 14.9632 -6.60328 12
674 1 0.366934 8.19031 5.22168 18
675 1 -3.81503 13.7828 -3.98836 21
676 1 -1.58223 16.6798 0.156928 19
677 1 -6.2279 13.2292 5.87928 10
678 1 -14.5321 5.86579 3.04447 16
679 1 -0.685727 18.8396 1.54639 9
680 2 -18.5786 -0.854482 3.22439 9
681 2 -16.9838 -2.62068 0.813446 11
682 2 -7.23166 -2.50998 -9.10862 22
683 2 -17.9046 -3.12243 5.73779 10
684 2 -19.6851 4.68401 -2.05957 7
685 2 -10.8809 -1.66576 8.62051 15
686 2 -3.64382 -5.67362 8.87145 18
687 2 -16.4992 1.52564 -6.49246 10
688 2 -6.45668 2.5942 1.41044 17
689 2 -8.93877 -1.45402 5.72773 19
690 2 -15.9884 3.84217 -4.65112 15
691 2 -11.0321 -2.47413 -5.7078 16
692 2 -10.881 -7.56514 8.22591 10
693 2 -7.4732 -8.35105 12.0156 10
694 2 -15.7638 8.06438 1.05398 11
695 2 -8.02399 -1.53597 8.7474 20
696 2 -7.65508 -6.08342 2.69214 13
697 2 -5.88166 13.3741 -0.049944 14
698 2 -14.9209 2.09419 5.69871 13
699 2 -4.15944 4.39065 0.1574 19
700 2 -13.8655 12.2496 -2.33075 10
701 2 -12.5277 3.57903 7.65744 11
702 2 -13.5759 -0.640588 -7.53005 14
703 2 -17.4754 7.58713 -2.17336 15
704 2 -9.29312 1.35133 7.1836 21
705 2 -13.1758 -2.7124 8.25657 14
706 2 -14.4658 6.08805 -0.851758 19
707 2 -1.67458 4.29471 2.18524 14
708 2 -2.9392 7.60003 12.1085 14
709 2 5.01729 10.7683 9.11454 10
710 2 -14.2489 4.31188 4.24689 14
711 2 -7.93763 6.27861 8.05865 13
712 2 -10.9282 -2.13284 0.475588 15
713 2 -4.07806 -0.542144 12.9211 18
714 2 -7.62801 7.36745 4.89567 18
715 2 -6.57388 1.41393 6.14367 17
716 2 -4.0214 15.5181 2.11694 16
717 2 -6.016 10.6369 2.64451 17
718 2 1.99652 16.2405 2.7211 16
719 2 4.15272 1.95476 8.6625 19
720 2 -9.82404 4.25357 8.58769 13
721 2 -6.16067 13.0855 3.99767 13
722 2 -4.93671 15.5961 -1.41962 14
723 2 -11.9963 4.04743 -1.46939 20
724 2 -3.93693 8.88919 -3.83001 16
725 2 -2.37835 16.0437 -1.4397 16
726 2 -14.9161 0.358118 8.3545 10
727 2 -14.1758 8.78175 -1.2649 13
728 2 -5.97104 1.04704 9.52049 18
729 2 -5.70862 5.73009 1.85976 18
730 2 -7.40106 -0.129386 2.27879 17
731 2 0.905868 8.26697 0.551174 17
732 2 -8.09789 -4.06412 9.83433 12
733 2 -5.35252 11.7965 7.02099 11
734 2 -13.5186 -0.250678 5.07137 14
735 2 -0.905133 9.86653 10.3918 14
736 2 -17.9228 -6.09462 3.65807 11
737 2 -4.51822 5.8711 9.19989 15
738 2 -8.74581 1.71586 9.72585 14
739 2 -11.3526 4.60734 1.08947 18
740 2 0.700172 13.268 4.99044 19
741 2 -3.69145 10.1705 4.87749 13
742 2 2.20378 15.9571 -0.353404 14
743 2 -2.63746 12.3737 3.63759 19
744 2 -1.42736 4.09861 10.8065 19
745 2 -8.75695 10.5169 3.77206 12
746 2 -4.62659 14.4119 5.88614 12
747 2 7.53382 10.3264 2.95491 13
748 2 -11.7072 2.96056 5.06024 17
749 2 -2.13033 1.64555 0.558689 21
750 2 -2.30741 16.0205 -4.13848 11
751 2 -9.18768 6.84207 -3.18734 19
752 2 -10.4878 15.8206 -9.19761 9
753 2 -1.35347 18.425 3.22129 9
754 2 -10.3551 7.31478 3.29297 16
755 2 3.65464 0.356342 5.43643 17
756 2 1.38539 4.31593 10.3551 14
757 2 -2.09253 6.91581 1.35352 19
758 2 -0.500869 4.88908 4.91225 15
759 2 -4.12414 10.1447 9.64507 13
760 2 2.87365 4.39259 7.29429 18
761 2 -1.19372 4.43197 -0.820002 18
762 2 -4.83062 -2.08042 9.4285 19
763 2 10.8305 -4.05836 4.04133 21
764 2 -7.09602 3.90402 7.59769 17
765 2 -6.87688 4.43351 10.9441 13
766 2 -5.9744 8.72958 7.37132 14
767 2 -10.1546 5.4711 5.85789 16
768 2 3.74681 15.1646 4.89725 11
769 2 -0.471092 13.1579 -4.3603 19
770 2 -6.63072 4.38014 4.77798 18
771 2 10.1171 2.67183 12.7865 16
772 2 -2.82994 12.6602 8.88409 10
773 2 1.58388 10.0406 -3.27037 19
774 2 4.28857 7.63471 8.13575 17
775 2 8.98235 -8.39126 4.44036 22
776 2 -11.7563 -2.47471 5.21737 15
777 2 0.791625 8.04492 6.99615 17
778 2 2.31457 2.94109 13.0922 16
779 2 -8.06951 13.632 -1.83336 12
780 2 -2.58387 17.847 1.04577 11
781 2 -10.8178 15.7859 -6.85268 10
782 2 -2.02684 14.2009 6.59439 13
783 2 -0.418818 13.9654 2.55804 21
784 1 0.781799 -13.2633 -1.65417 18
785 1 3.73337 -14.5869 -2.79042 16
786 1 2.06797 -12.0478 -3.81015 18
787 1 6.46507 -14.5452 -4.52178 12
788 1 3.25661 1.2007 -15.8308 10
789 1 7.89182 -10.343 -4.63074 12
790 1 -4.17097 -15.4481 -4.22724 13
791 1 -5.94232 -7.21942 -9.49299 16
792 1 -0.223234 -6.36311 -4.09532 19
793 1 3.46262 -4.74992 -2.07853 20
794 1 3.41823 -13.964 -5.61959 13
795 1 -3.69036 -6.17927 -4.38864 15
796 1 2.81314 0.731385 -12.3437 19
797 1 6.11308 -3.98226 -12.7266 18
798 1 5.826 6.10569 -5.70709 19
799 1 -1.37856 -7.6176 -0.726694 17
800 1 -0.491008 -6.19589 -9.58551 20
801 1 0.793977 -7.68077 -11.5384 15
802 1 5.98817 -3.22872 -4.84483 20
803 1 1.0212 -0.377281 -10.5402 14
804 1 8.52773 -5.08767 -1.0108 16
805 1 3.07454 3.4049 -2.0019 19
806 1 3.55069 -11.3888 -9.12173 15
807 1 10.7397 -11.3169 6.24804 13
808 1 9.85543 -2.56458 -13.2818 10
809 1 -0.0511831 -7.94855 -7.14719 15
810 1 6.13099 -14.6718 -0.722966 14
811 1 0.420777 -12.1538 -7.23677 16
812 1 6.13406 -6.09148 -9.67061 20
813 1 3.09975 -8.17615 -9.70231 19
814 1 5.02531 -9.30888 -4.07082 23
815 1 -5.15092 -0.989984 -5.04188 17
816 1 10.7831 -4.9887 -6.45556 16
817 1 13.9464 -0.134806 -10.9204 9
818 1 -1.61492 -0.0796472 -14.6274 11
819 1 7.02202 -2.12418 -15.2627 11
820 1 8.48475 -11.2037 2.49576 19
821 1 3.85216 -5.57225 -11.027 16
822 1 7.63269 -4.5933 -6.74916 20
823 1 0.375813 1.26208 -6.65546 18
824 1 5.75418 2.64716 -6.0776 17
825 1 13.5032 -3.69863 -4.2434 16
826 1 6.57576 -12.1089 -2.82233 19
827 1 5.48859 -9.51209 -11.746 11
828 1 8.61662 -3.25851 -10.5842 21
829 1 10.048 -8.87693 -2.90706 14
830 1 9.38262 -13.8502 -2.93626 8
831 1 17.6688 -4.19255 2.18316 10
832 1 10.1729 -8.62949 0.837797 15
833 1 4.3229 -0.979535 -14.1555 15
834 1 5.66726 -7.31167 -13.7019 10
835 1 13.46 -7.1871 -5.68572 9
836 1 2.02842 -4.98067 -13.6228 11
837 1 14.4757 -5.42566 0.69929 13
838 1 11.6039 -6.25117 -4.11517 16
839 1 15.4602 -1.78961 -2.56165 15
840 1 11.5784 -2.23313 -1.68963 14
841 1 5.7595 -2.23543 2.9606 19
842 1 1.09094 -3.6541 -11.1564 18
843 1 5.88864 -9.80088 -8.14084 13
844 1 5.08644 -7.10057 -5.05409 16
845 1 12.9904 -0.140007 -0.0756891 17
846 1 13.0134 -4.32692 3.45602 18
847 1 14.9779 -5.48428 -2.83378 10
848 1 14.5286 -0.724971 -5.10182 14
849 1 5.76454 0.492751 -3.51378 21
850 1 15.2272 -2.17369 0.17979 15
851 1 8.38362 1.37394 -4.90056 18
852 1 10.3017 0.190903 -9.8042 15
853 1 10.8216 -8.79043 3.9055 17
854 2 -1.55605 -12.3334 -7.56697 13
855 2 -0.1579 -13.697 -5.94261 16
856 2 -1.01756 -12.4979 -0.868329 17
857 2 2.52686 -12.5459 -1.86699 20
858 2 4.66022 -10.9247 -7.56619 16
859 2 1.48746 -11.0864 -8.35078 17
860 2 -5.57225 2.29301 -10.9918 19
861 2 8.11495 -14.5955 -4.20304 7
862 2 -6.34012 -13.7346 -1.14097 13