ITEM: TIMESTEP
122000
ITEM: NUMBER OF ATOMS
1500
ITEM: BOX BOUNDS pp pp pp
-30.0 30.0
-30.0 30.0
-30.0 30.0
ITEM: ATOMS id type x y z Coordination
1 1 -13.923 1.08754 -8.61692 11
2 1 -16.2696 -2.26966 -3.20696 8
3 1 -14.6003 -7.29912 -6.02504 9
4 1 -15.6953 0.749009 -5.5383 12
5 1 -16.1458 -4.96363 -5.13143 7
6 1 -10.2937 -11.3247 -4.5985 14
7 1 -8.70615 -12.3361 -1.56564 13
8 1 -12.5412 -6.7725 -8.31907 13
9 1 -10.5066 2.57828 -11.2292 16
10 1 -12.6873 -4.23622 -6.19848 17
11 1 -12.0201 -3.18864 -8.85713 15
12 1 -10.3946 -5.90967 -8.6579 16
13 1 -12.6361 -0.739101 -6.27088 19
14 1 -10.336 -3.31044 -6.78831 18
15 1 -10.756 -5.44775 -3.37694 21
16 1 -11.889 -2.56738 -3.47883 22
17 1 -5.52772 -11.8801 -6.6235 18
18 1 -8.9044 -6.42062 -11.2996 10
19 1 -10.6626 -8.92699 -6.38305 17
20 1 -8.69506 -11.6456 -7.51069 10
21 1 -9.00251 -8.40682 -8.79805 17
22 1 -8.53653 -6.35522 -6.14939 20
23 1 -7.26133 -9.23591 -6.56629 20
24 1 -7.69969 -11.4062 -4.2781 19
25 1 -8.98434 -8.24986 -3.73859 22
26 1 -5.46697 -2.70022 -13.6978 14
27 1 -10.4659 -3.52384 -11.3848 12
28 1 -8.57833 -0.27203 -11.431 19
29 1 -7.12731 -3.62033 -11.3377 16
30 1 -6.98866 -5.58456 -8.50853 22
31 1 -8.1414 -2.08793 -8.99693 20
32 1 -8.80516 -0.563227 -6.11306 22
33 1 -7.06369 -3.33557 -5.82958 22
34 1 -6.90073 -5.67451 -3.49522 23
35 1 -8.41985 -2.41824 -3.24675 21
36 1 -2.28063 -12.7974 -6.33714 21
37 1 -5.43941 -14.157 -4.54448 12
38 1 -5.5791 -6.10741 -11.4003 20
39 1 -3.75095 -9.21625 -11.9747 11
40 1 -4.01521 -11.5304 -9.33139 12
41 1 -5.4271 -8.82377 -9.00691 20
42 1 -5.32361 -6.323 -5.91644 25
43 1 -3.90766 -9.28324 -6.17587 21
44 1 -3.93503 -11.4549 -3.62006 22
45 1 -5.54445 -8.84523 -3.64864 21
46 1 -3.71481 -5.98605 -13.3674 14
47 1 -2.08001 -3.57353 -13.4907 18
48 1 -5.64562 -0.612945 -10.9204 24
49 1 -3.82683 -3.2953 -11.058 25
50 1 -3.63642 -5.51226 -8.6384 23
51 1 -5.37597 -2.58299 -8.62921 22
52 1 -5.2496 -0.683242 -5.92684 23
53 1 -3.77818 -3.75859 -5.73789 24
54 1 -3.50655 -5.64367 -3.4064 21
55 1 -5.12725 -2.794 -3.28996 20
56 1 0.878394 -12.7006 -6.52307 20
57 1 -0.515436 -16.0096 -6.16241 10
58 1 -2.20261 -14.3076 -3.60392 19
59 1 -0.0428066 -7.71742 -13.2363 12
60 1 -1.99611 -6.34224 -11.3245 22
61 1 -0.550939 -9.38905 -11.1867 16
62 1 -0.503614 -11.9982 -9.02546 14
63 1 -1.93043 -8.27224 -8.74173 24
64 1 -2.17126 -6.73101 -6.17437 22
65 1 -0.798446 -9.6043 -6.2141 22
66 1 -0.738073 -11.5782 -3.71905 22
67 1 -2.04493 -8.67951 -3.4099 24
68 1 -0.592245 -5.62252 -15.4448 10
69 1 -0.666195 -2.19598 -15.5959 8
70 1 -2.28052 -0.662168 -11.2848 24
71 1 -0.497275 -3.8318 -11.3881 22
72 1 -0.316733 -5.91757 -8.78447 23
73 1 -1.99138 -2.71908 -8.47915 24
74 1 -2.07856 -0.920604 -5.93582 24
75 1 -0.509724 -3.83021 -5.88212 24
76 1 -0.0419521 -6.10511 -3.2984 22
77 1 -2.01903 -2.58196 -3.38595 20
78 2 -14.1798 -7.30805 -7.82194 7
79 2 -13.2488 -5.6466 -1.74035 16
80 2 -12.1035 -4.37349 -4.08671 18
81 2 -14.0509 0.488669 -6.77764 13
82 2 -15.4247 -0.200213 -3.58505 13
83 2 -12.309 -4.82808 -8.1452 14
84 2 -10.1441 -10.7915 -6.42914 14
85 2 -10.1329 -11.4242 -0.64529 12
86 2 -10.7442 -9.35187 -4.12489 15
87 2 -13.2323 -7.46443 -4.79607 15
88 2 -9.23331 -12.1485 -3.36516 13
89 2 -10.7759 -7.64048 -7.86522 14
90 2 -11.8736 -2.33113 -6.93677 16
91 2 -11.7016 -2.3907 -10.4435 13
92 2 -10.1307 -5.25251 -6.6818 21
93 2 -10.4286 -5.57175 -1.51473 23
94 2 -11.9563 -2.75849 -1.66058 23
95 2 -12.332 -0.592813 -4.35162 22
96 2 -9.90089 -3.32176 -3.00099 19
97 2 -4.75256 -10.3089 -7.68416 16
98 2 -2.23229 -11.8904 -9.72517 13
99 2 -8.78378 -8.21261 -6.57485 21
100 2 -10.3901 -5.20343 -10.6524 14
101 2 -8.43336 -6.68593 -9.38651 18
102 2 -7.3414 -11.2885 -0.571683 18
103 2 -8.91389 -8.651 -1.75164 24
104 2 -8.80639 -6.20803 -4.0857 20
105 2 -7.24626 -9.30504 -4.34448 24
106 2 -7.02685 -5.36903 -11.8279 17
107 2 -8.76758 -2.50878 -10.9828 18
108 2 -6.98337 -5.28594 -6.45815 21
109 2 -9.03966 -2.15455 -7.25894 19
110 2 -8.71719 -0.110489 -9.54375 23
111 2 -6.96444 -3.50181 -9.26111 21
112 2 -7.14171 -5.94931 -1.52695 22
113 2 -8.37256 -2.71585 -0.793783 21
114 2 -8.50966 -0.796618 -4.33303 22
115 2 -6.58715 -3.83301 -4.02908 22
116 2 -8.40174 -10.0089 -8.37661 13
117 2 -4.08738 -14.6561 -3.34311 14
118 2 -7.28388 -11.6525 -6.28439 15
119 2 -4.50966 -13.305 -6.23003 12
120 2 -16.5938 -3.45881 -4.50018 6
121 2 -3.2562 -5.06338 -11.7843 20
122 2 -5.76414 -8.15835 -6.52372 21
123 2 -5.23717 -6.63105 -9.11194 19
124 2 -1.9682 -8.34854 -12.0647 15
125 2 -3.75084 -11.4446 -1.54213 23
126 2 -5.37611 -8.81386 -1.53759 21
127 2 -5.19221 -6.78059 -3.69502 21
128 2 -3.70802 -9.23249 -4.28426 22
129 2 -4.92384 -7.63227 -12.4998 11
130 2 -5.50832 -2.54676 -11.5919 21
131 2 -5.5178 -0.69612 -13.7382 13
132 2 -4.02945 -3.87839 -13.8846 14
133 2 -3.73761 -5.4712 -6.50157 22
134 2 -5.35981 -2.68942 -6.49372 25
135 2 -5.40846 -0.745293 -8.84689 23
136 2 -3.45456 -3.67545 -9.06806 23
137 2 -3.50488 -6.01192 -1.59048 23
138 2 -5.67408 -2.87884 -1.48222 21
139 2 -5.28468 -0.964915 -4.00286 24
140 2 -3.51727 -3.63389 -3.79374 22
141 2 -6.13029 -12.4133 -3.5433 17
142 2 -4.25236 -9.64924 -10.3039 14
143 2 -2.35831 -14.2088 -1.48342 19
144 2 -2.40614 -12.5254 -4.23722 21
145 2 -0.755859 -15.4369 -4.47904 16
146 2 1.3942 -8.53898 -11.893 14
147 2 -2.00455 -6.10455 -14.2069 13
148 2 -0.877153 -11.5628 -6.82689 19
149 2 -2.367 -8.68658 -7.05604 23
150 2 -2.24418 -6.48454 -9.35918 23
151 2 -0.436511 -9.72736 -9.39772 19
152 2 -0.58844 -11.4618 -1.76108 25
153 2 -1.91231 -8.57186 -1.39745 24
154 2 -1.63976 -6.48931 -4.22405 22
155 2 -0.694877 -9.7314 -4.2023 22
156 2 -0.0953425 -5.88375 -11.7886 24
157 2 -2.07987 -2.54387 -11.6878 21
158 2 -1.82781 -1.16818 -14.4037 16
159 2 -0.330563 -3.74371 -14.6534 15
160 2 -0.357691 -6.02292 -6.63108 23
161 2 -1.90082 -2.67309 -6.52303 23
162 2 -2.01604 -0.699442 -9.28119 24
163 2 -0.487159 -3.97095 -9.48422 23
164 2 -0.06434 -5.86017 -1.31234 21
165 2 -1.90989 -3.02338 -0.660179 20
166 2 -1.85732 -0.827304 -3.83704 24
167 2 -0.40035 -3.58759 -3.96156 22
168 1 -13.5069 -5.78949 -3.6796 16
169 1 -12.1652 -8.43431 -3.5966 14
170 1 -15.3447 -0.711453 -0.907282 12
171 1 -13.5129 -3.75353 -1.01002 19
172 1 -13.5302 -5.54672 1.9927 18
173 1 -15.4684 -2.90436 1.55417 13
174 1 -15.4235 -0.743123 3.82447 14
175 1 -13.8393 -3.42226 4.16054 17
176 1 -13.5477 -5.37613 5.74847 14
177 1 -11.9419 -6.5829 -0.831602 21
178 1 -10.7667 -9.6561 -1.14667 17
179 1 -8.72181 -12.5513 4.05025 12
180 1 -11.8063 -8.35422 1.80188 15
181 1 -11.5623 -6.7679 4.27272 18
182 1 -10.1434 -9.56293 4.3978 20
183 1 -12.3144 -8.65198 6.42697 9
184 1 -11.7557 -0.943417 -0.904183 23
185 1 -10.2221 -3.6242 -1.01066 23
186 1 -10.3875 -5.67515 1.70599 23
187 1 -12.135 -2.79683 1.49487 22
188 1 -11.88 -0.825111 4.10885 20
189 1 -10.5754 -3.90016 4.21945 23
190 1 -10.2763 -5.80693 7.12657 21
191 1 -12.0664 -2.93465 6.71709 17
192 1 -12.1794 -0.730234 8.89795 17
193 1 -10.1709 -4.06187 9.48311 16
194 1 -10.5819 -11.5296 1.31566 11
195 1 -10.2538 -11.2314 6.92379 12
196 1 -8.59118 -6.92752 -1.08742 22
197 1 -7.23011 -9.38943 -0.859341 22
198 1 -7.48872 -11.4745 1.37422 20
199 1 -8.71351 -8.69261 2.00889 25
200 1 -8.29701 -6.88182 4.50162 23
201 1 -6.84116 -9.69298 4.59003 26
202 1 -7.36372 -11.4939 6.85194 15
203 1 -8.5893 -8.49974 7.47818 22
204 1 -9.75772 -7.29349 10.1762 10
205 1 -8.22513 -10.363 9.89226 12
206 1 -8.61826 -0.548316 -0.684182 22
207 1 -7.09901 -4.04897 -0.768636 23
208 1 -6.92856 -5.65846 1.90349 23
209 1 -8.58963 -2.76772 1.60394 21
210 1 -8.35701 -0.88815 4.18627 22
211 1 -6.92897 -4.12707 4.13459 21
212 1 -6.96179 -5.81572 6.81523 21
213 1 -8.58078 -2.99684 6.60118 23
214 1 -8.66184 -1.12009 9.39719 22
215 1 -7.05178 -3.9817 9.47573 21
216 1 -7.71642 -5.74654 12.0534 14
217 1 -8.33605 -2.63536 11.9216 14
218 1 -5.68105 -12.3011 -1.36538 19
219 1 -4.36618 -14.8081 -1.43497 12
220 1 -5.84687 -14.6043 1.3226 10
221 1 -5.56368 -12.4599 4.03818 16
222 1 -3.7776 -15.3238 4.3103 12
223 1 -5.33164 -6.88875 -1.24606 19
224 1 -3.72757 -9.57638 -0.921712 24
225 1 -3.69832 -11.8379 1.7874 21
226 1 -5.31316 -8.64444 1.93351 24
227 1 -4.94036 -6.95113 4.28261 23
228 1 -3.55861 -9.84288 4.69976 22
229 1 -3.71329 -11.7932 7.23057 19
230 1 -5.40666 -8.69225 7.07695 21
231 1 -5.39651 -6.70568 9.65169 21
232 1 -3.43007 -9.63047 9.83893 21
233 1 -5.78042 -8.94986 11.6704 13
234 1 -5.1845 -1.02324 -0.786284 24
235 1 -3.97548 -3.90612 -0.866901 21
236 1 -3.47901 -5.79449 1.95058 22
237 1 -5.30509 -2.86609 1.95169 23
238 1 -5.36345 -0.996289 4.73987 23
239 1 -3.54591 -3.63631 4.45239 24
240 1 -3.70217 -6.03529 7.14776 20
241 1 -5.46004 -3.11455 7.22402 22
242 1 -5.58151 -1.0777 10.1322 22
243 1 -3.60512 -4.10666 9.36671 22
244 1 -0.302004 -6.44077 12.8416 14
245 1 -4.04615 -6.43623 12.0428 18
246 1 -2.14979 -12.4005 -1.03218 24
247 1 -0.789045 -15.243 -0.637701 15
248 1 -1.94208 -13.9668 1.89529 18
249 1 -1.93498 -12.5505 4.35637 22
250 1 -0.165124 -15.4021 4.53325 16
251 1 -1.91391 -12.2983 10.6171 12
252 1 -5.46315 -11.6948 9.80216 12
253 1 -1.85102 -6.70261 -0.660244 24
254 1 -0.616495 -9.74837 -0.820727 24
255 1 -0.313023 -11.3971 1.73419 24
256 1 -2.06727 -8.67794 2.02407 25
257 1 -1.78726 -6.94347 4.82923 24
258 1 -0.356773 -9.83772 4.82583 25
259 1 -2.24934 -14.4628 7.07707 11
260 1 -1.80852 -8.94328 7.26414 22
261 1 -2.0252 -6.89348 10.0797 23
262 1 -0.0600577 -10.1058 10.0477 19
263 1 -2.01367 -9.03624 12.5453 12
264 1 -1.87829 -0.939928 -0.858752 20
265 1 -0.264264 -4.01691 -0.651895 22
266 1 -0.386035 -5.88675 1.74221 22
267 1 -1.80053 -2.77382 1.61205 21
268 1 -1.98191 -0.973897 4.44688 23
269 1 0.00654903 -3.8707 4.30705 22
270 1 -0.48871 -5.90263 7.5272 22
271 1 -1.85753 -3.04633 6.57431 19
272 1 -1.90352 -1.30542 9.85042 22
273 1 -0.396245 -4.28852 10.4362 23
274 1 1.34784 -3.24711 12.9912 17
275 1 -2.32841 -3.42346 12.9202 16
276 2 -11.6929 -8.32663 -1.78878 16
277 2 -14.4336 -5.38318 -5.75367 10
278 2 -13.4888 -5.29108 3.99893 18
279 2 -15.247 -2.64292 3.31367 15
280 2 -14.9295 -2.53357 -1.72374 14
281 2 -13.7031 -3.8731 0.923474 19
282 2 -15.7212 -0.553427 5.75801 11
283 2 -13.757 -3.5099 6.07808 15
284 2 -9.63556 -11.6068 5.25671 12
285 2 -12.0852 -8.59858 3.70641 14
286 2 -11.9925 -6.58864 1.38101 17
287 2 -10.4891 -9.47105 1.26367 19
288 2 -12.3666 -6.89672 5.98896 13
289 2 -10.5821 -9.25943 6.30456 16
290 2 -10.2295 -5.81149 3.58218 25
291 2 -12.0371 -2.63341 3.65309 23
292 2 -11.2768 -1.0196 0.870151 22
293 2 -10.4326 -3.69145 1.37237 22
294 2 -9.37491 -5.99629 11.685 9
295 2 -11.6057 -2.71259 8.66443 15
296 2 -12.0317 -0.793038 6.16779 23
297 2 -10.3655 -4.10051 6.15231 23
298 2 -6.95917 -4.04407 11.5025 18
299 2 -9.25364 -11.8614 2.53107 14
300 2 -8.69031 -11.2545 8.22593 12
301 2 -6.81692 -11.8827 5.0432 17
302 2 -8.45144 -8.70644 3.92042 25
303 2 -8.64945 -6.81007 1.08218 22
304 2 -6.98108 -9.42406 1.29463 20
305 2 -6.51996 -10.3834 10.6427 12
306 2 -9.70381 -5.73888 8.91955 15
307 2 -8.70113 -6.70812 6.38032 23
308 2 -7.31895 -9.49048 6.65748 21
309 2 -8.77869 -8.57535 9.44023 18
310 2 -6.52304 -6.00324 3.87761 23
311 2 -8.36262 -2.87481 3.70839 22
312 2 -8.30004 -0.594119 1.2541 21
313 2 -6.76848 -3.67659 1.09931 19
314 2 -6.34877 -5.59521 8.62737 22
315 2 -8.58046 -3.22397 8.53914 21
316 2 -8.73838 -0.754182 6.02408 22
317 2 -6.94923 -3.89049 6.12797 22
318 2 -9.56893 -1.54127 11.0308 15
319 2 -6.27498 -6.95665 11.7418 15
320 2 -4.55052 -15.0347 2.48797 11
321 2 -6.18929 -12.6722 2.24154 15
322 2 -5.75026 -13.7443 -0.43239 14
323 2 -5.65086 -11.3857 7.92187 14
324 2 -3.53184 -11.709 3.68769 23
325 2 -5.26179 -8.82793 3.91622 21
326 2 -5.39613 -6.76132 1.18882 26
327 2 -3.75553 -9.73986 1.18475 20
328 2 -3.43724 -11.4662 9.63802 17
329 2 -5.02063 -8.66683 9.09272 24
330 2 -5.24371 -6.83398 6.19071 24
331 2 -3.56819 -9.58429 6.79293 22
332 2 -3.89455 -9.22016 12.0285 15
333 2 0.0103188 -12.1161 9.63375 16
334 2 -3.08795 -5.97889 3.91852 22
335 2 -5.30306 -3.00474 4.00818 22
336 2 -5.16857 -1.11791 0.975711 24
337 2 -3.50546 -3.952 1.28192 23
338 2 -3.64647 -6.18867 9.40187 22
339 2 -5.34933 -2.92433 9.16943 20
340 2 -5.51145 -1.0269 6.57227 23
341 2 -3.43019 -4.20915 6.56386 23
342 2 3.2861 -2.16457 13.6917 11
343 2 -1.91599 -7.19752 12.0076 17
344 2 -3.57875 -4.72383 12.4889 16
345 2 -0.846712 -4.61897 12.3726 15
346 2 -1.82539 -14.6089 3.76216 17
347 2 -1.92503 -12.1828 0.884836 20
348 2 -0.392511 -14.9963 1.16129 15
349 2 -0.482599 -15.274 6.33315 15
350 2 -0.330706 -11.4027 3.89776 25
351 2 -2.25986 -8.84776 4.04138 24
352 2 -2.06936 -6.84551 1.20119 22
353 2 -0.543036 -9.42555 1.26282 23
354 2 -1.91627 -12.571 6.37538 21
355 2 -1.71171 -8.74446 9.42645 22
356 2 -2.04739 -6.93867 7.03733 23
357 2 -0.0883794 -9.89643 6.78037 22
358 2 1.2476 -7.04466 12.0288 17
359 2 -3.73347 -14.8727 6.24807 10
360 2 -0.371841 -5.97692 3.97223 24
361 2 -1.73823 -2.77052 4.2158 19
362 2 -1.7847 -0.74211 1.16827 22
363 2 -0.312377 -3.9867 1.3931 21
364 2 -0.0936055 -5.9556 9.30034 22
365 2 -2.07683 -3.20283 9.79416 19
366 2 -2.10342 -1.03763 6.42218 22
367 2 -0.12929 -4.07684 6.3619 22
368 2 3.00643 -4.53674 12.0448 21
369 2 -1.12706 -10.5151 11.5501 10
370 2 -2.14663 -1.36133 12.0725 20
371 2 0.864308 -1.46035 12.0282 20
372 1 -11.6921 -0.534827 -10.6779 11
373 1 -14.2646 3.37547 -6.2973 13
374 1 -13.6142 0.0548103 -3.08702 20
375 1 -15.429 3.02654 -2.9742 11
376 1 -13.3821 7.36557 -5.97675 12
377 1 -15.2349 6.25091 -3.3893 11
378 1 -8.99415 6.72523 -13.5507 7
379 1 -10.2396 0.389928 -8.46342 22
380 1 -11.6847 3.52958 -7.93207 20
381 1 -11.6817 5.23697 -5.5249 23
382 1 -10.3173 2.10408 -5.89675 23
383 1 -10.3397 -0.095968 -3.55814 20
384 1 -12.1525 2.91346 -3.74261 20
385 1 -14.0454 5.03324 -8.41163 10
386 1 -10.0853 7.75739 -5.73433 20
387 1 -9.95614 5.97096 -2.9047 21
388 1 -11.7691 11.0288 -1.80514 13
389 1 -12.5393 8.55839 -3.56973 18
390 1 -6.43142 0.883718 -13.9606 15
391 1 -7.98287 3.22106 -13.7352 13
392 1 -11.3213 6.38218 -10.4798 11
393 1 -6.92197 2.11812 -11.0804 24
394 1 -7.15323 0.215353 -8.55088 25
395 1 -8.50096 3.41925 -8.52302 24
396 1 -8.57215 4.90474 -5.78304 22
397 1 -6.97691 1.9273 -5.82213 22
398 1 -6.96186 0.0440824 -3.23766 22
399 1 -8.88438 2.95544 -2.99069 21
400 1 -6.51208 4.48413 -15.801 6
401 1 -8.23312 5.4218 -11.1396 21
402 1 -6.83538 6.20459 -8.5565 23
403 1 -9.68413 6.19785 -8.15223 21
404 1 -8.86133 10.4685 -5.5321 19
405 1 -6.94085 8.03486 -6.10948 22
406 1 -6.88434 5.86495 -3.0034 22
407 1 -8.55938 8.78426 -3.30248 21
408 1 -7.26726 11.6333 -8.39844 15
409 1 -9.88606 12.2135 -7.84094 8
410 1 -7.35673 12.2469 -3.85799 15
411 1 -3.4217 -0.348646 -13.5296 20
412 1 -5.18544 2.92281 -13.7731 20
413 1 -5.02293 5.29292 -11.3701 20
414 1 -3.64998 2.09887 -11.2099 23
415 1 -3.55402 0.17818 -8.50317 25
416 1 -5.30732 3.168 -8.80653 22
417 1 -5.12172 5.22591 -6.28229 21
418 1 -3.87175 2.60294 -6.0844 22
419 1 -3.49851 0.248043 -3.34179 20
420 1 -5.17799 2.74557 -3.39093 21
421 1 -3.45225 5.28378 -13.801 14
422 1 -8.92028 9.01286 -8.59242 17
423 1 -3.1614 8.16546 -11.3953 19
424 1 -3.362 6.2367 -8.89023 24
425 1 -5.47411 9.15917 -8.44258 24
426 1 -5.66883 10.8946 -5.72103 21
427 1 -3.51441 8.32674 -6.14087 21
428 1 -3.54283 5.86711 -3.41248 21
429 1 -5.31355 8.71175 -3.48923 21
430 1 -5.12345 10.8328 -11.3287 12
431 1 -4.17258 13.2835 -5.86991 12
432 1 -3.52475 11.763 -3.14768 22
433 1 -5.06768 14.3716 -3.17348 12
434 1 -0.254508 0.199738 -13.9565 16
435 1 -2.05975 2.66901 -14.5839 15
436 1 -2.02119 4.81927 -11.5544 19
437 1 -0.37902 1.9175 -11.1793 20
438 1 -0.305695 0.204695 -8.44593 22
439 1 -2.25329 2.93506 -8.90817 20
440 1 -1.8238 5.21563 -5.90735 22
441 1 -0.330591 2.05938 -6.03954 24
442 1 -0.198155 0.352915 -3.19883 22
443 1 -1.69709 3.15621 -3.19661 23
444 1 0.0793734 5.27022 -14.0979 14
445 1 -6.65509 8.24747 -10.9475 17
446 1 -1.71524 10.834 -11.0383 12
447 1 -0.126992 7.49952 -10.8606 20
448 1 -0.2624 5.58212 -8.54909 21
449 1 -1.90448 8.89939 -8.66559 22
450 1 -1.91461 10.9039 -5.70136 23
451 1 -0.207457 7.69928 -6.18698 22
452 1 -0.0518348 5.74403 -3.29994 23
453 1 -2.14562 9.06623 -3.45738 22
454 1 -0.00430491 11.4843 -8.17478 16
455 1 0.0846262 13.5387 -5.74895 13
456 1 -0.1116 11.4973 -3.17754 26
457 1 -1.64298 14.0678 -3.1984 16
458 2 -12.0069 0.446421 -8.82051 17
459 2 -10.4478 0.746308 -11.4962 12
460 2 -13.5167 0.0253809 -0.991428 18
461 2 -14.966 5.00478 1.14617 13
462 2 -15.2438 2.54239 -4.9078 12
463 2 -13.6178 2.19895 -2.76775 19
464 2 -13.6782 5.47562 -6.59637 14
465 2 -14.5617 7.00304 -1.4782 12
466 2 -14.0824 7.52074 -4.15616 14
467 2 -8.59152 3.13937 -11.8136 19
468 2 -10.2504 0.518838 -6.67284 22
469 2 -12.0827 2.95139 -5.86067 21
470 2 -14.0506 3.04853 -8.27081 12
471 2 -10.3073 2.98832 -9.27327 21
472 2 -10.3894 0.26922 -1.37775 27
473 2 -11.828 3.6447 -1.10864 19
474 2 -11.7613 5.36183 -3.7278 21
475 2 -10.4193 2.01555 -3.81129 22
476 2 -10.2333 5.89665 -6.35667 22
477 2 -11.9346 8.80483 -6.14221 16
478 2 -12.1293 5.19687 -9.173 13
479 2 -10.4087 6.33609 -0.937709 18
480 2 -10.484 11.6442 -6.0841 13
481 2 -8.51139 10.7994 -3.60453 19
482 2 -10.3253 8.04182 -3.79149 23
483 2 -10.0094 11.4559 -0.558886 13
484 2 -7.06655 0.629383 -12.0784 20
485 2 -7.85724 5.28618 -14.3277 10
486 2 -6.60957 2.47728 -14.9229 12
487 2 -7.05184 0.264386 -6.56658 25
488 2 -8.60867 3.06919 -6.41574 23
489 2 -8.40536 5.25922 -9.12863 23
490 2 -7.01765 2.31947 -9.2504 23
491 2 -6.9635 0.482059 -1.21336 21
492 2 -8.80257 3.45602 -1.00582 20
493 2 -8.74607 4.7272 -3.45186 20
494 2 -7.27635 1.85206 -3.73656 22
495 2 -6.59723 6.27803 -11.1418 16
496 2 -7.2194 5.88836 -6.63145 20
497 2 -8.7496 8.99494 -6.68794 24
498 2 -10.0626 7.83639 -9.45145 15
499 2 -6.88527 8.26444 -9.09586 20
500 2 -7.14668 6.2948 -1.11952 23
501 2 -8.90303 9.05646 -1.26361 18
502 2 -8.94292 10.8514 -8.71837 11
503 2 -6.97725 7.8343 -4.10379 23
504 2 -5.87635 13.3283 -4.57367 12
505 2 -7.27824 12.7581 -1.96255 11
506 2 -12.1769 10.4357 -3.4632 13
507 2 -4.00735 0.0699023 -11.5453 22
508 2 -5.28186 3.48596 -11.7138 23
509 2 -4.9424 4.43127 -14.9219 13
510 2 -3.68872 1.51307 -13.9209 18
511 2 -3.69617 0.446288 -6.0966 20
512 2 -5.54781 3.09251 -6.77518 24
513 2 -5.14202 5.24844 -8.77092 22
514 2 -3.88039 1.95708 -9.16106 21
515 2 -3.4806 0.210511 -1.31576 24
516 2 -5.33426 3.03445 -0.868567 20
517 2 -5.25797 4.80039 -3.27064 19
518 2 -3.44985 2.24151 -3.8271 21
519 2 -3.25633 6.36684 -11.8555 18
520 2 -9.78535 6.13346 -11.6393 13
521 2 -3.31008 6.34198 -6.61629 21
522 2 -5.35718 8.97234 -6.58503 22
523 2 -5.50918 11.1079 -9.45744 15
524 2 -3.63813 8.19523 -9.24082 25
525 2 -3.43774 5.99084 -1.49977 24
526 2 -5.89594 8.8511 -1.51912 21
527 2 -4.5479 10.33 -4.10009 21
528 2 -3.60018 7.70641 -4.12486 23
529 2 -7.40345 11.2603 -6.46991 18
530 2 -3.77404 11.7021 -1.11094 23
531 2 -5.03378 14.7393 -1.32766 14
532 2 -3.44092 13.5242 -4.0275 17
533 2 -0.368354 -0.0112121 -11.8253 24
534 2 -2.06189 2.73608 -12.0393 25
535 2 -1.66834 4.68868 -14.3407 13
536 2 -0.200956 2.11059 -14.4515 15
537 2 -0.452353 0.138397 -6.37018 21
538 2 -1.96569 3.30561 -6.88491 24
539 2 -2.09779 4.78144 -9.69155 24
540 2 -0.348614 1.83251 -9.12415 24
541 2 -0.0550418 -0.094182 -1.2986 22
542 2 -1.68881 2.61791 -1.33682 22
543 2 -1.75076 5.03481 -3.94936 21
544 2 -0.100492 1.96883 -4.19464 24
545 2 -0.0288322 5.9907 -11.9987 21
546 2 -5.01206 9.03989 -11.5784 14
547 2 -0.114902 5.65264 -6.64788 22
548 2 -1.71015 8.90633 -6.74292 22
549 2 -3.51321 11.3976 -11.0006 11
550 2 0.00710112 7.58992 -8.83807 22
551 2 -0.612228 5.69904 -1.53022 21
552 2 -2.13153 8.87209 -1.56566 25
553 2 -1.77703 10.903 -3.69885 22
554 2 -0.391263 7.70263 -4.06746 23
555 2 -1.7263 10.9975 -9.2249 17
556 2 -3.93335 11.622 -6.85542 19
557 2 -1.5116 8.8383 -10.9087 14
558 2 -0.314379 11.4045 -1.27812 25
559 2 -1.99029 14.1027 -1.38315 18
560 2 0.0887384 13.4675 -3.79349 17
561 1 -15.8025 5.6614 -0.473384 11
562 1 -13.3621 2.58081 -0.801343 19
563 1 -13.2963 0.21196 1.38216 19
564 1 -13.4088 2.14618 4.18007 21
565 1 -15.0002 0.776242 6.90208 12
566 1 -14.3779 4.335 5.55588 11
567 1 -15.2652 -2.26897 6.47292 9
568 1 -13.8406 6.22339 2.20203 16
569 1 -15.0561 3.19671 2.00681 13
570 1 -12.2923 7.09785 6.77897 10
571 1 -13.0484 1.52776 10.0288 11
572 1 -12.2776 5.39566 -1.69629 22
573 1 -10.582 2.27559 -0.814305 21
574 1 -9.96597 0.304127 1.93315 25
575 1 -11.751 3.53728 1.94838 20
576 1 -11.6522 5.07803 4.12917 17
577 1 -10.5106 2.01799 4.64433 23
578 1 -10.2765 0.177127 6.62007 19
579 1 -12.4968 2.10744 7.33399 18
580 1 -11.2056 4.45534 8.70354 13
581 1 -10.042 1.73779 9.72724 21
582 1 -10.9102 -0.364175 11.8346 10
583 1 -11.503 10.2422 -5.01858 15
584 1 -10.483 8.24959 -0.58562 22
585 1 -10.4394 6.201 2.25958 19
586 1 -14.013 8.41539 -0.391381 14
587 1 -12.5074 8.80354 2.37756 12
588 1 -10.0432 7.9137 4.65734 17
589 1 -10.622 7.16395 9.36708 10
590 1 -8.68716 8.46928 7.29825 15
591 1 -7.16532 7.45138 10.0016 18
592 1 -10.6106 11.785 1.32212 10
593 1 -8.73843 5.22396 -0.0898038 22
594 1 -7.14509 2.38095 -0.507828 23
595 1 -6.53573 0.379752 1.76441 21
596 1 -8.63411 2.8217 2.15061 22
597 1 -8.60069 4.93911 4.81692 22
598 1 -6.76593 1.74314 4.68002 24
599 1 -7.25046 -0.0266301 7.307 22
600 1 -8.6986 2.65484 7.12718 21
601 1 -8.5079 4.64071 10.3295 19
602 1 -6.90007 1.89676 9.79979 22
603 1 -5.13351 -2.88235 12.3232 17
604 1 -8.84803 2.49184 12.9509 12
605 1 -8.33553 11.1458 -1.41187 16
606 1 -7.34862 8.18826 -0.27497 23
607 1 -7.02699 5.99366 2.00435 21
608 1 -8.81604 9.16894 2.06586 22
609 1 -8.45676 10.9361 4.73552 12
610 1 -6.81261 7.83085 4.56505 22
611 1 -6.68975 5.7524 7.27308 21
612 1 -6.39122 9.19568 12.9485 11
613 1 -7.0324 12.3807 11.3094 8
614 1 -7.22061 5.54505 12.7955 11
615 1 -6.67413 13.8996 -0.459742 13
616 1 -7.46542 11.913 2.34588 18
617 1 -6.43204 13.6298 4.91869 14
618 1 -7.92335 12.5941 7.69308 9
619 1 -5.3217 5.20067 -1.08933 20
620 1 -3.59336 2.26704 -0.863562 22
621 1 -3.57592 -0.00688584 1.85232 22
622 1 -4.96462 3.07211 1.85003 22
623 1 -5.23076 4.92717 4.41399 23
624 1 -3.60667 1.84904 4.62617 24
625 1 -3.7035 -0.330343 7.34909 24
626 1 -5.2488 2.63156 7.05734 24
627 1 -5.2243 4.43813 10.5313 24
628 1 -3.57853 1.42444 10.3243 23
629 1 -3.08756 -0.0332755 13.2907 15
630 1 -6.42331 -0.0137629 13.7905 10
631 1 -5.43698 10.8687 -0.733807 22
632 1 -3.65957 7.90562 -0.902855 23
633 1 -3.48058 5.67222 1.56674 21
634 1 -5.42923 8.93779 2.04855 22
635 1 -5.30494 10.7586 4.92575 22
636 1 -3.73614 7.73349 4.53122 21
637 1 -3.57753 5.49047 7.2972 24
638 1 -5.46368 8.27748 7.51295 19
639 1 -8.23843 9.99081 9.92215 13
640 1 -3.58202 7.05398 9.85411 17
641 1 -2.13345 2.34209 12.5594 17
642 1 -5.00516 9.94066 10.6844 20
643 1 6.02598 16.2833 -0.712457 8
644 1 -3.71108 11.6774 1.86024 22
645 1 -5.28036 14.2997 2.5278 14
646 1 -3.29346 13.2122 4.93938 21
647 1 -4.91215 14.2878 7.65121 10
648 1 -1.84136 4.56165 -0.708004 24
649 1 0.0390213 1.75408 -0.580327 23
650 1 -0.0447554 -0.038427 1.99992 21
651 1 -1.89916 2.84547 1.91353 23
652 1 -1.83078 4.8304 4.50551 23
653 1 -0.536241 1.86424 4.6609 23
654 1 -0.33343 -0.480329 7.19198 22
655 1 -2.04887 2.64803 7.07694 23
656 1 -1.97388 4.21625 9.90855 20
657 1 -0.529261 1.51756 9.78426 24
658 1 -0.448461 -0.21684 12.9718 20
659 1 -5.14545 2.47365 12.654 14
660 1 -2.18415 10.6999 -0.625684 23
661 1 -0.485723 7.65196 -0.592491 22
662 1 -0.114031 5.71253 1.82815 23
663 1 -2.26919 8.53934 2.07932 22
664 1 -1.49387 10.2657 4.69394 24
665 1 -0.465248 7.42234 4.65675 24
666 1 -0.431147 5.34201 7.40796 24
667 1 -2.27318 8.17537 7.23133 23
668 1 -3.36883 12.8632 10.6647 11
669 1 -0.175969 7.054 9.97744 24
670 1 -0.178071 5.58481 12.3781 13
671 1 -3.08694 9.54276 13.4784 6
672 1 -0.344196 13.1522 -0.561119 19
673 1 -3.58416 13.6679 -0.532284 17
674 1 -0.472568 11.1919 1.77437 20
675 1 -2.13802 14.4374 2.54012 15
676 1 0.0719477 13.8522 5.48075 14
677 1 -1.82374 9.9949 10.3377 18
678 1 -3.42538 11.1474 7.80817 20
679 1 -2.21172 13.9037 7.696 13
680 2 -14.9826 -1.00315 0.815415 14
681 2 -14.9927 3.51995 3.68819 13
682 2 -15.564 4.4282 -1.87338 10
683 2 -13.347 2.25316 1.1309 18
684 2 -13.9247 1.02717 8.4492 11
685 2 -13.5894 -0.131592 3.35191 22
686 2 -11.9369 6.03724 8.24694 8
687 2 -13.8039 7.90621 1.5202 12
688 2 -10.1011 -0.046751 3.78875 22
689 2 -11.8344 3.21996 3.86432 23
690 2 -12.279 5.26629 2.10546 20
691 2 -10.4448 2.07781 1.46336 22
692 2 -10.1717 -0.00445973 8.67421 24
693 2 -11.821 2.7475 9.01325 16
694 2 -14.0491 2.20743 5.94617 15
695 2 -10.6021 2.03557 6.50649 22
696 2 -12.2618 -0.0834123 10.5861 12
697 2 -10.0907 6.08888 4.24076 19
698 2 -13.1507 5.91739 5.48078 13
699 2 -12.1639 9.17637 -1.24527 18
700 2 -10.5021 8.24164 1.8801 19
701 2 -8.93518 8.29663 9.17829 16
702 2 -10.7099 7.72939 6.57477 14
703 2 -12.0027 10.437 1.93312 11
704 2 -6.61805 0.0749905 3.77727 23
705 2 -8.52168 2.98011 4.27659 21
706 2 -8.8852 5.23938 1.84806 21
707 2 -6.87104 2.38025 1.52468 20
708 2 -6.98142 -0.152837 9.13473 23
709 2 -8.44107 2.89569 9.35059 21
710 2 -7.84104 4.24441 6.54365 18
711 2 -7.13032 1.59843 6.71255 22
712 2 -7.08572 -1.42767 12.6468 10
713 2 -9.87735 5.63443 9.73182 13
714 2 -6.8603 1.80146 12.9701 13
715 2 -6.78334 5.89752 4.19533 21
716 2 -8.39516 8.84296 4.49204 19
717 2 -9.19973 11.0761 2.40649 14
718 2 -7.05515 7.95642 1.70959 19
719 2 -6.79487 5.56479 9.54357 21
720 2 -6.89474 7.35792 12.4716 14
721 2 -8.49304 11.3534 6.61184 12
722 2 -7.1205 7.65621 6.73453 19
723 2 -1.6797 9.40196 12.357 13
724 2 -6.7742 11.8079 4.23659 22
725 2 -6.82348 13.6099 1.51393 14
726 2 -7.99185 11.9974 9.48604 9
727 2 -6.60456 13.9456 6.85189 11
728 2 -3.6843 -0.0803371 3.72939 25
729 2 -5.36241 2.97652 4.04789 21
730 2 -5.45984 5.02009 1.03036 22
731 2 -3.7706 1.73322 1.12249 23
732 2 -3.70476 -0.48479 9.57169 21
733 2 -5.06171 2.45834 10.2996 18
734 2 -5.08151 4.48708 6.76152 21
735 2 -3.81506 1.57163 6.6283 23
736 2 -4.75946 -1.11743 13.7331 12
737 2 -8.58308 4.20685 12.1984 14
738 2 -9.96446 1.44175 11.8535 14
739 2 -5.57995 4.46601 12.5037 13
740 2 -3.39118 6.03402 3.9124 22
741 2 -5.14759 8.84658 3.85093 21
742 2 -5.62804 10.7137 1.24511 22
743 2 -3.71429 7.46408 1.05787 23
744 2 -3.54818 5.30516 9.41795 22
745 2 -7.00215 10.2908 11.3756 11
746 2 -4.76546 10.0422 6.84565 19
747 2 -3.85383 7.21431 6.47747 23
748 2 -4.63189 9.37138 12.4807 11
749 2 -3.65681 14.1245 9.10238 9
750 2 -3.82051 11.7589 3.80294 23
751 2 -4.68422 14.2061 4.30701 14
752 2 1.14945 14.1912 -1.14538 15
753 2 -5.26511 8.07184 9.5075 22
754 2 -3.86311 12.8199 6.72439 17
755 2 -0.401733 -0.0252232 3.88961 24
756 2 -2.14046 2.9453 3.99123 23
757 2 -2.00999 4.67071 1.30106 23
758 2 -0.253419 1.9385 1.58298 21
759 2 -0.5 -0.469458 9.22085 22
760 2 -2.17477 2.48613 9.06962 26
761 2 -2.02907 4.46452 6.55276 25
762 2 -0.527952 1.49359 6.52699 22
763 2 -1.57677 0.895077 14.09 13
764 2 -1.5376 4.15116 11.9632 17
765 2 -3.85247 1.37121 12.3872 18
766 2 0.0998669 1.39782 11.8766 24
767 2 -0.219537 5.5584 3.82772 23
768 2 -1.82009 8.56377 3.92006 21
769 2 -2.22809 10.31 1.21478 24
770 2 -0.634719 7.56529 1.27946 25
771 2 -0.495419 5.24784 9.34422 22
772 2 -1.80458 8.13415 9.71524 23
773 2 -2.02919 10.3012 6.6119 23
774 2 -0.522145 7.30509 6.68995 23
775 2 3.02064 7.17424 11.7627 18
776 2 -5.09922 12.4368 11.2418 9
777 2 0.568139 7.37999 12.3089 16
778 2 -0.0522616 11.3545 3.70968 23
779 2 -1.52925 14.1515 4.30372 14
780 2 -0.516359 13.3946 1.57868 20
781 2 -3.60243 13.5594 1.71166 19
782 2 -3.35437 11.0951 9.69527 16
783 2 -0.630495 13.2483 6.97858 15
784 1 0.850288 -14.8494 -3.42604 16
785 1 4.49957 -15.1106 -3.71669 15
786 1 2.70895 -15.7144 -6.13018 13
787 1 2.93441 -9.48012 -11.5619 12
788 1 1.48731 -6.70962 -11.0592 23
789 1 2.78553 -11.845 -8.6801 14
790 1 0.455351 -14.5532 -8.4959 12
791 1 1.15875 -9.00442 -8.54958 24
792 1 1.20362 -6.7257 -5.98711 23
793 1 3.00406 -9.87834 -5.95098 22
794 1 2.6539 -11.8809 -3.59485 22
795 1 1.24023 -8.8562 -3.40364 24
796 1 2.49071 -5.67473 -13.7576 14
797 1 1.40897 -2.92944 -13.8555 19
798 1 1.51281 -0.923514 -11.3341 23
799 1 3.03468 -3.7324 -11.1972 22
800 1 3.11306 -5.81916 -8.62043 22
801 1 1.12253 -3.04082 -8.63365 22
802 1 0.98288 -1.18888 -6.20193 22
803 1 2.62429 -4.18232 -5.97545 21
804 1 3.20664 -5.90855 -3.26633 26
805 1 1.22179 -2.6582 -3.38118 19
806 1 4.49902 -12.8031 -5.68182 20
807 1 9.43464 -14.4747 -0.515463 12
808 1 4.98412 -6.67097 -11.1142 16
809 1 7.10578 -11.8606 -7.37286 14
810 1 6.18935 -15.0995 -6.08473 12
811 1 4.87934 -9.19261 -9.30352 16
812 1 4.64423 -7.13145 -6.1317 21
813 1 6.39215 -9.5692 -6.30615 20
814 1 6.20808 -11.6159 -3.71887 23
815 1 4.68503 -8.71109 -3.2113 25
816 1 8.40382 -6.39824 -11.2193 13
817 1 4.7931 -2.90323 -13.4747 16
818 1 4.72097 -1.0666 -11.4664 23
819 1 6.31759 -3.85008 -11.1346 18
820 1 6.34785 -5.97671 -8.66713 21
821 1 4.80864 -3.05786 -8.44947 20
822 1 4.90176 -0.795136 -6.5446 19
823 1 5.68381 -4.20989 -5.76729 21
824 1 6.80266 -6.03744 -3.32301 22
825 1 4.71273 -3.13892 -3.45369 20
826 1 7.79685 -14.5786 -3.41048 15
827 1 13.0023 -8.87785 -6.48931 8
828 1 7.88008 -8.5776 -8.6923 16
829 1 7.93654 -6.36751 -5.85884 22
830 1 9.46404 -9.98195 -6.17792 17
831 1 9.65948 -11.8725 -3.52709 16
832 1 8.15415 -8.67093 -2.97221 22
833 1 9.81048 -3.54442 -10.8424 19
834 1 8.31188 -1.14491 -10.9135 19
835 1 11.8493 -5.59427 -10.8212 12
836 1 10.2026 -5.92309 -8.49655 21
837 1 8.16642 -3.26908 -8.16524 22
838 1 8.07385 -1.25172 -5.97974 22
839 1 10.0381 -4.08205 -5.8264 21
840 1 10.0556 -5.81229 -2.94512 23
841 1 8.34506 -2.86344 -3.27821 24
842 1 9.33674 -13.5748 -6.44116 9
843 1 10.6567 -7.33509 -5.31822 17
844 1 11.5888 -9.02219 -3.14272 16
845 1 11.9905 -1.7149 -10.7088 12
846 1 13.3625 -5.81458 -7.92606 10
847 1 11.6793 -3.45952 -8.49195 19
848 1 11.4711 -1.07559 -5.24396 22
849 1 13.3418 -3.39781 -5.74378 15
850 1 13.2549 -6.03512 -3.09346 14
851 1 11.5735 -3.22907 -3.03994 20
852 1 13.0832 4.4756 -8.13114 11
853 1 15.0506 -3.22622 -3.23522 12
854 2 -1.04566 -14.0773 -7.39777 14
855 2 1.27805 -12.7143 -8.96958 12
856 2 0.810293 -14.6138 -1.3662 18