ITEM: TIMESTEP
178000
ITEM: NUMBER OF ATOMS
1500
ITEM: BOX BOUNDS pp pp pp
-30.0 30.0
-30.0 30.0
-30.0 30.0
ITEM: ATOMS id type x y z Coordination
1 1 -10.102 -0.511206 -14.0002 12
2 1 -15.0454 -3.45908 -4.45412 11
3 1 -12.8102 -6.14608 -6.80339 15
4 1 -15.2292 -0.954255 -6.43501 11
5 1 -14.5582 -4.46084 -7.39634 10
6 1 -10.0494 -11.6245 -4.48134 13
7 1 -8.78648 -12.6998 -1.81135 12
8 1 -10.6388 -4.80569 -8.96976 17
9 1 -6.9855 8.33947 -11.0898 11
10 1 -12.4281 -2.69271 -8.43056 18
11 1 -9.92486 -3.33129 -11.7095 14
12 1 -8.46233 -9.05967 -9.72381 12
13 1 -12.1025 -0.812872 -5.59699 20
14 1 -10.368 -3.61161 -5.7784 24
15 1 -10.6487 -5.97075 -3.75861 20
16 1 -12.0511 -2.81899 -3.02855 23
17 1 -4.59369 -12.2607 -6.68919 18
18 1 -8.93247 -6.27355 -11.3441 13
19 1 -10.7271 -10.6345 -7.52623 11
20 1 -8.00892 -11.7306 -7.48811 12
21 1 -10.3064 -7.71663 -7.88745 13
22 1 -8.44067 -6.58943 -6.14585 20
23 1 -6.8647 -9.42084 -6.70294 18
24 1 -6.91595 -11.2013 -4.34557 20
25 1 -8.46468 -8.46856 -3.63996 21
26 1 -6.78302 -2.35551 -14.3943 13
27 1 -11.6703 -0.420836 -11.5174 14
28 1 -8.75871 0.291648 -10.9105 22
29 1 -6.73853 -3.42491 -11.2539 22
30 1 -7.06453 -5.48536 -8.92591 22
31 1 -8.5293 -2.68166 -8.46332 21
32 1 -8.87674 -1.12485 -5.66347 23
33 1 -6.75544 -3.66482 -6.16753 22
34 1 -6.77102 -5.72224 -2.98906 24
35 1 -8.47062 -2.94478 -3.03733 22
36 1 -1.48713 -12.4235 -5.74793 20
37 1 -3.65989 -15.1466 -0.946238 13
38 1 -6.07557 -7.09881 -11.195 13
39 1 -3.11259 -6.90862 -12.9899 12
40 1 -3.26093 -14.4171 -7.56035 10
41 1 -4.91742 -8.22214 -8.67175 18
42 1 -5.16155 -6.71168 -6.02707 23
43 1 -3.52869 -9.39273 -6.52463 21
44 1 -3.49714 -11.3841 -4.01989 22
45 1 -5.11901 -8.76108 -3.54571 23
46 1 -6.4186 -5.5208 -13.6353 12
47 1 -1.49679 -1.90856 -14.8043 15
48 1 -5.67071 -0.365303 -11.4667 22
49 1 -3.95505 -2.22147 -12.7521 19
50 1 -3.57811 -5.63487 -8.37461 23
51 1 -5.11015 -2.67383 -8.84021 24
52 1 -5.22407 -0.860038 -6.09311 23
53 1 -3.78827 -3.62381 -5.82214 21
54 1 -3.6057 -5.83432 -3.06023 23
55 1 -5.43661 -2.91402 -3.01363 23
56 1 1.59069 -12.3353 -6.12243 23
57 1 0.240299 -15.2184 -6.51414 15
58 1 -1.41208 -14.3107 -3.39319 18
59 1 -0.0845916 -10.0916 -10.4878 12
60 1 -3.23455 -4.48315 -11.0789 21
61 1 -2.82968 -11.1899 -9.239 15
62 1 3.11824 -14.6319 -8.27815 12
63 1 -2.36151 -8.03438 -10.0071 16
64 1 -1.66071 -5.94732 -5.87302 21
65 1 -0.492034 -9.59941 -6.68113 23
66 1 -0.428899 -11.5545 -3.33318 22
67 1 -1.74548 -8.52748 -3.92119 21
68 1 -4.04629 -4.18229 -15.3771 12
69 1 -1.30874 -4.56895 -13.8633 16
70 1 -1.85348 -0.602595 -11.1304 20
71 1 -0.380054 -3.38956 -11.4745 23
72 1 -0.159487 -5.51055 -8.76787 25
73 1 -1.85365 -2.89445 -8.6438 24
74 1 -1.91635 -0.648793 -6.15394 23
75 1 -0.277148 -3.63259 -5.85337 23
76 1 -0.276619 -5.87118 -3.17366 21
77 1 -1.6319 -2.87576 -3.08637 22
78 2 -12.6118 -4.49521 -8.42122 13
79 2 -13.4458 -5.69765 -0.657296 18
80 2 -12.4083 -7.00381 -4.48074 13
81 2 -13.5581 0.321428 -6.80971 18
82 2 -14.8787 -1.43749 -4.70317 13
83 2 -10.3469 -2.84378 -8.58965 17
84 2 -9.64824 -11.9422 -6.35094 11
85 2 -9.78432 -11.197 -0.927406 15
86 2 -10.3331 -9.61238 -3.76223 18
87 2 -11.1855 -8.93594 -6.54846 13
88 2 -8.44327 -12.0478 -3.5502 15
89 2 -9.17918 -10.7361 -8.8422 11
90 2 -11.967 -2.47637 -6.37711 24
91 2 -9.33829 1.35369 -14.3267 14
92 2 -10.9261 -6.12601 -7.31311 20
93 2 -10.4477 -5.73448 -1.70966 25
94 2 -12.3487 -2.53439 -1.22246 20
95 2 -11.7755 -0.703816 -3.67466 23
96 2 -10.4679 -3.68123 -3.89602 19
97 2 -3.15265 -11.0235 -6.02471 22
98 2 -3.53449 -12.6628 -8.22259 12
99 2 -8.30984 -8.18239 -7.31054 20
100 2 -9.60108 -1.34275 -12.0794 18
101 2 -9.97694 -4.94138 -10.7639 13
102 2 -7.14176 -12.0385 -1.09459 14
103 2 -8.53063 -8.20318 -1.77608 20
104 2 -8.70211 -6.40691 -4.08073 20
105 2 -7.37467 -9.37995 -4.7187 20
106 2 -7.16354 -5.43098 -11.5122 13
107 2 -8.45892 -1.39386 -14.5333 12
108 2 -7.08971 -5.47873 -6.79241 23
109 2 -8.61387 -2.87936 -6.39575 21
110 2 -8.51025 -0.792297 -8.95141 19
111 2 -6.86186 -3.55021 -9.3191 20
112 2 -6.86384 -5.81107 -1.15214 22
113 2 -8.68117 -2.84117 -1.18174 23
114 2 -8.69573 -0.953677 -3.77573 23
115 2 -7.04373 -3.92962 -3.8989 23
116 2 -6.5296 -8.73771 -10.0516 14
117 2 -3.76576 -15.2021 0.972631 13
118 2 -6.20832 -11.3501 -6.5282 17
119 2 -4.36377 -14.9598 -2.68898 11
120 2 -15.3402 -2.65956 -7.14636 10
121 2 -5.21124 -6.2593 -9.25805 21
122 2 -5.14195 -8.46971 -6.69997 19
123 2 -9.86424 -7.78144 -9.70317 12
124 2 -2.87954 -5.54712 -14.2684 14
125 2 -3.70439 -11.3401 -0.486535 20
126 2 -5.99239 -8.78458 -1.57064 23
127 2 -5.2221 -6.90017 -4.00614 22
128 2 -3.46567 -9.69762 -3.17751 20
129 2 -2.83442 -6.51281 -11.2569 19
130 2 -3.67922 -0.371571 -12.188 19
131 2 -5.87508 -1.72428 -12.9283 17
132 2 -5.79119 -3.84793 -14.7876 12
133 2 -3.433 -5.62521 -6.48689 23
134 2 -5.13287 -2.63237 -6.82141 23
135 2 -5.1043 -0.583536 -9.60473 25
136 2 -3.22385 -4.04192 -9.24601 19
137 2 -3.7602 -6.09761 -0.841391 20
138 2 -5.51972 -3.04034 -1.20819 23
139 2 -5.09488 -0.950129 -3.97382 22
140 2 -3.79951 -3.79872 -3.75742 21
141 2 -5.21291 -11.9153 -3.52916 18
142 2 -3.45743 -9.41574 -8.99162 18
143 2 -2.00522 -14.5198 -1.68534 17
144 2 -1.96708 -12.647 -3.97182 20
145 2 -0.222477 -15.2123 -4.64979 15
146 2 -1.03771 -11.5582 -9.83872 13
147 2 -5.0416 -6.54921 -12.778 13
148 2 -4.20885 -14.0383 -5.78614 13
149 2 -2.03514 -8.4219 -5.78453 20
150 2 -1.79178 -6.5074 -8.73454 19
151 2 -0.80154 -8.54346 -10.8235 14
152 2 -0.354018 -11.707 -0.845517 21
153 2 -2.18022 -8.85152 -0.583832 19
154 2 -1.84732 -6.63426 -3.9229 21
155 2 -0.246275 -9.58405 -3.09434 20
156 2 -0.200095 -5.08749 -12.3381 19
157 2 -1.97546 -2.62274 -12.1525 21
158 2 -1.33284 -0.0366464 -14.195 15
159 2 -3.30706 -2.65548 -14.8755 13
160 2 -0.0899212 -5.47603 -6.51818 22
161 2 -1.95307 -2.78955 -6.4104 21
162 2 -1.94618 -0.963439 -9.14408 20
163 2 -0.150568 -3.86866 -9.43511 24
164 2 -0.375245 -5.79945 -1.26341 22
165 2 -2.20716 -3.01091 -1.14754 21
166 2 -2.05531 -1.1861 -3.71165 22
167 2 -0.261314 -3.92896 -3.83328 22
168 1 -13.761 -5.96188 -3.88182 13
169 1 -11.9062 -8.82571 -4.84192 12
170 1 -14.8834 -0.714635 -0.286611 12
171 1 -13.8617 -3.90773 -1.35078 16
172 1 -13.8087 -5.75678 1.2792 14
173 1 -15.3142 -2.88697 1.47341 12
174 1 -15.2357 -0.598605 4.8423 12
175 1 -13.9522 -3.89021 4.42822 15
176 1 -13.6571 -5.51131 7.22743 11
177 1 -12.0659 -6.63129 -1.35892 16
178 1 -10.6833 -9.63362 -1.6855 16
179 1 -8.70771 -12.0292 3.9232 16
180 1 -12.371 -8.47845 1.27216 14
181 1 -12.4816 -6.79075 4.20611 18
182 1 -10.9496 -9.69683 3.95221 16
183 1 -12.3264 -8.47419 6.54833 13
184 1 -11.8562 -0.464809 -0.504384 21
185 1 -10.4909 -3.67415 -0.755599 22
186 1 -10.4551 -5.82044 1.89124 24
187 1 -12.274 -3.07084 2.09868 23
188 1 -11.491 -1.00854 5.03836 23
189 1 -10.7483 -3.85983 4.92234 22
190 1 -10.6403 -5.85866 7.76268 19
191 1 -12.16 -2.89001 7.92386 21
192 1 -13.2902 0.755197 7.51275 19
193 1 -10.5616 -3.78444 10.4736 15
194 1 -10.3533 -11.284 0.892186 14
195 1 -10.1206 -11.5931 6.70098 12
196 1 -8.68495 -6.40298 -0.770682 24
197 1 -7.6939 -9.7284 -0.890438 24
198 1 -7.04228 -11.802 0.808247 19
199 1 -8.9163 -8.73735 1.99939 22
200 1 -9.08594 -6.60185 4.95786 23
201 1 -7.49726 -9.55327 5.09569 24
202 1 -7.0896 -11.5278 7.19041 18
203 1 -9.09494 -8.52775 7.70099 21
204 1 -8.74738 -6.85871 9.85149 16
205 1 -9.32143 -10.64 9.79479 12
206 1 -8.47807 -1.01208 -0.354417 21
207 1 -7.18707 -3.93205 -0.522404 23
208 1 -7.40774 -6.09197 2.07435 23
209 1 -9.046 -3.25394 2.06347 23
210 1 -8.5461 -0.712713 4.46082 21
211 1 -7.02472 -3.94142 4.62603 22
212 1 -7.22173 -5.73284 7.21733 21
213 1 -8.82726 -3.22651 7.45997 21
214 1 -9.01137 -1.00022 10.5598 19
215 1 -7.33533 -3.96788 10.0839 22
216 1 -8.11356 -2.72524 13.0473 13
217 1 -6.874 0.126072 12.3059 14
218 1 -5.37482 -12.0025 -1.5335 19
219 1 -5.30772 -14.6621 2.25464 12
220 1 -2.26294 -15.0737 5.7938 13
221 1 -5.8467 -12.7078 3.86243 17
222 1 -5.20116 -15.0294 5.89958 9
223 1 -5.45594 -7.16727 -0.572451 22
224 1 -3.79805 -9.55128 -1.20759 19
225 1 -3.95897 -11.8412 1.34582 19
226 1 -5.74337 -9.11744 2.04811 21
227 1 -5.96021 -7.19813 4.65273 21
228 1 -3.76686 -9.94693 3.74254 20
229 1 -4.25543 -11.8009 6.17545 17
230 1 -5.70644 -8.67246 7.57917 20
231 1 -5.47463 -6.92255 10.1908 20
232 1 -4.17866 -9.92993 9.4297 15
233 1 -7.07664 -9.11717 11.1393 13
234 1 -4.91431 -0.84268 -0.662546 23
235 1 -3.99763 -4.01759 -0.46159 22
236 1 -4.09763 -6.03314 1.8677 22
237 1 -5.52869 -2.70528 1.96405 20
238 1 -5.3586 -1.23928 4.97254 23
239 1 -3.96368 -4.08181 4.46447 20
240 1 -3.9132 -5.59044 7.17486 23
241 1 -5.16012 -2.73877 7.58781 23
242 1 -5.68004 -1.23394 10.2365 21
243 1 -3.83564 -3.83043 9.98644 23
244 1 -0.555793 -7.53611 13.399 6
245 1 -3.47838 -5.37543 13.3813 11
246 1 -1.99175 -12.5456 -0.809716 25
247 1 -0.384146 -15.4128 -1.05964 16
248 1 -2.18999 -14.9653 1.93832 15
249 1 -2.31416 -12.694 4.15955 16
250 1 0.722836 -13.9649 7.44686 15
251 1 -2.4165 -11.9567 10.3754 10
252 1 -5.97561 -12.144 10.3562 11
253 1 -2.0561 -6.78805 -0.416091 21
254 1 -0.222405 -9.30392 -0.865697 21
255 1 -0.358951 -11.4559 1.51293 25
256 1 -2.09912 -8.7256 1.48318 21
257 1 -2.02903 -6.7108 3.92882 19
258 1 -0.605573 -9.72527 4.28724 20
259 1 -2.15206 -15.2183 8.66547 6
260 1 -2.39055 -8.72029 6.74667 20
261 1 -2.36793 -6.82799 10.1178 20
262 1 -0.866157 -9.17318 9.70908 16
263 1 -6.88385 -5.85106 12.857 11
264 1 -2.26086 -1.05707 -0.53831 23
265 1 -0.400713 -3.79309 -0.815548 21
266 1 -0.451898 -5.69767 1.99395 22
267 1 -2.0576 -2.88991 2.00805 23
268 1 -1.99547 -0.841614 4.97919 24
269 1 -0.519515 -3.83372 4.68206 24
270 1 -0.534371 -5.94708 7.18266 22
271 1 -2.1167 -3.03667 7.10069 22
272 1 -1.86041 -1.14121 10.046 21
273 1 -0.213501 -3.81497 10.1207 23
274 1 1.78751 -3.56914 12.9181 18
275 1 -1.71609 -2.99403 13.0074 12
276 2 -11.8932 -8.55382 -0.704569 14
277 2 -14.3139 -5.49863 -5.76143 10
278 2 -13.2489 -5.44273 5.37156 16
279 2 -14.6706 -1.03072 1.58771 14
280 2 -13.478 -4.09302 -3.44757 19
281 2 -14.7051 -4.62402 2.75039 12
282 2 -14.9755 -2.40747 5.10372 14
283 2 -13.8965 -3.49823 7.70793 12
284 2 -10.3548 -11.5396 4.92828 14
285 2 -12.5624 -8.62683 4.6311 12
286 2 -12.2068 -6.51657 1.95446 17
287 2 -10.7703 -9.41957 1.82439 17
288 2 -12.3066 -6.85127 7.41707 13
289 2 -10.5257 -9.6633 6.94105 17
290 2 -10.641 -5.50648 3.9064 20
291 2 -12.0707 -2.85786 4.02788 22
292 2 -12.0073 -0.985203 1.63447 21
293 2 -10.8728 -3.91345 1.35047 19
294 2 -5.26645 -5.14138 13.6343 9
295 2 -14.6945 -0.438709 7.03981 13
296 2 -12.125 -0.940489 6.91685 20
297 2 -10.747 -3.76691 6.98233 22
298 2 -7.00076 -4.13871 12.0509 19
299 2 -8.9124 -11.6599 1.99185 16
300 2 -8.83648 -11.8505 8.40002 11
301 2 -7.21857 -11.3654 4.66116 18
302 2 -9.4155 -8.49773 4.14614 23
303 2 -8.86059 -6.76054 1.09318 24
304 2 -7.47678 -9.70055 1.1355 23
305 2 -7.53982 -10.9854 10.885 10
306 2 -10.0871 -5.51666 9.75276 16
307 2 -9.03658 -6.77802 6.91844 23
308 2 -7.78757 -9.67615 7.11335 20
309 2 -9.00639 -8.65399 9.70547 16
310 2 -7.29216 -5.98683 4.09968 23
311 2 -8.84515 -3.08091 4.17353 22
312 2 -8.87375 -1.13636 1.75653 21
313 2 -7.16145 -4.18383 1.53507 22
314 2 -7.06712 -5.90663 9.23056 23
315 2 -12.3253 -2.73021 9.97772 12
316 2 -8.56674 -1.1542 6.56412 22
317 2 -7.3062 -3.97534 6.51812 24
318 2 -8.89069 -2.49624 9.32548 21
319 2 -9.67488 -2.57185 11.8047 13
320 2 -5.7142 -15.1366 3.98753 10
321 2 -6.0356 -12.7626 1.96166 17
322 2 -2.24751 -14.7596 3.8636 15
323 2 -5.9237 -12.7112 6.40577 15
324 2 -4.07562 -11.9062 3.49732 20
325 2 -5.35559 -8.86203 3.91992 20
326 2 -5.90404 -7.11271 1.28382 20
327 2 -3.75512 -9.73009 1.7487 20
328 2 -4.25786 -11.297 10.6326 9
329 2 -5.82276 -9.20308 9.37963 18
330 2 -5.81631 -7.09435 6.48118 22
331 2 -3.89727 -9.82304 6.746 20
332 2 -6.90582 -7.45007 11.7648 11
333 2 2.57076 -14.4693 6.87425 14
334 2 -4.04164 -5.96351 4.08423 19
335 2 -5.62114 -2.88601 4.02781 21
336 2 -5.37174 -0.813464 1.30975 24
337 2 -3.90528 -3.66054 1.55939 21
338 2 -3.91953 -5.61506 9.49193 17
339 2 -5.64064 -3.00057 9.60407 22
340 2 -5.40093 -0.982797 7.17959 19
341 2 -3.93562 -3.79074 6.43476 22
342 2 9.16207 1.90245 14.5078 10
343 2 -2.44759 -7.07599 13.503 6
344 2 -3.24172 -3.74929 12.1858 17
345 2 -0.192412 -3.06284 12.0253 17
346 2 -0.979886 -14.8056 7.36199 11
347 2 -2.23125 -12.7621 1.37311 21
348 2 -0.815225 -15.3393 0.746248 16
349 2 1.32507 -12.9482 8.98246 12
350 2 -0.214074 -11.6123 3.5081 23
351 2 -1.96857 -8.66791 3.5926 21
352 2 -1.81721 -6.68701 1.49601 21
353 2 -0.00750272 -9.74572 1.10819 23
354 2 -2.53094 -12.1551 6.10468 20
355 2 -2.6566 -8.54947 9.33838 19
356 2 -2.10145 -6.77704 7.15075 20
357 2 -0.681627 -9.39937 6.57511 21
358 2 0.631796 -6.58879 12.5767 14
359 2 -3.80555 -15.3208 7.10132 10
360 2 -0.394945 -5.71365 3.93452 23
361 2 -2.11113 -2.83374 4.0218 25
362 2 -1.93376 -0.920402 1.55971 22
363 2 -0.437411 -3.8173 1.24374 24
364 2 -0.600879 -5.75909 9.70902 17
365 2 -2.08463 -3.16709 9.03135 23
366 2 -2.12341 -1.06412 6.82521 21
367 2 -0.406089 -4.01017 6.77505 23
368 2 2.90459 -5.01823 13.6319 13
369 2 -0.856269 -11.0503 10.1964 14
370 2 -1.90715 -1.14385 12.0032 17
371 2 3.21834 1.86805 13.5339 11
372 1 -11.994 1.88346 -13.6596 8
373 1 -13.5321 2.06015 -5.82506 19
374 1 -13.9644 -0.463067 -3.31161 17
375 1 -15.178 4.76027 -5.70123 11
376 1 -11.1598 9.04292 -3.39001 17
377 1 -12.9917 7.80008 -6.27714 13
378 1 -9.40565 3.23276 -13.361 18
379 1 -10.4502 -0.156258 -8.50814 21
380 1 -11.2393 2.65603 -10.276 19
381 1 -11.7339 4.63163 -6.71055 18
382 1 -10.118 1.95777 -5.69145 22
383 1 -9.99485 0.0927001 -2.94392 23
384 1 -11.5572 2.84447 -3.64893 18
385 1 -13.4159 3.78207 -8.8774 14
386 1 -9.9667 7.89433 -5.5438 19
387 1 -10.1153 5.59606 -3.14245 23
388 1 -11.7056 10.486 -0.445506 15
389 1 -13.4423 5.68675 -3.51824 16
390 1 -7.43029 0.163457 -13.5834 15
391 1 -10.4407 5.95545 -8.71955 20
392 1 -13.572 0.493732 -8.69798 14
393 1 -6.5822 2.70097 -11.0052 22
394 1 -6.8507 0.210803 -8.59758 23
395 1 -8.70923 3.33922 -8.35531 22
396 1 -8.6005 4.8095 -5.73214 21
397 1 -6.626 1.82312 -5.8674 21
398 1 -6.89294 -0.100183 -3.3019 23
399 1 -8.24986 2.83111 -3.02819 22
400 1 -7.81798 2.15117 -15.595 10
401 1 -8.32068 5.2801 -11.0686 18
402 1 -6.7679 6.28491 -8.60329 19
403 1 -11.9914 10.0138 -8.89462 8
404 1 -7.38581 13.4278 -5.23698 10
405 1 -6.63035 7.88155 -5.73325 21
406 1 -6.86486 5.92168 -3.26846 21
407 1 -8.18136 8.1003 -2.65926 21
408 1 -10.1313 8.88361 -11.3994 9
409 1 -13.0661 7.27346 -9.82147 10
410 1 -6.87165 12.3606 -2.67839 17
411 1 -3.26328 0.397723 -13.7507 16
412 1 -5.28391 2.5897 -13.5469 17
413 1 -4.82887 5.40384 -10.4659 21
414 1 -3.23223 2.13579 -11.1069 24
415 1 -3.46561 -0.0153798 -8.92647 21
416 1 -5.34321 3.13347 -8.2479 25
417 1 -5.60773 5.07599 -5.69829 21
418 1 -3.47325 2.07374 -6.20859 21
419 1 -3.42415 0.156724 -3.28592 22
420 1 -4.88408 2.75354 -3.40791 24
421 1 -3.30508 5.1914 -13.2732 14
422 1 -11.8787 5.14397 -11.7993 13
423 1 -3.34899 8.00549 -11.1159 15
424 1 -3.24935 5.86667 -7.9349 23
425 1 -5.14348 8.94184 -8.4666 17
426 1 -5.91556 10.9508 -5.88147 19
427 1 -3.64822 7.91322 -5.69952 21
428 1 -3.51815 5.7397 -3.22583 19
429 1 -5.22198 9.19304 -3.30516 21
430 1 -8.69273 9.46147 -7.89194 15
431 1 -4.37149 13.6057 -6.3256 10
432 1 -3.43921 11.5057 -3.25523 20
433 1 -4.87912 14.8182 -2.55945 12
434 1 0.31532 0.625069 -14.8745 11
435 1 -1.67173 3.37259 -13.5572 18
436 1 -1.2082 5.13979 -11.0839 21
437 1 0.27504 2.24418 -10.7758 20
438 1 -0.119875 -0.0554841 -8.75852 22
439 1 -1.68305 3.01155 -8.5945 22
440 1 -2.26525 4.51231 -5.37596 21
441 1 -0.0679764 2.28462 -5.84065 21
442 1 -0.016437 -0.162192 -3.6405 20
443 1 -1.7358 2.6129 -2.97682 22
444 1 0.543885 5.9857 -13.5876 14
445 1 -6.89973 5.37748 -13.8649 12
446 1 -2.11692 10.4513 -11.5358 7
447 1 0.217486 7.82568 -10.811 18
448 1 0.0364414 5.94865 -7.85247 22
449 1 -1.80426 8.34522 -8.52827 20
450 1 -2.17328 10.717 -5.91999 19
451 1 -0.0411796 7.84449 -5.83077 19
452 1 -0.196328 6.0226 -3.06761 20
453 1 -1.47797 8.94858 -3.33566 20
454 1 -0.532731 11.5989 -8.77141 15
455 1 3.48604 13.8887 -6.12824 14
456 1 -0.938431 13.5986 -6.41111 10
457 1 -1.42463 14.6345 -3.17049 10
458 2 -10.0757 1.09966 -9.8782 17
459 2 -11.7593 0.147411 -13.3544 11
460 2 -13.4298 0.0449279 -1.34238 18
461 2 -15.0499 3.41629 -0.557173 11
462 2 -14.488 3.50815 -6.86332 12
463 2 -13.3513 1.74848 -3.9397 19
464 2 -13.6196 5.97769 -5.9085 13
465 2 -13.6362 6.397 -1.85663 16
466 2 -11.8256 8.57677 -5.13964 14
467 2 -13.4037 5.40124 -10.5331 11
468 2 -10.2425 0.0289192 -6.5165 22
469 2 -12.0243 3.16841 -5.63877 20
470 2 -12.318 -0.936955 -9.80672 16
471 2 -7.85775 3.79656 -12.0121 22
472 2 -10.046 0.151432 -0.627016 21
473 2 -11.9748 2.92479 -0.891193 21
474 2 -11.8985 4.83733 -3.31646 19
475 2 -9.74341 1.91407 -3.7818 22
476 2 -11.4896 8.5935 -10.0883 11
477 2 -13.0726 8.17746 -8.09951 10
478 2 -11.2103 3.83592 -8.84013 18
479 2 -10.3715 5.65778 -1.16028 22
480 2 -10.3241 5.57086 -10.7888 15
481 2 -10.5471 10.6498 -4.20108 13
482 2 -9.84868 7.49889 -3.53213 21
483 2 -11.8116 10.1655 1.39133 14
484 2 -4.75808 -3.24338 -11.0253 21
485 2 -8.11451 4.11717 -14.6621 9
486 2 -6.44814 1.54755 -14.6325 17
487 2 -6.95853 0.00350287 -6.53611 22
488 2 -8.39109 3.05348 -6.16254 20
489 2 -7.15202 8.73129 -8.69256 15
490 2 -7.10133 2.22689 -9.0417 19
491 2 -6.85936 -0.18849 -1.22266 22
492 2 -8.31326 3.34337 -1.14772 21
493 2 -8.28592 4.84649 -3.72198 23
494 2 -6.56385 1.90985 -3.71947 22
495 2 -6.94083 1.00519 -11.7312 20
496 2 -7.29183 5.98506 -6.30019 21
497 2 -10.2795 6.09918 -6.56188 20
498 2 -12.7916 1.98804 -9.68397 14
499 2 -6.75039 6.43101 -10.5724 18
500 2 -6.99754 6.42109 -1.48207 24
501 2 -8.34814 8.99306 -0.955026 21
502 2 -10.6003 10.0888 -7.70653 12
503 2 -6.67106 7.85442 -3.67402 21
504 2 -8.4937 12.519 -3.8363 12
505 2 -6.53685 12.1786 -0.926278 19
506 2 -10.1824 11.4771 -1.05492 14
507 2 -4.69028 3.3596 -10.4757 21
508 2 -8.51187 5.01937 -9.09398 19
509 2 -5.323 4.59199 -13.4484 15
510 2 -3.44742 2.48568 -13.7622 13
511 2 -3.51226 0.200372 -7.00098 24
512 2 -5.16179 2.93074 -6.24191 21
513 2 -4.96479 5.05248 -8.39176 19
514 2 -2.86497 1.75056 -9.3545 18
515 2 -3.53542 0.188671 -1.29555 22
516 2 -5.26305 2.74833 -1.17165 21
517 2 -5.17706 4.74037 -3.34694 19
518 2 -3.1466 1.88833 -4.31593 24
519 2 -3.15559 5.97825 -11.5131 18
520 2 -11.5435 3.32143 -12.5947 13
521 2 -3.75254 5.58741 -5.9485 21
522 2 -5.29472 9.06289 -5.99956 17
523 2 -8.50994 9.00871 -5.97038 16
524 2 -3.49429 7.75103 -7.8866 19
525 2 -3.56362 5.19403 -1.31626 20
526 2 -5.34857 8.86244 -1.42466 20
527 2 -5.29424 11.0179 -4.21224 21
528 2 -3.24658 7.9171 -3.2955 20
529 2 -6.06292 12.6457 -6.45778 9
530 2 -3.45008 11.707 -1.30666 21
531 2 -5.17918 14.2891 -0.763638 11
532 2 -6.21888 14.3135 -3.94637 11
533 2 -0.0959671 0.233138 -10.8549 20
534 2 -1.30976 3.06167 -11.5911 20
535 2 -1.32466 5.37536 -13.5363 12
536 2 -0.0683657 3.24196 -14.6608 11
537 2 -0.143256 0.141843 -5.91779 20
538 2 -1.80271 2.81498 -6.69006 24
539 2 -1.44141 5.30348 -8.77203 21
540 2 0.221045 1.67819 -8.16056 19
541 2 -0.141859 -0.173019 -1.52545 24
542 2 -1.73516 2.51852 -0.965508 19
543 2 -1.71762 4.5857 -3.26972 21
544 2 0.00118774 2.03247 -3.72945 23
545 2 0.35544 6.14548 -11.5449 18
546 2 -8.53381 9.05519 -12.0235 7
547 2 -0.402959 5.75149 -5.88692 21
548 2 -1.87928 9.01168 -6.40078 22
549 2 -5.12044 8.70002 -10.4102 13
550 2 0.0384427 7.82734 -8.14399 19
551 2 0.0162448 6.13149 -0.97591 20
552 2 -1.79073 9.0436 -0.919667 18
553 2 -2.66109 13.1819 -6.12814 13
554 2 0.112667 7.91424 -3.45215 17
555 2 -1.84111 11.5362 -10.1291 7
556 2 -1.94933 10.6093 -3.9151 17
557 2 -1.7531 8.92356 -10.2846 18
558 2 -0.176837 12.1435 -0.00736314 17
559 2 -3.08495 14.7072 -2.61583 12
560 2 0.221392 14.1303 -2.2348 12
561 1 -15.3108 4.73995 -1.81853 12
562 1 -13.6927 2.06679 -1.52467 17
563 1 -13.4726 0.311934 2.13916 18
564 1 -13.6834 2.03981 4.07803 20
565 1 -15.2222 3.94538 6.5882 10
566 1 -15.346 5.27593 3.87512 10
567 1 -15.3504 -2.30914 7.0514 9
568 1 -13.2192 6.16468 2.10036 19
569 1 -15.4498 3.21768 1.17387 11
570 1 -13.7665 7.80421 4.61343 14
571 1 -14.0996 2.79601 9.51844 8
572 1 -12.1246 5.00465 -0.988948 21
573 1 -10.0096 2.22827 -0.27829 22
574 1 -10.449 -0.0875729 2.45215 21
575 1 -12.0279 2.83971 1.51753 22
576 1 -12.0457 4.91841 4.4985 22
577 1 -10.4166 2.12133 4.56914 21
578 1 -9.92448 -0.21866 7.3338 22
579 1 -11.6775 3.25277 7.55349 21
580 1 -11.2215 5.16587 10.6209 11
581 1 -11.0919 1.7458 9.95723 16
582 1 -12.2213 -0.792386 10.0485 14
583 1 -10.1978 12.1416 -2.89234 10
584 1 -10.2409 7.67522 -1.14851 24
585 1 -10.1871 4.99058 1.67089 23
586 1 -13.631 8.07767 -1.02922 14
587 1 -11.8622 8.29919 1.57347 19
588 1 -10.468 7.84607 4.39012 22
589 1 -10.2359 6.03993 7.13572 19
590 1 -12.2335 10.5908 4.12989 10
591 1 -6.61534 9.07542 9.51212 17
592 1 -10.4497 11.4447 2.00702 14
593 1 -8.50861 5.2262 -0.671351 24
594 1 -6.90862 2.04422 -0.709795 23
595 1 -6.85861 -0.00828546 2.25282 22
596 1 -8.12194 3.11965 2.107 21
597 1 -8.77056 4.92127 4.59049 24
598 1 -6.81673 1.81974 5.0554 24
599 1 -6.97738 -0.159541 7.52217 23
600 1 -8.6239 2.94495 7.25444 20
601 1 -8.67848 4.21477 9.84913 19
602 1 -7.08709 1.83385 9.85048 16
603 1 -5.21621 -3.24191 12.5987 16
604 1 -10.0343 3.77556 13.3502 7
605 1 -8.33163 10.9351 -0.562484 20
606 1 -6.72523 7.99428 -0.239533 22
607 1 -6.71612 5.89888 2.22547 23
608 1 -8.93042 8.52485 1.73834 20
609 1 -9.14532 10.7328 4.87529 17
610 1 -6.74506 7.79929 4.26028 20
611 1 -6.96092 5.56818 7.26528 21
612 1 -8.28849 8.62041 12.0438 9
613 1 -12.0819 8.48256 7.18391 14
614 1 -7.20652 5.42346 12.4071 14
615 1 -6.37427 13.8925 0.593384 13
616 1 -7.26861 11.468 2.57678 21
617 1 -5.37738 13.5272 7.01797 12
618 1 -8.5985 8.71072 6.88058 19
619 1 -5.27677 4.745 -0.701293 22
620 1 -3.57376 2.0488 -0.521119 23
621 1 -3.57945 -0.113736 2.38723 24
622 1 -5.28852 2.51385 2.07997 23
623 1 -5.23613 4.8869 4.56076 22
624 1 -3.92279 2.02314 4.42396 21
625 1 -3.80815 0.196799 7.41743 20
626 1 -5.30321 3.07013 7.49172 21
627 1 -5.17421 4.39451 10.303 20
628 1 -3.45848 1.55753 9.75228 19
629 1 -3.55722 -0.167038 12.3361 14
630 1 -6.7302 -0.451865 15.1904 6
631 1 -5.06715 10.8547 -0.274757 25
632 1 -3.61906 7.85572 -0.662274 21
633 1 -3.63258 5.67208 1.88255 21
634 1 -4.91167 8.65129 2.07071 20
635 1 -4.48124 10.2607 4.87137 23
636 1 -3.38566 7.23001 4.48587 22
637 1 -3.61332 5.63114 7.33541 23
638 1 -5.51486 8.67022 6.87654 20
639 1 -10.1786 7.93521 9.29387 13
640 1 -3.69684 7.70025 9.78688 20
641 1 -2.14772 3.10284 12.7519 11
642 1 -4.98644 11.8278 10.2273 11
643 1 8.06457 15.1394 -3.40715 10
644 1 -3.43752 11.8924 2.30605 21
645 1 -7.13528 13.701 3.90193 10
646 1 -3.78172 13.7192 4.71684 17
647 1 -3.71966 11.2118 7.76482 20
648 1 -1.76506 4.67076 -0.868801 20
649 1 -0.105036 1.79869 -0.581714 22
650 1 -0.230399 -0.0783137 2.09956 24
651 1 -1.56898 2.72846 1.87883 23
652 1 -1.84395 4.64788 4.36583 21
653 1 -0.214173 1.77823 4.59488 21
654 1 -0.355397 -0.111249 7.64314 24
655 1 -1.91685 3.00464 7.30125 23
656 1 -1.88927 4.67851 10.2117 19
657 1 -0.126574 2.32559 10.3182 21
658 1 0.0399865 -0.954016 12.465 17
659 1 -6.41104 3.00708 13.2894 14
660 1 -1.62091 10.9424 -0.402921 19
661 1 -0.263469 7.96092 -0.390723 20
662 1 -0.216636 5.82537 1.60551 18
663 1 -2.05849 8.8343 2.08353 22
664 1 -1.93565 10.796 4.46272 22
665 1 -0.158811 7.66497 3.96946 20
666 1 -0.0298636 5.76732 7.34066 21
667 1 -1.98203 8.42978 7.17878 24
668 1 -11.1893 10.7024 10.2415 6
669 1 -0.609233 7.55946 9.75372 17
670 1 1.54173 8.60241 12.4115 9
671 1 -5.54126 8.51789 13.0343 9
672 1 -0.162389 13.9132 -0.387063 15
673 1 -3.25195 13.6461 -0.74608 16
674 1 -0.0489286 11.8813 2.26941 23
675 1 -1.70601 14.3851 2.14469 15
676 1 -0.0405713 13.8291 5.07193 14
677 1 -1.70416 10.7256 10.3008 15
678 1 -6.89276 11.4889 7.02913 15
679 1 -1.74647 14.2558 8.00395 9
680 2 -14.8143 -2.57584 -0.319282 15
681 2 -15.0886 5.08677 2.09517 14
682 2 -15.1609 4.98682 -3.70147 11
683 2 -14.0767 2.17085 2.03679 16
684 2 -13.5745 2.87956 7.30546 14
685 2 -13.7378 0.0944918 4.10664 17
686 2 -12.157 3.45433 9.91907 13
687 2 -13.6408 7.77052 0.91029 15
688 2 -10.3532 0.169758 4.30998 20
689 2 -11.9015 3.05877 3.68634 22
690 2 -11.8771 5.30068 1.04344 23
691 2 -10.0819 2.80619 1.64641 19
692 2 -10.6386 -0.125218 9.38867 18
693 2 -9.58048 2.49605 8.80083 22
694 2 -15.4387 3.53118 4.70458 11
695 2 -10.5736 1.69001 6.49627 20
696 2 -13.1025 0.991235 9.72122 12
697 2 -10.4202 5.92754 3.93088 23
698 2 -13.6053 5.98673 4.48683 17
699 2 -11.8356 8.99335 -1.41897 17
700 2 -10.1362 7.44843 0.737987 25
701 2 -11.5622 4.80495 6.52676 19
702 2 -11.9471 8.41079 3.49643 20
703 2 -10.5834 11.6487 4.06106 12
704 2 -6.86022 0.00304514 4.22509 23
705 2 -8.53645 2.99076 4.20188 23
706 2 -8.1081 5.01337 1.30699 23
707 2 -6.94523 1.85782 1.17296 23
708 2 -7.33538 -0.242578 9.7807 20
709 2 -6.96771 5.01284 10.1721 19
710 2 -8.65536 4.87927 6.65805 22
711 2 -6.94422 1.85061 6.91957 23
712 2 -7.69558 -1.2117 13.8257 9
713 2 -11.6681 9.39426 9.02437 9
714 2 -6.9896 2.19907 11.6928 19
715 2 -6.96986 5.75483 4.16336 19
716 2 -8.60073 8.3798 3.76331 22
717 2 -8.77535 10.6893 1.56623 19
718 2 -6.62462 8.26602 1.72641 22
719 2 -6.41589 7.07461 13.0771 9
720 2 -6.67693 9.27467 11.6002 11
721 2 -12.755 9.35681 5.66976 10
722 2 -6.76317 7.37928 6.36983 22
723 2 -3.81286 8.19854 12.4712 11
724 2 -7.798 12.0456 4.51857 14
725 2 -6.64342 13.2544 2.20666 15
726 2 -10.7693 6.18386 9.0944 15
727 2 -10.4137 7.83956 6.57042 20
728 2 -3.71332 -0.0393659 4.43466 21
729 2 -5.57676 2.94408 3.96884 23
730 2 -5.24299 4.66234 1.53285 21
731 2 -3.60555 1.62144 1.35294 21
732 2 -3.58179 -0.382434 9.19528 22
733 2 -5.18599 2.54007 9.42588 19
734 2 -5.268 4.80226 6.71435 23
735 2 -3.76437 2.17587 6.64459 22
736 2 -5.24771 -1.1447 12.1914 17
737 2 -9.58761 4.52446 11.4481 12
738 2 -6.06169 1.20141 14.0312 10
739 2 -8.0816 3.87022 13.7232 10
740 2 -3.54891 5.49229 3.88296 23
741 2 -5.00104 8.64879 4.2611 21
742 2 -5.17374 10.4203 1.5564 21
743 2 -3.57789 7.53276 1.25605 24
744 2 -3.817 5.63352 9.31521 20
745 2 -8.37494 8.36052 9.04628 17
746 2 -5.24326 10.7285 6.80108 21
747 2 -3.65555 7.50588 6.54795 21
748 2 -9.77801 9.82637 11.4404 7
749 2 -3.46488 13.7134 7.22476 14
750 2 -3.76387 11.7595 4.22977 22
751 2 -5.77347 13.8933 5.26711 12
752 2 3.21822 14.418 -4.12571 14
753 2 -5.00739 8.43043 8.62753 17
754 2 -5.72662 12.3775 8.6228 10
755 2 -0.406767 -4.50891e-04 4.00021 24
756 2 -1.67696 2.81767 4.02474 22
757 2 -1.80192 4.58171 1.21256 21
758 2 0.466234 1.63273 1.31675 19
759 2 -0.226245 0.0629712 9.58279 23
760 2 -1.83208 2.90541 9.30104 24
761 2 -1.75915 5.06703 6.83703 20
762 2 -0.223961 1.94019 6.95164 21
763 2 2.10996 -1.73521 14.1325 14
764 2 -2.86024 4.81088 11.9222 14
765 2 -3.20828 1.81735 11.8059 18
766 2 -5.04186 4.32428 13.0063 12
767 2 -0.407075 5.77758 3.84718 20
768 2 -1.99097 8.60773 3.94699 21
769 2 -1.96335 10.6118 1.9729 23
770 2 -0.220251 8.05497 1.83316 19
771 2 -0.331382 5.5649 9.34458 20
772 2 -1.87072 8.81165 10.1164 15
773 2 -1.97658 10.5268 6.79444 22
774 2 -0.292155 7.7242 7.76419 16
775 2 6.68235 -1.29591 15.8593 10
776 2 -8.2752 10.4293 6.8516 15
777 2 -0.168977 8.07894 11.7714 11
778 2 -0.192366 11.79 4.25565 22
779 2 -2.00543 14.5287 3.92483 13
780 2 0.155545 14.2527 1.40513 15
781 2 -2.93569 13.454 1.04793 19
782 2 -3.46747 10.9924 9.65063 16
783 2 -0.399975 13.4557 6.7989 14
784 1 1.36091 -14.4489 -3.59514 20
785 1 4.44844 -14.3948 -3.37622 15
786 1 3.2861 -16.142 -5.87601 9
787 1 -2.39617e-04 -12.7528 -8.56869 17
788 1 0.145861 -6.86965 -11.2901 17
789 1 2.72856 -11.6154 -9.14636 16
790 1 -4.71526 -13.8966 -4.0957 15
791 1 1.98703 -8.26129 -8.50572 18
792 1 1.3357 -6.61818 -5.81235 23
793 1 2.93165 -9.74586 -6.2895 23
794 1 3.05098 -11.6673 -3.40418 22
795 1 1.63319 -8.70533 -3.4521 21
796 1 1.63275 -5.62011 -13.5067 13
797 1 1.34654 -2.71456 -14.0685 17
798 1 1.79662 -0.923356 -11.2398 20
799 1 3.21769 -3.52854 -11.4508 24
800 1 2.86537 -5.72441 -9.0537 21
801 1 1.65202 -3.0436 -8.67147 21
802 1 1.51224 -0.777832 -5.99805 21
803 1 2.93544 -4.00244 -5.84129 23
804 1 3.18739 -5.95385 -3.40338 21
805 1 1.51606 -2.989 -3.25432 23
806 1 4.34067 -12.9238 -6.01718 21
807 1 7.55682 -14.9939 2.2072 14
808 1 4.52638 -6.91744 -11.3229 14
809 1 6.62162 -10.8574 -10.4673 8
810 1 5.84569 -12.6069 -8.32295 14
811 1 4.31558 -9.37603 -9.19595 17
812 1 4.56945 -7.08515 -6.54493 22
813 1 6.02522 -9.94375 -5.86474 23
814 1 6.48978 -11.5543 -3.04776 21
815 1 4.61525 -8.6995 -3.34914 24
816 1 7.58426 -6.86117 -11.1527 10
817 1 4.41652 -3.13809 -13.9179 13
818 1 4.76066 -1.06219 -11.5188 22
819 1 6.61561 -4.1166 -11.5108 18
820 1 6.51947 -5.70699 -8.75793 22
821 1 4.82493 -2.87197 -8.65266 23
822 1 4.54553 -0.954596 -6.02679 22
823 1 6.32886 -4.10648 -6.22574 21
824 1 6.23582 -6.28966 -3.49048 20
825 1 4.57027 -2.82063 -3.13172 22
826 1 7.60864 -12.5541 -5.88543 16
827 1 10.6336 -9.0052 -8.65724 13
828 1 7.75817 -8.76147 -8.53812 22
829 1 8.02635 -7.2754 -5.86183 21
830 1 9.93077 -10.2829 -5.81514 17
831 1 9.3662 -12.0517 -3.01119 13
832 1 8.34276 -9.00809 -3.51472 23
833 1 9.52455 -3.9823 -11.2119 14
834 1 8.24888 -1.07231 -10.779 18
835 1 12.9364 -3.21714 -11.3522 10
836 1 9.63661 -5.95153 -8.6478 21
837 1 8.19499 -2.99061 -8.09377 23
838 1 8.03894 -0.977485 -5.835 21
839 1 9.64451 -4.21024 -5.75434 22
840 1 10.0116 -6.1628 -3.26477 20
841 1 7.98922 -2.51798 -3.15421 21
842 1 9.20348 -12.039 -9.13694 9
843 1 11.2537 -7.19425 -6.1428 18
844 1 11.4506 -8.97515 -3.19767 15
845 1 14.0104 -3.00906 -8.59018 14
846 1 13.0063 -6.01704 -9.20154 11
847 1 11.4259 -3.8313 -8.32018 19
848 1 11.2962 -1.52555 -5.72523 20
849 1 13.239 -4.18489 -5.81021 18
850 1 13.1696 -6.41625 -3.06514 14
851 1 11.6276 -3.32145 -3.18697 20
852 1 13.6767 0.263571 -7.53893 13
853 1 14.9709 -3.52582 -3.12158 14
854 2 -1.23451 -13.9572 -7.05806 17
855 2 0.0812724 -11.3141 -6.25044 19
856 2 1.09585 -14.3169 -1.60688 20