ITEM: TIMESTEP
7000
ITEM: NUMBER OF ATOMS
1500
ITEM: BOX BOUNDS pp pp pp
-30.0 30.0
-30.0 30.0
-30.0 30.0
ITEM: ATOMS id type x y z Coordination
1 1 1.82774 -11.677 -7.66359 16
2 1 11.5649 -11.4882 6.69522 11
3 1 -11.7675 7.3418 -3.64379 18
4 1 -7.84678 2.49684 -8.30981 19
5 1 -0.737948 -9.70163 11.0659 12
6 1 -8.77337 1.49301 -11.2755 12
7 1 -5.46814 -13.5922 2.59081 13
8 1 -7.91175 -4.7975 10.9311 14
9 1 2.00315 -1.52425 16.3663 10
10 1 1.0642 6.26984 6.83831 21
11 1 1.32731 11.7922 -10.3557 12
12 1 6.78374 -1.91718 12.5546 17
13 1 14.6225 5.56211 8.02343 14
14 1 4.50405 8.75 -10.9304 17
15 1 4.94272 3.14657 -15.3768 10
16 1 -1.50057 -2.80026 -8.1068 23
17 1 6.40752 -11.597 7.46698 14
18 1 14.6449 -7.97925 -1.0959 12
19 1 -2.69163 -14.6008 -6.30512 12
20 1 2.15383 -9.0714 -12.9354 9
21 1 2.643 3.26064 13.2171 17
22 1 -1.17598 -13.0309 9.34328 9
23 1 9.00299 -6.74298 9.402 18
24 1 -10.7055 -2.13797 1.49746 20
25 1 -7.26513 -0.571723 -1.13073 21
26 1 -7.50704 10.6449 -7.20195 18
27 1 3.43779 0.0529105 -9.86544 19
28 1 3.92657 -4.23736 -11.0083 16
29 1 0.308291 -1.86126 13.6269 18
30 1 -8.53033 6.48331 0.983105 19
31 1 4.73093 9.7897 9.19293 15
32 1 -10.7643 9.84814 -8.23614 8
33 1 -2.4914 11.5779 -3.26386 21
34 1 3.79668 -11.3724 2.16294 22
35 1 7.58086 -8.63067 -4.44671 22
36 1 -5.84178 6.98045 12.3687 14
37 1 -11.831 -3.31516 -8.33228 13
38 1 9.59916 -0.731101 4.54553 24
39 1 -7.52338 14.3273 -5.82248 9
40 1 -7.80679 -7.8417 6.72163 16
41 1 -10.7443 4.94817 -7.13751 14
42 1 4.05261 5.81835 7.29449 21
43 1 8.01516 -14.8135 0.513571 10
44 1 6.24854 3.42398 14.0208 12
45 1 14.3122 -2.61404 -10.758 10
46 1 11.2718 -9.6221 4.11624 15
47 1 6.01074 -7.57813 12.2962 13
48 1 -7.60401 -11.6065 5.23781 15
49 1 -7.61606 -2.22179 1.94625 20
50 1 16.1721 2.78852 7.35024 13
51 1 6.94507 -5.69452 -3.73297 23
52 1 -0.217011 10.3599 11.1777 13
53 1 4.46763 -3.22685 10.091 22
54 1 2.08098 -8.69506 -8.59298 22
55 1 -9.7448 14.4157 -2.74134 10
56 1 -2.67593 7.86022 -6.11885 23
57 1 7.24098 -4.01526 -6.68196 19
58 1 7.53121 -3.63232 4.64393 24
59 1 5.45759 -8.56634 6.8183 18
60 1 -9.10854 12.1423 -4.8639 13
61 1 -7.16556 10.6271 5.07719 15
62 1 -2.42607 8.50976 5.36384 22
63 1 -6.71299 -9.56698 13.9902 9
64 1 13.48 -5.70495 -3.49484 18
65 1 -9.01646 2.48016 4.73937 20
66 1 11.5283 -7.00271 -1.55003 17
67 1 9.45617 4.61023 -13.8002 11
68 1 -7.22719 -1.54376 -11.6308 17
69 1 -1.32511 11.1085 -0.526783 21
70 1 -10.0837 8.28482 -5.54052 19
71 1 2.69463 10.7334 -7.80228 17
72 1 2.39567 9.06985 1.17952 20
73 1 -5.74148 -7.8237 11.0521 17
74 1 -0.990008 -7.12348 -5.79733 23
75 1 5.02619 -12.5546 -7.02966 12
76 1 1.18972 2.35403 10.0709 23
77 1 -11.2816 -6.03683 -0.92655 16
78 1 -8.69497 -12.135 -0.282604 12
79 1 10.7827 -3.83279 4.13415 20
80 1 -3.76695 9.10886 2.47143 21
81 1 6.91691 5.98761 -14.7023 10
82 1 8.01744 7.92339 -6.48111 18
83 1 8.6597 -6.71482 -1.57083 20
84 1 -3.69201 -15.5727 4.98923 6
85 1 -10.7696 -7.44954 7.83961 12
86 1 -12.7279 -2.36551 4.85484 15
87 1 10.491 11.6116 7.47714 13
88 1 -3.20416 9.00762 12.1485 11
89 1 -0.56601 13.5583 -0.425205 19
90 1 0.36132 -4.56627 -11.0242 19
91 1 12.2801 -4.54846 12.3718 8
92 1 -0.203314 10.5777 -6.24303 20
93 1 14.0377 1.29738 -6.71832 17
94 1 -7.75005 9.47565 -3.9104 18
95 1 -5.09326 15.1035 2.23281 12
96 1 10.2541 2.44566 -8.58331 16
97 1 10.0981 -5.56286 0.969243 23
98 1 -4.27847 5.17572 -5.87226 25
99 1 6.62435 12.6044 -3.08848 20
100 1 11.0608 8.35061 -1.43502 21
101 1 1.31922 13.6517 -7.08386 15
102 1 -6.0426 -8.80144 -8.54008 22
103 1 1.96006 13.8237 6.18342 17
104 1 -10.9677 -2.51814 -3.90809 20
105 1 14.6125 -4.14903 -5.36139 14
106 1 -0.648989 9.41372 7.70279 20
107 1 -3.78887 10.77 -6.4872 22
108 1 4.88263 -4.81146 13.5115 14
109 1 -9.57952 -2.54219 4.56302 23
110 1 -2.98466 -8.91638 4.96931 23
111 1 2.12129 -14.3924 -2.86644 16
112 1 -3.7837 8.32302 -11.4251 17
113 1 12.0891 11.071 -3.44198 14
114 1 2.34902 -12.4411 9.42858 9
115 1 -7.80237 4.79449 -1.44854 18
116 1 2.52311 15.2071 0.648067 12
117 1 1.23815 7.85498 9.87897 22
118 1 -6.89841 11.7892 1.56664 15
119 1 -2.22907 0.268794 -8.70957 22
120 1 14.2905 -4.20653 3.23583 17
121 1 -5.84005 -5.37809 7.96201 21
122 1 -11.2247 6.12672 5.24595 15
123 1 -6.17197 -8.73775 4.6321 23
124 1 -10.5649 2.12996 -2.91819 20
125 1 -1.65979 -11.8753 -0.270064 23
126 1 4.75514 -8.58433 -3.17529 23
127 1 -0.549637 12.8185 7.44619 16
128 1 -6.50484 -0.623967 -7.79103 16
129 1 -1.28426 16.0101 -6.42789 10
130 1 -13.4996 -2.75566 -5.06085 11
131 1 -7.2747 -0.179753 9.8293 20
132 1 0.220269 -11.0353 2.34524 21
133 1 3.29427 -10.6334 7.42933 18
134 1 17.8796 0.217264 1.62119 10
135 1 7.84055 6.11255 -3.68901 18
136 1 7.39659 2.34126 10.4785 18
137 1 -2.71025 3.31847 -10.6782 18
138 1 13.2023 2.45065 -9.3736 16
139 1 -5.86122 -5.46159 -3.32419 20
140 1 -2.0358 13.074 -8.16228 11
141 1 -4.0159 13.5654 -1.20623 22
142 1 9.78603 2.88264 7.11435 19
143 1 -2.18983 -3.9089 -13.2721 15
144 1 -1.6087 9.48099 -8.69735 22
145 1 1.66562 8.56163 -9.59426 22
146 1 -5.61158 6.48564 7.48183 21
147 1 -3.87163 3.54592 12.7237 16
148 1 4.29862 -7.95257 -10.7725 12
149 1 -10.0976 -11.249 2.22246 11
150 1 10.2543 -9.8898 -2.17716 24
151 1 5.96849 11.4076 -5.76373 18
152 1 -0.959101 8.90863 -3.01891 24
153 1 -12.0874 2.68385 0.268045 19
154 1 2.82496 4.55093 9.73645 21
155 1 14.6656 4.17084 0.427981 18
156 1 2.52196 8.92999 7.02756 18
157 1 -9.74259 8.99938 5.48166 13
158 1 -8.11148 -8.27446 -3.43744 19
159 1 9.47227 3.95126 -10.3559 15
160 1 6.25386 -0.521805 9.99681 21
161 1 6.66418 9.14917 -12.6796 13
162 1 3.89111 -9.79121 -6.38886 21
163 1 -2.09294 -2.05043 -11.1275 19
164 1 11.6251 -0.622999 -8.62076 22
165 1 -7.42161 -2.3764 7.76583 20
166 1 4.88484 -14.7372 2.13004 13
167 1 -6.1296 -6.83659 -14.0841 11
168 1 8.42696 13.8115 -0.249921 19
169 1 -0.55068 3.41761 -13.0103 15
170 1 5.06531 0.78318 12.6055 18
171 1 17.6714 2.81958 -1.19543 11
172 1 14.287 -5.62644 -8.64939 11
173 1 -6.77196 -5.93682 -8.13523 18
174 1 -9.10685 -0.399044 -8.73609 17
175 1 14.0208 -4.82595 9.46618 13
176 1 5.84618 -2.47971 6.63346 21
177 1 -4.47384 -10.3937 -13.855 12
178 1 2.11744 -8.0714 7.32835 21
179 1 0.390609 7.50411 -6.3137 18
180 1 7.91773 6.11962 1.60617 22
181 1 -6.09812 -5.26133 2.13985 21
182 1 5.65636 14.215 1.72802 18
183 1 -5.53885 -3.3775 9.92029 15
184 1 -8.23014 -10.2052 -9.32101 12
185 1 -3.45677 -9.40813 -10.3477 22
186 1 -6.87394 -10.4625 -5.783 20
187 1 -0.932436 -8.38235 2.30734 22
188 1 16.1978 4.92651 4.94788 13
189 1 -11.1393 0.526146 9.66512 15
190 1 -3.4929 -9.12792 -0.319892 20
191 1 -1.61528 -14.1797 2.51353 18
192 1 -1.82466 14.5454 -3.69204 16
193 1 6.60015 1.06912 -10.9386 20
194 1 -3.97133 -1.1405 -13.6036 12
195 1 1.93189 -12.2366 -0.539542 22
196 1 -1.38582 -9.70399 -12.6575 15
197 1 -4.71426 8.59641 -8.72924 21
198 1 11.415 5.48297 6.8949 17
199 1 -0.976418 3.07605 -8.21309 23
200 1 -2.79123 6.19754 -8.53266 21
201 1 7.45543 16.5419 0.688533 11
202 1 0.659811 11.6015 1.48254 18
203 1 13.0571 -1.09147 4.27545 22
204 1 -7.16447 3.62761 7.55483 22
205 1 -1.13068 -4.9327 13.3729 13
206 1 -3.97036 11.2326 4.73834 19
207 1 -0.637673 -7.70377 -10.4762 20
208 1 3.47687 -10.059 -0.488107 20
209 1 -7.96961 -6.45588 15.6591 6
210 1 -11.0302 -5.86178 11.1254 9
211 1 12.2348 -3.00709 -4.01136 18
212 1 7.41428 -4.01059 -9.51877 16
213 1 10.746 -7.71727 -4.24666 19
214 1 -4.25791 16.5839 -0.650365 9
215 1 7.98456 5.09352 11.8626 16
216 1 -11.2788 0.70479 6.08074 19
217 1 15.0812 -9.54585 -3.32147 10
218 1 -2.68547 12.6233 1.86978 21
219 1 -5.80461 8.29567 4.83082 21
220 1 9.63238 -10.9067 8.83176 14
221 1 14.351 -6.1461 6.41825 11
222 1 -2.28005 6.42112 6.99753 21
223 1 -7.72699 -6.32182 -0.943666 22
224 1 2.11543 0.884308 12.537 20
225 1 -0.405906 15.892 5.67274 10
226 1 -10.8096 3.38185 11.7918 12
227 1 -10.7158 3.79709 2.9987 19
228 1 -3.40979 -7.07264 -8.03393 21
229 1 -7.88678 11.6629 -1.76963 18
230 1 11.4721 -0.155479 7.14052 22
231 1 -9.57461 -9.2472 4.91275 17
232 1 12.3439 -10.2757 9.91361 10
233 1 -12.2673 8.65205 -0.370112 13
234 1 1.10511 -3.8725 10.7971 20
235 1 3.40529 -11.6193 -3.98242 22
236 1 -4.70863 -2.81348 -9.34715 18
237 1 9.43677 -1.56371 -10.8148 15
238 1 8.22192 11.0588 1.72548 19
239 1 -8.83001 -0.368042 -4.14393 21
240 1 5.08444 -10.6186 -9.40423 13
241 1 -5.22775 -14.1423 -3.50942 12
242 1 -13.6404 -4.98418 -2.97712 10
243 1 -4.47118 -7.74501 2.17739 23
244 1 8.10934 9.60975 -4.02822 16
245 1 -8.8577 4.96978 -10.2563 12
246 1 -8.89435 -5.43865 -3.7716 17
247 1 -6.13346 9.89179 10.7649 13
248 1 -10.4222 10.734 -2.55346 18
249 1 -7.41335 5.49102 4.90601 20
250 1 9.77552 -3.39339 -7.26803 18
251 1 15.7783 1.88862 -4.12032 12
252 1 1.61997 -8.61938 -3.02806 22
253 1 -0.691697 11.2299 4.51995 19
254 1 -7.83367 2.76156 -3.83708 19
255 1 4.926 -13.4828 -0.252396 19
256 1 13.5435 -1.47857 9.29837 15
257 1 -5.54513 -3.55462 -6.23517 18
258 1 -2.94478 -11.2796 2.54228 20
259 1 -0.812694 8.91877 2.29546 22
260 1 -11.026 -7.71859 -3.91285 12
261 1 -11.3001 5.64379 -1.2146 23
262 1 4.60753 11.9278 -11.3477 12
263 1 3.76513 13.7283 3.70524 19
264 1 -9.88582 -9.02826 -0.192318 16
265 1 -3.14553 -9.74068 -5.76415 20
266 1 -9.02953 0.352107 7.27749 21
267 1 -6.32607 7.87672 -6.21928 19
268 1 7.36454 -9.50605 4.4335 23
269 1 -7.28028 -11.9823 -3.55942 12
270 1 6.44436 4.6567 -11.6903 20
271 1 -7.32734 5.07678 -6.18705 19
272 1 -1.01774 -12.1934 4.94912 21
273 1 11.3573 14.3175 8.52938 10
274 1 -3.93129 -0.551269 10.2323 18
275 1 -11.1467 -0.357137 -6.37938 16
276 1 -9.04617 6.60268 7.51499 20
277 1 -4.7019 -12.082 4.96024 17
278 1 6.80631 -9.74149 -7.06042 20
279 1 -12.4882 6.06667 1.73975 16
280 1 0.950202 -5.28989 7.62778 23
281 1 9.31072 -11.2209 -4.86502 17
282 1 -2.271 -5.04036 -10.0718 19
283 1 -4.38294 -7.94402 7.8995 22
284 1 2.25449 -6.92501 -5.73097 22
285 1 -5.46867 5.75566 -8.92277 21
286 1 13.6192 -11.4276 -1.05873 9
287 1 0.43364 12.3184 -3.60813 17
288 1 -3.09106 -2.17125 13.4114 15
289 1 -10.5976 -8.81611 10.9396 10
290 1 7.54268 -5.63864 7.18509 25
291 1 5.01735 -2.33171 -8.75623 22
292 1 10.9577 -5.73431 6.82651 21
293 1 15.8465 7.50776 -2.99702 10
294 1 -1.73343 0.11933 12.3539 18
295 1 2.153 10.835 -1.21995 20
296 1 5.97519 -6.45264 9.51572 21
297 1 0.297695 -16.2977 -3.64114 7
298 1 2.73345 16.4099 4.02093 12
299 1 -7.04649 -12.6154 -8.52012 15
300 1 6.12625 5.33809 9.10663 19
301 1 -5.83319 0.663212 7.08732 20
302 1 -4.89963 -8.6872 -3.11164 19
303 1 -9.21515 5.71756 12.4882 11
304 1 -6.69094 -9.2376 -12.2744 13
305 1 -2.86291 11.9768 10.1316 11
306 1 -4.96318 -14.8965 -9.15374 10
307 1 2.46997 -6.33798 -13.1353 8
308 1 -6.61175 -10.6938 2.21346 20
309 1 -5.91146 -3.10471 4.99722 21
310 1 9.77229 -1.05875 9.43114 19
311 1 -8.91119 -8.16497 13.0059 12
312 1 -12.8512 7.68114 -6.2524 10
313 1 9.61503 3.18975 2.2302 21
314 1 -5.75931 -14.1151 -6.14393 12
315 1 6.07486 16.515 3.64978 12
316 1 3.76648 3.54076 -10.4853 15
317 1 -0.555587 3.81488 13.08 18
318 1 -14.5244 -1.64996 -2.2631 9
319 1 6.97806 14.2878 -6.03739 12
320 1 -4.19524 -11.6731 -7.83666 21
321 1 -1.48489 -12.5095 -8.32104 13
322 1 0.534146 0.418173 -8.25311 21
323 1 -9.45093 8.15204 -1.89966 22
324 1 4.50213 0.368925 15.2686 12
325 1 11.1365 5.79735 1.14056 24
326 1 6.68831 11.0816 -0.579349 20
327 1 -14.184 6.70086 -2.85646 9
328 1 6.04636 5.39977 -6.23371 18
329 1 4.10391 -9.0019 4.64653 21
330 1 -14.6421 2.70626 1.66574 11
331 1 1.40146 7.61415 -14.2865 14
332 1 14.8445 6.41809 2.24897 17
333 1 7.24447 -5.80586 2.04215 23
334 1 15.2215 4.26045 -2.82448 17
335 1 1.15999 1.9181 -11.1382 17
336 1 2.36453 -8.69148 2.11691 21
337 1 -0.0949851 -15.0213 4.78896 11
338 1 3.58557 -9.36957 10.3823 14
339 1 -5.90964 2.17603 -6.21022 20
340 1 -0.0390155 -10.8811 -10.5371 16
341 1 4.70603 0.53782 -13.8206 11
342 1 8.04024 -5.28486 12.4246 15
343 1 -13.9623 -1.79762 1.73298 13
344 1 11.8746 -1.54515 -5.92534 23
345 1 10.7417 -0.103729 -3.03115 21
346 1 -5.26183 12.4007 -4.06111 18
347 1 0.512447 -10.0906 -5.63085 23
348 1 6.64657 3.29352 -8.70313 20
349 1 10.4039 -4.94618 -4.91684 22
350 1 -5.43772 0.626247 13.1796 14
351 1 12.3969 10.9953 -0.287525 14
352 1 -6.3354 3.45076 -10.8414 18
353 1 -7.43136 -0.310717 4.54815 20
354 1 1.54819 14.5167 -2.19329 14
355 1 -5.5882 -3.92158 -13.6962 12
356 1 -12.3813 0.778414 2.84947 21
357 1 -2.72572 -8.22482 12.9 11
358 1 4.20732 5.22291 -8.439 21
359 1 12.6428 5.38309 -2.54991 19
360 1 -11.279 -7.52736 2.14145 14
361 1 0.291523 -9.48131 -0.381888 18
362 1 -7.42799 9.81389 8.01596 15
363 1 0.67972 -5.42414 -8.24032 20
364 1 13.0887 -1.02231 -0.444899 19
365 1 4.88905 13.594 -8.36084 11
366 1 6.1152 -6.35018 4.40183 22
367 1 -7.35718 5.39414 10.0296 19
368 1 7.30289 8.33872 9.90904 18
369 1 -0.961312 5.68647 -15.4469 10
370 1 -4.84092 -6.73545 -5.67544 19
371 1 2.63038 -0.642889 9.7536 19
372 1 10.15 8.93038 8.48252 14
373 1 9.80819 12.3899 -7.52578 11
374 1 -9.89816 13.2166 -0.237328 11
375 1 11.4222 13.7585 -2.1979 11
376 1 12.0645 -7.30826 10.1556 15
377 1 12.3989 5.438 -10.6989 10
378 1 -12.6256 -4.62233 2.78955 12
379 1 -0.185424 -0.851584 10.2948 20
380 1 -4.29498 15.8442 -4.16555 13
381 1 6.68668 -9.66446 -1.22743 20
382 1 7.99618 -0.703722 -8.24894 19
383 1 -4.07461 13.9109 -6.22544 15
384 1 -3.39951 -4.77552 -15.723 8
385 1 9.03558 -11.6402 -0.0732682 17
386 1 -14.5353 0.224304 -0.227144 15
387 1 -9.3183 -2.86373 10.018 16
388 1 7.68786 8.03514 -0.673428 21
389 1 3.68519 -5.65169 -8.24185 20
390 1 6.95235 -9.42647 9.63779 17
391 1 9.68761 2.92717 -3.24197 22
392 1 -9.13015 9.94799 0.393852 19
393 1 8.88871 -2.51424 -4.10303 21
394 1 5.80839 9.59237 12.2809 11
395 1 2.1591 2.86141 -8.51279 20
396 1 4.13299 12.0472 6.8654 15
397 1 9.31026 6.80444 -11.9829 13
398 1 -0.486842 -6.88807 -14.3815 11
399 1 -3.80376 -11.6159 -2.71733 18
400 1 -9.97596 -1.91283 -10.4156 12
401 1 13.0866 4.75286 4.68134 20
402 1 16.6265 6.19194 0.0614052 13
403 1 12.1253 -10.0736 -5.39488 12
404 1 8.37764 -13.3032 -2.57205 13
405 1 6.62893 13.0963 5.06459 18
406 1 -7.8503 3.4709 2.12969 19
407 1 13.9358 7.99429 -0.265395 17
408 1 15.909 0.473962 -0.934535 14
409 1 12.5113 4.45852 -6.81544 19
410 1 15.1757 0.823186 9.71403 10
411 1 4.00804 -5.37589 7.72068 22
412 1 9.77352 -2.21445 12.1867 15
413 1 14.6089 -2.85474 -7.91898 13
414 1 10.6406 3.21834 10.5844 13
415 1 -5.39273 0.753671 -10.1755 19
416 1 13.6711 14.2449 7.48971 7
417 1 9.33823 -2.94334 6.65368 23
418 1 10.9854 -3.7285 9.41654 20
419 1 4.46192 6.65254 11.5862 19
420 1 11.2503 7.76135 3.75811 20
421 1 -4.33689 8.7539 -3.38764 22
422 1 14.6993 9.71587 -5.74333 10
423 1 11.9499 -3.59023 -9.32843 17
424 1 8.00499 15.7669 -2.76121 9
425 1 -0.245918 -15.0957 -0.356097 16
426 1 -10.335 3.71969 6.60803 21
427 1 -7.84042 8.41391 -9.34076 13
428 1 -3.57695 -15.2888 -0.363264 11
429 1 -6.3356 0.0438402 -13.9925 9
430 1 -9.31709 2.44154 -0.106236 18
431 1 9.12014 -6.83078 4.03479 21
432 1 12.8934 17.7834 8.3434 5
433 1 0.756233 -9.04807 4.90027 23
434 1 -8.8843 -2.68944 -6.91652 16
435 1 -2.35194 6.06657 12.6837 15
436 1 6.96815 7.04821 -8.68125 18
437 1 9.19243 5.32873 -7.67171 19
438 1 5.81151 -14.3456 -3.03986 11
439 1 15.1495 -0.586099 6.58874 17
440 1 9.30074 10.6222 4.63344 19
441 1 11.9223 -2.89991 1.65626 22
442 1 -2.16973 2.29219 10.3902 23
443 1 -12.4532 -3.16016 -0.464849 17
444 1 -7.7632 -4.83845 -11.0634 15
445 1 7.81094 -3.65059 9.68193 22
446 1 1.0522 -7.51328 9.91559 17
447 1 4.48786 6.51118 14.2691 11
448 1 -4.20277 10.6362 -0.279436 18
449 1 9.41013 5.07999 4.53197 19
450 1 12.8221 9.11419 2.13164 17
451 1 1.57082 1.65262 -14.3596 10
452 1 -12.6392 3.17021 8.61212 14
453 1 15.2831 0.0431827 -10.1794 10
454 1 11.6229 -6.38369 -7.05998 15
455 1 12.7639 2.86382 7.73211 18
456 1 0.577908 8.05328 4.85253 22
457 1 14.903 9.52209 8.19816 9
458 1 1.82914 -4.08914 13.3941 13
459 1 -0.362245 5.22367 9.62309 21
460 1 0.62641 -1.923 -10.3025 20
461 1 -5.82791 2.56527 10.1063 20
462 1 10.6441 5.75134 12.6183 9
463 1 13.0676 10.4941 5.5665 13
464 1 11.1769 -12.9959 -3.03339 10
465 1 7.70301 8.05317 3.92533 20
466 1 9.6733 18.1311 6.30553 4
467 1 2.52098 16.2344 -6.8373 5
468 1 12.7462 11.1498 9.72924 10
469 1 -6.81131 -9.28163 -0.266387 23
470 1 -0.444173 -0.217912 -13.0359 13
471 1 -7.16206 14.4117 -0.430912 13
472 1 9.51788 -9.27037 -7.48915 14
473 1 14.2439 7.35132 -8.25148 13
474 1 9.64197 10.7911 -1.40046 23
475 1 -5.80958 6.32301 2.23477 20
476 1 10.8791 8.66323 -4.47922 13
477 1 -4.0409 -10.0657 10.3392 16
478 1 -1.83268 8.17707 -14.2066 11
479 1 7.19581 10.6981 6.73164 14
480 1 6.3926 2.84548 7.28407 20
481 1 12.448 12.6098 -5.63411 10
482 1 9.80552 14.7266 5.51615 9
483 1 15.2564 -2.80625 -2.16367 13
484 1 -12.8756 2.98178 5.29505 15
485 1 1.78469 -14.0959 2.49615 16
486 1 5.43541 0.627928 -7.29428 16
487 1 2.55047 11.014 4.38584 19
488 1 -14.7656 0.0724913 4.38012 10
489 1 6.77588 -11.8359 1.82263 20
490 1 12.4873 10.442 -8.34791 11
491 1 7.94746 1.44315 -14.6292 10
492 1 0.62024 -13.0073 7.07347 14
493 1 4.70846 13.8365 -1.5385 15
494 1 -5.72363 -3.45438 15.431 5
495 1 -6.29803 -12.4999 -11.2404 12
496 1 5.10827 -6.86375 -5.96704 22
497 1 -2.72298 14.4693 8.21913 8
498 1 6.40766 -11.0826 -4.38767 18
499 1 9.61774 -8.65427 6.96925 23
500 1 2.78794 -15.68 -0.466187 12
501 1 -10.9158 -2.23223 7.57028 16
502 1 -8.19918 -7.73962 -6.21678 16
503 1 -9.02075 2.3705 9.85109 21
504 1 15.637 4.74295 -6.23071 12
505 1 -3.89265 3.31298 7.64062 22
506 1 -11.2157 8.75683 2.77689 14
507 1 8.65461 -2.4446 2.07816 21
508 1 2.50778 8.89666 -3.18436 19
509 1 10.9627 2.29202 -5.85473 18
510 1 9.572 5.08899 -1.25864 20
511 1 -9.65418 2.24095 -6.28787 20
512 1 -9.97648 -5.8036 -8.87514 12
513 1 4.63258 6.3392 -13.1632 17
514 1 3.73699 -2.25564 13.5374 17
515 1 -4.64826 -5.32472 12.2479 18
516 1 2.33303 -2.62473 -8.22246 21
517 1 -6.26975 8.14623 -0.715455 19
518 1 4.16318 8.45699 4.54732 19
519 1 -7.66941 -6.15595 4.62093 23
520 1 11.0068 7.66205 -9.13969 13
521 1 -2.38095 -14.0526 -3.45738 14
522 1 5.2262 9.42664 -8.33047 15
523 1 -4.30226 2.61736 -12.9678 13
524 1 -1.47623 -0.423495 15.8748 10
525 1 3.15462 9.90962 -12.9866 16
526 1 -9.50994 -3.28711 -1.52762 20
527 1 -7.95816 -8.06439 2.3762 23
528 1 13.77 6.93228 -5.16264 16
529 1 13.8709 -5.00462 0.0961201 16
530 1 -7.59363 2.67084 13.0137 13
531 1 5.64456 -8.60687 1.36836 21
532 1 15.6657 -2.31164 0.883395 18
533 1 15.9045 -3.82292 6.41327 13
534 1 0.550328 13.8687 2.92982 23
535 1 -3.85175 5.14704 9.93801 21
536 1 -2.75174 -11.3745 7.22092 16
537 1 11.2123 2.08698 4.47655 23
538 1 7.45084 7.19179 13.1418 15
539 1 -12.3903 0.378845 -3.51435 18
540 1 16.3545 -6.70344 -3.74229 9
541 1 5.99319 8.74174 1.86584 19
542 1 8.76158 0.549837 12.0566 14
543 1 4.8273 18.7868 2.19285 6
544 1 5.56039 -12.542 4.74599 14
545 1 -7.47025 -3.06698 -2.96971 20
546 1 4.42825 2.05589 9.69264 20
547 1 4.54289 11.3112 2.20962 18
548 1 -9.45667 -10.4634 7.92209 12
549 1 12.9789 -3.30525 6.06016 21
550 1 11.9984 -6.50537 3.10671 17
551 1 9.84001 6.10051 9.6314 19
552 1 -3.17268 -7.08224 -13.2407 17
553 1 -4.17704 3.25501 -8.67216 20
554 1 -2.51045 -5.31018 7.62748 21
555 1 -2.24187 15.6446 1.99134 10
556 1 13.9129 0.441674 2.00307 23
557 1 3.20921 11.8404 -4.26077 17
558 1 0.847809 1.13863 15.4821 16
559 1 9.33094 8.9391 12.0428 11
560 1 9.5791 1.46111 -12.0806 13
561 1 -5.04556 -12.0791 -0.140926 17
562 1 17.5935 1.14422 4.64595 11
563 1 6.44836 -7.41701 -9.08013 14
564 1 -1.77808 -8.88327 -2.90109 24
565 1 13.2848 -0.0330668 -3.22806 18
566 1 3.35889 -5.81672 11.2475 16
567 1 -1.20062 -9.4358 -8.09273 21
568 1 8.84599 13.674 2.89037 13
569 1 -10.9242 5.52123 9.69408 15
570 1 10.2178 6.09409 -4.60603 18
571 1 2.16368 -2.16398 -13.0998 10
572 1 -4.37225 9.68429 7.38227 18
573 1 2.00494 4.8283 -14.7991 12
574 1 10.3207 -3.5163 -1.5195 19
575 1 -9.4409 0.524959 2.1582 20
576 1 16.4785 3.21546 2.20473 18
577 1 -11.1728 -5.74457 5.07084 16
578 1 7.76937 5.60228 6.71095 20
579 1 -12.1766 -5.39383 -6.18053 10
580 1 -8.60468 7.87544 10.4631 13
581 1 0.872217 6.1269 -9.10192 17
582 1 14.6875 -7.76607 -6.03027 13
583 1 -10.5072 -4.50695 -11.8501 7
584 1 11.683 -9.50847 1.04258 16
585 1 -9.13484 7.05367 3.46134 20
586 1 -4.65843 -6.37298 -0.828135 20
587 1 -9.21737 -5.01821 7.16465 19
588 1 16.3164 -1.69285 3.75374 15
589 1 14.5755 1.79435 5.06665 23
590 1 -7.50807 9.35783 2.5057 20
591 1 2.2968 9.63814 11.6819 13
592 1 9.72444 10.1037 -10.9574 8
593 1 -5.59469 12.5224 7.96272 10
594 1 9.09739 12.9456 -4.32685 18
595 1 1.53111 5.91798 12.0565 15
596 1 9.24182 -8.77141 11.8813 11
597 1 7.36165 12.6094 -10.4062 7
598 1 -2.31826 -3.30855 10.2233 20
599 1 -4.98408 -6.15963 -10.9821 20
600 1 -10.7191 -0.0769371 -1.18531 21
601 1 -0.00938534 -10.7641 7.89064 21
602 1 7.98289 0.148247 7.15143 19
603 1 0.0824233 -11.6967 -2.95704 19
604 1 -13.628 2.76829 -1.88556 14
605 1 15.6668 3.66474 -9.98904 7
606 1 -2.21407 13.9315 4.59909 16
607 1 -3.85386 -2.4096 7.28877 20
608 1 -3.64387 -11.9578 -11.0315 15
609 1 0.75328 -13.4781 -5.44381 16
610 1 9.11964 -11.7871 2.64497 14
611 1 -1.01325 6.56337 -11.1996 21
612 1 12.5617 2.59619 -3.49117 19
613 1 9.86208 9.01346 1.47401 24
614 1 10.8397 0.253574 1.93457 22
615 1 -0.0652875 9.17528 -11.9398 17
616 1 -1.38444 -8.13192 7.57651 20
617 1 5.22009 9.34325 -3.06521 21
618 1 7.9274 1.47272 -5.80295 18
619 1 -9.70385 5.13941 -4.19771 21
620 1 -7.607 -10.5472 10.889 12
621 1 6.11444 7.81695 7.07584 18
622 1 2.16838 -11.8467 4.52105 21
623 1 4.36611 7.93061 -6.02226 20
624 1 -2.23051 7.69022 9.84336 17
625 1 -9.1017 0.0536202 12.258 11
626 1 11.6996 2.30513 -0.622138 21
627 1 -1.9994 -6.79107 10.4534 21
628 1 8.74539 -12.2292 5.41265 13
629 1 12.4125 7.8386 10.2248 14
630 1 8.37984 -6.64387 -7.23932 21
631 1 -6.28818 7.04784 -11.7374 12
632 1 -4.749 11.4107 -9.54694 12
633 1 -12.331 4.17801 -4.26803 17
634 1 11.439 11.9153 2.71996 13
635 1 1.88562 11.5112 8.72638 17
636 1 -9.74998 -10.5897 -3.48958 11
637 1 11.8925 0.118373 10.975 12
638 1 -4.19635 -5.89382 5.06737 22
639 1 12.0352 -0.363538 -11.838 10
640 1 8.83109 -8.56363 1.12238 21
641 1 5.64048 -1.92724 -11.6528 14
642 1 -3.27252 5.66808 -13.0725 14
643 1 -9.30058 -4.96048 2.79281 20
644 1 -5.86099 6.08751 -3.60793 21
645 1 -2.43948 2.67808 14.6003 11
646 1 12.6197 -8.36626 7.18935 13
647 1 -6.12985 -10.4348 7.8341 16
648 1 12.5472 3.41388 2.1526 20
649 1 2.40213 6.07656 -11.5461 18
650 1 14.1382 7.88615 5.49705 16
651 2 -8.48831 -6.69912 -7.84072 14
652 2 -2.48498 8.0291 -4.27168 25
653 2 4.00561 -2.51135 -12.0823 15
654 2 -2.08994 5.76268 9.12772 21
655 2 -6.46719 -5.84157 -12.3367 14
656 2 4.75643 0.127769 8.89355 22
657 2 -12.2505 -4.06804 4.54331 15
658 2 -11.348 5.54542 -3.27442 22
659 2 1.40197 11.0729 10.4168 14
660 2 -12.928 0.904442 4.75381 14
661 2 11.3048 5.826 5.0649 20
662 2 -11.4907 -5.36754 -7.85046 10
663 2 -7.57556 3.30941 -0.0837985 18
664 2 -1.19101 -7.9439 4.38788 22
665 2 4.08229 5.85448 9.50701 19
666 2 12.6823 2.36647 -7.27136 18
667 2 0.201755 -15.0983 2.92638 12
668 2 -6.14923 8.1798 -3.92439 18
669 2 -10.59 3.82674 -5.46906 16
670 2 9.52163 4.88733 7.09433 21
671 2 15.7068 -7.86246 -2.48729 9
672 2 -10.5932 -8.81904 3.38465 12
673 2 -7.45158 -2.9304 9.82343 15
674 2 -4.60885 -14.3115 4.24878 11
675 2 12.6358 -6.61911 6.67955 17
676 2 3.3285 -10.7179 -8.32706 16
677 2 8.21359 -3.22813 12.1409 19
678 2 5.68264 10.4768 -11.8354 14
679 2 -8.90697 -12.0198 -2.19461 11
680 2 3.61226 -0.793537 16.4094 8
681 2 -8.40617 11.6746 0.354144 15
682 2 -2.43974 4.69571 13.8767 10
683 2 -4.3342 8.90347 -6.94958 23
684 2 12.9018 -10.8805 0.428531 10
685 2 -2.50156 8.54518 7.31012 18
686 2 4.6154 9.94127 -6.60532 13
687 2 4.97567 -6.81383 -4.01405 21
688 2 0.472605 -5.92887 -6.23017 20
689 2 13.1849 -0.354657 -7.28752 15
690 2 -7.62741 0.653611 13.1885 10
691 2 2.85908 3.2004 -14.8643 12
692 2 -2.78264 8.16852 -9.27852 21
693 2 10.6739 9.99226 -2.94979 17
694 2 -2.13223 -5.19321 9.46397 22
695 2 -8.02018 8.64568 4.41115 21
696 2 15.1462 1.81885 -9.65322 10
697 2 2.09823 -6.83666 -8.23299 18
698 2 -13.8188 -1.62419 -0.290822 15
699 2 11.7142 11.244 4.48631 13
700 2 -4.29084 9.25678 5.1311 19
701 2 1.41582 -11.6048 -5.84265 18
702 2 1.36063 13.0542 7.78991 12
703 2 4.49972 -5.1779 9.68359 22
704 2 8.89195 -2.46828 4.17227 22
705 2 -8.80173 0.398809 -0.464087 21
706 2 9.75223 -10.2614 1.43956 19
707 2 14.0552 -9.72891 -1.90545 13
708 2 6.94122 9.31307 5.42837 16
709 2 9.20125 -8.47952 5.06996 22
710 2 13.2915 -5.27799 1.85692 16
711 2 -7.02087 -4.84017 15.4864 4
712 2 13.5035 -6.41106 -1.59645 16
713 2 -1.24024 9.24835 4.12536 20
714 2 11.8159 7.34476 11.9102 9
715 2 -4.48518 5.66449 11.8092 17
716 2 7.45491 6.82563 8.2278 19
717 2 15.5294 -3.15913 2.57316 17
718 2 5.08519 11.5279 -3.88192 20
719 2 -8.97763 -2.97618 -11.5639 13
720 2 -5.65835 0.630078 10.1626 18
721 2 5.70208 2.54549 -7.02685 20
722 2 -5.91085 -1.51313 -10.392 19
723 2 -11.0072 2.92312 5.0427 20
724 2 -5.76678 -4.91644 4.22538 24
725 2 14.3295 2.34205 1.31275 19
726 2 2.3396 -6.23399 6.8659 24
727 2 -1.68773 -1.33602 14.1011 14
728 2 11.3824 -4.79012 -8.16253 18
729 2 6.95643 0.0760812 12.6138 18
730 2 -0.444836 8.72329 9.49229 19
731 2 -9.59262 2.46342 2.04908 19
732 2 4.74045 -11.5321 -5.45198 18
733 2 9.12441 -0.790243 -3.19234 21
734 2 -6.01887 8.39739 7.35478 17
735 2 -1.88843 -15.2909 4.55828 9
736 2 10.9535 -9.75346 -4.08773 18
737 2 0.572897 8.1633 6.79948 18
738 2 9.63269 -11.7882 -1.90434 16
739 2 9.33823 -2.77809 9.15315 22
740 2 -11.132 -5.70189 2.87188 17
741 2 13.306 5.41003 1.35493 22
742 2 -7.76291 -11.2852 7.0759 14
743 2 11.0248 9.71027 -9.27869 11
744 2 1.77452 -12.5331 -3.23666 18
745 2 13.4328 -6.99635 -7.3722 12
746 2 1.23518 -15.2438 -5.00676 8
747 2 10.0504 -3.71798 2.02872 23
748 2 -3.84462 12.7773 8.3393 11
749 2 14.6271 6.13685 -2.78543 15
750 2 -2.66799 -10.7163 -7.71944 21
751 2 -7.58954 -5.92858 7.28303 18
752 2 -4.74551 -6.2172 1.10153 23
753 2 -5.11267 -8.61375 -1.18224 23
754 2 -5.91762 12.583 -2.14834 19
755 2 -10.702 9.50041 -0.871505 18
756 2 11.1243 7.68546 1.82607 19
757 2 3.99559 5.82278 -6.57831 19
758 2 -7.75041 9.39725 9.87833 11
759 2 -4.58176 2.36781 -10.996 14
760 2 -11.9912 4.70459 0.246162 18
761 2 -3.89017 3.16606 9.84742 19
762 2 -7.5175 3.64864 9.76063 21
763 2 5.33118 12.7184 3.46108 19
764 2 12.6092 3.66738 -1.86411 20
765 2 12.0069 -5.85954 -4.71585 19
766 2 -9.12834 -0.960568 10.586 16
767 2 2.53667 11.0206 1.94895 21
768 2 -8.93863 14.7045 -1.01196 10
769 2 -8.13877 5.51827 2.61129 18
770 2 14.3065 -4.46594 5.1586 19
771 2 -7.56523 -11.666 -10.1351 12
772 2 6.00572 7.51822 -13.8309 14
773 2 12.5357 10.9524 1.68944 13
774 2 -10.8191 -7.27848 9.83318 13
775 2 0.749961 7.87012 -3.56391 19
776 2 -5.48135 14.2366 -4.78049 14
777 2 2.37433 8.83652 -1.0981 20
778 2 12.9499 -3.43484 8.44705 19
779 2 1.36153 5.89516 9.24093 22
780 2 13.752 -3.61682 -3.10515 18
781 2 -3.69931 -0.485419 12.1678 17
782 2 2.80939 -2.28182 9.00022 23
783 2 -10.6266 -0.601377 -3.06341 18
784 2 -1.98334 -5.71048 -14.6258 10
785 2 12.6593 -12.5657 -2.23309 8
786 2 3.75267 -3.7793 -9.04597 22
787 2 16.9548 1.84869 0.409294 13
788 2 -4.30392 2.19022 14.2082 11
789 2 6.05288 2.96344 -10.6325 17
790 2 -7.93161 -9.64594 12.3983 10
791 2 -2.61423 3.70352 -12.7961 15
792 2 3.89166 -11.9711 -0.332068 23
793 2 8.4897 -13.095 1.21838 14
794 2 15.0343 8.31911 -4.46946 10
795 2 -7.30282 5.24433 -11.1284 13
796 2 -2.34238 12.1768 4.8293 18
797 2 -9.2243 -5.14562 4.86233 17
798 2 -6.18223 3.72091 -8.81275 20
799 2 8.5154 8.84672 -11.6645 13
800 2 9.53859 14.4651 -1.98905 14
801 2 -8.92003 -10.8747 3.86877 14
802 2 15.0659 -0.747712 8.52374 13
803 2 -1.03197 1.41278 15.6477 11
804 2 -6.17951 -11.9329 -6.82272 19
805 2 6.46383 -9.51927 -3.15232 21
806 2 5.49043 1.90003 14.3425 12
807 2 5.92794 12.457 6.62488 12
808 2 15.4339 -1.72976 -9.43009 9
809 2 6.96638 3.41373 12.1472 16
810 2 13.3489 10.9134 -5.06995 11
811 2 -9.23626 -3.10494 7.64679 18
812 2 6.78586 -5.58815 -1.78252 20
813 2 4.24836 17.8346 3.64442 6
814 2 7.91281 6.11133 4.84932 20
815 2 -4.47996 6.71015 -12.215 16
816 2 6.14386 -5.73958 12.235 17
817 2 -7.29682 11.1426 3.22088 15
818 2 -0.901902 -6.32297 6.93989 24
819 2 11.8327 -9.75846 6.11228 13
820 2 -6.22567 -14.3971 -8.02024 12
821 2 -1.31066 11.3917 -7.91409 14
822 2 -4.86198 -10.0761 -9.19581 23
823 2 -6.6311 -13.3578 -4.5868 12
824 2 2.73042 0.264832 -14.0469 13
825 2 -2.43171 -8.4933 -9.18166 23
826 2 7.56839 9.17139 12.5149 9
827 2 -7.48514 -6.48175 -3.0003 22
828 2 -11.0676 7.96766 4.46457 13
829 2 15.3274 -5.12729 7.67871 8
830 2 -6.58333 7.20494 0.877975 18
831 2 -3.36396 -11.0549 -0.957152 17
832 2 1.67167 2.17802 14.1916 15
833 2 6.99234 -0.237664 -6.42123 20
834 2 -4.33282 -0.178882 -8.75301 21
835 2 8.61834 3.43072 -8.87307 20
836 2 13.2752 -2.92553 -5.86437 19
837 2 -3.76818 -2.76994 -6.57904 18
838 2 -10.9514 1.84146 -0.917433 21
839 2 -8.85851 13.9091 -4.31887 12
840 2 -2.87636 -4.28029 12.1948 15
841 2 -2.82876 -3.19242 -9.3623 19
842 2 5.50732 -2.86543 -7.00459 24
843 2 8.3116 -2.47551 -8.699 19
844 2 9.18788 8.7328 10.0658 15
845 2 6.01652 -10.0369 8.03562 18
846 2 1.95822 -0.782781 -9.1332 19
847 2 14.5949 2.27243 8.53931 14
848 2 10.2346 2.14976 -10.4317 16
849 2 0.118951 -9.76505 -3.68877 20
850 2 1.87869 12.2628 -8.66893 14
851 2 8.37242 13.7911 4.7286 13
852 2 16.0531 4.59209 6.78212 12
853 2 -12.8921 3.47633 6.96194 11
854 2 -12.8173 2.69979 2.44121 16
855 2 0.400081 -8.9287 7.19047 20
856 2 4.1397 5.54568 -11.408 15
857 2 -9.27645 -5.09042 -0.956434 16
858 2 -10.8558 -7.51557 12.4796 9
859 2 0.745334 -13.7889 8.83822 9
860 2 -8.94993 10.7458 -3.7539 18
861 2 0.517135 -9.7943 -12.1329 12
862 2 -14.408 0.471518 1.76056 12
863 2 7.30062 -8.88482 11.3949 13
864 2 -6.24894 -8.73992 2.58336 18
865 2 -7.84364 -2.08396 5.18164 20
866 2 12.6214 -8.66293 8.91277 15
867 2 8.05162 11.3556 -4.934 19
868 2 9.47202 11.8008 2.91731 16
869 2 11.3452 6.34083 -0.961699 18
870 2 1.48345 12.4963 -5.3555 14
871 2 -6.87807 -2.45734 -7.04217 17
872 2 10.0004 16.5137 5.74337 7
873 2 -10.937 -5.9997 6.8013 14