ITEM: TIMESTEP
1000
ITEM: NUMBER OF ATOMS
2000
ITEM: BOX BOUNDS pp pp pp
-30.0 30.0
-30.0 30.0
-30.0 30.0
ITEM: ATOMS id type x y z Coordination
1 1 -10.6714 3.70319 -14.0662 8
2 1 -0.280224 -8.01234 -12.1995 18
3 1 0.712867 14.1092 12.7153 13
4 1 5.43971 -8.16618 11.082 13
5 1 -6.81341 8.85985 -1.0323 19
6 1 11.9415 -11.1036 -10.8417 13
7 1 -13.4903 1.77634 -3.78438 20
8 1 -1.66 -10.6505 10.4724 17
9 1 -11.7955 -5.0849 -9.36664 17
10 1 -11.3369 -7.23916 2.62585 20
11 1 13.3686 -4.17527 -13.465 5
12 1 -7.5383 -13.8236 2.01556 22
13 1 -9.50705 -7.3864 10.1555 19
14 1 1.2458 4.59348 18.9123 12
15 1 6.31678 -2.2236 7.16364 20
16 1 2.45584 5.4215 7.95364 20
17 1 8.37714 -2.25786 -1.25608 21
18 1 -2.90929 10.7789 -11.7271 20
19 1 -0.396299 -3.09165 14.6181 17
20 1 -5.84699 1.03876 -10.6615 19
21 1 -14.6857 -5.99779 10.6694 12
22 1 12.1515 0.365825 8.22938 19
23 1 4.31731 5.48245 -13.3044 15
24 1 5.69346 2.79379 -16.4119 20
25 1 11.6515 4.56231 10.7798 16
26 1 -9.51407 1.03639 1.08225 21
27 1 -12.3547 5.07836 -4.27907 17
28 1 -3.53657 0.489091 -8.65075 21
29 1 -11.0564 11.1032 9.2432 9
30 1 6.25272 -15.0311 6.18263 10
31 1 1.78037 -0.343765 7.52692 21
32 1 2.31187 -11.0648 -9.86565 18
33 1 10.9794 -13.0181 0.679199 12
34 1 -7.73356 -15.3058 -5.40164 9
35 1 -11.9832 -6.32584 12.634 12
36 1 -0.651773 -12.4875 -16.204 11
37 1 11.4823 -10.7672 -14.2216 9
38 1 -3.24218 8.26241 -13.8894 10
39 1 2.23094 2.03852 16.8994 16
40 1 -2.05706 -10.9322 7.38709 23
41 1 4.26618 -6.82671 13.6133 12
42 1 -14.1419 -0.662588 5.32405 18
43 1 -11.0816 -7.78534 6.50668 23
44 1 -8.5449 -1.63003 -3.67502 19
45 1 -5.31234 15.5492 -1.38369 13
46 1 4.55157 -12.1702 -7.48351 16
47 1 3.42245 2.93984 -11.1321 18
48 1 5.92153 -7.92401 -13.4038 20
49 1 -1.03253 -5.23797 9.75523 17
50 1 -11.7926 6.29816 2.13886 20
51 1 6.10778 12.2862 -11.8719 11
52 1 -0.585166 9.94248 8.54742 19
53 1 -8.57296 6.04491 -3.13131 20
54 1 -0.620315 12.1105 -2.62499 20
55 1 0.221918 -17.5577 5.63844 13
56 1 5.30137 -8.97161 -5.28662 17
57 1 6.86434 -6.77947 -16.0083 18
58 1 -8.74478 9.341 12.9776 12
59 1 -9.70339 -1.58605 -14.0363 12
60 1 8.64615 1.83552 2.40383 20
61 1 -4.40126 5.93678 -5.2192 20
62 1 -8.10071 -9.53143 5.34552 24
63 1 -3.01968 8.74703 10.2047 15
64 1 -12.8696 7.60605 -2.46432 13
65 1 -5.79866 11.4471 13.1918 11
66 1 -0.0364263 3.51603 -6.08561 17
67 1 -6.59508 -13.4926 10.604 14
68 1 5.16751 4.00301 7.03636 20
69 1 9.61425 -15.4112 -1.91912 8
70 1 3.6275 15.3161 13.0381 15
71 1 -9.58375 4.58403 -5.77427 19
72 1 -8.3632 11.8435 -9.26962 11
73 1 4.31184 8.23163 9.34916 21
74 1 12.8079 -3.21359 -8.62273 17
75 1 8.66071 -13.7181 4.07758 13
76 1 -14.935 -6.81086 7.93557 15
77 1 -8.41484 -2.23897 2.52886 22
78 1 2.70915 13.6495 10.1737 20
79 1 2.0876 -4.9451 14.6538 12
80 1 -7.48844 -11.6411 4.18083 25
81 1 -8.48893 -2.14117 -0.431326 22
82 1 14.5786 -1.82844 4.46183 9
83 1 9.8093 -2.08922 -7.65995 25
84 1 -2.94538 9.36321 14.4357 14
85 1 4.83353 0.0531635 5.7161 21
86 1 -7.17631 -4.55765 3.04922 20
87 1 -3.30943 -7.45218 -11.2932 19
88 1 -9.28232 6.63601 11.106 17
89 1 -6.6482 11.871 3.26229 22
90 1 -2.15908 6.33693 -8.23281 20
91 1 7.26247 -4.65421 -6.25365 19
92 1 8.68394 9.07707 -7.66671 19
93 1 7.7272 -10.3659 0.743111 21
94 1 5.23235 -7.21866 7.98037 21
95 1 -1.22704 18.575 1.15896 11
96 1 -8.71606 12.2514 5.16534 20
97 1 -5.52758 -4.6896 13.3112 15
98 1 -3.79485 10.3671 7.69059 18
99 1 -4.61971 -8.26056 12.1153 17
100 1 13.5982 -9.30081 -6.14087 13
101 1 -7.36829 4.87566 9.06744 17
102 1 -9.45368 -16.7802 1.82988 13
103 1 7.73826 -9.81017 -3.21527 18
104 1 2.09566 -1.11327 -19.1734 11
105 1 -6.56314 -0.764107 -15.014 14
106 1 -3.20521 10.4597 -0.988742 21
107 1 -11.9743 5.12642 -7.92195 12
108 1 1.93219 10.2016 16.5882 14
109 1 -0.442756 16.4421 -9.50919 12
110 1 -10.6368 11.1818 3.17351 17
111 1 -0.658031 6.20221 2.50972 21
112 1 -4.37223 -11.0779 9.65556 21
113 1 12.1468 1.22038 10.8471 16
114 1 4.06477 -9.56884 -11.973 18
115 1 2.82335 -6.61296 -12.9917 18
116 1 -2.45468 3.22176 9.84639 21
117 1 3.00229 -1.91235 13.4674 16
118 1 -9.4948 -5.58714 -2.20432 21
119 1 11.8398 -8.61993 3.51442 9
120 1 -8.29926 -8.11069 -3.98029 19
121 1 10.0758 -11.5953 3.28934 14
122 1 -5.92843 5.27429 2.3475 19
123 1 10.1764 -0.498648 -15.8692 14
124 1 4.55762 15.33 0.486302 15
125 1 -7.33157 -11.62 8.04217 22
126 1 -9.51956 -12.9682 6.78853 16
127 1 6.71347 -10.0175 -16.7045 14
128 1 4.11893 0.307494 -11.417 21
129 1 10.7848 -9.74646 0.644042 17
130 1 -5.12266 -15.9154 7.22592 15
131 1 -9.67734 -10.26 -3.14253 13
132 1 12.5406 6.42593 8.73634 12
133 1 17.7937 -2.73577 -5.93888 9
134 1 -13.5785 -2.71903 3.2133 16
135 1 8.83387 7.79928 3.18179 20
136 1 9.54796 6.49361 6.37596 15
137 1 -1.09707 1.80409 15.9463 16
138 1 4.9605 6.02583 -1.07222 17
139 1 -1.22118 5.93798 8.5965 18
140 1 -5.37915 10.8488 -3.66392 20
141 1 0.890343 -10.1693 -14.5413 17
142 1 10.2416 -13.2059 -12.9245 9
143 1 3.50776 11.2782 -11.2959 16
144 1 8.33472 -1.57821 14.2071 15
145 1 2.991 -5.01589 -19.8241 10
146 1 -2.42615 7.24338 -2.26439 17
147 1 9.23281 0.35563 -9.60688 20
148 1 -10.4684 6.82176 -0.911791 21
149 1 -5.55676 14.6002 1.44366 16
150 1 6.35601 7.93618 -9.60438 19
151 1 7.70985 -11.9121 6.26581 12
152 1 -6.53954 6.80017 -10.3615 22
153 1 -6.4937 14.6216 7.95222 15
154 1 13.607 8.79779 -3.82693 16
155 1 7.36103 14.1701 -3.0274 8
156 1 -3.90948 13.4731 4.23437 20
157 1 13.2213 7.86866 -1.08597 19
158 1 -2.22761 9.97414 -4.55856 21
159 1 3.2352 14.0876 -12.1184 10
160 1 4.74068 10.0162 -14.6806 13
161 1 -11.5032 -6.88095 -0.133657 21
162 1 -14.4041 6.89945 1.00633 16
163 1 -0.29253 0.468633 -17.7078 12
164 1 0.790499 -14.7182 -13.4474 11
165 1 8.96778 15.6522 11.3304 13
166 1 -2.76787 14.2722 7.19055 18
167 1 -13.5541 -1.14622 -4.96383 16
168 1 -8.13573 8.98116 4.37487 21
169 1 14.0652 2.06263 -0.549995 14
170 1 -9.30716 2.88483 -11.3309 17
171 1 5.9837 4.94794 19.328 11
172 1 6.59892 18.4735 5.02671 11
173 1 -0.203731 5.19003 5.95717 18
174 1 4.26355 -11.5691 -19.1265 5
175 1 -4.34944 12.6248 9.42066 18
176 1 -3.28886 15.9591 -3.87451 11
177 1 -0.431003 -5.17775 12.7026 15
178 1 -12.5315 -5.36355 5.16161 20
179 1 -1.44278 -15.7047 -10.5102 10
180 1 -6.14285 11.6514 -6.95665 18
181 1 1.51213 -10.459 5.39329 18
182 1 -1.3092 -15.9833 -4.13917 19
183 1 -7.05841 8.92533 -8.28265 20
184 1 -13.7149 2.50915 11.3181 13
185 1 0.381878 9.36795 -4.18671 18
186 1 7.88447 9.00088 -4.70273 17
187 1 -7.53751 6.04624 16.8489 13
188 1 2.2339 -11.6874 14.0044 10
189 1 -10.2943 4.01152 -0.335927 21
190 1 5.26797 16.1564 5.47087 18
191 1 0.348326 2.85286 10.9512 19
192 1 7.08917 7.32341 11.3563 19
193 1 -5.42642 12.6376 6.57477 21
194 1 9.09671 -7.89656 -9.8383 19
195 1 -6.04035 14.0161 11.3803 12
196 1 -2.62224 3.75275 -6.3368 18
197 1 10.5392 -5.95431 2.09904 16
198 1 -5.86884 -8.0083 4.09606 22
199 1 -15.3132 -3.94258 5.91571 15
200 1 -10.2717 -10.807 2.17863 19
201 1 2.49003 8.08374 12.9838 15
202 1 -17.5568 1.05068 0.578279 10
203 1 -2.0963 -13.7277 -1.12109 19
204 1 3.07789 -7.97905 -1.18994 19
205 1 -3.80148 10.8482 2.35386 20
206 1 -8.53145 -2.09892 6.0454 21
207 1 1.88172 16.484 10.1016 12
208 1 -5.79624 -2.75299 -5.70701 21
209 1 -3.9091 12.923 -6.02275 24
210 1 -13.9952 -3.52436 -6.66484 12
211 1 -9.16123 -0.509918 11.5702 21
212 1 0.0540068 -13.2806 6.75575 16
213 1 3.16223 -13.7133 7.75999 11
214 1 -10.8599 7.55251 4.54642 18
215 1 15.1183 1.13817 6.89927 10
216 1 6.03294 3.14629 -5.91543 18
217 1 -1.67319 -9.34095 -16.2861 14
218 1 4.97546 -0.458482 9.08977 22
219 1 4.14733 -17.3418 5.28687 12
220 1 -3.65711 8.4594 -10.3773 18
221 1 4.62274 -12.2147 -15.7462 12
222 1 5.95426 1.68805 -13.6758 16
223 1 3.8476 4.15685 -18.5593 14
224 1 -8.27233 -4.72695 -7.35072 22
225 1 -0.344599 11.5538 -6.016 16
226 1 -9.33074 -11.9339 10.4372 9
227 1 4.23883 12.5201 -0.587297 18
228 1 -7.06403 2.59413 16.7207 12
229 1 -8.28736 11.9795 -2.76219 15
230 1 8.14747 2.69541 5.4484 17
231 1 -2.52084 -6.76052 -14.103 19
232 1 -5.13651 12.2203 -9.94707 17
233 1 3.51478 6.09184 -10.4209 19
234 1 -8.38515 -8.96325 2.59738 22
235 1 -4.95522 3.1295 8.06433 17
236 1 -5.76985 8.76524 10.1402 12
237 1 2.09081 -8.57686 -7.13445 15
238 1 -4.35443 -15.9445 0.383919 21
239 1 10.184 -11.8148 -2.04854 18
240 1 2.47888 -8.61855 2.31282 19
241 1 8.39026 10.591 14.8304 17
242 1 4.74588 5.88592 -4.4507 21
243 1 -0.908658 13.1146 3.078 19
244 1 -12.64 1.54487 -0.46337 17
245 1 -13.1253 9.30679 0.103932 12
246 1 1.32782 6.24056 10.7406 17
247 1 3.24557 -16.4874 -4.33284 14
248 1 8.85188 3.26551 -3.29035 18
249 1 5.49002 4.89023 10.1746 20
250 1 -8.57185 6.42173 6.76711 18
251 1 -14.855 -3.19825 -2.77841 17
252 1 11.5375 2.0514 -14.1584 12
253 1 3.02645 -2.92186 9.09953 19
254 1 9.13228 7.68068 -11.3337 18
255 1 1.91408 -9.38093 -3.83853 15
256 1 -4.18166 -0.414017 -13.0324 20
257 1 -0.838845 -20.1238 3.30298 11
258 1 7.24045 -4.16299 -9.55663 17
259 1 -9.92309 -4.27917 7.48487 20
260 1 0.8471 -17.0005 -6.07018 12
261 1 -9.60102 -2.64568 -9.32735 20
262 1 1.62399 14.0975 -1.32828 19
263 1 3.8771 -6.31654 -16.9052 15
264 1 2.96617 4.55351 12.5647 17
265 1 11.7798 3.08982 3.67501 17
266 1 -2.84124 -8.29602 1.94737 19
267 1 10.1995 -2.93025 -13.7943 18
268 1 -1.13432 -11.3349 4.78168 18
269 1 -7.219 -1.92988 -12.2817 24
270 1 -10.5536 -0.447856 -4.41851 24
271 1 -8.18051 -15.1439 8.83847 10
272 1 9.78665 -2.09727 8.32309 17
273 1 2.81783 -6.01974 10.8383 17
274 1 -4.9042 -8.71437 -14.0585 15
275 1 3.12357 -8.00356 5.76031 17
276 1 6.56465 8.33181 -16.7779 9
277 1 2.09682 8.85305 1.83788 19
278 1 -5.89653 -9.38879 -2.56465 17
279 1 0.448312 11.3473 0.229906 18
280 1 -8.87687 -2.08621 9.40842 21
281 1 -11.3686 -8.60162 -8.86487 10
282 1 -4.50182 -2.78124 -14.1849 18
283 1 2.33356 3.66757 -15.0439 17
284 1 -4.81478 -5.49238 -8.97273 20
285 1 -5.43292 -10.4191 1.62647 20
286 1 8.42884 -6.79394 -13.0587 21
287 1 17.1062 0.459698 -5.30399 8
288 1 13.0178 0.656155 4.51825 20
289 1 -2.42859 -10.2924 -6.97754 19
290 1 -9.12589 -4.74403 11.4924 17
291 1 -5.846 -9.69307 -6.12073 19
292 1 5.24119 6.41264 15.9203 17
293 1 -6.09814 -16.0613 2.62687 19
294 1 -4.85692 -13.2112 2.05645 18
295 1 2.8138 17.2755 2.73452 19
296 1 7.60236 -0.518813 -17.7328 11
297 1 -4.37306 -7.24963 -16.5862 11
298 1 -6.26878 -8.78784 9.58394 20
299 1 6.80094 8.54494 19.3147 10
300 1 3.63345 -12.6579 -0.0346804 18
301 1 -8.54539 -10.4699 -9.55599 9
302 1 -11.9809 5.27235 -11.0305 9
303 1 6.70611 5.73318 4.98161 21
304 1 -6.87463 4.77671 -14.9984 10
305 1 -0.527597 7.94693 -12.4615 18
306 1 -3.88947 -6.23958 7.7589 21
307 1 5.30704 -11.8 -10.6821 16
308 1 1.11195 19.1406 3.07923 13
309 1 1.86068 11.7703 4.18832 19
310 1 12.3428 -2.72047 7.11969 15
311 1 -11.4482 -2.98816 10.7193 20
312 1 -0.746777 -9.09304 13.5081 18
313 1 -5.86373 8.22717 1.98783 23
314 1 3.92483 -9.17668 -15.1202 19
315 1 12.5362 7.32558 -7.23021 14
316 1 1.19171 -11.3303 2.54979 16
317 1 -3.81122 0.449952 10.9159 22
318 1 -14.7762 -2.80841 9.41411 15
319 1 0.513702 -13.3044 -0.0948716 16
320 1 -5.94535 8.40809 14.7267 13
321 1 -10.5562 6.62621 14.524 11
322 1 -12.0203 -7.93083 9.34718 13
323 1 -13.6333 -10.1848 6.87358 10
324 1 13.7953 -0.754722 -3.29544 18
325 1 -10.2327 -9.62602 8.17511 16
326 1 10.4667 -4.67643 -11.3908 18
327 1 9.32803 -13.2014 -5.84941 14
328 1 1.33913 15.2999 -4.00941 15
329 1 -8.30152 14.4424 -0.126735 12
330 1 9.93583 13.6501 13.6237 11
331 1 -10.9751 -1.33088 4.18684 20
332 1 8.67697 -7.44466 -0.502924 20
333 1 -3.14347 8.02952 3.32556 19
334 1 -7.60375 3.79791 5.92345 19
335 1 2.89617 -9.15416 8.58219 16
336 1 8.74255 -8.30218 2.55047 19
337 1 -2.68853 7.81962 6.62873 19
338 1 -3.51823 -5.06778 -6.34877 20
339 1 -0.0563874 4.56636 16.5231 19
340 1 -5.83404 11.9786 -0.620981 22
341 1 7.06886 8.89627 16.61 15
342 1 -5.88318 13.393 -4.21458 14
343 1 1.21009 -9.96327 -17.9486 12
344 1 -6.43285 0.541321 -7.29741 20
345 1 8.15309 -12.351 -15.4218 11
346 1 -11.5548 8.12707 12.3642 9
347 1 -15.28 1.60483 2.72532 16
348 1 -1.74517 -3.00982 -12.5101 20
349 1 -3.50138 7.85447 0.335507 19
350 1 9.1085 -3.16437 5.41599 19
351 1 -9.88609 -13.8049 0.02637 16
352 1 7.84674 -5.2507 7.09281 19
353 1 -6.54769 -10.4661 12.5499 13
354 1 -12.8935 9.13094 3.32282 13
355 1 1.84755 -5.59087 8.0387 19
356 1 6.51061 -10.0034 -7.83363 17
357 1 -6.46916 -1.92912 -8.97954 22
358 1 3.42981 -3.38077 -15.1282 18
359 1 8.48346 15.3549 5.3118 19
360 1 -15.7375 -1.21643 0.181852 17
361 1 5.5885 -4.58912 -14.3389 19
362 1 8.97569 -0.220584 -12.9115 20
363 1 -4.44133 -16.5144 -5.38246 15
364 1 -13.4275 -5.70088 -3.13474 17
365 1 -3.4152 -8.3358 -0.974787 22
366 1 8.96108 6.34441 18.7548 10
367 1 14.4783 4.45626 -0.486223 16
368 1 -6.28993 3.53627 -11.4528 19
369 1 4.80352 18.9545 1.73777 9
370 1 -15.9415 0.148617 -2.75551 12
371 1 -11.5167 12.8038 5.67592 13
372 1 -0.100963 17.1294 4.83895 17
373 1 -5.69084 6.9267 5.2124 15
374 1 7.02588 1.77672 9.63356 19
375 1 10.5038 -7.58389 -6.81022 19
376 1 5.04876 -3.54053 14.3263 13
377 1 11.3678 1.34779 -7.24817 19
378 1 -6.43932 -13.3486 -0.506526 17
379 1 -5.3944 2.6915 0.735745 24
380 1 -0.784414 -7.84589 -5.93404 23
381 1 -0.470427 10.0005 2.68181 18
382 1 -9.48944 0.30589 -1.86014 21
383 1 3.9373 -13.559 -3.20768 14
384 1 11.4618 -2.22341 10.5932 18
385 1 -7.20772 -4.18441 -4.13485 18
386 1 -8.59398 -8.56577 -0.724584 20
387 1 -7.02663 -6.77002 12.0512 15
388 1 -2.8808 13.4782 0.3279 19
389 1 -8.32242 -8.49465 -7.42865 19
390 1 5.31733 12.2226 14.7836 12
391 1 -5.10855 2.37412 -2.82271 21
392 1 2.49918 9.17814 -11.9295 14
393 1 4.37063 10.2942 2.40844 21
394 1 -11.5219 -7.68762 -3.19507 18
395 1 -0.261866 -12.5797 -8.31839 18
396 1 -11.3835 1.14082 9.70625 17
397 1 -7.70302 3.33955 -1.32356 21
398 1 6.29447 -10.1569 8.14498 11
399 1 -7.7396 -13.1963 -2.64433 16
400 1 12.4292 12.7098 7.0682 12
401 1 7.8094 4.89772 -15.5885 15
402 1 -11.8274 1.77998 -9.89872 12
403 1 -3.59991 15.1854 -9.2531 14
404 1 -5.86938 3.42369 -5.43777 19
405 1 -1.96049 -14.0986 2.72095 15
406 1 9.13048 4.94432 3.2854 19
407 1 3.08638 8.80411 -16.8281 11
408 1 -3.72179 -0.452286 7.62489 19
409 1 -16.4016 4.36123 1.60721 12
410 1 -8.86653 1.00849 4.56419 21
411 1 -5.64316 -14.3402 5.18963 21
412 1 1.83261 -5.58405 -6.19558 21
413 1 4.11171 -14.1496 -11.6434 11
414 1 -0.853192 0.45195 8.99975 22
415 1 -13.9375 1.98838 8.09783 16
416 1 -13.2437 -0.754816 9.82191 16
417 1 -12.6254 5.42337 6.92627 13
418 1 -0.0916309 -8.38498 7.43375 19
419 1 -8.10637 1.40342 -13.3802 17
420 1 12.484 -8.68869 -8.7723 14
421 1 -0.280248 -11.4599 -11.4653 20
422 1 -0.730088 -6.53458 15.5395 12
423 1 4.70135 -5.68996 -4.40057 21
424 1 -3.59652 5.02392 -14.0683 16
425 1 6.29541 -13.1779 1.80306 20
426 1 -0.190039 15.1493 -12.2357 11
427 1 -10.7824 9.75041 6.33939 17
428 1 -3.40468 -4.11091 15.7655 11
429 1 -9.92563 -3.85854 -12.1722 19
430 1 -8.54934 -7.45114 7.30071 21
431 1 10.2305 -4.02371 14.0192 11
432 1 7.78952 0.0645212 0.457668 19
433 1 3.15575 -2.13959 -6.96206 20
434 1 7.37626 -8.38359 6.12969 14
435 1 10.7627 6.04095 -2.83335 19
436 1 -4.75041 1.0063 15.5725 11
437 1 -0.283848 9.35078 -0.921277 18
438 1 7.56728 -4.63351 4.07001 19
439 1 -2.10237 -12.9027 -4.58839 20
440 1 -5.19948 7.88625 18.0528 9
441 1 -1.47007 16.4358 8.95795 12
442 1 -3.13337 -7.41025 -7.95396 21
443 1 11.1145 15.208 4.29369 13
444 1 5.14604 2.3516 11.5981 19
445 1 -5.23484 3.33328 11.0988 22
446 1 -3.73038 -7.40121 -4.42389 21
447 1 -8.56294 3.0513 11.0434 15
448 1 -6.16699 -6.52867 -6.68269 21
449 1 -4.79935 9.69855 4.72615 19
450 1 -4.76277 -15.2762 -8.79654 10
451 1 -4.02731 -11.1167 -12.3566 14
452 1 -8.39631 -11.5277 0.103138 20
453 1 -6.76243 -5.03801 6.144 19
454 1 10.1556 0.325756 4.83376 20
455 1 -3.81268 -7.12054 15.0849 11
456 1 -6.21258 7.33553 -13.5993 15
457 1 9.48889 6.26324 -0.470557 19
458 1 -7.93658 -12.2897 -6.99631 12
459 1 -0.781983 0.316177 -7.11861 23
460 1 -0.255219 15.9557 1.49357 20
461 1 2.91335 3.27293 -7.78291 18
462 1 4.91382 9.96619 7.16778 22
463 1 -11.8395 -1.6402 0.522478 21
464 1 -0.837915 16.6488 -2.02616 12
465 1 5.43004 9.09943 -6.1762 21
466 1 -7.23489 -4.55459 -10.4704 21
467 1 2.24085 1.60476 13.1557 19
468 1 5.77868 -15.0519 -5.60105 16
469 1 0.726865 -4.35521 -14.4268 16
470 1 9.42025 -15.1937 1.54659 9
471 1 -8.69244 11.802 1.11344 16
472 1 2.01575 7.66231 16.1598 17
473 1 10.9946 9.14909 -2.67855 20
474 1 -0.647521 5.33885 -0.706952 22
475 1 -7.49505 6.57792 -6.30609 23
476 1 4.78722 0.353561 -7.71237 20
477 1 5.69409 -7.52571 4.22008 19
478 1 -15.1172 -4.19172 -0.0869698 13
479 1 0.744743 14.8767 7.71613 19
480 1 -1.13816 3.2899 -13.3749 17
481 1 11.5861 6.79712 1.94129 18
482 1 3.33839 13.4632 -6.33149 13
483 1 7.76542 -4.81387 0.539221 23
484 1 14.8702 2.40172 2.43322 12
485 1 -4.03749 -2.75814 -10.772 21
486 1 6.3706 -12.0879 -1.28874 19
487 1 -1.60975 -13.8246 9.38898 20
488 1 2.62543 -10.0421 11.6939 17
489 1 -7.8571 4.63407 -8.62206 21
490 1 -10.6461 -13.4601 3.35142 18
491 1 3.24867 -14.7106 -7.98178 13
492 1 7.89568 11.0384 3.49409 18
493 1 -1.29371 -0.0134606 -10.9461 21
494 1 0.985022 -0.510889 15.8987 12
495 1 -12.3435 1.21648 14.8024 9
496 1 -2.37726 -18.0452 0.659218 16
497 1 -10.906 -4.06619 2.34151 19
498 1 13.1976 -6.19015 -6.34474 13
499 1 11.0687 -1.11743 -1.96401 19
500 1 -5.13622 7.66149 -3.27968 20
501 1 3.69842 -5.63056 -8.39501 15
502 1 8.54097 2.70929 -13.8121 15
503 1 10.7097 -4.43449 -5.00103 19
504 1 -2.88982 -1.01909 14.7916 14
505 1 6.66772 16.7561 2.28348 17
506 1 -4.4447 -4.46776 -17.0313 10
507 1 5.08815 0.704986 -19.0705 14
508 1 -3.83813 -5.02062 10.9697 20
509 1 1.48311 17.1316 -0.605446 15
510 1 -8.89594 0.220631 -10.3524 20
511 1 -16.6989 0.0858405 9.66525 6
512 1 -3.01829 -12.7088 -9.48782 19
513 1 -1.0872 -12.4548 13.8745 12
514 1 0.0367203 8.60044 -6.90614 22
515 1 9.2875 6.50852 9.23534 18
516 1 13.1192 6.10206 -4.41655 15
517 1 -6.84023 -16.7969 -2.73371 15
518 1 -0.982108 -10.6283 -1.70872 18
519 1 -2.47024 -5.18145 -19.4173 6
520 1 -7.54032 12.021 9.69933 18
521 1 -3.66359 -11.7814 -15.3658 11
522 1 14.6414 -3.26383 -4.62864 14
523 1 1.68154 14.7907 -9.33554 14
524 1 4.41154 -10.5954 1.54897 21
525 1 14.4248 -1.4581 -11.2858 9
526 1 3.85437 12.2934 13.0537 19
527 1 -6.88762 0.657274 9.4271 18
528 1 5.47716 11.6668 10.0804 18
529 1 5.32144 0.841886 18.2994 9
530 1 -2.14911 2.47667 -15.9531 16
531 1 -0.400348 -5.60798 -11.0607 17
532 1 2.56013 -0.218466 10.7013 19
533 1 7.52188 12.6664 7.65725 20
534 1 5.44255 4.80138 -8.7322 18
535 1 -5.0197 8.62482 -5.65693 21
536 1 -1.6777 13.2862 -10.8042 17
537 1 11.4756 -0.717473 13.2938 12
538 1 10.4842 -1.88023 -10.7781 23
539 1 12.8238 -11.5694 -4.61523 10
540 1 10.8834 11.0562 12.8156 11
541 1 -13.3176 -9.48406 2.01663 16
542 1 -6.08621 9.82405 -11.3485 15
543 1 -0.865234 -0.126926 13.1485 20
544 1 -13.7461 -3.63823 12.7959 11
545 1 -6.26101 14.4445 -7.5847 12
546 1 6.38373 -16.7837 -2.82131 10
547 1 4.25456 -2.9586 -9.68222 20
548 1 -3.34761 13.3991 -2.50208 17
549 1 -7.06093 -6.6185 -15.6573 11
550 1 2.11041 -14.9921 5.01107 16
551 1 -14.032 -6.12635 2.40231 18
552 1 2.2528 11.3432 -14.4344 13
553 1 -6.7719 0.469362 -3.78239 22
554 1 -2.81043 14.8498 15.0811 8
555 1 -12.6297 -4.83658 8.33942 20
556 1 2.95495 10.6947 -5.58006 22
557 1 2.50002 -11.9419 -13.1351 17
558 1 8.28666 -3.125 11.2048 19
559 1 12.0624 -0.200521 -13.2413 13
560 1 -8.98613 5.9806 2.86079 20
561 1 4.03399 6.53331 18.5845 14
562 1 4.1518 13.9405 -3.82488 14
563 1 11.908 -1.3752 -5.56388 20
564 1 -0.307147 8.94482 12.1217 17
565 1 0.693067 3.24278 -17.6966 15
566 1 -4.31409 -15.6197 9.94241 15
567 1 1.47818 -0.10227 -9.62432 21
568 1 9.32556 2.268 -16.9268 13
569 1 2.1672 15.1562 4.38235 20
570 1 10.0032 4.31381 -11.3418 16
571 1 -1.22467 0.0686074 -14.1404 17
572 1 -5.23048 -13.3034 -6.29682 18
573 1 -10.6233 -5.07049 -14.923 8
574 1 8.59072 3.57855 0.0822813 18
575 1 12.1072 2.65404 -2.52479 24
576 1 10.3261 -10.3312 -5.38481 21
577 1 0.988134 10.8353 13.6072 17
578 1 4.63104 -10.4731 -2.26116 17
579 1 4.94687 5.86347 -16.3236 18
580 1 6.59435 12.5942 1.47645 18
581 1 -10.5756 3.91528 4.63914 19
582 1 5.04945 10.2161 16.6203 16
583 1 9.4108 6.21455 -5.64387 21
584 1 14.0829 -0.973384 1.55684 14
585 1 8.98609 6.14399 -8.93969 21
586 1 11.4863 7.53873 13.1486 9
587 1 10.8098 5.92628 15.7838 10
588 1 0.620193 -8.06245 11.0385 19
589 1 14.9306 10.3702 -1.88911 12
590 1 2.64993 4.59967 15.3346 20
591 1 13.5754 1.8444 -5.88513 16
592 1 8.21163 4.30276 11.9157 21
593 1 -8.736 -1.57882 -6.75406 20
594 1 14.0411 5.79757 2.94698 14
595 1 9.77484 -4.37159 -1.80947 20
596 1 -10.9582 7.26789 8.30283 16
597 1 6.56942 14.7077 13.3739 11
598 1 8.40266 7.37304 14.2736 18
599 1 1.58139 12.0576 7.62986 22
600 1 -1.90187 16.6402 12.2556 9
601 1 8.01068 4.21736 8.47893 20
602 1 -3.70674 -19.7196 3.38677 12
603 1 -10.36 7.07426 -5.88537 17
604 1 10.9548 9.2996 -9.2786 13
605 1 7.88176 -3.28135 -12.2137 22
606 1 10.2499 18.3596 3.97988 9
607 1 0.199454 -11.0338 -5.14744 19
608 1 6.53389 -6.51492 -8.07293 19
609 1 -11.7509 0.864561 5.98669 19
610 1 -3.54689 5.86421 -11.4521 21
611 1 -3.51502 -16.7344 3.5162 18
612 1 -4.88138 3.84889 -8.32326 25
613 1 -15.1821 2.17457 -0.52837 20
614 1 7.70656 -6.49186 9.62992 18
615 1 13.1738 12.2421 3.88926 13
616 1 0.738202 -10.8321 8.53723 21
617 1 -12.0517 -0.689603 -7.95162 18
618 1 3.01143 1.17001 -17.1228 17
619 1 -4.75252 4.56367 17.5053 11
620 1 8.09503 9.77627 -14.0928 10
621 1 10.9614 4.01905 13.3034 16
622 1 8.29197 3.31195 -8.01364 20
623 1 9.90602 12.93 1.61014 19
624 1 6.63998 -13.2414 -7.67501 15
625 1 -12.2208 -0.324018 12.5734 18
626 1 11.0961 -4.98837 8.89343 14
627 1 -2.80961 11.2542 12.1757 13
628 1 3.54598 6.53078 -7.60753 20
629 1 -10.9132 9.45601 -3.26877 13
630 1 10.9525 10.1762 3.74191 22
631 1 -9.27727 -15.9176 -1.96712 10
632 1 14.3651 -3.29962 -1.15082 10
633 1 3.69246 17.1188 8.31529 12
634 1 -2.76077 5.08315 11.8494 20
635 1 -12.2979 -4.32702 -0.65387 23
636 1 -12.1811 -6.24028 -6.36787 17
637 1 8.73864 1.44448 12.9222 22
638 1 -2.31374 -7.90717 10.0037 17
639 1 5.87377 5.32242 13.5882 17
640 1 -6.32325 14.9573 4.85493 16
641 1 10.1296 0.412517 -4.08916 19
642 1 9.9146 1.21215 -1.01069 21
643 1 4.04586 -2.39097 -17.8208 15
644 1 -9.16446 0.606192 7.71018 19
645 1 5.8802 -1.5514 -12.8949 19
646 1 -0.691824 -5.18729 -7.94708 19
647 1 11.8679 -11.803 -7.52543 14
648 1 10.849 11.0465 8.68616 13
649 1 5.02422 3.37395 4.47223 16
650 1 -9.08211 1.09151 14.1318 14
651 1 8.16389 11.8175 11.6194 20
652 1 1.84428 -8.45604 14.7511 14
653 1 -0.328991 6.67301 13.9529 19
654 1 0.107628 -7.36555 -15.5056 19
655 1 -3.94748 6.02485 9.18979 17
656 1 8.52911 3.07826 18.1334 11
657 1 -8.24474 -15.0887 4.77163 16
658 1 12.795 10.4566 0.911796 15
659 1 7.77405 -14.0456 -3.29976 17
660 1 -3.47773 9.47437 -7.64961 21
661 1 4.94161 9.89994 -0.514192 15
662 1 10.2198 16.6446 1.14605 8
663 1 9.11451 -5.09829 -15.1565 13
664 1 0.0359506 2.59445 7.63909 19
665 1 1.62481 11.7415 -8.58824 17
666 1 9.96786 12.8284 5.16005 19
667 1 -6.25898 -6.76698 -2.23401 21
668 1 0.901063 -1.76632 -16.4098 16
669 1 -10.4362 11.2871 -0.844558 12
670 1 9.23101 -8.73372 -14.5138 15
671 1 7.48269 9.73596 1.14518 19
672 1 6.59695 6.60921 -6.38557 23
673 1 10.1921 12.2559 -1.89302 15
674 1 -5.01353 3.36444 4.51234 21
675 1 -8.11154 3.29949 2.58471 19
676 1 2.47282 11.074 -2.9966 20
677 1 10.6619 2.04903 15.5084 11
678 1 7.72014 0.65569 16.0195 15
679 1 -1.57961 -15.1497 12.1063 7
680 1 -8.69308 8.8284 -11.6103 12
681 1 6.38992 15.2536 8.94516 16
682 1 7.14637 -9.18775 -10.9364 17
683 1 3.57509 2.25653 8.63978 21
684 1 -1.6326 14.9848 -6.29216 16
685 1 8.29337 9.93328 6.66079 21
686 1 12.8538 -5.85357 -3.11991 14
687 1 10.0897 8.61981 17.2961 10
688 1 -17.0273 -4.38105 9.11512 7
689 1 -0.155027 -17.1578 2.61107 17
690 1 -0.858833 -2.10592 -9.35277 21
691 1 -9.74822 14.4082 3.10405 13
692 1 6.29529 12.674 5.30585 21
693 1 5.8404 -7.59491 -2.51033 20
694 1 4.74382 7.38077 2.68465 20
695 1 -11.8502 -2.04998 7.27266 23
696 1 -1.98569 6.01085 18.7405 12
697 1 -0.0727897 9.06549 -15.0915 12
698 1 -8.82416 5.73894 -11.9021 18
699 1 -2.16885 -11.4387 1.17392 18
700 1 4.38169 8.54946 -3.19568 20
701 1 7.1351 -10.7063 3.66922 19
702 1 -0.473377 9.91531 5.20465 18
703 1 -12.5126 4.22483 13.8969 10
704 1 1.30909 -4.18244 -9.08652 20
705 1 2.17159 -12.734 10.5518 9
706 1 1.74401 13.9054 1.40165 20
707 1 -2.88747 1.98107 13.204 20
708 1 -8.96153 -6.78437 -12.6792 12
709 1 -6.85023 -10.2677 -15.0035 6
710 1 -4.42471 -14.8599 -3.03099 20
711 1 -3.64522 16.9704 -7.3202 8
712 1 1.58629 -7.903 -9.95331 15
713 1 2.78476 9.2818 4.69478 23
714 1 6.67033 -11.8444 -4.87155 22
715 1 3.51374 -17.9455 -1.18555 13
716 1 4.45226 -4.95417 6.04759 22
717 1 14.4554 3.46473 -3.47752 14
718 1 -0.898973 -16.6486 -0.995148 18
719 1 -10.6873 -2.19008 14.29 15
720 1 -5.0371 -18.3189 -0.448782 15
721 1 -4.70534 -5.31367 -12.6698 21
722 1 -10.3428 3.96905 8.34687 18
723 1 -8.26424 -18.9916 -0.745585 10
724 1 12.2271 4.44582 -8.44519 14
725 1 -2.4418 18.8615 3.67351 9
726 1 -6.1043 0.895345 6.32534 18
727 1 -14.6326 6.18373 4.0142 13
728 1 11.7587 -2.03149 4.00384 18
729 1 -11.9227 -1.94037 -10.8124 12
730 1 -1.8352 11.706 -8.50254 20
731 1 6.65197 1.74812 -10.4024 19
732 1 6.1492 9.40181 13.9925 19
733 1 7.80324 6.60107 -2.96852 21
734 1 -11.6545 2.27134 -5.85635 17
735 1 -9.35135 -6.64346 -9.44233 18
736 1 -5.58179 4.78983 14.3592 16
737 1 6.81159 5.00746 -11.3557 20
738 1 9.90453 15.4721 7.85202 14
739 1 -3.00295 -2.33197 9.52278 18
740 1 -3.45393 -18.1741 -2.69761 14
741 1 -5.90072 -18.0648 5.40954 13
742 1 -5.49987 -8.75698 7.0712 18
743 1 11.7603 8.56188 6.99623 14
744 1 6.9081 -10.717 -13.5159 18
745 1 -7.33321 6.06273 -0.165718 20
746 1 6.25624 8.97756 4.68013 23
747 1 -7.09334 -5.21527 9.27461 22
748 1 6.65569 7.40404 -13.9274 15
749 1 -2.01806 -15.3714 -7.73131 16
750 1 1.26971 -18.506 0.597873 14
751 1 6.24119 -15.9356 3.10617 16
752 1 0.750222 1.52545 -12.0597 18
753 1 4.10155 13.2819 7.4874 18
754 1 -5.45734 2.0473 -14.5322 16
755 1 0.275313 -2.60288 11.0406 20
756 1 1.55551 6.53833 -17.8999 9
757 1 -7.97556 -3.9775 -14.1479 17
758 1 -11.1046 -2.79445 -2.71137 22
759 1 1.73558 16.1149 -6.61103 10
760 1 7.31319 0.576517 -3.06734 19
761 1 0.444502 -3.87178 -18.0839 15
762 1 -5.87297 -7.16667 1.0035 21
763 1 12.2208 6.34279 -10.5594 9
764 1 10.3968 -8.02681 -3.3859 19
765 1 -7.28175 10.2834 7.04153 18
766 1 5.76255 -13.227 8.99405 9
767 1 12.3462 -6.46801 -0.538306 15
768 1 10.1908 -5.30753 11.5302 14
769 1 4.45512 6.92114 5.9335 23
770 1 -9.90533 3.65091 15.7603 12
771 1 -5.93083 6.57856 12.0185 15
772 1 -2.01268 -16.4375 8.04706 13
773 1 7.49956 -0.646289 3.64583 20
774 1 7.79138 9.63712 9.28707 20
775 1 -15.9779 -1.43151 2.89215 11
776 1 7.53291 -5.21309 -3.03395 22
777 1 -8.3413 8.81242 -3.37629 19
778 1 2.63448 5.53964 4.33636 20
779 1 -2.7905 -18.9451 6.3347 12
780 1 4.68483 -0.342306 15.6577 15
781 1 -1.45513 12.0807 6.44519 16
782 1 2.74379 -15.2074 1.619 18
783 1 -6.28399 -4.40274 -0.621322 22
784 1 -0.416904 3.62656 13.6309 20
785 1 -14.1635 -7.88268 -0.455219 13
786 1 -1.0052 11.8257 16.6944 12
787 1 4.58925 13.4724 3.50465 18
788 1 -12.6989 -12.4525 1.1747 11
789 1 -2.48259 -14.4684 5.60285 20
790 1 5.60038 -4.16765 9.2934 18
791 1 10.8563 -5.87591 5.36356 12
792 1 6.18756 6.87647 8.07356 23
793 1 -0.399714 6.20653 -4.15555 18
794 1 -1.44381 -9.45213 -9.42466 20
795 1 -3.49964 2.3054 -11.4607 20
796 1 -2.80231 -2.54453 12.4073 20
797 1 2.92913 18.0416 5.55764 14
798 1 11.1209 0.202361 1.67008 20
799 1 0.524743 5.76902 -8.43919 19
800 1 -4.19107 12.0981 15.3254 12
801 1 9.27716 9.1577 11.4601 19
802 1 5.63259 -6.46165 -10.8229 17
803 1 -4.50387 -12.3046 -3.37832 14
804 1 -3.05887 -2.09614 -7.80193 22
805 1 11.6611 -3.24053 0.401536 19
806 1 6.86418 -0.942173 -9.80961 20
807 1 -0.798831 8.43559 16.48 18
808 1 9.37492 -10.5989 -8.57366 20
809 1 7.13834 3.27398 -18.6801 12
810 1 -1.02474 -7.38694 -2.79584 21
811 1 11.941 1.7219 -10.8977 13
812 1 17.2193 -1.92044 -2.6042 10
813 1 0.444996 -10.416 16.1996 9
814 1 -4.46005 -9.69972 -9.18237 21
815 1 8.46946 14.9015 0.398344 13
816 1 -0.373101 -8.34293 4.11401 21
817 1 -13.4955 3.16558 5.29304 15
818 1 11.0061 3.78596 -5.59207 16
819 1 14.3615 4.03098 5.34711 12
820 1 0.818277 -6.85527 -18.494 11
821 1 -9.28447 15.5843 6.14427 11
822 1 14.5976 7.35149 5.85378 10
823 1 11.1243 9.38247 -5.72275 15
824 1 4.25458 -0.443283 -15.1095 15
825 1 8.71896 -2.23654 -4.35388 24
826 1 -10.9315 2.60435 -2.72078 21
827 1 10.1508 9.38875 0.384104 20
828 1 -11.7181 -10.5079 -0.947785 16
829 1 -8.58208 10.0406 -5.99005 16
830 1 8.38567 -0.458057 10.5784 20
831 1 -11.2367 -3.14549 -6.08961 20
832 1 -8.4684 8.64448 9.38575 17
833 1 -1.1964 2.75454 -8.99488 20
834 1 11.2717 -8.07811 -11.8588 14
835 1 -13.9942 -7.95772 -6.22606 7
836 1 12.7819 -9.23357 -2.69528 13
837 1 -12.9359 3.3356 2.05182 21
838 1 -9.33806 -5.96081 -5.31227 18
839 1 11.0209 13.3087 10.4529 13
840 1 -4.22133 -13.4437 7.87397 21
841 1 5.39735 3.43386 16.4317 16
842 1 13.4194 -5.08111 11.963 6
843 1 8.99817 -2.91596 2.28075 21
844 1 -12.2217 0.400742 2.55563 17
845 1 -0.73453 12.8458 9.61764 20
846 1 -0.650438 9.42573 -9.99417 22
847 1 -1.79329 -13.6815 -13.3423 11
848 1 -3.53765 16.6714 6.15713 11
849 1 -13.3089 -11.8261 3.99218 11
850 1 5.70437 11.408 -3.50217 18
851 1 -2.2411 9.32923 18.5881 10
852 1 14.518 -0.884593 -7.27821 14
853 1 6.87162 -5.21863 12.6165 15
854 1 -1.24028 12.2408 -13.9817 12
855 1 8.20528 10.9208 -10.6406 12
856 1 -6.04499 -2.26057 11.3924 23
857 1 14.1708 3.02522 8.8204 11
858 1 -1.50462 -4.10186 -15.6536 17
859 1 12.8395 12.6927 -0.761799 10
860 1 -13.4172 -1.00361 -1.69829 24
861 1 -3.84868 -12.9874 12.0995 16
862 1 5.41053 10.8182 -8.57447 15
863 1 8.23484 0.372383 7.18325 19
864 1 -2.78762 -10.0979 -3.67167 19
865 1 -2.99113 15.9577 3.06548 18
866 1 -13.3346 4.76636 -0.838163 18
867 1 12.6658 -0.157843 -9.02663 18
868 1 1.3053 -14.2971 -10.3184 16
869 1 -9.42319 9.01955 1.09599 20
870 1 15.7023 6.67539 -2.54425 12
871 1 -5.72087 -3.21218 7.74422 18