ITEM: TIMESTEP
3000
ITEM: NUMBER OF ATOMS
500
ITEM: BOX BOUNDS pp pp pp
-30.0 30.0
-30.0 30.0
-30.0 30.0
ITEM: ATOMS id type x y z Coordination
1 1 -6.39244 4.01703 -7.27687 15
2 1 1.05437 -3.36658 8.69134 14
3 1 -0.931738 3.59384 11.5496 10
4 1 5.81618 -2.30564 2.41368 21
5 1 -5.77998 -2.38493 1.35928 22
6 1 -3.78687 0.227484 -5.66516 20
7 1 0.994147 2.36886 8.68162 19
8 1 2.00103 -2.02174 -4.65612 18
9 1 -6.99775 0.741137 1.52577 15
10 1 1.33313 0.330104 -10.67 9
11 1 5.96982 -6.42962 -5.84148 11
12 1 4.87033 -2.61021 6.87254 21
13 1 -1.27722 7.63952 -4.70698 15
14 1 -0.858385 4.62304 3.64274 22
15 1 2.28077 5.04152 10.1341 14
16 1 -11.4328 -2.68673 3.15543 10
17 1 -11.4158 -1.80504 0.49024 13
18 1 8.18051 -2.53088 -3.06976 11
19 1 5.13005 0.568733 11.8522 9
20 1 -6.09957 -4.80567 3.21177 23
21 1 -3.83497 -5.26992 -5.25539 15
22 1 4.85798 -0.631906 -3.32452 21
23 1 5.7741 -2.11888 -9.24907 9
24 1 6.91223 -5.31923 6.21887 14
25 1 -6.30186 6.84956 5.03247 14
26 1 2.43394 -0.348184 6.5767 20
27 1 -1.04991 9.03796 4.20501 13
28 1 -1.59225 -4.29396 -7.11784 15
29 1 -1.77953 3.10302 8.03935 22
30 1 4.0362 -5.38254 1.89447 20
31 1 -4.84669 8.18868 2.16237 18
32 1 -6.36546 2.74798 4.0382 22
33 1 3.86849 4.38951 -6.72148 14
34 1 7.9678 5.27807 -1.9459 14
35 1 -3.98985 8.74669 -0.999496 13
36 1 1.36483 -4.35526 0.0694095 22
37 1 -4.95277 5.41614 -8.94151 9
38 1 -3.22922 10.6536 2.03367 10
39 1 -1.31761 7.29542 -1.36389 19
40 1 -10.3853 2.87089 1.5628 13
41 1 1.5079 8.54157 9.29376 9
42 1 -4.15329 1.85956 -8.77084 10
43 1 -5.48996 -6.73018 6.3503 13
44 1 -6.31034 -1.41892 -3.32775 19
45 1 6.93482 -8.42228 -3.07301 12
46 1 -6.18261 -1.03812 3.86999 22
47 1 -7.34937 1.37887 -1.47356 18
48 1 -2.15998 -9.21912 4.12956 10
49 1 6.76826 2.47389 -6.09355 13
50 1 -8.29745 -3.25859 2.68938 18
51 1 -6.03169 -2.82228 -5.42233 19
52 1 3.18979 2.02945 -8.7497 14
53 1 -1.20734 1.35279 5.4984 18
54 1 3.90176 -6.52486 -3.49159 22
55 1 -0.346562 9.9037 0.761409 14
56 1 -10.06 1.9881 4.73372 11
57 1 3.60814 7.96424 5.68726 12
58 1 2.12077 -0.20579 9.77079 16
59 1 1.40777 -10.4457 -2.27044 13
60 1 6.04312 -1.23955 -5.75362 16
61 1 -5.37883 -7.56608 1.18598 18
62 1 -2.5598 -8.85399 1.10794 17
63 1 4.47969 -2.29001 10.0276 13
64 1 4.73024 -4.39385 4.75091 23
65 1 4.93125 8.67812 2.30804 11
66 1 -6.14941 -8.57014 4.08453 11
67 1 -4.50771 -10.3629 -1.30339 13
68 1 -3.96193 -4.7826 1.13911 22
69 1 1.44574 -2.83468 5.22848 22
70 1 -4.84296 -4.19967 -2.05554 23
71 1 1.1584 3.45472 -4.72048 20
72 1 5.24926 -6.61427 -0.429044 20
73 1 -4.89001 -2.6988 6.97979 18
74 1 -10.1942 -0.717895 5.15381 11
75 1 6.36344 -9.82051 0.325127 14
76 1 -3.81295 -3.62255 4.36467 20
77 1 1.02042 3.76593 6.10751 20
78 1 -12.3255 0.59293 2.40051 10
79 1 -6.53231 9.72516 3.70643 10
80 1 -8.94764 7.38198 3.8776 13
81 1 -2.83809 6.06861 6.72613 17
82 1 -8.43065 -3.65697 -3.16421 17
83 1 -7.08665 1.81851 -4.64128 22
84 1 -3.33793 -2.19553 -3.95225 19
85 1 6.38925 0.190723 9.39832 11
86 1 -6.94549 6.56394 1.57225 20
87 1 -0.355638 -6.69054 8.49708 13
88 1 -6.2557 -0.403563 -7.41412 12
89 1 -10.8426 -2.10673 -2.6191 11
90 1 -3.49798 -6.83089 -1.19758 20
91 1 -8.20632 4.4608 6.16177 11
92 1 3.75532 2.70738 7.68366 16
93 1 -4.5369 6.18312 0.29762 22
94 1 1.61373 -8.25783 -4.32046 15
95 1 0.984886 9.48197 6.44925 11
96 1 4.62596 4.34283 -3.73133 21
97 1 -10.4127 1.07984 -3.56735 13
98 1 -7.90576 6.81044 -3.7471 10
99 1 -4.18628 -11.3218 -3.82384 8
100 1 4.08264 -7.473 5.64818 13
101 1 -7.12298 7.33112 -6.66 9
102 1 -4.52911 0.729938 7.84152 16
103 1 -7.60789 1.81087 6.55856 12
104 1 -1.08049 -6.99109 -6.60524 14
105 1 -1.98807 -4.1125 7.4557 19
106 1 1.65751 -5.63561 6.56997 18
107 1 4.43511 -9.46852 -1.44057 14
108 1 5.83441 4.41221 -0.96008 22
109 1 -3.5021 3.14181 1.61082 21
110 1 4.15867 0.0847049 -11.4281 8
111 1 0.0396332 6.83523 5.57308 23
112 1 7.23674 -3.0189 8.77445 12
113 1 -5.79139 -7.58294 -2.15711 19
114 1 -8.40581 -3.36396 5.23511 15
115 1 7.32083 0.864109 3.31826 16
116 1 9.90591 2.94242 -0.815077 12
117 1 0.854925 4.26184 -7.80591 14
118 1 -1.88937 6.70204 -7.78109 11
119 1 2.47525 9.77227 -0.047374 13
120 1 3.95876 1.49943 -5.08957 22
121 1 0.418268 -8.27243 3.07404 16
122 1 5.95608 8.45789 -0.258074 10
123 1 6.68171 -7.59599 3.48926 15
124 1 0.284343 -8.98274 0.34838 17
125 1 -8.50912 4.03622 -5.17564 12
126 1 4.41037 2.17567 4.45277 22
127 1 10.7951 -0.16865 -1.55638 10
128 1 -1.84407 4.81364 -5.76149 20
129 1 -5.84004 9.10083 -3.90603 9
130 1 2.79438 -7.27776 -6.73478 12
131 1 2.54173 -7.30233 -0.866634 23
132 1 -7.20177 -4.57198 7.85079 11
133 1 -1.9467 -11.5494 -1.25265 12
134 1 1.21222 -5.39211 -8.93856 12
135 1 1.31577 6.36603 0.611073 19
136 1 2.5959 -10.6454 0.540908 11
137 1 3.99755 -3.88504 -4.87993 20
138 1 -7.00429 -4.66608 -0.284825 23
139 1 -6.97311 -6.06627 -4.49364 14
140 1 -0.965302 0.687446 10.3924 16
141 1 -3.71911 1.15782 10.8559 9
142 1 2.7735 -2.94238 -10.2738 11
143 1 -9.46013 3.78187 -1.28105 13
144 1 5.97752 6.77283 -4.05178 8
145 1 8.48559 -0.19563 -4.31985 13
146 1 -0.900152 0.916424 -7.8219 16
147 1 -8.58063 4.60138 3.29915 16
148 1 -0.401737 -1.0198 7.53636 20
149 1 4.41797 0.805345 1.7548 24
150 1 -9.24074 1.76842 -6.90281 10
151 1 7.33619 -4.76504 2.94393 17
152 1 -1.07982 -6.26484 1.58123 23
153 1 6.66117 3.19802 7.24049 9
154 1 0.858971 -8.64981 6.3777 13
155 1 3.73983 -0.759713 4.37197 19
156 1 5.38449 -1.21018 -0.639902 21
157 1 9.06607 4.16535 1.6565 12
158 1 4.14773 -3.78626 -1.663 22
159 1 8.65906 4.64069 4.30141 9
160 1 -4.16392 -8.25813 -5.43107 13
161 1 5.39401 4.15269 11.9884 5
162 1 -4.51232 3.50349 -4.57262 17
163 1 -4.5062 6.88433 -6.16814 17
164 1 -2.98574 -0.76403 5.45874 19
165 1 -0.416649 -6.90336 -2.02548 20
166 1 -7.12251 -9.53502 -3.6886 11
167 1 3.83182 6.26577 1.10648 22
168 1 -3.62603 3.34883 5.43147 18
169 1 -9.7265 6.07691 0.434471 13
170 1 6.69745 2.16407 -2.80163 22
171 1 2.33187 2.24116 11.8651 11
172 1 -6.40072 3.61207 0.650847 19
173 1 -0.867468 -1.401 -5.92312 18
174 1 -0.166643 5.5671 8.8617 20
175 1 1.45273 -4.69998 -2.83094 21
176 1 1.89472 8.18632 2.81485 20
177 1 1.47536 -5.05006 3.52222 20
178 1 -3.89208 5.62381 3.9122 18
179 1 4.26981 -4.87879 -8.13793 13
180 1 4.42879 -5.45056 8.00998 14
181 1 1.66584 0.842057 -6.4599 18
182 1 -5.21522 3.82935 8.40821 12
183 1 7.7638 -2.3701 4.9603 18
184 1 0.595316 9.15814 -2.85815 10
185 1 9.78925 2.57999 -3.76716 11
186 1 -2.90476 -1.66369 8.87593 15
187 1 -3.81382 -5.49025 9.18284 10
188 1 -7.18305 8.65626 -0.777458 13
189 1 5.34405 4.79039 5.51653 15
190 1 -8.69313 -6.77095 5.12022 11
191 1 8.75045 -1.78692 1.2981 16
192 1 -7.95182 -6.39109 1.73047 14
193 1 5.95891 3.67885 2.50616 22
194 1 7.81373 -6.98351 0.439025 13
195 1 2.96256 5.05712 4.09185 20
196 1 -7.68936 -1.78125 -0.773292 22
197 1 -3.65243 6.24901 -2.97065 19
198 1 1.96052 6.30634 -4.33602 15
199 1 -8.97295 -1.046 -5.42489 14
200 1 0.823159 -1.79243 -8.18627 13
201 1 -1.57579 -8.92008 -3.73092 15
202 1 -0.999481 -5.46273 5.0914 21
203 1 6.82838 -4.04221 -0.238277 19
204 1 -10.3849 0.75958 -0.517384 16
205 1 -2.31853 4.0082 -8.81782 11
206 1 -8.87407 -6.59248 -1.87646 13
207 1 6.33305 -0.3372 6.58759 16
208 1 -4.59612 -3.29269 -8.19892 9
209 1 -9.51201 9.00212 1.55498 9
210 1 -7.71112 -1.00677 7.38078 12
211 1 -1.49834 -4.10721 -3.83347 18
212 1 7.00463 6.11175 1.47324 14
213 1 10.0855 0.744379 1.44039 10
214 1 -2.23956 -7.88472 7.07156 13
215 1 4.99217 0.177599 -8.02031 14
216 1 -0.851705 4.50292 -2.73351 22
217 1 2.64712 6.3614 7.58687 15
218 1 3.61237 7.56921 -2.09156 19
219 1 7.4828 1.69292 0.411119 21
220 1 -4.06574 0.841855 3.73992 20
221 1 6.76246 -5.54564 -2.76331 17
222 1 1.09097 -5.03117 -5.83097 21
223 1 -1.49824 8.77094 7.98194 11
224 1 -1.48866 7.23971 2.03949 24
225 1 -3.35876 -6.62823 3.87611 22
226 1 3.62464 -8.49739 2.28855 15
227 1 -10.0852 -4.40287 0.027705 16
228 1 -6.5445 4.90195 -2.18036 21
229 2 -11.257 0.493052 4.24351 10
230 2 10.0027 4.64362 3.20455 7
231 2 -0.956676 -0.660327 5.4711 20
232 2 -3.60438 1.81738 -4.19475 19
233 2 -9.59353 1.90191 -1.77685 15
234 2 -2.04047 -7.31911 5.07816 19
235 2 0.583665 2.51755 10.908 16
236 2 4.43017 -1.11461 2.47246 19
237 2 -4.5177 6.4838 5.71488 13
238 2 -4.47207 3.58609 3.75024 19
239 2 6.75027 -6.91604 -4.41444 10
240 2 -4.71483 0.759863 -7.23545 15
241 2 -0.43191 -5.75542 -8.00726 12
242 2 -2.95005 -6.41186 0.721008 22
243 2 -6.38242 7.55526 3.1777 18
244 2 8.03679 -2.72502 3.1372 14
245 2 7.34494 4.70431 2.82458 15
246 2 0.0690186 9.41204 8.60307 9
247 2 4.52867 4.06785 3.81996 19
248 2 0.564835 7.78259 -4.07456 13
249 2 5.11496 -0.447812 -9.84597 12
250 2 -9.21551 1.8464 -4.91391 12
251 2 -0.354866 -8.38265 7.85958 9
252 2 -6.93293 -1.08219 2.16553 18
253 2 4.07686 -7.18993 -5.30247 16
254 2 -2.7152 -10.3773 -0.0711688 11
255 2 4.16428 -1.84816 -4.83851 19
256 2 1.38967 6.77957 9.8209 12
257 2 2.60576 -2.15208 9.73072 14
258 2 -4.96091 -5.95746 4.40589 19
259 2 1.40349 -2.06815 6.98711 22
260 2 -0.984973 -8.45133 1.7388 15
261 2 -1.86551 0.610224 -6.0392 18
262 2 1.91538 -6.5503 -2.8396 20
263 2 -7.08426 -7.69183 5.84333 9
264 2 -4.83446 -8.51457 -0.695453 17
265 2 -7.63695 -7.96521 -2.43895 11
266 2 -4.75589 9.9634 2.80268 9
267 2 1.18259 -1.19064 -6.26345 18
268 2 9.20831 3.92853 -2.63811 11
269 2 2.67612 3.69007 -8.09129 12
270 2 -4.5064 4.59398 -2.40379 17
271 2 8.28989 5.29936 0.102818 16
272 2 1.25846 9.09172 1.31255 17
273 2 -8.03434 5.89496 4.88636 14
274 2 -0.736842 6.45457 3.66708 20
275 2 -3.66502 9.9136 0.449755 15
276 2 2.2792 9.06011 -1.74441 13
277 2 -1.18211 4.20952 9.49302 14
278 2 -3.22011 1.33161 5.39533 19
279 2 0.352793 0.429059 8.79637 19
280 2 2.53294 -1.22728 -10.9691 11
281 2 0.289784 -9.52928 -3.79393 11
282 2 -0.803795 -5.03863 -5.32355 19
283 2 -8.75538 -5.89087 0.147769 15
284 2 7.51304 -5.43404 1.14906 17
285 2 0.548083 5.48981 6.87593 21
286 2 -4.84026 -1.31071 -4.84341 19
287 2 0.586595 0.179696 -8.84095 15
288 2 1.02226 4.86683 -3.01749 21
289 2 -2.84639 -7.02249 -5.8678 15
290 2 2.49406 -5.57225 -7.45831 16
291 2 6.41419 -1.58341 -7.55503 11
292 2 -8.22498 -5.38843 3.35481 18
293 2 -1.10721 -2.3747 -7.51902 14
294 2 2.15955 4.95584 -5.72506 15
295 2 -3.42513 -9.47504 -4.06184 15
296 2 0.389676 2.47334 -6.88856 19
297 2 -1.63235 6.78901 7.97084 14
298 2 -6.78149 -7.8641 2.6133 13
299 2 -4.19538 -1.18334 4.00343 19
300 2 -7.54819 4.82491 1.62601 22
301 2 -8.13101 -5.55459 6.50044 11
302 2 -4.75274 -3.60074 2.4225 21
303 2 -10.9051 -1.07689 -1.13681 13
304 2 4.97095 -5.81853 6.09725 16
305 2 5.17555 0.610598 -0.0961851 22
306 2 2.06573 -3.99616 -4.45085 21
307 2 2.15689 6.07458 2.52342 23
308 2 3.83294 8.47726 3.81471 12
309 2 -2.57141 -0.374064 10.2458 11
310 2 -8.05681 3.0935 4.70996 14
311 2 2.86946 0.956991 4.83086 19
312 2 -7.7782 -2.26626 -4.47282 17
313 2 1.36298 -3.45521 -9.10671 13
314 2 9.57571 2.55363 1.0883 15
315 2 -12.5381 -1.37471 2.01996 10
316 2 -5.8734 8.03913 -5.29678 11
317 2 3.66027 1.05611 -7.0748 18
318 2 -10.053 4.2453 0.474356 14
319 2 2.78489 -4.59538 5.03848 21
320 2 2.91909 6.39921 -0.677456 21
321 2 6.63883 -9.61222 -1.6146 11
322 2 0.0239295 -10.3843 -0.920408 16
323 2 -8.25979 9.22701 3.05985 12
324 2 2.27437 -4.22445 1.93151 20
325 2 1.74824 -9.38929 1.8021 14
326 2 2.66344 4.30883 8.17851 15
327 2 -1.56033 10.123 2.5833 14
328 2 -3.51601 -3.67691 8.88206 11
329 2 -2.56085 -4.6859 3.14381 21
330 2 -3.02325 -3.10705 6.0686 16
331 2 -0.980127 5.05706 -7.44823 14
332 2 6.78028 -1.27082 -4.04193 15
333 2 3.16821 0.575841 11.1669 13
334 2 -6.61896 -2.86292 -1.73799 21
335 2 5.50817 7.21579 1.25248 15
336 2 3.57525 6.16731 5.68534 17
337 2 4.82702 -4.66746 -3.12178 21
338 2 -10.8991 -3.50351 1.5639 11
339 2 2.16497 8.18467 7.3101 14
340 2 -6.71992 0.743925 -3.10576 21
341 2 5.35865 -0.848961 10.4992 11
342 2 2.88147 1.47604 -10.5378 9
343 2 6.21292 -2.41646 0.461088 18
344 2 2.62432 1.07572 7.8411 18
345 2 5.26389 -4.22076 2.85623 22
346 2 -5.57824 2.14399 1.45997 18
347 2 -10.4351 -0.777327 -4.05159 11
348 2 -7.26469 8.25648 -2.68607 11
349 2 -5.83002 6.34155 -7.61566 13
350 2 -7.8833 -3.2917 0.860563 19
351 2 -2.30713 -6.43968 8.52157 12
352 2 4.21851 9.62467 0.720895 12
353 2 -5.69272 -4.84602 -4.83602 20
354 2 6.93596 -0.305314 4.66277 15
355 2 -8.6208 7.8539 0.249114 13
356 2 7.2278 -6.05107 4.42961 14
357 2 -5.56309 -5.65787 7.88904 11
358 2 -5.61601 -5.79323 -1.31954 21
359 2 -1.6721 6.2959 -3.19782 18
360 2 -9.7302 6.90969 2.29584 12
361 2 5.15655 4.49319 0.750553 23
362 2 -0.225692 -5.17974 7.01334 20
363 2 -9.99963 3.15736 3.40545 14
364 2 -3.24627 6.80296 -1.04032 20
365 2 -2.07351 2.23373 11.2863 9
366 2 -6.52111 3.59857 -5.13907 21
367 2 5.784 7.80241 -2.04209 11
368 2 -3.33305 4.15074 7.59813 14
369 2 -0.232649 2.61438 7.22449 20
370 2 -5.73276 -2.0949 -7.26733 11
371 2 -2.45104 7.10342 -6.14206 12
372 2 -2.06025 -7.79192 -2.13619 18
373 2 -3.82172 5.16842 -5.07061 18
374 2 4.45035 -0.763056 6.06311 21
375 2 1.28116 3.96825 4.28344 19
376 2 7.36413 3.01479 -1.1571 20
377 2 2.23691 -7.52724 6.38286 15
378 2 5.09679 1.19231 -3.12647 23
379 2 4.90826 3.03676 6.25544 17
380 2 -7.31908 3.37062 -1.05678 18
381 2 -4.58327 1.93373 9.24414 12
382 2 -8.38061 -5.43128 -3.29079 15
383 2 -0.0320491 -6.33341 3.44258 23
384 2 -3.36125 6.81854 2.54447 23
385 2 -9.02091 0.517166 5.90037 14
386 2 -9.83523 -2.46494 4.22112 13
387 2 -3.35294 -11.9242 -2.26029 8
388 2 3.43869 4.14537 11.487 9
389 2 -0.968639 3.50517 -4.54658 18
390 2 -3.08425 6.04533 -9.21905 9
391 2 5.04902 3.44189 -5.46208 17
392 2 0.852483 -7.50157 -5.96201 13
393 2 6.12013 -3.20913 5.54984 20
394 2 5.41943 2.29242 11.977 7
395 2 -0.396207 9.13168 -1.06842 15
396 2 -8.15023 3.26606 -7.21911 10
397 2 -3.42423 -4.44514 -7.12635 14
398 2 -3.53736 -4.13852 -3.5556 20
399 2 -1.34977 9.02795 5.97552 11
400 2 -4.40191 8.57931 -2.75804 14
401 2 -7.83267 5.97489 -5.55132 12
402 2 -7.05599 3.6236 7.55637 10
403 2 2.105 1.82636 -4.51193 22
404 2 4.38414 -3.3203 -9.30484 11
405 2 -8.50094 5.11488 -2.58224 12
406 2 -2.2871 2.06209 -8.5994 12
407 2 0.65412 -7.17229 -0.232666 22
408 2 7.38642 -4.42285 7.68477 11
409 2 -6.42264 0.538345 7.26458 15
410 2 -0.766429 -4.86434 -2.05923 20
411 2 -7.1345 -2.5111 4.31404 19
412 2 5.08575 -3.52227 8.60136 15
413 2 -11.4252 1.37043 0.963832 12
414 2 -3.91747 -1.01369 7.36026 18
415 2 -0.211242 -9.21806 4.72613 12
416 2 8.27007 0.126757 1.89615 14
417 2 3.04605 -10.5875 -1.4558 13
418 2 -5.8285 7.73543 0.324887 18
419 2 -8.03501 0.284181 -6.75802 13
420 2 -7.0485 -2.82145 7.07946 10
421 2 2.41612 -4.78214 8.0121 15
422 2 4.18823 3.77122 -1.98792 21
423 2 6.17378 0.832176 -6.31541 15
424 2 7.55703 4.25987 5.97386 9
425 2 -4.53536 4.30833 0.460009 20
426 2 6.87318 -1.16891 8.22337 13
427 2 4.39254 -7.41134 -1.88759 19
428 2 -6.15317 -5.64475 1.2033 21
429 2 5.184 -4.81154 -6.32293 15
430 2 6.89992 -8.38717 1.54377 13
431 2 7.8498 -3.8648 -1.90521 14
432 2 4.98035 -4.77393 -0.142486 23
433 2 -2.24256 4.71248 5.03529 21
434 2 7.92979 1.95892 -4.41078 14
435 2 -9.93079 -3.45236 -1.61346 15
436 2 5.61805 1.93478 2.88307 19
437 2 -8.11309 0.107489 -0.249824 17
438 2 4.80333 -7.94313 3.806 13
439 2 4.03279 6.60689 -3.94593 15
440 2 10.3914 -0.922856 0.553498 9
441 2 6.32796 4.98351 -3.00676 16
442 2 -0.0257602 -3.72684 4.38468 21
443 2 3.69349 -7.06214 0.904491 20
444 2 9.30563 -1.04408 -2.50073 10
445 2 4.44852 -10.1243 0.69653 13
446 2 -5.95352 -7.76533 -4.31577 14
447 2 -0.699804 6.46105 0.473831 20
448 2 0.825152 8.63922 4.5548 15
449 2 -3.36396 -8.46269 2.86865 17
450 2 -1.03562 -2.66228 8.35362 17
451 2 -6.12878 0.966387 3.72486 19
452 2 6.3711 1.40139 7.89151 11
453 2 10.439 1.65361 -2.16266 13
454 2 -4.73397 3.64015 -8.70958 10
455 2 -5.68795 -10.4912 -2.92674 10
456 2 6.95024 -7.07404 -1.44681 16
457 1 -0.701126 -1.04389 -2.36094 21
458 1 -3.53222 -1.86735 -0.938531 21
459 1 -1.67167 -4.03982 -0.617581 22
460 2 -1.26856 -2.05783 -4.04461 24
461 2 -4.29267 -1.03611 -2.47855 20
462 2 -3.67998 -3.6486 -0.399742 21
463 2 -1.36583 -1.88519 -0.688056 22
464 1 -0.247243 -1.08498 0.689259 21
465 1 -3.02256 -1.07577 2.19575 23
466 1 -1.0285 -3.65389 2.6391 23
467 1 0.17305 -0.762914 3.58599 22
468 2 -4.43027 -0.963142 0.770242 22
469 2 -0.450242 -4.43079 0.875325 21
470 2 -1.23228 -1.61133 2.35011 22
471 1 -1.67201 1.67779 -4.41041 20
472 1 -4.68875 0.974652 -2.77278 20
473 1 -3.71584 3.48557 -1.19357 20
474 1 -1.42479 1.50236 -1.03825 22
475 2 -0.753557 0.955788 -2.75247 19
476 2 -3.48301 1.54675 -1.13447 21
477 2 -1.64202 3.58339 -1.12306 21
478 1 -4.23539 0.903395 0.469703 21
479 1 -0.683619 4.33196 0.465545 21
480 1 -1.13228 1.60111 2.14068 20
481 2 -0.246224 0.938237 0.510858 24
482 2 -2.94052 1.03865 2.19923 21
483 2 -1.54615 3.59977 2.11131 22
484 2 0.0264107 1.2665 3.66908 19
485 1 2.21298 -1.53303 -1.39137 22
486 2 1.24875 -1.09498 -3.13348 19
487 2 2.33696 -3.84258 -1.42438 20
488 2 4.0717 -1.78573 -1.86301 20
489 1 2.58527 -2.16251 1.99321 24
490 2 1.72174 -1.33034 0.439622 22
491 2 1.92538 -1.38878 3.89687 21
492 1 1.17551 0.845948 -3.04792 20
493 1 2.51126 4.73907 -1.70152 18
494 1 3.96624 1.75923 -1.4683 23
495 2 2.32262 0.791347 -1.54265 22
496 1 1.73222 0.819277 0.397703 19
497 1 2.88066 3.88351 1.37968 21
498 1 1.76344 2.00082 3.54384 21
499 2 1.59315 4.47252 0.176049 18
500 2 2.67152 2.00367 1.50841 20
