ITEM: TIMESTEP
69000
ITEM: NUMBER OF ATOMS
500
ITEM: BOX BOUNDS pp pp pp
-30.0 30.0
-30.0 30.0
-30.0 30.0
ITEM: ATOMS id type x y z Coordination
1 1 -7.82304 -29.9025 -14.1014 11
2 1 -14.2012 -24.2932 -12.8918 15
3 1 -17.998 -26.9073 28.4154 18
4 1 -24.6358 -25.2092 -24.1894 17
5 1 -13.7612 -25.6631 27.9254 13
6 1 -11.3036 23.8925 -28.8394 10
7 1 -11.6293 -26.9173 -13.0513 18
8 1 -14.2224 -21.0791 -14.3509 15
9 1 -25.4864 -28.8744 -19.609 11
10 1 -9.95795 -29.7797 -23.3277 16
11 1 -11.5529 -29.4061 -14.498 23
12 1 -19.4615 20.8698 -18.8394 8
13 1 -17.6614 29.2225 29.8437 12
14 1 -9.45947 24.2741 -26.7912 10
15 1 -10.7074 24.4859 -16.9609 13
16 1 -19.3443 -17.8535 -16.8673 14
17 1 -12.3453 -15.2076 -21.128 10
18 1 -15.5894 -28.3548 26.7864 10
19 1 -16.7472 -22.5342 -14.0966 17
20 1 -20.4998 -18.9973 -19.5905 17
21 1 -15.1685 -19.3151 -28.0144 14
22 1 -9.19629 -21.2728 -18.4349 16
23 1 -18.7355 -20.067 -28.1655 13
24 1 -22.0777 -22.0669 -27.53 14
25 1 -16.8548 -19.153 -25.8078 16
26 1 -24.8236 -25.707 -21.4837 17
27 1 -16.6131 -16.4802 -17.475 12
28 1 -22.669 -24.2694 29.8572 12
29 1 -20.0258 25.8611 -16.3952 16
30 1 -11.4954 22.2688 -25.598 13
31 1 -22.7386 27.8738 -27.7006 11
32 1 -15.6714 24.8432 -19.3271 22
33 1 -10.7788 -22.9412 -28.1759 16
34 1 -19.5031 25.4527 -27.2074 20
35 1 -14.3492 -21.9776 27.2873 10
36 1 -14.0598 -17.3035 -22.7078 16
37 1 -24.7507 -25.5693 -18.5494 16
38 1 -14.0095 -18.182 -16.221 14
39 1 -14.8079 -29.6204 -12.6582 18
40 1 -14.2221 22.8047 -27.6918 13
41 1 -8.18982 29.8187 -29.7223 7
42 1 -12.263 -29.3821 -10.7802 11
43 1 -12.0576 25.4021 -14.5545 12
44 1 -8.27427 -18.0677 -23.3959 12
45 1 -19.9292 25.0683 -19.6264 18
46 1 -17.4877 22.6108 -20.602 16
47 1 -20.1374 -29.0054 -12.6898 16
48 1 -22.4865 -27.7674 -13.9605 14
49 1 -15.2905 21.9818 -21.6537 14
50 1 -25.2449 -27.8876 -16.2754 13
51 1 -19.5385 -16.1126 -20.2726 9
52 1 -22.5291 -25.2143 -16.0098 22
53 1 -19.8106 -20.4311 -14.6201 15
54 1 -24.4597 -29.0663 -26.6239 11
55 1 -24.7414 -22.664 -25.8715 10
56 1 -19.1912 -29.5171 27.6157 8
57 1 -9.28456 -27.4952 -11.7618 11
58 1 -17.4378 28.4417 -13.0268 12
59 1 -21.0119 25.9342 -29.4501 9
60 1 -25.6931 -28.6451 -22.9987 13
61 1 -20.7128 28.2844 -18.2751 23
62 1 -22.2386 -22.399 -14.6692 14
63 1 -14.5825 22.1036 -24.6219 15
64 1 -15.9618 -16.2895 -20.8215 12
65 1 -20.2322 -28.0707 29.9319 18
66 1 -24.5487 -22.43 -22.4375 14
67 1 -19.627 23.1826 -28.9994 12
68 1 -14.1207 23.5535 -15.445 10
69 1 -21.4989 -22.1295 -24.4748 20
70 1 -23.4149 29.782 -14.5291 11
71 1 -25.0944 -24.1431 -16.2837 11
72 1 -19.8989 29.1088 -28.4844 14
73 1 -14.8751 27.5006 -14.6893 17
74 1 -15.7882 25.1588 -26.3412 21
75 1 -12.4172 -28.5307 28.2196 11
76 1 -9.40301 27.2511 -15.027 13
77 1 -20.5126 22.6603 -25.5727 16
78 1 -22.7939 26.5049 -15.7539 12
79 1 -8.33075 -24.6992 -13.4199 11
80 1 -7.94382 -20.9384 -24.7733 14
81 1 -14.0721 -23.4036 -29.8835 21
82 1 -17.1287 -21.6833 28.8353 16
83 1 -11.4367 -19.8638 -22.7469 21
84 1 -11.1374 -21.9283 29.356 13
85 1 -12.2963 23.4503 -18.9671 13
86 1 -12.5084 25.5373 -24.4673 19
87 1 -17.5655 23.4398 -24.3413 18
88 1 -25.1947 -25.6125 -27.6081 10
89 1 -8.91954 -24.0541 -19.6456 16
90 1 -19.6723 -20.3787 -24.6004 15
91 1 -13.4562 26.0607 -28.4802 15
92 1 -20.46 28.7484 -14.5767 16
93 1 -17.6161 22.5256 -27.1314 14
94 1 -17.1163 25.3485 -28.7159 14
95 1 -13.3493 25.5643 -21.0385 19
96 1 -22.1492 26.1407 -25.2777 14
97 1 -17.2697 -28.5206 -10.9659 13
98 1 -17.2556 -25.518 -12.7276 19
99 1 -9.19587 24.2599 -23.3637 11
100 1 -10.4279 -19.4154 -25.5188 16
101 1 -9.70369 -29.6655 -27.1063 17
102 1 -16.2623 -24.7329 26.9471 12
103 1 -25.3231 -22.6924 -19.6155 12
104 1 -12.5945 27.9493 -12.6428 13
105 1 -23.0771 -27.1908 -28.7028 14
106 1 -10.1331 27.1187 -18.1245 14
107 1 -11.5127 -23.3529 -14.54 18
108 1 -16.0784 21.9734 -18.014 13
109 1 -9.35856 -27.1651 -15.241 19
110 1 -8.9396 -24.0393 -16.5486 16
111 1 -8.80959 -22.1253 -14.3865 9
112 1 -19.7003 -24.0758 28.4465 14
113 1 -20.7646 25.4593 -23.0226 22
114 1 -18.6805 -20.4632 -17.7796 19
115 1 -8.90421 -20.9975 -27.9322 9
116 1 -14.6622 -27.0976 -11.6792 16
117 1 -11.3875 28.9662 -29.5758 13
118 1 -9.52071 -15.7723 -21.1501 10
119 1 -9.78546 27.2891 -28.0921 15
120 1 -9.66184 28.9588 -11.9699 11
121 1 -19.7132 -23.197 -12.659 14
122 1 -9.34091 -27.1503 -18.4854 16
123 1 -13.2785 -17.688 -25.8593 13
124 1 -8.92617 -27.0146 -27.9739 11
125 1 -20.126 -26.3794 -11.2445 14
126 1 -16.6945 24.9735 -16.0743 16
127 1 -22.429 -19.5961 -16.8863 13
128 1 -11.4401 -19.7799 -19.3569 16
129 1 -22.0379 23.3898 -18.0433 14
130 1 -9.55534 29.9009 -20.0067 15
131 1 -20.5285 21.9814 -22.3608 13
132 1 -8.53188 -20.9769 -21.8687 15
133 1 -9.4977 23.8185 -20.4609 9
134 1 -11.1676 -16.3995 -17.7869 9
135 1 -23.8343 26.5173 -22.6384 11
136 1 -13.8824 -19.7713 28.8338 9
137 1 -21.3964 -26.7492 28.0608 10
138 1 -12.2423 -28.3256 -28.5385 21
139 1 -22.7193 23.9084 -27.4602 11
140 1 -10.2403 26.9274 -21.5354 16
141 1 -23.5382 26.2562 -18.8621 15
142 1 -20.938 -21.3103 29.6903 10
143 1 -23.0466 23.3883 -23.5872 12
144 1 -8.94175 29.9006 -17.0645 15
145 1 -15.3461 -28.6803 30.0239 19
146 1 -22.6191 -22.9688 -17.9397 19
147 1 -22.7577 -24.8135 -12.9236 12
148 1 -8.99178 -18.3481 -19.7342 12
149 1 -8.50916 -24.1022 -22.9925 15
150 1 -13.4292 25.4296 -17.4634 22
151 1 -10.962 -25.6928 29.8465 14
152 1 -12.5747 -20.7111 -28.2586 20
153 1 -11.5712 -20.8397 -16.2028 17
154 1 -10.844 -16.9233 -24.1537 14
155 1 -8.44991 -24.029 -26.0847 14
156 1 -9.97118 26.9795 -24.8867 14
157 1 -16.9188 -19.6741 -15.9179 19
158 1 -18.1175 -17.3675 -22.6968 13
159 1 -19.05 22.8883 -16.9039 12
160 1 -12.2214 22.7662 -22.4572 16
161 1 -23.1893 24.0699 -20.7393 12
162 1 -21.4016 -18.6899 -22.499 12
163 2 -23.7125 -24.2949 -14.7931 13
164 2 -7.73491 -23.6525 -15.0 10
165 2 -22.3898 -27.9875 -26.9381 18
166 2 -18.4458 24.7913 -17.0892 16
167 2 -19.12 -28.08 -11.267 13
168 2 -18.9807 -19.616 -15.991 16
169 2 -9.81757 25.3005 -28.3254 11
170 2 -20.2259 -24.6339 -26.4405 19
171 2 -15.7409 29.5141 -29.822 13
172 2 -16.1549 -20.4357 -17.9659 20
173 2 -10.0605 27.9009 -19.9067 13
174 2 -8.30217 -20.3351 -19.9132 13
175 2 -15.8248 -18.0259 -16.5242 15
176 2 -10.5278 -18.0797 -18.6443 14
177 2 -12.3202 -19.2613 -26.2157 18
178 2 -11.555 -29.5798 29.3245 14
179 2 -23.5937 -25.3567 -28.8015 11
180 2 -14.4963 25.3211 -14.8098 13
181 2 -25.3264 -27.0325 -19.7716 17
182 2 -13.2593 24.1561 -28.6707 10
183 2 -19.4798 22.3789 -24.0026 14
184 2 -16.1603 -20.7062 -14.2925 14
185 2 -14.3387 28.4214 -12.935 15
186 2 -19.9531 26.5482 -18.2853 21
187 2 -15.5408 22.7736 -19.8142 17
188 2 -19.2623 21.9369 -20.885 12
189 2 -16.3923 22.8864 -22.8954 16
190 2 -22.4147 23.5486 -25.452 14
191 2 -18.5462 -16.3702 -17.6828 11
192 2 -9.00997 -20.4357 -26.2821 14
193 2 -12.9014 -21.3413 28.7958 12
194 2 -8.55833 -22.9895 -18.2168 15
195 2 -10.8022 -15.7734 -19.7753 10
196 2 -20.9682 -18.8013 -17.6712 13
197 2 -13.7835 -16.5487 -20.9618 13
198 2 -15.0496 -18.467 -26.18 16
199 2 -18.9033 -22.4127 -14.4169 19
200 2 -16.7564 -26.7986 -11.4163 16
201 2 -9.42256 25.136 -25.0554 13
202 2 -15.9195 23.6236 -28.194 13
203 2 -22.5076 22.6904 -21.913 11
204 2 -10.3624 24.0598 -18.7991 12
205 2 -10.4372 -21.9803 -15.2354 15
206 2 -15.6495 -26.4177 26.8312 13
207 2 -12.2644 27.4075 -28.691 15
208 2 -19.3678 -29.8724 29.8327 15
209 2 -15.5423 26.3374 -28.2651 16
210 2 -8.71406 -28.9001 -28.5087 13
211 2 -14.2742 -28.8171 28.4158 13
212 2 -19.5854 22.8542 -27.1951 15
213 2 -16.1077 -22.7996 -29.7872 20
214 2 -20.6649 21.988 -17.7038 9
215 2 -21.9459 -19.8981 -20.8382 16
216 2 -21.73 24.3797 -19.6624 15
217 2 -24.5253 -28.979 -24.5728 14
218 2 -9.52043 28.6433 -13.9917 14
219 2 -13.0006 -16.8377 -17.0971 11
220 2 -19.0514 -28.0505 -14.2091 23
221 2 -24.6712 -23.5245 -18.023 15
222 2 -22.0051 25.6568 -27.3275 14
223 2 -8.25702 -22.8353 -24.2811 14
224 2 -24.8247 -29.4467 -18.0152 14
225 2 -20.0209 -21.3867 -27.5673 14
226 2 -12.213 -26.6217 28.5818 13
227 2 -22.4528 -22.9142 -22.815 20
228 2 -9.53674 25.173 -21.7849 14
229 2 -16.2221 23.0453 -25.7932 15
230 2 -24.367 -21.2963 -20.8441 12
231 2 -13.5171 24.7646 -19.332 18
232 2 -13.4317 -20.4765 -16.1208 18
233 2 -16.1088 -17.5416 -22.5703 17
234 2 -16.925 27.6802 -14.7205 18
235 2 -19.3165 -21.7831 28.8335 10
236 2 -13.8006 -28.6398 -11.1654 13
237 2 -7.82084 -19.9291 -23.2941 12
238 2 -11.0844 -21.123 -18.1517 19
239 2 -23.1146 25.0407 -17.1821 12
240 2 -13.5305 -22.9583 -14.15 17
241 2 -8.62025 -29.1926 -12.4734 11
242 2 -14.4273 -23.7359 27.3051 12
243 2 -13.6023 -26.2844 -13.0041 16
244 2 -12.2157 26.8719 -17.7928 23
245 2 -21.2123 27.7008 -28.8568 11
246 2 -18.4963 -19.3629 -23.1437 17
247 2 -24.3699 -24.7103 -26.138 14
248 2 -19.7172 29.1105 -16.4769 21
249 2 -8.6374 -17.4299 -21.4158 13
250 2 -19.7217 -27.7545 28.1194 13
251 2 -9.3753 -25.8543 -20.1594 16
252 2 -21.2617 -20.3542 -23.3657 14
253 2 -9.91533 25.6703 -15.513 11
254 2 -20.8858 26.9579 -15.0129 13
255 2 -19.9487 26.3128 -24.8035 21
256 2 -12.9353 -16.8432 -24.1915 14
257 2 -23.2261 -21.0267 -17.9961 14
258 2 -11.9232 27.3942 -14.4128 18
259 2 -25.3025 -24.1027 -20.8199 14
260 2 -16.1228 -23.8947 -12.9207 17
261 2 -19.0796 -24.6942 -29.9689 21
262 2 -10.0679 -18.6032 -23.6491 17
263 2 -21.6847 -20.3337 -15.2513 13
264 2 -21.4934 -24.9031 28.3553 12
265 2 -17.7702 25.2099 -26.4727 18
266 2 -11.3131 -27.3688 -14.9813 17
267 2 -8.96325 -25.9164 -26.3613 16
268 2 -12.4252 24.3718 -16.0929 14
269 2 -19.1442 -25.1132 -12.6474 17
270 2 -24.346 29.0843 -27.373 8
271 2 -23.9039 -28.7004 -15.3003 12
272 2 -21.6725 -29.4065 -13.8691 15
273 2 -22.3087 27.9647 -24.6903 16
274 2 -16.7445 -20.1902 -28.0009 15
275 2 -11.3289 -23.8235 29.9622 15
276 2 -9.52026 28.7295 -29.3406 11
277 2 -9.05439 -26.4638 -13.3409 13
278 2 -9.9435 -23.4864 -13.351 10
279 2 -13.9148 -19.5125 -29.2892 15
280 2 -17.5681 -28.6525 27.4064 12
281 2 -17.8913 -16.0352 -21.1055 11
282 2 -18.6965 -19.2822 -26.2547 12
283 2 -25.0299 -23.2364 -24.0265 13
284 2 -21.6212 -23.2328 -13.0647 15
285 2 -10.6256 22.92 -27.1818 9
286 2 -22.6846 -22.6686 -25.9774 16
287 2 -17.6861 -24.4487 27.9793 13
288 2 -10.9776 -28.0342 -11.4141 12
289 2 -25.4252 -25.9222 -16.6641 10
290 2 -22.8566 28.2321 -18.368 15
291 2 -9.84407 28.4517 -16.6807 16
292 2 -24.9846 -26.7611 -23.0379 15
293 2 -21.8013 -26.2813 -12.3448 14
294 2 -15.5269 25.7996 -17.5355 22
295 2 -8.57057 -29.1803 -15.4763 14
296 2 -13.7452 21.7769 -22.7427 11
297 2 -18.5968 -19.1361 -19.2801 22
298 2 -21.9819 -27.3339 29.8087 14
299 2 -19.1419 29.3824 -13.226 15
300 2 -11.5493 29.2267 -11.9056 12
301 2 -15.4017 -20.6362 28.1164 8
302 2 -9.16971 -25.9206 -16.8234 15
303 2 -9.02029 -28.9358 -18.4281 15
304 2 -10.1005 28.023 -26.5456 16
305 2 -10.8113 23.1305 -23.8077 14
306 2 -8.87638 -22.8077 -27.4892 13
307 2 -23.9167 25.704 -20.6589 13
308 2 -24.9128 -27.5226 -27.7146 11
309 2 -11.7308 23.2619 -20.8634 13
310 2 -11.5056 -20.799 -24.5926 19
311 2 -9.28072 -26.2463 -23.2378 16
312 2 -10.7287 -20.9764 -28.7453 13
313 2 -10.1243 28.1948 -23.155 16
314 2 -13.3373 22.6264 -25.9247 16
315 2 -19.1054 25.4429 -29.0881 14
316 2 -11.122 -15.8605 -22.6102 10
317 2 -15.862 -17.3116 -19.2143 16
318 2 -17.9991 21.8717 -18.037 12
319 2 -16.7466 -29.9658 -12.1005 14
320 2 -8.47152 -23.0017 -21.523 16
321 2 -10.786 -26.8945 -28.819 16
322 2 -22.414 -22.5079 -29.5349 10
323 2 -21.2906 23.9126 -29.2372 10
324 2 -13.1953 24.507 -22.8107 19
325 1 -22.7787 -27.6128 -24.8044 20
326 1 -23.3133 29.5153 -23.7336 16
327 1 -17.9578 26.4574 -24.5296 20
328 1 -17.5975 -27.5149 -28.0129 23
329 1 -20.5967 -28.4526 -26.6181 22
330 1 -17.9602 29.3592 -26.4008 21
331 1 -20.4141 28.4213 -24.7866 19
332 1 -17.4169 -27.7365 -25.0195 20
333 1 -20.1177 -28.6915 -23.0961 20
334 1 -17.6655 29.1378 -23.2798 22
335 2 -22.6183 25.2469 -23.1029 15
336 2 -22.1682 -28.4755 -23.0935 23
337 2 -17.4468 25.236 -23.2632 21
338 2 -16.9535 -27.1945 -29.8461 22
339 2 -19.657 -27.4996 -28.1424 21
340 2 -17.6986 28.8083 -28.2823 17
341 2 -19.9389 29.4317 -26.2879 20
342 2 -16.995 -28.7908 -26.6496 21
343 2 -19.7305 -27.6521 -24.9536 23
344 2 -17.0889 27.976 -24.9968 22
345 2 -19.7808 29.0221 -23.1287 22
346 2 -17.1436 -28.898 -23.395 20
347 1 -23.0363 -27.8744 -21.414 21
348 1 -23.206 29.3678 -20.1923 18
349 1 -21.9145 -27.9528 -17.9872 21
350 1 -17.7153 25.9738 -21.5219 21
351 1 -17.7447 26.1273 -18.4472 19
352 1 -20.1605 27.9398 -21.5969 20
353 1 -17.3852 -28.1593 -21.5034 19
354 1 -20.2662 -28.8958 -19.8843 21
355 1 -17.8218 29.1683 -19.8631 22
356 1 -24.2141 28.9464 -17.2533 13
357 1 -16.7996 -28.6087 -17.8888 18
358 1 -19.6827 -28.8286 -16.1996 19
359 1 -17.7927 28.7935 -16.5359 24
360 1 -17.0692 -28.3551 -14.2119 22
361 2 -23.3459 28.4317 -21.998 16
362 2 -24.6913 -29.2431 -21.3891 14
363 2 -19.6714 25.8744 -21.504 15
364 2 -17.686 24.6385 -19.9234 20
365 2 -19.4377 -28.1357 -21.2899 20
366 2 -17.5022 28.0927 -21.4519 21
367 2 -19.8467 29.1378 -19.917 20
368 2 -16.7908 -29.341 -19.8299 22
369 2 -22.3763 -28.8857 -19.582 19
370 2 -16.979 28.2629 -18.3749 23
371 2 -23.4882 28.1624 -15.5877 13
372 2 -17.5216 -29.2324 -16.0176 20
373 2 -21.4906 -26.5866 -14.8693 20
374 1 -22.3156 -25.0141 -26.4557 22
375 1 -23.4595 -20.0052 -19.668 12
376 1 -21.9117 -24.8356 -22.773 24
377 1 -17.0487 -24.8711 -29.8555 17
378 1 -19.3671 -25.376 -28.0209 18
379 1 -15.6195 -21.9945 -27.8628 20
380 1 -19.1589 -22.8227 -26.5914 21
381 1 -16.675 -24.6214 -26.2751 22
382 1 -20.0163 -25.6173 -24.7014 21
383 1 -16.1251 -22.3482 -24.8027 20
384 1 -18.9275 -22.8088 -22.841 22
385 1 -16.518 -25.2387 -23.233 20
386 1 -15.812 -19.5225 -23.0294 18
387 1 -13.6069 -17.4524 -19.2251 17
388 2 -22.2615 -25.6095 -24.4788 20
389 2 -21.5736 -23.0932 -19.6538 20
390 2 -14.1075 -25.2376 29.8758 21
391 2 -17.4334 -25.4286 -27.9835 19
392 2 -17.0379 -22.8477 -26.3939 22
393 2 -19.5274 -22.3676 -24.803 21
394 2 -17.2688 -25.9082 -25.0281 21
395 2 -19.9382 -24.6184 -22.9657 22
396 2 -16.9359 -23.2925 -23.1275 22
397 2 -16.1155 -20.4652 -24.5585 21
398 2 -20.7422 -17.3247 -21.115 11
399 1 -21.86 -21.7984 -21.1993 20
400 1 -21.8678 -25.0488 -19.4905 22
401 1 -19.4509 -25.9281 -21.5306 18
402 1 -16.184 -22.4864 -21.3595 21
403 1 -19.6666 -22.9554 -19.6245 20
404 1 -16.5347 -25.3199 -19.7917 20
405 1 -19.5795 -26.0186 -18.0632 22
406 1 -16.5803 -22.5968 -18.0423 20
407 1 -19.4014 -23.2785 -16.1746 22
408 1 -16.989 -25.5435 -16.2555 21
409 1 -19.5438 -26.2581 -14.5271 24
410 1 -18.3641 -20.0754 -21.3609 21
411 1 -16.603 -19.0843 -19.2573 21
412 2 -22.2742 -26.0737 -21.2356 24
413 2 -21.4035 -23.2801 -16.2767 24
414 2 -22.4567 -26.0053 -17.7491 21
415 2 -19.0179 -21.7273 -21.1327 20
416 2 -17.3853 -26.0952 -21.5291 20
417 2 -19.6203 -25.1059 -19.704 21
418 2 -16.2139 -23.3982 -19.7096 19
419 2 -18.8867 -25.298 -16.3184 20
420 2 -16.5465 -26.5236 -17.8977 20
421 2 -19.9323 -28.2849 -18.0105 20
422 2 -16.3691 -23.5076 -16.0859 22
423 2 -16.4183 -26.4331 -14.4061 21
424 2 -16.3614 -20.5557 -21.1943 21
425 2 -18.4505 -22.517 -17.8937 19
426 2 -13.3736 -19.5964 -19.4946 21
427 1 -15.2582 24.6851 -23.2294 21
428 1 -15.6528 28.258 -28.4094 17
429 1 -14.8799 -29.1095 -26.5408 22
430 1 -12.1493 28.4304 -26.6431 20
431 1 -15.1891 27.7019 -24.7535 20
432 1 -12.3643 -28.7155 -24.9174 20
433 1 -14.3451 -29.5108 -22.9274 21
434 1 -12.568 28.3969 -23.2313 21
435 2 -14.8994 25.8821 -24.8293 21
436 2 -14.1836 -28.0492 -28.4311 20
437 2 -14.1894 29.1043 -26.0827 20
438 2 -12.0165 -29.566 -26.9992 20
439 2 -14.2242 -28.291 -24.8732 18
440 2 -12.0665 27.27 -24.9248 19
441 2 -14.744 28.8111 -23.0082 20
442 2 -11.9576 -29.663 -23.3942 21
443 2 -9.67177 -28.9468 -25.1772 16
444 1 -15.5029 27.812 -21.3508 22
445 1 -12.1846 -28.772 -21.3349 21
446 1 -14.9647 -29.5934 -19.6988 22
447 1 -12.2995 27.9323 -19.8793 21
448 1 -15.2054 27.6857 -18.04 22
449 1 -11.8709 -28.919 -18.0102 20
450 1 -14.4329 -29.6936 -15.981 19
451 1 -12.0531 28.1513 -16.3268 22
452 2 -15.4003 25.8812 -21.1235 23
453 2 -15.6522 23.0633 -16.3777 12
454 2 -14.3061 -28.5198 -21.381 21
455 2 -12.5592 27.2594 -21.6012 20
456 2 -14.4561 28.4473 -19.6903 23
457 2 -11.9701 -29.8692 -19.6717 20
458 2 -14.5532 -28.7134 -17.7025 20
459 2 -14.2815 28.3497 -16.5358 20
460 2 -12.2143 -29.5333 -16.2196 21
461 2 -14.8169 -28.6707 -14.3405 20
462 2 -9.65632 -28.8129 -21.5102 15
463 1 -14.7301 -26.1626 -28.5074 18
464 1 -13.5015 -23.8135 -26.6193 20
465 1 -11.0403 -25.9915 -26.7704 22
466 1 -14.2504 -26.2551 -24.976 20
467 1 -11.2439 -22.6554 -24.9517 21
468 1 -13.3565 -23.4818 -22.8939 22
469 1 -11.2535 -25.5384 -23.4575 20
470 1 -13.382 -20.548 -24.7395 23
471 1 -9.35976 -27.0693 -24.9173 15
472 2 -13.7576 -22.2733 -28.0292 21
473 2 -14.1744 -25.5159 -26.6005 19
474 2 -11.3844 -23.9165 -26.6403 19
475 2 -13.7204 -22.6754 -24.781 20
476 2 -11.877 -26.6944 -25.0968 19
477 2 -14.4481 -25.3517 -23.162 23
478 2 -11.2465 -23.5863 -23.2362 19
479 2 -13.6569 -19.2942 -22.7888 20
480 1 -14.0789 -26.7611 -21.7474 19
481 1 -10.8051 -22.6953 -21.4343 24
482 1 -14.1869 -23.8088 -19.75 19
483 1 -11.9239 -25.8362 -20.0755 20
484 1 -14.2802 -26.7774 -17.9041 19
485 1 -11.884 -22.9645 -18.1797 23
486 1 -14.2433 -23.6422 -16.162 22
487 1 -11.2264 -25.9573 -16.3447 19
488 1 -14.5484 -26.6599 -14.8274 22
489 1 -13.9717 -20.3601 -21.1345 21
490 1 -14.1483 -20.761 -17.9097 22
491 1 -8.83417 -26.9516 -21.5652 15
492 2 -14.2718 -22.2283 -21.6081 23
493 2 -12.1376 -26.568 -21.8986 21
494 2 -14.3109 -25.6112 -19.8522 20
495 2 -11.2364 -23.8125 -19.8234 19
496 2 -13.8563 -22.6305 -17.8718 20
497 2 -11.5609 -26.8011 -18.3099 20
498 2 -14.0598 -25.5641 -16.4632 21
499 2 -11.4419 -23.9888 -16.4653 19
500 2 -10.6812 -20.7728 -21.3146 20
