ITEM: TIMESTEP
41000
ITEM: NUMBER OF ATOMS
500
ITEM: BOX BOUNDS pp pp pp
-30.0 30.0
-30.0 30.0
-30.0 30.0
ITEM: ATOMS id type x y z Coordination
1 1 14.3926 -5.54926 5.57835 22
2 1 6.23667 3.78523 8.47028 15
3 1 17.8902 -2.04983 2.45441 18
4 1 -2.24744 -1.36434 1.64962 11
5 1 5.65677 1.33639 -7.94352 18
6 1 9.84929 -1.3753 8.32609 17
7 1 1.45966 0.89386 -0.250245 22
8 1 9.05339 1.63049 -8.07254 20
9 1 13.9979 -7.73208 -2.53715 13
10 1 14.3453 0.211007 5.00663 21
11 1 8.35856 6.69884 -4.87998 13
12 1 9.32286 3.82206 8.76948 12
13 1 1.31776 -0.936465 2.19321 21
14 1 -0.529452 -1.76358 -0.445225 17
15 1 15.6832 -2.53756 -7.16956 9
16 1 17.3455 -4.0928 7.69561 12
17 1 1.81723 -7.84788 -0.746992 18
18 1 3.89789 -6.7612 -8.22785 11
19 1 12.5791 -2.6013 -5.48764 18
20 1 15.3617 -7.52235 2.68222 16
21 1 1.3203 3.9248 3.16488 20
22 1 8.59384 6.28794 0.175634 20
23 1 7.93165 -4.89316 -5.8386 22
24 1 4.25785 0.603095 10.3229 10
25 1 15.386 -4.75445 2.80331 22
26 1 4.97572 6.52522 4.72633 19
27 1 11.3958 4.16566 -2.96398 17
28 1 16.1738 6.96766 -2.27682 10
29 1 6.18431 8.17951 -2.74117 11
30 1 3.40102 3.50368 -5.83174 17
31 1 3.07963 7.31771 -2.2039 11
32 1 11.0089 8.7249 -1.15563 13
33 1 -2.09546 1.47949 0.268407 14
34 1 7.07206 6.8847 9.24849 9
35 1 4.09497 0.271248 -5.73096 20
36 1 2.10945 -8.17509 3.49693 15
37 1 16.2339 -4.84134 -2.4296 17
38 1 -0.600566 -1.72985 4.67959 16
39 1 1.0809 -1.44432 -2.51086 18
40 1 6.98039 -11.2731 4.54835 15
41 1 13.368 2.92671 -5.08349 19
42 1 1.80721 -4.14359 -7.29202 18
43 1 10.5931 4.24613 -9.94551 10
44 1 9.359 -10.6023 1.59568 20
45 1 5.62082 6.35876 -0.477968 20
46 1 -0.624986 1.29664 2.95599 16
47 1 11.796 4.35327 7.36802 14
48 1 12.1446 -4.63688 7.7404 15
49 1 11.8158 -9.10167 -0.410022 17
50 1 14.568 0.26437 -5.59893 19
51 1 5.72895 -10.5965 1.88553 20
52 1 5.22403 -8.59067 4.40122 19
53 1 16.927 -6.73666 8.00856 11
54 1 10.1731 -7.66073 7.46342 14
55 1 14.0597 8.20457 -0.182775 12
56 1 2.16264 -10.0459 1.01538 16
57 1 7.09048 -13.015 -0.114382 9
58 1 3.91683 -7.22375 -2.85442 20
59 1 5.35478 -4.73374 7.88095 14
60 1 -1.25418 -4.20921 6.12016 9
61 1 12.349 -11.8846 1.96732 10
62 1 -0.619848 -3.95838 2.47926 17
63 1 3.11848 7.16231 1.45802 16
64 1 3.07566 3.46267 5.42117 20
65 1 3.95338 6.90516 7.9736 9
66 1 1.59292 -6.64696 -6.46185 15
67 1 0.278383 1.99066 -6.8957 9
68 1 4.56679 -5.08458 -5.38253 19
69 1 16.0094 -2.70074 5.08317 18
70 1 6.33472 -1.2258 11.1262 9
71 1 3.94791 -1.68042 -7.77897 17
72 1 -1.05422 -2.90936 -3.74429 14
73 1 4.72174 -13.3179 -2.82378 10
74 1 3.06047 3.6208 9.06931 12
75 1 3.12886 3.74141 0.240159 20
76 1 9.22019 -9.72751 -3.58489 20
77 1 10.1958 7.15563 8.05772 10
78 1 -0.956612 -3.63821 -6.84827 13
79 1 -1.71474 3.58313 -1.96767 11
80 1 5.84302 -12.1235 -6.03613 10
81 1 12.0945 -10.2714 6.64715 10
82 1 -0.584366 1.62483 -3.32198 15
83 1 2.46581 -4.43507 6.99719 14
84 1 0.497982 3.37896 6.04462 12
85 1 9.2277 -10.7162 -6.60717 12
86 1 6.7129 -1.92518 8.31109 18
87 1 7.21377 -7.483 8.25432 13
88 1 10.7164 -7.09564 -2.53991 22
89 1 16.2917 2.59283 0.134876 20
90 1 10.7645 -1.02217 -7.85729 16
91 1 15.3494 -8.84123 5.87655 13
92 1 2.76354 -10.3072 -2.65801 16
93 1 0.61557 -1.87369 7.60596 13
94 1 17.4466 -0.506784 5.65737 11
95 1 18.1539 3.78401 -2.59796 9
96 1 9.73026 3.49738 -5.53292 21
97 1 8.77752 6.29631 -7.64966 12
98 1 9.62914 7.47634 2.25648 16
99 1 12.1122 1.9937 -7.86288 16
100 1 8.86188 -8.82224 4.11281 19
101 1 15.83 -2.68925 -0.0288859 21
102 1 10.0674 -11.7344 -1.18352 13
103 1 0.643402 -1.39208 -8.27497 12
104 1 17.636 -2.24039 -3.2383 16
105 1 4.54885 4.96085 -3.03962 19
106 1 11.7492 -9.03467 -5.06414 10
107 1 1.0983 -5.10108 4.50765 18
108 1 6.18454 -10.1921 -3.83327 19
109 1 9.18991 -7.31912 -5.685 17
110 1 11.7264 6.12558 -0.453442 18
111 1 10.3327 -11.5216 4.54341 11
112 1 3.80271 -9.10448 -5.48293 14
113 1 9.19548 -1.54254 11.03 9
114 1 7.75795 1.20191 10.8281 13
115 1 9.1283 -4.17603 -8.28149 13
116 1 -0.707638 -0.68892 -5.45533 14
117 1 12.9854 7.9265 -3.27387 11
118 1 14.5888 -1.66778 -3.13852 21
119 1 7.33437 3.93422 -9.69484 10
120 1 0.454978 6.88255 2.02318 10
121 1 8.96031 -4.85098 7.71794 16
122 1 2.61115 1.32628 -8.30288 11
123 1 17.5988 -5.46688 0.814212 15
124 1 15.2283 -1.02781 7.82759 12
125 1 8.59755 -10.4969 7.12256 13
126 1 16.5437 4.45067 3.19527 12
127 1 15.9254 1.95477 5.70943 15
128 1 6.40448 -9.2111 -7.25753 12
129 1 12.3441 0.522618 7.91928 15
130 1 6.68453 3.49563 -5.46328 20
131 1 5.5408 0.729284 7.94916 21
132 1 3.74535 -12.1181 -0.451133 11
133 1 12.6253 2.7968 4.97003 20
134 1 2.23149 6.73185 4.78355 15
135 1 4.67616 4.60647 2.6327 22
136 1 14.2961 5.71067 -4.91761 14
137 1 12.6188 -2.04333 9.67828 10
138 1 7.44503 -1.43026 -8.32695 17
139 1 9.11678 1.31274 7.50426 16
140 1 17.5989 -3.87052 -5.42817 11
141 1 13.2744 6.4867 2.64891 17
142 1 13.346 -9.98238 4.02015 12
143 1 8.34271 6.43995 4.87328 17
144 1 11.2959 -5.26888 -5.33103 19
145 1 13.6996 -7.60886 7.8454 14
146 1 1.60056 0.716005 5.17206 20
147 1 19.2861 -3.23678 -0.280461 13
148 1 7.8021 9.22974 -0.159296 12
149 1 16.5703 0.800156 -2.88698 18
150 1 4.11685 -1.90981 7.53107 18
151 1 3.78194 -7.6971 7.11971 11
152 1 0.407805 5.35028 -0.693673 12
153 1 14.8826 5.53076 0.314449 19
154 1 0.133756 -6.96592 1.73287 13
155 1 17.6863 -0.372729 -0.490238 15
156 1 -0.925018 -9.43252 -0.68694 7
157 1 16.4653 0.666043 2.54738 20
158 1 14.1568 -6.03356 -0.196705 20
159 1 11.3002 6.05907 4.73634 17
160 1 -1.36324 -6.10282 -5.78176 8
161 1 9.41887 9.12742 -3.33371 11
162 1 12.0133 5.1064 -7.40629 13
163 1 2.47028 -2.44005 -4.92783 19
164 1 5.7248 -4.17233 -8.04173 16
165 1 7.87037 -12.7284 -3.48862 13
166 1 10.9439 -6.12372 5.07068 18
167 1 19.7748 -5.25679 -2.7865 6
168 1 -2.96648 -0.235681 -2.09321 8
169 1 5.48719 4.98867 -7.66829 10
170 1 0.718217 -8.08138 -3.48238 14
171 1 17.0638 -6.09764 4.58713 12
172 1 7.56423 -7.04323 -8.71921 9
173 1 -1.61581 4.28907 1.61562 10
174 1 2.3966 1.24704 7.85373 17
175 1 14.3293 3.26153 2.56572 22
176 1 16.4907 3.06041 -5.19991 13
177 1 5.221 -10.0817 7.42351 10
178 1 11.4437 0.673524 -5.40748 23
179 1 14.9393 4.02345 -2.37612 20
180 1 14.7005 5.07079 5.5803 13
181 1 11.5355 8.06755 -5.65985 10
182 1 17.8357 -0.0112669 -5.33525 11
183 1 14.6786 -5.31611 -4.90209 13
184 1 6.98896 8.34701 6.65637 12
185 1 6.6935 7.5974 2.85553 16
186 1 3.24104 -11.609 3.36208 10
187 1 14.6966 -9.75108 0.840974 10
188 1 0.822995 -4.82571 -0.85268 17
189 1 1.42103 4.56277 -3.47994 11
190 2 -1.04796 -2.75006 1.1909 13
191 2 16.2758 2.6353 1.99702 17
192 2 4.27849 -1.63932 -5.62508 18
193 2 -0.865839 -1.75846 -7.02814 13
194 2 5.17478 -11.0343 3.78785 14
195 2 12.8436 -3.92225 9.469 8
196 2 16.0675 -3.26257 1.80016 23
197 2 3.07759 1.85419 9.61918 12
198 2 14.978 -6.30993 -3.14532 12
199 2 4.00997 0.372658 -7.78788 15
200 2 8.07687 -8.2405 -7.10471 13
201 2 6.55926 7.47919 4.86267 14
202 2 16.9315 -5.89185 2.48826 13
203 2 14.5816 6.99371 -3.39504 13
204 2 5.67064 7.82223 8.07893 9
205 2 14.6741 5.26143 2.31268 18
206 2 11.6231 3.71836 -5.14803 18
207 2 7.67182 -5.17226 -8.12011 12
208 2 0.829756 0.514398 -7.91408 11
209 2 8.57564 -8.54762 7.51502 15
210 2 -1.03866 -2.25496 6.60079 9
211 2 12.2187 -8.47192 -3.29605 14
212 2 6.25575 -13.1194 -4.34277 10
213 2 10.1349 2.95807 7.00319 16
214 2 17.6012 -5.48931 6.36911 13
215 2 2.23853 -10.1133 2.96158 15
216 2 8.67008 -10.6774 4.06208 14
217 2 -0.00279338 -8.38188 0.347284 14
218 2 3.83043 -11.2007 1.33642 13
219 2 2.43384 -10.0019 -0.781582 18
220 2 3.72373 7.64357 -0.464017 12
221 2 11.342 -1.17156 -5.88288 19
222 2 17.8298 3.1563 -0.900628 11
223 2 12.0117 3.46578 -8.77299 12
224 2 0.963177 0.6922 -2.47661 18
225 2 17.5361 -0.31753 1.29059 16
226 2 8.2383 6.17669 2.7108 21
227 2 1.78717 4.72998 4.94506 16
228 2 10.2447 7.22184 0.327921 16
229 2 9.58612 7.33111 -6.33021 12
230 2 4.5432 4.8008 8.85804 12
231 2 7.63881 -2.11891 9.97927 13
232 2 11.2255 -7.21698 -5.45639 13
233 2 9.97448 -9.827 -1.36185 17
234 2 7.53729 -11.4121 -6.78505 11
235 2 1.64226 -6.47435 -2.19209 17
236 2 15.8663 -5.17036 -0.502581 20
237 2 13.9299 1.85391 3.92404 22
238 2 7.23937 0.296268 -8.20094 18
239 2 9.31602 -2.27354 -8.46577 13
240 2 6.15982 -4.08065 -5.96553 19
241 2 7.95057 -10.8654 -3.69209 15
242 2 13.905 -1.45833 -6.05153 15
243 2 3.83344 -7.53875 3.49666 20
244 2 9.65093 -4.64768 -6.18185 17
245 2 5.39254 -12.7273 -1.08087 12
246 2 6.12813 1.32786 -5.81497 19
247 2 4.65655 4.62736 4.61698 18
248 2 2.38069 -7.92319 1.15637 19
249 2 3.4892 6.94134 6.23545 11
250 2 0.808912 -6.87207 3.79395 14
251 2 -2.0375 -0.379169 -0.034608 12
252 2 16.4194 -5.13534 8.91094 10
253 2 16.2377 0.6342 -0.791298 20
254 2 5.78201 -2.3639 -8.71665 15
255 2 11.2424 3.83211 4.57111 23
256 2 13.4898 6.29188 4.67091 14
257 2 10.7429 -1.86951 9.93231 11
258 2 -0.222486 5.29128 2.43015 13
259 2 2.46117 -4.51792 -5.31564 20
260 2 17.3654 2.4085 -3.64485 13
261 2 -0.0665548 -3.21792 -2.05683 15
262 2 2.98862 3.46759 -4.00745 16
263 2 10.8017 0.775847 -8.24653 13
264 2 3.19299 3.4694 2.20346 21
265 2 13.9394 -7.94516 -0.488652 15
266 2 10.7482 -11.4648 0.411099 11
267 2 2.01637 7.64637 3.10619 11
268 2 6.79566 -10.7227 6.45453 13
269 2 12.0077 -11.2085 3.73214 12
270 2 13.5503 -0.854714 8.44841 11
271 2 5.06642 6.71765 -2.59339 12
272 2 3.87155 -5.7562 7.24897 15
273 2 5.93559 -8.63353 1.51728 19
274 2 5.75961 -3.11903 7.11936 20
275 2 10.0931 5.26333 -8.38643 14
276 2 17.9619 -0.500992 -3.68964 14
277 2 14.0153 -5.59549 7.6764 17
278 2 14.5701 3.82961 -0.369717 19
279 2 10.0811 6.81429 5.88795 15
280 2 0.691174 -5.10423 1.56399 16
281 2 7.61858 5.06321 8.84531 14
282 2 15.7465 -4.49078 4.70452 20
283 2 9.01482 3.06462 -9.26032 14
284 2 8.90336 2.09649 9.44679 15
285 2 13.6721 -9.61087 5.78738 10
286 2 -1.16798 -4.30796 -4.91367 14
287 2 0.201403 3.49142 -2.64132 13
288 2 0.209521 -5.23459 -7.13521 11
289 2 4.49429 -9.02024 6.01965 15
290 2 15.729 7.44154 -0.351352 10
291 2 5.77369 -7.36065 -7.9361 13
292 2 17.3854 -2.30707 -1.16443 20
293 2 -1.47789 4.83201 -0.38926 11
294 2 20.0736 -4.52562 -1.25831 7
295 2 -0.421039 -3.75101 4.33206 16
296 2 -0.169726 -9.41247 -2.47817 9
297 2 9.21641 9.40633 -1.52715 11
298 2 1.72751 5.66205 1.15785 18
299 2 7.29407 -5.78912 7.23219 16
300 2 -1.46196 2.42217 1.60971 14
301 2 1.42577 5.9794 -2.14928 13
302 2 6.08855 1.44741 10.005 17
303 2 -0.3362 1.15249 -5.28011 11
304 2 12.6864 7.7492 -1.4679 13
305 2 3.95907 -0.163964 7.08628 23
306 2 10.576 0.0578886 7.31946 16
307 2 3.184 -8.0812 -6.8958 11
308 2 8.31731 4.81811 -5.22461 16
309 2 6.01322 -8.49097 -3.01368 15
310 2 14.0032 -1.71534 4.50353 24
311 2 16.5849 5.06522 -2.65983 13
312 2 11.8363 -8.33293 7.59173 13
313 2 14.6999 0.277243 -3.31762 25
314 2 13.4606 4.05018 6.55657 13
315 2 3.22974 1.68419 4.42036 24
316 2 0.217876 -6.85967 -4.85986 13
317 2 8.44745 -12.8488 -1.67802 11
318 2 8.15584 8.59162 1.61978 13
319 2 0.268407 2.1093 4.59688 17
320 2 1.50369 -1.40764 4.38355 24
321 2 3.44012 -12.057 -2.44727 9
322 2 15.9626 0.392661 6.92284 14
323 2 7.18375 5.66486 -8.74221 11
324 2 12.965 3.10014 -2.6859 18
325 2 10.3602 -10.2127 -5.32362 12
326 2 17.7975 -2.09612 4.40972 16
327 2 12.7689 0.870665 5.85164 18
328 2 6.97778 7.52604 -0.711046 18
329 2 2.24143 2.8019 -7.18332 12
330 2 3.39402 -5.04163 -7.58045 14
331 2 8.36678 7.81702 7.93628 9
332 2 7.77089 8.1163 -3.66449 10
333 2 -2.205 -1.47506 -3.32388 14
334 2 1.98588 3.07091 7.16673 12
335 2 9.53813 1.47442 -5.81578 20
336 2 13.1566 -4.51923 -4.9751 16
337 2 -2.13919 1.67625 -1.86944 11
338 2 5.75085 3.21887 -8.69391 14
339 2 15.4308 -7.12193 4.87065 17
340 2 0.639428 -5.08514 6.83645 10
341 2 1.06401 0.0634981 7.19839 14
342 2 15.4806 -8.12285 7.70781 11
343 2 -1.10409 -0.798729 2.94609 16
344 2 2.21764 -2.77436 7.48006 16
345 2 5.52137 -8.13363 7.99583 11
346 2 18.5354 -3.69852 1.33039 13
347 2 9.17638 -7.92574 -3.83209 22
348 2 4.83413 6.496 2.31915 20
349 2 2.28753 -2.41898 -7.94434 17
350 2 2.83763 -4.31279 4.04096 22
351 2 10.6714 -5.80812 7.10533 16
352 2 13.3223 1.52755 -6.21533 19
353 2 16.5385 0.585802 4.40072 17
354 2 12.6491 -4.94434 4.54956 19
355 2 16.1821 -4.74339 -6.06582 10
356 2 14.8096 -9.36388 2.70014 11
357 2 14.0308 -6.0232 1.96121 21
358 2 5.15501 -0.896821 9.44317 14
359 2 14.9003 3.97362 -4.69724 16
360 2 0.568299 -1.71958 -4.40504 19
361 2 1.43308 1.07142 2.05574 19
362 2 10.3727 -11.1192 6.46764 12
363 2 11.0595 8.41987 -3.73442 11
364 2 16.2001 1.22178 -5.84753 12
365 2 12.8039 6.27122 -6.09624 12
366 2 10.2166 -7.6323 3.986 19
367 2 18.6014 -4.44828 -3.95761 10
368 2 12.789 -10.3153 0.775386 13
369 2 5.42972 -10.1939 -5.86427 13
370 2 11.3618 6.15569 2.66275 17
371 2 10.9193 5.28603 8.59243 10
372 2 7.31963 -11.6393 1.13234 15
373 2 7.82145 -0.447792 11.8662 8
374 2 15.9022 3.76601 4.89132 14
375 2 17.1058 -1.94862 -6.03981 12
376 2 5.07561 4.3868 -5.80448 14
377 2 2.77814 -8.68337 -3.77143 18
378 2 15.7238 -3.10668 -3.13862 20
379 1 1.38487 -5.34648 -3.86473 19
380 1 6.21491 -2.24695 -5.41474 23
381 1 7.41048 -7.18951 -2.89739 21
382 1 6.44591 -4.29451 -3.0673 20
383 2 4.34031 -7.36352 -0.877872 20
384 2 2.72305 -4.08199 -0.062701 19
385 2 2.95554 -2.0736 -3.13973 18
386 2 5.01837 -5.91775 -3.75112 19
387 2 7.57653 -7.25815 -1.02933 22
388 2 5.82307 -4.69368 -1.0656 23
389 2 6.51318 -2.2922 -3.4757 22
390 2 7.80747 -5.41143 -4.03339 22
391 1 2.89864 -2.1695 -0.782716 20
392 1 3.98851 -5.19515 -0.812177 19
393 1 4.13783 -7.30547 1.09225 23
394 1 2.74397 -4.14316 1.8183 22
395 1 2.81969 -2.53387 4.31617 18
396 1 4.13058 -5.7652 3.99034 21
397 1 5.90244 -8.53879 -1.01219 17
398 1 6.15527 -2.56585 -0.619962 20
399 1 7.48756 -5.37526 -0.371289 22
400 1 7.29234 -7.31818 2.14 23
401 1 6.06206 -4.36672 2.12034 22
402 1 6.14466 -2.8988 5.20123 22
403 1 7.52421 -5.41152 5.30706 22
404 2 2.79667 -2.0232 1.84165 21
405 2 4.34262 -5.32614 1.73484 20
406 2 7.03298 -7.78015 3.93148 22
407 2 5.97987 -5.06628 3.99417 20
408 2 6.12586 -2.27105 1.44612 23
409 2 7.37678 -5.52079 1.41729 22
410 2 7.61217 -0.397937 7.27355 23
411 1 4.60986 -1.18916 -3.04578 17
412 1 2.83219 1.82538 -2.75761 20
413 1 7.92584 0.358255 -5.41369 22
414 1 8.01902 -1.30199 -2.88485 21
415 1 5.99583 1.7756 -3.14848 22
416 1 7.80791 4.10295 -2.59803 22
417 2 1.52968 -1.01412 -0.453167 18
418 2 4.63343 -1.33902 -0.967491 22
419 2 3.08696 2.02429 -0.894758 20
420 2 4.42514 0.690571 -3.70884 20
421 2 4.61594 4.51209 -0.974965 23
422 2 8.27706 -1.49127 -5.93334 21
423 2 8.0444 -1.52185 -0.869757 23
424 2 6.23389 1.741 -0.817324 21
425 2 6.24946 4.03907 -3.53042 19
426 2 7.77293 0.651665 -3.47823 21
427 2 7.9109 4.5818 -0.698304 17
428 1 4.40473 0.61059 -0.0632744 23
429 1 4.61074 -1.46776 2.36716 23
430 1 3.17518 1.55559 2.533 24
431 1 4.51509 0.33957 5.11944 21
432 1 6.05061 3.46004 0.0651409 23
433 1 7.8948 0.489192 -0.23962 23
434 1 7.58481 -1.42798 2.51033 23
435 1 6.20216 1.69937 2.44953 21
436 1 6.35086 3.44943 5.45726 19
437 1 7.81464 0.180514 5.28962 22
438 1 7.80821 4.34345 3.0586 23
439 2 4.53656 -1.39972 4.53438 21
440 2 4.66658 0.358967 1.79392 22
441 2 7.56312 -2.03967 4.41404 23
442 2 6.39974 1.05098 4.17106 22
443 2 6.31089 3.61823 2.01394 23
444 2 7.80111 0.443955 1.75845 24
445 2 6.05578 2.51215 7.11485 21
446 2 7.95199 4.62825 5.05323 20
447 1 9.85563 -2.53435 -5.33499 22
448 1 9.29391 -4.41898 -2.69772 25
449 1 12.8591 -4.389 -2.81816 22
450 2 10.479 -7.30438 -0.440745 20
451 2 9.25556 -4.39588 -0.655939 21
452 2 9.73133 -2.15297 -3.49303 24
453 2 10.9328 -5.12985 -3.1863 20
454 2 12.5451 -4.91718 -0.993683 21
455 2 12.8692 -2.33599 -3.13383 21
456 1 8.87623 -8.41456 -0.178127 20
457 1 9.38124 -2.58563 0.179249 24
458 1 10.9191 -5.43033 -0.0599615 24
459 1 10.7052 -7.4455 2.19877 17
460 1 9.0745 -4.63122 2.88517 25
461 1 9.29361 -2.5816 5.38176 22
462 1 14.4783 -4.96074 9.48057 10
463 1 12.7052 -2.94808 0.252162 23
464 1 12.6426 -4.88073 2.56657 21
465 1 12.3492 -3.0083 4.41199 19
466 2 9.14091 -8.51628 1.74919 19
467 2 9.2938 -4.74039 4.85764 18
468 2 9.05807 -2.62061 2.15824 19
469 2 10.7635 -5.443 2.25474 21
470 2 9.52588 -3.14806 7.33438 17
471 2 16.2271 -2.40807 6.9359 15
472 2 12.4216 -3.00016 2.10707 22
473 1 11.231 -1.46305 -2.64623 23
474 1 9.71193 1.54731 -2.78584 23
475 1 13.2069 1.1682 -2.38477 22
476 2 11.0808 -1.85158 -0.642461 23
477 2 9.59013 1.27646 -0.685282 23
478 2 9.45215 3.58533 -3.39766 18
479 2 11.3602 0.684168 -3.1575 22
480 2 11.1114 4.39035 -0.884932 20
481 2 14.0748 -1.76761 -0.400071 23
482 2 12.7764 0.908267 -0.406614 21
483 1 9.54077 3.29264 -0.287093 21
484 1 11.0942 0.12913 -0.1555 21
485 1 10.9495 -1.57598 2.59091 23
486 1 9.39344 1.24064 2.72764 23
487 1 9.51556 3.24779 5.111 20
488 1 11.0865 -0.00826767 5.33639 22
489 1 11.2459 4.07792 2.61732 23
490 1 12.8003 3.0812 -0.223975 20
491 1 14.5137 -0.0490298 0.0310617 24
492 1 14.4588 -1.93214 2.29208 21
493 1 12.6528 0.871816 1.9387 21
494 2 10.8324 -1.83072 4.50262 20
495 2 9.47089 1.12669 4.80586 22
496 2 9.41848 3.44421 1.90169 21
497 2 10.98 0.252865 2.06742 21
498 2 12.6289 2.84624 1.82666 22
499 2 13.2795 6.73989 0.700729 14
500 2 14.4791 -0.0671138 2.09966 23
