ITEM: TIMESTEP
65000
ITEM: NUMBER OF ATOMS
500
ITEM: BOX BOUNDS pp pp pp
-30.0 30.0
-30.0 30.0
-30.0 30.0
ITEM: ATOMS id type x y z Coordination
1 1 4.38677 20.3097 -13.1885 14
2 1 -1.58769 23.8184 -11.3128 14
3 1 -7.2265 17.3631 -27.427 17
4 1 -13.3136 20.7274 -21.5913 15
5 1 -1.87141 22.5929 -28.4077 17
6 1 3.69568 13.147 -23.8255 13
7 1 1.35989 18.54 -12.643 18
8 1 1.18773 24.4374 -13.2284 17
9 1 -12.3758 19.8955 -15.1128 12
10 1 3.39293 17.1516 -20.8606 21
11 1 4.4953 23.3354 -14.8025 18
12 1 -10.5433 11.8966 -15.1855 12
13 1 -4.521 15.5492 -27.3246 15
14 1 6.2673 15.3428 -24.0705 12
15 1 3.12859 11.4798 -18.0507 12
16 1 -7.84581 28.7247 -15.6121 12
17 1 -3.72697 29.2284 -20.0162 17
18 1 -3.81581 18.0443 -28.9323 16
19 1 -4.50764 24.3136 -13.2263 20
20 1 -6.46209 26.2575 -16.8558 22
21 1 1.714 24.918 -28.0831 9
22 1 -7.27646 29.0647 -24.9182 14
23 1 -9.59094 24.9409 -25.3977 15
24 1 -6.34769 29.0019 -21.8702 18
25 1 -14.3289 22.0614 -24.1194 14
26 1 -1.61599 26.4654 -13.2682 12
27 1 -9.55927 24.6947 -28.6203 11
28 1 -8.44882 12.1301 -16.818 18
29 1 2.83749 10.9975 -21.1429 10
30 1 -14.4016 20.3906 -26.3008 7
31 1 -5.87517 9.47087 -20.3926 17
32 1 3.13557 23.6383 -26.0089 13
33 1 -12.601 16.8539 -25.5182 13
34 1 -1.39291 25.4584 -29.7299 9
35 1 -3.73994 29.6938 -23.6132 14
36 1 -12.2362 16.4521 -13.5621 13
37 1 -1.87703 29.2553 -15.4613 13
38 1 -0.570728 20.8861 -9.17467 8
39 1 0.0598949 9.89928 -21.996 12
40 1 3.49763 19.582 -25.9932 16
41 1 1.72892 15.6766 -10.9168 13
42 1 -1.24131 14.8275 -11.9943 18
43 1 1.19747 27.1472 -21.643 16
44 1 -12.5658 14.1691 -15.8532 16
45 1 -11.0852 12.7404 -21.0024 13
46 1 -7.17391 17.8598 -11.0308 17
47 1 -9.7536 21.4016 -14.3566 15
48 1 0.392404 12.093 -19.2113 17
49 1 -11.8601 13.6285 -12.2527 10
50 1 -9.02389 27.6626 -18.3351 17
51 1 -11.9127 22.7484 -18.9524 17
52 1 -7.48268 25.8931 -14.0241 15
53 1 -10.0614 14.7768 -23.8524 17
54 1 -10.0892 15.6045 -27.3578 12
55 1 3.95817 23.2589 -11.6325 10
56 1 -4.13529 16.179 -10.745 15
57 1 -8.53997 20.3626 -28.633 14
58 1 -14.7767 18.4614 -23.3317 11
59 1 -9.5572 12.1564 -26.6925 7
60 1 -10.4576 24.4565 -13.149 12
61 1 -1.87179 11.0701 -23.6598 14
62 1 -4.33615 27.5366 -15.0579 16
63 1 -11.7808 18.4301 -28.1776 10
64 1 -11.3156 27.0282 -20.7126 13
65 1 -4.1038 10.7835 -25.5527 11
66 1 1.45032 13.1255 -12.8384 12
67 1 -11.9799 23.6737 -25.9043 11
68 1 -9.65954 15.9846 -11.4097 15
69 1 -10.1249 19.5586 -9.5979 5
70 1 -4.90057 29.2604 -26.5772 14
71 1 -4.01014 13.21 -12.0952 14
72 1 0.78047 12.8605 -22.65 17
73 1 2.59515 18.3056 -28.5992 10
74 1 4.36427 14.7755 -13.1886 10
75 1 -9.14666 9.57459 -22.1423 10
76 1 -9.44213 14.9716 -14.3326 21
77 1 4.42608 20.4648 -16.17 19
78 1 5.95835 24.2632 -20.1219 14
79 1 -4.40453 23.3461 -29.7368 17
80 1 -6.57892 25.3058 -29.4949 13
81 1 -0.819152 28.9688 -21.9185 14
82 1 1.09705 20.6423 -27.6766 15
83 1 -2.32506 11.9762 -17.2051 15
84 1 2.68463 14.719 -19.6391 22
85 1 -3.14422 8.7044 -22.57 12
86 1 -7.29292 23.1691 -27.5251 20
87 1 6.69424 17.6762 -21.3905 17
88 1 -9.35395 29.9601 -21.4993 8
89 1 0.643236 15.4172 -24.7162 17
90 1 -9.3729 12.5834 -11.7488 12
91 1 -5.71178 8.85823 -23.5146 11
92 1 -1.07887 16.4076 -27.8844 14
93 1 1.20723 13.0098 -15.6433 16
94 1 -7.3401 14.4221 -25.9693 15
95 1 -3.81574 19.3045 -9.31197 12
96 1 -4.77862 21.9736 -11.1351 13
97 1 0.793778 17.7146 -26.0756 19
98 1 1.16328 26.3133 -24.7707 14
99 1 5.94918 18.2843 -24.2119 13
100 1 -7.38451 22.6807 29.1075 12
101 1 -14.4113 23.1646 -20.3449 9
102 1 -1.02073 17.8365 -10.5277 16
103 1 -11.5152 20.4179 -26.3183 15
104 1 5.33074 17.0573 -15.196 14
105 1 4.29554 26.0472 -13.9028 10
106 1 -1.61207 12.0724 -13.9054 14
107 1 6.87816 22.6637 -18.385 10
108 1 4.01484 28.0062 -16.5857 11
109 1 0.926027 27.0945 -15.1204 16
110 1 -6.6924 25.7967 -26.2482 22
111 1 -13.0717 14.452 -18.884 13
112 1 -13.1722 24.8025 -22.8096 10
113 1 3.91953 25.323 -23.1179 15
114 1 1.36828 21.4592 -11.3683 14
115 1 -4.14398 20.8863 28.7329 11
116 1 2.15405 -29.6969 -20.3485 7
117 1 3.59027 16.248 -25.8558 15
118 1 4.22085 14.5376 -16.6232 19
119 1 -7.61761 23.8131 -11.4109 12
120 1 3.89702 22.4672 -18.0173 20
121 1 -4.55202 26.6828 -24.9998 26
122 1 4.99387 21.8892 -24.3247 13
123 1 -6.84685 20.8113 -9.63702 12
124 1 -6.89714 14.7611 -12.6347 20
125 1 -10.3812 26.7205 -15.2545 13
126 1 1.98445 26.7675 -18.1643 19
127 1 -12.3283 17.4498 -17.1962 14
128 1 3.53522 16.978 -17.5706 20
129 1 -5.68634 10.4413 -16.8266 13
130 1 4.97213 25.3421 -17.1793 16
131 1 5.48963 12.307 -18.8667 9
132 1 -0.833911 30.0027 -18.9772 10
133 1 -12.4188 15.9449 -23.0097 11
134 1 -4.018 27.2703 -28.2467 13
135 1 -9.77098 17.7608 -25.5707 20
136 1 -0.943447 19.5093 -29.4067 12
137 1 -7.30479 11.395 -24.0728 16
138 1 6.41954 15.4987 -18.7012 16
139 1 -13.701 20.2058 -18.4243 11
140 1 -7.4825 27.9966 -28.516 10
141 1 -11.5733 11.2261 -17.8555 10
142 1 4.43288 17.2551 -11.8258 9
143 1 -6.45928 18.962 29.5445 12
144 1 -12.1572 25.7426 -18.3771 12
145 1 -10.0757 18.4724 -13.0934 18
146 1 4.1842 26.8136 -20.2303 13
147 1 3.22579 19.8757 -19.2468 20
148 1 -6.63379 11.7691 -14.0023 13
149 1 4.07668 21.8638 -28.3101 8
150 1 -1.50211 25.1639 -26.9101 19
151 1 1.09141 29.6831 -16.8699 11
152 1 -1.73253 28.2942 -25.6621 15
153 1 6.19392 20.7582 -21.2542 15
154 1 5.46931 14.4232 -21.4067 15
155 1 -5.0442 -29.943 -16.7159 11
156 1 -6.85234 29.178 -18.7528 16
157 1 -8.29507 9.27877 -18.6394 12
158 1 5.88197 18.1024 -18.0815 13
159 1 -13.5131 17.6836 -20.5287 15
160 1 -9.69373 27.8603 -23.237 14
161 2 -10.3606 16.3576 -13.424 18
162 2 3.70776 23.5722 -19.7971 24
163 2 -10.0812 23.3237 -24.2543 18
164 2 -9.68174 10.6005 -17.9543 14
165 2 2.10108 23.2715 -11.9761 15
166 2 -9.2976 25.9858 -14.0485 15
167 2 5.2369 13.9739 -23.5525 11
168 2 -7.2047 21.2249 -27.4635 18
169 2 -1.89606 17.7784 -28.9891 13
170 2 -6.56706 27.4407 -15.1692 16
171 2 3.30071 17.2941 -15.6698 20
172 2 2.26823 26.3712 -20.1251 17
173 2 -3.82524 29.2272 -15.6123 11
174 2 1.22102 -29.9206 -18.7851 9
175 2 -2.38625 26.3642 -28.6223 13
176 2 3.25801 20.1809 -28.1015 10
177 2 -10.5603 19.4502 -24.912 17
178 2 -2.14448 13.1826 -12.5757 14
179 2 -12.8976 20.1039 -16.7112 12
180 2 2.69584 15.1404 -24.828 16
181 2 -9.80092 11.3203 -21.4685 12
182 2 2.14585 25.7764 -14.1498 17
183 2 0.755543 17.4796 -11.1507 16
184 2 -10.5527 12.3087 -13.2788 10
185 2 -3.27293 9.27778 -24.2816 9
186 2 -12.618 15.4611 -17.5363 13
187 2 -7.64449 9.50121 -23.5978 11
188 2 -11.2071 14.3227 -22.3617 12
189 2 -7.47318 29.5715 -20.4505 14
190 2 3.86673 23.2687 -23.0843 17
191 2 -0.856521 20.7928 -27.8641 16
192 2 -4.74849 28.9963 -18.4609 19
193 2 -11.4013 25.5629 -16.5094 13
194 2 -4.16319 29.0144 -21.8075 17
195 2 -3.48686 28.0486 -26.2661 17
196 2 -3.43025 26.1272 -13.5921 17
197 2 -1.87833 19.5991 -9.46868 11
198 2 0.869144 18.9832 -29.1711 10
199 2 -0.0756489 11.436 -23.1767 12
200 2 -11.8598 12.9426 -19.2044 13
201 2 5.39081 18.7344 -16.255 14
202 2 4.38201 27.0389 -18.2027 14
203 2 -5.54215 22.0602 28.6137 12
204 2 -3.49076 21.479 -29.4302 15
205 2 -8.18716 15.7645 -26.9718 17
206 2 -2.78467 15.1446 -27.4342 14
207 2 5.16271 16.5958 -24.8151 15
208 2 -4.54368 18.9198 29.4807 11
209 2 -2.63417 12.1442 -25.0584 13
210 2 -5.67791 23.5968 -28.323 19
211 2 -6.9962 11.2624 -15.898 15
212 2 -12.9437 24.3081 -19.3861 13
213 2 -10.1652 14.2867 -11.2962 11
214 2 -11.3705 20.809 -21.9811 17
215 2 4.50529 12.3861 -17.223 12
216 2 -1.09205 29.5697 -17.1223 14
217 2 -4.97826 20.737 -9.61017 12
218 2 -10.6621 23.1388 -14.579 15
219 2 -11.3129 17.001 -27.0679 12
220 2 6.72996 22.377 -20.4149 11
221 2 -12.8643 18.5488 -18.9695 13
222 2 -6.7068 27.1019 -24.8271 23
223 2 3.3155 23.8557 -28.0666 8
224 2 -13.9958 23.0685 -22.1944 11
225 2 2.52471 12.2181 -22.4768 15
226 2 -1.78785 9.60792 -21.5793 11
227 2 -10.4218 26.4587 -19.1442 17
228 2 1.30133 11.9987 -17.552 15
229 2 2.12181 28.1523 -16.5552 12
230 2 -5.2251 29.7412 -24.7451 12
231 2 -4.81359 14.8805 -12.2077 17
232 2 -2.23133 23.8304 29.8032 11
233 2 -0.419668 22.3365 -10.8763 11
234 2 5.01903 25.4851 -21.1529 13
235 2 0.881355 25.9409 -16.7474 20
236 2 -9.08899 13.3419 -15.5636 20
237 2 -0.985707 24.8025 -12.9161 15
238 2 4.68526 21.5443 -11.726 8
239 2 0.0386083 25.1673 -28.6738 10
240 2 -2.20072 21.521 -14.3063 22
241 2 5.11127 16.3514 -13.5493 11
242 2 -13.0538 19.0757 -26.7159 12
243 2 -9.12046 26.1686 -23.705 18
244 2 -10.6264 24.6592 -26.9942 10
245 2 -4.90742 12.5776 -13.8875 16
246 2 0.912901 29.0746 -21.287 10
247 2 -10.4126 19.7469 -28.2739 11
248 2 5.60706 22.158 -17.1765 14
249 2 -10.747 28.599 -21.608 9
250 2 4.14809 18.2172 -19.1039 21
251 2 -7.51716 12.9078 -12.66 15
252 2 -10.3271 13.7901 -26.9229 9
253 2 -6.96535 29.1198 -26.9983 12
254 2 -11.5023 25.4881 -21.8715 14
255 2 -2.07315 16.1671 -10.8084 17
256 2 -13.2648 21.4295 -19.772 14
257 2 -3.36999 23.2352 -11.6246 15
258 2 -12.8599 21.6462 -25.5382 12
259 2 -2.13607 29.0501 -23.852 15
260 2 -6.58032 24.5205 -12.8199 16
261 2 -7.77933 20.8706 29.7765 13
262 2 -4.74757 11.4642 -20.3663 21
263 2 3.65379 21.4909 -14.5964 20
264 2 4.22353 20.7645 -21.1031 19
265 2 0.229923 12.1837 -14.0658 11
266 2 -6.83381 22.0844 -11.1721 14
267 2 -13.8701 16.8631 -24.0548 10
268 2 -10.6256 19.7917 -14.3963 16
269 2 -12.4499 17.7442 -15.3903 13
270 2 -5.24386 11.021 -23.9514 17
271 2 -5.93024 26.8258 -28.7298 15
272 2 1.88562 25.1307 -26.0595 11
273 2 0.0834581 14.6327 -22.9914 20
274 2 3.45901 18.8089 -12.1717 15
275 2 4.59005 24.3754 -13.1157 10
276 2 -4.50906 25.4826 -26.3693 20
277 2 -7.39777 18.3505 -28.9609 13
278 2 -6.99946 29.8157 -17.0206 11
279 2 -8.02075 29.2155 -23.178 12
280 2 -15.1322 19.5751 -24.9399 10
281 2 -9.37687 24.205 -11.8144 10
282 2 2.67233 17.6868 -26.806 14
283 2 -13.0596 24.6624 -24.6635 10
284 2 -8.13228 25.9239 -28.0772 13
285 2 3.37067 15.589 -11.6981 11
286 2 -10.5417 18.6411 -11.2418 10
287 2 -12.1664 14.461 -13.8541 14
288 2 2.48849 14.2583 -14.3676 16
289 2 -14.1293 18.9808 -21.7436 12
290 2 -8.21954 19.4882 -9.68246 9
291 2 -6.3527 9.54509 -18.2805 13
292 2 6.41045 24.525 -18.3443 12
293 2 0.988704 10.7674 -20.4537 13
294 2 -9.28042 27.831 -16.487 13
295 2 -7.95896 23.7637 -29.5007 13
296 2 -7.9387 16.2253 -11.2904 17
297 2 0.733117 14.2576 -11.5381 11
298 2 1.26552 19.93 -25.8925 18
299 2 4.92846 26.5979 -15.5521 11
300 2 3.03723 20.8578 -17.6172 20
301 2 6.39232 16.0417 -22.3248 14
302 2 5.91486 14.0602 -19.6622 13
303 2 4.77493 22.2569 -26.3625 8
304 2 -12.5057 16.1789 -21.0619 17
305 2 5.40459 16.0986 -17.1891 14
306 2 -0.771233 26.1798 -25.2655 19
307 2 6.38424 19.4246 -22.4242 12
308 2 1.98003 26.0078 -23.1084 18
309 2 6.68426 17.2117 -19.5063 13
310 2 4.01274 11.5543 -19.8336 11
311 2 -8.18919 12.3084 -25.5252 12
312 2 -1.97844 29.4803 -20.3748 15
313 2 -1.24049 27.6258 -14.7455 15
314 2 -7.76737 9.86631 -20.481 14
315 2 -4.5211 17.8706 -10.2883 14
316 2 3.85088 23.9649 -16.5555 21
317 2 4.4369 20.1415 -24.4743 16
318 2 -7.53028 24.0651 -25.5071 22
319 2 -12.0731 12.3041 -16.3724 11
320 2 3.62003 15.313 -21.3913 22
321 1 -9.96207 18.9033 -22.7862 18
322 1 -10.4878 15.7907 -21.0093 19
323 1 -4.97864 12.3886 -22.3585 21
324 1 -8.07271 11.8038 -20.6425 19
325 1 -4.21877 18.3303 -25.601 20
326 1 -7.22607 16.9916 -24.0525 21
327 1 -4.52633 15.2574 -24.1925 22
328 1 -7.29977 14.4091 -22.4093 19
329 1 -4.21103 18.3151 -22.2997 23
330 1 -7.64598 17.4432 -20.9303 23
331 1 -4.76241 15.3839 -20.6845 21
332 2 -10.9431 16.5923 -24.3106 18
333 2 -7.17955 12.5254 -22.2177 18
334 2 -9.58593 17.6682 -20.638 21
335 2 -4.9901 8.56465 -21.7522 12
336 2 -4.82552 17.4412 -27.34 18
337 2 -7.57767 18.2465 -25.6669 20
338 2 -5.46334 14.4826 -25.8147 19
339 2 -8.13179 15.1277 -24.0884 22
340 2 -5.23524 17.561 -24.0438 24
341 2 -7.9449 18.4677 -22.7035 22
342 2 -5.01375 14.5627 -22.5766 19
343 2 -6.75502 15.6554 -20.9079 24
344 2 -4.12477 17.1309 -20.8747 20
345 1 -10.4592 18.7469 -19.4079 23
346 1 -9.92632 15.6782 -17.7598 18
347 1 -9.65788 18.8367 -15.8978 19
348 1 -5.25059 12.5619 -18.756 22
349 1 -4.37852 13.3005 -15.4751 21
350 1 -7.94358 14.5072 -19.483 19
351 1 -4.74767 18.2526 -19.2856 20
352 1 -7.15312 17.4062 -17.6902 22
353 1 -4.21573 15.5997 -17.6417 22
354 1 -7.13464 14.4681 -16.093 23
355 1 -4.57689 18.6496 -16.2083 20
356 1 -6.86316 17.6606 -14.4576 21
357 1 -4.34572 15.7773 -14.0061 22
358 1 -4.10975 18.9369 -12.7175 23
359 2 -9.9284 15.0634 -19.5432 18
360 2 -10.1184 17.7161 -17.508 18
361 2 -7.47325 12.6276 -18.6953 21
362 2 -4.2848 12.0193 -17.1243 18
363 2 -6.726 18.2969 -19.3889 24
364 2 -4.5006 14.3217 -19.1979 23
365 2 -7.99089 15.2965 -17.6536 19
366 2 -5.2347 17.2619 -17.667 20
367 2 -7.5035 18.3741 -16.0025 19
368 2 -5.05086 14.9692 -15.8234 21
369 2 -7.36466 15.5462 -14.3356 20
370 2 -4.87386 17.773 -13.883 22
371 2 -7.44511 18.8703 -12.8561 21
372 1 -10.654 21.0708 -23.991 15
373 1 -10.0535 24.6222 -22.6169 19
374 1 -9.71645 21.5777 -21.2091 21
375 1 -4.84275 20.6769 -27.9731 23
376 1 -7.53023 20.1493 -25.9197 22
377 1 -4.42731 23.4996 -26.5288 20
378 1 -7.05309 22.9142 -24.0667 21
379 1 -4.48733 21.014 -24.4454 20
380 1 -6.99663 19.9294 -22.5012 21
381 1 -4.60555 24.2519 -22.9819 23
382 1 -7.34076 23.2836 -20.8849 24
383 1 -4.78671 21.1558 -21.0744 22
384 1 -7.20888 25.9583 -23.1632 20
385 1 -4.42577 26.9819 -21.6444 22
386 2 -8.90772 20.719 -23.0589 19
387 2 -9.25223 23.8128 -21.0417 21
388 2 -3.96942 20.3954 -26.3908 20
389 2 -6.59163 21.1848 -24.5067 21
390 2 -4.0277 22.9018 -24.3317 22
391 2 -6.53341 24.1834 -22.5955 22
392 2 -3.78837 20.1362 -22.8112 22
393 2 -6.83999 21.3126 -21.1457 19
394 2 -4.19045 23.0085 -20.946 19
395 2 -3.85723 26.0745 -23.2042 21
396 2 -6.37112 26.9979 -21.8419 21
397 1 -9.35893 24.595 -19.1186 21
398 1 -9.00323 22.0259 -17.655 21
399 1 -10.9939 23.7145 -16.3534 15
400 1 -7.14713 20.4398 -19.5142 22
401 1 -3.84644 24.2055 -19.505 20
402 1 -6.615 23.5805 -17.7906 21
403 1 -4.33029 21.4982 -17.7951 20
404 1 -7.21927 20.5029 -16.1431 21
405 1 -4.06878 24.4388 -16.4021 19
406 1 -6.97653 23.229 -14.5651 24
407 1 -4.39349 21.4152 -14.8391 21
408 1 -6.93753 20.7857 -12.6372 20
409 1 -6.76013 26.3119 -19.9628 20
410 1 -3.82534 27.1866 -18.4031 22
411 2 -9.18085 20.6372 -19.7936 20
412 2 -10.3023 23.1846 -18.2311 19
413 2 -9.21207 20.578 -16.292 20
414 2 -7.26548 24.5803 -19.1581 20
415 2 -4.36967 20.1608 -19.3305 19
416 2 -7.12368 21.6793 -17.8489 20
417 2 -4.68881 23.4278 -18.0033 22
418 2 -7.32412 24.48 -15.9367 24
419 2 -5.23686 20.5903 -16.2465 25
420 2 -7.84028 21.6937 -14.0466 22
421 2 -4.78337 23.4695 -14.9634 20
422 2 -4.75798 20.8514 -12.8505 20
423 2 -4.4926 26.0916 -19.8664 23
424 2 -7.28497 27.2387 -18.465 20
425 2 -4.34009 26.3733 -16.6411 22
426 1 -2.76285 11.1795 -20.7871 18
427 1 -2.33179 13.5878 -26.1298 13
428 1 -1.59824 17.0077 -24.2019 22
429 1 3.61106 16.0099 -23.2794 20
430 1 -1.93112 14.0787 -22.7238 20
431 1 1.04591 18.1051 -22.6565 20
432 1 -1.94909 17.0309 -20.9395 19
433 1 0.215198 15.2722 -21.1628 20
434 2 -2.7528 12.3861 -22.2227 23
435 2 -2.14323 18.2692 -25.7073 23
436 2 -2.3711 15.0224 -24.5484 20
437 2 -0.25018 15.8894 -26.3044 14
438 2 -1.58659 18.2818 -22.4598 20
439 2 0.54418 17.4393 -24.1883 20
440 2 -1.89199 15.0891 -20.9507 19
441 2 1.2063 17.0576 -20.9763 23
442 2 3.52488 17.8647 -22.7383 20
443 1 -2.20923 14.1241 -19.2371 22
444 1 0.132964 18.3258 -19.1558 20
445 1 -1.82418 17.3145 -17.3489 21
446 1 0.556876 15.2221 -17.7138 21
447 1 -1.47649 14.874 -15.5264 22
448 1 1.33075 18.3365 -16.0108 21
449 1 -1.45434 17.8048 -14.0621 23
450 1 1.74689 16.0858 -14.6641 22
451 2 -1.64688 12.1659 -19.2891 18
452 2 -2.43282 12.9998 -15.6172 18
453 2 -1.6836 18.2037 -19.2671 20
454 2 0.776047 14.2125 -19.5683 19
455 2 -2.24971 15.4116 -17.5126 21
456 2 0.294445 17.1919 -17.5153 20
457 2 -2.37537 18.5124 -15.9423 23
458 2 0.411585 14.67 -15.8248 20
459 2 -2.28891 15.9081 -14.2305 22
460 2 0.436317 17.6163 -14.1749 22
461 2 -1.92458 18.7133 -12.3346 20
462 2 2.71278 15.2919 -17.9505 22
463 1 -1.89081 20.3227 -26.1496 21
464 1 -1.72827 22.9474 -24.6798 20
465 1 0.81755 20.7721 -24.3375 19
466 1 -1.67879 20.2719 -22.6439 21
467 1 0.776257 24.0145 -22.9536 23
468 1 -1.5511 23.0071 -21.5114 20
469 1 0.690794 21.1622 -20.7405 24
470 1 -1.86916 26.1031 -23.2972 22
471 1 3.60611 19.7724 -22.6534 21
472 2 -2.45398 23.5799 -26.4406 20
473 2 -1.38617 21.03 -24.3831 19
474 2 1.33325 22.6995 -24.25 18
475 2 -1.13433 24.2636 -23.0355 21
476 2 1.67879 20.1926 -22.3596 22
477 2 -1.27392 21.0269 -20.8733 19
478 2 1.03994 23.2207 -21.2008 19
479 2 -0.738284 27.1103 -22.0813 19
480 1 -2.2433 20.1459 -19.1655 22
481 1 1.79307 24.4869 -19.6479 20
482 1 -1.08428 23.2392 -18.1483 23
483 1 1.02984 21.1219 -17.5831 19
484 1 -1.47584 20.3502 -15.7478 22
485 1 1.72228 24.0553 -16.5434 21
486 1 -1.21329 23.3424 -14.8082 23
487 1 1.71797 21.2971 -14.4674 22
488 1 -1.10077 20.6596 -12.6582 20
489 1 -1.66169 26.1071 -20.3474 19
490 1 -1.42853 26.0203 -16.8034 21
491 1 3.42407 22.5953 -21.3008 19
492 2 -1.68945 24.1671 -19.8119 21
493 2 1.19823 19.9078 -19.3775 22
494 2 -1.4972 21.128 -17.5521 22
495 2 0.90987 23.0441 -17.9344 21
496 2 -1.86922 24.1796 -16.6229 21
497 2 0.58659 20.2661 -15.744 21
498 2 0.786533 20.3287 -12.7828 20
499 2 0.731 23.3883 -14.9749 21
500 2 -1.88713 26.9463 -18.636 19
