ITEM: TIMESTEP
21000
ITEM: NUMBER OF ATOMS
1000
ITEM: BOX BOUNDS pp pp pp
-30.0 30.0
-30.0 30.0
-30.0 30.0
ITEM: ATOMS id type x y z Coordination
1 1 -8.07985 0.267456 -6.85061 19
2 1 4.77579 -3.12365 8.41079 11
3 1 -14.0638 9.5687 2.76088 15
4 1 -8.96295 14.0557 -6.15631 13
5 1 -6.39795 0.186592 15.8714 10
6 1 -9.45578 7.06773 -9.18541 13
7 1 -4.86675 -6.62706 5.40795 11
8 1 3.36887 4.31974 9.9793 24
9 1 -3.50699 12.2621 10.7186 19
10 1 -8.54645 17.9525 -2.13838 11
11 1 -3.31227 9.44455 16.4057 10
12 1 -10.9227 4.62966 4.98054 20
13 1 -5.66236 5.9933 -7.47223 19
14 1 -3.77425 13.8637 13.4673 10
15 1 -0.426474 -4.2004 9.50635 17
16 1 -14.4115 3.98491 5.33703 16
17 1 -11.0444 7.41915 -0.719888 18
18 1 -5.05696 16.6239 -1.43209 18
19 1 -4.0321 3.44077 -7.35751 16
20 1 4.84808 0.179691 -10.5168 6
21 1 -6.71379 0.522424 12.5765 19
22 1 -11.999 12.125 2.48755 20
23 1 -3.07109 18.2883 1.70869 17
24 1 -0.0581317 -5.85618 3.28779 16
25 1 5.34091 -2.48673 -6.03649 12
26 1 5.23792 6.98761 9.84387 18
27 1 -10.2017 15.9215 0.0495469 15
28 1 -0.546248 11.692 9.46869 23
29 1 0.576135 3.91591 14.717 17
30 1 -11.0742 4.69029 1.11289 19
31 1 7.83155 8.02657 11.3841 11
32 1 4.80995 0.875402 -4.4654 18
33 1 2.23183 7.04217 11.8862 20
34 1 -9.88528 2.17267 0.946565 24
35 1 -7.19493 1.18983 -9.75942 11
36 1 -8.76409 18.8313 4.22528 11
37 1 -6.94637 12.033 -6.49838 18
38 1 4.13282 3.03543 -2.87382 20
39 1 1.80616 -1.58805 9.56536 15
40 1 0.764699 -7.41138 11.1834 7
41 1 -6.9124 16.0839 9.05935 16
42 1 -8.43528 -1.08638 10.2093 16
43 1 -12.3562 7.20238 10.1407 17
44 1 7.00373 -1.43722 -3.66065 16
45 1 -3.49425 6.36655 -12.1717 13
46 1 -0.369419 19.2373 3.18909 12
47 1 -8.96629 12.4306 -1.83411 19
48 1 1.07312 14.7025 4.56388 18
49 1 -5.53199 -2.95602 10.5956 12
50 1 -0.36308 -5.2563 -5.59621 11
51 1 2.68729 -3.00238 -1.04989 16
52 1 -2.85948 9.28266 9.688 19
53 1 -9.83905 1.75877 4.02995 21
54 1 3.47896 -1.85107 2.08583 20
55 1 -12.0392 1.07838 -0.137893 15
56 1 5.34554 -3.02365 4.76982 21
57 1 -6.25905 12.0927 6.18946 20
58 1 0.187516 9.4017 -5.69037 24
59 1 5.0789 1.74032 -0.0535536 18
60 1 -10.145 -5.54274 0.394324 11
61 1 8.07229 15.0483 4.69197 11
62 1 5.77566 9.92786 1.86518 22
63 1 -5.51173 19.3513 -0.403513 11
64 1 -2.72772 -2.3468 -6.7768 15
65 1 -3.60155 16.077 -4.16031 17
66 1 8.96373 4.08635 -3.81335 11
67 1 2.43704 10.4381 -7.85618 19
68 1 3.64675 -0.680389 7.09218 17
69 1 -8.15125 9.92025 -3.81831 20
70 1 3.7243 17.5132 1.06203 14
71 1 11.6911 6.96493 -0.00756765 12
72 1 -6.55843 13.891 -3.14622 20
73 1 -1.79243 3.62148 -11.8584 11
74 1 -12.975 4.07997 -0.534921 18
75 1 -9.82012 16.6452 10.1756 12
76 1 -2.53324 18.498 -1.97688 10
77 1 -1.03639 7.10225 16.2556 14
78 1 -13.5881 -1.356 7.63346 13
79 1 -0.0730956 -6.30685 7.62168 12
80 1 1.29738 14.7475 0.910341 22
81 1 7.0395 10.2096 -0.824455 22
82 1 -1.02749 -1.98761 14.7566 10
83 1 -11.9341 7.07454 3.21535 19
84 1 -5.76201 6.93043 16.1262 12
85 1 -5.15023 12.0959 -8.64476 21
86 1 -7.23369 -1.48945 7.27372 18
87 1 -7.54901 -3.68597 4.8729 17
88 1 3.7013 -0.189793 -1.07612 21
89 1 -7.63461 15.2591 6.32148 18
90 1 -9.40221 6.66547 8.55587 24
91 1 -10.1582 8.89382 -6.6613 13
92 1 -1.08155 -8.38831 1.56681 15
93 1 2.61094 10.1903 -4.11657 21
94 1 2.31873 7.24013 15.2225 13
95 1 -3.36912 10.429 -6.64015 18
96 1 -7.23584 4.19412 -9.15738 14
97 1 -8.18905 15.337 2.7283 18
98 1 5.62381 10.6822 12.617 11
99 1 -5.30957 14.497 -6.00146 18
100 1 0.0551219 11.9751 -7.27044 21
101 1 -11.0267 10.495 10.8381 11
102 1 -6.66798 12.9394 9.22354 19
103 1 -5.27003 -1.25368 -5.07696 21
104 1 5.17644 14.4936 -3.53268 14
105 1 -1.96675 15.6865 -0.576484 21
106 1 -13.9884 9.52283 6.01388 19
107 1 -0.5739 12.4495 13.09 12
108 1 9.61078 6.78636 -2.63925 12
109 1 -2.88816 14.6293 5.74571 14
110 1 -11.9516 13.7986 10.3811 9
111 1 -9.21426 -0.478233 -0.365277 18
112 1 0.492697 4.09848 11.3352 21
113 1 3.14806 -6.03826 -1.92996 11
114 1 -2.18708 5.70553 -8.77588 18
115 1 7.52492 5.21336 -7.87832 9
116 1 -12.7387 1.25074 8.90989 13
117 1 -10.2678 4.92129 -6.19606 20
118 1 -7.11942 2.98949 -6.84262 21
119 1 -15.9103 8.29475 -2.93766 9
120 1 6.52909 4.77242 11.7843 16
121 1 7.29716 -0.19268 10.7062 10
122 1 -4.12512 -0.0997421 10.8287 20
123 1 5.84664 17.2884 3.48652 10
124 1 -3.56369 -3.35619 5.6149 17
125 1 -0.352791 18.3986 5.79736 12
126 1 -2.39576 1.61396 -9.45361 14
127 1 -12.4092 2.26271 -3.42182 12
128 1 -5.19776 -1.32563 4.24738 20
129 1 7.52526 7.20261 7.85998 18
130 1 -9.48189 -0.0295462 13.6547 11
131 1 -4.70811 -5.32793 -0.416709 20
132 1 2.20297 -7.76908 1.61139 9
133 1 4.32043 -4.90773 0.32375 14
134 1 -8.97892 16.8111 -5.26025 7
135 1 7.30833 10.4108 6.38777 14
136 1 -10.8338 7.44782 -4.20916 17
137 1 -4.48974 9.26623 -12.5963 14
138 1 -6.53275 1.46936 9.25278 20
139 1 -0.520532 17.5085 9.53788 10
140 1 9.03474 4.36607 6.43456 16
141 1 -11.043 3.53802 7.93244 22
142 1 -9.45806 1.71921 10.9049 19
143 1 -10.3066 16.1205 4.99423 15
144 1 2.39481 1.739 -9.07862 15
145 1 0.371269 -0.817563 2.01621 20
146 1 5.20517 4.5106 -9.23019 14
147 1 -12.3704 1.36473 5.67647 21
148 1 7.67608 -1.39995 -0.974983 14
149 1 -7.43223 14.6603 -0.348049 22
150 1 -8.48863 9.71346 6.338 21
151 1 2.14832 1.39804 11.5832 19
152 1 -1.07403 14.0212 8.16821 17
153 1 -9.40639 2.0521 -2.12852 21
154 1 -9.3889 18.2517 7.50304 13
155 1 -12.9881 9.15718 -4.28964 15
156 1 -14.9488 6.01042 7.52685 13
157 1 -7.46986 0.708895 -3.85753 19
158 1 -9.21105 12.912 4.64335 19
159 1 8.44872 2.89841 10.8059 15
160 1 1.29437 -0.583781 13.789 12
161 1 -2.8109 4.68377 13.4939 21
162 1 0.510051 -4.69835 -2.8298 21
163 1 -4.67564 0.287116 -7.72987 18
164 1 -14.9114 4.05881 1.26707 11
165 1 -4.06795 -2.58766 -0.199604 19
166 1 9.20954 9.87 -3.39193 14
167 1 -7.1547 15.9806 -8.22649 10
168 1 -8.98448 12.6529 7.77246 17
169 1 -6.15701 17.7781 6.29928 14
170 1 -9.39527 13.3426 11.101 14
171 1 7.20218 1.69406 -2.58365 20
172 1 1.74557 9.38272 -10.3568 12
173 1 -1.77203 -3.83416 -1.59517 20
174 1 -5.12982 14.8934 4.53733 18
175 1 -13.839 9.71852 -0.586701 13
176 1 2.70868 -5.02361 4.57064 15
177 1 9.43418 5.65428 9.53587 12
178 1 -13.6534 4.37329 -4.77694 14
179 1 -1.23213 -2.79334 3.80345 14
180 1 -6.23561 18.1942 2.94796 17
181 1 -12.0194 13.3568 -0.285433 13
182 1 -7.95291 -2.1724 -4.38184 14
183 1 2.2324 1.88619 8.65516 20
184 1 -4.06578 -7.08601 2.58086 13
185 1 -10.7914 12.0704 -4.02618 12
186 1 -1.7519 -7.76506 5.23475 9
187 1 -6.67396 7.54574 8.96211 20
188 1 -11.4684 9.4026 8.14146 18
189 1 -0.507267 0.616803 -3.82768 21
190 1 -13.7641 4.25455 9.19071 13
191 1 -5.57096 3.38934 11.2281 21
192 1 -8.21639 4.09699 9.62788 20
193 1 0.364843 -1.53529 -1.80877 22
194 1 5.07532 -5.18385 6.62628 12
195 1 3.20978 16.0504 -1.31788 16
196 1 -10.3295 -3.67071 2.98515 13
197 1 7.53407 -2.49046 7.68119 13
198 1 6.9948 4.88882 1.57658 17
199 1 0.137803 6.50557 -7.50881 22
200 1 10.7623 2.80315 8.35576 9
201 1 -11.8177 2.65498 14.219 7
202 1 1.80202 17.2005 2.82344 16
203 1 6.06951 -0.359407 4.70806 20
204 1 -5.06937 -7.23939 -3.01852 9
205 1 2.44377 11.9759 11.7567 15
206 1 -12.7539 6.24612 13.1771 7
207 1 -2.9877 -4.16293 -4.68734 17
208 1 -11.4134 1.37683 -6.05774 13
209 1 -11.8157 15.7579 8.34448 10
210 1 -2.04517 -5.21442 1.40196 19
211 1 -9.58712 0.467214 7.62681 22
212 1 6.42898 4.43055 8.20207 22
213 1 9.50625 8.61003 5.03759 11
214 1 1.80435 14.5526 -7.87681 9
215 1 -2.5482 12.9981 -5.44368 19
216 1 -7.82052 15.754 12.4856 9
217 1 -14.4482 -2.02464 4.10767 13
218 1 7.10871 12.2298 -2.51885 17
219 1 -9.9811 2.65518 -8.5705 12
220 1 -0.553507 0.472668 -7.31771 15
221 1 10.165 12.4533 -1.09333 13
222 1 2.43229 11.8777 1.41255 21
223 1 -0.440763 6.89553 -10.6724 18
224 1 0.459653 -2.96112 6.84379 20
225 1 -7.35907 10.1698 -11.2216 12
226 1 10.3004 12.846 2.26841 10
227 1 5.36141 2.42967 2.88378 18
228 1 -4.33976 8.64026 -9.61626 21
229 1 2.8685 0.951268 4.29543 23
230 1 -5.94241 3.60999 16.7268 12
231 1 -7.08781 8.87623 -8.13316 20
232 1 -0.995813 9.18334 -8.3746 22
233 1 -15.6614 1.55428 3.64833 11
234 1 9.84849 4.46182 0.918729 17
235 1 -5.13743 11.9976 -3.9187 21
236 1 0.0265834 -2.49706 -5.25869 18
237 1 0.325051 11.9023 -10.8725 13
238 1 8.26554 -0.880984 -7.76713 6
239 1 -11.3324 -2.0259 9.67986 12
240 1 -4.68094 15.7328 1.63706 19
241 1 -0.315499 11.8876 -4.02658 21
242 1 10.3366 9.4769 -0.233731 16
243 1 0.887859 -3.72561 1.70486 21
244 1 2.2209 4.22637 -7.39734 21
245 1 12.2236 4.0387 2.17156 10
246 1 -1.51816 -1.75381 8.63946 21
247 1 -14.3601 9.12284 9.06469 10
248 1 -10.9537 5.08422 -2.53831 17
249 1 -4.16399 -1.14264 13.8746 16
250 1 -1.3882 14.0843 -9.28082 13
251 1 -7.91282 18.3115 0.756681 14
252 1 -0.931661 17.2384 -4.88441 11
253 1 -2.44154 10.401 13.1691 15
254 1 0.241319 -6.60515 -0.707217 19
255 1 2.06314 4.50754 -3.94698 19
256 1 -12.891 -3.77852 1.47749 9
257 1 -11.0878 9.91334 1.07903 21
258 1 -12.5661 -3.32281 6.18245 10
259 1 4.74717 13.061 -0.0475585 22
260 1 2.81367 -3.99923 -5.71416 11
261 1 -4.25564 1.82339 13.5211 18
262 1 5.06687 5.5974 -5.65385 18
263 1 -14.0301 12.3121 7.87732 12
264 1 11.0962 1.24097 -0.087006 10
265 1 1.10051 14.415 10.3725 12
266 1 -2.90255 7.19103 -5.93451 22
267 1 6.01105 11.1062 -5.25912 16
268 1 -8.02791 4.53682 -3.86564 18
269 1 -9.39266 -3.52245 -2.33372 12
270 1 11.7307 9.29905 2.57939 11
271 1 7.96678 1.61432 -5.91349 14
272 1 5.32372 -3.78089 -3.05754 12
273 1 7.25612 13.0002 0.80534 21
274 1 -11.2104 9.92539 4.47048 23
275 1 9.88974 6.55511 -5.6238 7
276 1 -8.23477 3.68303 12.6662 18
277 1 4.79627 7.4217 13.2892 14
278 1 -13.2707 3.75451 -7.68825 9
279 1 8.06967 12.1465 4.10991 17
280 1 10.922 1.76679 2.63539 11
281 1 0.826436 15.9179 7.32166 14
282 1 0.0265963 9.51686 11.3795 20
283 1 -5.88069 12.0195 -0.348931 20
284 1 -1.99322 -6.45791 -3.00473 17
285 1 -5.90148 12.3715 -11.996 11
286 1 -8.16586 13.4691 -9.50356 12
287 1 -15.471 7.1884 0.585826 12
288 1 8.59246 -3.62919 4.78092 11
289 1 0.937447 -4.25555 12.6051 8
290 1 4.84887 9.18297 -6.37139 16
291 1 11.6969 4.6385 5.34872 9
292 1 6.31701 15.8046 7.29241 8
293 1 8.23883 1.86896 4.49814 17
294 1 -7.27465 12.2955 13.6181 9
295 1 -7.47895 -2.91591 -0.135136 18
296 1 -12.691 7.0756 -7.22769 13
297 1 3.09103 4.33749 12.8329 19
298 1 -3.38982 16.55 8.84364 14
299 1 5.37232 8.52123 5.0756 21
300 1 3.29374 9.5277 9.7347 17
301 1 -10.5652 -1.33631 5.3312 19
302 1 2.17821 4.95159 -10.7093 12
303 1 -2.61282 -1.70309 -3.56987 23
304 1 4.38323 13.5059 9.81847 14
305 1 2.17347 11.6734 8.05088 21
306 1 -4.023 7.76208 13.9243 18
307 1 -7.1864 6.74915 11.7632 22
308 1 -8.87723 5.86872 14.492 13
309 1 -3.20645 12.8153 -2.26061 20
310 1 7.13458 15.8527 1.1644 16
311 1 2.04762 15.0615 -4.05348 15
312 1 -7.59908 -5.94012 3.14731 12
313 1 3.27917 9.29986 6.41005 20
314 1 -12.2345 11.8486 5.94819 20
315 1 3.36124 12.905 -5.77985 16
316 1 -0.809249 6.46653 13.3355 17
317 1 3.67357 14.266 5.98562 19
318 1 -5.313 1.8211 -4.38769 20
319 1 3.08784 -1.26805 -4.19347 21
320 1 3.62853 17.6511 5.18878 10
321 1 -15.1461 2.08196 7.31058 12
322 1 1.18523 -7.83901 4.61537 11
323 1 3.07211 7.13061 -9.1648 19
324 1 -0.214909 3.45361 -9.27117 17
325 1 1.96923 1.64284 -5.64841 20
326 1 -5.02045 14.9459 11.1956 16
327 1 -1.63082 1.44946 14.8164 16
328 1 -10.5155 -0.530789 -4.03076 15
329 1 -5.50598 9.80419 11.2645 21
330 1 6.01771 4.62189 4.81766 18
331 1 -0.151769 14.6966 -2.3934 16
332 1 5.24765 10.1975 -8.82708 10
333 1 6.00625 8.71591 -3.45348 19
334 1 -2.92336 11.4442 -10.6986 14
335 1 -3.70019 6.42227 10.901 20
336 1 -1.91335 -2.60193 11.7078 14
337 1 2.47892 -1.089 -7.87134 14
338 1 -12.8284 15.4003 2.12659 9
339 1 5.17227 11.5699 6.84481 20
340 1 -11.3008 -0.557451 2.56359 21
341 1 -0.507872 14.7979 -6.33373 18
342 1 -3.48401 6.09869 17.9664 10
343 1 -14.5598 -1.5046 1.49154 8
344 1 6.33244 4.85558 -1.33021 15
345 1 -5.2159 -4.23147 2.45747 21
346 1 9.45488 -1.15601 5.05388 10
347 1 2.02779 -1.79555 4.60565 18
348 1 -2.20122 16.2507 11.9435 9
349 1 -7.58814 8.82237 13.7588 12
350 1 4.21986 5.955 7.02193 19
351 1 6.75925 -3.33057 2.15742 16
352 1 2.73526 12.0113 4.61383 21
353 1 -3.21145 17.8473 4.58258 15
354 1 -1.31284 1.31934 11.6349 19
355 1 -15.1865 6.5297 -5.68737 10
356 1 0.177499 9.64907 15.0525 13
357 1 4.0332 14.7088 2.22991 23
358 1 6.3823 2.9934 13.6446 10
359 1 5.53388 1.90288 9.99265 20
360 1 7.70659 13.2374 7.96476 10
361 1 -6.03679 -2.32428 -7.84977 10
362 1 -6.35092 6.8926 -10.5705 13
363 1 -8.66098 2.26277 15.1437 14
364 1 10.0842 6.72835 2.89693 16
365 1 -3.31559 16.1332 -7.66251 13
366 1 4.76823 2.98656 -6.32796 17
367 1 -7.36641 -5.92451 -0.270005 12
368 1 -7.88899 6.66409 -6.05499 22
369 1 -0.517663 3.65026 -5.66317 22
370 1 -5.17717 -3.46861 -3.14397 19
371 1 -2.55303 3.36824 16.8605 10
372 1 -3.56166 -5.47268 8.747 10
373 1 7.87982 8.84955 -6.80508 13
374 1 -12.8411 14.8505 5.66154 12
375 1 9.5186 -1.15035 2.07247 13
376 1 -15.2726 6.8195 3.7141 12
377 1 8.40411 7.2795 0.458468 20
378 1 3.16751 10.4314 14.1839 11
379 1 -15.621 5.43432 -2.22007 11
380 1 -5.70638 8.97344 -5.53766 21
381 1 9.79107 0.860355 -3.32948 11
382 1 -7.05681 -0.757212 -1.61257 21
383 1 -9.48852 -3.05871 7.57209 14
384 1 5.19558 2.08065 6.4302 18
385 1 -12.2832 6.57982 6.51536 20
386 1 -4.94439 14.8496 -9.9535 12
387 1 4.46282 0.189056 12.9706 10
388 1 -11.378 4.48551 11.0393 17
389 1 -2.88678 1.17812 -5.53947 22
390 1 -6.21171 -4.27733 7.84205 14
391 1 3.54478 2.05482 15.0361 10
392 1 -2.38496 -8.19321 -0.786358 13
393 1 7.567 2.0128 -9.3558 10
394 1 -14.5899 12.6339 4.04009 13
395 1 -9.6345 7.72538 11.588 17
396 1 0.361942 -8.13775 -3.53464 10
397 1 8.45415 14.9909 -2.09034 11
398 1 8.80983 10.0063 2.6052 18
399 1 -5.62083 5.16454 14.2654 19
400 1 6.26063 17.1574 -1.88374 9
401 1 2.36439 7.48709 -5.71088 22
402 1 -11.1248 9.82072 -2.43364 17
403 1 2.43045 12.6475 -2.25295 21
404 1 5.27993 12.0725 3.45944 21
405 1 -0.0399751 17.3586 0.659191 16
406 1 -8.32819 9.96464 9.44134 19
407 1 5.08407 7.56802 -0.51569 17
408 1 2.2146 -5.52059 8.51947 13
409 1 5.94801 10.1494 9.45357 18
410 1 5.8886 -0.574986 1.69306 18
411 1 -9.91503 14.8374 -3.18757 14
412 1 -3.37027 12.6804 7.53572 20
413 1 -1.41795 15.7861 2.78519 22
414 1 -4.76362 -1.43574 8.06724 20
415 1 6.09045 -5.82078 3.10883 10
416 1 -4.48138 2.76475 -11.9226 7
417 1 -12.6784 2.7334 2.84384 19
418 1 -9.28235 12.7755 1.37585 21
419 1 7.77352 0.775096 7.93339 15
420 1 -8.07419 -0.521075 2.25238 19
421 1 8.02512 1.54819 0.437861 19
422 1 -1.24455 9.31525 -12.2899 11
423 2 -15.4482 8.04532 -4.74579 10
424 2 -6.05325 19.2668 1.44198 12
425 2 -3.54472 4.54751 -12.4127 8
426 2 -2.72835 6.67109 12.8086 18
427 2 -8.42709 2.60776 -9.40485 12
428 2 1.96317 9.19324 15.1085 12
429 2 -11.998 4.73843 6.8091 20
430 2 3.70085 13.639 3.83414 19
431 2 -15.1812 5.2803 -4.14235 9
432 2 -10.7631 6.34125 1.89398 18
433 2 -4.7203 -4.2645 9.36113 11
434 2 -0.614073 10.5104 13.219 16
435 2 7.73128 3.7188 -9.03175 8
436 2 -6.41989 18.9725 4.95676 11
437 2 10.1855 8.59777 2.95101 15
438 2 -14.1407 -2.08103 5.94465 11
439 2 -0.0583058 -6.98853 5.85074 12
440 2 7.97462 1.45913 9.89996 12
441 2 -12.2049 15.2906 3.91634 14
442 2 -9.14568 10.446 -2.04924 17
443 2 -5.32748 12.2014 7.85069 17
444 2 8.075 0.096535 -3.4715 14
445 2 -6.17749 7.19607 -5.76729 21
446 2 -0.971863 -1.54489 -7.13667 15
447 2 8.00435 0.820035 -7.69116 8
448 2 10.5075 10.6514 -1.94606 11
449 2 -9.90593 17.913 5.62132 13
450 2 -8.87247 -0.252759 -5.06217 16
451 2 -0.522952 -0.373113 15.1199 11
452 2 5.07742 4.10517 6.66205 19
453 2 -15.2673 5.82793 2.04517 14
454 2 4.7789 16.1146 5.82337 12
455 2 3.29367 -1.91894 8.73294 14
456 2 -2.91612 14.8936 7.80359 20
457 2 3.0355 15.3795 0.483207 20
458 2 0.418011 12.5994 -2.29649 22
459 2 -11.1727 6.60697 11.9852 15
460 2 2.12928 6.44506 -7.51454 20
461 2 -14.2867 8.82399 0.998803 14
462 2 -14.923 4.08482 7.4895 15
463 2 -8.81912 -4.62375 3.90213 12
464 2 -3.30772 -1.76493 4.34692 17
465 2 -4.60338 4.7536 17.0959 11
466 2 -5.21119 13.2501 10.4999 20
467 2 -10.6117 6.59363 4.87423 18
468 2 2.55447 -2.23557 -6.37592 13
469 2 3.57222 2.52475 -7.73087 19
470 2 -0.586286 -7.72356 3.2957 13
471 2 0.407899 12.4404 7.99985 20
472 2 7.64353 -1.90588 0.930771 14
473 2 0.426638 2.29226 11.7034 20
474 2 -8.05721 1.39209 6.67893 17
475 2 8.39579 9.21755 0.258192 22
476 2 1.87273 -1.05428 6.37435 20
477 2 9.90135 0.580427 3.8603 11
478 2 -9.88514 0.956346 -7.27289 14
479 2 -6.01113 -1.09491 5.80916 19
480 2 -3.6901 -4.52066 1.20252 17
481 2 -3.64971 -3.92864 -1.61615 21
482 2 -5.34366 11.8742 1.43262 18
483 2 -0.496306 7.44311 -5.84534 21
484 2 6.98155 11.5635 2.48044 19
485 2 -1.40108 12.2054 -10.258 14
486 2 -7.16207 10.5488 13.251 9
487 2 -12.087 10.1409 2.94186 20
488 2 -9.85353 9.21231 10.6709 19
489 2 -10.9737 12.318 11.5649 9
490 2 4.92632 7.54092 -2.28997 17
491 2 10.6817 1.3117 -1.79156 10
492 2 5.3423 6.59053 4.73491 20
493 2 -5.87963 16.041 5.96457 19
494 2 -8.20515 11.8777 6.20748 19
495 2 7.98246 3.59949 4.98708 20
496 2 -3.12997 15.8483 4.48331 18
497 2 -1.65813 16.6719 -6.39307 12
498 2 -2.39336 12.194 9.02823 19
499 2 -0.899356 4.49665 13.0962 19
500 2 -0.569107 4.69985 -7.83145 20
501 2 -5.98566 7.64608 14.4093 16
502 2 3.39585 9.09706 -9.1887 15
503 2 -9.30779 -1.24984 6.71548 19
504 2 2.14136 -2.74817 0.734927 17
505 2 4.58828 -3.91459 -4.78817 12
506 2 0.417881 -2.70615 4.78715 18
507 2 6.60463 9.30882 -8.16385 9
508 2 -2.77252 10.284 -12.0464 14
509 2 -8.89564 14.6781 4.82776 21
510 2 -6.31296 -4.3126 0.479814 18
511 2 -4.66078 12.644 -10.6734 16
512 2 0.980851 18.168 4.35264 15
513 2 -6.6552 5.28609 15.8793 15
514 2 -1.04095 -4.96061 -0.298715 23
515 2 4.44218 11.3778 9.41619 17
516 2 6.44621 1.47 1.71451 17
517 2 5.07058 9.56452 6.64249 22
518 2 -6.26206 10.0947 -6.84919 20
519 2 -3.63142 1.72399 15.6831 14
520 2 -1.90436 1.82736 9.61168 21
521 2 7.40801 -1.37727 9.11603 11
522 2 -6.85407 17.9792 -0.902304 11
523 2 -9.61059 -2.33837 -3.61649 12
524 2 -3.47427 5.69289 -7.36769 17
525 2 -6.75813 0.206344 -8.14904 16
526 2 3.79443 17.1199 3.18762 16
527 2 -9.19101 -2.15771 -0.992563 18
528 2 -13.7776 7.30884 8.29141 15
529 2 6.01542 -3.46054 6.92738 14
530 2 -4.44123 -5.21101 -3.586 13
531 2 -1.6334 7.41332 -11.849 15
532 2 -7.94536 5.87423 -9.93852 13
533 2 -5.88924 2.16024 -10.8643 11
534 2 -9.10116 3.98004 14.3851 14
535 2 -6.52033 -1.15717 -3.61195 20
536 2 1.58871 0.539938 -7.35859 16
537 2 1.44665 3.72266 -5.62428 21
538 2 -8.63288 1.31422 2.67659 20
539 2 -0.789146 4.78825 -10.6034 16
540 2 -2.08215 -2.04692 -1.61105 21
541 2 0.388828 10.0603 -11.4217 12
542 2 3.28287 12.478 6.78104 21
543 2 8.0816 7.08271 9.67619 14
544 2 -14.1347 0.520763 7.67045 10
545 2 -1.79963 -5.17819 8.51948 14
546 2 -3.64377 9.15729 -5.29461 22
547 2 -4.81706 -5.111 6.7686 13
548 2 -8.41589 12.1008 2.87979 21
549 2 -8.77573 -1.02488 12.0201 12
550 2 0.897775 -2.24617 13.4085 9
551 2 -14.9008 1.61638 5.42829 13
552 2 -8.97023 -5.15244 -1.20416 11
553 2 -8.55124 0.669817 9.27947 19
554 2 5.02677 1.80026 13.8112 12
555 2 -3.05334 15.2004 -9.27292 12
556 2 5.71704 17.6799 1.4965 12
557 2 9.19998 8.03795 -4.12085 12
558 2 -1.14436 17.7059 2.27832 17
559 2 -12.1073 4.32292 -3.56105 18
560 2 -11.4407 5.39745 -0.793269 15
561 2 -3.1287 -7.76592 0.96 15
562 2 3.313 1.71943 7.08573 21
563 2 8.91649 -2.42997 6.23558 12
564 2 -8.37351 17.4935 2.78927 15
565 2 6.62663 6.28786 -0.129107 18
566 2 0.365772 6.94909 15.0316 13
567 2 -0.459506 14.6937 6.13982 17
568 2 -3.45211 9.39045 14.464 14
569 2 -11.9556 10.025 6.35326 20
570 2 3.27851 14.4819 -2.62469 16
571 2 -11.169 3.85535 -7.64879 12
572 2 -8.95276 4.01747 -2.30056 19
573 2 -11.2539 1.61106 7.35204 22
574 2 7.14389 15.8018 3.20842 13
575 2 8.34983 10.1888 4.65803 16
576 2 8.97637 -2.29074 3.59642 13
577 2 -14.7731 2.79228 2.6156 13
578 2 -5.89318 15.9514 0.0973519 23
579 2 -5.21816 12.4467 -2.13888 19
580 2 -1.43473 10.3196 -6.87742 20
581 2 -13.2289 13.5567 9.22381 10
582 2 -11.1867 0.235608 4.45279 17
583 2 4.49075 -5.80707 4.95597 11
584 2 3.3602 2.00877 2.35309 20
585 2 -8.94851 14.8508 0.951009 18
586 2 -11.7812 10.579 -4.12588 14
587 2 1.96154 -0.446948 3.11836 20
588 2 4.02861 11.3162 12.4664 13
589 2 -4.79264 7.61222 -11.4779 13
590 2 -3.52409 14.5315 -5.54804 19
591 2 1.94428 12.6652 -7.4296 13
592 2 -2.75586 15.5437 1.27463 18
593 2 -12.4012 4.24793 13.2831 9
594 2 -4.52289 1.71364 11.5467 22
595 2 -15.1404 4.27168 -0.832931 11
596 2 -0.65189 12.9487 -5.63684 23
597 2 5.02406 3.45235 -0.953387 21
598 2 0.27302 7.46282 11.4756 19
599 2 -0.666419 1.59144 -8.85523 14
600 2 5.0028 8.95942 3.36696 16
601 2 3.93285 11.1073 2.23692 19
602 2 -12.4256 3.38989 4.68725 21
603 2 -4.00869 18.8276 -1.2166 10
604 2 -5.52509 13.093 13.4524 12
605 2 0.492169 -6.91949 1.21919 16
606 2 -5.60067 -3.43087 3.95767 15
607 2 5.03567 4.45212 13.0511 14
608 2 6.50312 9.03167 -5.33863 16
609 2 0.607408 15.4996 2.63712 20
610 2 1.49365 0.393905 9.75495 18
611 2 6.41214 -2.4541 -2.28307 13
612 2 -3.59139 10.2608 -9.01004 18
613 2 -2.5691 12.599 12.758 15
614 2 -0.827006 9.89884 9.37955 21
615 2 4.52359 -1.35575 5.65694 19
616 2 -5.42307 7.48781 -8.67093 18
617 2 5.67728 4.83295 -7.37968 15
618 2 -6.14838 15.0285 2.68797 18
619 2 -1.22256 -4.45767 -3.71746 22
620 2 -1.41086 9.08237 16.562 12
621 2 -7.42866 12.0375 -10.1954 12
622 2 9.00861 2.43196 -4.70541 10
623 2 1.91209 18.3979 1.2462 15
624 2 10.4636 11.0775 2.58572 14
625 2 8.56034 8.14473 6.51909 14
626 2 -9.33127 6.08905 -4.68345 16
627 2 -11.7301 15.0198 0.592971 11
628 2 -11.1907 7.98752 -2.51942 18
629 2 7.33937 10.0977 -2.68513 16
630 2 -14.5297 10.3241 4.33339 15
631 2 -2.51372 -1.37283 10.3935 21
632 2 2.11766 4.81134 11.3418 22
633 2 1.40982 -6.66684 -2.2898 14
634 2 -3.67769 3.09661 -5.34728 21
635 2 4.42831 17.3643 -1.25018 11
636 2 7.71597 16.0743 -0.665333 11
637 2 -7.32107 2.17598 -5.19852 19
638 2 -11.5438 1.0466 -4.25614 12
639 2 8.63794 5.97169 1.87615 15
640 2 -7.83865 12.523 -0.145314 18
641 2 1.17316 -7.20419 9.06446 9
642 2 5.89561 -1.75692 3.23148 17
643 2 -9.46146 -2.29632 9.24897 12
644 2 -7.71531 1.09769 -1.80984 21
645 2 0.491244 12.8389 11.611 15
646 2 -0.0331544 15.5389 -0.329693 17
647 2 -11.2377 15.4894 6.54219 16
648 2 -8.13208 0.0189347 14.9308 9
649 2 -4.44424 17.5193 2.82879 18
650 2 -0.863605 -4.1904 2.64307 13
651 2 -2.4781 1.26216 12.9703 19
652 2 3.18469 6.68667 13.6757 15
653 2 -14.5436 10.4227 7.59174 11
654 2 -3.52992 10.2775 11.4322 20
655 2 -4.81812 0.631589 -5.82909 21
656 2 11.2715 2.84839 1.11379 11
657 2 5.16962 -1.19557 -4.42374 17
658 2 -8.06337 14.3026 -2.21651 18
659 2 -8.65508 7.42884 13.3108 14
660 2 -14.3486 9.39265 -2.31326 11
661 2 7.86299 3.91008 -2.40027 18
662 2 3.51226 11.8749 -0.494064 20
663 2 -6.51591 9.69224 9.55727 20
664 2 -4.28889 12.1757 -6.88865 17
665 2 -15.8792 7.16672 -1.26824 10
666 2 -5.61924 4.02117 -7.87915 19
667 2 -2.89868 11.9784 -4.02568 21
668 2 -8.55511 4.22124 -6.72977 18
669 2 5.96714 1.64319 -5.81937 17
670 2 -5.9158 -2.74084 -1.39581 20
671 2 -5.61597 0.189892 14.1543 16
672 2 5.74225 4.4269 9.94313 23
673 2 7.0853 -2.03351 -7.07331 7
674 2 0.73777 -4.68397 7.62444 15
675 2 9.05391 13.7307 3.6713 13
676 2 -7.5031 14.3401 8.06285 17
677 2 -9.72465 -1.2127 1.6151 19
678 2 6.31428 11.8583 -0.539188 17
679 2 -0.877213 -0.320502 7.37775 17
680 2 -13.7893 12.9555 5.84422 14
681 2 2.08068 6.41816 -3.96728 21
682 2 2.14478 9.60553 8.15568 20
683 2 -15.1472 5.86784 5.49414 11
684 2 -5.10645 15.2003 -3.2707 15
685 2 1.4677 6.85916 -10.5372 14
686 2 -8.03476 6.59554 10.0447 20
687 2 -6.55016 4.88208 12.423 21
688 2 8.39478 5.28184 8.00513 15
689 2 -1.23289 7.28939 -8.73528 18
690 2 -10.2901 0.964617 -0.518614 20
691 2 5.96128 1.47536 -10.2086 8
692 2 -1.52593 -3.74857 -6.35075 12
693 2 -12.6436 9.43327 9.77821 15
694 2 -9.28646 4.10658 7.9697 21
695 2 3.1735 -6.56736 0.080047 11
696 2 -3.79945 -2.51538 -4.9244 20
697 2 -0.84538 -7.87635 -1.88975 13
698 2 10.1567 6.76152 -0.934164 15
699 2 -9.96062 13.5989 -4.81555 14
700 2 2.11455 15.2817 6.03885 18
701 2 -3.33517 -7.46224 -2.21953 14
702 2 3.38809 7.54763 10.2534 18
703 2 -3.71777 15.4022 12.6438 10
704 2 -8.05525 15.679 -6.65488 12
705 2 -0.307547 -6.9172 -4.81106 10
706 2 -5.44582 -5.97612 3.65383 14
707 2 -11.0397 12.0523 4.43339 22
708 2 4.52305 10.1468 -4.54611 20
709 2 -5.30643 15.656 -7.75214 12
710 2 2.5775 12.0987 -4.18756 20
711 2 -3.40796 1.68903 -8.0666 15
712 2 -0.540491 -1.50003 -3.78193 23
713 2 -13.6775 5.53836 -6.35424 11
714 2 6.01362 14.4034 8.96176 11
715 2 -5.81746 10.5698 -12.1753 12
716 2 -11.9228 -2.70487 7.83192 12
717 2 7.77524 0.25252 5.54816 15
718 2 1.81431 10.146 11.2041 18
719 2 4.29187 7.51509 -5.93811 19
720 2 -2.04372 14.1418 -1.87983 18
721 2 -2.57529 17.5923 -3.72777 12
722 2 11.4813 3.18293 3.88001 13
723 2 5.99367 12.7345 -4.0847 14
724 2 -3.98526 7.53088 16.7509 12
725 2 -0.534494 1.59787 -5.64632 19
726 2 4.9791 9.28456 13.739 10
727 2 -10.6152 17.2312 8.64642 10
728 2 7.20062 -4.45366 3.67789 12
729 2 0.871894 -3.51953 -1.35018 17
730 2 -5.09461 16.1328 9.56586 14
731 2 2.4292 0.495578 13.2086 13
732 2 -9.45972 16.9239 -3.42836 10
733 2 -2.2911 17.3818 10.2937 9
734 2 -10.8777 13.092 -2.08338 15
735 2 0.149122 15.8051 -3.95132 15
736 2 -13.0764 2.33851 -6.46004 11
737 2 1.58932 3.7278 -9.33153 17
738 2 -9.72877 10.2851 7.90313 18
739 2 9.79641 0.500644 1.13701 15
740 2 -9.47321 17.6152 -0.414561 11
741 2 -13.1855 5.50445 10.5421 13
742 2 -6.81584 -2.41245 -6.0518 14
743 2 2.59209 13.5497 10.4476 13
744 2 -4.27712 -1.57578 -7.99928 13
745 2 -6.6491 14.746 -9.50994 12
746 2 -0.0498341 14.467 -8.21439 12
747 2 -7.2722 8.60383 -10.0243 14
748 2 -13.5085 13.1289 2.73217 14
749 2 -10.5124 14.8856 10.2745 15
750 2 1.88939 14.5921 -5.84836 13
751 2 -8.42048 -6.27255 1.45375 12
752 2 3.97629 4.42774 -4.67379 20
753 2 2.87468 0.653262 -4.44507 22
754 2 -7.52881 -3.53856 6.88987 13
755 2 -10.8225 11.8697 1.10811 19
756 2 -12.5479 -0.440771 9.31014 9
757 2 -6.34229 10.4997 -3.55207 20
758 2 1.11724 -5.99941 12.2667 7
759 2 7.14316 9.68221 10.8426 11
760 2 3.51597 2.19853 10.094 18
761 2 -9.45853 3.8761 11.0126 20
762 2 5.11679 11.2735 -7.18927 13
763 2 0.295153 15.5683 9.35909 15
764 2 -11.155 -4.49869 1.3829 10
765 2 -11.2869 -3.07512 4.45853 16
766 2 -11.092 7.26728 8.11192 21
767 2 -6.42891 13.0938 -5.1465 20
768 2 -11.9999 2.5785 -1.47206 15
769 2 -7.74873 17.2203 7.29984 16
770 2 6.47844 2.05294 7.93177 20
771 2 6.2046 12.0388 5.19943 20
772 2 -3.31804 -7.14244 4.47466 12
773 2 -15.1775 -0.516123 3.06629 9
774 2 -13.5047 7.7745 3.74179 15
775 2 -5.27446 7.53849 10.9582 19
776 2 -1.98237 5.3217 16.948 11
777 2 -2.99321 -1.98719 7.40831 21
778 2 5.78231 6.4415 8.08885 19
779 2 2.37389 -0.825204 -2.31241 18
780 2 -4.85909 13.0294 4.16979 18
781 2 -9.23947 8.99104 -4.86448 19
782 2 -6.36621 3.40896 9.39262 23
783 2 -2.38756 -1.89097 13.4273 14
784 2 -10.5317 1.60428 13.5954 12
785 2 -4.3088 3.70265 13.9407 17
786 2 2.18021 9.40933 -6.11881 23
787 2 6.8341 11.4969 7.76562 15
788 2 3.84316 5.38069 -10.2011 10
789 2 7.58086 3.11524 12.2068 11
790 2 11.8406 8.70246 0.64467 12
791 2 6.86991 0.539451 -0.715848 19
792 2 -0.311124 17.5858 7.49885 12
793 2 10.7594 6.15114 4.64177 13
794 2 -5.38884 -1.29756 11.8243 17
795 2 -7.30654 2.29185 16.5126 9
796 2 -7.96421 1.83066 12.0318 20
797 2 2.08405 -6.83204 3.39677 12
798 2 5.51956 0.260123 11.2446 13
799 2 10.7708 3.76282 6.71731 10
800 2 -0.507239 -3.63276 11.2165 14
801 2 -8.78021 12.0598 9.58562 16
802 2 5.27608 9.42256 -0.206467 21
803 2 3.37635 3.6674e-04 -9.2238 7
804 2 1.12487 -4.0159 -4.75389 14
805 2 0.683631 10.051 -8.70527 17
806 2 -8.59961 7.54047 -7.48027 20
807 2 7.53271 14.3566 6.54021 13
808 2 -13.0584 -0.34277 1.14235 13
809 2 11.6261 5.77882 1.89547 14
810 2 -12.869 3.95394 1.40797 16
811 2 0.341743 -2.55201 8.69805 18
812 2 6.62651 15.3328 -2.69625 12
813 2 10.2044 5.59252 -3.86443 8
814 2 8.60305 6.47463 -7.07862 10
815 2 -0.897352 2.75176 16.0629 10
816 2 -14.294 -3.19971 2.53968 9
817 2 10.0703 3.75571 10.0586 9
818 2 3.29386 -3.37962 3.54697 19
819 2 9.10927 12.8621 0.703601 19
820 2 -7.98179 13.9207 12.3394 13
821 2 -11.8514 9.66179 -0.612996 17
822 2 8.22021 3.5835 0.410529 19
823 2 3.7122 -4.8256 8.09263 10
824 2 -7.25097 -0.725294 0.291038 20
825 2 5.70503 14.2017 1.17364 18
826 2 5.65476 -4.88055 1.53332 13
827 2 0.802282 12.7544 4.44837 19
828 2 -6.51908 -2.10321 8.99731 18
829 2 -4.04398 4.48194 10.8759 22
830 2 -7.85671 16.4817 10.6784 12
831 2 -2.77615 2.17115 -11.2159 9
832 2 -11.9165 8.2502 -5.78687 15
833 2 -12.1972 3.37778 9.69402 14
834 2 2.32922 3.44328 14.3727 14
835 2 -10.9335 7.8461 -8.14514 10
836 2 5.9224 6.90959 11.6484 15
837 2 5.32033 1.58134 -2.80505 21
838 2 -8.25567 12.9176 -7.62447 12
839 2 8.8146 13.1189 -2.22751 13
840 2 -5.98832 -6.52597 -1.32547 13
841 2 -1.56358 17.8392 -0.354176 13
842 2 -1.55736 18.9273 4.62308 10
843 2 4.48292 -1.47386 0.521197 21
844 2 4.24277 -4.39612 -1.53797 13
845 1 -8.21879 4.85167 -0.677806 22
846 1 -6.63818 1.89209 2.4069 21
847 1 -2.05993 -0.601874 -0.138588 20
848 1 -2.81648 4.41694 -4.23853 22
849 1 -5.1196 3.99664 -2.29091 22
850 1 -3.28127 1.59664 -2.1913 20
851 1 -6.17111 2.20881 -0.836002 22
852 1 -2.99821 4.77718 -0.448003 20
853 1 -5.59001 4.72888 1.16295 21
854 1 -3.61567 2.15676 1.182 23
855 2 -9.1942 3.94111 1.04184 22
856 2 -3.76787 -0.915909 0.924753 19
857 2 -6.11907 4.77933 -3.597 20
858 2 -2.53034 0.569166 -3.64528 18
859 2 -5.13302 2.09102 -2.37794 21
860 2 -3.27307 3.8908 -2.16082 21
861 2 -6.39975 4.06864 -0.540191 22
862 2 -2.42273 1.52848 -0.436728 21
863 2 -5.52633 1.52181 0.809236 22
864 2 -3.45328 4.14317 1.41085 21
865 1 -8.47541 4.36748 2.89395 21
866 1 -8.37508 3.34574 6.29746 18
867 1 -2.80414 -0.649649 2.63468 20
868 1 -2.0439 -0.807801 5.93217 20
869 1 -5.64251 -0.505195 1.17963 21
870 1 -2.27052 4.14033 2.76896 19
871 1 -5.73561 4.1135 4.37516 18
872 1 -3.52119 2.06895 4.73782 18
873 1 -6.45252 0.892498 5.28502 18
874 1 -2.44626 4.61433 6.63463 19
875 1 -4.6801 4.26424 8.67015 20
876 1 -3.28488 1.64318 8.23502 21
877 1 -2.46716 3.62696 9.96379 21