ITEM: TIMESTEP
121000
ITEM: NUMBER OF ATOMS
5760
ITEM: BOX BOUNDS pp pp pp
-0.294008553 33.094008553
-0.134592205 34.274592205
0.4697062749 63.1302937252
ITEM: ATOMS id type x y z Coordination
1 1 26.6748 19.2018 10.2553 24
2 1 1.40456 0.523316 4.07853 24
3 1 26.7912 5.89042 11.8009 21
4 1 2.9245 32.4438 3.51085 22
5 1 30.5929 19.7555 6.7648 20
6 1 11.8232 27.5357 5.56464 24
7 1 18.3439 5.743 9.94084 21
8 1 30.9964 31.4551 1.44977 22
9 1 6.53546 32.326 3.90536 26
10 1 31.9118 29.9985 9.72304 20
11 1 21.1243 30.433 7.55754 24
12 1 0.98581 9.07739 21.9742 23
13 1 31.6333 8.58899 0.923466 24
14 1 29.0963 3.04878 61.2123 23
15 1 14.926 8.62394 1.28909 24
16 1 17.7393 12.4449 4.02362 23
17 1 9.96508 12.5876 14.6066 21
18 1 4.91402 5.19412 12.7213 18
19 1 6.39125 10.9976 27.2868 24
20 1 21.3442 13.5334 14.0812 20
21 1 23.0621 15.3948 3.38008 22
22 1 4.36794 6.90252 3.52163 25
23 1 10.0958 16.5134 12.6839 20
24 1 30.1171 21.9405 13.0908 20
25 1 17.6293 19.8639 6.12526 21
26 1 4.77105 14.4581 0.768095 21
27 1 32.3474 28.4697 6.55152 20
28 1 9.09435 15.5849 3.06855 21
29 1 14.6134 13.8172 14.8724 20
30 1 9.45106 14.1846 21.1816 23
31 1 5.52981 12.7955 12.1328 21
32 1 -0.247482 11.5822 0.497176 19
33 1 33.1128 5.62831 11.5241 22
34 1 2.50976 33.9791 27.4209 22
35 1 25.8812 9.71087 23.96 22
36 1 26.8021 12.268 10.2044 22
37 1 13.9503 10.5716 11.1557 17
38 1 13.0376 9.46729 3.7975 26
39 1 5.75787 1.2225 8.54885 20
40 1 6.33869 9.13715 60.8472 21
41 1 2.46137 5.03913 11.6949 21
42 1 4.5776 15.759 16.5637 20
43 1 1.49174 24.2972 9.24125 24
44 1 6.35089 9.67747 3.62494 23
45 1 8.28849 8.60763 10.491 21
46 1 12.8875 6.467 6.26419 19
47 1 13.2817 18.9619 11.1111 21
48 1 32.3549 1.50342 14.6076 19
49 1 1.67279 12.552 60.6075 18
50 1 4.87514 8.53472 0.563997 21
51 1 28.1143 17.8976 3.82242 21
52 1 6.52521 11.2144 6.07416 23
53 1 3.08695 17.3271 1.02487 25
54 1 8.23068 12.3825 2.938 22
55 1 20.7537 7.97523 6.5404 19
56 1 25.2042 25.892 20.5816 22
57 1 4.88342 18.2227 9.15282 24
58 1 12.9509 9.60766 24.4765 23
59 1 14.7958 25.9523 22.1499 20
60 1 30.3298 10.9269 5.36186 23
61 1 0.312114 11.1916 10.9509 19
62 1 16.1558 4.28309 3.68493 20
63 1 12.7568 11.4651 1.0569 23
64 1 21.2845 14.3684 6.17889 21
65 1 4.59692 26.0407 13.4885 21
66 1 32.5191 26.8713 8.57158 20
67 1 25.9859 33.1595 9.07019 20
68 1 31.1137 23.6459 3.635 23
69 1 11.3433 17.6236 3.6024 24
70 1 10.8619 23.9449 24.5381 21
71 1 27.7532 25.3836 6.11085 21
72 1 3.65535 20.0281 6.64194 20
73 1 28.5289 11.8936 13.1006 21
74 1 18.4125 7.58403 12.2292 22
75 1 16.7629 30.3542 14.5363 22
76 1 19.2477 20.985 8.98944 23
77 1 25.1541 22.9431 14.0382 19
78 1 32.1294 7.00873 13.9062 22
79 1 1.90396 7.8643 0.862575 21
80 1 10.9302 0.769181 8.27022 24
81 1 20.1593 10.5346 19.7801 21
82 1 10.1955 11.4367 23.7037 20
83 1 8.07778 4.10915 20.1725 25
84 1 23.7552 26.1505 13.7229 19
85 1 6.45441 9.18117 19.641 20
86 1 13.1782 15.2504 3.15288 20
87 1 29.3815 11.2342 62.8732 21
88 1 23.0516 11.3388 0.829956 19
89 1 17.8548 29.699 3.23039 21
90 1 14.5313 3.10885 0.95482 23
91 1 14.3163 3.4885 6.49342 23
92 1 3.59903 1.81573 17.3004 23
93 1 2.39203 19.7387 9.5895 23
94 1 5.80689 33.6348 6.91389 20
95 1 11.8205 1.22623 22.2811 20
96 1 4.71651 4.31342 6.44502 25
97 1 2.93762 15.4903 60.6753 21
98 1 3.32684 11.1681 1.02258 21
99 1 2.42236 3.88853 15.1212 20
100 1 29.2695 15.0331 7.98613 22
101 1 1.46895 17.9646 61.0162 24
102 1 2.23472 9.74518 8.53586 22
103 1 25.7389 17.6585 5.99945 22
104 1 22.218 3.72488 8.71274 19
105 1 10.8145 19.5813 27.0432 22
106 1 19.0927 13.171 12.328 24
107 1 22.2829 15.2707 23.7765 22
108 1 24.3203 8.55016 10.8078 25
109 1 2.90582 3.48192 3.12401 22
110 1 11.2424 24.7187 3.51579 23
111 1 32.5631 28.4177 11.7203 23
112 1 8.04325 2.00254 10.4879 23
113 1 4.95912 12.4685 9.39138 26
114 1 30.383 27.6991 16.2808 19
115 1 9.29215 9.23298 18.6361 18
116 1 3.06458 6.32467 26.8714 22
117 1 14.0829 4.07736 11.4356 20
118 1 19.5042 9.52383 4.22058 22
119 1 27.92 3.08813 12.1599 21
120 1 27.5761 30.8282 12.1635 23
121 1 11.28 12.5583 61.2824 24
122 1 1.42086 14.3434 1.05532 22
123 1 8.22265 8.50668 1.2034 26
124 1 15.824 2.41998 9.12906 20
125 1 7.99001 0.65556 3.72101 22
126 1 21.6326 12.4539 9.80422 19
127 1 23.6908 5.24463 10.7461 20
128 1 7.98195 12.0897 8.97992 18
129 1 15.216 11.1992 8.97581 23
130 1 21.272 26.6908 15.9099 21
131 1 12.6918 16.8865 27.1086 22
132 1 19.1556 25.3533 14.1528 21
133 1 3.31011 21.2294 3.33325 21
134 1 -0.44856 15.6992 3.22663 22
135 1 28.1289 21.7101 14.6247 23
136 1 17.7102 14.566 0.897373 23
137 1 15.4656 29.6359 22.3812 24
138 1 22.505 17.5603 5.80154 23
139 1 1.89349 0.625481 9.61433 20
140 1 14.9298 14.2281 6.18204 21
141 1 15.3995 34.2266 21.1186 21
142 1 10.1179 10.7182 9.88163 21
143 1 10.3069 19.1832 11.1507 22
144 1 21.7033 20.9335 21.283 19
145 1 17.8133 9.74217 6.76981 20
146 1 17.5369 0.797178 11.7812 21
147 1 1.87896 12.7781 3.39025 20
148 1 8.96198 8.94936 13.5675 22
149 1 20.708 25.4492 5.74664 22
150 1 17.0661 7.27127 16.624 19
151 1 16.2298 11.3762 26.8285 22
152 1 17.7269 2.66408 21.8602 20
153 1 32.9578 5.64046 5.89254 20
154 1 18.7921 12.7681 24.793 20
155 1 17.6129 31.3543 0.373209 22
156 1 27.6051 0.933008 9.36913 25
157 1 24.6671 14.3919 6.0236 22
158 1 19.7413 5.30369 6.34451 20
159 1 14.491 29.5302 3.87058 22
160 1 7.98431 14.3376 63.3333 21
161 1 6.47479 20.7933 11.3057 20
162 1 20.1681 32.2468 3.02187 23
163 1 7.96671 14.7033 13.5222 19
164 1 12.8136 2.48566 8.62221 20
165 1 26.5762 16.9117 8.4463 21
166 1 7.25084 30.2981 16.393 22
167 1 22.0631 6.80149 8.23471 19
168 1 16.0824 9.3726 4.40046 23
169 1 8.53137 20.4264 0.399108 21
170 1 14.673 14.4789 0.696986 22
171 1 -0.164951 14.0877 12.4334 19
172 1 6.30305 17.1984 1.11005 25
173 1 16.2464 8.65978 9.25272 21
174 1 3.12136 21.6202 13.6332 23
175 1 14.5687 17.8259 16.2666 16
176 1 11.7997 29.3932 10.8698 21
177 1 29.8483 6.40507 11.2368 24
178 1 15.1163 5.5957 8.67461 22
179 1 21.0908 6.52439 24.6737 22
180 1 6.57142 31.3927 9.39241 25
181 2 17.8681 12.6218 63.0375 25
182 2 8.05531 31.4622 2.53037 24
183 2 14.3126 33.1837 10.446 19
184 2 32.8689 15.6826 4.98412 18
185 2 8.12592 18.9753 5.75127 19
186 2 11.8556 15.9379 14.0384 19
187 2 24.5429 6.41389 63.0524 21
188 2 1.3483 31.3 3.02822 22
189 2 6.61526 5.75042 13.5115 20
190 2 5.03958 17.2603 12.101 21
191 2 29.3814 17.7663 17.1959 20
192 2 28.7717 7.39175 21.4919 20
193 2 32.9168 5.50451 2.78949 27
194 2 32.3299 8.22662 7.35307 23
195 2 29.5023 6.41823 8.14757 17
196 2 20.2029 8.88327 21.5154 19
197 2 9.47989 4.96935 21.7624 21
198 2 28.2382 7.53014 10.5724 22
199 2 21.4043 26.9745 17.7667 22
200 2 15.8786 1.24988 10.7941 18
201 2 29.5767 12.2316 4.26898 21
202 2 13.2002 21.1499 0.732062 22
203 2 26.2118 6.10676 8.4804 21
204 2 30.469 4.86178 10.2824 21
205 2 30.6455 10.8607 19.6868 24
206 2 8.52164 22.9271 14.0952 19
207 2 24.165 18.6405 6.10243 21
208 2 4.71002 11.913 5.25696 18
209 2 25.1923 34.1271 19.0684 19
210 2 29.9269 2.50409 11.7349 23
211 2 15.8977 9.47184 6.38562 22
212 2 22.551 17.3054 2.73087 22
213 2 31.7359 2.74941 9.13276 19
214 2 24.2349 13.6574 17.7531 23
215 2 24.3764 28.3997 17.8761 21
216 2 28.0514 15.835 4.83462 20
217 2 3.74298 10.7299 7.9338 22
218 2 0.760779 0.513238 5.89784 21
219 2 24.6561 1.06396 62.0345 21
220 2 21.0121 25.5681 2.42841 22
221 2 4.85833 25.5075 22.9889 20
222 2 2.82506 22.4902 23.417 22
223 2 28.8346 18.2986 21.3668 19
224 2 31.4698 30.8668 19.0634 21
225 2 8.76645 29.7015 7.17237 18
226 2 17.3264 32.0339 15.6309 20
227 2 9.30692 2.06449 12.7795 19
228 2 12.7437 5.62376 2.905 23
229 2 3.35394 5.65558 60.1507 20
230 2 11.4843 6.97881 63.0498 22
231 2 2.36524 32.3973 19.6018 23
232 2 27.4264 13.3498 6.31984 23
233 2 24.4536 30.675 13.558 20
234 2 17.1369 28.5346 10.5934 22
235 2 15.6213 17.5223 2.16603 20
236 2 11.073 4.73473 9.87873 19
237 2 30.3881 26.2342 13.5696 23
238 2 8.94234 26.7226 19.849 22
239 2 1.46445 22.8937 7.99817 22
240 2 27.438 3.18528 18.1226 17
241 2 26.3618 8.81615 62.9657 21
242 2 6.16906 7.15426 10.7112 19
243 2 3.2446 20.9475 8.20241 24
244 2 12.1013 31.1312 9.70024 17
245 2 13.2232 19.0575 15.3405 20
246 2 19.1023 17.7785 21.1924 17
247 2 31.6319 13.2253 11.9378 21
248 2 29.9097 13.2199 8.33337 23
249 2 32.9398 10.4719 12.7474 23
250 2 14.3633 14.0958 12.9618 21
251 2 25.9332 21.5817 15.0831 21
252 2 0.625935 23.7367 21.9841 19
253 2 12.6633 11.4329 18.365 21
254 2 6.52585 23.3832 4.12312 23
255 2 25.6266 4.95162 12.794 20
256 2 4.91227 29.3176 5.40228 21
257 2 9.69009 32.626 26.4367 19
258 2 13.4932 33.1665 62.6643 21
259 2 29.7746 17.488 2.81473 20
260 2 11.1936 26.3605 2.87249 23
261 2 2.72221 14.5767 20.128 20
262 2 32.6676 1.91403 12.2859 22
263 2 13.2018 3.34857 15.3129 23
264 2 15.8049 10.8494 23.4387 26
265 2 6.9623 6.06995 16.5925 18
266 2 27.4883 6.09996 18.8699 19
267 2 3.09946 15.5986 62.9905 23
268 2 21.0826 24.7235 15.1204 17
269 2 11.6713 24.5268 14.4898 21
270 2 4.15798 18.5935 5.53059 22
271 2 9.52756 11.1462 17.3363 22
272 2 31.463 31.6353 60.0999 22
273 2 18.4259 6.0504 17.9403 19
274 2 24.6226 31.7134 2.84001 21
275 2 21.9331 5.65669 9.66386 21
276 2 14.277 4.96125 5.19513 19
277 2 29.3895 3.58402 16.1576 17
278 2 6.75036 21.4524 0.847718 22
279 2 13.5608 15.2394 5.08122 22
280 2 13.9121 18.782 20.5924 21
281 2 12.0211 19.5987 9.85579 21
282 2 0.920981 6.49193 26.6874 21
283 2 32.6028 23.1344 2.77535 21
284 2 31.9136 5.13101 13.3296 19
285 2 17.8478 12.6461 26.3144 24
286 2 10.636 23.7411 17.6342 19
287 2 8.97475 3.51969 6.91975 18
288 2 5.59756 14.6189 20.251 23
289 2 6.7016 3.88838 63.0021 24
290 2 25.1918 32.8562 16.1522 22
291 2 26.2798 3.77218 25.9505 21
292 2 20.8721 2.52232 9.28751 18
293 2 1.64255 8.53617 15.2402 20
294 2 22.3026 34.1097 8.27755 21
295 2 15.8081 0.161506 60.2736 23
296 2 15.2283 5.86287 10.7101 21
297 2 8.64969 32.1899 5.02181 20
298 2 -0.182617 28.3408 14.3892 22
299 2 26.3421 27.2527 19.7967 23
300 2 19.7616 9.55614 6.40889 20
301 2 3.03176 7.80502 4.94446 20
302 2 24.5206 32.4406 7.94503 23
303 2 6.21194 6.20151 3.51667 25
304 2 17.7167 5.16774 13.5234 21
305 2 9.36051 1.1319 5.3465 22
306 2 16.9485 22.7066 19.8384 19
307 2 0.213095 21.6261 5.3573 20
308 2 20.4782 32.0749 4.84549 22
309 2 17.9773 1.07027 4.83101 24
310 2 8.92208 8.36829 22.1331 23
311 2 19.6891 24.0099 17.8877 19
312 2 15.1621 21.4308 10.4175 18
313 2 3.45014 24.5121 9.18655 21
314 2 19.5127 11.1881 24.0383 22
315 2 13.5367 8.92845 14.9699 19
316 2 8.09949 13.6378 19.5419 21
317 2 8.47564 23.6912 21.1402 17
318 2 13.4119 27.7451 6.8245 19
319 2 13.0772 29.2874 15.3632 23
320 2 2.96537 5.36496 2.84523 23
321 2 9.72904 9.19926 8.68576 20
322 2 8.08525 17.6254 18.2867 22
323 2 16.1427 5.3734 24.3605 21
324 2 10.7994 8.72818 19.7065 21
325 2 23.0927 11.7642 60.4017 21
326 2 26.6581 5.99659 16.4163 21
327 2 16.4352 -0.0163763 8.1564 21
328 2 19.6139 15.6306 0.385898 23
329 2 1.84334 8.34705 2.88925 23
330 2 31.0487 27.4607 18.6839 21
331 2 9.36447 9.92395 63.021 23
332 2 6.20502 15.3628 63.1392 23
333 2 3.08906 14.1434 16.8822 20
334 2 25.5292 28.5135 9.92844 19
335 2 11.5973 26.2025 12.4578 21
336 2 19.5272 3.65487 26.1305 23
337 2 19.4731 28.5419 2.2373 24
338 2 16.6097 32.5512 12.471 22
339 2 13.1182 25.2941 8.44855 22
340 2 10.3125 33.4575 8.14072 20
341 2 33.156 3.43475 5.41647 20
342 2 3.39422 7.21039 12.3395 21
343 2 18.742 15.0375 11.0753 22
344 2 21.7749 22.0541 18.1591 18
345 2 19.1621 4.43907 11.1843 19
346 2 3.06938 10.2648 29.1135 20
347 2 11.0494 23.9757 20.4603 19
348 2 25.3313 12.2729 7.26163 20
349 2 8.97606 12.2343 10.5161 22
350 2 20.1012 29.2904 16.5875 19
351 2 16.0911 19.0403 14.6345 20
352 2 12.5984 2.25666 5.44595 20
353 2 14.9818 15.4362 7.62577 18
354 2 17.9472 14.2458 18.2511 19
355 2 19.9895 26.2319 7.25118 22
356 2 23.3316 11.7944 2.82131 22
357 2 17.9484 8.7407 29.385 22
358 2 0.697246 13.4393 16.5377 17
359 2 22.3642 0.0695089 24.3257 23
360 2 33.0836 31.998 5.99626 20
361 1 12.2984 7.1681 19.4722 21
362 1 22.2808 10.698 12.0415 19
363 1 1.38218 6.75224 24.5024 23
364 1 0.652408 9.76085 18.8901 22
365 1 1.33807 33.6529 20.9124 22
366 1 31.1604 33.2429 15.5842 23
367 1 30.0089 32.3027 29.4255 20
368 1 32.3517 10.9337 27.2457 22
369 1 31.134 25.4294 26.9231 19
370 1 29.4117 15.5146 23.4049 22
371 1 28.5023 13.6158 20.3142 20
372 1 29.0201 15.0115 29.6126 23
373 1 2.86918 17.3742 6.57729 22
374 1 14.7224 12.0385 18.8355 23
375 1 31.7206 29.6393 14.4183 24
376 1 7.82917 11.1091 11.7375 22
377 1 0.952865 2.56962 26.5626 22
378 1 9.37775 11.4446 26.7419 23
379 1 11.3785 31.7977 26.6081 21
380 1 4.68863 8.26748 27.6754 25
381 1 25.2936 6.07765 18.4463 22
382 1 19.4387 14.9673 9.21992 19
383 1 9.73334 9.23096 29.3042 23
384 1 31.1792 8.36158 32.302 21
385 1 12.0143 24.2174 9.52937 21
386 1 29.4426 22.7737 6.86445 21
387 1 32.0868 15.5814 9.39334 23
388 1 -0.392194 3.79441 3.42558 21
389 1 26.2768 21.1321 29.4415 22
390 1 25.5409 11.1475 21.2366 23
391 1 4.76317 10.8795 17.2293 21
392 1 11.1346 6.73751 29.435 23
393 1 32.9136 8.98904 16.2885 20
394 1 29.3504 23.1734 31.8542 22
395 1 6.65892 11.1105 32.4998 23
396 1 30.6992 0.545063 29.9357 22
397 1 10.337 5.21172 11.8243 21
398 1 4.47455 26.2616 0.560491 22
399 1 24.8428 2.16749 11.4021 18
400 1 3.15166 11.3825 19.7319 21
401 1 14.4545 8.40706 27.1181 22
402 1 7.63722 1.94575 6.62672 21
403 1 9.33714 33.7071 6.24024 20
404 1 29.7146 24.345 14.1563 20
405 1 13.0872 3.70378 29.934 25
406 1 9.12814 -0.0959022 27.0087 23
407 1 29.2031 5.66483 32.483 23
408 1 32.7597 8.92552 29.7229 25
409 1 12.4599 1.2766 19.4174 19
410 1 11.2008 8.84741 6.51028 20
411 1 11.752 22.3368 19.4555 24
412 1 27.084 8.40772 18.0017 22
413 1 22.3344 10.2826 21.4955 19
414 1 19.3109 3.25264 24.0688 22
415 1 3.14164 10.4616 27.1888 22
416 1 11.1103 8.51713 26.9906 25
417 1 1.30326 13.8407 32.5438 23
418 1 14.191 12.1765 28.946 20
419 1 6.14161 5.2223 32.4894 23
420 1 6.21179 9.28326 29.9589 22
421 1 7.21853 32.9837 20.5683 23
422 1 32.4068 21.9185 21.68 21
423 1 9.73232 3.54713 29.7673 26
424 1 11.3673 12.2109 17.008 23
425 1 6.07298 -0.0280946 26.9985 24
426 1 7.02139 16.1165 21.7329 21
427 1 16.6689 31.0499 19.8588 20
428 1 20.9901 18.2632 29.2287 21
429 1 9.43883 8.7006 24.2447 22
430 1 14.4389 21.4994 16.7703 20
431 1 7.78064 0.75488 29.3045 21
432 1 3.08681 9.27183 24.7675 24
433 1 4.5268 2.22123 11.512 19
434 1 26.7149 29.8156 20.0398 21
435 1 5.70723 20.9815 9.10433 20
436 1 10.5001 9.31159 21.6056 22
437 1 12.9732 14.9914 24.1355 22
438 1 8.11199 2.8665 27.0791 24
439 1 9.2917 20.9904 16.5558 21
440 1 4.70861 0.961906 29.0932 19
441 1 14.4866 6.66922 24.9695 26
442 1 29.7946 3.40522 29.8127 24
443 1 9.60132 5.87491 6.73756 18
444 1 6.63887 22.8885 20.7938 22
445 1 7.83138 27.7921 18.6161 20
446 1 16.2427 5.59427 26.954 23
447 1 12.1155 1.90137 14.3291 20
448 1 13.1326 17.1787 20.0356 13
449 1 4.70532 0.875332 3.99158 21
450 1 31.2489 4.85794 19.8375 21
451 1 18.3358 2.5039 18.8874 19
452 1 18.2103 10.3009 11.3846 20
453 1 21.2165 8.91363 27.2683 24
454 1 9.55534 11.1971 32.5521 24
455 1 14.002 18.4744 25.1517 24
456 1 2.94162 5.22789 32.8877 21
457 1 6.93754 25.1163 6.75035 19
458 1 29.8337 11.819 18.1762 19
459 1 9.353 16.9082 27.1241 23
460 1 4.09397 13.6381 26.7222 20
461 1 26.9704 16.8316 20.6665 22
462 1 5.93687 23.2442 13.6197 21
463 1 11.7604 2.97393 27.1453 20
464 1 3.93507 1.23007 25.0094 23
465 1 4.95887 29.494 23.8807 19
466 1 14.2567 18.2874 29.4688 21
467 1 0.0809571 18.7899 22.1472 21
468 1 4.5122 13.8639 31.9622 21
469 1 2.86589 7.29057 14.0308 24
470 1 6.22882 4.1881 9.84576 19
471 1 13.4374 15.125 17.1235 21
472 1 11.6639 24.8246 18.6886 17
473 1 0.501415 6.65921 19.4724 24
474 1 14.515 1.02547 29.4457 24
475 1 16.617 14.0706 17.0434 23
476 1 4.23353 33.7689 19.144 23
477 1 14.0107 32.8996 18.5306 17
478 1 0.145338 3.65326 8.84998 24
479 1 10.622 30.0201 24.2144 21
480 1 19.7491 5.41377 27.248 23
481 1 14.5295 8.49498 6.44238 23
482 1 17.3767 20.8384 11.6478 24
483 1 14.7553 13.6991 21.8065 22
484 1 12.7761 9.92646 19.5067 23
485 1 19.3761 9.69523 29.9268 23
486 1 30.9948 31.4594 6.02337 17
487 1 19.4355 21.4148 29.3602 25
488 1 5.73967 34.3136 11.2938 21
489 1 25.7801 33.4325 11.6158 22
490 1 18.7209 10.7896 22.2537 21
491 1 8.42018 21.0432 24.5847 19
492 1 16.1462 9.72643 29.7626 22
493 1 31.0184 20.1155 9.49029 19
494 1 5.05781 6.81173 24.1597 26
495 1 3.19609 10.4367 11.7531 24
496 1 0.00446778 22.6535 17.5618 19
497 1 9.49192 2.09711 17.2332 22
498 1 26.4844 4.47584 24.1635 22
499 1 31.5338 10.5896 14.3732 25
500 1 14.2878 20.3796 19.6013 19
501 1 19.2448 19.6842 21.3372 17
502 1 9.37427 15.371 29.6961 25
503 1 18.4177 7.841 21.6575 19
504 1 7.87984 8.25267 27.193 23
505 1 11.4566 2.77196 11.071 20
506 1 12.4782 27.0977 24.3488 22
507 1 28.432 32.2944 21.9166 21
508 1 24.2152 15.7218 13.131 22
509 1 29.2119 31.0543 14.4251 22
510 1 8.67022 6.0241 15.1705 22
511 1 9.5758 5.56769 32.5721 23
512 1 22.5963 3.77784 29.7962 24
513 1 11.163 8.51352 31.8876 22
514 1 4.95605 31.3215 26.3942 22
515 1 27.1014 33.7212 16.2074 21
516 1 19.4344 0.109829 32.5988 23
517 1 3.31366 10.3239 14.7078 20
518 1 24.3856 20.4697 5.79972 23
519 1 6.97065 12.8674 14.913 21
520 1 5.46019 18.0803 19.9991 18
521 1 20.2057 12.952 21.4821 22
522 1 14.4429 31.7564 27.0706 20
523 1 16.1181 32.5126 24.1501 21
524 1 12.8124 28.8859 27.1148 20
525 1 19.6836 15.5062 15.4806 23
526 1 19.3968 11.9806 32.3506 23
527 1 17.9764 2.76846 26.5213 25
528 1 16.4175 5.83471 31.8871 21
529 1 14.2619 7.5571 16.9337 21
530 1 15.3168 28.415 11.4444 19
531 1 19.0038 18.5665 14.6701 22
532 1 23.1284 34.3564 11.8067 18
533 1 12.927 11.3586 26.8408 24
534 1 20.6869 18.3414 24.2341 24
535 1 1.51324 3.42114 21.2748 25
536 1 2.96533 0.522308 14.1026 16
537 1 20.1443 25.9513 19.1422 20
538 1 2.63383 20.6174 24.3256 20
539 1 28.9704 3.08119 19.4313 20
540 1 16.4451 22.8885 27.2493 25
541 2 8.07636 0.39378 31.3381 22
542 2 17.4563 9.29149 21.7392 21
543 2 13.3719 2.48261 10.8478 19
544 2 18.8881 15.1691 21.2477 19
545 2 10.9837 2.7238 18.3874 20
546 2 3.91633 6.15793 20.6771 25
547 2 2.25185 9.40715 32.3385 23
548 2 18.9363 33.3807 7.4929 19
549 2 29.8846 32.609 31.442 23
550 2 1.41276 6.09747 31.7052 22
551 2 29.7627 11.2367 29.4316 23
552 2 1.3634 2.95595 34.2887 22
553 2 32.716 4.02222 21.1992 22
554 2 31.3635 17.7468 19.6537 20
555 2 26.7016 12.4497 12.0125 20
556 2 5.9375 9.15318 5.45015 21
557 2 0.598744 26.1624 18.8915 23
558 2 28.2834 22.4965 12.8639 21
559 2 29.7128 10.6774 11.8256 23
560 2 7.90655 14.1366 29.1605 24
561 2 2.99416 3.69205 31.4492 24
562 2 27.4547 10.1711 22.7569 20
563 2 1.40607 4.81577 23.1825 21
564 2 24.4748 8.57098 28.5705 23
565 2 1.2293 17.431 26.523 22
566 2 29.0173 9.4674 27.1248 20
567 2 2.62272 20.3306 26.0785 22
568 2 7.90671 17.8767 63.0152 22
569 2 4.61931 19.5247 23.7981 19
570 2 32.3451 9.41787 18.1476 21
571 2 5.75269 19.5074 7.82445 21
572 2 12.6797 3.42821 20.9111 21
573 2 29.3367 14.849 32.1595 19
574 2 -0.160328 14.7752 31.9617 23
575 2 12.526 9.70173 31.7063 23
576 2 32.6129 11.3754 22.5567 20
577 2 23.0349 8.62548 22.4472 21
578 2 14.0559 16.433 18.524 16
579 2 13.8389 29.6883 10.6564 20
580 2 1.76113 13.7415 8.1226 23
581 2 6.3039 0.190736 33.8755 23
582 2 10.4218 16.3194 23.2572 19
583 2 10.3629 8.13664 16.1402 21
584 2 1.8286 20.359 15.9154 21
585 2 2.77793 31.9571 30.936 20
586 2 1.00748 0.963797 31.2664 22
587 2 14.7277 2.9858 28.7672 24
588 2 16.4139 3.84129 26.4346 23
589 2 5.04274 24.4013 12.3653 20
590 2 7.71074 3.54712 23.387 24
591 2 32.6634 17.9057 23.7877 19
592 2 33.0701 8.79636 4.68568 21
593 2 9.50247 9.40004 31.349 24
594 2 1.06431 0.920863 27.1898 19
595 2 30.9882 20.8409 11.6336 22
596 2 8.58912 10.4581 24.0136 20
597 2 4.75212 11.7205 32.0503 23
598 2 30.9841 11.8572 31.8528 21
599 2 6.05719 9.06792 31.7424 23
600 2 4.67223 2.85744 28.6962 22
601 2 10.4031 13.099 19.5187 21
602 2 8.57884 28.842 9.53565 20
603 2 9.82657 6.37903 2.66173 21
604 2 30.3714 10.9853 7.14362 21
605 2 32.8025 7.23793 15.9948 23
606 2 30.9928 16.3148 22.1392 25
607 2 6.27186 13.5436 10.3944 21
608 2 33.1452 16.2403 15.6277 19
609 2 8.15604 12.1978 31.6842 22
610 2 2.67025 16.5223 28.9912 22
611 2 13.6513 2.12496 23.4574 21
612 2 4.43977 13.9639 29.0908 22
613 2 6.21504 32.937 25.8809 23
614 2 31.2282 7.98116 28.8197 22
615 2 24.0992 7.50028 14.5357 24
616 2 2.13896 0.188332 18.125 20
617 2 3.93739 32.3274 10.3979 20
618 2 15.98 10.8666 19.5296 21
619 2 11.0641 12.7981 0.519159 22
620 2 2.97758 5.72366 25.0315 20
621 2 11.4314 2.69707 29.2724 21
622 2 26.2061 0.651642 8.05275 22
623 2 3.12737 3.27025 5.62609 21
624 2 22.953 11.2654 23.2188 19
625 2 7.63622 0.0347964 6.94017 21
626 2 32.127 12.8041 6.03673 23
627 2 4.36401 21.8687 18.765 20
628 2 30.3361 1.48867 20.6318 21
629 2 6.90657 12.0923 16.8627 18
630 2 -0.107954 19.4496 13.6502 20
631 2 24.2143 8.48749 2.83272 21
632 2 2.53279 34.1348 8.04575 23
633 2 8.0424 8.55661 34.3243 24
634 2 15.1139 21.2678 21.3311 20
635 2 4.31618 17.7971 31.9005 23
636 2 11.6658 13.8867 22.9627 22
637 2 4.3378 9.5109 10.3032 22
638 2 4.46936 25.8641 29.0129 22
639 2 9.61143 5.50486 29.0013 24
640 2 27.9748 2.82243 29.5774 20
641 2 9.41891 11.5859 28.6198 24
642 2 2.94326 22.4024 28.7542 22
643 2 29.3922 9.42074 31.5756 23
644 2 24.2503 12.0657 20.2024 20
645 2 9.08649 20.9014 31.4347 23
646 2 11.7167 14.1597 16.7505 20
647 2 12.4595 15.2288 25.9674 23
648 2 14.0821 27.4697 9.63774 23
649 2 30.6713 3.34582 18.3736 17
650 2 0.413658 33.2256 22.8118 17
651 2 14.7461 28.0106 23.2307 18
652 2 12.8757 5.68616 29.2075 24
653 2 11.2749 2.98583 3.45888 21
654 2 20.6396 22.0317 15.4762 20
655 2 11.4115 14.1457 29.0921 23
656 2 10.2471 3.98935 31.542 22
657 2 15.1288 1.1465 31.5122 23
658 2 6.42694 5.29872 29.1727 23
659 2 13.7455 18.8241 5.5187 21
660 2 10.9746 12.1674 31.6074 23
661 2 30.8547 13.9324 24.1014 22
662 2 8.44187 3.78729 15.1287 20
663 2 13.5073 16.7394 24.1612 22
664 2 1.74217 10.4516 23.6916 21
665 2 11.9479 6.75432 21.623 20
666 2 33.0505 2.91199 15.871 19
667 2 12.8538 16.9204 28.9791 23
668 2 24.6563 6.17313 20.3135 20
669 2 14.6401 6.70852 31.8868 22
670 2 16.1651 6.00375 28.875 24
671 2 27.4968 11.9536 26.5366 22
672 2 4.25178 5.30487 17.5101 24
673 2 22.2759 17.2787 7.72095 19
674 2 12.37 11.3738 28.8779 21
675 2 18.1916 20.076 24.3212 22
676 2 7.89902 6.32163 6.53258 19
677 2 25.6334 7.90782 22.6271 19
678 2 10.7952 17.8528 31.8353 23
679 2 30.8025 14.2182 29.8501 20
680 2 16.2185 17.2499 22.7464 25
681 2 24.5621 14.3834 28.6276 23
682 2 6.02598 20.5342 31.34 24
683 2 10.0264 22.3388 29.3379 23
684 2 20.9668 14.4033 28.7225 23
685 2 16.8209 3.9974 19.3796 24
686 2 19.9536 28.9595 22.8839 19
687 2 28.3024 14.0756 23.1113 21
688 2 27.9084 4.65572 10.3974 21
689 2 27.6601 1.01411 20.791 19
690 2 4.44595 10.0027 13.1159 20
691 2 15.9986 3.86799 31.6753 23
692 2 2.82408 27.1278 0.924055 23
693 2 8.09398 6.44623 31.709 24
694 2 14.741 2.64227 34.4484 23
695 2 19.6497 5.29364 24.0615 21
696 2 12.9848 3.84517 31.7358 23
697 2 4.09403 0.486958 26.9949 22
698 2 14.4569 15.5352 21.1726 21
699 2 31.2234 29.3567 12.4513 23
700 2 11.242 12.3945 26.5228 22
701 2 23.2757 27.8366 20.8897 21
702 2 11.6047 8.50218 29.0635 23
703 2 28.4368 2.65572 23.3096 23
704 2 17.6784 2.42946 8.91323 17
705 2 11.174 6.56646 31.6444 25
706 2 16.4661 15.7059 31.505 23
707 2 31.3831 12.7306 17.636 21
708 2 17.862 2.77652 29.5847 20
709 2 12.878 0.0651454 29.7073 18
710 2 18.7406 15.738 26.3465 23
711 2 14.5408 31.6542 14.5392 19
712 2 20.6909 10.9371 17.5459 18
713 2 19.1822 11.4629 29.0558 22
714 2 6.24967 17.861 3.12551 21
715 2 3.53799 7.79751 23.2827 24
716 2 16.5328 9.68429 31.7867 22
717 2 22.652 11.4576 28.8953 22
718 2 9.484 19.6721 20.6772 20
719 2 18.409 16.7291 14.9192 20
720 2 32.4895 10.9068 29.0581 22
721 1 1.57799 25.7344 63.0715 22
722 1 2.95087 31.8587 14.8415 19
723 1 7.19617 21.0483 6.29521 22
724 1 32.9908 26.1082 2.70151 21
725 1 10.1262 29.4503 63.2654 24
726 1 -0.0655757 18.1095 9.83913 21
727 1 26.5404 13.9471 0.711281 20
728 1 26.3879 28.6739 5.67767 21
729 1 8.416 9.28876 7.23675 21
730 1 5.65108 32.4116 23.9775 23
731 1 32.6993 23.4358 12.1257 23
732 1 31.8547 27.1051 20.411 21
733 1 29.5416 -0.108098 1.16836 24
734 1 31.6061 12.491 7.70347 23
735 1 4.37129 14.2302 6.03246 20
736 1 2.5071 30.7078 10.7899 18
737 1 31.345 8.63771 4.87603 22
738 1 2.68825 13.7035 11.5271 21
739 1 8.58204 32.8095 11.8986 20
740 1 24.5973 3.47153 14.0445 21
741 1 1.80924 15.8208 14.4013 19
742 1 20.7826 26.4131 11.3961 25
743 1 13.2912 22.4713 21.5642 21
744 1 18.7478 3.81538 12.821 23
745 1 26.291 0.0605482 63.1273 23
746 1 30.0367 0.453619 6.68461 22
747 1 32.7745 32.2218 3.86289 22
748 1 2.86865 26.6673 3.39006 22
749 1 16.1447 33.1005 10.6305 19
750 1 18.9296 31.2197 5.51249 21
751 1 11.7125 16.1229 9.77566 22
752 1 -0.164222 31.7078 10.7034 21
753 1 7.81689 23.2262 16.2987 21
754 1 27.4783 10.7714 19.0184 22
755 1 15.8066 7.68074 19.9375 23
756 1 0.515892 25.7106 11.9521 22
757 1 31.5319 20.3387 0.570463 22
758 1 29.8358 17.4323 0.976245 21
759 1 10.8999 17.9541 7.73071 22
760 1 31.302 18.013 3.49595 22
761 1 8.31098 18.1728 14.294 20
762 1 9.63133 23.4823 0.680936 22
763 1 21.7448 20.3302 14.7699 23
764 1 8.86543 21.134 13.3784 22
765 1 4.92757 2.59406 63.0796 19
766 1 3.10389 18.3808 18.2274 20
767 1 1.58836 15.7426 8.96319 18
768 1 -0.29748 23.0805 0.725443 22
769 1 1.32705 23.94 3.35137 20
770 1 30.0467 23.0993 0.649903 22
771 1 3.20679 23.1223 0.845196 24
772 1 20.2712 16.548 21.8125 20
773 1 24.0786 5.12578 21.8303 22
774 1 2.82367 32.2593 61.244 22
775 1 11.7435 20.2326 13.896 19
776 1 31.3323 14.3174 4.78101 23
777 1 1.37043 29.969 13.4536 23
778 1 31.016 0.969458 12.4127 18
779 1 5.97767 24.9995 18.4282 25
780 1 25.7497 27.2666 8.51243 20
781 1 7.93023 2.85295 1.51704 22
782 1 8.63893 29.7444 11.2142 21
783 1 1.20509 29.3655 2.99495 22
784 1 1.34186 0.769566 60.5424 19
785 1 28.7985 15.6085 14.306 22
786 1 9.49862 34.2178 0.759518 21
787 1 14.6781 31.3136 1.32579 23
788 1 3.26253 5.61827 0.832341 22
789 1 14.9229 4.31269 16.125 21
790 1 14.2693 22.123 8.8582 22
791 1 14.1738 30.9163 9.46661 21
792 1 31.7654 1.5704 19.0523 20
793 1 9.9065 17.3471 62.6332 21
794 1 3.4711 14.3614 8.73733 22
795 1 1.80979 20.033 0.976441 24
796 1 11.2236 14.6388 1.15175 21
797 1 29.9156 20.8218 3.32457 22
798 1 4.93982 22.7265 5.50652 19
799 1 6.60891 29.1184 63.2016 22
800 1 20.7952 5.56142 11.2338 23
801 1 26.3324 22.9794 0.535947 25
802 1 19.3201 17.3573 26.8968 25
803 1 31.2699 6.36453 3.03501 23
804 1 31.4517 3.27617 11.5069 22
805 1 27.5344 31.6932 0.792753 21
806 1 2.61231 27.882 11.1535 21
807 1 15.1886 19.828 6.40311 22
808 1 3.00961 28.2553 5.98051 22
809 1 17.0131 25.0968 20.2118 20
810 1 8.57623 16.4577 9.77929 19
811 1 25.4847 23.9858 9.09093 22
812 1 6.56415 21.7077 2.95581 21
813 1 7.2127 30.5361 6.26491 23
814 1 24.273 13.8144 15.6612 21
815 1 12.8735 13.0353 9.4366 20
816 1 9.27044 22.9106 5.91506 20
817 1 5.28599 27.8756 6.34709 22
818 1 8.12562 29.872 3.33573 24
819 1 29.8012 30.277 11.5222 20
820 1 9.99207 4.34431 3.33114 19
821 1 29.6303 33.9382 17.2759 18
822 1 4.68553 29.5447 3.52524 22
823 1 1.512 33.1247 6.63418 22
824 1 32.2601 26.4035 14.1237 23
825 1 5.77555 19.6986 14.3948 19
826 1 22.7682 0.846619 14.8854 20
827 1 7.07808 23.2146 8.87329 19
828 1 22.0732 32.3913 17.8849 20
829 1 19.8822 30.8516 13.8052 23
830 1 6.51412 14.9978 7.64547 20
831 1 11.5791 7.08788 3.42731 21
832 1 1.7563 22.4238 5.92864 22
833 1 3.70121 13.5885 14.8964 22
834 1 20.6743 15.4777 11.523 21
835 1 0.917938 23.0674 24.1354 21
836 1 14.14 18.3717 3.43363 24
837 1 28.5787 16.1086 17.7427 21
838 1 18.0869 14.3407 5.88255 20
839 1 13.8195 29.7575 24.3014 19
840 1 0.188831 15.9041 26.9245 21
841 1 9.39553 27.3863 3.20889 20
842 1 6.66279 23.3115 62.9718 24
843 1 22.7106 3.5641 24.6344 23
844 1 13.1656 22.1721 3.60495 21
845 1 4.86422 5.33873 15.8332 23
846 1 8.35571 24.7558 13.5662 22
847 1 4.65784 31.5672 1.18678 23
848 1 26.7438 30.093 9.32707 23
849 1 15.0229 25.1643 8.10188 21
850 1 12.6501 0.267899 26.5067 22
851 1 4.50859 24.0901 16.1605 20
852 1 15.9619 19.633 21.961 22
853 1 11.4991 29.8983 3.20259 22
854 1 2.99856 1.10594 6.77789 18
855 1 4.80116 12.634 3.24724 22
856 1 30.1191 4.76842 14.229 21
857 1 17.4313 12.3954 14.4738 22
858 1 13.2546 32.9525 13.9381 18
859 1 8.26312 24.1435 3.7097 20
860 1 21.4238 23.3787 16.559 21
861 1 7.43001 27.9793 8.26092 23
862 1 20.9969 29.3994 3.20191 24
863 1 13.8832 10.717 13.9789 20
864 1 9.8047 21.9181 21.4886 23
865 1 12.8495 23.0596 0.597002 23
866 1 16.5427 23.0559 0.520416 23
867 1 12.3879 19.9679 4.66695 20
868 1 20.8474 23.4463 2.66551 20
869 1 11.6065 20.1707 1.4947 26
870 1 1.2803 18.3673 3.86764 24
871 1 19.568 23.1521 21.669 21
872 1 14.9904 22.9324 19.4595 18
873 1 32.695 0.901529 7.36226 22
874 1 32.7842 17.579 14.3563 17
875 1 7.35428 19.8186 27.0136 23
876 1 16.2055 9.111 24.2738 24
877 1 4.92317 24.3308 3.22009 20
878 1 14.3828 25.75 63.1358 22
879 1 23.3912 9.07537 14.0282 22
880 1 7.82198 10.2609 16.8041 22
881 1 28.3909 21.4482 9.58093 23
882 1 20.6052 33.6222 15.5282 20
883 1 12.7108 23.166 6.62737 21
884 1 30.4561 26.1199 11.5114 21
885 1 7.9706 33.6973 15.8149 19
886 1 20.4206 28.6897 18.4702 22
887 1 6.43314 25.9159 23.9958 21
888 1 6.10095 27.0459 3.14332 20
889 1 11.0889 1.12736 3.33364 22
890 1 20.8286 31.4475 63.1935 23
891 1 0.433708 19.2528 16.8318 19
892 1 10.037 30.9657 5.87146 22
893 1 6.97863 2.3856 21.6305 22
894 1 14.72 0.86258 3.61469 21
895 1 32.7635 22.838 6.81899 19
896 1 21.9848 29.3871 16.4077 21
897 1 4.76001 25.5497 8.13844 21
898 1 31.2561 6.33463 17.1159 22
899 1 15.9038 21.1752 3.63181 26
900 1 27.8287 30.7943 17.3718 22
901 2 2.7843 17.4318 2.80571 23
902 2 24.6111 29.6529 62.7186 22
903 2 1.61731 24.4011 11.5295 23
904 2 12.9251 23.738 2.66255 20
905 2 25.6327 20.3854 17.8842 20
906 2 20.6138 23.2335 4.58152 21
907 2 18.9529 22.2952 7.79105 21
908 2 0.374935 23.2105 15.8678 17
909 2 1.47884 18.743 18.6509 20
910 2 24.7745 13.2773 4.65377 23
911 2 2.85545 28.8516 60.7116 21