ITEM: TIMESTEP
576000
ITEM: NUMBER OF ATOMS
2000
ITEM: BOX BOUNDS pp pp pp
-30.0 30.0
-30.0 30.0
-30.0 30.0
ITEM: ATOMS id type x y z Coordination
1 1 -11.7529 4.67196 -12.0333 15
2 1 -3.47748 -10.07 -7.95499 20
3 1 4.12603 15.2633 12.7654 9
4 1 7.56816 -10.5962 3.0837 21
5 1 -7.91487 8.69774 -2.41871 21
6 1 6.9445 -8.83704 -8.55411 19
7 1 -11.8883 1.74804 -11.0768 17
8 1 -0.161932 -9.44593 12.828 13
9 1 -7.41103 -2.66387 -9.76832 21
10 1 -15.6808 -8.40385 5.87187 11
11 1 11.1312 2.93934 -8.86852 20
12 1 1.86246 0.139386 -3.29519 21
13 1 -6.13881 -10.1411 3.0074 23
14 1 -13.9233 -6.97189 1.09948 15
15 1 3.56472 4.21772 11.7304 21
16 1 4.4977 -3.00579 4.5028 22
17 1 0.758595 5.5452 9.33008 21
18 1 4.91761 -3.62056 1.2963 24
19 1 -0.398016 9.4011 -10.9355 17
20 1 0.313342 -0.379004 13.9088 21
21 1 -8.99777 0.392766 -14.1758 20
22 1 -12.255 -2.66392 11.4546 17
23 1 14.8606 1.00472 8.78144 14
24 1 3.68809 4.50673 -6.40121 24
25 1 3.67086 5.64334 -9.59131 19
26 1 11.9301 -0.0197597 11.0959 16
27 1 -8.12111 -1.01322 2.34515 20
28 1 -14.3315 1.90319 -5.52691 15
29 1 -0.268531 -2.5127 -11.2022 21
30 1 -10.6111 12.0715 11.8264 12
31 1 6.63048 -13.7708 3.38366 13
32 1 -0.102459 0.915331 6.56477 23
33 1 6.28025 -14.5821 -10.0181 12
34 1 10.0164 -9.17372 1.73305 19
35 1 -6.40595 -13.7502 -3.98328 15
36 1 -13.6757 -5.59598 10.3233 13
37 1 7.26787 0.150782 -5.1823 20
38 1 2.65204 -7.59015 -12.0764 18
39 1 6.89353 -11.8803 -9.25074 16
40 1 -3.28734 6.70287 -15.4238 15
41 1 0.114679 10.2871 12.0332 21
42 1 1.96541 -9.95333 8.28004 22
43 1 4.12235 -3.94818 12.1212 16
44 1 -14.3493 -0.963446 1.56316 17
45 1 -13.9318 -0.0276568 6.97921 17
46 1 -4.55733 0.292385 -4.55838 23
47 1 -5.54497 11.5009 -1.15806 21
48 1 2.92422 -15.8874 -10.0565 13
49 1 1.37262 0.48833 -11.2773 21
50 1 4.62636 -4.97566 -12.6594 18
51 1 -3.60937 -4.57988 12.0812 16
52 1 -15.289 2.382 0.571601 20
53 1 2.77787 13.3953 -10.7086 12
54 1 -0.204867 16.845 6.11139 17
55 1 -7.35705 6.38934 -8.92509 22
56 1 -0.22024 13.367 4.2314 18
57 1 1.83187 -13.2444 0.347395 22
58 1 7.45659 -5.29234 -8.49759 19
59 1 5.39615 -7.44948 -17.4455 12
60 1 -8.67425 7.63236 11.1121 19
61 1 -12.955 -5.18351 -9.93854 14
62 1 5.11244 0.202984 4.37508 25
63 1 -2.41459 4.94588 -6.42448 21
64 1 -10.8526 -7.11592 7.21743 18
65 1 -2.2602 12.372 13.7327 16
66 1 -13.784 5.05997 -6.65523 14
67 1 -7.63345 11.3596 12.9206 14
68 1 0.214214 10.0465 -5.81221 20
69 1 0.578874 5.91343 5.6248 22
70 1 -6.05125 -16.0771 5.30118 14
71 1 3.28632 8.4316 9.85366 23
72 1 10.2447 -9.89224 -1.70537 19
73 1 5.66823 12.0511 12.3764 17
74 1 -10.4814 -0.848396 -11.0758 19
75 1 -13.8417 3.30715 -9.77725 15
76 1 6.64502 9.6356 13.6164 16
77 1 11.7648 -2.67919 -9.76011 16
78 1 2.57391 -13.326 9.10941 10
79 1 -15.589 -0.0253958 4.2327 17
80 1 -6.78404 1.5572 3.75216 24
81 1 7.83249 16.005 5.05049 13
82 1 2.04183 -2.40651 15.5945 14
83 1 -9.3926 -9.45921 5.09277 17
84 1 -10.3951 -0.0657317 -4.20456 19
85 1 14.3769 2.20799 12.0704 11
86 1 8.46056 -0.0617899 -2.41739 21
87 1 -3.5218 11.2968 11.2266 16
88 1 2.52346 1.80685 4.32054 21
89 1 -7.60736 -4.22144 3.76024 23
90 1 -2.59197 -6.94944 -7.76579 20
91 1 -9.70422 7.72726 8.36466 22
92 1 -13.0271 10.1388 0.10888 11
93 1 -2.62751 8.09281 -12.9845 21
94 1 3.40648 -0.827427 -8.34572 19
95 1 4.81547 -6.17059 -9.78846 20
96 1 7.76971 12.5841 -6.88596 14
97 1 7.14062 -7.61661 4.62641 25
98 1 6.69715 -6.5243 11.6429 12
99 1 -7.3304 11.5213 -3.30302 16
100 1 -4.89055 7.24949 5.81438 21
101 1 -9.05835 -5.5089 15.1012 12
102 1 -6.84097 7.3871 3.21869 20
103 1 -6.08309 -5.80339 11.5018 19
104 1 15.5984 -6.923 -1.90628 13
105 1 -9.4755 5.67101 4.82854 21
106 1 -11.2456 -13.3961 3.13924 15
107 1 7.72856 -5.0598 -2.00623 22
108 1 5.81695 0.00423968 -13.5781 21
109 1 -7.55808 -2.5451 -15.7671 11
110 1 4.48971 3.15728 5.60671 24
111 1 -2.05215 8.74196 -3.99775 23
112 1 -10.6478 3.18573 -14.6103 14
113 1 0.693245 5.24745 16.4226 16
114 1 -0.221073 11.4118 -8.60651 22
115 1 -13.0961 11.9882 6.55653 11
116 1 0.361932 7.7956 -2.23262 21
117 1 -1.32381 0.192339 -4.14713 22
118 1 -5.5945 -7.10643 8.78494 19
119 1 9.60579 -5.86797 9.34224 18
120 1 -0.283928 -7.79209 -10.4733 19
121 1 4.81236 -6.52568 -7.24871 18
122 1 -2.50489 4.48242 10.8338 20
123 1 2.98634 -0.772538 13.4967 20
124 1 -8.55794 -7.14221 -0.902269 20
125 1 7.35694 -2.00403 2.81743 24
126 1 -8.89359 -8.62733 -3.37555 20
127 1 12.4961 -7.76698 3.09459 16
128 1 -9.13148 4.39262 -1.02469 20
129 1 7.58554 3.5504 -14.6185 16
130 1 5.02546 15.8342 0.72075 16
131 1 -8.5301 -12.1694 8.8252 13
132 1 -11.0972 -11.8409 6.16554 15
133 1 -6.90349 6.41242 0.197025 20
134 1 4.53617 -10.7267 -13.4367 17
135 1 2.12092 2.11679 -8.72057 21
136 1 9.73969 -6.33026 -0.370934 20
137 1 -0.979732 -11.193 3.07218 22
138 1 -11.2021 -8.3319 2.18488 19
139 1 14.9352 -2.9413 6.75867 11
140 1 16.7555 -4.8367 -3.61589 10
141 1 -17.6793 -2.69853 3.18218 10
142 1 14.6798 3.31299 0.884279 21
143 1 16.1802 9.40832 0.164048 11
144 1 -4.78137 3.14483 15.6947 17
145 1 4.28145 1.1984 -5.72173 24
146 1 -7.60382 13.6876 10.7862 12
147 1 -10.1534 9.70315 -4.57342 16
148 1 -0.997658 -9.4581 -13.0678 21
149 1 6.88158 -11.1727 -6.27689 19
150 1 -0.0531508 14.7682 -9.57313 15
151 1 6.98466 -7.15989 8.08614 23
152 1 -1.33854 -2.04303 -16.4945 16
153 1 -2.89937 11.6322 -3.21086 20
154 1 14.9115 -5.79831 4.73493 8
155 1 -6.44717 4.68867 -6.2924 20
156 1 2.02822 -4.80288 -3.98025 19
157 1 -10.4582 11.9394 1.78404 16
158 1 4.26257 2.65115 -14.1078 22
159 1 7.29914 -10.0936 6.40791 16
160 1 -4.2286 2.2322 -7.27772 20
161 1 -4.326 14.6654 9.91166 13
162 1 13.2117 11.3076 -6.84952 11
163 1 -3.57053 1.75916 -1.8839 23
164 1 2.45539 10.3114 -0.486874 21
165 1 -5.20839 14.8507 0.789739 16
166 1 18.9463 6.02515 -2.75713 13
167 1 -0.588149 13.8834 -2.1339 23
168 1 -0.260541 15.7691 -6.40058 12
169 1 2.59899 11.364 -13.1609 14
170 1 -16.1456 -9.36516 1.76096 8
171 1 -14.6318 7.50728 -0.596327 12
172 1 -5.10834 -3.59511 -12.1965 19
173 1 2.64953 -12.4923 -15.5152 12
174 1 10.5212 11.9864 6.35372 15
175 1 0.262875 11.9235 0.420114 19
176 1 -13.513 -3.2183 -7.95161 18
177 1 -7.63789 11.5632 7.02734 19
178 1 14.3567 2.21828 -3.1313 25
179 1 -12.4126 0.0876398 -15.0807 9
180 1 4.02062 3.67028 15.9314 21
181 1 5.30895 17.7298 3.48972 13
182 1 -2.18839 12.0455 5.58894 19
183 1 4.14715 -8.48891 -15.313 15
184 1 -2.22578 15.8655 12.298 12
185 1 -2.65691 9.60611 -9.8584 20
186 1 0.798958 -3.82096 13.027 16
187 1 -13.0733 -4.16058 2.92922 21
188 1 -1.20564 -13.9177 -11.5516 13
189 1 -9.28805 4.69187 -6.76956 20
190 1 -2.96697 -9.30174 4.51457 22
191 1 4.36148 -12.648 -5.10497 22
192 1 -5.12026 10.4088 -12.0096 15
193 1 -13.5466 3.09727 8.4878 15
194 1 0.28806 10.9584 -2.81037 23
195 1 7.59085 8.94699 -6.30788 21
196 1 -8.53942 3.17182 17.0406 11
197 1 -0.114148 -11.3883 9.98738 17
198 1 -4.25771 4.63609 -0.887779 20
199 1 4.52061 16.3523 6.42992 17
200 1 -0.317149 8.65352 9.54196 23
201 1 14.4393 3.90306 9.62985 17
202 1 -7.74859 13.5155 2.85374 16
203 1 11.8454 -5.97819 -8.7062 16
204 1 -4.92341 13.7149 12.3866 14
205 1 -2.62958 -0.869096 -7.04754 19
206 1 12.6539 -5.30723 1.44581 20
207 1 -4.805 -3.71661 4.4136 22
208 1 -14.6061 2.85947 5.44699 19
209 1 -10.0977 -5.8866 4.71126 21
210 1 8.0164 6.74285 12.4488 20
211 1 -17.9606 -2.5787 -0.16192 12
212 1 -3.48165 2.51146 4.00703 21
213 1 -3.94682 -12.2806 4.97858 22
214 1 -2.15015 -0.49022 8.28756 19
215 1 -7.75412 -5.60915 -4.12269 19
216 1 4.99463 -6.18138 -0.411816 22
217 1 -0.453289 13.9127 11.351 16
218 1 -9.83084 2.78058 3.41561 22
219 1 6.75241 14.7834 11.1626 12
220 1 -7.85375 -1.22216 -5.93836 17
221 1 -7.82698 10.8907 -6.55893 15
222 1 -15.7124 -4.26674 -6.40672 14
223 1 -9.75931 -1.18978 10.5769 21
224 1 -0.933304 -13.7085 8.03371 12
225 1 5.07496 -11.5233 8.07547 16
226 1 -12.9542 11.7739 9.49865 10
227 1 17.9724 4.38545 0.328353 11
228 1 1.40933 3.10938 -4.18946 21
229 1 -4.95118 -7.84946 -15.6477 13
230 1 5.2351 1.53371 10.6286 20
231 1 -4.66873 -0.449996 2.45188 22
232 1 4.2237 -14.93 1.72174 17
233 1 -5.03152 9.40069 -14.9357 12
234 1 4.38856 -16.9108 -7.75705 11
235 1 9.28856 0.896078 -14.014 15
236 1 -1.07148 11.2673 -13.7253 15
237 1 -8.19179 -5.84349 -9.88802 21
238 1 -4.95213 12.705 -5.51573 15
239 1 -11.2148 -10.2736 8.96517 12
240 1 7.30046 14.0698 -0.874138 20
241 1 -6.53352 -0.828772 16.2435 13
242 1 -11.8847 5.21566 -1.45765 23
243 1 7.75807 2.48782 8.67823 21
244 1 -2.92102 -6.92605 -13.9737 21
245 1 -5.32073 9.82644 -4.62104 21
246 1 5.57626 5.59623 -13.0667 23
247 1 -7.76284 -7.75737 6.97358 18
248 1 1.61343 6.65836 0.893076 21
249 1 -5.72506 5.87081 10.4987 21
250 1 -6.39585 8.54527 8.69284 21
251 1 1.43989 -13.4194 -9.85181 18
252 1 -6.81853 -15.3977 -1.39773 14
253 1 11.8575 -10.9852 0.342673 9
254 1 -2.95278 2.68133 6.87987 18
255 1 -2.62208 -0.239822 -0.0290635 21
256 1 1.96089 -4.13382 -0.465309 19
257 1 12.9102 5.68124 11.8146 12
258 1 5.5749 9.65738 -8.85447 20
259 1 2.93104 12.9472 2.11793 20
260 1 -13.0719 -1.42831 -5.62574 20
261 1 -12.4977 10.5567 3.55141 13
262 1 6.30386 9.42927 10.6182 22
263 1 4.71863 -17.5583 0.856117 10
264 1 12.227 -1.30124 -2.43184 19
265 1 1.37829 8.20632 7.13587 24
266 1 -14.8735 5.90673 7.26403 12
267 1 -10.6409 -6.14596 -4.70277 20
268 1 6.27523 2.64292 -11.6486 21
269 1 4.07512 -1.45107 10.3495 19
270 1 8.06596 11.004 -9.90001 17
271 1 4.3895 -9.62773 -3.34874 21
272 1 -2.12994 -3.4763 -13.5901 22
273 1 -0.700174 -11.2933 6.49186 23
274 1 9.34435 -0.61979 -8.25797 21
275 1 -9.42622 -0.00679606 4.89151 21
276 1 1.84906 -14.1109 -6.33858 21
277 1 -10.8003 -5.22686 -7.57968 23
278 1 3.18038 9.47843 2.01707 21
279 1 2.59397 -5.93557 -15.059 25
280 1 2.88884 10.0784 12.7314 19
281 1 12.2687 4.15695 -1.5683 22
282 1 -6.3059 -6.16426 1.25492 19
283 1 10.9607 -5.1456 -12.2436 15
284 1 -2.91852 -2.71304 2.7264 22
285 1 -10.5314 -5.19295 -14.764 11
286 1 -15.6215 -0.535549 -7.14557 14
287 1 -5.64304 -7.09478 4.61362 22
288 1 11.7093 2.20492 8.74382 24
289 1 4.66272 -3.05047 7.85151 22
290 1 -5.48494 -9.16118 -12.7915 19
291 1 0.209891 -2.17441 7.65176 20
292 1 1.34654 6.66658 -10.7415 17
293 1 5.4365 6.88884 2.47405 23
294 1 -8.21561 -7.74865 2.63895 19
295 1 -2.09597 9.85322 -0.770331 20
296 1 -8.96715 -3.95703 12.4435 24
297 1 -10.6563 -7.54109 -8.7312 17
298 1 -5.648 -6.63361 -11.73 22
299 1 -1.97284 9.39578 -15.9208 13
300 1 -6.36717 -10.0197 -5.73275 22
301 1 -3.32412 -8.90402 1.20624 20
302 1 -3.40186 -6.76079 -0.580074 19
303 1 9.269 -4.69577 -15.0037 13
304 1 15.5078 -2.02408 -6.02344 11
305 1 -0.141413 3.09211 3.78444 21
306 1 13.0329 4.02732 4.00938 17
307 1 -3.42895 -5.93779 -3.78941 23
308 1 -10.7804 -4.28754 9.06386 20
309 1 1.6978 -13.1859 -2.86532 21
310 1 4.97038 2.23121 18.0096 13
311 1 -8.20207 -11.6614 5.65992 19
312 1 3.31385 -1.90775 -5.36266 20
313 1 -0.815608 -11.3255 -0.144605 20
314 1 -3.29978 16.0631 -1.13572 16
315 1 3.57487 1.15929 -16.7136 15
316 1 -5.77311 -5.2494 -14.8693 18
317 1 5.04194 -5.94989 2.89907 24
318 1 -11.3182 -7.54524 10.37 16
319 1 4.33817 5.95153 17.67 15
320 1 4.44664 -12.0841 -1.56836 22
321 1 -3.43099 -13.0094 -9.30373 16
322 1 -7.28438 5.22305 -12.4016 22
323 1 11.9241 5.48851 8.6574 21
324 1 -5.07841 0.391455 -10.0266 22
325 1 -2.13581 2.1562 -12.9088 19
326 1 -3.30536 -0.483604 5.18514 23
327 1 9.69349 -10.154 -8.26711 15
328 1 -8.01012 13.4061 -0.308604 14
329 1 2.26611 11.1691 4.83245 20
330 1 9.77398 -0.00920218 3.99598 22
331 1 -7.69755 4.52828 2.10197 20
332 1 -3.17035 -8.59993 14.1998 12
333 1 -7.77629 10.8093 3.76354 20
334 1 6.27799 -5.76152 -15.1812 19
335 1 15.2528 10.8394 -4.72707 12
336 1 4.502 -11.4809 1.6332 22
337 1 -0.582573 -4.03804 15.7846 12
338 1 -15.0623 -2.93862 5.36402 18
339 1 6.3746 -14.3531 -6.77882 18
340 1 -6.55349 5.16689 17.5515 9
341 1 -9.27616 6.3217 15.4993 12
342 1 -13.4375 -2.91278 8.38947 18
343 1 -15.0132 -5.57317 7.22965 14
344 1 12.4908 -5.66537 -2.19995 23
345 1 -13.735 -8.22605 8.63621 14
346 1 8.3374 -3.17626 -10.0156 21
347 1 11.8707 -12.1092 -6.27802 9
348 1 2.39247 17.3537 -1.54033 14
349 1 -2.96886 -3.573 7.25084 20
350 1 -10.0804 10.5766 -1.07276 16
351 1 1.48124 3.59372 7.00403 22
352 1 11.1041 7.26804 10.8249 18
353 1 -10.2822 -2.95036 3.41161 22
354 1 7.30807 -10.5786 0.0900336 21
355 1 -2.07707 11.0691 2.52162 18
356 1 -9.66411 -0.959052 -0.751008 24
357 1 -0.823444 5.71002 2.5812 25
358 1 4.93455 -8.55569 9.76157 19
359 1 9.76987 -6.00177 6.16414 22
360 1 -1.85511 8.21326 6.42172 23
361 1 -5.45131 -6.82289 -6.3638 21
362 1 2.24596 -4.09569 6.22661 21
363 1 -0.697506 2.49303 9.31573 19
364 1 -0.045737 14.639 1.39031 18
365 1 7.10727 1.81381 15.4235 15
366 1 -12.1865 8.28575 -2.61286 17
367 1 1.91202 -7.67161 -17.5244 14
368 1 -7.47296 0.0758107 -3.11237 20
369 1 4.2646 -10.3214 -10.4227 17
370 1 -8.35441 1.96769 11.8465 23
371 1 -13.1116 1.82332 3.05771 19
372 1 -3.17541 -4.20732 -6.90901 22
373 1 -6.8371 5.84518 -2.98159 23
374 1 7.28759 -1.2477 6.05292 23
375 1 -11.3835 -11.8151 0.520483 16
376 1 10.2627 -8.79788 8.05812 13
377 1 -5.68277 2.58367 1.25932 21
378 1 -8.20578 -9.03195 10.0099 18
379 1 -12.7507 7.67293 2.36417 17
380 1 -3.19898 -7.47958 11.2936 20
381 1 7.42702 -11.2561 -3.39768 19
382 1 -5.28539 -5.08905 -8.96302 22
383 1 7.83107 -1.86052 -15.4788 16
384 1 2.32956 18.3997 4.94403 10
385 1 -12.491 -2.50009 -2.76869 21
386 1 9.22971 -6.95248 -10.106 17
387 1 8.35619 6.42731 -13.0766 18
388 1 -0.721374 -14.6618 -7.94208 16
389 1 -12.9729 -8.27036 -3.93952 15
390 1 -0.360291 -8.25176 -0.529546 23
391 1 11.3211 3.41433 11.6629 21
392 1 -1.40497 3.06174 -4.24765 19
393 1 11.2071 4.90304 1.1626 20
394 1 -8.34264 2.00858 -11.4521 18
395 1 2.29451 17.3209 1.76039 14
396 1 -17.6798 -1.76585 -4.49722 10
397 1 -0.336828 -2.1944 1.15507 20
398 1 -3.15595 15.3417 6.60451 15
399 1 -7.42309 9.67308 0.796664 20
400 1 -7.35757 5.76395 7.44335 23
401 1 9.38821 5.03258 9.99614 21
402 1 10.6355 -1.07733 -5.10494 21
403 1 7.11113 -3.6059 10.8829 20
404 1 12.1001 -0.213842 -7.67328 17
405 1 -3.68215 -15.2756 -3.31878 18
406 1 2.56064 -1.08626 6.11233 21
407 1 -4.66176 3.92908 -4.24709 25
408 1 2.3699 -8.16145 -5.25012 21
409 1 0.0876452 8.87992 1.16117 20
410 1 9.59633 2.51802 -0.355807 21
411 1 -9.32508 3.86992 -10.1384 19
412 1 4.65806 -9.38305 -0.189049 23
413 1 12.5666 -0.964602 7.6597 20
414 1 -10.3177 -2.28763 -8.12439 18
415 1 -3.54886 -5.58383 2.47557 18
416 1 -8.72307 -6.78613 12.2085 19
417 1 -4.44202 8.12301 -2.05944 23
418 1 -11.6028 -10.7994 -2.95719 17
419 1 7.10888 4.62404 17.2045 12
420 1 -11.6956 2.69496 -7.45837 16
421 1 3.22441 9.25467 -11.5819 16
422 1 3.54917 13.7744 8.23109 18
423 1 -12.9824 -5.41767 -1.84198 18
424 1 -0.347455 -8.03945 -3.7264 22
425 1 -8.38026 2.9135 6.4993 23
426 1 -14.2529 2.54776 -2.32323 20
427 1 2.15209 -7.04743 4.48252 23
428 1 -3.80404 -12.549 -1.25481 22
429 1 11.2795 11.4831 9.73454 10
430 1 7.21709 9.40383 -14.2418 10
431 1 -12.8257 -0.153573 -8.586 16
432 1 -2.59083 13.4928 -7.70796 17
433 1 -4.25158 5.86673 -8.41987 24
434 1 -0.298181 -8.03194 2.96889 20
435 1 14.0825 3.7912 6.74572 21
436 1 0.811774 8.59804 -13.9793 20
437 1 -4.96839 0.131605 13.5918 21
438 1 -17.1911 2.98535 3.19948 14
439 1 3.12893 2.28622 -1.28499 21
440 1 -5.56415 4.62234 4.82871 24
441 1 -6.32417 -13.6184 3.48307 22
442 1 2.4867 -3.70552 -8.24326 19
443 1 8.0674 -6.04065 -12.3929 18
444 1 -1.30785 -3.31834 10.4643 18
445 1 -12.7968 4.98941 4.64 19
446 1 -12.9513 0.267305 9.94159 16
447 1 -13.1222 8.85899 8.05159 16
448 1 -0.697579 -5.38961 7.87874 20
449 1 -3.99353 5.01226 -12.274 21
450 1 9.99761 -10.6219 -4.93543 21
451 1 1.76632 -11.1719 -12.0989 23
452 1 -7.32842 -3.31149 9.54497 20
453 1 5.0331 -6.2576 -3.55043 22
454 1 -4.29997 3.31779 -15.294 16
455 1 4.56582 -8.93589 3.33382 22
456 1 2.20805 12.6112 -4.58423 20
457 1 -3.39684 10.1574 7.49717 19
458 1 -2.67119 -5.90536 14.9403 11
459 1 -10.6362 -6.46067 -12.0134 16
460 1 -6.69637 -4.67591 6.75541 22
461 1 9.97665 -9.28234 4.72867 15
462 1 4.86666 3.91237 -3.68763 22
463 1 -4.23749 5.38864 2.35806 20
464 1 6.67567 0.576102 -8.59741 20
465 1 10.5035 -3.01609 2.78907 21
466 1 1.15238 3.41029 1.12331 21
467 1 16.3983 6.84123 -5.36543 13
468 1 -4.5675 5.79534 13.5308 19
469 1 2.33737 13.4671 -1.28412 21
470 1 7.86722 -9.76656 9.74807 12
471 1 -0.945324 -13.9631 -4.43342 22
472 1 -3.37692 5.2947 16.9279 13
473 1 2.01914 16.4836 8.0136 15
474 1 -8.48702 -10.2915 -8.2982 14
475 1 9.56062 12.6086 0.892298 18
476 1 5.42608 7.52841 7.40061 21
477 1 -7.07937 2.58406 9.47252 22
478 1 -1.17394 -11.0267 -3.22159 21
479 1 -9.85829 4.57877 10.0198 19
480 1 -8.2065 -7.40636 -6.88708 22
481 1 -5.48726 10.1645 4.64561 20
482 1 -6.30452 -12.5617 -7.29538 16
483 1 -3.01748 -10.2603 -15.2394 13
484 1 -9.1566 -11.1337 2.34677 20
485 1 -0.154628 -2.1124 4.43643 20
486 1 10.1372 3.60386 6.80925 19
487 1 -6.01578 -6.81383 14.9684 11
488 1 -13.7745 2.22551 -13.367 11
489 1 14.7877 0.209167 2.02929 21
490 1 -9.20014 -12.8322 -2.01406 16
491 1 0.850045 4.8409 -7.59283 21
492 1 -0.634428 17.1412 3.14076 16
493 1 -2.04108 6.3897 -10.4005 21
494 1 -3.49688 7.84893 9.41172 20
495 1 -18.2237 0.14793 -1.95245 15
496 1 -2.69779 13.0797 -0.162407 21
497 1 5.05599 10.4445 -5.62765 19
498 1 -6.09646 -8.57397 -8.98543 23
499 1 9.64783 -1.67977 12.1694 13
500 1 6.53747 -14.1019 -3.14926 21
501 1 -0.244922 -6.29082 -13.3952 20
502 1 9.61769 -13.0113 1.73928 11
503 1 -10.0609 8.23496 3.11538 21
504 1 1.36745 7.49803 11.6826 18
505 1 9.68146 8.62305 -3.4432 21
506 1 2.88199 8.0174 4.50986 21
507 1 -9.65874 7.00375 -10.9553 16
508 1 5.53556 -2.36687 -9.93048 22
509 1 4.52081 -8.98462 6.39899 24
510 1 -13.3318 -4.80676 -5.16442 22
511 1 2.88518 5.58718 -2.53736 21
512 1 4.88571 14.7441 3.38779 18
513 1 -3.11159 3.28232 -9.64443 20
514 1 11.2216 7.92535 -0.339674 22
515 1 4.83705 14.2541 -5.59918 16
516 1 7.82268 -4.59932 1.24708 21
517 1 17.0892 3.9408 -4.20259 17
518 1 -0.462647 -0.461795 -13.5975 23
519 1 1.79859 -10.013 1.46559 19
520 1 -0.557171 -14.3479 4.76164 17
521 1 -0.104792 -8.15739 10.029 21
522 1 -5.46721 -1.47367 -7.51879 20
523 1 -12.3522 -10.6111 3.87402 19
524 1 4.07805 4.8514 0.168199 22
525 1 -1.24558 -11.0019 -10.142 20
526 1 8.2364 13.0875 5.26177 18
527 1 0.878765 2.45913 -14.0468 20
528 1 2.4732 0.661937 16.2079 21
529 1 -12.1696 3.23614 11.5809 15
530 1 -0.579145 -17.8437 -1.89433 12
531 1 -11.9796 -2.83614 0.533696 20
532 1 14.185 -3.80851 -3.86958 21
533 1 10.1708 -4.20181 -4.09753 20
534 1 -2.17992 5.82902 -3.21191 22
535 1 -10.1327 6.61929 -3.85566 23
536 1 1.65209 -9.9206 -9.30667 18
537 1 2.94675 3.35028 -11.4402 22
538 1 7.54468 -5.29139 -5.39618 22
539 1 -3.2354 -2.33483 16.0253 13
540 1 4.84673 12.2123 0.260222 20
541 1 -4.07199 -2.39056 -15.4493 17
542 1 -0.886177 -4.82203 -2.39027 22
543 1 5.34999 3.82467 -16.9361 14
544 1 -6.51995 -1.54456 4.87646 22
545 1 -4.87685 8.8753 1.25114 21
546 1 -7.17108 -0.725799 -12.4131 20
547 1 -12.6429 -1.19926 4.29174 21
548 1 -0.356931 -12.2 -14.1779 16
549 1 -5.83922 -11.5973 10.3243 12
550 1 0.587026 7.9836 -8.36823 18
551 1 16.8796 3.13711 7.39233 13
552 1 12.6175 7.34483 -3.72951 19
553 1 -9.24784 -10.184 -0.453773 20
554 1 1.39857 -9.91747 -1.73557 20
555 1 0.309334 -4.74185 -16.7612 14
556 1 -11.5112 9.20021 10.9904 16
557 1 1.54572 -5.09277 -11.0845 19
558 1 4.57445 8.1608 -0.848158 23
559 1 12.8978 -1.61495 0.772264 20
560 1 2.16779 15.4465 -4.23962 16
561 1 2.46639 -7.09251 1.31206 23
562 1 4.63833 -4.01991 -5.7845 16
563 1 12.296 5.55507 -7.36033 20
564 1 6.29486 5.145 14.4213 22
565 1 -10.9091 4.87316 7.21264 19
566 1 -5.91534 -4.98545 -1.6694 21
567 1 4.82352 11.4096 8.99126 21
568 1 6.12322 -1.16473 12.8254 15
569 1 0.277041 1.01946 -16.3985 17
570 1 -3.45116 -8.54471 -5.19721 22
571 1 -2.22107 -1.84146 13.1342 20
572 1 7.97403 12.1332 9.8834 17
573 1 6.32525 8.3854 -11.284 21
574 1 -9.83512 8.23744 -7.67945 16
575 1 -0.946034 12.841 -5.40935 21
576 1 4.69741 -5.21134 9.60082 22
577 1 9.51134 3.38854 -11.7008 18
578 1 14.9151 -6.38014 -5.32493 13
579 1 13.9948 8.72472 10.051 11
580 1 -15.4763 -3.98521 0.58653 16
581 1 -8.04814 10.1292 -9.84129 14
582 1 0.470828 -1.01444 10.8627 20
583 1 -10.8657 -0.00142039 12.7065 17
584 1 -5.08964 11.3633 -8.64831 16
585 1 9.57377 -14.1089 -4.29461 14
586 1 3.24544 -2.33619 -11.629 22
587 1 -5.11487 13.7595 -2.52012 17
588 1 -8.15817 -7.47671 -14.2617 13
589 1 1.80917 -10.2333 4.70979 22
590 1 -11.5546 -7.94024 -1.24649 20
591 1 8.32209e-04 13.2452 -12.2751 11
592 1 -6.23997 0.00378778 -0.327607 20
593 1 -2.29639 9.28729 15.4302 14
594 1 -12.2526 -4.19988 6.25879 22
595 1 6.30805 5.30863 -1.66604 23
596 1 4.12159 -13.424 -11.8944 13
597 1 2.25207 -6.43069 11.296 18
598 1 9.70718 1.98669 -6.14206 24
599 1 -2.98462 -3.59437 -0.910445 21
600 1 -10.254 5.45455 1.5674 20
601 1 -0.311349 -1.06045 17.6216 11
602 1 5.07327 16.1127 -2.87905 12
603 1 13.1422 -3.46481 -6.71138 16
604 1 1.64138 11.0028 9.10529 20
605 1 0.0104821 6.5859 -15.9502 14
606 1 -5.77585 -12.7151 7.06644 18
607 1 -1.63233 0.206497 -10.1523 20
608 1 6.77532 0.830526 -16.5286 15
609 1 3.52458 9.7199 6.90465 22
610 1 7.22778 5.22671 -10.2364 23
611 1 -2.84761 -5.16348 -16.656 13
612 1 -3.87171 -11.9036 -4.61843 22
613 1 -15.3978 -2.67105 -10.246 10
614 1 7.61401 1.56145 2.46549 22
615 1 16.5699 8.40019 -2.69634 14
616 1 11.9909 -5.85779 -5.71631 19
617 1 16.2887 6.39388 8.78301 11
618 1 6.81363 -8.55863 -5.07699 23
619 1 3.53634 6.70483 -15.9025 15
620 1 10.2793 14.7892 3.52049 11
621 1 -8.47305 1.74632 0.67553 22
622 1 9.26401 4.08242 14.4735 11
623 1 9.52476 5.48401 -1.53252 22
624 1 17.0519 -0.0175071 -3.36635 16
625 1 13.4677 8.13251 -6.25028 17
626 1 2.77999 5.80979 14.6402 24
627 1 16.7803 5.53532 5.58856 14
628 1 2.00902 -3.9007 9.66261 21
629 1 11.6356 10.3958 -4.1402 20
630 1 4.72834 2.87004 1.99426 24
631 1 -1.23528 3.16248 16.3167 14
632 1 12.7203 2.79335 -6.1584 21
633 1 7.08609 3.9704 11.6114 19
634 1 -7.67591 -4.04318 -7.02281 21
635 1 13.1437 7.45036 2.36936 18
636 1 12.7367 -1.04904 4.3005 21
637 1 1.98849 -6.69084 -1.72779 18
638 1 -10.0849 9.37806 13.6442 13
639 1 9.13432 8.8951 13.8432 11
640 1 10.0577 -2.65929 9.0007 22
641 1 2.6453 12.9658 11.61 20
642 1 0.331461 14.0072 14.1016 14
643 1 7.33646 2.09193 5.40797 23
644 1 -1.4898 -16.8465 1.15445 11
645 1 -7.82543 7.75394 -5.89477 22
646 1 10.245 10.5876 -7.60184 20
647 1 10.1923 -2.12383 -12.6844 16
648 1 -0.876023 17.5214 -0.189033 14
649 1 -1.19522 -11.8428 -6.69448 18
650 1 6.73463 -9.03632 -11.5381 14
651 1 -15.3322 5.7453 4.06898 13
652 1 -5.49667 7.80078 -10.9662 24
653 1 -4.05785 -12.0512 1.77386 20
654 1 -3.03164 -2.51036 -9.83198 20
655 1 -16.0913 4.81104 -1.48377 16
656 1 9.6495 -6.0807 2.91894 22
657 1 10.8034 11.6652 -1.17543 20
658 1 -0.169153 -8.10163 6.36045 22
659 1 -13.1725 -1.09334 -12.1665 16
660 1 -2.0577 3.01716 1.25526 24
661 1 1.74773 3.97388 -16.7582 16
662 1 2.46373 -1.29275 2.78713 22
663 1 -0.937705 7.14657 17.3151 12
664 1 5.54958 11.378 -11.5475 16
665 1 12.1619 1.46749 5.42535 22
666 1 9.06103 5.12014 -7.15662 20
667 1 5.2624 -0.0435664 -2.53372 21
668 1 8.41237 10.1976 4.53158 21
669 1 3.79695 -12.7131 -8.27715 22
670 1 -11.3645 -2.51134 15.0521 13
671 1 16.8551 -1.09554 4.08082 11
672 1 0.342269 10.9594 15.309 14
673 1 5.44074 12.9775 -8.7947 15
674 1 -14.0816 5.62553 -3.55603 17
675 1 8.02437 7.82798 -0.323915 21
676 1 -8.74422 -14.0662 0.98073 17
677 1 17.023 -1.61065 0.579919 10
678 1 11.2481 12.1527 3.27924 17
679 1 -5.14148 3.09229 12.404 20
680 1 -10.7998 -5.76999 0.988477 20
681 1 -10.7686 -3.73808 -11.1009 21
682 1 8.94982 1.38986 10.8828 21
683 1 -2.87375 -10.2875 11.3342 16
684 1 9.00626 9.4294 10.6249 21
685 1 -3.58038 17.3631 1.94873 13
686 1 9.41108 4.15355 3.68943 18
687 1 5.18524 -0.133601 1.18719 21
688 1 10.0199 6.7503 6.42032 18
689 1 2.21735 -1.96018 -16.6663 17
690 1 -7.93236 -0.0685509 7.52593 21
691 1 8.05625 -0.511893 -11.1085 24
692 1 -0.555714 -6.00431 -5.57175 21
693 1 12.2625 -8.74613 -6.73833 13
694 1 7.2808 10.2136 7.2741 24
695 1 6.73712 4.80758 6.86824 24
696 1 -9.48961 -0.0485176 15.6189 16
697 1 11.2381 9.19364 8.0801 19
698 1 5.06061 -0.185209 15.7963 14
699 1 -2.27159 7.76517 12.3258 19
700 1 1.76601 -9.67356 -14.8033 22
701 1 -7.26633 1.99568 14.6856 19
702 1 -1.95053 7.64864 -7.34511 18
703 1 4.73077 7.5288 12.5434 20
704 1 -15.3979 -11.2129 4.41264 11
705 1 19.0466 2.22771 -3.27482 9
706 1 9.80183 -7.14169 -3.65008 23
707 1 -4.57529 7.09658 -5.16652 20
708 1 13.6586 13.9701 -3.80539 7
709 1 13.3468 10.1244 1.38064 19
710 1 5.10989 -1.51707 -17.8629 13
711 1 -4.20175 1.76385 9.73646 19
712 1 4.60081 11.8467 -2.79891 21
713 1 13.7914 6.54948 -0.703272 18
714 1 -0.340415 -2.06998 -1.68961 20
715 1 -6.10693 -9.16259 0.025602 20
716 1 -2.82928 0.812477 -17.0299 9
717 1 -10.3736 12.9108 4.65631 15
718 1 10.1797 -7.78642 -14.3888 8
719 1 6.49788 4.69267 3.8759 24
720 1 12.0167 8.88678 -9.08899 14
721 1 10.4868 14.6248 -1.77093 11
722 1 -2.39618 5.32224 5.2055 20
723 1 -8.98943 3.37505 -4.07393 18
724 1 7.67891 6.07489 -4.52404 21
725 1 4.88183 1.74548 13.3841 23
726 1 11.123 1.19819 13.4319 10
727 1 -3.17449 -11.874 8.34047 19
728 1 -7.59493 8.53238 -13.36 14
729 1 1.05129 16.2839 11.1999 14
730 1 6.99954 -9.19138 -14.8864 11
731 1 4.23269 3.94329 8.90589 21
732 1 7.77457 14.1926 -4.10388 15
733 1 5.42707 9.94343 4.4995 22
734 1 -7.60935 -2.82554 -2.82873 19
735 1 15.3245 -6.78776 1.62343 12
736 1 0.439965 4.51128 12.2523 17
737 1 -11.562 1.70786 5.98035 22
738 1 4.21439 -15.9891 -4.65918 18
739 1 1.31085 0.425685 -5.9417 19
740 1 -7.85246 14.482 5.98055 12
741 1 -1.26054 5.73975 7.93136 21
742 1 4.46588 -3.52308 -2.36273 23
743 1 5.4147 12.7823 5.69978 22
744 1 -10.6151 -0.0449326 1.87969 20
745 1 -1.81782 1.77575 12.1656 21
746 1 -6.39889 6.24145 -15.2738 13
747 1 -9.52837 6.33954 -14.4716 12
748 1 6.37006 -16.9967 -1.71833 13
749 1 6.16275 6.2509 -7.38853 21
750 1 5.00084 -5.68716 6.33047 23
751 1 -8.14444 8.38176 5.82503 20
752 1 -11.2321 6.19916 12.883 15
753 1 0.945837 -3.31512 -13.9454 20
754 1 2.41939 -9.61486 11.4591 12
755 1 6.484 12.3309 2.15904 21
756 1 -2.0653 0.534257 15.4496 15
757 1 -4.22162 -1.50139 -1.75857 20
758 1 -8.46261 -8.86042 -11.1454 16
759 1 -3.55584 -11.6553 -12.3854 16
760 1 -3.68653 -14.2165 -6.015 18
761 1 -2.58865 14.9189 -4.08423 15
762 1 6.25123 -2.27411 -7.32581 21
763 1 2.96388 -1.26014 -0.303237 23
764 1 -5.28814 13.1906 5.22194 19
765 1 3.91429 -9.50981 -7.0772 21
766 1 6.73585 -14.146 0.315857 16
767 1 2.32877 -6.943 7.92258 23
768 1 15.7014 4.67544 -7.3223 11
769 1 6.97819 -16.8219 -5.38011 11
770 1 -11.1562 -1.25206 7.46223 20
771 1 0.423652 -0.690945 -8.43799 21
772 1 -3.89511 -14.9836 -0.114243 18
773 1 -6.54798 -10.6525 -2.50347 20
774 1 -1.25861 0.112546 3.08788 22
775 1 -10.5093 1.60882 9.03831 22
776 1 -6.24267 -16.0466 1.96781 17
777 1 14.272 5.13707 -4.41097 22
778 1 -3.38383 17.9291 5.13321 10
779 1 -4.36573 4.5464 8.00417 20
780 1 -12.0526 7.58993 5.59672 18
781 1 9.48783 -0.441325 0.775036 21
782 1 -13.3573 -4.14618 -12.8817 12
783 1 3.02427 8.97644 -3.68058 20
784 1 8.22728 2.57466 -9.13859 21
785 1 6.06558 7.932 16.1491 11
786 1 1.55295 0.754414 1.415 20
787 1 8.14508 3.0954 -3.37911 21
788 1 -15.1848 -0.473735 -3.98708 18
789 1 -13.5822 -7.29229 -7.12685 13
790 1 -1.93694 5.05183 14.2572 20
791 1 8.4988 7.86954 -8.8861 19
792 1 10.8437 9.25196 4.02306 20
793 1 -4.5144 -1.85314 10.9834 19
794 1 -1.06928 -14.694 -1.38184 19
795 1 -9.22988 -14.4979 5.90755 11
796 1 -4.29256 -4.72856 9.28181 22
797 1 15.6075 8.35246 6.95259 12
798 1 1.62865 -6.80137 -8.10931 19
799 1 -10.2954 7.81753 -0.330648 22
800 1 7.39876 7.74514 5.40239 19
801 1 -8.96018 -3.29264 6.46376 17
802 1 9.48019 8.91878 -11.5232 13
803 1 -1.42572 -16.7932 -5.33797 13
804 1 3.53223 -15.4745 -1.36608 22
805 1 1.1835 -15.8258 -3.7849 21
806 1 5.14629 3.40523 -8.72906 21
807 1 7.33418 14.992 2.23161 17
808 1 -3.90113 -0.556432 -12.6623 20
809 1 2.56833 1.28645 8.92893 17
810 1 2.50389 5.37721 -13.5001 18
811 1 -7.88762 -4.10817 -12.8403 20
812 1 -10.2497 -4.37587 -1.92455 20
813 1 -0.643749 17.2917 -3.21081 12
814 1 6.97904 -2.07102 -0.665649 20
815 1 -0.739205 -7.96241 -16.1654 17
816 1 -5.64301 -7.56673 -2.97768 21
817 1 10.7369 7.60489 -6.34935 20
818 1 12.5062 -8.56695 -3.56796 17
819 1 -6.99806 8.45438 14.9022 13
820 1 4.76136 -11.7736 4.60493 21
821 1 14.6117 -3.12204 2.62831 18
822 1 15.2187 0.349687 5.74864 17
823 1 0.117211 8.82747 3.88727 22
824 1 -10.5499 3.00428 14.4117 16
825 1 -7.84462 5.07641 12.7646 20
826 1 -3.41418 -15.4397 6.37299 11
827 1 6.23773 2.47843 -0.716408 22
828 1 9.05973 12.2512 12.766 12
829 1 -17.1838 -0.0720192 1.44097 17
830 1 7.30618 -2.5506 -4.01302 20
831 1 -0.341171 1.68674 -1.33837 19
832 1 -12.1108 7.40056 -5.83783 14
833 1 2.69419 4.65718 3.40365 24
834 1 3.97399 -14.9479 5.47484 10
835 1 1.3518 2.86133 14.6602 22
836 1 -1.43618 11.6431 9.58206 17
837 1 1.65004 -12.721 6.45574 18
838 1 -7.71752 0.601875 -8.70475 18
839 1 1.44575 1.67998 11.5079 20
840 1 -15.7607 -3.70335 -2.81799 16
841 1 2.64795 12.1933 16.3105 6
842 1 6.8616 9.39871 1.7551 20
843 1 -14.1162 -12.2026 1.572 11
844 1 -3.61251 -14.8749 3.27713 19
845 1 7.61671 -4.09527 7.78319 24
846 1 7.63275 -4.10076 4.631 21
847 1 9.80134 9.77072 1.39744 20
848 1 -2.77119 10.6203 -6.71601 21
849 1 -0.377086 -8.90679 -6.83442 19
850 1 -5.74216 2.09014 -12.8673 22
851 1 -6.20513 -3.42614 14.1617 20
852 1 -2.91229 14.2862 3.01554 21
853 1 11.5855 1.86338 2.2767 21
854 1 3.09532 7.92634 -7.20813 19
855 1 -4.57018 8.199 16.9176 12
856 1 8.45097 7.45349 8.84923 24
857 1 6.95519 -3.17017 -12.9782 19
858 1 -6.66231 -12.6228 0.0280963 22
859 1 -0.0109778 -2.4574 -5.84795 19
860 1 17.1894 1.21713 -0.681145 14
861 1 4.42275 0.531505 -10.8642 23
862 1 0.219367 7.8915 14.5035 22
863 1 11.4282 -12.81 -2.74724 11
864 1 6.50908 6.5938 -15.9338 13
865 1 -3.26738 -9.44054 -1.88266 21
866 1 10.9217 6.09194 -10.7166 14
867 1 14.895 -0.95472 -1.73624 19
868 1 -0.822838 -6.66173 13.3247 16
869 1 -3.38461 -8.7142 -10.8505 23
870 1 -6.57065 2.67779 -2.18629 22