ITEM: TIMESTEP
382000
ITEM: NUMBER OF ATOMS
2000
ITEM: BOX BOUNDS pp pp pp
-30.0 30.0
-30.0 30.0
-30.0 30.0
ITEM: ATOMS id type x y z Coordination
1 1 -11.4006 4.59145 -11.8742 15
2 1 -3.70457 -9.70576 -7.76639 20
3 1 3.24597 13.6745 13.8864 12
4 1 6.96874 -10.5752 3.5461 17
5 1 -7.36647 8.09011 -2.48418 20
6 1 6.90829 -8.47046 -8.16216 21
7 1 -11.4459 1.69106 -10.9786 18
8 1 -0.910179 -8.84633 13.3498 13
9 1 -7.18909 -2.24302 -9.61698 24
10 1 -16.4686 -8.01733 5.62166 10
11 1 11.7166 3.52248 -9.418 21
12 1 2.98771 1.72 -3.53291 22
13 1 -5.52912 -9.81893 3.24568 24
14 1 -13.9942 -6.57329 1.12658 19
15 1 3.41995 4.0575 10.6048 21
16 1 5.49709 -2.32681 4.24282 22
17 1 0.315941 3.94398 10.7406 19
18 1 5.22693 -3.05638 0.790793 23
19 1 0.304462 10.0893 -10.8821 23
20 1 2.78607 -0.796143 12.6328 21
21 1 -9.42717 0.103854 -15.1958 14
22 1 -12.8023 -2.71717 11.8451 16
23 1 12.4357 1.90735 6.53154 22
24 1 3.71566 5.4264 -7.96786 19
25 1 4.63453 6.72501 -10.9181 20
26 1 13.6354 0.33166 10.4106 14
27 1 -8.65913 -1.51466 2.73532 21
28 1 -14.296 1.45364 -5.52111 15
29 1 -0.158069 -2.60195 -11.1702 18
30 1 -10.2076 10.8835 12.1471 12
31 1 5.87471 -13.6548 3.6519 13
32 1 2.50552 0.203384 7.78789 20
33 1 6.4491 -14.0455 -9.73298 11
34 1 9.59172 -9.68264 1.41493 18
35 1 -6.61663 -13.643 -4.09566 16
36 1 -13.8473 -5.28596 10.0892 16
37 1 8.48395 -0.118113 -5.78665 20
38 1 1.46003 -8.12933 -11.5335 25
39 1 6.45461 -11.0829 -9.63162 17
40 1 -2.54219 6.33321 -15.4376 17
41 1 -0.36254 8.6609 11.7476 18
42 1 1.77597 -9.28667 8.1731 22
43 1 4.26745 -4.04572 12.8835 20
44 1 -15.2463 -0.955712 1.69212 22
45 1 -14.8953 0.0923188 7.12244 17
46 1 -5.17539 0.154877 -5.07279 17
47 1 -4.91413 10.1213 -1.15059 21
48 1 0.634343 -16.5216 -9.95846 12
49 1 1.39647 0.575625 -11.592 22
50 1 4.97302 -4.73993 -12.1064 19
51 1 -3.26931 -4.03952 13.8722 15
52 1 -15.2271 1.93511 0.103687 22
53 1 2.5254 12.823 -10.2399 17
54 1 3.09658 14.1443 7.7422 21
55 1 -7.03277 5.91787 -8.6866 21
56 1 -0.0743723 12.237 3.19146 22
57 1 1.31007 -13.2974 0.528089 22
58 1 7.07815 -5.07335 -8.91213 22
59 1 5.01012 -7.20382 -17.8435 10
60 1 -8.94504 7.55526 11.2118 19
61 1 -13.2442 -5.57897 -10.0348 15
62 1 7.13062 0.781872 3.90726 20
63 1 -1.61844 5.28414 -5.2346 19
64 1 -11.961 -6.57859 7.35505 20
65 1 -1.87895 11.4484 13.0724 14
66 1 -14.5538 5.43654 -7.09344 10
67 1 -7.69307 10.8784 13.3545 11
68 1 0.35614 9.82569 -6.26652 20
69 1 0.625507 5.60462 5.77719 20
70 1 -5.18807 -15.2969 5.11952 12
71 1 1.98909 4.0709 7.72719 19
72 1 9.62678 -9.85574 -1.71001 21
73 1 6.19107 11.763 14.4304 16
74 1 -10.0595 -0.747885 -11.1324 17
75 1 -13.8596 3.25214 -9.74694 14
76 1 7.06455 9.28374 13.2799 18
77 1 11.4673 -2.52435 -10.096 19
78 1 5.79691 -12.9468 6.70189 10
79 1 -16.4773 0.420344 4.09202 16
80 1 -7.99685 1.24348 3.78146 22
81 1 7.46999 16.7719 4.687 15
82 1 5.20168 -1.11967 13.6843 19
83 1 -10.4061 -8.82439 4.43863 22
84 1 -10.3094 -0.859437 -3.40983 18
85 1 14.896 -0.00451854 7.19134 18
86 1 9.60507 -0.144924 -3.14088 22
87 1 -3.14811 10.0159 10.7275 15
88 1 4.34823 0.76234 5.34065 21
89 1 -8.22761 -4.42955 3.69275 22
90 1 -2.6878 -6.46113 -7.57098 22
91 1 -10.1023 7.66433 8.0855 23
92 1 -12.2442 9.66302 0.753405 16
93 1 -2.32739 8.37453 -12.3385 24
94 1 3.45347 -0.329829 -8.55698 18
95 1 4.11046 -3.82016 -9.09559 19
96 1 8.17578 13.786 -6.94838 13
97 1 7.40071 -7.49 4.6891 21
98 1 5.73513 -6.66288 14.1217 11
99 1 -7.3996 11.1882 -3.5472 18
100 1 -5.05076 6.76298 6.0447 23
101 1 -9.15304 -4.48104 14.9254 15
102 1 -6.87986 6.83371 3.45207 21
103 1 -6.33222 -5.50294 11.5395 20
104 1 13.6306 -7.7043 -6.97463 12
105 1 -9.65026 5.79302 4.98461 23
106 1 -11.9549 -14.2788 2.23785 12
107 1 7.43986 -4.67148 -2.20518 21
108 1 6.3068 -0.624963 -14.1164 23
109 1 -7.80482 -2.68243 -15.8166 13
110 1 1.76911 0.918953 3.00226 18
111 1 -1.66721 7.93813 -3.96044 20
112 1 -10.87 3.51624 -14.9416 12
113 1 2.1122 6.03857 17.5683 14
114 1 0.0424942 11.8509 -8.44643 21
115 1 -13.1821 11.8933 6.94935 10
116 1 1.27498 8.63484 -0.945985 19
117 1 -0.844937 2.04218 -3.99782 22
118 1 -5.78057 -7.56342 9.07724 19
119 1 9.48414 -6.64172 9.83243 14
120 1 -0.673665 -7.67204 -10.1774 23
121 1 4.37161 -6.17151 -7.00322 22
122 1 -3.51759 4.13491 10.9071 19
123 1 7.55581 -3.58448 14.3683 11
124 1 -8.45155 -6.91627 -0.860717 19
125 1 8.61517 -1.48826 2.82842 19
126 1 -8.311 -8.26728 -3.46605 21
127 1 11.9135 -8.80066 0.598426 13
128 1 -9.26752 4.31204 -1.35533 23
129 1 7.87537 3.81504 -14.8896 16
130 1 4.7013 17.2691 -0.124583 16
131 1 -8.44353 -11.3875 8.11203 15
132 1 -10.8972 -11.8631 6.04164 14
133 1 -7.09428 6.29643 -0.147818 18
134 1 3.73812 -9.02437 -12.9362 18
135 1 2.08081 2.41959 -8.90129 20
136 1 9.42365 -6.9356 -0.581584 23
137 1 -1.45379 -10.3267 3.17922 21
138 1 -11.8868 -8.93292 1.45376 21
139 1 15.2884 -3.3084 5.88149 12
140 1 15.0321 -4.37514 -8.82802 11
141 1 -17.5047 -2.71282 2.95327 14
142 1 14.191 4.26012 2.4632 22
143 1 16.1427 8.29527 1.95516 11
144 1 -5.15505 1.93471 15.878 17
145 1 5.46128 -0.285452 -5.59806 19
146 1 -7.29723 12.7639 11.1976 12
147 1 -9.77955 9.50153 -4.74612 14
148 1 -1.34469 -9.44357 -13.0212 23
149 1 6.31847 -10.9265 -6.66545 18
150 1 0.117667 14.8882 -9.50174 12
151 1 6.62821 -6.54062 8.12706 22
152 1 -0.831826 -2.30473 -16.4231 17
153 1 -2.67583 11.2162 -3.19164 23
154 1 17.9741 2.6861 -2.8863 11
155 1 -6.17972 3.88017 -5.98197 21
156 1 1.82495 -4.35159 -3.56683 21
157 1 -9.89026 11.2882 1.60607 16
158 1 4.2765 3.00843 -14.8357 20
159 1 6.44369 -9.47314 6.44243 18
160 1 -4.3206 1.77804 -7.23206 20
161 1 -4.86093 14.0815 10.1637 12
162 1 12.8926 11.5057 -6.20378 12
163 1 -3.30508 3.45647 -0.182232 19
164 1 3.02066 10.6117 -1.0542 19
165 1 -5.40695 14.6316 0.803893 15
166 1 16.4046 8.50231 -1.28345 12
167 1 -0.74998 14.0624 -2.69874 22
168 1 -0.567132 16.279 -6.62466 13
169 1 2.89949 11.3532 -13.7255 11
170 1 -14.2619 -9.19587 2.95136 14
171 1 -14.6882 7.80153 -0.487178 12
172 1 -5.45027 -3.18149 -12.0868 21
173 1 2.78261 -12.0596 -14.8734 13
174 1 9.85702 12.7892 10.0034 15
175 1 -0.174539 11.6074 -0.231765 23
176 1 -13.1344 -3.08826 -7.98625 21
177 1 -7.45762 11.4556 6.9297 18
178 1 14.9688 2.23644 -3.56853 22
179 1 -12.5578 0.400783 -14.7851 9
180 1 5.01638 3.88357 18.0507 11
181 1 4.66606 17.9855 2.66537 15
182 1 -2.45527 10.4339 4.92051 21
183 1 5.28371 -9.5805 -15.8386 11
184 1 -1.98 14.1084 11.1956 12
185 1 -2.81141 9.79215 -9.3543 18
186 1 0.764105 -3.43463 13.1296 18
187 1 -14.2632 -3.81565 2.75839 22
188 1 -1.62063 -14.2143 -10.9179 15
189 1 -9.40483 4.80873 -6.49575 18
190 1 -3.21794 -8.55334 4.81269 21
191 1 3.71498 -12.5524 -4.48624 22
192 1 -4.66021 10.2979 -11.6941 16
193 1 -13.374 3.03505 8.41869 17
194 1 0.218902 10.5372 -3.18372 22
195 1 7.44764 9.02732 -6.14758 21
196 1 -8.24676 2.54941 15.3988 17
197 1 -0.888228 -10.0906 9.82564 16
198 1 -6.48928 2.61297 -1.86168 20
199 1 2.23448 17.4114 4.4406 13
200 1 -0.0488487 6.70587 8.65553 18
201 1 12.4168 2.77642 10.1326 19
202 1 -7.92115 13.7774 2.86475 16
203 1 12.2461 -5.85884 -8.94193 19
204 1 -4.85657 13.3562 13.201 11
205 1 -1.7859 -0.2856 -6.16338 20
206 1 12.636 -5.4845 0.622225 17
207 1 -4.96561 -3.66133 4.33047 23
208 1 -15.2459 2.99959 5.62264 17
209 1 -10.334 -6.03887 5.04396 23
210 1 7.69192 5.87794 13.7398 21
211 1 -18.6087 -2.76816 -0.464247 13
212 1 -3.42293 1.84896 3.67246 23
213 1 -4.06951 -11.97 4.72259 19
214 1 -2.36486 -0.660849 8.70238 21
215 1 -7.65607 -5.19105 -3.83534 22
216 1 4.9021 -6.09015 -0.338896 22
217 1 -1.67887 10.4382 8.2602 18
218 1 -10.5563 2.49432 3.44792 24
219 1 5.77809 14.1367 12.535 13
220 1 -7.75798 -1.31641 -5.97984 19
221 1 -7.64901 10.562 -7.13198 13
222 1 -15.8614 -4.58143 -7.86127 12
223 1 -10.0834 -0.758175 10.0921 22
224 1 -0.0218338 -14.3695 7.43949 11
225 1 4.57425 -10.2923 8.76388 16
226 1 -12.2312 11.7668 9.64061 13
227 1 16.6553 2.93736 2.24499 15
228 1 3.93007 2.52727 -6.67562 19
229 1 -5.2897 -7.70568 -16.1318 9
230 1 5.13145 1.08827 10.7839 24
231 1 -5.59602 -0.832873 3.28807 24
232 1 3.23706 -14.9354 2.24009 17
233 1 -4.1591 9.21046 -15.088 12
234 1 3.0304 -15.1844 -8.69065 14
235 1 8.97636 0.751014 -14.1077 16
236 1 -0.0550202 12.4055 -15.3195 7
237 1 -8.25156 -5.7048 -9.74456 20
238 1 -5.38442 12.5244 -5.23118 16
239 1 -10.9378 -9.10958 7.34142 19
240 1 8.10745 16.8926 -1.15806 11
241 1 -8.06243 0.0752896 17.5881 10
242 1 -11.8032 4.82433 -1.79059 21
243 1 7.16989 2.82455 9.17176 23
244 1 -3.28565 -6.67571 -13.8268 20
245 1 -4.80735 9.2466 -4.30738 22
246 1 6.22998 5.88095 -13.7442 21
247 1 -8.18265 -7.73733 7.21963 20
248 1 -0.350627 5.99047 3.14822 22
249 1 -6.42798 5.56989 10.4918 20
250 1 -6.89991 8.17903 8.83629 20
251 1 0.470298 -13.347 -8.61818 23
252 1 -6.9726 -15.2603 -1.13849 15
253 1 11.5272 -11.8975 -0.21542 12
254 1 -2.75195 1.6645 7.04349 21
255 1 -3.63607 -0.360123 1.27686 21
256 1 2.39903 -3.91596 -0.363775 22
257 1 11.9428 5.16478 11.7523 18
258 1 5.59605 9.57448 -9.03961 22
259 1 0.00974691 14.3679 0.185518 20
260 1 -13.0125 -1.54974 -5.44271 18
261 1 -12.6847 10.5225 3.84248 14
262 1 3.92193 7.82076 9.10787 18
263 1 4.41655 -17.2387 0.993089 11
264 1 12.202 -1.7405 -2.58064 20
265 1 2.03942 8.57769 6.51294 23
266 1 -15.1582 5.89562 7.06524 11
267 1 -10.7783 -6.21189 -4.41016 21
268 1 6.67828 2.6263 -12.3232 20
269 1 5.76673 -1.80236 10.8838 20
270 1 8.21167 11.1582 -9.20841 15
271 1 3.99632 -9.20466 -3.28908 20
272 1 -2.37355 -3.49107 -13.4027 21
273 1 -1.03269 -10.648 6.26782 20
274 1 9.53942 -0.758777 -8.52658 21
275 1 -10.2618 -0.530842 5.08977 21
276 1 1.49644 -13.8889 -5.8379 22
277 1 -10.9678 -5.48578 -7.73164 20
278 1 2.56204 12.8442 1.84174 21
279 1 2.764 -6.3602 -14.351 21
280 1 2.37265 7.82467 14.246 21
281 1 12.5377 4.12948 -1.82905 24
282 1 -6.32431 -6.06063 1.48491 24
283 1 11.6109 -5.10074 -12.1208 14
284 1 -2.83421 -2.95748 2.6374 21
285 1 -10.3244 -4.95368 -14.8512 13
286 1 -15.6656 -1.58322 -7.19846 16
287 1 -7.05529 -7.34719 4.76202 22
288 1 9.80617 1.89176 8.77991 23
289 1 5.27348 -2.0996 7.41719 22
290 1 -6.01615 -9.91507 -13.1902 13
291 1 0.280745 -2.85119 7.88415 22
292 1 1.47993 6.46183 -10.6527 19
293 1 5.99025 8.35101 2.54953 24
294 1 -8.47891 -7.67472 2.32537 24
295 1 -1.62285 8.83846 -1.04183 20
296 1 -9.4828 -3.70793 11.6911 25
297 1 -10.7719 -8.26413 -9.1282 15
298 1 -5.67422 -6.02659 -11.9467 19
299 1 -0.94731 9.16025 -15.9369 14
300 1 -6.45564 -9.94024 -5.78421 20
301 1 -3.3996 -8.22178 1.41323 21
302 1 -3.11303 -6.13964 -0.110084 23
303 1 9.54017 -5.11873 -14.932 14
304 1 14.2466 -0.940795 -10.1086 10
305 1 -0.399152 -0.332668 6.29514 23
306 1 11.3949 3.4733 3.99266 22
307 1 -3.59653 -5.88612 -3.66954 19
308 1 -11.6257 -3.34948 9.16839 21
309 1 0.788728 -12.5836 -2.97944 21
310 1 7.44335 4.29729 16.2568 16
311 1 -7.84326 -10.3796 4.77273 20
312 1 2.96373 -1.34739 -4.05009 19
313 1 -1.05471 -11.1724 -0.0416594 21
314 1 -2.66685 15.5967 -1.01639 19
315 1 3.99356 0.805203 -17.1522 16
316 1 -5.83474 -5.07585 -15.2006 17
317 1 4.90963 -5.55246 2.96216 23
318 1 -11.3582 -7.57086 10.2698 16
319 1 6.97451 6.59041 18.3926 9
320 1 3.77347 -11.9695 -1.46349 20
321 1 -3.62547 -12.8897 -8.75779 18
322 1 -6.95355 4.87775 -12.2601 21
323 1 11.1752 4.58295 8.02946 23
324 1 -5.07017 0.377253 -10.5331 21
325 1 -1.94592 2.26901 -13.1364 17
326 1 -3.19607 -0.920541 5.09486 26
327 1 9.47062 -11.3786 -8.34867 14
328 1 -7.90329 12.7973 -0.218206 14
329 1 2.92769 10.9687 4.39131 20
330 1 10.4392 0.192579 4.73097 21
331 1 -8.03815 4.28828 2.0237 21
332 1 -3.12577 -7.21896 13.7469 14
333 1 -7.97988 10.3254 3.74459 19
334 1 6.07399 -6.76052 -13.6855 16
335 1 14.997 9.57169 -3.77142 13
336 1 4.19585 -11.8598 1.58817 22
337 1 -0.797664 -1.99285 15.5099 13
338 1 -15.9354 -2.69855 5.42643 15
339 1 5.87958 -14.5906 -6.96076 15
340 1 -6.35113 5.00015 16.5963 12
341 1 -9.45728 5.57157 15.6622 13
342 1 -14.8109 -2.59537 8.74033 14
343 1 -16.0714 -5.81828 7.62844 11
344 1 13.4413 -4.06099 -3.58025 21
345 1 -14.2542 -8.25303 8.78342 12
346 1 8.84713 -3.9048 -10.7985 23
347 1 11.1104 -12.3907 -6.36892 12
348 1 1.85063 16.6008 -1.91225 17
349 1 -2.47252 -3.38652 6.66132 19
350 1 -9.67451 10.2907 -1.42538 17
351 1 -0.00543953 2.138 7.87388 19
352 1 10.8187 7.20184 9.86748 22
353 1 -11.2954 -3.18765 3.49724 20
354 1 6.7911 -11.173 -0.16971 22
355 1 -2.78234 10.2358 1.81239 20
356 1 -10.199 -1.10645 -0.165797 22
357 1 -0.246863 2.53798 4.35787 22
358 1 3.92368 -7.35766 9.28208 20
359 1 9.7308 -5.87487 6.36016 18
360 1 -1.59248 7.19648 6.21203 22
361 1 -5.40424 -6.01181 -5.94577 20
362 1 2.80214 -2.04316 5.74417 21
363 1 -0.233875 1.01804 13.471 19
364 1 -3.00642 13.3666 3.00679 21
365 1 10.1706 4.80409 14.6101 15
366 1 -12.2663 8.55291 -2.58433 16
367 1 2.24503 -8.28251 -17.2662 13
368 1 -7.66942 0.447725 -3.151 19
369 1 3.97722 -9.63517 -9.76147 23
370 1 -9.82812 1.91892 11.9741 24
371 1 -13.7676 1.74719 2.37623 21
372 1 -3.06804 -3.58907 -6.2922 21
373 1 -6.6167 5.33431 -3.59754 20
374 1 8.07387 -1.68661 5.91788 20
375 1 -11.2742 -11.6352 0.280908 18
376 1 7.69092 -9.42542 9.74179 13
377 1 -5.54629 2.04764 1.28451 21
378 1 -8.47116 -8.81167 9.93883 16
379 1 -12.8441 7.60127 2.42126 19
380 1 -3.05763 -7.63681 11.0299 21
381 1 6.54498 -11.44 -3.36062 23
382 1 -5.04215 -4.58203 -9.10884 20
383 1 8.55284 -2.22157 -15.8959 15
384 1 2.69679 14.3263 4.62005 22
385 1 -12.8281 -2.53377 -2.75274 19
386 1 10.0342 -7.12648 -9.97271 15
387 1 9.0808 6.83189 -13.4464 14
388 1 -1.67273 -15.276 -7.63823 17
389 1 -13.4312 -8.28583 -3.9358 13
390 1 -0.419741 -7.92215 0.221219 22
391 1 10.9958 1.87301 12.7266 15
392 1 1.65396 3.13023 -1.60802 20
393 1 10.7563 4.60647 1.17367 20
394 1 -8.63558 2.35721 -12.3877 19
395 1 2.20692 16.2418 1.27113 18
396 1 -17.9042 -2.79717 -5.42499 8
397 1 0.167811 -1.98044 1.03455 20
398 1 -5.35597 14.5169 7.10683 16
399 1 -7.36633 9.11503 0.770267 21
400 1 -7.70068 5.0989 7.16078 21
401 1 9.50165 4.35302 10.9934 23
402 1 11.6035 -1.02363 -6.1275 21
403 1 6.94131 -5.26047 11.4615 21
404 1 12.6298 0.580465 -8.69754 19
405 1 -4.05475 -15.4738 -2.79598 17
406 1 2.75056 3.64094 4.47689 21
407 1 -3.72644 3.74939 -3.28677 18
408 1 2.10693 -7.11377 -5.12748 23
409 1 0.13124 8.80925 1.66097 22
410 1 10.0645 2.19307 -0.893928 22
411 1 -9.11583 3.66256 -9.33294 21
412 1 4.32232 -8.85958 -0.00425591 23
413 1 13.0813 -1.27231 5.46245 22
414 1 -10.0232 -1.66085 -7.67474 20
415 1 -4.38499 -6.16468 3.24577 20
416 1 -8.56885 -7.17423 12.6147 17
417 1 -4.3011 6.69134 -1.6605 23
418 1 -10.9886 -10.3765 -2.54615 17
419 1 9.20903 7.55022 15.9092 13
420 1 -11.9406 3.00618 -7.7083 16
421 1 3.12348 9.39924 -11.2869 21
422 1 5.80304 15.3863 9.07352 17
423 1 -13.4111 -5.29456 -1.91447 18
424 1 -0.848329 -7.87582 -3.324 19
425 1 -8.76985 2.59271 6.1204 23
426 1 -14.0848 3.1933 -2.51573 17
427 1 1.75612 -5.30519 4.79972 22
428 1 -3.8679 -12.5549 -1.63438 20
429 1 12.3915 10.9392 9.2066 14
430 1 7.41738 9.67027 -13.9778 12
431 1 -12.7655 -0.128388 -8.65348 18
432 1 -2.44179 14.0755 -7.65088 13
433 1 -3.66496 4.57739 -7.78252 19
434 1 -0.293069 -7.58088 3.19242 22
435 1 13.2571 5.14742 5.60291 29
436 1 1.04388 8.46003 -13.6598 19
437 1 -3.62542 1.65508 12.8042 19
438 1 -16.9336 3.35326 2.68458 15
439 1 4.31975 1.85253 -0.710969 22
440 1 -6.17612 3.93789 4.63065 24
441 1 -6.80286 -12.8832 3.51561 21
442 1 1.63713 -3.90552 -7.16019 21
443 1 4.63864 -6.89423 -10.2949 19
444 1 -1.60552 -3.87816 10.1597 18
445 1 -12.9399 4.67744 4.27912 21
446 1 -13.0634 0.0334099 9.9959 20
447 1 -13.1337 8.61248 7.80204 15
448 1 -0.471278 -6.9597 9.52568 23
449 1 -4.06516 5.35305 -13.145 20
450 1 9.41315 -10.3848 -4.96122 21
451 1 1.5748 -10.9876 -11.193 23
452 1 -7.65798 -3.2974 9.40326 23
453 1 4.90721 -6.2301 -3.71055 22
454 1 -4.31078 3.31683 -16.2295 13
455 1 4.33805 -8.69194 3.11038 21
456 1 2.32972 12.3564 -5.0861 21
457 1 -3.90819 9.41065 7.12893 19
458 1 -6.65561 -3.11783 16.3648 13
459 1 -10.5141 -6.65272 -11.9193 16
460 1 -7.18759 -5.00668 6.75177 21
461 1 9.16495 -9.64209 6.46884 9
462 1 5.55601 3.39619 -3.83756 23
463 1 -4.50071 4.96597 2.45267 19
464 1 6.46762 0.408345 -8.414 23
465 1 10.4272 -3.63851 2.37392 21
466 1 1.04744 5.76281 0.180399 20
467 1 16.8361 6.89982 -4.45766 10
468 1 -5.21977 4.82717 13.6687 18
469 1 2.1912 13.3775 -2.51906 23
470 1 5.42911 -8.09465 11.3768 18
471 1 -1.37916 -14.2979 -4.67479 21
472 1 -3.45335 4.22701 17.2287 12
473 1 0.303108 15.3727 6.56851 19
474 1 -8.72417 -10.8375 -8.2023 13
475 1 9.14832 16.1562 2.05702 12
476 1 6.35613 8.31158 7.80971 19
477 1 -7.67196 2.54118 9.31666 19
478 1 -1.74599 -10.926 -3.52013 19
479 1 -9.3961 4.69062 9.85489 21
480 1 -8.15431 -7.28965 -6.69892 20
481 1 -5.16722 9.4847 4.02857 24
482 1 -6.35929 -12.3198 -6.96527 18
483 1 -3.54887 -10.2509 -15.143 12
484 1 -9.21226 -11.1248 2.48951 17
485 1 -0.185845 -2.79679 4.39795 22
486 1 9.10584 2.72408 5.9804 22
487 1 -6.14763 -6.13474 14.6324 15
488 1 -13.7098 2.34771 -13.0658 10
489 1 13.8744 1.45327 4.21135 22
490 1 -8.97597 -12.8577 -2.04274 15
491 1 0.338945 5.30947 -8.28676 19
492 1 -0.379704 15.6212 3.45506 20
493 1 -1.63182 6.40917 -9.93381 20
494 1 -3.84818 6.87666 9.36417 21
495 1 -18.7997 -0.017888 -2.05768 12
496 1 -3.05017 12.7614 -0.0282911 19
497 1 5.46042 11.6306 -5.97487 21
498 1 -5.57901 -7.58481 -8.78936 20
499 1 10.7513 -0.852084 10.962 19
500 1 5.9882 -14.5499 -2.87674 20
501 1 -0.389448 -6.30776 -13.2632 22
502 1 9.06843 -12.8629 1.78491 12
503 1 -10.1138 8.24462 3.01974 21
504 1 2.02644 7.0131 10.962 20
505 1 8.89227 8.36703 -3.0374 22
506 1 3.26322 9.82625 1.60244 19
507 1 -9.36789 7.14853 -11.0346 17
508 1 6.13613 -2.3187 -10.847 23
509 1 4.1632 -7.43786 6.17139 24
510 1 -13.6068 -4.44017 -5.34513 20
511 1 4.12494 4.45433 -0.876151 21
512 1 4.51765 16.5546 5.43634 17
513 1 -3.37062 3.30203 -10.7578 19
514 1 10.7581 7.52697 -0.410937 22
515 1 4.94617 14.4448 -5.82425 16
516 1 7.69928 -4.64142 1.03832 23
517 1 16.5427 3.44468 -5.65188 16
518 1 -0.511095 -0.528368 -14.3144 21
519 1 1.58414 -10.0929 1.62698 23
520 1 -1.28679 -12.9724 5.1157 21
521 1 1.6312 -4.57479 10.6619 21
522 1 -4.90505 -1.54764 -7.29776 20
523 1 -13.2036 -12.3498 4.40796 11
524 1 2.04547 3.69676 1.60346 22
525 1 -1.14309 -10.9629 -10.0438 22
526 1 8.30606 14.8241 7.22911 16
527 1 0.954773 2.8267 -13.9642 21
528 1 4.25073 0.732828 16.4791 12
529 1 -12.8286 2.96898 11.6959 14
530 1 -0.752835 -17.7939 -1.56557 10
531 1 -13.0794 -3.04663 0.435779 22
532 1 15.1324 -5.26933 -6.43662 13
533 1 10.2328 -3.34729 -4.49186 23
534 1 -1.14368 4.89362 -2.35986 22
535 1 -9.70026 6.54608 -3.65543 22
536 1 1.20072 -10.2544 -8.1963 23
537 1 3.17751 3.50696 -11.5463 20
538 1 7.29412 -5.1283 -5.39116 21
539 1 -4.02119 -1.64752 16.0744 14
540 1 4.40995 13.5433 0.0434477 19
541 1 -4.15484 -2.34528 -15.3727 19
542 1 -0.766971 -5.1963 -1.77589 17
543 1 5.6259 3.64222 -17.5644 12
544 1 -7.1028 -1.58883 5.48544 20
545 1 -4.38086 7.8958 1.31821 18
546 1 -7.23679 -0.897147 -12.6261 22
547 1 -13.315 -1.27113 4.33486 21
548 1 -0.393181 -12.0542 -13.2362 18
549 1 -5.40405 -10.7316 9.49029 14
550 1 1.04068 8.07645 -8.5738 19
551 1 14.9587 2.81537 8.19317 15
552 1 12.0521 7.39019 -2.68424 18
553 1 -9.11559 -10.0321 -0.322941 20
554 1 1.23777 -10.0496 -1.85772 21
555 1 0.757097 -5.27979 -16.1724 15
556 1 -11.6674 8.62396 10.5794 17
557 1 1.56034 -5.18793 -10.6079 22
558 1 3.81515 7.09149 0.483459 20
559 1 12.7952 -2.30992 -0.0671106 23
560 1 1.86203 15.3914 -4.79895 18
561 1 2.35972 -6.6702 1.68773 22
562 1 4.42469 -3.64599 -5.73193 19
563 1 12.556 6.17148 -7.61577 19
564 1 6.73509 9.61804 16.9158 12
565 1 -11.3043 4.84092 6.87508 20
566 1 -5.43125 -4.7625 -1.38291 22
567 1 6.52757 10.6637 10.4021 15
568 1 8.67114 -1.27224 13.0727 13
569 1 0.443683 0.531422 -17.5325 12
570 1 -3.49127 -8.68441 -5.28547 22
571 1 -1.83747 -1.92976 12.9165 17
572 1 8.89116 13.1741 12.8445 13
573 1 6.9456 8.62363 -11.5231 22
574 1 -9.53727 7.98525 -8.06574 15
575 1 -0.484655 13.1027 -5.32191 23
576 1 4.9893 -4.69936 9.73355 19
577 1 10.0686 3.71468 -12.1853 17
578 1 12.6258 -8.82706 -4.32558 19
579 1 13.2221 8.11629 11.4044 16
580 1 -16.0958 -4.18593 0.267585 16
581 1 -6.96447 9.19375 -9.84726 16
582 1 0.456655 -1.24746 10.7236 21
583 1 -11.696 0.161958 13.0793 18
584 1 -4.91904 11.8137 -8.46925 15
585 1 9.03973 -13.7591 -4.50517 14
586 1 3.15992 -2.19658 -11.3284 22
587 1 -5.3574 13.3135 -2.25952 16
588 1 -8.23506 -7.62378 -14.5786 11
589 1 1.48147 -9.33738 4.72429 19
590 1 -11.6577 -7.87694 -1.4934 20
591 1 0.0940594 13.3423 -12.4085 14
592 1 -6.87872 -0.122763 0.202558 24
593 1 -1.75368 8.93255 15.2367 17
594 1 -12.8335 -4.07726 6.23999 20
595 1 6.19357 6.43033 -2.40131 19
596 1 4.10539 -12.6712 -11.7054 14
597 1 2.45465 -6.76943 12.7985 15
598 1 10.211 2.10942 -6.82414 22
599 1 -2.54956 -3.1823 -0.00272363 20
600 1 -10.888 5.33481 1.38876 21
601 1 1.17278 0.639265 16.6629 14
602 1 4.8527 16.164 -3.01964 14
603 1 12.7982 -3.29177 -6.78685 22
604 1 3.67573 9.94267 12.1311 22
605 1 0.768249 6.41663 -15.9738 13
606 1 -5.95753 -12.7991 6.80542 16
607 1 -1.6862 0.344237 -10.4347 16
608 1 7.16538 0.834396 -16.5598 16
609 1 4.2635 10.9388 7.70782 20
610 1 7.63965 5.64021 -10.5451 23
611 1 -2.53476 -5.21569 -16.54 14
612 1 -4.18312 -12.2306 -5.0569 24
613 1 -14.9638 -2.85393 -10.2968 13
614 1 9.19375 1.9717 2.05922 23
615 1 14.1725 5.86115 -4.79038 23
616 1 11.6943 -5.85615 -5.6831 23
617 1 13.9339 5.80877 9.18388 18
618 1 6.86829 -8.3351 -5.16625 21
619 1 3.83847 6.53216 -16.1572 17
620 1 8.1337 13.695 3.97155 20
621 1 -8.75734 1.67008 0.626368 21
622 1 10.432 7.6705 13.13 19
623 1 9.35571 5.19798 -1.98533 23
624 1 18.0435 0.532848 -0.294255 11
625 1 14.3987 8.62071 -6.63518 12
626 1 4.57464 5.57258 15.0023 19
627 1 16.1919 6.03194 7.0837 14
628 1 2.90157 -2.0397 9.68334 22
629 1 11.2873 10.3693 -3.76767 17
630 1 5.27808 3.08011 1.83838 23
631 1 -0.304421 3.57933 17.4338 13
632 1 15.6984 1.22857 -7.10158 17
633 1 6.51947 4.06971 12.0822 21
634 1 -7.90438 -4.24824 -7.28124 17
635 1 11.9426 6.62095 2.75443 22
636 1 15.2203 -3.70478 2.50096 14
637 1 2.29107 -6.91382 -1.74749 23
638 1 -10.1796 8.51536 14.1425 13
639 1 11.3135 10.5387 12.3427 15
640 1 10.1789 -4.27306 11.896 12
641 1 3.41598 12.3051 10.5036 19
642 1 1.01439 12.2516 11.8863 18
643 1 5.98753 3.69178 5.50209 23
644 1 -1.50025 -16.5642 1.62562 12
645 1 -7.41687 7.78448 -5.85621 20
646 1 10.1207 11.3169 -6.94149 19
647 1 9.74311 -2.03521 -12.6497 20
648 1 -0.467454 17.3326 0.405044 13
649 1 -1.3146 -11.6256 -6.86181 24
650 1 6.98519 -8.30521 -11.3869 16
651 1 -15.4663 6.1016 3.94728 15
652 1 -4.92609 6.85924 -10.509 21
653 1 -4.32294 -11.632 1.32005 19
654 1 -3.33979 -2.59792 -10.1769 18
655 1 -16.2079 4.98816 -1.34562 16
656 1 10.0849 -6.59751 2.72874 19
657 1 12.0961 11.784 0.452188 13
658 1 -0.174983 -7.24249 6.41026 18
659 1 -12.8902 -0.989209 -11.9653 16
660 1 -0.833197 3.07011 1.61302 20
661 1 2.13469 3.42348 -17.2506 15
662 1 4.65364 -0.300374 2.18405 18
663 1 -1.20648 6.61876 17.2181 14
664 1 5.60708 11.765 -11.8817 15
665 1 10.5049 -3.58612 9.21962 20
666 1 9.66012 5.35068 -7.8627 20
667 1 6.0632 0.643203 -2.83046 23
668 1 10.3766 12.0017 6.56735 18
669 1 3.81669 -12.433 -7.90229 21
670 1 -11.7193 -2.78006 14.7831 14
671 1 16.1744 -0.962916 4.16468 13
672 1 0.438281 11.7863 15.1874 12
673 1 5.64354 12.7607 -8.76121 15
674 1 -14.0663 6.45453 -3.68684 13
675 1 7.46535 8.76309 -0.282818 17
676 1 -9.0769 -14.0512 1.29276 16
677 1 17.0469 -2.33823 0.812263 10
678 1 11.1323 12.1045 3.30789 17
679 1 -6.80237 2.25079 12.2968 19
680 1 -11.2121 -5.8777 1.24937 21
681 1 -10.7547 -3.7367 -10.5511 23
682 1 7.79598 0.94613 11.9314 22
683 1 -3.24565 -10.5628 11.9214 13
684 1 7.65298 7.05605 11.0366 20
685 1 -3.15733 16.9926 2.33061 13
686 1 8.00064 4.37102 3.51758 23
687 1 7.00953 0.40354 0.475136 23
688 1 10.0579 6.31636 5.42518 23
689 1 2.36143 -2.29656 -16.6753 16
690 1 -8.10974 -0.406145 8.01956 20
691 1 8.07442 -0.0122498 -11.2764 20
692 1 -0.64492 -5.33536 -5.29609 20
693 1 10.8556 -8.53794 -7.37296 16
694 1 7.61497 12.3611 8.4283 17
695 1 4.16963 6.23477 5.9171 24
696 1 -11.2092 0.208612 16.4633 11
697 1 9.43882 8.84269 7.29742 17
698 1 2.39148 -2.08751 15.7799 12
699 1 -3.4959 6.89393 12.8726 21
700 1 1.15051 -9.72317 -14.3149 20
701 1 -6.34479 -0.185459 14.8174 17
702 1 -1.84745 7.75337 -7.07352 20
703 1 4.74366 6.63943 12.1322 22
704 1 -11.4157 -15.36 5.02547 9
705 1 15.817 5.43974 -2.32657 19
706 1 9.63898 -7.1143 -3.69708 18
707 1 -4.34652 6.36383 -5.37566 20
708 1 10.0276 10.7892 -1.53129 22
709 1 13.4014 9.73673 2.91478 15
710 1 6.03694 -2.19956 -17.1413 14
711 1 -5.2193 0.947766 9.83254 19
712 1 4.84076 12.3712 -2.9395 19
713 1 14.0417 6.75066 0.150801 20
714 1 0.559165 -0.0696524 -2.99417 19
715 1 -6.20341 -9.07881 0.147907 21
716 1 -2.60158 0.552856 -16.3328 16
717 1 -10.486 12.9705 4.71701 16
718 1 9.17645 -7.05967 -12.9504 14
719 1 4.98739 5.60459 2.90791 25
720 1 12.4157 9.77936 -9.15327 12
721 1 10.1599 14.4485 -1.17598 15
722 1 -2.90166 4.53977 5.4412 21
723 1 -8.8606 3.27537 -3.96616 21
724 1 7.56402 5.89428 -4.98605 21
725 1 6.178 2.49706 14.5092 17
726 1 9.40325 1.51662 14.8801 11
727 1 -2.43226 -12.1239 8.81449 15
728 1 -6.86392 8.26903 -13.1676 15
729 1 2.86402 15.2468 10.7829 15
730 1 8.15069 -7.46415 -16.2213 10
731 1 4.17354 2.38502 8.02096 20
732 1 7.81949 14.6578 -3.54756 16
733 1 8.29327 9.87784 4.35551 20
734 1 -7.9485 -2.58936 -2.42438 19
735 1 15.4826 -7.10575 -3.48043 12
736 1 2.09225 4.92037 13.4988 17
737 1 -12.3929 1.69711 5.80964 21
738 1 4.05992 -15.9665 -4.65131 14
739 1 1.28827 0.756451 -6.18606 22
740 1 -8.11921 15.2272 6.04448 11
741 1 -1.83044 4.58338 8.52768 20
742 1 4.8775 -3.38398 -2.54483 22
743 1 5.29322 13.0355 5.67132 19
744 1 -11.9461 -0.503943 2.10932 23
745 1 -1.73912 3.70252 14.1805 15
746 1 -5.85808 6.33953 -15.2724 14
747 1 -9.43195 6.12021 -14.0969 12
748 1 6.3745 -17.4693 -1.19004 9
749 1 6.5687 6.39492 -7.81095 21
750 1 4.93967 -4.78925 6.06386 19
751 1 -7.65631 8.29882 5.85283 21
752 1 -11.2006 5.95056 12.4096 17
753 1 1.2239 -3.42555 -13.6539 20
754 1 1.65345 -8.85476 11.4668 15
755 1 5.52623 14.7885 2.40369 22
756 1 -2.32886 0.794672 15.4864 15
757 1 -4.80732 -1.73391 -1.5277 19
758 1 -8.23626 -8.91866 -11.1931 16
759 1 -3.64152 -11.6079 -11.9543 17
760 1 -4.36105 -15.0437 -6.08836 16
761 1 -2.91455 14.8961 -4.41856 15
762 1 6.99394 -2.51241 -7.50586 22
763 1 4.0248 -0.919107 -0.949961 18
764 1 -5.26636 12.1292 5.30907 21
765 1 3.92775 -9.3369 -6.49494 21
766 1 5.99903 -14.1889 0.222567 18
767 1 2.05954 -5.32511 7.94997 20
768 1 14.6003 4.18818 -8.31175 11
769 1 7.28895 -16.5209 -4.90692 11
770 1 -12.1363 -0.986459 7.42084 20
771 1 0.383128 -1.1082 -8.7143 20
772 1 -4.06714 -14.5721 0.264941 19
773 1 -6.40243 -10.6161 -2.55114 20
774 1 -0.946631 -0.655543 3.0041 20
775 1 -10.4733 1.86749 8.93739 19
776 1 -6.30453 -15.8044 2.0506 14
777 1 13.2636 3.20558 -6.27668 23
778 1 -2.97427 16.3347 5.60919 14
779 1 -4.9877 4.26803 8.05464 21
780 1 -12.1912 7.56285 5.49626 19
781 1 10.1634 -0.648025 0.157958 23
782 1 -13.1902 -4.52355 -12.7061 12
783 1 2.62024 8.97905 -3.72908 17
784 1 8.68328 2.54762 -9.48016 23
785 1 9.20244 10.7438 15.0292 11
786 1 1.62961 0.413166 0.0540258 17
787 1 8.55385 2.74493 -3.85913 22
788 1 -15.6698 -0.642882 -4.01594 18
789 1 -13.349 -7.15556 -6.93222 13
790 1 -0.519849 6.57095 14.1203 13
791 1 9.28299 8.29572 -8.53069 22
792 1 11.1438 9.14351 4.51604 22
793 1 -4.46521 -2.80867 10.8041 18
794 1 -0.814372 -14.7077 -1.24222 23
795 1 -8.46468 -14.3558 6.17421 14
796 1 -4.72036 -4.93066 8.99265 18
797 1 14.8188 9.02526 8.26692 13
798 1 1.96386 -7.28048 -8.55345 23
799 1 -10.046 7.48252 -0.411719 20
800 1 7.18315 6.95377 5.27584 23
801 1 -9.37504 -3.2556 6.61195 20
802 1 9.99347 9.33673 -11.3496 12
803 1 -2.16225 -17.0235 -5.00956 11
804 1 3.09574 -14.9929 -1.87198 22
805 1 1.16751 -16.4563 -3.58075 19
806 1 5.57925 3.5832 -9.48609 22
807 1 7.59173 18.2925 1.35449 10
808 1 -3.68506 -0.649809 -12.8788 18
809 1 -1.60552 1.45558 10.3946 19
810 1 2.84337 5.44724 -13.4299 19
811 1 -8.32114 -4.01161 -12.8241 19
812 1 -10.4341 -4.25921 -1.62928 22
813 1 -0.847268 17.3577 -3.26914 13
814 1 8.37778 -2.06922 -1.19782 20
815 1 -1.06685 -8.15547 -16.2386 15
816 1 -5.40714 -7.50792 -2.82136 21
817 1 10.3247 7.79042 -5.7208 21
818 1 12.7409 -6.77378 -2.28013 21
819 1 -6.84032 7.50967 14.6682 18
820 1 4.27409 -11.0117 4.92431 20
821 1 15.3222 -4.28844 -1.42786 13
822 1 12.1613 -1.39017 2.7336 20
823 1 0.155441 8.7964 4.45262 20
824 1 -10.6407 3.05446 14.3337 15
825 1 -8.2963 4.54034 12.702 22
826 1 -3.12366 -14.7109 7.08911 13
827 1 7.29428 3.08733 -0.870035 24
828 1 9.8862 9.86991 10.2175 18
829 1 -17.835 0.223096 1.03779 17
830 1 7.39013 -2.18084 -4.1463 20
831 1 -1.67193 0.571448 -0.95671 19
832 1 -11.6062 6.65925 -5.87618 17
833 1 2.7141 7.38559 3.36629 27
834 1 3.23185 -14.8339 5.60522 12
835 1 3.32991 2.03958 13.4396 20
836 1 0.994269 11.5021 7.04857 20
837 1 1.80368 -12.2488 6.76695 18
838 1 -8.17536 0.396906 -9.47777 21
839 1 1.67684 1.34267 10.8524 21
840 1 -15.9859 -3.91972 -2.9672 15
841 1 3.4784 10.6541 15.5254 14
842 1 6.02331 11.6513 2.40945 21
843 1 -14.3696 -12.4659 1.24926 10
844 1 -2.00077 -16.628 4.89239 11
845 1 7.86694 -4.0518 7.81768 22
846 1 7.76069 -4.37272 4.39891 23
847 1 9.30633 10.0085 1.74661 20
848 1 -2.34122 10.7838 -6.11378 22
849 1 -0.574865 -8.23748 -6.76884 22
850 1 -5.4257 2.08391 -13.325 20
851 1 -6.52485 -2.83196 13.4474 18
852 1 -2.06592 13.2488 5.895 21
853 1 12.5079 1.66092 1.28805 19
854 1 4.11006 8.61728 -6.62353 21
855 1 -4.2931 7.50654 16.7422 13
856 1 8.23155 5.60556 7.89115 20
857 1 7.31792 -3.47934 -13.5678 20
858 1 -6.84517 -12.4777 0.319625 22
859 1 0.22215 -2.24157 -5.75841 19
860 1 15.2527 0.231804 1.32095 21
861 1 4.94687 0.560279 -11.4961 19
862 1 0.947591 9.27263 17.3368 13
863 1 11.4303 -12.1434 -3.29147 14
864 1 6.96139 7.17915 -16.2129 10
865 1 -3.07626 -9.05924 -1.65144 23
866 1 10.8952 6.66758 -10.562 17
867 1 15.3075 -1.08504 -1.939 19
868 1 -0.606126 -5.75633 12.6232 15
869 1 -3.32825 -8.42118 -10.9336 22
870 1 -4.15433 0.893107 -2.16746 21