ITEM: TIMESTEP
151000
ITEM: NUMBER OF ATOMS
2000
ITEM: BOX BOUNDS pp pp pp
-3.0000000000000000e+01 3.0000000000000000e+01
-3.0000000000000000e+01 3.0000000000000000e+01
-3.0000000000000000e+01 3.0000000000000000e+01
ITEM: ATOMS id type x y z 
1 1 -11.2024 6.28845 -12.4985 
2 1 -3.03962 -9.46866 -7.0366 
3 1 3.71527 13.0697 13.5647 
4 1 7.24483 -10.0943 2.96999 
5 1 -8.97235 9.73373 -2.76489 
6 1 7.23375 -8.17449 -10.833 
7 1 -11.9227 1.34 -6.58456 
8 1 -0.320865 -8.6948 13.7975 
9 1 -7.28585 -2.54131 -9.52828 
10 1 -15.131 -8.86056 5.41972 
11 1 12.75 2.85913 -10.7288 
12 1 1.84899 2.86168 -6.21132 
13 1 -6.65959 -9.81344 2.27347 
14 1 -13.5759 -6.90126 1.12933 
15 1 3.10969 4.09708 11.4475 
16 1 5.07764 -2.19084 5.75288 
17 1 0.153431 4.6 10.2178 
18 1 4.79019 -1.64342 0.766294 
19 1 -1.39413 10.0706 -10.1593 
20 1 2.29059 0.1035 13.0979 
21 1 -9.15259 1.06862 -14.8976 
22 1 -13.121 -2.8142 11.6135 
23 1 11.4281 3.58434 7.93816 
24 1 3.67111 6.71778 -10.4831 
25 1 4.31398 8.87977 -12.6058 
26 1 10.7055 -0.450732 10.957 
27 1 -7.98343 -1.40284 2.33144 
28 1 -14.9697 3.04697 -8.90633 
29 1 -0.400918 -1.53425 -10.3547 
30 1 -9.22296 12.4583 11.9264 
31 1 5.76284 -12.3091 3.90748 
32 1 2.24952 -0.890082 8.46851 
33 1 6.04374 -13.3679 -10.1731 
34 1 9.80098 -9.51642 1.29678 
35 1 -5.61135 -13.6491 -3.2697 
36 1 -14.2665 -5.84308 10.4484 
37 1 7.00343 -0.107436 -5.96613 
38 1 2.22099 -6.35945 -11.3756 
39 1 9.75025 -10.3295 -11.6242 
40 1 -2.54208 6.39146 -16.682 
41 1 0.204141 7.82494 11.9772 
42 1 0.765716 -12.6254 8.45721 
43 1 4.04246 -5.0698 12.9568 
44 1 -14.0952 -1.45516 1.30224 
45 1 -13.9892 -0.0430139 6.4644 
46 1 -5.0357 0.26985 -2.56428 
47 1 -5.82672 10.9594 -3.63401 
48 1 1.7137 -14.5531 -9.62528 
49 1 0.773677 1.30203 -11.2708 
50 1 5.12244 -4.81522 -10.7183 
51 1 -4.50907 -3.73354 13.7532 
52 1 -13.8481 2.08723 -0.850314 
53 1 2.4827 13.4094 -11.4086 
54 1 1.25977 13.2122 7.43164 
55 1 -7.15975 7.05289 -8.12897 
56 1 3.41922 13.7563 2.4845 
57 1 1.88651 -12.0294 0.317735 
58 1 6.5363 -2.63585 -8.38511 
59 1 5.63521 -7.19301 -17.386 
60 1 -8.70169 7.0428 9.60631 
61 1 -13.4205 -6.94489 -10.6017 
62 1 6.05302 0.110275 3.7307 
63 1 -3.68173 6.65833 -3.76656 
64 1 -11.6997 -7.36783 7.39069 
65 1 -1.51869 11.4951 12.4114 
66 1 -14.5055 6.46738 -7.57036 
67 1 -7.4116 11.7997 13.8005 
68 1 0.536973 8.95951 -5.35171 
69 1 -0.0597198 6.90226 5.17253 
70 1 -4.09927 -15.1823 4.67317 
71 1 1.18919 4.75993 7.53643 
72 1 9.54413 -10.6968 -2.4438 
73 1 5.68205 10.9232 13.0121 
74 1 -10.2063 -0.116952 -9.88304 
75 1 -14.3002 6.43171 -11.1133 
76 1 6.16568 8.12372 12.3499 
77 1 11.5528 -2.22962 -10.2716 
78 1 8.93406 -11.7582 5.36868 
79 1 -16.1637 -0.178754 3.7834 
80 1 -5.89369 0.0430267 3.91695 
81 1 8.29881 16.3019 4.89987 
82 1 5.45453 0.0572657 13.4319 
83 1 -11.5458 -9.95543 5.28474 
84 1 -9.6667 -3.43924 -2.09544 
85 1 11.879 1.06623 5.60437 
86 1 8.35825 -0.44469 -3.40993 
87 1 -1.68965 12.4323 8.80286 
88 1 4.45432 0.884871 6.35071 
89 1 -7.72542 -4.69787 4.25852 
90 1 -3.19962 -6.74747 -7.90552 
91 1 -11.1284 8.95019 10.6463 
92 1 -11.1973 9.85559 -0.534335 
93 1 -2.79121 6.99319 -11.0941 
94 1 4.04083 0.981609 -5.89754 
95 1 5.3671 -2.03505 -11.0333 
96 1 8.012 12.0901 -7.22102 
97 1 6.84252 -7.10807 4.81631 
98 1 4.31544 -7.42682 10.052 
99 1 -7.98305 12.879 -4.10844 
100 1 -7.37298 6.6599 1.35853 
101 1 -9.18779 -5.01948 15.1276 
102 1 -6.7192 8.62491 3.3379 
103 1 -6.66678 -5.42841 11.4497 
104 1 13.2052 -8.16036 -7.37148 
105 1 -11.1624 7.27529 3.62828 
106 1 -12.0288 -15.8553 2.21661 
107 1 8.41065 -5.23438 -2.65832 
108 1 5.88635 -0.11219 -14.276 
109 1 -7.89042 -2.06504 -14.9226 
110 1 0.909295 0.683105 5.43494 
111 1 -2.96362 9.80763 -4.32179 
112 1 -10.5453 3.82669 -14.4089 
113 1 0.228634 8.31141 19.2459 
114 1 -0.258542 13.5293 -7.29012 
115 1 -12.5321 11.5872 5.89384 
116 1 1.07985 9.3213 -0.118594 
117 1 -0.334262 1.5967 -4.91565 
118 1 -5.85434 -7.26145 8.81236 
119 1 10.3735 -4.78126 8.33902 
120 1 0.0613097 -5.08519 -8.61019 
121 1 5.62865 -7.29425 -8.0879 
122 1 -2.31522 2.78614 11.2025 
123 1 4.88527 -2.43804 14.5705 
124 1 -7.82238 -6.91325 1.84614 
125 1 7.94085 -2.08308 2.08902 
126 1 -8.77898 -8.7214 -3.38296 
127 1 11.3856 -10.968 3.16199 
128 1 -7.69687 3.5829 -0.0616774 
129 1 8.49678 3.70062 -15.8072 
130 1 6.16855 17.7524 -0.682132 
131 1 -7.93909 -11.6018 8.31902 
132 1 -10.5692 -12.5955 6.72076 
133 1 -4.14834 8.50354 1.4934 
134 1 5.27788 -11.1984 -15.5917 
135 1 1.0879 4.56254 -9.42823 
136 1 9.8557 -5.95544 0.335214 
137 1 0.32657 -12.9402 5.31503 
138 1 -11.5593 -9.99005 1.0719 
139 1 15.3456 -0.717945 6.4871 
140 1 13.7684 -2.48929 -8.19434 
141 1 -16.1318 -2.93269 2.53764 
142 1 11.8866 5.81172 3.32975 
143 1 15.1358 7.52833 1.87429 
144 1 -5.7987 1.91111 16.1494 
145 1 4.5219 3.25404 -3.59996 
146 1 -7.62763 11.72 9.25356 
147 1 -10.8256 11.8393 -5.90222 
148 1 -0.701698 -9.06098 -12.4233 
149 1 9.79595 -13.6198 -9.53196 
150 1 -0.180327 15.3196 -10.1254 
151 1 7.13678 -2.74491 11.9613 
152 1 -1.19188 -1.79477 -15.9892 
153 1 -3.27363 12.6547 -5.61795 
154 1 14.0845 1.51779 -3.06918 
155 1 -8.35832 5.08705 -6.15749 
156 1 3.26544 -4.33186 -3.3202 
157 1 -9.66124 12.2292 0.781823 
158 1 3.74861 3.10044 -14.1333 
159 1 7.83221 -9.32198 6.76684 
160 1 -2.86406 2.49308 -4.4928 
161 1 -6.3809 14.0816 11.0811 
162 1 12.185 7.11312 -6.66194 
163 1 -2.55016 4.70075 -1.21644 
164 1 4.04076 10.253 -1.15847 
165 1 -4.53332 14.4221 0.0286645 
166 1 15.5515 7.7319 -1.52327 
167 1 -3.33438 12.5933 -2.58777 
168 1 -0.220393 16.3679 -6.79206 
169 1 2.25747 11.3142 -13.7555 
170 1 -13.3463 -10.9359 3.28455 
171 1 -12.8947 7.21756 -1.52238 
172 1 -5.25612 -3.37786 -12.0409 
173 1 2.7156 -12.1359 -15.8191 
174 1 11.1706 12.631 10.0723 
175 1 0.724155 12.6052 2.35936 
176 1 -13.0383 -3.05407 -7.9869 
177 1 -9.2847 16.0269 6.09276 
178 1 13.236 0.349487 -5.72728 
179 1 -11.0789 1.26928 -12.2352 
180 1 5.17151 2.83488 16.7342 
181 1 5.34871 16.3146 3.60003 
182 1 -2.36974 9.68319 9.70112 
183 1 3.56885 -10.1067 -18.3289 
184 1 -3.57875 14.8762 9.47728 
185 1 -4.23998 8.54329 -8.72955 
186 1 1.82275 -2.7553 14.248 
187 1 -13.8606 -4.71924 2.90935 
188 1 -1.00064 -14.0571 -11.2633 
189 1 -10.8024 6.94482 -7.22299 
190 1 -3.68227 -9.41134 4.24898 
191 1 4.41431 -12.2236 -4.54487 
192 1 -4.25786 10.1442 -11.4528 
193 1 -13.4355 2.95132 7.79324 
194 1 -0.161637 10.8091 -2.68007 
195 1 8.14617 10.6721 -4.50515 
196 1 -8.96375 3.0904 16.4868 
197 1 0.55053 -10.8876 11.5676 
198 1 -7.87381 1.32354 -2.76163 
199 1 2.66054 17.1115 4.66193 
200 1 -0.764883 7.40309 8.58925 
201 1 13.1186 1.93123 10.6507 
202 1 -7.0039 14.9145 5.337 
203 1 12.3069 -5.47076 -8.60828 
204 1 -3.13009 13.5784 12.2736 
205 1 -3.73268 2.7271 -7.86208 
206 1 11.9716 -7.11122 2.43062 
207 1 -4.70368 -3.62479 4.51048 
208 1 -14.626 3.01749 4.931 
209 1 -10.0014 -6.47127 4.68602 
210 1 2.87576 4.64749 15.5386 
211 1 -17.464 -2.6212 -0.438312 
212 1 -2.15964 1.95479 2.48499 
213 1 -4.31208 -11.0399 0.961162 
214 1 -1.02947 -1.5481 6.70534 
215 1 -6.53543 -4.70451 -3.30554 
216 1 5.54831 -6.32109 -1.96982 
217 1 -3.99338 10.7699 7.26081 
218 1 -8.85681 5.20678 3.53305 
219 1 6.1164 14.0995 11.8461 
220 1 -7.46364 -1.67466 -4.80476 
221 1 -7.72872 12.1543 -7.5172 
222 1 -15.7252 -5.68828 -8.2834 
223 1 -10.7127 -0.867624 10.4367 
224 1 -2.2782 -11.3339 6.3056 
225 1 3.90544 -12.5265 9.28213 
226 1 -11.783 12.2992 9.31489 
227 1 16.5241 1.93979 1.99888 
228 1 3.47564 4.91775 -6.9575 
229 1 -4.89566 -7.64075 -15.8356 
230 1 3.68508 1.26361 10.5216 
231 1 -5.04432 -2.76379 1.39678 
232 1 3.49362 -14.295 1.97057 
233 1 -3.30327 8.27296 -14.2831 
234 1 4.01363 -12.0216 -12.5536 
235 1 8.81988 0.523829 -14.1713 
236 1 2.60879 9.32783 -16.4655 
237 1 -8.36853 -5.73174 -9.20757 
238 1 -5.55822 14.2285 -6.52944 
239 1 -11.3187 -10.2253 8.37195 
240 1 8.31586 15.7225 -1.53939 
241 1 -8.0473 -0.107043 17.2578 
242 1 -9.7618 6.78536 -4.21218 
243 1 5.84255 1.67025 8.56844 
244 1 -3.01417 -6.82118 -13.1431 
245 1 -4.95297 9.51576 -6.15544 
246 1 5.41307 5.5801 -12.7233 
247 1 -8.98816 -8.52574 7.20539 
248 1 -1.53398 5.2811 1.75089 
249 1 -6.25505 5.42042 8.34502 
250 1 -5.61015 8.78392 9.34475 
251 1 1.48339 -11.1727 -7.65337 
252 1 -5.80259 -14.167 -0.12115 
253 1 10.4408 -12.2947 -0.0346582 
254 1 -2.49813 1.48658 5.60498 
255 1 -3.9204 -0.252979 0.773921 
256 1 3.5952 -4.48531 -0.128793 
257 1 12.2834 5.09838 12.4925 
258 1 5.26624 9.61145 -9.15618 
259 1 1.56552 12.4233 -0.59834 
260 1 -10.3882 -0.569468 -3.94059 
261 1 -11.729 10.4006 2.80081 
262 1 2.60484 6.83316 9.402 
263 1 5.23542 -17.4544 -0.224083 
264 1 11.4148 -1.69402 -2.96065 
265 1 2.16415 9.29235 7.54833 
266 1 -13.538 6.20693 6.28046 
267 1 -11.3943 -6.70452 -4.56006 
268 1 7.37798 2.99911 -13.2386 
269 1 3.89192 -2.08975 11.5788 
270 1 8.38543 11.1525 -10.1653 
271 1 4.3005 -8.96337 -3.01936 
272 1 -2.35942 -2.84084 -13.3325 
273 1 2.08853 -15.4915 4.05952 
274 1 8.91187 -0.558693 -8.84237 
275 1 -10.0565 -1.13803 5.06988 
276 1 1.90875 -13.3293 -6.20525 
277 1 -10.3473 -4.37341 -6.91145 
278 1 4.06205 13.9181 -1.07486 
279 1 2.55391 -5.78436 -14.3734 
280 1 2.39614 5.71178 18.4153 
281 1 12.8853 3.47293 1.03545 
282 1 -4.94392 -6.56143 3.23731 
283 1 10.7947 -5.08358 -11.6538 
284 1 -2.10459 -5.55706 3.19893 
285 1 -10.1671 -4.80247 -14.6706 
286 1 -15.107 -0.600109 -8.66841 
287 1 -8.00646 -10.9175 5.1556 
288 1 8.68827 1.51721 8.66092 
289 1 3.27309 -3.8943 8.55661 
290 1 -5.41345 -8.92448 -12.7854 
291 1 0.239244 -3.71665 8.25499 
292 1 0.209947 7.25879 -11.0957 
293 1 5.80813 9.12586 2.94484 
294 1 -9.71915 -9.22277 3.1027 
295 1 -1.63443 10.7094 0.745077 
296 1 -10.0462 -3.99711 12.0598 
297 1 -10.5773 -7.59394 -8.60958 
298 1 -5.93955 -6.45303 -11.2449 
299 1 -0.674133 9.46453 -16.0001 
300 1 -6.111 -9.55157 -5.21415 
301 1 -2.33092 -8.88016 1.83674 
302 1 -0.841059 -6.64208 -0.00102712 
303 1 9.7147 -4.62009 -14.6946 
304 1 14.1632 0.0463011 -10.3852 
305 1 2.4569 -1.88794 6.09178 
306 1 10.6824 3.32873 4.0361 
307 1 -3.71235 -5.82024 -3.20273 
308 1 -11.2627 -4.19739 9.10155 
309 1 1.80137 -13.1256 -2.75967 
310 1 7.81134 3.56666 17.3123 
311 1 -6.73924 -13.0955 3.14195 
312 1 2.4306 1.08877 -3.56405 
313 1 -0.818214 -11.2855 0.303213 
314 1 -2.6208 16.0145 -2.17075 
315 1 3.94748 0.956728 -15.9195 
316 1 -5.78511 -4.79 -14.5534 
317 1 5.97322 -4.47536 3.30258 
318 1 -11.4912 -7.51822 10.4321 
319 1 5.23773 5.79534 17.5149 
320 1 4.72948 -11.6958 -1.59001 
321 1 -3.23398 -12.5215 -8.54923 
322 1 -9.66838 5.16539 -9.40026 
323 1 7.79322 4.13299 8.75337 
324 1 -5.59448 0.902912 -9.48377 
325 1 -2.71147 2.6752 -13.3757 
326 1 -3.8824 -1.25631 6.66201 
327 1 9.70678 -15.3879 -6.53103 
328 1 -7.3411 12.9354 -1.34009 
329 1 2.668 11.7524 4.76756 
330 1 9.28462 0.094999 4.10993 
331 1 -6.45932 2.49125 3.17376 
332 1 -3.30805 -7.15107 14.0047 
333 1 -6.64953 12.8287 1.8559 
334 1 5.83707 -4.94627 -15.3431 
335 1 12.7632 9.08126 -1.93641 
336 1 4.3549 -11.5121 1.56394 
337 1 -1.30272 -2.83888 14.3997 
338 1 -15.4447 -3.0248 5.18381 
339 1 4.22722 -16.0225 -8.53054 
340 1 -6.54238 5.16143 16.4607 
341 1 -9.57684 6.23502 14.9736 
342 1 -14.2698 -2.75625 8.66082 
343 1 -15.2643 -5.79123 7.15021 
344 1 14.7518 -4.40967 -2.88472 
345 1 -14.3041 -8.64107 8.80893 
346 1 8.64129 -2.99871 -10.9116 
347 1 9.08659 -11.4603 -5.75518 
348 1 3.24908 17.2835 -2.12692 
349 1 -1.93694 -4.29077 5.79877 
350 1 -10.2308 12.374 -2.51818 
351 1 -0.95372 2.01835 8.34439 
352 1 10.1661 7.09055 11.3001 
353 1 -10.2681 -3.74761 2.95567 
354 1 7.18104 -11.1813 -0.0136085 
355 1 -3.96297 10.7924 3.17916 
356 1 -9.02011 -0.31556 -0.309245 
357 1 -0.135578 3.97613 4.38761 
358 1 2.37927 -9.58801 9.31012 
359 1 12.3467 -6.80379 6.51364 
360 1 -3.52213 7.79779 7.24317 
361 1 -5.5295 -6.3111 -5.86947 
362 1 3.29051 -3.68051 3.23146 
363 1 -1.33101 0.268217 13.3795 
364 1 -2.4012 13.6702 2.39941 
365 1 10.2766 4.52569 15.3372 
366 1 -11.5217 9.62654 -3.88346 
367 1 1.86986 -7.77549 -17.187 
368 1 -5.67158 0.783067 -5.82104 
369 1 6.79614 -10.7738 -12.5816 
370 1 -9.39612 1.87135 11.3104 
371 1 -13.5684 1.67613 2.66864 
372 1 -4.1362 -3.80916 -5.93911 
373 1 -5.47252 6.31241 -0.970714 
374 1 7.47668 -0.558386 6.49167 
375 1 -11.0903 -13.5432 -0.212944 
376 1 7.62747 -7.90366 10.2971 
377 1 -4.66266 3.97677 1.12797 
378 1 -8.32678 -9.44413 10.2894 
379 1 -13.0664 7.96612 1.46749 
380 1 -3.43591 -5.87431 10.741 
381 1 6.74994 -11.8406 -3.35355 
382 1 -5.32222 -4.85064 -8.73414 
383 1 8.57649 -2.32078 -16.2226 
384 1 4.25665 14.5004 5.7178 
385 1 -13.3196 -1.32138 -5.17723 
386 1 4.47773 -7.43275 -11.6857 
387 1 10.0431 6.36113 -14.2535 
388 1 -0.704229 -14.1277 -7.57095 
389 1 -13.9466 -4.72175 -5.57418 
390 1 0.994652 -5.05308 1.53287 
391 1 11.2097 2.14012 13.5362 
392 1 -1.45515 -3.54781 -3.55841 
393 1 11.9844 3.73884 -1.85137 
394 1 -8.54952 2.5676 -11.2404 
395 1 3.39338 16.7 0.967076 
396 1 -16.1306 -3.03064 -6.67214 
397 1 1.49247 -1.98512 0.736826 
398 1 -6.71628 11.2248 5.2167 
399 1 -6.87623 9.57553 -0.286408 
400 1 -7.88783 5.09485 6.75627 
401 1 10.2059 3.22088 11.1476 
402 1 10.1441 -0.766357 -6.15155 
403 1 7.43071 -5.2616 13.5156 
404 1 11.8698 0.777839 -8.53321 
405 1 -3.02271 -15.3321 -2.30184 
406 1 3.24195 3.54793 5.1493 
407 1 -5.20382 3.04789 -1.73648 
408 1 2.23408 -7.13975 -4.91643 
409 1 0.341372 9.31165 3.43917 
410 1 9.47498 1.6413 -0.922855 
411 1 -9.50181 2.30836 -8.06247 
412 1 4.55241 -8.67297 0.0418837 
413 1 10.1872 -1.44579 6.9003 
414 1 -10.393 -1.24705 -7.17191 
415 1 -6.92234 -8.33962 5.4218 
416 1 -8.827 -7.04224 12.5244 
417 1 -4.3686 8.97235 -1.7202 
418 1 -10.8421 -11.0172 -2.82013 
419 1 8.25792 7.00427 15.6062 
420 1 -12.5657 4.37573 -8.66409 
421 1 2.16781 9.49503 -10.6135 
422 1 7.25244 13.6145 6.40994 
423 1 -12.7386 -5.38372 -2.334 
424 1 -0.517659 -7.12354 -2.93087 
425 1 -8.47461 2.24795 5.41767 
426 1 -11.0787 4.31265 -1.53643 
427 1 2.21434 -8.00386 4.86151 
428 1 -3.46053 -12.4144 -1.56863 
429 1 12.8767 10.4386 9.42028 
430 1 7.69384 7.92286 -13.5509 
431 1 -12.8557 1.66927 -9.76065 
432 1 -2.92178 14.576 -8.1305 
433 1 -5.25243 3.68459 -4.679 
434 1 -2.30567 -12.3813 3.13762 
435 1 12.1286 6.19518 6.20631 
436 1 0.919089 8.75391 -13.591 
437 1 -4.10327 1.67816 12.9973 
438 1 -16.3974 3.07421 2.48112 
439 1 2.85074 1.04613 -0.0648607 
440 1 -5.7477 5.5745 4.55211 
441 1 -4.86816 -12.5523 5.22743 
442 1 1.54199 -3.94223 -6.21887 
443 1 7.74218 -11.0979 -9.37009 
444 1 -2.95759 -3.69454 8.33102 
445 1 -11.9242 3.96371 2.89636 
446 1 -13.5851 0.214974 9.82403 
447 1 -12.9484 9.55518 8.04694 
448 1 -1.48891 -6.25703 8.20503 
449 1 -4.61442 5.70299 -13.2262 
450 1 8.41963 -8.59058 -7.29294 
451 1 -0.553327 -7.48626 -9.5805 
452 1 -8.12707 -3.28883 9.38994 
453 1 4.04436 -5.39094 -6.71394 
454 1 -4.60455 3.60438 -15.8109 
455 1 4.59568 -8.57269 3.44449 
456 1 2.36585 13.3922 -5.88213 
457 1 -9.95359 9.88831 8.2277 
458 1 -6.60434 -2.96784 16.2797 
459 1 -10.2286 -6.43016 -11.6983 
460 1 -7.6096 -6.00063 7.26184 
461 1 10.141 -8.07661 8.99979 
462 1 5.97314 2.67472 -1.11199 
463 1 -3.28105 4.16108 3.92109 
464 1 6.13992 0.347823 -8.87271 
465 1 9.05461 -5.32556 2.92697 
466 1 0.698052 5.84946 -0.842053 
467 1 15.2345 6.85508 -5.08902 
468 1 -5.35756 4.28031 13.8218 
469 1 1.74629 14.4483 -3.00478 
470 1 6.02503 -6.17296 7.76908 
471 1 -1.30062 -13.6135 -4.08374 
472 1 -3.3665 4.67168 16.6177 
473 1 -1.15994 15.1188 7.2548 
474 1 -7.91414 -10.4561 -7.94124 
475 1 9.25386 13.1952 1.34286 
476 1 5.20901 8.91118 8.91515 
477 1 -7.13985 2.07768 8.57935 
478 1 -1.25477 -10.3935 -2.89851 
479 1 -10.0701 4.55118 9.49211 
480 1 -8.41077 -7.43952 -6.64012 
481 1 -4.42012 13.131 4.76233 
482 1 -6.101 -12.4569 -6.86404 
483 1 -2.86276 -10.0956 -15.1453 
484 1 -10.2418 -12.5082 3.62181 
485 1 -2.73261 -1.24582 3.81346 
486 1 8.16478 2.2933 5.70079 
487 1 -6.28088 -6.18077 14.5864 
488 1 -13.6609 3.55989 -12.281 
489 1 9.76642 4.36764 1.29578 
490 1 -8.29194 -12.8957 -1.52623 
491 1 0.860686 6.26432 -6.53613 
492 1 0.548558 17.488 2.5239 
493 1 -1.94074 5.74587 -8.37676 
494 1 -4.53813 8.47752 12.0821 
495 1 -18.3157 0.444841 -2.54093 
496 1 -1.26864 13.3364 -0.681166 
497 1 4.98676 11.3797 -6.59929 
498 1 -6.00583 -8.07146 -8.33739 
499 1 6.88016 -0.0113977 16.4189 
500 1 7.53779 -14.4884 -4.28391 
501 1 -0.427757 -5.91211 -12.499 
502 1 8.62356 -12.7565 2.12184 
503 1 -9.46043 8.72085 1.76394 
504 1 3.04875 6.80734 13.2155 
505 1 8.01954 7.83157 -2.90279 
506 1 3.37073 10.6935 1.58354 
507 1 -9.00117 7.69161 -11.2774 
508 1 3.26896 2.14153 -8.75688 
509 1 4.65328 -9.13769 6.82831 
510 1 -11.3232 -3.40008 -4.508 
511 1 3.03624 4.02593 -0.735988 
512 1 5.48241 17.4303 6.9903 
513 1 -4.26075 3.65568 -10.8295 
514 1 9.69755 7.62011 -0.482083 
515 1 5.51592 14.5728 -6.65184 
516 1 6.91841 -4.49673 0.48907 
517 1 15.4484 3.41327 -4.59061 
518 1 -0.965553 -0.0785382 -13.0904 
519 1 1.75046 -8.63205 1.30154 
520 1 1.88388 -15.0055 7.55969 
521 1 -0.400038 -7.55716 10.4642 
522 1 -5.08395 -1.69983 -7.24608 
523 1 -13.0482 -13.7619 4.64871 
524 1 1.9262 5.76325 2.34761 
525 1 -1.41725 -10.6261 -9.21623 
526 1 9.9783 13.2568 7.13831 
527 1 0.838114 3.01084 -13.8154 
528 1 3.3896 0.180198 15.9364 
529 1 -12.3983 3.22531 10.8604 
530 1 0.0332123 -17.0009 -1.72931 
531 1 -11.949 -3.85745 0.263597 
532 1 14.4572 -4.85197 -6.46696 
533 1 8.91878 -2.96267 -4.39984 
534 1 -1.38406 8.00084 -1.88455 
535 1 -6.26548 7.13477 -4.5222 
536 1 3.75524 -8.95808 -6.598 
537 1 3.07416 4.04015 -11.1641 
538 1 8.42573 -5.72881 -6.31307 
539 1 -5.72773 -0.510406 14.6152 
540 1 5.75972 14.9274 0.935724 
541 1 -4.40186 -2.08262 -15.4721 
542 1 0.641739 -4.21261 -1.53606 
543 1 5.45644 3.78971 -16.2518 
544 1 -7.12851 -2.26409 6.09698 
545 1 -4.30867 11.6302 -0.0605872 
546 1 -7.56819 -0.523015 -11.8375 
547 1 -12.6875 -1.46848 4.21077 
548 1 -0.0964625 -11.3721 -13.952 
549 1 -5.10649 -10.4562 10.0046 
550 1 0.255388 9.02275 -8.30683 
551 1 14.3915 2.31296 7.69002 
552 1 11.3549 6.38887 -3.34477 
553 1 -8.68312 -9.4462 -0.225381 
554 1 1.75334 -10.1298 -1.57292 
555 1 0.395758 -4.58742 -17.3746 
556 1 -7.90187 9.38132 11.385 
557 1 2.4757 -3.72817 -9.95276 
558 1 3.71534 7.36748 0.915139 
559 1 12.9051 -2.7285 -0.820243 
560 1 2.98539 16.6462 -5.5833 
561 1 3.79208 -6.32024 2.49838 
562 1 4.30469 -1.64237 -4.40292 
563 1 13.9648 4.97473 -9.14511 
564 1 6.48891 9.04567 16.0475 
565 1 -10.9337 4.44547 6.32487 
566 1 -5.23292 -5.5418 -0.250818 
567 1 5.6498 11.1201 10.1416 
568 1 8.91904 -2.67383 15.4705 
569 1 0.406392 1.13827 -15.7112 
570 1 -3.11658 -8.19653 -4.87362 
571 1 -1.36163 -3.85311 11.4573 
572 1 8.30613 11.885 11.5087 
573 1 5.7679 6.23635 -8.41391 
574 1 -9.98611 9.95725 -8.56768 
575 1 -1.01896 13.6933 -4.08027 
576 1 10.0615 -5.86489 11.4304 
577 1 10.9706 3.12511 -13.3639 
578 1 11.7689 -10.4048 -5.31167 
579 1 13.3489 7.86253 11.3505 
580 1 -15.0185 -4.35286 -0.0863004 
581 1 -7.14977 10.0146 -10.1038 
582 1 0.646067 -1.54622 11.2277 
583 1 -12.3729 0.13373 12.8527 
584 1 -4.79849 11.4758 -8.53723 
585 1 7.9222 -16.7836 -2.33959 
586 1 2.67838 -0.700039 -9.79118 
587 1 -5.66695 15.2491 -3.0616 
588 1 -7.43464 -6.8454 -13.7459 
589 1 0.0260216 -9.83202 3.9078 
590 1 -11.6327 -8.40135 -1.33951 
591 1 0.272719 12.0758 -10.1557 
592 1 -6.4596 0.674949 0.51805 
593 1 -1.55532 8.62995 13.972 
594 1 -12.7642 -4.44722 6.08207 
595 1 5.40979 5.92492 -1.8694 
596 1 4.94094 -10.1192 -10.1492 
597 1 2.28303 -7.81487 12.0551 
598 1 9.52307 2.16151 -6.82068 
599 1 -0.929257 0.0567 0.856483 
600 1 -10.7305 5.36986 0.81806 
601 1 1.84929 2.33574 17.5131 
602 1 5.67105 16.174 -3.65148 
603 1 12.2443 -3.56779 -5.32187 
604 1 3.17295 9.14451 10.9415 
605 1 0.800928 6.38101 -16.2409 
606 1 -4.72331 -13.2588 8.00129 
607 1 -2.53518 0.978845 -10.4112 
608 1 7.24018 0.980249 -16.8408 
609 1 4.01484 11.8479 7.79527 
610 1 7.87107 5.57168 -11.0015 
611 1 -2.46199 -4.88701 -15.5989 
612 1 -3.93395 -11.4429 -4.58036 
613 1 -15.299 -3.82176 -10.2527 
614 1 8.69304 1.22556 1.41052 
615 1 12.6027 3.57274 -5.12461 
616 1 8.48406 -5.80082 -9.4299 
617 1 13.6027 4.87956 9.35933 
618 1 6.54389 -7.52628 -4.97909 
619 1 3.96477 6.43034 -17.209 
620 1 9.26711 13.3249 4.36162 
621 1 -9.07205 1.48873 2.65634 
622 1 11.3262 7.31631 14.0583 
623 1 8.76044 4.70258 -1.72091 
624 1 14.7144 0.135853 0.239441 
625 1 11.424 4.05352 -8.05056 
626 1 5.91589 5.50194 14.4238 
627 1 15.6477 5.01892 6.96164 
628 1 1.42924 -5.00059 10.7839 
629 1 13.0605 11.6487 -2.86897 
630 1 3.98745 2.89163 2.24151 
631 1 -1.37105 2.51394 17.191 
632 1 16.3152 -0.742034 -8.44602 
633 1 6.57979 2.69917 11.4966 
634 1 -7.38385 -3.78659 -6.57675 
635 1 14.0208 3.82212 4.65795 
636 1 12.1527 -4.06506 1.83514 
637 1 2.19691 -6.99933 -1.25772 
638 1 -10.0725 9.12655 13.923 
639 1 11.6339 10.1101 12.3731 
640 1 9.60658 -2.91416 12.4237 
641 1 2.49329 12.2232 10.4232 
642 1 0.65673 14.2418 12.6851 
643 1 6.11499 4.50553 6.16899 
644 1 0.489445 -17.0405 1.8777 
645 1 -8.51084 8.99852 -6.26903 
646 1 10.5898 10.0552 -7.3532 
647 1 10.679 -2.17835 -13.2981 
648 1 0.393762 16.2052 -0.629194 
649 1 -0.790856 -11.4122 -6.11508 
650 1 9.84078 -7.82787 -12.9569 
651 1 -15.0774 6.01764 3.38765 
652 1 -6.23619 6.5174 -10.9009 
653 1 -3.62989 -13.9469 1.80696 
654 1 -3.42282 -1.8522 -9.77871 
655 1 -16.892 2.42663 -4.20136 
656 1 10.4424 -8.6458 4.64019 
657 1 14.2672 10.2794 3.33297 
658 1 0.0128826 -9.28612 7.53013 
659 1 -12.932 -1.51764 -11.1336 
660 1 0.211582 3.43767 0.507887 
661 1 2.19482 3.62139 -17.0393 
662 1 3.34834 -0.697531 3.2828 
663 1 -2.4443 8.37364 17.0745 
664 1 5.55279 11.7318 -12.4633 
665 1 11.9005 -3.23706 10.2218 
666 1 8.51765 4.75264 -8.01061 
667 1 5.40105 0.35056 -2.31434 
668 1 12.4886 12.0019 6.50848 
669 1 4.13564 -12.6675 -7.95627 
670 1 -11.6773 -2.73134 14.5381 
671 1 11.4407 -1.90764 4.39774 
672 1 1.25958 10.8971 13.3048 
673 1 5.45315 12.9368 -9.77564 
674 1 -13.3862 7.06733 -4.56363 
675 1 6.5914 8.47996 0.0469631 
676 1 -8.61688 -14.949 1.52225 
677 1 15.1978 -3.17299 1.08711 
678 1 11.2947 11.1672 3.9211 
679 1 -6.1725 2.92426 11.6407 
680 1 -10.6672 -6.38511 1.32868 
681 1 -10.7952 -3.52705 -10.0595 
682 1 8.40089 0.357687 11.901 
683 1 -2.67853 -10.0461 12.1046 
684 1 8.26894 5.29736 11.9988 
685 1 -2.0983 16.196 1.19223 
686 1 7.28006 3.66233 3.25054 
687 1 7.27484 -0.482074 -0.220674 
688 1 8.98314 5.1387 5.84616 
689 1 1.97558 -1.94631 -16.1295 
690 1 -8.6542 -0.733187 7.94715 
691 1 7.50752 0.14938 -11.6492 
692 1 -0.918119 -5.81338 -5.4263 
693 1 10.8941 -10.5298 -8.37354 
694 1 7.69847 10.8863 8.30979 
695 1 3.7859 6.71099 5.91616 
696 1 -11.1506 0.389734 15.9783 
697 1 10.3985 9.43135 7.78818 
698 1 0.311808 -0.480186 16.1742 
699 1 -2.50076 5.84011 12.1357 
700 1 2.19711 -8.92809 -14.2833 
701 1 -7.80377 1.7007 14.0338 
702 1 -0.932791 5.32965 -3.8915 
703 1 5.55507 5.83069 10.6416 
704 1 -10.202 -15.6613 5.76255 
705 1 14.4265 5.25929 -2.22265 
706 1 9.88783 -7.9212 -4.21289 
707 1 -2.23656 7.76343 -6.15663 
708 1 9.16318 10.481 -0.733941 
709 1 11.9348 8.72589 1.98014 
710 1 5.1376 -1.70255 -17.4264 
711 1 -2.22255 -0.474021 9.76192 
712 1 4.85936 13.3898 -4.01503 
713 1 12.9726 6.45351 -0.0451073 
714 1 1.33057 -1.88349 -4.30383 
715 1 -5.17504 -8.3068 0.510599 
716 1 -2.64362 0.87937 -15.6873 
717 1 -10.0067 12.8708 4.14447 
718 1 7.93984 -5.82631 -12.6036 
719 1 4.93381 5.85548 3.09594 
720 1 10.7631 6.66435 -9.05479 
721 1 10.5211 13.5378 -2.07486 
722 1 -2.20213 4.80295 6.9018 
723 1 -8.11568 4.28574 -3.16651 
724 1 6.48545 5.86184 -5.00414 
725 1 7.69116 2.57607 14.5006 
726 1 11.8717 -1.48198 13.5649 
727 1 -1.71728 -11.7044 9.34199 
728 1 -6.55823 8.46225 -13.2201 
729 1 3.07765 15.3986 11.4414 
730 1 6.39607 -8.15657 -14.2229 
731 1 2.07815 1.72246 8.32248 
732 1 7.91019 13.642 -4.34608 
733 1 8.1542 10.5405 5.23049 
734 1 -6.75578 -2.14694 -1.38879 
735 1 13.2539 -6.94325 -4.59496 
736 1 0.877288 3.20489 13.6606 
737 1 -11.4823 1.41461 5.08002 
738 1 4.5792 -15.2564 -5.50745 
739 1 -0.165181 1.7322 -8.59508 
740 1 -8.66657 14.8912 2.5371 
741 1 -3.20295 5.77098 9.74071 
742 1 6.09927 -2.90611 -2.26462 
743 1 5.79032 12.501 3.76659 
744 1 -11.2318 -0.804591 1.77078 
745 1 -2.06779 3.72319 14.4332 
746 1 -5.87341 6.39481 -15.7801 
747 1 -8.02804 5.20875 -13.0624 
748 1 5.05676 -14.8006 -2.15351 
749 1 6.66823 8.8493 -6.29915 
750 1 4.08985 -5.62824 5.88397 
751 1 -6.49132 8.2361 6.26721 
752 1 -11.0078 6.06958 12.0751 
753 1 0.635639 -3.09959 -13.8091 
754 1 4.21565 -10.478 11.7528 
755 1 0.902838 14.8019 4.95864 
756 1 -3.01293 0.128686 15.5734 
757 1 -2.70925 -2.0191 -1.24397 
758 1 -8.04588 -8.66425 -10.6707 
759 1 -2.74927 -11.5558 -11.904 
760 1 -3.85059 -14.3987 -5.94327 
761 1 -3.07536 16.0039 -4.95867 
762 1 3.82389 -2.22622 -7.32123 
763 1 3.05473 -1.53623 -1.69844 
764 1 -5.27553 13.3419 7.80998 
765 1 5.96082 -10.8373 -7.24704 
766 1 5.92499 -14.4293 0.837364 
767 1 1.98845 -6.7483 7.81236 
768 1 16.3169 2.65106 -9.90685 
769 1 6.67642 -16.9761 -5.99424 
770 1 -11.8457 -1.51472 7.56358 
771 1 1.30129 -0.498464 -6.73005 
772 1 -2.26383 -16.2602 0.582262 
773 1 -6.35504 -10.5 -2.17529 
774 1 0.339875 -0.380588 -1.85367 
775 1 -10.358 1.81902 8.00839 
776 1 -5.64892 -16.7065 1.89083 
777 1 16.6048 4.09368 -6.93093 
778 1 -3.91753 16.2119 6.39987 
779 1 -3.99127 2.52344 8.95679 
780 1 -14.034 8.89923 4.61996 
781 1 10.8867 -0.898351 1.46693 
782 1 -12.7527 -4.21811 -12.2364 
783 1 2.92107 11.1673 -3.44359 
784 1 9.2927 2.76504 -10.1618 
785 1 8.62648 9.22649 13.3741 
786 1 1.2239 1.44766 2.82541 
787 1 7.50424 2.39914 -3.99472 
788 1 -16.275 -0.290765 -5.21295 
789 1 -13.1922 -7.63596 -7.44169 
790 1 0.181873 6.32822 14.8539 
791 1 8.51894 8.23596 -9.04896 
792 1 9.91269 8.26291 4.88289 
793 1 -4.95458 -3.20197 10.3312 
794 1 -0.501342 -14.2049 -1.17201 
795 1 -7.20064 -14.1076 6.1986 
796 1 -5.44447 -4.37453 7.29175 
797 1 14.5926 7.77346 8.71778 
798 1 2.61875 -6.47948 -8.66519 
799 1 -8.96083 6.83571 -1.05405 
800 1 7.02688 7.71221 5.15582 
801 1 -9.81436 -3.78878 6.57718 
802 1 10.1756 8.64702 -11.6108 
803 1 -1.17187 -16.3586 -4.91246 
804 1 2.3846 -15.7479 -0.315504 
805 1 2.01808 -15.8482 -3.55043 
806 1 5.95389 3.4863 -10.0653 
807 1 8.41053 15.7457 1.7894 
808 1 -4.34485 -0.0845692 -12.7396 
809 1 -3.29812 -1.4699 11.9929 
810 1 2.27282 5.88428 -13.2075 
811 1 -8.43206 -3.99016 -12.4162 
812 1 -9.4178 -6.05522 -1.29134 
813 1 0.151965 17.2404 -3.40508 
814 1 9.5261 -2.66149 -0.74731 
815 1 -0.667224 -7.52051 -15.5081 
816 1 -5.68615 -8.00005 -2.75816 
817 1 9.2675 7.55317 -6.04509 
818 1 11.1547 -8.34891 -0.82309 
819 1 -6.93762 7.74433 14.0845 
820 1 6.13655 -12.1384 6.94496 
821 1 12.9789 -5.89303 -0.347065 
822 1 11.2481 -4.90877 4.71933 
823 1 -0.84758 9.52937 6.30427 
824 1 -10.6847 3.08846 13.9854 
825 1 -8.50372 4.81902 12.5324 
826 1 -1.70412 -14.3354 6.98379 
827 1 5.77769 0.993155 1.13048 
828 1 7.95101 8.65246 10.1665 
829 1 -17.0389 0.408281 0.722353 
830 1 6.25188 -4.20362 -5.13592 
831 1 0.232576 3.16838 -2.67736 
832 1 -13.0179 9.34924 -6.65764 
833 1 2.81122 8.60642 3.96536 
834 1 4.94761 -15.0349 5.1017 
835 1 4.20756 2.83124 13.8046 
836 1 -1.21134 12.6171 4.90524 
837 1 3.05397 -11.1584 6.43715 
838 1 -7.77974 -0.155272 -7.70497 
839 1 0.721323 1.53712 11.198 
840 1 -15.0697 -3.43698 -3.36724 
841 1 3.52364 10.7163 15.8221 
842 1 6.42941 11.6509 0.3817 
843 1 -13.8829 -13.4593 1.18213 
844 1 -1.30034 -15.1787 3.68774 
845 1 7.59104 -3.68674 7.84561 
846 1 9.29085 -6.29281 6.4838 
847 1 9.05737 9.84856 2.0599 
848 1 -1.93437 10.8593 -7.46375 
849 1 0.0752861 -8.12875 -6.64877 
850 1 -6.03287 2.73309 -13.1021 
851 1 -7.09776 -2.50988 12.6859 
852 1 -1.20619 16.2204 4.27696 
853 1 13.2773 0.85561 2.75401 
854 1 3.34839 8.34482 -7.3694 
855 1 -3.99106 6.79038 14.86 
856 1 7.19046 6.64771 8.49208 
857 1 7.0524 -2.84346 -13.5269 
858 1 -8.17919 -12.1315 0.875618 
859 1 -2.12834 -0.0813637 -7.16804 
860 1 15.7537 -0.811671 3.50477 
861 1 4.64404 1.50024 -11.8191 
862 1 0.67707 9.23792 16.5628 
863 1 11.7104 -13.4743 -6.66472 
864 1 7.27666 6.47949 -16.4019 
865 1 -2.99826 -9.10414 -1.40177 
866 1 12.1135 5.79643 -11.997 
867 1 15.7254 -1.08226 -2.29596 
868 1 -0.178315 -5.86475 13.8988 
869 1 -3.16073 -8.6686 -10.4141 
870 1 -2.6676 1.31673 -1.52679 
871 1 7.81813 12.9416 -1.61344 
872 1 1.05983 -5.34651 4.68706 
873 1 -13.9295 4.54672 0.524772 
874 1 9.19232 4.52678 -5.10565 
875 1 16.8317 4.9133 4.07476 
876 1 3.70882 -3.01937 -13.4848 
877 1 -9.38808 12.7787 6.77727 
878 1 14.7898 7.15897 4.88933 
879 1 10.7526 12.2787 -5.20665 
880 1 5.3076 9.03224 -15.2086 
881 1 11.2483 -5.28957 -2.63044 
882 1 -12.267 -0.85341 -1.13648 
883 1 8.90037 6.99705 2.61375 
884 1 -13.6352 -11.0768 -0.518911 
885 1 -12.1711 7.74776 -9.72593 
886 1 4.15786 4.3125 8.36346 
887 1 -8.37044 1.80374 -5.41786 
888 1 -10.9905 7.06228 7.1761 
889 1 -6.65207 3.28859 -8.1547 
890 1 12.056 -7.95584 -10.4939 
891 1 -10.388 -9.35024 -5.78169 
892 1 7.64713 -8.27914 -1.50086 
893 1 -16.9384 3.27423 -0.88591 
894 1 -8.82754 -5.78141 -4.37984 
895 1 10.6489 6.59867 8.26948 
896 1 -4.13585 -6.82324 6.04577 
897 1 9.86853 0.329012 15.4279 
898 1 14.2293 -3.30437 4.5042 
899 1 8.70332 -3.26021 5.10016 
900 1 -11.3291 2.16499 0.345179 
901 1 0.10844 14.6126 9.85129 
902 1 -0.905308 4.01189 -11.209 
903 1 0.271975 -10.4299 -16.9052 
904 1 -6.54335 16.3583 8.3738 
905 1 -14.0691 -11.582 6.83083 
906 1 6.20734 10.7331 -2.72037 
907 1 0.195123 10.3852 9.97975 
908 1 15.2411 -2.12849 -5.12633 
909 1 5.54256 -4.72447 10.1951 
910 1 -2.63769 12.9581 -10.9732 
911 1 2.82391 11.7119 -8.51126 
912 1 -1.88409 -3.2024 1.56663 
913 1 -7.59709 -0.20347 11.1533 
914 1 16.5675 2.00798 5.35548 
915 1 -2.41857 -4.76268 -10.5227 
916 1 14.1304 10.6184 0.394187 
917 1 -14.3371 3.97039 -2.91562 
918 1 -5.17303 -10.1261 7.08396 
919 1 2.5949 14.741 -8.67479 
920 1 5.24883 -1.82084 8.9199 
921 1 4.90047 -17.8605 -3.06005 
922 1 -5.16116 15.4711 2.9016 