ITEM: TIMESTEP
544000
ITEM: NUMBER OF ATOMS
2000
ITEM: BOX BOUNDS pp pp pp
-30.0 30.0
-30.0 30.0
-30.0 30.0
ITEM: ATOMS id type x y z Coordination
1 1 -11.1899 4.78105 -11.9078 16
2 1 -3.35955 -10.1101 -7.92838 18
3 1 4.15066 13.7273 12.4189 16
4 1 7.24687 -10.7523 3.24045 19
5 1 -8.20216 8.98316 -2.5541 23
6 1 6.8741 -8.74377 -8.77065 21
7 1 -11.9888 1.91952 -11.4292 19
8 1 -2.24934 -8.91758 13.488 11
9 1 -7.57141 -2.48336 -9.85135 21
10 1 -15.86 -8.62902 5.89159 12
11 1 11.6521 2.95228 -8.97954 16
12 1 2.17209 0.39381 -3.42482 19
13 1 -5.65462 -9.79136 2.98108 20
14 1 -14.0911 -6.88272 1.36586 19
15 1 3.59399 4.05676 12.0573 21
16 1 4.7709 -2.93276 4.5535 25
17 1 0.87538 3.78077 10.4117 20
18 1 4.7963 -3.26854 0.888485 22
19 1 0.114682 9.52354 -10.1906 19
20 1 0.981418 -0.224546 14.2879 21
21 1 -9.387 0.0578091 -14.704 16
22 1 -12.6695 -2.32854 11.6731 15
23 1 13.4372 3.41452 7.04792 18
24 1 3.73906 4.40703 -6.81189 20
25 1 4.57892 6.28906 -10.3497 21
26 1 11.8558 -0.428435 10.7421 14
27 1 -7.95659 -1.46688 2.38157 21
28 1 -13.8314 1.37075 -5.4774 16
29 1 -0.155827 -2.4707 -11.5638 20
30 1 -9.99827 11.6205 11.9959 12
31 1 6.44434 -13.5705 3.49592 12
32 1 0.319177 0.619656 6.02551 23
33 1 5.98151 -14.7386 -9.81081 11
34 1 9.92113 -9.77991 1.52216 17
35 1 -6.50057 -13.6694 -3.87937 15
36 1 -13.8366 -5.19449 10.3012 13
37 1 7.24685 0.203394 -5.58407 20
38 1 3.04699 -7.86947 -12.5159 20
39 1 6.95839 -12.0394 -9.79504 17
40 1 -2.76733 6.35555 -14.9809 17
41 1 -0.129597 9.79858 11.083 21
42 1 1.6251 -9.53147 8.08999 19
43 1 4.50752 -4.4546 13.1213 15
44 1 -14.5635 -1.23203 2.109 24
45 1 -14.6545 0.245112 7.07743 17
46 1 -4.04701 0.316044 -5.00552 20
47 1 -5.84741 11.1823 -1.28719 22
48 1 3.05937 -15.1708 -8.89012 16
49 1 1.56489 0.480407 -11.5782 19
50 1 4.60308 -4.9463 -12.8909 20
51 1 -3.37763 -4.08222 13.1226 21
52 1 -15.4048 1.90335 0.543034 22
53 1 2.21209 12.3927 -10.0186 18
54 1 -0.683306 16.4287 6.00455 14
55 1 -7.7103 6.02958 -8.84712 21
56 1 -0.219476 13.3715 3.94259 21
57 1 1.8205 -13.3978 -0.117223 19
58 1 7.32973 -5.53628 -9.13128 21
59 1 5.50418 -7.23667 -18.2055 9
60 1 -8.35439 7.53312 11.3094 19
61 1 -13.3016 -5.97509 -9.64313 16
62 1 5.29521 -0.0348221 3.92033 25
63 1 -2.77165 4.94338 -6.8604 24
64 1 -11.2292 -6.61932 7.36191 19
65 1 -1.85428 11.7072 13.4986 18
66 1 -14.2915 4.72999 -6.6676 14
67 1 -7.3683 11.1796 13.4307 12
68 1 0.43245 9.26608 -5.28517 18
69 1 0.536044 5.82593 5.10402 21
70 1 -6.03764 -15.8722 5.32949 13
71 1 2.54631 5.73155 7.65993 24
72 1 9.47939 -9.62764 -1.43926 21
73 1 7.17961 12.5115 13.5763 12
74 1 -10.4038 -0.816255 -11.2447 21
75 1 -14.2183 3.29887 -9.73397 13
76 1 5.67471 9.53126 13.1133 19
77 1 11.4553 -2.78874 -9.8611 15
78 1 1.38177 -15.856 7.80067 6
79 1 -15.7848 0.0995957 4.39271 16
80 1 -6.91003 1.8442 3.52804 20
81 1 7.55884 17.6824 5.60693 10
82 1 2.22221 -2.18669 16.4461 12
83 1 -10.7465 -9.22273 5.6481 24
84 1 -10.5446 -0.0989112 -4.12564 18
85 1 14.3807 0.786349 10.0205 11
86 1 8.47046 -0.168202 -2.54653 21
87 1 -3.13697 10.2168 10.7445 18
88 1 2.0354 1.59365 3.84661 21
89 1 -7.74948 -4.39872 3.67768 21
90 1 -2.73441 -6.87642 -8.0826 19
91 1 -9.38861 7.57753 8.2672 23
92 1 -12.4451 9.65781 0.278518 17
93 1 -2.09341 8.36385 -12.7279 22
94 1 3.33964 -1.03165 -8.19355 22
95 1 5.24183 -7.02728 -11.0856 19
96 1 7.35829 11.9109 -6.42793 15
97 1 6.99052 -7.63064 4.59041 22
98 1 6.41045 -6.8529 11.498 16
99 1 -7.90241 11.9965 -3.74077 16
100 1 -4.80949 7.43337 6.08809 20
101 1 -8.9643 -4.53221 14.4937 17
102 1 -6.90423 7.29951 3.04824 18
103 1 -6.06191 -5.35981 11.5545 20
104 1 15.0409 -6.39522 -1.68732 14
105 1 -9.39335 5.84961 4.87747 21
106 1 -11.6552 -13.5055 2.8559 15
107 1 7.41276 -5.10164 -2.25888 19
108 1 5.93098 0.229139 -14.1755 21
109 1 -7.86421 -2.80044 -15.2946 15
110 1 3.7383 2.68172 5.49683 23
111 1 -2.13082 8.99718 -4.31803 19
112 1 -10.7618 2.91182 -14.4765 15
113 1 1.77732 5.12692 18.1298 12
114 1 -0.254916 12.1706 -8.84867 21
115 1 -12.8827 12.1086 6.36697 9
116 1 0.157057 7.72613 -2.41181 21
117 1 -0.946441 0.267562 -4.48285 21
118 1 -5.71414 -6.98755 8.47112 20
119 1 9.81486 -5.72744 9.74273 14
120 1 -0.21952 -7.79932 -10.3699 19
121 1 5.02375 -6.45675 -7.53379 19
122 1 -2.04756 4.44556 10.5191 20
123 1 3.75144 -0.945822 13.9376 17
124 1 -8.05563 -6.7928 -0.578731 19
125 1 7.11119 -1.74685 2.67871 23
126 1 -8.5402 -8.42086 -3.32002 22
127 1 12.4056 -8.0283 3.33973 14
128 1 -9.26465 4.78656 -1.10363 19
129 1 8.09419 4.00102 -14.6379 16
130 1 4.39824 16.2633 1.29683 16
131 1 -8.72697 -11.5106 8.06835 17
132 1 -11.0511 -11.7991 5.86082 18
133 1 -6.68649 6.53449 -0.344839 20
134 1 4.62182 -10.946 -13.1632 18
135 1 1.81578 2.11136 -8.78966 22
136 1 9.22079 -5.92564 -0.136615 21
137 1 -1.07399 -10.7369 2.90506 20
138 1 -11.19 -8.55572 2.3714 21
139 1 14.5154 -2.51707 5.95503 14
140 1 17.2725 -5.36505 -3.50662 7
141 1 -17.4258 -2.70788 3.25379 13
142 1 13.9489 3.10024 1.41943 21
143 1 15.8412 9.62218 -0.416475 13
144 1 -4.40388 3.39158 16.4673 11
145 1 4.21162 1.23175 -6.00669 24
146 1 -6.56959 13.0973 11.4465 12
147 1 -10.2714 9.78701 -5.07082 14
148 1 -1.17617 -9.473 -12.9805 20
149 1 6.79143 -11.3187 -6.80208 24
150 1 -0.140637 15.2929 -9.40043 12
151 1 6.90244 -6.96431 8.00389 21
152 1 -0.830242 -2.23804 -16.0904 17
153 1 -2.94858 11.981 -3.60985 19
154 1 14.6945 -6.16043 4.7233 9
155 1 -6.71661 4.94952 -6.5794 21
156 1 2.43164 -4.40721 -4.38002 19
157 1 -10.1727 11.6107 1.32243 17
158 1 4.30455 2.80794 -14.2433 24
159 1 7.14819 -10.2642 6.4609 15
160 1 -4.54677 1.89596 -7.72908 21
161 1 -4.07798 14.6219 10.6651 13
162 1 13.217 11.002 -6.55189 12
163 1 -3.03378 1.84 -2.31607 23
164 1 2.87243 10.1909 -0.226837 20
165 1 -5.64939 14.8749 0.475303 16
166 1 18.4584 7.44445 -1.52235 10
167 1 -0.664555 14.0641 -2.68966 23
168 1 -0.375392 15.9308 -6.53922 14
169 1 2.51392 11.2786 -13.0537 12
170 1 -16.208 -9.61401 2.49283 9
171 1 -14.8686 7.13539 -0.467441 14
172 1 -5.45246 -3.61098 -12.2121 23
173 1 2.6365 -12.5016 -14.9838 14
174 1 9.92337 12.6121 6.6304 13
175 1 0.0689288 12.1564 0.663321 21
176 1 -13.1487 -2.85784 -8.51485 23
177 1 -7.45773 11.3453 6.88597 20
178 1 14.8153 1.67005 -3.14585 25
179 1 -12.5855 0.127129 -14.6443 10
180 1 4.56792 3.40061 18.1009 14
181 1 4.93468 18.197 3.88648 12
182 1 -2.37891 11.4105 5.55412 19
183 1 4.236 -9.24295 -15.8991 15
184 1 -1.57811 14.8983 12.2871 12
185 1 -2.85547 9.8591 -10.0952 19
186 1 1.71282 -3.47603 13.2455 19
187 1 -13.4211 -4.03662 2.79031 20
188 1 -1.72424 -14.2641 -11.1805 13
189 1 -10.1655 5.53983 -6.62048 21
190 1 -2.68453 -8.84828 4.64414 20
191 1 4.26239 -12.5184 -4.60938 22
192 1 -5.13862 10.5653 -11.9246 16
193 1 -13.6303 3.03452 9.05528 15
194 1 0.201182 10.9855 -2.41223 23
195 1 7.34265 8.21907 -5.71448 21
196 1 -8.3769 3.43974 17.5539 9
197 1 -1.18995 -9.82601 10.0338 17
198 1 -3.84912 4.57408 -1.46375 21
199 1 5.02755 17.1882 7.15203 13
200 1 -0.120688 7.41375 9.24845 22
201 1 13.8551 3.7284 10.131 14
202 1 -8.34449 14.1681 2.46377 14
203 1 12.182 -5.96232 -8.88833 14
204 1 -4.69681 13.5078 13.8862 10
205 1 -2.46658 -0.810343 -7.25904 20
206 1 12.3554 -5.59997 1.42101 20
207 1 -4.70046 -3.69462 4.67177 22
208 1 -14.4866 3.25111 5.6217 18
209 1 -10.066 -6.06987 4.89313 19
210 1 7.50579 6.90491 12.1795 18
211 1 -18.2835 -2.81309 0.117759 10
212 1 -3.71124 2.38456 3.60475 22
213 1 -3.86682 -11.759 5.19558 23
214 1 -1.56881 0.193745 8.55119 20
215 1 -7.56188 -5.22781 -3.64401 20
216 1 5.07128 -6.02706 -0.342668 23
217 1 -0.760969 12.6124 10.6086 22
218 1 -10.0555 2.70873 3.31702 21
219 1 6.69491 14.1256 10.9546 14
220 1 -8.13545 -1.39464 -6.00161 17
221 1 -7.66694 10.5795 -6.74804 17
222 1 -15.2948 -4.49474 -7.43198 14
223 1 -9.62024 -0.93897 10.1357 19
224 1 -0.670544 -13.3685 8.3315 13
225 1 4.65151 -11.2833 8.02803 14
226 1 -12.0125 11.5085 8.92877 15
227 1 17.2385 3.52929 1.90094 14
228 1 1.79186 3.60777 -4.23807 23
229 1 -5.28918 -7.94046 -16.1955 10
230 1 5.78192 1.12282 10.9929 20
231 1 -4.86863 -0.543018 2.4481 21
232 1 3.43096 -14.6528 1.7315 20
233 1 -4.55139 9.174 -14.6577 16
234 1 4.60024 -17.3688 -7.82472 10
235 1 9.77226 1.07966 -14.2276 13
236 1 -0.667397 11.2622 -12.6696 18
237 1 -8.19172 -5.78936 -9.85426 22
238 1 -5.78087 13.2717 -5.85893 14
239 1 -11.3483 -9.58157 8.63311 15
240 1 7.41014 15.4793 -0.437108 17
241 1 -6.4112 -1.87541 16.0686 13
242 1 -12.261 5.56675 -1.40682 23
243 1 7.36854 2.43279 9.03209 22
244 1 -3.20012 -7.07046 -14.0242 21
245 1 -5.29022 9.6641 -4.45244 20
246 1 5.90683 5.76237 -13.5639 21
247 1 -7.98119 -7.8606 6.50286 20
248 1 2.05442 6.51391 0.170973 20
249 1 -5.68968 5.38118 10.5228 22
250 1 -6.13918 8.37325 9.06766 19
251 1 0.833343 -13.5285 -9.73677 20
252 1 -6.37182 -14.9431 -1.18105 15
253 1 11.6674 -11.4661 -0.10367 11
254 1 -2.24698 2.61914 6.93048 22
255 1 -2.49854 -0.263168 0.0258822 24
256 1 2.19659 -4.13099 -0.776942 21
257 1 11.9099 5.64874 12.1787 13
258 1 5.22077 9.10589 -8.45018 22
259 1 1.92202 14.4542 1.6783 19
260 1 -12.9584 -1.35819 -5.94561 18
261 1 -12.0137 10.3086 3.59131 16
262 1 3.24873 8.07567 9.99062 23
263 1 4.79906 -17.6581 0.863365 11
264 1 12.5309 -1.90283 -2.79047 20
265 1 1.69731 8.34762 6.76618 23
266 1 -14.4617 6.0321 7.30416 14
267 1 -10.8375 -5.87753 -3.85256 20
268 1 6.49842 2.7155 -12.2118 20
269 1 4.02967 -1.81646 10.9379 23
270 1 7.71169 10.6901 -9.40645 14
271 1 4.2997 -9.72737 -3.64013 24
272 1 -2.41628 -3.6468 -13.4766 22
273 1 -1.08947 -10.637 6.42063 22
274 1 9.3436 -0.706323 -8.46867 22
275 1 -9.15562 -0.288557 4.69693 22
276 1 1.43349 -13.8529 -6.41112 21
277 1 -11.1032 -5.18796 -7.53201 22
278 1 2.68295 11.3514 2.56002 19
279 1 2.91879 -6.01208 -15.0781 21
280 1 3.01458 9.64887 12.3369 17
281 1 12.5684 3.75834 -1.68305 23
282 1 -5.92385 -6.097 1.76553 22
283 1 10.3506 -5.36128 -11.3992 17
284 1 -2.31107 -2.61652 2.90334 22
285 1 -10.351 -5.24914 -15.172 10
286 1 -15.255 -1.37725 -8.04147 15
287 1 -5.42865 -6.92421 4.92622 20
288 1 10.8609 2.43864 9.01061 23
289 1 4.45024 -2.73346 7.86736 21
290 1 -5.84136 -9.32648 -13.3291 15
291 1 1.18465 -1.93207 7.89785 22
292 1 1.32314 6.53642 -11.0251 17
293 1 6.01071 6.85287 2.24039 21
294 1 -8.0493 -7.86572 2.81063 23
295 1 -2.59182 10.2625 -1.01878 22
296 1 -9.05878 -4.21794 11.5209 21
297 1 -10.6876 -7.78885 -8.9242 16
298 1 -6.05688 -6.84299 -11.9694 20
299 1 -1.38308 9.51908 -15.5824 12
300 1 -6.20369 -9.42435 -5.83622 20
301 1 -3.28751 -8.27346 1.40316 20
302 1 -2.73361 -6.30517 -0.69557 21
303 1 9.16532 -4.94323 -14.4115 13
304 1 16.2889 -1.87264 -4.1275 14
305 1 -0.519793 3.08153 3.46648 20
306 1 11.9353 4.16404 3.91607 19
307 1 -3.48087 -5.64495 -4.02278 20
308 1 -11.2708 -3.67686 9.12431 21
309 1 1.46133 -13.0604 -3.26341 20
310 1 7.26763 0.842633 17.8389 10
311 1 -7.62977 -10.7093 5.06134 23
312 1 3.84622 -1.39929 -5.32917 20
313 1 -0.825088 -11.8253 -0.155645 21
314 1 -3.25234 15.7143 -1.56166 17
315 1 4.04126 1.15098 -16.7126 18
316 1 -5.85577 -5.36001 -14.9944 17
317 1 5.01984 -5.94116 3.01202 22
318 1 -10.7016 -6.99196 10.1661 17
319 1 5.09675 6.6896 17.7885 10
320 1 4.48828 -12.0373 -1.64034 22
321 1 -3.67457 -13.2593 -9.11944 16
322 1 -7.50842 5.20549 -11.8446 23
323 1 11.7972 5.69904 8.52379 22
324 1 -5.16203 -0.196408 -10.408 21
325 1 -2.44388 2.053 -12.7306 21
326 1 -3.20361 -0.488447 5.25695 21
327 1 9.66618 -10.4631 -7.80697 17
328 1 -8.01977 13.2463 -0.685762 14
329 1 1.62074 11.2222 5.26106 17
330 1 9.24455 -0.465181 4.46432 21
331 1 -7.52619 4.38286 1.96132 19
332 1 -3.01166 -6.2137 15.7063 13
333 1 -8.31613 11.0872 3.57562 20
334 1 6.3021 -6.53639 -14.8888 19
335 1 14.445 10.4257 -3.42319 14
336 1 4.41116 -11.9954 1.30838 21
337 1 -0.719537 -3.75858 15.3167 15
338 1 -14.9407 -2.71533 5.24452 17
339 1 6.0525 -14.3339 -6.66292 21
340 1 -6.38572 5.46986 16.6253 13
341 1 -9.28331 6.45515 15.726 12
342 1 -14.4629 -2.40986 8.63116 15
343 1 -15.0473 -5.32396 7.24983 16
344 1 12.0064 -5.65845 -2.03823 21
345 1 -14.2868 -7.97905 8.7899 13
346 1 8.35659 -3.18359 -10.3185 20
347 1 11.5829 -11.9501 -6.28867 11
348 1 1.8592 16.5721 -1.08249 17
349 1 -1.24087 -2.3088 6.25351 21
350 1 -9.89315 10.5053 -1.4813 18
351 1 0.729314 3.02361 7.40573 18
352 1 9.95866 8.80685 10.1226 17
353 1 -10.2063 -2.96049 2.95137 21
354 1 7.10026 -11.2497 -0.110571 24
355 1 -2.15598 10.8151 2.33489 21
356 1 -10.1174 -0.969286 -0.557469 24
357 1 -0.718512 5.88851 1.87602 25
358 1 4.08531 -8.49684 9.94102 18
359 1 9.69343 -6.271 5.88239 21
360 1 -1.77794 7.9626 6.30682 20
361 1 -5.71935 -6.26507 -6.01935 20
362 1 1.83179 -3.98604 5.91714 24
363 1 -1.25301 1.57371 12.1592 17
364 1 -1.14968 14.6354 0.439048 22
365 1 7.32442 3.03724 16.0151 17
366 1 -12.2901 8.18296 -2.70742 18
367 1 2.08865 -7.60104 -17.5569 14
368 1 -8.24269 0.175429 -3.10982 19
369 1 4.12859 -10.4649 -10.2974 19
370 1 -9.14219 1.70625 11.7247 21
371 1 -13.5296 1.63507 3.30031 20
372 1 -3.14704 -4.03838 -6.80853 22
373 1 -6.7018 5.84107 -3.37738 23
374 1 6.93741 -1.67391 6.15599 24
375 1 -11.1348 -11.5609 0.130032 16
376 1 9.42425 -8.35584 7.85908 12
377 1 -4.73027 1.93245 0.384873 21
378 1 -8.14861 -9.02106 9.98389 18
379 1 -12.7726 7.2888 2.38525 19
380 1 -2.88309 -6.22465 10.4421 20
381 1 7.25576 -11.3875 -3.3516 22
382 1 -5.33464 -5.31561 -9.24629 19
383 1 7.99843 -1.82752 -15.1719 18
384 1 2.63992 17.5341 5.0937 13
385 1 -12.8928 -2.20011 -2.87052 21
386 1 9.76767 -8.08273 -10.1961 16
387 1 8.95891 6.54964 -13.4225 17
388 1 -1.60201 -15.4379 -8.01693 15
389 1 -13.2219 -8.00344 -3.2982 14
390 1 -0.191043 -8.54852 -0.315362 23
391 1 11.6929 2.29005 12.1174 14
392 1 -1.49343 2.95649 -4.72175 23
393 1 10.8195 4.74217 1.16134 24
394 1 -8.69156 1.90995 -11.8025 21
395 1 1.91918 18.0991 2.02671 12
396 1 -17.1331 -2.77589 -5.97906 8
397 1 0.225668 -2.23897 0.908965 24
398 1 -3.80369 15.9559 6.40389 12
399 1 -7.7306 9.58308 0.917368 19
400 1 -7.21894 5.65632 7.49062 20
401 1 8.86869 4.6859 10.5901 19
402 1 10.3341 -1.09884 -5.31867 23
403 1 7.7218 -4.2982 11.2975 18
404 1 12.0915 -0.0977424 -8.09015 17
405 1 -3.85804 -15.6344 -2.97174 16
406 1 2.93867 -0.971356 5.74378 23
407 1 -4.46059 3.7874 -4.63383 21
408 1 2.29591 -7.37705 -5.23332 21
409 1 -0.0480066 8.81292 0.81025 22
410 1 9.9225 1.91008 -0.516465 21
411 1 -9.44282 3.57677 -9.5059 19
412 1 4.11381 -9.24437 -0.154469 20
413 1 12.4086 -0.127934 7.33061 19
414 1 -10.4225 -1.98144 -8.26985 20
415 1 -3.1777 -5.47413 2.46535 21
416 1 -8.76377 -7.0687 12.7723 14
417 1 -4.71613 7.93875 -2.23004 22
418 1 -11.4708 -10.6162 -2.79096 15
419 1 8.37883 6.08854 16.6817 10
420 1 -11.8764 2.90511 -7.63545 16
421 1 2.75619 9.36161 -10.2722 20
422 1 4.53399 14.15 7.93748 21
423 1 -13.7293 -5.31057 -1.70146 18
424 1 -0.484955 -7.61041 -3.62537 21
425 1 -8.15172 2.92334 6.07165 22
426 1 -13.9729 2.6643 -2.39095 20
427 1 2.36802 -6.96056 4.64401 24
428 1 -3.64543 -12.6932 -1.48644 21
429 1 11.4859 10.8866 9.60124 12
430 1 8.3269 9.70536 -14.6585 8
431 1 -13.1745 0.0541884 -9.06463 17
432 1 -2.86107 13.9178 -7.72377 17
433 1 -4.87633 5.67943 -8.85267 20
434 1 -0.271277 -7.6744 2.94183 22
435 1 13.5341 6.41328 5.78081 21
436 1 0.574073 8.40788 -13.8073 19
437 1 -4.51492 -0.171108 13.8544 15
438 1 -16.8704 3.18426 3.00226 17
439 1 3.31028 2.49969 -1.63508 22
440 1 -5.79429 4.56799 4.44118 21
441 1 -6.74856 -13.227 3.38276 23
442 1 2.08507 -3.77427 -8.32102 18
443 1 7.93575 -6.59255 -12.1923 18
444 1 -1.13471 -3.64174 11.0278 20
445 1 -12.3168 4.50826 4.36925 21
446 1 -12.6677 0.205416 9.99329 16
447 1 -12.6432 8.69783 7.87583 18
448 1 -0.473963 -4.64216 7.82329 20
449 1 -4.05365 5.09381 -12.8097 20
450 1 9.50497 -9.9398 -4.64291 23
451 1 1.41395 -11.1966 -11.8794 21
452 1 -6.70504 -3.05361 9.27458 19
453 1 5.0259 -6.87643 -3.81303 23
454 1 -4.5845 3.29241 -15.1494 15
455 1 4.48334 -9.2213 3.03312 26
456 1 2.21625 12.1576 -4.33156 20
457 1 -4.71864 10.3496 7.77895 19
458 1 -6.10528 -5.08088 16.8962 11
459 1 -10.4944 -6.66391 -12.0167 17
460 1 -6.53298 -4.37 6.64121 22
461 1 9.69394 -9.29294 4.60516 15
462 1 5.14489 3.85628 -4.09791 24
463 1 -4.04144 5.16361 2.00637 23
464 1 6.78729 0.337118 -8.89303 18
465 1 10.1566 -3.35587 2.73833 24
466 1 1.29592 3.50712 0.846232 24
467 1 16.9737 7.10854 -4.85397 12
468 1 -4.19788 4.9596 13.2108 19
469 1 2.21837 13.6261 -1.27521 24
470 1 7.13275 -9.2927 9.79578 13
471 1 -1.54751 -14.1737 -4.69696 21
472 1 -3.68358 6.75063 15.3253 19
473 1 2.1219 16.19 8.26323 20
474 1 -8.55079 -10.4646 -8.06055 15
475 1 10.0687 15.0601 1.1818 14
476 1 5.38609 8.13701 7.59975 22
477 1 -6.94133 2.51544 9.08204 20
478 1 -1.2766 -10.9906 -3.7106 21
479 1 -9.13082 4.66835 9.79283 20
480 1 -8.46554 -7.23266 -6.40959 20
481 1 -5.29251 10.0381 4.23049 21
482 1 -6.57845 -12.526 -6.91443 15
483 1 -3.1686 -10.1925 -15.4165 14
484 1 -8.97745 -11.1309 2.79217 21
485 1 0.557859 -1.43802 4.18376 21
486 1 9.1737 3.87741 7.00478 21
487 1 -5.91011 -6.09422 14.2473 16
488 1 -14.0198 1.97817 -13.3022 9
489 1 14.6173 0.278296 2.07479 19
490 1 -8.39237 -12.1404 -1.77924 18
491 1 0.703441 4.72323 -7.41128 20
492 1 -0.858607 16.8713 3.25847 14
493 1 -1.6549 6.22856 -9.6168 22
494 1 -3.30136 7.29779 9.03908 24
495 1 -18.7096 -0.100402 -1.52598 11
496 1 -3.05751 12.7385 -0.161222 22
497 1 4.70964 10.1462 -5.4297 22
498 1 -6.33494 -8.48113 -8.90703 20
499 1 9.39534 -1.92623 12.6871 12
500 1 6.37496 -14.5417 -3.08455 19
501 1 -0.0418327 -6.15646 -13.5395 19
502 1 9.38204 -13.29 1.99218 12
503 1 -10.0362 8.17589 2.81597 20
504 1 1.18028 6.80519 12.011 23
505 1 8.96949 7.82467 -2.72066 22
506 1 2.17502 8.02798 2.81798 20
507 1 -9.68732 6.91884 -10.8614 17
508 1 4.63636 -3.67943 -9.78179 22
509 1 4.5011 -8.81913 6.55164 24
510 1 -13.439 -4.63406 -5.15227 21
511 1 2.94196 5.47397 -2.42064 21
512 1 4.8723 15.0426 3.76902 19
513 1 -3.31801 3.32569 -10.0472 21
514 1 10.5825 7.42735 0.121204 20
515 1 4.89451 13.3604 -5.04236 18
516 1 7.37176 -4.40575 1.48691 20
517 1 17.0381 3.71883 -4.35813 15
518 1 -0.724539 -0.344567 -13.8991 19
519 1 1.59558 -10.1638 1.3378 21
520 1 -1.22071 -13.4594 4.8482 18
521 1 -0.338864 -7.30667 9.69863 24
522 1 -5.24241 -1.42928 -7.57037 19
523 1 -13.7948 -9.72997 3.9306 19
524 1 4.4939 4.92909 0.270944 20
525 1 -1.65313 -11.1909 -10.3795 22
526 1 7.70689 14.3907 5.3864 17
527 1 0.930454 2.58081 -13.9374 21
528 1 4.04175 0.112894 18.1149 10
529 1 -11.6711 3.04729 11.5846 18
530 1 -0.473061 -18.0558 -1.80377 10
531 1 -12.377 -3.06574 0.298847 22
532 1 14.3339 -3.97684 -4.06607 19
533 1 10.4539 -4.20131 -4.14589 21
534 1 -2.1475 5.95119 -3.74976 22
535 1 -9.86285 6.05839 -3.5261 19
536 1 1.54581 -10.4396 -8.65451 19
537 1 3.21358 3.68669 -10.9043 18
538 1 7.57791 -5.45931 -5.61097 20
539 1 -3.80911 -2.84113 15.6929 17
540 1 4.71655 13.1963 0.447999 17
541 1 -4.43311 -2.40892 -15.6084 16
542 1 -0.377419 -4.40998 -2.58092 19
543 1 5.53305 3.9298 -17.3462 13
544 1 -6.41161 -1.21129 5.28287 19
545 1 -4.80731 8.84362 0.954413 21
546 1 -7.16362 -0.991927 -12.8472 22
547 1 -12.3438 -1.24306 4.46437 23
548 1 -0.700802 -12.3152 -14.2757 15
549 1 -6.46394 -11.5266 10.2896 14
550 1 -0.0623437 7.46014 -7.71546 19
551 1 16.3207 3.49772 8.47449 9
552 1 12.1978 7.16917 -2.66099 21
553 1 -9.19941 -9.78619 -0.144054 21
554 1 1.31454 -9.71266 -2.17712 20
555 1 0.719741 -4.64874 -17.0688 15
556 1 -11.146 8.94746 11.0717 15
557 1 1.67848 -5.17672 -11.0663 20
558 1 4.58225 7.97224 -0.257975 20
559 1 12.8344 -2.23256 0.991884 19
560 1 2.15805 15.3121 -4.14679 17
561 1 2.32204 -6.8923 1.21972 21
562 1 4.45839 -4.22224 -6.09531 21
563 1 12.2787 5.39581 -7.20222 21
564 1 6.19807 6.39808 14.6449 18
565 1 -11.3469 5.17474 7.54266 20
566 1 -5.32133 -4.57405 -1.54238 20
567 1 4.83018 11.495 10.1781 22
568 1 6.35381 -1.49876 12.5584 17
569 1 0.441207 0.823595 -16.4199 17
570 1 -3.09357 -8.81199 -5.27615 20
571 1 -1.72822 -1.33554 13.3039 20
572 1 9.24786 12.7993 10.7235 10
573 1 7.30998 8.31408 -11.9126 19
574 1 -9.4008 8.03799 -7.65673 19
575 1 -0.567397 12.8593 -5.63938 23
576 1 4.75144 -4.90947 9.55711 21
577 1 9.98214 3.64344 -11.9759 16
578 1 14.1555 -7.40791 -3.82218 14
579 1 13.2373 7.92991 9.53373 13
580 1 -15.6924 -4.3226 0.618198 16
581 1 -7.73197 9.48232 -9.87465 15
582 1 0.952753 -1.11846 10.9844 18
583 1 -11.5813 0.64604 13.3352 15
584 1 -5.2558 11.6022 -8.7354 15
585 1 8.81127 -13.2689 -4.78237 17
586 1 3.08137 -2.09181 -11.5493 19
587 1 -5.23285 13.5893 -2.61727 17
588 1 -8.58611 -7.63332 -14.4049 13
589 1 1.7606 -9.82925 4.88387 22
590 1 -11.4589 -7.62106 -0.827333 21
591 1 -0.0640702 13.6614 -12.0563 13
592 1 -7.34651 -0.275795 -0.0139063 23
593 1 -2.28669 9.40583 15.5658 16
594 1 -12.5498 -3.80825 6.27041 22
595 1 6.42176 6.08991 -1.77961 25
596 1 3.68161 -13.2566 -11.5172 16
597 1 2.60901 -6.37959 11.5848 20
598 1 10.3838 1.75941 -6.37298 21
599 1 -2.47662 -3.03693 -1.10693 17
600 1 -10.6942 5.04887 1.49447 21
601 1 -0.577309 -1.26278 16.4121 14
602 1 4.70452 14.9439 -2.04665 16
603 1 12.2725 -3.22453 -6.66075 19
604 1 1.37311 10.8328 8.70317 21
605 1 0.405237 6.62202 -16.0661 14
606 1 -6.07893 -12.9982 6.90043 20
607 1 -1.63707 0.172114 -10.6917 21
608 1 7.54946 0.769731 -16.9657 12
609 1 3.85118 11.1618 7.20225 21
610 1 7.6787 5.49387 -10.5295 21
611 1 -2.92064 -4.99155 -16.708 13
612 1 -3.98621 -11.9783 -4.83748 19
613 1 -15.578 -3.26771 -10.5555 10
614 1 7.69753 1.57237 2.14021 22
615 1 15.5047 7.79732 -2.57835 18
616 1 12.4253 -6.19658 -5.42922 20
617 1 16.3038 7.16609 9.49389 8
618 1 6.98476 -8.37538 -5.66136 23
619 1 3.41011 6.11186 -16.4711 12
620 1 10.3295 15.4286 4.35015 12
621 1 -8.63203 2.08851 0.422128 19
622 1 9.56274 4.81105 14.0403 16
623 1 9.45399 4.88739 -1.72951 23
624 1 17.9113 0.87814 -3.18154 14
625 1 13.6476 8.02075 -5.6522 18
626 1 2.54151 4.91712 15.2454 24
627 1 16.4213 7.06582 6.0001 12
628 1 2.02044 -4.10017 9.93232 21
629 1 11.1771 9.92925 -4.17053 23
630 1 4.03736 2.02633 1.47177 23
631 1 -0.853081 4.17777 16.5841 17
632 1 13.4925 2.32878 -6.12828 19
633 1 7.28293 2.89344 12.8905 19
634 1 -8.12323 -4.46055 -7.0396 20
635 1 12.3072 7.28636 2.98211 20
636 1 12.4568 -0.77464 4.17037 17
637 1 2.07174 -6.80381 -2.20674 21
638 1 -9.65405 8.83314 14.0749 12
639 1 10.7201 7.90397 14.6124 8
640 1 10.1077 -2.65047 9.52746 20
641 1 2.46431 13.5936 9.52948 23
642 1 1.15608 12.5066 12.7303 18
643 1 7.30754 1.7279 5.61102 24
644 1 -1.181 -16.3242 1.10255 12
645 1 -7.85548 7.3827 -5.39202 22
646 1 10.2223 10.4822 -7.51983 17
647 1 9.82651 -2.1468 -12.7355 17
648 1 -0.627387 17.6048 0.00282761 14
649 1 -1.22192 -11.9604 -6.94591 21
650 1 6.68132 -9.17006 -11.8578 18
651 1 -15.3082 5.71304 3.95023 14
652 1 -5.13568 7.73619 -11.2945 21
653 1 -3.64639 -11.603 1.54249 18
654 1 -3.23078 -2.78427 -9.91925 19
655 1 -16.4894 4.51661 -1.10088 16
656 1 9.54738 -6.7474 2.7444 25
657 1 10.168 10.4893 -1.5942 23
658 1 -0.109614 -7.26773 6.31905 21
659 1 -13.4114 -1.32058 -11.523 17
660 1 -1.82466 2.73638 0.520504 23
661 1 2.1644 3.54395 -16.6941 17
662 1 2.74503 -1.18057 2.22097 22
663 1 -1.2533 6.87319 17.4089 14
664 1 5.28502 11.1099 -11.3832 14
665 1 11.1372 1.74209 5.6962 22
666 1 9.23639 4.78559 -7.57393 22
667 1 5.30371 0.864824 -2.86571 19
668 1 8.24152 10.8134 4.21693 21
669 1 4.10583 -12.4587 -7.93664 22
670 1 -11.6784 -2.45404 14.9134 13
671 1 17.1162 -0.53029 3.11307 9
672 1 0.799148 10.4665 15.1407 15
673 1 4.86653 12.0685 -8.21855 18
674 1 -14.3203 5.80657 -3.387 15
675 1 7.7207 8.19671 0.0873567 20
676 1 -8.73509 -13.9972 1.08629 15
677 1 17.1073 -1.9476 0.857108 11
678 1 11.5437 12.6801 3.43051 16
679 1 -5.77191 2.30949 12.1313 16
680 1 -10.6054 -5.81364 1.63627 20
681 1 -11.0614 -3.84414 -10.8599 21
682 1 8.7935 0.57105 10.9932 22
683 1 -4.03919 -9.47298 10.2655 17
684 1 6.60533 9.33789 10.1804 21
685 1 -3.41962 17.0219 1.53943 16
686 1 8.9503 4.42178 4.0647 22
687 1 5.62643 0.128896 0.122124 21
688 1 10.0976 6.75284 5.65332 22
689 1 2.35591 -1.6596 -17.1091 16
690 1 -7.76011 -0.436681 7.59083 22
691 1 7.9862 0.0355063 -11.7145 23
692 1 -0.363266 -5.42755 -5.78026 20
693 1 12.1942 -8.75337 -6.58004 15
694 1 6.71768 11.434 7.32336 19
695 1 5.76105 4.15344 6.99631 20
696 1 -9.47099 0.219693 15.9961 14
697 1 8.76017 9.34561 6.61325 22
698 1 5.62897 -1.36782 16.1071 12
699 1 -1.95644 7.33445 12.2898 21
700 1 1.58014 -9.59254 -14.8474 21
701 1 -6.95433 2.21521 15.1488 17
702 1 -2.65725 8.3305 -7.4832 18
703 1 4.34167 6.61285 12.7813 20
704 1 -14.5198 -12.8854 4.57173 8
705 1 18.805 3.5985 -1.488 12
706 1 9.12884 -7.13202 -3.41049 21
707 1 -4.43083 7.14721 -5.57773 20
708 1 12.358 12.6202 -2.5098 13
709 1 13.5363 10.5376 2.2477 14
710 1 5.88444 -1.5486 -18.2526 12
711 1 -3.8628 1.79637 9.8337 18
712 1 4.66678 11.3944 -2.3373 20
713 1 13.946 6.29121 0.179244 22
714 1 -0.177373 -1.36881 -1.96941 19
715 1 -6.11097 -8.96113 -0.264706 19
716 1 -2.86255 0.483121 -15.9206 16
717 1 -10.4425 13.1887 4.49757 15
718 1 9.99447 -8.38353 -13.6098 10
719 1 5.73685 3.32459 3.21163 22
720 1 11.8893 8.6023 -8.61333 15
721 1 9.81534 13.7218 -1.69486 16
722 1 -2.46547 5.49464 4.86466 21
723 1 -9.18215 3.2829 -4.08207 18
724 1 7.83976 5.24504 -4.72061 22
725 1 7.30768 0.531537 14.324 19
726 1 9.72234 2.32708 15.0579 12
727 1 -3.35874 -11.5586 8.35007 18
728 1 -7.6159 8.80026 -13.1899 13
729 1 1.43225 15.6662 11.9856 11
730 1 7.27331 -9.87935 -14.9988 10
731 1 3.93338 3.1255 8.9985 20
732 1 7.58393 14.3214 -3.77239 15
733 1 5.51283 9.32287 4.70854 19
734 1 -8.05872 -2.53107 -2.70836 19
735 1 15.1151 -6.84573 1.62631 12
736 1 0.853216 3.58159 13.5718 23
737 1 -11.4569 1.96045 6.08221 21
738 1 3.9288 -15.9904 -5.13947 20
739 1 1.25521 0.789415 -6.08954 21
740 1 -7.71656 14.7644 5.66088 14
741 1 -1.01974 5.15963 7.68483 20
742 1 4.99464 -3.74091 -2.99732 19
743 1 5.07348 12.1043 4.73979 20
744 1 -11.0105 0.0201076 1.74941 20
745 1 -1.5183 5.15945 14.0242 19
746 1 -6.28827 6.20485 -14.6789 14
747 1 -9.44055 6.07825 -14.0139 15
748 1 6.46512 -17.2728 -1.15696 10
749 1 6.00415 6.04542 -7.4427 21
750 1 4.86393 -5.69677 6.16664 22
751 1 -8.09174 8.75939 5.79677 20
752 1 -10.6096 6.06 12.806 16
753 1 1.37549 -3.388 -14.1909 20
754 1 1.18648 -8.88434 12.1767 10
755 1 7.47733 13.1598 2.40938 19
756 1 -1.74898 1.44478 15.3533 16
757 1 -5.19065 -1.1908 -2.02434 20
758 1 -8.5831 -9.12825 -11.4447 13
759 1 -3.71571 -12.1747 -12.6799 15
760 1 -4.25238 -14.8438 -6.17579 15
761 1 -2.99045 14.9369 -4.63947 17
762 1 6.66661 -2.41258 -7.50443 22
763 1 3.14247 -0.998772 -0.856423 22
764 1 -5.20928 12.6937 5.46341 21
765 1 4.02385 -9.44533 -7.06785 20
766 1 6.4473 -14.6063 0.251651 20
767 1 2.38458 -6.47852 8.16477 23
768 1 15.914 4.11033 -6.83393 12
769 1 6.3684 -17.4348 -4.53486 10
770 1 -11.5649 -0.884971 7.46881 21
771 1 0.344953 -0.590603 -8.94153 22
772 1 -3.86119 -14.6308 0.564124 19
773 1 -5.90783 -10.5006 -2.77504 19
774 1 -1.44561 0.26465 3.04623 20
775 1 -10.1074 1.87274 8.55416 20
776 1 -6.38531 -16.2524 2.1301 12
777 1 14.2233 5.276 -3.93877 20
778 1 -3.27154 18.2797 4.61313 9
779 1 -4.02536 4.58125 7.51348 22
780 1 -11.8445 7.67194 5.44162 21
781 1 9.98886 -0.773671 0.580343 24
782 1 -13.2869 -4.49981 -12.8448 12
783 1 2.94313 8.50389 -3.05281 22
784 1 8.72009 2.30481 -9.76735 20
785 1 8.71092 9.60476 15.0618 10
786 1 1.32288 0.592865 0.602485 23
787 1 8.25214 2.53725 -3.76928 22
788 1 -15.4514 -0.618329 -3.76444 16
789 1 -13.2529 -7.34324 -6.71412 12
790 1 0.187139 7.28408 14.6741 23
791 1 8.62826 7.90121 -8.69696 21
792 1 11.0552 9.47887 4.47418 23
793 1 -3.94394 -1.64812 10.8257 18
794 1 -0.87682 -14.7537 -1.47063 19
795 1 -9.02574 -13.851 5.50155 16
796 1 -3.77752 -4.27218 8.7395 18
797 1 15.2635 9.21878 7.82859 13
798 1 1.8737 -7.02724 -8.37143 17
799 1 -9.91646 7.36823 -0.104343 23
800 1 7.04234 6.31259 5.3175 22
801 1 -9.44934 -3.15277 6.45714 22
802 1 9.86415 9.09427 -11.3293 13
803 1 -1.83363 -17.1842 -5.12181 12
804 1 3.73297 -14.7181 -1.8884 22
805 1 1.10374 -15.991 -3.7522 20
806 1 5.4861 3.20169 -9.52462 21
807 1 7.81654 16.3658 2.79659 18
808 1 -3.79426 -1.03339 -12.6151 20
809 1 2.38113 0.56797 8.89792 22
810 1 2.82637 5.5849 -13.5715 18
811 1 -8.40242 -4.13877 -12.7798 21
812 1 -10.3228 -4.44429 -1.35228 19
813 1 -0.644837 16.8071 -3.1679 14
814 1 7.19651 -2.39206 -0.893051 20
815 1 -0.980027 -7.86187 -16.2627 15
816 1 -5.37599 -7.48762 -2.96816 21
817 1 10.7663 7.30879 -5.96251 22
818 1 12.045 -8.83523 -3.39428 17
819 1 -6.27185 8.03178 14.5124 17
820 1 4.18791 -11.8869 4.68654 21
821 1 15.2388 -3.58437 2.74793 18
822 1 14.6837 0.827035 5.33071 15
823 1 -0.151515 9.21395 4.37768 20
824 1 -9.73237 2.94206 14.6232 16
825 1 -7.75022 4.45784 13.0979 22
826 1 -3.20521 -14.7212 6.96647 13
827 1 6.9371 2.92928 -0.859473 24
828 1 8.92462 10.1939 12.1758 15
829 1 -17.9625 0.0222615 1.6887 16
830 1 7.80592 -3.02957 -4.67344 19
831 1 0.0301608 2.05179 -2.02108 21
832 1 -12.4194 7.42114 -5.77039 13
833 1 2.9695 4.6813 3.18223 21
834 1 3.27242 -14.8465 5.34485 11
835 1 4.18729 2.15334 14.8488 19
836 1 -3.08348 13.1666 8.30749 20
837 1 1.78893 -12.6243 6.81032 18
838 1 -8.26983 0.44572 -8.69909 17
839 1 2.65075 1.27732 12.0831 21
840 1 -15.8276 -3.34076 -2.59239 15
841 1 3.81828 11.7097 14.582 14
842 1 5.51849 10.3145 1.84674 18
843 1 -14.4036 -12.2379 1.68691 11
844 1 -3.39512 -15.1845 3.46774 16
845 1 7.68177 -4.10174 7.84729 21
846 1 7.667 -4.50417 4.46819 24
847 1 9.67936 10.2851 1.731 20
848 1 -3.1451 11.2677 -6.85708 21
849 1 -0.374048 -8.80992 -6.92698 22
850 1 -5.82892 1.99868 -12.7649 19
851 1 -6.21539 -2.77926 13.2376 20
852 1 -3.06456 13.9066 3.27122 20
853 1 11.5251 1.37286 2.32074 22
854 1 3.02805 7.63775 -7.59442 23
855 1 -4.7651 8.73735 17.3182 9
856 1 8.54571 6.68452 8.32395 22
857 1 6.31689 -2.51377 -12.4558 19
858 1 -6.47962 -12.0198 0.270441 20
859 1 0.32173 -2.27636 -5.95145 19
860 1 16.5136 1.36643 -0.112601 18
861 1 4.55762 0.943308 -11.1018 21
862 1 2.04931 8.15519 17.6299 10
863 1 11.5337 -12.2475 -3.27816 13
864 1 6.34448 7.09266 -16.2341 11
865 1 -3.11207 -9.108 -1.71083 21
866 1 10.9762 6.15537 -10.0875 17
867 1 15.1048 -1.19647 -1.8528 23
868 1 -0.618231 -6.05064 13.1338 19
869 1 -3.52874 -8.96854 -10.9997 20
870 1 -6.23584 2.33767 -2.10589 21
871 1 7.15286 12.0021 -0.822855 23