ITEM: TIMESTEP
18000
ITEM: NUMBER OF ATOMS
2000
ITEM: BOX BOUNDS pp pp pp
-3.0000000000000000e+01 3.0000000000000000e+01
-3.0000000000000000e+01 3.0000000000000000e+01
-3.0000000000000000e+01 3.0000000000000000e+01
ITEM: ATOMS id type x y z 
1 1 -9.7718 5.29441 -14.9213 
2 1 -3.72113 -9.88141 -8.39025 
3 1 3.45275 12.6669 13.6595 
4 1 7.17627 -10.6828 7.35365 
5 1 -11.9604 8.73291 -0.548502 
6 1 10.069 -10.3194 -11.6794 
7 1 -11.7721 1.94327 -6.515 
8 1 -0.416589 -7.04341 10.0984 
9 1 -8.66089 -0.0990317 -11.2406 
10 1 -14.458 -9.28635 6.32512 
11 1 13.0444 2.41213 -10.4757 
12 1 -3.16794 1.33399 -6.01852 
13 1 -5.09155 -13.1892 2.11735 
14 1 -12.9364 -7.59464 3.14539 
15 1 1.74659 5.17079 16.2416 
16 1 6.92198 -1.90955 5.86478 
17 1 0.628627 3.32144 10.9244 
18 1 5.6292 -1.47004 2.62015 
19 1 -1.28103 9.49382 -10.0081 
20 1 1.78364 0.204372 12.3994 
21 1 -8.32561 -0.0440307 -16.9256 
22 1 -13.436 -2.46894 11.7594 
23 1 13.4303 5.2508 7.85611 
24 1 3.65843 9.42868 -11.331 
25 1 3.20275 6.44005 -12.1474 
26 1 13.5215 2.34366 11.0919 
27 1 -7.60458 2.38654 0.198108 
28 1 -12.5933 3.86463 -10.1944 
29 1 -2.73819 -1.65126 -8.5887 
30 1 -11.5511 9.87652 9.41684 
31 1 6.94401 -13.8701 5.48782 
32 1 1.58782 -0.840723 7.31857 
33 1 4.2507 -14.4093 -12.2021 
34 1 9.60249 -11.6699 -0.0469872 
35 1 -6.45079 -14.0596 -4.55037 
36 1 -13.4106 -5.75619 10.7925 
37 1 3.39989 -3.13314 -5.09989 
38 1 2.37958 -7.81923 -11.7453 
39 1 9.74149 -10.9983 -14.5639 
40 1 -2.82785 5.4293 -17.1627 
41 1 1.06975 5.74203 13.2672 
42 1 -1.56303 -11.8662 6.8237 
43 1 5.68648 -4.6951 13.0568 
44 1 -13.6993 -0.460996 -0.823492 
45 1 -15.3262 -0.93763 7.41925 
46 1 -9.09581 1.29269 -2.73275 
47 1 -5.43285 12.2546 -2.83661 
48 1 1.38307 -14.916 -10.7703 
49 1 1.70067 1.88709 -9.6441 
50 1 5.37825 -5.63234 -10.4219 
51 1 -2.42563 -3.29542 12.6189 
52 1 -12.9161 5.51463 -0.775018 
53 1 3.09204 12.5455 -11.2039 
54 1 0.257595 13.4464 8.80181 
55 1 -9.29639 7.69038 -8.34932 
56 1 0.89901 12.6999 -0.0454842 
57 1 -0.088472 -14.9593 0.386999 
58 1 6.92645 -6.36226 -5.3553 
59 1 5.98935 -5.48199 -16.1771 
60 1 -9.2553 7.2187 9.95769 
61 1 -12.5841 -4.3425 -10.7226 
62 1 6.98618 1.04656 5.11334 
63 1 -8.12946 9.23223 -5.74872 
64 1 -11.577 -10.111 6.62222 
65 1 -2.68294 14.0186 12.7309 
66 1 -14.1169 6.42044 -8.07955 
67 1 -7.691 10.8463 12.2844 
68 1 0.546589 5.5447 -4.81369 
69 1 0.413053 6.13836 4.51458 
70 1 -7.92226 -16.4482 6.28134 
71 1 0.583874 5.14093 7.91239 
72 1 7.35513 -15.1869 -3.32022 
73 1 6.10565 12.653 15.4388 
74 1 -14.5258 1.95086 -11.6415 
75 1 -11.74 7.03542 -9.55203 
76 1 5.34548 7.09542 12.0127 
77 1 13.1691 -3.44949 -11.3201 
78 1 9.12802 -12.0125 3.57683 
79 1 -17.2111 -0.800825 4.24619 
80 1 -7.52431 -0.68948 1.35413 
81 1 5.28855 15.3407 6.5769 
82 1 4.69623 -1.29496 12.8495 
83 1 -6.75949 -11.8828 4.5205 
84 1 -10.5056 -1.17827 -1.01907 
85 1 12.4142 2.77862 5.87587 
86 1 6.56854 -2.72701 -3.56815 
87 1 -1.76269 11.9195 10.4448 
88 1 5.5732 0.304351 7.7395 
89 1 -6.95039 -4.56371 1.96645 
90 1 -2.42892 -7.27576 -8.45809 
91 1 -13.6824 7.75487 10.2277 
92 1 -11.2403 12.1463 -1.16965 
93 1 -3.31341 6.63984 -9.36257 
94 1 4.94335 0.410775 -5.5661 
95 1 5.94772 -1.63599 -7.47641 
96 1 8.29283 12.0276 -6.98428 
97 1 6.94334 -6.86264 2.99181 
98 1 5.0994 -8.71992 9.29317 
99 1 -5.85546 14.0925 -5.10911 
100 1 -9.48157 10.6467 3.8256 
101 1 -7.89862 -4.0744 14.6869 
102 1 -6.04188 7.34892 4.03296 
103 1 -6.752 -6.15175 9.24208 
104 1 13.1731 -9.10241 -7.14484 
105 1 -10.2472 2.60637 5.03706 
106 1 -10.9455 -13.0061 2.59055 
107 1 9.41229 -7.61402 -3.74345 
108 1 5.76598 -0.59939 -12.924 
109 1 -6.37104 -2.35323 -16.9074 
110 1 3.93255 0.225145 5.04552 
111 1 -1.68477 10.5318 1.06196 
112 1 -7.18971 5.92885 -10.0986 
113 1 2.76354 8.99563 18.1997 
114 1 -0.340436 14.0556 -6.43498 
115 1 -14.7986 10.2088 3.3731 
116 1 1.02531 8.36854 1.84747 
117 1 -0.59606 2.04235 -4.41381 
118 1 -5.75847 -8.91205 7.64504 
119 1 12.919 -1.24079 10.3312 
120 1 -1.42364 -4.50225 -8.02198 
121 1 5.8119 -7.74515 -7.80758 
122 1 -1.6883 2.99477 8.93759 
123 1 6.54988 -0.448761 15.577 
124 1 -8.71448 -7.58693 -1.12543 
125 1 7.89368 -3.35046 3.33599 
126 1 -8.35198 -8.78378 -3.72856 
127 1 10.741 -9.84288 2.01225 
128 1 -6.21073 8.29081 0.983215 
129 1 8.62391 2.48632 -15.7005 
130 1 5.93994 17.5566 -1.5684 
131 1 -7.4302 -11.6213 9.70374 
132 1 -10.7903 -13.2443 8.92683 
133 1 -4.42144 5.3637 1.23316 
134 1 4.73534 -8.98653 -15.465 
135 1 3.35735 5.53002 -6.62655 
136 1 9.20266 -5.56044 1.12628 
137 1 -2.15838 -16.7161 6.3169 
138 1 -9.67146 -9.79557 1.69367 
139 1 16.3856 2.54741 8.55597 
140 1 14.4472 -3.2129 -8.49583 
141 1 -15.0625 -3.30941 2.68317 
142 1 10.669 9.39921 5.72752 
143 1 15.9495 8.69333 2.8518 
144 1 -5.84449 3.3587 16.2452 
145 1 6.081 4.57986 -2.77235 
146 1 -5.13913 10.6779 10.5382 
147 1 -3.37528 11.9341 -5.82397 
148 1 -0.0856447 -6.0771 -10.5673 
149 1 8.85101 -12.9803 -11.8289 
150 1 1.20526 14.7665 -11.2913 
151 1 8.17141 -3.63426 11.3955 
152 1 -0.934707 -0.756161 -19.2603 
153 1 -2.63651 8.68216 -6.7727 
154 1 10.9345 0.439783 -4.68149 
155 1 -10.3605 10.0874 -3.10166 
156 1 1.89388 -5.05137 -3.0626 
157 1 -8.14603 12.7672 -1.13031 
158 1 7.78257 2.0403 -12.2363 
159 1 9.16395 -9.25054 5.27087 
160 1 -6.11495 2.88894 -6.99756 
161 1 -7.86322 12.8175 9.37981 
162 1 13.9276 7.96685 -8.23422 
163 1 -1.78083 4.50723 -1.0661 
164 1 5.66333 10.6961 -0.91388 
165 1 -4.2141 15.3116 1.19732 
166 1 12.0578 10.8214 -1.87714 
167 1 -3.51637 10.1675 -3.8142 
168 1 1.25135 16.0471 -8.11421 
169 1 3.32467 9.64313 -14.3642 
170 1 -12.8539 -10.2549 3.33714 
171 1 -15.2496 8.42458 -1.8077 
172 1 -6.61323 -2.23107 -12.6868 
173 1 1.76261 -9.68645 -14.4213 
174 1 10.3814 12.7763 8.20034 
175 1 -0.0796781 15.9371 6.97933 
176 1 -12.2902 -2.87052 -5.86463 
177 1 -12.191 12.0007 4.22672 
178 1 15.8015 0.365867 -3.97274 
179 1 -10.7033 2.14116 -15.6423 
180 1 6.68687 2.06458 18.02 
181 1 4.29838 16.1838 3.49745 
182 1 -2.85426 8.96161 8.95214 
183 1 2.74343 -6.27924 -15.1223 
184 1 -4.15551 13.418 9.53245 
185 1 -1.73308 12.0482 -8.95528 
186 1 2.84754 -3.12817 12.0474 
187 1 -11.8153 -4.44617 3.64511 
188 1 -1.40937 -14.0162 -12.4369 
189 1 -10.5084 10.8647 -6.52537 
190 1 -3.7683 -10.9323 4.51964 
191 1 3.73886 -15.8315 -5.45703 
192 1 -3.27285 10.4816 -11.6713 
193 1 -14.8401 1.94366 8.50386 
194 1 1.31758 7.95584 -1.09865 
195 1 10.2035 9.65859 -3.8065 
196 1 -7.84005 5.15601 15.0923 
197 1 -0.986116 -10.33 9.62466 
198 1 -10.3346 4.72504 -1.70794 
199 1 0.84916 17.3449 4.13211 
200 1 -0.145772 7.46674 9.74706 
201 1 13.8415 3.93503 13.3321 
202 1 -7.59676 13.7674 4.45829 
203 1 13.1317 -6.06422 -8.73547 
204 1 -5.64504 13.4632 12.0954 
205 1 -5.01097 0.678648 -9.69314 
206 1 13.4676 -7.57849 2.38732 
207 1 -5.58265 -5.13124 4.76163 
208 1 -14.6573 1.54491 5.00924 
209 1 -8.5899 -8.27313 4.81729 
210 1 6.90775 7.47246 15.1716 
211 1 -16.1588 0.255013 -2.89345 
212 1 -1.38387 1.32375 2.27297 
213 1 -2.88641 -14.6737 -0.181814 
214 1 -2.20629 -1.61771 4.35491 
215 1 -5.74183 -1.30307 -3.52374 
216 1 6.34805 -7.43707 -2.61374 
217 1 -3.68818 9.94364 5.042 
218 1 -7.40285 2.08423 3.50127 
219 1 6.64531 14.1025 12.5956 
220 1 -8.0889 -0.196506 -5.28503 
221 1 -6.17246 13.1722 -8.4422 
222 1 -14.7506 -4.12133 -7.70232 
223 1 -10.3203 -1.83554 11.0189 
224 1 -0.488222 -10.5465 3.61079 
225 1 3.96377 -14.3474 6.76097 
226 1 -13.6097 10.3024 6.56193 
227 1 15.378 2.22546 2.55169 
228 1 6.17613 4.01865 -5.34753 
229 1 -6.0078 -7.01582 -13.9307 
230 1 4.41245 1.71133 11.0178 
231 1 -3.649 -3.2595 2.66008 
232 1 5.20164 -16.058 3.42837 
233 1 -2.34908 7.53015 -12.3371 
234 1 4.08681 -11.1019 -13.0655 
235 1 9.62509 -0.230557 -14.4665 
236 1 3.84008 6.67852 -16.131 
237 1 -8.25522 -4.72584 -8.1266 
238 1 -3.49383 14.4885 -7.51631 
239 1 -10.3682 -10.6471 10.0159 
240 1 8.80545 16.0389 -1.39097 
241 1 -8.92285 1.98008 15.2172 
242 1 -8.37827 12.2343 -4.26835 
243 1 7.91244 1.8731 9.84027 
244 1 -3.04116 -5.96583 -13.0676 
245 1 -4.34293 10.3825 -8.74805 
246 1 1.8757 4.55089 -9.40811 
247 1 -8.19297 -10.0892 7.09086 
248 1 -2.09574 4.1695 2.92007 
249 1 -7.57146 4.79733 8.51912 
250 1 -5.8963 7.55893 9.82294 
251 1 1.28871 -10.9945 -8.25542 
252 1 -5.71856 -15.2785 -0.256331 
253 1 8.95568 -11.2184 -3.42625 
254 1 -2.14145 2.07631 5.45541 
255 1 -4.99973 -0.404367 2.61065 
256 1 3.17156 -7.16629 -1.28187 
257 1 12.2506 6.62433 13.7101 
258 1 5.25117 8.72349 -7.37688 
259 1 -0.923618 10.2042 -1.50308 
260 1 -9.74224 0.39603 2.19701 
261 1 -15.2192 10.7217 -0.0872348 
262 1 2.54186 6.46023 10.513 
263 1 3.65902 -17.5202 0.124921 
264 1 13.6491 -1.85445 -3.55997 
265 1 1.89644 7.81689 7.20558 
266 1 -10.7103 5.71231 4.40432 
267 1 -11.0247 -6.44453 -4.3273 
268 1 6.1144 5.14897 -12.5877 
269 1 3.29485 -0.939083 9.71665 
270 1 7.99579 9.41748 -9.31156 
271 1 3.41429 -9.50798 -3.18616 
272 1 -3.20624 -0.8501 -11.7765 
273 1 0.385239 -18.6246 5.04867 
274 1 9.1954 -0.987674 -7.99097 
275 1 -10.474 -2.70858 6.2123 
276 1 2.24398 -13.5636 -4.04791 
277 1 -11.0523 -5.37746 -7.52194 
278 1 3.58647 13.2953 -1.0959 
279 1 0.998898 -2.06672 -13.732 
280 1 5.07562 4.53396 14.2483 
281 1 12.6283 3.47937 0.930743 
282 1 -4.10751 -6.55935 2.52265 
283 1 10.7137 -5.56832 -10.4928 
284 1 -1.30782 -6.31091 2.02853 
285 1 -8.68756 -3.6093 -11.1293 
286 1 -12.1792 0.682988 -10.2304 
287 1 -8.0402 -13.1915 6.8895 
288 1 10.7133 1.29021 9.9166 
289 1 4.72591 -3.35693 7.96612 
290 1 -5.30277 -9.20085 -11.0465 
291 1 2.23108 -5.7801 6.63112 
292 1 0.771415 8.72498 -12.6695 
293 1 6.03611 8.55062 0.773818 
294 1 -7.433 -7.20025 2.29956 
295 1 1.25814 11.958 2.87257 
296 1 -7.88399 -4.06422 11.483 
297 1 -10.0629 -8.18958 -8.40923 
298 1 -5.94663 -5.53658 -10.9715 
299 1 -1.53787 7.53064 -15.8841 
300 1 -5.3113 -9.21889 -5.59938 
301 1 -3.24348 -9.93001 1.74806 
302 1 -2.77299 -4.23891 -0.0986862 
303 1 8.7325 -4.90831 -15.0967 
304 1 13.3471 -0.691137 -9.43439 
305 1 0.510467 -4.73673 4.48385 
306 1 10.973 3.99525 3.55278 
307 1 -4.25161 -4.03453 -3.08267 
308 1 -9.84798 -4.24038 8.88101 
309 1 -1.82808 -10.1073 -1.6303 
310 1 9.35428 4.48134 16.4453 
311 1 -6.91415 -14.8699 3.96594 
312 1 2.80597 2.92522 -4.77797 
313 1 -0.989563 -11.6357 0.527291 
314 1 -2.33006 16.0334 -1.28226 
315 1 3.60179 0.122119 -15.86 
316 1 -4.97694 -4.46861 -15.3918 
317 1 4.30942 -5.49337 0.733136 
318 1 -11.0031 -7.93827 11.6784 
319 1 5.65511 7.61932 19.0834 
320 1 2.01862 -13.0278 -0.935245 
321 1 -4.0719 -11.935 -10.0493 
322 1 -10.2041 4.32796 -7.84182 
323 1 10.5236 5.74587 5.94998 
324 1 -6.67933 3.06068 -10.5479 
325 1 0.121751 6.33696 -11.3063 
326 1 -3.9498 -3.27748 7.09004 
327 1 6.76155 -14.9973 -9.89218 
328 1 -5.48267 14.8896 -1.37732 
329 1 2.5848 10.3063 5.46219 
330 1 9.93551 0.953952 4.16832 
331 1 -8.90568 -0.462699 5.01083 
332 1 -2.42341 -6.69469 12.8759 
333 1 -6.7085 10.6845 3.31859 
334 1 2.90641 -4.4158 -12.1156 
335 1 15.3092 10.8269 -2.9641 
336 1 1.74847 -11.9774 1.96686 
337 1 -3.07897 -0.342101 13.903 
338 1 -16.8533 -3.67067 6.00463 
339 1 0.752219 -16.4849 -4.96565 
340 1 -9.21208 8.50617 14.5451 
341 1 -10.7468 6.21398 14.0675 
342 1 -15.471 -3.23504 9.04415 
343 1 -15.2136 -6.18203 7.83613 
344 1 13.9141 -4.9219 -3.12937 
345 1 -12.7816 -8.00754 8.72558 
346 1 8.17301 -3.13111 -9.64181 
347 1 9.45347 -13.0334 -5.76579 
348 1 3.55725 16.5627 -2.74473 
349 1 -2.32971 -5.18615 4.89114 
350 1 -11.6938 12.8839 -4.37454 
351 1 0.485016 2.55634 6.93906 
352 1 10.6236 6.46664 10.9155 
353 1 -9.49266 -2.27271 3.06051 
354 1 6.58363 -10.6864 -1.89499 
355 1 -3.99387 9.0296 2.34445 
356 1 -7.66927 5.12386 2.35715 
357 1 0.719787 2.63462 3.74111 
358 1 3.83974 -10.8469 7.35115 
359 1 13.3654 -4.98521 5.215 
360 1 -5.04626 6.13268 7.02803 
361 1 -7.03407 -3.21425 -5.91788 
362 1 2.80929 -2.91037 2.16986 
363 1 -1.05594 3.37238 14.6138 
364 1 -4.11188 12.5607 3.15754 
365 1 9.92517 7.08 15.5587 
366 1 -8.94772 13.2238 -6.73371 
367 1 0.449048 -4.23332 -15.9909 
368 1 -5.78175 1.68893 -4.24912 
369 1 7.14159 -10.0027 -13.3424 
370 1 -9.71687 1.20603 11.7044 
371 1 -16.7559 2.62047 3.64027 
372 1 -4.79684 -4.89446 -8.15132 
373 1 -7.09035 9.90468 -1.87356 
374 1 8.80492 -0.377673 7.50884 
375 1 -10.442 -12.0476 -0.273582 
376 1 7.0724 -7.55938 7.30545 
377 1 -4.46921 2.31734 1.61371 
378 1 -7.72102 -8.63501 10.8325 
379 1 -14.6526 7.41204 1.72892 
380 1 -1.73429 -4.39361 9.86514 
381 1 3.61003 -11.717 -6.29155 
382 1 -5.40682 -2.34652 -9.94307 
383 1 7.47702 -2.55244 -14.8552 
384 1 3.43969 13.5828 4.71025 
385 1 -11.2334 -0.817115 -3.92167 
386 1 5.1103 -8.44505 -11.8775 
387 1 8.95453 5.00579 -13.8295 
388 1 -4.43771 -15.4637 -5.88332 
389 1 -13.9005 -6.9272 -5.46525 
390 1 -2.95659 -7.08329 -0.443418 
391 1 12.1867 4.86974 16.5889 
392 1 -2.01148 -2.07499 -2.65462 
393 1 10.6152 2.57866 -2.08779 
394 1 -9.84633 2.78833 -11.2721 
395 1 3.37326 17.5344 0.698953 
396 1 -15.204 -1.51692 -6.12635 
397 1 3.45776 0.706505 2.27869 
398 1 -7.96281 7.76711 6.87313 
399 1 -9.25761 9.98062 0.870889 
400 1 -7.82188 4.82723 5.4815 
401 1 9.93443 3.61146 12.3704 
402 1 12.0291 -1.93196 -6.51983 
403 1 8.33888 -3.10842 14.7468 
404 1 10.7232 1.6785 -7.33637 
405 1 -4.76395 -16.5875 -2.55228 
406 1 3.51015 2.89353 5.2309 
407 1 -4.78628 6.1632 -1.93149 
408 1 0.829915 -7.81542 -4.00321 
409 1 -1.21668 10.1632 3.92348 
410 1 5.51622 1.96064 -2.66376 
411 1 -9.17095 3.43656 -5.34627 
412 1 3.55436 -9.92715 -0.32751 
413 1 11.8473 -0.483761 7.07787 
414 1 -9.86811 -3.30742 -5.51085 
415 1 -6.63183 -10.1662 2.11834 
416 1 -8.28967 -6.81671 13.2764 
417 1 -3.76399 9.69784 -0.914982 
418 1 -10.9602 -9.86162 -1.83974 
419 1 8.61984 10.3926 15.9156 
420 1 -10.5668 6.20046 -5.67483 
421 1 0.9913 12.5162 -8.98529 
422 1 5.13929 12.1908 7.35355 
423 1 -13.7381 -7.50149 -2.29515 
424 1 -1.11852 -9.39252 -6.23877 
425 1 -12.3971 0.412774 6.56618 
426 1 -12.515 7.56185 -3.54411 
427 1 4.59027 -7.90413 5.37027 
428 1 -3.88884 -13.797 -3.0014 
429 1 12.4753 10.2566 8.5719 
430 1 5.85385 7.62486 -13.9471 
431 1 -12.4512 4.27646 -13.671 
432 1 -1.26771 15.0522 -9.34493 
433 1 -7.75912 5.40845 -6.97822 
434 1 -1.75248 -13.3657 2.64498 
435 1 12.5894 7.47607 5.02112 
436 1 1.41209 9.74176 -16.5782 
437 1 -4.33975 1.31902 10.1527 
438 1 -15.3677 1.88021 0.0788566 
439 1 2.27984 0.983061 -2.33222 
440 1 -7.41232 2.36606 6.57044 
441 1 -3.76543 -14.3228 4.51676 
442 1 1.5741 -5.68412 -6.37701 
443 1 7.78644 -9.32198 -10.4052 
444 1 -0.476132 -3.27807 6.97043 
445 1 -12.2437 1.74284 3.09588 
446 1 -15.3957 -0.486036 10.7345 
447 1 -12.9035 6.76796 6.62631 
448 1 -0.77076 -6.28421 7.50294 
449 1 -7.86238 3.24157 -17.2643 
450 1 8.37067 -9.1049 -6.7123 
451 1 1.46492 -10.6844 -11.4786 
452 1 -4.83043 -3.77943 10.1448 
453 1 4.03911 -6.8315 -4.29236 
454 1 -4.38821 3.17885 -14.9989 
455 1 5.75406 -11.351 1.38256 
456 1 2.44116 11.8774 -5.61204 
457 1 -10.6474 8.76897 6.22914 
458 1 -5.5426 -2.73008 15.7757 
459 1 -10.6805 -6.19344 -10.4154 
460 1 -8.24339 -6.54155 7.19957 
461 1 10.5798 -4.94712 10.8303 
462 1 7.41168 2.56808 -0.417577 
463 1 -4.93144 4.52302 4.20048 
464 1 2.94726 -1.17325 -7.724 
465 1 8.81321 -5.7886 5.47743 
466 1 0.239511 5.30784 1.14499 
467 1 15.4532 8.35822 -5.63834 
468 1 -3.64703 2.43911 12.7304 
469 1 1.75029 13.9915 -3.4108 
470 1 5.98994 -4.67076 5.4106 
471 1 -0.821476 -13.7932 -5.10775 
472 1 -3.43061 5.2214 16.5222 
473 1 -2.52243 14.722 6.78535 
474 1 -8.80802 -10.6302 -6.11518 
475 1 9.59475 14.2836 1.4539 
476 1 4.60227 7.30874 9.18289 
477 1 -7.45668 2.27848 9.66423 
478 1 -5.7043 -7.45653 -3.16803 
479 1 -10.83 4.35437 10.529 
480 1 -8.34514 -7.51825 -6.30284 
481 1 -5.28818 9.63867 7.66935 
482 1 -4.25061 -12.5483 -6.79113 
483 1 -2.65868 -8.30077 -14.9858 
484 1 -7.81898 -12.8132 1.18128 
485 1 -6.26533 -2.54748 4.41096 
486 1 9.71119 2.51688 6.80885 
487 1 -5.37833 -5.08368 12.931 
488 1 -10.1308 5.63837 -11.7592 
489 1 10.0179 5.14442 0.151165 
490 1 -7.17061 -13.1806 -1.77268 
491 1 0.298107 3.10375 -7.09425 
492 1 -1.07318 14.4158 1.6507 
493 1 -0.339584 6.33446 -7.8443 
494 1 -0.134749 9.23142 12.6066 
495 1 -14.2824 -2.19601 -3.20735 
496 1 -0.753659 15.9763 -3.60046 
497 1 5.55831 11.9799 -6.23273 
498 1 -5.99839 -7.42433 -8.27023 
499 1 3.52083 2.76387 16.9837 
500 1 4.06787 -15.8953 -9.03492 
501 1 -0.324056 -2.99276 -11.0444 
502 1 8.36425 -14.332 2.26187 
503 1 -12.3464 8.22625 3.91333 
504 1 3.65582 7.38623 15.1838 
505 1 7.47499 8.81134 -2.21156 
506 1 3.17759 10.2987 0.267041 
507 1 -8.6905 8.53157 -10.8074 
508 1 3.97874 2.46697 -7.45332 
509 1 2.79521 -10.4666 4.44237 
510 1 -14.2789 -4.10314 -0.832889 
511 1 4.00892 3.08386 -0.0975156 
512 1 3.08923 17.3681 5.9247 
513 1 -5.23664 5.25645 -12.5244 
514 1 11.5138 7.85796 -1.10681 
515 1 6.49238 14.9514 -7.64816 
516 1 6.88703 -5.44519 -0.398275 
517 1 13.2684 2.61067 -3.62922 
518 1 -0.575341 0.26889 -11.6817 
519 1 1.21394 -8.82149 1.31365 
520 1 0.912444 -15.2108 6.27627 
521 1 2.04908 -8.60871 8.9918 
522 1 -8.43381 1.93361 -8.2616 
523 1 -11.6547 -13.6398 5.80282 
524 1 3.15637 4.42545 2.49549 
525 1 -0.974717 -12.1744 -10.2332 
526 1 7.66181 13.4916 6.78842 
527 1 0.696996 3.09402 -12.8095 
528 1 3.12063 -0.420114 15.444 
529 1 -13.2832 2.50416 11.1898 
530 1 -1.69146 -17.4845 0.375726 
531 1 -12.0221 -2.91572 1.07677 
532 1 14.3898 -6.11192 -6.01072 
533 1 9.86437 -2.12981 -3.48043 
534 1 -3.0145 3.51677 -3.67956 
535 1 -5.47174 8.31996 -4.37033 
536 1 2.61391 -8.75195 -6.37544 
537 1 4.03979 3.55975 -11.676 
538 1 10.2168 -6.26257 -6.47076 
539 1 -5.92411 0.155414 15.3504 
540 1 4.15153 13.5772 1.98174 
541 1 -2.7691 -3.20688 -17.3689 
542 1 1.1665 -5.84236 1.47451 
543 1 5.32168 1.7806 -17.0339 
544 1 -7.22752 -3.01587 7.03902 
545 1 -2.78327 13.1072 -0.954641 
546 1 -8.55824 -1.56169 -14.413 
547 1 -15.1906 -0.0328452 2.34007 
548 1 -0.681533 -11.3163 -14.8621 
549 1 -4.46153 -10.297 10.7834 
550 1 0.474581 9.30433 -7.5585 
551 1 16.2056 3.0672 11.2324 
552 1 12.5529 5.02472 -2.13403 
553 1 -7.66211 -10.256 -0.789086 
554 1 1.2568 -10.2851 -1.56708 
555 1 0.0528369 -3.6494 -19.0449 
556 1 -8.59791 10.0757 8.78474 
557 1 2.52429 -3.99813 -9.14771 
558 1 3.50123 6.71304 -0.0574659 
559 1 12.8458 -3.29461 -0.620887 
560 1 3.35623 14.7841 -6.14746 
561 1 4.36723 -8.49617 2.27902 
562 1 4.26894 -1.03143 -3.45699 
563 1 14.9725 5.12652 -10.7011 
564 1 5.52944 9.91457 14.0717 
565 1 -10.4389 2.47481 8.60016 
566 1 -6.06328 -2.62432 -0.324824 
567 1 6.6154 9.87988 8.72702 
568 1 8.35062 -1.00033 17.3947 
569 1 0.85005 0.830143 -15.0476 
570 1 -4.45209 -5.86481 -5.47944 
571 1 0.408392 -2.22585 10.926 
572 1 8.04371 11.6795 10.5857 
573 1 7.11156 6.29475 -7.64089 
574 1 -8.08096 10.5458 -8.79492 
575 1 -0.562877 11.1007 -4.421 
576 1 11.1365 -2.69172 12.8272 
577 1 10.4881 2.62439 -12.4449 
578 1 10.6732 -10.0449 -5.69032 
579 1 12.1152 8.71636 11.2616 
580 1 -14.7925 -6.04222 0.852641 
581 1 -6.69489 11.23 -11.189 
582 1 0.37973 0.560336 9.44104 
583 1 -13.6054 0.165879 13.5211 
584 1 -4.03002 13.7161 -11.009 
585 1 4.66471 -12.5385 -1.79578 
586 1 5.09753 -2.15965 -10.7438 
587 1 -3.08749 14.3828 -4.42881 
588 1 -8.24631 -4.36692 -14.6732 
589 1 2.17918 -15.5198 2.247 
590 1 -11.6842 -6.29557 -0.549053 
591 1 1.64976 11.9548 -13.6789 
592 1 -4.84364 3.1362 -1.45285 
593 1 -1.75308 9.54805 14.9932 
594 1 -12.2058 -5.67793 7.01746 
595 1 4.72729 7.66832 -2.37578 
596 1 4.41857 -10.026 -9.30191 
597 1 3.65759 -6.56722 11.3555 
598 1 7.75386 -0.640812 -4.96059 
599 1 0.677573 -0.519307 1.74171 
600 1 -10.9221 6.55616 1.2277 
601 1 6.06607 5.02595 16.9113 
602 1 5.38833 16.711 -5.11494 
603 1 11.4847 -4.57845 -4.47443 
604 1 4.88243 10.4438 10.801 
605 1 0.781018 5.07184 -17.3217 
606 1 -4.48686 -13.4776 10.2461 
607 1 -1.81195 1.56403 -9.06319 
608 1 7.91313 0.0333487 -17.3443 
609 1 2.95234 14.0138 8.18771 
610 1 9.22623 4.48066 -10.2492 
611 1 -1.95763 -2.88551 -13.7225 
612 1 -3.01645 -11.3929 -4.73025 
613 1 -11.1018 -4.03955 -13.5609 
614 1 10.2252 1.60755 0.863655 
615 1 13.9768 5.70476 -5.31171 
616 1 7.99564 -5.87549 -8.45645 
617 1 13.351 5.66914 10.6861 
618 1 5.62785 -10.0888 -5.27907 
619 1 2.95571 3.41099 -15.3815 
620 1 6.51392 12.3663 4.18238 
621 1 -9.85031 4.06096 1.58615 
622 1 11.3828 9.77382 14.3717 
623 1 9.00844 5.67061 -2.48765 
624 1 14.7746 -1.63496 1.91391 
625 1 12.0799 4.50581 -8.06492 
626 1 8.08591 2.24492 14.1945 
627 1 16.1609 5.82193 8.62651 
628 1 2.00139 -4.37831 9.15001 
629 1 14.007 13.4745 -3.58526 
630 1 6.00965 2.16982 2.39073 
631 1 1.84706 2.40969 14.2494 
632 1 15.4292 -0.30175 -6.59944 
633 1 8.44713 4.74581 8.33332 
634 1 -7.81042 -1.25796 -8.39982 
635 1 11.9058 6.36085 1.71783 
636 1 11.3465 -3.61593 2.57682 
637 1 -0.141102 -7.69142 -1.07268 
638 1 -12.8481 8.96174 12.7544 
639 1 11.1062 11.4892 11.3642 
640 1 9.68753 0.509773 13.335 
641 1 3.03183 10.7145 8.45536 
642 1 0.518835 14.2331 12.4775 
643 1 5.96271 3.15159 7.26293 
644 1 -2.21911 -18.7746 3.4594 
645 1 -6.10897 8.09209 -7.70636 
646 1 10.7295 9.9554 -7.23004 
647 1 10.0346 -3.14761 -12.6228 
648 1 0.853117 15.5168 -0.692452 
649 1 -1.38379 -12.2586 -7.4197 
650 1 10.7148 -7.49818 -14.0237 
651 1 -15.3221 4.55279 6.39037 
652 1 -5.52456 8.39199 -10.6819 
653 1 -3.78918 -16.2525 2.53344 
654 1 -6.03866 0.585745 -12.8229 
655 1 -13.7122 0.973603 -4.79373 
656 1 11.0563 -6.63115 3.83362 
657 1 13.3583 10.9351 3.46062 
658 1 0.537544 -9.09055 6.81028 
659 1 -13.3926 -1.67938 -8.75311 
660 1 1.36734 2.38959 0.728272 
661 1 1.37841 1.39409 -17.6841 
662 1 2.8644 -3.04645 5.62288 
663 1 -1.72068 7.02213 14.4846 
664 1 6.5645 10.3607 -12.2128 
665 1 13.0194 0.0887316 13.2972 
666 1 9.0611 4.37596 -6.91916 
667 1 5.34529 0.005425 -0.260896 
668 1 12.5462 14.0404 3.21739 
669 1 3.82916 -12.9552 -9.70655 
670 1 -11.0324 -1.67336 14.0096 
671 1 13.3394 -1.86884 4.68378 
672 1 0.026472 12.0607 14.2348 
673 1 5.93823 11.9667 -9.11706 
674 1 -13.2773 10.6889 -2.74631 
675 1 8.98791 8.36288 0.921735 
676 1 -8.70266 -15.7603 0.746232 
677 1 14.4126 -4.62121 2.14386 
678 1 7.64404 15.3326 4.12221 
679 1 -4.71328 4.30954 10.4052 
680 1 -9.97461 -5.55688 1.74866 
681 1 -10.2878 -2.63642 -8.87712 
682 1 7.19969 0.196228 12.1326 
683 1 -3.86526 -7.73547 9.96323 
684 1 8.59458 6.07381 13.2654 
685 1 -5.78716 11.3365 0.547723 
686 1 8.40118 3.85925 2.06732 
687 1 6.71906 -2.87735 -0.221393 
688 1 7.85 4.88557 5.26689 
689 1 1.5321 -1.50472 -17.3136 
690 1 -9.15009 -0.185483 8.15908 
691 1 8.72083 -0.829572 -11.4595 
692 1 -1.61375 -5.89435 -5.91257 
693 1 10.6373 -11.4274 -8.42715 
694 1 7.69533 7.57331 6.83171 
695 1 4.45416 6.11772 6.09655 
696 1 -11.3935 0.474236 16.0077 
697 1 9.7605 9.77987 9.31215 
698 1 0.317356 -1.90775 13.9316 
699 1 -1.82851 5.39372 11.6219 
700 1 0.242765 -5.62527 -13.4557 
701 1 -6.94212 2.08517 13.0099 
702 1 -5.27579 4.85073 -4.40789 
703 1 6.47325 4.11828 11.496 
704 1 -10.3137 -15.9572 7.29483 
705 1 13.6061 8.17915 -3.13997 
706 1 6.77967 -12.9809 -4.74123 
707 1 -2.20758 4.02918 -6.84472 
708 1 9.0357 11.0516 -0.695349 
709 1 9.85644 12.6954 4.82798 
710 1 5.01159 -1.11182 -18.773 
711 1 -2.18367 -0.3552 7.11538 
712 1 4.95179 13.205 -3.59389 
713 1 12.047 9.00681 2.33947 
714 1 -1.31976 -4.88217 -2.88779 
715 1 -5.45247 -8.02685 0.216871 
716 1 -1.0911 -0.730823 -16.5018 
717 1 -12.3799 11.024 1.45565 
718 1 8.0883 -6.69048 -11.688 
719 1 5.66881 5.65284 3.42875 
720 1 10.8763 7.1137 -9.38065 
721 1 10.6663 13.7549 -1.88437 
722 1 -2.29255 4.93372 5.95458 
723 1 -7.1734 5.59368 -0.288661 
724 1 6.63529 6.89261 -4.5933 
725 1 11.8818 2.26165 14.9695 
726 1 10.6613 -1.05324 15.7764 
727 1 -1.2027 -13.8685 8.76771 
728 1 -5.0359 10.0866 -14.016 
729 1 4.01069 13.615 10.729 
730 1 7.77427 -8.06446 -15.4823 
731 1 2.8983 2.29597 8.27106 
732 1 7.92642 14.4036 -4.16665 
733 1 7.96431 10.7257 6.21034 
734 1 -6.08429 0.017979 -1.08596 
735 1 12.4844 -7.96843 -3.69586 
736 1 8.13362 7.74991 18.0793 
737 1 -14.1888 -2.44252 5.4672 
738 1 4.78656 -15.5102 -2.5948 
739 1 0.202394 -1.14969 -8.71587 
740 1 -10.1403 13.2125 1.7941 
741 1 -2.93484 6.02681 9.04233 
742 1 4.55635 -4.03623 -1.90194 
743 1 4.46958 10.6303 2.79641 
744 1 -12.3367 -1.05865 3.5148 
745 1 -0.607754 4.32336 17.7726 
746 1 -4.6428 7.06496 -14.9067 
747 1 -7.43693 7.12799 -13.5454 
748 1 5.13 -14.5017 0.732218 
749 1 7.84173 9.38369 -6.19075 
750 1 3.87671 -5.42176 3.99078 
751 1 -2.95415 6.95818 3.93588 
752 1 -13.2683 5.30678 12.3125 
753 1 2.29041 -1.54004 -11.3149 
754 1 1.27622 -12.1 7.96503 
755 1 1.32921 15.224 2.43959 
756 1 -3.2257 2.10163 15.9337 
757 1 -3.30014 -0.858529 0.233762 
758 1 -7.7628 -7.69097 -10.7054 
759 1 -3.37667 -10.9283 -13.0712 
760 1 -6.78251 -13.2668 -8.08615 
761 1 -1.44167 16.8953 -6.70259 
762 1 4.81818 -4.70597 -7.20336 
763 1 2.54456 -1.84582 -0.888618 
764 1 -2.88535 11.7778 7.05185 
765 1 6.80387 -11.9727 -7.95659 
766 1 7.11036 -16.7497 0.188269 
767 1 4.94408 -6.11564 8.20536 
768 1 15.7183 2.1405 -9.27462 
769 1 1.82835 -13.9721 -7.50882 
770 1 -12.5631 -3.0357 8.9756 
771 1 1.54896 0.268168 -5.72812 
772 1 -5.11438 -18.1628 0.902953 
773 1 -6.24864 -11.3229 -3.60759 
774 1 0.755257 -1.83293 -3.3709 
775 1 -12.0445 0.405184 9.72994 
776 1 -7.61902 -17.6609 3.34096 
777 1 15.3812 5.39925 -7.70021 
778 1 -5.07441 15.8227 4.22422 
779 1 -4.5033 3.2162 7.25013 
780 1 -14.9741 6.57162 4.08754 
781 1 11.4696 -0.871358 1.74654 
782 1 -12.6973 -1.65628 -12.0697 
783 1 -0.143136 8.4343 -3.77245 
784 1 10.2906 1.46839 -10.1078 
785 1 9.29601 12.5412 13.6985 
786 1 0.676208 -0.436317 4.42631 
787 1 8.60137 2.39073 -4.48135 
788 1 -14.4599 1.6688 -8.01651 
789 1 -13.553 -6.66501 -8.77024 
790 1 -0.742987 7.29673 17.7748 
791 1 5.05373 6.52965 -9.69133 
792 1 13.0912 12.4183 6.25705 
793 1 -2.81704 -1.16843 10.4428 
794 1 -1.85195 -16.3309 -2.74774 
795 1 -7.58048 -15.1715 9.70981 
796 1 -3.71923 -6.40638 7.40779 
797 1 14.8267 8.11164 9.02054 
798 1 3.01698 -7.13887 -9.30311 
799 1 -8.94432 7.77247 -1.05051 
800 1 6.84333 7.98981 4.16429 
801 1 -8.59619 -4.55973 4.62963 
802 1 8.13274 7.18234 -11.4279 
803 1 -2.53943 -18.1047 -5.22793 
804 1 0.776849 -18.2157 1.3439 
805 1 1.5471 -15.8312 -2.38757 
806 1 6.40566 3.84588 -9.33727 
807 1 6.36617 15.2959 0.986646 
808 1 -2.68965 0.587798 -14.5006 
809 1 -0.965174 1.19361 12.0509 
810 1 0.823577 5.76634 -14.4253 
811 1 -11.3973 -1.39955 -15.4832 
812 1 -11.5368 -3.99688 -2.31369 
813 1 1.64135 16.8196 -4.82262 
814 1 10.0406 -2.9291 -0.657982 
815 1 -1.79151 -5.6023 -15.9488 
816 1 -5.60281 -5.41056 -0.500518 
817 1 11.3222 7.35152 -6.03784 
818 1 11.5187 -9.3508 -1.45192 
819 1 -6.85776 7.71065 12.7922 
820 1 6.10814 -10.4567 4.39896 
821 1 13.9728 -6.87655 -0.744107 
822 1 13.6006 -4.40152 9.24052 
823 1 -0.193437 10.3003 7.59501 
824 1 -11.9935 3.09244 14.0084 
825 1 -7.54961 5.07493 11.6962 
826 1 -4.2745 -15.2355 8.13322 
827 1 8.04128 0.0926884 1.72368 
828 1 7.95005 8.9521 12.5213 
829 1 -16.0575 -1.8859 0.00209368 
830 1 8.42668 -4.789 -2.97964 
831 1 1.02948 3.62396 -1.99824 
832 1 -14.1607 11.4776 -5.91572 
833 1 3.47563 7.61773 3.20805 
834 1 3.46892 -17.6024 6.1105 
835 1 4.79408 1.63537 13.9949 
836 1 0.321771 12.8449 5.77385 
837 1 0.858904 -13.3404 4.56823 
838 1 -8.44055 -2.44346 -2.95529 
839 1 3.57336 4.31648 11.5564 
840 1 -15.8194 -5.52375 -3.0401 
841 1 3.46924 10.8639 16.4072 
842 1 6.76966 12.477 1.41693 
843 1 -10.3387 -11.2228 4.70614 
844 1 -4.83248 -17.3016 5.40557 
845 1 8.41636 -3.53944 7.86032 
846 1 11.4288 -4.41763 7.48029 
847 1 9.03366 10.3713 2.97619 
848 1 -2.71992 6.60166 -3.75473 
849 1 0.202274 -8.75206 -9.06179 
850 1 -3.62543 2.53004 -11.8102 
851 1 -5.58406 -2.19559 12.6817 
852 1 -1.63971 15.2804 4.21403 
853 1 13.1337 0.86077 3.29259 
854 1 2.4877 8.59758 -5.58224 
855 1 -4.38215 8.27908 14.6311 
856 1 7.84927 7.13293 10.1398 
857 1 6.6755 -3.95038 -12.6236 
858 1 -4.6446 -11.738 -0.450498 
859 1 -5.3605 -0.570585 -6.6353 
860 1 14.7739 0.438607 6.04327 
861 1 4.90027 0.784 -10.1609 
862 1 0.869786 8.96448 16.0208 
863 1 9.17996 -14.5905 -8.66359 
864 1 5.87493 4.68568 -15.7112 
865 1 -2.76867 -8.31445 -3.93991 
866 1 11.8107 5.3058 -11.6004 
867 1 16.6311 -0.0620304 -0.388058 
868 1 0.768599 -5.13823 12.346 
869 1 -0.849665 -8.67332 -12.7088 
870 1 -0.443333 0.382545 -1.27758 
871 1 6.6249 13.6314 -1.22146 
872 1 1.6753 -7.72637 4.26112 
873 1 -13.8776 4.3583 3.54962 
874 1 11.1574 4.1253 -4.87233 
875 1 14.9672 5.61029 2.70785 
876 1 3.86047 -2.69026 -14.7078 
877 1 -7.89709 11.1623 6.31308 
878 1 15.7252 7.00936 5.8434 
879 1 10.8788 12.6277 -5.10039 
880 1 5.182 2.22526 -13.9627 
881 1 11.2558 -6.06749 -1.62374 
882 1 -11.9077 1.54488 -1.99885 
883 1 9.41642 6.97853 3.22293 
884 1 -12.6695 -9.45774 0.151452 
885 1 -12.8233 8.61108 -6.31888 
886 1 4.84477 4.37126 8.93216 
887 1 -10.7133 -0.499834 -7.10448 
888 1 -10.369 5.40356 7.31639 
889 1 -4.34338 3.92537 -9.50977 
890 1 10.2306 -8.35016 -9.1477 
891 1 -11.016 -9.35885 -5.52726 
892 1 8.78283 -8.12222 -0.282656 
893 1 -15.4898 4.35223 1.02099 
894 1 -7.45552 -5.43696 -3.68743 
895 1 11.3472 7.39697 8.47801 
896 1 -5.57234 -8.58972 4.77567 
897 1 9.91677 1.87088 17.4356 
898 1 14.378 -2.80909 7.40929 
899 1 10.0067 -2.137 5.25547 
900 1 -12.6166 2.84351 0.20555 
901 1 1.66711 11.6788 11.3374 
902 1 2.65556 7.56076 -9.04464 
903 1 0.250507 -7.94608 -16.4067 
904 1 -5.28031 13.208 6.24077 
905 1 -13.6391 -11.319 8.69356 
906 1 8.06032 11.525 -4.07574 
907 1 2.95191 8.96112 12.1952 
908 1 15.8946 -3.13257 -5.22564 
909 1 7.22727 -6.43625 10.4963 
910 1 -0.917557 12.8827 -12.4706 
911 1 3.19878 10.7988 -8.39926 
912 1 0.211819 -3.46056 -0.674215 
913 1 -7.34517 -0.912534 10.5235 
914 1 15.2199 3.63602 5.64008 
915 1 -2.88721 -4.26369 -10.7114 
916 1 14.2428 10.3361 0.278945 
917 1 -15.0103 3.37508 -2.44555 
918 1 -4.94505 -11.7977 7.7961 
919 1 3.76331 14.7516 -9.33163 
920 1 6.55903 -1.52138 9.54041 
921 1 -0.436134 -12.9104 -2.33137 
922 1 -6.74457 14.1643 1.54827 