ITEM: TIMESTEP
2000
ITEM: NUMBER OF ATOMS
2000
ITEM: BOX BOUNDS pp pp pp
-3.0000000000000000e+01 3.0000000000000000e+01
-3.0000000000000000e+01 3.0000000000000000e+01
-3.0000000000000000e+01 3.0000000000000000e+01
ITEM: ATOMS id type x y z 
1 1 -10.6941 4.78077 -14.682 
2 1 -3.18918 -9.53636 -9.4163 
3 1 2.71888 11.9492 12.4131 
4 1 6.77927 -11.0224 6.60737 
5 1 -11.6613 8.16303 -1.87656 
6 1 11.0729 -9.30194 -10.8325 
7 1 -11.6577 2.97004 -6.7 
8 1 -1.16922 -7.32554 9.50943 
9 1 -8.89955 0.0660825 -11.2026 
10 1 -14.7435 -9.25519 6.22497 
11 1 13.8803 2.3807 -11.5852 
12 1 -2.90338 1.30479 -5.58419 
13 1 -4.1088 -12.8522 1.49958 
14 1 -13.288 -7.21443 4.14471 
15 1 0.952764 4.50105 15.5671 
16 1 6.6809 -2.33107 5.34893 
17 1 0.723755 3.72649 9.90676 
18 1 7.46297 -0.984775 2.17666 
19 1 -2.02736 9.93028 -10.4577 
20 1 2.21614 -0.17793 12.3076 
21 1 -8.66616 -0.739622 -16.3463 
22 1 -13.1273 -3.14627 12.2018 
23 1 14.087 5.34823 8.53097 
24 1 0.764 10.0561 -11.3869 
25 1 3.62875 5.00951 -13.3196 
26 1 14.4769 2.14263 12.4147 
27 1 -7.88303 1.90863 0.179273 
28 1 -13.9654 4.05872 -9.2516 
29 1 -2.17094 -1.22841 -8.25135 
30 1 -10.4508 7.83986 7.94814 
31 1 6.20327 -14.3465 5.27238 
32 1 2.30433 -0.891094 7.67248 
33 1 2.65903 -13.5712 -11.1656 
34 1 9.30635 -11.8667 0.768793 
35 1 -7.63249 -13.7577 -5.91828 
36 1 -13.0874 -5.59586 10.4507 
37 1 3.41176 -3.00689 -4.94337 
38 1 1.86548 -7.92909 -12.4222 
39 1 9.86209 -9.98751 -13.5106 
40 1 -3.26653 5.27623 -17.5818 
41 1 1.02126 5.60201 12.5879 
42 1 -1.2392 -11.3262 6.68938 
43 1 5.66685 -5.48765 13.7464 
44 1 -12.9667 -0.0397303 1.1434 
45 1 -16.9288 -1.3487 8.11331 
46 1 -9.24966 1.08216 -2.51738 
47 1 -4.29866 12.6953 -2.87432 
48 1 -0.135908 -15.1723 -11.7184 
49 1 1.57885 1.88794 -9.66858 
50 1 5.18283 -5.22726 -9.97266 
51 1 -2.47591 -3.26034 12.9574 
52 1 -12.5637 5.08496 -1.02261 
53 1 3.43518 11.8294 -12.1427 
54 1 1.40051 13.0367 9.30593 
55 1 -9.0356 7.66527 -7.17707 
56 1 -0.601686 13.3636 -0.0345325 
57 1 0.953847 -12.6243 2.75561 
58 1 6.62278 -6.86616 -5.09077 
59 1 5.69721 -5.52963 -16.4994 
60 1 -8.82675 8.0166 11.0478 
61 1 -13.3163 -4.59307 -9.68742 
62 1 7.42124 0.438988 4.90584 
63 1 -8.28785 8.14355 -3.75499 
64 1 -9.51198 -9.08766 7.10726 
65 1 -3.01 13.8255 12.7425 
66 1 -12.9454 6.12035 -7.15542 
67 1 -6.69516 9.41439 12.7869 
68 1 1.0035 6.39359 -4.96055 
69 1 1.02998 5.7253 4.15286 
70 1 -7.80864 -15.0379 5.7804 
71 1 3.17829 4.7553 7.39866 
72 1 5.69966 -14.8506 -3.33181 
73 1 5.24475 12.2288 15.1526 
74 1 -14.4031 1.71428 -11.1344 
75 1 -14.1231 7.30097 -10.2606 
76 1 5.68424 5.72935 12.2701 
77 1 13.0515 -3.3368 -10.9666 
78 1 7.74357 -11.7394 4.02861 
79 1 -17.0302 -2.97447 4.68308 
80 1 -7.12271 -1.53312 1.66626 
81 1 5.36224 15.6188 6.42596 
82 1 5.27067 -2.13375 12.6863 
83 1 -6.75454 -11.708 5.86924 
84 1 -9.83454 -1.00354 -0.680698 
85 1 12.6664 2.84371 6.45803 
86 1 8.73495 -1.85299 -3.62318 
87 1 -1.79917 11.302 9.97108 
88 1 5.52027 0.168222 7.67548 
89 1 -6.7115 -4.80448 1.96092 
90 1 -3.14283 -6.56102 -9.03892 
91 1 -13.67 7.11394 8.85092 
92 1 -9.22983 10.4528 -2.06406 
93 1 -2.96652 7.27892 -8.91927 
94 1 4.43982 0.598609 -4.89001 
95 1 6.58932 -2.10107 -5.75632 
96 1 8.84257 12.5894 -8.21581 
97 1 6.33194 -6.91885 3.14581 
98 1 5.49274 -9.52287 10.2057 
99 1 -5.76601 15.3896 -4.59185 
100 1 -11.2261 11.0882 4.11562 
101 1 -8.45382 -4.4716 14.9662 
102 1 -4.15221 8.01683 5.47109 
103 1 -6.83845 -5.82741 9.68862 
104 1 12.6377 -8.12902 -6.05623 
105 1 -10.9329 3.0899 4.77542 
106 1 -10.2758 -13.388 3.57581 
107 1 9.40557 -7.42604 -5.10637 
108 1 5.90323 0.093014 -12.3867 
109 1 -4.98323 -0.848684 -15.3571 
110 1 4.05287 0.0768433 4.99322 
111 1 -1.11089 11.7722 2.52626 
112 1 -8.16256 5.87953 -9.3911 
113 1 1.70072 9.39919 18.4019 
114 1 0.0933054 14.2612 -6.32856 
115 1 -14.4296 10.0585 1.25917 
116 1 0.721684 8.70931 0.720517 
117 1 -0.360329 1.44698 -3.70572 
118 1 -6.33913 -8.10132 8.77819 
119 1 14.7163 -0.643481 10.3457 
120 1 -0.564841 -4.05122 -8.64674 
121 1 4.85509 -7.65811 -7.43377 
122 1 -1.75969 3.0245 8.17732 
123 1 5.76408 -0.964545 16.0132 
124 1 -9.38959 -6.7559 -1.69616 
125 1 6.79017 -3.99956 2.55392 
126 1 -8.3442 -8.38921 -3.98787 
127 1 9.43474 -8.88854 1.9914 
128 1 -5.09669 7.961 2.10433 
129 1 7.30913 2.42598 -14.5023 
130 1 5.75999 17.6834 -2.50255 
131 1 -9.06018 -12.9829 11.3201 
132 1 -11.5347 -13.8963 9.4245 
133 1 -3.97066 4.95022 1.55818 
134 1 4.63383 -8.45669 -14.6861 
135 1 3.62465 5.51399 -7.22318 
136 1 9.94965 -9.23087 -1.17244 
137 1 -2.24231 -16.2143 5.42692 
138 1 -9.16531 -8.78487 0.952601 
139 1 17.1002 6.66808 8.84932 
140 1 15.5619 -3.44117 -8.95002 
141 1 -15.0879 -4.43364 2.65223 
142 1 10.6636 8.95004 5.81652 
143 1 14.6809 9.42781 3.02477 
144 1 -5.90134 3.35815 16.9175 
145 1 7.27126 5.15079 -1.64533 
146 1 -5.23722 10.7292 10.1071 
147 1 -5.8255 12.5703 -6.02261 
148 1 -0.795554 -6.19613 -11.3098 
149 1 8.408 -11.4159 -10.8965 
150 1 0.952942 14.4605 -11.8915 
151 1 7.92588 -3.95437 12.02 
152 1 0.683704 -1.05874 -19.0064 
153 1 -2.89222 8.68333 -6.10119 
154 1 10.6811 0.537756 -4.4373 
155 1 -10.9017 8.73864 -5.06749 
156 1 3.65268 -3.58105 -1.03637 
157 1 -8.55523 12.867 -0.141703 
158 1 7.74361 2.39127 -11.3812 
159 1 8.21744 -8.49955 4.83763 
160 1 -6.21379 3.89219 -8.20744 
161 1 -7.36778 12.7164 8.8726 
162 1 13.7739 8.6546 -8.39287 
163 1 -1.85034 3.35322 -1.49565 
164 1 5.37818 11.0261 -2.74175 
165 1 -4.81227 16.6404 1.37855 
166 1 10.0065 10.423 -1.6924 
167 1 -2.6409 9.74639 -2.75188 
168 1 0.912028 15.806 -9.20521 
169 1 3.06007 8.90078 -13.7114 
170 1 -13.6101 -10.6402 2.83468 
171 1 -15.6611 8.96939 -1.9307 
172 1 -5.32009 -3.08372 -12.66 
173 1 1.78328 -10.063 -15.0024 
174 1 10.6269 13.6053 8.82793 
175 1 0.318478 15.2848 7.42826 
176 1 -11.9152 -3.30271 -5.8475 
177 1 -13.1915 12.4429 1.96614 
178 1 16.0339 -0.95314 -3.4913 
179 1 -11.5859 1.68974 -16.1476 
180 1 6.68325 1.96872 15.8769 
181 1 4.69033 16.8348 3.33812 
182 1 -2.53905 9.31058 8.09777 
183 1 2.56249 -6.67365 -15.4859 
184 1 -4.40885 14.1238 9.92322 
185 1 -2.7449 12.448 -6.13955 
186 1 2.76702 -4.54819 12.1895 
187 1 -12.0907 -4.71659 3.91963 
188 1 -2.31207 -13.192 -13.0615 
189 1 -9.59813 11.178 -9.17115 
190 1 -3.87621 -10.9055 4.83376 
191 1 3.82416 -14.5178 -5.47122 
192 1 -4.31007 11.2944 -11.4672 
193 1 -15.7704 1.35491 9.0932 
194 1 1.57137 7.39869 -2.26395 
195 1 10.7721 9.32549 -4.56715 
196 1 -7.44194 5.65394 15.5026 
197 1 -0.60807 -10.088 9.55823 
198 1 -9.37716 4.27681 -0.877518 
199 1 1.71778 16.0992 4.04751 
200 1 -0.169771 7.10971 8.92518 
201 1 14.4648 4.91065 14.0014 
202 1 -6.54826 13.5773 3.85195 
203 1 13.4661 -6.33796 -9.04477 
204 1 -5.74302 12.6554 12.1198 
205 1 -4.41448 1.08233 -8.96785 
206 1 12.7586 -6.76263 2.75917 
207 1 -5.74816 -5.21668 4.87989 
208 1 -16.1007 0.0181508 5.63075 
209 1 -8.61117 -10.1986 4.08954 
210 1 6.55877 6.91091 15.3203 
211 1 -15.9983 -0.189515 -2.60177 
212 1 -1.75512 1.55553 1.65836 
213 1 -2.71765 -14.9203 -0.544332 
214 1 -1.70936 -1.69627 4.51987 
215 1 -5.31936 -1.5249 -3.2429 
216 1 4.99153 -7.85804 -2.3043 
217 1 -2.54203 10.3565 5.28891 
218 1 -7.44679 0.646942 3.40697 
219 1 5.09554 14.2189 12.3162 
220 1 -8.05415 -0.390918 -5.30211 
221 1 -7.12386 11.7685 -8.75421 
222 1 -14.2848 -4.73362 -6.9596 
223 1 -10.4128 -2.13753 11.5601 
224 1 -1.07539 -9.4685 4.2198 
225 1 3.43763 -14.1691 6.94105 
226 1 -14.5793 10.4625 4.59912 
227 1 15.7473 3.27747 4.39471 
228 1 6.14159 3.69867 -6.06739 
229 1 -6.02705 -6.61818 -14.8951 
230 1 4.83219 0.661576 10.6859 
231 1 -4.16431 -2.80894 2.38339 
232 1 5.83565 -16.3999 3.02399 
233 1 -2.1912 7.29646 -12.2005 
234 1 4.06837 -11.379 -13.5169 
235 1 9.42541 0.304288 -13.092 
236 1 2.91221 6.81337 -16.0319 
237 1 -6.88838 -4.23992 -8.26433 
238 1 -4.35881 15.1071 -7.56172 
239 1 -10.986 -10.585 10.4674 
240 1 8.12484 16.3818 -2.86118 
241 1 -9.10114 2.71812 15.663 
242 1 -7.28775 13.0798 -3.34921 
243 1 7.71823 1.8713 9.10403 
244 1 -3.48946 -5.58215 -12.9824 
245 1 -4.50133 10.1903 -8.01451 
246 1 2.04754 5.26655 -9.53933 
247 1 -8.23 -11.6971 8.48719 
248 1 -1.06162 4.58936 2.01002 
249 1 -9.26612 5.07669 7.45862 
250 1 -6.55359 7.22059 9.1502 
251 1 0.746993 -11.0071 -7.67066 
252 1 -5.57187 -15.1197 -0.27818 
253 1 9.80958 -11.8505 -2.79491 
254 1 -1.97871 1.89766 4.72664 
255 1 -4.61657 1.07456 1.59546 
256 1 2.21862 -6.81831 -1.78486 
257 1 12.5036 7.57039 14.0826 
258 1 6.15237 9.73008 -8.79294 
259 1 0.0278043 10.3923 -1.94027 
260 1 -10.58 0.647329 2.1054 
261 1 -12.7918 11.1654 -1.41806 
262 1 2.83601 6.41633 10.3438 
263 1 4.13267 -18.7841 1.02166 
264 1 13.2215 -0.0790536 -3.15321 
265 1 1.96342 8.05258 6.72183 
266 1 -10.2085 5.87912 4.33115 
267 1 -11.072 -6.60117 -4.24973 
268 1 6.64082 4.70408 -12.294 
269 1 3.88409 -2.45108 10.2731 
270 1 8.83965 9.93316 -10.0529 
271 1 2.59498 -9.91733 -3.26254 
272 1 -2.66629 -1.24371 -11.5338 
273 1 -0.144278 -19.1937 5.11886 
274 1 9.75791 -0.79257 -7.12855 
275 1 -10.9915 -2.49967 6.18539 
276 1 1.6091 -14.3138 -3.18508 
277 1 -9.46684 -5.69413 -9.44957 
278 1 4.73003 14.5737 -1.78024 
279 1 1.41205 -2.07407 -14.4404 
280 1 4.43809 3.96531 15.3327 
281 1 14.8875 2.89942 0.941323 
282 1 -4.14733 -7.03443 1.58889 
283 1 10.4241 -5.45781 -10.3335 
284 1 -1.54421 -7.01576 1.97125 
285 1 -7.95036 -2.73854 -10.8759 
286 1 -11.6144 1.1698 -9.4425 
287 1 -8.86549 -16.0831 10.281 
288 1 10.2083 0.714191 9.4236 
289 1 4.62819 -3.87579 8.11161 
290 1 -4.97266 -7.58042 -11.637 
291 1 2.21761 -6.09262 6.25866 
292 1 0.472941 6.72419 -13.186 
293 1 4.73311 8.73136 1.40094 
294 1 -7.15314 -7.57849 2.77972 
295 1 2.00302 11.7466 1.61808 
296 1 -7.65181 -3.59867 11.9677 
297 1 -9.42382 -8.68584 -9.11099 
298 1 -6.03517 -5.23159 -10.8585 
299 1 -2.78196 7.40456 -15.1272 
300 1 -5.21356 -9.11027 -6.42715 
301 1 -2.94042 -9.79118 1.79411 
302 1 -3.02511 -4.52423 -0.0718881 
303 1 8.70411 -4.8636 -14.8489 
304 1 15.0218 -0.625265 -10.2172 
305 1 0.54276 -3.96447 4.2493 
306 1 11.2284 3.80859 4.09324 
307 1 -3.79643 -4.48929 -3.09655 
308 1 -9.73645 -4.13134 9.12508 
309 1 -3.54429 -11.4836 -1.06588 
310 1 8.41357 4.87619 16.6478 
311 1 -7.12339 -15.789 2.34505 
312 1 2.5105 3.22164 -4.84246 
313 1 -0.927932 -11.9389 0.350557 
314 1 -2.41046 16.4074 -1.11671 
315 1 5.0523 -0.427529 -15.101 
316 1 -6.11864 -4.18325 -15.9205 
317 1 5.01586 -5.59915 0.143205 
318 1 -11.2514 -8.04708 12.0195 
319 1 4.41073 7.52655 19.5065 
320 1 1.58358 -11.6631 -0.492417 
321 1 -4.13153 -12.6672 -10.3221 
322 1 -10.3336 4.5706 -8.5574 
323 1 10.5471 5.63695 6.42796 
324 1 -6.17177 3.04164 -10.8854 
325 1 0.260523 7.42123 -10.352 
326 1 -4.08593 -2.69924 6.16476 
327 1 6.6636 -13.8977 -10.0873 
328 1 -5.40419 14.8283 -1.07569 
329 1 2.29536 11.576 5.21306 
330 1 11.1808 0.20958 5.24177 
331 1 -9.24276 0.124821 5.37239 
332 1 -3.21189 -6.23953 11.7624 
333 1 -6.52943 9.51104 3.9676 
334 1 2.35529 -4.97453 -12.2887 
335 1 15.5195 10.8091 -2.97643 
336 1 3.19243 -11.1178 2.13027 
337 1 -2.8306 -1.65052 15.2788 
338 1 -17.3148 -4.46138 6.84982 
339 1 1.06375 -17.1098 -5.22344 
340 1 -9.27317 7.90568 13.8652 
341 1 -10.3673 5.64664 12.96 
342 1 -15.2424 -3.71496 9.28049 
343 1 -15.0241 -6.51728 7.77744 
344 1 14.5712 -3.90028 -2.60859 
345 1 -12.3613 -8.19783 8.63951 
346 1 8.44447 -3.2452 -8.46477 
347 1 10.0663 -13.7049 -5.2782 
348 1 3.19837 17.5213 -3.40844 
349 1 -2.87772 -4.65454 4.28788 
350 1 -10.2852 13.0801 -3.12607 
351 1 0.592828 1.54778 6.80404 
352 1 11.3555 6.97433 10.961 
353 1 -10.1555 -1.84668 3.00366 
354 1 7.48022 -9.59474 -3.13999 
355 1 -3.82336 10.1278 2.30547 
356 1 -6.63666 5.90163 3.67227 
357 1 0.864352 2.60658 3.66026 
358 1 3.77043 -10.2656 7.68495 
359 1 13.176 -4.7369 5.1373 
360 1 -2.78655 5.8338 7.9068 
361 1 -6.75781 -3.02667 -5.58843 
362 1 4.41622 -1.931 2.65968 
363 1 -1.34535 1.71303 15.0821 
364 1 -3.81288 12.8954 4.40576 
365 1 9.63644 7.39882 15.4974 
366 1 -8.85653 13.7139 -6.28256 
367 1 0.571333 -3.98413 -16.7108 
368 1 -6.35886 2.35255 -5.57845 
369 1 6.66078 -9.45445 -12.7731 
370 1 -9.63657 2.62344 12.3523 
371 1 -14.5492 1.72273 3.2835 
372 1 -3.68413 -3.44205 -7.49363 
373 1 -6.37279 9.9485 0.136601 
374 1 9.70801 -2.0637 7.52822 
375 1 -10.5464 -11.7559 1.59646 
376 1 6.50735 -8.05104 7.58778 
377 1 -4.70114 3.08723 -0.700851 
378 1 -8.86597 -10.342 12.7874 
379 1 -14.2239 7.16039 -0.00388596 
380 1 -1.63124 -4.15676 10.0666 
381 1 2.65198 -12.1568 -5.93492 
382 1 -5.0755 -2.02527 -9.55301 
383 1 7.64847 -2.33276 -14.4201 
384 1 4.02698 13.7729 3.94564 
385 1 -11.1489 -1.04508 -3.53106 
386 1 4.48174 -7.76814 -10.9318 
387 1 8.9318 4.25043 -13.6012 
388 1 -4.86642 -15.4115 -6.20394 
389 1 -13.7934 -7.87021 -5.38221 
390 1 -3.29664 -7.93073 -1.1673 
391 1 11.9883 4.98358 16.268 
392 1 -2.05752 -2.14966 -1.8995 
393 1 12.4558 3.16556 -3.80341 
394 1 -8.97467 3.26218 -10.8754 
395 1 3.83572 17.0203 -0.0431623 
396 1 -15.0384 -1.61294 -5.69549 
397 1 3.26308 1.46942 2.0121 
398 1 -7.45812 7.52283 6.05065 
399 1 -8.36064 11.2634 2.23002 
400 1 -5.67315 5.33021 7.0715 
401 1 11.3268 4.80411 13.591 
402 1 11.9878 -2.36355 -5.68541 
403 1 8.2733 -3.30812 14.9555 
404 1 12.5221 0.956834 -6.89593 
405 1 -4.43294 -16.6682 -3.26431 
406 1 3.71704 3.18449 5.02457 
407 1 -4.01873 5.8816 -1.78107 
408 1 0.418028 -7.26314 -4.43784 
409 1 0.480861 9.60156 4.05029 
410 1 5.53565 2.80337 -3.02935 
411 1 -9.78719 1.84829 -5.029 
412 1 4.89779 -10.869 -0.721204 
413 1 12.4936 -0.386104 8.11623 
414 1 -9.4593 -4.0662 -5.87445 
415 1 -5.48355 -10.2746 1.20494 
416 1 -8.41794 -7.4774 13.7082 
417 1 -3.14681 11.3651 -0.502185 
418 1 -11.1908 -9.34609 -2.94659 
419 1 7.50181 9.98808 15.6514 
420 1 -10.9533 5.93984 -4.69035 
421 1 -0.0223449 12.6199 -8.94627 
422 1 5.66795 12.588 6.96241 
423 1 -14.0424 -7.97447 -1.77311 
424 1 -1.95811 -8.80306 -6.82561 
425 1 -13.7315 -0.312677 7.44291 
426 1 -13.6273 6.76509 -3.78714 
427 1 4.33885 -8.50735 5.17484 
428 1 -4.43114 -13.417 -2.93578 
429 1 12.4057 10.8949 8.32064 
430 1 5.72508 7.62658 -14.1285 
431 1 -13.3819 4.63581 -12.3958 
432 1 -1.54947 14.6512 -9.41567 
433 1 -8.58685 4.79269 -5.90312 
434 1 -2.05827 -12.9862 3.99091 
435 1 13.1053 6.68694 4.9056 
436 1 -0.0527121 7.48023 -15.8106 
437 1 -5.07848 0.779147 9.35982 
438 1 -16.1158 1.10767 0.530471 
439 1 2.48061 1.09235 -2.18466 
440 1 -7.71463 2.73579 5.88646 
441 1 -4.96578 -13.4995 4.86997 
442 1 1.63759 -4.82723 -6.69133 
443 1 6.83816 -9.11558 -9.79486 
444 1 -0.584405 -2.08583 7.47481 
445 1 -12.3578 0.178343 4.99594 
446 1 -15.3753 -0.963121 11.1992 
447 1 -15.1721 6.08206 6.35663 
448 1 -1.30926 -5.32334 7.14755 
449 1 -8.70116 2.25499 -16.4123 
450 1 8.08003 -10.3997 -5.6448 
451 1 1.65648 -10.4365 -11.4626 
452 1 -4.72246 -3.91916 10.2879 
453 1 3.75113 -6.33667 -4.65785 
454 1 -5.19813 2.93711 -15.6739 
455 1 6.01406 -13.1979 2.09515 
456 1 1.68109 11.7771 -5.97318 
457 1 -12.7726 9.30977 6.66766 
458 1 -5.70532 -2.65204 14.3365 
459 1 -11.0863 -6.33225 -11.9198 
460 1 -8.60179 -6.6282 6.93767 
461 1 10.0149 -5.35795 10.156 
462 1 6.26554 2.67513 0.231718 
463 1 -5.19148 3.02532 3.72487 
464 1 3.78151 -1.18639 -6.97787 
465 1 9.17621 -6.45778 6.75542 
466 1 0.100201 5.78174 0.240866 
467 1 14.7811 8.10615 -4.94178 
468 1 -2.25231 2.38614 11.2389 
469 1 2.4088 12.2088 -1.54441 
470 1 5.8794 -5.59758 5.92996 
471 1 -2.07395 -14.5172 -5.6815 
472 1 -3.91052 5.95802 16.4547 
473 1 -2.9786 15.7741 7.29578 
474 1 -7.70889 -10.7864 -7.18407 
475 1 9.29145 15.2611 1.11669 
476 1 5.04678 7.11027 8.40891 
477 1 -8.38129 1.64277 9.14119 
478 1 -5.44768 -7.91202 -3.49851 
479 1 -11.5106 4.13097 10.6873 
480 1 -7.79966 -6.59422 -6.51986 
481 1 -5.43519 10.2598 7.23696 
482 1 -4.86643 -12.3354 -7.02826 
483 1 -2.8041 -7.91221 -14.5044 
484 1 -7.25645 -12.8268 2.80895 
485 1 -6.53948 -2.39812 4.14723 
486 1 9.19111 2.51478 6.22604 
487 1 -5.60648 -5.61199 13.0389 
488 1 -10.1156 5.75165 -11.9512 
489 1 9.86808 4.66407 -0.610203 
490 1 -8.05212 -13.8398 -2.62052 
491 1 0.470458 3.71248 -7.06157 
492 1 0.349885 16.527 0.894403 
493 1 -1.19834 6.05093 -7.2658 
494 1 -1.72132 8.52608 11.0742 
495 1 -14.3215 -3.34488 -2.58171 
496 1 -0.305058 17.2031 -3.71936 
497 1 4.76245 11.2647 -5.95405 
498 1 -5.91805 -8.08326 -8.81641 
499 1 3.10392 2.23822 17.0754 
500 1 0.416451 -14.2304 -8.82424 
501 1 0.0668353 -3.30102 -11.3655 
502 1 8.44155 -14.4929 1.94529 
503 1 -12.4186 8.68449 3.35299 
504 1 3.29962 7.01367 13.9382 
505 1 8.19204 8.44937 -2.65374 
506 1 2.79244 9.6571 -0.654615 
507 1 -7.42746 8.89787 -10.2419 
508 1 3.85182 2.36853 -7.77115 
509 1 1.68848 -8.60497 3.72655 
510 1 -14.7583 -5.19155 -0.657394 
511 1 4.23015 3.50037 -0.544873 
512 1 2.72709 17.113 6.37553 
513 1 -4.36665 4.33171 -13.3096 
514 1 10.4303 7.71032 -1.36583 
515 1 6.34445 14.9197 -8.11492 
516 1 8.31787 -5.576 1.03168 
517 1 14.2103 2.55307 -1.80829 
518 1 0.0621257 -0.0668085 -12.0222 
519 1 0.528615 -8.93804 0.83743 
520 1 0.373462 -14.2038 5.67275 
521 1 2.12757 -9.33477 10.3322 
522 1 -8.71844 2.20354 -8.03014 
523 1 -10.0726 -13.1321 6.52362 
524 1 2.56944 4.36973 2.32684 
525 1 -0.959202 -11.7984 -10.4085 
526 1 8.3668 13.3358 6.52036 
527 1 1.60222 3.15588 -12.4762 
528 1 2.77018 -1.13794 15.292 
529 1 -14.5978 2.21454 11.8929 
530 1 -1.07478 -17.4212 0.18559 
531 1 -12.1591 -3.35925 0.607036 
532 1 13.8462 -4.91358 -6.52236 
533 1 11.6231 -2.26431 -2.29056 
534 1 -1.38041 3.9729 -4.5172 
535 1 -4.86416 7.79761 -3.83623 
536 1 1.55068 -8.34149 -6.4263 
537 1 4.28084 3.28584 -10.6397 
538 1 11.0785 -4.98103 -7.34449 
539 1 -6.54838 0.706552 15.0138 
540 1 5.64659 14.8457 1.47677 
541 1 -3.45788 -3.36371 -15.7083 
542 1 1.43978 -6.05977 1.3233 
543 1 6.49467 2.54417 -17.6779 
544 1 -7.34792 -3.76312 7.15981 
545 1 -3.104 13.9198 1.5804 
546 1 -8.03283 -1.4527 -13.7388 
547 1 -15.8813 -1.00053 2.6568 
548 1 -1.16495 -10.6575 -14.9294 
549 1 -6.17884 -10.774 10.7247 
550 1 -0.00548696 9.40322 -8.38261 
551 1 16.7169 3.73353 9.6805 
552 1 13.1708 5.2038 -0.94259 
553 1 -9.82774 -11.5619 -1.22958 
554 1 -0.617607 -9.64395 -2.1687 
555 1 -1.34367 -3.16921 -18.4528 
556 1 -8.07648 9.99026 8.3535 
557 1 2.94465 -3.13935 -9.13807 
558 1 2.92415 6.58444 0.273478 
559 1 12.753 -4.06647 -0.525851 
560 1 3.4068 13.5682 -7.48469 
561 1 3.75826 -8.34688 1.03264 
562 1 5.16004 -1.41349 -3.11143 
563 1 14.8542 5.32971 -9.64863 
564 1 4.6354 9.7621 14.0562 
565 1 -10.9421 2.25231 7.67584 
566 1 -6.36598 -3.99939 -0.945035 
567 1 6.20571 10.8351 10.5155 
568 1 8.28895 -0.917787 17.0438 
569 1 0.370635 1.4651 -14.8518 
570 1 -4.91015 -5.91249 -5.96994 
571 1 0.619139 -2.36175 11.5341 
572 1 7.55753 10.2194 7.86461 
573 1 6.9953 7.24259 -9.55258 
574 1 -7.21014 9.89151 -5.56534 
575 1 -0.607237 12.7414 -3.54805 
576 1 10.8433 -3.27988 13.1952 
577 1 10.8407 2.52675 -12.3857 
578 1 11.9069 -11.0226 -4.26883 
579 1 12.474 9.817 11.436 
580 1 -14.5989 -7.57508 1.43337 
581 1 -7.44225 11.8681 -11.6004 
582 1 -0.322564 0.404361 9.56753 
583 1 -13.6069 -0.19215 13.7564 
584 1 -4.33978 13.0205 -9.02312 
585 1 4.18666 -12.2008 -2.91496 
586 1 6.03895 -2.02141 -9.56704 
587 1 -2.55487 14.9311 -4.44594 
588 1 -8.16461 -4.71047 -13.4059 
589 1 3.51271 -15.0235 3.84258 
590 1 -11.851 -6.13258 -0.391341 
591 1 1.4004 11.759 -14.2435 
592 1 -6.45238 1.89123 -3.04399 
593 1 -1.27129 9.45464 14.4013 
594 1 -11.5744 -5.69261 6.79944 
595 1 5.20234 7.91829 -2.02115 
596 1 2.98882 -9.57791 -8.97278 
597 1 3.8309 -7.40486 12.415 
598 1 7.80703 0.540427 -4.68842 
599 1 0.445045 -0.511199 2.00932 
600 1 -11.0059 6.52463 1.20602 
601 1 5.2461 4.85018 18.2123 
602 1 5.58442 15.9115 -5.26987 
603 1 11.4829 -5.02276 -3.9008 
604 1 3.92948 8.79952 11.2477 
605 1 0.576243 4.45303 -17.8884 
606 1 -5.95567 -13.8839 9.86464 
607 1 -1.19112 1.69234 -8.98253 
608 1 8.44184 0.114608 -16.5427 
609 1 2.74178 14.2275 6.87137 
610 1 9.26684 4.55759 -10.0561 
611 1 -1.56707 -2.80942 -13.9391 
612 1 -2.96518 -10.3482 -4.32089 
613 1 -10.8171 -3.54503 -11.7774 
614 1 11.9977 2.50401 1.68055 
615 1 15.0863 4.93002 -4.04851 
616 1 7.70432 -6.19243 -8.25239 
617 1 14.2836 7.05582 11.339 
618 1 5.03841 -9.88816 -5.20238 
619 1 3.84603 3.62621 -17.3884 
620 1 7.68818 12.2343 2.06958 
621 1 -8.50888 3.64058 2.55838 
622 1 10.2052 10.2188 13.6346 
623 1 10.7699 6.25843 -3.61655 
624 1 15.7197 -0.2904 2.44128 
625 1 12.0286 4.26998 -8.98373 
626 1 9.17731 2.53891 13.8132 
627 1 16.8389 6.69199 11.7882 
628 1 1.70233 -3.81336 8.79521 
629 1 13.9656 13.0033 -2.82681 
630 1 6.22178 2.34895 3.37404 
631 1 1.95432 1.74667 14.5358 
632 1 15.7512 -0.744014 -6.96369 
633 1 9.42628 4.26018 11.2029 
634 1 -7.57819 -0.825839 -8.14362 
635 1 13.5185 5.39657 2.04685 
636 1 10.4632 -3.38101 1.52784 
637 1 -0.664984 -6.58592 -1.38738 
638 1 -11.9385 7.49662 10.9215 
639 1 9.45084 11.3977 10.7147 
640 1 11.2572 1.19809 12.0091 
641 1 3.27583 10.3369 8.19075 
642 1 0.479929 14.7194 12.4409 
643 1 5.97754 3.12959 6.60141 
644 1 -2.18588 -18.6105 2.84064 
645 1 -6.29577 10.3422 -2.82691 
646 1 11.1955 10.1047 -7.82188 
647 1 9.90429 -2.70886 -12.0313 
648 1 1.857 15.3503 -1.74254 
649 1 -1.83223 -12.2977 -7.71183 
650 1 10.5919 -6.99389 -13.3251 
651 1 -14.0644 2.49691 6.5709 
652 1 -5.3903 6.50485 -11.0845 
653 1 -4.09674 -15.8018 2.46254 
654 1 -5.27263 0.115913 -12.029 
655 1 -13.2698 0.905061 -4.32908 
656 1 10.0629 -5.9577 3.3906 
657 1 12.591 10.9227 3.48542 
658 1 0.693607 -8.39182 7.0476 
659 1 -13.1834 -1.6511 -8.13903 
660 1 0.726811 2.58524 0.147139 
661 1 2.93728 1.42038 -18.8264 
662 1 3.14597 -2.98868 5.83037 
663 1 -1.85022 4.36961 14.1858 
664 1 6.12014 8.90844 -11.6476 
665 1 13.4111 -0.817793 13.2388 
666 1 8.81792 5.24739 -7.3418 
667 1 5.15959 0.218243 -0.387171 
668 1 12.1252 13.7575 2.28714 
669 1 4.212 -14.4757 -8.48408 
670 1 -11.3122 -2.50316 14.9272 
671 1 13.1969 -1.96302 4.66631 
672 1 -0.486887 11.497 12.5808 
673 1 6.34475 12.3659 -10.3387 
674 1 -13.3348 10.2266 -3.93023 
675 1 9.64091 9.83096 2.95591 
676 1 -9.04968 -14.209 0.359255 
677 1 13.9685 -3.38821 2.09112 
678 1 7.78024 15.5754 3.5594 
679 1 -4.69911 4.18331 9.69303 
680 1 -10.2168 -6.48691 2.00231 
681 1 -9.74066 -2.35927 -8.79612 
682 1 7.83199 -0.0723053 12.2036 
683 1 -3.52799 -9.08399 10.2771 
684 1 8.56949 5.57236 12.9539 
685 1 -5.44165 12.6715 0.889745 
686 1 8.42486 4.32381 1.90289 
687 1 5.97186 -2.80506 -0.230481 
688 1 7.97507 5.05351 4.63662 
689 1 2.47513 -0.589041 -16.3796 
690 1 -9.18181 -1.09002 8.83312 
691 1 8.80406 -0.560492 -10.1981 
692 1 -1.68194 -5.74922 -6.14808 
693 1 10.8809 -10.1767 -7.28098 
694 1 8.0962 4.81611 8.2475 
695 1 4.93297 5.92533 5.12937 
696 1 -10.3562 0.428545 14.3569 
697 1 10.3291 9.12281 8.85088 
698 1 0.314978 -3.2979 14.4247 
699 1 -1.58676 5.52232 11.0243 
700 1 -0.0354148 -5.57777 -14.1193 
701 1 -6.27864 2.07619 12.0378 
702 1 -4.6001 4.77893 -4.40231 
703 1 6.54536 2.99932 12.6749 
704 1 -10.6565 -16.4816 7.43475 
705 1 12.8563 8.23995 -2.64131 
706 1 6.43573 -12.3857 -4.4172 
707 1 -3.37448 4.15107 -7.19409 
708 1 7.61536 9.80112 -0.0569476 
709 1 9.69538 12.971 3.67741 
710 1 5.91061 -0.371856 -18.4822 
711 1 -2.9069 -0.119811 7.09506 
712 1 2.75127 13.9591 -4.49678 
713 1 12.7067 8.15404 0.488775 
714 1 -0.323209 -4.30938 -3.60493 
715 1 -6.40183 -9.5865 -1.34184 
716 1 -1.2314 -0.742469 -16.4882 
717 1 -10.8655 10.4562 0.839477 
718 1 7.91114 -6.94222 -11.6892 
719 1 5.32653 5.35811 2.04641 
720 1 10.6961 7.17485 -9.27762 
721 1 9.97135 13.4469 -2.85501 
722 1 -2.57679 5.25242 4.78863 
723 1 -6.6862 5.40463 0.255972 
724 1 6.89326 6.13301 -4.75029 
725 1 12.5375 2.17063 14.4205 
726 1 10.5121 -0.349489 14.6901 
727 1 -2.39006 -12.4241 9.39643 
728 1 -5.12133 9.39531 -13.9096 
729 1 4.52337 13.3326 9.78818 
730 1 7.74196 -7.63609 -14.8737 
731 1 2.78152 2.0279 8.27248 
732 1 8.34772 14.2659 -5.18752 
733 1 7.53351 10.5932 5.15507 
734 1 -6.36417 -0.467735 -0.901409 
735 1 14.3971 -6.53463 -3.67664 
736 1 7.50802 7.50158 17.9392 
737 1 -13.9845 -3.24274 5.75214 
738 1 3.63052 -16.4679 -1.48953 
739 1 0.593131 -1.02071 -8.70104 
740 1 -9.99665 13.5902 2.51088 
741 1 0.254907 4.74182 6.90402 
742 1 6.24159 -4.4416 -3.2394 
743 1 4.8095 11.3147 3.41777 
744 1 -13.3086 -1.91901 3.45351 
745 1 -1.49875 4.18168 17.2797 
746 1 -5.66271 6.40066 -15.6971 
747 1 -7.66229 7.46865 -13.4524 
748 1 3.60916 -13.9765 0.549866 
749 1 8.68904 8.40281 -6.98914 
750 1 3.14767 -5.72312 3.44634 
751 1 -2.01655 7.49836 2.56029 
752 1 -13.9373 5.61708 12.2103 
753 1 4.35381 -2.33236 -12.1007 
754 1 1.23677 -12.648 8.43374 
755 1 2.61892 14.4039 1.24106 
756 1 -4.23857 1.33191 14.5187 
757 1 -2.38128 -1.3228 0.71622 
758 1 -8.05243 -7.4088 -11.8278 
759 1 -3.86298 -10.344 -12.7033 
760 1 -6.84627 -13.6593 -8.74096 
761 1 -0.974346 17.0927 -6.81178 
762 1 5.26111 -4.34863 -7.05209 
763 1 2.54392 -1.4266 0.144502 
764 1 -2.21766 12.7644 7.71322 
765 1 5.04258 -11.7301 -7.43318 
766 1 6.12188 -16.2038 0.183746 
767 1 3.68824 -7.01961 8.52836 
768 1 14.4693 2.12779 -8.33975 
769 1 0.621232 -14.1411 -5.86702 
770 1 -12.4002 -2.97086 8.78443 
771 1 1.29919 0.907039 -6.66839 
772 1 -4.92043 -18.0597 0.242229 
773 1 -6.14428 -11.2022 -4.26232 
774 1 1.1772 -2.11439 -3.12085 
775 1 -11.4729 0.831209 10.8262 
776 1 -6.90585 -18.2639 3.16549 
777 1 14.2971 5.02785 -6.61827 
778 1 -4.64432 16.0566 4.3404 
779 1 -4.27025 2.70825 6.7243 
780 1 -15.3294 6.75046 3.02696 
781 1 11.7576 -0.802502 2.14282 
782 1 -12.7807 -1.28501 -11.2946 
783 1 -0.359683 9.0877 -4.71645 
784 1 10.285 1.91397 -8.69105 
785 1 7.71905 12.3329 13.355 
786 1 1.32095 -0.918791 4.65802 
787 1 8.95585 3.49286 -4.19976 
788 1 -14.1139 1.21307 -7.61764 
789 1 -11.5249 -6.29251 -7.24236 
790 1 -0.596074 6.98114 17.1946 
791 1 4.40029 6.22254 -10.5811 
792 1 12.0331 13.0659 6.06768 
793 1 -2.79254 -1.356 10.1558 
794 1 -1.03607 -16.2288 -3.23884 
795 1 -8.48992 -18.2106 6.95013 
796 1 -3.92338 -5.34351 7.84062 
797 1 15.2943 9.22981 9.36157 
798 1 2.27767 -6.67492 -9.45379 
799 1 -8.72906 7.68094 -1.06368 
800 1 6.60232 8.12578 3.66169 
801 1 -8.94127 -4.55065 4.05415 
802 1 8.68895 7.26265 -12.209 
803 1 -2.73233 -17.6358 -5.5773 
804 1 0.929351 -19.0166 1.79801 
805 1 0.39248 -15.1813 -0.10098 
806 1 6.16706 4.17368 -8.88415 
807 1 7.0773 17.5858 0.596424 
808 1 -2.77315 0.884141 -14.2406 
809 1 -0.857011 0.210733 12.2712 
810 1 1.58634 4.459 -14.9005 
811 1 -11.5106 -0.899021 -14.1486 
812 1 -11.5355 -3.69017 -2.40903 
813 1 2.25155 16.8672 -6.10703 
814 1 8.88376 -1.13899 -0.386112 
815 1 -3.25434 -5.92768 -17.3718 
816 1 -6.58007 -6.92193 -0.441912 
817 1 11.9952 7.09054 -6.44803 
818 1 11.3812 -6.79737 0.362321 
819 1 -6.67757 6.14279 12.571 
820 1 6.05159 -9.90411 2.53837 
821 1 14.7292 -6.40518 -0.168327 
822 1 13.2916 -3.3587 11.1221 
823 1 0.278224 10.4768 7.24238 
824 1 -12.2228 2.95641 13.5911 
825 1 -8.18944 4.57121 10.6455 
826 1 -3.90718 -13.6387 7.31935 
827 1 9.21128 1.4409 1.53642 
828 1 6.98322 8.92077 12.9035 
829 1 -16.2321 -2.44714 -0.0960659 
830 1 8.20117 -6.65069 -2.431 
831 1 1.11221 4.38622 -2.38708 
832 1 -11.7718 12.0364 -5.38789 
833 1 3.04623 7.88813 3.25878 
834 1 0.840981 -16.9041 6.27742 
835 1 4.95345 0.688116 13.4753 
836 1 -0.593026 12.6543 4.96506 
837 1 1.54968 -11.2208 5.5146 
838 1 -8.34018 -2.51447 -2.91422 
839 1 3.42001 3.18996 11.7074 
840 1 -15.4753 -6.04297 -3.94441 
841 1 1.91929 11.321 15.4347 
842 1 4.84582 12.1646 0.283886 
843 1 -11.5826 -10.5944 4.91446 
844 1 -5.1698 -16.9158 5.55552 
845 1 7.60376 -4.31167 8.6186 
846 1 12.1316 -4.95821 8.01247 
847 1 7.8539 7.33658 6.70673 
848 1 -1.6357 6.95372 -3.13741 
849 1 -0.312388 -8.59968 -9.43577 
850 1 -2.86858 2.15991 -11.7875 
851 1 -4.36584 -0.655351 12.2354 
852 1 -1.65457 15.5453 3.4855 
853 1 13.7421 1.40119 3.85855 
854 1 2.86892 8.78348 -6.61224 
855 1 -3.75499 7.267 13.322 
856 1 8.05846 7.57721 10.2206 
857 1 7.23795 -3.49331 -11.8007 
858 1 -6.68676 -12.5951 -0.426642 
859 1 -4.94282 -0.595769 -6.60848 
860 1 14.6021 0.438174 6.72073 
861 1 4.00657 -0.1921 -9.81578 
862 1 1.62219 8.03335 15.7292 
863 1 8.0945 -12.6274 -7.63999 
864 1 5.92233 4.99592 -15.5226 
865 1 -2.57727 -7.19686 -4.05214 
866 1 12.0911 5.35516 -11.8673 
867 1 15.9441 -3.00308 -0.126726 
868 1 0.21468 -6.11227 12.2039 
869 1 -0.97407 -8.90783 -12.4562 
870 1 -0.0874283 -0.182014 -0.918973 
871 1 7.42406 12.944 -0.741975 
872 1 -0.417912 -6.69454 4.64746 
873 1 -12.8566 4.8839 3.74646 
874 1 11.1654 3.81415 -6.21196 
875 1 16.0752 6.48075 3.30454 
876 1 3.90386 -3.69317 -14.874 
877 1 -7.83142 11.3068 5.60889 
878 1 15.9707 8.36444 6.00008 
879 1 11.1108 12.408 -5.46535 
880 1 3.62379 1.67545 -14.1041 
881 1 9.69424 -4.28889 -1.4462 
882 1 -12.0171 1.58448 -1.31202 
883 1 10.6329 6.89307 3.13173 
884 1 -11.8733 -9.0917 0.242423 
885 1 -12.3554 9.18902 -7.41717 
886 1 5.00407 3.82762 9.79405 
887 1 -10.8629 -0.407653 -6.42864 
888 1 -12.1257 5.00701 7.09559 
889 1 -3.55953 4.78071 -10.1968 
890 1 10.1614 -7.83817 -8.6508 
891 1 -10.4161 -8.84274 -6.40716 
892 1 11.4672 -8.23005 -3.13754 
893 1 -14.9831 4.14408 1.0853 
894 1 -7.29463 -5.35331 -3.3683 
895 1 13.0212 7.81164 8.11824 
896 1 -6.02907 -8.60352 5.7827 
897 1 10.0326 2.15866 16.5495 
898 1 14.3391 -2.78052 7.80812 
899 1 9.50249 -2.53602 4.17068 
900 1 -11.7185 3.351 1.47123 
901 1 1.15558 9.46279 10.1634 
902 1 3.28287 8.5556 -10.0108 
903 1 -0.398219 -7.54797 -16.2201 
904 1 -5.16246 13.5635 6.76697 
905 1 -12.7775 -11.2623 7.52834 
906 1 8.65165 11.0958 -5.19416 
907 1 1.61435 8.94356 13.116 
908 1 16.2989 -3.73051 -5.24352 
909 1 6.31172 -6.44426 10.6047 
910 1 -0.916206 12.279 -12.2948 
911 1 3.06633 10.8517 -8.68023 
912 1 0.124348 -3.38865 -0.426325 
913 1 -6.65335 -1.70624 9.82617 
914 1 15.7606 5.59743 6.34032 
915 1 -2.86894 -3.74409 -10.7527 
916 1 13.3147 10.9614 -0.151293 
917 1 -14.7638 2.82313 -1.99026 
918 1 -4.3213 -10.8121 7.78118 
919 1 4.21368 15.0365 -10.6275 
920 1 6.93942 -1.8557 9.90676 
921 1 -1.08473 -13.1044 -2.41288 