ITEM: TIMESTEP
697000
ITEM: NUMBER OF ATOMS
2000
ITEM: BOX BOUNDS pp pp pp
-30.0 30.0
-30.0 30.0
-30.0 30.0
ITEM: ATOMS id type x y z Coordination
1 1 -11.772 4.99805 -12.1785 15
2 1 -11.488 -8.21546 -9.28042 14
3 1 1.69619 11.0196 11.536 21
4 1 4.28824 -12.2759 9.37209 12
5 1 -10.2367 5.75646 -3.41321 20
6 1 6.49062 -8.56786 -12.1273 20
7 1 -14.6378 4.7294 -5.38241 11
8 1 0.947343 -1.86538 9.64156 20
9 1 -8.64398 0.666033 -10.0765 18
10 1 -12.6489 -10.405 9.10817 12
11 1 14.2817 8.9287 -5.06465 11
12 1 -3.54137 0.772148 -4.38343 21
13 1 0.521721 -11.2911 0.115328 21
14 1 -16.1915 -10.0101 3.53574 12
15 1 -1.81378 4.2172 17.9983 13
16 1 8.42152 -5.11954 6.92388 20
17 1 1.4358 3.11376 8.80308 18
18 1 8.23783 -1.50243 2.09822 19
19 1 -0.496496 5.35271 -14.142 19
20 1 2.98955 0.767495 10.5389 22
21 1 -8.32016 -1.71162 -15.3938 14
22 1 -12.1919 -2.81898 12.2216 16
23 1 13.3692 3.4737 7.28261 21
24 1 4.5213 6.92213 -17.7281 13
25 1 6.43869 6.28718 -10.404 23
26 1 10.9919 1.13574 6.93296 24
27 1 -6.43367 1.99633 2.1622 20
28 1 -12.5022 6.49344 -9.67211 11
29 1 -2.74261 -2.73564 -8.48947 21
30 1 -10.0541 5.64886 8.31529 22
31 1 6.97449 -13.5903 5.9634 14
32 1 4.0744 -2.13181 9.50233 22
33 1 2.63695 -15.3727 -9.86374 12
34 1 7.71446 -9.49296 -0.857049 21
35 1 -7.12784 -12.9856 -5.03668 16
36 1 -10.9073 -5.05175 14.4092 10
37 1 4.00003 -3.71828 -5.8164 18
38 1 -1.86002 -7.01686 -13.6275 20
39 1 6.3462 -10.5335 -14.8006 12
40 1 0.560296 2.83422 -16.2912 19
41 1 -2.94836 6.67901 10.396 20
42 1 1.25158 -12.5133 10.6378 14
43 1 4.45232 -4.39001 13.6893 17
44 1 -9.02879 -0.0351838 1.46978 21
45 1 -14.7351 -1.78909 7.69415 15
46 1 -7.58526 1.62969 -0.878652 21
47 1 -2.59282 11.9286 -3.4242 22
48 1 -5.56481 -14.1094 -9.92355 12
49 1 0.521764 0.482843 -11.2511 20
50 1 4.6542 -4.57827 -11.1696 21
51 1 -0.929344 -6.59313 13.4674 14
52 1 -9.30178 5.54427 0.133621 19
53 1 -1.21237 13.002 -9.8444 16
54 1 -0.0253006 16.5144 7.63795 12
55 1 -5.4401 5.25733 -10.9343 19
56 1 0.421457 11.3319 0.060229 21
57 1 1.39136 -15.7683 -3.37641 14
58 1 8.79225 -5.1114 -8.55089 19
59 1 3.76817 -9.1408 -16.9733 11
60 1 -9.28947 10.8171 12.4102 11
61 1 -13.4682 -5.66196 -10.4694 11
62 1 10.1471 4.24504 8.07474 22
63 1 -8.70122 10.7164 -4.20702 19
64 1 -9.56907 -10.657 7.5202 20
65 1 -5.00887 12.0514 9.47293 14
66 1 -11.3702 3.02625 -4.81434 22
67 1 -8.70325 8.07295 13.952 12
68 1 -0.400924 5.47283 -5.50173 19
69 1 2.1287 5.61518 0.723047 21
70 1 -7.89758 -10.4427 4.93119 20
71 1 2.5196 0.24266 7.33573 23
72 1 4.89579 -14.6039 -7.40207 18
73 1 5.02787 13.3628 13.9738 10
74 1 -11.2867 3.05104 -10.3017 18
75 1 -4.92476 8.15996 -12.2497 19
76 1 3.90699 5.91445 12.6602 20
77 1 10.7177 -9.72512 -6.85072 15
78 1 7.50513 -9.43864 4.10648 22
79 1 -15.4852 -2.05286 4.12458 13
80 1 -6.78045 -2.87625 2.21067 21
81 1 5.20746 16.2114 6.54419 16
82 1 4.66981 0.535241 12.7506 19
83 1 -5.00759 -13.7389 5.97124 20
84 1 -10.8191 -2.30959 -4.61939e-04 23
85 1 17.5239 3.87644 9.06682 9
86 1 8.66701 -2.18959 -4.12127 21
87 1 -1.08751 14.5745 5.67659 18
88 1 5.0481 -4.6399 7.16861 19
89 1 -4.27774 -6.70464 4.45199 21
90 1 -3.21081 -6.77386 -8.25165 21
91 1 -5.99668 6.95729 11.2882 23
92 1 -11.1291 12.9308 -4.52774 12
93 1 -3.19266 7.53247 -9.80862 24
94 1 5.95613 -1.56306 -3.18415 20
95 1 5.53396 0.828468 -8.38232 20
96 1 6.75878 11.4986 -10.2125 18
97 1 8.16535 -5.66737 4.14261 22
98 1 6.51691 -10.5806 11.2732 11
99 1 -2.53566 12.5624 -6.96003 20
100 1 -15.3269 8.36024 1.84479 10
101 1 -8.85391 -2.73954 11.6217 19
102 1 -2.9243 9.69166 8.38138 23
103 1 -3.72036 -9.05562 8.95411 21
104 1 7.12157 -4.47744 -5.61106 21
105 1 -8.2713 7.55666 3.95508 20
106 1 -12.9719 -12.3791 3.3773 12
107 1 10.0773 -8.27665 -9.63833 18
108 1 4.38904 -1.69581 -11.0716 19
109 1 -4.90369 -2.31992 -14.7995 19
110 1 5.62544 -0.224869 7.09908 21
111 1 -2.15065 9.44665 1.69481 19
112 1 -9.7592 6.12621 -14.4951 14
113 1 2.29735 11.4024 14.7098 15
114 1 1.21022 11.4185 -2.78538 18
115 1 -13.9593 11.0404 1.95976 12
116 1 3.9245 11.5312 -0.835305 18
117 1 -0.610448 -0.869059 -3.71939 18
118 1 -1.64019 -7.07628 10.6617 22
119 1 13.0988 -0.710708 9.20275 14
120 1 -0.415746 -5.00324 -7.88766 21
121 1 5.44952 -5.63262 -8.05437 20
122 1 -2.92141 -0.931043 6.18022 19
123 1 3.61329 -1.74907 15.0961 16
124 1 -10.0962 -9.85456 -0.745825 21
125 1 6.10023 -4.76869 1.59756 20
126 1 -9.21665 -8.40225 -3.2096 22
127 1 9.91704 -11.8371 0.852244 13
128 1 -5.22868 6.6487 4.54794 20
129 1 5.96703 8.97794 -15.9609 10
130 1 4.9039 18.4836 -1.81749 15
131 1 -9.15385 -10.8229 12.086 12
132 1 -8.65616 -7.70903 6.09292 21
133 1 -0.956508 3.8103 2.23013 19
134 1 -0.266808 -10.7257 -15.7975 14
135 1 3.05507 3.42132 -4.77872 19
136 1 9.07812 -9.13039 -4.12446 19
137 1 -3.50359 -16.7349 8.22292 8
138 1 -10.67 -6.92735 -0.533941 21
139 1 16.1108 6.56089 9.23881 11
140 1 8.53198 0.324973 -13.7856 17
141 1 -16.165 -8.68435 0.614991 12
142 1 9.94626 8.93569 5.68273 21
143 1 14.1839 7.84376 0.695395 11
144 1 -4.95411 4.1428 16.4815 16
145 1 5.73235 6.28088 0.108629 19
146 1 -1.21286 11.3605 10.119 18
147 1 -5.26561 12.3073 -5.37582 20
148 1 -1.40919 -7.82074 -10.8501 23
149 1 7.13706 -12.2695 -11.6131 19
150 1 1.53855 7.59287 -13.0161 21
151 1 7.60321 -5.2712 13.7342 14
152 1 1.66393 -4.08671 -17.266 12
153 1 -2.38499 7.46084 -6.65779 22
154 1 11.1544 1.22579 -2.88066 20
155 1 -5.41052 7.84192 -6.97843 16
156 1 4.42057 -2.29437 -0.391364 20
157 1 -11.6391 13.748 -1.11495 12
158 1 6.36699 -1.61124 -13.745 21
159 1 6.49699 -7.20443 6.51606 20
160 1 -4.18475 5.06728 -7.44799 22
161 1 -3.27664 12.3478 6.58853 20
162 1 10.3243 6.87037 -7.87441 22
163 1 1.51738 1.159 -2.79095 21
164 1 7.4009 14.4642 -10.1922 14
165 1 -6.23116 14.8936 -0.466037 14
166 1 10.7457 9.42057 0.53327 21
167 1 -7.58892 10.1404 -7.33866 21
168 1 -5.18946 14.624 -7.24271 15
169 1 2.62568 9.17365 -15.6885 13
170 1 -14.4016 -11.4708 1.0684 11
171 1 -13.767 8.9913 4.45561 15
172 1 -8.63467 -3.08924 -10.216 20
173 1 -1.62556 -13.1211 -13.6609 12
174 1 9.17563 12.6868 9.18417 16
175 1 1.28596 17.1703 4.8534 19
176 1 -9.87019 -1.05452 -7.54652 23
177 1 -14.1504 9.36564 -1.14345 12
178 1 15.6931 -1.45129 -1.59622 11
179 1 -9.25014 0.824823 -13.5974 19
180 1 4.54371 3.14448 17.472 16
181 1 4.79029 18.5558 4.06301 14
182 1 1.43054 5.88974 7.33065 22
183 1 0.43875 -7.91886 -17.7026 10
184 1 -8.01645 11.9075 7.88178 16
185 1 -3.22627 14.8509 -1.92844 15
186 1 1.1839 -4.22392 14.4939 15
187 1 -8.47144 -5.00471 0.425822 20
188 1 -4.5287 -12.1175 -12.324 15
189 1 -9.67817 8.50368 -8.9857 19
190 1 0.639708 -9.15879 5.50303 22
191 1 2.08833 -16.3842 -6.84049 10
192 1 -2.52928 15.4606 -8.56186 12
193 1 -12.4604 -0.0194335 8.70643 18
194 1 4.30464 8.29937 -2.23401 19
195 1 6.89567 11.0431 -7.41613 22
196 1 -8.25585 5.28025 15.7308 12
197 1 0.224541 -9.17897 11.4998 16
198 1 -6.0476 4.49488 0.22625 21
199 1 2.01726 19.9579 3.98394 10
200 1 4.60388 2.6885 7.6639 23
201 1 10.1379 5.07314 17.4562 12
202 1 -6.92158 15.2434 2.83744 11
203 1 12.0648 -8.23605 -4.05573 16
204 1 -7.5708 12.4495 10.9475 11
205 1 -4.50267 0.737848 -7.88725 21
206 1 8.74583 -7.91717 1.82208 20
207 1 -3.32575 -6.14782 7.61508 22
208 1 -15.1622 0.517587 1.85866 15
209 1 -10.925 -12.543 1.14568 14
210 1 2.84796 5.6776 15.65 24
211 1 -13.8292 -1.62033 -0.84444 18
212 1 -0.440912 0.678829 1.48256 19
213 1 -4.78995 -16.1304 -1.58006 14
214 1 -1.77016 -1.47789 3.59598 20
215 1 -6.25743 -3.56563 -3.59735 22
216 1 6.91445 -7.75836 -3.68737 20
217 1 -2.9799 9.38668 4.99613 20
218 1 -7.98445 -0.419595 4.4598 22
219 1 6.70257 12.3955 11.2831 17
220 1 -8.50709 2.06082 -3.9727 23
221 1 -6.44839 7.85737 -9.89001 20
222 1 -12.6443 -2.11279 -6.35122 24
223 1 -4.81206 -5.8694 9.87471 21
224 1 -0.463486 -9.22615 2.63488 24
225 1 2.10448 -11.5865 4.19123 23
226 1 -10.9188 9.34493 -5.88219 15
227 1 16.9888 2.03999 6.79919 13
228 1 7.39853 7.40279 -2.93599 22
229 1 -8.44488 -6.65026 -13.7041 14
230 1 7.0718 -3.07099 4.9815 21
231 1 -3.59148 -3.5685 2.55189 23
232 1 3.51461 -12.8824 6.51737 20
233 1 -4.31953 9.32557 -14.647 12
234 1 1.47648 -12.6197 -13.7433 12
235 1 7.67705 3.95497 -13.3253 18
236 1 2.01681 4.71295 -18.7158 13
237 1 -7.62811 -3.32232 -6.6398 24
238 1 1.96443 9.4814 -9.16549 21
239 1 -9.81671 -7.67415 12.9411 13
240 1 6.26845 17.5762 1.09079 15
241 1 -10.7812 2.74278 12.9504 14
242 1 -6.0244 15.2314 -4.08081 13
243 1 6.3416 0.53555 10.0069 21
244 1 -6.57076 -4.22788 -12.5309 19
245 1 0.65782 12.3605 -7.81041 22
246 1 2.98305 2.6482 -10.2341 19
247 1 -12.0487 -9.62735 1.42047 18
248 1 2.12334 2.7668 2.59513 21
249 1 -10.931 8.04127 5.6584 21
250 1 -5.90218 9.64274 6.27879 20
251 1 4.31735 -10.1246 -1.07417 20
252 1 -3.37139 -16.2146 0.868363 17
253 1 9.8712 -12.2237 -5.15149 14
254 1 -0.890466 4.004 5.39421 20
255 1 -4.93191 -0.385317 3.46006 22
256 1 1.125 -4.62138 -4.91116 21
257 1 8.44988 7.26754 15.9697 16
258 1 7.36621 7.84679 -7.61872 21
259 1 -0.437468 13.9928 -1.53966 19
260 1 -8.49854 2.58944 4.40871 22
261 1 -8.57938 7.75184 -5.62474 21
262 1 1.98165 3.61582 12.1842 20
263 1 2.16187 -14.7886 2.50617 17
264 1 13.1073 -0.427904 -0.896517 22
265 1 3.40574 8.65291 7.3261 18
266 1 -9.34104 13.6232 4.01591 14
267 1 -10.9738 0.478058 -5.05383 21
268 1 3.06891 10.125 -12.377 18
269 1 -0.863631 -1.66192 12.0496 20
270 1 4.54103 13.4555 -12.3283 12
271 1 9.32335 -14.0518 -10.8016 8
272 1 -4.04711 -2.18686 -11.6398 20
273 1 -2.14108 -14.1967 5.84595 22
274 1 6.96454 -0.749587 -6.21058 18
275 1 -6.59723 -5.28424 7.02241 24
276 1 4.33541 -15.1181 -4.14981 18
277 1 -11.05 -3.47946 -9.09203 22
278 1 3.91717 15.6208 -0.748198 23
279 1 -1.24301 -1.91143 -12.1695 22
280 1 1.55838 3.33374 17.8663 16
281 1 14.3951 1.66258 2.25761 19
282 1 -1.45458 -6.08379 3.43441 21
283 1 12.5884 -5.80425 -9.96182 12
284 1 -0.324 -3.7668 1.28632 20
285 1 -13.8041 -2.2903 -9.6504 16
286 1 -9.61647 2.3801 -7.46576 22
287 1 -7.77737 -13.4358 10.6221 11
288 1 9.65834 -0.387434 9.47014 22
289 1 7.01291 -5.5331 9.67063 23
290 1 0.533646 -8.84839 -13.718 20
291 1 2.15316 -4.14181 7.38827 20
292 1 -0.0133211 7.69247 -10.6069 23
293 1 4.19974 8.4905 0.847407 22
294 1 -7.75145 -5.33717 4.08867 23
295 1 1.8489 14.0138 0.487483 20
296 1 -5.33551 -3.7831 15.2737 14
297 1 -10.168 -7.79607 -6.24566 20
298 1 -6.08886 -7.50272 -7.5526 22
299 1 2.83902 5.21186 -15.1516 21
300 1 -7.00115 -11.4249 -10.5414 14
301 1 -5.59841 -10.4681 1.13016 20
302 1 -2.55551 -6.01248 0.182261 21
303 1 6.57192 -7.63345 -15.5429 16
304 1 10.5375 -4.39534 -11.9352 17
305 1 5.61155 -7.47993 2.22757 20
306 1 12.2275 2.63609 4.47271 22
307 1 -3.6749 -5.57445 -2.83325 20
308 1 -9.86977 -5.39145 8.2599 25
309 1 -5.05964 -13.3955 0.391468 21
310 1 6.87867 5.35741 18.4516 14
311 1 -8.04705 -13.5066 6.72077 21
312 1 5.42697 -2.36235 -8.75377 20
313 1 -3.52564 -13.4938 3.12946 22
314 1 -1.24692 16.6724 0.0701898 15
315 1 9.21019 -2.67075 -14.191 16
316 1 -6.76093 -4.62493 -15.5668 14
317 1 3.9601 -6.43791 -0.538577 18
318 1 -11.2203 -5.40508 11.1899 19
319 1 2.73447 8.96714 16.6457 18
320 1 4.82835 -11.8836 -5.8673 22
321 1 2.62549 -12.7244 -8.44246 22
322 1 -11.0473 2.90968 -14.1919 13
323 1 6.62728 4.72127 8.23079 23
324 1 -6.61602 2.99176 -8.86135 18
325 1 -2.19017 5.70775 -11.7902 21
326 1 -2.746 -3.99006 5.54619 22
327 1 5.70495 -14.8476 -10.5613 13
328 1 -8.71602 13.5786 -2.51757 16
329 1 2.01613 11.3623 5.61879 20
330 1 12.572 -0.660998 4.01375 24
331 1 -10.3411 0.497597 7.16411 20
332 1 -5.54272 -8.80092 6.54498 22
333 1 -5.68334 9.42129 2.85977 20
334 1 1.72997 -2.64568 -11.9788 19
335 1 11.9224 9.96293 -9.77845 13
336 1 0.925452 -10.6574 -3.35984 19
337 1 -3.79684 -1.14561 12.8027 23
338 1 -14.7788 -3.93725 1.49644 15
339 1 0.217105 -13.1883 -1.90576 20
340 1 -7.26343 5.36625 9.38127 21
341 1 -9.69251 2.65338 10.3459 20
342 1 -14.5763 -0.916002 10.6916 12
343 1 -14.4846 -7.57045 6.17703 14
344 1 14.0652 -3.69739 -1.40595 19
345 1 -10.1066 -8.30308 10.0656 22
346 1 10.3976 -3.83342 -6.03844 21
347 1 11.6607 -6.87942 -6.98546 19
348 1 5.75977 17.7154 -4.98949 14
349 1 -0.222995 -6.13275 6.35609 22
350 1 -10.1275 11.576 -7.48779 15
351 1 0.424937 0.759098 4.69498 20
352 1 10.5299 4.90264 11.1918 21
353 1 -8.48596 -3.00516 6.29552 19
354 1 4.95975 -8.47784 -6.47296 19
355 1 -3.17394 12.1875 -0.0683877 21
356 1 -10.8495 4.91389 3.67734 22
357 1 2.48033 3.26209 5.77047 21
358 1 2.58463 -10.1171 8.33118 20
359 1 9.66522 -8.0896 6.0152 17
360 1 -1.67089 4.1459 8.5359 21
361 1 -6.42453 -6.20281 -2.20855 21
362 1 4.70815 -1.91102 2.20525 20
363 1 -0.952705 1.39655 16.611 17
364 1 -1.14465 13.6458 1.75344 18
365 1 9.88388 9.54176 15.694 11
366 1 -7.7211 13.2629 -9.17493 13
367 1 -2.63814 -8.12203 -16.6793 14
368 1 -6.29542 -0.567873 -3.27748 21
369 1 3.28994 -10.4136 -14.1394 14
370 1 -7.66293 2.84667 7.53297 18
371 1 -13.9958 5.63884 3.56424 16
372 1 -4.66483 -4.74265 -6.1501 19
373 1 -0.868209 9.80474 -4.91686 19
374 1 9.16877 -1.25486 6.7302 20
375 1 -13.5803 -9.37283 -1.19267 17
376 1 8.7289 -8.62915 9.0657 15
377 1 -3.34884 1.75288 0.847773 22
378 1 -8.13687 -5.6704 10.5833 22
379 1 -11.5303 10.8122 3.9268 18
380 1 0.493162 -4.66484 11.3063 21
381 1 5.72722 -12.2687 -8.85741 24
382 1 -6.51449 -1.41616 -8.94406 21
383 1 7.91711 -4.37976 -16.1967 13
384 1 4.08914 13.4368 4.41416 23
385 1 -10.4686 3.32925 -1.4779 23
386 1 0.282206 -5.45177 -13.3417 20
387 1 7.26812 13.0738 -13.3683 10
388 1 -4.05106 -15.6022 -7.694 8
389 1 -12.8976 -9.48088 -6.70389 14
390 1 -4.24098 -8.39351 -1.3784 20
391 1 9.59507 4.66701 14.2895 21
392 1 -3.2018 -1.35796 -2.56569 19
393 1 12.8207 2.91538 -0.161509 20
394 1 -8.2087 3.31653 -11.8948 23
395 1 3.27549 18.9824 0.884648 14
396 1 -14.6592 -1.78478 -4.09106 14
397 1 5.30523 2.29593 2.40228 22
398 1 -8.6083 10.3849 -0.819313 20
399 1 -11.8197 10.7194 -2.12348 15
400 1 -5.32692 3.99573 13.1377 23
401 1 7.45424 2.74056 13.7513 22
402 1 12.4905 -1.48185 -6.3803 18
403 1 6.69429 -2.2362 14.7453 16
404 1 12.0594 1.93463 -5.80669 21
405 1 -4.0541 -14.6446 -4.39126 19
406 1 5.91179 2.87677 4.9539 22
407 1 -2.89748 4.45519 -0.643577 21
408 1 0.999892 -7.89621 -5.03416 21
409 1 0.0986254 8.2102 5.37243 20
410 1 4.74865 1.75314 -2.41465 23
411 1 -8.31598 4.73573 -6.1604 19
412 1 1.4136 -8.54206 -1.32753 20
413 1 13.6402 1.97561 12.7815 13
414 1 -9.05501 -1.84597 -4.30165 22
415 1 -6.76009 -8.12835 3.44496 22
416 1 -7.68971 -5.90236 14.0097 15
417 1 -2.34757 9.31033 -1.63614 22
418 1 -11.8703 -6.51539 -3.78455 20
419 1 7.36855 5.37622 11.9945 20
420 1 -7.42125 8.14497 -2.41772 19
421 1 3.07019 14.788 -6.25754 20
422 1 5.31285 13.1213 7.34096 21
423 1 -15.1409 -9.30942 -3.87243 10
424 1 -4.7326 -7.53498 -4.93608 20
425 1 -11.3341 0.414382 3.94721 21
426 1 -11.3035 7.87956 -0.875027 19
427 1 4.35666 -9.62115 4.41216 21
428 1 -2.18091 -11.1482 -9.27907 20
429 1 11.1381 10.2785 8.49287 17
430 1 7.11658 9.65322 -12.7396 16
431 1 -7.95247 3.53651 -14.8911 15
432 1 -0.13604 10.667 -12.2633 14
433 1 -5.93882 6.23387 -4.74292 19
434 1 -4.9034 -10.9005 4.13678 24
435 1 14.5024 7.37282 4.10668 13
436 1 1.2987 7.38724 -17.1274 13
437 1 -5.41425 -0.846734 10.5178 20
438 1 -12.1828 0.718773 0.763848 20
439 1 4.17661 0.432241 -5.20384 20
440 1 -7.02133 5.38447 6.26553 19
441 1 1.42682 -14.616 5.29021 20
442 1 2.39667 -6.83894 -7.40596 23
443 1 4.00276 -7.46353 -9.70282 22
444 1 3.50754 -2.28597 5.41651 19
445 1 -15.179 3.64492 6.10729 14
446 1 -15.2284 1.33145 8.48777 16
447 1 -8.95577 10.4899 2.48585 22
448 1 0.595634 -6.4937 1.00588 24
449 1 -6.08971 0.757515 -14.3246 19
450 1 8.18555 -14.308 -7.72625 15
451 1 0.401361 -12.3439 -10.795 19
452 1 -4.56754 -2.8339 8.20492 22
453 1 3.6517 -6.16933 -4.36057 19
454 1 -4.70082 3.54162 -13.2718 20
455 1 8.50482 -12.6185 3.60485 15
456 1 2.267 9.75751 -5.77753 17
457 1 -9.22434 7.75231 10.6614 22
458 1 -6.33954 -0.677057 16.0379 16
459 1 -12.4838 -3.12266 -12.3827 13
460 1 -2.27175 -8.68487 5.32759 22
461 1 10.6361 -4.9303 12.0206 13
462 1 6.88448 -0.372305 4.05627 20
463 1 -2.94265 1.75815 4.28797 21
464 1 2.64452 -0.222773 -8.44168 20
465 1 9.01924 -10.8985 6.47075 14
466 1 -1.26812 6.48935 -3.11492 19
467 1 8.8191 13.7224 -7.50272 15
468 1 -0.242865 1.52714 10.3994 23
469 1 2.42435 14.4892 -2.89078 22
470 1 4.74602 -5.42968 4.5593 19
471 1 -4.52951 -10.9843 -4.54593 22
472 1 -2.83219 7.0248 16.5485 15
473 1 -3.98208 14.8238 4.7326 14
474 1 -10.0383 -11.0705 -5.63324 15
475 1 8.45375 15.2136 0.649197 17
476 1 3.68989 5.65435 9.10174 22
477 1 -6.77843 -0.232951 7.22579 21
478 1 -2.10937 -9.1586 -4.17225 22
479 1 -11.6652 2.59026 5.87193 20
480 1 -8.47845 -5.73028 -8.45223 21
481 1 -5.02144 7.04211 8.22033 23
482 1 -5.70426 -11.8012 -7.76578 16
483 1 -3.05665 -4.6051 -13.6781 22
484 1 -1.63675 -11.5271 4.67926 21
485 1 -5.43871 -2.88096 5.06997 18
486 1 14.5349 0.521121 6.59653 19
487 1 -4.28451 -6.06884 13.1125 19
488 1 -11.6548 8.45632 -12.0786 11
489 1 7.63036 4.05593 -2.93335 22
490 1 -6.07592 -13.2082 -2.22456 19
491 1 0.00281239 2.16055 -9.1552 21
492 1 0.245826 18.8324 1.93275 10
493 1 0.430641 7.57753 -6.97779 20
494 1 -3.21639 7.00521 13.3074 20
495 1 -13.9453 -4.78332 -4.82952 18
496 1 -0.482445 16.8855 -3.27461 17
497 1 3.87314 11.7105 -7.22457 19
498 1 -7.18299 -9.64559 -5.34193 19
499 1 2.18365 0.623 16.8687 14
500 1 1.82531 -13.3974 -5.41785 24
501 1 -2.29731 -4.71875 -10.629 20
502 1 7.63055 -15.5105 3.78954 10
503 1 -8.15701 13.1382 -5.81402 17
504 1 -0.150996 6.13793 13.9321 21
505 1 7.83929 8.74321 0.232471 23
506 1 6.11216 10.2376 1.99554 20
507 1 -8.47552 5.94463 -11.462 19
508 1 1.76926 4.74558 -8.10686 20
509 1 3.00352 -7.43172 6.63977 21
510 1 -15.4664 -6.65058 -2.31083 13
511 1 6.56024 3.37987 -0.453622 21
512 1 2.93686 18.8168 6.95247 10
513 1 -3.38212 6.28061 -15.1533 17
514 1 11.791 6.37087 0.306793 23
515 1 0.563396 16.1007 -6.5095 16
516 1 6.16564 -10.5375 1.88655 20
517 1 13.8368 3.72444 -3.98198 18
518 1 2.29246 -0.867771 -17.1839 17
519 1 -2.55959 -11.1258 1.42636 24
520 1 -1.19941 -14.0853 9.37277 15
521 1 3.25484 -10.1054 11.8893 14
522 1 -10.0035 5.36457 -9.15533 18
523 1 -9.67322 -13.3122 4.36257 17
524 1 4.68321 5.25728 -2.70034 20
525 1 0.0411312 -13.9504 -8.3345 16
526 1 8.14889 14.5319 6.37427 15
527 1 3.99468 2.32488 -16.1673 19
528 1 0.1653 -1.49614 15.2255 16
529 1 -11.6464 5.09563 10.6299 16
530 1 0.174784 -15.1776 0.135021 18
531 1 -12.8408 -1.8369 2.45428 22
532 1 14.0587 -4.59231 -7.04 11
533 1 12.8132 -5.28084 -3.92141 18
534 1 1.44498 1.94417 -6.38905 20
535 1 -3.18775 4.29284 -3.93112 19
536 1 2.27193 -10.3364 -7.2887 19
537 1 6.44714 3.10149 -10.4128 20
538 1 8.56045 -2.15042 -8.1668 21
539 1 -7.58836 2.08994 17.2827 13
540 1 5.41216 13.5401 1.2928 21
541 1 -3.8417 -4.71798 -16.9951 14
542 1 2.69287 -9.00548 1.58069 19
543 1 7.90338 -1.01533 -16.8393 13
544 1 -7.29266 -8.23385 8.7731 20
545 1 -6.737 12.2153 1.09231 20
546 1 -9.40616 -3.74826 -13.2939 18
547 1 -13.9829 2.82159 -0.0727789 17
548 1 -4.58078 -9.45923 -10.2166 22
549 1 -2.94176 -11.0464 7.09364 23
550 1 3.2194 6.74064 -10.3978 19
551 1 12.8979 4.21154 14.671 12
552 1 11.9119 11.1025 -6.60832 10
553 1 -8.01668 -12.3642 0.0636468 19
554 1 3.34711 -12.2868 -2.66305 20
555 1 -1.6514 -2.30269 -15.6826 19
556 1 -7.04562 9.67733 9.62522 22
557 1 2.66648 -3.47901 -8.8323 21
558 1 0.00926222 3.6034 -0.203644 23
559 1 12.9617 -3.92243 3.46315 15
560 1 3.9253 14.7555 -9.12288 16
561 1 8.48326 -14.7427 0.632291 11
562 1 7.7158 -2.71036 -0.97181 21
563 1 12.3502 6.47883 -10.044 11
564 1 2.36186 8.28547 13.7304 21
565 1 -8.52543 8.07595 7.79069 24
566 1 -5.00426 -3.46756 -0.542058 21
567 1 13.8765 8.79245 10.3851 13
568 1 5.63562 0.789774 15.9658 16
569 1 -0.685152 0.0571039 -17.9069 13
570 1 -7.58945 -5.86465 -5.36133 21
571 1 -2.66203 -3.94133 10.8005 21
572 1 9.11467 7.35518 8.96748 21
573 1 5.34934 9.32092 -5.01517 21
574 1 -2.83712 10.3413 -11.1209 20
575 1 0.0188675 13.6348 -5.03867 20
576 1 9.69257 -2.48368 13.4174 19
577 1 6.25708 5.43731 -15.4697 19
578 1 9.01548 -6.98339 -13.1844 21
579 1 12.4808 11.2612 11.0681 9
580 1 -12.8633 -5.00655 -1.5725 18
581 1 -6.34355 11.0469 -11.0545 14
582 1 -1.21019 1.46623 7.20616 20
583 1 -14.1131 2.80015 11.1102 12
584 1 -1.423 9.75957 -8.1398 20
585 1 6.31064 -15.0041 -1.63587 15
586 1 9.98935 1.84008 -11.417 15
587 1 -2.32204 14.8919 -5.26804 19
588 1 -7.08985 -7.19178 -10.6962 23
589 1 1.97021 -14.7193 8.37826 12
590 1 -11.837 -2.63706 -3.57317 22
591 1 -1.25768 8.67268 -16.423 11
592 1 -5.10164 2.27266 -2.07539 21
593 1 -3.54496 9.81841 14.8791 14
594 1 -12.9516 -7.72873 3.67488 22
595 1 6.72832 10.5257 -2.44005 18
596 1 4.22118 -10.6942 -10.5903 22
597 1 5.18934 -7.18352 12.3042 16
598 1 7.88389 0.858415 -3.16333 22
599 1 1.70247 -1.34012 2.53628 20
600 1 -7.56365 5.111 2.89768 22
601 1 3.39982 6.08897 18.687 12
602 1 3.38669 17.6039 -7.37966 11
603 1 10.1824 -7.75238 -1.3405 19
604 1 3.29855 8.79332 10.5857 21
605 1 2.3202 1.47291 -18.941 12
606 1 -5.7143 -10.756 10.6585 16
607 1 -2.33491 0.36587 -10.1444 20
608 1 4.87598 -5.78468 -16.7119 16
609 1 2.14403 14.4905 6.74954 22
610 1 8.94628 4.91488 -10.6059 19
611 1 -1.32146 2.68116 -12.3216 22
612 1 -3.14706 -11.5266 -1.94251 21
613 1 -12.4391 0.501366 -8.2536 19
614 1 14.1629 4.82415 2.11504 16
615 1 13.8961 0.294005 -3.56845 16
616 1 6.26344 -5.12479 -13.4676 22
617 1 13.0146 6.41648 12.6223 15
618 1 3.76613 -9.30156 -4.23131 20
619 1 5.21054 0.346628 -18.0582 14
620 1 7.0473 12.1082 4.31288 20
621 1 -4.18284 4.16992 3.09522 21
622 1 4.93479 10.4018 12.4273 23
623 1 10.4933 7.84381 -2.33554 22
624 1 15.7894 -0.794036 4.34982 11
625 1 6.32976 5.58103 -5.64305 23
626 1 6.02074 5.28351 15.3169 21
627 1 11.8004 2.13172 10.1904 23
628 1 3.7234 -5.00073 10.1877 22
629 1 9.73726 9.90986 -8.02478 20
630 1 10.002 0.540432 4.20654 22
631 1 0.902538 3.16274 14.6101 23
632 1 12.0855 -2.23312 -3.62201 21
633 1 12.0521 7.05183 15.8863 11
634 1 -7.38061 0.171085 -6.24672 20
635 1 15.6003 2.50173 4.73154 14
636 1 9.37153 -4.33842 1.58264 21
637 1 -1.49045 -8.9 -0.410404 21
638 1 -12.132 7.83178 8.65212 16
639 1 9.48134 7.59323 12.8713 20
640 1 10.5015 1.9241 13.1205 21
641 1 2.7978 11.628 8.75632 22
642 1 1.13314 14.0384 9.82986 14
643 1 3.15311 8.4981 4.20252 21
644 1 -5.90773 -17.4544 1.51737 13
645 1 -4.64024 6.70962 -1.73365 20
646 1 11.3237 8.48001 -5.19038 20
647 1 12.0752 0.403283 -8.83078 14
648 1 1.51303 17.2932 -1.15373 17
649 1 -3.39643 -9.43029 -7.14352 23
650 1 9.63219 -9.09409 -14.8467 11
651 1 -14.1815 0.349324 5.34807 19
652 1 -9.51115 11.2266 -11.1546 11
653 1 -6.64494 -15.5351 4.45123 16
654 1 -5.61286 1.04555 -11.1439 21
655 1 -14.4659 1.27429 -5.8116 14
656 1 10.6887 -9.97555 3.67125 14
657 1 11.9375 11.9692 2.9153 13
658 1 4.81449 -8.05231 9.61721 20
659 1 -14.9271 -4.23127 -7.72442 14
660 1 3.91549 5.54269 2.90351 24
661 1 5.89657 1.58844 -13.1454 19
662 1 3.91663 0.502582 4.5485 19
663 1 -1.33201 1.40981 13.3134 19
664 1 9.90271 11.973 -9.91382 14
665 1 12.0469 -0.846377 14.5841 12
666 1 4.36855 3.91621 -7.66664 19
667 1 6.56077 0.247622 -0.0607069 22
668 1 8.57535 12.0653 0.873361 21
669 1 1.61448 -9.20239 -10.4717 19
670 1 -12.2005 -1.75725 14.8081 11
671 1 11.5032 -5.54218 6.19431 14
672 1 -0.799797 11.629 13.4632 13
673 1 4.73566 11.3484 -14.463 13
674 1 -11.3185 6.26619 -6.50623 19
675 1 8.44492 9.56423 3.42731 19
676 1 -7.83744 -15.6275 -0.775612 11
677 1 11.7941 -5.6764 0.41024 19
678 1 6.82275 15.5094 3.6176 18
679 1 -1.65503 4.303 11.9207 22
680 1 -13.3189 -7.38916 9.29893 12
681 1 -15.383 -1.06599 -7.3371 12
682 1 8.08571 -0.239156 12.3843 21
683 1 -3.38805 -9.05216 12.2197 13
684 1 5.47056 7.84321 13.9804 22
685 1 -3.88441 11.9385 3.02094 22
686 1 10.6911 4.08132 2.17728 20
687 1 7.49648 -6.01715 -0.691961 21
688 1 9.21097 3.53075 5.0747 20
689 1 4.36082 4.47294 -12.5234 21
690 1 -12.5255 -2.21965 5.75008 22
691 1 11.5799 5.12611 -5.62242 24
692 1 -1.65178 -6.2939 -5.50467 20
693 1 11.7379 -7.73613 -12.6363 11
694 1 8.14859 6.1073 5.52384 21
695 1 4.72823 5.79331 5.79467 20
696 1 -6.66186 2.25695 10.8218 21
697 1 7.9852 11.0405 6.85884 23
698 1 -3.16436 -1.3282 16.1235 14
699 1 -2.55002 3.99524 15.116 20
700 1 -4.52611 -6.40251 -11.5497 21
701 1 -3.46953 1.70072 11.4809 20
702 1 -0.367314 3.1503 -3.6031 18
703 1 8.1629 1.90193 7.39003 21
704 1 -10.7084 -12.9289 9.55615 10
705 1 9.63722 11.0935 -1.83706 18
706 1 6.92858 -13.4789 -4.91064 19
707 1 -1.88557 2.84361 -6.91643 20
708 1 5.18759 10.3999 5.7172 19
709 1 9.48217 13.6201 3.30211 16
710 1 4.82637 -2.60115 -16.3432 18
711 1 -1.11465 -4.14471 8.53686 22
712 1 5.25536 15.3697 -3.59019 21
713 1 11.8372 8.57532 3.15879 17
714 1 -1.20206 -3.63347 -2.19013 19
715 1 -7.34742 -8.18985 -0.0180381 20
716 1 -1.09309 -5.12368 -16.6011 17
717 1 -4.17234 9.16376 -3.70472 19
718 1 10.8226 -5.43569 -15.0645 10
719 1 7.40418 4.89615 2.5112 21
720 1 14.0304 4.09819 -7.49586 12
721 1 9.82677 14.4349 -2.29783 14
722 1 -4.0159 4.5872 6.65652 22
723 1 -4.01201 6.8971 1.43615 21
724 1 8.80199 6.20046 -4.77791 23
725 1 11.2381 2.15211 16.2843 13
726 1 8.90423 0.113364 15.2711 18
727 1 -2.01074 -11.1597 10.4247 16
728 1 -8.40845 8.71874 -12.1371 16
729 1 4.11986 13.1525 10.6156 16
730 1 3.46569 -7.395 -12.6507 20
731 1 2.78937 -2.46844 12.1529 24
732 1 6.01453 14.12 -6.50639 22
733 1 5.6827 10.5309 9.18149 21
734 1 -5.32132 -0.528983 -0.00580808 19
735 1 13.4559 -7.0571 -1.32767 13
736 1 7.70626 9.7582 13.2148 20
737 1 -13.3266 -4.64333 7.47114 18
738 1 5.38598 -14.8763 1.72684 17
739 1 0.115027 -1.9878 -9.47226 20
740 1 -6.08383 11.7973 -2.37383 20
741 1 1.04509 5.56901 3.75868 19
742 1 5.43357 -4.65139 -2.90478 19
743 1 2.96601 11.2884 2.27712 20
744 1 -13.6061 -4.85618 3.97076 21
745 1 -4.25164 1.60821 17.6346 15
746 1 -1.91605 2.44419 -15.8524 18
747 1 -4.84026 3.10466 -16.2431 13
748 1 5.81447 -12.4335 -0.185793 21
749 1 8.74416 9.71426 -4.95063 18
750 1 1.84544 -6.91744 3.6114 24
751 1 -2.13786 6.73927 3.79146 21
752 1 -12.6645 3.30252 8.17768 21
753 1 3.70777 -0.518361 -14.6787 18
754 1 0.642352 -12.3131 7.04222 22
755 1 1.37044 14.0825 3.79225 19
756 1 -4.59575 1.1393 14.6695 20
757 1 -2.20266 -1.49955 0.354659 20
758 1 -5.96992 -9.53133 -13.154 17
759 1 -8.96753 -9.07311 -12.0169 13
760 1 -3.5471 -13.0278 -6.7408 22
761 1 2.09336 12.5173 -10.3535 16
762 1 7.43539 -6.60438 -10.477 20
763 1 3.13083 0.275473 0.360687 20
764 1 -11.9993 13.5731 2.25674 11
765 1 8.50116 -7.47729 -6.77268 22
766 1 6.51552 -16.7536 -4.92867 8
767 1 2.19055 -6.80575 12.4271 17
768 1 15.9582 5.85213 -4.78408 10
769 1 -1.62455 -12.456 -4.17463 23
770 1 -10.7302 -2.70362 9.3888 21
771 1 -1.15675 -0.0485281 -6.97378 18
772 1 -9.04382 -10.2409 2.10703 22
773 1 -6.88578 -10.4096 -1.73638 21
774 1 2.71516 -1.85563 -3.2692 20
775 1 -13.3035 0.777189 12.944 11
776 1 -8.59304 -15.0789 1.86893 15
777 1 13.3609 7.03777 -7.11728 15
778 1 -3.58422 15.1531 1.3563 16
779 1 -4.17445 1.46866 8.14744 19
780 1 -12.5363 5.76299 6.0562 18
781 1 11.4387 -2.40446 1.28381 21
782 1 -10.863 -0.705912 -10.8016 21
783 1 1.16666 8.33579 -1.2586 19
784 1 6.00952 2.45712 -5.52256 20
785 1 8.18002 12.6316 15.2235 8
786 1 0.218601 -2.13273 6.45564 22
787 1 10.9025 4.52673 -2.75195 21
788 1 -12.7372 3.63821 -7.69791 17
789 1 -12.5229 -5.97153 -7.35718 23
790 1 -0.14741 8.93574 15.4389 16
791 1 5.47061 7.08897 -13.4408 21
792 1 10.4074 12.1567 5.99586 15
793 1 -2.17456 -0.69708 9.31823 22
794 1 3.12718 -12.2402 1.1282 21
795 1 -6.63385 -15.4245 8.19912 12
796 1 -0.541621 -9.15626 8.2858 19
797 1 12.7174 9.66612 13.686 11
798 1 0.960964 -6.25057 -10.15 19
799 1 -7.42254 7.80632 0.88582 21
800 1 5.88898 7.74696 3.09523 21
801 1 -13.9367 -4.14625 10.1981 12
802 1 9.92782 10.3118 -13.0065 9
803 1 -0.956622 -14.889 -5.78642 18
804 1 -0.244707 -13.0985 2.20516 22
805 1 -1.92049 -13.5589 -0.198759 20
806 1 4.37575 7.21967 -7.55517 21
807 1 3.91127 16.4559 2.45664 19
808 1 -3.42333 0.311573 -13.28 22
809 1 1.71143 0.350811 13.4441 21
810 1 -1.03336 5.48052 -17.1995 13
811 1 -11.4345 -1.13405 -14.4101 12
812 1 -10.4811 0.21463 -1.83887 20
813 1 2.77418 17.2391 -4.1747 18
814 1 9.89987 -0.895718 -1.035 20
815 1 -5.07991 -7.14916 -14.9268 17
816 1 -5.85736 -5.97742 1.45918 22
817 1 9.18294 3.01844 -5.26757 23
818 1 14.5655 -5.02985 1.50635 11
819 1 -8.64045 5.07521 12.4368 20
820 1 6.81609 -11.0346 -3.42678 20
821 1 12.0708 -9.19504 0.9042 12
822 1 11.2177 -0.923216 11.8587 18
823 1 -0.318298 11.3964 7.06556 21
824 1 -10.0132 -0.0910092 12.8891 20
825 1 -4.39549 4.26315 9.90037 19
826 1 -4.45381 -13.567 9.26637 17
827 1 8.42206 2.17139 2.12383 24
828 1 5.49981 7.91252 17.1875 16
829 1 -14.3089 -6.73202 0.969581 20
830 1 9.20469 -5.91387 -3.86421 21
831 1 1.74478 5.46824 -2.30747 20
832 1 -15.13 6.13897 0.016847 9
833 1 0.874195 8.3965 2.03918 19
834 1 -0.690296 -16.5492 6.81901 11
835 1 4.22891 3.05272 14.2142 21
836 1 -1.24295 11.5335 4.0529 19
837 1 5.43034 -12.5255 3.73399 23
838 1 -7.89406 -1.93639 -1.18326 20
839 1 7.01901 -2.67505 8.36842 22
840 1 -15.3937 -7.17047 -5.75149 13
841 1 5.16398 11.2044 15.7453 14
842 1 6.73554 13.5416 -1.41383 23
843 1 -13.9727 -10.6293 5.74112 14
844 1 -3.74793 -16.7943 4.21792 13
845 1 10.5689 -6.25927 9.56263 13
846 1 11.2589 -6.77536 3.49476 18
847 1 8.32254 9.92098 10.5505 19
848 1 -0.814621 6.79816 0.49798 23
849 1 -0.409606 -8.45661 -7.8615 22
850 1 1.05428 4.72968 -11.4235 20
851 1 -6.74852 -0.675228 12.9829 21
852 1 -1.86576 16.8557 3.57571 12
853 1 11.5892 0.854794 1.38284 22
854 1 3.11929 6.8911 -4.72661 19
855 1 -5.73032 7.04078 15.1341 16
856 1 6.28161 7.65594 10.6841 22
857 1 7.40073 -0.0387926 -10.7613 20
858 1 -6.98182 -12.8356 3.13767 22
859 1 -4.67407 -1.6578 -5.67507 20
860 1 12.4213 -2.17422 6.41377 16
861 1 -0.022316 0.194365 -14.4317 20
862 1 0.893901 6.24778 10.3808 20
863 1 8.91581 -10.0933 -11.8016 18
864 1 8.76192 6.8369 -13.2504 13
865 1 -0.303294 -6.44712 -2.447 21
866 1 11.5871 -2.95431 -9.15883 17
867 1 14.41 -1.62827 1.58496 17
868 1 -2.34105 -3.54208 13.7699 20
869 1 -8.62913 -9.20614 -8.70504 16
870 1 1.02398 -1.48531 -0.892461 19
871 1 7.18031 16.3691 -2.05305 17
872 1 2.91773 -4.28068 1.48941 19