ITEM: TIMESTEP
7000
ITEM: NUMBER OF ATOMS
1500
ITEM: BOX BOUNDS pp pp pp
-30.0 30.0
-30.0 30.0
-30.0 30.0
ITEM: ATOMS id type x y z Coordination
1 1 -5.77444 -11.6578 -10.1011 16
2 1 11.7297 -11.0841 6.43558 9
3 1 -11.4165 10.1205 -0.337048 10
4 1 -8.12396 2.01714 -8.58631 20
5 1 2.40625 -9.9326 11.037 15
6 1 -6.62026 -0.445124 -8.27257 19
7 1 -4.94414 -10.9108 2.12352 18
8 1 -13.4596 -10.222 3.22346 11
9 1 2.23911 3.62778 13.9852 13
10 1 -2.84268 1.61584 12.8539 19
11 1 -0.529352 8.33012 -9.46293 20
12 1 3.3283 -3.59702 11.4412 21
13 1 12.4026 6.31995 7.01609 11
14 1 -3.32681 8.68885 -11.0483 14
15 1 5.53859 2.90771 -12.645 15
16 1 -0.944146 -5.39425 -8.07581 22
17 1 8.57153 -10.9779 7.41377 17
18 1 11.4661 -12.7918 0.72653 13
19 1 -3.91867 -15.0419 -5.94228 15
20 1 2.00756 -8.50822 -15.5673 10
21 1 -0.576036 5.44908 15.4751 10
22 1 2.28207 -10.7444 6.32272 20
23 1 7.80815 -8.33626 13.1138 13
24 1 -15.0231 -6.32402 1.5907 10
25 1 -9.75005 -0.103482 -2.80538 17
26 1 -5.11094 9.85467 -2.87649 20
27 1 2.28031 -1.3328 -9.78486 21
28 1 4.18498 -9.83033 -13.4133 12
29 1 0.0594332 -6.56752 14.3979 11
30 1 -12.0572 8.37151 5.46307 8
31 1 2.27368 10.5039 6.03757 16
32 1 -10.6499 8.50827 -6.07093 12
33 1 -6.32124 12.0552 -0.668573 13
34 1 -0.543127 -11.2939 4.89916 19
35 1 8.41689 -11.7651 -6.97397 14
36 1 -11.4092 1.52977 10.404 12
37 1 -9.59429 -0.94013 -9.78357 17
38 1 6.28905 -3.08969 6.54323 22
39 1 -9.04942 6.20205 -5.62609 16
40 1 -9.55466 -12.2881 6.39535 16
41 1 -12.2619 5.50504 -6.04253 13
42 1 3.29616 2.19086 7.88969 21
43 1 5.62066 -16.5147 -2.09056 15
44 1 6.78598 6.69688 13.2926 13
45 1 11.7593 -3.79804 -10.7303 13
46 1 13.5184 -13.3427 3.9834 7
47 1 4.74146 -2.85148 13.9262 11
48 1 -7.08123 -14.7088 6.4625 12
49 1 -11.285 -3.29146 -0.339843 19
50 1 9.86266 1.44391 8.34668 16
51 1 8.46249 -2.65743 -4.52338 22
52 1 -1.14522 6.98222 11.6706 14
53 1 6.14449 -3.12474 9.79075 20
54 1 -2.58234 -8.34321 -7.95634 18
55 1 -8.29824 9.70426 -1.45146 15
56 1 -2.28778 5.49238 -10.4229 17
57 1 8.12747 -4.96576 -6.51796 19
58 1 11.651 -11.579 -1.93255 13
59 1 6.13782 -8.34674 6.74058 24
60 1 -3.97661 11.0624 -10.1145 14
61 1 -8.25612 13.4064 2.78069 10
62 1 -5.71855 8.22276 3.53065 19
63 1 -6.25475 -9.76443 10.4263 10
64 1 12.4464 -7.86722 -5.91526 16
65 1 -14.4057 6.74882 3.54126 11
66 1 9.02885 -8.93469 -1.69785 19
67 1 8.30646 0.192124 -9.8771 19
68 1 -6.6993 -1.5507 -16.298 10
69 1 -2.00372 9.49817 2.75649 21
70 1 -8.65247 7.44156 -8.56809 10
71 1 -3.61629 7.88684 -8.36081 21
72 1 2.83694 7.29807 1.2571 22
73 1 -5.18623 -8.73127 5.7899 16
74 1 1.20908 -7.99937 -11.3748 17
75 1 2.22105 -5.46279 -10.2021 21
76 1 -2.85835 2.07458 8.52951 19
77 1 -10.7138 -8.39707 -2.2491 18
78 1 -8.22093 -14.5661 -1.92392 12
79 1 12.1463 -8.51404 3.2592 10
80 1 -6.43771 5.6445 1.47111 21
81 1 6.99365 -2.66002 -12.3553 18
82 1 6.09362 8.30735 -4.29967 18
83 1 12.0827 -9.1863 0.261536 15
84 1 0.496208 -14.1655 3.82686 18
85 1 -6.26428 -11.3649 -1.09404 21
86 1 -11.825 -5.47424 1.93564 21
87 1 10.8985 9.32586 5.80896 12
88 1 -4.07961 7.07735 9.40829 14
89 1 -2.12345 10.6353 -4.47255 18
90 1 -0.820429 -5.54692 -11.442 19
91 1 9.11357 -3.61087 10.9363 17
92 1 -3.95381 4.75288 -6.85835 18
93 1 10.4159 -0.0716148 -4.438 20
94 1 -11.621 7.0516 -3.34842 16
95 1 -7.55203 13.2821 -3.34561 10
96 1 12.328 2.43363 -11.5396 12
97 1 10.708 -13.0802 3.64713 12
98 1 -8.26286 2.21396 -4.16829 19
99 1 6.48932 12.3045 -1.4559 16
100 1 10.5538 5.85773 -1.69664 17
101 1 -2.8883 7.69568 -5.07668 21
102 1 -2.84264 -3.85451 -14.9317 15
103 1 5.97568 13.8595 4.58821 16
104 1 -12.7159 -4.94153 -6.33102 15
105 1 16.2072 -0.867306 -1.89773 18
106 1 -3.39182 7.02511 4.68088 20
107 1 0.227539 12.5115 -7.02195 11
108 1 4.82171 -6.93129 14.3256 9
109 1 -9.2999 -5.90256 -0.205439 21
110 1 -0.233408 -11.56 8.29759 20
111 1 0.651267 -14.337 -3.12512 14
112 1 -1.21614 7.70661 -13.2093 13
113 1 10.7514 6.66164 -5.24803 20
114 1 1.54706 -13.8666 7.87743 14
115 1 -9.43111 -0.828682 -0.0107948 18
116 1 3.00538 12.1281 2.87087 17
117 1 1.60762 4.54628 10.0946 18
118 1 -4.89763 13.5247 2.56306 11
119 1 -5.63046 2.14028 -6.72438 18
120 1 13.2781 -5.48703 0.292506 17
121 1 -6.6668 -5.58692 5.24638 19
122 1 -13.3174 -2.46996 1.27628 16
123 1 -9.97661 -11.6084 3.24451 17
124 1 -13.0652 2.33429 -5.98909 11
125 1 -2.43917 -17.9449 2.39196 10
126 1 5.26598 -8.10508 -3.62578 20
127 1 -0.376492 6.89865 2.96851 21
128 1 -8.56104 -2.72989 -4.97705 22
129 1 -6.21615 9.06498 -9.84949 15
130 1 -11.4007 -4.2813 -9.56557 14
131 1 -8.28321 -4.37758 11.4671 16
132 1 0.21512 -8.43242 6.56889 21
133 1 8.15076 -13.3858 5.50375 12
134 1 14.5999 3.57146 5.05499 11
135 1 5.63233 3.05366 -6.63388 21
136 1 6.71771 0.175191 14.0953 11
137 1 2.3198 6.042 -13.6517 14
138 1 9.16029 -0.85128 -13.1428 11
139 1 -9.73781 -5.50344 -5.97845 20
140 1 -4.49592 10.1306 -7.07309 20
141 1 -7.29252 10.6509 -4.82598 21
142 1 8.93231 -2.23516 7.45686 19
143 1 -3.94631 -7.24956 -15.6521 11
144 1 -5.16539 8.8358 -13.3521 8
145 1 3.61565 4.24817 -10.1329 18
146 1 -6.04863 1.68656 6.87216 19
147 1 -9.00763 4.30643 10.2318 12
148 1 -2.11371 -9.98289 -10.4777 14
149 1 -6.23829 -14.0244 3.69755 14
150 1 8.38845 -15.2363 -1.00934 16
151 1 7.84017 5.8231 -6.15022 18
152 1 -0.147433 8.01416 -3.19019 21
153 1 -13.292 0.0657578 2.91018 17
154 1 5.09772 5.39109 8.60205 19
155 1 11.4335 0.702779 -8.13603 24
156 1 1.51503 5.0697 6.44398 19
157 1 -8.3366 2.61677 4.93753 19
158 1 -8.2138 -7.75002 -6.31319 19
159 1 8.9291 2.44314 -11.4083 14
160 1 3.26651 -3.36744 8.02487 21
161 1 7.47429 4.98192 -12.4259 12
162 1 2.04551 -14.0389 -5.79669 12
163 1 -3.85032 0.14769 -10.1396 21
164 1 9.2122 -3.69014 -9.25801 18
165 1 -13.319 -5.41905 6.5957 11
166 1 2.10422 -17.6166 -2.51909 7
167 1 -11.126 -7.2612 -8.44512 15
168 1 7.54152 14.0631 0.952052 10
169 1 3.16576 -3.46757 -11.4534 19
170 1 6.02427 3.32447 12.5652 16
171 1 14.1827 3.92872 -0.0702082 16
172 1 11.7433 -9.01453 -8.43611 15
173 1 -4.03808 -5.48227 -9.8389 19
174 1 -9.79689 -6.90355 -11.3582 10
175 1 7.68979 -5.52392 13.1036 12
176 1 5.08221 -5.75308 8.10344 23
177 1 -4.43986 -5.58026 -12.7902 20
178 1 2.10333 -6.36526 6.73583 23
179 1 2.28442 8.08159 -11.6459 11
180 1 7.6893 5.52369 0.0503304 20
181 1 -6.77236 -7.94752 3.33376 19
182 1 0.569027 9.45482 1.85987 20
183 1 -5.76421 -6.87337 11.9851 15
184 1 -9.0133 -13.1216 -6.41499 12
185 1 -6.48149 -6.24727 -7.88128 20
186 1 -5.42219 -11.9532 -6.45228 22
187 1 -2.73091 -12.8656 3.25301 22
188 1 11.8131 4.14047 2.46299 20
189 1 -8.84716 -10.3212 8.97411 10
190 1 -3.26866 -11.9539 -0.247587 22
191 1 -0.966902 -11.0297 1.47352 19
192 1 1.8416 7.57744 -1.49982 21
193 1 2.24395 -2.75531 -15.1559 14
194 1 -6.16536 -4.82083 -15.5147 12
195 1 -0.624191 -13.8052 0.718866 18
196 1 -0.550016 -13.473 -8.89701 9
197 1 -8.3253 3.43606 -15.8097 12
198 1 9.78175 2.32855 5.00708 22
199 1 -5.61946 4.53113 -16.6131 11
200 1 -1.06619 5.57694 -7.85706 25
201 1 -5.45094 -3.61537 7.082 22
202 1 -6.62975 12.6552 -8.21349 12
203 1 2.56731 14.6214 4.43784 10
204 1 10.8675 -0.72701 5.10519 20
205 1 -9.87658 -0.22355 3.94548 19
206 1 -0.312498 -9.92528 13.0063 12
207 1 -8.79829 8.19723 4.98248 15
208 1 -0.352622 -7.37119 -14.3793 11
209 1 2.33113 -11.6181 3.0573 20
210 1 -1.04051 -0.0688027 11.6034 19
211 1 -14.9819 -7.53146 4.42941 9
212 1 14.4731 -2.72184 -0.080844 17
213 1 5.64753 -8.55704 -10.2414 17
214 1 6.89606 -13.1354 -3.46106 20
215 1 -10.128 11.0011 -3.51207 11
216 1 10.4883 7.63551 8.71649 12
217 1 -8.4132 -2.83566 2.05653 20
218 1 5.32431 -16.7163 -4.8474 8
219 1 -3.80612 7.54376 1.13496 23
220 1 -3.77528 4.2586 6.90166 21
221 1 8.76763 -10.2685 10.0941 11
222 1 16.2433 -3.53494 4.1185 9
223 1 -0.9772 3.87708 12.1003 22
224 1 -6.35942 -5.55603 -4.45797 22
225 1 0.319724 1.40141 14.7478 11
226 1 -4.78504 10.696 1.77411 19
227 1 -6.99886 -0.881841 11.6154 18
228 1 -11.795 5.06382 5.29322 15
229 1 -3.60929 -6.24022 -6.46846 23
230 1 -6.27246 8.41017 -0.229926 21
231 1 7.96109 -5.6883 6.3987 26
232 1 -9.86793 -15.1509 4.46573 9
233 1 9.80006 -8.13698 7.89164 19
234 1 -7.94805 10.284 3.72728 12
235 1 -0.405183 -6.30351 12.0405 23
236 1 2.60989 -11.2625 -7.22813 17
237 1 -5.68549 -3.39591 -10.2317 20
238 1 5.70483 -4.68557 -15.8764 8
239 1 7.26694 13.5065 7.22106 9
240 1 -11.5062 -3.52313 -3.32248 22
241 1 1.92474 -4.97882 -16.7922 8
242 1 -1.37192 -13.1442 -5.85993 15
243 1 -14.371 -5.54952 -4.11768 14
244 1 -7.03889 -14.742 0.680334 15
245 1 12.7364 8.23989 -3.41502 15
246 1 -5.61336 3.50997 -13.416 21
247 1 -13.6982 -2.38182 -5.17567 14
248 1 -6.53397 5.35174 5.21463 19
249 1 -7.7166 15.024 -0.175211 6
250 1 -6.57512 4.05764 8.37704 22
251 1 11.7265 -2.84663 -3.16341 16
252 1 15.3341 -2.02773 -5.27607 17
253 1 0.184709 -8.12958 -6.7799 19
254 1 -1.2119 5.36599 5.10639 20
255 1 -10.6131 0.02645 -5.6979 13
256 1 5.10533 -11.0483 -2.25035 18
257 1 11.023 -1.19619 10.0349 14
258 1 -10.8865 -2.42565 -6.92509 18
259 1 -8.73305 -8.56299 5.23469 19
260 1 -1.12847 8.38147 -0.375054 20
261 1 -10.1646 -10.4804 -3.86638 13
262 1 -14.3212 5.80551 -2.98574 9
263 1 -1.09603 11.1152 -8.99485 16
264 1 4.77097 11.4732 6.90252 17
265 1 -14.3001 -8.07144 -2.91852 10
266 1 -2.54928 -11.4192 -7.71323 18
267 1 -12.2925 -0.637623 8.34952 13
268 1 -14.1384 2.22028 -3.05801 11
269 1 8.45086 -9.08962 5.66154 21
270 1 -4.94225 -13.8785 -1.23764 19
271 1 3.40691 1.07424 -14.7217 16
272 1 -9.81059 3.6141 -6.67409 19
273 1 -0.971289 -13.9207 6.44013 18
274 1 12.0689 2.97238 6.49258 16
275 1 -2.77076 -3.35089 8.74421 20
276 1 -16.0601 3.7967 1.75406 7
277 1 -6.59809 -0.483471 5.00026 22
278 1 -3.90162 -15.5682 4.73783 13
279 1 11.2397 -9.75299 -11.4999 10
280 1 -12.7119 -1.23626 5.81569 12
281 1 -0.511573 -5.55561 8.62171 19
282 1 8.68681 -16.767 -3.81004 9
283 1 5.53509 -12.0265 -12.1863 9
284 1 -3.36547 -6.11264 10.3553 18
285 1 2.80197 -8.95652 -5.11216 20
286 1 -0.484663 1.39431 -17.0111 9
287 1 8.4213 -13.7235 2.06874 16
288 1 3.17926 9.96317 -3.40549 18
289 1 -2.84483 -5.0176 14.6773 11
290 1 -11.011 -9.21563 7.51578 11
291 1 9.66456 -7.05543 10.891 15
292 1 6.42639 0.679947 -7.72956 21
293 1 7.96738 -5.73202 0.452347 23
294 1 12.2504 9.12027 -6.33985 12
295 1 0.0639824 1.94896 10.0201 18
296 1 1.05521 11.3352 -4.33197 16
297 1 5.93978 -9.01475 3.19677 22
298 1 -2.10121 -15.7469 -0.326292 17
299 1 -2.87835 12.1089 5.37132 10
300 1 -6.42057 -14.198 -7.96415 12
301 1 6.95844 6.31714 6.86128 19
302 1 -6.6338 -1.49368 8.50167 24
303 1 -5.27668 -8.62329 -3.09592 18
304 1 -10.0827 3.02521 7.8983 17
305 1 -8.58565 -11.9131 -9.11656 11
306 1 -6.16651 7.33485 7.37529 15
307 1 -3.86772 -13.8358 -9.04536 13
308 1 -0.530056 -9.94064 -13.318 11
309 1 -8.00252 -10.3376 1.77593 18
310 1 -8.61037 -3.28133 5.2069 21
311 1 12.1282 -4.02285 5.71662 16
312 1 -2.99934 -7.83178 13.7846 14
313 1 -8.57007 3.56311 -12.4446 13
314 1 8.31908 2.30848 -1.63959 18
315 1 -6.27499 -17.1073 -3.80209 8
316 1 -1.00844 11.5006 0.513181 13
317 1 2.24525 4.7757 -6.98221 20
318 1 1.65595 6.51911 13.5864 11
319 1 -14.4506 -2.87991 -2.25294 16
320 1 7.06735 11.485 -6.12743 12
321 1 -8.13687 -8.80298 -9.27886 19
322 1 -2.31583 -14.1341 -2.94745 19
323 1 0.523119 -2.42988 -12.6272 19
324 1 -10.9115 10.5937 2.69507 10
325 1 4.11894 5.7648 11.9587 18
326 1 7.95609 5.85104 -3.40597 20
327 1 4.88911 4.95326 1.75456 20
328 1 -7.98133 10.0633 -7.38627 14
329 1 3.14594 1.9685 -8.27243 20
330 1 3.36011 -8.60748 5.00332 21
331 1 -16.5909 -6.44574 -1.38187 5
332 1 -3.32458 -0.845105 -16.3051 15
333 1 9.58515 3.38745 -3.72357 15
334 1 6.08141 -8.32949 -0.100005 21
335 1 16.532 0.379723 -4.28846 12
336 1 -0.280793 0.0524246 -11.3293 21
337 1 -2.95794 -8.97752 2.15191 20
338 1 3.5252 -14.6747 1.96723 15
339 1 4.04588 -12.5692 10.4675 11
340 1 -7.02485 5.0874 -7.9913 17
341 1 -5.16518 -9.05124 -13.0093 17
342 1 2.58446 1.74836 -11.7391 20
343 1 0.873466 -3.20579 13.734 12
344 1 -11.4659 -2.90124 3.74608 18
345 1 10.0748 -6.90798 -11.0424 16
346 1 13.5528 -0.865304 -2.81441 18
347 1 -6.66917 4.6603 -4.81146 22
348 1 2.74716 -8.51812 -8.78145 21
349 1 6.1449 2.66483 -9.85209 19
350 1 14.7858 -5.02255 -5.71319 16
351 1 -3.32776 -1.03465 10.3813 23
352 1 3.45122 9.94029 0.233489 19
353 1 -2.40402 -1.06053 -13.3928 18
354 1 -9.45636 -6.37913 6.90544 18
355 1 -4.47561 12.2242 -4.4653 11
356 1 -7.1361 -6.74199 -12.9335 15
357 1 -15.3062 0.169898 6.09137 8
358 1 -3.33684 -11.7442 9.77011 14
359 1 7.57914 8.67471 -8.12592 15
360 1 15.4106 2.46772 -2.25285 13
361 1 -11.8369 -11.0179 0.812094 12
362 1 -0.114629 -11.6019 -1.80131 20
363 1 -9.16685 5.55931 6.66842 15
364 1 2.69091 -3.30326 -8.06835 19
365 1 12.1945 -11.6946 -5.88 12
366 1 2.05419 9.8958 -7.79463 17
367 1 8.28479 -11.4834 -0.311875 19
368 1 -8.99898 -0.319878 7.01568 21
369 1 4.9206 8.49726 10.345 18
370 1 0.663162 2.87967 -12.9207 19
371 1 -5.55272 -8.91143 -7.02892 20
372 1 2.45541 -6.26201 9.76901 22
373 1 8.11676 9.34759 7.93505 14
374 1 8.77025 2.98241 -7.92773 21
375 1 -5.51338 7.89743 -5.28354 21
376 1 2.27387 13.8728 0.467062 10
377 1 10.9364 -5.10674 8.11317 16
378 1 11.9518 -2.08119 -6.21995 15
379 1 -13.0842 -8.40537 0.285715 16
380 1 -1.00256 -0.854577 8.30054 21
381 1 -0.226054 8.44978 -6.85415 21
382 1 4.03776 -14.8935 -3.14807 19
383 1 4.57668 -5.64211 -8.3643 20
384 1 -3.31589 12.9117 -7.75034 13
385 1 -7.07369 -8.68002 -15.4785 8
386 1 6.00654 -14.9655 4.38001 13
387 1 -12.5163 -5.95846 -1.87468 20
388 1 -11.4649 -4.96406 10.0669 9
389 1 4.74703 6.21912 -1.31449 19
390 1 9.09733 -8.68275 -5.64498 20
391 1 5.45987 -5.72749 11.2225 20
392 1 8.1209 1.46581 -5.17375 22
393 1 -9.61037 6.24205 -0.784953 18
394 1 11.2163 -8.66579 -3.48504 18
395 1 4.21593 8.7637 12.9846 12
396 1 -2.46245 2.76813 -11.7705 18
397 1 4.4701 15.7748 7.02849 5
398 1 11.031 -0.965909 -10.9718 15
399 1 3.9035 -1.36136 -12.6759 18
400 1 -3.53538 -17.1379 -3.20155 11
401 1 -10.6699 0.94224 -11.6821 10
402 1 15.7579 2.35613 2.54473 13
403 1 14.9756 6.06618 -1.72152 12
404 1 8.64993 -12.5061 -11.1426 10
405 1 6.03769 -10.5103 -5.43017 18
406 1 5.91424 11.6686 1.62651 21
407 1 -8.5236 1.50189 2.05812 18
408 1 15.0342 7.31772 -4.92999 10
409 1 14.4592 -1.57785 5.49028 14
410 1 15.0718 -0.579684 -7.47198 13
411 1 10.0747 6.45534 11.8166 10
412 1 3.60103 -8.76594 8.20323 18
413 1 2.20728 -0.427834 13.0971 15
414 1 16.3581 -3.33586 -8.21252 12
415 1 9.54168 0.0112602 12.6254 13
416 1 -8.47546 -3.77476 -8.20621 22
417 1 18.0184 0.898211 0.637023 10
418 1 10.9139 -6.51406 -1.29441 18
419 1 9.39922 -2.38379 13.7693 7
420 1 1.91278 7.681 7.85688 19
421 1 8.12577 0.234973 6.54845 19
422 1 -7.43577 7.74899 -3.25943 20
423 1 8.91588 9.31372 -5.87603 18
424 1 11.3782 -6.18848 -8.24219 18
425 1 4.97016 15.4609 -1.4826 9
426 1 0.553204 -10.402 -9.64046 16
427 1 -14.2085 3.74533 4.9929 13
428 1 -6.88627 6.27453 -14.6528 13
429 1 -3.75618 -15.1123 1.72302 17
430 1 -5.50613 -2.39952 -13.3324 19
431 1 -11.3904 0.863943 -8.28544 15
432 1 12.4495 -2.41936 2.53012 17
433 1 12.324 7.5195 3.6423 12
434 1 0.431585 -8.41379 9.82529 20
435 1 -8.61254 -3.7192 -11.2351 16
436 1 -2.66392 2.96315 15.2853 14
437 1 4.6594 4.41384 -14.7152 12
438 1 10.0987 6.59482 -8.15118 17
439 1 6.5953 -13.3574 -9.12827 8
440 1 12.187 1.33786 3.32103 16
441 1 9.72199 10.0938 2.86846 14
442 1 16.25 -4.76437 1.3203 10
443 1 -5.47904 1.22898 10.3643 22
444 1 -10.1292 -8.22468 1.2339 21
445 1 -5.74115 -3.14179 -6.8284 21
446 1 7.84444 -0.152662 9.9555 19
447 1 0.847279 -12.7555 11.3159 10
448 1 6.03546 1.96853 10.0658 18
449 1 -3.00218 10.6152 -0.836738 18
450 1 11.0186 3.20562 -0.801158 15
451 1 7.58755 5.12801 3.45552 21
452 1 0.418571 0.13327 -14.5558 19
453 1 -11.1489 -3.25836 7.42816 20
454 1 9.27743 -4.17379 -12.3175 16
455 1 10.4626 -12.092 -8.79835 11
456 1 8.70494 3.79225 8.01233 20
457 1 6.42245 3.10994 7.00035 19
458 1 14.9161 5.57897 2.1095 11
459 1 2.77823 -7.53702 12.268 18
460 1 -3.56216 4.37509 10.7704 20
461 1 -0.522011 -2.11509 -16.9317 10
462 1 -5.02719 -3.91002 13.334 15
463 1 5.16194 -0.972608 11.7396 18
464 1 13.8428 4.75068 -3.87012 17
465 1 5.20756 -13.6669 -6.43006 13
466 1 -5.61802 3.06638 -10.1474 17
467 1 4.91276 9.86282 3.95206 17
468 1 8.42077 10.8567 0.96327 17
469 1 3.21198 12.5546 -5.68804 11
470 1 11.3313 8.61222 -0.230534 15
471 1 -3.82255 -11.8064 -3.75196 20
472 1 8.60327 -3.0959 -15.2689 9
473 1 -9.85546 12.2261 -6.17515 10
474 1 8.12157 -9.77236 -11.5446 15
475 1 12.3538 4.0436 -8.6762 16
476 1 11.0606 11.0008 -1.23368 9
477 1 -8.287 2.64992 -1.09431 21
478 1 4.82604 5.83033 -4.56912 17
479 1 -1.08381 -15.3353 9.45194 7
480 1 -3.8997 6.16624 -14.7387 12
481 1 1.36617 8.8293 11.6884 11
482 1 5.38905 -0.679353 7.95141 20
483 1 5.94429 13.8076 -4.6003 11
484 1 7.73551 11.3237 4.46714 16
485 1 13.3364 -6.66372 -3.31984 14
486 1 -11.7454 -7.76843 4.38909 19
487 1 6.18635 -16.6295 1.25834 10
488 1 -0.064851 -3.13291 -9.54381 22
489 1 2.42194 7.66063 4.61712 19
490 1 -14.1071 -4.75212 3.84136 12
491 1 2.47396 -11.896 -0.357579 20
492 1 6.1779 5.45824 -8.45984 18
493 1 4.13508 -6.93684 -11.8266 21
494 1 5.25027 -14.008 7.061 14
495 1 4.91273 15.0712 1.65288 11
496 1 -3.78276 -0.904762 13.4434 14
497 1 -8.2536 -9.75047 -12.1407 12
498 1 5.91466 -8.21781 -7.26793 17
499 1 -0.786443 9.1465 5.71227 17
500 1 10.1077 -13.7294 -5.38658 12
501 1 5.68284 -11.1917 8.05932 18
502 1 1.2668 -15.0867 -0.519528 15
503 1 -8.85339 -7.41935 10.041 13
504 1 -5.89582 -14.0761 -4.52338 18
505 1 -9.70475 -1.78225 10.3131 18
506 1 14.9712 -4.38909 -2.00678 15
507 1 -8.172 1.5271 9.33781 21
508 1 -9.96093 4.31242 1.52076 17
509 1 9.5277 -3.89988 4.53581 17
510 1 -0.338914 5.65002 -5.25018 18
511 1 14.1469 -0.615818 -10.139 13
512 1 11.2827 2.83953 -5.91224 17
513 1 -10.921 3.29322 -9.98968 10
514 1 -11.6359 -7.7836 -5.06446 18
515 1 8.32115 7.81915 -11.3561 9
516 1 0.103849 -3.44884 10.2257 19
517 1 -2.85154 -6.3119 6.50506 20
518 1 1.86474 -5.9076 -13.5124 19
519 1 -6.34983 5.27307 -1.58843 21
520 1 7.90801 8.14176 4.97917 18
521 1 -9.1545 -5.5102 2.98327 22
522 1 10.4733 5.11002 -10.7719 14
523 1 0.608308 -16.9544 1.73227 12
524 1 4.73672 6.30809 -11.9771 18
525 1 -4.6921 0.82847 -13.4624 19
526 1 2.42152 -0.726126 9.68945 20
527 1 2.17607 3.79606 -15.696 11
528 1 -9.20186 -5.81549 -3.43024 21
529 1 8.71061 -3.26312 -1.43264 22
530 1 -5.4134 -8.22701 0.480624 21
531 1 13.5141 5.54707 -6.57226 16
532 1 9.01199 -8.89973 1.89123 19
533 1 -6.26869 5.50186 12.0341 13
534 1 7.93876 -11.19 3.2671 19
535 1 17.7978 -3.00585 -4.69346 9
536 1 13.6119 -5.09027 3.93318 16
537 1 -1.05866 8.69107 9.03621 14
538 1 -8.10874 2.47557 12.3364 15
539 1 3.41391 -13.5723 5.10363 16
540 1 10.1835 0.317632 1.83427 20
541 1 8.11625 8.8196 11.3632 11
542 1 -14.6921 0.645643 -0.207124 14
543 1 13.8715 -10.9512 1.0595 8
544 1 5.74543 9.03889 -1.35962 18
545 1 9.49351 3.37805 11.3446 15
546 1 0.114649 11.7406 3.9618 12
547 1 5.53255 -11.3484 5.55971 23
548 1 -8.51397 -3.51872 -1.92773 21
549 1 2.95684 2.73935 11.4073 17
550 1 3.09606 12.6807 -2.07066 15
551 1 -12.2953 -12.6672 4.89455 9
552 1 11.2991 -7.18255 5.27782 18
553 1 10.5721 -6.12972 1.87926 19
554 1 9.89473 5.53298 5.0614 19
555 1 3.1346 -11.4973 -10.673 14
556 1 -2.83732 2.64452 -14.9654 15
557 1 -2.42074 -3.30075 11.7215 18
558 1 0.985538 10.55 -1.52004 19
559 1 17.4395 -0.124389 3.86729 9
560 1 5.07961 9.07762 -6.72645 19
561 1 -5.05777 3.27898 13.6679 16
562 1 5.14981 8.48885 6.71281 19
563 1 6.98062 -6.67787 -13.6638 12
564 1 -4.76305 -17.2182 -0.324749 12
565 1 -3.01249 -2.87831 -8.27093 21
566 1 12.9613 0.067652 8.22047 10
567 1 6.03507 -2.53107 -9.62421 19
568 1 -2.69808 -9.56407 -5.20242 20
569 1 17.1644 -1.90677 0.955093 13
570 1 5.0115 -9.83972 12.5773 11
571 1 -3.23555 -12.0348 -12.1049 9
572 1 8.39555 11.1767 -3.28619 17
573 1 -11.3293 2.23405 4.2126 21
574 1 16.4651 4.04038 -5.2269 11
575 1 5.7013 -8.13168 -15.2972 8
576 1 -5.88507 11.6944 4.5836 13
577 1 6.02352 -1.46123 -15.4412 11
578 1 7.88375 -6.01927 -2.87446 17
579 1 -12.8045 -0.658384 -0.896881 16
580 1 9.84035 7.03808 1.67697 20
581 1 -9.96376 -11.9216 -1.19355 17
582 1 7.0204 5.63691 10.492 19
583 1 -7.25994 -0.273253 -11.2831 17
584 1 -13.0985 2.96084 7.61419 12
585 1 -2.60815 2.72023 -8.28516 22
586 1 8.6935 -7.98079 -8.62012 17
587 1 -10.3621 -10.2861 -7.01929 13
588 1 14.0605 -6.17032 -8.9619 11
589 1 -12.8019 7.39349 0.47888 12
590 1 -7.54716 -10.7244 -4.48797 18
591 1 -3.28461 -11.5838 6.74398 17
592 1 13.6081 -2.68625 8.38471 9
593 1 8.35651 -2.64924 1.91826 18
594 1 -13.2618 3.28801 2.17274 16
595 1 2.37879 10.4811 9.61903 12
596 1 2.99768 7.43813 -8.59992 21
597 1 -3.49847 9.55503 6.91135 12
598 1 10.499 11.6525 -4.85974 9
599 1 6.02477 11.3143 9.86285 11
600 1 6.43296 -8.66736 9.73761 23
601 1 5.2005 8.74099 -9.58138 14
602 1 -6.06305 -6.30719 8.39191 19
603 1 -2.84639 -3.07856 -11.3554 19
604 1 -15.4038 -4.47394e-04 -3.93572 8
605 1 -4.28919 -14.6224 7.91839 11
606 1 7.72778 -6.94186 3.79765 23
607 1 2.4115 -11.9805 -3.77055 20
608 1 -14.2676 8.90157 -2.1265 6
609 1 13.4558 -3.01646 -8.62572 17
610 1 -9.32268 7.56869 1.52925 15
611 1 -8.59213 -4.03636 8.64297 19
612 1 -5.19101 -8.15744 -10.3798 20
613 1 0.0918517 -10.5543 -4.66162 16
614 1 5.88594 -13.5915 -0.37514 19
615 1 1.21199 5.69307 -10.5679 20
616 1 14.568 2.62241 -8.71536 11
617 1 8.90359 2.4419 1.64841 20
618 1 10.8512 -3.50628 0.22456 18
619 1 -0.832478 4.64015 -14.6463 14
620 1 -2.27052 -9.15957 8.59516 17
621 1 8.66994 8.70496 -1.29676 21
622 1 8.75799 -1.10897 -6.84032 20
623 1 -11.512 1.91952 0.330803 18
624 1 -6.12002 -11.7066 7.5318 17
625 1 4.06854 4.53144 5.40342 18
626 1 -1.01419 -17.0461 4.77901 8
627 1 2.30093 7.92613 -5.37733 21
628 1 -3.37095 5.98401 14.0433 11
629 1 -5.59869 -3.7572 10.2521 19
630 1 10.8616 -0.643139 -1.29477 17
631 1 -2.84065 -9.17811 11.4772 15
632 1 5.15122 -11.7633 1.33669 19
633 1 8.41258 2.33245 14.451 7
634 1 10.6895 -5.43693 -4.83439 19
635 1 -7.84797 0.670609 -14.1173 13
636 1 -7.50779 5.75475 -11.1656 12
637 1 -12.3004 4.56875 -1.16793 16
638 1 6.57891 8.07799 1.76968 22
639 1 -0.951492 5.08303 8.65718 20
640 1 -10.4503 -14.7951 0.6255 7
641 1 -4.08819 7.22743 -1.92579 22
642 1 11.9433 4.63912 9.67948 12
643 1 -2.49006 -8.93776 5.01741 21
644 1 6.93662 -5.90519 -10.6167 17
645 1 8.93405 -11.259 -3.8436 17
646 1 4.52043 0.338877 -10.1441 16
647 1 -6.56986 1.11794 -17.4132 9
648 1 -7.89377 -8.9617 -1.21214 21
649 1 -9.684 4.54065 -2.89874 17
650 1 -5.62073 0.690469 14.4679 11
651 1 7.84839 -5.73467 9.07967 21
652 1 -6.93211 -11.146 4.86476 18
653 1 14.2991 0.646326 0.490168 15
654 1 0.201106 3.19782 -9.64281 21
655 1 12.6855 6.21716 0.682831 17
656 2 -8.41341 0.317037 -9.12408 17
657 2 -2.23504 9.43304 -6.56541 23
658 2 2.24832 -2.73831 -13.0197 17
659 2 -5.19073 5.39285 13.5023 11
660 2 -6.88048 -12.7892 -9.19599 13
661 2 4.88781 2.0629 11.4784 19
662 2 -13.168 -6.91577 1.44312 18
663 2 -10.9149 6.81718 -5.11066 15
664 2 5.9013 14.5159 6.35404 10
665 2 -14.0284 0.197957 4.64008 12
666 2 7.71732 3.10136 2.99042 23
667 2 -11.3094 -6.19454 -6.64177 18
668 2 -8.32592 -0.42179 -1.51452 21
669 2 -0.493609 -9.29326 5.15396 23
670 2 3.35364 0.196071 8.27527 18
671 2 5.22628 -6.53542 -10.002 18
672 2 5.61661 -15.6426 2.79296 11
673 2 -6.18608 7.16154 -1.85072 23
674 2 -11.1975 0.833257 -9.97852 11
675 2 10.1838 3.83935 6.2041 20
676 2 6.82881 -16.967 -3.55095 12
677 2 -10.1114 -14.9844 2.70243 9
678 2 -12.2581 -5.03369 8.00711 11
679 2 -2.77896 -16.7634 4.08997 10
680 2 9.3522 -5.93984 4.65888 23
681 2 -2.55976 -15.933 -2.19384 16
682 2 5.40886 -1.11449 13.6626 11
683 2 -2.16323 10.0603 -10.2694 17
684 2 -10.6761 -10.4305 -1.98774 16
685 2 -0.902647 2.5421 14.9081 13
686 2 -8.45611 8.35603 3.13287 15
687 2 -3.77166 1.55346 14.6009 12
688 2 -4.40222 8.20271 -3.6371 23
689 2 6.19671 -14.4763 -2.29503 19
690 2 -0.340622 4.89198 6.77756 18
691 2 -1.40603 7.47364 -8.06387 23
692 2 4.85271 -8.91109 -5.32636 18
693 2 2.85238 -7.92012 -10.5777 20
694 2 7.7213 -2.72392 -6.41966 18
695 2 -2.42712 5.19777 15.5445 10
696 2 0.961428 2.55355 -16.8618 10
697 2 0.920614 7.38502 -13.1625 11
698 2 9.15919 5.08307 -4.53607 16
699 2 -4.53825 -5.65384 14.2377 9
700 2 -11.5957 8.77641 1.80303 11
701 2 12.9062 -2.23711 -10.4513 12
702 2 9.81001 -11.0823 -11.3566 11
703 2 -16.309 -5.91388 0.362682 5
704 2 10.7808 8.70367 2.03726 17
705 2 -3.20041 4.95713 5.1379 18
706 2 -0.943847 -11.6895 -9.50149 16
707 2 -4.23365 10.8384 5.56004 14
708 2 7.19935 -10.4639 9.0584 17
709 2 10.8222 -7.92001 1.60709 18
710 2 -12.0569 4.00371 0.719241 16
711 2 11.086 -5.25713 0.231175 17
712 2 3.94711 -16.916 -3.2594 10
713 2 7.96437 6.12346 5.30236 18
714 2 8.78309 -12.9063 3.80416 15
715 2 13.6606 -1.21172 7.0766 12
716 2 -3.51823 -2.74028 13.1802 14
717 2 15.1674 -4.81353 -8.35268 10
718 2 1.92943 2.66077 9.49619 18
719 2 11.9934 7.4875 5.44904 12
720 2 -7.67204 4.20447 11.5594 15
721 2 5.16216 5.09657 3.60908 21
722 2 15.3578 -4.47039 -0.178367 12
723 2 2.60064 5.28032 -8.79341 20
724 2 -8.32142 -5.68849 -8.18558 22
725 2 -5.45019 -0.592528 10.2829 19
726 2 10.2186 0.259982 -9.34279 16
727 2 -9.49776 1.99194 -2.63474 17
728 2 -13.9368 -0.694472 7.29719 12
729 2 -13.0934 -9.91226 1.40635 12
730 2 17.656 -0.3291 1.94952 10
731 2 -0.123776 -6.59489 7.22965 22
732 2 -0.487093 -2.94774 12.0717 18
733 2 3.0067 -5.45981 -12.0013 18
734 2 11.096 4.92673 11.3741 9
735 2 -2.92068 4.14257 8.78615 19
736 2 -8.76442 -0.658698 2.13255 19
737 2 4.54741 -8.93385 -8.71705 18
738 2 11.0829 5.2978 -8.96666 15
739 2 -6.38828 13.1613 3.36058 11
740 2 -1.23674 -11.6023 -0.136658 21
741 2 7.86693 -8.39966 -7.0949 15
742 2 1.85258 3.084 6.54977 20
743 2 10.6372 -12.4869 -6.80947 13
744 2 5.06583 -2.68428 8.2019 24
745 2 -0.0090645 -9.70368 8.19303 19
746 2 8.40735 -0.148063 2.04604 19
747 2 -8.92506 -10.571 4.44296 19
748 2 12.3313 0.301939 -10.9771 12
749 2 -2.63035 -14.0582 0.673344 19
750 2 12.0621 -9.9719 -6.29419 13
751 2 6.61408 -13.006 -11.1884 10
752 2 13.9168 -2.7892 -2.60817 19
753 2 -6.06646 10.14 3.38057 17
754 2 15.4105 -4.5938 -3.91858 11
755 2 -6.33663 -8.06283 -8.59475 21
756 2 -9.925 -10.2611 1.44446 17
757 2 -3.24539 -10.7641 2.62427 21
758 2 -6.4036 -7.84447 -1.82366 19
759 2 -2.89139 10.8132 1.13246 18
760 2 -9.25395 11.813 3.12331 9
761 2 13.7682 3.71383 -7.44236 14
762 2 5.71233 4.61529 -10.3087 18
763 2 -6.52006 -4.2713 12.1633 14
764 2 -6.20642 -0.411841 -13.7161 19
765 2 -11.9665 1.80019 2.19889 18
766 2 -4.36598 2.63859 11.814 24
767 2 -8.9398 1.77508 6.81472 21
768 2 7.74563 12.8759 5.53309 10
769 2 15.2436 -1.87425 -8.82516 11
770 2 12.4827 -6.64162 3.91413 14
771 2 -9.49503 -5.25876 10.3656 16
772 2 -0.930229 8.23379 1.65815 19
773 2 -10.5284 10.4524 -1.79003 9
774 2 -1.86412 9.14563 7.46665 13
775 2 12.4589 -4.25709 7.56497 12
776 2 -7.94102 -11.0139 -10.6158 11
777 2 1.77558 1.22579 -13.7184 19
778 2 12.7455 2.2934 4.79397 16
779 2 -10.6337 -7.9826 5.97584 15
780 2 -0.0788383 6.90146 -1.17571 18
781 2 -6.93381 10.3282 -8.78011 14
782 2 5.22818 12.5949 -6.10908 10
783 2 9.4657 2.1039 12.8888 11
784 2 -4.08124 2.39019 6.88055 18
785 2 11.0054 -6.55415 -3.2907 18
786 2 0.355322 -0.275981 13.5251 13
787 2 3.21406 -5.4667 8.01183 22
788 2 -14.4095 1.18728 -4.72343 9
789 2 -5.03945 -7.14527 -12.2025 17
790 2 3.3072 -13.0361 -6.99399 12
791 2 7.38625 -3.53306 -10.4547 16
792 2 15.1585 2.09018 -0.102071 13
793 2 -5.80646 -0.549967 13.2996 18
794 2 9.60172 -2.61972 -13.4633 13
795 2 -4.30094 -10.1566 10.3789 13
796 2 -2.28851 1.66716 -16.5546 11
797 2 2.53693 -13.8928 -3.55977 19
798 2 7.60116 -14.8564 0.646259 15
799 2 12.1791 7.10771 -6.4162 18
800 2 -7.69974 0.516584 -15.9806 10
801 2 1.053 9.03723 6.01482 17
802 2 -8.47509 -5.82298 -1.91964 18
803 2 -6.54851 3.24779 -8.37529 20
804 2 6.99331 9.64569 -6.19629 19
805 2 4.30471 8.86048 -4.87484 20
806 2 -5.08615 -15.3585 0.159551 18
807 2 16.529 1.37438 3.90044 10
808 2 -1.23049 2.00282 11.9136 19
809 2 -6.87485 -15.2134 -3.09841 13
810 2 7.97491 -10.5458 -5.43549 15
811 2 1.86854 1.88553 13.3021 15
812 2 3.05753 15.2725 6.09507 5
813 2 12.6083 -4.95156 -9.01182 15
814 2 6.60916 1.92915 13.7566 12
815 2 10.7497 9.81977 -5.70566 13
816 2 -11.0024 -3.02458 9.50059 13
817 2 10.5253 -1.29368 0.576139 15
818 2 6.17629 13.7724 2.51636 15
819 2 5.3736 5.35697 6.42408 17
820 2 -5.19711 -0.358953 -17.2055 11
821 2 8.55515 -9.59889 11.9652 10
822 2 -8.01002 14.8326 1.66702 7
823 2 0.739978 -12.1225 6.47611 20
824 2 12.047 -12.4152 4.91843 8
825 2 -8.7529 -15.2611 -0.0120823 9
826 2 -10.2955 10.387 -5.36494 11
827 2 -5.16776 -8.5749 -15.0443 11
828 2 -3.2858 -13.7571 -4.52999 17
829 2 0.2258 -0.96794 -9.73376 19
830 2 -5.5485 -10.1352 -11.1701 16
831 2 6.08855 11.9231 8.11512 12
832 2 -13.1361 -4.42251 -2.77334 17
833 2 -9.60968 2.55158 0.452169 19
834 2 8.42941 -6.90164 1.94524 17
835 2 -10.4521 7.14369 5.54284 10
836 2 -0.309242 -15.7268 0.553908 15
837 2 -6.65087 2.13478 13.6619 13
838 2 5.12764 2.19846 -8.24959 20
839 2 -3.59795 -3.56758 -9.89872 22
840 2 7.24574 8.94692 -10.0789 10
841 2 17.683 -0.761087 -0.608192 10
842 2 -5.75079 -5.04228 -9.24671 20
843 2 -13.0615 9.35843 -0.746161 9
844 2 -8.39386 9.53132 -3.40629 18
845 2 -3.94307 -3.10391 10.2407 21
846 2 -10.7122 -6.08837 -9.80125 14
847 2 2.83715 -5.42598 -8.37321 21
848 2 5.20539 -3.68785 -8.22894 21
849 2 6.36875 8.75643 3.5621 20
850 2 4.25247 -10.201 6.90935 19
851 2 2.01055 -3.19284 -10.0104 21
852 2 10.1955 -2.0041 11.6517 10
853 2 8.68555 -0.570984 -11.379 17
854 2 -0.827542 -8.63323 -5.13058 20
855 2 1.14003 7.66013 -10.1007 18
856 2 4.43418 10.4199 10.3365 13
857 2 13.0218 5.97702 2.52862 15
858 2 -13.1332 -3.61759 5.36477 13
859 2 -14.3841 2.31322 6.33579 12
860 2 -2.15065 -12.5544 5.10879 18
861 2 -0.853711 2.02542 -8.38689 22
862 2 -3.41067 -7.91788 3.91332 21
863 2 -6.04615 4.55765 3.0418 19
864 2 -8.10176 -6.43435 8.30488 17
865 2 3.49708 -11.4754 4.61771 19
866 2 -8.70893 7.97677 -0.542815 18
867 2 6.06704 -6.3289 -15.1893 9
868 2 -15.3883 -5.92983 3.35702 11
869 2 9.09435 -6.75313 12.5879 11
870 2 -6.33192 -9.15265 1.9092 22
871 2 -6.83375 -8.6073 5.35922 17