ITEM: TIMESTEP
48000
ITEM: NUMBER OF ATOMS
2000
ITEM: BOX BOUNDS pp pp pp
-30.0 30.0
-30.0 30.0
-30.0 30.0
ITEM: ATOMS id type x y z Coordination
1 1 -15.7258 7.12019 -0.0979259 15
2 1 -16.5545 1.20097 0.552507 14
3 1 -16.7073 1.69821 6.88538 10
4 2 -15.9309 -0.756491 -2.68256 16
5 2 -15.2699 6.2016 1.63439 16
6 2 -16.1885 3.52968 7.10138 10
7 1 5.88036 -17.3669 0.666568 11
8 1 2.85182 -17.206 1.87455 9
9 1 0.802629 -14.8061 0.0389251 17
10 2 0.642846 -14.0833 -5.36082 15
11 2 4.43415 -17.7353 1.80852 10
12 2 -0.972581 -15.4399 3.57651 15
13 2 -0.466095 -4.2847 -16.9854 14
14 1 -1.78501 -4.43677 -18.3469 10
15 1 -0.50113 -1.97125 -17.6346 12
16 2 -1.84874 -2.60143 -18.6157 12
17 1 -9.35032 -12.5239 -8.14032 12
18 1 -12.358 -7.70535 -9.6654 16
19 1 -13.9453 -10.1859 -8.36754 10
20 1 -12.5647 -6.60719 -6.40968 22
21 1 -16.0171 -7.37196 -4.45591 13
22 1 -13.9986 -9.38392 -5.21733 14
23 1 -12.8476 -7.08465 -3.18002 19
24 1 -15.7758 -7.71906 -1.16161 13
25 1 -14.097 -10.4386 -1.37595 12
26 1 -12.1266 -1.22878 -13.3764 12
27 1 -13.7608 -4.6261 -8.27332 17
28 1 -12.8812 -1.77853 -9.86499 17
29 1 -15.4172 -1.96084 -7.61743 14
30 1 -15.3084 -7.05266 -7.74407 13
31 1 -16.7971 -4.50052 -6.17612 12
32 1 -12.2932 -2.13629 -6.06418 22
33 1 -15.9073 -1.85545 -4.355 17
34 1 -14.0037 -4.03815 -5.0844 24
35 1 -16.4484 -4.76767 -2.41301 14
36 1 -12.6596 -1.1184 -3.26542 19
37 1 -15.4037 -1.70404 -1.03169 16
38 1 -13.9248 -4.9743 -1.46054 19
39 1 -6.11075 -12.9066 -8.67125 15
40 1 -8.8726 -15.0428 -6.34472 10
41 1 -6.91685 -12.4125 -5.82692 22
42 1 -9.67398 -12.3133 -4.84969 18
43 1 -7.67498 -15.2788 -3.92579 13
44 1 -7.22349 -12.35 -3.07684 16
45 1 -10.2097 -11.8046 -1.51296 20
46 1 -6.60796 -16.7375 -0.768079 7
47 1 -6.54673 -7.12963 -13.8016 19
48 1 -9.50433 -6.99583 -11.4573 16
49 1 -7.55617 -9.30201 -11.5117 13
50 1 -10.7502 -10.2303 -10.3259 11
51 1 -6.53378 -6.88867 -10.0429 21
52 1 -9.50724 -6.64669 -8.25344 18
53 1 -7.82518 -9.74136 -8.35511 20
54 1 -10.9635 -10.0987 -6.76855 19
55 1 -6.72916 -7.06912 -6.73131 20
56 1 -9.82347 -6.81374 -5.04009 21
57 1 -7.98198 -9.47304 -4.91312 21
58 1 -11.0446 -9.24452 -3.82401 22
59 1 -6.66242 -6.89457 -3.28694 21
60 1 -9.6268 -6.77584 -1.78596 21
61 1 -8.13449 -9.32083 -1.79305 23
62 1 -5.84344 -0.466689 -16.6598 16
63 1 -9.1569 -1.1688 -15.0659 16
64 1 -7.28115 -4.15824 -15.5353 15
65 1 -10.5011 -4.5864 -13.5041 10
66 1 -6.54689 -1.77494 -13.6201 19
67 1 -9.65732 -1.70843 -11.8116 21
68 1 -7.85073 -4.07162 -11.8539 21
69 1 -11.1667 -4.18352 -10.4212 18
70 1 -6.62013 -1.60307 -10.1339 20
71 1 -9.6658 -1.46279 -8.59187 20
72 1 -7.57849 -4.59667 -8.84328 22
73 1 -10.7925 -3.8838 -7.2843 23
74 1 -6.99454 -2.11243 -6.80869 21
75 1 -9.46682 -1.10904 -4.92738 23
76 1 -7.92421 -3.99281 -5.02627 22
77 1 -10.9158 -4.02376 -3.55342 23
78 1 -6.76526 -1.22731 -3.43939 22
79 1 -9.61093 -1.32134 -1.91654 23
80 1 -8.02842 -4.04314 -2.11285 22
81 1 -1.24291 -12.2448 -13.2973 10
82 1 -4.44743 -11.6933 -12.1408 14
83 1 -1.74278 -13.8235 -11.2775 8
84 1 -3.25641 -12.0717 -8.53415 16
85 1 -2.9826 -14.8049 -8.36177 13
86 1 -5.85569 -15.5101 -6.41373 15
87 1 -0.562058 -13.3265 -6.74027 16
88 1 -3.79156 -13.1699 -5.15303 18
89 1 -2.42972 -15.3772 -4.89697 14
90 1 -5.02651 -14.9335 -2.96305 17
91 1 -1.6878 -12.4961 -3.17653 20
92 1 -4.34665 -12.229 -1.27704 19
93 1 -2.34528 -15.1025 -1.20053 16
94 1 -3.88357 -6.98081 -14.9814 17
95 1 -5.9614 -7.05325 -17.196 9
96 1 -1.97048 -9.82733 -15.1122 12
97 1 -5.5397 -9.61612 -14.6083 12
98 1 -0.759402 -6.75949 -13.7509 20
99 1 -3.90812 -7.65191 -11.683 23
100 1 -1.67868 -9.24924 -11.5929 18
101 1 -4.58638 -9.9488 -10.0216 18
102 1 -0.580708 -7.14063 -10.3657 21
103 1 -3.7337 -6.7404 -8.09262 20
104 1 -2.06246 -8.91237 -8.21018 18
105 1 -5.28386 -10.1961 -6.54018 22
106 1 -0.551162 -7.1518 -6.45797 23
107 1 -3.85909 -7.15664 -4.92433 22
108 1 -2.07889 -9.96931 -5.06705 19
109 1 -5.07752 -9.46078 -3.52114 22
110 1 -0.917887 -7.09205 -2.93264 21
111 1 -3.93478 -6.5829 -1.52975 23
112 1 -2.06483 -9.41217 -1.74125 24
113 1 -4.8676 -4.10371 -17.2418 15
114 1 -3.43654 -1.41585 -18.6283 11
115 1 -4.00343 -2.28134 -15.0426 18
116 1 -1.56291 -4.27717 -15.3404 19
117 1 -4.64967 -4.8742 -13.3451 22
118 1 -0.910262 -1.1463 -13.6338 18
119 1 -3.5848 -1.83414 -11.811 19
120 1 -1.20638 -3.95574 -11.8666 21
121 1 -4.51859 -4.51566 -10.2429 21
122 1 -1.08251 -1.68629 -10.028 23
123 1 -3.96198 -2.03663 -8.6913 22
124 1 -1.86769 -4.64785 -8.31762 24
125 1 -4.81645 -4.41809 -6.4428 20
126 1 -1.20518 -1.76917 -6.84189 22
127 1 -4.31536 -1.98068 -5.185 21
128 1 -1.88748 -4.55214 -5.07703 22
129 1 -4.89833 -4.03678 -3.24881 22
130 1 -1.22335 -1.84461 -3.58203 21
131 1 -4.04566 -1.58845 -1.61925 20
132 1 -1.99337 -3.80816 -1.70668 21
133 2 -15.2349 -8.86328 -6.81014 9
134 2 -15.9764 -6.35858 -6.07713 13
135 2 -12.5268 -9.62996 -9.67526 9
136 2 -12.9817 -10.0763 -6.72269 17
137 2 -16.1366 -6.54588 -2.8203 16
138 2 -12.8424 -10.0658 -3.51979 17
139 2 -13.7255 -7.60003 -4.74595 19
140 2 -14.0349 -7.04774 -1.43394 20
141 2 -12.9138 -3.77025 -9.441 15
142 2 -13.5715 -6.53896 -8.05123 17
143 2 -15.3193 -3.87407 -7.4279 15
144 2 -13.4618 -1.43532 -7.91427 21
145 2 -16.6209 -1.39154 -6.3035 13
146 2 -12.3342 -4.30142 -6.3306 18
147 2 -16.2085 -4.14937 -4.23473 14
148 2 -13.6462 -2.17739 -4.86737 18
149 2 -15.6177 6.09877 -1.48615 15
150 2 -13.0324 -4.53738 -3.42786 22
151 2 -15.427 -3.50229 -1.21114 19
152 2 -13.5823 -1.10108 -1.67714 17
153 2 -7.49899 -16.1484 -5.60867 11
154 2 -7.24781 -14.0593 -7.2843 13
155 2 -4.22034 -15.0695 -4.70873 18
156 2 -7.89254 -13.4698 -4.42143 17
157 2 -7.40978 -11.7479 -7.51772 18
158 2 -6.84715 -15.6783 -2.35367 12
159 2 -11.2982 -12.4102 -3.99404 13
160 2 -8.38289 -12.1147 -1.56564 16
161 2 -6.22329 -3.59129 -13.8185 17
162 2 -10.9292 -2.76706 -13.2401 13
163 2 -6.496 -9.37159 -13.0433 14
164 2 -9.35555 -9.06633 -10.8374 14
165 2 -7.60992 -7.25286 -11.8784 17
166 2 -10.6843 -6.77795 -9.61668 18
167 2 -6.41972 -8.94565 -9.5223 18
168 2 -10.0591 -10.6647 -8.48098 13
169 2 -7.50665 -6.53589 -8.40649 20
170 2 -10.6503 -7.24373 -6.67905 21
171 2 -9.94851 -13.4953 -6.70867 12
172 2 -9.77932 -9.9582 -5.21225 21
173 2 -7.99152 -7.2608 -4.76212 21
174 2 -10.9653 -7.4484 -3.06557 21
175 2 -7.21406 -10.0511 -3.21249 24
176 2 -10.3271 -9.86535 -1.74435 20
177 2 -7.81707 -7.4684 -1.80969 24
178 2 -4.6512 -2.17844 -17.3296 14
179 2 -8.91172 -4.86621 -14.6253 11
180 2 -7.33073 -1.06156 -15.4286 14
181 2 -10.7747 -0.159475 -14.3811 12
182 2 -5.9994 -7.92817 -15.4738 12
183 2 -9.63006 -4.90596 -11.4655 16
184 2 -7.71782 -1.64506 -11.933 19
185 2 -10.6706 -2.32958 -9.95257 20
186 2 -6.50685 -4.449 -10.7557 20
187 2 -9.46387 -4.05208 -8.70269 20
188 2 -7.5634 -1.08398 -8.57493 22
189 2 -10.6225 -1.5931 -6.69969 21
190 2 -6.61068 -3.96671 -7.00766 20
191 2 -9.58595 -4.7144 -4.62084 20
192 2 -7.76607 -1.82296 -5.07647 21
193 2 -10.7747 -1.73145 -3.37029 21
194 2 -6.6946 -4.55129 -3.50658 22
195 2 -10.436 -5.06263 -2.00995 21
196 2 -7.87636 -2.04098 -1.88226 23
197 2 -2.84078 -12.8802 -12.6844 10
198 2 -3.60194 -10.0032 -8.04791 18
199 2 -4.9595 -11.8584 -9.81482 14
200 2 -2.52056 -13.3829 -9.67258 13
201 2 -4.822 -12.2273 -6.65251 20
202 2 -4.56641 -16.0095 -7.68099 11
203 2 -2.27942 -14.3315 -6.63422 15
204 2 -2.56734 -11.6804 -4.95898 21
205 2 -5.6105 -13.2107 -2.64549 18
206 2 -1.3834 -14.2754 -3.6772 16
207 2 -4.20703 -15.2021 -1.09249 15
208 2 -2.37147 -12.9403 -1.2959 21
209 2 -6.21766 -5.08275 -16.8633 12
210 2 -3.62289 -9.09496 -14.8313 17
211 2 -0.283384 -8.36721 -15.1316 12
212 2 -4.81921 -6.81396 -13.1454 18
213 2 -1.15122 -10.234 -12.991 17
214 2 -3.73944 -9.72812 -11.762 19
215 2 -1.97027 -7.01001 -11.9055 23
216 2 -4.63236 -6.58449 -9.85453 21
217 2 -0.895875 -9.21269 -9.6152 20
218 2 -6.85697 -9.13317 -6.62393 18
219 2 -1.79938 -6.61212 -8.05946 21
220 2 -4.77567 -6.46376 -6.4172 21
221 2 -1.00675 -9.14354 -6.49843 18
222 2 -4.06695 -9.65837 -5.21998 18
223 2 -1.88016 -6.69404 -5.00853 23
224 2 -4.81315 -7.43982 -3.2132 21
225 2 -1.06958 -9.44499 -3.46496 19
226 2 -3.94258 -10.1023 -1.89311 20
227 2 -2.20091 -7.38379 -1.57179 20
228 2 -3.7183 0.761522 -17.8072 11
229 2 -3.46586 -5.13785 -18.345 11
230 2 -3.16679 -5.36627 -14.7613 21
231 2 -2.12096 -1.56919 -15.1882 19
232 2 -4.82096 -1.02721 -13.7834 20
233 2 -0.523263 -4.59454 -13.6456 19
234 2 -3.39189 -4.01072 -11.7585 21
235 2 -1.52764 -1.8495 -11.848 19
236 2 -4.76625 -1.31669 -10.2986 23
237 2 -0.957489 -4.06913 -10.0396 22
238 2 -3.80351 -3.86708 -8.33615 23
239 2 -1.76818 -0.899662 -8.2811 23
240 2 -4.83633 -1.38611 -7.06541 21
241 2 -0.879276 -3.71117 -6.65519 22
242 2 -4.02528 -4.17818 -4.7716 20
243 2 -2.15616 -1.3009 -5.05566 21
244 2 -5.07716 -1.82899 -3.06616 21
245 2 -0.993392 -4.13977 -3.39154 20
246 2 -3.84479 -4.4648 -1.32015 22
247 2 -2.1787 -1.31589 -1.71675 21
248 1 -12.8633 -12.0718 -3.28955 11
249 1 -12.8217 -12.4533 0.460348 10
250 1 -12.888 -6.91311 0.293029 23
251 1 -15.9203 -7.72565 2.26912 12
252 1 -13.2959 -9.28996 2.01408 15
253 1 -12.8389 -6.49961 3.18717 25
254 1 -15.6691 -7.3966 5.37669 13
255 1 -12.4073 -9.35087 5.6333 16
256 1 -12.8128 -6.17425 6.73425 18
257 1 -14.0472 -8.48698 8.07072 10
258 1 -12.5964 -6.44763 10.2913 13
259 1 -16.1628 -4.87961 0.38823 16
260 1 -12.5465 -1.20478 -0.0586006 22
261 1 -15.7401 -1.79308 1.85299 17
262 1 -13.7832 -3.7587 1.83051 20
263 1 -15.9197 -5.03413 3.92567 16
264 1 -12.493 -0.989933 3.43753 22
265 1 -15.5894 -1.7138 5.09072 16
266 1 -13.5256 -4.05677 4.96552 22
267 1 -13.507 -3.20314 8.35802 22
268 1 -12.4578 -1.07771 6.8707 22
269 1 -16.0522 -4.11589 7.0056 11
270 1 -15.4256 -1.01543 8.63729 12
271 1 -12.7799 -0.714362 10.3081 18
272 1 -13.6374 -3.5165 11.8593 10
273 1 -12.494 -1.4812 13.4353 13
274 1 -7.0907 -11.9748 0.174098 21
275 1 -9.77343 -11.8175 1.84698 18
276 1 -7.95694 -14.9112 1.67049 12
277 1 -6.59328 -12.3268 3.17645 20
278 1 -10.0648 -12.1108 5.00438 13
279 1 -7.4091 -14.5205 5.07313 15
280 1 -5.98361 -13.6012 7.82795 13
281 1 -8.73911 -12.0099 7.23034 16
282 1 -6.72811 -12.6702 10.2664 13
283 1 -11.1648 -9.22932 -0.245242 24
284 1 -6.84177 -6.74409 -0.293865 20
285 1 -9.96736 -6.3417 1.18166 22
286 1 -7.69862 -9.28092 1.63144 23
287 1 -10.2374 -8.85467 3.02714 20
288 1 -6.89567 -6.7105 3.31758 20
289 1 -10.1301 -6.42633 4.6434 20
290 1 -7.95461 -9.33584 4.94262 19
291 1 -11.24 -11.0103 8.09311 9
292 1 -7.05182 -7.13802 6.56049 21
293 1 -9.51312 -6.28203 9.27454 17
294 1 -8.08399 -9.3766 8.39606 19
295 1 -9.87043 -11.0819 10.9331 12
296 1 -6.80266 -6.85165 9.64071 20
297 1 -9.82807 -7.47831 11.8984 13
298 1 -7.39934 -9.79114 12.0017 16
299 1 -7.5997 -6.51675 13.6252 12
300 1 -10.9562 -4.21012 -0.156126 21
301 1 -7.08636 -1.18373 0.278107 24
302 1 -9.81675 -1.22979 1.65435 23
303 1 -7.92931 -4.02423 1.72866 23
304 1 -10.7145 -3.739 3.18613 24
305 1 -7.07314 -0.916988 3.08771 24
306 1 -9.654 -1.14366 5.11227 22
307 1 -8.0516 -3.77932 4.92985 21
308 1 -10.5797 -3.66604 6.76966 20
309 1 -6.66831 -1.05045 6.49545 22
310 1 -9.69367 -0.693169 8.5402 22
311 1 -7.86229 -3.67649 8.68274 21
312 1 -10.8978 -3.38701 10.0179 23
313 1 -6.91468 -1.43427 10.3076 19
314 1 -9.93448 -1.31966 11.7378 20
315 1 -8.03863 -4.20059 11.955 23
316 1 -10.6233 -4.39156 13.2618 17
317 1 -6.78837 -1.05069 13.4291 22
318 1 -9.57704 -1.35334 14.6839 15
319 1 -8.11634 -4.0621 15.3356 13
320 1 -4.76116 -14.8322 0.84866 20
321 1 -1.074 -12.3837 0.450553 23
322 1 -3.85249 -12.3184 2.01299 22
323 1 -1.87673 -15.4443 1.99342 16
324 1 -4.69285 -15.3715 3.50681 17
325 1 -1.23394 -12.919 3.83711 20
326 1 -3.81083 -12.8725 5.44799 24
327 1 -1.92916 -16.2647 4.95348 14
328 1 -4.45271 -16.4441 6.87107 11
329 1 -0.897005 -12.2739 7.14309 22
330 1 -3.70245 -12.9612 8.62396 20
331 1 -1.52148 -15.4767 8.1856 9
332 1 -1.28913 -11.7253 10.4864 18
333 1 -4.293 -11.9339 12.1846 12
334 1 -1.06069 -12.2391 13.9592 10
335 1 -5.00398 -9.48582 -0.448192 23
336 1 -1.12124 -6.87644 0.169414 22
337 1 -4.17648 -6.90549 1.74047 22
338 1 -1.89597 -9.92914 1.92877 21
339 1 -4.7556 -9.74902 3.30223 20
340 1 -1.30144 -6.98402 3.42411 21
341 1 -3.91376 -7.20594 5.10576 21
342 1 -2.19511 -10.2886 5.33272 23
343 1 -5.30159 -10.3008 6.98879 23
344 1 -1.18851 -7.09288 6.60528 23
345 1 -4.30373 -6.94211 8.05747 22
346 1 -2.36668 -9.75578 8.48364 23
347 1 -4.84088 -9.7817 10.1224 22
348 1 -1.47254 -7.15293 9.92631 19
349 1 -3.93334 -6.16213 11.2747 21
350 1 -2.3739 -9.20624 11.8737 20
351 1 -5.30376 -8.63896 13.0912 12
352 1 -1.0124 -6.85478 13.1008 19
353 1 -3.47139 -6.30181 14.9891 14
354 1 -1.72505 -9.20364 14.9894 11
355 1 -5.39676 -3.98613 0.218824 23
356 1 -1.17734 -1.21537 -0.0386182 23
357 1 -4.14487 -1.40834 1.51659 22
358 1 -2.1703 -4.36602 1.7502 20
359 1 -5.10664 -3.54441 3.19124 21
360 1 -1.06937 -1.78292 3.28424 22
361 1 -3.64528 -1.60156 4.79598 21
362 1 -2.11504 -4.34901 5.38518 21
363 1 -5.28317 -4.06344 6.41066 20
364 1 -1.02868 -1.75 6.71641 21
365 1 -4.09381 -1.54657 8.47719 20
366 1 -2.19278 -4.77655 8.64669 24
367 1 -5.45126 -4.3529 9.88631 20
368 1 -1.54857 -1.64333 9.98351 20
369 1 -3.94714 -2.27299 11.6476 21
370 1 -2.05894 -4.38716 11.8726 25
371 1 -5.31235 -4.26736 13.8787 19
372 1 -1.03429 -1.32956 13.4323 20
373 1 -4.17782 -1.36952 14.773 22
374 1 -2.1447 -3.94783 15.0745 19
375 2 -16.2815 -6.66507 0.630729 15
376 2 -13.0552 -10.4443 0.567277 15
377 2 -15.156 -9.32362 -0.420743 13
378 2 -13.9914 -7.56904 2.02421 21
379 2 -16.4597 -6.83731 3.9468 10
380 2 -12.0551 -9.38523 3.63695 15
381 2 -15.1655 -5.66922 6.19156 15
382 2 -13.1019 -6.93264 8.54625 13
383 2 -14.2572 -8.40533 6.10603 11
384 2 -9.6123 -10.6034 8.93236 14
385 2 -16.3003 -0.715014 0.247135 14
386 2 -12.7906 -4.85666 0.249536 22
387 2 -15.6908 -4.38241 2.15136 17
388 2 -13.5979 -1.88742 1.49149 21
389 2 -15.7608 -0.686737 3.47928 15
390 2 -12.9042 -4.68191 3.30174 24
391 2 -15.7329 -3.62961 5.26482 16
392 2 -13.6524 -1.75123 4.72975 19
393 2 -15.5796 0.745948 8.0666 13
394 2 -12.5917 -4.04072 6.86046 19
395 2 -15.3279 -2.73672 8.2036 14
396 2 -13.2704 -0.939799 8.54214 17
397 2 -12.9757 -3.97888 10.1337 16
398 2 -10.9789 -1.19938 9.93275 20
399 2 -13.58 -12.2819 -1.17372 9
400 2 -6.56239 -15.7685 0.804279 11
401 2 -11.0846 -12.8072 0.805194 11
402 2 -8.15891 -12.803 1.57624 18
403 2 -12.4845 -9.81974 8.33272 11
404 2 -6.63027 -14.4657 3.31039 15
405 2 -8.43756 -13.0608 5.37602 14
406 2 -7.57961 -13.0595 8.64008 16
407 2 -5.90633 -15.1552 6.91488 12
408 2 -8.0112 -11.3936 11.5691 12
409 2 -10.861 -7.3891 0.0088226 22
410 2 -6.92312 -9.89115 -0.305533 21
411 2 -10.1313 -10.0931 1.27342 21
412 2 -8.00288 -7.24758 1.37793 22
413 2 -10.9558 -6.84617 2.76252 20
414 2 -6.7527 -10.2969 3.42742 21
415 2 -9.27744 -10.5028 4.21645 16
416 2 -7.98052 -7.28105 4.62449 18
417 2 -11.581 -7.39477 5.76828 17
418 2 -7.08785 -9.38272 6.58919 17
419 2 -10.6479 -11.8267 6.60652 10
420 2 -8.06197 -7.40913 8.23946 17
421 2 -10.8963 -6.81504 10.5898 13
422 2 -6.7713 -9.39322 9.78748 22
423 2 -9.74508 -9.25722 11.4741 11
424 2 -7.96979 -5.74645 10.6327 19
425 2 -12.4314 -3.70759 13.0881 12
426 2 -7.20526 -8.31621 13.1765 13
427 2 -6.78593 -3.18443 16.2625 14
428 2 -10.6611 -1.89152 -0.219267 23
429 2 -6.92391 -4.77169 -0.659799 21
430 2 -9.81743 -4.19518 1.53744 19
431 2 -7.74177 -2.1582 1.97464 23
432 2 -10.6139 -1.8939 3.5894 24
433 2 -6.91262 -4.71365 3.42273 22
434 2 -10.0091 -4.5513 4.85578 21
435 2 -7.83508 -1.83167 4.73686 22
436 2 -10.2677 -1.7349 6.86807 22
437 2 -7.26168 -3.98196 6.79074 18
438 2 -9.82051 -4.16045 8.55681 20
439 2 -7.60135 -1.25893 8.25289 19
440 2 -12.847 1.17328 10.25 15
441 2 -7.11266 -3.3294 10.4354 23
442 2 -9.9866 -3.31911 11.7789 22
443 2 -7.79667 -0.471078 11.7017 20
444 2 -10.8638 -0.339042 13.8182 17
445 2 -7.28755 -4.63793 13.7054 17
446 2 -9.38439 -5.99979 13.6432 13
447 2 -7.96245 -0.737859 15.3135 16
448 2 -4.99874 -12.7124 0.543819 22
449 2 -1.07185 -15.6462 0.241424 13
450 2 -3.55212 -14.95 2.17517 18
451 2 -1.91962 -12.2786 2.33314 21
452 2 -4.70729 -12.2994 3.77302 19
453 2 2.3307 -16.0361 0.13253 13
454 2 -4.02032 -16.4763 4.99924 12
455 2 -1.95395 -12.3201 5.32329 21
456 2 -4.77083 -12.1198 7.1152 20
457 2 -0.93442 -16.0057 6.4656 12
458 2 -3.17835 -14.6951 8.07472 15
459 2 -2.05975 -11.6449 8.63124 22
460 2 -4.90594 -12.0896 10.2505 18
461 2 -2.41561 -12.0366 12.3453 14
462 2 -4.92743 -7.48949 -0.168316 22
463 2 -1.16181 -10.4 0.0528231 22
464 2 -3.91689 -10.2616 1.26067 23
465 2 -2.40545 -7.17792 1.46809 23
466 2 -4.98084 -7.46547 3.32256 20
467 2 -1.06214 -8.97057 3.44922 25
468 2 -3.98125 -9.19592 4.96634 24
469 2 -2.01212 -6.52766 5.15904 22
470 2 -5.06314 -6.14356 6.38774 23
471 2 -1.26432 -9.08094 6.36812 19
472 2 -4.31291 -9.43039 8.12973 22
473 2 -2.18745 -6.87448 8.28738 21
474 2 -5.08569 -6.12975 9.53306 21
475 2 -1.21823 -9.62989 10.3686 20
476 2 -4.26747 -9.74185 11.8812 16
477 2 -1.95771 -6.39731 11.6861 19
478 2 -4.70972 -6.7405 13.3839 16
479 2 -0.798011 -8.8069 13.1658 21
480 2 -1.12195 -11.106 15.5045 7
481 2 -1.99839 -7.41072 14.7277 15
482 2 -5.33359 -1.84809 0.0501956 22
483 2 -1.31215 -4.64057 -0.138589 22
484 2 -4.18244 -4.61827 1.92337 19
485 2 -2.31361 -2.28013 1.50639 24
486 2 -5.20028 -0.903885 3.20711 20
487 2 -1.14131 -4.05564 3.49969 21
488 2 -3.64208 -3.56321 4.60875 19
489 2 -1.96088 -0.967596 4.97316 19
490 2 -4.86526 -1.82186 6.61261 19
491 2 -0.738806 -3.87057 7.14785 20
492 2 -3.97053 -3.66002 8.77979 23
493 2 -2.21397 -1.44688 8.15638 21
494 2 -5.04227 -0.798323 10.5382 20
495 2 -1.34625 -3.80881 10.2414 21
496 2 -4.20967 -4.29852 11.4027 19
497 2 -2.05895 -1.11762 11.705 23
498 2 -5.06518 -2.27854 13.367 22
499 2 -0.985718 -3.9389 13.5136 20
500 2 -3.96771 -4.52436 15.361 18
501 2 -1.91353 -1.88608 15.2944 19
502 1 -13.0349 0.840294 -11.3778 13
503 1 -12.208 3.54125 -13.7145 10
504 1 -12.2118 3.84669 -10.6912 15
505 1 -13.629 0.699486 -8.06325 14
506 1 -16.7609 0.678402 -6.36392 9
507 1 -12.6025 3.61168 -7.02612 21
508 1 -16.0429 4.07533 -1.55379 16
509 1 -13.7994 1.19623 -5.17891 22
510 1 -16.5853 1.36205 -2.87895 13
511 1 -12.8697 3.98741 -3.57688 21
512 1 -16.2296 6.70099 -3.26679 10
513 1 -13.4675 1.07889 -1.88612 22
514 1 -12.6984 8.47262 -6.88519 10
515 1 -10.1007 7.15493 -9.63695 15
516 1 -15.7552 3.63896 -5.49986 14
517 1 -14.349 5.82916 -8.16436 12
518 1 -12.8941 8.98601 -0.167233 15
519 1 -10.1578 12.9551 -7.28709 11
520 1 -14.1308 6.10233 -4.93831 16
521 1 -13.732 6.71851 -2.03287 20
522 1 -6.13081 5.72527 -15.2199 13
523 1 -9.23822 4.41144 -15.4095 11
524 1 -7.61376 1.98216 -15.4271 15
525 1 -10.4086 1.362 -13.4442 17
526 1 -8.20095 6.92406 -12.8619 17
527 1 -9.61878 4.55257 -10.9987 20
528 1 -7.34228 0.751123 -12.2714 22
529 1 -10.4492 1.25478 -9.8809 23
530 1 -6.77139 3.34912 -10.0951 24
531 1 -9.82901 3.66014 -8.15556 21
532 1 -7.14319 0.718786 -8.63326 20
533 1 -10.5224 0.818397 -6.5769 21
534 1 -6.52604 3.85257 -6.86692 22
535 1 -9.42883 3.59863 -5.00459 20
536 1 -7.45817 1.19914 -5.09569 21
537 1 -10.7416 1.4714 -3.57218 20
538 1 -6.79335 4.36497 -3.50301 21
539 1 -9.4439 3.86581 -1.98141 20
540 1 -7.64479 1.66818 -1.72156 25
541 1 -7.05654 8.45088 -10.3311 18
542 1 -11.1774 6.58072 -13.0737 9
543 1 -5.89891 10.0768 -13.0306 12
544 1 -5.17117 7.00375 -12.22 18
545 1 -3.93672 3.7007 -15.059 20
546 1 -10.4888 9.8976 -8.29593 13
547 1 -8.97417 10.9002 -10.734 10
548 1 -11.6889 11.1459 -4.84301 14
549 1 -7.93877 6.26397 -8.19245 22
550 1 -10.7733 6.1732 -6.84106 18
551 1 -6.65782 9.07967 -7.41608 19
552 1 -9.8615 8.58996 -5.0309 18
553 1 -7.81542 6.58204 -5.08451 19
554 1 -10.9303 6.55191 -3.61212 19
555 1 -7.04049 9.17752 -3.60628 20
556 1 -10.1104 9.63878 -1.86938 20
557 1 -8.18884 6.78476 -1.69139 21
558 1 -7.50312 12.5126 -8.49283 17
559 1 -9.04968 15.3993 -1.95275 10
560 1 -7.01554 14.3402 -6.3329 13
561 1 -8.05699 11.5618 -5.31758 20
562 1 -9.87716 13.0334 -3.64316 16
563 1 -6.79734 14.775 -3.21521 15
564 1 -8.75827 15.4248 1.35641 11
565 1 -7.88418 12.2068 -1.58439 20
566 1 -5.18363 2.20895 -17.7373 11
567 1 -1.01565 3.90042 -16.7828 16
568 1 -6.84398 3.44006 -13.2594 18
569 1 -2.40966 0.635005 -16.3686 22
570 1 -4.59863 1.04222 -13.3029 20
571 1 -1.09806 3.16552 -13.9651 22
572 1 -3.45169 4.24166 -11.6082 23
573 1 -1.66154 1.73845 -11.6496 19
574 1 -4.80638 0.693784 -9.865 21
575 1 -0.905623 4.35328 -10.3058 20
576 1 -3.90687 3.43724 -8.4108 22
577 1 -2.13574 0.816502 -8.53049 21
578 1 -5.0007 0.362052 -6.50761 23
579 1 -1.06198 3.603 -6.85944 22
580 1 -4.07074 3.55488 -5.05182 22
581 1 -2.16774 0.74603 -4.88635 23
582 1 -4.92027 1.18111 -3.13126 22
583 1 -1.3312 3.73652 -3.40858 20
584 1 -4.03043 3.99437 -1.88186 20
585 1 -2.29678 1.02327 -1.24869 20
586 1 -3.62645 5.53301 -17.7342 11
587 1 -3.80126 8.37996 -15.5494 12
588 1 -0.781595 7.23498 -16.5678 16
589 1 -2.17141 6.35674 -14.397 22
590 1 -0.913812 9.30519 -13.8034 17
591 1 -2.99055 10.3369 -12.9459 13
592 1 -2.07093 7.0153 -11.7409 20
593 1 -5.06757 5.81997 -9.75992 21
594 1 -1.15301 9.61119 -10.0079 19
595 1 -4.00658 8.42328 -8.05424 21
596 1 -2.09531 6.54538 -8.43453 21
597 1 -5.05579 6.13461 -6.52425 24
598 1 -1.00334 9.13956 -6.64265 23
599 1 -3.81164 9.32762 -4.96078 21
600 1 -2.11763 6.59244 -5.2702 23
601 1 -5.09833 6.99473 -3.60801 21
602 1 -0.901532 9.0182 -3.29478 20
603 1 -4.10653 9.4068 -1.53565 21
604 1 -2.13676 6.69053 -1.95907 19
605 1 -0.142356 12.7118 -12.8823 12
606 1 -5.25322 11.4792 -10.2149 16
607 1 -4.02236 14.1441 -8.24766 14
608 1 -2.36947 11.4507 -8.29328 19
609 1 -4.87542 11.6192 -6.80704 21
610 1 -1.07257 13.8924 -7.00476 19
611 1 -3.9643 13.728 -5.2172 18
612 1 -1.92367 11.8402 -4.87484 20
613 1 -5.24993 11.6865 -3.63969 20
614 1 -0.837917 14.481 -3.65221 16
615 1 -3.75368 14.0275 -1.94127 18
616 1 -1.96068 11.9093 -1.7645 23
617 2 -12.8346 -1.05192 -11.7183 15
618 2 -12.0498 2.14737 -12.4371 14
619 2 -12.483 1.38378 -9.64433 16
620 2 -15.2789 0.885544 -7.24895 13
621 2 -11.1159 7.78945 -8.07086 14
622 2 -12.8883 4.791 -8.97609 17
623 2 -12.2226 1.60875 -6.80601 20
624 2 -16.2441 1.98667 -4.58012 14
625 2 -13.9204 3.92095 -5.23177 18
626 2 -14.9988 8.08858 -3.0931 12
627 2 -12.5679 0.693608 -3.4697 21
628 2 -16.7471 2.46818 -1.47822 11
629 2 -13.8475 3.05449 -1.41891 18
630 2 -12.1051 5.0503 -12.5866 9
631 2 -9.57406 6.58985 -11.6318 15
632 2 -15.0558 4.23935 -7.18958 13
633 2 -14.8632 9.12639 -0.278256 12
634 2 -13.404 6.71075 -6.62606 15
635 2 -15.8955 5.54671 -4.54667 14
636 2 -14.2494 11.6094 -3.433 6
637 2 -10.5546 8.65055 -3.31952 18
638 2 -10.1052 11.5864 -1.80013 18
639 2 -6.64768 1.28401 -17.1519 10
640 2 -9.4376 2.57026 -14.9651 14
641 2 -7.28147 4.02963 -15.0873 16
642 2 -9.8383 5.92543 -14.3886 11
643 2 -6.57398 1.58731 -13.6647 21
644 2 -9.24253 0.202946 -11.7256 23
645 2 -7.97647 3.61182 -11.732 21
646 2 -10.4211 3.19466 -10.0308 20
647 2 -6.8135 1.02488 -10.5263 20
648 2 -9.50233 0.599425 -8.22075 18
649 2 -7.52203 4.319 -8.39702 21
650 2 -10.7859 4.27589 -6.53441 20
651 2 -6.8331 1.04972 -6.89132 21
652 2 -9.29138 1.32185 -5.25083 19
653 2 -7.56843 4.17614 -5.16082 22
654 2 -10.6746 3.40283 -3.42169 22
655 2 -6.94107 0.656005 -3.40204 21
656 2 -9.39082 0.726845 -2.20912 21
657 2 -7.78513 3.60799 -1.90555 22
658 2 -6.63648 8.27872 -12.3063 14
659 2 -9.16012 9.1449 -10.0498 15
660 2 -6.75383 12.459 -6.88406 21
661 2 -5.98248 9.83268 -9.56956 19
662 2 -6.72546 6.76546 -9.76782 22
663 2 -11.3425 9.88412 -6.35288 15
664 2 -9.74641 5.61195 -8.86791 18
665 2 -9.60553 12.4316 -5.67871 16
666 2 -6.736 7.26389 -6.70237 23
667 2 -9.66675 6.64118 -5.34621 21
668 2 -8.01769 9.48191 -5.75183 18
669 2 -12.772 5.89382 -3.35998 18
670 2 -6.94508 6.72427 -3.42774 21
671 2 -10.0695 6.16172 -1.77806 21
672 2 -7.96332 8.93358 -1.89892 21
673 2 -9.9384 11.5792 -8.62202 11
674 2 -7.51509 12.1291 -10.2971 12
675 2 -8.55785 14.1601 -7.64833 9
676 2 -9.43399 14.3291 -0.36653 17
677 2 -8.19536 13.6128 -2.82261 15
678 2 -7.30123 11.2305 -3.45422 18
679 2 -9.85309 11.3306 1.12291 22
680 2 -7.0114 15.823 -1.72537 11
681 2 -4.43648 3.96424 -17.0865 15
682 2 -1.31115 2.08124 -16.8658 15
683 2 -4.01153 1.75348 -15.139 20
684 2 -2.11399 4.57553 -15.1159 19
685 2 -5.21094 4.54723 -13.3956 20
686 2 -1.01528 1.09836 -13.4317 20
687 2 -3.6461 1.27497 -11.3363 20
688 2 -1.67765 3.70545 -12.0337 22
689 2 -4.96819 3.77877 -10.2104 20
690 2 -1.01605 1.70801 -9.75822 23
691 2 -4.02216 1.41903 -8.22152 23
692 2 -1.99273 4.4445 -8.51367 23
693 2 -4.66879 4.01022 -6.78266 23
694 2 -1.00663 1.74384 -6.51864 22
695 2 -4.08451 0.870293 -4.95434 19
696 2 -2.11343 3.8783 -5.14968 21
697 2 -4.92885 3.51882 -3.52522 22
698 2 -1.57225 1.66574 -2.727 24
699 2 -4.18332 0.657786 -1.39342 21
700 2 -2.11825 4.25416 -1.63302 21
701 2 -1.95103 5.85241 -17.0744 14
702 2 -4.59609 6.58344 -15.6613 14
703 2 -2.03788 8.14033 -15.0986 16
704 2 -4.36271 9.03034 -13.7397 14
705 2 -0.882811 6.78178 -13.0515 20
706 2 -3.70201 6.24372 -11.4829 18
707 2 -1.58139 9.0837 -11.7787 19
708 2 -4.24298 12.3202 -8.57839 19
709 2 -1.03425 6.58702 -10.0983 20
710 2 -4.06771 6.47181 -8.37266 22
711 2 -2.23129 9.13666 -8.4731 19
712 2 -4.90728 9.69132 -6.81765 22
713 2 -0.768134 7.18424 -6.84828 22
714 2 -3.81346 7.12396 -5.20365 22
715 2 -1.70713 9.76281 -5.00801 22
716 2 -4.94145 9.17443 -3.41735 18
717 2 -1.04233 6.82607 -3.67844 22
718 2 -4.16637 6.21589 -2.03476 21
719 2 -2.35405 8.87345 -2.13015 21
720 2 -1.32747 11.2376 -13.528 12
721 2 -4.35788 10.8306 -11.7763 14
722 2 -0.11081 14.4053 -12.1591 8
723 2 -1.20931 11.5344 -9.70292 21
724 2 -2.13458 14.5522 -8.63894 12
725 2 -5.0295 14.4154 -6.7606 14
726 2 -1.30699 11.9674 -6.66422 22
727 2 -4.06314 11.7159 -5.01548 20
728 2 -2.24508 14.3042 -5.26396 15
729 2 -4.95565 14.0114 -3.50215 17
730 2 -0.720613 12.5104 -3.48135 23
731 2 -3.84953 11.8055 -1.6372 20
732 2 -1.73739 14.1088 -1.73311 17
733 1 -14.8411 10.0554 -2.30318 10
734 1 -12.572 3.84394 -0.27821 21
735 1 -15.5522 3.86934 2.03173 18
736 1 -13.4876 1.74722 1.80836 22
737 1 -16.3242 1.11248 3.69436 13
738 1 -12.1545 4.55416 3.0511 23
739 1 -13.9075 6.43339 4.64972 16
740 1 -13.441 1.52657 4.64133 22
741 1 -15.3395 3.93618 5.37759 17
742 1 -12.5555 3.88616 6.55347 21
743 1 -15.1272 4.83769 8.25013 10
744 1 -13.9214 1.58726 8.37366 15
745 1 -12.3781 5.13443 10.2265 15
746 1 -12.2035 2.18914 12.3372 13
747 1 -15.5583 9.86565 1.49879 13
748 1 -15.2069 9.53366 5.18586 13
749 1 -14.5827 12.5008 3.40904 8
750 1 -13.4416 6.90983 1.74575 23
751 1 -16.4398 6.40826 3.35131 10
752 1 -13.2151 13.188 -2.48281 9
753 1 -12.5484 10.1026 3.14483 21
754 1 -14.901 10.3579 8.71202 8
755 1 -12.7155 10.1435 6.16287 16
756 1 -13.6012 7.13651 7.49257 18
757 1 -10.3604 1.28359 -0.170113 24
758 1 -6.59093 4.52264 -0.00654956 21
759 1 -9.77946 4.3004 1.21052 22
760 1 -7.89548 1.54032 1.57399 21
761 1 -10.5187 1.59137 3.02232 24
762 1 -7.06861 4.2901 3.01739 22
763 1 -9.6622 4.52537 5.05234 22
764 1 -7.70572 2.18911 5.01204 24
765 1 -10.3251 1.5365 6.49399 20
766 1 -6.59502 4.59368 6.7875 18
767 1 -9.79798 4.11601 8.25488 17
768 1 -8.13508 2.04109 8.42531 21
769 1 -10.8913 2.04555 9.86305 21
770 1 -6.75116 3.89098 10.4119 18
771 1 -10.0292 3.82323 11.8505 16
772 1 -8.23735 1.34954 11.6411 18
773 1 -11.4496 1.13398 15.2221 11
774 1 -6.69081 4.11675 13.5534 18
775 1 -9.55001 3.74372 15.4611 11
776 1 -7.64727 1.23855 15.3943 17
777 1 -10.9475 6.75591 -0.221904 22
778 1 -6.90895 9.04808 -0.110456 21
779 1 -10.0618 9.57659 1.71811 20
780 1 -8.06316 7.01767 1.71969 22
781 1 -10.5444 7.29181 3.32838 24
782 1 -7.53909 9.8036 3.3869 20
783 1 -9.72319 10.0931 4.75808 20
784 1 -7.83957 6.88698 5.17194 18
785 1 -10.0589 7.52008 7.04432 17
786 1 -6.96672 9.46777 6.6526 18
787 1 -11.4182 11.4726 9.65619 10
788 1 -8.74204 7.85651 9.69212 16
789 1 -12.0547 8.71014 9.72863 13
790 1 -6.40785 9.63525 10.6462 16
791 1 -9.74627 9.33002 11.8477 13
792 1 -9.92337 7.02437 14.5976 8
793 1 -12.458 4.62889 13.9767 9
794 1 -3.3855 9.20466 11.8557 20
795 1 -4.55942 6.25154 13.7584 19
796 1 -10.4225 12.5997 -0.27746 19
797 1 -5.8251 15.5739 -0.180594 13
798 1 -10.7675 12.7473 2.85372 17
799 1 -7.89298 11.4112 1.27026 17
800 1 -13.0221 14.0467 0.803135 8
801 1 -6.20974 15.855 3.32232 10
802 1 -8.1913 13.3191 3.95254 16
803 1 -9.35775 12.1963 6.82025 14
804 1 -6.66223 14.3565 6.95475 12
805 1 -7.85388 11.3193 8.90166 14
806 1 -4.577 1.58542 0.194687 22
807 1 -1.26925 3.9504 0.0412551 20
808 1 -3.87453 3.41528 1.75539 21
809 1 -2.07383 1.09221 2.07619 22
810 1 -5.10246 1.17146 3.56181 20
811 1 -0.9714 3.7678 3.54992 20
812 1 -4.10669 3.53559 4.85352 21
813 1 -2.02726 0.964539 5.46735 20
814 1 -5.02423 1.56773 6.78033 20
815 1 -1.44982 3.92357 6.79618 20
816 1 -4.11597 3.55699 8.75396 20
817 1 -2.19718 1.50104 8.82833 20
818 1 -4.81576 1.12363 10.3152 21
819 1 -1.0144 3.83968 10.2578 22
820 1 -3.65446 4.23305 11.9469 21
821 1 -2.18374 0.784658 11.9479 20
822 1 -4.59967 1.86321 13.8502 19
823 1 -1.02893 3.3461 13.4919 23
824 1 -2.32547 3.90506 16.9084 17
825 1 -1.92411 1.40331 15.0859 21
826 1 -4.99226 6.67198 -0.233289 20
827 1 -1.23483 8.89943 0.0417358 20
828 1 -4.24573 9.0249 1.83343 21
829 1 -2.52643 6.13091 1.32409 20
830 1 -5.04475 6.70714 3.5197 20
831 1 -0.952799 9.74622 3.16524 20
832 1 -3.83232 9.4367 5.0344 19
833 1 -2.44741 6.20703 5.35021 19
834 1 -4.86303 7.41686 6.64142 18
835 1 -1.22923 8.79303 6.83383 25
836 1 -3.93292 9.31707 8.70952 20
837 1 -2.3995 6.21077 8.59032 23
838 1 -5.00651 6.79755 10.2228 22
839 1 -0.936123 9.06016 10.1364 22
840 1 -3.54666 11.223 14.1652 9
841 1 -1.71892 6.49925 11.9471 22
842 1 -7.70199 7.04634 12.2808 15
843 1 -0.522084 9.67967 13.859 18
844 1 -2.7815 8.70547 15.6356 14
845 1 -1.77353 5.44884 14.581 21
846 1 -4.55194 12.4624 0.289668 19
847 1 -1.0383 14.846 -0.0504949 15
848 1 -3.46762 14.6758 1.98761 16
849 1 -2.38824 11.6453 1.76381 23
850 1 -5.21166 11.7457 3.55293 19
851 1 -0.892474 14.3578 3.51213 18
852 1 -4.12547 14.5306 5.16282 16
853 1 -1.95353 11.6753 5.05743 23
854 1 -4.53639 11.7825 7.051 20
855 1 -0.703802 14.2249 6.82319 16
856 1 -3.86765 14.1775 8.72685 10
857 1 -2.06064 12.0173 8.45415 19