ITEM: TIMESTEP
3000
ITEM: NUMBER OF ATOMS
2000
ITEM: BOX BOUNDS pp pp pp
-30.0 30.0
-30.0 30.0
-30.0 30.0
ITEM: ATOMS id type x y z Coordination
1 1 -4.4662 4.0721 -15.4884 12
2 1 -5.98576 -12.7137 -7.63779 13
3 1 3.91176 10.6559 19.0773 15
4 1 7.17737 -10.2598 9.97499 10
5 1 -7.89403 10.143 2.14312 22
6 1 8.5906 -7.59651 -7.71463 19
7 1 -9.24708 3.03743 -6.03253 19
8 1 1.0417 -7.5057 13.8913 14
9 1 -7.53508 -1.05361 -10.149 19
10 1 -9.47851 -9.17792 6.05602 20
11 1 13.9952 0.749705 -11.5543 11
12 1 -3.25036 -10.544 3.40007 21
13 1 -12.0968 -7.79324 5.66847 13
14 1 5.59549 2.12136 20.8004 11
15 1 8.28061 -3.45482 10.6387 19
16 1 1.9825 4.03556 8.52601 19
17 1 6.5271 -3.50407 6.1516 21
18 1 -1.1652 10.3913 -6.87427 19
19 1 3.69295 5.97898 12.5924 17
20 1 -6.82764 -1.86794 -14.5015 14
21 1 -8.89248 -3.77728 12.2206 16
22 1 12.3396 4.34945 10.4604 17
23 1 -0.0720263 6.90743 -12.5147 19
24 1 3.30312 5.06465 -12.0721 13
25 1 12.2972 0.154749 11.591 18
26 1 -6.16427 0.860531 3.16214 20
27 1 -10.5391 7.16973 -10.2462 13
28 1 -1.14437 -1.95555 -7.42211 23
29 1 -11.6727 10.7905 11.5876 8
30 1 4.36467 -11.4839 11.0148 15
31 1 -0.0606628 0.862689 8.1763 19
32 1 7.96031 -15.9288 -8.45896 6
33 1 9.1126 -7.77376 2.3739 15
34 1 -1.85647 -12.848 -3.15639 19
35 1 -9.84123 -6.59636 10.8236 14
36 1 8.10987 -8.12539 -14.592 12
37 1 8.86758 -8.16519 -10.8382 17
38 1 -1.00612 3.09176 -15.6582 11
39 1 4.61319 3.22187 14.0143 16
40 1 -0.417382 -10.9537 8.00046 22
41 1 5.50637 -3.4966 14.1387 21
42 1 -10.8143 4.24948 2.93329 20
43 1 -13.0335 -0.527293 9.31194 15
44 1 -6.62328 2.21667 -0.333505 19
45 1 1.38593 17.5066 -4.8529 15
46 1 2.01874 -14.0935 -7.46956 14
47 1 3.42722 0.589623 -7.45421 23
48 1 6.99667 -2.87033 -10.2713 21
49 1 -2.95239 -5.04455 17.4452 10
50 1 -12.3741 7.72167 -4.44271 13
51 1 3.48659 9.01748 -9.28747 20
52 1 4.13074 13.2895 12.1456 15
53 1 -7.26538 11.138 -10.83 13
54 1 -0.772695 16.2542 1.01783 15
55 1 2.05298 -8.58883 3.00277 19
56 1 6.82641 -5.10541 -2.73777 22
57 1 6.19864 -5.58701 -16.2828 14
58 1 -7.90437 8.24228 13.6817 15
59 1 -12.8342 -4.73377 -6.98568 10
60 1 7.02656 2.79374 5.04062 19
61 1 -10.1789 9.67194 0.328217 23
62 1 -6.49903 -10.24 8.49343 23
63 1 -1.79849 11.5968 13.5173 15
64 1 -8.96442 13.5991 -5.48729 10
65 1 -0.813025 8.19705 13.7035 22
66 1 3.42641 2.6535 -4.60083 23
67 1 -5.08115 -13.0475 8.49263 17
68 1 3.66951 6.51677 8.88424 22
69 1 9.85039 -15.9899 -3.46007 9
70 1 6.92658 10.0831 19.7233 11
71 1 -11.176 0.637384 -5.98885 12
72 1 -9.8194 10.838 -10.9484 10
73 1 3.4906 10.7047 10.8151 18
74 1 12.4848 -2.43809 -10.9545 15
75 1 7.05305 -14.4942 3.93992 13
76 1 -15.3427 2.5557 4.35979 11
77 1 -6.48975 -3.0062 0.671953 23
78 1 5.6266 16.4354 4.82143 8
79 1 3.69827 -2.14116 12.0835 20
80 1 -8.20728 -13.1963 2.45112 17
81 1 -7.64035 -1.18313 7.2085 17
82 1 9.97136 2.8032 12.2872 17
83 1 6.95894 1.02693 -2.0324 23
84 1 0.967954 10.0062 11.4448 17
85 1 1.25178 -0.196795 10.9965 20
86 1 -5.9912 -3.39146 5.97129 20
87 1 -2.89143 -5.23766 -7.71337 21
88 1 -11.8188 12.0736 8.02713 11
89 1 -4.92427 14.7667 -0.843995 15
90 1 -2.83391 7.01572 -7.75134 20
91 1 8.57368 0.081555 -4.65842 20
92 1 7.67272 12.1235 -4.92534 19
93 1 9.45382 -8.76431 5.33714 18
94 1 6.5768 -9.0484 12.5616 13
95 1 -4.04657 16.5061 -7.21801 12
96 1 -8.29081 13.0164 4.35233 18
97 1 -7.49791 -1.34503 15.6763 17
98 1 -6.01378 10.4845 6.39898 17
99 1 -5.95479 -3.2039 14.1342 21
100 1 11.9691 -8.20402 -3.47728 19
101 1 -9.61601 1.09647 2.85843 22
102 1 -11.0933 -13.9473 4.12456 9
103 1 13.3028 -8.04942 -5.93637 11
104 1 7.16121 -0.270551 -12.5825 22
105 1 -4.12228 -1.97121 -16.3081 13
106 1 -1.32328 14.0063 5.1685 15
107 1 -6.81875 8.88396 -8.09026 15
108 1 3.98114 10.6415 22.0774 7
109 1 -1.95762 15.2466 -1.83655 18
110 1 -12.0058 12.4137 -0.661279 13
111 1 1.28455 9.46011 2.82892 23
112 1 -3.28936 -7.1079 11.4918 17
113 1 12.4682 -3.26532 10.6392 12
114 1 0.598149 -5.08212 -7.57531 21
115 1 1.3541 -8.37553 -7.61022 17
116 1 -1.25277 3.79957 8.45449 20
117 1 8.49574 -2.25678 18.3181 10
118 1 -7.98155 -5.99966 0.65524 19
119 1 7.27542 -4.87094 2.92567 19
120 1 -10.3593 -5.34964 -1.29948 19
121 1 10.3652 -5.56327 2.99382 18
122 1 -4.24985 9.8062 2.97266 18
123 1 7.26608 4.98749 -14.2493 8
124 1 6.86038 17.3228 -3.28427 12
125 1 -4.9865 -14.1657 11.8726 11
126 1 -8.00148 -13.2303 9.15399 11
127 1 5.19823 -8.09179 -11.4785 16
128 1 5.54435 5.86561 -4.64732 23
129 1 11.5049 -11.9892 0.527755 17
130 1 0.957602 -18.0224 6.95125 11
131 1 -10.1178 -11.0463 -1.64695 10
132 1 14.7112 4.28017 10.4767 17
133 1 15.6202 0.0855691 -6.15505 12
134 1 -14.5945 -3.46573 7.928 13
135 1 10.7168 10.3238 11.4424 20
136 1 16.5432 11.4506 5.65651 11
137 1 0.292697 -0.225865 17.007 17
138 1 8.21876 5.85103 0.352879 19
139 1 -2.00984 9.76213 10.5786 19
140 1 -3.87223 14.7624 -4.23149 16
141 1 7.61557 -11.4613 -12.8545 7
142 1 10.1483 -10.0448 -8.37098 12
143 1 4.44034 10.6718 -12.794 12
144 1 7.00602 -1.44351 12.8428 19
145 1 0.972599 -3.07975 -17.6183 9
146 1 -3.24269 6.534 -2.67848 20
147 1 8.93156 -0.0335461 -0.427245 19
148 1 -9.61014 9.21422 -8.4343 14
149 1 -7.30785 16.8629 0.360172 9
150 1 10.0891 1.90716 -7.15685 21
151 1 12.4314 -7.29092 2.97607 18
152 1 -4.74218 3.29177 -6.7506 18
153 1 -9.11676 11.3189 9.58292 16
154 1 13.2667 10.4655 -4.6343 13
155 1 6.12508 10.0301 -2.56276 16
156 1 -6.9485 15.7874 3.9619 10
157 1 8.61155 10.3721 2.82919 21
158 1 -3.05146 11.6269 -4.22712 20
159 1 4.06413 13.5447 -10.8274 11
160 1 1.06998 9.62681 -12.0006 18
161 1 -10.648 -10.5497 3.71148 15
162 1 -8.29115 9.92229 -2.80925 19
163 1 -5.62358 -2.59174 -11.7402 19
164 1 3.3581 -7.20379 -16.7742 11
165 1 12.3008 12.1223 13.4935 10
166 1 0.864808 15.5806 10.7628 15
167 1 -11.3184 2.91199 -3.5055 18
168 1 -10.0712 12.6013 2.03858 18
169 1 12.6522 -0.707512 0.632497 17
170 1 -9.36113 2.34373 -11.3036 15
171 1 8.2526 0.0391901 15.7805 21
172 1 1.54768 18.3792 9.41506 9
173 1 -3.90548 9.07315 8.6818 20
174 1 5.49254 -8.57188 -14.7502 14
175 1 -7.02228 10.9967 12.0793 15
176 1 -2.55947 13.6095 -7.0053 23
177 1 1.9546 -2.1654 15.0055 20
178 1 -11.4793 -1.63324 3.08034 16
179 1 3.0465 -10.179 -12.8598 12
180 1 -5.42137 13.056 -11.2209 13
181 1 -1.42989 -12.1053 5.54284 18
182 1 7.69012 -13.6876 -1.88142 21
183 1 -1.44571 9.19565 -9.82944 18
184 1 -14.2178 6.28069 10.0055 10
185 1 0.750719 8.40997 -0.00204765 21
186 1 8.9715 11.2104 -0.768253 20
187 1 -3.42589 6.97221 14.2449 16
188 1 0.851188 -6.49263 8.4032 17
189 1 -5.02641 5.19855 -0.0901201 20
190 1 0.156044 18.8264 6.25504 11
191 1 -3.14092 5.94171 8.09867 18
192 1 15.4469 1.57555 14.4324 8
193 1 -7.62629 12.534 7.46396 17
194 1 11.838 0.671725 -5.15503 19
195 1 -0.928823 11.4252 18.9411 11
196 1 -2.73269 0.817034 -7.66113 19
197 1 11.3774 -10.8772 3.57426 14
198 1 -4.42874 -6.25036 5.90599 19
199 1 -15.001 3.66199 7.73173 10
200 1 -2.38916 -8.85599 5.7597 21
201 1 0.295713 2.72014 18.977 14
202 1 -10.4038 2.84263 0.238238 18
203 1 2.29254 -12.9991 4.87314 21
204 1 5.08434 -5.88364 -5.2126 22
205 1 -1.80406 10.6856 4.891 19
206 1 -6.4645 2.91488 5.18791 19
207 1 7.39672 12.8589 17.2027 10
208 1 -6.45631 -0.166097 -1.94157 23
209 1 -3.29621 11.6079 -9.38747 17
210 1 -12.3202 -1.72058 -4.90484 15
211 1 -10.7228 0.691433 10.6401 20
212 1 3.73162 -9.6711 5.49488 20
213 1 3.89946 -14.981 9.42718 11
214 1 -12.5279 10.6971 2.36228 13
215 1 13.9852 4.02163 4.65387 15
216 1 8.34628 4.23569 -2.37484 19
217 1 -6.65833 -9.357 -12.8754 10
218 1 2.47632 1.30688 16.2193 17
219 1 6.78717 -12.3561 1.38637 23
220 1 -1.89758 5.21027 -10.2017 19
221 1 3.76851 -10.6338 -9.44464 21
222 1 9.14988 -0.234142 -15.3712 11
223 1 4.18252 7.78155 -12.2183 19
224 1 -8.33578 -7.07859 -7.92795 21
225 1 -1.73366 20.4499 -9.17606 4
226 1 -8.9775 -10.1819 11.5921 16
227 1 4.39212 17.8264 -5.8409 12
228 1 -5.61773 0.802051 17.6564 14
229 1 -0.691013 17.8985 -1.83211 11
230 1 8.88914 0.346791 10.5219 18
231 1 -1.44086 -9.53871 -9.68055 17
232 1 -2.64745 8.21368 -4.77165 20
233 1 1.67476 3.65684 -7.81258 20
234 1 -8.53279 -13.1264 5.61432 15
235 1 -8.98229 5.4474 12.4538 22
236 1 -6.90511 6.74026 10.6886 19
237 1 2.90446 -14.4127 -9.9025 12
238 1 -0.793191 -14.4663 -0.641897 20
239 1 9.10615 -10.3855 1.57326 19
240 1 4.60319 -9.85973 -0.324224 18
241 1 11.9202 6.46999 17.0498 15
242 1 4.96788 10.3806 -7.3953 20
243 1 2.47992 10.9165 0.345268 19
244 1 -7.96251 3.505 2.34741 22
245 1 -10.1849 13.0149 -3.19321 15
246 1 1.80481 8.07965 14.0268 16
247 1 8.67529 -16.8435 1.04566 11
248 1 10.9166 1.31775 -1.62813 19
249 1 -0.0579292 6.61119 8.44046 21
250 1 -6.50301 10.3952 9.72547 21
251 1 -10.5032 0.199167 -1.75687 21
252 1 6.2411 3.05626 -11.6388 18
253 1 1.62969 0.440107 13.6119 18
254 1 10.7268 7.10108 -6.34449 17
255 1 1.51141 -13.6936 -3.26365 19
256 1 3.92723 -2.08214 -10.322 22
257 1 2.64123 -16.3762 4.23758 17
258 1 13.6857 1.93764 -3.81813 20
259 1 -7.52248 -6.15275 6.1443 23
260 1 4.33198 -13.1935 -0.931353 21
261 1 -12.2448 -2.85569 -1.14862 18
262 1 4.30343 14.6619 -2.42707 19
263 1 -0.817496 -7.41963 -14.6219 15
264 1 7.38023 2.94379 16.1226 18
265 1 17.6861 6.97287 3.79664 8
266 1 -2.83559 -4.7028 -2.28384 22
267 1 11.7479 -3.83042 -8.36385 17
268 1 -1.02605 -7.9469 2.98628 21
269 1 -5.07713 -7.2037 -8.23849 18
270 1 -9.9818 1.753 -8.9514 17
271 1 -3.3865 -16.0942 8.88908 12
272 1 10.8599 -3.91704 8.04021 21
273 1 4.76399 -2.23936 8.48228 21
274 1 -5.27003 -8.35529 -5.76341 18
275 1 2.01717 -6.51621 4.61978 19
276 1 2.04657 6.46616 -10.1161 19
277 1 4.6131 9.81922 2.72024 18
278 1 -5.67007 -8.69894 6.54247 19
279 1 2.80514 12.4652 2.84428 20
280 1 -7.59638 -0.560512 12.4567 17
281 1 -10.6948 -4.36595 -10.05 10
282 1 -2.81614 -6.39946 -10.6502 16
283 1 -0.326782 7.96196 -15.5362 9
284 1 -3.19479 -11.8234 -5.70978 15
285 1 -3.11002 -8.51837 0.561144 21
286 1 10.7787 0.720376 -12.8863 18
287 1 16.3466 1.59977 -3.35441 13
288 1 11.0329 2.35035 8.50663 21
289 1 -3.15741 -3.01291 -5.06115 23
290 1 -8.07345 -4.07402 8.82432 20
291 1 0.87495 -14.4878 2.32213 19
292 1 8.8098 3.96689 21.3531 9
293 1 -1.45155 -14.4625 6.87538 18
294 1 1.57477 -12.403 -0.12349 18
295 1 2.35915 17.3388 -0.173199 18
296 1 6.45848 -2.73404 -17.0606 10
297 1 -4.11335 -7.42409 -14.6224 14
298 1 -7.92452 -9.53595 14.3396 11
299 1 8.19368 7.66996 21.5165 7
300 1 2.50554 -15.4756 -0.576367 17
301 1 -3.21436 -13.7017 -8.34475 14
302 1 -6.92884 7.44299 -11.0073 21
303 1 9.93795 6.8824 8.24899 15
304 1 -6.57685 3.42199 -10.9981 16
305 1 0.27524 6.72889 -7.86941 17
306 1 1.77306 -3.61732 10.28 21
307 1 8.56692 -12.8115 -7.96477 11
308 1 -3.51438 15.5838 4.35977 15
309 1 2.30117 8.88878 8.09757 22
310 1 12.8167 1.5305 6.29486 18
311 1 -10.5479 -0.232335 5.88611 19
312 1 1.80164 -6.82179 11.028 21
313 1 -3.47684 11.9225 8.1488 20
314 1 7.59395 -5.77817 -12.3213 18
315 1 12.1464 11.6021 0.325855 17
316 1 6.39751 -10.9022 -3.09043 19
317 1 -1.08158 -2.64382 17.3454 15
318 1 -12.7509 -4.52101 10.9255 10
319 1 4.49532 -18.0865 -4.42042 10
320 1 -2.62839 10.2306 16.0012 13
321 1 -10.6648 6.44137 15.1509 12
322 1 -11.3712 -2.52623 13.8522 12
323 1 -10.8239 -5.82905 7.61434 21
324 1 15.0033 -6.27554 1.7605 13
325 1 -8.55739 -7.97182 8.41253 17
326 1 9.71395 -4.69384 -10.7363 21
327 1 12.518 -13.7177 -2.28154 13
328 1 2.60627 14.6128 -4.37226 18
329 1 -5.50531 12.2078 -2.82438 19
330 1 9.45581 11.0568 13.8418 16
331 1 -9.45778 -3.28185 6.15839 19
332 1 4.79563 -7.76233 -1.87771 21
333 1 -2.13823 12.4776 2.63063 16
334 1 -4.90949 5.40973 5.6183 21
335 1 2.22069 -8.9185 8.95056 20
336 1 14.4513 -5.52322 4.51558 15
337 1 -6.28383 7.11956 7.63691 20
338 1 -6.74356 -3.05298 -4.51893 23
339 1 1.75838 4.63044 17.0488 21
340 1 -0.648186 12.8241 10.6102 19
341 1 9.24539 4.63783 18.3471 20
342 1 -5.12732 14.8788 -9.37352 13
343 1 2.08983 -9.16993 -15.3086 11
344 1 -5.14924 -0.305477 -5.26084 21
345 1 6.89282 -10.0084 -9.51443 16
346 1 -4.50683 5.0251 16.9345 11
347 1 -14.0394 6.82187 7.26906 11
348 1 -4.53907 -2.4652 -8.10503 20
349 1 -7.93078 12.0586 -0.55706 20
350 1 10.4856 -3.31152 4.92432 19
351 1 -9.10304 -10.4879 1.23683 17
352 1 7.65469 -5.12045 8.73905 21
353 1 -8.64355 -12.7894 12.6709 9
354 1 -13.2442 9.24306 -0.490636 12
355 1 -0.0744274 -4.55116 15.2344 16
356 1 5.50419 -9.85289 -6.72231 17
357 1 -0.198564 -6.32042 -11.433 16
358 1 8.10148 -2.80358 -13.5823 23
359 1 3.02615 14.6924 5.75519 14
360 1 -8.15973 0.0496436 0.900232 23
361 1 4.86931 -7.39393 -8.38717 19
362 1 12.2996 3.43663 -12.3266 12
363 1 -0.50205 -11.7171 -6.93163 21
364 1 -11.5313 -8.13099 -2.82111 12
365 1 -0.159383 -11.2725 2.06904 18
366 1 9.30081 6.18417 15.3392 20
367 1 12.308 3.09938 2.94994 20
368 1 -12.2313 4.92203 -9.34144 11
369 1 0.938579 15.184 -1.24231 20
370 1 -13.956 3.29486 -7.56619 8
371 1 -12.1009 8.87533 9.34371 17
372 1 -5.13316 12.8958 4.18938 16
373 1 -6.86435 4.43891 8.06947 19
374 1 14.526 8.20731 16.516 7
375 1 15.1884 -1.8165 -2.50318 12
376 1 8.50685 -3.44287 15.1812 15
377 1 9.98445 2.83829 -3.78777 21
378 1 -3.58318 -15.507 -2.31074 11
379 1 -3.21616 8.4189 -0.111561 21
380 1 1.68202 -7.70211 -2.26029 21
381 1 -0.406795 8.13541 5.86253 20
382 1 -6.84967 2.85189 -4.42597 20
383 1 3.30567 -10.7544 -3.34394 21
384 1 10.3912 -0.769787 7.409 19
385 1 -8.48869 -2.15111 -1.88268 19
386 1 -4.37235 -7.88332 3.09369 22
387 1 -6.47366 -4.97068 11.3062 19
388 1 0.512078 12.8755 0.784641 18
389 1 -8.69621 -8.10997 -0.900777 20
390 1 6.96117 7.55746 18.1589 20
391 1 -11.559 11.1097 -5.95856 9
392 1 0.457888 14.2424 -7.10206 17
393 1 2.18516 13.0751 8.6544 18
394 1 -11.4477 -8.50015 0.50185 13
395 1 -2.86675 -9.35989 -4.18494 21
396 1 -13.848 5.01333 4.30991 16
397 1 -11.4033 10.5116 -2.73383 16
398 1 5.04503 -7.5747 9.31239 20
399 1 -6.55246 -9.33571 0.47881 21
400 1 10.7745 6.42685 12.1559 18
401 1 8.89905 6.66447 -11.2645 12
402 1 -9.09556 5.354 -12.1931 14
403 1 -1.24766 16.5266 -8.47184 16
404 1 -6.44483 8.82066 -4.74293 17
405 1 2.14598 -15.4038 6.87222 16
406 1 12.9917 5.291 7.33401 17
407 1 2.32532 8.55457 -14.8057 12
408 1 -5.07237 -1.34361 10.9743 22
409 1 -13.6269 3.30505 -1.11591 14
410 1 -9.54935 8.67043 11.2378 19
411 1 -5.21389 -12.977 5.14648 19
412 1 3.41364 -2.69834 -5.11476 22
413 1 8.47973 -5.51024 -5.14983 17
414 1 -1.83448 -1.93514 9.07495 20
415 1 -11.4813 2.17829 4.61335 16
416 1 -10.0611 0.0174416 14.9431 15
417 1 -13.0129 9.77787 5.84329 12
418 1 1.55088 -1.70035 8.2385 18
419 1 -6.79418 2.99138 -13.5232 14
420 1 9.93424 -11.1092 -2.22751 23
421 1 0.00227544 -9.47988 -12.1791 16
422 1 0.0308602 -2.43705 12.2347 22
423 1 3.36668 -8.4407 -5.33289 20
424 1 -5.46567 1.09736 -15.2155 13
425 1 3.05495 -11.4797 2.13843 22
426 1 1.77508 11.4873 -5.31714 19
427 1 -11.6441 12.6761 5.06335 14
428 1 -3.99934 -1.90741 17.1219 18
429 1 -8.74916 -7.68021 -10.7705 12
430 1 -5.31242 -6.95724 9.33831 19
431 1 9.66325 -8.06509 11.7142 12
432 1 11.9383 6.77028 4.64595 15
433 1 2.04042 -1.86417 -7.4127 24
434 1 8.79219 -8.2553 8.19469 17
435 1 16.7514 10.8126 -3.65237 8
436 1 -4.65649 1.58246 12.2497 22
437 1 5.80911 11.9566 0.38386 19
438 1 6.37737 -7.84678 6.88082 15
439 1 1.84965 -16.8029 -5.20488 13
440 1 2.69531 1.49492 19.5572 12
441 1 0.2194 17.7662 12.5747 6
442 1 -8.77826 -11.9718 -5.75181 8
443 1 10.8707 12.742 2.81696 13
444 1 3.00662 11.0523 14.3256 17
445 1 -7.87468 5.14575 15.6799 14
446 1 -7.04301 -5.13053 -1.92272 21
447 1 -14.5215 -0.241737 6.07204 13
448 1 -7.67013 -6.90907 -4.47962 23
449 1 -10.3603 9.78812 4.19163 20
450 1 -4.30363 -10.3764 -1.89951 19
451 1 -4.23928 -11.6703 -10.846 16
452 1 -2.69833 -13.8686 3.09544 19
453 1 -1.39928 -4.88533 9.22889 19
454 1 3.31708 0.902202 8.38742 20
455 1 -8.82084 -1.44157 9.63206 18
456 1 -9.46429 8.6548 -13.1288 11
457 1 10.1031 3.023 0.636994 20
458 1 -2.52897 -11.9532 0.417275 17
459 1 1.84835 5.5285 -4.98355 21
460 1 1.55633 18.4349 2.96984 11
461 1 -1.29363 5.6366 -5.22382 21
462 1 1.69594 6.84673 11.2161 20
463 1 -15.3433 -2.18706 0.105744 14
464 1 1.50902 18.5278 -7.89348 9
465 1 8.22371 10.2888 -8.17296 15
466 1 -6.61599 -10.0845 -9.41338 15
467 1 5.6439 1.05928 17.8744 18
468 1 -0.41639 -14.8504 -8.99334 11
469 1 1.12254 -3.39785 -10.5442 20
470 1 9.59902 -13.8277 2.09774 15
471 1 -12.4933 7.26992 1.89593 15
472 1 4.48037 4.88007 17.4645 16
473 1 10.6977 8.85577 0.600875 17
474 1 3.34599 8.17168 0.530418 23
475 1 -8.64417 4.92337 -9.15912 21
476 1 5.25707 -0.088761 -4.60134 23
477 1 7.25738 -8.87695 -9.93266e-04 20
478 1 -15.2848 0.618141 -0.334215 12
479 1 -1.61278 18.4157 9.04032 10
480 1 -3.84005 2.90555 -9.5747 19
481 1 9.32976 7.25531 2.95223 21
482 1 5.23611 14.8708 -5.99323 18
483 1 6.77757 -3.07498 0.137251 23
484 1 15.7166 3.97478 -1.06836 16
485 1 0.201453 0.915495 -13.0501 19
486 1 5.01555 -8.06796 2.53055 20
487 1 0.476779 -11.9601 10.7679 12
488 1 3.35587 -9.15689 12.209 14
489 1 -5.21408 5.85186 -8.94283 20
490 1 -11.372 -12.8666 7.24532 11
491 1 -1.64433 -12.1576 -11.1781 14
492 1 7.24679 12.3127 6.64673 15
493 1 4.08021 2.56208 -9.80183 19
494 1 5.44747 -2.29693 16.9337 11
495 1 -12.4947 -1.10311 11.6816 12
496 1 0.113374 -17.3169 1.04137 15
497 1 -14.824 -0.38834 2.94106 14
498 1 13.2289 -2.33722 -5.52098 15
499 1 11.9704 -1.92654 -2.47042 24
500 1 -5.15012 9.75915 -2.06132 21
501 1 1.31373 -11.8737 -10.3904 17
502 1 4.84839 4.02306 -7.28216 22
503 1 9.08869 -1.15814 -7.56837 25
504 1 -2.4772 0.0822339 19.0412 13
505 1 5.74859 16.4315 -0.530615 16
506 1 -4.10971 -3.9795 -13.9912 16
507 1 6.23152 1.82466 -14.5644 12
508 1 -6.63195 1.21113 9.28573 18
509 1 -1.21565 18.2841 3.54063 11
510 1 -8.69862 -3.44797 -11.9847 13
511 1 -14.737 4.81193 1.2125 12
512 1 1.4941 -5.08099 -13.4904 16
513 1 -0.588716 -5.43374 12.3091 22
514 1 0.913018 9.12774 -4.72108 18
515 1 14.5736 2.98953 7.8188 18
516 1 14.0209 6.36478 -1.25235 17
517 1 -6.89182 -12.1238 -0.71253 15
518 1 0.231006 -9.15082 0.011737 20
519 1 -5.32396 -5.38466 -16.4912 9
520 1 -9.03998 9.3614 7.25021 18
521 1 5.21687 -5.43566 -10.4793 19
522 1 3.22647 6.69427 -2.38502 21
523 1 10.0892 0.838618 2.47644 19
524 1 3.15445 12.4567 -8.21821 22
525 1 5.41482 -5.98116 0.247553 20
526 1 12.0503 4.40859 -6.31397 19
527 1 6.28984 11.0225 13.734 20
528 1 -8.4574 2.16971 13.449 18
529 1 7.76155 8.25542 11.0531 19
530 1 11.8605 -2.35152 15.5228 13
531 1 -0.856961 -2.03748 -14.5096 18
532 1 -4.70295 -5.45059 -4.92232 23
533 1 -2.07658 0.1202 11.2217 18
534 1 5.27283 12.7875 9.62564 17
535 1 8.56613 7.12029 -8.42478 19
536 1 -8.18185 13.1684 -8.80505 11
537 1 0.657957 12.0251 -2.30519 19
538 1 7.5811 -5.94197 12.9352 16
539 1 14.796 3.62482 -10.0425 13
540 1 9.13517 -7.76745 -2.4725 19
541 1 13.4825 8.9971 12.9159 18
542 1 -14.3607 -6.12485 6.4 11
543 1 -3.91489 11.9262 -13.6827 9
544 1 -0.122616 2.44795 11.9456 16
545 1 -10.4768 3.48987 15.4256 15
546 1 -3.44109 17.691 -10.4241 8
547 1 5.06298 -14.5629 -3.62392 17
548 1 7.02517 1.39995 -7.26663 22
549 1 -1.55908 17.2495 -4.81768 11
550 1 -11.7348 -6.8954 -9.1105 10
551 1 5.13619 -13.8491 6.87255 13
552 1 -13.3148 -4.9553 0.59627 10
553 1 0.587293 12.031 -9.7543 18
554 1 -7.22894 6.20507 -6.61439 22
555 1 1.25208 11.1094 21.4835 9
556 1 -6.69877 -8.02722 11.9725 16
557 1 9.56963 7.96361 -2.93273 20
558 1 2.73057 -10.8399 -6.41084 18
559 1 5.38668 -4.12083 10.7421 23
560 1 6.83529 3.20125 -4.5285 21
561 1 -6.7239 8.43209 -0.414821 23
562 1 11.8278 2.67356 19.0035 10
563 1 4.23633 15.6394 -8.94893 11
564 1 10.7874 -5.26384 -2.61012 24
565 1 6.30036 10.6992 16.5472 20
566 1 -2.37522 2.63482 -12.3525 21
567 1 -4.52854 -10.7967 14.214 8
568 1 0.00627871 0.984216 -7.76411 23
569 1 5.17599 -1.23587 -15.3883 16
570 1 4.18391 15.3417 9.53304 11
571 1 10.6471 3.19997 -9.27444 18
572 1 -1.52222 -3.62209 -12.6494 18
573 1 -5.26163 -7.62352 -1.92332 23
574 1 -7.00013 -4.51756 -6.66635 18
575 1 9.89467 4.94448 4.54969 18
576 1 15.0374 10.1447 -0.644205 14
577 1 7.16905 -4.50736 -7.90476 18
578 1 15.5825 6.33714 12.3619 11
579 1 6.50217 -8.53626 -4.62656 22
580 1 5.56485 7.97411 -14.9762 9
581 1 7.17617 13.4739 3.80845 15
582 1 -8.54552 5.05657 5.09393 20
583 1 9.79602 8.41539 18.8039 12
584 1 10.6631 6.31943 -1.17248 19
585 1 14.9267 0.17227 4.75906 12
586 1 15.7003 8.23085 -5.73008 11
587 1 10.6788 0.633034 14.4884 18
588 1 13.04 3.25048 13.5081 20
589 1 -2.22146 -2.64791 14.3592 22
590 1 11.1052 14.7141 -3.59211 9
591 1 4.67682 -0.0573654 14.8659 18
592 1 12.6373 3.79813 -0.695428 21
593 1 8.51933 4.06863 7.18404 18
594 1 -6.74824 -1.30143 -7.02663 14
595 1 11.6741 5.79411 1.65427 23
596 1 8.78079 -2.07336 2.30022 21
597 1 -12.7269 7.8857 12.4241 11
598 1 9.39024 14.1122 14.5682 10
599 1 14.066 4.40282 16.2302 13
600 1 6.43921 14.1487 14.9638 12
601 1 0.339236 12.2694 15.8812 14
602 1 5.31784 3.66597 7.98262 19
603 1 -0.304611 -15.4018 4.64152 20
604 1 -4.00267 10.2215 -6.74443 17
605 1 16.1622 6.8573 -9.73892 8
606 1 13.392 -0.3182 -14.9268 6
607 1 3.39946 13.5584 -0.199837 19
608 1 -2.19871 -7.87522 -7.08782 21
609 1 10.7387 -2.5508 -13.2559 15
610 1 -12.0862 2.8317 8.14136 14
611 1 -4.40513 8.33849 -10.314 17
612 1 -2.70236 -17.4138 3.09552 11
613 1 -7.29537 1.74441 -8.00013 19
614 1 -8.77432 2.61283 -2.56681 19
615 1 8.75881 -5.52432 5.7997 20
616 1 12.8331 11.7583 5.08084 18
617 1 6.69228 -9.49226 4.1867 17
618 1 -8.81015 -0.4044 -4.24073 21
619 1 0.883326 -0.0603199 -15.6489 11
620 1 2.89396 4.87389 20.1411 14
621 1 11.148 9.12983 -9.49489 10
622 1 13.6031 -0.666762 14.1467 12
623 1 7.90581 4.64071 -6.29629 22
624 1 14.4569 13.8192 7.01137 8
625 1 4.32887 -12.5596 -5.21903 16
626 1 -9.2672 -3.81667 15.7854 12
627 1 12.9787 -2.4477 5.80282 17
628 1 1.32652 8.45049 16.8671 17
629 1 6.34237 13.1291 -8.31228 14
630 1 -7.57731 15.5509 -2.82541 11
631 1 12.2354 9.24558 7.82986 15
632 1 -5.79727 -11.5428 2.69262 18
633 1 17.0545 -3.68844 3.16983 6
634 1 3.8439 15.64 2.34964 16
635 1 -2.54376 3.87908 12.8707 19
636 1 -14.8035 -3.06844 3.16179 11
637 1 -5.89986 -4.80398 -9.43264 16
638 1 9.98765 -1.92848 13.1154 20
639 1 -1.50381 -8.38172 13.6584 12
640 1 10.6757 3.40784 15.7669 17
641 1 -2.76801 15.2636 8.08402 17
642 1 6.62502 6.64552 8.92299 20
643 1 6.23234 5.40019 5.19874 21
644 1 1.76263 0.244838 -10.1188 20
645 1 -11.405 -2.35494 8.07624 19
646 1 9.15339 3.62713 -12.9746 14
647 1 -1.38491 -5.94182 -4.59853 21
648 1 12.8724 -11.5313 -4.44766 12
649 1 7.46201 7.24233 13.1596 18
650 1 4.7797 7.12774 6.55467 19
651 1 -6.89281 -5.17547 18.0527 6
652 1 5.1614 8.60823 11.2996 20
653 1 8.86667 1.41416 18.7506 17
654 1 -0.0260044 5.65286 13.7678 18
655 1 4.96731 -5.05285 -13.8702 19
656 1 -5.80869 4.81064 13.1847 21
657 1 6.36165 5.74662 15.3376 19
658 1 -7.57963 -16.0365 5.37752 6
659 1 15.4296 7.66596 1.16775 12
660 1 10.1616 -9.83223 -5.15928 17
661 1 -3.01979 2.62101 -4.83891 22
662 1 11.7276 9.71118 -2.17945 17
663 1 9.49474 11.4149 5.09916 19
664 1 2.0128 -2.20411 -13.4282 18
665 1 -3.75209 3.46861 9.57736 18
666 1 4.59988 12.0894 -4.83453 18
667 1 12.0561 9.60706 3.50882 20
668 1 -4.7069 -6.10585 0.420894 21
669 1 -2.16707 -5.09032 -16.7868 14
670 1 -9.53296 14.6948 -0.453069 15
671 1 11.4119 -7.26688 -9.08351 13
672 1 6.158 7.27841 2.70848 20
673 1 18.897 4.87641 -8.55564 4
674 1 6.74861 13.3187 -2.09078 22
675 1 -3.48895 8.20161 5.64292 19
676 1 -6.62638 6.67028 2.39722 19
677 1 5.95616 7.3381 -6.83772 19
678 1 13.0366 0.736425 16.9916 14
679 1 10.74 -4.92816 13.5448 12
680 1 0.105516 -9.29973 10.8705 20
681 1 -2.04992 10.1768 -12.4779 16
682 1 6.92149 14.3986 11.8837 14
683 1 10.1024 -5.79682 -13.4284 12
684 1 3.2604 2.42627 11.2792 15
685 1 7.946 8.78891 -4.88733 18
686 1 8.74349 9.78769 7.83875 20
687 1 13.4922 -4.95377 -3.59584 17
688 1 6.46338 4.1315 19.0539 19
689 1 -12.5753 -3.38321 5.34576 17
690 1 4.74444 -14.4509 2.44439 19
691 1 0.110716 -3.15298 -4.54926 24
692 1 -7.32974 14.0172 1.37156 18
693 1 -3.3368 0.892995 9.0736 18
694 1 3.7267 -5.00319 -2.53626 22
695 1 4.54078 11.8019 5.32689 17
696 1 -13.8712 -0.457785 -2.65931 14
697 1 4.02054 7.5986 17.3636 17
698 1 -2.39163 5.65106 -13.9665 19
699 1 -3.56174 8.62201 -15.1637 11
700 1 3.40324 -18.5958 2.351 12
701 1 10.494 10.1269 -5.97848 16
702 1 4.99713 -6.2903 5.24122 19
703 1 -3.36278 6.49562 2.85296 20
704 1 -12.5163 4.62828 13.2305 13
705 1 5.24475 -2.65655 -12.4795 20
706 1 5.42076 -12.2984 4.33198 17
707 1 1.1809 15.3277 2.92837 16
708 1 -3.71324 1.83563 15.8277 19
709 1 -9.31554 -3.74277 -4.23692 21
710 1 -3.30136 -9.97795 -13.3347 13
711 1 -4.72552 -12.6253 -3.88117 14
712 1 -0.741262 13.9443 -4.29659 19
713 1 3.52927 -4.18719 -7.90948 21
714 1 -0.404398 13.003 8.09548 17
715 1 10.7531 -8.85875 0.039095 22
716 1 10.4694 -14.9361 -0.763328 11
717 1 3.98303 -5.26473 8.39072 19
718 1 17.349 2.23699 -6.83891 8
719 1 7.03827 -16.082 -5.6877 15
720 1 -13.853 2.16558 10.9626 14
721 1 0.0641436 -18.2974 3.82976 13
722 1 -7.18574 -9.8278 -3.08292 17
723 1 -12.4514 1.28651 13.5928 12
724 1 -3.09636 -15.6965 0.56219 14
725 1 15.5986 4.71533 -3.90757 15
726 1 -4.92856 17.1572 8.85904 9
727 1 -8.81363 2.04558 7.41351 18
728 1 -7.69764 8.09926 5.06824 18
729 1 8.5526 -0.590409 5.01491 24
730 1 -10.7335 -0.897764 -11.0444 13
731 1 -1.63119 9.7567 -2.41457 18
732 1 8.56662 0.991599 -10.0725 22
733 1 11.4853 8.9548 15.2176 16
734 1 13.8159 8.30738 -7.44286 13
735 1 -10.9406 6.19517 -6.65217 17
736 1 -10.7665 -6.5412 -5.60101 18
737 1 0.495088 6.23595 19.284 14
738 1 5.56035 5.98381 -10.1572 20
739 1 13.7937 10.8293 10.5694 12
740 1 -6.96083 3.12755 11.0746 19
741 1 -0.555506 -16.5502 -2.42902 16
742 1 -4.66194 -15.423 6.24655 13
743 1 -1.49325 -8.18104 8.7333 18
744 1 16.9766 5.23776 9.55379 10
745 1 1.92156 -5.70512 -4.96832 22
746 1 -5.48693 11.2659 0.630244 20
747 1 7.24129 9.02016 0.564839 20
748 1 -9.17392 -4.62584 3.54175 15
749 1 12.48 6.00232 -10.0696 15
750 1 4.4379 -16.5522 -7.47749 11
751 1 6.17547 -18.8933 0.270414 9
752 1 6.68504 -16.9389 -2.46668 14
753 1 7.4173 4.18306 -9.21672 19
754 1 3.6318 17.9691 -3.0621 13
755 1 -5.12321 0.511612 -11.5936 16
756 1 -1.63591 0.173428 14.4308 19
757 1 0.809197 4.44372 -13.6075 13
758 1 -8.56965 -0.0591366 -12.5973 14
759 1 -13.6522 1.63541 -4.50879 12
760 1 1.32453 15.1676 -10.0159 15
761 1 10.1164 1.8485 5.192 24
762 1 -6.10316 -6.09648 -12.6123 14
763 1 -6.07381 -5.15297 3.38083 19
764 1 15.0641 5.47586 -7.17911 18
765 1 13.6649 -6.77453 -0.730696 16
766 1 -5.09734 8.99483 12.4333 18
767 1 8.74866 -12.1213 4.71881 14
768 1 15.8922 -3.86471 0.448642 12
769 1 11.8601 -8.41224 8.79118 8
770 1 1.26286 11.6468 5.72386 21
771 1 -9.03167 2.0522 17.428 9
772 1 -4.14378 6.53312 10.8835 19
773 1 -2.41451 -13.2228 9.4823 19
774 1 8.09499 3.97454 2.87514 21
775 1 8.3691 8.83383 15.8369 20
776 1 -12.4434 -0.0160846 0.260322 23
777 1 8.51004 -6.15074 0.0466647 19
778 1 -5.38849 13.1905 -6.2441 15
779 1 2.99494 8.89697 5.44482 19
780 1 0.111809 -16.1011 9.00304 12
781 1 6.66018 1.6788 12.5989 17
782 1 0.705459 15.9188 6.90562 16
783 1 2.75159 -12.1193 7.77883 18
784 1 -13.1877 2.43099 2.09894 22
785 1 6.3465 4.54489 11.8786 15
786 1 -11.9981 -4.97801 -3.83814 15
787 1 1.81865 13.0291 18.5189 10
788 1 7.38662 16.4585 2.01612 9
789 1 -12.8583 -11.0282 6.02614 8
790 1 -2.19669 -17.9371 6.34934 13
791 1 7.66113 -1.64804 8.27327 23
792 1 11.6537 -6.59607 6.17204 20
793 1 5.70294 9.89978 8.58656 23
794 1 -2.40663 12.1023 -0.899446 19
795 1 0.0305016 -8.91042 -4.97858 20
796 1 -1.75697 -0.425835 -10.629 18
797 1 -4.7512 -0.664444 14.389 20
798 1 -2.94368 18.0537 6.12295 13
799 1 13.1051 -0.701632 8.81555 14
800 1 3.86954 8.4726 -4.93914 22
801 1 -1.20509 7.12976 16.2069 18
802 1 8.86598 5.1166 10.5806 15
803 1 9.76001 -1.50913 -10.6566 21
804 1 -6.946 -9.88741 4.60028 17
805 1 -2.29001 -3.61219 -9.96354 18
806 1 14.7546 1.45235 11.0656 12
807 1 6.38519 -0.00798131 -9.89655 23
808 1 -1.98399 3.12657 17.8538 14
809 1 13.339 -10.2472 -1.493 16
810 1 3.53581 5.44554 -15.6484 8
811 1 -1.56982 -7.78936 -2.0732 23
812 1 13.8684 2.11317 -7.29407 17
813 1 16.2468 -0.475118 1.65719 10
814 1 2.21276 -4.40323 13.1675 21
815 1 -3.95744 -10.1128 -8.04805 19
816 1 8.93078 15.4155 -1.14579 14
817 1 -1.20793 -6.0996 5.88099 18
818 1 -11.3559 6.77172 5.01664 17
819 1 14.2171 0.90948 -1.09911 18
820 1 14.5955 10.9063 2.52551 14
821 1 3.91418 -3.998 -16.9025 13
822 1 -6.55307 13.9641 10.2137 10
823 1 17.0939 8.20115 6.93895 12
824 1 10.0206 12.4448 -2.96751 17
825 1 3.60753 0.204383 -12.7485 19
826 1 9.99558 -3.84748 -0.0604076 18
827 1 -8.10955 5.37173 -0.648039 20
828 1 14.6397 8.88097 5.01476 18
829 1 -14.0832 -6.55232 2.97846 8
830 1 -6.1121 10.0595 -13.2645 15
831 1 7.33611 0.940407 7.58789 19
832 1 -10.3678 -2.8046 -6.5296 18
833 1 -9.54218 3.51413 9.70652 18
834 1 -1.50182 3.63243 -7.68876 24
835 1 11.9095 -5.58316 -5.55719 17
836 1 -9.34316 -9.04008 -5.17459 13
837 1 13.0365 -9.7788 1.76681 16
838 1 -13.6153 6.31802 -2.06675 11
839 1 -10.0023 -2.71468 0.770664 19
840 1 14.671 10.8018 7.82467 15
841 1 -3.22129 -10.1775 10.0672 22
842 1 11.0333 -0.816157 17.9703 12
843 1 13.7193 -5.0963 7.78774 12
844 1 12.9281 -3.62413 2.66993 18
845 1 -9.68825 6.43151 8.02396 20
846 1 7.4963 11.112 11.0713 23
847 1 3.05556 6.39033 -6.93778 21
848 1 -2.62545 -8.18152 -16.8366 8
849 1 -3.8278 12.2876 11.463 13
850 1 -10.235 -11.2516 9.14866 12
851 1 8.13836 14.8523 -4.04927 15
852 1 4.07379 12.7974 16.1948 14
853 1 10.317 -2.75873 -5.35916 20
854 1 4.5145 -6.54026 12.6974 19
855 1 -1.87279 14.2745 -9.94213 19
856 1 1.20978 9.47058 -8.31312 22
857 1 -3.39956 -3.90604 11.637 21
858 1 16.7249 5.36347 6.79045 12
859 1 2.26308 -6.54471 -10.0629 17
860 1 8.64731 13.3557 1.01918 17
861 1 -9.37455 5.5576 -4.03528 20
862 1 -2.31647 -11.5886 12.8055 13
863 1 6.44364 9.73881 -10.0827 15
864 1 5.89598 -0.681988 9.99975 21
865 1 1.85583 -18.4506 -2.05513 10
866 1 -5.1568 15.0064 6.90775 17
867 1 -12.9536 4.64992 -5.29689 13
868 1 11.9139 0.109037 -9.16227 19
869 1 4.5413 -12.6457 -11.9874 12
870 1 -9.19942 6.91704 2.28093 20
871 1 13.5828 12.5113 -2.3123 12
872 1 -4.79666 -3.63886 8.90796 18
873 1 9.2189 -3.91255 -16.1331 10
874 1 -9.68223 -9.83129 -8.44283 11
875 1 0.305993 -10.6235 -2.17642 19