ITEM: TIMESTEP
7000
ITEM: NUMBER OF ATOMS
2000
ITEM: BOX BOUNDS pp pp pp
-30.0 30.0
-30.0 30.0
-30.0 30.0
ITEM: ATOMS id type x y z Coordination
1 1 -6.47092 3.48768 -16.0324 16
2 1 0.0351749 -9.173 -7.53558 18
3 1 2.92213 8.83077 15.5096 10
4 1 7.56347 -11.3294 8.59016 12
5 1 -9.70373 6.77633 -3.06874 17
6 1 8.85237 -7.83946 -11.5808 20
7 1 -10.4991 -1.5586 -6.60426 19
8 1 2.01205 -7.36675 11.3158 24
9 1 -7.98037 -1.06551 -8.09854 21
10 1 -12.723 -7.96421 5.97335 12
11 1 12.6832 1.71039 -10.577 13
12 1 -2.15227 3.85227 -4.55899 22
13 1 -5.41376 -11.774 2.89586 21
14 1 -10.6723 -10.2683 5.65601 18
15 1 4.99767 2.78553 19.8725 14
16 1 6.51028 -2.81157 5.38714 20
17 1 2.60305 4.49153 12.7215 18
18 1 5.76266 -0.438196 4.06305 21
19 1 -2.08315 12.1721 -9.79722 22
20 1 5.16941 -0.0042723 14.7268 17
21 1 -7.58698 -3.08116 -13.9598 16
22 1 -11.8886 -2.55135 12.6527 17
23 1 10.883 2.03588 9.84593 21
24 1 2.58167 9.88918 -9.61985 18
25 1 3.78798 5.35221 -13.8634 23
26 1 14.4087 0.206369 10.0587 17
27 1 -6.25713 2.48641 1.83198 17
28 1 -11.971 2.38736 -10.0438 14
29 1 -2.25679 0.353867 -8.6162 21
30 1 -10.4074 8.82641 10.2638 12
31 1 8.33516 -13.1066 6.37745 10
32 1 2.04494 -4.23656 7.59531 18
33 1 1.00841 -17.8968 -8.26112 11
34 1 10.1252 -9.59029 0.686242 16
35 1 -7.00825 -16.4289 -4.43374 10
36 1 -11.8389 -5.67513 13.1785 14
37 1 5.95308 -6.50764 -6.00892 23
38 1 4.14928 -7.30006 -10.4476 21
39 1 7.33989 -10.4119 -15.4923 9
40 1 -3.6164 5.27584 -15.4163 15
41 1 3.50173 0.949007 17.0158 18
42 1 -0.923326 -9.0226 6.00914 19
43 1 7.16932 -4.23585 11.111 19
44 1 -10.8536 -2.65127 -1.05336 20
45 1 -12.4764 0.193008 6.61009 18
46 1 -9.68836 0.648876 -0.612951 21
47 1 -6.0973 14.2724 0.989932 18
48 1 -1.3176 -15.3988 -9.70067 20
49 1 2.23539 0.908982 -9.15081 21
50 1 6.22845 -8.90556 -9.01802 18
51 1 -0.986435 -2.97907 14.6052 21
52 1 -8.76483 7.81603 -0.322851 21
53 1 4.52662 13.4537 -11.6402 12
54 1 -0.523177 10.9057 4.23276 20
55 1 -8.1375 10.3386 -11.1463 10
56 1 -3.09386 13.7333 -0.168609 19
57 1 2.02302 -12.7998 4.53561 18
58 1 7.20291 -9.1782 -4.53586 21
59 1 6.00257 -7.38299 -16.9373 10
60 1 -7.68533 9.08526 12.041 13
61 1 -11.4845 -6.51698 -10.0915 14
62 1 5.50463 2.61667 5.81785 19
63 1 -5.26605 4.25574 -6.01387 18
64 1 -5.86135 -7.26528 9.92715 20
65 1 -2.32598 12.7127 12.8772 9
66 1 -9.946 4.39673 -8.02169 19
67 1 -5.64701 6.87066 13.8694 15
68 1 0.148344 8.0195 -4.33573 20
69 1 3.00149 6.90183 7.25257 22
70 1 -4.64778 -16.1583 7.95127 10
71 1 2.35207 3.8539 8.66132 20
72 1 6.62823 -14.6139 -1.78969 13
73 1 7.59865 8.86152 14.9882 17
74 1 -8.18387 1.77242 -9.66231 20
75 1 -11.0078 4.80622 -12.5698 9
76 1 7.20334 6.31351 11.0033 21
77 1 13.7478 -4.30064 -8.90315 11
78 1 10.2398 -10.4461 3.91311 13
79 1 -14.4303 -2.67112 5.82649 10
80 1 -7.59584 -0.47308 2.16863 23
81 1 8.71861 13.8931 8.15778 13
82 1 4.66907 -1.6237 17.9525 18
83 1 -8.85657 -12.3494 5.33695 19
84 1 -13.2479 -4.57622 0.467022 13
85 1 8.2143 0.570435 5.30979 20
86 1 7.98012 -2.24696 -3.05883 20
87 1 -0.650661 10.4037 7.79269 22
88 1 5.36471 -0.568861 7.24768 22
89 1 -3.29068 -4.02187 4.06679 20
90 1 -1.98916 -5.97858 -8.43374 17
91 1 -12.7145 8.26386 7.64834 11
92 1 -8.33069 11.3371 -0.115905 21
93 1 -2.9591 9.1129 -8.69001 18
94 1 7.75818 1.727 -2.88989 24
95 1 7.3333 -3.54663 -7.14329 18
96 1 10.9705 8.50033 -7.26714 19
97 1 10.28 -6.35951 1.80961 19
98 1 4.83652 -12.391 7.79002 17
99 1 -5.01019 16.6081 -4.10028 14
100 1 -10.8649 13.7613 2.26323 10
101 1 -6.77991 -4.72374 11.9175 21
102 1 -2.57342 4.63696 5.82467 20
103 1 -2.68429 -5.3566 9.49909 20
104 1 12.3684 -10.0662 -7.37796 13
105 1 -8.85229 4.5627 4.40888 15
106 1 -10.1397 -15.4899 4.72817 12
107 1 9.64021 -11.1035 -5.58725 18
108 1 6.1765 3.21167 -12.3296 23
109 1 -4.86868 -1.9398 -12.3375 21
110 1 2.28346 1.52914 6.81812 21
111 1 -0.763422 7.24897 5.19397 21
112 1 -3.438 6.06106 -9.49112 26
113 1 1.94499 3.20513 18.3321 17
114 1 0.512254 14.3701 -5.51071 20
115 1 -11.1659 11.9623 -0.0602603 10
116 1 0.105892 8.23356 -1.21057 22
117 1 -0.945622 -8.07675 10.29 23
118 1 13.6864 -1.83767 7.85325 13
119 1 -0.14141 -4.77495 -10.4979 17
120 1 5.2128 -13.5845 -9.88406 19
121 1 -0.508034 2.80764 8.60852 21
122 1 7.65435 -2.59874 19.0468 11
123 1 -7.99826 -6.25674 -0.9921 22
124 1 5.39378 -3.50696 2.59452 23
125 1 -7.569 -9.35852 -4.55454 16
126 1 12.87 -11.2503 1.65868 6
127 1 -4.83625 4.93852 0.257711 22
128 1 9.01197 3.509 -12.6041 18
129 1 4.64402 17.1778 -3.34399 11
130 1 -7.54714 -11.8501 10.8225 14
131 1 -9.25207 -12.5248 8.85115 18
132 1 -5.13602 8.62343 -0.0755272 19
133 1 3.98772 -11.1215 -11.8244 22
134 1 2.62042 3.92682 -8.105 22
135 1 12.1511 -10.0156 -2.0072 14
136 1 -1.06107 -14.0941 9.76996 11
137 1 -9.9687 -10.8258 0.726137 20
138 1 17.4736 4.20335 11.2648 7
139 1 10.0658 -5.7634 -6.18473 20
140 1 -13.3316 -7.25372 1.23065 13
141 1 11.2743 7.68878 5.53347 16
142 1 13.6879 9.66183 4.37708 15
143 1 -4.17311 -0.742056 15.5653 19
144 1 8.21949 7.4976 -3.41041 20
145 1 -3.70504 9.37919 9.19656 20
146 1 -5.03887 13.0248 -5.44946 22
147 1 2.41727 -7.8544 -13.2643 24
148 1 6.62446 -12.5722 -13.6344 15
149 1 2.54301 15.3061 -8.57607 14
150 1 7.7857 -4.55908 14.451 12
151 1 2.19508 -3.49387 -16.9581 14
152 1 0.629568 9.00101 -7.14113 17
153 1 10.6262 -0.567841 -5.60162 20
154 1 -8.34186 9.83316 -8.36528 14
155 1 -6.40127 14.2876 -2.75828 16
156 1 8.42524 1.52285 -10.6052 18
157 1 12.0873 -7.53331 5.74967 10
158 1 -3.30553 3.51083 -7.73454 22
159 1 -7.54887 12.6093 11.3394 8
160 1 13.6266 7.50599 -6.59892 14
161 1 5.56392 11.8188 -1.14403 23
162 1 -3.61942 15.8349 2.40433 16
163 1 11.7066 15.9762 1.41793 9
164 1 -1.4593 14.5983 -3.06059 22
165 1 3.68744 17.203 -6.58364 10
166 1 5.55726 10.4647 -13.5596 14
167 1 -10.8817 -12.8262 3.13245 20
168 1 -12.2354 8.04765 -3.95505 17
169 1 -2.14328 -3.57073 -13.5586 18
170 1 1.67475 -10.9526 -14.5929 17
171 1 11.2883 10.0761 10.9839 22
172 1 -0.508447 15.5435 7.16011 15
173 1 -11.8163 -4.02648 -3.9001 12
174 1 -8.75568 14.5187 -1.33812 10
175 1 14.1852 -2.66873 -3.25399 16
176 1 -6.04915 -1.01512 -14.8719 15
177 1 9.63608 -0.0314419 18.5657 11
178 1 4.21686 18.1427 4.60448 11
179 1 -2.98751 9.74888 5.97384 17
180 1 4.04475 -9.02833 -15.5085 16
181 1 -4.99857 14.244 9.53834 9
182 1 -2.19779 12.8728 -6.17846 19
183 1 1.11296 -1.61637 17.204 14
184 1 -10.6605 -5.82792 1.66991 21
185 1 -1.47599 -14.9673 -12.7439 13
186 1 -8.45276 12.6803 -7.91087 11
187 1 -4.04388 -10.5288 6.14161 19
188 1 3.85753 -13.2045 -7.02437 18
189 1 -3.05935 10.2773 -13.2965 19
190 1 -14.3551 1.79234 8.76505 14
191 1 2.70809 10.3231 -2.38598 24
192 1 8.79895 12.6715 -0.790754 18
193 1 -5.04691 2.32649 15.2423 14
194 1 1.05309 -10.4473 10.8907 17
195 1 -9.09249 1.83237 -3.19172 20
196 1 0.839804 17.7423 4.9637 12
197 1 -0.653582 5.66644 10.2009 18
198 1 10.8622 2.25341 14.7582 17
199 1 -5.97385 13.7446 4.81309 18
200 1 13.5396 -7.44392 -8.39129 11
201 1 -4.59797 11.7706 11.0437 18
202 1 -2.28406 3.44131 -10.9039 20
203 1 13.7933 -5.3926 2.88593 17
204 1 -6.41655 -3.91964 5.79743 21
205 1 -15.3075 0.261382 5.95569 9
206 1 -7.88001 -10.8299 2.94426 19
207 1 9.88857 9.7702 17.0907 10
208 1 -12.59 0.961472 -2.24621 15
209 1 -3.0314 -12.944 1.32325 18
210 1 -4.66109 -0.791966 -2.63383 23
211 1 5.41303 -7.06588 -2.63902 20
212 1 -0.676361 11.3137 0.885327 19
213 1 -7.0379 1.46083 4.46367 18
214 1 4.40945 14.7597 9.61829 13
215 1 -7.56688 -1.55505 -1.32999 23
216 1 -4.46503 17.0434 -9.32231 7
217 1 -10.6998 -3.12722 -9.7324 20
218 1 -9.36008 -2.25911 11.2997 20
219 1 -0.229594 -8.74661 2.195 19
220 1 5.19608 -13.5027 4.58756 18
221 1 -13.9457 6.94727 -1.37268 11
222 1 15.9652 9.01827 2.44452 11
223 1 5.53668 4.55324 -6.57783 17
224 1 -4.14696 -8.11344 -13.1679 16
225 1 3.59627 -1.33092 11.6995 20
226 1 6.41254 -16.1631 4.41323 8
227 1 -3.0386 7.10036 -12.2554 19
228 1 1.39485 -12.9305 -9.19183 20
229 1 8.43934 0.393431 -13.4095 17
230 1 3.15032 7.62279 -16.0791 16
231 1 -2.27532 -2.22788 -7.26198 22
232 1 -2.83823 15.4952 -6.09447 21
233 1 -9.98499 -11.0343 11.7943 13
234 1 5.13894 17.2886 -0.057214 14
235 1 -7.14105 0.169845 16.1001 10
236 1 -6.14209 10.7553 -2.98987 20
237 1 6.42401 0.842906 11.9266 23
238 1 -2.74255 -6.95378 -10.7448 17
239 1 -5.17819 9.21028 -11.0096 20
240 1 5.65938 7.31483 -8.94074 19
241 1 -10.8409 -7.19334 7.85915 18
242 1 -10.3734 6.05816 8.61822 19
243 1 -6.79723 10.4045 9.42977 15
244 1 1.68525 -11.2198 -5.79966 19
245 1 -4.7433 -15.1314 2.06929 18
246 1 4.13744 -11.787 -0.575889 17
247 1 5.13342 -8.89077 -0.0421476 20
248 1 11.0929 7.57125 14.5795 19
249 1 10.8957 9.02746 -11.3715 11
250 1 -0.22645 12.0733 -1.75078 19
251 1 -9.43578 2.2003 2.18672 20
252 1 -11.9252 11.5869 -4.10645 9
253 1 2.885 9.87016 12.2718 17
254 1 2.99224 -18.224 2.48009 13
255 1 10.7617 2.79681 -4.04916 21
256 1 3.96987 12.5702 5.35923 20
257 1 -9.82834 7.84532 3.3573 16
258 1 -8.65119 -6.17628 -4.29866 24
259 1 9.55201 6.75951 -12.6947 15
260 1 5.22925 -3.4352 13.1193 17
261 1 10.1644 11.86 -8.07021 14
262 1 2.33222 -10.6964 -3.09349 16
263 1 -4.34462 1.38707 -15.3648 17
264 1 -1.38336 -18.8022 5.45132 9
265 1 10.3703 3.7914 -9.43884 18
266 1 -12.8329 -5.02599 6.74963 16
267 1 1.58004 -18.0401 -3.87124 14
268 1 -9.12023 -5.95546 -11.3065 17
269 1 5.34995 14.2824 -2.1445 18
270 1 3.15426 -4.21789 -12.4801 21
271 1 5.72038 4.20842 13.2109 21
272 1 16.3442 0.183818 -2.24031 11
273 1 -2.83013 -7.17086 -1.45651 21
274 1 12.473 -6.36355 -11.5042 13
275 1 -0.666283 -6.04523 0.242861 21
276 1 -5.37505 -3.81223 -7.96141 19
277 1 -10.9186 0.207645 -8.40048 22
278 1 -7.4735 -15.0319 9.94198 10
279 1 10.0129 0.491499 12.5979 20
280 1 8.53615 -6.85897 9.88394 12
281 1 -3.77313 -9.78556 -8.07867 19
282 1 5.06581 -7.39852 10.9319 15
283 1 3.44547 8.24173 -12.9286 24
284 1 5.53994 8.00528 2.46722 22
285 1 -5.30988 -6.63533 4.56521 19
286 1 2.87415 10.3038 3.2002 21
287 1 -3.73778 -3.41614 13.9828 21
288 1 -7.09204 -9.53596 -12.0078 13
289 1 -4.63296 -4.56055 -11.4678 18
290 1 -2.97841 8.38955 -15.5008 12
291 1 -2.06272 -10.2009 -5.49655 18
292 1 -2.38523 -13.011 -1.9362 15
293 1 7.59959 -6.80748 -14.6713 13
294 1 10.8957 0.86435 -8.52963 19
295 1 9.89212 2.69267 7.07179 19
296 1 -2.89793 -4.53149 -2.37824 22
297 1 -6.68743 -4.22813 8.75123 18
298 1 -0.328985 -8.89898 -0.814243 22
299 1 11.8634 4.5414 21.0187 6
300 1 -4.01348 -16.4411 4.84842 14
301 1 -4.91446 -9.00412 3.66812 19
302 1 -0.593001 18.585 -0.951581 13
303 1 7.00779 2.19893 -15.6712 15
304 1 -4.78257 -4.71087 -14.4085 16
305 1 5.61277 -6.13836 0.612606 19
306 1 -8.98887 -7.83315 13.9447 13
307 1 8.83037 3.65527 17.0428 20
308 1 0.592218 -12.0333 -1.85392 20
309 1 -4.65643 -14.1543 -10.9708 14
310 1 -6.94114 4.62065 -8.41839 20
311 1 15.3842 4.82974 6.20433 15
312 1 -5.73095 2.64688 -10.5475 22
313 1 2.21565 6.85622 -9.82471 19
314 1 -4.08615 -3.28945 7.33471 21
315 1 6.5575 -15.9157 -8.11685 11
316 1 -3.1846 16.8039 -1.21211 15
317 1 10.6348 13.3494 4.44169 17
318 1 8.14522 2.92476 3.87924 17
319 1 -8.45968 -0.88057 5.15694 18
320 1 -0.065077 -8.71968 13.3738 16
321 1 -7.6268 11.4525 6.17298 15
322 1 6.49611 -5.8384 -11.8932 20
323 1 13.3454 8.88745 -2.68647 16
324 1 7.48586 -11.3776 0.393039 19
325 1 -0.747568 -0.36637 15.8126 15
326 1 -13.7649 -5.68763 4.18478 16
327 1 4.11594 -16.4953 -3.01437 17
328 1 -7.45125 4.5675 15.3634 12
329 1 -10.9579 3.91322 13.8736 12
330 1 -15.1808 -3.88992 8.946 10
331 1 -13.7818 -6.14607 10.5695 8
332 1 15.5139 -5.22727 -3.67574 14
333 1 -11.5027 -8.33079 11.8795 11
334 1 10.292 -2.73364 -8.29598 20
335 1 9.08891 -13.9603 -7.39179 11
336 1 1.99305 18.076 -0.91299 13
337 1 -2.08575 -5.91129 6.11951 19
338 1 -9.46737 12.0209 -2.68174 18
339 1 -0.0604779 -0.174379 7.14027 22
340 1 12.3836 5.00212 13.3868 15
341 1 -8.65669 -3.36943 3.69595 23
342 1 9.17689 -11.0647 -2.15287 18
343 1 -2.56219 9.52874 2.88307 19
344 1 -6.94812 6.88497 4.82467 17
345 1 5.10783 -10.6384 11.3271 11
346 1 14.1358 -2.17403 1.74875 18
347 1 -1.90321 7.38614 7.86128 20
348 1 -4.95337 -1.23667 -5.94555 21
349 1 2.47742 0.406987 20.0198 11
350 1 -0.980483 14.6525 1.17723 23
351 1 12.1577 4.94002 16.2493 17
352 1 -6.45192 15.3134 -6.59436 13
353 1 2.44699 -7.2864 -16.574 13
354 1 -6.11996 1.66121 -4.28832 22
355 1 4.44008 -12.1539 -15.2089 11
356 1 -6.05834 4.49609 12.549 20
357 1 -14.855 1.61334 2.73946 11
358 1 0.11361 -3.85753 -7.02693 21
359 1 -6.4237 6.35909 -1.79076 16
360 1 6.39754 -4.90112 8.08579 18
361 1 -10.663 -14.949 0.576977 10
362 1 6.00604 -7.50287 5.05714 17
363 1 -6.5844 -9.76548 12.3511 18
364 1 -11.2217 9.3088 -1.65608 20
365 1 -0.736604 -5.45059 12.4656 21
366 1 3.32459 -13.1953 -3.62706 21
367 1 -5.08027 -1.35493 -9.30572 23
368 1 7.78561 -2.7767 -13.5769 17
369 1 1.61418 13.6431 3.32643 19
370 1 -10.2924 -0.913462 -3.57595 22
371 1 0.958107 -10.1636 -11.3328 19
372 1 11.945 5.34564 -11.5942 12
373 1 -4.08295 -16.731 -11.0357 11
374 1 -10.6907 -12.1647 -1.43147 14
375 1 -2.83855 -9.78485 0.693501 22
376 1 14.1138 3.10943 18.6109 11
377 1 10.9329 1.93266 -0.706278 21
378 1 -7.01004 -0.181886 -11.2758 21
379 1 2.0837 18.6949 1.89823 13
380 1 -13.2155 -1.10586 -4.72976 15
381 1 -7.03578 7.50122 7.63048 14
382 1 -5.91501 9.87878 5.06784 17
383 1 -4.09525 5.43392 8.60432 19
384 1 15.5083 5.02204 16.3919 10
385 1 10.1671 -3.30602 -5.14959 17
386 1 5.65837 -4.45887 16.7624 13
387 1 12.8354 -1.05083 -7.22815 12
388 1 -3.84923 -16.4187 -3.63028 15
389 1 3.2488 4.24478 5.25184 21
390 1 -2.61933 6.66334 -3.03407 20
391 1 -0.128667 -6.87922 -5.91259 21
392 1 5.42313 8.59149 5.39734 20
393 1 -7.68271 -0.882922 -4.61549 22
394 1 5.77019 -10.7081 -2.5336 20
395 1 8.19864 -1.99827 7.81551 21
396 1 -7.89611 -6.13343 -8.18827 17
397 1 -5.35231 -12.1011 -0.0464853 19
398 1 -5.73473 -6.31271 13.6417 19
399 1 -3.48584 11.7393 -3.37879 19
400 1 -5.65227 -15.2808 -6.67643 13
401 1 10.1149 10.4138 13.7828 17
402 1 -7.83713 4.21298 -4.31155 21
403 1 0.225987 11.7319 -7.56373 19
404 1 5.60542 11.1331 6.89017 19
405 1 -9.61767 -8.75928 -2.34932 18
406 1 -0.209648 -9.21174 -3.78331 20
407 1 -11.6288 0.596923 3.02493 16
408 1 -11.5381 1.96006 -5.25912 23
409 1 3.96905 -6.93476 8.01742 20
410 1 0.08918 -14.0354 -4.56167 17
411 1 13.9887 9.94431 12.3809 11
412 1 5.99393 7.72284 -14.9055 16
413 1 -10.0766 1.27633 -11.9463 18
414 1 -0.953636 14.7707 -8.28888 20
415 1 -8.65378 7.45862 -6.49105 22
416 1 -2.33484 -10.6903 3.40867 21
417 1 15.3096 7.55498 7.83297 12
418 1 3.17848 10.2512 -15.2964 12
419 1 -1.4453 0.545277 10.3476 19
420 1 -12.1793 1.80497 0.516046 18
421 1 -8.22944 1.97452 7.48157 20
422 1 -4.29858 -13.1759 5.47139 19
423 1 2.67493 -4.66641 -5.83875 23
424 1 7.24687 -11.3451 -10.4136 19
425 1 -2.91212 -1.16262 6.01502 21
426 1 -10.3787 2.53202 5.74954 16
427 1 -14.4401 -1.14044 11.5266 9
428 1 -12.2118 8.84337 4.17589 12
429 1 0.69083 -4.96938 10.3087 20
430 1 -5.12874 0.832523 -18.2793 10
431 1 6.86169 -11.4557 -7.38269 22
432 1 -2.03821 -12.4576 -10.576 20
433 1 -2.05659 -6.56803 14.9265 15
434 1 2.58733 -7.30222 -4.31967 19
435 1 -3.35922 3.1946 -17.9401 12
436 1 7.81003 -11.439 3.34451 17
437 1 2.28834 13.3616 -2.723 19
438 1 -10.7866 11.764 4.33803 14
439 1 -3.10314 -3.95306 17.0169 11
440 1 -9.8655 -7.56774 -13.5648 9
441 1 -8.06193 -6.26645 7.03864 21
442 1 9.64 -5.48185 7.27915 15
443 1 7.71999 2.01211 0.437306 22
444 1 -6.23481 4.4787 6.99681 18
445 1 2.88901 -2.01434 -7.9638 19
446 1 10.0686 -9.72422 7.1556 14
447 1 13.4482 3.94327 0.868871 15
448 1 -2.14753 1.79145 14.3455 18
449 1 2.49434 10.0021 0.119278 22
450 1 7.4894 -5.41808 3.72279 19
451 1 -4.32576 -18.4549 -5.56978 11
452 1 -1.59363 3.58979 16.5525 13
453 1 0.842241 12.3081 5.72661 20
454 1 -7.21448 -9.60481 -7.96918 17
455 1 9.16488 15.603 3.24046 18
456 1 4.034 6.52137 10.301 21
457 1 -7.37255 6.29426 9.81446 21
458 1 -5.53479 -6.26156 -3.6001 21
459 1 -11.5103 5.54655 10.9814 17
460 1 -5.82871 -6.99848 -6.5093 19
461 1 -9.72598 14.0961 5.90716 10
462 1 -3.06974 -13.6822 -5.08737 20
463 1 -1.18962 -11.0532 -13.2928 16
464 1 -8.14685 -13.7399 1.40652 20
465 1 -5.21707 -1.30963 4.1586 21
466 1 9.38325 -1.05644 10.396 20
467 1 -3.63625 -7.15378 11.9067 21
468 1 -8.9135 7.55967 -11.9845 12
469 1 5.5672 5.58245 -2.5175 20
470 1 -8.0108 -14.3318 -1.73541 14
471 1 1.16384 4.47275 -10.9791 21
472 1 -0.372229 17.2461 1.65032 17
473 1 -2.72659 6.56509 -6.52419 21
474 1 0.0249505 11.5846 10.9273 18
475 1 -10.768 -6.04823 -1.14848 21
476 1 0.980849 16.725 -3.30319 17
477 1 8.42293 10.0346 -5.53293 20
478 1 -5.44296 -7.37236 -9.90017 20
479 1 7.88933 2.39226 19.9327 15
480 1 4.2996 -17.6477 -6.45343 12
481 1 -0.286795 1.33316 -11.0454 20
482 1 6.74537 -14.1709 1.90464 13
483 1 -10.5253 9.83279 1.62067 17
484 1 3.05698 4.53982 15.741 22
485 1 5.31439 11.9904 -4.83447 20
486 1 5.35503 8.70523 -0.978269 22
487 1 -5.84347 10.6403 -13.8535 10
488 1 5.01435 2.28296 -8.22404 21
489 1 1.65845 -6.9191 5.74911 19
490 1 -12.1596 -8.71008 -0.642774 15
491 1 4.52702 17.213 8.0748 11
492 1 -6.88898 2.18419 -13.3246 21
493 1 11.2269 11.009 0.722079 16
494 1 7.55031 13.2989 -7.04067 15
495 1 7.9513 -8.50904 -1.49158 23
496 1 10.7192 -0.402823 -2.87734 21
497 1 1.17407 0.31479 -13.6308 20
498 1 3.1184 -7.16845 2.71565 21
499 1 1.75849 -14.3846 7.48519 16
500 1 3.12571 -9.02079 13.2121 12
501 1 -8.63869 1.50448 -6.26259 24
502 1 -10.6734 -15.4261 8.04263 11
503 1 -1.9285 -9.69888 -10.077 17
504 1 6.2784 14.1456 7.14025 14
505 1 0.875502 6.72636 -13.6751 18
506 1 5.90101 -0.00724593 20.257 12
507 1 -12.3843 0.0376773 10.3042 22
508 1 -0.337928 -18.1541 -0.313696 14
509 1 -5.75302 -3.54272 2.23984 21
510 1 13.3662 -6.86373 -5.5586 15
511 1 10.462 -3.54607 -0.652598 18
512 1 -4.29769 14.1882 -8.47926 16
513 1 2.8336 -7.27817 -7.82547 19
514 1 4.6671 4.74352 -10.3488 20
515 1 8.44869 -4.2385 -10.7716 19
516 1 -5.65266 -2.64592 17.3754 10
517 1 4.28027 14.7226 3.41184 19
518 1 -5.17952 -2.52388 -16.8133 11
519 1 5.4531 2.41514 -17.9344 11
520 1 -9.87749 -3.52454 6.89532 19
521 1 -5.10271 11.266 0.463639 19
522 1 -7.64091 -3.29423 -11.0019 19
523 1 -10.1988 -1.21536 1.42601 21
524 1 0.901776 -13.2917 -12.4073 17
525 1 -5.0055 -10.1079 10.1466 19
526 1 -0.628237 7.46178 -9.3491 18
527 1 14.7647 4.59839 9.51561 14
528 1 12.0522 4.6275 -1.75933 15
529 1 -7.48427 -13.3233 -4.35997 13
530 1 2.31376 -9.9173 0.976348 20
531 1 0.663195 -5.64056 -15.3367 16
532 1 -4.84504 11.89 7.75178 20
533 1 5.14069 -0.840477 -6.30831 16
534 1 3.02036 7.29057 0.604737 23
535 1 13.4338 -4.38886 -0.599511 20
536 1 3.44879 11.9092 -8.03029 15
537 1 1.2878 -9.43379 4.25305 21
538 1 13.3381 4.33745 -8.3108 12
539 1 5.2316 7.96805 12.9913 18
540 1 -11.3095 2.83623 8.85243 21
541 1 9.01068 12.5354 11.3276 15
542 1 8.38653 -2.37817 16.0673 12
543 1 1.29937 3.45997 -14.0559 16
544 1 -3.07817 -4.66445 -5.72347 22
545 1 2.20924 -1.47188 8.83668 20
546 1 9.72457 7.74868 8.48522 20
547 1 8.77814 7.2045 -9.16754 19
548 1 -5.16886 11.3858 -9.05578 19
549 1 3.05225 13.0501 0.511866 20
550 1 10.5943 -2.36146 13.551 15
551 1 13.2814 -0.926203 -12.489 7
552 1 9.68544 -11.1353 -9.22486 16
553 1 14.2474 6.99364 14.4064 13
554 1 -12.8251 -9.97717 2.88054 13
555 1 -4.08646 13.27 -12.0547 13
556 1 0.128938 -1.84791 11.9683 19
557 1 -11.7823 0.301018 13.8594 13
558 1 -1.74624 15.2309 -11.3054 13
559 1 2.63462 -12.5967 1.53209 19
560 1 5.64019 0.409601 -10.1409 18
561 1 -2.18016 18.3315 -4.17362 13
562 1 -10.6465 -3.93687 -12.5703 14
563 1 3.18284 -16.1276 5.42356 18
564 1 -7.88598 -6.28925 2.96488 21
565 1 2.51286 11.3721 -12.3852 14
566 1 -6.31318 1.92535 -1.1332 21
567 1 1.9558 7.06389 13.2419 15
568 1 -9.92757 -4.7288 9.89193 18
569 1 5.66693 5.48393 0.71446 19
570 1 3.99219 -10.7406 -9.05266 19
571 1 2.65954 -4.21983 16.6088 12
572 1 7.6731 -0.393343 -4.89011 21
573 1 -6.99811 8.85949 2.27605 19
574 1 8.17422 4.98739 21.2528 9
575 1 7.00759 15.4573 -5.38506 17
576 1 10.2432 -8.1975 -3.90704 21
577 1 5.75521 11.0218 12.8436 12
578 1 1.87021 5.48631 -18.6582 8
579 1 -8.49455 -9.09381 9.25705 25
580 1 -0.192057 2.36559 -7.52575 22
581 1 5.93445 -0.624758 -15.8441 15
582 1 0.737047 14.5447 9.6652 16
583 1 9.64195 5.11139 -6.53263 16
584 1 0.464992 -1.58419 -16.0546 20
585 1 -3.26207 -10.0212 -2.26083 16
586 1 -13.535 -3.85853 -10.744 9
587 1 14.5897 2.84269 4.38372 17
588 1 14.2293 2.08717 -1.45592 17
589 1 10.6441 -7.70792 -9.1659 16
590 1 16.736 4.30185 14.1634 8
591 1 4.28288 -9.79246 -5.90361 20
592 1 4.42557 4.91143 -16.3767 15
593 1 7.48633 10.4158 3.78495 21
594 1 -5.13242 4.16057 3.8598 17
595 1 13.1202 9.88872 15.3482 11
596 1 7.69538 10.0268 0.852189 21
597 1 16.0986 -0.00955665 0.636548 14
598 1 11.0601 9.51797 -4.38989 20
599 1 11.1621 2.91224 18.6009 16
600 1 16.4123 1.83298 8.95322 12
601 1 1.79072 -4.00524 13.0675 23
602 1 12.5528 12.6614 -5.94137 12
603 1 8.91328 4.97468 1.80389 17
604 1 3.70154 1.7741 12.6611 17
605 1 13.4467 -0.0335744 -3.89411 16
606 1 7.14182 0.497545 16.9458 20
607 1 -5.63386 1.4357 -7.90661 22
608 1 15.621 5.14994 -0.980297 13
609 1 11.5688 -2.9764 2.15078 21
610 1 2.68121 -6.94774 -0.79497 21
611 1 -8.8306 6.0674 12.7912 16
612 1 10.5383 7.29627 11.4991 19
613 1 15.9079 0.727159 12.5468 9
614 1 4.24615 9.50068 8.87682 20
615 1 3.24187 13.1064 11.4317 13
616 1 7.21795 1.37876 8.8593 21
617 1 -1.9327 -16.9613 2.35721 17
618 1 -3.03079 9.69698 -5.3206 20
619 1 13.6964 10.5647 -7.61463 10
620 1 11.4416 -3.65077 -11.3335 15
621 1 0.654864 14.9885 -0.997111 18
622 1 -3.53553 -12.9566 -8.04709 19
623 1 10.3682 -5.21588 -14.0309 11
624 1 -13.9162 2.38945 5.20019 16
625 1 -6.26771 5.92286 -11.5141 20
626 1 -2.11875 -14.2413 3.67476 20
627 1 -3.7074 0.7681 -11.34 21
628 1 -14.4513 2.52566 -4.72412 12
629 1 9.46445 -7.72671 4.5121 18
630 1 13.1042 12.8617 6.71394 12
631 1 3.23617 -10.0573 9.17773 21
632 1 -13.5504 -2.81891 -7.6045 12
633 1 2.23213 2.00201 -19.6014 7
634 1 3.93224 -4.30635 10.3058 22
635 1 1.37821 2.26995 14.9561 18
636 1 7.88836 9.28083 -12.314 16
637 1 12.1288 -1.28043 11.3108 15
638 1 7.3752 7.24773 -6.58121 21
639 1 12.3381 15.7511 5.04795 9
640 1 3.07715 -15.7583 -9.05294 15
641 1 -8.91246 -1.27826 13.9661 17
642 1 16.9491 0.744419 4.04573 7
643 1 -0.188275 9.77522 13.6253 14
644 1 7.29018 12.5455 -10.6893 13
645 1 -10.1888 10.1594 -5.64026 18
646 1 10.5556 10.4993 3.91989 18
647 1 -7.39552 -16.3771 0.96913 11
648 1 16.7187 -3.4722 2.1708 11
649 1 6.84789 13.6776 4.39967 20
650 1 -3.06259 3.13253 11.109 22
651 1 -7.03449 -9.15273 0.933196 18
652 1 -11.3457 -5.83149 -6.91896 14
653 1 7.58813 -1.8449 12.9878 16
654 1 -2.53173 -10.3082 11.7494 14
655 1 8.16908 6.21369 14.0731 21
656 1 -5.3257 8.36611 -4.13533 17
657 1 9.02389 4.56632 -1.57659 21
658 1 7.78789 -4.275 0.175284 19
659 1 5.32905 5.10499 7.73006 18
660 1 0.462126 -1.00345 -18.6211 11
661 1 -12.0722 -2.55091 9.17908 18
662 1 9.47484 -1.40973 -10.6934 18
663 1 -3.16163 -7.66725 -5.33162 19
664 1 9.67523 -10.7743 -12.8022 10
665 1 8.12477 4.12483 9.29079 18
666 1 6.373 7.37425 8.62923 18
667 1 -6.24152 -1.72376 11.6872 19
668 1 12.2664 4.87877 6.47055 18
669 1 1.80471 -0.939511 14.1088 17
670 1 -0.236396 3.04637 12.2616 16
671 1 0.430506 -3.16123 -13.0651 17
672 1 -8.96806 3.71876 10.8363 22
673 1 7.48245 2.27505 14.1859 20
674 1 -7.47006 -14.4886 6.96503 19
675 1 14.6757 11.0 1.21692 10
676 1 7.75412 -13.064 -4.24277 12
677 1 0.733202 5.16128 -5.93169 18
678 1 8.74322 12.6485 2.11159 21
679 1 8.75839 16.2772 5.70519 12
680 1 3.00054 0.0160904 -17.1992 15
681 1 -0.708344 -3.15841 5.72762 22
682 1 3.93304 14.6267 -5.13088 15
683 1 13.2203 8.43792 0.805253 15
684 1 -5.95429 -8.56518 -1.65292 18
685 1 -1.79081 -3.22258 -16.3856 15
686 1 -8.5704 9.17722 -2.93554 22
687 1 7.9249 -6.09348 -8.36904 18
688 1 6.15242 5.25827 4.35308 19
689 1 10.9695 6.54473 -4.28162 19
690 1 8.51815 15.7124 0.342177 14
691 1 -3.36369 1.98198 7.47579 21
692 1 -8.38418 3.95894 -0.882527 19
693 1 3.34721 7.1585 -6.26858 20
694 1 15.5319 1.67203 16.0521 11
695 1 13.3513 0.246777 13.7365 16
696 1 -1.43566 -10.6204 8.43573 21
697 1 -5.81215 7.07221 -14.6031 14
698 1 1.49292 17.9879 8.18042 10
699 1 5.79624 -8.75293 -12.1106 19
700 1 4.12638 1.11328 9.51746 21
701 1 7.89982 12.5107 -3.86085 19
702 1 10.7923 11.0918 7.31653 19
703 1 12.2235 -5.38646 -3.43807 20
704 1 9.34458 8.0101 20.359 7
705 1 -15.4118 -6.06357 6.94374 10
706 1 1.22614 -15.2044 3.12045 19
707 1 0.415476 -1.70061 -9.08425 20
708 1 -7.94215 15.1023 3.37355 10
709 1 0.437935 5.14193 7.11111 18
710 1 5.53497 -4.35239 -4.18781 17
711 1 8.34134 7.58002 3.13535 21
712 1 -12.2364 -3.21053 3.52639 19
713 1 -0.28711 1.31607 18.5664 12
714 1 -4.46989 4.23505 -12.7336 21
715 1 -7.76259 5.18174 -13.9356 15
716 1 4.03987 -15.7504 2.3236 18
717 1 8.44633 10.1203 -2.13937 22
718 1 4.04478 -5.08444 5.44139 21
719 1 -4.14159 7.09287 3.21471 19
720 1 -12.5444 2.81124 11.5784 17
721 1 2.88955 -1.83756 -14.5871 17
722 1 2.66127 -12.9668 9.98154 12
723 1 2.61125 15.9193 0.949925 21
724 1 -2.6694 -1.50733 18.9461 8
725 1 -6.79874 -6.3892 -12.1977 18
726 1 -4.27277 -10.5715 -10.813 19
727 1 -3.58243 -15.9675 -8.10649 18
728 1 -0.0253988 17.5308 -6.22725 11
729 1 8.51893 -8.95457 -7.107 18
730 1 -2.35378 12.4898 5.29629 20
731 1 -0.915221 -13.2996 -7.09603 21
732 1 2.26435 -14.6489 -0.750554 17
733 1 4.04955 -6.19151 14.2521 14
734 1 15.9977 8.52156 -0.882124 11
735 1 2.30091 -15.489 -5.81624 22
736 1 -9.20689 -4.51085 13.6041 20
737 1 2.30315 1.02419 -6.23633 21
738 1 -3.95382 -17.3414 -0.359006 11
739 1 -5.23213 -13.3414 -2.75227 18
740 1 -9.77028 0.649726 11.5182 20
741 1 -1.64149 -16.4246 7.08544 12
742 1 15.889 7.18969 -3.79171 10
743 1 -3.60602 12.7097 2.77844 24
744 1 -6.20863 -0.759301 7.03675 19
745 1 -11.8093 7.33373 1.03702 16
746 1 10.2259 0.68088 2.14713 19
747 1 -12.9321 -0.873756 -10.8875 13
748 1 0.0614766 11.2689 -4.32378 21
749 1 8.49139 2.55111 -6.64739 22
750 1 11.672 12.7302 13.1129 11
751 1 7.65136 4.31426 -4.6046 20
752 1 -13.6783 0.526247 -7.81196 16
753 1 -9.57605 -9.42633 -10.3293 12
754 1 0.550576 6.02741 17.2322 13
755 1 6.28838 6.75111 -11.4647 21
756 1 12.0046 12.7257 9.58912 12
757 1 -4.56557 -3.37754 10.6877 18
758 1 -1.9255 -18.7859 -3.21129 12
759 1 -6.71536 -11.7086 7.55656 20
760 1 -0.818472 -2.57756 8.76662 20
761 1 13.3195 7.58006 9.90334 13
762 1 2.3039 -4.84151 -9.33891 20
763 1 -6.59052 10.3616 -5.98676 21
764 1 8.95338 5.46181 6.08632 20
765 1 -10.1187 -5.68216 4.80779 23
766 1 12.8203 7.42799 -9.4441 13
767 1 -1.2036 -16.6226 -5.87467 19
768 1 0.521038 -18.9219 3.40714 12
769 1 -1.16694 -15.2373 0.268059 19
770 1 7.52153 4.4685 -9.44687 23
771 1 6.44569 17.1726 2.68605 14
772 1 -2.73865 -0.500042 -17.6335 16
773 1 -3.03757 -0.980538 12.5243 17
774 1 0.214357 7.95853 -17.0059 11
775 1 -10.5943 -1.27804 -13.5092 9
776 1 -8.53749 -3.69554 -3.07196 22
777 1 6.1355 14.9212 -8.77547 9
778 1 7.50485 -1.15191 1.51507 19
779 1 -2.69832 -6.43631 -15.2671 12
780 1 -5.18175 -6.40471 0.683818 19
781 1 10.9018 7.85436 -1.31425 18
782 1 13.4495 -7.24696 0.268751 14
783 1 -2.78559 6.25744 11.785 21
784 1 7.14976 -10.4034 5.73716 24
785 1 15.7503 -6.28447 0.0453605 11
786 1 10.5298 -3.91886 10.0895 14
787 1 0.812111 8.61973 9.5295 17
788 1 -8.31251 2.39489 13.6278 18
789 1 -5.3112 8.2301 10.9031 21
790 1 -3.66121 -12.6992 8.6261 16
791 1 13.4226 1.14774 1.73065 19
792 1 8.44211 8.98322 11.9362 22
793 1 -13.2609 -1.0412 1.05582 14
794 1 12.2239 -10.5744 -4.4753 11
795 1 -9.02979 13.5758 -5.32365 11
796 1 2.68382 7.25032 3.72752 20
797 1 1.07693 -16.9322 7.59082 8
798 1 5.08436 2.64871 16.5422 20
799 1 2.37957 15.7104 5.99998 20
800 1 4.12622 -10.3213 5.8095 16
801 1 -8.60607 -3.94687 0.721489 22
802 1 1.54871 1.00571 10.3829 19
803 1 -11.5357 -7.4653 -4.32024 13
804 1 6.57466 5.55502 19.0919 14
805 1 5.21467 11.6831 2.43328 23
806 1 -11.5636 -13.1219 6.4953 13
807 1 -1.0705 -13.4412 6.64512 15
808 1 11.3309 -4.84389 4.42853 16
809 1 12.3267 -0.941711 4.54128 21
810 1 7.89542 9.83085 9.16718 20
811 1 -2.30814 7.11435 0.448983 21
812 1 0.886702 -7.79296 -10.1536 21
813 1 -1.33145 3.45198 -13.473 20
814 1 -4.68097 0.905813 11.9192 17
815 1 -1.20345 15.0272 4.06459 20
816 1 11.5364 2.17879 4.40395 18
817 1 2.83703 9.68874 -4.92467 19
818 1 -2.05199 7.38968 15.2812 13
819 1 8.89194 3.78247 12.189 20
820 1 5.65062 -3.02338 -10.9169 15
821 1 -7.67921 -11.2433 -1.77258 18
822 1 -2.95389 1.15899 -5.81857 22
823 1 14.5147 0.229031 6.36689 16
824 1 2.99029 -0.996163 -11.4777 21
825 1 3.52411e-04 4.86558 14.2488 19
826 1 8.00677 -14.4766 -10.9028 10
827 1 6.76189 5.30056 -14.4673 15
828 1 0.136086 -6.27471 -2.55245 21
829 1 11.5778 1.43928 -13.341 11
830 1 16.2344 -3.34015 -0.612676 15
831 1 1.25941 -6.35341 14.785 13
832 1 -0.502364 -7.99538 -13.3047 20
833 1 6.18826 14.2818 1.05299 23
834 1 -0.262461 -6.15673 3.69677 21
835 1 -12.3835 4.59739 3.52438 14
836 1 13.3238 4.65972 -5.01135 12
837 1 16.5537 7.88052 4.74501 12
838 1 4.35214 -6.22515 -14.2281 20
839 1 -7.42525 12.0319 2.97888 20
840 1 15.9067 10.7193 6.28561 9
841 1 9.86049 14.3986 -5.8315 12
842 1 3.60788 1.73042 -14.7384 21
843 1 10.5406 -6.65056 -0.939929 18
844 1 -13.9938 3.50735 -1.76681 11
845 1 11.6422 6.31428 2.86492 13
846 1 -12.9292 -11.9823 0.671046 12
847 1 -8.79351 7.12391 -9.27472 19
848 1 4.98226 3.48606 10.6431 20
849 1 -8.20107 -3.73609 -6.53864 16
850 1 -12.9356 5.73589 6.38504 10
851 1 -0.412376 4.91031 -8.67583 20
852 1 11.8188 -9.39156 -10.94 13
853 1 -9.64442 -8.90238 -6.76186 13
854 1 14.622 -8.42247 -2.74351 10
855 1 -14.3296 4.89968 1.43203 11
856 1 -5.91868 -3.34635 -4.2906 23
857 1 11.6847 4.84801 10.1915 20
858 1 -6.03734 -8.09722 7.4197 18
859 1 12.6364 0.639538 17.0199 13
860 1 14.6393 -2.59788 4.87687 11
861 1 9.19025 -1.99583 4.36186 20
862 1 -10.4629 4.86496 1.48458 16
863 1 2.8285 12.0642 8.16465 20
864 1 4.78834 10.3954 -10.9922 19
865 1 0.0611885 -9.0495 -16.1731 11
866 1 -3.73076 14.5918 6.47518 13
867 1 -11.704 -10.4769 9.06269 11
868 1 11.1182 12.0744 -3.39822 16
869 1 3.10696 6.59279 18.2436 11
870 1 13.1874 -4.10335 -6.18605 16
871 1 6.67203 -8.4644 8.27568 19
872 1 -0.558538 12.1611 -12.8205 16