ITEM: TIMESTEP
27000
ITEM: NUMBER OF ATOMS
2000
ITEM: BOX BOUNDS pp pp pp
-30.0 30.0
-30.0 30.0
-30.0 30.0
ITEM: ATOMS id type x y z Coordination
1 1 -8.91381 5.43474 -9.94052 18
2 1 -6.93965 -11.7495 -6.16613 16
3 1 0.843336 12.8438 17.0992 12
4 1 7.93812 -11.9594 8.24549 8
5 1 -12.4552 9.46285 1.25379 18
6 1 11.8261 -5.8401 -7.47873 22
7 1 -9.07045 4.84441 -3.58786 19
8 1 -5.46851 -4.39125 14.4781 14
9 1 -6.69189 -0.901224 -9.15226 21
10 1 -12.2786 -13.007 4.93899 17
11 1 10.3301 3.93237 -11.1165 12
12 1 -9.6077 -12.4053 0.684861 19
13 1 -14.2061 -8.2884 1.25172 16
14 1 -1.54261 2.20092 19.8922 7
15 1 2.01232 4.35622 9.63596 19
16 1 -3.99197 10.3175 -9.9215 18
17 1 2.01165 -0.900103 12.8353 17
18 1 -8.39455 -1.26647 -14.4662 13
19 1 -17.8693 -0.351099 7.1166 12
20 1 12.3076 3.0642 10.9288 19
21 1 -0.74534 8.26864 -13.7134 20
22 1 -1.52737 7.31477 -18.838 12
23 1 14.6064 2.88069 12.8934 16
24 1 -14.9062 6.2967 -6.63073 8
25 1 -13.8555 3.38011 14.1836 11
26 1 6.63713 -13.024 5.00765 14
27 1 3.71013 -12.4669 -8.61299 14
28 1 9.33592 -12.9958 2.37346 11
29 1 -10.1728 -15.0445 -2.88323 11
30 1 -16.3397 -3.30838 7.30981 15
31 1 1.99852 -6.66766 -7.68031 21
32 1 10.3619 -10.0131 -7.34064 16
33 1 -0.20316 4.47797 -18.8017 14
34 1 -3.64596 7.3582 14.3272 20
35 1 -2.76854 -8.8906 9.49062 20
36 1 3.89335 -8.58243 12.4257 8
37 1 -16.1182 2.91363 1.02071 15
38 1 -15.2985 0.882758 7.17925 21
39 1 -13.469 3.35811 -0.534045 21
40 1 -5.31147 12.5136 -5.43489 22
41 1 -2.52889 -11.6222 -9.40402 14
42 1 4.71236 3.59583 -16.7733 15
43 1 4.41237 -3.82565 -10.8142 20
44 1 -1.45926 -0.541007 16.5933 12
45 1 -14.5903 11.9239 0.664031 10
46 1 2.63769 11.6881 -14.6899 13
47 1 -3.34937 10.2085 9.57192 21
48 1 -8.30595 10.3742 -1.72252 19
49 1 -0.583687 12.949 -0.427572 19
50 1 2.03205 -16.5595 2.9175 8
51 1 6.31995 -4.48904 -5.32343 19
52 1 5.76582 -8.16519 -12.2055 13
53 1 -10.0333 7.50234 11.626 20
54 1 -15.8915 -2.86932 -8.18017 9
55 1 -3.62916 9.71525 -6.79201 24
56 1 -8.14811 -11.1725 8.97729 21
57 1 -2.7375 12.4763 14.1052 12
58 1 -9.57168 8.29587 -4.3252 17
59 1 -6.23543 9.1897 11.2199 22
60 1 -1.86824 -11.3256 7.94861 18
61 1 4.743 3.20328 7.74225 21
62 1 6.90943 -14.8033 0.296032 12
63 1 6.41429 12.6483 14.7817 10
64 1 -11.367 4.98712 -9.48767 15
65 1 -9.45041 9.10265 -9.5041 17
66 1 6.30134 8.148 11.3835 18
67 1 12.7919 -2.64944 -7.41583 19
68 1 9.15538 -11.4842 4.87513 14
69 1 -19.11 -1.0107 0.915218 13
70 1 1.50988 11.546 4.69349 19
71 1 4.2692 -2.98439 14.2637 18
72 1 -8.59693 -8.76706 5.30702 22
73 1 -16.9324 2.59895 -1.52241 11
74 1 8.31694 -1.4436 12.4541 21
75 1 1.48755 18.7559 7.79536 9
76 1 5.036 -2.29472 7.99857 18
77 1 -0.902965 -6.3572 -5.95749 22
78 1 -13.1302 7.16127 10.6858 10
79 1 -10.2876 11.3621 0.632899 16
80 1 -3.63363 7.03359 -8.33222 22
81 1 7.58926 -1.0683 -4.12745 20
82 1 7.43816 13.7409 -7.72477 15
83 1 6.35141 -3.98067 4.7053 20
84 1 5.59196 -10.4492 10.0908 10
85 1 -3.71498 12.4069 -8.13409 20
86 1 -6.5311 14.4458 6.228 16
87 1 -11.4592 -5.08569 15.4138 9
88 1 -4.67034 6.39493 7.9611 22
89 1 -7.40368 -1.60086 14.7336 20
90 1 15.9966 -4.69741 -3.18564 14
91 1 -12.1762 4.90956 4.55537 20
92 1 -11.1314 -15.4773 5.51318 11
93 1 13.4391 -8.30998 -7.44533 13
94 1 1.6461 -1.06272 -14.4508 20
95 1 -0.855905 -0.49095 -12.4671 19
96 1 -0.109663 9.74932 1.55051 21
97 1 -6.8011 10.7809 -7.78804 19
98 1 2.0033 7.11899 17.7651 16
99 1 -2.45298 14.5016 -5.99171 16
100 1 -12.4672 12.6971 2.66151 11
101 1 2.76895 8.96771 2.92289 22
102 1 -8.46842 -6.17406 10.8323 19
103 1 12.1263 -0.49399 7.92549 16
104 1 4.07129 -3.84597 -7.65789 20
105 1 8.38452 -7.12735 -7.47217 19
106 1 -3.67241 4.42585 9.93977 18
107 1 5.63282 -0.187468 15.6769 13
108 1 -12.8885 -8.03515 -1.39119 21
109 1 -9.15817 -5.61479 -3.68556 17
110 1 9.0937 -8.43285 5.20491 15
111 1 -7.10886 7.3202 2.80765 20
112 1 5.03113 6.59915 -14.3849 18
113 1 -0.880853 19.739 4.85904 9
114 1 -8.69626 -9.82963 11.6987 17
115 1 -10.3542 -12.4716 11.5537 14
116 1 6.76329 -6.23491 -13.7893 11
117 1 5.13513 5.27342 -8.53723 21
118 1 11.7051 -5.37801 -2.35099 16
119 1 1.41128 -13.0653 8.29879 15
120 1 -10.2026 -6.01322 -0.892238 21
121 1 17.8764 8.27891 8.16697 6
122 1 14.9453 0.0642258 -7.42243 11
123 1 -13.7903 -2.74549 -0.586809 20
124 1 10.0224 6.83491 6.23688 21
125 1 14.1826 9.84379 1.23731 14
126 1 -7.4705 1.57899 16.3462 11
127 1 1.39949 7.23788 11.2023 20
128 1 -0.871893 10.4991 -8.46999 20
129 1 -2.23515 -8.71067 -7.1997 18
130 1 8.0664 -12.2168 -7.89626 14
131 1 -2.37387 10.9512 -12.8289 20
132 1 6.53985 -4.76787 12.279 16
133 1 -0.810276 -3.7633 -16.8796 13
134 1 -1.28013 8.11243 -6.68244 21
135 1 9.70676 1.65184 -3.87515 21
136 1 -10.7854 10.2343 -6.8839 11
137 1 -5.06883 15.9812 0.331723 14
138 1 6.986 4.22283 -10.8298 19
139 1 6.26673 -9.54738 4.5581 17
140 1 -7.43434 7.55104 -6.67172 18
141 1 -10.3963 12.7104 9.10347 9
142 1 9.98005 8.30566 -7.40287 13
143 1 2.8043 11.7981 -1.65975 22
144 1 -5.60269 11.2142 -1.57078 17
145 1 9.37345 11.5566 -2.09311 21
146 1 -0.763329 10.8864 -5.26779 19
147 1 0.378109 11.4723 -12.0153 19
148 1 1.24632 9.98447 -17.6572 12
149 1 -12.8184 -11.5049 1.25592 15
150 1 -13.7131 13.3077 -2.28714 7
151 1 -8.07704 -3.86451 -14.0824 12
152 1 2.77361 -8.75594 -9.65865 18
153 1 10.1845 12.4447 6.38646 14
154 1 -0.583712 16.6592 3.62454 19
155 1 -14.306 -1.87296 -3.34513 18
156 1 -6.8165 13.2775 0.288539 18
157 1 14.4667 4.701 -2.1802 17
158 1 -9.65671 3.67587 -12.1722 12
159 1 3.31595 2.08435 16.0147 17
160 1 -0.498722 14.4921 5.88168 18
161 1 -2.73107 10.0373 12.8552 20
162 1 3.41912 -6.50967 -11.3414 18
163 1 -0.405259 14.6346 11.9199 14
164 1 -1.7012 14.4732 -13.2373 10
165 1 0.79485 -4.38181 11.3835 14
166 1 -12.7853 -5.86739 0.597918 22
167 1 1.19167 -11.1392 -10.7044 10
168 1 -6.92442 15.1729 -5.95714 11
169 1 -4.12201 -6.78409 5.79686 23
170 1 5.63027 -14.6229 -2.60991 12
171 1 -2.19231 10.6494 -17.9674 10
172 1 -17.1372 3.29239 8.57925 11
173 1 8.88291 13.738 -4.72621 17
174 1 -6.29387 3.61972 14.436 20
175 1 0.64807 -8.47022 11.32 13
176 1 -9.10905 5.04191 -0.257479 20
177 1 -1.20071 18.6935 1.12994 16
178 1 3.87199 6.20624 9.4812 17
179 1 14.5871 6.89404 15.6898 10
180 1 -4.53209 16.8277 6.1115 13
181 1 9.91694 -2.8359 -9.13861 22
182 1 -6.87009 12.3663 9.30647 19
183 1 -4.6167 1.49962 -9.22106 20
184 1 14.9676 -5.33774 2.41405 11
185 1 -8.2659 -3.88686 5.87974 24
186 1 -16.6354 -0.260431 -0.648264 19
187 1 -10.7528 -6.1819 5.92554 21
188 1 3.37678 11.5726 14.5908 20
189 1 -18.7519 -0.453041 -3.09157 11
190 1 -2.27151 -14.4611 -1.23788 16
191 1 4.64117 -6.61863 -2.80509 21
192 1 -3.27389 9.93159 2.84328 18
193 1 3.1302 9.21569 12.5406 21
194 1 -9.77186 -0.0903492 -4.31249 21
195 1 -9.45434 13.108 -8.05038 11
196 1 -15.847 0.903571 -3.64445 18
197 1 -10.0425 -0.34235 9.13626 24
198 1 -4.41776 -11.2627 10.1111 19
199 1 1.18997 -9.51296 7.38716 19
200 1 -11.506 11.1016 5.67313 11
201 1 14.2114 2.7434 4.05554 15
202 1 5.02995 4.97315 -5.46522 20
203 1 -8.54439 -6.06425 -11.6947 13
204 1 2.00689 4.20305 12.978 21
205 1 2.58961 -14.614 5.69374 11
206 1 -3.29829 7.71567 -11.538 17
207 1 4.16918 -9.28673 -6.2642 21
208 1 6.90155 0.872661 -12.0506 20
209 1 1.76878 7.12643 -19.4349 8
210 1 -11.135 -2.4779 -2.74 20
211 1 -1.26099 16.2292 -7.8829 11
212 1 -11.0828 -10.8124 9.10069 19
213 1 5.10398 16.1693 0.723906 19
214 1 -11.2814 4.17331 15.4485 10
215 1 -7.0025 14.629 -10.2974 10
216 1 3.92406 0.699024 9.48696 20
217 1 -6.19075 -8.36805 -11.4287 12
218 1 0.20758 13.0848 -7.34906 19
219 1 2.21563 1.21701 -12.8411 18
220 1 -6.52037 -8.19973 10.0942 21
221 1 -9.37758 4.46686 9.82409 20
222 1 -9.40197 4.0001 13.0619 21
223 1 0.813485 -9.35274 -6.19408 18
224 1 -4.3346 -11.9984 3.67947 20
225 1 10.1014 -9.19103 0.183714 13
226 1 11.7549 8.14893 14.8664 15
227 1 4.99022 11.5954 -7.58427 19
228 1 0.19441 10.4489 -2.49675 19
229 1 -12.1018 4.80777 1.72645 19
230 1 -8.8987 10.3215 3.21798 20
231 1 5.01857 3.31499 11.3859 19
232 1 5.15305 -18.2835 2.34178 5
233 1 9.49201 1.26954 -0.426273 23
234 1 4.02707 5.79933 5.92535 23
235 1 -9.34111 5.40747 6.73208 21
236 1 -14.9324 -4.84713 -5.02838 16
237 1 4.81344 3.71703 -13.0634 22
238 1 1.89411 -1.2906 9.59935 17
239 1 6.41082 11.2081 -10.334 14
240 1 3.26026 -9.92147 -3.53047 18
241 1 -3.98139 1.6486 -12.8069 17
242 1 -2.03953 -14.451 2.46995 13
243 1 7.04339 1.25228 -5.96737 20
244 1 -9.69701 -0.307934 2.45759 22
245 1 3.75418 -14.399 -0.521071 16
246 1 -9.7518 -6.46954 -7.05965 17
247 1 2.51331 15.1005 3.24347 18
248 1 -1.26538 -0.136036 -15.5497 20
249 1 0.581982 1.11126 17.6615 13
250 1 16.1548 4.46594 2.73137 13
251 1 10.4609 -2.41705 -12.6978 14
252 1 -6.96064 -0.0166561 -12.4112 17
253 1 -9.81748 -0.481016 -7.07935 17
254 1 -7.05656 -12.8548 11.5973 15
255 1 9.97692 0.774517 9.18716 18
256 1 4.10747 -4.71525 9.44714 17
257 1 -11.0697 -6.13776 -9.85338 16
258 1 1.59033 8.97426 -14.9763 19
259 1 6.06155 8.83448 1.41844 18
260 1 -10.1037 -5.9217 2.3995 21
261 1 1.76528 16.7259 1.3443 20
262 1 -8.31589 -3.75767 12.8594 20
263 1 -11.1109 -7.57642 -4.33034 20
264 1 -6.61795 -6.24449 -9.50085 18
265 1 -2.81442 4.93971 -16.3516 16
266 1 -8.03963 -9.5669 -4.26423 18
267 1 -5.50691 -9.01081 4.44331 20
268 1 6.86264 -2.5209 -14.6861 14
269 1 11.4281 4.2524 -7.36686 16
270 1 12.532 6.0291 9.18718 16
271 1 -10.7186 -3.36202 10.7465 21
272 1 -5.3268 -8.88659 1.40524 19
273 1 3.50152 10.7024 18.0315 13
274 1 -9.08347 -13.1851 6.88122 19
275 1 -1.33011 -12.3738 0.988569 19
276 1 0.649843 17.8119 -1.19218 15
277 1 4.50855 -1.70033 -16.5864 14
278 1 -6.58531 -3.36099 -16.7913 10
279 1 -15.318 -8.37282 5.56932 12
280 1 3.92774 8.74787 15.4478 20
281 1 0.811964 -9.67949 0.758237 20
282 1 -5.82232 -11.2588 -9.59211 16
283 1 -8.27654 12.0329 -5.23209 16
284 1 7.21491 6.68843 4.85019 21
285 1 -3.96024 4.55304 -10.446 22
286 1 -5.18434 10.7735 -16.3375 10
287 1 9.02439 -14.4384 -2.4985 10
288 1 -2.05206 13.1951 -3.48985 20
289 1 -0.938657 12.6263 9.53987 19
290 1 9.70486 1.22176 5.84549 19
291 1 -10.1209 2.42675 4.33589 20
292 1 -8.19408 -5.16387 15.4972 11
293 1 -6.59999 9.53059 4.99447 23
294 1 0.358623 -3.91443 -9.04645 20
295 1 14.8894 11.3319 -2.77254 8
296 1 3.32734 -9.55802 -1.09445 18
297 1 -4.43348 -1.12174 16.5629 8
298 1 -16.4206 -3.1161 0.871862 17
299 1 3.06743 -12.8252 -3.26452 17
300 1 -7.94825 9.56076 14.01 13
301 1 -10.7109 1.22971 14.5928 17
302 1 -17.8911 -0.7344 3.732 14
303 1 -17.7781 -6.22797 7.08671 8
304 1 14.8977 -0.938338 -0.688176 17
305 1 -13.5485 -10.6837 7.43116 15
306 1 7.95575 -0.968887 -7.97013 19
307 1 8.99724 -9.25436 -2.84911 17
308 1 4.9552 16.5663 -4.6416 11
309 1 -4.56842 13.9279 -1.82184 18
310 1 8.15516 9.22657 9.51278 16
311 1 -11.1201 -3.18152 3.92707 23
312 1 7.93937 -10.195 -5.58823 17
313 1 -5.09488 11.8353 6.61977 22
314 1 -6.30106 3.92517 7.88466 21
315 1 3.47887 -8.98824 5.50973 20
316 1 13.8803 -3.05862 5.00506 12
317 1 -0.701316 3.74421 11.1965 19
318 1 -7.89675 -3.17537 -3.92505 18
319 1 1.26651 4.36199 16.2612 19
320 1 -3.38417 9.74986 6.02795 19
321 1 9.32191 7.91824 16.7707 13
322 1 -4.95528 15.4763 -7.35741 16
323 1 0.526046 -7.56313 -11.4414 17
324 1 8.4713 -9.5164 -10.3524 12
325 1 -10.6564 1.6966 11.4019 21
326 1 -15.6373 1.69755 4.21113 23
327 1 -4.15619 -6.52823 -6.98365 21
328 1 -7.5362 7.96425 -0.185011 19
329 1 7.0795 -3.08929 9.76238 17
330 1 -10.0327 -11.5676 3.25502 21
331 1 8.70719 -8.74663 8.69051 13
332 1 -11.8794 -9.08565 12.2339 9
333 1 -13.749 6.76595 3.54895 16
334 1 -2.37846 -3.51423 9.41996 18
335 1 5.11152 -11.7766 -6.02771 18
336 1 -4.43007 -3.77291 -9.25716 21
337 1 6.34624 0.693882 -15.4961 14
338 1 5.19045 8.79667 4.7368 21
339 1 -9.34387 -0.780976 -0.827041 20
340 1 3.22419 -6.94611 -14.2549 11
341 1 9.61702 0.00161274 -10.5128 22
342 1 -7.59977 -14.6218 2.57099 18
343 1 -14.1286 -9.48536 -4.21224 16
344 1 -8.24777 -8.72931 2.25988 19
345 1 11.5227 5.64672 16.6415 11
346 1 10.7451 4.65929 -1.46559 17
347 1 -8.86651 5.26791 -6.70055 19
348 1 2.11371 14.2295 0.41538 19
349 1 -17.3828 -3.83147 -3.46118 12
350 1 -10.6737 7.4614 8.38715 17
351 1 -6.74648 12.2602 3.81549 17
352 1 -1.77215 6.78072 9.41327 23
353 1 11.5643 5.88421 11.9102 15
354 1 10.5103 -1.40026 -5.47252 20
355 1 7.62104 -2.78611 14.882 11
356 1 11.8042 4.0143 -4.07363 22
357 1 -10.336 -16.4848 0.466077 10
358 1 1.47469 -6.6768 -4.50585 22
359 1 2.83068 8.58523 6.75358 20
360 1 -15.254 6.39253 -2.89001 14
361 1 7.84729 -6.78137 -3.41141 16
362 1 9.57832 -4.26843 5.70971 21
363 1 -10.7696 -3.41786 -5.87581 17
364 1 -7.37335 -6.03768 4.27992 23
365 1 -13.7693 -3.94431 9.27954 17
366 1 -2.81655 10.6021 -0.529033 17
367 1 -10.0787 -10.1234 -2.08645 15
368 1 9.05934 10.7954 14.6664 13
369 1 -10.4082 2.43111 -2.12851 23
370 1 2.25243 11.9565 -9.28072 18
371 1 1.66993 13.3289 7.60746 19
372 1 -11.2373 -9.00602 0.831646 19
373 1 -2.32862 -9.26438 -4.06023 18
374 1 -15.4613 0.102179 1.88548 19
375 1 -12.5285 9.22249 -3.86358 13
376 1 7.93622 -6.31834 7.35468 17
377 1 -2.2374 -11.6105 -2.37892 19
378 1 10.8401 9.48853 4.7305 23
379 1 6.23785 8.85951 -12.4777 13
380 1 -11.102 7.08065 -11.6467 12
381 1 -3.79288 15.659 -10.0091 12
382 1 -13.0891 1.23671 -5.36555 17
383 1 -1.58402 -12.1806 4.51773 20
384 1 15.2543 5.33801 11.1599 15
385 1 -3.58308 12.8884 -15.5411 11
386 1 -3.9259 -1.29434 9.48043 20
387 1 -16.0984 4.55821 3.88692 14
388 1 -10.6248 2.26315 7.57208 23
389 1 -5.06927 -14.8039 10.641 11
390 1 12.5366 -10.3315 -4.83387 11
391 1 -15.0003 4.36989 10.0332 12
392 1 -18.3145 2.25494 5.77288 10
393 1 -13.5203 7.23152 6.72111 12
394 1 -1.26353 -6.90633 7.45672 21
395 1 -7.82475 2.12511 -14.6101 12
396 1 8.28913 -9.93583 2.28327 18
397 1 -4.39464 -8.81991 -9.23453 21
398 1 -6.00862 -4.33661 10.9657 21
399 1 -5.60109 3.35849 -16.4252 13
400 1 3.69143 -9.24747 2.29426 18
401 1 1.59658 13.2451 -4.11714 19
402 1 -8.83136 9.60087 9.98848 17
403 1 -10.2366 -1.35275 16.2566 8
404 1 -13.9669 -4.98556 -10.4951 8
405 1 -12.3125 -8.25347 6.37374 18
406 1 11.81 -5.4846 11.8682 9
407 1 1.88552 1.16132 -9.26609 19
408 1 10.8909 -7.17954 6.70743 14
409 1 14.3317 8.05618 -4.32386 12
410 1 -4.92793 1.1114 11.0714 22
411 1 3.03308 11.5721 2.08257 18
412 1 8.81654 -4.49497 2.77418 16
413 1 -2.77383 -14.16 -4.21489 17
414 1 -6.62381 4.69168 17.5634 10
415 1 -6.04369 15.0409 9.10396 10
416 1 -9.98141 -10.4913 -5.98216 16
417 1 11.2865 13.6957 -0.406211 16
418 1 1.61448 10.274 9.51256 19
419 1 -7.85274 1.59168 9.70114 20
420 1 -7.18845 -7.23922 -2.28412 23
421 1 -13.1631 1.7321 9.162 21
422 1 -6.99317 -9.58808 -7.70318 21
423 1 -7.17436 6.64283 9.49169 23
424 1 -4.94315 -12.3918 -4.09184 17
425 1 -3.99391 -4.35648 -12.8626 18
426 1 -7.27256 -11.3711 4.42846 17
427 1 6.98057 1.59076 7.98279 20
428 1 -12.7691 -5.33945 12.4256 14
429 1 -8.35274 8.97261 -12.6627 13
430 1 7.01285 5.87795 1.43134 21
431 1 -5.15328 -13.0782 -1.19255 16
432 1 -2.28921 15.2648 1.01936 19
433 1 -1.00763 5.38847 -8.87752 22
434 1 4.33003 6.20619 12.9692 22
435 1 -15.4368 -5.70318 -1.70398 17
436 1 -4.00084 16.4949 -3.89461 12
437 1 6.70151 12.7381 -2.18279 18
438 1 -5.21432 -9.5405 -5.53786 21
439 1 4.21732 5.4882 16.0654 17
440 1 -1.5257 -15.1552 -7.0214 11
441 1 -1.3426 2.61715 -13.9717 17
442 1 4.29481 -14.7839 2.81063 15
443 1 -9.35526 9.06827 6.43322 19
444 1 1.32238 9.60814 15.9472 19
445 1 4.88245 9.11457 -1.70858 17
446 1 2.14438 9.11406 -0.189897 19
447 1 -7.63111 11.9125 -10.9573 10
448 1 2.01804 4.2006 -7.34651 21
449 1 1.34133 -6.70149 5.47854 19
450 1 -15.9252 -8.91588 -1.56206 13
451 1 5.49612 16.2106 5.34654 17
452 1 -7.35905 1.85013 -7.08761 21
453 1 9.69844 8.20919 -3.25227 15
454 1 5.28909 13.8784 -5.90585 19
455 1 9.14458 -4.33354 -0.658331 19
456 1 10.6531 3.97732 1.08863 20
457 1 -1.00858 5.13651 -12.2003 18
458 1 -2.22401 -9.37346 2.58533 21
459 1 -0.243811 -11.3099 10.4286 14
460 1 2.86076 -6.22705 13.3648 9
461 1 -11.4574 6.00545 -6.46628 19
462 1 -10.895 -10.6323 6.1345 20
463 1 -4.11182 -12.9897 -7.41072 18
464 1 9.06799 15.1448 5.39305 12
465 1 1.90566 6.66492 -12.57 18
466 1 2.40405 -1.15593 16.1814 15
467 1 -12.6186 -0.848117 10.9531 19
468 1 -0.963024 -17.1413 -3.5084 9
469 1 -12.5506 -0.326129 0.713675 20
470 1 16.1593 -2.6278 -5.51146 12
471 1 12.5501 1.15464 -2.17712 21
472 1 -4.40558 7.0934 -5.07651 20
473 1 4.42195 -6.72528 -5.94146 17
474 1 1.67918 4.16219 -10.5715 18
475 1 10.7102 -1.3965 -2.16119 20
476 1 -7.5483 0.81626 13.1349 24
477 1 6.03481 14.5928 3.00971 17
478 1 -3.8804 -2.83708 -16.1862 16
479 1 0.713633 1.16962 -19.2696 11
480 1 -8.49928 -3.9882 9.16712 22
481 1 -0.489895 13.1962 2.82224 19
482 1 -10.9551 -3.82298 -8.95294 15
483 1 -13.9819 -4.28488 2.59757 20
484 1 -2.28464 -8.08794 -11.5645 12
485 1 -6.66681 -7.47544 12.9451 16
486 1 2.22653 6.84035 -8.64552 22
487 1 14.6324 2.96512 9.21827 16
488 1 8.03173 10.6746 0.140623 20
489 1 -12.741 -14.3603 -1.0253 11
490 1 -2.36136 -8.96761 -0.76343 20
491 1 -1.09795 -3.1932 -14.0382 18
492 1 -6.15015 9.63891 8.11165 22
493 1 1.80474 -1.75557 -11.0438 23
494 1 12.2068 -3.54573 -0.321393 16
495 1 2.90841 14.7698 -6.22046 15
496 1 5.45363 -6.43131 3.64028 19
497 1 13.557 7.84155 -7.4607 7
498 1 3.5141 13.8931 16.6014 11
499 1 -6.86187 -1.43267 10.8842 23
500 1 2.46747 13.1402 10.4335 21
501 1 8.51061 1.8365 14.0448 14
502 1 -2.2648 2.31629 -17.505 17
503 1 -6.99636 -6.51214 -5.99313 19
504 1 1.04223 -3.99471 14.7502 10
505 1 8.47265 13.8346 8.90891 14
506 1 5.91775 11.2672 -14.0606 8
507 1 -7.23037 13.3527 -3.07729 15
508 1 0.537201 15.0412 -2.01127 18
509 1 9.82829 -4.2492 13.1588 15
510 1 7.1735 4.0533 -15.0031 12
511 1 14.528 -6.31989 -1.27263 13
512 1 10.7205 11.4686 9.8616 15
513 1 -16.3216 -5.99402 1.13336 16
514 1 -8.23243 11.9341 -15.1579 6
515 1 -1.80295 1.65207 9.56908 20
516 1 -12.7156 -0.977894 7.33923 23
517 1 -4.57418 13.2742 -11.9816 15
518 1 0.51718 -9.66744 -2.41566 19
519 1 4.70789 -0.78862 -9.23134 22
520 1 -3.04728 18.314 -1.48569 9
521 1 -11.2114 -3.7418 -12.0996 10
522 1 4.0246 -11.8636 4.4067 19
523 1 -12.2381 -5.08619 -3.08765 21
524 1 1.6767 9.22372 -11.0837 20
525 1 0.2266 15.027 14.7435 10
526 1 -11.3278 -5.78908 9.04519 17
527 1 7.45263 11.1938 -5.48569 20
528 1 2.52307 -12.2986 -5.65915 19
529 1 5.95594 -7.19783 9.82924 17
530 1 -13.9407 3.85259 5.99119 18
531 1 1.52319 6.93605 14.4421 21
532 1 3.6962 14.301 -2.80128 18
533 1 12.4678 -4.06426 -4.94266 20
534 1 0.370528 11.9526 13.0781 20
535 1 -2.2701 -0.818466 -18.3521 11
536 1 -3.60285 -12.8016 12.5529 10
537 1 -1.97562 2.21923 -10.597 17
538 1 2.66448 3.86415 -18.5748 11
539 1 3.11823 16.1715 10.5645 14
540 1 6.94039 7.58388 -9.07138 18
541 1 -3.76928 -5.87476 -15.5947 10
542 1 -5.44094 -9.32416 -2.25483 21
543 1 -12.2437 1.21167 -8.28226 12
544 1 12.4282 7.18316 1.19678 19
545 1 12.3922 6.76093 -1.98137 19
546 1 11.2805 -7.53987 -4.52641 17
547 1 14.7134 9.26928 13.2606 10
548 1 9.80907 -12.4244 -5.00374 14
549 1 2.30655 4.43472 -14.3348 18
550 1 4.18141 13.5594 5.4813 16
551 1 -9.18947 5.18239 3.20155 22
552 1 5.28198 11.6757 11.8752 15
553 1 15.39 6.10759 0.218331 13
554 1 14.5835 0.706021 7.15083 10
555 1 7.4422 6.98101 -4.95313 20
556 1 5.66934 3.29094 14.4174 17
557 1 16.0991 5.7667 13.8969 10
558 1 -1.28697 -6.21848 10.3936 16
559 1 11.1468 10.8709 -5.14047 13
560 1 -1.02098 6.78796 12.522 21
561 1 12.3441 1.90248 -8.97821 11
562 1 6.86757 0.838655 11.134 19
563 1 -11.0113 2.9398 -5.38829 22
564 1 14.1497 2.90073 0.145664 15
565 1 11.6304 -5.76936 3.92145 15
566 1 -12.1819 4.85457 11.809 19
567 1 8.76115 12.5379 12.2925 13
568 1 11.6922 2.91882 14.136 15
569 1 0.63306 7.00818 7.623 21
570 1 5.98789 16.7039 8.57597 12
571 1 8.08196 4.0671 6.00558 19
572 1 1.76993 -11.9582 2.58858 17
573 1 -3.17314 10.5695 -3.43607 19
574 1 7.61964 9.93052 -3.4152 20
575 1 11.6734 0.963316 -12.8962 11
576 1 4.18138 18.7688 -0.867223 11
577 1 -7.31655 -14.263 -3.97234 14
578 1 11.7627 -8.2768 -9.93435 12
579 1 -16.3971 1.90555 11.565 8
580 1 -6.59165 8.45565 -9.65498 19
581 1 -4.9802 -14.7221 4.26589 14
582 1 -6.32424 4.71232 -8.86638 20
583 1 -13.9676 3.636 -3.20254 20
584 1 13.7963 -1.96021 2.22919 17
585 1 12.477 12.0308 3.28975 14
586 1 1.8125 -6.24978 8.71087 18
587 1 -16.305 -1.97546 -5.59699 15
588 1 2.44273 -4.50445 -16.4922 11
589 1 -1.11236 4.67727 14.5279 21
590 1 4.5614 14.2176 -9.56826 13
591 1 13.705 -0.0365325 13.9558 12
592 1 9.56799 7.2077 -0.0194143 19
593 1 13.1915 15.1009 1.89695 7
594 1 4.15126 -14.8143 -5.83004 12
595 1 -9.72269 -0.922834 12.6538 21
596 1 12.6126 -0.159634 4.57826 17
597 1 -3.8879 13.0965 10.743 16
598 1 7.84536 16.077 -5.14439 12
599 1 -10.5112 8.38423 -1.42568 20
600 1 10.737 9.96417 1.23663 18
601 1 -10.1467 -14.3628 2.92291 18
602 1 15.4687 0.687977 1.97858 14
603 1 8.28321 16.5657 2.88632 11
604 1 -4.14175 7.35329 11.8107 20
605 1 -13.223 -6.45757 3.88276 22
606 1 -8.12187 -3.5407 -7.87083 21
607 1 8.76944 2.99409 10.4085 18
608 1 -4.62437 -7.15145 15.0928 7
609 1 6.62871 7.53445 14.9979 18
610 1 -5.72318 10.7027 1.62364 19
611 1 10.8586 3.82442 4.5873 16
612 1 8.11342 3.90598 2.9904 23
613 1 0.929398 2.30032 -16.8553 20
614 1 -14.0917 -2.81317 12.4276 13
615 1 7.35532 -2.39053 -10.8051 22
616 1 14.7509 -5.48006 -6.05681 14
617 1 8.77986 6.50386 10.37 19
618 1 -12.0486 -2.16549 14.0087 14
619 1 14.0969 10.1934 9.76616 12
620 1 -1.69129 -2.29266 14.1379 16
621 1 -6.53643 7.9322 16.074 12
622 1 -1.52417 -3.17385 -11.1158 17
623 1 -6.35286 3.78543 11.1483 20
624 1 7.52427 4.4504 12.8966 16
625 1 -8.98469 -14.6955 9.73412 12
626 1 16.6656 8.03213 1.88993 9
627 1 6.09489 -9.16246 -2.83143 17
628 1 6.1968 11.7643 2.92368 17
629 1 7.20367 12.582 6.1201 17
630 1 1.4534 -1.38725 -17.5011 15
631 1 7.23501 17.3972 -1.94411 10
632 1 12.1677 10.2961 -1.72688 18
633 1 -7.02947 -12.2417 1.49849 19
634 1 -5.29314 -2.02822 -14.0776 17
635 1 -9.97631 14.3544 0.692813 8
636 1 9.26826 -7.68393 -12.3557 10
637 1 9.73089 5.51347 -8.94155 16
638 1 10.2754 13.6388 2.52628 12
639 1 -10.4415 7.8816 1.57927 20
640 1 4.38131 6.46922 -3.59746 23
641 1 14.1339 3.32659 15.4267 11
642 1 10.8208 -1.44413 15.2088 11
643 1 -5.43366 -10.0094 12.9544 14
644 1 -8.21857 5.03383 -14.8414 11
645 1 4.88952 13.8781 8.51607 21
646 1 11.6459 -5.14771 -10.4786 12
647 1 1.2117 1.6563 11.3747 17
648 1 4.91338 18.3219 2.20533 14
649 1 12.7227 10.7622 7.03862 13
650 1 17.8074 -2.33523 -2.28322 8
651 1 5.77837 7.97495 17.9718 11
652 1 -10.8217 -3.20837 7.24802 19
653 1 0.382324 -15.3066 0.0518475 15
654 1 -0.989784 -0.410686 -9.02254 21
655 1 -3.9326 13.1483 1.50746 17
656 1 7.88464 9.95821 3.96272 17
657 1 -19.2183 -3.56241 2.25636 11
658 1 -3.88445 4.4168 19.3368 11
659 1 -5.78142 7.00855 -15.0902 13
660 1 -8.10628 8.60909 -15.9536 9
661 1 6.11379 -12.581 1.50662 17
662 1 5.04426 8.42274 -6.47774 22
663 1 -15.576 -1.06316 9.63676 16
664 1 8.84693 -0.370593 -13.8343 16
665 1 3.67755 -8.69713 9.08309 16
666 1 2.28219 18.3937 4.36433 16
667 1 -4.68588 0.888472 14.7373 21
668 1 -10.7489 -9.31669 -8.53251 12
669 1 -8.94545 -8.82782 -10.587 12
670 1 -10.1509 -13.624 -5.78892 10
671 1 -1.09027 16.5005 -4.07434 14
672 1 7.06672 -4.14633 -8.60275 19
673 1 -0.0231508 9.20418 4.72922 22
674 1 6.30053 -9.72484 -8.22651 18
675 1 9.17841 -12.3481 -0.399073 15
676 1 4.65189 -6.72778 7.13883 17
677 1 14.6555 2.15805 -4.32444 12
678 1 0.339835 -13.1804 -8.38077 13
679 1 -14.0245 -4.56726 5.86579 16
680 1 -4.80539 -14.9574 1.10473 15
681 1 -7.51996 -10.2447 -0.917101 17
682 1 -12.9768 -1.09982 3.71276 19
683 1 -7.97686 -15.6339 5.79539 12
684 1 14.5868 5.08937 -5.52814 13
685 1 -3.16404 16.988 3.42191 15
686 1 -10.7846 7.75049 4.04925 20
687 1 10.4147 -1.96482 4.46924 20
688 1 -15.6869 0.741887 -6.98425 11
689 1 1.55719 6.99419 -5.40092 20
690 1 6.90726 1.97485 -8.72331 20
691 1 5.8788 14.7186 11.3036 14
692 1 6.98002 6.4506 -1.85745 21
693 1 -16.1623 4.1237 -4.78993 11
694 1 -12.7195 -5.88785 -6.84413 14
695 1 -4.11553 10.2742 16.1676 11
696 1 4.60289 6.46651 -11.326 21
697 1 14.2493 12.9661 -0.924506 11
698 1 -1.07854 -1.88625 11.3063 17
699 1 -7.80632 -15.0493 -0.659726 15
700 1 -1.28975 -13.9639 10.1219 10
701 1 -4.04952 -6.23043 9.22888 18
702 1 16.6019 8.25404 10.9227 10
703 1 5.0404 -6.86187 -9.15302 20
704 1 -7.28587 7.01665 -3.35694 18
705 1 6.96487 5.56708 8.06697 19
706 1 -13.2296 2.14155 2.76981 24
707 1 7.901 6.3948 -12.1063 13
708 1 1.32179 -15.4003 -5.73713 12
709 1 3.43152 -20.3068 -0.0726754 4
710 1 1.3173 -15.3864 -2.90151 15
711 1 7.85542 4.60634 -6.91169 21
712 1 1.60068 19.5932 1.00552 13
713 1 -5.66236 3.63376 -13.0599 19
714 1 0.751806 1.55168 14.8172 21
715 1 -1.64708 8.70792 -16.0853 15
716 1 -9.66143 -1.16778 -10.1583 13
717 1 -16.5454 -5.57759 -7.22578 11
718 1 2.15146 17.6904 -3.73975 10
719 1 -6.50855 -3.37957 -11.3714 19
720 1 -7.23264 -6.35767 0.515921 22
721 1 10.8974 6.13559 -5.5015 19
722 1 11.7675 -6.69291 0.922852 15
723 1 -8.70665 5.97763 15.2154 14
724 1 8.10993 -6.99047 0.555882 17
725 1 16.6524 -2.81973 3.24999 9
726 1 12.6952 -2.19143 12.8221 11
727 1 -3.20722 14.1993 7.80864 20
728 1 -13.7061 0.988527 12.8792 15
729 1 -11.7577 6.43588 13.8831 13
730 1 -2.46168 -9.52593 12.2073 12
731 1 9.86329 1.05433 2.91424 20
732 1 5.35404 11.0046 9.3906 16
733 1 -19.4961 -2.93306 -1.20767 10
734 1 9.19012 -4.02251 -4.05979 22
735 1 -11.3486 11.6433 -2.69381 14
736 1 0.9397 -12.2846 5.59133 19
737 1 4.91334 0.158804 12.9031 20
738 1 3.26025 16.7729 7.77573 15
739 1 0.690172 -9.64105 3.99315 20
740 1 -12.4636 0.294513 -2.26675 20
741 1 -2.2616 0.968151 12.5592 20
742 1 -16.2617 -9.25216 -6.64649 7
743 1 -0.678852 9.65366 17.7303 10
744 1 -1.91891 11.9831 6.05092 19
745 1 -12.5629 -9.73901 3.86906 20
746 1 -3.71893 -15.2663 7.30611 10
747 1 9.98664 -5.52626 9.10117 19
748 1 11.915 -3.80075 8.00522 14
749 1 5.95573 8.1224 7.69576 20
750 1 -2.22552 -5.94601 -9.30053 19
751 1 -3.30219 5.06994 -13.7448 19
752 1 -4.48421 -1.95181 12.8627 19
753 1 -3.153 14.1054 4.3793 20
754 1 15.2857 3.86447 6.27607 13
755 1 2.28905 10.0621 -6.94702 19
756 1 -5.65185 12.2497 13.0777 14
757 1 9.07231 7.63018 13.4841 20
758 1 7.88225 -3.9246 -12.811 14
759 1 -12.4858 -15.0117 2.23338 11
760 1 14.1494 0.616151 10.8322 13
761 1 4.30479 2.63039 -10.661 20
762 1 -3.31635 7.92329 18.1358 15
763 1 11.185 -11.5234 -2.49434 11
764 1 4.07372 9.42725 -16.2507 11
765 1 -3.98891 -6.83338 -4.09442 20
766 1 8.64279 2.70935 -13.2519 18
767 1 17.5474 -1.40896 0.782668 10
768 1 -2.24744 -4.68712 15.5039 7
769 1 -5.5492 -14.1463 -9.49708 9
770 1 5.0339 12.3195 -0.157113 20
771 1 -12.6914 1.11107 5.6659 21
772 1 8.01203 3.8652 -3.65976 19
773 1 16.1555 6.89034 5.57863 13
774 1 1.4199 -4.1296 -12.2561 21
775 1 -8.53958 11.945 6.50718 21
776 1 10.3541 8.18392 8.4007 18
777 1 10.2334 16.1645 -2.30741 12
778 1 3.02049 6.44922 -16.7767 17
779 1 6.50598 -3.7567 -2.54527 19
780 1 -12.6981 6.84281 -1.14421 17
781 1 12.8973 7.63186 6.93821 17
782 1 -13.3391 -10.9168 -1.691 16
783 1 -10.9903 13.4869 -4.60363 10
784 1 10.6911 4.15963 7.78016 20
785 1 -13.4756 3.5404 -6.88374 17
786 1 -12.3518 4.88463 8.24655 19
787 1 -3.63592 4.34412 -7.08277 23
788 1 9.17055 -5.46458 -10.2555 20
789 1 -13.2721 -10.99 -6.14671 10
790 1 16.7456 -4.34169 0.195673 12
791 1 -15.1459 6.01854 0.91789 14
792 1 -16.3893 -7.15764 -4.36299 14
793 1 11.9425 11.1876 12.9613 15
794 1 -7.02463 -6.46081 7.40737 22
795 1 8.5704 4.85485 15.9377 12
796 1 10.8992 -2.50706 10.3429 19
797 1 7.59475 -1.67242 6.21745 19
798 1 -10.3662 2.38386 0.897262 23
799 1 -0.964142 9.31345 8.04754 20
800 1 4.40602 8.87411 -9.28363 20
801 1 -1.1938 -6.10575 -14.2313 12
802 1 -1.50464 17.3679 6.39813 14
803 1 -12.1027 -13.9764 8.55459 11
804 1 8.13396 14.3533 -0.109298 20
805 1 -0.820345 6.96979 16.2646 21
806 1 13.8921 -1.517 -4.19937 18
807 1 8.56273 -7.14733 11.1995 13
808 1 -1.75439 13.0946 -10.6235 18
809 1 3.54577 12.3355 -11.9518 14
810 1 -7.07697 -1.42319 7.60853 20
811 1 16.5574 5.59798 8.61776 10
812 1 -3.70893 -1.24233 -10.8716 24
813 1 14.8839 8.26258 -1.4239 15
814 1 -14.3497 9.63072 -1.14992 15
815 1 -2.37626 -9.18373 5.5939 21
816 1 1.29438 15.3284 -9.73172 9
817 1 5.00669 -2.03852 11.1158 20
818 1 1.09011 -12.533 -0.95564 17
819 1 -6.00503 15.1926 3.28922 15
820 1 -15.1104 9.72645 2.41403 9
821 1 9.46978 1.51048 -7.24355 19
822 1 -0.46134 -9.15521 -9.08616 19
823 1 -7.24591 6.98122 6.38609 18
824 1 9.68295 11.6005 -7.84711 9
825 1 -9.63085 -0.765524 5.32236 22
826 1 4.13985 -3.89227 -13.7058 19
827 1 -8.64427 -12.1565 -8.97413 13
828 1 -1.55186 -11.6716 -6.1007 17
829 1 -0.512135 9.39262 11.0176 19
830 1 6.48133 -8.68865 0.112883 14
831 1 -0.671203 11.5983 -15.2258 18
832 1 12.3854 1.0293 -5.68133 19
833 1 9.63154 6.49832 2.9216 18
834 1 1.35169 -17.604 -0.583566 9
835 1 3.62085 1.13001 -15.3891 18
836 1 10.3358 -1.61518 1.17322 22
837 1 -0.135307 5.64298 -16.0485 19
838 1 -5.40208 -8.96726 7.62283 19
839 1 4.26016 11.3584 -4.65043 23
840 1 4.07845 2.29326 -7.68061 19
841 1 -11.7163 5.75236 -3.37079 19
842 1 -15.155 -1.73208 4.80221 23
843 1 -1.41904 5.06992 18.5067 15
844 1 -9.45716 -7.8347 8.60408 22
845 1 8.08172 9.77106 6.64938 20
846 1 -4.53465 -11.9479 6.51001 18
847 1 2.4596 9.59556 -3.68509 19
848 1 -6.94297 6.5218 12.8883 20
849 1 -3.50667 3.99344 12.7547 20
850 1 -8.31525 11.1691 11.9491 11
851 1 7.66006 3.42637 -0.701893 20
852 1 -9.97056 -6.76806 13.1715 15
853 1 4.07915 -11.5779 7.20544 17
854 1 11.2477 8.64097 11.1807 20
855 1 9.41384 -4.14344 -7.00249 19
856 1 7.26325 -14.428 -5.36412 11
857 1 -7.16714 2.5287 -10.4575 16
858 1 -5.13847 0.190528 -16.1744 17
859 1 4.06085 11.0981 6.911 19
860 1 -18.3192 -3.33106 5.43114 15
861 1 -5.85028 9.95549 -4.59711 24
862 1 -12.4088 8.02267 -8.51972 12
863 1 12.152 13.6896 -3.41172 14
864 1 -6.53062 -14.0749 7.97737 16
865 1 -1.93204 6.39725 5.87675 21
866 1 13.6686 8.83641 3.91637 17
867 1 -12.7161 -12.8165 -3.83654 11
868 1 2.71778 14.3406 13.615 15
869 1 -2.18249 2.23675 16.5737 18
870 1 -4.75386 -15.4921 -6.12436 10
871 1 10.4915 0.866525 12.138 21
872 1 -0.691796 -14.5062 6.12848 13
873 1 7.153 10.1756 16.9145 13
874 1 -5.31629 -3.89149 7.98938 20
875 1 13.0143 -1.04486 -10.0403 14