ITEM: TIMESTEP
1000
ITEM: NUMBER OF ATOMS
2000
ITEM: BOX BOUNDS pp pp pp
-30.0 30.0
-30.0 30.0
-30.0 30.0
ITEM: ATOMS id type x y z Coordination
1 1 -10.3442 4.91656 -14.5932 12
2 1 -2.66506 -10.8863 -9.03503 19
3 1 1.78351 12.1705 13.1236 18
4 1 8.02844 -10.6026 6.56706 12
5 1 -11.4571 10.3035 -0.654161 23
6 1 11.3742 -10.1437 -11.8216 9
7 1 -9.60522 2.2214 -6.00683 21
8 1 -0.659372 -8.62823 10.1037 12
9 1 -9.14731 -0.879784 -11.2773 17
10 1 -12.7604 -8.73359 6.06287 15
11 1 12.4354 2.50626 -10.025 15
12 1 -3.64981 -13.2187 1.63535 20
13 1 -13.0647 -8.54672 3.41835 14
14 1 0.576325 3.07792 18.6188 11
15 1 -1.79039 11.3996 -9.57287 20
16 1 2.2906 -0.149848 13.3575 20
17 1 -8.9526 0.00891807 -16.9136 10
18 1 -14.8777 -3.64661 12.6401 11
19 1 13.6438 5.1084 8.22091 20
20 1 1.0854 11.7192 -11.4797 23
21 1 3.16352 5.46482 -13.5051 19
22 1 15.6129 1.4258 13.0468 10
23 1 -12.5245 4.43564 -9.6078 15
24 1 -11.1541 9.26448 9.76058 12
25 1 7.83042 -13.7762 5.62551 10
26 1 3.24836 -13.9896 -12.0175 13
27 1 10.7448 -12.6225 1.28116 13
28 1 -6.59156 -13.9182 -5.54807 15
29 1 -14.2893 -5.9877 11.04 11
30 1 0.294578 -6.49993 -13.5587 19
31 1 9.81683 -10.419 -14.028 10
32 1 -3.36629 5.04103 -18.0317 11
33 1 0.485622 4.04541 13.8523 16
34 1 -0.303521 -13.0523 8.37849 12
35 1 5.70268 -4.91042 13.9836 11
36 1 -11.6412 -0.805845 -0.254937 22
37 1 -17.0823 -1.79935 7.87787 15
38 1 -3.92296 14.9659 -2.32369 17
39 1 0.0421659 -14.6739 -12.0161 13
40 1 5.37608 -6.38965 -9.70009 18
41 1 -3.23894 -3.32446 13.4354 16
42 1 -11.6654 5.72951 -1.06773 18
43 1 3.9181 11.7404 -12.2383 13
44 1 1.10925 12.5271 8.46202 21
45 1 -8.24165 8.82169 -8.09923 20
46 1 0.224926 13.9564 1.15046 18
47 1 1.80893 -11.7184 2.29399 19
48 1 7.21074 -8.81596 -4.18194 17
49 1 5.45321 -6.40587 -17.0053 11
50 1 -9.6006 7.94545 11.87 16
51 1 -13.2143 -5.30876 -10.1097 13
52 1 -6.67378 7.76254 -4.7816 21
53 1 -9.10719 -9.69056 7.7724 22
54 1 -3.46479 14.5805 12.2327 10
55 1 -11.9463 5.1951 -6.13699 15
56 1 -6.12617 9.48613 13.5438 14
57 1 -6.18268 -15.8426 8.36404 17
58 1 5.68608 -15.5846 -3.56954 11
59 1 4.15088 12.648 15.2275 14
60 1 -13.5542 1.45307 -10.625 12
61 1 -13.9964 7.02225 -9.97335 6
62 1 5.16901 6.43817 12.3734 21
63 1 12.6288 -3.25963 -10.8682 15
64 1 9.80665 -11.5437 4.03279 13
65 1 -17.4583 -2.21766 5.01993 12
66 1 6.75391 16.7458 6.45737 13
67 1 4.66496 -2.05334 13.0973 17
68 1 -7.81995 -12.9191 6.0659 18
69 1 12.2724 3.10256 6.27743 19
70 1 -1.23499 11.9172 9.90187 19
71 1 -3.12264 -6.66021 -8.5894 19
72 1 -13.9485 7.73562 9.38594 12
73 1 -8.53062 10.7618 -1.02997 14
74 1 -1.79727 7.76314 -10.8891 23
75 1 9.15557 12.7777 -8.09228 12
76 1 6.86956 -9.28333 9.31024 13
77 1 -5.75586 15.0676 -5.2931 13
78 1 -10.9024 11.9521 4.82102 14
79 1 -8.9946 -3.92224 13.8544 15
80 1 -6.33246 -5.84508 9.61157 17
81 1 12.2466 -8.48732 -7.11057 13
82 1 -11.0775 3.45066 4.96697 16
83 1 -10.1743 -13.514 3.50721 15
84 1 9.52019 -8.31264 -5.84086 19
85 1 5.14904 0.643387 -11.4858 17
86 1 -5.73406 -0.683524 -16.7609 11
87 1 -1.59211 12.0975 2.72123 22
88 1 -5.63435 7.99987 -10.1277 20
89 1 0.946575 9.00251 18.8256 10
90 1 0.556583 14.8352 -5.29193 23
91 1 -14.3689 12.4579 0.800734 15
92 1 -6.55808 -8.65851 9.68729 17
93 1 13.7264 -0.651405 10.7764 15
94 1 5.04944 -9.29782 -7.96 19
95 1 6.10448 -0.499586 16.9093 10
96 1 -10.7079 -7.10935 -1.1978 18
97 1 -7.64489 -8.49631 -2.93307 15
98 1 9.89534 -9.22247 1.76859 18
99 1 6.64524 2.30547 -12.9121 16
100 1 5.97637 18.7412 -2.21491 10
101 1 -9.87256 -13.2726 11.74 12
102 1 -11.5519 -14.2744 9.253 13
103 1 4.51831 -9.23505 -15.8111 15
104 1 9.26343 -10.8704 -1.17101 17
105 1 -0.927783 -16.1795 4.83218 15
106 1 -9.02377 -8.10304 1.65036 21
107 1 16.3942 7.4531 10.1941 13
108 1 14.3009 -3.70377 -8.4598 15
109 1 -16.5375 -4.466 3.02647 12
110 1 11.4524 9.27666 6.0114 18
111 1 15.0797 8.9414 4.03802 11
112 1 -6.40331 3.94054 17.1291 12
113 1 -4.31477 11.2479 10.8612 21
114 1 -4.26562 12.5302 -5.74326 20
115 1 -0.508268 -5.96792 -10.8771 19
116 1 8.78162 -12.0553 -11.2084 14
117 1 0.622943 14.8905 -11.7961 14
118 1 7.5032 -3.35981 11.7531 19
119 1 0.515825 -2.51275 -19.3399 11
120 1 -3.16517 9.50029 -8.02221 18
121 1 11.0323 -0.0352091 -5.29528 15
122 1 -9.7156 9.97619 -5.99849 16
123 1 -8.52083 14.7095 0.871992 10
124 1 6.87113 1.6742 -9.53552 21
125 1 8.00181 -8.37485 4.34612 14
126 1 -7.44146 12.4886 8.8505 15
127 1 13.0216 8.10404 -7.8473 15
128 1 6.76552 13.0415 -3.33123 18
129 1 -3.05747 17.4462 1.59023 11
130 1 11.335 10.3973 -1.35468 16
131 1 -3.08629 12.3757 -2.05145 18
132 1 1.33912 16.7425 -9.01501 14
133 1 2.55928 9.91728 -13.9018 19
134 1 -12.9537 -11.3002 3.05421 10
135 1 -14.8439 9.58744 -1.79377 13
136 1 -5.24417 -3.50775 -13.2824 18
137 1 1.44634 -9.95899 -15.6141 16
138 1 9.19473 13.0381 8.79337 13
139 1 1.20365 15.369 7.06089 19
140 1 -12.6014 -2.67811 -5.76563 17
141 1 -13.2694 14.0498 3.26873 8
142 1 16.275 -1.35197 -3.53401 13
143 1 -11.4519 1.58828 -15.4173 10
144 1 6.93123 2.81437 16.7593 18
145 1 5.00955 17.4292 4.08338 13
146 1 -2.72423 9.57416 8.53195 17
147 1 2.46637 -8.21799 -18.0496 12
148 1 -4.38597 14.1324 9.54459 15
149 1 -1.07605 11.2739 -5.97485 18
150 1 2.08788 -3.75075 13.9901 12
151 1 -11.3575 -4.49135 4.9028 19
152 1 -1.78468 -11.4335 -13.4215 18
153 1 -9.33756 11.7928 -9.99406 12
154 1 -4.03892 -10.639 3.46325 19
155 1 3.54756 -15.4535 -5.59276 14
156 1 -3.75337 10.5699 -11.6254 15
157 1 -16.4247 1.38756 9.00629 12
158 1 11.203 9.75646 -4.43555 22
159 1 -7.38525 5.81109 15.5843 13
160 1 -1.65102 -11.7355 11.1389 10
161 1 1.65081 17.6134 5.36437 12
162 1 -0.176457 7.11513 8.82098 17
163 1 13.2996 4.77055 13.944 15
164 1 -6.43941 14.4597 3.67521 16
165 1 13.2639 -6.60651 -9.72673 14
166 1 -6.38621 12.601 11.9483 13
167 1 13.0346 -8.68121 1.47663 9
168 1 -16.9709 0.740856 5.80311 10
169 1 -8.64271 -10.3634 4.82468 16
170 1 5.96966 7.1495 15.5057 21
171 1 -14.2307 0.335026 -2.65286 17
172 1 -2.97098 -14.1952 -1.66562 19
173 1 -3.17088 9.63307 5.21052 23
174 1 4.24629 14.5059 12.2507 10
175 1 -6.80793 12.9601 -7.91315 16
176 1 -14.392 -4.92799 -6.93057 12
177 1 -8.66996 -1.68294 10.651 19
178 1 -0.710987 -9.35933 5.22017 19
179 1 4.35059 -14.4895 6.66913 15
180 1 -13.6671 11.1976 3.70068 13
181 1 14.9399 3.53357 4.55039 17
182 1 -6.08603 -7.16099 -14.1434 14
183 1 4.81141 0.990167 11.8323 19
184 1 6.06221 -15.7107 3.5473 13
185 1 -3.99579 7.0103 -13.094 20
186 1 3.70382 -11.4892 -13.5058 15
187 1 8.66617 0.233121 -13.7981 17
188 1 2.47126 7.38391 -16.1174 13
189 1 -6.96616 -4.15485 -7.63845 20
190 1 -2.50597 14.2743 -7.03952 17
191 1 -10.7775 -10.636 10.5221 19
192 1 8.79383 17.3504 -0.805928 11
193 1 -9.45667 2.51954 16.4095 13
194 1 -6.31105 12.9012 -3.34318 19
195 1 7.62156 1.89456 10.2136 22
196 1 -3.07466 -6.17558 -12.8067 23
197 1 -5.59645 10.9618 -8.85257 19
198 1 2.62663 5.56251 -10.6297 17
199 1 -8.69992 -12.9081 9.10177 22
200 1 -8.96563 4.43165 7.38984 16
201 1 -7.63202 6.89874 9.36933 16
202 1 0.247085 -10.9778 -7.43968 18
203 1 -6.17164 -14.6247 -0.0214349 17
204 1 10.1683 -13.2965 -2.15262 9
205 1 11.4823 7.82738 14.0582 16
206 1 6.31726 10.0294 -9.16976 19
207 1 -14.1389 12.6345 -2.40116 11
208 1 1.63943 6.38961 11.8987 19
209 1 4.57172 -18.5658 0.44826 12
210 1 13.5342 -1.50519 -3.19987 16
211 1 -10.8649 6.50897 5.1723 16
212 1 -9.28404 -5.56075 -3.43425 19
213 1 6.99337 5.91228 -12.9648 15
214 1 2.04952 -3.2976 10.8391 17
215 1 9.09835 10.3868 -10.4624 13
216 1 -3.14585 -1.16061 -11.1722 19
217 1 0.636502 -19.0174 5.32457 9
218 1 8.91212 -1.14613 -7.31075 15
219 1 -11.3819 -1.59486 4.46335 16
220 1 3.09364 -16.5082 -1.99812 17
221 1 -8.96063 -5.56103 -9.19435 20
222 1 4.85391 15.5542 -1.58905 18
223 1 2.02392 -3.83469 -15.151 22
224 1 4.54895 4.22617 15.7372 18
225 1 15.6569 3.24397 0.278913 11
226 1 10.3842 -5.44985 -11.1332 14
227 1 -7.5644 -3.37531 -10.7873 22
228 1 -11.7284 -0.490399 -9.6371 20
229 1 -8.9764 -16.0208 9.82808 14
230 1 10.333 0.316484 10.9183 21
231 1 -4.69737 -8.99026 -9.92953 21
232 1 0.644214 7.70158 -14.0161 18
233 1 1.88583 11.7369 1.4515 18
234 1 -6.51862 -3.18311 12.3821 20
235 1 -9.41832 -8.43345 -9.62591 13
236 1 -5.36166 -5.71352 -11.0171 18
237 1 -2.25222 7.04668 -15.3378 16
238 1 -5.72019 -9.34687 -6.90042 17
239 1 9.17025 -5.001 -15.7876 8
240 1 14.7696 -0.527117 -10.1845 11
241 1 11.332 4.34083 3.79321 20
242 1 -8.95176 -4.55346 10.646 20
243 1 -3.54145 -10.2487 0.435182 20
244 1 8.02967 5.78249 16.2813 22
245 1 -6.81121 -16.2908 5.07049 17
246 1 -0.940582 -12.4774 0.575443 24
247 1 -1.93774 17.1204 -1.33868 14
248 1 5.39417 -0.270858 -15.1948 20
249 1 -6.9545 -4.0543 -15.8825 11
250 1 -12.0802 -8.0588 12.4991 13
251 1 4.20227 8.23541 19.8676 9
252 1 1.23513 -11.236 -2.09867 18
253 1 -4.22248 -12.7603 -10.7406 15
254 1 -9.99611 6.38577 -8.68085 14
255 1 10.211 6.27008 6.71909 21
256 1 -7.31532 5.0759 -10.725 17
257 1 0.787128 8.18917 -11.3336 18
258 1 6.98068 -14.629 -9.91832 12
259 1 -7.33112 16.0469 -2.31721 7
260 1 2.0996 9.79814 5.44122 17
261 1 11.9836 1.00532 4.71035 18
262 1 -9.91912 0.506127 6.25538 15
263 1 -3.4391 -6.617 14.4943 5
264 1 -6.04257 8.39576 4.47162 18
265 1 3.12306 -4.96064 -11.9607 18
266 1 15.8411 10.8844 -3.66254 10
267 1 4.70586 -9.60463 1.56076 18
268 1 -2.94146 -1.21278 16.0833 10
269 1 -16.7978 -5.08829 6.60243 12
270 1 0.703394 -17.4478 -4.04833 12
271 1 -9.49746 8.58534 14.7505 8
272 1 -11.473 6.08378 13.7744 13
273 1 -16.1225 -4.11185 9.34171 14
274 1 -13.3018 -6.03402 7.84398 16
275 1 16.9036 -4.36117 -2.57903 11
276 1 -11.87 -8.0533 8.929 16
277 1 8.65676 -3.57139 -9.59887 13
278 1 10.0642 -13.9856 -5.39131 13
279 1 3.01976 17.4159 -3.48167 13
280 1 -9.1309 11.3652 -3.43328 18
281 1 10.365 6.83566 11.445 18
282 1 9.74812 -11.2416 -4.18039 15
283 1 -4.37335 11.1093 3.29682 16
284 1 5.62403 -12.0181 7.57926 14
285 1 12.0298 -3.71989 5.51352 13
286 1 -1.18896 1.72568 16.3569 15
287 1 -3.15155 13.3778 4.19143 20
288 1 9.69315 8.55632 16.1866 14
289 1 -8.69978 13.8999 -5.49248 12
290 1 0.975737 -5.27712 -18.1074 14
291 1 6.85225 -10.4884 -13.4845 15
292 1 -9.99754 3.55988 13.3438 17
293 1 -14.6553 2.86949 3.01109 12
294 1 -6.11652 9.82868 0.827362 19
295 1 8.11589 -1.02269 8.86692 18
296 1 -9.27748 -11.6093 1.42475 18
297 1 6.3912 -6.14041 7.69218 13
298 1 -9.54655 -9.89141 12.765 13
299 1 -14.526 9.16431 1.2149 17
300 1 2.57701 -12.4162 -6.79637 16
301 1 -5.72262 -1.69706 -9.25537 19
302 1 7.53955 -2.63491 -14.6258 15
303 1 6.26341 14.379 4.64854 18
304 1 -11.4182 -1.13009 -3.59449 21
305 1 4.79966 -8.49845 -12.7055 15
306 1 9.22669 3.9083 -13.6955 11
307 1 -4.69142 -14.9366 -7.52133 14
308 1 -12.7194 -7.37925 -4.41478 15
309 1 11.5462 5.74032 16.5579 12
310 1 11.0342 4.76412 -1.34154 14
311 1 -8.40411 1.85212 -11.9349 15
312 1 3.13936 16.7211 2.38198 13
313 1 -14.5447 -0.182961 -5.7617 11
314 1 -7.98519 7.65205 6.82574 14
315 1 -9.1876 9.36041 1.67607 15
316 1 9.84302 4.58925 13.7897 21
317 1 11.6369 -3.0062 -5.7245 18
318 1 8.19793 -2.80513 14.9758 11
319 1 10.3838 1.29132 -8.61026 20
320 1 -5.56015 -16.3351 -4.30996 9
321 1 4.5267 -9.74476 -2.10512 18
322 1 12.1428 -0.221956 7.85211 18
323 1 -9.76284 -3.8525 -5.99708 19
324 1 -7.00881 -9.20833 2.78766 16
325 1 -9.36162 -6.82809 13.5473 15
326 1 -3.91449 12.0514 0.363135 15
327 1 -10.4994 -9.57339 -2.67233 18
328 1 6.87205 10.7392 16.1296 15
329 1 -10.0031 7.47008 -3.07416 15
330 1 0.583586 13.6824 -8.91017 20
331 1 6.62159 12.2941 6.75883 21
332 1 -13.5902 -7.82825 -1.17111 15
333 1 -2.7412 -9.49862 -6.90142 22
334 1 -13.5798 -0.461449 7.5891 17
335 1 -13.1851 7.19465 -3.34401 16
336 1 5.20924 -8.92557 6.5567 14
337 1 -5.0277 -11.8333 -1.364 18
338 1 11.6687 11.098 8.63057 16
339 1 5.30593 8.10237 -14.2823 13
340 1 -12.9102 4.49742 -12.5294 11
341 1 -1.86648 15.5385 -9.97932 12
342 1 -9.03065 6.16824 -5.77012 21
343 1 -1.50912 -12.4755 4.19647 21
344 1 12.8336 5.92938 5.45909 18
345 1 -0.0370809 9.76662 -16.1184 11
346 1 -12.9782 1.62971 0.397135 16
347 1 -4.75666 -13.8019 4.63881 19
348 1 6.99986 -9.59507 -10.262 17
349 1 -12.7244 1.16798 3.48305 16
350 1 -15.0691 -1.06003 10.5711 16
351 1 -14.4201 7.59554 6.28749 13
352 1 -9.81506 2.86822 -16.9892 8
353 1 8.25011 -10.9367 -7.01799 20
354 1 1.52335 -9.74531 -12.3468 20
355 1 -3.92997 -4.17203 10.8211 14
356 1 -5.94211 3.26996 -16.7472 15
357 1 5.14082 -13.1818 1.61165 18
358 1 1.98164 12.7164 -5.96207 19
359 1 -12.3701 9.34138 6.58836 16
360 1 -6.16145 -2.66043 15.4501 12
361 1 -10.7736 -6.17294 -11.5351 12
362 1 -8.04192 -6.68146 7.478 17
363 1 10.7183 -5.52164 11.6872 11
364 1 8.73377 -5.66083 6.15508 14
365 1 14.5662 7.83473 -5.01341 15
366 1 -2.35829 2.99964 13.1579 16
367 1 3.20363 13.2771 -0.340394 18
368 1 -2.87949 -14.6585 -4.74136 19
369 1 -4.24456 6.68665 16.4868 13
370 1 -2.22635 14.8359 6.71489 19
371 1 -9.88597 -11.3228 -7.76461 9
372 1 9.75971 15.5189 1.26939 12
373 1 4.33379 7.2224 8.9049 21
374 1 -9.62976 1.88977 9.96422 20
375 1 -11.8686 4.4195 10.6282 17
376 1 -6.35826 -6.63545 -5.64614 18
377 1 -5.75117 9.56242 7.77227 19
378 1 -5.14334 -11.7947 -7.88979 21
379 1 -2.55117 -8.3054 -14.4532 16
380 1 -7.42666 -14.2024 2.63904 20
381 1 9.71499 1.90483 7.99781 21
382 1 -6.12582 -5.75006 13.3111 17
383 1 -9.8074 5.97406 -11.7795 12
384 1 9.85898 7.78464 -1.80168 17
385 1 -7.78089 -13.6565 -2.9378 14
386 1 -0.294332 16.8166 1.45294 14
387 1 -1.75789 8.36467 11.0639 19
388 1 -13.864 -2.50763 -2.17138 12
389 1 -0.540756 17.9099 -3.97293 12
390 1 5.47987 12.3941 -6.61962 19
391 1 -6.64245 -7.11327 -8.91863 20
392 1 3.90089 2.82994 18.5688 13
393 1 1.22314 -14.5904 -9.05036 14
394 1 0.256456 -3.03226 -12.1704 22
395 1 8.12219 -14.2759 2.23285 12
396 1 -12.9096 8.47865 3.9832 19
397 1 3.2008 6.71652 14.1802 18
398 1 8.16732 9.88238 -2.49366 22
399 1 -9.02869 9.51116 -11.8523 12
400 1 -16.7235 -5.94224 -0.413246 8
401 1 4.27561 17.5712 7.31703 9
402 1 -5.22473 3.68381 -13.3105 20
403 1 10.9687 5.78498 1.04979 15
404 1 6.38294 15.0693 -7.70584 10
405 1 14.5592 1.49586 -2.87318 11
406 1 -0.273934 -0.200603 -12.4737 20
407 1 1.42607 -13.4594 5.58571 22
408 1 2.39856 -9.40421 10.7259 12
409 1 -9.39701 2.47611 -9.7397 16
410 1 -11.7791 -14.2431 6.21 11
411 1 -0.535344 -12.1018 -10.3377 19
412 1 9.13988 14.3683 5.98634 16
413 1 0.595176 3.24507 -12.1708 20
414 1 2.80596 0.0192579 17.2497 12
415 1 -13.827 1.81246 11.5761 17
416 1 -0.803224 -16.8731 -0.190794 16
417 1 -13.1075 -2.50116 1.95444 16
418 1 14.162 -6.51442 -6.29154 12
419 1 11.7488 -1.25426 -0.584947 16
420 1 2.60787 -8.66616 -6.97363 19
421 1 4.82665 3.96921 -11.8646 18
422 1 11.1512 -5.21547 -7.75036 21
423 1 -6.67025 0.996461 15.6741 15
424 1 6.11678 15.2458 1.57245 18
425 1 -3.85045 -3.00977 -16.7294 14
426 1 4.60546 2.19093 -17.7025 15
427 1 -7.25776 -3.64484 7.91879 19
428 1 -2.93981 14.4836 0.714033 19
429 1 -7.92966 -1.40681 -14.4322 15
430 1 -15.8509 -0.175056 2.83332 13
431 1 -1.22643 -11.4828 -16.5813 7
432 1 -7.44985 -11.0957 11.0439 16
433 1 0.491243 10.0618 -8.79475 21
434 1 16.0391 3.83766 10.0495 11
435 1 15.3559 5.74003 -0.712434 11
436 1 -10.1339 -12.4377 -1.54685 11
437 1 -1.75784 -4.13458 -18.3582 10
438 1 -7.81328 10.0549 10.1479 18
439 1 14.5324 -3.34164 -0.627041 18
440 1 3.5272 14.9466 -7.21482 18
441 1 14.4274 4.70914 -8.74649 13
442 1 3.89138 9.68129 14.7108 22
443 1 -12.2548 1.78253 8.8023 19
444 1 5.75978 10.429 9.70291 18
445 1 8.93769 -0.337942 16.4428 11
446 1 0.174694 1.52494 -15.3012 19
447 1 -0.235264 -2.5603 13.1427 15
448 1 8.37445 9.92646 7.36904 19
449 1 7.21199 7.59214 -9.57618 22
450 1 -6.64396 10.7555 -5.38864 18
451 1 -0.41367 13.6787 -2.18036 19
452 1 10.9413 -2.47455 13.4214 15
453 1 9.35462 2.355 -11.5117 18
454 1 13.0985 -12.2175 -6.64647 6
455 1 11.5659 9.88121 11.6343 16
456 1 -14.8574 -6.46837 1.51645 12
457 1 -6.55323 12.1646 -11.4942 13
458 1 -13.8279 -0.814216 13.4097 11
459 1 -5.12362 14.3728 -9.85157 10
460 1 3.719 -13.3781 -3.34958 20
461 1 5.7195 -1.5289 -9.29233 20
462 1 -2.34069 15.3917 -4.51134 16
463 1 -7.97497 -5.33409 -13.41 14
464 1 3.40901 -15.2249 3.49745 17
465 1 -12.8992 -4.40169 -0.388976 17
466 1 0.704462 12.3481 -14.5452 11
467 1 -1.71784 9.68136 14.746 16
468 1 -10.3979 -5.21823 8.20867 17
469 1 2.94417 -10.8055 -9.69205 21
470 1 4.44315 -7.45054 11.661 11
471 1 -12.104 8.39505 1.28155 14
472 1 5.24357 5.6103 18.4273 15
473 1 5.47764 18.0413 -5.74849 10
474 1 11.2598 -5.74522 -4.2522 13
475 1 3.55255 9.22941 11.407 24
476 1 -0.232881 3.99103 -18.4352 8
477 1 -6.31215 -14.3016 10.8137 14
478 1 7.54631 -0.0809231 -17.1779 10
479 1 3.50017 12.8609 6.51222 19
480 1 9.11077 4.93882 -10.3542 20
481 1 -2.22019 -2.48573 -13.1875 20
482 1 -3.97302 -11.4575 -4.41546 20
483 1 -10.6234 -3.46993 -11.8452 15
484 1 13.7703 1.44842 2.6539 19
485 1 14.6961 4.53359 -3.24237 14
486 1 8.00198 -7.19773 -7.87526 18
487 1 13.9509 7.20054 11.5774 15
488 1 4.73931 -11.1651 -5.37069 19
489 1 2.37423 4.12966 -18.8725 10
490 1 7.39303 12.0773 3.24754 18
491 1 9.26801 10.7926 13.8933 14
492 1 12.3691 6.18413 -3.53077 17
493 1 13.1344 -4.48631 2.93964 15
494 1 11.401 4.81272 -8.14745 19
495 1 7.46976 1.75932 14.4203 23
496 1 15.9431 4.87132 12.6755 9
497 1 14.2672 13.1195 -3.72305 8
498 1 1.55567 2.33766 16.2424 16
499 1 15.42 -0.927071 -6.76792 12
500 1 9.62103 3.1288 11.7476 20
501 1 -8.41391 -0.648617 -8.2536 24
502 1 14.1331 5.75355 2.23485 16
503 1 -12.7324 8.33337 12.5884 11
504 1 8.90584 10.4515 10.6726 18
505 1 12.5054 1.98413 12.5793 19
506 1 3.87828 10.2218 8.24332 18
507 1 0.67891 14.5795 11.6214 12
508 1 -1.28228 -18.0904 2.55545 15
509 1 -5.85072 10.3016 -2.58596 18
510 1 10.7403 10.5732 -7.58282 18
511 1 9.5535 -2.95113 -12.7326 18
512 1 1.54252 16.3086 -1.4428 15
513 1 -2.0404 -13.0959 -6.87893 24
514 1 9.97499 -7.29759 -13.8138 12
515 1 -14.3555 2.93344 7.27873 14
516 1 -4.59548 5.22653 -10.445 15
517 1 -4.33146 -17.3168 3.71955 13
518 1 -5.81749 -0.366115 -11.6125 20
519 1 -12.2461 1.62485 -4.85115 21
520 1 11.0981 -6.6786 3.37017 14
521 1 12.8958 10.322 3.26675 15
522 1 0.394094 -10.1978 8.19313 18
523 1 -13.8355 -2.56065 -8.75801 14
524 1 1.64498 1.00681 -19.7101 10
525 1 -1.45532 6.5113 13.6086 19
526 1 5.94037 9.64831 -11.9483 17
527 1 13.4391 -0.983049 13.7623 13
528 1 7.411 6.24288 -6.98042 16
529 1 12.7102 14.902 -0.0147979 7
530 1 4.12789 -14.5196 -8.5709 15
531 1 -11.7631 -2.24871 14.3159 15
532 1 14.19 -1.49021 4.66246 15
533 1 -1.29061 12.6115 14.1277 11
534 1 6.20492 13.4415 -10.0508 13
535 1 -12.4853 10.1984 -4.07661 15
536 1 10.0335 11.8226 4.07932 17
537 1 -9.22164 -14.8558 0.138515 13
538 1 10.2717 -4.25598 1.89786 17
539 1 7.93753 16.9044 3.04083 15
540 1 -4.5123 4.59418 10.6802 14
541 1 -11.8531 -5.84106 2.27685 17
542 1 -10.6674 -3.47411 -9.10518 24
543 1 7.62793 -0.272389 12.6574 22
544 1 -4.62557 -10.2814 10.6141 12
545 1 8.39212 7.45158 13.4118 21
546 1 -7.48971 12.2265 2.28807 15
547 1 2.42774 -0.0662304 -16.7756 18
548 1 -9.66779 -0.987572 8.53907 16
549 1 8.31112 -0.807474 -10.9056 21
550 1 11.0788 -10.5974 -8.44654 14
551 1 8.27395 4.95505 8.59646 18
552 1 -11.4175 0.815071 14.4148 16
553 1 10.258 8.48871 8.95635 21
554 1 0.140536 -0.899502 15.3051 16
555 1 -1.45077 5.0669 11.0808 15
556 1 -1.66032 -4.56153 -15.3672 21
557 1 -6.95811 3.56829 13.908 18
558 1 6.66283 4.13856 13.5345 21
559 1 -10.8979 -17.2532 7.33758 9
560 1 14.2676 8.43937 -1.85251 15
561 1 7.12885 -13.3215 -4.27615 18
562 1 5.27332 11.0932 -1.20535 18
563 1 11.2667 15.2374 3.53157 9
564 1 4.70106 -0.612897 -18.7734 12
565 1 4.02258 13.9862 -3.82765 18
566 1 12.9994 8.28821 1.02381 21
567 1 -7.04282 -9.4548 -0.29854 17
568 1 -0.351152 -1.83502 -15.9064 22
569 1 -11.6641 13.3173 -1.21775 11
570 1 7.5031 -6.99599 -11.4916 13
571 1 10.5253 7.54497 -9.52977 18
572 1 10.3193 12.3771 -2.98284 18
573 1 12.8716 2.52765 15.5397 13
574 1 10.206 1.05236 14.3581 19
575 1 -3.33361 -14.9313 9.6397 12
576 1 -5.85052 9.55286 -13.8111 11
577 1 3.3838 12.7489 10.475 19
578 1 7.98374 -8.82018 -16.0615 9
579 1 7.09624 16.2144 -3.74974 14
580 1 7.67864 9.01143 4.5856 21
581 1 13.4991 -5.02461 -2.89439 17
582 1 7.16978 8.38939 18.1791 13
583 1 -13.8301 -3.29875 8.00179 18
584 1 2.247 -16.4187 0.916068 17
585 1 -10.9024 12.0063 1.91955 21
586 1 6.33432 10.334 1.92197 15
587 1 -14.0704 -2.12279 4.71254 17
588 1 -1.60107 4.93903 18.4491 9
589 1 -5.21551 6.65712 -15.6106 15
590 1 -7.27307 6.82889 -13.3133 16
591 1 2.43118 -13.3131 -0.531362 18
592 1 8.10353 9.25961 -6.34696 19
593 1 -14.0695 4.86876 12.9477 10
594 1 4.57749 -2.95754 -13.6838 16
595 1 2.41288 -12.685 8.98378 11
596 1 1.92604 14.4733 3.96815 18
597 1 -4.11459 2.03936 16.0635 13
598 1 -7.30953 -7.95449 -11.6213 17
599 1 -4.46967 -9.70801 -12.8009 14
600 1 -7.40072 -13.7244 -8.78813 10
601 1 -0.634707 17.0176 -6.99364 12
602 1 -3.1919 12.2627 7.37797 20
603 1 5.75584 -12.069 -7.85609 18
604 1 6.43104 -16.0584 -0.287885 12
605 1 2.41484 -6.97176 8.94843 18
606 1 14.9339 2.08688 -8.17263 12
607 1 0.770444 -14.8802 -6.22569 17
608 1 -11.8698 -2.67504 10.035 15
609 1 -3.71381 -16.3947 0.62203 15
610 1 -6.58378 -11.043 -4.59392 17
611 1 -11.1614 0.224314 11.848 20
612 1 -6.88867 -17.1256 1.52922 10
613 1 13.5873 5.07772 -6.26148 17
614 1 -4.38808 16.1467 4.41068 13
615 1 -15.3475 6.54845 2.79042 11
616 1 11.9404 -1.3289 2.61997 18
617 1 -13.2248 -2.14578 -12.0569 13
618 1 7.99664 3.43614 -7.90311 19
619 1 5.76314 11.9087 12.908 19
620 1 -13.3516 2.53614 -7.28192 14
621 1 -11.6637 -6.87401 -7.4196 16
622 1 -1.41776 7.81886 17.2939 13
623 1 4.9115 7.01888 -11.2231 20
624 1 11.908 13.3334 6.40324 10
625 1 -2.64111 -1.01972 12.563 17
626 1 -2.36201 -17.3553 -2.97192 13
627 1 -8.14581 -18.1803 7.22648 9
628 1 14.6809 10.2299 9.85981 13
629 1 2.598 -7.85854 -10.4066 19
630 1 -8.98756 -4.97292 3.75226 20
631 1 8.56658 7.6961 -12.1392 15
632 1 -1.80983 -16.7233 -6.24671 14
633 1 1.50329 -19.003 2.30388 12
634 1 -0.0295216 -14.7089 -1.29075 21
635 1 5.38704 4.92059 -8.97317 21
636 1 6.44538 18.3346 1.16838 10
637 1 -2.91398 0.243931 -14.9095 19
638 1 -0.185172 1.1174 12.1269 17
639 1 0.935751 4.50003 -15.5232 21
640 1 -11.3576 -1.39419 -14.642 10
641 1 -12.5222 -4.84677 -3.8638 18
642 1 2.2998 18.0904 -6.28112 11
643 1 -3.83056 -6.50763 -16.4221 12
644 1 10.8597 7.03691 -6.14244 20
645 1 12.0075 -6.51267 -0.0780297 17
646 1 -6.7317 6.59867 12.34 21
647 1 7.49515 -10.904 2.23155 18
648 1 14.9885 -5.84474 0.446868 10
649 1 13.1119 -3.32184 11.3003 14
650 1 -0.182632 10.2679 7.49038 21
651 1 -12.7751 2.90321 15.4042 9
652 1 -8.38849 4.49461 11.0181 18
653 1 -3.04092 -14.5314 7.04468 18
654 1 6.33476 9.47733 12.9715 21
655 1 -15.4442 -0.884166 0.131343 11
656 1 9.35982 -7.20753 -2.47654 18
657 1 -11.6858 13.0862 -4.81667 11
658 1 2.44623 -16.7783 5.7277 12
659 1 4.66126 1.31776 14.4928 21
660 1 -0.0553474 12.5513 5.87968 23
661 1 2.89057 -10.3894 5.82799 18
662 1 3.169 3.39131 12.6104 22
663 1 -15.2314 -6.38324 -3.70621 11
664 1 1.24653 10.7559 15.4774 17
665 1 4.68057 12.5077 2.34338 18
666 1 -11.505 -11.2778 5.66724 17
667 1 -4.65865 -16.9695 6.45426 11
668 1 9.09124 -6.60481 9.17162 12
669 1 12.0504 -5.14064 8.78758 11
670 1 7.34041 7.36613 7.21375 18
671 1 0.0966632 -8.16069 -8.73621 20
672 1 -3.29151 2.03425 -11.9038 17
673 1 -5.35108 -0.196301 13.3567 18
674 1 -0.980591 15.4156 3.77133 18
675 1 16.7797 0.380456 3.62027 9
676 1 3.1551 10.1081 -6.74648 17
677 1 -3.64607 8.33102 13.5712 18
678 1 7.33085 7.87934 10.2349 21
679 1 6.40337 -3.67901 -11.4709 16
680 1 -6.20994 -11.735 1.66342 20
681 1 14.8451 1.73854 6.99054 15
682 1 2.75916 -1.68502 -11.0225 19
683 1 0.861331 7.44476 15.824 15
684 1 9.74473 -13.5297 -8.62294 11
685 1 4.14442 4.85279 -16.2887 13
686 1 12.4284 5.11275 -11.7634 9
687 1 17.2496 -2.50768 -0.409159 9
688 1 0.902442 -6.62476 12.2983 11
689 1 -1.14706 -8.95195 -11.5432 21
690 1 8.50797 14.3808 -1.51901 14
691 1 -13.6882 5.32837 4.62219 18
692 1 11.1557 3.67243 -4.83463 19
693 1 16.5847 6.55795 4.73635 13
694 1 2.22319 -6.51515 -15.539 15
695 1 -7.741 12.3621 5.7797 15
696 1 16.7032 9.21072 7.08987 13
697 1 11.4821 13.4172 -5.93191 12
698 1 3.22645 2.39623 -14.0176 20
699 1 10.2341 -4.37141 -1.31921 17
700 1 -11.5145 2.28246 -1.6797 20
701 1 10.447 8.10223 3.93707 18
702 1 -11.2838 -9.52178 0.493979 15
703 1 -11.2816 9.22835 -9.07215 9
704 1 5.65769 4.53666 10.092 17
705 1 -11.2029 -0.536512 -6.83655 21
706 1 -12.2724 5.29761 7.62563 17
707 1 10.2163 -7.88988 -9.50764 18
708 1 -9.12998 -8.07095 -5.83201 18
709 1 12.2122 -11.1161 -1.10762 10
710 1 -14.0138 4.6304 1.03994 15
711 1 13.3821 8.18141 8.48095 19
712 1 -6.19233 -9.94356 7.12671 16
713 1 10.1132 2.97919 17.0174 14
714 1 13.9492 -2.69237 7.68788 11
715 1 -11.3922 5.94119 2.53885 16
716 1 1.27374 9.18954 9.61402 20
717 1 3.51931 8.53235 -9.38569 17
718 1 -0.510341 -7.99722 -16.7585 16
719 1 -5.55369 14.6846 6.91536 14
720 1 -12.7855 -11.4986 8.34655 12
721 1 8.52852 11.5724 -5.16596 17
722 1 -0.0804431 9.63749 12.529 19
723 1 15.2197 -3.72043 -5.4595 16
724 1 7.74212 -7.02888 11.6844 11
725 1 -1.66886 13.579 -12.2739 13
726 1 3.41119 11.3559 -9.12714 20
727 1 -6.48284 -0.150999 10.0983 13
728 1 16.366 5.69332 7.44178 13
729 1 -2.47227 -3.78359 -10.0757 20
730 1 13.6149 11.5833 -0.977942 13
731 1 -14.2916 3.42438 -1.55917 13
732 1 -5.45361 -12.7674 8.00015 19
733 1 3.45707 14.4926 -10.1583 15
734 1 5.40044 -1.24007 10.6152 19
735 1 -1.9084 -11.5161 -1.85077 18
736 1 -6.22182 16.4064 1.15095 10
737 1 -14.9345 6.60704 -0.781736 14
738 1 12.5535 -1.32074 -8.29896 19
739 1 0.818225 -12.8015 -13.8282 14
740 1 -9.1326 9.43992 4.71109 18
741 1 13.9506 11.06 -6.40584 12
742 1 6.80325 -3.57258 -17.9421 11
743 1 -7.51855 -10.9902 -9.71139 16
744 1 -0.265441 -13.0704 -3.971 15
745 1 -4.211 11.8258 14.4775 11
746 1 5.88155 -12.1705 -0.994447 17
747 1 -1.42573 10.1553 -13.3566 19
748 1 13.2338 1.88151 -5.7161 16
749 1 9.32791 9.74946 1.3107 20
750 1 1.95341 -18.9886 -0.726337 11
751 1 3.83172 -3.20445 -17.2656 18
752 1 13.1959 1.96347 -0.549338 16
753 1 -2.25034 3.68734 -14.6863 20
754 1 -2.90212 -11.0478 6.9963 16
755 1 5.88046 10.3736 -3.84803 15
756 1 -11.4639 4.54671 -3.98353 19
757 1 -14.5948 4.19256 9.86256 15
758 1 1.73011 6.174 18.8262 13
759 1 -9.20179 -7.73688 10.3654 22
760 1 5.22635 10.2965 5.18661 18
761 1 0.212122 -14.4765 2.60368 18
762 1 1.72675 11.9666 -2.84486 17
763 1 -4.60624 7.75071 10.4251 18
764 1 -7.92723 0.936728 12.4605 17
765 1 -9.86006 11.1099 7.6127 14
766 1 -6.40769 -8.37337 13.3213 13
767 1 4.48532 -12.0009 4.02938 16
768 1 10.7486 4.61901 9.53022 17
769 1 8.32542 -5.91167 -4.86213 18
770 1 5.55297 -12.2747 -11.1282 17
771 1 -6.59034 0.716672 -13.9321 17
772 1 -2.88004 2.27826 -17.14 10
773 1 7.12857 14.9737 8.5325 11
774 1 -12.2969 -5.27619 13.9409 11
775 1 -6.56733 6.34943 -7.87808 17
776 1 -14.7484 4.64741 -5.02431 9
777 1 9.50553 12.395 0.0573539 15
778 1 -9.60887 -16.396 4.47625 11
779 1 14.7143 11.181 6.27304 13
780 1 -9.48965 -11.0668 -4.65383 12
781 1 4.30158 14.6309 8.64156 17
782 1 -8.82701 -0.673292 15.1546 16
783 1 -1.43955 -15.524 -8.89184 14
784 1 12.7868 2.13364 9.50508 18
785 1 4.01737 -18.3116 3.83518 12
786 1 3.92479 10.3618 18.0173 15
787 1 11.2492 -0.104886 -11.8036 16
788 1 8.05288 -8.39801 -0.274797 13
789 1 2.21333 -0.640227 -13.993 19
790 1 -11.436 1.00225 -12.4526 17
791 1 -7.68859 3.85745 -14.7179 14
792 1 -4.29653 4.80474 13.9867 19
793 1 10.0959 -2.97545 9.92427 17
794 1 -9.46884 -7.39974 4.6883 19
795 1 14.653 -0.294466 1.03567 18
796 1 -1.56117 5.44718 -12.6045 20
797 1 15.8996 8.24397 1.67356 14
798 1 -0.990193 15.1405 9.59237 13
799 1 -14.4436 -6.06426 4.9203 16
800 1 7.23444 -15.0286 -6.83597 14
801 2 -11.9573 -2.06844 -8.27096 21
802 2 -7.82093 12.3464 -4.84937 20
803 2 1.51416 -1.44755 -12.4317 21
804 2 -3.25334 5.98839 10.8397 21
805 2 5.45734 -13.5293 -9.54193 16
806 2 -6.68633 -4.8389 -9.3994 16
807 2 3.109 2.9034 14.9662 21
808 2 7.56022 0.988191 16.1652 18
809 2 -12.4589 -9.84753 2.10451 13
810 2 -13.2669 6.11448 -5.03306 11
811 2 1.79694 13.0929 5.47428 19
812 2 -12.9162 -0.865247 3.53532 16
813 2 2.10351 16.2926 -7.392 17
814 2 9.97738 3.43266 2.95219 15
815 2 -1.27331 15.6538 -6.03537 16
816 2 9.71688 13.0185 -6.37652 12
817 2 -11.268 -1.91883 -12.6927 17
818 2 -10.1658 -7.01036 -8.45405 16
819 2 2.47249 1.49245 12.0057 19
820 2 7.00888 -2.70371 -10.0828 15
821 2 1.78212 -15.7356 2.59762 22
822 2 -6.29967 9.00807 -1.14674 18
823 2 -13.0335 3.55451 -5.67725 15
824 2 11.2334 4.66766 5.72214 19
825 2 9.78327 -11.7258 -8.30768 16
826 2 -10.512 -11.1443 -0.0170955 17
827 2 -12.0688 -4.70994 7.31115 15
828 2 -3.35092 -12.62 3.56199 18
829 2 10.0193 -4.79799 9.46042 15
830 2 -0.235071 -15.4249 -7.57074 13
831 2 4.5692 0.0903964 16.0798 17
832 2 0.168523 11.8883 -9.62574 18
833 2 2.27238 -18.3011 4.44935 12
834 2 -10.1804 -11.2492 -2.93202 14
835 2 0.542785 6.42551 14.0262 17
836 2 -11.4145 7.71693 3.22517 19
837 2 -1.261 3.10788 17.9084 12
838 2 -5.79546 9.28993 -4.33985 19
839 2 8.80102 -12.566 2.50028 15
840 2 0.455375 13.5139 -7.00046 20
841 2 13.1467 12.1 6.54382 13
842 2 9.57394 15.8461 3.11886 12
843 2 9.27952 -1.47443 -9.25572 19
844 2 -5.26348 8.25731 12.4141 20
845 2 2.99469 3.53077 -15.3486 20
846 2 -5.56152 10.7248 -12.4995 12
847 2 9.94368 10.2433 -2.95235 16
848 2 -6.75678 -3.90416 14.0972 17
849 2 -13.321 9.611 2.68324 18
850 2 10.5121 1.14859 -10.5905 19
851 2 -10.365 -8.57925 13.8234 13
852 2 3.15161 -8.93638 -11.9235 15
853 2 -3.22317 -4.96724 -17.4967 10
854 2 -13.6268 -6.59471 3.07779 16
855 2 8.59098 11.5129 1.71989 16
856 2 -4.45358 9.18124 3.55814 19
857 2 -4.4324 -9.99583 -8.31193 21
858 2 -3.7962 14.3168 7.55427 15
859 2 7.4996 -1.59636 16.2128 11
860 2 3.58069 -8.16004 10.1039 14
861 2 15.3547 4.23143 8.41234 16
862 2 4.98317 14.8679 -8.7996 13
863 2 -9.94772 4.03777 -2.73473 20
864 2 16.2219 5.6069 10.839 11
865 2 10.6434 -11.2163 -2.39469 11
866 2 9.08797 -13.0498 -3.66351 13
867 2 -5.6639 11.3734 13.3148 11
868 2 5.29054 -11.1312 2.48047 15
869 2 12.3911 -3.90973 7.46889 12
870 2 14.278 9.21284 2.25802 13
871 2 -4.35656 -2.26659 15.5452 11
872 2 14.2131 -5.69665 -1.22888 12
873 2 -1.34571 8.5258 8.21452 20