ITEM: TIMESTEP
11000
ITEM: NUMBER OF ATOMS
1000
ITEM: BOX BOUNDS pp pp pp
-30.0 30.0
-30.0 30.0
-30.0 30.0
ITEM: ATOMS id type x y z Coordination
1 1 2.05154 -7.1548 -9.0797 20
2 1 7.05281 -8.83835 6.69432 18
3 1 -5.23568 8.55445 -1.99764 20
4 1 -11.1607 3.0917 -5.99619 10
5 1 0.407154 -8.45029 11.7172 11
6 1 -8.59889 -0.396427 -12.5598 10
7 1 -8.49074 -1.54866 -7.0555 18
8 1 -1.37247 -14.9281 0.926841 22
9 1 5.20444 -4.21309 4.26413 19
10 1 2.3758 1.13792 8.99064 19
11 1 5.66798 -4.10193 0.59402 21
12 1 -2.45591 4.19534 -8.63508 17
13 1 -3.18309 -3.19141 12.4792 10
14 1 -9.22906 -0.95237 0.848504 18
15 1 -3.14974 -0.913981 -6.33911 22
16 1 -0.217498 -4.28179 7.26306 20
17 1 2.06057 -7.69106 -5.92754 19
18 1 2.86385 -2.90541 14.2539 12
19 1 -0.686313 -14.8263 6.56918 14
20 1 -12.0225 -0.0847199 2.00046 16
21 1 -6.01664 -1.64348 -5.02091 22
22 1 -1.64788 11.792 -1.24673 13
23 1 5.10776 -5.2341 -8.94827 22
24 1 5.66812 -9.62251 -10.1528 12
25 1 -2.29461 -6.68494 12.36 11
26 1 -10.9651 2.12745 0.382316 16
27 1 0.632191 10.2987 0.868897 15
28 1 4.06423 -13.2331 0.788196 18
29 1 9.11545 -11.3545 -5.81176 13
30 1 7.8631 -4.62667 2.73665 23
31 1 -7.05092 6.49711 -6.18871 14
32 1 -0.395997 5.58424 -3.0237 19
33 1 0.921846 3.75741 5.37097 20
34 1 3.38083 3.9241 7.12401 21
35 1 -5.49356 -4.49202 0.555605 22
36 1 1.39357 -1.22324 11.4076 21
37 1 -12.6789 -5.80899 2.31363 11
38 1 14.5411 2.40904 6.82637 5
39 1 7.05272 -6.99964 -1.86464 16
40 1 4.87948 -0.881314 9.87277 19
41 1 -5.50095 -9.95548 0.713832 19
42 1 -0.567736 -5.94995 -7.97838 19
43 1 -7.92904 7.14364 0.693216 15
44 1 -0.748162 1.45751 -10.0892 17
45 1 4.80829 -0.0936351 -3.14134 19
46 1 6.22008 -3.37834 -6.02076 20
47 1 5.53266 -9.62283 3.66303 22
48 1 5.73424 -11.4846 8.49348 13
49 1 -4.1236 3.60746 3.94877 20
50 1 -6.54689 -8.42393 8.13633 16
51 1 -7.79968 2.24543 6.45222 19
52 1 9.48157 -9.36412 -3.23144 17
53 1 8.30135 -1.02876 -12.3479 14
54 1 5.06035 -3.9429 7.7001 21
55 1 1.91406 10.9762 3.45609 13
56 1 -4.00641 2.85785 -11.075 14
57 1 1.46033 6.16145 3.09527 18
58 1 -4.60129 -10.7062 8.54229 13
59 1 4.57214 -9.00362 -6.9814 19
60 1 3.50461 -8.63433 -11.5039 14
61 1 -3.18428 1.22822 6.12055 21
62 1 -10.1714 -11.0589 0.749608 14
63 1 4.68463 -6.46508 2.41485 19
64 1 -8.15585 -10.4042 -2.29844 16
65 1 11.409 -7.69385 3.81013 15
66 1 -4.07154 6.46532 4.43263 21
67 1 -4.20364 3.4473 1.0241 20
68 1 4.25775 2.85952 -5.35882 21
69 1 11.6659 -10.1889 1.98803 15
70 1 -9.40981 -13.2955 -1.71406 10
71 1 8.33339 8.54864 2.85537 12
72 1 7.94329 4.10662 -0.463227 22
73 1 -5.60398 8.55192 -5.14591 13
74 1 1.02248 -10.745 -11.0396 10
75 1 -2.13583 7.32603 -4.64648 18
76 1 11.8521 -0.559295 -4.92585 17
77 1 6.45742 -2.05021 -8.7058 20
78 1 9.82205 -6.90745 6.38606 15
79 1 -3.50161 -0.404912 -9.46509 21
80 1 4.10955 7.54058 -1.20244 15
81 1 9.51071 6.59993 -4.77515 11
82 1 -1.95773 8.5344 -0.465379 19
83 1 -2.14223 -6.19085 -10.7551 16
84 1 -11.4287 -2.85481 -6.52577 12
85 1 -3.411 4.5361 10.0284 17
86 1 -1.13831 9.13526 -6.47937 12
87 1 6.07592 -5.48937 11.1108 14
88 1 -11.8366 -3.1725 4.3227 15
89 1 -1.38538 -12.8943 4.0455 21
90 1 0.553438 7.29077 -0.237424 20
91 1 9.87191 4.75864 -6.8082 12
92 1 2.36607 -12.7428 7.54901 13
93 1 -7.96097 2.3019 -2.0376 16
94 1 5.32077 2.657 9.78992 21
95 1 -5.4754 -2.37344 -8.29674 18
96 1 -6.40222 -7.45199 2.625 18
97 1 -7.68886 -13.6059 1.3915 15
98 1 -5.31366 -4.10772 -2.90917 22
99 1 6.08947 -10.2009 -2.29632 13
100 1 -0.591827 6.12965 10.8064 12
101 1 -6.41418 -1.54781 2.30563 20
102 1 -8.36509 -2.58296 -4.32496 23
103 1 0.768899 -12.5528 2.11629 22
104 1 8.66068 0.853033 -4.65564 20
105 1 4.59698 0.023809 13.5052 12
106 1 -0.18177 -1.33041 -10.8107 17
107 1 -7.652 -6.27689 -10.379 10
108 1 -5.35672 11.8377 -2.29999 8
109 1 7.94229 -1.12313 10.682 13
110 1 -2.98989 10.2206 -3.52458 15
111 1 2.60194 -0.15084 -8.9946 18
112 1 -6.23078 0.0726755 7.86089 23
113 1 -6.88906 4.14914 10.7701 11
114 1 -1.11008 -11.8009 -8.2184 15
115 1 -1.18879 -1.10702 5.90958 21
116 1 2.2003 -6.06977 -3.26156 18
117 1 4.0944 5.40089 -7.83951 16
118 1 3.19884 8.24676 1.32045 17
119 1 -10.9178 2.77166 6.34871 12
120 1 5.58422 3.55761 12.5794 12
121 1 10.4177 -1.28917 -0.554143 20
122 1 6.88734 3.98179 7.34277 21
123 1 -9.38808 5.31442 4.59367 18
124 1 -11.2002 -3.25852 -3.34934 15
125 1 2.95637 -3.75177 11.047 18
126 1 5.33324 -12.6439 -3.79166 18
127 1 3.19566 -5.46699 -11.3451 17
128 1 9.70881 -2.33175 -9.513 20
129 1 -10.7622 -3.05432 7.60202 10
130 1 -2.07262 -14.8507 -7.14777 9
131 1 -7.44029 -10.7083 2.92249 17
132 1 0.494356 -10.0563 3.34208 21
133 1 -4.85113 -7.98519 -10.1851 12
134 1 -10.0808 2.77119 -9.79212 10
135 1 7.05088 -1.49972 7.69799 23
136 1 4.15173 -7.01763 5.92393 19
137 1 1.85308 -5.92995 8.21082 17
138 1 4.99815 7.17257 2.72374 20
139 1 -10.1538 -6.49261 4.16345 14
140 1 5.1782 10.5014 2.3032 12
141 1 -3.71692 -5.21585 -9.14882 19
142 1 -3.95262 -9.7763 -7.9466 15
143 1 -4.56785 -12.4767 -0.119341 19
144 1 1.87886 -7.04024 3.28586 20
145 1 15.1713 2.50306 0.00104957 12
146 1 -3.70741 -7.15149 -2.72145 20
147 1 -7.38074 -5.70583 9.6683 12
148 1 -3.9432 -15.8477 1.29013 14
149 1 2.35574 0.359902 -5.78777 20
150 1 -0.28155 -17.1617 -0.104644 11
151 1 2.15322 -10.1406 -1.46682 15
152 1 -0.35953 -16.5997 3.62245 12
153 1 -8.96464 4.20567 -7.67486 13
154 1 10.1035 5.91662 4.36516 16
155 1 -5.54015 -2.20139 -13.2284 10
156 1 2.56517 2.62267 -10.1128 12
157 1 -3.57468 -6.79169 4.09383 21
158 1 2.79386 8.5128 4.67053 17
159 1 10.9852 0.901346 3.80452 18
160 1 -12.0499 -0.58678 5.33518 11
161 1 -2.77235 -8.9176 9.97907 17
162 1 -3.16511 7.47834 7.52621 15
163 1 6.28512 -6.47645 -11.7469 16
164 1 5.30605 -14.8592 -2.18242 15
165 1 12.9525 -3.68704 -8.79627 12
166 1 -3.60309 -7.04562 0.460364 21
167 1 1.74655 -1.86463 8.00207 20
168 1 -8.7172 -3.44738 2.18445 21
169 1 12.0285 -11.1017 -0.810712 11
170 1 -5.45485 5.72601 -0.491606 18
171 1 -6.55647 5.72511 5.62584 22
172 1 8.66113 -10.1559 3.20647 17
173 1 -0.406067 1.5858 7.47254 20
174 1 -6.46539 -6.50908 -4.57325 17
175 1 -0.204589 8.06388 8.42447 15
176 1 -7.86422 0.710662 -4.40145 20
177 1 -9.06405 2.41868 9.47052 11
178 1 -0.962378 -8.70816 -6.46678 17
179 1 -1.17708 8.00047 2.7597 19
180 1 11.1737 -4.49533 4.21045 22
181 1 3.81851 -10.2208 6.46095 21
182 1 -6.11071 1.36986 0.578655 17
183 1 -1.92303 -9.78299 4.89509 20
184 1 7.86917 -13.8488 -5.05092 11
185 1 -5.56177 -5.45613 -12.1529 11
186 1 -11.028 -3.49199 -0.476675 20
187 1 -2.33596 -9.61687 -0.197435 22
188 1 11.2699 1.55927 -2.26169 17
189 1 -7.29942 2.85211 -10.8729 13
190 1 -8.30255 7.76617 6.51744 11
191 1 -7.1193 8.3999 3.56828 18
192 1 -4.59049 2.46855 12.1582 11
193 1 11.9034 -4.00678 -4.73017 17
194 1 13.1712 -0.70482 -8.09879 10
195 1 2.24249 0.829917 6.28787 19
196 1 -3.71768 3.53738 -2.31555 22
197 1 -0.197925 -9.71681 -2.87632 21
198 1 0.379436 9.80982 6.11263 13
199 1 7.38371 -1.29427 -2.32757 21
200 1 -11.3416 -0.123124 -4.40271 16
201 1 7.63254 -13.5502 -1.75005 15
202 1 12.5653 -0.326357 7.3824 11
203 1 -8.95846 -5.63732 -6.58506 14
204 1 -5.1782 -12.9875 2.86867 17
205 1 -3.95655 9.43786 3.56103 13
206 1 -9.07966 4.71463 -1.6795 16
207 1 -1.36842 -12.7949 -4.70681 22
208 1 7.60303 -11.5695 5.47952 13
209 1 -3.70054 -16.6051 -1.51271 12
210 1 -9.72691 5.20382 -4.43454 13
211 1 -3.22793 -15.9493 4.77939 12
212 1 -4.08578 -1.89912 7.25452 22
213 1 -8.29333 4.86175 7.68667 15
214 1 1.09804 -10.8706 -6.27116 21
215 1 -0.73696 -6.79952 5.00613 19
216 1 -9.39342 -0.320597 7.02473 18
217 1 0.610881 -10.2964 8.65078 18
218 1 -5.4178 -8.16132 11.2129 8
219 1 3.82991 -10.2879 -4.27963 18
220 1 6.66292 -15.4075 0.96645 11
221 1 4.00984 10.7445 -3.04732 11
222 1 -5.51585 -10.9942 5.79974 13
223 1 11.3477 -5.67225 8.90682 11
224 1 7.66472 -1.76073 0.872248 21
225 1 -7.96984 2.63202 3.02042 14
226 1 7.77434 -4.69019 -9.56979 21
227 1 8.24189 -4.34953 6.13231 20
228 1 1.4386 4.07026 0.62905 19
229 1 -1.23902 -0.68552 11.9019 17
230 1 3.43645 11.9497 -0.0387361 10
231 1 7.65416 -7.28685 4.27315 21
232 1 3.3471 -15.9726 -4.559 11
233 1 8.23595 4.65194 10.6939 15
234 1 -4.94318 -3.40193 9.70265 13
235 1 -3.02819 -9.78626 -4.85584 18
236 1 -6.83731 -10.5035 -5.78237 14
237 1 -5.76297 6.59624 8.78768 15
238 1 -1.90031 -16.5202 -4.47897 10
239 1 -5.76004 -4.53075 3.63863 19
240 1 4.65678 -1.21085 6.01061 25
241 1 14.356 4.71454 -2.02614 11
242 1 0.353667 -0.54147 -7.43357 22
243 1 0.576324 2.24562 -4.60009 21
244 1 0.07436 4.66336 8.30467 19
245 1 -12.5908 -5.88466 -1.18086 12
246 1 4.45179 8.42433 -5.98268 14
247 1 -6.70569 -7.54257 -7.43982 18
248 1 0.692763 -7.44501 -11.8456 14
249 1 9.05598 7.75681 -1.60883 13
250 1 4.84015 4.02914 -0.877402 17
251 1 2.52359 3.44265 -2.77733 19
252 1 1.31861 -8.33111 6.12574 17
253 1 -2.88022 -0.280395 -12.1002 14
254 1 12.551 7.07664 -0.877219 12
255 1 4.60848 -6.21035 -1.22894 21
256 1 3.02987 -2.54214 -11.1452 16
257 1 1.89134 -13.9803 -0.605038 20
258 1 3.26921 -10.2487 10.2166 13
259 1 -6.15911 0.431815 -8.12174 21
260 1 12.4206 3.79513 4.45843 15
261 1 3.68432 -2.09827 -7.49268 21
262 1 -9.86256 -5.8063 0.986494 18
263 1 13.3381 -1.94995 -2.49541 17
264 1 -5.07769 1.6899 -5.9865 20
265 1 -5.51992 4.04531 -8.34123 17
266 1 8.52833 -10.0732 -8.06213 11
267 1 4.79872 -0.0502122 -11.4802 11
268 1 9.81034 -7.58761 -5.92966 16
269 1 3.56148 -9.10537 1.16815 20
270 1 -9.0885 -6.23654 7.33494 12
271 1 -1.94746 11.3188 2.94494 10
272 1 -0.885263 5.61257 -6.73427 19
273 1 15.0066 5.6311 0.76506 10
274 1 -0.995798 -14.7667 -2.348 17
275 1 3.4365 -13.4184 -6.1884 17
276 1 4.91755 3.53305 1.77786 21
277 1 12.1525 -6.97071 -3.66194 12
278 1 6.54729 -10.841 0.793987 17
279 1 9.73676 -7.37407 1.67048 21
280 1 -6.90827 0.651158 11.1673 11
281 1 -6.88884 -7.06744 -0.870084 19
282 1 -3.18062 -7.04668 -6.18217 20
283 1 -0.744427 -6.96748 8.41333 17
284 1 6.49133 2.22987 -3.0234 19
285 1 -3.52471 6.77777 -7.28806 14
286 1 1.01984 11.7882 -2.38021 10
287 1 -1.33404 -1.22636 8.64521 20
288 1 -0.394875 -11.8323 -1.3501 21
289 1 9.15023 -4.38347 -6.67616 21
290 1 -10.8786 -8.84233 -1.93901 11
291 1 -5.18912 0.811747 -2.9724 20
292 1 -11.395 -8.52328 1.54457 14
293 1 5.6906 1.0676 -0.268895 21
294 1 5.82937 -11.5832 -7.20305 19
295 1 6.43839 -9.01353 10.4153 13
296 1 14.5033 -2.80946 -5.97066 8
297 1 -9.47217 4.77097 1.48177 15
298 1 6.98976 -9.48276 -5.29369 20
299 1 5.06234 5.90341 10.6125 13
300 1 -2.96505 -3.15048 -11.3845 17
301 1 7.49599 0.482672 -9.64928 18
302 1 -1.01954 -8.6654 -9.99847 18
303 1 -3.20072 -12.3739 -2.23373 21
304 1 12.6456 1.04825 0.719871 16
305 1 10.9197 -5.5995 -9.17698 16
306 1 10.2424 -12.5404 -2.79728 12
307 1 6.57391 7.89662 -3.33586 16
308 1 -9.18814 -0.354083 4.04977 21
309 1 12.2908 2.9701 -4.57182 13
310 1 5.17465 -7.22038 8.17406 16
311 1 7.92525 0.970789 5.8647 19
312 1 8.28012 1.85359 9.16435 18
313 1 -6.72637 -4.79213 -7.74198 17
314 1 15.0189 3.35502 3.29457 11
315 1 14.2974 -7.4656 2.18712 12
316 1 0.462439 -9.71543 0.635192 19
317 1 4.66953 7.44118 7.77771 15
318 1 7.3672 -2.0532 4.32794 21
319 1 -4.13768 10.5418 0.355724 16
320 1 -4.00532 -12.4399 -6.14824 14
321 1 -5.75229 0.00211992 -11.3411 17
322 1 -8.1481 -3.22802 -11.443 11
323 1 -9.66999 -0.727673 -2.41583 21
324 1 6.98726 -7.79851 0.971223 22
325 1 4.79275 -12.573 5.43534 14
326 1 2.5564 -3.57045 6.13556 19
327 1 8.68648 3.1443 -9.48453 10
328 1 9.80701 -2.3249 -3.96015 19
329 1 13.294 -2.10548 0.877996 18
330 1 7.18542 5.36515 2.92744 20
331 1 11.713 -3.97729 -1.78917 19
332 1 -2.51392 4.52866 6.9532 18
333 1 -10.0428 -11.3417 3.49095 9
334 1 -10.4266 -1.98439 -9.6689 12
335 1 5.73487 -2.75628 12.5011 9
336 1 -7.67143 10.1367 -0.0490466 9
337 1 8.1555 0.732496 2.70845 21
338 1 5.61333 -3.56009 -2.79127 21
339 1 9.37639 1.55695 -0.43889 18
340 1 -7.65568 -2.01526 9.10442 13
341 1 11.3076 -3.0492 -12.0558 12
342 1 -0.614347 -6.7935 -4.60976 19
343 1 7.76498 1.473 12.8484 9
344 1 9.31093 3.24368 4.95645 20
345 1 0.428628 -5.07571 11.9336 13
346 1 2.47599 3.95603 10.9096 17
347 1 -3.15948 1.19698 9.28516 21
348 1 -2.46528 1.36329 -4.15154 22
349 1 -3.58831 4.44849 -5.72812 20
350 1 9.75617 3.54998 2.12663 19
351 1 -3.12146 -4.39041 5.85988 21
352 1 1.80529 10.2232 -5.57678 13
353 1 -5.09567 -15.1007 -4.00109 11
354 1 4.36299 4.78794 4.50895 20
355 1 -5.82421 0.730743 4.82227 23
356 1 -6.33042 4.98647 2.43042 19
357 1 4.63255 6.13011 -3.90398 19
358 1 1.68463 1.41969 12.3121 11
359 1 7.39205 6.49116 5.59185 21
360 1 -6.61008 -0.809357 -1.17747 19
361 1 3.07027 -2.83575 -4.54365 21
362 1 -0.189732 1.24036 4.24456 21
363 1 4.94176 -7.26598 -4.08697 21
364 1 2.12715 7.04413 6.57249 22
365 1 -13.6382 -2.46441 2.08494 9
366 1 2.06901 -15.6052 1.86016 18
367 1 7.30637 3.07884 -6.73752 19
368 1 8.38262 -13.6952 3.54024 9
369 1 -1.33514 4.21853 2.48355 18
370 1 8.50081 -4.38456 -13.6521 10
371 1 6.88803 -6.5351 -6.67192 20
372 1 -2.48863 10.1866 6.3387 12
373 1 3.45155 -11.5849 2.97207 18
374 1 1.80491 -3.89114 -8.54058 21
375 1 -6.57531 -12.7945 -3.35137 16
376 1 -5.32282 3.18942 7.56364 21
377 1 12.9171 -1.85972 4.60105 16
378 1 -0.545625 9.31501 -3.38412 18
379 1 10.5848 0.296802 -10.7277 13
380 1 13.8884 1.87196 -2.55089 13
381 1 5.30732 3.13904 -8.32523 15
382 1 -1.22253 -3.85315 10.0365 21
383 1 -3.85447 -10.0343 2.98671 20
384 1 3.30504 -11.2699 -9.09896 14
385 1 -7.76026 7.48129 -2.72049 17
386 1 10.0251 6.65984 1.38081 17
387 1 -9.0296 -3.82379 5.35507 18
388 1 5.96904 0.109282 -6.24152 23
389 1 -0.0385375 -2.59562 13.7681 12
390 1 -9.85197 -5.50264 -3.7232 16
391 1 8.7332 -4.38417 -0.56619 23
392 1 -5.35071 -9.75339 -2.44685 18
393 1 14.4639 -4.85731 -0.0277021 12
394 1 9.72993 -12.9831 0.835479 15
395 1 2.28541 6.91295 9.87273 13
396 1 -4.16299 -0.602583 10.9007 15
397 1 10.0607 -1.44835 5.73056 23
398 1 10.4023 -6.47642 -1.33603 18
399 1 5.40436 1.97019 4.70188 19
400 1 5.51005 9.12539 5.76637 11
401 1 1.90515 -14.153 5.09398 17
402 1 -8.38066 -3.42097 -1.27268 21
403 1 1.21989 0.142768 14.8055 9
404 1 6.52676 6.85185 0.354183 19
405 1 10.4915 -1.92713 8.73142 16
406 1 13.4348 -5.70402 5.55392 14
407 1 10.2768 4.71774 7.63419 15
408 1 -5.3427 5.95316 -3.6265 18
409 1 1.43057 -13.6388 -8.84107 10
410 1 0.224572 -4.14317 -12.1401 10
411 1 -3.27257 -5.81538 8.32338 17
412 1 15.0249 0.40217 2.64525 10
413 1 1.60218 7.51168 -6.92962 15
414 1 9.75286 -6.2846 -12.1218 9
415 1 -6.6861 -15.0102 -0.693897 13
416 1 -5.03166 -3.8951 -5.80595 20
417 1 3.53388 -5.49275 -6.40216 21
418 1 1.98044 -12.5426 -3.36957 22
419 1 3.25582 -6.94716 10.8521 13
420 1 0.431319 -11.5794 5.91711 19
421 1 10.6717 1.69515 -7.57598 17
422 1 -5.54599 9.08145 6.35276 13
423 1 8.41307 -4.83299 -3.86007 20
424 1 -12.4094 -0.366635 -1.02641 13
425 1 13.0743 6.40484 2.30221 11
426 1 4.90366 1.63802 7.50732 20
427 1 -10.4244 0.48418 -7.5683 15
428 1 -1.62465 1.79623 -6.92799 20
429 1 12.449 -7.55697 0.122416 17
430 1 -9.17595 -8.52277 -4.97262 12
431 1 -6.09114 -15.6318 4.21801 9
432 1 14.3259 -4.49521 3.30333 14
433 1 -11.2529 3.23591 3.43444 11
434 1 1.45238 3.628 -7.52602 19
435 1 8.36422 -7.49542 9.44092 12
436 1 -3.74842 -8.14075 6.93864 19
437 1 -1.68133 -3.12518 -7.876 21
438 1 -4.0956 -14.0189 7.03833 11
439 1 8.62725 -4.20743 9.28859 14
440 1 2.96662 -16.3435 -1.05729 13
441 1 12.98 -6.4972 -6.77112 9
442 1 -4.71101 7.82308 1.1878 22
443 1 -6.84596 -2.40583 5.36722 21
444 1 -2.4818 -4.06466 -4.35609 23
445 1 0.438796 -14.6513 -5.51811 17
446 1 10.5296 4.92805 -1.38018 15
447 1 10.1465 -1.88559 2.63571 20
448 1 -1.93382 -11.9357 7.98152 13
449 1 6.77402 6.09639 -6.78796 12
450 1 8.77523 -1.04401 -7.00611 20
451 1 -10.6747 2.29424 -2.78045 16
452 1 2.35117 5.0261 -5.26995 18
453 1 7.86267 6.9416 8.73146 12
454 1 1.87077 7.65631 -3.33745 20
455 1 -0.785438 2.87268 10.9843 16
456 1 9.28866 3.76952 -3.56609 17
457 1 5.22167 -14.4841 3.73426 14
458 1 -6.27183 -5.86526 6.22431 22
459 1 10.4583 1.45602 7.20635 15
460 1 8.14764 -7.77941 -9.78874 13
461 1 0.606888 -3.71491 -5.92261 20
462 1 -8.82843 -0.126699 -9.87502 18
463 1 -0.791689 6.23839 5.21186 20
464 1 -2.01962 4.79126 -0.464331 17
465 1 -2.14929 -12.0377 1.3484 23
466 1 9.0738 -9.65593 -0.415175 22
467 1 6.01544 -3.28307 -11.8868 15
468 1 -8.41682 -8.71385 0.218811 19
469 1 -6.83415 3.70222 -4.60249 20
470 1 12.0916 -3.61218 6.85403 17
471 1 -8.77306 -9.15318 5.71323 12
472 1 11.1633 -4.39517 1.28779 21
473 1 -0.517983 4.30733 -10.6827 9
474 2 -10.5247 0.880218 -9.54139 12
475 2 -5.15001 10.0207 -3.35379 13
476 2 3.04932 -5.29477 -9.40007 21
477 2 -0.616528 4.51512 6.30149 18
478 2 -6.00317 -7.01092 -10.9684 13
479 2 2.90174 0.713775 13.9232 11
480 2 -8.36957 -1.42602 -0.998229 20
481 2 7.98011 -1.13603 5.91037 23
482 2 2.57504 -1.16924 5.77497 22
483 2 -3.43061 -2.78231 -5.76651 21
484 2 -5.06143 -8.15499 -8.24492 17
485 2 -5.43147 -1.07165 -3.27638 25
486 2 -0.393019 -8.836 4.80505 20
487 2 4.72935 0.927443 9.55832 17
488 2 9.47376 -6.41517 -10.2455 13
489 2 7.45281 -3.74935 1.0279 19
490 2 -7.97352 8.48914 -0.898061 14
491 2 14.3776 3.24703 5.24546 9
492 2 -12.6157 -3.96962 2.66849 15
493 2 -0.888767 -16.6001 1.67346 12
494 2 12.3856 -5.4593 7.28062 12
495 2 -8.33638 8.15551 4.86702 10
496 2 -7.02947 7.19055 -4.40499 16
497 2 1.47421 4.08476 3.52977 20
498 2 -2.72438 6.40399 5.9046 22
499 2 5.79849 -10.7655 -4.30678 20
500 2 -2.71743 0.0461534 -7.80346 24
501 2 2.84794 -12.7661 -7.88063 15
502 2 12.5903 -5.59594 -8.31794 11
503 2 -0.197068 -8.61842 1.81721 23
504 2 8.59113 7.98878 -3.61884 9
505 2 -1.00811 9.22783 7.20343 13
506 2 -2.99794 -8.82578 -6.73643 21
507 2 5.28111 -10.4649 10.0306 12
508 2 9.96685 -3.95535 2.8399 21
509 2 -11.476 -1.93675 -1.69852 16
510 2 10.7522 7.35687 -0.730643 13
511 2 8.06915 -13.9853 1.63686 14
512 2 0.490874 7.8083 5.55927 19
513 2 5.22367 4.51147 6.32688 17
514 2 4.4777 1.75232 -3.49798 21
515 2 -6.29865 -0.952587 10.0948 14
516 2 8.2141 -1.36286 -9.08603 19
517 2 -9.00575 1.01895 -2.84969 21
518 2 -8.13932 0.842187 7.96483 19
519 2 -8.91627 -12.1046 1.71989 14
520 2 0.577086 -12.1205 4.00407 20
521 2 -0.427295 -6.84125 12.4263 12
522 2 3.10227 2.05621 7.49448 19
523 2 -11.7189 0.38914 -2.61507 13
524 2 5.9197 -13.3757 -6.22712 13
525 2 13.2907 -2.01686 -4.57818 16
526 2 -2.82181 -11.5253 -0.354118 21
527 2 8.06233 -2.78473 -6.54964 21
528 2 4.15412 7.22491 9.53469 12
529 2 10.2249 -10.6884 -1.92477 16
530 2 8.67104 -1.96684 9.10099 16
531 2 -7.15418 -9.11466 2.06329 19
532 2 13.408 1.79315 -0.634081 14
533 2 3.84039 -14.5687 -0.918306 19
534 2 14.2135 -6.69579 0.352431 12
535 2 1.43668 1.54968 -2.86684 20
536 2 0.45949 -6.65029 -3.11068 18
537 2 -2.85229 -7.94486 -10.4271 15
538 2 -9.08967 -7.23593 5.3636 14
539 2 -5.40729 -11.5061 1.53595 17
540 2 -5.14999 -10.8047 -6.65117 12
541 2 -3.52494 7.55882 2.78454 19
542 2 -0.0336011 0.747898 -5.73287 19
543 2 13.9487 3.56227 -3.49913 10
544 2 1.02825 4.28711 -4.12351 18
545 2 -5.0832 1.12653 11.2128 13
546 2 -9.74442 2.96974 2.40987 16
547 2 -3.64568 2.9851 8.68023 19
548 2 -9.9566 3.56147 4.99855 15
549 2 -3.09243 2.29662 -5.61847 19
550 2 12.0245 0.272603 -6.64109 11
551 2 10.8085 -8.04357 -2.70067 17
552 2 11.2947 2.81573 3.3074 16
553 2 -0.425263 6.27472 3.26385 18
554 2 -4.01839 5.98805 8.40774 16
555 2 3.08987 7.59535 3.05873 19
556 2 12.4089 5.43582 -1.82808 15
557 2 -1.31397 6.71851 -1.08831 15
558 2 3.73048 7.15288 -7.14662 14
559 2 1.49969 5.28 10.0186 18
560 2 -2.72899 -2.29752 5.76647 20
561 2 1.63327 -4.11685 7.76805 19
562 2 6.1206 -3.66277 -9.87445 21
563 2 0.735222 -0.0922958 12.7282 17
564 2 6.83954 0.0754625 -11.5187 13
565 2 -4.68638 -12.2034 6.99523 10
566 2 -0.839439 -9.0484 -1.14745 21
567 2 0.356603 -7.14738 -6.60255 23
568 2 4.85736 -14.9327 1.75891 15
569 2 10.7187 3.81659 -5.25677 15
570 2 2.98208 -1.99439 -9.31992 19
571 2 -0.963266 6.3282 8.86799 19
572 2 -8.25003 -0.941459 -5.24528 20
573 2 3.86605 4.4014 -4.13201 19
574 2 2.57913 10.0528 1.5658 16
575 2 0.889445 3.41563 12.041 11
576 2 1.21363 -12.4876 -1.64639 18
577 2 7.04905 3.49529 9.37854 19
578 2 11.4957 -6.51002 1.60461 21
579 2 9.83076 1.44803 5.19985 20
580 2 -1.35854 0.198888 -11.1564 14
581 2 6.76591 -8.4092 8.61603 14
582 2 0.78996 -13.4938 6.52988 16
583 2 7.264 -9.37756 4.56426 17
584 2 -4.15779 7.4863 -4.41703 18
585 2 -3.53099 -16.1748 -3.39327 11
586 2 -2.81777 -2.41867 -9.15884 20
587 2 -0.210255 -14.0286 -7.5526 15
588 2 11.2434 6.29446 2.81489 16
589 2 -9.24631 -9.17241 -3.32172 14
590 2 -9.8452 3.39167 7.94112 13
591 2 10.6871 -3.81353 9.45075 11
592 2 -1.79793 -16.3338 -1.20007 13
593 2 2.52501 -3.76492 -6.56611 20
594 2 -1.11636 -2.79534 -11.5617 15
595 2 -8.8704 -4.53292 -10.6 11
596 2 -1.46178 -4.25628 11.8511 14
597 2 -5.80725 -6.05417 -6.26922 19
598 2 3.15671 -7.62415 -7.59699 18
599 2 9.49491 -4.18714 -8.56556 18
600 2 -5.24129 -6.42273 0.905755 21
601 2 5.36377 -5.1828 -6.93288 21
602 2 2.50162 3.55665 -0.944542 18
603 2 0.607884 -12.5671 -5.0143 22
604 2 3.37962 3.64809 -8.68124 15
605 2 6.59484 7.77594 6.99653 14
606 2 14.1268 -0.719349 3.70994 12
607 2 -11.6303 -2.51458 5.97032 13
608 2 -1.2669 -13.6516 2.28927 18
609 2 2.08594 -1.08629 -6.92016 17
610 2 -4.00008 1.51994 4.2351 18
611 2 -3.87637 -8.97959 1.09707 22
612 2 -7.74524 1.06323 4.47734 19
613 2 -5.56299 -1.09459 4.30046 22
614 2 -9.94174 -4.67478 6.96276 14
615 2 -1.33907 -15.9119 5.1229 13
616 2 -12.531 -1.57195 3.58008 10
617 2 -8.06566 -13.7895 -0.475988 13
618 2 -8.31536 -8.57922 7.44849 10
619 2 9.90181 -6.64633 8.26499 13
620 2 3.68699 9.76708 -4.88003 14
621 2 4.78719 5.80844 -1.56 18
622 2 11.1874 0.622558 -0.63194 15
623 2 0.066187 11.3418 -0.711918 13
624 2 -7.28881 -2.9038 -7.45573 20
625 2 -13.17 -1.01452 0.847996 11
626 2 3.33595 -16.8191 -2.76842 7
627 2 0.917029 -7.39868 7.52567 16
628 2 7.92182 -6.71252 2.42138 22
629 2 -5.27581 7.1151 -6.49592 14
630 2 8.37513 -1.18234 2.50261 20
631 2 2.55201 -2.16397 9.95476 17
632 2 -0.31514 -7.13867 -9.47288 17
633 2 4.5471 0.537775 5.57443 20
634 2 8.2966 5.04372 6.70095 18
635 2 -1.77245 -2.02527 13.0499 14
636 2 -8.14376 5.26541 2.81837 17
637 2 8.47065 5.95751 -6.25159 13
638 2 -7.37167 -11.0748 -3.88465 13
639 2 -6.38198 -3.75998 -4.24035 22
640 2 -6.74151 -3.97601 9.69775 11
641 2 7.21262 7.27511 -1.41121 16
642 2 0.0803778 -4.12713 -8.10965 18
643 2 11.1514 -1.11381 4.14095 19
644 2 11.2594 -6.40948 4.91821 19
645 2 -9.3163 -3.84302 0.459539 18
646 2 0.103689 11.1609 2.85566 11
647 2 -3.98655 4.85084 -7.67283 19
648 2 5.66014 -1.82826 -7.06416 18
649 2 -6.35284 1.22458 -1.38153 18
650 2 2.45268 -7.20582 5.19905 19
651 2 1.57212 6.07557 0.92243 16
652 2 -9.76926 -4.57045 3.64825 17
653 2 9.27518 -7.61594 -0.198506 19
654 2 -0.241382 -11.3359 0.9521 22
655 2 -5.54672 5.2978 4.00143 20
656 2 2.25512 -10.1356 2.4604 20
657 2 -11.045 3.62503 -4.16003 14
658 2 4.95401 -11.4532 1.59771 15
659 2 9.54115 6.04634 8.72842 11
660 2 3.45282 1.03788 -10.2937 12
661 2 -1.10704 5.49795 -9.2346 11
662 2 9.31156 1.15519 -9.64619 14
663 2 -4.00272 8.31298 -0.471893 18
664 2 -3.63628 -2.31012 10.5116 18
665 2 -5.12794 -9.4425 6.82544 17
666 2 -2.26962 -10.9789 3.4327 20
667 2 -11.3661 -4.77599 -2.15217 13
668 2 -2.83328 -8.05516 5.14623 16
669 2 -0.31873 7.34411 -3.77139 24
670 2 7.47017 -8.9699 -2.34938 21
671 2 -0.328527 -1.86989 10.2311 22
672 2 -9.33157 -3.60202 -3.03651 16
673 2 7.72379 -2.82486 -12.6755 14
674 2 9.91196 2.93714 -1.94302 18
675 2 5.88213 6.10849 4.15148 22
676 2 5.95578 -6.49536 -0.195606 20
677 2 -8.25444 -6.87216 0.486869 17
678 2 -3.63754 11.4406 -1.56694 12
679 2 0.785764 0.353502 8.25976 17
680 2 1.53112 -16.6083 0.291295 13
681 2 -2.10553 -13.9233 7.38555 12
682 2 -2.52254 -0.461276 -4.33609 21
683 2 3.60673 -6.36945 7.93055 15
684 2 9.49264 3.24243 -7.54023 12
685 2 4.78241 11.7521 0.942903 8
686 2 8.8043 -11.7899 4.00486 12
687 2 9.32765 -12.4713 -4.34048 13
688 2 2.3575 2.23088 -6.02065 20
689 2 5.29161 -6.65171 4.15265 19
690 2 5.812 1.67204 13.1673 11
691 2 1.71737 2.03528 5.17789 22
692 2 10.236 -3.40919 5.90616 25
693 2 4.63218 -1.99352 -11.632 14
694 2 13.159 -4.46533 -6.09909 12
695 2 -7.74308 8.90655 1.76269 10
696 2 4.75873 -10.3405 -8.36288 17
697 2 1.30116 -1.82103 14.899 9
698 2 -8.08791 4.86137 -5.92084 16
699 2 8.417 -5.69745 -2.03027 19
700 2 8.10727 6.99338 1.78647 20
701 2 14.2969 4.94488 2.4002 11
702 2 15.0069 2.18043 1.82389 11
703 2 -11.5861 -1.94987 -4.77229 15
704 2 -4.92257 4.165 -4.07534 22
705 2 -8.03669 3.54187 -9.20212 13
706 2 -6.44349 -3.78039 -1.13955 20
707 2 12.4678 1.24075 -3.84963 15
708 2 -9.39935 5.62177 -0.0936212 14
709 2 -0.549021 -8.95844 9.78561 14
710 2 4.59491 -1.77866 13.7355 12
711 2 3.65379 -12.7553 -4.33452 20
712 2 2.83068 -10.1999 -10.5505 13
713 2 2.82082 11.85 -2.00682 9
714 2 4.90222 7.79681 0.736234 18
715 2 -7.84235 -6.20001 -8.41168 13
716 2 -6.08175 -14.6635 -2.48201 12
717 2 10.8273 -4.83318 -0.379022 20
718 2 -6.00421 6.49014 1.0214 20
719 2 6.62474 -13.368 4.67869 12
720 2 8.33667 -10.6003 1.1953 22
721 2 -5.30607 -6.41843 3.5694 18
722 2 -0.92677 -9.11138 -4.52655 19
723 2 2.53285 2.11828 10.6476 18
724 2 0.759579 9.17211 -6.64426 16
725 2 -6.95875 3.92869 6.70365 21
726 2 5.64503 -0.581179 0.999026 20
727 2 -5.3719 -8.97278 9.43679 14
728 2 -3.44518 10.5903 2.04527 15
729 2 0.0817416 -14.8262 -0.400357 19
730 2 -2.6006 -7.95063 8.36608 18
731 2 8.44974 0.704363 10.7658 14
732 2 -6.5626 2.99731 1.64536 19
733 2 -0.773275 8.82477 1.076 18
734 2 -0.293725 -2.2199 7.29057 23
735 2 -0.525367 -10.3601 -7.09878 17
736 2 11.9429 -5.24284 -3.20609 17
737 2 9.05322 -9.55654 -5.12302 16
738 2 -6.33696 6.4662 -1.92498 20
739 2 -2.22091 0.500951 11.053 15
740 2 -8.38999 0.29995 -7.95218 21
741 2 9.98855 -3.9027 -4.93901 21
742 2 8.26937 -0.94485 -0.764111 20
743 2 -3.72788 -3.80576 8.02691 17
744 2 -1.24547 -5.22102 5.85776 23
745 2 0.782508 2.82968 -10.649 12
746 2 -11.1904 0.990004 -5.71179 16
747 2 -3.56236 -4.96962 -11.0288 14
748 2 -1.43457 3.90959 -2.29083 18
749 2 -6.28878 -3.76697 -12.3154 13
750 2 6.84404 -6.38312 -9.07919 19
751 2 -3.77833 -9.01417 -3.24071 18
752 2 -1.55626 -11.4717 6.13241 18
753 2 -6.19987 1.69405 -4.71563 21
754 2 4.22466 -3.80919 5.97792 21
755 2 4.3714 3.20975 3.70286 17
756 2 11.5687 -7.05874 -5.41829 14
757 2 1.28176 -15.8038 3.59002 15
758 2 6.76476 1.97705 7.16 21
759 2 -3.94351 9.20204 7.02229 12
760 2 -12.1522 -7.53153 -1.71725 9
761 2 8.97531 1.78282 1.36434 20
762 2 4.32464 -10.7233 4.55776 19
763 2 -5.44463 8.71036 4.46717 17
764 2 7.90679 0.503229 -6.49889 17
765 2 6.74034 1.03212 3.92871 18
766 2 -11.9046 1.86814 2.43687 12
767 2 1.07724 5.47068 -6.92738 16
768 2 -5.92309 -0.774349 0.641313 20
769 2 10.163 -4.44597 -12.7188 12
770 2 -5.97825 -1.86794 7.4063 20
771 2 -0.727796 2.80683 8.96653 21
772 2 12.6549 1.82784 6.9859 12
773 2 11.7033 -3.19552 -10.1014 13
774 2 -8.66949 -6.65459 -4.85765 14
775 2 2.20922 -8.8565 -0.107902 18
776 2 14.0832 -2.37461 -7.75385 9
777 2 -4.10873 4.51756 -0.624291 20
778 2 0.45056 -12.0947 -9.68103 12
779 2 -7.6652 2.32719 10.8132 11
780 2 -6.29424 -3.45647 2.06083 20
781 2 9.40724 -13.3997 -1.13682 14
782 2 -1.94236 -16.3357 -6.24403 8
783 2 -1.44594 -12.8927 -2.35693 19
784 2 11.3456 -2.232 0.937101 20
785 2 -2.24167 3.19907 -10.3417 15
786 2 1.78469 5.17045 6.98376 20
787 2 -0.842987 -14.9759 -4.11588 16
788 2 5.03888 -1.65688 8.02829 19
789 2 -1.85598 4.32936 11.1818 14
790 2 -3.65365 1.85523 -2.48383 21
791 2 -5.51982 3.6501 -10.7192 11
792 2 2.33875 -14.992 -5.659 12
793 2 -8.90363 -10.8207 4.7326 10
794 2 -9.54927 6.6256 -2.87967 11
795 2 5.67458 2.14693 -6.36001 17
796 2 -0.517538 2.99836 -7.84763 19
797 2 4.2967 2.396 0.527924 16
798 2 0.132785 -9.15714 -11.435 12
799 2 2.8913 -9.63009 -5.78694 21
800 2 -10.1105 -1.98728 -7.78575 15
801 2 10.8563 4.46954 5.4427 17
802 2 -4.08487 -1.58876 -12.4114 13
803 2 -11.077 -10.1007 2.4171 10
804 2 10.6916 -0.345966 7.86228 18
805 2 7.52643 3.42095 12.1845 11
806 2 12.0173 -0.19217 -9.7115 11
807 2 -2.00525 7.53723 -6.75314 16
808 2 -1.75733 9.85577 -1.97089 19
809 2 14.0 -0.298946 1.04734 12
810 2 -5.3528 -0.862652 -6.78472 22
811 2 5.88029 7.21304 -5.11461 16
812 2 1.35663 -3.26522 12.5054 17
813 2 -2.53257 -5.67949 -7.71169 21
814 2 -6.13462 -6.69365 -2.79778 15
815 2 6.23427 -1.52098 11.2011 17
816 2 -3.18604 4.15163 2.50436 18
817 2 12.8291 -8.55656 2.64797 11
818 2 7.47837 -9.58867 -9.6078 12
819 2 1.56198 7.75628 8.39168 15
820 2 5.07408 -8.79092 6.77814 21
821 2 -2.08615 5.45801 -5.01143 18
822 2 3.83078 8.1383 6.23498 18
823 2 -5.64992 2.14676 -7.78264 20
824 2 4.92001 8.86823 -2.51449 16
825 2 -7.74908 -8.92615 -6.37794 12
826 2 7.96335 -6.2077 -12.8246 12
827 2 -4.12139 4.00734 5.88228 17
828 2 13.6217 -3.22534 -1.22904 15
829 2 -1.9179 9.91346 -4.97186 13
830 2 -8.63751 -1.7336 5.50198 23
831 2 -5.02477 -13.2867 -4.65983 13
832 2 6.92767 5.97266 10.1962 14
833 2 -2.47542 -12.9835 -7.25659 14
834 2 -7.67594 1.02416 -11.41 14
835 2 -0.622362 -2.14891 -6.48245 19
836 2 1.98845 -3.99201 -11.7731 13
837 2 -6.33321 7.44438 7.12785 17
838 2 -7.46789 5.13954 9.33314 14
839 2 1.06456 10.3232 -3.60152 15
840 2 -5.12037 -15.7411 -0.305777 12
841 2 9.99499 -1.53087 -11.4012 14
842 2 8.52891 -6.17107 -5.6286 16
843 2 -6.8849 -14.221 3.15155 13
844 2 -7.98359 4.01826 -3.10901 19
845 2 -5.47865 -10.9389 3.91012 15
846 2 0.667968 -0.0772968 -9.61541 16
847 2 4.15411 -10.0162 -2.17804 17
848 2 4.28337 -12.2767 7.29018 16
849 2 9.53117 2.81044 8.22427 16
850 2 7.80139 -5.68462 10.2428 13
851 2 -4.369 -5.79765 6.65407 20
852 2 6.97067 2.3481 -9.01724 14
853 2 4.56656 4.24755 10.726 16
854 2 -2.82652 -6.11303 -4.43483 22
855 2 -9.32333 -11.426 -0.910462 14
856 2 -4.83639 -15.2191 5.77173 9
857 2 -8.3542 -1.32976 2.57265 17
858 2 -4.02167 1.01641 -10.9922 16
859 2 -10.569 -4.83925 -5.44558 11
860 2 -2.16941 10.2185 4.51067 13
861 2 8.13963 -6.18332 5.7991 18
862 2 8.59703 4.29349 3.38345 20
863 2 -4.18488 -13.9456 1.27354 16
864 2 -11.062 -6.82401 2.2928 14
865 2 -10.8276 0.656046 5.58219 16
866 2 -1.44411 -5.36681 8.90015 21
867 2 1.99706 -5.62723 10.9953 16
868 2 3.67297 -13.6568 4.51121 18