ITEM: TIMESTEP
10000
ITEM: NUMBER OF ATOMS
2000
ITEM: BOX BOUNDS pp pp pp
-30.0 30.0
-30.0 30.0
-30.0 30.0
ITEM: ATOMS id type x y z Coordination
1 1 -7.76214 1.63197 -13.3996 16
2 1 -1.8976 -15.685 -7.86253 9
3 1 6.09275 10.3296 10.7993 15
4 1 11.07 -9.01864 8.87244 13
5 1 -11.2409 8.35587 -5.26318 16
6 1 15.8231 -8.31968 -12.642 6
7 1 -15.1052 1.5525 -7.04431 7
8 1 1.26505 -6.35092 12.1678 11
9 1 -7.74211 -0.774158 -10.329 23
10 1 -12.2807 -8.13239 2.29102 18
11 1 12.1108 1.56257 -14.5278 9
12 1 -1.3053 -11.9008 0.933794 19
13 1 -16.1922 -7.15938 3.11064 7
14 1 0.732751 6.5639 9.73426 17
15 1 -1.95948 2.58837 8.28987 21
16 1 0.104794 8.01189 -10.2658 21
17 1 2.80688 -2.57703 11.4497 19
18 1 -9.62525 1.66159 -10.3263 18
19 1 -10.7853 -1.38835 10.233 12
20 1 18.4678 2.99488 4.0694 10
21 1 3.42044 9.71246 -10.415 17
22 1 8.07658 6.10769 -15.6683 14
23 1 18.8651 -1.91097 8.93381 12
24 1 -10.1043 4.23568 -8.09383 20
25 1 -7.07468 11.158 9.73512 15
26 1 8.38761 -13.231 5.48968 12
27 1 6.86962 -15.2409 -10.1131 9
28 1 11.6806 -10.74 0.848794 17
29 1 -5.69531 -14.6199 -4.35951 14
30 1 -7.71055 -9.68808 11.4015 10
31 1 1.47744 -8.61519 -15.1275 12
32 1 12.776 -11.9339 -11.5155 13
33 1 -1.40097 8.05893 -13.1979 17
34 1 -1.22804 6.32495 11.4589 19
35 1 1.73727 -11.2937 6.42855 22
36 1 13.2313 -2.19585 11.996 17
37 1 -8.22131 0.00811517 0.28997 24
38 1 -11.7762 2.1693 10.5012 12
39 1 -1.52815 11.5755 -5.70848 23
40 1 0.772067 -13.4451 -8.15618 18
41 1 1.75913 1.71806 -12.6934 25
42 1 5.44843 -7.91527 -12.2974 21
43 1 -1.47685 -3.42611 8.38714 21
44 1 -10.7046 8.74127 -0.124668 16
45 1 7.89422 11.6306 -11.418 13
46 1 5.09279 14.3227 6.94899 17
47 1 -5.1404 7.68111 -7.81412 22
48 1 4.42375 12.0007 -4.78904 22
49 1 5.25333 -11.9024 0.13429 19
50 1 6.98376 -6.92267 -7.08476 20
51 1 10.8965 -7.53037 -19.3974 12
52 1 -4.46192 9.80187 9.16938 15
53 1 -13.0153 -6.55052 -8.49634 6
54 1 -6.75098 8.60423 -5.364 21
55 1 -3.03545 -8.78582 6.17033 18
56 1 -1.38225 14.2841 10.913 6
57 1 -11.7465 6.92747 -8.36913 16
58 1 -1.70454 9.65012 11.2358 21
59 1 -1.81103 -15.076 5.05136 19
60 1 7.237 -12.5558 -2.33982 19
61 1 7.97434 8.67948 13.161 14
62 1 -12.5025 0.585177 -9.93105 12
63 1 -9.50962 8.22258 -10.6426 13
64 1 4.72022 2.78211 8.86135 22
65 1 11.5644 -7.92414 -12.4678 16
66 1 12.1359 -10.168 5.98327 11
67 1 -12.9593 -2.89815 0.373774 13
68 1 7.20088 14.5183 2.79973 16
69 1 4.52585 -5.1225 11.8299 13
70 1 -3.07898 -18.9327 -1.20591 10
71 1 13.0319 -0.530087 8.8784 21
72 1 4.39088 8.15524 9.25627 20
73 1 -0.91888 -6.41444 -10.3158 21
74 1 -9.68171 14.6716 5.0974 8
75 1 -6.65589 10.5094 -3.61199 20
76 1 1.80778 4.9575 -10.5183 20
77 1 13.39 10.8924 -7.77988 14
78 1 10.4586 -5.91307 3.62558 24
79 1 9.61258 -5.82488 9.27643 19
80 1 -0.0890482 14.6708 -5.44991 18
81 1 -9.20302 8.00902 2.34054 17
82 1 -6.48073 -2.71819 11.1981 20
83 1 -3.99894 8.81321 4.91299 20
84 1 -0.227531 -6.24325 8.6422 21
85 1 15.1122 -8.31586 -3.50218 11
86 1 -7.17258 2.96415 5.26383 21
87 1 -9.82381 -12.5305 2.98915 12
88 1 10.3967 -8.83825 -4.44859 20
89 1 6.8335 -1.34432 -12.7432 21
90 1 -4.79981 -4.10817 -17.0927 11
91 1 1.20844 11.3988 -0.496072 18
92 1 -3.62095 7.88571 -10.4791 24
93 1 2.47443 9.28815 14.7255 12
94 1 1.36715 11.4903 -5.83717 20
95 1 -10.0154 10.5519 2.83877 13
96 1 -0.982154 -10.0593 8.3392 17
97 1 14.4453 -3.46583 9.11566 19
98 1 10.9887 -7.60717 -15.9805 18
99 1 6.31161 -1.97611 11.9531 19
100 1 -6.45974 -7.33955 -2.6761 22
101 1 -5.08128 -7.96934 -5.8689 23
102 1 12.0 -9.04895 3.23887 17
103 1 10.0492 -1.57559 -13.645 17
104 1 7.17232 20.0748 -1.33861 12
105 1 -6.19297 -17.0265 5.14305 9
106 1 -6.73364 -12.7493 3.14196 21
107 1 14.2221 -10.5646 -14.4132 12
108 1 12.7668 -9.26185 -1.50197 14
109 1 0.590196 -12.9783 8.89336 14
110 1 -6.73276 -8.76459 1.06137 17
111 1 17.4964 3.51633 8.77276 15
112 1 17.0599 -2.03201 -10.7835 10
113 1 -13.7329 -5.44747 2.00004 13
114 1 11.1976 8.38238 2.35975 19
115 1 16.8927 7.93226 7.54224 15
116 1 -0.955373 -0.988567 13.9333 10
117 1 0.478401 9.80474 9.19717 18
118 1 -3.30161 13.4264 -8.23083 15
119 1 2.7257 -5.871 -10.0751 21
120 1 7.39736 -13.7174 -11.9893 10
121 1 3.83055 15.8652 -11.2151 9
122 1 14.3617 0.562971 12.0486 16
123 1 -0.331268 -0.340424 -15.5859 21
124 1 -0.1457 10.6121 -8.77089 18
125 1 15.3435 1.76437 -7.06453 21
126 1 -12.1186 11.7649 -6.04737 8
127 1 -3.36047 15.0264 -5.13067 15
128 1 8.50481 1.84577 -12.7601 16
129 1 13.5425 -7.96506 6.51482 14
130 1 -3.11806 2.23491 -10.1505 20
131 1 -4.04594 14.2734 5.59911 13
132 1 14.6018 4.19755 -9.43822 16
133 1 8.40407 12.204 -5.22622 18
134 1 -1.41228 14.891 -0.0693994 16
135 1 12.5821 11.0049 -1.97277 22
136 1 -1.9238 13.5127 -2.73519 21
137 1 5.14727 16.2639 -8.79304 14
138 1 4.17554 9.31575 -13.2662 21
139 1 -12.6521 -12.6776 1.0233 8
140 1 -9.91497 10.5788 -3.48974 19
141 1 -1.34123 -4.08259 -12.785 19
142 1 5.13167 -5.89077 -15.0527 20
143 1 12.8768 11.5625 8.12349 12
144 1 0.768448 11.6022 5.42202 21
145 1 -9.59388 -3.11408 -4.45539 24
146 1 -10.0743 14.6514 -0.848145 10
147 1 15.0815 -0.716995 -4.57314 22
148 1 -8.68141 4.69268 -10.6673 16
149 1 8.27212 -2.58938 14.6478 13
150 1 6.16892 14.8909 0.536292 16
151 1 -0.277607 8.65186 4.80354 21
152 1 7.22117 -7.61591 -19.7671 11
153 1 1.82731 12.4649 8.03894 19
154 1 -4.88664 11.5183 -10.2058 17
155 1 5.11017 -3.34605 8.38984 19
156 1 -9.71534 -6.72576 3.08634 20
157 1 -1.63204 -8.79877 -13.0953 17
158 1 -7.08169 14.179 -9.5075 9
159 1 -1.44645 -9.45272 3.28425 22
160 1 11.891 -14.9685 -2.76631 7
161 1 -1.82481 10.5356 -11.2177 20
162 1 -11.1173 4.62078 12.4079 11
163 1 13.4872 8.83733 -4.77914 16
164 1 -3.65755 3.58292 11.3218 22
165 1 1.67432 -9.36909 8.77859 14
166 1 3.72258 13.9498 2.53682 21
167 1 1.63316 8.41968 7.21106 20
168 1 16.479 7.26292 12.7046 11
169 1 -4.13932 15.4415 -1.01385 12
170 1 16.7779 -4.52672 -6.64208 8
171 1 0.603385 11.3003 12.6415 12
172 1 13.5526 -7.79784 1.0843 14
173 1 -12.0905 -0.281505 4.65444 14
174 1 -6.82503 -6.64845 3.26208 19
175 1 7.80034 7.20074 10.4102 19
176 1 -13.2065 -0.456654 -2.30618 12
177 1 -0.0614833 -13.3844 -2.5124 20
178 1 -0.969615 10.5636 2.58843 21
179 1 7.51247 14.9209 8.59092 10
180 1 -2.83154 12.4359 -13.688 8
181 1 -12.702 -2.7316 -10.0298 13
182 1 -7.93708 -3.3825 8.80846 21
183 1 1.99434 -9.4473 3.47532 20
184 1 7.31408 -12.3102 9.09578 8
185 1 -8.95259 13.4021 1.84443 15
186 1 16.374 5.78553 2.74286 18
187 1 -3.15737 -6.15361 -14.1626 20
188 1 6.50422 -0.236344 8.64411 22
189 1 9.6981 -15.086 3.47459 10
190 1 2.94038 11.6856 -14.2271 13
191 1 11.4583 -12.7051 -13.5144 9
192 1 16.2405 -2.55067 -14.2094 4
193 1 2.27254 3.2046 -18.3989 19
194 1 -2.69005 -3.4551 -10.0554 23
195 1 1.72065 13.3714 -8.49925 20
196 1 -5.67791 -14.6144 8.14267 13
197 1 3.47089 17.5406 -1.19099 17
198 1 -5.07306 2.10721 14.255 12
199 1 -9.435 13.3523 -8.25703 11
200 1 9.83803 -0.167485 8.64546 20
201 1 6.768 -8.79043 -15.1491 20
202 1 -3.43959 9.83969 -8.21091 20
203 1 5.17609 4.8434 -17.7673 14
204 1 -5.54771 -12.3164 10.8555 11
205 1 -10.5319 9.11487 5.35792 10
206 1 -7.32357 5.26574 8.49518 21
207 1 6.17137 -16.174 -6.81197 10
208 1 -6.09436 -16.4295 -0.752605 10
209 1 13.0465 -7.45826 -5.12746 21
210 1 11.0066 8.05461 14.5401 13
211 1 8.23224 5.90557 -10.3851 19
212 1 -0.47248 10.9508 -3.08658 21
213 1 -8.59924 2.05773 2.91467 22
214 1 -11.1282 13.3375 -3.72634 10
215 1 3.18994 5.51202 8.62313 19
216 1 5.4191 -15.322 -1.90355 18
217 1 13.3557 -0.673329 -1.69499 22
218 1 -7.48248 5.00659 2.91945 22
219 1 -10.2681 -7.00795 -6.81578 16
220 1 8.48411 -0.396116 -16.8929 12
221 1 3.40931 -0.818473 8.45763 21
222 1 9.24034 9.01899 -10.3892 18
223 1 7.21112 -8.86371 -4.43677 21
224 1 0.663765 -1.31474 -12.7147 23
225 1 1.25 -20.1474 5.07789 7
226 1 10.144 -1.03933 -7.32015 21
227 1 -10.0737 -2.02847 6.53925 20
228 1 6.76168 -14.0446 -4.47131 18
229 1 -9.8749 -8.74383 -9.69425 10
230 1 7.56908 14.4034 -3.06256 20
231 1 1.68212 -2.48614 -17.096 14
232 1 9.62995 5.63701 8.1519 21
233 1 16.6477 3.74518 0.0704693 13
234 1 12.7316 -2.3786 -14.7279 14
235 1 -5.96891 -1.45172 -13.1411 20
236 1 -13.7809 -1.50361 -7.68168 13
237 1 -1.54938 -19.5952 1.93371 10
238 1 11.9834 -5.11688 6.57331 21
239 1 -1.30789 -11.5441 -12.0956 12
240 1 2.03905 7.18659 -12.9227 21
241 1 -3.11013 -8.97926 0.946801 19
242 1 3.10212 10.6363 -2.92164 23
243 1 -8.1787 0.938166 11.5419 17
244 1 -6.91353 -6.9665 -8.13912 19
245 1 -4.3031 -4.02474 -12.6506 19
246 1 4.3213 10.0737 -16.6678 11
247 1 -4.26519 -11.3782 -11.3984 10
248 1 12.3306 -4.71766 -17.7824 10
249 1 14.9395 0.474965 -10.1686 16
250 1 11.4809 2.42376 3.26263 21
251 1 -9.51329 -6.246 10.3857 12
252 1 -1.41601 -10.1095 -1.92397 20
253 1 10.0416 0.746914 14.606 15
254 1 -9.71658 -12.326 -1.46558 13
255 1 2.09764 -11.5775 1.07982 22
256 1 0.70701 17.2953 -0.673287 12
257 1 5.35748 -0.359943 -15.7546 21
258 1 1.1221 -11.9588 -15.0022 8
259 1 -8.40506 -12.2631 9.5736 10
260 1 1.8745 5.60046 13.0416 20
261 1 5.63535 -9.61586 -1.77907 20
262 1 -1.91739 -13.6318 -9.91096 8
263 1 -8.27078 7.20343 -8.02724 23
264 1 13.0181 3.76524 5.87655 19
265 1 -4.71245 1.24252 -14.5508 17
266 1 5.0281 5.36125 -10.746 19
267 1 10.4594 -14.306 -10.6873 9
268 1 -0.144915 17.8857 -6.21987 11
269 1 4.82249 11.8754 5.29025 20
270 1 11.3433 0.867936 6.13422 20
271 1 -8.52484 0.0149168 5.55809 20
272 1 -1.06181 -4.67347 11.8232 17
273 1 -7.19493 8.82578 4.65609 18
274 1 8.30247 -6.20306 -15.891 21
275 1 15.1949 10.995 -3.98649 16
276 1 8.45048 -11.3282 0.950124 20
277 1 3.61479 0.578627 14.1603 17
278 1 -12.7482 -3.40989 6.31598 9
279 1 8.49774 -15.4932 -1.72126 12
280 1 -5.00436 9.68497 12.1421 16
281 1 -8.66626 9.17282 12.2522 9
282 1 -11.5252 -6.97182 7.68872 9
283 1 -11.1471 -9.01835 5.03779 13
284 1 12.4616 -2.43956 -4.01806 20
285 1 -8.93673 -9.41623 7.71396 16
286 1 9.12867 -5.64409 -10.2088 18
287 1 11.5867 -12.9857 -5.44762 13
288 1 6.91502 17.4691 -2.54843 16
289 1 -10.3075 9.8237 -8.00738 18
290 1 10.0449 6.35834 12.4139 21
291 1 -10.1268 -0.518242 2.90115 20
292 1 9.15075 -9.48162 -1.64545 24
293 1 -3.74481 10.603 2.38762 21
294 1 8.15181 -8.61161 9.59972 16
295 1 15.674 -5.57091 0.170563 12
296 1 -0.826411 5.41332 8.1231 22
297 1 2.59637 6.72001 16.2394 9
298 1 -5.05953 13.6719 1.81679 17
299 1 11.6966 5.10332 14.6864 20
300 1 -4.52021 11.5652 -6.19689 21
301 1 1.37207 0.153696 -18.8084 18
302 1 10.4109 -2.96029 -16.0921 17
303 1 -2.56909 9.70547 14.7129 9
304 1 -12.1949 1.74089 1.94626 12
305 1 -3.6229 8.72057 -0.076451 21
306 1 9.95671 -2.08065 6.41234 21
307 1 -7.51315 -11.7879 0.406283 19
308 1 8.1168 -5.00179 5.85978 23
309 1 -5.48686 -9.83819 8.95678 20
310 1 -8.51453 11.5532 -0.431991 23
311 1 -0.0191051 -0.37006 8.26144 23
312 1 7.28816 -10.6646 -12.5889 14
313 1 -2.58553 -1.3297 -12.888 22
314 1 9.0707 -4.67827 -18.3781 14
315 1 4.22901 11.6375 0.506122 21
316 1 -8.13561 -0.433443 -5.36826 21
317 1 6.37357 -10.705 -17.5317 10
318 1 13.0072 2.54191 -11.0581 13
319 1 -4.86432 -11.7219 -4.97724 21
320 1 -8.13413 -6.47362 -10.9323 15
321 1 13.4055 1.77011 14.1991 12
322 1 15.2468 6.16679 -4.36631 20
323 1 -6.1625 5.58935 -12.4666 14
324 1 5.02089 16.82 3.54755 12
325 1 -11.7511 -5.80351 -5.02544 13
326 1 -5.96932 6.2351 5.43604 18
327 1 -5.35968 11.448 -0.763297 20
328 1 -4.52052 5.45276 7.49472 19
329 1 12.2184 3.85872 12.1042 21
330 1 12.0349 -3.74794 -6.83447 18
331 1 8.04736 -4.60515 12.2089 15
332 1 18.1579 2.51542 -8.00493 11
333 1 -4.83699 -13.7672 -7.52914 11
334 1 2.5572 11.0879 2.8787 23
335 1 -8.29671 1.29072 -7.65837 22
336 1 9.04946 -15.3985 -6.54531 10
337 1 14.6747 1.12534 5.98459 20
338 1 -6.52861 -1.74845 -7.88626 20
339 1 -4.91503 -10.0414 3.48862 20
340 1 -7.0037 -6.49949 8.79102 19
341 1 -1.36966 12.2172 0.0409025 15
342 1 -12.6388 -7.79931 -1.41587 10
343 1 11.011 6.49213 17.4838 11
344 1 -8.67805 7.9647 -2.50576 22
345 1 -0.949285 13.4773 -10.898 12
346 1 5.99197 11.2638 2.50224 23
347 1 -12.1994 -10.3601 -0.0769427 13
348 1 2.00804 -9.89005 -7.17261 22
349 1 -11.1701 0.980643 7.85122 13
350 1 -13.9048 6.72971 -5.53842 10
351 1 5.06447 -9.33239 4.19583 19
352 1 -2.63349 -14.5018 -5.15326 19
353 1 11.7725 9.26126 10.1463 19
354 1 10.2437 7.23382 -12.8089 15
355 1 -13.2316 4.25944 -8.05353 12
356 1 3.08745 14.2499 -5.87561 18
357 1 -6.89652 4.53367 -7.81678 25
358 1 0.250045 -12.6052 3.64841 21
359 1 14.5086 8.37594 3.03615 19
360 1 2.15015 7.04013 -17.8505 15
361 1 -10.4411 2.57057 -0.15928 20
362 1 -1.6643 -15.8477 2.10093 18
363 1 10.2896 -4.64159 -13.1407 20
364 1 -10.2 2.86177 5.4711 16
365 1 -10.8828 -4.31183 8.98129 13
366 1 -6.49511 11.0163 6.81685 16
367 1 -10.8144 2.13906 -12.9623 9
368 1 9.9818 -9.0258 -10.1521 15
369 1 0.925302 -9.22428 -10.5287 18
370 1 -4.35029 -3.85398 8.56218 21
371 1 -2.37484 2.94873 -15.5609 20
372 1 10.4228 -11.8252 3.42757 14
373 1 6.65487 14.6784 -11.293 10
374 1 -6.62892 15.2584 3.74084 14
375 1 6.21452 2.17757 17.7777 8
376 1 -9.67793 -7.4527 -13.2794 5
377 1 -6.11592 -8.4476 6.2778 19
378 1 15.5363 -4.99451 6.16848 15
379 1 13.9094 -5.57363 2.96989 18
380 1 17.8001 9.68458 -2.26458 9
381 1 -1.64535 0.598751 10.1646 19
382 1 5.8626 10.6326 -7.53476 20
383 1 3.60836 -14.4877 -4.48625 18
384 1 -2.00939 3.64887 13.8175 15
385 1 2.12407 14.52 5.31388 16
386 1 -6.52528 -9.48804 -10.7904 17
387 1 11.5218 13.8653 3.13843 14
388 1 7.98066 6.44902 6.20148 24
389 1 -5.96901 -1.09059 9.08482 17
390 1 -2.45963 -8.99143 -4.9216 23
391 1 -8.42889 3.00921 14.4808 12
392 1 -8.14301 -4.14679 -7.34886 19
393 1 -6.98128 14.8983 0.448253 14
394 1 -0.937877 -10.2007 -7.4596 16
395 1 -1.86992 -8.45601 -15.8356 10
396 1 -4.72042 -11.3444 -0.199472 20
397 1 9.84799 3.52968 5.27118 21
398 1 -3.41074 -2.18469 11.05 23
399 1 -4.97786 4.78939 -10.1299 22
400 1 11.1929 6.29674 0.277647 21
401 1 -6.27179 -13.3564 -1.77365 20
402 1 5.86013 20.0409 1.61889 11
403 1 4.57979 10.5389 7.92362 21
404 1 -9.96193 -0.814034 -2.28088 21
405 1 3.82726 20.3927 -1.255 12
406 1 10.6147 12.1773 -9.91455 13
407 1 -4.49253 -6.38838 -10.7992 20
408 1 6.34386 2.66775 14.752 17
409 1 4.49681 -13.5653 -13.3364 9
410 1 2.70633 0.0599674 -15.2515 24
411 1 7.39821 -14.4552 0.788449 19
412 1 -6.78465 10.4947 1.72254 19
413 1 6.49639 3.58443 11.6112 21
414 1 11.7417 8.16628 -2.60027 18
415 1 6.69405 10.9373 -2.70482 20
416 1 -7.1291 10.3116 -8.22573 22
417 1 -7.98239 -4.17395 -2.38615 21
418 1 2.12287 14.188 0.263775 19
419 1 -5.71364 4.03496 -15.7054 12
420 1 13.1709 9.46018 0.660557 18
421 1 9.44868 15.4747 -5.64638 17
422 1 15.1003 2.14426 -2.87746 21
423 1 0.556384 2.78657 -15.6733 19
424 1 5.61181 -10.8805 6.25114 22
425 1 4.03472 -13.0768 8.15102 9
426 1 -6.70235 2.46366 -10.4738 21
427 1 -3.14352 -12.3847 3.54905 19
428 1 8.57844 -11.7968 -15.1273 12
429 1 8.7231 11.1849 2.79511 21
430 1 2.56976 5.35481 -15.6715 21
431 1 8.30694 0.735215 10.6338 22
432 1 -12.0298 1.9041 13.535 9
433 1 0.276943 -14.6489 0.349269 22
434 1 -9.69725 -2.87337 0.445512 22
435 1 15.534 -8.31247 -7.24254 12
436 1 11.5078 0.239784 -4.45675 23
437 1 5.43424 -9.60916 -7.51719 20
438 1 5.21004 1.78997 -13.1577 24
439 1 15.6409 -5.21054 -9.62305 10
440 1 -3.02496 -3.88736 13.9001 15
441 1 10.9369 17.8789 -1.22888 12
442 1 -1.89556 -2.77665 -15.7399 17
443 1 10.1001 2.76465 -16.3867 10
444 1 -5.10661 -5.65913 5.87534 23
445 1 1.53201 13.5498 -3.13183 19
446 1 -6.09626 -0.642369 -16.0393 13
447 1 -12.038 -0.363643 0.458581 18
448 1 0.372115 -6.47308 -14.4338 16
449 1 -2.34289 -14.5245 9.79977 9
450 1 8.39988 8.11478 -7.69065 19
451 1 18.2937 1.37257 10.5771 10
452 1 16.9163 6.31507 -1.14786 16
453 1 -8.07993 -9.48892 -1.84063 19
454 1 -1.56176 -0.0524726 -20.767 9
455 1 -5.2205 11.8263 4.25927 16
456 1 11.5168 -3.58198 -1.46257 22
457 1 2.10318 16.4062 -8.24072 14
458 1 16.758 5.84394 -7.30341 13
459 1 8.29049 7.82117 16.0049 10
460 1 -8.49836 2.25869 8.35209 19
461 1 9.25099 9.42609 10.298 18
462 1 10.1816 -1.80987 11.6789 19
463 1 1.03403 2.46292 -20.982 9
464 1 -2.89372 -6.94699 -8.03701 23
465 1 1.26925 2.35353 8.18169 21
466 1 14.685 6.66109 6.13645 21
467 1 10.0664 3.01932 -9.90819 17
468 1 -3.63716 8.42968 -5.44998 24
469 1 6.37796 13.9245 -6.65246 17
470 1 19.7131 -4.94703 9.12687 5
471 1 12.4814 -5.39437 -11.3485 15
472 1 9.06373 -9.80336 -7.61862 18
473 1 13.4599 6.43854 11.7809 19
474 1 -10.88 -10.0508 -3.37051 13
475 1 -2.56157 10.0235 -15.2701 11
476 1 -9.22823 -0.141613 13.6319 10
477 1 -0.668494 15.533 -8.72527 11
478 1 8.35313 -11.3935 -5.53534 19
479 1 6.94851 -3.00754 -9.72868 22
480 1 1.5707 18.8774 -3.57837 12
481 1 -6.91321 -3.70413 -15.3548 11
482 1 7.11914 -12.3279 3.56428 20
483 1 -11.1564 -5.76316 0.459456 20
484 1 2.1405 8.39307 -15.3644 19
485 1 0.0830998 8.41093 13.3879 16
486 1 -8.07557 -5.29983 5.84042 18
487 1 3.83102 -10.0337 -14.9785 14
488 1 3.37197 -6.28944 9.16534 21
489 1 -9.02607 5.68668 0.249151 23
490 1 8.10617 0.681613 16.6195 16
491 1 9.48079 18.27 -3.90094 13
492 1 13.9334 -10.4723 -5.08168 15
493 1 4.89371 5.74933 11.8455 15
494 1 -0.782163 6.02786 -15.4431 23
495 1 -6.49544 -14.3126 5.7373 15
496 1 6.08974 -1.34488 -18.5961 13
497 1 1.2972 16.3562 2.31609 14
498 1 14.5229 7.26497 -9.50592 16
499 1 -4.19672 -2.71947 -20.1584 7
500 1 -1.28134 -11.9209 -4.68548 20
501 1 -7.98216 -3.24698 -12.8125 18
502 1 13.2252 3.41971 0.692775 21
503 1 18.3818 2.97953 -2.42062 10
504 1 6.92161 -9.80534 -9.91125 16
505 1 14.5305 8.39913 9.42598 18
506 1 6.61178 -12.985 -7.77525 19
507 1 7.22546 3.18208 -15.5863 19
508 1 9.47009 14.8705 0.011387 17
509 1 14.0551 9.33972 12.8065 14
510 1 14.9114 8.30916 -2.17666 20
511 1 13.1601 -2.05947 6.2649 22
512 1 15.4567 8.95313 -7.24845 14
513 1 11.1442 -3.49539 9.28869 23
514 1 13.7063 7.63475 15.0499 11
515 1 1.22329 -3.46377 8.72951 21
516 1 12.551 12.7644 -4.77374 16
517 1 4.52776 -0.46089 16.9775 9
518 1 17.6461 -2.5226 -4.96456 11
519 1 11.7076 2.86457 8.83386 18
520 1 -4.25114 -0.620107 -10.2249 20
521 1 14.3374 6.4926 0.532335 22
522 1 -9.66807 11.7333 7.5212 10
523 1 9.63009 12.0292 8.67401 15
524 1 11.6574 0.892586 11.5455 19
525 1 6.51078 9.52824 5.3473 25
526 1 4.52341 13.4091 9.98803 15
527 1 -0.174523 -17.3598 4.35542 16
528 1 -5.1303 7.48918 -2.73179 21
529 1 9.49837 9.14614 -4.72752 16
530 1 7.01754 -3.31279 -15.8025 20
531 1 4.57179 15.6397 -3.41888 17
532 1 3.59291 -12.2833 -7.18232 16
533 1 14.2764 -7.79413 -15.461 10
534 1 -11.0554 4.58972 9.05502 13
535 1 -3.3738 4.33663 -13.0814 21
536 1 -7.26266 -14.53 1.173 12
537 1 -3.25913 0.274962 -17.2884 15
538 1 -9.80219 2.82057 -5.20346 20
539 1 12.1005 -5.28757 0.791919 22
540 1 13.3913 9.39727 5.98357 19
541 1 3.16053 -7.86309 6.24343 21
542 1 -10.627 -1.34973 -7.73442 20
543 1 6.99982 1.7769 -18.4135 13
544 1 1.08198 2.07103 13.3033 16
545 1 5.34266 6.72635 -14.8778 20
546 1 16.3685 -1.39818 11.291 15
547 1 11.4453 2.00346 -7.32373 20
548 1 17.3486 12.1734 2.70542 7
549 1 3.9121 -10.214 -12.1649 18
550 1 -4.46148 -5.42828 11.337 17
551 1 16.6962 -2.16412 0.492159 13
552 1 2.54604 8.05767 11.1868 17
553 1 8.15344 8.96177 -13.9191 14
554 1 -11.6845 12.0826 -0.566499 12
555 1 10.9501 11.6586 0.461477 19
556 1 -7.90152 -9.2849 -4.47212 20
557 1 13.2397 -0.168544 3.43707 22
558 1 8.11711 18.6045 3.77162 9
559 1 -5.178 2.16689 8.46512 23
560 1 -9.73949 -8.76669 1.37276 18
561 1 -6.61826 -3.96838 -10.1011 20
562 1 16.3875 -4.58575 10.7074 7
563 1 -3.60556 -16.2443 7.01516 13
564 1 9.53345 3.44594 10.7156 18
565 1 -3.49297 10.2399 -3.05458 22
566 1 4.3478 0.998287 -18.358 18
567 1 -6.56846 -2.45398 6.17792 22
568 1 10.2095 -3.10018 -10.6655 17
569 1 13.661 -9.47573 -9.74686 14
570 1 7.72653 8.6824 7.57408 21
571 1 -5.97439 -4.27162 14.2661 10
572 1 16.432 4.06271 5.29922 17
573 1 0.90722 -3.45736 14.2259 10
574 1 -2.03388 8.33726 7.54493 20
575 1 1.97361 -4.23899 -12.8994 18
576 1 -6.77023 3.56708 11.0788 19
577 1 9.23422 3.09559 13.2012 24
578 1 -3.52353 -12.7913 7.81449 20
579 1 16.2974 9.08881 0.904642 19
580 1 10.5641 -13.0257 -0.618116 14
581 1 13.6362 14.2098 -2.30797 13
582 1 11.2114 12.4393 5.92156 18
583 1 2.97416 -5.78149 -16.8844 13
584 1 8.25273 12.8281 -8.21596 16
585 1 12.8277 5.54003 3.18492 22
586 1 -4.72114 -10.2044 -2.83728 21
587 1 0.0569395 5.76078 -19.5073 11
588 1 -8.11655 11.9603 -6.01843 20
589 1 12.977 -5.15525 -14.6622 14
590 1 11.9913 7.70329 -6.97677 23
591 1 16.1179 11.9472 -0.57717 14
592 1 12.1867 5.64017 -4.68454 20
593 1 15.2423 3.93262 11.1543 15
594 1 15.9229 0.787503 9.08352 19
595 1 1.09429 -14.3409 6.56082 17
596 1 -0.0855006 11.4279 -16.0325 9
597 1 8.30322 12.7632 5.30941 20
598 1 12.2004 -10.1866 -17.2315 10
599 1 12.0203 16.7614 -4.50912 10
600 1 7.35406 12.6794 -0.293399 21
601 1 14.7871 -4.97461 -4.75956 17
602 1 11.1503 3.07615 16.4067 14
603 1 -11.8272 -3.37157 3.37393 20
604 1 6.23067 -17.3314 0.571895 12
605 1 -5.05659 13.1121 -4.01969 18
606 1 6.03224 9.10931 0.260726 22
607 1 -11.1952 -4.05379 -2.09281 18
608 1 0.771925 3.80004 15.3575 13
609 1 -3.67359 6.71791 -14.9295 16
610 1 -4.50402 9.25219 -12.7857 14
611 1 2.78916 -13.0366 -1.48018 20
612 1 10.3608 5.13205 -7.53243 20
613 1 -7.83048 5.49738 12.6556 13
614 1 3.87171 -3.48921 -15.3548 18
615 1 8.97621 -10.9463 7.81123 15
616 1 4.78114 13.3386 -1.97121 20
617 1 3.08191 3.2671 16.3187 11
618 1 -6.33149 -5.73865 -13.1886 16
619 1 1.831 -12.2138 -11.8733 11
620 1 -4.71256 -10.1045 -8.02342 19
621 1 3.46426 17.9253 -5.78203 15
622 1 5.83898 -5.72358 -9.99712 22
623 1 -2.15197 11.5013 5.3552 19
624 1 12.1683 -9.62242 -7.69099 19
625 1 8.6312 -17.1304 2.811 6
626 1 6.80396 -6.16501 9.33199 18
627 1 17.2439 -0.753303 -7.83566 16
628 1 3.13295 -16.4211 -6.9183 10
629 1 -9.00704 -3.30929 11.7125 13
630 1 -4.23993 -13.7735 0.999462 20
631 1 -3.11213 -12.7713 -2.30035 21
632 1 -5.27043 4.88218 14.5923 11
633 1 0.267494 -17.9604 -0.660318 16
634 1 18.1345 7.77487 -5.5001 9
635 1 0.342486 13.5627 2.76867 18
636 1 -12.0873 8.1499 -2.57466 15
637 1 14.7285 2.79005 3.18906 21
638 1 -9.92813 -4.03609 -9.82359 16
639 1 2.88818 10.6089 -7.74811 18
640 1 11.8745 0.0249019 -9.97517 17
641 1 11.726 11.2944 12.3187 7
642 1 13.4868 2.79383 -4.83936 19
643 1 -12.5289 2.37808 -3.85422 15
644 1 -11.8856 -3.92616 -7.33166 17
645 1 -0.729642 6.42246 15.6155 12
646 1 7.02942 5.23866 -13.0246 22
647 1 14.2288 12.5412 4.6333 13
648 1 -0.15733 -2.14349 11.1438 21
649 1 2.2876 -15.5113 -2.65233 17
650 1 -3.10425 -18.3572 4.88076 11
651 1 -1.67032 -7.90344 10.5087 13
652 1 19.6947 8.68824 6.15378 7
653 1 8.88985 -7.40618 -12.8213 22
654 1 -7.09758 8.46999 -0.144277 21
655 1 7.96972 8.13404 2.7334 22
656 1 -8.87094 -3.10812 3.76958 20
657 1 11.6849 6.48168 -10.1325 19
658 1 0.355663 -14.9738 -5.22715 17
659 1 2.6199 -16.9697 0.549246 15
660 1 2.98013 -17.3804 5.64044 12
661 1 6.89363 3.08773 -10.2978 21
662 1 9.06568 19.1629 0.626169 10
663 1 -1.38946 2.52808 -18.8687 17
664 1 1.67494 0.439263 10.7679 21
665 1 -1.25776 8.19605 -17.4279 14
666 1 -10.9535 -1.39329 -11.9699 14
667 1 -8.23126 -6.13193 0.0353638 20
668 1 5.13197 19.9193 -3.66733 12
669 1 -1.71926 -1.63851 -18.3001 16
670 1 13.4775 4.88033 -7.19668 19
671 1 15.4202 -2.745 -2.02861 19
672 1 -6.71829 8.00341 8.50695 19
673 1 8.34017 -9.26587 4.05089 21
674 1 13.276 -2.52726 1.28953 24
675 1 17.0985 -4.30772 3.33467 13
676 1 3.39803 8.99529 5.07697 19
677 1 -3.34772 7.16611 12.9027 21
678 1 -5.60798 6.35761 11.0414 20
679 1 1.41574 -19.0601 2.12712 12
680 1 6.43166 5.34851 8.75334 23
681 1 -13.5715 2.67342 -0.767675 13
682 1 11.4735 -5.03513 -4.30904 23
683 1 -6.3652 14.4609 -6.28206 12
684 1 5.02608 -15.2277 4.65869 14
685 1 6.74468 0.055893 13.6862 20
686 1 -1.13275 14.7225 6.21583 13
687 1 3.88454 -12.3563 4.19196 18
688 1 4.80616 0.660318 11.0079 19
689 1 -12.5698 -2.93504 -4.45451 14
690 1 7.69514 5.70152 14.2997 16
691 1 10.7903 15.0491 -3.23691 19
692 1 -15.3727 -10.2811 1.02285 6
693 1 -3.73113 -16.15 -2.22767 13
694 1 7.67468 -2.827 9.08135 23
695 1 15.0991 -2.32666 3.87711 20
696 1 11.1758 6.49757 6.1525 19
697 1 -2.62558 -9.05956 -10.1412 20
698 1 -1.35438 1.76315 -12.7994 21
699 1 4.81917 -2.40394 14.3141 11
700 1 3.12469 18.824 1.66714 10
701 1 17.1528 -0.407861 3.83817 15
702 1 4.84243 7.53803 -7.89261 20
703 1 -3.51079 6.93255 9.79178 20
704 1 11.1401 9.18385 7.79878 24
705 1 7.24495 -5.05816 -13.0886 21
706 1 -1.05752 -16.1616 -2.17751 17
707 1 17.936 1.40066 6.36612 13
708 1 4.93179 -4.3163 -12.3195 22
709 1 3.38747 10.6086 12.4498 13
710 1 12.7939 -13.2541 -8.74824 9
711 1 9.79748 4.39861 -13.8815 13
712 1 13.2741 5.7168 -12.1587 9
713 1 16.9199 0.00404455 -2.29934 15
714 1 4.76883 -9.15265 8.96397 13
715 1 3.68648 -9.10368 -9.89317 17
716 1 11.5513 14.1887 -7.05819 13
717 1 -9.10568 5.7133 6.22092 19
718 1 17.914 4.19475 -5.32311 14
719 1 18.1581 5.73527 5.34986 14
720 1 4.74847 -8.40952 -17.6537 14
721 1 -7.57336 13.4354 -2.65016 18
722 1 19.9707 6.18369 8.14776 11
723 1 10.7782 10.4162 -7.03062 18
724 1 3.60548 2.72774 -15.6794 23
725 1 10.3691 -6.57332 -1.7959 22
726 1 -8.23973 1.81162 -2.45047 20
727 1 9.66714 5.27349 3.63419 22
728 1 -9.69536 -6.75219 -2.88033 20
729 1 -8.59179 11.3291 -10.4351 15
730 1 7.9476 2.624 8.48652 18
731 1 -11.4361 -0.417578 -5.31712 19
732 1 -9.51327 6.46446 9.8126 13
733 1 -1.43482 5.22002 -10.2517 21
734 1 13.3529 -6.29198 -8.18117 18
735 1 -7.46965 -10.203 -7.69733 12
736 1 13.4746 -5.8526 -2.09839 21
737 1 -12.0615 5.17951 -0.154635 15
738 1 -8.01376 -6.0481 -5.36329 21
739 1 17.9199 5.26797 10.8455 13
740 1 -1.1637 -11.5557 5.84299 18
741 1 15.7776 -0.913664 14.2398 7
742 1 15.8852 -1.60872 6.96173 20
743 1 11.92 -3.09142 3.92194 23
744 1 -10.8782 4.90526 3.35066 13
745 1 6.96754 11.7578 7.99184 19
746 1 6.41528 8.09796 -11.7904 17
747 1 -2.02237 -5.42991 -18.0892 7
748 1 -3.29505 16.0877 3.2423 9
749 1 -8.7532 -11.9025 6.1958 15
750 1 9.55556 11.8733 -2.32751 19
751 1 5.13108 9.42141 15.5515 8
752 1 14.0806 -2.37073 -9.64514 15
753 1 10.0425 -7.85003 6.39238 21
754 1 6.52069 11.3588 -14.4798 11
755 1 5.00963 12.8256 -9.08103 21
756 1 -3.55926 -0.406254 8.06796 22
757 1 14.0509 5.21722 8.81916 18
758 1 3.21459 -7.04116 -12.591 22
759 1 13.7518 12.9421 0.925033 15
760 1 -10.4712 4.45832 -2.74243 19
761 1 -2.83149 -11.1299 10.7363 11
762 1 6.43231 16.9965 -5.54286 18
763 1 10.7037 -4.48988 12.8965 9
764 1 2.00798 -11.8083 -4.84631 21
765 1 -0.925896 16.3393 -3.11626 16
766 1 -13.0004 5.56829 -2.70839 14
767 1 13.326 -0.59836 -7.39024 22
768 1 9.14478 -9.34893 -18.0156 13
769 1 -5.57779 7.53397 2.24666 21
770 1 12.9576 9.48573 -10.3059 12
771 1 5.64207 -5.11216 -18.2373 17
772 1 -4.45027 -8.47431 -13.2922 15
773 1 5.25391 -11.3305 -4.64186 20
774 1 1.87779 13.6732 11.3462 10
775 1 13.2778 -11.8457 -2.53017 10
776 1 0.89862 10.5087 -12.2484 19
777 1 17.366 1.16268 -5.11776 17
778 1 9.61453 9.22218 -0.322652 22
779 1 3.7727 -14.499 1.49224 21
780 1 3.39415 -3.04873 -19.406 9
781 1 13.2305 5.02551 -1.74372 21
782 1 0.0653919 4.40845 -12.9513 23
783 1 0.0495948 -8.12863 6.30985 22
784 1 6.51253 8.92564 -5.14456 19
785 1 8.72205 -0.0312397 -10.4191 20
786 1 -8.33126 5.72644 -5.06518 22
787 1 -9.46441 9.36772 8.42051 12
788 1 3.27861 2.89108 11.854 17
789 1 -5.8906 -11.2738 5.73967 19
790 1 9.86365 9.2284 5.01161 24
791 1 1.67082 -14.7608 3.3388 21
792 1 4.39779 12.1973 -11.9624 16
793 1 -1.87484 11.5771 8.35885 17
794 1 -4.96055 0.609753 11.0918 19
795 1 -7.50604 13.8002 6.81228 14
796 1 -3.26347 -6.39665 8.27933 16
797 1 6.71223 -7.85785 6.31687 20
798 1 11.537 6.7374 9.70548 25
799 1 10.223 -6.94017 -6.62324 20
800 1 11.3978 -10.0411 -13.2743 16
801 1 -9.27887 -0.508198 -14.7008 11
802 1 -3.03514 5.4624 -17.7787 13
803 1 9.16376 15.264 5.21404 13
804 1 -7.36531 -6.0118 11.9745 13
805 1 -1.96855 6.92667 -7.62918 22
806 1 -11.2605 5.31881 -5.25909 22
807 1 12.0421 10.9872 3.4633 21
808 1 -4.47405 -15.5975 3.01376 18
809 1 18.1225 8.39221 10.0484 9
810 1 -7.94766 -11.8729 -4.60337 15
811 1 10.7622 17.1289 2.09488 11
812 1 -4.48119 -1.12684 14.2271 12
813 1 2.99211 -14.405 -9.74439 12
814 1 18.9879 -3.17679 6.1259 8
815 1 4.91111 -18.0237 3.20953 12
816 1 8.62154 4.50947 16.7126 15
817 1 12.7464 -0.214757 -12.3916 14
818 1 9.83663 -8.13158 1.21883 20
819 1 3.8837 -1.27827 -12.9519 25
820 1 -11.6969 2.26051 -7.33374 20
821 1 -6.53178 8.38271 -10.5018 20
822 1 -0.271061 3.25745 11.1884 21
823 1 13.0693 -6.54399 8.92626 11
824 1 -8.2555 -9.75233 4.22458 20
825 1 15.0654 0.802829 0.718001 19
826 1 3.60328 4.33891 -13.1185 22
827 1 16.5788 9.77366 4.75771 13
828 1 1.32519 15.0818 8.89448 10
829 1 -12.6573 -6.00328 4.57763 15
830 1 9.91817 -12.9562 -7.80986 13
831 2 -12.8462 -2.60397 -6.28888 17
832 2 0.836844 14.513 -9.77009 11
833 2 0.570761 -3.08064 -12.8703 20
834 2 -2.51703 6.53745 7.95381 20
835 2 11.1872 -9.08795 -18.209 10
836 2 -4.4862 -6.17064 -7.4306 21
837 2 1.06454 2.13855 10.3239 20
838 2 9.06398 -4.16867 13.8747 10
839 2 -13.8993 -11.2797 0.722713 9
840 2 -14.0765 5.42022 -6.76247 10
841 2 2.99033 11.0436 4.83085 21
842 2 -8.38763 0.158096 2.22384 23
843 2 5.91225 16.1451 -7.03994 17
844 2 11.0234 6.44963 2.77467 22
845 2 3.53819 13.569 -7.88274 21
846 2 12.732 15.4028 -3.09594 11
847 2 -11.3583 0.402274 -8.27742 17
848 2 -8.47516 -5.99627 -7.3496 19
849 2 7.97809 0.578764 8.16632 23
850 2 9.25172 -3.86834 -9.10241 15
851 2 7.09142 -14.3772 -2.73279 14
852 2 -6.81099 8.51102 -3.32426 22
853 2 -13.5156 -0.991834 -9.68254 13
854 2 11.5776 2.55918 5.34591 24
855 2 15.551 -6.0172 -7.188 15
856 2 -6.35772 -9.39628 -2.72077 22
857 2 -9.37091 -8.86835 3.19845 19
858 2 -1.33035 -11.646 3.28622 20
859 2 15.3674 -4.29904 3.90423 17
860 2 3.34146 -15.9956 -8.59264 11
861 2 6.5209 -1.83103 13.987 16
862 2 0.955149 10.0092 -10.4182 20
863 2 1.85641 -15.3028 1.42379 19
864 2 -8.24939 -10.6058 -5.96945 14
865 2 4.81284 2.83021 11.0346 19
866 2 -7.3012 8.36488 2.08797 22
867 2 1.96646 2.06593 15.0346 14
868 2 -5.46224 7.19598 -5.91181 21
869 2 7.96807 -10.5554 9.55834 10
870 2 -2.1934 8.05481 4.75055 20
871 2 -0.577644 8.04458 -8.45271 22
872 2 13.1158 7.90723 10.6141 20
873 2 5.31526 -3.76677 -10.3898 21
874 2 11.4311 15.6284 2.48347 12
875 2 11.9282 -5.90215 -13.1007 18