ITEM: TIMESTEP
19000
ITEM: NUMBER OF ATOMS
2000
ITEM: BOX BOUNDS pp pp pp
-30.0 30.0
-30.0 30.0
-30.0 30.0
ITEM: ATOMS id type x y z Coordination
1 1 -3.58228 4.06133 -14.5334 23
2 1 -4.62217 -6.4515 -11.2807 18
3 1 3.48055 17.2003 8.02993 9
4 1 11.189 -10.4871 1.74846 21
5 1 -7.88179 8.77596 -2.75695 21
6 1 9.15218 -10.8613 -13.9811 15
7 1 -12.9618 5.73181 -8.8402 11
8 1 1.10126 -2.95498 8.21732 16
9 1 -3.91138 7.4356 -16.0391 14
10 1 -11.0054 -9.37793 2.04216 13
11 1 15.0286 2.82757 -13.7398 12
12 1 1.3857 -10.5125 0.251175 20
13 1 -9.67422 -8.30009 -0.982522 21
14 1 3.16288 5.0398 13.9505 21
15 1 4.96383 11.5986 -12.6637 16
16 1 3.23805 1.90523 11.7424 17
17 1 -6.58876 4.28846 -15.8845 12
18 1 -11.6954 -8.33952e-04 6.03941 15
19 1 16.5673 8.2353 7.39162 17
20 1 5.54694 9.02173 -13.305 24
21 1 8.21362 2.27415 -21.148 9
22 1 14.6473 5.06902 10.0046 11
23 1 -9.26167 5.6958 -14.034 11
24 1 -5.93465 11.4262 7.96456 19
25 1 14.2067 -11.7034 -2.39873 16
26 1 2.3176 -11.6007 -16.0109 12
27 1 8.94031 -10.0835 0.507399 23
28 1 -6.38629 -9.06328 -9.3267 16
29 1 -12.5585 -5.95568 7.73938 10
30 1 4.11985 -4.71812 -12.7717 19
31 1 6.67374 -14.2765 -17.8674 6
32 1 1.28385 6.96478 -18.8058 12
33 1 2.12677 6.11526 16.8874 11
34 1 3.31706 -11.2325 2.5195 22
35 1 4.72124 -0.954741 10.5381 20
36 1 -10.2827 3.56798 -0.511022 22
37 1 -12.3202 -3.26103 10.6783 8
38 1 -1.62986 12.6445 -5.96411 18
39 1 2.91716 -12.2878 -13.0308 20
40 1 8.91444 -2.53101 -14.7327 17
41 1 -1.61958 -1.72686 10.4848 21
42 1 -10.1403 5.84017 -2.81204 21
43 1 9.47313 17.2002 -13.6237 13
44 1 2.2285 15.1277 2.676 19
45 1 -7.76124 8.21425 -8.79897 19
46 1 2.2653 14.6948 -2.64248 18
47 1 4.06653 -13.6856 -0.938384 20
48 1 9.75598 -3.96359 -12.2187 17
49 1 4.32596 -4.62802 -20.4421 10
50 1 -7.95067 7.29701 10.6032 12
51 1 -9.94982 -2.13533 -11.0938 18
52 1 -5.00171 8.61451 -7.98708 24
53 1 -6.42598 -8.80492 2.43721 19
54 1 -4.40952 15.6291 9.81655 9
55 1 -9.87145 5.65987 -8.35551 17
56 1 -6.25824 7.11162 12.9083 10
57 1 -0.120909 -11.0944 7.47046 13
58 1 9.13306 -15.4844 -8.49676 7
59 1 8.09123 14.8976 12.979 12
60 1 -11.4353 2.86365 -14.4091 8
61 1 -8.94335 14.6196 -3.16088 9
62 1 7.52176 9.18947 8.57319 19
63 1 14.9702 -0.375712 -8.16587 15
64 1 13.9071 -13.5841 -0.127338 9
65 1 -14.7279 -0.695049 5.46004 11
66 1 7.7468 19.0842 1.39033 12
67 1 6.05243 2.84549 11.9399 20
68 1 -2.66937 -10.7355 3.68568 20
69 1 16.805 5.37935 -0.29469 19
70 1 -2.05227 13.5835 9.8677 14
71 1 -1.14097 -4.77065 -10.57 21
72 1 -15.6015 6.76368 4.86388 9
73 1 -6.58931 12.0245 -2.61046 19
74 1 0.550634 9.57958 -10.7986 21
75 1 12.6543 12.5978 -9.92492 16
76 1 11.5511 -6.85845 8.20767 9
77 1 -0.440486 15.6097 -8.05093 12
78 1 -8.17546 11.4931 2.98093 18
79 1 -4.69058 -5.34828 10.3764 16
80 1 -3.44182 11.5358 3.00494 21
81 1 -6.44148 -5.96935 7.79785 15
82 1 16.243 -11.2777 -4.46009 7
83 1 -9.438 5.93285 2.43751 19
84 1 -5.84483 -12.1716 3.99087 16
85 1 12.3147 -8.16497 -6.59969 15
86 1 8.86885 0.943494 -10.6441 24
87 1 -3.38192 3.89631 -17.5451 13
88 1 1.94561 12.8278 0.220188 20
89 1 -5.66469 8.00577 -10.8583 19
90 1 5.60013 9.68957 13.2602 14
91 1 9.39498 16.8045 -7.11682 14
92 1 -12.7425 9.77021 0.0713359 13
93 1 -1.50093 -6.15736 11.5094 14
94 1 17.0641 -0.976607 5.62162 12
95 1 5.23782 -9.08807 -12.8838 16
96 1 6.30027 0.657996 16.4989 11
97 1 -6.66423 -5.57799 -2.73314 19
98 1 -6.69379 -7.5765 -6.22416 20
99 1 13.7063 -7.02804 -0.196338 17
100 1 8.05626 3.94057 -18.6758 16
101 1 10.8254 19.7636 -4.43381 8
102 1 -4.80776 -10.3081 11.2333 10
103 1 -6.7028 -11.006 9.23259 12
104 1 7.81846 -11.5612 -16.5803 12
105 1 13.3809 -9.66542 -0.0557208 16
106 1 3.41241 -13.8732 4.61291 10
107 1 -4.48861 -9.09494 -3.6285 19
108 1 18.2292 6.13757 5.05913 14
109 1 14.5853 -4.99318 -11.187 12
110 1 -12.0489 -3.33825 4.75997 15
111 1 13.3244 12.4495 3.27999 18
112 1 18.7762 9.82587 1.16727 11
113 1 -4.26619 4.89493 12.4205 18
114 1 -5.83517 9.09673 10.7165 19
115 1 -3.65982 11.2672 -7.97316 21
116 1 2.79626 -6.30086 -15.1534 18
117 1 7.45389 -14.1933 -14.5909 13
118 1 4.12226 14.0286 -14.7989 14
119 1 14.5284 -0.977899 10.6991 7
120 1 5.25942 2.99871 -20.948 14
121 1 0.365713 11.4693 -8.09958 18
122 1 12.2509 3.36528 -7.90115 21
123 1 -8.40326 12.5889 -4.89208 15
124 1 -6.10284 15.1685 -2.01973 15
125 1 8.4597 3.147 -13.4531 21
126 1 12.9964 -9.90521 3.47867 11
127 1 -7.36439 13.6718 8.68221 13
128 1 14.3831 7.65706 -4.73188 18
129 1 7.20218 13.1237 -4.24375 23
130 1 -2.2451 15.0384 7.32052 16
131 1 10.4984 11.9004 -2.55661 20
132 1 1.7026 13.5364 -9.35268 19
133 1 6.12398 19.4571 -9.3939 10
134 1 6.8803 14.9937 -15.7103 10
135 1 -11.744 -10.8109 -0.981982 11
136 1 -15.4443 8.7646 -2.04867 5
137 1 -2.68521 0.672328 -13.435 19
138 1 4.32191 -8.78151 -16.0653 13
139 1 11.5658 17.1509 3.62393 10
140 1 0.227792 15.3529 -0.284599 18
141 1 -11.1321 -2.04129 -7.87706 16
142 1 -10.9598 12.3186 1.32971 10
143 1 17.5225 -5.59835 -3.04067 8
144 1 -1.79153 7.33142 -18.3505 11
145 1 6.65336 5.64303 13.4978 20
146 1 6.02994 17.9921 -1.87192 16
147 1 -0.564147 10.1838 5.37904 24
148 1 -0.298585 -6.21132 -17.4438 13
149 1 -5.97784 13.7514 2.72153 13
150 1 3.72523 11.8056 -7.75617 19
151 1 5.31118 -5.75744 9.8384 15
152 1 -11.0446 -3.3649 2.15833 17
153 1 -0.710262 -8.28103 -14.6942 14
154 1 -0.155989 15.3952 -11.2587 14
155 1 0.805475 -7.5515 5.60103 21
156 1 3.96147 -15.0581 -5.07024 17
157 1 -0.680677 11.8834 -14.4693 18
158 1 -14.3976 1.60841 7.60467 12
159 1 12.4993 10.6852 -4.90053 19
160 1 -8.09238 4.03147 7.80777 19
161 1 6.38885 -8.06034 8.77534 13
162 1 0.510178 16.3562 5.07962 15
163 1 1.44527 8.85281 8.30282 18
164 1 15.7855 7.56554 10.5558 12
165 1 -4.32802 12.4224 -0.195518 19
166 1 13.7887 -8.16166 -10.5461 9
167 1 -4.78575 12.5499 10.4795 14
168 1 16.5242 -6.51922 1.13732 8
169 1 -13.7476 -1.08767 2.50434 16
170 1 -1.61371 -8.16416 3.55764 22
171 1 4.08717 11.3486 11.1837 15
172 1 -12.1557 1.31468 -5.51158 14
173 1 -0.523585 -13.1588 -4.83434 13
174 1 0.118738 12.0172 2.68596 22
175 1 7.14752 17.8736 8.49426 10
176 1 -2.67632 9.19463 -10.6872 22
177 1 -11.2991 -5.00694 -9.99551 13
178 1 -7.45927 -3.56628 8.58735 16
179 1 1.02963 -8.78652 2.59918 23
180 1 10.4281 -11.8267 4.2327 11
181 1 -10.2413 11.1507 4.69596 16
182 1 13.4038 -5.37779 2.44067 19
183 1 -3.36245 -3.12517 -18.6184 10
184 1 4.48357 2.9375 8.49499 20
185 1 10.5347 -12.9766 0.0510851 18
186 1 0.679374 6.10111 -13.6225 26
187 1 5.25125 -11.0515 -17.6663 11
188 1 10.7553 3.04791 -16.1748 19
189 1 3.99342 8.73705 -15.8981 16
190 1 -2.86473 -1.48563 -10.9307 25
191 1 3.14328 15.3025 -11.7284 17
192 1 -4.98922 -8.44136 8.79168 15
193 1 10.3724 16.5324 -4.1608 16
194 1 -1.78713 3.47171 14.4696 15
195 1 -3.61963 16.4396 -4.02083 10
196 1 9.50185 4.27534 6.43069 18
197 1 0.841357 -6.13224 -12.953 20
198 1 0.947257 12.6561 -12.3537 19
199 1 5.45958 7.03171 -11.1051 22
200 1 -4.61785 -10.1793 5.76275 14
201 1 -7.06238 3.344 4.99919 19
202 1 -6.13224 5.93418 8.89088 19
203 1 5.2175 -11.97 -10.9578 20
204 1 -2.60014 -12.7432 1.2115 20
205 1 14.0366 -10.7123 -7.76531 13
206 1 12.6289 7.68007 9.60173 20
207 1 11.7209 16.0013 -11.613 13
208 1 3.38953 11.237 -2.78047 22
209 1 -9.61579 10.2569 0.137335 21
210 1 3.31251 5.7708 8.39129 20
211 1 10.0877 -13.7645 -6.52529 13
212 1 14.8086 -3.03694 -3.44709 19
213 1 -7.90568 8.63517 3.01412 19
214 1 -8.21246 -4.74948 -6.01087 16
215 1 11.9774 8.19209 -12.5072 17
216 1 7.27892 -2.75881 9.18159 19
217 1 12.814 13.2123 -12.8733 11
218 1 0.422349 0.321703 -13.2608 21
219 1 1.76115 -15.0013 1.74309 14
220 1 11.3395 1.92221 -12.8098 20
221 1 -8.75752 -2.23007 1.39666 21
222 1 6.47549 -10.9996 -5.70908 20
223 1 -4.37701 -3.91328 -13.5719 20
224 1 11.0262 14.595 -7.38418 17
225 1 5.57068 -0.679613 -16.029 19
226 1 8.93956 12.3272 8.80184 21
227 1 17.8486 2.51272 -0.0843096 14
228 1 13.9496 -2.04951 -11.0023 16
229 1 -5.48094 -0.888695 -13.1308 21
230 1 -11.4023 2.80972 -8.914 22
231 1 -4.38701 -13.3657 9.28567 11
232 1 13.5645 0.609128 4.27998 15
233 1 0.986257 -1.34312 -15.5278 17
234 1 0.714392 8.80894 -16.2903 20
235 1 5.07573 12.5697 -0.250172 21
236 1 -5.1028 -3.06316 7.8327 19
237 1 -10.8799 -7.98748 -12.0236 9
238 1 -0.977392 -3.10562 -13.2885 19
239 1 1.51218 11.9782 -16.2734 11
240 1 -3.48379 -8.11204 -9.24158 20
241 1 10.6751 -5.27987 -18.052 11
242 1 14.7344 -2.46477 -13.4378 15
243 1 13.5502 7.04728 2.14696 18
244 1 -7.2937 -6.92006 4.9096 15
245 1 0.704904 -10.3955 -5.30737 19
246 1 10.3807 5.57542 14.0477 12
247 1 -2.12032 -14.5011 4.09132 13
248 1 1.73675 -11.6529 -2.87005 18
249 1 3.0374 15.1904 -6.87502 19
250 1 8.98756 6.10265 -16.2556 15
251 1 -1.20644 1.41756 -16.1323 21
252 1 -6.94903 -8.37238 11.9668 10
253 1 8.1051 8.34073 14.9887 10
254 1 3.69191 -9.78593 -4.37079 21
255 1 -2.89373 -10.6062 -13.5246 12
256 1 -5.6144 13.5217 -9.76982 8
257 1 12.3153 5.18035 7.49396 15
258 1 -2.68808 4.63312 -10.7611 21
259 1 2.23253 10.0004 -13.4438 19
260 1 8.18352 -13.0962 -11.2953 16
261 1 -1.08508 14.4988 -3.40006 16
262 1 3.57308 11.5805 2.58714 21
263 1 11.6742 3.18258 2.72821 18
264 1 -9.54175 -0.766238 3.69915 21
265 1 4.36542 -3.05454 8.06277 18
266 1 -7.2992 9.49659 5.34747 20
267 1 6.30059 -2.60112 -12.7591 19
268 1 16.3137 4.99243 -8.00149 14
269 1 5.35647 -10.2362 -0.141329 20
270 1 0.127952 0.528906 15.7341 10
271 1 -13.0603 -3.11583 7.23669 10
272 1 3.4385 -17.132 -2.65906 12
273 1 -7.07024 3.93899 11.1314 17
274 1 -9.09092 7.238 7.63554 19
275 1 -9.2741 -2.40485 11.537 12
276 1 -11.2984 -6.41359 4.07923 13
277 1 17.7692 -2.16686 -3.60556 11
278 1 -9.75421 -5.88256 7.07734 15
279 1 12.0641 -2.67717 -7.90976 20
280 1 12.6055 -10.732 -10.4613 11
281 1 3.62434 19.0609 -4.31393 11
282 1 -4.84911 12.8141 -5.21424 17
283 1 14.5116 10.459 9.31693 15
284 1 10.3565 -7.46371 -4.36889 22
285 1 -11.6604 7.07223 0.236383 18
286 1 10.9407 -7.15012 5.34305 17
287 1 15.7823 -0.87214 2.89027 18
288 1 0.695211 -3.82152 11.4079 15
289 1 -1.45305 13.623 4.97609 20
290 1 10.4725 13.5303 11.5196 11
291 1 -3.71824 14.9809 -7.56081 11
292 1 -2.86694 -4.57226 -15.7805 18
293 1 4.09101 -14.966 -15.118 11
294 1 -6.91323 -0.0244538 8.50022 19
295 1 -16.4853 0.987767 2.53983 11
296 1 -3.06161 11.9538 -2.42007 20
297 1 14.0177 1.4608 1.62731 16
298 1 -6.99897 -7.39887 0.00920767 19
299 1 8.56613 -4.29826 5.22158 17
300 1 -7.97949 -5.6375 12.8761 10
301 1 -11.7134 4.09182 2.8779 19
302 1 3.58892 -14.3399 -9.52761 16
303 1 -4.70034 1.33936 -10.9735 19
304 1 11.3528 -1.11007 -12.8311 21
305 1 3.44976 15.5246 6.00828 17
306 1 -8.44601 1.03711 -6.07014 19
307 1 6.33971 -11.5099 -13.5322 19
308 1 11.3744 5.56595 -17.7872 9
309 1 1.61406 -13.4326 -7.03257 18
310 1 -10.6735 -5.29394 -7.24276 15
311 1 5.47795 2.91201 15.1323 17
312 1 13.8276 6.46926 -7.46459 19
313 1 -5.56777 4.51442 -11.7053 18
314 1 1.52369 17.587 1.60917 14
315 1 -14.2015 1.34474 -8.14047 11
316 1 -8.24978 3.38629 1.87373 22
317 1 -6.54055 9.50684 -0.0640015 23
318 1 -3.34352 5.69232 7.27456 21
319 1 8.77854 4.25938 11.4133 21
320 1 14.4678 -2.57514 -6.13901 16
321 1 12.049 -0.74657 6.22274 17
322 1 13.7453 -0.664701 -15.1156 9
323 1 -4.28551 -12.4196 -1.50822 12
324 1 -7.99854 3.26931 -8.79814 21
325 1 4.19291 -11.9066 -7.19108 22
326 1 9.97601 0.324193 8.49434 17
327 1 -8.18589 -2.90513 -8.93705 23
328 1 -4.73585 -11.2961 1.24292 20
329 1 -9.15312 -6.1335 9.90111 10
330 1 -0.0580172 11.3162 -2.75055 20
331 1 -10.0553 -10.0828 -4.00085 14
332 1 6.61318 13.2207 10.7398 18
333 1 -8.38919 6.95762 -5.62749 21
334 1 5.3623 17.1281 -7.03211 14
335 1 4.68879 12.5889 5.70286 19
336 1 -11.003 -7.52261 -5.73062 14
337 1 -0.920078 -8.66477 -7.83926 20
338 1 -9.82 4.21526 5.41908 23
339 1 -11.3659 8.55947 -3.22257 16
340 1 8.55804 -9.61358 3.74951 18
341 1 -5.41136 -9.79967 -6.54066 17
342 1 14.0215 13.1639 6.93547 12
343 1 9.89734 9.08523 -17.9461 12
344 1 -8.44104 2.64087 -13.9407 14
345 1 6.37109 15.6821 -12.1988 19
346 1 -6.29479 5.7012 -8.16847 20
347 1 2.26585 -10.4565 5.57199 18
348 1 14.9205 9.60572 2.91168 19
349 1 5.10816 11.3168 -16.0025 15
350 1 -12.5355 0.777234 -1.87401 18
351 1 -1.24332 -9.99019 0.453017 22
352 1 8.03555 -8.66039 -14.4526 18
353 1 -13.2279 2.01698 0.904015 21
354 1 -10.7227 -0.151252 11.7478 11
355 1 -13.5558 9.55087 5.60786 12
356 1 0.388956 3.50767 -18.4387 17
357 1 11.6426 -5.32081 -10.1954 17
358 1 3.09162 -7.45851 -18.2427 13
359 1 -1.78857 -3.08728 7.42008 17
360 1 0.983594 0.538177 -18.2441 17
361 1 6.01543 -11.7212 3.17777 17
362 1 8.48133 15.7389 -10.0236 18
363 1 -11.1478 9.15211 8.09638 12
364 1 -5.13645 -3.91453 14.2048 11
365 1 -8.10145 -6.1987 -14.9602 10
366 1 -5.21782 -4.65668 4.55822 21
367 1 10.6786 -3.92014 8.1004 14
368 1 13.5837 -6.65039 5.19707 10
369 1 16.6076 8.25246 -6.73646 12
370 1 1.25252 0.612881 10.3797 16
371 1 4.57519 13.3049 -5.19198 19
372 1 -0.0179385 -11.7805 -8.13376 19
373 1 -4.17498 5.31729 15.1417 7
374 1 -4.85589 14.3664 7.08071 14
375 1 -8.78756 -9.86031 -10.5553 12
376 1 10.0331 18.5978 -1.14295 12
377 1 6.37796 9.76414 5.27753 21
378 1 -5.48418 3.03803 7.58585 18
379 1 -6.93764 6.45959 5.60748 22
380 1 -5.87552 -5.7977 -8.41966 21
381 1 -3.58806 9.22807 5.11229 18
382 1 -3.3461 -11.2675 -8.43356 11
383 1 -2.38301 -7.77991 -12.216 19
384 1 -4.1473 -12.9247 6.40893 14
385 1 14.1666 4.26837 4.66071 18
386 1 -3.04446 -3.78175 12.1891 20
387 1 -10.5746 6.65293 -10.958 9
388 1 11.601 7.78752 -5.53128 22
389 1 -8.84036 -9.65873 -7.27369 13
390 1 0.744324 17.462 -3.05284 11
391 1 -0.644271 11.8124 7.62804 20
392 1 -13.4121 -2.66241 -7.67226 8
393 1 3.23259 18.7701 -8.14854 13
394 1 9.88571 13.4968 -11.3285 19
395 1 -5.62097 -7.15355 -13.9287 17
396 1 2.22361 3.12975 15.8024 16
397 1 1.32674 -12.771 -10.4593 20
398 1 1.92448 -2.40892 -13.0758 22
399 1 14.4236 -13.5121 -5.50696 10
400 1 -11.8156 9.68618 2.99726 16
401 1 5.05341 7.89017 11.0477 16
402 1 11.3009 8.79022 -2.07464 20
403 1 -6.23202 10.7612 -10.5592 14
404 1 -11.3528 -5.35072 -0.682763 16
405 1 4.99752 16.7621 2.83496 18
406 1 -1.10568 5.79482 -16.187 22
407 1 13.3923 6.3014 -1.94076 20
408 1 9.52878 18.9884 -10.2944 11
409 1 17.3122 1.08067 -3.21521 15
410 1 2.90811 1.02604 -15.664 18
411 1 5.44808 -14.5032 2.68165 13
412 1 8.45251 -5.25541 9.80339 11
413 1 -7.9761 5.55991 -10.8181 20
414 1 -8.04877 -10.4373 6.26829 13
415 1 0.11423 -11.7252 -13.1888 13
416 1 9.89597 16.2949 0.682029 17
417 1 3.98446 5.84756 -13.7551 19
418 1 5.06498 -2.06251 14.6284 11
419 1 -12.6677 2.68537 10.67 10
420 1 7.59316 -14.4469 -4.6308 16
421 1 -11.4875 -0.315296 0.56705 20
422 1 15.9779 -3.12379 -8.45548 13
423 1 13.1889 -5.44308 -2.89738 20
424 1 7.11084 -7.82197 -10.4224 19
425 1 5.66974 3.75409 -16.0652 18
426 1 13.7297 -5.61577 -7.88236 18
427 1 -4.33878 3.10524 9.69584 20
428 1 8.22108 20.3751 -3.08964 7
429 1 -1.96184 -0.769088 -18.2539 11
430 1 10.3064 0.928755 -18.465 13
431 1 -6.74264 -2.04496 5.52897 20
432 1 4.09255 15.7533 0.357015 19
433 1 -5.28701 -1.90636 -16.1515 15
434 1 -15.0533 -0.103886 -0.651112 10
435 1 -3.01747 -7.41484 -15.5032 14
436 1 -4.53523 -6.79429 13.2567 13
437 1 3.74477 9.67626 -10.6233 20
438 1 17.9087 6.89872 1.98867 18
439 1 19.0622 3.98232 -2.56502 10
440 1 -8.85514 -11.7508 -1.45714 14
441 1 1.73002 -4.83434 -20.0117 11
442 1 -1.3143 12.4445 13.3322 8
443 1 12.2104 -4.28603 0.154599 20
444 1 6.95364 18.8192 -11.9237 11
445 1 14.6379 6.48086 -12.5202 13
446 1 4.91455 8.89586 7.90185 19
447 1 -13.5405 1.30932 3.8005 21
448 1 6.42403 12.0893 7.89386 17
449 1 4.62066 5.48492 16.8573 11
450 1 5.86248 1.36493 -18.4176 20
451 1 6.4195 0.0157075 7.9646 21
452 1 8.08816 12.7464 5.06721 18
453 1 7.47487 9.17781 -15.8774 21
454 1 -6.49995 9.90235 -5.45357 21
455 1 1.98538 12.7117 -5.28929 16
456 1 11.1091 2.06303 13.7859 10
457 1 12.9285 5.5094 -14.7251 14
458 1 11.793 -10.3988 -4.78607 20
459 1 15.8209 11.9859 5.43961 16
460 1 -11.728 -7.90269 -2.8256 14
461 1 -3.83153 9.81964 -13.3167 15
462 1 -7.79835 0.609897 11.9784 15
463 1 -1.17278 11.9074 -10.6113 20
464 1 8.96265 -10.092 -6.41453 20
465 1 10.2916 0.229003 -15.162 18
466 1 2.18 16.6537 -9.27033 19
467 1 -7.59842 -3.19612 -13.8036 18
468 1 12.355 -13.5706 2.86063 9
469 1 -9.44183 -6.0863 -3.76001 21
470 1 7.4197 12.4344 -14.1375 19
471 1 -0.306102 9.65556 14.4201 11
472 1 -10.7555 -8.85193 6.3771 10
473 1 7.15606 -5.62834 -12.7656 20
474 1 2.06085 -6.8013 10.9131 14
475 1 -13.3344 3.67661 5.75838 17
476 1 10.3395 8.02318 12.3622 14
477 1 11.5682 20.0372 -7.85152 6
478 1 11.8421 -4.30784 -5.27621 21
479 1 4.6889 14.1214 12.9206 11
480 1 2.81197 4.86962 -20.764 11
481 1 -2.4428 -11.3383 9.88208 10
482 1 7.67968 -4.06587 -18.1772 13
483 1 8.33816 16.3199 3.74918 15
484 1 11.993 7.07716 -10.0891 19
485 1 -0.156556 -3.38587 -18.2826 15
486 1 -2.08026 -10.4577 -5.12502 19
487 1 -8.99709 -0.520127 -13.2254 13
488 1 13.2841 3.90669 -0.263445 18
489 1 18.6188 2.61258 -5.437 11
490 1 8.54406 -5.47839 -9.70787 19
491 1 17.0597 10.3618 8.51934 10
492 1 4.86862 -8.93767 -7.25271 20
493 1 6.38658 5.81718 -20.7329 9
494 1 12.7662 14.8806 1.52656 15
495 1 11.034 10.4888 10.2214 15
496 1 17.1144 5.2454 -5.50422 14
497 1 11.6788 0.933478 -0.130899 20
498 1 13.215 3.98841 -11.4605 20
499 1 10.1129 6.75661 8.96127 21
500 1 15.2458 5.13521 7.13233 17
501 1 15.9099 10.8591 -8.99218 11
502 1 -0.201617 -2.4807 13.7254 12
503 1 16.9031 -0.694879 -5.93248 14
504 1 12.5944 7.65488 6.01221 20
505 1 -6.32567 0.308017 -8.27913 21
506 1 16.9414 10.9984 -1.60358 9
507 1 -8.5775 10.5924 10.6818 11
508 1 11.7855 13.8191 9.42148 11
509 1 14.944 2.06703 6.73267 12
510 1 3.11475 9.85424 5.22321 23
511 1 0.992357 14.6871 7.92343 18
512 1 0.968947 -16.6156 -0.448004 9
513 1 -3.39809 9.9362 -5.12289 24
514 1 13.6536 10.0143 -11.1005 13
515 1 13.0033 -3.8401 -16.1623 13
516 1 3.17868 18.5136 -1.31215 9
517 1 -1.0239 -10.5341 -10.7734 16
518 1 12.4106 -6.90982 -15.825 9
519 1 -16.4523 3.67122 5.22498 10
520 1 -2.99282 6.93851 -13.4527 22
521 1 0.0443676 -11.6201 3.20963 21
522 1 -1.08449 3.30192 -13.2115 22
523 1 -13.5078 3.81456 -5.75933 13
524 1 11.378 -7.77552 1.73375 22
525 1 15.7937 12.8594 0.882153 13
526 1 3.55645 -6.5714 7.36509 20
527 1 -12.52 -0.245552 -10.3649 14
528 1 7.7749 1.75016 -15.9016 21
529 1 0.760629 2.44309 13.3554 17
530 1 8.338 12.0196 -17.1464 12
531 1 11.566 0.535628 11.45 15
532 1 10.96 5.79614 -7.76038 20
533 1 11.5057 15.1221 -2.06462 17
534 1 6.36813 -13.6897 -8.78166 14
535 1 -4.66928 1.99439 12.9064 13
536 1 17.5024 2.65031 5.70601 12
537 1 0.971799 13.1181 10.8452 14
538 1 10.4217 14.0612 -14.7044 15
539 1 -9.97579 10.0952 -5.85266 12
540 1 9.78903 9.62634 0.598376 21
541 1 -8.02456 -11.091 1.57245 18
542 1 15.8284 -3.87265 4.58672 12
543 1 4.75344 20.2705 2.19488 6
544 1 0.0287471 6.00016 8.31542 21
545 1 -8.44969 -4.52394 -0.410109 22
546 1 -6.78547 -1.29213 -10.7314 20
547 1 10.4367 2.65419 8.64135 21
548 1 0.095021 -8.41962 9.30356 14
549 1 7.82388 7.81189 11.508 18
550 1 -2.94417 16.2072 -0.992273 12
551 1 3.46096 3.12677 -17.8027 21
552 1 -10.4655 1.78743 2.99394 23
553 1 10.1886 5.23579 -12.8928 23
554 1 11.7771 -8.98228 -13.4004 13
555 1 9.41979 7.66075 6.1989 18
556 1 -9.43084 2.01198 9.86886 14
557 1 12.4851 15.3951 6.21307 9
558 1 3.99356 -3.93464 11.6689 14
559 1 -1.18631 4.50446 11.0044 18
560 1 5.14249 -1.92131 -18.9314 17
561 1 -1.84719 1.29335 10.7975 21
562 1 7.31343 3.1615 8.89732 21
563 1 -7.31102 -13.2995 6.75285 11
564 1 16.311 8.24876 -2.96892 13
565 1 9.40983 -12.1173 -4.5383 18
566 1 6.33019 11.2483 -2.56906 20
567 1 6.68743 21.0737 -0.420085 8
568 1 6.17316 -0.231069 -20.7977 10
569 1 6.98784 16.1976 -4.86125 14
570 1 13.229 10.229 0.378127 20
571 1 -2.98721 -7.32427 -5.99875 21
572 1 2.88263 1.68172 -20.0591 15
573 1 -11.3461 11.8483 -2.54537 11
574 1 9.64808 -7.17282 -12.5846 21
575 1 9.99038 9.93232 -10.2095 19
576 1 13.2588 11.7723 -7.26782 16
577 1 8.47277 2.7165 14.2922 17
578 1 8.08856 -0.185009 13.3352 16
579 1 3.35444 -9.12358 8.9981 11
580 1 -0.395656 9.22108 -13.6133 19
581 1 6.23362 16.5018 11.3323 13
582 1 8.14249 -5.45474 -15.6018 15
583 1 11.8314 9.30736 -8.23677 20
584 1 10.2225 12.007 2.85327 14
585 1 14.9729 -5.8244 -5.52943 13
586 1 7.97959 10.7287 11.6145 16
587 1 -8.764 -4.24577 4.13922 17
588 1 6.15516 -15.046 -2.35932 17
589 1 -7.83236 13.2854 -0.0185223 16
590 1 8.23925 12.5077 0.0950339 19
591 1 -12.2426 -2.80618 -1.16625 15
592 1 4.83974 8.55209 16.0052 10
593 1 -2.05435 10.0308 -15.8219 14
594 1 -3.2113 12.9313 -12.2371 10
595 1 6.6067 -13.4737 0.478245 19
596 1 8.67131 7.15182 -10.7866 22
597 1 -12.7599 6.85206 7.29694 16
598 1 4.86138 -3.26354 -15.3761 18
599 1 5.00426 -9.51256 6.35357 15
600 1 6.09618 14.7819 -1.71356 19
601 1 -1.38391 5.9686 16.7357 7
602 1 -8.41311 -9.41846 -13.626 10
603 1 -5.50829 -5.47749 -16.9847 11
604 1 -6.17815 -11.8884 -13.293 6
605 1 1.25457 17.7821 -5.74794 10
606 1 -3.3836 11.5686 6.85712 20
607 1 10.083 -8.61685 -8.76455 17
608 1 11.9846 -13.7866 -3.35589 13
609 1 6.90153 -7.41675 5.52528 16
610 1 15.533 0.354243 -11.862 12
611 1 2.22607 -9.02179 -13.1486 19
612 1 -8.83688 0.744637 6.02042 20
613 1 1.94716 -14.5722 -3.16351 17
614 1 -7.14255 -11.4281 -4.21513 10
615 1 -9.80699 -0.925813 8.98593 16
616 1 -4.58192 -14.7125 1.48757 9
617 1 16.694 2.13121 -8.41899 14
618 1 -3.57138 16.1234 4.01857 10
619 1 -12.9803 7.11171 2.97414 15
620 1 12.1433 -2.21434 2.72106 20
621 1 -11.0181 1.39206 -11.6998 16
622 1 10.176 3.66578 -10.4449 23
623 1 9.01572 16.036 9.46403 17
624 1 -13.5382 2.98812 -11.1871 10
625 1 -8.55977 -5.30041 -11.7634 14
626 1 1.74498 6.45589 11.2812 17
627 1 7.04168 6.38529 -14.0676 18
628 1 14.552 15.1236 3.87345 14
629 1 -1.77627 2.96569 7.83833 20
630 1 0.249945 -15.7798 -9.2655 8
631 1 -1.62604 -13.9228 7.60834 11
632 1 19.8523 8.81949 6.90446 6
633 1 5.56351 -4.45441 -9.79159 24
634 1 7.96728 8.44105 3.15658 21
635 1 -7.03211 -5.37551 1.92246 19
636 1 11.367 10.5681 -14.8568 13
637 1 1.39622 -16.544 -5.86311 9
638 1 4.40549 -16.4999 0.357887 11
639 1 7.44609 -11.7145 -2.26046 21
640 1 8.85616 8.83947 -7.72888 24
641 1 15.5302 10.6458 -5.4747 14
642 1 3.05059 -3.50741 -17.6991 19
643 1 2.62321 -0.937074 12.6824 17
644 1 4.38702 6.72019 -18.5309 14
645 1 -7.47166 0.978835 -16.2612 10
646 1 -8.61449 -2.56786 -2.62897 17
647 1 12.6845 16.2768 -14.632 7
648 1 5.39544 -5.4967 -17.4807 16
649 1 9.61746 10.3422 -4.86309 22
650 1 10.38 -4.79247 2.41126 20
651 1 -4.98355 8.54079 7.78218 20
652 1 10.0154 -7.06578 -0.498607 19
653 1 16.2547 -3.49742 1.01872 13
654 1 13.5267 2.52268 11.1271 13
655 1 1.63272 12.7954 5.17497 21
656 1 -11.106 4.88613 8.92258 13
657 1 -6.56858 5.68233 2.71103 20
658 1 3.87463 -7.83055 4.28432 20
659 1 11.4898 9.6757 7.81281 18
660 1 -11.5197 -1.92985 -4.41127 13
661 1 10.5492 -10.8549 -1.82959 22
662 1 -6.31018 15.6348 -4.97099 13
663 1 8.898 -13.0803 2.32223 18
664 1 3.15421 0.114674 16.7891 8
665 1 7.26423 14.8201 1.17358 16
666 1 5.6472 -8.99744 2.43332 19
667 1 4.90612 5.12716 11.0064 18
668 1 -12.8421 -5.35017 -3.6826 11
669 1 2.19006 11.7354 13.8396 12
670 1 8.58338 15.4376 -2.14522 18
671 1 -9.91396 -11.5275 4.28988 13
672 1 0.920906 -13.7223 5.34827 13
673 1 9.40395 -2.04423 6.25053 17
674 1 12.2571 -4.24039 5.759 20
675 1 15.4307 6.95777 4.69805 21
676 1 3.84212 -7.39921 -10.2741 21
677 1 1.82659 3.72586 -13.2333 20
678 1 -2.03516 -5.61711 14.5137 11
679 1 -1.3906 12.8572 0.065622 21
680 1 15.0353 3.43571 -2.5199 17
681 1 7.1496 11.3227 -7.11268 21
682 1 -1.24887 7.35416 11.8014 17
683 1 10.1122 10.4296 5.7703 18
684 1 10.3957 -1.43265 -10.3408 19
685 1 -1.53667 -11.3389 -2.29424 18
686 1 18.7914 3.93669 2.57433 12
687 1 4.05339 -0.472249 -13.0364 19
688 1 2.40967 8.1454 14.3586 15
689 1 8.87985 -9.95402 -11.1645 19
690 1 6.63869 8.68027 -18.2189 12
691 1 11.1675 7.90569 -15.4375 18
692 1 18.0438 -0.467955 -0.296825 12
693 1 7.50414 -3.1169 12.696 13
694 1 1.37145 -7.15992 -9.95175 18
695 1 10.1781 13.5963 -4.86831 20
696 1 -14.8292 4.05598 2.71573 14
697 1 16.5178 3.81427 -11.2664 13
698 1 19.4539 6.60152 -0.746719 8
699 1 2.30279 -1.27347 -20.3491 11
700 1 -7.98827 13.3331 5.66175 12
701 1 18.0783 9.26122 4.67694 18
702 1 13.3549 13.8333 -4.90043 13
703 1 7.31578 -0.0247945 -12.9158 22
704 1 11.8777 -8.78713 -2.41051 21
705 1 -9.94911 0.579529 -3.31688 16
706 1 11.4205 8.79943 3.31524 20
707 1 -6.23 -9.9133 -1.01567 19
708 1 -7.69296 11.2336 -7.90892 13
709 1 7.04113 6.16285 6.78899 17
710 1 -9.57414 0.556881 -8.83318 21
711 1 -10.2403 8.18406 5.24806 21
712 1 10.0667 -8.29869 -16.3936 13
713 1 -5.5679 -3.52537 -10.6322 21
714 1 15.0912 -8.11435 -3.51954 13
715 1 -14.2748 3.86341 -1.04201 11
716 1 13.4234 10.0654 5.88056 19
717 1 -4.0957 -7.72628 4.35063 20
718 1 12.7506 5.64134 11.7466 13
719 1 14.4812 -2.17441 7.2522 12
720 1 -8.19575 6.84085 0.0621818 21
721 1 3.82345 14.3998 9.6279 19
722 1 6.9817 10.0608 -10.671 22
723 1 0.574354 -4.55196 -15.5908 19
724 1 -1.11786 15.0195 2.13183 14
725 1 -10.3359 -12.5226 1.53784 11
726 1 8.76221 9.7554 -13.123 20
727 1 3.15424 11.6296 8.23144 20
728 1 18.7356 -4.17026 -0.732013 8
729 1 9.83045 -2.35541 10.8913 14
730 1 3.89134 18.2503 -11.645 11
731 1 6.55957 13.0896 -9.59487 18
732 1 -3.63307 -0.130436 8.34902 23
733 1 18.3719 1.15971 2.95033 12
734 1 -2.81261 -1.37239 -15.1938 22
735 1 14.0047 12.7777 -1.60414 14
736 1 -11.846 3.32324 -3.50228 19
737 1 -3.11196 -9.00817 13.0132 9
738 1 4.85851 15.598 -10.0519 18
739 1 8.10167 0.283373 10.6698 20
740 1 5.01092 -11.9103 -3.51659 19
741 1 -5.74836 15.9763 1.05081 10
742 1 -12.9019 6.2166 -2.92549 15
743 1 12.8716 0.720294 -10.2429 19
744 1 1.97063 -14.9457 -12.4546 13
745 1 -5.21329 9.13798 2.61833 21
746 1 16.2232 7.35872 -10.103 13
747 1 10.822 -2.53761 -18.6467 8
748 1 -5.29999 -9.3081 -11.9187 18
749 1 2.31021 -9.07391 -7.47428 23
750 1 -3.18635 9.90516 11.8964 12
751 1 10.8591 -11.9117 -8.53096 17
752 1 1.17277 14.8765 -14.2936 10
753 1 15.6321 2.29465 -5.63437 18
754 1 11.4816 7.09585 0.488296 21
755 1 6.90026 -10.6783 -8.63211 19
756 1 7.96501 -0.802797 -18.0721 19
757 1 13.2952 4.84288 -4.80063 22
758 1 2.66662 5.93039 -16.2187 23
759 1 -0.0101526 -5.82218 8.24634 20
760 1 9.67326 12.058 -8.30995 21
761 1 -9.92699 3.57323 -6.06166 22
762 1 -14.541 4.66458 8.21489 11
763 1 0.149039 5.87398 13.9722 19
764 1 -2.26254 -8.50911 6.66437 19
765 1 6.61603 11.416 2.78488 22
766 1 0.0249901 -13.3858 -0.345627 17
767 1 6.91409 14.2976 -7.51587 19
768 1 -1.49864 8.61773 8.2847 19
769 1 -4.51407 -0.597413 12.0198 13
770 1 -8.76045 10.5518 7.56743 17
771 1 -3.76415 -6.43537 7.43482 18
772 1 8.76443 -9.6596 6.7822 10
773 1 13.5804 0.752954 8.28811 15
774 1 10.438 -5.53989 -7.36157 20
775 1 5.33207 -15.0566 -11.9928 17
776 1 -4.81643 1.51575 -15.6369 17
777 1 0.906513 3.59807 -15.6984 19
778 1 9.77036 16.5044 6.35172 11
779 1 -6.50471 -3.37969 11.4245 14
780 1 -1.00866 6.60023 -10.744 20
781 1 -11.7403 6.17648 -6.09209 15
782 1 11.2684 13.0313 0.264552 20
783 1 -7.7215 -14.238 3.46369 10
784 1 17.9263 11.8922 2.93889 11
785 1 -11.1762 -8.49109 -9.0202 11
786 1 7.02882 14.984 6.66607 17
787 1 -1.76585 -0.24573 13.3224 18
788 1 2.76809 -10.3425 -10.1605 19
789 1 15.3729 4.28526 2.20453 20
790 1 9.33592 -14.4163 -1.63281 15
791 1 8.35459 18.0352 11.9626 7
792 1 12.5421 -5.14589 -13.2048 14
793 1 8.4505 -8.61937 -2.67358 18
794 1 5.2312 3.00569 -13.2931 22
795 1 -7.42455 1.82165 -11.3008 19
796 1 -6.41656 6.55098 -13.7768 14
797 1 -3.47248 7.13855 10.3075 18
798 1 5.58121 0.408883 13.0854 21
799 1 -7.31088 -8.47157 -3.42004 19
800 1 14.0214 -1.68982 -0.242733 17
801 1 2.35701 6.7816 -10.8219 25
802 1 15.6502 7.8867 0.262413 18
803 1 2.93396 18.5245 4.55901 11
804 1 -9.50289 -7.06336 1.52306 18
805 1 12.8395 -13.8654 -8.42416 9
806 2 -7.81999 1.30345 -9.2979 20
807 2 -3.57652 11.7771 -6.14522 21
808 2 2.24263 -0.247521 -13.9031 18
809 2 -0.220599 6.10733 10.2746 17
810 2 4.67225 -11.5769 -13.0141 21
811 2 -4.53964 -4.14751 -8.74995 22
812 2 5.77501 3.93027 9.94174 19
813 2 3.14144 4.57877 16.3917 12
814 2 -11.4886 -9.84585 -2.60719 13
815 2 -11.4478 6.33862 -9.45678 12
816 2 -0.331202 15.5785 6.8072 16
817 2 -10.7236 0.604124 -0.611319 22
818 2 5.09435 19.1078 -7.70288 10
819 2 13.7672 8.74778 1.47671 15
820 2 2.79789 18.3318 -9.89536 15
821 2 11.7353 12.9042 -8.05003 19
822 2 -9.18197 1.93652 -12.0595 17
823 2 -7.59775 -7.70064 -14.2417 13
824 2 6.35588 10.167 7.33869 20
825 2 10.2358 0.435586 -11.9671 21
826 2 4.76877 -14.5232 0.612193 14
827 2 -6.4667 11.732 -4.72491 19
828 2 -13.2993 4.38649 -9.95842 13
829 2 16.1262 6.45356 1.30359 19
830 2 10.5051 -10.5226 -9.73414 17
831 2 -8.92296 -11.356 -3.41751 15
832 2 -12.4134 -6.42593 -1.92139 12
833 2 -1.26135 -12.0793 -0.157033 19
834 2 10.2729 -3.92254 6.34013 16
835 2 1.03796 -15.5833 -7.4968 13
836 2 4.16093 -1.48329 16.2894 9
837 2 6.50048 11.8212 -11.2616 18
838 2 6.94779 -13.7515 2.64934 10
839 2 -10.0362 -9.18451 -5.90031 17
840 2 -3.67104 3.54744 13.7111 13
841 2 -12.3445 8.37364 1.6258 14
842 2 1.75402 6.47061 13.2311 17
843 2 -4.87031 8.92156 -6.23514 21
844 2 11.9002 -8.20926 -0.262751 20
845 2 2.41652 13.3639 -7.33709 19
846 2 14.3599 14.3805 5.60932 12
847 2 6.25096 20.1312 1.26553 11
848 2 12.1066 1.33905 -8.31791 19
849 2 -4.35833 6.78314 8.60682 20
850 2 7.7344 7.49255 -16.8372 14
851 2 -2.23159 8.5435 -14.1353 20
852 2 11.7975 6.86995 -3.27439 22
853 2 -4.80957 -2.49254 12.7192 16
854 2 -11.8893 9.2232 4.82523 14
855 2 13.4755 1.83357 -11.7072 18
856 2 -8.17973 -7.0714 11.4536 9
857 2 5.34955 -7.89865 -11.4635 17
858 2 2.64346 -3.21993 -19.7721 13
859 2 -7.78248 -7.51809 1.79498 21
860 2 11.3518 15.2118 -0.0129704 17
861 2 -3.40144 9.823 2.04417 20
862 2 -2.41778 -7.3906 -7.95658 21
863 2 -4.21537 12.0055 8.57626 20
864 2 6.47567 -0.394828 14.5896 16
865 2 8.08036 -3.51292 10.8077 16
866 2 16.5336 6.29932 6.05407 16
867 2 10.4828 17.6872 -5.44721 13
868 2 -13.1719 4.99734 -7.13656 13
869 2 14.0287 11.1889 4.24004 18
870 2 10.1135 -7.14864 -2.41714 21
871 2 9.72001 -11.895 -6.48966 19
872 2 -5.46689 10.8857 10.653 14
873 2 8.41457 -8.58386 -0.601748 23
874 2 13.7388 -4.7628 4.52239 16
875 2 15.7324 12.3866 -1.01345 10