ITEM: TIMESTEP
62000
ITEM: NUMBER OF ATOMS
500
ITEM: BOX BOUNDS pp pp pp
-30.0 30.0
-30.0 30.0
-30.0 30.0
ITEM: ATOMS id type x y z Coordination
1 1 16.5053 -12.318 19.4088 18
2 1 13.5163 -8.02267 21.2641 12
3 1 8.57831 -12.5506 4.48176 19
4 1 3.4833 -9.74501 9.92875 17
5 1 14.4949 -8.96891 2.50423 16
6 1 19.0302 -19.2755 8.37688 11
7 1 20.1118 -7.64294 17.4636 13
8 1 14.5511 -4.87999 19.7352 14
9 1 2.4333 -12.4781 11.9398 15
10 1 18.9504 -12.6607 11.1895 17
11 1 15.7149 -13.4745 22.2967 11
12 1 3.14103 -19.5786 15.1628 11
13 1 8.51817 -15.0651 5.67685 19
14 1 14.5564 -18.4723 4.76805 10
15 1 19.0525 -17.7823 14.2416 14
16 1 8.80297 -1.52376 17.7044 11
17 1 13.3157 -1.59047 13.8581 20
18 1 11.7097 -17.3742 3.1295 12
19 1 10.0222 -7.49144 22.6262 9
20 1 5.88763 -6.02357 12.8269 20
21 1 11.1815 -5.37432 6.21227 19
22 1 19.7464 -2.10937 13.5392 12
23 1 6.58713 -2.45954 7.94999 11
24 1 5.14867 -8.18612 4.62562 13
25 1 9.1989 -1.53504 8.39101 15
26 1 3.17893 -4.32226 15.072 10
27 1 11.7011 -6.43508 19.6826 19
28 1 8.21683 -9.41724 2.89299 15
29 1 5.6013 -19.022 18.0762 11
30 1 15.6676 -20.3963 9.81152 14
31 1 4.40551 -13.0301 5.64617 13
32 1 7.26745 -18.5771 13.6984 19
33 1 16.8551 -6.0323 6.08786 15
34 1 8.34163 -18.2983 5.05767 12
35 1 13.7007 -6.12048 1.29096 12
36 1 11.6622 -0.117139 11.1463 13
37 1 2.96024 -8.94346 12.2126 13
38 1 12.7182 -1.59971 18.7616 10
39 1 13.564 -10.8698 22.4074 11
40 1 12.7468 -21.837 9.43484 13
41 1 16.1063 -11.9337 2.7878 10
42 1 18.7494 -13.7864 19.8549 11
43 1 14.0613 -18.6192 17.2421 14
44 1 16.509 -3.36322 11.5561 21
45 1 1.05111 -17.4609 13.2903 9
46 1 7.69048 -21.1759 11.8389 12
47 1 3.96038 -14.4569 20.0222 6
48 1 3.89917 -11.4099 18.1756 13
49 1 14.5454 -21.6872 12.3659 12
50 1 2.9212 -11.492 14.7903 16
51 1 10.1535 -0.417051 14.1767 13
52 1 5.62812 -9.1416 17.0639 19
53 1 9.04707 -5.22373 20.4687 12
54 1 2.50709 -15.9179 7.46838 14
55 1 3.37447 -6.56158 8.74559 15
56 1 9.13991 -16.0751 3.19742 12
57 1 19.3424 -9.95714 19.4418 12
58 1 10.3001 -15.606 20.9999 14
59 1 10.8087 -14.4505 1.17174 9
60 1 2.44181 -12.7577 8.68211 14
61 1 5.53611 -17.6733 15.3515 23
62 1 6.1251 -5.14739 18.8177 14
63 1 10.6179 -20.1375 7.41607 13
64 1 7.89855 -1.5707 14.5864 15
65 1 6.08511 -10.552 5.88585 22
66 1 2.33131 -5.65763 11.8864 12
67 1 5.43507 -16.9165 8.64941 19
68 1 16.4025 -19.9822 15.0711 13
69 1 3.94942 -2.80346 13.0764 11
70 1 5.29736 -10.8397 20.337 13
71 1 4.46911 -7.69377 19.0333 12
72 1 5.61008 -16.473 5.98971 13
73 1 13.5679 -16.4743 22.3193 9
74 1 13.6359 -19.0681 7.75751 18
75 1 14.1198 -13.063 4.73458 18
76 1 17.3085 -17.7714 17.2385 12
77 1 4.98583 -19.5705 9.6546 15
78 1 3.90848 -14.4761 16.8119 14
79 1 22.6017 -14.1065 17.0097 7
80 1 19.3166 -4.04728 10.1833 12
81 1 13.9478 -6.8405 4.35991 24
82 1 11.2349 -5.62727 2.69264 12
83 1 14.1675 -1.93623 10.788 15
84 1 16.1475 -5.73025 2.97664 12
85 1 13.7406 -18.9468 13.7339 19
86 1 17.0811 -17.254 9.72979 22
87 1 11.0941 -20.1942 12.4364 14
88 1 3.29554 -9.66131 7.09521 15
89 1 21.3849 -8.37396 15.0087 10
90 1 5.35205 -5.32596 6.81099 15
91 1 17.9995 -13.8079 4.52519 13
92 1 6.14263 -16.165 17.6583 17
93 1 9.62384 -21.5882 9.96724 11
94 1 11.334 -17.2309 6.14965 20
95 1 16.3898 -17.5383 12.6921 20
96 1 5.07332 -16.9139 12.209 18
97 1 10.4848 -12.3919 22.5957 13
98 1 10.8473 -9.5622 21.2841 18
99 1 18.6641 -16.4375 6.62905 16
100 1 16.5558 -5.94828 9.54324 22
101 1 19.1454 -12.8952 7.60763 13
102 1 9.86681 -11.4338 2.29508 17
103 1 5.49806 -6.50931 16.0416 19
104 1 13.3503 -16.0681 18.9658 17
105 1 5.97565 -11.2446 2.89446 10
106 1 19.7739 -15.8672 16.5026 14
107 1 17.4113 -6.46465 18.8238 13
108 1 11.285 -18.6567 18.9516 11
109 1 18.723 -10.1274 16.0678 22
110 1 19.3796 -5.01853 15.8887 15
111 1 16.9966 -3.75214 17.654 15
112 1 8.05224 -6.92722 5.27435 18
113 1 7.60229 -18.3041 10.3593 18
114 1 6.25251 -2.87291 11.0864 15
115 1 16.4395 -3.29561 8.55379 14
116 1 12.9688 -14.03 20.8696 20
117 1 13.8874 -15.8253 5.92687 21
118 1 16.4118 -0.467412 13.447 14
119 1 16.7873 -19.1153 6.04468 10
120 1 15.838 -15.615 20.57 14
121 1 6.81637 -7.83297 20.964 15
122 1 21.5978 -10.6235 17.6639 12
123 1 11.5805 -2.1257 5.70666 9
124 1 16.5496 -11.7322 6.04677 17
125 1 8.09434 -13.2587 20.9326 15
126 1 8.27462 -16.5149 19.0714 16
127 1 5.56321 -3.18923 16.41 12
128 1 16.2059 -3.29071 14.6292 23
129 1 1.79145 -16.9065 16.0058 10
130 1 19.7891 -13.0341 14.4512 18
131 1 4.40724 -19.9326 12.5914 16
132 1 18.9232 -7.3532 14.1665 21
133 1 19.9085 -18.3869 11.0334 14
134 1 14.8897 -1.39687 16.5768 16
135 1 1.08999 -15.3989 10.5003 11
136 1 13.5839 -3.24235 3.33829 10
137 1 6.26602 -14.0927 7.49114 20
138 1 16.5354 -16.4203 3.99366 13
139 1 7.81298 -19.5114 7.96272 14
140 1 18.9623 -15.6015 12.3624 16
141 1 1.10817 -14.3751 13.8946 10
142 1 11.1653 -8.64304 0.983284 10
143 1 4.1286 -19.0469 6.97233 9
144 1 19.9807 -12.9038 17.2892 17
145 1 12.9558 -11.7234 1.76169 13
146 1 8.25587 -4.35526 16.3289 20
147 1 8.24163 -10.6015 19.4661 21
148 1 18.4211 -2.07734 15.9871 11
149 1 18.814 -4.6608 12.8332 18
150 1 8.26144 -19.1132 17.1824 16
151 1 16.9179 -9.06075 4.13562 14
152 1 15.0308 -4.16864 5.48149 13
153 1 11.2334 -0.293915 16.6877 11
154 1 12.6925 -1.68475 8.01273 12
155 1 19.369 -7.01664 8.35594 11
156 1 19.4027 -15.5142 9.42565 17
157 1 11.4506 -3.85122 18.3356 19
158 1 8.45214 -1.27112 11.4825 14
159 1 6.14399 -21.0195 15.0494 14
160 1 17.8252 -20.5152 11.494 14
161 1 1.98876 -18.6902 10.0473 10
162 1 3.52739 -3.51978 9.72499 13
163 2 3.1785 -9.58226 14.1426 18
164 2 19.6301 -10.4602 17.5904 15
165 2 5.92856 -12.2567 6.90574 19
166 2 6.82139 -20.0916 16.678 11
167 2 14.0392 -12.6637 22.2105 15
168 2 7.2377 -1.74369 12.8735 14
169 2 18.7952 -19.9162 10.2044 11
170 2 8.62261 -8.53673 4.43365 16
171 2 11.0821 -15.7553 2.52387 12
172 2 10.6454 -4.87329 19.6351 15
173 2 18.6664 -14.4998 14.0229 19
174 2 18.6675 -5.61526 17.6315 14
175 2 10.7941 -1.74326 18.0896 12
176 2 14.8512 -0.669287 14.7663 11
177 2 15.2249 -4.17311 3.58419 12
178 2 16.4203 -12.8491 4.40196 17
179 2 3.6246 -11.1953 8.56127 17
180 2 7.69543 -17.5182 15.3321 22
181 2 3.31425 -6.14179 15.2816 14
182 2 18.2966 -18.2611 6.77466 14
183 2 5.64058 -20.4756 11.2384 14
184 2 13.3723 -3.54121 18.9344 14
185 2 13.3333 -12.7584 19.3756 23
186 2 3.96468 -18.8577 16.8082 12
187 2 11.3713 -18.9895 13.8292 14
188 2 1.54722 -18.4763 11.8414 11
189 2 9.73075 -21.2231 11.6366 12
190 2 3.15101 -19.4706 8.86554 12
191 2 7.30415 -2.47188 17.1047 11
192 2 17.4157 -4.14101 9.94049 18
193 2 12.9126 -4.60182 2.25841 11
194 2 19.5601 -9.20635 14.5019 17
195 2 13.2499 -0.775499 12.1535 15
196 2 8.71789 -6.15107 16.2241 19
197 2 12.225 -1.60756 9.96131 14
198 2 10.2257 -3.37943 5.44127 13
199 2 11.5515 -7.49049 21.406 13
200 2 10.7205 -13.6459 20.904 17
201 2 16.317 -18.2099 4.37125 10
202 2 11.7717 -18.5239 7.64894 17
203 2 1.61308 -16.91 9.25638 10
204 2 19.0936 -17.4889 9.42446 15
205 2 16.3267 -4.68538 15.8895 21
206 2 12.7041 -9.69237 1.46526 13
207 2 13.0026 -17.6115 4.66065 15
208 2 8.17088 -13.917 7.82726 23
209 2 15.0146 -19.1105 6.39978 13
210 2 18.27 -12.6116 6.01273 14
211 2 12.9749 -14.4261 5.09148 20
212 2 8.20843 -20.4239 9.72972 15
213 2 13.6053 -8.70271 4.44466 21
214 2 4.36243 -20.6867 14.4549 11
215 2 5.51042 -3.66906 9.30529 14
216 2 2.22008 -17.9827 14.6997 14
217 2 1.95225 -13.542 10.264 12
218 2 18.9401 -14.6172 17.9218 20
219 2 13.1232 -0.589427 17.2032 12
220 2 11.7339 -11.1499 22.2435 15
221 2 5.84838 -4.98358 17.0136 15
222 2 2.51294 -13.8454 7.13591 12
223 2 19.3671 -6.01287 9.96882 13
224 2 1.86279 -12.5466 13.6574 11
225 2 9.33191 -6.03224 6.30857 19
226 2 14.1228 -12.3642 2.92604 14
227 2 2.87576 -5.2421 10.0785 10
228 2 16.2411 -21.3729 11.4774 11
229 2 10.9986 -21.4969 8.60827 12
230 2 4.53354 -3.18516 14.9208 13
231 2 15.0171 -20.5365 13.8189 14
232 2 16.2692 -4.90362 19.0632 11
233 2 9.32888 -3.02699 11.0757 19
234 2 15.0638 -15.0884 22.9049 8
235 2 11.9761 -7.01444 1.32363 12
236 2 13.9333 -15.8128 20.7583 16
237 2 19.5318 -3.0968 11.8541 11
238 2 16.6809 -2.08402 16.665 13
239 2 5.09958 -18.1543 13.5109 18
240 2 13.6846 -6.52922 19.7365 15
241 2 21.2341 -14.8228 16.0203 9
242 2 14.8844 -7.11377 2.66005 15
243 2 12.9317 -9.34726 17.9967 24
244 2 16.0585 -15.67 15.7036 21
245 2 5.32097 -14.7314 5.60322 13
246 2 6.54252 -3.99168 6.62885 12
247 2 3.07084 -8.43722 8.62058 14
248 2 11.6671 -16.4272 21.8011 11
249 2 18.0402 -1.31561 14.1867 13
250 2 9.27149 -14.214 4.06933 17
251 2 21.3544 -8.971 16.8541 11
252 2 4.1329 -2.69019 11.17 11
253 2 18.8224 -17.3747 16.1374 14
254 2 8.23097 -15.4826 20.7231 12
255 2 4.17392 -17.0291 7.11733 15
256 2 7.69349 -1.57882 9.61875 11
257 2 7.84928 -5.34155 19.1709 14
258 2 12.9725 -17.9739 18.4894 13
259 2 2.95124 -4.43045 13.0493 11
260 2 9.31525 -9.28732 22.8421 12
261 2 5.09569 -8.9625 6.53543 19
262 2 16.6619 -4.36983 13.0493 24
263 2 8.55413 -7.108 21.2259 16
264 2 11.3686 -12.7511 1.33961 11
265 2 7.56772 -17.4264 8.39345 20
266 2 15.612 -10.6429 19.0552 17
267 2 20.3359 -8.37843 8.76031 7
268 2 15.8734 -18.7248 16.4472 14
269 2 6.88319 -10.104 21.1297 14
270 2 4.85448 -11.7371 4.47853 12
271 2 5.44066 -10.3677 15.6141 21
272 2 2.06773 -15.1594 15.2912 11
273 2 5.66561 -17.842 10.5174 21
274 2 11.5971 -6.59234 4.56944 18
275 2 16.4382 -4.25465 6.94001 13
276 2 15.8069 -15.7255 5.79162 21
277 2 18.872 -8.04212 18.9921 11
278 2 20.5786 -6.55297 15.6785 11
279 2 10.891 -1.4696 7.5156 13
280 2 7.41701 -16.6263 5.23789 15
281 2 9.24449 -0.573642 16.0608 12
282 2 8.7094 -3.45111 7.81052 17
283 2 5.42656 -6.49928 8.18183 20
284 2 5.57477 -7.00775 20.0542 14
285 2 18.3616 -15.7725 4.83222 11
286 2 6.0289 -6.64645 5.59313 14
287 2 9.97835 -9.46128 2.02983 12
288 2 16.9718 -13.6963 20.8563 13
289 2 4.51394 -9.5606 19.0409 13
290 2 3.92817 -12.4458 16.5503 16
291 2 18.3754 -11.7933 19.4335 16
292 2 3.55401 -7.2232 12.1606 19
293 2 4.10716 -12.424 19.8114 8
294 2 13.3398 -18.0668 15.3198 16
295 2 21.8744 -12.4468 17.4632 9
296 2 12.8948 -20.6517 11.6017 17
297 2 10.0617 -0.330578 12.2191 14
298 2 7.98217 -11.3824 2.77165 14
299 2 4.79669 -14.9812 18.4958 11
300 2 16.7807 -16.1862 18.8119 18
301 2 16.9702 -7.04056 4.31328 15
302 2 19.3348 -3.5893 14.6765 15
303 2 18.7274 -12.2034 15.9536 20
304 2 18.6916 -14.6756 7.73241 16
305 2 19.8389 -17.6695 12.6157 13
306 2 15.9782 -9.97888 2.99159 14
307 2 1.13743 -15.5317 12.3989 11
308 2 2.8922 -10.7685 11.3079 17
309 2 17.5049 -18.8822 13.7069 17
310 2 14.4902 -2.60658 8.83399 17
311 2 19.0011 -9.17131 11.1938 17
312 2 13.1855 -3.37396 5.26322 15
313 2 19.471 -14.4153 11.0752 17
314 2 14.0413 -20.8695 8.71702 13
315 2 9.11353 -19.4778 6.26446 11
316 2 16.1885 -1.64727 11.9588 16
317 2 11.6418 -1.32377 14.82 19
318 2 7.39836 -20.6094 13.7144 14
319 2 8.47772 -12.1066 22.484 12
320 2 19.4704 -6.52864 12.6424 18
321 2 16.3852 -9.65897 6.1953 17
322 2 6.06084 -9.25306 3.20397 10
323 2 5.74112 -19.8593 7.91087 13
324 2 16.4311 -18.7677 10.5984 20
325 1 5.39926 -11.6033 8.94858 23
326 1 5.88562 -14.3089 10.7641 17
327 1 11.6393 -17.311 9.27966 17
328 1 11.4494 -11.3753 5.80373 20
329 1 8.76532 -12.2501 7.54797 21
330 1 11.3454 -14.4106 7.66564 20
331 1 8.42049 -15.5269 9.06851 19
332 1 11.1957 -11.4323 9.29401 21
333 1 7.90669 -12.3626 10.6934 24
334 1 10.7506 -14.6184 10.6938 22
335 2 5.6249 -14.9333 9.03557 20
336 2 5.88193 -12.2906 10.6122 22
337 2 11.5366 -18.3658 10.8531 22
338 2 10.5947 -12.1858 4.04507 24
339 2 8.30436 -11.1854 5.89534 23
340 2 9.82446 -17.7862 3.9396 12
341 2 10.4798 -15.486 5.97271 24
342 2 11.1988 -12.3085 7.41081 22
343 2 8.89218 -11.4335 9.19417 20
344 2 10.762 -15.6951 9.08587 19
345 2 8.62392 -14.4393 10.7369 20
346 2 11.2244 -12.7912 10.8684 19
347 1 4.80734 -11.6461 12.1217 24
348 1 5.86271 -14.4102 14.3108 20
349 1 5.52177 -12.2678 15.6943 18
350 1 10.6118 -17.4646 12.3434 21
351 1 11.3106 -17.9897 15.4291 18
352 1 8.12636 -15.4978 12.5785 22
353 1 10.3464 -11.9091 12.5934 22
354 1 8.40764 -12.5599 14.4659 21
355 1 11.2125 -14.8838 14.0288 21
356 1 8.7736 -15.8725 15.9417 23
357 1 11.02 -12.1867 16.2952 23
358 1 8.43719 -13.4432 17.5134 19
359 1 11.2864 -15.1949 17.4482 24
360 1 10.6679 -12.2661 19.2851 20
361 2 6.08083 -15.0865 12.6068 19
362 2 4.96033 -12.833 13.6564 21
363 2 8.25948 -17.2458 11.9443 20
364 2 6.82504 -17.815 18.6989 15
365 2 8.45568 -11.7357 12.8334 20
366 2 11.2543 -15.6656 12.2653 20
367 2 5.27798 -15.7884 15.9374 21
368 2 8.10698 -14.6067 14.5753 19
369 2 7.64043 -12.1674 16.1386 21
370 2 10.8136 -16.0218 15.4732 19
371 2 7.8819 -15.3594 17.5967 20
372 2 10.7489 -13.356 17.6942 21
373 2 10.2424 -16.8353 19.4609 15
374 1 6.14578 -8.34081 8.0085 21
375 1 5.52886 -5.54034 10.0163 20
376 1 6.39757 -8.61757 10.783 21
377 1 11.3225 -8.50202 4.45792 22
378 1 9.11067 -9.57029 5.88761 22
379 1 8.48769 -4.1098 5.91699 14
380 1 8.4859 -6.20026 7.88025 22
381 1 11.6025 -8.55891 7.77959 25
382 1 8.80612 -9.43048 9.42746 19
383 1 11.4823 -6.15957 9.29522 19
384 1 8.57398 -6.8768 11.2842 21
385 1 11.391 -8.93375 11.1003 21
386 1 9.48861 -4.19963 9.62678 21
387 1 11.325 -3.02205 11.2849 22
388 2 5.52427 -9.73073 9.21975 22
389 2 6.51787 -6.70376 11.1252 23
390 2 11.3168 -9.45893 6.04228 18
391 2 8.00536 -8.36613 7.47965 21
392 2 11.9225 -6.76436 7.49357 19
393 2 9.122 -6.07862 9.65126 23
394 2 10.8081 -8.95589 9.4213 21
395 2 8.44634 -8.93206 11.2714 21
396 2 11.848 -6.85225 11.063 25
397 2 11.6454 -4.34598 9.83152 23
398 2 6.16232 -4.2606 12.3237 19
399 1 5.34915 -9.13505 14.0675 22
400 1 3.3207 -8.03302 15.3261 13
401 1 7.85297 -9.80282 12.8838 21
402 1 11.1184 -6.1605 13.0943 24
403 1 8.27556 -7.47609 14.5573 21
404 1 10.5806 -9.32165 14.5984 23
405 1 8.26129 -10.0755 16.2287 22
406 1 11.1046 -6.32771 16.3213 21
407 1 8.53974 -7.15146 18.0273 23
408 1 10.9575 -9.25978 17.7572 19
409 1 7.76615 -10.4694 22.934 11
410 1 8.45755 -4.01214 12.7781 19
411 1 10.7504 -3.17188 15.09 22
412 2 5.78101 -9.79115 12.2782 21
413 2 6.39057 -7.51206 14.6992 21
414 2 4.23505 -7.81312 17.1164 15
415 2 9.04694 -6.02571 13.1266 23
416 2 11.2031 -9.75346 12.7313 20
417 2 8.73826 -9.31894 14.4396 21
418 2 11.4492 -7.43563 14.5454 22
419 2 7.55098 -8.90397 17.5958 23
420 2 10.1078 -10.3883 16.5666 22
421 2 8.42706 -12.3703 19.1552 17
422 2 10.5561 -7.20104 17.9086 22
423 2 13.559 -9.72593 20.935 15
424 2 11.4386 -4.18777 13.5197 20
425 2 8.87258 -3.17562 14.7587 19
426 2 11.4969 -4.43223 16.5448 20
427 1 13.6439 -18.6044 10.9403 22
428 1 11.2325 -14.184 4.19407 23
429 1 14.0309 -12.5085 7.87328 22
430 1 16.2269 -14.674 7.39758 23
431 1 14.1878 -15.8315 9.13125 23
432 1 16.7283 -11.6663 9.08123 20
433 1 13.3585 -12.6269 11.0466 21
434 1 16.0632 -14.5614 10.7506 22
435 2 13.8061 -17.5445 9.33547 20
436 2 13.4187 -11.5479 6.10659 21
437 2 13.452 -14.6397 7.65011 20
438 2 15.8436 -12.7332 7.63777 23
439 2 13.4072 -11.3916 9.51793 20
440 2 16.2891 -15.6733 9.04549 20
441 2 14.0626 -14.4392 10.6994 22
442 2 16.5002 -12.671 10.9952 19
443 2 18.9458 -11.8069 9.29635 15
444 1 13.7933 -15.8204 12.132 21
445 1 15.935 -11.6692 12.7384 21
446 1 13.7187 -13.0619 14.2095 21
447 1 16.919 -14.5423 14.5506 21
448 1 14.2041 -16.2023 15.8275 22
449 1 16.7958 -12.3703 16.0085 24
450 1 14.1615 -13.5575 17.5204 23
451 1 17.0292 -14.9394 17.4786 20
452 2 14.4175 -17.6537 12.4891 21
453 2 10.1317 -18.7398 17.2474 15
454 2 13.6585 -11.7787 12.7138 19
455 2 17.1491 -15.962 11.4793 21
456 2 13.9617 -14.9826 13.8637 21
457 2 15.979 -12.8915 14.1327 19
458 2 10.5478 -13.1004 14.3635 23
459 2 13.2626 -15.3528 17.1861 22
460 2 16.0184 -13.0844 17.6108 23
461 2 10.1504 -10.2765 19.2797 22
462 2 19.3365 -11.9006 12.8536 17
463 1 14.4865 -9.75795 5.91345 23
464 1 13.8781 -6.84975 7.89825 23
465 1 16.0946 -8.56817 7.88909 18
466 1 13.8732 -9.69543 9.71089 21
467 1 20.0099 -7.33298 11.2147 13
468 1 13.9189 -7.16256 11.339 21
469 1 17.0596 -8.79148 11.1723 23
470 1 13.6356 -4.19858 9.84598 18
471 1 19.8449 -10.1651 9.61744 12
472 2 14.707 -6.29982 6.07258 21
473 2 14.0866 -8.68931 7.69861 21
474 2 17.2742 -6.92454 7.91054 18
475 2 14.4152 -6.01355 9.56738 24
476 2 15.9516 -9.8438 9.45986 23
477 2 13.1881 -9.13355 11.4698 22
478 2 16.0386 -7.18767 11.2289 23
479 2 14.4425 -3.67841 11.6298 23
480 1 13.4058 -9.89671 13.1908 20
481 1 16.1042 -6.16228 12.819 22
482 1 13.5038 -7.46212 14.5664 23
483 1 16.0862 -9.07021 14.6635 21
484 1 13.7873 -10.4225 16.5224 21
485 1 15.7078 -6.63344 16.1008 21
486 1 13.8927 -7.59384 17.9456 22
487 1 16.301 -9.24737 18.2651 20
488 1 13.5985 -10.9599 19.531 20
489 1 13.4936 -4.55634 13.102 25
490 1 13.4192 -4.22212 16.2746 22
491 1 19.0115 -9.96403 12.8134 18
492 2 14.359 -6.5741 13.1133 22
493 2 16.8999 -9.95207 12.9735 21
494 2 14.1355 -9.36792 15.0668 22
495 2 16.974 -7.36784 14.4944 23
496 2 13.7156 -6.03008 16.0624 23
497 2 16.1653 -10.4179 16.2888 21
498 2 13.1668 -12.3649 16.0523 22
499 2 15.925 -7.66035 17.4953 20
500 2 14.2447 -3.54904 14.7692 25
