ITEM: TIMESTEP
22000
ITEM: NUMBER OF ATOMS
2000
ITEM: BOX BOUNDS pp pp pp
-30.0 30.0
-30.0 30.0
-30.0 30.0
ITEM: ATOMS id type x y z Coordination
1 1 -10.2744 2.8233 -11.1413 13
2 1 -6.72432 -13.0749 -9.75696 16
3 1 4.29204 9.65255 16.9834 17
4 1 6.87864 -12.1169 6.53935 16
5 1 -12.824 5.93511 -2.2011 17
6 1 11.3687 -10.3562 -9.6687 12
7 1 -12.4438 -0.0385194 -4.38703 21
8 1 -5.32952 -11.5719 14.8618 11
9 1 -10.4222 -1.31856 -9.23147 20
10 1 -15.9642 -10.8497 6.30458 11
11 1 11.8073 1.31518 -6.36115 20
12 1 -4.33283 2.26958 -4.55329 19
13 1 -2.41347 -14.9193 3.1704 22
14 1 -14.0579 -8.45337 4.73086 20
15 1 0.104953 2.08422 19.9496 17
16 1 4.9183 -5.21933 6.92034 21
17 1 1.12552 2.41562 11.3067 19
18 1 7.45146 -3.99952 2.86037 20
19 1 -3.39812 6.05594 -7.28847 20
20 1 1.67126 -4.73821 15.2397 16
21 1 -10.0593 -3.69473 -11.86 18
22 1 -12.0287 -6.32699 13.7217 12
23 1 12.1826 0.600149 13.4169 20
24 1 2.11481 10.5468 -11.4523 10
25 1 1.40443 -0.0771164 -12.1866 19
26 1 11.0188 -3.42492 11.9539 18
27 1 -9.12246 -3.42148 2.35466 17
28 1 -15.7279 0.51455 -6.55435 11
29 1 -5.14984 -3.94171 -5.7866 22
30 1 -11.5327 7.68967 11.2575 14
31 1 6.43488 -17.3295 5.64322 15
32 1 -0.878848 -3.64615 9.6026 22
33 1 1.70128 -14.541 -9.17557 11
34 1 7.15656 -11.537 0.584544 18
35 1 -7.96064 -15.5111 -3.42854 16
36 1 -11.511 -10.0465 14.4274 11
37 1 3.41698 -4.16244 -1.74261 22
38 1 0.815523 -8.91541 -10.8346 16
39 1 8.995 -11.3632 -12.1314 13
40 1 -4.80072 0.877779 -14.1105 13
41 1 -0.404338 1.39313 16.6954 22
42 1 -1.58334 -14.3171 8.41931 20
43 1 4.39562 -8.84727 13.6255 13
44 1 -12.9627 -3.416 2.08664 18
45 1 -14.4665 -4.89838 9.43464 19
46 1 -11.0256 -5.7883 0.37715 19
47 1 -3.43178 12.3691 -0.261947 21
48 1 -1.32388 -16.3062 -6.82594 13
49 1 -0.166245 -0.82988 -9.61249 21
50 1 4.16746 -6.18943 -9.28619 22
51 1 -3.69113 -6.02093 17.8697 11
52 1 -12.9788 3.95027 0.910404 22
53 1 5.36594 10.6458 -10.1908 12
54 1 4.91172 12.6066 12.5836 16
55 1 -8.46413 6.96044 -5.29116 21
56 1 -4.20102 11.3123 2.53007 19
57 1 3.1238 -11.0304 6.82219 19
58 1 5.34998 -5.04903 -4.63792 20
59 1 5.17123 -6.55168 -12.4359 17
60 1 -8.71756 8.57098 13.5547 12
61 1 -14.8403 -5.39925 -5.32235 16
62 1 4.32622 0.196736 9.08579 21
63 1 -10.0992 4.88607 -3.99445 21
64 1 -7.92221 -10.5719 5.83488 21
65 1 -4.04966 9.29549 13.8029 19
66 1 -14.2832 2.77604 -6.40557 14
67 1 -6.16527 9.91512 14.8293 13
68 1 -1.8303 3.78718 -1.87714 22
69 1 2.6436 3.19879 9.13777 20
70 1 -8.71507 -13.8415 7.23407 20
71 1 2.27348 5.47698 11.3613 23
72 1 6.50068 -16.4805 0.209139 18
73 1 3.59101 9.01414 19.6013 11
74 1 -15.5809 -3.11112 -6.81786 12
75 1 -12.059 0.42339 -10.4723 16
76 1 5.84201 4.02078 17.7208 23
77 1 11.8162 -4.00377 -8.37655 18
78 1 7.64094 -12.9551 3.54821 16
79 1 -14.8025 -1.68242 6.90432 18
80 1 -11.2084 -6.09072 3.25281 24
81 1 7.36581 13.7169 5.55851 15
82 1 1.17003 -6.53558 12.7333 23
83 1 -5.82621 -15.026 8.33655 22
84 1 -11.8359 -2.80931 -0.979044 22
85 1 9.51278 0.594894 11.7793 18
86 1 6.73399 -2.19998 0.219969 23
87 1 -0.621375 9.89021 12.2815 18
88 1 2.0325 -2.69021 9.23961 23
89 1 -9.82705 -8.37079 1.01438 20
90 1 -4.4082 -9.4361 -7.27642 21
91 1 -14.0166 6.20714 11.3224 9
92 1 -7.79355 13.2599 -2.17447 13
93 1 -6.3732 6.05288 -7.97974 21
94 1 2.1657 0.19506 -4.04573 20
95 1 3.55254 -2.24485 -4.50028 22
96 1 6.95068 10.1688 -4.56612 16
97 1 9.86635 -10.6328 5.69045 14
98 1 3.4289 -8.42062 10.7172 21
99 1 -5.16689 14.9231 -2.19921 9
100 1 -11.1214 10.2264 6.55891 17
101 1 -7.82887 -5.22654 16.0333 16
102 1 -5.32382 9.45537 8.17877 18
103 1 -7.02276 -5.01923 8.38083 21
104 1 11.0117 -9.78053 -2.52557 21
105 1 -9.50178 3.67894 7.09291 20
106 1 -12.0711 -15.8729 3.73033 15
107 1 9.12085 -6.32934 -3.11964 22
108 1 3.15516 -3.45357 -10.2437 16
109 1 -8.10468 -4.8922 -14.2921 13
110 1 3.53002 -2.06311 6.41974 20
111 1 0.164199 9.1026 6.48102 21
112 1 -10.7073 2.45292 -5.36781 24
113 1 2.57054 7.26687 21.5653 8
114 1 -1.95054 10.1554 -2.421 21
115 1 -13.713 9.67276 2.15381 12
116 1 -0.388199 7.48171 3.40637 20
117 1 -6.78744 -9.46783 8.5959 19
118 1 11.525 -1.17649 9.98946 17
119 1 -2.13278 -8.45468 -5.08031 22
120 1 6.49451 -8.59645 -5.06517 21
121 1 -3.32501 3.47864 6.26096 22
122 1 4.35013 -5.97722 16.3313 11
123 1 -13.7137 -10.9513 0.875415 19
124 1 5.70515 -6.68994 3.56047 19
125 1 -7.60686 -8.9179 -2.09207 18
126 1 10.3626 -9.3833 2.65349 16
127 1 -4.81257 6.20895 6.07482 20
128 1 8.34696 1.94519 -9.16817 15
129 1 2.81075 15.1697 1.0248 12
130 1 -8.94045 -14.3019 14.0988 10
131 1 -11.5704 -15.682 12.3461 10
132 1 -5.09502 4.34863 3.08673 21
133 1 3.56309 -10.8151 -14.2611 12
134 1 3.64194 6.24187 -7.53206 23
135 1 12.8802 -9.3887 0.9996 11
136 1 -2.04193 -17.7856 8.67776 14
137 1 -8.76392 -14.087 0.762185 21
138 1 16.4282 4.46319 13.0224 12
139 1 13.5781 -3.76281 -5.93088 13
140 1 -16.1603 -6.85813 3.02583 11
141 1 12.3188 7.36432 7.20609 22
142 1 15.5019 7.25576 6.20816 9
143 1 -5.07229 2.1998 17.3884 16
144 1 7.32144 3.97247 1.47111 21
145 1 -3.31022 10.0644 10.5702 21
146 1 -6.13523 14.3903 -5.10181 11
147 1 -4.93664 -10.4432 -12.5043 16
148 1 9.72321 -12.021 -7.65806 16
149 1 3.83141 13.3678 -10.1499 9
150 1 6.60902 -4.52976 10.7854 21
151 1 0.772807 -5.60097 -15.0211 15
152 1 -6.61235 7.03345 -2.70943 17
153 1 10.7301 -3.9638 -4.2992 18
154 1 -11.4636 8.14516 -4.6865 17
155 1 -8.94399 12.7722 1.51187 12
156 1 8.68805 0.786328 -5.67967 19
157 1 4.81327 -12.0643 1.74079 15
158 1 -7.10219 2.16524 -6.35686 19
159 1 -3.4826 14.7504 11.1112 10
160 1 11.7794 7.20184 -7.62688 10
161 1 4.21768 9.72292 0.854571 22
162 1 -2.84839 16.6398 3.25602 9
163 1 9.11182 6.93599 0.182492 19
164 1 -5.00476 9.80614 -2.96358 16
165 1 0.311783 13.7164 -8.74523 9
166 1 1.71031 7.2362 -13.262 13
167 1 -14.1813 -13.0064 4.80786 16
168 1 -13.8208 7.71591 -0.243588 13
169 1 -6.26428 -7.12819 -12.5885 18
170 1 -0.993919 -11.6274 -10.9531 18
171 1 10.1674 9.46065 12.8515 15
172 1 2.32117 13.1412 9.73047 15
173 1 -12.3333 -7.82717 -4.43184 24
174 1 -10.0459 11.387 -0.867894 15
175 1 14.1768 -2.83568 -0.971198 16
176 1 -13.1535 -2.35144 -12.6309 12
177 1 5.55309 -1.33002 19.0459 16
178 1 4.20253 14.1944 6.30363 15
179 1 -6.86477 11.0141 10.2503 19
180 1 0.949554 -11.0364 -13.128 17
181 1 -2.97647 12.5134 13.8006 8
182 1 -2.75643 7.72597 -4.34884 18
183 1 2.32275 -8.26991 15.1112 12
184 1 -11.1361 -7.2542 6.17779 22
185 1 -4.90039 -15.2268 -11.0787 9
186 1 -8.48778 8.75157 -9.21539 13
187 1 -3.27081 -12.39 3.3715 19
188 1 5.01656 -17.3809 -2.88253 13
189 1 -4.09471 4.67192 -9.78882 18
190 1 -16.5884 -2.65631 8.71809 12
191 1 -1.45616 6.27127 0.688926 21
192 1 10.3468 7.22185 -2.72305 18
193 1 -7.83664 4.75792 16.9546 12
194 1 -1.21334 -11.5846 10.6016 22
195 1 -11.8584 -0.374302 2.02065 17
196 1 0.877279 13.6735 4.27721 15
197 1 -0.663937 6.11267 12.5045 19
198 1 12.4537 1.45458 15.7564 13
199 1 -4.85065 12.8338 8.37678 18
200 1 11.9901 -7.5074 -9.07568 16
201 1 -5.39761 12.6826 13.0082 13
202 1 -8.21088 -2.57255 -7.24582 16
203 1 12.3413 -8.64975 4.9897 13
204 1 -5.00509 -7.20602 8.50693 21
205 1 -17.349 -0.388767 5.79836 11
206 1 -8.78326 -11.4159 2.77322 20
207 1 6.91846 6.26338 19.6534 14
208 1 -17.4169 -3.09065 -0.876191 9
209 1 -3.57133 -16.4083 0.653096 20
210 1 -8.23104 -5.50278 0.777163 20
211 1 3.7723 -8.66802 -3.1245 18
212 1 -4.50479 9.45404 5.00148 18
213 1 -7.42092 -1.22999 3.57763 18
214 1 4.90763 9.56504 12.9127 21
215 1 -6.28341 -4.46438 -1.98266 19
216 1 -7.18252 11.7371 -7.51994 12
217 1 -15.7707 -8.28127 -4.94837 14
218 1 -7.23009 -2.71954 14.2685 20
219 1 -0.573864 -12.9518 4.8197 20
220 1 3.14954 -15.7461 9.65793 11
221 1 -13.1837 8.54254 5.2685 15
222 1 12.9457 3.06313 7.90198 17
223 1 6.51647 2.12894 -1.48375 19
224 1 -7.59083 -10.2347 -13.9508 15
225 1 6.72365 -0.647173 11.0686 21
226 1 5.32951 -17.1093 8.1605 9
227 1 -1.90721 3.45057 -11.6464 19
228 1 3.38106 -12.0874 -11.3888 16
229 1 7.97582 -1.47752 -11.0627 20
230 1 4.26645 5.39076 -13.0755 9
231 1 -7.72038 -5.54834 -5.1032 21
232 1 -3.65415 10.7761 -5.29173 21
233 1 -11.8393 -12.5495 12.3718 13
234 1 5.26043 12.9134 0.843039 18
235 1 -8.59202 1.92194 17.2849 11
236 1 -6.56835 11.6671 -0.192206 17
237 1 5.4927 -2.95248 8.53861 24
238 1 -6.48589 -8.10513 -15.625 12
239 1 -5.92817 8.5873 -6.13731 23
240 1 0.730619 3.73622 -8.15279 22
241 1 -10.6454 -12.3513 5.39942 21
242 1 -5.66553 4.47166 11.1974 21
243 1 -7.32645 5.71276 8.27452 19
244 1 -0.126764 -13.4629 -6.83443 17
245 1 -5.9718 -18.1114 1.66947 10
246 1 11.0957 -14.3196 -1.97639 12
247 1 3.95837 -8.03345 1.41932 19
248 1 12.3735 4.18519 16.7748 13
249 1 6.68068 8.23729 -8.96186 16
250 1 -2.31276 9.41784 0.971452 19
251 1 -10.9724 -0.27034 5.96406 19
252 1 -11.0104 9.5393 1.04307 18
253 1 1.8632 1.63749 14.4914 22
254 1 3.78616 -19.8713 5.20126 9
255 1 11.4631 0.601591 -1.47223 19
256 1 -0.172324 7.75075 10.0417 23
257 1 -11.7735 4.51883 8.36484 19
258 1 -10.9942 -10.8007 -4.57141 20
259 1 3.05719 0.619852 -8.92083 21
260 1 4.19504 -2.34933 11.2792 23
261 1 5.16628 9.0497 -6.64803 19
262 1 3.28834 -11.7092 -2.6726 18
263 1 -1.70252 -5.45864 -5.58909 21
264 1 -2.2339 -19.3158 5.99883 14
265 1 6.92104 -1.94993 -5.73403 20
266 1 -10.3946 -5.49407 8.13643 19
267 1 1.71218 -18.0628 -1.73843 14
268 1 -10.4956 -8.5252 -7.28451 20
269 1 2.22718 11.3923 -0.903476 19
270 1 -1.10336 -6.18034 -10.6201 22
271 1 4.34258 1.80817 19.5153 18
272 1 13.7555 2.2523 2.85636 13
273 1 -6.20883 -7.51115 5.02179 22
274 1 8.36225 -3.32713 -8.65087 19
275 1 -2.46534 -9.88403 4.43533 22
276 1 -9.37644 -8.83154 -11.988 17
277 1 -12.3006 -2.80505 -6.72263 21
278 1 -8.65388 -17.4851 10.8417 12
279 1 9.1021 -3.03666 15.3582 18
280 1 0.47929 -6.03288 9.8909 22
281 1 -6.84307 -9.94304 -9.40831 18
282 1 0.235618 -7.65268 6.815 20
283 1 -1.67032 6.79914 -13.3561 13
284 1 5.30648 4.71009 3.84733 20
285 1 -10.6629 -11.4539 0.24024 15
286 1 2.22759 6.65554 5.12128 17
287 1 -6.81399 -2.91618 10.9557 21
288 1 -9.33636 -11.0084 -8.161 15
289 1 -4.61998 -7.87725 -10.2456 21
290 1 -3.17687 3.86793 -14.7049 11
291 1 -7.67856 -10.9461 -4.46484 18
292 1 -5.9986 -10.4514 3.404 20
293 1 8.4778 -4.95403 -11.4027 17
294 1 13.5955 -0.778128 -8.07766 13
295 1 9.94601 0.780775 7.76684 21
296 1 -2.5215 -7.39648 0.0250607 21
297 1 -9.66184 -8.58716 12.6313 21
298 1 -4.78711 -13.0997 0.525363 19
299 1 7.58678 1.60895 19.0487 16
300 1 -7.78801 -17.7007 7.78335 16
301 1 0.940153 3.47486 -3.49542 19
302 1 -0.543163 -11.3802 2.19716 20
303 1 -1.83931 14.9906 -0.870582 13
304 1 5.29583 -1.20039 -11.5941 15
305 1 -11.5385 -5.19305 -14.2928 12
306 1 2.47375 -7.17466 4.26452 21
307 1 -8.57913 -10.9431 15.6644 11
308 1 3.25136 4.96588 20.2771 19
309 1 5.11882 -14.0409 -1.1672 21
310 1 -3.97905 -14.9394 -7.53596 17
311 1 -11.7571 3.59208 -8.27019 18
312 1 9.72919 6.5595 8.67675 22
313 1 -6.92055 -0.814153 -9.38553 17
314 1 -1.16467 5.32738 -9.81563 21
315 1 -5.94211 -2.07492 7.88067 20
316 1 7.74514 -14.2114 -7.07739 13
317 1 -5.17258 14.6352 1.95536 13
318 1 3.75981 8.52772 7.13891 21
319 1 5.51691 1.58125 5.87091 20
320 1 -10.2457 -2.08988 10.3026 21
321 1 -4.11994 -6.36801 14.4522 19
322 1 -7.90782 9.29677 5.97775 22
323 1 1.67125 -7.80905 -8.6899 19
324 1 13.3433 8.6728 -2.52323 10
325 1 2.6999 -12.6328 4.14295 19
326 1 -3.02231 -2.86188 19.0665 15
327 1 -16.1766 -5.73209 6.66963 12
328 1 0.132305 -15.2738 -3.29351 21
329 1 -10.88 3.58139 15.9111 9
330 1 -8.73342 4.36084 13.2564 18
331 1 -14.8048 -7.50697 11.0689 11
332 1 -12.6083 -9.46763 11.3878 16
333 1 9.73128 -7.92399 -0.637681 23
334 1 -10.1763 -9.97193 8.17491 18
335 1 5.36766 -3.56913 -7.72307 22
336 1 10.9021 -9.28838 -5.88769 18
337 1 1.09997 15.4114 -1.8587 12
338 1 -5.08518 -4.96498 6.18571 21
339 1 -10.0994 11.4361 -3.96005 13
340 1 -1.54719 -1.39978 8.68856 19
341 1 12.2847 4.98133 13.6081 15
342 1 -12.0515 -3.01036 7.45886 22
343 1 11.8398 -12.2148 -3.67611 12
344 1 -6.89569 6.98774 3.54439 18
345 1 -8.9968 5.54936 5.56211 21
346 1 2.42004 -11.8387 9.9896 16
347 1 13.143 -6.24671 7.42562 13
348 1 -2.77083 3.36167 11.6035 21
349 1 -3.90149 -6.32118 -3.61116 20
350 1 -5.49817 -0.736249 19.5274 10
351 1 1.38038 14.2463 7.11138 13
352 1 9.06203 4.74515 17.3511 17
353 1 -7.1081 11.7917 -4.85558 15
354 1 0.0603092 -8.71439 -15.6741 10
355 1 -8.438 -1.99722 -1.84762 20
356 1 6.43313 -12.6902 -12.5226 10
357 1 -11.2142 4.03 12.1119 16
358 1 -16.3306 1.20168 2.67081 15
359 1 -4.69128 -6.54564 -6.8984 23
360 1 -5.81925 5.87171 0.668196 18
361 1 3.60506 -5.35104 9.92161 24
362 1 -11.6884 -13.1454 2.71047 22
363 1 5.44223 -10.5919 8.85949 20
364 1 -7.63321 -12.039 12.7323 18
365 1 -13.7556 6.18542 3.00049 12
366 1 -3.70166 -9.19358 13.8036 18
367 1 5.85175 -11.8892 -3.72639 23
368 1 -6.55332 -4.52042 -8.58975 21
369 1 7.78297 -2.95414 -13.6432 14
370 1 2.34603 10.7896 4.71024 20
371 1 -12.5625 -5.07812 -2.58239 23
372 1 4.22781 -9.25064 -8.70482 21
373 1 10.6366 3.90352 -8.2117 12
374 1 -4.58381 -16.2422 -4.47685 15
375 1 -13.6634 -10.2202 -3.19139 17
376 1 -4.18666 -7.4256 3.10303 21
377 1 10.2814 1.97317 18.2892 11
378 1 8.60275 0.601633 0.00839846 22
379 1 -9.49767 1.25393 -8.5103 19
380 1 0.171718 16.1637 1.79678 14
381 1 -16.2301 -6.01404 -2.59 16
382 1 -9.92634 7.95616 8.03266 17
383 1 -11.3385 10.8395 3.62842 14
384 1 -5.45964 2.31848 8.69365 21
385 1 7.67844 2.38742 15.9919 22
386 1 11.7918 -4.54445 -1.24631 17
387 1 7.27407 -6.86326 12.8497 16
388 1 11.0883 -0.749188 -4.07718 18
389 1 -6.04294 -17.7554 -1.76692 11
390 1 0.826098 0.439528 8.93549 22
391 1 -7.03448 3.09099 0.289445 20
392 1 0.630165 -12.6644 -1.64024 21
393 1 -2.73589 8.26344 7.97996 24
394 1 -10.2488 -2.63835 -4.45479 22
395 1 5.01435 -9.68757 -0.775868 21
396 1 13.7518 -3.44746 9.31677 12
397 1 -11.2633 -5.51279 -5.63655 19
398 1 -5.67886 -13.096 5.63601 20
399 1 -6.85709 -8.51637 15.0571 17
400 1 -5.48146 9.4054 0.590014 19
401 1 -14.0891 -13.6103 -1.76125 13
402 1 6.80006 9.39476 18.8961 12
403 1 -10.4899 2.47352 1.73377 18
404 1 -0.473325 9.25013 -5.47752 21
405 1 5.58297 10.8276 6.6002 21
406 1 -16.1515 -12.2155 0.44244 12
407 1 -4.13469 -11.2347 -4.96783 21
408 1 -14.1001 -1.23512 4.18092 22
409 1 -12.4783 5.26299 -5.78972 16
410 1 5.84596 -8.78484 7.00807 19
411 1 -6.09848 -14.5312 -1.22334 24
412 1 11.4666 10.9624 9.72148 12
413 1 5.98346 1.43157 -10.6717 18
414 1 -12.4305 0.431061 -7.54039 19
415 1 -2.78933 14.5162 -6.29667 9
416 1 -10.5397 0.488493 -2.12475 22
417 1 -3.20752 -14.7189 6.27542 18
418 1 10.1862 6.88832 5.19517 22
419 1 -0.32347 4.62496 -14.7994 12
420 1 -4.26351 -0.575511 9.95045 20
421 1 -15.8751 1.62547 -0.240368 15
422 1 -8.48001 3.35927 10.0677 22
423 1 -6.40454 -15.9783 5.55743 21
424 1 0.735034 -9.44209 -3.35226 17
425 1 6.66558 -8.8024 -10.1832 19
426 1 -2.11569 -6.96751 9.34956 23
427 1 -12.1606 -0.214483 8.40184 17
428 1 -14.0772 -4.183 12.6245 12
429 1 -15.2703 4.79041 8.78552 12
430 1 -1.3522 -8.3844 11.575 21
431 1 -10.7058 -0.318611 -12.8235 10
432 1 8.90036 -11.3852 -4.92776 22
433 1 1.83189 -11.3737 -8.78199 18
434 1 -4.37427 -4.21894 11.8197 18
435 1 2.49383 -7.08015 -1.13145 19
436 1 -4.32065 -2.02351 -13.3211 17
437 1 7.68839 -16.0614 2.85012 13
438 1 -0.68036 7.30354 -1.88389 18
439 1 -12.8151 8.24487 8.8149 13
440 1 -5.07399 -3.81129 16.1822 20
441 1 -11.8971 -10.0281 -9.7991 12
442 1 -8.36517 -7.81388 7.03729 21
443 1 8.97762 -7.3482 10.3723 17
444 1 3.4514 1.7593 -2.14669 20
445 1 -6.48856 3.43922 5.53991 23
446 1 0.990471 -1.59858 -6.49555 20
447 1 8.44227 -9.50596 8.51226 17
448 1 13.0233 5.37026 -3.7715 18
449 1 -2.86467 -0.921342 15.8422 22
450 1 -0.925148 10.8534 3.5156 17
451 1 6.12589 -7.25009 9.41558 24
452 1 -2.7922 -18.173 -2.04841 10
453 1 -4.89359 7.43072 16.454 12
454 1 -3.59715 14.0969 4.62791 16
455 1 -9.77244 -13.7061 -5.37525 16
456 1 7.87455 12.7212 2.34084 15
457 1 5.49935 7.24479 11.1017 22
458 1 -6.97089 0.898042 14.5093 22
459 1 -3.75209 -10.1584 0.960415 27
460 1 -11.9452 0.65181 11.8137 18
461 1 -9.27526 -7.80218 -4.20241 18
462 1 -6.67122 13.9712 10.3619 12
463 1 -5.53943 -13.6976 -4.30069 22
464 1 -4.732 -11.1989 -15.318 13
465 1 -5.83527 -14.9665 2.30757 19
466 1 -8.71636 -5.36852 5.16253 23
467 1 8.79131 -2.41758 10.0238 21
468 1 -6.85846 -6.16928 13.3279 19
469 1 -7.89388 1.0157 -11.9153 15
470 1 7.06765 0.92305 2.88567 18
471 1 -8.64036 -16.3958 -0.86489 15
472 1 -1.24439 2.5501 -5.57172 19
473 1 -1.57778 13.8209 2.31186 21
474 1 -4.42919 3.12928 -7.02103 18
475 1 -3.04436 6.95344 10.9571 22
476 1 -17.7716 -6.70038 -0.612983 11
477 1 -0.371294 12.3912 -3.32239 20
478 1 2.32606 8.69022 -5.90134 19
479 1 -7.32474 -7.40958 -7.94905 18
480 1 2.5412 -0.921532 20.2139 12
481 1 1.49809 -16.1532 -5.91082 11
482 1 -3.15116 -6.25015 -12.6212 18
483 1 8.66821 -19.3013 7.07237 5
484 1 -11.3234 6.48163 5.93699 17
485 1 2.36527 3.10877 17.0547 19
486 1 7.72282 5.51235 -1.91436 19
487 1 1.77948 6.17311 0.466835 19
488 1 -9.32249 5.93385 -9.9719 15
489 1 1.07646 1.35466 -6.73321 20
490 1 0.676693 -9.89985 4.9431 20
491 1 -16.0862 -9.00001 0.637087 14
492 1 5.93991 13.1851 8.85567 14
493 1 -7.32185 3.25408 -9.82283 18
494 1 9.88058 4.75926 2.79153 22
495 1 4.98575 13.0526 -5.06594 12
496 1 7.34173 -8.26538 0.892711 21
497 1 14.7786 -0.132038 1.18473 12
498 1 -2.95566 -4.80714 -8.74943 21
499 1 2.10883 -11.1018 0.861557 22
500 1 2.76378 -17.1599 6.43041 18
501 1 1.37512 -10.3044 12.668 14
502 1 -9.08401 -0.198821 -4.58939 20
503 1 -12.737 -15.2956 6.67538 15
504 1 -1.46137 -14.2558 -9.64861 18
505 1 9.36475 13.3312 8.1606 11
506 1 0.0807115 2.01777 -13.6912 21
507 1 -3.14306 0.285881 18.9644 15
508 1 -13.4802 -2.05803 10.0551 21
509 1 -1.44312 -17.3715 3.49332 16
510 1 -14.6217 -4.25711 -0.711498 17
511 1 13.8698 -9.16948 -4.57104 11
512 1 11.313 -1.40362 0.976585 21
513 1 -8.81645 5.41107 -0.588025 20
514 1 3.29204 -10.288 -5.58609 18
515 1 3.77475 3.62866 -9.06031 21
516 1 8.0647 -5.18053 -5.7544 18
517 1 -5.98823 -5.16566 18.7557 10
518 1 5.51253 11.5358 3.73905 22
519 1 -5.05988 -5.53521 -15.4178 12
520 1 4.61646 0.250798 -16.959 8
521 1 -8.76848 -2.68959 6.54371 19
522 1 -2.35992 10.8187 6.47959 18
523 1 -9.61013 -7.58298 -14.8338 13
524 1 -15.9059 -3.39206 4.34766 14
525 1 -2.83129 -12.6837 -12.9152 17
526 1 -6.11155 -12.111 10.1933 19
527 1 -0.596004 5.54725 -5.60234 17
528 1 15.6364 1.03104 11.9377 11
529 1 10.3811 1.22377 2.10538 19
530 1 -11.8095 -14.6088 0.250956 17
531 1 -1.28925 -10.1832 -0.746873 18
532 1 -1.96443 -4.25771 -14.6178 16
533 1 -8.74131 11.8371 12.4766 9
534 1 0.496523 -9.87466 -6.53708 16
535 1 1.53863 4.75282 3.13019 19
536 1 11.6856 -2.09975 4.28086 19
537 1 2.09621 11.4939 -6.81144 20
538 1 3.64805 -14.5501 1.81383 24
539 1 14.7666 7.00461 -5.62179 10
540 1 3.43263 6.41746 17.4379 19
541 1 -10.3014 1.49773 8.58487 21
542 1 7.30722 5.34087 10.1481 21
543 1 7.2713 -4.15728 18.192 10
544 1 -2.15706 -3.24381 -11.6401 18
545 1 -5.50062 -8.30136 -4.73451 20
546 1 0.487995 -1.66876 15.2447 21
547 1 8.49876 8.88584 10.4253 22
548 1 6.35848 5.32474 -7.05611 19
549 1 -9.72109 8.16933 -2.55388 17
550 1 -0.581457 12.1407 0.0596374 20
551 1 7.74806 -6.13176 15.963 9
552 1 11.0011 0.949582 -10.2091 10
553 1 13.6579 -11.533 -1.40265 11
554 1 14.9349 5.57266 15.9788 9
555 1 -15.5724 -11.2558 3.36109 13
556 1 -3.46429 11.8205 -8.13714 13
557 1 -1.96049 -3.70567 14.6011 21
558 1 -11.9967 -1.8414 13.1485 16
559 1 -2.4449 8.88472 -7.57389 20
560 1 9.38525 -14.1741 0.749178 12
561 1 6.84079 -0.129315 -8.07782 19
562 1 -3.01562 13.5153 -3.66422 16
563 1 -12.0877 -7.88044 -12.7749 12
564 1 1.66141 -15.4559 4.05323 21
565 1 -13.231 -7.7366 1.52701 19
566 1 -0.27377 8.35555 -11.1024 19
567 1 -8.71826 -0.245226 1.02053 19
568 1 -1.73927 6.6755 15.7899 14
569 1 -11.2111 -7.86617 9.74422 21
570 1 3.96144 3.17402 0.714964 19
571 1 6.52022 -12.3703 -9.66706 16
572 1 -1.65449 -10.4605 14.2998 11
573 1 9.37407 -2.62845 -1.14814 22
574 1 -11.5153 4.06659 3.82422 21
575 1 2.46441 2.25122 22.2019 10
576 1 3.80655 13.7417 -2.12453 13
577 1 12.2847 -6.902 -3.56408 18
578 1 4.03194 7.13565 14.5507 18
579 1 -1.77306 0.354698 -16.0184 14
580 1 -6.35908 -14.9023 11.556 16
581 1 -5.2987 -0.28884 -4.72263 20
582 1 6.20249 -2.06427 -15.9443 10
583 1 2.39591 11.0259 7.74013 20
584 1 5.86781 2.37731 -7.26372 22
585 1 -4.9631 -4.4887 -11.0722 20
586 1 -5.36142 -11.3685 -1.97433 23
587 1 -11.3349 -6.65971 -9.84903 19
588 1 8.68742 0.143765 4.88078 19
589 1 13.8733 2.82273 -0.681014 13
590 1 6.88329 -6.60925 -7.81804 19
591 1 14.35 2.71279 14.2986 16
592 1 8.13604 -13.0377 -1.87894 22
593 1 2.73158 2.86054 -14.9604 13
594 1 5.21773 8.1642 3.93607 22
595 1 -9.24726 1.60842 4.40836 21
596 1 11.9688 7.25455 16.9831 9
597 1 10.8919 3.61856 -0.0774136 19
598 1 13.4614 -3.24273 5.86734 15
599 1 9.82392 4.23072 -4.77967 18
600 1 5.0999 0.944625 16.9658 18
601 1 14.0415 -2.30747 12.0586 11
602 1 -1.78132 -5.40832 12.5632 22
603 1 9.38676 9.67721 -2.43574 14
604 1 5.11957 0.516753 0.894653 20
605 1 -0.874201 -0.594134 18.7833 16
606 1 15.6728 -2.13722 -4.19395 9
607 1 9.37196 0.173442 15.2718 22
608 1 -8.37484 -6.01233 -11.0211 18
609 1 11.4692 1.81879 5.16236 18
610 1 8.98359 -7.02129 2.58063 19
611 1 0.584661 -8.36709 1.37783 17
612 1 -13.6021 2.27486 9.59744 18
613 1 7.99397 7.40019 13.2063 20
614 1 14.8459 -0.859348 14.563 11
615 1 2.4944 10.7232 11.2717 20
616 1 4.84663 12.3754 15.0873 10
617 1 4.13271 1.089 12.2091 18
618 1 -0.448971 -15.8079 6.24824 19
619 1 -7.91063 8.55987 -0.277093 17
620 1 9.0694 8.88047 -6.46936 12
621 1 11.3908 -5.26683 -11.6093 12
622 1 2.44654 11.3389 2.03597 18
623 1 -2.37423 -14.0883 -5.15843 17
624 1 9.71238 -8.26899 -11.6778 15
625 1 -16.4031 0.270599 8.96541 15
626 1 -9.22196 4.71396 -7.26175 26
627 1 -4.92306 -17.9591 6.81732 16
628 1 -4.19406 -2.04814 -9.08124 20
629 1 -14.8926 -1.30388 -1.50402 17
630 1 11.1753 -8.41164 8.12721 15
631 1 12.8795 9.41896 1.09439 10
632 1 -0.324573 -11.8258 7.26295 19
633 1 -9.75058 -4.89835 -8.61279 19
634 1 1.27646 0.0621743 -15.9979 19
635 1 1.63213 -4.99676 6.98955 23
636 1 -2.9221 3.97171 15.523 19
637 1 4.50621 7.29381 -11.097 16
638 1 11.8786 -2.35801 14.792 15
639 1 7.41778 3.51896 -4.63665 18
640 1 10.2433 10.4546 3.15083 15
641 1 4.8524 -13.2653 -6.22501 12
642 1 -11.0275 -3.74638 16.1855 11
643 1 10.1654 -2.14092 7.29087 20
644 1 -1.29041 9.83729 15.2164 15
645 1 5.79271 11.5718 -7.56344 14
646 1 -12.7365 9.85162 -1.67423 14
647 1 7.7578 6.52201 3.3967 22
648 1 -9.51096 -16.965 2.32892 14
649 1 14.3835 -6.06798 4.22523 12
650 1 10.0176 12.22 5.18336 12
651 1 -1.5299 0.866925 10.9974 21
652 1 -11.3044 -9.63828 3.90963 20
653 1 -13.2287 -7.52926 -7.39362 17
654 1 4.09958 -5.74522 12.9391 21
655 1 -7.25142 -9.26655 11.7592 20
656 1 9.87162 6.10494 14.9927 18
657 1 -7.46501 10.3196 3.06759 22
658 1 7.3237 -0.526388 7.67777 21
659 1 5.33103 -5.07858 1.18507 23
660 1 7.05332 2.4711 8.55458 20
661 1 2.10117 -3.1449 -14.178 16
662 1 -8.18095 -6.44135 10.6129 23
663 1 10.9481 -2.87984 -13.3809 7
664 1 -0.523137 -6.75432 -3.01445 19
665 1 9.1033 -8.83432 -7.97323 21
666 1 7.42774 2.34809 12.9101 17
667 1 4.90158 3.91042 11.232 18
668 1 -9.7619 -0.861885 15.4795 17
669 1 12.7348 8.19322 10.4636 15
670 1 -0.748904 -4.30758 17.5132 14
671 1 -0.739895 3.71194 13.7619 20
672 1 -1.70308 -9.07033 -12.8563 17
673 1 -6.19594 -0.83417 17.0441 21
674 1 -7.10079 0.55355 -1.63654 22
675 1 3.53072 -2.84871 16.9773 14
676 1 -11.2566 -12.9614 8.67352 16
677 1 13.2755 5.40017 1.83134 13
678 1 8.38965 -16.1709 -2.06867 13
679 1 -2.83964 4.63665 -4.22013 18
680 1 5.60142 6.40198 0.776402 22
681 1 10.2386 9.5604 7.34026 21
682 1 2.92703 -2.60977 -17.0374 10
683 1 -4.10543 -4.11327 9.22162 23
684 1 1.02065 9.71863 -2.73784 18
685 1 11.0507 7.39124 2.33625 21
686 1 -7.35479 -11.405 0.120438 20
687 1 -0.476352 -2.8541 -16.915 13
688 1 -11.4526 6.57234 0.850093 20
689 1 9.42223 -6.54189 -9.22219 21
690 1 3.55845 3.63522 6.00498 18
691 1 9.19356 6.51415 -8.90499 10
692 1 9.50067 10.4736 0.361491 17
693 1 -0.110357 3.53969 6.3161 20
694 1 -8.24795 4.39167 2.65996 21
695 1 3.85585 4.58042 -2.44326 18
696 1 9.04355 -1.48019 18.429 13
697 1 6.21553 -3.4021 13.2856 17
698 1 -3.99463 -12.5209 12.196 16
699 1 -5.74048 9.37297 -8.95744 15
700 1 5.18545 10.5613 9.71084 25
701 1 6.58127 -9.67693 -13.3371 14
702 1 1.33921 -0.757411 12.1072 24
703 1 4.32419 10.8211 -2.38824 17
704 1 6.8008 8.12817 8.0437 18
705 1 14.3689 -8.2039 -1.23331 13
706 1 5.6586 4.04616 21.0099 12
707 1 -14.1115 -8.12553 8.10636 18
708 1 3.76768 -17.3159 0.174711 16
709 1 1.7853 -5.94205 -3.9839 18
710 1 -9.34745 12.8254 5.01223 11
711 1 -0.63846 4.35823 9.61171 20
712 1 6.1834 -6.49859 -1.79295 22
713 1 4.9294 5.59506 8.70369 21
714 1 -13.3901 -5.14043 5.64331 20
715 1 -5.05959 4.92986 17.6038 12
716 1 -5.26147 3.49487 -12.4388 14
717 1 -6.3538 6.70653 -10.7166 15
718 1 5.98526 -19.1117 2.71335 11
719 1 7.80131 6.82664 -4.43669 16
720 1 2.95821 -7.87987 7.75388 23
721 1 -1.19983 5.9823 6.51286 16
722 1 -14.6586 -0.0296398 11.6036 12
723 1 1.85632 -6.16729 -12.0425 20
724 1 0.30867 -14.3324 11.2966 10
725 1 3.05187 16.3075 4.42664 10
726 1 -7.1498 8.28044 18.072 6
727 1 -9.12249 -11.6047 -11.0472 11
728 1 -6.10942 -13.7509 -13.187 10
729 1 -7.14674 -15.4464 -7.07107 13
730 1 -0.732392 12.3487 -6.43455 19
731 1 2.88848 -4.58273 -6.68131 19
732 1 -1.9679 12.5657 9.77817 16
733 1 6.49006 -10.8095 -7.47267 18
734 1 4.38224 -16.8778 3.39967 20
735 1 0.55806 -9.65036 9.25601 22
736 1 14.9732 1.09986 -5.78683 12
737 1 3.30935 -14.503 -3.10438 17
738 1 -11.1016 -4.7376 10.7268 19
739 1 -1.87337 -2.52068 -6.58135 20
740 1 -4.20006 -17.1857 4.25913 20
741 1 -8.67877 -12.6484 -2.16877 21
742 1 -10.125 -4.10919 13.5065 18
743 1 -7.88234 -18.4271 4.5005 12
744 1 15.2329 3.8876 -3.61142 10
745 1 0.217786 15.081 10.4599 9
746 1 -2.7091 1.92212 8.49358 21
747 1 -15.8422 3.3096 5.38659 11
748 1 10.5998 -5.07119 5.34924 19
749 1 -14.2834 -4.88096 -8.81024 12
750 1 -3.68486 7.05139 -1.23478 24
751 1 5.58731 0.914595 -4.3719 23
752 1 9.05328 8.87081 16.1219 11
753 1 8.07748 -0.534995 -2.95173 21
754 1 -16.4421 -1.42925 -4.23388 12
755 1 -13.2887 -10.3995 -6.75273 12
756 1 -2.42898 3.16681 19.2959 14
757 1 1.71356 5.73998 -10.5634 21
758 1 12.8283 9.25093 5.08602 15
759 1 -2.16072 -1.67989 12.247 23
760 1 -0.846425 -16.1345 0.0595251 20
761 1 -10.6738 -16.9427 8.78424 12
762 1 -4.70173 -7.11552 11.4034 21
763 1 14.5193 6.93368 12.4337 12
764 1 4.18647 -7.06637 -6.19414 20
765 1 -10.5884 3.42665 -1.06931 20
766 1 7.82197 5.93386 6.34806 18
767 1 -8.73447 -8.01671 3.62522 21
768 1 6.93228 4.76974 -10.7688 12
769 1 -2.76406 -14.7208 -2.01334 20
770 1 0.775956 -18.7228 4.78432 15
771 1 2.0904 -14.7299 -0.454261 21
772 1 3.55727 3.16511 -5.53328 23
773 1 5.91019 14.8268 2.97865 12
774 1 -3.60938 -2.09073 -16.0115 12
775 1 -0.832798 0.6048 13.6722 21
776 1 0.242211 2.82236 -16.763 10
777 1 -13.3293 -4.9913 -11.6925 13
778 1 -14.0532 -7.82439 -1.42296 23
779 1 2.13768 13.2147 -4.73652 15
780 1 10.6293 -4.25175 2.10576 21
781 1 -3.15042 -7.66794 -15.6511 12
782 1 -6.4641 -8.31679 1.40506 20
783 1 9.08607 2.31087 -2.60769 21
784 1 10.3031 -11.1926 0.048003 18
785 1 -6.68514 6.31838 13.8057 18
786 1 4.35462 -13.6033 8.23677 14
787 1 13.8698 -5.23822 0.840446 14
788 1 10.0733 -5.08198 13.4311 13
789 1 1.51227 7.95055 13.0862 21
790 1 -10.2665 1.68777 14.1227 17
791 1 -8.94463 6.3488 11.0228 20
792 1 -3.1049 -15.0594 10.7172 15
793 1 5.45709 -1.50314 3.82199 22
794 1 6.74193 6.995 16.7129 20
795 1 -15.4682 -1.53672 1.50707 18
796 1 7.87017 -9.68987 -2.49446 22
797 1 -9.42133 9.68085 -6.65164 14
798 1 1.49719 5.98323 8.27946 22
799 1 0.781414 -16.9807 9.34019 14
800 1 2.15597 -0.185603 17.5849 21
801 1 -0.243435 10.4522 8.99432 20
802 1 4.18606 -10.0288 3.796 17
803 1 -9.65447 -4.99356 -2.4126 20
804 1 3.60586 -1.15632 14.34 19
805 1 -17.1374 -9.79345 -2.2779 11
806 1 1.29792 7.85216 16.5344 17
807 1 2.90033 7.67787 2.59234 19
808 1 -15.2069 -13.323 8.03663 10
809 1 -5.0362 -17.4732 10.1085 12
810 1 8.5086 -7.39712 6.12794 19
811 1 8.28905 -4.9522 7.86131 17
812 1 10.0297 6.0632 11.7586 21
813 1 -5.63463 3.82846 -1.86216 23
814 1 -1.89777 -11.3004 -7.19293 20
815 1 -2.1349 0.385188 -11.6906 21
816 1 -6.45014 1.61088 11.9352 19
817 1 -0.961486 16.0337 5.22084 12
818 1 13.0355 -0.393992 7.30167 17
819 1 2.30718 6.19389 -4.74303 16
820 1 -5.78997 3.75474 14.4465 21
821 1 6.76848 5.08639 13.8318 21
822 1 6.01342 -4.25241 -11.1426 18
823 1 -8.47914 -13.7874 4.18071 21
824 1 -6.89371 -2.34182 -4.31453 18
825 1 12.6418 1.53248 10.3122 19
826 1 0.116783 -3.98345 -8.45076 18
827 1 0.115953 4.83525 18.1032 18
828 1 9.55678 -14.6773 -4.78529 15
829 1 4.91729 0.705446 -14.1944 13
830 1 -3.24707 -9.30265 -2.31755 21
831 1 13.4151 4.19002 -5.98926 16
832 1 14.1289 -3.06631 2.36309 16
833 1 -0.97728 -6.92344 15.3758 15
834 1 -3.70531 -11.1222 -9.61576 15
835 1 6.97881 10.014 1.67588 22
836 1 -3.03891 -7.52662 6.11007 22
837 1 -17.6011 2.77958 7.4004 9
838 1 12.3395 2.63983 -3.39677 22
839 1 15.2621 4.7526 7.34682 11
840 1 3.56355 -8.68696 -11.472 22
841 1 -7.94279 11.5134 7.70291 16
842 1 15.7949 6.43848 9.92051 14
843 1 7.17274 11.7456 -1.20143 15
844 1 3.68959 2.05269 -11.9434 17
845 1 7.86309 -5.15031 -0.187568 20
846 1 -11.2698 -3.18615 4.54181 20
847 1 9.95469 3.93756 7.09702 19
848 1 -14.4008 -14.4183 1.6769 15
849 1 -11.199 7.20605 -7.72378 16
850 1 4.54408 3.2819 14.554 18
851 1 -13.904 -2.52101 -3.87152 19
852 1 -12.9399 2.70729 6.6137 19
853 1 -4.00657 0.145681 -7.64768 17
854 1 11.2365 -6.47537 -6.30134 17
855 1 -12.8083 -13.0608 -4.55857 11
856 1 12.0951 -6.93873 2.22969 18
857 1 -16.054 3.93026 1.83984 12
858 1 -5.17373 -7.56795 -0.89857 19
859 1 12.5844 5.19938 9.94681 22
860 1 -4.06237 -9.84438 10.2334 22
861 1 6.556 -1.2212 16.0005 21
862 1 11.6843 -6.14915 10.3757 11
863 1 7.14581 -2.84331 5.68923 19
864 1 -13.1117 1.41242 3.63626 20
865 1 2.15383 10.4806 14.414 19
866 1 0.391456 7.26281 -7.89841 21
867 1 -1.4488 -10.9341 -15.4073 11
868 1 -1.84962 13.5148 7.09834 16
869 1 -13.9027 -13.9238 10.2394 10
870 1 6.64111 8.47923 -1.49814 21
871 1 2.59339 5.12671 14.4765 20