ITEM: TIMESTEP
343000
ITEM: NUMBER OF ATOMS
500
ITEM: BOX BOUNDS pp pp pp
-30.0 30.0
-30.0 30.0
-30.0 30.0
ITEM: ATOMS id type x y z Coordination
1 1 -9.32148 -0.333795 -5.88907 12
2 1 -7.77316 -2.25636 -7.18064 13
3 1 -8.68267 -2.9747 -4.27537 14
4 1 -9.61168 -4.00346 -1.62716 10
5 1 -7.52094 -5.68493 -3.67899 13
6 1 -5.38343 -6.29961 -1.77838 20
7 1 -3.94475 -5.64066 -8.94425 9
8 1 -5.76735 -2.46978 -9.73016 10
9 1 -5.82725 -0.383994 -6.0583 19
10 1 -4.14706 -3.46993 -7.26678 20
11 1 -4.30392 -5.53104 -4.79401 20
12 1 -5.27408 -2.62573 -4.35316 21
13 1 -1.97973 -6.61449 -7.14639 16
14 1 -0.476607 -9.25711 -6.07442 11
15 1 -2.87183 -8.29529 -4.34908 16
16 1 -0.305139 -5.64469 -9.34201 13
17 1 -1.93213 -3.04762 -9.04765 15
18 1 -2.1252 -1.19439 -6.63568 20
19 1 -0.367601 -3.85071 -6.33996 20
20 1 -1.04242 -5.61729 -3.89649 18
21 1 -2.1341 -2.62804 -3.70894 20
22 2 -6.86922 -3.74229 -3.79667 19
23 2 -7.53325 -2.47753 -8.99122 10
24 2 -9.20574 -2.20647 -5.97556 10
25 2 -8.7545 -3.29735 -0.0427145 13
26 2 -10.013 -2.54646 -2.86574 12
27 2 -8.61042 -5.91703 -2.08842 12
28 2 -7.21392 -8.192 -2.64673 8
29 2 -2.51337 -6.66811 -3.42002 19
30 2 -4.12141 -9.65663 -3.40129 10
31 2 -5.69192 -6.39082 -3.78408 17
32 2 -5.72223 -2.41113 -6.40865 19
33 2 -5.38768 -0.657613 -9.00622 15
34 2 -4.28546 -3.72554 -9.17344 11
35 2 -3.68119 -5.59423 -0.960663 20
36 2 -5.50435 -3.09992 -0.688726 20
37 2 -5.42663 -0.757261 -3.93552 21
38 2 -3.81169 -3.83428 -3.62958 21
39 2 -2.15587 -8.13885 -6.17579 14
40 2 2.0327 -9.6967 -3.28614 13
41 2 -1.30567 -10.6724 -1.59813 10
42 2 -4.20892 -5.6372 -6.75114 15
43 2 -1.13971 -9.74182 -4.27576 11
44 2 -2.31345 -6.18868 -8.99768 12
45 2 -2.3155 -3.0802 -6.96737 22
46 2 -2.05673 -1.07299 -8.6177 16
47 2 -0.175853 -3.67167 -9.53515 13
48 2 -0.494303 -5.55873 -1.49996 19
49 2 -2.20398 -2.74777 -1.56949 22
50 2 -2.11134 -0.684127 -4.00896 22
51 2 -0.484467 -3.634 -4.04713 18
52 1 -8.58241 -2.96838 2.45008 16
53 1 -8.01534 -7.55912 -1.14367 10
54 1 -7.29069 -0.283292 -2.76032 19
55 1 -7.16525 -4.32897 -0.0665409 18
56 1 -6.40169 -6.47371 1.89303 13
57 1 -8.87356 -1.16675 4.80954 18
58 1 -9.61965 1.37322 5.71303 9
59 1 -6.82294 -4.42106 4.21286 19
60 1 -6.9283 -6.93766 5.53661 10
61 1 -9.01455 -4.00833 5.92114 11
62 1 -5.70974 -8.59572 -3.593 10
63 1 -2.49776 -10.6466 -3.17388 10
64 1 -2.90116 -8.42329 1.37582 12
65 1 -4.35979 -7.41176 3.78466 16
66 1 -1.80015 -10.0893 3.68995 10
67 1 -5.49421 -1.24763 -1.31374 21
68 1 -3.87329 -3.79934 -1.65903 22
69 1 -3.22255 -5.57928 0.840119 22
70 1 -5.31212 -2.94237 1.4338 23
71 1 -5.2974 -0.828799 4.49113 18
72 1 -3.67798 -3.98534 4.06307 21
73 1 -3.70325 -6.0075 6.61369 15
74 1 -6.146 -4.09322 7.38821 14
75 1 -5.52967 -1.71665 9.67151 13
76 1 -3.42944 -4.18138 9.3861 12
77 1 -1.80198 -6.75972 -1.45735 17
78 1 0.19528 -9.67423 -2.87346 13
79 1 -1.18578 -10.7442 0.144863 9
80 1 -1.42317 -7.02938 4.3776 18
81 1 1.86296 -9.76836 4.04482 10
82 1 -0.631209 -5.35453 7.40761 18
83 1 -1.72604 -1.29685 -0.603807 23
84 1 -0.587727 -3.7814 -0.972591 24
85 1 -0.448946 -5.7556 1.6357 21
86 1 -2.05825 -3.16069 1.96616 21
87 1 -1.87434 -0.984357 3.71973 19
88 1 -0.228085 -4.11309 4.27476 21
89 1 0.39819 -8.52532 6.18575 13
90 1 -1.92634 -2.76925 6.3728 19
91 1 -1.82445 -1.28667 9.4382 14
92 1 -0.111054 -3.97653 10.3121 10
93 2 -8.82154 -1.12576 1.94326 17
94 2 -6.85329 -6.4491 0.0111592 15
95 2 -6.23203 -6.42146 3.78136 14
96 2 -8.70179 -2.98349 4.26255 13
97 2 -7.05724 -0.251216 -0.869793 21
98 2 -6.79399 -4.15159 1.92385 17
99 2 -7.90667 -3.30042 7.7063 12
100 2 -8.2122 -5.52727 5.44127 9
101 2 -2.51067 -8.29992 3.56152 15
102 2 -4.2833 -7.03438 1.76145 16
103 2 -1.79181 -10.0896 1.65264 10
104 2 -5.79166 -5.90974 6.79072 15
105 2 -3.57208 -5.4724 4.85017 21
106 2 -5.3812 -2.73181 4.63282 20
107 2 -5.17627 -1.18882 1.81665 22
108 2 -3.76718 -4.03317 1.92811 22
109 2 -2.47508 -4.97038 7.7558 14
110 2 -5.19192 -3.48932 8.87188 11
111 2 -7.20394 -0.592272 9.51146 10
112 2 -4.97641 0.0856795 6.26567 18
113 2 -0.0546689 -9.97079 4.17584 10
114 2 -1.7948 -6.98556 0.767416 20
115 2 2.36893 -9.09319 2.44391 13
116 2 -0.86379 -7.26249 6.20669 16
117 2 -0.148212 -5.94693 3.73508 20
118 2 -1.89383 -3.01719 4.32241 18
119 2 -1.79055 -1.07547 1.47787 21
120 2 -0.520489 -3.99244 1.33354 21
121 2 0.382845 -5.78596 9.1972 11
122 2 -1.84147 -3.19914 9.8955 13
123 2 -1.82401 -0.893531 7.03051 19
124 2 0.0108314 -3.74858 6.24512 17
125 1 -8.58547 -1.14057 -0.232212 19
126 1 -6.76804 0.645704 -8.84469 12
127 1 -7.98278 4.65835 -4.78137 13
128 1 -6.91012 4.56745 -8.55556 10
129 1 -7.19668 2.44263 -6.55152 15
130 1 -8.91708 1.65816 -3.42389 17
131 1 -6.60042 6.65452 -2.99247 17
132 1 -3.60793 0.276662 -8.90409 16
133 1 -4.92705 3.05325 -10.1421 10
134 1 -5.24267 4.77699 -5.89937 17
135 1 -3.58822 1.86138 -5.47665 19
136 1 -3.69846 -0.198316 -3.25433 22
137 1 -5.40872 3.04891 -3.44717 24
138 1 -3.50356 5.19671 -8.52787 11
139 1 -4.45383 9.21463 -4.17783 9
140 1 -3.6079 5.87822 -3.62882 20
141 1 -5.60757 9.83257 -1.89822 10
142 1 -0.252906 -0.0962266 -8.8326 18
143 1 -1.98807 2.97964 -9.87804 10
144 1 -1.6751 4.56378 -6.0346 20
145 1 -0.0978051 1.84368 -5.70338 22
146 1 -0.322707 -0.158211 -3.36641 22
147 1 -1.96293 2.78316 -3.14994 22
148 1 0.0782484 5.26583 -8.82714 13
149 1 1.27776 7.02308 -5.94738 15
150 1 -0.31371 5.57852 -3.31849 21
151 1 -1.70836 8.08817 -5.05655 15
152 2 -10.0823 0.081619 -0.736463 16
153 2 -9.29029 -0.0574648 -4.03095 13
154 2 -7.63182 0.371734 -6.92768 15
155 2 -9.07991 3.07193 -4.65544 11
156 2 -7.18158 1.68272 -2.88498 21
157 2 -8.72845 3.11698 -0.358786 14
158 2 -7.96538 5.17434 -2.95179 13
159 2 -6.93517 4.56147 -6.52047 12
160 2 -6.70027 2.6158 -8.69068 12
161 2 -6.74775 6.15653 -0.607395 17
162 2 -6.05861 9.00036 -0.0995082 11
163 2 -3.60333 0.105717 -6.40459 19
164 2 -5.62696 2.44129 -5.27109 19
165 2 -3.58975 1.99668 -9.52061 13
166 2 -3.62265 -0.624436 -1.0954 20
167 2 -5.29787 2.94274 -0.888947 18
168 2 -5.5162 5.02607 -3.91592 19
169 2 -3.71494 2.05026 -3.16397 19
170 2 -5.22682 4.84393 -9.42872 10
171 2 -3.24337 6.03958 -1.51467 23
172 2 -3.78485 9.59761 -2.24517 13
173 2 -5.91349 8.46948 -3.19116 13
174 2 -0.265204 0.103332 -6.80405 21
175 2 -1.79198 2.61367 -5.72427 18
176 2 -1.70061 4.78939 -9.21266 11
177 2 -0.141254 1.89159 -9.63925 15
178 2 -0.215522 -0.0818516 -1.05477 21
179 2 -1.52484 3.09147 -1.2022 18
180 2 -2.02011 4.79264 -3.79782 21
181 2 0.270364 1.64168 -3.91515 21
182 2 -0.123745 5.78279 -6.62201 17
183 2 -3.61643 4.81194 -6.59391 15
184 2 0.0667434 5.95417 -1.25743 21
185 2 -0.283388 7.15421 -4.24056 17
186 2 -0.752926 11.0333 -2.94994 11
187 2 -3.48186 7.75897 -4.47104 17
188 1 -10.593 -0.478759 -2.61187 11
189 1 -10.1869 1.94197 -0.389313 13
190 1 -10.3217 -0.167714 2.33051 14
191 1 -7.96414 4.76338 -1.0187 15
192 1 -6.80997 1.64716 -0.698074 21
193 1 -6.97169 -0.0554709 2.14778 21
194 1 -8.1562 4.48441 4.90738 10
195 1 -6.5365 5.36986 2.67094 19
196 1 -6.9541 2.04346 4.06649 22
197 1 -8.15485 -1.50554 8.27755 11
198 1 -7.30009 7.61714 0.345914 13
199 1 -8.65944 2.77188 1.85403 18
200 1 -6.52173 7.58205 4.43697 10
201 1 -4.94523 2.8086 7.19853 15
202 1 -5.00342 4.81595 -0.807577 23
203 1 -3.3825 1.98118 -1.05604 21
204 1 -3.67557 0.0204232 1.77038 20
205 1 -5.0688 2.86 1.3239 20
206 1 -5.11831 4.64388 4.86898 20
207 1 -3.4829 1.81428 4.70222 21
208 1 -3.54663 -0.0153767 7.53983 17
209 1 -6.90775 0.787193 6.55465 17
210 1 -6.32567 0.972297 9.94603 8
211 1 -3.65175 8.01021 -1.03281 20
212 1 -3.48002 5.80777 1.94572 23
213 1 -5.04003 8.40486 1.71616 16
214 1 -3.10335 8.06265 4.67197 17
215 1 -1.97019 8.53113 7.81234 10
216 1 -1.51511 4.97102 -0.866892 22
217 1 0.0865491 2.05077 -0.90656 23
218 1 -0.0975019 0.0429793 1.1475 19
219 1 -1.86843 2.81141 1.82051 23
220 1 -1.71123 4.93857 4.4611 21
221 1 -0.573481 1.95265 4.57224 21
222 1 -0.233476 0.314288 7.12245 21
223 1 -1.72358 3.32643 7.14949 20
224 1 -1.53412 5.07264 9.62661 10
225 1 -0.00676817 1.84313 9.58388 14
226 1 -1.98073 10.0523 -1.77991 14
227 1 0.0342681 7.88339 -0.665562 22
228 1 -0.280593 5.86374 1.54926 21
229 1 -2.07466 8.34377 1.44062 17
230 1 -0.387208 7.65174 4.30597 19
231 1 0.0597488 6.44014 7.37477 21
232 1 -3.231 6.04329 6.87547 14
233 2 -10.0816 0.348657 4.19525 13
234 2 -10.4289 1.70081 1.65954 11
235 2 -7.14598 0.10994 4.15875 21
236 2 -7.89798 2.54903 5.59114 16
237 2 -7.83535 3.92032 3.16071 15
238 2 -6.99062 1.79051 1.49479 21
239 2 -8.56528 -0.463573 6.63373 15
240 2 -6.93405 5.74153 4.91679 12
241 2 -6.67381 7.26879 2.26774 13
242 2 -3.62573 -0.0221786 3.84737 23
243 2 -5.17692 3.05498 3.9575 25
244 2 -5.02183 4.81437 1.12653 21
245 2 -3.50881 1.78388 1.05468 21
246 2 -3.71419 -0.818031 9.46569 13
247 2 -6.32094 1.88286 8.32223 13
248 2 -4.25445 4.4057 6.4243 15
249 2 -3.09078 1.87613 7.0352 19
250 2 -3.58796 5.79174 4.16324 22
251 2 -4.8413 8.30704 3.62709 14
252 2 -3.49049 7.47169 1.06365 22
253 2 -2.198 6.59465 8.42393 11
254 2 -3.31982 8.08336 6.45318 13
255 2 -0.441693 -0.0420666 4.56931 18
256 2 -1.94357 2.77181 3.8124 25
257 2 -1.94136 4.64396 1.33428 23
258 2 -0.273056 1.8641 1.26266 22
259 2 -0.249197 0.130862 9.13576 16
260 2 -1.51293 3.13288 9.21567 13
261 2 -1.13837 5.07668 6.36212 24
262 2 -0.109512 2.18585 7.03756 19
263 2 -0.053948 5.80848 3.55991 23
264 2 -1.87185 8.2262 3.35854 16
265 2 -1.74794 8.54371 -0.645239 13
266 2 -0.0914867 8.06548 1.3643 17
267 2 0.337158 5.67516 9.46827 13
268 2 -0.0477784 8.29675 6.87258 15
269 1 1.25833 -6.70632 -6.57821 15
270 1 2.89132 -9.49383 -4.97035 11
271 1 3.29428 0.160363 -9.08383 16
272 1 2.89277 -5.94734 -8.74539 11
273 1 1.2826 -2.70667 -9.27513 16
274 1 1.46353 -0.924358 -6.45635 22
275 1 3.13425 -3.91779 -6.6486 19
276 1 3.87889 -5.42473 -3.48881 18
277 1 1.25036 -2.87895 -3.5785 22
278 1 4.29455 -6.97465 -5.74969 14
279 1 5.76007 -9.79583 -0.29244 12
280 1 4.74061 -2.82394 -8.86401 14
281 1 4.94553 -1.18234 -6.33479 21
282 1 6.19055 -4.4681 -6.5559 16
283 1 6.85633 -5.80172 -3.75966 16
284 1 4.97334 -2.80099 -3.9714 20
285 1 8.32184 -1.27141 -6.56852 11
286 1 9.20534 -3.34085 -4.73725 9
287 2 4.35601 -8.49568 -4.77149 12
288 2 -0.461479 -5.66448 -5.81789 19
289 2 3.03408 -6.10667 -6.76009 16
290 2 5.09252 -9.81379 -2.21971 12
291 2 1.23808 -6.56871 -8.70676 14
292 2 1.43076 -3.02282 -7.03002 24
293 2 1.73587 -0.740002 -9.37406 15
294 2 3.11619 -3.91639 -8.92961 13
295 2 3.32587 -5.42016 -1.6189 18
296 2 1.27409 -2.63608 -1.73919 21
297 2 1.42009 -0.942481 -4.08966 20
298 2 3.09315 -3.69492 -3.86965 20
299 2 5.66386 -9.20529 1.58573 12
300 2 1.44576 -8.62009 -5.96933 12
301 2 5.73488 -5.69666 -5.31594 15
302 2 4.80515 -3.07197 -6.65246 18
303 2 4.85626 -1.01915 -9.24751 12
304 2 5.86147 -4.26759 -3.12025 18
305 2 4.69895 -2.59406 -1.19205 20
306 2 4.80109 -0.913278 -4.38815 19
307 2 8.09583 -3.12415 -0.684784 14
308 2 6.65005 -7.62792 -2.94451 16
309 2 7.95296 -3.20231 -6.38277 11
310 2 7.70922 -9.09185 -0.276529 10
311 2 8.66678 -6.14941 -0.664825 14
312 2 10.5201 1.96159 -3.40085 9
313 2 8.71951 -4.76883 -3.63155 13
314 1 1.31653 -6.6212 -0.996369 21
315 1 3.13871 -9.51066 -1.8483 13
316 1 1.21058 -8.51306 0.885484 15
317 1 1.83853 -6.42249 4.48675 22
318 1 3.40461 -8.22169 6.49406 11
319 1 1.989 -6.86848 9.03739 10
320 1 1.65781 -0.807724 -1.20503 23
321 1 2.82056 -3.57955 -0.911641 24
322 1 2.63183 -5.57138 1.71799 24
323 1 1.11235 -2.6726 1.56194 21
324 1 1.20593 -0.890043 4.2297 21
325 1 3.00448 -3.62897 4.03688 23
326 1 4.22032 -5.18654 7.16458 16
327 1 1.73793 -2.94423 6.51806 19
328 1 1.39683 -0.916843 9.15895 16
329 1 3.41787 -3.86784 9.63953 13
330 1 5.8562 -9.11588 -3.74116 12
331 1 7.38382 -8.83262 1.77759 11
332 1 4.04317 -8.44781 1.71464 17
333 1 5.01466 -6.63057 4.41485 17
334 1 4.86843 -0.665628 -0.874224 23
335 1 5.94843 -3.90362 -1.08759 21
336 1 4.49782 -6.53987 -0.544456 19
337 1 4.39109 -2.60562 1.34238 21
338 1 4.64558 -0.738445 4.11788 19
339 1 7.92626 -2.15854 6.58748 12
340 1 6.08784 -3.82957 4.22275 20
341 1 5.08257 -2.57701 6.83051 19
342 1 4.82586 -1.09113 9.62532 11
343 1 8.33002 -7.8074 -1.36987 12
344 1 6.17544 -5.75057 1.81541 19
345 1 8.29036 -0.992729 -0.873383 17
346 1 8.68691 -4.53837 -1.68201 14
347 1 9.0029 -5.92107 1.33425 13
348 1 7.84132 -2.66196 1.20108 18
349 1 10.4879 -0.918639 4.80048 10
350 1 9.78854 -3.21551 3.4043 10
351 1 5.82087 0.422037 7.12469 22
352 1 10.3449 1.70747 -1.01653 13
353 2 1.93259 -8.21984 4.86173 14
354 2 1.18565 -6.53601 0.929126 22
355 2 0.713423 -8.81554 -0.975488 15
356 2 1.72183 -8.0429 7.52028 12
357 2 3.3264 -5.52909 3.60546 22
358 2 1.32647 -2.99913 3.5539 22
359 2 1.62418 -0.810166 0.860162 23
360 2 2.63417 -3.87432 1.02455 22
361 2 3.52541 -5.5179 8.92185 12
362 2 1.06481 -2.65557 9.90344 13
363 2 1.40198 -1.15126 7.14002 20
364 2 3.25111 -3.96815 6.19511 19
365 2 3.67839 -8.3353 -0.397639 16
366 2 4.33505 -6.32041 1.32929 21
367 2 4.60552 -6.69328 6.3231 13
368 2 6.39759 -5.69037 3.77715 14
369 2 4.69816 -2.81959 3.53113 21
370 2 4.73086 -0.387104 1.0879 21
371 2 5.79598 -3.93466 0.866427 23
372 2 4.34547 -2.72738 8.55669 16
373 2 4.62599 -0.659586 5.96935 24
374 2 6.39526 -3.15364 5.94925 15
375 2 7.74498 -7.07561 1.74283 14
376 2 9.3994 -2.52566 5.10173 10
377 2 7.9282 -0.70989 1.03849 19
378 2 8.91432 -4.05487 1.80112 14
379 2 7.81333 -0.438959 6.75047 16
380 2 10.255 0.854703 5.50654 11
381 1 6.12801 0.419006 -9.1019 12
382 1 1.67361 2.31052 -9.15178 16
383 1 1.25995 4.48813 -6.19603 21
384 1 3.31335 2.12277 -6.44156 22
385 1 3.15953 0.0189399 -3.91514 22
386 1 1.73908 2.74572 -3.71154 21
387 1 3.18295 5.72877 -8.96685 11
388 1 1.08928 8.60189 -3.63082 17
389 1 3.02114 6.09247 -3.49307 21
390 1 -0.459482 11.3508 -4.8065 7
391 1 6.54431 1.64596 -6.33536 16
392 1 5.05453 3.25863 -9.63069 12
393 1 4.22703 6.40161 -6.15985 13
394 1 6.29164 4.39837 -7.37152 15
395 1 6.18317 0.424936 -3.53926 19
396 1 5.05608 3.18235 -4.16694 20
397 1 5.77653 9.07429 -2.61457 7
398 1 3.72375 11.0852 -4.75857 6
399 1 6.82738 5.91981 -4.06251 15
400 1 10.0979 -0.200646 -3.43341 11
401 1 8.86847 2.67635 -4.11256 14
402 2 3.19025 0.169197 -7.07522 23
403 2 1.49294 2.62773 -6.68385 22
404 2 4.89019 4.94941 -8.56353 11
405 2 3.66313 2.09882 -9.0877 16
406 2 3.26781 -0.0208362 -1.73867 24
407 2 1.66021 2.94593 -1.6441 24
408 2 1.19978 4.6272 -4.19023 23
409 2 3.39062 1.8162 -4.41584 23
410 2 2.41348 7.72351 -4.58741 17
411 2 1.84295 4.41728 -9.44797 12
412 2 3.35524 5.98876 -1.52449 22
413 2 1.8297 10.9788 -4.28893 9
414 2 5.44537 9.21544 -0.569267 9
415 2 -0.805771 9.7825 -5.90965 8
416 2 6.81504 -0.499842 -7.17214 15
417 2 2.90127 6.2312 -7.19601 15
418 2 6.37877 2.49961 -8.40146 11
419 2 6.87484 0.207611 -1.66406 18
420 2 5.16321 2.77896 -2.05239 22
421 2 4.82667 5.23 -3.88706 19
422 2 7.12553 1.5858 -4.46521 17
423 2 6.10581 5.86715 -6.06568 10
424 2 6.75586 5.40523 -1.16443 17
425 2 6.62811 7.41029 -2.74634 14
426 2 4.97417 10.5893 -3.5993 7
427 2 5.28234 3.00633 -6.2372 20
428 2 9.34822 -1.21654 -4.67311 12
429 2 8.74645 2.90564 -0.923401 16
430 2 8.13454 4.39672 -3.84913 16
431 2 9.85121 -0.139174 -1.46358 12
432 2 9.70504 1.77522 2.4565 15
433 1 2.12571 4.80667 -0.803876 21
434 1 3.40634 2.13709 -1.11823 21
435 1 3.12446 0.213516 1.6306 22
436 1 1.12234 2.96128 2.00632 24
437 1 1.4411 4.7368 4.36928 23
438 1 2.89583 2.16956 4.49204 22
439 1 2.94761 0.0918676 6.99358 23
440 1 1.5105 3.10997 6.46133 19
441 1 2.00643 4.60107 9.58777 14
442 1 3.72892 1.92489 9.91722 15
443 1 1.19976 11.1255 -2.41434 9
444 1 3.11475 7.71322 -0.910851 19
445 1 3.17056 5.98299 1.92635 22
446 1 1.55604 8.38879 2.37816 17
447 1 3.5533 7.91496 4.61287 17
448 1 3.21177 6.13246 7.21266 18
449 1 1.34662 9.00079 5.98416 9
450 1 4.92868 4.86171 -1.55349 20
451 1 6.80533 2.13583 -0.974134 24
452 1 6.48601 0.583153 1.72023 19
453 1 4.71807 2.94161 1.9345 21
454 1 4.77503 4.95159 4.1705 22
455 1 4.43412 3.42401 6.66267 25
456 1 7.09904 1.77454 9.54022 12
457 1 5.3641 4.76661 9.35436 12
458 1 6.53778 7.49008 -0.58737 15
459 1 6.43608 5.29222 0.873794 18
460 1 4.73143 9.30446 1.28 10
461 1 6.70122 7.84797 3.08803 12
462 1 6.45678 6.10058 6.54659 15
463 1 8.25817 4.63829 -1.97731 16
464 1 8.98981 3.08417 1.19219 15
465 1 9.53943 -0.0548505 1.66326 13
466 1 6.19655 2.1918 4.71403 21
467 1 7.8682 5.06844 3.62148 15
468 1 7.75176 3.33302 7.12368 18
469 1 9.20536 0.521139 7.21728 13
470 1 9.57793 2.39021 4.38694 13
471 2 3.08743 0.230527 3.89462 21
472 2 1.11915 2.8036 4.16607 21
473 2 1.53978 4.8365 1.172 23
474 2 2.88423 2.13506 1.15213 24
475 2 3.28932 0.0900757 9.24985 16
476 2 1.80982 2.57605 9.50789 17
477 2 1.5963 4.99036 6.88255 20
478 2 3.11892 1.99067 6.48987 21
479 2 2.96077 5.77186 4.10938 24
480 2 1.45967 8.10686 4.12515 16
481 2 1.45112 8.88798 -1.60785 15
482 2 3.0614 8.04559 1.21892 18
483 2 3.5734 5.27311 8.87942 15
484 2 3.11738 8.13295 6.33749 12
485 2 6.3158 0.294764 3.58855 19
486 2 4.69844 2.79852 3.85562 22
487 2 4.55052 4.85015 1.61558 21
488 2 6.16643 2.54879 0.930468 22
489 2 6.27751 0.0363077 9.12271 15
490 2 5.44738 2.99702 9.77834 15
491 2 4.90262 5.29476 6.63891 19
492 2 5.98915 2.34908 6.61946 22
493 2 6.40073 5.94103 4.46823 18
494 2 5.16428 8.68477 3.46844 12
495 2 6.56677 7.02015 1.42509 14
496 2 10.1195 -1.43216 2.94984 9
497 2 8.5439 2.01394 8.04326 12
498 2 8.06299 4.47926 2.00199 17
499 2 7.86489 3.34046 4.8351 19
500 2 6.77592 4.67476 8.11113 13
