ITEM: TIMESTEP
51000
ITEM: NUMBER OF ATOMS
500
ITEM: BOX BOUNDS pp pp pp
-30.0 30.0
-30.0 30.0
-30.0 30.0
ITEM: ATOMS id type x y z Coordination
1 1 26.985 -2.75852 -4.31618 6
2 1 18.072 -0.110492 0.226747 13
3 1 11.336 0.691347 -7.56308 20
4 1 13.2529 -3.45855 -21.1595 11
5 1 10.4625 -2.18013 -12.9323 16
6 1 18.6098 -4.2701 -20.0113 16
7 1 24.9875 -11.0611 -13.2796 13
8 1 20.4587 1.77764 -4.53997 21
9 1 18.8854 3.53751 -22.1111 9
10 1 19.0903 5.71463 -2.00575 11
11 1 9.71229 -4.07324 -10.2195 15
12 1 27.3148 -5.15806 -14.0722 14
13 1 23.6293 -6.51313 -3.21544 9
14 1 9.05884 -8.49639 -10.7218 8
15 1 17.559 -9.1543 -17.0377 18
16 1 24.8763 0.00231594 -18.0869 18
17 1 25.7501 -5.66729 -5.97313 13
18 1 14.6179 3.00313 -2.33478 14
19 1 15.1148 6.09023 -12.9753 16
20 1 17.6126 -7.60054 -20.1783 12
21 1 16.1218 1.91602 -4.76188 17
22 1 26.7972 -3.36797 -7.81299 12
23 1 12.1805 4.63574 -2.15483 9
24 1 20.8665 1.55896 -20.4841 17
25 1 26.2657 3.0259 -12.5985 18
26 1 22.0789 6.013 -17.6272 17
27 1 12.9386 3.78907 -18.3516 12
28 1 18.9128 5.9204 -17.7552 18
29 1 17.1463 6.83527 -15.4008 14
30 1 11.6525 4.88278 -10.7517 15
31 1 17.2757 3.16106 -1.472 14
32 1 14.1192 0.190704 -21.0184 12
33 1 12.3157 -7.63831 -5.26966 12
34 1 27.0449 -9.2743 -10.4838 10
35 1 8.61515 -1.38125 -9.6795 12
36 1 11.8558 -1.23033 -15.8989 19
37 1 17.8144 -9.25591 -7.73295 16
38 1 20.8045 6.78435 -20.3732 10
39 1 15.1108 -10.1039 -16.1847 11
40 1 17.4326 0.994215 -20.8899 15
41 1 18.3551 9.54084 -9.65082 10
42 1 8.6885 -2.94902 -6.93685 11
43 1 15.5619 6.36398 -1.56896 10
44 1 21.3016 -0.85042 -4.431 19
45 1 23.2687 -8.80899 -11.8561 18
46 1 27.246 3.31236 -19.0307 10
47 1 15.6251 -9.56436 -9.13305 16
48 1 23.0587 -7.59174 -5.68724 19
49 1 21.275 -9.76167 -4.76185 11
50 1 24.9206 5.96874 -12.9806 16
51 1 9.46093 -8.25338 -7.11089 10
52 1 20.983 -9.69353 -9.20823 19
53 1 16.7326 -4.22738 -3.98012 24
54 1 12.9719 -2.41124 -2.04296 9
55 1 24.2314 -10.3362 -9.47167 13
56 1 8.08569 -5.95769 -8.13495 11
57 1 13.5222 6.57973 -3.95799 11
58 1 9.9523 3.38203 -7.7938 12
59 1 15.0633 -0.169334 -0.50112 13
60 1 13.4054 -5.45557 -19.3747 13
61 1 11.7204 0.457589 -18.3637 12
62 1 16.0324 -5.77207 -17.7365 24
63 1 24.0799 -1.52054 -2.99951 11
64 1 21.7349 -3.54716 -1.66548 15
65 1 10.7463 -3.12858 -18.3035 12
66 1 11.0519 -6.6407 -11.2462 16
67 1 17.8602 -10.9679 -10.909 18
68 1 12.5092 1.87812 -4.73318 12
69 1 21.0566 -8.34223 -17.9382 12
70 1 15.5973 8.7475 -7.3595 11
71 1 11.1019 2.30093 -16.0479 13
72 1 12.3536 5.21806 -15.2681 15
73 1 22.4755 -12.9727 -14.7593 9
74 1 23.502 -11.0854 -6.32161 10
75 1 9.98302 3.82414 -13.6492 11
76 1 15.7739 -2.55529 -1.54464 16
77 1 11.2218 -2.07494 -5.49558 15
78 1 22.6964 -6.25821 -16.6849 14
79 1 17.2189 -8.12919 -2.19847 12
80 1 25.9702 -8.27699 -13.7028 14
81 1 26.2857 1.7697 -9.37441 17
82 1 22.8613 -0.95483 -20.2329 14
83 1 20.2205 -11.9957 -6.78795 11
84 1 12.4627 -9.8934 -10.4587 11
85 1 9.90612 -5.47209 -5.45496 12
86 1 24.7019 4.00623 -4.11794 11
87 1 25.6792 4.64717 -10.2825 12
88 1 19.7827 -1.85002 -20.2542 16
89 1 17.7328 5.71866 -20.7949 12
90 1 17.8642 6.46716 -7.72882 22
91 1 24.0136 1.74274 -20.4272 14
92 1 22.6118 -13.4844 -8.8904 9
93 1 25.5975 -8.99529 -7.1955 12
94 1 20.1248 -7.96812 -6.82925 19
95 1 8.9172 -3.3866 -15.4236 9
96 1 26.8053 -2.96291 -12.3854 19
97 1 15.4442 5.62092 -18.4185 14
98 1 23.3957 -9.84874 -15.9545 13
99 1 13.4787 -4.07707 -4.9031 18
100 1 20.0583 -13.0202 -10.3274 12
101 1 23.1468 -2.73749 -17.3996 18
102 1 22.9601 -13.7316 -12.2968 9
103 1 20.1902 -10.3958 -15.5029 15
104 1 18.4425 -2.50351 -1.78775 17
105 1 17.6341 -1.18567 -4.49008 18
106 1 28.5029 0.412747 -16.969 13
107 1 11.3799 6.8665 -12.7388 10
108 1 22.0017 6.32826 -12.0855 18
109 1 28.7424 2.79642 -15.6228 10
110 1 16.1764 -2.37388 -20.7722 15
111 1 8.11027 0.552156 -7.9737 8
112 1 19.6131 -3.8947 -4.16462 24
113 1 10.39 -5.84965 -16.0583 9
114 1 28.1927 -5.29613 -10.6554 13
115 1 20.9811 -0.0150693 -1.29499 15
116 1 18.0306 -7.14456 -5.31699 17
117 1 26.2545 2.68613 -6.71009 11
118 1 21.812 4.65853 -2.98266 14
119 1 17.5966 -10.3061 -14.0092 20
120 1 23.6311 1.92042 -1.60315 12
121 1 17.0644 3.13535 -18.2511 24
122 1 14.821 -11.1501 -12.6213 11
123 1 23.7252 4.41715 -8.24299 15
124 1 13.0835 3.84705 -6.9493 18
125 1 23.9656 3.32591 -17.6098 21
126 1 20.2321 2.86251 -0.835989 14
127 1 15.8396 -5.92316 -21.7108 11
128 1 28.8102 -7.79638 -11.7448 10
129 1 16.7118 7.24194 -4.63938 15
130 1 11.3557 5.66982 -5.36336 9
131 1 27.1622 -2.20563 -17.7798 11
132 1 22.8081 -4.08729 -4.9363 19
133 1 14.4067 -0.967027 -4.01111 21
134 1 26.2352 0.898878 -3.67955 10
135 1 20.6619 7.21346 -14.7299 13
136 1 25.4482 4.52834 -15.8366 17
137 1 18.4518 -5.28533 -1.41639 13
138 1 20.8383 -6.52301 -3.07814 17
139 1 14.6523 6.06052 -7.10511 18
140 1 20.9197 7.32481 -8.25528 13
141 1 12.1104 -5.20831 -7.66715 21
142 1 25.5119 -0.301513 -7.14088 17
143 1 15.7126 -7.33116 -14.9804 23
144 1 21.795 4.70756 -5.85655 18
145 1 25.8457 1.60844 -14.9348 19
146 1 19.387 7.19788 -10.8886 15
147 1 8.98502 -5.19532 -12.8179 13
148 1 20.4484 2.98473 -17.3569 23
149 1 13.7438 -2.60977 -18.1889 21
150 1 21.6138 -5.10491 -19.1289 12
151 1 19.5921 -12.9603 -13.1779 12
152 1 15.4259 -8.96977 -5.26931 12
153 1 29.9955 -4.85347 -13.4039 9
154 1 9.96252 1.79729 -10.6813 16
155 1 15.2528 3.48693 -20.9307 12
156 1 13.0118 -7.43792 -16.7573 15
157 1 23.6843 1.67402 -5.84536 21
158 1 14.7903 -8.54428 -19.1055 12
159 1 13.6183 6.93106 -10.1488 13
160 1 15.0366 -5.31279 -1.16135 10
161 1 24.2777 7.59612 -10.0131 8
162 1 28.3162 -0.0427669 -13.559 13
163 1 15.2792 -6.73952 -3.78265 16
164 1 24.1272 6.32046 -20.0811 10
165 1 21.5305 4.22045 -20.2276 18
166 1 19.9038 6.99912 -4.66899 12
167 1 24.1326 7.42736 -16.2742 9
168 1 28.9146 -2.60339 -15.1256 12
169 1 26.8262 0.396091 -20.2519 9
170 1 18.3607 4.39103 -5.10222 22
171 1 16.4324 7.49617 -10.1623 18
172 1 13.0726 -8.31647 -7.5317 16
173 1 26.2388 -6.33158 -8.95326 14
174 1 12.5058 -5.22994 -13.6082 18
175 1 16.8104 9.18231 -12.8383 7
176 2 8.5327 -6.62428 -6.60488 10
177 2 23.5354 3.69734 -5.66171 15
178 2 11.8361 0.558587 -9.55983 22
179 2 15.9916 -9.24197 -6.96454 14
180 2 17.0804 -1.61311 -2.82058 19
181 2 11.7065 6.0119 -3.47497 8
182 2 27.0577 -8.66594 -12.3043 15
183 2 14.3858 -1.90578 -21.2428 11
184 2 17.8055 -7.63103 -18.3184 18
185 2 15.3308 7.40155 -3.32411 9
186 2 25.9718 -6.9023 -7.25977 13
187 2 24.5744 5.90461 -9.19257 13
188 2 17.4763 5.19489 -1.50539 13
189 2 25.0049 4.24839 -12.1536 19
190 2 22.4925 2.74877 -20.6499 18
191 2 24.8715 -0.0997488 -20.3143 11
192 2 11.5525 -1.41036 -17.7542 11
193 2 16.8042 -7.87787 -4.27967 14
194 2 11.829 -0.95833 -6.81347 18
195 2 24.9093 -9.74058 -14.7694 11
196 2 22.2176 -13.6697 -10.6806 10
197 2 23.7592 0.566752 -7.78679 22
198 2 22.2613 -1.748 -2.13658 16
199 2 13.5451 -9.48116 -8.79293 10
200 2 20.8062 -12.8674 -8.3137 10
201 2 8.37763 -7.75518 -9.03717 9
202 2 16.3817 -9.77051 -12.12 19
203 2 13.3356 -10.0617 -12.0115 12
204 2 14.9304 7.55358 -8.81832 14
205 2 23.3799 1.55528 -18.4268 20
206 2 24.8288 6.18297 -14.9772 14
207 2 19.2005 1.91591 -21.0863 13
208 2 26.8121 1.10238 -7.64589 11
209 2 16.4891 7.63271 -13.8624 11
210 2 14.5168 4.47559 -8.36304 21
211 2 17.1719 9.07759 -11.0138 11
212 2 21.9509 4.18906 -17.9944 23
213 2 12.6613 3.27351 -3.32162 15
214 2 22.2682 -7.90319 -3.79704 13
215 2 20.8539 -6.60802 -18.2879 15
216 2 20.0244 -8.71551 -14.2052 17
217 2 15.7449 -5.48438 -15.8562 23
218 2 12.4225 -6.70525 -12.5471 17
219 2 28.9447 -4.45742 -15.1225 10
220 2 14.9927 5.92538 -11.046 19
221 2 15.7335 -7.55716 -20.5737 10
222 2 20.5445 -3.44012 -19.2357 17
223 2 15.5656 -10.7472 -14.4553 14
224 2 22.9396 -8.16591 -16.4661 12
225 2 26.4196 2.30419 -20.3937 11
226 2 11.2582 -8.47549 -6.5602 11
227 2 18.1801 -5.90082 -20.9399 13
228 2 19.6667 -9.39943 -17.2385 15
229 2 14.6568 -4.71691 -21.061 13
230 2 14.0116 5.38604 -2.07019 10
231 2 10.9496 -8.79501 -10.5534 13
232 2 11.7444 6.95008 -10.7924 8
233 2 11.8983 -5.85447 -5.70731 18
234 2 10.6691 -4.3571 -12.2412 18
235 2 21.6229 -7.04762 -7.2406 21
236 2 28.4974 1.04209 -15.0828 13
237 2 21.6064 5.96912 -4.40306 13
238 2 16.7036 -4.38728 -1.63997 16
239 2 9.4918 1.62269 -7.44731 12
240 2 9.84151 -1.87236 -14.7272 13
241 2 26.6868 2.97792 -10.7089 14
242 2 10.1302 -2.26586 -10.7388 14
243 2 18.6199 3.91192 -17.5581 22
244 2 19.5686 4.92901 -20.8472 14
245 2 10.4316 1.9694 -12.5436 15
246 2 25.8499 -5.45825 -12.8698 18
247 2 22.6348 -8.94842 -9.63679 18
248 2 13.4914 5.80949 -5.70154 16
249 2 24.2339 -7.40838 -12.7374 16
250 2 23.2183 3.50792 -2.65859 15
251 2 17.8818 6.20766 -9.90783 20
252 2 15.1966 -5.20671 -4.98579 21
253 2 17.1156 3.90723 -21.5031 12
254 2 27.2257 -0.377683 -18.4573 14
255 2 20.2698 0.713729 -2.98754 19
256 2 26.8821 3.41807 -14.6636 15
257 2 19.5163 6.75139 -6.91093 17
258 2 8.99907 -6.69263 -11.5738 12
259 2 18.4257 1.92276 -0.549831 14
260 2 22.7225 -2.03259 -5.00985 20
261 2 18.0242 -2.32792 -20.7191 14
262 2 16.4522 2.32131 -2.93892 15
263 2 23.968 -9.2672 -6.14459 14
264 2 11.6954 0.607925 -15.3892 16
265 2 13.601 3.92342 -16.4448 18
266 2 11.6542 2.45637 -17.7051 11
267 2 18.068 -5.28352 -4.74568 24
268 2 15.9402 7.17015 -6.45421 17
269 2 13.1623 -7.26315 -18.6586 11
270 2 26.9824 -4.68599 -9.32109 15
271 2 13.2621 6.1714 -13.6551 15
272 2 28.1732 -4.32796 -12.3889 14
273 2 13.89 -6.64994 -8.0953 20
274 2 14.183 -8.39873 -15.7538 14
275 2 18.9613 6.39547 -15.8328 14
276 2 10.3349 3.58585 -9.7767 15
277 2 18.8335 -6.88374 -2.34428 15
278 2 8.01428 -1.39172 -7.74266 11
279 2 15.1654 1.55494 -1.05907 12
280 2 10.8843 4.92557 -12.5468 12
281 2 23.8144 7.0198 -11.8367 11
282 2 14.0435 0.563429 -4.88357 18
283 2 19.9102 -4.05204 -2.06598 15
284 2 12.3759 -3.63529 -19.367 14
285 2 20.3419 6.52958 -18.6298 15
286 2 17.3534 -8.55684 -15.1048 22
287 2 19.4519 -1.97343 -4.7874 25
288 2 25.4442 3.45806 -8.1929 16
289 2 21.5332 -11.1525 -5.93288 13
290 2 25.2094 0.243006 -15.7454 24
291 2 20.2136 4.30208 -1.99737 15
292 2 16.6327 -1.10198 -0.410918 12
293 2 12.5266 -5.97377 -15.5042 16
294 2 19.7363 8.3812 -9.31276 11
295 2 10.0132 -3.42399 -5.76343 13
296 2 8.82957 -4.17725 -8.50322 13
297 2 18.5451 -12.73 -11.5622 11
298 2 19.5159 -1.13107 -0.694248 12
299 2 14.4145 4.16071 -19.3782 12
300 2 25.9002 4.05297 -17.7246 14
301 2 22.0538 -11.3087 -15.6256 13
302 2 26.6425 -3.83437 -5.99196 12
303 2 21.8846 1.79355 -0.850567 12
304 2 22.2334 6.48223 -15.6981 17
305 2 15.7397 -9.82779 -17.8583 13
306 2 17.182 9.65832 -8.01728 10
307 2 17.2852 5.77026 -18.9802 14
308 2 11.0764 4.01484 -15.3143 15
309 2 12.8825 -2.42105 -4.174 15
310 2 21.0645 -0.564955 -20.2339 16
311 2 25.2685 -2.11525 -17.4295 12
312 2 15.9242 5.93173 -16.4019 17
313 2 15.2008 1.71046 -20.976 10
314 2 24.267 -5.90657 -4.82964 14
315 2 14.4464 -0.903296 -2.0925 13
316 2 13.9884 -3.65521 -1.24333 12
317 2 19.7378 -8.65063 -5.06205 17
318 2 8.63936 0.525369 -9.99236 12
319 2 15.6536 -7.00172 -1.75621 11
320 2 19.8335 -9.90871 -7.65306 16
321 2 24.5517 0.36423 -2.82713 14
322 2 23.8203 -12.5357 -13.4882 9
323 2 11.3487 4.32492 -6.79014 13
324 2 9.97148 -4.24472 -17.1302 9
325 2 17.7458 0.737882 -4.98069 23
326 2 21.0601 -4.99104 -4.70076 23
327 2 22.4286 5.99445 -20.6015 9
328 2 21.3314 6.25808 -10.0675 17
329 2 26.0518 -1.35945 -3.77656 8
330 2 28.629 -1.81576 -16.7351 10
331 2 24.4962 -10.5229 -11.6233 14
332 2 28.3836 2.3595 -17.386 11
333 2 9.31966 -5.11385 -14.5947 10
334 2 11.5485 -5.11446 -9.54867 18
335 2 23.5243 -11.7163 -8.26341 13
336 2 24.1332 6.81078 -18.0596 11
337 2 26.2423 0.810637 -13.1865 18
338 2 23.9576 3.39857 -15.5484 22
339 2 29.762 -6.59054 -12.7478 8
340 2 27.6419 -7.28401 -10.3509 14
341 2 21.2592 -13.6404 -13.5061 10
342 2 20.4848 7.2042 -12.8435 12
343 2 18.4269 6.07258 -4.07483 15
344 2 17.4796 -10.3001 -9.20746 14
345 2 13.9713 -8.00433 -4.42147 13
346 2 25.6074 2.08915 -5.0094 14
347 2 27.7555 -2.00889 -13.7187 14
348 2 13.2158 0.209303 -19.3522 13
349 2 19.1601 -11.4319 -14.2566 16
350 2 25.9728 -9.24003 -9.00063 13
351 1 13.5799 -8.62205 -13.2167 18
352 1 13.9322 -4.28997 -15.8257 19
353 1 17.0659 -2.76299 -17.8382 21
354 1 18.9979 -6.09861 -17.4471 21
355 1 18.7384 -7.31364 -14.4454 21
356 1 17.2487 -4.56959 -14.9084 22
357 2 15.2402 -7.31169 -13.119 23
358 2 14.0796 -4.04116 -13.5973 20
359 2 13.6328 -2.26931 -16.0575 20
360 2 14.5664 -4.60957 -17.9415 18
361 2 17.8354 -4.8201 -18.4636 22
362 2 18.5487 -7.2862 -12.0231 20
363 2 16.8935 -4.48782 -12.8432 21
364 2 17.0368 -2.76729 -15.6342 22
365 2 18.996 -5.56068 -15.4731 21
366 1 13.5126 -2.35703 -13.2837 22
367 1 15.1416 -5.40681 -12.5287 22
368 1 14.2811 -6.89842 -9.83797 22
369 1 12.8294 -4.30054 -10.6247 22
370 1 13.2167 -1.9663 -7.69015 19
371 1 14.971 -5.19893 -7.10731 20
372 1 16.6218 -8.02132 -12.0886 24
373 1 16.9375 -2.26008 -12.4347 24
374 1 18.7094 -5.32112 -12.0659 22
375 1 17.9036 -7.35073 -9.77063 22
376 1 16.3202 -4.32544 -9.86944 22
377 1 16.3567 -2.13925 -7.22562 23
378 1 18.0633 -5.00638 -6.82033 21
379 2 13.4787 -3.70128 -6.90838 19
380 2 13.2504 -2.58473 -9.84857 19
381 2 14.6053 -5.08365 -10.6484 22
382 2 16.0348 -7.5573 -10.1065 22
383 2 18.207 -6.92369 -7.52148 20
384 2 16.5134 -4.34976 -7.92651 24
385 2 16.4318 -2.3883 -10.5652 23
386 2 18.1017 -5.09363 -10.1652 22
387 2 16.4141 -2.63401 -5.28032 21
388 1 15.5775 0.178006 -18.1302 21
389 1 15.2928 -1.68658 -15.4836 21
390 1 13.8366 1.78243 -15.4633 21
391 1 15.6062 4.17126 -15.6327 22
392 1 18.5726 0.459449 -17.6955 24
393 1 18.6796 -1.51015 -14.9945 22
394 1 16.7514 1.36263 -15.3456 22
395 1 18.9277 4.34398 -15.3311 19
396 2 12.2475 -1.16457 -12.6226 21
397 2 15.7016 -1.69092 -18.874 21
398 2 15.4095 -1.40996 -13.2719 19
399 2 13.4155 1.6319 -13.4613 20
400 2 15.1324 0.488646 -16.1066 22
401 2 14.9209 4.21519 -13.5948 21
402 2 18.6623 -1.53783 -17.7343 18
403 2 17.2329 1.13052 -18.9965 19
404 2 18.8316 -1.41657 -12.9247 21
405 2 16.7242 1.5053 -13.242 22
406 2 16.7412 2.81712 -16.2809 19
407 2 18.6042 0.511437 -15.7317 25
408 2 18.8441 4.22073 -13.1654 20
409 1 11.6038 0.75693 -13.4516 18
410 1 11.9538 -1.27803 -10.5345 20
411 1 13.1078 3.41051 -12.7693 20
412 1 15.0097 0.5808 -12.6413 23
413 1 14.8279 -1.57171 -9.85738 24
414 1 13.5224 1.42528 -9.96774 21
415 1 14.404 0.819616 -7.02842 21
416 1 14.9309 4.27221 -10.2952 21
417 1 17.1282 3.34262 -12.6063 20
418 1 18.3697 0.536463 -12.4713 23
419 1 18.0608 -1.42453 -9.94135 23
420 1 16.5565 1.32835 -9.74247 25
421 1 16.4387 3.58528 -7.42869 20
422 1 18.0394 0.490952 -7.1038 22
423 1 18.1037 0.968442 -2.82421 18
424 1 18.295 4.29885 -10.1795 20
425 2 12.7235 1.83238 -6.97435 16
426 2 14.9179 -0.8886 -7.73768 22
427 2 16.5287 3.86955 -5.48533 18
428 2 13.5377 3.14638 -10.8969 21
429 2 15.0888 0.301717 -10.4571 22
430 2 17.9464 -1.28802 -7.80113 23
431 2 16.0766 1.6588 -7.80858 21
432 2 16.9687 3.16436 -10.6845 21
433 2 18.13 0.551146 -10.5105 25
434 2 20.2261 3.42755 -5.30927 21
435 2 18.1432 4.36138 -7.87728 21
436 1 20.1325 -2.75275 -17.4263 23
437 1 22.8497 -7.4299 -14.0842 17
438 1 20.866 -4.47145 -14.5349 21
439 1 23.9284 -4.37573 -14.1255 20
440 2 22.7843 -4.53663 -17.899 14
441 2 21.7586 -7.46805 -12.4215 19
442 2 20.1362 -4.30057 -12.7191 23
443 2 20.5766 -2.68668 -15.3398 22
444 2 22.5511 -5.63708 -14.8808 18
445 2 23.3667 -4.59805 -12.3209 20
446 2 23.6196 -2.7624 -15.2677 17
447 1 20.1494 -8.71314 -12.3819 19
448 1 20.0414 -2.50372 -12.0559 26
449 1 21.6288 -5.45013 -11.8091 21
450 1 22.6013 -7.01145 -8.95183 20
451 1 19.8567 -4.56308 -9.33384 22
452 1 19.475 -2.21721 -6.88087 24
453 1 21.3009 -5.23435 -6.69219 20
454 1 23.0381 -2.52936 -11.7832 21
455 1 24.7806 -5.95435 -11.6663 24
456 1 23.264 -4.12731 -9.15759 22
457 1 22.833 -1.99676 -7.26221 19
458 2 19.7569 -9.82117 -10.7551 19
459 2 19.6811 -4.17284 -7.45728 22
460 2 19.7534 -2.33728 -10.0499 23
461 2 21.642 -5.18374 -9.81145 21
462 2 22.5211 -5.29719 -2.28255 10
463 2 22.9109 -4.05899 -7.15386 21
464 2 23.3407 -2.40542 -9.8146 20
465 2 24.2933 -5.94832 -9.52617 20
466 1 21.9028 0.321285 -17.5849 24
467 1 22.0223 -1.5766 -14.7028 22
468 1 20.2003 1.25312 -14.88 23
469 1 22.5048 4.51676 -14.9286 22
470 1 25.0814 -1.61392 -15.4717 19
471 1 22.9423 1.91717 -14.9269 22
472 2 23.3512 -1.20619 -18.3704 20
473 2 20.4784 1.35834 -18.1712 21
474 2 21.9292 -1.31699 -12.62 22
475 2 20.0621 1.41829 -12.8166 22
476 2 20.2709 2.98527 -15.2471 20
477 2 21.8605 0.140379 -15.5168 24
478 2 22.2258 4.59437 -12.9783 21
479 2 25.0671 -2.16785 -12.0944 18
480 2 23.3298 1.37099 -12.836 22
481 1 20.5188 3.23843 -12.5937 21
482 1 21.7062 0.326406 -12.2578 22
483 1 21.4292 -1.4091 -9.55173 23
484 1 19.7118 1.3673 -9.70512 23
485 1 19.8756 3.56725 -7.37614 19
486 1 21.3763 0.656719 -7.34078 19
487 1 21.425 4.51192 -9.74446 20
488 1 23.3231 3.20556 -12.0572 23
489 1 24.8379 -0.0363692 -12.3564 22
490 1 24.9171 -1.44635 -10.0933 18
491 1 23.302 1.25337 -9.49688 25
492 2 20.9419 -1.28555 -7.57716 22
493 2 19.8286 1.7396 -7.66251 23
494 2 19.8944 3.40531 -10.4099 23
495 2 21.5833 0.440146 -10.0763 24
496 2 21.9873 0.946614 -5.3955 18
497 2 25.8317 -1.73481 -8.29554 14
498 2 21.72 4.42026 -7.76852 19
499 2 23.1743 3.23469 -10.0833 23
500 2 24.9142 0.508685 -10.2846 20
