ITEM: TIMESTEP
17000
ITEM: NUMBER OF ATOMS
2000
ITEM: BOX BOUNDS pp pp pp
-30.0 30.0
-30.0 30.0
-30.0 30.0
ITEM: ATOMS id type x y z Coordination
1 1 -11.5872 5.05808 -12.4635 9
2 1 0.342448 -11.775 -9.44297 23
3 1 3.97498 14.0404 12.8962 14
4 1 7.50383 -14.9415 3.81619 15
5 1 -9.47025 7.68756 -1.43113 20
6 1 11.8003 -8.66011 -11.3757 13
7 1 -11.5915 4.70553 -6.18964 20
8 1 2.10683 -6.56852 9.0804 17
9 1 -6.41635 1.9075 -11.4749 19
10 1 -12.7011 -9.82161 5.25038 15
11 1 13.2483 4.85411 -11.6418 10
12 1 -3.26458 -11.6751 0.984858 21
13 1 -11.5759 -8.66793 1.82549 20
14 1 0.190081 6.22875 13.4298 16
15 1 -2.24637 11.4705 -8.99521 19
16 1 3.19908 -0.432202 12.4747 17
17 1 -6.82572 -0.175759 -14.9457 10
18 1 -14.3266 -1.35925 9.8519 13
19 1 15.3351 9.41907 6.15528 16
20 1 2.59878 10.4591 -11.4842 18
21 1 5.20042 4.45378 -11.8741 19
22 1 15.4953 1.32049 13.4853 10
23 1 -13.1472 5.59516 -8.50036 14
24 1 -9.23929 8.28866 9.82526 15
25 1 4.81996 -14.4576 6.09525 15
26 1 3.3068 -16.9666 -10.9226 9
27 1 8.47188 -13.0645 -1.42244 20
28 1 -6.27515 -11.8708 -4.14201 18
29 1 -11.7092 -6.22779 9.617 12
30 1 4.49996 -6.07458 -14.4665 18
31 1 9.25283 -11.2162 -11.7218 14
32 1 -2.846 5.94911 -14.1648 18
33 1 1.43802 9.9226 9.80785 17
34 1 0.534732 -11.1283 6.08445 20
35 1 7.09273 -5.85959 12.9529 9
36 1 -13.2286 -0.164478 1.22437 18
37 1 -17.3525 -0.0404128 5.21167 9
38 1 -4.25954 14.5127 -3.70844 19
39 1 -0.187214 -15.6511 -11.9357 10
40 1 4.10755 -5.94561 -9.19754 25
41 1 -1.05476 -7.11904 9.97497 16
42 1 -13.5718 4.74803 -2.93336 19
43 1 5.57118 11.6691 -11.9297 14
44 1 0.480672 11.5634 6.23083 21
45 1 -10.2862 7.34156 -5.04924 20
46 1 0.536061 13.3409 -1.64474 20
47 1 0.18436 -11.6788 1.25854 22
48 1 6.9862 -10.0373 -6.77016 22
49 1 6.52804 -5.23143 -16.2772 12
50 1 -7.30007 11.0709 12.394 10
51 1 -11.1045 -7.82373 -10.2827 12
52 1 -7.61069 8.80887 -3.58042 21
53 1 -7.74231 -8.72102 6.35738 16
54 1 -3.70514 15.1786 7.61006 13
55 1 -13.173 7.93679 -5.84495 14
56 1 -5.37086 8.85749 12.9494 17
57 1 -5.70731 -14.5264 6.47585 19
58 1 5.08051 -14.3849 -3.68603 20
59 1 6.72669 13.0323 14.481 9
60 1 -10.2043 5.18646 -9.66971 19
61 1 -10.4493 7.98168 -8.1253 14
62 1 7.28036 7.25933 9.42097 20
63 1 15.0958 -4.01045 -9.36625 12
64 1 10.7762 -12.4386 0.52675 12
65 1 -16.13 -2.75502 3.62489 13
66 1 5.74084 13.2543 7.99204 19
67 1 7.57589 -2.11069 12.8376 18
68 1 -7.24202 -15.5112 3.25233 16
69 1 12.1712 4.26237 4.12801 22
70 1 4.38271 15.8331 7.34395 12
71 1 -0.862692 -8.67019 -9.48403 21
72 1 -11.258 7.12783 6.4263 18
73 1 -6.9968 10.8311 -1.49034 21
74 1 -1.05805 7.93128 -8.91408 21
75 1 10.1116 12.9245 -7.96171 13
76 1 6.78169 -7.29871 10.1423 14
77 1 -4.07679 14.3625 -9.40131 13
78 1 -7.49283 10.8277 3.69935 16
79 1 -6.7408 -3.84249 13.6457 15
80 1 -6.31159 -5.96046 7.25713 17
81 1 16.3823 -8.58254 -5.46282 7
82 1 -7.69382 5.00749 4.30766 26
83 1 -10.3942 -14.3518 5.58386 11
84 1 8.67241 -9.45846 -3.94355 21
85 1 8.95072 -1.20206 -11.8615 18
86 1 -4.8772 -1.60164 -16.5289 8
87 1 1.02331 12.0381 1.61829 20
88 1 -4.39584 8.55304 -9.17272 22
89 1 1.72807 10.4389 16.3243 15
90 1 0.686216 13.2115 -6.74894 22
91 1 -9.95636 12.9414 3.08778 11
92 1 -4.67001 -8.50064 5.49867 20
93 1 14.2035 1.87096 8.82569 18
94 1 5.81132 -8.56134 -9.31973 21
95 1 6.05645 -1.49007 15.0427 12
96 1 -11.0587 -7.09858 -1.1409 21
97 1 -8.11444 -8.99055 -4.73906 20
98 1 8.71872 -7.12144 3.7056 19
99 1 10.329 2.27299 -14.2591 8
100 1 6.04891 17.7788 -1.63007 12
101 1 -6.3208 -12.9493 10.3038 12
102 1 -8.7367 -13.9218 7.81849 14
103 1 8.20913 -6.44599 -13.5074 18
104 1 9.0418 -9.66383 1.31279 22
105 1 -0.781118 -16.3686 7.47097 14
106 1 -11.6532 -12.8425 3.36607 12
107 1 16.0016 9.52164 9.42488 10
108 1 16.879 -1.90421 -4.37329 12
109 1 -14.8338 -5.00709 1.80102 17
110 1 10.2703 6.9375 4.29089 20
111 1 16.0088 13.7806 2.10502 8
112 1 -3.864 4.2308 15.6928 16
113 1 -4.62741 10.2469 9.97782 20
114 1 -5.79711 11.8358 -4.1832 22
115 1 0.899666 -6.63717 -13.6231 19
116 1 8.67063 -14.1041 -10.6348 11
117 1 1.2412 14.2654 -12.3912 9
118 1 9.0005 -4.86664 8.88997 18
119 1 1.62483 2.24999 -18.5449 11
120 1 -4.42551 10.5271 -6.4724 21
121 1 15.4324 1.68687 -3.90575 16
122 1 -12.5346 9.78151 -2.87044 14
123 1 -7.46492 16.6399 -0.693346 12
124 1 8.59136 2.25077 -9.47587 23
125 1 10.4217 -9.43107 4.98287 12
126 1 -4.88109 12.081 7.31409 17
127 1 13.6043 7.8723 -8.46132 11
128 1 7.46483 11.5617 -3.30269 20
129 1 -2.2778 17.5954 0.254724 12
130 1 12.4205 9.52753 -0.772353 22
131 1 -2.47908 11.4417 -3.61756 26
132 1 0.159637 14.7924 -9.56165 16
133 1 3.25352 10.1544 -14.3947 11
134 1 -14.0521 -10.9224 2.07971 13
135 1 -14.2313 9.13883 0.154097 15
136 1 -3.0752 -4.0617 -11.8042 19
137 1 1.52044 -12.6161 -12.7243 16
138 1 12.9859 14.1596 8.43113 10
139 1 2.22669 16.8972 5.0875 14
140 1 -13.1253 -2.9744 -1.05227 19
141 1 -8.47032 12.182 6.24102 11
142 1 14.6429 -6.59824 -4.16166 19
143 1 -10.9275 1.92544 -10.7863 18
144 1 6.63863 1.94015 15.9065 15
145 1 7.1071 17.388 1.88927 14
146 1 -1.71288 10.7709 8.6781 19
147 1 3.66817 -5.70375 -17.817 14
148 1 -6.56147 14.5651 6.62501 11
149 1 -0.970836 10.1229 -6.26186 23
150 1 4.98863 -2.79079 12.0985 16
151 1 -12.4241 -5.80651 3.24336 21
152 1 -1.51804 -13.0829 -11.7119 14
153 1 -7.36538 8.71407 -8.71806 17
154 1 -2.27033 -10.2438 3.72619 20
155 1 3.51002 -15.6737 -6.86252 21
156 1 -4.56719 12.2528 -11.1905 12
157 1 -15.8474 1.51152 7.33477 12
158 1 10.6878 10.5253 -4.57781 20
159 1 -8.89939 4.50016 13.971 11
160 1 -0.576634 -10.4512 9.40173 16
161 1 3.36308 17.9498 2.38725 13
162 1 0.694862 7.3253 9.16184 18
163 1 13.947 4.26153 12.2852 16
164 1 -4.00264 14.431 1.41146 18
165 1 15.1094 -6.83311 -7.34915 16
166 1 -6.35615 13.3556 9.60335 13
167 1 13.7142 -6.4432 0.847388 17
168 1 -14.3689 0.88424 4.16506 16
169 1 -8.83135 -9.92843 3.05862 19
170 1 4.97705 6.88161 14.757 20
171 1 -15.7932 1.87365 -3.18784 15
172 1 -2.60178 -15.7879 -1.87276 19
173 1 -0.547349 10.0799 3.52907 19
174 1 6.8177 13.6619 11.548 12
175 1 -6.49695 13.8955 -6.79646 16
176 1 -12.4815 -6.40695 -6.14824 12
177 1 -7.36499 -1.84464 8.4705 18
178 1 0.329512 -9.5285 4.03533 19
179 1 7.66557 -12.6208 6.27635 14
180 1 -11.4475 8.87375 0.604505 18
181 1 14.9255 3.66836 6.59134 21
182 1 -6.05442 -9.5849 -13.6321 12
183 1 5.47202 -1.27484 9.28321 20
184 1 8.81755 -17.6707 2.27664 8
185 1 0.585398 7.35237 -11.4154 22
186 1 4.01477 -9.10618 -16.4711 10
187 1 11.5178 -0.468202 -12.586 12
188 1 5.35764 7.89916 -14.5173 13
189 1 -8.36261 -3.09898 -9.39592 21
190 1 -3.1666 13.1564 -6.48154 22
191 1 -8.53946 -10.8202 9.83014 13
192 1 8.09596 15.8193 -0.743412 15
193 1 -7.50636 2.33298 14.8668 10
194 1 -7.96182 14.7896 -3.80323 15
195 1 8.71662 2.29437 6.732 20
196 1 -4.01895 -6.93113 -14.5254 15
197 1 -4.06281 9.70772 -13.401 14
198 1 3.63801 5.19092 -9.1228 23
199 1 -7.81697 -13.0359 5.08529 18
200 1 -6.1607 5.06184 7.11381 20
201 1 -7.81998 6.70865 7.04631 17
202 1 0.219892 -9.38072 -11.9712 20
203 1 -6.08165 -16.2746 -1.65568 14
204 1 11.1183 -12.0208 -3.59591 10
205 1 12.6301 6.89095 13.6099 14
206 1 7.45349 7.15654 -6.1621 22
207 1 -13.1271 11.7607 2.70859 11
208 1 2.48255 4.51901 9.18387 20
209 1 6.29548 -17.5762 0.722807 13
210 1 12.2177 2.15288 -3.92877 22
211 1 -9.22059 7.79799 4.09379 18
212 1 -7.89415 -7.14011 -1.84209 21
213 1 8.43536 4.78702 -12.1457 19
214 1 6.8829 -4.49901 10.3064 20
215 1 8.43566 11.3664 -10.519 15
216 1 -1.47742 -0.679999 -11.8214 22
217 1 2.84151 -19.253 4.05484 8
218 1 12.3206 -1.37331 -6.71797 22
219 1 -11.3319 -0.610914 3.99429 19
220 1 3.9634 -15.9367 -0.983755 17
221 1 -10.7313 -5.57872 -8.23584 17
222 1 2.21094 14.2812 -3.8699 24
223 1 -1.29904 -1.87684 -14.4861 17
224 1 5.00769 3.70731 14.2069 18
225 1 15.0461 2.78714 1.90052 17
226 1 12.4135 -5.91374 -9.61211 17
227 1 -6.50295 -3.98467 -11.9099 20
228 1 -7.99624 -0.325212 -12.3494 14
229 1 -4.20195 -15.8183 9.20231 11
230 1 11.9591 -3.61904 7.53251 20
231 1 -8.93309 -9.80151 -11.5876 10
232 1 3.91723 5.60462 -14.4035 20
233 1 4.35274 11.565 1.3675 22
234 1 -6.09996 -1.11755 11.6867 17
235 1 -8.67391 -8.81177 -8.78692 18
236 1 -3.19605 -5.62739 -9.13085 21
237 1 -1.0444 8.4251 -14.3041 18
238 1 -4.5034 -8.61256 -4.14432 20
239 1 11.6902 -6.25532 -12.8377 13
240 1 16.1071 -1.47232 -7.29559 15
241 1 10.6537 1.65425 4.15449 24
242 1 -12.103 -3.3637 10.8025 12
243 1 -1.24667 -12.755 -1.66831 22
244 1 8.50889 4.70899 17.3414 10
245 1 -3.91481 -16.662 2.73009 16
246 1 -1.67627 -14.4616 1.44172 23
247 1 -2.32704 17.1769 -3.50363 11
248 1 2.45232 -0.778039 -17.3693 16
249 1 -6.29565 -3.78823 -15.3252 12
250 1 -9.55022 -8.27442 11.3146 13
251 1 3.87047 7.84374 17.4252 11
252 1 2.02905 -13.0937 -1.30675 21
253 1 -2.87936 -11.6078 -9.77875 19
254 1 -7.96956 4.71429 -6.15752 18
255 1 12.4596 6.26465 6.34762 18
256 1 -8.0107 3.06129 -9.02163 21
257 1 4.44449 7.93893 -11.2735 21
258 1 6.35063 -16.8305 -11.1456 7
259 1 -4.19518 16.4573 -1.65947 14
260 1 2.52846 10.3206 4.3527 21
261 1 14.3897 1.44787 4.41227 21
262 1 -9.50457 2.21028 3.89028 22
263 1 -4.64513 -7.01609 9.91887 18
264 1 -4.45605 10.6207 4.50935 17
265 1 3.1703 -3.63883 -12.2762 23
266 1 15.7237 9.64169 -2.58222 14
267 1 3.14757 -12.1993 1.21046 19
268 1 -1.40088 -0.94811 15.3916 12
269 1 -15.5414 -5.49215 5.01449 11
270 1 2.00211 -17.8246 -4.6163 12
271 1 -8.69588 8.01334 13.4799 12
272 1 -9.43263 5.78059 11.3451 15
273 1 -13.3463 -3.76805 8.20406 14
274 1 -13.1055 -6.97339 6.75992 17
275 1 11.9144 -3.69927 -4.05954 20
276 1 -11.1136 -9.30824 8.26318 14
277 1 8.77823 -3.14395 -9.46685 22
278 1 8.93837 -12.7008 -7.16284 15
279 1 4.12458 16.597 -4.32749 15
280 1 -9.46105 13.7423 -1.50067 13
281 1 10.6066 6.64257 8.51186 14
282 1 7.01897 -12.003 -4.25843 22
283 1 -2.68296 11.6901 2.04193 24
284 1 7.03019 -10.5807 9.07783 12
285 1 14.8909 -5.36545 3.95166 10
286 1 -1.22406 2.29888 15.6138 15
287 1 -2.15303 15.4377 4.3152 15
288 1 9.91426 6.49226 15.2042 14
289 1 -9.60945 13.8167 -5.62809 10
290 1 1.12711 -3.50931 -19.5027 10
291 1 6.84742 -9.61437 -13.0681 14
292 1 -7.52138 3.85167 10.2324 20
293 1 -15.3131 2.41192 1.67981 15
294 1 -4.47435 10.7718 -1.00908 22
295 1 10.8109 -0.302491 6.78059 20
296 1 -11.0641 -11.3378 1.90754e-04 15
297 1 4.79234 -10.9536 6.48938 21
298 1 -6.10357 -9.39373 10.9593 13
299 1 -15.3293 5.62921 2.51491 13
300 1 1.95824 -13.077 -6.89934 22
301 1 -4.60563 -1.42966 -12.0398 18
302 1 9.6463 -3.72603 -13.6049 17
303 1 5.97165 13.4872 2.44882 20
304 1 -9.49086 0.00162913 -4.6379 20
305 1 5.96576 -6.77839 -11.8108 18
306 1 10.6229 2.94612 -11.7772 15
307 1 -3.65419 -14.4142 -6.00559 14
308 1 -11.6631 -9.197 -4.21659 14
309 1 12.5672 3.96176 14.8941 12
310 1 11.8549 4.02921 -1.07494 26
311 1 -9.0673 7.45511 -10.9534 15
312 1 4.96244 15.3134 0.491419 20
313 1 -14.9796 -0.28463 -5.80356 10
314 1 -5.67559 7.7985 4.45561 21
315 1 -5.88627 11.859 1.41701 21
316 1 10.374 5.33252 11.7743 18
317 1 10.7156 -4.27939 -7.39736 21
318 1 10.5999 -5.94339 12.0496 11
319 1 13.7731 -0.821359 -4.1546 21
320 1 -4.28966 -16.4926 -4.19091 14
321 1 6.99801 -12.1442 1.73904 17
322 1 13.9633 -0.268133 7.29931 19
323 1 -9.80069 -3.20386 -6.29589 19
324 1 -8.12036 -8.93104 0.588999 23
325 1 -6.47498 -6.7594 12.9204 12
326 1 -2.67725 13.4342 -1.29398 22
327 1 -9.50422 -10.0232 -2.22736 20
328 1 7.33031 9.34554 15.233 14
329 1 -11.2048 4.70352 -0.884123 20
330 1 0.743789 11.2626 -9.03352 17
331 1 3.45215 11.4141 7.62039 21
332 1 -15.3858 -8.66489 -2.74989 8
333 1 -2.70187 -9.89834 -6.8879 20
334 1 -12.6885 -0.484076 6.95904 16
335 1 -14.0133 7.35099 -2.54515 15
336 1 3.54674 -9.69795 4.00596 18
337 1 -4.72352 -13.1474 -2.03907 21
338 1 13.5376 12.2093 5.0396 19
339 1 7.63316 6.84504 -13.6907 13
340 1 -13.8387 2.95863 -10.8536 11
341 1 -2.2857 15.8719 -11.0664 8
342 1 -9.28542 5.34659 -3.35838 19
343 1 -0.457631 -13.3177 4.40607 18
344 1 15.0676 10.7712 2.84668 17
345 1 2.06149 7.42505 -15.833 12
346 1 -17.3631 0.736484 -0.424633 10
347 1 -4.21909 -14.0865 3.77639 19
348 1 8.98772 -9.03536 -9.31918 20
349 1 -16.0158 3.4539 4.86374 11
350 1 -16.3953 -1.8859 7.87225 8
351 1 -13.835 8.63297 3.27217 14
352 1 -9.4805 1.83628 -13.0235 12
353 1 6.07767 -12.5552 -12.0929 15
354 1 1.72706 -10.5168 -14.7573 12
355 1 -2.99059 -4.174 9.27554 20
356 1 -1.45874 3.09018 -13.9943 16
357 1 10.0805 -13.9176 3.78404 8
358 1 4.33273 12.8404 -6.67617 24
359 1 -11.3749 10.2279 4.61402 12
360 1 -4.00683 -2.66427 14.8783 11
361 1 -8.73891 -6.2274 -11.1849 20
362 1 -8.46314 -6.76932 2.89523 18
363 1 10.6579 -6.2418 6.00966 16
364 1 8.03785 -8.91986 6.73343 18
365 1 15.9444 7.33265 -5.96159 11
366 1 -4.77309 3.21301 12.919 19
367 1 2.48613 10.4603 -1.14352 21
368 1 -0.90193 -14.7032 -4.37199 19
369 1 -3.40151 7.31902 16.2667 10
370 1 -0.764333 14.903 6.59083 16
371 1 -8.601 -11.8672 -8.42431 14
372 1 9.23403 14.1737 1.77542 18
373 1 3.30434 5.38128 12.5542 17
374 1 -3.88371 4.29838 10.0576 20
375 1 -9.93977 4.89834 8.71314 21
376 1 -8.54312 -6.56501 -7.06155 19
377 1 -4.24757 8.06671 7.20269 18
378 1 -6.38207 -9.87795 -6.57973 24
379 1 1.08442 -7.9124 -16.6839 14
380 1 -5.20842 -14.3309 0.878421 21
381 1 12.2742 2.9928 6.97015 18
382 1 -3.8668 -4.85507 12.4522 14
383 1 -6.40323 6.04036 -8.87829 22
384 1 10.4988 7.20809 -0.933337 26
385 1 -7.63752 -14.7495 -3.82727 12
386 1 -0.388907 16.3136 -1.13968 16
387 1 -0.272524 11.4551 11.6865 21
388 1 -16.2576 -1.23649 -2.76062 13
389 1 0.909067 17.3286 -3.9318 13
390 1 5.25742 13.9418 -3.49075 22
391 1 -4.1375 -8.40622 -9.25791 18
392 1 1.40223 3.99532 14.1313 17
393 1 2.63177 -14.542 -9.78023 18
394 1 -0.0584577 -3.88207 -12.2002 19
395 1 8.97372 -14.6757 1.1738 16
396 1 -7.60069 8.80052 1.42818 21
397 1 3.21158 11.2937 11.1661 19
398 1 9.11043 10.036 -1.4892 22
399 1 -6.4655 7.43505 -11.8573 19
400 1 -15.6044 -4.89481 -1.8291 12
401 1 6.2462 18.9427 4.77827 8
402 1 -1.12729 4.71427 -11.4602 23
403 1 10.2968 5.04843 1.71102 23
404 1 6.787 13.3383 -8.61099 15
405 1 15.0294 4.03996 -1.59935 16
406 1 1.37868 -1.25754 -11.1353 23
407 1 2.03206 -14.3716 7.86073 14
408 1 1.63468 -8.99877 11.3044 9
409 1 -9.76143 2.40532 -7.1507 21
410 1 -9.12123 -17.1648 5.90492 8
411 1 -3.21068 -9.79434 -12.0839 21
412 1 10.5575 15.9938 7.20139 8
413 1 3.61466 1.37395 -12.03 23
414 1 3.99559 1.57563 15.9174 11
415 1 -14.0424 2.1269 9.66059 11
416 1 -0.635485 -20.0948 -0.309947 8
417 1 -11.4994 -2.98494 1.5529 21
418 1 16.8265 -4.65814 -6.16875 13
419 1 12.299 -1.42089 -1.15626 21
420 1 3.79425 -10.0464 -6.7874 22
421 1 4.84713 0.0589331 -14.4741 19
422 1 12.0087 -7.12454 -6.20802 19
423 1 -4.24975 1.1859 14.7484 16
424 1 3.90804 13.314 -0.89278 24
425 1 -4.17692 -5.61188 -17.3523 9
426 1 7.00335 3.39497 -15.5374 17
427 1 -7.91243 -4.01433 5.80439 15
428 1 -0.919532 14.8153 1.22482 20
429 1 -9.15634 -3.69187 -13.1989 12
430 1 -16.3717 -0.385075 1.94137 13
431 1 -1.48227 -9.65673 -14.8688 15
432 1 -6.30458 -11.0355 7.40164 21
433 1 1.87551 8.3615 -8.84316 22
434 1 17.2306 0.618898 10.2969 7
435 1 16.0686 7.25627 0.0297557 12
436 1 -8.40422 -12.7857 -2.07384 17
437 1 -1.98928 -5.82292 -20.4298 7
438 1 -11.2387 9.94341 7.62772 12
439 1 12.3762 -7.73898 -1.73408 19
440 1 5.86506 15.7723 -6.6339 14
441 1 15.5159 5.24808 -8.97884 9
442 1 4.13291 9.66009 13.3421 14
443 1 -9.9937 4.8704 5.7629 18
444 1 6.0169 10.2628 9.77277 19
445 1 9.44151 -0.327163 14.5986 15
446 1 1.41857 0.909351 -13.5047 17
447 1 3.44292 -3.88576 9.57641 20
448 1 7.13624 10.9968 6.93969 22
449 1 8.9849 4.07201 -6.60428 21
450 1 -7.91475 10.9833 -6.1078 17
451 1 -1.08039 10.6072 -0.951714 23
452 1 13.062 -3.90514 11.2488 13
453 1 12.5043 2.32462 -9.61968 19
454 1 10.4241 -9.84506 -6.49983 19
455 1 12.7505 8.80976 11.1442 16
456 1 -15.2321 -8.1375 0.571466 14
457 1 -7.21508 10.3716 -11.8186 11
458 1 -11.5654 0.13888 10.827 13
459 1 -5.98688 11.8399 -8.66008 17
460 1 1.91942 -15.0628 -3.8507 21
461 1 7.06516 -0.238818 -9.43323 21
462 1 -0.727734 14.511 -4.4006 20
463 1 -7.2334 -6.42803 -13.8112 13
464 1 5.17914 -14.726 2.05946 18
465 1 -13.0367 -5.60873 -0.0041575 23
466 1 0.288284 11.9141 -14.6231 8
467 1 -1.28253 11.4708 14.2024 12
468 1 -9.93516 -6.10398 7.20896 18
469 1 3.71646 -11.7174 -9.84797 21
470 1 4.16986 -6.4061 11.3583 14
471 1 -13.0573 6.38642 0.350513 18
472 1 5.28419 4.98299 17.3761 14
473 1 7.60964 15.6711 -3.78455 15
474 1 10.3974 -6.79513 -3.91157 19
475 1 4.01519 7.15906 9.53749 18
476 1 3.90992 7.54261 -18.7023 6
477 1 -3.61825 -12.5749 9.28479 17
478 1 8.1732 0.926455 -16.9607 9
479 1 4.10016 13.1987 4.44238 23
480 1 10.577 4.69017 -9.6099 21
481 1 -1.69744 -4.94886 -14.62 18
482 1 -3.1283 -12.1171 -4.30673 21
483 1 -11.1424 -4.14752 -10.5998 12
484 1 11.7844 2.45502 1.89376 23
485 1 17.2115 6.04742 -3.07592 10
486 1 7.36094 -5.98987 -9.22284 23
487 1 15.4719 7.21079 11.527 12
488 1 3.65803 -11.873 -4.15652 23
489 1 5.10488 4.74541 -17.9207 13
490 1 7.58761 13.2995 5.11605 22
491 1 9.78073 8.38508 12.8977 16
492 1 11.8089 7.76998 -3.32751 21
493 1 12.6767 -0.205742 2.30419 19
494 1 12.0943 4.02966 -6.62396 18
495 1 9.62993 0.627437 12.0504 23
496 1 15.6831 4.37676 9.55627 11
497 1 12.4031 11.5414 -2.64702 15
498 1 0.998026 1.05366 13.8676 15
499 1 17.2061 1.03328 -6.44216 11
500 1 10.8247 1.81467 9.28136 20
501 1 -6.30079 -0.164435 -9.331 20
502 1 14.8602 5.70951 4.16051 17
503 1 -12.0328 6.89466 9.55876 13
504 1 11.4781 11.9712 10.4851 13
505 1 12.4241 2.22648 12.2116 18
506 1 5.54659 8.42209 7.01958 24
507 1 2.11968 13.8774 6.42939 19
508 1 -0.833457 -16.5934 4.48688 15
509 1 -4.52124 8.80533 -3.69758 23
510 1 11.9606 10.6043 -7.40337 15
511 1 11.842 -3.47625 -10.5625 20
512 1 2.80521 16.3463 -1.11411 18
513 1 -0.748089 -13.0673 -6.68233 20
514 1 9.72146 -9.0183 -14.3391 11
515 1 -11.2287 2.4059 7.28853 19
516 1 -2.99941 5.39071 -8.62655 22
517 1 -1.5925 -17.6812 0.940345 12
518 1 -3.08825 2.07935 -11.3384 21
519 1 -13.1949 1.82446 -1.6196 19
520 1 12.2508 -7.77832 3.47808 12
521 1 12.9225 13.2594 2.22044 16
522 1 1.97582 -8.80043 7.06927 19
523 1 -11.9194 0.0673156 -6.37688 19
524 1 2.38446 4.8742 -17.2817 16
525 1 2.41327 2.51457 11.7085 18
526 1 7.10719 8.94211 -11.4267 15
527 1 15.0576 -1.29928 12.4151 10
528 1 10.5588 5.27987 -3.6916 24
529 1 11.7997 10.1492 2.77546 21
530 1 5.49856 -17.9462 -8.16038 10
531 1 -8.92472 -1.90003 11.4144 15
532 1 13.7267 -2.01652 5.04054 15
533 1 0.386357 14.6173 12.4468 10
534 1 5.39536 8.13788 -8.84314 20
535 1 -9.71497 11.3279 -2.98046 21
536 1 8.54449 9.98559 4.43087 22
537 1 -8.2996 -14.8257 -0.116142 14
538 1 15.2045 -3.38287 2.07473 12
539 1 5.48642 15.8381 4.24527 17
540 1 -1.00734 4.24931 9.38288 18
541 1 -10.0679 -5.73016 0.918294 19
542 1 -11.124 -2.00058 -8.31896 15
543 1 10.2492 -2.83796 11.4537 20
544 1 -3.60532 -9.4675 8.33898 19
545 1 6.97127 5.64626 12.6401 20
546 1 -6.29578 13.9935 -1.5824 20
547 1 -1.78796 -2.57148 -17.1018 14
548 1 -6.7207 -0.235967 6.29102 20
549 1 10.8221 -0.0264785 -9.43698 20
550 1 10.9904 -11.8922 -9.49231 12
551 1 8.68026 4.30573 9.69102 19
552 1 -8.49153 1.5698 11.9915 16
553 1 11.9756 9.29004 5.37507 20
554 1 1.71804 -3.75717 12.3595 14
555 1 1.78387 8.78236 12.7197 20
556 1 1.05628 -4.34361 -16.4552 21
557 1 -6.6668 5.55619 12.646 18
558 1 7.83997 2.62257 13.0047 16
559 1 -6.29697 -17.6384 7.34817 10
560 1 14.1506 6.75522 -1.43876 19
561 1 8.09266 -14.7409 -4.43842 12
562 1 5.33826 10.3968 -1.21996 20
563 1 10.5657 12.5032 3.71326 19
564 1 5.93654 -1.11857 -17.361 12
565 1 0.764706 11.3343 -3.81402 22
566 1 12.4878 7.45531 1.86139 19
567 1 -6.30331 -11.8168 -0.111168 20
568 1 -0.0142257 0.714099 -16.1878 17
569 1 -9.38591 11.6603 0.666603 19
570 1 9.50971 -5.93704 -10.9645 19
571 1 11.6762 10.5959 -10.5481 11
572 1 9.68579 13.5387 -2.87264 19
573 1 12.5564 0.215509 14.6898 14
574 1 11.3448 -3.21206 14.2464 9
575 1 -0.816705 -13.011 8.57813 15
576 1 -2.53513 7.64166 -11.3585 22
577 1 3.10985 14.4703 9.83726 16
578 1 9.95101 -5.99848 -16.1986 11
579 1 7.61574 13.0246 -5.96759 20
580 1 6.82416 7.13117 4.14244 22
581 1 12.969 -9.18786 -4.36912 14
582 1 7.40623 7.50735 17.4932 11
583 1 -10.372 -3.14086 7.18632 15
584 1 1.61143 -14.5635 1.96537 15
585 1 -7.60407 14.7874 1.38611 18
586 1 5.46905 10.2733 4.05331 22
587 1 -13.0267 -2.92867 5.03252 16
588 1 -0.882202 5.49826 16.2295 15
589 1 -4.83874 7.68324 -14.9953 9
590 1 -7.91777 4.7331 -11.7291 17
591 1 7.02345 -16.2924 -1.29286 14
592 1 8.34272 8.47508 -3.67088 23
593 1 -11.7006 3.56694 11.0332 14
594 1 6.20895 -2.2164 -13.9114 17
595 1 2.55652 -11.1445 8.76749 15
596 1 2.2601 15.0877 2.03583 20
597 1 -1.55825 3.35517 12.6029 18
598 1 -6.74539 -5.99733 -9.33296 18
599 1 -3.68219 -12.3866 -13.4596 9
600 1 -4.85037 -12.68 -7.72912 16
601 1 -1.38499 15.4446 -7.32387 12
602 1 -2.42329 11.9057 5.53869 21
603 1 5.45885 -12.696 -6.92694 21
604 1 4.51469 -18.6967 -1.96277 13
605 1 5.56884 -8.1201 7.57277 17
606 1 15.5565 1.86795 -9.00487 13
607 1 0.119545 -15.1629 -8.58314 16
608 1 -9.51759 0.233643 6.41431 20
609 1 -3.81681 -18.1942 -1.14333 13
610 1 -6.24795 -9.48403 -1.99046 20
611 1 -7.72746 2.51298 6.83254 25
612 1 -6.40957 -17.237 1.47653 13
613 1 15.8931 4.12298 -6.18365 15
614 1 -5.01618 16.2867 4.18437 14
615 1 -15.8188 4.07466 -0.795005 17
616 1 11.9642 -3.56095 0.682094 15
617 1 -9.46867 0.225561 -9.53735 21
618 1 10.2025 1.36256 -6.89297 21
619 1 8.63241 11.0723 12.4658 16
620 1 -12.7271 1.79852 -8.4262 17
621 1 -10.1291 -5.90768 -4.29432 19
622 1 -0.243989 8.81177 15.9447 13
623 1 7.34042 5.28365 -9.30974 22
624 1 10.4818 11.4733 6.74923 21
625 1 -2.07814 -2.71893 12.2713 15
626 1 -1.85829 -19.1532 -3.29646 11
627 1 -3.18539 -18.227 6.86029 12
628 1 13.7538 10.9591 8.2633 16
629 1 3.32725 -9.38386 -12.608 21
630 1 -9.87278 -3.96121 3.58791 21
631 1 10.7706 7.00084 -11.8742 14
632 1 -1.02508 -17.08 -5.64195 12
633 1 2.68937 -20.0186 0.61574 8
634 1 0.423841 -15.4455 -1.08401 15
635 1 6.71474 1.36136 -12.433 18
636 1 8.86787 16.1273 3.91424 13
637 1 -2.82885 0.565976 -15.5237 11
638 1 0.210751 -0.77475 12.1153 18
639 1 2.50196 2.83078 -15.5579 19
640 1 -12.3568 -0.671876 -10.4488 10
641 1 -9.8765 -4.00574 -1.09812 21
642 1 2.55231 15.5192 -6.93801 15
643 1 -2.11093 -7.3621 -17.6562 13
644 1 10.7771 7.79169 -6.29803 19
645 1 10.5433 -6.80599 0.539862 20
646 1 -6.09994 6.51043 15.2403 12
647 1 6.82468 -9.573 4.04769 19
648 1 13.6695 -4.25784 -2.03596 20
649 1 14.4789 -2.11963 9.19757 14
650 1 -0.902029 8.61765 6.83045 18
651 1 -8.88416 1.12678 9.52458 20
652 1 -6.45652 7.94713 9.7781 17
653 1 -2.65215 -14.3794 6.49029 18
654 1 6.6275 8.86834 12.0819 16
655 1 -16.2713 -2.57568 -0.102663 14
656 1 12.2329 -9.76699 1.6701 12
657 1 -12.3272 11.9107 -0.0410323 12
658 1 2.58234 -16.4245 5.44531 13
659 1 5.92639 0.73832 12.1962 21
660 1 0.594904 13.6296 3.9764 21
661 1 4.35629 -10.3782 10.8333 11
662 1 7.3184 1.61878 9.56872 21
663 1 -13.3 -5.94231 -3.15329 17
664 1 3.46722 13.6309 15.9267 11
665 1 7.63873 11.0486 1.51152 22
666 1 -13.7898 -14.2979 4.32189 4
667 1 -0.149525 -19.6711 6.06092 7
668 1 8.93495 -3.08429 6.29167 18
669 1 14.009 -6.03437 6.5214 11
670 1 8.74977 8.07241 6.76904 18
671 1 2.31771 -9.38929 -9.37023 21
672 1 0.127482 2.15601 -11.2177 24
673 1 -3.11488 0.322723 12.0291 19
674 1 0.0757397 17.5362 2.53448 12
675 1 16.9559 2.57419 3.83364 9
676 1 2.66892 10.2782 -6.66898 23
677 1 -1.64894 8.89571 12.7178 17
678 1 9.51149 9.60957 9.78511 19
679 1 7.05858 -3.93079 -11.639 24
680 1 -8.43016 -12.1277 1.6111 18
681 1 16.5851 0.301426 6.78396 13
682 1 3.06563 -7.09273 -11.5623 17
683 1 1.46257 12.031 14.023 18
684 1 7.25469 -11.8803 -9.45242 19
685 1 7.03497 6.75479 -17.5018 8
686 1 13.6185 7.57099 -11.4813 9
687 1 15.4176 -1.35714 -0.984936 14
688 1 0.107615 -3.72682 9.67395 23
689 1 -5.24006 -7.0385 -11.4452 20
690 1 7.11486 13.0343 -0.733204 21
691 1 -11.2971 5.18195 3.09829 16
692 1 13.3764 5.03738 -4.08431 21
693 1 16.6808 7.87811 3.30591 9
694 1 1.89994 -1.8773 -14.117 21
695 1 -7.73598 17.3606 2.84206 8
696 1 16.623 11.5368 5.03594 8
697 1 10.7807 13.9988 -5.09798 10
698 1 4.57978 1.67593 -16.8865 16
699 1 16.3276 -6.64344 -1.17519 8
700 1 -11.361 -0.719692 -1.38689 20
701 1 13.6926 5.04597 1.37919 21
702 1 -12.8542 -9.71661 -1.3815 15
703 1 -10.7737 10.4416 -5.74233 14
704 1 5.60774 4.54894 9.55955 21
705 1 -12.8191 -3.20076 -5.00488 18
706 1 -13.89 6.16177 5.33112 12
707 1 13.4847 -9.2955 -8.12612 12
708 1 -11.0751 -9.66109 -7.1095 13
709 1 10.6028 -9.98655 -1.47207 19
710 1 -17.1953 5.36864 -3.55004 10
711 1 13.8292 7.76927 8.46671 19
712 1 -5.62908 -10.3592 3.6395 19
713 1 9.8887 2.78886 15.1755 14
714 1 16.2872 -3.01404 5.8233 10
715 1 -11.5416 2.27703 1.82099 20
716 1 2.71505 8.25805 6.81328 20
717 1 9.23738 8.10404 -9.20478 16
718 1 0.888165 -6.35233 -19.2698 11
719 1 -5.27333 13.548 3.99683 19
720 1 -9.47573 -10.7883 6.44693 19
721 1 8.7747 9.98979 -7.52805 18
722 1 0.806861 13.058 9.34403 19
723 1 16.7115 -4.33903 -2.73645 12
724 1 7.24386 -5.92361 6.96063 22
725 1 -1.84963 13.4562 -12.386 16
726 1 5.0351 10.8969 -9.13213 24
727 1 -2.49863 1.66233 9.22048 20
728 1 16.1705 6.83581 6.88651 13
729 1 -1.6848 -6.923 -12.3151 17
730 1 14.5105 12.2535 -0.388741 14
731 1 -13.0741 -0.438955 -3.522 18
732 1 -3.91839 -11.663 6.10654 20
733 1 3.12556 13.3305 -9.86124 17
734 1 8.67109 -1.22786 9.79653 22
735 1 0.588186 -11.6244 -4.03654 23
736 1 -5.53822 18.5272 1.51458 8
737 1 -16.6192 7.04786 -0.727482 10
738 1 13.967 -3.90725 -6.39622 20
739 1 4.283 -11.9627 -14.6348 10
740 1 -9.55006 5.85887 1.25326 19
741 1 13.8449 8.77579 -5.03734 17
742 1 7.83028 -2.99921 -17.0138 11
743 1 -6.23643 -10.5334 -10.3435 18
744 1 0.375488 -9.7099 -6.93626 21
745 1 -3.99199 11.6888 12.6845 12
746 1 5.33063 -12.6703 -0.948592 22
747 1 -1.02804 10.2212 -11.7894 17
748 1 13.7576 1.64874 -6.32182 21
749 1 9.30185 8.37371 1.43663 22
750 1 1.75337 -20.1649 -2.33053 9
751 1 4.24051 -2.87002 -16.3221 18
752 1 13.5765 1.25901 -1.25176 21
753 1 0.774128 5.60966 -14.4246 22
754 1 -1.55261 -8.4712 6.46195 20
755 1 5.70654 10.0723 -6.05606 23
756 1 -11.4264 2.48605 -3.73167 21
757 1 -13.8512 4.74064 7.72976 12
758 1 2.5661 6.61168 15.5753 19
759 1 -7.7277 -7.04459 9.35639 18
760 1 7.22837 5.16181 6.57419 22
761 1 2.86055 -12.9525 4.51513 17
762 1 3.87734 11.5261 -3.8471 22
763 1 -3.01926 7.38928 10.0431 17
764 1 -5.58089 1.31801 9.8002 21
765 1 -8.46565 11.1747 9.00912 11
766 1 -5.55303 -4.04526 9.97112 19
767 1 5.08116 -12.8644 8.66876 14
768 1 13.0064 4.7105 9.56349 19
769 1 8.73981 -6.96582 -7.23408 18
770 1 5.81984 -14.5282 -9.17246 19
771 1 -5.65643 4.14572 -13.5249 13
772 1 -0.585477 3.46453 -16.1687 14
773 1 8.80976 13.0094 8.37777 16
774 1 -8.9307 -4.99552 11.4717 14
775 1 -6.13276 8.01833 -6.29489 19
776 1 -14.8509 5.79952 -5.72563 13
777 1 10.7714 11.5609 0.061332 19
778 1 -6.13466 -18.7564 4.71949 10
779 1 11.6 15.0557 5.09599 11
780 1 -9.26569 -11.7283 -5.52281 15
781 1 7.79452 15.4137 8.76224 9
782 1 -6.77873 -0.880243 15.1725 9
783 1 -2.07863 -14.4976 -9.16913 15
784 1 11.5717 -0.852036 9.75296 19
785 1 5.75791 -17.5063 4.42734 10
786 1 5.21545 10.4184 17.2051 10
787 1 13.9309 -0.696978 -9.96112 13
788 1 6.96358 -10.2624 -1.2043 21
789 1 4.74006 -1.33271 -11.6114 25
790 1 -14.7994 2.54074 -7.3929 11
791 1 -4.19213 5.25738 -11.0156 20
792 1 -3.65907 5.98325 12.6174 20
793 1 12.3867 -6.1012 9.07877 11
794 1 -10.9047 -7.38399 4.65657 18
795 1 15.6423 -0.655708 2.51805 15
796 1 1.89516 4.39875 -11.5608 22
797 1 16.6773 9.88046 0.701765 10
798 1 -2.9627 13.3637 9.51807 14
799 1 -15.0577 -8.12379 3.82517 13
800 1 5.15041 -17.2767 -4.99486 12
801 2 -8.393 -1.24537 -9.11594 20
802 2 -7.92924 14.7499 -5.81771 11
803 2 1.38832 -2.72096 -12.3797 20
804 2 -5.71637 7.28101 11.7263 19
805 2 5.38368 -12.5139 -10.2479 19
806 2 -9.94285 -3.61887 -8.20294 18
807 2 4.37957 0.435172 11.1221 18
808 2 7.99187 -1.22664 14.4373 15
809 2 -12.7084 -10.4835 0.720333 15
810 2 -12.9924 8.51348 -4.07344 15
811 2 2.29097 13.3408 4.61924 21
812 2 -11.093 3.2649 3.44252 19
813 2 0.537801 15.3511 -7.66542 13
814 2 10.6442 5.34256 3.5086 22
815 2 -0.607038 12.656 -9.4468 24
816 2 9.45118 14.9101 -3.85695 12
817 2 -11.5683 -2.39704 -10.2761 14
818 2 -9.46641 -8.05278 -11.3081 13
819 2 5.58203 2.66687 8.60372 22
820 2 10.3341 -4.55764 -9.84951 23
821 2 3.25739 -13.8746 2.53208 15
822 2 -6.62608 13.5973 -3.50215 21
823 2 -11.4294 3.16629 -7.33769 23
824 2 13.341 5.51021 3.12444 19
825 2 9.00758 -13.018 -9.08744 15
826 2 -9.87949 -11.6219 -1.44259 16
827 2 -14.8048 -6.496 6.48608 9
828 2 -3.92536 -11.7829 2.75673 21
829 2 12.1082 -5.78932 7.07528 12
830 2 -3.48351 -14.2206 -7.90366 12
831 2 5.08575 0.0741217 15.6863 11
832 2 -0.934381 9.89179 -9.91547 22
833 2 4.04219 -17.9931 4.80514 10
834 2 -9.48254 -10.0802 -4.47209 17
835 2 3.08821 7.47566 13.4798 19
836 2 -9.54038 7.90885 0.513492 20
837 2 -0.227682 2.97885 13.9572 18
838 2 -5.87761 7.75635 -4.41662 20
839 2 8.42722 -12.2857 0.30374 17
840 2 0.84687 11.0522 -6.82633 22
841 2 12.309 14.8622 6.79473 10
842 2 7.46523 12.9286 7.07779 16
843 2 9.04743 -3.23254 -7.41757 19
844 2 -4.56949 7.73793 14.5995 15
845 2 3.63249 1.45687 -15.039 20
846 2 -5.50075 8.47365 -13.0415 13
847 2 11.2397 10.6106 -1.4959 18
848 2 -4.82168 -4.2932 14.073 11
849 2 -13.0816 8.04537 1.40625 17
850 2 10.471 1.7788 -10.1285 20
851 2 -7.4862 -8.02037 11.2 15
852 2 3.04095 -11.5812 -13.1691 14
853 2 -3.13479 -5.99945 -18.9425 7
854 2 -15.0907 -9.39005 2.12883 12
855 2 12.2861 9.26135 1.06208 17
856 2 -1.12488 8.0239 3.19616 20
857 2 -4.59773 -8.77798 -7.25132 22
858 2 -3.53285 16.0182 5.94854 14
859 2 9.1951 -1.3258 11.8413 20
860 2 2.31375 -7.01725 10.8895 14
861 2 15.7564 5.23353 7.80508 15
862 2 5.36197 12.8557 -10.0773 15
863 2 -14.5791 3.16647 -2.30858 18
864 2 15.7288 8.31267 7.82129 14
865 2 10.1811 -10.5348 -4.09731 19
866 2 8.39037 -12.9096 -5.25844 19
867 2 -5.23311 10.4405 11.9632 17
868 2 5.71818 -15.4471 4.79808 14
869 2 15.3173 -4.75801 5.94196 10
870 2 15.1271 11.0863 0.891681 16
871 2 -2.30823 -2.21776 14.1216 14
872 2 12.9422 -5.97073 -1.12064 20
873 2 2.44362 10.7045 6.37426 22
874 2 12.6575 6.18578 8.319 18
875 2 9.00724 13.6419 4.09479 18