ITEM: TIMESTEP
22000
ITEM: NUMBER OF ATOMS
1500
ITEM: BOX BOUNDS pp pp pp
-30.0 30.0
-30.0 30.0
-30.0 30.0
ITEM: ATOMS id type x y z Coordination
1 1 -5.04852 -11.0152 -8.28974 18
2 1 6.94671 -10.024 4.27684 18
3 1 -9.65566 7.10289 -3.35307 18
4 1 -7.32345 -1.87623 -13.0694 18
5 1 3.5692 -6.74429 7.73303 21
6 1 -3.80672 -5.67775 -15.4678 12
7 1 -1.44153 -14.5569 0.899848 15
8 1 -14.3716 -6.81194 0.520459 10
9 1 8.00804 -2.35735 12.787 10
10 1 8.28021 -3.75979 2.11053 20
11 1 -1.57277 3.76095 8.64041 17
12 1 10.0239 -2.31115 -1.38167 22
13 1 -2.37322 6.82181 -10.2198 17
14 1 6.80597 -5.03069 11.6013 19
15 1 9.74513 7.73956 4.22746 18
16 1 -1.44707 6.94339 -13.4842 15
17 1 4.65375 6.05651 -16.1489 18
18 1 -6.83567 -2.42548 -3.38381 18
19 1 0.57152 -4.14593 -11.0216 19
20 1 7.94773 -11.4861 0.499518 13
21 1 0.199496 -3.13699 5.17563 21
22 1 11.8814 -8.67814 -3.96555 14
23 1 -6.92294 -13.3833 -8.93407 14
24 1 4.92214 -6.2033 -5.18078 20
25 1 4.75734 -3.74987 -18.9915 12
26 1 5.18069 1.99311 10.294 16
27 1 -2.43805 -11.8393 0.0497 21
28 1 4.20781 -7.39288 12.3565 12
29 1 -11.2618 -4.38059 -4.12736 21
30 1 -5.95801 -1.41726 -5.59754 20
31 1 -5.46533 10.3682 1.00857 18
32 1 2.54413 4.10466 -14.2832 20
33 1 1.57403 -8.04022 -15.8731 15
34 1 2.07897 -3.85903 8.51628 19
35 1 -7.82922 4.61811 -7.17879 14
36 1 0.98641 14.7132 6.04368 12
37 1 -9.69743 10.4655 -4.24817 9
38 1 -0.299233 14.4435 -7.6708 11
39 1 2.49722 -11.1342 7.37228 14
40 1 5.44824 -11.4005 -7.85546 22
41 1 -4.89518 3.16996 9.58127 13
42 1 -11.3486 -5.31167 -10.4854 18
43 1 11.496 -3.50959 1.88618 22
44 1 -7.11919 0.150053 -17.4012 14
45 1 -9.56106 -12.1523 1.01184 19
46 1 -6.77887 5.66231 -9.25855 14
47 1 -0.605004 1.53064 -11.7439 21
48 1 2.84344 4.62302 1.16759 18
49 1 2.73413 3.02933 4.21003 19
50 1 8.48934 -11.9288 -7.35364 20
51 1 1.01452 6.08423 11.0667 15
52 1 7.87478 -1.98042 -18.2289 10
53 1 10.6707 -8.22124 -0.651506 16
54 1 -6.86729 -3.95153 0.0780694 21
55 1 8.87626 -5.67188 9.53063 17
56 1 -6.93328 -8.11067 -2.09658 19
57 1 -9.47741 -0.284033 -2.19814 15
58 1 12.9639 -0.849079 0.504441 22
59 1 8.46499 -3.60034 -3.06431 22
60 1 0.0933422 9.24421 10.4776 12
61 1 7.52311 -2.70695 10.1867 21
62 1 -8.9356 -7.10942 0.15591 21
63 1 -0.702078 -7.08538 -11.3666 18
64 1 -4.85819 7.4463 -1.50288 19
65 1 -6.74595 4.34107 -16.9331 9
66 1 7.77928 2.16535 -8.66528 17
67 1 7.87526 -6.22262 -5.74289 21
68 1 9.62466 -7.07316 -3.33621 23
69 1 1.74899 -7.00194 10.2997 17
70 1 -3.75125 13.2899 -3.42159 14
71 1 -7.08527 6.29225 6.56344 14
72 1 -4.09239 4.10846 1.20247 20
73 1 -5.30813 -7.18375 9.92468 15
74 1 15.2652 -6.80627 -10.3946 14
75 1 -11.252 1.67147 4.10276 14
76 1 12.5897 -1.78352 -7.6292 19
77 1 7.03486 -1.78673 -14.3376 17
78 1 -4.39597 -1.24494 -18.8357 11
79 1 0.0336389 7.36333 -3.58253 21
80 1 -1.10661 -2.03452 -16.2861 22
81 1 5.0638 10.9839 -8.99194 18
82 1 1.76669 10.1616 -3.75055 22
83 1 1.96007 -6.49552 5.41585 20
84 1 2.46594 -6.91016 -10.0269 20
85 1 9.81161 -6.66177 -9.33443 20
86 1 -4.36064 2.00328 4.66644 18
87 1 -5.62989 -6.62904 -5.40614 19
88 1 10.2272 -6.29204 1.86186 18
89 1 -9.69694 -8.44949 -8.74978 20
90 1 6.73016 -8.45912 0.0058529 19
91 1 -5.67885 4.39339 -1.52813 23
92 1 10.2523 1.58678 -13.0073 21
93 1 0.462631 6.75274 -9.83821 19
94 1 11.7524 -10.9864 -7.42518 12
95 1 -3.19991 -11.7079 4.97682 17
96 1 -6.9103 -10.4513 -4.05376 19
97 1 -12.9106 -8.29607 2.90618 10
98 1 8.80921 4.40505 7.12109 17
99 1 12.5264 7.52532 -4.90415 14
100 1 -5.45861 6.20103 9.71281 11
101 1 -4.16313 10.6284 -6.21207 17
102 1 0.855483 -10.8479 -14.2302 12
103 1 15.2572 -2.08658 7.84645 12
104 1 -1.90511 7.74257 -6.39332 20
105 1 15.7186 -0.7597 -11.1632 14
106 1 -5.45806 9.15997 -3.84278 18
107 1 3.60268 15.8511 0.533916 10
108 1 8.96641 8.40053 -15.4879 13
109 1 6.25469 -12.5775 3.13973 10
110 1 2.30178 8.29159 -0.786998 20
111 1 7.37704 9.33697 -7.52056 22
112 1 12.0284 3.84528 -1.20819 23
113 1 -1.39969 10.1104 -4.17782 19
114 1 -9.32286 -4.51197 -16.0954 12
115 1 4.56579 8.40207 5.48042 18
116 1 -11.9765 -2.07589 -7.08697 14
117 1 14.041 3.48112 -3.9067 19
118 1 -4.22328 4.77912 6.83115 21
119 1 -2.89523 12.3816 -9.21481 10
120 1 6.72377 -2.52687 4.75963 19
121 1 -9.87008 -15.8403 3.2559 8
122 1 -7.88054 -11.095 3.60406 19
123 1 0.631826 -14.9684 -6.39578 14
124 1 -6.24027 1.75767 -15.6202 18
125 1 1.87734 11.3771 -7.18195 19
126 1 9.62713 4.70378 -12.4966 20
127 1 -4.2425 -9.0549 4.16952 18
128 1 -6.00368 0.587131 -3.04413 19
129 1 5.46502 12.999 0.3227 11
130 1 3.37169 8.07319 10.4475 11
131 1 -5.27215 13.7045 -1.32158 10
132 1 -7.91013 -7.16314 -11.7828 19
133 1 13.9434 -8.84109 -11.7752 10
134 1 -4.96883 -4.37005 2.70318 19
135 1 -12.435 1.6886 0.986447 13
136 1 -12.3182 -12.2384 -1.29349 12
137 1 -12.0853 0.664932 -4.22652 17
138 1 0.831064 -16.7938 -0.130853 10
139 1 -3.43451 -3.98578 -5.68524 22
140 1 7.27679 -9.06724 -5.60817 22
141 1 -5.73978 8.60883 3.53653 15
142 1 -5.61051 0.859568 1.61468 18
143 1 -4.05851 1.21259 -12.9156 19
144 1 -6.63197 3.80219 -13.336 15
145 1 -12.5792 -13.9886 -7.62519 9
146 1 -9.91218 -1.99756 4.46527 17
147 1 -1.37671 -10.3097 2.18923 22
148 1 -0.334256 -11.9071 7.32037 14
149 1 15.5072 -0.620295 -0.873229 15
150 1 7.85518 -0.108899 -11.8135 19
151 1 4.90082 -1.90192 10.7815 19
152 1 2.39454 5.00288 -17.6289 12
153 1 10.4334 3.71372 -8.88946 19
154 1 -5.5928 -4.82015 -12.8144 18
155 1 -2.47372 9.38067 -11.0838 9
156 1 -7.33372 10.6465 -1.61487 14
157 1 11.7572 -3.95279 9.16851 18
158 1 -3.9608 -7.4412 -12.5376 17
159 1 -5.14091 6.08048 -11.5001 15
160 1 5.83347 8.49133 -11.2572 20
161 1 -6.60552 0.879414 8.13627 15
162 1 -3.51327 7.16583 4.32142 19
163 1 2.58762 -9.99212 -8.74172 19
164 1 -7.79536 -17.3609 -4.37508 13
165 1 14.2824 -8.64702 -6.34646 12
166 1 6.65786 -7.23851 -2.63225 20
167 1 10.3547 8.85685 -9.23607 21
168 1 -1.37496 7.87927 -1.61223 20
169 1 -12.4785 4.38305 -1.02077 15
170 1 3.32654 5.8984 4.63633 21
171 1 13.6932 -0.713835 -4.61908 19
172 1 4.33715 7.58797 1.83567 20
173 1 -12.2702 8.93751 1.53965 10
174 1 -10.1523 -15.2716 -5.28291 13
175 1 6.63409 10.3049 -13.3514 14
176 1 4.42482 -1.34663 3.26493 20
177 1 10.4699 10.7532 -11.9317 12
178 1 5.90532 -14.4235 -7.76274 11
179 1 -8.31891 -7.44389 -14.5686 14
180 1 9.85851 0.0219658 -9.62299 20
181 1 -8.52182 -8.44211 8.78293 10
182 1 -2.01529 -15.7577 -1.85194 15
183 1 -10.5574 -11.0997 -9.37959 13
184 1 9.92841 10.9049 -5.48668 12
185 1 4.54564 -7.07732 -17.2843 9
186 1 7.51102 0.110216 10.5463 15
187 1 15.536 4.95658 -1.24655 14
188 1 -3.7373 -7.57708 -3.19033 18
189 1 15.0 -5.21731 -12.8837 10
190 1 -1.40019 -6.32141 -0.13852 21
191 1 -3.06 -4.47797 -11.1367 18
192 1 -10.0075 -2.06029 -14.8878 15
193 1 9.30743 3.25675 4.08243 16
194 1 12.11 -0.343858 3.67206 20
195 1 -2.31562 -12.5322 -9.44995 15
196 1 3.43567 -6.08941 3.01933 22
197 1 4.89697 2.86475 -18.4309 12
198 1 4.27928 5.96675 -0.966803 19
199 1 -7.17254 -9.94971 0.0270527 20
200 1 2.9369 13.4294 -1.6469 16
201 1 -5.45826 -0.682597 5.13254 18
202 1 -10.2104 -8.45771 -11.499 14
203 1 -4.53854 -0.934664 -15.3226 21
204 1 -7.0157 -8.37188 -6.63833 22
205 1 -0.163374 -8.99179 -0.67552 20
206 1 15.0046 -3.448 -3.06624 18
207 1 -1.94953 -6.73137 -5.63796 22
208 1 -7.25382 -5.23006 8.71946 13
209 1 -1.55775 -10.4475 -3.15388 21
210 1 1.24375 -11.5647 -0.219813 20
211 1 1.08507 15.8762 -2.29442 11
212 1 2.31153 -1.08757 -16.8581 16
213 1 -5.26797 -9.22709 -15.6214 9
214 1 2.14487 -12.0906 -5.97974 21
215 1 -0.696322 -11.8008 -11.6261 16
216 1 -5.27918 -3.1391 -17.258 9
217 1 11.5908 2.02528 0.987327 22
218 1 -2.4399 -3.46106 -14.0396 20
219 1 -0.315623 2.4026 -14.3324 17
220 1 -1.51709 -4.6224 2.50646 23
221 1 -0.021688 15.7533 0.517341 13
222 1 2.06784 8.6144 3.32268 20
223 1 11.5488 -3.02632 -3.43162 17
224 1 -11.3498 6.24483 3.04415 12
225 1 -4.85739 -8.8738 6.91045 18
226 1 -7.66514 7.16558 -1.39604 22
227 1 6.71096 -8.647 -14.8271 13
228 1 6.90189 -6.79048 8.03311 17
229 1 1.30539 -6.05804 13.4641 9
230 1 -12.9548 -13.4867 1.86564 9
231 1 16.899 -4.33103 -5.42348 17
232 1 7.76341 -8.66351 -8.62165 22
233 1 10.1891 -11.0352 -10.2546 12
234 1 -5.00173 -6.75779 0.499567 21
235 1 -0.850847 14.6068 3.09089 17
236 1 3.05277 -1.17843 8.5009 18
237 1 12.9735 6.47619 3.87436 12
238 1 -5.55689 -1.11303 -0.647944 21
239 1 12.2338 -5.82496 -12.0315 22
240 1 -1.15028 9.42716 2.85538 19
241 1 -2.56926 4.7289 -1.82099 22
242 1 4.75563 -12.4396 5.4591 14
243 1 15.4706 -7.95469 0.862874 10
244 1 0.953465 5.27567 3.22305 19
245 1 -10.47 -4.38728 -7.11033 19
246 1 -3.45228 -1.64805 7.97269 18
247 1 -0.756279 12.4798 1.3354 18
248 1 -3.42464 4.25627 -13.3825 18
249 1 -7.94472 -2.14135 7.03902 14
250 1 -13.743 7.35192 -1.34136 13
251 1 -1.6194 -4.98002 -8.60447 20
252 1 -6.59755 6.14927 -4.40413 19
253 1 11.9413 0.698752 8.84605 13
254 1 -7.8329 -13.4249 -4.86332 17
255 1 10.1777 -8.58189 5.4428 12
256 1 -10.976 9.20288 -1.27953 15
257 1 6.6027 -8.38384 10.324 13
258 1 2.80441 -13.9327 -9.01066 13
259 1 -6.65096 -2.73663 -9.33431 17
260 1 7.69656 1.33268 -16.8724 15
261 1 5.17322 7.98509 -3.00958 20
262 1 -11.1555 1.03878 -8.66884 10
263 1 7.30158 3.01306 -13.3129 20
264 1 -4.9795 -17.8155 -6.10479 9
265 1 -12.7724 -7.54241 -9.19784 11
266 1 -0.148043 -7.01028 -2.82016 21
267 1 11.3975 0.985911 -7.12408 18
268 1 -1.81091 -2.99788 -19.4201 10
269 1 -10.0946 4.1071 -8.78914 11
270 1 -5.98741 6.70935 1.52507 20
271 1 -3.99502 14.0369 5.30952 9
272 1 -6.88774 3.30394 7.03793 18
273 1 15.6844 -0.913321 -7.54614 18
274 1 13.6858 4.63548 -8.9353 19
275 1 -3.74578 4.92541 -7.49322 19
276 1 3.68702 -9.58099 -5.38089 23
277 1 2.89009 10.8515 0.922932 18
278 1 -3.98083 1.60627 -6.74836 19
279 1 8.58517 -9.48478 -1.979 19
280 1 14.4719 1.81814 -0.344993 21
281 1 -8.76851 -4.35116 -12.634 22
282 1 -3.27657 -9.06667 -0.693978 19
283 1 4.20807 11.9488 -4.66728 15
284 1 -9.88036 -10.5924 -5.01769 15
285 1 -6.43559 2.24203 -6.90177 19
286 1 4.81391 11.8268 -11.9991 13
287 1 6.50802 10.9503 5.89346 13
288 1 -14.0515 -6.98142 -3.27486 13
289 1 -2.44048 -14.3893 -6.7818 18
290 1 -9.58024 -8.22996 3.67678 16
291 1 -5.72376 8.71781 -9.75326 10
292 1 5.26051 -10.2164 1.82106 21
293 1 -3.93632 -14.083 2.99899 14
294 1 3.90751 8.41109 -13.7407 18
295 1 -9.29705 1.49867 -4.85697 13
296 1 -6.66751 -16.0375 2.0985 13
297 1 15.0755 1.20937 2.6591 17
298 1 -0.328287 2.11114 4.20022 17
299 1 -14.4278 -3.85625 -5.086 10
300 1 -6.04474 4.93534 4.24098 23
301 1 -13.4448 -10.013 1.00717 14
302 1 1.63057 -4.56494 -8.16508 18
303 1 7.65522 -4.88491 -8.60558 22
304 1 -3.88916 -5.38443 7.47937 21
305 1 -10.2881 -4.03294 -0.887746 18
306 1 5.71314 -4.06991 8.54285 23
307 1 7.24059 -13.0799 -10.5663 10
308 1 -0.701264 -8.45578 -14.6566 14
309 1 -3.55819 -9.6095 11.7425 9
310 1 5.40321 -10.2463 -3.03963 20
311 1 -4.81453 2.25999 -18.8634 11
312 1 8.52374 -12.773 -2.23665 12
313 1 1.99224 12.5471 -9.93693 11
314 1 -1.56095 -6.70523 11.5179 12
315 1 -6.72823 -3.81417 5.56837 17
316 1 11.7967 -1.97464 7.00467 19
317 1 11.3358 2.30849 -4.48219 20
318 1 -3.00163 6.89189 1.49969 20
319 1 3.79529 -2.40896 -13.8564 19
320 1 12.4622 -8.84186 1.64772 11
321 1 18.3564 -1.23065 -8.92601 13
322 1 -1.16166 -3.47899 11.8456 14
323 1 0.957475 8.83804 -6.58161 22
324 1 9.09481 -9.32461 2.36793 15
325 1 -5.29732 -12.7856 -5.6126 17
326 1 -4.73293 8.49182 7.35349 16
327 1 -9.29467 -13.5657 -8.04022 14
328 1 0.937484 3.95528 6.6694 21
329 1 -9.40579 3.87135 5.17713 17
330 1 -3.55643 -7.52078 -8.27235 18
331 1 -7.74394 1.73592 3.77097 20
332 1 -8.06439 -10.8494 -6.92961 19
333 1 -0.473199 9.2248 5.4775 17
334 1 -7.18089 -15.8046 -6.69483 16
335 1 0.47943 -5.72158 -15.0244 17
336 1 -3.42349 -13.2849 -3.55372 17
337 1 -10.6106 -5.95244 1.97909 17
338 1 14.1983 -1.41653 5.1021 16
339 1 -4.86893 -6.45075 4.58986 17
340 1 -9.46783 0.788289 -16.303 9
341 1 9.55466 3.13178 -2.53104 19
342 1 -6.22212 -16.718 -1.2084 8
343 1 3.05127 1.76178 -12.2189 21
344 1 -1.76058 15.3239 -4.45084 11
345 1 -4.83925 6.58434 -14.8989 11
346 1 -1.29697 6.75866 6.64614 19
347 1 -8.3922 -5.43855 -9.36964 20
348 1 13.3124 11.7626 -9.85674 7
349 1 -6.00362 -7.6005 -9.3036 18
350 1 -0.971373 -15.2547 -10.1257 9
351 1 3.75869 -10.3841 -15.1485 10
352 1 -8.30564 6.42963 3.6205 19
353 1 3.33519 1.01474 12.3827 9
354 1 10.9713 5.32883 -3.91084 20
355 1 0.84719 5.53629 -6.81718 20
356 1 -1.15617 5.04709 -15.2948 18
357 1 4.8223 -0.831609 -11.4531 20
358 1 0.410786 -6.30259 2.72517 19
359 1 -9.55097 -9.48986 -1.55222 19
360 1 5.53348 0.612552 -13.9633 19
361 1 15.3661 6.08401 -4.79082 14
362 1 10.0952 -8.42608 -6.71032 21
363 1 19.2709 -1.76732 0.495317 7
364 1 10.4569 -6.73903 -14.4626 8
365 1 1.67432 -10.2866 -2.97863 20
366 1 1.7276 -13.9844 5.44304 11
367 1 8.68138 -5.41678 4.26312 16
368 1 -7.97188 -0.175825 -9.90767 17
369 1 4.76042 -8.3813 -12.4368 18
370 1 10.2758 3.07767 -15.5614 14
371 1 3.79661 -4.88417 10.9915 18
372 1 -12.192 -1.92838 -2.5402 13
373 1 14.7851 -4.17079 -8.80475 16
374 1 14.0582 -3.60242 -5.68442 17
375 1 0.344483 10.5406 -0.856396 21
376 1 5.06407 -7.94664 -7.626 21
377 1 6.50866 5.90988 -11.4387 21
378 1 12.8847 -2.7428 -11.2972 21
379 1 -4.44237 -0.0110524 10.6563 12
380 1 11.4362 10.603 2.99307 10
381 1 -2.61847 -10.0495 -12.9476 16
382 1 -2.66598 -3.68215 5.74529 18
383 1 -2.57701 14.4454 -0.113725 16
384 1 -6.38917 -6.05653 -16.5358 9
385 1 -13.6363 5.41031 -4.36109 10
386 1 -6.31423 -11.1124 6.52893 17
387 1 4.84699 4.72239 -13.1411 20
388 1 16.0561 0.926373 -3.31236 18
389 1 -9.54456 -15.1138 0.574227 14
390 1 -0.148234 -13.2076 -2.17137 17
391 1 -4.48678 10.7245 4.78764 15
392 1 3.63955 -3.99772 -10.9682 21
393 1 3.54346 5.84202 -7.04563 20
394 1 19.0285 -3.76307 -7.59885 10
395 1 6.62192 9.94061 -4.2178 16
396 1 3.11879 -9.5044 -0.988218 21
397 1 -7.74953 4.45101 1.28256 20
398 1 3.18388 5.03752 8.76725 19
399 1 0.352472 2.75439 -19.5156 9
400 1 -5.14798 -4.99307 -8.06731 18
401 1 8.73586 -3.86802 7.17144 17
402 1 7.72421 7.82683 6.8794 15
403 1 3.15959 6.35213 -11.131 21
404 1 -6.42426 11.7061 -3.8453 14
405 1 -3.31912 13.8291 -7.10524 10
406 1 14.4938 -5.34668 2.34594 12
407 1 14.4987 5.9938 -12.4742 10
408 1 -12.2296 -15.5571 0.0261602 7
409 1 -2.31055 1.48023 7.08371 16
410 1 -0.0931431 10.0021 -9.60405 19
411 1 9.45134 -11.1637 -4.83769 17
412 1 9.10963 -3.98015 -15.7034 15
413 1 -0.302129 12.932 -2.10906 23
414 1 -6.02312 -9.55649 -12.808 13
415 1 2.81942 -12.0697 2.85974 19
416 1 -7.8458 -12.5225 -1.70566 20
417 1 -2.03441 0.772987 -9.11047 21
418 1 -8.83864 -11.357 8.17419 9
419 1 5.30002 5.09953 -4.14058 19
420 1 7.85188 -14.4187 -4.88017 12
421 1 8.53618 -9.57081 7.59344 12
422 1 7.73818 -0.0015905 -6.56058 16
423 1 -7.6488 2.01008 -0.238079 18
424 1 11.8529 -5.27226 -1.11458 18
425 1 -1.46875 9.51967 7.95728 16
426 1 1.75795 0.133363 -14.6175 21
427 1 3.15362 12.1276 6.25082 11
428 1 12.3142 3.50957 -11.0924 20
429 1 -4.69166 -12.3778 -11.3179 14
430 1 1.51118 -8.83338 -11.8693 19
431 1 -11.1973 -6.10531 -13.8016 12
432 1 17.7288 2.32769 -0.76103 11
433 1 17.5943 -1.27681 -5.19233 15
434 1 10.3538 -1.726 -13.1594 19
435 1 10.6602 -5.49846 -6.66224 17
436 1 6.04604 4.3917 2.06938 20
437 1 -9.00124 0.207367 1.7747 17
438 1 17.1102 4.15615 -4.18468 15
439 1 19.6457 -4.79583 -1.36242 9
440 1 11.254 5.60877 -15.48 11
441 1 12.5551 3.36692 3.77035 21
442 1 3.6306 -4.0692 5.70891 19
443 1 9.63907 -4.54245 11.9012 12
444 1 17.8249 2.54881 -10.0826 10
445 1 10.1302 5.5858 9.57507 11
446 1 -4.86562 -1.52067 -11.5734 20
447 1 11.9185 9.80241 -0.555827 14
448 1 13.909 1.73864 -6.34262 21
449 1 3.289 -7.46925 -2.69147 18
450 1 14.1924 -2.46872 11.005 5
451 1 1.98858 7.03186 6.33187 21
452 1 8.2026 1.88516 1.59634 20
453 1 4.32877 10.2648 -1.75091 17
454 1 6.24042 8.94063 -16.4054 9
455 1 13.6101 3.13928 -14.3282 11
456 1 7.27327 6.80263 0.505981 21
457 1 -1.4277 -16.9591 -4.77674 11
458 1 -13.8937 5.61043 1.73079 9
459 1 -3.65324 5.20168 -17.1072 11
460 1 -12.6535 -8.18454 -0.808345 17
461 1 1.08216 -3.15821 -14.4688 20
462 1 -12.5559 2.64298 -6.68379 13
463 1 15.955 -7.06253 -4.21134 15
464 1 9.73844 8.74465 0.854931 20
465 1 2.47136 -8.64692 1.6939 19
466 1 -10.0025 -1.97946 -18.0848 7
467 1 5.66942 -1.15051 7.60277 21
468 1 0.427021 -0.00630995 10.7245 15
469 1 7.86546 11.2896 -10.7278 17
470 1 5.76266 2.38154 -11.286 18
471 1 1.27097 -16.1855 -3.40692 13
472 1 18.2047 0.294269 2.08486 9
473 1 10.2058 7.02453 -1.66465 19
474 1 17.2286 -6.12217 -1.76887 14
475 1 -2.12738 -1.04931 12.8948 8
476 1 -9.43892 -6.98897 -6.25495 15
477 1 -11.9979 -3.36353 -13.5856 11
478 1 11.13 -1.53266 11.2805 12
479 1 -6.32051 -10.1338 9.97359 14
480 1 3.82784 4.47386 11.745 12
481 1 -7.28059 9.1535 -6.71741 12
482 1 11.7677 0.526094 -2.15936 19
483 1 11.1612 5.38618 1.89615 20
484 1 2.93637 -5.94484 -12.7909 22
485 1 -12.985 -0.965062 2.79103 11
486 1 6.8324 -3.09041 -10.5154 20
487 1 -0.454636 -8.47127 -8.79395 17
488 1 10.9046 -8.59509 -11.5483 17
489 1 7.49229 1.21228 7.10468 20
490 1 6.19407 3.15964 4.75151 23
491 1 10.8345 6.84971 6.65848 14
492 1 0.811931 -8.61105 7.84217 18
493 1 -1.26239 -4.51024 9.03984 18
494 1 5.66452 -6.18958 -10.5233 22
495 1 -4.63892 -2.44756 13.1798 9
496 1 11.6613 2.81711 11.099 7
497 1 17.2979 1.76449 -7.28553 19
498 1 5.15169 -11.5585 -12.8924 13
499 1 -3.3203 -2.21689 -8.76089 22
500 1 8.15 9.3503 -1.89806 16
501 1 8.5589 10.7858 3.68549 16
502 1 3.54328 -9.06964 4.70974 19
503 1 0.982989 13.1629 -4.74103 17
504 1 13.543 7.24311 -2.26751 17
505 1 -3.58245 -9.63565 -4.8124 18
506 1 0.105147 -0.74078 -19.3499 16
507 1 -8.66543 9.12098 1.44773 14
508 1 7.55032 -7.13256 -12.5224 18
509 1 7.77774 5.89495 -2.38756 18
510 1 12.7826 8.87572 -11.2612 13
511 1 11.4258 6.29781 -9.80206 18
512 1 -0.755668 4.4008 1.10339 21
513 1 -4.56445 3.34023 -4.45062 21
514 1 6.62381 6.74795 -6.19987 17
515 1 0.335898 -9.24516 4.51997 16
516 1 1.67276 6.73845 -14.8743 15
517 1 1.20944 9.84239 7.7361 16
518 1 7.62049 0.387639 4.51547 23
519 1 2.92177 7.27113 -4.66008 18
520 1 9.74588 9.78767 6.54459 11
521 1 17.2107 -3.55812 -11.1131 10
522 1 -12.6013 -7.01927 -5.70233 16
523 1 3.42081 -15.6432 -0.85723 10
524 1 -1.1818 -5.58325 -17.1557 12
525 1 -2.56872 4.35855 4.07245 21
526 1 4.85432 -4.81641 -7.99924 21
527 1 7.04041 8.4688 3.31514 21
528 1 -13.8757 -4.94129 -1.67192 15
529 1 6.02861 -12.5205 -4.68565 22
530 1 15.9039 4.66372 -7.22016 16
531 1 5.18593 -5.80496 -0.247728 19
532 1 6.87993 12.5635 -6.87615 11
533 1 6.52478 0.339563 -19.9726 9
534 1 -0.754853 -9.68907 10.293 11
535 1 6.20018 9.71242 0.0742329 17
536 1 1.44081 -2.74887 11.4656 14
537 1 -2.26628 -10.0509 -10.1715 19
538 1 6.31167 -1.3526 -8.64198 20
539 1 0.229051 6.68193 8.85107 20
540 1 9.02013 -11.2057 -13.1885 9
541 1 5.63672 -7.07542 5.63779 17
542 1 3.50972 -14.4285 -5.59027 13
543 1 -9.33766 -5.07803 5.91667 12
544 1 1.65167 -1.18236 -11.289 23
545 1 -4.99756 -14.7139 -0.561352 19
546 1 -8.5065 -4.80426 2.73827 19
547 1 13.8756 7.46012 -8.19571 15
548 1 -1.69992 -0.471653 5.47406 20
549 1 -5.93914 13.2576 2.22944 9
550 1 13.1466 -5.96916 -4.65955 20
551 1 -1.31175 11.1673 -6.96138 21
552 1 15.7606 2.63488 -12.8237 11
553 1 8.16052 6.02031 -8.74143 19
554 1 -5.05489 0.0844209 -8.78093 18
555 1 -13.2092 -10.2104 -7.27859 10
556 1 1.79109 9.22806 -11.9397 15
557 1 -1.9349 -7.50832 8.55598 15
558 1 -6.83049 -13.1092 1.45198 23
559 1 2.70022 -11.5672 -11.1856 16
560 1 -7.68693 3.25414 -3.81081 18
561 1 4.77503 10.9821 3.67216 19
562 1 -12.6891 -4.38925 1.91631 10
563 1 11.8071 7.98769 -13.5426 12
564 1 3.44096 -12.4812 -2.83985 19
565 1 4.15901 1.45112 -9.08289 23
566 1 1.13343 -3.77423 -18.3369 16
567 1 -0.118229 -1.78021 7.91029 17
568 1 3.32742 1.00866 -20.3547 10
569 1 -8.13344 -5.50907 -2.4317 20
570 1 9.72888 -0.156133 -3.77251 19
571 1 -5.23062 -4.95193 -2.62653 22
572 1 18.5554 4.92158 -7.20878 7
573 1 10.124 -3.05885 -5.50052 17
574 1 -9.32841 0.521568 6.45021 13
575 1 6.72956 -6.81208 2.51835 20
576 1 17.2409 -6.71953 -7.11973 13
577 1 13.7845 -4.64873 6.3189 10
578 1 -1.28124 12.2205 5.28221 18
579 1 -6.24416 -2.10562 10.0026 13
580 1 -4.45127 -10.9465 1.86812 19
581 1 10.2149 -0.448023 1.94515 21
582 1 8.43973 3.45142 10.7965 9
583 1 -10.5866 -6.84252 -2.49393 21
584 1 12.6934 -8.48944 -8.72705 17
585 1 4.44574 9.20728 -6.37417 21
586 1 9.42404 -1.36854 8.65307 21
587 1 1.54323 11.8999 3.84498 18
588 1 -3.65551 -11.3299 8.35191 12
589 1 -7.58863 -4.69528 -5.53882 22
590 1 3.8043 2.25564 7.63345 22
591 1 8.79361 11.7198 0.743318 12
592 1 -7.39232 -13.989 4.68819 13
593 1 10.8999 -6.54884 7.12853 14
594 1 15.5585 -1.73365 1.98635 14
595 1 5.40942 6.82593 7.71769 15
596 1 -0.767054 3.74921 -8.8411 22
597 1 6.05955 -9.68707 -10.4999 19
598 1 -2.94313 2.2346 -15.844 20
599 1 0.541098 1.0477 7.43622 19
600 1 3.36152 14.5701 4.20761 11
601 1 19.4919 -2.55267 -2.86628 9
602 1 1.01371 4.59262 -12.0498 22
603 1 -3.11865 8.00108 9.94967 13
604 1 6.3589 4.00031 8.19136 16
605 1 10.0196 -0.522844 -15.7605 15
606 1 -1.10068 -12.0863 -5.42192 15
607 1 -1.52837 -1.36443 -11.6111 20
608 1 14.7555 4.30093 6.15899 7
609 1 2.98271 -5.05706 -15.7055 20
610 1 0.11315 -9.33721 -5.55758 19
611 1 19.239 -5.26117 -4.6708 11
612 1 5.69012 -9.69032 7.69433 17
613 1 -4.25381 -14.9704 -9.17679 11
614 1 10.8567 9.25108 -3.32284 16
615 1 -7.05281 -7.54182 2.57173 20
616 1 -9.28504 4.45758 -1.72396 18
617 1 3.04186 8.7348 -9.02778 17
618 1 6.08485 -3.97876 -16.3463 15
619 1 -2.25695 10.2612 0.284007 16
620 1 7.94462 5.66152 -16.3417 14
621 1 8.38854 -5.27694 -0.699431 20
622 1 -9.28768 -1.34542 -5.50311 15
623 1 14.1865 4.34811 1.38659 16
624 1 -12.2 -12.6045 -4.97265 12
625 1 4.46269 0.815451 5.39244 18
626 1 -13.0494 -3.65747 -8.63832 12
627 1 -10.2315 6.5371 0.377559 23
628 1 -3.67614 3.20023 -10.2833 19
629 1 12.5571 -2.93934 -14.3968 12
630 1 -12.4082 -9.85117 -3.98925 14
631 1 13.7974 -7.71177 -1.56758 15
632 1 -12.2133 8.01816 -4.04695 12
633 1 -9.94656 -2.5098 -9.91643 19
634 1 -7.71049 -8.22737 5.89741 16
635 1 14.0451 -3.45382 -0.325107 15
636 1 9.76008 -2.2945 4.28828 18
637 1 -11.267 5.61897 -6.44343 13
638 1 -0.308585 12.4602 8.38391 9
639 1 2.38733 3.8654 -9.04163 20
640 1 1.95645 16.7299 3.10772 9
641 1 8.9875 7.88205 -11.432 22
642 1 1.05807 2.86775 10.1332 17
643 1 12.2822 -6.05127 4.09718 14
644 1 9.57974 11.5715 -8.08954 12
645 1 1.43879 -0.362521 4.36579 18
646 1 6.00509 -5.02237 -13.8765 21
647 1 -13.6433 0.178831 -0.724608 8
648 1 -9.71012 -14.2098 6.22603 6
649 1 13.7114 1.3015 6.54311 17
650 1 -4.79687 -16.0568 -4.10075 16
651 1 -11.2882 3.42795 -4.16714 16
652 1 12.9992 0.303456 -13.1063 15
653 1 -3.15305 12.4916 2.64759 18
654 1 -7.04795 -2.12601 2.60405 19
655 1 -7.46888 -10.4057 -9.92326 20
656 1 0.201256 -12.3218 -8.44749 19
657 1 6.01078 -13.5433 -1.92908 14
658 1 6.62289 6.55859 -14.0329 21
659 1 14.8968 1.73905 -9.37048 19
660 1 9.33418 4.21921 0.0223752 20
661 1 12.3959 -5.74147 -8.89845 15
662 1 0.713356 2.2182 -16.6228 17
663 1 -0.261422 -13.0733 3.97323 16
664 1 12.5531 10.2854 -6.54681 13
665 1 9.55904 -4.4074 -11.8854 19
666 1 -5.07555 7.14802 -7.01407 20
667 1 5.63443 4.70862 -8.75254 20
668 1 -10.4706 -2.39674 1.36488 18
669 1 6.5193 6.31033 5.15131 17
670 1 1.05055 -14.6715 1.97514 15
671 1 9.56762 7.85805 -6.23397 20
672 1 -2.56695 5.34613 11.2662 11
673 1 -4.13946 -3.95605 9.88986 16
674 1 12.3584 4.54001 -6.5365 24
675 1 -1.381 -6.35735 5.49875 20
676 1 3.85051 -9.53232 9.99244 13
677 1 -3.51023 -1.79674 2.39934 19
678 1 12.0557 3.74889 7.68084 15
679 1 10.5456 -3.39118 -9.49212 17
680 1 -2.13384 0.608283 -18.0242 19
681 1 -7.79373 1.25465 -13.1524 14
682 1 -10.1628 -0.91961 -11.7187 14
683 1 12.8419 7.60244 0.80705 16
684 1 0.0378454 7.66646 0.8732 21
685 1 -9.47189 -15.4028 -2.25872 12
686 1 -3.45893 6.48811 -4.35252 21
687 1 16.937 0.323668 5.40886 9
688 1 -2.90724 -7.47538 2.35733 18
689 1 12.3928 0.478001 -10.2571 18
690 1 3.63557 -13.2503 0.256075 18
691 1 2.7689 -2.33075 -20.1395 8
692 1 -1.88127 -0.482157 -14.4179 20
693 1 -5.29528 -11.5627 -1.55053 16
694 1 -7.07357 2.85384 -10.2482 17
695 1 -10.2924 3.9209 2.02886 22
696 1 10.1539 0.814518 5.5478 20
697 1 -11.2674 -11.1528 3.54228 11
698 1 17.6517 -5.3194 1.2076 10
699 1 5.14074 3.23074 -15.8392 15
700 1 19.2177 0.803668 -4.39612 8
701 2 -6.70277 -4.59141 -9.16314 19
702 2 -3.13793 11.1678 -3.82255 19
703 2 5.99543 -6.94353 -13.9388 17
704 2 -1.74876 8.1056 4.80988 18
705 2 -5.70565 -7.85182 -11.3872 17
706 2 10.4491 -4.81832 10.2733 17
707 2 -12.7466 -13.6889 -0.250628 11
708 2 -8.67439 9.73179 -5.54038 11
709 2 0.12455 10.5684 8.9793 13
710 2 -12.9693 2.26429 -0.673086 10
711 2 13.1616 5.9752 1.83663 14
712 2 0.00349869 -4.22048 -8.87773 21
713 2 -11.3599 -12.7063 -8.36175 10
714 2 -11.2346 2.00758 -5.36241 16
715 2 -2.89426 -7.58829 4.33901 21
716 2 4.67687 3.56804 8.99931 18
717 2 6.99313 1.52545 -14.6375 20
718 2 2.24793 -15.2387 0.640141 14
719 2 8.24245 0.0696393 0.925448 21
720 2 -0.536029 15.9173 -3.19788 12
721 2 -10.2753 -1.00747 -16.3706 11
722 2 17.1085 0.701299 3.52143 11
723 2 12.5595 -9.07312 -10.5556 18
724 2 -10.4697 -16.2662 -0.596214 10
725 2 -6.94509 -12.2642 4.97024 15
726 2 -4.58958 -10.3678 5.52948 18
727 2 12.0073 -5.37368 1.82836 16
728 2 0.745796 -14.5287 -8.71285 14
729 2 7.97947 -4.38868 12.7147 12
730 2 -0.129651 6.14893 -11.8973 18
731 2 -8.2197 -11.5924 -5.26116 18
732 2 1.56485 1.38468 11.277 13
733 2 -4.87158 13.8289 3.5836 8
734 2 -2.59451 -3.03684 13.36 9
735 2 -1.85591 10.9869 -9.96965 11
736 2 9.0692 -11.0399 -2.87152 20
737 2 -2.53674 4.89846 2.08478 22
738 2 8.59168 12.0207 -6.36827 12
739 2 6.20639 -7.32231 -6.08937 21
740 2 0.207496 -2.20779 -11.19 19
741 2 5.72447 -8.12859 -16.3787 9
742 2 11.6508 -0.0977801 -4.27403 19
743 2 -3.23419 3.04443 7.77652 17
744 2 5.18176 6.86857 -12.5245 20
745 2 -2.86665 6.02785 -12.9905 16
746 2 14.3123 4.71364 -6.01048 20
747 2 -5.47787 -5.08035 8.73609 15
748 2 -10.4669 8.64654 1.51437 12
749 2 12.0597 2.1409 -12.3745 18
750 2 3.34428 -12.2815 -12.8051 9
751 2 -12.5555 -11.4948 2.16484 12
752 2 11.6633 7.43483 -3.00956 18
753 2 -5.56807 13.1508 -3.16102 11
754 2 -4.8341 -13.2462 -9.70749 13
755 2 0.43274 15.4777 2.25267 14
756 2 2.54288 -5.47589 9.55658 21
757 2 16.232 -6.21751 1.20553 11
758 2 -9.49735 3.29662 -3.15455 18
759 2 6.05341 -9.68188 -8.55875 18
760 2 10.5 -11.6203 -8.57572 15
761 2 11.5505 3.92621 0.635068 19
762 2 7.19011 -12.3787 -0.915324 15
763 2 11.1067 -6.85286 5.19021 13
764 2 -5.34305 -3.14912 11.4608 11
765 2 14.3578 -2.45951 -7.22996 16
766 2 0.207788 7.89916 6.86921 17
767 2 15.2923 1.17855 5.61615 12
768 2 -4.19105 -1.71864 9.59427 15
769 2 9.73064 10.9767 2.20099 14
770 2 15.9642 -7.56568 -6.18705 13
771 2 -0.646834 9.05447 -0.360759 20
772 2 -10.9559 -4.45103 -14.713 13
773 2 -9.05552 -1.65627 2.58485 16
774 2 8.05101 0.11216 -8.66941 17
775 2 -6.90883 1.08432 -8.97335 16
776 2 -12.539 -2.61845 2.25733 11
777 2 -9.4227 -16.6398 -3.98439 11
778 2 19.4169 -2.90743 -0.891545 9
779 2 -3.28488 -9.60633 2.68275 18
780 2 -0.419777 -1.79025 11.5778 15
781 2 7.33008 -0.141529 -18.2769 10
782 2 10.6187 -0.539677 9.91196 15
783 2 1.47028 6.66488 4.32356 22
784 2 -5.19121 -1.36291 1.46309 19
785 2 8.70506 -10.121 -6.51582 18
786 2 14.1047 -7.12318 -9.07346 17
787 2 -6.31188 6.59692 4.85207 17
788 2 -1.56847 -10.1215 0.0292997 17
789 2 11.4415 -7.20709 -12.9045 15
790 2 7.09132 1.82346 -6.70363 20
791 2 4.76549 2.24541 3.89209 21
792 2 11.329 -7.25786 -7.95362 19
793 2 4.94856 -5.61499 1.93211 22
794 2 -8.48149 -13.4142 0.180801 17
795 2 12.1028 2.69746 -6.14533 20
796 2 -10.6938 -7.98146 -0.736126 19
797 2 7.52241 1.87663 -11.7013 18
798 2 2.06202 -9.14147 3.39091 17
799 2 16.0363 -5.05042 -11.1044 13
800 2 -3.96757 -15.4124 -2.38644 16
801 2 18.497 -5.93581 -0.356805 9
802 2 0.659757 11.2714 1.06405 20
803 2 16.0596 -2.27671 -11.8257 11
804 2 -2.26713 -8.2428 -12.2963 17
805 2 -13.2715 -7.96159 -7.47206 10
806 2 -0.0154007 -7.14316 -0.919506 23
807 2 -2.18751 -6.59213 -2.91833 20
808 2 -4.03501 10.6672 -0.337975 16
809 2 -7.54551 10.5395 0.281006 13
810 2 3.27827 -2.26586 -11.4143 21
811 2 9.15295 7.25889 -9.62202 21
812 2 2.07443 7.88517 -10.5086 19
813 2 -7.04373 -0.871445 8.65786 14
814 2 6.4344 -3.16336 -18.2434 11
815 2 -6.18871 5.56034 -7.38024 19
816 2 0.486542 -1.99058 3.69612 17
817 2 -12.4955 7.32406 2.21932 11
818 2 -4.58913 1.11308 -15.0487 23
819 2 10.9547 7.21355 0.376741 20
820 2 17.3122 5.3106 -5.84841 10
821 2 16.2476 -4.8805 -7.85079 15
822 2 -11.5964 -0.439453 3.9781 13
823 2 16.2364 1.20185 -1.42781 13
824 2 3.97156 7.88361 -1.5845 18
825 2 -6.70115 3.65545 -15.221 14
826 2 -7.51259 3.88299 -0.483976 23
827 2 11.2608 -1.45688 5.17783 19
828 2 -9.61698 -7.63739 -13.1945 14
829 2 5.14245 7.72985 -15.2117 16
830 2 14.4275 1.57783 -4.35931 17
831 2 -5.84085 -7.94602 5.5295 17
832 2 -0.226626 7.13033 -7.06 21
833 2 -2.09658 13.9887 -8.54364 9
834 2 3.38429 10.6542 -7.97976 18
835 2 12.5083 -2.82105 10.6284 14
836 2 6.19742 2.67377 6.63332 20
837 2 18.6899 -3.1391 -9.62186 9
838 2 2.96353 -2.20062 10.1934 20
839 2 4.45141 -2.89385 7.94127 20
840 2 -12.978 -0.129694 -2.60582 10
841 2 -3.58321 -17.2214 -5.00209 12
842 2 2.14213 -11.9505 -9.24455 17
843 2 3.04605 -3.42488 -18.5233 15
844 2 17.5734 -1.63857 1.32676 11
845 2 -2.45014 -4.80968 10.6939 18
846 2 8.48845 -1.09871 -13.4161 18
847 2 -2.48594 -3.21235 7.63737 19
848 2 -0.640752 -4.55606 -18.665 13
849 2 1.85371 -15.2316 -5.00068 13
850 2 4.16007 -6.20693 -9.41277 17
851 2 4.0048 -14.0847 -1.56982 14
852 2 17.955 0.718939 -9.19551 13
853 2 -5.52809 5.79706 -16.875 8
854 2 -1.47967 7.92891 2.03 20
855 2 -5.2331 -4.85771 -6.02147 20
856 2 -2.88814 -2.00252 -15.4565 19
857 2 4.7609 9.98051 -12.648 16
858 2 1.21936 13.4156 -8.52407 13
859 2 -4.03023 -10.9824 -0.188473 20
860 2 13.5339 2.54879 2.04475 20
861 2 -0.0884452 2.59731 8.46464 17
862 2 -8.42287 -13.9421 -3.12705 15
863 2 8.9141 -12.8616 -5.2806 13
864 2 5.67961 -3.57255 10.85 16
865 2 2.36944 11.1708 7.71636 8
866 2 12.308 8.29267 -9.45416 20
867 2 1.75195 4.5887 10.1021 19
868 2 13.0608 8.46533 -6.67457 15