ITEM: TIMESTEP
62000
ITEM: NUMBER OF ATOMS
500
ITEM: BOX BOUNDS pp pp pp
-30.0 30.0
-30.0 30.0
-30.0 30.0
ITEM: ATOMS id type x y z Coordination
1 1 11.1915 -7.09458 -14.2294 14
2 1 1.70629 -0.176463 -13.5464 20
3 1 -3.69474 -3.97128 -17.5664 19
4 1 0.105382 -3.16401 -27.645 21
5 1 -5.47677 -5.65279 -23.0288 19
6 1 0.164718 -4.23189 29.4673 14
7 1 8.70135 -11.6841 -27.9092 15
8 1 6.44312 -1.22397 -13.6503 13
9 1 4.63003 -0.0337181 -27.3965 23
10 1 4.45994 1.19164 -13.099 12
11 1 -6.4988 -8.97153 -22.5058 9
12 1 9.85307 -8.62749 -27.1197 20
13 1 3.46858 -5.42786 -11.2341 13
14 1 -4.84649 -11.9947 -22.8944 13
15 1 1.75374 -11.9754 -27.8233 17
16 1 9.4349 -2.98174 -27.0888 19
17 1 10.8393 -9.88956 -15.4644 14
18 1 -0.323917 1.14996 -15.9302 22
19 1 1.50867 3.12612 -23.4513 16
20 1 4.78727 -7.73746 29.4561 16
21 1 0.663561 -2.68794 -15.0431 19
22 1 10.0959 -7.54339 -17.409 21
23 1 -1.81928 3.53714 -15.3686 12
24 1 5.99886 1.02464 29.6277 13
25 1 13.0216 2.62736 -22.5103 9
26 1 3.39919 2.28172 -29.2921 13
27 1 -0.497531 2.72427 -28.2666 11
28 1 2.01745 2.70504 -26.5749 16
29 1 3.50174 2.15025 -21.5325 21
30 1 -4.98452 -0.652177 -22.0948 15
31 1 2.68089 1.72648 -15.8055 21
32 1 -2.41209 1.2822 -29.9256 10
33 1 -0.855227 -12.7273 -17.6944 11
34 1 8.62996 -11.6787 -21.9505 25
35 1 -7.01052 -6.62019 -20.4208 12
36 1 -3.09423 -5.81219 -24.8689 23
37 1 4.31717 -14.9836 -18.7812 17
38 1 8.98761 1.60682 -29.606 11
39 1 0.899083 -14.0369 -25.9256 13
40 1 2.45836 -1.37612 -29.7067 22
41 1 5.03059 2.87066 -24.4292 16
42 1 -7.33377 -4.4016 -17.5387 10
43 1 5.97815 3.34862 -15.8714 10
44 1 5.6537 -5.21555 -13.6268 18
45 1 8.3489 -13.9713 -25.5568 13
46 1 11.0994 -1.42382 -29.2687 11
47 1 1.06422 -13.4904 -20.1963 17
48 1 5.9508 -7.15633 -11.1872 13
49 1 5.61799 -10.2377 -13.1474 14
50 1 8.5542 5.02027 -22.9828 9
51 1 -2.14713 -13.7645 -20.7695 11
52 1 6.34442 -14.0089 -20.5452 19
53 1 -0.591403 -6.02038 -14.3354 21
54 1 -5.01079 -4.78652 -14.677 11
55 1 9.40595 -13.3615 -19.6748 18
56 1 -5.51643 -9.02914 -19.1875 14
57 1 1.11481 2.49929 -13.9329 12
58 1 -5.12805 -1.48614 -18.2434 15
59 1 -1.01267 -0.828753 -12.4062 11
60 1 -1.22742 -11.9737 -27.0284 15
61 1 -4.58211 -0.953443 -28.0807 11
62 1 0.424701 -11.2986 -24.6985 19
63 1 8.72953 -5.91058 -12.3477 12
64 1 2.90978 -8.82134 -11.1731 12
65 1 -3.35197 -3.72544 -27.0017 18
66 1 -4.86329 -8.93853 -25.1429 18
67 1 6.19333 -15.3172 -23.4552 16
68 1 -1.70562 -1.08724 -17.6504 21
69 1 3.53888 -10.3968 29.4295 11
70 1 0.920377 4.50875 -17.0951 12
71 1 -6.72078 -6.26297 -25.6207 9
72 1 -3.60961 2.18085 -26.886 12
73 1 8.81756 -15.2912 -22.099 15
74 1 8.62703 -10.9467 -16.2332 18
75 1 -3.14357 2.19281 -23.4327 14
76 1 -2.90834 -6.22693 -11.8938 11
77 1 -3.63836 -1.0754 -15.061 13
78 1 7.0843 -11.2076 29.7595 11
79 1 2.30779 -10.6309 -13.7948 14
80 1 9.88368 -10.8971 -24.7264 19
81 1 11.4886 -1.88132 -19.6665 14
82 1 2.99695 -4.97842 29.3975 16
83 1 7.34096 -14.1823 -17.0011 12
84 1 0.0471321 -14.7081 -22.9879 14
85 1 -3.41083 -9.67642 -17.1682 15
86 1 11.1636 -4.08943 -14.0342 10
87 1 13.1103 -3.15345 -21.9679 13
88 1 5.01773 -2.03815 29.1391 15
89 1 3.45523 0.510753 27.6939 9
90 1 4.07853 5.14971 -18.4184 9
91 1 6.5491 -4.72721 29.9883 18
92 1 10.533 -12.7613 -16.712 11
93 1 10.6216 -10.7183 -18.9579 18
94 1 5.32381 -11.691 -16.4796 20
95 1 -1.44357 -6.38533 -27.8358 20
96 1 11.4456 -5.99451 -22.4028 19
97 1 0.890759 1.68576 29.1887 10
98 1 5.11252 -12.166 -28.3037 16
99 1 -4.93524 -6.59454 -17.0144 14
100 1 5.957 -15.9268 -26.8925 9
101 1 6.6547 -9.06584 -27.7729 24
102 1 11.8905 -14.2134 -19.7908 9
103 1 5.03075 -13.7326 -25.5475 18
104 1 0.329435 -6.4404 -11.4413 14
105 1 1.15053 -3.14433 -11.7251 15
106 1 8.19931 -6.18778 -27.5965 23
107 1 -3.49045 0.712799 -19.8807 16
108 1 6.92672 2.37033 -21.7297 20
109 1 11.5752 -2.13554 -25.5887 18
110 1 -1.64335 -1.63367 -29.1657 13
111 1 -5.63585 -3.54147 -20.1662 17
112 1 4.2897 -8.47465 -14.3475 19
113 1 -4.29274 -7.00722 -27.804 15
114 1 11.7077 -8.05492 -19.8605 17
115 1 8.66571 -3.27061 -14.2026 14
116 1 4.03171 -14.3304 -15.0859 9
117 1 11.2781 -4.11107 -16.7684 16
118 1 12.0561 2.02355 -19.3663 11
119 1 3.65159 -14.8187 -28.0891 10
120 1 7.00973 1.1299 -15.8196 17
121 1 1.50828 -0.648849 -27.1167 17
122 1 3.45216 -14.8655 -22.1194 18
123 1 11.8861 0.0229548 -21.9129 17
124 1 -3.68185 1.44232 -17.0805 15
125 1 10.2777 0.350493 -24.5365 25
126 1 3.66069 -2.59004 -13.839 18
127 1 1.4339 -7.50251 29.6109 13
128 1 11.2666 -13.7225 -23.4114 12
129 1 8.54687 3.61432 -19.6507 12
130 1 1.59122 3.63488 -19.889 14
131 1 10.2747 -10.2878 30.2145 11
132 1 8.63775 -8.86938 -13.1468 12
133 1 -2.17836 -3.767 -13.7528 15
134 1 12.9943 -6.68332 -16.3217 10
135 1 6.08431 2.62431 -27.6421 15
136 1 13.4983 -0.480075 -24.2271 13
137 1 -0.278276 -8.6766 -12.6932 15
138 1 0.998798 -8.69542 -15.4167 20
139 1 -1.44065 3.31836 -18.8429 14
140 1 10.2173 2.7309 -22.3823 19
141 1 -3.16482 -11.2176 -19.8376 16
142 1 13.363 -5.68647 -19.837 9
143 1 -1.98383 -13.4617 -24.3384 13
144 1 9.63337 0.576967 -18.6734 19
145 1 11.8222 -7.42703 -29.4496 12
146 1 5.46065 5.0815 -21.8727 11
147 1 -6.12567 -9.24634 -27.6528 9
148 1 8.52229 0.0448192 -27.3087 23
149 1 -2.79862 -9.49654 -28.5426 12
150 1 8.70448 -7.48604 29.9187 17
151 1 5.87494 -17.0537 -20.7969 10
152 1 1.74607 -15.1337 -17.5703 10
153 1 11.8024 -7.65358 -25.5779 15
154 1 -5.56311 -2.93933 -25.1953 14
155 1 0.0337008 -0.698915 28.3834 10
156 1 -4.35454 -11.8319 -26.2569 12
157 1 9.10401 -1.23633 -16.278 17
158 1 0.368587 -9.20615 -27.4267 20
159 1 -1.92586 1.28329 -13.6966 12
160 1 -2.88246 -8.28974 -14.486 14
161 1 11.1694 3.60886 -25.4186 12
162 1 13.5241 -4.60067 -24.5124 11
163 1 -1.15608 -10.9723 -15.3023 14
164 1 8.33477 -1.3893 29.5188 16
165 1 11.5888 0.821177 -27.3633 14
166 1 9.44772 2.44718 -16.8467 10
167 1 8.69928 2.57994 -26.0791 14
168 1 11.4663 -5.20552 -27.807 15
169 1 9.92341 -4.33324 29.638 14
170 1 5.29849 2.85473 -18.6771 20
171 1 -0.692832 2.0682 -21.8146 17
172 1 2.20348 -12.556 -16.6363 20
173 1 11.8675 -11.3468 -21.6714 13
174 1 -3.14654 -8.80893 -22.8348 20
175 1 -1.07262 3.55555 -25.1787 11
176 2 -7.53567 -5.73945 -18.7942 10
177 2 11.3649 0.0861768 -19.8922 14
178 2 -5.8719 -4.84448 -24.7845 14
179 2 2.47073 -14.6736 -19.2602 13
180 2 1.74728 -5.07531 -11.4945 15
181 2 -2.56005 -0.424256 -13.6814 12
182 2 8.08487 -8.16827 -28.3257 21
183 2 -3.0706 -0.28238 -29.1575 11
184 2 5.47986 -10.7052 29.2019 10
185 2 1.28223 2.89909 -15.7406 16
186 2 11.2186 -9.44163 -21.1252 14
187 2 8.58653 3.56465 -21.6627 14
188 2 5.02221 4.16926 -17.0991 12
189 2 6.81628 5.53055 -23.0377 9
190 2 7.95583 1.77535 -28.1996 16
191 2 8.39942 -5.59591 30.0045 14
192 2 -5.59241 -7.4656 -26.394 12
193 2 3.32188 -15.3969 -16.6271 9
194 2 -3.17748 -5.67712 -17.5523 17
195 2 6.74382 -14.8916 -25.4314 13
196 2 8.02438 -13.6219 -21.381 18
197 2 5.7377 1.70468 -14.4641 12
198 2 4.12149 -7.30299 -11.2088 15
199 2 -0.809401 -12.5854 -19.7616 18
200 2 6.88322 -14.2229 -18.7082 15
201 2 -3.84539 -12.6766 -21.2526 11
202 2 1.65226 -14.3462 -22.0637 15
203 2 1.3831 -15.3711 -24.4827 12
204 2 -0.102742 2.84376 -20.0456 16
205 2 8.06493 -1.70121 -27.1264 22
206 2 10.105 0.593458 -22.752 22
207 2 4.73062 -0.253529 29.0265 14
208 2 13.164 -3.8195 -20.2108 11
209 2 1.89959 3.14947 -21.6476 15
210 2 -2.38611 1.70996 -15.8355 15
211 2 5.23659 2.85378 -22.4264 20
212 2 10.6175 2.3304 -26.7045 12
213 2 0.8201 -0.711793 -15.1805 23
214 2 3.96628 -9.66777 -12.6253 12
215 2 9.12823 -11.7099 29.824 7
216 2 5.53834 -11.8206 -25.819 21
217 2 3.09285 -8.45783 29.2098 12
218 2 -3.54867 -12.5137 -24.7349 11
219 2 11.3809 -7.40598 -27.5492 16
220 2 12.5459 3.27286 -24.1551 11
221 2 0.899939 -5.85488 29.2461 11
222 2 5.2739 -5.86599 29.251 13
223 2 3.59968 -10.9206 -28.5453 21
224 2 10.2044 -10.4735 -27.8871 16
225 2 11.3916 -2.21265 -27.3951 16
226 2 -4.69541 -6.93691 -18.9187 20
227 2 1.75312 -8.12009 -28.0279 22
228 2 5.13824 -13.974 -27.3293 13
229 2 -0.468367 -2.37353 29.4579 12
230 2 -0.121252 0.299282 -17.6451 19
231 2 -1.71362 -14.2152 -22.5875 13
232 2 -2.79753 2.05293 -18.635 16
233 2 -6.33568 -8.56361 -20.7063 11
234 2 -5.3256 -10.4218 -26.5223 13
235 2 6.82716 -10.6957 -17.211 20
236 2 11.3774 -5.5551 -29.618 10
237 2 9.7473 0.580262 -16.8252 14
238 2 -2.08967 -7.93789 -12.4926 11
239 2 -4.67764 -0.788653 -20.1365 17
240 2 -5.7683 -7.58841 -23.7345 15
241 2 13.2757 -2.37673 -24.0101 13
242 2 -6.10187 -4.96224 -21.3925 14
243 2 1.31316 2.30689 -28.8947 14
244 2 6.84501 -2.71511 29.7698 15
245 2 -6.49126 -2.96755 -18.5805 10
246 2 9.63292 -8.9653 -25.2373 21
247 2 4.06484 -16.281 -26.9812 9
248 2 -1.03226 4.08852 -17.2729 13
249 2 11.1335 -13.1045 -18.5977 10
250 2 7.68452 2.66943 -16.4242 12
251 2 2.80589 1.06968 -26.7917 18
252 2 -2.67486 -10.0034 -15.2704 13
253 2 1.90561 -0.330637 28.6707 13
254 2 8.05954 -5.86226 -25.1428 19
255 2 4.22507 -4.08649 -12.738 15
256 2 13.1358 0.988114 -23.1684 13
257 2 5.90271 0.526665 -17.1914 23
258 2 -5.13139 -10.0705 -22.8647 14
259 2 2.83127 1.61513 -13.8259 14
260 2 6.88273 -5.85682 -12.1559 13
261 2 3.50408 -3.16444 29.299 14
262 2 2.10361 -1.90674 -12.691 14
263 2 9.32165 -9.98016 -14.5374 16
264 2 -5.23064 -2.65854 -27.0757 12
265 2 -1.96749 -0.602794 -24.6403 20
266 2 -3.36024 -3.80092 -25.0674 18
267 2 2.80784 -9.44428 -15.2827 21
268 2 4.49258 4.95999 -20.2461 13
269 2 -0.680612 -12.9074 -25.4898 16
270 2 11.49 -6.36244 -20.4614 20
271 2 -4.56369 0.412083 -26.5123 13
272 2 11.5841 -7.65648 -23.7038 17
273 2 -0.466394 -10.7535 -16.9814 18
274 2 2.00438 -13.9024 -27.6471 14
275 2 3.20402 2.6624 -24.7396 14
276 2 -0.7861 2.84191 -14.0605 12
277 2 -1.0601 -7.77939 -14.9713 20
278 2 -3.98261 -0.533775 -16.9964 15
279 2 0.0582013 0.783829 -13.3018 16
280 2 -2.46233 1.3967 -21.6199 17
281 2 9.46796 3.83218 -24.4534 12
282 2 -0.947494 -2.92591 -12.2328 14
283 2 1.3567 -8.02019 -11.5197 15
284 2 -1.4593 -8.3918 -27.8631 16
285 2 0.328607 3.48302 -26.537 11
286 2 1.95644 -11.8128 -25.7971 20
287 2 9.6095 -7.28538 -13.0009 13
288 2 11.4916 -1.97064 -21.6556 19
289 2 8.7471 -12.9349 -16.6051 15
290 2 10.0663 -2.29921 -24.7414 20
291 2 4.51476 -0.773564 -14.2441 17
292 2 -0.991252 -5.35534 -12.505 14
293 2 -2.951 -11.219 -27.5529 12
294 2 3.8496 1.74429 -19.4193 21
295 2 -6.0671 -5.20446 -16.325 11
296 2 -4.45329 -10.4918 -18.5042 11
297 2 5.06831 -13.7112 -22.5473 20
298 2 9.78535 -4.35791 -12.9309 9
299 2 3.25619 2.06355 28.7504 9
300 2 10.3696 0.214051 -28.9167 14
301 2 9.28395 -14.4086 -24.1166 12
302 2 11.4534 -7.89234 -15.9506 14
303 2 7.95966 -1.15542 -14.794 13
304 2 4.99526 1.32446 -28.6624 16
305 2 0.101246 -11.1441 -28.1246 14
306 2 2.35002 4.61982 -18.2665 12
307 2 -0.375957 2.47499 -23.7782 16
308 2 -4.42259 0.698194 -23.3067 12
309 2 -3.87987 -3.0386 -14.6067 11
310 2 7.62472 0.459265 29.5349 12
311 2 10.4472 -8.39532 29.6886 10
312 2 -2.31587 2.52583 -28.2021 10
313 2 -0.852534 0.857369 29.2427 10
314 2 6.71485 -8.78945 -12.3621 14
315 2 -4.05114 -5.50405 -13.2456 10
316 2 -3.71715 -7.96376 -16.3501 14
317 2 2.88284 -12.4989 -14.7875 14
318 2 -5.33853 -1.87481 -23.6311 16
319 2 0.237523 -10.0583 -14.105 13
320 2 5.74913 -13.4745 -16.0871 13
321 2 11.9385 -5.57161 -15.108 11
322 2 8.66638 -12.0117 -25.892 16
323 2 -2.7611 2.73074 -25.2343 13
324 2 -4.46725 -8.76189 -28.6107 11
325 2 -0.504413 -3.98079 -15.0417 18
326 2 5.86064 -9.84164 -15.0723 18
327 2 9.7227 -2.47957 29.6914 12
328 2 11.7666 2.52883 -21.2482 12
329 2 13.1433 -6.06479 -18.0592 11
330 2 9.71321 -4.84849 -26.87 22
331 2 10.5632 -10.8662 -17.0223 14
332 2 12.0315 0.0657679 -25.6236 16
333 2 -3.21189 -7.99981 -24.7423 17
334 2 -2.53073 -9.81139 -21.201 18
335 2 8.94606 -11.3536 -19.9183 23
336 2 6.50137 2.51692 -25.5809 17
337 2 13.0366 -4.86667 -22.6702 13
338 2 8.67885 0.837739 -25.3854 21
339 2 10.5195 -11.7885 -22.9645 15
340 2 12.1477 -13.3134 -21.4888 11
341 2 7.0233 -16.6105 -22.1651 12
342 2 6.91559 2.55758 -19.741 19
343 2 10.2402 2.58319 -18.6718 12
344 2 4.96227 -15.7098 -20.2906 13
345 2 0.740649 -13.6891 -17.3675 13
346 2 10.1611 -3.00316 -15.5212 14
347 2 12.2918 -5.62678 -25.6877 13
348 2 -1.82004 -2.45565 -27.5135 16
349 2 4.24222 -15.8271 -23.742 13
350 2 10.1064 -15.0584 -20.4253 13
351 1 2.93769 -16.1674 -25.2991 13
352 1 -1.35281 -8.13819 -25.5241 20
353 1 1.83162 -6.01072 -27.8117 22
354 1 3.63004 -9.03035 -27.6208 24
355 1 3.87578 -10.9023 -25.0762 21
356 1 1.96648 -8.22697 -25.1081 23
357 2 0.364881 -11.2945 -22.7316 20
358 2 -1.29514 -8.25112 -23.4302 21
359 2 -1.17076 -6.11741 -25.8767 23
360 2 0.417401 -9.54678 -25.5008 20
361 2 0.167229 -5.15904 -28.1938 20
362 2 3.5002 -10.9119 -23.116 20
363 2 2.08146 -7.943 -23.2079 24
364 2 1.90589 -6.13131 -25.79 25
365 2 3.69564 -9.07354 -25.7393 22
366 1 -1.46517 -6.31368 -22.5531 23
367 1 0.329587 -8.89503 -22.5763 21
368 1 -0.598311 -11.174 -21.1142 19
369 1 -1.64538 -8.59977 -20.0336 22
370 1 -1.56677 -7.23194 -16.9725 24
371 1 0.454948 -9.79233 -18.1598 21
372 1 2.09016 -11.8338 -22.1687 19
373 1 1.75465 -6.08292 -22.5819 23
374 1 3.48433 -9.04142 -22.5049 23
375 1 3.94331 -11.3333 -19.6122 21
376 1 2.20474 -8.34868 -19.8715 20
377 1 1.66565 -6.53706 -17.0759 24
378 1 3.34493 -9.53035 -17.3294 21
379 2 -1.63057 -8.80014 -18.1606 23
380 2 -1.86421 -6.47133 -20.7344 21
381 2 -0.0195011 -9.38574 -20.6711 23
382 2 2.28436 -11.9296 -20.3486 23
383 2 3.60163 -11.6319 -17.6014 22
384 2 1.76151 -8.34137 -18.0065 22
385 2 1.67478 -6.68976 -20.5509 24
386 2 3.62422 -9.46965 -20.4003 23
387 2 1.54926 -6.60643 -14.991 21
388 1 -1.897 -2.29687 -25.4806 23
389 1 0.153387 -5.22409 -25.0646 23
390 1 -4.06321 -0.419922 -24.87 18
391 1 -0.208337 0.430345 -24.4485 22
392 1 3.57345 -3.29421 -27.7553 23
393 1 3.44274 -5.35433 -24.813 25
394 1 1.67684 -2.46882 -24.7103 23
395 1 3.25772 0.579657 -24.4867 23
396 2 -3.4075 -5.38497 -22.8326 19
397 2 -3.16096 -5.49656 -27.5782 15
398 2 0.0610764 -4.91703 -23.243 22
399 2 -2.10349 -2.52738 -22.5148 20
400 2 -0.0131619 -2.98367 -25.6678 20
401 2 0.192754 0.185499 -22.2983 21
402 2 3.19535 -5.04955 -28.7103 24
403 2 1.59299 -2.12676 -28.1375 20
404 2 3.4622 -5.42272 -22.8774 24
405 2 1.65782 -2.5722 -22.755 24
406 2 1.1568 -0.597657 -25.2403 20
407 2 3.20671 -3.12552 -25.7849 26
408 2 3.41421 0.334483 -22.5497 22
409 1 -3.78894 -3.35494 -23.2288 20
410 1 -3.33447 -5.73525 -19.7811 21
411 1 -1.68554 -0.56795 -21.8671 22
412 1 -0.294685 -3.37351 -22.2012 22
413 1 -0.07058 -5.70326 -19.7482 23
414 1 -1.93572 -2.89971 -19.8408 23
415 1 -0.537081 -3.93055 -17.3778 21
416 1 0.146397 0.480019 -19.5462 23
417 1 1.89043 -0.784358 -22.0807 21
418 1 3.36338 -3.33899 -22.2151 24
419 1 3.06213 -5.49411 -19.8073 22
420 1 1.41376 -2.90568 -19.6783 21
421 1 1.32212 -0.808269 -17.0365 19
422 1 3.01996 -3.4727 -17.0558 22
423 1 2.74328 -5.63153 -14.1047 22
424 1 3.33144 -0.18596 -19.1742 22
425 2 -3.77099 -3.58161 -19.5245 20
426 2 -0.0381901 -5.71883 -17.6122 22
427 2 -2.12198 -2.87451 -17.5042 19
428 2 -1.88897 -0.69335 -19.5988 22
429 2 -0.177615 -3.80643 -20.3325 22
430 2 3.12424 -5.29064 -17.8424 22
431 2 1.18827 -2.69851 -17.551 23
432 2 1.52413 -0.93174 -20.0153 22
433 2 3.21869 -3.48735 -20.3197 23
434 2 2.6299 -3.67122 -15.0282 23
435 2 3.07082 0.10799 -17.0961 21
436 1 4.63571 -5.96317 -27.6011 21
437 1 6.98036 -10.8013 -25.2113 19
438 1 5.26862 -8.08077 -24.7081 24
439 1 8.03251 -7.73297 -24.4423 23
440 2 5.05119 -7.74582 -28.6052 23
441 2 7.25229 -10.8486 -23.0644 23
442 2 5.1089 -7.96954 -22.6457 22
443 2 4.80594 -6.28451 -25.6214 25
444 2 6.8502 -11.1205 -28.1501 17
445 2 8.80201 -7.88589 -22.4739 22
446 2 6.89745 -8.98186 -25.5343 22
447 1 5.43604 -11.7628 -22.5145 22
448 1 4.99972 -6.09847 -22.1606 23
449 1 7.02316 -8.95633 -22.2393 23
450 1 7.0612 -11.0333 -19.2352 24
451 1 4.95621 -8.25338 -19.5768 23
452 1 4.5624 -6.19026 -16.7319 23
453 1 6.67701 -8.81054 -16.7543 18
454 1 8.2992 -5.82171 -22.1948 22
455 1 10.5101 -8.79827 -22.6727 18
456 1 8.60764 -8.23808 -19.9622 21
457 1 7.89443 -5.86617 -16.1953 18
458 2 5.64757 -11.8778 -20.2981 21
459 2 4.74748 -7.99661 -17.4239 23
460 2 4.91514 -6.09499 -20.2715 24
461 2 6.86722 -9.02814 -20.2139 21
462 2 4.47942 -6.66139 -14.2909 22
463 2 8.31558 -7.74059 -16.4737 19
464 2 8.55996 -6.26064 -19.9782 23
465 2 10.1492 -8.89544 -18.7625 18
466 1 6.51996 -2.7223 -27.7467 20
467 1 6.47792 -4.85774 -24.9231 22
468 1 4.74723 -2.03556 -24.7367 22
469 1 6.91299 0.731047 -24.5435 22
470 1 10.0671 -5.2976 -24.888 23
471 1 7.95036 -2.39308 -24.557 24
472 2 6.7152 -5.09105 -27.9729 21
473 2 4.6682 -1.78034 -27.817 19
474 2 6.64259 -5.27769 -23.0775 24
475 2 5.10152 -2.43559 -22.6465 24
476 2 5.08073 -0.0409929 -25.1705 23
477 2 6.22852 -2.88791 -25.3673 21
478 2 7.00512 0.248715 -22.646 22
479 2 10.005 -4.7396 -22.9646 23
480 2 8.15074 -2.43479 -22.6926 22
481 1 5.33023 -0.480627 -22.0089 22
482 1 6.67114 -3.35804 -21.9011 25
483 1 6.82364 -5.40338 -19.4686 21
484 1 4.75572 -2.8553 -19.3628 22
485 1 4.48594 -0.725873 -16.242 23
486 1 6.73709 -3.29647 -16.7124 20
487 1 6.54597 -0.479701 -18.7549 22
488 1 8.69877 -0.379898 -21.8266 24
489 1 10.1531 -2.76635 -22.8027 20
490 1 10.3681 -5.17273 -19.4372 18
491 1 8.24966 -2.59811 -19.3169 19
492 2 6.37571 -5.1934 -17.4524 21
493 2 4.76884 -2.49053 -17.224 21
494 2 5.19937 -0.900385 -20.0087 25
495 2 6.43609 -3.4964 -19.9995 23
496 2 6.93114 -4.00527 -14.8855 18
497 2 10.1042 -5.60714 -17.3881 20
498 2 8.04121 -1.85936 -17.5078 20
499 2 8.3813 -0.643178 -19.8711 22
500 2 10.069 -3.16091 -19.3292 21
