ITEM: TIMESTEP
40000
ITEM: NUMBER OF ATOMS
500
ITEM: BOX BOUNDS pp pp pp
-30.0 30.0
-30.0 30.0
-30.0 30.0
ITEM: ATOMS id type x y z Coordination
1 1 9.49708 -5.85138 -6.4048 11
2 1 0.323705 1.82119 -7.00372 16
3 1 -5.02895 -2.12462 -10.1204 20
4 1 -0.884269 -1.64606 -20.7713 22
5 1 -6.93997 -3.86473 -14.8442 19
6 1 -0.924307 -4.51486 -23.0727 12
7 1 7.82791 -9.68711 -19.916 14
8 1 5.2357 -0.690681 -4.57653 12
9 1 3.72098 1.88633 -19.8969 20
10 1 3.50943 1.62187 -5.93514 12
11 1 -6.66889 -6.87503 -13.9302 14
12 1 9.08556 -6.75748 -19.569 18
13 1 4.60449 -3.90906 -3.83683 11
14 1 -4.00457 -9.04074 -14.7574 16
15 1 0.318589 -9.79728 -20.9166 12
16 1 8.54473 -1.80605 -20.6563 22
17 1 8.71404 -8.03581 -8.29796 14
18 1 -0.873942 3.9041 -9.70373 22
19 1 -0.294211 6.20871 -14.3858 13
20 1 4.1823 -6.20818 -22.4611 18
21 1 -0.208336 -1.15539 -6.81127 17
22 1 8.49987 -5.94409 -10.6032 19
23 1 -3.14677 6.40942 -8.59122 10
24 1 4.68057 4.69254 -20.989 9
25 1 11.6126 4.16659 -14.3977 9
26 1 2.48214 7.24592 -18.5888 8
27 1 -3.3344 0.62301 -21.4974 16
28 1 0.238022 4.91159 -17.5049 17
29 1 1.76825 3.9346 -14.5554 19
30 1 -7.21642 1.44752 -14.2543 12
31 1 1.86855 3.38979 -8.62129 18
32 1 -1.9308 -1.09802 -23.9791 10
33 1 -1.59908 -12.2729 -10.273 13
34 1 6.95282 -10.1021 -14.5765 21
35 1 -8.20263 -4.95044 -11.6997 12
36 1 -5.0161 -2.97255 -17.7702 21
37 1 1.7087 -12.943 -9.34435 12
38 1 6.13079 0.483984 -22.9421 14
39 1 -0.696407 -12.0008 -18.1896 15
40 1 3.21051 2.34918 -23.0369 11
41 1 2.56531 6.84405 -14.8443 13
42 1 -8.05814 -2.58503 -9.17321 9
43 1 4.83928 4.13047 -8.5093 17
44 1 4.51119 -3.60859 -6.69307 19
45 1 7.44621 -12.1456 -17.6024 11
46 1 9.06534 0.822328 -21.9067 12
47 1 0.490251 -12.6126 -12.6062 18
48 1 5.83118 -6.59282 -3.1525 9
49 1 4.15572 -9.03623 -4.9281 13
50 1 7.04173 6.62966 -14.4628 11
51 1 -2.98029 -12.0963 -13.5758 14
52 1 3.66774 -12.583 -12.1981 18
53 1 -1.82518 -4.27018 -7.81512 17
54 1 -5.44063 -2.39992 -6.77202 10
55 1 6.97853 -12.1064 -11.886 18
56 1 -6.96938 -7.88415 -10.9307 9
57 1 -0.55497 4.80028 -6.62051 10
58 1 -6.12262 0.605117 -10.8514 16
59 1 -2.5104 2.02774 -5.54409 12
60 1 -3.01642 -10.1772 -19.8783 13
61 1 -6.59631 -0.493631 -19.9943 12
62 1 -1.39368 -9.2179 -17.348 18
63 1 7.2331 -3.94178 -5.07666 17
64 1 2.3012 -6.33636 -4.02205 13
65 1 -5.03488 -2.07746 -22.6163 8
66 1 -6.98973 -5.9552 -17.6326 16
67 1 5.64348 -14.7965 -13.3454 11
68 1 -3.25482 1.03251 -10.1248 20
69 1 2.89774 -8.98903 -23.0611 10
70 1 1.61842 6.11357 -8.76507 11
71 1 -8.06232 -2.74196 -18.0425 13
72 1 -4.71678 1.89688 -18.7799 17
73 1 8.53025 -12.9113 -14.4145 12
74 1 5.92178 -9.17713 -7.57863 15
75 1 -5.63141 3.48965 -15.9017 13
76 1 -2.83006 -3.82912 -4.52652 12
77 1 -5.11965 1.22516 -7.56198 13
78 1 6.43671 -9.64626 -22.8785 9
79 1 -0.130841 -11.7894 -7.16518 12
80 1 9.16513 -9.36203 -16.8519 15
81 1 9.88522 -0.2712 -11.866 16
82 1 1.81289 -3.18285 -22.6877 16
83 1 4.5769 -11.0383 -9.73967 21
84 1 -0.642065 -13.6574 -15.4511 15
85 1 -4.51157 -7.68306 -9.79373 16
86 1 9.85277 -2.26336 -6.39676 13
87 1 11.2518 -1.90882 -14.0219 14
88 1 4.06766 -1.00481 -23.9958 10
89 1 1.78267 4.84257 -20.4686 13
90 1 1.70288 7.8382 -11.7491 10
91 1 6.3316 -3.57161 -22.0591 17
92 1 7.8467 -11.6955 -8.63384 10
93 1 8.09373 -9.50407 -11.5236 23
94 1 2.6441 -7.97953 -9.76382 21
95 1 -2.68208 -4.43413 -20.3925 16
96 1 10.1805 -4.07456 -15.0111 16
97 1 -2.38416 4.07253 -20.2315 12
98 1 4.39864 -9.75057 -20.0543 16
99 1 -5.82309 -4.9452 -8.90704 14
100 1 5.19448 -14.017 -16.2473 15
101 1 5.61163 -7.10568 -19.7644 22
102 1 10.1491 -12.0146 -11.0504 10
103 1 3.70606 -12.4665 -17.588 17
104 1 0.220415 -3.5461 -3.73038 10
105 1 -1.11452 -0.893749 -4.03297 11
106 1 6.99719 -4.23153 -19.4424 21
107 1 -4.83771 2.42197 -12.859 18
108 1 5.19154 4.61031 -15.0231 18
109 1 9.65117 -0.0712748 -18.8127 19
110 1 0.964555 -0.323343 -23.0356 14
111 1 -7.60605 -1.96131 -12.1197 15
112 1 2.99729 -6.78618 -7.05576 25
113 1 -6.25756 -3.90103 -20.76 13
114 1 11.5871 -4.99088 -11.9326 14
115 1 7.33018 -1.3586 -6.76345 19
116 1 3.09862 -10.8148 -7.0607 18
117 1 8.60036 -1.69397 -9.30492 19
118 1 10.0392 2.81416 -11.1959 12
119 1 2.10268 -12.0405 -19.4229 12
120 1 6.39489 2.14026 -6.69594 12
121 1 -0.0951625 1.34805 -19.9699 22
122 1 2.71824 -13.6621 -14.8634 18
123 1 10.3165 1.44792 -14.4645 17
124 1 -4.98845 3.60386 -9.95716 15
125 1 8.58258 2.73254 -16.9774 23
126 1 2.28045 -1.57361 -5.39826 13
127 1 1.14001 -6.37885 -24.32 6
128 1 10.1457 -10.4626 -13.4944 16
129 1 7.07111 4.96127 -11.2041 15
130 1 -0.811297 6.72746 -11.1967 12
131 1 9.61105 -7.95764 -22.4383 9
132 1 6.2757 -6.66721 -6.37112 21
133 1 -3.0671 -0.706709 -6.79821 16
134 1 10.342 -4.37151 -9.01523 15
135 1 3.42852 4.79257 -18.1341 19
136 1 12.0386 1.54544 -17.1035 10
137 1 -0.535179 -5.97367 -5.60988 17
138 1 1.17004 -8.80754 -6.20629 17
139 1 -3.03783 5.30282 -12.486 15
140 1 8.85048 4.05735 -13.9646 17
141 1 -4.22685 -10.4316 -11.3222 14
142 1 11.6697 -2.28268 -9.67906 13
143 1 -3.59889 -11.9898 -16.761 12
144 1 6.60355 1.44096 -9.53241 20
145 1 10.702 -4.25795 -19.4995 14
146 1 4.08959 5.46628 -12.4931 17
147 1 -8.39687 -6.45378 -20.1513 7
148 1 6.82912 1.35663 -19.8206 21
149 1 -5.13009 -7.12309 -20.1211 14
150 1 7.42278 -6.38322 -22.2799 16
151 1 3.88522 -16.6868 -15.598 7
152 1 -2.66032 -9.9273 -8.4244 17
153 1 10.7431 -6.5072 -17.0193 10
154 1 -8.7265 -1.1441 -15.2609 10
155 1 -0.558731 1.93058 -22.6355 12
156 1 -5.43041 -9.26646 -18.016 10
157 1 9.62307 0.902097 -8.46825 16
158 1 -1.38555 -7.19695 -20.2502 17
159 1 -3.93105 4.11418 -6.94773 10
160 1 -3.40693 -6.52909 -6.84342 15
161 1 9.12639 5.92846 -16.886 10
162 1 12.1331 -1.58085 -17.1507 12
163 1 -2.08942 -8.84756 -5.88527 12
164 1 7.98535 -1.29129 -23.8191 11
165 1 9.36839 3.25983 -19.3565 12
166 1 7.98089 4.11132 -8.75545 13
167 1 6.80266 5.52889 -17.984 14
168 1 11.6235 -1.76175 -20.5926 11
169 1 9.65981 -4.12978 -22.6493 12
170 1 4.50555 5.99228 -10.1826 12
171 1 -2.33597 4.13185 -15.2751 17
172 1 0.799392 -9.94845 -9.07717 22
173 1 10.8925 -8.48148 -10.8491 12
174 1 -4.59838 -6.84408 -16.0971 19
175 1 -3.6387 5.00671 -17.8513 10
176 2 -8.47576 -3.41799 -10.7435 12
177 2 9.85223 1.06137 -10.4537 15
178 2 -7.87986 -2.6947 -16.1817 13
179 2 -0.00979269 -12.0973 -9.18817 15
180 2 4.29901 -2.46867 -5.1922 15
181 2 -3.95404 2.39815 -6.6584 13
182 2 7.33178 -6.05384 -20.2729 23
183 2 -3.66488 -0.7532 -22.8225 10
184 2 4.60912 -9.81305 -22.3085 11
185 2 0.424292 4.7019 -8.35609 15
186 2 11.2035 -7.0278 -11.9884 13
187 2 7.84683 5.38886 -12.9898 13
188 2 3.27577 5.10291 -8.87165 15
189 2 5.43754 5.93965 -13.9241 14
190 2 5.42463 2.87059 -20.3097 17
191 2 8.04763 -2.74843 -22.4676 18
192 2 -6.41009 -1.91021 -21.1794 11
193 2 1.27247 -10.7803 -6.48863 14
194 2 -5.0105 -4.25191 -10.4071 20
195 2 5.68829 -12.654 -17.5417 12
196 2 7.23745 -13.7097 -13.2654 13
197 2 4.68413 2.84975 -6.93198 14
198 2 4.08817 -5.63029 -3.48831 14
199 2 -1.5436 -12.3136 -12.4669 13
200 2 5.16509 -12.0379 -11.202 16
201 2 -3.42359 -9.83957 -13.0522 16
202 2 1.00899 -12.7741 -14.5172 18
203 2 -0.629102 -13.8575 -17.5818 13
204 2 -1.93827 5.62871 -13.9765 12
205 2 6.84309 -0.385547 -20.9237 22
206 2 8.46144 2.28771 -15.0411 19
207 2 3.16381 3.53227 -21.3578 11
208 2 10.2051 -1.53938 -10.4663 18
209 2 0.97834 7.1036 -13.2413 13
210 2 -4.30571 4.87544 -8.78909 12
211 2 3.03663 5.0409 -13.7929 18
212 2 8.56909 4.37415 -18.2359 12
213 2 -0.682534 0.558635 -7.75896 20
214 2 2.44068 -7.55992 -5.37723 16
215 2 7.85765 -8.37669 -22.7597 12
216 2 3.67703 -10.6018 -18.6663 18
217 2 2.68256 -6.99967 -23.3291 11
218 2 -4.60463 -10.1432 -16.5125 14
219 2 10.5244 -5.93089 -18.8108 14
220 2 10.0252 4.88088 -15.314 13
221 2 0.83946 -4.7011 -23.5971 11
222 2 5.75913 -5.28557 -22.6615 14
223 2 2.02231 -9.17898 -21.4352 15
224 2 9.58011 -8.99544 -20.7992 13
225 2 10.1051 -0.249866 -20.6917 17
226 2 -6.33522 -6.65 -9.60126 12
227 2 0.28434 -6.25412 -20.2364 19
228 2 2.17106 -13.4216 -17.9252 16
229 2 -0.510275 -2.05152 -22.9005 16
230 2 -1.71875 2.26942 -10.2652 20
231 2 -2.28892 -12.6129 -15.3352 16
232 2 -4.20337 3.98674 -11.7162 16
233 2 -7.68985 -6.71976 -12.3981 11
234 2 -8.64554 -6.48329 -18.2964 7
235 2 4.51776 -8.88556 -10.0088 23
236 2 10.9988 -3.39039 -21.4507 10
237 2 7.70451 2.12177 -8.16579 15
238 2 -2.56949 -5.5747 -5.41202 13
239 2 -6.60167 1.56929 -12.5333 16
240 2 -6.58296 -3.80855 -18.7689 18
241 2 10.926 -0.142746 -17.3716 16
242 2 -7.00328 -4.0357 -12.986 17
243 2 1.30446 6.66934 -19.9213 8
244 2 5.91025 -1.94221 -23.485 13
245 2 -6.9555 -1.17414 -10.3987 14
246 2 8.61093 -7.74149 -17.9256 17
247 2 3.98957 -12.4879 -15.617 20
248 2 -2.46902 6.64623 -10.4128 11
249 2 8.19223 -11.4827 -10.7024 15
250 2 6.33133 5.06176 -9.24646 14
251 2 2.62877 6.63721 -16.8352 14
252 2 -3.20067 -8.27698 -7.63468 13
253 2 1.34879 1.82651 -23.2398 11
254 2 6.72976 -4.68499 -17.6621 19
255 2 7.01327 -1.98735 -4.90282 13
256 2 12.1237 2.38235 -15.3771 11
257 2 4.68664 2.03091 -9.35663 22
258 2 -6.52469 -5.78267 -15.5827 16
259 2 2.14216 1.76323 -7.40867 18
260 2 6.82879 -5.17922 -3.69016 11
261 2 2.60952 -1.66088 -23.2623 11
262 2 0.445243 -1.71186 -4.74021 14
263 2 8.12752 -7.19743 -6.67627 14
264 2 -7.24207 -0.860362 -18.2508 12
265 2 -3.14365 0.516241 -17.2229 17
266 2 -5.02145 0.474744 -20.32 12
267 2 1.69497 -8.0724 -7.98011 20
268 2 3.34448 6.89653 -11.4539 11
269 2 -2.47604 -11.3069 -18.4278 13
270 2 10.378 -3.64829 -12.9977 20
271 2 -6.10597 2.35376 -17.5046 14
272 2 10.4172 -6.03544 -15.2736 15
273 2 -1.105 -8.94919 -9.14237 19
274 2 0.569158 -11.2057 -19.6817 14
275 2 0.63257 4.97201 -15.5279 16
276 2 -2.30791 5.41126 -6.98309 10
277 2 -0.50369 -7.78025 -6.0344 18
278 2 -4.99532 1.67633 -9.65737 16
279 2 -0.876193 3.05438 -5.88994 12
280 2 -5.36962 1.8558 -14.8395 19
281 2 7.41007 6.0927 -16.1698 11
282 2 -2.04672 0.206691 -5.26695 14
283 2 0.846685 -5.37405 -4.14578 12
284 2 -3.15489 -6.38192 -19.8346 15
285 2 1.64941 3.93549 -18.3958 18
286 2 0.456319 -10.4274 -17.215 21
287 2 6.10041 -4.82228 -6.64066 22
288 2 10.5472 -0.299215 -13.9869 18
289 2 6.31676 -10.7362 -8.71985 16
290 2 8.405 -1.04369 -17.9978 21
291 2 3.45708 -0.0203747 -4.85405 9
292 2 -1.50918 -2.81135 -3.38755 9
293 2 -4.6601 -9.1115 -19.8331 10
294 2 -1.30295 4.5995 -11.5368 18
295 2 -6.3181 -3.13403 -8.29194 11
296 2 -5.36458 -8.89847 -10.9552 12
297 2 3.84076 -14.1458 -13.2395 15
298 2 9.14289 -4.01729 -6.05702 16
299 2 -1.26188 2.86374 -21.1434 12
300 2 8.66706 1.91416 -20.3384 15
301 2 7.80637 -11.5146 -15.5983 16
302 2 9.28836 -6.03859 -8.73335 16
303 2 6.53519 0.473432 -6.02592 14
304 2 3.70546 5.79455 -19.7949 12
305 2 -1.48524 -8.96509 -20.7545 12
306 2 0.846949 7.09833 -10.1577 11
307 2 -1.46207 4.32792 -17.9582 14
308 2 -8.14522 0.598685 -15.8072 11
309 2 -4.95139 -0.47986 -7.13924 14
310 2 4.63845 1.20558 -23.6977 11
311 2 9.30681 -5.97402 -22.5615 14
312 2 -3.75654 3.49895 -19.108 13
313 2 -1.08019 0.577568 -23.6674 12
314 2 5.61007 -7.79579 -4.68795 13
315 2 -3.75204 -2.78451 -5.78423 13
316 2 -3.37115 -5.43528 -8.38732 16
317 2 4.62462 -10.1468 -6.55958 15
318 2 -7.42753 -1.25837 -13.9449 15
319 2 -1.44124 -10.478 -6.87187 13
320 2 2.98541 -11.9168 -8.51829 14
321 2 10.9374 -2.89903 -7.82041 11
322 2 7.96485 -10.4925 -18.1645 12
323 2 -4.02076 4.36065 -16.0841 14
324 2 -6.65405 -6.01686 -20.9375 10
325 2 -1.74216 -2.2158 -7.62553 21
326 2 4.84421 -7.62988 -7.6833 22
327 2 8.01073 0.481072 -23.4665 11
328 2 10.4167 3.22873 -13.0575 12
329 2 11.6983 -4.13691 -10.3695 11
330 2 8.90084 -3.41882 -19.7032 20
331 2 9.22518 -8.84219 -10.0645 16
332 2 10.3861 2.32298 -17.8642 15
333 2 -5.57759 -7.23853 -18.1797 15
334 2 -4.96903 -7.41739 -14.2775 19
335 2 6.94007 -10.2001 -12.7653 21
336 2 5.24841 4.41541 -17.0802 17
337 2 11.3571 -2.70522 -15.8376 11
338 2 6.91517 1.59561 -17.3453 19
339 2 9.79909 -8.91519 -14.8235 14
340 2 11.0038 -10.1942 -11.8016 10
341 2 5.25309 -15.5917 -14.9945 9
342 2 5.09999 4.39239 -11.3843 19
343 2 8.29273 3.52381 -10.6403 14
344 2 1.8775 -12.9706 -11.2989 17
345 2 -3.08045 -11.1474 -9.95645 13
346 2 9.10148 -0.99194 -7.52126 16
347 2 11.6916 -2.71519 -18.9757 13
348 2 -2.00898 0.156829 -20.2575 20
349 2 2.33854 -15.8977 -16.2419 12
350 2 9.83913 -12.1972 -13.022 12
351 1 1.20712 -14.9739 -17.4433 10
352 1 -2.83653 -5.88069 -17.8967 19
353 1 0.602491 -4.28209 -20.0524 22
354 1 2.11502 -7.24099 -20.5022 17
355 1 1.62207 -9.02145 -17.4674 22
356 1 0.432567 -6.1472 -17.9473 18
357 2 -2.27488 -8.94 -15.5381 20
358 2 -3.07889 -5.73081 -16.0273 21
359 2 -3.19374 -4.02181 -18.4347 18
360 2 -1.26042 -7.04001 -17.4796 18
361 2 -0.930004 -3.81665 -21.215 16
362 2 2.78322 -9.12103 -15.8288 20
363 2 0.58215 -6.01499 -15.3776 22
364 2 0.0569025 -4.28715 -18.2229 23
365 2 2.16854 -7.2192 -18.2454 22
366 1 -3.45937 -4.12659 -14.9163 22
367 1 -1.46661 -6.79928 -15.0488 21
368 1 -1.47214 -9.48586 -13.5222 19
369 1 -3.27579 -6.85873 -12.7536 22
370 1 -3.04029 -5.17337 -10.2297 20
371 1 -1.30752 -8.06022 -10.9007 21
372 1 0.972948 -10.9284 -15.4383 21
373 1 0.417962 -4.33342 -14.9441 23
374 1 1.98089 -7.39435 -14.8481 22
375 1 1.8779 -9.39539 -12.5603 21
376 1 0.28369 -6.35418 -12.6606 21
377 1 0.210095 -4.54341 -10.3976 19
378 1 0.0297384 -7.17017 -8.51004 24
379 2 -3.0049 -7.02125 -10.8627 22
380 2 -3.3652 -5.03677 -13.1171 21
381 2 -1.23667 -7.3766 -13.0271 22
382 2 0.374808 -10.3358 -13.6515 21
383 2 1.97467 -9.70277 -10.5046 22
384 2 -0.00657327 -6.45149 -10.3942 20
385 2 0.0969725 -4.37353 -12.8292 21
386 2 1.8688 -7.58552 -13.0357 22
387 2 -0.160302 -5.07949 -7.62524 19
388 1 -2.68294 -0.50813 -18.6829 16
389 1 -1.39683 -3.49625 -17.3241 23
390 1 -7.7759 1.18606 -17.4973 10
391 1 -1.83796 1.88179 -17.1043 22
392 1 1.96792 -1.32055 -19.9226 22
393 1 1.62429 -3.30933 -17.3315 21
394 1 0.307452 -0.394613 -17.4888 23
395 1 1.60312 2.18291 -17.5655 22
396 2 -4.98472 -3.13567 -15.6601 21
397 2 -4.4009 -3.74234 -21.3245 13
398 2 -1.54888 -3.44427 -15.1406 21
399 2 -3.58852 -0.572348 -14.4641 17
400 2 -1.13998 -1.60145 -18.1359 21
401 2 -1.73522 2.32245 -15.0105 20
402 2 2.30519 -3.18071 -20.7985 21
403 2 0.742901 -0.0953792 -20.8987 19
404 2 2.21444 -3.31525 -15.4593 21
405 2 0.196663 -0.588976 -15.5471 25
406 2 -0.20109 1.4665 -18.1257 21
407 2 1.72371 -1.42187 -18.0683 23
408 2 1.6327 2.316 -15.4855 21
409 1 -5.60399 -1.56745 -14.4144 19
410 1 -4.95181 -4.13181 -12.3151 24
411 1 -3.80267 1.08879 -15.547 18
412 1 -1.74826 -1.33111 -14.9929 22
413 1 -1.77862 -3.4456 -12.685 22
414 1 -3.53737 -0.72214 -12.5722 19
415 1 -1.72784 -1.91668 -9.66523 20
416 1 -1.57828 2.45385 -12.4633 18
417 1 -0.0259825 1.33378 -14.6749 22
418 1 1.69374 -1.66827 -14.67 23
419 1 1.93642 -3.44089 -12.1574 24
420 1 -0.0627068 -0.568612 -12.2346 23
421 1 -0.49081 0.901984 -9.70931 20
422 1 1.55445 -1.70059 -9.33142 20
423 1 1.42088 -3.91051 -7.61496 17
424 1 1.50212 2.01319 -11.7684 22
425 2 -5.17976 -2.11815 -12.4289 21
426 2 -1.53538 -3.56087 -10.56 23
427 2 -3.57807 -0.916644 -10.3488 20
428 2 -3.2629 1.37221 -12.3194 22
429 2 -1.60966 -1.49977 -13.0764 21
430 2 1.65613 -3.48782 -9.93378 19
431 2 -0.0605009 -0.841454 -10.2501 24
432 2 0.109858 1.21614 -12.7575 21
433 2 1.84446 -1.61256 -12.7394 23
434 2 1.55375 -1.86669 -7.4951 20
435 2 1.24626 2.23016 -9.94659 22
436 1 3.72988 -4.17644 -19.9207 21
437 1 5.11911 -9.13631 -17.365 24
438 1 3.64768 -6.30006 -17.4007 22
439 1 7.07687 -6.74796 -17.1342 22
440 2 3.8335 -6.40257 -20.4916 21
441 2 5.4743 -9.44371 -15.5352 20
442 2 3.7666 -6.70209 -15.5274 24
443 2 3.27621 -4.14292 -17.8296 21
444 2 6.0556 -8.80634 -20.1399 18
445 2 6.56263 -6.21697 -15.3116 21
446 2 5.20987 -7.44526 -17.8627 20
447 1 3.86832 -10.6273 -15.1832 23
448 1 3.64679 -4.2987 -14.6523 24
449 1 5.20889 -7.52237 -14.6326 21
450 1 5.05431 -9.39893 -12.0197 23
451 1 3.56661 -6.56264 -12.4352 20
452 1 3.42864 -4.46525 -9.61998 22
453 1 5.07251 -7.17162 -9.54916 21
454 1 6.72518 -4.28633 -14.8177 19
455 1 9.97459 -7.22155 -13.7676 16
456 1 6.73109 -6.23105 -13.2349 18
457 1 6.53777 -4.30807 -8.88506 24
458 2 3.52163 -10.3766 -12.9422 25
459 2 3.48713 -6.16673 -10.2775 22
460 2 2.8683 -4.71239 -12.9665 22
461 2 5.18128 -7.55552 -12.727 22
462 2 3.09685 -4.97803 -7.63047 20
463 2 6.79567 -6.26617 -9.83523 23
464 2 6.68383 -4.31083 -12.7844 24
465 2 8.49681 -6.54669 -12.5053 20
466 1 5.44901 -1.29004 -19.8694 20
467 1 5.12235 -3.59933 -17.1186 22
468 1 3.33068 -0.458883 -17.0431 22
469 1 5.19848 2.2824 -16.8158 22
470 1 8.83763 -2.90369 -17.6472 19
471 1 6.91286 -0.238395 -17.0449 21
472 2 5.44411 -3.53202 -20.4044 21
473 2 3.93643 -0.124845 -19.741 16
474 2 5.25507 -3.14323 -15.2162 22
475 2 3.48307 -0.261749 -15.1053 23
476 2 3.60168 1.56099 -17.7946 22
477 2 5.31815 -1.57401 -17.6933 23
478 2 4.88894 2.50984 -14.8339 20
479 2 8.1428 -3.02732 -15.6392 21
480 2 6.90708 -0.157776 -15.0824 20
481 1 3.25195 1.47383 -14.372 23
482 1 5.16518 -1.17868 -14.4237 25
483 1 5.61502 -3.07581 -11.8839 21
484 1 3.43142 -0.569973 -11.7782 24
485 1 3.14739 1.07261 -9.04807 19
486 1 5.30306 -1.71546 -9.37418 18
487 1 4.64686 2.53242 -11.3166 23
488 1 6.55547 1.64787 -14.1211 19
489 1 8.43248 -1.47799 -14.5575 23
490 1 8.73812 -3.63351 -12.0713 22
491 1 6.92517 -0.455534 -12.1571 19
492 2 5.09752 -3.62455 -10.1988 21
493 2 3.26398 -0.804116 -9.63395 21
494 2 3.14077 1.48579 -12.4461 22
495 2 5.13234 -1.25118 -12.5334 21
496 2 6.22486 -2.3186 -7.91508 19
497 2 8.42431 -3.55467 -9.81444 23
498 2 7.01379 -0.353068 -9.80312 21
499 2 6.00142 1.33284 -12.107 18
500 2 8.17222 -1.85876 -12.6713 20
