ITEM: TIMESTEP
6000
ITEM: NUMBER OF ATOMS
500
ITEM: BOX BOUNDS pp pp pp
-30.0 30.0
-30.0 30.0
-30.0 30.0
ITEM: ATOMS id type x y z Coordination
1 1 5.39851 -3.68564 4.61052 16
2 1 -1.09937 5.00955 7.74965 11
3 1 -6.64056 0.828972 3.02756 22
4 1 -2.90994 -1.00625 -12.648 9
5 1 -8.48458 -1.90187 -2.59176 15
6 1 0.0992035 0.535799 -12.6852 11
7 1 6.14623 -7.42501 -7.15074 12
8 1 3.42935 2.44364 5.18404 21
9 1 1.20922 4.37838 -7.88167 20
10 1 2.03785 5.07961 7.04169 14
11 1 -9.6183 -4.50099 -1.2935 11
12 1 7.8091 -4.32824 -6.1715 14
13 1 2.24046 -0.45186 8.74615 13
14 1 -8.6436 -7.99339 -1.43036 10
15 1 -1.41609 -7.67104 -9.26534 13
16 1 6.77895 1.83854 -7.28407 21
17 1 6.77214 -4.00545 2.14037 19
18 1 -4.52366 6.13153 3.27823 20
19 1 -2.09414 7.73205 1.3823 19
20 1 1.21015 -5.99962 -11.1796 12
21 1 -2.01621 1.66655 5.77939 21
22 1 9.1745 -2.96426 3.07395 8
23 1 -8.0686 8.82621 3.69027 5
24 1 2.51902 5.20189 -11.0717 15
25 1 6.52672 7.31423 -3.17371 17
26 1 -0.631925 8.45687 -8.38147 10
27 1 -4.83428 3.81761 -8.63639 19
28 1 -2.1834 8.24252 -5.32953 14
29 1 0.0668945 7.17777 -1.68631 22
30 1 -8.6747 4.78677 -1.63244 10
31 1 -0.0289252 5.89856 4.60019 16
32 1 -3.33096 1.79665 -12.2767 10
33 1 -4.61168 -7.52982 2.70993 16
34 1 4.01799 -7.92456 -2.80458 21
35 1 -10.0967 -1.52252 0.0930615 10
36 1 -6.46836 -0.950829 -5.23513 22
37 1 -0.14396 -10.0639 2.86054 13
38 1 4.76011 2.29352 -12.3253 10
39 1 -4.35905 -8.04758 -7.82585 14
40 1 -0.23261 6.13321 -13.1089 5
41 1 -1.5073 9.85573 -2.43265 10
42 1 -9.74662 0.0113143 2.64037 12
43 1 1.87897 8.33774 5.05593 11
44 1 4.0353 -0.286507 4.72885 22
45 1 4.24888 -9.86084 -5.11057 12
46 1 7.17858 3.57268 -9.9678 12
47 1 -3.3319 -10.8995 1.59253 9
48 1 3.76608 -3.09786 7.85425 10
49 1 0.14842 -5.29749 6.03324 15
50 1 5.43219 9.91358 -3.18318 8
51 1 -5.56267 -9.44536 -0.310658 12
52 1 1.55451 -9.14991 0.251906 17
53 1 -3.84651 -1.31305 5.03772 19
54 1 -7.71011 0.206893 6.14674 10
55 1 4.54596 -10.7754 -1.48764 11
56 1 -9.89044 -3.66343 2.03735 8
57 1 -3.21861 7.44462 5.8283 13
58 1 -8.43431 5.15744 2.62257 12
59 1 -3.9276 4.57319 5.97335 15
60 1 -6.14937 -4.64811 -8.48196 15
61 1 -8.11106 3.6658 -8.37007 10
62 1 -3.28386 -4.91093 -7.96867 20
63 1 5.65616 0.1128 7.75031 11
64 1 0.228263 -1.94248 7.60679 13
65 1 -4.63327 0.0581276 -9.93784 14
66 1 -9.49089 -5.82054 -3.43631 8
67 1 -1.18691 -9.87539 -0.412266 15
68 1 -5.639 3.5986 3.47089 20
69 1 1.67348 -7.87156 -8.35425 16
70 1 -0.797257 9.456 4.01572 12
71 1 -8.2485 1.78946 -5.42339 13
72 1 -7.29476 6.13252 -7.71783 9
73 1 1.13084 -11.4169 -6.3742 11
74 1 5.2104 -6.83888 3.10061 16
75 1 -6.92331 4.97547 -5.11168 16
76 1 -4.20085 -0.358781 7.76878 14
77 1 -8.87449 2.45883 4.34564 9
78 1 4.31648 -6.84275 -9.78453 12
79 1 -2.44654 -6.50578 7.23044 10
80 1 5.61417 -5.87762 -4.3383 18
81 1 8.22759 1.95428 -0.644205 16
82 1 2.45662 -0.483087 -10.7491 16
83 1 3.61412 -10.1993 2.17235 10
84 1 -3.73418 -10.4222 -2.34177 14
85 1 -6.65232 -4.85716 3.3457 15
86 1 6.35117 1.99549 5.99654 11
87 1 8.67786 5.0033 -2.00781 13
88 1 2.11208 2.2975 -10.564 19
89 1 -0.467752 6.10071 -10.2074 17
90 1 -0.386544 10.4964 0.724116 10
91 1 5.38992 0.686249 -10.2011 15
92 1 5.78174 -8.90495 0.454304 15
93 1 6.63726 -6.11611 -1.19965 19
94 1 1.83318 -7.12969 2.85992 21
95 1 -6.33379 1.1019 -7.67101 20
96 1 8.4909 -0.342307 -2.76675 16
97 1 -3.24091 6.69834 -8.19171 15
98 1 3.93726 -9.98635 -8.11201 9
99 1 -8.08705 -1.70271 3.71113 13
100 1 1.66832 -9.97166 -2.87535 17
101 1 3.1611 -4.51522 -7.43295 19
102 1 7.71782 -8.64056 -1.7831 10
103 1 0.3454 -8.57082 -5.99515 20
104 1 -1.28973 0.055884 9.19168 11
105 1 -2.84766 2.52037 8.50081 11
106 1 4.31518 -1.62318 -7.99246 21
107 1 -6.78195 7.0209 -2.03058 13
108 1 2.86469 7.46183 -2.7529 21
109 1 9.06032 3.8676 -7.03919 12
110 1 -1.45695 2.86186 -10.4737 19
111 1 -9.1274 2.4603 0.766416 17
112 1 2.12306 -2.75597 5.39959 20
113 1 -7.97535 -1.66524 -8.26435 11
114 1 8.56208 -2.73154 -0.456557 13
115 1 3.96223 2.39802 8.57536 12
116 1 0.4495 -8.02635 5.7918 13
117 1 8.04006 3.1266 2.21778 12
118 1 7.1274 6.53163 2.63907 10
119 1 -1.57158 -10.3545 -7.88107 10
120 1 4.20101 5.66839 4.9169 13
121 1 -1.85491 4.05331 -7.92552 21
122 1 -3.1172 -9.31667 -5.31859 14
123 1 6.37124 5.05716 0.202346 20
124 1 -6.47761 4.92897 0.705652 22
125 1 6.26541 4.74984 -5.33747 20
126 1 0.648729 2.31277 7.49908 16
127 1 -0.280642 -2.85833 -11.5133 12
128 1 8.68971 -6.57445 -4.47796 10
129 1 2.53525 9.79963 1.96307 11
130 1 -4.58479 9.2861 3.45356 11
131 1 6.15459 -4.26515 -8.66955 13
132 1 3.1426 -5.64132 5.3833 13
133 1 -5.05231 1.81742 5.45115 17
134 1 7.09106 -1.12062 4.62668 16
135 1 0.634447 8.66968 -4.96445 14
136 1 8.91856 6.21481 -5.16193 11
137 1 -3.01448 -3.16124 7.82377 14
138 1 -1.55466 -3.31966 4.96529 19
139 1 -5.19796 7.74515 0.434859 14
140 1 4.30853 8.50543 -0.532004 15
141 1 -6.32543 -6.61344 0.363902 16
142 1 8.58133 -0.310852 1.29952 13
143 1 -5.34576 -7.33399 -2.51792 19
144 1 5.08277 4.17086 2.84814 19
145 1 11.8842 -1.14522 -4.5499 6
146 1 1.65184 9.67826 -1.57245 14
147 1 -8.53274 -4.0541 -6.11441 11
148 1 2.81967 7.43831 -8.52369 13
149 1 -4.62956 -1.93237 -8.0499 23
150 1 2.63704 -3.55752 -10.2056 15
151 1 -1.71591 -11.8506 -4.84946 8
152 1 -2.87931 -9.04952 4.40453 12
153 1 9.78178 -3.05862 -4.42544 10
154 1 -9.70299 1.2008 -1.65581 12
155 1 -3.29398 5.46013 -11.1848 12
156 1 -6.26975 -6.50671 -5.73656 15
157 1 5.88579 1.4295 2.79274 23
158 1 -3.13729 -3.03016 -10.0325 14
159 1 -6.76308 6.67651 5.31629 11
160 1 -6.22866 -3.01127 5.99956 13
161 1 7.90292 8.02029 -0.478358 8
162 1 9.47369 2.7069 -3.98245 13
163 1 -3.98063 -5.72302 5.40851 19
164 1 4.43277 3.44246 -9.33638 19
165 1 6.14808 5.97834 -7.9493 13
166 1 3.88899 7.12131 2.08001 19
167 1 4.35768 8.29725 -5.80011 12
168 1 9.79711 0.803386 -6.73238 11
169 1 7.46192 -1.21339 -7.91883 14
170 1 0.985326 6.96752 1.8577 21
171 1 -3.45017 7.0378 -2.76785 17
172 1 -1.16005 -6.72956 3.46176 22
173 1 8.26629 -6.78981 1.53176 9
174 1 -6.80995 -4.70072 -2.98183 20
175 1 -5.22406 7.87788 -5.31904 13
176 2 -10.0786 -1.71072 2.39506 10
177 2 7.88931 4.81205 2.73543 11
178 2 -8.72829 1.18292 -3.66708 11
179 2 -0.835478 -9.17084 4.37772 13
180 2 0.625631 0.419867 8.41212 14
181 2 -4.84377 6.25177 5.27392 13
182 2 7.18391 -6.40425 -5.8519 12
183 2 -3.9776 -0.0181547 -11.6117 12
184 2 3.38663 -8.38279 -9.0612 12
185 2 -2.87983 8.94987 4.41854 11
186 2 8.45678 -2.80365 1.38514 16
187 2 6.23709 8.63134 -1.35156 11
188 2 -0.00406369 7.92207 4.57375 13
189 2 3.55265 9.72155 -2.05227 12
190 2 2.72995 5.58425 -9.09414 17
191 2 5.94183 -0.834275 -9.0557 16
192 2 -8.29045 1.8527 -7.63745 10
193 2 -0.502814 -6.76921 6.86739 11
194 2 -6.75201 -0.948771 2.36944 19
195 2 5.30748 -9.32634 -7.17582 9
196 2 3.53752 -10.0049 -3.17243 13
197 2 3.25538 4.09966 4.00943 20
198 2 1.99686 -2.11995 8.16623 11
199 2 -4.85931 -7.31308 -0.246742 19
200 2 4.03058 -10.0435 0.221409 14
201 2 -7.47045 -8.43814 0.0507641 9
202 2 -3.07098 -10.6369 -0.385466 12
203 2 -2.6139 -10.5949 -3.76791 12
204 2 -4.35848 8.0167 2.03903 15
205 2 5.15669 1.97064 -8.30444 22
206 2 5.93936 5.28131 -3.60208 19
207 2 0.903102 5.9917 -11.5966 10
208 2 8.89275 1.57021 1.44131 12
209 2 -1.63875 10.2194 -0.745209 11
210 2 -6.29684 5.34891 2.71611 17
211 2 0.580325 8.69328 -2.72975 15
212 2 4.42204 7.38473 -7.62111 12
213 2 -3.70354 3.73704 4.09312 18
214 2 -0.0988426 -3.34845 6.40704 15
215 2 2.91316 -5.55651 -10.3184 13
216 2 1.34938 -6.85346 -6.72113 19
217 2 0.291239 -7.29989 -9.95253 11
218 2 -6.25161 -6.3583 -3.66299 18
219 2 11.6306 -2.77501 -3.75787 5
220 2 4.25421 8.90745 1.34657 14
221 2 -2.14179 -2.29364 -11.5925 13
222 2 0.790591 -1.19539 -11.7322 13
223 2 -2.66173 -8.74147 -8.21547 13
224 2 5.44135 -6.0521 -8.58196 11
225 2 8.01273 3.42753 -8.41358 14
226 2 -6.11088 -6.50333 2.36112 14
227 2 0.81988 -4.20235 -11.1256 10
228 2 0.250672 -9.63993 -7.71156 15
229 2 -1.86528 0.522088 -13.5549 9
230 2 -3.27686 5.35986 1.56024 20
231 2 -5.33878 -9.30424 -2.18267 13
232 2 -6.45178 6.49459 -0.180063 16
233 2 -7.98486 -3.65832 2.82802 13
234 2 -8.68575 -3.86907 -2.83757 13
235 2 3.60737 -6.23195 1.87094 24
236 2 10.5304 -0.47253 -5.72667 11
237 2 2.69906 5.67168 1.8617 20
238 2 -4.19119 -2.05652 6.75434 14
239 2 -9.01868 3.22697 2.84455 13
240 2 -7.78416 -2.33774 -6.52886 13
241 2 9.09252 4.94419 -3.87945 12
242 2 -9.28884 -0.754614 -1.54375 14
243 2 -1.93124 7.4594 -9.44617 12
244 2 3.60602 0.897971 -11.3381 15
245 2 -8.56008 4.96322 0.551451 10
246 2 6.38636 -4.23212 -4.59706 19
247 2 0.917164 -8.96738 -4.30463 21
248 2 -6.3264 8.99176 3.95693 11
249 2 6.39059 -10.061 -1.33265 10
250 2 2.57258 6.47292 5.71756 13
251 2 -2.54988 8.68648 -3.4341 13
252 2 -5.50261 -4.73382 4.87156 15
253 2 -1.85279 6.35501 -12.248 8
254 2 7.81061 0.344772 -6.83524 14
255 2 1.76464 1.77596 5.89574 20
256 2 8.23047 6.89031 -2.32672 11
257 2 5.35498 6.03521 3.31761 14
258 2 -9.3318 -6.30942 -1.5107 11
259 2 0.237333 5.27682 6.33181 14
260 2 5.21253 -1.83471 8.2971 7
261 2 0.243831 1.97048 -11.2953 14
262 2 -0.987528 3.15755 7.89583 15
263 2 4.74485 -5.57326 4.51511 15
264 2 -6.44741 0.852555 -5.89154 18
265 2 -5.2708 4.02636 -5.59785 21
266 2 -6.55606 4.67426 -8.81555 12
267 2 -0.759781 -5.12394 4.40755 20
268 2 1.47258 9.81988 0.255181 14
269 2 -5.17599 -6.36322 -7.99952 12
270 2 8.34002 -0.56792 -0.618358 17
271 2 -5.45376 7.7618 -3.35074 15
272 2 8.63431 -2.14122 -3.19828 15
273 2 -3.09926 -6.28065 3.03234 19
274 2 -4.78467 -7.82027 -5.87156 14
275 2 -0.635741 8.19623 -6.37017 12
276 2 -8.24449 7.02316 3.97714 7
277 2 -3.15882 -4.77437 7.0647 14
278 2 -9.71451 0.632332 0.859771 13
279 2 -2.45905 5.74734 6.59855 13
280 2 -7.04116 5.02522 -2.79439 13
281 2 5.55924 8.40773 -4.37641 12
282 2 -3.65059 2.659 6.681 15
283 2 -1.41842 -1.86515 8.64192 12
284 2 -4.46163 -3.57219 -8.95229 16
285 2 -0.374869 5.02928 -8.64074 19
286 2 -1.84229 -7.39108 -5.13861 19
287 2 5.2822 -1.58773 4.28358 18
288 2 7.98282 3.83456 -0.697795 17
289 2 4.97361 -8.84229 2.68593 11
290 2 6.14156 1.66918 -5.37806 21
291 2 2.65957 3.51069 7.93651 11
292 2 -3.08097 0.652002 8.58878 12
293 2 -6.60004 -4.58852 -6.53188 19
294 2 -0.628749 6.73114 0.464389 21
295 2 -8.2846 0.538611 3.94923 15
296 2 -9.86007 -3.53569 0.122201 10
297 2 0.539766 -10.1183 -1.24773 14
298 2 3.92448 0.538632 8.50067 15
299 2 -3.32138 4.98841 -9.10226 16
300 2 5.72211 4.81858 -9.38618 14
301 2 2.85877 -10.7989 -6.35172 13
302 2 7.50038 -3.64236 3.94001 11
303 2 4.86074 2.4078 6.92228 14
304 2 1.17048 8.07089 -8.72606 12
305 2 -1.56727 -5.98781 -8.36552 19
306 2 -0.734784 9.08343 2.07552 12
307 2 -3.74503 7.18668 -6.25497 17
308 2 -7.99898 4.58819 -6.66121 11
309 2 -6.7976 2.5555 4.54627 16
310 2 3.45132 3.51841 -11.4116 15
311 2 4.58729 -3.55199 -8.58245 16
312 2 -6.7151 6.76291 -6.07335 10
313 2 -2.896 3.59019 -11.4504 13
314 2 3.77656 -3.52026 5.95876 13
315 2 -5.71249 0.28625 6.81661 13
316 2 -7.30759 -1.75119 5.49545 12
317 2 1.69549 -6.912 4.84654 16
318 2 -9.34806 3.10332 -1.22089 11
319 2 -2.91726 -7.45095 5.5607 14
320 2 1.56198 -9.22405 2.29281 17
321 2 5.81476 0.0963834 5.89607 13
322 2 4.50973 -7.63692 -4.82129 17
323 2 -3.65539 7.13988 -0.737896 18
324 2 -6.46184 -0.745591 -8.68223 14
325 2 -3.71243 0.585113 4.56811 20
326 2 1.88655 -4.00998 3.84792 19
327 2 6.08145 2.37602 -11.0242 12
328 2 7.11662 6.83423 0.576811 14
329 2 8.55892 -1.06624 3.18874 13
330 2 7.1343 -3.03464 -7.50945 14
331 2 6.78928 -5.98237 2.34461 16
332 2 7.73161 5.47922 -6.63708 13
333 2 -8.90164 -5.65173 -5.20226 9
334 2 -6.59292 -4.94512 -0.80908 19
335 2 5.11655 -7.14848 -0.90759 23
336 2 2.6747 8.22784 -4.88407 14
337 2 8.36118 1.86181 -2.71584 14
338 2 4.47304 4.36534 -5.85785 22
339 2 9.41611 -4.78285 -4.98699 10
340 2 7.62742 -7.7429 0.125702 10
341 2 -0.118258 -12.0053 -5.36828 10
342 2 2.05052 6.82058 -1.1375 19
343 2 2.16825 8.24961 2.89792 16
344 2 -1.41307 -10.4176 1.38801 11
345 2 -3.84135 -9.35173 2.66453 13
346 2 6.74218 2.46903 4.09517 16
347 2 9.52018 2.59642 -5.78971 14
348 2 -4.73422 1.76312 -8.70175 21
349 2 -2.46718 -10.7337 -6.3726 12
350 2 7.78563 -6.95625 -2.73544 14
351 1 -3.63106 -6.39276 -5.08752 21
352 1 -5.06466 -3.73617 -5.2934 22
353 1 -1.87472 -1.53279 -7.78373 23
354 1 -0.173686 -4.42169 -8.31273 23
355 1 -0.445947 -6.16887 -6.00995 21
356 1 -1.82879 -3.42311 -5.29389 23
357 2 -3.37053 -6.64509 -3.07836 21
358 2 -5.12855 -3.6175 -3.2653 24
359 2 -5.037 -1.95402 -5.90061 22
360 2 -3.45876 -4.69057 -6.0402 25
361 2 -1.63574 -3.09281 -8.92254 18
362 2 -0.129092 -6.10215 -3.67811 23
363 2 -2.07573 -3.5214 -3.27608 22
364 2 -1.75575 -1.49793 -5.71649 23
365 2 -0.136738 -4.25141 -6.1775 24
366 1 -5.24719 -1.77422 -2.30982 22
367 1 -3.62543 -4.63662 -2.6423 23
368 1 -3.05977 -6.84851 -0.832425 19
369 1 -5.2503 -3.66054 -0.0314867 20
370 1 -5.12336 -1.81326 2.12532 18
371 1 -3.25108 -4.35151 2.63986 20
372 1 -1.49209 -7.67918 -3.22532 20
373 1 -1.72473 -1.5133 -2.93779 20
374 1 -0.120633 -4.43598 -2.64381 25
375 1 -0.0689484 -6.62205 0.108726 21
376 1 -1.87803 -3.64511 -0.293892 19
377 1 -1.75819 -1.43735 2.23814 19
378 1 0.267828 -4.36704 2.53174 23
379 2 -4.99242 -3.98665 2.04718 19
380 2 -5.27602 -1.77087 -0.329149 21
381 2 -3.48751 -4.7014 -0.644299 21
382 2 -1.50949 -7.92309 -1.12441 18
383 2 0.257761 -6.38317 1.86623 21
384 2 -1.56511 -3.35624 1.72058 23
385 2 -2.01434 -1.43048 -0.895703 23
386 2 -0.234748 -4.53244 -0.595996 21
387 2 -2.70241 -2.32052 3.98814 20
388 1 -2.92887 1.05256 -7.94911 20
389 1 -3.59796 -0.853773 -5.15478 23
390 1 -5.06525 2.22139 -5.44473 23
391 1 -3.49228 5.18101 -5.6844 19
392 1 -0.0420791 1.13353 -7.57404 23
393 1 -0.188108 -0.440951 -5.30124 23
394 1 -1.83173 1.95544 -5.33392 23
395 1 -0.428578 5.33309 -5.24652 19
396 2 -6.79248 -1.01924 -3.20449 22
397 2 -3.47444 -0.669446 -8.44945 19
398 2 -3.76816 -0.62573 -3.12776 21
399 2 -5.37747 2.16151 -3.14848 20
400 2 -3.41821 1.05666 -6.03223 25
401 2 -2.9285 5.18727 -3.82781 21
402 2 -0.339744 -0.601563 -7.70803 17
403 2 -1.39072 2.23624 -8.56942 19
404 2 0.045773 -0.611323 -3.44515 23
405 2 -1.9313 1.76669 -3.30747 20
406 2 -1.93332 3.90981 -6.11756 23
407 2 0.0980001 1.86277 -5.63119 22
408 2 -0.0897377 5.34508 -3.12348 20
409 1 -6.78385 1.0015 -2.63608 21
410 1 -6.86218 -0.684188 0.253046 23
411 1 -5.50707 3.98588 -2.7002 20
412 1 -3.64315 1.04681 -2.47273 22
413 1 -3.5265 -0.671504 0.0226029 22
414 1 -5.49511 2.18183 0.110669 20
415 1 -3.72059 1.21431 2.68163 22
416 1 -3.26051 5.03222 -0.173641 21
417 1 -1.71759 4.05506 -2.65864 21
418 1 -0.0298304 1.31539 -2.68049 23
419 1 -0.197796 -0.717025 -0.117576 22
420 1 -2.13298 2.07589 0.070646 24
421 1 -2.02381 4.04178 2.80035 21
422 1 -0.395085 1.32168 2.57269 22
423 1 0.765149 0.192266 5.10842 17
424 1 -0.155556 4.76023 0.73813 23
425 2 -7.05294 1.18508 -0.0952104 19
426 2 -3.47735 -0.501033 1.99023 24
427 2 -5.40719 2.18866 2.11875 23
428 2 -4.82183 3.93726 -0.879517 20
429 2 -3.87847 1.16912 -0.385729 22
430 2 -0.0155568 -0.531766 1.94665 22
431 2 -2.08602 2.21067 2.07016 23
432 2 -1.55793 4.08681 -0.554656 21
433 2 -0.607255 1.10969 -0.682133 22
434 2 -0.879233 1.06921 4.49089 19
435 2 -0.323925 5.14522 2.713 19
436 1 1.41126 -1.48386 -8.10827 22
437 1 2.76913 -6.42006 -5.15217 19
438 1 1.17685 -3.49338 -5.14337 23
439 1 4.58648 -3.29784 -4.94667 21
440 2 1.87117 -3.26157 -8.44958 18
441 2 2.80413 -6.47751 -3.01607 19
442 2 1.82263 -3.45768 -3.11704 22
443 2 1.47982 -1.6092 -6.03259 24
444 2 3.07449 -4.41585 -5.47388 20
445 2 4.57834 -3.14628 -3.12084 19
446 2 4.591 -1.44579 -5.91421 23
447 1 1.02039 -7.26277 -2.61236 22
448 1 1.57872 -1.58823 -2.78402 20
449 1 3.19907 -4.59923 -2.70435 25
450 1 3.44098 -6.327 -0.131174 21
451 1 1.5413 -3.59949 -0.303228 22
452 1 1.578 -1.44165 2.28262 21
453 1 3.33472 -4.51982 2.4404 24
454 1 4.96215 -1.14972 -2.55896 26
455 1 6.76997 -3.26366 -3.02413 20
456 1 4.96311 -3.46786 -0.285709 22
457 1 4.84199 -1.61713 2.25834 22
458 2 1.55958 -7.17025 -0.57092 22
459 2 1.91535 -3.30953 1.53508 21
460 2 1.53927 -1.48398 -0.843621 25
461 2 3.29016 -4.54796 -0.810602 23
462 2 2.0508 -1.24983 4.34308 20
463 2 4.87703 -3.47404 1.70697 24
464 2 5.07671 -1.63069 -0.637373 19
465 2 6.67082 -4.00929 -1.22855 19
466 1 3.28622 1.44553 -8.1015 22
467 1 3.02993 -0.442469 -5.26016 26
468 1 1.7219 2.64801 -5.33678 22
469 1 3.0265 5.38482 -5.18634 20
470 1 6.65993 -0.267578 -5.38863 22
471 1 4.4251 2.39773 -5.5291 22
472 2 2.82458 -0.247494 -8.74151 20
473 2 2.00985 2.67496 -8.71265 20
474 2 3.19919 -0.517121 -3.33028 21
475 2 1.35288 2.43941 -3.2291 25
476 2 1.49723 4.75002 -5.96209 19
477 2 2.97657 1.25768 -6.05602 21
478 2 3.18096 5.53716 -3.16948 21
479 2 6.57372 -0.221627 -3.45342 22
480 2 4.50247 2.43255 -3.41749 24
481 1 1.40592 4.25974 -2.54835 22
482 1 3.15164 1.43694 -2.77562 23
483 1 3.1936 -0.733056 0.00830712 23
484 1 1.19052 1.98122 -0.0889903 23
485 1 1.592 4.35233 2.75894 23
486 1 3.0575 1.62209 1.98817 21
487 1 2.77069 5.10557 -0.0519044 22
488 1 4.85932 4.16942 -2.64238 21
489 1 6.54027 1.86144 -3.32379 19
490 1 6.39427 -0.315036 0.0529701 23
491 1 4.42362 2.45828 -0.282095 22
492 2 3.47149 -0.268718 1.86141 21
493 2 1.33901 2.46798 2.11924 24
494 2 1.18585 3.88776 -0.513037 25
495 2 2.85171 1.27003 -0.6327 24
496 2 4.02916 1.46149 3.76054 20
497 2 6.32466 -0.0051482 1.83625 23
498 2 4.65176 2.90704 1.56295 23
499 2 4.58588 4.68476 -0.682141 20
500 2 5.90959 1.34135 -0.968643 23
