ITEM: TIMESTEP
1000
ITEM: NUMBER OF ATOMS
500
ITEM: BOX BOUNDS pp pp pp
-30.0 30.0
-30.0 30.0
-30.0 30.0
ITEM: ATOMS id type x y z Coordination
1 1 -4.31788 1.43906 -5.3959 23
2 1 5.58354 -1.21427 7.5611 16
3 1 -1.03768 6.88915 10.0038 18
4 1 5.12349 -1.20677 4.54674 19
5 1 -7.1475 2.04527 -0.187465 22
6 1 -3.46812 -0.887757 -7.32802 15
7 1 0.925035 2.70469 9.29646 19
8 1 5.09849 -3.25052 -4.63564 16
9 1 -9.64283 0.184287 -1.73773 19
10 1 -2.18583 3.38777 -10.6671 10
11 1 4.908 -8.10445 -0.495472 15
12 1 4.47572 4.67468 4.35888 24
13 1 -1.14392 5.52201 -5.06031 23
14 1 1.76533 4.29579 6.63824 22
15 1 4.07232 7.04527 9.34717 14
16 1 -6.73173 -4.06486 -0.141611 18
17 1 -9.67171 -2.98709 -0.476471 13
18 1 8.48721 -1.71055 -0.570197 13
19 1 4.00412 3.91549 8.88357 16
20 1 -6.34139 -3.93226 3.04111 17
21 1 -3.59533 -5.33243 -4.47378 18
22 1 1.25073 -3.09144 -6.01831 21
23 1 7.89148 -0.853482 -3.63589 12
24 1 7.05585 -6.63814 5.89656 12
25 1 -3.48061 9.58995 6.11706 13
26 1 1.3607 9.0487 4.29781 21
27 1 -1.66543 -3.12259 -7.73388 14
28 1 -4.14056 7.58133 7.98596 15
29 1 6.02624 -5.3712 3.74705 19
30 1 -3.91826 6.95845 4.83847 20
31 1 2.3007 6.88372 -5.47447 14
32 1 4.69148 4.37883 1.4863 22
33 1 -4.07386 10.348 -2.94436 11
34 1 -3.69809 4.90221 -6.63845 20
35 1 -3.64165 9.7468 0.141231 16
36 1 -0.502393 10.4935 1.48438 19
37 1 -9.06794 5.43162 0.589541 14
38 1 1.28621 8.95542 10.1828 11
39 1 -7.63644 1.89976 -6.66575 18
40 1 -6.81871 -4.64644 6.46417 19
41 1 -8.83165 -3.13759 -4.47798 14
42 1 3.91196 -10.8156 1.31301 11
43 1 -7.55424 1.51795 3.24267 22
44 1 -9.61681 -0.137654 -4.75667 17
45 1 -2.32729 -8.97386 7.25384 11
46 1 5.4516 5.1322 -4.09075 16
47 1 -7.68874 -2.87413 -8.17014 9
48 1 -1.56692 6.10734 -8.35254 15
49 1 -0.984138 -5.75376 -2.397 21
50 1 -3.07227 12.1683 2.78506 10
51 1 -9.67797 3.55041 2.89327 17
52 1 0.371876 10.0875 7.11829 17
53 1 4.36076 0.73064 9.82873 10
54 1 2.48915 -10.1474 -1.52054 12
55 1 6.59716 2.67996 -5.33064 12
56 1 -2.96261 -6.82006 3.06803 19
57 1 -2.07373 -9.33893 2.19312 18
58 1 3.68555 1.26985 6.83037 17
59 1 1.22753 -7.69515 6.34259 19
60 1 4.41912 8.67714 0.535469 15
61 1 -7.6126 -7.70987 6.09363 9
62 1 -4.34197 -8.68681 4.55086 14
63 1 -3.62898 -3.8771 -2.02859 17
64 1 -6.06817 -2.1203 8.07322 16
65 1 -10.3011 0.592295 4.44244 11
66 1 3.04529 -9.23543 3.74923 14
67 1 -3.92737 -4.08598 5.08008 22
68 1 -1.53721 5.26532 7.61687 19
69 1 -8.75786 -2.29562 3.15662 19
70 1 -4.69451 9.81439 3.46076 15
71 1 -6.70391 8.43161 5.3101 12
72 1 -2.20463 9.3242 9.73991 11
73 1 -7.13641 -5.70832 -5.88825 10
74 1 -6.3996 5.06241 -2.13189 19
75 1 -6.81329 -0.571368 -5.45409 21
76 1 6.42487 2.40252 5.71416 17
77 1 -3.50968 -1.12407 10.5482 11
78 1 -6.22901 0.0236532 -9.19366 9
79 1 -10.845 2.65237 -0.625183 13
80 1 -0.830794 -10.5504 5.01922 9
81 1 -6.4959 3.69636 8.33869 11
82 1 -4.2465 6.58283 1.65034 20
83 1 1.73928 -7.38145 -3.90373 18
84 1 0.405142 12.9626 2.12895 9
85 1 -6.59416 4.5001 -5.40606 19
86 1 -9.36576 4.07795 -3.54514 10
87 1 -1.76456 -7.82234 -4.32827 12
88 1 4.02855 -7.62335 7.42609 11
89 1 -10.1559 4.22141 -6.5868 9
90 1 -4.686 2.10872 10.6332 11
91 1 -8.80126 3.59317 5.69365 15
92 1 2.86236 -5.36063 -5.8112 16
93 1 -0.961376 -3.42059 6.58002 22
94 1 -0.840076 -2.83318 10.1726 11
95 1 3.94652 -5.58939 -3.00451 18
96 1 8.16104 3.87605 -0.110606 17
97 1 -6.44153 5.07918 5.35632 15
98 1 0.974294 2.44182 -8.87641 12
99 1 6.36456 -5.76812 8.5334 10
100 1 -4.98922 -6.59732 -2.43649 15
101 1 -5.91884 -1.5404 5.13096 22
102 1 8.78986 2.46349 8.09764 9
103 1 9.61173 1.53964 -0.839564 11
104 1 -0.150037 8.17637 -6.45461 13
105 1 -5.93991 6.6804 -7.34684 11
106 1 2.9865 11.7074 1.79973 11
107 1 1.5073 5.16852 -7.20398 14
108 1 0.464575 -7.6472 3.85357 20
109 1 3.86259 -6.11582 1.4872 21
110 1 1.45009 -9.42208 1.17565 17
111 1 -7.40883 4.19504 -8.77965 10
112 1 8.02321 -0.726854 2.79165 11
113 1 -3.58531 6.81086 -1.71956 23
114 1 4.26585 -8.456 -3.89837 10
115 1 -9.0583 -2.27216 6.24872 14
116 1 -0.778094 -8.7161 -1.225 16
117 1 1.2057 -4.16113 -8.51756 11
118 1 1.62123 6.83038 1.26958 18
119 1 1.4089 -6.71857 -0.885573 20
120 1 -5.75289 -3.4557 -3.70922 20
121 1 0.8535 0.368416 10.9946 10
122 1 -1.27607 3.63234 11.4919 11
123 1 5.41386 -0.507597 -5.12677 15
124 1 -11.4706 2.35646 -3.64828 9
125 1 1.98633 9.99789 -0.400053 12
126 1 5.4041 4.49292 -1.40248 21
127 1 -4.67281 1.97477 -8.58766 17
128 1 -9.17326 6.50969 3.86966 12
129 1 1.36154 -4.76787 7.81521 15
130 1 7.30118 3.95642 2.99527 20
131 1 -9.23221 -0.591238 -7.6439 9
132 1 7.96986 -3.38511 6.3636 12
133 1 -1.36353 -6.45424 0.950989 20
134 1 6.98827 5.80284 8.7 10
135 1 0.217777 -11.862 2.55584 6
136 1 5.3306 -2.82105 9.54411 9
137 1 9.72128 5.23226 3.98926 11
138 1 7.30911 5.55364 5.55014 15
139 1 -0.392932 -5.57229 -5.24112 18
140 1 4.53876 6.71576 6.3138 18
141 1 -3.89158 7.98881 -5.85357 14
142 1 -0.635395 -0.704939 8.19973 18
143 1 -5.01451 -8.23512 1.21387 14
144 1 4.15369 7.54961 3.39801 19
145 1 -3.6876 4.03136 5.86356 17
146 1 -6.47022 4.58365 2.20653 20
147 1 6.71424 6.93265 -1.52784 9
148 1 1.63754 5.47138 10.386 13
149 1 0.301671 -0.818492 -8.81175 13
150 1 1.55681 7.29943 7.83499 23
151 1 6.96542 -3.37135 -2.53333 13
152 1 2.91555 11.9132 4.89326 10
153 1 3.25046 -6.66799 4.92296 21
154 1 -1.00926 7.50214 5.81341 21
155 1 4.25494 -2.76764 -7.70498 9
156 1 4.10193 -4.32571 6.51549 23
157 1 -1.55153 2.75324 -7.43543 20
158 1 -3.54247 5.02535 9.95724 13
159 1 9.72566 2.15126 5.17337 12
160 1 -0.67727 10.4676 -1.64997 13
161 1 8.30913 4.32864 -3.03667 13
162 1 -2.00291 2.09464 9.0393 19
163 1 -3.67518 -3.48057 8.09814 17
164 1 -6.19248 8.3409 -1.10896 13
165 1 5.61863 10.62 2.67784 10
166 1 -9.12181 -5.32082 4.85594 12
167 1 6.65332 1.58158 0.862433 21
168 1 -7.68579 -5.91619 1.30745 12
169 1 9.90886 4.79779 7.49986 8
170 1 9.24999 -4.77836 3.08731 7
171 1 1.65548 6.2462 4.71553 20
172 1 -11.6367 -1.63901 -2.803 8
173 1 -1.43168 7.64592 -0.229421 18
174 1 1.84421 9.3175 -3.66282 11
175 1 -7.27284 1.66743 -3.58744 21
176 1 2.5305 -0.604551 -7.01227 16
177 1 -3.20678 -9.02566 -1.33825 12
178 1 -1.64798 -6.12303 5.421 21
179 1 6.40339 -3.34825 1.01536 18
180 1 -9.54915 0.254484 1.18579 17
181 1 -4.32014 5.18939 -9.81419 11
182 1 -8.58729 -5.47993 -2.59868 10
183 1 8.05747 -0.235605 5.76919 12
184 1 -4.70509 -4.64108 -7.18871 11
185 1 -7.21119 7.96618 2.12515 12
186 1 -7.79815 0.692786 6.81917 17
187 1 6.91477 7.11783 2.36408 14
188 1 9.98914 1.98885 2.5072 11
189 1 -1.20701 -5.85781 8.53475 13
190 1 3.80152 3.76735 -7.09017 12
191 1 2.741 6.74545 -2.23235 19
192 1 3.41445 9.36795 6.44703 15
193 1 -1.45968 8.05165 -3.72736 17
194 1 6.33841 1.76508 -2.60812 22
195 1 -5.05264 1.13794 7.81551 19
196 1 7.63333 -5.96142 0.225222 11
197 1 -1.29835 10.7923 4.63616 17
198 1 -1.38449 7.75169 2.81747 22
199 1 -4.24458 -6.09301 6.99769 16
200 1 5.69165 -8.13026 2.74442 14
201 1 -7.83576 -8.40537 3.24427 10
202 1 -6.17347 7.88354 -4.28557 13
203 2 -9.61794 -1.33943 4.56387 14
204 2 9.18653 5.29721 5.76081 13
205 2 -6.29204 -1.60284 -4.11338 18
206 2 -9.13384 1.48354 -0.252724 19
207 2 -2.37332 -7.20513 7.80989 12
208 2 -0.588267 5.04399 10.7753 15
209 2 4.79033 1.70551 5.22711 17
210 2 -1.16232 9.34997 6.10443 21
211 2 5.73155 -6.83793 0.706949 16
212 2 -3.97303 -0.442924 -5.56744 19
213 2 1.03978 -5.12368 -6.65824 14
214 2 -5.05161 8.58676 6.20453 14
215 2 7.40497 -1.73268 6.92367 12
216 2 5.65125 8.60025 2.5205 11
217 2 1.27079 9.24032 8.41489 15
218 2 4.37947 11.5006 3.62789 11
219 2 0.22752 9.08162 -4.50919 13
220 2 4.1455 -1.27523 -6.20076 16
221 2 -9.02982 0.843899 -6.08436 16
222 2 -0.358127 -6.2282 6.85265 19
223 2 -10.0786 1.38047 2.78601 15
224 2 4.33432 -7.54996 -2.17535 14
225 2 -2.56052 -9.42533 5.40161 14
226 2 4.57157 0.173484 -3.55037 20
227 2 1.27184 7.74862 5.84729 20
228 2 5.05982 -0.83654 9.41649 10
229 2 -6.39731 -6.65017 6.81633 12
230 2 -1.00796 -10.5763 3.04798 12
231 2 -8.47871 -3.81878 6.07668 16
232 2 -6.14232 -8.24741 4.7423 12
233 2 -4.62612 -7.79103 -0.957406 13
234 2 -3.18323 10.69 4.17962 14
235 2 2.24978 3.16477 -7.68724 13
236 2 8.27565 2.60286 -1.79849 17
237 2 -0.0564509 6.88196 -7.66229 11
238 2 -7.60926 3.46611 -3.82102 17
239 2 6.585 3.71681 1.10199 21
240 2 1.96652 12.5271 3.21131 12
241 2 -2.94039 9.29742 8.00992 12
242 2 1.20456 11.3268 0.824484 12
243 2 1.12859 9.94016 -2.0856 14
244 2 -2.8808 6.70318 6.74678 19
245 2 2.25819 -3.7001 6.28202 17
246 2 2.11995 -2.39152 -7.85502 16
247 2 2.5849 -8.91119 -2.97743 13
248 2 -0.934052 -3.44841 -5.85019 19
249 2 -7.04452 -7.73311 1.66303 10
250 2 7.78607 -4.6879 1.73011 11
251 2 7.74562 5.63858 3.38452 14
252 2 -4.65198 -0.0816466 -8.52924 13
253 2 1.16927 0.678694 -7.73249 14
254 2 -5.26486 -5.47681 -5.39469 12
255 2 4.41507 -4.26751 -6.3245 13
256 2 4.71321 2.9403 -5.86576 14
257 2 -2.8292 -4.70577 6.59973 20
258 2 -0.114329 -2.79651 -8.9216 11
259 2 0.796792 5.46356 -5.32656 20
260 2 -0.098767 -6.93859 -3.97078 18
261 2 -4.16073 3.33958 -10.2361 12
262 2 -1.37512 4.03242 6.13483 20
263 2 -5.73792 -3.8479 5.10269 22
264 2 -3.42004 7.71967 3.26458 25
265 2 -8.31144 -4.86226 2.9239 15
266 2 -10.7362 -1.44076 -1.24936 12
267 2 3.45045 -8.62824 5.71481 15
268 2 9.48822 -0.353309 -1.23041 8
269 2 -1.20068 -0.706303 -7.55383 19
270 2 4.05665 8.29302 5.16567 18
271 2 3.62571 8.04134 7.77029 14
272 2 -0.472458 1.92019 10.7251 13
273 2 -7.5749 3.55834 3.58573 20
274 2 -7.73678 -1.08074 -8.77205 10
275 2 9.80354 2.88528 0.538748 11
276 2 -9.12302 -2.09233 1.14693 16
277 2 -4.67742 9.36262 -1.48274 13
278 2 -1.03603 2.77685 -9.39402 14
279 2 -8.43293 6.3309 2.10337 12
280 2 3.92649 -10.1369 -0.361959 11
281 2 0.986509 -9.50508 -0.63317 14
282 2 -6.63124 9.14938 3.6091 12
283 2 -1.07327 -6.6594 3.33894 22
284 2 1.44 -8.66556 2.86465 20
285 2 2.34249 7.40602 9.88956 13
286 2 -3.96388 10.6201 1.75908 13
287 2 -5.4426 -3.97824 7.93442 13
288 2 -2.0345 -9.60364 0.0932724 13
289 2 -4.50761 -1.52679 7.10134 20
290 2 -4.16525 6.64522 -7.13082 16
291 2 6.95746 -1.42077 -1.86348 18
292 2 2.43481 1.1586 10.0905 12
293 2 -8.18643 0.11098 -2.99705 20
294 2 5.14509 5.85516 2.77399 19
295 2 6.09816 6.03252 6.84942 15
296 2 4.61451 -4.20537 1.20961 20
297 2 -8.62075 -7.05211 4.49326 10
298 2 -0.692898 8.77697 10.7141 11
299 2 4.41603 2.20796 8.64041 14
300 2 -2.2437 5.22386 -9.79573 11
301 2 5.08058 -3.24958 7.69339 17
302 2 1.71514 4.29529 8.72849 18
303 2 5.79156 -7.04248 7.24211 14
304 2 -10.5203 -2.94743 -3.80523 12
305 2 -6.43896 6.98873 -2.70948 12
306 2 -8.65645 3.75529 -7.42192 12
307 2 -2.82628 -2.67844 9.76659 15
308 2 4.37867 10.6162 0.968179 11
309 2 -7.36655 -4.44032 -7.30479 9
310 2 8.99037 3.34555 3.60923 16
311 2 -6.20149 7.58257 0.689481 18
312 2 7.43742 -4.52686 4.75999 13
313 2 -7.50031 -1.19549 7.1059 14
314 2 -5.74543 -4.72803 -2.28708 18
315 2 -1.70718 9.7933 -0.0142282 19
316 2 -7.4909 6.82439 4.96301 14
317 2 -0.306463 -3.97866 8.60381 15
318 2 -10.0302 4.83494 4.35355 12
319 2 -3.58163 7.57744 0.0636641 17
320 2 -3.31881 7.13107 9.82442 12
321 2 -11.1302 0.377493 -3.41203 12
322 2 2.7257 8.17187 -0.463157 14
323 2 -5.15203 3.87548 9.8204 12
324 2 0.166998 -1.23017 9.79327 10
325 2 -8.68789 -1.74541 -6.0779 13
326 2 -1.97509 7.58648 -5.6416 15
327 2 -3.18117 -5.8351 -2.73789 19
328 2 -4.77463 4.4754 -4.8569 20
329 2 4.07105 -0.861615 6.30952 19
330 2 7.4066 5.10107 -1.43066 14
331 2 1.31944 -6.0786 5.03239 22
332 2 5.216 3.31944 -3.0714 19
333 2 -0.316355 6.60607 8.13188 23
334 2 -0.519023 1.29697 7.7984 19
335 2 -7.92794 -4.91681 -4.17815 12
336 2 -0.705332 -6.61528 -0.849826 21
337 2 -0.270879 9.83638 3.39382 20
338 2 -9.04536 1.58092 5.6725 14
339 2 -5.994 -4.96136 1.26366 17
340 2 -2.03529 -8.65947 -2.86555 12
341 2 3.15083 5.44397 5.92928 22
342 2 -1.40605 6.95885 -2.08052 19
343 2 -6.51614 6.56389 -5.55298 13
344 2 4.96721 6.19081 -2.29829 14
345 2 3.65907 -6.65009 -4.81154 13
346 2 7.74165 1.44348 6.52713 13
347 2 4.92962 5.38599 9.36097 12
348 2 -4.64722 8.95428 -4.0905 12
349 2 -6.10941 1.35669 -5.21675 20
350 2 -3.66882 -3.10269 -7.70932 12
351 2 -1.26663 12.3083 2.43377 10
352 2 -1.83545 9.77931 -2.98384 15
353 2 -10.8154 3.65362 -5.08545 10
354 2 -7.50059 4.14442 6.87093 14
355 2 -1.49258 4.70025 -6.9597 18
356 2 6.5017 -2.03436 -4.32156 11
357 2 -10.247 3.05552 -2.31744 13
358 2 -3.68765 2.85683 -7.13211 21
359 2 5.83167 -4.50146 9.85624 8
360 2 -6.8158 1.69053 8.24606 13
361 2 -3.58648 -3.23001 -3.73862 20
362 2 -6.88471 -2.21667 2.99243 20
363 2 7.90562 -5.34861 7.0897 11
364 2 -10.2686 3.6804 0.909096 12
365 2 -3.23822 3.00749 11.3323 9
366 2 0.0221988 -9.01252 5.57957 15
367 2 10.1726 3.06145 6.81636 10
368 2 2.06136 -5.84107 -2.54958 19
369 2 -0.884573 6.50048 4.16615 20
370 2 -6.79533 1.82414 -8.42706 15
371 2 -6.66797 0.503566 4.77312 21
372 2 2.88191 -5.97377 7.70211 16
373 2 3.37998 5.66705 -6.68919 9
374 2 8.36214 4.25952 8.72248 9
375 2 -7.4577 3.81814 0.494149 17
376 2 9.46613 0.487861 4.07407 10
377 2 4.91769 -3.84867 -2.72012 18
378 2 -3.45303 -6.65487 1.2792 19
379 2 7.2709 -4.47071 -0.895628 11
380 2 6.70872 -7.10768 4.09126 15
381 2 6.81363 -0.731372 4.10467 19
382 2 4.25641 -5.05325 4.46065 22
383 2 -2.37016 4.17377 9.03031 20
384 2 7.46596 4.19189 -4.67552 11
385 2 -8.84619 -4.62627 -0.952147 13
386 2 -7.16844 -2.21926 -0.501663 21
387 2 1.96013 -11.217 2.05537 10
388 2 2.7977 7.69015 -3.93481 13
389 2 8.47213 1.06683 1.50529 17
390 2 5.81947 8.05951 -0.388295 12
391 2 2.32396 -6.16982 0.473973 21
392 2 7.33985 -1.54061 1.05946 17
393 2 4.70319 -9.71782 2.47694 13
394 2 -2.26844 -6.31235 -5.35772 14
395 2 2.23629 7.1204 3.02953 22
396 2 1.82847 10.5195 5.69601 14
397 2 -3.70692 -6.60251 4.91361 20
398 2 -3.94415 0.490985 9.64228 15
399 2 -4.71674 5.11909 4.57465 18
400 2 6.2045 4.03818 4.92895 18
401 2 6.96443 0.851527 -4.38768 16
402 2 -6.25768 5.44724 -9.33541 10
403 2 -4.03118 -8.79158 2.67096 15
404 2 3.58806 -7.46048 3.15035 20
405 1 -6.54192 -0.793005 -1.91144 19
406 1 -0.982314 -0.245145 -5.7815 20
407 1 -3.79082 -1.04454 -3.74243 19
408 1 -1.6514 -2.92696 -4.15592 20
409 1 -0.841175 -0.602136 -1.9981 20
410 1 -3.51322 -1.18269 0.00850702 20
411 1 -1.13591 -3.30437 -0.309343 21
412 2 -1.81221 -0.719036 -3.78078 21
413 2 -4.38287 -0.909429 -1.68916 20
414 2 -0.771723 -3.89726 -2.72255 23
415 2 -2.75459 -4.22633 -0.284483 20
416 2 -1.65484 -1.28953 -0.160286 21
417 1 -6.93627 -1.16322 1.15024 21
418 1 -3.91086 -4.79705 1.25097 20
419 1 -0.552837 -0.646268 1.50143 21
420 1 -3.69975 -1.664 2.92888 20
421 1 -1.26083 -3.98403 3.15846 23
422 1 -0.53031 -0.870216 4.84813 19
423 1 -2.98356 -1.07043 6.33961 20
424 2 -4.5669 -0.709465 1.44692 18
425 2 -0.772453 -4.42148 1.18075 21
426 2 -3.31492 -3.6732 3.00721 24
427 2 -1.58944 -1.68942 3.27158 23
428 2 -3.94323 -0.874233 4.69095 20
429 2 -0.555351 -4.16303 4.83854 23
430 2 -1.0946 -1.43497 6.53717 19
431 1 -3.53462 4.05521 -3.414 18
432 1 -1.30136 2.17072 -3.66119 19
433 1 -4.11589 1.20242 -1.72401 21
434 1 -0.761408 5.209 -1.94847 21
435 1 -3.65859 4.03416 -0.193809 22
436 1 -1.35111 2.28647 -0.216179 22
437 2 -6.0592 1.1545 -1.47112 23
438 2 -0.62922 1.72565 -5.5826 22
439 2 -3.37625 1.98913 -3.33274 21
440 2 -1.43662 4.35218 -3.48987 22
441 2 -4.37913 4.87388 -1.80522 18
442 2 -0.457763 1.3399 -1.78197 22
443 2 -3.4373 1.93721 -0.036449 21
444 2 -1.75857 4.36016 -0.512148 23
445 1 -4.52663 1.17108 1.45321 20
446 1 -0.561245 5.02822 1.30001 20
447 1 -3.62299 4.0416 2.85149 20
448 1 -1.56975 1.86923 3.17613 22
449 1 -4.75849 1.08193 4.66631 17
450 1 -0.754128 4.5654 4.37305 18
451 1 -0.677834 2.20141 6.2517 18
452 2 -7.43256 0.802304 1.43148 20
453 2 -4.62533 4.59662 1.38204 19
454 2 -0.500344 1.52879 1.51733 18
455 2 -3.75893 2.13194 3.27002 19
456 2 -1.73807 4.245 2.63253 23
457 2 -0.528553 1.03884 4.55942 21
458 2 -4.28373 2.17292 6.53354 20
459 2 -0.326176 7.00454 1.17774 18
460 1 2.22266 -1.4768 -3.85884 20
461 1 1.27661 -3.85059 -2.4824 23
462 1 5.18995 -0.705196 -1.92561 23
463 1 2.09169 -1.38726 -0.516834 21
464 1 4.19675 -3.5754 -0.718592 19
465 2 1.14437 -0.628381 -5.48912 18
466 2 2.04788 -3.32103 -4.26098 21
467 2 1.34333 -0.84504 -2.14092 20
468 2 1.83876 -3.41449 -0.670542 20
469 2 4.24032 -1.7267 -0.406537 20
470 1 1.37543 -4.40415 1.17817 19
471 1 4.31948 -0.924412 1.14683 23
472 1 1.96719 -1.478 2.93482 19
473 1 3.95465 -3.67272 2.97209 20
474 1 1.41855 -4.30602 4.61844 23
475 1 2.44604 -1.77757 5.96492 20
476 2 1.4669 -0.564405 1.28959 19
477 2 1.82996 -3.57295 2.80404 22
478 2 4.08918 -1.79434 3.18933 19
479 2 1.41684 -0.9931 4.83578 21
480 1 1.35825 1.44733 -5.7444 20
481 1 1.01842 4.13641 -3.79017 17
482 1 3.93765 2.01594 -4.0809 19
483 1 1.39194 1.18288 -2.36608 20
484 1 2.09032 3.74289 -0.859984 20
485 1 4.03309 1.75663 -0.0744181 23
486 2 1.90578 2.32942 -3.92044 20
487 2 1.70268 5.04293 -2.3345 20
488 2 5.70048 1.03921 -0.807269 22
489 2 2.21427 1.70517 -0.628828 21
490 2 3.79091 3.87037 -0.359426 20
491 1 1.69183 1.27671 1.2273 22
492 1 1.76504 3.60481 2.85386 24
493 1 4.42395 1.68348 3.3081 22
494 1 1.63805 1.19163 4.89873 19
495 2 1.30352 4.55669 0.743535 21
496 2 4.86631 0.863351 1.49996 23
497 2 2.31653 1.60986 2.99221 23
498 2 3.66229 3.65938 2.82964 21
499 2 1.2328 4.22819 4.69985 20
500 2 2.08797 2.28497 6.28876 21
