ITEM: TIMESTEP
19000
ITEM: NUMBER OF ATOMS
2000
ITEM: BOX BOUNDS pp pp pp
-30.0 30.0
-30.0 30.0
-30.0 30.0
ITEM: ATOMS id type x y z Coordination
1 1 -10.2089 7.21434 -15.1964 15
2 1 -4.13658 -4.06049 -8.51117 24
3 1 5.45345 14.7668 10.3742 15
4 1 10.6156 -7.56722 4.17272 12
5 1 -12.6224 14.1681 -7.51585 14
6 1 12.2083 -3.26816 -16.8427 12
7 1 -9.98955 8.31277 -12.0864 16
8 1 0.739742 -8.26174 10.0335 9
9 1 -7.43313 1.3534 -13.7583 13
10 1 -9.24049 -4.84067 1.50669 22
11 1 15.1785 6.54078 -13.0959 11
12 1 -5.24301 5.27494 -3.81386 20
13 1 -2.81144 -6.82653 -3.3107 24
14 1 -14.8168 -7.1644 2.5177 9
15 1 -1.16126 6.27293 14.7984 11
16 1 6.82312 -2.34779 4.18756 21
17 1 0.00347746 6.59434 3.80658 23
18 1 9.29242 -0.494701 -2.01371 19
19 1 1.94398 12.0721 -8.40646 18
20 1 4.41356 2.63042 10.4966 17
21 1 -8.11922 3.62716 -17.6916 19
22 1 -7.61321 -0.425108 9.51611 13
23 1 12.6052 10.2935 3.04706 20
24 1 4.33927 12.5806 -17.5502 16
25 1 5.31848 8.90584 -10.9833 23
26 1 13.9575 3.88164 11.0733 7
27 1 -7.52386 -0.483724 -1.02253 19
28 1 -12.1792 10.7601 -8.87957 21
29 1 -2.29806 3.30311 -14.1341 20
30 1 -7.83931 10.5783 4.4134 19
31 1 6.74524 -8.38559 3.92047 17
32 1 2.50081 0.688486 4.28411 22
33 1 3.83925 -9.7864 -13.5848 16
34 1 11.0487 -8.65494 -2.48854 16
35 1 -5.21999 -11.0567 -7.33496 19
36 1 -12.587 -1.49012 7.58533 12
37 1 3.89907 -0.753377 -9.59101 20
38 1 -0.330461 -6.60561 -11.6418 21
39 1 10.0349 -0.0575978 -16.5741 21
40 1 0.272558 10.4441 -16.6811 22
41 1 3.21556 8.50873 5.42378 21
42 1 -5.6368 -8.23459 -1.20426 18
43 1 6.90944 -5.55738 8.98115 14
44 1 -11.4471 3.16697 -3.68274 19
45 1 -14.8732 -0.667116 4.50984 13
46 1 -10.054 5.61837 -4.0657 21
47 1 4.27908 19.6648 -9.65776 14
48 1 1.78172 -8.66096 -11.5008 22
49 1 2.35818 2.85993 -14.4872 17
50 1 3.32378 -6.54999 -9.64703 20
51 1 -1.68028 -2.31699 12.0628 8
52 1 -14.2641 12.376 -9.4647 10
53 1 9.67961 13.8453 -11.8387 15
54 1 2.23876 19.0884 8.17302 12
55 1 -6.64731 8.51879 -11.7649 19
56 1 -1.12954 18.3003 -0.0770419 19
57 1 4.96248 -9.20618 1.92461 17
58 1 7.19639 -1.10035 -10.2323 20
59 1 0.587565 -3.54358 -17.7104 19
60 1 -3.19136 6.35563 9.44351 16
61 1 -11.0072 -0.724569 -11.4009 18
62 1 7.96976 5.16 0.749716 23
63 1 -6.34252 12.2034 -12.5675 14
64 1 -4.86215 -8.49802 2.01369 18
65 1 -2.11809 15.4361 9.95932 15
66 1 -7.45549 4.73678 -4.85111 18
67 1 -5.5005 11.6116 10.7836 14
68 1 5.93298 10.2706 -4.33505 15
69 1 4.76555 9.47161 2.93622 18
70 1 -9.7519 -7.01138 3.67389 21
71 1 2.95678 13.3157 7.09736 17
72 1 10.7866 -8.39998 -9.14716 14
73 1 6.0602 17.7204 11.1872 8
74 1 -11.5625 8.03528 -17.8768 6
75 1 -6.43315 6.67426 -14.1833 20
76 1 7.5252 5.08583 6.73539 22
77 1 11.1086 -0.795672 -14.359 23
78 1 12.0575 -5.33708 2.09926 21
79 1 -15.0997 1.03736 2.20685 10
80 1 -7.6842 2.00287 -3.40676 20
81 1 2.54296 13.5393 1.21084 21
82 1 2.28812 -0.559366 10.4063 12
83 1 -9.4404 -6.08589 -1.67648 20
84 1 -8.88055 3.92246 -1.44367 18
85 1 14.7643 4.73371 6.06767 14
86 1 11.2997 4.26535 -5.03778 19
87 1 -1.14583 12.8562 8.68823 16
88 1 8.01758 3.56265 4.06433 19
89 1 -8.72377 -1.47862 -4.04201 21
90 1 -2.37033 -3.96513 -11.764 20
91 1 -9.5371 14.1399 7.03448 12
92 1 -9.7477 12.6395 -7.25766 20
93 1 2.26777 15.4232 -12.5922 19
94 1 7.53374 3.1648 -7.01336 19
95 1 4.15773 5.93062 -10.125 18
96 1 8.04111 16.6768 -13.5138 11
97 1 10.7632 -2.98302 -1.42768 20
98 1 6.27364 -8.1631 7.32441 11
99 1 -4.80426 17.1916 -9.66036 15
100 1 -9.7803 16.736 4.28348 8
101 1 -9.22509 0.311261 6.29184 20
102 1 -4.88045 12.0156 0.609647 20
103 1 -5.14279 -1.354 10.8947 12
104 1 7.76017 -0.0604477 -13.6066 23
105 1 -3.32809 12.9041 -1.81732 17
106 1 -9.17266 -10.0956 3.18042 16
107 1 9.92959 -2.14841 -12.0656 25
108 1 9.43852 -2.59751 -18.5422 14
109 1 -6.30685 5.51014 -19.8363 17
110 1 6.19283 2.18326 1.89676 20
111 1 -4.12414 14.6532 1.00938 22
112 1 -5.02648 8.74317 -8.98844 20
113 1 0.0695247 11.2975 13.7073 12
114 1 1.65314 17.8367 -8.96617 20
115 1 -12.9964 14.428 -1.03043 13
116 1 0.208001 12.596 2.8797 16
117 1 -4.83173 -4.12538 5.93725 16
118 1 15.1672 2.62506 3.51951 17
119 1 0.517518 -2.18107 -11.4374 19
120 1 3.80589 -2.48206 -12.407 20
121 1 -6.40529 4.80322 9.22802 15
122 1 2.66634 2.66757 7.09323 21
123 1 -8.9805 -2.70127 -6.36943 18
124 1 7.81257 -0.852921 0.968845 18
125 1 -7.38132 -5.03885 -7.82375 20
126 1 12.1548 -3.5116 -4.45372 20
127 1 -2.75133 15.2477 -4.7642 17
128 1 9.28133 10.3819 -13.466 23
129 1 6.22256 18.2367 -11.0181 15
130 1 -2.10557 -11.5045 5.16092 16
131 1 -7.33714 -9.01848 6.39485 17
132 1 -1.67348 10.9261 -5.01465 18
133 1 4.36368 -7.25589 -16.0271 18
134 1 6.14885 6.10829 -7.45102 21
135 1 14.8105 -6.11327 0.783191 12
136 1 -4.06591 -10.0313 6.46824 14
137 1 -11.9244 -4.25277 -0.253054 22
138 1 16.6242 8.14429 6.86631 9
139 1 16.3999 -0.110203 -13.4723 12
140 1 -13.9635 1.66056 -2.38079 14
141 1 11.2073 13.3946 1.94726 20
142 1 16.6321 13.0817 1.11637 16
143 1 -9.33756 7.77335 12.3197 10
144 1 8.82056 6.39853 -7.75606 21
145 1 -4.5296 15.7306 5.04068 17
146 1 -4.67129 13.946 -9.996 18
147 1 -3.25 -4.17038 -15.2615 19
148 1 10.2677 -5.55343 -10.7496 16
149 1 3.55148 15.1025 -16.4715 15
150 1 9.41686 -2.14393 6.46431 21
151 1 1.02089 -2.97987 -21.1191 10
152 1 -3.58707 12.5497 -13.4221 18
153 1 12.7941 9.18443 -5.9513 17
154 1 -9.49542 10.0471 -9.85947 20
155 1 -8.52195 14.0087 -4.41159 21
156 1 9.51987 2.36384 -14.1005 21
157 1 11.4776 -4.77206 5.37068 14
158 1 -0.562581 6.53615 -11.3283 20
159 1 -1.52323 19.883 6.16226 11
160 1 11.1301 6.04723 -10.6393 16
161 1 8.75209 16.0571 -2.46977 17
162 1 -0.497331 18.6849 -6.69144 15
163 1 18.0677 8.73021 -3.43043 11
164 1 -1.95773 15.0673 -8.21932 21
165 1 3.41239 18.2779 -12.7116 13
166 1 -0.0369551 17.838 -12.1734 18
167 1 -14.1884 -2.19203 1.7412 16
168 1 -13.2416 13.1618 -4.30457 14
169 1 -0.416173 1.48203 -16.7621 20
170 1 1.85317 -7.42133 -14.5298 21
171 1 9.59734 18.5227 3.01075 15
172 1 1.24394 20.6431 4.79561 13
173 1 -15.5826 -0.909342 -3.20767 7
174 1 -10.4586 15.8966 -1.83422 15
175 1 15.9096 -1.48116 -2.0534 14
176 1 -8.10785 5.43191 -11.1041 17
177 1 5.60528 -0.20629 9.93143 12
178 1 1.86394 18.9011 -1.61788 20
179 1 3.1061 11.8075 4.55779 21
180 1 -1.14322 -5.72442 -16.5127 20
181 1 -4.4838 14.3641 7.88269 18
182 1 -2.03514 8.32177 -9.61096 19
183 1 2.41659 -3.30057 7.02354 17
184 1 -15.4475 -4.79507 -0.211118 10
185 1 0.993908 -10.5401 -13.0828 14
186 1 -2.04948 14.7548 -14.747 19
187 1 0.341555 -6.63693 1.95562 21
188 1 7.31569 -12.2937 -5.57873 10
189 1 -5.43585 14.759 -17.7869 8
190 1 -15.9882 1.82265 5.64395 7
191 1 8.2748 14.2011 -5.18659 19
192 1 7.9025 12.1641 -7.64777 20
193 1 -3.78542 7.86265 13.6413 11
194 1 1.39691 -9.33441 1.25285 19
195 1 -7.40074 6.55932 -2.03559 20
196 1 2.96652 22.1033 0.199535 13
197 1 -0.63819 8.2427 6.84065 17
198 1 13.5443 7.21033 10.9842 10
199 1 -2.3781 15.725 -1.7979 18
200 1 6.55428 -3.00225 -12.3715 23
201 1 -2.00676 12.2419 11.9344 14
202 1 -4.13523 2.21386 -8.95848 23
203 1 13.6167 -2.78158 1.06484 22
204 1 -5.24796 3.64765 4.52442 20
205 1 -11.8135 4.2585 -0.356953 20
206 1 -6.24045 -5.72572 3.07116 23
207 1 5.71223 4.81725 12.7737 11
208 1 -12.1623 7.56556 -6.32676 17
209 1 -2.96493 -9.87782 -2.67419 16
210 1 -5.43715 2.78645 -5.96268 22
211 1 8.0735 -3.97805 -9.27338 22
212 1 -5.03755 9.68357 -1.61758 20
213 1 -7.40558 2.76864 7.14097 21
214 1 7.92149 19.608 5.99852 13
215 1 -10.634 4.70844 -9.90901 18
216 1 -5.4364 15.5029 -14.9549 10
217 1 -12.9932 -4.6529 -8.89335 9
218 1 -7.13094 1.45113 4.03617 22
219 1 1.34659 -8.2215 4.12815 18
220 1 3.95732 -12.9782 0.673482 10
221 1 -9.64973 15.5845 1.75399 17
222 1 17.6039 4.5364 3.88113 8
223 1 6.61845 8.97196 -8.1794 18
224 1 -5.69502 3.21975 -21.5355 12
225 1 5.92282 2.6414 7.74299 20
226 1 9.36166 -10.842 -0.526547 10
227 1 -4.57637 11.5239 -19.3345 12
228 1 6.7213 -11.6661 -8.74057 14
229 1 12.6385 2.33922 -10.8664 16
230 1 7.46202 4.47391 -15.255 22
231 1 -8.49756 -2.44093 -12.8009 17
232 1 -1.46911 17.7911 -9.82845 17
233 1 -10.2963 -7.94558 6.95017 12
234 1 15.1491 10.6416 -4.85428 14
235 1 -8.55661 6.15199 6.98748 15
236 1 -4.92962 14.9446 -7.51749 19
237 1 9.47089 2.96407 7.63099 18
238 1 -3.10212 0.621423 -22.1274 10
239 1 -3.16331 17.2463 -12.685 11
240 1 2.29765 6.90343 -12.2562 23
241 1 -7.21198 -8.35734 3.43283 21
242 1 -9.69242 10.067 1.62216 22
243 1 -6.6209 15.909 2.17661 16
244 1 3.76719 -7.80139 -6.54782 20
245 1 -7.33348 -8.19312 -6.87165 22
246 1 12.7453 -0.515448 -11.4093 23
247 1 3.98429 -2.87612 -0.559303 22
248 1 10.5765 8.28885 11.6555 17
249 1 5.7028 15.4818 -12.9567 20
250 1 -0.39611 13.0043 -6.72011 19
251 1 -8.79339 9.7359 -1.36722 24
252 1 -15.3275 10.4564 -4.86158 12
253 1 1.24196 5.75852 6.84521 24
254 1 5.74113 -10.9912 -0.481896 17
255 1 14.0981 4.47286 -4.03376 18
256 1 1.47126 9.62801 2.58837 19
257 1 -11.7697 12.3038 0.893457 23
258 1 -11.3114 -0.26373 -5.59411 18
259 1 7.64767 7.83916 -13.3642 21
260 1 4.62721 -2.94736 9.5929 13
261 1 0.131326 16.3139 -17.1369 10
262 1 6.70206 -7.16933 -4.86122 19
263 1 -5.33379 3.94166 -12.7473 20
264 1 1.99377 -11.462 -1.2323 19
265 1 15.6602 3.54558 -12.4523 13
266 1 -11.1332 -1.7968 0.924073 21
267 1 4.3992 -11.5297 -6.39264 14
268 1 -9.51176 2.49651 -12.3395 17
269 1 5.50252 12.8617 -5.61503 19
270 1 4.78567 -0.644628 -15.0486 19
271 1 8.62143 5.64085 12.2402 17
272 1 16.6491 5.12806 -2.30733 14
273 1 -1.99357 -2.56813 -0.597917 22
274 1 12.2102 2.72799 -16.3972 15
275 1 -1.13834 -5.55349 -1.37341 21
276 1 -9.66365 -0.976962 -15.2988 15
277 1 -11.8256 5.54094 -13.5987 15
278 1 -1.58716 -9.86393 2.44709 20
279 1 14.0317 0.273726 6.05816 11
280 1 5.40138 -3.37345 6.3763 17
281 1 -6.59151 -5.39046 -16.5277 11
282 1 0.344185 -2.10746 4.55257 23
283 1 2.3326 8.1045 -17.4536 19
284 1 10.5159 12.5182 -6.16784 16
285 1 -5.13401 -2.41748 -0.39107 21
286 1 2.44225 16.535 -0.0555069 23
287 1 -8.20294 5.23919 4.19025 18
288 1 -8.50821 -5.57058 -11.9759 20
289 1 -7.00878 -2.39862 -17.6903 16
290 1 -2.24634 9.7976 -20.9459 11
291 1 -5.3812 -4.36243 -11.9892 17
292 1 -6.95456 -4.76444 -1.97003 19
293 1 5.56055 -2.25804 -20.1965 12
294 1 10.6258 4.8307 -16.4099 17
295 1 13.0198 2.71306 1.49428 22
296 1 0.565944 -2.79547 -6.01906 22
297 1 -10.807 0.827618 3.24265 21
298 1 -4.84959 -5.69565 -6.09116 23
299 1 12.1416 8.33513 8.03838 20
300 1 -4.82638 -14.8306 0.182262 13
301 1 -2.69011 -12.9565 -2.58944 16
302 1 -3.61127 17.9293 -6.84504 18
303 1 9.37168 2.92333 -18.3096 15
304 1 -7.71652 0.828072 -19.501 13
305 1 5.72758 -4.13135 -3.70944 23
306 1 -11.0355 -4.99077 9.10827 10
307 1 6.01399 9.51157 14.3142 11
308 1 7.74133 -8.49371 -1.67698 19
309 1 -3.83084 -7.42036 -15.8312 14
310 1 -4.58315 6.7047 -11.4037 22
311 1 12.8596 4.73056 3.2933 22
312 1 -3.31415 6.1549 -14.336 22
313 1 -2.23524 13.0829 -17.5018 15
314 1 -3.99022 0.98136 4.73509 21
315 1 15.855 -2.25755 -10.5529 13
316 1 -5.81381 19.1199 -3.87553 13
317 1 1.38908 14.9875 4.30151 20
318 1 11.1203 4.98639 0.799108 23
319 1 -10.7058 6.44781 -1.14331 18
320 1 -2.13868 -8.23932 9.97359 9
321 1 -8.36916 6.54662 0.840076 22
322 1 -0.239266 -3.95143 -13.6117 20
323 1 13.9041 7.37492 -10.4275 16
324 1 5.40896 -5.88313 -1.29159 18
325 1 -3.65999 2.16461 12.9947 13
326 1 -11.7963 -1.64301 4.88568 22
327 1 -0.10354 -11.7406 -9.97844 13
328 1 -4.57502 5.02874 15.3843 9
329 1 -7.61085 9.06757 9.27985 16
330 1 -12.8149 1.46664 6.22315 19
331 1 -14.1824 -3.94111 5.12318 10
332 1 12.7343 -0.646264 -6.19866 23
333 1 -11.4101 -4.80331 6.2279 17
334 1 5.00638 0.364703 -12.0886 20
335 1 14.3739 -2.31054 -12.9608 16
336 1 1.77476 21.0998 -7.10072 14
337 1 -2.20213 -0.594335 1.93285 25
338 1 -8.3265 16.7746 -3.82296 16
339 1 4.8067 3.36099 4.56379 25
340 1 8.24261 12.0944 9.94437 18
341 1 -8.98318 1.50454 0.746505 17
342 1 11.2715 -6.48413 -4.78165 15
343 1 -1.74538 11.7415 1.03694 20
344 1 -12.3032 9.29735 3.76408 17
345 1 3.04413 -12.8245 4.69501 8
346 1 14.8123 -0.0701336 -0.117163 18
347 1 -2.76375 13.5948 3.57933 20
348 1 -4.49014 -1.11465 -10.9427 18
349 1 -2.80129 5.30803 12.4554 19
350 1 0.614163 20.493 0.974449 17
351 1 11.3289 13.544 10.6267 10
352 1 -7.7781 15.3345 -9.64057 14
353 1 -2.508 3.4549 -22.1365 11
354 1 -4.18299 5.81896 -6.54479 23
355 1 7.1513 -6.38106 -16.8406 14
356 1 -11.6717 10.3947 6.43506 12
357 1 -14.6219 7.17479 -0.11508 14
358 1 -2.57114 1.40977 -11.4306 19
359 1 -6.61734 11.6727 -2.74078 20
360 1 9.71079 -0.359954 3.75772 20
361 1 -12.4299 -9.90031 1.32872 9
362 1 6.07231 -3.8963 1.38935 19
363 1 -8.1019 -6.78353 8.93141 13
364 1 -15.0087 13.3375 0.701522 10
365 1 -1.04522 -5.07963 9.79919 12
366 1 0.600172 -6.45754 -8.55104 23
367 1 -2.99532 4.31021 -11.3909 21
368 1 4.74568 0.262919 -18.5767 20
369 1 5.06485 18.5378 0.577986 17
370 1 -12.2414 4.16978 -6.99204 18
371 1 8.60595 -10.6136 -13.1291 8
372 1 6.96557 12.0563 -15.7791 15
373 1 -5.62148 -6.32532 -9.90319 22
374 1 -9.96872 -4.13188 -9.58301 17
375 1 -0.892854 -3.77125 -3.65462 19
376 1 11.0536 6.1753 13.3182 10
377 1 13.3369 7.86801 1.40925 23
378 1 -8.16408 9.23082 -14.7873 18
379 1 4.79413 22.2008 -2.6069 11
380 1 -13.7464 -1.42987 -8.59741 11
381 1 -6.10176 12.7049 3.43205 17
382 1 -5.71421 15.4656 -4.03422 16
383 1 -1.72136 5.50808 6.619 19
384 1 9.00152 13.2376 6.56299 23
385 1 7.41091 6.62937 -10.719 20
386 1 9.62211 -1.16972 9.42827 9
387 1 17.0454 1.93632 -6.7516 18
388 1 -5.48709 -13.0839 -4.60761 14
389 1 3.07037 6.36389 3.55519 20
390 1 0.68942 9.2639 -6.5052 18
391 1 3.76607 -6.79496 -3.655 23
392 1 -0.912519 15.0776 1.28096 23
393 1 -14.4735 2.1382 -8.53087 8
394 1 8.64288 -5.76718 -2.78348 20
395 1 11.1874 2.96373 4.20015 18
396 1 -4.10322 1.10133 -13.4964 17
397 1 -8.03706 -11.4416 -6.60722 12
398 1 -5.07906 -4.87149 9.40863 12
399 1 -3.14893 17.8848 -3.29621 20
400 1 -11.1544 -7.16598 -7.09111 13
401 1 8.34513 15.5038 9.76974 19
402 1 -6.86254 11.6845 -9.29464 19
403 1 0.690223 14.9641 -9.7902 21
404 1 4.58904 14.4885 4.63421 20
405 1 -12.5584 -6.89439 -3.66824 11
406 1 -4.63502 -8.25419 -7.80925 19
407 1 -11.6035 6.62209 2.08379 21
408 1 -10.8333 14.1065 -9.83189 13
409 1 2.16513 -3.6849 1.87959 20
410 1 0.975807 -12.052 -7.22574 14
411 1 8.1151 13.683 0.448431 17
412 1 1.31748 13.087 -17.5276 17
413 1 -5.67461 3.48536 -15.3766 23
414 1 -1.38243 11.7596 -9.23154 18
415 1 -5.37254 5.06869 -8.72092 21
416 1 -6.22467 -11.1146 3.86314 16
417 1 9.4603 8.17104 6.18571 20
418 1 -1.26978 18.2502 -15.0965 10
419 1 -2.28078 3.69386 3.80078 18
420 1 -10.1662 8.87146 -3.78961 18
421 1 -6.47813 7.13976 3.78039 21
422 1 0.243947 -8.65136 -2.09181 23
423 1 2.15029 -3.48654 -9.01244 24
424 1 6.82035 -6.59838 -10.7535 22
425 1 0.923443 -0.222081 7.02445 19
426 1 -14.6099 6.81701 2.84224 14
427 1 -10.5974 1.65345 8.64943 13
428 1 -10.3898 12.7752 4.06595 18
429 1 -4.43542 -5.55888 -0.274107 23
430 1 -9.87237 5.33173 -19.5096 10
431 1 9.88416 -7.80859 -12.6169 14
432 1 -2.58682 -7.0955 -8.86554 18
433 1 -2.16992 0.290992 7.48813 20
434 1 3.93633 -2.52245 -6.47555 22
435 1 -3.80175 6.60759 -22.1827 11
436 1 8.5462 -9.77796 -4.01603 14
437 1 4.82853 13.3248 -8.68018 20
438 1 -12.3422 15.1681 2.01269 12
439 1 -5.50259 0.86154 7.25166 18
440 1 -9.01475 -3.82047 -16.0016 12
441 1 -7.13719 -2.78863 1.56825 20
442 1 8.32017 -6.04909 6.16892 17
443 1 8.09662 4.83417 -4.5432 19
444 1 -3.50852 8.53256 1.27859 21
445 1 2.09912 0.62026 -12.1071 21
446 1 9.73936 -5.47928 0.246777 15
447 1 16.5874 5.28461 -6.79978 12
448 1 -0.893131 2.99865 13.3778 13
449 1 -0.422654 14.1148 -3.61826 19
450 1 7.23344 -2.63453 -1.62702 21
451 1 -3.8006 -11.2097 -10.1032 12
452 1 -3.57208 10.8085 13.6589 11
453 1 0.577998 17.5445 5.52542 18
454 1 -8.10724 -9.14788 -12.3735 9
455 1 4.90844 16.5695 -1.62875 18
456 1 4.98433 10.9934 6.66502 18
457 1 -7.07264 8.63429 6.62866 18
458 1 -10.0149 -1.02334 -8.54233 16
459 1 -12.1089 6.32059 5.14302 18
460 1 -8.19216 -0.202065 -10.4399 16
461 1 -1.06007 14.7473 6.32348 17
462 1 -1.68981 -5.92371 -6.23238 22
463 1 -4.22166 -4.61148 -18.3341 13
464 1 -4.16372 -11.9086 1.55023 21
465 1 -5.65785 3.34757 -1.204 18
466 1 7.74019 9.27138 4.26095 20
467 1 -3.64938 -1.98922 7.9063 16
468 1 -8.56979 4.56217 -14.8298 20
469 1 11.0685 9.37611 -2.5318 19
470 1 -9.85706 -9.62359 -5.11706 14
471 1 5.27297 6.01673 -13.3094 23
472 1 1.53924 22.2834 -2.2641 12
473 1 2.82836 8.88046 -9.63136 18
474 1 -3.25116 17.9397 8.48725 7
475 1 -13.4615 1.74702 -5.3428 11
476 1 2.39268 20.2052 -4.89208 17
477 1 8.47978 17.1767 -8.71499 12
478 1 -7.24745 -3.30393 -10.1136 19
479 1 2.99653 5.97319 10.2825 17
480 1 5.94122 -11.6218 -11.8308 10
481 1 -1.21374 -2.08006 -15.8732 17
482 1 11.7829 -8.81673 1.09008 12
483 1 -9.44043 13.356 -1.26184 20
484 1 3.40128 8.0563 8.16685 21
485 1 16.3403 6.82682 -4.6014 15
486 1 6.62895 14.1264 -2.04448 22
487 1 -4.28207 11.9496 -16.0901 18
488 1 5.57543 2.56437 -14.3298 20
489 1 -0.829421 -3.78861 2.25005 20
490 1 -13.5994 -3.98906 -2.79142 16
491 1 3.62974 20.6575 2.82484 15
492 1 -1.57603 7.21021 -17.0891 19
493 1 15.1763 12.8744 -2.38698 15
494 1 5.77182 17.6989 -14.7539 10
495 1 5.5151 2.54046 -9.38347 18
496 1 16.7579 -0.685003 -7.82956 14
497 1 2.63951 6.03566 -15.6208 18
498 1 2.06578 -5.8705 -0.712488 21
499 1 4.13474 -9.18845 5.29731 15
500 1 0.885268 -10.6986 5.98137 13
501 1 -7.81697 7.30042 -9.20775 18
502 1 -4.60991 -7.3213 5.32516 19
503 1 -1.58876 -9.81658 -11.882 14
504 1 10.6128 17.9195 -0.65884 11
505 1 0.0449883 8.69835 -19.2718 17
506 1 4.34537 -0.248044 6.47136 20
507 1 -13.5661 4.11885 6.45446 14
508 1 0.802002 -13.1115 -3.5236 12
509 1 -5.89933 -0.182678 1.73525 22
510 1 13.5198 1.04931 -13.76 18
511 1 12.4019 1.7432 -3.90695 20
512 1 -0.397153 11.8257 -14.1101 23
513 1 5.34541 -5.52663 -7.84717 23
514 1 3.01681 10.3695 -12.3986 18
515 1 10.1445 1.1479 -11.1207 22
516 1 -2.6426 0.233991 10.6509 18
517 1 5.26854 15.9713 -4.49225 19
518 1 -3.99142 -0.57898 -15.9517 15
519 1 1.30465 6.07459 -19.2527 14
520 1 -5.90904 -1.57776 4.07207 17
521 1 -4.82133 17.5809 -0.582715 19
522 1 -12.7228 2.49249 -13.8202 12
523 1 -14.3432 4.06163 0.807012 14
524 1 -1.05079 -8.44976 -18.0666 11
525 1 -7.95343 -6.00035 6.07512 20
526 1 7.38734 11.9266 -11.7287 15
527 1 14.4434 6.19377 8.44757 15
528 1 18.6906 10.4014 1.80121 9
529 1 -8.86685 -5.11631 -5.02643 20
530 1 0.398348 -6.75698 -3.87909 19
531 1 -5.16907 2.38523 -18.7495 20
532 1 -6.93618 13.3065 9.44356 14
533 1 4.61465 -5.9113 -13.2764 23
534 1 2.757 13.575 -5.08537 20
535 1 12.7325 -0.710196 -2.20223 22
536 1 4.11066 13.0503 -14.3659 23
537 1 12.7496 -6.40355 -1.75871 18
538 1 16.8535 7.67297 -9.78541 10
539 1 4.65057 10.2201 9.81459 21
540 1 -9.41677 7.7097 4.17314 17
541 1 7.68207 15.8909 7.02828 20
542 1 7.73907 3.84412 10.2087 18
543 1 2.70063 10.7963 -19.6613 12
544 1 -2.38422 -0.935453 -8.96488 20
545 1 -1.55925 3.27596 10.3004 22
546 1 8.07109 14.8705 3.40779 25
547 1 11.0055 11.3978 -9.90575 20
548 1 -12.41 11.9266 -11.9765 12
549 1 0.0338589 15.9546 -5.98458 20
550 1 11.093 0.943168 6.3434 20
551 1 11.044 8.18349 -17.8257 10
552 1 9.05518 0.283835 -7.71327 23
553 1 12.8784 16.9887 4.22409 12
554 1 -13.9317 -1.52685 -0.810298 17
555 1 -9.01945 13.457 -11.8633 13
556 1 -3.51441 3.01888 7.89 22
557 1 -11.9393 4.39296 8.54894 15
558 1 1.02174 13.8412 -14.976 20
559 1 14.4852 -8.6639 -0.695376 9
560 1 7.44698 3.27312 -11.9948 19
561 1 -6.77623 17.0104 -6.634 16
562 1 -5.02547 -0.836478 -19.039 15
563 1 8.51831 -9.4156 1.75406 17
564 1 -12.1444 -4.66365 -5.96247 15
565 1 -1.21897 14.247 -11.5848 21
566 1 -9.52401 9.01362 -6.9835 18
567 1 3.00473 10.5975 12.7897 16
568 1 -12.3596 -4.76241 2.65351 19
569 1 10.0382 12.6381 -1.53691 20
570 1 4.94767 -3.92416 -10.1711 20
571 1 3.06803 -9.46591 8.49897 10
572 1 12.031 8.6645 -8.66465 21
573 1 -13.7356 8.57546 -3.29545 16
574 1 4.60505 8.1548 11.9807 16
575 1 5.37647 21.8211 -5.73281 11
576 1 14.4676 0.774617 -8.58404 18
577 1 5.92935 13.3104 7.9522 18
578 1 -1.74692 6.8055 -20.0335 14
579 1 -5.31833 -8.28064 8.71691 13
580 1 0.0132975 3.02305 -12.1531 22
581 1 7.56222 1.20225 -16.5798 21
582 1 3.66612 17.3832 3.49152 17
583 1 11.3525 8.68273 -11.7465 21
584 1 -2.68209 3.99564 -16.7648 19
585 1 -5.38396 -0.982272 -8.59667 21
586 1 -10.6488 1.95974 -19.4623 9
587 1 15.4288 7.76974 -1.50941 18
588 1 17.7975 8.85651 -6.70153 12
589 1 10.9483 -4.03596 -13.5597 16
590 1 12.2833 12.69 7.18293 18
591 1 10.2595 -2.70864 -6.92579 20
592 1 4.86519 6.53885 -19.242 13
593 1 3.11025 14.1719 -2.16634 22
594 1 -5.10316 5.81729 0.188744 18
595 1 11.0115 15.6094 8.07076 13
596 1 13.5475 9.89452 -0.543943 20
597 1 18.5101 -0.0799836 -0.249244 9
598 1 9.44059 3.62171 -9.27629 17
599 1 7.74488 0.69417 6.37567 18
600 1 11.7175 7.20209 4.56956 18
601 1 -0.649009 0.894264 4.56947 22
602 1 13.2965 7.76135 -3.69513 16
603 1 7.78454 2.61306 -1.75274 18
604 1 2.68195 2.39718 12.6715 13
605 1 15.8745 0.660999 -11.1466 17
606 1 11.8197 5.29828 6.04055 18
607 1 -7.66954 2.93311 -8.47849 18
608 1 15.6744 10.1433 2.37105 19
609 1 10.5603 -0.98184 -4.66854 21
610 1 2.43502 -3.7015 -3.36955 23
611 1 -9.24831 11.4476 7.70269 17
612 1 9.83973 17.6509 5.52296 17
613 1 9.31958 6.32735 3.29115 19
614 1 5.33951 15.5879 1.35367 19
615 1 2.72809 16.682 10.2253 12
616 1 3.05409 8.00794 0.463008 22
617 1 -2.54203 -13.8005 -0.029968 15
618 1 -4.01194 11.8608 -8.32252 18
619 1 15.7566 10.1954 -8.17894 12
620 1 6.1604 -4.2951 -15.3796 20
621 1 -3.54725 20.2561 1.05746 14
622 1 -3.30422 -8.68103 -5.51851 20
623 1 10.5357 -5.70367 -17.0181 9
624 1 -12.7182 3.51543 3.18036 21
625 1 -2.29997 9.1625 -13.1487 22
626 1 -1.01043 -11.2201 -0.695813 20
627 1 -6.93916 0.829529 -16.5871 19
628 1 -12.0756 7.53107 -9.36441 17
629 1 14.8988 -4.34847 3.32849 11
630 1 8.68981 11.0151 0.263734 16
631 1 -1.31148 -8.36623 4.67505 18
632 1 -13.6137 4.49836 -11.3666 9
633 1 0.802679 4.43411 -16.8746 19
634 1 6.0648 0.51595 4.51548 21
635 1 -6.27805 8.93158 12.1828 12
636 1 5.37273 9.79129 -17.9637 13
637 1 12.9084 -0.684932 8.73998 9
638 1 12.1815 12.3033 -13.3291 12
639 1 12.4204 15.3634 -1.07858 20
640 1 6.90463 -8.43916 -7.57207 20
641 1 -7.87776 -3.99796 10.0129 10
642 1 13.0216 0.336558 3.23889 17
643 1 -0.372339 18.6384 9.30375 10
644 1 9.40419 14.1107 -14.8382 12
645 1 -10.8935 11.5504 -2.51336 21
646 1 12.5324 12.218 -3.46178 17
647 1 -8.37394 -8.45107 -2.80686 18
648 1 15.3337 1.2297 -4.3974 20
649 1 5.92137 21.6949 0.488239 11
650 1 -3.55565 12.2611 5.96227 21
651 1 -10.8832 -3.26015 -3.5932 20
652 1 -12.64 -1.05643 -14.0254 10
653 1 8.80974 6.48806 9.07979 18
654 1 0.394773 -6.28642 6.95915 17
655 1 7.51955 8.50763 10.7441 20
656 1 -6.37809 12.8497 -6.56087 17
657 1 10.4498 7.5705 0.193318 19
658 1 7.08658 -1.02118 -4.67224 21
659 1 6.20673 7.91463 1.2092 21
660 1 5.3104 7.45618 -15.793 20
661 1 -12.8349 7.19721 7.87312 10
662 1 12.8437 4.18361 -13.255 19
663 1 -0.935105 -3.95573 -8.9865 20
664 1 6.28354 -8.28054 -14.0485 14
665 1 9.26375 12.0043 3.36723 21
666 1 5.41741 10.6138 -0.0996535 15
667 1 -10.4197 3.43619 5.64458 19
668 1 6.48796 12.3852 4.496 19
669 1 -0.0428756 -1.66907 9.91742 16
670 1 -1.13383 9.25647 9.13397 14
671 1 1.75401 -0.586422 -15.5056 19
672 1 -9.16632 4.35581 10.9835 12
673 1 6.19778 7.82633 7.17229 23
674 1 -8.4877 -10.1014 0.0926124 16
675 1 13.0557 11.5288 -7.40245 14
676 1 12.7526 -10.0727 -6.506 5
677 1 -2.46898 4.84708 -9.18378 23
678 1 8.63769 11.2584 -4.01515 17
679 1 8.02706 16.535 0.401155 20
680 1 2.98869 3.50808 -19.5255 15
681 1 1.34766 3.55517 4.34245 24
682 1 -0.789145 20.5579 -4.33565 15
683 1 15.4918 15.6526 -1.38201 12
684 1 -5.99717 -2.72104 -5.77147 24
685 1 0.186048 2.35486 -19.7999 17
686 1 -11.0604 15.1402 -4.58075 14
687 1 4.27096 -5.03521 -17.9195 18
688 1 4.78772 8.3687 -1.76888 20
689 1 13.6879 8.99139 -13.8909 14
690 1 11.1146 14.9041 -3.93443 13
691 1 -0.345654 8.11879 1.06298 22
692 1 -5.01218 10.2468 -5.7507 17
693 1 4.30652 9.94443 -7.35691 19
694 1 14.2512 9.96805 9.17164 11
695 1 10.5632 3.29015 11.2299 10
696 1 -1.63128 -10.8285 8.36922 9
697 1 -4.72698 9.04911 -14.7279 20
698 1 5.88345 18.8051 8.03257 14
699 1 7.34758 -5.33974 -19.5265 8
700 1 6.10628 6.39954 4.00574 23
701 1 6.31586 15.7268 -7.22605 18
702 1 13.8181 17.5102 0.759934 10
703 1 15.5717 -2.37474 -5.04509 12
704 1 9.44283 8.77027 14.5446 9
705 1 -12.3894 1.04889 0.503581 20
706 1 -2.07825 -12.3522 -5.87456 13
707 1 -0.860788 -0.180892 -13.4879 19
708 1 -5.85297 20.4361 -1.56516 9
709 1 1.3665 10.7784 7.53383 20
710 1 6.57355 -1.91101 -17.1734 20
711 1 1.85286 11.0381 -0.128243 21
712 1 -11.1338 -0.727778 -2.13644 16
713 1 -0.362259 6.56325 9.78736 22
714 1 -4.5819 6.18769 -16.9997 20
715 1 -7.40257 12.5904 -15.4204 12
716 1 3.45923 -8.5937 -1.01772 19
717 1 5.76204 10.1031 -13.5419 19
718 1 4.5318 -0.704102 1.89953 22
719 1 0.35371 13.8875 -0.648164 21
720 1 -11.1446 9.21423 9.60885 13
721 1 8.01688 0.0587018 -19.3427 14
722 1 0.779612 -11.9207 2.50293 17
723 1 2.56227 16.8442 -4.19925 18
724 1 1.60222 9.75321 10.3602 17
725 1 -9.39751 -6.59399 -14.3792 11
726 1 -1.18554 -8.45105 -14.7472 16
727 1 -4.30179 -9.7175 -13.1747 13
728 1 0.676569 20.7598 -10.2326 8
729 1 8.64553 -3.20002 -15.2498 24
730 1 -7.78951 17.8589 -0.570545 13
731 1 2.52898 -4.11265 -15.7422 22
732 1 14.3286 -7.66084 -4.06174 9
733 1 3.46785 -2.56659 4.07359 21
734 1 18.0215 2.95468 -9.47925 8
735 1 5.32462 -9.79295 -3.89892 22
736 1 -10.2056 3.51532 2.11349 19
737 1 3.26894 3.43829 -11.6796 22
738 1 -5.2721 -12.4634 -1.28443 15
739 1 -7.03296 -9.64451 -9.64763 14
740 1 -3.16037 6.53975 3.82987 20
741 1 -7.77305 -11.5632 -3.08059 13
742 1 17.5773 3.43169 -4.23379 15
743 1 -7.11302 14.8455 -1.15789 21
744 1 -1.70788 9.74669 3.7323 19
745 1 -13.573 12.1725 4.06795 14
746 1 11.3952 -0.517478 0.994426 20
747 1 -12.0014 0.801142 -16.5264 11
748 1 4.15183 15.9856 -10.1569 22
749 1 11.0797 2.275 -7.39945 21
750 1 8.86876 18.2037 8.36888 12
751 1 17.1674 9.9008 -0.34313 16
752 1 -11.8001 8.97995 -14.2273 12
753 1 -11.3025 -3.85358 -12.2342 13
754 1 0.94943 5.57198 12.7318 15
755 1 1.53744 12.5378 -11.5163 19
756 1 11.0115 16.2588 1.84212 18
757 1 -0.0755872 2.52778 7.68447 21
758 1 -6.14289 -9.94004 -4.8499 20
759 1 -4.45979 -13.0664 4.23667 11
760 1 -2.43066 -2.01401 4.87662 22
761 1 14.4614 10.7391 6.23257 14
762 1 1.89019 -4.99775 -12.1208 21
763 1 -4.36995 10.3243 -11.2943 22
764 1 5.60238 12.8247 1.46303 18
765 1 -3.92496 -3.44471 2.3356 22
766 1 11.4449 11.6373 -16.1298 9
767 1 3.30319 -11.5221 -10.2885 16
768 1 -1.78806 -10.2624 -7.86372 19
769 1 2.25592 -10.2268 -4.52631 20
770 1 8.39708 9.75108 -16.6682 17
771 1 7.63842 21.4356 -2.86205 9
772 1 -2.27497 1.19386 -19.0645 19
773 1 0.412434 1.0846 11.29 15
774 1 -0.598916 11.8881 -19.7372 12
775 1 -11.051 3.67351 -16.485 15
776 1 -7.93028 0.0602139 -6.11408 21
777 1 4.3087 18.9977 -6.51532 18
778 1 9.23945 1.69804 -4.1875 22
779 1 0.0340915 -0.796219 -19.0785 20
780 1 -4.11638 -3.75928 -3.28527 24
781 1 9.56769 9.58367 -6.92454 21
782 1 12.584 -3.71084 -10.3813 16
783 1 -3.42312 9.015 6.98402 17
784 1 10.5939 -2.8863 1.95504 18
785 1 13.94 -2.92015 -7.48143 14
786 1 16.7614 2.29025 0.90667 14
787 1 -1.65756 16.5567 3.50807 19
788 1 -11.6166 6.40873 11.1334 9
789 1 -6.43048 11.8272 6.48742 20
790 1 -1.85981 -13.9642 2.59508 12
791 1 10.7822 2.92951 -1.37234 19
792 1 8.25518 14.4845 12.4745 10
793 1 -13.6651 5.05157 -2.94646 14
794 1 7.92673 -5.52529 -12.7376 20
795 1 -15.5964 12.7879 -6.79407 10
796 1 3.50279 11.0586 -3.0543 18
797 1 3.7942 -6.76561 2.01449 21
798 1 4.51875 5.37258 7.10698 22
799 1 -1.93412 19.7804 3.49189 18
800 1 6.84363 -6.79752 1.02223 18
801 1 -9.60316 2.63469 -5.73703 21
802 1 1.40568 3.94817 9.65448 19
803 1 -13.744 -2.34763 -5.30163 13
804 1 5.45359 12.0724 12.2567 13
805 1 -0.0340006 17.7705 -3.2385 19
806 1 -10.5411 -7.7459 1.1322 18
807 1 -2.55746 -8.25411 -0.361596 20
808 1 10.3459 -4.56787 8.71315 11
809 1 12.3977 -2.58388 4.07512 22
810 1 10.3136 10.3806 9.03721 20
811 1 -2.37493 8.99712 -6.87186 21
812 1 5.25878 -9.1553 -10.0782 19
813 1 4.96576 4.47424 -16.7034 22
814 1 -4.63968 6.17044 6.83918 19
815 1 -1.01005 21.7807 -0.674332 11
816 1 14.3688 2.57909 -1.98001 17
817 1 7.33228 14.909 -9.88217 18
818 1 0.39242 13.8717 11.3784 13
819 1 11.2046 10.5934 5.31595 22
820 1 2.59796 0.0582005 -20.9083 12
821 1 -6.46174 -6.81168 -4.0389 20
822 1 -4.21504 0.175198 -6.16162 24
823 1 14.8292 4.84535 0.455606 19
824 1 -0.34357 5.8242 -14.1577 19
825 1 2.74509 12.4394 9.85087 18
826 1 12.3218 -5.55963 -8.03628 12
827 1 8.00186 6.28265 -17.6828 19
828 1 2.44669 -5.23033 -6.08742 21
829 1 10.2416 7.90304 -15.0283 19
830 1 19.4874 3.39326 -0.806392 6
831 1 2.07124 -5.41798 4.61472 19
832 1 -2.99195 -6.48759 -12.3766 20
833 1 7.09136 20.3384 -8.15415 9
834 1 5.73576 -5.59602 4.17401 19
835 1 -14.4934 10.7034 -1.36853 17
836 1 12.2276 5.7897 -7.66421 15
837 1 16.4576 7.17717 1.70014 15
838 1 1.40496 -6.71561 -17.9704 15
839 1 -4.83909 18.3263 2.89776 12
840 1 14.025 13.6559 4.25734 16
841 1 10.1631 14.3564 -8.3198 14
842 1 6.18922 3.16853 -18.3629 17
843 1 8.58385 -3.77221 -4.71385 20
844 1 -10.0704 5.6317 -7.17885 16
845 1 10.2571 8.88659 2.49078 20
846 1 -13.3879 -6.82597 -0.520358 15
847 1 -9.90447 11.5856 -13.6825 12
848 1 8.26373 10.3777 7.48307 19
849 1 -13.6738 0.900457 -10.9401 12
850 1 -13.8688 10.0386 1.71964 15
851 1 0.447215 7.44587 -8.77365 20
852 1 13.7371 -0.73899 -15.8848 12
853 1 -8.65692 -7.50423 -9.15027 15
854 1 14.2245 -3.71325 -1.7784 15
855 1 -15.1334 9.47471 -8.05992 10
856 1 -10.4284 1.8028 -8.58736 20
857 1 10.9284 14.7361 4.76439 19
858 1 -9.68002 -2.21526 7.96283 14
859 1 5.84182 6.21544 9.77864 21
860 1 16.6421 -1.31005 2.40021 9
861 1 9.53285 1.8667 1.53594 21
862 1 -11.9034 9.03225 -0.374532 19
863 1 3.57358 16.4615 6.90105 20
864 1 4.28986 12.3956 -11.4705 19
865 1 -1.26977 -5.48333 -19.6811 12
866 1 -3.87307 21.8863 4.40755 6
867 1 -8.21964 -3.90771 4.54665 16
868 1 7.74731 19.1999 -5.64398 11
869 1 0.877844 15.2701 8.82606 17
870 1 20.1525 0.701871 -7.3185 6
871 1 3.56183 -6.3064 8.31876 13
872 1 -2.53486 9.67868 -16.41 17
873 1 1.9075 17.2649 -14.9339 14