ITEM: TIMESTEP
6000
ITEM: NUMBER OF ATOMS
2000
ITEM: BOX BOUNDS pp pp pp
-30.0 30.0
-30.0 30.0
-30.0 30.0
ITEM: ATOMS id type x y z Coordination
1 1 -2.83185 3.08226 -14.1247 15
2 1 -6.12655 -10.6971 -8.76573 18
3 1 6.26656 8.51707 22.4091 8
4 1 7.24873 -13.3436 8.81195 10
5 1 -6.34271 7.51282 5.54593 18
6 1 9.59114 -8.42654 -5.06736 19
7 1 -9.60385 3.64395 -4.34507 17
8 1 3.12198 -6.58815 14.7248 16
9 1 -6.97666 -1.12016 -12.268 21
10 1 -10.1368 -9.42831 5.31671 18
11 1 12.7835 -2.22784 -14.3009 9
12 1 -6.13615 -11.2519 2.49763 19
13 1 -12.6031 -8.89449 6.37072 12
14 1 4.91635 3.12843 21.7242 15
15 1 6.34992 -4.16019 12.1953 15
16 1 1.82231 1.94517 9.38465 22
17 1 7.36767 -3.97604 6.77405 16
18 1 -2.51644 9.32176 -6.9844 19
19 1 4.47121 6.09953 14.3079 19
20 1 -6.87524 -2.36231 -14.6325 13
21 1 -8.53699 -4.43338 14.4319 15
22 1 11.7245 3.95909 9.94593 18
23 1 2.98641 4.80852 -11.7208 20
24 1 3.13038 7.35465 -13.3832 13
25 1 13.0724 -0.682989 12.2679 17
26 1 -6.98773 -0.32635 3.52728 20
27 1 -6.05879 9.83222 -10.7173 15
28 1 -0.845753 -1.92539 -7.40951 23
29 1 -12.4495 10.4293 12.3584 11
30 1 7.96304 -10.8748 10.4947 11
31 1 -0.075919 -0.669393 9.27936 24
32 1 6.09962 -15.7541 -5.68688 15
33 1 6.53684 -8.5028 2.31066 16
34 1 -2.76494 -12.4014 -3.99438 18
35 1 -9.47896 -7.05759 10.8445 13
36 1 9.07134 -9.75498 -14.0377 10
37 1 8.73184 -9.92046 -8.22947 17
38 1 0.552779 4.16895 -13.8848 14
39 1 2.53088 3.19015 15.1523 15
40 1 2.35462 -11.5009 8.42238 16
41 1 4.1568 -4.21733 17.6139 12
42 1 -9.81795 5.53312 3.44756 19
43 1 -14.1488 -0.478336 10.2604 13
44 1 -6.57744 1.84521 0.89722 21
45 1 -0.878135 18.7706 -3.1301 9
46 1 1.16516 -13.3794 -8.70879 18
47 1 3.8724 0.700748 -7.17799 22
48 1 7.8605 -1.69751 -9.34798 19
49 1 -0.159359 -5.02277 15.2763 19
50 1 -11.3776 8.89114 -0.780905 18
51 1 6.99699 6.83902 -7.47623 18
52 1 3.5514 13.3181 11.9823 16
53 1 -8.32596 11.1071 -7.50536 11
54 1 0.958694 16.4952 2.47335 17
55 1 4.70966 -9.83669 4.2234 18
56 1 7.68956 -5.11241 -1.96485 16
57 1 7.82569 -7.39543 -15.4036 13
58 1 -6.90625 8.19506 15.849 12
59 1 -11.3755 -4.83699 -6.72482 12
60 1 7.01735 1.84854 6.62096 21
61 1 -8.11927 11.0625 1.87449 19
62 1 -8.55002 -11.6599 4.55133 19
63 1 -1.6705 11.6577 14.9292 14
64 1 -8.66745 11.4193 -4.86932 15
65 1 1.68156 8.98506 16.2544 19
66 1 3.98358 2.24426 -4.13102 23
67 1 -3.46256 -11.7203 8.12674 20
68 1 3.96303 4.67054 9.42273 19
69 1 9.72019 -12.6459 -2.96629 14
70 1 7.57663 7.68153 19.0028 14
71 1 -9.77943 1.35289 -7.06124 16
72 1 -6.59441 13.4793 -10.0578 9
73 1 4.15943 10.8775 10.576 20
74 1 13.4836 -5.90063 -14.4368 8
75 1 6.59298 -14.922 2.2726 18
76 1 -14.8719 2.41008 4.27603 10
77 1 -6.60035 -3.68489 0.348134 20
78 1 4.84871 15.207 6.95958 12
79 1 1.46226 0.708918 16.0511 19
80 1 -7.36906 -14.6948 3.66202 17
81 1 -7.86371 -1.3405 6.176 17
82 1 11.3598 1.507 13.0943 18
83 1 7.2747 0.26088 -1.61075 20
84 1 0.315583 12.3231 9.49197 24
85 1 3.20193 -0.631495 9.44051 22
86 1 -6.23631 -4.55398 6.24317 21
87 1 -1.50175 -4.96831 -8.48702 17
88 1 -11.9234 12.2767 9.25165 10
89 1 -3.1885 13.6987 0.509689 19
90 1 -2.09721 6.74322 -5.60306 20
91 1 9.0032 0.108286 -3.89488 21
92 1 10.6794 11.9605 -4.77855 16
93 1 8.77241 -5.56676 5.37589 16
94 1 7.67815 -9.98924 13.3498 10
95 1 -7.27958 18.2728 -5.16235 7
96 1 -7.71045 13.9303 5.13997 16
97 1 -8.09493 -3.04554 16.7444 12
98 1 -4.3635 9.92574 7.29728 21
99 1 -3.30904 -2.77722 15.4609 19
100 1 12.7454 -7.17974 -2.01181 16
101 1 -10.7081 -1.95683 3.38013 19
102 1 -10.0319 -15.0324 5.28155 8
103 1 13.483 -5.53477 -6.59598 15
104 1 8.26188 0.973445 -11.7513 14
105 1 -4.23752 -3.27503 -16.0122 13
106 1 0.0273806 10.8394 4.14584 19
107 1 -5.15561 8.56413 -5.67631 21
108 1 6.04985 9.84615 19.4354 13
109 1 -1.38096 17.2677 -0.0523001 17
110 1 -11.0967 11.7782 0.271808 17
111 1 1.8825 8.4062 4.86393 23
112 1 -2.11337 -7.81577 13.9109 21
113 1 13.9714 -3.42039 12.1829 11
114 1 0.874695 -4.93343 -6.67652 18
115 1 2.04215 -9.07087 -6.74194 16
116 1 -1.86238 1.6241 9.43136 18
117 1 6.70017 -2.24452 18.2919 13
118 1 -11.7419 -8.23237 2.9408 13
119 1 7.74961 -5.80891 2.02766 16
120 1 -7.47006 -7.1001 0.271771 21
121 1 10.5324 -7.63983 6.30196 20
122 1 -4.18735 8.62768 4.20134 17
123 1 7.26999 3.16982 -14.7702 13
124 1 5.60853 13.5463 -2.61966 17
125 1 -3.57702 -12.9527 13.821 10
126 1 -5.54787 -12.08 11.3043 14
127 1 6.17771 -9.13649 -9.6572 18
128 1 5.26424 5.24506 -4.34586 21
129 1 13.1802 -8.02163 4.65587 16
130 1 2.45381 -16.3215 7.38627 13
131 1 -9.48961 -12.0702 -1.67863 10
132 1 15.6165 4.81429 11.1288 11
133 1 15.5477 -0.627733 -4.68146 17
134 1 -13.7088 -3.86371 10.2067 12
135 1 8.44261 12.7174 11.3201 20
136 1 14.035 12.539 7.2864 11
137 1 0.657014 0.221881 19.6409 13
138 1 8.61705 5.162 1.01923 19
139 1 -1.5781 8.57192 13.105 20
140 1 -8.12544 15.9251 -3.31223 12
141 1 8.3317 -11.3121 -11.3549 13
142 1 8.26998 -13.1891 -6.7174 12
143 1 3.43432 9.86862 -8.02649 20
144 1 4.98062 -2.34025 15.5474 15
145 1 0.892763 -2.91037 -14.4345 15
146 1 -3.20592 5.84246 -1.17629 23
147 1 9.0667 -0.689375 1.86404 20
148 1 -9.57639 7.97692 -5.60059 16
149 1 -4.83902 17.3183 1.68362 18
150 1 11.1717 1.27922 -6.39377 18
151 1 10.543 -7.73356 2.82724 17
152 1 -3.97472 3.56365 -6.67356 20
153 1 -9.48108 11.4792 10.8586 17
154 1 13.9288 11.1844 -4.73742 10
155 1 5.38854 8.66907 -0.766673 22
156 1 -6.9577 16.7407 3.3347 13
157 1 8.91091 8.05273 4.00426 18
158 1 -3.22246 10.9468 -1.61564 20
159 1 3.88011 13.3611 -8.13028 15
160 1 3.76404 7.45276 -9.67866 20
161 1 -9.86385 -11.1291 1.42837 14
162 1 -8.79945 11.0049 -1.68739 19
163 1 -4.87657 -3.21662 -12.6093 23
164 1 5.51984 -9.20922 -15.0345 12
165 1 11.4618 11.77 12.3657 14
166 1 0.62908 15.1835 11.9781 13
167 1 -11.2074 1.31027 -3.83319 17
168 1 -8.62129 13.9261 2.36735 15
169 1 19.0176 -1.64144 0.772456 5
170 1 -9.37237 1.33928 -12.9783 10
171 1 6.9654 1.50726 17.1593 20
172 1 -1.13084 15.4097 9.34201 15
173 1 -5.79799 7.56226 10.0069 21
174 1 5.30686 -10.409 -12.2544 16
175 1 -7.08266 9.93986 12.7783 18
176 1 -1.47206 10.775 -4.23421 19
177 1 1.32525 -2.54202 17.3965 17
178 1 -12.8942 -0.413658 4.32509 17
179 1 3.01544 -9.88471 -9.62235 16
180 1 -4.31936 14.2997 -7.75792 12
181 1 -2.32095 -13.3352 5.34972 21
182 1 6.07638 -12.8528 -2.71633 16
183 1 0.0638872 8.62776 -8.59568 17
184 1 -12.0131 6.81971 11.5521 21
185 1 0.0753901 7.68373 1.90372 26
186 1 7.29579 11.0572 -1.25851 21
187 1 -1.81954 8.28896 15.9954 17
188 1 0.590075 -8.41333 8.22305 17
189 1 -4.84293 4.81311 1.13687 21
190 1 -1.34382 17.3999 6.87789 13
191 1 -3.90993 4.68837 9.65225 18
192 1 13.9084 1.17424 15.0172 10
193 1 -6.42465 12.2855 7.114 20
194 1 13.396 -2.71844 -5.59417 17
195 1 0.675163 10.8043 19.9225 11
196 1 -2.83707 0.463859 -7.09067 20
197 1 12.427 -10.2374 6.56507 8
198 1 -4.24717 -6.94564 5.77158 20
199 1 -15.223 2.507 8.10837 9
200 1 -2.44624 -8.493 7.99665 22
201 1 1.02689 3.26483 22.3581 10
202 1 -10.2814 1.46096 1.24605 20
203 1 1.85316 -11.9341 4.77021 22
204 1 5.89587 -6.3887 -3.71802 14
205 1 -1.55982 10.8413 7.86712 18
206 1 -6.66252 1.38923 6.67025 20
207 1 12.0634 13.402 15.3493 5
208 1 -6.35385 0.0900525 -1.76811 22
209 1 -4.00783 11.8856 -4.81666 21
210 1 -11.373 0.838824 -9.90115 13
211 1 -10.8047 -0.656656 9.73321 18
212 1 2.72085 -9.47199 6.50212 20
213 1 2.90968 -12.5859 13.0356 9
214 1 -10.5892 12.0706 3.46288 14
215 1 15.459 4.2485 5.84786 19
216 1 8.89863 3.15308 -1.11343 18
217 1 -5.04035 -8.77254 -11.4275 16
218 1 0.331102 3.96691 17.041 16
219 1 8.30403 -14.3036 -1.04849 19
220 1 -2.0916 5.72213 -8.84472 19
221 1 3.34939 -11.8065 -8.0755 20
222 1 7.53774 -1.21792 -14.4673 18
223 1 2.22601 9.32922 -11.0577 15
224 1 -6.50189 -6.22202 -6.75566 15
225 1 -0.481254 16.8599 -5.17106 12
226 1 -9.12691 -9.6244 11.8954 11
227 1 3.27304 17.0716 -4.30678 13
228 1 -6.24177 3.95435 17.4328 12
229 1 0.642428 19.1442 -0.0429557 10
230 1 9.1703 0.184097 11.3794 20
231 1 -0.444421 -10.2036 -8.90102 16
232 1 -3.66796 8.77581 -3.53053 22
233 1 2.14902 3.28256 -6.53233 22
234 1 -5.28628 -8.27864 9.18466 17
235 1 -9.82421 6.41396 14.4185 17
236 1 -7.17854 6.94287 12.4998 19
237 1 0.722524 -15.7244 -11.9625 6
238 1 -3.1008 -17.5439 1.13284 13
239 1 9.06753 -13.6825 2.57864 14
240 1 1.45208 -8.6236 -2.02217 20
241 1 12.6429 7.04167 16.1465 14
242 1 5.37813 9.5514 -5.98798 19
243 1 1.8041 10.3299 1.97428 22
244 1 -8.48188 2.54632 3.43048 19
245 1 -12.0621 12.2398 -2.63429 9
246 1 4.3387 7.93967 17.3621 21
247 1 9.29576 -15.9543 1.15119 15
248 1 13.5403 -1.09889 -0.135886 21
249 1 0.637672 4.75075 9.85421 17
250 1 -5.83826 10.756 9.99107 18
251 1 -10.1542 0.166704 -1.76348 24
252 1 6.23598 3.196 -11.779 17
253 1 1.47939 -1.10933 13.2084 17
254 1 12.3361 5.86194 -3.98837 17
255 1 -0.293142 -15.0164 -5.69404 21
256 1 4.38784 -2.19934 -9.46094 19
257 1 4.48405 -16.2018 4.95722 13
258 1 12.5159 0.585832 -3.72823 22
259 1 -8.81154 -8.63872 8.34027 19
260 1 3.77524 -13.8591 0.119461 20
261 1 -13.6061 -2.39959 -1.57339 12
262 1 3.62239 11.4473 -1.21865 23
263 1 3.3514 -7.54072 -13.2117 17
264 1 5.80411 3.62927 14.6274 20
265 1 17.949 5.14899 4.93688 11
266 1 -2.44061 -5.54219 -2.32727 21
267 1 11.1423 -3.94424 -8.47123 17
268 1 -1.32483 -7.0831 5.40583 23
269 1 -3.83052 -8.10757 -8.34547 18
270 1 -5.97748 0.954498 -6.87505 21
271 1 -3.49506 -13.9243 11.0102 12
272 1 11.7742 -2.28834 9.60074 23
273 1 4.8099 -3.36682 9.08097 16
274 1 -5.68978 -9.15148 -6.11067 21
275 1 1.79619 -6.50174 5.01839 21
276 1 1.36549 5.90861 -8.80747 20
277 1 5.36609 8.31941 5.03765 23
278 1 -8.42974 -6.53265 5.35352 19
279 1 3.45795 11.3284 4.74354 23
280 1 -5.79675 -1.63185 14.988 19
281 1 -9.9697 -4.1674 -9.92978 14
282 1 -2.04601 -7.88621 -10.206 21
283 1 -0.193063 8.25485 -13.0842 13
284 1 -4.87622 -12.0258 -5.83543 18
285 1 -1.24749 -9.17504 2.68635 20
286 1 9.8329 -1.59721 -12.7681 15
287 1 17.6177 0.403086 -2.87469 9
288 1 12.8536 2.70155 7.46833 17
289 1 -2.97935 -3.09904 -4.86942 18
290 1 -6.71743 -5.29601 11.3009 18
291 1 0.728555 -15.1729 4.18421 22
292 1 8.25623 2.26048 20.4042 14
293 1 -4.98509 -12.1437 5.16296 17
294 1 4.41716 -11.2958 1.59339 19
295 1 3.83945 16.6487 1.58644 17
296 1 7.25064 -4.65846 -14.5639 20
297 1 -3.66404 -8.84222 -13.8154 12
298 1 -7.41516 -7.40995 13.7965 15
299 1 4.73587 6.28854 23.3984 9
300 1 0.800792 -14.8955 -1.14007 19
301 1 -4.23451 -13.9544 -8.98256 11
302 1 -5.24084 10.7254 -8.12225 20
303 1 10.8145 6.15062 7.93336 19
304 1 -6.64402 2.34163 -11.4445 18
305 1 0.186305 6.07062 -6.38413 21
306 1 2.92532 -5.09589 11.9696 19
307 1 5.34575 -14.6043 -8.17673 14
308 1 -2.26606 15.1151 2.1577 21
309 1 0.404729 8.92794 10.4833 20
310 1 12.5248 -0.121897 6.50211 20
311 1 -10.4996 -0.198991 6.29833 18
312 1 2.15589 -9.25512 12.6918 14
313 1 -3.36306 12.5311 9.41809 22
314 1 8.87881 -6.70503 -8.81019 21
315 1 12.4229 10.3825 1.17611 16
316 1 9.0981 -9.67515 1.19953 16
317 1 -2.11527 -1.33785 18.3639 16
318 1 -10.781 -5.49565 12.6401 12
319 1 2.29805 -14.8615 -6.60931 15
320 1 -0.631216 11.2027 17.5293 14
321 1 -12.0693 5.37775 16.5785 7
322 1 -10.7403 -2.51036 15.1683 10
323 1 -7.7535 -5.7375 8.62766 18
324 1 15.7007 -6.33893 1.15979 12
325 1 -6.49171 -11.2038 8.10952 17
326 1 11.422 -7.86433 -14.128 13
327 1 9.90421 -11.252 -5.61549 13
328 1 3.58188 14.7839 -1.78518 19
329 1 -4.34473 16.5081 -0.94145 19
330 1 9.95412 9.58189 11.6614 18
331 1 -9.56249 -3.27956 6.01278 16
332 1 6.47461 -9.78628 -4.26284 19
333 1 -2.42275 12.6486 4.10988 20
334 1 -5.04472 4.39874 6.70963 19
335 1 5.52681 -9.93911 7.52756 21
336 1 15.7123 -4.21026 4.45059 13
337 1 -7.37704 4.15027 9.37207 23
338 1 -6.63622 -3.19371 -4.40203 19
339 1 1.729 6.45552 15.6401 16
340 1 -1.8762 13.2178 12.2102 19
341 1 10.2005 4.79169 18.6398 12
342 1 -4.6067 15.901 -4.79402 16
343 1 2.32105 -9.81721 -14.5184 16
344 1 -4.81986 -0.500325 -4.41612 23
345 1 6.52432 -11.2898 -7.82923 16
346 1 -4.17872 6.36584 17.4359 12
347 1 -14.5123 6.58992 9.44229 11
348 1 -4.46956 -2.26237 -7.22431 18
349 1 -6.38621 12.7356 0.381003 19
350 1 10.7206 -4.73319 7.89146 20
351 1 -9.44244 -14.5151 1.19841 8
352 1 8.27001 -6.50217 11.1504 17
353 1 -6.35425 -9.92318 12.7603 11
354 1 -12.8424 9.72898 1.83932 11
355 1 -1.36124 -4.4019 18.203 13
356 1 4.98834 -12.7487 -5.4964 20
357 1 -0.455197 -5.29853 -11.4891 17
358 1 6.35671 -6.58562 -12.298 21
359 1 1.71324 15.0321 7.44351 14
360 1 -8.55998 -0.762144 0.9722 23
361 1 6.96513 -7.38765 -6.65527 16
362 1 10.767 3.09449 -10.7116 13
363 1 -2.02292 -13.6504 -6.82348 18
364 1 -12.0245 -9.25914 -2.01152 11
365 1 -1.93911 -14.8037 2.41825 20
366 1 8.38042 6.27756 13.9335 18
367 1 14.1941 2.36187 1.59922 17
368 1 -7.38418 2.86727 -8.27693 15
369 1 0.972636 15.361 -0.439224 17
370 1 -10.8999 3.70501 -8.20666 14
371 1 -11.8337 8.77985 9.11722 18
372 1 -5.48126 11.797 3.68651 18
373 1 -9.13535 5.34158 11.658 20
374 1 14.9742 5.27441 14.3777 11
375 1 16.3598 -2.62269 -1.96276 16
376 1 8.19455 -4.86566 13.9623 18
377 1 11.0757 0.972007 -0.848481 23
378 1 -3.1841 -15.1362 -4.10021 16
379 1 -3.0699 7.38224 1.5869 22
380 1 3.37846 -11.8176 -1.58873 19
381 1 0.209908 7.0871 7.56302 19
382 1 -6.52869 2.87443 -4.10373 23
383 1 6.77383 -9.11698 -0.706319 16
384 1 11.5655 0.763708 10.0812 21
385 1 -8.15242 -2.65648 -1.87158 19
386 1 -4.67913 -8.49589 2.79872 19
387 1 -5.04823 -5.35611 14.3793 23
388 1 -0.185544 12.9763 2.16928 19
389 1 -8.41923 -9.3182 -2.38399 20
390 1 10.9468 8.85053 18.8501 7
391 1 -11.3634 10.5104 -6.07785 8
392 1 0.883545 11.8479 -6.13439 20
393 1 3.1847 12.8205 8.13242 20
394 1 -9.92902 -8.4824 0.0922681 18
395 1 -2.73731 -9.67901 -4.81841 21
396 1 -14.2464 4.40831 6.53748 14
397 1 -14.1819 9.96585 -1.42779 9
398 1 5.47996 -7.36034 9.95069 12
399 1 -6.11813 -9.76823 -0.331454 17
400 1 13.424 9.17223 13.078 15
401 1 8.57649 5.3364 -12.2875 15
402 1 -9.11316 3.82156 -10.7549 19
403 1 -2.27856 14.852 -5.58047 16
404 1 -7.67409 8.51818 -3.30905 17
405 1 0.710283 -13.5821 6.78229 21
406 1 14.1795 5.40858 8.20331 23
407 1 -0.620126 11.1973 -11.974 11
408 1 -4.29166 -2.52325 12.2947 19
409 1 -10.9208 3.84087 -1.86041 17
410 1 -9.68635 9.44131 13.6509 15
411 1 -4.74696 -14.2766 8.03444 17
412 1 4.18075 -3.4131 -4.17252 22
413 1 9.61665 -5.8021 -3.52188 18
414 1 -1.52495 -3.41961 8.57753 20
415 1 -11.2425 4.79696 6.33137 21
416 1 -9.39207 0.0100335 13.4327 18
417 1 -11.7781 10.4552 6.38778 12
418 1 1.50665 -3.73545 8.98739 18
419 1 -9.81894 4.06693 -13.6262 7
420 1 11.3262 -9.99561 -2.43259 14
421 1 0.531117 -9.1335 -11.3942 16
422 1 0.068771 -3.30442 11.925 22
423 1 3.95827 -9.58466 -3.83856 17
424 1 -4.56485 -0.308629 -14.9873 13
425 1 6.56809 -12.3824 0.828879 17
426 1 1.56845 10.7686 -3.14208 21
427 1 -10.8096 13.6697 6.15703 10
428 1 -4.8933 -3.49035 18.5863 12
429 1 -7.58803 -7.24296 -9.44576 18
430 1 -4.26059 -5.73389 8.72059 18
431 1 9.923 -8.09759 12.6904 11
432 1 12.8419 5.1826 6.09063 22
433 1 2.56327 -2.06722 -6.73386 20
434 1 9.1565 -10.8436 7.33462 14
435 1 14.5451 6.03197 -2.57163 16
436 1 -4.6745 0.612418 11.9735 21
437 1 5.3227 10.3735 1.98846 20
438 1 8.06797 -7.37156 7.54036 18
439 1 1.55282 -16.9006 -4.04866 14
440 1 3.14854 0.284545 21.3396 11
441 1 -1.80644 16.9735 13.2817 7
442 1 -8.1977 -11.7877 -7.00332 13
443 1 10.8576 10.809 4.17815 16
444 1 0.596994 11.4381 12.3779 19
445 1 -6.4474 5.34607 14.7915 19
446 1 -7.20109 -5.39825 -2.19182 20
447 1 -13.3723 -1.76976 7.38592 15
448 1 -7.50451 -7.82365 -4.48376 19
449 1 -7.82238 10.3966 4.88599 18
450 1 -3.78886 -10.6717 -1.81064 16
451 1 -4.09088 -11.6493 -11.7021 11
452 1 -3.17502 -11.714 2.13738 16
453 1 -2.32734 -5.58248 10.8099 18
454 1 6.66324 -0.402444 9.90054 22
455 1 -7.16944 -2.21982 12.6529 15
456 1 -8.22247 7.11563 -11.9211 14
457 1 11.9609 0.142578 2.38168 16
458 1 -1.91188 -13.0863 -0.325061 13
459 1 1.89502 4.99875 -4.08436 21
460 1 -1.55232 18.4043 3.17135 14
461 1 -1.6989 4.89628 -3.50288 22
462 1 0.762054 6.21937 12.8452 17
463 1 -11.8767 -1.5723 -3.82247 16
464 1 0.518694 14.0853 -3.41484 17
465 1 8.42929 9.57594 -6.32589 17
466 1 -8.40944 -10.0492 -10.2003 9
467 1 2.52906 2.50647 19.1514 20
468 1 -2.15652 -16.3418 -9.34759 10
469 1 -0.173808 -2.28904 -10.653 18
470 1 11.7693 -13.8381 2.46605 9
471 1 -11.6671 5.84928 1.15619 14
472 1 7.30201 4.79074 17.1529 17
473 1 9.00119 10.9041 1.21471 19
474 1 3.4077 7.62022 2.04834 24
475 1 -7.4528 7.90548 -8.51281 18
476 1 5.40551 -0.589379 -4.32769 25
477 1 3.94544 -8.95284 -0.252578 21
478 1 -13.472 1.32264 -1.75493 12
479 1 -4.01036 15.9364 7.5326 13
480 1 -4.46046 2.24344 -9.45003 22
481 1 10.4541 5.25405 3.17162 20
482 1 5.51715 15.4437 -5.79335 13
483 1 7.75884 -3.22459 0.375376 20
484 1 14.5024 1.17468 -1.20013 18
485 1 -0.867054 0.919222 -14.0178 15
486 1 2.16906 -8.88251 3.01116 22
487 1 -0.680724 -14.6269 12.6271 8
488 1 4.67707 -10.3178 10.8164 17
489 1 -5.00815 6.52569 -7.5713 18
490 1 -7.8231 -14.3411 7.2673 12
491 1 -1.82788 -13.9574 -11.1837 13
492 1 6.94626 13.3714 6.14995 16
493 1 4.01824 2.44801 -9.46827 17
494 1 3.89261 -0.660161 18.0466 19
495 1 -11.4919 -1.95883 12.0328 13
496 1 0.358178 -17.727 1.17251 14
497 1 -13.7518 -3.59213 4.72896 10
498 1 16.3199 -3.79902 -5.33128 11
499 1 12.8877 -1.75674 -2.72358 23
500 1 -5.33679 8.52273 -1.45045 19
501 1 2.14128 -11.8092 -11.7291 17
502 1 5.38568 3.67916 -6.93341 19
503 1 9.10053 -1.24327 -6.59334 20
504 1 -2.0878 1.0682 20.518 10
505 1 5.99766 15.6111 0.245977 12
506 1 -5.01526 -5.79801 -14.3571 12
507 1 5.46188 1.24918 -16.1682 12
508 1 -7.82462 0.781021 10.7669 16
509 1 -4.23612 18.1279 5.10992 12
510 1 -8.12536 -4.50308 -11.9237 15
511 1 -13.0055 4.76848 3.50272 15
512 1 3.77521 -4.71349 -14.2369 18
513 1 0.305117 -6.27202 12.9861 19
514 1 -0.317573 8.17359 -3.60672 20
515 1 16.933 -0.471645 7.99909 9
516 1 14.1562 7.6362 1.39237 16
517 1 -5.41022 -14.4689 1.07003 15
518 1 1.06989 -10.1605 0.0885987 20
519 1 -0.539088 -7.76058 -13.8064 18
520 1 -7.75737 9.20555 8.07733 17
521 1 6.26758 -5.43329 -9.43028 20
522 1 3.34788 5.83807 -1.26172 23
523 1 8.65441 -1.51606 5.60029 17
524 1 3.34183 13.3492 -4.58018 23
525 1 5.21289 -6.02468 0.36249 20
526 1 13.5221 3.53371 -5.23939 17
527 1 2.65858 11.4072 14.6711 16
528 1 -8.7309 2.98006 13.5652 21
529 1 9.25317 8.41528 8.8887 20
530 1 9.92481 -2.46842 16.4366 12
531 1 -1.26772 -1.30562 -16.0158 11
532 1 -3.71436 -5.94155 -5.74498 17
533 1 -1.60038 -1.01497 11.3766 18
534 1 7.6143 10.8508 9.23743 22
535 1 9.99509 6.82259 -6.17847 15
536 1 -6.75472 13.5767 -5.45907 15
537 1 -0.113606 11.1215 -0.169979 16
538 1 7.55449 -8.03108 15.3412 8
539 1 14.3007 4.94794 -10.7026 11
540 1 9.56864 -7.42492 -0.728124 20
541 1 15.187 8.76331 15.3819 9
542 1 -13.9837 -5.24758 7.6865 9
543 1 -3.91193 11.9438 -10.4096 15
544 1 0.252037 1.29564 12.4604 19
545 1 -11.4123 3.99605 13.7054 16
546 1 -3.99298 17.985 -3.77528 14
547 1 1.16777 -13.0999 1.57273 20
548 1 7.01546 0.415074 -6.85676 20
549 1 -3.07018 19.7548 -0.996946 10
550 1 -10.7679 -7.30884 -8.81167 10
551 1 5.37721 -15.9538 8.6242 9
552 1 -11.7805 -6.4928 0.326488 16
553 1 6.09522 11.9228 -7.2973 11
554 1 -7.75669 6.21998 -5.43986 17
555 1 2.97621 8.69735 21.5436 11
556 1 -4.51549 -7.13814 12.242 20
557 1 8.24226 5.59137 -3.7162 17
558 1 2.15837 -13.1517 -4.53932 17
559 1 5.82244 -5.04591 15.4821 15
560 1 7.26103 2.28967 -4.26022 20
561 1 -6.58148 7.37067 2.16513 20
562 1 11.3956 2.36445 19.1015 11
563 1 1.92087 15.3491 -6.15834 15
564 1 11.4461 -4.30019 -1.79666 21
565 1 4.76262 17.8543 11.9222 5
566 1 -1.57778 2.69977 -11.5465 19
567 1 -2.78202 -10.322 16.3325 8
568 1 0.31675 0.792243 -7.09353 24
569 1 4.69702 -2.23 -15.1127 18
570 1 2.67817 15.3596 9.59842 16
571 1 11.8666 3.61382 -8.17412 17
572 1 -1.67843 -3.03891 -13.3668 18
573 1 -5.29386 -8.18241 -2.78575 19
574 1 -6.51702 -3.66624 -9.38647 21
575 1 11.809 2.5437 4.38497 16
576 1 16.4793 7.72357 -0.0906039 9
577 1 7.91874 -3.98735 -7.07298 21
578 1 16.6318 10.1304 12.0991 10
579 1 4.7155 -9.58984 -6.3434 17
580 1 5.70199 8.18976 -12.5808 12
581 1 6.68303 11.3583 3.90374 19
582 1 -8.02544 4.49437 6.00281 19
583 1 9.81175 6.59734 16.8998 16
584 1 12.3091 8.09217 -0.855326 20
585 1 15.8405 1.17902 5.10923 14
586 1 14.1885 7.58855 -6.10586 12
587 1 7.83887 0.727205 14.4474 19
588 1 13.5512 2.67782 11.805 16
589 1 -0.668995 -1.89939 15.0071 19
590 1 12.8571 13.4001 -2.54842 10
591 1 4.6727 0.644376 14.953 15
592 1 10.9012 5.74746 -0.671148 19
593 1 8.38787 2.6923 9.36255 17
594 1 -8.51798 -2.54529 -6.70981 15
595 1 13.5171 4.69417 2.82247 17
596 1 9.09768 -3.04718 3.67211 15
597 1 -12.6646 8.10727 15.1569 11
598 1 8.59946 14.3515 14.3173 11
599 1 13.3921 4.16115 16.7564 11
600 1 6.41575 15.1685 12.4661 15
601 1 1.42174 13.0442 17.1021 11
602 1 5.0979 2.18269 9.04524 20
603 1 -0.859467 -16.1072 6.2043 15
604 1 -6.10444 11.0581 -2.53219 20
605 1 9.92522 8.36386 -8.94306 13
606 1 9.5517 -2.93622 -16.5321 9
607 1 2.72011 13.5191 1.81695 22
608 1 -0.856434 -8.06864 -7.15814 20
609 1 10.5379 -3.9723 -14.206 17
610 1 -12.6429 1.31214 7.63936 21
611 1 -2.68999 9.12583 -9.6331 20
612 1 -3.26785 -18.5253 6.43715 10
613 1 -5.30404 -0.865704 -9.76807 19
614 1 -8.07085 2.58405 -1.01413 21
615 1 11.1369 -7.57557 9.53427 15
616 1 13.6977 10.4303 4.58022 11
617 1 8.08583 -8.91535 4.80355 19
618 1 -8.302 0.0033718 -4.27417 23
619 1 2.00052 0.168403 -15.4517 16
620 1 5.67521 4.31221 19.3939 14
621 1 8.37221 8.55601 -11.6836 9
622 1 12.672 -1.72754 15.0694 12
623 1 10.471 3.23399 -4.06055 21
624 1 11.7128 13.8259 9.89423 10
625 1 4.25611 -14.9137 -2.74894 21
626 1 -10.5178 -0.596575 18.0733 6
627 1 14.9963 -1.64774 6.21937 17
628 1 1.80155 7.52445 19.0091 15
629 1 8.10695 11.4487 -4.08759 20
630 1 -6.64441 18.7148 -1.28932 12
631 1 11.103 10.3453 7.67488 23
632 1 -6.69822 -17.1323 1.60951 10
633 1 13.8731 -1.64129 3.2203 20
634 1 5.47724 14.5169 3.49891 16
635 1 -2.40183 2.92131 12.5264 18
636 1 -12.2362 -3.3126 1.9563 16
637 1 -4.64971 -5.73039 -9.9677 22
638 1 7.41653 -1.87522 14.1455 17
639 1 -1.25347 -7.94034 16.4087 11
640 1 9.50182 2.97533 15.5726 17
641 1 -3.58178 13.339 6.40314 18
642 1 7.14826 5.34015 8.4574 19
643 1 9.13626 4.3647 5.54234 18
644 1 2.00424 -0.0258613 -9.45045 22
645 1 -9.93866 -4.225 9.9018 15
646 1 8.50315 0.57781 -17.1239 7
647 1 -0.745866 -6.66276 -4.67437 17
648 1 11.1944 -8.09512 -7.70675 13
649 1 8.68445 3.46024 12.5981 18
650 1 4.9965 4.51278 6.46978 18
651 1 -3.6486 -6.20302 17.6158 13
652 1 7.10315 9.13912 11.876 19
653 1 6.05728 0.552507 20.0163 15
654 1 2.92087 3.57412 12.2277 19
655 1 3.17056 -5.1162 -10.8854 16
656 1 -4.15075 3.57639 14.8236 20
657 1 5.19418 9.55106 14.1318 19
658 1 -5.34432 -16.9303 9.07848 8
659 1 14.4941 7.32094 4.33719 17
660 1 12.4845 -8.43549 -5.19149 12
661 1 -3.30265 1.90631 -4.24154 23
662 1 8.89276 8.87791 -0.445497 19
663 1 10.6964 12.9726 6.51382 14
664 1 2.74239 -1.70289 -12.2344 19
665 1 -4.74939 2.0032 9.46171 19
666 1 4.35687 10.7821 -3.86948 22
667 1 10.7071 7.48821 1.57308 17
668 1 -4.59184 -6.75948 -0.155829 21
669 1 -1.53465 -5.20731 -15.7956 12
670 1 -8.88039 13.5323 -0.955842 16
671 1 11.7661 -5.71857 -11.3857 14
672 1 6.71959 5.25897 3.65271 22
673 1 15.3503 5.04044 -7.33464 11
674 1 5.70666 13.0745 0.701537 20
675 1 -3.5591 7.01681 7.00804 19
676 1 -6.4348 5.086 3.71805 18
677 1 8.42193 3.69229 -6.72478 19
678 1 12.4347 -0.69629 17.9564 8
679 1 10.2551 -1.73743 13.018 19
680 1 -0.927661 -8.40004 11.0846 19
681 1 -0.559762 5.99186 -11.1432 18
682 1 5.66311 13.8395 9.90943 20
683 1 9.67349 -7.99362 -11.2744 17
684 1 3.70447 1.02257 11.8802 18
685 1 6.83721 8.253 -3.09331 20
686 1 8.66239 10.6539 6.18301 19
687 1 14.255 -4.19529 -3.248 17
688 1 7.58386 4.75484 22.7406 8
689 1 -11.0919 -5.84075 6.9557 16
690 1 4.23733 -13.5192 3.6008 22
691 1 0.543276 -3.22582 -4.48135 21
692 1 -7.34409 15.6005 0.0551265 16
693 1 -3.61878 -0.958653 9.17829 19
694 1 4.02767 -6.10172 -1.82648 20
695 1 5.27945 10.6703 7.13133 20
696 1 -11.1033 -1.20538 -6.75345 14
697 1 6.79675 7.58463 16.0345 16
698 1 -2.30854 6.12038 -13.6058 14
699 1 -3.17266 9.50164 -12.7506 12
700 1 2.44488 -16.2582 1.92212 17
701 1 9.89453 8.54036 -3.70461 22
702 1 5.26531 -7.06501 6.12963 21
703 1 -3.01882 5.34074 4.16862 22
704 1 -14.4193 6.42552 12.8346 7
705 1 5.81553 -3.07319 -11.8382 22
706 1 6.52091 -13.5352 5.14329 13
707 1 2.64457 15.1091 4.69686 15
708 1 -4.73318 0.44238 18.0136 15
709 1 -9.70006 -6.35206 -1.98894 21
710 1 -0.829583 -11.7977 -13.364 13
711 1 -5.48658 -13.028 -2.27956 14
712 1 -2.25589 14.5394 -2.25374 16
713 1 4.51341 -4.96965 -7.24124 16
714 1 0.755883 13.0061 6.03859 21
715 1 12.0086 -11.1021 1.41271 14
716 1 9.94954 -16.3429 -1.79722 13
717 1 3.02672 -6.1478 7.90291 18
718 1 15.9791 1.87779 -6.54885 9
719 1 7.70788 -17.4511 -3.55122 13
720 1 -12.2934 3.91477 9.0733 18
721 1 -1.13713 -17.4504 3.64344 13
722 1 -6.99882 -11.4287 -4.44099 15
723 1 -11.9043 1.09418 11.966 13
724 1 -4.06607 -16.6734 4.14621 15
725 1 15.6251 2.54641 -3.27848 17
726 1 -4.38187 15.2997 11.5477 12
727 1 -9.32039 1.97233 7.82239 21
728 1 -9.6686 7.82388 5.89441 20
729 1 9.48356 -1.16993 8.68719 17
730 1 -8.22091 -0.60261 -8.62294 18
731 1 -1.71532 8.62153 -1.01927 24
732 1 9.5469 1.28808 -9.03345 15
733 1 11.8132 10.3941 15.6993 10
734 1 11.6169 9.5831 -6.68984 15
735 1 -10.0163 6.82424 -8.72765 12
736 1 -10.5514 -7.23549 -4.84255 17
737 1 -0.724161 4.18012 20.1238 12
738 1 5.61713 5.87112 -10.6066 18
739 1 13.389 10.6566 10.2067 19
740 1 -6.22289 3.38822 11.9018 25
741 1 -1.30735 -17.0412 -1.88931 12
742 1 -2.61691 -16.4265 8.92538 10
743 1 -0.512197 -10.3885 6.34282 24
744 1 17.9345 8.19151 10.6739 9
745 1 3.04184 -6.60258 -4.69293 18
746 1 -4.94263 10.1898 1.17944 18
747 1 6.69905 7.81035 1.8509 20
748 1 -9.53536 -5.3075 2.12184 22
749 1 11.2983 6.8057 -11.2182 11
750 1 0.399975 -16.7685 -8.02728 13
751 1 8.17864 -18.7169 0.0696636 10
752 1 6.09769 -16.6759 -0.874173 23
753 1 8.70813 4.46543 -9.37289 15
754 1 4.16731 18.1579 -1.17421 9
755 1 -3.8144 4.60539 -11.3391 17
756 1 -0.910901 2.12428 15.5386 19
757 1 3.70858 3.44822 -14.617 15
758 1 -9.90269 -1.61098 -12.393 11
759 1 -12.4268 4.57834 -4.87354 12
760 1 0.555483 14.5594 -8.17557 12
761 1 9.96763 1.35438 7.04776 17
762 1 -3.32297 -6.01579 -12.0734 19
763 1 -6.39736 -5.80334 2.51432 18
764 1 13.5888 7.78585 -9.1203 11
765 1 13.1348 -8.12068 1.23948 14
766 1 -4.47131 9.91165 14.663 12
767 1 10.3887 -11.1212 4.51971 16
768 1 16.2728 -2.74489 0.660153 14
769 1 13.3258 -5.53946 9.90899 14
770 1 1.74445 10.3241 7.32234 17
771 1 -10.9372 1.70174 15.1775 12
772 1 -3.93436 5.79029 12.8225 21
773 1 -0.667116 -11.5828 9.09564 15
774 1 8.51445 2.64447 3.19097 15
775 1 8.53886 11.1322 14.325 13
776 1 -12.7058 -0.903864 0.388329 15
777 1 10.1224 -5.34176 0.496531 17
778 1 -5.6047 13.6289 -2.30857 22
779 1 3.70004 7.17776 7.09544 20
780 1 2.71216 -15.3093 10.9498 11
781 1 6.26211 2.16586 12.2582 20
782 1 -0.786351 15.6232 5.16094 17
783 1 4.44706 -12.5202 6.70589 16
784 1 -11.6541 2.22584 4.30606 19
785 1 3.20718 7.57015 11.0093 17
786 1 -12.6372 -5.0152 -3.37129 12
787 1 3.13678 10.5943 18.5788 16
788 1 8.72186 13.185 2.66142 12
789 1 -11.7365 -12.0059 5.16274 9
790 1 0.103434 -14.58 9.35023 15
791 1 9.01042 -3.2435 10.5275 19
792 1 13.5643 -5.77364 7.16569 17
793 1 5.76179 8.2022 8.67321 19
794 1 -2.25144 9.93351 2.41363 20
795 1 -0.654753 -11.1379 -6.35046 20
796 1 -1.45225 0.430225 -9.91895 21
797 1 -3.71117 0.421185 14.8358 17
798 1 -4.44943 15.2006 4.50399 21
799 1 14.559 -0.898654 9.6567 14
800 1 3.78709 7.91827 -3.80895 19
801 1 -0.980787 6.09633 18.2094 15
802 1 9.41682 5.51615 11.0858 18
803 1 8.93101 -4.41883 -10.9505 20
804 1 -6.37087 -8.62354 5.94388 18
805 1 -3.2145 -2.89445 -9.79236 21
806 1 15.8679 2.26227 8.72611 15
807 1 5.53171 0.0353534 -10.8524 18
808 1 -2.82169 2.99713 18.0345 15
809 1 11.8883 -13.3546 -1.17831 9
810 1 6.59886 5.90876 -14.1177 13
811 1 -1.76274 -8.72056 -1.97028 20
812 1 13.7986 1.22621 -9.37425 12
813 1 16.4799 -0.148416 2.38634 15
814 1 2.43578 -3.96514 14.9422 20
815 1 -2.93267 -10.8353 -8.2279 20
816 1 9.38081 13.2551 -1.24671 13
817 1 -0.353902 -6.15117 7.92155 17
818 1 -13.165 7.83233 6.57773 10
819 1 16.6742 2.11447 0.106602 15
820 1 17.4058 7.32486 3.15002 11
821 1 4.48744 -5.95089 -16.4266 12
822 1 -7.21959 13.2109 11.1977 14
823 1 16.4351 6.95494 6.48396 16
824 1 11.1523 10.9665 -1.4417 21
825 1 4.45067 0.69928 -13.6834 18
826 1 11.3955 -3.03145 1.49575 18
827 1 -7.9924 4.96906 0.675371 20
828 1 13.6629 8.19129 7.13993 20
829 1 -11.5587 -6.08895 4.05939 17
830 1 -4.9307 7.32305 -11.6954 15
831 1 6.20856 5.67704 11.9972 20
832 1 -9.56414 -4.10198 -4.28247 20
833 1 -9.79809 2.67472 10.2622 18
834 1 -1.22855 3.41994 -7.48348 22
835 1 10.7865 -5.59645 -6.25843 19
836 1 -10.167 -10.4875 -4.56058 14
837 1 15.3077 -10.29 2.50667 7
838 1 -13.0819 2.39414 1.48103 12
839 1 -10.6629 -3.42556 -0.806509 22
840 1 15.0812 7.70866 10.6594 20
841 1 -3.25329 -10.2678 11.3969 20
842 1 9.13251 -0.218875 18.0919 15
843 1 15.8419 -3.79097 8.02493 11
844 1 13.6691 -5.15778 2.67832 18
845 1 -9.87212 6.18407 8.67659 19
846 1 5.94366 12.2597 13.6409 18
847 1 3.72613 6.45458 -6.7033 21
848 1 -1.16572 -9.6751 -15.9066 9
849 1 -4.29971 12.1194 12.371 17
850 1 -10.9979 -11.028 8.16212 13
851 1 8.2507 14.6055 -3.78208 10
852 1 4.48651 11.8192 16.5021 14
853 1 10.756 -3.06393 -5.18114 19
854 1 5.09447 -7.61795 13.1085 18
855 1 -1.95787 11.9759 -7.71699 19
856 1 1.57739 8.92227 -5.47111 21
857 1 -2.34385 -4.86326 13.553 17
858 1 17.7925 5.45828 8.86546 11
859 1 1.05637 -6.85893 -9.10638 18
860 1 14.5461 10.3472 -0.904094 14
861 1 -9.71543 6.05144 -2.47535 19
862 1 -0.661916 -10.9623 13.2309 16
863 1 5.49859 10.5841 -10.1794 10
864 1 3.78294 -2.21786 11.6795 20
865 1 3.20461 -17.4274 -1.26469 16
866 1 -6.49777 14.7372 8.99404 10
867 1 -12.3597 7.7578 -4.25592 13
868 1 12.5652 -2.15225 -10.6569 13
869 1 5.58872 -13.1828 -11.3228 11
870 1 -9.91288 8.64048 2.48121 19
871 1 12.9537 8.77025 -3.69174 18
872 1 -6.09592 -2.94597 9.25288 15
873 1 10.5137 -6.38659 -16.0407 13
874 1 -9.13643 -8.85971 -6.73306 17
875 1 -0.106949 -12.0336 -2.5236 16