ITEM: TIMESTEP
316000
ITEM: NUMBER OF ATOMS
5760
ITEM: BOX BOUNDS pp pp pp
0.0615732736 33.5984267264
0.5365938553 33.1234061447
-1.4232315169 67.2232315169
ITEM: ATOMS id type x y z Coordination
1 1 25.8981 7.09845 55.7189 21
2 1 28.8523 4.34423 -0.899355 20
3 1 24.3036 3.19768 49.2882 19
4 1 3.18529 10.3451 50.9591 19
5 1 20.3738 8.49883 28.0075 21
6 1 25.3288 1.11721 51.0311 19
7 1 29.103 30.309 67.0987 20
8 1 4.64007 13.7251 1.32372 19
9 1 1.08105 12.2552 10.0395 21
10 1 4.79761 19.1181 43.8573 19
11 1 13.8323 9.45235 58.7635 17
12 1 18.3875 4.17281 4.94776 20
13 1 23.971 17.9703 16.573 21
14 1 26.3903 19.7272 63.3335 19
15 1 19.6703 22.5539 9.54282 21
16 1 32.3917 13.0595 14.0822 21
17 1 8.15722 7.45227 34.0871 17
18 1 11.5303 2.09866 43.0896 22
19 1 5.51663 4.57219 36.1127 20
20 1 18.6597 32.7304 55.1599 20
21 1 12.0449 21.4216 6.52706 18
22 1 19.7628 28.0941 11.1695 18
23 1 7.70377 6.07976 7.52578 23
24 1 3.10722 16.4415 42.7803 19
25 1 12.8096 14.5877 2.71845 21
26 1 3.41643 17.5251 57.7466 22
27 1 22.839 10.6174 16.204 21
28 1 29.1545 27.3546 66.2568 18
29 1 32.6383 29.8479 5.55919 19
30 1 2.31547 11.7541 31.5121 22
31 1 12.1121 5.2792 11.1245 20
32 1 18.7573 8.0549 21.2821 16
33 1 28.245 9.33802 22.7055 23
34 1 17.9064 12.1743 4.91012 20
35 1 24.613 5.07535 64.954 18
36 1 10.3704 6.28247 13.4818 19
37 1 21.9357 31.6671 2.89503 18
38 1 23.6725 27.0433 58.8544 23
39 1 24.8815 15.1586 26.8211 21
40 1 21.903 8.56946 22.6391 21
41 1 2.79034 1.22669 50.6737 20
42 1 2.58901 28.3526 29.4469 18
43 1 23.9949 7.90943 17.5468 20
44 1 5.97793 15.2973 22.0539 18
45 1 19.5517 2.70686 40.9196 20
46 1 22.546 7.77211 59.0053 22
47 1 20.627 3.62012 10.7949 23
48 1 23.0363 10.5219 3.81669 19
49 1 11.1009 4.09177 49.5671 18
50 1 30.4522 15.3061 65.0243 20
51 1 31.3901 12.8029 27.035 25
52 1 16.0288 14.5859 60.1555 21
53 1 21.4501 31.0672 23.5646 16
54 1 26.143 29.5231 27.0892 19
55 1 8.47062 11.9084 30.337 22
56 1 20.5467 25.567 11.602 18
57 1 30.5598 5.4087 17.6682 22
58 1 29.7972 22.0457 8.00994 17
59 1 10.7274 19.8294 16.4358 18
60 1 16.5498 24.2102 48.8281 17
61 1 20.8849 1.6099 65.0729 20
62 1 26.0248 0.877119 2.49782 20
63 1 19.1841 18.1303 52.1558 21
64 1 30.3046 7.34328 11.8846 19
65 1 1.56147 19.8542 10.4012 21
66 1 22.1577 13.928 52.9915 23
67 1 6.8932 12.4652 3.12057 19
68 1 30.0584 6.41919 61.2037 24
69 1 29.4464 26.4982 28.8869 19
70 1 29.7647 33.3083 22.81 19
71 1 31.5736 8.76506 54.6671 19
72 1 14.823 5.24905 55.3927 19
73 1 7.69415 3.49241 51.615 16
74 1 24.2774 31.3975 4.1114 20
75 1 15.6977 17.0258 15.5503 18
76 1 5.46487 3.82573 47.06 23
77 1 27.8974 12.7511 15.6796 24
78 1 16.2029 33.2207 23.2417 21
79 1 21.6422 0.841047 19.1856 18
80 1 25.0851 31.9228 45.2672 16
81 1 3.38966 25.0152 51.4956 19
82 1 2.59899 3.51289 48.1371 22
83 1 27.0462 18.6444 9.93971 15
84 1 20.9459 11.95 54.7761 19
85 1 27.0329 5.39988 59.3443 21
86 1 31.3418 20.7466 28.7328 20
87 1 26.6438 13.0513 13.1392 19
88 1 26.8285 20.4013 34.7027 21
89 1 4.56598 18.1499 17.0636 20
90 1 23.9639 20.0524 54.7867 18
91 1 29.2997 4.47575 5.25627 22
92 1 32.5126 22.0238 54.7905 21
93 1 3.87356 5.44094 50.2256 19
94 1 1.52016 28.328 63.2149 18
95 1 33.0567 17.9801 60.1825 22
96 1 19.5294 16.6253 0.226307 21
97 1 3.04132 27.7703 21.0283 21
98 1 24.0499 13.1579 20.5177 21
99 1 18.2611 2.07833 51.9757 21
100 1 8.24924 9.89751 66.39 21
101 1 32.9142 4.69681 22.8638 19
102 1 20.0159 8.306 44.3116 22
103 1 31.996 2.77786 66.4812 23
104 1 12.8104 7.70308 -1.27552 17
105 1 28.4047 20.0163 31.7181 22
106 1 18.696 28.3081 58.4011 21
107 1 5.81995 6.63132 57.5617 20
108 1 3.42133 29.4528 8.32599 20
109 1 19.7478 5.50169 26.7193 22
110 1 19.9428 24.0531 45.9547 20
111 1 6.23885 6.81115 17.3017 20
112 1 22.0189 15.322 47.8378 22
113 1 22.2326 20.8284 52.8923 18
114 1 21.5307 3.36502 21.5838 18
115 1 11.4902 16.1487 37.7401 19
116 1 3.21024 18.8433 1.17336 20
117 1 4.47546 22.5656 3.33293 20
118 1 11.154 17.4121 3.06182 18
119 1 18.9194 24.3659 17.6987 19
120 1 14.7145 10.6595 30.8823 20
121 1 0.681113 22.0499 23.7057 20
122 1 16.6125 26.5925 18.2216 19
123 1 2.86941 10.0158 14.3897 18
124 1 26.7836 17.764 19.4879 21
125 1 7.54605 32.4746 7.94764 20
126 1 11.3636 32.2834 64.2173 18
127 1 4.61092 13.2696 21.9468 19
128 1 4.65122 31.469 38.9149 19
129 1 2.53788 26.234 18.4775 20
130 1 26.445 30.3113 56.9338 17
131 1 33.1972 0.685489 52.6968 19
132 1 20.6374 25.7784 59.7574 19
133 1 15.9984 24.948 37.3329 21
134 1 25.7021 3.2925 62.5046 18
135 1 27.2715 31.8849 23.9828 15
136 1 11.3551 2.04903 46.7675 18
137 1 28.1436 28.839 29.7116 18
138 1 5.52995 29.5489 25.9109 22
139 1 6.36791 26.417 26.1584 24
140 1 3.66565 19.0868 62.7821 20
141 1 16.6059 22.343 18.0789 19
142 1 3.00788 5.38818 66.8243 18
143 1 31.6783 19.103 65.8882 19
144 1 1.3727 5.80006 64.3074 19
145 1 29.1411 29.2005 7.11136 22
146 1 25.4711 13.0084 9.75425 20
147 1 2.81709 5.78695 12.6566 20
148 1 9.06804 31.3289 33.5124 20
149 1 26.8055 30.4039 20.526 21
150 1 12.0359 9.98788 6.8617 20
151 1 29.4748 24.8897 3.10274 20
152 1 30.9693 13.8668 52.1025 21
153 1 33.3781 6.68965 14.8138 19
154 1 3.56148 19.8616 28.6873 20
155 1 6.9374 20.4742 18.0406 18
156 1 22.3951 0.844343 50.0784 19
157 1 28.7223 9.93295 11.3235 15
158 1 4.85463 29.6605 59.9502 20
159 1 20.8926 15.4827 6.4519 21
160 1 7.48706 21.7921 3.78936 18
161 1 6.63139 1.79117 6.16186 19
162 1 10.8391 15.3855 5.14804 18
163 1 22.576 18.0941 7.49321 23
164 1 28.8174 8.38624 58.1897 23
165 1 13.9119 24.5399 18.478 21
166 1 0.445616 25.7968 13.0511 20
167 1 10.2338 22.2574 60.486 20
168 1 27.9349 12.2862 22.814 23
169 1 20.7718 12.8431 25.3921 18
170 1 17.8693 29.5113 44.823 20
171 1 16.5539 6.08465 13.0697 21
172 1 11.7868 22.2171 12.4386 19
173 1 11.4739 8.74512 11.0553 19
174 1 15.2464 3.44486 15.462 22
175 1 25.0815 0.635174 61.3216 19
176 1 25.3018 12.1313 2.00464 21
177 1 16.9966 26.8604 27.0215 22
178 1 21.6956 19.2276 50.3419 17
179 1 9.17591 18.3349 42.9432 21
180 1 26.3924 4.43682 8.19378 23
181 2 13.105 17.958 33.9258 17
182 2 12.9019 7.65558 47.7931 17
183 2 33.5066 26.437 30.5216 20
184 2 12.8774 18.7151 40.3066 20
185 2 24.6019 11.559 57.3313 22
186 2 24.1283 11.6969 15.1576 19
187 2 1.2165 4.5116 27.964 18
188 2 13.2499 25.3357 30.67 22
189 2 8.37325 1.27285 51.8419 17
190 2 9.2967 18.1474 16.1448 20
191 2 22.7125 6.70535 39.5851 17
192 2 13.0086 26.2487 4.41309 17
193 2 5.73924 14.3519 20.3763 21
194 2 0.622235 20.1369 8.50643 19
195 2 32.8566 2.91979 32.5122 23
196 2 22.2103 25.5276 12.152 20
197 2 28.1987 22.5182 26.2703 17
198 2 18.0307 18.4475 13.4236 18
199 2 0.133476 20.0382 20.3998 22
200 2 21.5467 2.90445 53.9889 20
201 2 18.2538 23.0918 8.34088 20
202 2 22.7411 19.1572 53.8086 18
203 2 12.6558 31.3635 62.8104 19
204 2 8.94203 5.59779 5.84443 23
205 2 19.5586 30.6828 23.0393 17
206 2 0.653524 24.1829 62.3567 21
207 2 30.0059 24.9812 40.1468 19
208 2 15.6276 7.0019 14.3604 21
209 2 19.2461 32.02 0.378427 22
210 2 19.903 33.2945 28.0757 19
211 2 19.0671 8.14833 62.8338 20
212 2 18.8887 19.9977 64.2081 23
213 2 15.7585 9.88544 12.2755 21
214 2 16.9975 28.0653 54.5489 19
215 2 10.0951 25.6678 14.2126 23
216 2 6.58644 10.3493 66.928 21
217 2 32.1226 29.5174 43.8383 21
218 2 26.2947 20.478 9.68551 20
219 2 18.5084 10.5623 6.02046 18
220 2 2.9749 4.82983 14.9032 20
221 2 13.7953 31.0689 4.81594 23
222 2 26.5678 25.0734 26.4983 16
223 2 8.37127 31.2039 64.9461 18
224 2 20.5038 18.5477 3.59994 18
225 2 6.39878 32.3431 34.9943 22
226 2 1.75344 11.7027 -1.07181 21
227 2 4.26003 5.72393 37.0894 21
228 2 11.2618 24.4997 2.76929 18
229 2 15.3377 7.13343 8.86219 16
230 2 1.28709 9.16511 7.41517 17
231 2 33.3108 4.65816 14.2306 22
232 2 11.6976 17.7709 61.2451 19
233 2 11.3636 9.80885 27.649 22
234 2 12.2946 20.4987 15.0568 20
235 2 5.95122 12.3775 18.5762 19
236 2 32.3377 14.6526 12.9766 25
237 2 7.76582 18.4479 31.0562 22
238 2 28.9395 1.31895 51.4332 18
239 2 30.0934 9.46398 15.7848 17
240 2 3.45294 12.8688 30.6535 22
241 2 24.8703 12.8479 52.3596 22
242 2 25.3672 28.3601 34.7783 21
243 2 20.1687 26.7634 9.88891 18
244 2 24.5162 23.3403 30.7926 20
245 2 0.0833951 3.31761 21.8146 20
246 2 9.73542 2.13733 6.54491 22
247 2 24.0759 14.2189 28.4767 20
248 2 20.2663 27.0688 2.86004 21
249 2 22.2951 30.241 7.55493 17
250 2 17.8645 1.46704 50.3635 25
251 2 19.8528 19.0206 18.5024 18
252 2 31.3627 0.974874 39.4473 22
253 2 24.0431 27.5697 20.6604 21
254 2 31.913 15.9484 45.4885 18
255 2 27.1136 23.238 14.3067 19
256 2 0.306465 27.6343 12.013 17
257 2 16.7699 31.3923 36.9773 20
258 2 24.9608 16.7007 19.5119 22
259 2 2.00375 8.77565 22.795 19
260 2 3.25681 26.6532 28.3031 20
261 2 31.4977 31.3795 6.33842 16
262 2 22.4813 25.5283 46.4322 19
263 2 15.5036 10.3053 14.8353 16
264 2 18.0324 8.73902 44.7245 18
265 2 3.48621 32.6106 29.6075 20
266 2 4.99366 13.9655 23.8874 20
267 2 4.06602 32.0137 63.2771 18
268 2 10.9358 19.4944 18.7449 18
269 2 4.45251 26.2796 48.1806 18
270 2 4.56739 13.3096 11.9911 20
271 2 24.303 14.0201 36.1278 21
272 2 8.91742 5.51724 8.82982 21
273 2 13.3576 20.4991 17.682 22
274 2 31.277 19.4474 51.1908 19
275 2 29.3312 7.80007 48.9946 18
276 2 5.62153 0.969087 7.73788 20
277 2 5.97029 20.1656 35.8601 20
278 2 21.8909 7.2943 47.9384 21
279 2 20.2182 12.5649 12.5666 18
280 2 7.65238 16.924 14.3724 21
281 2 20.9978 31.301 25.7905 20
282 2 29.7543 0.763019 12.3335 21
283 2 22.4346 22.9245 36.3342 18
284 2 21.4173 8.59443 60.502 21
285 2 20.8702 32.4599 13.4695 19
286 2 19.2136 18.6064 36.3487 19
287 2 23.7791 10.8491 18.0807 19
288 2 16.1756 9.93375 66.4293 20
289 2 27.0727 10.7218 49.7916 24
290 2 10.9958 23.309 31.6256 20
291 2 19.1301 25.193 62.5575 25
292 2 11.7403 18.2625 31.3869 21
293 2 31.0461 0.891772 2.79078 21
294 2 8.16609 25.9277 9.25646 20
295 2 16.6522 8.92176 55.3556 18
296 2 9.16216 32.2097 54.9041 20
297 2 23.816 9.0023 22.117 17
298 2 10.9582 1.39753 28.6253 19
299 2 29.7391 15.5957 17.6085 21
300 2 26.3284 10.8473 32.3122 21
301 2 29.1892 22.2765 41.1124 21
302 2 5.93666 24.0118 27.963 18
303 2 2.19595 18.9783 6.37355 21
304 2 6.80317 11.6744 60.792 22
305 2 28.4709 19.3771 48.9649 22
306 2 19.6499 18.0271 8.16634 22
307 2 11.5361 24.1474 10.0569 19
308 2 24.8832 13.5315 41.7828 20
309 2 4.42255 18.2834 27.9865 19
310 2 11.1126 28.9529 -0.78637 23
311 2 21.6196 24.475 60.822 22
312 2 23.1246 2.3027 65.6738 21
313 2 28.507 9.64948 34.2581 20
314 2 3.06912 21.7192 4.75517 21
315 2 23.5546 20.7363 46.0565 21
316 2 4.70289 27.9683 15.806 18
317 2 30.1608 30.1869 32.1434 19
318 2 10.4805 32.5262 43.0758 22
319 2 9.63458 13.1065 11.9138 19
320 2 24.4772 29.7059 64.4471 19
321 2 18.8975 27.4615 27.2549 22
322 2 5.6467 1.00306 43.275 19
323 2 2.69874 7.36887 31.3459 15
324 2 9.5193 15.6522 6.35204 21
325 2 13.6958 12.7928 20.3903 18
326 2 17.3633 2.5014 19.3141 19
327 2 1.40776 13.96 38.7635 19
328 2 17.2364 32.4817 56.6122 19
329 2 17.0768 13.2515 11.6111 21
330 2 31.9502 29.2053 57.4909 21
331 2 26.101 9.67424 21.7071 22
332 2 3.43499 30.8768 59.8835 22
333 2 17.3467 30.8508 34.0662 20
334 2 25.9527 21.284 33.0659 21
335 2 24.19 28.1843 2.79921 22
336 2 23.43 2.1122 51.6808 19
337 2 13.3229 17.4715 44.5909 19
338 2 3.84154 6.01237 5.06415 20
339 2 25.687 7.51225 5.95267 21
340 2 18.363 21.9716 18.8235 20
341 2 27.3794 5.41129 49.3923 19
342 2 15.0232 12.9731 49.6651 20
343 2 32.3316 23.6093 24.1328 22
344 2 22.8746 15.5044 52.2642 21
345 2 8.17228 2.70004 29.5525 20
346 2 4.11914 3.37697 9.6036 20
347 2 10.0798 27.2844 35.4279 22
348 2 15.1607 28.6265 63.0349 21
349 2 12.6035 3.14074 2.23916 23
350 2 32.6051 3.25471 0.823607 21
351 2 22.771 5.30586 25.1717 21
352 2 15.995 3.34024 1.42917 20
353 2 12.7537 27.1232 20.4811 16
354 2 1.06494 2.41733 52.8032 18
355 2 21.1239 26.6267 54.6534 18
356 2 2.33299 6.3383 50.6124 21
357 2 29.8418 6.63865 1.46502 23
358 2 28.6 16.9983 9.71241 19
359 2 19.6783 1.1816 48.4224 21
360 2 17.9542 9.14913 19.4961 18
361 1 9.49728 4.43389 27.1505 19
362 1 16.9962 20.5832 20.2253 20
363 1 27.0872 32.4137 26.9072 18
364 1 22.0066 12.208 18.4951 22
365 1 8.9054 1.6337 35.1387 20
366 1 6.01467 16.1984 26.2407 21
367 1 17.6004 24.1347 31.1364 19
368 1 20.299 28.2988 -0.283618 21
369 1 20.8123 31.8948 7.76783 20
370 1 24.5259 23.2701 42.058 23
371 1 30.6807 15.6299 49.3007 21
372 1 21.6098 17.9478 22.6548 20
373 1 21.7939 4.17537 32.5242 19
374 1 6.97995 19.768 64.7957 21
375 1 0.34289 9.54356 39.7433 25
376 1 24.675 3.41092 21.0634 23
377 1 32.8691 1.73375 42.792 18
378 1 32.7484 13.4719 11.319 23
379 1 23.4202 13.1465 45.1523 21
380 1 22.2914 8.3651 12.617 17
381 1 4.43956 2.86663 53.4377 21
382 1 22.4877 17.4369 52.7307 24
383 1 24.9251 23.9846 26.6421 17
384 1 20.0749 10.5662 42.3753 22
385 1 17.3833 5.77005 29.1463 21
386 1 22.0232 2.06749 61.2279 18
387 1 13.8213 13.3265 53.6384 23
388 1 7.24243 16.3672 12.2763 18
389 1 8.53962 27.7744 20.376 18
390 1 0.857799 22.2379 29.3267 21
391 1 14.8317 15.5502 7.39213 18
392 1 32.409 15.7042 22.218 24
393 1 16.7073 31.3974 7.51886 21
394 1 14.8757 2.33463 25.9115 20
395 1 -0.0798167 18.8469 23.8083 21
396 1 9.83039 8.16824 57.9093 18
397 1 4.68895 6.10427 14.708 20
398 1 28.5099 26.9601 36.1288 23
399 1 22.7298 7.76905 38.1011 22
400 1 21.1956 21.6601 15.4394 20
401 1 33.4217 6.50025 31.7399 20
402 1 15.9579 7.79009 65.9643 20
403 1 27.1891 19.8378 29.0575 20
404 1 24.5065 1.66022 7.13201 20
405 1 6.22892 31.8028 11.3283 18
406 1 26.6618 28.6146 22.6847 16
407 1 15.0804 29.3075 4.99485 22
408 1 20.5221 6.11302 29.9346 19
409 1 8.9934 27.7777 33.5286 20
410 1 32.6926 23.0886 26.6404 19
411 1 12.589 11.6891 33.9943 20
412 1 31.4928 27.3043 17.5282 21
413 1 6.84812 28.8533 42.1492 18
414 1 2.81177 10.571 19.4321 19
415 1 33.4932 15.0975 52.1877 16
416 1 7.53894 30.8424 23.6152 17
417 1 31.3638 26.9849 22.8688 20
418 1 32.3855 12.9174 34.1237 20
419 1 21.6103 24.3734 47.9059 18
420 1 10.8201 1.42941 39.7814 22
421 1 9.48625 21.6442 32.6145 22
422 1 32.768 11.9846 67.067 21
423 1 27.5379 31.4812 0.71274 21
424 1 11.0429 31.6029 14.2194 23
425 1 11.862 2.66111 24.0241 18
426 1 29.6296 26.4747 55.201 22
427 1 8.63719 22.8195 17.2299 18
428 1 9.63592 26.7347 59.869 20
429 1 7.27488 11.5804 7.32656 19
430 1 8.07781 27.0912 5.16642 19
431 1 13.224 10.5338 28.2521 20
432 1 0.940478 16.5773 12.4926 20
433 1 28.0128 3.1483 35.5054 19
434 1 25.1716 12.2042 18.1226 20
435 1 19.1838 0.602283 30.6928 18
436 1 14.9007 3.2407 23.4439 21
437 1 31.5099 22.7562 14.3607 18
438 1 4.32345 32.4191 31.5919 20
439 1 11.8053 4.07153 19.8066 18
440 1 22.4966 25.0796 24.4785 22
441 1 18.5449 22.5213 11.9664 22
442 1 28.6435 24.4173 13.6517 24
443 1 4.62662 5.5488 9.32919 21
444 1 14.4579 5.47859 66.76 18
445 1 29.3207 23.3211 20.3164 23
446 1 31.1148 25.0105 65.5936 20
447 1 28.5813 15.978 21.9544 21
448 1 21.2706 16.7556 31.5722 20
449 1 9.79943 29.0583 35.7852 20
450 1 20.8176 27.3597 27.7425 20
451 1 20.6871 8.77986 17.9386 23
452 1 10.9034 11.6769 27.1498 17
453 1 14.0782 18.9233 24.2106 22
454 1 15.071 2.48753 33.869 19
455 1 12.6811 12.2562 44.4551 19
456 1 2.85336 5.96166 18.9277 23
457 1 2.86405 30.1455 61.5075 20
458 1 16.7536 6.93669 21.3071 19
459 1 17.7098 13.1146 46.4983 17
460 1 33.2403 24.408 30.6874 19
461 1 11.8027 8.97381 46.75 23
462 1 8.93 3.31053 12.9724 18
463 1 29.6704 1.18645 25.5065 22
464 1 32.9301 32.2824 7.35572 21
465 1 21.2191 28.3973 24.6924 21
466 1 18.3767 31.1121 57.772 18
467 1 11.1601 2.59362 59.9433 18
468 1 30.6065 6.28231 3.25573 19
469 1 21.2911 4.5893 4.52747 20
470 1 8.24927 26.6796 56.8804 21
471 1 9.87058 8.01936 2.22929 17
472 1 6.87999 11.3551 22.7053 20
473 1 25.4054 17.0225 11.976 19
474 1 7.1597 19.6155 12.1807 20
475 1 4.61211 24.2596 25.2248 19
476 1 23.8851 18.287 37.8467 20
477 1 21.4621 2.98246 29.6719 17
478 1 26.1757 28.3039 17.6165 23
479 1 9.55072 14.0947 33.1533 20
480 1 27.8882 21.6064 24.6426 15
481 1 26.2133 15.9425 15.102 21
482 1 9.05876 19.3307 61.3365 18
483 1 14.1562 7.59305 28.0859 22
484 1 14.3649 20.3758 8.23517 21
485 1 1.20407 3.13282 32.4979 18
486 1 25.6109 21.0131 25.7648 16
487 1 8.47624 13.3129 27.6904 20
488 1 31.7331 1.84011 18.2768 23
489 1 33.1545 4.34835 4.50734 22
490 1 8.10453 21.3825 9.516 21
491 1 19.6968 16.0162 23.3575 17
492 1 13.4182 22.8195 61.2229 22
493 1 19.1229 28.9909 19.3271 20
494 1 18.2499 12.8906 33.8225 22
495 1 25.2315 4.49528 52.1639 19
496 1 0.520972 28.5632 22.7265 21
497 1 11.8515 25.5614 50.0246 20
498 1 26.9894 22.5674 54.9659 22
499 1 31.1729 6.64356 7.11316 20
500 1 27.1372 25.3207 53.573 21
501 1 4.97085 12.5938 31.9788 20
502 1 32.7699 15.3429 8.8864 19
503 1 7.31579 13.1793 20.3338 24
504 1 25.2873 14.257 0.427853 20
505 1 6.06036 10.4588 12.6904 22
506 1 28.594 22.4467 45.9081 19
507 1 32.739 23.0972 20.9669 19
508 1 27.634 25.3094 0.930138 18
509 1 18.9423 4.38274 31.1041 21
510 1 6.07482 22.1458 13.4382 19
511 1 9.13231 27.9993 8.40362 18
512 1 28.2298 24.6227 8.26205 21
513 1 3.21152 23.3358 67.0192 20
514 1 1.31179 15.0845 40.9544 21
515 1 29.5608 29.659 34.9026 22
516 1 18.1163 24.573 7.19999 18
517 1 5.03568 12.0116 16.0949 18
518 1 15.6296 27.8161 61.4484 21
519 1 10.127 32.3027 45.198 21
520 1 6.70705 26.442 51.5905 23
521 1 24.3917 0.984363 58.5293 19
522 1 3.73683 26.3187 15.8281 19
523 1 23.6385 20.0592 -0.00733604 19
524 1 24.0313 26.53 11.1877 21
525 1 26.1918 4.70199 -0.73318 25
526 1 21.8125 1.62514 55.7947 21
527 1 0.99786 18.8025 67.4085 21
528 1 30.8558 13.1752 62.2826 22
529 1 7.35257 2.17114 62.9091 16
530 1 13.8727 11.1196 61.0771 17
531 1 19.6204 16.4733 54.1387 22
532 1 10.8847 19.0256 48.4533 20
533 1 4.85564 12.673 64.1108 21
534 1 14.8283 24.187 46.3983 22
535 1 2.23194 9.00226 5.74939 22
536 1 2.5049 9.33597 24.8676 16
537 1 24.5991 32.9712 34.772 20
538 1 13.4866 26.7812 45.9976 21
539 1 3.54655 16.2225 23.6784 24
540 1 33.0205 22.82 34.2292 22
541 2 0.313629 19.4078 17.2487 17
542 2 28.5698 26.4128 62.7788 22
543 2 23.4332 7.81006 61.8816 21
544 2 27.8407 11.7766 13.8575 21
545 2 8.49746 17.811 40.9769 20
546 2 29.4662 10.7661 1.55066 16
547 2 7.86675 29.6603 37.5401 22
548 2 31.9159 6.09492 57.7697 20
549 2 26.1256 32.4166 25.3826 19
550 2 5.61685 32.8441 1.1211 19
551 2 6.81584 29.342 24.0929 22
552 2 27.6481 22.7216 63.6889 20
553 2 9.48222 12.9977 25.8454 20
554 2 21.9523 12.205 45.6282 22
555 2 24.782 21.1517 6.95089 20
556 2 17.2715 18.3981 9.88292 24
557 2 6.13454 13.4429 15.349 19
558 2 32.8291 32.0016 18.0815 22
559 2 7.31914 16.3336 51.2746 21
560 2 10.4869 25.0724 20.3869 22
561 2 4.23498 21.2666 27.3064 18
562 2 27.0688 17.0626 56.3482 15
563 2 11.4488 10.0147 40.453 20
564 2 7.04172 7.00187 29.8186 19
565 2 5.86495 30.6609 2.94465 19
566 2 10.0452 23.3641 -1.11614 20
567 2 15.11 30.9496 27.4356 22
568 2 0.9395 0.633542 6.69678 19
569 2 23.8921 27.7934 12.8887 18
570 2 21.2566 0.746876 3.00783 21
571 2 14.743 8.00048 22.9978 20
572 2 2.08722 18.5953 54.9473 19
573 2 5.03616 13.9402 57.4946 22
574 2 5.80908 2.03977 51.1355 19
575 2 31.5128 22.6495 62.1056 21
576 2 18.5713 28.4299 4.49027 18
577 2 2.32853 4.92527 25.8822 17
578 2 29.2387 28.1773 53.1878 20
579 2 24.5816 12.8783 30.9728 19
580 2 21.9009 14.3654 39.7923 20
581 2 23.5671 0.687614 14.5944 20
582 2 19.5275 32.6423 62.1716 20
583 2 27.9825 3.23014 3.73465 18
584 2 7.7785 16.387 17.6896 17
585 2 21.0357 14.3123 64.3768 16
586 2 24.5265 19.8912 30.9985 21
587 2 0.427725 12.5437 19.0311 21
588 2 10.7518 12.8244 33.8762 21
589 2 16.0292 4.00488 13.0141 21
590 2 0.196925 12.246 32.7578 19
591 2 16.3298 22.1077 33.5556 22
592 2 26.1235 31.5988 39.8641 20
593 2 1.55771 11.1267 39.9389 21
594 2 32.7211 10.5279 50.3618 20
595 2 29.201 30.1607 11.7098 20
596 2 31.3084 22.0925 27.0968 20
597 2 2.66828 17.34 17.241 18
598 2 20.5284 6.08651 9.0352 21
599 2 10.4822 5.94196 48.9002 19
600 2 31.0529 23.9652 31.1014 19
601 2 28.2491 15.625 4.06274 20
602 2 7.61436 6.30699 61.3864 18
603 2 5.13182 16.6148 15.2095 18
604 2 3.02257 11.248 33.1536 19
605 2 27.8973 17.2783 40.5787 16
606 2 5.15857 23.4045 6.8527 23
607 2 6.42378 28.867 19.9962 20
608 2 27.4161 14.4004 21.9335 20
609 2 11.8728 14.9032 40.8373 18
610 2 15.7525 7.81079 35.9437 22
611 2 13.5515 4.47941 15.8525 18
612 2 28.494 2.1314 55.0185 25
613 2 21.8255 13.993 30.2407 23
614 2 4.20355 25.058 40.2882 17
615 2 1.21045 6.82043 20.1033 24
616 2 17.2495 12.4928 66.6448 21
617 2 25.7592 1.10791 53.6709 22
618 2 19.4189 11.2511 53.779 19
619 2 14.2782 8.71128 53.0109 19
620 2 29.5622 22.8398 38.208 20
621 2 12.8703 13.2967 26.743 20
622 2 2.84769 1.52967 20.0947 22
623 2 10.7756 19.4167 22.4235 20
624 2 16.007 25.8234 25.336 19
625 2 28.319 32.3879 14.8313 19
626 2 0.619187 31.9041 15.6996 22
627 2 7.91936 14.6545 66.1897 21
628 2 32.4321 5.30636 6.36967 21
629 2 27.4635 1.66099 30.2626 19
630 2 26.8473 25.3882 9.49289 21
631 2 8.44516 4.82649 45.6099 19
632 2 27.3359 6.42071 37.4481 19
633 2 17.4211 10.8011 63.4924 20
634 2 7.68121 18.4524 22.0527 19
635 2 18.5722 6.2165 30.4695 21
636 2 21.4078 17.3208 20.7387 21
637 2 33.3984 12.1373 42.3618 18
638 2 6.21122 8.89947 17.7244 23
639 2 14.8921 23.1183 22.4723 18
640 2 23.9845 9.15117 31.7489 24
641 2 29.7465 21.1071 24.207 21
642 2 14.2332 31.9524 58.1206 16
643 2 3.94341 6.13533 57.1716 21
644 2 2.42259 15.8733 11.8875 19
645 2 13.2659 27.3709 37.2298 20
646 2 5.14562 19.4216 40.3153 22
647 2 19.4199 24.8919 58.5802 21
648 2 14.4306 8.35501 57.4851 16
649 2 31.8579 3.59309 50.1364 18
650 2 10.2091 4.40886 56.2877 18
651 2 28.524 22.836 23.2034 20
652 2 23.0216 9.0748 64.8078 18
653 2 29.4934 9.89548 31.4554 24
654 2 29.9292 11.7076 58.6993 22
655 2 14.5183 15.8583 32.4661 22
656 2 4.40427 17.277 22.1754 22
657 2 27.0361 18.889 30.9981 21
658 2 31.5322 5.58284 41.6104 21
659 2 25.8332 21.9639 61.0654 19
660 2 14.7581 30.4395 47.8864 17
661 2 5.87371 8.5922 56.6891 21
662 2 33.1964 27.9834 62.7866 18
663 2 1.48737 26.0652 20.1621 19
664 2 7.45867 26.5595 24.6641 19
665 2 16.2391 13.5021 34.118 22
666 2 16.7348 13.7208 47.8309 16
667 2 4.50337 30.4608 53.7775 18
668 2 22.4831 23.3528 6.02162 20
669 2 16.2313 13.9762 28.8593 20
670 2 26.4151 12.9859 62.6372 21
671 2 5.95511 22.4489 0.52959 24
672 2 9.28525 28.2622 47.7412 19
673 2 7.17203 19.8331 1.98796 21
674 2 14.4115 16.5808 41.5984 20
675 2 14.1989 20.7888 2.6643 22
676 2 14.5504 18.2964 29.9609 19
677 2 16.3767 20.0407 59.4341 22
678 2 18.4468 9.69312 14.7429 19
679 2 14.5752 32.3455 50.4039 19
680 2 16.4005 31.2422 40.7226 17
681 2 11.5376 6.12139 37.8465 21
682 2 5.13625 27.1453 3.32154 21
683 2 26.034 6.58593 21.3125 22
684 2 20.6144 24.3381 34.3385 21
685 2 3.08653 14.2362 21.3704 20
686 2 26.6689 6.2294 28.29 22
687 2 19.5063 8.57625 23.3369 19
688 2 6.8428 21.3875 29.6426 23
689 2 6.20394 18.8835 24.9044 22
690 2 31.6767 21.0789 43.506 22
691 2 20.2277 10.5245 17.9035 20
692 2 18.2103 10.8212 12.1727 18
693 2 8.60554 8.63414 32.7206 17
694 2 10.3627 32.841 35.3191 18
695 2 8.48368 9.09 9.95963 26
696 2 4.77325 3.52968 56.8538 19
697 2 33.1982 1.68138 19.7275 20
698 2 26.7674 12.4048 26.9347 23
699 2 3.06883 31.0318 32.2343 21
700 2 12.7341 28.4247 25.5806 18
701 2 1.92831 26.901 61.1713 20
702 2 25.7324 8.59526 40.581 18
703 2 6.93101 20.4337 26.8654 20
704 2 22.4659 4.98577 64.4918 20
705 2 29.1122 6.14129 34.446 20
706 2 22.3102 8.76131 27.0379 22
707 2 8.37501 8.91711 51.5019 18
708 2 21.5307 17.1694 59.8515 18
709 2 13.6833 15.5131 5.40839 21
710 2 19.267 30.3787 50.16 22
711 2 24.052 18.9281 43.461 22
712 2 19.63 23.8068 10.9313 20
713 2 17.298 22.5922 3.90374 19
714 2 9.93575 10.4273 43.9867 19
715 2 4.47346 19.1838 18.6906 22
716 2 4.61979 28.0891 8.95459 18
717 2 1.89744 20.0621 39.511 21
718 2 22.6834 19.4381 8.86358 22
719 2 7.33122 27.1879 12.8887 19
720 2 13.6657 28.7252 53.4354 19
721 1 18.042 19.1458 26.5646 17
722 1 13.2062 25.5152 2.53648 18
723 1 32.2556 9.94015 35.7312 21
724 1 22.4958 23.8883 13.1092 20
725 1 29.1027 3.76257 61.3045 23
726 1 11.9763 30.1438 6.9739 20
727 1 15.7412 6.34019 16.2226 19
728 1 16.2142 30.1327 2.45581 20
729 1 19.0067 26.79 29.3461 17
730 1 24.8995 27.3797 30.7187 19
731 1 31.5607 6.96161 25.6664 19
732 1 0.951076 7.55789 12.0078 20
733 1 17.4805 1.29027 66.2152 22
734 1 11.7371 21.1171 9.82731 21
735 1 22.7471 31.4459 61.0076 19
736 1 22.6113 0.604452 9.39108 21
737 1 21.4359 5.16985 39.2521 19
738 1 1.1245 15.9999 6.2011 18
739 1 6.4163 2.78011 18.0927 18
740 1 18.8257 7.67065 51.3753 20
741 1 14.8262 32.9662 0.557079 20
742 1 13.4358 5.94875 14.389 21
743 1 0.921086 2.68933 65.2147 23
744 1 1.33472 33.1908 19.397 20
745 1 6.14193 18.0256 9.05066 22
746 1 13.4567 16.8977 0.851381 19
747 1 4.36402 12.7277 46.8183 19
748 1 1.52704 0.929134 27.1239 21
749 1 17.471 28.0697 14.9995 21
750 1 31.854 25.6909 15.0235 18
751 1 20.1086 20.0669 23.2869 21
752 1 22.8368 9.71548 9.29941 15
753 1 29.9647 32.3911 6.12152 17
754 1 7.28324 21.7012 62.4971 19
755 1 30.7934 1.75769 57.2916 19
756 1 20.9699 22.731 61.3099 21
757 1 0.842135 19.0736 5.29756 18
758 1 6.39377 18.9541 20.4599 20
759 1 2.79646 3.7503 2.76816 19
760 1 17.5922 25.3317 13.7027 23
761 1 0.551419 3.89987 29.6231 23
762 1 18.1887 9.9412 67.3519 20
763 1 32.089 9.95638 12.009 20
764 1 7.64686 29.3309 2.52373 21
765 1 31.6778 12.0177 48.9244 20
766 1 26.0398 31.9129 49.1935 18
767 1 30.0163 23.04 60.01 20
768 1 11.199 32.3615 8.98476 25
769 1 11.2233 14.305 51.0101 18
770 1 17.6885 4.30047 1.89247 20
771 1 25.9475 26.7321 27.6013 20
772 1 2.90486 27.5682 13.0141 21
773 1 20.3103 21.3753 64.6546 21
774 1 14.564 13.4501 28.895 20
775 1 3.09738 4.56766 58.3206 18
776 1 25.3491 26.7116 2.99143 22
777 1 21.5974 15.198 16.7471 22
778 1 32.9625 10.5496 32.2849 23
779 1 5.31616 24.4588 18.7665 20
780 1 23.2086 21.0046 6.2345 20
781 1 0.703373 7.93649 54.966 17
782 1 12.8409 25.868 59.4337 23
783 1 32.2736 30.04 8.28249 22
784 1 15.7402 25.3032 67.0056 20
785 1 31.4429 28.0695 53.341 19
786 1 21.7849 20.6305 58.86 18
787 1 22.7661 3.64231 18.3348 21
788 1 24.1175 9.55386 66.4471 22
789 1 15.9449 0.742487 13.9398 19
790 1 11.2661 20.9385 57.3378 22
791 1 8.04342 4.32473 -0.392971 19
792 1 27.1034 5.84494 62.5668 19
793 1 23.9411 1.83908 53.774 20
794 1 29.2015 19.6827 19.8437 21
795 1 28.2143 13.5596 26.1911 23
796 1 0.672932 21.0105 52.4066 18
797 1 21.0465 32.2341 36.2803 19
798 1 13.7222 19.8131 12.2256 16
799 1 3.29244 2.01943 59.6161 19
800 1 18.4357 25.4151 9.80927 21
801 1 21.4954 12.4086 7.51301 23
802 1 17.1481 7.68297 9.16451 21
803 1 24.6666 15.1765 18.4317 23
804 1 26.9729 2.21833 5.26317 22
805 1 6.50524 27.7663 16.0575 21
806 1 27.5244 25.9904 5.71802 21
807 1 13.2702 7.73185 64.2307 17
808 1 31.2543 17.6226 19.883 21
809 1 29.3803 4.19722 8.9173 19
810 1 3.84685 0.641068 47.804 23
811 1 10.2833 9.41536 32.4146 23
812 1 1.54775 8.83327 2.42274 21
813 1 12.8813 23.2796 58.059 20
814 1 3.65423 10.1648 11.1894 20
815 1 7.64339 4.06659 9.59995 20
816 1 5.76391 18.2801 33.394 22
817 1 20.2175 6.13999 17.6045 19
818 1 12.7186 22.6441 2.11636 20
819 1 16.2698 20.4719 10.5431 19
820 1 7.19107 22.844 20.3196 25
821 1 2.93715 14.0938 8.00415 15
822 1 11.6886 29.471 41.108 22
823 1 18.8219 8.12915 40.5423 18
824 1 30.4517 32.7779 47.5163 22
825 1 8.31947 1.53709 25.5532 18
826 1 18.3942 1.5641 37.5878 19
827 1 1.3018 4.05931 53.91 21
828 1 11.3938 4.27487 15.9505 20
829 1 32.4318 28.0513 45.6713 21
830 1 9.04849 32.7261 2.53059 20
831 1 18.4515 23.4884 23.0965 16
832 1 0.552946 24.2143 57.1147 20
833 1 33.0641 26.3288 28.5829 22
834 1 12.495 30.1108 3.73546 20
835 1 5.10085 14.7651 59.2623 19
836 1 10.4856 31.8166 36.8346 20
837 1 18.8781 30.5773 16.8743 19
838 1 32.1118 8.10234 57.2605 21
839 1 21.1495 12.3662 64.7723 20
840 1 17.4194 15.7536 21.8932 17
841 1 8.29931 14.8159 35.4262 18
842 1 29.533 16.1263 39.8298 20
843 1 1.1726 15.1156 58.588 18
844 1 6.41967 2.94567 66.2023 19
845 1 3.28281 4.06591 27.5653 21
846 1 4.11575 6.13535 47.3772 19
847 1 9.03318 4.56871 64.6523 21
848 1 14.4592 9.53821 22.1569 20
849 1 30.9179 1.85479 37.5716 21
850 1 7.85259 29.0199 57.9296 21
851 1 1.46427 14.1083 20.0559 21
852 1 9.93847 3.17797 54.7303 19
853 1 9.44322 2.41399 8.38097 21
854 1 25.6004 27.82 64.9725 18
855 1 10.6495 7.97014 65.4617 18
856 1 23.7015 2.39817 15.5426 17
857 1 18.1385 19.6856 38.7124 21
858 1 10.5306 20.0871 0.666712 22
859 1 29.5567 19.3414 -0.654709 21
860 1 22.6499 16.2702 13.5226 23
861 1 30.0958 14.9902 3.20016 19
862 1 29.4838 19.537 14.651 19
863 1 31.2446 26.0267 34.5923 18
864 1 13.7106 29.0136 48.5088 19
865 1 4.3963 12.6361 10.4336 22
866 1 23.9397 5.72149 58.0817 21
867 1 0.258752 29.5378 28.201 19
868 1 12.997 19.3774 1.9639 22
869 1 26.2011 14.665 4.33138 21
870 1 31.2461 25.7901 26.2547 20
871 1 15.0446 16.6842 67.2695 22
872 1 3.60636 22.3804 51.2233 20
873 1 13.8886 16.2723 20.8171 18
874 1 28.6606 5.29018 2.09028 20
875 1 9.59768 6.44398 32.0634 20
876 1 17.8698 2.85646 28.0945 20
877 1 31.9589 9.36421 1.93584 22
878 1 21.577 31.1103 40.8886 16
879 1 1.96246 1.34112 2.41032 19
880 1 28.1769 12.164 62.2927 20
881 1 9.49945 3.39493 45.0758 19
882 1 29.6848 21.0025 12.2997 20
883 1 31.3444 27.7237 37.3618 20
884 1 30.2628 8.38551 19.9948 17
885 1 0.714278 6.00947 47.732 21
886 1 21.8829 25.7645 6.5605 18
887 1 7.80416 23.966 27.6343 19
888 1 5.38593 7.5524 11.6752 21
889 1 25.8418 28.3987 -0.19735 21
890 1 27.5547 15.2119 2.17209 19
891 1 15.7869 24.5944 15.9301 21
892 1 23.318 7.52823 56.3303 20
893 1 32.5367 1.28653 0.305031 24
894 1 14.8081 8.72568 25.4359 20
895 1 13.8399 7.38672 19.422 19
896 1 6.8303 3.19831 28.0179 18
897 1 21.2854 26.4261 18.4594 23
898 1 16.6062 2.0832 31.5452 19
899 1 9.76229 6.40212 20.1206 20
900 1 26.3255 7.82671 29.1042 22
901 2 18.5918 4.05716 9.63878 20
902 2 22.6428 29.5298 21.419 21
903 2 31.8567 14.645 66.1072 23
904 2 22.6807 15.8374 49.6094 26
905 2 31.9583 19.3557 60.1084 22
906 2 20.8729 7.62415 64.9235 16
907 2 32.8519 7.99951 36.1129 20
908 2 29.2477 25.3446 65.9475 20
909 2 21.763 24.6074 22.8072 20
910 2 12.9344 14.9931 12.3133 19
911 2 21.984 22.8856 -1.13026 24
912 2 21.2177 11.6195 9.21586 17
913 2 22.9622 22.3285 9.41374 23
914 2 4.48046 31.7244 11.7829 21