ITEM: TIMESTEP
2000
ITEM: NUMBER OF ATOMS
2000
ITEM: BOX BOUNDS pp pp pp
-30.0 30.0
-30.0 30.0
-30.0 30.0
ITEM: ATOMS id type x y z Coordination
1 1 -9.59203 4.79323 -14.5459 13
2 1 -3.57193 -9.42119 -8.12639 23
3 1 2.63146 11.768 12.8586 20
4 1 7.71552 -10.5282 8.73117 13
5 1 -11.9167 9.85753 -2.16157 21
6 1 11.172 -9.62134 -10.8848 11
7 1 -12.1466 3.76492 -7.23606 19
8 1 -0.625327 -6.88348 10.4503 19
9 1 -8.67835 1.20532 -11.2064 18
10 1 -14.0693 -9.88342 6.63658 10
11 1 12.7992 2.65292 -10.2424 16
12 1 -3.98215 -13.1282 2.00229 20
13 1 -13.4178 -8.21358 4.07373 18
14 1 1.15242 3.46524 15.743 15
15 1 0.239198 4.6048 10.213 18
16 1 -1.3776 11.0481 -8.50343 19
17 1 2.83886 -0.185814 12.1924 20
18 1 -8.56736 -0.445271 -16.1606 12
19 1 -13.3568 -3.42054 12.479 13
20 1 13.9992 4.38911 7.40234 23
21 1 0.257005 10.3539 -10.8276 19
22 1 3.51654 5.2746 -13.7031 21
23 1 15.1948 1.89201 12.847 14
24 1 -13.8721 5.05962 -9.77336 13
25 1 -4.48484 0.932168 -8.6045 22
26 1 -11.6695 10.2613 9.10346 11
27 1 7.25674 -14.1069 7.30307 10
28 1 2.11326 -13.1238 -10.8799 17
29 1 8.85346 -12.336 1.0288 12
30 1 -8.57429 -14.1607 -5.6027 11
31 1 -12.2804 -5.62092 10.3187 17
32 1 1.36687 -7.5689 -12.28 23
33 1 9.55826 -10.311 -13.2205 10
34 1 -2.5847 5.49405 -17.2912 12
35 1 1.00357 3.63066 12.9235 21
36 1 -0.912615 -11.8583 7.14763 20
37 1 6.24634 -4.9876 12.4736 16
38 1 -12.3695 -0.40391 1.76258 17
39 1 -16.7445 -1.55684 8.38757 14
40 1 -9.90016 0.858566 -2.88646 22
41 1 -3.53353 12.6501 -2.47986 19
42 1 -0.699191 -14.4948 -11.4945 12
43 1 0.622 3.87608 -9.18115 21
44 1 5.37103 -5.79371 -10.0088 21
45 1 -1.70109 -4.59724 13.105 13
46 1 -12.5655 6.21295 -1.72607 23
47 1 3.19829 11.4538 -12.296 16
48 1 1.05461 13.2384 8.21649 21
49 1 -9.70096 8.50896 -7.97453 19
50 1 -1.38514 13.9006 -0.425461 18
51 1 1.82473 -13.0996 2.94195 22
52 1 5.90068 -7.99354 -5.83781 19
53 1 5.55019 -5.58765 -16.1733 14
54 1 -9.1607 7.88336 10.3305 20
55 1 -13.6478 -3.7755 -10.0044 12
56 1 8.31412 0.253535 6.65995 19
57 1 -7.72142 7.7322 -5.70092 18
58 1 -9.08732 -10.6906 7.23134 19
59 1 -3.15504 14.3017 12.5911 11
60 1 -12.7596 7.13756 -7.38565 17
61 1 -6.42949 9.4672 11.4149 18
62 1 -7.00205 -15.2516 7.73859 21
63 1 2.75793 6.19488 7.8047 19
64 1 5.68257 -15.7388 -2.8316 11
65 1 4.84606 12.1213 15.1582 15
66 1 -14.4859 2.35231 -10.7426 13
67 1 -12.3033 8.38211 -10.6282 13
68 1 5.37954 6.15239 12.1912 22
69 1 13.3151 -2.89146 -11.0717 12
70 1 8.88126 -12.0035 5.94775 10
71 1 -17.1275 -2.12298 4.80939 11
72 1 5.07816 16.2619 6.20629 15
73 1 5.69195 -1.98602 13.0822 20
74 1 -7.14668 -12.9873 6.03948 19
75 1 -11.4592 -1.39992 -0.47585 19
76 1 12.196 2.58308 6.14089 23
77 1 7.24437 -3.00012 -3.89178 17
78 1 -1.57598 12.054 9.84496 21
79 1 5.54238 -1.63516 7.04325 18
80 1 -2.73622 -6.52609 -8.31685 18
81 1 -12.6824 7.24959 8.56036 16
82 1 -8.62891 10.0281 -0.457624 17
83 1 -2.65092 8.57438 -9.853 18
84 1 7.65353 -4.65426 -6.29869 16
85 1 9.06597 13.0989 -8.25279 13
86 1 8.09152 -7.62822 2.10502 19
87 1 5.02144 -9.64369 10.2345 15
88 1 -6.56393 16.3512 -5.25413 9
89 1 -10.6303 12.0847 4.27499 15
90 1 -7.95167 -4.11943 15.0612 13
91 1 -5.23494 8.68656 5.73367 20
92 1 -6.47127 -6.07805 10.08 18
93 1 12.3625 -7.5971 -6.28888 18
94 1 -10.4605 2.38778 3.5553 21
95 1 -10.7494 -13.7008 3.32512 12
96 1 8.96596 -7.51534 -5.53137 20
97 1 4.89622 0.315181 -11.3972 19
98 1 -6.11703 0.755925 -16.31 12
99 1 -1.51025 12.605 2.56943 17
100 1 -7.95389 5.75143 -9.37311 20
101 1 1.00521 8.94347 18.481 10
102 1 -0.258657 14.4659 -6.50672 20
103 1 -14.0525 10.8434 -0.293201 14
104 1 0.137056 10.2896 0.689629 20
105 1 -5.67393 -8.68679 9.06705 19
106 1 14.7441 -0.583672 10.0874 14
107 1 -0.411061 -4.02903 -8.0482 19
108 1 4.89731 -9.1272 -8.01204 20
109 1 -2.83679 3.59087 8.60549 23
110 1 5.59159 -0.921239 16.3473 12
111 1 -9.48976 -6.57512 -1.56549 19
112 1 -8.56246 -8.61405 -5.10086 21
113 1 9.28319 -9.99145 2.91745 13
114 1 -3.94282 8.86886 2.5158 19
115 1 7.40179 2.7787 -15.1573 18
116 1 5.84455 17.7506 -2.48076 11
117 1 -8.63802 -13.716 11.9128 14
118 1 -10.956 -14.1789 9.90676 14
119 1 4.29609 -8.26281 -14.5331 16
120 1 3.39115 7.93452 -5.75207 17
121 1 10.2701 -9.84362 -1.40014 15
122 1 -1.68041 -16.4829 6.19481 14
123 1 -8.62977 -9.40546 0.788959 22
124 1 16.2772 6.47351 8.80788 14
125 1 15.3775 -3.2016 -8.40195 12
126 1 -15.398 -5.18008 3.48198 14
127 1 10.6133 9.3286 6.14297 20
128 1 14.1162 9.43232 3.5329 15
129 1 -5.99353 3.73445 16.0125 11
130 1 -4.51269 10.6212 10.0114 20
131 1 -5.98121 13.2859 -6.29254 18
132 1 -1.04198 -6.39809 -10.7542 19
133 1 8.70856 -12.5259 -11.2893 11
134 1 0.605673 15.4598 -11.937 11
135 1 7.92863 -3.01717 12.0392 18
136 1 1.1091 -1.25353 -18.3123 13
137 1 -2.41703 8.52726 -6.49076 18
138 1 10.2507 0.552026 -4.90596 18
139 1 -10.2509 9.23557 -5.44837 17
140 1 -9.41631 14.6623 -1.09505 13
141 1 6.98559 2.56156 -11.9043 19
142 1 7.82264 -8.9008 5.3266 16
143 1 -5.8415 5.11568 -6.52033 16
144 1 -7.59567 13.5814 8.629 14
145 1 13.6264 8.7407 -8.06379 13
146 1 3.92507 11.0602 -2.93416 20
147 1 -4.44505 17.2892 0.795237 9
148 1 10.1961 10.1852 -1.10115 17
149 1 -2.74384 9.9055 -4.0382 20
150 1 0.727345 16.159 -8.76065 15
151 1 3.84878 10.8273 -15.1165 10
152 1 -13.5282 -11.0314 2.99879 12
153 1 -15.3775 9.73583 -2.74757 13
154 1 -5.45472 -3.00565 -12.6862 24
155 1 1.20262 -9.57643 -15.007 17
156 1 9.82968 13.6877 9.47401 11
157 1 -0.224076 15.9203 6.63213 15
158 1 -13.5994 -3.75143 -4.74582 20
159 1 -13.0966 12.3216 2.95108 10
160 1 15.4622 -0.445959 -2.91017 12
161 1 -11.1453 1.85333 -15.9456 10
162 1 6.7619 2.15485 16.4738 17
163 1 4.56255 17.4508 3.20125 13
164 1 -2.50399 9.49434 7.97264 20
165 1 2.65864 -7.70234 -17.3144 10
166 1 -4.36953 13.9435 9.70925 19
167 1 -2.58879 12.7087 -5.78596 21
168 1 3.11833 -4.49141 13.1201 13
169 1 -12.1553 -5.33411 4.59008 21
170 1 -2.7168 -11.5872 -12.3175 16
171 1 -9.43531 11.474 -9.62657 10
172 1 -2.75083 -10.817 4.33934 20
173 1 2.93526 -15.9735 -4.77422 14
174 1 -3.80681 11.0683 -11.1077 17
175 1 -15.3946 1.61831 8.79951 13
176 1 11.1072 9.76116 -4.50384 23
177 1 -7.92291 5.56346 15.2068 9
178 1 -0.40037 -10.0905 10.084 13
179 1 -8.5453 3.59086 -1.64875 20
180 1 1.25945 16.4682 3.8564 17
181 1 -0.148954 7.38824 8.21443 15
182 1 14.1246 5.00909 14.2195 14
183 1 -6.84441 13.5254 3.24195 20
184 1 12.9634 -5.73118 -9.21862 15
185 1 -6.29614 12.8207 11.6114 11
186 1 -6.67876 2.65505 -6.98553 17
187 1 11.9993 -7.64206 2.87327 11
188 1 -2.72195 -6.49617 5.75958 17
189 1 -16.2332 0.543428 5.98987 14
190 1 -8.23838 -10.2404 4.47901 20
191 1 5.94636 6.73927 15.8581 18
192 1 -13.3883 0.644605 -2.03021 15
193 1 -3.144 -14.2368 -0.431617 22
194 1 5.10692 -8.46331 -2.54383 23
195 1 -3.33235 10.6378 4.68073 19
196 1 5.2071 14.0989 12.2181 11
197 1 -8.49359 -1.94084 -4.64254 19
198 1 -6.93987 11.8826 -9.14078 16
199 1 -15.1861 -3.66523 -6.93218 12
200 1 -10.0567 -2.19572 11.8014 19
201 1 0.323394 -10.3133 4.21218 22
202 1 4.03473 -15.1646 7.67962 13
203 1 -11.9998 9.89608 2.50215 16
204 1 14.5343 3.93595 4.26146 18
205 1 5.54029 4.64569 -5.95598 19
206 1 -5.87414 -5.48378 -13.9205 14
207 1 5.28989 0.975186 10.9668 20
208 1 6.0991 -17.468 3.53079 10
209 1 -2.17065 7.85489 -12.3887 22
210 1 3.02131 -10.6416 -12.6715 18
211 1 8.63234 0.400923 -13.366 18
212 1 3.21319 7.62681 -15.8161 15
213 1 -8.10589 -3.23313 -7.84033 23
214 1 -3.82441 15.3609 -7.08977 15
215 1 -10.9682 -11.3101 11.5183 12
216 1 7.63935 15.9298 -1.81172 15
217 1 -8.67732 2.29681 15.3837 11
218 1 -7.90105 13.7126 -3.6946 16
219 1 7.12502 1.61496 8.86884 18
220 1 -3.55937 -6.0998 -12.4661 22
221 1 -4.19694 10.5096 -7.38647 19
222 1 2.07356 5.93973 -7.56297 17
223 1 -7.96072 -13.0749 9.10638 22
224 1 -8.5248 4.11041 5.67931 18
225 1 -6.62177 7.88231 8.58867 24
226 1 0.816945 -11.7588 -7.23061 16
227 1 -6.20009 -14.906 -0.0601299 19
228 1 9.49516 -12.8921 -2.48065 11
229 1 11.6546 7.46726 13.7909 16
230 1 5.33454 9.95601 -7.9865 18
231 1 -0.40896 10.6146 -2.1774 20
232 1 -9.44418 -0.106912 2.41716 17
233 1 -13.4902 12.8368 -2.99613 11
234 1 2.72088 5.88319 10.5046 19
235 1 3.82063 -18.8641 1.27261 12
236 1 12.7335 -0.0652304 -2.61645 23
237 1 2.32647 8.65319 6.12624 21
238 1 -10.5627 5.84312 3.3154 22
239 1 -11.3784 -6.05554 -4.77533 23
240 1 6.46505 5.43111 -12.3699 21
241 1 4.48563 -2.46253 10.5637 21
242 1 8.1995 10.3446 -9.79142 16
243 1 2.15371 -11.0694 -2.91562 18
244 1 -3.2563 -0.776395 -11.3418 24
245 1 0.133474 -19.2667 5.64731 10
246 1 9.57506 -0.697136 -7.66732 18
247 1 -11.3843 -2.99171 5.67196 19
248 1 2.84312 -16.6397 -1.50415 16
249 1 -10.5593 -5.00085 -9.44665 21
250 1 4.10163 15.2186 -2.10982 20
251 1 0.992626 -2.7122 -15.2031 22
252 1 4.09736 3.69408 15.4077 18
253 1 14.5955 3.08441 1.33599 13
254 1 10.812 -4.94531 -11.1103 15
255 1 -8.65267 -2.25736 -10.7906 22
256 1 -11.6769 1.46442 -9.91315 21
257 1 -8.32441 -16.3617 10.2021 13
258 1 10.3213 1.41194 9.4318 19
259 1 5.27597 -4.67496 9.04107 21
260 1 -5.58586 -7.51807 -10.3728 23
261 1 2.00279 -4.77132 7.21905 18
262 1 1.11019 8.36295 -13.0688 20
263 1 3.56134 11.2527 1.21486 21
264 1 -7.33037 -7.28397 3.10594 20
265 1 1.45049 13.0494 2.2938 17
266 1 -7.26126 -3.23412 12.1603 21
267 1 -10.7182 -8.00661 -9.59644 13
268 1 -6.72561 -4.55691 -11.0004 23
269 1 -1.77657 7.92457 -15.0328 16
270 1 -6.60221 -9.46198 -7.42098 23
271 1 -2.81651 -10.7057 1.01829 20
272 1 8.61146 -4.92061 -14.855 14
273 1 14.3826 -0.23579 -9.32476 15
274 1 11.188 4.17717 3.8529 23
275 1 -9.48257 -5.17479 10.3206 18
276 1 -3.10557 -11.6463 -2.24619 19
277 1 8.07745 4.80692 16.6612 18
278 1 -6.94924 -15.822 4.59485 18
279 1 -0.838201 -12.4419 1.23416 22
280 1 -2.5019 16.2509 -1.66986 17
281 1 5.50851 -0.307188 -14.0023 20
282 1 -5.20104 -2.92318 -16.2335 11
283 1 -10.4436 -8.07477 11.9128 15
284 1 3.55225 7.41407 19.7383 11
285 1 1.48003 -11.5787 -0.317882 18
286 1 -4.94751 -11.0141 -9.81091 18
287 1 -10.897 5.86214 -9.41575 21
288 1 11.4004 5.89471 6.72976 21
289 1 -6.17103 3.4807 -10.396 21
290 1 0.334679 7.27556 -10.4115 20
291 1 7.01993 -14.2569 -8.89281 13
292 1 -5.93402 15.5422 -1.76886 16
293 1 2.63643 11.9644 5.48691 20
294 1 10.8966 0.496347 5.12713 21
295 1 -8.43817 -2.34212 5.44099 19
296 1 -2.62642 -7.22209 12.7722 12
297 1 -6.8952 10.1408 3.32248 22
298 1 2.62404 -5.25428 -11.9506 19
299 1 14.7628 10.3611 -2.53173 10
300 1 3.14728 -10.7676 2.47709 21
301 1 -2.16243 -1.43493 14.1883 11
302 1 -16.5972 -4.46399 6.6085 11
303 1 -0.33404 -16.4948 -3.16313 14
304 1 -8.95588 8.09051 13.3927 10
305 1 -10.0473 5.44262 12.6528 18
306 1 -15.1 -4.08996 9.74994 12
307 1 -14.0611 -6.7766 7.91412 15
308 1 12.9505 -3.28075 -2.59227 21
309 1 -11.4819 -8.72444 8.87979 17
310 1 7.77079 -2.92745 -8.65016 19
311 1 9.96996 -12.7976 -5.0672 14
312 1 2.92354 18.3058 -3.30825 14
313 1 -10.7697 14.8094 -4.37943 9
314 1 10.1139 6.63176 10.7715 18
315 1 -9.71847 -2.93656 3.04204 20
316 1 7.8534 -10.2986 -3.71295 22
317 1 -4.09912 11.7248 1.42144 18
318 1 -7.74289 6.61628 4.61504 17
319 1 4.72619 -12.639 8.25775 15
320 1 12.534 -5.2707 5.36856 12
321 1 -3.1493 6.41966 7.51497 20
322 1 -5.81384 -3.96945 -4.83153 21
323 1 -1.07078 1.66433 14.6111 16
324 1 -3.78171 13.7802 4.11999 19
325 1 9.40984 7.45175 16.4862 15
326 1 -8.87252 13.92 -6.95407 13
327 1 1.05926 -4.65419 -17.9611 13
328 1 6.58252 -10.2673 -12.454 14
329 1 -9.25728 2.65542 11.705 22
330 1 -16.0739 3.7317 3.06737 9
331 1 -5.42718 -4.50092 -8.36742 21
332 1 -5.81176 9.38076 0.113658 17
333 1 9.26957 -2.18167 7.53041 19
334 1 -10.3599 -11.098 2.03734 17
335 1 6.97172 -7.74597 8.20061 18
336 1 -8.29248 -10.7183 13.2185 14
337 1 -14.5392 7.64788 -0.496219 16
338 1 -0.470899 -4.25715 8.85207 16
339 1 2.83305 -12.7209 -5.70804 17
340 1 -5.79914 -1.57634 -9.1754 23
341 1 7.31171 -2.64391 -14.7564 17
342 1 4.88384 12.8557 3.72709 17
343 1 -12.5969 -1.41717 -3.59958 20
344 1 4.57254 -8.20461 -10.9342 19
345 1 9.08503 5.35349 -13.9713 12
346 1 -4.35153 -15.1184 -6.39667 15
347 1 -14.4848 -6.92813 -5.30083 11
348 1 -4.63955 -9.58344 -1.65195 19
349 1 11.7852 5.14172 16.4632 13
350 1 12.2599 3.63791 -2.6453 18
351 1 -9.58298 3.74143 -11.6888 22
352 1 3.72711 17.7745 -0.00584813 15
353 1 -14.6 -0.434002 -5.55871 14
354 1 -8.44718 8.83563 6.05075 15
355 1 -8.71025 12.0588 1.91086 20
356 1 -5.55895 5.84293 6.62093 21
357 1 11.166 4.67345 13.2667 19
358 1 12.1975 -2.12441 -5.64733 20
359 1 8.427 -3.00967 15.1637 14
360 1 11.8582 1.15229 -7.4013 21
361 1 -6.09548 -16.1961 -4.09519 13
362 1 -0.238516 -6.83183 -6.24365 19
363 1 0.279618 10.4703 3.86107 20
364 1 -9.62172 2.43396 -5.53602 17
365 1 5.26296 -11.546 -1.75301 19
366 1 11.6914 -0.55305 7.8149 20
367 1 -10.8729 -2.98822 -6.24848 21
368 1 -6.06834 -10.2651 2.19263 19
369 1 -8.20146 -7.48826 14.1294 11
370 1 -2.9826 9.32264 -0.85779 20
371 1 -11.2843 -8.91554 -2.83672 18
372 1 6.87003 9.76286 16.3181 15
373 1 -9.76013 6.86152 -3.45525 21
374 1 0.620786 13.4351 -9.03126 23
375 1 5.96614 13.2417 6.41058 16
376 1 -14.5522 -8.02001 -1.88986 11
377 1 -1.00907 -9.35955 -7.17757 18
378 1 -13.4577 -0.57288 6.58878 20
379 1 -12.8932 7.44269 -3.9693 21
380 1 4.86227 -9.75998 6.79699 20
381 1 -5.46634 -13.3159 -2.88488 21
382 1 12.1178 11.7525 9.45929 15
383 1 5.14702 8.11655 -13.6415 15
384 1 -12.3871 5.10457 -12.1813 14
385 1 -2.29352 15.8517 -10.0111 12
386 1 -10.2847 6.04898 -6.46594 23
387 1 -1.72378 -13.406 4.32556 18
388 1 13.4793 7.14649 5.02538 24
389 1 0.760664 9.95622 -15.7307 13
390 1 -3.40786 0.621508 10.0309 15
391 1 -16.0017 2.1396 0.156647 10
392 1 -7.63852 0.676339 4.60156 18
393 1 -4.90319 -13.9717 4.70874 20
394 1 7.49889 -9.50551 -9.70778 17
395 1 -13.4706 0.81793 4.012 15
396 1 -13.7451 -1.1636 10.095 16
397 1 -12.8456 6.87789 5.65795 13
398 1 -0.129199 -6.67502 7.19337 19
399 1 -8.4603 2.76707 -16.8827 11
400 1 7.80765 -10.8865 -6.63735 20
401 1 0.0211389 -10.4304 -12.4446 21
402 1 -3.92149 -5.12866 10.7344 15
403 1 2.89866 -7.71605 -4.30987 19
404 1 -4.7996 3.06556 -16.2118 14
405 1 5.7013 -12.9471 2.27701 17
406 1 -0.0740379 11.8304 -5.57509 19
407 1 -13.2021 10.2707 6.03469 10
408 1 -5.02755 -2.67687 14.9258 12
409 1 -11.4078 -5.90733 -12.195 12
410 1 -8.48907 -7.39718 7.66373 21
411 1 10.3298 -4.84433 11.0381 14
412 1 2.36788 0.99052 -9.57985 21
413 1 8.19845 -5.3845 6.5118 18
414 1 13.6762 8.15763 -4.93575 18
415 1 -2.22266 2.77941 11.6464 22
416 1 1.64252 13.0682 -1.46522 22
417 1 5.88339 -6.95185 4.83462 20
418 1 -2.97453 -14.0995 -3.9331 22
419 1 -4.33959 6.24054 15.9664 11
420 1 -3.32048 16.2229 6.94182 12
421 1 -9.85853 -10.9735 -7.48134 15
422 1 8.86568 15.8986 1.49124 14
423 1 5.25269 7.68721 8.37451 19
424 1 -7.16643 1.76861 9.17805 18
425 1 -5.81309 -6.75711 -3.17276 19
426 1 -10.9429 4.22626 9.70718 18
427 1 -8.60773 -6.13249 -6.57625 21
428 1 -6.01923 10.9442 7.42216 21
429 1 -5.05232 -12.2533 -6.12958 20
430 1 -1.61518 -8.05105 -13.8176 23
431 1 -7.61263 -12.7895 2.48743 19
432 1 -6.07629 -5.02408 5.58426 17
433 1 9.1453 3.19542 6.26115 22
434 1 -5.35472 -5.7141 13.2732 16
435 1 -9.59986 6.42052 -12.5545 15
436 1 7.9129 6.08384 -1.74103 20
437 1 -8.46757 -13.8023 -2.7949 15
438 1 0.349993 16.6763 0.951458 12
439 1 -1.06883 6.24379 -7.84106 21
440 1 -1.95199 9.22564 11.2597 23
441 1 -13.9124 -3.19416 -1.35126 15
442 1 -0.485045 18.1964 -3.94337 10
443 1 5.65763 13.1365 -6.54562 21
444 1 -7.83577 -6.73974 -8.83353 21
445 1 3.72936 1.28111 17.3007 14
446 1 0.473807 -14.3603 -8.30801 16
447 1 -0.234624 -3.30553 -11.1028 20
448 1 7.66097 -14.4611 3.79442 11
449 1 -9.18483 8.80942 2.38755 18
450 1 3.12662 6.13215 14.1457 18
451 1 8.22359 8.84511 -3.1879 20
452 1 2.44974 9.30532 -0.841625 20
453 1 -7.51832 8.84506 -10.8137 18
454 1 3.30725 3.42938 -7.15566 19
455 1 2.61977 -7.98441 5.23506 21
456 1 -15.4241 -5.23768 -0.0960321 12
457 1 2.39064 17.854 5.84277 10
458 1 -4.50835 3.77689 -13.0692 21
459 1 10.5786 6.89301 -0.070151 20
460 1 6.28816 15.2867 -8.1581 11
461 1 6.27321 -6.28658 -0.524192 18
462 1 15.1816 2.73717 -1.87636 14
463 1 -0.365505 -0.427045 -13.0487 22
464 1 -0.154418 -9.42902 1.78109 20
465 1 0.998924 -14.3975 6.27512 18
466 1 2.03786 -9.37498 11.1198 11
467 1 -9.09378 3.26618 -8.53731 23
468 1 -10.3622 -14.0338 6.57489 15
469 1 -1.95117 -12.0048 -9.71104 21
470 1 8.38799 14.5306 6.60051 17
471 1 0.697486 4.36256 -12.5113 20
472 1 3.21425 -1.8446 15.3552 14
473 1 -12.9059 1.91297 10.7233 16
474 1 -1.6404 -17.2757 0.644788 15
475 1 -12.3746 -4.00612 1.53815 19
476 1 13.4885 -5.06459 -6.52635 17
477 1 10.315 -1.99311 -3.06895 17
478 1 -5.15461 7.51618 -4.67398 20
479 1 2.27777 -8.90722 -6.81805 19
480 1 3.67432 3.69827 -10.8202 20
481 1 10.3528 -4.51489 -7.49556 21
482 1 -6.23905 0.497705 14.6571 19
483 1 6.28774 15.2274 1.18139 21
484 1 -4.22429 -0.673379 -14.6955 17
485 1 6.16164 2.85977 -17.9527 13
486 1 -7.81865 -3.95579 7.79805 20
487 1 -4.25107 14.3127 0.482348 21
488 1 -7.6209 -1.23444 -13.5322 18
489 1 -16.1619 -0.518836 2.47511 12
490 1 -1.5278 -10.3929 -15.1985 12
491 1 -6.13765 -11.3384 10.4862 16
492 1 1.16862 9.42651 -7.91078 24
493 1 16.1455 3.40837 9.62154 12
494 1 13.6487 5.64467 -0.840947 18
495 1 -10.8088 -11.9825 -1.27553 14
496 1 -1.00363 -9.74497 -1.37432 20
497 1 -1.79919 -2.87512 -17.4079 14
498 1 -8.45087 10.4936 8.8265 19
499 1 2.62433 -4.33418 -8.78654 19
500 1 11.0866 -2.18973 -0.144711 23
501 1 3.12438 14.634 -7.35907 20
502 1 5.35757 -8.89306 0.747296 17
503 1 14.1853 5.51448 -9.6686 12
504 1 3.7431 9.19722 14.3254 21
505 1 -9.58335 1.80636 7.4108 16
506 1 5.28967 10.3662 10.8227 17
507 1 8.35439 -0.718431 17.4236 10
508 1 0.744227 1.99415 -14.8208 19
509 1 -5.72624 -6.64136 -6.32975 21
510 1 0.991801 -2.03373 9.99906 15
511 1 9.17834 11.6006 7.65724 20
512 1 6.90335 7.70528 -9.54245 20
513 1 -7.04778 10.5548 -5.86186 18
514 1 -0.921343 13.7624 -3.32832 21
515 1 11.2382 -2.31169 13.1415 14
516 1 10.2235 2.68681 -12.2294 18
517 1 11.7595 -10.6456 -4.0659 12
518 1 12.3123 10.0219 11.6637 12
519 1 -15.1151 -8.19983 1.47401 12
520 1 -6.65703 11.9112 -11.9121 9
521 1 -0.615285 1.45185 8.73032 19
522 1 -13.1283 -0.114823 13.4631 11
523 1 -4.25195 13.101 -8.99863 16
524 1 3.46907 -13.7061 -2.81766 21
525 1 5.36283 -1.96134 -9.57442 23
526 1 -3.16742 15.7895 -4.39762 19
527 1 -8.6832 -4.40414 -13.591 14
528 1 3.69034 -15.5427 4.67265 15
529 1 -12.1266 -6.19443 -1.08208 19
530 1 0.962019 12.6437 -14.3191 10
531 1 -1.55843 8.77765 14.4361 17
532 1 -11.099 -5.74331 7.7596 22
533 1 4.49499 7.54227 -1.2739 20
534 1 2.43375 -10.6534 -9.14532 21
535 1 4.28137 -6.90033 11.3816 16
536 1 7.98388 2.22441 -5.60955 18
537 1 -11.5511 7.77982 0.408321 19
538 1 4.81632 4.65997 18.2953 13
539 1 5.14781 15.9554 -4.84389 17
540 1 11.0051 -5.17394 -4.60071 22
541 1 3.46751 8.53887 11.385 20
542 1 0.874533 5.20018 -18.4086 8
543 1 -5.6041 -14.4844 10.5447 11
544 1 -0.634185 1.79911 -11.3456 20
545 1 8.0395 0.191077 -16.4235 13
546 1 2.81009 14.7515 6.33252 19
547 1 8.75011 5.04291 -10.3248 21
548 1 -2.0971 -2.72164 -13.519 23
549 1 -5.01951 -9.85754 -4.82005 23
550 1 -11.2627 -3.20949 -11.7306 17
551 1 11.677 3.47064 0.43416 17
552 1 14.9226 5.12264 -3.77129 11
553 1 7.36447 -6.8217 -8.21462 21
554 1 14.1636 7.15364 11.3337 13
555 1 4.85215 -10.775 -4.72545 24
556 1 3.59326 5.00035 -17.2779 14
557 1 7.07263 12.1788 1.6658 19
558 1 -8.41924 3.51446 1.56198 20
559 1 9.77895 9.90993 14.3227 11
560 1 11.0446 6.5476 -3.19659 24
561 1 12.1983 -1.41582 2.23266 17
562 1 11.1886 4.62837 -8.5508 21
563 1 9.09568 2.75218 14.2645 22
564 1 15.8177 4.82548 11.8199 12
565 1 2.3208 -4.67251 9.88427 20
566 1 12.9161 12.7139 -2.51977 13
567 1 1.88138 0.977509 14.3022 19
568 1 15.8498 -0.338058 -6.40961 11
569 1 8.61654 3.53359 10.9976 23
570 1 -8.36271 0.120425 -8.11282 21
571 1 14.0162 6.15639 2.26599 18
572 1 7.32963 -4.85528 3.67407 16
573 1 -12.0172 7.68632 11.3983 12
574 1 9.27209 10.3581 10.9959 17
575 1 11.4034 1.32069 12.6048 20
576 1 3.16234 10.0693 8.18482 19
577 1 0.0634282 14.2296 11.5745 13
578 1 6.14111 3.65273 6.77925 18
579 1 -2.1716 -18.5486 3.67498 14
580 1 -5.8199 10.5416 -3.12813 17
581 1 10.6376 10.3231 -7.33096 19
582 1 10.1628 -2.62888 -12.7298 14
583 1 1.18347 16.1142 -1.83176 20
584 1 -2.32127 -12.4054 -7.00987 20
585 1 10.4626 -7.26494 -13.4534 11
586 1 -13.7605 2.90249 5.75894 15
587 1 -5.29931 6.81718 -11.1017 19
588 1 -4.34702 -16.4113 2.35114 18
589 1 -5.61086 0.419715 -11.6825 22
590 1 -12.9552 1.86672 -4.50853 22
591 1 9.54592 -6.79206 4.28376 19
592 1 10.8879 11.1492 4.24336 19
593 1 1.56965 -9.39376 7.89386 22
594 1 -13.7343 -0.517105 -8.82978 16
595 1 2.76506 1.98076 -17.9214 15
596 1 -2.39522 4.66214 14.6875 20
597 1 6.43302 10.644 -12.6722 11
598 1 13.7879 -1.08992 13.0451 10
599 1 8.48568 5.20495 -7.16437 19
600 1 11.9533 14.1792 2.67191 10
601 1 3.8671 -14.5834 -8.1054 13
602 1 -11.0798 -2.46957 14.8879 14
603 1 12.0679 -1.93999 5.11048 17
604 1 -0.735912 11.7223 13.2285 18
605 1 6.04901 12.6884 -9.73182 14
606 1 -13.076 10.3392 -4.81592 14
607 1 9.05826 8.95723 3.11576 20
608 1 -9.54858 -14.4979 0.627094 13
609 1 11.2372 -3.9368 2.27368 17
610 1 7.66978 16.9783 4.04777 12
611 1 -5.15931 4.59849 9.34017 21
612 1 -10.4267 -7.08651 1.89494 18
613 1 -10.3732 -1.18638 -9.01051 19
614 1 8.15008 0.499086 12.0155 24
615 1 -3.52229 -9.74976 10.4571 15
616 1 8.40509 5.98437 13.4417 22
617 1 -6.84013 13.3229 -0.386106 19
618 1 9.37468 5.28496 1.86056 13
619 1 8.07397 6.03305 5.25223 20
620 1 2.47523 -0.247769 -15.5485 23
621 1 -8.69738 -1.42304 8.19071 16
622 1 8.06243 -0.385413 -10.6385 19
623 1 10.7916 -9.92811 -7.22062 14
624 1 7.90012 5.21248 8.60381 17
625 1 5.05459 7.25089 5.23171 21
626 1 -9.81369 0.231119 13.9157 18
627 1 10.396 8.46456 8.85703 21
628 1 0.534818 -2.11625 13.2917 15
629 1 -1.17069 6.39999 12.0486 19
630 1 -0.0607844 -5.32367 -13.7803 20
631 1 -6.00805 2.71703 12.0528 18
632 1 6.49207 3.48306 13.0753 23
633 1 -10.694 -16.7971 7.64366 11
634 1 13.0523 8.5598 -1.59068 18
635 1 6.42018 -13.1508 -4.24568 21
636 1 6.02482 10.3559 -1.43567 19
637 1 9.33742 14.2219 3.83267 18
638 1 5.43316 -0.192702 -17.3342 16
639 1 2.45509 13.4753 -4.44838 24
640 1 11.7419 8.98978 1.90183 19
641 1 -7.59127 -9.44443 -2.19768 16
642 1 -1.08816 -0.287154 -15.8819 18
643 1 -11.4055 12.222 -0.158335 17
644 1 8.21178 -6.55882 -11.327 18
645 1 10.437 7.95638 -9.49565 19
646 1 9.59273 12.6884 -2.59158 16
647 1 -9.06392 6.43407 -0.010264 22
648 1 5.94954 6.95765 -4.36804 19
649 1 12.6632 2.19654 15.0969 15
650 1 10.3502 -0.244227 14.7552 16
651 1 -2.69289 -12.6995 9.87659 12
652 1 -4.80089 9.33286 -13.4703 15
653 1 3.74535 12.9334 9.97816 15
654 1 7.58094 -8.10761 -14.9708 9
655 1 2.51526 2.91012 9.39684 18
656 1 6.24482 13.137 -3.64194 20
657 1 8.02158 11.3743 4.32002 23
658 1 14.074 -5.87224 -3.26385 12
659 1 6.7088 7.47626 18.5227 13
660 1 -13.8849 -3.55999 6.81311 19
661 1 2.29342 -16.5261 1.79028 19
662 1 -0.075189 -1.16764 -9.40724 19
663 1 -10.361 14.6269 2.11068 12
664 1 2.78672 8.89271 2.92839 22
665 1 -14.0864 -2.62791 3.59514 17
666 1 -1.52933 4.16012 17.2605 11
667 1 -4.76821 6.48694 -14.8039 19
668 1 -7.94763 8.08024 -13.8806 9
669 1 3.64482 -13.5326 0.155261 20
670 1 8.04462 8.61716 -6.2195 22
671 1 -13.0441 4.81763 11.5402 14
672 1 3.79576 -2.63636 -13.241 16
673 1 1.63051 -12.7656 9.27395 13
674 1 2.86201 15.026 0.918622 20
675 1 -3.99635 1.67712 14.0503 16
676 1 -8.2969 -7.03201 -11.7893 15
677 1 -4.67033 -9.1736 -13.3617 13
678 1 -7.19883 -12.6939 -8.13558 14
679 1 -1.44254 17.4239 -6.95989 14
680 1 4.97482 -4.04087 -7.22071 20
681 1 -3.3667 12.1309 7.43205 18
682 1 4.9098 -11.8836 -7.70676 19
683 1 6.36718 -16.2706 0.837147 12
684 1 3.70101 -6.91113 7.91368 19
685 1 15.3238 2.68099 -8.09477 12
686 1 -0.206285 -14.4552 -5.2779 19
687 1 -11.1364 -2.71694 8.39707 17
688 1 -4.73643 -17.5006 -0.623051 12
689 1 -7.62887 -11.2382 -4.91004 19
690 1 -10.0095 0.302951 10.0953 15
691 1 -7.41756 -16.9168 1.82929 11
692 1 14.1025 5.94395 -6.94782 16
693 1 -4.8181 16.6228 3.71264 11
694 1 -6.03503 2.84792 6.8938 21
695 1 -13.6932 6.75913 2.52335 16
696 1 8.47983 -1.57333 2.10265 16
697 1 -13.1641 -1.02712 -11.6363 16
698 1 -0.383154 7.73546 -4.25532 17
699 1 9.55518 2.28572 -9.33447 18
700 1 7.09774 11.7299 13.1037 13
701 1 8.81141 5.36887 -4.5016 21
702 1 -14.6204 2.23389 -7.45136 14
703 1 -12.6974 -5.60364 -7.48677 17
704 1 -1.34818 7.11497 17.379 11
705 1 3.82764 6.74832 -11.0027 17
706 1 11.5235 13.3732 6.48535 13
707 1 -2.63265 -2.45764 8.80181 19
708 1 -3.43997 -16.6444 -2.99116 14
709 1 -8.1222 -18.025 7.04134 11
710 1 -3.60456 -6.00906 8.17805 14
711 1 14.941 9.5527 9.54723 12
712 1 2.32763 -7.2896 -9.23571 21
713 1 -7.15741 7.6807 -2.43451 15
714 1 6.14651 9.75835 3.10885 19
715 1 -8.89069 -5.17389 4.7405 21
716 1 8.50825 8.05313 -12.0902 14
717 1 -1.63347 -17.0443 -5.92862 12
718 1 0.811432 -19.4325 2.27465 15
719 1 0.528824 -15.2539 -0.256725 22
720 1 6.26107 3.88963 -9.24563 18
721 1 6.81109 18.1349 0.720618 13
722 1 -2.48064 1.48603 -14.0059 22
723 1 -0.31743 0.309323 11.8486 18
724 1 0.758185 6.2258 -15.527 20
725 1 -11.1225 -0.732871 -14.1965 12
726 1 -10.8247 -3.81594 -2.74665 22
727 1 1.73554 16.7678 -5.53164 16
728 1 -2.82411 -5.10906 -15.5826 14
729 1 -5.81922 -6.94645 0.1809 19
730 1 10.8462 7.29407 -6.41235 23
731 1 9.90748 -5.79089 0.965266 18
732 1 -6.98873 6.40983 11.6231 22
733 1 5.48563 -9.66406 3.21053 19
734 1 12.7436 -4.98909 0.100364 13
735 1 13.4554 -3.70002 10.7845 12
736 1 0.0761792 10.6826 7.06136 22
737 1 -11.6245 2.78195 13.6983 13
738 1 -8.29679 4.7504 9.25557 21
739 1 -3.73992 -14.1532 7.70972 15
740 1 10.2255 1.835 2.25773 19
741 1 6.55152 8.99675 13.3523 21
742 1 -15.761 -0.455757 -0.712118 10
743 1 8.80598 -7.35531 -2.22163 18
744 1 -12.2759 13.152 -6.26944 8
745 1 4.61977 7.18274 1.88327 18
746 1 1.83658 -17.4511 7.0799 10
747 1 5.08284 1.01499 14.0064 23
748 1 -0.136296 13.3976 5.05808 21
749 1 2.18642 -11.7681 5.96566 21
750 1 -8.47522 -1.39709 -1.34975 23
751 1 3.89755 3.29932 11.9682 22
752 1 -16.1296 -5.14386 -3.40985 11
753 1 1.3838 10.754 15.4104 17
754 1 4.87251 13.0887 -0.478049 21
755 1 -11.4756 -11.1609 5.19481 16
756 1 -4.57466 -17.0737 6.04851 13
757 1 8.05648 -4.4899 9.41227 21
758 1 11.4886 -4.6593 8.30825 15
759 1 7.65489 9.04627 6.53281 19
760 1 -0.134898 -9.41214 -9.86781 20
761 1 -3.42245 2.66686 -10.9772 19
762 1 -4.43242 -0.936078 11.9783 18
763 1 -2.013 15.9037 3.33509 17
764 1 13.1432 1.41922 3.87437 18
765 1 3.10598 11.4226 -6.69301 21
766 1 -4.04843 7.33714 12.9781 18
767 1 7.16227 7.83068 10.5708 18
768 1 6.9744 -3.33718 -11.9273 19
769 1 -6.51921 -12.0274 -0.520935 20
770 1 14.4087 1.2686 7.04703 15
771 1 2.49747 -1.67432 -11.1016 21
772 1 1.16079 7.74605 15.9743 17
773 1 9.67477 -13.1339 -8.0184 10
774 1 6.13246 5.70537 -15.844 14
775 1 -2.84665 -7.64813 -4.64075 22
776 1 11.5246 5.37405 -11.5814 14
777 1 14.5186 -1.90317 -0.17716 12
778 1 0.952358 -5.48356 12.3183 14
779 1 -2.84626 -9.06847 -10.9924 21
780 1 8.10447 13.1862 -0.608001 17
781 1 -12.9429 4.10013 3.54581 18
782 1 11.8289 4.01448 -5.46713 22
783 1 16.4908 7.08733 3.87167 12
784 1 2.41238 -5.53111 -15.3168 21
785 1 -8.03935 12.2364 5.64114 16
786 1 16.0228 8.77567 6.32647 14
787 1 11.4566 13.1478 -5.3633 12
788 1 4.29583 2.51781 -15.1985 22
789 1 9.67984 -4.67934 -1.62586 17
790 1 -10.3136 1.39382 -0.469792 19
791 1 11.0098 6.70867 3.84787 20
792 1 -12.3235 -9.52985 0.579898 17
793 1 -12.4499 10.2675 -8.12916 11
794 1 5.23147 4.17864 9.6915 21
795 1 -11.4486 -0.234432 -6.60944 20
796 1 -10.9663 4.63398 6.37829 18
797 1 -2.97127 3.86279 -7.8864 17
798 1 10.5434 -7.33602 -8.71167 19
799 1 -11.5201 -8.53231 -6.3859 15
800 1 11.8673 -7.31886 -3.06885 16
801 1 -14.5018 4.9285 0.476319 16
802 1 -8.30545 -5.07427 -3.50192 20
803 1 13.1357 7.59715 8.26007 21
804 1 -6.15768 -9.49439 6.0943 17
805 1 10.2291 2.01376 16.9086 14
806 1 13.964 -2.99563 7.58567 10
807 1 8.28987 -2.23136 4.98503 18
808 1 -11.3379 4.23943 0.685101 20
809 1 1.05018 10.6984 10.5557 21
810 1 3.23618 9.10728 -10.0674 18
811 1 -0.362464 -7.30136 -16.3334 15
812 1 -5.33707 14.2243 6.46926 15
813 1 -11.7819 -11.7598 8.49579 14
814 1 8.80456 11.6586 -5.62432 20
815 1 0.914085 8.82756 13.0791 22
816 1 15.5821 -3.14822 -4.91679 13
817 1 7.86916 -7.45847 11.2749 13
818 1 -0.963344 13.0151 -11.7842 15
819 1 3.36518 11.8306 -9.46902 21
820 1 -5.74386 -2.74063 9.84843 16
821 1 16.4999 5.21588 6.39577 14
822 1 -3.32262 -3.70745 -10.2397 23
823 1 13.298 11.4799 0.649068 15
824 1 -14.5287 3.5471 -2.11019 14
825 1 -4.17655 -11.1585 7.21747 22
826 1 3.3112 14.6234 -10.3709 14
827 1 6.87844 -1.96813 9.49779 21
828 1 -0.694459 -13.1557 -2.08 20
829 1 -7.1898 15.8112 1.27768 16
830 1 -15.4675 6.26306 -2.718 16
831 1 11.8521 -2.37511 -8.49248 20
832 1 0.46026 -12.7554 -14.1224 11
833 1 -6.8158 7.08527 1.71904 21
834 1 13.9006 10.9452 -5.56447 12
835 1 -5.85844 -0.89173 7.23971 19
836 1 6.93801 -2.96884 -17.6497 11
837 1 -8.30221 -9.93952 -9.72334 16
838 1 -1.48144 -10.2663 -4.25919 16
839 1 -3.85869 10.8441 13.175 17
840 1 6.9226 -13.8403 -0.814199 18
841 1 -2.00926 11.0747 -13.8678 15
842 1 13.8391 2.00927 -5.02055 19
843 1 7.37229 7.68061 0.246899 17
844 1 0.907169 -18.3624 -0.743891 12
845 1 3.71708 -2.79348 -16.404 18
846 1 10.3833 1.0304 -0.967184 22
847 1 -1.68389 4.7032 -13.994 20
848 1 -1.55213 -9.09907 6.46691 19
849 1 6.04837 10.3652 -5.06294 19
850 1 5.13484 1.36058 -7.99875 18
851 1 -11.3066 4.1535 -3.65582 21
852 1 -13.7099 4.4478 8.3201 13
853 1 1.50845 5.42858 18.5366 11
854 1 -8.61011 -9.56791 10.0045 20
855 1 5.17279 10.1566 5.65019 21
856 1 0.0564441 -15.7471 3.17349 20
857 1 1.35465 9.94042 -4.41442 19
858 1 -4.0347 7.42837 10.1861 20
859 1 -7.17323 -0.0618647 12.0754 20
860 1 -10.5502 12.5612 7.53014 12
861 1 9.21156 2.9984 -2.75549 15
862 1 -5.7867 -8.56674 11.9721 17
863 1 5.3307 -12.4743 4.84679 18
864 1 11.0398 4.6064 8.84299 19
865 1 6.07164 -6.19099 -3.85877 17
866 1 5.35936 -12.5089 -10.8111 16
867 1 -7.18439 2.10306 -13.7376 23
868 1 -1.25181 3.2594 -16.5323 14
869 1 6.78312 14.4845 9.11781 12
870 1 -10.3403 -4.96022 13.11 15
871 1 -5.62365 7.97402 -8.29592 17
872 1 -14.338 4.72407 -5.22644 16