ITEM: TIMESTEP
5000
ITEM: NUMBER OF ATOMS
1500
ITEM: BOX BOUNDS pp pp pp
-30.0 30.0
-30.0 30.0
-30.0 30.0
ITEM: ATOMS id type x y z Coordination
1 1 -2.62734 -10.5352 -9.44657 15
2 1 9.24144 -9.67356 7.9757 12
3 1 -10.6109 9.94954 -1.64872 13
4 1 -8.34422 3.11329 -7.39248 21
5 1 3.01809 -7.38484 13.1806 13
6 1 -6.51117 0.67284 -7.46289 22
7 1 -2.82136 -11.4839 0.103255 21
8 1 -10.8132 -8.4367 3.76801 16
9 1 0.196932 6.31031 15.6422 9
10 1 -2.70724 3.45347 12.7979 22
11 1 1.00265 13.8218 -8.13996 14
12 1 3.31831 -1.5648 12.6825 19
13 1 13.2723 5.75787 8.78742 9
14 1 -1.96039 13.8426 -8.18244 9
15 1 5.08828 6.13526 -11.2871 18
16 1 -0.676694 -3.52996 -7.54854 19
17 1 9.03399 -14.9456 4.46373 6
18 1 11.179 -12.3573 2.85424 8
19 1 -2.10569 -12.1425 -7.09761 18
20 1 1.89839 -6.03382 -15.5008 8
21 1 -0.371642 5.86611 12.5655 23
22 1 3.58528 -7.90589 8.76565 17
23 1 7.29176 -5.33375 14.9609 11
24 1 -15.272 -4.96651 4.25301 10
25 1 -9.19103 0.497864 -2.49707 21
26 1 -2.49146 12.0894 -3.63138 19
27 1 1.94656 1.67432 -9.06155 20
28 1 2.06532 -8.03653 -13.625 11
29 1 -0.816689 -5.1587 16.1425 12
30 1 -13.0665 8.13798 5.18971 8
31 1 1.64985 11.3751 8.6168 13
32 1 -9.34088 12.9286 -5.97228 9
33 1 -2.91383 13.0595 -1.10494 20
34 1 0.866855 -10.2349 5.29277 21
35 1 9.00149 -11.2054 -7.71059 14
36 1 -11.5059 4.68765 10.3933 9
37 1 -10.5912 0.768134 -8.56064 16
38 1 6.27611 -1.04708 7.5452 21
39 1 -9.12957 9.51278 -7.06469 14
40 1 -7.46499 -11.2182 7.80165 15
41 1 -10.9096 6.38067 -7.15141 13
42 1 3.07155 3.61693 9.49856 22
43 1 5.52684 -13.8728 -0.644196 15
44 1 5.39918 5.00739 13.238 15
45 1 11.577 -2.0085 -8.51124 14
46 1 12.0317 -10.0933 5.47522 11
47 1 6.6725 -2.28214 14.0402 25
48 1 -3.66747 -11.1017 7.64325 20
49 1 -11.1623 -2.75302 1.00283 20
50 1 10.4929 1.78899 9.48055 17
51 1 8.95098 -1.90759 -4.11529 18
52 1 -2.20397 8.19386 10.655 15
53 1 6.5084 -1.89152 10.5507 17
54 1 -3.40886 -4.91979 -8.90345 18
55 1 -8.19711 11.6705 -1.83755 14
56 1 -3.62682 6.59592 -8.76072 14
57 1 7.90943 -5.17367 -5.61622 21
58 1 8.56358 -9.89537 0.0502201 18
59 1 6.19114 -6.76733 7.43646 21
60 1 -3.73289 14.4894 -4.29488 15
61 1 -6.70655 14.6549 2.59486 9
62 1 -4.89656 9.99628 4.20415 17
63 1 -4.71735 -7.79887 10.0944 19
64 1 12.6751 -8.62498 -4.70565 16
65 1 -13.2448 6.08022 0.923963 15
66 1 9.5937 -7.34669 -0.606682 21
67 1 7.95051 1.91254 -9.30348 23
68 1 -5.55844 -0.25152 -16.047 15
69 1 -1.56015 13.7307 4.07113 14
70 1 -7.12415 8.34226 -9.9993 12
71 1 -1.59398 10.763 -8.57377 15
72 1 2.08178 8.93061 2.5071 24
73 1 -5.34723 -9.23672 7.50515 19
74 1 0.39324 -6.34134 -7.55295 18
75 1 2.46906 -4.81241 -9.14612 19
76 1 -2.95978 3.2897 9.51059 22
77 1 -11.0837 -7.95929 -1.97169 17
78 1 -8.9878 -9.38672 -3.48724 19
79 1 11.9915 -7.55045 4.01732 15
80 1 -6.22806 7.05294 2.67089 21
81 1 6.95319 3.6463 -11.8087 14
82 1 5.21833 9.6012 -6.11181 20
83 1 12.6232 -6.029 -0.184634 16
84 1 1.53094 -12.3754 3.20647 19
85 1 -6.16614 -9.73667 -0.467028 17
86 1 -11.8132 -5.34179 2.83505 21
87 1 12.5331 8.58585 7.66499 10
88 1 -4.94479 8.6573 9.76032 17
89 1 -0.286894 13.8291 -2.49952 21
90 1 -0.53842 -3.34459 -10.5756 19
91 1 9.27276 -1.50471 11.9939 19
92 1 -3.80025 6.67919 -4.97611 16
93 1 10.2538 1.43926 -4.32987 20
94 1 -10.6433 10.3323 -4.55748 12
95 1 -7.83763 15.2964 -3.62015 8
96 1 8.95261 3.65732 -6.45197 20
97 1 11.9253 -7.93448 7.29905 11
98 1 -8.68792 3.62398 -3.90763 24
99 1 8.48561 11.8867 1.26545 16
100 1 10.2772 7.97291 -1.33507 16
101 1 -1.63202 9.16999 -4.12218 17
102 1 -3.28168 -1.86643 -14.5643 16
103 1 4.80112 15.7836 4.44975 12
104 1 -15.2689 -6.06426 -3.83038 11
105 1 18.493 -0.169621 0.267868 10
106 1 -2.53352 8.64488 5.92913 17
107 1 -0.542061 15.4414 -5.12838 14
108 1 5.22932 -3.42146 17.1126 13
109 1 -8.80383 -4.85908 1.33659 20
110 1 0.383931 -10.6526 9.11103 16
111 1 4.81042 -12.3019 -5.80711 16
112 1 0.121535 12.8082 -11.0333 9
113 1 7.65913 9.78687 -3.9247 21
114 1 2.14723 -10.062 13.0956 8
115 1 -9.30108 0.4227 1.18539 21
116 1 2.26145 14.6756 3.63149 16
117 1 1.66938 7.69372 10.256 18
118 1 -4.40407 14.929 1.1458 15
119 1 -5.67584 3.63748 -5.22129 21
120 1 15.5885 -6.32467 0.749235 12
121 1 -6.00749 -4.76315 5.29188 18
122 1 -14.8079 -2.15529 1.48309 13
123 1 -5.53376 -13.6603 7.28131 12
124 1 -14.2122 2.89428 -4.49726 11
125 1 -1.66139 -16.8484 3.19111 9
126 1 6.59423 -7.28037 -2.87044 19
127 1 0.242907 9.84558 5.20966 16
128 1 -8.3701 -2.09242 -4.30231 19
129 1 -4.27318 9.60116 -9.08936 14
130 1 -13.0724 -5.31175 -6.8452 9
131 1 -7.93314 -1.18154 13.6879 10
132 1 0.787235 -7.94066 7.5617 18
133 1 7.29059 -12.4066 7.05528 9
134 1 14.2004 3.94945 5.83031 14
135 1 5.98683 4.43606 -5.39446 21
136 1 6.92164 -0.488132 16.6937 12
137 1 2.13949 7.62043 -11.7625 13
138 1 5.07342 -2.71469 -12.6802 12
139 1 -9.57177 -4.5348 -6.23638 18
140 1 -4.04834 11.6265 -6.29284 16
141 1 -5.85733 12.5051 -3.29829 19
142 1 9.35814 -1.09253 8.83802 18
143 1 -3.68003 -4.63432 -13.0166 14
144 1 -2.16612 10.1449 -11.9108 12
145 1 3.66642 8.24198 -8.92146 20
146 1 -5.53714 3.75115 7.76721 20
147 1 -10.3124 6.69649 9.41498 12
148 1 0.367816 -10.1279 -8.27785 20
149 1 -6.28498 -12.665 1.38006 17
150 1 10.6769 -12.0382 -0.367083 17
151 1 7.85183 9.87069 -7.56871 17
152 1 -0.580841 10.6657 -0.965583 22
153 1 -12.2292 0.246744 -0.518425 18
154 1 4.76742 6.24658 8.90938 20
155 1 10.7183 5.74052 -6.56838 19
156 1 2.23411 6.05605 7.48026 21
157 1 -8.3629 3.50221 5.77363 18
158 1 -8.26117 -6.47377 -4.71954 17
159 1 7.58266 0.430395 -12.814 9
160 1 3.29266 -1.84335 9.47875 22
161 1 6.93485 8.07802 -9.08109 21
162 1 2.82905 -10.2215 -2.82334 18
163 1 -4.25221 0.721315 -9.1133 18
164 1 8.9746 -1.86278 -7.11676 19
165 1 -9.3194 -3.81216 7.08542 20
166 1 2.47702 -15.6333 -1.7886 14
167 1 -10.5963 -8.05921 -6.45116 14
168 1 7.56263 14.9285 -0.0660901 11
169 1 3.04187 -0.438163 -10.9143 21
170 1 6.97407 2.72474 15.1409 10
171 1 13.7846 1.99064 0.625492 21
172 1 11.5576 -8.54256 -7.86654 13
173 1 -5.27221 -3.8146 -11.017 19
174 1 -9.55402 -4.97253 -9.56674 13
175 1 8.77196 -3.30498 17.1339 12
176 1 5.09772 -4.71317 9.36624 18
177 1 -2.2296 -6.28747 -10.6502 16
178 1 2.14663 -4.60701 7.86773 19
179 1 0.852431 10.1851 -10.5671 16
180 1 7.98372 6.28796 0.867598 21
181 1 -5.04921 -8.02306 3.71933 21
182 1 2.83872 11.5677 3.38594 22
183 1 -5.12336 -3.218 13.4921 15
184 1 -6.81045 -10.1043 -8.63119 12
185 1 -6.33312 -4.62552 -7.43042 22
186 1 -3.918 -9.88997 -6.38459 18
187 1 -4.72904 -10.3042 2.16763 18
188 1 12.3293 4.89631 3.84526 18
189 1 -6.36415 -7.24576 12.8373 11
190 1 -3.75638 -10.3471 -2.40742 17
191 1 0.173444 -9.98816 1.65665 18
192 1 2.21231 11.7604 0.411416 19
193 1 2.51643 -0.987481 -14.2422 17
194 1 -5.7626 -3.62607 -15.432 11
195 1 0.414679 -12.776 -0.254985 21
196 1 0.95518 -13.2175 -6.48207 18
197 1 -9.04417 0.519392 -12.5105 15
198 1 9.32698 3.79719 5.54208 19
199 1 -5.59387 4.3413 -12.9289 15
200 1 0.914 7.87735 -7.595 17
201 1 -5.39643 -1.87046 7.31876 22
202 1 -5.04802 16.6775 -1.62729 10
203 1 4.16842 13.5877 6.28933 17
204 1 10.7187 0.866481 5.99176 20
205 1 -8.82773 0.634807 4.30176 21
206 1 -1.18785 -7.21382 14.3421 12
207 1 -7.7897 9.47249 4.99621 15
208 1 -0.589469 -3.61977 -14.1535 15
209 1 2.2447 -10.9435 -0.0566108 19
210 1 -0.680563 0.420474 12.8528 20
211 1 -12.181 -5.61422 5.65762 16
212 1 14.5506 -3.22731 -0.965408 21
213 1 5.73336 -6.70292 -8.74172 20
214 1 8.18353 -14.0476 -1.74624 11
215 1 -8.03136 9.48669 -3.8835 17
216 1 10.3915 5.89615 9.18529 18
217 1 -8.19993 -1.93862 2.74832 20
218 1 10.8706 -11.3928 -5.10392 13
219 1 -3.55316 8.95628 1.87384 18
220 1 -3.48131 5.84214 7.74238 21
221 1 6.63718 -8.60996 9.4513 14
222 1 15.9203 -1.6677 4.19629 17
223 1 0.125918 3.18308 14.2071 21
224 1 -6.08708 -4.73636 -3.67414 21
225 1 1.57527 0.330751 15.2823 13
226 1 -3.30156 12.0547 1.66676 19
227 1 -6.28768 1.66893 13.1265 13
228 1 -10.6159 6.13302 3.3577 17
229 1 -3.51414 -4.74154 -5.76379 23
230 1 -6.06868 12.1952 0.651819 17
231 1 8.78593 -1.87391 5.57904 20
232 1 -6.7926 -13.3433 3.95375 13
233 1 9.05125 -6.7174 8.88825 17
234 1 -7.64981 12.1825 5.00798 11
235 1 -0.54747 -4.5853 12.4172 17
236 1 5.98616 -12.0532 -10.1849 12
237 1 -5.96436 -2.31901 -8.89005 22
238 1 4.86918 -5.65978 -14.0912 10
239 1 7.10157 13.8146 6.76459 14
240 1 -11.4743 -2.20707 -2.90878 19
241 1 1.38242 -3.01613 -17.1723 6
242 1 2.75618 -11.5824 -8.41612 18
243 1 -13.8373 -3.81325 -1.64801 19
244 1 -5.15988 -15.6117 1.00047 10
245 1 14.8777 4.16033 -1.02451 15
246 1 -5.20066 3.27621 -8.43743 19
247 1 -14.0522 -3.04434 -4.50954 13
248 1 -5.38934 7.45551 6.07791 21
249 1 -7.24423 14.7424 -0.759076 13
250 1 -7.03688 6.42957 9.74736 19
251 1 12.0797 -0.858685 -2.74615 21
252 1 14.9569 -2.26523 -3.8714 15
253 1 0.826457 -8.32438 -5.3777 21
254 1 -0.439721 5.5856 5.96434 19
255 1 -9.54289 0.497984 -5.77559 23
256 1 5.16438 -10.4224 -0.375517 19
257 1 12.5106 -1.0041 9.70324 12
258 1 -11.3679 -2.03926 -6.11855 16
259 1 -7.96988 -7.48171 2.32437 18
260 1 -0.958959 10.6473 1.94881 20
261 1 -10.3011 -11.292 -1.19711 13
262 1 -11.6554 5.54399 -3.77124 17
263 1 0.653098 17.0088 -0.154868 12
264 1 7.94071 13.3208 9.4119 11
265 1 -12.3629 -6.34517 -3.99292 18
266 1 -2.10659 -7.97889 -7.11261 16
267 1 -10.6032 2.31257 8.54287 16
268 1 -14.7918 5.29222 -1.49829 12
269 1 8.90991 -7.73603 5.67431 23
270 1 -2.4434 -14.0257 1.70387 18
271 1 5.15338 9.51377 -11.2228 13
272 1 -11.1306 3.69766 -5.81429 16
273 1 -1.27564 -12.4883 6.5898 17
274 1 11.6188 3.51794 7.38219 19
275 1 -2.59556 -1.86531 9.28947 23
276 1 -15.6698 3.66732 1.7315 10
277 1 -6.3753 1.22551 6.25804 21
278 1 -2.5089 -15.3934 6.38726 12
279 1 5.74562 -9.87417 -8.2878 23
280 1 -11.9187 -0.0596075 5.92593 16
281 1 -0.616529 -5.09044 9.11051 22
282 1 12.9147 -11.5855 -2.89708 11
283 1 3.0679 -9.70176 -10.7474 18
284 1 -3.74513 -4.31748 11.0721 14
285 1 3.53422 -7.53667 -4.34269 19
286 1 -3.259 4.51452 -14.9247 14
287 1 5.86768 -13.5299 4.34311 14
288 1 5.1656 10.2442 -2.38798 21
289 1 -2.92019 -3.41278 14.6125 15
290 1 -8.01064 -8.45843 9.69662 15
291 1 9.32328 -4.0775 13.6439 14
292 1 5.10258 1.94278 -7.28437 19
293 1 8.37135 -4.70442 0.484424 19
294 1 13.2235 7.75722 -6.31965 13
295 1 -0.00128072 3.32494 10.8815 22
296 1 2.59956 11.8194 -2.52076 17
297 1 6.01232 -7.03825 4.27142 19
298 1 -0.24671 -16.0078 -0.556794 11
299 1 -1.93996 11.8066 6.26529 13
300 1 -4.10787 -12.895 -8.45304 12
301 1 7.34096 6.96191 7.8008 17
302 1 -6.41941 1.05703 9.81543 19
303 1 -5.2798 -7.81722 -2.67356 21
304 1 -11.9946 5.23862 6.67494 12
305 1 -6.11107 -12.569 -6.20707 14
306 1 -7.819 8.82994 8.16657 11
307 1 -0.39781 -12.5469 -9.86571 12
308 1 -0.777691 -6.71005 -13.6249 14
309 1 -9.46789 -11.9159 2.30286 13
310 1 -8.01605 -1.49585 5.71972 20
311 1 11.719 -2.18841 7.13575 17
312 1 -4.15483 -6.58124 15.4459 9
313 1 -8.14185 5.86472 -12.4981 10
314 1 8.5659 3.3241 -0.517073 19
315 1 -8.75543 -12.5843 -3.89551 13
316 1 2.67615 14.9658 0.742432 14
317 1 2.09283 6.54032 -5.59718 16
318 1 2.52116 7.2938 13.4554 11
319 1 -16.3466 -2.4242 -1.53494 8
320 1 8.00315 12.6349 -2.54435 17
321 1 -8.02 -7.60753 -7.56275 15
322 1 -1.45386 -14.035 -4.34755 13
323 1 -0.356012 -0.93778 -12.5163 19
324 1 -10.7523 10.3977 3.99256 8
325 1 2.9043 3.75601 12.6355 18
326 1 7.53556 6.65392 -2.37528 19
327 1 4.68451 6.73865 2.60723 22
328 1 -7.11263 11.3309 -8.35682 12
329 1 3.06696 4.12384 -7.19007 20
330 1 3.40781 -7.8768 5.28005 20
331 1 -14.798 -5.09655 1.30554 12
332 1 -5.51859 3.08537 -16.3038 11
333 1 11.981 3.15835 -2.02152 21
334 1 6.14459 -6.79279 0.52575 20
335 1 17.528 0.329593 -5.35723 8
336 1 -1.33394 1.32063 -10.7149 18
337 1 -2.15032 -7.61027 2.13834 22
338 1 3.13882 -13.7635 0.487691 16
339 1 5.70576 -9.53774 12.96 6
340 1 -7.59862 5.812 -6.85812 15
341 1 -3.4211 -8.41254 -14.5495 9
342 1 2.03427 5.34727 -10.4581 21
343 1 0.34612 -2.34907 15.0001 15
344 1 -10.8502 -2.74892 4.66472 20
345 1 12.351 -5.28861 -8.6579 11
346 1 13.8556 1.01263 -2.59721 19
347 1 -6.51494 6.48411 -3.6018 20
348 1 3.24351 -7.96499 -7.82175 23
349 1 6.20255 4.80386 -8.8699 18
350 1 13.1183 -4.42476 -3.85214 18
351 1 -3.52876 0.922497 10.8149 20
352 1 6.08787 12.6253 4.07438 18
353 1 -2.86252 1.40053 -16.6318 14
354 1 -7.05862 -6.10997 8.07557 17
355 1 -2.57765 17.5047 0.529739 11
356 1 -8.48341 -4.32987 -12.3882 13
357 1 -14.3825 1.72139 3.9337 10
358 1 -2.71548 -10.4667 10.4002 17
359 1 4.60733 14.0699 -7.94411 11
360 1 18.7199 1.4642 -3.43568 8
361 1 -12.3124 -11.4471 3.28125 8
362 1 -0.59876 -9.7686 -1.5229 19
363 1 -7.84394 6.60639 6.74723 14
364 1 3.23258 -1.19885 -7.46739 20
365 1 10.3178 -9.76038 -2.3986 18
366 1 2.4509 14.6107 -5.54658 14
367 1 6.36066 -8.97393 2.42422 19
368 1 -8.92285 -0.295584 7.90254 21
369 1 6.77373 10.355 8.79494 20
370 1 -0.722232 3.39521 -12.1101 17
371 1 -5.60465 -7.24806 -5.61555 18
372 1 2.63432 -4.31404 11.1295 16
373 1 9.6833 11.0816 7.36012 12
374 1 9.41112 5.46126 -9.6999 15
375 1 -4.91662 9.92235 -4.22502 18
376 1 1.08359 16.8423 -3.13353 11
377 1 10.2401 -3.98173 9.99437 13
378 1 12.4542 -0.744265 -5.7212 17
379 1 -13.5813 -8.08202 2.91365 13
380 1 -0.697388 0.703424 9.20404 24
381 1 0.574842 12.109 -5.06976 16
382 1 7.41046 -13.5681 -4.57506 10
383 1 4.92782 -4.19291 -7.27174 21
384 1 -1.69402 17.2502 -2.59344 14
385 1 -6.07727 -6.63362 -13.4478 11
386 1 3.76156 -15.3821 6.84943 7
387 1 -11.6063 -5.26316 -0.640907 20
388 1 -10.4291 -5.96645 8.87316 11
389 1 4.79636 6.81142 -0.579476 22
390 1 10.0184 -6.07643 -2.80132 18
391 1 3.7396 -4.35855 14.2734 18
392 1 8.96315 3.95057 -3.52797 21
393 1 -8.90919 7.15842 -1.20476 17
394 1 12.805 -9.12588 -0.096716 12
395 1 4.89665 7.69753 11.7373 15
396 1 -3.12254 4.56357 -10.6658 16
397 1 5.92585 15.9989 7.50211 8
398 1 10.7063 1.29511 -7.37721 18
399 1 1.78386 1.03869 -12.5441 19
400 1 -2.707 -14.1872 -1.51795 14
401 1 -8.73486 3.37693 -10.7065 17
402 1 15.1588 3.83956 2.319 19
403 1 17.7713 3.95627 -6.03018 9
404 1 8.69568 -10.1727 -10.4511 10
405 1 6.06129 -7.26059 -5.87846 20
406 1 7.76986 14.6197 3.12675 10
407 1 -8.25856 3.57385 2.65812 22
408 1 15.2304 4.28477 -3.44066 15
409 1 16.4307 0.900814 5.33124 14
410 1 12.9546 2.54066 -9.96418 7
411 1 10.565 7.07855 12.4349 8
412 1 4.9397 -6.47335 11.2441 16
413 1 3.87701 -1.03136 15.6615 18
414 1 15.6105 -5.35243 -2.86519 13
415 1 11.0865 1.02124 12.5536 11
416 1 -8.52509 -1.97939 -7.48422 22
417 1 16.5902 1.91843 -0.609927 18
418 1 11.0764 -3.79392 -0.75913 22
419 1 9.74209 -0.839801 15.1227 12
420 1 3.32543 9.14516 8.90903 22
421 1 7.67516 1.44002 7.52235 23
422 1 -6.5437 9.42143 -0.493215 16
423 1 10.6528 10.5042 -5.67498 11
424 1 10.1498 -3.60344 -10.7893 12
425 1 3.88887 16.3824 -1.70066 11
426 1 3.19976 -10.471 -5.89155 20
427 1 -13.5168 4.83131 4.07632 12
428 1 -7.62875 3.0926 -14.0396 16
429 1 -1.17694 -12.2442 3.68557 17
430 1 -8.34142 -1.5823 -14.3141 13
431 1 -13.2375 -0.314822 -6.2386 10
432 1 13.9545 -3.82095 1.82384 19
433 1 15.276 9.49998 5.45088 5
434 1 -0.0811997 -8.08009 11.685 18
435 1 -8.64429 -1.70533 -10.6243 16
436 1 -1.95324 4.64581 15.9845 16
437 1 5.3052 11.1095 -8.61184 15
438 1 10.2693 8.31537 -7.65694 19
439 1 4.61599 -14.1876 -7.52752 8
440 1 13.8656 1.30572 3.98457 20
441 1 12.9469 8.46375 3.62756 14
442 1 17.1164 -4.25894 3.72236 8
443 1 -5.72268 3.42359 11.1824 17
444 1 -11.04 -8.95618 1.2368 13
445 1 -5.61565 -2.07671 -5.51786 23
446 1 7.45558 0.865494 10.2247 22
447 1 -0.451031 -10.0785 13.1662 12
448 1 5.94654 3.50739 10.7582 22
449 1 -0.540687 16.6635 3.11337 8
450 1 11.9327 4.59057 0.580791 15
451 1 7.56982 6.40259 4.06174 21
452 1 -0.401822 2.42435 -14.9534 14
453 1 -11.7885 -1.34144 8.31615 9
454 1 8.91833 -0.440865 -9.72626 14
455 1 9.39568 -8.59213 -4.54667 20
456 1 8.44651 3.99808 8.90815 19
457 1 5.64816 3.96768 7.35839 21
458 1 17.7625 4.57223 1.49946 7
459 1 2.18256 -3.40169 17.0013 12
460 1 -3.61138 5.79455 11.0081 20
461 1 -0.248439 -0.377201 -15.3698 15
462 1 -4.95265 -0.254738 15.0291 13
463 1 4.78536 1.35633 12.6114 23
464 1 12.4503 5.7771 -3.64485 18
465 1 7.1518 -10.3253 -5.41978 18
466 1 -9.52127 6.58632 -9.72477 12
467 1 5.17987 9.97142 4.03745 18
468 1 11.0505 10.1531 0.883099 12
469 1 5.02065 13.7839 -4.1715 15
470 1 13.3071 8.143 0.641882 12
471 1 -5.49742 -12.8367 -1.77393 19
472 1 4.97258 0.636691 -13.1639 14
473 1 -6.74829 13.3977 -6.09447 12
474 1 6.35459 -8.98161 -11.2401 13
475 1 12.5117 5.4507 -8.73476 13
476 1 13.5722 9.00687 -3.09037 12
477 1 -8.16188 3.57168 -0.534282 23
478 1 4.53627 7.10869 -3.63168 24
479 1 0.51293 -12.664 11.121 10
480 1 -2.26131 7.80751 -14.0446 9
481 1 3.03585 10.4521 11.7578 11
482 1 4.97737 0.959792 9.29144 23
483 1 10.5204 14.8905 -1.95794 6
484 1 8.82727 10.9141 4.1723 17
485 1 14.8034 -7.80837 -1.70523 11
486 1 -9.49735 -8.23292 6.83718 14
487 1 3.04151 -14.0453 4.02018 15
488 1 0.142408 -1.00915 -8.96255 20
489 1 2.49175 8.68355 5.7548 21
490 1 -13.472 -3.03106 4.4407 14
491 1 4.15114 -13.2374 -3.03397 16
492 1 7.86026 6.84602 -5.68773 20
493 1 4.64209 -3.42611 -10.2797 22
494 1 3.5944 -10.6748 8.06779 15
495 1 5.32288 15.7328 1.70304 14
496 1 -1.94092 1.56883 14.9547 16
497 1 -7.28367 -7.04603 -10.4137 15
498 1 8.76589 -8.20555 -6.96272 19
499 1 -3.20469 11.3348 9.35969 10
500 1 10.724 -14.1379 -3.07817 9
501 1 6.18313 -9.2669 6.13667 20
502 1 1.06429 -15.6128 -4.12429 8
503 1 -7.96123 -4.71195 14.4447 7
504 1 -4.44345 -14.1495 -4.82586 13
505 1 -9.92005 0.182626 10.6286 13
506 1 17.0014 -3.63375 0.139067 16
507 1 -8.24925 3.31417 9.65501 17
508 1 -8.61775 6.52013 1.18443 19
509 1 11.8198 -1.41907 3.84761 17
510 1 -0.664293 6.18183 -4.54855 20
511 1 14.7897 -0.231401 -8.16268 9
512 1 10.728 8.01323 -4.39891 18
513 1 -11.3326 3.66793 -9.14822 10
514 1 -11.8328 -9.81906 -4.40281 10
515 1 7.37007 7.08258 -12.3214 10
516 1 0.579084 -2.17806 10.7155 22
517 1 -3.72406 -5.12916 7.87853 18
518 1 2.19454 -3.08579 -11.8711 16
519 1 -5.5234 6.90844 -0.413083 20
520 1 8.22454 8.9561 5.6199 17
521 1 -9.28182 -5.79767 4.71188 17
522 1 9.99185 8.19796 -10.1705 10
523 1 1.11749 -15.3778 1.89419 14
524 1 5.20761 7.06902 -6.89866 18
525 1 -4.75682 1.52608 -13.7803 18
526 1 1.85447 0.658918 10.6264 20
527 1 2.65359 4.42179 -13.1841 16
528 1 -9.11783 -4.61635 -2.42087 21
529 1 9.11469 -1.47684 -0.885302 21
530 1 -5.08417 -7.35094 0.853015 21
531 1 14.8823 4.35913 -6.32068 12
532 1 8.37688 -7.4017 2.48778 19
533 1 -5.95901 7.25937 12.6239 11
534 1 7.61205 -11.1316 4.27376 18
535 1 18.0105 -1.94931 -2.58442 9
536 1 12.9842 -4.17928 4.7431 14
537 1 -0.135111 9.27015 8.14779 18
538 1 -8.69165 5.6204 12.3778 10
539 1 1.36795 -12.7994 7.46466 16
540 1 10.7793 0.978974 2.43084 20
541 1 9.62803 9.77804 10.7241 8
542 1 -15.3567 0.356339 0.742993 12
543 1 9.9541 -9.78754 2.68266 18
544 1 4.74572 9.66273 0.948729 19
545 1 8.84461 3.84231 11.7964 19
546 1 1.23298 12.5858 5.87708 16
547 1 4.31446 -11.4487 5.21684 20
548 1 -8.33473 -2.15974 -0.832044 19
549 1 3.56738 2.7797 15.2148 12
550 1 5.13878 13.7517 -1.00092 16
551 1 -9.46752 -12.1589 5.43586 9
552 1 10.5365 -5.13954 6.0987 17
553 1 11.1178 -4.8857 2.8392 18
554 1 10.4037 6.50201 5.95393 17
555 1 1.01829 -7.12495 -10.5963 19
556 1 -5.73663 1.30954 -11.2182 20
557 1 -2.37745 -1.7835 12.6886 19
558 1 -0.364129 13.694 0.820614 18
559 1 16.9874 1.41636 2.88049 19
560 1 1.61998 9.26414 -3.98117 18
561 1 -4.79491 5.97224 15.6866 8
562 1 4.45132 10.9716 6.64785 22
563 1 6.98573 -5.3087 -11.4333 15
564 1 -4.06602 -13.9508 3.9352 18
565 1 -2.9474 -1.37615 -7.34117 22
566 1 14.1118 0.741312 7.12454 14
567 1 5.79213 -0.935762 -9.13022 19
568 1 -2.39412 -8.01232 -4.25271 22
569 1 18.7225 -0.814071 3.39925 11
570 1 2.82646 -6.01571 16.6698 8
571 1 -1.43091 -9.30861 -11.7332 13
572 1 10.743 11.1737 -2.30179 13
573 1 -12.3324 -0.046005 2.92833 18
574 1 12.3998 2.91333 -5.40129 17
575 1 3.76696 -6.77357 -11.0691 19
576 1 -4.89889 13.412 4.55307 14
577 1 2.46942 2.12318 -15.2214 11
578 1 7.84747 -4.22015 -2.35254 20
579 1 -13.0139 0.201156 -3.29768 16
580 1 10.2693 7.58106 2.78442 20
581 1 -13.9246 -7.50875 -0.89705 14
582 1 7.75851 7.10658 10.7137 16
583 1 -8.1232 0.846238 -9.29639 20
584 1 -11.1705 2.85194 5.01222 19
585 1 -2.86969 4.49036 -7.19475 19
586 1 9.501 -6.55726 -9.92683 15
587 1 -9.32879 -10.7271 -6.73014 13
588 1 14.1297 -6.37741 -6.27069 13
589 1 -11.4234 8.56364 1.10829 16
590 1 -6.03086 -10.9201 -3.94193 15
591 1 -4.51347 -11.5769 5.10289 21
592 1 14.8742 -1.99136 7.21834 10
593 1 9.16356 -1.97605 2.22496 23
594 1 -11.1399 2.95705 1.26009 19
595 1 4.72549 12.1665 9.61813 16
596 1 2.03582 10.7777 -7.77028 18
597 1 -5.06894 11.0025 6.99131 16
598 1 7.64641 12.6022 -6.04384 13
599 1 6.57668 11.2071 11.7967 10
600 1 7.93327 -4.41191 11.5046 18
601 1 3.36968 12.7869 -11.0331 8
602 1 -7.819 -5.52436 11.0553 16
603 1 -3.0514 -1.313 -10.569 21
604 1 -15.2522 2.10091 -1.46327 12
605 1 -2.47843 -12.9938 9.23814 15
606 1 7.98054 -4.96717 4.33982 21
607 1 1.89877 -12.6568 -3.37587 20
608 1 -12.7705 8.13797 -1.95856 11
609 1 13.917 -3.04745 -6.80374 13
610 1 -8.4635 10.0438 1.89316 13
611 1 -8.11611 -2.96312 9.21049 17
612 1 -5.05121 -8.94845 -11.3119 12
613 1 -0.870283 -10.8008 -4.30803 16
614 1 8.3571 -12.4716 1.57507 19
615 1 -0.984457 7.30795 -11.0406 19
616 1 15.3676 3.02166 -8.96018 9
617 1 9.5865 3.74597 2.72987 20
618 1 12.2939 -1.25472 0.47798 18
619 1 -0.580371 5.35282 -13.9022 13
620 1 -2.05516 -7.99242 9.05213 17
621 1 7.22571 9.4009 -0.752857 21
622 1 7.78662 1.06526 -5.9243 23
623 1 -11.3101 2.54003 -2.29031 20
624 1 -5.41973 -10.9238 10.3214 15
625 1 5.15099 7.28186 5.64962 23
626 1 0.225027 -15.0291 5.13795 16
627 1 2.093 9.07105 -0.537469 21
628 1 -2.72883 7.28264 13.905 13
629 1 -5.42433 -1.52184 10.8864 20
630 1 10.5683 0.950366 -0.614923 20
631 1 -3.72968 -8.5503 12.7507 17
632 1 5.054 -11.6348 1.95791 22
633 1 7.78302 0.781662 13.423 19
634 1 10.8143 -5.55806 -5.98026 20
635 1 -5.8141 -1.60842 -12.7655 21
636 1 -4.68187 7.51404 -11.6081 15
637 1 -10.769 5.35818 -0.967967 20
638 1 7.35807 8.89402 2.7203 21
639 1 -0.730177 5.77181 9.07437 22
640 1 -8.42812 -13.8051 -0.290622 10
641 1 -3.29815 9.68393 -0.816263 21
642 1 11.7488 4.39939 11.7646 10
643 1 -2.36536 -8.55151 5.53253 18
644 1 7.89196 -4.51588 -8.45617 20
645 1 7.59753 -11.39 -2.3242 18
646 1 4.74136 2.48283 -10.7136 22
647 1 -8.51352 1.0063 -16.158 8
648 1 -7.8647 -7.06158 -1.11554 19
649 1 -9.20224 6.96962 -4.36817 17
650 1 -4.51386 2.73104 16.5923 7
651 1 7.85097 -3.76794 7.75019 21
652 1 -7.8258 -9.84127 4.65135 18
653 1 15.6518 -0.843531 1.2007 19
654 1 -0.248758 4.51883 -8.98478 20
655 1 15.2783 6.46194 3.43554 12
656 2 -8.3696 0.806934 -7.14293 17
657 2 -1.82517 13.8739 -4.04393 17
658 2 1.42193 -0.776077 -11.7083 20
659 2 -4.57836 6.68165 13.7805 13
660 2 -5.55394 -11.5392 -9.01515 13
661 2 2.07816 3.39424 14.2447 18
662 2 -12.2467 -6.87356 4.11734 15
663 2 -10.9237 6.52738 -5.24517 15
664 2 4.47179 15.3684 6.25574 12
665 2 -11.3267 1.01153 1.15087 15
666 2 8.34532 4.58185 4.07965 19
667 2 -12.1019 -6.92838 -6.03176 12
668 2 -8.36543 0.0518808 -0.691934 21
669 2 -0.307081 -8.4603 5.6942 18
670 2 3.24203 1.61949 9.08604 21
671 2 5.77472 -4.59414 -9.03024 20
672 2 4.23271 -14.8556 5.00298 10
673 2 -4.87274 8.78531 -0.446563 20
674 2 -9.80987 2.4301 -8.98363 15
675 2 11.2009 4.56211 5.42508 18
676 2 12.6327 -10.5571 -1.49946 13
677 2 -8.33152 -11.5128 3.93482 16
678 2 -11.0729 -5.1886 7.20337 15
679 2 -0.161732 -13.0647 5.0868 18
680 2 8.82828 -4.21875 6.05718 20
681 2 0.424311 -15.9109 -2.41918 14
682 2 5.36981 -1.43716 16.3723 15
683 2 -1.02977 14.6586 -6.83394 13
684 2 -10.498 -10.1524 -2.78011 12
685 2 -0.244914 4.51924 15.8807 12
686 2 -7.61785 11.1813 0.0436748 14
687 2 -2.54243 3.36526 14.6564 18
688 2 -3.11834 10.5461 -4.50287 17
689 2 4.57387 -9.78706 1.70076 20
690 2 0.471359 6.10737 7.75865 21
691 2 1.21085 12.2972 -6.9176 17
692 2 5.23068 -7.5986 -3.93221 18
693 2 3.13232 -4.62577 -11.0405 20
694 2 7.91254 -0.973739 -5.59381 17
695 2 -1.71198 6.49191 15.2642 13
696 2 2.87808 3.76347 -14.8829 9
697 2 -0.707054 6.85718 -12.7762 14
698 2 7.70601 7.96423 -3.79727 21
699 2 -4.33323 -4.37256 15.0419 12
700 2 -10.115 9.44074 2.44652 14
701 2 10.1816 -0.740511 -8.05305 19
702 2 7.21951 -11.0616 -11.2857 9
703 2 -14.8111 -6.55484 2.65064 10
704 2 11.8454 8.40626 1.87917 13
705 2 -2.70858 6.57213 6.20791 18
706 2 -2.1997 -10.0105 -7.40775 19
707 2 -3.41883 11.6339 7.65473 13
708 2 5.67765 -8.35618 11.3645 10
709 2 8.19213 -6.77366 0.739963 20
710 2 -11.6623 3.84545 -0.517477 19
711 2 14.4966 -4.8296 0.221004 17
712 2 9.26368 -11.3298 -1.5021 20
713 2 8.57055 6.91336 5.87997 21
714 2 7.56745 -14.0211 5.59423 9
715 2 15.5534 -0.793353 5.89341 12
716 2 -3.92593 -1.74621 14.2083 16
717 2 14.7454 -5.61939 -4.48235 15
718 2 2.28527 2.65416 11.0107 22
719 2 11.453 6.83854 7.6223 13
720 2 -7.85763 7.13459 12.7481 7
721 2 5.57853 5.87019 4.014 22
722 2 17.0644 -4.37074 1.69083 13
723 2 0.672102 9.49194 -8.60107 17
724 2 -8.77888 -4.00167 -7.93601 18
725 2 -6.37155 3.06278 9.47715 18
726 2 8.76181 1.84029 -7.21259 20
727 2 -9.45986 2.44709 -2.31916 21
728 2 -12.5841 1.06725 4.50239 15
729 2 -12.3189 -9.58836 3.09055 12
730 2 18.0674 0.384874 4.55685 9
731 2 0.379466 -3.96542 7.77286 21
732 2 -0.397129 -1.69381 13.2616 20
733 2 5.791 -4.57894 -12.7814 14
734 2 9.95641 5.34245 12.0151 14
735 2 -2.63883 6.46677 9.48415 19
736 2 -7.8367 0.136898 2.72614 21
737 2 5.12532 -8.13145 -7.74572 24
738 2 11.1036 6.78741 -8.89288 13
739 2 -4.93694 14.4563 3.09755 14
740 2 -2.69839 -9.76081 -0.815744 22
741 2 9.80075 -7.06499 -5.68392 18
742 2 2.18677 4.28539 8.04661 23
743 2 7.70429 -10.3844 -8.79072 16
744 2 5.20657 -1.11824 9.20658 22
745 2 -0.885745 -6.85916 8.21942 17
746 2 9.16901 1.93588 2.07986 21
747 2 -8.66518 -9.93557 6.54185 15
748 2 11.4248 2.02778 -9.09659 14
749 2 -1.94146 -12.0312 1.80259 21
750 2 12.8941 -7.86368 -6.61302 12
751 2 2.84064 -12.7826 -6.57452 15
752 2 11.916 -4.69218 1.02994 20
753 2 -5.90666 11.311 5.24933 16
754 2 16.1794 -3.31021 -3.00233 14
755 2 -6.57683 -6.35164 -7.03815 19
756 2 -10.3551 -10.7366 0.80958 15
757 2 -3.71907 -8.70682 2.46825 22
758 2 -6.04407 -7.22052 -1.06639 17
759 2 -1.52125 12.7756 2.07199 17
760 2 -7.7575 13.6043 3.79119 8
761 2 12.8778 5.91332 -6.69358 16
762 2 5.29075 6.81673 -8.88704 20
763 2 -6.51941 -0.166436 14.1444 10
764 2 -5.86024 0.28213 -12.7575 20
765 2 -12.2517 6.47082 2.37074 18
766 2 -3.85185 3.79926 11.1966 21
767 2 -8.43554 1.11956 9.71031 16
768 2 7.62574 12.8993 2.58308 13
769 2 13.3239 -1.15659 -7.54759 13
770 2 11.7155 -5.68611 4.76123 15
771 2 -7.18158 -3.02547 14.0987 12
772 2 -0.144609 9.05302 3.0233 20
773 2 -8.95474 8.62263 -5.38343 17
774 2 -4.43441 9.24414 5.87464 19
775 2 12.7621 -3.16023 6.3429 12
776 2 -6.42301 -8.73519 -9.89062 11
777 2 3.30969 5.96069 -11.8022 15
778 2 14.3475 4.78144 3.9065 16
779 2 -9.28798 -7.44843 8.59345 14
780 2 0.303695 8.85056 -0.661259 22
781 2 -5.18469 12.7414 -5.27504 16
782 2 4.69683 15.1326 -3.02119 13
783 2 9.84358 0.211673 13.543 11
784 2 -3.46842 3.94362 7.70933 20
785 2 13.9489 -8.24257 -3.26036 13
786 2 -0.0614088 1.05445 14.5948 15
787 2 3.21537 -3.85746 9.34502 21
788 2 -15.2374 3.62013 -2.53307 9
789 2 -2.3545 -6.67834 -8.7368 18
790 2 2.90759 -14.4968 -3.83043 13
791 2 7.5527 -1.83141 -8.50157 21
792 2 18.1552 0.882329 -1.43985 11
793 2 -4.01321 1.34455 15.5347 11
794 2 6.1672 -0.971129 -12.8951 13
795 2 -4.31907 -9.97193 11.59 15
796 2 -3.32163 3.22256 -16.4293 11
797 2 6.29199 -13.5987 -6.17134 13
798 2 6.83233 -12.6323 2.78944 18
799 2 11.8328 9.26792 -6.38293 12
800 2 -9.06319 1.71719 -14.2485 11
801 2 -0.325319 8.86496 10.0314 18
802 2 -8.16777 -4.87083 -0.618065 21
803 2 -6.59918 4.10036 -7.04662 17
804 2 3.9044 10.0733 -7.61125 19
805 2 2.69748 9.92582 -2.61594 18
806 2 -5.71039 -14.5133 2.81594 13
807 2 14.7434 2.19964 5.84511 14
808 2 -0.807496 3.86967 12.6113 23
809 2 -5.31493 -12.6947 -4.29691 15
810 2 6.84478 -10.1697 -1.05278 20
811 2 2.95042 1.25835 15.9823 11
812 2 6.92648 14.816 8.61946 10
813 2 13.404 -4.91764 -7.1841 13
814 2 5.41256 3.83879 14.8081 12
815 2 9.23534 11.4587 -6.35674 11
816 2 -10.9415 -1.24336 9.80617 10
817 2 11.0475 -1.05507 2.03805 21
818 2 6.74096 14.4549 4.91062 15
819 2 5.53122 6.29717 7.25023 20
820 2 -7.47226 -0.508357 -16.0377 13
821 2 7.72262 -5.16675 13.1272 12
822 2 -6.92135 13.8957 0.987583 12
823 2 1.7533 -9.48999 8.56963 16
824 2 12.9795 -8.27386 5.53256 8
825 2 -9.07297 -12.7918 -1.96307 10
826 2 -7.93945 12.6501 -7.38467 9
827 2 -5.12389 -8.33859 -13.2533 10
828 2 -1.64936 -12.3181 -5.32768 15
829 2 -0.00508829 1.14299 -8.84812 19
830 2 -3.15761 -9.43351 -10.863 14
831 2 8.4638 12.5889 7.66642 13
832 2 -10.6068 -5.88891 -2.12706 19
833 2 -9.21507 2.61632 1.0417 19
834 2 8.79507 -3.90024 2.6065 21
835 2 -8.96594 5.30673 2.6481 18
836 2 -0.593136 -16.1939 1.80151 11
837 2 -3.98762 4.41112 16.5936 9
838 2 5.471 4.26347 -7.32186 21
839 2 -4.20008 -1.30493 -9.0752 20
840 2 7.75117 4.15551 -9.59802 16
841 2 17.9454 0.223835 1.94289 14
842 2 -5.40276 -4.25904 -9.08694 16
843 2 -11.8435 9.20489 -0.614408 10
844 2 -6.51782 10.6903 -3.35156 18
845 2 -3.54942 -1.17126 11.0333 22
846 2 -11.6408 -3.8526 -6.37099 17
847 2 2.85234 -3.87901 -7.6471 18
848 2 5.06369 -2.11075 -7.69192 19
849 2 7.13907 10.2233 4.30678 20
850 2 5.22649 -6.59999 9.33102 19
851 2 2.26209 -1.07054 -9.00904 20
852 2 8.66225 -2.13348 13.925 18
853 2 8.47576 1.09855 -10.9155 15
854 2 -0.562268 -7.35359 -4.78004 19
855 2 1.7949 11.8163 -10.9215 10
856 2 6.41566 12.8859 10.3019 10
857 2 13.6957 2.65101 2.5699 18
858 2 -11.7544 -1.99609 6.28525 18
859 2 -14.3899 3.40006 3.16957 13
860 2 -0.315819 -11.3236 7.34302 19
861 2 -1.23214 3.84347 -7.17583 17
862 2 -1.96326 -7.21767 4.27486 16
863 2 -5.36144 6.27616 4.33142 19
864 2 -8.50969 -4.98296 9.02659 14
865 2 2.9794 -9.933 5.53382 19
866 2 -9.45325 10.6007 -3.0367 16
867 2 5.67331 -7.03982 -10.442 21
868 2 -14.5465 -3.61123 2.74997 12
869 2 8.87427 -4.32063 15.5412 11
870 2 -7.92012 -10.9021 -3.71793 16
871 2 -6.68589 -8.61691 3.9351 18
872 2 11.1469 -2.59261 8.87687 17
873 2 6.63811 11.7098 -7.4933 15