ITEM: TIMESTEP
5000
ITEM: NUMBER OF ATOMS
2000
ITEM: BOX BOUNDS pp pp pp
-30.0 30.0
-30.0 30.0
-30.0 30.0
ITEM: ATOMS id type x y z Coordination
1 1 -11.3506 3.68075 -11.6486 11
2 1 -5.17331 -10.5887 -10.1508 15
3 1 2.05767 8.1413 11.9649 14
4 1 8.01627 -12.3672 6.96308 15
5 1 -5.16736 9.48287 -2.23098 22
6 1 9.40878 -8.14318 -10.2877 18
7 1 -11.7195 2.36135 -4.97817 15
8 1 -0.0360322 -7.80654 10.8773 19
9 1 -8.32119 2.77877 -12.0623 18
10 1 -13.8412 -10.4891 3.15885 13
11 1 11.5576 5.55986 -10.7476 12
12 1 -2.34215 -18.9789 -1.0626 7
13 1 -11.9064 -6.47294 5.90437 17
14 1 5.56707 3.60056 17.8297 13
15 1 0.0331816 0.653509 9.03288 20
16 1 0.581619 9.13496 -9.10422 21
17 1 8.1314 -5.7147 10.5029 19
18 1 -10.2228 -2.44839 -13.9555 9
19 1 -12.7444 -4.22267 11.6106 9
20 1 15.3543 1.97259 9.56993 19
21 1 -0.465027 6.03999 -14.0354 20
22 1 5.27856 6.07079 -11.4839 19
23 1 13.8006 0.987525 12.1725 17
24 1 -9.67217 4.14979 -6.32284 20
25 1 -10.8492 8.49676 8.37309 13
26 1 11.1869 -11.4136 5.41932 10
27 1 5.6349 -13.5767 -9.32504 16
28 1 12.8709 -12.0568 -0.256737 12
29 1 -3.1294 -14.561 -5.66859 16
30 1 -11.7757 -5.88744 9.09824 17
31 1 6.60737 -9.67254 -14.6796 15
32 1 8.64404 -10.3463 -12.3351 19
33 1 -3.87723 5.53071 -16.2679 9
34 1 0.899201 3.5452 13.8306 17
35 1 0.615778 -10.8065 12.9898 10
36 1 6.69237 -5.85213 15.7818 8
37 1 -9.05429 0.795097 0.676953 19
38 1 -13.4582 -3.25874 8.88158 13
39 1 -9.09996 0.958082 -2.70947 20
40 1 -1.37402 11.267 -1.92953 21
41 1 2.24435 -14.2104 -10.525 14
42 1 5.1489 0.907332 -11.0017 20
43 1 2.93183 -7.90407 -10.4932 23
44 1 -0.148642 -1.22772 14.1772 19
45 1 -8.5851 8.40089 -0.868418 18
46 1 3.00362 8.14479 -10.9904 21
47 1 3.61248 16.1643 7.60309 11
48 1 -7.95223 9.2618 -7.03675 17
49 1 1.04387 12.4551 -0.804868 18
50 1 -2.18996 -17.8891 6.79274 15
51 1 10.4042 -9.39544 -6.34361 19
52 1 7.50949 -6.49952 -15.8653 14
53 1 -5.22437 9.14878 7.54369 20
54 1 -12.5764 -4.41981 -6.93564 17
55 1 -7.75932 8.99262 -3.84079 22
56 1 -8.28324 -9.82898 8.03106 19
57 1 -3.57023 11.5594 7.53569 17
58 1 -10.7845 3.51962 -2.64839 19
59 1 -11.4262 7.31322 11.7067 12
60 1 -7.70318 -15.14 5.66759 18
61 1 3.16989 2.93575 8.93945 21
62 1 6.89321 -13.2043 0.882425 19
63 1 6.1426 7.11884 15.0965 17
64 1 -14.2513 -2.07393 -6.62323 12
65 1 -18.0979 1.33294 -2.49983 10
66 1 6.85289 5.4356 12.4674 20
67 1 10.846 -4.33519 -7.5239 17
68 1 13.242 -8.41582 3.62759 16
69 1 -16.8382 -2.52178 1.99716 11
70 1 5.07574 16.2842 4.69964 13
71 1 8.22055 -1.12797 13.9614 19
72 1 -4.98026 -12.4397 9.57712 19
73 1 -11.2912 -1.67953 -5.30543 18
74 1 12.2912 2.66489 8.0525 22
75 1 5.5253 14.7111 9.94793 12
76 1 6.42914 -2.06778 7.12934 21
77 1 -0.0861219 -7.1682 -5.74496 21
78 1 -11.4299 5.88967 6.40112 16
79 1 -7.43378 11.0269 -0.950807 17
80 1 -2.29264 5.70369 -8.70949 18
81 1 8.92099 -2.64759 -4.31306 18
82 1 11.6917 12.9317 -9.25378 10
83 1 9.19456 -7.70155 2.20788 19
84 1 4.88294 -8.23623 10.4624 13
85 1 -5.93362 15.0171 -5.46794 10
86 1 -11.1631 10.5896 2.831 9
87 1 -8.45986 -6.28771 16.1485 8
88 1 -0.119895 6.80748 5.81206 19
89 1 -2.89015 -8.03981 9.34894 20
90 1 12.7035 -13.4707 -2.78166 15
91 1 -7.47943 3.65584 9.44375 18
92 1 -1.93919 -17.0615 3.64611 17
93 1 12.0198 -6.9232 -8.46103 13
94 1 6.0133 -2.60231 -13.0286 21
95 1 -9.87325 -8.00399 -12.3655 10
96 1 1.31323 12.9215 2.43304 19
97 1 -9.84992 4.93582 -9.42684 16
98 1 1.62243 6.86446 18.1368 9
99 1 -0.420603 15.0005 -7.06108 12
100 1 -10.7354 9.33405 -2.18803 17
101 1 3.59628 10.9046 1.06464 21
102 1 -6.5725 -13.2281 13.4223 11
103 1 14.8793 -3.56788 8.1488 21
104 1 0.153359 -7.75415 -9.09236 21
105 1 7.95949 -8.55164 -7.94429 20
106 1 0.327943 1.0394 12.0067 21
107 1 6.66409 -2.1219 16.9636 13
108 1 -9.07694 -5.48522 0.90746 17
109 1 -9.54241 -7.94012 -5.30664 15
110 1 14.5794 -6.59321 5.67168 13
111 1 -4.70087 6.6421 2.65104 18
112 1 5.59717 0.0912863 -13.775 18
113 1 8.27923 15.6513 -5.45198 13
114 1 -8.63493 -14.6494 8.60996 15
115 1 -13.049 -12.2366 6.46686 10
116 1 4.38284 -7.60138 -13.113 19
117 1 5.61277 6.09145 -7.43839 18
118 1 14.8372 -9.4898 1.1795 8
119 1 -2.24193 -14.2611 6.09547 20
120 1 -8.2799 -11.2506 0.276163 21
121 1 17.2278 8.28723 13.6952 9
122 1 13.6372 -3.51573 -6.08305 13
123 1 -13.6274 -2.08897 3.52578 15
124 1 8.31324 5.60333 7.72558 21
125 1 17.1611 9.77231 5.98915 11
126 1 -4.89207 -2.30506 14.5633 14
127 1 -5.6548 7.02708 11.9262 17
128 1 0.128889 11.3321 -7.98347 19
129 1 0.760605 -8.02264 -12.439 22
130 1 13.1323 -10.2271 -8.06431 12
131 1 -0.2084 14.3612 -12.973 7
132 1 8.91548 -5.68941 13.5221 19
133 1 -2.11722 -3.11104 -14.3049 20
134 1 0.755964 6.24863 -7.79784 22
135 1 10.8458 1.00155 -4.00124 17
136 1 -13.4805 8.59989 -4.45868 10
137 1 -3.87724 12.4687 -3.91103 21
138 1 8.16366 1.47666 -9.29096 22
139 1 9.03806 -9.3023 5.11976 19
140 1 -2.10503 8.32669 -3.73888 20
141 1 -7.47352 11.3858 8.2777 12
142 1 11.5923 5.87465 -5.04533 18
143 1 8.40735 11.0798 -1.27587 17
144 1 -6.03394 14.9419 1.05697 11
145 1 13.7696 5.35487 6.14708 19
146 1 0.538017 8.93577 -2.15919 21
147 1 2.69026 13.278 -13.5031 15
148 1 1.44326 8.27643 -13.9233 20
149 1 -11.2414 -11.9916 3.74154 13
150 1 -14.2482 5.61386 0.952952 13
151 1 -4.41847 -4.43782 -12.0713 21
152 1 8.38135 -11.4826 -15.2609 9
153 1 12.0616 12.9093 7.80438 13
154 1 -0.0745858 15.1381 7.07008 11
155 1 -15.2753 -2.99863 -3.84 15
156 1 -11.7629 11.7098 -0.301594 7
157 1 18.0256 3.9292 7.33903 8
158 1 -11.667 0.244348 -11.3471 13
159 1 8.26339 1.92096 13.3482 21
160 1 4.29871 15.8377 -1.46458 14
161 1 1.2948 9.62905 7.26158 20
162 1 1.07949 -8.10043 -15.2149 14
163 1 -0.234097 12.0659 7.77926 19
164 1 0.930561 9.24356 -5.58261 22
165 1 1.3348 -3.70277 14.8861 11
166 1 -10.8789 -3.32796 4.35887 18
167 1 -0.515926 -13.6125 -12.238 14
168 1 -8.98061 11.6893 -9.50265 8
169 1 -2.68851 -8.22932 5.78155 21
170 1 7.90651 -16.9446 -4.92632 13
171 1 -2.64809 10.1353 -9.78392 16
172 1 -12.6606 1.9837 10.2161 16
173 1 8.46653 11.1388 -6.95099 21
174 1 -5.52269 1.92327 14.2168 12
175 1 -0.0943749 -10.2719 9.25937 22
176 1 -7.88347 3.79192 -0.844442 22
177 1 1.15936 16.0299 0.249352 14
178 1 0.666867 4.34963 10.7012 20
179 1 16.8098 7.30745 16.7735 7
180 1 -9.23789 11.7208 4.61149 16
181 1 12.2035 -6.70576 -5.77608 21
182 1 -5.32792 11.0418 11.1365 16
183 1 -4.98679 3.89371 -9.5883 18
184 1 12.999 -4.46967 5.00185 18
185 1 -6.22907 -4.63824 5.57558 19
186 1 -10.3791 3.35508 4.22856 17
187 1 -7.41839 -12.1043 6.27357 16
188 1 9.37779 6.90708 13.7435 16
189 1 -13.8138 -0.144421 0.774328 13
190 1 -2.3751 -15.2135 -0.537201 18
191 1 6.53226 -7.56104 -2.69775 19
192 1 -2.72128 8.65594 2.52048 18
193 1 2.20418 11.5926 14.4329 11
194 1 -8.56572 -2.01674 -4.09357 22
195 1 -4.31017 15.3941 -8.65282 7
196 1 -12.0005 -6.02546 -1.16395 19
197 1 -8.44476 -5.29758 9.74736 19
198 1 0.572854 -12.5837 3.94968 21
199 1 2.78952 -11.336 7.26021 19
200 1 -12.5882 5.83003 3.17445 15
201 1 15.3509 2.89735 6.46982 18
202 1 8.17163 5.72287 -2.37896 21
203 1 -7.02999 -9.06354 -14.223 11
204 1 7.95215 -0.297851 11.0203 21
205 1 5.94391 -19.3527 -1.01465 8
206 1 -2.44592 10.2232 -17.1749 10
207 1 5.64219 -13.4863 -5.85036 18
208 1 8.18217 -0.6746 -11.3096 19
209 1 0.103744 9.19278 -16.2429 16
210 1 -5.21116 -4.26589 -7.88508 22
211 1 -3.20317 14.119 -6.37175 17
212 1 -2.7142 -10.195 11.559 19
213 1 8.68785 15.6918 -0.404387 16
214 1 -7.8408 -3.29463 16.3359 10
215 1 -1.61003 11.3766 -5.52487 20
216 1 11.2559 -0.120935 9.52235 22
217 1 -2.61505 -8.75611 -10.7974 20
218 1 -1.62762 8.53117 -7.0711 19
219 1 2.98487 5.53458 -8.93986 22
220 1 -1.67683 -13.2397 9.70264 17
221 1 -3.49314 8.22806 9.6497 22
222 1 -7.08306 8.86113 9.82894 18
223 1 0.298483 -13.2308 -5.64503 24
224 1 -4.75427 -12.0235 -2.5927 19
225 1 7.38812 -11.7268 -1.62914 14
226 1 14.0745 2.52801 17.1388 16
227 1 8.84326 11.1606 -10.1107 17
228 1 3.07389 8.09448 -4.03096 20
229 1 -9.02828 1.04772 4.03249 18
230 1 -10.5773 8.12 -5.45943 17
231 1 3.64146 5.04022 10.9693 18
232 1 5.1785 -18.2005 1.83326 10
233 1 11.0717 0.798941 -0.65554 20
234 1 3.67202 8.57663 6.0659 19
235 1 -8.6092 6.83087 7.4675 21
236 1 -9.91591 -9.04198 -2.35231 20
237 1 9.67393 4.96761 -13.3352 13
238 1 2.80708 0.00560076 10.8048 18
239 1 4.39294 8.27616 -16.2704 10
240 1 2.30919 -11.219 -2.12593 19
241 1 -2.39529 0.0353418 -12.7652 20
242 1 -0.432406 -15.709 8.47376 15
243 1 8.20505 0.634269 -6.09128 19
244 1 -7.82874 -1.81888 5.6419 20
245 1 6.32784 -16.2842 -0.656604 17
246 1 -9.78043 -4.47262 -8.81425 18
247 1 5.45848 13.0003 -0.49259 20
248 1 3.23794 -1.87759 -14.4152 21
249 1 11.1448 2.48902 15.3077 19
250 1 13.8076 4.31821 3.797 17
251 1 11.9739 -9.35414 -11.3923 13
252 1 -5.65159 -1.68929 -9.72862 16
253 1 -12.8867 -3.18115 -12.101 10
254 1 -9.52119 -16.727 3.93738 9
255 1 12.4275 3.3676 11.1042 16
256 1 3.60666 -2.81973 8.95371 23
257 1 -5.13615 -7.36783 -9.10402 19
258 1 4.95318 8.09777 -13.5901 18
259 1 6.79221 9.72065 1.33741 21
260 1 -4.90216 -10.0332 2.37384 17
261 1 1.60313 15.1236 -3.35418 16
262 1 -4.81756 -2.57428 10.585 21
263 1 -10.1122 -9.715 -8.81055 9
264 1 -4.9662 -8.09702 -12.2431 21
265 1 -5.41021 10.6716 -14.6776 10
266 1 -7.75884 -10.7652 -3.65581 19
267 1 -2.863 -11.832 0.277573 19
268 1 10.4203 -4.84673 -14.8349 9
269 1 12.4681 -1.97129 -8.68571 13
270 1 11.9055 3.68754 1.72188 22
271 1 -5.74926 -6.81613 10.5323 18
272 1 -6.51014 -9.57885 -1.09444 19
273 1 9.88164 -0.169679 16.9172 15
274 1 -4.23147 -16.853 1.76594 11
275 1 -0.0588873 -13.2211 0.797552 18
276 1 1.16779 12.0732 -4.2299 24
277 1 6.83928 3.21171 -11.8464 18
278 1 -4.72509 -1.47897 -12.0253 21
279 1 -10.7082 -9.4141 10.5346 17
280 1 8.41408 6.21094 17.3105 10
281 1 2.29527 -10.9725 1.1466 20
282 1 -3.08344 -14.8108 -10.9456 10
283 1 -7.77875 6.36288 -6.55787 20
284 1 14.3761 8.24483 5.08969 22
285 1 -2.25019 5.5469 -11.8958 22
286 1 0.62094 6.26112 -11.0606 23
287 1 10.4577 -12.0595 -12.7496 11
288 1 -1.94933 14.246 -0.441632 21
289 1 8.60921 14.784 9.88513 10
290 1 14.4191 0.805892 3.99909 15
291 1 -8.9531 0.529521 7.77874 17
292 1 -0.263463 -4.93269 12.7896 15
293 1 -3.26302 8.21807 5.85577 26
294 1 2.7804 -5.20639 -12.6904 20
295 1 13.1809 9.12688 -4.53388 13
296 1 3.6245 -11.3119 4.62075 22
297 1 0.647742 -1.0179 17.4944 9
298 1 -15.6567 -0.0805244 3.41449 12
299 1 4.33076 -16.4267 -5.90003 14
300 1 -8.33116 8.26812 12.8885 12
301 1 -8.83674 5.7991 13.4072 14
302 1 -11.0798 -8.58602 4.56855 22
303 1 -14.2069 -9.22525 6.28122 13
304 1 14.3336 -4.56024 -0.997841 16
305 1 -10.9964 -12.1986 8.87227 14
306 1 8.18431 -5.65596 -9.36117 22
307 1 8.52168 -8.7556 -1.04173 19
308 1 5.9154 15.5026 -7.58887 14
309 1 -4.4069 9.17116 -5.55943 20
310 1 13.5962 6.2573 17.9885 7
311 1 -8.44322 -1.90692 2.49183 17
312 1 11.7175 -13.2315 -6.12057 14
313 1 -6.22231 8.7968 4.45913 19
314 1 -5.72834 5.92003 5.70504 21
315 1 3.3217 -11.2656 10.8144 10
316 1 17.4112 -3.54291 11.4249 7
317 1 -0.148811 6.87723 8.78772 18
318 1 -6.38856 -4.32859 -4.30556 19
319 1 -3.03309 0.122635 14.34 17
320 1 -0.643764 12.7337 5.00053 20
321 1 8.90576 3.00937 18.0524 14
322 1 -7.79471 12.0277 -6.3393 11
323 1 -3.09094 -6.08077 -15.9821 13
324 1 7.94922 -13.532 -12.3811 12
325 1 -8.86033 -1.01211 14.0044 15
326 1 -15.7166 3.60682 3.61418 9
327 1 -2.26993 -5.76129 -9.19113 19
328 1 -2.06968 8.61226 -0.0487154 22
329 1 9.66861 -3.16941 6.01976 20
330 1 -8.51068 -16.3979 -2.85074 10
331 1 7.57769 -9.71776 9.37648 11
332 1 -8.45754 -11.3966 10.6643 15
333 1 -16.0759 3.27089 0.124966 10
334 1 -0.144359 -5.46861 9.22723 21
335 1 8.42366 -14.7817 -1.77191 14
336 1 -3.13521 0.0476832 -9.30061 21
337 1 8.48106 -1.58012 -14.7408 14
338 1 2.18539 14.659 5.55536 17
339 1 -8.92721 0.783431 -6.21001 20
340 1 3.49952 -10.0242 -12.4106 17
341 1 8.67322 5.38233 -10.4184 19
342 1 -7.70631 -9.14449 -11.0134 15
343 1 -11.8804 -3.37625 -3.52013 21
344 1 -6.42451 -7.28646 0.721606 17
345 1 15.5432 -0.0032172 17.6699 11
346 1 13.5831 0.943552 -2.61054 21
347 1 -12.1497 6.53893 -7.30408 12
348 1 6.7797 14.6703 -3.29859 17
349 1 -14.5051 -3.06764 -1.21826 13
350 1 -8.60318 9.20304 2.69348 21
351 1 -5.87857 9.1262 1.02404 19
352 1 -2.92371 5.62725 7.46087 23
353 1 13.2805 0.0405688 15.5148 20
354 1 8.41915 -5.52478 -6.17699 20
355 1 10.6805 -6.12289 15.5834 12
356 1 11.5603 0.542876 -7.6183 15
357 1 -1.22598 -16.1492 -7.03426 13
358 1 3.23846 -8.5891 -4.03061 21
359 1 2.38329 8.34458 2.76525 21
360 1 -8.51141 0.092198 -9.44165 19
361 1 4.8697 -10.1775 -0.793045 17
362 1 11.2459 0.73037 6.16275 20
363 1 -9.38578 -4.75958 -5.98243 24
364 1 -5.02958 -10.2271 6.31419 19
365 1 -9.98057 -8.29687 14.3057 12
366 1 0.497772 9.69332 1.20847 21
367 1 -9.97463 -12.5846 -2.21228 16
368 1 4.67693 6.14896 17.426 14
369 1 -5.95487 6.40819 -4.21068 20
370 1 3.1672 12.3986 -8.52207 20
371 1 11.9116 9.89393 8.66165 15
372 1 -13.442 -8.65769 -2.11138 7
373 1 -2.28886 -11.6127 -5.82408 19
374 1 -12.8873 -0.283271 7.79527 17
375 1 -15.2777 6.08462 -2.59424 9
376 1 5.83143 -7.32294 7.40083 18
377 1 -1.06102 -15.2953 -3.67628 17
378 1 8.47213 14.7913 4.32602 21
379 1 4.52892 4.54217 -16.4465 13
380 1 -12.7524 5.46277 -4.38373 15
381 1 -1.82173 13.3015 -9.55228 14
382 1 -5.11972 7.02688 -7.7705 21
383 1 -5.58717 -14.1381 7.31566 19
384 1 14.6713 4.79494 9.59446 19
385 1 2.80081 5.46797 -13.3808 21
386 1 -2.89712 0.157229 10.6378 21
387 1 -17.1252 -1.92187 -1.04729 15
388 1 -4.63276 3.44689 7.29993 21
389 1 -5.18259 -16.2034 -0.813578 14
390 1 3.15572 -11.5736 -8.97394 18
391 1 -12.2482 5.17326 9.20904 16
392 1 -13.0241 -1.10918 11.3591 12
393 1 -12.4415 2.94768 7.49464 16
394 1 -0.585376 -7.75361 7.45951 21
395 1 -10.4161 1.43216 -14.2996 11
396 1 7.20269 -11.1776 -9.68341 19
397 1 -1.86395 -11.6783 -9.65975 17
398 1 -2.96221 -5.68666 7.16174 25
399 1 -4.14679 2.60733 -17.1574 13
400 1 5.27235 -10.624 1.78149 18
401 1 3.75337 8.39304 -8.12835 20
402 1 -11.0167 8.43971 4.7952 18
403 1 -3.18865 -9.06646 15.63 10
404 1 -12.2906 -5.80302 -10.5534 12
405 1 -5.96497 -7.14074 7.38911 21
406 1 11.2302 -5.54796 11.9517 19
407 1 2.64259 0.506691 -9.40714 20
408 1 10.6818 -6.37589 5.37857 21
409 1 15.1683 7.93105 -1.72334 10
410 1 -5.53289 -0.235152 12.4062 19
411 1 3.80658 10.8139 -2.19199 21
412 1 12.3787 -5.62079 8.17865 16
413 1 0.344173 -17.5326 -1.68097 15
414 1 -5.60513 5.31239 14.1003 12
415 1 -3.08317 11.4076 4.46677 20
416 1 -10.1758 -10.8551 -5.83692 12
417 1 11.0763 15.4578 2.06464 13
418 1 3.38625 5.67989 7.61603 18
419 1 -2.04801 2.65347 8.81681 22
420 1 -5.25005 -6.93664 -2.55613 21
421 1 -6.00595 6.10213 9.10202 22
422 1 -7.42945 -6.26744 -7.81908 16
423 1 -1.61791 9.66374 7.56271 23
424 1 -5.95939 -13.5567 -5.41616 18
425 1 -4.01725 -9.31298 -14.8637 10
426 1 -5.62754 -13.0054 4.19041 17
427 1 8.2299 0.117828 7.743 20
428 1 -5.39478 -8.45666 13.3645 16
429 1 -11.6819 7.31816 -11.0273 10
430 1 8.92436 5.38714 0.628211 20
431 1 -8.77736 -13.7799 -4.65509 12
432 1 -2.03899 16.9486 1.39183 9
433 1 0.583273 3.6139 -8.75958 22
434 1 -0.260682 9.29471 10.4518 18
435 1 -19.4968 -0.836917 -3.28767 9
436 1 2.66662 16.3288 -8.40505 10
437 1 6.46926 11.2773 -3.85055 18
438 1 -3.02829 -8.39253 -7.39046 20
439 1 2.19431 1.2336 15.3067 19
440 1 7.00821 -15.4632 -7.36228 16
441 1 0.190059 -5.05026 -14.026 21
442 1 9.40836 -13.3485 4.30118 11
443 1 -11.6229 8.4563 1.56605 15
444 1 4.86961 3.66401 15.1464 19
445 1 11.6726 6.21561 -1.02262 20
446 1 3.47755 8.28171 -0.474338 19
447 1 -10.3001 10.175 -11.55 8
448 1 3.56808 3.02152 -7.45385 23
449 1 3.42047 -8.3237 5.32053 19
450 1 -18.2589 -4.43862 -3.05481 6
451 1 5.52783 12.6659 5.83197 18
452 1 -5.05247 3.77431 -12.8331 14
453 1 14.3791 6.70068 1.92657 20
454 1 10.9412 14.6307 -6.17304 11
455 1 11.452 -15.8923 -1.04225 9
456 1 15.7031 3.37382 2.09521 13
457 1 -0.283794 0.269925 -14.5497 21
458 1 -0.895368 -10.6513 2.26655 21
459 1 3.04596 -14.4181 4.81756 21
460 1 2.55708 -8.84836 8.54684 19
461 1 -7.63256 3.48792 -8.40293 21
462 1 -11.0612 -14.7657 6.16931 11
463 1 -0.325586 -13.5579 -8.47803 19
464 1 8.96602 12.4407 7.05927 23
465 1 0.747118 3.47773 -11.8214 23
466 1 6.60149 -3.44138 13.9944 21
467 1 -10.9282 1.32495 12.7359 18
468 1 -0.114808 -19.3148 4.56552 11
469 1 -11.3407 -1.10422 -1.79439 20
470 1 15.5253 -5.82875 -4.17764 10
471 1 11.0515 -4.67836 -4.11479 21
472 1 -2.42992 5.75664 -5.63635 21
473 1 2.61384 -8.00164 -7.22511 19
474 1 3.36688 3.03545 -10.8389 20
475 1 5.78345 -5.48128 -11.2614 21
476 1 -4.79829 -5.67705 15.5428 11
477 1 3.18629 15.1979 2.28347 15
478 1 -6.93692 -2.24693 -13.904 14
479 1 5.63298 1.96161 -16.0421 11
480 1 -7.53362 -9.5415 15.752 8
481 1 -3.16497 14.307 2.7103 17
482 1 -6.11639 1.1944 -11.3989 20
483 1 -12.4348 0.322826 4.25533 15
484 1 2.18404 -12.7122 -13.8012 9
485 1 -9.03874 -14.1867 11.6348 10
486 1 5.88261 10.8081 -8.62321 21
487 1 17.5236 5.50093 13.7273 9
488 1 14.0291 4.65572 -0.47716 17
489 1 -8.8496 -14.7542 0.270596 14
490 1 -0.389522 -10.4939 -0.722178 20
491 1 -4.77584 -3.31945 -15.7992 15
492 1 -8.60072 9.42361 6.51655 21
493 1 2.88213 -5.23296 -9.30021 24
494 1 11.2837 -5.46282 2.33506 20
495 1 8.13507 13.9208 -8.9287 14
496 1 6.29823 -8.78445 4.00491 18
497 1 12.4179 3.58204 -9.04667 11
498 1 -0.437434 8.71321 15.5537 12
499 1 -4.98543 2.54018 10.7479 17
500 1 4.89994 10.8983 14.1161 10
501 1 8.91271 -3.60523 16.0554 15
502 1 -1.2762 1.59289 -17.4606 13
503 1 -6.00503 -6.80769 -6.11681 22
504 1 5.14114 -5.5025 12.6655 16
505 1 9.27236 8.62841 9.03323 19
506 1 4.18377 11.302 -11.538 19
507 1 -5.92972 9.32269 -8.75686 16
508 1 3.26056 11.1333 -6.01289 21
509 1 13.6459 -6.24559 14.2907 11
510 1 11.343 -0.10564 -11.0341 12
511 1 14.8154 -8.75024 -5.19497 11
512 1 11.4342 5.36236 8.93275 22
513 1 -11.9708 -10.2854 -0.223737 13
514 1 -7.72456 11.6284 -13.6907 7
515 1 0.674591 -2.24849 11.0693 20
516 1 -9.53446 -3.54638 11.4621 16
517 1 -4.53388 11.8496 -7.71132 18
518 1 4.09729 -14.3653 -1.02852 17
519 1 5.47552 -4.61716 -7.82406 19
520 1 -1.69505 14.2757 -3.61 18
521 1 -6.54218 -6.01828 -13.952 13
522 1 6.47736 -14.4683 4.13483 14
523 1 -15.6402 -4.40077 4.08272 11
524 1 0.355843 11.9808 -15.3585 11
525 1 -1.10604 11.9545 14.6348 9
526 1 -7.75653 -8.58333 5.2549 19
527 1 10.3877 8.947 -2.42039 20
528 1 3.13875 -10.9617 -5.72149 21
529 1 -0.66922 -6.62618 15.6699 7
530 1 -7.95419 6.22891 1.27644 19
531 1 7.12042 1.50457 16.0485 16
532 1 5.91565 12.7834 -6.48428 23
533 1 10.6401 -8.21539 -3.00761 19
534 1 5.54642 7.75937 12.0577 18
535 1 0.788676 3.6063 -18.0765 11
536 1 -5.82411 -15.6991 10.6407 13
537 1 -0.375878 0.588511 -10.7893 20
538 1 5.76011 -1.37967 -16.4479 16
539 1 12.2682 14.5603 5.08998 11
540 1 12.6511 6.91533 -7.4004 13
541 1 0.251833 -2.33034 -16.245 16
542 1 -2.20955 -11.8004 -2.63199 17
543 1 -7.70344 -2.92369 -10.8782 20
544 1 11.174 1.4415 2.79339 20
545 1 11.1861 3.79785 -2.29544 20
546 1 11.3158 -5.51733 -10.8728 15
547 1 14.1742 8.17787 14.2744 10
548 1 8.69549 -12.0598 -6.57799 17
549 1 1.73601 6.09064 -16.5906 17
550 1 6.83394 15.3094 7.06064 14
551 1 -7.65069 3.64206 2.85549 22
552 1 11.6327 4.06786 17.6906 12
553 1 12.2943 2.92746 -5.77467 17
554 1 17.5835 -5.52589 7.34321 7
555 1 9.17022 4.23939 -7.55286 21
556 1 13.1279 -1.88689 18.4209 10
557 1 15.5934 2.26978 14.8125 13
558 1 5.33233 -5.16428 8.82535 20
559 1 12.1424 15.5367 -1.07534 8
560 1 3.71378 -1.91793 15.8027 13
561 1 14.2736 -2.74748 -3.50552 16
562 1 9.95017 3.56912 12.4921 19
563 1 -5.55879 1.11176 -7.80895 21
564 1 11.4986 6.07621 2.83552 19
565 1 14.1723 -3.55755 2.00959 14
566 1 -9.99561 2.39576 15.025 12
567 1 11.4612 9.14751 11.8669 12
568 1 12.0877 -3.50512 13.8389 22
569 1 5.99677 9.70348 8.43812 14
570 1 1.87357 14.597 9.67746 13
571 1 6.32244 3.43305 7.75648 22
572 1 1.05937 -18.4019 7.16786 11
573 1 -1.84937 11.8701 1.39457 19
574 1 12.2585 9.48167 -9.9462 10
575 1 10.5618 -2.95951 -12.9552 13
576 1 4.83613 16.5879 -4.73741 13
577 1 1.47008 -16.422 -8.32935 11
578 1 8.51177 -5.45876 -12.6667 20
579 1 -10.0564 2.03624 9.16958 18
580 1 -4.25729 7.76094 -11.2513 17
581 1 -0.117217 -17.9483 1.44503 14
582 1 -1.97471 -2.88351 -11.2958 21
583 1 -16.5545 0.5334 -4.68912 12
584 1 11.8004 -8.79737 0.683074 21
585 1 9.79248 10.9434 1.39745 17
586 1 0.257114 -9.97373 5.87743 22
587 1 -11.0804 2.22156 -8.23107 14
588 1 2.33308 0.514824 -16.0959 18
589 1 0.220707 6.73221 12.9162 17
590 1 2.76961 10.6066 -13.9552 19
591 1 14.5729 -2.40687 13.1847 15
592 1 6.45962 3.24711 -6.01056 22
593 1 12.9622 12.0441 1.48629 15
594 1 11.306 -16.3187 -4.33961 12
595 1 -8.32216 -7.01444 12.0933 16
596 1 12.2002 -2.17774 7.63035 19
597 1 0.316209 13.193 12.0575 11
598 1 5.88997 12.3003 -13.3391 9
599 1 -9.2067 5.76326 -2.38168 17
600 1 12.2602 9.29387 3.04803 19
601 1 -8.58545 -13.5845 2.83501 18
602 1 13.7786 1.65549 0.587413 20
603 1 10.9567 12.5996 -1.05277 18
604 1 -1.91631 2.85442 11.91 18
605 1 -8.15159 -6.89114 -1.4657 18
606 1 -7.93317 -2.34257 -7.60221 21
607 1 11.0326 -0.0101286 12.7597 20
608 1 -1.41407 -8.40388 13.1907 18
609 1 12.8535 4.73721 14.1096 16
610 1 -7.22366 11.9322 2.14513 14
611 1 8.8177 2.86829 2.79621 21
612 1 8.8885 2.81756 6.27234 21
613 1 -2.10389 -3.76523 -18.2887 10
614 1 -5.73876 -4.44621 8.85675 21
615 1 6.21629 -1.52674 -9.26156 20
616 1 12.8685 -10.3215 -4.87356 20
617 1 9.45206 2.47812 9.61654 21
618 1 -1.92645 -2.68387 12.1378 21
619 1 13.7904 7.43831 8.82102 20
620 1 3.46344 -2.95916 12.4997 17
621 1 -5.66246 8.36539 14.4895 14
622 1 -0.11315 -4.96856 -10.9237 20
623 1 -8.33313 2.61853 12.2096 15
624 1 8.04908 4.29125 14.7088 22
625 1 -6.18272 -17.767 5.08017 11
626 1 12.1431 8.73089 0.392436 20
627 1 7.63283 -11.426 3.12689 20
628 1 8.83295 8.12848 -0.501885 20
629 1 14.5775 11.6432 4.27676 15
630 1 3.08304 -3.25849 -17.1835 14
631 1 2.84581 14.2621 -6.4426 19
632 1 8.10246 7.8524 3.55618 17
633 1 -7.1442 -13.5906 -1.99949 20
634 1 -3.40389 -0.486998 -19.8418 5
635 1 -9.60278 11.6629 -2.98791 12
636 1 6.64697 -8.17867 -11.4887 24
637 1 9.23477 8.06688 -11.4587 17
638 1 9.91237 14.1492 -2.97029 13
639 1 -6.15633 6.83352 -1.1809 21
640 1 5.53923 6.15396 -3.99681 22
641 1 14.9623 -3.12764 16.1704 12
642 1 12.2052 -4.65038 17.3591 11
643 1 -3.5047 -13.4749 12.2707 13
644 1 -1.1953 8.29089 -11.6701 19
645 1 7.0697 12.6485 11.9876 12
646 1 9.1926 -7.93987 -13.8506 16
647 1 5.18602 0.679373 9.03693 21
648 1 8.34354 13.5893 1.37252 21
649 1 11.3605 7.01354 6.457 20
650 1 14.1061 -7.5954 -2.21316 17
651 1 4.20876 0.483933 17.4174 11
652 1 -14.6029 -5.54563 6.71583 13
653 1 2.62165 -16.1172 0.24303 21
654 1 0.576237 -2.05248 -9.3465 21
655 1 -6.63583 13.8052 -2.39472 12
656 1 10.7174 12.6261 3.97583 21
657 1 -15.4205 -2.14606 6.43844 12
658 1 -0.783061 1.49541 15.8623 17
659 1 -2.82229 7.75964 -14.6173 20
660 1 -9.17542 6.90443 -11.5588 11
661 1 3.96976 -13.435 2.24692 22
662 1 9.29291 8.09666 -8.26401 18
663 1 -11.8835 -0.575 14.5374 11
664 1 5.45355 -7.39534 -9.03412 20
665 1 1.29075 -12.855 10.1855 13
666 1 -1.07037 16.9092 -2.04569 10
667 1 -3.12387 3.46138 15.2818 13
668 1 -7.26957 -5.70091 -10.6296 19
669 1 -2.92271 -11.8235 -12.6955 13
670 1 -4.15129 -12.5329 -7.94202 18
671 1 1.24809 13.8881 -10.2133 16
672 1 5.22702 -10.4674 -4.17233 20
673 1 3.61823 11.4866 7.63809 16
674 1 8.66445 -13.9468 -4.30341 19
675 1 4.62818 -15.7092 2.24156 21
676 1 9.74883 -7.58326 8.87083 15
677 1 12.9595 -0.349977 -5.38315 14
678 1 3.00874 -14.2601 -7.31832 20
679 1 -10.5893 -1.52343 7.05665 17
680 1 1.07202 -17.0638 -4.88348 16
681 1 -4.68869 -9.82851 -4.14403 20
682 1 -8.57334 0.15259 11.1259 19
683 1 -5.0314 -15.6554 -3.46635 14
684 1 14.1326 4.23907 -3.41824 12
685 1 -6.36105 14.4151 4.1219 10
686 1 -14.1781 5.35736 6.21251 9
687 1 11.5224 -1.63207 4.4997 16
688 1 -9.68467 -5.10633 -12.3882 13
689 1 3.27752 5.50295 -5.90839 24
690 1 6.33122 3.98617 -9.14082 23
691 1 9.71357 11.793 10.5114 12
692 1 16.233 2.66556 -1.54443 9
693 1 -13.868 -0.34578 -4.19417 19
694 1 -11.2455 -7.12593 -7.52877 12
695 1 -3.32752 10.6036 15.5391 13
696 1 7.83253 4.7573 -16.4006 7
697 1 7.63767 8.84384 6.26474 21
698 1 -2.11795 -2.77059 8.76011 23
699 1 3.22476 -17.2042 -2.53729 12
700 1 -5.22524 -17.6105 8.00602 11
701 1 -2.66587 -5.12432 10.5561 21
702 1 14.7196 9.39583 11.9168 13
703 1 0.690568 -10.5868 -10.4798 22
704 1 -4.50811 12.5542 -0.0366036 19
705 1 5.58767 9.5968 4.19518 21
706 1 -9.2371 -4.34249 7.16914 20
707 1 7.56248 7.2231 -14.3367 13
708 1 2.87677 -14.0781 -4.13102 20
709 1 2.31233 -15.0898 8.22632 12
710 1 1.01056 -15.3342 2.68793 24
711 1 6.76263 8.28305 -9.11174 20
712 1 5.87032 15.6996 0.826368 15
713 1 -4.51705 0.138453 -14.5077 16
714 1 5.25901 -0.202171 12.4645 18
715 1 -1.28436 6.62816 -17.6282 14
716 1 -8.77078 -0.165437 -12.9321 17
717 1 -11.886 -7.17613 1.78411 16
718 1 4.52737 14.3105 -10.4951 13
719 1 -1.73778 -7.53102 -13.7941 17
720 1 -9.31612 -5.94877 4.67816 16
721 1 8.28899 5.85369 -6.05655 17
722 1 12.596 -10.1303 -2.24579 17
723 1 -3.01021 6.62739 15.3426 14
724 1 11.8752 -8.592 6.88253 11
725 1 13.8419 -6.84061 0.419647 16
726 1 12.6769 -2.1251 11.0937 21
727 1 2.63465 11.1287 4.3733 22
728 1 -10.5351 -3.56221 14.8902 11
729 1 -9.32061 6.32356 10.4515 19
730 1 -3.27601 -15.809 9.48653 15
731 1 11.6765 3.67911 5.39979 23
732 1 7.07916 9.8702 11.4543 15
733 1 -14.6978 1.34351 5.86816 12
734 1 10.8696 -11.0357 2.21933 14
735 1 -11.4141 10.8901 -5.36735 12
736 1 4.98117 -13.4324 7.11052 13
737 1 6.37547 -2.97086 10.8707 20
738 1 10.4867 9.67158 5.73153 16
739 1 -2.67635 -11.1461 4.43896 22
740 1 -8.22581 -1.66221 -0.483104 19
741 1 3.57424 2.60912 12.3843 21
742 1 -13.3599 -4.95562 1.99427 14
743 1 -2.95844 8.64265 12.8751 19
744 1 5.54845 12.6367 2.95426 20
745 1 -8.57019 -11.002 4.12245 15
746 1 -4.01056 -16.1356 4.86324 19
747 1 8.06439 -5.18536 7.33107 20
748 1 14.3917 -5.27573 11.1783 12
749 1 6.20239 5.83382 9.53573 19
750 1 5.13681 -10.4176 -7.50891 20
751 1 -2.74506 -0.71474 -17.164 17
752 1 -4.54097 -5.15589 12.6758 15
753 1 -0.230484 15.5214 3.50299 17
754 1 14.2661 -0.0773304 7.52365 20
755 1 6.0187 8.96229 -5.9818 23
756 1 -4.14933 13.0386 13.3505 9
757 1 9.24359 6.71869 10.9374 18
758 1 5.47986 -4.66682 -14.4907 20
759 1 -5.71322 -12.2567 0.307937 16
760 1 18.1285 -2.00876 8.40171 11
761 1 3.35699 -2.36109 -10.648 22
762 1 -0.57986 4.7782 16.2821 14
763 1 10.1429 -11.2894 -2.69657 19
764 1 1.5975 3.26799 -15.0847 17
765 1 -2.35142 -8.02813 -4.18025 20
766 1 9.68349 2.55138 -11.1519 14
767 1 16.7426 0.64423 6.71271 13
768 1 2.06164 -5.38184 10.7289 17
769 1 0.409729 -10.5525 -7.11176 19
770 1 8.10705 11.4786 4.44921 20
771 1 -8.15048 3.45022 6.44651 20
772 1 8.63988 2.89028 -3.94129 22
773 1 16.6798 6.77861 7.43978 14
774 1 0.786576 -5.43005 -17.4466 10
775 1 -6.08383 11.638 5.6731 18
776 1 16.9133 9.23268 9.12109 11
777 1 12.095 11.3694 -7.20416 14
778 1 3.72689 2.38813 -13.6238 20
779 1 8.19277 -5.45062 -2.83089 21
780 1 -15.3125 0.99312 -1.35676 17
781 1 16.4773 6.55177 4.31844 13
782 1 -11.2663 -12.427 0.885489 13
783 1 -11.7583 9.34696 -8.49616 11
784 1 6.39766 2.70591 10.8148 20
785 1 -11.3084 -1.19221 -8.62773 15
786 1 -11.3622 4.22503 12.5245 17
787 1 -2.08096 2.95462 -7.40824 23
788 1 10.9698 -11.9533 -9.30351 14
789 1 -10.9963 -6.3424 -3.92557 19
790 1 11.2286 -5.63132 -1.05277 21
791 1 -18.7917 -0.0855334 0.0839301 9
792 1 -9.32077 -3.81322 -2.33388 23
793 1 14.2595 10.8533 7.41808 13
794 1 -9.48521 -7.17311 7.27359 20
795 1 11.9173 0.941494 18.7632 14
796 1 15.3314 -2.65129 5.72634 16
797 1 8.08091 -5.87079 3.87132 21
798 1 -10.497 3.88136 1.0362 15
799 1 3.89485 9.14478 9.75955 16
800 1 6.99507 9.53387 -11.7646 16
801 1 -0.0989662 -10.6429 -13.5161 15
802 1 -3.15488 14.3054 5.38657 14
803 1 -12.0027 -9.26794 8.07663 15
804 1 7.79186 8.66807 -4.07692 20
805 1 3.12886 5.886 14.1775 20
806 1 8.06156 -8.46949 -4.52188 19
807 1 8.28652 -8.77279 11.9177 10
808 1 -5.08268 11.5178 -11.0589 11
809 1 4.15804 13.4067 -3.78508 22
810 1 -5.81669 0.650972 8.99 21
811 1 16.7125 6.63811 10.9197 13
812 1 0.726654 -2.29448 -12.7163 21
813 1 13.7076 10.4719 -1.33557 14
814 1 -12.31 1.49784 -0.898021 17
815 1 -4.28253 -11.0378 13.7284 13
816 1 1.41174 10.768 -11.793 20
817 1 9.75166 -2.51405 12.2279 21
818 1 0.65369 -14.0835 -1.98241 18
819 1 -4.62159 15.5541 -2.04739 12
820 1 -13.1006 4.63164 -1.12616 17
821 1 8.68191 -1.46102 -7.83797 20
822 1 5.61505 -13.0847 -15.034 7
823 1 -8.73778 6.59364 4.22355 22
824 1 10.9303 9.37853 -6.20688 19
825 1 -5.05164 -1.88058 7.16623 21
826 1 6.62463 -3.90302 -17.1025 12
827 1 -5.64634 -9.77968 -6.80495 18
828 1 0.342105 -10.2696 -3.82118 21
829 1 1.6212 11.3284 10.2237 20
830 1 8.85006 -17.4637 -2.42273 12
831 1 -2.12247 10.4897 -13.9299 13
832 1 11.985 -2.44804 -2.02698 19
833 1 8.81289 5.45428 4.44796 17
834 1 2.30085 -17.822 4.18258 15
835 1 4.01123 -6.20706 -16.1489 14
836 1 11.989 -1.23439 1.38791 18
837 1 -2.29873 3.12245 -13.8059 18
838 1 -2.2858 -11.6421 7.44166 15
839 1 11.0311 11.5135 -4.41595 18
840 1 5.16485 0.825016 -7.71298 22
841 1 -7.92146 3.59341 -4.16582 20
842 1 -13.4512 1.73973 13.3345 10
843 1 1.99713 4.11204 16.7082 16
844 1 -5.76529 -9.49182 10.3647 17
845 1 5.63071 6.56504 6.07234 24
846 1 -1.90712 -14.1735 3.00446 22
847 1 5.98209 9.13049 -2.04382 22
848 1 -2.83422 5.40485 10.5425 21
849 1 -7.24608 -2.84916 12.7325 18
850 1 -11.071 10.9886 7.07367 8
851 1 7.86384 2.33017 -0.695962 19
852 1 -9.65468 -11.6602 13.6625 10
853 1 5.9877 -10.567 6.35591 18
854 1 15.7292 3.56107 12.234 12
855 1 5.42193 -7.47153 -5.93779 20
856 1 8.69769 -13.7687 -9.37921 14
857 1 -6.8835 1.91594 -14.9304 12
858 1 -1.97791 4.35713 -19.5491 9
859 1 10.5185 16.0155 6.3109 9
860 1 -11.7592 -7.29095 11.8111 12
861 1 -6.92319 6.59529 -9.82607 16
862 1 -14.2909 2.85986 -3.48152 16
863 1 7.92952 16.8936 2.47147 12
864 1 -7.07958 -16.8918 2.50077 12
865 1 -0.483518 9.84992 4.31659 22
866 1 12.2313 6.60876 12.1558 17
867 1 -7.55188 -11.9102 -7.61679 12
868 1 3.60699 13.3027 12.0682 13
869 1 -7.82764 -2.03184 8.99101 20
870 1 -4.65279 -16.2678 -7.95331 9
871 1 15.5135 -1.35812 10.1849 17
872 1 0.0750917 -16.1302 5.36363 22
873 1 2.48222 8.42047 15.7151 15