ITEM: TIMESTEP
28000
ITEM: NUMBER OF ATOMS
500
ITEM: BOX BOUNDS pp pp pp
-30.0 30.0
-30.0 30.0
-30.0 30.0
ITEM: ATOMS id type x y z Coordination
1 1 2.18744 -14.0376 3.90782 11
2 1 -4.33771 -5.45701 6.8664 10
3 1 -8.63799 -10.5476 -10.0059 24
4 1 -15.8859 -7.94822 -5.11846 12
5 1 -3.91179 -7.58113 -11.5877 15
6 1 2.22515 -17.4339 -6.56607 10
7 1 1.35878 -8.28729 2.64652 13
8 1 -2.89729 -1.24767 4.92429 10
9 1 -15.1875 -10.7327 -2.62412 14
10 1 1.52185 -12.8554 -3.83207 20
11 1 0.102746 -11.3006 4.42176 14
12 1 -12.9547 -18.0057 0.629949 10
13 1 -7.33564 -13.2425 -10.0793 17
14 1 0.719005 -12.3563 -10.332 8
15 1 -0.113184 -19.108 -0.133951 10
16 1 -13.8391 -0.1219 2.40217 8
17 1 -3.31735 2.66049 1.03693 10
18 1 -7.41542 -12.5623 -12.6729 11
19 1 -7.01059 -5.08358 5.20728 16
20 1 -9.04819 -2.92354 1.77006 20
21 1 0.546874 -1.90651 -5.28255 12
22 1 1.76591 -3.51877 -0.0868366 10
23 1 -8.48447 -2.58783 -8.31166 10
24 1 -13.0985 -6.49916 -10.2727 11
25 1 -6.70902 -1.58791 -6.30646 14
26 1 -15.7835 -5.46126 -2.64388 13
27 1 -10.8048 -0.636211 2.89742 11
28 1 -10.7244 -8.10435 -11.1207 15
29 1 -10.1055 -16.8782 2.88259 16
30 1 -0.835833 -18.3848 -5.07158 18
31 1 -14.8031 -15.8425 -7.03555 10
32 1 -6.66068 -18.6496 0.405903 16
33 1 0.0965444 -5.50646 -8.29032 19
34 1 -9.95298 -13.1777 -8.3302 18
35 1 -2.48038 -5.23935 -12.7565 9
36 1 -6.17091 1.39393 -4.3229 10
37 1 -15.7451 -7.03433 0.561064 9
38 1 -4.31955 0.496604 3.34244 11
39 1 -1.53009 -11.6486 7.69231 11
40 1 -3.62554 -20.7365 -5.06067 11
41 1 -0.598752 -10.6646 -8.02881 21
42 1 -0.653172 -14.0685 6.03562 14
43 1 -3.93122 -13.6939 4.81516 18
44 1 0.918711 -0.942841 -1.99062 12
45 1 -12.248 -15.5474 -0.949758 19
46 1 -8.00075 -18.248 -2.13691 15
47 1 -12.9698 -7.9204 6.08171 10
48 1 -12.1489 -8.47263 3.26783 20
49 1 -5.01023 -20.1198 -2.32685 12
50 1 -14.5748 -10.5253 0.679578 16
51 1 -9.2443 0.081244 0.0271529 13
52 1 -11.9256 -5.61048 1.7172 20
53 1 -9.39206 -3.20513 5.04797 12
54 1 -13.0272 -12.8442 -6.55105 22
55 1 -16.2792 -3.50671 -5.31868 10
56 1 -10.304 -10.7834 -12.5297 10
57 1 3.20645 -10.9916 2.84898 11
58 1 -6.07618 -13.3762 6.79767 13
59 1 -13.8947 -9.7843 -11.0304 9
60 1 -14.9013 -10.9705 -5.11919 14
61 1 -9.35882 -16.4288 0.154364 24
62 1 -12.8745 -2.94743 3.09465 14
63 1 -6.83612 -15.8912 -8.32892 17
64 1 -7.19601 1.24135 -1.25189 13
65 1 -14.0232 -9.39677 -7.69786 18
66 1 -14.1931 -5.13222 -4.79382 19
67 1 -9.53418 -16.0737 -6.4308 21
68 1 -1.3771 -16.8864 1.53239 18
69 1 -15.61 -1.78357 -2.92726 8
70 1 -11.5054 -11.164 5.45499 15
71 1 -14.3686 -6.01927 3.58422 14
72 1 -12.9268 -14.54 -9.07947 10
73 1 -5.80353 -15.952 4.66021 16
74 1 -4.15203 -17.598 -6.39432 17
75 1 -2.8686 -10.4731 -9.74009 16
76 1 0.813 -17.2513 3.46331 9
77 1 -9.49559 -18.9152 -5.32762 12
78 1 -14.8655 -13.5767 2.34674 11
79 1 3.95254 -8.57425 1.16375 10
80 1 1.3768 -5.1148 -3.253 16
81 1 -2.88567 -4.64341 -9.79958 19
82 1 -5.0294 -3.11609 -9.29712 14
83 1 -4.00262 2.21782 -2.04162 11
84 1 0.433247 -3.15087 -11.7734 7
85 1 -3.28092 -17.4062 -0.697155 18
86 1 0.220694 -15.67 -4.88466 20
87 1 -6.16842 -20.0926 -5.57367 9
88 1 -15.167 -6.28684 -7.50428 12
89 1 5.75955 -10.5842 -0.071635 9
90 1 -12.333 -4.98289 -7.67983 16
91 1 1.4324 -13.8626 -7.76523 19
92 1 -12.4915 -14.4717 4.80606 9
93 1 -8.35561 -18.462 -7.80446 10
94 1 -3.19251 -16.5213 -9.6165 11
95 1 -0.776857 -16.0997 -1.83027 23
96 1 -12.7103 -15.9971 -4.78679 16
97 1 -4.59776 -11.1412 8.09975 11
98 1 -6.3869 -7.9615 7.34428 15
99 1 0.469377 -15.9159 -9.77365 10
100 1 -1.92127 -1.18134 -3.20279 13
101 1 2.13177 -11.3126 -6.69136 14
102 1 -7.59363 -9.10807 -12.5516 14
103 1 -14.7561 -4.62379 0.362298 14
104 1 -2.92302 -14.1569 7.82873 11
105 1 -11.4749 -10.6105 -9.16514 19
106 1 1.802 -15.4753 0.823785 14
107 1 -1.50737 -4.2731 5.31428 13
108 1 -4.3034 -18.0594 2.65405 13
109 1 3.61316 -7.06779 -3.7735 10
110 1 2.07437 -5.61518 2.81757 11
111 1 -0.417742 -1.72924 3.46376 12
112 1 -9.24097 -5.46088 -9.87709 14
113 1 -9.17952 -15.3997 -3.06135 22
114 1 -12.2599 -1.28401 -2.72244 16
115 1 1.93371 -4.86449 -6.18011 14
116 1 -3.24979 -8.68707 8.01166 10
117 1 -4.24615 -13.3729 -11.2777 12
118 1 -0.816653 1.77036 -0.337441 11
119 1 -0.651752 -16.4958 -7.43371 19
120 1 -2.34513 -16.2588 4.82344 16
121 1 -11.7639 -5.78831 4.85665 15
122 1 2.48605 -10.7616 -0.90298 17
123 1 -2.38064 -2.67215 -7.05254 19
124 1 1.35832 -8.3212 -8.7803 13
125 1 -8.39627 -10.7324 6.88472 11
126 1 -9.76883 -14.047 4.5843 14
127 1 -11.7766 0.526932 -0.171495 13
128 1 -2.02916 -1.67383 0.225185 17
129 1 -12.2721 -15.2993 2.29412 17
130 1 4.30681 -12.6455 -2.03542 12
131 1 -10.8776 -18.9902 -1.81355 12
132 1 1.87131 -6.7422 -0.570769 17
133 1 1.4122 -18.3159 -3.24722 14
134 1 -5.12409 0.0888671 0.210187 16
135 1 -15.7963 -14.2976 -4.05829 12
136 1 -1.7514 -2.14733 -10.5781 10
137 1 -14.7065 -12.2518 -8.50275 11
138 1 -1.51252 -13.8581 -9.4842 18
139 1 -9.74747 -15.8605 -9.94103 12
140 1 2.89187 -15.5347 -1.95627 12
141 1 -15.9132 -13.5503 -0.80933 15
142 1 -6.13511 -5.66012 -12.0551 11
143 1 -11.8886 -17.6861 -7.66515 12
144 1 3.96202 -13.0222 0.926056 12
145 1 -5.59083 -10.6829 -11.3671 17
146 1 -13.3039 -1.88614 -0.181868 14
147 1 -14.4563 -10.7598 4.14028 10
148 1 1.09688 -0.563062 0.795357 11
149 1 1.64798 -8.19794 -6.07365 19
150 1 -7.29094 -18.5623 3.36774 11
151 1 -1.46841 -7.52705 -9.88853 16
152 1 0.916422 -2.32226 -8.49226 11
153 1 -0.972952 1.04174 3.01918 12
154 1 -4.19664 -0.257497 -5.0823 12
155 1 2.32466 -4.91984 -9.69375 10
156 1 3.35211 -14.4672 -5.24357 13
157 1 -6.6804 -2.16858 3.69795 13
158 1 -9.33946 0.370235 -3.17305 15
159 1 -9.77055 -19.3985 1.04629 12
160 1 -1.42353 -19.208 -2.44015 15
161 1 -14.9123 -16.3407 -1.98334 12
162 1 -13.2007 -2.48448 -5.81293 13
163 2 -14.7952 -8.66699 0.263537 14
164 2 2.15887 -4.41198 1.49324 8
165 2 -14.1866 -11.179 -6.79186 16
166 2 -8.94829 -18.7552 2.65501 13
167 2 -5.15489 -9.35069 8.00163 14
168 2 -10.4715 0.266168 1.33708 12
169 2 1.01574 -18.1758 -5.05362 13
170 2 -9.0653 -8.39768 -10.0125 19
171 2 -6.05895 -12.9094 -11.4502 12
172 2 -9.72709 -2.14373 3.31638 14
173 2 3.29645 -14.5601 -0.0573086 11
174 2 1.97117 -1.47247 -0.49704 8
175 2 -4.80546 -1.38922 3.60881 14
176 2 -1.51192 2.10043 1.49235 10
177 2 0.00607825 -2.07868 -10.087 12
178 2 -1.1168 -11.7791 -9.81443 15
179 2 -14.5329 -7.91302 -6.57646 18
180 2 -6.90201 -16.82 3.23662 16
181 2 -15.7603 -5.75297 -0.819899 11
182 2 1.99758 -15.7979 -5.52567 17
183 2 -9.48392 -18.8988 -3.42759 11
184 2 -2.4915 0.365876 4.0078 12
185 2 -0.919368 -13.754 7.77825 8
186 2 -11.1474 -13.4707 1.83827 26
187 2 -6.25681 -19.0899 -1.34565 14
188 2 -13.9125 -16.933 -0.558181 12
189 2 -7.68497 -19.253 -6.06575 12
190 2 -10.1319 -17.8534 -6.90232 13
191 2 -13.3402 -0.0974228 0.58134 12
192 2 -2.11407 -3.04428 -1.2499 19
193 2 -1.62661 -3.83551 -11.7895 9
194 2 0.860766 -9.81536 -1.56278 20
195 2 -7.65556 1.14859 -3.16979 12
196 2 -12.5651 -1.16439 3.11103 10
197 2 -4.12289 1.15852 -3.77484 11
198 2 -0.27286 -1.92591 -6.94992 14
199 2 -7.44737 -3.23909 5.12374 12
200 2 -2.88709 -10.4486 8.32798 10
201 2 0.384343 -14.1136 -9.85692 11
202 2 -4.48333 -16.4307 -7.90795 15
203 2 -13.3904 -15.4249 -2.7194 15
204 2 1.41963 -16.4996 -2.55923 19
205 2 -1.70903 -2.35222 2.01028 19
206 2 -6.12959 -8.08786 -11.6934 15
207 2 -3.34949 -14.7211 -9.69912 15
208 2 -12.0496 -12.7576 -8.18364 18
209 2 -1.33639 -16.3352 -9.45902 10
210 2 1.16968 -11.8008 -8.46942 15
211 2 -3.78983 -11.6068 -10.902 12
212 2 -8.56276 -16.9506 -9.05553 11
213 2 -7.0582 -6.12445 -10.3489 16
214 2 -11.6555 -19.3703 -0.0353592 9
215 2 -12.6825 -4.96078 -3.31011 18
216 2 -11.6716 -16.7677 1.41428 17
217 2 -15.1866 -12.547 -3.86923 15
218 2 -0.903478 -16.4935 3.71155 15
219 2 -4.24609 1.24008 1.63645 15
220 2 -7.96319 -8.91082 6.66418 14
221 2 -15.1003 -6.08055 1.97933 12
222 2 -14.5811 -14.158 -8.12371 10
223 2 3.08764 -5.51517 -4.72494 11
224 2 -15.1743 -11.671 -0.886153 16
225 2 -9.19068 -4.3481 -8.25464 13
226 2 -3.20795 -8.58569 -10.0796 20
227 2 -15.6356 -3.88364 -3.51094 12
228 2 -1.89279 -19.9153 -4.1864 14
229 2 -4.46506 -19.5121 -6.23875 12
230 2 -11.7776 -2.85353 -1.28706 17
231 2 -3.48284 -18.7507 -2.22349 17
232 2 -1.58927 -2.51279 4.94002 12
233 2 -6.09642 -0.152241 -5.17 12
234 2 -5.81768 -14.1273 4.99853 18
235 2 -4.36314 -5.74762 -11.9973 12
236 2 -0.524465 -11.5057 6.20357 13
237 2 1.02029 -4.84339 -1.28478 16
238 2 0.210002 -0.254374 2.36201 11
239 2 -14.2828 -13.8477 0.579994 17
240 2 -3.67976 -4.80687 5.27332 14
241 2 2.92808 -12.7929 2.87152 11
242 2 -1.94957 -6.81227 -11.663 9
243 2 -3.41544 -7.04891 6.98443 12
244 2 -0.949718 -14.8716 1.39918 18
245 2 -14.5895 -10.4417 -9.22123 12
246 2 -11.8001 -1.87906 -4.55584 15
247 2 -15.7523 -5.01929 -6.27054 13
248 2 -8.80691 -15.6436 2.19388 19
249 2 -0.617683 -0.300179 -0.434154 14
250 2 -11.8026 -10.3512 -11.022 13
251 2 3.26569 -11.0606 -2.74573 12
252 2 -15.0974 -2.02789 -5.34288 10
253 2 0.34572 -18.2159 1.6989 10
254 2 -10.959 -15.5293 4.24477 11
255 2 -13.5498 -17.0628 -7.3832 8
256 2 -3.64776 -1.72878 -6.1549 15
257 2 -13.8667 -3.01464 1.33114 15
258 2 -4.49377 -13.0698 7.78373 13
259 2 -13.944 -1.35692 -1.97186 12
260 2 -6.36393 -5.86823 6.88739 12
261 2 -12.0805 -9.02334 -7.78573 23
262 2 -0.115462 -1.26246 -3.63284 10
263 2 -10.0822 -5.02366 4.78457 15
264 2 -6.88685 -10.8279 -12.9999 12
265 2 -7.64046 -16.1739 -6.59543 21
266 2 1.72123 -10.1021 3.24998 13
267 2 1.66942 -6.48077 -9.17872 13
268 2 -4.0927 -16.893 4.23498 15
269 2 -11.2933 -7.76719 4.85287 18
270 2 -14.5307 -15.3992 -5.20871 12
271 2 -14.0992 -6.82276 5.30635 8
272 2 -13.6903 -14.6378 3.37497 10
273 2 -10.5615 -15.6819 -4.59606 17
274 2 -6.7161 -2.60486 -8.59378 11
275 2 -2.26319 -4.23313 -6.18052 20
276 2 -0.42874 -14.5026 -7.27734 20
277 2 3.73538 -10.7536 0.701311 15
278 2 0.792718 -6.783 3.58039 11
279 2 -3.07835 -2.70656 -9.3402 13
280 2 -8.93482 -11.7966 -11.6566 16
281 2 -7.23904 -0.151171 0.0442019 17
282 2 -8.66304 -1.85492 -6.42555 14
283 2 -12.8748 -4.33494 -6.05012 19
284 2 -12.746 -4.70824 3.27501 17
285 2 1.2419 -16.9442 -8.19418 11
286 2 -13.7529 -5.92665 -8.68638 13
287 2 -9.55111 -8.87003 -12.7428 11
288 2 0.329858 -13.6127 4.21956 16
289 2 -13.5131 -9.73416 5.65725 9
290 2 -14.7227 -11.7755 2.43516 12
291 2 1.70288 -15.6131 2.88106 12
292 2 -15.0394 -6.82036 -3.92216 15
293 2 -9.64936 -10.6144 5.42394 18
294 2 -5.90506 -18.9271 2.03978 11
295 2 5.54138 -8.79683 0.254831 6
296 2 -5.31852 -20.6513 -4.05305 9
297 2 -10.747 0.299207 -1.7826 16
298 2 -13.2961 -8.18373 -11.1973 10
299 2 -11.4593 -13.0242 5.33836 13
300 2 -2.53817 -14.4635 5.91389 18
301 2 -1.81264 -6.21627 -8.47012 19
302 2 2.32417 -7.53497 1.08082 17
303 2 5.3499 -12.3779 -0.265938 9
304 2 3.09423 -13.1119 -6.42547 12
305 2 0.697787 -19.4299 -1.8423 11
306 2 1.76581 -4.06479 -11.061 8
307 2 -15.9321 -14.7612 -2.28109 11
308 2 -15.9721 -9.61763 -4.11541 10
309 2 -1.4082 -17.5741 -0.526503 16
310 2 0.773924 -3.88384 -4.60138 14
311 2 3.05909 -8.7107 -4.70454 12
312 2 1.75026 -4.06618 -8.04295 13
313 2 3.01923 -13.9479 -3.36955 13
314 2 -2.10139 -17.5188 -6.29925 17
315 2 -8.97048 -14.1807 -9.68829 17
316 2 -2.43442 2.51136 -1.04808 9
317 2 -5.34266 1.34974 -1.27752 12
318 2 -9.17037 -18.6111 -0.580331 14
319 2 -6.8392 -11.7368 6.92406 13
320 2 2.25331 -6.98942 -2.28721 13
321 2 -0.810171 -8.75387 -8.48295 20
322 2 -10.9989 -6.34371 -10.437 13
323 2 -11.3749 -15.6047 -8.89027 14
324 2 -1.10676 -16.5792 -3.79362 23
325 1 -11.9606 -10.5136 -4.53753 21
326 1 -13.2292 -13.1507 -2.92835 22
327 1 -6.65545 -15.9745 -4.9041 19
328 1 -6.0451 -10.0192 -7.91697 21
329 1 -9.15768 -11.0425 -6.64291 19
330 1 -7.27648 -13.2131 -6.39254 23
331 1 -10.3059 -13.4851 -4.83133 21
332 1 -6.26026 -10.5778 -4.7581 20
333 1 -9.31619 -11.1763 -3.27159 20
334 1 -7.05507 -13.2989 -3.01236 20
335 2 -12.1399 -12.7372 -4.90917 20
336 2 -13.3904 -10.4287 -3.07801 18
337 2 -7.3863 -16.4083 -3.13745 21
338 2 -6.64581 -10.2605 -9.77685 21
339 2 -9.58503 -11.1194 -8.58326 19
340 2 -6.29751 -13.8069 -8.312 19
341 2 -9.23364 -13.4401 -6.34864 23
342 2 -7.24445 -11.1636 -6.49117 21
343 2 -10.0324 -10.9128 -4.89108 20
344 2 -6.49599 -14.0649 -4.82621 23
345 2 -9.13677 -13.208 -3.07999 19
346 2 -7.00759 -11.2529 -2.99558 21
347 1 -11.9351 -10.5788 -1.65003 23
348 1 -12.7588 -12.8378 0.610494 19
349 1 -11.4497 -11.3165 2.04168 20
350 1 -6.0418 -16.1506 -1.7609 19
351 1 -6.84552 -15.687 1.6639 23
352 1 -10.1447 -13.4654 -1.32506 20
353 1 -6.14933 -10.3037 -1.44503 23
354 1 -8.95762 -10.9493 0.0619806 21
355 1 -6.53028 -12.8976 -0.00598532 21
356 1 -9.15101 -13.7664 1.49795 23
357 1 -6.03653 -10.1282 2.17491 22
358 1 -8.63609 -10.9138 3.28084 23
359 1 -6.71327 -13.0459 3.42162 22
360 1 -5.83399 -10.2423 5.60817 21
361 2 -12.1274 -13.5415 -1.47341 21
362 2 -12.4966 -10.9707 0.394528 20
363 2 -10.2438 -15.5159 -1.4647 20
364 2 -7.26273 -16.5342 -0.168856 21
365 2 -9.83234 -10.4174 -1.61045 21
366 2 -6.06962 -14.0443 -1.40691 20
367 2 -8.58171 -12.807 -0.233577 25
368 2 -6.70099 -10.7929 0.526664 23
369 2 -9.83335 -10.3949 1.70161 22
370 2 -5.95398 -13.8424 1.83936 21
371 2 -8.70237 -12.8414 3.28221 21
372 2 -6.59518 -11.0047 3.8695 22
373 2 -12.244 -10.5148 3.66018 19
374 1 -12.6238 -7.58106 -6.538 20
375 1 -11.4274 -5.20256 -4.78283 18
376 1 -13.1627 -7.8206 -3.0966 21
377 1 -6.98367 -8.02604 -9.86099 20
378 1 -10.1535 -7.97793 -7.94638 19
379 1 -6.06529 -5.82252 -8.28178 18
380 1 -9.26265 -5.24458 -6.57326 19
381 1 -7.13328 -7.61148 -6.06796 19
382 1 -9.88806 -8.35324 -4.91584 22
383 1 -6.29002 -4.80581 -4.88698 19
384 1 -8.93033 -5.79093 -3.02011 19
385 1 -6.77791 -7.64559 -3.12002 20
386 1 -9.9367 -2.2989 -4.84701 15
387 1 -7.01669 -1.81703 -3.49899 22
388 2 -11.8998 -8.34394 -4.78698 20
389 2 -10.9166 -6.27282 -6.97358 18
390 2 -6.04614 -7.9457 -7.95925 19
391 2 -8.81527 -8.35351 -6.77358 21
392 2 -7.14605 -5.51161 -6.66208 21
393 2 -9.63712 -4.41605 -4.70968 20
394 2 -6.21928 -8.56276 -4.72618 20
395 2 -9.03404 -7.75954 -3.23652 19
396 2 -7.04458 -5.61738 -3.38038 21
397 2 -6.39776 -2.89505 -4.92012 19
398 2 -9.26363 -1.70715 -3.14212 17
399 1 -12.0996 -4.79729 -1.44304 21
400 1 -12.7618 -7.81478 -0.0937691 17
401 1 -9.78694 -8.43184 -1.47157 20
402 1 -6.46543 -4.47509 -1.75286 22
403 1 -9.04201 -5.82864 0.0970088 20
404 1 -6.46285 -7.52515 0.0651868 21
405 1 -9.64939 -8.36947 1.79475 21
406 1 -6.3325 -4.62274 1.6916 19
407 1 -9.01436 -5.96325 3.51095 22
408 1 -6.74299 -7.61286 3.50129 22
409 1 -9.67022 -8.63174 5.48283 16
410 1 -9.67027 -2.89022 -1.54675 21
411 1 -7.00173 -2.01066 0.0932011 19
412 2 -11.9392 -8.46427 -1.74156 17
413 2 -12.764 -5.84634 0.1281 19
414 2 -11.4897 -7.59499 1.62741 22
415 2 -9.75076 -5.09713 -1.4917 21
416 2 -5.81205 -8.14356 -1.52265 21
417 2 -8.72996 -7.79619 0.213863 22
418 2 -6.77608 -5.57367 -0.235493 20
419 2 -9.96276 -4.95527 1.58034 24
420 2 -6.18428 -8.18631 1.78039 21
421 2 -8.79012 -8.05465 3.54338 21
422 2 -7.17974 -5.51943 3.33965 20
423 2 -5.45997 -8.03699 5.11946 22
424 2 -6.97486 -2.71683 -1.87103 20
425 2 -9.08667 -1.70517 0.293853 17
426 2 -7.05029 -2.95165 1.89029 22
427 1 -3.56444 -17.1975 -3.47621 23
428 1 -4.45487 -14.24 -7.85856 17
429 1 -3.32668 -11.3309 -6.29704 19
430 1 -1.52813 -13.2408 -6.00575 20
431 1 -4.28557 -14.5414 -4.99825 21
432 1 -0.554354 -10.6075 -4.62575 19
433 1 -3.51569 -11.2855 -3.1374 21
434 1 -1.43919 -13.1338 -2.7785 19
435 2 -4.7665 -16.5176 -4.76778 19
436 2 -4.13019 -10.177 -7.77061 19
437 2 -3.51344 -13.3924 -6.39693 18
438 2 -1.35112 -11.3145 -6.29266 20
439 2 -4.21508 -10.5726 -4.77988 21
440 2 -0.225618 -13.6511 -4.37586 20
441 2 -3.2987 -13.4292 -3.41409 21
442 2 -1.55032 -11.1892 -3.17686 21
443 2 2.06564 -9.52667 -7.45136 14
444 1 -4.02848 -14.1322 -1.72306 20
445 1 -1.09562 -10.2805 -1.44833 19
446 1 -3.6205 -11.2504 0.423713 21
447 1 -1.41576 -13.3884 0.203501 16
448 1 -4.08663 -14.467 1.75938 23
449 1 -0.637712 -10.4424 1.46949 18
450 1 -3.1831 -11.5534 3.35616 20
451 1 -1.09378 -13.5458 3.00153 20
452 2 -3.99553 -16.0575 -2.04148 20
453 2 -3.37703 -17.2075 1.24664 15
454 2 -4.2181 -10.5647 -1.36868 22
455 2 -1.13863 -14.2812 -1.38624 18
456 2 -3.45356 -13.2972 0.255945 20
457 2 -1.60909 -11.171 0.0177871 21
458 2 -4.06103 -10.2987 2.15365 19
459 2 -3.10653 -13.6528 3.13213 21
460 2 -1.14024 -11.5855 2.99295 18
461 2 -4.10994 -11.4718 5.09403 21
462 2 1.39372 -11.0838 -4.92767 21
463 1 -4.07825 -8.11225 -8.40245 21
464 1 -3.59139 -5.3808 -6.63313 21
465 1 -1.12449 -7.53961 -6.80953 20
466 1 -4.18227 -8.39063 -5.11439 20
467 1 -0.832957 -4.85527 -5.14368 23
468 1 -3.11185 -5.45478 -3.27422 22
469 1 -1.37617 -7.54653 -3.58514 21
470 1 -4.38716 -3.11351 -4.77018 20
471 1 3.49169 -10.5076 -4.52852 14
472 2 -4.42085 -4.93559 -8.64025 18
473 2 -3.09407 -7.47799 -6.34065 23
474 2 0.35739 -6.09712 -6.48248 20
475 2 -4.20682 -5.01739 -4.88354 20
476 2 0.0497537 -8.51664 -4.59226 23
477 2 -3.36377 -7.48791 -3.43758 18
478 2 -1.21487 -5.60418 -3.1151 19
479 2 -3.70732 -1.77917 -3.44688 18
480 1 -3.94224 -8.53821 -1.82261 22
481 1 -0.933649 -4.73788 -1.27118 18
482 1 -3.71018 -5.63434 0.188635 23
483 1 -1.37072 -7.59731 0.0652022 21
484 1 -3.79943 -8.39693 1.85058 24
485 1 -1.12941 -4.32179 1.76214 21
486 1 -3.69287 -5.28228 3.50828 21
487 1 -0.996324 -7.03478 3.15268 15
488 1 -3.48703 -7.85288 5.18964 17
489 1 -4.09357 -2.66679 -1.5944 17
490 1 -3.77793 -2.41173 2.01329 22
491 1 1.25536 -8.53007 -3.09472 19
492 2 -4.33977 -4.78809 -1.77867 23
493 2 -1.31601 -8.04556 -1.55481 22
494 2 -3.61168 -7.78968 0.202462 22
495 2 -1.76538 -5.71092 0.164098 20
496 2 -4.10719 -4.43048 1.79383 22
497 2 -0.445428 -8.48934 1.6847 20
498 2 -2.91259 -7.44168 3.35381 20
499 2 -1.53342 -5.19131 3.44126 17
500 2 -3.99238 -1.53643 0.0249995 19
