ITEM: TIMESTEP
66000
ITEM: NUMBER OF ATOMS
500
ITEM: BOX BOUNDS pp pp pp
-30.0 30.0
-30.0 30.0
-30.0 30.0
ITEM: ATOMS id type x y z Coordination
1 1 -7.65978 -28.188 -2.48932 19
2 1 -11.0775 -18.108 2.89168 15
3 1 -16.3422 -21.497 -13.974 20
4 1 -23.6784 -20.3745 -7.79072 12
5 1 -12.2872 -20.5936 -14.5535 18
6 1 -5.72731 -29.5414 -8.67579 14
7 1 -8.67345 -19.5592 -0.21101 20
8 1 -10.1601 -13.5946 0.315651 13
9 1 -22.3558 -22.673 -6.27707 17
10 1 -6.14608 -25.2915 -5.4596 19
11 1 -7.26412 -21.9385 0.55617 16
12 1 -19.3372 -28.6791 -1.9929 19
13 1 -16.7627 -24.4557 -14.7603 16
14 1 -8.01624 -23.2384 -14.7722 9
15 1 -8.84732 29.1856 -3.33078 17
16 1 -21.3465 -12.8905 -5.19767 13
17 1 -10.9892 -9.05316 -2.60646 9
18 1 -16.9265 -21.7281 -16.8257 12
19 1 -13.592 -16.8312 1.50223 15
20 1 -16.3709 -15.0223 -1.74001 21
21 1 -8.70999 -14.1908 -10.1928 18
22 1 -4.36304 -13.8635 -4.79085 10
23 1 -15.994 -14.655 -11.3027 15
24 1 -20.191 -16.5939 -13.3999 12
25 1 -14.0814 -13.5943 -9.62447 18
26 1 -23.7079 -15.5214 -5.06474 10
27 1 -18.8393 -13.0285 -3.1915 13
28 1 -18.0939 -19.1697 -14.5934 17
29 1 -16.4198 -28.7853 -0.277387 15
30 1 -8.79249 29.4493 -8.62996 15
31 1 -19.1098 -25.4561 -12.5109 17
32 1 -11.9408 27.9349 -2.32078 11
33 1 -8.03614 -17.9132 -11.6683 19
34 1 -13.8956 -25.7012 -13.6738 18
35 1 -11.7672 -18.2884 -16.366 12
36 1 -13.6873 -10.2765 -8.42871 10
37 1 -21.8029 -17.9362 -2.92535 16
38 1 -12.193 -11.6391 -0.708143 14
39 1 -9.05022 -23.2532 5.39663 7
40 1 -12.2585 28.8925 -8.03676 13
41 1 -8.06257 -21.9782 -11.6634 20
42 1 -7.21155 -24.7287 2.70361 11
43 1 -11.108 -26.5159 1.4371 14
44 1 -7.05323 -11.7751 -5.71944 11
45 1 -19.1763 -28.079 -5.67725 16
46 1 -15.7283 27.9493 -2.96182 11
47 1 -19.6572 -20.522 0.398066 19
48 1 -22.4662 -19.8651 -0.870412 11
49 1 -13.9336 29.0917 -4.70029 18
50 1 -22.1198 -22.0998 -3.15967 14
51 1 -16.2787 -11.8963 -3.30718 12
52 1 -18.7597 -17.8363 -1.58839 21
53 1 -16.3613 -15.0549 1.63538 12
54 1 -21.8575 -26.206 -10.5253 12
55 1 -23.4167 -16.7942 -8.42864 10
56 1 -19.4369 -22.227 -14.5172 17
57 1 -5.03104 -24.1249 0.136529 12
58 1 -13.4561 -25.6381 3.32735 11
59 1 -20.8357 -19.763 -12.7825 18
60 1 -22.4446 -23.2059 -9.34144 17
61 1 -16.5266 -28.3654 -3.57839 23
62 1 -19.1135 -14.9526 -0.405217 15
63 1 -14.0069 -27.4506 -11.6754 19
64 1 -15.7967 -10.1043 -6.1542 11
65 1 -23.3668 -20.5795 -11.1591 13
66 1 -22.6175 -18.4177 -5.79995 13
67 1 -16.784 -27.564 -10.1282 21
68 1 -5.91254 29.347 -3.2892 13
69 1 -22.4444 -14.149 -8.36456 11
70 1 -18.4089 -22.9576 2.10192 13
71 1 -21.1868 -17.3255 0.239583 13
72 1 -16.3669 -24.6049 -11.8931 22
73 1 -13.4111 -28.3892 0.931594 15
74 1 -11.2282 -29.1521 -10.2847 17
75 1 -11.0023 -22.566 -13.0162 19
76 1 -7.65419 29.5974 -0.300978 10
77 1 -18.5226 -29.7502 -8.23074 13
78 1 -21.6642 -26.5717 -1.0713 12
79 1 -4.88975 -20.9421 -1.92964 11
80 1 -8.61244 -13.7545 -6.28101 19
81 1 -11.3975 -17.069 -13.2619 21
82 1 -12.8195 -14.0324 -12.6667 13
83 1 -12.3409 -9.27937 -5.90753 9
84 1 -9.17345 -16.3989 -15.0773 12
85 1 -10.8671 -28.9568 -3.83116 22
86 1 -8.09525 -27.5135 -8.97243 21
87 1 -15.2724 29.2432 -7.29616 17
88 1 -21.4418 -17.5191 -10.6949 15
89 1 -3.70315 -20.1835 -5.4775 10
90 1 -19.1333 -15.9521 -10.6827 20
91 1 -6.72666 -25.7316 -11.7556 13
92 1 -19.7516 -25.7406 0.0484195 18
93 1 -15.4095 29.4379 -10.1689 12
94 1 -11.5362 -27.7466 -13.3096 12
95 1 -7.77492 -27.8926 -5.75223 23
96 1 -21.307 -28.2366 -8.4206 13
97 1 -12.6721 -23.0885 5.22522 11
98 1 -13.6213 -19.7303 3.56991 16
99 1 -5.69398 -25.9742 -8.81494 15
100 1 -10.8285 -12.0149 -7.86801 16
101 1 -5.31746 -23.1001 -10.5652 15
102 1 -14.9354 -19.8453 -16.2422 13
103 1 -21.323 -14.9463 -2.77123 13
104 1 -10.6104 -23.726 2.89852 17
105 1 -19.7069 -22.6383 -11.6058 20
106 1 -8.60253 -25.6198 -3.84002 22
107 1 -8.79802 -16.5966 1.26907 16
108 1 -11.111 29.4856 0.624061 10
109 1 -5.36854 -17.3134 -6.52962 14
110 1 -6.25457 -17.8631 -0.206551 12
111 1 -7.07538 -14.4222 -0.524951 14
112 1 -17.0545 -17.0679 -12.9459 16
113 1 -16.3588 -27.4308 -6.64661 20
114 1 -19.5168 -14.8974 -7.39516 21
115 1 -5.78781 -14.574 -8.08679 12
116 1 -10.6595 -20.7278 4.87866 14
117 1 -11.4709 -24.9462 -15.3122 12
118 1 -10.5617 -11.8691 -4.10682 22
119 1 -8.85617 -28.1861 -11.8061 13
120 1 -6.35711 -27.45 0.807376 12
121 1 -18.5572 -17.7145 1.73346 15
122 1 -4.66993 -22.6332 -4.28335 15
123 1 -9.99008 -14.1721 -12.9629 14
124 1 -5.71321 -19.9006 -11.7439 12
125 1 -15.3714 -22.803 3.30006 14
126 1 -17.0975 -26.0686 1.7702 15
127 1 -18.2323 -11.9195 -6.13963 16
128 1 -8.70831 -13.7621 -3.28905 22
129 1 -19.2374 -28.7193 0.874127 10
130 1 -3.88232 -27.9417 -3.93361 9
131 1 -17.5362 28.8911 -5.15686 13
132 1 -5.53326 -16.0285 -3.08879 16
133 1 -7.22962 28.2524 -6.21921 12
134 1 -13.4551 -10.4847 -3.56946 14
135 1 -23.3606 -25.9248 -7.27918 11
136 1 -11.7272 -15.2825 -15.8547 10
137 1 -22.1629 -23.4626 -12.6111 12
138 1 -8.6459 -25.8828 -14.3026 12
139 1 -16.5436 -27.672 -13.1235 12
140 1 -3.97385 29.1583 -5.96226 9
141 1 -22.9859 -25.135 -4.0031 13
142 1 -13.7897 -17.0618 -14.663 16
143 1 -19.5656 -28.6312 -11.3837 10
144 1 -5.5277 -26.2676 -2.29428 15
145 1 -13.7318 -22.8726 -15.7108 13
146 1 -20.3487 -12.2637 -8.5166 13
147 1 -21.4781 -23.0274 0.229977 14
148 1 -5.35908 -12.4973 -2.38589 10
149 1 -5.45008 -20.274 -8.09336 17
150 1 -14.2245 28.7583 -0.935972 13
151 1 -9.66427 -20.1557 -13.9485 15
152 1 -6.58342 -14.9196 -11.7619 10
153 1 -8.66178 -11.3117 -1.29311 13
154 1 -11.3806 -11.8284 -10.7903 12
155 1 -5.74667 -17.601 -9.86002 16
156 1 -4.56786 -27.2802 -6.79503 14
157 1 -13.8038 -14.0005 -0.0722964 14
158 1 -16.8669 -11.4142 -9.19344 11
159 1 -17.9346 28.5556 -1.40505 10
160 1 -10.5702 28.724 -5.49508 14
161 1 -21.7293 -27.8172 -4.64976 13
162 1 -21.9199 -14.3344 -11.1278 10
163 2 -21.8609 -19.9898 -2.86089 18
164 2 -5.93487 -17.2952 -4.70769 17
165 2 -22.2595 -24.3299 -10.9527 13
166 2 -16.0265 28.4592 -1.1168 10
167 2 -12.7274 -21.1226 4.71291 15
168 2 -16.9082 -11.087 -5.05545 13
169 2 -4.39224 29.4342 -7.76314 8
170 2 -17.118 -19.6529 -12.7782 22
171 2 -12.105 -23.1099 -14.8015 17
172 2 -17.2241 -14.3906 0.0639328 14
173 2 -5.63841 -28.662 -2.89498 16
174 2 -4.80499 -14.4089 -2.88681 10
175 2 -11.8554 -13.5962 -0.640096 15
176 2 -9.74956 -10.4386 -2.4638 12
177 2 -10.1515 -14.6428 -14.7811 10
178 2 -8.88732 -22.1203 -13.5665 15
179 2 -22.1206 -19.3436 -10.3569 16
180 2 -14.6287 -28.8367 -0.607205 18
181 2 -22.8958 -17.2633 -4.35103 12
182 2 -6.30114 -27.6971 -8.07353 18
183 2 -18.5169 -29.9531 -6.12024 15
184 2 -10.2211 -11.7414 -0.280353 14
185 2 -10.948 -22.8171 5.50024 10
186 2 -18.9558 -25.3176 -1.64509 24
187 2 -13.7851 28.516 -2.80426 14
188 2 -19.9112 -27.6688 -3.50383 18
189 2 -16.6621 29.5664 -8.67908 14
190 2 -20.0042 -29.3511 -9.43942 12
191 2 -19.5891 -12.3369 -4.7137 15
192 2 -8.48763 -15.1002 -4.76852 20
193 2 -10.6316 -16.7834 -16.1455 10
194 2 -6.04646 -23.5035 -5.08845 19
195 2 -15.5402 -10.4143 -8.10303 12
196 2 -19.7609 -13.9729 -1.86093 13
197 2 -11.9307 -10.5548 -7.46216 11
198 2 -8.47305 -14.4582 -12.0904 12
199 2 -14.4949 -15.3908 1.20716 12
200 2 -8.74862 -21.2496 4.69995 10
201 2 -7.34765 -24.856 -13.4977 12
202 2 -12.1976 -28.4026 -11.6998 17
203 2 -20.5165 -27.266 -6.66804 16
204 2 -5.65186 28.8657 -5.12108 13
205 2 -8.93806 -14.814 -1.54076 18
206 2 -14.3612 -20.2749 -14.4004 20
207 2 -11.8404 -25.9565 -13.7328 16
208 2 -17.5566 -25.527 -13.5173 15
209 2 -9.55887 -27.4089 -13.4193 13
210 2 -5.78792 -21.7802 -11.846 13
211 2 -9.52878 -24.528 -15.2626 9
212 2 -14.8708 -27.1582 -13.1727 16
213 2 -15.0984 -17.4207 -13.0974 19
214 2 -17.7215 28.2835 -3.32837 11
215 2 -19.5881 -16.8229 -6.88081 22
216 2 -19.0005 29.8748 -0.575372 10
217 2 -22.2824 -24.1042 -7.61184 18
218 2 -9.35577 29.4566 0.605288 8
219 2 -12.7917 -10.1156 -1.76253 9
220 2 -15.2476 -20.5722 2.93436 12
221 2 -21.6434 -16.7188 -1.55371 13
222 2 -20.1916 -23.5757 -13.1915 15
223 2 -6.22492 -16.7463 -8.24634 17
224 2 -22.8292 -23.2498 -4.34892 14
225 2 -17.2376 -16.016 -11.3112 18
226 2 -11.4379 -20.5745 -12.9267 17
227 2 -23.3299 -15.6427 -7.00349 12
228 2 -10.2424 29.1534 -7.58481 14
229 2 -13.5598 29.0779 -9.28487 12
230 2 -18.1416 -13.9516 -6.35175 17
231 2 -10.9862 28.9887 -3.59255 12
232 2 -8.27503 -14.7774 0.971482 11
233 2 -13.1195 -11.7742 -9.72086 15
234 2 -13.5169 -26.5137 1.48714 14
235 2 -10.812 -19.5048 -15.3139 14
236 2 -8.7154 -24.0245 3.71937 10
237 2 -6.90456 -13.386 -7.06516 13
238 2 -7.16758 -12.5348 -1.6545 12
239 2 -22.1034 -26.4174 -3.0028 14
240 2 -10.7268 -17.1495 1.47008 15
241 2 -5.21912 -26.0784 -0.307471 12
242 2 -9.21849 -17.1777 -13.3007 16
243 2 -10.1616 -19.6525 3.40671 16
244 2 -7.47325 -26.1435 -2.31855 21
245 2 -22.5576 -21.6679 -12.693 15
246 2 -18.5395 -15.0745 -9.1188 20
247 2 -23.447 -18.4314 -7.60494 12
248 2 -17.3042 -28.1648 -1.96101 21
249 2 -5.54154 -12.3046 -4.36788 11
250 2 -19.7162 -20.2311 -14.7292 16
251 2 -3.84613 -21.9967 -5.9662 11
252 2 -21.4846 -12.9952 -9.91239 10
253 2 -7.28235 28.9599 -2.05355 10
254 2 -17.422 -27.8835 1.05317 12
255 2 -20.2145 -26.8079 -11.2649 12
256 2 -11.5259 -12.8595 -12.2231 11
257 2 -22.4286 -14.3225 -4.43708 11
258 2 -11.4539 -25.3985 2.87227 12
259 2 -21.1486 -13.1548 -7.08566 14
260 2 -13.2083 -17.775 3.09563 12
261 2 -19.5288 -20.675 -11.637 22
262 2 -8.613 -12.1934 -4.65097 16
263 2 -16.8319 -16.8311 1.78923 14
264 2 -14.9158 -21.8677 -16.4884 13
265 2 -15.1106 -28.6465 -10.4614 19
266 2 -8.274 -20.2888 1.48378 18
267 2 -5.30752 -19.4146 -10.0018 14
268 2 -11.424 -28.5208 0.801358 14
269 2 -18.5199 -19.581 1.8168 16
270 2 -22.7271 -26.9327 -8.7292 11
271 2 -20.984 -19.1373 -0.0884988 15
272 2 -20.39 -27.636 -0.309543 14
273 2 -17.4584 -27.8218 -8.37979 21
274 2 -14.1777 -14.4986 -11.5266 14
275 2 -10.2288 -12.7427 -9.56451 15
276 2 -8.14426 -26.5734 -11.0481 15
277 2 -5.57876 -22.6929 -1.03269 14
278 2 -6.43799 -16.4939 -1.55755 14
279 2 -12.4819 -15.7201 -14.1318 16
280 2 -17.6438 -22.8363 -14.8289 17
281 2 -14.3889 -12.0777 -3.21189 17
282 2 -16.0239 -13.2826 -9.95591 14
283 2 -22.2013 -15.8009 -9.6778 17
284 2 -19.51 -16.7359 0.392727 16
285 2 -7.10169 29.1743 -7.97875 13
286 2 -20.3965 -15.202 -12.0283 12
287 2 -16.8053 -20.1628 -15.6362 13
288 2 -6.3107 -23.3787 1.45046 11
289 2 -19.6735 -22.4377 0.652077 18
290 2 -21.4029 -24.8434 -0.350098 14
291 2 -8.04005 -28.5891 -0.617411 19
292 2 -22.4703 -20.427 -6.06364 14
293 2 -16.4335 -22.7678 1.75947 17
294 2 -12.2863 28.4815 -0.445135 13
295 2 -5.04206 -20.8499 -3.88754 15
296 2 -12.7071 29.3091 -6.24194 17
297 2 -18.4724 -11.9589 -8.21709 14
298 2 -21.3781 -18.0147 -12.5835 16
299 2 -18.5652 -24.8033 1.60169 14
300 2 -7.6414 -26.0326 1.32786 13
301 2 -11.9684 -17.9449 -11.4739 19
302 2 -5.65478 -19.5632 -0.626566 10
303 2 -5.11085 -26.4227 -4.29868 14
304 2 -5.49721 -24.9231 -10.4046 15
305 2 -8.81356 28.2395 -5.11104 12
306 2 -6.42016 -16.8896 -11.7514 13
307 2 -22.7205 -26.2257 -5.5797 14
308 2 -23.4887 -21.3099 -9.28379 12
309 2 -8.87149 -28.6936 -3.93793 20
310 2 -9.92457 -15.4534 -9.35637 18
311 2 -4.97913 -19.1743 -6.49727 14
312 2 -6.83907 -14.6 -9.80013 13
313 2 -4.14835 -28.8576 -5.78918 12
314 2 -9.21049 -29.1849 -10.0282 16
315 2 -14.8223 -24.5304 -14.9527 15
316 2 -11.6098 -10.2312 -4.41514 12
317 2 -14.0915 -9.59332 -5.72533 10
318 2 -15.6406 28.4908 -5.27946 13
319 2 -13.4575 -23.5437 3.25212 16
320 2 -4.8316 -15.0018 -6.20612 13
321 2 -7.76036 -19.8366 -11.4407 17
322 2 -18.6211 -17.3214 -14.0443 14
323 2 -17.874 -28.0731 -11.8707 14
324 2 -8.98131 -27.8191 -7.15778 21
325 1 -19.609 -22.3932 -8.09241 19
326 1 -20.8147 -25.065 -6.43416 19
327 1 -13.8611 -28.1137 -8.63884 23
328 1 -13.8735 -22.4691 -11.6432 21
329 1 -16.6725 -22.5295 -9.74286 23
330 1 -14.3395 -25.053 -9.89315 23
331 1 -17.389 -25.2161 -8.56981 17
332 1 -13.587 -22.3498 -8.44771 23
333 1 -16.6003 -22.5649 -6.82506 21
334 1 -14.4215 -25.2311 -7.04238 22
335 2 -20.6457 -22.5296 -9.75952 20
336 2 -20.3709 -22.4316 -6.20416 19
337 2 -14.8117 -28.6628 -6.87022 24
338 2 -15.7238 -22.9259 -12.7718 20
339 2 -17.9651 -23.5313 -11.0663 21
340 2 -13.4806 -25.3009 -11.5595 20
341 2 -16.4272 -25.5855 -10.1502 23
342 2 -14.686 -23.0805 -9.6682 21
343 2 -17.7351 -23.2231 -8.28844 19
344 2 -13.9868 -26.2482 -8.61024 22
345 2 -16.421 -25.3049 -6.74216 18
346 2 -14.6896 -23.2576 -6.6967 24
347 1 -19.2528 -23.0466 -4.71446 20
348 1 -19.8409 -25.8197 -3.28363 23
349 1 -18.7131 -23.1848 -1.37538 23
350 1 -13.6358 -28.2815 -5.3504 22
351 1 -13.747 -28.3804 -2.29664 20
352 1 -17.4359 -25.272 -4.97773 23
353 1 -13.9135 -22.6307 -4.9866 21
354 1 -16.3184 -23.224 -3.14913 20
355 1 -14.3936 -25.4193 -3.65226 22
356 1 -17.1223 -26.2096 -1.55274 24
357 1 -13.3182 -22.8594 -1.71011 20
358 1 -16.0645 -23.4558 0.185241 21
359 1 -14.0563 -25.3516 -0.223134 21
360 1 -12.8404 -22.778 1.61731 22
361 2 -19.4443 -25.0875 -4.98754 21
362 2 -19.762 -22.4678 -2.9118 22
363 2 -17.4836 -27.2824 -5.04124 20
364 2 -14.6644 -28.9438 -4.07772 22
365 2 -17.1839 -22.7495 -4.84696 20
366 2 -13.6128 -26.1622 -5.37818 23
367 2 -16.2632 -25.3716 -3.13998 20
368 2 -14.4058 -23.3917 -3.2567 21
369 2 -16.9294 -22.383 -1.33285 23
370 2 -13.6963 -26.2289 -1.99224 21
371 2 -15.9501 -25.6394 0.107758 19
372 2 -14.0762 -23.3814 -0.00199737 18
373 2 -22.5793 -21.8285 -0.983903 11
374 1 -20.5878 -20.4629 -10.0174 20
375 1 -19.4522 -17.9096 -8.38473 17
376 1 -20.4409 -20.1875 -6.30729 18
377 1 -15.1159 -19.5349 -12.8067 21
378 1 -18.0895 -19.6835 -11.1963 25
379 1 -13.7766 -17.0141 -11.3563 21
380 1 -16.8551 -17.1803 -9.76241 22
381 1 -14.963 -19.6518 -9.72052 23
382 1 -17.5707 -19.8686 -8.16277 22
383 1 -13.8875 -17.1013 -8.50897 22
384 1 -16.2013 -16.9335 -6.68301 22
385 1 -14.5611 -19.7097 -6.48735 22
386 1 -17.2906 -13.9275 -8.23307 19
387 1 -14.1313 -14.2638 -6.84223 17
388 2 -19.606 -20.1986 -7.99681 19
389 2 -19.3558 -17.9479 -10.3384 23
390 2 -13.9527 -20.4478 -11.136 23
391 2 -16.8595 -20.6996 -9.63225 23
392 2 -15.0501 -17.7585 -10.0097 24
393 2 -17.3545 -17.9729 -7.88187 22
394 2 -13.7904 -20.4156 -8.15043 23
395 2 -16.3996 -20.2823 -6.55589 20
396 2 -14.2905 -17.4944 -6.70301 22
397 2 -13.197 -14.9259 -8.44856 21
398 2 -15.941 -15.1803 -7.41127 18
399 1 -19.3975 -17.5492 -5.06563 19
400 1 -19.8764 -20.4925 -2.95596 21
401 1 -17.0122 -20.4564 -4.71926 21
402 1 -13.2756 -17.1817 -5.1915 22
403 1 -15.9769 -17.6336 -3.33386 21
404 1 -14.0649 -19.7229 -3.02834 21
405 1 -16.9071 -20.5341 -1.39147 22
406 1 -13.4155 -16.8039 -1.81791 21
407 1 -16.0747 -17.6685 0.10078 22
408 1 -13.7525 -19.7237 0.228932 21
409 1 -16.7057 -20.528 1.76546 18
410 1 -17.3881 -14.8707 -4.7136 21
411 1 -13.602 -13.8116 -3.44204 17
412 2 -19.2478 -19.646 -4.75224 20
413 2 -19.5977 -17.0478 -3.24489 19
414 2 -18.6711 -19.8542 -1.5288 25
415 2 -16.6471 -16.552 -4.85046 19
416 2 -13.4416 -20.2869 -4.84321 21
417 2 -15.9166 -19.8403 -3.06166 22
418 2 -14.0055 -17.8331 -3.3109 20
419 2 -17.0604 -16.9203 -1.51975 21
420 2 -13.2458 -20.77 -1.33935 22
421 2 -15.6785 -19.6935 0.229466 20
422 2 -13.1565 -17.8251 -0.169803 19
423 2 -12.9102 -20.799 1.75688 23
424 2 -13.8184 -14.958 -5.14311 20
425 2 -16.9897 -13.6179 -3.15447 17
426 2 -14.2532 -15.0926 -1.72946 20
427 1 -10.8076 -28.6988 -7.11049 20
428 1 -11.4222 -25.2436 -11.5829 21
429 1 -10.6984 -22.3345 -9.98473 19
430 1 -8.7387 -24.6866 -10.0652 21
431 1 -11.6189 -26.3318 -8.65963 21
432 1 -7.67826 -22.4151 -8.52591 23
433 1 -10.946 -23.4903 -6.99942 23
434 1 -8.73696 -25.3959 -7.01621 23
435 2 -11.6966 -28.1267 -8.75027 22
436 2 -11.6801 -23.1139 -11.4352 20
437 2 -10.5379 -25.5048 -9.98883 23
438 2 -8.73827 -22.8367 -10.1336 23
439 2 -11.5246 -22.0614 -8.29363 19
440 2 -7.51688 -25.3495 -8.6775 22
441 2 -10.9074 -25.3118 -7.13669 19
442 2 -8.58231 -23.394 -7.0072 21
443 2 -5.54864 -22.2501 -8.68023 19
444 1 -11.715 -26.1756 -5.30094 21
445 1 -7.73358 -22.6517 -5.33002 20
446 1 -10.7488 -23.4397 -3.58023 18
447 1 -9.98345 -28.2771 -0.642282 19
448 1 -11.3907 -26.2035 -2.07163 20
449 1 -7.50532 -22.7771 -2.20645 21
450 1 -10.0881 -22.7532 -0.259501 20
451 1 -8.37133 -25.488 -0.507043 21
452 2 -11.6247 -28.1317 -5.21992 22
453 2 -11.7252 -28.1167 -2.00647 21
454 2 -11.9295 -22.8922 -5.19075 22
455 2 -7.86009 -26.1851 -5.3875 22
456 2 -10.7481 -25.467 -3.73283 20
457 2 -8.49311 -23.4502 -3.63045 21
458 2 -11.3737 -22.9223 -1.66439 20
459 2 -10.2036 -26.0444 -0.373132 20
460 2 -8.40479 -23.6056 -0.458066 18
461 2 -10.7586 -22.5754 1.50185 19
462 2 -4.96457 -25.2218 -7.01412 15
463 1 -12.0029 -19.9233 -11.1545 22
464 1 -10.5654 -17.4259 -10.0498 20
465 1 -8.50823 -19.801 -9.78305 21
466 1 -11.8418 -20.1142 -8.04844 22
467 1 -8.15761 -16.7225 -8.43483 20
468 1 -10.8313 -17.7029 -6.89006 21
469 1 -8.85267 -20.1963 -6.73103 22
470 1 -11.3256 -14.8349 -8.40601 18
471 1 -4.6584 -23.3681 -7.04246 16
472 2 -13.6294 -18.2775 -16.315 13
473 2 -10.5923 -20.256 -9.73517 23
474 2 -8.81473 -17.8148 -9.78852 20
475 2 -12.0647 -17.6973 -8.57982 21
476 2 -7.52113 -20.4122 -8.23668 21
477 2 -11.0765 -19.6403 -6.36847 20
478 2 -8.69698 -18.0466 -6.83633 23
479 2 -10.6401 -13.5941 -6.8601 17
480 1 -11.7324 -20.7016 -5.03676 20
481 1 -8.02318 -16.9581 -5.11148 20
482 1 -10.9417 -17.9778 -3.9012 21
483 1 -8.82572 -19.8207 -3.4017 21
484 1 -11.2324 -20.8717 -1.66751 21
485 1 -8.41506 -16.7519 -1.99772 19
486 1 -11.2 -17.9062 -0.365706 20
487 1 -8.16922 -19.9123 3.37494 9
488 1 -10.8173 -20.6744 1.53616 22
489 1 -11.4524 -14.6644 -5.31879 19
490 1 -10.9853 -14.9631 -2.11639 20
491 1 -6.25145 -19.702 -4.91403 19
492 2 -11.2737 -16.6986 -5.36401 19
493 2 -7.89416 -20.6341 -5.13837 22
494 2 -10.9508 -20.1243 -3.34286 22
495 2 -8.84627 -18.0035 -3.46875 22
496 2 -11.2869 -16.983 -2.28443 22
497 2 -7.96324 -20.8167 -1.53984 20
498 2 -10.6902 -19.7175 -0.117415 21
499 2 -8.29567 -17.7132 -0.172043 17
500 2 -11.461 -13.6654 -3.4905 21
