ITEM: TIMESTEP
5000
ITEM: NUMBER OF ATOMS
500
ITEM: BOX BOUNDS pp pp pp
-30.0 30.0
-30.0 30.0
-30.0 30.0
ITEM: ATOMS id type x y z Coordination
1 1 9.12149 -3.436 5.97402 14
2 1 2.03584 3.38056 7.66149 14
3 1 -1.71936 -0.616796 -8.47406 24
4 1 -8.46063 0.998947 -4.34058 16
5 1 2.97824 1.30385 -9.72412 15
6 1 8.14796 -8.31574 -5.06753 11
7 1 8.2243 1.77101 5.76561 14
8 1 3.83419 6.2239 6.3706 13
9 1 -8.42524 -0.641044 -2.02667 17
10 1 9.42169 -2.25492 -1.5213 15
11 1 6.34461 -1.18999 5.99884 14
12 1 -4.45288 -8.22497 5.60233 9
13 1 -0.00114554 -3.35517 -8.88093 15
14 1 7.9625 -3.60774 -7.72024 10
15 1 7.63746 -6.93161 0.520251 13
16 1 -3.55879 9.15019 4.57883 10
17 1 2.57141 12.2815 -0.305325 10
18 1 -0.50301 -2.27875 -11.7829 11
19 1 -1.00284 4.55485 7.66662 10
20 1 -1.60882 5.71828 2.93386 18
21 1 4.24251 7.32486 -6.03814 17
22 1 7.37601 6.41887 1.29517 16
23 1 -1.27933 5.93827 -5.64976 16
24 1 -5.85381 2.97569 -8.61769 14
25 1 -1.15318 9.12181 -4.54747 13
26 1 -9.01066 2.75161 -1.14968 14
27 1 -0.313494 10.4902 3.78157 11
28 1 -2.66036 2.20922 -9.83835 18
29 1 -4.90684 -6.82563 3.01629 19
30 1 5.57394 -8.9291 -4.98576 15
31 1 -7.42268 -3.0395 -7.87288 8
32 1 0.25842 -10.0453 1.01659 14
33 1 5.71826 4.79344 -6.11879 22
34 1 -3.99201 -4.91327 -6.7 14
35 1 2.90113 4.78597 -10.9313 10
36 1 0.284583 11.056 -2.77791 10
37 1 -9.14887 2.34743 2.2595 12
38 1 2.76453 9.09046 5.1175 11
39 1 3.98025 -2.01898 7.6172 18
40 1 2.54393 -10.0299 -3.66809 12
41 1 6.75468 -0.90064 -6.34342 17
42 1 6.6135 -4.01696 8.20969 10
43 1 4.55897 -4.88025 4.95008 22
44 1 6.77368 8.9385 -1.24128 13
45 1 -5.27492 -6.51533 -0.827778 19
46 1 -3.19726 -10.4691 -0.692015 14
47 1 -4.24886 -2.46432 6.93413 15
48 1 -7.9551 0.248206 4.26056 14
49 1 2.86913 -9.59925 -0.69096 15
50 1 -8.12746 -1.13485 1.27855 16
51 1 -2.2627 9.01568 2.01905 18
52 1 -4.88999 4.50172 3.45547 20
53 1 -2.64483 6.52961 6.69121 12
54 1 -6.69652 -4.17119 -5.11559 19
55 1 -7.47735 5.39469 -7.39563 8
56 1 -3.08482 -3.56708 -10.3998 9
57 1 11.799 -1.54033 4.97755 7
58 1 1.37616 -4.00272 7.88293 12
59 1 -2.98374 -0.295969 -11.6764 11
60 1 -8.82798 -2.22656 -4.74234 14
61 1 -2.30871 -7.18079 0.635765 22
62 1 -5.61223 6.37087 5.07451 13
63 1 -0.681751 -9.20322 -5.70478 11
64 1 0.0702405 10.9391 0.761282 16
65 1 -6.85008 -0.26845 -7.22971 17
66 1 -8.33282 4.25821 -4.17341 14
67 1 -2.97711 -7.51005 -5.4435 15
68 1 6.4779 -6.63021 3.26312 17
69 1 -8.84745 5.89241 -1.1806 12
70 1 -5.18706 -0.209635 8.47769 11
71 1 -7.29964 3.39853 4.94535 14
72 1 -6.32105 -7.24212 -6.80328 9
73 1 1.36629 -6.92499 5.64866 15
74 1 2.4238 -7.80043 -5.59914 15
75 1 4.63303 -0.744901 -8.20206 17
76 1 7.17841 -6.13496 5.91424 14
77 1 -5.9589 -9.4197 -2.39197 13
78 1 -6.80417 -2.4176 5.69002 12
79 1 10.8152 1.46714 3.43313 14
80 1 8.82485 5.9893 -1.88226 12
81 1 3.79899 3.79535 -8.2512 20
82 1 0.441734 5.36638 -8.45336 15
83 1 3.90779 10.2059 -2.58662 14
84 1 5.8701 5.18966 -9.35002 12
85 1 3.26133 -7.93676 2.70017 17
86 1 6.68949 -6.19985 -4.14634 22
87 1 -0.543191 -9.55465 -2.53365 15
88 1 -8.87647 3.06023 -6.91539 10
89 1 11.2052 0.222348 -1.76924 12
90 1 -4.58146 6.46018 -5.71312 12
91 1 9.40536 -5.97898 -6.25772 11
92 1 -5.95748 -5.15193 4.50689 13
93 1 -3.34382 -10.213 -4.0088 13
94 1 0.627172 -6.08042 -6.89561 12
95 1 4.47903 -6.50449 0.0736854 23
96 1 -5.28762 -6.20909 -3.702 21
97 1 1.16143 -1.55396 9.82236 12
98 1 -0.0614571 1.4484 7.88187 17
99 1 6.92442 -7.59736 -7.98495 9
100 1 5.24246 7.20651 -3.53039 17
101 1 8.64754 -3.22079 -4.56804 18
102 1 -0.262551 1.21007 -11.1175 15
103 1 -8.14789 5.29895 2.42133 12
104 1 3.96495 -5.61795 7.72578 13
105 1 -5.27757 -0.124837 -10.0126 13
106 1 9.53394 -5.70414 3.13096 10
107 1 6.40934 4.67733 5.61492 14
108 1 1.46811 -9.47566 4.34012 11
109 1 8.35498 1.42303 1.97912 19
110 1 8.8066 4.25266 3.67313 12
111 1 5.99094 7.29732 3.95223 17
112 1 -3.21042 5.22144 -8.17204 12
113 1 -2.2465 -7.15992 -2.50224 21
114 1 -6.74127 7.01152 -0.00987792 13
115 1 7.95869 7.72637 -4.70047 12
116 1 3.13229 0.447812 9.48782 9
117 1 3.2783 -2.53881 -10.4407 11
118 1 5.49916 11.5739 -0.19869 11
119 1 4.77174 -6.4021 -7.29998 16
120 1 4.29622 -8.35317 5.6878 13
121 1 -4.22844 2.89121 6.3117 16
122 1 11.8305 -0.536139 1.4217 9
123 1 1.61725 7.77882 -6.61629 13
124 1 8.55048 2.70454 -5.85925 14
125 1 -1.68994 -1.38766 8.75233 12
126 1 -3.33689 -4.86115 6.08468 13
127 1 -5.1883 9.87426 1.23109 9
128 1 4.79971 7.87135 0.980887 22
129 1 -8.87624 -4.19158 3.11075 9
130 1 9.44201 -2.04823 1.7566 17
131 1 -5.81788 -8.86007 0.512163 13
132 1 10.5299 2.58492 0.455251 13
133 1 6.07857 -9.11774 -1.93664 15
134 1 2.88294 10.1288 2.58558 17
135 1 -9.31562 -4.63635 -2.83042 12
136 1 4.2636 7.41659 -9.24963 10
137 1 -4.61657 -2.19334 -7.84511 16
138 1 5.64049 -4.04772 -8.86698 11
139 1 -6.81053 -10.2162 -5.12517 6
140 1 7.43438 -4.16859 -0.93572 18
141 1 -9.75708 -2.95375 -0.0201492 10
142 1 -0.710959 4.61183 -10.7288 10
143 1 -8.29756 -7.40641 -4.57727 12
144 1 8.70875 -0.866613 4.68457 17
145 1 1.34617 -0.837398 -9.51781 21
146 1 -4.45489 7.18031 2.47856 17
147 1 -5.17001 0.352815 5.38605 20
148 1 7.01169 9.77293 1.48308 10
149 1 10.2466 2.97748 -3.12877 12
150 1 -1.73768 -7.3511 4.57676 19
151 1 6.15618 1.91005 -7.90501 16
152 1 7.34283 7.30676 -7.05029 10
153 1 5.85098 10.5966 3.91491 7
154 1 1.94702 8.49714 -3.7052 17
155 1 10.0741 5.76178 -6.79121 5
156 1 9.25627 -5.40766 -2.68807 12
157 1 0.458933 5.76764 5.15009 18
158 1 -2.27447 9.26406 -1.31072 16
159 1 -2.81343 -9.04378 2.77459 15
160 1 5.65002 -9.12235 1.34219 11
161 1 -8.36687 -6.3663 -1.03518 13
162 1 -6.26502 7.74652 -3.02631 9
163 2 -8.28727 0.696012 2.53435 15
164 2 7.63211 5.26538 2.73522 17
165 2 -6.07063 2.52884e-04 -5.47637 20
166 2 -2.95976 -8.85782 4.71845 9
167 2 1.17176 0.195676 9.19311 15
168 2 -1.99558 9.70622 3.75033 13
169 2 5.97937 -7.5814 -6.22852 15
170 2 -1.3963 1.22553 -8.31498 19
171 2 1.12731 -2.33415 -10.5067 14
172 2 -0.106916 6.65983 3.49241 19
173 2 9.37431 -3.78455 2.3508 14
174 2 6.64995 7.77544 0.292731 18
175 2 1.42619 10.1017 4.00782 13
176 2 5.57229 11.0125 2.01244 13
177 2 6.07354 6.90155 -8.39783 11
178 2 6.14575 -2.01973 -7.95565 19
179 2 -7.67983 2.535 -5.59088 17
180 2 0.0585593 -8.15166 5.2604 13
181 2 -9.22997 2.74146 0.689234 13
182 2 8.79047 -6.44221 -4.43186 13
183 2 -4.82268 -9.78978 -0.755577 13
184 2 2.53982 7.28645 4.9986 17
185 2 3.40583 -3.93259 7.85073 15
186 2 -5.49062 -4.99347 2.57605 16
187 2 0.681863 -9.68095 -0.818006 15
188 2 -6.94763 -7.42975 -0.20656 14
189 2 -2.47426 -9.22471 -2.4535 18
190 2 -5.63872 -7.5101 -2.42015 19
191 2 -4.64461 9.33282 2.89302 11
192 2 7.93088 7.62518 -2.75737 11
193 2 4.04102 5.58099 -9.63753 13
194 2 8.58972 2.02221 0.186709 20
195 2 0.741564 11.7527 -1.15012 10
196 2 -3.79366 7.62531 5.70543 11
197 2 2.0041 10.3331 -2.94407 13
198 2 3.20951 7.68733 -7.84581 14
199 2 -0.806254 6.2524 6.89378 10
200 2 3.13238 -1.34119 9.25883 12
201 2 6.09803 -6.23207 -8.85103 9
202 2 -0.0207537 -7.52155 -5.98991 12
203 2 -8.9245 -6.51979 -2.93395 11
204 2 8.2122 -5.85299 -1.01615 14
205 2 4.79791 6.45933 2.69402 21
206 2 1.12311 0.903842 -9.83822 18
207 2 3.75042 -3.7665 -8.76983 17
208 2 -3.8352 -4.06071 -8.45957 12
209 2 2.79088 -6.53307 -7.03048 14
210 2 8.81225 -4.19394 -6.27965 14
211 2 3.33535 -0.63575 -9.9847 12
212 2 -5.31683 -10.1703 -4.05193 11
213 2 1.59109 3.70835 -7.67198 22
214 2 -4.54569 -8.44347 1.95799 16
215 2 -5.33967 5.67635 -0.844852 20
216 2 -5.40046 -6.86372 4.82009 13
217 2 -8.01917 -3.60355 -3.56461 19
218 2 5.56987 -6.5692 4.94574 15
219 2 4.04817 10.0112 4.23425 13
220 2 -1.78556 0.424683 8.05353 17
221 2 -8.82055 3.83216 3.67849 13
222 2 -5.70007 -3.27167 -6.71185 19
223 2 8.94481 4.55891 -3.08636 13
224 2 -8.82741 -1.40649 -0.62365 14
225 2 -3.11506 5.48587 -6.29916 14
226 2 4.23599 1.47612 -7.98556 20
227 2 -9.17641 4.44927 -2.39085 11
228 2 6.86588 -9.44713 -3.72776 12
229 2 0.594581 -9.70921 -4.08967 15
230 2 -5.27169 8.07202 0.587159 15
231 2 3.71559 -9.22159 0.974216 14
232 2 5.51052 6.48691 5.52934 14
233 2 -1.34437 9.87283 -2.79524 13
234 2 0.891062 -4.87805 6.24792 16
235 2 1.02368 5.0764 -10.3946 11
236 2 6.01484 -2.46908 7.23873 14
237 2 8.09441 5.23467 -0.17851 14
238 2 6.8975 8.82914 3.3339 11
239 2 -9.35086 -2.79038 1.78182 9
240 2 3.08931 4.47486 6.37434 15
241 2 10.114 -2.00902 5.49402 13
242 2 3.21282 3.05928 -10.2154 13
243 2 2.95576 1.73644 7.9747 13
244 2 6.03067 -4.58334 3.09007 21
245 2 -6.39514 -1.50405 -8.52122 11
246 2 -4.94402 6.66154 -3.87563 13
247 2 -8.6794 4.94185 -5.91577 8
248 2 -1.82669 -7.32372 2.62737 19
249 2 7.1125 10.6122 -0.290201 10
250 2 -3.71694 -1.55675 -10.4858 14
251 2 10.9759 -1.21328 -0.125323 13
252 2 -7.58199 7.11755 -1.76106 10
253 2 8.28391 -6.92053 2.4182 13
254 2 -3.24491 -6.59024 5.49799 14
255 2 -6.93944 -6.04602 -5.07455 16
256 2 0.75399 8.44221 -5.06562 14
257 2 -6.21805 6.26188 3.18424 16
258 2 3.11345 -6.89639 6.59963 13
259 2 -8.26418 5.88991 0.771098 14
260 2 0.328409 3.26072 7.8965 15
261 2 -5.85468 1.08129 -8.60165 16
262 2 5.00375 8.81812 -2.23662 19
263 2 -2.72806 4.38955 6.62825 16
264 2 -1.10087 -0.452939 -11.5011 15
265 2 -2.56583 -9.33188 -5.4783 11
266 2 6.62008 0.796171 5.64931 14
267 2 9.39701 1.97936 -4.4034 13
268 2 3.15861 -8.99402 4.62345 11
269 2 -4.65942 1.34823 7.18443 14
270 2 -8.29675 -3.09058 -6.2704 11
271 2 -6.86755 1.64985 5.18861 15
272 2 -7.55975 -3.68452 4.42008 12
273 2 -3.30773 -6.18387 -4.03562 19
274 2 -1.3624 5.38328 -8.80204 12
275 2 6.25781 7.22649 -5.41348 13
276 2 6.19363 -4.56683 -7.00211 20
277 2 9.89626 0.817726 5.01201 14
278 2 8.09081 3.66796 5.30581 13
279 2 0.467259 6.22414 -6.72657 17
280 2 -1.3656 -3.2789 -10.2819 12
281 2 -0.213291 9.27471 1.38868 18
282 2 -1.68224 7.36533 -4.45928 18
283 2 -5.79581 5.921 -6.97389 9
284 2 -5.44184 4.26804 5.31686 15
285 2 8.51422 -7.63386 -6.88191 12
286 2 -7.73157 3.80356 -8.35068 8
287 2 -1.18119 2.87572 -10.9652 13
288 2 8.44591 -4.35545 7.5897 7
289 2 -5.84006 -1.09915 6.93384 13
290 2 -6.39627 -1.05473 4.3315 17
291 2 8.40221 -4.97905 4.759 14
292 2 -8.38695 1.22686 -2.3085 17
293 2 -3.6874 -1.43938 8.60073 10
294 2 1.25051 -8.93092 2.1506 15
295 2 11.4193 1.30945 1.62401 13
296 2 4.01926 -9.74285 -2.2634 13
297 2 -3.30927 9.76128 0.434733 13
298 2 -3.85861 1.03665 -10.61 14
299 2 -5.04373 -4.00047 5.73511 16
300 2 5.70164 -5.12702 6.76616 16
301 2 5.85195 3.7095 -8.05458 13
302 2 9.47044 2.6761 3.02204 14
303 2 11.7242 -1.40909 3.1665 11
304 2 9.41789 -3.61089 -2.9306 13
305 2 6.56167 -8.57686 -0.207299 16
306 2 9.36867 4.24512 -6.46276 11
307 2 -9.29456 -4.6396 -0.840207 12
308 2 -9.27912 -0.549723 -4.11128 12
309 2 4.98906 -7.32915 2.18769 19
310 2 3.56635 8.08399 -4.51559 15
311 2 9.34255 -0.427067 -2.05032 17
312 2 9.27182 7.37614 -6.02923 6
313 2 7.54302 -2.03901 -1.17069 21
314 2 3.69142 -9.03179 -5.09596 13
315 2 -4.34769 -6.74123 -6.72309 13
316 2 3.85076 11.0824 -0.893968 14
317 2 2.05656 11.3476 1.21774 13
318 2 -2.27046 -9.27214 0.655049 18
319 2 0.114429 -2.31224 8.23286 15
320 2 10.5575 2.1466 -1.41882 11
321 2 7.38056 1.25351 -6.52248 16
322 2 -3.95272 3.244 -8.57311 15
323 2 -7.15685 -8.60373 -5.67052 10
324 2 5.42271 -7.19904 -3.30242 19
325 1 -5.5574 -1.03878 -3.90479 24
326 1 -6.53079 -3.34549 -2.21768 20
327 1 0.247619 -6.40195 -3.92362 19
328 1 0.856456 -0.780906 -6.75708 19
329 1 -2.71017 -1.23415 -5.47281 21
330 1 -0.555692 -3.55886 -5.70848 16
331 1 -3.40181 -4.21054 -3.93162 22
332 1 0.375424 -1.14278 -3.71006 19
333 1 -2.65902 -1.64692 -2.12991 22
334 1 -0.545373 -3.45469 -2.21778 20
335 2 -5.34368 -4.09395 -3.60944 19
336 2 -6.52831 -1.3139 -2.07774 21
337 2 -0.386865 -7.23546 -2.11989 18
338 2 -0.146576 -1.55748 -8.24059 20
339 2 -3.22705 -0.661853 -7.20887 20
340 2 0.463643 -4.21667 -7.26052 18
341 2 -2.8226 -3.57971 -5.71036 18
342 2 -0.432981 -1.38232 -5.32492 20
343 2 -3.48656 -1.0718 -3.79314 19
344 2 0.0999623 -4.34409 -4.05092 20
345 2 -2.42715 -3.62219 -2.07917 18
346 2 -0.588936 -1.21954 -2.14738 21
347 1 -5.59184 -0.691347 -0.367695 21
348 1 -5.91035 -3.94202 0.974284 21
349 1 -5.27608 -1.38393 2.95023 20
350 1 0.956013 -7.54131 -0.793535 21
351 1 0.231677 -7.10048 2.32899 19
352 1 -3.06296 -4.46998 -0.571007 19
353 1 0.71342 -1.23202 -0.592664 22
354 1 -2.32437 -1.57439 0.988569 22
355 1 -0.417027 -4.44905 1.04747 23
356 1 -3.31083 -4.28145 2.73435 21
357 1 0.49106 -1.69541 2.85072 22
358 1 -2.49273 -2.09774 4.44639 19
359 1 -0.334372 -4.18873 4.7012 18
360 1 0.734647 -1.35959 6.37025 21
361 2 -5.60977 -4.54635 -0.761128 19
362 2 -6.19959 -1.99223 0.916939 20
363 2 -3.38049 -6.31508 -0.723158 22
364 2 -0.32887 -6.48348 0.601196 20
365 2 -3.63471 -0.746974 -0.678929 20
366 2 0.323162 -3.66913 -0.464369 22
367 2 -2.29905 -4.23133 1.22716 21
368 2 -0.44323 -1.36538 1.08836 22
369 2 -3.24047 -1.55835 2.66094 20
370 2 0.615991 -3.83109 2.88424 20
371 2 -2.38241 -4.18506 4.48444 19
372 2 -0.461537 -2.20319 4.81643 17
373 2 -3.6123 -1.10871 5.54782 21
374 1 -5.81501 2.17796 -5.11469 19
375 1 -5.45154 5.16056 -2.79485 19
376 1 -6.38721 2.19812 -1.95138 23
377 1 0.459117 1.87814 -8.22236 24
378 1 -3.2643 1.57073 -7.10537 19
379 1 1.7719 4.6544 -5.8825 20
380 1 -2.89202 3.76893 -4.80617 21
381 1 -0.515567 1.97732 -5.03019 21
382 1 -3.551 1.07676 -3.51503 22
383 1 0.408672 4.0584 -3.3862 20
384 1 -2.46879 3.66376 -1.77309 22
385 1 -0.728565 0.843351 -2.05377 21
386 1 -3.02969 6.83662 -3.13759 19
387 1 -0.101164 6.96041 -1.67248 20
388 2 -5.52466 1.16633 -3.3554 20
389 2 -6.59175 3.61048 -3.46279 20
390 2 0.704928 1.37691 -6.35959 20
391 2 -3.83196 2.06545 -5.25975 19
392 2 -1.036 3.94526 -4.84179 19
393 2 -3.43831 4.35056 -3.1128 24
394 2 0.174803 1.51056 -3.3599 20
395 2 -2.49754 1.62594 -1.9908 23
396 2 -0.451963 4.88629 -1.81607 19
397 2 1.75177 7.22382 -2.24475 18
398 2 -2.25668 7.3435 -1.45134 20
399 1 -5.40214 3.8691 0.0850467 20
400 1 -6.44323 1.67508 1.63462 21
401 1 -3.33557 1.18111 -0.294029 19
402 1 0.26169 4.73005 -0.077631 23
403 1 -2.54207 3.38659 1.50433 21
404 1 -0.0733326 1.49409 1.09806 21
405 1 -3.20462 0.798781 3.00029 21
406 1 0.776122 3.68829 3.00869 22
407 1 -2.03594 3.51315 5.09627 22
408 1 -0.360741 1.5601 4.70391 20
409 1 -2.82139 0.493084 6.52809 19
410 1 -3.47873 6.32862 0.00968138 20
411 1 0.372826 7.46711 1.87632 23
412 2 -5.60687 1.65807 -0.434804 21
413 2 -5.85901 3.45363 2.00018 20
414 2 -4.93048 0.823603 2.48081 23
415 2 -3.42221 4.21684 -0.0821976 20
416 2 0.702179 1.01594 -0.68317 20
417 2 -2.0697 1.6794 1.02316 20
418 2 -0.50587 3.73524 1.49057 22
419 2 -2.98349 4.44861 3.58654 22
420 2 0.689817 1.69315 2.98892 22
421 2 -2.39132 1.57685 4.63653 20
422 2 -0.211255 3.92717 4.71757 19
423 2 0.417689 0.467653 6.19531 21
424 2 0.312375 6.52034 0.252688 22
425 2 -2.68718 7.01051 1.82517 23
426 2 2.70029 8.47295 1.63084 20
427 1 3.78228 -7.38047 -2.82073 21
428 1 2.59014 -3.56036 -7.30185 21
429 1 3.61224 -1.49803 -4.94473 21
430 1 5.4945 -3.54273 -5.56829 22
431 1 2.37241 -4.57508 -4.2035 20
432 1 6.54561 -1.55507 -3.13447 22
433 1 3.09785 -1.87094 -2.04644 20
434 1 4.77357 -4.14041 -2.38071 21
435 2 2.52143 -6.47894 -4.20261 20
436 2 2.79008 -1.0577 -6.98636 23
437 2 3.4685 -3.58205 -5.49058 20
438 2 5.17302 -0.47816 -5.41279 21
439 2 2.36311 -0.781622 -3.67929 23
440 2 6.11049 -4.48253 -3.61618 21
441 2 2.81461 -4.11504 -2.39853 21
442 2 4.94753 -2.01069 -2.12813 22
443 2 7.64049 -1.7042 -4.9224 19
444 1 2.17008 -4.14016 -0.432267 20
445 1 5.92041 -1.39327 -0.325638 21
446 1 3.38965 -1.10623 1.44016 21
447 1 4.70066 -3.5818 1.72702 20
448 1 2.22327 -4.57841 2.59918 23
449 1 6.39083 -0.626705 2.85108 20
450 1 3.28935 -1.86843 4.47662 21
451 1 7.52394 -3.44512 3.55918 20
452 2 2.95303 -7.45608 -1.05163 22
453 2 1.55966 -6.34967 3.63794 21
454 2 2.67185 -2.0402 -0.249239 20
455 2 5.61431 -4.95967 -0.706632 21
456 2 3.51086 -4.93608 0.980526 19
457 2 5.32857 -1.7685 1.61504 20
458 2 2.15552 -0.983842 3.01873 22
459 2 3.83319 -3.50589 3.72901 18
460 2 6.96539 -1.62594 4.37231 21
461 2 2.7721 -1.24727 6.24759 20
462 2 8.36976 -0.670771 2.47175 23
463 1 2.65663 1.15221 -6.61388 22
464 1 4.0669 3.85709 -4.2254 19
465 1 5.47663 1.29756 -4.78439 23
466 1 2.33986 1.29785 -3.38017 19
467 1 7.20996 3.54623 -3.13484 19
468 1 5.07532 5.08377 -0.959931 21
469 1 5.33681 1.60745 -1.96863 21
470 1 2.62169 5.504 -2.32244 21
471 1 8.46435 0.238654 -4.26558 18
472 2 3.82745 5.25071 -6.1227 22
473 2 3.51801 1.91658 -4.86781 21
474 2 6.12058 3.02727 -4.97502 20
475 2 2.12966 4.52655 -3.88324 20
476 2 6.68551 0.661976 -3.24079 21
477 2 3.39817 1.91077 -1.98904 22
478 2 6.03552 3.46594 -1.81189 18
479 2 4.42123 5.4629 -2.73992 19
480 1 2.36356 2.21118 -0.208233 20
481 1 7.54519 3.535 -0.175978 20
482 1 3.37222 5.08042 1.20577 19
483 1 5.1895 1.60953 1.05118 20
484 1 2.47753 0.784249 3.05725 18
485 1 5.78593 4.68473 2.64224 22
486 1 3.32363 3.63325 4.58353 21
487 1 5.45622 1.7157 4.6027 17
488 1 2.64524 0.700713 6.21763 20
489 1 2.15897 7.85125 -0.22834 21
490 1 2.79672 6.81581 3.23839 23
491 1 8.06475 0.407489 -0.828654 21
492 2 2.17412 4.29019 -0.0115823 22
493 2 6.09222 0.644319 -0.279827 21
494 2 3.34317 0.958485 1.32136 21
495 2 5.39937 3.93919 0.731645 23
496 2 2.51794 4.92829 3.02904 23
497 2 6.29822 1.69175 2.59678 22
498 2 3.45194 1.49553 4.67322 19
499 2 5.2859 3.62848 4.52495 18
500 2 3.67911 6.65107 -0.143338 20
