ITEM: TIMESTEP
90000
ITEM: NUMBER OF ATOMS
500
ITEM: BOX BOUNDS pp pp pp
-30.0 30.0
-30.0 30.0
-30.0 30.0
ITEM: ATOMS id type x y z Coordination
1 1 -28.5185 3.87663 -20.1427 11
2 1 23.0042 13.0504 -13.7325 11
3 1 22.409 9.25847 29.0327 21
4 1 13.1282 11.0488 -27.2415 16
5 1 24.8647 7.06826 28.2165 16
6 1 29.7946 3.40695 -27.151 11
7 1 28.2931 12.7445 -17.4328 15
8 1 25.1986 15.8075 -14.7913 10
9 1 13.2623 7.83653 -25.3415 17
10 1 -29.8968 8.99972 -26.2616 17
11 1 27.6161 9.84973 -15.729 12
12 1 16.9506 2.56786 -17.483 10
13 1 16.0263 4.41397 25.0889 12
14 1 26.1872 3.4117 28.3723 13
15 1 -29.0335 3.336 -23.6259 10
16 1 19.7808 17.216 -25.6453 15
17 1 24.9764 15.3424 -28.2288 20
18 1 17.1832 2.88403 27.4356 14
19 1 19.7713 12.9641 -12.6139 8
20 1 20.9907 10.938 -22.0487 22
21 1 29.3273 16.9955 28.9567 10
22 1 28.4284 17.452 -20.1937 13
23 1 23.9036 15.6176 27.8849 16
24 1 15.4157 10.7807 26.8674 11
25 1 20.9371 15.3391 27.4762 17
26 1 13.6121 13.4534 -25.1313 15
27 1 18.6765 15.8626 -20.2921 14
28 1 15.7556 13.2064 28.7649 15
29 1 13.3212 2.52189 -21.8355 10
30 1 20.1196 3.77632 27.0933 16
31 1 12.2925 5.77107 29.4155 12
32 1 21.6987 -0.249854 -22.884 13
33 1 26.293 17.6933 28.9851 13
34 1 18.0678 5.5764 28.2849 19
35 1 20.9989 11.943 24.8107 13
36 1 20.7324 19.0925 -28.7613 14
37 1 11.6015 8.06615 -18.9883 8
38 1 23.5288 17.1362 -17.644 14
39 1 25.7402 8.02361 -16.2487 14
40 1 24.5332 -0.630104 -27.7044 12
41 1 -29.3214 7.66334 28.6032 9
42 1 28.519 6.5984 -17.7338 16
43 1 27.8846 4.51693 -19.9056 19
44 1 28.8554 17.9634 -24.5463 15
45 1 16.7326 2.29052 -24.1459 19
46 1 18.6704 0.145125 -24.3757 16
47 1 18.5752 5.19774 -20.3312 20
48 1 14.7025 7.56987 -18.0918 14
49 1 24.2123 0.105771 -24.392 16
50 1 11.5581 7.69373 -22.6391 10
51 1 19.3529 12.9642 -27.7814 23
52 1 19.3604 13.5564 -17.9776 17
53 1 21.6887 14.6161 -21.0555 19
54 1 16.4997 2.94641 -27.9162 21
55 1 17.7567 16.7354 27.8683 10
56 1 14.8366 5.38306 27.7984 18
57 1 -28.3146 7.92518 -23.3744 11
58 1 23.1201 5.98338 -15.7175 14
59 1 14.2717 7.42755 25.4239 9
60 1 13.7369 8.1889 -28.5085 18
61 1 19.4042 3.06312 -22.683 18
62 1 16.0234 13.4863 -20.0509 14
63 1 21.9083 -0.0226468 -29.6648 10
64 1 20.1865 17.6502 -21.9431 15
65 1 14.5076 11.058 29.9483 18
66 1 16.6271 15.4997 -25.5636 16
67 1 22.4346 8.25255 -27.0769 19
68 1 29.7233 1.49116 -21.1361 13
69 1 16.5333 12.6251 -25.2252 22
70 1 16.9057 5.83072 -16.1642 13
71 1 15.8641 11.52 -22.1206 21
72 1 14.0321 2.51349 27.9659 11
73 1 22.5385 3.16227 -17.8208 13
74 1 24.5791 1.98514 -29.2623 17
75 1 28.0359 8.80997 27.3574 15
76 1 28.6695 2.64023 -18.2681 10
77 1 15.5285 0.675315 -26.6616 13
78 1 15.9431 4.58409 -19.2474 17
79 1 -28.4391 13.4092 -23.0564 14
80 1 -27.7675 17.3985 -25.5705 5
81 1 22.1523 9.60545 26.053 14
82 1 22.6469 15.5862 24.5765 5
83 1 23.2299 20.4481 -26.3974 10
84 1 28.0199 11.7007 27.3769 14
85 1 25.4133 2.56484 -19.6515 17
86 1 26.7054 4.88183 -29.2795 19
87 1 21.4685 -0.342701 -26.3543 13
88 1 16.2736 15.8174 -29.493 14
89 1 28.5296 12.8595 -24.2517 21
90 1 18.9396 14.1519 29.1585 18
91 1 29.5504 4.00524 29.8209 13
92 1 13.5956 6.25427 -21.0583 18
93 1 18.925 1.02925 -27.8888 17
94 1 19.4776 1.65564 28.7901 12
95 1 25.111 2.73011 -22.5451 23
96 1 15.9216 0.542673 29.7555 11
97 1 21.7131 9.41755 -14.6162 15
98 1 18.2378 10.3973 -14.3127 13
99 1 27.1174 1.92034 -28.4333 13
100 1 26.6283 19.5505 -25.502 15
101 1 -29.3026 6.61988 -28.4734 11
102 1 17.1324 8.03479 25.6981 15
103 1 17.621 10.5024 -19.9592 20
104 1 25.231 5.1058 -18.1577 17
105 1 13.069 8.51195 28.1017 12
106 1 27.1957 -0.308142 -25.7651 11
107 1 25.7032 13.1862 -15.6911 15
108 1 24.3838 -0.455313 -21.1088 11
109 1 29.4923 12.5844 -20.7067 18
110 1 -29.1981 14.9211 -19.6136 9
111 1 26.7221 16.2429 -16.9843 12
112 1 19.1866 14.9134 25.0828 9
113 1 19.7914 2.6362 -25.9353 19
114 1 21.5365 18.9951 -23.9144 13
115 1 27.8193 16.8751 -28.0303 18
116 1 21.4597 12.1949 -15.644 20
117 1 21.6546 6.86267 27.1547 16
118 1 26.7816 19.6483 -22.0593 12
119 1 19.1962 8.4681 27.723 18
120 1 27.2844 0.240934 -19.5381 10
121 1 17.3291 11.9113 -17.5968 14
122 1 -27.4431 10.8232 -24.8686 12
123 1 27.0324 15.7659 26.6429 9
124 1 -29.8099 11.4082 29.847 15
125 1 19.6643 7.51913 -15.5052 18
126 1 20.0726 4.63829 -17.2253 17
127 1 17.7001 17.4392 -23.0977 12
128 1 22.6073 17.2924 -27.0102 20
129 1 14.8276 10.4538 -19.3081 14
130 1 -28.7017 7.40957 -19.3137 11
131 1 15.6484 -0.0696434 -22.9342 11
132 1 -26.5253 13.8882 -25.7031 8
133 1 28.0509 2.52138 -24.569 18
134 1 22.8621 18.524 -20.2137 12
135 1 12.6798 5.30313 -27.0898 15
136 1 25.763 9.30846 25.6576 9
137 1 16.3484 8.01692 29.6935 20
138 1 28.2116 5.55739 27.2371 11
139 1 19.6117 3.97509 -29.4353 20
140 1 28.1657 8.11263 -24.0316 21
141 1 12.1231 4.63682 -24.3049 13
142 1 18.2099 11.7967 26.3507 16
143 1 13.562 2.67317 -28.7738 17
144 1 28.5274 9.2231 -18.2072 14
145 1 18.8328 5.70522 25.1407 13
146 1 16.28 14.2253 -22.8861 18
147 1 17.0003 8.8954 -17.3287 20
148 1 25.8947 18.1162 -19.473 15
149 1 -27.8037 11.4513 -27.7851 10
150 1 19.758 2.28142 -19.05 16
151 1 26.1637 13.5053 28.9697 16
152 1 29.7337 14.3874 28.1045 12
153 1 26.597 15.7018 -23.0436 20
154 1 24.874 18.9934 -27.8674 13
155 1 -29.7896 15.2141 -25.4659 18
156 1 29.7936 5.79345 -25.4581 16
157 1 22.7442 14.2634 -17.304 19
158 1 23.181 18.2062 29.4175 14
159 1 18.7981 -0.108947 -21.1391 9
160 1 27.3035 -0.0351333 -22.6556 13
161 1 13.6014 2.40178 -25.244 16
162 1 17.4374 18.6964 -29.7583 9
163 2 12.0552 9.47281 -22.5585 13
164 2 29.6375 16.1909 -20.4647 12
165 2 14.0282 13.4399 29.8324 13
166 2 19.0232 1.63988 -20.5481 15
167 2 22.741 11.2223 -14.6445 15
168 2 20.1386 15.7101 -21.7104 17
169 2 24.2513 2.98661 28.5501 12
170 2 16.5714 11.7139 -29.8852 20
171 2 20.9616 8.73146 27.6256 19
172 2 23.4018 14.2908 -19.5336 20
173 2 -29.0579 5.28407 -23.1873 14
174 2 27.4222 11.7143 -20.9961 20
175 2 21.9938 16.0074 -17.1228 12
176 2 24.8133 17.29 -20.9114 18
177 2 25.0644 20.4936 -26.4093 11
178 2 -29.511 5.90374 29.7003 11
179 2 13.4996 12.9071 -26.8721 15
180 2 21.5604 2.28592 -19.2099 14
181 2 13.0384 12.3223 -23.699 16
182 2 -29.4643 5.29401 -27.0411 15
183 2 16.643 0.349322 -24.5564 12
184 2 21.5062 10.0744 -16.8457 20
185 2 24.8614 6.28713 -16.5495 12
186 2 16.877 3.8474 -20.7786 23
187 2 22.4817 -0.428865 -24.7565 13
188 2 12.5816 3.09135 -23.4701 11
189 2 19.5818 0.41982 -26.0952 15
190 2 18.9286 3.78998 28.8163 16
191 2 18.1645 17.3876 -21.2288 10
192 2 27.2538 17.9882 -26.4373 16
193 2 25.6148 16.3352 27.7955 13
194 2 -27.0355 12.8774 -24.0561 10
195 2 22.8919 20.0937 -24.5397 12
196 2 19.584 15.5937 -18.179 12
197 2 21.0626 13.943 28.6682 17
198 2 27.2947 13.9121 27.5248 14
199 2 17.9472 13.4058 -16.6409 13
200 2 24.3653 9.2904 -17.0229 19
201 2 28.2549 3.91259 28.1978 9
202 2 23.4567 0.834786 29.7199 14
203 2 13.0814 4.61464 -28.8121 18
204 2 -29.0591 3.05582 -21.8791 11
205 2 23.2297 13.7777 -25.0887 20
206 2 21.368 9.97094 24.3368 10
207 2 22.9914 6.10643 28.2124 13
208 2 15.377 3.52194 27.2035 14
209 2 18.0882 7.00273 27.2457 20
210 2 26.5114 2.9132 -29.9157 15
211 2 26.1158 8.36976 27.2674 15
212 2 17.0428 0.896397 -28.0295 15
213 2 24.7995 10.713 -28.7972 20
214 2 16.6026 0.221923 -21.3522 11
215 2 19.0479 19.6713 -29.2534 8
216 2 15.9361 1.63462 -18.7419 10
217 2 13.4338 4.28376 -25.7794 16
218 2 27.2723 2.37351 -19.3859 15
219 2 24.1466 18.6115 -18.5185 12
220 2 19.8658 9.80944 -14.1855 13
221 2 14.0942 10.982 -21.0361 16
222 2 13.1338 4.05535 28.7374 11
223 2 -26.7443 12.5303 -26.9297 8
224 2 12.1583 6.58557 -23.9287 16
225 2 19.0249 15.8707 26.7957 11
226 2 24.1644 10.2293 26.2412 14
227 2 15.3369 14.2942 -24.7791 17
228 2 25.7553 0.512545 -28.5031 12
229 2 22.6239 -0.296808 -27.8241 13
230 2 18.5278 15.8526 -26.108 18
231 2 25.1763 -0.314292 -22.7567 15
232 2 24.5255 14.1545 -14.1913 12
233 2 20.5393 17.5244 -27.7143 15
234 2 22.1981 4.98429 -17.2747 16
235 2 20.7872 15.5016 24.0875 7
236 2 29.5594 7.671 -18.5399 13
237 2 27.7491 19.2819 -23.9116 13
238 2 27.0682 16.4205 -18.7954 16
239 2 13.8085 4.47909 -21.5225 14
240 2 26.4885 11.3058 -15.706 16
241 2 28.2378 6.08196 -21.3614 20
242 2 21.9325 11.7089 26.6645 18
243 2 24.0997 12.9681 -16.9186 21
244 2 26.9855 3.20582 -22.8063 22
245 2 14.3233 9.97337 28.4149 14
246 2 17.5223 17.1627 -28.7729 15
247 2 15.6946 14.4647 -28.1013 19
248 2 15.4865 2.14118 -22.6832 16
249 2 27.3501 18.8039 -20.5882 11
250 2 13.7235 6.81943 27.4066 12
251 2 -27.3991 9.79847 -22.9798 9
252 2 17.0061 15.7547 -23.5714 16
253 2 28.0258 6.03542 -24.5075 20
254 2 18.8189 3.12118 -17.5101 16
255 2 14.4742 1.81395 29.5885 12
256 2 22.8363 19.2516 -27.8444 12
257 2 17.6858 14.1558 -21.0627 18
258 2 24.3489 3.34455 -18.1129 14
259 2 18.3442 12.8525 -23.9311 22
260 2 21.3641 13.1139 -13.7724 10
261 2 18.8833 9.96205 25.9243 18
262 2 28.3425 16.5731 -23.282 17
263 2 17.8442 10.7067 -16.1605 18
264 2 18.5881 7.42256 24.4757 12
265 2 20.0547 0.880855 -29.4779 17
266 2 26.721 14.8746 -15.8806 12
267 2 -28.8574 10.6507 -26.3966 13
268 2 25.4996 0.564328 -20.1642 12
269 2 16.4383 9.15399 -19.3383 21
270 2 12.7893 7.1967 -27.111 16
271 2 16.2125 11.8584 -19.131 15
272 2 15.0739 6.35944 -19.5484 19
273 2 18.7838 3.48557 -27.4338 19
274 2 22.6864 15.5413 26.3033 11
275 2 24.9123 17.0459 -27.7558 20
276 2 28.8327 7.19814 27.5546 11
277 2 -29.9621 11.0667 -21.8161 15
278 2 27.8099 7.99563 -16.6454 13
279 2 28.8852 16.2557 27.3831 8
280 2 17.8346 4.12755 26.0524 14
281 2 21.3427 17.8062 -19.5775 13
282 2 28.0163 17.2075 -29.8105 14
283 2 18.3271 18.3672 28.5481 10
284 2 14.8334 13.529 -21.6268 13
285 2 29.8103 3.40889 -25.122 14
286 2 16.3595 12.3487 27.1275 14
287 2 19.48 13.0777 25.1948 13
288 2 -29.8483 2.4573 -19.5781 10
289 2 13.3045 8.77288 -18.6004 12
290 2 14.7814 7.71867 -22.3824 21
291 2 -28.1906 5.66198 -19.6864 11
292 2 12.934 10.0634 -25.6364 15
293 2 18.8868 5.89816 -16.1223 12
294 2 22.9992 0.578257 -21.8044 15
295 2 -27.2157 15.5281 -25.6008 8
296 2 25.2641 -0.62378 -25.8672 12
297 2 17.8121 13.0847 -26.6097 19
298 2 15.3322 9.13411 25.8617 12
299 2 16.4641 4.5326 -17.5446 14
300 2 28.5926 4.81077 -18.16 14
301 2 -29.8152 15.3944 29.7046 11
302 2 -29.006 13.7969 -21.3063 11
303 2 -29.1591 8.12895 -21.6607 15
304 2 -29.7315 8.20579 -24.6979 18
305 2 27.7387 0.792349 -24.1975 14
306 2 29.5497 12.3319 28.3588 13
307 2 15.6553 2.34191 -25.7162 19
308 2 14.3482 10.054 -28.5548 18
309 2 28.3801 0.269257 -21.4167 12
310 2 22.728 16.2552 29.4275 18
311 2 29.6068 8.07103 -27.9188 16
312 2 29.7401 14.2876 -23.9445 19
313 2 27.8233 10.872 -23.9867 20
314 2 21.2478 2.34119 27.8484 13
315 2 17.4859 1.43091 28.6504 15
316 2 25.0783 20.1866 -22.6236 14
317 2 22.3642 18.3366 -22.2398 17
318 2 19.8958 0.223486 -22.6277 13
319 2 21.6366 7.46358 -15.5737 15
320 2 -29.537 16.9883 -24.9366 10
321 2 -29.9047 9.16814 29.4049 13
322 2 17.0484 14.8748 29.0555 15
323 2 13.7359 1.80911 -27.035 13
324 2 28.9432 2.78773 -28.6554 11
325 1 15.2561 5.38633 -29.021 20
326 1 15.428 4.3447 -25.7973 24
327 1 22.288 3.61937 -27.9347 19
328 1 20.9479 12.1958 28.3929 21
329 1 19.5513 8.10006 -28.9851 20
330 1 21.6087 6.21781 -29.0886 19
331 1 18.2633 5.28802 -27.4124 19
332 1 24.8961 8.51482 -29.0742 20
333 1 19.0248 8.2118 -25.2439 19
334 1 21.2858 5.64601 -25.7713 21
335 2 16.3299 5.80336 29.4042 18
336 2 16.2982 4.79464 -27.5472 19
337 2 21.4221 3.50952 -26.1607 22
338 2 15.6873 6.24385 24.892 11
339 2 18.2836 8.75731 29.3039 17
340 2 21.6938 4.47832 -29.7222 21
341 2 19.6209 6.1382 -28.9329 18
342 2 21.3817 8.17616 -28.7506 20
343 2 18.4318 8.31167 -27.366 19
344 2 22.4492 6.3036 -27.2183 19
345 2 19.0937 6.05407 -25.645 21
346 2 21.119 8.4584 -25.4826 21
347 1 16.4355 7.49768 -26.858 21
348 1 15.5326 4.23505 -22.3637 21
349 1 16.4648 7.52398 -20.392 21
350 1 22.5256 3.08154 -24.2786 19
351 1 22.4043 2.40628 -21.0991 20
352 1 17.9759 5.66518 -23.6106 19
353 1 21.8882 8.85618 -23.8329 20
354 1 18.8265 8.63094 -21.9474 19
355 1 21.0468 5.92294 -22.3816 21
356 1 16.4857 1.82215 -20.4817 18
357 1 21.8089 8.71895 -20.3848 18
358 1 19.4512 7.62421 -18.6723 22
359 1 21.7256 5.73174 -19.2351 21
360 1 22.4938 8.47985 -17.1849 20
361 2 16.04 5.36936 -23.8263 19
362 2 11.9126 7.26002 -20.7596 11
363 2 18.5571 2.49504 -24.5123 18
364 2 21.2892 2.87655 -22.7151 18
365 2 18.0382 7.80817 -23.6333 21
366 2 22.1884 5.34312 -23.9347 17
367 2 19.168 4.76447 -22.0657 19
368 2 20.8533 8.89744 -22.2045 19
369 2 18.4125 7.44782 -20.412 21
370 2 22.5009 6.10237 -20.8229 20
371 2 19.8214 5.50341 -19.0542 19
372 2 21.5704 7.70282 -18.7432 21
373 2 16.0978 7.23206 -16.9865 14
374 1 13.6954 14.3469 -28.3539 10
375 1 21.6933 15.0913 -29.6647 16
376 1 12.0526 10.7492 -24.1425 13
377 1 19.8333 9.11653 24.4755 13
378 1 18.0889 10.667 -29.9228 19
379 1 23.8007 12.1032 26.6189 17
380 1 25.7915 16.8933 -25.7246 21
381 1 21.2461 10.4166 -28.5033 20
382 1 16.4914 12.4691 -28.0061 22
383 1 23.9385 12.3808 -29.4908 20
384 1 18.0562 10.3084 -26.7752 22
385 1 21.1273 10.9216 -25.4395 24
386 1 19.8493 19.5998 28.4994 7
387 1 19.117 16.1589 -27.9879 19
388 2 12.5071 7.67645 29.6795 14
389 2 15.5324 7.52008 -28.611 18
390 2 24.4795 12.4861 28.3123 19
391 2 22.0625 11.0457 29.7857 19
392 2 18.9748 12.1591 28.1353 21
393 2 19.5067 14.4608 -29.034 21
394 2 19.3618 10.9719 -28.3761 20
395 2 16.3546 10.93 -26.7675 23
396 2 20.5074 13.2745 -25.9767 19
397 2 25.0269 18.4672 -29.9091 13
398 2 21.4651 18.9219 29.154 10
399 1 13.1377 12.6069 -21.8741 12
400 1 15.9259 7.39768 -23.7972 18
401 1 15.1736 10.0757 -25.3994 20
402 1 22.3813 13.4007 -26.6182 19
403 1 19.1143 13.7587 -22.3891 18
404 1 19.0458 14.2179 -25.0462 21
405 1 13.7195 9.10862 -21.5603 20
406 1 24.3935 15.4756 -20.9824 20
407 1 17.4799 13.5289 -14.8765 7
408 1 21.2707 11.5833 -18.7087 20
409 1 19.6284 10.3765 -17.0432 21
410 1 18.1993 10.929 -23.6631 21
411 1 20.7888 17.0527 -18.0749 12
412 2 15.2841 8.16479 -25.5173 20
413 2 19.1543 11.3484 -18.6408 19
414 2 15.8233 11.107 -23.9842 24
415 2 17.894 10.3786 -21.8815 19
416 2 22.0377 11.1707 -27.0553 20
417 2 19.3003 10.2486 -25.2002 24
418 2 23.0942 15.0026 -22.508 19
419 2 20.9131 12.938 -22.2087 20
420 2 22.392 10.7213 -23.4169 20
421 2 18.8868 8.6055 -17.0485 21
422 2 21.1986 13.0184 -17.3265 17
423 2 18.4573 12.4356 -13.7145 8
424 2 22.0985 17.337 -25.2276 18
425 2 19.684 17.8817 -23.7989 13
426 2 24.8273 16.3397 -16.5108 15
427 1 25.0395 2.90453 -26.1588 22
428 1 22.824 1.53193 28.0696 11
429 1 26.5957 11.6827 -28.9767 19
430 1 23.2673 4.51366 29.1308 19
431 1 24.3789 5.69009 -27.3167 21
432 1 27.5049 7.55222 -27.3072 20
433 1 25.3792 7.83391 -25.6267 21
434 1 26.7618 5.12724 -25.7838 22
435 2 24.1342 3.45408 -28.121 20
436 2 24.1659 8.63372 29.2966 19
437 2 20.5801 5.51086 26.2435 12
438 2 26.2461 5.74034 28.8182 17
439 2 24.394 8.22952 -27.1112 21
440 2 26.4375 5.7833 -27.646 17
441 2 24.7589 5.26732 -25.4631 21
442 2 27.1296 8.8116 -25.516 21
443 2 28.6428 10.8854 -28.6989 19
444 1 24.0277 5.98991 -23.8484 21
445 1 28.3958 10.2454 -22.2965 17
446 1 25.2835 8.17667 -22.3391 21
447 1 27.4566 5.21274 -22.9457 20
448 1 24.4835 5.42335 -21.0225 20
449 1 27.8144 7.7153 -20.4076 21
450 1 24.7852 8.85507 -19.0667 22
451 1 -29.7006 6.26226 -21.5026 18
452 2 24.357 2.3005 -24.61 20
453 2 24.0802 3.27749 -21.0072 21
454 2 24.6112 8.69127 -24.0679 21
455 2 26.8238 3.33271 -26.5735 20
456 2 25.5018 6.12916 -22.6143 21
457 2 27.2601 8.5473 -22.0902 22
458 2 24.0818 8.85549 -20.9677 22
459 2 26.1543 5.51959 -19.9607 21
460 2 28.489 10.748 -17.2274 11
461 2 21.8222 10.7585 -20.1996 20
462 2 29.4652 13.745 -19.0238 13
463 1 25.7237 10.066 28.6532 20
464 1 25.3421 13.4322 -24.9949 21
465 1 27.4565 14.1565 -27.0646 21
466 1 23.9924 10.4384 -26.9843 22
467 1 29.9547 14.5791 -28.6425 15
468 1 29.7976 15.5634 -22.3481 17
469 1 27.0334 10.8504 -25.7713 21
470 1 22.8776 15.9618 -24.1727 20
471 1 28.6309 8.93617 -29.3217 17
472 2 27.2201 10.2913 26.6613 12
473 2 26.7833 8.30831 -28.9199 21
474 2 27.211 11.3538 29.2339 18
475 2 22.9233 14.3678 -28.3975 16
476 2 28.9737 15.3532 -27.1074 16
477 2 25.0486 11.4869 -25.6825 22
478 2 25.6218 13.9729 -29.2772 16
479 2 -29.4177 12.713 -28.5982 13
480 1 24.2799 10.594 -23.7797 20
481 1 29.4339 11.7424 -27.2467 18
482 1 22.8178 13.1546 -23.2378 20
483 1 26.1685 12.8397 -22.0497 20
484 1 23.9214 10.9972 -20.9177 21
485 1 27.5394 14.6418 -19.361 19
486 1 24.6802 13.2351 -18.7518 21
487 1 26.8245 11.1639 -19.1952 22
488 1 23.9399 11.0076 -16.3615 19
489 1 24.1547 21.4573 -23.6519 9
490 1 24.4178 17.8572 -22.7114 20
491 1 -28.4678 10.002 -21.2807 11
492 2 25.8782 14.9112 -26.3859 19
493 2 28.0583 12.4379 -26.1782 18
494 2 24.4987 12.1622 -22.4715 23
495 2 26.8909 13.8066 -23.745 20
496 2 26.2685 14.7858 -21.2271 21
497 2 26.8664 9.01333 -19.0997 20
498 2 25.096 11.2194 -19.3138 17
499 2 26.6994 13.3106 -18.2594 19
500 2 25.1579 16.6248 -23.9956 22
