ITEM: TIMESTEP
5000
ITEM: NUMBER OF ATOMS
1000
ITEM: BOX BOUNDS pp pp pp
-30.0 30.0
-30.0 30.0
-30.0 30.0
ITEM: ATOMS id type x y z Coordination
1 1 -6.11849 -9.16237 -10.0792 10
2 1 2.80211 -9.59165 9.30925 15
3 1 -10.0609 11.3471 -3.65257 6
4 1 -9.84847 1.42317 -11.1373 13
5 1 -4.98433 -9.56743 11.0302 14
6 1 -6.40199 -3.37837 -8.94698 22
7 1 -3.57883 -13.5829 4.1655 12
8 1 10.6622 -2.04826 5.14319 11
9 1 -1.80951 4.0094 10.0495 18
10 1 11.6728 0.409081 2.73217 8
11 1 -4.70552 7.84121 -9.58988 15
12 1 -0.766583 0.471672 12.3614 18
13 1 -9.12476 0.372935 -0.112787 22
14 1 -3.65996 -2.99177 -8.106 23
15 1 0.739184 0.388807 7.0307 20
16 1 -3.53623 2.97904 13.0032 12
17 1 -2.49085 -12.8773 7.48392 15
18 1 -13.1582 -2.78993 4.99817 11
19 1 -11.8639 2.15225 -1.99409 16
20 1 -3.96862 12.1876 -5.81807 12
21 1 -1.37521 3.63414 -9.77163 24
22 1 0.0838335 -6.21422 -12.9349 12
23 1 -2.49784 -3.47384 12.2466 16
24 1 -11.7635 4.51795 0.366146 14
25 1 -3.29535 14.0711 -1.27026 11
26 1 1.85446 -14.1446 2.11634 10
27 1 6.14373 -5.43268 -6.54676 15
28 1 3.76144 0.491846 5.20755 20
29 1 -3.87853 6.09467 -7.01478 20
30 1 1.49227 5.59614 -3.47762 21
31 1 1.18582 4.27998 8.64588 19
32 1 -13.1714 -1.78137 1.62402 13
33 1 1.21269 -2.21531 12.1766 18
34 1 -9.29681 -2.77959 -1.45138 19
35 1 9.04089 1.0022 5.42473 18
36 1 6.15657 0.113073 -6.51034 17
37 1 3.31895 2.23439 9.33003 16
38 1 -6.67925 -4.39848 -1.09409 19
39 1 -5.8681 -5.72907 -12.001 17
40 1 -3.9699 11.3708 -2.76551 19
41 1 -3.96195 5.08874 -10.2699 19
42 1 5.15065 -1.59172 -9.2833 21
43 1 7.38215 -6.78741 6.08256 15
44 1 0.21975 -11.6976 9.41029 11
45 1 -5.1223 9.27097 7.62328 20
46 1 -7.38238 -6.87778 9.98732 15
47 1 -13.5694 3.63437 6.66335 12
48 1 6.61418 -8.89909 -4.3482 11
49 1 1.73575 1.51973 -14.2257 15
50 1 -1.06828 13.8434 3.60451 10
51 1 -7.46448 7.08078 -4.92243 14
52 1 2.61684 8.51822 1.72976 22
53 1 -7.31144 -10.5138 8.89569 11
54 1 -4.16476 -3.59235 -11.1399 23
55 1 0.599006 -6.29608 -9.89693 15
56 1 -2.5255 5.19925 6.7122 18
57 1 -9.03892 -8.7634 -2.92007 17
58 1 6.09846 -4.89114 3.70631 18
59 1 -10.0545 -9.05382 0.00323973 16
60 1 9.23216 -8.13551 3.75562 15
61 1 -4.03838 6.20045 3.28543 19
62 1 3.61583 7.52551 -7.05282 17
63 1 13.269 -7.94567 -0.256389 8
64 1 -11.192 -8.10379 2.77002 13
65 1 8.83016 6.28323 2.53664 19
66 1 7.36732 8.0009 1.2239 17
67 1 -1.46889 13.1212 -4.5503 12
68 1 -2.96217 -5.94133 -9.88567 17
69 1 -3.17331 9.20303 -5.81352 18
70 1 7.30824 -2.75075 -6.88092 18
71 1 4.8233 2.27849 -13.3181 12
72 1 6.73823 -9.3773 5.22173 16
73 1 -6.57823 2.70927 -9.73845 23
74 1 2.29146 11.2808 -0.060195 17
75 1 11.0995 8.07673 -1.54884 8
76 1 -0.231711 9.77403 0.445298 20
77 1 -8.54776 -7.82553 -11.274 11
78 1 -12.6845 -4.9578 -5.82851 14
79 1 -7.85615 10.8102 9.13696 8
80 1 -1.37963 9.93055 -3.34609 18
81 1 3.06076 -4.51349 12.7632 11
82 1 -11.1697 -5.28327 5.82874 16
83 1 -1.71179 -10.007 2.45291 20
84 1 2.34558 8.44354 -1.88711 21
85 1 7.3997 5.22293 -4.83349 14
86 1 -4.52275 -12.2516 10.0024 11
87 1 -9.07482 3.58957 -1.73975 19
88 1 -0.743161 5.65287 11.8625 15
89 1 -4.70443 -0.340866 -9.50323 24
90 1 -7.8402 -4.48818 5.05224 19
91 1 -7.17513 -10.1488 5.76269 15
92 1 3.19165 -6.67388 1.25689 21
93 1 -7.38177 10.8656 6.08117 16
94 1 -9.87522 0.51066 2.9962 21
95 1 -8.91123 0.369674 -3.11726 20
96 1 1.12289 -10.5122 3.97399 20
97 1 4.6372 2.48294 -3.81282 17
98 1 1.25719 0.180753 14.3694 10
99 1 -3.50227 3.45134 -14.4727 9
100 1 -12.9599 -4.09599 -8.90734 12
101 1 -7.44509 10.1083 -1.86604 14
102 1 4.45198 6.39407 11.9523 11
103 1 -5.92147 9.53957 -7.11132 13
104 1 4.52217 9.54718 -9.58556 9
105 1 -12.7336 3.81205 10.4244 9
106 1 -10.3141 6.61195 10.5296 9
107 1 3.88911 -9.75063 -5.77095 15
108 1 7.88084 -6.06894 -2.14682 17
109 1 4.00132 5.70689 -5.0937 18
110 1 -0.128604 8.45396 3.60086 19
111 1 -12.8355 1.76719 0.639084 14
112 1 -0.204015 3.27607 13.3407 14
113 1 8.16715 -2.6256 -4.2713 16
114 1 1.36146 6.02784 6.22086 21
115 1 -9.4132 9.56415 3.99579 14
116 1 -8.52637 -5.78379 -3.28503 18
117 1 2.06351 -1.09556 9.05161 19
118 1 1.69705 -7.8458 -1.00127 22
119 1 -2.65069 -0.371439 -11.5065 18
120 1 6.44382 0.380896 -11.0044 15
121 1 -11.8382 0.287295 5.98478 14
122 1 -8.99259 -9.03033 -8.09699 12
123 1 -7.37403 -4.54295 1.7556 22
124 1 -4.64207 -7.97216 2.92758 23
125 1 -10.4024 -4.18764 -10.2989 13
126 1 -12.2726 1.11231 -7.23183 13
127 1 6.03241 0.986719 10.2664 11
128 1 4.10057 -2.28494 7.13414 21
129 1 0.822862 -4.3648 7.41643 25
130 1 4.9928 9.11213 -0.572569 18
131 1 -9.56674 -11.2906 3.21407 9
132 1 1.83736 11.6308 3.50577 18
133 1 -4.36195 -5.64765 -6.41861 23
134 1 -5.31588 -11.2201 -7.6136 13
135 1 -2.75782 -12.0771 0.652343 14
136 1 10.3813 3.97853 5.41219 13
137 1 -1.64866 -4.92701 -7.9106 18
138 1 -9.88603 -1.63169 10.104 12
139 1 -0.996997 -10.1489 -0.655683 18
140 1 1.55511 -10.9563 0.50566 18
141 1 2.40423 -12.7196 -1.10291 11
142 1 -9.70956 3.01867 -7.66422 19
143 1 4.79782 9.72746 2.69271 16
144 1 -8.26311 -0.699277 -9.56086 22
145 1 -1.99499 9.37322 -11.2096 10
146 1 -2.42795 -4.40783 8.69073 20
147 1 0.685513 10.9223 9.43938 11
148 1 7.32754 4.13922 4.35931 20
149 1 -10.5081 4.04758 8.40353 17
150 1 -4.51613 -6.81688 9.24846 18
151 1 -8.70149 7.19191 7.19585 18
152 1 -1.35775 -3.18877 -13.286 15
153 1 4.93863 -12.8178 2.64045 10
154 1 5.18416 -2.64968 -12.3044 15
155 1 -10.2598 2.82423 5.22328 19
156 1 10.1711 -8.86545 0.633681 17
157 1 -5.71425 9.16409 4.01898 16
158 1 -9.57435 5.59821 4.76239 18
159 1 0.820777 -11.6086 6.84401 14
160 1 -0.669229 6.7731 8.70124 20
161 1 -9.50123 -0.315688 -5.81396 20
162 1 -3.46564 14.0763 4.92687 11
163 1 -6.16049 1.40599 -4.93212 22
164 1 -12.6172 4.71439 3.1807 14
165 1 -10.5972 -5.93942 -7.87932 17
166 1 -2.85152 9.05395 2.15993 19
167 1 6.35399 -4.44344 8.30706 16
168 1 3.38801 -4.19339 9.2698 24
169 1 -5.20272 -3.97097 10.5143 18
170 1 3.3993 -13.071 -4.43023 10
171 1 -6.06568 -6.23711 -9.22486 19
172 1 -13.4355 -2.81482 -3.13071 12
173 1 -4.14464 -8.40459 -0.675558 20
174 1 9.46405 3.20189 -6.24162 13
175 1 -9.33547 4.67836 -10.9455 11
176 1 -11.7078 7.54813 5.39973 12
177 1 -9.71361 9.39069 -0.152028 13
178 1 -5.53675 5.82591 8.07769 18
179 1 7.64619 -7.4147 -8.84794 10
180 1 6.10559 -3.38328 -2.80461 18
181 1 -2.8429 5.97112 0.0761704 15
182 1 -1.26957 -8.01583 -6.05536 24
183 1 -2.32845 7.84768 5.67189 21
184 1 -11.5181 3.2224 -4.82856 12
185 1 7.03692 -10.1558 2.04512 17
186 1 6.7053 -0.752441 7.36267 16
187 1 -7.93352 -4.68418 -6.66328 16
188 1 -5.20105 -11.2355 3.5252 16
189 1 -6.71837 12.7424 -3.5556 8
190 1 -9.81178 7.87289 -3.19082 10
191 1 -4.11692 -8.52887 -7.96207 17
192 1 4.11356 -10.2278 6.44143 14
193 1 -9.05344 -11.4712 -0.548457 10
194 1 -9.76918 6.00632 -6.33479 11
195 1 -0.564803 -14.5646 5.02484 11
196 1 -5.46368 0.742781 6.80589 17
197 1 -6.14271 5.99394 5.3366 20
198 1 0.877267 -5.87626 -6.20926 19
199 1 -3.91866 -0.351234 11.5965 16
200 1 -12.6419 1.97165 3.55857 16
201 1 -5.24266 -4.48157 7.10154 23
202 1 -8.43843 -4.04983 11.2816 9
203 1 4.46397 -7.48106 -2.71377 21
204 1 8.59431 -12.1764 0.0187879 9
205 1 -0.465066 10.4706 -6.11671 18
206 1 -6.91531 -7.14525 4.00101 19
207 1 5.91365 -8.04397 8.65573 12
208 1 6.73903 0.644846 0.438359 21
209 1 0.539037 1.70704 -11.0744 19
210 1 10.017 -5.18215 4.21418 13
211 1 -7.1393 3.43255 12.9984 10
212 1 -1.78416 10.9202 3.75376 21
213 1 3.5715 -7.40913 11.3222 13
214 1 -0.805142 -9.55565 -3.38525 19
215 1 1.30639 6.66652 13.2855 12
216 1 -8.05357 0.839496 8.65138 17
217 1 -4.092 -8.9547 -4.58799 19
218 1 -9.87623 -7.36116 -5.68738 16
219 1 -10.5378 10.3926 6.54603 10
220 1 -5.20544 -12.1989 -5.02822 9
221 1 -9.77758 -1.80763 4.9381 20
222 1 5.74149 2.36579 6.69378 20
223 1 7.54234 2.62602 -1.74656 16
224 1 -1.19155 3.94283 -6.66794 23
225 1 -1.70024 7.12974 -8.48318 23
226 1 -3.44405 7.57465 9.93512 17
227 1 -11.1448 -5.53167 -2.93838 16
228 1 3.03432 10.9476 -7.66566 12
229 1 -11.423 -7.11951 -10.4132 10
230 1 -6.35774 -5.00907 -14.8556 6
231 1 8.32317 7.47532 -1.88345 16
232 1 5.17988 11.4338 5.0802 10
233 1 1.97251 3.1409 -8.11101 17
234 1 1.24551 -8.13631 2.46014 20
235 1 -6.9816 3.08903 -13.1093 11
236 1 10.2625 5.59016 0.172906 15
237 1 6.09015 -7.79827 0.46888 19
238 1 -4.09302 2.3319 -11.6418 20
239 1 4.47617 -10.2702 -0.0522136 18
240 1 -2.11489 -10.3681 11.4781 10
241 1 -7.6189 0.941011 -7.81708 21
242 1 -1.01453 2.83818 -13.3799 15
243 1 -9.70159 -4.93991 3.21061 18
244 1 10.8691 -1.01967 -3.38893 12
245 1 -5.0143 8.08053 -4.14999 13
246 1 5.02308 -8.02709 -7.60564 11
247 1 2.29911 4.27819 -12.2941 12
248 1 6.54561 -5.11455 -10.7616 10
249 1 -8.66268 -4.20588 7.95232 18
250 1 -3.80144 12.2759 1.89988 19
251 1 -3.38413 10.6942 -8.60617 12
252 1 9.6825 4.8049 -2.89422 12
253 1 1.78478 -8.28101 -4.27773 19
254 1 2.36513 -3.38236 -10.2263 19
255 1 12.8726 -5.47386 -2.1416 10
256 1 1.51321 -7.22214 5.98805 18
257 1 -11.983 1.23584 8.97642 12
258 1 -7.855 -10.2234 -5.10743 13
259 1 -0.826947 -2.20931 9.90333 20
260 1 5.9676 6.95685 -9.52795 11
261 1 -5.39282 11.392 -0.24539 15
262 1 -0.655186 12.7836 -1.58043 14
263 1 0.852061 1.77501 10.0877 20
264 1 7.77347 -9.71285 -1.44828 17
265 1 3.33239 -0.42927 -11.7993 22
266 1 -12.9583 -4.10275 -0.17366 14
267 1 -6.31271 4.18751 -3.27234 17
268 1 -10.6184 -6.12133 8.57255 9
269 1 4.63161 5.9578 -1.77529 20
270 1 0.736875 -9.60778 -11.1975 6
271 1 -3.09505 -8.32576 13.8655 7
272 1 3.92087 -2.80782 -6.81088 18
273 1 -9.56942 6.07736 0.762398 16
274 1 8.83572 -5.58985 -5.15814 14
275 1 -1.03388 8.7745 11.4187 12
276 1 -1.71419 0.918489 -8.27662 21
277 1 2.61333 6.6701 -9.41718 16
278 1 -3.18774 -5.90753 -13.2795 9
279 1 -2.8639 -11.2975 -2.48147 18
280 1 9.07935 -0.412204 2.14967 18
281 1 3.57171 -5.35337 -11.9289 13
282 1 4.28535 -10.8942 -2.98905 16
283 1 4.31786 11.2399 -2.96178 13
284 1 -9.93348 3.08962 1.9807 22
285 1 8.20308 8.41437 -7.31667 8
286 1 -1.29168 -7.58583 8.12412 15
287 1 5.54829 4.24605 10.4331 15
288 1 -9.21543 -2.55384 -7.72541 17
289 1 9.888 0.201198 -0.651802 18
290 1 5.91683 -4.63309 0.559732 21
291 1 1.80735 6.98435 9.9821 21
292 1 4.22798 4.8407 6.8246 19
293 1 -4.15392 8.47408 -0.16415 13
294 1 -2.40451 -11.1641 -6.28333 17
295 1 -7.54279 6.86836 -8.55099 13
296 1 -7.53864 -3.24619 -12.0978 12
297 1 -13.118 0.300975 -4.03438 12
298 1 4.57496 -7.68943 4.59105 20
299 1 4.14718 -6.32324 7.68497 22
300 1 7.48025 4.62987 -8.32147 14
301 1 7.30953 -2.9266 2.41771 22
302 1 6.08184 8.30307 6.00637 15
303 1 12.6391 -2.37943 -0.956219 11
304 1 -4.47384 2.745 8.93921 16
305 1 -9.63429 -8.22851 5.65827 13
306 1 -11.8859 -1.09578 -9.23212 14
307 1 -3.88005 -4.87575 14.4097 7
308 1 -5.55551 14.2971 1.73884 7
309 1 8.67636 6.6048 5.62999 16
310 1 4.53054 3.0288 3.49148 22
311 1 -11.2213 -2.36278 7.74731 14
312 1 4.1735 -0.42863 -15.0459 10
313 1 1.60424 -8.46188 -7.60901 19
314 1 6.50568 6.05329 7.66928 15
315 1 4.57249 6.3521 4.17109 19
316 1 -5.1031 -6.49479 12.3049 13
317 1 -4.96904 5.29599 11.635 15
318 1 -10.3046 3.54736 11.583 12
319 1 -6.83805 4.22761 -6.66082 18
320 1 7.53229 10.1049 -1.80163 12
321 1 -1.79133 1.02252 8.83372 18
322 1 1.58405 11.368 -3.03259 15
323 1 -7.19843 -10.1929 1.65317 18
324 1 4.33977 6.53061 1.40697 18
325 1 -7.52201 3.53453 3.90487 19
326 1 -6.79076 4.85227 -0.0567853 15
327 1 8.10004 8.65794 -4.18979 12
328 1 3.50069 1.46667 12.3721 13
329 1 5.63424 8.40214 9.66216 9
330 1 1.35835 -1.10489 -8.39609 21
331 1 -0.896262 2.98239 6.6246 20
332 1 3.73197 -4.75911 -4.65439 18
333 1 3.53154 9.73098 7.72415 14
334 1 -13.0694 -4.73755 2.87136 13
335 1 7.12086 -12.2226 -3.11251 7
336 1 6.19452 10.3109 -6.18229 11
337 1 3.6832 -4.66328 5.5135 21
338 1 -4.13806 10.6009 5.5157 19
339 1 0.791999 -1.62411 -15.3538 11
340 1 2.69257 -5.04637 -8.24931 17
341 1 -4.68226 12.3475 8.10417 13
342 1 1.56284 -6.66049 9.35329 19
343 1 -6.84543 -9.6042 -1.73539 16
344 1 -7.97596 4.15411 7.03495 21
345 1 6.35645 0.550013 3.90073 23
346 1 -1.25751 7.02477 -5.22076 20
347 1 7.01229 3.91412 -11.124 10
348 1 9.78536 1.90752 -3.88614 12
349 1 0.258543 6.06514 -10.5164 16
350 1 -6.52944 -1.47938 10.8678 15
351 1 -3.75277 -1.12543 8.54484 22
352 1 -1.13424 -2.05655 -9.52574 17
353 1 -7.37176 8.00018 -0.471906 17
354 1 8.18044 9.47076 3.69058 11
355 1 -10.1514 -2.30606 1.15577 21
356 1 4.16696 4.08429 -9.86087 18
357 1 -5.54853 0.554879 13.7303 9
358 1 -13.1014 -6.90375 -0.189011 9
359 1 8.06441 -2.45447 -0.456484 22
360 1 -7.19979 -7.28452 0.725151 19
361 1 12.5876 -9.21281 3.09037 7
362 1 3.61534 -9.93954 3.30983 18
363 1 -1.59695 12.8107 6.83814 13
364 1 -7.14047 3.33925 9.79804 17
365 1 6.77414 4.81888 1.14814 17
366 1 10.4005 -7.63748 -2.14981 12
367 1 2.02173 5.82479 3.54572 19
368 1 0.459131 9.91977 6.36128 18
369 1 -0.886752 -12.6627 2.65894 17
370 1 -9.95727 -2.95237 -4.31553 20
371 1 -1.19449 -2.26987 14.1144 10
372 1 -0.479834 12.8658 1.03801 14
373 1 5.51025 -4.18865 11.6459 11
374 1 7.75448 -2.44272 5.31956 16
375 1 2.97835 9.28672 11.3964 13
376 1 -0.345305 7.45872 -1.93217 19
377 1 -0.970103 -10.3808 -8.43874 11
378 1 -6.54045 0.221134 -11.8994 14
379 1 -8.67412 0.421931 12.2032 12
380 1 10.2897 2.61247 2.20726 16
381 1 0.785139 6.09656 -6.84547 20
382 1 2.51396 -3.54804 -13.5872 16
383 1 -5.48201 -12.1098 -0.155326 12
384 1 -6.22585 -1.52778 -6.41509 22
385 1 0.429582 -1.23726 -12.3038 18
386 1 -2.02354 -7.64044 -2.52158 19
387 1 -0.036816 -5.19554 11.1803 13
388 1 -1.23242 -7.13251 3.88078 19
389 1 7.89154 1.23519 -8.77241 17
390 1 -7.13893 10.6007 2.13403 14
391 1 10.0907 -4.08718 -2.6409 16
392 1 -12.1572 -0.870658 -0.925347 16
393 1 12.0326 4.93905 2.64097 10
394 1 2.07373 4.0582 11.9089 17
395 1 -13.5165 -1.82444 -6.35972 13
396 1 -4.28777 2.99738 -8.08914 21
397 1 13.5594 -4.81005 1.10348 9
398 1 -6.77527 -7.64647 -5.79958 19
399 1 -2.31513 -10.5971 5.01152 20
400 1 8.77191 -5.82735 1.34765 17
401 1 -11.6217 7.65212 1.98526 11
402 1 0.701908 9.35737 -8.33128 16
403 1 0.780019 -8.92267 11.5895 10
404 1 -6.70942 -1.96663 6.72029 18
405 1 -9.61704 -5.26215 -12.9205 9
406 1 -5.23897 -12.2897 6.96258 16
407 1 4.4507 -1.35704 12.9422 10
408 1 0.286907 -12.2419 -3.31814 12
409 1 7.90566 -2.49226 -9.73519 13
410 1 -7.49319 6.90447 2.71264 18
411 1 -7.50441 1.05606 5.41384 19
412 1 1.0442 -10.858 -6.1979 17
413 1 10.6289 8.20378 2.00823 10
414 1 9.33617 -0.394445 -6.27161 13
415 1 -3.52825 -9.74653 8.18959 20
416 1 4.99308 8.49053 -3.97146 18
417 1 4.24709 0.869932 -8.74104 19
418 1 -8.93564 3.21029 -4.85188 21
419 1 5.8716 3.16672 -6.49095 18
420 1 2.57717 8.64123 4.95385 20
421 1 1.43714 8.50412 -5.24706 21
422 1 -6.28389 7.95246 10.601 9
423 1 7.20429 -0.045366 -2.6446 20
424 1 2.68512 -13.1366 5.10236 11
425 1 8.29949 3.87836 7.78194 13
426 1 9.41839 -4.64478 -8.94327 10
427 1 -6.98708 6.40067 -11.4971 9
428 1 -2.15836 9.91341 8.01259 18
429 1 -0.784711 7.11059 1.12896 21
430 1 -3.98605 -7.70263 6.03413 19
431 1 9.39788 -10.9001 3.63412 10
432 1 -1.76802 0.295779 -14.4575 12
433 1 -10.0685 -5.76271 -0.0956903 21
434 1 -3.89101 5.91139 -2.97452 17
435 1 5.30507 -1.8221 9.83929 15
436 1 -6.95293 -7.43508 7.16376 19
437 1 10.7039 -3.28243 1.52046 14
438 1 -1.74 5.98405 -12.7645 11
439 2 -13.0109 -0.424232 -7.62524 13
440 2 -8.37608 11.9651 -3.63169 7
441 2 -2.01938 -1.23472 -13.345 13
442 2 -5.80874 4.62693 9.79413 16
443 2 -10.2808 -2.42844 -6.09803 20
444 2 -2.48943 -3.62673 14.0062 9
445 2 -8.81813 2.00695 3.45307 19
446 2 8.22439 5.96654 0.760761 18
447 2 -3.94456 -4.84345 -7.93706 22
448 2 -8.22952 -8.90574 -6.50498 14
449 2 -7.19953 3.68959 -1.78979 19
450 2 -2.3401 -6.77106 6.05168 21
451 2 2.32173 2.23716 11.1295 21
452 2 5.02428 -0.80734 -13.2862 13
453 2 11.117 -1.32895 3.40077 11
454 2 -7.69021 6.37912 0.878816 15
455 2 9.34539 2.59787 6.29748 13
456 2 -10.7546 -7.03797 6.90392 12
457 2 -2.81416 -12.8563 2.67691 16
458 2 6.57854 -8.85338 7.12526 13
459 2 -10.4037 7.74417 0.388749 13
460 2 -3.49325 7.29346 -5.55673 17
461 2 -3.83309 10.6496 7.73656 17
462 2 4.50418 -4.01356 -2.84586 19
463 2 -3.84824 0.948591 -8.43396 23
464 2 1.3334 -6.60551 -7.98266 17
465 2 7.71053 -0.644508 -9.87583 17
466 2 8.91685 9.15575 -2.61955 10
467 2 -5.79016 9.68658 5.84415 17
468 2 -8.05347 -9.18228 -9.84793 10
469 2 -0.245864 -10.3451 10.9689 10
470 2 6.24722 -2.71313 0.482059 22
471 2 -12.2182 0.127587 -2.51274 16
472 2 8.8317 8.37295 2.45331 14
473 2 2.59248 -11.2599 5.23161 14
474 2 -1.52522 9.55371 6.08925 19
475 2 4.27467 9.54826 5.87537 17
476 2 1.72823 7.77833 -7.53514 23
477 2 -11.2276 2.38915 10.4888 12
478 2 4.33179 -0.314448 -10.1723 18
479 2 -8.84967 -0.455808 -7.89531 21
480 2 -12.0336 1.79408 7.27494 13
481 2 -10.1582 -9.38963 3.87809 13
482 2 0.721149 -7.0941 4.18886 19
483 2 -4.36737 -4.40637 12.3568 14
484 2 -2.09908 9.00716 9.72478 15
485 2 -10.5291 1.36671 1.05048 21
486 2 4.37365 -4.76741 -7.00658 16
487 2 7.86243 -1.21885 -6.09359 17
488 2 2.03052 -13.0433 -3.33908 11
489 2 3.21085 5.26586 5.07394 17
490 2 12.2531 -7.35987 -1.90397 10
491 2 3.78567 -1.53254 5.25476 21
492 2 -6.53768 -8.31322 2.39211 19
493 2 8.81089 -2.41593 1.43638 19
494 2 -3.47777 -10.0996 3.28168 20
495 2 10.2286 -4.77422 2.28015 14
496 2 -4.38159 -7.07184 -9.45235 17
497 2 -9.52488 -4.30798 1.17558 21
498 2 -3.85648 -7.11907 1.13778 20
499 2 -6.84331 -5.63554 -2.58272 16
500 2 -4.37813 14.1619 3.08838 9
501 2 2.49633 0.497826 -7.52616 19
502 2 7.45239 8.79976 -0.582457 14
503 2 2.19448 5.16846 -8.11682 17
504 2 -8.35263 3.49376 11.5196 15
505 2 -11.6762 5.76022 1.72804 12
506 2 -6.258 2.03222 8.23691 16
507 2 -11.1207 8.50727 3.66589 11
508 2 -10.0804 4.1772 -6.07947 13
509 2 6.01363 1.10199 -8.0545 19
510 2 13.8324 -6.12897 -0.277541 8
511 2 6.51308 2.80888 0.28886 18
512 2 0.383118 12.8181 2.89842 12
513 2 -7.23462 6.06213 7.0179 17
514 2 8.95112 1.38986 -2.11142 15
515 2 1.56997 6.67553 -1.83473 20
516 2 -0.773065 8.86264 -5.22249 21
517 2 -2.22253 3.49496 8.26685 21
518 2 1.11279 -4.35451 12.4996 16
519 2 1.70833 0.192707 -12.2679 18
520 2 -5.22952 3.7568 12.9406 11
521 2 3.90379 3.39056 -11.796 15
522 2 -6.83067 -4.96594 10.5635 14
523 2 3.0332 -6.85709 -1.74398 19
524 2 -1.21573 -5.94266 -6.32807 18
525 2 4.8687 -11.0607 2.20239 18
526 2 7.45424 6.93209 -8.26366 9
527 2 -8.30384 6.0637 -9.93373 11
528 2 -3.92012 12.6946 6.24065 16
529 2 -9.44053 -4.17592 -2.64277 17
530 2 4.34715 7.46631 -5.41887 19
531 2 -1.43833 14.0417 -0.465517 9
532 2 -4.65624 7.02525 11.241 10
533 2 4.3698 -8.30316 0.518537 20
534 2 0.364591 1.62799 13.3085 13
535 2 9.76918 -6.023 -3.43077 15
536 2 5.3741 8.35166 1.21414 19
537 2 -8.00005 4.97276 -12.4921 9
538 2 0.474858 -7.24238 11.0294 12
539 2 -5.27268 -7.02564 7.40293 18
540 2 4.36835 -9.08577 7.93202 17
541 2 -0.101547 12.4087 -3.5773 14
542 2 -3.95425 -11.1454 -4.15627 14
543 2 -2.85108 -2.5193 -10.352 17
544 2 -5.04217 -9.98486 -8.9831 12
545 2 6.28175 8.00263 7.85269 13
546 2 -10.1761 -7.39451 -3.50826 17
547 2 -12.9099 3.29702 1.75045 13
548 2 3.6878 -2.35967 9.13188 19
549 2 -1.05952 -11.2112 -2.45666 16
550 2 -1.96298 -0.170254 -9.77368 22
551 2 -9.18747 -3.93519 -11.5906 14
552 2 -11.7643 -2.87125 -9.56231 13
553 2 -9.23283 -1.66684 11.7955 8
554 2 -5.21652 -1.84834 -8.41983 21
555 2 2.02996 -5.29652 -10.3982 14
556 2 2.72615 -2.94637 -8.24274 16
557 2 -7.09428 -5.34895 3.40653 17
558 2 0.613842 -2.09071 -10.3973 18
559 2 0.575456 -8.00114 -2.57384 20
560 2 0.3432 7.70627 -9.68076 14
561 2 3.60728 8.97852 9.37063 14
562 2 10.2303 1.39792 3.78507 15
563 2 -13.4922 -1.57513 3.55826 11
564 2 -2.06305 -13.6184 5.48918 14
565 2 -2.26554 3.76953 -8.22798 18
566 2 -5.56106 7.2307 3.99079 17
567 2 -6.06322 -5.35748 0.686912 21
568 2 -7.62564 5.4295 4.09598 22
569 2 -8.57143 -6.18076 8.45248 17
570 2 -0.695698 -10.6659 4.00162 18
571 2 -11.4345 1.13686 4.38486 17
572 2 -9.37931 -10.816 1.30006 13
573 2 -7.63079 -2.01584 4.95368 19
574 2 3.53076 -6.76153 9.53311 19
575 2 2.49921 9.78368 -9.18338 10
576 2 5.80598 10.9158 -1.62406 12
577 2 7.58494 4.19905 -6.43752 15
578 2 -2.37845 12.6407 -2.6013 13
579 2 -10.2467 1.33385 -6.84168 19
580 2 -13.3016 -2.55551 -1.26524 14
581 2 -2.13923 -8.64207 -4.28299 19
582 2 3.48127 -6.85663 6.07434 22
583 2 6.16975 -2.63711 6.97515 19
584 2 -3.22715 10.1911 -4.14033 18
585 2 7.76376 -0.684009 -0.833305 22
586 2 3.90499 -2.88668 12.1747 13
587 2 -1.75466 -2.93167 -7.70237 23
588 2 4.15647 8.09696 3.42069 20
589 2 1.07883 9.50563 10.6972 15
590 2 0.869186 -1.42502 10.6327 20
591 2 -6.63988 3.60242 1.57865 18
592 2 7.77989 6.79749 -4.36829 15
593 2 -10.2836 -7.87809 -8.86653 12
594 2 -7.28849 -3.0071 -6.9995 20
595 2 -10.9853 -0.555637 8.77909 13
596 2 5.15641 10.49 -4.4881 14
597 2 7.75739 4.26481 -3.03714 16
598 2 9.48558 -9.01449 -1.05793 14
599 2 -13.5766 -5.61081 0.940228 11
600 2 -3.45732 9.68583 3.96944 19
601 2 -3.38756 6.35772 -9.0339 19
602 2 -0.22701 2.01366 -9.19062 16
603 2 -9.9756 4.27239 -0.084322 19
604 2 -11.6217 -1.98891 5.85762 12
605 2 6.59794 -9.66574 0.155817 15
606 2 0.931979 -9.38891 -0.476266 22
607 2 -7.64966 9.01113 3.20649 17
608 2 -1.70214 -8.16228 2.20339 19
609 2 -10.3503 3.05355 -3.36385 15
610 2 1.66628 -10.1568 2.30324 22
611 2 0.508743 5.56926 10.3028 22
612 2 -2.58299 1.85804 -14.2476 12
613 2 -3.55119 9.46429 -10.1481 11
614 2 5.80436 4.97474 -9.86802 14
615 2 -5.32658 12.9366 -4.76695 10
616 2 -7.877 0.105453 10.3743 14
617 2 -4.22249 -4.88393 8.90126 19
618 2 -4.85625 -6.86088 4.374 19
619 2 -12.3833 -4.17449 -3.87533 14
620 2 -1.73341 -1.1401 8.49669 21
621 2 -1.71736 7.792 -11.9522 11
622 2 6.67413 -1.72837 -3.57181 16
623 2 1.30716 -1.7589 7.37405 22
624 2 0.247054 0.352613 -15.0431 12
625 2 4.57248 5.33447 0.0445468 17
626 2 4.09989 3.9586 11.9476 13
627 2 -12.016 -3.4033 1.42429 18
628 2 -1.94383 11.8281 -5.92757 15
629 2 -2.08537 3.4954 12.0283 16
630 2 3.18414 -11.0531 -1.39923 16
631 2 -5.06931 -12.5922 5.11182 14
632 2 3.10227 3.8393 8.15802 21
633 2 4.26388 7.6232 -8.86436 15
634 2 3.01595 9.42211 0.094163 21
635 2 0.954802 -13.3327 6.01372 14
636 2 6.40303 -10.3877 -3.28303 14
637 2 -1.90241 2.45473 -11.3406 21
638 2 0.318699 -1.28128 13.862 11
639 2 0.699639 4.1136 6.73654 23
640 2 4.22316 -4.24984 3.86991 22
641 2 -4.4591 0.228119 -11.5666 19
642 2 8.09621 -5.90134 -9.84281 10
643 2 -8.32747 10.0989 0.663353 14
644 2 -1.16514 -6.06082 -9.5302 16
645 2 -3.58172 1.04178 12.9257 10
646 2 -9.51675 6.78168 -4.62743 10
647 2 12.1924 -3.66633 0.30602 10
648 2 3.8035 11.3716 3.4469 12
649 2 10.8211 6.24016 2.28705 13
650 2 10.6077 4.04507 1.03556 13
651 2 -9.11833 1.65454 -1.70599 15
652 2 -5.99965 6.34437 -3.73499 16
653 2 -7.4589 2.94612 -7.89584 20
654 2 9.85122 6.23539 -1.82891 13
655 2 -5.78751 9.31274 -0.810589 16
656 2 -3.62143 -9.80227 6.18128 19
657 2 1.69546 1.14613 8.6258 15
658 2 3.01516 -11.5435 -5.72211 14
659 2 -4.78814 -5.59206 -14.4475 7
660 2 2.88166 11.6718 -1.8221 13
661 2 6.39845 10.3017 3.91236 11
662 2 -6.32646 -5.77947 -7.15441 16
663 2 -9.33127 -9.79427 -1.47848 14
664 2 7.27994 -0.0124249 2.31635 23
665 2 -3.29134 7.37583 1.51315 18
666 2 3.37268 -13.717 3.23516 10
667 2 4.22923 -5.60198 11.7199 10
668 2 -3.92349 -3.92827 5.47017 21
669 2 -4.95181 -8.2413 -6.29502 23
670 2 0.724668 4.97146 13.0476 12
671 2 1.61219 6.43888 -5.08427 21
672 2 -11.6619 9.00321 6.54958 9
673 2 -5.2526 -7.62428 10.7171 19
674 2 -4.23845 13.2366 0.288406 13
675 2 -0.966282 -11.2309 0.980301 18
676 2 -1.45794 -4.04847 7.3129 20
677 2 4.58559 0.299257 11.3569 13
678 2 -10.6309 4.19105 3.70637 21
679 2 -3.97429 6.9717 -1.47309 16
680 2 -0.87363 1.56105 10.4524 21
681 2 -6.61554 -7.26989 -10.8934 11
682 2 11.9381 -3.76226 -2.33657 11
683 2 5.28588 -1.55951 -7.11335 20
684 2 -3.76005 10.284 0.709517 18
685 2 -7.08181 1.72112 13.3082 10
686 2 -7.10524 3.29878 -5.01719 22
687 2 9.24447 -5.69021 -7.04781 10
688 2 2.50217 6.23085 1.42602 22
689 2 -2.09584 6.12705 10.2181 15
690 2 -3.81742 0.88682 8.82232 15
691 2 -2.55419 4.52021 -13.4163 12
692 2 -13.5295 -1.47801 -4.49451 14
693 2 -11.923 -5.51424 -9.47182 12
694 2 -1.10352 6.00833 -6.82497 23
695 2 -9.63002 -4.33607 -8.04064 21
696 2 6.14511 -6.60778 -7.84718 15
697 2 -2.21362 -8.61441 -0.860055 20
698 2 -3.18436 -10.8555 9.74682 15
699 2 6.4427 -2.84045 4.03257 22
700 2 6.23829 -2.85723 -10.6906 17
701 2 0.36802 -14.1245 3.12725 12
702 2 11.4305 4.17873 4.05274 10
703 2 -9.1991 11.2249 5.10395 10
704 2 -11.7871 -8.36044 0.77994 11
705 2 9.99237 0.232545 -4.52203 14
706 2 4.78409 -9.69634 4.76421 16
707 2 -5.95348 12.1104 1.58029 12
708 2 5.14959 1.45256 -5.54681 15
709 2 4.0746 2.70383 5.32176 20
710 2 -13.4909 3.62665 4.71474 10
711 2 -1.81043 9.18987 -7.92836 19
712 2 2.73375 -1.59305 -14.9492 13
713 2 -7.60352 0.284993 6.98396 14
714 2 -5.63404 -0.797714 12.3733 12
715 2 6.43243 -0.54541 9.28616 11
716 2 3.55892 1.33226 -14.1741 12
717 2 -8.18142 -6.19395 -5.45986 20
718 2 8.28959 -3.5159 -8.26696 17
719 2 0.663662 8.28276 1.75737 19
720 2 0.429269 -7.8106 -11.6868 10
721 2 -12.6669 4.3502 8.49951 12
722 2 -9.49343 -1.4202 2.93427 20
723 2 8.10119 -11.7428 -1.70782 8
724 2 -0.635418 -11.7114 -6.75343 11
725 2 0.445225 -10.6098 -4.44722 18
726 2 9.67646 -2.43444 -3.44312 19
727 2 -5.40211 6.35327 -10.5154 12
728 2 1.62552 6.26051 8.11157 15
729 2 -3.99121 -12.0657 -6.44367 12
730 2 2.62298 6.40214 12.0064 15
731 2 -5.20093 7.61754 8.80497 18
732 2 -6.21124 8.30896 -5.42329 13
733 2 0.362862 -9.16219 -9.47798 13
734 2 -6.70961 -11.2973 7.24644 13
735 2 -10.7622 9.67089 -3.62086 7
736 2 7.72486 9.56056 -5.7263 11
737 2 -4.81021 3.23831 -10.0458 19
738 2 3.35325 5.57945 -3.04105 17
739 2 -10.1502 -6.75267 -11.737 10
740 2 0.771083 -8.11082 -5.77466 20
741 2 -13.3781 -3.54617 -7.24744 13
742 2 5.14001 6.2816 9.96938 17
743 2 -7.41156 -1.44768 -11.3429 16
744 2 -11.3107 -6.25797 3.61632 14
745 2 6.68924 2.30636 4.55654 16
746 2 5.40852 2.81706 9.37212 15
747 2 7.52148 2.99954 -9.31478 15
748 2 -4.54727 10.6484 -7.2141 13
749 2 -1.04671 9.93101 2.11821 19
750 2 6.97456 -4.95318 2.1092 19
751 2 -6.49538 0.248488 -6.34842 22
752 2 5.03148 10.3647 -7.78333 12
753 2 -1.8795 -1.24888 11.7296 18
754 2 -2.28861 -9.34177 -7.6264 18
755 2 2.97516 -0.112638 13.4639 11
756 2 -1.58965 6.93787 7.28558 19
757 2 10.9037 -9.87177 3.51748 9
758 2 5.13462 -6.35801 -11.3883 10
759 2 -6.47423 11.6611 7.78912 11
760 2 2.71906 -9.06105 11.0565 11
761 2 -0.649596 9.20447 -1.31712 20
762 2 -0.812614 11.5414 8.09117 12
763 2 -4.84126 4.39855 -6.54761 20
764 2 0.623091 12.1585 -0.25704 15
765 2 -7.33058 -9.43595 -3.54905 19
766 2 0.659496 -2.88636 -13.2842 15
767 2 -7.2752 2.86886 5.87645 20
768 2 7.47645 -4.03112 -1.63856 18
769 2 -6.24929 8.15399 -8.40671 14
770 2 -8.61113 3.96628 8.92126 17
771 2 -6.70756 -11.5583 -6.18479 11
772 2 4.6923 8.30911 11.8505 8
773 2 -3.96176 -5.47717 -11.6678 15
774 2 -9.58561 3.04379 -10.01 13
775 2 0.507735 3.12352 -6.86702 20
776 2 -5.18054 3.13402 -13.122 13
777 2 -9.89164 7.28587 5.51478 18
778 2 -8.72702 9.85306 7.4016 13
779 2 1.21887 10.7551 -6.98413 11
780 2 -7.01975 -11.0851 -0.734733 13
781 2 6.34598 2.32335 -11.889 12
782 2 3.2324 -2.88268 -11.8019 18
783 2 -7.12022 -10.8204 3.85961 15
784 2 -8.74326 8.88728 -1.90059 15
785 2 -7.60912 -8.19471 5.54493 17
786 2 -1.21483 5.10054 -10.8963 17
787 2 -0.700813 -12.2449 7.90576 12
788 2 6.46751 4.12596 7.15698 16
789 2 3.89604 -4.22494 7.34895 20
790 2 -8.86813 -2.98803 9.59196 16
791 2 2.08442 5.27154 -10.5445 16
792 2 -0.0917897 7.42737 12.5006 12
793 2 -9.07344 -7.51281 0.189452 18
794 2 -7.45913 -8.61175 8.94998 13
795 2 -9.83648 4.18954 6.48885 18
796 2 -7.89048 6.21854 -6.8606 16
797 2 -11.2711 -6.18542 -6.04963 16
798 2 -2.00633 12.4916 2.27085 16
799 2 6.12704 -6.3193 7.47359 17
800 2 8.85347 5.62639 7.24538 11
801 2 -3.74806 -11.9586 -0.844202 13
802 2 -12.693 -4.54922 4.74953 12
803 2 -13.0263 -0.0861832 0.682291 15
804 2 -4.99812 -1.24186 7.0227 19
805 2 -1.6447 -3.8407 10.5074 19
806 2 2.17142 -12.919 0.580062 14
807 2 5.97466 4.38365 3.01627 17
808 2 5.65655 -8.94342 -5.9384 13
809 2 -2.0055 6.61282 4.2881 18
810 2 -6.39899 -4.42236 -10.3898 18
811 2 -9.62767 -3.92947 4.88441 20
812 2 1.16252 -4.73776 9.18584 21
813 2 -4.98321 -2.14297 9.72127 19
814 2 -2.98694 -7.87348 8.92937 15
815 2 3.72926 2.80591 -8.66648 15
816 2 5.50406 6.2625 6.05953 18
817 2 2.02887 -5.38913 -13.0986 11
818 2 9.64295 -3.69036 5.29368 12
819 2 10.1101 3.55669 -4.19318 12
820 2 7.4751 -4.13856 -5.57502 20
821 2 1.62632 10.0121 7.72731 14
822 2 8.94733 -0.961127 5.33458 15
823 2 -6.01357 -11.2554 10.1263 11
824 2 -3.31708 -9.53683 12.3492 11
825 2 -6.99515 -4.03982 6.60009 16
826 2 5.20559 -12.8114 -3.53185 9
827 2 7.81609 -9.52422 3.80062 15
828 2 9.68438 -7.40985 1.73237 17
829 2 -4.18625 -13.1092 8.21586 11
830 2 7.39699 -6.40203 -0.393141 17
831 2 -11.4525 5.04133 11.0441 9
832 2 -4.5052 5.16977 6.37839 20
833 2 4.90103 3.97267 -4.9386 13
834 2 -1.55122 -5.11477 -13.6372 10
835 2 3.47756 -8.60701 -7.1509 16
836 2 0.820312 2.92487 -12.8653 17
837 2 -7.92089 1.67226 -11.8374 15
838 2 7.88394 8.36576 5.36869 12
839 2 -8.74347 -1.25384 -4.26059 17
840 2 10.1624 0.877514 1.04095 13
841 2 -9.9143 -1.32126 -0.324731 20
842 2 6.2743 -6.54246 4.63117 17
843 2 1.75099 9.51469 -3.64085 20
844 2 9.3045 1.4222 -7.29185 14
845 2 4.36872 8.28728 -2.08798 19
846 2 1.46556 -10.6777 8.3336 12
847 2 -11.8361 -5.69106 -1.28597 16
848 2 5.52252 -3.88138 9.83645 15
849 2 8.96545 -6.76558 4.93503 15
850 2 3.29177 -7.82542 3.0144 18
851 2 8.92238 5.25664 4.19523 18
852 2 -9.81254 6.4524 8.69956 13
853 2 -12.7676 3.32652 -0.757733 12
854 2 11.1188 -0.965936 -1.32279 14
855 2 8.62298 -11.2987 1.74202 12
856 2 -4.31242 -7.64306 -2.81296 19
857 2 1.00839 10.0598 4.39057 16
858 2 12.5914 -8.55281 1.37834 9
859 2 0.955815 6.86191 4.41443 22
860 2 -5.79617 -11.6433 1.49348 15
861 2 0.643053 -7.11929 7.65497 16
862 2 -6.71531 9.56376 9.71331 13
863 2 -6.98559 -4.30247 -13.364 11
864 2 -12.4535 1.6669 -5.2281 14
865 2 -10.8923 -4.40467 7.88195 12
866 2 -3.9834 -6.80151 14.0258 7
867 2 -10.6197 0.0225795 -9.96564 15
868 2 6.33583 0.125091 5.75134 18
869 2 6.00851 1.3879 -2.39133 17