ITEM: TIMESTEP
7000
ITEM: NUMBER OF ATOMS
500
ITEM: BOX BOUNDS pp pp pp
-30.0 30.0
-30.0 30.0
-30.0 30.0
ITEM: ATOMS id type x y z Coordination
1 1 -5.47189 1.02472 -7.79933 19
2 1 7.10757 -1.82078 5.6017 10
3 1 -1.64287 5.388 8.17476 11
4 1 8.63241 -1.67699 2.85667 15
5 1 -7.56591 1.86521 -3.39196 19
6 1 -1.93186 -2.24174 -11.3926 11
7 1 -1.91431 -0.335355 5.32602 20
8 1 3.75339 -7.88432 -5.61134 14
9 1 -12.3778 -1.05934 -0.806043 12
10 1 3.82926 3.18139 -11.1377 12
11 1 6.7028 -6.73054 -5.52188 10
12 1 3.38306 1.91167 3.98988 22
13 1 3.11888 6.65132 -6.3197 22
14 1 1.1201 4.00609 3.79617 18
15 1 1.15791 4.6711 7.44985 16
16 1 -7.73338 -1.57332 1.97068 21
17 1 -10.05 -2.24243 0.326817 16
18 1 7.95854 -1.42537 -2.22142 16
19 1 2.88723 0.0662108 7.71055 12
20 1 -10.2126 -5.60391 1.32664 9
21 1 -4.12686 -5.31249 -7.23994 18
22 1 3.15896 0.968117 -6.0184 23
23 1 4.40949 -1.95142 -7.27832 16
24 1 4.00367 -8.82179 3.05047 12
25 1 -5.55299 8.60285 2.96001 12
26 1 3.99938 -0.75134 5.48523 19
27 1 0.402838 6.71465 -0.976344 21
28 1 -0.0736923 -5.03188 -9.68888 12
29 1 -1.55145 4.39355 5.36685 19
30 1 3.36555 -0.763347 2.10483 21
31 1 -6.34236 8.64254 0.451057 15
32 1 -5.32915 6.40137 -1.35673 20
33 1 4.26849 6.36693 -9.72254 14
34 1 5.34759 8.66843 -4.56767 16
35 1 -2.06476 7.7243 -6.48127 18
36 1 -6.93622 4.84282 -7.95401 12
37 1 -5.2439 10.6319 -2.0894 10
38 1 0.706014 7.06772 -4.56213 21
39 1 -10.8251 4.00089 -1.59909 11
40 1 1.1564 8.0003 7.90369 7
41 1 -4.88314 3.65353 -9.45785 14
42 1 -6.64526 -3.7884 3.72304 23
43 1 -7.97322 -4.02562 -2.80508 22
44 1 6.02981 -8.27623 -2.87668 12
45 1 -10.1185 0.701301 4.06362 15
46 1 -9.54479 -0.950809 -2.68323 20
47 1 -3.45533 -10.2556 1.70579 16
48 1 4.40329 3.70163 -7.58238 20
49 1 -6.99922 -7.21824 -7.53464 13
50 1 0.860133 1.86158 -11.3071 18
51 1 -0.89712 -6.56665 -1.01458 21
52 1 -2.15351 10.7256 -1.96609 14
53 1 -11.35 1.65356 0.960935 14
54 1 1.2956 9.51984 4.12433 10
55 1 0.219445 -1.43895 7.33606 16
56 1 2.00379 -6.88481 -2.75769 19
57 1 5.90012 0.755862 -7.12973 15
58 1 -6.70846 -6.81574 -1.41541 21
59 1 -3.7274 -7.98674 0.235214 22
60 1 2.60875 -3.31984 7.58874 11
61 1 4.11138 -3.36601 4.01165 23
62 1 4.29795 9.76677 -1.56102 11
63 1 -9.75029 -8.37108 0.645777 10
64 1 -4.74819 -10.6255 -1.53809 11
65 1 -5.00376 -4.96335 -4.23648 22
66 1 1.12329 3.93038 -6.21584 20
67 1 3.25012 -3.42343 0.513088 23
68 1 -4.35572 -1.97599 3.91165 22
69 1 -10.9937 -1.55601 6.08388 12
70 1 1.1386 -9.86875 -1.49097 15
71 1 -4.30684 -5.09329 2.26264 22
72 1 0.685592 1.4549 5.90874 22
73 1 -12.3665 -1.00128 2.70857 10
74 1 -3.72834 10.7378 0.722422 11
75 1 -6.7356 4.51701 1.79325 22
76 1 -3.81294 6.82524 5.44657 13
77 1 -8.79457 -4.48649 -8.29729 11
78 1 -7.8963 1.06995 -6.1254 20
79 1 -6.3422 -4.50123 -9.65512 10
80 1 5.95405 0.0180343 3.06162 23
81 1 -1.31887 -3.56715 7.39754 15
82 1 -4.38159 -0.486074 -9.75677 14
83 1 -11.7615 -0.863681 -4.92602 12
84 1 -7.97597 -9.5827 -2.01653 11
85 1 -6.50715 4.5549 5.01475 11
86 1 3.75876 2.94254 6.52407 16
87 1 -5.02449 6.68097 -4.94775 16
88 1 1.07162 -9.07958 -4.69168 13
89 1 -0.481473 10.4711 0.795092 14
90 1 4.80377 4.81999 -4.60996 23
91 1 -10.4622 0.974206 -7.73522 11
92 1 -10.598 1.68479 -4.35733 15
93 1 -3.84482 -7.9147 -5.66447 14
94 1 0.871358 -10.064 2.3887 15
95 1 -9.8502 3.72984 -7.0036 12
96 1 -6.34625 -0.585601 8.49587 8
97 1 -7.34338 1.85591 3.25922 19
98 1 1.67772 -7.69006 -7.83154 9
99 1 -1.56917 -3.5664 3.93966 19
100 1 -3.51017 -5.19712 4.97283 18
101 1 3.55123 -9.57525 -3.00907 10
102 1 3.94332 4.77341 -1.40727 21
103 1 -7.80721 1.21505 0.534091 17
104 1 2.98525 0.991833 -8.74666 18
105 1 3.57017 -6.02327 5.24611 12
106 1 -6.80401 -7.25818 -4.45162 16
107 1 -9.68848 -3.0273 3.73689 15
108 1 8.75379 1.44866 2.13003 16
109 1 8.19314 6.94188 -4.46627 10
110 1 -1.67368 4.61007 -8.03538 21
111 1 -0.903865 6.88127 -9.68357 13
112 1 1.14784 9.6934 -2.57492 17
113 1 1.35815 5.51796 -11.8036 12
114 1 -1.18 -12.4249 2.02196 7
115 1 6.13194 -8.65525 0.540705 9
116 1 -1.0165 -9.6056 0.476451 19
117 1 -8.20106 2.23903 -9.39772 13
118 1 9.06797 1.15841 -3.06557 12
119 1 -3.92384 9.55282 -4.89588 13
120 1 4.96401 -5.78626 -7.98114 9
121 1 -8.29737 -3.56843 6.23209 11
122 1 -1.82495 -9.38166 -2.90564 15
123 1 2.05689 -4.43378 -7.55181 18
124 1 3.32015 7.7753 0.179618 22
125 1 1.3142 -7.29583 0.553459 21
126 1 -6.69597 -3.52905 -6.33707 22
127 1 -2.7682 -0.549353 8.53671 12
128 1 -2.80796 2.294 7.3457 12
129 1 3.65051 -0.490739 -11.1619 9
130 1 -7.46538 4.15686 -1.61541 19
131 1 3.02621 7.35553 -2.83904 23
132 1 6.1328 1.69132 -4.04068 21
133 1 -2.57392 1.76617 -9.89633 19
134 1 -9.60511 4.01698 1.32838 14
135 1 1.10399 -4.32063 5.66552 15
136 1 5.6045 2.73476 2.55263 18
137 1 -7.14913 -1.10537 -7.9305 18
138 1 3.71647 -6.08712 1.87114 20
139 1 -3.82461 -7.55491 -2.59693 19
140 1 6.78986 1.66497 5.41661 13
141 1 -1.51328 -9.6539 3.98459 12
142 1 1.11659 -1.52564 4.08513 23
143 1 7.51121 4.52998 1.04097 14
144 1 5.87566 -5.24844 -0.164567 16
145 1 5.9072 6.72539 1.78911 11
146 1 -1.42167 -6.76817 -7.88603 15
147 1 5.7905 5.03174 4.38562 16
148 1 -4.1298 3.90336 -6.3286 20
149 1 -4.08958 6.67236 -8.10076 13
150 1 -4.44158 1.34807 5.14067 18
151 1 -9.66761 -6.46933 -2.1137 13
152 1 3.16884 4.92631 1.65275 23
153 1 -4.04801 6.05964 1.97409 20
154 1 -8.62421 6.78253 -0.339841 12
155 1 6.2161 6.85843 -7.0189 15
156 1 -0.125136 1.69922 8.91743 11
157 1 -2.1113 0.295992 -12.4082 10
158 1 -0.359943 6.9507 5.27355 17
159 1 7.0507 -4.45547 -3.34278 15
160 1 3.03464 10.4382 1.91895 11
161 1 1.00222 -4.35257 2.15854 22
162 1 -2.64642 7.52221 0.118128 19
163 1 3.91275 -4.924 -5.3494 17
164 1 1.28388 -7.45125 3.49177 16
165 1 0.402416 1.24274 -7.98937 22
166 1 -4.21947 3.77928 3.41982 21
167 1 9.6704 2.74353 -0.986258 11
168 1 0.866155 8.80887 -7.69635 14
169 1 7.50206 4.03085 -6.16127 13
170 1 -5.11935 -3.00309 7.26702 17
171 1 -5.90636 -6.17589 6.21509 11
172 1 -6.72047 8.01987 -3.17344 12
173 1 4.29606 7.99341 3.65127 14
174 1 -7.36265 -6.92826 2.77132 15
175 1 6.25502 -1.38403 0.302716 22
176 1 -7.42907 -4.56222 0.781192 21
177 1 9.79843 -0.555515 -0.181047 13
178 1 8.25655 -6.84766 -2.05277 9
179 1 0.980834 7.05299 2.21869 22
180 1 -9.62531 -2.12399 -6.03665 17
181 1 -0.916957 10.5261 -4.99361 14
182 1 1.99825 8.70755 -10.1147 9
183 1 -6.67074 -0.983537 -4.24993 24
184 1 0.70422 -1.43357 -13.3294 7
185 1 -1.55204 -6.62649 -4.46718 18
186 1 -1.70088 -6.74666 2.44689 21
187 1 8.50612 -3.84662 -0.187153 15
188 1 -13.0425 1.54402 -2.28619 9
189 1 -1.7342 4.01416 -11.2511 13
190 1 -9.02158 -5.26946 -5.30594 15
191 1 6.26515 -3.33277 2.59454 17
192 1 -2.9311 -3.56385 -8.94918 17
193 1 -8.54042 6.72382 2.90255 10
194 1 -8.98042 1.30683 6.7139 10
195 1 6.0391 6.96416 -1.54312 17
196 1 7.60499 4.40381 -2.84212 16
197 1 -4.40509 -8.0637 3.62883 16
198 1 2.03881 3.90725 -8.80042 19
199 1 4.62709 9.28632 -7.76001 12
200 1 3.61018 6.17112 6.45571 13
201 1 2.37727 9.56896 -5.01477 17
202 1 6.69158 1.67052 -0.764207 23
203 1 -7.17223 -0.980378 5.26557 21
204 1 7.48474 -1.46789 -5.03023 12
205 1 1.44336 -1.85811 -9.51691 19
206 1 -2.10166 8.11566 3.07503 19
207 1 -2.48441 7.27485 -3.29976 22
208 1 -6.5971 -9.34581 1.03405 14
209 1 3.21639 -10.9059 0.383861 9
210 1 -11.0128 -3.44833 -3.02805 12
211 1 -7.65655 4.9373 -4.93178 14
212 2 -11.0828 -1.53726 4.03794 13
213 2 6.67998 6.03555 0.17861 14
214 2 0.671791 -3.41288 4.02185 20
215 2 -2.85061 -1.64311 -9.15801 18
216 2 -9.06557 0.634373 -3.53938 19
217 2 -6.08217 -8.37444 2.65937 13
218 2 0.83537 0.319458 7.84154 13
219 2 8.8974 -0.492429 1.52818 16
220 2 -3.9529 8.18671 4.02629 13
221 2 -2.0195 6.49923 1.71838 20
222 2 4.76015 -8.40165 -3.97127 14
223 2 -4.58605 1.56173 -9.43217 17
224 2 0.267019 -6.67102 -8.45126 12
225 2 -6.96238 -4.86081 -1.18725 19
226 2 -5.23349 9.83362 1.46421 12
227 2 5.95068 -3.08873 4.58903 14
228 2 5.48663 8.67947 -2.54591 14
229 2 -0.121671 7.84524 3.51444 16
230 2 3.6654 9.78382 0.230437 13
231 2 2.73988 9.30094 -8.49619 11
232 2 3.13996 -1.04942 -9.30819 17
233 2 -7.77443 0.762692 -8.17916 16
234 2 -0.518008 -8.22944 2.89259 18
235 2 -11.5188 0.857808 2.8511 10
236 2 5.16337 -6.13089 -6.12027 14
237 2 -3.55979 -9.62615 -2.40556 14
238 2 3.16129 -0.874016 -6.03199 19
239 2 0.193828 5.01046 5.22227 20
240 2 0.680874 -3.45215 7.42659 13
241 2 -6.33039 -5.121 2.48693 22
242 2 -2.07769 -11.1951 1.04269 14
243 2 -8.16911 -8.97769 -0.0369086 13
244 2 -6.48486 -10.5252 -1.83159 9
245 2 -7.95187 -7.49765 -2.68854 16
246 2 -3.73159 11.0784 -1.16153 11
247 2 1.35532 1.9805 -9.40162 21
248 2 6.83906 7.66409 -5.56275 14
249 2 2.03887 3.58177 -11.7361 11
250 2 -8.23343 4.67057 -6.80444 12
251 2 6.22845 2.90384 0.613017 18
252 2 -0.119399 10.4679 -1.17766 13
253 2 -7.7803 5.08383 3.91541 12
254 2 1.06558 7.53821 -2.58329 20
255 2 4.23668 9.43163 -5.83068 15
256 2 -2.05424 6.42144 5.90333 14
257 2 -1.70077 -1.6909 7.58437 14
258 2 2.13204 -0.906798 -12.4163 7
259 2 2.39468 -5.71635 -4.16405 18
260 2 -1.996 -4.97193 -7.72602 18
261 2 -9.61816 -4.75408 -3.20312 17
262 2 7.44382 -4.8739 -1.53939 15
263 2 3.97158 6.74288 1.82345 19
264 2 -3.49988 -0.58897 -11.4702 11
265 2 -0.928537 -1.24903 -12.6713 9
266 2 -5.15497 -7.17588 -6.98087 15
267 2 3.38775 -6.7559 -7.94154 10
268 2 6.042 -1.1501 -6.49826 13
269 2 -9.30585 -3.67818 1.31902 17
270 2 1.41009 -3.89244 -9.22902 13
271 2 2.92803 4.77019 -6.85596 19
272 2 -2.2983 -7.07639 -6.31999 13
273 2 -1.60697 1.29233 -8.22455 21
274 2 -2.05667 3.86727 3.4967 22
275 2 -9.11274 -6.93368 2.19651 10
276 2 -6.86301 0.535136 2.06662 23
277 2 -7.17229 7.54498 -1.22517 14
278 2 -7.00333 -4.84947 5.50393 15
279 2 -12.4697 0.33867 -3.68462 12
280 2 1.75319 -6.28147 2.09522 20
281 2 7.93745 0.00265968 -3.8777 14
282 2 0.357252 -0.853822 -7.85274 20
283 2 3.28168 4.23148 3.57108 22
284 2 0.85082 8.44321 5.80715 11
285 2 -1.94956 1.24114 8.57283 12
286 2 -8.03058 3.05966 1.76436 18
287 2 -7.73177 -1.78903 -5.94796 22
288 2 6.97968 6.09585 -3.10121 16
289 2 -11.7506 -1.4623 0.871599 11
290 2 -4.05458 7.68632 -6.18769 15
291 2 3.68715 1.46137 -10.4042 12
292 2 -9.21065 5.08474 -0.998692 12
293 2 3.43839 -1.39736 3.88291 20
294 2 7.31246 -7.09611 -3.75557 9
295 2 -0.710073 -10.0139 -1.65784 13
296 2 -7.08714 7.7476 2.37099 13
297 2 -3.56737 -6.86518 1.97378 20
298 2 0.948505 -9.2762 0.411178 18
299 2 2.95421 7.35658 7.78064 7
300 2 -2.52208 9.96026 -3.74407 15
301 2 -7.19754 -2.02351 7.01658 15
302 2 -4.94898 -7.03652 -1.00376 22
303 2 -4.46168 -1.16578 8.48762 9
304 2 -0.770782 5.69816 -11.2592 11
305 2 7.94665 -2.82845 -3.62338 10
306 2 0.192149 -0.429832 5.47814 22
307 2 -7.28017 -1.97109 -2.73911 22
308 2 4.01293 6.60083 -1.33969 21
309 2 4.87421 6.70425 5.11959 11
310 2 7.01437 -3.65826 0.89823 17
311 2 -10.9864 -2.21967 -1.58526 15
312 2 0.196237 6.22057 8.14938 13
313 2 3.35163 -1.56614 7.30254 14
314 2 -1.04942 1.91114 -11.3182 13
315 2 6.60626 -1.4841 2.36511 20
316 2 0.403256 3.01898 7.77754 17
317 2 4.12724 -4.05884 2.11788 21
318 2 -10.4426 -0.541789 -6.77487 15
319 2 -5.40066 9.46553 -3.79458 13
320 2 -9.89461 2.80519 -8.62748 10
321 2 -4.46463 -6.91643 5.18175 14
322 2 1.00042 10.2488 1.96077 12
323 2 -7.18737 -6.0338 -8.88108 10
324 2 10.0813 1.05839 -1.46448 12
325 2 -7.07417 6.61659 -4.42394 14
326 2 5.20055 -6.97641 0.926721 13
327 2 -7.96252 -2.32436 3.76582 21
328 2 -8.02916 -6.82802 -5.85477 13
329 2 0.69864 10.3857 -4.34079 13
330 2 -8.68486 5.81001 1.27837 12
331 2 3.0835 3.99737 0.0430399 21
332 2 -1.93401 -4.47603 5.7433 15
333 2 -10.3437 2.89974 -0.014326 13
334 2 -1.30446 6.77451 -4.90525 21
335 2 -2.37957 3.9888 7.15128 15
336 2 -6.52943 0.90601 -4.74073 19
337 2 3.05669 9.42838 -3.18101 16
338 2 -4.6388 5.46629 4.33159 17
339 2 -2.51055 1.63071 5.64739 20
340 2 -4.50204 -4.81306 -9.13356 13
341 2 2.46858 7.09337 -11.0982 11
342 2 -2.02565 -6.83146 -2.58061 20
343 2 -5.09631 5.09661 -7.78793 16
344 2 5.95303 -0.0617574 5.2612 19
345 2 8.42803 4.85983 -4.59886 12
346 2 -0.647716 -11.0168 3.17583 10
347 2 4.28955 1.75716 -7.45031 20
348 2 2.95938 4.38382 7.09305 15
349 2 -7.83646 3.72329 -3.6245 18
350 2 -3.83301 1.56159 3.20216 20
351 2 -9.63593 -4.14441 -6.61399 13
352 2 -1.70408 -7.55448 0.416181 21
353 2 -1.88499 6.70023 -1.42913 17
354 2 -8.25414 0.748056 4.46153 18
355 2 -8.59459 -0.900399 0.219503 16
356 2 -0.866911 -8.4909 -4.48756 16
357 2 3.26047 1.14558 5.80343 18
358 2 -4.98369 4.78571 -4.69977 21
359 2 -2.37742 6.46841 -8.53015 16
360 2 4.93362 7.47754 -8.30239 14
361 2 2.00148 -8.43217 -6.12184 12
362 2 7.22988 1.70434 3.43714 17
363 2 5.14161 2.9099 5.1675 16
364 2 0.199148 8.22575 -9.30764 11
365 2 -4.76767 -0.862532 -7.70128 21
366 2 -1.57017 -3.97424 -10.4676 11
367 2 -2.33783 9.20224 1.13957 16
368 2 -1.15266 9.32268 -6.19177 14
369 2 -9.77628 1.95919 -5.99821 17
370 2 -5.87644 2.77371 4.66491 16
371 2 0.129859 3.95876 -8.21625 19
372 2 0.961675 -3.46117 -6.2585 21
373 2 -11.2281 2.78642 -2.85323 12
374 2 -2.97303 4.12362 -9.76762 16
375 2 3.14889 -4.21693 5.77327 14
376 2 -7.89507 0.435407 8.06728 7
377 2 -4.70772 -3.90049 -5.99813 21
378 2 -10.3502 0.237876 5.9698 9
379 2 4.25879 -7.08576 3.72919 12
380 2 -12.2228 0.766615 -0.696207 13
381 2 -5.19081 -0.554028 5.08346 20
382 2 -3.32253 -9.61969 3.49367 14
383 2 8.83115 2.86662 0.738015 14
384 2 1.8595 -8.81404 -2.8825 15
385 2 -4.63304 7.13633 0.503913 19
386 2 -7.63358 -2.92342 -8.29874 13
387 2 -9.98679 -3.33873 5.70293 10
388 2 1.55914 -6.2257 5.07402 15
389 2 6.07595 4.99262 -6.67887 17
390 2 3.90423 4.47655 -9.50612 15
391 2 6.57829 4.89821 2.72908 14
392 2 -4.29379 6.78209 -3.00666 20
393 2 8.60498 -1.23722 4.66309 11
394 2 5.09235 -4.39697 -3.79828 16
395 2 -6.89853 -4.73123 -4.47512 21
396 2 3.8193 -3.8669 -7.20604 16
397 2 4.45414 -9.76745 1.05384 11
398 2 7.13605 -0.219109 -0.774187 22
399 2 4.40417 -4.2773 -0.922382 19
400 2 1.05785 2.07139 4.01145 20
401 2 6.82719 2.2646 -5.92707 17
402 2 -10.5143 -2.05289 -4.16366 17
403 2 -6.69819 -2.71444 0.704375 20
404 2 2.3657 -9.52153 3.33367 14
405 2 1.53336 8.06024 -6.04146 20
406 2 8.01102 2.53748 -2.28746 17
407 2 3.79704 6.58642 -4.41445 23
408 2 -4.42144 -3.86188 3.91783 20
409 2 1.29065 -6.10429 -0.940909 19
410 2 9.26358 -2.24405 -0.77463 11
411 2 3.09419 -10.5306 -1.44662 9
412 2 -4.82409 -6.95292 -4.19295 19
413 2 1.38509 7.29287 0.450495 22
414 2 3.15351 9.39076 3.40393 11
415 2 -4.85345 -9.73007 0.283021 18
416 2 -4.83847 -4.66715 6.75899 13
417 2 -4.84711 4.24342 1.51767 21
418 2 4.14035 1.22735 2.25616 25
419 2 5.73648 3.70754 -3.45017 18
420 2 -6.87391 3.46659 -9.43447 11
421 2 -10.0288 -6.65899 -0.319341 12
422 2 7.00883 -8.08961 -1.27472 9
423 1 -1.93117 -0.751936 -7.88831 21
424 1 -4.04606 -2.08642 -6.11074 22
425 1 -1.14116 -3.67618 -6.36993 23
426 1 -1.51966 -1.25468 -4.54506 21
427 1 -4.27376 -1.85784 -2.62095 19
428 1 -2.26341 -4.05491 -3.09876 19
429 2 -2.17853 -2.01985 -6.15739 22
430 2 -4.84681 -1.34093 -4.52692 20
431 2 -1.00579 -4.70884 -4.55184 19
432 2 -4.24419 -3.77652 -2.45477 21
433 2 -2.07546 -1.99354 -2.84029 20
434 1 -7.07761 -1.28931 -0.852919 20
435 1 -4.94528 -4.81595 -0.822647 22
436 1 -1.37643 -0.932263 -1.26872 21
437 1 -4.65898 -2.31751 0.604543 22
438 1 -1.90046 -3.95128 0.496568 22
439 1 -2.10173 -0.878553 2.15394 20
440 2 -4.79399 -1.14286 -1.03149 20
441 2 -1.09327 -4.49315 -1.2259 21
442 2 -3.98056 -4.21784 0.594986 20
443 2 -1.31486 -2.06804 0.570097 20
444 2 -4.07967 -1.35014 2.01597 20
445 2 -1.20051 -4.79848 2.37164 21
446 2 -2.33913 -1.80242 3.99777 21
447 1 -2.18163 1.88582 -6.22898 21
448 1 -4.46052 0.740191 -4.71359 19
449 1 -1.25153 4.73091 -4.45624 21
450 1 -4.38571 3.85082 -3.12818 23
451 1 -2.28275 1.74055 -2.90865 22
452 2 -4.06298 1.88618 -6.39299 22
453 2 -2.24687 3.87108 -6.17591 20
454 2 -1.56071 0.953576 -4.56549 21
455 2 -4.26352 1.76101 -2.88849 21
456 2 -2.22909 3.69877 -3.08618 24
457 1 -5.08412 0.871963 -1.22166 22
458 1 -1.52777 4.76412 -1.47341 21
459 1 -4.17742 3.49331 -0.0796736 22
460 1 -2.04609 1.93189 0.398007 22
461 1 -4.80071 0.60227 1.7022 24
462 1 -1.35087 4.86189 1.62198 23
463 1 -1.93394 1.85375 3.70081 19
464 2 -7.12117 1.28103 -1.14673 21
465 2 -5.53113 4.42027 -1.5485 20
466 2 -1.46834 1.03945 -1.12168 23
467 2 -4.01923 1.66693 0.202322 21
468 2 -2.0511 3.81913 0.213707 21
469 2 -1.09537 0.80222 2.1638 23
470 1 1.25201 -1.60606 -6.16688 22
471 1 0.972293 -4.44117 -4.5163 18
472 1 4.16146 -0.833902 -4.38821 19
473 1 1.54376 -1.43406 -2.89737 21
474 1 3.86607 -3.43742 -2.59095 18
475 2 0.627015 -0.826645 -4.40458 21
476 2 1.69443 -3.44709 -2.86587 21
477 2 3.62188 -1.62375 -2.64349 16
478 1 0.849299 -4.14475 -1.23407 22
479 1 3.8815 -0.670214 -1.08357 22
480 1 0.692602 -1.62841 0.625117 22
481 2 0.777673 -0.867066 -1.3015 20
482 2 1.40388 -3.33827 0.519095 23
483 2 4.13053 -1.60837 0.455229 22
484 2 1.23431 -0.732316 2.26193 19
485 1 0.447421 1.15577 -4.52368 23
486 1 1.51472 4.03406 -3.15496 21
487 1 3.4531 1.92029 -2.73486 21
488 2 1.40113 2.03186 -5.96004 24
489 2 0.570625 5.05175 -4.70332 20
490 2 4.34712 1.10155 -4.46173 19
491 2 1.33801 1.98721 -2.92053 22
492 2 3.40438 4.03527 -3.18772 18
493 1 0.587883 1.13265 -1.23786 21
494 1 1.23198 3.79072 0.348467 20
495 1 3.65174 1.9826 0.58555 19
496 1 0.750611 1.29276 2.08325 20
497 2 0.487105 4.57664 -1.26859 20
498 2 4.48301 1.06664 -1.22546 22
499 2 1.56029 1.67857 0.233667 21
500 2 0.737605 4.74891 2.08576 19
