ITEM: TIMESTEP
5000
ITEM: NUMBER OF ATOMS
1500
ITEM: BOX BOUNDS pp pp pp
-30.0 30.0
-30.0 30.0
-30.0 30.0
ITEM: ATOMS id type x y z Coordination
1 1 -9.18129 -10.1789 -9.47595 15
2 1 4.5491 -17.8535 1.41651 8
3 1 -12.9335 4.79849 -4.51829 14
4 1 -11.8822 -2.01533 -7.28647 18
5 1 2.46885 -7.85855 8.74312 20
6 1 -8.38698 2.94396 -8.92687 18
7 1 -4.28192 -3.08249 -8.50073 20
8 1 -6.45462 -14.0642 2.79852 13
9 1 -12.7084 -7.46692 9.15552 8
10 1 0.665016 0.211282 15.343 10
11 1 5.21562 -2.86062 5.30515 19
12 1 -1.00113 1.09993 8.31235 19
13 1 5.17187 -2.59375 2.07227 17
14 1 -1.81341 7.05895 -7.88596 21
15 1 0.352961 -1.92046 9.40731 19
16 1 10.7305 4.38976 6.78788 15
17 1 0.576002 8.65971 -8.59034 19
18 1 1.27066 2.83012 -15.9973 12
19 1 -6.90344 2.2336 6.32386 22
20 1 -4.70283 -3.21268 -11.9301 23
21 1 4.37242 -14.9711 7.43328 12
22 1 3.05576 -2.54786 7.67123 21
23 1 4.34073 -15.918 4.24232 12
24 1 -9.17602 -13.1938 -2.23288 14
25 1 3.72106 -5.32956 -5.23639 20
26 1 -1.07174 -8.93716 -13.5616 16
27 1 -0.95753 8.60331 8.89742 18
28 1 -0.702287 -14.4469 5.72516 11
29 1 5.43087 -6.24894 12.3686 9
30 1 -10.7516 -3.63013 1.17381 18
31 1 -7.64633 -1.60899 -11.1192 16
32 1 -6.74693 9.00517 -3.95053 17
33 1 1.53964 2.69835 -8.16796 19
34 1 1.13072 -6.69742 -10.2347 18
35 1 -3.88681 -2.57143 13.0219 15
36 1 -12.6238 3.47218 -0.713024 19
37 1 1.04428 11.8535 6.58446 13
38 1 -11.5317 3.31698 -7.46801 15
39 1 -7.0222 14.1636 -3.43965 11
40 1 2.3755 -9.00113 -1.55179 20
41 1 3.80349 -9.7734 -6.96262 18
42 1 -9.26492 7.18048 9.72496 14
43 1 -14.6436 -7.4615 -6.83718 13
44 1 6.32702 0.687834 4.32607 19
45 1 -10.7274 9.59215 -1.82941 10
46 1 -7.99813 -9.27856 7.80047 16
47 1 -14.4849 1.81283 -6.34143 14
48 1 0.936935 5.64974 -7.11392 22
49 1 4.73509 2.35026 2.78269 16
50 1 3.60065 0.977281 8.54122 20
51 1 6.49098 -17.7318 -1.72474 7
52 1 4.68214 7.14516 11.5571 13
53 1 11.0737 -3.73175 -10.8438 9
54 1 6.54102 -13.2637 0.0412982 17
55 1 -7.79215 -2.4882 2.63621 17
56 1 2.95729 -3.95403 13.2196 17
57 1 -7.75549 -12.2053 7.28081 9
58 1 -12.1627 -1.83992 -1.08465 21
59 1 11.513 -2.18727 6.08306 16
60 1 9.06655 -5.97008 -4.87488 20
61 1 1.83954 8.72466 7.61642 20
62 1 1.17127 0.853511 10.7868 20
63 1 -8.18147 -5.77378 1.4099 22
64 1 -8.62904 -12.6055 -6.19691 13
65 1 -8.07021 8.79314 -0.894897 18
66 1 -0.978558 4.02512 -9.93439 21
67 1 3.85437 -2.36075 -7.07848 19
68 1 8.10877 -3.20689 -5.03657 20
69 1 11.2248 -8.98153 4.95878 12
70 1 4.27859 -9.42031 10.1934 14
71 1 -2.77752 13.3083 -7.81569 12
72 1 -8.57701 4.71885 3.9474 20
73 1 -5.31288 7.69548 1.21188 22
74 1 -3.75547 -7.17108 8.74742 22
75 1 12.2756 -11.5082 -5.12715 13
76 1 -14.2191 4.30064 2.48317 17
77 1 9.58191 -6.35382 -9.89199 15
78 1 0.574727 -0.731458 -12.7433 20
79 1 -4.00623 -3.16769 -15.1747 19
80 1 -2.8894 8.25782 3.36689 21
81 1 -11.8168 3.68822 -10.436 11
82 1 -0.199488 11.6112 -8.98413 14
83 1 -2.55137 5.37204 1.54922 22
84 1 -2.53674 -10.014 9.59898 18
85 1 -1.75895 -5.03236 -8.43246 22
86 1 4.5117 -3.9712 -10.3999 24
87 1 1.21002 3.19746 9.37346 19
88 1 -14.5739 -11.8818 -3.15147 13
89 1 10.9957 -8.9727 1.65462 17
90 1 -9.79972 -8.36701 -2.48975 17
91 1 9.14298 -12.2761 0.193024 16
92 1 -7.07844 2.95472 -0.276978 17
93 1 4.10124 3.10089 -14.3608 16
94 1 3.86075 3.78619 -6.04888 17
95 1 10.6009 -14.0478 -3.39216 15
96 1 6.9115 -13.3457 3.0254 14
97 1 -14.514 -10.3321 2.89191 11
98 1 -16.8447 -5.13769 2.1319 7
99 1 9.38965 7.38652 7.69712 15
100 1 7.26814 3.18802 0.940453 17
101 1 -3.62272 10.1506 8.82209 15
102 1 -8.39803 9.67755 -9.68659 12
103 1 -4.48751 -6.32347 -10.0743 19
104 1 7.43029 -1.04688 13.0295 9
105 1 -4.82374 8.1684 -8.10693 20
106 1 9.35901 -0.428989 -7.08838 21
107 1 -10.8636 8.36089 -7.87916 11
108 1 -5.8391 13.3251 -0.387458 16
109 1 9.58012 2.53045 -11.6171 14
110 1 7.88106 -7.80344 1.72265 17
111 1 -6.21556 0.586133 -8.86933 20
112 1 3.01032 13.6839 -3.13719 13
113 1 8.24802 7.34869 -1.82893 18
114 1 -5.80549 9.94896 3.40643 18
115 1 -6.85003 -4.72095 -10.5863 21
116 1 -2.23587 14.4135 4.18307 10
117 1 -10.0202 -3.49694 -5.55955 20
118 1 17.0537 -1.51817 -4.29534 9
119 1 -3.96373 7.55661 6.46099 18
120 1 -5.16956 10.7984 -2.6971 20
121 1 3.23277 -7.26999 15.3064 10
122 1 -13.4234 -7.60296 3.01839 17
123 1 -1.25279 -13.9732 2.549 20
124 1 4.74227 -13.7259 -6.11606 18
125 1 -7.25148 6.73097 -11.4635 17
126 1 0.743405 5.6057 -3.78936 21
127 1 10.0184 10.0659 -1.1107 12
128 1 0.304498 -8.22234 10.2663 20
129 1 -7.32363 0.109586 -2.08112 20
130 1 0.27481 11.279 0.707125 21
131 1 1.56038 6.72996 9.87863 20
132 1 -6.65437 7.15322 3.9821 19
133 1 -4.26251 -0.554209 -10.2729 20
134 1 13.6683 -9.29483 -1.18683 13
135 1 -5.39778 -7.53873 6.0529 22
136 1 -16.0643 6.04724 4.52415 8
137 1 -11.439 -11.104 4.29634 17
138 1 -16.8909 -0.586225 0.0670517 12
139 1 1.0855 -12.8107 1.93027 20
140 1 -11.5453 -6.84377 0.555644 17
141 1 6.05499 -7.50122 -5.78967 21
142 1 -2.63651 11.4434 2.12682 21
143 1 -7.58026 -6.03849 4.47002 17
144 1 -11.0433 -2.10269 -10.2691 17
145 1 -9.61831 8.11403 -5.17727 16
146 1 -17.7122 -2.69139 -2.95478 10
147 1 -14.4229 -2.18866 10.6478 9
148 1 -1.91078 -10.5679 2.3875 22
149 1 2.3429 -13.6977 5.15123 21
150 1 13.7775 -0.171177 0.831133 13
151 1 4.77674 2.60954 -3.3777 17
152 1 4.25306 1.93468 11.2566 22
153 1 -4.97225 7.11582 -13.4433 13
154 1 7.28917 3.04869 -13.8723 10
155 1 -9.27459 -4.43587 -8.45123 20
156 1 -4.87635 11.4947 -8.90236 11
157 1 -7.40508 9.62442 -7.02582 19
158 1 6.13115 -0.364917 7.4429 22
159 1 -4.18112 -6.45447 -16.1246 15
160 1 -5.33556 8.81936 -11.2428 14
161 1 3.17679 6.30924 -13.0173 15
162 1 -6.06178 2.3866 11.2138 16
163 1 -7.26688 4.12393 8.90525 18
164 1 4.73443 -10.3768 -11.3752 11
165 1 -9.77154 -14.6751 1.36995 12
166 1 7.76886 -14.7818 -2.6009 15
167 1 5.89325 -7.37841 -0.813716 22
168 1 8.9015 8.58197 -3.79059 16
169 1 -4.76696 7.87836 -1.77687 22
170 1 -11.7436 0.837899 1.35481 17
171 1 1.59868 8.19365 12.9 10
172 1 12.9085 -2.12197 -3.47034 14
173 1 4.82982 7.60761 8.91437 25
174 1 -4.48985 -0.650555 6.60698 23
175 1 -13.6348 -5.07006 -6.27888 18
176 1 4.91603 4.22796 -11.56 19
177 1 0.74116 -5.18731 9.66898 20
178 1 8.90365 7.48728 -9.34907 16
179 1 0.279333 -16.1518 -5.92072 11
180 1 -1.93616 2.55007 -16.2787 12
181 1 6.09291 -0.101307 -8.70418 17
182 1 -13.9042 -3.82223 3.47242 17
183 1 5.48887 -16.9772 -4.5449 10
184 1 -12.0377 -8.9805 -5.22344 16
185 1 1.53705 11.5004 -2.30535 19
186 1 1.05081 -3.01846 -14.847 20
187 1 0.373896 5.00638 13.0673 11
188 1 16.1281 0.201257 -1.45499 8
189 1 -5.42606 -10.0271 0.727404 19
190 1 9.11551 -4.16394 -7.69226 17
191 1 -7.0281 -11.2183 4.68931 18
192 1 -5.87355 -7.79751 -13.6575 14
193 1 -12.6075 0.792792 -9.20028 15
194 1 8.23967 -1.13747 4.7328 20
195 1 2.90435 -5.21113 6.80164 18
196 1 -8.76693 -6.74342 -12.9172 14
197 1 0.985673 -7.72769 5.42075 23
198 1 -1.19283 7.12093 -12.5955 14
199 1 3.00883 6.86688 -1.13063 20
200 1 -7.0787 -8.47091 3.07583 20
201 1 -2.47805 9.20209 0.421247 23
202 1 -9.51688 -5.47554 13.533 8
203 1 -12.2947 -9.54194 -8.40486 15
204 1 -6.57989 -8.43383 -10.8019 19
205 1 -10.7077 -12.3952 -7.99166 12
206 1 0.0185038 -12.911 -1.10283 20
207 1 10.6795 4.12259 3.56724 16
208 1 -4.97618 -12.5146 -1.4055 18
209 1 -10.3089 -8.51708 11.514 6
210 1 0.293028 -16.4715 -2.4036 15
211 1 1.88414 -7.2322 2.10937 18
212 1 -1.82304 14.3192 0.35483 14
213 1 5.99617 0.126096 -15.4332 14
214 1 -6.56252 -4.66133 -13.7912 16
215 1 0.368115 -9.99747 1.05314 20
216 1 -1.5074 -10.7562 -10.3785 17
217 1 -8.81762 -1.12921 -7.44204 16
218 1 8.772 2.37179 6.26403 21
219 1 -9.45982 0.278607 -14.1945 11
220 1 -2.56706 9.95526 -10.1221 16
221 1 -7.31881 -3.28255 6.11289 17
222 1 -6.43722 12.0712 -5.74202 13
223 1 2.26586 7.48329 4.37625 17
224 1 10.2178 -3.61725 3.17563 17
225 1 -10.0249 -0.344273 6.61254 19
226 1 -1.53781 -12.4408 8.43138 14
227 1 -7.81738 5.75802 1.2887 17
228 1 3.09783 -8.74813 -14.2014 9
229 1 5.19608 -10.1374 -1.25898 22
230 1 -5.12542 -1.12812 15.3143 13
231 1 -13.0402 -6.1771 6.13107 14
232 1 15.6519 -2.5408 -6.70246 14
233 1 6.89532 -2.60633 -9.51632 15
234 1 9.46724 -12.7083 -7.54564 10
235 1 -4.712 -6.67354 2.36189 22
236 1 -10.3378 11.12 -6.82791 8
237 1 1.8305 2.03363 6.02497 19
238 1 9.06739 2.45223 11.9093 12
239 1 -10.6393 -1.51188 2.86093 20
240 1 5.6054 -10.6856 -4.62896 21
241 1 -1.77498 11.7064 5.25137 14
242 1 -10.4561 3.53756 1.39659 18
243 1 7.75914 -13.9223 8.7022 7
244 1 11.1603 -7.94323 -1.20269 19
245 1 -8.05196 6.80871 6.92637 19
246 1 -4.44655 -6.28099 -3.43737 22
247 1 -1.82853 -3.00131 14.9696 10
248 1 -7.41671 12.5546 2.56697 13
249 1 -6.54885 3.5053 -6.76601 19
250 1 -12.7144 2.17232 7.77325 18
251 1 -10.2228 6.91897 1.80319 16
252 1 -4.21175 -6.21868 -6.49159 21
253 1 -8.81976 12.2498 -0.632603 11
254 1 12.0799 -6.70918 6.17362 11
255 1 -11.5992 -12.2538 1.76931 15
256 1 8.4347 -11.4784 5.99061 15
257 1 -17.3108 5.32996 -1.87284 11
258 1 -2.54299 -7.34067 11.7102 14
259 1 0.434193 -12.7811 -10.1932 10
260 1 -9.32819 -6.92555 -9.86218 22
261 1 6.51446 -2.76457 -13.2502 16
262 1 -0.120142 9.76263 3.23139 20
263 1 -8.48005 -2.2602 -1.1094 20
264 1 1.48911 -9.55206 -11.9997 16
265 1 -2.74197 -14.3279 -2.51382 12
266 1 -16.0351 -8.72472 -2.61522 10
267 1 -2.49583 -11.5495 -0.512794 22
268 1 12.1684 0.269557 -5.31421 21
269 1 -14.2159 -1.79074 -10.3209 12
270 1 -16.3534 -1.77557 3.55869 11
271 1 -11.0048 7.37671 6.5034 14
272 1 -8.48027 9.67857 2.07027 19
273 1 -6.69263 9.26085 9.74277 15
274 1 13.5385 -4.70975 -4.63486 18
275 1 14.0433 -4.44947 -7.67422 10
276 1 -4.51973 4.98697 -3.68041 21
277 1 1.17131 -8.93901 -5.08614 22
278 1 -2.01467 5.78366 5.02388 22
279 1 -8.95702 -0.99248 -4.08007 19
280 1 3.70183 -7.85816 -4.0936 22
281 1 11.7828 -1.4151 9.28223 11
282 1 -6.85999 -2.75544 -7.21494 18
283 1 -9.18061 -10.6232 -0.487595 18
284 1 -5.36044 10.34 0.300364 21
285 1 -11.6004 -13.6883 -4.75902 15
286 1 -10.3943 1.37087 -5.18649 18
287 1 0.197463 12.2783 -5.88499 16
288 1 3.60348 9.6663 5.04213 20
289 1 -16.5428 -5.31287 -1.25471 15
290 1 -8.46075 -9.58366 -7.01136 15
291 1 -15.8175 3.3547 6.60032 12
292 1 -15.8329 3.90201 -4.06697 13
293 1 5.21224 -11.1205 4.04894 22
294 1 -6.90886 -14.4293 -0.122586 12
295 1 6.37949 7.66891 -12.3362 10
296 1 -10.0969 5.58078 -9.66355 14
297 1 1.76013 -16.5728 2.75495 16
298 1 10.7224 7.25604 4.2455 15
299 1 -3.71565 0.166213 10.2527 21
300 1 -14.3093 0.370907 -0.829504 22
301 1 -4.33197 6.87809 9.16581 21
302 1 -9.78426 -8.43538 4.96975 22
303 1 1.09671 -6.64031 -6.81794 19
304 1 7.20447 -8.87458 -11.8137 11
305 1 -0.113433 -3.7594 6.83286 22
306 1 -13.0401 3.19017 4.9999 19
307 1 -2.43888 -8.9641 6.14905 22
308 1 6.69132 -12.2934 -10.5432 8
309 1 -1.85421 -7.79089 -10.3234 19
310 1 -6.93127 -5.5987 8.32883 21
311 1 2.71369 -11.547 -3.32759 19
312 1 -4.3217 -0.248279 -13.3333 16
313 1 5.36784 -12.9364 6.03891 21
314 1 -1.5046 10.2516 -3.57499 18
315 1 -6.58858 -3.90278 14.0332 13
316 1 -7.8845 -4.08755 11.1101 19
317 1 9.39488 -6.64779 4.38231 20
318 1 6.34881 0.0793107 0.434948 19
319 1 -7.03779 2.0584 3.09902 21
320 1 3.23622 0.274634 -17.6143 8
321 1 8.81843 -7.99821 6.84075 14
322 1 13.3121 5.20311 -3.85327 12
323 1 -1.45441 -2.30011 11.7006 19
324 1 2.70608 10.9445 2.20739 17
325 1 3.90116 -5.06142 3.99657 18
326 1 -2.02894 -11.1323 -7.34564 20
327 1 -5.02572 12.9305 4.36767 14
328 1 -8.87868 -10.8329 -4.21731 19
329 1 3.95773 4.3599 9.13782 19
330 1 -9.82647 1.83969 8.77213 19
331 1 -3.3895 -11.7098 -3.91211 18
332 1 -14.5236 0.941606 9.54673 12
333 1 -11.6577 -11.0959 -2.57995 18
334 1 -6.19897 10.1365 6.96234 14
335 1 -7.01276 -11.323 -11.837 10
336 1 -3.30051 -9.30996 -15.8158 9
337 1 -9.36455 -13.7871 4.45917 12
338 1 -7.98594 -0.452565 4.86612 20
339 1 9.05973 -3.99633 6.16248 17
340 1 -5.39103 -5.57503 11.4298 16
341 1 -8.69429 3.48939 -12.5434 15
342 1 10.3814 4.05874 -2.12784 20
343 1 -12.1931 -13.4617 -1.00319 14
344 1 -1.42737 3.87813 -6.65955 24
345 1 -2.80767 11.7041 -1.34086 18
346 1 -4.32375 5.55906 -7.16527 22
347 1 -2.59542 4.78246 8.49043 20
348 1 -10.0524 -3.88081 -2.81286 18
349 1 6.0996 8.16081 -5.89429 19
350 1 -7.04581 -7.85975 -4.4772 18
351 1 -4.36541 -12.4384 -9.89524 15
352 1 1.60384 -6.32419 -13.8011 19
353 1 -11.7802 10.2721 1.4777 7
354 1 -2.92896 1.21986 15.9353 12
355 1 6.10888 6.52379 -0.0611588 22
356 1 0.513081 5.42397 -0.628949 20
357 1 -11.2397 0.543258 -11.7516 13
358 1 3.02732 -0.715158 -9.53755 20
359 1 7.15606 -8.76001 4.98295 19
360 1 -15.2277 -2.43193 -0.969909 18
361 1 -5.87605 1.82872 -15.3085 10
362 1 10.52 5.076 -4.8788 18
363 1 7.79441 -11.7487 -2.38527 22
364 1 14.3718 1.71467 -3.09762 14
365 1 -0.0496631 0.826227 -9.73292 18
366 1 4.85679 -8.26987 3.19198 19
367 1 -1.15534 -16.8278 2.97084 10
368 1 2.53034 -9.86595 12.6603 10
369 1 -6.48022 4.11145 -10.1553 21
370 1 -1.14049 -13.9309 -8.22371 12
371 1 2.84628 0.0498445 -14.8565 19
372 1 2.66768 -6.73977 11.9497 21
373 1 -11.3523 -3.29272 5.44797 18
374 1 16.6266 -5.06257 -5.10684 10
375 1 12.1777 -4.45228 0.0818348 15
376 1 -3.49022 8.29799 -5.23681 19
377 1 1.40825 -9.74849 -8.27284 20
378 1 2.55839 5.03385 -10.4608 19
379 1 6.05804 -4.5373 -6.83401 22
380 1 -8.632 -1.29751 10.606 18
381 1 6.10164 10.7116 3.89857 15
382 1 -2.28775 -3.81604 -17.4095 13
383 1 -9.68583 -3.55959 8.31477 15
384 1 -4.2978 15.2606 -1.99497 12
385 1 -9.41498 -3.34596 -14.6814 11
386 1 -15.5944 1.45082 3.38013 13
387 1 -6.21342 -8.6096 10.0314 14
388 1 5.88187 9.50415 -8.56496 16
389 1 11.7409 1.03424 -1.97625 19
390 1 -10.0404 -8.73642 1.50851 18
391 1 -0.264229 -9.27724 -2.03417 22
392 1 -8.95429 9.67057 7.63951 14
393 1 4.01809 -7.35901 -11.7002 19
394 1 -2.11459 6.00535 -1.54095 20
395 1 7.28801 -2.14938 -1.7452 21
396 1 3.58349 12.9564 -6.67964 11
397 1 6.56712 -10.5199 1.01151 22
398 1 -9.86533 3.89748 6.47397 19
399 1 4.12241 11.0404 7.83956 15
400 1 -1.59089 5.69809 -16.5258 7
401 1 -7.61442 -8.26197 -0.597426 18
402 1 -2.34768 -4.55707 10.0339 23
403 1 6.98029 9.00961 7.28347 17
404 1 3.4185 10.8603 -9.11591 13
405 1 -9.53318 4.4283 -5.34611 19
406 1 -0.739779 14.6141 -3.15773 12
407 1 8.75508 -3.20173 10.4981 14
408 1 11.5372 1.7886 -9.1894 16
409 1 -12.8881 -7.97948 -1.57625 14
410 1 0.238773 -0.613388 6.66216 21
411 1 0.665961 10.4804 -11.6842 13
412 1 2.02518 -12.4973 -6.31622 21
413 1 3.87632 -1.70404 -12.6387 19
414 1 -4.97343 14.8976 -5.66405 8
415 1 -10.7733 -4.96517 -12.1185 16
416 1 0.827893 -18.3935 0.164812 9
417 1 -15.0762 -7.71196 0.553189 14
418 1 -6.91295 0.309356 -5.40921 21
419 1 -9.87583 -5.99328 6.7366 19
420 1 3.26143 9.46064 -3.1377 16
421 1 -4.37351 -9.43932 -8.33115 20
422 1 4.26114 -12.1456 9.52271 13
423 1 6.8623 2.31394 -5.72179 20
424 1 -13.8497 6.32731 -2.2994 14
425 1 11.7612 -8.44618 -4.3471 15
426 1 5.85891 10.5317 10.2178 12
427 1 -0.529012 1.865 -12.9572 17
428 1 0.919533 13.1234 3.34762 14
429 1 8.11155 2.99765 -8.48039 21
430 1 -1.66698 -6.84945 -18.0237 10
431 1 -5.44398 -12.3964 -7.09919 14
432 1 -12.5893 -5.8489 -9.25964 19
433 1 11.0791 2.43516 0.753526 19
434 1 13.618 3.25976 -0.693121 15
435 1 10.7897 -9.82794 -7.27693 11
436 1 5.04624 -13.274 -3.07917 21
437 1 8.55882 8.7254 1.40669 20
438 1 -7.56272 0.0675792 1.48743 19
439 1 9.25961 0.761334 -0.958859 19
440 1 15.7124 5.3062 1.26912 5
441 1 10.3672 2.45529 -6.68124 19
442 1 3.96389 -0.858397 13.5095 13
443 1 -0.686846 -7.04357 7.73643 21
444 1 4.45332 3.7512 -0.119382 15
445 1 1.3519 -4.30223 15.8338 8
446 1 15.6412 0.701192 -6.22689 12
447 1 8.83043 -1.29432 7.41697 21
448 1 -7.49754 -5.46736 -5.27277 20
449 1 12.6856 5.50664 1.28639 16
450 1 15.0264 -3.02234 0.1856 11
451 1 -2.15368 -7.96014 0.238943 25
452 1 9.28906 0.0765263 10.8171 15
453 1 6.71476 11.9027 6.79012 10
454 1 4.80942 2.99369 6.25185 21
455 1 -6.66934 6.58142 -5.68153 20
456 1 5.88219 5.64698 -5.06721 16
457 1 11.4491 -0.283952 -11.4416 11
458 1 1.81242 14.0001 -0.405178 12
459 1 -7.86653 -13.1134 -9.52018 11
460 1 -13.6467 5.48968 6.36202 13
461 1 -6.93363 1.39358 -12.0043 19
462 1 -3.62895 -14.8737 0.694127 16
463 1 -6.5666 -1.74627 -13.6974 17
464 1 -16.2223 -3.63645 -5.20204 11
465 1 11.9034 -11.3387 1.01657 12
466 1 11.3015 8.04418 1.68233 15
467 1 0.370163 -10.1482 7.40124 22
468 1 -15.2145 -4.17191 -8.56887 12
469 1 13.4902 -4.61975 5.64848 10
470 1 -3.22588 4.55988 14.1332 10
471 1 10.9459 7.41064 -6.77029 12
472 1 4.73271 2.6422 -8.63613 18
473 1 6.98333 -11.2531 -7.14722 19
474 1 15.0668 -6.38273 0.529777 9
475 1 1.97965 8.53938 1.06653 21
476 1 14.2167 -7.37684 -2.95233 13
477 1 -4.1759 1.72058 8.01761 20
478 1 -13.6548 -4.104 -3.23202 18
479 1 -13.8564 -4.36195 -12.116 10
480 1 6.06413 -1.34591 9.89761 21
481 1 -4.82659 -12.0146 10.6074 7
482 1 3.83773 4.45562 13.0857 13
483 1 -8.26746 11.7519 -3.82181 13
484 1 8.97599 1.28367 2.79584 21
485 1 6.77424 3.91695 4.06741 17
486 1 0.506258 -2.14557 -17.4011 9
487 1 -11.1245 -3.30103 11.3142 12
488 1 8.23136 0.102086 -12.9449 14
489 1 -0.230922 -11.3674 -4.33357 18
490 1 7.93566 -9.9081 -9.17939 16
491 1 6.46764 2.00057 9.2274 20
492 1 3.47568 -0.231162 5.23504 20
493 1 9.87823 5.31197 10.2902 12
494 1 -0.101077 -5.02826 12.6092 17
495 1 -5.21703 2.29814 14.0281 12
496 1 -0.0845782 -8.25966 -16.1386 11
497 1 -10.1266 1.14105 11.773 11
498 1 2.07677 2.18506 13.1728 15
499 1 11.8078 7.3599 -1.85265 13
500 1 3.8021 -13.8112 2.15515 19
501 1 -7.64254 6.4892 -7.99072 21
502 1 5.92716 8.26545 -3.16006 18
503 1 3.48937 12.5209 5.13043 11
504 1 -4.46524 -4.00739 7.02246 20
505 1 -2.54706 12.7588 -4.49387 16
506 1 4.87134 8.36112 2.53857 21
507 1 -4.57734 -9.52812 -5.63066 19
508 1 -1.43638 -2.85572 -13.8964 23
509 1 -12.8967 8.48823 -4.42043 7
510 1 7.45035 -4.57405 -11.489 17
511 1 3.34632 5.30821 1.67673 18
512 1 7.65015 4.61485 -2.94509 17
513 1 9.82313 11.6459 1.23452 8
514 1 -4.04268 2.68445 4.96117 21
515 1 -10.4479 3.55079 -2.43572 18
516 1 3.3073 7.03266 -4.27666 20
517 1 1.22717 -11.1182 10.5574 17
518 1 -7.05455 5.26009 -15.0726 8
519 1 2.39037 9.41114 10.6947 15
520 1 -1.10913 0.848318 12.4217 20
521 1 6.37476 13.9483 -4.31354 9
522 1 7.15637 4.77938 8.27668 22
523 1 10.6436 -4.54219 -2.34675 16
524 1 -15.2667 0.49044 6.07622 14
525 1 2.80051 -16.8955 -4.86755 12
526 1 -1.57144 -2.11744 -10.3244 20
527 1 2.51945 5.27838 7.06846 18
528 1 6.74856 -5.40943 -3.14173 22
529 1 0.230257 6.90435 2.1074 19
530 1 -12.9062 -0.412774 4.30589 20
531 1 3.19246 -17.3548 -1.76928 13
532 1 6.60193 6.20123 -9.1383 17
533 1 7.02007 -10.8046 8.1264 13
534 1 -4.89924 5.05724 3.17008 22
535 1 4.24208 -2.33069 -16.3678 12
536 1 2.98031 -10.5787 6.76362 22
537 1 4.00947 12.0843 -0.782957 17
538 1 -6.38512 0.893387 16.8887 6
539 1 -11.8262 -7.77799 -11.3056 9
540 1 3.47244 -6.32471 -8.35795 18
541 1 -4.19994 8.43419 11.7994 13
542 1 4.2268 -12.2785 -8.23141 14
543 1 4.55609 -8.08849 6.40144 17
544 1 2.1789 -15.0692 -8.50387 11
545 1 -12.7794 -1.17863 7.86273 16
546 1 -2.29201 0.859533 -8.19498 22
547 1 -6.22856 -12.836 -3.88434 13
548 1 -12.8103 1.71108 11.7609 7
549 1 10.7531 4.48927 -8.4021 17
550 1 -1.32682 2.91305 6.58525 22
551 1 -16.1198 8.27746 -0.437634 7
552 1 8.32613 -1.73519 1.70916 14
553 1 -1.66887 9.90668 -6.98224 18
554 1 8.51861 -0.0458711 -10.0484 16
555 1 5.2944 0.938561 -11.6655 18
556 1 -14.3412 -1.3823 -6.42636 17
557 1 -16.2159 -6.06842 -4.29129 13
558 1 1.22451 8.66698 -14.1594 11
559 1 -6.29131 -0.499918 12.0267 19
560 1 -2.69786 -6.19641 5.00721 22
561 1 -0.646839 -5.103 -11.9184 17
562 1 -7.5366 5.84753 -2.2796 17
563 1 5.15906 6.40696 5.68125 19
564 1 -10.6983 -5.83846 3.30909 19
565 1 8.09681 5.04578 -11.081 14
566 1 -0.755807 -15.7535 0.0939223 17
567 1 3.56045 7.41473 -8.06226 19
568 1 -1.23906 -5.55251 -15.1269 20
569 1 -2.56994 -1.96404 8.15657 21
570 1 1.35055 4.82016 -13.369 16
571 1 -13.8805 -5.00181 0.107379 18
572 1 8.53763 -6.3264 -1.43817 20
573 1 -4.12928 -9.2311 -2.21134 19
574 1 8.52726 5.16661 -6.98299 19
575 1 11.22 -10.7818 -2.31344 21
576 1 -10.1024 4.71753 11.695 9
577 1 8.79738 -10.7807 3.00788 18
578 1 13.2501 -12.8461 -2.07287 9
579 1 11.632 -4.09676 8.56844 11
580 1 -0.126966 5.99359 7.32638 19
581 1 -11.4931 4.88114 8.90442 15
582 1 1.69722 -13.2755 8.68235 14
583 1 11.5606 -1.55027 0.0471604 17
584 1 6.51975 4.52231 11.227 17
585 1 -13.6596 -1.82853 1.79527 19
586 1 8.64776 -8.14626 -6.91985 15
587 1 0.771719 4.38682 3.97185 20
588 1 0.618198 -2.1658 13.2148 20
589 1 -1.29325 8.9716 6.16203 19
590 1 1.8647 -11.1925 3.8436 20
591 1 -7.49719 -5.47934 -2.45341 22
592 1 -1.91047 2.83594 10.4414 19
593 1 5.35261 9.35233 -0.572413 21
594 1 -10.4154 -9.48205 7.75697 14
595 1 7.00997 -6.52019 9.63674 9
596 1 9.90707 -6.29633 1.00595 19
597 1 8.21189 9.00969 4.60705 16
598 1 -1.59988 6.07209 -4.8521 20
599 1 -1.42287 -8.25253 -7.14065 19
600 1 -4.41789 4.92815 -15.2962 12
601 1 -8.19323 -1.10424 14.1801 11
602 1 -4.55767 14.8529 1.61779 11
603 1 12.9085 1.69278 3.37157 12
604 1 0.292015 8.78712 -5.19983 22
605 1 -1.56709 6.26166 10.9116 19
606 1 7.30071 7.67393 10.4951 14
607 1 10.1093 -2.74376 -13.3217 9
608 1 -4.39044 -12.6734 1.88046 17
609 1 -4.66296 -0.632917 -6.68448 22
610 1 13.547 -0.997675 4.44775 9
611 1 1.19348 -3.45979 -8.49669 19
612 1 -1.74803 -7.85084 -3.62363 20
613 1 15.8324 -4.46619 -2.60651 12
614 1 0.251171 -8.12608 13.2334 12
615 1 -3.55353 -5.50991 -12.7341 21
616 1 5.82557 15.0688 -0.928726 9
617 1 -1.49934 -7.84424 3.09466 23
618 1 -17.0562 5.20045 1.11513 11
619 1 9.17422 1.79451 -4.3898 19
620 1 4.34539 -4.94261 -13.5917 16
621 1 -10.3507 9.4616 4.4902 14
622 1 -1.84559 -0.142207 -15.1713 14
623 1 8.10152 -9.00032 -3.61482 23
624 1 -10.5725 0.968731 -1.28551 20
625 1 9.10533 5.44978 0.7083 17
626 1 -13.5357 -10.8968 -0.340532 14
627 1 6.65336 1.79362 13.3735 12
628 1 -10.5119 -6.86658 -6.71369 22
629 1 -13.0103 7.12406 3.72223 13
630 1 -4.50557 2.65529 -8.46705 22
631 1 11.5288 -6.44418 -6.24444 14
632 1 -16.0611 -9.71943 -5.70681 9
633 1 9.00264 -11.9128 -4.58009 20
634 1 -15.9701 2.63162 0.274808 16
635 1 -11.6394 -6.23219 -4.32256 16
636 1 -4.75679 -10.5331 7.42584 19
637 1 12.509 -5.92242 2.73693 16
638 1 6.53866 -5.58402 5.49069 17
639 1 -10.1287 1.77906 4.14607 21
640 1 -1.17574 10.176 11.5073 11
641 1 3.2722 8.41727 -11.2634 17
642 1 -8.07227 11.5695 5.22667 12
643 1 9.1656 9.5071 -6.90447 11
644 1 -0.905419 3.00359 14.486 11
645 1 3.98547 -4.64483 9.92017 20
646 1 3.46158 9.31461 -6.24618 18
647 1 -5.20341 -2.6303 9.94324 21
648 1 -7.23177 -7.15006 -7.99404 22
649 1 -12.332 -0.590009 -4.13269 21
650 1 -3.09712 -12.2506 4.81112 14
651 1 3.13036 -1.4183 11.0265 20
652 1 -1.20352 -13.7648 -4.83652 17
653 1 -17.7518 2.52115 -1.71442 11
654 1 11.4719 -3.03946 -6.4143 17
655 1 -12.8444 6.23209 0.376106 12
656 1 -7.43876 -0.181949 8.38418 20
657 1 -3.85768 -9.9532 -12.1061 17
658 1 1.97183 -14.1825 -3.7983 22
659 1 7.61785 -14.6925 -5.38348 14
660 1 -2.40102 9.49467 -13.0834 11
661 1 13.322 2.73354 -6.20181 16
662 1 8.50872 5.72268 5.3913 19
663 1 10.0666 -1.13909 -3.43134 21
664 1 -1.69121 4.43149 -13.226 15
665 1 -0.424298 -11.0417 4.8924 24
666 1 7.41416 11.6697 -1.98937 15
667 1 2.58954 1.55054 -11.3079 22
668 1 -13.7499 2.28797 -3.32575 17
669 1 0.129554 8.2898 -1.24604 22
670 1 -12.805 -4.17812 8.23908 13
671 1 7.20989 6.343 2.72699 18
672 1 3.01512 -10.1814 1.37889 20
673 1 6.5331 11.0186 -6.3336 12
674 1 -6.66233 6.15679 10.3271 16
675 1 -12.6681 -1.24672 12.515 7
676 1 6.53591 -0.271605 -4.36379 17
677 1 -7.4966 -7.07613 12.9147 11
678 1 8.46192 -9.36568 -1.04699 22
679 1 -2.32672 -3.0956 4.5419 23
680 1 10.6102 1.95764 9.20924 13
681 1 6.26097 -6.76612 -9.71684 19
682 1 -12.2615 -1.67928 -13.6429 12
683 1 -3.06912 2.59322 -11.0365 17
684 1 -15.0075 -0.856045 -3.85429 16
685 1 6.69985 12.1599 0.793544 12
686 1 -5.00862 4.65747 6.3633 24
687 1 -13.2732 -11.3266 -6.06312 14
688 1 -5.25508 4.97791 -0.384077 20
689 1 11.2543 0.673934 6.4802 16
690 1 -4.27374 -9.54692 3.83006 21
691 1 13.2205 -0.923616 -8.46659 12
692 1 3.75453 -12.5638 -0.57412 17
693 1 1.77853 -3.40194 -11.6866 19
694 1 -3.83135 -0.539434 -17.592 9
695 1 -8.77473 -11.3263 2.74802 20
696 1 -7.46063 3.34454 -3.45044 19
697 1 -4.34764 4.71875 11.2126 18
698 1 6.74971 -3.50871 8.31774 18
699 1 -13.2877 -9.4537 6.11851 12
700 1 7.07862 -4.44896 0.340861 20
701 1 -3.97366 5.61619 -10.6783 19
702 1 14.0477 7.82204 3.44513 7
703 2 -11.1075 -0.31735 -13.7352 11
704 2 -9.43589 9.86713 -8.05702 13
705 2 1.8835 -2.33798 -10.1082 22
706 2 -2.34602 2.66645 8.41188 20
707 2 -6.90923 -7.16322 -6.22519 18
708 2 -0.29472 -0.551626 11.2834 20
709 2 -15.4664 -5.73177 0.899651 13
710 2 -14.3334 0.105203 -5.3852 14
711 2 -0.933322 12.9874 4.1273 13
712 2 -13.9384 1.32944 4.83955 18
713 2 9.62026 -2.60574 4.62738 14
714 2 -3.59058 -2.2669 -6.78508 24
715 2 -12.5855 -7.02854 -6.21433 18
716 2 -8.91947 0.0701604 -5.87614 20
717 2 -3.88691 -10.5475 5.65519 16
718 2 2.95431 2.59747 9.51175 21
719 2 6.10297 -3.12443 -11.2393 20
720 2 1.71104 -13.728 -1.96963 19
721 2 6.89227 -2.95158 1.46406 18
722 2 -8.63631 10.7211 -1.86948 15
723 2 -17.5541 3.62572 -3.42449 6
724 2 12.0873 0.588781 4.92032 12
725 2 10.7026 -11.8942 -6.1132 14
726 2 -5.10536 -8.68436 2.31764 22
727 2 -8.95326 -1.06011 2.37669 19
728 2 -5.32283 -14.3343 1.25228 13
729 2 10.2989 -7.54389 6.02072 14
730 2 0.6741 -14.342 -8.93669 11
731 2 2.74001 -2.12235 12.6706 16
732 2 1.52672 11.3504 -9.60732 14
733 2 -13.4808 -12.0801 -1.81849 12
734 2 -0.915852 1.46354 15.5227 11
735 2 -9.66271 5.12661 1.90732 15
736 2 -2.44536 1.17949 11.1297 19
737 2 -7.68842 8.15751 -5.67157 18
738 2 1.17688 -17.9479 -1.60802 10
739 2 -2.3501 7.24327 9.10537 23
740 2 -0.872801 12.753 -7.66672 12
741 2 8.03559 -7.58597 -5.18534 21
742 2 -3.53318 -2.23932 -10.858 20
743 2 1.70217 -5.59844 -8.2422 21
744 2 9.51868 -2.35938 -6.11269 17
745 2 -4.6201 9.17856 7.42386 15
746 2 -1.60331 2.64354 -14.2375 17
747 2 -10.4386 4.4493 -11.5695 12
748 2 8.7796 11.6254 -0.496898 10
749 2 -7.49875 -5.40654 13.559 10
750 2 -10.9537 10.4086 -0.198085 9
751 2 6.94371 0.505408 -10.7277 19
752 2 -1.97418 -9.22169 -11.6654 14
753 2 -13.8038 3.51395 6.77963 17
754 2 7.65801 7.07926 0.853114 18
755 2 -4.7773 10.8584 2.13705 21
756 2 -12.124 -11.2317 -7.54275 14
757 2 -5.71008 13.9871 2.98878 12
758 2 3.08344 -10.9878 10.9014 13
759 2 7.8843 -6.86611 5.28517 18
760 2 -12.2277 -0.721596 2.31252 19
761 2 9.76816 -11.9886 -2.64695 20
762 2 7.92554 -13.0198 -6.35584 14
763 2 5.32644 2.58992 4.42039 17
764 2 5.22476 -14.3326 3.26801 14
765 2 11.2848 -8.15579 3.34166 17
766 2 -8.54626 -0.392932 12.4754 15
767 2 11.0046 -8.1866 -6.72873 15
768 2 1.12535 4.87249 8.57829 19
769 2 10.0965 3.47281 10.2341 13
770 2 -9.77 7.98012 7.94334 16
771 2 0.53537 11.3438 2.55644 16
772 2 14.0443 -11.1682 -1.54294 9
773 2 4.11074 8.08795 -2.36391 17
774 2 -12.3464 -3.37542 -12.8701 12
775 2 -7.67975 0.184799 15.5259 9
776 2 3.55445 -0.302718 -11.3808 20
777 2 -8.66548 -3.36807 -7.04694 20
778 2 -16.6686 1.99243 5.3871 9
779 2 -15.7397 -10.4244 -3.78243 10
780 2 13.948 -0.0196249 2.88835 9
781 2 -3.72637 -9.03964 8.23552 19
782 2 -3.56854 -2.12704 14.8389 12
783 2 8.53628 -1.75034 -13.8323 12
784 2 2.1858 -0.283608 14.3463 16
785 2 -2.59189 4.47059 10.4124 20
786 2 -10.8499 2.11467 2.3613 21
787 2 2.53228 -11.1825 -7.73377 18
788 2 12.2003 -1.59938 -5.29833 16
789 2 -11.8166 7.81354 5.01654 11
790 2 -2.10241 -8.25671 -1.61282 20
791 2 7.19123 -10.8535 -4.01156 21
792 2 4.33921 -3.71166 -5.93354 17
793 2 5.59695 7.60867 7.22068 23
794 2 6.94966 -13.2968 -3.62971 20
795 2 3.38629 -4.78232 11.6788 16
796 2 -2.19166 -9.98321 4.01764 20
797 2 15.3995 -0.955477 -0.200515 9
798 2 -8.97879 -10.9795 7.91569 11
799 2 9.84179 8.51165 -5.51772 13
800 2 -1.16707 -8.80953 1.44359 20
801 2 11.992 -12.6213 -3.45575 12
802 2 3.33902 -13.8123 -7.61787 12
803 2 12.4345 -8.82635 -2.40301 15
804 2 -10.5626 9.69723 2.80589 12
805 2 11.9349 2.91023 -7.80569 16
806 2 -8.29535 -10.0683 -11.0939 13
807 2 -9.43201 -6.08258 4.7774 20
808 2 -1.40729 -12.8927 -2.927 20
809 2 -4.37676 -10.7741 -1.3401 19
810 2 -7.5776 10.9424 3.2866 17
811 2 -12.1636 7.42683 1.86621 14
812 2 4.58493 -1.26087 -8.49121 20
813 2 8.91859 5.02447 -1.23541 19
814 2 0.95396 3.73393 -9.73405 19
815 2 -10.0121 2.9636 11.8603 11
816 2 -0.773083 -3.21294 -18.041 10
817 2 -11.9625 1.20909 -3.90576 24
818 2 -3.82711 -0.354535 8.3792 20
819 2 -13.4343 5.23138 4.46483 17
820 2 -5.83476 1.99038 -5.80765 21
821 2 6.82035 8.75314 2.9848 19
822 2 7.78823 0.832518 -5.11198 18
823 2 10.8508 -10.2021 -4.22634 19
824 2 -13.8389 -0.348247 10.7936 11
825 2 8.11069 -0.270168 2.97092 18
826 2 -4.4683 6.07276 1.4242 22
827 2 -11.8273 1.86305 -10.5006 12
828 2 -4.96148 2.10945 9.7152 20
829 2 10.5931 -2.8652 9.92792 12
830 2 -12.6597 -8.05014 -9.71988 14
831 2 2.36303 4.01855 -14.8369 12
832 2 10.1456 8.10552 -2.1961 13
833 2 -13.0498 -5.97881 7.96681 11
834 2 1.47326 6.33323 -2.14244 19
835 2 -4.59191 9.80603 -9.84757 17
836 2 -1.71853 8.09023 -4.27338 21
837 2 7.92889 -1.66142 11.2664 15
838 2 -0.068116 1.93642 9.77616 18
839 2 9.11443 -5.39815 -3.15706 18
840 2 -6.15627 -1.79994 13.6824 17
841 2 -1.13597 -5.58957 6.26031 21
842 2 -10.7277 -1.7257 -4.88612 17
843 2 -5.61984 -9.80129 -11.9003 13
844 2 7.18801 -10.7497 -0.951332 23
845 2 1.89708 -1.64704 -13.5961 20
846 2 14.2633 1.45118 -0.542161 14
847 2 -1.43576 4.59002 13.626 14
848 2 3.37571 1.35971 -13.648 21
849 2 -9.39841 -7.125 12.3933 8
850 2 -2.95077 -1.62184 -14.042 19
851 2 1.27388 -10.6002 -2.47193 20
852 2 -0.783791 -9.44969 -4.20705 20
853 2 4.81632 -13.6148 0.343255 16
854 2 10.6226 5.57838 -6.74264 19
855 2 -8.73351 1.74548 -13.1809 14
856 2 -6.13522 11.3546 5.45843 14
857 2 -9.58026 -10.9393 -2.37377 18
858 2 -8.47256 -1.73937 -14.2199 13
859 2 7.40768 7.56676 -10.7279 12
860 2 -5.2616 14.996 -3.51423 11
861 2 -8.28174 -14.3427 2.69691 12
862 2 12.9224 -2.63769 -0.13104 15
863 2 0.272957 1.815 13.1111 17
864 2 -11.2655 -13.1404 -2.61393 16
865 2 3.64561 -13.4059 -4.52366 18
866 2 -0.497355 -1.48682 14.7873 16
867 2 2.51184 10.0731 6.73864 17
868 2 13.9609 0.478762 -7.22592 13