ITEM: TIMESTEP
1000
ITEM: NUMBER OF ATOMS
2000
ITEM: BOX BOUNDS pp pp pp
-30.0 30.0
-30.0 30.0
-30.0 30.0
ITEM: ATOMS id type x y z Coordination
1 1 -12.0317 5.4979 -12.8249 6
2 1 -3.59271 -9.58213 -9.52732 19
3 1 1.94393 15.5461 12.6839 12
4 1 8.67517 -10.8236 6.17754 12
5 1 -11.0854 7.29179 -1.74974 22
6 1 9.64317 -11.8876 -9.59458 13
7 1 -11.0019 2.16497 -8.43664 18
8 1 1.07185 -9.90836 8.86872 18
9 1 -7.80625 -1.86404 -11.9413 19
10 1 -10.6406 -11.7938 4.79252 12
11 1 16.1425 1.63118 -9.36312 11
12 1 -2.78172 -10.236 3.15271 19
13 1 -10.9393 -9.40759 2.05124 16
14 1 3.06344 2.53175 16.8938 15
15 1 1.0918 4.48052 9.59953 21
16 1 -1.83376 9.46779 -12.4126 19
17 1 3.67452 -2.26341 11.5654 19
18 1 -7.93343 2.06979 -13.2018 16
19 1 -13.4363 -7.32181 8.61696 11
20 1 15.2147 3.73192 8.12037 13
21 1 1.75757 10.4727 -12.1769 18
22 1 7.63602 4.08767 -13.9858 17
23 1 14.3004 5.1939 10.9119 18
24 1 -13.0561 3.90425 -8.61315 14
25 1 -9.8661 10.1899 6.6567 13
26 1 7.15016 -12.8473 3.52217 15
27 1 4.10647 -14.613 -13.7345 6
28 1 10.4071 -11.6183 -1.65561 15
29 1 -7.43645 -13.172 -7.8027 10
30 1 -11.0295 -5.91878 10.8076 14
31 1 -0.170972 -6.43746 -13.3663 17
32 1 11.7245 -8.99636 -10.0096 12
33 1 0.424135 4.91128 -16.7284 17
34 1 1.64776 3.66345 13.737 20
35 1 0.62304 -12.6093 7.45197 15
36 1 4.65288 -5.38141 12.8143 12
37 1 -10.4077 -0.935499 -0.200939 22
38 1 -11.8001 -2.23022 8.31852 15
39 1 -1.36707 12.321 -3.35021 17
40 1 1.32902 -12.672 -12.9993 13
41 1 8.77192 -3.72706 -9.82522 18
42 1 -1.99051 -4.05125 13.9035 16
43 1 -11.467 6.65718 1.41702 18
44 1 3.79358 12.8842 -11.2367 13
45 1 1.96456 12.2479 12.8601 19
46 1 -5.89603 7.16561 -8.5745 21
47 1 0.233861 13.808 -0.772397 19
48 1 3.26688 -10.2364 3.54457 19
49 1 6.44377 -8.50079 -4.86463 20
50 1 3.90014 -3.48435 -16.4342 19
51 1 -7.80297 8.50202 8.83293 17
52 1 -11.6868 -4.23451 -7.8138 19
53 1 -5.23745 7.73905 -5.19232 21
54 1 -7.75127 -7.15875 5.41892 21
55 1 -0.751318 17.3427 11.5694 7
56 1 -10.5458 5.04293 -7.01961 23
57 1 -6.71221 9.9798 12.0604 13
58 1 -1.76589 -16.8195 9.17124 10
59 1 6.18361 -13.7139 -5.64276 17
60 1 4.17988 14.5643 13.8266 12
61 1 -12.5804 0.724139 -10.3668 13
62 1 -13.2112 7.23172 -6.92959 14
63 1 5.65105 7.11979 11.451 22
64 1 14.9016 -3.5319 -9.94811 13
65 1 8.45419 -10.3945 2.19496 17
66 1 -13.224 -4.4121 6.72041 16
67 1 5.09273 15.1023 2.93843 16
68 1 5.8354 -2.25991 13.723 14
69 1 -7.20572 -11.2582 6.05134 19
70 1 11.3848 2.78688 7.16562 20
71 1 -2.12498 14.265 8.72312 16
72 1 -1.91488 -7.50343 -8.22385 20
73 1 -10.7517 7.5981 8.9871 16
74 1 -7.36947 12.4088 -0.520249 20
75 1 -0.0622004 7.58254 -8.4171 20
76 1 14.3459 8.82392 -6.48707 23
77 1 5.94245 -9.20214 7.90955 15
78 1 -2.59359 14.8598 -2.71466 19
79 1 -9.57183 12.6286 5.40714 11
80 1 -6.38651 -4.35784 13.7213 23
81 1 -1.95163 9.47677 4.58831 22
82 1 -4.93478 -6.54201 9.78035 20
83 1 12.4548 -7.73338 -5.37535 15
84 1 -7.80244 4.11851 4.99645 21
85 1 -8.91268 -14.5832 3.60734 12
86 1 8.87519 -9.29028 -7.2144 18
87 1 9.87066 -2.01158 -14.5105 18
88 1 -6.36994 1.03456 -15.3358 12
89 1 -0.0632834 11.7384 1.62056 21
90 1 -7.60242 3.9455 -8.64366 20
91 1 2.19468 11.3533 17.5193 9
92 1 0.378643 13.2631 -8.52351 17
93 1 -13.7108 11.3301 0.0701542 12
94 1 -4.59045 -6.53543 6.48389 22
95 1 14.8451 -1.81076 10.4317 9
96 1 5.99069 -4.14658 -11.5038 21
97 1 5.50548 -0.560129 16.6021 11
98 1 -7.98227 -7.03753 -1.56571 20
99 1 -7.64672 -6.20632 -4.73373 20
100 1 11.6183 -9.33176 0.90124 12
101 1 10.3206 5.13702 -13.9425 11
102 1 10.0271 16.6191 -3.19396 13
103 1 -7.23858 -12.2159 12.3714 10
104 1 -8.70608 -14.1407 10.234 9
105 1 6.61776 -5.41838 -16.9699 10
106 1 11.7872 -8.95538 -2.53905 17
107 1 -0.292605 -17.8801 7.26808 9
108 1 -8.31094 -9.31281 0.200986 16
109 1 16.2089 8.36536 12.0934 11
110 1 16.7075 -3.48914 -6.7062 12
111 1 -13.3859 -7.04918 5.43524 14
112 1 11.8407 7.43324 4.3718 22
113 1 13.9112 11.513 1.56004 12
114 1 -5.3796 3.98089 15.2807 12
115 1 -4.94703 10.3052 10.2098 18
116 1 -3.52239 13.2882 -5.17613 17
117 1 1.07922 -7.23848 -9.86382 19
118 1 7.14084 -12.9283 -12.3553 10
119 1 1.07444 14.2797 -11.9329 10
120 1 8.65989 -3.89976 10.0867 18
121 1 0.455409 1.20399 -18.2315 13
122 1 -3.46261 8.99503 -8.90196 20
123 1 10.8011 1.3405 -6.19049 19
124 1 -7.8382 9.48952 -4.76444 24
125 1 -5.12644 13.3313 -2.05745 22
126 1 8.75619 1.38841 -10.0899 19
127 1 9.34544 -7.98718 4.82517 19
128 1 -4.32828 15.9361 6.7225 8
129 1 17.051 8.07026 -9.52494 8
130 1 6.51949 13.8817 -2.93543 20
131 1 -5.53016 17.071 1.21519 11
132 1 14.3097 6.08462 -4.75835 20
133 1 -2.04413 9.33383 -5.51039 20
134 1 0.31846 16.2855 -9.45885 11
135 1 5.34423 9.93335 -13.4467 19
136 1 -10.3883 -11.7622 1.3571 14
137 1 -14.2117 7.71496 -0.160453 14
138 1 -5.21984 -0.718899 -13.3752 20
139 1 0.281116 -6.44788 -16.9586 13
140 1 11.2249 13.3375 6.05786 13
141 1 2.6426 14.4805 1.62262 22
142 1 -11.3504 -4.17973 -4.71334 22
143 1 -10.9683 13.4266 -0.589012 12
144 1 15.6369 -1.17055 -1.45858 15
145 1 -11.2041 2.26795 -14.5847 9
146 1 9.15794 5.1017 17.8922 11
147 1 4.83797 17.4266 0.603248 15
148 1 -1.99241 9.78619 8.18854 19
149 1 2.15866 -4.99951 -20.5242 5
150 1 0.263989 13.1139 8.10927 19
151 1 -2.75684 13.1658 -8.17457 20
152 1 3.44796 -4.69572 9.94814 19
153 1 -10.6876 -6.10319 0.771088 22
154 1 3.37304 -7.47234 -14.7755 19
155 1 -7.2204 9.61492 -7.50756 20
156 1 -2.0536 -12.8396 5.0302 19
157 1 3.25179 -13.1624 -4.32681 18
158 1 -1.72583 10.0549 -15.6113 12
159 1 -11.1293 2.24507 7.7553 20
160 1 11.6111 7.00862 -4.96295 23
161 1 -5.48572 6.67495 14.672 11
162 1 0.221845 -12.3799 10.4916 13
163 1 2.64696 17.796 -2.30606 13
164 1 -0.0747605 7.10068 8.4244 20
165 1 13.6497 6.52272 14.0166 15
166 1 -8.32733 11.9988 2.28433 16
167 1 14.2254 -5.09953 -7.14421 16
168 1 -4.44692 16.0446 10.1459 9
169 1 12.5679 -6.44581 3.41779 18
170 1 -14.4067 1.5908 3.29441 11
171 1 -4.94644 -12.5772 3.38909 21
172 1 5.29201 7.8487 15.3983 15
173 1 -13.9645 0.921473 -3.23341 13
174 1 -2.35564 -12.5833 -1.50126 21
175 1 1.16446 9.5584 3.18349 23
176 1 4.99226 15.6441 10.4905 9
177 1 -6.37922 12.5383 -9.45381 11
178 1 -14.4993 -4.03002 -6.45987 10
179 1 -7.83959 -7.27366 11.5755 17
180 1 1.05113 -12.0339 3.84551 16
181 1 5.34638 -15.3717 5.96933 10
182 1 -11.7013 12.951 2.70219 12
183 1 14.7072 3.77827 4.91996 19
184 1 -6.06866 -4.35598 -17.8257 11
185 1 5.20805 0.498665 12.1172 16
186 1 5.94319 -17.4607 -0.723658 10
187 1 1.01933 5.15653 -13.5596 19
188 1 3.12346 -4.84216 -13.2066 18
189 1 12.416 -0.64068 -13.7474 14
190 1 5.5112 8.02774 -16.1669 12
191 1 -6.08776 -4.35713 -8.17435 20
192 1 -4.84156 15.367 -7.17827 11
193 1 -10.7159 -11.5269 12.381 10
194 1 7.47539 17.3635 -4.64382 18
195 1 -4.80262 0.468018 15.103 15
196 1 -8.74305 12.5946 -3.40392 16
197 1 8.45664 1.30316 10.223 19
198 1 3.76187 -6.0558 -17.4276 13
199 1 -4.52018 10.3757 -6.42058 18
200 1 3.5516 6.55383 -10.4337 18
201 1 -6.08816 -9.42266 8.10129 20
202 1 -7.43664 4.95351 8.47288 17
203 1 -5.38503 7.59838 8.21844 21
204 1 -0.109777 -9.28272 -4.97902 22
205 1 -5.32118 -14.04 -2.39537 14
206 1 11.5829 -13.3924 -4.95795 11
207 1 10.6163 8.81364 14.0079 13
208 1 9.11831 9.51088 -5.56179 22
209 1 -0.222324 16.1761 -3.10403 15
210 1 -10.8596 2.05759 1.59803 21
211 1 -13.0314 9.74215 -2.8151 15
212 1 3.05161 6.73729 9.68699 21
213 1 3.0435 -18.4172 -1.75414 8
214 1 11.2649 -3.8028 -1.54787 21
215 1 -8.57883 6.98902 6.38545 18
216 1 -10.6399 -6.99487 -5.94201 20
217 1 8.9216 6.11856 -11.4196 21
218 1 5.95072 -3.708 8.2346 19
219 1 11.512 9.96444 -7.35318 21
220 1 0.933975 -1.06034 -13.2344 22
221 1 1.4397 -17.4699 3.70674 12
222 1 9.7969 -0.561741 -8.23761 23
223 1 -11.0171 -6.36942 7.01115 19
224 1 3.40171 -15.7933 -2.98513 14
225 1 -8.43306 -5.10485 -10.3357 18
226 1 5.82936 16.9167 -7.27735 10
227 1 0.919291 -0.81166 -16.576 17
228 1 3.76932 5.39178 14.1908 20
229 1 14.678 3.74248 1.14057 15
230 1 11.8031 -5.97041 -11.2284 14
231 1 -5.54254 -3.35129 -11.0156 20
232 1 -10.9612 -2.80867 -10.0887 22
233 1 -5.809 -12.5939 9.22788 20
234 1 12.4699 -0.129376 12.0083 17
235 1 -5.44557 -7.08313 -15.5785 15
236 1 3.55096 7.07942 -13.2748 21
237 1 3.05583 12.1812 -0.482586 18
238 1 -4.32248 -4.76455 11.8073 17
239 1 -11.0925 -6.23386 -12.0541 15
240 1 -4.73586 -6.68245 -9.64644 15
241 1 0.0280111 7.78259 -15.1758 18
242 1 -6.61102 -10.0249 -8.92438 19
243 1 9.32338 -3.07295 -17.4157 8
244 1 15.5037 -1.16965 -8.35543 17
245 1 12.519 4.17992 3.18189 23
246 1 -7.21195 -6.34066 7.79514 20
247 1 -2.45883 -9.77879 0.20726 22
248 1 7.85624 7.79836 17.3224 17
249 1 -3.76592 -15.1439 4.42073 19
250 1 0.683092 -11.8791 0.262334 18
251 1 -4.8218 19.6252 -3.71691 4
252 1 6.14472 1.90102 -15.5579 21
253 1 -10.5502 -3.69367 -13.0923 15
254 1 -9.78099 -6.16656 13.7965 14
255 1 4.23875 7.62103 18.2025 13
256 1 0.145135 -11.7846 -3.18373 21
257 1 -6.91288 -8.98731 -12.3322 14
258 1 -8.55984 7.86747 -9.76739 14
259 1 12.1359 5.30265 6.82658 19
260 1 -4.22397 4.45768 -10.052 24
261 1 0.674238 7.73524 -11.6661 22
262 1 2.56232 -10.7433 -15.6081 9
263 1 -4.92714 16.8273 -1.74741 14
264 1 3.98551 9.71338 5.00003 23
265 1 11.7518 1.51031 4.90634 19
266 1 -9.93202 -0.94341 3.09975 23
267 1 -5.38419 -9.69351 13.8223 11
268 1 -4.61798 10.4372 2.98337 19
269 1 4.28081 -2.49384 -13.9537 22
270 1 15.2261 10.2156 -3.72027 16
271 1 6.36747 -9.36894 -1.31794 20
272 1 -1.86387 -1.04567 15.9413 13
273 1 -11.4032 -9.25846 6.93119 16
274 1 0.589034 -14.8502 -4.65402 14
275 1 -9.06503 8.97084 14.7762 5
276 1 -8.4894 5.44994 14.0927 12
277 1 -13.3249 0.0508685 8.68322 9
278 1 -12.2821 -9.73743 9.88637 12
279 1 12.7203 -2.09474 -3.45699 17
280 1 -11.792 -8.6636 12.7391 9
281 1 11.9198 -3.3626 -8.45271 20
282 1 8.37083 -11.7713 -6.1023 22
283 1 1.24408 20.0256 -4.08493 7
284 1 -10.191 10.2921 -2.32551 17
285 1 11.5421 10.2704 11.1301 15
286 1 8.74003 -9.6136 -3.37142 20
287 1 -2.76832 12.6254 3.03684 22
288 1 6.4238 -12.4627 6.81703 12
289 1 12.4295 -3.00163 4.87465 20
290 1 -1.16535 5.70973 11.7678 21
291 1 0.0271127 2.0557 15.0633 18
292 1 -0.459783 14.754 2.49271 18
293 1 8.73025 10.1678 15.3808 15
294 1 -8.73283 12.0963 -6.92469 11
295 1 -0.0647481 -1.71692 -19.6399 10
296 1 4.80622 -7.62077 -12.2771 19
297 1 -9.25641 2.20419 12.9592 14
298 1 -13.7255 4.32839 1.74649 14
299 1 -4.8077 10.0861 -0.205044 20
300 1 8.95606 -1.65221 8.36198 21
301 1 -8.28177 -13.1802 -1.11736 11
302 1 8.80205 -8.08568 7.74658 14
303 1 -8.50932 -9.59762 13.4237 12
304 1 -13.8771 9.61397 2.68256 12
305 1 3.15211 -9.79628 -6.48819 22
306 1 -2.30219 -2.06005 -11.6956 23
307 1 11.6573 -4.17686 -14.7846 10
308 1 3.18194 11.6669 2.97732 22
309 1 -10.4577 -1.08345 -3.28866 22
310 1 5.83854 -5.13342 -14.4009 22
311 1 13.5574 2.09756 -11.3434 13
312 1 -4.30906 -12.6986 -13.9191 10
313 1 -13.36 -7.7954 -3.85488 14
314 1 10.9407 7.14187 16.1574 13
315 1 12.1902 3.92321 -3.64229 20
316 1 -8.60725 1.02095 -10.1607 18
317 1 7.91789 18.794 -0.957534 10
318 1 -11.1389 1.71066 -5.31088 21
319 1 -5.63476 7.19696 4.86014 22
320 1 -10.4758 10.269 0.63867 21
321 1 -2.79602 7.57388 9.62524 22
322 1 9.24597 4.07899 11.4816 21
323 1 13.4132 -1.98077 -6.18383 20
324 1 7.49954 -4.87477 12.8271 9
325 1 13.5444 0.78725 -7.80019 20
326 1 -5.13995 -14.2615 -5.14266 14
327 1 -8.1512 0.758614 -6.9389 18
328 1 2.89213 -9.95001 -3.11234 21
329 1 11.9799 -0.677605 6.47245 21
330 1 -8.92074 -4.76688 -6.66396 20
331 1 -5.69273 -9.39407 4.29541 18
332 1 -6.34805 -7.14887 13.9038 15
333 1 -2.62376 12.3539 -0.122523 17
334 1 -12.8527 -10.9471 -3.55566 9
335 1 6.94985 12.8966 15.1047 11
336 1 -7.99054 6.46314 -0.342022 20
337 1 -0.654442 10.4821 -9.81189 19
338 1 5.77224 12.6111 4.89086 17
339 1 -13.2547 -6.86548 -0.589776 15
340 1 -3.20747 -10.0892 -6.22582 21
341 1 -9.94562 -1.0128 6.00048 21
342 1 -11.2919 7.07797 -4.81668 20
343 1 5.77003 -10.0168 4.93884 18
344 1 -5.0925 -11.4675 -3.48158 23
345 1 8.41028 11.7832 6.37718 18
346 1 9.00824 8.35014 -14.8835 8
347 1 -12.1349 6.98329 -9.80661 12
348 1 -1.48862 14.1586 -10.9711 13
349 1 -8.12048 6.75176 -6.3902 21
350 1 -1.68486 -12.8819 2.02278 23
351 1 14.7554 6.82331 6.35333 20
352 1 2.78098 9.62489 -15.0822 15
353 1 -13.8984 1.31232 0.0978013 13
354 1 -4.62141 -12.6028 6.61286 22
355 1 7.08306 -10.3476 -10.7512 18
356 1 -11.2275 1.63717 4.72133 19
357 1 -12.2869 -2.45873 11.8652 9
358 1 -13.1803 6.28683 6.85266 15
359 1 -6.68615 6.91704 -14.4586 12
360 1 5.7589 -10.6922 -7.59376 21
361 1 -1.3865 -7.74136 -11.5076 18
362 1 -1.46306 -5.31542 9.58332 20
363 1 -3.68869 2.68702 -16.663 14
364 1 8.61229 -13.0776 -2.87128 18
365 1 3.46387 12.4341 -6.49954 20
366 1 -11.9647 10.2774 4.01542 16
367 1 -4.60807 -3.26864 15.9084 17
368 1 -13.667 -5.05401 -9.78233 15
369 1 -8.65375 -3.94166 6.78831 21
370 1 8.69858 -5.09037 6.33508 20
371 1 11.7614 -8.57834 6.319 10
372 1 17.5583 7.62198 -5.54819 13
373 1 -1.60854 0.255747 12.9622 23
374 1 3.86745 11.8158 -3.07944 21
375 1 -4.54364 -11.9141 -7.37474 18
376 1 -2.33682 4.97539 15.1705 15
377 1 0.0828272 11.6567 5.09406 22
378 1 -8.80375 -11.1775 -10.9926 12
379 1 10.4485 16.0497 -6.04312 10
380 1 5.85207 6.71985 8.34344 22
381 1 -5.71573 2.03568 8.38975 24
382 1 -8.78859 2.18445 9.85406 19
383 1 -7.56495 -7.04409 -7.73288 20
384 1 -4.41846 9.59941 6.4395 20
385 1 -7.08085 -13.6028 -11.6333 10
386 1 0.867451 -3.56022 -14.9821 19
387 1 -5.61302 -8.71383 1.37928 22
388 1 9.3628 -1.42444 11.9578 15
389 1 -3.65269 -6.71804 15.0842 13
390 1 -6.84653 5.06507 -11.7057 17
391 1 11.5254 6.3793 0.858428 20
392 1 -7.76045 -12.7136 -4.52307 13
393 1 0.79445 16.9533 -0.0245001 15
394 1 -1.39604 12.1028 11.3842 20
395 1 -13.5696 -1.2574 -5.03043 14
396 1 -1.95968 18.9462 -5.56594 10
397 1 6.18852 8.83995 -7.3582 19
398 1 -4.79363 -7.25169 -7.05358 23
399 1 5.65222 5.22294 16.8327 21
400 1 -1.14478 -11.6329 -15.1386 10
401 1 2.80085 -4.69567 -9.93153 18
402 1 4.92373 -14.3982 -0.166545 17
403 1 -7.1773 9.8363 4.90768 20
404 1 1.92781 6.81145 11.8853 20
405 1 9.44161 9.20164 -1.63255 23
406 1 -6.47247 10.1641 -11.5615 9
407 1 -14.5432 -4.39134 0.318035 13
408 1 2.2621 16.6625 4.65986 10
409 1 -4.45486 4.5706 -13.403 21
410 1 16.0457 8.05202 -1.69933 16
411 1 6.0324 11.3605 -9.80466 16
412 1 15.4552 1.21624 0.00251762 13
413 1 0.0944003 1.62016 -11.7722 17
414 1 2.27486 -16.3332 6.60251 13
415 1 -0.0805279 -9.54719 11.6532 12
416 1 -9.8234 5.15688 -10.156 15
417 1 -9.31683 -13.2924 6.73165 12
418 1 -3.97787 -9.47567 -13.2638 16
419 1 9.8379 15.1967 3.60585 11
420 1 3.36344 3.60692 -12.5258 20
421 1 2.92857 -1.06605 15.7417 10
422 1 -11.445 2.80396 10.8328 14
423 1 -1.67031 -15.3599 -0.38002 19
424 1 -11.5772 -3.6399 -1.47291 23
425 1 15.5798 -6.50997 -4.95153 10
426 1 12.4338 -0.509435 -0.679561 18
427 1 7.37655 -6.47937 -6.15328 18
428 1 6.28659 1.4348 -12.0242 20
429 1 10.0436 -6.23886 -9.18651 16
430 1 -5.35139 -0.758863 17.7294 10
431 1 7.59669 15.858 0.400751 17
432 1 -4.59936 -1.88017 -16.558 15
433 1 7.70927 2.97997 -18.0901 8
434 1 -5.42741 -3.75239 7.94414 21
435 1 -2.49832 16.2762 1.55547 14
436 1 -7.39586 -2.20565 -15.2412 14
437 1 -13.3461 -1.51448 1.74732 17
438 1 -3.75896 -6.58056 -18.3119 10
439 1 -3.98517 -10.2584 10.3228 18
440 1 2.98681 9.81053 -8.63819 17
441 1 16.089 3.82495 13.5478 9
442 1 16.7758 5.83242 -0.399385 11
443 1 -11.2044 -12.4345 -2.26561 11
444 1 -2.28575 -0.461248 -18.0175 14
445 1 -7.09834 11.0993 7.67496 15
446 1 14.4923 -5.09624 5.1689 12
447 1 2.67885 15.1193 -6.92883 15
448 1 16.9041 4.21114 -9.75372 10
449 1 3.22246 10.0276 14.6031 15
450 1 -8.29461 1.29064 6.7254 20
451 1 6.97382 9.80909 9.97474 21
452 1 6.61171 2.55045 16.9367 13
453 1 0.685179 2.08189 -14.9937 18
454 1 0.103415 -1.90562 13.7273 15
455 1 8.72506 11.6682 3.35651 17
456 1 9.11503 8.14378 -9.03703 21
457 1 -5.95185 15.6872 -4.26263 13
458 1 1.24802 14.302 -4.01666 18
459 1 11.4322 -3.43287 11.5492 11
460 1 10.946 3.63296 -11.5491 19
461 1 12.3959 -11.1582 -4.5696 10
462 1 14.6559 10.7366 9.89752 15
463 1 -13.2962 -6.91506 2.35702 16
464 1 -4.04835 9.71877 -14.066 16
465 1 -10.015 -0.536344 13.5249 14
466 1 -3.784 11.3541 -10.6916 16
467 1 4.23935 -11.8834 -1.18992 18
468 1 6.98063 -1.78962 -10.0725 23
469 1 -1.57613 15.4247 -5.91835 19
470 1 -7.71397 -5.078 -15.203 11
471 1 6.65642 -15.7716 2.64389 14
472 1 -10.565 -6.66988 -2.58658 20
473 1 3.27087 12.5688 -14.182 9
474 1 -3.6509 11.3516 13.3995 12
475 1 -7.41508 -4.17174 10.1551 19
476 1 4.00464 -7.21744 -8.18536 19
477 1 3.41036 -8.19676 10.7576 12
478 1 -10.9809 7.06694 4.33117 16
479 1 7.06453 5.76819 19.7875 10
480 1 4.0743 18.3165 -5.34081 12
481 1 11.3488 -4.58973 -4.92692 20
482 1 3.96078 9.43138 11.7538 18
483 1 1.58448 4.50884 -19.2709 10
484 1 -2.26222 -13.8603 10.2914 15
485 1 8.73206 0.37664 -15.741 14
486 1 4.9623 13.6916 0.245463 16
487 1 12.1201 6.73795 -11.5722 13
488 1 -0.04502 -3.83259 -11.4494 19
489 1 -6.79634 -9.40889 -5.63463 20
490 1 -13.7594 -4.40867 -13.5616 8
491 1 14.4393 6.22421 2.7131 20
492 1 14.5759 2.84624 -2.63735 17
493 1 6.93968 -7.78246 -9.36486 15
494 1 13.3178 8.3586 11.7262 16
495 1 3.68053 -12.8264 -8.22524 15
496 1 3.89066 4.72167 -17.7686 13
497 1 10.8398 12.4298 1.53726 18
498 1 9.17058 11.8802 12.6309 14
499 1 11.4513 6.21756 -2.07123 21
500 1 14.4867 -1.6989 1.58619 17
501 1 12.525 6.74749 -8.08212 20
502 1 7.60005 6.55631 14.1348 22
503 1 17.1332 5.52341 10.6253 8
504 1 18.81 9.92085 -2.84814 8
505 1 2.17996 0.464267 12.6097 23
506 1 16.2939 -0.63454 -5.09866 16
507 1 10.489 0.360146 9.26266 19
508 1 -4.94426 -0.861751 -10.1428 19
509 1 17.4917 6.20086 4.32685 6
510 1 -9.27644 7.92831 11.857 14
511 1 9.3177 12.5893 8.98038 14
512 1 11.8982 2.45378 10.8975 19
513 1 3.96164 9.35322 8.57955 18
514 1 2.11296 15.9517 8.08905 12
515 1 -1.11563 -15.4864 2.92605 17
516 1 -4.29236 10.3579 -3.76039 19
517 1 14.7944 10.8141 -8.9363 10
518 1 12.4034 -3.33423 -11.7361 18
519 1 4.69357 14.9234 -4.64513 22
520 1 -4.42801 -12.3145 -10.4949 17
521 1 10.5716 -8.44511 -13.2165 8
522 1 -12.7244 4.1115 5.02756 18
523 1 -4.49954 7.45024 -11.7971 19
524 1 -4.15187 -16.0106 1.32992 13
525 1 -5.95328 2.11606 -11.6729 19
526 1 -10.4038 4.35233 -3.42038 20
527 1 9.63343 -7.19006 1.33756 21
528 1 11.6989 10.6166 5.46598 22
529 1 1.53699 -8.66778 5.26838 16
530 1 -14.4714 -1.89815 -8.68766 13
531 1 4.45383 2.11222 -19.7574 10
532 1 -3.18094 3.22199 12.3325 17
533 1 7.83111 9.39107 -11.9914 16
534 1 14.6401 0.816878 12.6856 12
535 1 9.72416 4.84284 -8.63616 24
536 1 12.2219 13.9081 -4.15775 12
537 1 1.23484 -11.8681 -10.1071 15
538 1 -9.30467 -3.7521 12.2602 18
539 1 14.9459 -1.49617 5.02336 14
540 1 0.236474 14.3345 10.485 19
541 1 10.7462 12.794 -6.53866 19
542 1 -11.5186 10.4316 -5.51826 13
543 1 12.0147 11.7297 -1.21502 17
544 1 -8.5685 -10.1914 -3.32246 16
545 1 11.597 -3.71957 1.72982 16
546 1 7.57392 13.6367 1.935 15
547 1 -4.39182 4.78274 10.1685 21
548 1 -8.07978 -7.66105 2.19844 20
549 1 -7.89096 -1.54249 -8.78015 20
550 1 7.80634 0.927332 14.5304 14
551 1 1.1836 -4.86104 12.1022 14
552 1 10.6462 6.57664 12.6712 19
553 1 -5.23944 13.726 1.18914 22
554 1 3.1534 1.66245 -16.3773 17
555 1 -7.2488 -0.919337 8.62625 21
556 1 9.81216 -1.27798 -11.255 20
557 1 11.5575 -10.9525 -7.9235 11
558 1 9.24764 3.95048 8.46588 23
559 1 -6.97369 -1.45549 14.5354 20
560 1 9.75669 9.04918 8.41784 21
561 1 -1.61837 -2.67945 10.9207 18
562 1 -3.01001 8.22318 13.1623 16
563 1 -1.63873 -4.18774 -19.1071 14
564 1 -5.82261 1.58537 11.2857 17
565 1 6.1749 4.20748 13.3219 21
566 1 -6.53958 -14.5517 6.04238 16
567 1 16.7821 5.17833 -3.9087 12
568 1 8.80887 -14.8468 -5.69295 11
569 1 8.30826 11.679 -0.665472 19
570 1 10.6045 16.5059 0.751988 10
571 1 6.24947 0.484468 -18.4399 13
572 1 6.41097 11.8246 -5.88155 24
573 1 12.6018 8.74829 -2.04947 18
574 1 -5.77529 -8.89394 -1.65343 22
575 1 -2.04969 -2.219 -14.8726 18
576 1 -7.23809 9.59467 1.44789 18
577 1 7.4089 -7.36222 -12.9289 15
578 1 13.5253 8.63287 -10.1067 13
579 1 12.0397 10.6672 -4.01467 20
580 1 12.8345 3.30738 13.3733 16
581 1 10.325 1.56171 13.4238 14
582 1 -2.08739 -10.8934 12.9618 10
583 1 -2.13251 6.79568 -13.589 21
584 1 3.17843 11.8953 6.77251 22
585 1 7.63142 -8.04127 -15.2222 9
586 1 8.2245 14.2079 -7.9998 14
587 1 9.55101 9.12964 5.21378 21
588 1 15.9726 -6.85291 -1.55683 10
589 1 5.81684 10.3754 17.2535 13
590 1 -13.1704 -1.21839 5.32692 17
591 1 3.79221 -13.537 2.27285 14
592 1 -8.31752 15.2846 0.795769 11
593 1 6.58838 9.47087 3.11662 20
594 1 -11.5326 -3.47313 1.74899 21
595 1 1.04898 4.52055 17.0843 15
596 1 -2.51388 6.08688 -16.3691 16
597 1 -4.68906 8.26192 -16.9201 8
598 1 7.31585 -11.8649 0.135116 17
599 1 8.61645 6.6886 -6.60454 20
600 1 -12.3135 6.52489 10.412 10
601 1 7.35289 -1.90131 -13.1532 23
602 1 3.50644 -13.5098 7.78556 11
603 1 3.37879 15.0325 -1.74014 22
604 1 -2.76209 1.85652 16.0741 12
605 1 -9.19196 -8.14808 -10.3752 15
606 1 -1.92758 -4.99913 -15.8877 19
607 1 -7.04453 -11.2463 -14.0299 11
608 1 -2.35221 16.5932 -8.59354 13
609 1 -2.8003 12.0637 6.22072 17
610 1 3.48399 -9.9033 -10.0998 21
611 1 6.25513 -14.5883 -2.865 16
612 1 3.17448 -7.49681 7.87285 23
613 1 16.9806 1.89948 -6.61599 12
614 1 1.0874 -12.0481 -6.40387 18
615 1 -10.772 -3.85459 4.44365 20
616 1 -2.62936 -18.4569 -0.824249 7
617 1 -9.96765 -9.49301 -7.40213 15
618 1 -9.66861 -3.30754 15.8858 9
619 1 -6.29487 -14.0585 1.18561 16
620 1 17.1146 1.53126 -3.13359 11
621 1 -4.23436 15.1215 3.72486 14
622 1 -15.6184 8.37943 5.06073 6
623 1 11.8434 -0.598282 2.97401 21
624 1 -13.1828 -2.09981 -11.5962 16
625 1 0.890323 10.5211 -7.18383 17
626 1 11.2897 2.20528 -8.93861 18
627 1 6.1757 12.2899 11.1564 14
628 1 -13.5825 1.65444 -6.77166 13
629 1 -11.7162 -7.56078 -9.07407 13
630 1 0.434296 6.83393 14.4522 18
631 1 6.25346 6.23167 -12.3781 19
632 1 12.6702 14.7246 2.94718 10
633 1 -2.61495 1.24234 10.0507 22
634 1 -2.36586 -15.4255 -3.6319 15
635 1 -4.93685 -15.6548 8.86309 12
636 1 12.2578 11.6016 8.28323 14
637 1 1.41653 -9.609 -12.9292 19
638 1 -7.01625 9.40251 -1.99702 19
639 1 8.75233 6.65601 3.29971 21
640 1 -8.34514 -4.60097 3.27634 24
641 1 10.6248 10.04 -11.3174 11
642 1 -1.6817 -11.6308 -8.11507 18
643 1 0.419782 -17.1402 -0.730929 14
644 1 1.09495 -14.1686 -1.46408 19
645 1 7.20843 3.93796 -10.1809 19
646 1 5.83364 16.8484 -2.19406 18
647 1 -2.57233 0.807968 -13.4406 19
648 1 0.0530022 2.44452 11.4289 20
649 1 2.3987 7.39395 -17.3336 11
650 1 -13.2545 -0.488723 -14.3897 6
651 1 -8.85551 -4.08127 -3.21125 23
652 1 0.450626 17.4204 -6.37908 15
653 1 -4.01189 -2.7098 -19.8239 8
654 1 16.2438 5.49706 -7.37008 16
655 1 12.8193 -6.2161 -0.0806486 20
656 1 -9.25568 5.06371 11.2524 18
657 1 5.84384 -9.43669 2.01244 20
658 1 15.6711 -5.50266 1.79099 10
659 1 11.4005 -3.42745 8.4402 19
660 1 1.27446 9.1348 6.63004 19
661 1 -8.34821 0.700025 16.161 8
662 1 -6.74061 4.21728 12.3427 19
663 1 0.729186 -15.2175 9.34621 11
664 1 6.39412 10.1399 13.36 18
665 1 -13.7514 -1.58621 -1.52347 16
666 1 9.59614 -7.27493 -4.31739 20
667 1 -6.43857 12.2863 -5.15288 17
668 1 4.81731 -17.6136 4.46288 10
669 1 4.327 1.91582 14.5734 22
670 1 1.97912 13.9799 5.27836 21
671 1 3.30476 -10.4029 6.86019 17
672 1 3.5669 3.75515 11.4715 25
673 1 -14.3207 -4.81988 -2.95972 13
674 1 1.16034 13.4297 15.4923 12
675 1 6.59035 9.18059 -0.510973 17
676 1 -7.63732 -11.2283 2.58413 20
677 1 -3.77356 -17.4173 6.48953 11
678 1 5.79461 -6.56443 6.52762 21
679 1 11.5564 -5.81821 6.44016 16
680 1 8.78161 6.69394 6.73459 21
681 1 0.285908 -9.52377 -8.12361 16
682 1 -1.97215 3.7188 -11.9088 20
683 1 -3.99378 -1.69967 13.1661 18
684 1 -2.15675 17.5624 -0.82719 12
685 1 14.1883 1.25547 3.21519 19
686 1 6.22569 6.39549 -9.1201 23
687 1 0.370175 8.9043 11.6673 21
688 1 8.32133 7.3525 10.7394 18
689 1 9.3869 -4.91768 -12.4796 19
690 1 -4.62014 -11.9447 -0.0520009 17
691 1 14.2878 0.725246 6.67876 16
692 1 4.36098 -1.75271 -11.2725 21
693 1 1.23147 8.0572 16.9365 11
694 1 4.17856 -12.444 -11.7948 15
695 1 8.17858 6.23316 -16.744 10
696 1 13.7959 4.91001 -9.70699 15
697 1 14.6277 -4.02276 -0.972954 17
698 1 0.709834 -6.76321 10.0168 20
699 1 -3.17657 -4.59582 -12.684 16
700 1 8.33466 14.2791 -5.10211 19
701 1 -10.4977 4.33667 3.30543 19
702 1 12.4306 4.05665 -6.94103 19
703 1 14.6515 9.06172 4.19642 16
704 1 1.27537 -3.91444 -18.1559 17
705 1 -4.98228 13.2912 7.57754 16
706 1 15.9451 9.70545 6.86681 9
707 1 14.0282 11.7959 -6.03673 15
708 1 8.89674 1.57041 -13.2722 18
709 1 10.0866 -6.26849 -2.04999 24
710 1 -11.1367 1.38901 -1.78116 20
711 1 12.4268 9.16959 2.24493 17
712 1 -11.0627 -9.02276 -0.941263 21
713 1 -10.4053 8.69145 -7.62939 16
714 1 6.25908 4.3382 10.05 20
715 1 -10.5227 -1.3989 -6.70108 19
716 1 -10.4699 4.70842 6.79471 19
717 1 13.3236 -7.77921 -8.01986 10
718 1 -12.7124 -9.93584 -6.62111 12
719 1 12.8416 -5.91345 -3.12804 22
720 1 -13.66 6.96982 3.02029 16
721 1 12.6655 8.32811 7.71698 20
722 1 -3.3482 -9.97804 6.62798 21
723 1 9.3683 4.2711 14.7774 17
724 1 14.5609 -3.30706 7.39994 10
725 1 -10.1165 4.53592 -0.276723 20
726 1 1.23471 10.6379 9.5196 21
727 1 4.62078 9.10541 -10.6677 21
728 1 -5.22646 -4.18307 -14.7629 18
729 1 -1.38414 14.8075 4.815 16
730 1 -9.29632 -11.3071 8.76083 17
731 1 8.82689 11.8467 -3.65573 19
732 1 -0.073298 10.07 14.2042 16
733 1 16.3527 -3.76549 -3.7077 13
734 1 6.41064 -6.2508 9.74549 18
735 1 -1.69211 12.6227 -14.303 10
736 1 8.6962 11.1688 -8.73443 17
737 1 -4.50134 -0.904366 10.0434 18
738 1 14.9837 7.60381 9.494 17
739 1 -2.71418 -4.61567 -9.81184 20
740 1 15.4046 11.1198 -1.18511 13
741 1 -12.8965 3.97422 -1.50917 18
742 1 -2.06895 -11.5797 8.37021 17
743 1 5.64234 13.8226 -8.35787 14
744 1 6.33507 -1.33861 10.0699 19
745 1 -2.69372 -10.1254 -3.15722 23
746 1 -8.3778 16.6255 -1.36061 8
747 1 -14.1999 6.5792 -3.20909 10
748 1 12.95 -0.859601 -9.82744 21
749 1 -2.29656 -7.9897 -15.7917 13
750 1 -8.34837 6.70119 3.05999 19
751 1 17.2282 10.21 -6.42046 12
752 1 6.83346 -2.31085 -16.111 19
753 1 -8.79531 -7.85056 -14.2045 9
754 1 -2.06676 -12.9761 -5.3415 19
755 1 -2.88809 14.6499 11.95 13
756 1 5.78446 -11.1729 -3.85772 24
757 1 0.990212 12.582 -15.8934 9
758 1 13.1953 0.649709 -4.79547 16
759 1 9.33111 9.2186 1.84019 22
760 1 0.121758 -17.7509 -3.48609 10
761 1 4.03138 -0.821153 -17.1165 16
762 1 14.0842 5.81797 -1.50208 22
763 1 -1.63014 3.82943 -14.7751 20
764 1 -2.50337 -7.68949 8.25071 18
765 1 6.57503 10.3782 -3.46043 22
766 1 -8.29489 6.74815 -3.3445 19
767 1 -13.3779 4.79494 8.73817 12
768 1 3.35598 5.20759 19.2921 10
769 1 -9.15225 -8.32308 8.52651 17
770 1 6.70826 9.77946 6.85143 23
771 1 1.50863 -14.7784 1.60678 19
772 1 3.75589 9.47224 -5.44741 23
773 1 -4.99193 12.7205 10.9431 16
774 1 -10.8827 -0.0349171 10.4655 14
775 1 -5.70799 12.5732 4.52737 19
776 1 -2.78811 -7.10638 12.3337 18
777 1 0.0886473 -15.0807 5.32654 16
778 1 11.4069 6.06815 9.60512 19
779 1 9.01035 -3.69061 -6.49186 20
780 1 5.22978 -9.87372 -13.3068 17
781 1 -9.13517 4.54122 -15.2997 9
782 1 -1.84405 3.04991 -18.6011 12
783 1 6.04971 12.1015 8.15367 16
784 1 -7.13779 -1.2849 11.7912 17
785 1 -2.24402 6.48623 -10.2129 18
786 1 -13.1229 4.38598 -5.12989 17
787 1 9.77604 13.9454 -1.76449 16
788 1 -6.15111 -16.9187 3.75981 11
789 1 14.5538 11.8495 6.32582 12
790 1 -10.6392 -12.496 -5.66831 11
791 1 4.34708 14.9269 6.37975 16
792 1 -6.72088 -4.19629 17.4324 9
793 1 -1.64216 -11.8138 -11.7488 15
794 1 14.1022 1.70956 9.56039 17
795 1 3.72864 -17.0766 1.56478 16
796 1 4.52093 13.5441 16.8341 10
797 1 15.1375 -0.642136 -11.8161 11
798 1 9.03908 -9.26051 -0.63896 20
799 1 3.33779 0.378487 -13.968 19
800 1 -10.7512 -0.0752591 -12.5081 17
801 1 -5.87085 4.7848 -16.6079 14
802 1 -5.91956 7.04947 11.6409 21
803 1 10.786 -6.58652 9.61067 12
804 1 -10.6498 -6.80887 4.20049 17
805 1 11.1253 1.28348 1.41087 20
806 1 4.33573 4.85316 -14.8139 17
807 1 15.8985 8.6765 1.50222 12
808 1 2.96099 13.9142 9.9092 19
809 1 -14.3947 -4.19092 3.86975 14
810 1 7.37714 -13.3069 -8.97571 15
811 2 -11.1816 -2.41812 -8.18301 20
812 2 -4.86399 12.165 -3.68706 20
813 2 -0.337245 -1.63549 -11.8473 21
814 2 -2.09726 7.45909 11.5323 18
815 2 3.3972 -11.9447 -9.84154 16
816 2 -5.97844 -6.14236 -8.24615 21
817 2 2.11451 5.72445 13.5182 19
818 2 7.40751 4.39073 17.8224 13
819 2 -11.3954 -7.19712 -0.622916 20
820 2 -9.96193 6.54193 -6.06556 21
821 2 3.81681 12.05 4.69128 20
822 2 -9.94741 1.38614 3.29042 20
823 2 1.18006 16.2893 -7.7636 12
824 2 11.7064 3.89679 5.45232 19
825 2 -2.89942 15.1646 -7.25509 14
826 2 13.282 7.18627 -6.19979 19
827 2 -13.4369 -2.06261 -13.7232 10
828 2 -10.1764 -4.33995 -11.2927 18
829 2 3.60704 1.55015 11.7228 20
830 2 8.72765 -1.56233 -9.54284 22
831 2 3.33532 -15.183 1.73901 17
832 2 -5.1075 9.37098 -2.23672 22
833 2 -12.9978 0.719866 -5.20614 17
834 2 13.8489 4.36777 6.98086 19
835 2 6.98898 -9.98328 -8.6028 18
836 2 -9.01998 -12.2783 -2.88514 13
837 2 -11.6277 -5.07239 5.48075 20
838 2 -3.03807 -12.2913 3.35941 19
839 2 10.9254 -7.48183 7.75823 13
840 2 -2.65064 -11.6658 -9.96605 14
841 2 4.78459 -1.77803 15.3906 10
842 2 0.014259 10.1499 -11.7489 16
843 2 3.2229 -17.709 3.18927 13
844 2 -11.7699 -12.5175 -4.06898 9
845 2 0.949046 8.04659 13.1645 19
846 2 -7.31924 7.42514 1.27008 19
847 2 1.70756 2.9327 15.7023 16
848 2 -3.78856 8.75423 -5.72851 19
849 2 8.56647 -11.8548 -1.26166 18
850 2 -2.467 4.55637 11.1967 17
851 2 -0.938033 11.7673 -8.23416 16
852 2 9.88295 11.1906 5.0307 19
853 2 10.1799 15.7543 -1.17083 12
854 2 13.6061 -1.37241 -7.93788 22
855 2 -4.98059 7.79272 13.221 15
856 2 3.66729 3.74377 -16.224 18
857 2 -3.09254 9.13554 -16.2079 12
858 2 12.6693 7.15194 -3.35006 20
859 2 -5.26452 -5.50761 14.9827 15
860 2 -13.8863 7.63316 5.72774 13
861 2 15.6548 1.02785 -10.8551 14
862 2 -8.37315 -7.5756 13.554 15
863 2 0.527726 -7.9214 -12.1365 13
864 2 -2.48135 1.56984 -17.7064 12
865 2 -13.8501 -5.95992 3.99299 14
866 2 11.1115 10.1086 -1.96182 19
867 2 -2.36286 10.6193 2.93403 21
868 2 -4.97348 -10.2274 -6.33486 20
869 2 -2.60029 15.5891 6.12539 13
870 2 6.76549 0.686066 16.9599 10
871 2 1.341 -8.76259 10.5633 14
872 2 15.7126 4.85763 9.45635 13
873 2 6.73643 15.4563 -7.88993 13
874 2 -8.40631 4.30861 -3.38659 22
875 2 16.5396 7.31789 10.5883 12