ITEM: TIMESTEP
64000
ITEM: NUMBER OF ATOMS
2000
ITEM: BOX BOUNDS pp pp pp
-30.0 30.0
-30.0 30.0
-30.0 30.0
ITEM: ATOMS id type x y z Coordination
1 1 -9.81541 3.18398 -13.1182 16
2 1 1.23382 -13.5896 -10.1942 11
3 1 10.9965 14.4408 11.0338 10
4 1 5.66771 -6.76001 12.5287 16
5 1 -8.48978 5.5403 2.30047 21
6 1 12.2118 -4.47082 -10.0096 22
7 1 -9.7283 4.49096 -5.48138 22
8 1 5.08967 -6.12294 8.74691 19
9 1 -4.4641 -0.162821 -8.0295 25
10 1 -11.3533 -7.2931 8.66985 19
11 1 17.1392 3.22358 -7.75992 13
12 1 -4.63456 -9.68237 0.056955 20
13 1 -8.75403 -6.55659 8.31965 23
14 1 1.74966 9.30483 15.2182 18
15 1 9.96649 -2.23046 3.46146 22
16 1 -1.82209 8.52603 10.4607 21
17 1 11.5765 1.06559 3.23463 21
18 1 0.954666 11.4949 -11.8778 17
19 1 3.57533 -0.216695 11.5086 23
20 1 -2.69111 0.0399876 -13.4618 22
21 1 -9.98799 0.63526 15.7327 13
22 1 14.13 1.4014 10.7147 20
23 1 -2.11412 7.26088 -15.0891 15
24 1 5.37185 6.27544 -7.80416 23
25 1 10.5822 -1.02603 14.633 19
26 1 -8.10453 1.68154 -0.225392 23
27 1 -7.86439 7.53643 -6.01301 20
28 1 -1.34823 -0.108701 -7.91383 25
29 1 -5.2863 10.8175 7.32436 19
30 1 6.94318 -11.1104 5.25657 15
31 1 5.03694 -1.03938 8.5813 24
32 1 7.31218 -13.7767 -8.08854 16
33 1 13.599 -7.75872 3.51721 16
34 1 -8.32961 -12.6944 0.440236 10
35 1 -10.2498 -6.12984 11.8021 23
36 1 5.97368 -3.59465 -10.1295 23
37 1 10.7912 -9.52439 -13.2314 9
38 1 -10.7279 1.8835 -10.5442 23
39 1 -0.624698 10.7231 15.9918 15
40 1 2.30089 -10.1131 9.01338 17
41 1 8.7676 -3.26252 15.5528 12
42 1 -8.47925 -0.0746839 2.33302 23
43 1 -10.7141 -1.5466 10.991 20
44 1 -4.87747 1.89449 -0.184261 21
45 1 0.169881 18.2583 0.832143 10
46 1 4.68233 -12.1436 -10.3351 17
47 1 3.76863 2.92947 -7.8109 24
48 1 7.5568 -6.39197 -5.5672 22
49 1 -2.52107 -3.91464 16.3098 13
50 1 -9.56159 10.4355 4.63309 16
51 1 4.9149 11.8646 -7.66229 22
52 1 3.2033 13.7383 13.2327 19
53 1 -10.1717 12.2732 -4.21991 9
54 1 4.97469 12.2143 2.46043 21
55 1 3.91034 -12.111 0.216913 20
56 1 9.0984 -9.11575 -4.85104 22
57 1 6.11004 -5.16871 -15.1858 14
58 1 -9.86516 4.18892 10.1977 17
59 1 -7.71225 -0.468862 -7.98963 21
60 1 10.2001 -0.476864 5.67398 21
61 1 -6.33487 8.48788 -3.04767 21
62 1 -0.0532005 -9.5349 7.62634 20
63 1 0.609416 15.0522 12.7788 15
64 1 -9.45147 10.0159 -6.88995 15
65 1 -5.52447 9.35628 14.0966 17
66 1 5.19018 6.31724 -2.49275 21
67 1 -3.78054 -9.65086 8.74012 23
68 1 8.67404 4.38971 8.24768 23
69 1 12.3695 -11.2281 -2.06711 13
70 1 6.22401 12.8611 13.1631 21
71 1 -9.07313 2.52184 -8.1843 26
72 1 -7.8735 10.7034 -9.67066 12
73 1 7.93811 11.2374 15.4277 14
74 1 16.9843 -0.441889 -5.15337 19
75 1 11.4716 -10.4549 3.47486 13
76 1 -10.1872 -2.98821 7.94283 22
77 1 -4.88362 0.306044 2.56081 23
78 1 6.38157 15.867 7.59203 16
79 1 6.73204 -0.633148 15.9507 14
80 1 -3.45782 -12.8293 8.94996 15
81 1 -6.51977 -1.08803 0.126463 22
82 1 13.441 1.94301 7.74771 21
83 1 10.1094 -0.627223 0.365347 20
84 1 0.954602 11.6286 13.2293 21
85 1 1.7555 -0.925447 8.55968 24
86 1 -4.65679 -5.24393 3.24848 25
87 1 -1.37664 -5.9399 -7.53504 23
88 1 -7.01388 8.39748 8.22944 19
89 1 -3.43513 9.12038 2.4456 20
90 1 -1.23183 5.31987 -7.87049 23
91 1 7.48482 -0.672289 -5.14013 23
92 1 10.1033 2.78644 -7.34705 20
93 1 7.16787 -6.29801 0.264747 22
94 1 5.03062 -9.10683 10.566 14
95 1 -3.23827 16.7139 -0.354744 16
96 1 -5.32702 13.5375 5.02873 21
97 1 -8.69547 -3.71321 13.3942 20
98 1 0.203997 11.0935 10.6011 22
99 1 -6.01739 -4.75655 15.2563 15
100 1 15.3915 -4.82958 -8.6007 15
101 1 -8.5804 1.89142 4.89578 22
102 1 -10.4581 -11.1472 2.09953 14
103 1 12.1148 -3.11459 -4.84564 23
104 1 5.45543 1.65353 -10.4629 22
105 1 -4.98561 -1.75089 -16.247 15
106 1 -0.460326 15.6021 7.24137 20
107 1 -4.75565 7.61608 -5.62351 23
108 1 4.42461 11.1208 14.7335 19
109 1 1.67364 13.5153 -6.4703 20
110 1 -6.54922 14.5308 2.12867 15
111 1 9.92564 9.40406 2.94426 23
112 1 0.045237 -3.44239 13.8977 15
113 1 18.6151 0.476271 7.97561 10
114 1 2.09747 -3.59163 -4.93662 23
115 1 4.23508 -6.24985 -10.0331 23
116 1 1.77971 4.29869 7.99961 23
117 1 8.86754 1.18656 13.6159 22
118 1 -8.24642 -3.83062 0.112621 23
119 1 8.41049 -5.2144 2.89361 22
120 1 -9.48392 -8.4832 -2.28936 18
121 1 9.93045 -7.89538 2.4322 21
122 1 -8.58336 5.72467 7.70612 19
123 1 6.31331 3.96265 -14.0771 12
124 1 5.85395 16.3077 -0.208531 21
125 1 -7.58955 -6.89864 13.7902 14
126 1 -5.79861 -11.6967 10.6023 15
127 1 5.88388 -9.46118 -10.0561 20
128 1 5.11596 8.18849 -4.93916 23
129 1 13.7847 -5.90082 0.442204 19
130 1 -1.60338 -16.0936 5.03658 15
131 1 -11.2181 -6.17317 -2.60847 15
132 1 16.5002 5.10336 10.5878 15
133 1 16.4885 -1.90124 -8.4767 14
134 1 -11.5554 0.00464157 2.38498 23
135 1 11.0587 8.55598 5.66524 22
136 1 18.158 8.22501 6.27283 11
137 1 -4.95572 3.72639 16.4517 16
138 1 11.6546 6.53899 3.07221 23
139 1 -3.31341 7.01791 13.2112 18
140 1 -1.88851 11.6357 -3.66937 20
141 1 2.48286 -11.2978 -8.11648 20
142 1 10.5487 -8.15286 -8.07402 20
143 1 3.20004 13.5672 -9.42977 13
144 1 10.8994 -6.2342 11.189 15
145 1 -1.83286 -1.69442 -16.9341 13
146 1 0.0545744 8.83586 -2.62624 23
147 1 13.5472 -2.32127 -7.35383 25
148 1 -5.22362 13.7912 -6.09043 15
149 1 -6.91195 16.215 -0.755548 9
150 1 7.6968 0.874333 -13.1567 17
151 1 12.0303 -8.77263 6.05053 11
152 1 -2.74722 2.51909 -8.10003 25
153 1 -7.51949 13.1031 9.88039 13
154 1 14.2911 12.1645 -2.52625 17
155 1 4.90592 8.44039 0.211552 23
156 1 -3.01457 15.931 6.97364 15
157 1 11.8254 8.13184 -4.98405 24
158 1 -3.33453 14.7684 -3.49717 25
159 1 6.68542 16.2156 -5.39446 14
160 1 3.91313 10.8036 -10.5668 19
161 1 -6.6759 -6.14684 5.87702 23
162 1 -10.9062 9.58137 -1.75972 10
163 1 -0.750569 -3.92336 -10.3466 23
164 1 -1.76348 -6.66822 -14.108 15
165 1 12.8522 11.3551 5.49548 22
166 1 1.55483 14.6422 9.93152 20
167 1 -15.3317 0.140717 -7.51489 7
168 1 -8.32878 13.6357 4.54963 13
169 1 20.1452 -0.508798 -3.91994 11
170 1 -13.1163 0.23999 -10.2304 14
171 1 14.3907 -1.4047 14.3008 12
172 1 5.37833 18.5606 6.55835 10
173 1 -0.00967458 12.9896 8.15345 22
174 1 1.64625 -2.65936 -16.9271 11
175 1 -3.60151 7.64569 7.72461 20
176 1 -3.6724 12.7781 -8.76709 16
177 1 3.21394 -2.28098 14.2571 14
178 1 -8.03866 -5.45571 2.9557 24
179 1 -0.0130621 -8.90726 -12.3298 17
180 1 -5.52756 17.5936 -2.74588 11
181 1 -2.3192 -11.9003 6.78394 17
182 1 7.18892 -14.0587 -2.77049 18
183 1 -0.152651 8.7296 -13.43 17
184 1 -14.7258 -2.0017 9.3852 8
185 1 1.6404 7.94737 0.119894 22
186 1 11.6468 8.29955 0.327781 22
187 1 -3.42921 9.58744 16.6923 11
188 1 -0.358611 -9.07806 10.4843 18
189 1 -6.72597 4.81735 -0.0305426 24
190 1 -0.198979 18.6127 7.33291 12
191 1 -5.08359 8.27284 10.7595 18
192 1 14.2393 3.74595 12.7732 18
193 1 -1.65944 14.1142 4.78482 20
194 1 13.6352 -2.25266 -2.00425 19
195 1 -7.75463 11.3082 13.2637 12
196 1 -1.25985 1.93298 -5.29209 23
197 1 15.5996 -5.25849 3.3342 14
198 1 -3.8261 -5.78263 11.0342 20
199 1 -10.115 -0.62349 5.28981 24
200 1 -9.96042 -6.16669 5.39123 24
201 1 6.52026 9.68499 12.5839 17
202 1 -10.7064 1.42158 -5.35384 18
203 1 -4.04012 -11.5406 -2.82402 21
204 1 7.41332 -8.39417 -2.63308 23
205 1 -3.13148 11.488 10.2327 19
206 1 -6.85347 2.92626 2.6277 24
207 1 7.65986 14.7809 10.6377 18
208 1 -4.5837 -0.0602415 -2.74454 22
209 1 -6.20075 10.4282 -7.36576 19
210 1 -9.90693 -5.65955 -9.66654 13
211 1 -8.44234 -2.98306 10.3558 19
212 1 -1.49428 -9.00736 5.14014 17
213 1 3.59744 -12.2964 5.31326 19
214 1 -8.14073 11.6293 1.71278 18
215 1 18.7415 5.59003 3.76505 14
216 1 8.56175 2.44515 -4.86018 24
217 1 -4.57358 -7.37279 -9.89097 18
218 1 5.20632 0.47927 13.8091 23
219 1 7.09247 -12.2477 -0.0933193 21
220 1 -6.05965 4.10297 -11.0454 20
221 1 2.83296 -7.54259 -12.863 19
222 1 13.719 3.36892 -7.24123 20
223 1 4.85717 6.7443 -13.7281 15
224 1 -7.7342 -3.565 -5.27884 21
225 1 -1.96635 17.9219 -3.81767 11
226 1 -9.03713 -12.1471 10.1417 15
227 1 7.97277 17.478 -2.25009 14
228 1 -13.2915 0.678289 10.9105 14
229 1 -3.35771 8.76676 -2.92276 21
230 1 10.5002 0.103042 11.0141 24
231 1 0.781489 -6.65409 -10.3764 26
232 1 -3.41352 10.5709 -6.64442 19
233 1 1.50014 11.3912 -8.19812 20
234 1 -6.63462 -9.64852 8.16521 23
235 1 -6.7984 1.69061 7.53516 20
236 1 -7.90553 6.68168 11.0662 20
237 1 2.56182 -9.06545 -4.43519 23
238 1 -4.66422 -16.87 4.13929 12
239 1 12.7207 -9.19303 -4.68881 16
240 1 5.8027 -5.35433 -2.22932 23
241 1 12.8836 3.77305 15.932 13
242 1 10.291 5.37675 -4.79569 23
243 1 2.83819 15.2104 2.14469 20
244 1 -8.49549 -3.32685 5.32342 23
245 1 -6.65515 8.68711 2.35572 21
246 1 5.03724 10.247 7.95645 23
247 1 3.83884 -14.2431 -2.31128 21
248 1 15.3353 0.74208 -1.65757 22
249 1 5.28889 4.75819 8.39868 22
250 1 -10.3224 4.66316 4.81375 23
251 1 -12.7439 -3.08854 -4.10766 12
252 1 6.29604 9.74803 -12.1598 10
253 1 6.98371 -0.220343 11.155 22
254 1 9.94731 10.9854 -5.58993 22
255 1 5.52702 -11.2014 -2.3566 21
256 1 -1.22941 1.66254 -10.416 24
257 1 -1.71386 -17.9375 2.18841 10
258 1 10.6552 -0.625186 -4.75187 24
259 1 -5.04014 2.19634 5.15572 22
260 1 0.556363 -13.8874 -3.13162 23
261 1 -13.5512 -2.65973 -7.03109 14
262 1 5.02214 11.9265 -3.35003 20
263 1 4.18501 -4.78396 -13.1014 21
264 1 7.70531 8.51455 17.4947 12
265 1 16.6799 5.56194 0.996925 17
266 1 -6.16342 -7.98579 2.84901 22
267 1 14.6064 -2.60792 -10.9022 14
268 1 -1.21025 -9.06832 -0.124838 21
269 1 -5.86261 -3.05717 -8.05812 25
270 1 -4.47529 5.0862 -13.3295 17
271 1 -5.87123 -8.42334 11.2439 18
272 1 9.83493 -2.48051 11.1388 21
273 1 6.55153 -3.57858 8.78248 21
274 1 -7.2923 -6.26031 -7.70454 22
275 1 3.47903 -5.98166 6.18989 23
276 1 3.46973 8.89648 -7.80964 23
277 1 6.74351 11.3069 0.315565 21
278 1 -4.94869 -3.33943 5.68974 24
279 1 7.93938 18.2796 1.46192 9
280 1 -5.14245 -6.71397 8.44443 22
281 1 -10.1723 -8.05616 -7.09619 9
282 1 -4.27023 -4.2652 -10.4438 23
283 1 2.9854 6.51073 -11.6396 21
284 1 -0.961679 -9.3262 -5.87699 22
285 1 -3.14097 -8.15056 3.13919 22
286 1 12.4101 -3.28825 -12.9545 10
287 1 20.54 2.77823 -1.9968 11
288 1 15.0771 4.20442 7.96421 18
289 1 -1.12018 -5.80714 -2.04641 25
290 1 -8.84205 -9.45643 12.4658 11
291 1 -2.9624 -6.39345 0.693666 25
292 1 9.91988 3.02146 17.8835 12
293 1 -3.47071 -13.889 3.07397 17
294 1 2.11385 -9.11094 0.168086 23
295 1 2.53647 19.1165 5.09691 9
296 1 5.81521 -1.78692 -12.838 21
297 1 -5.8912 -1.77778 -10.7354 19
298 1 -13.1977 -6.82817 10.9793 14
299 1 4.87998 9.95445 18.4987 10
300 1 2.69313 -15.2687 0.271442 20
301 1 -4.00935 -10.913 -9.30075 13
302 1 -9.1318 4.89507 -10.8389 19
303 1 10.4482 1.58118 8.1699 23
304 1 -5.97096 2.47249 -8.28007 25
305 1 2.2648 5.86403 -8.01758 24
306 1 -3.1452 -6.10494 6.01984 22
307 1 9.06004 -14.0708 -5.00292 15
308 1 -0.745381 16.4149 -1.1759 18
309 1 3.4288 9.18339 2.78657 23
310 1 16.3184 5.81513 5.42338 20
311 1 -6.71163 -3.8768 8.07595 23
312 1 -6.92247 0.530076 17.6056 11
313 1 -6.17065 15.1262 7.34774 10
314 1 5.71666 -5.63134 -7.47829 21
315 1 16.8666 11.2833 -4.11422 11
316 1 8.51652 -9.20601 -0.069282 23
317 1 -4.39302 1.13935 15.7169 20
318 1 -8.02805 -2.36516 16.1218 15
319 1 1.38571 -16.5672 -2.14463 12
320 1 -5.46064 7.05138 15.91 15
321 1 -5.36422 12.5189 12.0433 16
322 1 -13.9147 -1.96521 12.4079 15
323 1 -12.4281 -3.95139 10.358 19
324 1 17.0573 -1.84189 -2.57559 19
325 1 -13.3715 -9.82118 9.18349 13
326 1 10.5454 -2.46827 -7.6797 23
327 1 14.3238 -7.57463 -6.76211 14
328 1 1.75085 17.6598 -2.89784 14
329 1 -8.31395 7.78616 -0.370669 22
330 1 11.4095 8.64738 11.6097 19
331 1 -3.31726 -0.446183 5.5142 21
332 1 8.97502 -11.2919 -2.56488 23
333 1 -1.52184 12.087 2.41818 23
334 1 -1.57664 7.96845 5.29065 21
335 1 7.2555 -8.62339 7.95883 16
336 1 15.2036 -2.96439 6.03841 17
337 1 -0.640373 6.69961 14.9702 15
338 1 -4.4666 -3.90657 -4.93911 26
339 1 -3.10817 4.15618 13.5901 20
340 1 -0.0810921 17.1239 10.0684 15
341 1 9.98042 9.32575 15.4394 14
342 1 -9.24755 12.0782 -1.54074 12
343 1 0.797575 -5.09641 -12.8725 21
344 1 -4.47311 1.89902 -5.24667 24
345 1 8.37933 -9.62032 -12.441 16
346 1 -5.67596 4.78418 12.835 19
347 1 -14.7183 -0.797715 1.04056 11
348 1 -2.79197 -3.00282 -7.75738 26
349 1 -1.94033 8.01683 -0.192301 20
350 1 8.53252 -0.879419 8.58321 24
351 1 -12.4371 -9.31343 3.04248 14
352 1 12.5186 -4.92261 8.93964 17
353 1 -11.7716 -10.3395 11.6924 12
354 1 -11.6727 7.50668 4.16666 13
355 1 -1.77204 -0.983237 8.18619 22
356 1 5.65108 -11.2291 -7.90719 22
357 1 -7.80575 1.14112 -10.9029 21
358 1 11.3338 -1.23722 -10.1474 21
359 1 3.33464 15.7074 7.27418 18
360 1 -7.88309 -0.254533 -2.70304 23
361 1 10.7698 -7.39959 -10.9014 18
362 1 9.48381 5.01552 -12.7323 9
363 1 -3.69288 -15.4334 -5.1428 11
364 1 -10.7816 -4.3821 -6.51074 18
365 1 -0.979541 -11.0955 -2.60499 22
366 1 15.3305 1.80405 15.2625 13
367 1 11.6197 2.47195 0.481444 23
368 1 -7.76328 -2.01918 -14.6845 11
369 1 4.6811 17.8437 3.18116 13
370 1 -14.8249 -0.728688 -4.48933 12
371 1 -5.15183 4.80799 8.03029 19
372 1 -6.24572 10.5882 -0.758862 20
373 1 -1.66539 10.1081 7.96102 23
374 1 7.99025 7.03046 14.2204 19
375 1 19.1553 -3.27226 -1.3817 13
376 1 13.7078 -4.5061 12.3342 9
377 1 19.0864 2.52877 -4.53833 15
378 1 -6.02909 -13.1136 -4.50096 10
379 1 -1.76177 6.45168 2.65801 22
380 1 4.07914 -8.20766 -2.15924 20
381 1 1.50838 8.30393 5.54092 23
382 1 -9.27724 2.59693 -2.80632 23
383 1 5.6708 -15.3579 -5.50612 14
384 1 16.2385 0.157641 5.98337 20
385 1 -9.59181 -3.15552 -2.97481 21
386 1 -4.88521 -8.94589 5.53213 19
387 1 -11.4502 -7.5774 14.2232 12
388 1 -1.76909 13.8171 -0.670496 22
389 1 -6.14322 -8.50857 -2.42048 24
390 1 13.2371 9.90863 14.2537 11
391 1 -9.68538 4.70939 -0.627407 18
392 1 3.10456 9.18386 -13.5867 12
393 1 8.1668 14.2707 5.4009 18
394 1 -11.4254 -4.27357 -0.379623 17
395 1 0.958125 -11.7366 -5.16932 21
396 1 -10.0683 -4.75854 15.6826 12
397 1 -9.81485 8.66982 1.78303 16
398 1 5.19238 -8.99609 5.99682 20
399 1 -1.96598 -12.2497 -5.30024 22
400 1 11.5283 12.4309 8.39453 20
401 1 5.16392 7.77878 -10.4381 20
402 1 -9.96869 8.07263 -8.88735 16
403 1 3.49145 16.487 -5.98212 13
404 1 -4.70306 5.90519 -2.49666 25
405 1 -1.19587 -10.8734 2.32403 19
406 1 15.1454 6.85249 3.19164 18
407 1 -0.860821 6.72875 -10.4996 22
408 1 1.49685 2.79702 10.9348 22
409 1 -12.778 4.67755 -1.43176 12
410 1 -3.33067 5.59782 5.20578 22
411 1 -6.6354 -15.1261 2.30536 13
412 1 4.08225 -6.32417 -4.73638 22
413 1 8.52167 -7.30227 -14.8798 12
414 1 -0.0534175 1.72119 8.49122 24
415 1 -12.9574 4.53254 -5.17936 14
416 1 -11.0488 -1.938 14.4224 16
417 1 -10.2584 8.64579 6.99991 16
418 1 -0.0287589 -4.22981 8.46084 24
419 1 -4.3445 1.41407 -11.022 22
420 1 10.8839 -6.40995 -4.97153 22
421 1 8.03042 -12.1236 -10.3145 14
422 1 -5.87414 -1.20692 13.9922 20
423 1 5.7239 -9.20755 -4.60177 20
424 1 -5.35982 7.51117 -15.5478 13
425 1 6.79036 -13.864 2.96659 14
426 1 1.37768 11.9104 -2.73126 20
427 1 -8.44282 7.56038 4.56034 21
428 1 -5.09238 -2.68898 10.9311 21
429 1 -12.0544 -3.06101 -9.96065 14
430 1 -11.0559 -8.73475 6.53567 21
431 1 9.6048 -4.27611 8.60857 20
432 1 10.1671 4.9916 0.444426 23
433 1 5.4874 0.187878 -7.66333 28
434 1 8.53314 -8.37314 11.1657 13
435 1 15.156 8.45235 -4.75266 22
436 1 -3.13994 -1.35626 13.5873 23
437 1 4.83332 17.5487 -3.05351 14
438 1 8.26932 -3.13701 6.21956 23
439 1 -2.6252 -6.74783 -4.97073 22
440 1 -0.980349 7.98526 18.408 11
441 1 -4.82419 14.9144 9.93483 16
442 1 -7.62004 -9.82482 -4.76269 18
443 1 9.71761 15.7799 2.06978 15
444 1 9.27212 9.96858 7.86978 21
445 1 -5.04743 -0.95753 8.28613 24
446 1 -4.40716 -9.37107 -4.91112 18
447 1 -10.1834 6.06279 13.066 15
448 1 -5.84883 -6.55472 -4.89026 24
449 1 -7.48184 10.3209 10.1154 17
450 1 -4.24938 -12.1178 -6.82549 14
451 1 2.39135 -9.04734 -10.2211 22
452 1 -4.9462 -11.0004 2.87009 14
453 1 -3.65936 1.93374 8.18833 23
454 1 11.7635 -3.40028 6.26785 22
455 1 -4.76334 1.3236 13.0853 20
456 1 -2.72364 4.27249 -10.8927 24
457 1 12.937 5.44606 5.53719 22
458 1 -11.5861 -12.3506 5.02725 13
459 1 3.71583 5.06364 -5.39528 20
460 1 2.95359 17.64 0.0306852 12
461 1 0.187843 4.7273 -5.33402 22
462 1 1.238 13.5134 15.8077 14
463 1 -13.2868 -1.35883 -1.3423 17
464 1 -0.0139414 14.4041 -3.53806 20
465 1 11.5683 13.9656 -5.79161 13
466 1 -4.37634 -5.97252 -7.91554 20
467 1 3.84144 5.01447 16.306 17
468 1 3.80574 -13.9565 -7.63398 16
469 1 2.22554 -5.56003 -7.52017 25
470 1 8.54475 -10.8248 2.6379 21
471 1 -6.6399 10.8374 4.49355 23
472 1 7.26 5.31617 17.1636 18
473 1 13.3588 3.57953 -2.08304 21
474 1 3.15902 11.1192 0.187567 20
475 1 -4.10077 7.0029 -11.1667 22
476 1 5.57684 2.04282 -5.12297 22
477 1 2.00788 -8.90038 5.69387 20
478 1 -13.3321 -3.17442 1.93294 14
479 1 2.69132 18.364 8.84807 14
480 1 1.49144 8.5277 -10.3681 22
481 1 16.6399 9.14549 -2.33527 18
482 1 8.31598 14.0214 -5.56724 22
483 1 8.7361 -3.20115 0.899546 23
484 1 18.6655 3.37724 0.872518 18
485 1 2.26013 2.00145 -10.3936 25
486 1 5.21071 -9.15401 0.649782 20
487 1 2.10508 -10.9857 2.80888 21
488 1 3.00194 -4.84748 12.5648 14
489 1 -7.82853 5.22981 -8.08623 21
490 1 -13.7264 -10.163 6.22473 12
491 1 2.30251 -11.5042 -12.2731 11
492 1 11.4068 14.279 4.94758 15
493 1 0.444801 1.10151 -13.0428 22
494 1 4.03762 2.02894 16.1644 14
495 1 -8.54339 -0.550213 13.0889 18
496 1 -0.198319 -13.7834 2.93991 19
497 1 -10.1099 -1.19238 -0.469623 21
498 1 17.4165 -4.28009 -4.17067 12
499 1 13.5469 -0.165436 0.813632 21
500 1 -1.62252 7.61426 -5.35712 23
501 1 0.53998 -6.57545 -5.01833 21
502 1 4.32934 4.30923 -10.3033 21
503 1 13.817 -0.335717 -4.5489 22
504 1 -1.92317 2.82848 17.1852 12
505 1 6.2815 14.874 2.13009 20
506 1 2.58628 -1.32035 -12.8539 21
507 1 2.94073 4.11175 -13.1405 18
508 1 -1.69755 -2.74064 11.1213 22
509 1 -3.17929 11.0944 -0.912644 21
510 1 -6.29454 -3.75476 -13.6351 18
511 1 -14.9253 1.53089 -1.78401 12
512 1 -1.94068 -6.6056 -11.5647 21
513 1 -4.24069 -7.59204 14.169 13
514 1 1.64838 7.71976 -5.20391 22
515 1 19.1689 3.56019 9.55505 11
516 1 17.5847 11.3278 -0.497387 10
517 1 -5.65593 -13.5239 -0.966721 14
518 1 3.92513 -7.99457 3.34697 23
519 1 -3.42343 -4.37043 -15.7379 12
520 1 -10.0578 9.43999 12.1145 13
521 1 3.91066 -2.62439 -7.46332 25
522 1 6.78866 9.37207 2.98442 23
523 1 15.485 -2.53823 0.304501 22
524 1 6.9865 10.9849 -5.41667 18
525 1 10.2778 -5.97313 5.23904 21
526 1 15.5043 6.209 -7.46182 15
527 1 8.92521 14.2902 13.7331 11
528 1 -11.3957 0.264444 8.19295 19
529 1 7.6804 12.8812 7.83456 24
530 1 9.40604 -0.376107 17.7246 9
531 1 -2.97025 2.49904 -13.6085 18
532 1 -4.55252 -5.59719 -2.37282 24
533 1 1.43472 -2.90946 10.7846 18
534 1 9.69754 11.5023 5.2192 25
535 1 8.51757 7.54571 -10.3819 16
536 1 -3.96896 16.6656 -5.74201 10
537 1 0.183673 10.6008 0.140463 20
538 1 12.5922 0.859685 13.3023 22
539 1 8.16341 2.5361 -10.6027 21
540 1 13.7848 -5.86025 -4.30871 18
541 1 14.7373 9.32446 11.1718 15
542 1 -12.0983 -3.43048 4.71926 17
543 1 -6.40182 7.92246 -8.83244 22
544 1 1.69017 0.665277 13.7015 21
545 1 -12.5665 0.717398 14.1125 10
546 1 -2.01399 13.4515 -6.34694 18
547 1 4.17858 -12.0749 -4.96805 23
548 1 7.06753 -2.55573 -7.70854 25
549 1 -0.195781 15.1228 1.90016 19
550 1 -9.65394 -3.94793 -12.7239 10
551 1 3.30393 -13.802 2.64887 19
552 1 -7.77662 -5.67344 -2.50325 24
553 1 -3.34224 10.4724 -14.5231 10
554 1 -6.25558 2.76647 -2.62477 22
555 1 -4.41022 11.9619 14.5645 12
556 1 -13.0441 -4.44206 7.50836 14
557 1 8.43825 6.08763 -2.35309 23
558 1 4.88951 -8.13876 -15.4789 11
559 1 9.0059 -6.35293 13.9198 13
560 1 8.75038 0.254643 -2.2797 23
561 1 -11.3425 5.60251 1.33426 14
562 1 4.85708 6.94882 18.7889 13
563 1 6.29855 14.7464 -2.94839 21
564 1 11.8976 -5.18452 -1.96613 21
565 1 -0.157714 8.93938 13.0488 18
566 1 -3.178 4.70891 -16.0176 11
567 1 -3.08467 -10.2565 11.9383 13
568 1 0.610915 2.87227 -7.78142 26
569 1 4.53945 1.15423 -13.2662 21
570 1 6.15358 11.6646 10.352 19
571 1 8.56846 7.92713 -5.07432 23
572 1 -2.89715 -2.99949 -12.369 20
573 1 -0.641772 -11.8996 -8.29857 21
574 1 -9.93972 -1.15508 -10.6167 16
575 1 16.7111 2.73063 2.7696 21
576 1 17.9969 8.29655 -5.54605 10
577 1 12.4497 -5.37627 -7.26553 21
578 1 13.234 6.17426 11.2036 18
579 1 10.5565 -8.25391 -2.24304 21
580 1 1.79923 3.01797 -15.2589 12
581 1 13.1569 11.1499 0.144231 22
582 1 -6.77768 4.91257 5.10517 21
583 1 10.2462 6.26816 16.5426 15
584 1 13.2567 5.78467 0.453301 21
585 1 20.0367 1.09916 1.26679 14
586 1 8.82128 5.8606 -7.7505 22
587 1 6.16529 3.59963 14.1475 25
588 1 17.2421 2.59842 12.3141 13
589 1 3.34935 -3.83148 8.64241 23
590 1 12.0826 13.9985 -0.644067 18
591 1 3.55159 3.54477 13.1532 23
592 1 16.9955 3.64989 -2.15405 18
593 1 4.99766 6.69753 13.0522 21
594 1 -5.83995 -1.14024 -5.42997 22
595 1 14.8237 2.92163 0.258946 20
596 1 13.8543 -5.76657 5.89866 16
597 1 -10.6259 7.01105 9.90027 15
598 1 9.22434 11.1629 10.5946 23
599 1 11.976 -1.57612 8.68354 23
600 1 1.49383 10.1769 7.56135 21
601 1 5.47289 15.5624 13.3007 12
602 1 6.93637 1.77884 8.28308 23
603 1 -0.545509 -15.4552 0.161658 15
604 1 -4.91252 7.82277 -0.123484 22
605 1 13.7757 5.33863 -4.83126 19
606 1 13.9489 0.379929 -9.81946 15
607 1 4.79591 14.3988 4.74456 19
608 1 -1.26987 -11.8019 -11.3788 12
609 1 9.30257 -3.59425 -10.3398 20
610 1 -11.798 1.96397 5.17813 22
611 1 -4.42376 5.53401 -8.52274 23
612 1 -4.07835 -15.8711 7.37917 12
613 1 -2.61409 -1.13311 -10.5568 24
614 1 -7.64041 1.58473 -5.5182 23
615 1 12.0402 -5.30413 2.98878 22
616 1 8.51179 12.9004 2.42105 21
617 1 1.72684 -6.95673 8.7344 20
618 1 -11.0767 -0.33179 -8.06907 24
619 1 2.52251 0.0776874 -15.4911 14
620 1 0.627712 4.77041 16.7595 17
621 1 9.98115 12.607 -8.07755 13
622 1 15.8824 -0.499551 12.1472 13
623 1 11.8694 2.62166 -4.76883 23
624 1 15.1442 13.3499 0.701205 14
625 1 10.8426 -13.5669 -8.18278 13
626 1 -10.1973 2.84074 13.4142 15
627 1 18.7623 0.14807 4.00087 19
628 1 -3.17259 14.9469 12.9419 12
629 1 9.91893 15.9665 -7.12511 8
630 1 -7.47564 11.3515 -4.18606 17
631 1 12.9868 9.46415 3.08415 24
632 1 -8.51905 -12.8269 3.61636 12
633 1 13.2024 -2.01786 11.1436 20
634 1 4.88176 12.8511 7.21995 19
635 1 -3.626 5.78094 10.2553 19
636 1 -9.20591 -8.21573 3.08846 21
637 1 -9.37231 -1.43145 -5.57305 21
638 1 9.5461 4.09804 14.5639 21
639 1 -9.6659 -9.87821 8.9078 22
640 1 1.69469 8.53988 10.4132 20
641 1 -4.81053 13.9606 -0.509076 21
642 1 9.9609 5.52875 5.58152 22
643 1 8.17378 2.57999 5.72346 21
644 1 -0.341629 -2.03401 -13.8497 20
645 1 -6.59571 -0.662862 5.21093 23
646 1 7.44278 -4.40692 -12.9331 21
647 1 -1.23235 -3.72474 -5.02444 26
648 1 13.3872 -8.02397 -9.72208 14
649 1 8.54386 2.72726 11.0661 24
650 1 6.78603 5.39841 5.58553 20
651 1 -8.86849 8.49602 14.8784 10
652 1 12.6763 9.13051 8.73337 25
653 1 -0.117356 -1.93261 16.0212 13
654 1 3.2316 9.95304 12.3843 21
655 1 2.62684 -3.90899 -10.4032 21
656 1 -0.155259 5.51801 10.428 17
657 1 8.36655 8.45138 10.9635 20
658 1 -8.80212 -12.5261 6.81177 17
659 1 13.3042 9.02949 -2.18988 23
660 1 12.4872 -10.2877 -8.17025 14
661 1 -1.28341 6.0363 -2.57817 23
662 1 6.55585 11.5122 4.86959 24
663 1 14.1046 12.8367 3.30093 17
664 1 4.75228 -1.89965 -15.2052 11
665 1 -1.85722 4.30859 7.92952 24
666 1 4.76288 14.0161 -5.93267 22
667 1 15.2142 8.62133 0.294785 20
668 1 -11.46 -8.31176 0.19971 13
669 1 -0.953795 1.25119 -15.7825 16
670 1 -6.96671 14.0381 -2.97331 17
671 1 9.20121 -5.36669 -7.97188 23
672 1 8.51471 6.56557 2.65798 21
673 1 11.8089 6.02129 -7.35163 19
674 1 9.84911 11.3193 -0.123958 23
675 1 -0.0755104 10.9892 5.46955 22
676 1 -3.34345 4.98981 0.264822 24
677 1 10.2613 2.89171 -2.06372 21
678 1 10.8528 -3.78457 13.4956 17
679 1 12.1598 6.55334 14.3717 14
680 1 -1.96046 -7.37226 12.3833 12
681 1 -4.39171 10.0797 -10.0162 19
682 1 3.19741 11.561 9.54408 20
683 1 10.4751 -5.30431 -13.2745 15
684 1 5.02829 2.35736 10.8959 20
685 1 9.89089 15.1618 -3.06354 17
686 1 3.10876 7.27767 7.9545 23
687 1 15.3519 -3.3014 -5.59909 20
688 1 4.73933 13.5729 16.5454 11
689 1 -8.22692 -0.733722 8.18208 21
690 1 11.1181 -11.7761 -5.33103 18
691 1 0.708709 -0.878534 -10.5259 24
692 1 -3.61374 13.1139 7.79138 21
693 1 3.33528 1.43423 8.36567 25
694 1 8.93726 -3.17301 -4.71493 24
695 1 3.18986 11.4165 5.31606 22
696 1 -9.90072 -2.87527 2.56597 24
697 1 0.723357 1.44774 16.7223 12
698 1 -5.85358 9.40494 -12.7443 14
699 1 -8.91751 8.63629 -11.7707 11
700 1 10.4694 -12.4868 0.820875 12
701 1 11.8446 6.247 -2.36189 21
702 1 6.89166 -6.27447 5.96783 19
703 1 1.66211 11.8745 2.88229 22
704 1 -11.8836 5.96904 6.93325 15
705 1 -0.356382 -4.21197 -15.7619 15
706 1 4.97638 -11.1977 8.0993 13
707 1 4.47408 13.6352 -0.628629 21
708 1 -1.74026 -0.339107 17.7634 11
709 1 -7.13653 -5.1342 -10.9381 18
710 1 -3.36436 -9.42759 -12.2537 14
711 1 -1.81045 -14.6294 -7.76981 13
712 1 -0.410227 15.879 -5.92318 15
713 1 5.46195 -3.39529 -4.81303 23
714 1 -3.23546 11.1055 4.96937 21
715 1 7.50609 -11.8839 -5.26962 22
716 1 12.3224 -9.11678 0.808596 17
717 1 2.31061 -7.7677 11.8094 11
718 1 18.9937 0.164552 -1.35377 17
719 1 2.37229 -15.8297 -4.92131 14
720 1 -3.34828 -3.77803 8.23705 24
721 1 2.16469 -0.130387 -7.54993 26
722 1 -2.88449 -12.1297 0.0888263 18
723 1 -7.37675 -11.365 -2.58679 15
724 1 -6.78858 0.140929 10.793 21
725 1 -6.80489 -15.0876 5.43141 13
726 1 13.7606 8.83501 -7.41812 12
727 1 -3.50493 14.9022 2.32988 15
728 1 -5.69918 2.65708 10.2342 17
729 1 -9.98641 2.73921 2.18015 22
730 1 13.1792 -2.4468 3.35605 24
731 1 -10.0926 0.0547699 -13.3054 11
732 1 -0.171183 10.8313 -5.68219 20
733 1 12.1443 0.703932 -7.41233 24
734 1 10.6379 11.5414 13.1053 14
735 1 15.7381 2.59496 -4.59968 20
736 1 -12.7753 3.46098 -11.0325 11
737 1 -9.16103 -3.15191 -8.42693 24
738 1 2.08952 9.18779 20.137 8
739 1 6.99983 8.8802 -7.57481 21
740 1 16.4164 11.014 5.29657 12
741 1 -1.68701 1.12467 13.542 20
742 1 -4.0629 -15.8855 0.878172 13
743 1 -0.500995 -14.5062 7.75924 13
744 1 0.0504537 -5.67309 11.2686 20
745 1 16.2963 9.3929 7.81044 15
746 1 4.20603 -8.46535 -7.43602 21
747 1 -5.06854 6.03797 2.61813 22
748 1 8.0852 8.29009 5.37398 21
749 1 -6.98938 -5.75258 10.8965 17
750 1 7.04311 11.4454 -9.68319 12
751 1 -0.984708 -15.9079 -4.32793 14
752 1 4.76679 -16.5388 2.54237 11
753 1 1.51211 -16.6864 3.06114 12
754 1 6.95685 3.36633 -8.0603 22
755 1 8.34924 12.3134 -2.67018 21
756 1 -5.27708 1.82222 -15.8215 14
757 1 0.0302818 3.5361 13.564 21
758 1 0.854112 4.32835 -10.4702 21
759 1 -8.16641 1.35053 -15.1034 12
760 1 -6.56754 -2.75185 -2.50343 25
761 1 3.36128 14.7128 -3.54858 22
762 1 9.78286 3.61744 3.14661 21
763 1 -4.62648 -6.48434 -13.3 14
764 1 -6.00419 -6.73868 0.269177 24
765 1 18.113 4.96111 -5.83158 11
766 1 17.5564 -5.13783 0.667552 11
767 1 -9.90842 1.05335 10.4447 20
768 1 9.31342 -8.84359 5.3441 18
769 1 19.2852 -2.12725 1.48098 15
770 1 15.0942 -0.999688 8.45557 21
771 1 2.77456 17.2181 12.1293 12
772 1 -7.89338 5.26631 14.4345 15
773 1 -12.5946 3.27662 11.6013 14
774 1 1.71562 -14.2723 5.42283 16
775 1 11.3582 2.7566 5.51606 21
776 1 4.68448 8.1414 15.9521 18
777 1 -11.3182 -0.245822 -3.0369 21
778 1 10.298 -6.16205 0.176444 22
779 1 -4.86648 11.9951 -3.00771 18
780 1 4.97906 8.33482 5.46841 22
781 1 2.87541 -13.6336 8.50249 11
782 1 7.2979 2.07437 16.4588 16
783 1 1.53598 14.2325 4.67285 20
784 1 5.33149 -11.0482 2.84104 23
785 1 -4.25507 -3.75298 0.211602 24
786 1 2.16986 6.27836 14.1987 19
787 1 -12.7247 2.29009 -3.63563 17
788 1 -1.50695 13.4539 14.4844 13
789 1 8.11548 14.2515 -0.502979 24
790 1 -12.854 -6.74688 4.94829 15
791 1 0.362072 -11.6862 5.34689 22
792 1 7.55329 -4.81738 11.2623 21
793 1 16.7536 1.52311 9.51978 17
794 1 9.934 7.19691 8.27906 22
795 1 1.52453 13.7589 -0.811235 19
796 1 0.906032 -8.41041 -7.33623 22
797 1 -7.33674 4.366 -15.0188 11
798 1 -3.54463 -4.11789 13.4075 18
799 1 0.127617 17.1399 4.39653 14
800 1 14.5961 2.68317 5.45154 21
801 1 6.81702 9.34312 -2.45421 20
802 1 -2.70875 6.15652 16.8704 16
803 1 9.83007 5.5184 11.2095 22
804 1 7.76293 -8.26722 -8.18661 19
805 1 -5.5082 -12.1085 6.23133 18
806 1 -2.79384 -0.955788 -4.94788 26
807 1 20.6385 2.87145 3.88968 11
808 1 7.79462 -6.20284 -10.1722 19
809 1 1.65474 6.81638 18.5203 9
810 1 9.04208 -10.9263 -7.56128 22
811 1 1.34016 6.34393 -14.7044 14
812 1 0.56207 -8.418 -2.10619 21
813 1 10.6825 4.59801 -10.2946 13
814 1 17.0676 -0.0754429 0.789007 23
815 1 6.13873 -4.09796 14.19 15
816 1 -1.8624 -8.79323 -9.24393 19
817 1 10.7871 16.9457 -0.481902 13
818 1 0.12531 -6.04219 5.94623 23
819 1 -13.7536 4.61712 4.95185 10
820 1 15.0965 6.48749 -1.77104 22
821 1 14.4452 8.71653 5.691 20
822 1 7.78935 -0.685505 -10.2382 23
823 1 -8.47144 11.5452 7.13174 18
824 1 17.8783 6.46552 8.82987 14
825 1 11.1626 12.2527 -3.00264 22
826 1 6.71147 5.2637 -11.4511 18
827 1 12.0393 -3.23107 0.585503 20
828 1 -11.5785 7.51754 -6.3928 13
829 1 11.948 4.59021 8.68178 22
830 1 -11.7481 -6.05617 2.22541 17
831 1 -1.19515 10.5938 -10.0202 21
832 1 6.74842 5.51096 10.9409 23
833 1 -12.4982 2.43521 -7.75967 17
834 1 -10.2395 2.65262 7.25231 18
835 1 -2.4576 9.22422 -12.4072 18
836 1 13.0165 -6.83715 -12.6939 11
837 1 -9.05481 -6.91435 -5.01663 20
838 1 15.6807 -4.79518 -2.21286 18
839 1 -11.163 6.05736 -3.3606 17
840 1 -2.87451 -8.30276 -2.5394 24
841 1 14.607 6.94937 8.56022 19
842 1 -7.65425 -9.21753 5.90477 20
843 1 12.2082 0.720742 16.0051 14
844 1 15.3559 -4.50382 8.7552 9
845 1 13.1879 -0.560859 6.02043 22
846 1 -13.4335 1.81283 2.53091 14
847 1 4.9156 14.6771 10.1619 20
848 1 3.19652 10.8328 -5.13477 22
849 1 2.716 -5.55813 -15.551 15
850 1 -2.97884 17.4726 9.44803 10
851 1 -14.5354 -7.10943 7.85545 13
852 1 10.0419 9.04205 -2.36132 22
853 1 3.09141 5.74851 10.838 20
854 1 18.7271 0.795132 -7.02193 11
855 1 4.79519 -2.78671 11.2209 19
856 1 -0.356089 13.5916 -9.27069 14
857 1 10.3478 8.75808 -8.00302 17
858 1 -3.61058 0.102545 10.8025 23
859 1 19.4341 4.95482 6.73038 14
860 1 0.598608 -2.79373 -7.83429 26
861 1 11.4328 12.3767 2.26823 21
862 1 -11.7343 1.83244 -0.465555 22
863 1 -0.228187 -12.3078 9.79226 15
864 1 6.21657 15.3578 -8.28278 12
865 1 7.66241 -1.68907 13.0799 22
866 1 -2.46506 -14.6612 -1.86801 17
867 1 -5.09705 12.1156 2.42657 23
868 1 -9.33614 8.7359 -3.9251 19
869 1 15.5963 0.562941 -7.291 20
870 1 4.78303 -9.9758 -12.8711 15
871 1 -5.12734 8.05065 5.29229 20
872 1 13.4306 11.078 -4.99228 19
873 1 -0.199205 -0.0381686 11.3081 23