ITEM: TIMESTEP
27000
ITEM: NUMBER OF ATOMS
2000
ITEM: BOX BOUNDS pp pp pp
-30.0 30.0
-30.0 30.0
-30.0 30.0
ITEM: ATOMS id type x y z Coordination
1 1 -10.5452 4.78563 -14.5557 13
2 1 -1.18309 -10.0042 -10.3815 19
3 1 9.6863 14.4321 10.3632 12
4 1 5.09601 -7.07741 12.5577 12
5 1 -8.51826 6.35522 1.19196 18
6 1 10.7891 -4.74399 -10.2213 17
7 1 -11.1991 4.46387 -6.80193 18
8 1 3.32392 -7.40393 7.53112 18
9 1 -4.89284 0.331154 -8.29468 22
10 1 -11.2944 -5.12723 9.13021 19
11 1 13.1424 3.64275 -9.76352 17
12 1 -4.58696 -9.36248 -0.456001 18
13 1 -9.11882 -4.80491 6.93051 21
14 1 1.1459 4.87809 16.9007 14
15 1 9.4504 -1.77561 2.81273 22
16 1 0.520342 8.05421 9.61842 19
17 1 11.1384 1.22825 2.52296 22
18 1 -1.35901 13.6103 -13.1681 13
19 1 2.52011 -0.10789 10.4063 19
20 1 -3.4038 -0.656628 -18.2803 8
21 1 -11.0318 0.696016 15.4787 12
22 1 12.8951 3.82929 10.2356 19
23 1 -2.36113 7.99438 -16.0197 13
24 1 4.87584 6.00951 -8.54192 23
25 1 9.74873 -1.18663 14.0797 17
26 1 -9.04032 2.43845 -1.04082 19
27 1 -9.42457 7.39126 -6.08409 21
28 1 -1.5589 0.575551 -8.39251 25
29 1 -5.4752 11.0455 7.21444 20
30 1 8.7212 -11.2619 4.62909 11
31 1 4.57479 -0.849217 8.11186 22
32 1 5.66616 -13.1666 -8.54538 16
33 1 12.7015 -7.44681 2.53283 16
34 1 -9.35324 -13.3217 -0.211334 11
35 1 -9.3386 -4.99625 11.3526 20
36 1 4.93286 -3.18884 -11.9861 19
37 1 10.9669 -9.53177 -13.021 11
38 1 -8.0865 2.41372 -12.8342 22
39 1 -2.88208 7.61406 14.7518 20
40 1 0.285922 -9.79838 7.82971 20
41 1 7.40887 -3.59156 15.4637 10
42 1 -8.82172 0.520071 1.76178 23
43 1 -12.2088 -2.20858 10.5544 21
44 1 -5.06624 2.33341 -0.506455 20
45 1 -3.42213 17.1827 1.57413 18
46 1 3.21046 -12.0487 -11.6308 12
47 1 3.26585 3.21609 -8.14297 26
48 1 6.63816 -5.33697 -4.74684 22
49 1 -2.43073 -3.8554 13.4805 16
50 1 -11.1854 11.1683 4.9982 14
51 1 4.79517 10.3717 -9.55167 21
52 1 0.370789 15.8167 11.9858 15
53 1 -8.89298 12.2763 -4.3264 16
54 1 4.21511 12.6561 2.10135 20
55 1 3.31831 -12.2988 0.487778 20
56 1 8.33161 -7.92853 -5.84428 22
57 1 6.88419 -6.09363 -16.0155 13
58 1 -8.09731 5.63758 9.25618 19
59 1 -9.29434 0.513276 -8.31076 20
60 1 9.39722 0.277039 5.43558 22
61 1 -7.29267 9.59487 -3.6481 24
62 1 -2.73981 -10.0045 7.76399 20
63 1 -1.85756 17.8089 11.5077 9
64 1 -10.7334 9.82105 -5.55354 14
65 1 -6.74498 11.2957 14.6974 12
66 1 4.5013 6.42908 -3.38459 20
67 1 -4.19838 -12.9179 9.58178 12
68 1 7.63984 4.72748 8.14985 22
69 1 11.3213 -10.4831 -3.16209 15
70 1 3.91432 12.8735 14.4272 18
71 1 -10.0293 3.48731 -9.75002 19
72 1 -8.39377 11.2447 -10.3331 13
73 1 6.22493 11.7324 16.7009 11
74 1 17.7592 -4.16312 -9.83377 8
75 1 11.3941 -10.4835 2.64108 13
76 1 -11.0775 -2.34903 6.80219 20
77 1 -5.63015 0.394667 1.7322 20
78 1 5.3486 16.0408 6.64352 16
79 1 6.17461 -0.814289 14.6567 18
80 1 -6.00406 -11.4529 7.26662 21
81 1 -7.09894 -0.200126 -0.831846 22
82 1 12.9575 1.8795 7.54128 19
83 1 9.56428 0.177919 -0.0238104 21
84 1 -1.09599 12.659 13.166 18
85 1 0.9845 -0.903931 8.12883 24
86 1 -5.10941 -5.20512 2.28283 22
87 1 -1.73489 -5.39196 -8.17399 26
88 1 -8.21451 9.33237 7.83877 18
89 1 -4.04216 9.63855 1.96742 20
90 1 -2.0159 5.97785 -8.91089 21
91 1 6.40183 0.0515757 -5.4196 24
92 1 9.24328 5.36668 -7.426 20
93 1 6.42278 -5.55219 0.0119613 22
94 1 5.41751 -9.36115 9.80004 11
95 1 -3.84964 16.9877 -1.90575 15
96 1 -6.74083 13.607 5.2578 18
97 1 -7.81719 -2.88782 13.0573 18
98 1 -1.70808 13.2492 9.10249 15
99 1 -8.78374 -5.37889 14.7488 11
100 1 15.4843 -4.83865 -8.15748 17
101 1 -9.10115 2.47298 4.92884 22
102 1 -10.7242 -12.5324 3.11553 10
103 1 11.7909 -2.70437 -5.38703 20
104 1 4.97972 2.83459 -10.8614 22
105 1 -3.93652 -3.36892 -15.4786 13
106 1 -1.64749 16.0822 4.10025 18
107 1 -5.95312 7.77745 -5.6935 20
108 1 1.3566 11.314 14.2341 20
109 1 0.303085 13.0068 -7.28649 18
110 1 -7.91082 13.9925 0.361315 17
111 1 9.10211 10.1213 1.60474 21
112 1 0.831189 -3.35143 13.7543 13
113 1 17.0267 1.49697 8.30745 12
114 1 1.49065 -3.32371 -5.33519 24
115 1 4.25962 -5.77394 -9.98266 22
116 1 1.11086 4.95003 7.49933 23
117 1 7.60843 1.00615 13.25 22
118 1 -8.66023 -3.24712 -0.920139 20
119 1 8.0779 -4.43305 2.44419 23
120 1 -9.13523 -7.83684 -4.09367 17
121 1 9.85826 -7.61775 1.84205 22
122 1 -8.17973 6.5233 6.53007 20
123 1 3.73476 5.47388 -15.0386 15
124 1 4.40316 18.7913 -1.0928 12
125 1 -9.33995 -7.90471 12.6307 12
126 1 -7.72943 -12.7115 9.68415 11
127 1 6.34513 -8.25804 -11.9993 21
128 1 4.25962 8.34028 -6.37725 21
129 1 13.2421 -5.61393 -0.0321404 19
130 1 -0.569913 -14.8783 4.97663 17
131 1 -11.7228 -5.92703 -2.92494 14
132 1 15.384 6.20666 10.3997 17
133 1 15.5123 -2.3987 -11.053 14
134 1 -12.4872 -0.303194 2.16108 21
135 1 10.7901 9.18731 4.88112 23
136 1 17.631 9.00787 5.03062 12
137 1 -6.24009 4.71796 14.9975 16
138 1 10.9176 7.16066 2.65914 20
139 1 -4.80872 9.01052 11.9259 23
140 1 -2.14572 12.166 -4.79519 23
141 1 1.91254 -10.3178 -9.08935 22
142 1 10.3099 -7.33091 -8.39004 20
143 1 1.53297 14.1992 -11.019 10
144 1 10.0029 -5.46229 10.7673 16
145 1 -0.418376 -2.36362 -15.0969 17
146 1 -0.453382 9.48669 -4.25208 21
147 1 13.0127 -1.91472 -9.35188 23
148 1 -6.37637 14.5702 -5.61799 16
149 1 -6.44205 17.0906 -0.499575 11
150 1 7.40073 2.73043 -11.6997 19
151 1 11.0353 -8.41289 5.28413 15
152 1 -3.63114 3.29785 -8.48745 23
153 1 -9.86451 13.8505 10.1038 12
154 1 14.5911 12.9953 -3.46264 12
155 1 4.6447 8.82441 -1.55323 23
156 1 -3.89574 18.0369 4.98449 11
157 1 11.5141 9.39154 -4.89015 21
158 1 -3.9705 14.6014 -3.57518 24
159 1 5.28165 15.7642 -8.12441 12
160 1 3.49896 11.3206 -11.9336 15
161 1 -7.00114 -5.89908 4.48124 22
162 1 -9.28499 11.5186 -1.54072 17
163 1 -0.938531 -3.57243 -10.72 21
164 1 -1.00229 -7.70524 -15.4916 15
165 1 12.1409 12.2091 4.78545 20
166 1 -1.07095 15.3324 7.28925 20
167 1 -12.991 -0.229643 -8.58143 18
168 1 -9.58275 13.7427 3.52251 10
169 1 18.1896 2.39627 -4.5074 13
170 1 -11.0339 1.44685 -14.262 13
171 1 13.0607 -1.51682 13.5641 14
172 1 3.45643 18.6865 6.31268 12
173 1 1.09316 13.1541 7.26405 18
174 1 4.59961 -4.84012 -17.6303 9
175 1 -3.71563 7.84867 6.90515 21
176 1 -4.03356 14.0239 -10.9272 13
177 1 3.01658 -1.7345 14.3994 16
178 1 -8.49438 -5.47526 1.80886 20
179 1 -1.21404 -10.6138 -14.3224 10
180 1 -6.66232 17.2629 -4.13521 10
181 1 -3.58439 -11.2031 5.03249 20
182 1 6.86179 -14.149 -2.61688 13
183 1 -1.46236 11.6757 -15.9301 8
184 1 -14.338 0.434598 9.25296 11
185 1 1.14938 8.70835 -1.45073 23
186 1 11.3957 9.54847 -0.843555 20
187 1 -4.20644 9.70935 16.6934 12
188 1 -1.50358 -8.39582 10.427 14
189 1 -6.83697 5.06406 -0.470885 21
190 1 -0.270337 17.8374 5.95688 17
191 1 -3.63965 10.2971 10.1863 25
192 1 14.1458 4.33379 13.063 13
193 1 -3.37721 13.5314 5.81278 21
194 1 13.3172 -1.49676 -2.7226 19
195 1 -7.18929 12.9767 12.2556 16
196 1 -1.63656 2.4046 -5.64398 23
197 1 15.0302 -4.58635 2.96789 16
198 1 -3.99934 -4.92235 10.6059 20
199 1 -10.5848 -0.364126 4.49432 24
200 1 -10.2706 -6.17581 4.4188 20
201 1 6.68364 10.6614 13.6764 19
202 1 -11.6515 1.53967 -6.40964 20
203 1 -4.09103 -12.8565 -2.3346 22
204 1 6.36165 -7.46522 -2.54092 22
205 1 -3.6762 12.7847 11.7164 23
206 1 -7.31736 2.92848 2.02771 21
207 1 6.53537 15.2549 9.41237 17
208 1 -5.02516 0.29272 -3.55646 19
209 1 -6.22731 12.9974 -8.37859 15
210 1 -10.1804 -5.01483 -12.2618 13
211 1 -9.27867 -2.54716 9.91628 22
212 1 -1.69504 -8.59708 5.05401 20
213 1 4.52592 -12.0977 5.61375 13
214 1 -9.02456 11.5683 1.92532 20
215 1 17.608 6.77049 2.8066 15
216 1 8.06388 2.82632 -5.6031 22
217 1 -5.52414 -7.94021 -12.2013 16
218 1 4.17986 0.987522 13.1529 22
219 1 6.5048 -12.1841 -0.679152 21
220 1 -7.26738 5.04684 -11.2833 24
221 1 1.58981 -9.16507 -15.7648 12
222 1 12.0999 0.787898 -9.64298 19
223 1 2.58065 8.37998 -15.7127 11
224 1 -8.2272 -3.80924 -6.2568 20
225 1 -1.46413 17.7365 -4.01987 12
226 1 -8.65101 -11.1996 12.8952 6
227 1 6.84279 16.7033 -1.71972 15
228 1 -12.9345 3.33813 10.6024 13
229 1 -3.56087 9.21163 -3.461 19
230 1 9.24982 0.281327 10.6523 21
231 1 0.0645952 -6.63252 -10.5514 23
232 1 -4.0612 10.5655 -7.05825 17
233 1 1.30442 10.3212 -9.64513 16
234 1 -9.55428 -10.2577 8.08181 18
235 1 -7.25916 2.74095 7.36093 20
236 1 -6.24234 8.40513 9.42878 21
237 1 1.68794 -8.62967 -5.50259 21
238 1 -5.15532 -15.4593 1.81789 15
239 1 11.6515 -8.47996 -5.64527 17
240 1 4.63121 -4.67873 -2.40679 23
241 1 12.3531 4.48432 16.1669 8
242 1 8.53296 7.73631 -5.42044 21
243 1 2.80316 15.6289 1.64566 20
244 1 -8.73428 -3.26128 4.1418 20
245 1 -6.90379 9.12344 1.86673 21
246 1 5.58181 9.67693 7.00137 19
247 1 3.84656 -13.3542 -2.75514 19
248 1 14.5265 1.51132 -3.81304 20
249 1 4.4105 4.91731 8.02971 23
250 1 -10.075 5.16309 3.87736 21
251 1 -13.6688 -3.69538 -4.45442 11
252 1 5.95073 8.29463 -14.33 11
253 1 5.68963 0.25872 10.6516 22
254 1 9.19948 10.7548 -6.61881 21
255 1 4.72096 -10.8368 -3.44041 17
256 1 -1.71867 2.43552 -11.1229 22
257 1 -2.12307 -16.453 2.45033 12
258 1 9.77164 0.305147 -5.54692 20
259 1 -5.45024 2.38004 4.32661 20
260 1 -0.870848 -13.7447 -2.66671 22
261 1 -12.7953 -3.61958 -7.60813 13
262 1 4.36958 12.1282 -3.75885 20
263 1 4.41267 -5.96073 -12.8622 16
264 1 7.79459 8.56432 17.6452 11
265 1 16.507 5.61352 -0.129234 20
266 1 -6.51246 -8.21586 1.63143 19
267 1 12.5014 -3.62717 -13.0208 13
268 1 -1.54983 -8.68147 0.222787 21
269 1 -6.51032 -2.63651 -8.77582 21
270 1 -6.01558 1.5706 -15.5849 16
271 1 -7.62312 -9.51567 10.4405 18
272 1 10.8626 -2.26768 10.838 23
273 1 6.07448 -3.84019 7.45731 18
274 1 -8.63674 -7.89262 -10.5818 9
275 1 3.04373 -5.50849 5.07749 20
276 1 3.19811 7.94945 -9.88438 21
277 1 6.05631 11.3057 -1.90169 20
278 1 -5.37139 -2.99409 4.74079 25
279 1 7.44521 18.294 0.753755 13
280 1 -5.50743 -6.15757 6.8979 19
281 1 -9.62454 -4.99078 -9.12523 18
282 1 -4.14639 -4.54596 -10.602 18
283 1 -0.925922 8.25153 -13.4108 21
284 1 -1.87523 -8.85423 -5.52147 22
285 1 -3.66102 -8.09878 2.62205 22
286 1 10.7432 -2.22508 -14.8029 9
287 1 20.4296 3.22888 -2.33417 10
288 1 15.0505 4.49985 7.82359 21
289 1 -1.52145 -5.36618 -2.89785 23
290 1 -9.56966 -7.12712 9.45453 20
291 1 -3.18703 -6.44979 -0.359161 26
292 1 9.86445 3.64703 16.455 14
293 1 -2.92761 -13.6849 3.42425 23
294 1 1.82532 -9.28473 -0.591369 18
295 1 2.00485 18.4181 3.89929 17
296 1 5.33055 -0.0538884 -13.4204 16
297 1 -5.63991 -2.79309 -12.307 19
298 1 -14.1628 -7.45599 11.6494 11
299 1 4.75329 9.45923 18.916 11
300 1 1.47313 -14.3612 -0.803909 19
301 1 -4.29051 -10.5913 -10.2127 16
302 1 -10.0012 5.90703 -11.6391 18
303 1 9.31932 2.10119 8.15936 23
304 1 -6.84949 3.05362 -8.68971 24
305 1 1.62848 6.14958 -8.66111 23
306 1 -3.41439 -5.49433 4.97653 20
307 1 7.51916 -14.3591 -6.06114 11
308 1 -0.588506 17.2591 -0.785398 17
309 1 2.73469 10.0039 1.70669 22
310 1 15.5404 6.19789 4.94977 22
311 1 -7.44863 -2.67947 7.36515 20
312 1 -8.5056 -0.802213 15.9099 11
313 1 -7.43174 14.198 8.26157 15
314 1 5.20278 -5.25386 -7.45096 22
315 1 16.3096 10.5339 -4.76911 12
316 1 8.40048 -8.80111 -0.499973 22
317 1 -5.32597 -0.149458 15.9412 14
318 1 -10.3858 -1.7583 13.1628 23
319 1 1.68243 -15.537 -3.99211 14
320 1 -5.89142 7.76868 14.4861 19
321 1 -7.95722 9.16783 12.0307 19
322 1 -15.3758 -1.80346 11.5061 10
323 1 -13.6704 -4.70619 10.8345 16
324 1 16.4727 -1.75105 -2.36751 15
325 1 -12.7322 -8.47646 9.57729 17
326 1 10.8041 -1.47607 -7.89627 20
327 1 13.4299 -7.78376 -8.0727 11
328 1 1.63712 18.4787 -2.4507 13
329 1 -8.85502 9.0093 -0.609595 20
330 1 10.2019 8.73583 10.1324 21
331 1 -3.99687 -0.0773701 4.92152 22
332 1 7.96882 -9.9063 -3.75224 21
333 1 -2.44005 12.6908 2.43738 21
334 1 -2.10297 8.39391 4.84152 19
335 1 7.4333 -10.1842 7.75919 11
336 1 14.4586 -2.82386 5.57759 19
337 1 -1.91577 7.75719 12.0301 19
338 1 -5.32339 -3.30402 -5.62728 21
339 1 -4.10555 5.11477 12.2479 22
340 1 -2.60612 17.5752 8.27776 13
341 1 9.31671 10.4938 15.3129 12
342 1 -6.51086 12.4097 -2.486 22
343 1 1.34355 -5.77591 -12.8939 18
344 1 -5.17808 2.32157 -5.85508 23
345 1 7.54842 -10.6421 -13.374 13
346 1 -6.95971 6.02945 11.9094 21
347 1 -13.8165 -0.186481 -0.866704 15
348 1 -3.28589 -2.61329 -8.33135 24
349 1 -1.94562 8.44467 -0.40748 20
350 1 7.67852 -1.05818 8.08857 26
351 1 -12.8236 -9.64217 2.98707 11
352 1 11.8585 -6.7898 8.06418 12
353 1 -11.2095 -9.98599 11.4454 13
354 1 -12.3458 8.19301 3.66197 14
355 1 -2.21451 -0.740495 7.72966 24
356 1 5.18084 -10.3407 -9.64123 23
357 1 -7.1964 0.0775991 -10.2827 18
358 1 9.74844 -0.0139482 -11.2641 19
359 1 1.93074 16.2379 6.57737 18
360 1 -8.86741 0.367322 -3.53499 21
361 1 9.02363 -7.49713 -11.2609 22
362 1 9.59803 5.10358 -13.7231 10
363 1 -4.67592 -14.4026 -7.31186 12
364 1 -10.8117 -5.53927 -5.9194 14
365 1 -1.79662 -10.7092 -2.62806 23
366 1 14.1993 1.069 13.0352 12
367 1 11.1566 3.10403 -0.189997 21
368 1 -8.75731 -0.128834 -14.8875 13
369 1 4.55094 18.747 2.18919 15
370 1 -14.7779 -1.19373 -6.55836 12
371 1 -5.36828 5.2705 6.33413 20
372 1 -6.03326 11.3536 -0.0650136 21
373 1 -1.9429 10.7241 7.03146 20
374 1 8.96265 7.88875 12.9387 21
375 1 18.4772 -0.721644 -5.03864 11
376 1 12.7199 -4.16251 12.0331 11
377 1 16.1528 0.156348 -6.19711 15
378 1 -6.48355 -13.6345 -5.00482 16
379 1 -1.96351 6.87437 1.98623 21
380 1 3.46222 -7.95408 -2.77874 21
381 1 1.08092 8.84079 4.10426 20
382 1 -9.85803 3.81385 -3.84634 21
383 1 3.80216 -14.3963 -6.07605 14
384 1 15.5336 0.181726 5.99235 19
385 1 -9.84784 -2.59695 -3.37993 22
386 1 -5.29305 -8.71145 5.45712 19
387 1 -11.1869 -4.98991 13.0242 18
388 1 -2.14868 14.5092 -0.396402 23
389 1 -7.13166 -9.03199 -2.36177 20
390 1 11.5204 9.13419 13.1859 15
391 1 -10.3873 5.60015 -1.29291 23
392 1 0.899611 10.9563 -13.7146 15
393 1 7.58539 14.7794 4.66511 18
394 1 -11.9373 -3.2059 -1.07604 18
395 1 0.130178 -10.9459 -6.86975 24
396 1 -11.7249 -3.06923 15.8639 10
397 1 -11.2537 9.78107 0.487697 13
398 1 4.89543 -8.442 4.98569 21
399 1 -2.8655 -11.954 -5.25854 22
400 1 10.2982 12.5563 8.0161 18
401 1 4.44312 10.7779 -14.4165 10
402 1 -9.71312 8.5508 -9.07697 17
403 1 1.65801 15.8085 -7.87325 13
404 1 -5.41122 6.32418 -3.21959 22
405 1 -1.77589 -10.8925 2.59054 21
406 1 14.3419 7.08305 2.64755 18
407 1 -4.2452 8.53162 -12.3381 19
408 1 0.692369 3.0026 10.3524 21
409 1 -13.1707 4.5408 -1.03242 14
410 1 -3.57414 5.42494 4.69357 23
411 1 -6.3096 -12.9901 0.146092 18
412 1 3.44637 -5.89655 -4.90781 23
413 1 8.35168 -7.99996 -14.4707 14
414 1 -0.69216 2.13638 7.77989 24
415 1 -13.9728 4.69909 -4.08539 11
416 1 -13.5626 -1.43954 14.2949 12
417 1 -11.0081 8.62993 7.26576 17
418 1 -0.778163 -3.67087 8.0699 24
419 1 -4.81834 2.52827 -11.1724 20
420 1 10.0816 -5.36152 -5.03312 24
421 1 6.42923 -12.9606 -10.972 14
422 1 -7.03262 -0.117634 13.6254 19
423 1 5.33596 -8.30323 -5.48182 23
424 1 -4.94347 7.12132 -14.8692 17
425 1 5.49221 -13.216 2.89336 14
426 1 1.10566 12.6164 -4.22673 21
427 1 -9.03952 8.23401 4.45994 20
428 1 -5.9382 -2.30619 10.4209 20
429 1 -12.3382 -2.79028 -10.6541 13
430 1 -11.7403 -7.6443 6.79107 23
431 1 9.27701 -3.77107 8.49629 22
432 1 9.55466 6.16959 0.0366766 23
433 1 4.81718 0.53606 -8.12635 26
434 1 7.54209 -7.93542 10.7858 14
435 1 14.5062 8.92546 -7.25929 16
436 1 -2.57561 -0.0698223 13.0198 18
437 1 4.31226 17.407 -4.02511 11
438 1 7.85502 -2.59624 5.37182 23
439 1 -3.31435 -6.24181 -5.82108 23
440 1 -0.0945063 7.26369 16.0194 16
441 1 -7.1792 15.8517 11.0176 11
442 1 -8.49682 -10.4481 -5.16115 13
443 1 9.11115 15.5243 1.76162 19
444 1 8.68164 10.2295 7.46183 20
445 1 -5.51694 -0.632465 7.7023 22
446 1 -5.31933 -10.522 -4.29857 19
447 1 -10.1144 5.24257 11.5057 18
448 1 -6.10509 -7.67041 -5.26657 19
449 1 -6.39696 11.5561 10.0589 19
450 1 -6.33608 -11.4913 -7.0679 16
451 1 3.11458 -8.435 -11.477 18
452 1 -5.48291 -11.238 2.68885 22
453 1 -3.76721 1.98782 7.49403 22
454 1 10.8901 -2.90319 5.61541 22
455 1 -4.7167 2.07897 13.1074 24
456 1 -4.24545 5.72157 -11.2618 20
457 1 12.2754 5.75649 5.12222 20
458 1 -10.7533 -9.71689 5.16036 20
459 1 3.03674 5.41972 -5.85196 23
460 1 1.83602 18.892 0.855816 14
461 1 -0.317813 5.71186 -5.99609 21
462 1 0.765345 14.2805 14.87 13
463 1 -15.6227 -0.51133 -3.96789 11
464 1 -1.31894 14.39 -2.54497 22
465 1 10.9474 13.1007 -8.45092 13
466 1 -5.18839 -5.54841 -7.97247 21
467 1 3.97594 3.81708 16.0721 15
468 1 1.67872 -13.338 -8.531 15
469 1 1.58447 -5.35666 -7.85649 22
470 1 8.09477 -10.6403 1.65987 22
471 1 -7.51229 10.8062 4.438 21
472 1 7.05636 5.33985 16.5538 17
473 1 12.916 4.47662 -2.69154 17
474 1 2.87536 11.6165 -1.40058 19
475 1 -6.86414 7.91074 -10.6061 24
476 1 4.77993 2.69789 -5.47673 26
477 1 1.67017 -8.55562 5.24322 19
478 1 -13.9144 -2.82858 1.17282 11
479 1 0.533289 17.889 9.26626 15
480 1 1.83458 7.7961 -12.7692 19
481 1 15.9717 8.03625 -2.28268 17
482 1 8.29667 13.9472 -7.20356 16
483 1 7.81148 -2.71359 -0.226014 23
484 1 19.4497 5.39814 0.243679 11
485 1 1.57513 2.13709 -10.7767 22
486 1 5.3767 -8.96977 -0.314615 21
487 1 2.6772 -10.5855 3.53086 18
488 1 2.66951 -4.58764 11.7024 17
489 1 -8.54581 5.9327 -8.54218 23
490 1 -14.6276 -8.88024 6.02682 10
491 1 0.964163 -9.6208 -12.7377 20
492 1 11.2096 15.5257 4.36523 13
493 1 0.356949 2.82698 -13.0603 22
494 1 3.35445 1.00685 16.0449 16
495 1 -9.78143 0.027065 11.1397 21
496 1 0.856645 -13.2263 2.35283 24
497 1 -10.3113 -0.287319 -0.727372 23
498 1 17.2873 -4.17068 -6.18238 9
499 1 12.8182 0.296298 -0.880153 20
500 1 -2.15054 8.11255 -6.59626 22
501 1 0.122533 -6.07931 -5.64243 22
502 1 2.91676 5.0581 -11.6134 22
503 1 12.9972 0.40688 -6.17653 23
504 1 -4.88545 2.87343 17.4818 11
505 1 5.91535 15.7093 1.6483 23
506 1 1.94877 -2.3256 -13.4041 21
507 1 1.60624 2.75928 -15.7733 14
508 1 -2.3443 -2.3233 10.435 20
509 1 -3.36016 11.4699 -1.66404 21
510 1 -5.57169 0.0789593 -13.0792 18
511 1 -13.93 1.85559 -3.60482 15
512 1 -2.01405 -7.45672 -12.4545 22
513 1 -6.30059 -7.16042 11.775 17
514 1 1.30373 8.55176 -7.00144 21
515 1 18.3514 4.39287 8.96204 10
516 1 16.3493 11.0311 -0.733196 12
517 1 -6.30432 -15.2391 -1.86759 13
518 1 3.63133 -7.72338 2.15303 20
519 1 -0.990703 -4.83646 -13.7613 17
520 1 -9.88828 11.2356 11.8566 13
521 1 3.30538 -2.50139 -8.07894 24
522 1 5.96639 10.0666 1.21403 20
523 1 14.1674 -2.85316 0.291434 21
524 1 5.87459 11.6283 -6.51644 22
525 1 9.75383 -5.56161 4.97512 19
526 1 12.8382 7.35064 -9.51601 14
527 1 6.92037 14.1003 12.5963 16
528 1 -12.2953 0.892008 6.74285 16
529 1 6.64414 12.6921 7.17286 18
530 1 9.20651 -0.39484 16.4093 10
531 1 -3.2131 1.9934 -13.7215 22
532 1 -4.96477 -5.27432 -3.24439 20
533 1 0.917317 -2.52987 10.6811 19
534 1 9.16242 12.191 4.69835 24
535 1 9.10259 8.32216 -12.6273 13
536 1 -4.00472 16.7336 -6.33916 11
537 1 -0.244597 11.5911 -1.53654 21
538 1 12.5739 0.418419 10.5352 19
539 1 9.65553 2.97859 -9.71474 22
540 1 13.652 -5.43463 -5.31564 20
541 1 13.79 9.37261 10.6119 17
542 1 -12.0905 -3.44451 4.09263 18
543 1 -7.51908 9.65635 -7.62259 23
544 1 1.05773 0.157385 13.6196 21
545 1 -12.7983 0.39396 12.0748 17
546 1 -2.91479 13.4044 -7.90749 18
547 1 3.78379 -10.8977 -6.33111 23
548 1 6.6601 -2.15604 -7.74522 24
549 1 0.236949 16.0495 1.31285 19
550 1 -7.77468 -3.5802 -14.4713 12
551 1 2.69105 -14.7451 4.52939 13
552 1 -8.20322 -5.48395 -3.28086 18
553 1 -3.34262 10.3837 -14.4053 18
554 1 -6.76171 3.1481 -3.15407 23
555 1 -4.40609 12.8231 15.0963 13
556 1 -13.2755 -2.78675 8.10189 13
557 1 7.7923 6.54101 -2.72813 22
558 1 4.83417 -8.26823 -16.6441 10
559 1 7.90568 -6.19903 13.2801 13
560 1 8.07364 1.00825 -2.84499 25
561 1 -11.9425 6.95615 1.36203 15
562 1 5.27096 7.517 16.5141 16
563 1 6.25594 15.0243 -5.1333 15
564 1 11.8058 -4.56989 -2.99821 22
565 1 -0.585742 11.0491 10.8132 18
566 1 -3.44492 4.76327 -16.5429 13
567 1 -4.28602 -10.03 11.5595 13
568 1 -0.246811 3.45013 -8.33423 24
569 1 3.81789 2.67691 -13.3395 17
570 1 4.21705 12.2595 8.67671 16
571 1 6.74487 8.22652 -8.05709 24
572 1 -2.7479 -2.51014 -12.7766 20
573 1 -3.38666 -10.2776 -7.46904 20
574 1 -8.67252 -2.18463 -10.7713 20
575 1 15.9255 4.06803 2.23162 22
576 1 16.7919 7.36733 -5.45065 13
577 1 12.3221 -4.76146 -7.36944 22
578 1 12.7705 6.81831 10.8638 17
579 1 10.1176 -7.58315 -2.49523 23
580 1 -1.46291 3.25092 -15.6283 18
581 1 12.7571 11.7356 0.430283 21
582 1 -7.14468 5.16227 3.53245 22
583 1 9.68061 7.03659 16.0333 16
584 1 12.9056 6.20928 0.115966 19
585 1 18.3618 2.7576 0.650207 16
586 1 8.03657 5.71099 -10.2864 21
587 1 5.80789 4.00328 13.7419 20
588 1 16.5486 3.11555 11.2455 12
589 1 2.70347 -3.71249 8.46671 23
590 1 12.0441 14.1699 -1.74681 16
591 1 2.0681 3.23452 13.7926 23
592 1 15.6573 4.52782 -4.57924 16
593 1 5.85838 7.42013 13.7813 17
594 1 -6.63362 -0.551707 -5.89249 23
595 1 13.8359 3.15121 0.0460604 20
596 1 12.8819 -5.71694 5.29744 19
597 1 -10.2367 8.3758 10.433 18
598 1 7.26161 11.521 9.96852 21
599 1 11.176 -0.715253 8.00006 22
600 1 1.14691 10.4456 8.12595 18
601 1 4.35185 14.7319 11.3911 16
602 1 5.96537 2.22242 8.25435 23
603 1 -1.4283 -14.2576 0.560278 20
604 1 -5.14241 8.48338 -1.1853 22
605 1 11.3226 7.92641 -6.93095 19
606 1 12.8754 -0.460305 -12.4721 13
607 1 5.9555 17.9213 4.06284 15
608 1 -6.14856 -11.3703 -13.0604 6
609 1 9.10782 -2.16965 -9.98364 18
610 1 -12.2383 2.42711 4.1581 19
611 1 -5.36838 6.0601 -8.68125 21
612 1 -3.77754 -16.2273 5.11895 13
613 1 -3.27148 -0.459066 -10.9518 24
614 1 -8.63451 2.19731 -6.01857 22
615 1 11.6191 -4.46353 2.42624 21
616 1 7.51614 12.9648 1.6147 22
617 1 0.807152 -6.10108 8.46567 18
618 1 -10.9338 0.353854 -11.1572 19
619 1 2.50295 -0.335641 -15.2372 16
620 1 -2.16063 4.30126 15.7866 15
621 1 9.85545 11.7702 -11.2871 13
622 1 14.9954 -1.90505 11.3261 11
623 1 10.7613 5.24657 -4.67412 19
624 1 14.5737 13.894 0.0620435 12
625 1 8.75152 -13.247 -8.45783 13
626 1 -10.4252 2.65739 12.9282 18
627 1 17.3077 1.18829 3.31804 16
628 1 -5.64488 15.1068 13.8132 12
629 1 7.83383 14.2102 -10.1787 12
630 1 -9.05584 12.3374 -7.36055 12
631 1 12.6825 10.0906 2.80714 19
632 1 -8.41248 -10.8234 1.0523 19
633 1 12.3219 -4.15388 8.56675 17
634 1 4.14095 14.4855 4.46476 21
635 1 -4.121 6.61595 9.70097 22
636 1 -9.87159 -8.50759 1.93538 20
637 1 -10.2155 -0.945303 -6.03914 22
638 1 8.21951 4.73664 13.4621 22
639 1 -4.8776 -7.98768 9.15361 19
640 1 2.38392 9.7827 11.2423 17
641 1 -4.5848 14.1897 -0.414965 21
642 1 9.14715 5.89059 4.59396 20
643 1 7.70748 3.01226 5.34264 25
644 1 -0.710522 0.178646 -13.4416 22
645 1 -7.48449 -0.310883 4.66361 23
646 1 7.34853 -2.32873 -16.1075 9
647 1 -1.41047 -3.293 -5.34981 26
648 1 14.0456 -5.09253 -10.5583 16
649 1 7.32791 2.93207 11.08 24
650 1 6.04331 6.04934 5.05891 21
651 1 -10.7094 8.40128 13.4983 8
652 1 11.8612 10.0773 7.96126 22
653 1 -0.439131 -1.80693 15.7549 12
654 1 0.282184 8.55884 13.408 23
655 1 2.00409 -3.41183 -10.5961 19
656 1 -0.754967 5.15951 10.4558 19
657 1 7.32879 8.53699 10.9215 20
658 1 -8.49468 -12.0837 5.51376 15
659 1 13.5914 10.1485 -2.75984 19
660 1 11.0193 -9.67524 -9.91711 11
661 1 -2.00788 6.51468 -3.54266 21
662 1 6.17035 11.55 4.14537 20
663 1 13.9813 13.8715 3.25161 15
664 1 5.09063 -3.34925 -15.1093 20
665 1 -2.09434 4.98348 7.38996 25
666 1 3.29484 14.4852 -6.04767 19
667 1 14.6234 9.03218 -8.16424e-04 18
668 1 -12.0211 -8.12481 -0.158477 10
669 1 -0.230946 -0.111092 -17.1467 15
670 1 -8.45297 14.9753 -2.27956 11
671 1 9.24376 -4.61936 -7.38867 22
672 1 7.68908 7.22222 2.31075 21
673 1 9.4898 8.44256 -9.32362 23
674 1 9.65798 12.097 -1.00604 22
675 1 -0.584597 11.3855 4.52588 18
676 1 -3.23425 5.44985 -0.634281 20
677 1 9.55233 3.88046 -2.74168 24
678 1 10.3683 -4.04048 13.7969 15
679 1 11.3939 5.55594 13.4477 19
680 1 -3.25272 -7.05532 12.6903 13
681 1 -5.27725 11.4699 -11.2175 17
682 1 4.78906 11.4212 11.8855 20
683 1 9.52105 -4.53971 -15.3245 10
684 1 3.94877 3.21228 10.9055 22
685 1 9.30746 14.8516 -3.68922 16
686 1 2.96499 7.78989 7.14333 20
687 1 14.7162 -2.64943 -6.03943 19
688 1 2.9077 11.7872 17.0736 14
689 1 -9.00575 0.184337 7.33629 20
690 1 9.76458 -11.1309 -5.96981 16
691 1 0.0771248 -0.55094 -10.9893 23
692 1 -4.34847 13.6691 8.43458 18
693 1 2.83502 2.04363 8.18821 24
694 1 8.37638 -2.77432 -5.11021 23
695 1 2.71938 11.3199 5.10969 20
696 1 -10.4131 -2.57042 1.67793 23
697 1 0.0121365 1.8322 16.0033 15
698 1 -6.74814 10.0169 -13.2078 16
699 1 -10.1246 9.10039 -12.2684 12
700 1 10.114 -12.0412 -0.276786 13
701 1 10.7219 7.13366 -2.30194 22
702 1 6.48359 -5.59043 4.87073 21
703 1 1.05759 12.9164 1.56636 20
704 1 -12.6292 6.12574 6.13446 14
705 1 2.07797 -2.64523 -17.083 14
706 1 3.77975 -10.2399 7.53809 14
707 1 4.81551 14.0271 -0.763751 19
708 1 -2.73261 0.63745 15.6929 15
709 1 -7.28867 -5.39287 -11.6521 17
710 1 -3.96849 -8.6554 -14.5453 11
711 1 -6.48438 -12.4175 -9.83259 8
712 1 -1.59221 15.1255 -6.05274 17
713 1 4.87888 -2.9433 -5.624 23
714 1 -4.24091 10.9856 4.64402 22
715 1 6.75188 -10.6846 -6.52836 22
716 1 11.9081 -8.9914 -0.449594 16
717 1 4.31582 -6.10073 9.40019 18
718 1 18.4406 0.593084 -2.23745 14
719 1 1.85865 -12.6863 -5.26515 19
720 1 -3.88843 -3.49303 7.72962 24
721 1 1.57954 0.481425 -8.19626 24
722 1 -3.0194 -12.0994 0.114013 22
723 1 -7.43043 -12.2845 -2.41243 17
724 1 -7.42915 0.815453 10.4697 20
725 1 -8.15346 -13.6117 2.52048 16
726 1 12.3106 10.3586 -9.15897 13
727 1 -4.30553 15.0424 2.85018 17
728 1 -5.64569 3.74739 9.60423 21
729 1 -10.4615 3.64151 1.34828 20
730 1 12.6262 -1.91524 2.9833 22
731 1 -10.7059 -2.06396 -13.5925 12
732 1 -1.04687 10.3373 -8.11485 20
733 1 11.0986 3.00928 -6.75999 20
734 1 9.16944 11.2227 11.9606 20
735 1 14.639 2.70818 -7.24816 19
736 1 -12.5098 3.49165 -11.9483 12
737 1 -10.4379 -2.1601 -8.49583 20
738 1 2.23944 9.02581 16.8288 17
739 1 6.39379 8.33587 -11.0486 21
740 1 15.86 11.8785 5.39785 12
741 1 -1.23548 2.63909 12.9693 22
742 1 -3.76315 -15.7336 -0.846777 15
743 1 -6.30995 -14.3537 6.88587 12
744 1 -0.736077 -5.16764 11.1708 18
745 1 15.1638 10.0155 7.64713 16
746 1 3.60749 -8.02036 -7.94593 23
747 1 -5.14334 6.21799 1.64392 23
748 1 7.67091 8.77882 4.62596 19
749 1 -6.96834 -5.136 9.26058 21
750 1 7.2188 10.8533 -12.2632 14
751 1 -1.02085 -13.9069 -6.27858 15
752 1 1.28397 -16.8422 -1.61848 10
753 1 0.821244 -15.9072 1.80605 12
754 1 6.61924 3.28475 -8.49061 23
755 1 7.87861 12.5304 -4.08778 19
756 1 -6.12808 1.19491 -18.9417 6
757 1 -0.0732435 5.27494 12.803 19
758 1 -0.0138889 5.24812 -11.3563 21
759 1 -8.86435 2.63951 -16.6954 12
760 1 -6.77622 -2.16507 -3.08998 20
761 1 1.0516 15.8612 -4.50997 17
762 1 9.31566 4.08929 2.52022 24
763 1 -4.32313 -5.1574 -13.4589 17
764 1 -6.5324 -6.39425 -0.559526 21
765 1 13.9948 5.94201 -7.1919 16
766 1 16.9562 -4.07491 0.358036 12
767 1 -9.21854 3.03566 10.1894 19
768 1 7.7603 -8.42438 4.78257 18
769 1 16.3789 -0.340172 0.240105 18
770 1 16.8397 -2.15645 8.15801 10
771 1 1.94431 14.7478 9.29375 20
772 1 -9.0722 5.41156 14.4094 13
773 1 -12.5377 6.32924 9.34454 13
774 1 -2.71265 -14.1067 6.79523 19
775 1 10.9179 2.89113 5.03378 21
776 1 3.7759 9.61146 14.1865 19
777 1 -12.1139 -0.289347 -3.5307 19
778 1 10.0281 -5.44315 -0.17153 19
779 1 -5.44144 11.8252 -5.33747 17
780 1 4.34946 8.79469 4.31286 21
781 1 1.52377 -13.0636 7.12269 14
782 1 6.74089 1.96639 15.8542 18
783 1 0.770291 14.198 4.22821 20
784 1 5.36358 -10.6552 2.46208 19
785 1 -5.08686 -3.55334 -0.654823 23
786 1 2.50591 6.63308 14.9377 21
787 1 -14.6348 1.61145 -6.31279 12
788 1 -2.40468 15.303 13.8544 15
789 1 7.90317 14.2447 -0.8576 20
790 1 -12.9353 -6.85537 4.22774 13
791 1 -0.248203 -11.6407 5.25224 19
792 1 7.00228 -4.71704 10.4228 19
793 1 14.5769 -1.22007 8.40465 18
794 1 10.2155 7.25741 7.32516 21
795 1 1.31887 14.3619 -1.18457 21
796 1 -0.594994 -8.15383 -7.70816 23
797 1 -7.31986 4.87834 -15.5164 12
798 1 -5.51896 -5.09322 14.1239 12
799 1 -0.930773 18.3931 2.87321 15
800 1 14.251 2.89712 5.00491 23
801 1 6.13367 9.27542 -4.45274 23
802 1 -3.85159 6.3228 17.2649 10
803 1 9.41386 5.75148 10.1252 24
804 1 6.99443 -7.82073 -8.71171 22
805 1 -7.80904 -9.25174 4.08988 17
806 1 -3.11758 -0.76023 -5.67055 23
807 1 19.572 4.07522 3.53689 11
808 1 7.46435 -4.66831 -9.94386 21
809 1 3.05556 6.03202 18.779 9
810 1 8.321 -9.87547 -9.28867 23
811 1 0.281184 5.71047 -15.0231 18
812 1 0.0654495 -8.17021 -2.6266 23
813 1 10.6344 5.74872 -11.1116 16
814 1 16.0845 2.07501 -1.26544 18
815 1 5.26065 -3.95125 13.2475 15
816 1 -3.12152 -7.90065 -9.43103 22
817 1 10.05 16.773 -0.831262 12
818 1 -0.149978 -5.53772 5.22214 23
819 1 -14.0343 5.25718 4.09488 11
820 1 13.684 7.3531 -4.36075 19
821 1 13.7715 9.00596 5.40533 23
822 1 6.55155 -0.336703 -10.933 23
823 1 -10.0674 13.6803 6.48822 10
824 1 16.5334 7.45503 8.10201 17
825 1 11.3792 12.4677 -4.58607 20
826 1 6.16343 5.02479 -13.4038 16
827 1 11.3234 -2.53621 -0.226345 22
828 1 -11.9303 6.5259 -4.38571 15
829 1 10.81 4.50833 7.58093 23
830 1 -11.597 -5.60602 1.58311 17
831 1 -2.20408 10.5487 -11.2485 22
832 1 6.05971 5.5962 10.6602 20
833 1 -12.6506 2.75587 -8.95572 15
834 1 -10.3466 3.79015 7.02652 21
835 1 -4.89429 4.25846 -13.7012 20
836 1 11.3522 -5.98273 -12.9866 14
837 1 -8.25114 -7.21731 -7.1519 16
838 1 15.0671 -4.68135 -2.68517 14
839 1 -12.8256 7.7188 -1.57699 12
840 1 -3.37055 -8.10721 -2.88822 22
841 1 13.2708 7.318 8.0956 24
842 1 -7.90623 -8.22576 6.92243 23
843 1 12.008 1.19794 15.5129 10
844 1 14.9752 -5.02903 6.82483 10
845 1 12.8891 0.169823 4.85384 21
846 1 -13.7926 2.8951 1.20346 13
847 1 2.10775 13.0965 11.9639 20
848 1 2.44078 11.5024 -7.123 24
849 1 2.41164 -6.03408 -15.868 15
850 1 -5.34535 16.2914 7.75694 15
851 1 -14.188 -6.61667 8.13037 13
852 1 9.17548 9.72398 -3.30814 22
853 1 2.5235 6.01648 10.3088 20
854 1 17.1459 -1.24957 -8.31189 14
855 1 4.27561 -2.35542 11.4531 21
856 1 -0.839517 14.7185 -10.1395 11
857 1 7.76692 11.2945 -9.10185 22
858 1 -4.22211 0.570445 10.079 21
859 1 18.7172 5.93154 5.89676 13
860 1 0.0582119 -2.43169 -8.24275 24
861 1 10.6133 13.1793 2.23662 23
862 1 -11.8242 2.1593 -1.65765 22
863 1 -0.909962 -12.1259 8.98555 10
864 1 4.19547 13.6252 -9.40188 16
865 1 7.88323 -1.9945 11.558 23
866 1 -3.6926 -15.6102 -4.3977 13
867 1 -5.60567 12.3698 2.22731 20
868 1 -10.6857 9.13123 -2.8601 21
869 1 14.7765 0.392626 -9.48441 17
870 1 4.04413 -9.79049 -14.0954 13
871 1 -5.56537 7.86174 4.38025 20
872 1 13.2696 11.9694 -6.5156 13
873 1 -0.746172 0.336319 10.645 24