ITEM: TIMESTEP
29000
ITEM: NUMBER OF ATOMS
500
ITEM: BOX BOUNDS pp pp pp
-30.0 30.0
-30.0 30.0
-30.0 30.0
ITEM: ATOMS id type x y z Coordination
1 1 -3.14139 2.1959 -5.33212 21
2 1 6.12485 -1.60218 4.18166 19
3 1 0.227057 3.63036 10.3609 10
4 1 10.5741 -1.17255 2.00304 14
5 1 -7.95538 2.37631 1.57437 21
6 1 -1.5713 1.01342 -7.53457 20
7 1 1.5765 -1.40327 7.9921 21
8 1 3.55965 -2.71951 -4.99092 20
9 1 -9.18888 0.632352 -1.43674 22
10 1 1.26241 2.52431 -8.30005 18
11 1 5.62014 -7.98734 -5.57467 11
12 1 6.34212 0.99495 6.3671 16
13 1 0.198065 7.0637 -4.28361 22
14 1 1.05489 7.43968 4.77637 17
15 1 5.23821 5.51994 7.34739 11
16 1 -8.841 -2.65102 2.78289 16
17 1 -10.5113 0.302061 1.79141 15
18 1 8.26192 0.0297237 -2.2519 18
19 1 3.78973 0.0722276 7.27845 18
20 1 -6.5537 -3.88639 1.52469 21
21 1 -2.52176 -5.86684 -8.82167 11
22 1 3.93204 0.333304 -6.23309 22
23 1 6.70944 -1.30451 -5.78818 16
24 1 7.36501 -5.87905 3.0865 11
25 1 -4.8356 8.39044 5.3956 11
26 1 3.31283 -0.0659521 4.32656 21
27 1 2.0258 10.6565 1.75997 13
28 1 -0.446856 1.26893 -3.54396 20
29 1 0.481757 -6.03396 -6.87761 15
30 1 -1.5278 4.10167 7.70494 18
31 1 7.61248 -3.1195 1.93923 18
32 1 -4.50742 6.40201 2.77008 23
33 1 -3.67674 3.85531 2.59751 17
34 1 2.30885 5.25421 -6.82597 20
35 1 6.69743 4.12653 -0.94601 21
36 1 -2.34223 7.60387 -5.57765 13
37 1 2.43422 -4.24975 -2.30042 19
38 1 -6.41448 6.23506 -6.7953 9
39 1 -2.07701 2.96351 -0.469708 19
40 1 -2.56096 8.47032 -2.4425 18
41 1 2.27041 6.72902 -1.69416 22
42 1 -9.5 3.91887 -0.344253 15
43 1 0.0116764 6.94693 9.52503 7
44 1 -4.12933 1.89269 -9.39535 15
45 1 -3.83428 -6.5003 3.38886 20
46 1 -2.24773 1.00434 2.06203 20
47 1 -2.14124 -1.2809 3.90204 22
48 1 -4.97988 -1.81849 -4.19436 23
49 1 5.44506 -8.15274 -1.99521 14
50 1 -7.36424 0.255809 4.06548 23
51 1 -6.57547 1.17498 -4.54882 20
52 1 -1.47394 -9.39062 3.05792 17
53 1 5.50047 3.67142 -6.32619 15
54 1 -3.68163 -3.58146 2.1088 21
55 1 -4.81014 -3.35297 -8.89091 13
56 1 1.25544 6.10084 -9.40349 11
57 1 0.307984 4.45073 5.27527 20
58 1 -1.36687 1.31415 5.66806 20
59 1 -4.2398 1.26111 4.23503 20
60 1 2.79975 -6.73373 -1.07377 19
61 1 0.344979 9.18859 -1.10685 19
62 1 -11.7908 2.56757 2.86969 9
63 1 2.0052 10.3826 4.41244 11
64 1 3.40815 -2.19696 10.3174 12
65 1 3.13028 -9.48579 -0.417287 15
66 1 9.48195 0.728533 -6.67315 6
67 1 -4.50351 -6.41588 0.170476 22
68 1 -1.47088 -5.84955 1.54998 22
69 1 5.30079 -4.23644 8.8225 11
70 1 2.75027 -5.61724 6.75797 17
71 1 6.49746 8.87849 0.33245 13
72 1 -6.84093 -6.76815 2.41247 11
73 1 -3.60403 -11.5311 4.81696 5
74 1 -2.36531 -5.66889 -1.48687 22
75 1 1.14763 -4.7646 4.48205 20
76 1 -4.43129 -4.95338 -3.45614 24
77 1 2.49273 2.61791 -4.96435 19
78 1 4.67917 -4.32612 0.285189 19
79 1 -4.48845 -3.18512 7.7661 15
80 1 -9.16004 2.66614 4.59371 16
81 1 1.57983 -8.00748 2.20585 23
82 1 -3.01728 -3.82488 4.83995 21
83 1 1.16352 1.93539 7.95772 19
84 1 -10.1366 -0.394842 4.63461 13
85 1 -4.53166 9.7172 2.49389 12
86 1 -7.19159 6.40867 4.94769 13
87 1 0.834691 1.5204 3.45949 17
88 1 -1.81841 6.76062 6.49275 17
89 1 -6.88282 -2.66573 -6.36516 12
90 1 4.90526 -1.18032 1.51576 21
91 1 -7.24099 3.23149 -1.84738 21
92 1 -3.70343 -3.63239 -6.53113 21
93 1 5.62669 -0.664527 9.67831 9
94 1 -4.92098 1.85022 0.620883 23
95 1 -2.15718 -4.96789 9.30717 13
96 1 -2.65408 -1.53319 -9.51419 16
97 1 -11.2415 -1.26135 -3.36456 9
98 1 -2.14995 -8.98525 0.0416373 18
99 1 -2.20472 -2.45866 -2.42964 23
100 1 3.10595 1.32927 0.837798 19
101 1 -4.82539 5.7844 7.25058 12
102 1 3.13598 3.09566 5.4004 18
103 1 -3.32486 5.93387 0.204832 21
104 1 -0.209171 -8.99857 -5.47481 13
105 1 -0.76692 10.9165 1.84993 10
106 1 5.24867 2.115 -3.71489 20
107 1 -9.17725 1.4597 -4.84386 12
108 1 -10.2688 4.03204 -3.0663 11
109 1 -3.78601 -8.53702 -6.07446 10
110 1 4.18833 -6.15972 3.53159 19
111 1 -8.97841 4.04529 -6.29494 8
112 1 -6.02094 -0.607792 8.79637 10
113 1 2.20215 0.836442 -2.20514 22
114 1 -8.27581 4.23815 6.82149 13
115 1 2.52453 -8.64285 -3.91344 15
116 1 -0.662003 -4.00493 6.89514 23
117 1 -0.227025 -6.56361 7.41805 14
118 1 3.96986 -5.53176 -5.51651 16
119 1 9.87743 4.61411 0.735191 16
120 1 -6.33581 3.63619 4.12933 23
121 1 3.23235 0.154431 -8.93467 15
122 1 1.14141 7.2351 1.46415 21
123 1 7.19461 -3.62469 6.51829 13
124 1 -6.16558 -7.95802 -3.74502 11
125 1 -5.18557 -1.40019 3.13936 25
126 1 6.85779 7.14445 4.78316 13
127 1 8.86045 5.41154 -1.91898 13
128 1 -0.528561 3.94233 -5.67363 23
129 1 -1.07614 6.59821 -8.05655 15
130 1 3.75063 8.84049 -0.292532 18
131 1 4.15929 3.50428 -9.10818 12
132 1 1.06314 -10.2909 4.4056 12
133 1 3.45797 3.569 -1.74774 22
134 1 7.30501 -5.78971 0.105267 14
135 1 0.764005 -10.5509 0.835169 13
136 1 -6.09236 2.58106 -7.20236 17
137 1 2.17701 4.08455 2.48763 16
138 1 9.82901 -1.94222 -0.674003 12
139 1 -2.06643 4.65384 -3.71844 20
140 1 -5.31863 7.74441 -3.71681 12
141 1 2.83362 -7.99917 -7.12809 10
142 1 1.87351 -5.28797 1.34191 22
143 1 -7.53541 -1.89442 6.29166 16
144 1 0.402266 -10.0348 -2.26739 13
145 1 0.723687 -1.16881 -7.9358 21
146 1 4.2551 5.85385 0.682136 20
147 1 3.74012 -9.64449 3.22769 12
148 1 5.50836 -1.04926 -3.22912 21
149 1 -5.35862 -3.4356 -1.20255 25
150 1 -5.27937 -6.01984 -6.36872 15
151 1 -0.301547 -2.34042 10.3819 13
152 1 -1.16538 1.05223 9.41172 15
153 1 4.38587 -2.33112 -8.27616 14
154 1 -6.43595 0.195299 -1.89078 18
155 1 5.18371 6.59553 -2.05916 18
156 1 7.64475 1.55473 -4.80252 17
157 1 1.56122 -1.40751 1.80268 22
158 1 -1.34858 3.42235 -8.84858 14
159 1 -9.24286 5.34913 3.11417 15
160 1 1.63528 -4.36503 9.19522 16
161 1 7.48302 0.941705 3.44056 17
162 1 -6.13123 -0.550006 -9.282 10
163 1 9.54462 -3.58973 4.44608 11
164 1 0.184257 -7.27362 -0.862754 23
165 1 6.84063 3.72185 5.09291 17
166 1 2.87653 -8.47437 6.4514 10
167 1 0.555538 2.61321 0.12853 17
168 1 3.94969 -3.32682 6.4507 22
169 1 5.39685 0.852854 -1.00388 20
170 1 9.94479 2.18422 2.60374 18
171 1 6.5256 -2.4095 -0.700547 22
172 1 9.28014 4.87811 4.04196 13
173 1 -1.90554 -6.04118 -5.07914 20
174 1 4.3327 5.37524 3.91469 22
175 1 -4.38419 3.91662 -2.10063 19
176 1 -5.27794 4.56003 -4.82471 20
177 1 -1.61812 -1.23098 7.32595 18
178 1 -0.119091 -5.2257 -3.27519 19
179 1 -5.38415 -8.73718 -1.00114 11
180 1 5.42863 3.20641 1.90819 18
181 1 -3.03204 4.17908 5.23044 19
182 1 -6.63028 4.6494 1.0265 21
183 1 7.65159 4.82247 -4.12435 15
184 1 2.40136 0.637211 10.3412 11
185 1 -7.36332 -0.943492 0.742687 19
186 1 0.250407 -0.0492115 -10.3975 13
187 1 2.15012 4.94792 8.15445 14
188 1 5.61745 -4.87909 -2.49352 22
189 1 4.82949 11.0295 2.38513 8
190 1 3.38727 -3.46775 3.48386 23
191 1 -1.17836 5.91885 2.6362 20
192 1 -3.98246 -1.1876 0.387499 21
193 1 2.35355 -4.09763 -7.71075 17
194 1 2.87723 -1.43577 -1.04786 22
195 1 5.87021 -6.3685 6.14488 13
196 1 1.11696 -0.407193 -5.46798 20
197 1 0.645534 -1.86166 -3.07652 21
198 1 -5.62675 2.53586 6.93442 16
199 1 11.621 -0.365645 4.46771 9
200 1 -0.121837 9.90757 -4.16181 12
201 1 1.30222 -1.69599 5.04429 23
202 1 10.0716 2.93041 -3.39511 11
203 1 -3.0729 -2.04177 10.1173 11
204 1 -3.51142 -6.29041 6.94152 13
205 1 -5.10436 7.87777 -0.556608 16
206 1 7.14435 6.17218 1.90705 20
207 1 -6.44001 -4.06879 4.70038 16
208 1 7.58165 -0.21786 0.964439 20
209 1 -7.18475 -6.05012 -1.131 15
210 1 9.63664 2.18413 5.90488 13
211 1 7.58898 -6.85544 -3.19689 10
212 1 0.81116 4.10412 -2.88786 22
213 1 3.75192 7.87728 2.93805 22
214 1 -8.38447 -1.65909 -3.65621 17
215 1 -0.680214 5.83055 -1.00138 23
216 1 1.14937 8.3531 -6.43164 13
217 1 -4.49034 -0.361323 -6.90627 22
218 1 2.15929 -2.42431 -10.8949 10
219 1 -2.2999 -8.32714 -3.08874 17
220 1 -0.824732 -0.32101 -0.59189 21
221 1 -0.470981 -6.9573 4.47933 17
222 1 8.0156 -3.18734 -3.5025 14
223 1 -11.8691 1.49815 -0.815353 10
224 1 -3.70006 4.83293 -7.76765 15
225 1 -7.49959 -4.61801 -3.71042 16
226 1 8.92618 -0.936053 5.63315 15
227 1 0.226843 -3.48309 -0.35289 20
228 1 -0.961455 -3.50646 -8.822 16
229 1 -6.77222 7.86247 2.03328 12
230 1 -8.66901 0.597488 7.23275 12
231 1 -2.06904 -0.914878 -5.22772 22
232 1 9.76329 7.45466 1.18452 8
233 1 11.8524 1.21127 0.653218 10
234 1 -1.57227 -9.13496 6.24363 12
235 1 6.30191 0.988963 -7.81878 15
236 1 3.19954 5.78629 -4.48432 19
237 1 3.67493 7.62202 6.1746 15
238 1 3.01503 8.91689 -3.46897 15
239 1 9.23127 2.11822 -0.258538 14
240 1 -0.361513 -2.95052 2.44035 18
241 1 -4.51712 -0.511184 6.35478 20
242 1 7.09704 -4.74305 -5.64176 13
243 1 -0.0155548 -3.25041 -5.6125 20
244 1 -1.86466 8.48423 3.64593 17
245 1 -3.51145 0.471244 -2.41057 21
246 1 -2.0635 8.50909 0.588181 19
247 1 -4.51556 -9.23614 2.22132 14
248 1 5.60633 -8.48519 1.62604 11
249 1 -8.6599 -3.07762 -1.06873 14
250 1 -7.38599 6.0567 -2.89272 12
251 2 -10.5912 1.26664 3.82918 14
252 2 9.94362 3.13166 4.2926 15
253 2 0.182691 -2.08429 6.9499 21
254 2 -3.82943 -1.8 -5.79498 21
255 2 -10.9113 2.92865 -1.34327 12
256 2 -2.00761 -7.50448 3.22066 19
257 2 0.766282 1.70201 10.2416 12
258 2 8.61654 1.09862 1.70889 20
259 2 -1.20809 -3.98942 -1.81685 22
260 2 -2.96028 7.95279 5.23457 17
261 2 -2.31574 4.75156 3.67141 19
262 2 3.97943 -0.112501 -2.1871 24
263 2 5.75984 -6.03522 -5.65172 13
264 2 -3.10738 0.282908 -8.3955 20
265 2 2.57253 -5.8765 -7.01889 16
266 2 -0.993005 -2.2892 -4.18284 20
267 2 -1.509 -6.70668 -0.149923 21
268 2 -5.51351 8.11305 3.51431 14
269 2 10.4391 -1.95423 3.89579 11
270 2 4.54288 -2.3824 -0.0686265 22
271 2 -1.23037 1.42334 0.304228 20
272 2 7.97933 7.9576 1.07214 11
273 2 -0.0945392 7.63623 3.26143 22
274 2 5.21316 10.3011 0.799054 9
275 2 1.60926 6.63797 -5.47524 21
276 2 5.04179 -0.551591 -8.27855 14
277 2 -5.79411 1.18323 -8.69519 11
278 2 1.56912 -7.22038 6.99298 16
279 2 -7.42657 1.97116 3.65108 25
280 2 3.77677 -8.49903 -5.52253 11
281 2 -2.5163 -10.5484 5.94109 7
282 2 4.84965 -1.14349 -5.14966 20
283 2 3.54207 6.11681 7.57249 12
284 2 3.36782 -4.45145 8.20016 16
285 2 -5.38738 -7.83473 2.98627 11
286 2 1.45039 -0.313799 3.61261 19
287 2 -0.81031 -9.71956 1.32145 18
288 2 1.22659 1.14282 -4.383 20
289 2 1.16413 -5.78208 -1.96006 19
290 2 -6.69114 -5.08768 3.23629 18
291 2 -4.10299 -8.44513 0.470889 21
292 2 -6.64593 -7.64239 -1.95478 13
293 2 -2.6896 9.91044 2.03104 13
294 2 2.3879 -0.275247 -7.09005 22
295 2 9.83986 6.24571 -0.548191 11
296 2 2.54161 4.77903 -8.74265 12
297 2 -3.84383 2.12573 -1.26901 21
298 2 -6.26504 4.37033 -2.87182 15
299 2 6.83108 2.77016 3.29343 20
300 2 0.713609 10.5585 0.368626 13
301 2 -5.77107 7.01351 6.07205 13
302 2 0.658151 5.46283 1.85246 20
303 2 2.16548 8.72039 -1.74991 17
304 2 1.69566 9.39845 -4.69793 11
305 2 -1.17446 7.50693 8.17652 7
306 2 -2.60667 -0.347635 5.66142 19
307 2 1.70624 -2.5019 9.70156 15
308 2 2.81951 -3.28267 -9.35127 13
309 2 0.781411 -9.49585 -4.0129 11
310 2 0.0610975 -5.26197 -5.26272 19
311 2 -2.79251 -0.962267 -1.09589 21
312 2 -0.0882102 3.99936 -1.06595 19
313 2 -7.22544 -4.14659 -1.77053 17
314 2 7.95416 -5.21279 -4.00831 11
315 2 9.24278 5.71216 2.30351 15
316 2 -0.271263 1.35571 -9.03318 18
317 2 1.98182 -0.64117 -10.026 13
318 2 4.21441 2.07619 -5.41436 25
319 2 -3.63702 -5.20848 -5.40845 17
320 2 0.497395 -3.14209 -7.60104 19
321 2 7.61339 0.468698 -6.5998 14
322 2 -4.76945 -3.37416 3.72756 19
323 2 -0.698742 -1.42674 -9.46704 14
324 2 1.57587 -2.79496 -1.5177 23
325 2 2.69229 3.99581 -3.41508 22
326 2 -3.44528 -7.01205 -7.43221 11
327 2 -2.04445 3.09044 -6.97076 22
328 2 -0.0291916 6.19426 5.7031 21
329 2 -6.36094 -6.22044 0.586914 17
330 2 -5.49251 -0.193166 4.65366 20
331 2 -5.5296 4.62439 2.60916 24
332 2 -8.20088 -3.01705 4.7081 15
333 2 -1.87036 -3.17288 3.43691 20
334 2 -11.3142 0.0249258 -1.89447 13
335 2 4.22529 -7.1772 6.16115 13
336 2 6.8796 -0.386515 -0.791768 21
337 2 -0.601044 -0.544172 -6.41675 22
338 2 4.09921 4.52699 2.20022 19
339 2 2.25624 8.83922 5.59502 11
340 2 -1.55968 -0.885621 9.41982 13
341 2 -8.00812 4.633 4.82064 16
342 2 2.31465 0.336343 8.40236 16
343 2 -6.10261 -1.43021 -7.32314 14
344 2 1.60453 -2.24938 -4.72861 22
345 2 10.7579 2.92085 0.892526 13
346 2 -10.0347 -1.22743 2.90001 12
347 2 -6.09439 6.33188 -4.55571 11
348 2 3.03549 2.02125 -9.05176 15
349 2 -8.7 4.19932 1.44086 19
350 2 3.05001 -4.62445 5.17572 18
351 2 3.81833 5.34586 -1.1115 19
352 2 6.24356 -8.06739 -3.81549 12
353 2 1.5095 -10.3396 -0.818338 15
354 2 -5.42722 9.02579 0.998387 12
355 2 0.995229 -6.23157 2.91874 19
356 2 1.74795 -9.91642 2.58552 13
357 2 5.72408 7.14701 6.27066 12
358 2 -0.711082 8.8496 -2.75 18
359 2 -3.81665 -4.94596 8.18117 13
360 2 -3.41033 -5.44159 1.7186 21
361 2 -1.01007 0.961954 3.62058 16
362 2 -2.52719 -3.09526 6.60919 21
363 2 0.84913 7.53173 -8.20949 9
364 2 3.02755 -0.674419 0.806213 19
365 2 6.85418 0.309775 -3.55882 21
366 2 4.05329 -0.298201 10.6627 10
367 2 -7.80411 -1.12339 -1.52188 19
368 2 8.56591 3.96301 -0.506858 17
369 2 5.64088 6.88244 3.26564 19
370 2 6.04354 -2.863 -2.56534 23
371 2 -8.12037 -3.073 0.815846 17
372 2 0.914227 5.22765 9.68643 10
373 2 -2.23765 0.780624 -4.036 24
374 2 -5.34513 -0.206711 -3.33662 20
375 2 5.1561 -2.59107 9.62229 13
376 2 1.6211 2.23912 1.7242 17
377 2 -0.230636 4.98722 -8.98138 14
378 2 6.69146 -1.35527 2.28146 17
379 2 2.1948 3.31993 7.10316 19
380 2 5.94951 -6.17887 4.31862 14
381 2 -0.0155705 -4.51888 1.21845 21
382 2 -3.9847 1.88597 2.45065 22
383 2 -9.7051 -0.345172 -4.29172 12
384 2 -6.20691 7.42632 -2.09952 14
385 2 -8.05204 5.31558 -7.00832 8
386 2 -5.67477 -0.0975977 -0.0385358 21
387 2 -1.92397 -7.48205 6.9836 14
388 2 3.39469 10.1712 3.15936 14
389 2 -5.50822 -4.11725 -7.17721 16
390 2 11.437 0.549023 2.80485 12
391 2 -5.51512 6.33756 0.860992 19
392 2 8.31768 -4.28871 3.35747 14
393 2 -3.5919 -5.81713 5.18599 19
394 2 -6.18467 -5.9257 -4.08363 15
395 2 0.608334 6.19703 -2.48029 21
396 2 -8.00921 6.86299 3.16868 13
397 2 6.19801 5.04846 0.774165 20
398 2 -0.0843927 -4.87847 8.67655 16
399 2 -10.5806 3.96183 3.61952 12
400 2 -3.20369 7.65353 -0.824654 17
401 2 -1.11924 3.08324 9.12335 12
402 2 -7.72534 2.24308 -5.9547 12
403 2 5.39568 7.84607 -0.697319 17
404 2 -2.93294 5.2356 6.94391 16
405 2 -0.289053 0.673233 7.3445 16
406 2 2.31443 2.19819 -0.803044 19
407 2 0.474896 -0.020498 -2.07462 21
408 2 -2.84705 -3.72962 -8.39607 15
409 2 -1.01313 5.81246 -4.91447 21
410 2 -1.06227 -8.99168 -1.65545 17
411 2 -3.75447 3.7219 -4.18335 19
412 2 2.86703 -1.56894 6.2733 18
413 2 1.49085 3.38422 4.28203 19
414 2 9.21641 1.82729 -2.11905 18
415 2 2.68172 -9.61039 4.86432 10
416 2 6.80343 3.16841 -4.93854 16
417 2 2.86203 6.51782 4.22418 22
418 2 -7.90598 1.54069 -2.76015 20
419 2 -0.767889 3.12711 -3.75343 19
420 2 -5.41798 0.762733 7.4906 16
421 2 -7.31152 -2.8976 -4.59927 17
422 2 1.64222 -7.1098 0.468371 21
423 2 -0.243016 7.61611 0.0673212 20
424 2 -8.79554 2.41489 6.60186 15
425 2 -6.89745 -1.7627 2.60046 21
426 2 -2.01511 -8.4833 -5.04618 15
427 2 3.73898 1.16131 5.65546 17
428 2 -2.89586 5.22025 -1.79344 21
429 2 -2.80605 6.37298 -7.28377 15
430 2 4.08367 4.8554 -5.84477 15
431 2 0.934703 -7.92929 -6.60589 11
432 2 5.79037 0.0324899 7.85268 12
433 2 4.97969 4.24746 5.53168 20
434 2 -0.764651 8.63893 -5.55507 13
435 2 -4.88878 1.34149 -5.80146 20
436 2 -0.701211 -5.46987 -8.46851 12
437 2 -4.02107 -2.95849 -2.98085 21
438 2 -2.72442 7.26646 2.12261 22
439 2 -3.47557 7.81327 -4.15817 16
440 2 -9.70198 3.41035 -4.70366 12
441 2 -6.43771 4.41554 7.35071 11
442 2 0.202551 -1.67463 0.577801 18
443 2 1.11438 3.49765 -6.64723 22
444 2 3.88749 -3.374 -6.86771 17
445 2 -4.94896 -2.94051 0.613477 19
446 2 -8.76137 4.88726 -1.8621 12
447 2 -3.32717 3.62145 -9.29313 13
448 2 3.87701 -5.21252 -1.27875 20
449 2 5.70247 -2.75175 5.70342 22
450 2 -7.66755 -0.717226 8.11264 9
451 2 -1.88304 -6.41795 -3.14835 16
452 2 -8.44022 -0.23149 5.5333 16
453 2 4.87354 1.63322 0.832556 19
454 2 8.65236 -2.77426 5.91602 10
455 2 -11.7778 1.75518 1.1021 13
456 2 -4.56142 -1.85179 9.20556 13
457 2 -0.286403 -9.00745 4.92697 17
458 2 10.3736 0.345114 5.76121 11
459 2 3.22663 -8.3704 -2.03644 15
460 2 -2.9147 4.03806 0.809215 23
461 2 -4.55433 -1.71883 -9.93296 12
462 2 -5.9862 -3.03348 6.40444 18
463 2 6.33259 -5.12257 7.42929 11
464 2 5.32545 2.75237 -1.77057 21
465 2 5.67316 2.85894 -8.06549 12
466 2 7.63741 5.53753 4.9017 13
467 2 -6.54998 2.97461 -0.102767 20
468 2 7.1783 -0.113882 4.97311 19
469 2 3.77888 -4.41689 -3.97085 16
470 2 -4.34774 -5.16863 -1.41145 22
471 2 -3.3281 -0.737075 2.38033 21
472 2 7.36102 -2.97381 -5.47278 14
473 2 7.01563 -6.98423 1.57581 12
474 2 9.05521 -2.0988 0.997196 16
475 2 6.67254 -4.09576 0.414006 18
476 2 -1.19282 3.13193 6.16492 18
477 2 9.43292 4.64976 -3.68106 11
478 2 -9.97833 -2.53028 -2.52725 11
479 2 4.14049 -1.56972 3.48704 18
480 2 -8.72282 0.651517 0.666265 24
481 2 3.98161 -7.88845 2.60201 16
482 2 3.80484 7.12112 -3.25742 16
483 2 10.7727 -0.31402 0.126344 13
484 2 6.85243 5.50993 -2.44627 15
485 2 -0.254284 -5.30012 5.6093 21
486 2 3.57199 -4.6303 1.95748 20
487 2 8.87621 -1.93746 -2.36317 14
488 2 4.8298 -8.54572 -0.0801921 13
489 2 -5.49922 -7.79926 -5.57059 10
490 2 3.05802 7.82509 1.19229 22
491 2 0.622817 10.5441 3.09591 11
492 2 -3.49686 -10.2037 3.33906 12
493 2 -1.80906 -3.49364 10.4833 13
494 2 -4.68062 2.93233 5.15108 20
495 2 7.76411 2.34354 6.28002 13
496 2 9.74122 1.74899 -4.95116 10
497 2 1.32918 -2.98518 3.50551 21
498 2 -5.37181 4.35401 -6.89058 16
499 2 -4.28305 -8.69 -2.56847 16
500 2 6.5516 -6.368 -1.61817 16
