ITEM: TIMESTEP
8000
ITEM: NUMBER OF ATOMS
1000
ITEM: BOX BOUNDS pp pp pp
-30.0 30.0
-30.0 30.0
-30.0 30.0
ITEM: ATOMS id type x y z Coordination
1 1 -5.45126 -8.29705 -12.3458 13
2 1 5.69544 -10.9672 2.86746 14
3 1 -10.0479 8.55572 -2.49683 12
4 1 -10.106 3.99341 -6.18984 18
5 1 0.184159 -3.40056 7.85673 22
6 1 -7.36147 0.589855 -12.8624 11
7 1 -5.35177 -8.79166 -0.171738 22
8 1 5.30323 -2.76334 4.98875 20
9 1 -1.30673 4.40019 7.98162 18
10 1 8.83642 -0.644037 2.51166 17
11 1 -1.5842 12.7452 -7.86785 12
12 1 -1.91566 -1.8339 11.6077 12
13 1 -10.7374 2.61452 -2.14008 19
14 1 -3.18782 -2.68752 -11.3262 20
15 1 3.53041 -0.348008 5.25545 24
16 1 4.08972 -4.08339 -8.16371 19
17 1 1.75404 4.63237 7.7668 17
18 1 -5.65229 -8.28525 5.21826 15
19 1 -10.3141 -0.343971 -1.45619 19
20 1 -8.18141 -1.46935 -2.94189 21
21 1 -1.83609 15.1932 -5.35927 9
22 1 -3.19564 -1.16468 -14.1256 19
23 1 4.94312 -6.35446 -13.089 9
24 1 -1.09842 -6.08385 8.44334 15
25 1 -9.66519 5.70716 -0.85923 20
26 1 -3.64802 14.728 -1.78049 9
27 1 0.0613239 -11.7626 1.53731 14
28 1 4.96271 -8.6003 -6.84503 18
29 1 7.51347 1.91229 1.1075 22
30 1 -8.84844 6.45199 -8.40114 12
31 1 -1.42208 9.30536 -8.79521 19
32 1 0.421898 5.42108 5.03418 23
33 1 -6.38809 -0.0335007 -0.480103 23
34 1 8.05353 -0.148177 10.1583 11
35 1 -11.4989 -2.28597 0.646683 18
36 1 13.6944 -1.13863 3.59302 9
37 1 8.16899 -1.48918 -3.31856 25
38 1 7.09447 -0.436573 4.50816 21
39 1 -10.0338 -5.61737 -1.02887 21
40 1 -2.05605 -9.69017 -11.6402 13
41 1 -6.206 13.7722 -3.35862 11
42 1 -2.91323 6.92174 -8.40663 23
43 1 5.31498 -1.00045 -8.5029 21
44 1 9.70427 -5.45325 2.7397 18
45 1 4.22864 -11.1617 5.3051 11
46 1 -6.31247 7.45265 1.86032 20
47 1 -6.79963 -6.17329 6.90714 13
48 1 -10.0132 1.96809 2.56283 20
49 1 7.54671 -9.88152 -8.3072 11
50 1 3.58785 4.00556 -14.0851 13
51 1 0.291095 14.4466 3.20314 10
52 1 -6.58171 5.81789 -11.3084 11
53 1 0.596752 7.14277 -3.14452 20
54 1 -2.87236 -8.36518 5.71288 17
55 1 -0.704569 -5.66254 -11.2035 23
56 1 5.97045 -9.37544 -11.3334 10
57 1 0.097163 1.8766 7.92608 20
58 1 -10.8574 -8.52122 -2.49522 16
59 1 6.20777 -4.80681 2.31161 20
60 1 -10.9339 -6.91329 -5.49987 13
61 1 7.80403 -9.17609 0.384818 15
62 1 -4.75363 7.96303 -0.834287 21
63 1 3.34313 1.31515 -9.26698 20
64 1 7.02618 -11.0409 -2.65415 13
65 1 -6.29486 -9.99448 -3.49682 20
66 1 8.55744 9.09329 -0.800618 14
67 1 8.77744 6.13526 -6.89436 18
68 1 -6.08953 12.375 -6.8779 10
69 1 0.728017 -6.45586 -14.7456 7
70 1 -0.584549 7.63382 -5.84267 20
71 1 10.6604 2.50084 -4.96984 15
72 1 6.12743 3.34967 -12.5564 15
73 1 6.89872 -11.239 6.46222 7
74 1 -5.36396 4.17096 -8.04046 22
75 1 10.259 11.2929 -6.28029 10
76 1 13.7305 6.47793 -1.20443 8
77 1 -1.09424 10.0757 -3.43585 18
78 1 -6.50413 -2.57706 -12.8971 17
79 1 -12.1568 -5.49411 -3.7644 14
80 1 -2.99391 5.36618 4.32241 16
81 1 -1.22077 10.806 -5.66762 21
82 1 6.65409 -2.70867 8.90399 13
83 1 -10.6845 -5.07353 3.902 12
84 1 -5.43781 -12.0735 1.60338 15
85 1 0.233091 12.8606 -2.49038 19
86 1 13.6694 3.33653 0.00121763 10
87 1 -0.38544 -11.057 5.22572 12
88 1 -6.41603 1.29227 -3.05682 21
89 1 0.10885 7.11086 7.436 15
90 1 -4.93734 -1.69272 -8.29949 21
91 1 -6.78576 -5.62988 -0.31389 21
92 1 -10.9123 -10.3422 0.153984 10
93 1 7.55303 -8.96231 -5.43374 15
94 1 -3.98224 10.0838 0.953014 21
95 1 -4.81997 -0.622817 2.30594 20
96 1 -10.1752 -2.11886 -5.5917 20
97 1 3.41678 -5.93046 5.68805 19
98 1 6.71938 4.96723 -10.1254 15
99 1 4.48283 -0.0817882 10.326 14
100 1 -0.21762 8.97373 -11.5432 11
101 1 -6.12604 -4.35736 -9.28847 20
102 1 -3.78775 13.2422 -6.2397 12
103 1 7.25407 1.95842 6.18048 21
104 1 -3.76291 8.17849 -10.911 13
105 1 4.02169 3.56968 -10.6076 21
106 1 -6.01114 5.58369 4.95153 19
107 1 -7.90391 6.72423 7.27449 12
108 1 0.415437 -11.066 -9.20664 13
109 1 3.29412 -6.06913 -5.24204 22
110 1 5.72837 9.64432 -9.88718 15
111 1 -1.84103 11.621 -0.401317 19
112 1 -12.8839 4.10666 -0.565999 10
113 1 5.15344 4.53835 6.52555 16
114 1 10.4869 -0.666139 -0.419563 18
115 1 3.74111 5.8325 4.10038 20
116 1 -7.96726 4.47295 1.4483 17
117 1 -7.72404 -7.57647 -2.17001 20
118 1 -3.07598 1.97723 7.52482 20
119 1 3.69284 -10.2436 -2.45493 18
120 1 -0.798176 -0.738431 -16.0812 10
121 1 8.46737 -2.83253 -6.76518 21
122 1 -11.878 -2.18803 5.71131 11
123 1 -9.11514 -4.29415 -9.66925 15
124 1 -3.17893 -5.99205 0.13321 22
125 1 -1.71607 -8.90405 0.127472 20
126 1 -9.3567 -2.01589 -11.8666 13
127 1 -13.8177 1.68302 -8.2991 7
128 1 3.62642 7.55925 7.00721 11
129 1 8.4577 -4.76334 7.61221 13
130 1 -3.06661 -6.02731 4.59191 19
131 1 5.35017 8.51039 -0.826033 23
132 1 -9.01554 -7.82795 0.371284 18
133 1 2.29772 14.2127 -0.693074 14
134 1 -7.66445 -5.43039 -12.3296 15
135 1 -5.25719 -9.95662 -9.74039 12
136 1 -4.94808 -7.10915 -3.36616 20
137 1 12.1193 4.90066 1.89812 13
138 1 -2.92056 -5.99324 -5.33396 20
139 1 -8.25762 -3.65222 5.33547 17
140 1 -2.88237 -9.77453 -2.68303 19
141 1 0.455678 -10.137 -2.63057 19
142 1 1.42053 -13.7795 -3.86939 12
143 1 -8.51096 3.62427 -9.50197 15
144 1 7.62644 9.99839 3.57775 12
145 1 -1.25359 -0.431206 -10.9355 23
146 1 2.69954 9.06048 -10.8201 14
147 1 -1.6564 -3.1789 5.78399 22
148 1 5.00537 14.064 0.574509 12
149 1 9.07058 2.12248 4.0842 22
150 1 -8.52239 -0.210562 1.08077 20
151 1 -0.490329 -8.97307 7.70622 11
152 1 -8.34081 7.64115 4.43506 16
153 1 2.03726 -4.35658 -12.8803 14
154 1 5.19865 -7.39198 -3.5746 18
155 1 8.139 -4.49231 -12.1034 10
156 1 -2.983 -3.44013 2.82607 21
157 1 -0.781068 1.93257 10.4919 15
158 1 -8.04544 2.62532 -0.593298 25
159 1 5.46615 -11.636 -5.91199 12
160 1 -1.4093 8.38208 -0.462911 23
161 1 -4.88614 4.6782 2.21268 23
162 1 -2.05 -11.04 2.70721 14
163 1 -4.14332 6.39809 8.36658 14
164 1 -7.68865 -3.95347 -7.10042 20
165 1 -5.12964 11.076 3.64585 12
166 1 -3.37039 1.33826 -8.41358 24
167 1 -11.4619 1.65357 0.560769 17
168 1 -2.99193 -4.6905 -8.65179 21
169 1 -5.85844 7.42035 -3.734 23
170 1 8.40284 -3.46596 4.67375 17
171 1 5.50245 -8.29409 6.19518 15
172 1 1.79694 -0.526859 7.95712 23
173 1 2.29985 -14.0578 -8.91638 10
174 1 -8.57022 -1.22239 -8.8886 22
175 1 -11.918 -0.333922 -4.40355 18
176 1 -1.43923 -7.02484 -2.42168 23
177 1 13.0215 3.35794 -3.60832 10
178 1 -1.13287 6.14514 -11.0839 17
179 1 -11.5438 7.03897 4.45574 6
180 1 -8.47984 12.0446 -1.63022 10
181 1 -1.24038 2.7739 4.58165 21
182 1 9.88354 -4.40048 -9.47795 12
183 1 11.3848 -2.1129 -7.94717 14
184 1 -4.65122 4.1391 -3.09639 21
185 1 -2.00841 -10.0545 -8.16628 17
186 1 2.3217 10.3851 2.10466 18
187 1 -11.0202 0.778495 -7.45546 22
188 1 4.18983 -13.0978 -3.05262 12
189 1 10.9717 -0.00380447 4.67292 15
190 1 -11.2551 -4.16458 -7.36083 15
191 1 -8.79376 -11.275 -2.19617 14
192 1 -3.76649 10.191 -2.65324 19
193 1 -6.50926 4.93948 -5.46217 18
194 1 -4.34652 -5.43324 -11.3606 22
195 1 2.05272 -9.83197 3.6408 16
196 1 -4.46974 -12.1681 -4.87276 18
197 1 -11.5366 3.87872 -8.75499 13
198 1 -3.06824 -11.3393 -0.480371 16
199 1 -4.91669 -0.863705 7.06891 22
200 1 -6.6321 1.82781 2.73313 24
201 1 0.627605 -4.42213 -8.31258 24
202 1 1.75599 -3.0858 5.39717 21
203 1 -10.4382 0.83515 5.64969 18
204 1 -3.25709 -3.38696 8.65051 23
205 1 -4.996 -5.30425 9.81972 10
206 1 2.44123 -7.28041 -8.02879 21
207 1 5.10206 -11.38 -0.263934 17
208 1 0.918693 13.228 -5.77022 15
209 1 -8.91448 -7.89375 4.9139 10
210 1 8.90584 -1.24279 6.77721 17
211 1 8.82285 4.54832 -3.79192 21
212 1 3.7734 -2.03631 -10.9185 23
213 1 10.7775 -6.22521 5.7373 11
214 1 -7.06799 -0.436193 9.7105 14
215 1 1.34863 15.4551 -3.80067 10
216 1 7.20693 -7.72316 3.10226 17
217 1 -1.81453 -13.8242 -8.76802 10
218 1 0.811386 11.7362 4.29166 15
219 1 -6.97032 -0.597997 4.79054 20
220 1 -7.62136 -7.82062 -5.50486 17
221 1 -6.76906 -11.1103 -6.88206 15
222 1 -5.96737 9.45141 6.80623 11
223 1 -4.99051 -13.7086 -7.54537 11
224 1 -6.62224 -3.23869 2.42972 21
225 1 9.4067 5.85574 5.06469 11
226 1 11.0129 8.60503 -4.87234 12
227 1 1.27822 3.85038 -8.97832 20
228 1 -1.97335 3.90674 -8.37709 21
229 1 -2.78238 9.16818 7.46529 13
230 1 -14.1856 -2.19933 -3.41908 13
231 1 4.23403 10.9307 -7.07165 12
232 1 -6.57461 -7.19814 -9.73849 17
233 1 -0.951957 -3.79067 -14.0282 16
234 1 10.777 8.3384 -7.86142 12
235 1 2.13824 8.35648 -0.922685 19
236 1 3.62376 1.01766 -12.5525 22
237 1 4.58597 -8.07919 2.22927 19
238 1 -5.36737 2.61718 -12.6985 13
239 1 11.5308 8.65796 -1.5751 13
240 1 6.72751 -4.28756 -2.10571 23
241 1 -0.387348 0.887952 -13.5654 19
242 1 2.64277 -8.93132 0.334528 20
243 1 2.03737 -8.59315 6.66731 13
244 1 -6.2465 1.04831 -9.64412 17
245 1 -2.04127 3.91669 -13.213 14
246 1 -13.3791 -3.7353 2.27055 10
247 1 9.57546 0.262403 -6.15244 23
248 1 -3.96556 8.60466 -5.37196 23
249 1 3.22904 -8.1218 -11.6004 12
250 1 1.38582 3.19309 -13.4628 17
251 1 11.4382 -4.4014 -6.44492 14
252 1 -8.24154 -5.41856 2.32689 16
253 1 -2.54834 12.8561 2.75063 17
254 1 0.675182 10.7931 -7.95248 15
255 1 11.3979 5.46075 -3.26333 15
256 1 -1.72749 -12.2213 -6.19051 16
257 1 2.55729 -5.43586 -10.3932 21
258 1 3.81988 7.12982 -3.87854 21
259 1 12.6815 -2.45132 -1.94702 14
260 1 2.08356 -8.9169 -5.14363 18
261 1 -8.8092 3.88483 5.3238 16
262 1 -5.21154 -6.64232 -7.48603 18
263 1 -0.731943 -4.44441 11.0373 11
264 1 8.81026 8.02001 -10.2653 15
265 1 -7.38723 8.98445 -6.62401 13
266 1 -1.09151 14.6656 -0.243601 13
267 1 -1.76467 -0.699619 8.35184 22
268 1 3.99213 -14.4228 -6.13598 10
269 1 7.13927 -3.4243 -9.65089 17
270 1 -13.0963 -4.5434 -0.994041 14
271 1 -8.94023 1.16619 -4.56687 19
272 1 -9.50097 -1.8682 3.61216 18
273 1 4.70812 9.98002 -3.35265 19
274 1 3.22905 -11.652 -10.6538 9
275 1 5.29867 -5.76768 8.24921 11
276 1 6.72564 -0.387798 -5.5859 21
277 1 -9.44917 7.79787 1.56665 15
278 1 10.1401 -7.39676 -6.62668 11
279 1 -1.45931 8.23858 4.55442 18
280 1 -6.09688 -1.43717 -15.4653 8
281 1 7.04302 6.11473 -14.4332 10
282 1 -4.83621 -4.67774 -14.1615 13
283 1 -4.12515 -9.19826 -5.63186 20
284 1 13.3859 -0.531322 -5.33352 9
285 1 8.7999 -7.45666 -9.87903 11
286 1 3.30397 -11.0822 -7.49961 15
287 1 7.52538 12.0253 -4.83347 11
288 1 -8.27354 4.42533 -3.29383 21
289 1 11.7961 5.59167 -6.1847 14
290 1 3.50702 -2.7416 8.42542 19
291 1 4.1936 10.0488 4.0961 14
292 1 -9.77007 1.19847 -10.6263 15
293 1 10.3158 6.14133 -0.433324 17
294 1 10.2299 -4.62044 -2.27299 20
295 1 -2.05862 11.6108 5.17301 12
296 1 5.46685 2.36817 3.98322 21
297 1 -7.33063 10.3623 -3.81709 17
298 1 0.791966 -15.5957 -6.87798 9
299 1 -5.82432 7.39552 -8.10097 19
300 1 -4.27829 0.328094 -11.1539 18
301 1 -12.8082 3.14827 -5.52906 12
302 1 12.6614 -6.19137 2.75444 10
303 1 -3.87484 -6.97009 7.5639 16
304 1 10.898 1.67129 -8.15995 11
305 1 13.7207 -0.939 0.391403 13
306 1 6.94332 11.8706 -1.71264 15
307 1 13.9618 -3.36254 1.17958 10
308 1 -6.61052 2.54494 10.7622 10
309 1 -11.8341 -6.96849 1.38655 13
310 1 -11.4669 -1.45972 -9.76356 12
311 1 7.86407 3.096 8.72074 10
312 1 -5.37316 11.7769 -0.531684 16
313 1 8.82313 4.92958 1.98163 21
314 1 5.50833 4.73764 1.39043 20
315 1 -7.04472 2.00229 6.61819 19
316 1 7.4078 0.942183 -13.2242 13
317 1 -1.43039 -7.14407 -7.85516 22
318 1 7.04871 4.87538 4.21165 17
319 1 1.97927 8.58925 4.89701 16
320 1 1.02992 -1.24323 11.3341 11
321 1 -1.62955 6.96787 9.96199 9
322 1 -9.33905 1.90134 8.49688 12
323 1 -3.07522 5.50544 -5.78509 23
324 1 7.52975 9.48518 -7.45906 16
325 1 -0.0256839 -0.253697 5.55365 22
326 1 4.02653 12.6381 -4.14607 15
327 1 -7.25673 -12.8176 -4.76825 13
328 1 7.06503 5.67014 -1.50492 23
329 1 1.90622 2.64032 5.00729 23
330 1 -6.31184 5.52675 -0.792472 23
331 1 6.3202 5.47765 -7.08026 17
332 1 3.75084 1.9043 7.70953 17
333 1 6.73571 13.1543 3.27909 8
334 1 0.0567035 -2.87082 -10.7373 22
335 1 -2.8052 7.08006 1.93395 20
336 1 8.76431 -4.5775 -4.32464 19
337 1 7.00949 7.626 1.73016 21
338 1 -12.2861 -0.311638 3.09686 14
339 1 1.94638 -12.1841 -0.850555 14
340 1 7.54057 8.91666 -12.7248 10
341 1 7.66164 -5.85765 0.168863 21
342 1 0.378533 7.24848 2.05243 22
343 1 2.51745 1.0173 -15.445 13
344 1 5.65806 -6.53004 -9.78213 20
345 1 -4.79104 8.10977 4.52668 19
346 1 -0.102787 -6.16461 5.36853 20
347 1 1.59547 0.425265 -10.6568 24
348 1 -9.64717 -10.1856 -5.351 14
349 1 -3.04714 0.160646 4.84729 21
350 1 10.5934 1.9296 1.11318 19
351 1 -3.85828 10.0762 -7.46158 17
352 1 9.81968 6.22735 -12.5375 11
353 1 9.6796 4.84789 -9.2125 17
354 1 0.68983 6.6969 -8.73676 22
355 1 -5.06438 -2.34517 10.8362 12
356 1 -5.3578 -6.78865 2.19545 18
357 1 0.0916266 -8.44567 -10.3298 16
358 1 -8.76687 7.03465 -5.4266 17
359 1 10.0395 11.0971 -2.64764 11
360 1 -8.38132 -3.11615 -0.504348 23
361 1 3.84552 6.5301 -9.24875 20
362 1 -3.74854 0.504388 10.9984 14
363 1 -13.7593 -0.949012 -0.631628 14
364 1 7.86384 3.00019 -6.53121 21
365 1 -9.21977 -4.58621 -4.11031 21
366 1 8.30376 -2.91355 -0.0169435 18
367 1 5.82229 -7.86533 -0.915023 23
368 1 -1.28814 10.2186 2.3134 21
369 1 -6.0868 4.09011 8.01892 17
370 1 8.57325 3.09517 -1.09117 19
371 1 12.0889 -6.44019 -3.75343 9
372 1 3.79499 7.32136 1.53366 21
373 1 0.963929 12.5149 1.00527 20
374 1 -4.13959 -11.6773 4.86406 11
375 1 -11.1803 -2.83582 -2.39013 22
376 1 1.82696 2.04992 10.4804 13
377 1 2.88578 11.2981 -1.29543 18
378 1 6.16816 -5.82099 5.03938 18
379 1 11.3451 -3.59201 3.58998 16
380 1 5.48762 10.769 1.46389 18
381 1 -2.74098 7.37154 -2.901 25
382 1 -2.68933 -7.39109 -13.5136 13
383 1 -3.64507 1.50301 -15.1741 11
384 1 -7.05379 -3.43303 8.4002 15
385 1 12.7878 2.39217 3.7913 10
386 1 1.91063 10.4908 -5.0942 20
387 1 5.13795 -1.29119 -14.4035 9
388 1 -6.04006 -13.1579 -1.75017 11
389 1 -6.69038 -1.11602 -5.57482 22
390 1 7.21321 -1.46915 -11.3653 14
391 1 -0.829517 -9.05381 -5.73598 19
392 1 1.87567 -5.69599 9.30654 13
393 1 -1.58385 -7.13167 2.02584 16
394 1 10.4525 3.01124 -11.5511 9
395 1 -7.64232 10.8272 1.80714 12
396 1 10.8195 -1.99032 -4.84373 19
397 1 -14.0485 1.3552 -2.77478 10
398 1 10.1822 8.08382 1.76361 12
399 1 6.54476 7.93705 5.53899 15
400 1 -13.169 -1.67169 -6.90896 13
401 1 -3.89031 4.27522 -10.5755 18
402 1 11.0918 -6.3632 -0.179457 15
403 1 -8.98818 -6.99921 -7.45189 14
404 1 -7.20165 -9.99789 3.48581 16
405 1 11.0418 -3.43881 0.87981 21
406 1 -10.867 4.88816 2.11141 15
407 1 5.03862 6.82482 -12.1472 17
408 1 8.68224 -8.0481 6.68391 10
409 1 -8.7024 -1.05828 7.1718 18
410 1 -3.15622 -7.40933 -10.0681 22
411 1 -8.25085 -11.6834 0.704022 15
412 1 5.55465 -0.340656 7.78825 21
413 1 -1.38388 -13.0103 -3.32596 13
414 1 8.95539 -0.87117 -9.02945 17
415 1 -7.67523 8.56703 -0.689109 20
416 1 -4.9133 2.49003 5.04666 21
417 1 -1.97197 -14.6503 -5.9784 11
418 1 7.08563 7.54915 -4.27078 17
419 1 9.89642 1.144 -2.64683 22
420 1 1.72402 -6.84494 2.56225 19
421 1 2.27325 8.28118 -7.06753 19
422 1 8.95577 3.51444 -14.6547 9
423 1 -11.2784 5.72909 -3.62624 14
424 1 3.56558 5.1367 -6.46464 22
425 1 3.25497 14.0329 2.57895 12
426 1 5.31275 8.01701 -6.61049 20
427 1 -3.55087 3.56781 10.1405 14
428 1 6.12439 1.56635 -9.64856 18
429 1 3.29876 -13.0709 2.15121 11
430 1 -5.11069 -3.52005 5.50993 17
431 1 10.5301 3.31238 6.44245 12
432 1 6.84574 -5.86012 -6.0565 18
433 1 -1.04057 2.84989 -10.7741 22
434 1 -1.15822 4.49718 2.10781 23
435 1 -3.02397 5.19433 -0.40809 23
436 1 -3.98016 -9.26525 2.66549 24
437 1 8.44013 -7.67784 -2.6604 16
438 1 1.76164 -1.18691 -13.3571 19
439 1 -6.14878 -3.85838 -2.665 19
440 1 -8.0713 1.68853 -7.3027 19
441 1 10.3505 0.575901 7.99988 12
442 1 -10.246 -9.94539 2.82938 11
443 1 13.1223 0.765674 -2.26245 13
444 1 1.9983 6.09774 -11.7958 17
445 2 -12.9616 0.134858 -7.44477 13
446 2 -5.37717 13.7045 -5.03105 11
447 2 0.959997 -0.54074 -15.0876 14
448 2 -2.88645 5.10578 8.90417 18
449 2 -4.83898 -1.69729 -6.18466 20
450 2 3.63909 1.61324 9.76905 12
451 2 -12.8518 2.42992 -1.49813 12
452 2 10.4627 5.88693 1.54068 17
453 2 -3.29751 -2.72204 -9.16252 24
454 2 -6.23807 -10.8058 -8.61566 11
455 2 -6.16577 1.80789 -1.16785 23
456 2 -1.65364 -7.37839 4.53317 19
457 2 3.91704 5.6453 7.35797 12
458 2 6.6846 -0.811424 -13.1391 10
459 2 7.06835 -0.0961027 1.63998 22
460 2 -2.92768 14.8755 -3.44153 11
461 2 11.5741 2.36137 5.15817 12
462 2 -8.99 -3.48335 2.65915 18
463 2 -4.71106 -12.7284 -0.19945 12
464 2 10.1967 -4.86728 4.63617 16
465 2 -10.0428 7.38734 -3.8959 11
466 2 -7.28693 8.4254 -4.69842 18
467 2 -3.16089 7.27739 4.1033 21
468 2 7.56775 -4.21778 -6.01906 19
469 2 -4.72473 -3.68489 -12.2318 17
470 2 0.929662 -4.49822 -10.9238 18
471 2 8.6119 -2.94661 -11.1767 13
472 2 13.426 5.32265 -2.64469 12
473 2 -4.73988 8.17225 1.32553 23
474 2 -3.29658 -9.41411 -9.48358 20
475 2 3.8212 -9.47462 6.07519 13
476 2 10.0149 1.01944 2.70593 20
477 2 -9.10654 2.66267 -3.29917 17
478 2 7.67075 7.31393 -0.704037 20
479 2 4.85037 -12.2184 1.65255 12
480 2 0.387722 5.29368 1.48119 23
481 2 6.59527 9.38766 0.430371 16
482 2 0.237083 11.678 -4.28227 21
483 2 -9.99672 0.445606 7.51478 13
484 2 1.47591 0.112128 -8.72116 24
485 2 -4.59975 -0.0674125 -9.22136 18
486 2 -11.9699 1.64563 2.52884 13
487 2 -8.6677 -5.59444 0.397717 21
488 2 1.73438 -7.06455 5.6978 20
489 2 0.212852 -4.57177 9.45955 16
490 2 0.156384 4.93499 6.8968 19
491 2 -8.11979 4.57318 -1.27071 19
492 2 3.44157 -9.66866 -6.23845 17
493 2 12.3068 -1.9204 -6.23076 12
494 2 -2.61194 -11.7564 -2.2847 15
495 2 5.83158 -4.63227 -9.20893 18
496 2 2.34908 10.5877 4.45285 12
497 2 6.38761 -10.0466 -6.48029 13
498 2 5.20279 -2.36597 7.49665 20
499 2 -5.01309 -6.92794 0.119104 19
500 2 12.3346 -0.320552 -0.761847 18
501 2 1.74735 -10.0123 -1.13504 17
502 2 11.2605 -3.17636 -2.98237 20
503 2 -7.49839 -5.27822 -10.328 19
504 2 -10.285 -11.3621 1.5304 10
505 2 -1.46009 -6.89791 -0.287788 17
506 2 -6.70974 -8.11807 -3.90658 16
507 2 -4.50805 9.82991 -0.823051 17
508 2 4.89505 1.31041 -8.08994 18
509 2 11.8004 3.98498 -4.8652 12
510 2 2.53487 2.77369 -9.93654 20
511 2 -5.24336 2.483 7.01666 22
512 2 -11.3886 5.30965 3.71988 11
513 2 -4.84235 -3.0848 7.5051 21
514 2 -9.20756 5.75072 1.53042 20
515 2 -7.41862 0.722702 -5.72125 19
516 2 10.5723 -0.187681 -8.31576 13
517 2 7.95841 -9.4359 -3.5826 13
518 2 9.25515 4.8312 -1.41452 16
519 2 -0.0972881 14.1417 1.31905 17
520 2 -2.83722 5.21297 1.5212 22
521 2 11.8019 6.58577 -1.41048 13
522 2 2.34733 7.80476 -2.76915 22
523 2 2.58185 13.8345 -4.6659 11
524 2 -1.29014 2.37023 6.5596 23
525 2 -1.50914 -2.45294 7.97429 22
526 2 2.51357 -5.25148 -8.54246 18
527 2 -3.72798 2.32432 11.4854 9
528 2 5.9074 5.16851 -13.0467 15
529 2 -7.30463 -7.59754 5.78167 12
530 2 -4.11444 -8.78856 -3.54474 18
531 2 -1.36309 -5.64167 -9.23695 22
532 2 3.60178 -12.0504 -1.43048 18
533 2 11.773 1.73432 -3.5437 15
534 2 -5.41222 4.48347 -11.701 14
535 2 -0.948394 12.8408 3.95903 12
536 2 -8.14758 -3.34892 -2.87261 20
537 2 4.73359 5.36253 -10.3657 18
538 2 1.27212 14.6056 -2.28077 15
539 2 -0.0388036 6.49471 9.22951 10
540 2 2.63128 -15.269 -7.31626 10
541 2 3.54091 7.31119 5.03252 17
542 2 11.6893 -6.04749 -1.88013 13
543 2 6.92064 5.64101 2.34482 21
544 2 -1.97879 8.00208 -11.8644 11
545 2 9.55567 -6.42272 7.21139 9
546 2 -4.4833 -9.87839 5.67351 13
547 2 6.35176 -9.37195 1.85409 15
548 2 -7.09117 10.8719 -6.40289 11
549 2 -5.96144 -12.7867 -6.25862 12
550 2 0.651896 -1.12436 -11.51 22
551 2 -3.49919 -8.54969 -12.3075 14
552 2 5.02043 13.5693 2.53624 10
553 2 -9.41249 -7.44315 -1.41658 18
554 2 -11.6985 3.81303 0.859139 14
555 2 10.4137 0.00394999 6.29647 15
556 2 -2.70282 -13.2204 -4.9505 14
557 2 1.70652 0.998327 -12.7129 21
558 2 -6.69371 -0.758389 -13.7066 14
559 2 -8.34744 -3.53894 -12.0987 14
560 2 -6.11942 -3.85135 10.1237 12
561 2 -4.77055 -6.22604 -9.5035 22
562 2 0.0821667 -2.67292 -8.96137 25
563 2 5.51861 -1.98637 -10.1198 17
564 2 -10.6554 -8.59829 1.35737 16
565 2 2.62857 -2.56 -12.5347 18
566 2 -0.462275 -8.88796 -8.25126 17
567 2 4.59284 8.18198 -10.8041 15
568 2 1.83067 13.3602 3.58355 12
569 2 12.1113 2.7889 1.80276 14
570 2 -11.829 -0.207608 0.229202 18
571 2 -5.78183 -8.48164 3.26765 21
572 2 -3.24351 -0.905745 -12.0346 19
573 2 4.42425 9.36472 2.12383 19
574 2 -6.32426 -5.91333 -2.19343 23
575 2 -4.76593 4.47967 -1.12435 21
576 2 -8.8311 -1.50782 5.34955 17
577 2 -4.13901 -11.1805 2.74552 15
578 2 -12.2213 -2.31802 2.30265 16
579 2 -7.30577 -8.61631 -0.254492 20
580 2 -6.38035 -5.28179 2.13691 17
581 2 7.90201 -7.06286 5.27815 15
582 2 4.90929 6.33002 -7.8034 17
583 2 5.70794 9.73078 -7.78326 16
584 2 9.62963 2.09972 -6.72554 17
585 2 -2.61397 13.8429 -0.495661 11
586 2 -9.76392 -5.33335 -8.07239 14
587 2 -14.537 -0.436806 -2.52295 10
588 2 -0.669541 -14.8704 -7.61986 10
589 2 5.25327 -7.27269 3.97754 20
590 2 11.886 -6.86525 4.43646 8
591 2 -5.27795 8.7491 -6.78652 18
592 2 8.79659 2.59565 -3.30094 23
593 2 8.88594 -0.697103 8.67214 13
594 2 -1.90023 -4.07418 -11.9811 22
595 2 3.63381 5.44583 2.16656 20
596 2 5.28867 4.37209 4.66289 20
597 2 -3.2197 -2.93752 10.6185 15
598 2 -6.53474 5.5008 1.22053 24
599 2 9.8446 5.17432 -11.0853 12
600 2 -5.56125 -4.46549 -7.10444 20
601 2 -11.6526 -2.53631 -8.05711 14
602 2 -6.80576 -0.143951 6.80035 21
603 2 8.32704 11.1016 -6.54765 9
604 2 8.20531 4.66935 -5.77629 19
605 2 11.0597 -6.38491 1.62925 13
606 2 -9.7398 1.6973 -0.557078 20
607 2 -1.49372 10.1109 -1.48914 20
608 2 -3.37912 8.84742 -9.00638 15
609 2 4.28436 2.7422 -12.6611 19
610 2 -9.92706 2.15083 -6.30342 20
611 2 -10.3551 -2.36415 -0.78293 21
612 2 9.48462 -6.14661 -3.1675 20
613 2 4.53232 -9.41929 -0.873116 22
614 2 -6.47957 7.60669 -1.78444 23
615 2 0.100472 -5.97951 2.09131 20
616 2 -11.5073 4.38315 -4.99065 15
617 2 2.24737 -6.95508 -0.279131 19
618 2 1.57727 7.79897 6.7314 14
619 2 -0.408617 2.96896 -13.8705 14
620 2 2.41074 7.83542 -8.99436 21
621 2 8.79926 5.41363 -13.949 12
622 2 -2.66351 10.8353 -4.30946 17
623 2 -8.21217 -1.81865 8.83992 15
624 2 -5.64453 -6.44108 8.3652 12
625 2 -3.15348 -5.69445 2.54645 19
626 2 -13.0691 -3.78397 -2.95507 14
627 2 -6.53961 -3.00838 4.23661 18
628 2 -1.25984 7.51502 -9.52329 19
629 2 8.1987 -0.741917 -6.81803 21
630 2 3.74578 -4.11127 4.90458 20
631 2 3.68331 0.0842573 -10.5995 21
632 2 6.92344 5.40542 -3.33431 20
633 2 2.72238 11.6679 0.627068 20
634 2 3.07967 -2.57084 -8.71781 23
635 2 -6.60377 -3.62948 -0.718113 21
636 2 -4.22275 11.8796 -7.36338 13
637 2 -2.89646 8.17314 9.08308 9
638 2 0.458457 -13.017 -2.34007 12
639 2 -6.87905 -10.9257 1.94458 13
640 2 3.62875 0.0181209 7.42034 18
641 2 6.26831 7.63998 -13.2065 12
642 2 3.80795 9.80983 -1.68559 20
643 2 2.50063 -8.53298 2.26751 18
644 2 2.12503 -12.0369 -9.01125 11
645 2 2.14051 4.81712 -13.0199 14
646 2 1.16847 3.20894 9.17679 15
647 2 2.53043 2.84189 6.87157 21
648 2 8.13407 -6.27448 2.1929 19
649 2 -2.08489 0.466649 -15.0389 12
650 2 8.8612 -2.83877 -8.49156 19
651 2 -7.23519 12.1261 -3.09525 11
652 2 3.99437 -10.1036 -11.0312 10
653 2 -2.14805 -0.142896 10.2218 19
654 2 -10.196 2.77547 -9.80169 14
655 2 8.03295 -7.27587 -5.96591 17
656 2 3.12621 14.8849 0.828209 11
657 2 10.3885 8.8396 -0.160026 12
658 2 10.0975 1.41485 -0.787292 19
659 2 -10.5302 -0.253747 -5.9144 18
660 2 -5.77127 3.24115 -6.28101 15
661 2 -6.64729 2.926 -8.60276 19
662 2 10.5754 6.35318 -7.61476 15
663 2 -8.40215 5.20463 -5.10546 18
664 2 -0.65724 -4.93413 6.73139 19
665 2 -2.93406 -5.56837 9.02463 14
666 2 3.6672 -13.4408 -10.5031 6
667 2 -1.46088 -2.07733 -14.7295 13
668 2 3.48887 12.6139 -2.44805 17
669 2 9.51264 11.9928 -4.46266 10
670 2 -8.20946 -2.48857 -5.69852 18
671 2 -8.14117 -10.4107 -3.93788 16
672 2 8.35995 -1.69891 4.06767 20
673 2 -8.72336 10.0896 -2.57872 10
674 2 1.82628 -12.2643 1.12841 14
675 2 8.4804 -0.803572 -1.52611 21
676 2 -3.32112 -3.67396 4.76286 18
677 2 -4.07123 -7.5447 -6.27219 21
678 2 -1.75091 10.0311 4.29871 18
679 2 -0.373755 12.7216 -0.867837 16
680 2 -10.0249 8.10462 3.84934 10
681 2 0.613287 -9.62275 6.2761 14
682 2 -2.57889 11.4947 1.50388 22
683 2 -0.130544 -14.5718 -4.8691 10
684 2 0.00817311 -4.3185 4.61355 21
685 2 6.2414 3.10076 7.26593 15
686 2 -7.73789 8.96169 1.19039 17
687 2 -5.98728 5.49028 -3.58947 19
688 2 -1.82148 2.54971 9.06515 19
689 2 -6.23088 -8.84531 -10.8788 13
690 2 9.99174 -0.411534 -4.08724 25
691 2 4.25841 -7.78766 -8.43453 20
692 2 -4.19719 8.43955 -3.64974 19
693 2 -7.78725 1.42958 9.66388 13
694 2 -12.7879 2.78811 -7.3212 12
695 2 11.3464 -6.31876 -5.61678 11
696 2 5.56402 8.30503 -3.52664 17
697 2 -3.23907 -0.0662591 6.80757 19
698 2 -0.0798672 0.0153593 7.57403 22
699 2 1.32036 8.01571 -12.0793 13
700 2 -13.4477 -1.69845 -5.09373 14
701 2 -7.11305 -2.57755 -8.64421 18
702 2 3.72448 7.17343 -5.82878 24
703 2 -6.05179 1.22968 -11.7035 16
704 2 5.41351 -7.42894 -11.3647 13
705 2 -1.01448 -8.84968 -2.28369 16
706 2 5.04552 -6.54056 6.49775 15
707 2 4.96544 -1.18526 4.03098 22
708 2 9.87222 -3.46238 -5.54544 19
709 2 -1.64293 -11.5471 0.908001 14
710 2 6.59324 11.3844 2.93411 12
711 2 -1.23877 8.33422 1.50335 21
712 2 -11.9037 -5.92724 -0.388577 18
713 2 9.00899 8.6745 -8.40701 15
714 2 6.528 -4.07702 4.34072 22
715 2 -7.32125 11.7046 -0.25466 13
716 2 7.05635 1.50967 -5.60667 20
717 2 0.72831 7.38261 3.90286 25
718 2 -8.19496 2.67319 1.6126 22
719 2 3.93141 10.5758 -5.13227 19
720 2 7.37024 2.68981 -13.8526 11
721 2 -3.19416 2.0345 4.49189 22
722 2 -5.30816 -0.485256 10.5189 12
723 2 11.8453 -1.74275 4.2372 15
724 2 9.94157 2.42581 -13.4374 8
725 2 -8.60159 -5.99272 -5.32827 19
726 2 3.28632 -8.52708 -3.18079 19
727 2 11.2106 -3.82933 -8.29102 13
728 2 0.296902 7.4215 -0.996262 19
729 2 -0.762149 -6.96869 -13.932 13
730 2 -9.69188 2.19205 4.38205 17
731 2 -7.8505 -1.23008 -0.694711 20
732 2 4.00697 -12.4744 -6.56955 13
733 2 -1.35385 -12.0496 -8.06722 14
734 2 -2.34092 -10.4469 -6.10668 17
735 2 13.2425 -0.801877 -3.381 13
736 2 0.169433 9.88166 -10.016 15
737 2 5.711 12.3144 -0.273106 17
738 2 -3.26862 -14.1717 -7.59956 9
739 2 3.77103 1.50959 4.38813 22
740 2 -6.02951 6.08498 8.01995 12
741 2 -5.17214 5.89888 -6.86566 19
742 2 -2.98262 5.27621 -8.97469 21
743 2 -0.28482 -10.2326 -10.653 12
744 2 -7.5207 -12.2687 -1.11541 13
745 2 -9.50285 7.67253 -0.717044 13
746 2 7.38096 9.13345 -10.5255 11
747 2 -2.82755 7.37813 -6.21766 23
748 2 1.23544 5.41904 -10.2726 19
749 2 -6.11813 -6.38257 -12.3838 17
750 2 0.577999 -9.73804 -4.46165 19
751 2 -11.732 -4.9407 -5.64193 15
752 2 5.9756 9.45832 4.42285 13
753 2 -3.57582 2.77998 -13.7348 15
754 2 -12.2813 -5.48637 2.68322 11
755 2 7.01953 -0.158225 6.6696 22
756 2 7.61773 6.51053 5.26699 13
757 2 10.1615 2.95087 -9.65985 12
758 2 0.243116 12.452 -7.37059 15
759 2 -1.96726 13.7189 -6.37147 13
760 2 14.3764 -1.78273 1.89739 10
761 2 -3.09847 2.76734 -9.64174 22
762 2 2.34431 10.2934 -7.3898 15
763 2 0.592542 0.571397 11.1222 14
764 2 -1.28169 -7.59391 -11.323 17
765 2 5.95338 -1.19118 10.0489 13
766 2 -1.10396 4.54196 4.10199 23
767 2 6.98526 -11.0118 -0.792115 13
768 2 9.41464 -5.75017 -10.8929 11
769 2 -5.46168 9.84455 4.99782 14
770 2 6.06059 -11.1657 4.82068 9
771 2 0.429763 9.22837 -5.79082 20
772 2 1.6256 4.28881 4.04633 20
773 2 -10.1273 4.86243 -8.01242 13
774 2 -0.0447348 14.899 -4.78362 10
775 2 -9.63689 -8.34544 -6.14167 12
776 2 0.540348 -4.70189 -14.094 12
777 2 -8.51818 2.91154 7.01015 14
778 2 12.8722 -2.8989 -0.192609 15
779 2 -1.92705 10.5996 -7.40377 20
780 2 -9.50611 -0.129022 2.50767 21
781 2 -8.55389 -11.8637 -6.21992 9
782 2 -4.43705 8.30696 7.19599 14
783 2 -3.82905 -5.99311 -13.1375 17
784 2 -8.03776 5.40952 -9.78802 12
785 2 -0.92653 1.2456 -11.5348 20
786 2 -4.57666 -0.39938 -15.0005 15
787 2 -6.49818 7.22769 3.86402 20
788 2 -7.38782 8.43315 6.29407 11
789 2 6.20408 11.6005 -3.58943 13
790 2 -5.74297 -12.7433 -3.61418 14
791 2 6.58114 3.07729 -10.474 16
792 2 6.63458 -5.1547 -12.8401 8
793 2 -10.1072 -10.139 -1.39353 14
794 2 -7.55103 7.25417 -7.37936 14
795 2 -9.18945 -6.26554 3.93647 17
796 2 -1.98371 4.36448 -11.3958 15
797 2 -2.14268 -11.4165 4.73376 12
798 2 10.4679 5.12587 6.38915 6
799 2 8.60741 -3.11311 6.79551 16
800 2 -4.8312 -0.684806 4.61859 22
801 2 9.21038 7.88458 -12.1502 9
802 2 -1.58702 7.74654 6.52662 18
803 2 -1.17446 -7.01788 -5.94011 20
804 2 -11.1911 -7.24538 -3.69432 14
805 2 -8.941 -9.73058 4.07178 11
806 2 -6.67199 0.12488 1.51574 19
807 2 -5.31777 6.97696 -10.201 15
808 2 -10.702 -4.56093 -2.6206 20
809 2 -5.46541 10.944 1.82262 14
810 2 7.18427 -9.34527 6.47725 12
811 2 8.5863 8.35315 2.61662 15
812 2 -3.61105 -9.41023 -0.569015 20
813 2 -11.0191 -3.53527 4.94367 12
814 2 -12.8423 1.3363 -4.17794 16
815 2 -1.41906 -1.13547 4.54845 23
816 2 2.56604 -1.39408 9.83395 16
817 2 0.310024 -10.9341 3.30065 12
818 2 8.86925 3.37287 0.947899 20
819 2 5.3034 -6.96189 -5.31425 18
820 2 -2.91351 7.18785 -1.10374 23
821 2 -8.98545 -0.128469 -11.8 14
822 2 -4.49594 -2.41291 1.65093 19
823 2 3.44044 -5.21536 8.81906 11
824 2 -2.09093 -8.1291 7.52136 13
825 2 6.77281 -4.57952 8.35442 11
826 2 5.30189 3.99746 -6.40389 17
827 2 8.99111 4.1716 3.92617 19
828 2 4.09083 0.131757 -14.2397 14
829 2 9.7446 -1.95118 0.967706 19
830 2 10.8607 6.68299 -4.72326 15
831 2 9.51828 -7.92139 -8.27336 9
832 2 0.54956 10.9965 2.24037 21
833 2 13.8104 0.824286 3.32525 9
834 2 -4.48372 -6.96803 5.57743 16
835 2 1.85507 -2.50027 7.24697 19
836 2 -7.5214 -4.39092 6.84081 13
837 2 3.23208 -14.0009 -4.40678 11
838 2 9.83208 -4.69041 -0.0985222 18
839 2 12.6624 -4.14896 2.25108 16
840 2 0.781041 -7.2796 8.44312 12
841 2 6.79769 -4.20491 -0.0198961 18
842 2 -7.85642 5.4637 5.79402 12
843 2 -4.83589 4.30233 4.14864 18
844 2 7.7394 5.70448 -8.62326 19
845 2 2.71008 -6.2512 -12.4352 13
846 2 7.31468 -8.73163 -9.89104 11
847 2 2.84501 2.84384 -15.2919 10
848 2 -7.77446 0.49684 -8.77533 18
849 2 8.44278 10.7752 -1.68758 13
850 2 -10.4821 -1.25055 -3.33486 19
851 2 13.5194 5.23316 0.437826 9
852 2 -6.40295 -0.638045 -3.26609 21
853 2 5.58627 -6.67707 0.825814 22
854 2 -0.957998 7.98638 -3.66886 22
855 2 13.776 2.49118 -1.57799 11
856 2 7.03053 7.03211 -6.2232 19
857 2 3.18835 -11.3169 3.73153 14
858 2 -13.3758 -2.81443 -0.253476 13
859 2 9.18392 2.27829 7.49406 15
860 2 8.48514 -7.62712 -0.592919 18
861 2 3.12401 -5.67134 2.23741 21
862 2 10.9969 9.54281 -3.20491 11
863 2 -6.76127 1.39366 4.58714 22
864 2 -10.8792 4.8609 -1.93706 16
865 2 8.31501 -3.38463 -2.64064 21
866 2 6.50907 -6.59264 -2.44653 21
867 2 -5.56526 -10.4254 -5.40466 19